# vtk DataFile Version 3.0
Scalar Field
ASCII
DATASET RECTILINEAR_GRID
DIMENSIONS 200 50 1
X_COORDINATES 200 double
0.050000 0.150000 0.250000 0.350000 0.450000 0.550000 0.650000 0.750000 0.850000 0.950000 1.050000 1.150000 1.250000 1.350000 1.450000 1.550000 1.650000 1.750000 1.850000 1.950000 2.050000 2.150000 2.250000 2.350000 2.450000 2.550000 2.650000 2.750000 2.850000 2.950000 3.050000 3.150000 3.250000 3.350000 3.450000 3.550000 3.650000 3.750000 3.850000 3.950000 4.050000 4.150000 4.250000 4.350000 4.450000 4.550000 4.650000 4.750000 4.850000 4.950000 5.050000 5.150000 5.250000 5.350000 5.450000 5.550000 5.650000 5.750000 5.850000 5.950000 6.050000 6.150000 6.250000 6.350000 6.450000 6.550000 6.650000 6.750000 6.850000 6.950000 7.050000 7.150000 7.250000 7.350000 7.450000 7.550000 7.650000 7.750000 7.850000 7.950000 8.050000 8.150000 8.250000 8.350000 8.450000 8.550000 8.650000 8.750000 8.850000 8.950000 9.050000 9.150000 9.250000 9.350000 9.450000 9.550000 9.650000 9.750000 9.850000 9.950000 10.050000 10.150000 10.250000 10.350000 10.450000 10.550000 10.650000 10.750000 10.850000 10.950000 11.050000 11.150000 11.250000 11.350000 11.450000 11.550000 11.650000 11.750000 11.850000 11.950000 12.050000 12.150000 12.250000 12.350000 12.450000 12.550000 12.650000 12.750000 12.850000 12.950000 13.050000 13.150000 13.250000 13.350000 13.450000 13.550000 13.650000 13.750000 13.850000 13.950000 14.050000 14.150000 14.250000 14.350000 14.450000 14.550000 14.650000 14.750000 14.850000 14.950000 15.050000 15.150000 15.250000 15.350000 15.450000 15.550000 15.650000 15.750000 15.850000 15.950000 16.050000 16.150000 16.250000 16.350000 16.450000 16.550000 16.650000 16.750000 16.850000 16.950000 17.050000 17.150000 17.250000 17.350000 17.450000 17.550000 17.650000 17.750000 17.850000 17.950000 18.050000 18.150000 18.250000 18.350000 18.450000 18.550000 18.650000 18.750000 18.850000 18.950000 19.050000 19.150000 19.250000 19.350000 19.450000 19.550000 19.650000 19.750000 19.850000 19.950000 
Y_COORDINATES 50 double
0.050000 0.150000 0.250000 0.350000 0.450000 0.550000 0.650000 0.750000 0.850000 0.950000 1.050000 1.150000 1.250000 1.350000 1.450000 1.550000 1.650000 1.750000 1.850000 1.950000 2.050000 2.150000 2.250000 2.350000 2.450000 2.550000 2.650000 2.750000 2.850000 2.950000 3.050000 3.150000 3.250000 3.350000 3.450000 3.550000 3.650000 3.750000 3.850000 3.950000 4.050000 4.150000 4.250000 4.350000 4.450000 4.550000 4.650000 4.750000 4.850000 4.950000 
Z_COORDINATES 1 double
0.0
POINT_DATA 10000
SCALARS Skalarfeld double 1
LOOKUP_TABLE default
0.000000
0.000000
0.000000
0.000000
0.000000
0.000000
0.000000
0.000000
0.000000
0.000000
0.000000
0.000000
0.000000
0.000000
0.000000
0.000000
0.000000
0.000000
0.000000
0.000000
0.000000
0.000000
0.000000
0.000000
0.000000
0.000000
0.000000
0.000000
0.000000
0.000000
0.000000
0.000000
0.000000
0.000000
0.000000
0.000000
0.000000
0.000000
0.000000
0.000000
0.000000
0.000000
0.000000
0.000000
0.000000
0.000000
0.000000
0.000000
0.000000
0.000000
0.000000
0.000000
0.000000
0.000000
0.000000
0.000000
0.000000
0.000000
0.000000
0.000000
0.000000
0.000000
0.000000
0.000000
0.000000
0.000000
0.000000
0.000000
0.000000
0.000000
0.000000
0.000000
0.000000
0.000000
0.000000
0.000000
0.000000
0.000000
0.000000
0.000000
0.000000
0.000000
0.000000
0.000000
0.000000
0.000000
0.000000
0.000000
0.000000
0.000000
0.000000
0.000000
0.000000
0.000000
0.000000
0.000000
0.000000
0.000000
0.000000
0.000000
0.000000
0.000000
0.000000
0.000000
0.000000
0.000000
0.000000
0.000000
0.000000
0.000000
0.000000
0.000000
0.000000
0.000000
0.000000
0.000000
0.000000
0.000000
0.000000
0.000000
0.000000
0.000000
0.000000
0.000000
0.000000
0.000000
0.000000
0.000000
0.000000
0.000000
0.000000
0.000000
0.000000
0.000000
0.000000
0.000000
0.000000
0.000000
0.000000
0.000000
0.000000
0.000000
0.000000
0.000000
0.000000
0.000000
0.000000
0.000000
0.000000
0.000000
0.000000
0.000000
0.000000
0.000000
0.000000
0.000000
0.000000
0.000000
0.000000
0.000000
0.000000
0.000000
0.000000
0.000000
0.000000
0.000000
0.000000
0.000000
0.000000
0.000000
0.000000
0.000000
0.000000
0.000000
0.000000
0.000000
0.000000
0.000000
0.000000
0.000000
0.000000
0.000000
0.000000
0.000000
0.000000
0.000000
0.000000
0.000000
0.000000
0.000000
0.000000
0.000000
0.000000
-0.932368
-0.926332
-0.919613
-0.913345
-0.907840
-0.903111
-0.899212
0.000000
0.000000
0.000000
0.000000
0.000000
0.000000
0.000000
0.000000
0.000000
0.000000
0.000000
0.000000
0.000000
0.000000
0.000000
0.000000
0.000000
0.000000
0.000000
0.000000
0.000000
0.000000
0.000000
0.000000
0.000000
0.000000
0.000000
0.000000
0.000000
0.000000
0.000000
0.000000
0.000000
0.000000
0.000000
0.000000
0.000000
0.000000
0.000000
0.000000
0.000000
0.000000
0.000000
0.000000
0.000000
0.000000
0.000000
0.000000
0.000000
0.000000
0.000000
0.000000
0.000000
0.000000
0.000000
0.000000
0.000000
0.000000
0.000000
0.000000
0.000000
0.000000
0.000000
0.000000
0.000000
0.000000
0.000000
0.000000
0.000000
0.000000
0.000000
0.000000
0.000000
0.000000
0.000000
0.000000
0.000000
0.000000
0.000000
0.000000
0.000000
0.000000
0.000000
0.000000
0.000000
0.000000
0.000000
0.000000
0.000000
0.000000
0.000000
0.000000
0.000000
0.000000
0.000000
0.000000
0.000000
0.000000
0.000000
0.000000
0.000000
0.000000
0.000000
0.000000
0.000000
0.000000
0.000000
0.000000
0.000000
0.000000
0.000000
0.000000
0.000000
0.000000
0.000000
0.000000
0.000000
0.000000
0.000000
0.000000
0.000000
0.000000
0.000000
0.000000
0.000000
0.000000
0.000000
0.000000
0.000000
0.000000
0.000000
0.000000
0.000000
0.000000
0.000000
0.000000
0.000000
0.000000
0.000000
0.000000
0.000000
0.000000
0.000000
0.000000
0.000000
0.000000
0.000000
0.000000
0.000000
0.000000
0.000000
0.000000
0.000000
0.000000
0.000000
0.000000
0.000000
0.000000
0.000000
0.000000
0.000000
0.000000
0.000000
0.000000
0.000000
0.000000
0.000000
0.000000
0.000000
0.000000
0.000000
-1.029631
-1.013992
-1.000151
-0.989400
-0.981227
-0.974921
-0.969929
-0.965869
-0.962480
-0.959580
-0.957043
-0.954776
-0.952713
-0.950805
-0.949015
-0.947313
-0.945675
-0.944076
-0.942484
-0.940848
-0.939081
-0.934711
-0.932366
-0.926330
-0.919612
-0.913344
-0.907838
-0.903109
-0.899210
0.000000
0.000000
0.000000
0.000000
0.000000
0.000000
0.000000
0.000000
0.000000
0.000000
0.000000
0.000000
0.000000
0.000000
0.000000
0.000000
0.000000
0.000000
0.000000
0.000000
0.000000
0.000000
0.000000
0.000000
0.000000
0.000000
0.000000
0.000000
0.000000
0.000000
0.000000
0.000000
0.000000
0.000000
0.000000
0.000000
0.000000
0.000000
0.000000
0.000000
0.000000
0.000000
0.000000
0.000000
0.000000
0.000000
0.000000
0.000000
0.000000
0.000000
0.000000
0.000000
0.000000
0.000000
0.000000
0.000000
0.000000
0.000000
0.000000
0.000000
0.000000
0.000000
0.000000
0.000000
0.000000
0.000000
0.000000
0.000000
0.000000
0.000000
0.000000
0.000000
0.000000
0.000000
0.000000
0.000000
0.000000
0.000000
0.000000
0.000000
0.000000
0.000000
0.000000
0.000000
0.000000
0.000000
0.000000
0.000000
0.000000
0.000000
0.000000
0.000000
0.000000
0.000000
0.000000
0.000000
0.000000
0.000000
0.000000
0.000000
0.000000
0.000000
0.000000
0.000000
0.000000
0.000000
0.000000
0.000000
0.000000
0.000000
0.000000
0.000000
0.000000
0.000000
0.000000
0.000000
0.000000
0.000000
0.000000
0.000000
0.000000
0.000000
0.000000
0.000000
0.000000
0.000000
-0.924090
-0.916330
-0.909014
-0.903085
-0.898615
-0.895458
-0.893441
-0.892411
-0.892237
-0.892803
-0.894009
-0.895769
-0.898007
-0.900654
-0.903653
-0.906950
-0.910501
-0.914264
-0.918205
-0.922293
-0.926500
-0.930802
-0.935178
-0.939608
-0.944077
-0.948568
-0.953068
-0.957565
-0.962046
-0.966502
-0.970922
-0.975297
-0.979617
-0.983876
-0.988065
-0.992178
-0.996208
-1.000153
-1.004007
-1.007770
-1.011442
-1.015023
-1.018516
-1.021921
-1.027376
-1.029630
-1.013991
-1.000150
-0.989399
-0.981226
-0.974920
-0.969928
-0.965868
-0.962479
-0.959579
-0.957042
-0.954775
-0.952712
-0.950804
-0.949014
-0.947312
-0.945674
-0.944075
-0.942482
-0.940847
-0.939080
-0.937053
-0.932472
-0.926460
-0.919895
-0.913666
-0.908154
-0.903497
-0.899867
0.000000
0.000000
0.000000
0.000000
0.000000
0.000000
0.000000
0.000000
0.000000
0.000000
0.000000
0.000000
0.000000
0.000000
0.000000
0.000000
0.000000
0.000000
0.000000
0.000000
0.000000
0.000000
0.000000
0.000000
0.000000
0.000000
0.000000
0.000000
0.000000
0.000000
0.000000
0.000000
0.000000
0.000000
0.000000
0.000000
0.000000
0.000000
0.000000
0.000000
0.000000
0.000000
0.000000
0.000000
0.000000
0.000000
0.000000
0.000000
0.000000
0.000000
0.000000
0.000000
0.000000
0.000000
0.000000
0.000000
0.000000
0.000000
0.000000
0.000000
0.000000
0.000000
0.000000
0.000000
0.000000
0.000000
0.000000
0.000000
0.000000
0.000000
0.000000
0.000000
0.000000
0.000000
0.000000
0.000000
0.000000
0.000000
0.000000
0.000000
0.000000
0.000000
0.000000
0.000000
0.000000
0.000000
0.000000
0.000000
0.000000
0.000000
0.000000
0.000000
0.000000
0.000000
0.000000
0.000000
0.000000
0.000000
0.000000
0.000000
0.000000
0.000000
0.000000
0.000000
0.000000
0.000000
0.000000
0.000000
0.000000
0.000000
0.000000
0.000000
0.000000
0.000000
0.000000
0.000000
0.000000
0.000000
0.000000
0.000000
0.000000
-0.970022
-0.951046
-0.937579
-0.929684
-0.924916
-0.924090
-0.916331
-0.909015
-0.903086
-0.898616
-0.895458
-0.893441
-0.892412
-0.892237
-0.892803
-0.894010
-0.895770
-0.898007
-0.900655
-0.903653
-0.906951
-0.910501
-0.914265
-0.918206
-0.922293
-0.926500
-0.930802
-0.935178
-0.939608
-0.944077
-0.948568
-0.953068
-0.957565
-0.962046
-0.966502
-0.970922
-0.975296
-0.979617
-0.983875
-0.988064
-0.992177
-0.996208
-1.000152
-1.004007
-1.007770
-1.011441
-1.015023
-1.018515
-1.021920
-1.025121
-1.023892
-1.013019
-1.001097
-0.990874
-0.982690
-0.976216
-0.971039
-0.966816
-0.963293
-0.960284
-0.957656
-0.955313
-0.953184
-0.951217
-0.949370
-0.947611
-0.945910
-0.944232
-0.942527
-0.940709
-0.938606
-0.935845
-0.931585
-0.926161
-0.920226
-0.914454
-0.909288
-0.905029
-0.901919
0.000000
0.000000
0.000000
0.000000
0.000000
0.000000
0.000000
0.000000
0.000000
0.000000
0.000000
0.000000
0.000000
0.000000
0.000000
0.000000
0.000000
0.000000
0.000000
0.000000
0.000000
0.000000
0.000000
0.000000
0.000000
0.000000
0.000000
0.000000
0.000000
0.000000
0.000000
0.000000
0.000000
0.000000
0.000000
0.000000
0.000000
0.000000
0.000000
0.000000
0.000000
0.000000
0.000000
0.000000
0.000000
0.000000
0.000000
0.000000
0.000000
0.000000
0.000000
0.000000
0.000000
0.000000
0.000000
0.000000
0.000000
0.000000
0.000000
0.000000
0.000000
0.000000
0.000000
0.000000
0.000000
0.000000
0.000000
0.000000
0.000000
0.000000
0.000000
0.000000
0.000000
0.000000
0.000000
0.000000
0.000000
0.000000
0.000000
0.000000
0.000000
0.000000
0.000000
0.000000
0.000000
0.000000
0.000000
0.000000
0.000000
0.000000
0.000000
0.000000
0.000000
0.000000
0.000000
0.000000
0.000000
0.000000
0.000000
0.000000
0.000000
0.000000
0.000000
0.000000
0.000000
0.000000
0.000000
0.000000
0.000000
0.000000
0.000000
0.000000
0.000000
-0.997275
-0.978584
-0.964774
-0.956435
-0.952319
-0.951477
-0.953423
-0.963977
-0.970023
-0.951047
-0.937580
-0.929684
-0.925744
-0.922691
-0.916492
-0.909945
-0.904296
-0.899885
-0.896702
-0.894631
-0.893541
-0.893305
-0.893812
-0.894962
-0.896669
-0.898856
-0.901455
-0.904408
-0.907662
-0.911172
-0.914896
-0.918801
-0.922853
-0.927026
-0.931297
-0.935642
-0.940043
-0.944484
-0.948948
-0.953422
-0.957893
-0.962348
-0.966778
-0.971171
-0.975518
-0.979809
-0.984035
-0.988188
-0.992258
-0.996237
-1.000116
-1.003885
-1.007526
-1.011015
-1.014299
-1.017259
-1.019602
-1.020526
-1.017915
-1.010403
-1.001194
-0.992385
-0.984752
-0.978383
-0.973114
-0.968726
-0.965020
-0.961835
-0.959045
-0.956553
-0.954287
-0.952190
-0.950216
-0.948324
-0.946475
-0.944621
-0.942693
-0.940583
-0.938112
-0.935010
-0.930966
-0.926126
-0.920902
-0.915773
-0.911141
-0.907335
-0.904442
3.119660
0.000000
0.000000
0.000000
0.000000
0.000000
0.000000
0.000000
0.000000
0.000000
0.000000
0.000000
0.000000
0.000000
0.000000
0.000000
0.000000
0.000000
0.000000
0.000000
0.000000
0.000000
0.000000
0.000000
0.000000
0.000000
0.000000
0.000000
0.000000
0.000000
0.000000
0.000000
0.000000
0.000000
0.000000
0.000000
0.000000
0.000000
0.000000
0.000000
0.000000
0.000000
0.000000
0.000000
0.000000
0.000000
0.000000
0.000000
0.000000
0.000000
0.000000
0.000000
0.000000
0.000000
0.000000
0.000000
0.000000
0.000000
0.000000
0.000000
0.000000
0.000000
0.000000
0.000000
0.000000
0.000000
0.000000
0.000000
0.000000
0.000000
0.000000
0.000000
0.000000
0.000000
0.000000
0.000000
0.000000
0.000000
0.000000
0.000000
0.000000
0.000000
0.000000
0.000000
0.000000
0.000000
0.000000
0.000000
0.000000
0.000000
0.000000
0.000000
0.000000
0.000000
0.000000
0.000000
0.000000
0.000000
0.000000
0.000000
0.000000
0.000000
0.000000
0.000000
0.000000
0.000000
0.000000
-1.041970
-1.018238
-1.001082
-0.991321
-0.987403
-0.992757
-0.997276
-0.978585
-0.964775
-0.956436
-0.952319
-0.951478
-0.953424
-0.957932
-0.961530
-0.951017
-0.940209
-0.932381
-0.927123
-0.922630
-0.917146
-0.911451
-0.906335
-0.902179
-0.899082
-0.897008
-0.895869
-0.895562
-0.895987
-0.897051
-0.898669
-0.900768
-0.903280
-0.906148
-0.909319
-0.912748
-0.916394
-0.920223
-0.924202
-0.928304
-0.932506
-0.936784
-0.941121
-0.945498
-0.949900
-0.954312
-0.958721
-0.963114
-0.967481
-0.971808
-0.976085
-0.980302
-0.984446
-0.988507
-0.992472
-0.996326
-1.000052
-1.003624
-1.007006
-1.010137
-1.012909
-1.015123
-1.016412
-1.016120
-1.013319
-1.007731
-1.000662
-0.993384
-0.986624
-0.980657
-0.975506
-0.971082
-0.967262
-0.963930
-0.960979
-0.958326
-0.955899
-0.953642
-0.951504
-0.949441
-0.947405
-0.945339
-0.943170
-0.940794
-0.938076
-0.934854
-0.931018
-0.926665
-0.922058
-0.917529
-0.913389
-0.909903
-0.906870
3.119660
1.925735
0.645803
1.024731
0.000000
0.000000
0.000000
0.000000
0.000000
0.000000
0.000000
0.000000
0.000000
0.000000
0.000000
0.000000
0.000000
0.000000
0.000000
0.000000
0.000000
0.000000
0.000000
0.000000
0.000000
0.000000
0.000000
0.000000
0.000000
0.000000
0.000000
0.000000
0.000000
0.000000
0.000000
0.000000
0.000000
0.000000
0.000000
0.000000
0.000000
0.000000
0.000000
0.000000
0.000000
0.000000
0.000000
0.000000
0.000000
0.000000
0.000000
0.000000
0.000000
0.000000
0.000000
0.000000
0.000000
0.000000
0.000000
0.000000
0.000000
0.000000
0.000000
0.000000
0.000000
0.000000
0.000000
0.000000
0.000000
0.000000
0.000000
0.000000
0.000000
0.000000
0.000000
0.000000
0.000000
0.000000
0.000000
0.000000
0.000000
0.000000
0.000000
0.000000
0.000000
0.000000
0.000000
0.000000
0.000000
0.000000
0.000000
0.000000
0.000000
0.000000
0.000000
0.000000
0.000000
0.000000
0.000000
0.000000
0.000000
0.000000
-1.102456
-1.066488
-1.043232
-1.032467
-1.036429
-1.041970
-1.018238
-1.001083
-0.991321
-0.987403
-0.988240
-0.990106
-0.979110
-0.967925
-0.960025
-0.955592
-0.954067
-0.954706
-0.956292
-0.955951
-0.949688
-0.941815
-0.934839
-0.929169
-0.924121
-0.918984
-0.913933
-0.909366
-0.905565
-0.902655
-0.900650
-0.899502
-0.899138
-0.899476
-0.900435
-0.901938
-0.903914
-0.906302
-0.909044
-0.912090
-0.915394
-0.918919
-0.922628
-0.926490
-0.930479
-0.934569
-0.938739
-0.942969
-0.947241
-0.951539
-0.955849
-0.960155
-0.964444
-0.968704
-0.972921
-0.977083
-0.981177
-0.985188
-0.989102
-0.992901
-0.996563
-1.000062
-1.003360
-1.006401
-1.009103
-1.011333
-1.012887
-1.013455
-1.012624
-1.009999
-1.005580
-1.000000
-0.994005
-0.988147
-0.982727
-0.977853
-0.973528
-0.969697
-0.966287
-0.963222
-0.960434
-0.957861
-0.955449
-0.953148
-0.950913
-0.948693
-0.946432
-0.944061
-0.941497
-0.938645
-0.935419
-0.931786
-0.927821
-0.923701
-0.919650
-0.915890
-0.912602
-0.909319
1.638787
0.731809
0.645803
1.024731
0.446714
0.018108
0.230853
0.419422
0.000000
0.000000
0.000000
0.000000
0.000000
0.000000
0.000000
0.000000
0.000000
0.000000
0.000000
0.000000
0.000000
0.000000
0.000000
0.000000
0.000000
0.000000
0.000000
0.000000
0.000000
0.000000
0.000000
0.000000
0.000000
0.000000
0.000000
0.000000
0.000000
0.000000
0.000000
0.000000
0.000000
0.000000
0.000000
0.000000
0.000000
0.000000
0.000000
0.000000
0.000000
0.000000
0.000000
0.000000
0.000000
0.000000
0.000000
0.000000
0.000000
0.000000
0.000000
0.000000
0.000000
0.000000
0.000000
0.000000
0.000000
0.000000
0.000000
0.000000
0.000000
0.000000
0.000000
0.000000
0.000000
0.000000
0.000000
0.000000
0.000000
0.000000
0.000000
0.000000
0.000000
0.000000
0.000000
0.000000
0.000000
0.000000
0.000000
0.000000
0.000000
0.000000
0.000000
0.000000
0.000000
0.000000
0.000000
0.000000
-1.150277
-1.110811
-1.084636
-1.072165
-1.070114
-1.089429
-1.102456
-1.066488
-1.043233
-1.032468
-1.030889
-1.033044
-1.019189
-1.005356
-0.995917
-0.990860
-0.988738
-0.986322
-0.979034
-0.970733
-0.963974
-0.959522
-0.957201
-0.956343
-0.955802
-0.953883
-0.949240
-0.943260
-0.937304
-0.931884
-0.926890
-0.922098
-0.917567
-0.913498
-0.910074
-0.907404
-0.905519
-0.904402
-0.904003
-0.904261
-0.905108
-0.906477
-0.908307
-0.910539
-0.913120
-0.916002
-0.919143
-0.922505
-0.926053
-0.929756
-0.933589
-0.937526
-0.941546
-0.945628
-0.949754
-0.953908
-0.958073
-0.962235
-0.966378
-0.970488
-0.974552
-0.978554
-0.982478
-0.986307
-0.990023
-0.993603
-0.997020
-1.000239
-1.003214
-1.005879
-1.008146
-1.009887
-1.010927
-1.011045
-1.010002
-1.007633
-1.004006
-0.999472
-0.994485
-0.989435
-0.984582
-0.980064
-0.975928
-0.972169
-0.968751
-0.965626
-0.962743
-0.960055
-0.957512
-0.955072
-0.952688
-0.950315
-0.947899
-0.945384
-0.942707
-0.939806
-0.936636
-0.933194
-0.929541
-0.925795
-0.922108
-0.918630
-0.915476
-0.911973
0.942097
0.689692
0.608534
0.504367
-0.131304
0.018107
0.230853
0.419422
0.072166
-0.129495
0.032567
0.181852
0.000000
0.000000
0.000000
0.000000
0.000000
0.000000
0.000000
0.000000
0.000000
0.000000
0.000000
0.000000
0.000000
0.000000
0.000000
0.000000
0.000000
0.000000
0.000000
0.000000
0.000000
0.000000
0.000000
0.000000
0.000000
0.000000
0.000000
0.000000
0.000000
0.000000
0.000000
0.000000
0.000000
0.000000
0.000000
0.000000
0.000000
0.000000
0.000000
0.000000
0.000000
0.000000
0.000000
0.000000
0.000000
0.000000
0.000000
0.000000
0.000000
0.000000
0.000000
0.000000
0.000000
0.000000
0.000000
0.000000
0.000000
0.000000
0.000000
0.000000
0.000000
0.000000
0.000000
0.000000
0.000000
0.000000
0.000000
0.000000
0.000000
0.000000
0.000000
0.000000
0.000000
0.000000
0.000000
0.000000
0.000000
0.000000
0.000000
-1.230061
-1.173504
-1.138723
-1.124759
-1.137969
-1.150278
-1.110811
-1.084637
-1.072166
-1.070114
-1.076403
-1.085574
-1.067349
-1.049484
-1.038414
-1.033036
-1.028917
-1.019337
-1.008820
-1.000335
-0.994469
-0.990344
-0.986138
-0.980206
-0.973706
-0.967983
-0.963672
-0.960760
-0.958780
-0.956939
-0.954301
-0.950314
-0.945441
-0.940352
-0.935439
-0.930795
-0.926411
-0.922348
-0.918725
-0.915663
-0.913244
-0.911505
-0.910442
-0.910025
-0.910209
-0.910942
-0.912168
-0.913833
-0.915886
-0.918279
-0.920968
-0.923912
-0.927076
-0.930428
-0.933937
-0.937578
-0.941326
-0.945159
-0.949057
-0.953002
-0.956975
-0.960961
-0.964942
-0.968903
-0.972828
-0.976700
-0.980503
-0.984219
-0.987827
-0.991305
-0.994628
-0.997763
-1.000671
-1.003303
-1.005592
-1.007454
-1.008780
-1.009436
-1.009276
-1.008165
-1.006043
-1.002983
-0.999201
-0.994987
-0.990611
-0.986282
-0.982133
-0.978230
-0.974595
-0.971222
-0.968084
-0.965150
-0.962383
-0.959744
-0.957196
-0.954700
-0.952214
-0.949694
-0.947094
-0.944367
-0.941475
-0.938394
-0.935132
-0.931732
-0.928277
-0.924867
-0.921601
-0.918555
-0.914900
0.626679
0.550766
0.471920
0.352054
0.120245
0.116990
0.174630
0.111542
-0.275091
-0.129495
0.032567
0.181852
-0.119757
-0.290705
-0.146026
-0.006158
0.000000
0.000000
0.000000
0.000000
0.000000
0.000000
0.000000
0.000000
0.000000
0.000000
0.000000
0.000000
0.000000
0.000000
0.000000
0.000000
0.000000
0.000000
0.000000
0.000000
0.000000
0.000000
0.000000
0.000000
0.000000
0.000000
0.000000
0.000000
0.000000
0.000000
0.000000
0.000000
0.000000
0.000000
0.000000
0.000000
0.000000
0.000000
0.000000
0.000000
0.000000
0.000000
0.000000
0.000000
0.000000
0.000000
0.000000
0.000000
0.000000
0.000000
0.000000
0.000000
0.000000
0.000000
0.000000
0.000000
0.000000
0.000000
0.000000
0.000000
0.000000
0.000000
0.000000
0.000000
0.000000
0.000000
0.000000
0.000000
0.000000
-1.294880
-1.230057
-1.189471
-1.172369
-1.172098
-1.207249
-1.230062
-1.173504
-1.138724
-1.124759
-1.125661
-1.133240
-1.112336
-1.092124
-1.079974
-1.075503
-1.076009
-1.075732
-1.065329
-1.052773
-1.042649
-1.035323
-1.028757
-1.020586
-1.011988
-1.004377
-0.998228
-0.993139
-0.988229
-0.982842
-0.977325
-0.972298
-0.968138
-0.964862
-0.962178
-0.959596
-0.956603
-0.952926
-0.948715
-0.944293
-0.939917
-0.935720
-0.931770
-0.928139
-0.924914
-0.922181
-0.920001
-0.918408
-0.917406
-0.916978
-0.917094
-0.917712
-0.918788
-0.920278
-0.922138
-0.924324
-0.926798
-0.929523
-0.932465
-0.935595
-0.938884
-0.942306
-0.945838
-0.949458
-0.953146
-0.956883
-0.960649
-0.964429
-0.968203
-0.971955
-0.975668
-0.979323
-0.982901
-0.986381
-0.989743
-0.992960
-0.996004
-0.998840
-1.001429
-1.003721
-1.005654
-1.007156
-1.008140
-1.008508
-1.008167
-1.007046
-1.005129
-1.002480
-0.999243
-0.995611
-0.991775
-0.987895
-0.984087
-0.980422
-0.976936
-0.973639
-0.970524
-0.967573
-0.964762
-0.962062
-0.959444
-0.956874
-0.954318
-0.951742
-0.949107
-0.946382
-0.943539
-0.940566
-0.937470
-0.934284
-0.931060
-0.927866
-0.924766
-0.921813
-0.918072
0.454602
0.425140
0.369895
0.292004
0.185107
0.137287
0.112650
0.038216
-0.098236
-0.073283
-0.020162
-0.081834
-0.421365
-0.290705
-0.146026
-0.006158
-0.319331
-0.525850
-0.400832
-0.305034
-0.192479
0.000000
0.000000
0.000000
0.000000
0.000000
0.000000
0.000000
0.000000
0.000000
0.000000
0.000000
0.000000
0.000000
0.000000
0.000000
0.000000
0.000000
0.000000
0.000000
0.000000
0.000000
0.000000
0.000000
0.000000
0.000000
0.000000
0.000000
0.000000
0.000000
0.000000
0.000000
0.000000
0.000000
0.000000
0.000000
0.000000
0.000000
0.000000
0.000000
0.000000
0.000000
0.000000
0.000000
0.000000
0.000000
0.000000
0.000000
0.000000
0.000000
0.000000
0.000000
0.000000
0.000000
0.000000
0.000000
0.000000
0.000000
0.000000
-1.383238
-1.304293
-1.254066
-1.232226
-1.230641
-1.269351
-1.294880
-1.230057
-1.189471
-1.172369
-1.172098
-1.184438
-1.201360
-1.174388
-1.148494
-1.133832
-1.128308
-1.124707
-1.111610
-1.097141
-1.086331
-1.079977
-1.076382
-1.072200
-1.064195
-1.054585
-1.045606
-1.037827
-1.030562
-1.022997
-1.015432
-1.008457
-1.002337
-0.996911
-0.991787
-0.986683
-0.981695
-0.977088
-0.973047
-0.969574
-0.966492
-0.963514
-0.960356
-0.956862
-0.953077
-0.949155
-0.945257
-0.941497
-0.937959
-0.934716
-0.931839
-0.929392
-0.927424
-0.925962
-0.925017
-0.924578
-0.924625
-0.925129
-0.926054
-0.927365
-0.929024
-0.930995
-0.933243
-0.935737
-0.938444
-0.941338
-0.944391
-0.947580
-0.950881
-0.954273
-0.957735
-0.961248
-0.964794
-0.968352
-0.971905
-0.975435
-0.978921
-0.982345
-0.985686
-0.988920
-0.992025
-0.994973
-0.997734
-1.000273
-1.002552
-1.004523
-1.006134
-1.007322
-1.008023
-1.008169
-1.007701
-1.006584
-1.004820
-1.002465
-0.999620
-0.996419
-0.992999
-0.989482
-0.985966
-0.982518
-0.979181
-0.975974
-0.972902
-0.969959
-0.967132
-0.964401
-0.961745
-0.959137
-0.956552
-0.953959
-0.951333
-0.948646
-0.945881
-0.943027
-0.940089
-0.937086
-0.934053
-0.931032
-0.928065
-0.925191
-0.921407
0.345202
0.330025
0.293284
0.241179
0.176813
0.126108
0.082097
0.024995
-0.040883
-0.062204
-0.076080
-0.143269
-0.265914
-0.243535
-0.198567
-0.270641
-0.632505
-0.525850
-0.400832
-0.305034
-0.192480
-0.505659
-0.741101
-0.634877
-0.558576
-0.486027
-0.379627
0.000000
0.000000
0.000000
0.000000
0.000000
0.000000
0.000000
0.000000
0.000000
0.000000
0.000000
0.000000
0.000000
0.000000
0.000000
0.000000
0.000000
0.000000
0.000000
0.000000
0.000000
0.000000
0.000000
0.000000
0.000000
0.000000
0.000000
0.000000
0.000000
0.000000
0.000000
0.000000
0.000000
0.000000
0.000000
0.000000
0.000000
0.000000
0.000000
0.000000
0.000000
0.000000
0.000000
0.000000
0.000000
0.000000
-1.517464
-1.409922
-1.341213
-1.311027
-1.307513
-1.352794
-1.383238
-1.304293
-1.254067
-1.232226
-1.230642
-1.243823
-1.262210
-1.230942
-1.200905
-1.184212
-1.179677
-1.182657
-1.184225
-1.169921
-1.152510
-1.139138
-1.130196
-1.122337
-1.111681
-1.100351
-1.090707
-1.083420
-1.077656
-1.071762
-1.064449
-1.056278
-1.048196
-1.040609
-1.033371
-1.026237
-1.019298
-1.012790
-1.006844
-1.001399
-0.996286
-0.991379
-0.986698
-0.982345
-0.978394
-0.974832
-0.971551
-0.968383
-0.965167
-0.961812
-0.958323
-0.954778
-0.951272
-0.947895
-0.944719
-0.941810
-0.939226
-0.937019
-0.935228
-0.933876
-0.932975
-0.932520
-0.932499
-0.932890
-0.933667
-0.934800
-0.936260
-0.938016
-0.940039
-0.942299
-0.944769
-0.947424
-0.950239
-0.953190
-0.956256
-0.959416
-0.962649
-0.965936
-0.969256
-0.972591
-0.975921
-0.979226
-0.982485
-0.985678
-0.988782
-0.991772
-0.994624
-0.997310
-0.999799
-1.002057
-1.004047
-1.005726
-1.007051
-1.007971
-1.008437
-1.008403
-1.007834
-1.006714
-1.005055
-1.002903
-1.000332
-0.997440
-0.994327
-0.991090
-0.987809
-0.984544
-0.981339
-0.978219
-0.975198
-0.972278
-0.969454
-0.966715
-0.964047
-0.961431
-0.958847
-0.956273
-0.953686
-0.951066
-0.948398
-0.945670
-0.942884
-0.940047
-0.937177
-0.934299
-0.931438
-0.928624
-0.924807
0.266163
0.256655
0.231549
0.194770
0.149970
0.106190
0.063392
0.017315
-0.029611
-0.064835
-0.099361
-0.150985
-0.211858
-0.233099
-0.251378
-0.327171
-0.465229
-0.453576
-0.400707
-0.364337
-0.447731
-0.818839
-0.741101
-0.634877
-0.558577
-0.486027
-0.379627
-0.739532
-1.062040
-0.975867
-0.928336
-0.897798
-0.875715
-0.857818
-0.841408
-0.824286
-0.804083
-0.777407
-0.737944
-0.655330
0.000000
0.000000
0.000000
0.000000
0.000000
0.000000
0.000000
0.000000
0.000000
0.000000
0.000000
0.000000
0.000000
0.000000
0.000000
0.000000
0.000000
0.000000
0.000000
0.000000
0.000000
0.000000
0.000000
0.000000
0.000000
0.000000
-1.720836
-1.560929
-1.455617
-1.406139
-1.393122
-1.404013
-1.474155
-1.517464
-1.409923
-1.341213
-1.311028
-1.307513
-1.322350
-1.343247
-1.304598
-1.267267
-1.246070
-1.239504
-1.241910
-1.242909
-1.226178
-1.206370
-1.192047
-1.184467
-1.180929
-1.176348
-1.165869
-1.153040
-1.141292
-1.131413
-1.122256
-1.112512
-1.102722
-1.093838
-1.086215
-1.079476
-1.072851
-1.065766
-1.058319
-1.050878
-1.043674
-1.036725
-1.029984
-1.023499
-1.017367
-1.011651
-1.006328
-1.001328
-0.996591
-0.992115
-0.987930
-0.984057
-0.980475
-0.977115
-0.973878
-0.970670
-0.967435
-0.964169
-0.960910
-0.957718
-0.954655
-0.951780
-0.949147
-0.946804
-0.944792
-0.943143
-0.941878
-0.941007
-0.940531
-0.940442
-0.940724
-0.941358
-0.942323
-0.943592
-0.945141
-0.946946
-0.948980
-0.951220
-0.953643
-0.956225
-0.958946
-0.961783
-0.964717
-0.967727
-0.970794
-0.973896
-0.977015
-0.980129
-0.983218
-0.986260
-0.989233
-0.992111
-0.994872
-0.997487
-0.999928
-1.002166
-1.004167
-1.005897
-1.007319
-1.008394
-1.009084
-1.009352
-1.009167
-1.008509
-1.007373
-1.005775
-1.003752
-1.001364
-0.998684
-0.995790
-0.992756
-0.989651
-0.986529
-0.983430
-0.980385
-0.977411
-0.974518
-0.971708
-0.968977
-0.966316
-0.963714
-0.961155
-0.958624
-0.956101
-0.953569
-0.951013
-0.948420
-0.945784
-0.943102
-0.940380
-0.937624
-0.934848
-0.932070
-0.928198
0.205224
0.198618
0.180630
0.153525
0.119969
0.083830
0.046381
0.007294
-0.032322
-0.069428
-0.107161
-0.150179
-0.195090
-0.230519
-0.267890
-0.324664
-0.391629
-0.411983
-0.411016
-0.425936
-0.507036
-0.657166
-0.661245
-0.617974
-0.575054
-0.553471
-0.660230
-1.099437
-1.062040
-0.975867
-0.928336
-0.897798
-0.875715
-0.857818
-0.841408
-0.824287
-0.804083
-0.777407
-0.737944
-0.655330
-1.031744
-1.410352
-1.341158
-1.308586
-1.292332
-1.284778
-1.282500
-1.283733
-1.287475
-1.293125
-1.300314
-1.308821
-1.318525
-1.329349
-1.341367
-1.354364
-1.368113
-1.382806
-1.398664
-1.415982
-1.435174
-1.456844
-1.481924
-1.511970
-1.549882
-1.657046
-1.720836
-1.560929
-1.455618
-1.406139
-1.393122
-1.404013
-1.430847
-1.459291
-1.407317
-1.356828
-1.327863
-1.317939
-1.319341
-1.319122
-1.297833
-1.273000
-1.254860
-1.244868
-1.239839
-1.233950
-1.221795
-1.207543
-1.195338
-1.186397
-1.179535
-1.172336
-1.162947
-1.152292
-1.141807
-1.132064
-1.122794
-1.113601
-1.104635
-1.096256
-1.088614
-1.081535
-1.074665
-1.067730
-1.060712
-1.053742
-1.046936
-1.040342
-1.033972
-1.027860
-1.022054
-1.016583
-1.011441
-1.006597
-1.002022
-0.997706
-0.993653
-0.989859
-0.986302
-0.982937
-0.979701
-0.976541
-0.973419
-0.970331
-0.967296
-0.964352
-0.961542
-0.958911
-0.956501
-0.954351
-0.952495
-0.950957
-0.949757
-0.948905
-0.948403
-0.948247
-0.948427
-0.948929
-0.949736
-0.950828
-0.952185
-0.953785
-0.955608
-0.957632
-0.959836
-0.962200
-0.964703
-0.967325
-0.970047
-0.972848
-0.975708
-0.978607
-0.981524
-0.984439
-0.987328
-0.990170
-0.992940
-0.995613
-0.998164
-1.000565
-1.002787
-1.004801
-1.006575
-1.008077
-1.009275
-1.010135
-1.010628
-1.010726
-1.010408
-1.009664
-1.008496
-1.006921
-1.004971
-1.002695
-1.000150
-0.997399
-0.994503
-0.991520
-0.988498
-0.985477
-0.982487
-0.979551
-0.976682
-0.973889
-0.971172
-0.968531
-0.965957
-0.963442
-0.960972
-0.958532
-0.956105
-0.953676
-0.951228
-0.948747
-0.946220
-0.943638
-0.940996
-0.938290
-0.935526
-0.931558
0.156663
0.151778
0.138289
0.117523
0.091216
0.061390
0.029258
-0.004637
-0.039623
-0.074817
-0.111019
-0.149384
-0.188844
-0.226816
-0.266564
-0.312164
-0.358415
-0.389963
-0.413992
-0.447481
-0.506518
-0.579954
-0.606483
-0.605137
-0.602938
-0.627544
-0.729960
-0.921813
-0.958021
-0.936484
-0.910588
-0.889055
-0.871744
-0.857145
-0.843777
-0.830435
-0.816521
-0.803908
-0.806015
-0.934941
-1.408157
-1.410352
-1.341158
-1.308586
-1.292332
-1.284778
-1.282501
-1.283733
-1.287475
-1.293126
-1.300315
-1.308821
-1.318525
-1.329349
-1.341367
-1.354365
-1.368113
-1.382806
-1.398664
-1.415983
-1.435174
-1.456844
-1.481924
-1.511970
-1.549882
-1.593256
-1.625916
-1.548143
-1.472405
-1.427374
-1.409254
-1.409431
-1.418166
-1.420236
-1.393004
-1.360482
-1.336371
-1.322549