# vtk DataFile Version 3.0
Scalar Field
ASCII
DATASET RECTILINEAR_GRID
DIMENSIONS 200 50 1
X_COORDINATES 200 double
0.050000 0.150000 0.250000 0.350000 0.450000 0.550000 0.650000 0.750000 0.850000 0.950000 1.050000 1.150000 1.250000 1.350000 1.450000 1.550000 1.650000 1.750000 1.850000 1.950000 2.050000 2.150000 2.250000 2.350000 2.450000 2.550000 2.650000 2.750000 2.850000 2.950000 3.050000 3.150000 3.250000 3.350000 3.450000 3.550000 3.650000 3.750000 3.850000 3.950000 4.050000 4.150000 4.250000 4.350000 4.450000 4.550000 4.650000 4.750000 4.850000 4.950000 5.050000 5.150000 5.250000 5.350000 5.450000 5.550000 5.650000 5.750000 5.850000 5.950000 6.050000 6.150000 6.250000 6.350000 6.450000 6.550000 6.650000 6.750000 6.850000 6.950000 7.050000 7.150000 7.250000 7.350000 7.450000 7.550000 7.650000 7.750000 7.850000 7.950000 8.050000 8.150000 8.250000 8.350000 8.450000 8.550000 8.650000 8.750000 8.850000 8.950000 9.050000 9.150000 9.250000 9.350000 9.450000 9.550000 9.650000 9.750000 9.850000 9.950000 10.050000 10.150000 10.250000 10.350000 10.450000 10.550000 10.650000 10.750000 10.850000 10.950000 11.050000 11.150000 11.250000 11.350000 11.450000 11.550000 11.650000 11.750000 11.850000 11.950000 12.050000 12.150000 12.250000 12.350000 12.450000 12.550000 12.650000 12.750000 12.850000 12.950000 13.050000 13.150000 13.250000 13.350000 13.450000 13.550000 13.650000 13.750000 13.850000 13.950000 14.050000 14.150000 14.250000 14.350000 14.450000 14.550000 14.650000 14.750000 14.850000 14.950000 15.050000 15.150000 15.250000 15.350000 15.450000 15.550000 15.650000 15.750000 15.850000 15.950000 16.050000 16.150000 16.250000 16.350000 16.450000 16.550000 16.650000 16.750000 16.850000 16.950000 17.050000 17.150000 17.250000 17.350000 17.450000 17.550000 17.650000 17.750000 17.850000 17.950000 18.050000 18.150000 18.250000 18.350000 18.450000 18.550000 18.650000 18.750000 18.850000 18.950000 19.050000 19.150000 19.250000 19.350000 19.450000 19.550000 19.650000 19.750000 19.850000 19.950000 
Y_COORDINATES 50 double
0.050000 0.150000 0.250000 0.350000 0.450000 0.550000 0.650000 0.750000 0.850000 0.950000 1.050000 1.150000 1.250000 1.350000 1.450000 1.550000 1.650000 1.750000 1.850000 1.950000 2.050000 2.150000 2.250000 2.350000 2.450000 2.550000 2.650000 2.750000 2.850000 2.950000 3.050000 3.150000 3.250000 3.350000 3.450000 3.550000 3.650000 3.750000 3.850000 3.950000 4.050000 4.150000 4.250000 4.350000 4.450000 4.550000 4.650000 4.750000 4.850000 4.950000 
Z_COORDINATES 1 double
0.0
POINT_DATA 10000
SCALARS Skalarfeld double 1
LOOKUP_TABLE default
0.000000
0.000000
0.000000
0.000000
0.000000
0.000000
0.000000
0.000000
0.000000
0.000000
0.000000
0.000000
0.000000
0.000000
0.000000
0.000000
0.000000
0.000000
0.000000
0.000000
0.000000
0.000000
0.000000
0.000000
0.000000
0.000000
0.000000
0.000000
0.000000
0.000000
0.000000
0.000000
0.000000
0.000000
0.000000
0.000000
0.000000
0.000000
0.000000
0.000000
0.000000
0.000000
0.000000
0.000000
0.000000
0.000000
0.000000
0.000000
0.000000
0.000000
0.000000
0.000000
0.000000
0.000000
0.000000
0.000000
0.000000
0.000000
0.000000
0.000000
0.000000
0.000000
0.000000
0.000000
0.000000
0.000000
0.000000
0.000000
0.000000
0.000000
0.000000
0.000000
0.000000
0.000000
0.000000
0.000000
0.000000
0.000000
0.000000
0.000000
0.000000
0.000000
0.000000
0.000000
0.000000
0.000000
0.000000
0.000000
0.000000
0.000000
0.000000
0.000000
0.000000
0.000000
0.000000
0.000000
0.000000
0.000000
0.000000
0.000000
0.000000
0.000000
0.000000
0.000000
0.000000
0.000000
0.000000
0.000000
0.000000
0.000000
0.000000
0.000000
0.000000
0.000000
0.000000
0.000000
0.000000
0.000000
0.000000
0.000000
0.000000
0.000000
0.000000
0.000000
0.000000
0.000000
0.000000
0.000000
0.000000
0.000000
0.000000
0.000000
0.000000
0.000000
0.000000
0.000000
0.000000
0.000000
0.000000
0.000000
0.000000
0.000000
0.000000
0.000000
0.000000
0.000000
0.000000
0.000000
0.000000
0.000000
0.000000
0.000000
0.000000
0.000000
0.000000
0.000000
0.000000
0.000000
0.000000
0.000000
0.000000
0.000000
0.000000
0.000000
0.000000
0.000000
0.000000
0.000000
0.000000
0.000000
0.000000
0.000000
0.000000
0.000000
0.000000
0.000000
0.000000
0.000000
0.000000
0.000000
0.000000
0.000000
0.000000
0.000000
0.000000
0.000000
0.000000
0.000000
0.000000
0.000000
0.000000
0.000000
0.000000
-0.995654
-0.993337
-0.990278
-0.986667
-0.983026
-0.979765
-0.977179
0.000000
0.000000
0.000000
0.000000
0.000000
0.000000
0.000000
0.000000
0.000000
0.000000
0.000000
0.000000
0.000000
0.000000
0.000000
0.000000
0.000000
0.000000
0.000000
0.000000
0.000000
0.000000
0.000000
0.000000
0.000000
0.000000
0.000000
0.000000
0.000000
0.000000
0.000000
0.000000
0.000000
0.000000
0.000000
0.000000
0.000000
0.000000
0.000000
0.000000
0.000000
0.000000
0.000000
0.000000
0.000000
0.000000
0.000000
0.000000
0.000000
0.000000
0.000000
0.000000
0.000000
0.000000
0.000000
0.000000
0.000000
0.000000
0.000000
0.000000
0.000000
0.000000
0.000000
0.000000
0.000000
0.000000
0.000000
0.000000
0.000000
0.000000
0.000000
0.000000
0.000000
0.000000
0.000000
0.000000
0.000000
0.000000
0.000000
0.000000
0.000000
0.000000
0.000000
0.000000
0.000000
0.000000
0.000000
0.000000
0.000000
0.000000
0.000000
0.000000
0.000000
0.000000
0.000000
0.000000
0.000000
0.000000
0.000000
0.000000
0.000000
0.000000
0.000000
0.000000
0.000000
0.000000
0.000000
0.000000
0.000000
0.000000
0.000000
0.000000
0.000000
0.000000
0.000000
0.000000
0.000000
0.000000
0.000000
0.000000
0.000000
0.000000
0.000000
0.000000
0.000000
0.000000
0.000000
0.000000
0.000000
0.000000
0.000000
0.000000
0.000000
0.000000
0.000000
0.000000
0.000000
0.000000
0.000000
0.000000
0.000000
0.000000
0.000000
0.000000
0.000000
0.000000
0.000000
0.000000
0.000000
0.000000
0.000000
0.000000
0.000000
0.000000
0.000000
0.000000
0.000000
0.000000
0.000000
0.000000
0.000000
0.000000
0.000000
0.000000
0.000000
0.000000
0.000000
0.000000
0.000000
0.000000
0.000000
-1.044588
-1.030192
-1.018459
-1.010055
-1.004204
-1.000151
-0.997371
-0.995516
-0.994347
-0.993693
-0.993427
-0.993452
-0.993690
-0.994079
-0.994567
-0.995114
-0.995683
-0.996243
-0.996759
-0.997192
-0.997483
-0.996596
-0.995655
-0.993338
-0.990279
-0.986668
-0.983028
-0.979766
-0.977180
0.000000
0.000000
0.000000
0.000000
0.000000
0.000000
0.000000
0.000000
0.000000
0.000000
0.000000
0.000000
0.000000
0.000000
0.000000
0.000000
0.000000
0.000000
0.000000
0.000000
0.000000
0.000000
0.000000
0.000000
0.000000
0.000000
0.000000
0.000000
0.000000
0.000000
0.000000
0.000000
0.000000
0.000000
0.000000
0.000000
0.000000
0.000000
0.000000
0.000000
0.000000
0.000000
0.000000
0.000000
0.000000
0.000000
0.000000
0.000000
0.000000
0.000000
0.000000
0.000000
0.000000
0.000000
0.000000
0.000000
0.000000
0.000000
0.000000
0.000000
0.000000
0.000000
0.000000
0.000000
0.000000
0.000000
0.000000
0.000000
0.000000
0.000000
0.000000
0.000000
0.000000
0.000000
0.000000
0.000000
0.000000
0.000000
0.000000
0.000000
0.000000
0.000000
0.000000
0.000000
0.000000
0.000000
0.000000
0.000000
0.000000
0.000000
0.000000
0.000000
0.000000
0.000000
0.000000
0.000000
0.000000
0.000000
0.000000
0.000000
0.000000
0.000000
0.000000
0.000000
0.000000
0.000000
0.000000
0.000000
0.000000
0.000000
0.000000
0.000000
0.000000
0.000000
0.000000
0.000000
0.000000
0.000000
0.000000
0.000000
0.000000
0.000000
0.000000
0.000000
0.000000
0.000000
-0.929399
-0.921730
-0.914566
-0.908801
-0.904485
-0.901467
-0.899574
-0.898651
-0.898566
-0.899203
-0.900459
-0.902247
-0.904488
-0.907114
-0.910065
-0.913288
-0.916737
-0.920372
-0.924159
-0.928068
-0.932074
-0.936156
-0.940296
-0.944481
-0.948699
-0.952941
-0.957202
-0.961477
-0.965763
-0.970060
-0.974369
-0.978690
-0.983026
-0.987380
-0.991757
-0.996160
-1.000594
-1.005064
-1.009576
-1.014137
-1.018753
-1.023433
-1.028183
-1.033012
-1.041172
-1.044589
-1.030193
-1.018460
-1.010056
-1.004205
-1.000152
-0.997372
-0.995517
-0.994348
-0.993694
-0.993428
-0.993453
-0.993691
-0.994080
-0.994569
-0.995115
-0.995685
-0.996244
-0.996760
-0.997193
-0.997484
-0.997539
-0.995468
-0.993132
-0.990180
-0.986726
-0.983221
-0.980104
-0.977786
0.000000
0.000000
0.000000
0.000000
0.000000
0.000000
0.000000
0.000000
0.000000
0.000000
0.000000
0.000000
0.000000
0.000000
0.000000
0.000000
0.000000
0.000000
0.000000
0.000000
0.000000
0.000000
0.000000
0.000000
0.000000
0.000000
0.000000
0.000000
0.000000
0.000000
0.000000
0.000000
0.000000
0.000000
0.000000
0.000000
0.000000
0.000000
0.000000
0.000000
0.000000
0.000000
0.000000
0.000000
0.000000
0.000000
0.000000
0.000000
0.000000
0.000000
0.000000
0.000000
0.000000
0.000000
0.000000
0.000000
0.000000
0.000000
0.000000
0.000000
0.000000
0.000000
0.000000
0.000000
0.000000
0.000000
0.000000
0.000000
0.000000
0.000000
0.000000
0.000000
0.000000
0.000000
0.000000
0.000000
0.000000
0.000000
0.000000
0.000000
0.000000
0.000000
0.000000
0.000000
0.000000
0.000000
0.000000
0.000000
0.000000
0.000000
0.000000
0.000000
0.000000
0.000000
0.000000
0.000000
0.000000
0.000000
0.000000
0.000000
0.000000
0.000000
0.000000
0.000000
0.000000
0.000000
0.000000
0.000000
0.000000
0.000000
0.000000
0.000000
0.000000
0.000000
0.000000
0.000000
0.000000
0.000000
0.000000
0.000000
0.000000
-0.974734
-0.955745
-0.942363
-0.934604
-0.930110
-0.929399
-0.921730
-0.914566
-0.908801
-0.904485
-0.901467
-0.899574
-0.898652
-0.898567
-0.899203
-0.900459
-0.902247
-0.904488
-0.907114
-0.910065
-0.913288
-0.916737
-0.920372
-0.924159
-0.928068
-0.932074
-0.936156
-0.940296
-0.944481
-0.948699
-0.952942
-0.957203
-0.961477
-0.965764
-0.970061
-0.974369
-0.978690
-0.983027
-0.987381
-0.991758
-0.996161
-1.000594
-1.005065
-1.009577
-1.014138
-1.018754
-1.023434
-1.028184
-1.033013
-1.037758
-1.038173
-1.028945
-1.019133
-1.011231
-1.005385
-1.001204
-0.998282
-0.996302
-0.995028
-0.994288
-0.993951
-0.993915
-0.994101
-0.994442
-0.994887
-0.995390
-0.995911
-0.996411
-0.996843
-0.997138
-0.997169
-0.996664
-0.995030
-0.992829
-0.990115
-0.987057
-0.984010
-0.981394
-0.979602
0.000000
0.000000
0.000000
0.000000
0.000000
0.000000
0.000000
0.000000
0.000000
0.000000
0.000000
0.000000
0.000000
0.000000
0.000000
0.000000
0.000000
0.000000
0.000000
0.000000
0.000000
0.000000
0.000000
0.000000
0.000000
0.000000
0.000000
0.000000
0.000000
0.000000
0.000000
0.000000
0.000000
0.000000
0.000000
0.000000
0.000000
0.000000
0.000000
0.000000
0.000000
0.000000
0.000000
0.000000
0.000000
0.000000
0.000000
0.000000
0.000000
0.000000
0.000000
0.000000
0.000000
0.000000
0.000000
0.000000
0.000000
0.000000
0.000000
0.000000
0.000000
0.000000
0.000000
0.000000
0.000000
0.000000
0.000000
0.000000
0.000000
0.000000
0.000000
0.000000
0.000000
0.000000
0.000000
0.000000
0.000000
0.000000
0.000000
0.000000
0.000000
0.000000
0.000000
0.000000
0.000000
0.000000
0.000000
0.000000
0.000000
0.000000
0.000000
0.000000
0.000000
0.000000
0.000000
0.000000
0.000000
0.000000
0.000000
0.000000
0.000000
0.000000
0.000000
0.000000
0.000000
0.000000
0.000000
0.000000
0.000000
0.000000
0.000000
0.000000
0.000000
-1.001365
-0.982548
-0.968710
-0.960417
-0.956390
-0.955665
-0.957746
-0.968568
-0.974734
-0.955745
-0.942363
-0.934604
-0.930820
-0.927927
-0.921861
-0.915471
-0.909988
-0.905735
-0.902695
-0.900753
-0.899773
-0.899630
-0.900210
-0.901413
-0.903150
-0.905342
-0.907922
-0.910829
-0.914009
-0.917418
-0.921014
-0.924763
-0.928636
-0.932607
-0.936654
-0.940761
-0.944914
-0.949100
-0.953310
-0.957540
-0.961784
-0.966039
-0.970305
-0.974581
-0.978868
-0.983169
-0.987486
-0.991820
-0.996175
-1.000553
-1.004953
-1.009374
-1.013808
-1.018235
-1.022607
-1.026806
-1.030533
-1.032966
-1.031978
-1.026226
-1.019053
-1.012467
-1.007125
-1.003053
-1.000070
-0.997965
-0.996549
-0.995668
-0.995196
-0.995034
-0.995101
-0.995330
-0.995664
-0.996055
-0.996456
-0.996819
-0.997083
-0.997165
-0.996937
-0.996209
-0.994787
-0.992843
-0.990502
-0.987952
-0.985481
-0.983425
-0.981994
3.116932
0.000000
0.000000
0.000000
0.000000
0.000000
0.000000
0.000000
0.000000
0.000000
0.000000
0.000000
0.000000
0.000000
0.000000
0.000000
0.000000
0.000000
0.000000
0.000000
0.000000
0.000000
0.000000
0.000000
0.000000
0.000000
0.000000
0.000000
0.000000
0.000000
0.000000
0.000000
0.000000
0.000000
0.000000
0.000000
0.000000
0.000000
0.000000
0.000000
0.000000
0.000000
0.000000
0.000000
0.000000
0.000000
0.000000
0.000000
0.000000
0.000000
0.000000
0.000000
0.000000
0.000000
0.000000
0.000000
0.000000
0.000000
0.000000
0.000000
0.000000
0.000000
0.000000
0.000000
0.000000
0.000000
0.000000
0.000000
0.000000
0.000000
0.000000
0.000000
0.000000
0.000000
0.000000
0.000000
0.000000
0.000000
0.000000
0.000000
0.000000
0.000000
0.000000
0.000000
0.000000
0.000000
0.000000
0.000000
0.000000
0.000000
0.000000
0.000000
0.000000
0.000000
0.000000
0.000000
0.000000
0.000000
0.000000
0.000000
0.000000
0.000000
0.000000
0.000000
0.000000
0.000000
0.000000
-1.046043
-1.022148
-1.004907
-0.995132
-0.991249
-0.996759
-1.001365
-0.982547
-0.968710
-0.960417
-0.956390
-0.955664
-0.957746
-0.962401
-0.966143
-0.955691
-0.944979
-0.937281
-0.932171
-0.927830
-0.922494
-0.916958
-0.912005
-0.908007
-0.905057
-0.903116
-0.902092
-0.901882
-0.902384
-0.903504
-0.905155
-0.907261
-0.909755
-0.912577
-0.915675
-0.919001
-0.922517
-0.926188
-0.929983
-0.933878
-0.937852
-0.941886
-0.945966
-0.950081
-0.954222
-0.958381
-0.962555
-0.966740
-0.970934
-0.975136
-0.979348
-0.983568
-0.987798
-0.992036
-0.996283
-1.000533
-1.004778
-1.009002
-1.013175
-1.017241
-1.021096
-1.024542
-1.027206
-1.028424
-1.027268
-1.023482
-1.018406
-1.013275
-1.008751
-1.005060
-1.002202
-1.000082
-0.998578
-0.997572
-0.996960
-0.996651
-0.996569
-0.996649
-0.996833
-0.997069
-0.997309
-0.997497
-0.997574
-0.997459
-0.997056
-0.996256
-0.994991
-0.993333
-0.991400
-0.989360
-0.987433
-0.985860
-0.984683
3.116932
1.922934
0.642988
1.021908
0.000000
0.000000
0.000000
0.000000
0.000000
0.000000
0.000000
0.000000
0.000000
0.000000
0.000000
0.000000
0.000000
0.000000
0.000000
0.000000
0.000000
0.000000
0.000000
0.000000
0.000000
0.000000
0.000000
0.000000
0.000000
0.000000
0.000000
0.000000
0.000000
0.000000
0.000000
0.000000
0.000000
0.000000
0.000000
0.000000
0.000000
0.000000
0.000000
0.000000
0.000000
0.000000
0.000000
0.000000
0.000000
0.000000
0.000000
0.000000
0.000000
0.000000
0.000000
0.000000
0.000000
0.000000
0.000000
0.000000
0.000000
0.000000
0.000000
0.000000
0.000000
0.000000
0.000000
0.000000
0.000000
0.000000
0.000000
0.000000
0.000000
0.000000
0.000000
0.000000
0.000000
0.000000
0.000000
0.000000
0.000000
0.000000
0.000000
0.000000
0.000000
0.000000
0.000000
0.000000
0.000000
0.000000
0.000000
0.000000
0.000000
0.000000
0.000000
0.000000
0.000000
0.000000
0.000000
0.000000
0.000000
0.000000
-1.106755
-1.070609
-1.047245
-1.036436
-1.040453
-1.046043
-1.022148
-1.004907
-0.995132
-0.991249
-0.992154
-0.994104
-0.983069
-0.971875
-0.964016
-0.959663
-0.958244
-0.959006
-0.960722
-0.960504
-0.954338
-0.946573
-0.939726
-0.934199
-0.929302
-0.924319
-0.919428
-0.915023
-0.911379
-0.908617
-0.906746
-0.905717
-0.905453
-0.905871
-0.906888
-0.908425
-0.910410
-0.912778
-0.915473
-0.918442
-0.921641
-0.925029
-0.928574
-0.932245
-0.936018
-0.939870
-0.943785
-0.947748
-0.951747
-0.955773
-0.959819
-0.963879
-0.967950
-0.972029
-0.976115
-0.980205
-0.984299
-0.988395
-0.992487
-0.996571
-1.000634
-1.004659
-1.008616
-1.012457
-1.016103
-1.019426
-1.022220
-1.024174
-1.024870
-1.023913
-1.021313
-1.017704
-1.013810
-1.010145
-1.006973
-1.004383
-1.002362
-1.000850
-0.999771
-0.999046
-0.998599
-0.998366
-0.998284
-0.998300
-0.998365
-0.998428
-0.998439
-0.998342
-0.998074
-0.997568
-0.996768
-0.995654
-0.994274
-0.992726
-0.991147
-0.989705
-0.988567
-0.987732
1.635954
0.728935
0.642988
1.021908
0.443871
0.015276
0.228021
0.416590
0.000000
0.000000
0.000000
0.000000
0.000000
0.000000
0.000000
0.000000
0.000000
0.000000
0.000000
0.000000
0.000000
0.000000
0.000000
0.000000
0.000000
0.000000
0.000000
0.000000
0.000000
0.000000
0.000000
0.000000
0.000000
0.000000
0.000000
0.000000
0.000000
0.000000
0.000000
0.000000
0.000000
0.000000
0.000000
0.000000
0.000000
0.000000
0.000000
0.000000
0.000000
0.000000
0.000000
0.000000
0.000000
0.000000
0.000000
0.000000
0.000000
0.000000
0.000000
0.000000
0.000000
0.000000
0.000000
0.000000
0.000000
0.000000
0.000000
0.000000
0.000000
0.000000
0.000000
0.000000
0.000000
0.000000
0.000000
0.000000
0.000000
0.000000
0.000000
0.000000
0.000000
0.000000
0.000000
0.000000
0.000000
0.000000
0.000000
0.000000
0.000000
0.000000
0.000000
0.000000
0.000000
0.000000
0.000000
0.000000
-1.154789
-1.115197
-1.088930
-1.076406
-1.074330
-1.093687
-1.106755
-1.070609
-1.047244
-1.036436
-1.034862
-1.037050
-1.023110
-1.009211
-0.999752
-0.994714
-0.992634
-0.990261
-0.982978
-0.974690
-0.967975
-0.963595
-0.961371
-0.960625
-0.960205
-0.958404
-0.953873
-0.948012
-0.942188
-0.936912
-0.932070
-0.927435
-0.923064
-0.919155
-0.915888
-0.913366
-0.911616
-0.910618
-0.910320
-0.910658
-0.911562
-0.912964
-0.914799
-0.917008
-0.919536
-0.922334
-0.925360
-0.928576
-0.931947
-0.935447
-0.939049
-0.942733
-0.946482
-0.950281
-0.954118
-0.957985
-0.961872
-0.965776
-0.969690
-0.973612
-0.977539
-0.981467
-0.985392
-0.989311
-0.993214
-0.997091
-1.000925
-1.004689
-1.008345
-1.011835
-1.015072
-1.017932
-1.020239
-1.021771
-1.022283
-1.021611
-1.019818
-1.017248
-1.014338
-1.011452
-1.008822
-1.006567
-1.004720
-1.003266
-1.002162
-1.001355
-1.000789
-1.000409
-1.000166
-1.000010
-0.999898
-0.999784
-0.999625
-0.999375
-0.998990
-0.998427
-0.997660
-0.996692
-0.995565
-0.994361
-0.993190
-0.992180
-0.991457
-0.991091
0.939263
0.686854
0.605702
0.501521
-0.134166
0.015276
0.228021
0.416590
0.069316
-0.132346
0.029719
0.179007
0.000000
0.000000
0.000000
0.000000
0.000000
0.000000
0.000000
0.000000
0.000000
0.000000
0.000000
0.000000
0.000000
0.000000
0.000000
0.000000
0.000000
0.000000
0.000000
0.000000
0.000000
0.000000
0.000000
0.000000
0.000000
0.000000
0.000000
0.000000
0.000000
0.000000
0.000000
0.000000
0.000000
0.000000
0.000000
0.000000
0.000000
0.000000
0.000000
0.000000
0.000000
0.000000
0.000000
0.000000
0.000000
0.000000
0.000000
0.000000
0.000000
0.000000
0.000000
0.000000
0.000000
0.000000
0.000000
0.000000
0.000000
0.000000
0.000000
0.000000
0.000000
0.000000
0.000000
0.000000
0.000000
0.000000
0.000000
0.000000
0.000000
0.000000
0.000000
0.000000
0.000000
0.000000
0.000000
0.000000
0.000000
0.000000
0.000000
-1.234771
-1.178124
-1.143278
-1.129273
-1.142471
-1.154789
-1.115196
-1.088930
-1.076406
-1.074330
-1.080618
-1.089809
-1.071486
-1.053533
-1.042413
-1.037015
-1.032883
-1.023255
-1.012694
-1.004190
-0.998330
-0.994229
-0.990052
-0.984141
-0.977670
-0.971995
-0.967755
-0.964934
-0.963060
-0.961334
-0.958815
-0.954950
-0.950204
-0.945253
-0.940487
-0.935997
-0.931772
-0.927869
-0.924406
-0.921500
-0.919228
-0.917622
-0.916677
-0.916359
-0.916621
-0.917407
-0.918660
-0.920324
-0.922345
-0.924673
-0.927265
-0.930079
-0.933080
-0.936236
-0.939520
-0.942909
-0.946381
-0.949921
-0.953513
-0.957147
-0.960812
-0.964501
-0.968208
-0.971927
-0.975654
-0.979385
-0.983115
-0.986838
-0.990547
-0.994230
-0.997873
-1.001453
-1.004941
-1.008293
-1.011448
-1.014326
-1.016818
-1.018789
-1.020087
-1.020577
-1.020189
-1.018989
-1.017182
-1.015040
-1.012813
-1.010689
-1.008781
-1.007142
-1.005783
-1.004689
-1.003826
-1.003158
-1.002644
-1.002243
-1.001917
-1.001629
-1.001343
-1.001023
-1.000638
-1.000157
-0.999558
-0.998833
-0.997996
-0.997090
-0.996182
-0.995362
-0.994734
-0.994402
-0.994565
0.623844
0.547930
0.469084
0.349215
0.117404
0.114153
0.171791
0.108692
-0.277958
-0.132346
0.029719
0.179007
-0.122628
-0.293588
-0.148904
-0.009027
0.000000
0.000000
0.000000
0.000000
0.000000
0.000000
0.000000
0.000000
0.000000
0.000000
0.000000
0.000000
0.000000
0.000000
0.000000
0.000000
0.000000
0.000000
0.000000
0.000000
0.000000
0.000000
0.000000
0.000000
0.000000
0.000000
0.000000
0.000000
0.000000
0.000000
0.000000
0.000000
0.000000
0.000000
0.000000
0.000000
0.000000
0.000000
0.000000
0.000000
0.000000
0.000000
0.000000
0.000000
0.000000
0.000000
0.000000
0.000000
0.000000
0.000000
0.000000
0.000000
0.000000
0.000000
0.000000
0.000000
0.000000
0.000000
0.000000
0.000000
0.000000
0.000000
0.000000
0.000000
0.000000
0.000000
0.000000
0.000000
0.000000
-1.299685
-1.234810
-1.194193
-1.177074
-1.176794
-1.211950
-1.234771
-1.178124
-1.143278
-1.129273
-1.130153
-1.137724
-1.116741
-1.096452
-1.084246
-1.079740
-1.080225
-1.079925
-1.069461
-1.056839
-1.046665
-1.039305
-1.032710
-1.024503
-1.015873
-1.008246
-1.002098
-0.997025
-0.992139
-0.986781
-0.981302
-0.976329
-0.972242
-0.969056
-0.966475
-0.964007
-0.961137
-0.957588
-0.953513
-0.949236
-0.945012
-0.940973
-0.937184
-0.933715
-0.930651
-0.928073
-0.926038
-0.924577
-0.923691
-0.923358
-0.923546
-0.924210
-0.925304
-0.926781
-0.928593
-0.930698
-0.933055
-0.935627
-0.938381
-0.941288
-0.944323
-0.947462
-0.950687
-0.953982
-0.957332
-0.960726
-0.964156
-0.967613
-0.971090
-0.974583
-0.978086
-0.981593
-0.985099
-0.988596
-0.992074
-0.995520
-0.998916
-1.002239
-1.005456
-1.008522
-1.011383
-1.013965
-1.016181
-1.017931
-1.019117
-1.019659
-1.019530
-1.018785
-1.017553
-1.016009
-1.014324
-1.012641
-1.011057
-1.009629
-1.008381
-1.007315
-1.006415
-1.005659
-1.005020
-1.004469
-1.003978
-1.003518
-1.003063
-1.002591
-1.002078
-1.001510
-1.000878
-1.000187
-0.999457
-0.998730
-0.998064
-0.997537
-0.997234
-0.997247
-0.997922
0.451767
0.422305
0.367059
0.289167
0.182269
0.134448
0.109809
0.035369
-0.101090
-0.076136
-0.023017
-0.084702
-0.424262
-0.293588
-0.148904
-0.009027
-0.322244
-0.528795
-0.403771
-0.307966
-0.195398
0.000000
0.000000
0.000000
0.000000
0.000000
0.000000
0.000000
0.000000
0.000000
0.000000
0.000000
0.000000
0.000000
0.000000
0.000000
0.000000
0.000000
0.000000
0.000000
0.000000
0.000000
0.000000
0.000000
0.000000
0.000000
0.000000
0.000000
0.000000
0.000000
0.000000
0.000000
0.000000
0.000000
0.000000
0.000000
0.000000
0.000000
0.000000
0.000000
0.000000
0.000000
0.000000
0.000000
0.000000
0.000000
0.000000
0.000000
0.000000
0.000000
0.000000
0.000000
0.000000
0.000000
0.000000
0.000000
0.000000
0.000000
0.000000
-1.388041
-1.309042
-1.258797
-1.236962
-1.235393
-1.274139
-1.299685
-1.234810
-1.194193
-1.177074
-1.176794
-1.189128
-1.206048
-1.179022
-1.153073
-1.138369
-1.132811
-1.129176
-1.116021
-1.101489
-1.090625
-1.084228
-1.080596
-1.076375
-1.068319
-1.058655
-1.049628
-1.041809
-1.034511
-1.026915
-1.019325
-1.012337
-1.006218
-1.000806
-0.995706
-0.990636
-0.985694
-0.981147
-0.977182
-0.973800
-0.970824
-0.967964
-0.964933
-0.961576
-0.957935
-0.954166
-0.950426
-0.946830
-0.943459
-0.940382
-0.937668
-0.935376
-0.933553
-0.932223
-0.931390
-0.931041
-0.931154
-0.931694
-0.932624
-0.933906
-0.935499
-0.937366
-0.939471
-0.941782
-0.944268
-0.946903
-0.949664
-0.952529
-0.955481
-0.958504
-0.961586
-0.964716
-0.967885
-0.971085
-0.974310
-0.977554
-0.980811
-0.984076
-0.987342
-0.990599
-0.993838
-0.997043
-1.000195
-1.003270
-1.006235
-1.009050
-1.011663
-1.014015
-1.016035
-1.017651
-1.018797
-1.019425
-1.019527
-1.019141
-1.018352
-1.017275
-1.016028
-1.014715
-1.013416
-1.012182
-1.011045
-1.010013
-1.009086
-1.008252
-1.007496
-1.006801
-1.006148
-1.005520
-1.004901
-1.004278
-1.003640
-1.002983
-1.002308
-1.001631
-1.000974
-1.000380
-0.999900
-0.999601
-0.999557
-0.999850
-1.000959
0.342369
0.327191
0.290449
0.238344
0.173977
0.123269
0.079256
0.022150
-0.043733
-0.065058
-0.078939
-0.146138
-0.268795
-0.246419
-0.201454
-0.273546
-0.635461
-0.528795
-0.403771
-0.307966
-0.195398
-0.508647
-0.744155
-0.637926
-0.561622
-0.489067
-0.382645
0.000000
0.000000
0.000000
0.000000
0.000000
0.000000
0.000000
0.000000
0.000000
0.000000
0.000000
0.000000
0.000000
0.000000
0.000000
0.000000
0.000000
0.000000
0.000000
0.000000
0.000000
0.000000
0.000000
0.000000
0.000000
0.000000
0.000000
0.000000
0.000000
0.000000
0.000000
0.000000
0.000000
0.000000
0.000000
0.000000
0.000000
0.000000
0.000000
0.000000
0.000000
0.000000
0.000000
0.000000
0.000000
0.000000
-1.522217
-1.414577
-1.345834
-1.315663
-1.312187
-1.357555
-1.388041
-1.309041
-1.258796
-1.236962
-1.235393
-1.248592
-1.266994
-1.235702
-1.205640
-1.188929
-1.184382
-1.187349
-1.188899
-1.174557
-1.157101
-1.143686
-1.134703
-1.126800
-1.116092
-1.104706
-1.095009
-1.087673
-1.081865
-1.075925
-1.068562
-1.060342
-1.052215
-1.044588
-1.037316
-1.030154
-1.023195
-1.016678
-1.010735
-1.005305
-1.000219
-0.995351
-0.990723
-0.986436
-0.982567
-0.979102
-0.975931
-0.972888
-0.969807
-0.966597
-0.963262
-0.959879
-0.956541
-0.953336
-0.950334
-0.947598
-0.945182
-0.943135
-0.941491
-0.940270
-0.939479
-0.939111
-0.939148
-0.939565
-0.940332
-0.941418
-0.942790
-0.944415
-0.946263
-0.948304
-0.950513
-0.952865
-0.955339
-0.957916
-0.960580
-0.963317
-0.966116
-0.968965
-0.971858
-0.974786
-0.977745
-0.980727
-0.983728
-0.986742
-0.989760
-0.992775
-0.995775
-0.998744
-1.001664
-1.004511
-1.007253
-1.009855
-1.012270
-1.014450
-1.016339
-1.017884
-1.019036
-1.019767
-1.020072
-1.019976
-1.019537
-1.018829
-1.017934
-1.016926
-1.015867
-1.014803
-1.013763
-1.012764
-1.011811
-1.010904
-1.010036
-1.009201
-1.008390
-1.007596
-1.006813
-1.006037
-1.005268
-1.004511
-1.003777
-1.003086
-1.002466
-1.001955
-1.001604
-1.001468
-1.001614
-1.002111
-1.003541
0.263331
0.253823
0.228716
0.191936
0.147135
0.103353
0.060552
0.014472
-0.032459
-0.067689
-0.102220
-0.153852
-0.214735
-0.235984
-0.254271
-0.330079
-0.468161
-0.456515
-0.403648
-0.367283
-0.450704
-0.821897
-0.744155
-0.637926
-0.561622
-0.489067
-0.382645
-0.742665
-1.065302
-0.979130
-0.931610
-0.901087
-0.879021
-0.861141
-0.844750
-0.827644
-0.807454
-0.780786
-0.741321
-0.658674
0.000000
0.000000
0.000000
0.000000
0.000000
0.000000
0.000000
0.000000
0.000000
0.000000
0.000000
0.000000
0.000000
0.000000
0.000000
0.000000
0.000000
0.000000
0.000000
0.000000
0.000000
0.000000
0.000000
0.000000
0.000000
0.000000
-1.725502
-1.565422
-1.460035
-1.410559
-1.397586
-1.408543
-1.478834
-1.522216
-1.414576
-1.345834
-1.315663
-1.312187
-1.327070
-1.348008
-1.309346
-1.272006
-1.250815
-1.244260
-1.246678
-1.247680
-1.230937
-1.211112
-1.196772
-1.189175
-1.185619
-1.181013
-1.170500
-1.157629
-1.145839
-1.135916
-1.126711
-1.116915
-1.107071
-1.098133
-1.090459
-1.083671
-1.076997
-1.069863
-1.062368
-1.054883
-1.047641
-1.040659
-1.033894
-1.027392
-1.021255
-1.015544
-1.010240
-1.005271
-1.000580
-0.996162
-0.992051
-0.988267
-0.984789
-0.981548
-0.978444
-0.975381
-0.972302
-0.969202
-0.966117
-0.963105
-0.960226
-0.957536
-0.955086
-0.952919
-0.951074
-0.949578
-0.948447
-0.947687
-0.947295
-0.947258
-0.947557
-0.948168
-0.949065
-0.950222
-0.951611
-0.953205
-0.954980
-0.956913
-0.958981
-0.961167
-0.963453
-0.965824
-0.968270
-0.970778
-0.973341
-0.975950
-0.978601
-0.981286
-0.984002
-0.986743
-0.989503
-0.992275
-0.995051
-0.997820
-1.000566
-1.003272
-1.005915
-1.008467
-1.010894
-1.013158
-1.015217
-1.017027
-1.018544
-1.019735
-1.020576
-1.021063
-1.021210
-1.021054
-1.020643
-1.020031
-1.019272
-1.018413
-1.017490
-1.016532
-1.015557
-1.014575
-1.013594
-1.012615
-1.011642
-1.010673
-1.009711
-1.008760
-1.007825
-1.006914
-1.006042
-1.005226
-1.004490
-1.003866
-1.003392
-1.003112
-1.003078
-1.003345
-1.003973
-1.005602
0.202393
0.195788
0.177799
0.150693
0.117135
0.080995
0.043543
0.004452
-0.035168
-0.072280
-0.110019
-0.153045
-0.197965
-0.233403
-0.270784
-0.327572
-0.394553
-0.414918
-0.413961
-0.428894
-0.510020
-0.660191
-0.664285
-0.621020
-0.578106
-0.556533
-0.663334
-1.102686
-1.065302
-0.979130
-0.931610
-0.901087
-0.879021
-0.861141
-0.844750
-0.827644
-0.807454
-0.780786
-0.741321
-0.658674
-1.035276
-1.414106
-1.344907
-1.312345
-1.296108
-1.288573
-1.286315
-1.287569
-1.291332
-1.297004
-1.304216
-1.312745
-1.322473
-1.333322
-1.345366
-1.358382
-1.372152
-1.386869
-1.402756
-1.420106
-1.439335
-1.461048
-1.486177
-1.516282
-1.554266
-1.661611
-1.725502
-1.565422
-1.460035
-1.410559
-1.397586
-1.408543
-1.435452
-1.463962
-1.411966
-1.361463
-1.332512
-1.322617
-1.324053
-1.323861
-1.302576
-1.277746
-1.259611
-1.249627
-1.244604
-1.238715
-1.226551
-1.212285
-1.200063
-1.191103
-1.184218
-1.176991
-1.167567
-1.156872
-1.146343
-1.136553
-1.127233
-1.117988
-1.108968
-1.100535
-1.092839
-1.085707
-1.078787
-1.071802
-1.064736
-1.057723
-1.050880
-1.044255
-1.037863
-1.031738
-1.025929
-1.020467
-1.015348
-1.010540
-1.006016
-1.001766
-0.997794
-0.994098
-0.990655
-0.987419
-0.984327
-0.981323
-0.978371
-0.975462
-0.972616
-0.969867
-0.967255
-0.964824
-0.962611
-0.960650
-0.958972
-0.957597
-0.956538
-0.955802
-0.955386
-0.955279
-0.955468
-0.955934
-0.956656
-0.957611
-0.958777
-0.960130
-0.961649
-0.963314
-0.965106
-0.967009
-0.969008
-0.971091
-0.973247
-0.975466
-0.977742
-0.980068
-0.982440
-0.984852
-0.987302
-0.989784
-0.992294
-0.994826
-0.997371
-0.999920
-1.002459
-1.004972
-1.007437
-1.009829
-1.012119
-1.014272
-1.016253
-1.018024
-1.019550
-1.020802
-1.021760
-1.022414
-1.022773
-1.022854
-1.022688
-1.022309
-1.021755
-1.021060
-1.020253
-1.019358
-1.018394
-1.017376
-1.016316
-1.015224
-1.014107
-1.012976
-1.011841
-1.010714
-1.009607
-1.008540
-1.007532
-1.006607
-1.005794
-1.005127
-1.004643
-1.004384
-1.004395
-1.004724
-1.005417
-1.007138
0.153834
0.148950
0.135460
0.114693
0.088385
0.058556
0.026422
-0.007477
-0.042468
-0.077667
-0.113875
-0.152248
-0.191717
-0.229698
-0.269457
-0.315069
-0.361335
-0.392896
-0.416938
-0.450443
-0.509502
-0.582965
-0.609513
-0.608182
-0.605998
-0.630626
-0.733085
-0.925012
-0.961254
-0.939735
-0.913856
-0.892340
-0.875048
-0.860468
-0.847120
-0.833796
-0.819900
-0.807303
-0.809431
-0.938427
-1.411878
-1.414106
-1.344907
-1.312345
-1.296108
-1.288573
-1.286315
-1.287569
-1.291332
-1.297004
-1.304216
-1.312745
-1.322473
-1.333322
-1.345366
-1.358382
-1.372152
-1.386869
-1.402756
-1.420106
-1.439335
-1.461048
-1.486177
-1.516282
-1.554266
-1.597719
-1.630451
-1.552624
-1.476848
-1.431821
-1.413735
-1.413963
-1.422753
-1.424864
-1.397642
-1.365127
-1.341031
-1.327234