# vtk DataFile Version 3.0
Scalar Field
ASCII
DATASET RECTILINEAR_GRID
DIMENSIONS 200 50 1
X_COORDINATES 200 double
0.050000 0.150000 0.250000 0.350000 0.450000 0.550000 0.650000 0.750000 0.850000 0.950000 1.050000 1.150000 1.250000 1.350000 1.450000 1.550000 1.650000 1.750000 1.850000 1.950000 2.050000 2.150000 2.250000 2.350000 2.450000 2.550000 2.650000 2.750000 2.850000 2.950000 3.050000 3.150000 3.250000 3.350000 3.450000 3.550000 3.650000 3.750000 3.850000 3.950000 4.050000 4.150000 4.250000 4.350000 4.450000 4.550000 4.650000 4.750000 4.850000 4.950000 5.050000 5.150000 5.250000 5.350000 5.450000 5.550000 5.650000 5.750000 5.850000 5.950000 6.050000 6.150000 6.250000 6.350000 6.450000 6.550000 6.650000 6.750000 6.850000 6.950000 7.050000 7.150000 7.250000 7.350000 7.450000 7.550000 7.650000 7.750000 7.850000 7.950000 8.050000 8.150000 8.250000 8.350000 8.450000 8.550000 8.650000 8.750000 8.850000 8.950000 9.050000 9.150000 9.250000 9.350000 9.450000 9.550000 9.650000 9.750000 9.850000 9.950000 10.050000 10.150000 10.250000 10.350000 10.450000 10.550000 10.650000 10.750000 10.850000 10.950000 11.050000 11.150000 11.250000 11.350000 11.450000 11.550000 11.650000 11.750000 11.850000 11.950000 12.050000 12.150000 12.250000 12.350000 12.450000 12.550000 12.650000 12.750000 12.850000 12.950000 13.050000 13.150000 13.250000 13.350000 13.450000 13.550000 13.650000 13.750000 13.850000 13.950000 14.050000 14.150000 14.250000 14.350000 14.450000 14.550000 14.650000 14.750000 14.850000 14.950000 15.050000 15.150000 15.250000 15.350000 15.450000 15.550000 15.650000 15.750000 15.850000 15.950000 16.050000 16.150000 16.250000 16.350000 16.450000 16.550000 16.650000 16.750000 16.850000 16.950000 17.050000 17.150000 17.250000 17.350000 17.450000 17.550000 17.650000 17.750000 17.850000 17.950000 18.050000 18.150000 18.250000 18.350000 18.450000 18.550000 18.650000 18.750000 18.850000 18.950000 19.050000 19.150000 19.250000 19.350000 19.450000 19.550000 19.650000 19.750000 19.850000 19.950000 
Y_COORDINATES 50 double
0.050000 0.150000 0.250000 0.350000 0.450000 0.550000 0.650000 0.750000 0.850000 0.950000 1.050000 1.150000 1.250000 1.350000 1.450000 1.550000 1.650000 1.750000 1.850000 1.950000 2.050000 2.150000 2.250000 2.350000 2.450000 2.550000 2.650000 2.750000 2.850000 2.950000 3.050000 3.150000 3.250000 3.350000 3.450000 3.550000 3.650000 3.750000 3.850000 3.950000 4.050000 4.150000 4.250000 4.350000 4.450000 4.550000 4.650000 4.750000 4.850000 4.950000 
Z_COORDINATES 1 double
0.0
POINT_DATA 10000
SCALARS Skalarfeld double 1
LOOKUP_TABLE default
0.000000
0.000000
0.000000
0.000000
0.000000
0.000000
0.000000
0.000000
0.000000
0.000000
0.000000
0.000000
0.000000
0.000000
0.000000
0.000000
0.000000
0.000000
0.000000
0.000000
0.000000
0.000000
0.000000
0.000000
0.000000
0.000000
0.000000
0.000000
0.000000
0.000000
0.000000
0.000000
0.000000
0.000000
0.000000
0.000000
0.000000
0.000000
0.000000
0.000000
0.000000
0.000000
0.000000
0.000000
0.000000
0.000000
0.000000
0.000000
0.000000
0.000000
0.000000
0.000000
0.000000
0.000000
0.000000
0.000000
0.000000
0.000000
0.000000
0.000000
0.000000
0.000000
0.000000
0.000000
0.000000
0.000000
0.000000
0.000000
0.000000
0.000000
0.000000
0.000000
0.000000
0.000000
0.000000
0.000000
0.000000
0.000000
0.000000
0.000000
0.000000
0.000000
0.000000
0.000000
0.000000
0.000000
0.000000
0.000000
0.000000
0.000000
0.000000
0.000000
0.000000
0.000000
0.000000
0.000000
0.000000
0.000000
0.000000
0.000000
0.000000
0.000000
0.000000
0.000000
0.000000
0.000000
0.000000
0.000000
0.000000
0.000000
0.000000
0.000000
0.000000
0.000000
0.000000
0.000000
0.000000
0.000000
0.000000
0.000000
0.000000
0.000000
0.000000
0.000000
0.000000
0.000000
0.000000
0.000000
0.000000
0.000000
0.000000
0.000000
0.000000
0.000000
0.000000
0.000000
0.000000
0.000000
0.000000
0.000000
0.000000
0.000000
0.000000
0.000000
0.000000
0.000000
0.000000
0.000000
0.000000
0.000000
0.000000
0.000000
0.000000
0.000000
0.000000
0.000000
0.000000
0.000000
0.000000
0.000000
0.000000
0.000000
0.000000
0.000000
0.000000
0.000000
0.000000
0.000000
0.000000
0.000000
0.000000
0.000000
0.000000
0.000000
0.000000
0.000000
0.000000
0.000000
0.000000
0.000000
0.000000
0.000000
0.000000
0.000000
0.000000
0.000000
0.000000
0.000000
0.000000
0.000000
0.000000
0.000000
0.000000
-1.085714
-1.089493
-1.095844
-1.103230
-1.110695
-1.117767
-1.124151
0.000000
0.000000
0.000000
0.000000
0.000000
0.000000
0.000000
0.000000
0.000000
0.000000
0.000000
0.000000
0.000000
0.000000
0.000000
0.000000
0.000000
0.000000
0.000000
0.000000
0.000000
0.000000
0.000000
0.000000
0.000000
0.000000
0.000000
0.000000
0.000000
0.000000
0.000000
0.000000
0.000000
0.000000
0.000000
0.000000
0.000000
0.000000
0.000000
0.000000
0.000000
0.000000
0.000000
0.000000
0.000000
0.000000
0.000000
0.000000
0.000000
0.000000
0.000000
0.000000
0.000000
0.000000
0.000000
0.000000
0.000000
0.000000
0.000000
0.000000
0.000000
0.000000
0.000000
0.000000
0.000000
0.000000
0.000000
0.000000
0.000000
0.000000
0.000000
0.000000
0.000000
0.000000
0.000000
0.000000
0.000000
0.000000
0.000000
0.000000
0.000000
0.000000
0.000000
0.000000
0.000000
0.000000
0.000000
0.000000
0.000000
0.000000
0.000000
0.000000
0.000000
0.000000
0.000000
0.000000
0.000000
0.000000
0.000000
0.000000
0.000000
0.000000
0.000000
0.000000
0.000000
0.000000
0.000000
0.000000
0.000000
0.000000
0.000000
0.000000
0.000000
0.000000
0.000000
0.000000
0.000000
0.000000
0.000000
0.000000
0.000000
0.000000
0.000000
0.000000
0.000000
0.000000
0.000000
0.000000
0.000000
0.000000
0.000000
0.000000
0.000000
0.000000
0.000000
0.000000
0.000000
0.000000
0.000000
0.000000
0.000000
0.000000
0.000000
0.000000
0.000000
0.000000
0.000000
0.000000
0.000000
0.000000
0.000000
0.000000
0.000000
0.000000
0.000000
0.000000
0.000000
0.000000
0.000000
0.000000
0.000000
0.000000
0.000000
0.000000
0.000000
0.000000
0.000000
0.000000
0.000000
0.000000
0.000000
-1.011278
-1.001893
-0.995329
-0.991726
-0.990369
-0.990694
-0.992336
-0.995039
-0.998580
-1.002739
-1.007296
-1.012069
-1.017061
-1.022284
-1.027752
-1.033482
-1.039486
-1.045776
-1.052358
-1.059237
-1.066437
-1.079860
-1.085715
-1.089495
-1.095846
-1.103231
-1.110697
-1.117768
-1.124152
0.000000
0.000000
0.000000
0.000000
0.000000
0.000000
0.000000
0.000000
0.000000
0.000000
0.000000
0.000000
0.000000
0.000000
0.000000
0.000000
0.000000
0.000000
0.000000
0.000000
0.000000
0.000000
0.000000
0.000000
0.000000
0.000000
0.000000
0.000000
0.000000
0.000000
0.000000
0.000000
0.000000
0.000000
0.000000
0.000000
0.000000
0.000000
0.000000
0.000000
0.000000
0.000000
0.000000
0.000000
0.000000
0.000000
0.000000
0.000000
0.000000
0.000000
0.000000
0.000000
0.000000
0.000000
0.000000
0.000000
0.000000
0.000000
0.000000
0.000000
0.000000
0.000000
0.000000
0.000000
0.000000
0.000000
0.000000
0.000000
0.000000
0.000000
0.000000
0.000000
0.000000
0.000000
0.000000
0.000000
0.000000
0.000000
0.000000
0.000000
0.000000
0.000000
0.000000
0.000000
0.000000
0.000000
0.000000
0.000000
0.000000
0.000000
0.000000
0.000000
0.000000
0.000000
0.000000
0.000000
0.000000
0.000000
0.000000
0.000000
0.000000
0.000000
0.000000
0.000000
0.000000
0.000000
0.000000
0.000000
0.000000
0.000000
0.000000
0.000000
0.000000
0.000000
0.000000
0.000000
0.000000
0.000000
0.000000
0.000000
0.000000
0.000000
0.000000
0.000000
0.000000
0.000000
-0.923074
-0.919553
-0.916034
-0.912962
-0.910505
-0.908704
-0.907545
-0.906991
-0.906995
-0.907503
-0.908466
-0.909830
-0.911548
-0.913571
-0.915855
-0.918358
-0.921042
-0.923870
-0.926810
-0.929831
-0.932908
-0.936017
-0.939136
-0.942249
-0.945342
-0.948402
-0.951423
-0.954399
-0.957329
-0.960213
-0.963055
-0.965863
-0.968644
-0.971412
-0.974179
-0.976962
-0.979779
-0.982649
-0.985593
-0.988633
-0.991793
-0.995094
-0.998556
-1.002190
-1.008591
-1.011279
-1.001894
-0.995330
-0.991727
-0.990370
-0.990695
-0.992337
-0.995040
-0.998581
-1.002740
-1.007297
-1.012070
-1.017062
-1.022285
-1.027753
-1.033483
-1.039488
-1.045778
-1.052359
-1.059238
-1.066439
-1.074008
-1.081444
-1.087524
-1.094851
-1.102829
-1.110673
-1.117873
-1.124290
0.000000
0.000000
0.000000
0.000000
0.000000
0.000000
0.000000
0.000000
0.000000
0.000000
0.000000
0.000000
0.000000
0.000000
0.000000
0.000000
0.000000
0.000000
0.000000
0.000000
0.000000
0.000000
0.000000
0.000000
0.000000
0.000000
0.000000
0.000000
0.000000
0.000000
0.000000
0.000000
0.000000
0.000000
0.000000
0.000000
0.000000
0.000000
0.000000
0.000000
0.000000
0.000000
0.000000
0.000000
0.000000
0.000000
0.000000
0.000000
0.000000
0.000000
0.000000
0.000000
0.000000
0.000000
0.000000
0.000000
0.000000
0.000000
0.000000
0.000000
0.000000
0.000000
0.000000
0.000000
0.000000
0.000000
0.000000
0.000000
0.000000
0.000000
0.000000
0.000000
0.000000
0.000000
0.000000
0.000000
0.000000
0.000000
0.000000
0.000000
0.000000
0.000000
0.000000
0.000000
0.000000
0.000000
0.000000
0.000000
0.000000
0.000000
0.000000
0.000000
0.000000
0.000000
0.000000
0.000000
0.000000
0.000000
0.000000
0.000000
0.000000
0.000000
0.000000
0.000000
0.000000
0.000000
0.000000
0.000000
0.000000
0.000000
0.000000
0.000000
0.000000
0.000000
0.000000
0.000000
0.000000
0.000000
0.000000
0.000000
0.000000
-0.951996
-0.941215
-0.933204
-0.928126
-0.924155
-0.923074
-0.919553
-0.916034
-0.912962
-0.910505
-0.908704
-0.907545
-0.906991
-0.906995
-0.907503
-0.908466
-0.909830
-0.911548
-0.913571
-0.915855
-0.918358
-0.921041
-0.923870
-0.926809
-0.929831
-0.932908
-0.936017
-0.939136
-0.942249
-0.945342
-0.948402
-0.951423
-0.954399
-0.957329
-0.960213
-0.963055
-0.965863
-0.968644
-0.971412
-0.974179
-0.976963
-0.979779
-0.982649
-0.985594
-0.988634
-0.991794
-0.995095
-0.998557
-1.002191
-1.005904
-1.006760
-1.001085
-0.995698
-0.992252
-0.990751
-0.990890
-0.992379
-0.994983
-0.998482
-1.002637
-1.007155
-1.011899
-1.016867
-1.022067
-1.027514
-1.033223
-1.039210
-1.045483
-1.052042
-1.058872
-1.065910
-1.072922
-1.079592
-1.086216
-1.093893
-1.102176
-1.110287
-1.117560
-1.123594
0.000000
0.000000
0.000000
0.000000
0.000000
0.000000
0.000000
0.000000
0.000000
0.000000
0.000000
0.000000
0.000000
0.000000
0.000000
0.000000
0.000000
0.000000
0.000000
0.000000
0.000000
0.000000
0.000000
0.000000
0.000000
0.000000
0.000000
0.000000
0.000000
0.000000
0.000000
0.000000
0.000000
0.000000
0.000000
0.000000
0.000000
0.000000
0.000000
0.000000
0.000000
0.000000
0.000000
0.000000
0.000000
0.000000
0.000000
0.000000
0.000000
0.000000
0.000000
0.000000
0.000000
0.000000
0.000000
0.000000
0.000000
0.000000
0.000000
0.000000
0.000000
0.000000
0.000000
0.000000
0.000000
0.000000
0.000000
0.000000
0.000000
0.000000
0.000000
0.000000
0.000000
0.000000
0.000000
0.000000
0.000000
0.000000
0.000000
0.000000
0.000000
0.000000
0.000000
0.000000
0.000000
0.000000
0.000000
0.000000
0.000000
0.000000
0.000000
0.000000
0.000000
0.000000
0.000000
0.000000
0.000000
0.000000
0.000000
0.000000
0.000000
0.000000
0.000000
0.000000
0.000000
0.000000
0.000000
0.000000
0.000000
0.000000
0.000000
0.000000
0.000000
-0.978342
-0.966146
-0.956386
-0.949800
-0.945905
-0.944230
-0.944478
-0.949231
-0.951996
-0.941215
-0.933204
-0.928126
-0.925236
-0.922709
-0.919506
-0.916234
-0.913308
-0.910927
-0.909162
-0.908018
-0.907466
-0.907466
-0.907968
-0.908921
-0.910275
-0.911982
-0.913994
-0.916267
-0.918759
-0.921431
-0.924248
-0.927176
-0.930186
-0.933251
-0.936346
-0.939452
-0.942552
-0.945629
-0.948674
-0.951678
-0.954637
-0.957548
-0.960412
-0.963233
-0.966018
-0.968776
-0.971517
-0.974256
-0.977007
-0.979787
-0.982613
-0.985501
-0.988464
-0.991507
-0.994613
-0.997715
-1.000611
-1.002729
-1.002600
-0.999378
-0.995662
-0.992914
-0.991579
-0.991655
-0.993002
-0.995453
-0.998813
-1.002835
-1.007170
-1.011828
-1.016746
-1.021911
-1.027327
-1.033005
-1.038956
-1.045186
-1.051685
-1.058412
-1.065270
-1.072101
-1.078866
-1.085900
-1.093623
-1.101745
-1.109628
-1.116604
-1.122457
3.117539
0.000000
0.000000
0.000000
0.000000
0.000000
0.000000
0.000000
0.000000
0.000000
0.000000
0.000000
0.000000
0.000000
0.000000
0.000000
0.000000
0.000000
0.000000
0.000000
0.000000
0.000000
0.000000
0.000000
0.000000
0.000000
0.000000
0.000000
0.000000
0.000000
0.000000
0.000000
0.000000
0.000000
0.000000
0.000000
0.000000
0.000000
0.000000
0.000000
0.000000
0.000000
0.000000
0.000000
0.000000
0.000000
0.000000
0.000000
0.000000
0.000000
0.000000
0.000000
0.000000
0.000000
0.000000
0.000000
0.000000
0.000000
0.000000
0.000000
0.000000
0.000000
0.000000
0.000000
0.000000
0.000000
0.000000
0.000000
0.000000
0.000000
0.000000
0.000000
0.000000
0.000000
0.000000
0.000000
0.000000
0.000000
0.000000
0.000000
0.000000
0.000000
0.000000
0.000000
0.000000
0.000000
0.000000
0.000000
0.000000
0.000000
0.000000
0.000000
0.000000
0.000000
0.000000
0.000000
0.000000
0.000000
0.000000
0.000000
0.000000
0.000000
0.000000
0.000000
0.000000
0.000000
0.000000
-1.020214
-1.002765
-0.989151
-0.980456
-0.975908
-0.976593
-0.978342
-0.966146
-0.956386
-0.949801
-0.945905
-0.944230
-0.944479
-0.946465
-0.947564
-0.941083
-0.934410
-0.929380
-0.925836
-0.922835
-0.919760
-0.916749
-0.914047
-0.911822
-0.910156
-0.909069
-0.908548
-0.908560
-0.909061
-0.910007
-0.911347
-0.913035
-0.915026
-0.917275
-0.919741
-0.922385
-0.925173
-0.928071
-0.931049
-0.934080
-0.937141
-0.940210
-0.943272
-0.946310
-0.949314
-0.952275
-0.955190
-0.958054
-0.960871
-0.963642
-0.966374
-0.969077
-0.971759
-0.974434
-0.977115
-0.979814
-0.982543
-0.985309
-0.988111
-0.990927
-0.993701
-0.996305
-0.998483
-0.999771
-0.999538
-0.997695
-0.995351
-0.993469
-0.992549
-0.992753
-0.994071
-0.996417
-0.999635
-1.003350
-1.007524
-1.012067
-1.016909
-1.022021
-1.027395
-1.033030
-1.038932
-1.045097
-1.051508
-1.058123
-1.064873
-1.071693
-1.078620
-1.085833
-1.093444
-1.101204
-1.108612
-1.115127
-1.120780
3.117539
1.924073
0.644224
1.023205
0.000000
0.000000
0.000000
0.000000
0.000000
0.000000
0.000000
0.000000
0.000000
0.000000
0.000000
0.000000
0.000000
0.000000
0.000000
0.000000
0.000000
0.000000
0.000000
0.000000
0.000000
0.000000
0.000000
0.000000
0.000000
0.000000
0.000000
0.000000
0.000000
0.000000
0.000000
0.000000
0.000000
0.000000
0.000000
0.000000
0.000000
0.000000
0.000000
0.000000
0.000000
0.000000
0.000000
0.000000
0.000000
0.000000
0.000000
0.000000
0.000000
0.000000
0.000000
0.000000
0.000000
0.000000
0.000000
0.000000
0.000000
0.000000
0.000000
0.000000
0.000000
0.000000
0.000000
0.000000
0.000000
0.000000
0.000000
0.000000
0.000000
0.000000
0.000000
0.000000
0.000000
0.000000
0.000000
0.000000
0.000000
0.000000
0.000000
0.000000
0.000000
0.000000
0.000000
0.000000
0.000000
0.000000
0.000000
0.000000
0.000000
0.000000
0.000000
0.000000
0.000000
0.000000
0.000000
0.000000
0.000000
0.000000
-1.077298
-1.048277
-1.028419
-1.018055
-1.017550
-1.020214
-1.002765
-0.989151
-0.980456
-0.975909
-0.974844
-0.974358
-0.966371
-0.958133
-0.951872
-0.947859
-0.945827
-0.945326
-0.945548
-0.944614
-0.940372
-0.935259
-0.930712
-0.927003
-0.923802
-0.920811
-0.918025
-0.915561
-0.913532
-0.912007
-0.911013
-0.910546
-0.910583
-0.911089
-0.912021
-0.913337
-0.914991
-0.916940
-0.919142
-0.921555
-0.924144
-0.926872
-0.929707
-0.932619
-0.935583
-0.938573
-0.941571
-0.944558
-0.947521
-0.950447
-0.953330
-0.956163
-0.958946
-0.961678
-0.964363
-0.967008
-0.969619
-0.972205
-0.974778
-0.977348
-0.979922
-0.982507
-0.985100
-0.987686
-0.990226
-0.992647
-0.994813
-0.996512
-0.997458
-0.997402
-0.996428
-0.995099
-0.994022
-0.993608
-0.994067
-0.995462
-0.997772
-1.000762
-1.004271
-1.008290
-1.012708
-1.017458
-1.022499
-1.027813
-1.033389
-1.039223
-1.045305
-1.051614
-1.058117
-1.064772
-1.071554
-1.078488
-1.085634
-1.092962
-1.100242
-1.107084
-1.113068
-1.118219
1.637328
0.730608
0.644224
1.023205
0.445297
0.016592
0.229342
0.417929
0.000000
0.000000
0.000000
0.000000
0.000000
0.000000
0.000000
0.000000
0.000000
0.000000
0.000000
0.000000
0.000000
0.000000
0.000000
0.000000
0.000000
0.000000
0.000000
0.000000
0.000000
0.000000
0.000000
0.000000
0.000000
0.000000
0.000000
0.000000
0.000000
0.000000
0.000000
0.000000
0.000000
0.000000
0.000000
0.000000
0.000000
0.000000
0.000000
0.000000
0.000000
0.000000
0.000000
0.000000
0.000000
0.000000
0.000000
0.000000
0.000000
0.000000
0.000000
0.000000
0.000000
0.000000
0.000000
0.000000
0.000000
0.000000
0.000000
0.000000
0.000000
0.000000
0.000000
0.000000
0.000000
0.000000
0.000000
0.000000
0.000000
0.000000
0.000000
0.000000
0.000000
0.000000
0.000000
0.000000
0.000000
0.000000
0.000000
0.000000
0.000000
0.000000
0.000000
0.000000
0.000000
0.000000
0.000000
0.000000
-1.128666
-1.094894
-1.071395
-1.059068
-1.055454
-1.068098
-1.077299
-1.048277
-1.028419
-1.018056
-1.014887
-1.014483
-1.003330
-0.991969
-0.983589
-0.978364
-0.975353
-0.972313
-0.966399
-0.959881
-0.954370
-0.950414
-0.947949
-0.946562
-0.945511
-0.943706
-0.940379
-0.936343
-0.932402
-0.928882
-0.925750
-0.922907
-0.920343
-0.918117
-0.916297
-0.914934
-0.914054
-0.913658
-0.913728
-0.914237
-0.915149
-0.916426
-0.918026
-0.919908
-0.922032
-0.924361
-0.926858
-0.929488
-0.932220
-0.935026
-0.937879
-0.940756
-0.943638
-0.946507
-0.949349
-0.952155
-0.954915
-0.957626
-0.960285
-0.962892
-0.965452
-0.967970
-0.970452
-0.972906
-0.975340
-0.977763
-0.980178
-0.982585
-0.984975
-0.987326
-0.989594
-0.991706
-0.993550
-0.994979
-0.995839
-0.996047
-0.995711
-0.995159
-0.994775
-0.994871
-0.995635
-0.997154
-0.999433
-1.002246
-1.005641
-1.009528
-1.013824
-1.018467
-1.023414
-1.028639
-1.034125
-1.039859
-1.045824
-1.052001
-1.058361
-1.064875
-1.071524
-1.078302
-1.085195
-1.092113
-1.098849
-1.105097
-1.110530
-1.115207
0.940646
0.688263
0.607066
0.502984
-0.132610
0.016592
0.229342
0.417929
0.070729
-0.130995
0.031069
0.180369
0.000000
0.000000
0.000000
0.000000
0.000000
0.000000
0.000000
0.000000
0.000000
0.000000
0.000000
0.000000
0.000000
0.000000
0.000000
0.000000
0.000000
0.000000
0.000000
0.000000
0.000000
0.000000
0.000000
0.000000
0.000000
0.000000
0.000000
0.000000
0.000000
0.000000
0.000000
0.000000
0.000000
0.000000
0.000000
0.000000
0.000000
0.000000
0.000000
0.000000
0.000000
0.000000
0.000000
0.000000
0.000000
0.000000
0.000000
0.000000
0.000000
0.000000
0.000000
0.000000
0.000000
0.000000
0.000000
0.000000
0.000000
0.000000
0.000000
0.000000
0.000000
0.000000
0.000000
0.000000
0.000000
0.000000
0.000000
0.000000
0.000000
0.000000
0.000000
0.000000
0.000000
0.000000
0.000000
0.000000
0.000000
0.000000
0.000000
-1.208388
-1.157733
-1.125513
-1.111356
-1.119475
-1.128667
-1.094894
-1.071395
-1.059069
-1.055454
-1.058899
-1.064575
-1.048882
-1.033179
-1.022699
-1.016755
-1.011986
-1.003560
-0.994471
-0.986831
-0.981137
-0.976825
-0.972646
-0.967516
-0.962115
-0.957294
-0.953482
-0.950696
-0.948644
-0.946812
-0.944599
-0.941670
-0.938299
-0.934894
-0.931702
-0.928792
-0.926167
-0.923839
-0.921846
-0.920233
-0.919037
-0.918276
-0.917953
-0.918056
-0.918564
-0.919445
-0.920665
-0.922189
-0.923978
-0.925995
-0.928204
-0.930571
-0.933063
-0.935651
-0.938305
-0.941002
-0.943719
-0.946437
-0.949141
-0.951816
-0.954453
-0.957045
-0.959588
-0.962079
-0.964520
-0.966915
-0.969267
-0.971584
-0.973871
-0.976137
-0.978384
-0.980617
-0.982830
-0.985012
-0.987138
-0.989169
-0.991044
-0.992682
-0.993993
-0.994902
-0.995395
-0.995569
-0.995632
-0.995835
-0.996398
-0.997474
-0.999136
-1.001386
-1.004171
-1.007487
-1.011266
-1.015443
-1.019965
-1.024791
-1.029891
-1.035243
-1.040828
-1.046626
-1.052615
-1.058768
-1.065060
-1.071461
-1.077941
-1.084447
-1.090869
-1.097024
-1.102677
-1.107581
-1.111899
0.625236
0.549328
0.470477
0.350625
0.118809
0.115516
0.173156
0.110119
-0.276471
-0.130995
0.031069
0.180369
-0.121201
-0.292212
-0.147530
-0.007641
0.000000
0.000000
0.000000
0.000000
0.000000
0.000000
0.000000
0.000000
0.000000
0.000000
0.000000
0.000000
0.000000
0.000000
0.000000
0.000000
0.000000
0.000000
0.000000
0.000000
0.000000
0.000000
0.000000
0.000000
0.000000
0.000000
0.000000
0.000000
0.000000
0.000000
0.000000
0.000000
0.000000
0.000000
0.000000
0.000000
0.000000
0.000000
0.000000
0.000000
0.000000
0.000000
0.000000
0.000000
0.000000
0.000000
0.000000
0.000000
0.000000
0.000000
0.000000
0.000000
0.000000
0.000000
0.000000
0.000000
0.000000
0.000000
0.000000
0.000000
0.000000
0.000000
0.000000
0.000000
0.000000
0.000000
0.000000
0.000000
0.000000
-1.277527
-1.217648
-1.179222
-1.162006
-1.160130
-1.189100
-1.208388
-1.157733
-1.125514
-1.111356
-1.110284
-1.114966
-1.096097
-1.077522
-1.065567
-1.060081
-1.058873
-1.057150
-1.047414
-1.035884
-1.026261
-1.018937
-1.012396
-1.004877
-0.997133
-0.990166
-0.984346
-0.979421
-0.974788
-0.969992
-0.965226
-0.960884
-0.957215
-0.954240
-0.951775
-0.949504
-0.947092
-0.944366
-0.941413
-0.938432
-0.935583
-0.932952
-0.930578
-0.928491
-0.926723
-0.925305
-0.924266
-0.923617
-0.923363
-0.923494
-0.923991
-0.924829
-0.925978
-0.927405
-0.929077
-0.930959
-0.933018
-0.935222
-0.937539
-0.939942
-0.942404
-0.944901
-0.947414
-0.949923
-0.952415
-0.954876
-0.957299
-0.959678
-0.962008
-0.964289
-0.966523
-0.968713
-0.970864
-0.972983
-0.975074
-0.977145
-0.979199
-0.981236
-0.983252
-0.985235
-0.987164
-0.989006
-0.990717
-0.992244
-0.993537
-0.994564
-0.995338
-0.995939
-0.996505
-0.997202
-0.998183
-0.999560
-1.001391
-1.003675
-1.006487
-1.009762
-1.013455
-1.017520
-1.021911
-1.026590
-1.031528
-1.036699
-1.042081
-1.047650
-1.053383
-1.059252
-1.065229
-1.071276
-1.077348
-1.083374
-1.089246
-1.094811
-1.099886
-1.104292
-1.108303
0.453162
0.423701
0.368454
0.290563
0.183661
0.135829
0.111193
0.036770
-0.099685
-0.074758
-0.021635
-0.083266
-0.422772
-0.292212
-0.147530
-0.007641
-0.320786
-0.527382
-0.402355
-0.306555
-0.193977
0.000000
0.000000
0.000000
0.000000
0.000000
0.000000
0.000000
0.000000
0.000000
0.000000
0.000000
0.000000
0.000000
0.000000
0.000000
0.000000
0.000000
0.000000
0.000000
0.000000
0.000000
0.000000
0.000000
0.000000
0.000000
0.000000
0.000000
0.000000
0.000000
0.000000
0.000000
0.000000
0.000000
0.000000
0.000000
0.000000
0.000000
0.000000
0.000000
0.000000
0.000000
0.000000
0.000000
0.000000
0.000000
0.000000
0.000000
0.000000
0.000000
0.000000
0.000000
0.000000
0.000000
0.000000
0.000000
0.000000
0.000000
0.000000
-1.369309
-1.294627
-1.246278
-1.224353
-1.221405
-1.254940
-1.277527
-1.217649
-1.179223
-1.162006
-1.160131
-1.169812
-1.183536
-1.158464
-1.134035
-1.119398
-1.112869
-1.108190
-1.095619
-1.081827
-1.071085
-1.064143
-1.059627
-1.054758
-1.046876
-1.037715
-1.029086
-1.021502
-1.014470
-1.007370
-1.000379
-0.993912
-0.988171
-0.983057
-0.978300
-0.973696
-0.969293
-0.965253
-0.961698
-0.958633
-0.955944
-0.953444
-0.950947
-0.948349
-0.945675
-0.943017
-0.940475
-0.938120
-0.935997
-0.934140
-0.932579
-0.931339
-0.930441
-0.929893
-0.929698
-0.929847
-0.930325
-0.931110
-0.932176
-0.933493
-0.935031
-0.936758
-0.938644
-0.940659
-0.942773
-0.944960
-0.947196
-0.949459
-0.951729
-0.953991
-0.956231
-0.958439
-0.960607
-0.962731
-0.964809
-0.966841
-0.968830
-0.970781
-0.972699
-0.974590
-0.976461
-0.978318
-0.980164
-0.982001
-0.983824
-0.985624
-0.987385
-0.989084
-0.990692
-0.992176
-0.993511
-0.994689
-0.995732
-0.996700
-0.997688
-0.998807
-1.000161
-1.001831
-1.003858
-1.006247
-1.009106
-1.012367
-1.015998
-1.019959
-1.024216
-1.028732
-1.033478
-1.038427
-1.043556
-1.048839
-1.054252
-1.059766
-1.065349
-1.070960
-1.076549
-1.082042
-1.087342
-1.092325
-1.096851
-1.100789
-1.104500
0.343762
0.328585
0.291842
0.239736
0.175367
0.124657
0.080645
0.023544
-0.042338
-0.063667
-0.077542
-0.144723
-0.267374
-0.245019
-0.200048
-0.272081
-0.633931
-0.527382
-0.402355
-0.306555
-0.193977
-0.507143
-0.742681
-0.636443
-0.560137
-0.487586
-0.381153
0.000000
0.000000
0.000000
0.000000
0.000000
0.000000
0.000000
0.000000
0.000000
0.000000
0.000000
0.000000
0.000000
0.000000
0.000000
0.000000
0.000000
0.000000
0.000000
0.000000
0.000000
0.000000
0.000000
0.000000
0.000000
0.000000
0.000000
0.000000
0.000000
0.000000
0.000000
0.000000
0.000000
0.000000
0.000000
0.000000
0.000000
0.000000
0.000000
0.000000
0.000000
0.000000
0.000000
0.000000
0.000000
0.000000
-1.506016
-1.402294
-1.335303
-1.305091
-1.300434
-1.341356
-1.369309
-1.294628
-1.246278
-1.224353
-1.221405
-1.232353
-1.248092
-1.218399
-1.189559
-1.172805
-1.167183
-1.168501
-1.168637
-1.154612
-1.137702
-1.124325
-1.114925
-1.106612
-1.096021
-1.084880
-1.075188
-1.067548
-1.061289
-1.055033
-1.047703
-1.039729
-1.031883
-1.024520
-1.017550
-1.010785
-1.004276
-0.998189
-0.992620
-0.987533
-0.982809
-0.978356
-0.974176
-0.970329
-0.966863
-0.963768
-0.960975
-0.958373
-0.955855
-0.953357
-0.950881
-0.948470
-0.946183
-0.944072
-0.942176
-0.940527
-0.939150
-0.938067
-0.937291
-0.936830
-0.936684
-0.936844
-0.937298
-0.938025
-0.939002
-0.940203
-0.941600
-0.943164
-0.944865
-0.946676
-0.948571
-0.950524
-0.952512
-0.954516
-0.956519
-0.958505
-0.960463
-0.962386
-0.964267
-0.966104
-0.967897
-0.969647
-0.971361
-0.973042
-0.974699
-0.976339
-0.977969
-0.979596
-0.981225
-0.982858
-0.984494
-0.986127
-0.987747
-0.989339
-0.990886
-0.992370
-0.993781
-0.995121
-0.996413
-0.997702
-0.999052
-1.000538
-1.002231
-1.004185
-1.006432
-1.008982
-1.011899
-1.015175
-1.018766
-1.022640
-1.026766
-1.031112
-1.035650
-1.040351
-1.045192
-1.050147
-1.055192
-1.060299
-1.065435
-1.070561
-1.075627
-1.080567
-1.085300
-1.089727
-1.093742
-1.097244
-1.100665
0.264722
0.255215
0.230107
0.193327
0.148525
0.104742
0.061943
0.015864
-0.031065
-0.066293
-0.100820
-0.152444
-0.213323
-0.234573
-0.252851
-0.328637
-0.466708
-0.455084
-0.402219
-0.365842
-0.449199
-0.820309
-0.742681
-0.636443
-0.560137
-0.487586
-0.381153
-0.741058
-1.063702
-0.977508
-0.929967
-0.899424
-0.877335
-0.859433
-0.843019
-0.825892
-0.805682
-0.779002
-0.739540
-0.656915
0.000000
0.000000
0.000000
0.000000
0.000000
0.000000
0.000000
0.000000
0.000000
0.000000
0.000000
0.000000
0.000000
0.000000
0.000000
0.000000
0.000000
0.000000
0.000000
0.000000
0.000000
0.000000
0.000000
0.000000
0.000000
0.000000
-1.712432
-1.555753
-1.451995
-1.402656
-1.388948
-1.398576
-1.464887
-1.506016
-1.402294
-1.335303
-1.305091
-1.300434
-1.313404
-1.332113
-1.294837
-1.258549
-1.237311
-1.229827
-1.230836
-1.230632
-1.214097
-1.194622
-1.180127
-1.171835
-1.167313
-1.161926
-1.151265
-1.138466
-1.126621
-1.116484
-1.107077
-1.097253
-1.087441
-1.078449
-1.070593
-1.063568
-1.056735
-1.049606
-1.042251
-1.034971
-1.027964
-1.021259
-1.014821
-1.008680
-1.002906
-0.997541
-0.992575
-0.987957
-0.983641
-0.979618
-0.975904
-0.972512
-0.969426
-0.966599
-0.963967
-0.961465
-0.959054
-0.956727
-0.954507
-0.952426
-0.950520
-0.948819
-0.947350
-0.946133
-0.945185
-0.944515
-0.944128
-0.944023
-0.944192
-0.944621
-0.945293
-0.946185
-0.947274
-0.948532
-0.949933
-0.951451
-0.953057
-0.954728
-0.956440
-0.958172
-0.959906
-0.961626
-0.963319
-0.964977
-0.966594
-0.968166
-0.969692
-0.971175
-0.972620
-0.974034
-0.975423
-0.976797
-0.978165
-0.979538
-0.980922
-0.982326
-0.983753
-0.985206
-0.986684
-0.988180
-0.989689
-0.991201
-0.992709
-0.994210
-0.995711
-0.997230
-0.998802
-1.000469
-1.002280
-1.004281
-1.006510
-1.008990
-1.011730
-1.014738
-1.018053
-1.021629
-1.025438
-1.029448
-1.033629
-1.037955
-1.042398
-1.046934
-1.051540
-1.056192
-1.060864
-1.065528
-1.070148
-1.074683
-1.079078
-1.083268
-1.087177
-1.090725
-1.093830
-1.096989
0.203783
0.197177
0.179188
0.152082
0.118524
0.082384
0.044933
0.005844
-0.033775
-0.070884
-0.108619
-0.151640
-0.196555
-0.231989
-0.269363
-0.326140
-0.393114
-0.413481
-0.412519
-0.427438
-0.508534
-0.658683
-0.662796
-0.619531
-0.576609
-0.555016
-0.661734
-1.100963
-1.063702
-0.977508
-0.929967
-0.899424
-0.877335
-0.859434
-0.843019
-0.825892
-0.805683
-0.779002
-0.739540
-0.656916
-1.033214
-1.411788
-1.342539
-1.309909
-1.293589
-1.285960
-1.283597
-1.284734
-1.288367
-1.293895
-1.300946
-1.309298
-1.318828
-1.329464
-1.341251
-1.354132
-1.367726
-1.382231
-1.397865
-1.414912
-1.433775
-1.455039
-1.479607
-1.508985
-1.545977
-1.650339
-1.712432
-1.555753
-1.451995
-1.402656
-1.388948
-1.398576
-1.423759
-1.450427
-1.399696
-1.350156
-1.321191
-1.310519
-1.310777
-1.309591
-1.288499
-1.263964
-1.245682
-1.235088
-1.229222
-1.222630
-1.210256
-1.195910
-1.183431
-1.173975
-1.166478
-1.158735
-1.149049
-1.138231
-1.127579
-1.117629
-1.108164
-1.098838
-1.089766
-1.081254
-1.073434
-1.066169
-1.059163
-1.052183
-1.045209
-1.038347
-1.031699
-1.025308
-1.019185
-1.013356
-1.007854
-1.002701
-0.997893
-0.993408
-0.989222
-0.985326
-0.981718
-0.978395
-0.975340
-0.972522
-0.969901
-0.967437
-0.965106
-0.962900
-0.960830
-0.958915
-0.957178
-0.955642
-0.954327
-0.953247
-0.952416
-0.951839
-0.951520
-0.951454
-0.951633
-0.952044
-0.952669
-0.953487
-0.954475
-0.955607
-0.956859
-0.958202
-0.959613
-0.961068
-0.962543
-0.964021
-0.965483
-0.966917
-0.968312
-0.969661
-0.970960
-0.972208
-0.973409
-0.974566
-0.975688
-0.976783
-0.977861
-0.978936
-0.980017
-0.981118
-0.982249
-0.983420
-0.984638
-0.985909
-0.987237
-0.988620
-0.990058
-0.991548
-0.993089
-0.994681
-0.996333
-0.998060
-0.999884
-1.001832
-1.003936
-1.006224
-1.008717
-1.011428
-1.014363
-1.017519
-1.020892
-1.024482
-1.028249
-1.032164
-1.036198
-1.040322
-1.044511
-1.048743
-1.052995
-1.057248
-1.061480
-1.065668
-1.069786
-1.073802
-1.077675
-1.081359
-1.084797
-1.087928
-1.090689
-1.093632
0.155222
0.150337
0.136848
0.116081
0.089773
0.059945
0.027811
-0.006086
-0.041075
-0.076271
-0.112476
-0.150844
-0.190308
-0.228285
-0.268036
-0.313641
-0.359900
-0.391457
-0.415492
-0.448985
-0.508027
-0.581476
-0.608022
-0.606686
-0.604489
-0.629092
-0.731507
-0.923391
-0.959644
-0.938113
-0.912216
-0.890680
-0.873365
-0.858762
-0.845389
-0.832041
-0.818121
-0.805499
-0.807587
-0.936434
-1.409513
-1.411788
-1.342539
-1.309909
-1.293589
-1.285960
-1.283597
-1.284734
-1.288367
-1.293895
-1.300946
-1.309298
-1.318828
-1.329464
-1.341251
-1.354132
-1.367726
-1.382231
-1.397865
-1.414913
-1.433775
-1.455039
-1.479607
-1.508985
-1.545977
-1.588245
-1.619789
-1.543122
-1.468241
-1.423307
-1.404694
-1.403987
-1.411677
-1.412946
-1.385900
-1.353647
-1.329434
-1.315129