# vtk DataFile Version 3.0
Scalar Field
ASCII
DATASET RECTILINEAR_GRID
DIMENSIONS 200 50 1
X_COORDINATES 200 double
0.050000 0.150000 0.250000 0.350000 0.450000 0.550000 0.650000 0.750000 0.850000 0.950000 1.050000 1.150000 1.250000 1.350000 1.450000 1.550000 1.650000 1.750000 1.850000 1.950000 2.050000 2.150000 2.250000 2.350000 2.450000 2.550000 2.650000 2.750000 2.850000 2.950000 3.050000 3.150000 3.250000 3.350000 3.450000 3.550000 3.650000 3.750000 3.850000 3.950000 4.050000 4.150000 4.250000 4.350000 4.450000 4.550000 4.650000 4.750000 4.850000 4.950000 5.050000 5.150000 5.250000 5.350000 5.450000 5.550000 5.650000 5.750000 5.850000 5.950000 6.050000 6.150000 6.250000 6.350000 6.450000 6.550000 6.650000 6.750000 6.850000 6.950000 7.050000 7.150000 7.250000 7.350000 7.450000 7.550000 7.650000 7.750000 7.850000 7.950000 8.050000 8.150000 8.250000 8.350000 8.450000 8.550000 8.650000 8.750000 8.850000 8.950000 9.050000 9.150000 9.250000 9.350000 9.450000 9.550000 9.650000 9.750000 9.850000 9.950000 10.050000 10.150000 10.250000 10.350000 10.450000 10.550000 10.650000 10.750000 10.850000 10.950000 11.050000 11.150000 11.250000 11.350000 11.450000 11.550000 11.650000 11.750000 11.850000 11.950000 12.050000 12.150000 12.250000 12.350000 12.450000 12.550000 12.650000 12.750000 12.850000 12.950000 13.050000 13.150000 13.250000 13.350000 13.450000 13.550000 13.650000 13.750000 13.850000 13.950000 14.050000 14.150000 14.250000 14.350000 14.450000 14.550000 14.650000 14.750000 14.850000 14.950000 15.050000 15.150000 15.250000 15.350000 15.450000 15.550000 15.650000 15.750000 15.850000 15.950000 16.050000 16.150000 16.250000 16.350000 16.450000 16.550000 16.650000 16.750000 16.850000 16.950000 17.050000 17.150000 17.250000 17.350000 17.450000 17.550000 17.650000 17.750000 17.850000 17.950000 18.050000 18.150000 18.250000 18.350000 18.450000 18.550000 18.650000 18.750000 18.850000 18.950000 19.050000 19.150000 19.250000 19.350000 19.450000 19.550000 19.650000 19.750000 19.850000 19.950000 
Y_COORDINATES 50 double
0.050000 0.150000 0.250000 0.350000 0.450000 0.550000 0.650000 0.750000 0.850000 0.950000 1.050000 1.150000 1.250000 1.350000 1.450000 1.550000 1.650000 1.750000 1.850000 1.950000 2.050000 2.150000 2.250000 2.350000 2.450000 2.550000 2.650000 2.750000 2.850000 2.950000 3.050000 3.150000 3.250000 3.350000 3.450000 3.550000 3.650000 3.750000 3.850000 3.950000 4.050000 4.150000 4.250000 4.350000 4.450000 4.550000 4.650000 4.750000 4.850000 4.950000 
Z_COORDINATES 1 double
0.0
POINT_DATA 10000
SCALARS Skalarfeld double 1
LOOKUP_TABLE default
0.000000
0.000000
0.000000
0.000000
0.000000
0.000000
0.000000
0.000000
0.000000
0.000000
0.000000
0.000000
0.000000
0.000000
0.000000
0.000000
0.000000
0.000000
0.000000
0.000000
0.000000
0.000000
0.000000
0.000000
0.000000
0.000000
0.000000
0.000000
0.000000
0.000000
0.000000
0.000000
0.000000
0.000000
0.000000
0.000000
0.000000
0.000000
0.000000
0.000000
0.000000
0.000000
0.000000
0.000000
0.000000
0.000000
0.000000
0.000000
0.000000
0.000000
0.000000
0.000000
0.000000
0.000000
0.000000
0.000000
0.000000
0.000000
0.000000
0.000000
0.000000
0.000000
0.000000
0.000000
0.000000
0.000000
0.000000
0.000000
0.000000
0.000000
0.000000
0.000000
0.000000
0.000000
0.000000
0.000000
0.000000
0.000000
0.000000
0.000000
0.000000
0.000000
0.000000
0.000000
0.000000
0.000000
0.000000
0.000000
0.000000
0.000000
0.000000
0.000000
0.000000
0.000000
0.000000
0.000000
0.000000
0.000000
0.000000
0.000000
0.000000
0.000000
0.000000
0.000000
0.000000
0.000000
0.000000
0.000000
0.000000
0.000000
0.000000
0.000000
0.000000
0.000000
0.000000
0.000000
0.000000
0.000000
0.000000
0.000000
0.000000
0.000000
0.000000
0.000000
0.000000
0.000000
0.000000
0.000000
0.000000
0.000000
0.000000
0.000000
0.000000
0.000000
0.000000
0.000000
0.000000
0.000000
0.000000
0.000000
0.000000
0.000000
0.000000
0.000000
0.000000
0.000000
0.000000
0.000000
0.000000
0.000000
0.000000
0.000000
0.000000
0.000000
0.000000
0.000000
0.000000
0.000000
0.000000
0.000000
0.000000
0.000000
0.000000
0.000000
0.000000
0.000000
0.000000
0.000000
0.000000
0.000000
0.000000
0.000000
0.000000
0.000000
0.000000
0.000000
0.000000
0.000000
0.000000
0.000000
0.000000
0.000000
0.000000
0.000000
0.000000
0.000000
0.000000
0.000000
0.000000
0.000000
0.000000
0.000000
0.000000
-0.986931
-0.981100
-0.976601
-0.973514
-0.971468
-0.970228
-0.969826
0.000000
0.000000
0.000000
0.000000
0.000000
0.000000
0.000000
0.000000
0.000000
0.000000
0.000000
0.000000
0.000000
0.000000
0.000000
0.000000
0.000000
0.000000
0.000000
0.000000
0.000000
0.000000
0.000000
0.000000
0.000000
0.000000
0.000000
0.000000
0.000000
0.000000
0.000000
0.000000
0.000000
0.000000
0.000000
0.000000
0.000000
0.000000
0.000000
0.000000
0.000000
0.000000
0.000000
0.000000
0.000000
0.000000
0.000000
0.000000
0.000000
0.000000
0.000000
0.000000
0.000000
0.000000
0.000000
0.000000
0.000000
0.000000
0.000000
0.000000
0.000000
0.000000
0.000000
0.000000
0.000000
0.000000
0.000000
0.000000
0.000000
0.000000
0.000000
0.000000
0.000000
0.000000
0.000000
0.000000
0.000000
0.000000
0.000000
0.000000
0.000000
0.000000
0.000000
0.000000
0.000000
0.000000
0.000000
0.000000
0.000000
0.000000
0.000000
0.000000
0.000000
0.000000
0.000000
0.000000
0.000000
0.000000
0.000000
0.000000
0.000000
0.000000
0.000000
0.000000
0.000000
0.000000
0.000000
0.000000
0.000000
0.000000
0.000000
0.000000
0.000000
0.000000
0.000000
0.000000
0.000000
0.000000
0.000000
0.000000
0.000000
0.000000
0.000000
0.000000
0.000000
0.000000
0.000000
0.000000
0.000000
0.000000
0.000000
0.000000
0.000000
0.000000
0.000000
0.000000
0.000000
0.000000
0.000000
0.000000
0.000000
0.000000
0.000000
0.000000
0.000000
0.000000
0.000000
0.000000
0.000000
0.000000
0.000000
0.000000
0.000000
0.000000
0.000000
0.000000
0.000000
0.000000
0.000000
0.000000
0.000000
0.000000
0.000000
0.000000
0.000000
0.000000
0.000000
0.000000
0.000000
0.000000
0.000000
-1.032724
-1.016749
-1.003306
-0.993483
-0.986527
-0.981613
-0.978150
-0.975749
-0.974156
-0.973198
-0.972757
-0.972745
-0.973098
-0.973766
-0.974708
-0.975891
-0.977282
-0.978852
-0.980565
-0.982371
-0.984189
-0.986387
-0.986930
-0.981099
-0.976600
-0.973513
-0.971467
-0.970227
-0.969824
0.000000
0.000000
0.000000
0.000000
0.000000
0.000000
0.000000
0.000000
0.000000
0.000000
0.000000
0.000000
0.000000
0.000000
0.000000
0.000000
0.000000
0.000000
0.000000
0.000000
0.000000
0.000000
0.000000
0.000000
0.000000
0.000000
0.000000
0.000000
0.000000
0.000000
0.000000
0.000000
0.000000
0.000000
0.000000
0.000000
0.000000
0.000000
0.000000
0.000000
0.000000
0.000000
0.000000
0.000000
0.000000
0.000000
0.000000
0.000000
0.000000
0.000000
0.000000
0.000000
0.000000
0.000000
0.000000
0.000000
0.000000
0.000000
0.000000
0.000000
0.000000
0.000000
0.000000
0.000000
0.000000
0.000000
0.000000
0.000000
0.000000
0.000000
0.000000
0.000000
0.000000
0.000000
0.000000
0.000000
0.000000
0.000000
0.000000
0.000000
0.000000
0.000000
0.000000
0.000000
0.000000
0.000000
0.000000
0.000000
0.000000
0.000000
0.000000
0.000000
0.000000
0.000000
0.000000
0.000000
0.000000
0.000000
0.000000
0.000000
0.000000
0.000000
0.000000
0.000000
0.000000
0.000000
0.000000
0.000000
0.000000
0.000000
0.000000
0.000000
0.000000
0.000000
0.000000
0.000000
0.000000
0.000000
0.000000
0.000000
0.000000
0.000000
0.000000
0.000000
0.000000
0.000000
-0.922270
-0.914821
-0.907861
-0.902268
-0.898097
-0.895206
-0.893433
-0.892632
-0.892676
-0.893455
-0.894873
-0.896844
-0.899291
-0.902147
-0.905352
-0.908851
-0.912597
-0.916547
-0.920662
-0.924907
-0.929253
-0.933672
-0.938139
-0.942633
-0.947134
-0.951625
-0.956091
-0.960519
-0.964899
-0.969222
-0.973479
-0.977666
-0.981779
-0.985818
-0.989781
-0.993674
-0.997500
-1.001267
-1.004985
-1.008667
-1.012330
-1.015992
-1.019673
-1.023397
-1.029887
-1.032723
-1.016748
-1.003305
-0.993481
-0.986526
-0.981612
-0.978149
-0.975748
-0.974154
-0.973197
-0.972756
-0.972744
-0.973097
-0.973765
-0.974707
-0.975890
-0.977281
-0.978851
-0.980564
-0.982370
-0.984188
-0.985842
-0.984953
-0.980749
-0.976728
-0.973707
-0.971664
-0.970515
-0.970496
0.000000
0.000000
0.000000
0.000000
0.000000
0.000000
0.000000
0.000000
0.000000
0.000000
0.000000
0.000000
0.000000
0.000000
0.000000
0.000000
0.000000
0.000000
0.000000
0.000000
0.000000
0.000000
0.000000
0.000000
0.000000
0.000000
0.000000
0.000000
0.000000
0.000000
0.000000
0.000000
0.000000
0.000000
0.000000
0.000000
0.000000
0.000000
0.000000
0.000000
0.000000
0.000000
0.000000
0.000000
0.000000
0.000000
0.000000
0.000000
0.000000
0.000000
0.000000
0.000000
0.000000
0.000000
0.000000
0.000000
0.000000
0.000000
0.000000
0.000000
0.000000
0.000000
0.000000
0.000000
0.000000
0.000000
0.000000
0.000000
0.000000
0.000000
0.000000
0.000000
0.000000
0.000000
0.000000
0.000000
0.000000
0.000000
0.000000
0.000000
0.000000
0.000000
0.000000
0.000000
0.000000
0.000000
0.000000
0.000000
0.000000
0.000000
0.000000
0.000000
0.000000
0.000000
0.000000
0.000000
0.000000
0.000000
0.000000
0.000000
0.000000
0.000000
0.000000
0.000000
0.000000
0.000000
0.000000
0.000000
0.000000
0.000000
0.000000
0.000000
0.000000
0.000000
0.000000
0.000000
0.000000
0.000000
0.000000
0.000000
0.000000
-0.966871
-0.948407
-0.935309
-0.927642
-0.923053
-0.922270
-0.914820
-0.907860
-0.902267
-0.898097
-0.895206
-0.893433
-0.892631
-0.892676
-0.893455
-0.894873
-0.896843
-0.899290
-0.902146
-0.905351
-0.908850
-0.912596
-0.916546
-0.920661
-0.924907
-0.929253
-0.933671
-0.938138
-0.942632
-0.947133
-0.951624
-0.956090
-0.960519
-0.964899
-0.969221
-0.973478
-0.977665
-0.981778
-0.985817
-0.989781
-0.993673
-0.997499
-1.001266
-1.004984
-1.008666
-1.012329
-1.015991
-1.019672
-1.023396
-1.027049
-1.026451
-1.015693
-1.004236
-0.994888
-0.987867
-0.982752
-0.979087
-0.976518
-0.974790
-0.973726
-0.973198
-0.973114
-0.973405
-0.974017
-0.974907
-0.976036
-0.977365
-0.978852
-0.980436
-0.982011
-0.983371
-0.984045
-0.982996
-0.980138
-0.977006
-0.974427
-0.972684
-0.971927
-0.972627
0.000000
0.000000
0.000000
0.000000
0.000000
0.000000
0.000000
0.000000
0.000000
0.000000
0.000000
0.000000
0.000000
0.000000
0.000000
0.000000
0.000000
0.000000
0.000000
0.000000
0.000000
0.000000
0.000000
0.000000
0.000000
0.000000
0.000000
0.000000
0.000000
0.000000
0.000000
0.000000
0.000000
0.000000
0.000000
0.000000
0.000000
0.000000
0.000000
0.000000
0.000000
0.000000
0.000000
0.000000
0.000000
0.000000
0.000000
0.000000
0.000000
0.000000
0.000000
0.000000
0.000000
0.000000
0.000000
0.000000
0.000000
0.000000
0.000000
0.000000
0.000000
0.000000
0.000000
0.000000
0.000000
0.000000
0.000000
0.000000
0.000000
0.000000
0.000000
0.000000
0.000000
0.000000
0.000000
0.000000
0.000000
0.000000
0.000000
0.000000
0.000000
0.000000
0.000000
0.000000
0.000000
0.000000
0.000000
0.000000
0.000000
0.000000
0.000000
0.000000
0.000000
0.000000
0.000000
0.000000
0.000000
0.000000
0.000000
0.000000
0.000000
0.000000
0.000000
0.000000
0.000000
0.000000
0.000000
0.000000
0.000000
0.000000
0.000000
0.000000
0.000000
-0.994269
-0.975939
-0.962324
-0.954045
-0.949905
-0.948988
-0.950818
-0.961021
-0.966871
-0.948406
-0.935309
-0.927641
-0.923835
-0.920893
-0.914947
-0.908716
-0.903386
-0.899271
-0.896358
-0.894537
-0.893681
-0.893670
-0.894396
-0.895763
-0.897685
-0.900086
-0.902899
-0.906063
-0.909523
-0.913233
-0.917148
-0.921230
-0.925445
-0.929761
-0.934151
-0.938591
-0.943058
-0.947532
-0.951997
-0.956438
-0.960840
-0.965194
-0.969488
-0.973717
-0.977874
-0.981954
-0.985956
-0.989879
-0.993725
-0.997494
-1.001191
-1.004817
-1.008372
-1.011844
-1.015198
-1.018329
-1.020952
-1.022260
-1.020097
-1.012941
-1.004279
-0.996304
-0.989762
-0.984694
-0.980899
-0.978144
-0.976226
-0.974985
-0.974297
-0.974070
-0.974231
-0.974719
-0.975486
-0.976483
-0.977662
-0.978959
-0.980288
-0.981512
-0.982404
-0.982609
-0.981712
-0.979798
-0.977587
-0.975687
-0.974465
-0.974188
-0.975399
3.119127
0.000000
0.000000
0.000000
0.000000
0.000000
0.000000
0.000000
0.000000
0.000000
0.000000
0.000000
0.000000
0.000000
0.000000
0.000000
0.000000
0.000000
0.000000
0.000000
0.000000
0.000000
0.000000
0.000000
0.000000
0.000000
0.000000
0.000000
0.000000
0.000000
0.000000
0.000000
0.000000
0.000000
0.000000
0.000000
0.000000
0.000000
0.000000
0.000000
0.000000
0.000000
0.000000
0.000000
0.000000
0.000000
0.000000
0.000000
0.000000
0.000000
0.000000
0.000000
0.000000
0.000000
0.000000
0.000000
0.000000
0.000000
0.000000
0.000000
0.000000
0.000000
0.000000
0.000000
0.000000
0.000000
0.000000
0.000000
0.000000
0.000000
0.000000
0.000000
0.000000
0.000000
0.000000
0.000000
0.000000
0.000000
0.000000
0.000000
0.000000
0.000000
0.000000
0.000000
0.000000
0.000000
0.000000
0.000000
0.000000
0.000000
0.000000
0.000000
0.000000
0.000000
0.000000
0.000000
0.000000
0.000000
0.000000
0.000000
0.000000
0.000000
0.000000
0.000000
0.000000
0.000000
0.000000
-1.039235
-1.015858
-0.998848
-0.989069
-0.985029
-0.989970
-0.994269
-0.975938
-0.962324
-0.954044
-0.949904
-0.948987
-0.950818
-0.955171
-0.958621
-0.948360
-0.937832
-0.930222
-0.925132
-0.920804
-0.915548
-0.910129
-0.905302
-0.901428
-0.898598
-0.896777
-0.895879
-0.895804
-0.896456
-0.897744
-0.899586
-0.901908
-0.904641
-0.907727
-0.911112
-0.914748
-0.918591
-0.922604
-0.926750
-0.931000
-0.935325
-0.939700
-0.944103
-0.948515
-0.952916
-0.957293
-0.961630
-0.965917
-0.970142
-0.974298
-0.978378
-0.982375
-0.986287
-0.990110
-0.993841
-0.997475
-1.001009
-1.004429
-1.007713
-1.010814
-1.013638
-1.015998
-1.017531
-1.017575
-1.015180
-1.010050
-1.003592
-0.997141
-0.991430
-0.986718
-0.983005
-0.980191
-0.978147
-0.976755
-0.975909
-0.975524
-0.975528
-0.975861
-0.976465
-0.977287
-0.978267
-0.979332
-0.980386
-0.981293
-0.981875
-0.981917
-0.981264
-0.980018
-0.978568
-0.977327
-0.976623
-0.976724
-0.978061
3.119127
1.925209
0.645280
1.024208
0.000000
0.000000
0.000000
0.000000
0.000000
0.000000
0.000000
0.000000
0.000000
0.000000
0.000000
0.000000
0.000000
0.000000
0.000000
0.000000
0.000000
0.000000
0.000000
0.000000
0.000000
0.000000
0.000000
0.000000
0.000000
0.000000
0.000000
0.000000
0.000000
0.000000
0.000000
0.000000
0.000000
0.000000
0.000000
0.000000
0.000000
0.000000
0.000000
0.000000
0.000000
0.000000
0.000000
0.000000
0.000000
0.000000
0.000000
0.000000
0.000000
0.000000
0.000000
0.000000
0.000000
0.000000
0.000000
0.000000
0.000000
0.000000
0.000000
0.000000
0.000000
0.000000
0.000000
0.000000
0.000000
0.000000
0.000000
0.000000
0.000000
0.000000
0.000000
0.000000
0.000000
0.000000
0.000000
0.000000
0.000000
0.000000
0.000000
0.000000
0.000000
0.000000
0.000000
0.000000
0.000000
0.000000
0.000000
0.000000
0.000000
0.000000
0.000000
0.000000
0.000000
0.000000
0.000000
0.000000
0.000000
0.000000
-1.099905
-1.064361
-1.041255
-1.030426
-1.033943
-1.039234
-1.015858
-0.998848
-0.989069
-0.985029
-0.985671
-0.987323
-0.976452
-0.965389
-0.957538
-0.953092
-0.951508
-0.952063
-0.953561
-0.953187
-0.947055
-0.939373
-0.932586
-0.927092
-0.922229
-0.917309
-0.912507
-0.908203
-0.904668
-0.902018
-0.900264
-0.899361
-0.899236
-0.899810
-0.901003
-0.902739
-0.904948
-0.907566
-0.910535
-0.913803
-0.917322
-0.921050
-0.924948
-0.928982
-0.933120
-0.937334
-0.941600
-0.945894
-0.950196
-0.954488
-0.958754
-0.962978
-0.967150
-0.971256
-0.975289
-0.979238
-0.983098
-0.986862
-0.990522
-0.994072
-0.997500
-1.000792
-1.003923
-1.006852
-1.009507
-1.011772
-1.013450
-1.014237
-1.013721
-1.011503
-1.007594
-1.002669
-0.997515
-0.992697
-0.988510
-0.985057
-0.982331
-0.980271
-0.978803
-0.977848
-0.977335
-0.977198
-0.977380
-0.977821
-0.978465
-0.979248
-0.980094
-0.980914
-0.981594
-0.982006
-0.982032
-0.981618
-0.980854
-0.979971
-0.979245
-0.978925
-0.979216
-0.980482
1.638263
0.731290
0.645280
1.024208
0.446192
0.017586
0.230331
0.418902
0.000000
0.000000
0.000000
0.000000
0.000000
0.000000
0.000000
0.000000
0.000000
0.000000
0.000000
0.000000
0.000000
0.000000
0.000000
0.000000
0.000000
0.000000
0.000000
0.000000
0.000000
0.000000
0.000000
0.000000
0.000000
0.000000
0.000000
0.000000
0.000000
0.000000
0.000000
0.000000
0.000000
0.000000
0.000000
0.000000
0.000000
0.000000
0.000000
0.000000
0.000000
0.000000
0.000000
0.000000
0.000000
0.000000
0.000000
0.000000
0.000000
0.000000
0.000000
0.000000
0.000000
0.000000
0.000000
0.000000
0.000000
0.000000
0.000000
0.000000
0.000000
0.000000
0.000000
0.000000
0.000000
0.000000
0.000000
0.000000
0.000000
0.000000
0.000000
0.000000
0.000000
0.000000
0.000000
0.000000
0.000000
0.000000
0.000000
0.000000
0.000000
0.000000
0.000000
0.000000
0.000000
0.000000
0.000000
0.000000
-1.148364
-1.109278
-1.083238
-1.070708
-1.068473
-1.087196
-1.099905
-1.064361
-1.041255
-1.030426
-1.028652
-1.030554
-1.016797
-1.003038
-0.993581
-0.988432
-0.986178
-0.983653
-0.976385
-0.968131
-0.961396
-0.956932
-0.954573
-0.953663
-0.953084
-0.951172
-0.946618
-0.940778
-0.934983
-0.929734
-0.924924
-0.920340
-0.916039
-0.912215
-0.909043
-0.906625
-0.904991
-0.904121
-0.903967
-0.904469
-0.905560
-0.907173
-0.909245
-0.911717
-0.914534
-0.917646
-0.921008
-0.924577
-0.928317
-0.932193
-0.936173
-0.940231
-0.944339
-0.948476
-0.952620
-0.956753
-0.960858
-0.964919
-0.968923
-0.972858
-0.976713
-0.980478
-0.984144
-0.987701
-0.991139
-0.994447
-0.997608
-1.000600
-1.003390
-1.005926
-1.008131
-1.009890
-1.011041
-1.011367
-1.010637
-1.008692
-1.005612
-1.001774
-0.997655
-0.993659
-0.990047
-0.986955
-0.984426
-0.982450
-0.980988
-0.979989
-0.979398
-0.979159
-0.979220
-0.979525
-0.980017
-0.980635
-0.981307
-0.981956
-0.982493
-0.982831
-0.982903
-0.982696
-0.982277
-0.981793
-0.981422
-0.981337
-0.981673
-0.982703
0.941575
0.689170
0.608012
0.503846
-0.131823
0.017586
0.230331
0.418902
0.071645
-0.130016
0.032048
0.181334
0.000000
0.000000
0.000000
0.000000
0.000000
0.000000
0.000000
0.000000
0.000000
0.000000
0.000000
0.000000
0.000000
0.000000
0.000000
0.000000
0.000000
0.000000
0.000000
0.000000
0.000000
0.000000
0.000000
0.000000
0.000000
0.000000
0.000000
0.000000
0.000000
0.000000
0.000000
0.000000
0.000000
0.000000
0.000000
0.000000
0.000000
0.000000
0.000000
0.000000
0.000000
0.000000
0.000000
0.000000
0.000000
0.000000
0.000000
0.000000
0.000000
0.000000
0.000000
0.000000
0.000000
0.000000
0.000000
0.000000
0.000000
0.000000
0.000000
0.000000
0.000000
0.000000
0.000000
0.000000
0.000000
0.000000
0.000000
0.000000
0.000000
0.000000
0.000000
0.000000
0.000000
0.000000
0.000000
0.000000
0.000000
0.000000
0.000000
-1.228373
-1.172228
-1.137597
-1.123572
-1.136322
-1.148364
-1.109278
-1.083238
-1.070708
-1.068473
-1.074487
-1.083344
-1.065221
-1.047419
-1.036301
-1.030798
-1.026551
-1.016962
-1.006450
-0.997933
-0.991995
-0.987780
-0.983504
-0.977552
-0.971058
-0.965336
-0.961011
-0.958074
-0.956068
-0.954216
-0.951603
-0.947691
-0.942932
-0.937984
-0.933231
-0.928766
-0.924580
-0.920734
-0.917343
-0.914523
-0.912352
-0.910862
-0.910050
-0.909885
-0.910323
-0.911310
-0.912790
-0.914708
-0.917011
-0.919648
-0.922574
-0.925744
-0.929119
-0.932662
-0.936340
-0.940121
-0.943979
-0.947887
-0.951823
-0.955764
-0.959691
-0.963588
-0.967437
-0.971225
-0.974939
-0.978566
-0.982095
-0.985515
-0.988814
-0.991980
-0.994997
-0.997846
-1.000500
-1.002923
-1.005062
-1.006846
-1.008179
-1.008939
-1.008987
-1.008200
-1.006527
-1.004052
-1.001011
-0.997705
-0.994418
-0.991362
-0.988669
-0.986404
-0.984585
-0.983201
-0.982222
-0.981610
-0.981320
-0.981306
-0.981518
-0.981904
-0.982406
-0.982962
-0.983505
-0.983970
-0.984294
-0.984439
-0.984401
-0.984229
-0.984012
-0.983864
-0.983891
-0.984172
-0.984852
0.626157
0.550244
0.471399
0.351533
0.119724
0.116469
0.174109
0.111022
-0.275611
-0.130016
0.032048
0.181334
-0.120276
-0.291225
-0.146544
-0.006671
0.000000
0.000000
0.000000
0.000000
0.000000
0.000000
0.000000
0.000000
0.000000
0.000000
0.000000
0.000000
0.000000
0.000000
0.000000
0.000000
0.000000
0.000000
0.000000
0.000000
0.000000
0.000000
0.000000
0.000000
0.000000
0.000000
0.000000
0.000000
0.000000
0.000000
0.000000
0.000000
0.000000
0.000000
0.000000
0.000000
0.000000
0.000000
0.000000
0.000000
0.000000
0.000000
0.000000
0.000000
0.000000
0.000000
0.000000
0.000000
0.000000
0.000000
0.000000
0.000000
0.000000
0.000000
0.000000
0.000000
0.000000
0.000000
0.000000
0.000000
0.000000
0.000000
0.000000
0.000000
0.000000
0.000000
0.000000
0.000000
0.000000
-1.293677
-1.229191
-1.188738
-1.171604
-1.171192
-1.205842
-1.228372
-1.172228
-1.137597
-1.123572
-1.124279
-1.131596
-1.110791
-1.090638
-1.078436
-1.073822
-1.074135
-1.073683
-1.063249
-1.050680
-1.040503
-1.033089
-1.026437
-1.018220
-1.009589
-1.001933
-0.995721
-0.990562
-0.985595
-0.980175
-0.974640
-0.969600
-0.965425
-0.962132
-0.959437
-0.956861
-0.953903
-0.950294
-0.946185
-0.941892
-0.937667
-0.933641
-0.929882
-0.926459
-0.923459
-0.920963
-0.919029
-0.917688
-0.916943
-0.916777
-0.917156
-0.918040
-0.919383
-0.921138
-0.923258
-0.925699
-0.928417
-0.931371
-0.934525
-0.937844
-0.941294
-0.944845
-0.948470
-0.952144
-0.955842
-0.959544
-0.963228
-0.966878
-0.970477
-0.974009
-0.977460
-0.980817
-0.984068
-0.987201
-0.990202
-0.993056
-0.995748
-0.998256
-1.000554
-1.002604
-1.004362
-1.005767
-1.006746
-1.007215
-1.007090
-1.006312
-1.004874
-1.002853
-1.000407
-0.997737
-0.995042
-0.992488
-0.990189
-0.988215
-0.986600
-0.985348
-0.984445
-0.983867
-0.983579
-0.983542
-0.983714
-0.984046
-0.984489
-0.984988
-0.985489
-0.985938
-0.986291
-0.986520
-0.986623
-0.986627
-0.986587
-0.986565
-0.986622
-0.986793
-0.987065
0.454080
0.424618
0.369373
0.291482
0.184586
0.136766
0.112129
0.037695
-0.098757
-0.073803
-0.020682
-0.082353
-0.421886
-0.291225
-0.146544
-0.006671
-0.319850
-0.526373
-0.401350
-0.305547
-0.192986
0.000000
0.000000
0.000000
0.000000
0.000000
0.000000
0.000000
0.000000
0.000000
0.000000
0.000000
0.000000
0.000000
0.000000
0.000000
0.000000
0.000000
0.000000
0.000000
0.000000
0.000000
0.000000
0.000000
0.000000
0.000000
0.000000
0.000000
0.000000
0.000000
0.000000
0.000000
0.000000
0.000000
0.000000
0.000000
0.000000
0.000000
0.000000
0.000000
0.000000
0.000000
0.000000
0.000000
0.000000
0.000000
0.000000
0.000000
0.000000
0.000000
0.000000
0.000000
0.000000
0.000000
0.000000
0.000000
0.000000
0.000000
0.000000
-1.382390
-1.303699
-1.253576
-1.231717
-1.230030
-1.268362
-1.293677
-1.229190
-1.188738
-1.171604
-1.171192
-1.183311
-1.199969
-1.173107
-1.147282
-1.132579
-1.126934
-1.123204
-1.110092
-1.095612
-1.084742
-1.078277
-1.074543
-1.070237
-1.062160
-1.052497
-1.043453
-1.035598
-1.028258
-1.020634
-1.013016
-1.005985
-0.999805
-0.994317
-0.989139
-0.983995
-0.978979
-0.974351
-0.970293
-0.966808
-0.963725
-0.960763
-0.957644
-0.954218
-0.950528
-0.946727
-0.942972
-0.939378
-0.936027
-0.932989
-0.930334
-0.928123
-0.926404
-0.925201
-0.924522
-0.924356
-0.924682
-0.925466
-0.926673
-0.928263
-0.930197
-0.932433
-0.934934
-0.937662
-0.940582
-0.943660
-0.946865
-0.950168
-0.953541
-0.956959
-0.960397
-0.963835
-0.967252
-0.970629
-0.973949
-0.977196
-0.980356
-0.983415
-0.986360
-0.989176
-0.991852
-0.994372
-0.996719
-0.998873
-1.000810
-1.002497
-1.003897
-1.004963
-1.005644
-1.005886
-1.005642
-1.004888
-1.003638
-1.001958
-0.999958
-0.997780
-0.995568
-0.993447
-0.991513
-0.989832
-0.988441
-0.987356
-0.986571
-0.986073
-0.985836
-0.985827
-0.986011
-0.986346
-0.986786
-0.987286
-0.987798
-0.988279
-0.988693
-0.989016
-0.989241
-0.989380
-0.989459
-0.989508
-0.989553
-0.989597
-0.989474
0.344680
0.329503
0.292762
0.240657
0.176292
0.125587
0.081576
0.024475
-0.041403
-0.062724
-0.076599
-0.143788
-0.266434
-0.244054
-0.199085
-0.271158
-0.633029
-0.526373
-0.401350
-0.305547
-0.192986
-0.506178
-0.741629
-0.635398
-0.559091
-0.486535
-0.380122
0.000000
0.000000
0.000000
0.000000
0.000000
0.000000
0.000000
0.000000
0.000000
0.000000
0.000000
0.000000
0.000000
0.000000
0.000000
0.000000
0.000000
0.000000
0.000000
0.000000
0.000000
0.000000
0.000000
0.000000
0.000000
0.000000
0.000000
0.000000
0.000000
0.000000
0.000000
0.000000
0.000000
0.000000
0.000000
0.000000
0.000000
0.000000
0.000000
0.000000
0.000000
0.000000
0.000000
0.000000
0.000000
0.000000
-1.516892
-1.409526
-1.340886
-1.310683
-1.307093
-1.352102
-1.382390
-1.303699
-1.253576
-1.231717
-1.230030
-1.243048
-1.261239
-1.230067
-1.200095
-1.183375
-1.178737
-1.181570
-1.183006
-1.168690
-1.151278
-1.137863
-1.128840
-1.120897
-1.110190
-1.098814
-1.089100
-1.081717
-1.075844
-1.069845
-1.062448
-1.054204
-1.046049
-1.038386
-1.031074
-1.023871
-1.016868
-1.010299
-1.004290
-0.998784
-0.993617
-0.988667
-0.983951
-0.979572
-0.975603
-0.972032
-0.968755
-0.965608
-0.962434
-0.959145
-0.955749
-0.952320
-0.948954
-0.945739
-0.942748
-0.940044
-0.937684
-0.935718
-0.934183
-0.933100
-0.932479
-0.932313
-0.932588
-0.933278
-0.934356
-0.935788
-0.937539
-0.939576
-0.941862
-0.944365
-0.947050
-0.949886
-0.952843
-0.955892
-0.959006
-0.962160
-0.965331
-0.968495
-0.971632
-0.974723
-0.977751
-0.980699
-0.983553
-0.986297
-0.988919
-0.991406
-0.993744
-0.995919
-0.997915
-0.999714
-1.001296
-1.002634
-1.003701
-1.004462
-1.004885
-1.004937
-1.004596
-1.003857
-1.002745
-1.001313
-0.999645
-0.997844
-0.996015
-0.994255
-0.992644
-0.991238
-0.990075
-0.989174
-0.988536
-0.988154
-0.988009
-0.988075
-0.988319
-0.988706
-0.989196
-0.989748
-0.990319
-0.990873
-0.991376
-0.991805
-0.992147
-0.992400
-0.992571
-0.992666
-0.992688
-0.992620
-0.992170
0.265641
0.256134
0.231027
0.194249
0.149449
0.105669
0.062872
0.016795
-0.030131
-0.065355
-0.099880
-0.151504
-0.212377
-0.233618
-0.251896
-0.327689
-0.465750
-0.454097
-0.401224
-0.364852
-0.448247
-0.819369
-0.741629
-0.635398
-0.559091
-0.486534
-0.380122
-0.740053
-1.062587
-0.976404
-0.928865
-0.898321
-0.876231
-0.858327
-0.841910
-0.824780
-0.804567
-0.777881
-0.738405
-0.655770
0.000000
0.000000
0.000000
0.000000
0.000000
0.000000
0.000000
0.000000
0.000000
0.000000
0.000000
0.000000
0.000000
0.000000
0.000000
0.000000
0.000000
0.000000
0.000000
0.000000
0.000000
0.000000
0.000000
0.000000
0.000000
0.000000
-1.720583
-1.560769
-1.455487
-1.405990
-1.392927
-1.403749
-1.473695
-1.516892
-1.409526
-1.340886
-1.310683
-1.307093
-1.321814
-1.342570
-1.303996
-1.266717
-1.245504
-1.238865
-1.241166
-1.242069
-1.225337
-1.205534
-1.191178
-1.183523
-1.179888
-1.175218
-1.164693
-1.151827
-1.140029
-1.130084
-1.120855
-1.111048
-1.101193
-1.092233
-1.084521
-1.077685
-1.070964
-1.063790
-1.056260
-1.048739
-1.041455
-1.034427
-1.027612
-1.021055
-1.014855
-1.009072
-1.003687
-0.998631
-0.993847
-0.989332
-0.985117
-0.981225
-0.977635
-0.974280
-0.971066
-0.967901
-0.964732
-0.961556
-0.958411
-0.955357
-0.952456
-0.949766
-0.947341
-0.945227
-0.943464
-0.942082
-0.941100
-0.940527
-0.940360
-0.940589
-0.941194
-0.942154
-0.943440
-0.945023
-0.946873
-0.948957
-0.951246
-0.953707
-0.956311
-0.959029
-0.961832
-0.964694
-0.967589
-0.970495
-0.973387
-0.976246
-0.979051
-0.981785
-0.984432
-0.986976
-0.989403
-0.991699
-0.993853
-0.995851
-0.997681
-0.999329
-1.000781
-1.002020
-1.003027
-1.003783
-1.004265
-1.004454
-1.004334
-1.003899
-1.003156
-1.002131
-1.000872
-0.999443
-0.997923
-0.996393
-0.994927
-0.993590
-0.992433
-0.991488
-0.990776
-0.990302
-0.990061
-0.990041
-0.990218
-0.990565
-0.991049
-0.991635
-0.992284
-0.992958
-0.993620
-0.994240
-0.994791
-0.995254
-0.995617
-0.995873
-0.996014
-0.996025
-0.995881
-0.995209
0.204702
0.198096
0.180108
0.153004
0.119447
0.083309
0.045860
0.006774
-0.032842
-0.069948
-0.107680
-0.150698
-0.195609
-0.231038
-0.268408
-0.325183
-0.392149
-0.412502
-0.411533
-0.426453
-0.507554
-0.657690
-0.661769
-0.618494
-0.575569
-0.553982
-0.660744
-1.099984
-1.062587
-0.976404
-0.928865
-0.898321
-0.876231
-0.858327
-0.841910
-0.824780
-0.804567
-0.777881
-0.738405
-0.655770
-1.032229
-1.410878
-1.341660
-1.309070
-1.292799
-1.285229
-1.282934
-1.284149
-1.287873
-1.293503
-1.300672
-1.309157
-1.318839
-1.329640
-1.341632
-1.354607
-1.368330
-1.382997
-1.398827
-1.416116
-1.435276
-1.456912
-1.481954
-1.511958
-1.549820
-1.656860
-1.720583
-1.560769
-1.455487
-1.405990
-1.392927
-1.403749
-1.430497
-1.458845
-1.406919
-1.356461
-1.327481
-1.317504
-1.318830
-1.318546
-1.297260
-1.272434
-1.254273
-1.244230
-1.239133
-1.233183
-1.220998
-1.206721
-1.194475
-1.185474
-1.178539
-1.171269
-1.161824
-1.151118
-1.140576
-1.130767
-1.121428
-1.112165
-1.103127
-1.094668
-1.086937
-1.079764
-1.072800
-1.065773
-1.058666
-1.051608
-1.044717
-1.038039
-1.031588
-1.025399
-1.019518
-1.013976
-1.008768
-1.003864
-0.999238
-0.994879
-0.990793
-0.986977
-0.983410
-0.980050
-0.976837
-0.973718
-0.970660
-0.967659
-0.964736
-0.961929
-0.959282
-0.956838
-0.954641
-0.952728
-0.951131
-0.949876
-0.948977
-0.948444
-0.948276
-0.948465
-0.948998
-0.949854
-0.951012
-0.952446
-0.954129
-0.956032
-0.958127
-0.960384
-0.962775
-0.965271
-0.967845
-0.970470
-0.973122
-0.975775
-0.978408
-0.980998
-0.983527
-0.985976
-0.988328
-0.990568
-0.992682
-0.994658
-0.996484
-0.998148
-0.999641
-1.000950
-1.002066
-1.002976
-1.003668
-1.004130
-1.004350
-1.004319
-1.004034
-1.003497
-1.002723
-1.001740
-1.000590
-0.999325
-0.998009
-0.996703
-0.995470
-0.994362
-0.993422
-0.992679
-0.992153
-0.991851
-0.991770
-0.991899
-0.992219
-0.992704
-0.993325
-0.994047
-0.994834
-0.995648
-0.996454
-0.997218
-0.997911
-0.998508
-0.998991
-0.999340
-0.999540
-0.999567
-0.999391
-0.998615
0.156140
0.151256
0.137767
0.117001
0.090695
0.060868
0.028737
-0.005157
-0.040143
-0.075337
-0.111538
-0.149903
-0.189363
-0.227335
-0.267082
-0.312682
-0.358934
-0.390481
-0.414510
-0.447999
-0.507037
-0.580475
-0.607003
-0.605657
-0.603455
-0.628060
-0.730480
-0.922347
-0.958558
-0.937017
-0.911115
-0.889576
-0.872260
-0.857654
-0.844279
-0.830930
-0.817008
-0.804386
-0.806485
-0.935416
-1.408688
-1.410878
-1.341660
-1.309070
-1.292799
-1.285229
-1.282934
-1.284149
-1.287873
-1.293503
-1.300672
-1.309157
-1.318839
-1.329640
-1.341632
-1.354607
-1.368330
-1.382997
-1.398827
-1.416116
-1.435276
-1.456912
-1.481954
-1.511958
-1.549820
-1.593138
-1.625743
-1.547988
-1.472257
-1.427207
-1.409048
-1.409173
-1.417849
-1.419870
-1.392635
-1.360114
-1.335984
-1.322125