# vtk DataFile Version 3.0
Scalar Field
ASCII
DATASET RECTILINEAR_GRID
DIMENSIONS 200 50 1
X_COORDINATES 200 double
0.050000 0.150000 0.250000 0.350000 0.450000 0.550000 0.650000 0.750000 0.850000 0.950000 1.050000 1.150000 1.250000 1.350000 1.450000 1.550000 1.650000 1.750000 1.850000 1.950000 2.050000 2.150000 2.250000 2.350000 2.450000 2.550000 2.650000 2.750000 2.850000 2.950000 3.050000 3.150000 3.250000 3.350000 3.450000 3.550000 3.650000 3.750000 3.850000 3.950000 4.050000 4.150000 4.250000 4.350000 4.450000 4.550000 4.650000 4.750000 4.850000 4.950000 5.050000 5.150000 5.250000 5.350000 5.450000 5.550000 5.650000 5.750000 5.850000 5.950000 6.050000 6.150000 6.250000 6.350000 6.450000 6.550000 6.650000 6.750000 6.850000 6.950000 7.050000 7.150000 7.250000 7.350000 7.450000 7.550000 7.650000 7.750000 7.850000 7.950000 8.050000 8.150000 8.250000 8.350000 8.450000 8.550000 8.650000 8.750000 8.850000 8.950000 9.050000 9.150000 9.250000 9.350000 9.450000 9.550000 9.650000 9.750000 9.850000 9.950000 10.050000 10.150000 10.250000 10.350000 10.450000 10.550000 10.650000 10.750000 10.850000 10.950000 11.050000 11.150000 11.250000 11.350000 11.450000 11.550000 11.650000 11.750000 11.850000 11.950000 12.050000 12.150000 12.250000 12.350000 12.450000 12.550000 12.650000 12.750000 12.850000 12.950000 13.050000 13.150000 13.250000 13.350000 13.450000 13.550000 13.650000 13.750000 13.850000 13.950000 14.050000 14.150000 14.250000 14.350000 14.450000 14.550000 14.650000 14.750000 14.850000 14.950000 15.050000 15.150000 15.250000 15.350000 15.450000 15.550000 15.650000 15.750000 15.850000 15.950000 16.050000 16.150000 16.250000 16.350000 16.450000 16.550000 16.650000 16.750000 16.850000 16.950000 17.050000 17.150000 17.250000 17.350000 17.450000 17.550000 17.650000 17.750000 17.850000 17.950000 18.050000 18.150000 18.250000 18.350000 18.450000 18.550000 18.650000 18.750000 18.850000 18.950000 19.050000 19.150000 19.250000 19.350000 19.450000 19.550000 19.650000 19.750000 19.850000 19.950000 
Y_COORDINATES 50 double
0.050000 0.150000 0.250000 0.350000 0.450000 0.550000 0.650000 0.750000 0.850000 0.950000 1.050000 1.150000 1.250000 1.350000 1.450000 1.550000 1.650000 1.750000 1.850000 1.950000 2.050000 2.150000 2.250000 2.350000 2.450000 2.550000 2.650000 2.750000 2.850000 2.950000 3.050000 3.150000 3.250000 3.350000 3.450000 3.550000 3.650000 3.750000 3.850000 3.950000 4.050000 4.150000 4.250000 4.350000 4.450000 4.550000 4.650000 4.750000 4.850000 4.950000 
Z_COORDINATES 1 double
0.0
POINT_DATA 10000
SCALARS Skalarfeld double 1
LOOKUP_TABLE default
0.000000
0.000000
0.000000
0.000000
0.000000
0.000000
0.000000
0.000000
0.000000
0.000000
0.000000
0.000000
0.000000
0.000000
0.000000
0.000000
0.000000
0.000000
0.000000
0.000000
0.000000
0.000000
0.000000
0.000000
0.000000
0.000000
0.000000
0.000000
0.000000
0.000000
0.000000
0.000000
0.000000
0.000000
0.000000
0.000000
0.000000
0.000000
0.000000
0.000000
0.000000
0.000000
0.000000
0.000000
0.000000
0.000000
0.000000
0.000000
0.000000
0.000000
0.000000
0.000000
0.000000
0.000000
0.000000
0.000000
0.000000
0.000000
0.000000
0.000000
0.000000
0.000000
0.000000
0.000000
0.000000
0.000000
0.000000
0.000000
0.000000
0.000000
0.000000
0.000000
0.000000
0.000000
0.000000
0.000000
0.000000
0.000000
0.000000
0.000000
0.000000
0.000000
0.000000
0.000000
0.000000
0.000000
0.000000
0.000000
0.000000
0.000000
0.000000
0.000000
0.000000
0.000000
0.000000
0.000000
0.000000
0.000000
0.000000
0.000000
0.000000
0.000000
0.000000
0.000000
0.000000
0.000000
0.000000
0.000000
0.000000
0.000000
0.000000
0.000000
0.000000
0.000000
0.000000
0.000000
0.000000
0.000000
0.000000
0.000000
0.000000
0.000000
0.000000
0.000000
0.000000
0.000000
0.000000
0.000000
0.000000
0.000000
0.000000
0.000000
0.000000
0.000000
0.000000
0.000000
0.000000
0.000000
0.000000
0.000000
0.000000
0.000000
0.000000
0.000000
0.000000
0.000000
0.000000
0.000000
0.000000
0.000000
0.000000
0.000000
0.000000
0.000000
0.000000
0.000000
0.000000
0.000000
0.000000
0.000000
0.000000
0.000000
0.000000
0.000000
0.000000
0.000000
0.000000
0.000000
0.000000
0.000000
0.000000
0.000000
0.000000
0.000000
0.000000
0.000000
0.000000
0.000000
0.000000
0.000000
0.000000
0.000000
0.000000
0.000000
0.000000
0.000000
0.000000
0.000000
0.000000
0.000000
0.000000
0.000000
0.000000
-0.974955
-0.971968
-0.967753
-0.962952
-0.958232
-0.953968
-0.950393
0.000000
0.000000
0.000000
0.000000
0.000000
0.000000
0.000000
0.000000
0.000000
0.000000
0.000000
0.000000
0.000000
0.000000
0.000000
0.000000
0.000000
0.000000
0.000000
0.000000
0.000000
0.000000
0.000000
0.000000
0.000000
0.000000
0.000000
0.000000
0.000000
0.000000
0.000000
0.000000
0.000000
0.000000
0.000000
0.000000
0.000000
0.000000
0.000000
0.000000
0.000000
0.000000
0.000000
0.000000
0.000000
0.000000
0.000000
0.000000
0.000000
0.000000
0.000000
0.000000
0.000000
0.000000
0.000000
0.000000
0.000000
0.000000
0.000000
0.000000
0.000000
0.000000
0.000000
0.000000
0.000000
0.000000
0.000000
0.000000
0.000000
0.000000
0.000000
0.000000
0.000000
0.000000
0.000000
0.000000
0.000000
0.000000
0.000000
0.000000
0.000000
0.000000
0.000000
0.000000
0.000000
0.000000
0.000000
0.000000
0.000000
0.000000
0.000000
0.000000
0.000000
0.000000
0.000000
0.000000
0.000000
0.000000
0.000000
0.000000
0.000000
0.000000
0.000000
0.000000
0.000000
0.000000
0.000000
0.000000
0.000000
0.000000
0.000000
0.000000
0.000000
0.000000
0.000000
0.000000
0.000000
0.000000
0.000000
0.000000
0.000000
0.000000
0.000000
0.000000
0.000000
0.000000
0.000000
0.000000
0.000000
0.000000
0.000000
0.000000
0.000000
0.000000
0.000000
0.000000
0.000000
0.000000
0.000000
0.000000
0.000000
0.000000
0.000000
0.000000
0.000000
0.000000
0.000000
0.000000
0.000000
0.000000
0.000000
0.000000
0.000000
0.000000
0.000000
0.000000
0.000000
0.000000
0.000000
0.000000
0.000000
0.000000
0.000000
0.000000
0.000000
0.000000
0.000000
0.000000
0.000000
0.000000
0.000000
-1.042280
-1.027978
-1.015973
-1.007067
-1.000609
-0.995905
-0.992446
-0.989883
-0.987974
-0.986542
-0.985459
-0.984627
-0.983970
-0.983428
-0.982956
-0.982515
-0.982074
-0.981602
-0.981067
-0.980427
-0.979614
-0.976744
-0.974956
-0.971969
-0.967754
-0.962953
-0.958234
-0.953969
-0.950394
0.000000
0.000000
0.000000
0.000000
0.000000
0.000000
0.000000
0.000000
0.000000
0.000000
0.000000
0.000000
0.000000
0.000000
0.000000
0.000000
0.000000
0.000000
0.000000
0.000000
0.000000
0.000000
0.000000
0.000000
0.000000
0.000000
0.000000
0.000000
0.000000
0.000000
0.000000
0.000000
0.000000
0.000000
0.000000
0.000000
0.000000
0.000000
0.000000
0.000000
0.000000
0.000000
0.000000
0.000000
0.000000
0.000000
0.000000
0.000000
0.000000
0.000000
0.000000
0.000000
0.000000
0.000000
0.000000
0.000000
0.000000
0.000000
0.000000
0.000000
0.000000
0.000000
0.000000
0.000000
0.000000
0.000000
0.000000
0.000000
0.000000
0.000000
0.000000
0.000000
0.000000
0.000000
0.000000
0.000000
0.000000
0.000000
0.000000
0.000000
0.000000
0.000000
0.000000
0.000000
0.000000
0.000000
0.000000
0.000000
0.000000
0.000000
0.000000
0.000000
0.000000
0.000000
0.000000
0.000000
0.000000
0.000000
0.000000
0.000000
0.000000
0.000000
0.000000
0.000000
0.000000
0.000000
0.000000
0.000000
0.000000
0.000000
0.000000
0.000000
0.000000
0.000000
0.000000
0.000000
0.000000
0.000000
0.000000
0.000000
0.000000
0.000000
0.000000
0.000000
0.000000
0.000000
-0.929944
-0.922286
-0.915085
-0.909252
-0.904853
-0.901745
-0.899759
-0.898742
-0.898561
-0.899102
-0.900265
-0.901962
-0.904116
-0.906659
-0.909533
-0.912685
-0.916072
-0.919653
-0.923396
-0.927271
-0.931255
-0.935326
-0.939467
-0.943664
-0.947906
-0.952183
-0.956489
-0.960817
-0.965164
-0.969526
-0.973902
-0.978291
-0.982690
-0.987100
-0.991520
-0.995950
-1.000390
-1.004840
-1.009300
-1.013771
-1.018254
-1.022750
-1.027261
-1.031784
-1.039223
-1.042281
-1.027979
-1.015974
-1.007068
-1.000610
-0.995906
-0.992447
-0.989885
-0.987975
-0.986543
-0.985460
-0.984628
-0.983971
-0.983430
-0.982958
-0.982517
-0.982075
-0.981603
-0.981068
-0.980428
-0.979616
-0.978534
-0.975265
-0.971925
-0.967770
-0.963106
-0.958492
-0.954352
-0.951023
0.000000
0.000000
0.000000
0.000000
0.000000
0.000000
0.000000
0.000000
0.000000
0.000000
0.000000
0.000000
0.000000
0.000000
0.000000
0.000000
0.000000
0.000000
0.000000
0.000000
0.000000
0.000000
0.000000
0.000000
0.000000
0.000000
0.000000
0.000000
0.000000
0.000000
0.000000
0.000000
0.000000
0.000000
0.000000
0.000000
0.000000
0.000000
0.000000
0.000000
0.000000
0.000000
0.000000
0.000000
0.000000
0.000000
0.000000
0.000000
0.000000
0.000000
0.000000
0.000000
0.000000
0.000000
0.000000
0.000000
0.000000
0.000000
0.000000
0.000000
0.000000
0.000000
0.000000
0.000000
0.000000
0.000000
0.000000
0.000000
0.000000
0.000000
0.000000
0.000000
0.000000
0.000000
0.000000
0.000000
0.000000
0.000000
0.000000
0.000000
0.000000
0.000000
0.000000
0.000000
0.000000
0.000000
0.000000
0.000000
0.000000
0.000000
0.000000
0.000000
0.000000
0.000000
0.000000
0.000000
0.000000
0.000000
0.000000
0.000000
0.000000
0.000000
0.000000
0.000000
0.000000
0.000000
0.000000
0.000000
0.000000
0.000000
0.000000
0.000000
0.000000
0.000000
0.000000
0.000000
0.000000
0.000000
0.000000
0.000000
0.000000
-0.975388
-0.956456
-0.943084
-0.935299
-0.930706
-0.929945
-0.922286
-0.915085
-0.909252
-0.904853
-0.901745
-0.899759
-0.898742
-0.898562
-0.899103
-0.900266
-0.901962
-0.904116
-0.906659
-0.909533
-0.912686
-0.916072
-0.919654
-0.923397
-0.927272
-0.931255
-0.935326
-0.939467
-0.943665
-0.947907
-0.952184
-0.956490
-0.960818
-0.965165
-0.969527
-0.973903
-0.978291
-0.982691
-0.987101
-0.991521
-0.995951
-1.000391
-1.004841
-1.009301
-1.013772
-1.018255
-1.022751
-1.027262
-1.031785
-1.036167
-1.036182
-1.026807
-1.016680
-1.008289
-1.001849
-0.997019
-0.993415
-0.990722
-0.988703
-0.987180
-0.986022
-0.985126
-0.984414
-0.983823
-0.983305
-0.982818
-0.982327
-0.981795
-0.981178
-0.980404
-0.979347
-0.977734
-0.974974
-0.971677
-0.967791
-0.963556
-0.959396
-0.955740
-0.952907
0.000000
0.000000
0.000000
0.000000
0.000000
0.000000
0.000000
0.000000
0.000000
0.000000
0.000000
0.000000
0.000000
0.000000
0.000000
0.000000
0.000000
0.000000
0.000000
0.000000
0.000000
0.000000
0.000000
0.000000
0.000000
0.000000
0.000000
0.000000
0.000000
0.000000
0.000000
0.000000
0.000000
0.000000
0.000000
0.000000
0.000000
0.000000
0.000000
0.000000
0.000000
0.000000
0.000000
0.000000
0.000000
0.000000
0.000000
0.000000
0.000000
0.000000
0.000000
0.000000
0.000000
0.000000
0.000000
0.000000
0.000000
0.000000
0.000000
0.000000
0.000000
0.000000
0.000000
0.000000
0.000000
0.000000
0.000000
0.000000
0.000000
0.000000
0.000000
0.000000
0.000000
0.000000
0.000000
0.000000
0.000000
0.000000
0.000000
0.000000
0.000000
0.000000
0.000000
0.000000
0.000000
0.000000
0.000000
0.000000
0.000000
0.000000
0.000000
0.000000
0.000000
0.000000
0.000000
0.000000
0.000000
0.000000
0.000000
0.000000
0.000000
0.000000
0.000000
0.000000
0.000000
0.000000
0.000000
0.000000
0.000000
0.000000
0.000000
0.000000
0.000000
-1.001963
-0.983214
-0.969431
-0.961171
-0.957159
-0.956433
-0.958502
-0.969260
-0.975388
-0.956456
-0.943084
-0.935300
-0.931467
-0.928514
-0.922427
-0.915996
-0.910446
-0.906112
-0.902984
-0.900948
-0.899873
-0.899634
-0.900118
-0.901226
-0.902871
-0.904975
-0.907470
-0.910299
-0.913408
-0.916753
-0.920295
-0.924000
-0.927838
-0.931786
-0.935823
-0.939931
-0.944095
-0.948306
-0.952552
-0.956828
-0.961126
-0.965443
-0.969775
-0.974121
-0.978478
-0.982844
-0.987218
-0.991599
-0.995984
-1.000371
-1.004754
-1.009126
-1.013474
-1.017773
-1.021969
-1.025941
-1.029390
-1.031505
-1.030190
-1.024163
-1.016630
-1.009565
-1.003652
-0.998946
-0.995286
-0.992465
-0.990297
-0.988626
-0.987326
-0.986298
-0.985463
-0.984757
-0.984126
-0.983526
-0.982913
-0.982243
-0.981457
-0.980472
-0.979162
-0.977336
-0.974804
-0.971742
-0.968255
-0.964562
-0.960983
-0.957871
-0.955321
3.117713
0.000000
0.000000
0.000000
0.000000
0.000000
0.000000
0.000000
0.000000
0.000000
0.000000
0.000000
0.000000
0.000000
0.000000
0.000000
0.000000
0.000000
0.000000
0.000000
0.000000
0.000000
0.000000
0.000000
0.000000
0.000000
0.000000
0.000000
0.000000
0.000000
0.000000
0.000000
0.000000
0.000000
0.000000
0.000000
0.000000
0.000000
0.000000
0.000000
0.000000
0.000000
0.000000
0.000000
0.000000
0.000000
0.000000
0.000000
0.000000
0.000000
0.000000
0.000000
0.000000
0.000000
0.000000
0.000000
0.000000
0.000000
0.000000
0.000000
0.000000
0.000000
0.000000
0.000000
0.000000
0.000000
0.000000
0.000000
0.000000
0.000000
0.000000
0.000000
0.000000
0.000000
0.000000
0.000000
0.000000
0.000000
0.000000
0.000000
0.000000
0.000000
0.000000
0.000000
0.000000
0.000000
0.000000
0.000000
0.000000
0.000000
0.000000
0.000000
0.000000
0.000000
0.000000
0.000000
0.000000
0.000000
0.000000
0.000000
0.000000
0.000000
0.000000
0.000000
0.000000
0.000000
0.000000
-1.046376
-1.022535
-1.005357
-0.995637
-0.991798
-0.997349
-1.001963
-0.983214
-0.969431
-0.961171
-0.957159
-0.956434
-0.958502
-0.963131
-0.966840
-0.956407
-0.945698
-0.937980
-0.932831
-0.928446
-0.923072
-0.917488
-0.912471
-0.908394
-0.905357
-0.903323
-0.902204
-0.901897
-0.902302
-0.903325
-0.904883
-0.906899
-0.909308
-0.912051
-0.915076
-0.918338
-0.921799
-0.925425
-0.929186
-0.933059
-0.937022
-0.941057
-0.945152
-0.949293
-0.953471
-0.957679
-0.961910
-0.966160
-0.970424
-0.974700
-0.978985
-0.983274
-0.987566
-0.991855
-0.996136
-1.000399
-1.004631
-1.008811
-1.012904
-1.016849
-1.020538
-1.023770
-1.026176
-1.027099
-1.025625
-1.021504
-1.016033
-1.010422
-1.005339
-1.001026
-0.997496
-0.994659
-0.992399
-0.990598
-0.989152
-0.987973
-0.986986
-0.986128
-0.985346
-0.984591
-0.983817
-0.982974
-0.982002
-0.980825
-0.979344
-0.977453
-0.975084
-0.972311
-0.969250
-0.966083
-0.963047
-0.960388
-0.957959
3.117712
1.923738
0.643795
1.022718
0.000000
0.000000
0.000000
0.000000
0.000000
0.000000
0.000000
0.000000
0.000000
0.000000
0.000000
0.000000
0.000000
0.000000
0.000000
0.000000
0.000000
0.000000
0.000000
0.000000
0.000000
0.000000
0.000000
0.000000
0.000000
0.000000
0.000000
0.000000
0.000000
0.000000
0.000000
0.000000
0.000000
0.000000
0.000000
0.000000
0.000000
0.000000
0.000000
0.000000
0.000000
0.000000
0.000000
0.000000
0.000000
0.000000
0.000000
0.000000
0.000000
0.000000
0.000000
0.000000
0.000000
0.000000
0.000000
0.000000
0.000000
0.000000
0.000000
0.000000
0.000000
0.000000
0.000000
0.000000
0.000000
0.000000
0.000000
0.000000
0.000000
0.000000
0.000000
0.000000
0.000000
0.000000
0.000000
0.000000
0.000000
0.000000
0.000000
0.000000
0.000000
0.000000
0.000000
0.000000
0.000000
0.000000
0.000000
0.000000
0.000000
0.000000
0.000000
0.000000
0.000000
0.000000
0.000000
0.000000
0.000000
0.000000
-1.106826
-1.070715
-1.047405
-1.036655
-1.040755
-1.046376
-1.022535
-1.005357
-0.995637
-0.991798
-0.992736
-0.994710
-0.983729
-0.972584
-0.964760
-0.960426
-0.959012
-0.959767
-0.961468
-0.961235
-0.955068
-0.947298
-0.940431
-0.934871
-0.929934
-0.924907
-0.919964
-0.915493
-0.911773
-0.908925
-0.906962
-0.905837
-0.905476
-0.905797
-0.906716
-0.908159
-0.910053
-0.912335
-0.914950
-0.917846
-0.920980
-0.924314
-0.927814
-0.931452
-0.935204
-0.939048
-0.942968
-0.946948
-0.950977
-0.955045
-0.959144
-0.963267
-0.967408
-0.971564
-0.975728
-0.979898
-0.984067
-0.988230
-0.992378
-0.996501
-1.000582
-1.004598
-1.008516
-1.012281
-1.015811
-1.018974
-1.021564
-1.023268
-1.023675
-1.022392
-1.019426
-1.015395
-1.011011
-1.006788
-1.002997
-0.999736
-0.996998
-0.994727
-0.992848
-0.991286
-0.989967
-0.988827
-0.987809
-0.986862
-0.985939
-0.984995
-0.983980
-0.982841
-0.981518
-0.979943
-0.978061
-0.975852
-0.973367
-0.970703
-0.968005
-0.965444
-0.963183
-0.960954
1.636768
0.729762
0.643795
1.022718
0.444687
0.016087
0.228831
0.417401
0.000000
0.000000
0.000000
0.000000
0.000000
0.000000
0.000000
0.000000
0.000000
0.000000
0.000000
0.000000
0.000000
0.000000
0.000000
0.000000
0.000000
0.000000
0.000000
0.000000
0.000000
0.000000
0.000000
0.000000
0.000000
0.000000
0.000000
0.000000
0.000000
0.000000
0.000000
0.000000
0.000000
0.000000
0.000000
0.000000
0.000000
0.000000
0.000000
0.000000
0.000000
0.000000
0.000000
0.000000
0.000000
0.000000
0.000000
0.000000
0.000000
0.000000
0.000000
0.000000
0.000000
0.000000
0.000000
0.000000
0.000000
0.000000
0.000000
0.000000
0.000000
0.000000
0.000000
0.000000
0.000000
0.000000
0.000000
0.000000
0.000000
0.000000
0.000000
0.000000
0.000000
0.000000
0.000000
0.000000
0.000000
0.000000
0.000000
0.000000
0.000000
0.000000
0.000000
0.000000
0.000000
0.000000
0.000000
0.000000
-1.154587
-1.115000
-1.088768
-1.076292
-1.074270
-1.093720
-1.106826
-1.070715
-1.047406
-1.036655
-1.035135
-1.037370
-1.023486
-1.009647
-1.000244
-0.995253
-0.993212
-0.990875
-0.983638
-0.975393
-0.968711
-0.964353
-0.962139
-0.961393
-0.960965
-0.959155
-0.954617
-0.948744
-0.942899
-0.937592
-0.932709
-0.928027
-0.923599
-0.919624
-0.916280
-0.913673
-0.911832
-0.910738
-0.910343
-0.910583
-0.911390
-0.912697
-0.914441
-0.916564
-0.919012
-0.921738
-0.924700
-0.927863
-0.931192
-0.934662
-0.938247
-0.941927
-0.945686
-0.949509
-0.953383
-0.957299
-0.961247
-0.965222
-0.969215
-0.973222
-0.977237
-0.981252
-0.985261
-0.989254
-0.993220
-0.997142
-1.000998
-1.004758
-1.008377
-1.011793
-1.014916
-1.017618
-1.019721
-1.021002
-1.021218
-1.020205
-1.018022
-1.015008
-1.011592
-1.008138
-1.004885
-1.001955
-0.999386
-0.997167
-0.995260
-0.993613
-0.992174
-0.990891
-0.989716
-0.988605
-0.987514
-0.986404
-0.985232
-0.983955
-0.982528
-0.980912
-0.979078
-0.977031
-0.974813
-0.972506
-0.970220
-0.968082
-0.966208
-0.964332
0.940078
0.687669
0.606514
0.502338
-0.133345
0.016087
0.228831
0.417401
0.070131
-0.131533
0.030531
0.179818
0.000000
0.000000
0.000000
0.000000
0.000000
0.000000
0.000000
0.000000
0.000000
0.000000
0.000000
0.000000
0.000000
0.000000
0.000000
0.000000
0.000000
0.000000
0.000000
0.000000
0.000000
0.000000
0.000000
0.000000
0.000000
0.000000
0.000000
0.000000
0.000000
0.000000
0.000000
0.000000
0.000000
0.000000
0.000000
0.000000
0.000000
0.000000
0.000000
0.000000
0.000000
0.000000
0.000000
0.000000
0.000000
0.000000
0.000000
0.000000
0.000000
0.000000
0.000000
0.000000
0.000000
0.000000
0.000000
0.000000
0.000000
0.000000
0.000000
0.000000
0.000000
0.000000
0.000000
0.000000
0.000000
0.000000
0.000000
0.000000
0.000000
0.000000
0.000000
0.000000
0.000000
0.000000
0.000000
0.000000
0.000000
0.000000
0.000000
-1.234400
-1.177740
-1.142912
-1.128943
-1.142228
-1.154587
-1.115000
-1.088768
-1.076292
-1.074270
-1.080614
-1.089857
-1.071581
-1.053682
-1.042619
-1.037276
-1.033197
-1.023625
-1.013121
-1.004671
-0.998861
-0.994805
-0.990670
-0.984801
-0.978369
-0.972727
-0.968510
-0.965702
-0.963832
-0.962104
-0.959577
-0.955702
-0.950940
-0.945965
-0.941165
-0.936633
-0.932358
-0.928396
-0.924864
-0.921879
-0.919522
-0.917826
-0.916785
-0.916370
-0.916533
-0.917222
-0.918380
-0.919953
-0.921888
-0.924138
-0.926659
-0.929413
-0.932364
-0.935483
-0.938743
-0.942122
-0.945598
-0.949156
-0.952782
-0.956463
-0.960188
-0.963950
-0.967740
-0.971551
-0.975375
-0.979206
-0.983035
-0.986853
-0.990646
-0.994401
-0.998096
-1.001704
-1.005191
-1.008507
-1.011589
-1.014350
-1.016679
-1.018438
-1.019477
-1.019655
-1.018906
-1.017291
-1.015014
-1.012345
-1.009534
-1.006772
-1.004176
-1.001806
-0.999674
-0.997770
-0.996065
-0.994525
-0.993111
-0.991787
-0.990517
-0.989266
-0.988001
-0.986689
-0.985298
-0.983798
-0.982169
-0.980401
-0.978507
-0.976529
-0.974535
-0.972611
-0.970855
-0.969362
-0.967944
0.624659
0.548744
0.469898
0.350030
0.118219
0.114965
0.172604
0.109508
-0.277138
-0.131533
0.030531
0.179818
-0.121811
-0.292771
-0.148090
-0.008216
0.000000
0.000000
0.000000
0.000000
0.000000
0.000000
0.000000
0.000000
0.000000
0.000000
0.000000
0.000000
0.000000
0.000000
0.000000
0.000000
0.000000
0.000000
0.000000
0.000000
0.000000
0.000000
0.000000
0.000000
0.000000
0.000000
0.000000
0.000000
0.000000
0.000000
0.000000
0.000000
0.000000
0.000000
0.000000
0.000000
0.000000
0.000000
0.000000
0.000000
0.000000
0.000000
0.000000
0.000000
0.000000
0.000000
0.000000
0.000000
0.000000
0.000000
0.000000
0.000000
0.000000
0.000000
0.000000
0.000000
0.000000
0.000000
0.000000
0.000000
0.000000
0.000000
0.000000
0.000000
0.000000
0.000000
0.000000
0.000000
0.000000
-1.299157
-1.234273
-1.193664
-1.176565
-1.176314
-1.211542
-1.234400
-1.177740
-1.142912
-1.128944
-1.129870
-1.137491
-1.116536
-1.096285
-1.084126
-1.079671
-1.080209
-1.079961
-1.069548
-1.056981
-1.046863
-1.039559
-1.033019
-1.024868
-1.016295
-1.008722
-1.002626
-0.997600
-0.992758
-0.987442
-0.982000
-0.977059
-0.972995
-0.969823
-0.967249
-0.964781
-0.961903
-0.958342
-0.954247
-0.949942
-0.945681
-0.941597
-0.937754
-0.934222
-0.931086
-0.928427
-0.926306
-0.924753
-0.923770
-0.923340
-0.923428
-0.923995
-0.924994
-0.926380
-0.928109
-0.930138
-0.932428
-0.934944
-0.937654
-0.940531
-0.943549
-0.946687
-0.949927
-0.953252
-0.956649
-0.960105
-0.963611
-0.967156
-0.970734
-0.974336
-0.977953
-0.981577
-0.985198
-0.988804
-0.992380
-0.995909
-0.999367
-1.002725
-1.005945
-1.008977
-1.011762
-1.014221
-1.016265
-1.017792
-1.018699
-1.018909
-1.018392
-1.017203
-1.015471
-1.013371
-1.011076
-1.008732
-1.006441
-1.004264
-1.002230
-1.000345
-0.998597
-0.996969
-0.995436
-0.993971
-0.992551
-0.991148
-0.989738
-0.988300
-0.986811
-0.985255
-0.983624
-0.981921
-0.980164
-0.978394
-0.976666
-0.975052
-0.973635
-0.972496
-0.971566
0.452581
0.423119
0.367873
0.289981
0.183083
0.135261
0.110622
0.036183
-0.100275
-0.075322
-0.022204
-0.083885
-0.423439
-0.292771
-0.148090
-0.008217
-0.321422
-0.527968
-0.402948
-0.307149
-0.194587
0.000000
0.000000
0.000000
0.000000
0.000000
0.000000
0.000000
0.000000
0.000000
0.000000
0.000000
0.000000
0.000000
0.000000
0.000000
0.000000
0.000000
0.000000
0.000000
0.000000
0.000000
0.000000
0.000000
0.000000
0.000000
0.000000
0.000000
0.000000
0.000000
0.000000
0.000000
0.000000
0.000000
0.000000
0.000000
0.000000
0.000000
0.000000
0.000000
0.000000
0.000000
0.000000
0.000000
0.000000
0.000000
0.000000
0.000000
0.000000
0.000000
0.000000
0.000000
0.000000
0.000000
0.000000
0.000000
0.000000
0.000000
0.000000
-1.387408
-1.308423
-1.258191
-1.236369
-1.234812
-1.273592
-1.299157
-1.234273
-1.193664
-1.176565
-1.176314
-1.188684
-1.205645
-1.178633
-1.152707
-1.138036
-1.132520
-1.128927
-1.115808
-1.101317
-1.090500
-1.084153
-1.080573
-1.076405
-1.068402
-1.058793
-1.049822
-1.042061
-1.034820
-1.027281
-1.019748
-1.012814
-1.006747
-1.001384
-0.996330
-0.991301
-0.986395
-0.981879
-0.977937
-0.974570
-0.971601
-0.968740
-0.965701
-0.962327
-0.958663
-0.954861
-0.951080
-0.947435
-0.944004
-0.940860
-0.938069
-0.935695
-0.933782
-0.932356
-0.931425
-0.930976
-0.930988
-0.931430
-0.932266
-0.933457
-0.934968
-0.936762
-0.938804
-0.941064
-0.943513
-0.946126
-0.948881
-0.951757
-0.954737
-0.957806
-0.960952
-0.964162
-0.967426
-0.970737
-0.974083
-0.977458
-0.980853
-0.984257
-0.987659
-0.991045
-0.994400
-0.997704
-1.000931
-1.004051
-1.007025
-1.009808
-1.012343
-1.014565
-1.016401
-1.017776
-1.018621
-1.018890
-1.018572
-1.017707
-1.016382
-1.014713
-1.012821
-1.010816
-1.008781
-1.006774
-1.004830
-1.002965
-1.001182
-0.999473
-0.997827
-0.996229
-0.994664
-0.993116
-0.991570
-0.990013
-0.988434
-0.986827
-0.985193
-0.983543
-0.981898
-0.980296
-0.978785
-0.977429
-0.976295
-0.975460
-0.974979
0.343183
0.328005
0.291263
0.239157
0.174790
0.124083
0.080069
0.022964
-0.042919
-0.064244
-0.078125
-0.145322
-0.267977
-0.245601
-0.200637
-0.272725
-0.634627
-0.527968
-0.402948
-0.307149
-0.194587
-0.507814
-0.743306
-0.637084
-0.560787
-0.488239
-0.381829
0.000000
0.000000
0.000000
0.000000
0.000000
0.000000
0.000000
0.000000
0.000000
0.000000
0.000000
0.000000
0.000000
0.000000
0.000000
0.000000
0.000000
0.000000
0.000000
0.000000
0.000000
0.000000
0.000000
0.000000
0.000000
0.000000
0.000000
0.000000
0.000000
0.000000
0.000000
0.000000
0.000000
0.000000
0.000000
0.000000
0.000000
0.000000
0.000000
0.000000
0.000000
0.000000
0.000000
0.000000
0.000000
0.000000
-1.521493
-1.413900
-1.345187
-1.315029
-1.311556
-1.356923
-1.387408
-1.308423
-1.258191
-1.236369
-1.234812
-1.248027
-1.266450
-1.235163
-1.205114
-1.188422
-1.183900
-1.186897
-1.188479
-1.174160
-1.156732
-1.143350
-1.134405
-1.126543
-1.115874
-1.104532
-1.094882
-1.087596
-1.081840
-1.075954
-1.068647
-1.060483
-1.052413
-1.044845
-1.037631
-1.030527
-1.023625
-1.017164
-1.011273
-1.005892
-1.000852
-0.996026
-0.991433
-0.987176
-0.983329
-0.979878
-0.976714
-0.973668
-0.970577
-0.967347
-0.963984
-0.960563
-0.957179
-0.953918
-0.950851
-0.948041
-0.945544
-0.943408
-0.941669
-0.940350
-0.939456
-0.938985
-0.938918
-0.939235
-0.939906
-0.940902
-0.942193
-0.943747
-0.945536
-0.947532
-0.949711
-0.952051
-0.954530
-0.957132
-0.959840
-0.962642
-0.965523
-0.968475
-0.971488
-0.974551
-0.977658
-0.980799
-0.983965
-0.987145
-0.990327
-0.993497
-0.996637
-0.999726
-1.002739
-1.005645
-1.008406
-1.010980
-1.013316
-1.015360
-1.017052
-1.018336
-1.019162
-1.019502
-1.019350
-1.018736
-1.017718
-1.016374
-1.014791
-1.013050
-1.011219
-1.009349
-1.007477
-1.005624
-1.003801
-1.002013
-1.000257
-0.998530
-0.996825
-0.995135
-0.993456
-0.991783
-0.990114
-0.988451
-0.986803
-0.985186
-0.983622
-0.982147
-0.980804
-0.979646
-0.978735
-0.978138
-0.978010
0.264145
0.254637
0.229530
0.192750
0.147948
0.104166
0.061366
0.015285
-0.031646
-0.066874
-0.101406
-0.153036
-0.213918
-0.235166
-0.253453
-0.329258
-0.467335
-0.455690
-0.402825
-0.366462
-0.449876
-0.821042
-0.743307
-0.637084
-0.560787
-0.488239
-0.381829
-0.741809
-1.064408
-0.978244
-0.930728
-0.900209
-0.878145
-0.860269
-0.843880
-0.826779
-0.806594
-0.779934
-0.740480
-0.657855
0.000000
0.000000
0.000000
0.000000
0.000000
0.000000
0.000000
0.000000
0.000000
0.000000
0.000000
0.000000
0.000000
0.000000
0.000000
0.000000
0.000000
0.000000
0.000000
0.000000
0.000000
0.000000
0.000000
0.000000
0.000000
0.000000
-1.724681
-1.564680
-1.459342
-1.409887
-1.396917
-1.407867
-1.478129
-1.521493
-1.413901
-1.345187
-1.315029
-1.311556
-1.326439
-1.347379
-1.308728
-1.271400
-1.250220
-1.243677
-1.246108
-1.247126
-1.230395
-1.210584
-1.196264
-1.188690
-1.185161
-1.180583
-1.170097
-1.157257
-1.145500
-1.135615
-1.126450
-1.116697
-1.106897
-1.098008
-1.090385
-1.083650
-1.077031
-1.069953
-1.062517
-1.055091
-1.047909
-1.040987
-1.034280
-1.027836
-1.021756
-1.016099
-1.010845
-1.005923
-1.001273
-0.996891
-0.992808
-0.989046
-0.985581
-0.982344
-0.979235
-0.976158
-0.973056
-0.969922
-0.966794
-0.963729
-0.960788
-0.958026
-0.955495
-0.953240
-0.951299
-0.949701
-0.948465
-0.947597
-0.947096
-0.946951
-0.947145
-0.947657
-0.948464
-0.949539
-0.950858
-0.952397
-0.954132
-0.956042
-0.958108
-0.960311
-0.962636
-0.965070
-0.967599
-0.970214
-0.972904
-0.975661
-0.978476
-0.981341
-0.984248
-0.987187
-0.990147
-0.993116
-0.996079
-0.999019
-1.001913
-1.004736
-1.007457
-1.010043
-1.012451
-1.014638
-1.016556
-1.018156
-1.019393
-1.020231
-1.020646
-1.020636
-1.020219
-1.019434
-1.018337
-1.016987
-1.015447
-1.013770
-1.012001
-1.010176
-1.008320
-1.006450
-1.004578
-1.002711
-1.000853
-0.999007
-0.997176
-0.995362
-0.993570
-0.991804
-0.990076
-0.988398
-0.986789
-0.985274
-0.983884
-0.982659
-0.981644
-0.980890
-0.980457
-0.980560
0.203207
0.196601
0.178612
0.151507
0.117949
0.081808
0.044356
0.005266
-0.034355
-0.071466
-0.109205
-0.152230
-0.197149
-0.232586
-0.269966
-0.326752
-0.393730
-0.414094
-0.413136
-0.428068
-0.509188
-0.659349
-0.663442
-0.620180
-0.577269
-0.555697
-0.662488
-1.101789
-1.064408
-0.978244
-0.930728
-0.900209
-0.878145
-0.860269
-0.843880
-0.826779
-0.806594
-0.779934
-0.740480
-0.657855
-1.034388
-1.413152
-1.343971
-1.311421
-1.295193
-1.287667
-1.285417
-1.286680
-1.290452
-1.296133
-1.303354
-1.311893
-1.321631
-1.332489
-1.344542
-1.357571
-1.371353
-1.386082
-1.401980
-1.419340
-1.438577
-1.460295
-1.485428
-1.515533
-1.553511
-1.660817
-1.724682
-1.564681
-1.459342
-1.409887
-1.396917
-1.407867
-1.434765
-1.463265
-1.411291
-1.360810
-1.331871
-1.321982
-1.323420
-1.323232
-1.301957
-1.277136
-1.259012
-1.249039
-1.244029
-1.238153
-1.226003
-1.211753
-1.199550
-1.190613
-1.183754
-1.176554
-1.167159
-1.156497
-1.146003
-1.136251
-1.126973
-1.117771
-1.108798
-1.100415
-1.092771
-1.085694
-1.078830
-1.071903
-1.064898
-1.057945
-1.051164
-1.044600
-1.038269
-1.032204
-1.026453
-1.021047
-1.015979
-1.011218
-1.006736
-1.002522
-0.998579
-0.994903
-0.991472
-0.988238
-0.985139
-0.982117
-0.979137
-0.976190
-0.973294
-0.970484
-0.967803
-0.965291
-0.962989
-0.960931
-0.959148
-0.957663
-0.956491
-0.955639
-0.955106
-0.954885
-0.954964
-0.955326
-0.955953
-0.956824
-0.957920
-0.959219
-0.960702
-0.962351
-0.964150
-0.966083
-0.968137
-0.970300
-0.972561
-0.974911
-0.977342
-0.979846
-0.982416
-0.985043
-0.987721
-0.990440
-0.993190
-0.995958
-0.998730
-1.001487
-1.004209
-1.006869
-1.009440
-1.011886
-1.014171
-1.016254
-1.018092
-1.019644
-1.020871
-1.021741
-1.022236
-1.022350
-1.022093
-1.021490
-1.020580
-1.019405
-1.018012
-1.016445
-1.014743
-1.012940
-1.011062
-1.009132
-1.007167
-1.005181
-1.003188
-1.001196
-0.999218
-0.997263
-0.995343
-0.993471
-0.991662
-0.989933
-0.988306
-0.986807
-0.985464
-0.984312
-0.983387
-0.982732
-0.982394
-0.982603
0.154648
0.149763
0.136273
0.115506
0.089198
0.059369
0.027235
-0.006664
-0.041654
-0.076854
-0.113061
-0.151433
-0.190901
-0.228882
-0.268639
-0.314249
-0.360513
-0.392072
-0.416113
-0.449616
-0.508671
-0.582128
-0.608673
-0.607342
-0.605157
-0.629783
-0.732231
-0.924136
-0.960372
-0.938854
-0.912977
-0.891463
-0.874173
-0.859595
-0.846249
-0.832929
-0.819037
-0.806445
-0.808576
-0.937553
-1.410921
-1.413152
-1.343971
-1.311422
-1.295193
-1.287667
-1.285418
-1.286680
-1.290452
-1.296133
-1.303354
-1.311893
-1.321631
-1.332489
-1.344542
-1.357571
-1.371353
-1.386083
-1.401980
-1.419340
-1.438577
-1.460296
-1.485428
-1.515533
-1.553511
-1.596954
-1.629675
-1.551885
-1.476143
-1.431135
-1.413056
-1.413283
-1.422069
-1.424180
-1.396968
-1.364467
-1.340381
-1.326590