# vtk DataFile Version 3.0
Scalar Field
ASCII
DATASET RECTILINEAR_GRID
DIMENSIONS 200 50 1
X_COORDINATES 200 double
0.050000 0.150000 0.250000 0.350000 0.450000 0.550000 0.650000 0.750000 0.850000 0.950000 1.050000 1.150000 1.250000 1.350000 1.450000 1.550000 1.650000 1.750000 1.850000 1.950000 2.050000 2.150000 2.250000 2.350000 2.450000 2.550000 2.650000 2.750000 2.850000 2.950000 3.050000 3.150000 3.250000 3.350000 3.450000 3.550000 3.650000 3.750000 3.850000 3.950000 4.050000 4.150000 4.250000 4.350000 4.450000 4.550000 4.650000 4.750000 4.850000 4.950000 5.050000 5.150000 5.250000 5.350000 5.450000 5.550000 5.650000 5.750000 5.850000 5.950000 6.050000 6.150000 6.250000 6.350000 6.450000 6.550000 6.650000 6.750000 6.850000 6.950000 7.050000 7.150000 7.250000 7.350000 7.450000 7.550000 7.650000 7.750000 7.850000 7.950000 8.050000 8.150000 8.250000 8.350000 8.450000 8.550000 8.650000 8.750000 8.850000 8.950000 9.050000 9.150000 9.250000 9.350000 9.450000 9.550000 9.650000 9.750000 9.850000 9.950000 10.050000 10.150000 10.250000 10.350000 10.450000 10.550000 10.650000 10.750000 10.850000 10.950000 11.050000 11.150000 11.250000 11.350000 11.450000 11.550000 11.650000 11.750000 11.850000 11.950000 12.050000 12.150000 12.250000 12.350000 12.450000 12.550000 12.650000 12.750000 12.850000 12.950000 13.050000 13.150000 13.250000 13.350000 13.450000 13.550000 13.650000 13.750000 13.850000 13.950000 14.050000 14.150000 14.250000 14.350000 14.450000 14.550000 14.650000 14.750000 14.850000 14.950000 15.050000 15.150000 15.250000 15.350000 15.450000 15.550000 15.650000 15.750000 15.850000 15.950000 16.050000 16.150000 16.250000 16.350000 16.450000 16.550000 16.650000 16.750000 16.850000 16.950000 17.050000 17.150000 17.250000 17.350000 17.450000 17.550000 17.650000 17.750000 17.850000 17.950000 18.050000 18.150000 18.250000 18.350000 18.450000 18.550000 18.650000 18.750000 18.850000 18.950000 19.050000 19.150000 19.250000 19.350000 19.450000 19.550000 19.650000 19.750000 19.850000 19.950000 
Y_COORDINATES 50 double
0.050000 0.150000 0.250000 0.350000 0.450000 0.550000 0.650000 0.750000 0.850000 0.950000 1.050000 1.150000 1.250000 1.350000 1.450000 1.550000 1.650000 1.750000 1.850000 1.950000 2.050000 2.150000 2.250000 2.350000 2.450000 2.550000 2.650000 2.750000 2.850000 2.950000 3.050000 3.150000 3.250000 3.350000 3.450000 3.550000 3.650000 3.750000 3.850000 3.950000 4.050000 4.150000 4.250000 4.350000 4.450000 4.550000 4.650000 4.750000 4.850000 4.950000 
Z_COORDINATES 1 double
0.0
POINT_DATA 10000
SCALARS Skalarfeld double 1
LOOKUP_TABLE default
0.000000
0.000000
0.000000
0.000000
0.000000
0.000000
0.000000
0.000000
0.000000
0.000000
0.000000
0.000000
0.000000
0.000000
0.000000
0.000000
0.000000
0.000000
0.000000
0.000000
0.000000
0.000000
0.000000
0.000000
0.000000
0.000000
0.000000
0.000000
0.000000
0.000000
0.000000
0.000000
0.000000
0.000000
0.000000
0.000000
0.000000
0.000000
0.000000
0.000000
0.000000
0.000000
0.000000
0.000000
0.000000
0.000000
0.000000
0.000000
0.000000
0.000000
0.000000
0.000000
0.000000
0.000000
0.000000
0.000000
0.000000
0.000000
0.000000
0.000000
0.000000
0.000000
0.000000
0.000000
0.000000
0.000000
0.000000
0.000000
0.000000
0.000000
0.000000
0.000000
0.000000
0.000000
0.000000
0.000000
0.000000
0.000000
0.000000
0.000000
0.000000
0.000000
0.000000
0.000000
0.000000
0.000000
0.000000
0.000000
0.000000
0.000000
0.000000
0.000000
0.000000
0.000000
0.000000
0.000000
0.000000
0.000000
0.000000
0.000000
0.000000
0.000000
0.000000
0.000000
0.000000
0.000000
0.000000
0.000000
0.000000
0.000000
0.000000
0.000000
0.000000
0.000000
0.000000
0.000000
0.000000
0.000000
0.000000
0.000000
0.000000
0.000000
0.000000
0.000000
0.000000
0.000000
0.000000
0.000000
0.000000
0.000000
0.000000
0.000000
0.000000
0.000000
0.000000
0.000000
0.000000
0.000000
0.000000
0.000000
0.000000
0.000000
0.000000
0.000000
0.000000
0.000000
0.000000
0.000000
0.000000
0.000000
0.000000
0.000000
0.000000
0.000000
0.000000
0.000000
0.000000
0.000000
0.000000
0.000000
0.000000
0.000000
0.000000
0.000000
0.000000
0.000000
0.000000
0.000000
0.000000
0.000000
0.000000
0.000000
0.000000
0.000000
0.000000
0.000000
0.000000
0.000000
0.000000
0.000000
0.000000
0.000000
0.000000
0.000000
0.000000
0.000000
0.000000
0.000000
0.000000
0.000000
0.000000
0.000000
0.000000
-0.924032
-0.918246
-0.911158
-0.904164
-0.897828
-0.892266
-0.887533
0.000000
0.000000
0.000000
0.000000
0.000000
0.000000
0.000000
0.000000
0.000000
0.000000
0.000000
0.000000
0.000000
0.000000
0.000000
0.000000
0.000000
0.000000
0.000000
0.000000
0.000000
0.000000
0.000000
0.000000
0.000000
0.000000
0.000000
0.000000
0.000000
0.000000
0.000000
0.000000
0.000000
0.000000
0.000000
0.000000
0.000000
0.000000
0.000000
0.000000
0.000000
0.000000
0.000000
0.000000
0.000000
0.000000
0.000000
0.000000
0.000000
0.000000
0.000000
0.000000
0.000000
0.000000
0.000000
0.000000
0.000000
0.000000
0.000000
0.000000
0.000000
0.000000
0.000000
0.000000
0.000000
0.000000
0.000000
0.000000
0.000000
0.000000
0.000000
0.000000
0.000000
0.000000
0.000000
0.000000
0.000000
0.000000
0.000000
0.000000
0.000000
0.000000
0.000000
0.000000
0.000000
0.000000
0.000000
0.000000
0.000000
0.000000
0.000000
0.000000
0.000000
0.000000
0.000000
0.000000
0.000000
0.000000
0.000000
0.000000
0.000000
0.000000
0.000000
0.000000
0.000000
0.000000
0.000000
0.000000
0.000000
0.000000
0.000000
0.000000
0.000000
0.000000
0.000000
0.000000
0.000000
0.000000
0.000000
0.000000
0.000000
0.000000
0.000000
0.000000
0.000000
0.000000
0.000000
0.000000
0.000000
0.000000
0.000000
0.000000
0.000000
0.000000
0.000000
0.000000
0.000000
0.000000
0.000000
0.000000
0.000000
0.000000
0.000000
0.000000
0.000000
0.000000
0.000000
0.000000
0.000000
0.000000
0.000000
0.000000
0.000000
0.000000
0.000000
0.000000
0.000000
0.000000
0.000000
0.000000
0.000000
0.000000
0.000000
0.000000
0.000000
0.000000
0.000000
0.000000
0.000000
0.000000
0.000000
-1.027726
-1.012235
-0.998436
-0.987634
-0.979365
-0.972949
-0.967844
-0.963667
-0.960153
-0.957114
-0.954414
-0.951957
-0.949668
-0.947493
-0.945392
-0.943331
-0.941284
-0.939224
-0.937119
-0.934919
-0.932534
-0.926941
-0.924031
-0.918245
-0.911157
-0.904163
-0.897827
-0.892265
-0.887532
0.000000
0.000000
0.000000
0.000000
0.000000
0.000000
0.000000
0.000000
0.000000
0.000000
0.000000
0.000000
0.000000
0.000000
0.000000
0.000000
0.000000
0.000000
0.000000
0.000000
0.000000
0.000000
0.000000
0.000000
0.000000
0.000000
0.000000
0.000000
0.000000
0.000000
0.000000
0.000000
0.000000
0.000000
0.000000
0.000000
0.000000
0.000000
0.000000
0.000000
0.000000
0.000000
0.000000
0.000000
0.000000
0.000000
0.000000
0.000000
0.000000
0.000000
0.000000
0.000000
0.000000
0.000000
0.000000
0.000000
0.000000
0.000000
0.000000
0.000000
0.000000
0.000000
0.000000
0.000000
0.000000
0.000000
0.000000
0.000000
0.000000
0.000000
0.000000
0.000000
0.000000
0.000000
0.000000
0.000000
0.000000
0.000000
0.000000
0.000000
0.000000
0.000000
0.000000
0.000000
0.000000
0.000000
0.000000
0.000000
0.000000
0.000000
0.000000
0.000000
0.000000
0.000000
0.000000
0.000000
0.000000
0.000000
0.000000
0.000000
0.000000
0.000000
0.000000
0.000000
0.000000
0.000000
0.000000
0.000000
0.000000
0.000000
0.000000
0.000000
0.000000
0.000000
0.000000
0.000000
0.000000
0.000000
0.000000
0.000000
0.000000
0.000000
0.000000
0.000000
0.000000
0.000000
-0.926472
-0.918793
-0.911566
-0.905712
-0.901296
-0.898176
-0.896180
-0.895157
-0.894974
-0.895516
-0.896683
-0.898389
-0.900556
-0.903118
-0.906014
-0.909194
-0.912612
-0.916228
-0.920008
-0.923921
-0.927941
-0.932046
-0.936216
-0.940434
-0.944685
-0.948955
-0.953235
-0.957513
-0.961781
-0.966030
-0.970252
-0.974441
-0.978590
-0.982692
-0.986742
-0.990733
-0.994661
-0.998520
-1.002308
-1.006021
-1.009657
-1.013215
-1.016693
-1.020089
-1.025504
-1.027726
-1.012235
-0.998435
-0.987633
-0.979365
-0.972949
-0.967843
-0.963667
-0.960152
-0.957113
-0.954414
-0.951956
-0.949667
-0.947493
-0.945391
-0.943330
-0.941283
-0.939224
-0.937119
-0.934918
-0.932533
-0.929849
-0.924610
-0.918462
-0.911471
-0.904536
-0.898205
-0.892714
-0.888228
0.000000
0.000000
0.000000
0.000000
0.000000
0.000000
0.000000
0.000000
0.000000
0.000000
0.000000
0.000000
0.000000
0.000000
0.000000
0.000000
0.000000
0.000000
0.000000
0.000000
0.000000
0.000000
0.000000
0.000000
0.000000
0.000000
0.000000
0.000000
0.000000
0.000000
0.000000
0.000000
0.000000
0.000000
0.000000
0.000000
0.000000
0.000000
0.000000
0.000000
0.000000
0.000000
0.000000
0.000000
0.000000
0.000000
0.000000
0.000000
0.000000
0.000000
0.000000
0.000000
0.000000
0.000000
0.000000
0.000000
0.000000
0.000000
0.000000
0.000000
0.000000
0.000000
0.000000
0.000000
0.000000
0.000000
0.000000
0.000000
0.000000
0.000000
0.000000
0.000000
0.000000
0.000000
0.000000
0.000000
0.000000
0.000000
0.000000
0.000000
0.000000
0.000000
0.000000
0.000000
0.000000
0.000000
0.000000
0.000000
0.000000
0.000000
0.000000
0.000000
0.000000
0.000000
0.000000
0.000000
0.000000
0.000000
0.000000
0.000000
0.000000
0.000000
0.000000
0.000000
0.000000
0.000000
0.000000
0.000000
0.000000
0.000000
0.000000
0.000000
0.000000
0.000000
0.000000
0.000000
0.000000
0.000000
0.000000
0.000000
0.000000
-0.971969
-0.953046
-0.939669
-0.931870
-0.927246
-0.926473
-0.918794
-0.911568
-0.905713
-0.901298
-0.898177
-0.896182
-0.895159
-0.894975
-0.895517
-0.896685
-0.898390
-0.900557
-0.903119
-0.906016
-0.909196
-0.912613
-0.916229
-0.920009
-0.923922
-0.927942
-0.932047
-0.936217
-0.940435
-0.944685
-0.948956
-0.953236
-0.957514
-0.961781
-0.966030
-0.970253
-0.974442
-0.978591
-0.982693
-0.986742
-0.990733
-0.994661
-0.998521
-1.002308
-1.006021
-1.009657
-1.013214
-1.016693
-1.020089
-1.023283
-1.022035
-1.011249
-0.999361
-0.989102
-0.980837
-0.974263
-0.968976
-0.964638
-0.960991
-0.957842
-0.955053
-0.952519
-0.950165
-0.947932
-0.945776
-0.943660
-0.941553
-0.939420
-0.937211
-0.934845
-0.932158
-0.928808
-0.924011
-0.918216
-0.911785
-0.905344
-0.899403
-0.894333
-0.890344
0.000000
0.000000
0.000000
0.000000
0.000000
0.000000
0.000000
0.000000
0.000000
0.000000
0.000000
0.000000
0.000000
0.000000
0.000000
0.000000
0.000000
0.000000
0.000000
0.000000
0.000000
0.000000
0.000000
0.000000
0.000000
0.000000
0.000000
0.000000
0.000000
0.000000
0.000000
0.000000
0.000000
0.000000
0.000000
0.000000
0.000000
0.000000
0.000000
0.000000
0.000000
0.000000
0.000000
0.000000
0.000000
0.000000
0.000000
0.000000
0.000000
0.000000
0.000000
0.000000
0.000000
0.000000
0.000000
0.000000
0.000000
0.000000
0.000000
0.000000
0.000000
0.000000
0.000000
0.000000
0.000000
0.000000
0.000000
0.000000
0.000000
0.000000
0.000000
0.000000
0.000000
0.000000
0.000000
0.000000
0.000000
0.000000
0.000000
0.000000
0.000000
0.000000
0.000000
0.000000
0.000000
0.000000
0.000000
0.000000
0.000000
0.000000
0.000000
0.000000
0.000000
0.000000
0.000000
0.000000
0.000000
0.000000
0.000000
0.000000
0.000000
0.000000
0.000000
0.000000
0.000000
0.000000
0.000000
0.000000
0.000000
0.000000
0.000000
0.000000
0.000000
-0.998563
-0.979855
-0.966090
-0.957832
-0.953812
-0.953074
-0.955127
-0.965854
-0.971970
-0.953048
-0.939670
-0.931871
-0.928021
-0.925050
-0.918941
-0.912484
-0.906913
-0.902561
-0.899418
-0.897372
-0.896291
-0.896048
-0.896533
-0.897645
-0.899299
-0.901416
-0.903930
-0.906782
-0.909918
-0.913295
-0.916872
-0.920614
-0.924492
-0.928478
-0.932550
-0.936689
-0.940876
-0.945098
-0.949340
-0.953592
-0.957844
-0.962084
-0.966306
-0.970501
-0.974662
-0.978780
-0.982850
-0.986862
-0.990811
-0.994688
-0.998482
-1.002184
-1.005776
-1.009231
-1.012493
-1.015442
-1.017779
-1.018704
-1.016103
-1.008632
-0.999441
-0.990608
-0.982915
-0.976463
-0.971097
-0.966600
-0.962772
-0.959447
-0.956494
-0.953810
-0.951317
-0.948954
-0.946670
-0.944423
-0.942173
-0.939871
-0.937453
-0.934815
-0.931793
-0.928138
-0.923568
-0.918241
-0.912464
-0.906678
-0.901308
-0.896719
-0.892913
3.119873
0.000000
0.000000
0.000000
0.000000
0.000000
0.000000
0.000000
0.000000
0.000000
0.000000
0.000000
0.000000
0.000000
0.000000
0.000000
0.000000
0.000000
0.000000
0.000000
0.000000
0.000000
0.000000
0.000000
0.000000
0.000000
0.000000
0.000000
0.000000
0.000000
0.000000
0.000000
0.000000
0.000000
0.000000
0.000000
0.000000
0.000000
0.000000
0.000000
0.000000
0.000000
0.000000
0.000000
0.000000
0.000000
0.000000
0.000000
0.000000
0.000000
0.000000
0.000000
0.000000
0.000000
0.000000
0.000000
0.000000
0.000000
0.000000
0.000000
0.000000
0.000000
0.000000
0.000000
0.000000
0.000000
0.000000
0.000000
0.000000
0.000000
0.000000
0.000000
0.000000
0.000000
0.000000
0.000000
0.000000
0.000000
0.000000
0.000000
0.000000
0.000000
0.000000
0.000000
0.000000
0.000000
0.000000
0.000000
0.000000
0.000000
0.000000
0.000000
0.000000
0.000000
0.000000
0.000000
0.000000
0.000000
0.000000
0.000000
0.000000
0.000000
0.000000
0.000000
0.000000
0.000000
0.000000
-1.042918
-1.019131
-1.001983
-0.992273
-0.988433
-0.993963
-0.998564
-0.979856
-0.966091
-0.957833
-0.953813
-0.953075
-0.955128
-0.959742
-0.963436
-0.953002
-0.942286
-0.934554
-0.929388
-0.924984
-0.919589
-0.913982
-0.908943
-0.904848
-0.901796
-0.899750
-0.898623
-0.898313
-0.898718
-0.899745
-0.901312
-0.903342
-0.905770
-0.908537
-0.911591
-0.914886
-0.918384
-0.922050
-0.925853
-0.929767
-0.933769
-0.937839
-0.941960
-0.946116
-0.950295
-0.954484
-0.958672
-0.962850
-0.967007
-0.971136
-0.975227
-0.979272
-0.983261
-0.987183
-0.991028
-0.994782
-0.998425
-1.001934
-1.005270
-1.008369
-1.011123
-1.013331
-1.014621
-1.014338
-1.011552
-1.005987
-0.998928
-0.991632
-0.984827
-0.978793
-0.973556
-0.969029
-0.965090
-0.961616
-0.958500
-0.955650
-0.952993
-0.950466
-0.948018
-0.945600
-0.943166
-0.940659
-0.938011
-0.935124
-0.931873
-0.928110
-0.923736
-0.918841
-0.913648
-0.908467
-0.903614
-0.899366
-0.895386
3.119872
1.925940
0.646006
1.024934
0.000000
0.000000
0.000000
0.000000
0.000000
0.000000
0.000000
0.000000
0.000000
0.000000
0.000000
0.000000
0.000000
0.000000
0.000000
0.000000
0.000000
0.000000
0.000000
0.000000
0.000000
0.000000
0.000000
0.000000
0.000000
0.000000
0.000000
0.000000
0.000000
0.000000
0.000000
0.000000
0.000000
0.000000
0.000000
0.000000
0.000000
0.000000
0.000000
0.000000
0.000000
0.000000
0.000000
0.000000
0.000000
0.000000
0.000000
0.000000
0.000000
0.000000
0.000000
0.000000
0.000000
0.000000
0.000000
0.000000
0.000000
0.000000
0.000000
0.000000
0.000000
0.000000
0.000000
0.000000
0.000000
0.000000
0.000000
0.000000
0.000000
0.000000
0.000000
0.000000
0.000000
0.000000
0.000000
0.000000
0.000000
0.000000
0.000000
0.000000
0.000000
0.000000
0.000000
0.000000
0.000000
0.000000
0.000000
0.000000
0.000000
0.000000
0.000000
0.000000
0.000000
0.000000
0.000000
0.000000
0.000000
0.000000
-1.103281
-1.067234
-1.043960
-1.033222
-1.037310
-1.042919
-1.019132
-1.001984
-0.992274
-0.988434
-0.989364
-0.991328
-0.980368
-0.969239
-0.961418
-0.957079
-0.955654
-0.956397
-0.958085
-0.957840
-0.951666
-0.943886
-0.937006
-0.931430
-0.926474
-0.921426
-0.916461
-0.911969
-0.908231
-0.905368
-0.903393
-0.902260
-0.901895
-0.902215
-0.903140
-0.904592
-0.906501
-0.908805
-0.911445
-0.914373
-0.917544
-0.920919
-0.924463
-0.928147
-0.931945
-0.935834
-0.939793
-0.943806
-0.947856
-0.951930
-0.956015
-0.960100
-0.964173
-0.968226
-0.972246
-0.976224
-0.980149
-0.984008
-0.987788
-0.991471
-0.995038
-0.998461
-1.001701
-1.004702
-1.007378
-1.009597
-1.011151
-1.011728
-1.010912
-1.008304
-1.003903
-0.998328
-0.992320
-0.986426
-0.980947
-0.975995
-0.971570
-0.967619
-0.964065
-0.960828
-0.957837
-0.955026
-0.952338
-0.949723
-0.947130
-0.944513
-0.941814
-0.938971
-0.935905
-0.932528
-0.928764
-0.924581
-0.920051
-0.915331
-0.910635
-0.906186
-0.902165
-0.897937
1.638989
0.732007
0.646006
1.024933
0.446914
0.018308
0.231053
0.419622
0.000000
0.000000
0.000000
0.000000
0.000000
0.000000
0.000000
0.000000
0.000000
0.000000
0.000000
0.000000
0.000000
0.000000
0.000000
0.000000
0.000000
0.000000
0.000000
0.000000
0.000000
0.000000
0.000000
0.000000
0.000000
0.000000
0.000000
0.000000
0.000000
0.000000
0.000000
0.000000
0.000000
0.000000
0.000000
0.000000
0.000000
0.000000
0.000000
0.000000
0.000000
0.000000
0.000000
0.000000
0.000000
0.000000
0.000000
0.000000
0.000000
0.000000
0.000000
0.000000
0.000000
0.000000
0.000000
0.000000
0.000000
0.000000
0.000000
0.000000
0.000000
0.000000
0.000000
0.000000
0.000000
0.000000
0.000000
0.000000
0.000000
0.000000
0.000000
0.000000
0.000000
0.000000
0.000000
0.000000
0.000000
0.000000
0.000000
0.000000
0.000000
0.000000
0.000000
0.000000
0.000000
0.000000
0.000000
0.000000
-1.150989
-1.111463
-1.085264
-1.072797
-1.070773
-1.090194
-1.103281
-1.067235
-1.043961
-1.033223
-1.031703
-1.033931
-1.020077
-1.006264
-0.996873
-0.991885
-0.989843
-0.987506
-0.980278
-0.972043
-0.965364
-0.961003
-0.958781
-0.958024
-0.957585
-0.955764
-0.951216
-0.945332
-0.939473
-0.934149
-0.929248
-0.924545
-0.920097
-0.916102
-0.912741
-0.910118
-0.908266
-0.907165
-0.906766
-0.907007
-0.907821
-0.909140
-0.910902
-0.913048
-0.915527
-0.918289
-0.921294
-0.924503
-0.927883
-0.931406
-0.935045
-0.938778
-0.942584
-0.946447
-0.950349
-0.954278
-0.958219
-0.962160
-0.966090
-0.969996
-0.973867
-0.977690
-0.981452
-0.985136
-0.988727
-0.992201
-0.995532
-0.998685
-1.001612
-1.004247
-1.006499
-1.008238
-1.009288
-1.009423
-1.008400
-1.006054
-1.002444
-0.997915
-0.992916
-0.987833
-0.982925
-0.978329
-0.974093
-0.970209
-0.966639
-0.963332
-0.960236
-0.957298
-0.954470
-0.951704
-0.948956
-0.946179
-0.943325
-0.940338
-0.937161
-0.933738
-0.930028
-0.926031
-0.921804
-0.917459
-0.913142
-0.909003
-0.905159
-0.900759
0.942299
0.689893
0.608735
0.504567
-0.131106
0.018308
0.231053
0.419622
0.072365
-0.129297
0.032765
0.182049
0.000000
0.000000
0.000000
0.000000
0.000000
0.000000
0.000000
0.000000
0.000000
0.000000
0.000000
0.000000
0.000000
0.000000
0.000000
0.000000
0.000000
0.000000
0.000000
0.000000
0.000000
0.000000
0.000000
0.000000
0.000000
0.000000
0.000000
0.000000
0.000000
0.000000
0.000000
0.000000
0.000000
0.000000
0.000000
0.000000
0.000000
0.000000
0.000000
0.000000
0.000000
0.000000
0.000000
0.000000
0.000000
0.000000
0.000000
0.000000
0.000000
0.000000
0.000000
0.000000
0.000000
0.000000
0.000000
0.000000
0.000000
0.000000
0.000000
0.000000
0.000000
0.000000
0.000000
0.000000
0.000000
0.000000
0.000000
0.000000
0.000000
0.000000
0.000000
0.000000
0.000000
0.000000
0.000000
0.000000
0.000000
0.000000
0.000000
-1.230748
-1.174157
-1.139361
-1.125397
-1.138651
-1.150989
-1.111464
-1.085264
-1.072798
-1.070774
-1.077108
-1.086338
-1.068095
-1.050224
-1.039177
-1.033841
-1.029769
-1.020215
-1.009729
-1.001292
-0.995489
-0.991436
-0.987304
-0.981441
-0.975015
-0.969375
-0.965155
-0.962340
-0.960462
-0.958723
-0.956185
-0.952298
-0.947524
-0.942533
-0.937717
-0.933167
-0.928871
-0.924890
-0.921339
-0.918338
-0.915967
-0.914260
-0.913213
-0.912796
-0.912963
-0.913662
-0.914836
-0.916431
-0.918396
-0.920683
-0.923248
-0.926051
-0.929059
-0.932238
-0.935561
-0.939004
-0.942543
-0.946160
-0.949835
-0.953555
-0.957302
-0.961064
-0.964827
-0.968578
-0.972304
-0.975992
-0.979625
-0.983189
-0.986665
-0.990031
-0.993262
-0.996327
-0.999184
-1.001784
-1.004059
-1.005922
-1.007261
-1.007939
-1.007806
-1.006725
-1.004630
-1.001589
-0.997814
-0.993588
-0.989180
-0.984795
-0.980564
-0.976554
-0.972785
-0.969246
-0.965912
-0.962748
-0.959714
-0.956773
-0.953884
-0.951010
-0.948109
-0.945141
-0.942063
-0.938833
-0.935416
-0.931792
-0.927971
-0.923999
-0.919954
-0.915936
-0.912046
-0.908364
-0.903893
0.626880
0.550966
0.472121
0.352254
0.120445
0.117190
0.174829
0.111740
-0.274893
-0.129297
0.032765
0.182049
-0.119561
-0.290510
-0.145833
-0.005966
0.000000
0.000000
0.000000
0.000000
0.000000
0.000000
0.000000
0.000000
0.000000
0.000000
0.000000
0.000000
0.000000
0.000000
0.000000
0.000000
0.000000
0.000000
0.000000
0.000000
0.000000
0.000000
0.000000
0.000000
0.000000
0.000000
0.000000
0.000000
0.000000
0.000000
0.000000
0.000000
0.000000
0.000000
0.000000
0.000000
0.000000
0.000000
0.000000
0.000000
0.000000
0.000000
0.000000
0.000000
0.000000
0.000000
0.000000
0.000000
0.000000
0.000000
0.000000
0.000000
0.000000
0.000000
0.000000
0.000000
0.000000
0.000000
0.000000
0.000000
0.000000
0.000000
0.000000
0.000000
0.000000
0.000000
0.000000
0.000000
0.000000
-1.295521
-1.230711
-1.190132
-1.173030
-1.172759
-1.207924
-1.230749
-1.174158
-1.139362
-1.125398
-1.126314
-1.133919
-1.112993
-1.092767
-1.080620
-1.076168
-1.076705
-1.076458
-1.066063
-1.053516
-1.043413
-1.036121
-1.029592
-1.021456
-1.012898
-1.005337
-0.999248
-0.994227
-0.989390
-0.984078
-0.978641
-0.973699
-0.969633
-0.966455
-0.963872
-0.961394
-0.958504
-0.954930
-0.950821
-0.946500
-0.942222
-0.938119
-0.934257
-0.930706
-0.927552
-0.924878
-0.922744
-0.921182
-0.920195
-0.919766
-0.919862
-0.920442
-0.921463
-0.922879
-0.924645
-0.926719
-0.929063
-0.931640
-0.934418
-0.937369
-0.940464
-0.943681
-0.946998
-0.950396
-0.953858
-0.957366
-0.960905
-0.964462
-0.968021
-0.971569
-0.975090
-0.978570
-0.981991
-0.985335
-0.988580
-0.991704
-0.994676
-0.997464
-1.000024
-1.002307
-1.004248
-1.005772
-1.006787
-1.007195
-1.006897
-1.005818
-1.003936
-1.001311
-0.998084
-0.994441
-0.990570
-0.986629
-0.982732
-0.978949
-0.975313
-0.971834
-0.968502
-0.965299
-0.962199
-0.959173
-0.956191
-0.953223
-0.950234
-0.947194
-0.944068
-0.940828
-0.937452
-0.933931
-0.930275
-0.926519
-0.922718
-0.918941
-0.915259
-0.911729
-0.907274
0.454803
0.425341
0.370095
0.292204
0.185307
0.137486
0.112849
0.038414
-0.098038
-0.073086
-0.019965
-0.081638
-0.421170
-0.290510
-0.145833
-0.005967
-0.319139
-0.525658
-0.400643
-0.304848
-0.192298
0.000000
0.000000
0.000000
0.000000
0.000000
0.000000
0.000000
0.000000
0.000000
0.000000
0.000000
0.000000
0.000000
0.000000
0.000000
0.000000
0.000000
0.000000
0.000000
0.000000
0.000000
0.000000
0.000000
0.000000
0.000000
0.000000
0.000000
0.000000
0.000000
0.000000
0.000000
0.000000
0.000000
0.000000
0.000000
0.000000
0.000000
0.000000
0.000000
0.000000
0.000000
0.000000
0.000000
0.000000
0.000000
0.000000
0.000000
0.000000
0.000000
0.000000
0.000000
0.000000
0.000000
0.000000
0.000000
0.000000
0.000000
0.000000
-1.383820
-1.304923
-1.254725
-1.232895
-1.231308
-1.270001
-1.295521
-1.230712
-1.190133
-1.173031
-1.172760
-1.185101
-1.202032
-1.175047
-1.149143
-1.134479
-1.128961
-1.125368
-1.112264
-1.097789
-1.086984
-1.080643
-1.077068
-1.072907
-1.064918
-1.055324
-1.046368
-1.038620
-1.031391
-1.023865
-1.016344
-1.009422
-1.003363
-0.998006
-0.992956
-0.987931
-0.983027
-0.978510
-0.974565
-0.971192
-0.968214
-0.965342
-0.962290
-0.958902
-0.955222
-0.951403
-0.947604
-0.943939
-0.940489
-0.937325
-0.934518
-0.932128
-0.930204
-0.928772
-0.927838
-0.927395
-0.927419
-0.927880
-0.928744
-0.929974
-0.931532
-0.933382
-0.935491
-0.937827
-0.940360
-0.943064
-0.945914
-0.948887
-0.951964
-0.955126
-0.958355
-0.961635
-0.964950
-0.968286
-0.971626
-0.974957
-0.978261
-0.981521
-0.984720
-0.987835
-0.990845
-0.993723
-0.996438
-0.998955
-1.001234
-1.003224
-1.004871
-1.006109
-1.006868
-1.007076
-1.006671
-1.005612
-1.003896
-1.001574
-0.998743
-0.995532
-0.992074
-0.988491
-0.984876
-0.981296
-0.977790
-0.974379
-0.971066
-0.967844
-0.964700
-0.961614
-0.958566
-0.955532
-0.952487
-0.949408
-0.946269
-0.943050
-0.939737
-0.936325
-0.932822
-0.929253
-0.925655
-0.922076
-0.918565
-0.915170
-0.910774
0.345403
0.330226
0.293484
0.241379
0.177013
0.126307
0.082296
0.025194
-0.040685
-0.062007
-0.075883
-0.143074
-0.265719
-0.243341
-0.198374
-0.270449
-0.632312
-0.525658
-0.400643
-0.304849
-0.192299
-0.505473
-0.740911
-0.634693
-0.558398
-0.485855
-0.379463
0.000000
0.000000
0.000000
0.000000
0.000000
0.000000
0.000000
0.000000
0.000000
0.000000
0.000000
0.000000
0.000000
0.000000
0.000000
0.000000
0.000000
0.000000
0.000000
0.000000
0.000000
0.000000
0.000000
0.000000
0.000000
0.000000
0.000000
0.000000
0.000000
0.000000
0.000000
0.000000
0.000000
0.000000
0.000000
0.000000
0.000000
0.000000
0.000000
0.000000
0.000000
0.000000
0.000000
0.000000
0.000000
0.000000
-1.517955
-1.410472
-1.341804
-1.311639
-1.308131
-1.353392
-1.383820
-1.304924
-1.254726
-1.232895
-1.231309
-1.244483
-1.262863
-1.231601
-1.201567
-1.184875
-1.180339
-1.183319
-1.184888
-1.170578
-1.153160
-1.139785
-1.130844
-1.122986
-1.112328
-1.100998
-1.091358
-1.084081
-1.078333
-1.072457
-1.065161
-1.057011
-1.048954
-1.041399
-1.034198
-1.027107
-1.020216
-1.013765
-1.007882
-1.002507
-0.997471
-0.992648
-0.988056
-0.983796
-0.979945
-0.976487
-0.973313
-0.970255
-0.967149
-0.963903
-0.960523
-0.957083
-0.953679
-0.950397
-0.947310
-0.944480
-0.941966
-0.939815
-0.938066
-0.936741
-0.935849
-0.935385
-0.935336
-0.935678
-0.936386
-0.937430
-0.938779
-0.940404
-0.942275
-0.944365
-0.946647
-0.949098
-0.951695
-0.954417
-0.957247
-0.960165
-0.963155
-0.966200
-0.969286
-0.972396
-0.975514
-0.978625
-0.981710
-0.984752
-0.987730
-0.990622
-0.993403
-0.996046
-0.998519
-1.000787
-1.002810
-1.004544
-1.005939
-1.006942
-1.007498
-1.007556
-1.007076
-1.006036
-1.004443
-1.002336
-0.999787
-0.996888
-0.993737
-0.990427
-0.987035
-0.983622
-0.980229
-0.976881
-0.973590
-0.970360
-0.967186
-0.964058
-0.960964
-0.957888
-0.954812
-0.951719
-0.948592
-0.945415
-0.942178
-0.938878
-0.935518
-0.932112
-0.928685
-0.925267
-0.921894
-0.918605
-0.914260
0.266364
0.256857
0.231750
0.194971
0.150170
0.106390
0.063591
0.017514
-0.029413
-0.064638
-0.099164
-0.150789
-0.211663
-0.232905
-0.251185
-0.326979
-0.465037
-0.453386
-0.400518
-0.364152
-0.447546
-0.818647
-0.740911
-0.634693
-0.558398
-0.485855
-0.379463
-0.739354
-1.061849
-0.975685
-0.928161
-0.897630
-0.875554
-0.857664
-0.841262
-0.824149
-0.803955
-0.777289
-0.737838
-0.655242
0.000000
0.000000
0.000000
0.000000
0.000000
0.000000
0.000000
0.000000
0.000000
0.000000
0.000000
0.000000
0.000000
0.000000
0.000000
0.000000
0.000000
0.000000
0.000000
0.000000
0.000000
0.000000
0.000000
0.000000
0.000000
0.000000
-1.721212
-1.561339
-1.456060
-1.406609
-1.393612
-1.404517
-1.474657
-1.517956
-1.410473
-1.341804
-1.311640
-1.308132
-1.322965
-1.343853
-1.305228
-1.267918
-1.246732
-1.240167
-1.242570
-1.243566
-1.226837
-1.207029
-1.192706
-1.185125
-1.181585
-1.177000
-1.166517
-1.153682
-1.141932
-1.132051
-1.122893
-1.113149
-1.103359
-1.094480
-1.086866
-1.080141
-1.073532
-1.066466
-1.059043
-1.051630
-1.044460
-1.037550
-1.030855
-1.024422
-1.018350
-1.012701
-1.007453
-1.002534
-0.997885
-0.993503
-0.989417
-0.985649
-0.982176
-0.978928
-0.975805
-0.972712
-0.969591
-0.966437
-0.963288
-0.960200
-0.957236
-0.954452
-0.951899
-0.949626
-0.947670
-0.946061
-0.944821
-0.943956
-0.943467
-0.943343
-0.943570
-0.944127
-0.944991
-0.946138
-0.947543
-0.949182
-0.951030
-0.953065
-0.955267
-0.957614
-0.960088
-0.962672
-0.965349
-0.968102
-0.970917
-0.973776
-0.976664
-0.979566
-0.982463
-0.985339
-0.988172
-0.990942
-0.993624
-0.996195
-0.998623
-1.000879
-1.002927
-1.004730
-1.006246
-1.007432
-1.008245
-1.008641
-1.008584
-1.008047
-1.007018
-1.005508
-1.003549
-1.001194
-0.998514
-0.995581
-0.992470
-0.989244
-0.985957
-0.982650
-0.979350
-0.976078
-0.972841
-0.969644
-0.966485
-0.963359
-0.960256
-0.957167
-0.954079
-0.950980
-0.947859
-0.944707
-0.941519
-0.938294
-0.935036
-0.931756
-0.928471
-0.925203
-0.921981
-0.917635
0.205425
0.198820
0.180831
0.153726
0.120169
0.084030
0.046580
0.007493
-0.032124
-0.069231
-0.106965
-0.149984
-0.194895
-0.230325
-0.267697
-0.324472
-0.391438
-0.411793
-0.410827
-0.425749
-0.506850
-0.656978
-0.661058
-0.617791
-0.574875
-0.553297
-0.660055
-1.099245
-1.061849
-0.975685
-0.928161
-0.897631
-0.875554
-0.857664
-0.841262
-0.824149
-0.803955
-0.777289
-0.737839
-0.655242
-1.031624
-1.410210
-1.341037
-1.308482
-1.292244
-1.284705
-1.282443
-1.283692
-1.287451
-1.293119
-1.300326
-1.308851
-1.318575
-1.329419
-1.341458
-1.354475
-1.368245
-1.382960
-1.398842
-1.416185
-1.435403
-1.457100
-1.482207
-1.512280
-1.550219
-1.657414
-1.721213
-1.561339
-1.456061
-1.406610
-1.393613
-1.404518
-1.431360
-1.459804
-1.407865
-1.357407
-1.328463
-1.318550
-1.319955
-1.319740
-1.298463
-1.273644
-1.255512
-1.245523
-1.240494
-1.234603
-1.222447
-1.208194
-1.195987
-1.187043
-1.180177
-1.172974
-1.163580
-1.152920
-1.142431
-1.132685
-1.123413
-1.114220
-1.105256
-1.096882
-1.089248
-1.082182
-1.075329
-1.068414
-1.061421
-1.054481
-1.047712
-1.041160
-1.034840
-1.028785
-1.023043
-1.017643
-1.012580
-1.007823
-1.003341
-0.999125
-0.995177
-0.991494
-0.988053
-0.984805
-0.981690
-0.978650
-0.975649
-0.972679
-0.969758
-0.966923
-0.964216
-0.961679
-0.959353
-0.957274
-0.955474
-0.953977
-0.952800
-0.951952
-0.951433
-0.951238
-0.951355
-0.951771
-0.952466
-0.953423
-0.954620
-0.956038
-0.957656
-0.959455
-0.961418
-0.963525
-0.965761
-0.968109
-0.970553
-0.973079
-0.975672
-0.978315
-0.980993
-0.983690
-0.986388
-0.989068
-0.991710
-0.994290
-0.996786
-0.999169
-1.001411
-1.003480
-1.005342
-1.006960
-1.008298
-1.009316
-1.009977
-1.010248
-1.010100
-1.009516
-1.008488
-1.007029
-1.005166
-1.002940
-1.000404
-0.997619
-0.994642
-0.991529
-0.988327
-0.985076
-0.981806
-0.978539
-0.975291
-0.972072
-0.968886
-0.965735
-0.962615
-0.959523
-0.956452
-0.953394
-0.950339
-0.947279
-0.944205
-0.941111
-0.937993
-0.934848
-0.931677
-0.928486
-0.925291
-0.920867
0.156865
0.151980
0.138490
0.117724
0.091417
0.061590
0.029458
-0.004438
-0.039425
-0.074620
-0.110822
-0.149189
-0.188649
-0.226622
-0.266371
-0.311972
-0.358225
-0.389773
-0.413803
-0.447294
-0.506332
-0.579768
-0.606298
-0.604955
-0.602758
-0.627366
-0.729781
-0.921628
-0.957837
-0.936304
-0.910414
-0.888887
-0.871583
-0.856990
-0.843630
-0.830296
-0.816392
-0.803788
-0.805904
-0.934828
-1.408008
-1.410210
-1.341037
-1.308482
-1.292244
-1.284706
-1.282443
-1.283692
-1.287451
-1.293119
-1.300326
-1.308852
-1.318576
-1.329420
-1.341458
-1.354476
-1.368245
-1.382960
-1.398843
-1.416186
-1.435404
-1.457100
-1.482208
-1.512281
-1.550219
-1.593617
-1.626294
-1.548550
-1.472841
-1.427836
-1.409738
-1.409932
-1.418681
-1.420763
-1.393553
-1.361055
-1.336961
-1.323152