# vtk DataFile Version 3.0
Scalar Field
ASCII
DATASET RECTILINEAR_GRID
DIMENSIONS 200 50 1
X_COORDINATES 200 double
0.050000 0.150000 0.250000 0.350000 0.450000 0.550000 0.650000 0.750000 0.850000 0.950000 1.050000 1.150000 1.250000 1.350000 1.450000 1.550000 1.650000 1.750000 1.850000 1.950000 2.050000 2.150000 2.250000 2.350000 2.450000 2.550000 2.650000 2.750000 2.850000 2.950000 3.050000 3.150000 3.250000 3.350000 3.450000 3.550000 3.650000 3.750000 3.850000 3.950000 4.050000 4.150000 4.250000 4.350000 4.450000 4.550000 4.650000 4.750000 4.850000 4.950000 5.050000 5.150000 5.250000 5.350000 5.450000 5.550000 5.650000 5.750000 5.850000 5.950000 6.050000 6.150000 6.250000 6.350000 6.450000 6.550000 6.650000 6.750000 6.850000 6.950000 7.050000 7.150000 7.250000 7.350000 7.450000 7.550000 7.650000 7.750000 7.850000 7.950000 8.050000 8.150000 8.250000 8.350000 8.450000 8.550000 8.650000 8.750000 8.850000 8.950000 9.050000 9.150000 9.250000 9.350000 9.450000 9.550000 9.650000 9.750000 9.850000 9.950000 10.050000 10.150000 10.250000 10.350000 10.450000 10.550000 10.650000 10.750000 10.850000 10.950000 11.050000 11.150000 11.250000 11.350000 11.450000 11.550000 11.650000 11.750000 11.850000 11.950000 12.050000 12.150000 12.250000 12.350000 12.450000 12.550000 12.650000 12.750000 12.850000 12.950000 13.050000 13.150000 13.250000 13.350000 13.450000 13.550000 13.650000 13.750000 13.850000 13.950000 14.050000 14.150000 14.250000 14.350000 14.450000 14.550000 14.650000 14.750000 14.850000 14.950000 15.050000 15.150000 15.250000 15.350000 15.450000 15.550000 15.650000 15.750000 15.850000 15.950000 16.050000 16.150000 16.250000 16.350000 16.450000 16.550000 16.650000 16.750000 16.850000 16.950000 17.050000 17.150000 17.250000 17.350000 17.450000 17.550000 17.650000 17.750000 17.850000 17.950000 18.050000 18.150000 18.250000 18.350000 18.450000 18.550000 18.650000 18.750000 18.850000 18.950000 19.050000 19.150000 19.250000 19.350000 19.450000 19.550000 19.650000 19.750000 19.850000 19.950000 
Y_COORDINATES 50 double
0.050000 0.150000 0.250000 0.350000 0.450000 0.550000 0.650000 0.750000 0.850000 0.950000 1.050000 1.150000 1.250000 1.350000 1.450000 1.550000 1.650000 1.750000 1.850000 1.950000 2.050000 2.150000 2.250000 2.350000 2.450000 2.550000 2.650000 2.750000 2.850000 2.950000 3.050000 3.150000 3.250000 3.350000 3.450000 3.550000 3.650000 3.750000 3.850000 3.950000 4.050000 4.150000 4.250000 4.350000 4.450000 4.550000 4.650000 4.750000 4.850000 4.950000 
Z_COORDINATES 1 double
0.0
POINT_DATA 10000
SCALARS Skalarfeld double 1
LOOKUP_TABLE default
0.000000
0.000000
0.000000
0.000000
0.000000
0.000000
0.000000
0.000000
0.000000
0.000000
0.000000
0.000000
0.000000
0.000000
0.000000
0.000000
0.000000
0.000000
0.000000
0.000000
0.000000
0.000000
0.000000
0.000000
0.000000
0.000000
0.000000
0.000000
0.000000
0.000000
0.000000
0.000000
0.000000
0.000000
0.000000
0.000000
0.000000
0.000000
0.000000
0.000000
0.000000
0.000000
0.000000
0.000000
0.000000
0.000000
0.000000
0.000000
0.000000
0.000000
0.000000
0.000000
0.000000
0.000000
0.000000
0.000000
0.000000
0.000000
0.000000
0.000000
0.000000
0.000000
0.000000
0.000000
0.000000
0.000000
0.000000
0.000000
0.000000
0.000000
0.000000
0.000000
0.000000
0.000000
0.000000
0.000000
0.000000
0.000000
0.000000
0.000000
0.000000
0.000000
0.000000
0.000000
0.000000
0.000000
0.000000
0.000000
0.000000
0.000000
0.000000
0.000000
0.000000
0.000000
0.000000
0.000000
0.000000
0.000000
0.000000
0.000000
0.000000
0.000000
0.000000
0.000000
0.000000
0.000000
0.000000
0.000000
0.000000
0.000000
0.000000
0.000000
0.000000
0.000000
0.000000
0.000000
0.000000
0.000000
0.000000
0.000000
0.000000
0.000000
0.000000
0.000000
0.000000
0.000000
0.000000
0.000000
0.000000
0.000000
0.000000
0.000000
0.000000
0.000000
0.000000
0.000000
0.000000
0.000000
0.000000
0.000000
0.000000
0.000000
0.000000
0.000000
0.000000
0.000000
0.000000
0.000000
0.000000
0.000000
0.000000
0.000000
0.000000
0.000000
0.000000
0.000000
0.000000
0.000000
0.000000
0.000000
0.000000
0.000000
0.000000
0.000000
0.000000
0.000000
0.000000
0.000000
0.000000
0.000000
0.000000
0.000000
0.000000
0.000000
0.000000
0.000000
0.000000
0.000000
0.000000
0.000000
0.000000
0.000000
0.000000
0.000000
0.000000
0.000000
0.000000
0.000000
0.000000
0.000000
0.000000
0.000000
0.000000
-1.007833
-1.001377
-0.997175
-0.995011
-0.994158
-0.994175
-0.995025
0.000000
0.000000
0.000000
0.000000
0.000000
0.000000
0.000000
0.000000
0.000000
0.000000
0.000000
0.000000
0.000000
0.000000
0.000000
0.000000
0.000000
0.000000
0.000000
0.000000
0.000000
0.000000
0.000000
0.000000
0.000000
0.000000
0.000000
0.000000
0.000000
0.000000
0.000000
0.000000
0.000000
0.000000
0.000000
0.000000
0.000000
0.000000
0.000000
0.000000
0.000000
0.000000
0.000000
0.000000
0.000000
0.000000
0.000000
0.000000
0.000000
0.000000
0.000000
0.000000
0.000000
0.000000
0.000000
0.000000
0.000000
0.000000
0.000000
0.000000
0.000000
0.000000
0.000000
0.000000
0.000000
0.000000
0.000000
0.000000
0.000000
0.000000
0.000000
0.000000
0.000000
0.000000
0.000000
0.000000
0.000000
0.000000
0.000000
0.000000
0.000000
0.000000
0.000000
0.000000
0.000000
0.000000
0.000000
0.000000
0.000000
0.000000
0.000000
0.000000
0.000000
0.000000
0.000000
0.000000
0.000000
0.000000
0.000000
0.000000
0.000000
0.000000
0.000000
0.000000
0.000000
0.000000
0.000000
0.000000
0.000000
0.000000
0.000000
0.000000
0.000000
0.000000
0.000000
0.000000
0.000000
0.000000
0.000000
0.000000
0.000000
0.000000
0.000000
0.000000
0.000000
0.000000
0.000000
0.000000
0.000000
0.000000
0.000000
0.000000
0.000000
0.000000
0.000000
0.000000
0.000000
0.000000
0.000000
0.000000
0.000000
0.000000
0.000000
0.000000
0.000000
0.000000
0.000000
0.000000
0.000000
0.000000
0.000000
0.000000
0.000000
0.000000
0.000000
0.000000
0.000000
0.000000
0.000000
0.000000
0.000000
0.000000
0.000000
0.000000
0.000000
0.000000
0.000000
0.000000
0.000000
0.000000
0.000000
-1.039477
-1.021942
-1.007700
-0.997761
-0.991107
-0.986727
-0.983928
-0.982263
-0.981444
-0.981282
-0.981648
-0.982452
-0.983631
-0.985138
-0.986939
-0.989002
-0.991304
-0.993817
-0.996511
-0.999340
-1.002228
-1.006406
-1.007832
-1.001376
-0.997174
-0.995010
-0.994157
-0.994174
-0.995024
0.000000
0.000000
0.000000
0.000000
0.000000
0.000000
0.000000
0.000000
0.000000
0.000000
0.000000
0.000000
0.000000
0.000000
0.000000
0.000000
0.000000
0.000000
0.000000
0.000000
0.000000
0.000000
0.000000
0.000000
0.000000
0.000000
0.000000
0.000000
0.000000
0.000000
0.000000
0.000000
0.000000
0.000000
0.000000
0.000000
0.000000
0.000000
0.000000
0.000000
0.000000
0.000000
0.000000
0.000000
0.000000
0.000000
0.000000
0.000000
0.000000
0.000000
0.000000
0.000000
0.000000
0.000000
0.000000
0.000000
0.000000
0.000000
0.000000
0.000000
0.000000
0.000000
0.000000
0.000000
0.000000
0.000000
0.000000
0.000000
0.000000
0.000000
0.000000
0.000000
0.000000
0.000000
0.000000
0.000000
0.000000
0.000000
0.000000
0.000000
0.000000
0.000000
0.000000
0.000000
0.000000
0.000000
0.000000
0.000000
0.000000
0.000000
0.000000
0.000000
0.000000
0.000000
0.000000
0.000000
0.000000
0.000000
0.000000
0.000000
0.000000
0.000000
0.000000
0.000000
0.000000
0.000000
0.000000
0.000000
0.000000
0.000000
0.000000
0.000000
0.000000
0.000000
0.000000
0.000000
0.000000
0.000000
0.000000
0.000000
0.000000
0.000000
0.000000
0.000000
0.000000
0.000000
-0.921635
-0.913996
-0.906811
-0.900997
-0.896621
-0.893541
-0.891592
-0.890625
-0.890510
-0.891134
-0.892399
-0.894218
-0.896516
-0.899225
-0.902285
-0.905645
-0.909258
-0.913083
-0.917084
-0.921230
-0.925493
-0.929848
-0.934274
-0.938753
-0.943267
-0.947802
-0.952348
-0.956891
-0.961425
-0.965942
-0.970435
-0.974901
-0.979336
-0.983741
-0.988115
-0.992461
-0.996784
-1.001092
-1.005394
-1.009705
-1.014042
-1.018427
-1.022887
-1.027460
-1.035745
-1.039476
-1.021941
-1.007699
-0.997760
-0.991106
-0.986726
-0.983927
-0.982262
-0.981443
-0.981281
-0.981647
-0.982451
-0.983630
-0.985137
-0.986937
-0.989001
-0.991303
-0.993816
-0.996509
-0.999339
-1.002227
-1.004977
-1.005049
-1.000877
-0.997275
-0.995152
-0.994275
-0.994373
-0.995609
0.000000
0.000000
0.000000
0.000000
0.000000
0.000000
0.000000
0.000000
0.000000
0.000000
0.000000
0.000000
0.000000
0.000000
0.000000
0.000000
0.000000
0.000000
0.000000
0.000000
0.000000
0.000000
0.000000
0.000000
0.000000
0.000000
0.000000
0.000000
0.000000
0.000000
0.000000
0.000000
0.000000
0.000000
0.000000
0.000000
0.000000
0.000000
0.000000
0.000000
0.000000
0.000000
0.000000
0.000000
0.000000
0.000000
0.000000
0.000000
0.000000
0.000000
0.000000
0.000000
0.000000
0.000000
0.000000
0.000000
0.000000
0.000000
0.000000
0.000000
0.000000
0.000000
0.000000
0.000000
0.000000
0.000000
0.000000
0.000000
0.000000
0.000000
0.000000
0.000000
0.000000
0.000000
0.000000
0.000000
0.000000
0.000000
0.000000
0.000000
0.000000
0.000000
0.000000
0.000000
0.000000
0.000000
0.000000
0.000000
0.000000
0.000000
0.000000
0.000000
0.000000
0.000000
0.000000
0.000000
0.000000
0.000000
0.000000
0.000000
0.000000
0.000000
0.000000
0.000000
0.000000
0.000000
0.000000
0.000000
0.000000
0.000000
0.000000
0.000000
0.000000
0.000000
0.000000
0.000000
0.000000
0.000000
0.000000
0.000000
0.000000
-0.967096
-0.948299
-0.934965
-0.927151
-0.922447
-0.921634
-0.913996
-0.906811
-0.900996
-0.896620
-0.893540
-0.891592
-0.890625
-0.890509
-0.891133
-0.892398
-0.894217
-0.896515
-0.899224
-0.902284
-0.905644
-0.909257
-0.913082
-0.917084
-0.921229
-0.925492
-0.929847
-0.934273
-0.938752
-0.943266
-0.947802
-0.952347
-0.956891
-0.961424
-0.965941
-0.970434
-0.974900
-0.979335
-0.983740
-0.988114
-0.992460
-0.996783
-1.001091
-1.005393
-1.009704
-1.014041
-1.018426
-1.022886
-1.027459
-1.032012
-1.032146
-1.020740
-1.008767
-0.999335
-0.992579
-0.987958
-0.984927
-0.983072
-0.982105
-0.981827
-0.982100
-0.982828
-0.983942
-0.985392
-0.987136
-0.989141
-0.991373
-0.993792
-0.996337
-0.998900
-1.001254
-1.002876
-1.002605
-1.000190
-0.997648
-0.995950
-0.995298
-0.995714
-0.997609
0.000000
0.000000
0.000000
0.000000
0.000000
0.000000
0.000000
0.000000
0.000000
0.000000
0.000000
0.000000
0.000000
0.000000
0.000000
0.000000
0.000000
0.000000
0.000000
0.000000
0.000000
0.000000
0.000000
0.000000
0.000000
0.000000
0.000000
0.000000
0.000000
0.000000
0.000000
0.000000
0.000000
0.000000
0.000000
0.000000
0.000000
0.000000
0.000000
0.000000
0.000000
0.000000
0.000000
0.000000
0.000000
0.000000
0.000000
0.000000
0.000000
0.000000
0.000000
0.000000
0.000000
0.000000
0.000000
0.000000
0.000000
0.000000
0.000000
0.000000
0.000000
0.000000
0.000000
0.000000
0.000000
0.000000
0.000000
0.000000
0.000000
0.000000
0.000000
0.000000
0.000000
0.000000
0.000000
0.000000
0.000000
0.000000
0.000000
0.000000
0.000000
0.000000
0.000000
0.000000
0.000000
0.000000
0.000000
0.000000
0.000000
0.000000
0.000000
0.000000
0.000000
0.000000
0.000000
0.000000
0.000000
0.000000
0.000000
0.000000
0.000000
0.000000
0.000000
0.000000
0.000000
0.000000
0.000000
0.000000
0.000000
0.000000
0.000000
0.000000
0.000000
-0.994358
-0.975786
-0.962047
-0.953737
-0.949620
-0.948761
-0.950674
-0.961115
-0.967095
-0.948299
-0.934964
-0.927151
-0.923258
-0.920244
-0.914142
-0.907712
-0.902173
-0.897857
-0.894755
-0.892756
-0.891731
-0.891557
-0.892124
-0.893334
-0.895101
-0.897350
-0.900011
-0.903028
-0.906345
-0.909918
-0.913705
-0.917669
-0.921781
-0.926010
-0.930333
-0.934728
-0.939177
-0.943661
-0.948168
-0.952685
-0.957200
-0.961705
-0.966192
-0.970654
-0.975088
-0.979488
-0.983854
-0.988185
-0.992481
-0.996744
-1.000976
-1.005180
-1.009352
-1.013482
-1.017529
-1.021385
-1.024743
-1.026723
-1.024985
-1.017715
-1.008890
-1.000953
-0.994683
-0.990073
-0.986869
-0.984791
-0.983604
-0.983127
-0.983225
-0.983799
-0.984776
-0.986095
-0.987711
-0.989578
-0.991648
-0.993861
-0.996124
-0.998292
-1.000116
-1.001201
-1.001081
-0.999829
-0.998351
-0.997347
-0.997166
-0.998009
-1.000351
3.119408
0.000000
0.000000
0.000000
0.000000
0.000000
0.000000
0.000000
0.000000
0.000000
0.000000
0.000000
0.000000
0.000000
0.000000
0.000000
0.000000
0.000000
0.000000
0.000000
0.000000
0.000000
0.000000
0.000000
0.000000
0.000000
0.000000
0.000000
0.000000
0.000000
0.000000
0.000000
0.000000
0.000000
0.000000
0.000000
0.000000
0.000000
0.000000
0.000000
0.000000
0.000000
0.000000
0.000000
0.000000
0.000000
0.000000
0.000000
0.000000
0.000000
0.000000
0.000000
0.000000
0.000000
0.000000
0.000000
0.000000
0.000000
0.000000
0.000000
0.000000
0.000000
0.000000
0.000000
0.000000
0.000000
0.000000
0.000000
0.000000
0.000000
0.000000
0.000000
0.000000
0.000000
0.000000
0.000000
0.000000
0.000000
0.000000
0.000000
0.000000
0.000000
0.000000
0.000000
0.000000
0.000000
0.000000
0.000000
0.000000
0.000000
0.000000
0.000000
0.000000
0.000000
0.000000
0.000000
0.000000
0.000000
0.000000
0.000000
0.000000
0.000000
0.000000
0.000000
0.000000
0.000000
0.000000
-1.039126
-1.015491
-0.998378
-0.988616
-0.984667
-0.989904
-0.994358
-0.975786
-0.962047
-0.953736
-0.949620
-0.948760
-0.950673
-0.955134
-0.958685
-0.948262
-0.937556
-0.929807
-0.924610
-0.920177
-0.914778
-0.909183
-0.904166
-0.900101
-0.897087
-0.895087
-0.894016
-0.893774
-0.894262
-0.895388
-0.897070
-0.899232
-0.901809
-0.904741
-0.907976
-0.911469
-0.915177
-0.919066
-0.923103
-0.927260
-0.931512
-0.935838
-0.940218
-0.944635
-0.949074
-0.953522
-0.957969
-0.962403
-0.966818
-0.971204
-0.975557
-0.979872
-0.984143
-0.988369
-0.992544
-0.996665
-1.000723
-1.004706
-1.008587
-1.012316
-1.015789
-1.018805
-1.020969
-1.021563
-1.019545
-1.014559
-1.008188
-1.001913
-0.996519
-0.992259
-0.989108
-0.986938
-0.985595
-0.984942
-0.984863
-0.985267
-0.986079
-0.987236
-0.988684
-0.990369
-0.992232
-0.994197
-0.996164
-0.997988
-0.999472
-1.000381
-1.000542
-1.000078
-0.999452
-0.999127
-0.999433
-1.000593
-1.003161
3.119409
1.925467
0.645535
1.024460
0.000000
0.000000
0.000000
0.000000
0.000000
0.000000
0.000000
0.000000
0.000000
0.000000
0.000000
0.000000
0.000000
0.000000
0.000000
0.000000
0.000000
0.000000
0.000000
0.000000
0.000000
0.000000
0.000000
0.000000
0.000000
0.000000
0.000000
0.000000
0.000000
0.000000
0.000000
0.000000
0.000000
0.000000
0.000000
0.000000
0.000000
0.000000
0.000000
0.000000
0.000000
0.000000
0.000000
0.000000
0.000000
0.000000
0.000000
0.000000
0.000000
0.000000
0.000000
0.000000
0.000000
0.000000
0.000000
0.000000
0.000000
0.000000
0.000000
0.000000
0.000000
0.000000
0.000000
0.000000
0.000000
0.000000
0.000000
0.000000
0.000000
0.000000
0.000000
0.000000
0.000000
0.000000
0.000000
0.000000
0.000000
0.000000
0.000000
0.000000
0.000000
0.000000
0.000000
0.000000
0.000000
0.000000
0.000000
0.000000
0.000000
0.000000
0.000000
0.000000
0.000000
0.000000
0.000000
0.000000
0.000000
0.000000
-1.099719
-1.063842
-1.040611
-1.029820
-1.033655
-1.039126
-1.015491
-0.998378
-0.988616
-0.984667
-0.985450
-0.987255
-0.976305
-0.965166
-0.957291
-0.952862
-0.951325
-0.951941
-0.953503
-0.953156
-0.946942
-0.939138
-0.932232
-0.926625
-0.921644
-0.916586
-0.911623
-0.907145
-0.903431
-0.900601
-0.898670
-0.897593
-0.897297
-0.897701
-0.898725
-0.900293
-0.902335
-0.904788
-0.907595
-0.910705
-0.914073
-0.917658
-0.921425
-0.925342
-0.929381
-0.933517
-0.937727
-0.941992
-0.946296
-0.950621
-0.954955
-0.959286
-0.963602
-0.967895
-0.972155
-0.976375
-0.980548
-0.984667
-0.988724
-0.992710
-0.996614
-1.000417
-1.004093
-1.007594
-1.010844
-1.013714
-1.015991
-1.017347
-1.017330
-1.015504
-1.011876
-1.007195
-1.002327
-0.997878
-0.994157
-0.991256
-0.989153
-0.987771
-0.987022
-0.986819
-0.987083
-0.987747
-0.988750
-0.990032
-0.991537
-0.993199
-0.994940
-0.996664
-0.998250
-0.999560
-1.000463
-1.000904
-1.000988
-1.000983
-1.001193
-1.001874
-1.003160
-1.005738
1.638512
0.731527
0.645535
1.024460
0.446440
0.017839
0.230584
0.419154
0.000000
0.000000
0.000000
0.000000
0.000000
0.000000
0.000000
0.000000
0.000000
0.000000
0.000000
0.000000
0.000000
0.000000
0.000000
0.000000
0.000000
0.000000
0.000000
0.000000
0.000000
0.000000
0.000000
0.000000
0.000000
0.000000
0.000000
0.000000
0.000000
0.000000
0.000000
0.000000
0.000000
0.000000
0.000000
0.000000
0.000000
0.000000
0.000000
0.000000
0.000000
0.000000
0.000000
0.000000
0.000000
0.000000
0.000000
0.000000
0.000000
0.000000
0.000000
0.000000
0.000000
0.000000
0.000000
0.000000
0.000000
0.000000
0.000000
0.000000
0.000000
0.000000
0.000000
0.000000
0.000000
0.000000
0.000000
0.000000
0.000000
0.000000
0.000000
0.000000
0.000000
0.000000
0.000000
0.000000
0.000000
0.000000
0.000000
0.000000
0.000000
0.000000
0.000000
0.000000
0.000000
0.000000
0.000000
0.000000
-1.147831
-1.108419
-1.082245
-1.069737
-1.067624
-1.086776
-1.099719
-1.063841
-1.040610
-1.029820
-1.028184
-1.030267
-1.016436
-1.002625
-0.993184
-0.988104
-0.985948
-0.983505
-0.976229
-0.967951
-0.961208
-0.956759
-0.954433
-0.953563
-0.953015
-0.951104
-0.946495
-0.940566
-0.934669
-0.929311
-0.924382
-0.919663
-0.915211
-0.911223
-0.907881
-0.905288
-0.903477
-0.902431
-0.902102
-0.902427
-0.903341
-0.904778
-0.906674
-0.908971
-0.911617
-0.914562
-0.917764
-0.921182
-0.924783
-0.928535
-0.932410
-0.936382
-0.940431
-0.944535
-0.948678
-0.952842
-0.957014
-0.961180
-0.965329
-0.969449
-0.973531
-0.977565
-0.981541
-0.985450
-0.989279
-0.993016
-0.996642
-1.000131
-1.003446
-1.006529
-1.009298
-1.011625
-1.013334
-1.014192
-1.013943
-1.012417
-1.009698
-1.006200
-1.002446
-0.998867
-0.995740
-0.993201
-0.991284
-0.989972
-0.989216
-0.988958
-0.989138
-0.989697
-0.990580
-0.991730
-0.993088
-0.994590
-0.996162
-0.997719
-0.999168
-1.000414
-1.001385
-1.002067
-1.002538
-1.002961
-1.003533
-1.004431
-1.005731
-1.008096
0.941823
0.689418
0.608262
0.504092
-0.131581
0.017839
0.230584
0.419154
0.071896
-0.129761
0.032303
0.181589
0.000000
0.000000
0.000000
0.000000
0.000000
0.000000
0.000000
0.000000
0.000000
0.000000
0.000000
0.000000
0.000000
0.000000
0.000000
0.000000
0.000000
0.000000
0.000000
0.000000
0.000000
0.000000
0.000000
0.000000
0.000000
0.000000
0.000000
0.000000
0.000000
0.000000
0.000000
0.000000
0.000000
0.000000
0.000000
0.000000
0.000000
0.000000
0.000000
0.000000
0.000000
0.000000
0.000000
0.000000
0.000000
0.000000
0.000000
0.000000
0.000000
0.000000
0.000000
0.000000
0.000000
0.000000
0.000000
0.000000
0.000000
0.000000
0.000000
0.000000
0.000000
0.000000
0.000000
0.000000
0.000000
0.000000
0.000000
0.000000
0.000000
0.000000
0.000000
0.000000
0.000000
0.000000
0.000000
0.000000
0.000000
0.000000
0.000000
-1.227850
-1.171333
-1.136540
-1.122526
-1.135594
-1.147831
-1.108419
-1.082245
-1.069737
-1.067624
-1.073833
-1.082916
-1.064701
-1.046839
-1.035746
-1.030329
-1.026172
-1.016588
-1.006072
-0.997580
-0.991696
-0.987550
-0.983329
-0.977397
-0.970906
-0.965190
-0.960882
-0.957968
-0.955986
-0.954146
-0.951521
-0.947563
-0.942731
-0.937693
-0.932836
-0.928254
-0.923938
-0.919946
-0.916398
-0.913412
-0.911068
-0.909402
-0.908410
-0.908063
-0.908317
-0.909118
-0.910411
-0.912143
-0.914260
-0.916716
-0.919464
-0.922464
-0.925678
-0.929074
-0.932621
-0.936291
-0.940060
-0.943906
-0.947807
-0.951746
-0.955706
-0.959671
-0.963629
-0.967564
-0.971467
-0.975324
-0.979123
-0.982855
-0.986504
-0.990058
-0.993498
-0.996802
-0.999940
-1.002870
-1.005535
-1.007856
-1.009727
-1.011016
-1.011573
-1.011263
-1.010028
-1.007962
-1.005320
-1.002431
-0.999598
-0.997045
-0.994909
-0.993252
-0.992090
-0.991405
-0.991163
-0.991321
-0.991833
-0.992648
-0.993716
-0.994981
-0.996383
-0.997855
-0.999325
-1.000721
-1.001976
-1.003046
-1.003928
-1.004674
-1.005381
-1.006167
-1.007141
-1.008382
-1.010350
0.626405
0.550492
0.471647
0.351781
0.119973
0.116719
0.174360
0.111271
-0.275362
-0.129761
0.032303
0.181589
-0.120022
-0.290965
-0.146283
-0.006411
0.000000
0.000000
0.000000
0.000000
0.000000
0.000000
0.000000
0.000000
0.000000
0.000000
0.000000
0.000000
0.000000
0.000000
0.000000
0.000000
0.000000
0.000000
0.000000
0.000000
0.000000
0.000000
0.000000
0.000000
0.000000
0.000000
0.000000
0.000000
0.000000
0.000000
0.000000
0.000000
0.000000
0.000000
0.000000
0.000000
0.000000
0.000000
0.000000
0.000000
0.000000
0.000000
0.000000
0.000000
0.000000
0.000000
0.000000
0.000000
0.000000
0.000000
0.000000
0.000000
0.000000
0.000000
0.000000
0.000000
0.000000
0.000000
0.000000
0.000000
0.000000
0.000000
0.000000
0.000000
0.000000
0.000000
0.000000
0.000000
0.000000
-1.293011
-1.228208
-1.187598
-1.170444
-1.170107
-1.205109
-1.227849
-1.171333
-1.136539
-1.122525
-1.123356
-1.130855
-1.109944
-1.089716
-1.077530
-1.073006
-1.073450
-1.073117
-1.062693
-1.050121
-1.039974
-1.032618
-1.026024
-1.017839
-1.009231
-1.001609
-0.995445
-0.990339
-0.985418
-0.980027
-0.974510
-0.969485
-0.965327
-0.962051
-0.959368
-0.956793
-0.953815
-0.950164
-0.945989
-0.941612
-0.937287
-0.933147
-0.929260
-0.925695
-0.922540
-0.919879
-0.917771
-0.916250
-0.915319
-0.914962
-0.915147
-0.915834
-0.916978
-0.918533
-0.920455
-0.922700
-0.925229
-0.928002
-0.930986
-0.934148
-0.937460
-0.940895
-0.944429
-0.948038
-0.951703
-0.955405
-0.959127
-0.962852
-0.966565
-0.970252
-0.973900
-0.977495
-0.981024
-0.984473
-0.987827
-0.991071
-0.994184
-0.997141
-0.999912
-1.002456
-1.004721
-1.006641
-1.008135
-1.009111
-1.009479
-1.009173
-1.008186
-1.006600
-1.004587
-1.002365
-1.000148
-0.998110
-0.996372
-0.995007
-0.994045
-0.993489
-0.993324
-0.993521
-0.994044
-0.994853
-0.995900
-0.997135
-0.998504
-0.999947
-1.001405
-1.002816
-1.004132
-1.005319
-1.006372
-1.007319
-1.008212
-1.009115
-1.010082
-1.011184
-1.012651
0.454328
0.424866
0.369621
0.291731
0.184835
0.137015
0.112380
0.037946
-0.098505
-0.073550
-0.020427
-0.082099
-0.421632
-0.290965
-0.146283
-0.006410
-0.319589
-0.526104
-0.401079
-0.305275
-0.192712
0.000000
0.000000
0.000000
0.000000
0.000000
0.000000
0.000000
0.000000
0.000000
0.000000
0.000000
0.000000
0.000000
0.000000
0.000000
0.000000
0.000000
0.000000
0.000000
0.000000
0.000000
0.000000
0.000000
0.000000
0.000000
0.000000
0.000000
0.000000
0.000000
0.000000
0.000000
0.000000
0.000000
0.000000
0.000000
0.000000
0.000000
0.000000
0.000000
0.000000
0.000000
0.000000
0.000000
0.000000
0.000000
0.000000
0.000000
0.000000
0.000000
0.000000
0.000000
0.000000
0.000000
0.000000
0.000000
0.000000
0.000000
0.000000
-1.381707
-1.302775
-1.252518
-1.230624
-1.228972
-1.267545
-1.293011
-1.228208
-1.187598
-1.170444
-1.170106
-1.182369
-1.199210
-1.172221
-1.146299
-1.131592
-1.126011
-1.122355
-1.109227
-1.094728
-1.083880
-1.077480
-1.073835
-1.069608
-1.061572
-1.051938
-1.042932
-1.035126
-1.027837
-1.020253
-1.012673
-1.005683
-0.999548
-0.994108
-0.988972
-0.983861
-0.978869
-0.974261
-0.970219
-0.966747
-0.963669
-0.960700
-0.957556
-0.954087
-0.950334
-0.946453
-0.942601
-0.938894
-0.935415
-0.932235
-0.929424
-0.927046
-0.925148
-0.923758
-0.922884
-0.922517
-0.922634
-0.923207
-0.924200
-0.925574
-0.927293
-0.929319
-0.931615
-0.934148
-0.936886
-0.939798
-0.942858
-0.946039
-0.949317
-0.952671
-0.956079
-0.959523
-0.962984
-0.966445
-0.969891
-0.973306
-0.976675
-0.979984
-0.983219
-0.986363
-0.989401
-0.992316
-0.995087
-0.997689
-1.000093
-1.002264
-1.004157
-1.005722
-1.006901
-1.007633
-1.007868
-1.007580
-1.006784
-1.005550
-1.003999
-1.002285
-1.000561
-0.998962
-0.997591
-0.996516
-0.995778
-0.995390
-0.995348
-0.995635
-0.996226
-0.997085
-0.998172
-0.999442
-1.000845
-1.002329
-1.003840
-1.005326
-1.006745
-1.008066
-1.009277
-1.010384
-1.011408
-1.012374
-1.013299
-1.014221
-1.015171
0.344928
0.329751
0.293010
0.240905
0.176540
0.125836
0.081826
0.024725
-0.041152
-0.062471
-0.076346
-0.143534
-0.266177
-0.243795
-0.198825
-0.270899
-0.632768
-0.526104
-0.401079
-0.305275
-0.192712
-0.505905
-0.741348
-0.635113
-0.558802
-0.486241
-0.379824
0.000000
0.000000
0.000000
0.000000
0.000000
0.000000
0.000000
0.000000
0.000000
0.000000
0.000000
0.000000
0.000000
0.000000
0.000000
0.000000
0.000000
0.000000
0.000000
0.000000
0.000000
0.000000
0.000000
0.000000
0.000000
0.000000
0.000000
0.000000
0.000000
0.000000
0.000000
0.000000
0.000000
0.000000
0.000000
0.000000
0.000000
0.000000
0.000000
0.000000
0.000000
0.000000
0.000000
0.000000
0.000000
0.000000
-1.516267
-1.408742
-1.340003
-1.309762
-1.306178
-1.351324
-1.381707
-1.302775
-1.252518
-1.230623
-1.228972
-1.242079
-1.260393
-1.229099
-1.199026
-1.182282
-1.177687
-1.180602
-1.182111
-1.167767
-1.150318
-1.136901
-1.127911
-1.120004
-1.109309
-1.097943
-1.088260
-1.080929
-1.075122
-1.069188
-1.061840
-1.053640
-1.045531
-1.037917
-1.030654
-1.023499
-1.016540
-1.010016
-1.004053
-0.998593
-0.993467
-0.988551
-0.983864
-0.979506
-0.975553
-0.971992
-0.968714
-0.965555
-0.962355
-0.959021
-0.955562
-0.952053
-0.948591
-0.945263
-0.942143
-0.939294
-0.936775
-0.934635
-0.932914
-0.931634
-0.930805
-0.930424
-0.930474
-0.930935
-0.931779
-0.932976
-0.934493
-0.936300
-0.938364
-0.940654
-0.943143
-0.945801
-0.948603
-0.951524
-0.954540
-0.957630
-0.960774
-0.963950
-0.967142
-0.970330
-0.973499
-0.976631
-0.979711
-0.982724
-0.985653
-0.988484
-0.991199
-0.993780
-0.996207
-0.998459
-1.000508
-1.002326
-1.003878
-1.005126
-1.006032
-1.006559
-1.006685
-1.006403
-1.005739
-1.004753
-1.003536
-1.002200
-1.000860
-0.999621
-0.998569
-0.997767
-0.997254
-0.997052
-0.997165
-0.997583
-0.998286
-0.999247
-1.000431
-1.001795
-1.003295
-1.004882
-1.006506
-1.008119
-1.009681
-1.011157
-1.012527
-1.013780
-1.014914
-1.015927
-1.016809
-1.017561
-1.018062
0.265888
0.256381
0.231275
0.194496
0.149697
0.105918
0.063121
0.017046
-0.029880
-0.065102
-0.099626
-0.151249
-0.212120
-0.233360
-0.251636
-0.327428
-0.465486
-0.453829
-0.400955
-0.364580
-0.447975
-0.819097
-0.741348
-0.635113
-0.558802
-0.486241
-0.379824
-0.739762
-1.062292
-0.976102
-0.928557
-0.898006
-0.875909
-0.857997
-0.841572
-0.824433
-0.804209
-0.777510
-0.738020
-0.655363
0.000000
0.000000
0.000000
0.000000
0.000000
0.000000
0.000000
0.000000
0.000000
0.000000
0.000000
0.000000
0.000000
0.000000
0.000000
0.000000
0.000000
0.000000
0.000000
0.000000
0.000000
0.000000
0.000000
0.000000
0.000000
0.000000
-1.720031
-1.560152
-1.454817
-1.405285
-1.392201
-1.403018
-1.473021
-1.516267
-1.408742
-1.340003
-1.309762
-1.306178
-1.320941
-1.341766
-1.303086
-1.265715
-1.244466
-1.237838
-1.240181
-1.241120
-1.224346
-1.204494
-1.190121
-1.182485
-1.178891
-1.174256
-1.163732
-1.150859
-1.139067
-1.129142
-1.119940
-1.110155
-1.100325
-1.091400
-1.083736
-1.076957
-1.070293
-1.063173
-1.055695
-1.048224
-1.040992
-1.034017
-1.027253
-1.020746
-1.014595
-1.008860
-1.003521
-0.998507
-0.993759
-0.989273
-0.985081
-0.981204
-0.977622
-0.974264
-0.971035
-0.967841
-0.964626
-0.961387
-0.958162
-0.955010
-0.951994
-0.949173
-0.946599
-0.944319
-0.942375
-0.940797
-0.939605
-0.938809
-0.938408
-0.938392
-0.938747
-0.939450
-0.940477
-0.941803
-0.943400
-0.945240
-0.947296
-0.949543
-0.951953
-0.954503
-0.957169
-0.959929
-0.962760
-0.965641
-0.968553
-0.971477
-0.974394
-0.977287
-0.980138
-0.982930
-0.985648
-0.988274
-0.990793
-0.993188
-0.995442
-0.997536
-0.999450
-1.001162
-1.002649
-1.003885
-1.004846
-1.005507
-1.005851
-1.005869
-1.005569
-1.004981
-1.004158
-1.003171
-1.002108
-1.001057
-1.000102
-0.999316
-0.998755
-0.998457
-0.998446
-0.998731
-0.999307
-1.000160
-1.001267
-1.002596
-1.004108
-1.005761
-1.007507
-1.009298
-1.011087
-1.012830
-1.014488
-1.016031
-1.017437
-1.018685
-1.019756
-1.020623
-1.021253
-1.021439
0.204948
0.198343
0.180355
0.153251
0.119695
0.083558
0.046109
0.007024
-0.032590
-0.069695
-0.107427
-0.150443
-0.195352
-0.230779
-0.268148
-0.324921
-0.391884
-0.412235
-0.411264
-0.426181
-0.507281
-0.657414
-0.661488
-0.618210
-0.575281
-0.553690
-0.660453
-1.099701
-1.062292
-0.976102
-0.928557
-0.898006
-0.875909
-0.857997
-0.841572
-0.824433
-0.804209
-0.777510
-0.738020
-0.655363
-1.031874
-1.410566
-1.341328
-1.308723
-1.292441
-1.284860
-1.282555
-1.283760
-1.287475
-1.293096
-1.300256
-1.308732
-1.318405
-1.329196
-1.341178
-1.354146
-1.367863
-1.382521
-1.398343
-1.415622
-1.434772
-1.456396
-1.481425
-1.511416
-1.549264
-1.656301
-1.720031
-1.560152
-1.454817
-1.405285
-1.392201
-1.403017
-1.429775
-1.458148
-1.406145
-1.355615
-1.326596
-1.316610
-1.317946
-1.317668
-1.296332
-1.271452
-1.253260
-1.243212
-1.238125
-1.232181
-1.219977
-1.205677
-1.193422
-1.184429
-1.177514
-1.170264
-1.160828
-1.150129
-1.139598
-1.129810
-1.120496
-1.111260
-1.102254
-1.093834
-1.086151
-1.079032
-1.072124
-1.065153
-1.058102
-1.051100
-1.044266
-1.037644
-1.031249
-1.025114
-1.019285
-1.013794
-1.008633
-1.003773
-0.999184
-0.994856
-0.990794
-0.986994
-0.983434
-0.980070
-0.976840
-0.973691
-0.970587
-0.967523
-0.964520
-0.961614
-0.958849
-0.956270
-0.953918
-0.951832
-0.950044
-0.948580
-0.947456
-0.946682
-0.946259
-0.946181
-0.946437
-0.947011
-0.947883
-0.949031
-0.950434
-0.952066
-0.953904
-0.955923
-0.958101
-0.960414
-0.962839
-0.965354
-0.967938
-0.970570
-0.973230
-0.975897
-0.978554
-0.981181
-0.983760
-0.986274
-0.988706
-0.991040
-0.993258
-0.995345
-0.997284
-0.999058
-1.000651
-1.002045
-1.003222
-1.004165
-1.004859
-1.005292
-1.005457
-1.005359
-1.005012
-1.004449
-1.003717
-1.002877
-1.001999
-1.001155
-1.000416
-0.999843
-0.999486
-0.999384
-0.999559
-1.000023
-1.000777
-1.001808
-1.003097
-1.004614
-1.006322
-1.008178
-1.010136
-1.012146
-1.014157
-1.016122
-1.017995
-1.019738
-1.021316
-1.022698
-1.023853
-1.024746
-1.025329
-1.025364
0.156387
0.151503
0.138013
0.117248
0.090942
0.061116
0.028986
-0.004907
-0.039892
-0.075085
-0.111285
-0.149648
-0.189106
-0.227076
-0.266822
-0.312420
-0.358669
-0.390214
-0.414241
-0.447727
-0.506762
-0.580197
-0.606723
-0.605372
-0.603167
-0.627769
-0.730188
-0.922055
-0.958261
-0.936714
-0.910807
-0.889261
-0.871938
-0.857325
-0.843942
-0.830583
-0.816652
-0.804019
-0.806109
-0.935050
-1.408386
-1.410566
-1.341328
-1.308723
-1.292441
-1.284859
-1.282555
-1.283760
-1.287475
-1.293096
-1.300256
-1.308732
-1.318404
-1.329196
-1.341178
-1.354146
-1.367862
-1.382521
-1.398343
-1.415622
-1.434772
-1.456396
-1.481425
-1.511416
-1.549264
-1.592571
-1.625169
-1.547373
-1.471598
-1.426515
-1.408333
-1.408443
-1.417111
-1.419120
-1.391842
-1.359272
-1.335107
-1.321228