# vtk DataFile Version 3.0
Scalar Field
ASCII
DATASET RECTILINEAR_GRID
DIMENSIONS 50 50 1
X_COORDINATES 50 double
0.100000 0.300000 0.500000 0.700000 0.900000 1.100000 1.300000 1.500000 1.700000 1.900000 2.100000 2.300000 2.500000 2.700000 2.900000 3.100000 3.300000 3.500000 3.700000 3.900000 4.100000 4.300000 4.500000 4.700000 4.900000 5.100000 5.300000 5.500000 5.700000 5.900000 6.100000 6.300000 6.500000 6.700000 6.900000 7.100000 7.300000 7.500000 7.700000 7.900000 8.100000 8.300000 8.500000 8.700000 8.900000 9.100000 9.300000 9.500000 9.700000 9.900000 
Y_COORDINATES 50 double
0.100000 0.300000 0.500000 0.700000 0.900000 1.100000 1.300000 1.500000 1.700000 1.900000 2.100000 2.300000 2.500000 2.700000 2.900000 3.100000 3.300000 3.500000 3.700000 3.900000 4.100000 4.300000 4.500000 4.700000 4.900000 5.100000 5.300000 5.500000 5.700000 5.900000 6.100000 6.300000 6.500000 6.700000 6.900000 7.100000 7.300000 7.500000 7.700000 7.900000 8.100000 8.300000 8.500000 8.700000 8.900000 9.100000 9.300000 9.500000 9.700000 9.900000 
Z_COORDINATES 1 double
0.0
POINT_DATA 2500
SCALARS Skalarfeld double 1
LOOKUP_TABLE default
-0.019951
-0.020024
-0.020146
-0.020273
-0.020376
-0.020436
-0.020445
-0.020397
-0.020292
-0.020129
-0.019911
-0.019641
-0.019319
-0.018950
-0.018535
-0.018077
-0.017579
-0.017043
-0.016473
-0.015871
-0.015242
-0.014588
-0.013913
-0.013221
-0.012516
-0.011803
-0.011086
-0.010369
-0.009657
-0.008956
-0.008270
-0.007603
-0.006962
-0.006350
-0.005773
-0.005236
-0.004743
-0.004300
-0.003910
-0.003577
-0.003307
-0.003100
-0.002961
-0.002889
-0.002883
-0.002937
-0.003040
-0.003171
-0.003299
-0.003377
-0.019878
-0.019951
-0.020048
-0.020144
-0.020218
-0.020256
-0.020249
-0.020192
-0.020083
-0.019921
-0.019707
-0.019443
-0.019130
-0.018770
-0.018366
-0.017920
-0.017435
-0.016913
-0.016357
-0.015771
-0.015157
-0.014519
-0.013861
-0.013186
-0.012498
-0.011803
-0.011103
-0.010404
-0.009710
-0.009027
-0.008358
-0.007709
-0.007084
-0.006489
-0.005928
-0.005406
-0.004927
-0.004496
-0.004116
-0.003793
-0.003527
-0.003322
-0.003180
-0.003098
-0.003076
-0.003106
-0.003177
-0.003275
-0.003377
-0.003454
-0.019755
-0.019854
-0.019953
-0.020037
-0.020097
-0.020121
-0.020104
-0.020040
-0.019928
-0.019766
-0.019554
-0.019294
-0.018988
-0.018636
-0.018240
-0.017804
-0.017329
-0.016818
-0.016273
-0.015698
-0.015097
-0.014471
-0.013825
-0.013163
-0.012489
-0.011807
-0.011120
-0.010434
-0.009754
-0.009083
-0.008427
-0.007790
-0.007178
-0.006595
-0.006045
-0.005533
-0.005064
-0.004641
-0.004269
-0.003950
-0.003688
-0.003484
-0.003338
-0.003250
-0.003217
-0.003233
-0.003289
-0.003376
-0.003478
-0.003583
-0.019626
-0.019759
-0.019870
-0.019957
-0.020012
-0.020030
-0.020007
-0.019939
-0.019824
-0.019662
-0.019452
-0.019195
-0.018893
-0.018546
-0.018157
-0.017728
-0.017260
-0.016757
-0.016221
-0.015654
-0.015061
-0.014444
-0.013808
-0.013155
-0.012489
-0.011816
-0.011138
-0.010461
-0.009789
-0.009127
-0.008479
-0.007850
-0.007245
-0.006669
-0.006126
-0.005620
-0.005157
-0.004739
-0.004371
-0.004055
-0.003794
-0.003589
-0.003441
-0.003349
-0.003310
-0.003320
-0.003373
-0.003461
-0.003578
-0.003717
-0.019519
-0.019684
-0.019814
-0.019908
-0.019965
-0.019982
-0.019957
-0.019887
-0.019771
-0.019608
-0.019400
-0.019145
-0.018845
-0.018502
-0.018117
-0.017692
-0.017230
-0.016731
-0.016200
-0.015639
-0.015051
-0.014440
-0.013808
-0.013160
-0.012499
-0.011830
-0.011157
-0.010484
-0.009816
-0.009158
-0.008513
-0.007888
-0.007286
-0.006713
-0.006172
-0.005669
-0.005207
-0.004791
-0.004424
-0.004108
-0.003847
-0.003641
-0.003492
-0.003397
-0.003356
-0.003366
-0.003422
-0.003519
-0.003655
-0.003827
-0.019452
-0.019645
-0.019794
-0.019899
-0.019961
-0.019980
-0.019955
-0.019885
-0.019768
-0.019606
-0.019398
-0.019144
-0.018846
-0.018504
-0.018121
-0.017699
-0.017238
-0.016742
-0.016213
-0.015654
-0.015067
-0.014457
-0.013827
-0.013180
-0.012520
-0.011851
-0.011178
-0.010505
-0.009837
-0.009177
-0.008532
-0.007905
-0.007302
-0.006727
-0.006185
-0.005681
-0.005217
-0.004799
-0.004430
-0.004113
-0.003850
-0.003643
-0.003492
-0.003397
-0.003357
-0.003369
-0.003431
-0.003541
-0.003696
-0.003897
-0.019436
-0.019653
-0.019818
-0.019934
-0.020004
-0.020027
-0.020004
-0.019934
-0.019818
-0.019655
-0.019447
-0.019193
-0.018895
-0.018553
-0.018170
-0.017747
-0.017286
-0.016789
-0.016259
-0.015698
-0.015110
-0.014498
-0.013865
-0.013215
-0.012552
-0.011879
-0.011202
-0.010524
-0.009851
-0.009186
-0.008535
-0.007903
-0.007294
-0.006714
-0.006166
-0.005656
-0.005188
-0.004765
-0.004391
-0.004070
-0.003804
-0.003594
-0.003442
-0.003347
-0.003309
-0.003325
-0.003396
-0.003518
-0.003691
-0.003916
-0.019477
-0.019713
-0.019893
-0.020020
-0.020097
-0.020125
-0.020104
-0.020036
-0.019920
-0.019757
-0.019548
-0.019292
-0.018993
-0.018649
-0.018264
-0.017838
-0.017374
-0.016873
-0.016339
-0.015774
-0.015181
-0.014563
-0.013923
-0.013266
-0.012595
-0.011915
-0.011229
-0.010542
-0.009859
-0.009184
-0.008524
-0.007881
-0.007263
-0.006672
-0.006115
-0.005596
-0.005119
-0.004688
-0.004308
-0.003980
-0.003709
-0.003496
-0.003342
-0.003247
-0.003211
-0.003233
-0.003312
-0.003447
-0.003636
-0.003880
-0.019578
-0.019829
-0.020022
-0.020160
-0.020244
-0.020277
-0.020260
-0.020193
-0.020077
-0.019913
-0.019702
-0.019444
-0.019141
-0.018794
-0.018404
-0.017973
-0.017503
-0.016996
-0.016455
-0.015882
-0.015280
-0.014652
-0.014002
-0.013334
-0.012651
-0.011958
-0.011259
-0.010559
-0.009862
-0.009173
-0.008498
-0.007841
-0.007208
-0.006603
-0.006032
-0.005500
-0.005011
-0.004569
-0.004179
-0.003843
-0.003565
-0.003347
-0.003190
-0.003095
-0.003062
-0.003089
-0.003177
-0.003323
-0.003526
-0.003787
-0.019740
-0.020005
-0.020210
-0.020357
-0.020449
-0.020487
-0.020472
-0.020406
-0.020290
-0.020124
-0.019910
-0.019649
-0.019341
-0.018988
-0.018592
-0.018153
-0.017675
-0.017158
-0.016607
-0.016022
-0.015408
-0.014767
-0.014103
-0.013420
-0.012721
-0.012011
-0.011294
-0.010576
-0.009860
-0.009152
-0.008458
-0.007782
-0.007130
-0.006506
-0.005918
-0.005368
-0.004863
-0.004407
-0.004004
-0.003658
-0.003371
-0.003147
-0.002986
-0.002890
-0.002859
-0.002891
-0.002987
-0.003144
-0.003361
-0.003636
-0.019964
-0.020243
-0.020459
-0.020615
-0.020713
-0.020756
-0.020744
-0.020678
-0.020561
-0.020393
-0.020175
-0.019909
-0.019595
-0.019234
-0.018829
-0.018380
-0.017891
-0.017362
-0.016797
-0.016197
-0.015567
-0.014909
-0.014227
-0.013524
-0.012805
-0.012074
-0.011335
-0.010593
-0.009854
-0.009123
-0.008405
-0.007705
-0.007029
-0.006382
-0.005771
-0.005201
-0.004676
-0.004202
-0.003783
-0.003423
-0.003125
-0.002893
-0.002727
-0.002629
-0.002600
-0.002637
-0.002741
-0.002908
-0.003138
-0.003428
-0.020253
-0.020544
-0.020771
-0.020936
-0.021041
-0.021088
-0.021078
-0.021012
-0.020894
-0.020722
-0.020499
-0.020226
-0.019903
-0.019533
-0.019117
-0.018656
-0.018152
-0.017608
-0.017026
-0.016409
-0.015759
-0.015080
-0.014376
-0.013649
-0.012905
-0.012148
-0.011383
-0.010614
-0.009846
-0.009086
-0.008339
-0.007610
-0.006905
-0.006231
-0.005593
-0.004997
-0.004448
-0.003952
-0.003514
-0.003137
-0.002826
-0.002584
-0.002412
-0.002311
-0.002282
-0.002324
-0.002435
-0.002614
-0.002857
-0.003161
-0.020606
-0.020910
-0.021149
-0.021323
-0.021434
-0.021485
-0.021476
-0.021411
-0.021289
-0.021113
-0.020884
-0.020603
-0.020270
-0.019888
-0.019458
-0.018982
-0.018462
-0.017900
-0.017297
-0.016658
-0.015985
-0.015282
-0.014551
-0.013797
-0.013024
-0.012236
-0.011439
-0.010637
-0.009837
-0.009043
-0.008261
-0.007498
-0.006760
-0.006052
-0.005382
-0.004756
-0.004179
-0.003657
-0.003196
-0.002799
-0.002472
-0.002217
-0.002037
-0.001932
-0.001904
-0.001950
-0.002069
-0.002258
-0.002515
-0.002836
-0.021026
-0.021345
-0.021595
-0.021778
-0.021896
-0.021950
-0.021943
-0.021877
-0.021752
-0.021570
-0.021333
-0.021042
-0.020697
-0.020302
-0.019856
-0.019362
-0.018822
-0.018239
-0.017613
-0.016949
-0.016249
-0.015517
-0.014756
-0.013970
-0.013163
-0.012340
-0.011506
-0.010667
-0.009827
-0.008994
-0.008173
-0.007370
-0.006593
-0.005847
-0.005140
-0.004477
-0.003867
-0.003315
-0.002826
-0.002407
-0.002060
-0.001791
-0.001600
-0.001490
-0.001461
-0.001511
-0.001638
-0.001839
-0.002111
-0.002449
-0.021515
-0.021849
-0.022112
-0.022305
-0.022429
-0.022488
-0.022482
-0.022413
-0.022284
-0.022096
-0.021849
-0.021546
-0.021188
-0.020777
-0.020313
-0.019799
-0.019237
-0.018628
-0.017977
-0.017284
-0.016553
-0.015788
-0.014992
-0.014170
-0.013325
-0.012462
-0.011586
-0.010704
-0.009821
-0.008942
-0.008076
-0.007227
-0.006405
-0.005614
-0.004864
-0.004161
-0.003512
-0.002924
-0.002404
-0.001957
-0.001588
-0.001301
-0.001098
-0.000981
-0.000951
-0.001004
-0.001140
-0.001354
-0.001642
-0.002000
-0.022076
-0.022427
-0.022704
-0.022907
-0.023039
-0.023101
-0.023095
-0.023024
-0.022890
-0.022693
-0.022436
-0.022120
-0.021746
-0.021317
-0.020833
-0.020296
-0.019708
-0.019073
-0.018391
-0.017666
-0.016901
-0.016099
-0.015265
-0.014401
-0.013513
-0.012605
-0.011682
-0.010752
-0.009819
-0.008890
-0.007971
-0.007071
-0.006197
-0.005356
-0.004556
-0.003806
-0.003113
-0.002484
-0.001927
-0.001448
-0.001052
-0.000744
-0.000527
-0.000402
-0.000369
-0.000426
-0.000571
-0.000799
-0.001105
-0.001485
-0.022711
-0.023082
-0.023374
-0.023589
-0.023728
-0.023793
-0.023788
-0.023714
-0.023573
-0.023368
-0.023098
-0.022767
-0.022376
-0.021926
-0.021419
-0.020857
-0.020241
-0.019575
-0.018860
-0.018100
-0.017296
-0.016454
-0.015576
-0.014667
-0.013731
-0.012773
-0.011798
-0.010813
-0.009824
-0.008838
-0.007862
-0.006904
-0.005971
-0.005073
-0.004217
-0.003412
-0.002668
-0.001992
-0.001392
-0.000876
-0.000449
-0.000117
0.000118
0.000253
0.000289
0.000228
0.000073
-0.000170
-0.000497
-0.000902
-0.023426
-0.023818
-0.024127
-0.024354
-0.024501
-0.024571
-0.024565
-0.024488
-0.024340
-0.024123
-0.023840
-0.023493
-0.023082
-0.022609
-0.022077
-0.021486
-0.020840
-0.020140
-0.019389
-0.018589
-0.017744
-0.016857
-0.015932
-0.014972
-0.013983
-0.012970
-0.011938
-0.010893
-0.009842
-0.008792
-0.007751
-0.006727
-0.005729
-0.004765
-0.003845
-0.002979
-0.002176
-0.001446
-0.000797
-0.000238
0.000224
0.000585
0.000840
0.000988
0.001028
0.000963
0.000797
0.000536
0.000186
-0.000247
-0.024224
-0.024640
-0.024967
-0.025208
-0.025364
-0.025437
-0.025432
-0.025350
-0.025193
-0.024965
-0.024667
-0.024301
-0.023868
-0.023371
-0.022811
-0.022190
-0.021509
-0.020773
-0.019982
-0.019139
-0.018248
-0.017313
-0.016336
-0.015322
-0.014275
-0.013201
-0.012105
-0.010994
-0.009875
-0.008755
-0.007642
-0.006545
-0.005473
-0.004436
-0.003444
-0.002508
-0.001638
-0.000846
-0.000141
0.000468
0.000973
0.001367
0.001646
0.001808
0.001853
0.001785
0.001607
0.001326
0.000949
0.000485
-0.025111
-0.025553
-0.025901
-0.026157
-0.026322
-0.026400
-0.026394
-0.026306
-0.026141
-0.025900
-0.025585
-0.025198
-0.024741
-0.024217
-0.023627
-0.022972
-0.022255
-0.021478
-0.020644
-0.019755
-0.018815
-0.017827
-0.016794
-0.015720
-0.014611
-0.013472
-0.012307
-0.011123
-0.009929
-0.008732
-0.007539
-0.006361
-0.005207
-0.004087
-0.003014
-0.001999
-0.001053
-0.000190
0.000581
0.001247
0.001800
0.002233
0.002540
0.002720
0.002772
0.002700
0.002508
0.002205
0.001799
0.001297
-0.026092
-0.026564
-0.026935
-0.027206
-0.027382
-0.027464
-0.027457
-0.027364
-0.027188
-0.026932
-0.026599
-0.026190
-0.025707
-0.025154
-0.024530
-0.023839
-0.023083
-0.022263
-0.021382
-0.020444
-0.019450
-0.018405
-0.017312
-0.016175
-0.014998
-0.013788
-0.012548
-0.011286
-0.010010
-0.008728
-0.007448
-0.006180
-0.004934
-0.003723
-0.002558
-0.001453
-0.000421
0.000524
0.001369
0.002102
0.002712
0.003190
0.003531
0.003731
0.003791
0.003715
0.003508
0.003180
0.002740
0.002197
-0.027174
-0.027678
-0.028075
-0.028365
-0.028551
-0.028639
-0.028630
-0.028531
-0.028343
-0.028071
-0.027717
-0.027284
-0.026773
-0.026187
-0.025528
-0.024798
-0.023999
-0.023133
-0.022203
-0.021211
-0.020161
-0.019055
-0.017898
-0.016692
-0.015443
-0.014156
-0.012836
-0.011490
-0.010125
-0.008750
-0.007374
-0.006007
-0.004661
-0.003347
-0.002080
-0.000874
0.000256
0.001295
0.002226
0.003036
0.003712
0.004244
0.004624
0.004850
0.004920
0.004840
0.004616
0.004259
0.003779
0.003190
-0.028364
-0.028905
-0.029330
-0.029640
-0.029839
-0.029931
-0.029921
-0.029814
-0.029613
-0.029323
-0.028947
-0.028487
-0.027945
-0.027325
-0.026627
-0.025855
-0.025010
-0.024095
-0.023112
-0.022064
-0.020953
-0.019783
-0.018557
-0.017280
-0.015954
-0.014585
-0.013179
-0.011742
-0.010282
-0.008807
-0.007327
-0.005851
-0.004393
-0.002966
-0.001584
-0.000264
0.000978
0.002123
0.003153
0.004053
0.004807
0.005402
0.005829
0.006085
0.006168
0.006084
0.005840
0.005450
0.004926
0.004282
-0.029671
-0.030253
-0.030709
-0.031041
-0.031253
-0.031351
-0.031339
-0.031223
-0.031008
-0.030698
-0.030297
-0.029807
-0.029232
-0.028575
-0.027836
-0.027019
-0.026125
-0.025158
-0.024118
-0.023010
-0.021836
-0.020598
-0.019300
-0.017945
-0.016538
-0.015084
-0.013586
-0.012052
-0.010490
-0.008908
-0.007314
-0.005721
-0.004140
-0.002587
-0.001077
0.000371
0.001739
0.003006
0.004152
0.005156
0.006001
0.006671
0.007154
0.007446
0.007546
0.007458
0.007193
0.006764
0.006188
0.005481
-0.031103
-0.031731
-0.032222
-0.032579
-0.032806
-0.032909
-0.032894
-0.032768
-0.032537
-0.032205
-0.031776
-0.031255
-0.030643
-0.029945
-0.029162
-0.028296
-0.027351
-0.026328
-0.025229
-0.024057
-0.022816
-0.021507
-0.020133
-0.018698
-0.017206
-0.015661
-0.014068
-0.012431
-0.010760
-0.009063
-0.007348
-0.005627
-0.003913
-0.002221
-0.000569
0.001024
0.002535
0.003942
0.005221
0.006347
0.007299
0.008058
0.008610
0.008947
0.009067
0.008976
0.008686
0.008212
0.007575
0.006795
-0.032672
-0.033351
-0.033881
-0.034265
-0.034508
-0.034617
-0.034599
-0.034462
-0.034211
-0.033854
-0.033395
-0.032839
-0.032187
-0.031445
-0.030614
-0.029697
-0.028696
-0.027614
-0.026452
-0.025214
-0.023902
-0.022519
-0.021066
-0.019548
-0.017967
-0.016328
-0.014634
-0.012890
-0.011105
-0.009286
-0.007441
-0.005583
-0.003724
-0.001880
-0.000070
0.001683
0.003357
0.004925
0.006357
0.007627
0.008706
0.009573
0.010208
0.010600
0.010747
0.010654
0.010335
0.009809
0.009100
0.008233
-0.034389
-0.035126
-0.035700
-0.036115
-0.036375
-0.036489
-0.036467
-0.036315
-0.036044
-0.035658
-0.035165
-0.034569
-0.033875
-0.033085
-0.032202
-0.031229
-0.030170
-0.029025
-0.027797
-0.026490
-0.025104
-0.023643
-0.022109
-0.020504
-0.018831
-0.017095
-0.015297
-0.013442
-0.011537
-0.009590
-0.007609
-0.005604
-0.003589
-0.001580
0.000403
0.002336
0.004194
0.005944
0.007555
0.008993
0.010225
0.011221
0.011958
0.012421
0.012603
0.012511
0.012160
0.011572
0.010777
0.009805
-0.036267
-0.037070
-0.037695
-0.038143
-0.038422
-0.038542
-0.038512
-0.038344
-0.038048
-0.037630
-0.037099
-0.036459
-0.035716
-0.034874
-0.033935
-0.032903
-0.031780
-0.030569
-0.029272
-0.027892
-0.026430
-0.024889
-0.023270
-0.021577
-0.019810
-0.017974
-0.016070
-0.014100
-0.012073
-0.009993
-0.007869
-0.005709
-0.003528
-0.001341
0.000831
0.002964
0.005028
0.006987
0.008806
0.010442
0.011857
0.013011
0.013875
0.014427
0.014657
0.014570
0.014182
0.013522
0.012623
0.011524
-0.038322
-0.039202
-0.039884
-0.040370
-0.040669
-0.040793
-0.040754
-0.040565
-0.040239
-0.039784
-0.039209
-0.038521
-0.037724
-0.036824
-0.035825
-0.034728
-0.033538
-0.032257
-0.030887
-0.029430
-0.027889
-0.026265
-0.024560
-0.022776
-0.020914
-0.018977
-0.016965
-0.014880
-0.012728
-0.010512
-0.008240
-0.005920
-0.003564
-0.001187
0.001190
0.003542
0.005836
0.008034
0.010092
0.011963
0.013597
0.014946
0.015969
0.016636
0.016932
0.016858
0.016431
0.015684
0.014659
0.013403
-0.040573
-0.041541
-0.042288
-0.042816
-0.043136
-0.043263
-0.043211
-0.042997
-0.042635
-0.042136
-0.041511
-0.040767
-0.039911
-0.038947
-0.037880
-0.036714
-0.035452
-0.034095
-0.032648
-0.031112
-0.029488
-0.027780
-0.025987
-0.024112
-0.022154
-0.020116
-0.017997
-0.015797
-0.013519
-0.011168
-0.008746
-0.006262
-0.003724
-0.001147
0.001449
0.004039
0.006588
0.009055
0.011391
0.013538
0.015437
0.017026
0.018252
0.019071
0.019459
0.019410
0.018943
0.018094
0.016914
0.015462
-0.043042
-0.044112
-0.044934
-0.045509
-0.045851
-0.045977
-0.045908
-0.045662
-0.045256
-0.044705
-0.044021
-0.043213
-0.042289
-0.041254
-0.040114
-0.038871
-0.037530
-0.036094
-0.034565
-0.032945
-0.031237
-0.029442
-0.027560
-0.025592
-0.023540
-0.021401
-0.019177
-0.016865
-0.014464
-0.011979
-0.009410
-0.006761
-0.004039
-0.001256
0.001570
0.004414
0.007244
0.010013
0.012666
0.015139
0.017357
0.019244
0.020729
0.021751
0.022269
0.022269
0.021764
0.020796
0.019426
0.017728
-0.045754
-0.046945
-0.047852
-0.048480
-0.048844
-0.048965
-0.048871
-0.048583
-0.048123
-0.047510
-0.046757
-0.045875
-0.044873
-0.043758
-0.042535
-0.041208
-0.039782
-0.038260
-0.036644
-0.034937
-0.033141
-0.031257
-0.029285
-0.027226
-0.025079
-0.022843
-0.020517
-0.018098
-0.015580
-0.012966
-0.010255
-0.007445
-0.004542
-0.001553
0.001509
0.004621
0.007751
0.010854
0.013868
0.016721
0.019324
0.021583
0.023402
0.024695
0.025400
0.025484
0.024954
0.023851
0.022248
0.020237
-0.048743
-0.050077
-0.051083
-0.051768
-0.052151
-0.052262
-0.052131
-0.051789
-0.051262
-0.050573
-0.049737
-0.048769
-0.047677
-0.046470
-0.045154
-0.043735
-0.042215
-0.040600
-0.038891
-0.037092
-0.035204
-0.033229
-0.031166
-0.029016
-0.026777
-0.024448
-0.022026
-0.019506
-0.016881
-0.014148
-0.011304
-0.008345
-0.005269
-0.002079
0.001217
0.004602
0.008048
0.011512
0.014930
0.018223
0.021288
0.024007
0.026256
0.027917
0.028890
0.029118
0.028587
0.027338
0.025453
0.023047
-0.052048
-0.053553
-0.054674
-0.055421
-0.055819
-0.055907
-0.055725
-0.055312
-0.054701
-0.053917
-0.052982
-0.051911
-0.050714
-0.049402
-0.047981
-0.046457
-0.044834
-0.043117
-0.041308
-0.039411
-0.037428
-0.035359
-0.033205
-0.030965
-0.028637
-0.026220
-0.023708
-0.021097
-0.018375
-0.015538
-0.012578
-0.009486
-0.006254
-0.002878
0.000641
0.004294
0.008062
0.011906
0.015767
0.019560
0.023170
0.026457
0.029260
0.031416
0.032778
0.033240
0.032759
0.031363
0.029145
0.026243
-0.055723
-0.057433
-0.058687
-0.059497
-0.059901
-0.059950
-0.059696
-0.059189
-0.058469
-0.057569
-0.056512
-0.055317
-0.053998
-0.052563
-0.051021
-0.049379
-0.047641
-0.045811
-0.043894
-0.041893
-0.039809
-0.037643
-0.035396
-0.033068
-0.030655
-0.028154
-0.025561
-0.022869
-0.020067
-0.017144
-0.014088
-0.010886
-0.007523
-0.003988
-0.000270
0.003633
0.007712
0.011943
0.016274
0.020623
0.024868
0.028845
0.032355
0.035176
0.037092
0.037929
0.037589
0.036069
0.033468
0.029950
-0.059838
-0.061795
-0.063199
-0.064072
-0.064466
-0.064449
-0.064093
-0.063459
-0.062598
-0.061551
-0.060345
-0.059002
-0.057536
-0.055958
-0.054277
-0.052500
-0.050632
-0.048678
-0.046642
-0.044527
-0.042337
-0.040071
-0.037730
-0.035313
-0.032818
-0.030240
-0.027575
-0.024814
-0.021949
-0.018960
-0.015834
-0.012552
-0.009092
-0.005434
-0.001555
0.002562
0.006925
0.011529
0.016339
0.021287
0.026251
0.031052
0.035449
0.039151
0.041850
0.043270
0.043219
0.041640
0.038621
0.034357
-0.064484
-0.066740
-0.068314
-0.069240
-0.069595
-0.069474
-0.068970
-0.068164
-0.067120
-0.065886
-0.064496
-0.062971
-0.061330
-0.059584
-0.057741
-0.055810
-0.053795
-0.051702
-0.049535
-0.047298
-0.044993
-0.042622
-0.040184
-0.037679
-0.035104
-0.032456
-0.029728
-0.026911
-0.023997
-0.020967
-0.017800
-0.014472
-0.010956
-0.007221
-0.003232
0.001046
0.005644
0.010582
0.015856
0.021421
0.027175
0.032933
0.038420
0.043268
0.047052
0.049349
0.049825
0.048318
0.044878
0.039734
-0.069788
-0.072406
-0.074165
-0.075122
-0.075390
-0.075103
-0.074387
-0.073346
-0.072062
-0.070589
-0.068968
-0.067223
-0.065371
-0.063426
-0.061395
-0.059286
-0.057104
-0.054856
-0.052544
-0.050174
-0.047746
-0.045263
-0.042726
-0.040132
-0.037480
-0.034766
-0.031983
-0.029123
-0.026174
-0.023123
-0.019945
-0.016609
-0.013081
-0.009322
-0.005283
-0.000910
0.003853
0.009062
0.014752
0.020922
0.027508
0.034343
0.041132
0.047433
0.052682
0.056260
0.057618
0.056417
0.052618
0.046468
-0.075927
-0.078983
-0.080933
-0.081872
-0.081973
-0.081426
-0.080403
-0.079040
-0.077436
-0.075657
-0.073747
-0.071732
-0.069628
-0.067447
-0.065198
-0.062885
-0.060516
-0.058094
-0.055623
-0.053107
-0.050548
-0.047947
-0.045306
-0.042623
-0.039895
-0.037119
-0.034288
-0.031394
-0.028426
-0.025369
-0.022206
-0.018895
-0.015398
-0.011666
-0.007641
-0.003248
0.001600
0.006995
0.013026
0.019755
0.027178
0.035178
0.043472
0.051561
0.058731
0.064119
0.066869
0.066353
0.062358
0.055110
-0.083151
-0.086736
-0.088859
-0.089688
-0.089487
-0.088535
-0.087065
-0.085256
-0.083228
-0.081056
-0.078785
-0.076440
-0.074035
-0.071580
-0.069079
-0.066537
-0.063957
-0.061344
-0.058699
-0.056027
-0.053328
-0.050605
-0.047857
-0.045083
-0.042280
-0.039446
-0.036573
-0.033653
-0.030676
-0.027625
-0.024491
-0.021232
-0.017800
-0.014140
-0.010182
-0.005836
-0.000985
0.004507
0.010789
0.018000
0.026226
0.035441
0.045414
0.055631
0.065241
0.073098
0.077936
0.078687
0.074814
0.066439
-0.091823
-0.096040
-0.098274
-0.098818
-0.098094
-0.096510
-0.094391
-0.091964
-0.089372
-0.086697
-0.083979
-0.081238
-0.078480
-0.075709
-0.072925
-0.070128
-0.067321
-0.064502
-0.061674
-0.058838
-0.055995
-0.053146
-0.050290
-0.047426
-0.044551
-0.041662
-0.038751
-0.035811
-0.032832
-0.029798
-0.026691
-0.023499
-0.020149
-0.016585
-0.012730
-0.008475
-0.003679
0.001837
0.008286
0.015897
0.024871
0.035308
0.047093
0.059759
0.072368
0.083481
0.091324
0.094193
0.090994
0.081570
-0.102491
-0.107451
-0.109631
-0.109569
-0.107950
-0.105386
-0.102324
-0.099047
-0.095716
-0.092405
-0.089145
-0.085940
-0.082780
-0.079659
-0.076568
-0.073502
-0.070457
-0.067428
-0.064415
-0.061416
-0.058432
-0.055461
-0.052502
-0.049552
-0.046610
-0.043670
-0.040725
-0.037769
-0.034790
-0.031773
-0.028696
-0.025560
-0.022291
-0.018822
-0.015069
-0.010912
-0.006186
-0.000674
0.005900
0.013857
0.023525
0.035175
0.048869
0.064272
0.080453
0.095735
0.107760
0.113955
0.112326
0.102115
-0.116019
-0.121805
-0.123554
-0.122292
-0.119167
-0.115095
-0.110677
-0.106250
-0.101968
-0.097881
-0.093989
-0.090263
-0.086669
-0.083180
-0.079778
-0.076447
-0.073174
-0.069947
-0.066761
-0.063614
-0.060502
-0.057423
-0.054373
-0.051351
-0.048351
-0.045368
-0.042397
-0.039427
-0.036449
-0.033447
-0.030400
-0.027282
-0.024073
-0.020670
-0.016984
-0.012884
-0.008183
-0.002636
0.004093
0.012409
0.022769
0.035643
0.051336
0.069732
0.090063
0.110551
0.128258
0.139495
0.140874
0.130462
-0.133855
-0.140406
-0.140883
-0.137334
-0.131705
-0.125351
-0.119030
-0.113098
-0.107648
-0.102658
-0.098075
-0.093816
-0.089792
-0.085955
-0.082270
-0.078711
-0.075250
-0.071861
-0.068535
-0.065272
-0.062065
-0.058908
-0.055795
-0.052720
-0.049680
-0.046669
-0.043679
-0.040702
-0.037724
-0.034729
-0.031693
-0.028580
-0.025380
-0.021980
-0.018284
-0.014153
-0.009386
-0.003695
0.003304
0.012094
0.023210
0.037379
0.055212
0.076847
0.101912
0.128798
0.154120
0.172891
0.179636
0.170259
-0.158615
-0.165338
-0.162685
-0.154876
-0.145176
-0.135477
-0.126599
-0.118812
-0.112033
-0.106078
-0.100831
-0.096113
-0.091727
-0.087645
-0.083775
-0.080059
-0.076469
-0.072980
-0.069578
-0.066253
-0.062996
-0.059801
-0.056659
-0.053566
-0.050514
-0.047498
-0.044508
-0.041535
-0.038563
-0.035574
-0.032538
-0.029415
-0.026180
-0.022729
-0.018949
-0.014682
-0.009698
-0.003681
0.003798
0.013290
0.025469
0.041122
0.061112
0.086193
0.116570
0.151246
0.186713
0.216786
0.232983
0.227293
-0.195398
-0.199942
-0.190074
-0.174535
-0.158457
-0.144149
-0.132069
-0.122250
-0.114171
-0.107442
-0.101697
-0.096647
-0.092086
-0.087890
-0.083955
-0.080211
-0.076613
-0.073130
-0.069742
-0.066436
-0.063201
-0.060029
-0.056912
-0.053844
-0.050818
-0.047827
-0.044862
-0.041910
-0.038955
-0.035975
-0.032936
-0.029793
-0.026485
-0.022939
-0.019014
-0.014530
-0.009233
-0.002768
0.005339
0.015714
0.029153
0.046634
0.069289
0.098270
0.134407
0.177958
0.226750
0.273953
0.307131
0.311095
-0.254896
-0.249266
-0.223370
-0.194437
-0.169026
-0.149108
-0.133719
-0.122057
-0.113022
-0.105847
-0.099949
-0.094915
-0.090463
-0.086410
-0.082633
-0.079047
-0.075600
-0.072258
-0.068999
-0.065809
-0.062678
-0.059599
-0.056567
-0.053574
-0.050616
-0.047686
-0.044773
-0.041864
-0.038942
-0.035981
-0.032942
-0.029773
-0.026396
-0.022734
-0.018639
-0.013907
-0.008255
-0.001298
0.007487
0.018794
0.033530
0.052849
0.078188
0.111252
0.153914
0.207850
0.273156
0.345624
0.410100
0.437904
-0.360744
-0.319044
-0.259249
-0.209344
-0.172560
-0.146882
-0.129046
-0.116523
-0.107461
-0.100631
-0.095226
-0.090722
-0.086786
-0.083208
-0.079854
-0.076642
-0.073521
-0.070463
-0.067451
-0.064474
-0.061529
-0.058611
-0.055719
-0.052849
-0.049999
-0.047161
-0.044329
-0.041487
-0.038619
-0.035694
-0.032673
-0.029496
-0.026076
-0.022327
-0.018097
-0.013163
-0.007224
0.000131
0.009458
0.021504
0.037255
0.058017
0.085511
0.122015
0.170550
0.235043
0.319975
0.427816
0.548805
0.636398
-0.564722
-0.406409
-0.284002
-0.207164
-0.160918
-0.132971
-0.115660
-0.104561
-0.097104
-0.091786
-0.087713
-0.084352
-0.081383
-0.078617
-0.075944
-0.073302
-0.070661
-0.068007
-0.065335
-0.062648
-0.059948
-0.057242
-0.054531
-0.051818
-0.049104
-0.046386
-0.043658
-0.040907
-0.038116
-0.035255
-0.032284
-0.029142
-0.025736
-0.021985
-0.017726
-0.012736
-0.006708
0.000774
0.010273
0.022545
0.038605
0.059826
0.088093
0.126093
0.177848
0.249726
0.352193
0.501713
0.715488
0.959523
-0.965248
-0.455060
-0.253594
-0.166830
-0.125551
-0.104427
-0.093036
-0.086603
-0.082743
-0.080197
-0.078277
-0.076603
-0.074969
-0.073268
-0.071452
-0.069507
-0.067434
-0.065248
-0.062964
-0.060601
-0.058175
-0.055701
-0.053189
-0.050650
-0.048087
-0.045503
-0.042895
-0.040255
-0.037566
-0.034803
-0.031927
-0.028882
-0.025588
-0.021957
-0.017840
-0.013026
-0.007226
-0.000049
0.009036
0.020738
0.036010
0.056145
0.082938
0.119009
0.168530
0.238983
0.345642
0.522602
0.845953
1.477459
