# vtk DataFile Version 3.0
Scalar Field
ASCII
DATASET RECTILINEAR_GRID
DIMENSIONS 50 50 1
X_COORDINATES 50 double
0.100000 0.300000 0.500000 0.700000 0.900000 1.100000 1.300000 1.500000 1.700000 1.900000 2.100000 2.300000 2.500000 2.700000 2.900000 3.100000 3.300000 3.500000 3.700000 3.900000 4.100000 4.300000 4.500000 4.700000 4.900000 5.100000 5.300000 5.500000 5.700000 5.900000 6.100000 6.300000 6.500000 6.700000 6.900000 7.100000 7.300000 7.500000 7.700000 7.900000 8.100000 8.300000 8.500000 8.700000 8.900000 9.100000 9.300000 9.500000 9.700000 9.900000 
Y_COORDINATES 50 double
0.100000 0.300000 0.500000 0.700000 0.900000 1.100000 1.300000 1.500000 1.700000 1.900000 2.100000 2.300000 2.500000 2.700000 2.900000 3.100000 3.300000 3.500000 3.700000 3.900000 4.100000 4.300000 4.500000 4.700000 4.900000 5.100000 5.300000 5.500000 5.700000 5.900000 6.100000 6.300000 6.500000 6.700000 6.900000 7.100000 7.300000 7.500000 7.700000 7.900000 8.100000 8.300000 8.500000 8.700000 8.900000 9.100000 9.300000 9.500000 9.700000 9.900000 
Z_COORDINATES 1 double
0.0
POINT_DATA 2500
SCALARS Skalarfeld double 1
LOOKUP_TABLE default
-0.013382
-0.013436
-0.013558
-0.013715
-0.013880
-0.014032
-0.014156
-0.014242
-0.014285
-0.014281
-0.014228
-0.014124
-0.013972
-0.013770
-0.013521
-0.013227
-0.012888
-0.012508
-0.012088
-0.011631
-0.011141
-0.010619
-0.010071
-0.009500
-0.008911
-0.008309
-0.007701
-0.007092
-0.006489
-0.005899
-0.005330
-0.004789
-0.004284
-0.003820
-0.003406
-0.003047
-0.002747
-0.002511
-0.002341
-0.002238
-0.002200
-0.002224
-0.002304
-0.002432
-0.002598
-0.002785
-0.002976
-0.003147
-0.003270
-0.003317
-0.013327
-0.013382
-0.013483
-0.013609
-0.013739
-0.013859
-0.013955
-0.014019
-0.014046
-0.014030
-0.013970
-0.013864
-0.013713
-0.013517
-0.013276
-0.012993
-0.012668
-0.012304
-0.011903
-0.011466
-0.010998
-0.010501
-0.009978
-0.009435
-0.008874
-0.008302
-0.007724
-0.007147
-0.006575
-0.006017
-0.005478
-0.004966
-0.004488
-0.004049
-0.003657
-0.003315
-0.003029
-0.002801
-0.002633
-0.002526
-0.002478
-0.002486
-0.002543
-0.002642
-0.002774
-0.002924
-0.003077
-0.003215
-0.003318
-0.003365
-0.013205
-0.013281
-0.013383
-0.013497
-0.013610
-0.013710
-0.013788
-0.013836
-0.013849
-0.013824
-0.013758
-0.013651
-0.013501
-0.013309
-0.013076
-0.012802
-0.012489
-0.012139
-0.011753
-0.011335
-0.010885
-0.010409
-0.009908
-0.009387
-0.008851
-0.008303
-0.007750
-0.007197
-0.006650
-0.006117
-0.005602
-0.005112
-0.004655
-0.004235
-0.003858
-0.003530
-0.003254
-0.003032
-0.002867
-0.002757
-0.002702
-0.002699
-0.002741
-0.002821
-0.002931
-0.003060
-0.003193
-0.003319
-0.003422
-0.003488
-0.013044
-0.013155
-0.013272
-0.013388
-0.013495
-0.013585
-0.013651
-0.013688
-0.013693
-0.013661
-0.013591
-0.013482
-0.013334
-0.013146
-0.012919
-0.012653
-0.012351
-0.012013
-0.011640
-0.011236
-0.010803
-0.010343
-0.009860
-0.009358
-0.008840
-0.008312
-0.007778
-0.007244
-0.006717
-0.006201
-0.005704
-0.005231
-0.004788
-0.004382
-0.004017
-0.003698
-0.003429
-0.003212
-0.003048
-0.002938
-0.002879
-0.002869
-0.002902
-0.002972
-0.003072
-0.003190
-0.003319
-0.003446
-0.003562
-0.003659
-0.012873
-0.013022
-0.013161
-0.013288
-0.013397
-0.013485
-0.013546
-0.013578
-0.013577
-0.013541
-0.013469
-0.013359
-0.013212
-0.013028
-0.012806
-0.012548
-0.012254
-0.011925
-0.011564
-0.011172
-0.010752
-0.010306
-0.009837
-0.009349
-0.008845
-0.008331
-0.007811
-0.007291
-0.006777
-0.006273
-0.005788
-0.005326
-0.004893
-0.004495
-0.004138
-0.003825
-0.003560
-0.003346
-0.003184
-0.003074
-0.003014
-0.003001
-0.003031
-0.003098
-0.003194
-0.003313
-0.003446
-0.003584
-0.003721
-0.003854
-0.012712
-0.012900
-0.013065
-0.013207
-0.013324
-0.013414
-0.013476
-0.013505
-0.013502
-0.013464
-0.013391
-0.013282
-0.013137
-0.012955
-0.012738
-0.012486
-0.012199
-0.011878
-0.011526
-0.011144
-0.010734
-0.010298
-0.009839
-0.009361
-0.008868
-0.008363
-0.007852
-0.007340
-0.006833
-0.006337
-0.005858
-0.005401
-0.004973
-0.004579
-0.004225
-0.003915
-0.003652
-0.003440
-0.003279
-0.003169
-0.003110
-0.003098
-0.003129
-0.003198
-0.003298
-0.003424
-0.003568
-0.003723
-0.003887
-0.004055
-0.012575
-0.012800
-0.012992
-0.013152
-0.013281
-0.013378
-0.013443
-0.013473
-0.013470
-0.013433
-0.013360
-0.013252
-0.013108
-0.012930
-0.012717
-0.012469
-0.012188
-0.011874
-0.011529
-0.011153
-0.010750
-0.010321
-0.009869
-0.009398
-0.008910
-0.008410
-0.007903
-0.007394
-0.006890
-0.006396
-0.005917
-0.005460
-0.005032
-0.004638
-0.004283
-0.003972
-0.003709
-0.003496
-0.003335
-0.003227
-0.003170
-0.003161
-0.003197
-0.003272
-0.003382
-0.003520
-0.003680
-0.003857
-0.004047
-0.004249
-0.012475
-0.012734
-0.012953
-0.013132
-0.013275
-0.013381
-0.013451
-0.013485
-0.013484
-0.013448
-0.013376
-0.013270
-0.013129
-0.012953
-0.012743
-0.012500
-0.012223
-0.011914
-0.011573
-0.011203
-0.010804
-0.010379
-0.009930
-0.009461
-0.008974
-0.008475
-0.007967
-0.007457
-0.006950
-0.006452
-0.005969
-0.005508
-0.005074
-0.004675
-0.004315
-0.004000
-0.003734
-0.003519
-0.003358
-0.003250
-0.003196
-0.003192
-0.003235
-0.003321
-0.003444
-0.003598
-0.003777
-0.003978
-0.004196
-0.004431
-0.012419
-0.012711
-0.012955
-0.013154
-0.013311
-0.013428
-0.013505
-0.013544
-0.013547
-0.013513
-0.013444
-0.013340
-0.013201
-0.013028
-0.012821
-0.012581
-0.012307
-0.012001
-0.011663
-0.011295
-0.010898
-0.010474
-0.010025
-0.009554
-0.009065
-0.008562
-0.008049
-0.007532
-0.007017
-0.006510
-0.006018
-0.005547
-0.005103
-0.004694
-0.004326
-0.004002
-0.003730
-0.003511
-0.003347
-0.003241
-0.003190
-0.003193
-0.003245
-0.003344
-0.003482
-0.003655
-0.003857
-0.004084
-0.004330
-0.004595
-0.012414
-0.012737
-0.013005
-0.013224
-0.013396
-0.013524
-0.013610
-0.013655
-0.013662
-0.013632
-0.013566
-0.013465
-0.013328
-0.013157
-0.012953
-0.012714
-0.012443
-0.012138
-0.011801
-0.011433
-0.011035
-0.010609
-0.010157
-0.009681
-0.009186
-0.008674
-0.008152
-0.007623
-0.007096
-0.006575
-0.006068
-0.005581
-0.005123
-0.004699
-0.004317
-0.003982
-0.003699
-0.003474
-0.003307
-0.003200
-0.003152
-0.003162
-0.003226
-0.003339
-0.003496
-0.003691
-0.003918
-0.004171
-0.004447
-0.004741
-0.012467
-0.012817
-0.013110
-0.013348
-0.013535
-0.013675
-0.013769
-0.013822
-0.013834
-0.013808
-0.013746
-0.013647
-0.013513
-0.013344
-0.013141
-0.012904
-0.012633
-0.012329
-0.011991
-0.011621
-0.011220
-0.010789
-0.010331
-0.009847
-0.009341
-0.008817
-0.008280
-0.007735
-0.007190
-0.006650
-0.006122
-0.005615
-0.005136
-0.004693
-0.004292
-0.003941
-0.003645
-0.003409
-0.003236
-0.003128
-0.003083
-0.003101
-0.003177
-0.003307
-0.003485
-0.003704
-0.003958
-0.004240
-0.004545
-0.004869
-0.012581
-0.012958
-0.013274
-0.013531
-0.013733
-0.013885
-0.013989
-0.014049
-0.014067
-0.014046
-0.013987
-0.013891
-0.013759
-0.013593
-0.013391
-0.013154
-0.012883
-0.012578
-0.012238
-0.011864
-0.011458
-0.011019
-0.010552
-0.010056
-0.009537
-0.008996
-0.008440
-0.007874
-0.007306
-0.006741
-0.006188
-0.005654
-0.005149
-0.004680
-0.004256
-0.003883
-0.003570
-0.003320
-0.003138
-0.003026
-0.002983
-0.003008
-0.003098
-0.003246
-0.003447
-0.003693
-0.003977
-0.004290
-0.004627
-0.004981
-0.012760
-0.013165
-0.013502
-0.013778
-0.013995
-0.014159
-0.014273
-0.014340
-0.014365
-0.014348
-0.014293
-0.014201
-0.014071
-0.013906
-0.013706
-0.013469
-0.013197
-0.012889
-0.012545
-0.012167
-0.011753
-0.011305
-0.010825
-0.010316
-0.009779
-0.009218
-0.008638
-0.008047
-0.007450
-0.006855
-0.006270
-0.005704
-0.005166
-0.004665
-0.004211
-0.003812
-0.003475
-0.003207
-0.003013
-0.002894
-0.002852
-0.002884
-0.002987
-0.003156
-0.003382
-0.003658
-0.003974
-0.004321
-0.004692
-0.005079
-0.013010
-0.013440
-0.013800
-0.014094
-0.014326
-0.014502
-0.014626
-0.014702
-0.014733
-0.014721
-0.014670
-0.014581
-0.014454
-0.014291
-0.014090
-0.013853
-0.013580
-0.013269
-0.012921
-0.012535
-0.012112
-0.011653
-0.011159
-0.010632
-0.010075
-0.009491
-0.008884
-0.008261
-0.007631
-0.007000
-0.006377
-0.005772
-0.005195
-0.004655
-0.004164
-0.003732
-0.003366
-0.003074
-0.002862
-0.002733
-0.002689
-0.002728
-0.002845
-0.003034
-0.003288
-0.003596
-0.003949
-0.004335
-0.004744
-0.005168
-0.013333
-0.013789
-0.014171
-0.014483
-0.014731
-0.014920
-0.015054
-0.015138
-0.015175
-0.015169
-0.015122
-0.015036
-0.014912
-0.014750
-0.014551
-0.014313
-0.014038
-0.013723
-0.013369
-0.012976
-0.012544
-0.012072
-0.011562
-0.011015
-0.010435
-0.009824
-0.009186
-0.008528
-0.007859
-0.007186
-0.006519
-0.005867
-0.005243
-0.004658
-0.004122
-0.003648
-0.003245
-0.002923
-0.002688
-0.002545
-0.002495
-0.002538
-0.002668
-0.002880
-0.003163
-0.003508
-0.003901
-0.004330
-0.004783
-0.005249
-0.013733
-0.014216
-0.014620
-0.014951
-0.015215
-0.015416
-0.015560
-0.015653
-0.015697
-0.015697
-0.015655
-0.015572
-0.015451
-0.015291
-0.015092
-0.014854
-0.014577
-0.014259
-0.013900
-0.013499
-0.013056
-0.012570
-0.012043
-0.011475
-0.010869
-0.010228
-0.009556
-0.008859
-0.008146
-0.007425
-0.006707
-0.006002
-0.005323
-0.004682
-0.004093
-0.003568
-0.003120
-0.002759
-0.002493
-0.002329
-0.002269
-0.002313
-0.002456
-0.002691
-0.003006
-0.003391
-0.003830
-0.004308
-0.004812
-0.005328
-0.014215
-0.014724
-0.015152
-0.015503
-0.015782
-0.015996
-0.016151
-0.016252
-0.016304
-0.016310
-0.016273
-0.016195
-0.016077
-0.015919
-0.015722
-0.015484
-0.015205
-0.014884
-0.014520
-0.014111
-0.013658
-0.013158
-0.012613
-0.012024
-0.011391
-0.010719
-0.010009
-0.009269
-0.008507
-0.007733
-0.006957
-0.006190
-0.005447
-0.004742
-0.004088
-0.003502
-0.002998
-0.002587
-0.002282
-0.002089
-0.002013
-0.002054
-0.002207
-0.002464
-0.002814
-0.003243
-0.003734
-0.004269
-0.004832
-0.005407
-0.014782
-0.015320
-0.015771
-0.016142
-0.016438
-0.016666
-0.016832
-0.016942
-0.017002
-0.017014
-0.016983
-0.016910
-0.016795
-0.016641
-0.016446
-0.016210
-0.015931
-0.015608
-0.015239
-0.014824
-0.014361
-0.013848
-0.013286
-0.012675
-0.012015
-0.011310
-0.010562
-0.009775
-0.008960
-0.008127
-0.007286
-0.006451
-0.005634
-0.004853
-0.004124
-0.003464
-0.002890
-0.002418
-0.002061
-0.001829
-0.001727
-0.001758
-0.001918
-0.002197
-0.002584
-0.003061
-0.003610
-0.004211
-0.004844
-0.005489
-0.015440
-0.016007
-0.016483
-0.016874
-0.017187
-0.017429
-0.017607
-0.017728
-0.017795
-0.017815
-0.017790
-0.017723
-0.017614
-0.017464
-0.017273
-0.017039
-0.016761
-0.016438
-0.016068
-0.015648
-0.015177
-0.014653
-0.014075
-0.013443
-0.012758
-0.012020
-0.011232
-0.010397
-0.009527
-0.008630
-0.007719
-0.006805
-0.005905
-0.005036
-0.004218
-0.003470
-0.002811
-0.002262
-0.001838
-0.001553
-0.001415
-0.001427
-0.001587
-0.001887
-0.002311
-0.002841
-0.003456
-0.004133
-0.004847
-0.005576
-0.016192
-0.016790
-0.017292
-0.017706
-0.018037
-0.018293
-0.018484
-0.018614
-0.018691
-0.018719
-0.018702
-0.018641
-0.018539
-0.018395
-0.018209
-0.017980
-0.017707
-0.017386
-0.017016
-0.016595
-0.016119
-0.015587
-0.014996
-0.014346
-0.013637
-0.012868
-0.012043
-0.011160
-0.010232
-0.009268
-0.008280
-0.007280
-0.006287
-0.005318
-0.004396
-0.003543
-0.002782
-0.002137
-0.001627
-0.001271
-0.001081
-0.001062
-0.001214
-0.001529
-0.001990
-0.002578
-0.003267
-0.004030
-0.004839
-0.005669
-0.017044
-0.017675
-0.018205
-0.018641
-0.018991
-0.019264
-0.019467
-0.019609
-0.019696
-0.019733
-0.019724
-0.019672
-0.019578
-0.019442
-0.019264
-0.019043
-0.018776
-0.018461
-0.018096
-0.017676
-0.017200
-0.016664
-0.016066
-0.015403
-0.014673
-0.013878
-0.013016
-0.012089
-0.011103
-0.010070
-0.009001
-0.007909
-0.006813
-0.005731
-0.004689
-0.003712
-0.002827
-0.002063
-0.001445
-0.000997
-0.000734
-0.000667
-0.000798
-0.001119
-0.001615
-0.002263
-0.003034
-0.003897
-0.004817
-0.005766
-0.018001
-0.018667
-0.019227
-0.019688
-0.020058
-0.020347
-0.020564
-0.020718
-0.020815
-0.020863
-0.020864
-0.020821
-0.020737
-0.020612
-0.020445
-0.020235
-0.019979
-0.019674
-0.019318
-0.018906
-0.018435
-0.017901
-0.017301
-0.016631
-0.015888
-0.015071
-0.014180
-0.013214
-0.012172
-0.011071
-0.009919
-0.008730
-0.007521
-0.006314
-0.005135
-0.004013
-0.002981
-0.002071
-0.001317
-0.000747
-0.000385
-0.000247
-0.000338
-0.000655
-0.001181
-0.001890
-0.002751
-0.003725
-0.004776
-0.005865
-0.019069
-0.019773
-0.020365
-0.020851
-0.021243
-0.021549
-0.021781
-0.021947
-0.022057
-0.022115
-0.022127
-0.022096
-0.022025
-0.021913
-0.021760
-0.021564
-0.021323
-0.021034
-0.020693
-0.020295
-0.019837
-0.019313
-0.018719
-0.018051
-0.017304
-0.016475
-0.015562
-0.014564
-0.013474
-0.012308
-0.011074
-0.009784
-0.008456
-0.007112
-0.005779
-0.004491
-0.003283
-0.002197
-0.001273
-0.000547
-0.000052
0.000188
0.000160
-0.000133
-0.000678
-0.001447
-0.002404
-0.003504
-0.004704
-0.005959
-0.020255
-0.021000
-0.021625
-0.022140
-0.022553
-0.022878
-0.023125
-0.023305
-0.023426
-0.023497
-0.023521
-0.023504
-0.023447
-0.023351
-0.023216
-0.023039
-0.022818
-0.022550
-0.022231
-0.021855
-0.021418
-0.020914
-0.020337
-0.019681
-0.018941
-0.018112
-0.017189
-0.016169
-0.015042
-0.013820
-0.012509
-0.011120
-0.009669
-0.008178
-0.006675
-0.005197
-0.003786
-0.002488
-0.001354
-0.000430
0.000240
0.000621
0.000692
0.000448
-0.000100
-0.000923
-0.001979
-0.003219
-0.004588
-0.006037
-0.021566
-0.022355
-0.023017
-0.023560
-0.023998
-0.024342
-0.024604
-0.024798
-0.024932
-0.025015
-0.025053
-0.025050
-0.025010
-0.024933
-0.024818
-0.024665
-0.024470
-0.024230
-0.023940
-0.023595
-0.023189
-0.022716
-0.022168
-0.021539
-0.020820
-0.020005
-0.019087
-0.018060
-0.016915
-0.015648
-0.014270
-0.012788
-0.011214
-0.009569
-0.007883
-0.006194
-0.004548
-0.003000
-0.001609
-0.000437
0.000459
0.001032
0.001246
0.001087
0.000562
-0.000302
-0.001459
-0.002849
-0.004411
-0.006083
-0.023010
-0.023847
-0.024548
-0.025123
-0.025585
-0.025948
-0.026227
-0.026433
-0.026580
-0.026676
-0.026728
-0.026741
-0.026719
-0.026663
-0.026573
-0.026448
-0.026284
-0.026079
-0.025827
-0.025522
-0.025159
-0.024729
-0.024225
-0.023637
-0.022957
-0.022175
-0.021281
-0.020266
-0.019123
-0.017830
-0.016401
-0.014837
-0.013146
-0.011347
-0.009468
-0.007547
-0.005635
-0.003796
-0.002099
-0.000621
0.000565
0.001391
0.001807
0.001782
0.001316
0.000432
-0.000820
-0.002371
-0.004146
-0.006074
-0.024596
-0.025484
-0.026228
-0.026836
-0.027324
-0.027707
-0.028000
-0.028220
-0.028378
-0.028485
-0.028551
-0.028580
-0.028578
-0.028545
-0.028482
-0.028389
-0.028262
-0.028098
-0.027892
-0.027638
-0.027329
-0.026957
-0.026512
-0.025984
-0.025362
-0.024634
-0.023787
-0.022809
-0.021688
-0.020397
-0.018940
-0.017313
-0.015519
-0.013571
-0.011494
-0.009325
-0.007120
-0.004948
-0.002891
-0.001041
0.000507
0.001663
0.002353
0.002527
0.002169
0.001298
-0.000034
-0.001750
-0.003760
-0.005978
-0.026333
-0.027279
-0.028069
-0.028713
-0.029227
-0.029628
-0.029935
-0.030165
-0.030333
-0.030450
-0.030527
-0.030571
-0.030588
-0.030579
-0.030546
-0.030488
-0.030403
-0.030287
-0.030135
-0.029941
-0.029698
-0.029398
-0.029029
-0.028580
-0.028038
-0.027388
-0.026614
-0.025700
-0.024627
-0.023372
-0.021916
-0.020252
-0.018376
-0.016293
-0.014021
-0.011596
-0.009074
-0.006528
-0.004054
-0.001762
0.000230
0.001805
0.002858
0.003313
0.003132
0.002321
0.000933
-0.000946
-0.003210
-0.005753
-0.028234
-0.029244
-0.030084
-0.030765
-0.031305
-0.031724
-0.032042
-0.032278
-0.032451
-0.032574
-0.032660
-0.032716
-0.032750
-0.032764
-0.032761
-0.032740
-0.032699
-0.032636
-0.032546
-0.032422
-0.032257
-0.032043
-0.031767
-0.031417
-0.030977
-0.030431
-0.029759
-0.028939
-0.027948
-0.026762
-0.025343
-0.023677
-0.021748
-0.019551
-0.017098
-0.014416
-0.011559
-0.008606
-0.005660
-0.002851
-0.000324
0.001771
0.003294
0.004132
0.004215
0.003531
0.002125
0.000095
-0.002436
-0.005342
-0.030311
-0.031393
-0.032289
-0.033009
-0.033574
-0.034007
-0.034330
-0.034568
-0.034740
-0.034862
-0.034950
-0.035014
-0.035060
-0.035094
-0.035119
-0.035135
-0.035141
-0.035134
-0.035111
-0.035065
-0.034989
-0.034873
-0.034706
-0.034474
-0.034160
-0.033744
-0.033202
-0.032509
-0.031636
-0.030552
-0.029212
-0.027585
-0.025641
-0.023363
-0.020750
-0.017821
-0.014623
-0.011235
-0.007768
-0.004369
-0.001212
0.001517
0.003633
0.004975
0.005432
0.004962
0.003598
0.001439
-0.001367
-0.004669
-0.032581
-0.033746
-0.034702
-0.035463
-0.036051
-0.036492
-0.036814
-0.037044
-0.037205
-0.037317
-0.037398
-0.037460
-0.037512
-0.037560
-0.037609
-0.037659
-0.037710
-0.037761
-0.037808
-0.037845
-0.037865
-0.037859
-0.037816
-0.037719
-0.037552
-0.037291
-0.036909
-0.036375
-0.035654
-0.034707
-0.033491
-0.031948
-0.030033
-0.027714
-0.024974
-0.021818
-0.018284
-0.014444
-0.010415
-0.006359
-0.002475
0.001008
0.003852
0.005842
0.006809
0.006666
0.005421
0.003175
0.000095
-0.003637
-0.035065
-0.036323
-0.037346
-0.038148
-0.038755
-0.039197
-0.039506
-0.039715
-0.039851
-0.039940
-0.040001
-0.040048
-0.040095
-0.040147
-0.040212
-0.040290
-0.040382
-0.040489
-0.040605
-0.040728
-0.040850
-0.040962
-0.041053
-0.041106
-0.041103
-0.041018
-0.040822
-0.040478
-0.039945
-0.039174
-0.038116
-0.036705
-0.034867
-0.032552
-0.029725
-0.026374
-0.022519
-0.018224
-0.013605
-0.008833
-0.004133
0.000225
0.003947
0.006744
0.008380
0.008705
0.007685
0.005412
0.002072
-0.002120
-0.037786
-0.039153
-0.040251
-0.041094
-0.041713
-0.042143
-0.042423
-0.042592
-0.042684
-0.042729
-0.042751
-0.042767
-0.042792
-0.042835
-0.042903
-0.043000
-0.043126
-0.043281
-0.043465
-0.043672
-0.043896
-0.044130
-0.044362
-0.044575
-0.044749
-0.044858
-0.044869
-0.044740
-0.044423
-0.043861
-0.042995
-0.041758
-0.040043
-0.037780
-0.034911
-0.031403
-0.027256
-0.022518
-0.017295
-0.011762
-0.006165
-0.000814
0.003936
0.007718
0.010207
0.011168
0.010508
0.008293
0.004721
0.000047
-0.040776
-0.042271
-0.043453
-0.044336
-0.044954
-0.045353
-0.045581
-0.045684
-0.045706
-0.045680
-0.045638
-0.045599
-0.045582
-0.045597
-0.045652
-0.045753
-0.045900
-0.046096
-0.046338
-0.046624
-0.046948
-0.047303
-0.047677
-0.048054
-0.048413
-0.048726
-0.048956
-0.049059
-0.048980
-0.048653
-0.048004
-0.046973
-0.045423
-0.043255
-0.040390
-0.036768
-0.032365
-0.027205
-0.021380
-0.015059
-0.008500
-0.002047
0.003881
0.008833
0.012378
0.014174
0.014041
0.011998
0.008243
0.003070
-0.044077
-0.045725
-0.046999
-0.047916
-0.048517
-0.048859
-0.049000
-0.049002
-0.048915
-0.048784
-0.048644
-0.048521
-0.048435
-0.048398
-0.048419
-0.048505
-0.048658
-0.048880
-0.049170
-0.049525
-0.049941
-0.050411
-0.050923
-0.051461
-0.052005
-0.052523
-0.052979
-0.053321
-0.053491
-0.053415
-0.053009
-0.052182
-0.050831
-0.048795
-0.045971
-0.042275
-0.037653
-0.032102
-0.025689
-0.018568
-0.011000
-0.003355
0.003895
0.010205
0.015027
0.017886
0.018483
0.016757
0.012892
0.007215
-0.047741
-0.049576
-0.050953
-0.051893
-0.052449
-0.052693
-0.052702
-0.052552
-0.052309
-0.052026
-0.051747
-0.051501
-0.051312
-0.051193
-0.051155
-0.051205
-0.051344
-0.051575
-0.051897
-0.052309
-0.052804
-0.053378
-0.054019
-0.054710
-0.055430
-0.056147
-0.056822
-0.057400
-0.057816
-0.057990
-0.057826
-0.057218
-0.056071
-0.054181
-0.051422
-0.047681
-0.042872
-0.036961
-0.029981
-0.022063
-0.013456
-0.004543
0.004157
0.012013
0.018344
0.022521
0.024085
0.022862
0.018987
0.012814
-0.051844
-0.053907
-0.055398
-0.056342
-0.056809
-0.056897
-0.056707
-0.056339
-0.055875
-0.055382
-0.054910
-0.054496
-0.054164
-0.053929
-0.053803
-0.053790
-0.053894
-0.054115
-0.054452
-0.054903
-0.055463
-0.056126
-0.056881
-0.057710
-0.058591
-0.059492
-0.060369
-0.061167
-0.061813
-0.062220
-0.062283
-0.061878
-0.060924
-0.059176
-0.056485
-0.052709
-0.047732
-0.041481
-0.033955
-0.025248
-0.015583
-0.005343
0.004922
0.014504
0.022587
0.028362
0.031175
0.030682
0.026933
0.020286
-0.056487
-0.058836
-0.060448
-0.061359
-0.061671
-0.061517
-0.061038
-0.060361
-0.059593
-0.058815
-0.058087
-0.057449
-0.056929
-0.056541
-0.056294
-0.056193
-0.056237
-0.056427
-0.056761
-0.057234
-0.057842
-0.058577
-0.059428
-0.060376
-0.061397
-0.062457
-0.063512
-0.064500
-0.065346
-0.065956
-0.066214
-0.065984
-0.065175
-0.063540
-0.060895
-0.057070
-0.051918
-0.045332
-0.037267
-0.027773
-0.017036
-0.005418
0.006520
0.018005
0.028093
0.035777
0.040163
0.040682
0.037237
0.030156
-0.061819
-0.064526
-0.066258
-0.067074
-0.067127
-0.066608
-0.065710
-0.064604
-0.063424
-0.062270
-0.061210
-0.060288
-0.059530
-0.058949
-0.058550
-0.058333
-0.058296
-0.058437
-0.058749
-0.059228
-0.059867
-0.060657
-0.061583
-0.062628
-0.063763
-0.064953
-0.066151
-0.067292
-0.068296
-0.069062
-0.069468
-0.069374
-0.068624
-0.067055
-0.064407
-0.060488
-0.055127
-0.048181
-0.039561
-0.029265
-0.017430
-0.004379
0.009340
0.022913
0.035279
0.045223
0.051568
0.053449
0.050544
0.043091
-0.068054
-0.071215
-0.073047
-0.073658
-0.073288
-0.072220
-0.070727
-0.069032
-0.067306
-0.065667
-0.064190
-0.062918
-0.061871
-0.061058
-0.060478
-0.060124
-0.059988
-0.060065
-0.060343
-0.060814
-0.061469
-0.062297
-0.063282
-0.064399
-0.065621
-0.066908
-0.068209
-0.069458
-0.070568
-0.071431
-0.071919
-0.071881
-0.071143
-0.069552
-0.066824
-0.062730
-0.057094
-0.049731
-0.040514
-0.029370
-0.016380
-0.001822
0.013807
0.029677
0.044635
0.057254
0.066033
0.069725
0.067675
0.059940
-0.075522
-0.079258
-0.081124
-0.081336
-0.080285
-0.078401
-0.076066
-0.073577
-0.071142
-0.068893
-0.066905
-0.065216
-0.063835
-0.062759
-0.061977
-0.061471
-0.061226
-0.061233
-0.061470
-0.061925
-0.062584
-0.063441
-0.064470
-0.065636
-0.066920
-0.068278
-0.069650
-0.070961
-0.072120
-0.073014
-0.073506
-0.073434
-0.072611
-0.070875
-0.067948
-0.063620
-0.057632
-0.049761
-0.039889
-0.027806
-0.013560
0.002609
0.020322
0.038750
0.056688
0.072508
0.084337
0.090445
0.089698
0.081819
-0.084742
-0.089192
-0.090931
-0.090398
-0.088256
-0.085165
-0.081657
-0.078113
-0.074776
-0.071782
-0.069193
-0.067030
-0.065280
-0.063921
-0.062933
-0.062272
-0.061916
-0.061864
-0.062065
-0.062509
-0.063185
-0.064063
-0.065123
-0.066332
-0.067659
-0.069056
-0.070459
-0.071790
-0.072949
-0.073816
-0.074245
-0.074063
-0.073072
-0.071089
-0.067841
-0.063084
-0.056562
-0.048038
-0.037324
-0.024287
-0.008750
0.009127
0.029191
0.050507
0.071939
0.091666
0.107405
0.116800
0.118029
0.110238
-0.096570
-0.101859
-0.103097
-0.101202
-0.097320
-0.092456
-0.087336
-0.082425
-0.077975
-0.074106
-0.070839
-0.068168
-0.066038
-0.064393
-0.063228
-0.062427
-0.062004
-0.061899
-0.062081
-0.062528
-0.063217
-0.064121
-0.065212
-0.066456
-0.067812
-0.069228
-0.070635
-0.071949
-0.073065
-0.073852
-0.074157
-0.073797
-0.072563
-0.070242
-0.066576
-0.061299
-0.054137
-0.044822
-0.033108
-0.018788
-0.001703
0.018117
0.040553
0.065109
0.090736
0.115357
0.136266
0.150298
0.154607
0.147348
-0.112489
-0.118606
-0.118507
-0.114142
-0.107498
-0.100067
-0.092783
-0.086155
-0.080389
-0.075554
-0.071565
-0.068402
-0.065925
-0.064067
-0.062737
-0.061858
-0.061383
-0.061263
-0.061456
-0.061931
-0.062656
-0.063600
-0.064731
-0.066009
-0.067389
-0.068812
-0.070205
-0.071476
-0.072514
-0.073181
-0.073315
-0.072724
-0.071188
-0.068464
-0.064313
-0.058448
-0.050570
-0.040373
-0.027560
-0.011850
0.006990
0.029096
0.054452
0.082697
0.113089
0.143957
0.171927
0.192808
0.202162
0.196398
-0.135217
-0.141618
-0.138334
-0.129520
-0.118540
-0.107488
-0.097407
-0.088747
-0.081513
-0.075733
-0.071077
-0.067490
-0.064753
-0.062741
-0.061334
-0.060440
-0.059985
-0.059908
-0.060162
-0.060704
-0.061498
-0.062508
-0.063696
-0.065020
-0.066427
-0.067855
-0.069224
-0.070439
-0.071381
-0.071906
-0.071843
-0.070993
-0.069126
-0.065975
-0.061317
-0.054846
-0.046232
-0.035134
-0.021197
-0.004060
0.016626
0.041169
0.069785
0.102461
0.138731
0.177215
0.215031
0.246475
0.264614
0.262605
-0.170052
-0.174420
-0.163882
-0.147165
-0.129569
-0.113667
-0.100188
-0.089391
-0.080772
-0.074109
-0.068985
-0.065129
-0.062288
-0.060268
-0.058916
-0.058114
-0.057772
-0.057819
-0.058197
-0.058860
-0.059767
-0.060877
-0.062150
-0.063539
-0.064988
-0.066430
-0.067783
-0.068944
-0.069792
-0.070177
-0.069922
-0.068820
-0.066632
-0.063085
-0.057960
-0.050933
-0.041649
-0.029728
-0.014755
0.003715
0.026165
0.053112
0.085084
0.122549
0.165710
0.214013
0.265085
0.313214
0.347520
0.354780
-0.227978
-0.222323
-0.195746
-0.165501
-0.138388
-0.116677
-0.099717
-0.086895
-0.077267
-0.070121
-0.064865
-0.061059
-0.058373
-0.056559
-0.055437
-0.054870
-0.054757
-0.055020
-0.055600
-0.056447
-0.057518
-0.058771
-0.060163
-0.061645
-0.063161
-0.064641
-0.065999
-0.067132
-0.067914
-0.068192
-0.067786
-0.066484
-0.064037
-0.060191
-0.054714
-0.047267
-0.037475
-0.024926
-0.009155
0.010369
0.034265
0.063271
0.098283
0.140380
0.190777
0.250503
0.319344
0.393028
0.458033
0.488361
-0.332949
-0.291344
-0.230873
-0.179564
-0.140869
-0.113216
-0.093648
-0.079855
-0.070115
-0.063250
-0.058445
-0.055144
-0.052961
-0.051623
-0.050938
-0.050768
-0.051011
-0.051593
-0.052456
-0.053551
-0.054840
-0.056280
-0.057831
-0.059444
-0.061063
-0.062618
-0.064023
-0.065176
-0.065948
-0.066189
-0.065717
-0.064323
-0.061731
-0.057759
-0.052120
-0.044475
-0.034442
-0.021588
-0.005410
0.014685
0.039426
0.069744
0.106885
0.152576
0.209263
0.280323
0.369826
0.480108
0.602044
0.691291
-0.536867
-0.378700
-0.255605
-0.177238
-0.128927
-0.098826
-0.079612
-0.067085
-0.058804
-0.053317
-0.049731
-0.047479
-0.046188
-0.045610
-0.045573
-0.045957
-0.046676
-0.047669
-0.048887
-0.050291
-0.051846
-0.053518
-0.055269
-0.057055
-0.058822
-0.060505
-0.062019
-0.063265
-0.064117
-0.064426
-0.064015
-0.062672
-0.060158
-0.056272
-0.050725
-0.043182
-0.033262
-0.020530
-0.004472
0.015530
0.040254
0.070729
0.108412
0.155494
0.215484
0.294287
0.402023
0.554998
0.770627
1.016097
-0.937800
-0.427796
-0.225640
-0.137228
-0.093708
-0.070207
-0.056670
-0.048566
-0.043654
-0.040739
-0.039138
-0.038441
-0.038388
-0.038809
-0.039589
-0.040650
-0.041937
-0.043410
-0.045037
-0.046793
-0.048655
-0.050597
-0.052589
-0.054594
-0.056564
-0.058439
-0.060141
-0.061576
-0.062625
-0.063145
-0.062963
-0.061874
-0.059675
-0.056135
-0.050979
-0.043887
-0.034491
-0.022370
-0.007031
0.012116
0.035808
0.065019
0.101129
0.146274
0.204113
0.281655
0.393835
0.574640
0.900373
1.533296
