# vtk DataFile Version 3.0
Vector Field
ASCII
DATASET RECTILINEAR_GRID
DIMENSIONS 50 50 1
X_COORDINATES 50 double
0.100000 0.300000 0.500000 0.700000 0.900000 1.100000 1.300000 1.500000 1.700000 1.900000 2.100000 2.300000 2.500000 2.700000 2.900000 3.100000 3.300000 3.500000 3.700000 3.900000 4.100000 4.300000 4.500000 4.700000 4.900000 5.100000 5.300000 5.500000 5.700000 5.900000 6.100000 6.300000 6.500000 6.700000 6.900000 7.100000 7.300000 7.500000 7.700000 7.900000 8.100000 8.300000 8.500000 8.700000 8.900000 9.100000 9.300000 9.500000 9.700000 9.900000 
Y_COORDINATES 50 double
0.100000 0.300000 0.500000 0.700000 0.900000 1.100000 1.300000 1.500000 1.700000 1.900000 2.100000 2.300000 2.500000 2.700000 2.900000 3.100000 3.300000 3.500000 3.700000 3.900000 4.100000 4.300000 4.500000 4.700000 4.900000 5.100000 5.300000 5.500000 5.700000 5.900000 6.100000 6.300000 6.500000 6.700000 6.900000 7.100000 7.300000 7.500000 7.700000 7.900000 8.100000 8.300000 8.500000 8.700000 8.900000 9.100000 9.300000 9.500000 9.700000 9.900000 
Z_COORDINATES 1 double
0.0
POINT_DATA 2500
VECTORS Vektorfeld double
0.000021 -0.000021 0.0
0.000055 -0.000014 0.0
0.000055 0.000014 0.0
-0.000007 0.000048 0.0
-0.000134 0.000080 0.0
-0.000322 0.000108 0.0
-0.000560 0.000131 0.0
-0.000841 0.000150 0.0
-0.001155 0.000164 0.0
-0.001493 0.000174 0.0
-0.001848 0.000181 0.0
-0.002213 0.000184 0.0
-0.002581 0.000185 0.0
-0.002949 0.000183 0.0
-0.003310 0.000178 0.0
-0.003660 0.000172 0.0
-0.003996 0.000163 0.0
-0.004312 0.000153 0.0
-0.004605 0.000140 0.0
-0.004872 0.000126 0.0
-0.005107 0.000110 0.0
-0.005308 0.000091 0.0
-0.005471 0.000071 0.0
-0.005591 0.000049 0.0
-0.005667 0.000026 0.0
-0.005694 0.000001 0.0
-0.005671 -0.000024 0.0
-0.005597 -0.000050 0.0
-0.005470 -0.000077 0.0
-0.005291 -0.000102 0.0
-0.005061 -0.000127 0.0
-0.004784 -0.000150 0.0
-0.004462 -0.000171 0.0
-0.004102 -0.000189 0.0
-0.003710 -0.000203 0.0
-0.003294 -0.000213 0.0
-0.002862 -0.000218 0.0
-0.002425 -0.000219 0.0
-0.001993 -0.000214 0.0
-0.001576 -0.000203 0.0
-0.001185 -0.000188 0.0
-0.000830 -0.000167 0.0
-0.000522 -0.000142 0.0
-0.000268 -0.000113 0.0
-0.000075 -0.000081 0.0
0.000053 -0.000047 0.0
0.000115 -0.000015 0.0
0.000116 0.000013 0.0
0.000073 0.000029 0.0
0.000022 0.000022 0.0
0.000014 -0.000056 0.0
0.000006 -0.000005 0.0
-0.000103 0.000116 0.0
-0.000353 0.000258 0.0
-0.000753 0.000396 0.0
-0.001295 0.000521 0.0
-0.001964 0.000626 0.0
-0.002738 0.000711 0.0
-0.003598 0.000776 0.0
-0.004521 0.000823 0.0
-0.005489 0.000854 0.0
-0.006484 0.000870 0.0
-0.007490 0.000873 0.0
-0.008493 0.000864 0.0
-0.009477 0.000843 0.0
-0.010432 0.000812 0.0
-0.011345 0.000771 0.0
-0.012204 0.000721 0.0
-0.012998 0.000661 0.0
-0.013717 0.000591 0.0
-0.014351 0.000513 0.0
-0.014888 0.000426 0.0
-0.015319 0.000330 0.0
-0.015636 0.000227 0.0
-0.015829 0.000117 0.0
-0.015893 0.000002 0.0
-0.015822 -0.000118 0.0
-0.015613 -0.000240 0.0
-0.015264 -0.000362 0.0
-0.014777 -0.000482 0.0
-0.014157 -0.000597 0.0
-0.013410 -0.000704 0.0
-0.012548 -0.000801 0.0
-0.011585 -0.000883 0.0
-0.010537 -0.000949 0.0
-0.009426 -0.000995 0.0
-0.008275 -0.001020 0.0
-0.007107 -0.001022 0.0
-0.005950 -0.001000 0.0
-0.004831 -0.000953 0.0
-0.003777 -0.000883 0.0
-0.002813 -0.000790 0.0
-0.001963 -0.000677 0.0
-0.001247 -0.000547 0.0
-0.000681 -0.000405 0.0
-0.000273 -0.000258 0.0
-0.000022 -0.000116 0.0
0.000085 0.000006 0.0
0.000083 0.000082 0.0
0.000030 0.000074 0.0
-0.000014 -0.000056 0.0
-0.000115 0.000104 0.0
-0.000389 0.000389 0.0
-0.000869 0.000714 0.0
-0.001560 0.001032 0.0
-0.002453 0.001320 0.0
-0.003525 0.001567 0.0
-0.004750 0.001769 0.0
-0.006099 0.001926 0.0
-0.007542 0.002040 0.0
-0.009051 0.002115 0.0
-0.010600 0.002154 0.0
-0.012164 0.002160 0.0
-0.013721 0.002136 0.0
-0.015251 0.002085 0.0
-0.016732 0.002007 0.0
-0.018146 0.001904 0.0
-0.019475 0.001777 0.0
-0.020702 0.001626 0.0
-0.021811 0.001453 0.0
-0.022785 0.001258 0.0
-0.023608 0.001041 0.0
-0.024266 0.000805 0.0
-0.024746 0.000550 0.0
-0.025037 0.000279 0.0
-0.025127 -0.000005 0.0
-0.025010 -0.000299 0.0
-0.024681 -0.000598 0.0
-0.024139 -0.000896 0.0
-0.023386 -0.001188 0.0
-0.022431 -0.001468 0.0
-0.021283 -0.001728 0.0
-0.019961 -0.001961 0.0
-0.018485 -0.002161 0.0
-0.016882 -0.002321 0.0
-0.015180 -0.002435 0.0
-0.013416 -0.002497 0.0
-0.011624 -0.002504 0.0
-0.009846 -0.002453 0.0
-0.008120 -0.002345 0.0
-0.006486 -0.002180 0.0
-0.004981 -0.001961 0.0
-0.003641 -0.001696 0.0
-0.002493 -0.001392 0.0
-0.001559 -0.001061 0.0
-0.000851 -0.000719 0.0
-0.000368 -0.000389 0.0
-0.000092 -0.000104 0.0
0.000014 0.000089 0.0
0.000015 0.000118 0.0
-0.000048 0.000006 0.0
-0.000263 0.000359 0.0
-0.000729 0.000874 0.0
-0.001461 0.001440 0.0
-0.002456 0.001992 0.0
-0.003697 0.002494 0.0
-0.005157 0.002926 0.0
-0.006804 0.003282 0.0
-0.008602 0.003560 0.0
-0.010516 0.003763 0.0
-0.012512 0.003897 0.0
-0.014557 0.003966 0.0
-0.016619 0.003975 0.0
-0.018669 0.003929 0.0
-0.020679 0.003832 0.0
-0.022625 0.003686 0.0
-0.024481 0.003494 0.0
-0.026224 0.003258 0.0
-0.027832 0.002979 0.0
-0.029281 0.002658 0.0
-0.030553 0.002297 0.0
-0.031626 0.001898 0.0
-0.032482 0.001463 0.0
-0.033104 0.000994 0.0
-0.033478 0.000498 0.0
-0.033590 -0.000022 0.0
-0.033433 -0.000557 0.0
-0.033001 -0.001101 0.0
-0.032292 -0.001644 0.0
-0.031310 -0.002174 0.0
-0.030066 -0.002682 0.0
-0.028574 -0.003153 0.0
-0.026854 -0.003577 0.0
-0.024935 -0.003940 0.0
-0.022850 -0.004232 0.0
-0.020635 -0.004440 0.0
-0.018336 -0.004556 0.0
-0.015997 -0.004574 0.0
-0.013669 -0.004490 0.0
-0.011402 -0.004302 0.0
-0.009245 -0.004014 0.0
-0.007245 -0.003631 0.0
-0.005446 -0.003166 0.0
-0.003883 -0.002633 0.0
-0.002583 -0.002053 0.0
-0.001562 -0.001455 0.0
-0.000821 -0.000877 0.0
-0.000343 -0.000370 0.0
-0.000092 -0.000003 0.0
-0.000008 0.000125 0.0
-0.000083 0.000138 0.0
-0.000416 0.000776 0.0
-0.001082 0.001589 0.0
-0.002075 0.002450 0.0
-0.003378 0.003280 0.0
-0.004964 0.004033 0.0
-0.006800 0.004683 0.0
-0.008848 0.005219 0.0
-0.011068 0.005640 0.0
-0.013420 0.005948 0.0
-0.015862 0.006150 0.0
-0.018358 0.006252 0.0
-0.020870 0.006262 0.0
-0.023365 0.006186 0.0
-0.025810 0.006030 0.0
-0.028173 0.005797 0.0
-0.030426 0.005492 0.0
-0.032540 0.005117 0.0
-0.034487 0.004675 0.0
-0.036243 0.004168 0.0
-0.037782 0.003598 0.0
-0.039079 0.002968 0.0
-0.040114 0.002283 0.0
-0.040867 0.001548 0.0
-0.041319 0.000770 0.0
-0.041457 -0.000043 0.0
-0.041270 -0.000880 0.0
-0.040752 -0.001729 0.0
-0.039901 -0.002575 0.0
-0.038723 -0.003402 0.0
-0.037229 -0.004193 0.0
-0.035436 -0.004928 0.0
-0.033369 -0.005589 0.0
-0.031059 -0.006157 0.0
-0.028547 -0.006614 0.0
-0.025875 -0.006943 0.0
-0.023096 -0.007132 0.0
-0.020262 -0.007170 0.0
-0.017433 -0.007051 0.0
-0.014667 -0.006774 0.0
-0.012023 -0.006343 0.0
-0.009555 -0.005769 0.0
-0.007315 -0.005068 0.0
-0.005346 -0.004264 0.0
-0.003679 -0.003389 0.0
-0.002336 -0.002485 0.0
-0.001321 -0.001605 0.0
-0.000622 -0.000819 0.0
-0.000209 -0.000217 0.0
-0.000035 0.000082 0.0
-0.000116 0.000337 0.0
-0.000565 0.001358 0.0
-0.001430 0.002538 0.0
-0.002683 0.003746 0.0
-0.004292 0.004895 0.0
-0.006217 0.005930 0.0
-0.008419 0.006824 0.0
-0.010853 0.007561 0.0
-0.013474 0.008139 0.0
-0.016236 0.008563 0.0
-0.019095 0.008838 0.0
-0.022010 0.008974 0.0
-0.024938 0.008981 0.0
-0.027841 0.008866 0.0
-0.030684 0.008637 0.0
-0.033429 0.008299 0.0
-0.036045 0.007859 0.0
-0.038499 0.007318 0.0
-0.040760 0.006682 0.0
-0.042797 0.005954 0.0
-0.044584 0.005137 0.0
-0.046092 0.004236 0.0
-0.047297 0.003256 0.0
-0.048176 0.002207 0.0
-0.048710 0.001097 0.0
-0.048881 -0.000061 0.0
-0.048678 -0.001252 0.0
-0.048093 -0.002460 0.0
-0.047126 -0.003662 0.0
-0.045781 -0.004838 0.0
-0.044070 -0.005962 0.0
-0.042013 -0.007009 0.0
-0.039637 -0.007951 0.0
-0.036977 -0.008763 0.0
-0.034078 -0.009420 0.0
-0.030988 -0.009898 0.0
-0.027765 -0.010180 0.0
-0.024470 -0.010250 0.0
-0.021168 -0.010101 0.0
-0.017928 -0.009731 0.0
-0.014814 -0.009145 0.0
-0.011891 -0.008357 0.0
-0.009218 -0.007393 0.0
-0.006843 -0.006283 0.0
-0.004806 -0.005073 0.0
-0.003133 -0.003817 0.0
-0.001835 -0.002586 0.0
-0.000907 -0.001465 0.0
-0.000328 -0.000563 0.0
-0.000061 -0.000014 0.0
-0.000147 0.000600 0.0
-0.000706 0.002101 0.0
-0.001764 0.003720 0.0
-0.003272 0.005326 0.0
-0.005179 0.006831 0.0
-0.007437 0.008178 0.0
-0.009994 0.009336 0.0
-0.012801 0.010289 0.0
-0.015806 0.011036 0.0
-0.018959 0.011581 0.0
-0.022213 0.011933 0.0
-0.025521 0.012102 0.0
-0.028839 0.012100 0.0
-0.032125 0.011937 0.0
-0.035339 0.011622 0.0
-0.038443 0.011163 0.0
-0.041399 0.010567 0.0
-0.044172 0.009837 0.0
-0.046728 0.008980 0.0
-0.049034 0.008000 0.0
-0.051059 0.006902 0.0
-0.052773 0.005692 0.0
-0.054148 0.004379 0.0
-0.055158 0.002973 0.0
-0.055781 0.001487 0.0
-0.055999 -0.000062 0.0
-0.055798 -0.001655 0.0
-0.055170 -0.003270 0.0
-0.054111 -0.004878 0.0
-0.052627 -0.006452 0.0
-0.050729 -0.007957 0.0
-0.048439 -0.009361 0.0
-0.045785 -0.010629 0.0
-0.042805 -0.011725 0.0
-0.039546 -0.012616 0.0
-0.036064 -0.013274 0.0
-0.032419 -0.013672 0.0
-0.028681 -0.013792 0.0
-0.024921 -0.013621 0.0
-0.021215 -0.013158 0.0
-0.017636 -0.012409 0.0
-0.014259 -0.011394 0.0
-0.011147 -0.010142 0.0
-0.008361 -0.008696 0.0
-0.005946 -0.007112 0.0
-0.003936 -0.005460 0.0
-0.002349 -0.003826 0.0
-0.001189 -0.002312 0.0
-0.000443 -0.001041 0.0
-0.000085 -0.000160 0.0
-0.000176 0.000924 0.0
-0.000838 0.002997 0.0
-0.002082 0.005125 0.0
-0.003835 0.007181 0.0
-0.006033 0.009080 0.0
-0.008613 0.010766 0.0
-0.011516 0.012208 0.0
-0.014683 0.013391 0.0
-0.018059 0.014315 0.0
-0.021588 0.014985 0.0
-0.025220 0.015414 0.0
-0.028904 0.015613 0.0
-0.032594 0.015597 0.0
-0.036244 0.015377 0.0
-0.039812 0.014965 0.0
-0.043257 0.014369 0.0
-0.046539 0.013599 0.0
-0.049621 0.012660 0.0
-0.052464 0.011558 0.0
-0.055034 0.010299 0.0
-0.057296 0.008890 0.0
-0.059218 0.007340 0.0
-0.060769 0.005658 0.0
-0.061922 0.003857 0.0
-0.062651 0.001956 0.0
-0.062935 -0.000028 0.0
-0.062758 -0.002067 0.0
-0.062110 -0.004134 0.0
-0.060987 -0.006196 0.0
-0.059391 -0.008214 0.0
-0.057335 -0.010149 0.0
-0.054839 -0.011957 0.0
-0.051932 -0.013594 0.0
-0.048655 -0.015016 0.0
-0.045058 -0.016181 0.0
-0.041198 -0.017052 0.0
-0.037143 -0.017594 0.0
-0.032967 -0.017784 0.0
-0.028750 -0.017606 0.0
-0.024574 -0.017055 0.0
-0.020524 -0.016140 0.0
-0.016681 -0.014884 0.0
-0.013119 -0.013324 0.0
-0.009908 -0.011512 0.0
-0.007102 -0.009517 0.0
-0.004744 -0.007423 0.0
-0.002862 -0.005332 0.0
-0.001466 -0.003362 0.0
-0.000554 -0.001651 0.0
-0.000108 -0.000353 0.0
-0.000203 0.001304 0.0
-0.000963 0.004040 0.0
-0.002383 0.006745 0.0
-0.004372 0.009304 0.0
-0.006851 0.011635 0.0
-0.009744 0.013686 0.0
-0.012982 0.015429 0.0
-0.016500 0.016854 0.0
-0.020235 0.017962 0.0
-0.024128 0.018761 0.0
-0.028125 0.019266 0.0
-0.032173 0.019492 0.0
-0.036221 0.019456 0.0
-0.040224 0.019171 0.0
-0.044136 0.018650 0.0
-0.047913 0.017906 0.0
-0.051514 0.016946 0.0
-0.054899 0.015779 0.0
-0.058029 0.014411 0.0
-0.060865 0.012851 0.0
-0.063371 0.011106 0.0
-0.065512 0.009186 0.0
-0.067254 0.007104 0.0
-0.068566 0.004876 0.0
-0.069421 0.002521 0.0
-0.069795 0.000065 0.0
-0.069670 -0.002462 0.0
-0.069030 -0.005026 0.0
-0.067871 -0.007586 0.0
-0.066193 -0.010097 0.0
-0.064007 -0.012509 0.0
-0.061330 -0.014769 0.0
-0.058194 -0.016824 0.0
-0.054639 -0.018618 0.0
-0.050716 -0.020100 0.0
-0.046486 -0.021222 0.0
-0.042023 -0.021942 0.0
-0.037407 -0.022229 0.0
-0.032723 -0.022061 0.0
-0.028065 -0.021433 0.0
-0.023526 -0.020352 0.0
-0.019196 -0.018845 0.0
-0.015163 -0.016957 0.0
-0.011505 -0.014748 0.0
-0.008289 -0.012302 0.0
-0.005568 -0.009717 0.0
-0.003379 -0.007110 0.0
-0.001742 -0.004617 0.0
-0.000662 -0.002389 0.0
-0.000130 -0.000592 0.0
-0.000229 0.001736 0.0
-0.001082 0.005220 0.0
-0.002669 0.008571 0.0
-0.004885 0.011683 0.0
-0.007634 0.014483 0.0
-0.010831 0.016927 0.0
-0.014395 0.018991 0.0
-0.018253 0.020669 0.0
-0.022338 0.021967 0.0
-0.026586 0.022898 0.0
-0.030939 0.023479 0.0
-0.035341 0.023729 0.0
-0.039740 0.023667 0.0
-0.044088 0.023310 0.0
-0.048337 0.022672 0.0
-0.052444 0.021768 0.0
-0.056364 0.020606 0.0
-0.060055 0.019196 0.0
-0.063476 0.017546 0.0
-0.066587 0.015664 0.0
-0.069350 0.013561 0.0
-0.071725 0.011247 0.0
-0.073678 0.008738 0.0
-0.075174 0.006051 0.0
-0.076182 0.003210 0.0
-0.076676 0.000244 0.0
-0.076632 -0.002811 0.0
-0.076034 -0.005915 0.0
-0.074871 -0.009019 0.0
-0.073142 -0.012071 0.0
-0.070853 -0.015010 0.0
-0.068023 -0.017775 0.0
-0.064679 -0.020298 0.0
-0.060861 -0.022516 0.0
-0.056623 -0.024364 0.0
-0.052028 -0.025782 0.0
-0.047153 -0.026720 0.0
-0.042085 -0.027136 0.0
-0.036919 -0.027004 0.0
-0.031755 -0.026312 0.0
-0.026699 -0.025069 0.0
-0.021853 -0.023304 0.0
-0.017318 -0.021067 0.0
-0.013184 -0.018430 0.0
-0.009531 -0.015489 0.0
-0.006424 -0.012357 0.0
-0.003911 -0.009171 0.0
-0.002023 -0.006081 0.0
-0.000771 -0.003256 0.0
-0.000152 -0.000875 0.0
-0.000253 0.002218 0.0
-0.001194 0.006532 0.0
-0.002942 0.010594 0.0
-0.005375 0.014310 0.0
-0.008386 0.017617 0.0
-0.011877 0.020480 0.0
-0.015757 0.022883 0.0
-0.019948 0.024826 0.0
-0.024374 0.026321 0.0
-0.028969 0.027387 0.0
-0.033670 0.028044 0.0
-0.038421 0.028316 0.0
-0.043166 0.028225 0.0
-0.047856 0.027790 0.0
-0.052442 0.027028 0.0
-0.056878 0.025955 0.0
-0.061121 0.024580 0.0
-0.065125 0.022916 0.0
-0.068849 0.020970 0.0
-0.072249 0.018752 0.0
-0.075286 0.016273 0.0
-0.077919 0.013544 0.0
-0.080107 0.010583 0.0
-0.081816 0.007410 0.0
-0.083009 0.004052 0.0
-0.083656 0.000542 0.0
-0.083729 -0.003080 0.0
-0.083208 -0.006766 0.0
-0.082078 -0.010461 0.0
-0.080332 -0.014104 0.0
-0.077974 -0.017624 0.0
-0.075017 -0.020948 0.0
-0.071487 -0.023999 0.0
-0.067423 -0.026697 0.0
-0.062878 -0.028966 0.0
-0.057919 -0.030734 0.0
-0.052625 -0.031936 0.0
-0.047090 -0.032522 0.0
-0.041418 -0.032456 0.0
-0.035719 -0.031721 0.0
-0.030111 -0.030324 0.0
-0.024710 -0.028295 0.0
-0.019632 -0.025689 0.0
-0.014983 -0.022591 0.0
-0.010858 -0.019107 0.0
-0.007335 -0.015369 0.0
-0.004475 -0.011532 0.0
-0.002318 -0.007766 0.0
-0.000884 -0.004257 0.0
-0.000175 -0.001202 0.0
-0.000276 0.002747 0.0
-0.001301 0.007970 0.0
-0.003203 0.012806 0.0
-0.005847 0.017175 0.0
-0.009111 0.021027 0.0
-0.012886 0.024336 0.0
-0.017075 0.027096 0.0
-0.021589 0.029317 0.0
-0.026349 0.031017 0.0
-0.031285 0.032221 0.0
-0.036329 0.032956 0.0
-0.041424 0.033249 0.0
-0.046512 0.033126 0.0
-0.051544 0.032610 0.0
-0.056468 0.031719 0.0
-0.061239 0.030471 0.0
-0.065811 0.028878 0.0
-0.070140 0.026951 0.0
-0.074180 0.024699 0.0
-0.077889 0.022133 0.0
-0.081222 0.019262 0.0
-0.084138 0.016102 0.0
-0.086593 0.012669 0.0
-0.088547 0.008986 0.0
-0.089961 0.005083 0.0
-0.090799 0.000996 0.0
-0.091031 -0.003229 0.0
-0.090627 -0.007540 0.0
-0.089570 -0.011874 0.0
-0.087846 -0.016160 0.0
-0.085453 -0.020319 0.0
-0.082400 -0.024264 0.0
-0.078709 -0.027904 0.0
-0.074417 -0.031148 0.0
-0.069575 -0.033902 0.0
-0.064252 -0.036080 0.0
-0.058530 -0.037604 0.0
-0.052510 -0.038409 0.0
-0.046303 -0.038449 0.0
-0.040033 -0.037698 0.0
-0.033831 -0.036159 0.0
-0.027829 -0.033862 0.0
-0.022160 -0.030869 0.0
-0.016948 -0.027272 0.0
-0.012305 -0.023194 0.0
-0.008326 -0.018784 0.0
-0.005085 -0.014217 0.0
-0.002636 -0.009687 0.0
-0.001005 -0.005401 0.0
-0.000198 -0.001574 0.0
-0.000298 0.003320 0.0
-0.001405 0.009528 0.0
-0.003455 0.015200 0.0
-0.006301 0.020271 0.0
-0.009810 0.024704 0.0
-0.013862 0.028486 0.0
-0.018351 0.031623 0.0
-0.023182 0.034135 0.0
-0.028270 0.036048 0.0
-0.033540 0.037395 0.0
-0.038923 0.038210 0.0
-0.044359 0.038525 0.0
-0.049790 0.038370 0.0
-0.055163 0.037771 0.0
-0.060430 0.036750 0.0
-0.065542 0.035324 0.0
-0.070454 0.033509 0.0
-0.075119 0.031314 0.0
-0.079493 0.028751 0.0
-0.083531 0.025828 0.0
-0.087187 0.022556 0.0
-0.090414 0.018951 0.0
-0.093169 0.015029 0.0
-0.095406 0.010816 0.0
-0.097081 0.006343 0.0
-0.098154 0.001649 0.0
-0.098587 -0.003217 0.0
-0.098348 -0.008195 0.0
-0.097408 -0.013217 0.0
-0.095748 -0.018201 0.0
-0.093361 -0.023058 0.0
-0.090248 -0.027690 0.0
-0.086425 -0.031991 0.0
-0.081926 -0.035852 0.0
-0.076800 -0.039166 0.0
-0.071114 -0.041826 0.0
-0.064956 -0.043738 0.0
-0.058431 -0.044821 0.0
-0.051660 -0.045015 0.0
-0.044779 -0.044283 0.0
-0.037934 -0.042621 0.0
-0.031277 -0.040058 0.0
-0.024959 -0.036660 0.0
-0.019125 -0.032527 0.0
-0.013909 -0.027799 0.0
-0.009424 -0.022644 0.0
-0.005762 -0.017260 0.0
-0.002988 -0.011867 0.0
-0.001140 -0.006699 0.0
-0.000225 -0.001998 0.0
-0.000319 0.003938 0.0
-0.001504 0.011202 0.0
-0.003698 0.017770 0.0
-0.006741 0.023590 0.0
-0.010487 0.028640 0.0
-0.014808 0.032923 0.0
-0.019589 0.036457 0.0
-0.024730 0.039273 0.0
-0.030139 0.041408 0.0
-0.035738 0.042904 0.0
-0.041457 0.043803 0.0
-0.047231 0.044142 0.0
-0.053003 0.043956 0.0
-0.058721 0.043275 0.0
-0.064334 0.042124 0.0
-0.069794 0.040522 0.0
-0.075056 0.038484 0.0
-0.080073 0.036021 0.0
-0.084800 0.033144 0.0
-0.089189 0.029861 0.0
-0.093193 0.026183 0.0
-0.096765 0.022124 0.0
-0.099855 0.017701 0.0
-0.102414 0.012940 0.0
-0.104394 0.007874 0.0
-0.105748 0.002544 0.0
-0.106431 -0.002996 0.0
-0.106404 -0.008684 0.0
-0.105631 -0.014442 0.0
-0.104085 -0.020182 0.0
-0.101748 -0.025802 0.0
-0.098615 -0.031192 0.0
-0.094696 -0.036231 0.0
-0.090016 -0.040791 0.0
-0.084623 -0.044747 0.0
-0.078581 -0.047972 0.0
-0.071981 -0.050351 0.0
-0.064933 -0.051783 0.0
-0.057566 -0.052190 0.0
-0.050032 -0.051523 0.0
-0.042492 -0.049766 0.0
-0.035118 -0.046944 0.0
-0.028086 -0.043124 0.0
-0.021564 -0.038418 0.0
-0.015710 -0.032979 0.0
-0.010659 -0.026999 0.0
-0.006524 -0.020702 0.0
-0.003386 -0.014338 0.0
-0.001292 -0.008172 0.0
-0.000255 -0.002477 0.0
-0.000340 0.004597 0.0
-0.001601 0.012989 0.0
-0.003934 0.020510 0.0
-0.007167 0.027125 0.0
-0.011144 0.032828 0.0
-0.015727 0.037639 0.0
-0.020793 0.041589 0.0
-0.026236 0.044723 0.0
-0.031960 0.047091 0.0
-0.037883 0.048744 0.0
-0.043931 0.049731 0.0
-0.050041 0.050098 0.0
-0.056154 0.049885 0.0
-0.062217 0.049127 0.0
-0.068180 0.047849 0.0
-0.073995 0.046074 0.0
-0.079618 0.043817 0.0
-0.085001 0.041089 0.0
-0.090098 0.037900 0.0
-0.094861 0.034258 0.0
-0.099242 0.030172 0.0
-0.103189 0.025654 0.0
-0.106651 0.020722 0.0
-0.109573 0.015401 0.0
-0.111903 0.009723 0.0
-0.113586 0.003732 0.0
-0.114571 -0.002516 0.0
-0.114809 -0.008953 0.0
-0.114256 -0.015498 0.0
-0.112876 -0.022052 0.0
-0.110641 -0.028504 0.0
-0.107536 -0.034729 0.0
-0.103562 -0.040589 0.0
-0.098736 -0.045939 0.0
-0.093099 -0.050630 0.0
-0.086715 -0.054514 0.0
-0.079672 -0.057451 0.0
-0.072086 -0.059317 0.0
-0.064096 -0.060012 0.0
-0.055865 -0.059467 0.0
-0.047575 -0.057652 0.0
-0.039421 -0.054585 0.0
-0.031602 -0.050334 0.0
-0.024316 -0.045016 0.0
-0.017748 -0.038803 0.0
-0.012062 -0.031911 0.0
-0.007392 -0.024594 0.0
-0.003840 -0.017137 0.0
-0.001466 -0.009842 0.0
-0.000289 -0.003020 0.0
-0.000360 0.005296 0.0
-0.001694 0.014885 0.0
-0.004162 0.023415 0.0
-0.007580 0.030870 0.0
-0.011781 0.037262 0.0
-0.016618 0.042626 0.0
-0.021963 0.047012 0.0
-0.027700 0.050479 0.0
-0.033732 0.053090 0.0
-0.039972 0.054907 0.0
-0.046346 0.055990 0.0
-0.052787 0.056391 0.0
-0.059238 0.056156 0.0
-0.065646 0.055326 0.0
-0.071961 0.053928 0.0
-0.078137 0.051986 0.0
-0.084128 0.049517 0.0
-0.089888 0.046532 0.0
-0.095372 0.043038 0.0
-0.100531 0.039042 0.0
-0.105313 0.034551 0.0
-0.109667 0.029575 0.0
-0.113535 0.024131 0.0
-0.116861 0.018241 0.0
-0.119585 0.011937 0.0
-0.121647 0.005263 0.0
-0.122987 -0.001722 0.0
-0.123546 -0.008949 0.0
-0.123272 -0.016329 0.0
-0.122117 -0.023756 0.0
-0.120041 -0.031110 0.0
-0.117018 -0.038250 0.0
-0.113038 -0.045022 0.0
-0.108108 -0.051261 0.0
-0.102261 -0.056792 0.0
-0.095555 -0.061442 0.0
-0.088078 -0.065043 0.0
-0.079946 -0.067443 0.0
-0.071310 -0.068513 0.0
-0.062343 -0.068162 0.0
-0.053249 -0.066341 0.0
-0.044246 -0.063054 0.0
-0.035563 -0.058366 0.0
-0.027429 -0.052403 0.0
-0.020064 -0.045351 0.0
-0.013662 -0.037452 0.0
-0.008387 -0.028997 0.0
-0.004363 -0.020310 0.0
-0.001667 -0.011739 0.0
-0.000329 -0.003639 0.0
-0.000379 0.006035 0.0
-0.001785 0.016887 0.0
-0.004384 0.026480 0.0
-0.007981 0.034818 0.0
-0.012399 0.041933 0.0
-0.017484 0.047877 0.0
-0.023098 0.052719 0.0
-0.029122 0.056534 0.0
-0.035453 0.059399 0.0
-0.042003 0.061389 0.0
-0.048694 0.062574 0.0
-0.055461 0.063015 0.0
-0.062246 0.062767 0.0
-0.068995 0.061872 0.0
-0.075662 0.060363 0.0
-0.082200 0.058265 0.0
-0.088565 0.055595 0.0
-0.094712 0.052362 0.0
-0.100595 0.048574 0.0
-0.106165 0.044234 0.0
-0.111372 0.039347 0.0
-0.116158 0.033919 0.0
-0.120467 0.027964 0.0
-0.124235 0.021501 0.0
-0.127396 0.014562 0.0
-0.129885 0.007188 0.0
-0.131632 -0.000561 0.0
-0.132571 -0.008612 0.0
-0.132635 -0.016874 0.0
-0.131767 -0.025235 0.0
-0.129914 -0.033561 0.0
-0.127035 -0.041701 0.0
-0.123107 -0.049481 0.0
-0.118125 -0.056713 0.0
-0.112112 -0.063199 0.0
-0.105117 -0.068735 0.0
-0.097224 -0.073120 0.0
-0.088551 -0.076170 0.0
-0.079252 -0.077722 0.0
-0.069518 -0.077654 0.0
-0.059568 -0.075893 0.0
-0.049649 -0.072425 0.0
-0.040022 -0.067306 0.0
-0.030952 -0.060666 0.0
-0.022697 -0.052708 0.0
-0.015489 -0.043704 0.0
-0.009528 -0.033981 0.0
-0.004965 -0.023912 0.0
-0.001901 -0.013897 0.0
-0.000376 -0.004343 0.0
-0.000398 0.006813 0.0
-0.001873 0.018991 0.0
-0.004599 0.029701 0.0
-0.008369 0.038965 0.0
-0.012998 0.046834 0.0
-0.018322 0.053384 0.0
-0.024197 0.058701 0.0
-0.030499 0.062878 0.0
-0.037120 0.066007 0.0
-0.043969 0.068179 0.0
-0.050969 0.069475 0.0
-0.058053 0.069965 0.0
-0.065163 0.069711 0.0
-0.072247 0.068761 0.0
-0.079260 0.067152 0.0
-0.086157 0.064911 0.0
-0.092896 0.062053 0.0
-0.099433 0.058588 0.0
-0.105723 0.054521 0.0
-0.111717 0.049852 0.0
-0.117363 0.044582 0.0
-0.122605 0.038713 0.0
-0.127380 0.032254 0.0
-0.131623 0.025222 0.0
-0.135262 0.017642 0.0
-0.138222 0.009557 0.0
-0.140429 0.001023 0.0
-0.141803 -0.007884 0.0
-0.142268 -0.017072 0.0
-0.141753 -0.026421 0.0
-0.140189 -0.035791 0.0
-0.137523 -0.045015 0.0
-0.133715 -0.053903 0.0
-0.128745 -0.062242 0.0
-0.122622 -0.069807 0.0
-0.115385 -0.076360 0.0
-0.107109 -0.081665 0.0
-0.097911 -0.085497 0.0
-0.087949 -0.087656 0.0
-0.077423 -0.087981 0.0
-0.066575 -0.086365 0.0
-0.055677 -0.082770 0.0
-0.045026 -0.077239 0.0
-0.034928 -0.069900 0.0
-0.025685 -0.060973 0.0
-0.017575 -0.050757 0.0
-0.010837 -0.039626 0.0
-0.005660 -0.028006 0.0
-0.002171 -0.016357 0.0
-0.000430 -0.005149 0.0
-0.000416 0.007627 0.0
-0.001959 0.021194 0.0
-0.004807 0.033072 0.0
-0.008745 0.043302 0.0
-0.013578 0.051959 0.0
-0.019132 0.059138 0.0
-0.025259 0.064948 0.0
-0.031827 0.069500 0.0
-0.038726 0.072905 0.0
-0.045863 0.075268 0.0
-0.053159 0.076682 0.0
-0.060547 0.077230 0.0
-0.067969 0.076979 0.0
-0.075377 0.075986 0.0
-0.082726 0.074289 0.0
-0.089973 0.071918 0.0
-0.097079 0.068890 0.0
-0.104002 0.065211 0.0
-0.110697 0.060884 0.0
-0.117118 0.055905 0.0
-0.123213 0.050270 0.0
-0.128923 0.043977 0.0
-0.134185 0.037028 0.0
-0.138928 0.029434 0.0
-0.143078 0.021218 0.0
-0.146551 0.012416 0.0
-0.149263 0.003083 0.0
-0.151127 -0.006706 0.0
-0.152054 -0.016857 0.0
-0.151957 -0.027248 0.0
-0.150756 -0.037729 0.0
-0.148378 -0.048122 0.0
-0.144766 -0.058217 0.0
-0.139884 -0.067780 0.0
-0.133721 -0.076554 0.0
-0.126304 -0.084267 0.0
-0.117696 -0.090641 0.0
-0.108007 -0.095408 0.0
-0.097395 -0.098319 0.0
-0.086072 -0.099167 0.0
-0.074294 -0.097804 0.0
-0.062363 -0.094159 0.0
-0.050614 -0.088251 0.0
-0.039397 -0.080203 0.0
-0.029064 -0.070246 0.0
-0.019946 -0.058712 0.0
-0.012334 -0.046022 0.0
-0.006459 -0.032662 0.0
-0.002484 -0.019164 0.0
-0.000494 -0.006073 0.0
-0.000434 0.008477 0.0
-0.002041 0.023493 0.0
-0.005008 0.036588 0.0
-0.009107 0.047824 0.0
-0.014136 0.057298 0.0
-0.019912 0.065130 0.0
-0.026279 0.071449 0.0
-0.033102 0.076389 0.0
-0.040265 0.080079 0.0
-0.047675 0.082640 0.0
-0.055250 0.084180 0.0
-0.062924 0.084793 0.0
-0.070642 0.084556 0.0
-0.078355 0.083530 0.0
-0.086022 0.081760 0.0
-0.093603 0.079276 0.0
-0.101061 0.076095 0.0
-0.108356 0.072223 0.0
-0.115447 0.067658 0.0
-0.122289 0.062393 0.0
-0.128829 0.056417 0.0
-0.135011 0.049721 0.0
-0.140768 0.042302 0.0
-0.146028 0.034163 0.0
-0.150711 0.025321 0.0
-0.154729 0.015805 0.0
-0.157988 0.005666 0.0
-0.160390 -0.005023 0.0
-0.161835 -0.016168 0.0
-0.162223 -0.027645 0.0
-0.161457 -0.039299 0.0
-0.159447 -0.050940 0.0
-0.156117 -0.062342 0.0
-0.151408 -0.073246 0.0
-0.145293 -0.083366 0.0
-0.137775 -0.092390 0.0
-0.128905 -0.099997 0.0
-0.118781 -0.105866 0.0
-0.107558 -0.109695 0.0
-0.095449 -0.111223 0.0
-0.082729 -0.110247 0.0
-0.069726 -0.106651 0.0
-0.056812 -0.100423 0.0
-0.044388 -0.091672 0.0
-0.032864 -0.080635 0.0
-0.022630 -0.067675 0.0
-0.014038 -0.053263 0.0
-0.007375 -0.037959 0.0
-0.002845 -0.022372 0.0
-0.000567 -0.007134 0.0
-0.000451 0.009362 0.0
-0.002120 0.025885 0.0
-0.005201 0.040244 0.0
-0.009456 0.052523 0.0
-0.014672 0.062843 0.0
-0.020660 0.071349 0.0
-0.027255 0.078193 0.0
-0.034318 0.083531 0.0
-0.041729 0.087513 0.0
-0.049392 0.090279 0.0
-0.057226 0.091951 0.0
-0.065165 0.092635 0.0
-0.073153 0.092420 0.0
-0.081147 0.091373 0.0
-0.089106 0.089543 0.0
-0.096995 0.086963 0.0
-0.104779 0.083650 0.0
-0.112423 0.079608 0.0
-0.119888 0.074830 0.0
-0.127131 0.069305 0.0
-0.134102 0.063016 0.0
-0.140745 0.055946 0.0
-0.146993 0.048083 0.0
-0.152772 0.039422 0.0
-0.157999 0.029971 0.0
-0.162581 0.019753 0.0
-0.166416 0.008811 0.0
-0.169396 -0.002786 0.0
-0.171411 -0.014945 0.0
-0.172346 -0.027544 0.0
-0.172089 -0.040423 0.0
-0.170531 -0.053384 0.0
-0.167573 -0.066186 0.0
-0.163137 -0.078547 0.0
-0.157169 -0.090149 0.0
-0.149651 -0.100641 0.0
-0.140613 -0.109654 0.0
-0.130134 -0.116811 0.0
-0.118362 -0.121747 0.0
-0.105507 -0.124134 0.0
-0.091856 -0.123707 0.0
-0.077761 -0.120290 0.0
-0.063632 -0.113826 0.0
-0.049924 -0.104399 0.0
-0.037110 -0.092246 0.0
-0.025651 -0.077756 0.0
-0.015969 -0.061456 0.0
-0.008418 -0.043982 0.0
-0.003259 -0.026038 0.0
-0.000652 -0.008354 0.0
-0.000467 0.010279 0.0
-0.002196 0.028366 0.0
-0.005387 0.044034 0.0
-0.009791 0.057392 0.0
-0.015186 0.068585 0.0
-0.021375 0.077783 0.0
-0.028185 0.085164 0.0
-0.035471 0.090908 0.0
-0.043111 0.095188 0.0
-0.051005 0.098161 0.0
-0.059072 0.099969 0.0
-0.067246 0.100730 0.0
-0.075474 0.100543 0.0
-0.083715 0.099484 0.0
-0.091931 0.097608 0.0
-0.100092 0.094948 0.0
-0.108165 0.091523 0.0
-0.116121 0.087334 0.0
-0.123924 0.082372 0.0
-0.131534 0.076617 0.0
-0.138905 0.070046 0.0
-0.145982 0.062635 0.0
-0.152700 0.054361 0.0
-0.158985 0.045209 0.0
-0.164751 0.035177 0.0
-0.169900 0.024278 0.0
-0.174327 0.012548 0.0
-0.177914 0.000046 0.0
-0.180540 -0.013137 0.0
-0.182078 -0.026879 0.0
-0.182400 -0.041024 0.0
-0.181377 -0.055365 0.0
-0.178889 -0.069650 0.0
-0.174833 -0.083575 0.0
-0.169129 -0.096793 0.0
-0.161731 -0.108912 0.0
-0.152641 -0.119512 0.0
-0.141918 -0.128154 0.0
-0.129689 -0.134405 0.0
-0.116159 -0.137859 0.0
-0.101618 -0.138173 0.0
-0.086438 -0.135098 0.0
-0.071067 -0.128517 0.0
-0.056014 -0.118470 0.0
-0.041820 -0.105184 0.0
-0.029027 -0.089069 0.0
-0.018143 -0.070708 0.0
-0.009601 -0.050823 0.0
-0.003731 -0.030224 0.0
-0.000750 -0.009756 0.0
-0.000482 0.011229 0.0
-0.002269 0.030933 0.0
-0.005565 0.047954 0.0
-0.010113 0.062424 0.0
-0.015679 0.074514 0.0
-0.022057 0.084420 0.0
-0.029067 0.092347 0.0
-0.036557 0.098502 0.0
-0.044403 0.103080 0.0
-0.052501 0.106261 0.0
-0.060770 0.108204 0.0
-0.069144 0.109043 0.0
-0.077574 0.108889 0.0
-0.086019 0.107825 0.0
-0.094447 0.105912 0.0
-0.102831 0.103188 0.0
-0.111144 0.099670 0.0
-0.119360 0.095359 0.0
-0.127450 0.090239 0.0
-0.135377 0.084287 0.0
-0.143099 0.077470 0.0
-0.150566 0.069755 0.0
-0.157715 0.061108 0.0
-0.164472 0.051504 0.0
-0.170752 0.040927 0.0
-0.176456 0.029381 0.0
-0.181472 0.016888 0.0
-0.185679 0.003500 0.0
-0.188945 -0.010699 0.0
-0.191131 -0.025593 0.0
-0.192093 -0.041026 0.0
-0.191686 -0.056792 0.0
-0.189767 -0.072628 0.0
-0.186207 -0.088214 0.0
-0.180895 -0.103171 0.0
-0.173755 -0.117071 0.0
-0.164757 -0.129441 0.0
-0.153929 -0.139777 0.0
-0.141372 -0.147568 0.0
-0.127274 -0.152323 0.0
-0.111922 -0.153604 0.0
-0.095699 -0.151071 0.0
-0.079087 -0.144527 0.0
-0.062648 -0.133952 0.0
-0.047000 -0.119545 0.0
-0.032774 -0.101726 0.0
-0.020575 -0.081134 0.0
-0.010934 -0.058582 0.0
-0.004267 -0.035001 0.0
-0.000861 -0.011367 0.0
-0.000498 0.012209 0.0
-0.002340 0.033582 0.0
-0.005738 0.051999 0.0
-0.010424 0.067613 0.0
-0.016152 0.080620 0.0
-0.022707 0.091246 0.0
-0.029901 0.099725 0.0
-0.037576 0.106290 0.0
-0.045602 0.111163 0.0
-0.053873 0.114547 0.0
-0.062306 0.116620 0.0
-0.070839 0.117534 0.0
-0.079422 0.117411 0.0
-0.088019 0.116345 0.0
-0.096602 0.114403 0.0
-0.105148 0.111627 0.0
-0.113637 0.108034 0.0
-0.122047 0.103622 0.0
-0.130355 0.098373 0.0
-0.138531 0.092256 0.0
-0.146538 0.085231 0.0
-0.154329 0.077253 0.0
-0.161848 0.068278 0.0
-0.169023 0.058267 0.0
-0.175771 0.047192 0.0
-0.181994 0.035043 0.0
-0.187579 0.021828 0.0
-0.192399 0.007587 0.0
-0.196314 -0.007606 0.0
-0.199177 -0.023638 0.0
-0.200831 -0.040364 0.0
-0.201113 -0.057579 0.0
-0.199860 -0.075014 0.0
-0.196914 -0.092335 0.0
-0.192135 -0.109141 0.0
-0.185410 -0.124966 0.0
-0.176671 -0.139284 0.0
-0.165908 -0.151526 0.0
-0.153188 -0.161097 0.0
-0.138671 -0.167408 0.0
-0.122628 -0.169914 0.0
-0.105446 -0.168166 0.0
-0.087632 -0.161858 0.0
-0.069800 -0.150891 0.0
-0.052645 -0.135410 0.0
-0.036898 -0.115833 0.0
-0.023277 -0.092847 0.0
-0.012426 -0.067361 0.0
-0.004872 -0.040442 0.0
-0.000988 -0.013216 0.0
-0.000512 0.013219 0.0
-0.002410 0.036312 0.0
-0.005908 0.056165 0.0
-0.010727 0.072951 0.0
-0.016611 0.086894 0.0
-0.023332 0.098248 0.0
-0.030693 0.107278 0.0
-0.038530 0.114248 0.0
-0.046706 0.119406 0.0
-0.055114 0.122982 0.0
-0.063669 0.125174 0.0
-0.072310 0.126153 0.0
-0.080990 0.126055 0.0
-0.089677 0.124984 0.0
-0.098346 0.123016 0.0
-0.106981 0.120195 0.0
-0.115566 0.116540 0.0
-0.124088 0.112048 0.0
-0.132529 0.106696 0.0
-0.140865 0.100446 0.0
-0.149068 0.093250 0.0
-0.157097 0.085054 0.0
-0.164902 0.075799 0.0
-0.172417 0.065435 0.0
-0.179562 0.053918 0.0
-0.186244 0.041222 0.0
-0.192351 0.027340 0.0
-0.197754 0.012298 0.0
-0.202309 -0.003846 0.0
-0.205860 -0.020985 0.0
-0.208241 -0.038983 0.0