# vtk DataFile Version 3.0
Scalar Field
ASCII
DATASET RECTILINEAR_GRID
DIMENSIONS 50 50 1
X_COORDINATES 50 double
0.100000 0.300000 0.500000 0.700000 0.900000 1.100000 1.300000 1.500000 1.700000 1.900000 2.100000 2.300000 2.500000 2.700000 2.900000 3.100000 3.300000 3.500000 3.700000 3.900000 4.100000 4.300000 4.500000 4.700000 4.900000 5.100000 5.300000 5.500000 5.700000 5.900000 6.100000 6.300000 6.500000 6.700000 6.900000 7.100000 7.300000 7.500000 7.700000 7.900000 8.100000 8.300000 8.500000 8.700000 8.900000 9.100000 9.300000 9.500000 9.700000 9.900000 
Y_COORDINATES 50 double
0.100000 0.300000 0.500000 0.700000 0.900000 1.100000 1.300000 1.500000 1.700000 1.900000 2.100000 2.300000 2.500000 2.700000 2.900000 3.100000 3.300000 3.500000 3.700000 3.900000 4.100000 4.300000 4.500000 4.700000 4.900000 5.100000 5.300000 5.500000 5.700000 5.900000 6.100000 6.300000 6.500000 6.700000 6.900000 7.100000 7.300000 7.500000 7.700000 7.900000 8.100000 8.300000 8.500000 8.700000 8.900000 9.100000 9.300000 9.500000 9.700000 9.900000 
Z_COORDINATES 1 double
0.0
POINT_DATA 2500
SCALARS Skalarfeld double 1
LOOKUP_TABLE default
-0.010858
-0.010868
-0.010814
-0.010684
-0.010475
-0.010189
-0.009825
-0.009383
-0.008863
-0.008263
-0.007583
-0.006823
-0.005980
-0.005056
-0.004049
-0.002959
-0.001786
-0.000530
0.000809
0.002230
0.003732
0.005313
0.006970
0.008700
0.010500
0.012366
0.014291
0.016269
0.018293
0.020354
0.022442
0.024547
0.026657
0.028759
0.030839
0.032883
0.034874
0.036797
0.038635
0.040373
0.041993
0.043479
0.044818
0.045993
0.046993
0.047807
0.048424
0.048838
0.049051
0.049083
-0.010848
-0.010858
-0.010799
-0.010665
-0.010456
-0.010170
-0.009807
-0.009367
-0.008848
-0.008250
-0.007572
-0.006813
-0.005973
-0.005051
-0.004047
-0.002960
-0.001789
-0.000535
0.000801
0.002219
0.003718
0.005296
0.006951
0.008679
0.010477
0.012341
0.014265
0.016242
0.018265
0.020326
0.022414
0.024520
0.026631
0.028735
0.030817
0.032863
0.034857
0.036784
0.038626
0.040367
0.041991
0.043481
0.044823
0.046001
0.047005
0.047821
0.048441
0.048861
0.049081
0.049113
-0.010906
-0.010922
-0.010863
-0.010729
-0.010520
-0.010235
-0.009873
-0.009434
-0.008918
-0.008322
-0.007647
-0.006891
-0.006054
-0.005135
-0.004133
-0.003048
-0.001880
-0.000628
0.000706
0.002123
0.003621
0.005199
0.006855
0.008585
0.010386
0.012253
0.014182
0.016165
0.018196
0.020266
0.022365
0.024483
0.026608
0.028727
0.030825
0.032888
0.034901
0.036846
0.038707
0.040466
0.042109
0.043617
0.044975
0.046168
0.047184
0.048012
0.048641
0.049067
0.049290
0.049314
-0.011048
-0.011068
-0.011010
-0.010877
-0.010669
-0.010386
-0.010026
-0.009590
-0.009076
-0.008483
-0.007811
-0.007058
-0.006224
-0.005308
-0.004309
-0.003227
-0.002061
-0.000811
0.000523
0.001941
0.003440
0.005021
0.006680
0.008416
0.010224
0.012101
0.014041
0.016039
0.018086
0.020174
0.022294
0.024436
0.026587
0.028733
0.030861
0.032956
0.035002
0.036980
0.038875
0.040669
0.042344
0.043884
0.045271
0.046491
0.047530
0.048376
0.049020
0.049456
0.049681
0.049701
-0.011276
-0.011298
-0.011243
-0.011111
-0.010905
-0.010624
-0.010267
-0.009834
-0.009323
-0.008734
-0.008065
-0.007316
-0.006486
-0.005573
-0.004577
-0.003497
-0.002332
-0.001083
0.000252
0.001671
0.003174
0.004760
0.006426
0.008171
0.009992
0.011884
0.013842
0.015860
0.017932
0.020048
0.022200
0.024376
0.026565
0.028753
0.030925
0.033066
0.035160
0.037188
0.039132
0.040975
0.042698
0.044283
0.045712
0.046970
0.048042
0.048916
0.049581
0.050030
0.050261
0.050280
-0.011592
-0.011616
-0.011561
-0.011432
-0.011229
-0.010950
-0.010597
-0.010167
-0.009660
-0.009075
-0.008410
-0.007665
-0.006839
-0.005929
-0.004936
-0.003858
-0.002695
-0.001446
-0.000110
0.001312
0.002820
0.004413
0.006090
0.007849
0.009686
0.011598
0.013580
0.015627
0.017731
0.019885
0.022079
0.024301
0.026541
0.028783
0.031014
0.033216
0.035374
0.037467
0.039477
0.041385
0.043171
0.044816
0.046302
0.047610
0.048726
0.049635
0.050328
0.050795
0.051036
0.051055
-0.011994
-0.012019
-0.011967
-0.011840
-0.011639
-0.011364
-0.011015
-0.010589
-0.010086
-0.009506
-0.008846
-0.008106
-0.007284
-0.006379
-0.005389
-0.004314
-0.003152
-0.001902
-0.000564
0.000862
0.002377
0.003980
0.005670
0.007445
0.009302
0.011240
0.013252
0.015334
0.017479
0.019679
0.021925
0.024206
0.026508
0.028819
0.031123
0.033403
0.035640
0.037816
0.039909
0.041899
0.043765
0.045486
0.047043
0.048415
0.049586
0.050541
0.051268
0.051759
0.052012
0.052033
-0.012482
-0.012508
-0.012458
-0.012334
-0.012137
-0.011866
-0.011520
-0.011100
-0.010603
-0.010028
-0.009374
-0.008639
-0.007822
-0.006922
-0.005936
-0.004864
-0.003703
-0.002454
-0.001114
0.000318
0.001840
0.003454
0.005159
0.006954
0.008836
0.010803
0.012851
0.014975
0.017169
0.019425
0.021733
0.024083
0.026462
0.028856
0.031248
0.033622
0.035956
0.038232
0.040427
0.042517
0.044482
0.046296
0.047940
0.049391
0.050630
0.051641
0.052412
0.052932
0.053200
0.053223
-0.013055
-0.013083
-0.013035
-0.012914
-0.012720
-0.012454
-0.012114
-0.011699
-0.011209
-0.010640
-0.009993
-0.009265
-0.008455
-0.007560
-0.006579
-0.005511
-0.004352
-0.003103
-0.001761
-0.000325
0.001206
0.002833
0.004554
0.006371
0.008281
0.010282
0.012371
0.014543
0.016793
0.019113
0.021494
0.023925
0.026394
0.028885
0.031382
0.033866
0.036317
0.038713
0.041028
0.043240
0.045322
0.047250
0.048998
0.050544
0.051866
0.052946
0.053768
0.054323
0.054610
0.054636
-0.013712
-0.013742
-0.013697
-0.013580
-0.013391
-0.013130
-0.012796
-0.012388
-0.011905
-0.011344
-0.010705
-0.009985
-0.009182
-0.008295
-0.007320
-0.006257
-0.005102
-0.003854
-0.002510
-0.001069
0.000470
0.002109
0.003849
0.005689
0.007629
0.009668
0.011802
0.014028
0.016341
0.018734
0.021198
0.023722
0.026294
0.028897
0.031516
0.034130
0.036717
0.039253
0.041712
0.044067
0.046289
0.048351
0.050225
0.051884
0.053305
0.054466
0.055350
0.055948
0.056256
0.056285
-0.014454
-0.014486
-0.014444
-0.014330
-0.014147
-0.013892
-0.013565
-0.013165
-0.012691
-0.012139
-0.011510
-0.010799
-0.010006
-0.009127
-0.008161
-0.007104
-0.005954
-0.004709
-0.003365
-0.001921
-0.000374
0.001278
0.003036
0.004901
0.006873
0.008951
0.011134
0.013419
0.015802
0.018276
0.020832
0.023461
0.026150
0.028882
0.031640
0.034403
0.037148
0.039847
0.042473
0.044996
0.047383
0.049604
0.051626
0.053420
0.054958
0.056215
0.057174
0.057821
0.058156
0.058188
-0.015278
-0.015313
-0.015274
-0.015166
-0.014988
-0.014740
-0.014422
-0.014031
-0.013567
-0.013026
-0.012408
-0.011709
-0.010927
-0.010059
-0.009103
-0.008055
-0.006912
-0.005672
-0.004330
-0.002884
-0.001331
0.000332
0.002108
0.003997
0.006002
0.008122
0.010357
0.012705
0.015163
0.017725
0.020384
0.023129
0.025948
0.028825
0.031741
0.034674
0.037599
0.040487
0.043308
0.046026
0.048606
0.051013
0.053210
0.055162
0.056838
0.058210
0.059256
0.059962
0.060327
0.060363
-0.016186
-0.016223
-0.016188
-0.016084
-0.015913
-0.015674
-0.015365
-0.014986
-0.014533
-0.014005
-0.013400
-0.012715
-0.011947
-0.011093
-0.010149
-0.009113
-0.007980
-0.006747
-0.005410
-0.003965
-0.002408
-0.000736
0.001056
0.002968
0.005005
0.007168
0.009456
0.011871
0.014408
0.017065
0.019835
0.022707
0.025670
0.028708
0.031802
0.034928
0.038059
0.041164
0.044208
0.047153
0.049958
0.052583
0.054985
0.057124
0.058963
0.060469
0.061617
0.062392
0.062792
0.062833
-0.017174
-0.017214
-0.017183
-0.017086
-0.016923
-0.016693
-0.016395
-0.016028
-0.015589
-0.015076
-0.014487
-0.013818
-0.013066
-0.012229
-0.011301
-0.010280
-0.009161
-0.007939
-0.006610
-0.005169
-0.003612
-0.001934
-0.000130
0.001804
0.003872
0.006076
0.008418
0.010900
0.013521
0.016277
0.019165
0.022176
0.025297
0.028513
0.031804
0.035146
0.038510
0.041862
0.045164
0.048371
0.051438
0.054317
0.056960
0.059318
0.061348
0.063013
0.064281
0.065136
0.065577
0.065624
-0.018243
-0.018286
-0.018260
-0.018170
-0.018015
-0.017796
-0.017511
-0.017158
-0.016735
-0.016239
-0.015668
-0.015018
-0.014287
-0.013469
-0.012561
-0.011559
-0.010457
-0.009251
-0.007935
-0.006503
-0.004950
-0.003270
-0.001458
0.000493
0.002588
0.004831
0.007226
0.009775
0.012480
0.015341
0.018353
0.021511
0.024802
0.028213
0.031722
0.035306
0.038933
0.042566
0.046162
0.049671
0.053042
0.056219
0.059143
0.061759
0.064015
0.065866
0.067275
0.068224
0.068712
0.068764
-0.019390
-0.019437
-0.019417
-0.019334
-0.019189
-0.018982
-0.018711
-0.018374
-0.017969
-0.017493
-0.016944
-0.016317
-0.015608
-0.014815
-0.013931
-0.012952
-0.011873
-0.010688
-0.009390
-0.007973
-0.006430
-0.004754
-0.002939
-0.000976
0.001140
0.003417
0.005861
0.008476
0.011265
0.014231
0.017372
0.020684
0.024158
0.027778
0.031527
0.035379
0.039300
0.043251
0.047183
0.051041
0.054765
0.058289
0.061544
0.064464
0.066986
0.069055
0.070630
0.071687
0.072230
0.072287
-0.020614
-0.020665
-0.020651
-0.020577
-0.020443
-0.020250
-0.019995
-0.019676
-0.019292
-0.018839
-0.018314
-0.017713
-0.017032
-0.016267
-0.015412
-0.014462
-0.013411
-0.012253
-0.010980
-0.009584
-0.008059
-0.006395
-0.004584
-0.002618
-0.000487
0.001818
0.004304
0.006980
0.009850
0.012920
0.016191
0.019663
0.023328
0.027174
0.031183
0.035329
0.039578
0.043887
0.048202
0.052462
0.056595
0.060525
0.064169
0.067448
0.070284
0.072612
0.074381
0.075565
0.076169
0.076232
-0.021915
-0.021969
-0.021962
-0.021897
-0.021776
-0.021597
-0.021360
-0.021063
-0.020702
-0.020274
-0.019777
-0.019206
-0.018558
-0.017826
-0.017005
-0.016090
-0.015074
-0.013950
-0.012709
-0.011344
-0.009844
-0.008201
-0.006405
-0.004444
-0.002308
0.000015
0.002535
0.005263
0.008207
0.011377
0.014776
0.018410
0.022274
0.026357
0.030645
0.035112
0.039724
0.044435
0.049186
0.053907
0.058516
0.062920
0.067024
0.070727
0.073937
0.076571
0.078569
0.079900
0.080573
0.080640
-0.023288
-0.023347
-0.023347
-0.023293
-0.023185
-0.023023
-0.022806
-0.022532
-0.022197
-0.021799
-0.021333
-0.020797
-0.020185
-0.019492
-0.018712
-0.017838
-0.016864
-0.015782
-0.014582
-0.013256
-0.011793
-0.010182
-0.008411
-0.006468
-0.004339
-0.002010
0.000531
0.003299
0.006307
0.009568
0.013090
0.016881
0.020946
0.025275
0.029858
0.034672
0.039683
0.044842
0.050087
0.055338
0.060499
0.065462
0.070109
0.074318
0.077973
0.080972
0.083239
0.084739
0.085490
0.085559
-0.024733
-0.024797
-0.024804
-0.024761
-0.024668
-0.024525
-0.024330
-0.024081
-0.023776
-0.023410
-0.022981
-0.022483
-0.021913
-0.021265
-0.020531
-0.019707
-0.018783
-0.017752
-0.016603
-0.015327
-0.013912
-0.012345
-0.010613
-0.008702
-0.006596
-0.004278
-0.001732
0.001061
0.004118
0.007454
0.011087
0.015027
0.019290
0.023869
0.028759
0.033942
0.039386
0.045042
0.050844
0.056701
0.062505
0.068125
0.073419
0.078233
0.082422
0.085856
0.088441
0.090137
0.090972
0.091038
-0.026246
-0.026315
-0.026331
-0.026300
-0.026224
-0.026101
-0.025930
-0.025710
-0.025436
-0.025107
-0.024717
-0.024264
-0.023741
-0.023143
-0.022463
-0.021696
-0.020831
-0.019860
-0.018773
-0.017559
-0.016205
-0.014698
-0.013021
-0.011160
-0.009095
-0.006807
-0.004275
-0.001479
0.001604
0.004997
0.008721
0.012796
0.017242
0.022067
0.027269
0.032838
0.038746
0.044948
0.051372
0.057923
0.064473
0.070869
0.076934
0.082478
0.087312
0.091270
0.094232
0.096154
0.097077
0.097132
-0.027825
-0.027899
-0.027925
-0.027907
-0.027848
-0.027747
-0.027603
-0.027413
-0.027175
-0.026885
-0.026540
-0.026135
-0.025665
-0.025124
-0.024506
-0.023803
-0.023007
-0.022108
-0.021095
-0.019956
-0.018678
-0.017246
-0.015643
-0.013851
-0.011849
-0.009615
-0.007124
-0.004351
-0.001268
0.002153
0.005941
0.010125
0.014730
0.019786
0.025295
0.031257
0.037653
0.044445
0.051561
0.058899
0.066315
0.073628
0.080619
0.087047
0.092668
0.097262
0.100675
0.102851
0.103863
0.103892
-0.029466
-0.029547
-0.029583
-0.029579
-0.029539
-0.029462
-0.029346
-0.029189
-0.028990
-0.028743
-0.028446
-0.028095
-0.027684
-0.027207
-0.026658
-0.026028
-0.025310
-0.024493
-0.023567
-0.022518
-0.021333
-0.019995
-0.018486
-0.016785
-0.014871
-0.012719
-0.010299
-0.007582
-0.004535
-0.001122
0.002693
0.006948
0.011681
0.016933
0.022727
0.029074
0.035970
0.043386
0.051260
0.059484
0.067900
0.076297
0.084405
0.091916
0.098506
0.103881
0.107833
0.110297
0.111386
0.111364
-0.031168
-0.031255
-0.031301
-0.031312
-0.031292
-0.031240
-0.031155
-0.031034
-0.030876
-0.030676
-0.030432
-0.030139
-0.029792
-0.029386
-0.028913
-0.028366
-0.027737
-0.027015
-0.026188
-0.025245
-0.024169
-0.022945
-0.021552
-0.019969
-0.018172
-0.016132
-0.013819
-0.011198
-0.008230
-0.004872
-0.001080
0.003196
0.008006
0.013399
0.019438
0.026142
0.033527
0.041585
0.050268
0.059475
0.069038
0.078713
0.088172
0.097018
0.104819
0.111168
0.115774
0.118555
0.119693
0.119576
-0.032925
-0.033019
-0.033076
-0.033104
-0.033104
-0.033079
-0.033026
-0.032943
-0.032829
-0.032680
-0.032493
-0.032263
-0.031986
-0.031657
-0.031268
-0.030813
-0.030283
-0.029667
-0.028954
-0.028132
-0.027185
-0.026095
-0.024843
-0.023406
-0.021757
-0.019867
-0.017701
-0.015221
-0.012383
-0.009138
-0.005431
-0.001201
0.003614
0.009084
0.015283
0.022284
0.030116
0.038802
0.048321
0.058592
0.069449
0.080621
0.091715
0.102223
0.111557
0.119144
0.124556
0.127682
0.128806
0.128519
-0.034735
-0.034837
-0.034905
-0.034949
-0.034972
-0.034974
-0.034955
-0.034912
-0.034845
-0.034749
-0.034622
-0.034461
-0.034259
-0.034013
-0.033717
-0.033362
-0.032941
-0.032443
-0.031859
-0.031174
-0.030374
-0.029441
-0.028356
-0.027093
-0.025627
-0.023926
-0.021954
-0.019668
-0.017020
-0.013956
-0.010411
-0.006314
-0.001586
0.003859
0.010114
0.017298
0.025488
0.034737
0.045071
0.056448
0.068726
0.081624
0.094688
0.107271
0.118578
0.127775
0.134212
0.137705
0.138699
0.138112
-0.036595
-0.036704
-0.036784
-0.036845
-0.036891
-0.036921
-0.036937
-0.036937
-0.036918
-0.036878
-0.036815
-0.036725
-0.036605
-0.036448
-0.036250
-0.036004
-0.035703
-0.035336
-0.034893
-0.034363
-0.033729
-0.032976
-0.032083
-0.031026
-0.029779
-0.028310
-0.026581
-0.024547
-0.022158
-0.019353
-0.016061
-0.012203
-0.007683
-0.002396
0.003777
0.010965
0.019352
0.029023
0.040069
0.052516
0.066281
0.081111
0.096506
0.111679
0.125551
0.136903
0.144701
0.148591
0.149250
0.148137
-0.038500
-0.038617
-0.038710
-0.038788
-0.038856
-0.038917
-0.038968
-0.039011
-0.039042
-0.039061
-0.039065
-0.039050
-0.039014
-0.038952
-0.038860
-0.038731
-0.038558
-0.038332
-0.038045
-0.037684
-0.037236
-0.036685
-0.036011
-0.035192
-0.034202
-0.033009
-0.031575
-0.029857
-0.027801
-0.025344
-0.022412
-0.018916
-0.014751
-0.009792
-0.003898
0.003098
0.011380
0.021225
0.032750
0.046090
0.061274
0.078135
0.096194
0.114538
0.131761
0.146076
0.155794
0.160165
0.160165
0.158147
-0.040449
-0.040574
-0.040678
-0.040774
-0.040865
-0.040955
-0.041043
-0.041129
-0.041212
-0.041290
-0.041362
-0.041426
-0.041478
-0.041516
-0.041535
-0.041529
-0.041493
-0.041420
-0.041300
-0.041124
-0.040880
-0.040552
-0.040123
-0.039573
-0.038876
-0.038004
-0.036921
-0.035583
-0.033940
-0.031928
-0.029473
-0.026481
-0.022843
-0.018422
-0.013055
-0.006549
0.001326
0.010850
0.022433
0.036258
0.052531
0.071269
0.092128
0.114176
0.135690
0.154149
0.166775
0.171923
0.170838
0.167344
-0.042436
-0.042570
-0.042687
-0.042799
-0.042913
-0.043032
-0.043156
-0.043286
-0.043420
-0.043559
-0.043701
-0.043844
-0.043988
-0.044128
-0.044262
-0.044386
-0.044494
-0.044582
-0.044641
-0.044663
-0.044638
-0.044554
-0.044394
-0.044142
-0.043775
-0.043268
-0.042588
-0.041697
-0.040547
-0.039081
-0.037226
-0.034895
-0.031977
-0.028336
-0.023801
-0.018160
-0.011152
-0.002457
0.008338
0.021888
0.038471
0.058409
0.081673
0.107538
0.134174
0.158332
0.175646
0.182565
0.180148
0.174653
-0.044462
-0.044605
-0.044734
-0.044861
-0.044997
-0.045143
-0.045302
-0.045474
-0.045660
-0.045859
-0.046070
-0.046295
-0.046530
-0.046775
-0.047028
-0.047286
-0.047544
-0.047800
-0.048047
-0.048279
-0.048488
-0.048664
-0.048795
-0.048867
-0.048862
-0.048760
-0.048533
-0.048152
-0.047574
-0.046753
-0.045625
-0.044116
-0.042126
-0.039531
-0.036173
-0.031847
-0.026288
-0.019159
-0.010026
0.001685
0.017092
0.036604
0.060707
0.089234
0.120816
0.152063
0.176959
0.188665
0.186234
0.179574
-0.046523
-0.046676
-0.046816
-0.046958
-0.047113
-0.047285
-0.047477
-0.047690
-0.047924
-0.048181
-0.048462
-0.048766
-0.049094
-0.049445
-0.049818
-0.050212
-0.050625
-0.051054
-0.051495
-0.051945
-0.052399
-0.052850
-0.053289
-0.053707
-0.054092
-0.054430
-0.054702
-0.054885
-0.054951
-0.054867
-0.054586
-0.054055
-0.053199
-0.051927
-0.050116
-0.047604
-0.044177
-0.039546
-0.033317
-0.024961
-0.013777
0.002007
0.023219
0.050458
0.083866
0.121746
0.157835
0.181473
0.186159
0.183192
-0.048621
-0.048784
-0.048933
-0.049088
-0.049260
-0.049454
-0.049675
-0.049925
-0.050206
-0.050519
-0.050865
-0.051248
-0.051666
-0.052122
-0.052616
-0.053146
-0.053715
-0.054320
-0.054960
-0.055634
-0.056340
-0.057075
-0.057836
-0.058617
-0.059413
-0.060218
-0.061022
-0.061816
-0.062586
-0.063316
-0.063986
-0.064571
-0.065039
-0.065349
-0.065447
-0.065262
-0.064698
-0.063621
-0.061844
-0.059099
-0.054992
-0.048913
-0.038401
-0.020795
0.006248
0.046487
0.096746
0.143845
0.172125
0.182284
-0.050756
-0.050930
-0.051087
-0.051251
-0.051435
-0.051648
-0.051893
-0.052176
-0.052497
-0.052861
-0.053270
-0.053727
-0.054233
-0.054791
-0.055403
-0.056069
-0.056792
-0.057573
-0.058414
-0.059314
-0.060276
-0.061301
-0.062390
-0.063544
-0.064765
-0.066054
-0.067415
-0.068850
-0.070364
-0.071965
-0.073663
-0.075472
-0.077413
-0.079520
-0.081839
-0.084441
-0.087432
-0.090976
-0.095322
-0.100854
-0.108104
-0.117509
-0.128351
-0.134804
-0.126653
-0.091407
-0.026180
0.054732
0.124069
0.156484
-0.052932
-0.053117
-0.053280
-0.053448
-0.053640
-0.053864
-0.054128
-0.054435
-0.054792
-0.055200
-0.055666
-0.056191
-0.056780
-0.057436
-0.058162
-0.058960
-0.059835
-0.060790
-0.061828
-0.062953
-0.064170
-0.065485
-0.066903
-0.068432
-0.070081
-0.071862
-0.073788
-0.075879
-0.078158
-0.080658
-0.083425
-0.086518
-0.090023
-0.094063
-0.098813
-0.104533
-0.111616
-0.120669
-0.132658
-0.149130
-0.172384
-0.204870
-0.246354
-0.288931
-0.311942
-0.288676
-0.211463
-0.095897
0.019443
0.077918
-0.055157
-0.055354
-0.055519
-0.055685
-0.055875
-0.056102
-0.056375
-0.056700
-0.057082
-0.057527
-0.058041
-0.058628
-0.059293
-0.060040
-0.060873
-0.061798
-0.062819
-0.063942
-0.065172
-0.066517
-0.067984
-0.069583
-0.071325
-0.073224
-0.075295
-0.077561
-0.080047
-0.082787
-0.085826
-0.089222
-0.093056
-0.097436
-0.102518
-0.108519
-0.115762
-0.124722
-0.136135
-0.151166
-0.171723
-0.200951
-0.243538
-0.304358
-0.382948
-0.465132
-0.522749
-0.514869
-0.432461
-0.292994
-0.141567
-0.059564
-0.057442
-0.057650
-0.057812
-0.057967
-0.058146
-0.058365
-0.058634
-0.058964
-0.059361
-0.059833
-0.060385
-0.061024
-0.061756
-0.062586
-0.063519
-0.064562
-0.065721
-0.067004
-0.068418
-0.069973
-0.071680
-0.073552
-0.075606
-0.077860
-0.080339
-0.083072
-0.086096
-0.089460
-0.093228
-0.097481
-0.102334
-0.107943
-0.114525
-0.122393
-0.132007
-0.144056
-0.159617
-0.180423
-0.209356
-0.251183
-0.312889
-0.401288
-0.514814
-0.632741
-0.716941
-0.723580
-0.643838
-0.497738
-0.329359
-0.232010
-0.059803
-0.060024
-0.060175
-0.060307
-0.060459
-0.060654
-0.060905
-0.061225
-0.061622
-0.062107
-0.062686
-0.063366
-0.064154
-0.065056
-0.066079
-0.067231
-0.068517
-0.069949
-0.071535
-0.073287
-0.075220
-0.077350
-0.079697
-0.082286
-0.085147
-0.088317
-0.091843
-0.095787
-0.100227
-0.105267
-0.111049
-0.117765
-0.125687
-0.135202
-0.146880
-0.161579
-0.180640
-0.206227
-0.241931
-0.293611
-0.369617
-0.477551
-0.614474
-0.755122
-0.854258
-0.870575
-0.799250
-0.663590
-0.500030
-0.399153
-0.062267
-0.062501
-0.062630
-0.062721
-0.062826
-0.062975
-0.063187
-0.063478
-0.063859
-0.064340
-0.064931
-0.065639
-0.066471
-0.067434
-0.068535
-0.069783
-0.071185
-0.072752
-0.074495
-0.076429
-0.078570
-0.080936
-0.083553
-0.086449
-0.089658
-0.093225
-0.097205
-0.101668
-0.106704
-0.112434
-0.119016
-0.126670
-0.135701
-0.146541
-0.159825
-0.176500
-0.198031
-0.226755
-0.266474
-0.323209
-0.405231
-0.519522
-0.662290
-0.807589
-0.908590
-0.928558
-0.868812
-0.755651
-0.615349
-0.523228
-0.064872
-0.065117
-0.065207
-0.065231
-0.065260
-0.065335
-0.065482
-0.065720
-0.066063
-0.066523
-0.067109
-0.067829
-0.068692
-0.069702
-0.070869
-0.072199
-0.073703
-0.075390
-0.077274
-0.079371
-0.081697
-0.084277
-0.087134
-0.090303
-0.093821
-0.097738
-0.102112
-0.107021
-0.112563
-0.118864
-0.126095
-0.134485
-0.144350
-0.156135
-0.170483
-0.188337
-0.211130
-0.241079
-0.281666
-0.338077
-0.417101
-0.523517
-0.653108
-0.783871
-0.874476
-0.895384
-0.849710
-0.763037
-0.656659
-0.582726
-0.067674
-0.067928
-0.067951
-0.067870
-0.067782
-0.067745
-0.067792
-0.067946
-0.068225
-0.068642
-0.069205
-0.069922
-0.070800
-0.071844
-0.073062
-0.074461
-0.076050
-0.077841
-0.079848
-0.082086
-0.084576
-0.087340
-0.090406
-0.093810
-0.097593
-0.101805
-0.106509
-0.111785
-0.117731
-0.124479
-0.132196
-0.141108
-0.151522
-0.163862
-0.178728
-0.196981
-0.219887
-0.249325
-0.288150
-0.339921
-0.409073
-0.498922
-0.605035
-0.708595
-0.775967
-0.788434
-0.752824
-0.698557
-0.627646
-0.576239
-0.070755
-0.071011
-0.070925
-0.070681
-0.070417
-0.070214
-0.070115
-0.070150
-0.070335
-0.070684
-0.071205
-0.071901
-0.072779
-0.073842
-0.075097
-0.076550
-0.078210
-0.080087
-0.082197
-0.084555
-0.087181
-0.090100
-0.093342
-0.096941
-0.100940
-0.105392
-0.110358
-0.115918
-0.122169
-0.129236
-0.137281
-0.146511
-0.157209
-0.169751
-0.184659
-0.202659
-0.224780
-0.252344
-0.287125
-0.331757
-0.388778
-0.459231
-0.538374
-0.610992
-0.652775
-0.653979
-0.623766
-0.588069
-0.547628
-0.517457
-0.074243
-0.074488
-0.074220
-0.073720
-0.073194
-0.072751
-0.072449
-0.072319
-0.072377
-0.072633
-0.073090
-0.073749
-0.074612
-0.075681
-0.076959
-0.078451
-0.080166
-0.082112
-0.084304
-0.086758
-0.089495
-0.092540
-0.095921
-0.099674
-0.103842
-0.108476
-0.113637
-0.119401
-0.125861
-0.133132
-0.141360
-0.150732
-0.161490
-0.173952
-0.188541
-0.205826
-0.226389
-0.251182
-0.281403
-0.318390
-0.363182
-0.415274
-0.469933
-0.515588
-0.536161
-0.527035
-0.497870
-0.470011
-0.445970
-0.426047
-0.078342
-0.078543
-0.077962
-0.077057
-0.076140
-0.075359
-0.074782
-0.074435
-0.074330
-0.074466
-0.074840
-0.075447
-0.076283
-0.077345
-0.078634
-0.080152
-0.081905
-0.083902
-0.086157
-0.088685
-0.091506
-0.094644
-0.098129
-0.101996
-0.106285
-0.111047
-0.116340
-0.122234
-0.128816
-0.136190
-0.144483
-0.153855
-0.164507
-0.176695
-0.190742
-0.206932
-0.225712
-0.247683
-0.273430
-0.303444
-0.337731
-0.374918
-0.410675
-0.436513
-0.442165
-0.425155
-0.394499
-0.366825
-0.340595
-0.312782
-0.083396
-0.083470
-0.082331
-0.080774
-0.079274
-0.078025
-0.077085
-0.076467
-0.076162
-0.076156
-0.076432
-0.076974
-0.077772
-0.078818
-0.080106
-0.081638
-0.083416
-0.085448
-0.087745
-0.090324
-0.093203
-0.096406
-0.099961
-0.103902
-0.108268
-0.113107
-0.118473
-0.124433
-0.131064
-0.138458
-0.146724
-0.155997
-0.166440
-0.178248
-0.191609
-0.206670
-0.223782
-0.243204
-0.265127
-0.289520
-0.315813
-0.342292
-0.365208
-0.378315
-0.374857
-0.352838
-0.319327
-0.283326
-0.231695
-0.167288
-0.090032
-0.089765
-0.087572
-0.084939
-0.082583
-0.080703
-0.079308
-0.078364
-0.077830
-0.077665
-0.077833
-0.078304
-0.079058
-0.080080
-0.081360
-0.082895
-0.084684
-0.086734
-0.089057
-0.091665
-0.094578
-0.097818
-0.101412
-0.105391
-0.109794
-0.114666
-0.120057
-0.126028
-0.132652
-0.140008
-0.148188
-0.157305
-0.167494
-0.178892
-0.191552
-0.205673
-0.221393
-0.238790
-0.257819
-0.278170
-0.299023
-0.318634
-0.333820
-0.339801
-0.331714
-0.307272
-0.268981
-0.209138
-0.091138
0.058379
-0.099536
-0.098297
-0.093973
-0.089551
-0.085967
-0.083290
-0.081353
-0.080040
-0.079257
-0.078926
-0.078983
-0.079381
-0.080086
-0.081078
-0.082343
-0.083875
-0.085661
-0.087714
-0.090045
-0.092665
-0.095590
-0.098843
-0.102450
-0.106440
-0.110850
-0.115722
-0.121104
-0.127054
-0.133638
-0.140937
-0.149005
-0.157952
-0.167880
-0.178888
-0.191051
-0.204463
-0.219182
-0.235184
-0.252301
-0.270096
-0.287673
-0.303380
-0.314461
-0.316938
-0.306665
-0.280600
-0.229350
-0.110685
0.158047
0.484713
-0.115191
-0.110790
-0.101729
-0.094373
-0.089117
-0.085525
-0.082963
-0.081238
-0.080188
-0.079688
-0.079634
-0.079956
-0.080610
-0.081568
-0.082813
-0.084343
-0.086111
-0.088155
-0.090484
-0.093106
-0.096038
-0.099296
-0.102905
-0.106894
-0.111300
-0.116162
-0.121528
-0.127451
-0.133994
-0.141224
-0.149211
-0.158039
-0.167796
-0.178566
-0.190415
-0.203400
-0.217533
-0.232737
-0.248780
-0.265167
-0.280970
-0.294585
-0.303443
-0.303732
-0.291159
-0.256954
-0.163376
0.092200
0.661581
1.365156
-0.145558
-0.129170
-0.110529
-0.097939
-0.090256
-0.085718
-0.082396
-0.080378
-0.079208
-0.078616
-0.078512
-0.078817
-0.079474
-0.080448
-0.081717
-0.083264
-0.085073
-0.087155
-0.089520
-0.092178
-0.095145
-0.098437
-0.102079
-0.106100
-0.110535
-0.115423
-0.120811
-0.126751
-0.133304
-0.140535
-0.148513
-0.157318
-0.167028
-0.177721
-0.189455
-0.202269
-0.216146
-0.230978
-0.246482
-0.262105
-0.276834
-0.288960
-0.295623
-0.292298
-0.271943
-0.198704
0.008020
0.536005
1.626596
3.040670
-0.248554
-0.111143
-0.082358
-0.074144
-0.071007
-0.069672
-0.068985
-0.068854
-0.069112
-0.069652
-0.070457
-0.071511
-0.072796
-0.074305
-0.076035
-0.077982
-0.080148
-0.082546
-0.085192
-0.088103
-0.091298
-0.094800
-0.098633
-0.102830
-0.107427
-0.112467
-0.117995
-0.124067
-0.130742
-0.138085
-0.146168
-0.155066
-0.164857
-0.175612
-0.187386
-0.200203
-0.214028
-0.228721
-0.243952
-0.259088
-0.272951
-0.283466
-0.286429
-0.272968
-0.216177
-0.059446
0.331744
1.217380
2.898414
5.143252
