# vtk DataFile Version 3.0
Vector Field
ASCII
DATASET RECTILINEAR_GRID
DIMENSIONS 50 50 1
X_COORDINATES 50 double
0.100000 0.300000 0.500000 0.700000 0.900000 1.100000 1.300000 1.500000 1.700000 1.900000 2.100000 2.300000 2.500000 2.700000 2.900000 3.100000 3.300000 3.500000 3.700000 3.900000 4.100000 4.300000 4.500000 4.700000 4.900000 5.100000 5.300000 5.500000 5.700000 5.900000 6.100000 6.300000 6.500000 6.700000 6.900000 7.100000 7.300000 7.500000 7.700000 7.900000 8.100000 8.300000 8.500000 8.700000 8.900000 9.100000 9.300000 9.500000 9.700000 9.900000 
Y_COORDINATES 50 double
0.100000 0.300000 0.500000 0.700000 0.900000 1.100000 1.300000 1.500000 1.700000 1.900000 2.100000 2.300000 2.500000 2.700000 2.900000 3.100000 3.300000 3.500000 3.700000 3.900000 4.100000 4.300000 4.500000 4.700000 4.900000 5.100000 5.300000 5.500000 5.700000 5.900000 6.100000 6.300000 6.500000 6.700000 6.900000 7.100000 7.300000 7.500000 7.700000 7.900000 8.100000 8.300000 8.500000 8.700000 8.900000 9.100000 9.300000 9.500000 9.700000 9.900000 
Z_COORDINATES 1 double
0.0
POINT_DATA 2500
VECTORS Vektorfeld double
-0.000250 0.000250 0.0
-0.001261 0.000761 0.0
-0.003042 0.001020 0.0
-0.005183 0.001121 0.0
-0.007458 0.001155 0.0
-0.009782 0.001169 0.0
-0.012132 0.001181 0.0
-0.014509 0.001197 0.0
-0.016923 0.001217 0.0
-0.019380 0.001241 0.0
-0.021889 0.001268 0.0
-0.024456 0.001299 0.0
-0.027086 0.001332 0.0
-0.029784 0.001367 0.0
-0.032554 0.001403 0.0
-0.035399 0.001441 0.0
-0.038319 0.001479 0.0
-0.041313 0.001515 0.0
-0.044378 0.001550 0.0
-0.047507 0.001579 0.0
-0.050689 0.001602 0.0
-0.053906 0.001615 0.0
-0.057136 0.001615 0.0
-0.060347 0.001597 0.0
-0.063499 0.001556 0.0
-0.066541 0.001486 0.0
-0.069410 0.001383 0.0
-0.072032 0.001239 0.0
-0.074322 0.001051 0.0
-0.076186 0.000813 0.0
-0.077522 0.000524 0.0
-0.078231 0.000185 0.0
-0.078222 -0.000194 0.0
-0.077396 -0.000631 0.0
-0.075656 -0.001109 0.0
-0.072941 -0.001606 0.0
-0.069234 -0.002100 0.0
-0.064570 -0.002564 0.0
-0.059036 -0.002970 0.0
-0.052771 -0.003294 0.0
-0.045961 -0.003515 0.0
-0.038825 -0.003621 0.0
-0.031598 -0.003606 0.0
-0.024517 -0.003474 0.0
-0.017816 -0.003227 0.0
-0.011727 -0.002862 0.0
-0.006513 -0.002352 0.0
-0.002516 -0.001645 0.0
-0.000174 -0.000697 0.0
0.000261 0.000261 0.0
-0.000826 0.001327 0.0
-0.003386 0.003255 0.0
-0.007315 0.004236 0.0
-0.011921 0.004652 0.0
-0.016836 0.004814 0.0
-0.021891 0.004888 0.0
-0.027026 0.004946 0.0
-0.032228 0.005011 0.0
-0.037502 0.005089 0.0
-0.042857 0.005180 0.0
-0.048302 0.005283 0.0
-0.053846 0.005395 0.0
-0.059494 0.005514 0.0
-0.065252 0.005640 0.0
-0.071120 0.005768 0.0
-0.077097 0.005897 0.0
-0.083177 0.006022 0.0
-0.089348 0.006138 0.0
-0.095594 0.006238 0.0
-0.101890 0.006316 0.0
-0.108203 0.006360 0.0
-0.114487 0.006359 0.0
-0.120685 0.006299 0.0
-0.126727 0.006165 0.0
-0.132525 0.005937 0.0
-0.137975 0.005597 0.0
-0.142958 0.005124 0.0
-0.147336 0.004499 0.0
-0.150959 0.003705 0.0
-0.153669 0.002732 0.0
-0.155301 0.001574 0.0
-0.155693 0.000236 0.0
-0.154679 -0.001269 0.0
-0.152117 -0.002944 0.0
-0.147918 -0.004734 0.0
-0.142043 -0.006571 0.0
-0.134513 -0.008373 0.0
-0.125418 -0.010051 0.0
-0.114923 -0.011514 0.0
-0.103260 -0.012678 0.0
-0.090722 -0.013478 0.0
-0.077645 -0.013872 0.0
-0.064386 -0.013842 0.0
-0.051309 -0.013396 0.0
-0.038776 -0.012540 0.0
-0.027165 -0.011249 0.0
-0.016914 -0.009430 0.0
-0.008586 -0.006892 0.0
-0.002891 -0.003486 0.0
-0.000400 0.000123 0.0
-0.001193 0.003346 0.0
-0.004725 0.007328 0.0
-0.009952 0.009319 0.0
-0.015981 0.010203 0.0
-0.022384 0.010580 0.0
-0.028972 0.010765 0.0
-0.035670 0.010902 0.0
-0.042455 0.011043 0.0
-0.049328 0.011204 0.0
-0.056294 0.011386 0.0
-0.063360 0.011588 0.0
-0.070533 0.011806 0.0
-0.077817 0.012036 0.0
-0.085213 0.012272 0.0
-0.092718 0.012509 0.0
-0.100325 0.012740 0.0
-0.108020 0.012954 0.0
-0.115785 0.013141 0.0
-0.123590 0.013286 0.0
-0.131398 0.013372 0.0
-0.139161 0.013378 0.0
-0.146815 0.013279 0.0
-0.154285 0.013047 0.0
-0.161477 0.012650 0.0
-0.168281 0.012053 0.0
-0.174568 0.011219 0.0
-0.180193 0.010110 0.0
-0.184995 0.008692 0.0
-0.188798 0.006938 0.0
-0.191419 0.004829 0.0
-0.192668 0.002358 0.0
-0.192362 -0.000463 0.0
-0.190331 -0.003615 0.0
-0.186452 -0.007039 0.0
-0.180653 -0.010637 0.0
-0.172915 -0.014282 0.0
-0.163282 -0.017825 0.0
-0.151876 -0.021099 0.0
-0.138900 -0.023937 0.0
-0.124632 -0.026185 0.0
-0.109420 -0.027721 0.0
-0.093659 -0.028467 0.0
-0.077770 -0.028395 0.0
-0.062173 -0.027517 0.0
-0.047281 -0.025844 0.0
-0.033505 -0.023332 0.0
-0.021305 -0.019799 0.0
-0.011267 -0.014889 0.0
-0.004153 -0.008298 0.0
-0.000717 -0.000993 0.0
-0.001389 0.005928 0.0
-0.005467 0.012356 0.0
-0.011434 0.015485 0.0
-0.018258 0.016891 0.0
-0.025477 0.017514 0.0
-0.032891 0.017834 0.0
-0.040426 0.018066 0.0
-0.048056 0.018295 0.0
-0.055779 0.018547 0.0
-0.063598 0.018828 0.0
-0.071519 0.019134 0.0
-0.079546 0.019460 0.0
-0.087680 0.019800 0.0
-0.095920 0.020144 0.0
-0.104260 0.020482 0.0
-0.112689 0.020802 0.0
-0.121189 0.021088 0.0
-0.129737 0.021320 0.0
-0.138297 0.021474 0.0
-0.146826 0.021522 0.0
-0.155266 0.021431 0.0
-0.163548 0.021162 0.0
-0.171585 0.020671 0.0
-0.179276 0.019909 0.0
-0.186500 0.018822 0.0
-0.193120 0.017356 0.0
-0.198980 0.015457 0.0
-0.203909 0.013075 0.0
-0.207721 0.010171 0.0
-0.210222 0.006717 0.0
-0.211214 0.002711 0.0
-0.210506 -0.001830 0.0
-0.207933 -0.006852 0.0
-0.203365 -0.012249 0.0
-0.196715 -0.017875 0.0
-0.187954 -0.023543 0.0
-0.177124 -0.029027 0.0
-0.164351 -0.034075 0.0
-0.149860 -0.038429 0.0
-0.133968 -0.041853 0.0
-0.117082 -0.044152 0.0
-0.099672 -0.045206 0.0
-0.082243 -0.044974 0.0
-0.065294 -0.043483 0.0
-0.049291 -0.040773 0.0
-0.034667 -0.036803 0.0
-0.021867 -0.031327 0.0
-0.011442 -0.023824 0.0
-0.004128 -0.013791 0.0
-0.000677 -0.002387 0.0
-0.001483 0.008800 0.0
-0.005834 0.017912 0.0
-0.012186 0.022248 0.0
-0.019428 0.024194 0.0
-0.027068 0.025070 0.0
-0.034905 0.025529 0.0
-0.042863 0.025863 0.0
-0.050918 0.026184 0.0
-0.059068 0.026531 0.0
-0.067316 0.026911 0.0
-0.075665 0.027321 0.0
-0.084119 0.027754 0.0
-0.092680 0.028200 0.0
-0.101345 0.028648 0.0
-0.110107 0.029080 0.0
-0.118953 0.029480 0.0
-0.127866 0.029824 0.0
-0.136820 0.030084 0.0
-0.145779 0.030228 0.0
-0.154697 0.030215 0.0
-0.163518 0.029999 0.0
-0.172168 0.029527 0.0
-0.180563 0.028738 0.0
-0.188597 0.027567 0.0
-0.196151 0.025942 0.0
-0.203084 0.023790 0.0
-0.209238 0.021038 0.0
-0.214436 0.017622 0.0
-0.218487 0.013487 0.0
-0.221186 0.008601 0.0
-0.222322 0.002956 0.0
-0.221689 -0.003416 0.0
-0.219094 -0.010434 0.0
-0.214372 -0.017957 0.0
-0.207395 -0.025793 0.0
-0.198095 -0.033687 0.0
-0.186484 -0.041325 0.0
-0.172677 -0.048356 0.0
-0.156909 -0.054408 0.0
-0.139543 -0.059131 0.0
-0.121070 -0.062234 0.0
-0.102076 -0.063528 0.0
-0.083202 -0.062955 0.0
-0.065078 -0.060576 0.0
-0.048262 -0.056499 0.0
-0.033224 -0.050740 0.0
-0.020382 -0.043032 0.0
-0.010217 -0.032708 0.0
-0.003378 -0.019060 0.0
-0.000441 -0.003506 0.0
-0.001518 0.011801 0.0
-0.005981 0.023725 0.0
-0.012506 0.029312 0.0
-0.019939 0.031805 0.0
-0.027773 0.032933 0.0
-0.035802 0.033532 0.0
-0.043952 0.033967 0.0
-0.052199 0.034383 0.0
-0.060543 0.034826 0.0
-0.068987 0.035307 0.0
-0.077536 0.035823 0.0
-0.086194 0.036365 0.0
-0.094963 0.036920 0.0
-0.103840 0.037471 0.0
-0.112822 0.038000 0.0
-0.121897 0.038482 0.0
-0.131048 0.038887 0.0
-0.140253 0.039180 0.0
-0.149478 0.039317 0.0
-0.158681 0.039248 0.0
-0.167809 0.038914 0.0
-0.176793 0.038247 0.0
-0.185553 0.037172 0.0
-0.193987 0.035603 0.0
-0.201978 0.033451 0.0
-0.209389 0.030624 0.0
-0.216060 0.027028 0.0
-0.221809 0.022580 0.0
-0.226436 0.017207 0.0
-0.229719 0.010862 0.0
-0.231423 0.003534 0.0
-0.231304 -0.004746 0.0
-0.229121 -0.013881 0.0
-0.224645 -0.023707 0.0
-0.217682 -0.033983 0.0
-0.208100 -0.044380 0.0
-0.195854 -0.054488 0.0
-0.181027 -0.063827 0.0
-0.163856 -0.071876 0.0
-0.144761 -0.078124 0.0
-0.124345 -0.082131 0.0
-0.103369 -0.083601 0.0
-0.082685 -0.082440 0.0
-0.063135 -0.078766 0.0
-0.045438 -0.072822 0.0
-0.030119 -0.064773 0.0
-0.017546 -0.054414 0.0
-0.008070 -0.040966 0.0
-0.002162 -0.023549 0.0
-0.000084 -0.004031 0.0
-0.001521 0.014840 0.0
-0.006005 0.029634 0.0
-0.012575 0.036498 0.0
-0.020066 0.039544 0.0
-0.027963 0.040925 0.0
-0.036054 0.041662 0.0
-0.044266 0.042199 0.0
-0.052578 0.042710 0.0
-0.060988 0.043253 0.0
-0.069504 0.043840 0.0
-0.078132 0.044467 0.0
-0.086877 0.045124 0.0
-0.095744 0.045795 0.0
-0.104732 0.046462 0.0
-0.113840 0.047099 0.0
-0.123062 0.047679 0.0
-0.132384 0.048164 0.0
-0.141789 0.048512 0.0
-0.151250 0.048671 0.0
-0.160731 0.048579 0.0
-0.170187 0.048166 0.0
-0.179558 0.047350 0.0
-0.188769 0.046039 0.0
-0.197729 0.044130 0.0
-0.206325 0.041513 0.0
-0.214425 0.038073 0.0
-0.221868 0.033693 0.0
-0.228467 0.028264 0.0
-0.234008 0.021690 0.0
-0.238243 0.013898 0.0
-0.240901 0.004859 0.0
-0.241685 -0.005406 0.0
-0.240284 -0.016806 0.0
-0.236385 -0.029158 0.0
-0.229701 -0.042178 0.0
-0.220003 -0.055465 0.0
-0.207160 -0.068492 0.0
-0.191191 -0.080619 0.0
-0.172320 -0.091125 0.0
-0.151022 -0.099269 0.0
-0.128044 -0.104380 0.0
-0.104390 -0.105981 0.0
-0.081232 -0.103902 0.0
-0.059749 -0.098338 0.0
-0.040925 -0.089772 0.0
-0.025383 -0.078682 0.0
-0.013385 -0.065077 0.0
-0.005037 -0.048127 0.0
-0.000513 -0.026820 0.0
0.000382 -0.003733 0.0
-0.001505 0.017866 0.0
-0.005957 0.035544 0.0
-0.012499 0.043699 0.0
-0.019971 0.047306 0.0
-0.027852 0.048940 0.0
-0.035930 0.049816 0.0
-0.044131 0.050457 0.0
-0.052435 0.051068 0.0
-0.060843 0.051715 0.0
-0.069364 0.052414 0.0
-0.078006 0.053162 0.0
-0.086777 0.053946 0.0
-0.095685 0.054748 0.0
-0.104735 0.055547 0.0
-0.113928 0.056316 0.0
-0.123264 0.057019 0.0
-0.132736 0.057618 0.0
-0.142334 0.058061 0.0
-0.152040 0.058289 0.0
-0.161828 0.058231 0.0
-0.171663 0.057805 0.0
-0.181495 0.056915 0.0
-0.191262 0.055453 0.0
-0.200882 0.053297 0.0
-0.210254 0.050315 0.0
-0.219249 0.046365 0.0
-0.227709 0.041303 0.0
-0.235441 0.034986 0.0
-0.242214 0.027281 0.0
-0.247753 0.018082 0.0
-0.251740 0.007320 0.0
-0.253811 -0.005012 0.0
-0.253568 -0.018844 0.0
-0.250597 -0.033991 0.0
-0.244484 -0.050141 0.0
-0.234867 -0.066818 0.0
-0.221485 -0.083365 0.0
-0.204254 -0.098946 0.0
-0.183348 -0.112575 0.0
-0.159279 -0.123187 0.0
-0.132953 -0.129765 0.0
-0.105676 -0.131526 0.0
-0.079067 -0.128125 0.0
-0.054832 -0.119833 0.0
-0.034417 -0.107516 0.0
-0.018655 -0.092242 0.0
-0.007620 -0.074551 0.0
-0.000969 -0.053652 0.0
0.001636 -0.028424 0.0
0.000982 -0.002370 0.0
-0.001478 0.020849 0.0
-0.005866 0.041400 0.0
-0.012335 0.050854 0.0
-0.019739 0.055028 0.0
-0.027558 0.056919 0.0
-0.035578 0.057936 0.0
-0.043724 0.058684 0.0
-0.051977 0.059398 0.0
-0.060342 0.060157 0.0
-0.068827 0.060978 0.0
-0.077446 0.061858 0.0
-0.086209 0.062784 0.0
-0.095128 0.063737 0.0
-0.104212 0.064692 0.0
-0.113470 0.065621 0.0
-0.122906 0.066486 0.0
-0.132524 0.067241 0.0
-0.142321 0.067832 0.0
-0.152290 0.068193 0.0
-0.162418 0.068243 0.0
-0.172681 0.067890 0.0
-0.183046 0.067026 0.0
-0.193464 0.065526 0.0
-0.203869 0.063248 0.0
-0.214170 0.060036 0.0
-0.224250 0.055718 0.0
-0.233955 0.050115 0.0
-0.243089 0.043040 0.0
-0.251407 0.034317 0.0
-0.258605 0.023783 0.0
-0.264317 0.011317 0.0
-0.268107 -0.003148 0.0
-0.269476 -0.019581 0.0
-0.267879 -0.037821 0.0
-0.262753 -0.057549 0.0
-0.253560 -0.078220 0.0
-0.239867 -0.099037 0.0
-0.221439 -0.118933 0.0
-0.198345 -0.136588 0.0
-0.171074 -0.150514 0.0
-0.140638 -0.159201 0.0
-0.108638 -0.161367 0.0
-0.077231 -0.156300 0.0
-0.048895 -0.144229 0.0
-0.025908 -0.126521 0.0
-0.009645 -0.105263 0.0
0.000026 -0.082236 0.0
0.004305 -0.056896 0.0
0.004378 -0.027858 0.0
0.001742 0.000354 0.0
-0.001443 0.023771 0.0
-0.005745 0.047168 0.0
-0.012112 0.057922 0.0
-0.019416 0.062668 0.0
-0.027141 0.064821 0.0
-0.035071 0.065983 0.0
-0.043133 0.066843 0.0
-0.051308 0.067668 0.0
-0.059601 0.068546 0.0
-0.068025 0.069499 0.0
-0.076594 0.070526 0.0
-0.085326 0.071611 0.0
-0.094234 0.072737 0.0
-0.103334 0.073877 0.0
-0.112641 0.075001 0.0
-0.122168 0.076069 0.0
-0.131926 0.077034 0.0
-0.141925 0.077836 0.0
-0.152170 0.078403 0.0
-0.162662 0.078651 0.0
-0.173392 0.078476 0.0
-0.184345 0.077759 0.0
-0.195491 0.076358 0.0
-0.206783 0.074112 0.0
-0.218147 0.070838 0.0
-0.229483 0.066332 0.0
-0.240648 0.060371 0.0
-0.251449 0.052720 0.0
-0.261633 0.043139 0.0
-0.270873 0.031399 0.0
-0.278756 0.017297 0.0
-0.284780 0.000686 0.0
-0.288339 -0.018487 0.0
-0.288741 -0.040110 0.0
-0.285251 -0.063877 0.0
-0.277144 -0.089191 0.0
-0.263794 -0.115108 0.0
-0.244775 -0.140309 0.0
-0.219973 -0.163109 0.0
-0.189710 -0.181527 0.0
-0.154911 -0.193423 0.0
-0.117277 -0.196777 0.0
-0.079423 -0.190150 0.0
-0.044784 -0.173355 0.0
-0.017043 -0.148122 0.0
0.001002 -0.117970 0.0
0.009425 -0.087624 0.0
0.010824 -0.057187 0.0
0.007735 -0.024552 0.0
0.002662 0.004758 0.0
-0.001402 0.026617 0.0
-0.005601 0.052822 0.0
-0.011843 0.064875 0.0
-0.019023 0.070200 0.0
-0.026630 0.072621 0.0
-0.034448 0.073933 0.0
-0.042401 0.074909 0.0
-0.050475 0.075850 0.0
-0.058674 0.076856 0.0
-0.067014 0.077953 0.0
-0.075513 0.079141 0.0
-0.084191 0.080405 0.0
-0.093068 0.081728 0.0
-0.102165 0.083083 0.0
-0.111504 0.084440 0.0
-0.121106 0.085759 0.0
-0.130994 0.086990 0.0
-0.141189 0.088073 0.0
-0.151710 0.088932 0.0
-0.162573 0.089477 0.0
-0.173791 0.089598 0.0
-0.185367 0.089166 0.0
-0.197295 0.088025 0.0
-0.209551 0.085993 0.0
-0.222090 0.082861 0.0
-0.234833 0.078388 0.0
-0.247660 0.072306 0.0
-0.260394 0.064319 0.0
-0.272783 0.054114 0.0
-0.284489 0.041370 0.0
-0.295062 0.025782 0.0
-0.303935 0.007097 0.0
-0.310433 -0.014841 0.0
-0.313734 -0.040053 0.0
-0.312938 -0.068221 0.0
-0.307186 -0.098707 0.0
-0.295691 -0.130437 0.0
-0.277808 -0.161881 0.0
-0.253095 -0.191053 0.0
-0.221431 -0.215510 0.0
-0.183259 -0.232411 0.0
-0.139944 -0.238737 0.0
-0.094164 -0.231825 0.0
-0.050164 -0.210320 0.0
-0.013519 -0.175543 0.0
0.010123 -0.132236 0.0
0.019287 -0.090944 0.0
0.018082 -0.054061 0.0
0.011496 -0.018003 0.0
0.003679 0.011099 0.0
-0.001356 0.029375 0.0
-0.005437 0.058344 0.0
-0.011533 0.071692 0.0
-0.018570 0.077601 0.0
-0.026038 0.080294 0.0
-0.033722 0.081761 0.0
-0.041547 0.082859 0.0
-0.049498 0.083923 0.0
-0.057581 0.085065 0.0
-0.065815 0.086318 0.0
-0.074221 0.087681 0.0
-0.082823 0.089144 0.0
-0.091645 0.090688 0.0
-0.100716 0.092290 0.0
-0.110063 0.093920 0.0
-0.119719 0.095538 0.0
-0.129715 0.097096 0.0
-0.140085 0.098533 0.0
-0.150865 0.099773 0.0
-0.162090 0.100724 0.0
-0.173793 0.101271 0.0
-0.186001 0.101278 0.0
-0.198738 0.100577 0.0
-0.212010 0.098969 0.0
-0.225805 0.096219 0.0
-0.240081 0.092050 0.0
-0.254751 0.086142 0.0
-0.269671 0.078136 0.0
-0.284614 0.067629 0.0
-0.299251 0.054197 0.0
-0.313132 0.037408 0.0
-0.325659 0.016871 0.0
-0.336077 -0.007700 0.0
-0.343540 -0.036429 0.0
-0.347163 -0.069017 0.0
-0.346033 -0.104793 0.0
-0.339247 -0.142633 0.0
-0.325831 -0.180983 0.0
-0.304718 -0.217776 0.0
-0.274923 -0.250246 0.0
-0.235952 -0.274819 0.0
-0.188344 -0.287252 0.0
-0.134265 -0.283169 0.0
-0.078113 -0.259127 0.0
-0.026972 -0.214522 0.0
0.009892 -0.153762 0.0
0.025840 -0.094530 0.0
0.024490 -0.047921 0.0
0.015033 -0.008098 0.0
0.004633 0.019411 0.0
-0.001304 0.032035 0.0
-0.005253 0.063714 0.0
-0.011186 0.078351 0.0
-0.018059 0.084850 0.0
-0.025369 0.087823 0.0
-0.032900 0.089449 0.0
-0.040576 0.090673 0.0
-0.048383 0.091865 0.0
-0.056328 0.093152 0.0
-0.064433 0.094570 0.0
-0.072721 0.096123 0.0
-0.081220 0.097802 0.0
-0.089959 0.099592 0.0
-0.098973 0.101471 0.0
-0.108298 0.103411 0.0
-0.117973 0.105377 0.0
-0.128042 0.107322 0.0
-0.138554 0.109189 0.0
-0.149559 0.110903 0.0
-0.161113 0.112373 0.0
-0.173273 0.113484 0.0
-0.186094 0.114096 0.0
-0.199632 0.114034 0.0
-0.213934 0.113085 0.0
-0.229029 0.110993 0.0
-0.244925 0.107447 0.0
-0.261587 0.102077 0.0
-0.278920 0.094454 0.0
-0.296747 0.084082 0.0
-0.314784 0.070419 0.0
-0.332614 0.052898 0.0
-0.349694 0.030989 0.0
-0.365378 0.004284 0.0
-0.378976 -0.027351 0.0
-0.389700 -0.063748 0.0
-0.396665 -0.104226 0.0
-0.398745 -0.147906 0.0
-0.394272 -0.193599 0.0
-0.381095 -0.239450 0.0
-0.357025 -0.282438 0.0
-0.320474 -0.318149 0.0
-0.271048 -0.340956 0.0
-0.210065 -0.344526 0.0
-0.141242 -0.322745 0.0
-0.071691 -0.271596 0.0
-0.012448 -0.192796 0.0
0.021460 -0.105351 0.0
0.026894 -0.041185 0.0
0.017142 0.004375 0.0
0.005218 0.029262 0.0
-0.001247 0.034585 0.0
-0.005050 0.068915 0.0
-0.010802 0.084836 0.0
-0.017493 0.091929 0.0
-0.024625 0.095185 0.0
-0.031983 0.096976 0.0
-0.039489 0.098330 0.0
-0.047129 0.099654 0.0
-0.054913 0.101092 0.0
-0.062862 0.102684 0.0
-0.071004 0.104439 0.0
-0.079369 0.106351 0.0
-0.087993 0.108407 0.0
-0.096913 0.110590 0.0
-0.106174 0.112877 0.0
-0.115825 0.115237 0.0
-0.125920 0.117628 0.0
-0.136522 0.119997 0.0
-0.147698 0.122276 0.0
-0.159524 0.124379 0.0
-0.172084 0.126196 0.0
-0.185464 0.127586 0.0
-0.199759 0.128376 0.0
-0.215059 0.128345 0.0
-0.231451 0.127221 0.0
-0.249003 0.124667 0.0
-0.267753 0.120269 0.0
-0.287688 0.113530 0.0
-0.308721 0.103866 0.0
-0.330670 0.090620 0.0
-0.353251 0.073109 0.0
-0.376106 0.050713 0.0
-0.398849 0.022987 0.0
-0.421070 -0.010235 0.0
-0.442253 -0.048957 0.0
-0.461359 -0.092946 0.0
-0.476410 -0.142056 0.0
-0.484449 -0.195883 0.0
-0.481974 -0.252819 0.0
-0.465812 -0.309302 0.0
-0.433798 -0.359848 0.0
-0.385019 -0.397461 0.0
-0.319977 -0.414045 0.0
-0.241099 -0.400928 0.0
-0.153884 -0.350178 0.0
-0.068907 -0.258434 0.0
-0.004674 -0.137855 0.0
0.020828 -0.039618 0.0
0.016246 0.017143 0.0
0.005092 0.039572 0.0
-0.001184 0.037016 0.0
-0.004828 0.073932 0.0
-0.010382 0.091126 0.0
-0.016871 0.098818 0.0
-0.023805 0.102363 0.0
-0.030970 0.104320 0.0
-0.038285 0.105807 0.0
-0.045735 0.107267 0.0
-0.053331 0.108859 0.0
-0.061097 0.110632 0.0
-0.069061 0.112597 0.0
-0.077258 0.114754 0.0
-0.085726 0.117095 0.0
-0.094509 0.119606 0.0
-0.103658 0.122271 0.0
-0.113229 0.125065 0.0
-0.123289 0.127954 0.0
-0.133912 0.130894 0.0
-0.145183 0.133826 0.0
-0.157200 0.136673 0.0
-0.170071 0.139333 0.0
-0.183919 0.141677 0.0
-0.198878 0.143537 0.0
-0.215092 0.144697 0.0
-0.232711 0.144880 0.0
-0.251883 0.143733 0.0
-0.272743 0.140813 0.0
-0.295391 0.135570 0.0
-0.319884 0.127352 0.0
-0.346227 0.115425 0.0
-0.374400 0.099058 0.0
-0.404412 0.077630 0.0
-0.436313 0.050713 0.0
-0.470027 0.017974 0.0
-0.504876 -0.021135 0.0
-0.538821 -0.067717 0.0
-0.568274 -0.122781 0.0
-0.588790 -0.186602 0.0
-0.596129 -0.257237 0.0
-0.587183 -0.329992 0.0
-0.560130 -0.398226 0.0
-0.514027 -0.453966 0.0
-0.448620 -0.487990 0.0
-0.364724 -0.489757 0.0
-0.265395 -0.447894 0.0
-0.158216 -0.352874 0.0
-0.059343 -0.206522 0.0
-0.000167 -0.055628 0.0
0.011248 0.026320 0.0
0.004067 0.048731 0.0
-0.001117 0.039317 0.0
-0.004588 0.078745 0.0
-0.009925 0.097204 0.0
-0.016194 0.105498 0.0
-0.022912 0.109336 0.0
-0.029862 0.111462 0.0
-0.036964 0.113082 0.0
-0.044200 0.114678 0.0
-0.051581 0.116426 0.0
-0.059133 0.118382 0.0
-0.066885 0.120564 0.0
-0.074875 0.122974 0.0
-0.083143 0.125611 0.0
-0.091739 0.128468 0.0
-0.100718 0.131536 0.0
-0.110144 0.134798 0.0
-0.120093 0.138230 0.0
-0.130652 0.141800 0.0
-0.141922 0.145462 0.0
-0.154020 0.149152 0.0
-0.167081 0.152787 0.0
-0.181262 0.156253 0.0
-0.196741 0.159399 0.0
-0.213719 0.162027 0.0
-0.232419 0.163870 0.0
-0.253084 0.164580 0.0
-0.275969 0.163709 0.0
-0.301337 0.160691 0.0
-0.329469 0.154856 0.0
-0.360688 0.145484 0.0
-0.395419 0.131904 0.0
-0.434184 0.113561 0.0
-0.477371 0.089870 0.0
-0.524597 0.059757 0.0
-0.573860 0.021193 0.0
-0.621319 -0.028641 0.0
-0.661861 -0.091864 0.0
-0.690544 -0.168319 0.0
-0.703867 -0.254858 0.0
-0.699891 -0.345292 0.0
-0.677634 -0.432235 0.0
-0.636212 -0.507482 0.0
-0.574537 -0.561557 0.0
-0.491637 -0.582985 0.0
-0.387754 -0.557878 0.0
-0.266611 -0.471211 0.0
-0.140036 -0.313631 0.0
-0.039015 -0.108716 0.0
0.002125 0.026852 0.0
0.002354 0.055151 0.0
-0.001045 0.041480 0.0
-0.004331 0.083340 0.0
-0.009435 0.103050 0.0
-0.015465 0.111950 0.0
-0.021947 0.116084 0.0
-0.028662 0.118379 0.0
-0.035527 0.120131 0.0
-0.042524 0.121862 0.0
-0.049663 0.123763 0.0
-0.056968 0.125902 0.0
-0.064472 0.128300 0.0
-0.072212 0.130967 0.0
-0.080233 0.133907 0.0
-0.088585 0.137121 0.0
-0.097329 0.140607 0.0
-0.106536 0.144360 0.0
-0.116288 0.148369 0.0
-0.126682 0.152615 0.0
-0.137833 0.157068 0.0
-0.149876 0.161686 0.0
-0.162971 0.166408 0.0
-0.177307 0.171147 0.0
-0.193105 0.175781 0.0
-0.210624 0.180142 0.0
-0.230166 0.183997 0.0
-0.252081 0.187032 0.0
-0.276770 0.188831 0.0
-0.304710 0.188876 0.0
-0.336487 0.186579 0.0
-0.372867 0.181360 0.0
-0.414808 0.172700 0.0
-0.463225 0.159946 0.0
-0.518254 0.141700 0.0
-0.578170 0.115069 0.0
-0.638792 0.075766 0.0
-0.694292 0.019746 0.0
-0.739318 -0.054682 0.0
-0.770364 -0.145771 0.0
-0.785698 -0.248750 0.0
-0.784806 -0.356267 0.0
-0.767424 -0.460899 0.0
-0.732664 -0.555001 0.0
-0.678653 -0.629723 0.0
-0.602701 -0.673671 0.0
-0.502228 -0.671548 0.0
-0.376935 -0.603977 0.0
-0.233059 -0.451317 0.0
-0.092981 -0.212128 0.0
-0.013790 0.009933 0.0
0.000273 0.057778 0.0
-0.000969 0.043494 0.0
-0.004058 0.087701 0.0
-0.008913 0.108648 0.0
-0.014687 0.118156 0.0
-0.020914 0.122588 0.0
-0.027374 0.125051 0.0
-0.033980 0.126930 0.0
-0.040712 0.128790 0.0
-0.047579 0.130841 0.0
-0.054605 0.133156 0.0
-0.061822 0.135767 0.0
-0.069269 0.138687 0.0
-0.076990 0.141928 0.0
-0.085039 0.145500 0.0
-0.093478 0.149411 0.0
-0.102383 0.153667 0.0
-0.111840 0.158271 0.0
-0.121954 0.163221 0.0
-0.132851 0.168509 0.0
-0.144680 0.174117 0.0
-0.157621 0.180014 0.0
-0.171890 0.186147 0.0
-0.187747 0.192437 0.0
-0.205508 0.198766 0.0
-0.225551 0.204959 0.0
-0.248338 0.210772 0.0
-0.274438 0.215881 0.0
-0.304576 0.219904 0.0
-0.339703 0.222455 0.0
-0.381036 0.223198 0.0
-0.429882 0.221651 0.0
-0.486958 0.216488 0.0
-0.551226 0.204455 0.0
-0.619001 0.180006 0.0
-0.684425 0.136876 0.0
-0.741344 0.071054 0.0
-0.785228 -0.017079 0.0
-0.814408 -0.123148 0.0
-0.829184 -0.241265 0.0
-0.830169 -0.363658 0.0
-0.817671 -0.483389 0.0
-0.790963 -0.593980 0.0
-0.747708 -0.688009 0.0
-0.683814 -0.755231 0.0
-0.594082 -0.780194 0.0
-0.474214 -0.740492 0.0
-0.324922 -0.607970 0.0
-0.160569 -0.359905 0.0
-0.039491 -0.042558 0.0
-0.000668 0.057383 0.0
-0.000890 0.045353 0.0
-0.003772 0.091813 0.0
-0.008362 0.113981 0.0
-0.013863 0.124098 0.0
-0.019818 0.128828 0.0
-0.026003 0.131456 0.0
-0.032329 0.133457 0.0
-0.038771 0.135438 0.0
-0.045338 0.137627 0.0
-0.052052 0.140110 0.0
-0.058943 0.142922 0.0
-0.066051 0.146086 0.0
-0.073420 0.149619 0.0
-0.081102 0.153541 0.0
-0.089163 0.157870 0.0
-0.097676 0.162626 0.0
-0.106734 0.167827 0.0
-0.116444 0.173490 0.0
-0.126937 0.179631 0.0
-0.138372 0.186260 0.0
-0.150942 0.193382 0.0
-0.164884 0.200989 0.0
-0.180488 0.209056 0.0
-0.198113 0.217532 0.0
-0.218207 0.226330 0.0
-0.241337 0.235318 0.0
-0.268235 0.244333 0.0
-0.299868 0.253223 0.0
-0.337500 0.261895 0.0
-0.382601 0.270192 0.0
-0.436345 0.277247 0.0
-0.498572 0.280194 0.0
-0.566686 0.273131 0.0
-0.635592 0.248010 0.0
-0.699133 0.197837 0.0
-0.752152 0.120031 0.0
-0.791795 0.017472 0.0
-0.817446 -0.102868 0.0
-0.830336 -0.233879 0.0
-0.832225 -0.368169 0.0
-0.824088 -0.499514 0.0
-0.805698 -0.622952 0.0
-0.774825 -0.733165 0.0
-0.726602 -0.822193 0.0
-0.653683 -0.875884 0.0
-0.548038 -0.870314 0.0
-0.405137 -0.770342 0.0
-0.231902 -0.535122 0.0
-0.066822 -0.153498 0.0
0.002981 0.059696 0.0
-0.000807 0.047049 0.0
-0.003473 0.095665 0.0
-0.007787 0.119034 0.0
-0.013001 0.129760 0.0
-0.018667 0.134787 0.0
-0.024559 0.137574 0.0
-0.030584 0.139688 0.0
-0.036713 0.141778 0.0
-0.042951 0.144093 0.0
-0.049320 0.146727 0.0
-0.055849 0.149725 0.0
-0.062572 0.153115 0.0
-0.069535 0.156922 0.0
-0.076788 0.161175 0.0
-0.084394 0.165903 0.0
-0.092426 0.171140 0.0
-0.100976 0.176920 0.0
-0.110150 0.183281 0.0
-0.120081 0.190264 0.0
-0.130929 0.197911 0.0
-0.142892 0.206266 0.0
-0.156217 0.215372 0.0
-0.171209 0.225269 0.0
-0.188255 0.235991 0.0
-0.207850 0.247561 0.0
-0.230638 0.260004 0.0
-0.257472 0.273378 0.0
-0.289483 0.287822 0.0
-0.328073 0.303519 0.0
-0.374644 0.320239 0.0
-0.429833 0.336134 0.0
-0.492437 0.346138 0.0
-0.558801 0.341664 0.0
-0.623487 0.313068 0.0
-0.681009 0.253842 0.0
-0.727470 0.163506 0.0
-0.761201 0.047370 0.0
-0.782361 -0.085955 0.0
-0.792753 -0.227509 0.0
-0.794685 -0.370718 0.0
-0.789723 -0.510064 0.0
-0.778481 -0.642033 0.0
-0.759614 -0.763823 0.0
-0.728450 -0.870921 0.0
-0.676282 -0.952242 0.0
-0.591642 -0.984241 0.0
-0.464429 -0.926528 0.0
-0.293335 -0.723266 0.0
-0.098246 -0.325523 0.0
0.000498 0.063174 0.0
-0.000723 0.048580 0.0
-0.003167 0.099245 0.0
-0.007193 0.123794 0.0
-0.012107 0.135127 0.0
-0.017470 0.140450 0.0
-0.023054 0.143388 0.0
-0.028758 0.145602 0.0
-0.034552 0.147786 0.0
-0.040437 0.150208 0.0
-0.046431 0.152974 0.0
-0.052559 0.156135 0.0
-0.058855 0.159725 0.0
-0.065360 0.163778 0.0
-0.072121 0.168332 0.0
-0.079198 0.173428 0.0
-0.086660 0.179110 0.0
-0.094593 0.185431 0.0
-0.103100 0.192450 0.0
-0.112307 0.200232 0.0
-0.122370 0.208853 0.0
-0.133481 0.218398 0.0
-0.145882 0.228965 0.0
-0.159877 0.240663 0.0
-0.175855 0.253621 0.0
-0.194324 0.267994 0.0
-0.215952 0.283987 0.0
-0.241631 0.301908 0.0
-0.272514 0.322186 0.0
-0.309922 0.345154 0.0
-0.354936 0.370188 0.0
-0.407582 0.394021 0.0
-0.465987 0.409261 0.0
-0.526251 0.405170 0.0
-0.583421 0.371419 0.0
-0.633013 0.302606 0.0
-0.672175 0.200364 0.0
-0.700012 0.072080 0.0
-0.717271 -0.072245 0.0
-0.725651 -0.222447 0.0
-0.727180 -0.372319 0.0
-0.723815 -0.516791 0.0
-0.717221 -0.653143 0.0
-0.707797 -0.781005 0.0
-0.692383 -0.900318 0.0
-0.662224 -1.005171 0.0
-0.603254 -1.074923 0.0
-0.500223 -1.066090 0.0
-0.345257 -0.909765 0.0
-0.153256 -0.526113 0.0
-0.025953 0.037719 0.0
-0.000638 0.049940 0.0
-0.002855 0.102546 0.0
-0.006587 0.128250 0.0
-0.011190 0.140188 0.0
-0.016239 0.145801 0.0
-0.021501 0.148882 0.0
-0.026870 0.151182 0.0
-0.032309 0.153440 0.0
-0.037817 0.155947 0.0
-0.043407 0.158819 0.0
-0.049101 0.162113 0.0
-0.054929 0.165871 0.0
-0.060928 0.170135 0.0
-0.067139 0.174949 0.0
-0.073616 0.180365 0.0
-0.080423 0.186441 0.0
-0.087636 0.193246 0.0
-0.095349 0.200856 0.0
-0.103677 0.209362 0.0
-0.112763 0.218872 0.0
-0.122781 0.229510 0.0
-0.133954 0.241427 0.0
-0.146563 0.254805 0.0
-0.160971 0.269866 0.0
-0.177653 0.286899 0.0
-0.197236 0.306293 0.0
-0.220545 0.328591 0.0
-0.248605 0.354445 0.0
-0.282485 0.384184 0.0
-0.322878 0.416565 0.0
-0.369414 0.446826 0.0
-0.420132 0.465578 0.0
-0.471605 0.460591 0.0
-0.519840 0.421401 0.0
-0.561416 0.343792 0.0
-0.594267 0.231191 0.0
-0.617847 0.092670 0.0
-0.632822 -0.060601 0.0
-0.640389 -0.218144 0.0
-0.641809 -0.373673 0.0
-0.638745 -0.521868 0.0
-0.633801 -0.659603 0.0
-0.629653 -0.788116 0.0
-0.626019 -0.912255 0.0
-0.615951 -1.033460 0.0
-0.584366 -1.137189 0.0
-0.511857 -1.179365 0.0
-0.384709 -1.078603 0.0
-0.211638 -0.722347 0.0
-0.058377 -0.046612 0.0
-0.000553 0.051130 0.0
-0.002542 0.105563 0.0
-0.005975 0.132397 0.0
-0.010262 0.144933 0.0
-0.014989 0.150832 0.0
-0.019918 0.154042 0.0
-0.024937 0.156410 0.0
-0.030006 0.158720 0.0
-0.035117 0.161285 0.0
-0.040279 0.164232 0.0
-0.045510 0.167625 0.0
-0.050834 0.171512 0.0
-0.056282 0.175940 0.0
-0.061891 0.180963 0.0
-0.067705 0.186642 0.0
-0.073779 0.193045 0.0
-0.080178 0.200255 0.0
-0.086983 0.208365 0.0
-0.094291 0.217489 0.0
-0.102223 0.227761 0.0
-0.110927 0.239343 0.0
-0.120591 0.252431 0.0
-0.131452 0.267271 0.0
-0.143816 0.284172 0.0
-0.158081 0.303539 0.0
-0.174765 0.325920 0.0
-0.194529 0.352039 0.0
-0.218151 0.382679 0.0
-0.246372 0.418051 0.0
-0.279558 0.456275 0.0
-0.317260 0.491353 0.0
-0.357939 0.512448 0.0
-0.399134 0.506390 0.0
-0.438067 0.462770 0.0
-0.472365 0.378298 0.0
-0.500544 0.257715 0.0
-0.522081 0.111262 0.0
-0.537080 -0.049219 0.0
-0.545747 -0.213293 0.0
-0.548172 -0.374680 0.0
-0.545247 -0.526850 0.0
-0.539979 -0.664834 0.0
-0.537038 -0.789974 0.0
-0.539678 -0.911390 0.0
-0.544587 -1.039485 0.0
-0.537625 -1.169711 0.0
-0.495906 -1.261071 0.0
-0.398484 -1.221468 0.0
-0.243127 -0.907911 0.0
-0.076224 -0.181212 0.0
-0.000469 0.052152 0.0
-0.002233 0.108296 0.0
-0.005366 0.136229 0.0
-0.009335 0.149357 0.0
-0.013734 0.155533 0.0
-0.018324 0.158859 0.0
-0.022985 0.161274 0.0
-0.027671 0.163610 0.0
-0.032369 0.166203 0.0
-0.037083 0.169190 0.0
-0.041825 0.172641 0.0
-0.046615 0.176610 0.0
-0.051476 0.181151 0.0
-0.056437 0.186323 0.0
-0.061534 0.192194 0.0
-0.066810 0.198843 0.0
-0.072316 0.206362 0.0
-0.078114 0.214861 0.0
-0.084282 0.224469 0.0
-0.090910 0.235341 0.0
-0.098112 0.247669 0.0
-0.106029 0.261686 0.0
-0.114838 0.277686 0.0
-0.124759 0.296043 0.0
-0.136077 0.317250 0.0
-0.149147 0.341962 0.0
-0.164399 0.371013 0.0
-0.182299 0.405227 0.0
-0.203242 0.444666 0.0
-0.227372 0.486977 0.0
-0.254404 0.525386 0.0
-0.283540 0.548230 0.0
-0.313555 0.541818 0.0
-0.343026 0.495746 0.0
-0.370629 0.407223 0.0
-0.395359 0.281700 0.0
-0.416513 0.129967 0.0
-0.433337 -0.036101 0.0
-0.444752 -0.206327 0.0
-0.449668 -0.374304 0.0
-0.448177 -0.531641 0.0
-0.443013 -0.670475 0.0
-0.439635 -0.790653 0.0
-0.444081 -0.903625 0.0
-0.457685 -1.028736 0.0
-0.469575 -1.175533 0.0
-0.454959 -1.311584 0.0
-0.385911 -1.337424 0.0
-0.250364 -1.082858 0.0
-0.083048 -0.340483 0.0
-0.000388 0.053009 0.0
-0.001932 0.110747 0.0
-0.004770 0.139748 0.0
-0.008423 0.153459 0.0
-0.012494 0.159902 0.0
-0.016741 0.163327 0.0
-0.021039 0.165766 0.0
-0.025334 0.168099 0.0
-0.029608 0.170685 0.0
-0.033858 0.173672 0.0
-0.038093 0.177136 0.0
-0.042325 0.181136 0.0
-0.046570 0.185730 0.0
-0.050848 0.190983 0.0
-0.055185 0.196967 0.0
-0.059610 0.203770 0.0
-0.064160 0.211491 0.0
-0.068877 0.220248 0.0
-0.073811 0.230183 0.0
-0.079023 0.241466 0.0
-0.084583 0.254306 0.0
-0.090577 0.268960 0.0
-0.097109 0.285751 0.0
-0.104301 0.305091 0.0
-0.112300 0.327518 0.0
-0.121270 0.353734 0.0
-0.131380 0.384603 0.0
-0.142766 0.420923 0.0
-0.155491 0.462638 0.0
-0.169540 0.507185 0.0
-0.184885 0.547555 0.0
-0.201562 0.571874 0.0
-0.219645 0.566272 0.0
-0.239106 0.520223 0.0
-0.259687 0.430930 0.0
-0.280861 0.303898 0.0
-0.301723 0.149784 0.0
-0.320682 -0.020135 0.0
-0.335400 -0.196159 0.0
-0.343961 -0.370996 0.0
-0.346103 -0.534298 0.0