# vtk DataFile Version 3.0
Vector Field
ASCII
DATASET RECTILINEAR_GRID
DIMENSIONS 50 50 1
X_COORDINATES 50 double
0.100000 0.300000 0.500000 0.700000 0.900000 1.100000 1.300000 1.500000 1.700000 1.900000 2.100000 2.300000 2.500000 2.700000 2.900000 3.100000 3.300000 3.500000 3.700000 3.900000 4.100000 4.300000 4.500000 4.700000 4.900000 5.100000 5.300000 5.500000 5.700000 5.900000 6.100000 6.300000 6.500000 6.700000 6.900000 7.100000 7.300000 7.500000 7.700000 7.900000 8.100000 8.300000 8.500000 8.700000 8.900000 9.100000 9.300000 9.500000 9.700000 9.900000 
Y_COORDINATES 50 double
0.100000 0.300000 0.500000 0.700000 0.900000 1.100000 1.300000 1.500000 1.700000 1.900000 2.100000 2.300000 2.500000 2.700000 2.900000 3.100000 3.300000 3.500000 3.700000 3.900000 4.100000 4.300000 4.500000 4.700000 4.900000 5.100000 5.300000 5.500000 5.700000 5.900000 6.100000 6.300000 6.500000 6.700000 6.900000 7.100000 7.300000 7.500000 7.700000 7.900000 8.100000 8.300000 8.500000 8.700000 8.900000 9.100000 9.300000 9.500000 9.700000 9.900000 
Z_COORDINATES 1 double
0.0
POINT_DATA 2500
VECTORS Vektorfeld double
-0.000235 0.000235 0.0
-0.001097 0.000627 0.0
-0.002538 0.000815 0.0
-0.004240 0.000886 0.0
-0.006035 0.000909 0.0
-0.007861 0.000917 0.0
-0.009701 0.000923 0.0
-0.011553 0.000930 0.0
-0.013421 0.000938 0.0
-0.015307 0.000948 0.0
-0.017214 0.000958 0.0
-0.019141 0.000969 0.0
-0.021091 0.000980 0.0
-0.023063 0.000991 0.0
-0.025055 0.001001 0.0
-0.027065 0.001009 0.0
-0.029089 0.001015 0.0
-0.031124 0.001019 0.0
-0.033162 0.001019 0.0
-0.035195 0.001014 0.0
-0.037212 0.001004 0.0
-0.039202 0.000986 0.0
-0.041149 0.000961 0.0
-0.043035 0.000925 0.0
-0.044839 0.000878 0.0
-0.046536 0.000819 0.0
-0.048099 0.000745 0.0
-0.049498 0.000654 0.0
-0.050700 0.000547 0.0
-0.051669 0.000422 0.0
-0.052370 0.000279 0.0
-0.052767 0.000118 0.0
-0.052827 -0.000059 0.0
-0.052512 -0.000256 0.0
-0.051787 -0.000470 0.0
-0.050619 -0.000697 0.0
-0.048990 -0.000932 0.0
-0.046887 -0.001170 0.0
-0.044311 -0.001405 0.0
-0.041275 -0.001631 0.0
-0.037804 -0.001841 0.0
-0.033934 -0.002029 0.0
-0.029715 -0.002190 0.0
-0.025208 -0.002317 0.0
-0.020488 -0.002403 0.0
-0.015656 -0.002429 0.0
-0.010864 -0.002362 0.0
-0.006377 -0.002126 0.0
-0.002675 -0.001577 0.0
-0.000549 -0.000549 0.0
-0.000659 0.001129 0.0
-0.002646 0.002582 0.0
-0.005628 0.003284 0.0
-0.009080 0.003570 0.0
-0.012732 0.003673 0.0
-0.016466 0.003713 0.0
-0.020236 0.003737 0.0
-0.024028 0.003761 0.0
-0.027841 0.003788 0.0
-0.031676 0.003819 0.0
-0.035533 0.003851 0.0
-0.039412 0.003884 0.0
-0.043311 0.003915 0.0
-0.047226 0.003944 0.0
-0.051154 0.003967 0.0
-0.055086 0.003984 0.0
-0.059013 0.003992 0.0
-0.062924 0.003988 0.0
-0.066803 0.003967 0.0
-0.070632 0.003928 0.0
-0.074390 0.003866 0.0
-0.078051 0.003775 0.0
-0.081584 0.003652 0.0
-0.084954 0.003490 0.0
-0.088122 0.003285 0.0
-0.091044 0.003031 0.0
-0.093671 0.002722 0.0
-0.095949 0.002354 0.0
-0.097822 0.001923 0.0
-0.099231 0.001426 0.0
-0.100117 0.000862 0.0
-0.100418 0.000233 0.0
-0.100075 -0.000458 0.0
-0.099029 -0.001216 0.0
-0.097237 -0.002028 0.0
-0.094663 -0.002881 0.0
-0.091285 -0.003757 0.0
-0.087096 -0.004638 0.0
-0.082105 -0.005503 0.0
-0.076343 -0.006331 0.0
-0.069855 -0.007099 0.0
-0.062708 -0.007787 0.0
-0.054983 -0.008375 0.0
-0.046783 -0.008839 0.0
-0.038237 -0.009147 0.0
-0.029516 -0.009238 0.0
-0.020878 -0.008984 0.0
-0.012745 -0.008125 0.0
-0.005846 -0.006178 0.0
-0.001410 -0.002508 0.0
-0.000894 0.002681 0.0
-0.003503 0.005626 0.0
-0.007310 0.007030 0.0
-0.011660 0.007625 0.0
-0.016245 0.007856 0.0
-0.020929 0.007948 0.0
-0.025657 0.007999 0.0
-0.030410 0.008043 0.0
-0.035181 0.008090 0.0
-0.039969 0.008139 0.0
-0.044771 0.008190 0.0
-0.049585 0.008238 0.0
-0.054408 0.008282 0.0
-0.059233 0.008317 0.0
-0.064053 0.008341 0.0
-0.068858 0.008348 0.0
-0.073635 0.008333 0.0
-0.078368 0.008290 0.0
-0.083038 0.008214 0.0
-0.087622 0.008095 0.0
-0.092092 0.007927 0.0
-0.096417 0.007699 0.0
-0.100560 0.007403 0.0
-0.104478 0.007028 0.0
-0.108127 0.006564 0.0
-0.111452 0.005999 0.0
-0.114397 0.005325 0.0
-0.116902 0.004533 0.0
-0.118900 0.003615 0.0
-0.120324 0.002567 0.0
-0.121105 0.001388 0.0
-0.121175 0.000079 0.0
-0.120467 -0.001356 0.0
-0.118925 -0.002905 0.0
-0.116506 -0.004550 0.0
-0.113176 -0.006263 0.0
-0.108916 -0.008013 0.0
-0.103723 -0.009764 0.0
-0.097615 -0.011476 0.0
-0.090630 -0.013107 0.0
-0.082826 -0.014615 0.0
-0.074282 -0.015963 0.0
-0.065097 -0.017109 0.0
-0.055391 -0.018010 0.0
-0.045313 -0.018601 0.0
-0.035057 -0.018760 0.0
-0.024911 -0.018246 0.0
-0.015334 -0.016572 0.0
-0.007130 -0.012834 0.0
-0.001750 -0.005669 0.0
-0.001002 0.004577 0.0
-0.003916 0.009253 0.0
-0.008139 0.011434 0.0
-0.012934 0.012366 0.0
-0.017970 0.012737 0.0
-0.023107 0.012888 0.0
-0.028287 0.012968 0.0
-0.033491 0.013031 0.0
-0.038710 0.013092 0.0
-0.043941 0.013155 0.0
-0.049181 0.013216 0.0
-0.054426 0.013271 0.0
-0.059670 0.013316 0.0
-0.064908 0.013346 0.0
-0.070130 0.013354 0.0
-0.075325 0.013334 0.0
-0.080478 0.013277 0.0
-0.085572 0.013174 0.0
-0.090587 0.013015 0.0
-0.095497 0.012788 0.0
-0.100273 0.012480 0.0
-0.104882 0.012079 0.0
-0.109283 0.011568 0.0
-0.113434 0.010933 0.0
-0.117285 0.010158 0.0
-0.120781 0.009226 0.0
-0.123861 0.008124 0.0
-0.126461 0.006838 0.0
-0.128512 0.005359 0.0
-0.129943 0.003678 0.0
-0.130681 0.001795 0.0
-0.130653 -0.000286 0.0
-0.129794 -0.002557 0.0
-0.128045 -0.004994 0.0
-0.125357 -0.007568 0.0
-0.121694 -0.010238 0.0
-0.117035 -0.012958 0.0
-0.111377 -0.015670 0.0
-0.104741 -0.018314 0.0
-0.097168 -0.020826 0.0
-0.088723 -0.023144 0.0
-0.079495 -0.025205 0.0
-0.069596 -0.026951 0.0
-0.059158 -0.028312 0.0
-0.048345 -0.029190 0.0
-0.037368 -0.029404 0.0
-0.026527 -0.028591 0.0
-0.016304 -0.026027 0.0
-0.007552 -0.020333 0.0
-0.001841 -0.009260 0.0
-0.001045 0.006623 0.0
-0.004089 0.013164 0.0
-0.008503 0.016161 0.0
-0.013504 0.017435 0.0
-0.018745 0.017945 0.0
-0.024085 0.018155 0.0
-0.029467 0.018263 0.0
-0.034870 0.018343 0.0
-0.040287 0.018417 0.0
-0.045716 0.018489 0.0
-0.051151 0.018556 0.0
-0.056589 0.018614 0.0
-0.062025 0.018655 0.0
-0.067452 0.018673 0.0
-0.072861 0.018659 0.0
-0.078240 0.018604 0.0
-0.083576 0.018496 0.0
-0.088851 0.018324 0.0
-0.094043 0.018072 0.0
-0.099130 0.017727 0.0
-0.104081 0.017269 0.0
-0.108862 0.016680 0.0
-0.113435 0.015941 0.0
-0.117755 0.015031 0.0
-0.121771 0.013927 0.0
-0.125428 0.012609 0.0
-0.128664 0.011057 0.0
-0.131412 0.009253 0.0
-0.133600 0.007183 0.0
-0.135154 0.004838 0.0
-0.135995 0.002215 0.0
-0.136049 -0.000680 0.0
-0.135241 -0.003830 0.0
-0.133505 -0.007206 0.0
-0.130783 -0.010766 0.0
-0.127030 -0.014457 0.0
-0.122217 -0.018212 0.0
-0.116337 -0.021953 0.0
-0.109408 -0.025597 0.0
-0.101472 -0.029053 0.0
-0.092602 -0.032232 0.0
-0.082896 -0.035050 0.0
-0.072480 -0.037422 0.0
-0.061506 -0.039253 0.0
-0.050157 -0.040411 0.0
-0.038663 -0.040654 0.0
-0.027346 -0.039499 0.0
-0.016719 -0.035970 0.0
-0.007678 -0.028182 0.0
-0.001850 -0.012951 0.0
-0.001056 0.008724 0.0
-0.004145 0.017196 0.0
-0.008633 0.021031 0.0
-0.013718 0.022650 0.0
-0.019045 0.023299 0.0
-0.024468 0.023565 0.0
-0.029932 0.023699 0.0
-0.035418 0.023796 0.0
-0.040919 0.023883 0.0
-0.046433 0.023965 0.0
-0.051955 0.024038 0.0
-0.057483 0.024098 0.0
-0.063013 0.024136 0.0
-0.068537 0.024143 0.0
-0.074047 0.024108 0.0
-0.079534 0.024020 0.0
-0.084984 0.023865 0.0
-0.090381 0.023627 0.0
-0.095706 0.023287 0.0
-0.100934 0.022827 0.0
-0.106039 0.022224 0.0
-0.110987 0.021454 0.0
-0.115740 0.020493 0.0
-0.120255 0.019313 0.0
-0.124480 0.017887 0.0
-0.128360 0.016187 0.0
-0.131832 0.014187 0.0
-0.134825 0.011865 0.0
-0.137265 0.009200 0.0
-0.139071 0.006181 0.0
-0.140159 0.002802 0.0
-0.140444 -0.000929 0.0
-0.139841 -0.004992 0.0
-0.138271 -0.009351 0.0
-0.135659 -0.013954 0.0
-0.131949 -0.018732 0.0
-0.127099 -0.023599 0.0
-0.121092 -0.028453 0.0
-0.113939 -0.033180 0.0
-0.105684 -0.037660 0.0
-0.096405 -0.041774 0.0
-0.086214 -0.045405 0.0
-0.075257 -0.048439 0.0
-0.063714 -0.050754 0.0
-0.051796 -0.052178 0.0
-0.039766 -0.052411 0.0
-0.027979 -0.050845 0.0
-0.016983 -0.046248 0.0
-0.007717 -0.036211 0.0
-0.001833 -0.016634 0.0
-0.001055 0.010835 0.0
-0.004148 0.021267 0.0
-0.008653 0.025954 0.0
-0.013764 0.027923 0.0
-0.019119 0.028708 0.0
-0.024571 0.029030 0.0
-0.030065 0.029192 0.0
-0.035583 0.029307 0.0
-0.041118 0.029409 0.0
-0.046669 0.029503 0.0
-0.052234 0.029588 0.0
-0.057811 0.029654 0.0
-0.063396 0.029694 0.0
-0.068984 0.029697 0.0
-0.074568 0.029649 0.0
-0.080141 0.029538 0.0
-0.085689 0.029346 0.0
-0.091200 0.029054 0.0
-0.096656 0.028640 0.0
-0.102035 0.028081 0.0
-0.107311 0.027351 0.0
-0.112454 0.026419 0.0
-0.117427 0.025255 0.0
-0.122188 0.023826 0.0
-0.126686 0.022097 0.0
-0.130865 0.020035 0.0
-0.134660 0.017606 0.0
-0.137999 0.014778 0.0
-0.140800 0.011528 0.0
-0.142977 0.007836 0.0
-0.144435 0.003693 0.0
-0.145076 -0.000894 0.0
-0.144801 -0.005905 0.0
-0.143510 -0.011299 0.0
-0.141113 -0.017014 0.0
-0.137531 -0.022965 0.0
-0.132705 -0.029043 0.0
-0.126602 -0.035119 0.0
-0.119225 -0.041044 0.0
-0.110613 -0.046662 0.0
-0.100854 -0.051811 0.0
-0.090078 -0.056335 0.0
-0.078460 -0.060083 0.0
-0.066217 -0.062896 0.0
-0.053606 -0.064565 0.0
-0.040935 -0.064725 0.0
-0.028604 -0.062648 0.0
-0.017205 -0.056840 0.0
-0.007718 -0.044372 0.0
-0.001804 -0.020271 0.0
-0.001047 0.012937 0.0
-0.004127 0.025337 0.0
-0.008625 0.030887 0.0
-0.013734 0.033210 0.0
-0.019091 0.034134 0.0
-0.024547 0.034512 0.0
-0.030047 0.034704 0.0
-0.035574 0.034839 0.0
-0.041123 0.034960 0.0
-0.046693 0.035073 0.0
-0.052284 0.035174 0.0
-0.057895 0.035255 0.0
-0.063524 0.035306 0.0
-0.069167 0.035315 0.0
-0.074820 0.035268 0.0
-0.080476 0.035148 0.0
-0.086126 0.034935 0.0
-0.091760 0.034608 0.0
-0.097361 0.034142 0.0
-0.102911 0.033509 0.0
-0.108388 0.032676 0.0
-0.113763 0.031611 0.0
-0.119001 0.030275 0.0
-0.124062 0.028628 0.0
-0.128898 0.026629 0.0
-0.133451 0.024235 0.0
-0.137654 0.021404 0.0
-0.141433 0.018097 0.0
-0.144699 0.014278 0.0
-0.147357 0.009921 0.0
-0.149301 0.005010 0.0
-0.150417 -0.000454 0.0
-0.150584 -0.006453 0.0
-0.149682 -0.012943 0.0
-0.147595 -0.019854 0.0
-0.144217 -0.027085 0.0
-0.139463 -0.034503 0.0
-0.133278 -0.041946 0.0
-0.125649 -0.049224 0.0
-0.116611 -0.056132 0.0
-0.106257 -0.062454 0.0
-0.094745 -0.067981 0.0
-0.082288 -0.072512 0.0
-0.069157 -0.075841 0.0
-0.055673 -0.077715 0.0
-0.042211 -0.077709 0.0
-0.029231 -0.074974 0.0
-0.017378 -0.067766 0.0
-0.007668 -0.052643 0.0
-0.001754 -0.023828 0.0
-0.001037 0.015021 0.0
-0.004094 0.029391 0.0
-0.008572 0.035809 0.0
-0.013666 0.038491 0.0
-0.019012 0.039557 0.0
-0.024461 0.039995 0.0
-0.029957 0.040218 0.0
-0.035484 0.040379 0.0
-0.041038 0.040524 0.0
-0.046620 0.040661 0.0
-0.052230 0.040787 0.0
-0.057870 0.040892 0.0
-0.063539 0.040966 0.0
-0.069236 0.040996 0.0
-0.074960 0.040964 0.0
-0.080704 0.040853 0.0
-0.086465 0.040641 0.0
-0.092233 0.040304 0.0
-0.097997 0.039812 0.0
-0.103742 0.039134 0.0
-0.109447 0.038233 0.0
-0.115089 0.037070 0.0
-0.120636 0.035601 0.0
-0.126050 0.033777 0.0
-0.131284 0.031550 0.0
-0.136283 0.028865 0.0
-0.140977 0.025672 0.0
-0.145288 0.021918 0.0
-0.149124 0.017558 0.0
-0.152377 0.012552 0.0
-0.154928 0.006874 0.0
-0.156644 0.000514 0.0
-0.157381 -0.006517 0.0
-0.156991 -0.014172 0.0
-0.155325 -0.022379 0.0
-0.152241 -0.031022 0.0
-0.147619 -0.039942 0.0
-0.141372 -0.048939 0.0
-0.133460 -0.057772 0.0
-0.123909 -0.066174 0.0
-0.112817 -0.073857 0.0
-0.100372 -0.080537 0.0
-0.086842 -0.085942 0.0
-0.072578 -0.089806 0.0
-0.057990 -0.091822 0.0
-0.043548 -0.091506 0.0
-0.029797 -0.087908 0.0
-0.017439 -0.079044 0.0
-0.007525 -0.060990 0.0
-0.001670 -0.027251 0.0
-0.001024 0.017082 0.0
-0.004054 0.033417 0.0
-0.008504 0.040710 0.0
-0.013575 0.043755 0.0
-0.018904 0.044967 0.0
-0.024338 0.045468 0.0
-0.029824 0.045727 0.0
-0.035346 0.045918 0.0
-0.040900 0.046093 0.0
-0.046489 0.046263 0.0
-0.052116 0.046423 0.0
-0.057782 0.046563 0.0
-0.063491 0.046673 0.0
-0.069243 0.046738 0.0
-0.075039 0.046740 0.0
-0.080877 0.046660 0.0
-0.086756 0.046473 0.0
-0.092670 0.046153 0.0
-0.098611 0.045668 0.0
-0.104569 0.044981 0.0
-0.110529 0.044052 0.0
-0.116470 0.042835 0.0
-0.122366 0.041279 0.0
-0.128181 0.039329 0.0
-0.133873 0.036924 0.0
-0.139386 0.034002 0.0
-0.144654 0.030497 0.0
-0.149593 0.026344 0.0
-0.154106 0.021481 0.0
-0.158077 0.015853 0.0
-0.161370 0.009417 0.0
-0.163830 0.002148 0.0
-0.165290 -0.005954 0.0
-0.165564 -0.014851 0.0
-0.164461 -0.024470 0.0
-0.161794 -0.034682 0.0
-0.157394 -0.045304 0.0
-0.151125 -0.056092 0.0
-0.142910 -0.066746 0.0
-0.132750 -0.076913 0.0
-0.120747 -0.086212 0.0
-0.107122 -0.094252 0.0
-0.092219 -0.100659 0.0
-0.076496 -0.105076 0.0
-0.060502 -0.107133 0.0
-0.044843 -0.106296 0.0
-0.030179 -0.101534 0.0
-0.017285 -0.090669 0.0
-0.007227 -0.069337 0.0
-0.001533 -0.030453 0.0
-0.001010 0.019116 0.0
-0.004007 0.037410 0.0
-0.008423 0.045582 0.0
-0.013466 0.048997 0.0
-0.018771 0.050359 0.0
-0.024187 0.050926 0.0
-0.029658 0.051226 0.0
-0.035169 0.051452 0.0
-0.040719 0.051664 0.0
-0.046311 0.051874 0.0
-0.051951 0.052077 0.0
-0.057641 0.052266 0.0
-0.063388 0.052426 0.0
-0.069194 0.052543 0.0
-0.075063 0.052600 0.0
-0.080997 0.052574 0.0
-0.086998 0.052440 0.0
-0.093065 0.052168 0.0
-0.099195 0.051725 0.0
-0.105382 0.051070 0.0
-0.111617 0.050158 0.0
-0.117885 0.048937 0.0
-0.124164 0.047351 0.0
-0.130425 0.045334 0.0
-0.136629 0.042816 0.0
-0.142726 0.039721 0.0
-0.148650 0.035969 0.0
-0.154317 0.031479 0.0
-0.159625 0.026168 0.0
-0.164449 0.019960 0.0
-0.168638 0.012791 0.0
-0.172015 0.004612 0.0
-0.174382 -0.004592 0.0
-0.175512 -0.014809 0.0
-0.175159 -0.025966 0.0
-0.173080 -0.037931 0.0
-0.169036 -0.050498 0.0
-0.162826 -0.063377 0.0
-0.154310 -0.076192 0.0
-0.143447 -0.088490 0.0
-0.130328 -0.099757 0.0
-0.115212 -0.109450 0.0
-0.098538 -0.117038 0.0
-0.080923 -0.122035 0.0
-0.063114 -0.123978 0.0
-0.045928 -0.122297 0.0
-0.030190 -0.115936 0.0
-0.016758 -0.102593 0.0
-0.006680 -0.077548 0.0
-0.001315 -0.033301 0.0
-0.000993 0.021119 0.0
-0.003954 0.041365 0.0
-0.008330 0.050421 0.0
-0.013339 0.054210 0.0
-0.018615 0.055727 0.0
-0.024006 0.056364 0.0
-0.029456 0.056709 0.0
-0.034952 0.056976 0.0
-0.040493 0.057231 0.0
-0.046084 0.057490 0.0
-0.051731 0.057748 0.0
-0.057441 0.057996 0.0
-0.063221 0.058222 0.0
-0.069077 0.058410 0.0
-0.075017 0.058542 0.0
-0.081046 0.058595 0.0
-0.087169 0.058543 0.0
-0.093393 0.058355 0.0
-0.099717 0.057993 0.0
-0.106144 0.057415 0.0
-0.112669 0.056572 0.0
-0.119284 0.055406 0.0
-0.125976 0.053853 0.0
-0.132722 0.051839 0.0
-0.139491 0.049283 0.0
-0.146237 0.046096 0.0
-0.152899 0.042180 0.0
-0.159398 0.037434 0.0
-0.165627 0.031751 0.0
-0.171456 0.025030 0.0
-0.176721 0.017174 0.0
-0.181221 0.008107 0.0
-0.184719 -0.002222 0.0
-0.186940 -0.013829 0.0
-0.187585 -0.026655 0.0
-0.186329 -0.040579 0.0
-0.182846 -0.055377 0.0
-0.176837 -0.070716 0.0
-0.168068 -0.086137 0.0
-0.156422 -0.101054 0.0
-0.141956 -0.114777 0.0
-0.124957 -0.126544 0.0
-0.105986 -0.135588 0.0
-0.085879 -0.141208 0.0
-0.065685 -0.142806 0.0
-0.046547 -0.139793 0.0
-0.029541 -0.131184 0.0
-0.015622 -0.114696 0.0
-0.005753 -0.085392 0.0
-0.000979 -0.035596 0.0
-0.000975 0.023087 0.0
-0.003892 0.045274 0.0
-0.008224 0.055219 0.0
-0.013193 0.059390 0.0
-0.018434 0.061065 0.0
-0.023794 0.061777 0.0
-0.029217 0.062170 0.0
-0.034691 0.062483 0.0
-0.040216 0.062789 0.0
-0.045799 0.063105 0.0
-0.051447 0.063428 0.0
-0.057169 0.063749 0.0
-0.062976 0.064055 0.0
-0.068876 0.064333 0.0
-0.074880 0.064563 0.0
-0.080998 0.064722 0.0
-0.087241 0.064783 0.0
-0.093617 0.064714 0.0
-0.100137 0.064477 0.0
-0.106806 0.064026 0.0
-0.113628 0.063308 0.0
-0.120606 0.062262 0.0
-0.127732 0.060815 0.0
-0.134996 0.058886 0.0
-0.142374 0.056383 0.0
-0.149830 0.053200 0.0
-0.157313 0.049222 0.0
-0.164747 0.044324 0.0
-0.172030 0.038373 0.0
-0.179027 0.031234 0.0
-0.185564 0.022771 0.0
-0.191418 0.012865 0.0
-0.196319 0.001418 0.0
-0.199942 -0.011624 0.0
-0.201911 -0.026246 0.0
-0.201806 -0.042348 0.0
-0.199185 -0.059711 0.0
-0.193615 -0.077962 0.0
-0.184722 -0.096553 0.0
-0.172261 -0.114744 0.0
-0.156208 -0.131607 0.0
-0.136854 -0.146068 0.0
-0.114893 -0.156996 0.0
-0.091460 -0.163341 0.0
-0.068058 -0.164269 0.0
-0.046345 -0.159182 0.0
-0.027811 -0.147335 0.0
-0.013533 -0.126741 0.0
-0.004258 -0.092491 0.0
-0.000476 -0.037051 0.0
-0.000954 0.025016 0.0
-0.003823 0.049132 0.0
-0.008102 0.059972 0.0
-0.013025 0.064528 0.0
-0.018224 0.066367 0.0
-0.023547 0.067157 0.0
-0.028937 0.067604 0.0
-0.034381 0.067968 0.0
-0.039883 0.068331 0.0
-0.045448 0.068712 0.0
-0.051088 0.069109 0.0
-0.056814 0.069515 0.0
-0.062637 0.069918 0.0
-0.068570 0.070304 0.0
-0.074629 0.070654 0.0
-0.080826 0.070946 0.0
-0.087177 0.071153 0.0
-0.093699 0.071242 0.0
-0.100406 0.071175 0.0
-0.107313 0.070904 0.0
-0.114433 0.070374 0.0
-0.121778 0.069518 0.0
-0.129351 0.068260 0.0
-0.137155 0.066509 0.0
-0.145178 0.064161 0.0
-0.153398 0.061098 0.0
-0.161775 0.057184 0.0
-0.170247 0.052268 0.0
-0.178718 0.046185 0.0
-0.187058 0.038759 0.0
-0.195087 0.029810 0.0
-0.202565 0.019160 0.0
-0.209192 0.006651 0.0
-0.214595 -0.007831 0.0
-0.218311 -0.024354 0.0
-0.219801 -0.042855 0.0
-0.218480 -0.063146 0.0
-0.213734 -0.084842 0.0
-0.204987 -0.107313 0.0
-0.191793 -0.129639 0.0
-0.173967 -0.150591 0.0
-0.151743 -0.168662 0.0
-0.125937 -0.182170 0.0
-0.098050 -0.189486 0.0
-0.070234 -0.189342 0.0
-0.044971 -0.181084 0.0
-0.024469 -0.164469 0.0
-0.010030 -0.138324 0.0
-0.001957 -0.098257 0.0
0.000251 -0.037276 0.0
-0.000930 0.026900 0.0
-0.003745 0.052933 0.0
-0.007965 0.064671 0.0
-0.012834 0.069620 0.0
-0.017985 0.071626 0.0
-0.023262 0.072498 0.0
-0.028611 0.073002 0.0
-0.034017 0.073421 0.0
-0.039485 0.073847 0.0
-0.045023 0.074300 0.0
-0.050644 0.074781 0.0
-0.056360 0.075284 0.0
-0.062187 0.075799 0.0
-0.068140 0.076310 0.0
-0.074238 0.076803 0.0
-0.080499 0.077255 0.0
-0.086944 0.077641 0.0
-0.093595 0.077928 0.0
-0.100475 0.078077 0.0
-0.107607 0.078042 0.0
-0.115015 0.077764 0.0
-0.122720 0.077176 0.0
-0.130741 0.076197 0.0
-0.139094 0.074728 0.0
-0.147784 0.072656 0.0
-0.156808 0.069847 0.0
-0.166143 0.066147 0.0
-0.175746 0.061378 0.0
-0.185538 0.055339 0.0
-0.195402 0.047809 0.0
-0.205163 0.038550 0.0
-0.214580 0.027315 0.0
-0.223324 0.013865 0.0
-0.230957 -0.002010 0.0
-0.236938 -0.020479 0.0
-0.240614 -0.041563 0.0
-0.241218 -0.065155 0.0
-0.237903 -0.090894 0.0
-0.229817 -0.118093 0.0
-0.216221 -0.145648 0.0
-0.196659 -0.171969 0.0
-0.171195 -0.194972 0.0
-0.140672 -0.212190 0.0
-0.106954 -0.221071 0.0
-0.073006 -0.219523 0.0
-0.042562 -0.206609 0.0
-0.019145 -0.182863 0.0
-0.004659 -0.148855 0.0
0.001404 -0.101863 0.0
0.001275 -0.035750 0.0
-0.000904 0.028735 0.0
-0.003659 0.056668 0.0
-0.007812 0.069309 0.0
-0.012619 0.074657 0.0
-0.017713 0.076834 0.0
-0.022937 0.077791 0.0
-0.028235 0.078355 0.0
-0.033594 0.078833 0.0
-0.039017 0.079326 0.0
-0.044516 0.079858 0.0
-0.050104 0.080432 0.0
-0.055797 0.081043 0.0
-0.061611 0.081681 0.0
-0.067566 0.082336 0.0
-0.073684 0.082992 0.0
-0.079988 0.083631 0.0
-0.086505 0.084227 0.0
-0.093263 0.084750 0.0
-0.100292 0.085164 0.0
-0.107626 0.085421 0.0
-0.115299 0.085465 0.0
-0.123345 0.085227 0.0
-0.131800 0.084622 0.0
-0.140695 0.083550 0.0
-0.150058 0.081887 0.0
-0.159907 0.079488 0.0
-0.170245 0.076180 0.0
-0.181055 0.071757 0.0
-0.192287 0.065984 0.0
-0.203848 0.058588 0.0
-0.215582 0.049267 0.0
-0.227255 0.037688 0.0
-0.238524 0.023506 0.0
-0.248924 0.006383 0.0
-0.257856 -0.013960 0.0
-0.264518 -0.037744 0.0
-0.267927 -0.064962 0.0
-0.266981 -0.095349 0.0
-0.260496 -0.128210 0.0
-0.247351 -0.162274 0.0
-0.226695 -0.195561 0.0
-0.198235 -0.225305 0.0
-0.162601 -0.248014 0.0
-0.121786 -0.259779 0.0
-0.079513 -0.257036 0.0
-0.041158 -0.237893 0.0
-0.012574 -0.203581 0.0
0.002597 -0.157794 0.0
0.005980 -0.102370 0.0
0.002671 -0.031804 0.0
-0.000876 0.030515 0.0
-0.003563 0.060330 0.0
-0.007642 0.073879 0.0
-0.012379 0.079631 0.0
-0.017409 0.081984 0.0
-0.022571 0.083027 0.0
-0.027808 0.083653 0.0
-0.033107 0.084193 0.0
-0.038474 0.084757 0.0
-0.043920 0.085373 0.0
-0.049460 0.086046 0.0
-0.055111 0.086773 0.0
-0.060894 0.087548 0.0
-0.066829 0.088361 0.0
-0.072944 0.089200 0.0
-0.079265 0.090049 0.0
-0.085825 0.090885 0.0
-0.092658 0.091683 0.0
-0.099804 0.092407 0.0
-0.107306 0.093013 0.0
-0.115209 0.093448 0.0
-0.123562 0.093644 0.0
-0.132418 0.093516 0.0
-0.141829 0.092962 0.0
-0.151846 0.091855 0.0
-0.162516 0.090039 0.0
-0.173875 0.087326 0.0
-0.185942 0.083488 0.0
-0.198707 0.078251 0.0
-0.212119 0.071294 0.0
-0.226063 0.062239 0.0
-0.240336 0.050661 0.0
-0.254621 0.036088 0.0
-0.268444 0.018025 0.0
-0.281114 -0.004001 0.0
-0.291724 -0.030431 0.0
-0.299147 -0.061443 0.0
-0.302006 -0.096953 0.0
-0.298777 -0.136319 0.0
-0.287923 -0.178165 0.0
-0.268069 -0.220180 0.0
-0.238276 -0.258939 0.0
-0.198498 -0.289791 0.0
-0.150278 -0.307037 0.0
-0.097557 -0.304773 0.0
-0.047258 -0.278810 0.0
-0.008702 -0.229803 0.0
0.010302 -0.165747 0.0
0.011508 -0.099006 0.0
0.004391 -0.024742 0.0
-0.000845 0.032236 0.0
-0.003459 0.063911 0.0
-0.007455 0.078372 0.0
-0.012115 0.084535 0.0
-0.017071 0.087066 0.0
-0.022161 0.088198 0.0
-0.027327 0.088886 0.0
-0.032556 0.089489 0.0
-0.037853 0.090125 0.0
-0.043231 0.090828 0.0
-0.048705 0.091605 0.0
-0.054295 0.092455 0.0
-0.060023 0.093375 0.0
-0.065914 0.094359 0.0
-0.071996 0.095398 0.0
-0.078303 0.096478 0.0
-0.084871 0.097583 0.0
-0.091741 0.098689 0.0
-0.098962 0.099767 0.0
-0.106585 0.100777 0.0
-0.114668 0.101671 0.0
-0.123277 0.102384 0.0
-0.132481 0.102836 0.0
-0.142356 0.102928 0.0
-0.152981 0.102531 0.0
-0.164436 0.101487 0.0
-0.176796 0.099598 0.0
-0.190130 0.096616 0.0
-0.204481 0.092240 0.0
-0.219860 0.086096 0.0
-0.236215 0.077737 0.0
-0.253409 0.066631 0.0
-0.271172 0.052165 0.0
-0.289054 0.033653 0.0
-0.306387 0.010374 0.0
-0.322250 -0.018332 0.0
-0.335373 -0.052997 0.0
-0.344193 -0.093720 0.0
-0.346963 -0.140010 0.0
-0.341740 -0.190551 0.0
-0.326428 -0.242960 0.0
-0.298994 -0.293387 0.0
-0.258077 -0.336038 0.0
-0.204004 -0.363082 0.0
-0.140013 -0.365439 0.0
-0.073553 -0.334903 0.0
-0.017192 -0.268628 0.0
0.013757 -0.176876 0.0
0.016629 -0.091954 0.0
0.006151 -0.014200 0.0
-0.000811 0.033892 0.0
-0.003346 0.067404 0.0
-0.007252 0.082782 0.0
-0.011827 0.089359 0.0
-0.016701 0.092071 0.0
-0.021710 0.093291 0.0
-0.026794 0.094042 0.0
-0.031939 0.094707 0.0
-0.037152 0.095416 0.0
-0.042444 0.096207 0.0
-0.047834 0.097090 0.0
-0.053341 0.098067 0.0
-0.058989 0.099139 0.0
-0.064807 0.100303 0.0
-0.070825 0.101554 0.0
-0.077080 0.102884 0.0
-0.083614 0.104279 0.0
-0.090474 0.105724 0.0
-0.097717 0.107195 0.0
-0.105402 0.108658 0.0
-0.113603 0.110073 0.0
-0.122397 0.111384 0.0
-0.131874 0.112518 0.0
-0.142134 0.113382 0.0
-0.153287 0.113854 0.0
-0.165449 0.113781 0.0
-0.178745 0.112961 0.0
-0.193300 0.111141 0.0
-0.209228 0.107995 0.0
-0.226622 0.103113 0.0
-0.245529 0.095982 0.0
-0.265915 0.085966 0.0
-0.287625 0.072302 0.0
-0.310322 0.054095 0.0
-0.333424 0.030366 0.0
-0.356035 0.000149 0.0
-0.376989 -0.037401 0.0
-0.394798 -0.082687 0.0
-0.407543 -0.135528 0.0
-0.412731 -0.195068 0.0
-0.407093 -0.259392 0.0
-0.386916 -0.324566 0.0
-0.349088 -0.383605 0.0
-0.292397 -0.426279 0.0
-0.218704 -0.439926 0.0
-0.134397 -0.411182 0.0
-0.052865 -0.330243 0.0
0.003534 -0.202608 0.0
0.018305 -0.083864 0.0
0.007270 -0.000778 0.0
-0.000776 0.035478 0.0
-0.003225 0.070802 0.0
-0.007035 0.087099 0.0
-0.011515 0.094097 0.0
-0.016299 0.096991 0.0
-0.021217 0.098299 0.0
-0.026208 0.099109 0.0
-0.031258 0.099835 0.0
-0.036371 0.100614 0.0
-0.041561 0.101491 0.0
-0.046845 0.102479 0.0
-0.052245 0.103585 0.0
-0.057787 0.104812 0.0
-0.063499 0.106161 0.0
-0.069416 0.107632 0.0
-0.075578 0.109223 0.0
-0.082030 0.110927 0.0
-0.088826 0.112734 0.0
-0.096028 0.114629 0.0
-0.103706 0.116588 0.0
-0.111943 0.118580 0.0
-0.120833 0.120561 0.0
-0.130484 0.122469 0.0
-0.141020 0.124226 0.0
-0.152582 0.125724 0.0
-0.165329 0.126820 0.0
-0.179436 0.127326 0.0
-0.195096 0.126991 0.0
-0.212509 0.125486 0.0
-0.231874 0.122381 0.0
-0.253367 0.117113 0.0
-0.277110 0.108964 0.0
-0.303125 0.097029 0.0
-0.331278 0.080219 0.0
-0.361236 0.057302 0.0
-0.392422 0.027011 0.0
-0.423946 -0.011785 0.0
-0.454430 -0.060010 0.0
-0.481613 -0.118276 0.0
-0.501836 -0.186909 0.0
-0.509964 -0.265062 0.0
-0.500386 -0.348651 0.0
-0.468704 -0.429030 0.0
-0.412799 -0.493449 0.0
-0.333203 -0.526044 0.0
-0.234058 -0.508517 0.0
-0.126032 -0.422467 0.0
-0.031894 -0.260920 0.0
0.010628 -0.082845 0.0
0.006686 0.013178 0.0
-0.000738 0.036992 0.0
-0.003098 0.074099 0.0
-0.006803 0.091317 0.0
-0.011184 0.098740 0.0
-0.015869 0.101817 0.0
-0.020688 0.103210 0.0
-0.025575 0.104076 0.0
-0.030516 0.104857 0.0
-0.035514 0.105703 0.0
-0.040583 0.106661 0.0
-0.045740 0.107751 0.0
-0.051009 0.108982 0.0
-0.056414 0.110361 0.0
-0.061987 0.111896 0.0
-0.067763 0.113590 0.0
-0.073785 0.115448 0.0
-0.080102 0.117471 0.0
-0.086772 0.119656 0.0
-0.093862 0.121999 0.0
-0.101451 0.124486 0.0
-0.109630 0.127099 0.0
-0.118508 0.129809 0.0
-0.128208 0.132573 0.0
-0.138879 0.135330 0.0
-0.150693 0.137996 0.0
-0.163847 0.140450 0.0
-0.178575 0.142531 0.0
-0.195139 0.144010 0.0
-0.213839 0.144579 0.0
-0.234999 0.143813 0.0
-0.258962 0.141138 0.0
-0.286066 0.135786 0.0
-0.316608 0.126763 0.0
-0.350810 0.112840 0.0
-0.388774 0.092602 0.0
-0.430405 0.064528 0.0
-0.475160 0.026977 0.0
-0.521450 -0.021998 0.0
-0.565740 -0.084814 0.0
-0.602256 -0.163633 0.0
-0.623874 -0.258593 0.0
-0.624136 -0.364436 0.0
-0.598964 -0.470099 0.0
-0.546471 -0.560779 0.0
-0.466078 -0.618703 0.0
-0.358959 -0.622121 0.0
-0.230890 -0.544958 0.0
-0.099407 -0.364051 0.0
-0.013196 -0.108447 0.0
0.004831 0.024695 0.0
-0.000699 0.038429 0.0
-0.002965 0.077288 0.0
-0.006562 0.095430 0.0
-0.010836 0.103282 0.0
-0.015416 0.106541 0.0
-0.020127 0.108016 0.0
-0.024900 0.108932 0.0
-0.029719 0.109761 0.0
-0.034587 0.110665 0.0
-0.039516 0.111698 0.0
-0.044525 0.112882 0.0
-0.049635 0.114230 0.0
-0.054873 0.115756 0.0
-0.060270 0.117471 0.0
-0.065864 0.119385 0.0
-0.071697 0.121509 0.0
-0.077821 0.123852 0.0
-0.084298 0.126422 0.0
-0.091198 0.129223 0.0
-0.098606 0.132258 0.0
-0.106620 0.135521 0.0
-0.115359 0.139003 0.0
-0.124962 0.142683 0.0
-0.135597 0.146526 0.0
-0.147462 0.150477 0.0
-0.160794 0.154455 0.0
-0.175877 0.158336 0.0
-0.193048 0.161941 0.0
-0.212708 0.165008 0.0
-0.235325 0.167161 0.0
-0.261439 0.167867 0.0
-0.291660 0.166383 0.0
-0.326674 0.161722 0.0
-0.367227 0.152636 0.0
-0.414060 0.137604 0.0
-0.467593 0.114690 0.0
-0.527108 0.081084 0.0
-0.589535 0.032611 0.0
-0.648844 -0.035823 0.0
-0.697097 -0.127854 0.0
-0.726790 -0.243061 0.0
-0.732901 -0.373594 0.0
-0.713210 -0.505803 0.0
-0.666572 -0.624207 0.0
-0.591222 -0.711019 0.0
-0.485022 -0.743123 0.0
-0.348201 -0.688846 0.0
-0.190364 -0.509483 0.0
-0.050299 -0.189291 0.0
0.003844 0.033370 0.0
-0.000659 0.039786 0.0
-0.002828 0.080366 0.0
-0.006312 0.099433 0.0
-0.010476 0.107716 0.0
-0.014945 0.111156 0.0
-0.019541 0.112706 0.0
-0.024190 0.113664 0.0
-0.028876 0.114532 0.0
-0.033598 0.115484 0.0
-0.038370 0.116580 0.0
-0.043209 0.117846 0.0
-0.048134 0.119302 0.0
-0.053174 0.120962 0.0
-0.058358 0.122846 0.0
-0.063725 0.124969 0.0
-0.069317 0.127350 0.0
-0.075189 0.130006 0.0
-0.081401 0.132956 0.0
-0.088026 0.136215 0.0
-0.095153 0.139800 0.0
-0.102885 0.143725 0.0
-0.111346 0.147999 0.0
-0.120685 0.152630 0.0
-0.131085 0.157613 0.0
-0.142763 0.162933 0.0
-0.155989 0.168557 0.0
-0.171089 0.174418 0.0
-0.188469 0.180410 0.0
-0.208624 0.186354 0.0
-0.232167 0.191974 0.0
-0.259852 0.196852 0.0
-0.292613 0.200381 0.0
-0.331605 0.201730 0.0
-0.378195 0.199771 0.0
-0.433709 0.192818 0.0
-0.498594 0.177894 0.0
-0.570893 0.149694 0.0
-0.644992 0.100528 0.0
-0.712252 0.022828 0.0
-0.764011 -0.086494 0.0
-0.794886 -0.223854 0.0
-0.802987 -0.378589 0.0
-0.788175 -0.535311 0.0
-0.749930 -0.679582 0.0
-0.685369 -0.795554 0.0
-0.589085 -0.861071 0.0
-0.455410 -0.841395 0.0
-0.284749 -0.685432 0.0
-0.097578 -0.340578 0.0
-0.002139 0.035075 0.0
-0.000618 0.041063 0.0
-0.002690 0.083330 0.0
-0.006060 0.103323 0.0
-0.010110 0.112040 0.0
-0.014465 0.115657 0.0
-0.018939 0.117275 0.0
-0.023457 0.118264 0.0
-0.027998 0.119158 0.0
-0.032562 0.120144 0.0
-0.037159 0.121289 0.0
-0.041804 0.122622 0.0
-0.046520 0.124167 0.0
-0.051329 0.125946 0.0
-0.056264 0.127981 0.0
-0.061359 0.130296 0.0
-0.066659 0.132916 0.0
-0.072216 0.135868 0.0
-0.078090 0.139180 0.0
-0.084354 0.142881 0.0
-0.091096 0.147003 0.0
-0.098421 0.151578 0.0
-0.106454 0.156640 0.0
-0.115349 0.162224 0.0
-0.125293 0.168363 0.0
-0.136518 0.175087 0.0
-0.149309 0.182420 0.0
-0.164024 0.190371 0.0
-0.181115 0.198928 0.0
-0.201157 0.208033 0.0
-0.224886 0.217567 0.0
-0.253259 0.227317 0.0
-0.287526 0.236945 0.0
-0.329289 0.245922 0.0
-0.380386 0.253265 0.0
-0.442247 0.256699 0.0
-0.514447 0.251097 0.0
-0.593040 0.227382 0.0
-0.670308 0.174207 0.0
-0.736966 0.083067 0.0
-0.785522 -0.046417 0.0
-0.813240 -0.205337 0.0
-0.821165 -0.381081 0.0
-0.810971 -0.557825 0.0
-0.782905 -0.723379 0.0
-0.733688 -0.865536 0.0
-0.655405 -0.965656 0.0
-0.536953 -0.988938 0.0
-0.370538 -0.874964 0.0
-0.167734 -0.541021 0.0
-0.030296 0.002640 0.0
-0.000578 0.042259 0.0
-0.002553 0.086181 0.0
-0.005810 0.107099 0.0
-0.009746 0.116250 0.0
-0.013984 0.120039 0.0
-0.018333 0.121715 0.0
-0.022713 0.122722 0.0
-0.027100 0.123628 0.0
-0.031492 0.124631 0.0
-0.035898 0.125805 0.0
-0.040331 0.127185 0.0
-0.044811 0.128799 0.0
-0.049360 0.130673 0.0
-0.054008 0.132836 0.0
-0.058789 0.135318 0.0
-0.063745 0.138150 0.0
-0.068925 0.141370 0.0
-0.074388 0.145015 0.0
-0.080204 0.149126 0.0
-0.086456 0.153752 0.0
-0.093248 0.158944 0.0
-0.100700 0.164759 0.0
-0.108963 0.171263 0.0
-0.118222 0.178527 0.0
-0.128706 0.186631 0.0
-0.140704 0.195664 0.0
-0.154583 0.205721 0.0
-0.170813 0.216900 0.0
-0.190010 0.229299 0.0
-0.212988 0.243008 0.0
-0.240839 0.258101 0.0
-0.275025 0.274614 0.0
-0.317391 0.292381 0.0
-0.369833 0.310344 0.0
-0.433259 0.324907 0.0
-0.505953 0.327783 0.0
-0.582490 0.305827 0.0
-0.654678 0.245218 0.0
-0.714389 0.138425 0.0
-0.756458 -0.011150 0.0