# vtk DataFile Version 3.0
Vector Field
ASCII
DATASET RECTILINEAR_GRID
DIMENSIONS 50 50 1
X_COORDINATES 50 double
0.100000 0.300000 0.500000 0.700000 0.900000 1.100000 1.300000 1.500000 1.700000 1.900000 2.100000 2.300000 2.500000 2.700000 2.900000 3.100000 3.300000 3.500000 3.700000 3.900000 4.100000 4.300000 4.500000 4.700000 4.900000 5.100000 5.300000 5.500000 5.700000 5.900000 6.100000 6.300000 6.500000 6.700000 6.900000 7.100000 7.300000 7.500000 7.700000 7.900000 8.100000 8.300000 8.500000 8.700000 8.900000 9.100000 9.300000 9.500000 9.700000 9.900000 
Y_COORDINATES 50 double
0.100000 0.300000 0.500000 0.700000 0.900000 1.100000 1.300000 1.500000 1.700000 1.900000 2.100000 2.300000 2.500000 2.700000 2.900000 3.100000 3.300000 3.500000 3.700000 3.900000 4.100000 4.300000 4.500000 4.700000 4.900000 5.100000 5.300000 5.500000 5.700000 5.900000 6.100000 6.300000 6.500000 6.700000 6.900000 7.100000 7.300000 7.500000 7.700000 7.900000 8.100000 8.300000 8.500000 8.700000 8.900000 9.100000 9.300000 9.500000 9.700000 9.900000 
Z_COORDINATES 1 double
0.0
POINT_DATA 2500
VECTORS Vektorfeld double
0.000017 -0.000017 0.0
0.000042 -0.000008 0.0
0.000031 0.000019 0.0
-0.000036 0.000049 0.0
-0.000162 0.000077 0.0
-0.000339 0.000101 0.0
-0.000559 0.000120 0.0
-0.000814 0.000135 0.0
-0.001094 0.000146 0.0
-0.001393 0.000153 0.0
-0.001703 0.000157 0.0
-0.002018 0.000158 0.0
-0.002334 0.000158 0.0
-0.002646 0.000154 0.0
-0.002950 0.000150 0.0
-0.003243 0.000143 0.0
-0.003522 0.000135 0.0
-0.003783 0.000126 0.0
-0.004023 0.000115 0.0
-0.004241 0.000103 0.0
-0.004434 0.000090 0.0
-0.004599 0.000075 0.0
-0.004734 0.000060 0.0
-0.004837 0.000043 0.0
-0.004905 0.000025 0.0
-0.004936 0.000006 0.0
-0.004930 -0.000013 0.0
-0.004884 -0.000033 0.0
-0.004798 -0.000053 0.0
-0.004672 -0.000073 0.0
-0.004506 -0.000093 0.0
-0.004301 -0.000112 0.0
-0.004061 -0.000129 0.0
-0.003786 -0.000145 0.0
-0.003482 -0.000159 0.0
-0.003153 -0.000170 0.0
-0.002805 -0.000178 0.0
-0.002445 -0.000183 0.0
-0.002079 -0.000183 0.0
-0.001716 -0.000180 0.0
-0.001364 -0.000172 0.0
-0.001033 -0.000159 0.0
-0.000731 -0.000143 0.0
-0.000467 -0.000121 0.0
-0.000249 -0.000096 0.0
-0.000086 -0.000068 0.0
0.000019 -0.000037 0.0
0.000063 -0.000007 0.0
0.000054 0.000016 0.0
0.000019 0.000019 0.0
0.000008 -0.000043 0.0
-0.000013 0.000014 0.0
-0.000132 0.000127 0.0
-0.000380 0.000255 0.0
-0.000759 0.000375 0.0
-0.001260 0.000481 0.0
-0.001867 0.000567 0.0
-0.002560 0.000635 0.0
-0.003320 0.000685 0.0
-0.004127 0.000719 0.0
-0.004965 0.000739 0.0
-0.005818 0.000746 0.0
-0.006673 0.000741 0.0
-0.007517 0.000727 0.0
-0.008341 0.000704 0.0
-0.009133 0.000674 0.0
-0.009886 0.000636 0.0
-0.010590 0.000591 0.0
-0.011239 0.000540 0.0
-0.011826 0.000483 0.0
-0.012342 0.000419 0.0
-0.012782 0.000351 0.0
-0.013139 0.000277 0.0
-0.013408 0.000197 0.0
-0.013583 0.000114 0.0
-0.013660 0.000026 0.0
-0.013634 -0.000065 0.0
-0.013503 -0.000158 0.0
-0.013265 -0.000252 0.0
-0.012920 -0.000345 0.0
-0.012471 -0.000436 0.0
-0.011919 -0.000524 0.0
-0.011272 -0.000605 0.0
-0.010538 -0.000678 0.0
-0.009726 -0.000742 0.0
-0.008849 -0.000793 0.0
-0.007923 -0.000830 0.0
-0.006964 -0.000850 0.0
-0.005991 -0.000854 0.0
-0.005025 -0.000838 0.0
-0.004088 -0.000802 0.0
-0.003201 -0.000747 0.0
-0.002387 -0.000671 0.0
-0.001668 -0.000576 0.0
-0.001062 -0.000465 0.0
-0.000585 -0.000339 0.0
-0.000249 -0.000207 0.0
-0.000051 -0.000079 0.0
0.000023 0.000022 0.0
0.000016 0.000054 0.0
-0.000018 -0.000032 0.0
-0.000127 0.000133 0.0
-0.000398 0.000397 0.0
-0.000852 0.000687 0.0
-0.001491 0.000962 0.0
-0.002302 0.001206 0.0
-0.003262 0.001409 0.0
-0.004345 0.001570 0.0
-0.005524 0.001689 0.0
-0.006774 0.001771 0.0
-0.008068 0.001819 0.0
-0.009386 0.001836 0.0
-0.010705 0.001825 0.0
-0.012008 0.001791 0.0
-0.013278 0.001734 0.0
-0.014499 0.001658 0.0
-0.015659 0.001563 0.0
-0.016743 0.001452 0.0
-0.017740 0.001325 0.0
-0.018639 0.001183 0.0
-0.019429 0.001026 0.0
-0.020100 0.000855 0.0
-0.020642 0.000672 0.0
-0.021048 0.000477 0.0
-0.021309 0.000270 0.0
-0.021418 0.000055 0.0
-0.021370 -0.000168 0.0
-0.021161 -0.000395 0.0
-0.020789 -0.000624 0.0
-0.020254 -0.000852 0.0
-0.019560 -0.001074 0.0
-0.018712 -0.001285 0.0
-0.017720 -0.001483 0.0
-0.016595 -0.001660 0.0
-0.015354 -0.001813 0.0
-0.014015 -0.001937 0.0
-0.012601 -0.002026 0.0
-0.011137 -0.002077 0.0
-0.009652 -0.002085 0.0
-0.008175 -0.002049 0.0
-0.006739 -0.001965 0.0
-0.005375 -0.001834 0.0
-0.004116 -0.001657 0.0
-0.002992 -0.001435 0.0
-0.002029 -0.001175 0.0
-0.001250 -0.000885 0.0
-0.000666 -0.000581 0.0
-0.000279 -0.000288 0.0
-0.000073 -0.000049 0.0
-0.000006 0.000065 0.0
-0.000049 0.000035 0.0
-0.000259 0.000384 0.0
-0.000697 0.000856 0.0
-0.001371 0.001357 0.0
-0.002273 0.001833 0.0
-0.003381 0.002255 0.0
-0.004670 0.002609 0.0
-0.006110 0.002892 0.0
-0.007666 0.003104 0.0
-0.009308 0.003249 0.0
-0.011006 0.003334 0.0
-0.012730 0.003363 0.0
-0.014455 0.003343 0.0
-0.016157 0.003278 0.0
-0.017815 0.003174 0.0
-0.019408 0.003033 0.0
-0.020919 0.002858 0.0
-0.022330 0.002653 0.0
-0.023627 0.002418 0.0
-0.024795 0.002156 0.0
-0.025819 0.001867 0.0
-0.026687 0.001554 0.0
-0.027387 0.001217 0.0
-0.027908 0.000858 0.0
-0.028239 0.000481 0.0
-0.028373 0.000087 0.0
-0.028303 -0.000319 0.0
-0.028024 -0.000732 0.0
-0.027534 -0.001149 0.0
-0.026834 -0.001562 0.0
-0.025929 -0.001963 0.0
-0.024825 -0.002347 0.0
-0.023536 -0.002703 0.0
-0.022076 -0.003024 0.0
-0.020466 -0.003301 0.0
-0.018730 -0.003524 0.0
-0.016897 -0.003686 0.0
-0.014999 -0.003779 0.0
-0.013071 -0.003796 0.0
-0.011151 -0.003734 0.0
-0.009280 -0.003588 0.0
-0.007495 -0.003359 0.0
-0.005838 -0.003048 0.0
-0.004346 -0.002661 0.0
-0.003049 -0.002208 0.0
-0.001975 -0.001705 0.0
-0.001141 -0.001179 0.0
-0.000549 -0.000669 0.0
-0.000189 -0.000235 0.0
-0.000032 0.000027 0.0
-0.000079 0.000164 0.0
-0.000389 0.000776 0.0
-0.000999 0.001512 0.0
-0.001893 0.002269 0.0
-0.003052 0.002981 0.0
-0.004448 0.003611 0.0
-0.006048 0.004142 0.0
-0.007818 0.004567 0.0
-0.009719 0.004886 0.0
-0.011717 0.005106 0.0
-0.013775 0.005233 0.0
-0.015862 0.005275 0.0
-0.017946 0.005241 0.0
-0.020001 0.005137 0.0
-0.021999 0.004971 0.0
-0.023919 0.004748 0.0
-0.025738 0.004473 0.0
-0.027436 0.004148 0.0
-0.028995 0.003778 0.0
-0.030397 0.003365 0.0
-0.031626 0.002911 0.0
-0.032666 0.002418 0.0
-0.033502 0.001889 0.0
-0.034123 0.001327 0.0
-0.034516 0.000736 0.0
-0.034672 0.000121 0.0
-0.034582 -0.000512 0.0
-0.034242 -0.001157 0.0
-0.033650 -0.001806 0.0
-0.032807 -0.002448 0.0
-0.031718 -0.003072 0.0
-0.030392 -0.003667 0.0
-0.028843 -0.004221 0.0
-0.027091 -0.004719 0.0
-0.025159 -0.005148 0.0
-0.023076 -0.005496 0.0
-0.020875 -0.005749 0.0
-0.018593 -0.005896 0.0
-0.016273 -0.005927 0.0
-0.013959 -0.005837 0.0
-0.011696 -0.005620 0.0
-0.009531 -0.005276 0.0
-0.007509 -0.004809 0.0
-0.005674 -0.004228 0.0
-0.004061 -0.003549 0.0
-0.002703 -0.002796 0.0
-0.001620 -0.002006 0.0
-0.000822 -0.001231 0.0
-0.000306 -0.000548 0.0
-0.000059 -0.000064 0.0
-0.000107 0.000349 0.0
-0.000512 0.001306 0.0
-0.001286 0.002365 0.0
-0.002394 0.003418 0.0
-0.003802 0.004398 0.0
-0.005474 0.005262 0.0
-0.007370 0.005988 0.0
-0.009449 0.006570 0.0
-0.011670 0.007007 0.0
-0.013994 0.007307 0.0
-0.016381 0.007478 0.0
-0.018795 0.007531 0.0
-0.021203 0.007477 0.0
-0.023574 0.007325 0.0
-0.025878 0.007086 0.0
-0.028089 0.006765 0.0
-0.030183 0.006369 0.0
-0.032137 0.005904 0.0
-0.033929 0.005374 0.0
-0.035541 0.004782 0.0
-0.036952 0.004133 0.0
-0.038146 0.003429 0.0
-0.039106 0.002675 0.0
-0.039818 0.001874 0.0
-0.040269 0.001033 0.0
-0.040447 0.000158 0.0
-0.040343 -0.000742 0.0
-0.039953 -0.001658 0.0
-0.039274 -0.002577 0.0
-0.038306 -0.003487 0.0
-0.037057 -0.004372 0.0
-0.035535 -0.005215 0.0
-0.033758 -0.005999 0.0
-0.031747 -0.006705 0.0
-0.029528 -0.007314 0.0
-0.027133 -0.007808 0.0
-0.024600 -0.008170 0.0
-0.021972 -0.008384 0.0
-0.019295 -0.008436 0.0
-0.016618 -0.008319 0.0
-0.013994 -0.008025 0.0
-0.011475 -0.007556 0.0
-0.009111 -0.006916 0.0
-0.006950 -0.006118 0.0
-0.005035 -0.005186 0.0
-0.003402 -0.004151 0.0
-0.002078 -0.003059 0.0
-0.001080 -0.001975 0.0
-0.000415 -0.000985 0.0
-0.000083 -0.000207 0.0
-0.000132 0.000588 0.0
-0.000625 0.001967 0.0
-0.001554 0.003405 0.0
-0.002865 0.004797 0.0
-0.004511 0.006074 0.0
-0.006446 0.007192 0.0
-0.008622 0.008130 0.0
-0.010994 0.008879 0.0
-0.013515 0.009441 0.0
-0.016142 0.009824 0.0
-0.018834 0.010039 0.0
-0.021550 0.010100 0.0
-0.024254 0.010020 0.0
-0.026913 0.009812 0.0
-0.029495 0.009486 0.0
-0.031971 0.009052 0.0
-0.034316 0.008519 0.0
-0.036502 0.007894 0.0
-0.038508 0.007182 0.0
-0.040312 0.006389 0.0
-0.041892 0.005518 0.0
-0.043229 0.004575 0.0
-0.044306 0.003566 0.0
-0.045106 0.002495 0.0
-0.045614 0.001371 0.0
-0.045819 0.000203 0.0
-0.045710 -0.000999 0.0
-0.045282 -0.002220 0.0
-0.044530 -0.003446 0.0
-0.043456 -0.004659 0.0
-0.042067 -0.005839 0.0
-0.040373 -0.006963 0.0
-0.038392 -0.008009 0.0
-0.036146 -0.008952 0.0
-0.033665 -0.009767 0.0
-0.030985 -0.010431 0.0
-0.028145 -0.010920 0.0
-0.025194 -0.011214 0.0
-0.022181 -0.011296 0.0
-0.019163 -0.011154 0.0
-0.016196 -0.010781 0.0
-0.013337 -0.010178 0.0
-0.010644 -0.009351 0.0
-0.008169 -0.008318 0.0
-0.005962 -0.007108 0.0
-0.004063 -0.005760 0.0
-0.002507 -0.004330 0.0
-0.001318 -0.002891 0.0
-0.000513 -0.001539 0.0
-0.000104 -0.000394 0.0
-0.000154 0.000873 0.0
-0.000729 0.002750 0.0
-0.001801 0.004623 0.0
-0.003304 0.006394 0.0
-0.005177 0.007996 0.0
-0.007362 0.009390 0.0
-0.009805 0.010552 0.0
-0.012454 0.011477 0.0
-0.015259 0.012168 0.0
-0.018172 0.012636 0.0
-0.021148 0.012894 0.0
-0.024146 0.012959 0.0
-0.027126 0.012846 0.0
-0.030054 0.012571 0.0
-0.032894 0.012148 0.0
-0.035617 0.011589 0.0
-0.038194 0.010904 0.0
-0.040598 0.010101 0.0
-0.042805 0.009188 0.0
-0.044790 0.008171 0.0
-0.046531 0.007057 0.0
-0.048007 0.005851 0.0
-0.049200 0.004559 0.0
-0.050090 0.003191 0.0
-0.050661 0.001755 0.0
-0.050901 0.000263 0.0
-0.050798 -0.001271 0.0
-0.050344 -0.002830 0.0
-0.049536 -0.004396 0.0
-0.048373 -0.005945 0.0
-0.046863 -0.007452 0.0
-0.045016 -0.008890 0.0
-0.042851 -0.010229 0.0
-0.040390 -0.011438 0.0
-0.037666 -0.012486 0.0
-0.034717 -0.013342 0.0
-0.031586 -0.013978 0.0
-0.028325 -0.014368 0.0
-0.024990 -0.014490 0.0
-0.021639 -0.014329 0.0
-0.018336 -0.013877 0.0
-0.015144 -0.013133 0.0
-0.012126 -0.012107 0.0
-0.009342 -0.010821 0.0
-0.006847 -0.009308 0.0
-0.004688 -0.007617 0.0
-0.002908 -0.005810 0.0
-0.001537 -0.003970 0.0
-0.000601 -0.002199 0.0
-0.000123 -0.000621 0.0
-0.000175 0.001202 0.0
-0.000824 0.003645 0.0
-0.002030 0.006006 0.0
-0.003714 0.008196 0.0
-0.005800 0.010153 0.0
-0.008224 0.011841 0.0
-0.010922 0.013242 0.0
-0.013836 0.014351 0.0
-0.016912 0.015175 0.0
-0.020097 0.015727 0.0
-0.023344 0.016026 0.0
-0.026609 0.016090 0.0
-0.029851 0.015938 0.0
-0.033032 0.015588 0.0
-0.036117 0.015058 0.0
-0.039074 0.014360 0.0
-0.041874 0.013509 0.0
-0.044487 0.012513 0.0
-0.046887 0.011382 0.0
-0.049049 0.010124 0.0
-0.050950 0.008746 0.0
-0.052567 0.007255 0.0
-0.053878 0.005659 0.0
-0.054865 0.003968 0.0
-0.055509 0.002194 0.0
-0.055796 0.000351 0.0
-0.055713 -0.001545 0.0
-0.055249 -0.003473 0.0
-0.054401 -0.005410 0.0
-0.053168 -0.007327 0.0
-0.051555 -0.009194 0.0
-0.049573 -0.010977 0.0
-0.047239 -0.012641 0.0
-0.044579 -0.014146 0.0
-0.041625 -0.015455 0.0
-0.038418 -0.016530 0.0
-0.035004 -0.017335 0.0
-0.031439 -0.017838 0.0
-0.027782 -0.018013 0.0
-0.024100 -0.017840 0.0
-0.020459 -0.017309 0.0
-0.016932 -0.016419 0.0
-0.013587 -0.015183 0.0
-0.010491 -0.013625 0.0
-0.007706 -0.011784 0.0
-0.005289 -0.009716 0.0
-0.003287 -0.007493 0.0
-0.001740 -0.005205 0.0
-0.000682 -0.002959 0.0
-0.000139 -0.000882 0.0
-0.000193 0.001570 0.0
-0.000912 0.004645 0.0
-0.002244 0.007546 0.0
-0.004097 0.010193 0.0
-0.006388 0.012534 0.0
-0.009040 0.014536 0.0
-0.011982 0.016188 0.0
-0.015151 0.017488 0.0
-0.018486 0.018448 0.0
-0.021933 0.019086 0.0
-0.025441 0.019422 0.0
-0.028963 0.019480 0.0
-0.032457 0.019282 0.0
-0.035883 0.018850 0.0
-0.039205 0.018203 0.0
-0.042390 0.017357 0.0
-0.045406 0.016327 0.0
-0.048224 0.015126 0.0
-0.050817 0.013763 0.0
-0.053158 0.012247 0.0
-0.055222 0.010588 0.0
-0.056985 0.008793 0.0
-0.058425 0.006872 0.0
-0.059520 0.004837 0.0
-0.060251 0.002701 0.0
-0.060600 0.000480 0.0
-0.060553 -0.001805 0.0
-0.060099 -0.004131 0.0
-0.059231 -0.006468 0.0
-0.057946 -0.008786 0.0
-0.056248 -0.011046 0.0
-0.054147 -0.013209 0.0
-0.051660 -0.015230 0.0
-0.048813 -0.017064 0.0
-0.045639 -0.018665 0.0
-0.042179 -0.019987 0.0
-0.038484 -0.020986 0.0
-0.034613 -0.021623 0.0
-0.030631 -0.021866 0.0
-0.026608 -0.021691 0.0
-0.022621 -0.021085 0.0
-0.018746 -0.020045 0.0
-0.015063 -0.018586 0.0
-0.011645 -0.016736 0.0
-0.008563 -0.014539 0.0
-0.005882 -0.012060 0.0
-0.003657 -0.009377 0.0
-0.001936 -0.006589 0.0
-0.000758 -0.003812 0.0
-0.000154 -0.001176 0.0
-0.000211 0.001974 0.0
-0.000994 0.005742 0.0
-0.002445 0.009232 0.0
-0.004460 0.012376 0.0
-0.006946 0.015128 0.0
-0.009817 0.017465 0.0
-0.012996 0.019380 0.0
-0.016411 0.020880 0.0
-0.019999 0.021980 0.0
-0.023700 0.022703 0.0
-0.027462 0.023075 0.0
-0.031234 0.023123 0.0
-0.034974 0.022873 0.0
-0.038640 0.022351 0.0
-0.042195 0.021579 0.0
-0.045605 0.020576 0.0
-0.048838 0.019358 0.0
-0.051863 0.017939 0.0
-0.054652 0.016331 0.0
-0.057178 0.014545 0.0
-0.059414 0.012590 0.0
-0.061335 0.010475 0.0
-0.062916 0.008211 0.0
-0.064135 0.005812 0.0
-0.064970 0.003292 0.0
-0.065401 0.000670 0.0
-0.065412 -0.002031 0.0
-0.064988 -0.004782 0.0
-0.064121 -0.007552 0.0
-0.062805 -0.010303 0.0
-0.061043 -0.012990 0.0
-0.058841 -0.015567 0.0
-0.056216 -0.017983 0.0
-0.053192 -0.020182 0.0
-0.049804 -0.022110 0.0
-0.046094 -0.023711 0.0
-0.042116 -0.024934 0.0
-0.037931 -0.025731 0.0
-0.033611 -0.026061 0.0
-0.029234 -0.025897 0.0
-0.024881 -0.025219 0.0
-0.020641 -0.024026 0.0
-0.016598 -0.022331 0.0
-0.012840 -0.020167 0.0
-0.009445 -0.017584 0.0
-0.006487 -0.014654 0.0
-0.004031 -0.011464 0.0
-0.002131 -0.008123 0.0
-0.000832 -0.004755 0.0
-0.000169 -0.001499 0.0
-0.000227 0.002413 0.0
-0.001072 0.006931 0.0
-0.002637 0.011058 0.0
-0.004808 0.014736 0.0
-0.007482 0.017928 0.0
-0.010566 0.020620 0.0
-0.013974 0.022812 0.0
-0.017630 0.024519 0.0
-0.021465 0.025763 0.0
-0.025417 0.026572 0.0
-0.029428 0.026978 0.0
-0.033448 0.027012 0.0
-0.037431 0.026707 0.0
-0.041336 0.026089 0.0
-0.045124 0.025185 0.0
-0.048761 0.024016 0.0
-0.052214 0.022602 0.0
-0.055451 0.020957 0.0
-0.058444 0.019095 0.0
-0.061165 0.017027 0.0
-0.063585 0.014764 0.0
-0.065679 0.012315 0.0
-0.067420 0.009693 0.0
-0.068783 0.006912 0.0
-0.069744 0.003988 0.0
-0.070281 0.000942 0.0
-0.070374 -0.002199 0.0
-0.070006 -0.005405 0.0
-0.069165 -0.008638 0.0
-0.067843 -0.011855 0.0
-0.066037 -0.015006 0.0
-0.063753 -0.018037 0.0
-0.061005 -0.020886 0.0
-0.057816 -0.023491 0.0
-0.054220 -0.025786 0.0
-0.050260 -0.027705 0.0
-0.045992 -0.029186 0.0
-0.041483 -0.030172 0.0
-0.036808 -0.030615 0.0
-0.032053 -0.030476 0.0
-0.027309 -0.029735 0.0
-0.022674 -0.028386 0.0
-0.018245 -0.026443 0.0
-0.014118 -0.023941 0.0
-0.010384 -0.020938 0.0
-0.007129 -0.017513 0.0
-0.004425 -0.013764 0.0
-0.002336 -0.009812 0.0
-0.000909 -0.005792 0.0
-0.000184 -0.001852 0.0
-0.000243 0.002883 0.0
-0.001148 0.008209 0.0
-0.002822 0.013020 0.0
-0.005145 0.017268 0.0
-0.008003 0.020928 0.0
-0.011295 0.023995 0.0
-0.014929 0.026479 0.0
-0.018823 0.028402 0.0
-0.022902 0.029794 0.0
-0.027101 0.030691 0.0
-0.031360 0.031129 0.0
-0.035627 0.031148 0.0
-0.039854 0.030782 0.0
-0.044000 0.030064 0.0
-0.048024 0.029023 0.0
-0.051893 0.027684 0.0
-0.055572 0.026067 0.0
-0.059031 0.024189 0.0
-0.062239 0.022065 0.0
-0.065169 0.019707 0.0
-0.067790 0.017126 0.0
-0.070076 0.014332 0.0
-0.071997 0.011339 0.0
-0.073528 0.008160 0.0
-0.074642 0.004814 0.0
-0.075312 0.001324 0.0
-0.075517 -0.002283 0.0
-0.075235 -0.005971 0.0
-0.074449 -0.009699 0.0
-0.073147 -0.013418 0.0
-0.071324 -0.017072 0.0
-0.068981 -0.020598 0.0
-0.066128 -0.023926 0.0
-0.062786 -0.026982 0.0
-0.058987 -0.029690 0.0
-0.054777 -0.031972 0.0
-0.050211 -0.033753 0.0
-0.045361 -0.034965 0.0
-0.040309 -0.035549 0.0
-0.035147 -0.035458 0.0
-0.029979 -0.034665 0.0
-0.024912 -0.033159 0.0
-0.020057 -0.030955 0.0
-0.015524 -0.028090 0.0
-0.011417 -0.024630 0.0
-0.007833 -0.020661 0.0
-0.004856 -0.016296 0.0
-0.002558 -0.011668 0.0
-0.000993 -0.006927 0.0
-0.000200 -0.002235 0.0
-0.000259 0.003386 0.0
-0.001222 0.009573 0.0
-0.003005 0.015113 0.0
-0.005476 0.019969 0.0
-0.008516 0.024125 0.0
-0.012014 0.027589 0.0
-0.015872 0.030378 0.0
-0.020002 0.032527 0.0
-0.024325 0.034072 0.0
-0.028771 0.035058 0.0
-0.033279 0.035529 0.0
-0.037794 0.035530 0.0
-0.042268 0.035101 0.0
-0.046658 0.034280 0.0
-0.050924 0.033098 0.0
-0.055032 0.031584 0.0
-0.058947 0.029761 0.0
-0.062639 0.027646 0.0
-0.066077 0.025255 0.0
-0.069231 0.022601 0.0
-0.072073 0.019695 0.0
-0.074573 0.016548 0.0
-0.076701 0.013172 0.0
-0.078428 0.009583 0.0
-0.079724 0.005799 0.0
-0.080560 0.001845 0.0
-0.080910 -0.002250 0.0
-0.080747 -0.006448 0.0
-0.080050 -0.010704 0.0
-0.078802 -0.014963 0.0
-0.076992 -0.019162 0.0
-0.074615 -0.023229 0.0
-0.071679 -0.027085 0.0
-0.068199 -0.030645 0.0
-0.064207 -0.033818 0.0
-0.059745 -0.036515 0.0
-0.054873 -0.038647 0.0
-0.049664 -0.040130 0.0
-0.044208 -0.040893 0.0
-0.038606 -0.040878 0.0
-0.032972 -0.040047 0.0
-0.027427 -0.038388 0.0
-0.022097 -0.035910 0.0
-0.017109 -0.032657 0.0
-0.012582 -0.028697 0.0
-0.008627 -0.024132 0.0
-0.005343 -0.019086 0.0
-0.002810 -0.013709 0.0
-0.001088 -0.008171 0.0
-0.000218 -0.002654 0.0
-0.000275 0.003920 0.0
-0.001296 0.011023 0.0
-0.003186 0.017337 0.0
-0.005807 0.022836 0.0
-0.009028 0.027518 0.0
-0.012732 0.031398 0.0
-0.016814 0.034509 0.0
-0.021180 0.036892 0.0
-0.025748 0.038597 0.0
-0.030443 0.039675 0.0
-0.035202 0.040180 0.0
-0.039969 0.040162 0.0
-0.044694 0.039668 0.0
-0.049333 0.038742 0.0
-0.053849 0.037418 0.0
-0.058204 0.035727 0.0
-0.062366 0.033695 0.0
-0.066304 0.031341 0.0
-0.069988 0.028682 0.0
-0.073388 0.025729 0.0
-0.076473 0.022494 0.0
-0.079212 0.018988 0.0
-0.081575 0.015223 0.0
-0.083529 0.011213 0.0
-0.085041 0.006978 0.0
-0.086080 0.002541 0.0
-0.086612 -0.002065 0.0
-0.086607 -0.006801 0.0
-0.086039 -0.011617 0.0
-0.084882 -0.016454 0.0
-0.083120 -0.021243 0.0
-0.080742 -0.025902 0.0
-0.077748 -0.030342 0.0
-0.074151 -0.034464 0.0
-0.069976 -0.038166 0.0
-0.065266 -0.041340 0.0
-0.060079 -0.043881 0.0
-0.054493 -0.045690 0.0
-0.048603 -0.046679 0.0
-0.042520 -0.046776 0.0
-0.036372 -0.045932 0.0
-0.030294 -0.044125 0.0
-0.024431 -0.041365 0.0
-0.018927 -0.037695 0.0
-0.013922 -0.033192 0.0
-0.009544 -0.027969 0.0
-0.005906 -0.022170 0.0
-0.003102 -0.015963 0.0
-0.001199 -0.009542 0.0
-0.000240 -0.003112 0.0
-0.000290 0.004485 0.0
-0.001370 0.012558 0.0
-0.003370 0.019692 0.0
-0.006140 0.025872 0.0
-0.009544 0.031107 0.0
-0.013456 0.035426 0.0
-0.017764 0.038872 0.0
-0.022369 0.041500 0.0
-0.027184 0.043370 0.0
-0.032131 0.044544 0.0
-0.037145 0.045083 0.0
-0.042167 0.045047 0.0
-0.047149 0.044489 0.0
-0.052045 0.043457 0.0
-0.056817 0.041990 0.0
-0.061431 0.040123 0.0
-0.065852 0.037883 0.0
-0.070052 0.035291 0.0
-0.073999 0.032363 0.0
-0.077663 0.029112 0.0
-0.081015 0.025548 0.0
-0.084022 0.021681 0.0
-0.086650 0.017522 0.0
-0.088865 0.013084 0.0
-0.090632 0.008386 0.0
-0.091912 0.003452 0.0
-0.092670 -0.001686 0.0
-0.092868 -0.006986 0.0
-0.092471 -0.012396 0.0
-0.091450 -0.017853 0.0
-0.089778 -0.023279 0.0
-0.087437 -0.028585 0.0
-0.084419 -0.033670 0.0
-0.080730 -0.038423 0.0
-0.076389 -0.042723 0.0
-0.071436 -0.046447 0.0
-0.065929 -0.049469 0.0
-0.059947 -0.051670 0.0
-0.053593 -0.052944 0.0
-0.046987 -0.053199 0.0
-0.040270 -0.052374 0.0
-0.033596 -0.050434 0.0
-0.027130 -0.047385 0.0
-0.021039 -0.043271 0.0
-0.015484 -0.038177 0.0
-0.010616 -0.032230 0.0
-0.006568 -0.025595 0.0
-0.003446 -0.018464 0.0
-0.001330 -0.011060 0.0
-0.000266 -0.003617 0.0
-0.000307 0.005082 0.0
-0.001446 0.014181 0.0
-0.003557 0.022180 0.0
-0.006480 0.029078 0.0
-0.010069 0.034894 0.0
-0.014192 0.039673 0.0
-0.018731 0.043471 0.0
-0.023578 0.046354 0.0
-0.028644 0.048396 0.0
-0.033848 0.049669 0.0
-0.039121 0.050245 0.0
-0.044404 0.050192 0.0
-0.049648 0.049570 0.0
-0.054808 0.048432 0.0
-0.059845 0.046824 0.0
-0.064727 0.044783 0.0
-0.069420 0.042338 0.0
-0.073896 0.039511 0.0
-0.078124 0.036318 0.0
-0.082075 0.032772 0.0
-0.085718 0.028882 0.0
-0.089020 0.024655 0.0
-0.091946 0.020102 0.0
-0.094459 0.015232 0.0
-0.096520 0.010064 0.0
-0.098086 0.004620 0.0
-0.099115 -0.001067 0.0
-0.099564 -0.006957 0.0
-0.099391 -0.012995 0.0
-0.098555 -0.019112 0.0
-0.097022 -0.025225 0.0
-0.094763 -0.031238 0.0
-0.091762 -0.037036 0.0
-0.088013 -0.042494 0.0
-0.083531 -0.047474 0.0
-0.078348 -0.051832 0.0
-0.072519 -0.055419 0.0
-0.066127 -0.058094 0.0
-0.059277 -0.059725 0.0
-0.052102 -0.060200 0.0
-0.044757 -0.059436 0.0
-0.037416 -0.057386 0.0
-0.030268 -0.054047 0.0
-0.023505 -0.049463 0.0
-0.017317 -0.043728 0.0
-0.011880 -0.036984 0.0
-0.007351 -0.029419 0.0
-0.003856 -0.021257 0.0
-0.001487 -0.012753 0.0
-0.000297 -0.004180 0.0
-0.000323 0.005711 0.0
-0.001525 0.015892 0.0
-0.003749 0.024804 0.0
-0.006829 0.032457 0.0
-0.010609 0.038885 0.0
-0.014949 0.044145 0.0
-0.019721 0.048310 0.0
-0.024817 0.051459 0.0
-0.030138 0.053679 0.0
-0.035603 0.055055 0.0
-0.041140 0.055670 0.0
-0.046689 0.055601 0.0
-0.052201 0.054916 0.0
-0.057631 0.053676 0.0
-0.062942 0.051930 0.0
-0.068101 0.049719 0.0
-0.073078 0.047073 0.0
-0.077843 0.044017 0.0
-0.082370 0.040567 0.0
-0.086628 0.036733 0.0
-0.090587 0.032523 0.0
-0.094213 0.027942 0.0
-0.097469 0.022997 0.0
-0.100317 0.017697 0.0
-0.102714 0.012056 0.0
-0.104611 0.006093 0.0
-0.105962 -0.000160 0.0
-0.106715 -0.006662 0.0
-0.106820 -0.013359 0.0
-0.106226 -0.020178 0.0
-0.104887 -0.027031 0.0
-0.102764 -0.033813 0.0
-0.099827 -0.040399 0.0
-0.096062 -0.046646 0.0
-0.091470 -0.052397 0.0
-0.086077 -0.057485 0.0
-0.079934 -0.061737 0.0
-0.073121 -0.064982 0.0
-0.065748 -0.067059 0.0
-0.057959 -0.067830 0.0
-0.049924 -0.067185 0.0
-0.041841 -0.065061 0.0
-0.033922 -0.061439 0.0
-0.026392 -0.056363 0.0
-0.019474 -0.049934 0.0
-0.013376 -0.042312 0.0
-0.008283 -0.033712 0.0
-0.004347 -0.024395 0.0
-0.001676 -0.014655 0.0
-0.000334 -0.004810 0.0
-0.000340 0.006375 0.0
-0.001606 0.017695 0.0
-0.003949 0.027568 0.0
-0.007191 0.036015 0.0
-0.011168 0.043084 0.0
-0.015730 0.048848 0.0
-0.020743 0.053394 0.0
-0.026092 0.056819 0.0
-0.031674 0.059223 0.0
-0.037404 0.060705 0.0
-0.043210 0.061362 0.0
-0.049030 0.061278 0.0
-0.054814 0.060534 0.0
-0.060519 0.059193 0.0
-0.066110 0.057314 0.0
-0.071554 0.054938 0.0
-0.076824 0.052100 0.0
-0.081892 0.048825 0.0
-0.086732 0.045126 0.0
-0.091316 0.041015 0.0
-0.095613 0.036496 0.0
-0.099590 0.031572 0.0
-0.103209 0.026244 0.0
-0.106429 0.020518 0.0
-0.109202 0.014404 0.0
-0.111478 0.007919 0.0
-0.113202 0.001089 0.0
-0.114315 -0.006045 0.0
-0.114757 -0.013430 0.0
-0.114466 -0.020991 0.0
-0.113384 -0.028638 0.0
-0.111458 -0.036255 0.0
-0.108645 -0.043707 0.0
-0.104914 -0.050834 0.0
-0.100256 -0.057459 0.0
-0.094684 -0.063388 0.0
-0.088242 -0.068419 0.0
-0.081007 -0.072349 0.0
-0.073091 -0.074981 0.0
-0.064646 -0.076142 0.0
-0.055860 -0.075694 0.0
-0.046953 -0.073544 0.0
-0.038169 -0.069659 0.0
-0.029768 -0.064075 0.0
-0.022010 -0.056899 0.0
-0.015144 -0.048311 0.0
-0.009391 -0.038558 0.0
-0.004934 -0.027943 0.0
-0.001904 -0.016807 0.0
-0.000380 -0.005524 0.0
-0.000359 0.007074 0.0
-0.001691 0.019594 0.0
-0.004158 0.030478 0.0
-0.007568 0.039758 0.0
-0.011749 0.047498 0.0
-0.016540 0.053787 0.0
-0.021801 0.058729 0.0
-0.027409 0.062439 0.0
-0.033258 0.065033 0.0
-0.039258 0.066626 0.0
-0.045336 0.067325 0.0
-0.051430 0.067229 0.0
-0.057489 0.066426 0.0
-0.063473 0.064990 0.0
-0.069347 0.062982 0.0
-0.075081 0.060449 0.0
-0.080651 0.057429 0.0
-0.086030 0.053944 0.0
-0.091195 0.050012 0.0
-0.096119 0.045638 0.0
-0.100774 0.040825 0.0
-0.105125 0.035571 0.0
-0.109135 0.029874 0.0
-0.112760 0.023733 0.0
-0.115951 0.017154 0.0
-0.118651 0.010146 0.0
-0.120800 0.002734 0.0
-0.122329 -0.005047 0.0
-0.123170 -0.013146 0.0
-0.123248 -0.021488 0.0
-0.122492 -0.029980 0.0
-0.120831 -0.038500 0.0
-0.118208 -0.046900 0.0
-0.114575 -0.055005 0.0
-0.109905 -0.062616 0.0
-0.104198 -0.069510 0.0
-0.097486 -0.075452 0.0
-0.089839 -0.080199 0.0
-0.081370 -0.083515 0.0
-0.072236 -0.085186 0.0
-0.062642 -0.085031 0.0
-0.052831 -0.082925 0.0
-0.043083 -0.078810 0.0
-0.033697 -0.072711 0.0
-0.024980 -0.064738 0.0
-0.017227 -0.055091 0.0
-0.010704 -0.044054 0.0
-0.005633 -0.031976 0.0
-0.002177 -0.019259 0.0
-0.000435 -0.006339 0.0
-0.000378 0.007810 0.0
-0.001781 0.021594 0.0
-0.004376 0.033540 0.0
-0.007964 0.043694 0.0
-0.012356 0.052135 0.0
-0.017385 0.058970 0.0
-0.022901 0.064323 0.0
-0.028775 0.068326 0.0
-0.034895 0.071114 0.0
-0.041169 0.072819 0.0
-0.047521 0.073561 0.0
-0.053889 0.073454 0.0
-0.060224 0.072595 0.0
-0.066486 0.071067 0.0
-0.072643 0.068936 0.0
-0.078669 0.066255 0.0
-0.084539 0.063063 0.0
-0.090234 0.059384 0.0
-0.095730 0.055233 0.0
-0.101004 0.050615 0.0
-0.106029 0.045527 0.0
-0.110772 0.039963 0.0
-0.115196 0.033916 0.0
-0.119257 0.027377 0.0
-0.122900 0.020344 0.0
-0.126067 0.012823 0.0
-0.128689 0.004828 0.0
-0.130691 -0.003609 0.0
-0.131992 -0.012442 0.0
-0.132507 -0.021599 0.0
-0.132147 -0.030985 0.0
-0.130828 -0.040474 0.0
-0.128470 -0.049907 0.0
-0.125008 -0.059093 0.0
-0.120395 -0.067810 0.0
-0.114611 -0.075805 0.0
-0.107674 -0.082805 0.0
-0.099642 -0.088524 0.0
-0.090623 -0.092678 0.0
-0.080780 -0.095000 0.0
-0.070330 -0.095261 0.0
-0.059542 -0.093292 0.0
-0.048731 -0.089001 0.0
-0.038244 -0.082393 0.0
-0.028438 -0.073578 0.0
-0.019666 -0.062776 0.0
-0.012251 -0.050308 0.0
-0.006462 -0.036582 0.0
-0.002503 -0.022068 0.0
-0.000501 -0.007275 0.0
-0.000398 0.008586 0.0
-0.001876 0.023700 0.0
-0.004607 0.036762 0.0
-0.008379 0.047831 0.0
-0.012993 0.057004 0.0
-0.018269 0.064406 0.0
-0.024048 0.070182 0.0
-0.030193 0.074486 0.0
-0.036588 0.077470 0.0
-0.043138 0.079286 0.0
-0.049764 0.080072 0.0
-0.056405 0.079953 0.0
-0.063012 0.079039 0.0
-0.069548 0.077421 0.0
-0.075983 0.075174 0.0
-0.082295 0.072354 0.0
-0.088462 0.069003 0.0
-0.094468 0.065145 0.0
-0.100295 0.060795 0.0
-0.105920 0.055953 0.0
-0.111321 0.050614 0.0
-0.116466 0.044765 0.0
-0.121319 0.038391 0.0
-0.125835 0.031477 0.0
-0.129959 0.024012 0.0
-0.133627 0.015991 0.0
-0.136766 0.007421 0.0
-0.139291 -0.001675 0.0
-0.141112 -0.011255 0.0
-0.142129 -0.021254 0.0
-0.142241 -0.031578 0.0
-0.141342 -0.042098 0.0
-0.139333 -0.052648 0.0
-0.136126 -0.063021 0.0
-0.131651 -0.072971 0.0
-0.125866 -0.082213 0.0
-0.118767 -0.090434 0.0
-0.110396 -0.097299 0.0
-0.100852 -0.102466 0.0
-0.090298 -0.105609 0.0
-0.078960 -0.106439 0.0
-0.067133 -0.104729 0.0
-0.055169 -0.100340 0.0
-0.043462 -0.093249 0.0
-0.032435 -0.083556 0.0
-0.022505 -0.071499 0.0
-0.014062 -0.057443 0.0
-0.007438 -0.041859 0.0
-0.002889 -0.025298 0.0
-0.000580 -0.008356 0.0
-0.000419 0.009403 0.0
-0.001976 0.025917 0.0
-0.004852 0.040152 0.0
-0.008819 0.052180 0.0
-0.013664 0.062114 0.0
-0.019196 0.070103 0.0
-0.025246 0.076314 0.0
-0.031668 0.080921 0.0
-0.038341 0.084103 0.0
-0.045166 0.086028 0.0
-0.052064 0.086854 0.0
-0.058971 0.086720 0.0
-0.065843 0.085750 0.0
-0.072643 0.084045 0.0
-0.079345 0.081687 0.0
-0.085929 0.078737 0.0
-0.092382 0.075239 0.0
-0.098687 0.071220 0.0
-0.104833 0.066691 0.0
-0.110802 0.061651 0.0
-0.116573 0.056087 0.0
-0.122118 0.049982 0.0
-0.127404 0.043312 0.0
-0.132385 0.036052 0.0
-0.137005 0.028181 0.0
-0.141199 0.019683 0.0
-0.144886 0.010555 0.0
-0.147977 0.000807 0.0
-0.150369 -0.009525 0.0
-0.151952 -0.020384 0.0
-0.152607 -0.031682 0.0
-0.152209 -0.043290 0.0
-0.150638 -0.055036 0.0
-0.147780 -0.066699 0.0
-0.143538 -0.078010 0.0
-0.137844 -0.088653 0.0
-0.130667 -0.098270 0.0
-0.122029 -0.106472 0.0
-0.112011 -0.112854 0.0
-0.100769 -0.117018 0.0
-0.088537 -0.118601 0.0
-0.075628 -0.117303 0.0
-0.062431 -0.112927 0.0
-0.049397 -0.105402 0.0
-0.037015 -0.094812 0.0
-0.025781 -0.081407 0.0
-0.016166 -0.065594 0.0
-0.008580 -0.047918 0.0
-0.003344 -0.029023 0.0
-0.000674 -0.009610 0.0
-0.000442 0.010264 0.0
-0.002083 0.028253 0.0
-0.005112 0.043721 0.0
-0.009285 0.056751 0.0
-0.014373 0.067477 0.0
-0.020172 0.076071 0.0
-0.026500 0.082724 0.0
-0.033204 0.087637 0.0
-0.040156 0.091013 0.0
-0.047254 0.093041 0.0
-0.054415 0.093900 0.0
-0.061580 0.093746 0.0
-0.068701 0.092717 0.0
-0.075748 0.090925 0.0
-0.082697 0.088459 0.0
-0.089535 0.085387 0.0
-0.096249 0.081756 0.0
-0.102832 0.077593 0.0
-0.109275 0.072907 0.0
-0.115566 0.067694 0.0
-0.121688 0.061937 0.0
-0.127618 0.055609 0.0
-0.133324 0.048678 0.0
-0.138764 0.041107 0.0
-0.143882 0.032865 0.0
-0.148610 0.023921 0.0
-0.152865 0.014259 0.0
-0.156550 0.003879 0.0
-0.159555 -0.007199 0.0
-0.161756 -0.018926 0.0
-0.163019 -0.031223 0.0
-0.163201 -0.043965 0.0
-0.162158 -0.056976 0.0
-0.159749 -0.070026 0.0
-0.155848 -0.082825 0.0
-0.150356 -0.095025 0.0
-0.143210 -0.106221 0.0
-0.134403 -0.115967 0.0
-0.123993 -0.123786 0.0
-0.112120 -0.129200 0.0
-0.099017 -0.131755 0.0
-0.085012 -0.131063 0.0
-0.070530 -0.126846 0.0
-0.056075 -0.118971 0.0
-0.042212 -0.107488 0.0
-0.029528 -0.092649 0.0
-0.018591 -0.074905 0.0
-0.009904 -0.054880 0.0
-0.003875 -0.033327 0.0
-0.000784 -0.011067 0.0
-0.000467 0.011173 0.0
-0.002198 0.030717 0.0
-0.005391 0.047479 0.0
-0.009782 0.061556 0.0
-0.015126 0.073104 0.0
-0.021202 0.082319 0.0
-0.027817 0.089419 0.0
-0.034806 0.094636 0.0
-0.042036 0.098196 0.0
-0.049399 0.100318 0.0
-0.056814 0.101199 0.0
-0.064218 0.101016 0.0
-0.071568 0.099920 0.0
-0.078837 0.098037 0.0
-0.086005 0.095465 0.0
-0.093064 0.092277 0.0
-0.100007 0.088524 0.0
-0.106832 0.084233 0.0
-0.113535 0.079413 0.0
-0.120111 0.074055 0.0
-0.126549 0.068136 0.0
-0.132831 0.061622 0.0
-0.138928 0.054468 0.0
-0.144801 0.046630 0.0
-0.150398 0.038057 0.0
-0.155650 0.028708 0.0
-0.160473 0.018550 0.0
-0.164765 0.007565 0.0
-0.168406 -0.004239 0.0
-0.171262 -0.016828 0.0
-0.173187 -0.030134 0.0