# vtk DataFile Version 3.0
Scalar Field
ASCII
DATASET RECTILINEAR_GRID
DIMENSIONS 50 50 1
X_COORDINATES 50 double
0.100000 0.300000 0.500000 0.700000 0.900000 1.100000 1.300000 1.500000 1.700000 1.900000 2.100000 2.300000 2.500000 2.700000 2.900000 3.100000 3.300000 3.500000 3.700000 3.900000 4.100000 4.300000 4.500000 4.700000 4.900000 5.100000 5.300000 5.500000 5.700000 5.900000 6.100000 6.300000 6.500000 6.700000 6.900000 7.100000 7.300000 7.500000 7.700000 7.900000 8.100000 8.300000 8.500000 8.700000 8.900000 9.100000 9.300000 9.500000 9.700000 9.900000 
Y_COORDINATES 50 double
0.100000 0.300000 0.500000 0.700000 0.900000 1.100000 1.300000 1.500000 1.700000 1.900000 2.100000 2.300000 2.500000 2.700000 2.900000 3.100000 3.300000 3.500000 3.700000 3.900000 4.100000 4.300000 4.500000 4.700000 4.900000 5.100000 5.300000 5.500000 5.700000 5.900000 6.100000 6.300000 6.500000 6.700000 6.900000 7.100000 7.300000 7.500000 7.700000 7.900000 8.100000 8.300000 8.500000 8.700000 8.900000 9.100000 9.300000 9.500000 9.700000 9.900000 
Z_COORDINATES 1 double
0.0
POINT_DATA 2500
SCALARS Skalarfeld double 1
LOOKUP_TABLE default
-0.008511
-0.008520
-0.008460
-0.008317
-0.008089
-0.007777
-0.007379
-0.006897
-0.006329
-0.005674
-0.004931
-0.004099
-0.003178
-0.002166
-0.001062
0.000134
0.001424
0.002806
0.004282
0.005851
0.007512
0.009263
0.011102
0.013027
0.015033
0.017116
0.019271
0.021489
0.023764
0.026086
0.028443
0.030825
0.033217
0.035604
0.037971
0.040300
0.042574
0.044773
0.046878
0.048870
0.050728
0.052434
0.053970
0.055319
0.056465
0.057396
0.058100
0.058570
0.058808
0.058841
-0.008502
-0.008511
-0.008445
-0.008298
-0.008069
-0.007756
-0.007360
-0.006879
-0.006312
-0.005659
-0.004918
-0.004089
-0.003170
-0.002160
-0.001059
0.000135
0.001422
0.002801
0.004274
0.005840
0.007498
0.009246
0.011083
0.013005
0.015009
0.017090
0.019243
0.021460
0.023734
0.026055
0.028413
0.030795
0.033187
0.035576
0.037946
0.040278
0.042555
0.044757
0.046866
0.048861
0.050724
0.052434
0.053973
0.055325
0.056475
0.057409
0.058116
0.058593
0.058840
0.058872
-0.008566
-0.008582
-0.008516
-0.008368
-0.008139
-0.007828
-0.007433
-0.006954
-0.006389
-0.005739
-0.005001
-0.004174
-0.003259
-0.002252
-0.001154
0.000036
0.001320
0.002697
0.004168
0.005732
0.007388
0.009136
0.010973
0.012897
0.014903
0.016988
0.019146
0.021370
0.023652
0.025983
0.028352
0.030748
0.033156
0.035562
0.037949
0.040301
0.042598
0.044822
0.046953
0.048970
0.050853
0.052584
0.054142
0.055511
0.056676
0.057622
0.058339
0.058822
0.059071
0.059094
-0.008722
-0.008743
-0.008679
-0.008532
-0.008304
-0.007994
-0.007602
-0.007125
-0.006564
-0.005917
-0.005183
-0.004360
-0.003448
-0.002446
-0.001351
-0.000164
0.001117
0.002492
0.003961
0.005524
0.007182
0.008931
0.010772
0.012701
0.014715
0.016809
0.018979
0.021218
0.023517
0.025869
0.028261
0.030683
0.033120
0.035558
0.037980
0.040368
0.042703
0.044966
0.047137
0.049193
0.051114
0.052881
0.054473
0.055872
0.057063
0.058030
0.058764
0.059257
0.059509
0.059526
-0.008974
-0.008998
-0.008935
-0.008791
-0.008565
-0.008258
-0.007868
-0.007395
-0.006838
-0.006195
-0.005465
-0.004647
-0.003740
-0.002742
-0.001651
-0.000467
0.000810
0.002183
0.003652
0.005216
0.006876
0.008630
0.010477
0.012415
0.014442
0.016552
0.018740
0.021002
0.023328
0.025710
0.028138
0.030599
0.033079
0.035564
0.038036
0.040478
0.042869
0.045189
0.047416
0.049529
0.051506
0.053325
0.054966
0.056409
0.057637
0.058635
0.059392
0.059899
0.060157
0.060172
-0.009323
-0.009348
-0.009287
-0.009145
-0.008922
-0.008618
-0.008233
-0.007764
-0.007212
-0.006574
-0.005849
-0.005037
-0.004134
-0.003141
-0.002055
-0.000875
0.000400
0.001771
0.003240
0.004806
0.006469
0.008230
0.010087
0.012038
0.014081
0.016212
0.018426
0.020718
0.023080
0.025504
0.027978
0.030491
0.033029
0.035576
0.038115
0.040627
0.043092
0.045488
0.047791
0.049980
0.052030
0.053919
0.055624
0.057125
0.058403
0.059442
0.060229
0.060756
0.061023
0.061038
-0.009766
-0.009793
-0.009734
-0.009595
-0.009375
-0.009075
-0.008694
-0.008231
-0.007684
-0.007053
-0.006334
-0.005528
-0.004632
-0.003645
-0.002564
-0.001388
-0.000116
0.001253
0.002722
0.004290
0.005959
0.007729
0.009598
0.011565
0.013629
0.015786
0.018032
0.020362
0.022768
0.025243
0.027775
0.030353
0.032963
0.035588
0.038211
0.040813
0.043370
0.045861
0.048261
0.050545
0.052688
0.054665
0.056452
0.058026
0.059367
0.060457
0.061282
0.061835
0.062114
0.062130
-0.010305
-0.010332
-0.010276
-0.010140
-0.009924
-0.009629
-0.009254
-0.008797
-0.008257
-0.007632
-0.006921
-0.006122
-0.005234
-0.004253
-0.003179
-0.002009
-0.000741
0.000627
0.002096
0.003667
0.005342
0.007121
0.009004
0.010990
0.013079
0.015267
0.017550
0.019925
0.022384
0.024920
0.027522
0.030178
0.032874
0.035594
0.038319
0.041028
0.043698
0.046305
0.048823
0.051224
0.053481
0.055566
0.057454
0.059118
0.060536
0.061689
0.062562
0.063146
0.063441
0.063457
-0.010937
-0.010966
-0.010912
-0.010780
-0.010569
-0.010279
-0.009910
-0.009460
-0.008928
-0.008312
-0.007610
-0.006820
-0.005940
-0.004968
-0.003902
-0.002738
-0.001475
-0.000111
0.001357
0.002931
0.004612
0.006401
0.008300
0.010307
0.012423
0.014646
0.016972
0.019399
0.021919
0.024525
0.027208
0.029955
0.032752
0.035583
0.038428
0.041265
0.044070
0.046816
0.049474
0.052016
0.054410
0.056627
0.058635
0.060408
0.061920
0.063149
0.064080
0.064701
0.065014
0.065032
-0.011662
-0.011693
-0.011642
-0.011513
-0.011308
-0.011025
-0.010663
-0.010222
-0.009699
-0.009093
-0.008401
-0.007622
-0.006753
-0.005791
-0.004734
-0.003579
-0.002323
-0.000963
0.000503
0.002078
0.003765
0.005564
0.007478
0.009508
0.011654
0.013914
0.016288
0.018771
0.021359
0.024045
0.026820
0.029671
0.032585
0.035544
0.038528
0.041514
0.044477
0.047386
0.050212
0.052920
0.055478
0.057850
0.060003
0.061906
0.063530
0.064850
0.065849
0.066515
0.066849
0.066868
-0.012478
-0.012512
-0.012464
-0.012340
-0.012141
-0.011865
-0.011513
-0.011081
-0.010569
-0.009975
-0.009296
-0.008529
-0.007673
-0.006723
-0.005678
-0.004533
-0.003286
-0.001933
-0.000471
0.001104
0.002794
0.004602
0.006532
0.008584
0.010761
0.013061
0.015485
0.018030
0.020692
0.023466
0.026343
0.029311
0.032356
0.035461
0.038605
0.041764
0.044909
0.048009
0.051029
0.053934
0.056684
0.059240
0.061565
0.063622
0.065378
0.066806
0.067885
0.068603
0.068963
0.068983
-0.013386
-0.013422
-0.013378
-0.013260
-0.013067
-0.012800
-0.012458
-0.012038
-0.011538
-0.010958
-0.010293
-0.009541
-0.008700
-0.007766
-0.006735
-0.005604
-0.004369
-0.003026
-0.001570
0.000001
0.001693
0.003508
0.005452
0.007525
0.009732
0.012073
0.014550
0.017160
0.019902
0.022771
0.025759
0.028857
0.032049
0.035318
0.038643
0.041998
0.045352
0.048672
0.051920
0.055053
0.058028
0.060802
0.063328
0.065567
0.067480
0.069034
0.070207
0.070986
0.071375
0.071396
-0.014384
-0.014422
-0.014383
-0.014270
-0.014086
-0.013828
-0.013497
-0.013091
-0.012606
-0.012041
-0.011393
-0.010660
-0.009837
-0.008921
-0.007908
-0.006794
-0.005574
-0.004245
-0.002800
-0.001235
0.000455
0.002274
0.004228
0.006321
0.008556
0.010937
0.013467
0.016145
0.018970
0.021940
0.025048
0.028286
0.031640
0.035091
0.038619
0.042196
0.045790
0.049363
0.052872
0.056271
0.059510
0.062538
0.065302
0.067755
0.069851
0.071554
0.072837
0.073686
0.074107
0.074128
-0.015470
-0.015510
-0.015476
-0.015371
-0.015195
-0.014949
-0.014631
-0.014239
-0.013772
-0.013225
-0.012597
-0.011885
-0.011083
-0.010189
-0.009198
-0.008105
-0.006905
-0.005594
-0.004164
-0.002611
-0.000928
0.000890
0.002850
0.004958
0.007219
0.009638
0.012218
0.014964
0.017874
0.020949
0.024185
0.027574
0.031103
0.034755
0.038509
0.042335
0.046200
0.050061
0.053872
0.057580
0.061126
0.064451
0.067495
0.070199
0.072511
0.074388
0.075798
0.076727
0.077184
0.077204
-0.016642
-0.016686
-0.016657
-0.016559
-0.016394
-0.016160
-0.015858
-0.015483
-0.015035
-0.014509
-0.013904
-0.013216
-0.012440
-0.011572
-0.010607
-0.009540
-0.008366
-0.007078
-0.005669
-0.004134
-0.002464
-0.000653
0.001308
0.003425
0.005706
0.008157
0.010786
0.013596
0.016592
0.019774
0.023141
0.026689
0.030407
0.034277
0.038279
0.042383
0.046553
0.050743
0.054900
0.058965
0.062869
0.066543
0.069914
0.072915
0.075481
0.077560
0.079117
0.080137
0.080635
0.080652
-0.017899
-0.017947
-0.017924
-0.017834
-0.017680
-0.017461
-0.017175
-0.016820
-0.016394
-0.015893
-0.015314
-0.014653
-0.013907
-0.013070
-0.012136
-0.011101
-0.009958
-0.008700
-0.007319
-0.005809
-0.004160
-0.002363
-0.000411
0.001708
0.004001
0.006478
0.009148
0.012018
0.015095
0.018383
0.021884
0.025597
0.029513
0.033618
0.037891
0.042302
0.046813
0.051375
0.055929
0.060406
0.064727
0.068810
0.072568
0.075918
0.078782
0.081099
0.082826
0.083950
0.084489
0.084501
-0.019239
-0.019290
-0.019274
-0.019194
-0.019053
-0.018849
-0.018582
-0.018249
-0.017847
-0.017374
-0.016825
-0.016197
-0.015485
-0.014683
-0.013787
-0.012790
-0.011685
-0.010464
-0.009120
-0.007643
-0.006023
-0.004252
-0.002317
-0.000208
0.002087
0.004580
0.007282
0.010203
0.013355
0.016744
0.020377
0.024255
0.028378
0.032731
0.037295
0.042042
0.046933
0.051915
0.056922
0.061875
0.066683
0.071247
0.075461
0.079223
0.082440
0.085036
0.086959
0.088197
0.088780
0.088783
-0.020659
-0.020714
-0.020705
-0.020636
-0.020509
-0.020323
-0.020077
-0.019768
-0.019394
-0.018951
-0.018436
-0.017845
-0.017172
-0.016413
-0.015560
-0.014608
-0.013549
-0.012374
-0.011075
-0.009641
-0.008062
-0.006327
-0.004422
-0.002335
-0.000051
0.002443
0.005163
0.008124
0.011338
0.014819
0.018576
0.022618
0.026949
0.031559
0.036433
0.041544
0.046854
0.052306
0.057828
0.063331
0.068707
0.073837
0.078593
0.082847
0.086482
0.089404
0.091552
0.092916
0.093542
0.093527
-0.022156
-0.022216
-0.022214
-0.022157
-0.022045
-0.021879
-0.021656
-0.021374
-0.021031
-0.020623
-0.020146
-0.019596
-0.018969
-0.018257
-0.017455
-0.016555
-0.015550
-0.014431
-0.013187
-0.011809
-0.010283
-0.008597
-0.006737
-0.004688
-0.002432
0.000047
0.002768
0.005750
0.009010
0.012566
0.016436
0.020631
0.025164
0.030035
0.035232
0.040732
0.046498
0.052473
0.058580
0.064716
0.070756
0.076556
0.081957
0.086800
0.090934
0.094240
0.096646
0.098146
0.098808
0.098765
-0.023728
-0.023793
-0.023800
-0.023755
-0.023660
-0.023514
-0.023317
-0.023065
-0.022756
-0.022386
-0.021952
-0.021449
-0.020872
-0.020214
-0.019470
-0.018631
-0.017690
-0.016636
-0.015460
-0.014149
-0.012691
-0.011071
-0.009273
-0.007279
-0.005071
-0.002628
0.000071
0.003050
0.006332
0.009942
0.013902
0.018234
0.022953
0.028080
0.033604
0.039511
0.045768
0.052319
0.059084
0.065947
0.072763
0.079358
0.085535
0.091087
0.095821
0.099584
0.102284
0.103925
0.104608
0.104518
-0.025371
-0.025441
-0.025457
-0.025426
-0.025349
-0.025226
-0.025057
-0.024837
-0.024566
-0.024238
-0.023851
-0.023400
-0.022879
-0.022282
-0.021603
-0.020835
-0.019967
-0.018990
-0.017894
-0.016665
-0.015290
-0.013753
-0.012036
-0.010120
-0.007984
-0.005604
-0.002954
-0.000006
0.003268
0.006899
0.010919
0.015357
0.020241
0.025601
0.031445
0.037765
0.044538
0.051716
0.059213
0.066907
0.074630
0.082172
0.089284
0.095701
0.101166
0.105473
0.108508
0.110286
0.110963
0.110797
-0.027082
-0.027157
-0.027183
-0.027166
-0.027109
-0.027011
-0.026871
-0.026687
-0.026456
-0.026175
-0.025839
-0.025445
-0.024986
-0.024458
-0.023853
-0.023163
-0.022379
-0.021492
-0.020489
-0.019358
-0.018083
-0.016648
-0.015035
-0.013221
-0.011184
-0.008897
-0.006329
-0.003450
-0.000223
0.003390
0.007427
0.011930
0.016938
0.022489
0.028628
0.035352
0.042653
0.050493
0.058795
0.067430
0.076209
0.084879
0.093129
0.100611
0.106978
0.111945
0.115359
0.117255
0.117874
0.117588
-0.028856
-0.028937
-0.028973
-0.028972
-0.028936
-0.028864
-0.028757
-0.028610
-0.028423
-0.028191
-0.027912
-0.027580
-0.027190
-0.026737
-0.026213
-0.025612
-0.024923
-0.024137
-0.023242
-0.022224
-0.021069
-0.019758
-0.018272
-0.016589
-0.014681
-0.012521
-0.010076
-0.007307
-0.004176
-0.000635
0.003363
0.007872
0.012946
0.018637
0.025009
0.032100
0.039913
0.048432
0.057596
0.067279
0.077276
0.087289
0.096931
0.105741
0.113241
0.119023
0.122868
0.124840
0.125310
0.124830
-0.030690
-0.030777
-0.030824
-0.030839
-0.030825
-0.030781
-0.030708
-0.030602
-0.030461
-0.030283
-0.030064
-0.029799
-0.029484
-0.029113
-0.028679
-0.028176
-0.027593
-0.026921
-0.026148
-0.025262
-0.024245
-0.023081
-0.021749
-0.020224
-0.018482
-0.016488
-0.014209
-0.011604
-0.008625
-0.005220
-0.001332
0.003106
0.008162
0.013910
0.020422
0.027803
0.036073
0.045250
0.055301
0.066120
0.077498
0.089100
0.100446
0.110929
0.119881
0.126700
0.131045
0.133012
0.133179
0.132385
-0.032579
-0.032673
-0.032731
-0.032763
-0.032772
-0.032758
-0.032720
-0.032657
-0.032565
-0.032444
-0.032289
-0.032096
-0.031861
-0.031579
-0.031244
-0.030847
-0.030381
-0.029836
-0.029201
-0.028462
-0.027605
-0.026611
-0.025459
-0.024127
-0.022586
-0.020803
-0.018741
-0.016355
-0.013596
-0.010405
-0.006713
-0.002446
0.002483
0.008168
0.014711
0.022221
0.030837
0.040585
0.051486
0.063479
0.076377
0.089823
0.103245
0.115854
0.126707
0.134892
0.139843
0.141672
0.141280
0.139976
-0.034520
-0.034620
-0.034690
-0.034740
-0.034772
-0.034788
-0.034788
-0.034769
-0.034729
-0.034667
-0.034580
-0.034464
-0.034315
-0.034128
-0.033897
-0.033617
-0.033278
-0.032873
-0.032390
-0.031816
-0.031138
-0.030338
-0.029396
-0.028289
-0.026988
-0.025462
-0.023671
-0.021571
-0.019107
-0.016217
-0.012828
-0.008852
-0.004189
0.001275
0.007669
0.015136
0.023853
0.033990
0.045599
0.058700
0.073172
0.088678
0.104579
0.119879
0.133262
0.143327
0.149083
0.150584
0.149223
0.147090
-0.036506
-0.036614
-0.036696
-0.036764
-0.036820
-0.036868
-0.036905
-0.036932
-0.036946
-0.036946
-0.036930
-0.036894
-0.036835
-0.036748
-0.036630
-0.036474
-0.036272
-0.036018
-0.035701
-0.035310
-0.034831
-0.034248
-0.033544
-0.032695
-0.031676
-0.030454
-0.028992
-0.027245
-0.025161
-0.022673
-0.019705
-0.016163
-0.011938
-0.006898
-0.000888
0.006271
0.014779
0.024930
0.036934
0.050886
0.066798
0.084430
0.103147
0.121769
0.138527
0.151285
0.158262
0.159226
0.156299
0.152838
-0.038535
-0.038650
-0.038745
-0.038830
-0.038911
-0.038990
-0.039066
-0.039139
-0.039208
-0.039272
-0.039329
-0.039376
-0.039411
-0.039430
-0.039430
-0.039405
-0.039350
-0.039257
-0.039119
-0.038925
-0.038664
-0.038322
-0.037882
-0.037325
-0.036626
-0.035756
-0.034682
-0.033362
-0.031743
-0.029765
-0.027350
-0.024406
-0.020819
-0.016448
-0.011123
-0.004636
0.003260
0.012855
0.024624
0.038856
0.055709
0.075159
0.096716
0.119150
0.140267
0.156963
0.166083
0.166509
0.161315
0.155847
-0.040602
-0.040724
-0.040831
-0.040935
-0.041040
-0.041149
-0.041264
-0.041384
-0.041509
-0.041637
-0.041768
-0.041901
-0.042032
-0.042161
-0.042283
-0.042396
-0.042494
-0.042572
-0.042624
-0.042641
-0.042615
-0.042534
-0.042384
-0.042148
-0.041807
-0.041337
-0.040708
-0.039883
-0.038820
-0.037462
-0.035741
-0.033571
-0.030846
-0.027430
-0.023152
-0.017796
-0.011092
-0.002703
0.007781
0.021131
0.037789
0.057977
0.081559
0.107561
0.133702
0.155979
0.169243
0.170240
0.162536
0.154664
-0.042703
-0.042833
-0.042952
-0.043073
-0.043201
-0.043341
-0.043494
-0.043660
-0.043839
-0.044032
-0.044238
-0.044456
-0.044686
-0.044926
-0.045174
-0.045429
-0.045686
-0.045942
-0.046194
-0.046434
-0.046657
-0.046853
-0.047015
-0.047128
-0.047179
-0.047150
-0.047018
-0.046757
-0.046333
-0.045703
-0.044815
-0.043601
-0.041975
-0.039824
-0.037005
-0.033326
-0.028541
-0.022322
-0.014244
-0.003762
0.010320
0.028773
0.051785
0.079131
0.109397
0.138635
0.159796
0.165932
0.158249
0.149763
-0.044834
-0.044974
-0.045104
-0.045240
-0.045390
-0.045559
-0.045748
-0.045958
-0.046191
-0.046447
-0.046727
-0.047031
-0.047359
-0.047712
-0.048087
-0.048486
-0.048906
-0.049346
-0.049803
-0.050274
-0.050757
-0.051246
-0.051736
-0.052220
-0.052690
-0.053137
-0.053548
-0.053908
-0.054198
-0.054396
-0.054470
-0.054384
-0.054089
-0.053520
-0.052592
-0.051192
-0.049166
-0.046302
-0.042305
-0.036771
-0.029142
-0.017758
-0.000875
0.021925
0.052073
0.088111
0.122690
0.144541
0.147615
0.145142
-0.046995
-0.047143
-0.047284
-0.047435
-0.047604
-0.047798
-0.048020
-0.048272
-0.048556
-0.048873
-0.049224
-0.049612
-0.050037
-0.050501
-0.051004
-0.051548
-0.052132
-0.052757
-0.053424
-0.054132
-0.054881
-0.055671
-0.056501
-0.057372
-0.058282
-0.059231
-0.060219
-0.061244
-0.062308
-0.063412
-0.064556
-0.065746
-0.066987
-0.068289
-0.069667
-0.071147
-0.072766
-0.074581
-0.076679
-0.079168
-0.082100
-0.085098
-0.085222
-0.076918
-0.054707
-0.014090
0.039557
0.091467
0.124746
0.138180
-0.049184
-0.049341
-0.049491
-0.049653
-0.049838
-0.050055
-0.050306
-0.050595
-0.050925
-0.051299
-0.051718
-0.052186
-0.052706
-0.053278
-0.053907
-0.054593
-0.055340
-0.056151
-0.057027
-0.057973
-0.058991
-0.060086
-0.061262
-0.062527
-0.063888
-0.065354
-0.066938
-0.068656
-0.070532
-0.072594
-0.074882
-0.077453
-0.080382
-0.083780
-0.087803
-0.092680
-0.098756
-0.106555
-0.116890
-0.130966
-0.150209
-0.175099
-0.202499
-0.221536
-0.215843
-0.174066
-0.099157
-0.008257
0.069966
0.106391
-0.051401
-0.051568
-0.051725
-0.051895
-0.052092
-0.052325
-0.052599
-0.052920
-0.053291
-0.053715
-0.054197
-0.054740
-0.055348
-0.056025
-0.056774
-0.057600
-0.058507
-0.059499
-0.060582
-0.061762
-0.063047
-0.064445
-0.065967
-0.067625
-0.069436
-0.071421
-0.073605
-0.076024
-0.078722
-0.081761
-0.085222
-0.089220
-0.093913
-0.099527
-0.106391
-0.114998
-0.126100
-0.140891
-0.161286
-0.190188
-0.231050
-0.285227
-0.346731
-0.398921
-0.414590
-0.375138
-0.283119
-0.157213
-0.035028
0.025533
-0.053649
-0.053827
-0.053989
-0.054161
-0.054363
-0.054605
-0.054896
-0.055241
-0.055644
-0.056112
-0.056649
-0.057260
-0.057950
-0.058724
-0.059588
-0.060546
-0.061606
-0.062773
-0.064057
-0.065465
-0.067009
-0.068702
-0.070560
-0.072603
-0.074854
-0.077345
-0.080117
-0.083220
-0.086723
-0.090718
-0.095329
-0.100730
-0.107161
-0.114973
-0.124677
-0.137053
-0.153319
-0.175448
-0.206655
-0.251795
-0.316389
-0.402050
-0.498711
-0.581469
-0.616715
-0.581931
-0.481960
-0.336105
-0.184175
-0.104019
-0.055936
-0.056125
-0.056287
-0.056455
-0.056653
-0.056896
-0.057192
-0.057550
-0.057977
-0.058478
-0.059061
-0.059731
-0.060495
-0.061358
-0.062327
-0.063410
-0.064613
-0.065947
-0.067420
-0.069045
-0.070837
-0.072812
-0.074990
-0.077399
-0.080069
-0.083042
-0.086369
-0.090118
-0.094379
-0.099270
-0.104955
-0.111658
-0.119697
-0.129532
-0.141841
-0.157664
-0.178641
-0.207452
-0.248454
-0.308099
-0.393341
-0.505356
-0.630001
-0.735227
-0.783777
-0.754204
-0.656222
-0.509331
-0.347930
-0.257132
-0.058272
-0.058472
-0.058629
-0.058783
-0.058966
-0.059196
-0.059486
-0.059845
-0.060282
-0.060805
-0.061422
-0.062140
-0.062966
-0.063908
-0.064972
-0.066168
-0.067504
-0.068991
-0.070642
-0.072470
-0.074492
-0.076730
-0.079207
-0.081956
-0.085014
-0.088430
-0.092266
-0.096603
-0.101546
-0.107238
-0.113869
-0.121706
-0.131123
-0.142659
-0.157112
-0.175700
-0.200339
-0.234134
-0.282056
-0.351272
-0.449122
-0.576119
-0.715764
-0.832099
-0.886152
-0.860881
-0.772303
-0.640490
-0.489464
-0.398918
-0.060673
-0.060884
-0.061029
-0.061157
-0.061308
-0.061509
-0.061775
-0.062119
-0.062551
-0.063081
-0.063719
-0.064472
-0.065348
-0.066356
-0.067504
-0.068800
-0.070256
-0.071882
-0.073694
-0.075706
-0.077939
-0.080416
-0.083165
-0.086221
-0.089627
-0.093438
-0.097724
-0.102574
-0.108104
-0.114471
-0.121885
-0.130634
-0.141122
-0.153929
-0.169900
-0.190314
-0.217148
-0.253529
-0.304322
-0.376261
-0.475860
-0.603050
-0.741672
-0.856687
-0.909705
-0.888286
-0.813551
-0.706414
-0.580404
-0.500095
-0.063165
-0.063388
-0.063508
-0.063591
-0.063690
-0.063839
-0.064060
-0.064368
-0.064776
-0.065297
-0.065940
-0.066713
-0.067626
-0.068686
-0.069903
-0.071285
-0.072845
-0.074595
-0.076549
-0.078726
-0.081146
-0.083835
-0.086823
-0.090148
-0.093858
-0.098009
-0.102676
-0.107952
-0.113960
-0.120860
-0.128869
-0.138279
-0.149495
-0.163090
-0.179888
-0.201103
-0.228560
-0.265031
-0.314624
-0.382625
-0.473373
-0.586164
-0.707994
-0.809289
-0.857345
-0.842555
-0.783887
-0.703152
-0.609262
-0.546059
-0.065785
-0.066019
-0.066097
-0.066108
-0.066125
-0.066193
-0.066340
-0.066588
-0.066950
-0.067441
-0.068071
-0.068849
-0.069783
-0.070881
-0.072152
-0.073606
-0.075253
-0.077108
-0.079185
-0.081504
-0.084085
-0.086956
-0.090150
-0.093703
-0.097666
-0.102098
-0.107072
-0.112683
-0.119053
-0.126340
-0.134752
-0.144569
-0.156172
-0.170087
-0.187054
-0.208135
-0.234859
-0.269400
-0.314495
-0.373891
-0.450560
-0.542993
-0.639839
-0.717249
-0.750971
-0.737283
-0.693304
-0.642618
-0.581150
-0.537906
-0.068589
-0.068832
-0.068840
-0.068740
-0.068632
-0.068579
-0.068618
-0.068773
-0.069064
-0.069503
-0.070100
-0.070865
-0.071804
-0.072924
-0.074234
-0.075743
-0.077462
-0.079403
-0.081583
-0.084020
-0.086736
-0.089758
-0.093119
-0.096859
-0.101025
-0.105675
-0.110883
-0.116740
-0.123360
-0.130892
-0.139528
-0.149521
-0.161206
-0.175037
-0.191631
-0.211850
-0.236641
-0.267603
-0.306657
-0.355926
-0.416693
-0.486747
-0.556673
-0.608783
-0.627278
-0.612288
-0.578389
-0.546115
-0.512372
-0.487905
-0.071658
-0.071904
-0.071800
-0.071529
-0.071236
-0.071007
-0.070891
-0.070917
-0.071105
-0.071466
-0.072011
-0.072745
-0.073673
-0.074801
-0.076135
-0.077684
-0.079456
-0.081465
-0.083726
-0.086257
-0.089080
-0.092222
-0.095716
-0.099599
-0.103917
-0.108728
-0.114100
-0.120118
-0.126886
-0.134539
-0.143244
-0.153220
-0.164746
-0.178192
-0.194004
-0.212668
-0.235021
-0.261983
-0.294602
-0.333799
-0.379593
-0.429389
-0.475777
-0.506557
-0.512128
-0.494351
-0.465629
-0.442967
-0.425491
-0.412881
-0.075120
-0.075355
-0.075065
-0.074530
-0.073964
-0.073486
-0.073156
-0.073007
-0.073058
-0.073316
-0.073788
-0.074474
-0.075376
-0.076497
-0.077841
-0.079413
-0.081223
-0.083281
-0.085602
-0.088204
-0.091107
-0.094339
-0.097929
-0.101914
-0.106339
-0.111256
-0.116729
-0.122833
-0.129662
-0.137333
-0.145987
-0.155803
-0.167005
-0.179846
-0.194552
-0.211580
-0.231375
-0.254407
-0.281081
-0.311499
-0.344914
-0.378698
-0.407225
-0.422394
-0.418401
-0.397568
-0.370511
-0.351087
-0.336926
-0.325260
-0.079176
-0.079369
-0.078763
-0.077813
-0.076844
-0.076017
-0.075400
-0.075025
-0.074902
-0.075032
-0.075410
-0.076033
-0.076897
-0.077998
-0.079339
-0.080922
-0.082753
-0.084843
-0.087204
-0.089854
-0.092812
-0.096103
-0.099756
-0.103806
-0.108294
-0.113269
-0.118787
-0.124916
-0.131738
-0.139350
-0.147869
-0.157435
-0.168218
-0.180300
-0.193938
-0.209364
-0.226791
-0.246370
-0.268093
-0.291589
-0.315749
-0.338150
-0.354552
-0.359547
-0.349429
-0.326261
-0.298887
-0.277490
-0.252477
-0.226094
-0.084170
-0.084240
-0.083071
-0.081457
-0.079894
-0.078586
-0.077597
-0.076940
-0.076608
-0.076586
-0.076857
-0.077405
-0.078219
-0.079292
-0.080619
-0.082200
-0.084039
-0.086144
-0.088527
-0.091203
-0.094191
-0.097514
-0.101201
-0.105282
-0.109795
-0.114786
-0.120305
-0.126412
-0.133175
-0.140677
-0.149013
-0.158292
-0.168589
-0.179983
-0.192642
-0.206666
-0.222111
-0.238930
-0.256882
-0.275370
-0.293194
-0.308227
-0.317218
-0.316380
-0.303157
-0.278813
-0.249628
-0.217676
-0.164771
-0.096965
-0.090728
-0.090463
-0.088234
-0.085531
-0.083097
-0.081148
-0.079694
-0.078703
-0.078134
-0.077944
-0.078098
-0.078565
-0.079324
-0.080361
-0.081667
-0.083236
-0.085070
-0.087175
-0.089563
-0.092246
-0.095243
-0.098575
-0.102267
-0.106350
-0.110859
-0.115834
-0.121322
-0.127374
-0.134047
-0.141415
-0.149555
-0.158534
-0.168383
-0.179205
-0.191064
-0.203986
-0.217933
-0.232751
-0.248086
-0.263267
-0.277138
-0.287861
-0.292848
-0.289203
-0.275066
-0.250434
-0.216739
-0.159304
-0.038139
0.116407
-0.100138
-0.098912
-0.094543
-0.090032
-0.086356
-0.083600
-0.081597
-0.080231
-0.079405
-0.079042
-0.079076
-0.079460
-0.080161
-0.081157
-0.082437
-0.083986
-0.085802
-0.087895
-0.090273
-0.092948
-0.095936
-0.099259
-0.102939
-0.107005
-0.111489
-0.116430
-0.121873
-0.127863
-0.134435
-0.141666
-0.149614
-0.158331
-0.167860
-0.178253
-0.189537
-0.201696
-0.214643
-0.228172
-0.241888
-0.255116
-0.266777
-0.275258
-0.278369
-0.273593
-0.259062
-0.233316
-0.185310
-0.066741
0.206274
0.536235
-0.115692
-0.111328
-0.102197
-0.094724
-0.089365
-0.085690
-0.083057
-0.081273
-0.080176
-0.079639
-0.079554
-0.079855
-0.080496
-0.081451
-0.082706
-0.084232
-0.086017
-0.088091
-0.090457
-0.093123
-0.096102
-0.099410
-0.103073
-0.107118
-0.111577
-0.116484
-0.121882
-0.127812
-0.134317
-0.141454
-0.149277
-0.157832
-0.167160
-0.177291
-0.188235
-0.199953
-0.212333
-0.225143
-0.237972
-0.250149
-0.260640
-0.267938
-0.269988
-0.264152
-0.247846
-0.213019
-0.119864
0.138129
0.710994
1.414874
-0.146002
-0.129683
-0.110907
-0.098162
-0.090369
-0.085755
-0.082363
-0.080292
-0.079070
-0.078437
-0.078300
-0.078578
-0.079217
-0.080182
-0.081448
-0.082994
-0.084812
-0.086915
-0.089309
-0.092003
-0.095008
-0.098342
-0.102029
-0.106095
-0.110571
-0.115492
-0.120898
-0.126829
-0.133330
-0.140452
-0.148245
-0.156753
-0.166013
-0.176047
-0.186852
-0.198376
-0.210486
-0.222931
-0.235276
-0.246828
-0.256518
-0.262777
-0.263225
-0.254288
-0.229999
-0.154617
0.054204
0.585485
1.676775
3.086594
-0.249152
-0.111770
-0.082765
-0.074344
-0.071075
-0.069653
-0.068900
-0.068716
-0.068923
-0.069421
-0.070192
-0.071218
-0.072484
-0.073981
-0.075705
-0.077652
-0.079824
-0.082240
-0.084912
-0.087855
-0.091086
-0.094626
-0.098500
-0.102738
-0.107372
-0.112439
-0.117978
-0.124032
-0.130647
-0.137872
-0.145756
-0.154341
-0.163662
-0.173737
-0.184552
-0.196045
-0.208066
-0.220341
-0.232402
-0.243505
-0.252457
-0.257353
-0.254453
-0.235639
-0.174654
-0.015148
0.378541
1.265800
2.943823
5.180333
