# vtk DataFile Version 3.0
Vector Field
ASCII
DATASET RECTILINEAR_GRID
DIMENSIONS 50 50 1
X_COORDINATES 50 double
0.100000 0.300000 0.500000 0.700000 0.900000 1.100000 1.300000 1.500000 1.700000 1.900000 2.100000 2.300000 2.500000 2.700000 2.900000 3.100000 3.300000 3.500000 3.700000 3.900000 4.100000 4.300000 4.500000 4.700000 4.900000 5.100000 5.300000 5.500000 5.700000 5.900000 6.100000 6.300000 6.500000 6.700000 6.900000 7.100000 7.300000 7.500000 7.700000 7.900000 8.100000 8.300000 8.500000 8.700000 8.900000 9.100000 9.300000 9.500000 9.700000 9.900000 
Y_COORDINATES 50 double
0.100000 0.300000 0.500000 0.700000 0.900000 1.100000 1.300000 1.500000 1.700000 1.900000 2.100000 2.300000 2.500000 2.700000 2.900000 3.100000 3.300000 3.500000 3.700000 3.900000 4.100000 4.300000 4.500000 4.700000 4.900000 5.100000 5.300000 5.500000 5.700000 5.900000 6.100000 6.300000 6.500000 6.700000 6.900000 7.100000 7.300000 7.500000 7.700000 7.900000 8.100000 8.300000 8.500000 8.700000 8.900000 9.100000 9.300000 9.500000 9.700000 9.900000 
Z_COORDINATES 1 double
0.0
POINT_DATA 2500
VECTORS Vektorfeld double
0.000018 -0.000018 0.0
0.000046 -0.000009 0.0
0.000037 0.000017 0.0
-0.000028 0.000048 0.0
-0.000153 0.000077 0.0
-0.000332 0.000102 0.0
-0.000555 0.000122 0.0
-0.000815 0.000138 0.0
-0.001103 0.000150 0.0
-0.001411 0.000158 0.0
-0.001731 0.000163 0.0
-0.002058 0.000165 0.0
-0.002387 0.000164 0.0
-0.002713 0.000162 0.0
-0.003031 0.000157 0.0
-0.003339 0.000150 0.0
-0.003631 0.000142 0.0
-0.003907 0.000133 0.0
-0.004161 0.000122 0.0
-0.004391 0.000109 0.0
-0.004595 0.000095 0.0
-0.004770 0.000079 0.0
-0.004912 0.000063 0.0
-0.005019 0.000045 0.0
-0.005089 0.000025 0.0
-0.005119 0.000005 0.0
-0.005108 -0.000016 0.0
-0.005055 -0.000037 0.0
-0.004959 -0.000059 0.0
-0.004819 -0.000081 0.0
-0.004636 -0.000102 0.0
-0.004413 -0.000122 0.0
-0.004151 -0.000140 0.0
-0.003855 -0.000156 0.0
-0.003528 -0.000170 0.0
-0.003177 -0.000181 0.0
-0.002807 -0.000188 0.0
-0.002428 -0.000192 0.0
-0.002045 -0.000191 0.0
-0.001669 -0.000185 0.0
-0.001309 -0.000175 0.0
-0.000973 -0.000161 0.0
-0.000670 -0.000142 0.0
-0.000410 -0.000118 0.0
-0.000200 -0.000091 0.0
-0.000047 -0.000062 0.0
0.000045 -0.000031 0.0
0.000077 -0.000002 0.0
0.000059 0.000019 0.0
0.000020 0.000020 0.0
0.000009 -0.000046 0.0
-0.000008 0.000009 0.0
-0.000123 0.000123 0.0
-0.000369 0.000254 0.0
-0.000751 0.000378 0.0
-0.001260 0.000488 0.0
-0.001879 0.000579 0.0
-0.002590 0.000651 0.0
-0.003371 0.000706 0.0
-0.004205 0.000743 0.0
-0.005073 0.000766 0.0
-0.005960 0.000776 0.0
-0.006852 0.000774 0.0
-0.007736 0.000761 0.0
-0.008600 0.000739 0.0
-0.009433 0.000709 0.0
-0.010226 0.000670 0.0
-0.010970 0.000624 0.0
-0.011657 0.000571 0.0
-0.012277 0.000511 0.0
-0.012824 0.000444 0.0
-0.013289 0.000370 0.0
-0.013666 0.000291 0.0
-0.013947 0.000205 0.0
-0.014127 0.000115 0.0
-0.014201 0.000020 0.0
-0.014164 -0.000079 0.0
-0.014012 -0.000179 0.0
-0.013746 -0.000280 0.0
-0.013364 -0.000381 0.0
-0.012871 -0.000478 0.0
-0.012269 -0.000570 0.0
-0.011566 -0.000656 0.0
-0.010773 -0.000731 0.0
-0.009900 -0.000795 0.0
-0.008964 -0.000844 0.0
-0.007980 -0.000878 0.0
-0.006969 -0.000893 0.0
-0.005950 -0.000890 0.0
-0.004947 -0.000866 0.0
-0.003982 -0.000821 0.0
-0.003079 -0.000755 0.0
-0.002259 -0.000669 0.0
-0.001544 -0.000565 0.0
-0.000952 -0.000446 0.0
-0.000497 -0.000315 0.0
-0.000186 -0.000181 0.0
-0.000014 -0.000055 0.0
0.000039 0.000038 0.0
0.000020 0.000059 0.0
-0.000017 -0.000038 0.0
-0.000123 0.000124 0.0
-0.000392 0.000392 0.0
-0.000850 0.000688 0.0
-0.001498 0.000974 0.0
-0.002324 0.001228 0.0
-0.003308 0.001442 0.0
-0.004422 0.001613 0.0
-0.005639 0.001743 0.0
-0.006933 0.001834 0.0
-0.008279 0.001889 0.0
-0.009652 0.001913 0.0
-0.011032 0.001908 0.0
-0.012398 0.001877 0.0
-0.013732 0.001822 0.0
-0.015019 0.001746 0.0
-0.016243 0.001650 0.0
-0.017390 0.001535 0.0
-0.018446 0.001402 0.0
-0.019399 0.001253 0.0
-0.020237 0.001086 0.0
-0.020948 0.000904 0.0
-0.021521 0.000707 0.0
-0.021946 0.000496 0.0
-0.022215 0.000273 0.0
-0.022320 0.000040 0.0
-0.022254 -0.000201 0.0
-0.022014 -0.000447 0.0
-0.021598 -0.000694 0.0
-0.021008 -0.000939 0.0
-0.020246 -0.001175 0.0
-0.019321 -0.001400 0.0
-0.018244 -0.001606 0.0
-0.017028 -0.001789 0.0
-0.015694 -0.001944 0.0
-0.014262 -0.002064 0.0
-0.012759 -0.002145 0.0
-0.011213 -0.002184 0.0
-0.009655 -0.002176 0.0
-0.008117 -0.002120 0.0
-0.006634 -0.002014 0.0
-0.005239 -0.001860 0.0
-0.003964 -0.001659 0.0
-0.002839 -0.001416 0.0
-0.001889 -0.001137 0.0
-0.001134 -0.000835 0.0
-0.000581 -0.000525 0.0
-0.000227 -0.000236 0.0
-0.000049 -0.000011 0.0
0.000000 0.000079 0.0
-0.000048 0.000027 0.0
-0.000258 0.000374 0.0
-0.000700 0.000853 0.0
-0.001384 0.001368 0.0
-0.002303 0.001861 0.0
-0.003439 0.002302 0.0
-0.004765 0.002676 0.0
-0.006251 0.002978 0.0
-0.007863 0.003208 0.0
-0.009569 0.003369 0.0
-0.011337 0.003468 0.0
-0.013139 0.003509 0.0
-0.014947 0.003499 0.0
-0.016735 0.003440 0.0
-0.018481 0.003339 0.0
-0.020164 0.003198 0.0
-0.021762 0.003021 0.0
-0.023259 0.002808 0.0
-0.024636 0.002563 0.0
-0.025876 0.002286 0.0
-0.026964 0.001979 0.0
-0.027886 0.001643 0.0
-0.028627 0.001281 0.0
-0.029174 0.000895 0.0
-0.029517 0.000486 0.0
-0.029646 0.000060 0.0
-0.029554 -0.000380 0.0
-0.029236 -0.000827 0.0
-0.028690 -0.001276 0.0
-0.027917 -0.001720 0.0
-0.026924 -0.002149 0.0
-0.025721 -0.002555 0.0
-0.024320 -0.002929 0.0
-0.022742 -0.003260 0.0
-0.021010 -0.003539 0.0
-0.019152 -0.003758 0.0
-0.017200 -0.003906 0.0
-0.015191 -0.003978 0.0
-0.013163 -0.003968 0.0
-0.011158 -0.003871 0.0
-0.009218 -0.003687 0.0
-0.007384 -0.003416 0.0
-0.005697 -0.003064 0.0
-0.004193 -0.002639 0.0
-0.002903 -0.002153 0.0
-0.001850 -0.001627 0.0
-0.001046 -0.001090 0.0
-0.000489 -0.000583 0.0
-0.000161 -0.000170 0.0
-0.000026 0.000054 0.0
-0.000079 0.000155 0.0
-0.000393 0.000769 0.0
-0.001013 0.001520 0.0
-0.001926 0.002299 0.0
-0.003115 0.003038 0.0
-0.004552 0.003698 0.0
-0.006204 0.004259 0.0
-0.008037 0.004713 0.0
-0.010013 0.005060 0.0
-0.012094 0.005304 0.0
-0.014244 0.005453 0.0
-0.016430 0.005513 0.0
-0.018620 0.005493 0.0
-0.020784 0.005399 0.0
-0.022895 0.005238 0.0
-0.024927 0.005014 0.0
-0.026857 0.004733 0.0
-0.028661 0.004397 0.0
-0.030320 0.004009 0.0
-0.031814 0.003573 0.0
-0.033123 0.003089 0.0
-0.034230 0.002562 0.0
-0.035119 0.001993 0.0
-0.035774 0.001386 0.0
-0.036183 0.000747 0.0
-0.036335 0.000080 0.0
-0.036220 -0.000606 0.0
-0.035835 -0.001304 0.0
-0.035176 -0.002004 0.0
-0.034246 -0.002694 0.0
-0.033052 -0.003362 0.0
-0.031606 -0.003993 0.0
-0.029923 -0.004574 0.0
-0.028027 -0.005089 0.0
-0.025946 -0.005524 0.0
-0.023712 -0.005865 0.0
-0.021364 -0.006099 0.0
-0.018943 -0.006216 0.0
-0.016495 -0.006206 0.0
-0.014069 -0.006064 0.0
-0.011714 -0.005789 0.0
-0.009479 -0.005383 0.0
-0.007409 -0.004854 0.0
-0.005547 -0.004214 0.0
-0.003930 -0.003485 0.0
-0.002584 -0.002695 0.0
-0.001527 -0.001884 0.0
-0.000761 -0.001111 0.0
-0.000278 -0.000454 0.0
-0.000052 -0.000024 0.0
-0.000108 0.000343 0.0
-0.000522 0.001309 0.0
-0.001314 0.002392 0.0
-0.002452 0.003479 0.0
-0.003903 0.004498 0.0
-0.005631 0.005403 0.0
-0.007596 0.006172 0.0
-0.009757 0.006794 0.0
-0.012072 0.007269 0.0
-0.014500 0.007604 0.0
-0.017002 0.007805 0.0
-0.019539 0.007883 0.0
-0.022075 0.007849 0.0
-0.024579 0.007710 0.0
-0.027019 0.007476 0.0
-0.029365 0.007154 0.0
-0.031592 0.006749 0.0
-0.033674 0.006267 0.0
-0.035587 0.005711 0.0
-0.037309 0.005086 0.0
-0.038818 0.004394 0.0
-0.040093 0.003640 0.0
-0.041118 0.002827 0.0
-0.041874 0.001963 0.0
-0.042346 0.001052 0.0
-0.042523 0.000104 0.0
-0.042394 -0.000872 0.0
-0.041954 -0.001864 0.0
-0.041200 -0.002857 0.0
-0.040135 -0.003836 0.0
-0.038765 -0.004783 0.0
-0.037105 -0.005678 0.0
-0.035173 -0.006503 0.0
-0.032994 -0.007235 0.0
-0.030600 -0.007854 0.0
-0.028027 -0.008342 0.0
-0.025318 -0.008680 0.0
-0.022520 -0.008853 0.0
-0.019686 -0.008850 0.0
-0.016870 -0.008662 0.0
-0.014127 -0.008289 0.0
-0.011512 -0.007734 0.0
-0.009077 -0.007007 0.0
-0.006871 -0.006128 0.0
-0.004936 -0.005124 0.0
-0.003303 -0.004034 0.0
-0.001996 -0.002910 0.0
-0.001024 -0.001822 0.0
-0.000388 -0.000863 0.0
-0.000076 -0.000152 0.0
-0.000135 0.000586 0.0
-0.000642 0.001987 0.0
-0.001598 0.003462 0.0
-0.002951 0.004901 0.0
-0.004655 0.006231 0.0
-0.006663 0.007405 0.0
-0.008927 0.008399 0.0
-0.011400 0.009201 0.0
-0.014036 0.009813 0.0
-0.016790 0.010242 0.0
-0.019618 0.010497 0.0
-0.022480 0.010591 0.0
-0.025337 0.010535 0.0
-0.028153 0.010343 0.0
-0.030895 0.010025 0.0
-0.033530 0.009588 0.0
-0.036031 0.009042 0.0
-0.038368 0.008393 0.0
-0.040516 0.007646 0.0
-0.042449 0.006806 0.0
-0.044144 0.005878 0.0
-0.045580 0.004867 0.0
-0.046734 0.003779 0.0
-0.047589 0.002622 0.0
-0.048128 0.001404 0.0
-0.048337 0.000137 0.0
-0.048204 -0.001167 0.0
-0.047724 -0.002491 0.0
-0.046892 -0.003816 0.0
-0.045712 -0.005123 0.0
-0.044190 -0.006387 0.0
-0.042341 -0.007583 0.0
-0.040185 -0.008686 0.0
-0.037750 -0.009666 0.0
-0.035068 -0.010499 0.0
-0.032181 -0.011157 0.0
-0.029136 -0.011619 0.0
-0.025984 -0.011863 0.0
-0.022783 -0.011874 0.0
-0.019593 -0.011644 0.0
-0.016476 -0.011168 0.0
-0.013493 -0.010453 0.0
-0.010702 -0.009513 0.0
-0.008159 -0.008372 0.0
-0.005910 -0.007065 0.0
-0.003995 -0.005641 0.0
-0.002443 -0.004163 0.0
-0.001272 -0.002712 0.0
-0.000489 -0.001391 0.0
-0.000098 -0.000327 0.0
-0.000159 0.000880 0.0
-0.000752 0.002794 0.0
-0.001862 0.004720 0.0
-0.003421 0.006555 0.0
-0.005367 0.008228 0.0
-0.007643 0.009693 0.0
-0.010193 0.010926 0.0
-0.012965 0.011919 0.0
-0.015907 0.012673 0.0
-0.018969 0.013198 0.0
-0.022106 0.013506 0.0
-0.025274 0.013611 0.0
-0.028431 0.013529 0.0
-0.031540 0.013275 0.0
-0.034565 0.012860 0.0
-0.037472 0.012296 0.0
-0.040229 0.011593 0.0
-0.042807 0.010758 0.0
-0.045178 0.009799 0.0
-0.047314 0.008722 0.0
-0.049190 0.007533 0.0
-0.050782 0.006239 0.0
-0.052068 0.004847 0.0
-0.053027 0.003367 0.0
-0.053639 0.001810 0.0
-0.053891 0.000191 0.0
-0.053769 -0.001475 0.0
-0.053265 -0.003167 0.0
-0.052374 -0.004862 0.0
-0.051099 -0.006533 0.0
-0.049446 -0.008151 0.0
-0.047430 -0.009684 0.0
-0.045071 -0.011099 0.0
-0.042399 -0.012361 0.0
-0.039449 -0.013436 0.0
-0.036265 -0.014292 0.0
-0.032897 -0.014898 0.0
-0.029402 -0.015230 0.0
-0.025843 -0.015267 0.0
-0.022286 -0.014998 0.0
-0.018798 -0.014419 0.0
-0.015448 -0.013536 0.0
-0.012301 -0.012367 0.0
-0.009420 -0.010942 0.0
-0.006858 -0.009305 0.0
-0.004662 -0.007512 0.0
-0.002868 -0.005638 0.0
-0.001503 -0.003774 0.0
-0.000582 -0.002032 0.0
-0.000118 -0.000542 0.0
-0.000181 0.001220 0.0
-0.000855 0.003721 0.0
-0.002109 0.006157 0.0
-0.003862 0.008430 0.0
-0.006039 0.010476 0.0
-0.008572 0.012253 0.0
-0.011398 0.013741 0.0
-0.014456 0.014934 0.0
-0.017691 0.015835 0.0
-0.021049 0.016457 0.0
-0.024481 0.016816 0.0
-0.027941 0.016929 0.0
-0.031385 0.016814 0.0
-0.034774 0.016488 0.0
-0.038069 0.015966 0.0
-0.041235 0.015263 0.0
-0.044240 0.014388 0.0
-0.047052 0.013352 0.0
-0.049640 0.012164 0.0
-0.051977 0.010830 0.0
-0.054034 0.009359 0.0
-0.055787 0.007758 0.0
-0.057211 0.006037 0.0
-0.058283 0.004208 0.0
-0.058982 0.002283 0.0
-0.059292 0.000280 0.0
-0.059198 -0.001781 0.0
-0.058689 -0.003875 0.0
-0.057759 -0.005974 0.0
-0.056410 -0.008046 0.0
-0.054647 -0.010054 0.0
-0.052483 -0.011961 0.0
-0.049941 -0.013724 0.0
-0.047048 -0.015301 0.0
-0.043842 -0.016651 0.0
-0.040370 -0.017733 0.0
-0.036686 -0.018509 0.0
-0.032852 -0.018948 0.0
-0.028933 -0.019026 0.0
-0.025005 -0.018726 0.0
-0.021140 -0.018044 0.0
-0.017415 -0.016986 0.0
-0.013904 -0.015575 0.0
-0.010677 -0.013844 0.0
-0.007796 -0.011846 0.0
-0.005315 -0.009647 0.0
-0.003280 -0.007332 0.0
-0.001723 -0.005002 0.0
-0.000669 -0.002778 0.0
-0.000135 -0.000795 0.0
-0.000201 0.001602 0.0
-0.000950 0.004762 0.0
-0.002341 0.007761 0.0
-0.004278 0.010515 0.0
-0.006676 0.012966 0.0
-0.009456 0.015077 0.0
-0.012547 0.016834 0.0
-0.015882 0.018234 0.0
-0.019400 0.019287 0.0
-0.023044 0.020007 0.0
-0.026762 0.020415 0.0
-0.030504 0.020531 0.0
-0.034226 0.020377 0.0
-0.037885 0.019972 0.0
-0.041444 0.019335 0.0
-0.044864 0.018481 0.0
-0.048112 0.017423 0.0
-0.051156 0.016172 0.0
-0.053963 0.014739 0.0
-0.056503 0.013132 0.0
-0.058749 0.011360 0.0
-0.060672 0.009433 0.0
-0.062246 0.007360 0.0
-0.063446 0.005156 0.0
-0.064249 0.002837 0.0
-0.064637 0.000423 0.0
-0.064591 -0.002064 0.0
-0.064100 -0.004592 0.0
-0.063155 -0.007130 0.0
-0.061754 -0.009639 0.0
-0.059902 -0.012076 0.0
-0.057611 -0.014394 0.0
-0.054900 -0.016544 0.0
-0.051800 -0.018475 0.0
-0.048349 -0.020135 0.0
-0.044594 -0.021475 0.0
-0.040594 -0.022450 0.0
-0.036414 -0.023021 0.0
-0.032129 -0.023157 0.0
-0.027816 -0.022837 0.0
-0.023559 -0.022054 0.0
-0.019443 -0.020817 0.0
-0.015551 -0.019148 0.0
-0.011961 -0.017088 0.0
-0.008747 -0.014697 0.0
-0.005972 -0.012051 0.0
-0.003688 -0.009246 0.0
-0.001938 -0.006395 0.0
-0.000752 -0.003626 0.0
-0.000152 -0.001082 0.0
-0.000220 0.002024 0.0
-0.001040 0.005908 0.0
-0.002560 0.009525 0.0
-0.004673 0.012802 0.0
-0.007283 0.015687 0.0
-0.010302 0.018155 0.0
-0.013650 0.020195 0.0
-0.017254 0.021812 0.0
-0.021047 0.023021 0.0
-0.024970 0.023840 0.0
-0.028966 0.024295 0.0
-0.032985 0.024411 0.0
-0.036979 0.024213 0.0
-0.040905 0.023723 0.0
-0.044724 0.022962 0.0
-0.048398 0.021948 0.0
-0.051890 0.020697 0.0
-0.055169 0.019220 0.0
-0.058200 0.017530 0.0
-0.060954 0.015636 0.0
-0.063399 0.013547 0.0
-0.065506 0.011275 0.0
-0.067247 0.008832 0.0
-0.068595 0.006233 0.0
-0.069525 0.003495 0.0
-0.070014 0.000642 0.0
-0.070043 -0.002299 0.0
-0.069596 -0.005295 0.0
-0.068661 -0.008307 0.0
-0.067234 -0.011290 0.0
-0.065316 -0.014195 0.0
-0.062918 -0.016966 0.0
-0.060056 -0.019544 0.0
-0.056761 -0.021870 0.0
-0.053071 -0.023881 0.0
-0.049035 -0.025519 0.0
-0.044715 -0.026727 0.0
-0.040180 -0.027459 0.0
-0.035511 -0.027674 0.0
-0.030794 -0.027349 0.0
-0.026121 -0.026471 0.0
-0.021588 -0.025049 0.0
-0.017288 -0.023108 0.0
-0.013311 -0.020694 0.0
-0.009742 -0.017875 0.0
-0.006654 -0.014737 0.0
-0.004109 -0.011389 0.0
-0.002158 -0.007954 0.0
-0.000836 -0.004574 0.0
-0.000168 -0.001402 0.0
-0.000239 0.002483 0.0
-0.001125 0.007155 0.0
-0.002769 0.011442 0.0
-0.005052 0.015281 0.0
-0.007867 0.018633 0.0
-0.011118 0.021478 0.0
-0.014716 0.023817 0.0
-0.018583 0.025661 0.0
-0.022646 0.027030 0.0
-0.026843 0.027950 0.0
-0.031114 0.028452 0.0
-0.035405 0.028565 0.0
-0.039670 0.028318 0.0
-0.043862 0.027737 0.0
-0.047942 0.026847 0.0
-0.051872 0.025666 0.0
-0.055614 0.024214 0.0
-0.059135 0.022503 0.0
-0.062401 0.020545 0.0
-0.065380 0.018353 0.0
-0.068040 0.015935 0.0
-0.070350 0.013305 0.0
-0.072281 0.010474 0.0
-0.073801 0.007460 0.0
-0.074884 0.004281 0.0
-0.075504 0.000965 0.0
-0.075638 -0.002460 0.0
-0.075265 -0.005955 0.0
-0.074370 -0.009476 0.0
-0.072946 -0.012973 0.0
-0.070989 -0.016387 0.0
-0.068505 -0.019655 0.0
-0.065512 -0.022709 0.0
-0.062034 -0.025477 0.0
-0.058112 -0.027887 0.0
-0.053795 -0.029866 0.0
-0.049146 -0.031349 0.0
-0.044242 -0.032276 0.0
-0.039168 -0.032600 0.0
-0.034019 -0.032288 0.0
-0.028899 -0.031325 0.0
-0.023914 -0.029715 0.0
-0.019170 -0.027486 0.0
-0.014772 -0.024691 0.0
-0.010815 -0.021404 0.0
-0.007387 -0.017724 0.0
-0.004559 -0.013773 0.0
-0.002391 -0.009689 0.0
-0.000924 -0.005628 0.0
-0.000185 -0.001755 0.0
-0.000256 0.002978 0.0
-0.001208 0.008499 0.0
-0.002972 0.013506 0.0
-0.005420 0.017948 0.0
-0.008435 0.021796 0.0
-0.011912 0.025042 0.0
-0.015755 0.027695 0.0
-0.019880 0.029775 0.0
-0.024211 0.031310 0.0
-0.028678 0.032334 0.0
-0.033222 0.032882 0.0
-0.037786 0.032990 0.0
-0.042320 0.032692 0.0
-0.046781 0.032017 0.0
-0.051126 0.030992 0.0
-0.055317 0.029641 0.0
-0.059317 0.027981 0.0
-0.063091 0.026030 0.0
-0.066605 0.023799 0.0
-0.069827 0.021300 0.0
-0.072722 0.018544 0.0
-0.075259 0.015543 0.0
-0.077404 0.012311 0.0
-0.079126 0.008865 0.0
-0.080394 0.005227 0.0
-0.081177 0.001423 0.0
-0.081449 -0.002513 0.0
-0.081186 -0.006539 0.0
-0.080367 -0.010606 0.0
-0.078978 -0.014657 0.0
-0.077012 -0.018626 0.0
-0.074470 -0.022441 0.0
-0.071366 -0.026022 0.0
-0.067721 -0.029286 0.0
-0.063574 -0.032147 0.0
-0.058975 -0.034521 0.0
-0.053990 -0.036327 0.0
-0.048698 -0.037494 0.0
-0.043192 -0.037962 0.0
-0.037579 -0.037688 0.0
-0.031971 -0.036652 0.0
-0.026490 -0.034854 0.0
-0.021257 -0.032324 0.0
-0.016391 -0.029118 0.0
-0.012004 -0.025320 0.0
-0.008197 -0.021043 0.0
-0.005056 -0.016423 0.0
-0.002648 -0.011615 0.0
-0.001022 -0.006795 0.0
-0.000204 -0.002145 0.0
-0.000273 0.003507 0.0
-0.001289 0.009937 0.0
-0.003170 0.015714 0.0
-0.005780 0.020798 0.0
-0.008991 0.025173 0.0
-0.012691 0.028842 0.0
-0.016777 0.031825 0.0
-0.021158 0.034152 0.0
-0.025753 0.035859 0.0
-0.030491 0.036990 0.0
-0.035306 0.037585 0.0
-0.040143 0.037688 0.0
-0.044951 0.037336 0.0
-0.049684 0.036565 0.0
-0.054300 0.035404 0.0
-0.058760 0.033879 0.0
-0.063028 0.032011 0.0
-0.067069 0.029815 0.0
-0.070848 0.027307 0.0
-0.074331 0.024497 0.0
-0.077484 0.021396 0.0
-0.080273 0.018017 0.0
-0.082663 0.014373 0.0
-0.084620 0.010482 0.0
-0.086107 0.006365 0.0
-0.087092 0.002053 0.0
-0.087542 -0.002420 0.0
-0.087428 -0.007009 0.0
-0.086724 -0.011659 0.0
-0.085409 -0.016308 0.0
-0.083470 -0.020881 0.0
-0.080902 -0.025296 0.0
-0.077712 -0.029462 0.0
-0.073919 -0.033283 0.0
-0.069558 -0.036659 0.0
-0.064678 -0.039489 0.0
-0.059346 -0.041677 0.0
-0.053646 -0.043136 0.0
-0.047680 -0.043792 0.0
-0.041562 -0.043590 0.0
-0.035420 -0.042499 0.0
-0.029390 -0.040517 0.0
-0.023611 -0.037672 0.0
-0.018221 -0.034025 0.0
-0.013351 -0.029670 0.0
-0.009117 -0.024734 0.0
-0.005621 -0.019370 0.0
-0.002940 -0.013756 0.0
-0.001132 -0.008089 0.0
-0.000226 -0.002575 0.0
-0.000290 0.004071 0.0
-0.001369 0.011467 0.0
-0.003367 0.018062 0.0
-0.006136 0.023828 0.0
-0.009542 0.028760 0.0
-0.013463 0.032875 0.0
-0.017790 0.036205 0.0
-0.022426 0.038789 0.0
-0.027285 0.040676 0.0
-0.032293 0.041917 0.0
-0.037382 0.042562 0.0
-0.042494 0.042661 0.0
-0.047578 0.042256 0.0
-0.052588 0.041388 0.0
-0.057482 0.040091 0.0
-0.062221 0.038392 0.0
-0.066769 0.036314 0.0
-0.071091 0.033875 0.0
-0.075153 0.031088 0.0
-0.078920 0.027965 0.0
-0.082356 0.024517 0.0
-0.085427 0.020755 0.0
-0.088094 0.016692 0.0
-0.090320 0.012345 0.0
-0.092067 0.007736 0.0
-0.093296 0.002895 0.0
-0.093968 -0.002140 0.0
-0.094048 -0.007323 0.0
-0.093504 -0.012594 0.0
-0.092306 -0.017885 0.0
-0.090435 -0.023114 0.0
-0.087878 -0.028188 0.0
-0.084634 -0.033004 0.0
-0.080717 -0.037451 0.0
-0.076156 -0.041413 0.0
-0.070998 -0.044772 0.0
-0.065313 -0.047412 0.0
-0.059186 -0.049227 0.0
-0.052727 -0.050126 0.0
-0.046062 -0.050039 0.0
-0.039332 -0.048922 0.0
-0.032692 -0.046765 0.0
-0.026302 -0.043594 0.0
-0.020320 -0.039475 0.0
-0.014899 -0.034512 0.0
-0.010177 -0.028848 0.0
-0.006273 -0.022657 0.0
-0.003280 -0.016143 0.0
-0.001261 -0.009529 0.0
-0.000251 -0.003051 0.0
-0.000307 0.004668 0.0
-0.001449 0.013090 0.0
-0.003562 0.020551 0.0
-0.006491 0.027037 0.0
-0.010092 0.032557 0.0
-0.014234 0.037141 0.0
-0.018802 0.040834 0.0
-0.023693 0.043687 0.0
-0.028817 0.045762 0.0
-0.034095 0.047118 0.0
-0.039459 0.047815 0.0
-0.044850 0.047911 0.0
-0.050214 0.047455 0.0
-0.055507 0.046492 0.0
-0.060686 0.045060 0.0
-0.065714 0.043190 0.0
-0.070555 0.040905 0.0
-0.075174 0.038225 0.0
-0.079537 0.035163 0.0
-0.083610 0.031730 0.0
-0.087356 0.027936 0.0
-0.090738 0.023790 0.0
-0.093717 0.019304 0.0
-0.096252 0.014494 0.0
-0.098300 0.009381 0.0
-0.099817 0.003995 0.0
-0.100759 -0.001626 0.0
-0.101084 -0.007432 0.0
-0.100749 -0.013363 0.0
-0.099720 -0.019343 0.0
-0.097964 -0.025282 0.0
-0.095462 -0.031079 0.0
-0.092202 -0.036616 0.0
-0.088191 -0.041768 0.0
-0.083451 -0.046398 0.0
-0.078026 -0.050369 0.0
-0.071983 -0.053544 0.0
-0.065412 -0.055793 0.0
-0.058428 -0.057004 0.0
-0.051169 -0.057086 0.0
-0.043794 -0.055980 0.0
-0.036476 -0.053665 0.0
-0.029398 -0.050162 0.0
-0.022745 -0.045541 0.0
-0.016696 -0.039916 0.0
-0.011413 -0.033448 0.0
-0.007037 -0.026337 0.0
-0.003678 -0.018815 0.0
-0.001413 -0.011140 0.0
-0.000281 -0.003582 0.0
-0.000324 0.005300 0.0
-0.001529 0.014805 0.0
-0.003759 0.023181 0.0
-0.006849 0.030426 0.0
-0.010645 0.036565 0.0
-0.015009 0.041641 0.0
-0.019819 0.045712 0.0
-0.024966 0.048847 0.0
-0.030356 0.051116 0.0
-0.035906 0.052593 0.0
-0.041548 0.053346 0.0
-0.047219 0.053442 0.0
-0.052868 0.052937 0.0
-0.058449 0.051883 0.0
-0.063921 0.050320 0.0
-0.069246 0.048283 0.0
-0.074391 0.045798 0.0
-0.079322 0.042882 0.0
-0.084006 0.039552 0.0
-0.088406 0.035815 0.0
-0.092489 0.031679 0.0
-0.096213 0.027153 0.0
-0.099539 0.022246 0.0
-0.102422 0.016970 0.0
-0.104815 0.011346 0.0
-0.106668 0.005401 0.0
-0.107931 -0.000826 0.0
-0.108554 -0.007285 0.0
-0.108485 -0.013913 0.0
-0.107679 -0.020629 0.0
-0.106094 -0.027337 0.0
-0.103697 -0.033924 0.0
-0.100468 -0.040260 0.0
-0.096401 -0.046202 0.0
-0.091511 -0.051594 0.0
-0.085835 -0.056274 0.0
-0.079437 -0.060080 0.0
-0.072409 -0.062856 0.0
-0.064871 -0.064462 0.0
-0.056973 -0.064784 0.0
-0.048890 -0.063740 0.0
-0.040820 -0.061294 0.0
-0.032970 -0.057461 0.0
-0.025557 -0.052309 0.0
-0.018789 -0.045965 0.0
-0.012859 -0.038611 0.0
-0.007935 -0.030474 0.0
-0.004150 -0.021823 0.0
-0.001595 -0.012954 0.0
-0.000317 -0.004180 0.0
-0.000342 0.005965 0.0
-0.001610 0.016612 0.0
-0.003959 0.025952 0.0
-0.007211 0.033996 0.0
-0.011204 0.040784 0.0
-0.015792 0.046374 0.0
-0.020846 0.050842 0.0
-0.026251 0.054269 0.0
-0.031908 0.056741 0.0
-0.037733 0.058344 0.0
-0.043654 0.059157 0.0
-0.049608 0.059257 0.0
-0.055544 0.058707 0.0
-0.061417 0.057566 0.0
-0.067187 0.055878 0.0
-0.072818 0.053682 0.0
-0.078278 0.051004 0.0
-0.083534 0.047863 0.0
-0.088553 0.044274 0.0
-0.093303 0.040243 0.0
-0.097745 0.035776 0.0
-0.101842 0.030878 0.0
-0.105548 0.025554 0.0
-0.108818 0.019814 0.0
-0.111600 0.013676 0.0
-0.113838 0.007163 0.0
-0.115476 0.000313 0.0
-0.116453 -0.006825 0.0
-0.116709 -0.014185 0.0
-0.116188 -0.021685 0.0
-0.114834 -0.029220 0.0
-0.112601 -0.036669 0.0
-0.109457 -0.043888 0.0
-0.105382 -0.050715 0.0
-0.100381 -0.056972 0.0
-0.094480 -0.062472 0.0
-0.087739 -0.067022 0.0
-0.080247 -0.070434 0.0
-0.072132 -0.072538 0.0
-0.063552 -0.073186 0.0
-0.054702 -0.072271 0.0
-0.045801 -0.069735 0.0
-0.037090 -0.065581 0.0
-0.028817 -0.059875 0.0
-0.021228 -0.052756 0.0
-0.014554 -0.044425 0.0
-0.008993 -0.035144 0.0
-0.004708 -0.025223 0.0
-0.001811 -0.015006 0.0
-0.000360 -0.004856 0.0
-0.000359 0.006666 0.0
-0.001694 0.018515 0.0
-0.004163 0.028867 0.0
-0.007580 0.037750 0.0
-0.011773 0.045216 0.0
-0.016588 0.051345 0.0
-0.021888 0.056225 0.0
-0.027552 0.059955 0.0
-0.033478 0.062638 0.0
-0.039579 0.064372 0.0
-0.045779 0.065250 0.0
-0.052017 0.065357 0.0
-0.058242 0.064768 0.0
-0.064408 0.063545 0.0
-0.070479 0.061740 0.0
-0.076421 0.059393 0.0
-0.082202 0.056533 0.0
-0.087793 0.053180 0.0
-0.093162 0.049345 0.0
-0.098277 0.045035 0.0
-0.103101 0.040251 0.0
-0.107595 0.034993 0.0
-0.111714 0.029264 0.0
-0.115407 0.023068 0.0
-0.118620 0.016417 0.0
-0.121291 0.009332 0.0
-0.123355 0.001846 0.0
-0.124745 -0.005992 0.0
-0.125389 -0.014118 0.0
-0.125216 -0.022446 0.0
-0.124160 -0.030869 0.0
-0.122158 -0.039254 0.0
-0.119162 -0.047444 0.0
-0.115138 -0.055258 0.0
-0.110074 -0.062495 0.0
-0.103987 -0.068937 0.0
-0.096926 -0.074359 0.0
-0.088978 -0.078537 0.0
-0.080270 -0.081259 0.0
-0.070973 -0.082341 0.0
-0.061298 -0.081641 0.0
-0.051490 -0.079073 0.0
-0.041822 -0.074621 0.0
-0.032584 -0.068346 0.0
-0.024063 -0.060394 0.0
-0.016534 -0.050990 0.0
-0.010237 -0.040435 0.0
-0.005368 -0.029086 0.0
-0.002068 -0.017342 0.0
-0.000411 -0.005628 0.0
-0.000377 0.007403 0.0
-0.001779 0.020514 0.0
-0.004371 0.031930 0.0
-0.007957 0.041690 0.0
-0.012354 0.049867 0.0
-0.017400 0.056554 0.0
-0.022948 0.061863 0.0
-0.028874 0.065908 0.0
-0.035070 0.068808 0.0
-0.041445 0.070678 0.0
-0.047924 0.071624 0.0
-0.054445 0.071742 0.0
-0.060956 0.071118 0.0
-0.067415 0.069821 0.0
-0.073787 0.067907 0.0
-0.080039 0.065421 0.0
-0.086144 0.062392 0.0
-0.092074 0.058842 0.0
-0.097800 0.054779 0.0
-0.103291 0.050207 0.0
-0.108513 0.045124 0.0
-0.113425 0.039526 0.0
-0.117982 0.033407 0.0
-0.122130 0.026767 0.0
-0.125812 0.019612 0.0
-0.128961 0.011956 0.0
-0.131503 0.003829 0.0
-0.133361 -0.004726 0.0
-0.134454 -0.013647 0.0
-0.134698 -0.022846 0.0
-0.134010 -0.032214 0.0
-0.132311 -0.041609 0.0
-0.129536 -0.050861 0.0
-0.125631 -0.059770 0.0
-0.120568 -0.068109 0.0
-0.114347 -0.075630 0.0
-0.107004 -0.082069 0.0
-0.098619 -0.087159 0.0
-0.089320 -0.090643 0.0
-0.079281 -0.092291 0.0
-0.068732 -0.091916 0.0
-0.057944 -0.089395 0.0
-0.047227 -0.084684 0.0
-0.036913 -0.077835 0.0
-0.027341 -0.068997 0.0
-0.018837 -0.058421 0.0
-0.011692 -0.046447 0.0
-0.006145 -0.033489 0.0
-0.002372 -0.020013 0.0
-0.000473 -0.006512 0.0
-0.000396 0.008176 0.0
-0.001867 0.022613 0.0
-0.004586 0.035143 0.0
-0.008345 0.045822 0.0
-0.012950 0.054738 0.0
-0.018230 0.062007 0.0
-0.024029 0.067758 0.0
-0.030218 0.072126 0.0
-0.036683 0.075250 0.0
-0.043331 0.077259 0.0
-0.050086 0.078276 0.0
-0.056885 0.078410 0.0
-0.063678 0.077755 0.0
-0.070424 0.076389 0.0
-0.077090 0.074376 0.0
-0.083648 0.071762 0.0
-0.090073 0.068580 0.0
-0.096340 0.064850 0.0
-0.102423 0.060580 0.0
-0.108294 0.055769 0.0
-0.113921 0.050410 0.0
-0.119263 0.044494 0.0
-0.124275 0.038007 0.0
-0.128903 0.030943 0.0
-0.133084 0.023299 0.0
-0.136748 0.015081 0.0
-0.139814 0.006312 0.0
-0.142194 -0.002971 0.0
-0.143795 -0.012708 0.0
-0.144521 -0.022816 0.0
-0.144274 -0.033181 0.0
-0.142956 -0.043658 0.0
-0.140481 -0.054063 0.0
-0.136775 -0.064178 0.0
-0.131789 -0.073751 0.0
-0.125502 -0.082497 0.0
-0.117935 -0.090112 0.0
-0.109154 -0.096282 0.0
-0.099280 -0.100694 0.0
-0.088494 -0.103064 0.0
-0.077038 -0.103149 0.0
-0.065208 -0.100779 0.0
-0.053353 -0.095873 0.0
-0.041854 -0.088460 0.0
-0.031107 -0.078691 0.0
-0.021500 -0.066839 0.0
-0.013384 -0.053290 0.0
-0.007054 -0.038522 0.0
-0.002730 -0.023077 0.0
-0.000546 -0.007531 0.0
-0.000415 0.008988 0.0
-0.001958 0.024814 0.0
-0.004808 0.038511 0.0
-0.008745 0.050149 0.0
-0.013564 0.059835 0.0
-0.019081 0.067706 0.0
-0.025135 0.073913 0.0
-0.031586 0.078612 0.0
-0.038319 0.081962 0.0
-0.045237 0.084112 0.0
-0.052260 0.085201 0.0
-0.059329 0.085352 0.0
-0.066393 0.084669 0.0
-0.073414 0.083242 0.0
-0.080363 0.081138 0.0
-0.087214 0.078410 0.0
-0.093947 0.075090 0.0
-0.100540 0.071200 0.0
-0.106971 0.066745 0.0
-0.113216 0.061720 0.0
-0.119244 0.056113 0.0
-0.125017 0.049906 0.0
-0.130491 0.043081 0.0
-0.135610 0.035618 0.0
-0.140311 0.027506 0.0
-0.144516 0.018743 0.0
-0.148141 0.009340 0.0
-0.151087 -0.000672 0.0
-0.153252 -0.011240 0.0
-0.154525 -0.022285 0.0
-0.154790 -0.033695 0.0
-0.153933 -0.045319 0.0
-0.151844 -0.056966 0.0
-0.148428 -0.068398 0.0
-0.143609 -0.079337 0.0
-0.137343 -0.089463 0.0
-0.129628 -0.098428 0.0
-0.120514 -0.105862 0.0
-0.110110 -0.111393 0.0
-0.098593 -0.114668 0.0
-0.086216 -0.115379 0.0
-0.073301 -0.113294 0.0
-0.060232 -0.108281 0.0
-0.047445 -0.100337 0.0
-0.035400 -0.089605 0.0
-0.024556 -0.076377 0.0
-0.015338 -0.061086 0.0
-0.008110 -0.044283 0.0
-0.003149 -0.026600 0.0
-0.000632 -0.008710 0.0
-0.000436 0.009839 0.0
-0.002052 0.027122 0.0
-0.005039 0.042040 0.0
-0.009159 0.054677 0.0
-0.014197 0.065163 0.0
-0.019956 0.073655 0.0
-0.026266 0.080328 0.0
-0.032981 0.085363 0.0
-0.039977 0.088941 0.0
-0.047157 0.091231 0.0
-0.054440 0.092390 0.0
-0.061765 0.092556 0.0
-0.069084 0.091848 0.0
-0.076363 0.090363 0.0
-0.083574 0.088177 0.0
-0.090697 0.085346 0.0
-0.097716 0.081905 0.0
-0.104613 0.077875 0.0
-0.111371 0.073259 0.0
-0.117970 0.068049 0.0
-0.124382 0.062224 0.0
-0.130574 0.055760 0.0
-0.136501 0.048628 0.0
-0.142110 0.040799 0.0
-0.147334 0.032250 0.0
-0.152094 0.022966 0.0
-0.156300 0.012947 0.0
-0.159846 0.002214 0.0
-0.162619 -0.009189 0.0
-0.164493 -0.021189 0.0
-0.165340 -0.033679 0.0
-0.165023 -0.046509 0.0
-0.163411 -0.059477 0.0
-0.160382 -0.072332 0.0
-0.155834 -0.084770 0.0
-0.149695 -0.096435 0.0
-0.141934 -0.106931 0.0
-0.132576 -0.115830 0.0
-0.121713 -0.122691 0.0
-0.109515 -0.127084 0.0
-0.096234 -0.128620 0.0
-0.082213 -0.126990 0.0
-0.067875 -0.121993 0.0
-0.053710 -0.113579 0.0
-0.040249 -0.101870 0.0
-0.028034 -0.087171 0.0
-0.017578 -0.069965 0.0
-0.009329 -0.050881 0.0
-0.003636 -0.030656 0.0
-0.000733 -0.010074 0.0
-0.000457 0.010731 0.0
-0.002152 0.029541 0.0
-0.005280 0.045735 0.0
-0.009591 0.059414 0.0
-0.014854 0.070727 0.0
-0.020860 0.079857 0.0
-0.027428 0.087004 0.0
-0.034403 0.092377 0.0
-0.041658 0.096179 0.0
-0.049089 0.098604 0.0
-0.056617 0.099827 0.0
-0.064179 0.100006 0.0
-0.071731 0.099270 0.0
-0.079240 0.097729 0.0
-0.086685 0.095466 0.0
-0.094048 0.092543 0.0
-0.101319 0.088997 0.0
-0.108485 0.084848 0.0
-0.115536 0.080096 0.0
-0.122454 0.074729 0.0
-0.129218 0.068720 0.0
-0.135797 0.062035 0.0
-0.142151 0.054635 0.0
-0.148228 0.046478 0.0
-0.153962 0.037529 0.0
-0.159273 0.027758 0.0
-0.164065 0.017152 0.0
-0.168228 0.005718 0.0
-0.171638 -0.006511 0.0
-0.174159 -0.019471 0.0
-0.175645 -0.033065 0.0
-0.175943 -0.047142 0.0
-0.174898 -0.061500 0.0
-0.172361 -0.075874 0.0
-0.168201 -0.089936 0.0
-0.162311 -0.103297 0.0
-0.154630 -0.115511 0.0
-0.145150 -0.126088 0.0
-0.133936 -0.134510 0.0
-0.121140 -0.140260 0.0
-0.107010 -0.142855 0.0
-0.091900 -0.141886 0.0
-0.076267 -0.137068 0.0
-0.060654 -0.128281 0.0
-0.045673 -0.115609 0.0
-0.031958 -0.099360 0.0
-0.020126 -0.080063 0.0
-0.010725 -0.058433 0.0
-0.004197 -0.035325 0.0
-0.000849 -0.011656 0.0
-0.000479 0.011667 0.0
-0.002256 0.032077 0.0
-0.005533 0.049605 0.0
-0.010044 0.064366 0.0
-0.015539 0.076533 0.0
-0.021797 0.086315 0.0
-0.028624 0.093941 0.0
-0.035857 0.099647 0.0
-0.043361 0.103666 0.0
-0.051029 0.106216 0.0
-0.058781 0.107494 0.0
-0.066555 0.107675 0.0
-0.074309 0.106906 0.0
-0.082014 0.105307 0.0
-0.089651 0.102970 0.0
-0.097211 0.099962 0.0
-0.104687 0.096324 0.0
-0.112073 0.092074 0.0
-0.119365 0.087211 0.0
-0.126550 0.081717 0.0
-0.133614 0.075559 0.0
-0.140531 0.068692 0.0
-0.147265 0.061066 0.0
-0.153767 0.052626 0.0
-0.159975 0.043322 0.0
-0.165808 0.033108 0.0
-0.171170 0.021956 0.0
-0.175946 0.009854 0.0
-0.180004 -0.003179 0.0
-0.183197 -0.017089 0.0
-0.185368 -0.031790 0.0