# vtk DataFile Version 3.0
Vector Field
ASCII
DATASET RECTILINEAR_GRID
DIMENSIONS 50 50 1
X_COORDINATES 50 double
0.100000 0.300000 0.500000 0.700000 0.900000 1.100000 1.300000 1.500000 1.700000 1.900000 2.100000 2.300000 2.500000 2.700000 2.900000 3.100000 3.300000 3.500000 3.700000 3.900000 4.100000 4.300000 4.500000 4.700000 4.900000 5.100000 5.300000 5.500000 5.700000 5.900000 6.100000 6.300000 6.500000 6.700000 6.900000 7.100000 7.300000 7.500000 7.700000 7.900000 8.100000 8.300000 8.500000 8.700000 8.900000 9.100000 9.300000 9.500000 9.700000 9.900000 
Y_COORDINATES 50 double
0.100000 0.300000 0.500000 0.700000 0.900000 1.100000 1.300000 1.500000 1.700000 1.900000 2.100000 2.300000 2.500000 2.700000 2.900000 3.100000 3.300000 3.500000 3.700000 3.900000 4.100000 4.300000 4.500000 4.700000 4.900000 5.100000 5.300000 5.500000 5.700000 5.900000 6.100000 6.300000 6.500000 6.700000 6.900000 7.100000 7.300000 7.500000 7.700000 7.900000 8.100000 8.300000 8.500000 8.700000 8.900000 9.100000 9.300000 9.500000 9.700000 9.900000 
Z_COORDINATES 1 double
0.0
POINT_DATA 2500
VECTORS Vektorfeld double
0.000015 -0.000015 0.0
0.000033 -0.000002 0.0
0.000009 0.000026 0.0
-0.000073 0.000055 0.0
-0.000209 0.000081 0.0
-0.000393 0.000103 0.0
-0.000614 0.000119 0.0
-0.000863 0.000130 0.0
-0.001131 0.000138 0.0
-0.001411 0.000142 0.0
-0.001696 0.000143 0.0
-0.001981 0.000142 0.0
-0.002262 0.000139 0.0
-0.002536 0.000135 0.0
-0.002799 0.000129 0.0
-0.003050 0.000122 0.0
-0.003285 0.000114 0.0
-0.003503 0.000105 0.0
-0.003703 0.000095 0.0
-0.003882 0.000084 0.0
-0.004040 0.000073 0.0
-0.004174 0.000061 0.0
-0.004284 0.000049 0.0
-0.004368 0.000035 0.0
-0.004425 0.000022 0.0
-0.004454 0.000007 0.0
-0.004454 -0.000008 0.0
-0.004423 -0.000023 0.0
-0.004362 -0.000038 0.0
-0.004270 -0.000054 0.0
-0.004146 -0.000069 0.0
-0.003992 -0.000085 0.0
-0.003808 -0.000100 0.0
-0.003595 -0.000114 0.0
-0.003355 -0.000127 0.0
-0.003090 -0.000138 0.0
-0.002804 -0.000148 0.0
-0.002501 -0.000155 0.0
-0.002185 -0.000160 0.0
-0.001862 -0.000162 0.0
-0.001539 -0.000161 0.0
-0.001223 -0.000155 0.0
-0.000922 -0.000145 0.0
-0.000646 -0.000131 0.0
-0.000404 -0.000111 0.0
-0.000207 -0.000086 0.0
-0.000064 -0.000057 0.0
0.000018 -0.000025 0.0
0.000038 0.000004 0.0
0.000017 0.000017 0.0
0.000002 -0.000033 0.0
-0.000037 0.000037 0.0
-0.000180 0.000155 0.0
-0.000452 0.000279 0.0
-0.000848 0.000391 0.0
-0.001354 0.000483 0.0
-0.001951 0.000556 0.0
-0.002617 0.000608 0.0
-0.003333 0.000643 0.0
-0.004080 0.000663 0.0
-0.004842 0.000669 0.0
-0.005605 0.000665 0.0
-0.006359 0.000651 0.0
-0.007093 0.000630 0.0
-0.007800 0.000603 0.0
-0.008472 0.000570 0.0
-0.009102 0.000532 0.0
-0.009687 0.000490 0.0
-0.010221 0.000443 0.0
-0.010699 0.000394 0.0
-0.011119 0.000341 0.0
-0.011475 0.000284 0.0
-0.011764 0.000225 0.0
-0.011983 0.000162 0.0
-0.012129 0.000097 0.0
-0.012199 0.000030 0.0
-0.012190 -0.000039 0.0
-0.012101 -0.000110 0.0
-0.011930 -0.000183 0.0
-0.011677 -0.000255 0.0
-0.011342 -0.000327 0.0
-0.010926 -0.000398 0.0
-0.010431 -0.000466 0.0
-0.009860 -0.000530 0.0
-0.009220 -0.000590 0.0
-0.008516 -0.000643 0.0
-0.007758 -0.000687 0.0
-0.006955 -0.000722 0.0
-0.006120 -0.000744 0.0
-0.005268 -0.000753 0.0
-0.004416 -0.000746 0.0
-0.003583 -0.000720 0.0
-0.002788 -0.000676 0.0
-0.002055 -0.000610 0.0
-0.001406 -0.000522 0.0
-0.000864 -0.000414 0.0
-0.000448 -0.000288 0.0
-0.000171 -0.000153 0.0
-0.000029 -0.000030 0.0
0.000005 0.000039 0.0
-0.000026 -0.000009 0.0
-0.000155 0.000181 0.0
-0.000451 0.000451 0.0
-0.000927 0.000730 0.0
-0.001575 0.000984 0.0
-0.002376 0.001197 0.0
-0.003303 0.001366 0.0
-0.004330 0.001490 0.0
-0.005427 0.001574 0.0
-0.006570 0.001622 0.0
-0.007735 0.001638 0.0
-0.008902 0.001628 0.0
-0.010055 0.001595 0.0
-0.011178 0.001544 0.0
-0.012258 0.001476 0.0
-0.013284 0.001395 0.0
-0.014248 0.001301 0.0
-0.015140 0.001197 0.0
-0.015954 0.001083 0.0
-0.016682 0.000961 0.0
-0.017318 0.000829 0.0
-0.017857 0.000690 0.0
-0.018293 0.000544 0.0
-0.018620 0.000390 0.0
-0.018835 0.000231 0.0
-0.018934 0.000065 0.0
-0.018913 -0.000105 0.0
-0.018770 -0.000278 0.0
-0.018502 -0.000454 0.0
-0.018109 -0.000630 0.0
-0.017592 -0.000805 0.0
-0.016952 -0.000976 0.0
-0.016194 -0.001141 0.0
-0.015324 -0.001297 0.0
-0.014348 -0.001440 0.0
-0.013278 -0.001567 0.0
-0.012126 -0.001674 0.0
-0.010909 -0.001756 0.0
-0.009644 -0.001810 0.0
-0.008354 -0.001830 0.0
-0.007063 -0.001812 0.0
-0.005799 -0.001752 0.0
-0.004591 -0.001646 0.0
-0.003470 -0.001493 0.0
-0.002468 -0.001290 0.0
-0.001614 -0.001042 0.0
-0.000935 -0.000756 0.0
-0.000446 -0.000452 0.0
-0.000148 -0.000169 0.0
-0.000023 0.000020 0.0
-0.000056 0.000072 0.0
-0.000283 0.000456 0.0
-0.000740 0.000930 0.0
-0.001422 0.001409 0.0
-0.002313 0.001844 0.0
-0.003386 0.002211 0.0
-0.004610 0.002504 0.0
-0.005953 0.002721 0.0
-0.007382 0.002869 0.0
-0.008865 0.002953 0.0
-0.010375 0.002982 0.0
-0.011887 0.002963 0.0
-0.013378 0.002904 0.0
-0.014831 0.002810 0.0
-0.016227 0.002686 0.0
-0.017554 0.002537 0.0
-0.018798 0.002366 0.0
-0.019950 0.002176 0.0
-0.020998 0.001967 0.0
-0.021935 0.001742 0.0
-0.022753 0.001502 0.0
-0.023443 0.001247 0.0
-0.023999 0.000979 0.0
-0.024415 0.000699 0.0
-0.024686 0.000408 0.0
-0.024805 0.000107 0.0
-0.024770 -0.000202 0.0
-0.024576 -0.000517 0.0
-0.024223 -0.000836 0.0
-0.023709 -0.001154 0.0
-0.023036 -0.001470 0.0
-0.022207 -0.001779 0.0
-0.021225 -0.002076 0.0
-0.020101 -0.002357 0.0
-0.018842 -0.002614 0.0
-0.017464 -0.002842 0.0
-0.015982 -0.003033 0.0
-0.014416 -0.003180 0.0
-0.012790 -0.003276 0.0
-0.011131 -0.003312 0.0
-0.009470 -0.003281 0.0
-0.007841 -0.003177 0.0
-0.006278 -0.002992 0.0
-0.004820 -0.002725 0.0
-0.003505 -0.002375 0.0
-0.002367 -0.001948 0.0
-0.001437 -0.001459 0.0
-0.000737 -0.000938 0.0
-0.000277 -0.000440 0.0
-0.000054 -0.000057 0.0
-0.000084 0.000212 0.0
-0.000403 0.000863 0.0
-0.001016 0.001593 0.0
-0.001896 0.002309 0.0
-0.003016 0.002954 0.0
-0.004341 0.003500 0.0
-0.005835 0.003935 0.0
-0.007461 0.004260 0.0
-0.009182 0.004480 0.0
-0.010963 0.004606 0.0
-0.012772 0.004648 0.0
-0.014580 0.004617 0.0
-0.016362 0.004523 0.0
-0.018096 0.004376 0.0
-0.019762 0.004183 0.0
-0.021344 0.003950 0.0
-0.022827 0.003682 0.0
-0.024199 0.003383 0.0
-0.025446 0.003056 0.0
-0.026560 0.002704 0.0
-0.027530 0.002327 0.0
-0.028348 0.001929 0.0
-0.029005 0.001510 0.0
-0.029495 0.001073 0.0
-0.029810 0.000619 0.0
-0.029946 0.000150 0.0
-0.029897 -0.000330 0.0
-0.029659 -0.000820 0.0
-0.029232 -0.001314 0.0
-0.028614 -0.001808 0.0
-0.027807 -0.002297 0.0
-0.026815 -0.002775 0.0
-0.025643 -0.003234 0.0
-0.024302 -0.003666 0.0
-0.022802 -0.004062 0.0
-0.021161 -0.004413 0.0
-0.019398 -0.004707 0.0
-0.017535 -0.004934 0.0
-0.015600 -0.005082 0.0
-0.013626 -0.005139 0.0
-0.011646 -0.005095 0.0
-0.009699 -0.004939 0.0
-0.007827 -0.004665 0.0
-0.006071 -0.004267 0.0
-0.004473 -0.003746 0.0
-0.003075 -0.003113 0.0
-0.001911 -0.002388 0.0
-0.001011 -0.001610 0.0
-0.000396 -0.000844 0.0
-0.000081 -0.000192 0.0
-0.000108 0.000403 0.0
-0.000511 0.001394 0.0
-0.001266 0.002430 0.0
-0.002331 0.003417 0.0
-0.003663 0.004297 0.0
-0.005221 0.005039 0.0
-0.006962 0.005631 0.0
-0.008843 0.006072 0.0
-0.010825 0.006371 0.0
-0.012869 0.006540 0.0
-0.014940 0.006593 0.0
-0.017007 0.006546 0.0
-0.019041 0.006411 0.0
-0.021019 0.006200 0.0
-0.022918 0.005925 0.0
-0.024721 0.005593 0.0
-0.026409 0.005211 0.0
-0.027970 0.004785 0.0
-0.029389 0.004320 0.0
-0.030654 0.003819 0.0
-0.031755 0.003284 0.0
-0.032683 0.002718 0.0
-0.033427 0.002123 0.0
-0.033980 0.001503 0.0
-0.034334 0.000859 0.0
-0.034483 0.000195 0.0
-0.034423 -0.000485 0.0
-0.034148 -0.001177 0.0
-0.033657 -0.001875 0.0
-0.032950 -0.002572 0.0
-0.032029 -0.003262 0.0
-0.030897 -0.003935 0.0
-0.029561 -0.004581 0.0
-0.028033 -0.005189 0.0
-0.026326 -0.005746 0.0
-0.024457 -0.006239 0.0
-0.022449 -0.006653 0.0
-0.020328 -0.006973 0.0
-0.018124 -0.007182 0.0
-0.015872 -0.007266 0.0
-0.013611 -0.007209 0.0
-0.011383 -0.006999 0.0
-0.009233 -0.006627 0.0
-0.007209 -0.006086 0.0
-0.005355 -0.005378 0.0
-0.003718 -0.004517 0.0
-0.002339 -0.003527 0.0
-0.001255 -0.002454 0.0
-0.000500 -0.001369 0.0
-0.000104 -0.000377 0.0
-0.000129 0.000639 0.0
-0.000606 0.002037 0.0
-0.001490 0.003426 0.0
-0.002723 0.004718 0.0
-0.004250 0.005856 0.0
-0.006021 0.006809 0.0
-0.007987 0.007567 0.0
-0.010101 0.008131 0.0
-0.012319 0.008511 0.0
-0.014599 0.008723 0.0
-0.016903 0.008786 0.0
-0.019199 0.008716 0.0
-0.021457 0.008532 0.0
-0.023649 0.008249 0.0
-0.025753 0.007879 0.0
-0.027748 0.007435 0.0
-0.029617 0.006926 0.0
-0.031343 0.006357 0.0
-0.032912 0.005736 0.0
-0.034311 0.005067 0.0
-0.035527 0.004354 0.0
-0.036552 0.003599 0.0
-0.037373 0.002807 0.0
-0.037983 0.001981 0.0
-0.038374 0.001125 0.0
-0.038538 0.000242 0.0
-0.038469 -0.000661 0.0
-0.038165 -0.001580 0.0
-0.037621 -0.002506 0.0
-0.036838 -0.003431 0.0
-0.035818 -0.004345 0.0
-0.034566 -0.005236 0.0
-0.033088 -0.006092 0.0
-0.031396 -0.006897 0.0
-0.029506 -0.007635 0.0
-0.027437 -0.008288 0.0
-0.025212 -0.008837 0.0
-0.022860 -0.009262 0.0
-0.020415 -0.009543 0.0
-0.017913 -0.009659 0.0
-0.015398 -0.009593 0.0
-0.012914 -0.009327 0.0
-0.010511 -0.008851 0.0
-0.008240 -0.008158 0.0
-0.006151 -0.007249 0.0
-0.004294 -0.006140 0.0
-0.002718 -0.004859 0.0
-0.001468 -0.003456 0.0
-0.000589 -0.002003 0.0
-0.000123 -0.000604 0.0
-0.000147 0.000915 0.0
-0.000688 0.002780 0.0
-0.001687 0.004567 0.0
-0.003072 0.006195 0.0
-0.004778 0.007612 0.0
-0.006746 0.008792 0.0
-0.008919 0.009724 0.0
-0.011246 0.010415 0.0
-0.013679 0.010877 0.0
-0.016173 0.011132 0.0
-0.018690 0.011199 0.0
-0.021193 0.011102 0.0
-0.023651 0.010862 0.0
-0.026036 0.010496 0.0
-0.028323 0.010023 0.0
-0.030491 0.009455 0.0
-0.032521 0.008804 0.0
-0.034396 0.008079 0.0
-0.036100 0.007287 0.0
-0.037619 0.006434 0.0
-0.038941 0.005525 0.0
-0.040054 0.004565 0.0
-0.040948 0.003557 0.0
-0.041613 0.002506 0.0
-0.042040 0.001417 0.0
-0.042221 0.000295 0.0
-0.042150 -0.000853 0.0
-0.041824 -0.002019 0.0
-0.041238 -0.003195 0.0
-0.040391 -0.004370 0.0
-0.039287 -0.005530 0.0
-0.037929 -0.006662 0.0
-0.036326 -0.007748 0.0
-0.034490 -0.008769 0.0
-0.032436 -0.009707 0.0
-0.030185 -0.010537 0.0
-0.027762 -0.011235 0.0
-0.025199 -0.011778 0.0
-0.022531 -0.012140 0.0
-0.019798 -0.012296 0.0
-0.017046 -0.012223 0.0
-0.014324 -0.011902 0.0
-0.011684 -0.011319 0.0
-0.009181 -0.010464 0.0
-0.006872 -0.009341 0.0
-0.004811 -0.007965 0.0
-0.003054 -0.006367 0.0
-0.001654 -0.004597 0.0
-0.000665 -0.002731 0.0
-0.000139 -0.000867 0.0
-0.000162 0.001224 0.0
-0.000761 0.003611 0.0
-0.001863 0.005838 0.0
-0.003386 0.007833 0.0
-0.005256 0.009550 0.0
-0.007404 0.010969 0.0
-0.009769 0.012084 0.0
-0.012294 0.012906 0.0
-0.014926 0.013451 0.0
-0.017620 0.013746 0.0
-0.020332 0.013814 0.0
-0.023026 0.013684 0.0
-0.025668 0.013380 0.0
-0.028230 0.012925 0.0
-0.030685 0.012338 0.0
-0.033012 0.011636 0.0
-0.035190 0.010832 0.0
-0.037202 0.009938 0.0
-0.039031 0.008962 0.0
-0.040664 0.007911 0.0
-0.042085 0.006792 0.0
-0.043284 0.005610 0.0
-0.044249 0.004370 0.0
-0.044969 0.003078 0.0
-0.045435 0.001738 0.0
-0.045638 0.000359 0.0
-0.045573 -0.001053 0.0
-0.045232 -0.002487 0.0
-0.044613 -0.003933 0.0
-0.043715 -0.005377 0.0
-0.042539 -0.006804 0.0
-0.041089 -0.008195 0.0
-0.039375 -0.009532 0.0
-0.037407 -0.010790 0.0
-0.035202 -0.011945 0.0
-0.032783 -0.012969 0.0
-0.030176 -0.013833 0.0
-0.027414 -0.014507 0.0
-0.024534 -0.014960 0.0
-0.021580 -0.015163 0.0
-0.018600 -0.015088 0.0
-0.015648 -0.014712 0.0
-0.012780 -0.014017 0.0
-0.010056 -0.012993 0.0
-0.007536 -0.011642 0.0
-0.005283 -0.009979 0.0
-0.003357 -0.008036 0.0
-0.001819 -0.005866 0.0
-0.000730 -0.003541 0.0
-0.000153 -0.001159 0.0
-0.000176 0.001562 0.0
-0.000825 0.004521 0.0
-0.002021 0.007226 0.0
-0.003671 0.009617 0.0
-0.005693 0.011657 0.0
-0.008010 0.013328 0.0
-0.010555 0.014635 0.0
-0.013265 0.015590 0.0
-0.016085 0.016220 0.0
-0.018966 0.016551 0.0
-0.021863 0.016617 0.0
-0.024736 0.016448 0.0
-0.027552 0.016074 0.0
-0.030280 0.015521 0.0
-0.032894 0.014811 0.0
-0.035371 0.013965 0.0
-0.037690 0.012999 0.0
-0.039832 0.011925 0.0
-0.041782 0.010753 0.0
-0.043524 0.009493 0.0
-0.045043 0.008152 0.0
-0.046328 0.006734 0.0
-0.047365 0.005248 0.0
-0.048144 0.003699 0.0
-0.048655 0.002094 0.0
-0.048887 0.000440 0.0
-0.048834 -0.001252 0.0
-0.048489 -0.002972 0.0
-0.047848 -0.004707 0.0
-0.046909 -0.006440 0.0
-0.045672 -0.008153 0.0
-0.044142 -0.009826 0.0
-0.042326 -0.011432 0.0
-0.040236 -0.012947 0.0
-0.037891 -0.014338 0.0
-0.035311 -0.015574 0.0
-0.032526 -0.016619 0.0
-0.029570 -0.017438 0.0
-0.026483 -0.017995 0.0
-0.023312 -0.018253 0.0
-0.020108 -0.018181 0.0
-0.016928 -0.017750 0.0
-0.013835 -0.016940 0.0
-0.010892 -0.015737 0.0
-0.008166 -0.014143 0.0
-0.005725 -0.012172 0.0
-0.003637 -0.009857 0.0
-0.001970 -0.007250 0.0
-0.000790 -0.004425 0.0
-0.000165 -0.001477 0.0
-0.000188 0.001926 0.0
-0.000885 0.005502 0.0
-0.002167 0.008724 0.0
-0.003936 0.011539 0.0
-0.006100 0.013920 0.0
-0.008577 0.015859 0.0
-0.011293 0.017365 0.0
-0.014181 0.018459 0.0
-0.017182 0.019172 0.0
-0.020242 0.019540 0.0
-0.023316 0.019599 0.0
-0.026362 0.019386 0.0
-0.029345 0.018935 0.0
-0.032234 0.018276 0.0
-0.035001 0.017437 0.0
-0.037624 0.016439 0.0
-0.040080 0.015301 0.0
-0.042351 0.014037 0.0
-0.044421 0.012660 0.0
-0.046272 0.011180 0.0
-0.047892 0.009604 0.0
-0.049265 0.007940 0.0
-0.050380 0.006195 0.0
-0.051224 0.004375 0.0
-0.051786 0.002490 0.0
-0.052056 0.000547 0.0
-0.052026 -0.001443 0.0
-0.051686 -0.003466 0.0
-0.051034 -0.005507 0.0
-0.050064 -0.007549 0.0
-0.048776 -0.009569 0.0
-0.047175 -0.011542 0.0
-0.045267 -0.013440 0.0
-0.043064 -0.015231 0.0
-0.040583 -0.016880 0.0
-0.037847 -0.018347 0.0
-0.034886 -0.019592 0.0
-0.031737 -0.020572 0.0
-0.028441 -0.021244 0.0
-0.025049 -0.021568 0.0
-0.021616 -0.021503 0.0
-0.018205 -0.021019 0.0
-0.014882 -0.020088 0.0
-0.011717 -0.018697 0.0
-0.008783 -0.016843 0.0
-0.006155 -0.014541 0.0
-0.003907 -0.011824 0.0
-0.002113 -0.008745 0.0
-0.000845 -0.005378 0.0
-0.000176 -0.001818 0.0
-0.000200 0.002315 0.0
-0.000941 0.006550 0.0
-0.002305 0.010323 0.0
-0.004187 0.013591 0.0
-0.006489 0.016334 0.0
-0.009120 0.018554 0.0
-0.012003 0.020268 0.0
-0.015064 0.021505 0.0
-0.018241 0.022304 0.0
-0.021478 0.022706 0.0
-0.024725 0.022754 0.0
-0.027941 0.022492 0.0
-0.031089 0.021959 0.0
-0.034136 0.021189 0.0
-0.037056 0.020212 0.0
-0.039823 0.019054 0.0
-0.042417 0.017736 0.0
-0.044819 0.016275 0.0
-0.047010 0.014684 0.0
-0.048976 0.012973 0.0
-0.050700 0.011154 0.0
-0.052168 0.009232 0.0
-0.053368 0.007217 0.0
-0.054285 0.005115 0.0
-0.054909 0.002936 0.0
-0.055227 0.000689 0.0
-0.055229 -0.001613 0.0
-0.054907 -0.003957 0.0
-0.054254 -0.006323 0.0
-0.053264 -0.008692 0.0
-0.051937 -0.011040 0.0
-0.050274 -0.013336 0.0
-0.048280 -0.015548 0.0
-0.045969 -0.017639 0.0
-0.043356 -0.019567 0.0
-0.040465 -0.021287 0.0
-0.037326 -0.022751 0.0
-0.033979 -0.023910 0.0
-0.030468 -0.024713 0.0
-0.026847 -0.025112 0.0
-0.023176 -0.025062 0.0
-0.019522 -0.024524 0.0
-0.015959 -0.023469 0.0
-0.012562 -0.021877 0.0
-0.009413 -0.019746 0.0
-0.006591 -0.017088 0.0
-0.004179 -0.013938 0.0
-0.002256 -0.010348 0.0
-0.000901 -0.006397 0.0
-0.000187 -0.002182 0.0
-0.000212 0.002726 0.0
-0.000995 0.007662 0.0
-0.002440 0.012020 0.0
-0.004433 0.015768 0.0
-0.006869 0.018895 0.0
-0.009654 0.021410 0.0
-0.012701 0.023342 0.0
-0.015934 0.024727 0.0
-0.019287 0.025612 0.0
-0.022699 0.026047 0.0
-0.026121 0.026082 0.0
-0.029507 0.025767 0.0
-0.032820 0.025145 0.0
-0.036028 0.024257 0.0
-0.039102 0.023137 0.0
-0.042017 0.021812 0.0
-0.044752 0.020307 0.0
-0.047288 0.018641 0.0
-0.049607 0.016828 0.0
-0.051692 0.014880 0.0
-0.053528 0.012807 0.0
-0.055100 0.010619 0.0
-0.056394 0.008323 0.0
-0.057396 0.005928 0.0
-0.058093 0.003443 0.0
-0.058471 0.000878 0.0
-0.058519 -0.001752 0.0
-0.058227 -0.004432 0.0
-0.057585 -0.007143 0.0
-0.056588 -0.009860 0.0
-0.055231 -0.012556 0.0
-0.053515 -0.015199 0.0
-0.051444 -0.017749 0.0
-0.049028 -0.020165 0.0
-0.046285 -0.022397 0.0
-0.043237 -0.024395 0.0
-0.039916 -0.026102 0.0
-0.036363 -0.027460 0.0
-0.032625 -0.028411 0.0
-0.028761 -0.028899 0.0
-0.024836 -0.028871 0.0
-0.020923 -0.028282 0.0
-0.017103 -0.027096 0.0
-0.013458 -0.025291 0.0
-0.010077 -0.022862 0.0
-0.007050 -0.019821 0.0
-0.004463 -0.016203 0.0
-0.002405 -0.012064 0.0
-0.000958 -0.007485 0.0
-0.000198 -0.002567 0.0
-0.000223 0.003161 0.0
-0.001050 0.008837 0.0
-0.002575 0.013815 0.0
-0.004680 0.018070 0.0
-0.007252 0.021601 0.0
-0.010190 0.024427 0.0
-0.013404 0.026585 0.0
-0.016811 0.028124 0.0
-0.020342 0.029097 0.0
-0.023933 0.029565 0.0
-0.027531 0.029584 0.0
-0.031091 0.029211 0.0
-0.034574 0.028497 0.0
-0.037946 0.027485 0.0
-0.041179 0.026215 0.0
-0.044247 0.024718 0.0
-0.047130 0.023020 0.0
-0.049807 0.021141 0.0
-0.052261 0.019099 0.0
-0.054474 0.016907 0.0
-0.056432 0.014574 0.0
-0.058119 0.012111 0.0
-0.059519 0.009525 0.0
-0.060617 0.006826 0.0
-0.061400 0.004023 0.0
-0.061852 0.001128 0.0
-0.061961 -0.001845 0.0
-0.061713 -0.004879 0.0
-0.061098 -0.007953 0.0
-0.060106 -0.011039 0.0
-0.058732 -0.014108 0.0
-0.056972 -0.017122 0.0
-0.054831 -0.020038 0.0
-0.052316 -0.022806 0.0
-0.049443 -0.025372 0.0
-0.046235 -0.027676 0.0
-0.042725 -0.029652 0.0
-0.038954 -0.031234 0.0
-0.034975 -0.032354 0.0
-0.030850 -0.032946 0.0
-0.026649 -0.032950 0.0
-0.022454 -0.032311 0.0
-0.018352 -0.030990 0.0
-0.014435 -0.028959 0.0
-0.010802 -0.026209 0.0
-0.007549 -0.022755 0.0
-0.004773 -0.018631 0.0
-0.002567 -0.013899 0.0
-0.001020 -0.008644 0.0
-0.000211 -0.002976 0.0
-0.000235 0.003619 0.0
-0.001106 0.010077 0.0
-0.002714 0.015710 0.0
-0.004933 0.020500 0.0
-0.007645 0.024455 0.0
-0.010741 0.027608 0.0
-0.014126 0.030003 0.0
-0.017713 0.031700 0.0
-0.021427 0.032764 0.0
-0.025202 0.033264 0.0
-0.028983 0.033265 0.0
-0.032723 0.032831 0.0
-0.036381 0.032019 0.0
-0.039924 0.030878 0.0
-0.043322 0.029453 0.0
-0.046551 0.027777 0.0
-0.049588 0.025880 0.0
-0.052415 0.023785 0.0
-0.055013 0.021508 0.0
-0.057366 0.019065 0.0
-0.059457 0.016465 0.0
-0.061270 0.013720 0.0
-0.062790 0.010836 0.0
-0.064000 0.007824 0.0
-0.064885 0.004693 0.0
-0.065428 0.001454 0.0
-0.065613 -0.001877 0.0
-0.065427 -0.005282 0.0
-0.064854 -0.008738 0.0
-0.063883 -0.012217 0.0
-0.062505 -0.015683 0.0
-0.060714 -0.019097 0.0
-0.058511 -0.022408 0.0
-0.055902 -0.025561 0.0
-0.052901 -0.028493 0.0
-0.049530 -0.031134 0.0
-0.045822 -0.033412 0.0
-0.041821 -0.035246 0.0
-0.037582 -0.036560 0.0
-0.033172 -0.037276 0.0
-0.028669 -0.037323 0.0
-0.024162 -0.036640 0.0
-0.019747 -0.035178 0.0
-0.015528 -0.032906 0.0
-0.011612 -0.029812 0.0
-0.008107 -0.025910 0.0
-0.005118 -0.021240 0.0
-0.002748 -0.015866 0.0
-0.001089 -0.009884 0.0
-0.000224 -0.003411 0.0
-0.000247 0.004101 0.0
-0.001165 0.011384 0.0
-0.002860 0.017706 0.0
-0.005199 0.023060 0.0
-0.008056 0.027464 0.0
-0.011318 0.030958 0.0
-0.014882 0.033601 0.0
-0.018655 0.035463 0.0
-0.022560 0.036620 0.0
-0.026527 0.037151 0.0
-0.030499 0.037131 0.0
-0.034426 0.036632 0.0
-0.038268 0.035718 0.0
-0.041990 0.034444 0.0
-0.045562 0.032858 0.0
-0.048960 0.030999 0.0
-0.052162 0.028898 0.0
-0.055148 0.026580 0.0
-0.057902 0.024064 0.0
-0.060405 0.021365 0.0
-0.062642 0.018493 0.0
-0.064596 0.015459 0.0
-0.066251 0.012271 0.0
-0.067589 0.008938 0.0
-0.068593 0.005468 0.0
-0.069245 0.001874 0.0
-0.069527 -0.001829 0.0
-0.069421 -0.005623 0.0
-0.068909 -0.009482 0.0
-0.067978 -0.013376 0.0
-0.066613 -0.017267 0.0
-0.064806 -0.021110 0.0
-0.062553 -0.024850 0.0
-0.059858 -0.028423 0.0
-0.056731 -0.031759 0.0
-0.053194 -0.034777 0.0
-0.049279 -0.037392 0.0
-0.045033 -0.039514 0.0
-0.040512 -0.041051 0.0
-0.035791 -0.041916 0.0
-0.030954 -0.042023 0.0
-0.026098 -0.041302 0.0
-0.021333 -0.039696 0.0
-0.016772 -0.037167 0.0
-0.012536 -0.033703 0.0
-0.008744 -0.029317 0.0
-0.005514 -0.024052 0.0
-0.002955 -0.017983 0.0
-0.001169 -0.011213 0.0
-0.000240 -0.003875 0.0
-0.000261 0.004609 0.0
-0.001228 0.012761 0.0
-0.003016 0.019812 0.0
-0.005482 0.025760 0.0
-0.008494 0.030634 0.0
-0.011930 0.034486 0.0
-0.015682 0.037388 0.0
-0.019653 0.039420 0.0
-0.023758 0.040673 0.0
-0.027927 0.041234 0.0
-0.032099 0.041191 0.0
-0.036224 0.040623 0.0
-0.040258 0.039602 0.0
-0.044168 0.038190 0.0
-0.047923 0.036439 0.0
-0.051500 0.034392 0.0
-0.054877 0.032083 0.0
-0.058034 0.029539 0.0
-0.060955 0.026780 0.0
-0.063622 0.023820 0.0
-0.066019 0.020672 0.0
-0.068130 0.017345 0.0
-0.069937 0.013847 0.0
-0.071421 0.010185 0.0
-0.072564 0.006368 0.0
-0.073346 0.002407 0.0
-0.073745 -0.001682 0.0
-0.073742 -0.005880 0.0
-0.073315 -0.010163 0.0
-0.072444 -0.014497 0.0
-0.071113 -0.018842 0.0
-0.069308 -0.023147 0.0
-0.067021 -0.027352 0.0
-0.064251 -0.031386 0.0
-0.061004 -0.035168 0.0
-0.057301 -0.038607 0.0
-0.053173 -0.041604 0.0
-0.048665 -0.044055 0.0
-0.043841 -0.045854 0.0
-0.038777 -0.046897 0.0
-0.033568 -0.047087 0.0
-0.028322 -0.046340 0.0
-0.023159 -0.044587 0.0
-0.018209 -0.041787 0.0
-0.013605 -0.037923 0.0
-0.009483 -0.033010 0.0
-0.005973 -0.027099 0.0
-0.003197 -0.020272 0.0
-0.001261 -0.012647 0.0
-0.000258 -0.004373 0.0
-0.000275 0.005145 0.0
-0.001297 0.014214 0.0
-0.003184 0.022033 0.0
-0.005787 0.028607 0.0
-0.008964 0.033976 0.0
-0.012587 0.038203 0.0
-0.016539 0.041374 0.0
-0.020718 0.043584 0.0
-0.025037 0.044933 0.0
-0.029419 0.045525 0.0
-0.033802 0.045456 0.0
-0.038134 0.044815 0.0
-0.042372 0.043683 0.0
-0.046480 0.042127 0.0
-0.050429 0.040207 0.0
-0.054195 0.037967 0.0
-0.057757 0.035447 0.0
-0.061096 0.032673 0.0
-0.064196 0.029667 0.0
-0.067041 0.026445 0.0
-0.069613 0.023018 0.0
-0.071897 0.019394 0.0
-0.073873 0.015581 0.0
-0.075524 0.011585 0.0
-0.076828 0.007414 0.0
-0.077763 0.003078 0.0
-0.078305 -0.001410 0.0
-0.078430 -0.006030 0.0
-0.078114 -0.010757 0.0
-0.077331 -0.015556 0.0
-0.076060 -0.020385 0.0
-0.074281 -0.025188 0.0
-0.071980 -0.029899 0.0
-0.069151 -0.034440 0.0
-0.065795 -0.038717 0.0
-0.061929 -0.042628 0.0
-0.057582 -0.046059 0.0
-0.052800 -0.048890 0.0
-0.047648 -0.050997 0.0
-0.042209 -0.052258 0.0
-0.036586 -0.052559 0.0
-0.030899 -0.051801 0.0
-0.025284 -0.049904 0.0
-0.019886 -0.046818 0.0
-0.014858 -0.042523 0.0
-0.010352 -0.037038 0.0
-0.006515 -0.030418 0.0
-0.003482 -0.022761 0.0
-0.001371 -0.014203 0.0
-0.000280 -0.004911 0.0
-0.000291 0.005711 0.0
-0.001371 0.015750 0.0
-0.003366 0.024380 0.0
-0.006117 0.031614 0.0
-0.009472 0.037502 0.0
-0.013295 0.042123 0.0
-0.017462 0.045574 0.0
-0.021864 0.047966 0.0
-0.026409 0.049414 0.0
-0.031017 0.050035 0.0
-0.035623 0.049936 0.0
-0.040174 0.049218 0.0
-0.044626 0.047969 0.0
-0.048942 0.046266 0.0
-0.053095 0.044171 0.0
-0.057061 0.041735 0.0
-0.060819 0.038999 0.0
-0.064352 0.035993 0.0
-0.067644 0.032739 0.0
-0.070680 0.029252 0.0
-0.073442 0.025545 0.0
-0.075916 0.021624 0.0
-0.078081 0.017494 0.0
-0.079919 0.013161 0.0
-0.081407 0.008630 0.0
-0.082521 0.003910 0.0
-0.083234 -0.000987 0.0
-0.083518 -0.006043 0.0
-0.083344 -0.011234 0.0
-0.082681 -0.016524 0.0
-0.081502 -0.021868 0.0
-0.079779 -0.027207 0.0
-0.077492 -0.032469 0.0
-0.074626 -0.037565 0.0
-0.071179 -0.042394 0.0
-0.067159 -0.046837 0.0
-0.062593 -0.050764 0.0
-0.057525 -0.054035 0.0
-0.052021 -0.056507 0.0
-0.046172 -0.058036 0.0
-0.040089 -0.058487 0.0
-0.033905 -0.057743 0.0
-0.027773 -0.055710 0.0
-0.021859 -0.052325 0.0
-0.016337 -0.047567 0.0
-0.011381 -0.041456 0.0
-0.007158 -0.034059 0.0
-0.003822 -0.025490 0.0
-0.001503 -0.015904 0.0
-0.000306 -0.005498 0.0
-0.000308 0.006310 0.0
-0.001453 0.017376 0.0
-0.003566 0.026862 0.0
-0.006477 0.034792 0.0
-0.010025 0.041227 0.0
-0.014063 0.046259 0.0
-0.018460 0.050001 0.0
-0.023101 0.052581 0.0
-0.027887 0.054130 0.0
-0.032735 0.054776 0.0
-0.037577 0.054643 0.0
-0.042359 0.053843 0.0
-0.047035 0.052472 0.0
-0.051570 0.050615 0.0
-0.055937 0.048341 0.0
-0.060112 0.045705 0.0
-0.064076 0.042751 0.0
-0.067814 0.039511 0.0
-0.071310 0.036008 0.0
-0.074549 0.032258 0.0
-0.077517 0.028270 0.0
-0.080198 0.024052 0.0
-0.082572 0.019606 0.0
-0.084620 0.014935 0.0
-0.086317 0.010042 0.0
-0.087638 0.004933 0.0
-0.088554 -0.000382 0.0
-0.089030 -0.005888 0.0
-0.089035 -0.011560 0.0
-0.088530 -0.017365 0.0
-0.087481 -0.023256 0.0
-0.085852 -0.029170 0.0
-0.083615 -0.035030 0.0
-0.080745 -0.040739 0.0
-0.077231 -0.046182 0.0
-0.073074 -0.051226 0.0
-0.068295 -0.055721 0.0
-0.062934 -0.059506 0.0
-0.057060 -0.062413 0.0
-0.050765 -0.064273 0.0
-0.044171 -0.064927 0.0
-0.037427 -0.064231 0.0
-0.030705 -0.062075 0.0
-0.024194 -0.058384 0.0
-0.018095 -0.053130 0.0
-0.012609 -0.046336 0.0
-0.007929 -0.038082 0.0
-0.004230 -0.028502 0.0
-0.001661 -0.017779 0.0
-0.000338 -0.006142 0.0
-0.000327 0.006946 0.0
-0.001542 0.019099 0.0
-0.003784 0.029494 0.0
-0.006870 0.038158 0.0
-0.010628 0.045167 0.0
-0.014900 0.050629 0.0
-0.019545 0.054673 0.0
-0.024441 0.057445 0.0
-0.029483 0.059093 0.0
-0.034585 0.059763 0.0
-0.039676 0.059590 0.0
-0.044700 0.058701 0.0
-0.049611 0.057201 0.0
-0.054375 0.055185 0.0
-0.058964 0.052727 0.0
-0.063358 0.049888 0.0
-0.067537 0.046713 0.0
-0.071489 0.043239 0.0
-0.075199 0.039487 0.0
-0.078655 0.035474 0.0
-0.081843 0.031210 0.0
-0.084747 0.026697 0.0
-0.087349 0.021937 0.0
-0.089630 0.016931 0.0
-0.091563 0.011677 0.0
-0.093122 0.006178 0.0
-0.094273 0.000440 0.0
-0.094981 -0.005525 0.0
-0.095205 -0.011695 0.0
-0.094903 -0.018037 0.0
-0.094030 -0.024506 0.0
-0.092543 -0.031036 0.0
-0.090401 -0.037544 0.0
-0.087569 -0.043926 0.0
-0.084024 -0.050054 0.0
-0.079757 -0.055777 0.0
-0.074781 -0.060926 0.0
-0.069129 -0.065313 0.0
-0.062868 -0.068742 0.0
-0.056094 -0.071013 0.0
-0.048938 -0.071936 0.0
-0.041565 -0.071339 0.0
-0.034170 -0.069086 0.0
-0.026969 -0.065085 0.0
-0.020195 -0.059302 0.0
-0.014083 -0.051762 0.0
-0.008858 -0.042561 0.0
-0.004725 -0.031855 0.0
-0.001854 -0.019865 0.0
-0.000377 -0.006857 0.0
-0.000348 0.007621 0.0
-0.001641 0.020931 0.0
-0.004024 0.032287 0.0
-0.007302 0.041728 0.0
-0.011288 0.049341 0.0
-0.015813 0.055251 0.0
-0.020725 0.059608 0.0
-0.025894 0.062575 0.0
-0.031209 0.064321 0.0
-0.036580 0.065008 0.0
-0.041933 0.064789 0.0
-0.047209 0.063802 0.0
-0.052365 0.062167 0.0
-0.057366 0.059984 0.0
-0.062185 0.057336 0.0
-0.066804 0.054290 0.0
-0.071206 0.050893 0.0
-0.075379 0.047184 0.0
-0.079313 0.043186 0.0
-0.082995 0.038914 0.0
-0.086415 0.034377 0.0
-0.089558 0.029576 0.0
-0.092408 0.024510 0.0
-0.094943 0.019174 0.0
-0.097139 0.013564 0.0
-0.098967 0.007678 0.0
-0.100391 0.001516 0.0
-0.101372 -0.004913 0.0
-0.101863 -0.011591 0.0
-0.101814 -0.018491 0.0
-0.101172 -0.025567 0.0
-0.099881 -0.032753 0.0
-0.097890 -0.039962 0.0
-0.095150 -0.047081 0.0
-0.091623 -0.053971 0.0
-0.087287 -0.060463 0.0
-0.082140 -0.066364 0.0
-0.076209 -0.071458 0.0
-0.069554 -0.075514 0.0
-0.062273 -0.078297 0.0
-0.054504 -0.079576 0.0
-0.046430 -0.079145 0.0
-0.038269 -0.076836 0.0
-0.030272 -0.072533 0.0
-0.022709 -0.066191 0.0
-0.015857 -0.057837 0.0
-0.009982 -0.047585 0.0
-0.005326 -0.035621 0.0
-0.002090 -0.022206 0.0
-0.000424 -0.007658 0.0
-0.000372 0.008341 0.0
-0.001750 0.022882 0.0
-0.004289 0.035259 0.0
-0.007777 0.045521 0.0
-0.012012 0.053769 0.0
-0.016810 0.060147 0.0
-0.022010 0.064825 0.0
-0.027471 0.067989 0.0
-0.033077 0.069828 0.0
-0.038731 0.070526 0.0
-0.044358 0.070251 0.0
-0.049898 0.069157 0.0
-0.055306 0.067376 0.0
-0.060550 0.065019 0.0
-0.065604 0.062175 0.0
-0.070452 0.058917 0.0
-0.075081 0.055297 0.0
-0.079481 0.051353 0.0
-0.083643 0.047112 0.0
-0.087560 0.042587 0.0
-0.091222 0.037786 0.0
-0.094617 0.032706 0.0
-0.097730 0.027343 0.0
-0.100541 0.021688 0.0
-0.103026 0.015732 0.0
-0.105155 0.009466 0.0
-0.106889 0.002886 0.0
-0.108186 -0.004006 0.0
-0.108994 -0.011200 0.0
-0.109255 -0.018671 0.0
-0.108905 -0.026379 0.0
-0.107878 -0.034258 0.0
-0.106105 -0.042220 0.0
-0.103524 -0.050144 0.0
-0.100078 -0.057880 0.0
-0.095727 -0.065240 0.0
-0.090453 -0.072007 0.0
-0.084269 -0.077930 0.0
-0.077225 -0.082742 0.0
-0.069416 -0.086160 0.0
-0.060988 -0.087909 0.0
-0.052139 -0.087736 0.0
-0.043114 -0.085431 0.0
-0.034202 -0.080848 0.0
-0.025720 -0.073922 0.0
-0.017994 -0.064684 0.0
-0.011344 -0.053263 0.0
-0.006058 -0.039884 0.0
-0.002378 -0.024859 0.0
-0.000483 -0.008566 0.0
-0.000398 0.009110 0.0
-0.001871 0.024964 0.0
-0.004582 0.038428 0.0
-0.008300 0.049559 0.0
-0.012807 0.058473 0.0
-0.017903 0.065337 0.0
-0.023413 0.070344 0.0
-0.029186 0.073704 0.0
-0.035099 0.075631 0.0
-0.041051 0.076328 0.0
-0.046962 0.075986 0.0
-0.052773 0.074773 0.0
-0.058440 0.072835 0.0
-0.063930 0.070293 0.0
-0.069221 0.067247 0.0
-0.074300 0.063772 0.0
-0.079156 0.059927 0.0
-0.083783 0.055751 0.0
-0.088176 0.051271 0.0
-0.092330 0.046500 0.0
-0.096240 0.041444 0.0
-0.099895 0.036098 0.0
-0.103285 0.030453 0.0
-0.106390 0.024495 0.0
-0.109188 0.018208 0.0
-0.111647 0.011578 0.0
-0.113729 0.004592 0.0
-0.115387 -0.002756 0.0
-0.116564 -0.010464 0.0
-0.117194 -0.018515 0.0
-0.117204 -0.026874 0.0
-0.116514 -0.035480 0.0
-0.115039 -0.044244 0.0
-0.112697 -0.053043 0.0
-0.109410 -0.061714 0.0
-0.105117 -0.070051 0.0
-0.099777 -0.077810 0.0
-0.093383 -0.084705 0.0
-0.085972 -0.090423 0.0
-0.077630 -0.094629 0.0
-0.068505 -0.096991 0.0
-0.058811 -0.097197 0.0
-0.048822 -0.094984 0.0
-0.038867 -0.090161 0.0
-0.029318 -0.082640 0.0
-0.020565 -0.072445 0.0
-0.012993 -0.059725 0.0
-0.006950 -0.044750 0.0
-0.002732 -0.027892 0.0
-0.000555 -0.009604 0.0
-0.000426 0.009934 0.0
-0.002005 0.027192 0.0
-0.004907 0.041813 0.0
-0.008879 0.053864 0.0
-0.013683 0.063479 0.0
-0.019102 0.070846 0.0
-0.024945 0.076188 0.0
-0.031052 0.079741 0.0
-0.037289 0.081745 0.0
-0.043551 0.082428 0.0
-0.049756 0.082003 0.0
-0.055844 0.080655 0.0
-0.061771 0.078546 0.0
-0.067507 0.075808 0.0
-0.073033 0.072550 0.0
-0.078338 0.068853 0.0
-0.083417 0.064780 0.0
-0.088267 0.060374 0.0
-0.092887 0.055661 0.0
-0.097276 0.050654 0.0
-0.101433 0.045357 0.0
-0.105353 0.039760 0.0
-0.109026 0.033852 0.0
-0.112437 0.027612 0.0
-0.115565 0.021017 0.0
-0.118380 0.014044 0.0
-0.120844 0.006671 0.0
-0.122905 -0.001117 0.0
-0.124503 -0.009329 0.0
-0.125564 -0.017958 0.0
-0.126006 -0.026979 0.0