# vtk DataFile Version 3.0
Scalar Field
ASCII
DATASET RECTILINEAR_GRID
DIMENSIONS 50 50 1
X_COORDINATES 50 double
0.100000 0.300000 0.500000 0.700000 0.900000 1.100000 1.300000 1.500000 1.700000 1.900000 2.100000 2.300000 2.500000 2.700000 2.900000 3.100000 3.300000 3.500000 3.700000 3.900000 4.100000 4.300000 4.500000 4.700000 4.900000 5.100000 5.300000 5.500000 5.700000 5.900000 6.100000 6.300000 6.500000 6.700000 6.900000 7.100000 7.300000 7.500000 7.700000 7.900000 8.100000 8.300000 8.500000 8.700000 8.900000 9.100000 9.300000 9.500000 9.700000 9.900000 
Y_COORDINATES 50 double
0.100000 0.300000 0.500000 0.700000 0.900000 1.100000 1.300000 1.500000 1.700000 1.900000 2.100000 2.300000 2.500000 2.700000 2.900000 3.100000 3.300000 3.500000 3.700000 3.900000 4.100000 4.300000 4.500000 4.700000 4.900000 5.100000 5.300000 5.500000 5.700000 5.900000 6.100000 6.300000 6.500000 6.700000 6.900000 7.100000 7.300000 7.500000 7.700000 7.900000 8.100000 8.300000 8.500000 8.700000 8.900000 9.100000 9.300000 9.500000 9.700000 9.900000 
Z_COORDINATES 1 double
0.0
POINT_DATA 2500
SCALARS Skalarfeld double 1
LOOKUP_TABLE default
0.017630
0.017580
0.017621
0.017781
0.018062
0.018462
0.018980
0.019616
0.020373
0.021253
0.022260
0.023401
0.024678
0.026100
0.027673
0.029403
0.031299
0.033370
0.035624
0.038071
0.040720
0.043580
0.046660
0.049968
0.053510
0.057289
0.061304
0.065552
0.070021
0.074692
0.079541
0.084529
0.089613
0.094723
0.099790
0.104737
0.109478
0.113927
0.118003
0.121630
0.124753
0.127331
0.129352
0.130826
0.131787
0.132292
0.132419
0.132266
0.131963
0.131683
0.017679
0.017628
0.017687
0.017861
0.018149
0.018552
0.019071
0.019708
0.020464
0.021344
0.022351
0.023490
0.024767
0.026187
0.027756
0.029483
0.031376
0.033441
0.035690
0.038129
0.040770
0.043620
0.046690
0.049986
0.053514
0.057279
0.061280
0.065513
0.069968
0.074627
0.079464
0.084445
0.089518
0.094621
0.099685
0.104631
0.109371
0.113818
0.117887
0.121504
0.124608
0.127161
0.129151
0.130590
0.131517
0.131995
0.132107
0.131960
0.131681
0.131402
0.017618
0.017551
0.017612
0.017791
0.018084
0.018488
0.019006
0.019640
0.020393
0.021267
0.022268
0.023400
0.024668
0.026079
0.027638
0.029353
0.031231
0.033282
0.035514
0.037936
0.040558
0.043389
0.046439
0.049715
0.053225
0.056974
0.060963
0.065189
0.069643
0.074311
0.079167
0.084176
0.089284
0.094437
0.099560
0.104569
0.109373
0.113878
0.117993
0.121637
0.124745
0.127277
0.129221
0.130595
0.131444
0.131841
0.131881
0.131675
0.131349
0.131025
0.017393
0.017312
0.017371
0.017550
0.017842
0.018244
0.018758
0.019385
0.020129
0.020993
0.021982
0.023100
0.024353
0.025745
0.027285
0.028979
0.030834
0.032860
0.035066
0.037460
0.040053
0.042856
0.045877
0.049128
0.052616
0.056348
0.060329
0.064556
0.069026
0.073724
0.078628
0.083703
0.088897
0.094153
0.099391
0.104524
0.109450
0.114066
0.118271
0.121972
0.125097
0.127603
0.129477
0.130746
0.131469
0.131733
0.131648
0.131339
0.130937
0.130568
0.016978
0.016890
0.016945
0.017120
0.017408
0.017803
0.018308
0.018924
0.019654
0.020503
0.021473
0.022571
0.023800
0.025167
0.026679
0.028343
0.030166
0.032157
0.034326
0.036683
0.039239
0.042005
0.044992
0.048212
0.051675
0.055392
0.059368
0.063608
0.068107
0.072858
0.077840
0.083020
0.088347
0.093758
0.099170
0.104484
0.109591
0.114372
0.118708
0.122494
0.125646
0.128113
0.129886
0.131002
0.131540
0.131611
0.131347
0.130893
0.130394
0.129985
0.016365
0.016272
0.016323
0.016492
0.016771
0.017156
0.017648
0.018248
0.018960
0.019787
0.020733
0.021802
0.023001
0.024335
0.025810
0.027434
0.029216
0.031163
0.033286
0.035597
0.038106
0.040827
0.043772
0.046956
0.050392
0.054092
0.058068
0.062326
0.066870
0.071693
0.076780
0.082102
0.087606
0.093224
0.098867
0.104427
0.109778
0.114781
0.119298
0.123202
0.126390
0.128803
0.130435
0.131339
0.131620
0.131424
0.130920
0.130277
0.129658
0.129208
0.015551
0.015456
0.015501
0.015663
0.015931
0.016302
0.016776
0.017356
0.018043
0.018843
0.019757
0.020792
0.021953
0.023245
0.024675
0.026250
0.027980
0.029873
0.031940
0.034193
0.036646
0.039312
0.042206
0.045346
0.048747
0.052427
0.056401
0.060682
0.065276
0.070185
0.075399
0.080892
0.086615
0.092492
0.098428
0.104302
0.109968
0.115265
0.120023
0.124086
0.127326
0.129671
0.131114
0.131731
0.131667
0.131117
0.130297
0.129413
0.128647
0.128153
0.014538
0.014441
0.014480
0.014632
0.014887
0.015240
0.015693
0.016247
0.016905
0.017671
0.018548
0.019541
0.020655
0.021896
0.023271
0.024788
0.026455
0.028282
0.030281
0.032465
0.034848
0.037446
0.040277
0.043360
0.046715
0.050365
0.054328
0.058624
0.063268
0.068267
0.073619
0.079305
0.085283
0.091469
0.097762
0.104025
0.110091
0.115765
0.120841
0.125120
0.128439
0.130701
0.131901
0.132141
0.131621
0.130608
0.129383
0.128197
0.127253
0.126712
0.013330
0.013231
0.013264
0.013405
0.013643
0.013975
0.014403
0.014927
0.015550
0.016276
0.017108
0.018051
0.019110
0.020291
0.021600
0.023047
0.024639
0.026388
0.028305
0.030404
0.032701
0.035214
0.037963
0.040971
0.044261
0.047860
0.051794
0.056089
0.060768
0.065848
0.071335
0.077222
0.083482
0.090021
0.096733
0.103467
0.110028
0.116182
0.121673
0.126246
0.129684
0.131855
0.132748
0.132501
0.131389
0.129778
0.128042
0.126489
0.125336
0.124752
0.011932
0.011832
0.011857
0.011985
0.012204
0.012513
0.012910
0.013399
0.013982
0.014661
0.015441
0.016326
0.017320
0.018431
0.019664
0.021028
0.022531
0.024186
0.026004
0.028000
0.030191
0.032597
0.035240
0.038146
0.041342
0.044861
0.048734
0.052996
0.057680
0.062813
0.068415
0.074490
0.081038
0.087960
0.095146
0.102430
0.109590
0.116344
0.122372
0.127341
0.130960
0.133039
0.133553
0.132685
0.130813
0.128441
0.126076
0.124093
0.122729
0.122092
0.010352
0.010251
0.010268
0.010380
0.010578
0.010859
0.011223
0.011672
0.012208
0.012834
0.013554
0.014372
0.015292
0.016321
0.017465
0.018732
0.020132
0.021675
0.023374
0.025245
0.027305
0.029576
0.032082
0.034851
0.037914
0.041309
0.045075
0.049255
0.053891
0.059025
0.064692
0.070916
0.077716
0.085026
0.092720
0.100623
0.108483
0.115967
0.122673
0.128168
0.132053
0.134051
0.134108
0.132458
0.129623
0.126300
0.123187
0.120778
0.119181
0.118507
0.008598
0.008495
0.008503
0.008598
0.008772
0.009022
0.009349
0.009753
0.010236
0.010802
0.011454
0.012196
0.013032
0.013967
0.015009
0.016164
0.017442
0.018853
0.020411
0.022131
0.024031
0.026132
0.028462
0.031049
0.033930
0.037144
0.040738
0.044762
0.049271
0.054321
0.059967
0.066253
0.073212
0.080870
0.089060
0.097611
0.106249
0.114582
0.122116
0.128290
0.132558
0.134513
0.134036
0.131420
0.127384
0.122891
0.119022
0.116159
0.114383
0.113728
0.006679
0.006575
0.006572
0.006648
0.006796
0.007012
0.007296
0.007650
0.008075
0.008575
0.009151
0.009807
0.010547
0.011377
0.012301
0.013328
0.014465
0.015723
0.017114
0.018653
0.020358
0.022251
0.024358
0.026709
0.029343
0.032302
0.035638
0.039409
0.043679
0.048519
0.054004
0.060201
0.067169
0.075028
0.083616
0.092764
0.102180
0.111424
0.119908
0.126924
0.131745
0.133771
0.132756
0.129018
0.123532
0.117702
0.112972
0.109777
0.108005
0.107485
0.004605
0.004499
0.004484
0.004541
0.004660
0.004838
0.005076
0.005375
0.005736
0.006161
0.006653
0.007214
0.007848
0.008559
0.009352
0.010233
0.011209
0.012290
0.013486
0.014812
0.016283
0.017921
0.019751
0.021802
0.024112
0.026725
0.029695
0.033084
0.036964
0.041419
0.046540
0.052420
0.059155
0.066871
0.075630
0.085164
0.095194
0.105255
0.114692
0.122678
0.128297
0.130708
0.129424
0.124657
0.117590
0.110271
0.104545
0.101240
0.099788
0.099599
0.002387
0.002279
0.002252
0.002287
0.002375
0.002513
0.002701
0.002940
0.003231
0.003575
0.003975
0.004431
0.004948
0.005527
0.006173
0.006890
0.007684
0.008562
0.009535
0.010612
0.011808
0.013140
0.014631
0.016309
0.018206
0.020364
0.022836
0.025682
0.028979
0.032813
0.037286
0.042513
0.048609
0.055680
0.064084
0.073497
0.083644
0.094080
0.104174
0.113084
0.119788
0.123217
0.122535
0.117587
0.109421
0.100532
0.094089
0.090571
0.089755
0.090076
0.000037
-0.000073
-0.000112
-0.000101
-0.000047
0.000048
0.000182
0.000357
0.000572
0.000830
0.001129
0.001473
0.001861
0.002295
0.002779
0.003315
0.003906
0.004557
0.005274
0.006066
0.006941
0.007914
0.009001
0.010222
0.011606
0.013185
0.015003
0.017114
0.019585
0.022497
0.025951
0.030060
0.034946
0.040727
0.047573
0.055905
0.065105
0.074850
0.084722
0.094101
0.102076
0.107472
0.109067
0.106066
0.098830
0.089607
0.082305
0.078786
0.078471
0.079284
-0.002432
-0.002544
-0.002597
-0.002610
-0.002592
-0.002543
-0.002465
-0.002359
-0.002223
-0.002059
-0.001867
-0.001645
-0.001395
-0.001117
-0.000810
-0.000473
-0.000106
0.000293
0.000725
0.001194
0.001705
0.002262
0.002875
0.003554
0.004314
0.005176
0.006166
0.007317
0.008675
0.010297
0.012253
0.014625
0.017494
0.020922
0.024927
0.029940
0.036343
0.043488
0.051506
0.060369
0.069570
0.078019
0.084167
0.086427
0.083948
0.077658
0.070921
0.067876
0.066927
0.067939
-0.005007
-0.005121
-0.005188
-0.005227
-0.005245
-0.005244
-0.005226
-0.005191
-0.005140
-0.005074
-0.004995
-0.004903
-0.004800
-0.004689
-0.004571
-0.004448
-0.004324
-0.004201
-0.004083
-0.003971
-0.003871
-0.003784
-0.003715
-0.003666
-0.003641
-0.003642
-0.003670
-0.003727
-0.003810
-0.003917
-0.004047
-0.004212
-0.004451
-0.004841
-0.005455
-0.006245
-0.006080
-0.004072
-0.000022
0.007044
0.017224
0.029647
0.042564
0.053664
0.060700
0.062528
0.060374
0.058098
0.056421
0.056811
-0.007675
-0.007789
-0.007871
-0.007936
-0.007992
-0.008041
-0.008085
-0.008124
-0.008161
-0.008197
-0.008235
-0.008279
-0.008330
-0.008395
-0.008477
-0.008583
-0.008719
-0.008892
-0.009113
-0.009391
-0.009740
-0.010175
-0.010715
-0.011381
-0.012202
-0.013211
-0.014451
-0.015976
-0.017858
-0.020189
-0.023106
-0.026809
-0.031581
-0.037743
-0.045455
-0.054383
-0.063446
-0.069707
-0.071651
-0.067519
-0.056715
-0.039902
-0.018876
0.003619
0.024190
0.039450
0.047319
0.048825
0.048097
0.045882
-0.010419
-0.010535
-0.010631
-0.010722
-0.010817
-0.010917
-0.011023
-0.011138
-0.011265
-0.011406
-0.011566
-0.011749
-0.011961
-0.012209
-0.012500
-0.012844
-0.013252
-0.013739
-0.014319
-0.015014
-0.015846
-0.016847
-0.018052
-0.019508
-0.021274
-0.023426
-0.026062
-0.029312
-0.033356
-0.038440
-0.044925
-0.053325
-0.064294
-0.078443
-0.095862
-0.115553
-0.135209
-0.151709
-0.160849
-0.160266
-0.149199
-0.128248
-0.099151
-0.064694
-0.028807
0.003417
0.026508
0.037304
0.039400
0.031793
-0.013225
-0.013342
-0.013452
-0.013570
-0.013703
-0.013854
-0.014024
-0.014216
-0.014433
-0.014681
-0.014964
-0.015289
-0.015664
-0.016099
-0.016604
-0.017193
-0.017883
-0.018693
-0.019648
-0.020778
-0.022119
-0.023717
-0.025631
-0.027935
-0.030727
-0.034131
-0.038319
-0.043521
-0.050061
-0.058404
-0.069230
-0.083475
-0.102234
-0.126313
-0.155432
-0.187523
-0.218804
-0.244881
-0.261213
-0.264061
-0.252921
-0.228576
-0.192729
-0.147886
-0.097762
-0.048149
-0.007346
0.015867
0.018547
0.007759
-0.016078
-0.016196
-0.016320
-0.016464
-0.016635
-0.016836
-0.017068
-0.017337
-0.017645
-0.017998
-0.018405
-0.018872
-0.019411
-0.020033
-0.020754
-0.021591
-0.022565
-0.023704
-0.025041
-0.026614
-0.028476
-0.030690
-0.033338
-0.036525
-0.040391
-0.045121
-0.050968
-0.058284
-0.067571
-0.079566
-0.095335
-0.116288
-0.143919
-0.179035
-0.220664
-0.265378
-0.307818
-0.342279
-0.364473
-0.369898
-0.358540
-0.331599
-0.290934
-0.238711
-0.177819
-0.113499
-0.055571
-0.018321
-0.011692
-0.018264
-0.018963
-0.019081
-0.019218
-0.019387
-0.019595
-0.019845
-0.020139
-0.020481
-0.020878
-0.021335
-0.021863
-0.022470
-0.023170
-0.023978
-0.024911
-0.025993
-0.027250
-0.028715
-0.030430
-0.032446
-0.034828
-0.037657
-0.041040
-0.045116
-0.050068
-0.056144
-0.063686
-0.073178
-0.085320
-0.101143
-0.122110
-0.150082
-0.186837
-0.232982
-0.286649
-0.342990
-0.395191
-0.436510
-0.462663
-0.469505
-0.457474
-0.428357
-0.384520
-0.328094
-0.260900
-0.186286
-0.112891
-0.056858
-0.033207
-0.029866
-0.021865
-0.021983
-0.022132
-0.022325
-0.022568
-0.022863
-0.023216
-0.023629
-0.024111
-0.024668
-0.025312
-0.026055
-0.026910
-0.027897
-0.029036
-0.030355
-0.031885
-0.033667
-0.035749
-0.038193
-0.041078
-0.044503
-0.048598
-0.053534
-0.059537
-0.066915
-0.076099
-0.087701
-0.102611
-0.122134
-0.148088
-0.182692
-0.227877
-0.283940
-0.348115
-0.414286
-0.474439
-0.521091
-0.549662
-0.557081
-0.543849
-0.512452
-0.466192
-0.407795
-0.338365
-0.258580
-0.173319
-0.096918
-0.049720
-0.036450
-0.024770
-0.024887
-0.025047
-0.025261
-0.025536
-0.025875
-0.026282
-0.026762
-0.027323
-0.027975
-0.028728
-0.029598
-0.030601
-0.031757
-0.033091
-0.034633
-0.036421
-0.038500
-0.040927
-0.043774
-0.047130
-0.051111
-0.055868
-0.061599
-0.068569
-0.077140
-0.087816
-0.101319
-0.118693
-0.141457
-0.171689
-0.211841
-0.263903
-0.327879
-0.400314
-0.474160
-0.540526
-0.591385
-0.621670
-0.629370
-0.614592
-0.580518
-0.531747
-0.472314
-0.403490
-0.323656
-0.232913
-0.141659
-0.074475
-0.051985
-0.027663
-0.027779
-0.027948
-0.028182
-0.028485
-0.028863
-0.029319
-0.029859
-0.030493
-0.031231
-0.032086
-0.033073
-0.034211
-0.035523
-0.037036
-0.038784
-0.040808
-0.043159
-0.045900
-0.049111
-0.052890
-0.057368
-0.062712
-0.069140
-0.076949
-0.086538
-0.098466
-0.113526
-0.132863
-0.158116
-0.191492
-0.235540
-0.292253
-0.361481
-0.439443
-0.518632
-0.589639
-0.643952
-0.676074
-0.684160
-0.667840
-0.630884
-0.579335
-0.518991
-0.452255
-0.376458
-0.287388
-0.190302
-0.110884
-0.081261
-0.030533
-0.030647
-0.030824
-0.031073
-0.031401
-0.031812
-0.032311
-0.032904
-0.033603
-0.034417
-0.035361
-0.036453
-0.037712
-0.039163
-0.040835
-0.042766
-0.045000
-0.047591
-0.050606
-0.054132
-0.058276
-0.063175
-0.069008
-0.076008
-0.084488
-0.094869
-0.107737
-0.123913
-0.144568
-0.171356
-0.206469
-0.252405
-0.311113
-0.382469
-0.462798
-0.544704
-0.618681
-0.675791
-0.709807
-0.718603
-0.701173
-0.661806
-0.607855
-0.546842
-0.482850
-0.413578
-0.331918
-0.237759
-0.154558
-0.120864
-0.033367
-0.033480
-0.033661
-0.033923
-0.034270
-0.034708
-0.035242
-0.035880
-0.036632
-0.037512
-0.038533
-0.039714
-0.041077
-0.042647
-0.044457
-0.046544
-0.048955
-0.051748
-0.054992
-0.058777
-0.063215
-0.068447
-0.074657
-0.082083
-0.091042
-0.101958
-0.115412
-0.132209
-0.153476
-0.180775
-0.216141
-0.261858
-0.319752
-0.389839
-0.468945
-0.550415
-0.625146
-0.683867
-0.719297
-0.728949
-0.711277
-0.670929
-0.616095
-0.555476
-0.494842
-0.433231
-0.362414
-0.277712
-0.198046
-0.163499
-0.036155
-0.036266
-0.036451
-0.036720
-0.037080
-0.037538
-0.038098
-0.038771
-0.039566
-0.040497
-0.041580
-0.042834
-0.044282
-0.045950
-0.047871
-0.050085
-0.052638
-0.055591
-0.059014
-0.062997
-0.067653
-0.073122
-0.079588
-0.087285
-0.096521
-0.107704
-0.121384
-0.138310
-0.159500
-0.186358
-0.220636
-0.264204
-0.318633
-0.384199
-0.458512
-0.535768
-0.607676
-0.665423
-0.701525
-0.712062
-0.695594
-0.656628
-0.603421
-0.544991
-0.488728
-0.435156
-0.376510
-0.305040
-0.234173
-0.201567
-0.038890
-0.038998
-0.039183
-0.039455
-0.039822
-0.040290
-0.040868
-0.041563
-0.042388
-0.043357
-0.044486
-0.045794
-0.047306
-0.049048
-0.051054
-0.053362
-0.056022
-0.059090
-0.062639
-0.066756
-0.071551
-0.077162
-0.083762
-0.091575
-0.100890
-0.112082
-0.125650
-0.142271
-0.162777
-0.188275
-0.220227
-0.260267
-0.309730
-0.368889
-0.435817
-0.505666
-0.571156
-0.624126
-0.657212
-0.666869
-0.652270
-0.617215
-0.569193
-0.516573
-0.466055
-0.420507
-0.373899
-0.317053
-0.258057
-0.229449
-0.041563
-0.041669
-0.041851
-0.042121
-0.042487
-0.042957
-0.043539
-0.044245
-0.045086
-0.046076
-0.047233
-0.048577
-0.050131
-0.051923
-0.053985
-0.056356
-0.059084
-0.062224
-0.065847
-0.070035
-0.074893
-0.080550
-0.087169
-0.094953
-0.104168
-0.115137
-0.128258
-0.144088
-0.163354
-0.186941
-0.215966
-0.251674
-0.295110
-0.346478
-0.404232
-0.464424
-0.520926
-0.566595
-0.594796
-0.602407
-0.589517
-0.559178
-0.517606
-0.472047
-0.428856
-0.391710
-0.356193
-0.313669
-0.267721
-0.244345
-0.044171
-0.044274
-0.044451
-0.044712
-0.045068
-0.045529
-0.046105
-0.046807
-0.047648
-0.048644
-0.049811
-0.051170
-0.052744
-0.054561
-0.056651
-0.059053
-0.061812
-0.064982
-0.068627
-0.072827
-0.077677
-0.083294
-0.089830
-0.097450
-0.106366
-0.116871
-0.129308
-0.144112
-0.161833
-0.183145
-0.208857
-0.239845
-0.276823
-0.319865
-0.367717
-0.417249
-0.463521
-0.500647
-0.523101
-0.528269
-0.516790
-0.491105
-0.456183
-0.418011
-0.382144
-0.352400
-0.326554
-0.296993
-0.263790
-0.246102
-0.046713
-0.046813
-0.046981
-0.047226
-0.047562
-0.048002
-0.048557
-0.049241
-0.050066
-0.051050
-0.052208
-0.053562
-0.055135
-0.056951
-0.059043
-0.061445
-0.064201
-0.067360
-0.070982
-0.075140
-0.079919
-0.085418
-0.091752
-0.099084
-0.107595
-0.117509
-0.129099
-0.142695
-0.158698
-0.177580
-0.199881
-0.226153
-0.256801
-0.291751
-0.329964
-0.369013
-0.405088
-0.433607
-0.450277
-0.452994
-0.442558
-0.420921
-0.391982
-0.360545
-0.331238
-0.307414
-0.289657
-0.270672
-0.248748
-0.236523
-0.049187
-0.049286
-0.049440
-0.049661
-0.049966
-0.050372
-0.050892
-0.051540
-0.052333
-0.053286
-0.054417
-0.055746
-0.057294
-0.059088
-0.061155
-0.063530
-0.066251
-0.069364
-0.072923
-0.076991
-0.081630
-0.086937
-0.093014
-0.099987
-0.108002
-0.117234
-0.127884
-0.140191
-0.154426
-0.170892
-0.189909
-0.211768
-0.236623
-0.264270
-0.293827
-0.323447
-0.350298
-0.370995
-0.382391
-0.382862
-0.373122
-0.354740
-0.330746
-0.304937
-0.281102
-0.262248
-0.249474
-0.238752
-0.226021
-0.218537
-0.051600
-0.051698
-0.051833
-0.052021
-0.052282
-0.052637
-0.053105
-0.053702
-0.054444
-0.055348
-0.056432
-0.057716
-0.059220
-0.060969
-0.062989
-0.065310
-0.067969
-0.071006
-0.074464
-0.078391
-0.082855
-0.087930
-0.093700
-0.100263
-0.107732
-0.116234
-0.125913
-0.136927
-0.149443
-0.163631
-0.179644
-0.197581
-0.217412
-0.238844
-0.261120
-0.282844
-0.301973
-0.316107
-0.323058
-0.321622
-0.312335
-0.296460
-0.276344
-0.254956
-0.235349
-0.220139
-0.210608
-0.205356
-0.199301
-0.195467
-0.053959
-0.054056
-0.054167
-0.054309
-0.054511
-0.054799
-0.055196
-0.055722
-0.056394
-0.057230
-0.058249
-0.059468
-0.060909
-0.062594
-0.064546
-0.066793
-0.069367
-0.072300
-0.075623
-0.079389
-0.083649
-0.088463
-0.093895
-0.100021
-0.106923
-0.114690
-0.123415
-0.133192
-0.144108
-0.156235
-0.169608
-0.184195
-0.199854
-0.216240
-0.232705
-0.248195
-0.261259
-0.270251
-0.273711
-0.270790
-0.261844
-0.247894
-0.230755
-0.212738
-0.196278
-0.183592
-0.176028
-0.173847
-0.171900
-0.170448
-0.056277
-0.056374
-0.056453
-0.056536
-0.056660
-0.056860
-0.057166
-0.057600
-0.058182
-0.058931
-0.059865
-0.061003
-0.062364
-0.063967
-0.065834
-0.067989
-0.070459
-0.073263
-0.076439
-0.080026
-0.084064
-0.088600
-0.093683
-0.099367
-0.105708
-0.112764
-0.120588
-0.129225
-0.138704
-0.149027
-0.160153
-0.171972
-0.184279
-0.196719
-0.208739
-0.219538
-0.228093
-0.233294
-0.234199
-0.230248
-0.221644
-0.209225
-0.194403
-0.178975
-0.164877
-0.153957
-0.147461
-0.146514
-0.146370
-0.146024
-0.058573
-0.058672
-0.058709
-0.058714
-0.058737
-0.058825
-0.059015
-0.059334
-0.059805
-0.060448
-0.061281
-0.062321
-0.063586
-0.065093
-0.066862
-0.068912
-0.071262
-0.073928
-0.076946
-0.080343
-0.084151
-0.088406
-0.093142
-0.098396
-0.104203
-0.110596
-0.117596
-0.125214
-0.133438
-0.142226
-0.151490
-0.161080
-0.170767
-0.180211
-0.188945
-0.196353
-0.201711
-0.204271
-0.203437
-0.198906
-0.190710
-0.179586
-0.166640
-0.153282
-0.141053
-0.131475
-0.125567
-0.124535
-0.124332
-0.123938
-0.060874
-0.060975
-0.060957
-0.060860
-0.060754
-0.060700
-0.060746
-0.060925
-0.061263
-0.061780
-0.062495
-0.063423
-0.064580
-0.065980
-0.067640
-0.069576
-0.071797
-0.074322
-0.077176
-0.080381
-0.083962
-0.087942
-0.092345
-0.097195
-0.102509
-0.108300
-0.114568
-0.121299
-0.128456
-0.135967
-0.143723
-0.151558
-0.159241
-0.166464
-0.172833
-0.177874
-0.181061
-0.181892
-0.179988
-0.175223
-0.167537
-0.157578
-0.146229
-0.134613
-0.123973
-0.115559
-0.110098
-0.108138
-0.106470
-0.105020
-0.063220
-0.063324
-0.063230
-0.062999
-0.062725
-0.062493
-0.062362
-0.062373
-0.062554
-0.062926
-0.063508
-0.064311
-0.065350
-0.066636
-0.068181
-0.069998
-0.072089
-0.074470
-0.077162
-0.080181
-0.083542
-0.087264
-0.091358
-0.095838
-0.100709
-0.105968
-0.111603
-0.117580
-0.123848
-0.130321
-0.136880
-0.143359
-0.149540
-0.155149
-0.159859
-0.163296
-0.165076
-0.164849
-0.162383
-0.157639
-0.150554
-0.141677
-0.131730
-0.121632
-0.112410
-0.105098
-0.100162
-0.096808
-0.092586
-0.089128
-0.065666
-0.065772
-0.065573
-0.065160
-0.064669
-0.064212
-0.063865
-0.063676
-0.063675
-0.063885
-0.064319
-0.064989
-0.065904
-0.067071
-0.068498
-0.070196
-0.072159
-0.074401
-0.076937
-0.079779
-0.082937
-0.086420
-0.090236
-0.094386
-0.098869
-0.103671
-0.108769
-0.114121
-0.119665
-0.125312
-0.130940
-0.136392
-0.141469
-0.145930
-0.149503
-0.151890
-0.152802
-0.151990
-0.149307
-0.144761
-0.138341
-0.130471
-0.121765
-0.112995
-0.105031
-0.098753
-0.094481
-0.089518
-0.081642
-0.074974
-0.068294
-0.068398
-0.068047
-0.067385
-0.066608
-0.065866
-0.065255
-0.064830
-0.064623
-0.064654
-0.064930
-0.065460
-0.066247
-0.067294
-0.068606
-0.070187
-0.072031
-0.074139
-0.076530
-0.079210
-0.082183
-0.085454
-0.089024
-0.092890
-0.097041
-0.101460
-0.106115
-0.110960
-0.115929
-0.120932
-0.125853
-0.130544
-0.134827
-0.138492
-0.141310
-0.143040
-0.143456
-0.142377
-0.139702
-0.135453
-0.129751
-0.122788
-0.115159
-0.107519
-0.100610
-0.095177
-0.091504
-0.084919
-0.071618
-0.059610
-0.071227
-0.071319
-0.070737
-0.069724
-0.068563
-0.067459
-0.066527
-0.065829
-0.065392
-0.065228
-0.065340
-0.065728
-0.066388
-0.067318
-0.068519
-0.069990
-0.071724
-0.073711
-0.075970
-0.078504
-0.081315
-0.084402
-0.087762
-0.091388
-0.095265
-0.099370
-0.103670
-0.108115
-0.112639
-0.117156
-0.121554
-0.125698
-0.129428
-0.132561
-0.134901
-0.136250
-0.136425
-0.135287
-0.132765
-0.128890
-0.123817
-0.117704
-0.110990
-0.104268
-0.098160
-0.093202
-0.089176
-0.081561
-0.058904
-0.037021
-0.074666
-0.074715
-0.073766
-0.072238
-0.070557
-0.068990
-0.067672
-0.066660
-0.065970
-0.065603
-0.065548
-0.065796
-0.066334
-0.067155
-0.068252
-0.069622
-0.071259
-0.073137
-0.075280
-0.077689
-0.080361
-0.083293
-0.086480
-0.089910
-0.093566
-0.097425
-0.101450
-0.105591
-0.109785
-0.113947
-0.117974
-0.121742
-0.125106
-0.127906
-0.129970
-0.131131
-0.131236
-0.130174
-0.127888
-0.124408
-0.119862
-0.114491
-0.108566
-0.102541
-0.096974
-0.092115
-0.086842
-0.075713
-0.036182
0.005294
-0.078947
-0.078878
-0.077305
-0.074998
-0.072598
-0.070444
-0.068667
-0.067302
-0.066345
-0.065771
-0.065555
-0.065670
-0.066096
-0.066817
-0.067822
-0.069103
-0.070653
-0.072440
-0.074485
-0.076788
-0.079346
-0.082153
-0.085201
-0.088478
-0.091966
-0.095639
-0.099461
-0.103383
-0.107344
-0.111263
-0.115044
-0.118573
-0.121717
-0.124332
-0.126267
-0.127375
-0.127526
-0.126620
-0.124613
-0.121524
-0.117458
-0.112605
-0.107249
-0.101729
-0.096380
-0.091058
-0.082515
-0.059805
0.011006
0.093622
-0.084695
-0.084307
-0.081596
-0.078065
-0.074667
-0.071779
-0.069472
-0.067727
-0.066496
-0.065723
-0.065357
-0.065356
-0.065684
-0.066316
-0.067242
-0.068449
-0.069922
-0.071635
-0.073601
-0.075821
-0.078289
-0.081000
-0.083943
-0.087108
-0.090474
-0.094016
-0.097699
-0.101476
-0.105287
-0.109056
-0.112693
-0.116090
-0.119125
-0.121666
-0.123576
-0.124721
-0.124984
-0.124276
-0.122553
-0.119824
-0.116165
-0.111714
-0.106662
-0.101210
-0.095462
-0.088607
-0.071775
-0.017267
0.115727
0.284038
-0.093218
-0.091903
-0.086943
-0.081436
-0.076673
-0.072914
-0.070024
-0.067884
-0.066390
-0.065437
-0.064943
-0.064847
-0.065093
-0.065649
-0.066509
-0.067662
-0.069069
-0.070724
-0.072632
-0.074789
-0.077192
-0.079833
-0.082704
-0.085792
-0.089079
-0.092539
-0.096138
-0.099830
-0.103558
-0.107249
-0.110816
-0.114159
-0.117161
-0.119699
-0.121643
-0.122870
-0.123268
-0.122755
-0.121281
-0.118844
-0.115490
-0.111290
-0.106305
-0.100423
-0.093116
-0.081684
-0.044547
0.076752
0.360343
0.697098
-0.107882
-0.103536
-0.093610
-0.084910
-0.078356
-0.073671
-0.070159
-0.067612
-0.065880
-0.064774
-0.064177
-0.064020
-0.064201
-0.064702
-0.065518
-0.066617
-0.067980
-0.069599
-0.071469
-0.073589
-0.075952
-0.078553
-0.081384
-0.084430
-0.087676
-0.091094
-0.094652
-0.098304
-0.101996
-0.105655
-0.109199
-0.112529
-0.115533
-0.118093
-0.120085
-0.121388
-0.121898
-0.121530
-0.120233
-0.117988
-0.114799
-0.110640
-0.105329
-0.098081
-0.087068
-0.060708
0.029144
0.294196
0.874092
1.577147
-0.137652
-0.121527
-0.101524
-0.087234
-0.078177
-0.072636
-0.068393
-0.065684
-0.063832
-0.062659
-0.062032
-0.061854
-0.062048
-0.062577
-0.063418
-0.064541
-0.065931
-0.067576
-0.069471
-0.071613
-0.073996
-0.076615
-0.079461
-0.082521
-0.085777
-0.089204
-0.092768
-0.096425
-0.100120
-0.103783
-0.107331
-0.110667
-0.113684
-0.116265
-0.118289
-0.119642
-0.120218
-0.119935
-0.118734
-0.116571
-0.113368
-0.108895
-0.102322
-0.091298
-0.069485
0.002697
0.213408
0.751604
1.842933
3.241900
-0.241622
-0.104241
-0.073530
-0.063209
-0.058505
-0.056063
-0.054512
-0.053696
-0.053305
-0.053277
-0.053570
-0.054148
-0.054979
-0.056050
-0.057354
-0.058881
-0.060625
-0.062584
-0.064757
-0.067147
-0.069752
-0.072570
-0.075596
-0.078817
-0.082218
-0.085775
-0.089456
-0.093218
-0.097005
-0.100749
-0.104370
-0.107772
-0.110849
-0.113487
-0.115571
-0.116986
-0.117633
-0.117425
-0.116290
-0.114140
-0.110743
-0.105422
-0.095716
-0.074249
-0.014037
0.144804
0.540424
1.429443
3.098991
5.315815
