# vtk DataFile Version 3.0
Scalar Field
ASCII
DATASET RECTILINEAR_GRID
DIMENSIONS 50 50 1
X_COORDINATES 50 double
0.100000 0.300000 0.500000 0.700000 0.900000 1.100000 1.300000 1.500000 1.700000 1.900000 2.100000 2.300000 2.500000 2.700000 2.900000 3.100000 3.300000 3.500000 3.700000 3.900000 4.100000 4.300000 4.500000 4.700000 4.900000 5.100000 5.300000 5.500000 5.700000 5.900000 6.100000 6.300000 6.500000 6.700000 6.900000 7.100000 7.300000 7.500000 7.700000 7.900000 8.100000 8.300000 8.500000 8.700000 8.900000 9.100000 9.300000 9.500000 9.700000 9.900000 
Y_COORDINATES 50 double
0.100000 0.300000 0.500000 0.700000 0.900000 1.100000 1.300000 1.500000 1.700000 1.900000 2.100000 2.300000 2.500000 2.700000 2.900000 3.100000 3.300000 3.500000 3.700000 3.900000 4.100000 4.300000 4.500000 4.700000 4.900000 5.100000 5.300000 5.500000 5.700000 5.900000 6.100000 6.300000 6.500000 6.700000 6.900000 7.100000 7.300000 7.500000 7.700000 7.900000 8.100000 8.300000 8.500000 8.700000 8.900000 9.100000 9.300000 9.500000 9.700000 9.900000 
Z_COORDINATES 1 double
0.0
POINT_DATA 2500
SCALARS Skalarfeld double 1
LOOKUP_TABLE default
-0.015674
-0.015689
-0.015652
-0.015551
-0.015387
-0.015159
-0.014867
-0.014512
-0.014093
-0.013610
-0.013062
-0.012449
-0.011772
-0.011029
-0.010222
-0.009350
-0.008413
-0.007413
-0.006350
-0.005226
-0.004042
-0.002800
-0.001503
-0.000153
0.001244
0.002687
0.004169
0.005686
0.007230
0.008796
0.010376
0.011962
0.013544
0.015113
0.016660
0.018174
0.019643
0.021057
0.022405
0.023675
0.024855
0.025936
0.026908
0.027760
0.028484
0.029073
0.029519
0.029820
0.029973
0.029993
-0.015659
-0.015675
-0.015633
-0.015530
-0.015365
-0.015138
-0.014848
-0.014494
-0.014076
-0.013595
-0.013049
-0.012438
-0.011763
-0.011023
-0.010218
-0.009348
-0.008414
-0.007416
-0.006356
-0.005234
-0.004052
-0.002813
-0.001518
-0.000171
0.001226
0.002667
0.004148
0.005663
0.007207
0.008773
0.010353
0.011939
0.013522
0.015093
0.016641
0.018157
0.019628
0.021045
0.022395
0.023667
0.024851
0.025934
0.026908
0.027763
0.028489
0.029080
0.029529
0.029833
0.029992
0.030012
-0.015700
-0.015720
-0.015678
-0.015576
-0.015411
-0.015185
-0.014896
-0.014544
-0.014128
-0.013648
-0.013104
-0.012496
-0.011823
-0.011085
-0.010282
-0.009414
-0.008482
-0.007485
-0.006426
-0.005305
-0.004123
-0.002883
-0.001587
-0.000238
0.001160
0.002605
0.004090
0.005610
0.007160
0.008733
0.010321
0.011916
0.013510
0.015091
0.016651
0.018179
0.019664
0.021093
0.022457
0.023742
0.024938
0.026034
0.027019
0.027884
0.028620
0.029219
0.029674
0.029983
0.030143
0.030158
-0.015809
-0.015832
-0.015792
-0.015690
-0.015527
-0.015302
-0.015014
-0.014663
-0.014250
-0.013772
-0.013230
-0.012624
-0.011953
-0.011217
-0.010415
-0.009548
-0.008617
-0.007621
-0.006561
-0.005439
-0.004255
-0.003012
-0.001712
-0.000358
0.001048
0.002500
0.003995
0.005527
0.007089
0.008677
0.010281
0.011894
0.013506
0.015108
0.016690
0.018240
0.019748
0.021202
0.022589
0.023898
0.025117
0.026235
0.027240
0.028123
0.028875
0.029487
0.029953
0.030269
0.030432
0.030444
-0.015988
-0.016013
-0.015974
-0.015874
-0.015712
-0.015488
-0.015202
-0.014854
-0.014442
-0.013967
-0.013427
-0.012823
-0.012154
-0.011419
-0.010618
-0.009752
-0.008821
-0.007824
-0.006762
-0.005637
-0.004449
-0.003200
-0.001893
-0.000530
0.000887
0.002352
0.003862
0.005411
0.006993
0.008602
0.010230
0.011869
0.013510
0.015142
0.016756
0.018339
0.019881
0.021369
0.022791
0.024135
0.025387
0.026536
0.027571
0.028480
0.029255
0.029886
0.030367
0.030693
0.030861
0.030873
-0.016237
-0.016263
-0.016226
-0.016127
-0.015967
-0.015745
-0.015462
-0.015115
-0.014706
-0.014233
-0.013695
-0.013093
-0.012425
-0.011692
-0.010892
-0.010026
-0.009093
-0.008095
-0.007030
-0.005900
-0.004705
-0.003449
-0.002131
-0.000755
0.000676
0.002158
0.003688
0.005261
0.006869
0.008507
0.010167
0.011841
0.013519
0.015192
0.016848
0.018475
0.020063
0.021597
0.023065
0.024453
0.025750
0.026941
0.028014
0.028959
0.029764
0.030421
0.030922
0.031261
0.031436
0.031449
-0.016555
-0.016583
-0.016547
-0.016450
-0.016292
-0.016073
-0.015791
-0.015448
-0.015041
-0.014570
-0.014035
-0.013435
-0.012769
-0.012037
-0.011238
-0.010371
-0.009437
-0.008435
-0.007366
-0.006230
-0.005027
-0.003760
-0.002430
-0.001038
0.000412
0.001917
0.003472
0.005073
0.006714
0.008389
0.010089
0.011807
0.013532
0.015255
0.016963
0.018646
0.020291
0.021883
0.023409
0.024855
0.026206
0.027450
0.028573
0.029562
0.030406
0.031095
0.031621
0.031978
0.032162
0.032177
-0.016943
-0.016972
-0.016938
-0.016843
-0.016687
-0.016470
-0.016192
-0.015851
-0.015447
-0.014980
-0.014447
-0.013850
-0.013186
-0.012455
-0.011656
-0.010789
-0.009852
-0.008847
-0.007773
-0.006629
-0.005417
-0.004137
-0.002791
-0.001381
0.000091
0.001622
0.003208
0.004844
0.006524
0.008242
0.009991
0.011761
0.013543
0.015327
0.017100
0.018850
0.020564
0.022226
0.023823
0.025339
0.026759
0.028068
0.029251
0.030295
0.031187
0.031915
0.032472
0.032850
0.033047
0.033064
-0.017399
-0.017430
-0.017398
-0.017305
-0.017152
-0.016938
-0.016663
-0.016326
-0.015925
-0.015461
-0.014932
-0.014337
-0.013676
-0.012946
-0.012148
-0.011280
-0.010342
-0.009333
-0.008253
-0.007101
-0.005877
-0.004584
-0.003220
-0.001788
-0.000290
0.001271
0.002892
0.004568
0.006294
0.008063
0.009868
0.011700
0.013549
0.015404
0.017253
0.019083
0.020879
0.022626
0.024308
0.025908
0.027409
0.028796
0.030052
0.031162
0.032112
0.032889
0.033483
0.033887
0.034098
0.034118
-0.017925
-0.017957
-0.017928
-0.017838
-0.017688
-0.017477
-0.017206
-0.016872
-0.016476
-0.016016
-0.015491
-0.014899
-0.014241
-0.013513
-0.012716
-0.011848
-0.010908
-0.009895
-0.008809
-0.007648
-0.006413
-0.005103
-0.003720
-0.002264
-0.000738
0.000857
0.002518
0.004239
0.006017
0.007844
0.009714
0.011617
0.013543
0.015482
0.017419
0.019342
0.021234
0.023080
0.024862
0.026561
0.028160
0.029639
0.030982
0.032170
0.033189
0.034023
0.034663
0.035098
0.035326
0.035350
-0.018519
-0.018554
-0.018526
-0.018439
-0.018293
-0.018087
-0.017819
-0.017491
-0.017099
-0.016644
-0.016124
-0.015537
-0.014882
-0.014157
-0.013362
-0.012495
-0.011553
-0.010537
-0.009444
-0.008274
-0.007027
-0.005701
-0.004297
-0.002815
-0.001258
0.000375
0.002079
0.003851
0.005686
0.007579
0.009521
0.011504
0.013519
0.015552
0.017591
0.019621
0.021626
0.023586
0.025484
0.027300
0.029012
0.030601
0.032046
0.033327
0.034427
0.035330
0.036023
0.036496
0.036744
0.036773
-0.019182
-0.019219
-0.019194
-0.019111
-0.018968
-0.018767
-0.018505
-0.018182
-0.017796
-0.017347
-0.016832
-0.016250
-0.015600
-0.014880
-0.014088
-0.013222
-0.012280
-0.011261
-0.010163
-0.008984
-0.007724
-0.006382
-0.004956
-0.003448
-0.001857
-0.000185
0.001567
0.003394
0.005292
0.007257
0.009280
0.011354
0.013467
0.015608
0.017763
0.019915
0.022048
0.024141
0.026173
0.028124
0.029969
0.031685
0.033250
0.034641
0.035837
0.036821
0.037577
0.038094
0.038367
0.038401
-0.019913
-0.019952
-0.019931
-0.019852
-0.019714
-0.019518
-0.019262
-0.018945
-0.018566
-0.018124
-0.017616
-0.017042
-0.016398
-0.015683
-0.014895
-0.014032
-0.013091
-0.012071
-0.010968
-0.009782
-0.008510
-0.007151
-0.005704
-0.004168
-0.002542
-0.000828
0.000973
0.002859
0.004826
0.006870
0.008982
0.011155
0.013378
0.015640
0.017924
0.020215
0.022494
0.024739
0.026927
0.029033
0.031032
0.032897
0.034602
0.036122
0.037431
0.038510
0.039340
0.039909
0.040211
0.040251
-0.020712
-0.020754
-0.020737
-0.020662
-0.020530
-0.020340
-0.020091
-0.019782
-0.019411
-0.018977
-0.018478
-0.017912
-0.017276
-0.016568
-0.015787
-0.014928
-0.013990
-0.012970
-0.011865
-0.010673
-0.009391
-0.008017
-0.006548
-0.004984
-0.003324
-0.001566
0.000287
0.002236
0.004276
0.006404
0.008613
0.010895
0.013240
0.015635
0.018065
0.020512
0.022956
0.025374
0.027740
0.030026
0.032203
0.034241
0.036110
0.037780
0.039223
0.040413
0.041331
0.041961
0.042297
0.042345
-0.021579
-0.021624
-0.021611
-0.021541
-0.021415
-0.021232
-0.020991
-0.020691
-0.020330
-0.019906
-0.019417
-0.018861
-0.018236
-0.017538
-0.016765
-0.015913
-0.014980
-0.013963
-0.012858
-0.011662
-0.010371
-0.008984
-0.007496
-0.005905
-0.004210
-0.002409
-0.000501
0.001512
0.003629
0.005847
0.008160
0.010560
0.013038
0.015580
0.018172
0.020794
0.023425
0.026039
0.028607
0.031100
0.033483
0.035723
0.037782
0.039628
0.041227
0.042550
0.043571
0.044273
0.044649
0.044706
-0.022513
-0.022562
-0.022553
-0.022489
-0.022370
-0.022195
-0.021964
-0.021674
-0.021324
-0.020912
-0.020436
-0.019892
-0.019279
-0.018593
-0.017831
-0.016990
-0.016065
-0.015054
-0.013952
-0.012755
-0.011459
-0.010060
-0.008555
-0.006940
-0.005212
-0.003368
-0.001406
0.000673
0.002870
0.005183
0.007606
0.010133
0.012754
0.015458
0.018228
0.021045
0.023885
0.026721
0.029522
0.032251
0.034872
0.037345
0.039628
0.041680
0.043462
0.044940
0.046083
0.046870
0.047294
0.047362
-0.023513
-0.023566
-0.023563
-0.023505
-0.023394
-0.023228
-0.023008
-0.022730
-0.022393
-0.021995
-0.021533
-0.021005
-0.020407
-0.019736
-0.018988
-0.018160
-0.017248
-0.016246
-0.015151
-0.013957
-0.012659
-0.011254
-0.009735
-0.008099
-0.006340
-0.004455
-0.002441
-0.000296
0.001982
0.004392
0.006931
0.009593
0.012369
0.015248
0.018214
0.021247
0.024321
0.027408
0.030471
0.033473
0.036368
0.039112
0.041655
0.043950
0.045948
0.047609
0.048897
0.049785
0.050265
0.050346
-0.024580
-0.024637
-0.024639
-0.024589
-0.024486
-0.024332
-0.024123
-0.023859
-0.023537
-0.023155
-0.022711
-0.022200
-0.021621
-0.020968
-0.020239
-0.019428
-0.018532
-0.017544
-0.016460
-0.015274
-0.013980
-0.012573
-0.011045
-0.009392
-0.007608
-0.005686
-0.003622
-0.001412
0.000947
0.003456
0.006114
0.008918
0.011858
0.014926
0.018106
0.021376
0.024711
0.028079
0.031442
0.034754
0.037967
0.041026
0.043874
0.046453
0.048707
0.050586
0.052044
0.053052
0.053598
0.053695
-0.025711
-0.025774
-0.025782
-0.025739
-0.025647
-0.025504
-0.025309
-0.025061
-0.024756
-0.024393
-0.023968
-0.023479
-0.022921
-0.022291
-0.021584
-0.020795
-0.019920
-0.018951
-0.017884
-0.016712
-0.015428
-0.014025
-0.012495
-0.010832
-0.009027
-0.007073
-0.004964
-0.002694
-0.000257
0.002351
0.005131
0.008080
0.011194
0.014463
0.017873
0.021403
0.025028
0.028712
0.032413
0.036081
0.039660
0.043086
0.046291
0.049207
0.051764
0.053901
0.055563
0.056714
0.057339
0.057455
-0.026907
-0.026974
-0.026989
-0.026956
-0.026875
-0.026745
-0.026566
-0.026335
-0.026050
-0.025708
-0.025307
-0.024842
-0.024310
-0.023706
-0.023026
-0.022264
-0.021415
-0.020472
-0.019428
-0.018277
-0.017010
-0.015618
-0.014094
-0.012428
-0.010611
-0.008634
-0.006487
-0.004162
-0.001652
0.001051
0.003951
0.007049
0.010342
0.013823
0.017480
0.021294
0.025237
0.029273
0.033357
0.037432
0.041434
0.045288
0.048913
0.052227
0.055146
0.057591
0.059498
0.060819
0.061539
0.061677
-0.028166
-0.028239
-0.028261
-0.028237
-0.028169
-0.028054
-0.027892
-0.027681
-0.027418
-0.027100
-0.026725
-0.026288
-0.025786
-0.025213
-0.024565
-0.023836
-0.023020
-0.022109
-0.021097
-0.019974
-0.018732
-0.017362
-0.015853
-0.014194
-0.012375
-0.010384
-0.008209
-0.005839
-0.003263
-0.000472
0.002545
0.005790
0.009265
0.012967
0.016886
0.021004
0.025296
0.029723
0.034238
0.038778
0.043268
0.047622
0.051744
0.055531
0.058882
0.061699
0.063899
0.065425
0.066258
0.066423
-0.029487
-0.029566
-0.029596
-0.029583
-0.029527
-0.029429
-0.029286
-0.029097
-0.028858
-0.028568
-0.028222
-0.027818
-0.027350
-0.026813
-0.026203
-0.025513
-0.024736
-0.023866
-0.022892
-0.021807
-0.020601
-0.019262
-0.017779
-0.016140
-0.014332
-0.012340
-0.010150
-0.007747
-0.005118
-0.002248
0.000875
0.004263
0.007919
0.011846
0.016038
0.020480
0.025150
0.030010
0.035008
0.040077
0.045131
0.050071
0.054780
0.059133
0.063004
0.066270
0.068826
0.070600
0.071568
0.071765
-0.030868
-0.030953
-0.030992
-0.030991
-0.030950
-0.030869
-0.030747
-0.030582
-0.030371
-0.030111
-0.029798
-0.029430
-0.029001
-0.028506
-0.027940
-0.027295
-0.026566
-0.025743
-0.024818
-0.023781
-0.022622
-0.021327
-0.019884
-0.018278
-0.016495
-0.014518
-0.012330
-0.009911
-0.007245
-0.004313
-0.001096
0.002423
0.006254
0.010404
0.014875
0.019658
0.024734
0.030066
0.035604
0.041273
0.046979
0.052604
0.058009
0.063043
0.067544
0.071356
0.074346
0.076421
0.077552
0.077786
-0.032308
-0.032400
-0.032449
-0.032459
-0.032434
-0.032373
-0.032274
-0.032135
-0.031954
-0.031727
-0.031452
-0.031124
-0.030739
-0.030291
-0.029774
-0.029183
-0.028509
-0.027743
-0.026877
-0.025900
-0.024799
-0.023561
-0.022173
-0.020618
-0.018879
-0.016935
-0.014768
-0.012355
-0.009673
-0.006699
-0.003410
0.000221
0.004212
0.008578
0.013327
0.018459
0.023962
0.029807
0.035941
0.042288
0.048744
0.055172
0.061408
0.067262
0.072531
0.077015
0.080538
0.082981
0.084309
0.084587
-0.033806
-0.033905
-0.033963
-0.033987
-0.033979
-0.033939
-0.033864
-0.033754
-0.033605
-0.033415
-0.033180
-0.032897
-0.032561
-0.032166
-0.031706
-0.031175
-0.030564
-0.029866
-0.029069
-0.028163
-0.027135
-0.025971
-0.024655
-0.023169
-0.021493
-0.019606
-0.017485
-0.015103
-0.012433
-0.009446
-0.006110
-0.002396
0.001731
0.006292
0.011308
0.016789
0.022735
0.029123
0.035909
0.043017
0.050333
0.057702
0.064928
0.071777
0.077990
0.083306
0.087492
0.090389
0.091956
0.092283
-0.035359
-0.035466
-0.035535
-0.035573
-0.035583
-0.035564
-0.035516
-0.035436
-0.035323
-0.035172
-0.034982
-0.034748
-0.034465
-0.034128
-0.033732
-0.033269
-0.032731
-0.032110
-0.031394
-0.030573
-0.029633
-0.028558
-0.027333
-0.025937
-0.024349
-0.022545
-0.020498
-0.018178
-0.015553
-0.012588
-0.009244
-0.005483
-0.001258
0.003467
0.008723
0.014538
0.020925
0.027879
0.035366
0.043316
0.051611
0.060079
0.068489
0.076551
0.083934
0.090290
0.095308
0.098770
0.100627
0.101010
-0.036967
-0.037082
-0.037162
-0.037215
-0.037243
-0.037248
-0.037227
-0.037180
-0.037104
-0.036996
-0.036854
-0.036672
-0.036448
-0.036176
-0.035850
-0.035462
-0.035007
-0.034473
-0.033850
-0.033127
-0.032290
-0.031324
-0.030209
-0.028926
-0.027452
-0.025760
-0.023821
-0.021600
-0.019061
-0.016162
-0.012857
-0.009096
-0.004829
0.000010
0.005463
0.011575
0.018384
0.025905
0.034126
0.042991
0.052387
0.062131
0.071954
0.081501
0.090345
0.098021
0.104096
0.108272
0.110482
0.110922
-0.038627
-0.038751
-0.038843
-0.038911
-0.038959
-0.038987
-0.038996
-0.038983
-0.038946
-0.038883
-0.038792
-0.038667
-0.038506
-0.038304
-0.038054
-0.037751
-0.037385
-0.036950
-0.036433
-0.035822
-0.035105
-0.034265
-0.033284
-0.032139
-0.030808
-0.029261
-0.027466
-0.025386
-0.022980
-0.020200
-0.016991
-0.013296
-0.009048
-0.004173
0.001407
0.007754
0.014933
0.022992
0.031951
0.041783
0.052396
0.063603
0.075105
0.086473
0.097157
0.106526
0.113971
0.119059
0.121702
0.122195
-0.040339
-0.040473
-0.040576
-0.040659
-0.040727
-0.040781
-0.040819
-0.040841
-0.040846
-0.040830
-0.040792
-0.040728
-0.040635
-0.040507
-0.040340
-0.040128
-0.039862
-0.039535
-0.039135
-0.038652
-0.038072
-0.037378
-0.036552
-0.035572
-0.034414
-0.033047
-0.031438
-0.029547
-0.027327
-0.024728
-0.021686
-0.018134
-0.013993
-0.009176
-0.003573
0.002910
0.010367
0.018889
0.028543
0.039352
0.051264
0.064115
0.077591
0.091188
0.104202
0.115775
0.125028
0.131312
0.134491
0.135020
-0.042102
-0.042245
-0.042360
-0.042459
-0.042547
-0.042625
-0.042694
-0.042753
-0.042799
-0.042833
-0.042850
-0.042850
-0.042827
-0.042780
-0.042701
-0.042587
-0.042429
-0.042220
-0.041950
-0.041608
-0.041181
-0.040653
-0.040006
-0.039218
-0.038264
-0.037115
-0.035736
-0.034084
-0.032113
-0.029764
-0.026971
-0.023656
-0.019728
-0.015083
-0.009604
-0.003132
0.004455
0.013299
0.023533
0.035252
0.048479
0.063112
0.078857
0.095154
0.111127
0.125607
0.137306
0.145206
0.149066
0.149594
-0.043915
-0.044068
-0.044195
-0.044309
-0.044417
-0.044520
-0.044619
-0.044714
-0.044803
-0.044886
-0.044961
-0.045026
-0.045078
-0.045114
-0.045129
-0.045119
-0.045076
-0.044995
-0.044866
-0.044679
-0.044421
-0.044078
-0.043632
-0.043064
-0.042348
-0.041455
-0.040351
-0.038994
-0.037335
-0.035314
-0.032861
-0.029891
-0.026304
-0.021982
-0.016784
-0.010547
-0.003048
0.005890
0.016480
0.028920
0.043350
0.059788
0.078031
0.097521
0.117223
0.135575
0.150672
0.160859
0.165641
0.166111
-0.045779
-0.045943
-0.046082
-0.046210
-0.046336
-0.046463
-0.046591
-0.046721
-0.046853
-0.046986
-0.047119
-0.047251
-0.047379
-0.047501
-0.047614
-0.047713
-0.047793
-0.047848
-0.047869
-0.047849
-0.047775
-0.047635
-0.047413
-0.047091
-0.046644
-0.046046
-0.045264
-0.044258
-0.042979
-0.041368
-0.039355
-0.036851
-0.033752
-0.029928
-0.025223
-0.019449
-0.012380
-0.003692
0.006881
0.019665
0.034966
0.053001
0.073766
0.096836
0.121109
0.144606
0.164554
0.178185
0.184377
0.184777
-0.047695
-0.047871
-0.048021
-0.048162
-0.048304
-0.048453
-0.048608
-0.048772
-0.048945
-0.049126
-0.049317
-0.049516
-0.049722
-0.049932
-0.050146
-0.050358
-0.050566
-0.050764
-0.050945
-0.051102
-0.051226
-0.051306
-0.051327
-0.051275
-0.051127
-0.050861
-0.050446
-0.049845
-0.049015
-0.047899
-0.046429
-0.044521
-0.042069
-0.038943
-0.034979
-0.029973
-0.023674
-0.015768
-0.005794
0.006695
0.022189
0.041185
0.064034
0.090659
0.120148
0.150271
0.177243
0.196471
0.205249
0.205908
-0.049667
-0.049856
-0.050015
-0.050166
-0.050323
-0.050489
-0.050669
-0.050864
-0.051074
-0.051303
-0.051549
-0.051814
-0.052097
-0.052397
-0.052712
-0.053041
-0.053380
-0.053726
-0.054074
-0.054418
-0.054750
-0.055064
-0.055346
-0.055585
-0.055764
-0.055862
-0.055855
-0.055713
-0.055395
-0.054855
-0.054032
-0.052850
-0.051213
-0.048998
-0.046050
-0.042168
-0.037094
-0.030496
-0.021950
-0.010820
0.003693
0.022315
0.045909
0.075029
0.109414
0.147200
0.184016
0.212844
0.227302
0.229831
-0.051701
-0.051902
-0.052069
-0.052227
-0.052393
-0.052573
-0.052772
-0.052993
-0.053238
-0.053509
-0.053808
-0.054137
-0.054495
-0.054883
-0.055301
-0.055747
-0.056219
-0.056717
-0.057235
-0.057772
-0.058322
-0.058880
-0.059437
-0.059985
-0.060512
-0.061004
-0.061441
-0.061801
-0.062055
-0.062166
-0.062085
-0.061754
-0.061093
-0.060004
-0.058355
-0.055976
-0.052640
-0.048044
-0.041784
-0.033315
-0.021851
-0.005997
0.015474
0.043895
0.080215
0.124204
0.172800
0.217347
0.245007
0.253996
-0.053804
-0.054019
-0.054190
-0.054350
-0.054519
-0.054706
-0.054918
-0.055158
-0.055430
-0.055739
-0.056086
-0.056474
-0.056905
-0.057379
-0.057897
-0.058459
-0.059065
-0.059715
-0.060408
-0.061141
-0.061914
-0.062723
-0.063564
-0.064434
-0.065326
-0.066231
-0.067140
-0.068039
-0.068911
-0.069733
-0.070476
-0.071102
-0.071563
-0.071796
-0.071715
-0.071212
-0.070137
-0.068289
-0.065389
-0.061046
-0.054697
-0.045563
-0.031897
-0.010969
0.019098
0.061645
0.119332
0.185503
0.239219
0.262999
-0.055991
-0.056219
-0.056390
-0.056544
-0.056707
-0.056892
-0.057106
-0.057356
-0.057648
-0.057986
-0.058374
-0.058816
-0.059314
-0.059870
-0.060485
-0.061161
-0.061899
-0.062701
-0.063566
-0.064497
-0.065494
-0.066557
-0.067687
-0.068885
-0.070150
-0.071483
-0.072881
-0.074342
-0.075864
-0.077440
-0.079065
-0.080730
-0.082423
-0.084133
-0.085842
-0.087535
-0.089193
-0.090800
-0.092344
-0.093825
-0.095256
-0.096656
-0.097887
-0.097685
-0.088989
-0.063500
-0.005898
0.083901
0.175742
0.223311
-0.058278
-0.058520
-0.058684
-0.058822
-0.058966
-0.059135
-0.059338
-0.059586
-0.059886
-0.060244
-0.060665
-0.061153
-0.061711
-0.062343
-0.063050
-0.063835
-0.064702
-0.065651
-0.066686
-0.067811
-0.069030
-0.070345
-0.071763
-0.073289
-0.074930
-0.076692
-0.078584
-0.080617
-0.082801
-0.085152
-0.087689
-0.090435
-0.093425
-0.096705
-0.100346
-0.104450
-0.109178
-0.114782
-0.121664
-0.130490
-0.142370
-0.159096
-0.182998
-0.214809
-0.248052
-0.258113
-0.212094
-0.102674
0.029942
0.105926
-0.060695
-0.060950
-0.061097
-0.061201
-0.061308
-0.061442
-0.061618
-0.061847
-0.062141
-0.062505
-0.062947
-0.063472
-0.064082
-0.064782
-0.065575
-0.066463
-0.067451
-0.068543
-0.069742
-0.071056
-0.072489
-0.074051
-0.075750
-0.077597
-0.079605
-0.081789
-0.084168
-0.086764
-0.089605
-0.092725
-0.096169
-0.099996
-0.104286
-0.109152
-0.114755
-0.121334
-0.129253
-0.139086
-0.151763
-0.168846
-0.193032
-0.228809
-0.282180
-0.356019
-0.438607
-0.495512
-0.469834
-0.350990
-0.186860
-0.084710
-0.063279
-0.063546
-0.063659
-0.063707
-0.063750
-0.063824
-0.063947
-0.064137
-0.064406
-0.064761
-0.065211
-0.065760
-0.066413
-0.067172
-0.068042
-0.069026
-0.070128
-0.071353
-0.072708
-0.074200
-0.075839
-0.077636
-0.079603
-0.081757
-0.084117
-0.086705
-0.089550
-0.092686
-0.096155
-0.100010
-0.104322
-0.109182
-0.114715
-0.121092
-0.128563
-0.137496
-0.148454
-0.162326
-0.180577
-0.205712
-0.242118
-0.297112
-0.380270
-0.495824
-0.625827
-0.722937
-0.720306
-0.605246
-0.427531
-0.308155
-0.066088
-0.066364
-0.066417
-0.066371
-0.066314
-0.066290
-0.066330
-0.066453
-0.066674
-0.067002
-0.067444
-0.068005
-0.068689
-0.069498
-0.070435
-0.071504
-0.072711
-0.074060
-0.075559
-0.077219
-0.079049
-0.081065
-0.083283
-0.085723
-0.088410
-0.091374
-0.094652
-0.098287
-0.102336
-0.106868
-0.111975
-0.117776
-0.124430
-0.132160
-0.141285
-0.152271
-0.165832
-0.183100
-0.205937
-0.237529
-0.283431
-0.352753
-0.457005
-0.600612
-0.761428
-0.881985
-0.898398
-0.798771
-0.629029
-0.506334
-0.069206
-0.069485
-0.069435
-0.069240
-0.069025
-0.068855
-0.068768
-0.068789
-0.068935
-0.069214
-0.069631
-0.070191
-0.070893
-0.071741
-0.072735
-0.073880
-0.075180
-0.076641
-0.078272
-0.080084
-0.082089
-0.084304
-0.086750
-0.089449
-0.092433
-0.095736
-0.099401
-0.103482
-0.108045
-0.113174
-0.118974
-0.125585
-0.133193
-0.142050
-0.152517
-0.165115
-0.180634
-0.200309
-0.226147
-0.261522
-0.312154
-0.387080
-0.497050
-0.645469
-0.809808
-0.932831
-0.958477
-0.881653
-0.739123
-0.628227
-0.072765
-0.073029
-0.072804
-0.072371
-0.071915
-0.071527
-0.071259
-0.071136
-0.071175
-0.071381
-0.071756
-0.072299
-0.073008
-0.073884
-0.074925
-0.076135
-0.077518
-0.079078
-0.080826
-0.082773
-0.084933
-0.087325
-0.089971
-0.092899
-0.096141
-0.099737
-0.103737
-0.108199
-0.113197
-0.118824
-0.125196
-0.132463
-0.140822
-0.150540
-0.161987
-0.175689
-0.192427
-0.213394
-0.240476
-0.276720
-0.326989
-0.398471
-0.498131
-0.626944
-0.766680
-0.868635
-0.896017
-0.845057
-0.737464
-0.648201
-0.076971
-0.077184
-0.076654
-0.075837
-0.075014
-0.074313
-0.073792
-0.073476
-0.073372
-0.073481
-0.073796
-0.074309
-0.075015
-0.075909
-0.076988
-0.078253
-0.079705
-0.081352
-0.083201
-0.085264
-0.087558
-0.090101
-0.092918
-0.096038
-0.099497
-0.103337
-0.107610
-0.112381
-0.117726
-0.123743
-0.130553
-0.138308
-0.147206
-0.157510
-0.169572
-0.183883
-0.201147
-0.222408
-0.249249
-0.284109
-0.330179
-0.391892
-0.473820
-0.574300
-0.676039
-0.740740
-0.747023
-0.706794
-0.637888
-0.568270
-0.082169
-0.082244
-0.081165
-0.079720
-0.078343
-0.077199
-0.076340
-0.075775
-0.075496
-0.075485
-0.075725
-0.076199
-0.076893
-0.077797
-0.078905
-0.080215
-0.081727
-0.083446
-0.085380
-0.087541
-0.089945
-0.092613
-0.095569
-0.098844
-0.102474
-0.106504
-0.110987
-0.115989
-0.121590
-0.127885
-0.134996
-0.143073
-0.152305
-0.162938
-0.175291
-0.189795
-0.207038
-0.227869
-0.253501
-0.285182
-0.325152
-0.375934
-0.438996
-0.510639
-0.575511
-0.605887
-0.590006
-0.543379
-0.478531
-0.402825
-0.088991
-0.088706
-0.086582
-0.084094
-0.081890
-0.080143
-0.078853
-0.077986
-0.077500
-0.077354
-0.077511
-0.077939
-0.078616
-0.079526
-0.080656
-0.082003
-0.083564
-0.085342
-0.087344
-0.089583
-0.092074
-0.094838
-0.097901
-0.101292
-0.105048
-0.109214
-0.113844
-0.119002
-0.124767
-0.131234
-0.138519
-0.146766
-0.156152
-0.166900
-0.179293
-0.193697
-0.210572
-0.230591
-0.254311
-0.282680
-0.316912
-0.357943
-0.405340
-0.454415
-0.492300
-0.499360
-0.466273
-0.399324
-0.283382
-0.142479
-0.098721
-0.097429
-0.093195
-0.088957
-0.085559
-0.083039
-0.081230
-0.080017
-0.079304
-0.079016
-0.079088
-0.079469
-0.080127
-0.081037
-0.082183
-0.083558
-0.085158
-0.086983
-0.089035
-0.091331
-0.093886
-0.096721
-0.099859
-0.103330
-0.107171
-0.111424
-0.116144
-0.121393
-0.127248
-0.133798
-0.141156
-0.149458
-0.158868
-0.169590
-0.181878
-0.196059
-0.212404
-0.231391
-0.253487
-0.279212
-0.309064
-0.343082
-0.379870
-0.414552
-0.436341
-0.430043
-0.380416
-0.262230
-0.006314
0.309938
-0.114617
-0.110095
-0.101181
-0.094072
-0.089035
-0.085617
-0.083200
-0.081599
-0.080638
-0.080204
-0.080189
-0.080522
-0.081156
-0.082060
-0.083215
-0.084610
-0.086240
-0.088103
-0.090184
-0.092520
-0.095122
-0.098007
-0.101198
-0.104725
-0.108624
-0.112937
-0.117713
-0.123014
-0.128914
-0.135502
-0.142885
-0.151191
-0.160578
-0.171233
-0.183384
-0.197296
-0.213246
-0.231575
-0.252624
-0.276695
-0.303908
-0.333808
-0.364490
-0.390981
-0.403544
-0.386104
-0.299736
-0.055449
0.498814
1.199830
-0.145120
-0.128528
-0.110193
-0.097936
-0.090490
-0.086118
-0.082952
-0.081053
-0.079996
-0.079487
-0.079441
-0.079776
-0.080434
-0.081376
-0.082578
-0.084025
-0.085710
-0.087628
-0.089778
-0.092179
-0.094847
-0.097798
-0.101057
-0.104652
-0.108619
-0.112998
-0.117840
-0.123205
-0.129165
-0.135809
-0.143239
-0.151584
-0.160996
-0.171657
-0.183781
-0.197615
-0.213426
-0.231502
-0.252114
-0.275428
-0.301317
-0.328928
-0.355716
-0.375997
-0.378929
-0.324927
-0.134132
0.376076
1.459624
2.888714
-0.247674
-0.110194
-0.081945
-0.074193
-0.071347
-0.070207
-0.069673
-0.069667
-0.070040
-0.070669
-0.071539
-0.072630
-0.073923
-0.075409
-0.077081
-0.078940
-0.080988
-0.083229
-0.085674
-0.088341
-0.091250
-0.094425
-0.097890
-0.101678
-0.105825
-0.110375
-0.115378
-0.120898
-0.127006
-0.133791
-0.141360
-0.149838
-0.159379
-0.170163
-0.182403
-0.196336
-0.212223
-0.230326
-0.250861
-0.273882
-0.299002
-0.324799
-0.347220
-0.356270
-0.323061
-0.185840
0.187607
1.060389
2.748575
5.024996
