# vtk DataFile Version 3.0
Vector Field
ASCII
DATASET RECTILINEAR_GRID
DIMENSIONS 50 50 1
X_COORDINATES 50 double
0.100000 0.300000 0.500000 0.700000 0.900000 1.100000 1.300000 1.500000 1.700000 1.900000 2.100000 2.300000 2.500000 2.700000 2.900000 3.100000 3.300000 3.500000 3.700000 3.900000 4.100000 4.300000 4.500000 4.700000 4.900000 5.100000 5.300000 5.500000 5.700000 5.900000 6.100000 6.300000 6.500000 6.700000 6.900000 7.100000 7.300000 7.500000 7.700000 7.900000 8.100000 8.300000 8.500000 8.700000 8.900000 9.100000 9.300000 9.500000 9.700000 9.900000 
Y_COORDINATES 50 double
0.100000 0.300000 0.500000 0.700000 0.900000 1.100000 1.300000 1.500000 1.700000 1.900000 2.100000 2.300000 2.500000 2.700000 2.900000 3.100000 3.300000 3.500000 3.700000 3.900000 4.100000 4.300000 4.500000 4.700000 4.900000 5.100000 5.300000 5.500000 5.700000 5.900000 6.100000 6.300000 6.500000 6.700000 6.900000 7.100000 7.300000 7.500000 7.700000 7.900000 8.100000 8.300000 8.500000 8.700000 8.900000 9.100000 9.300000 9.500000 9.700000 9.900000 
Z_COORDINATES 1 double
0.0
POINT_DATA 2500
VECTORS Vektorfeld double
0.000017 -0.000017 0.0
0.000039 -0.000006 0.0
0.000024 0.000021 0.0
-0.000047 0.000050 0.0
-0.000175 0.000077 0.0
-0.000352 0.000100 0.0
-0.000571 0.000118 0.0
-0.000821 0.000132 0.0
-0.001095 0.000142 0.0
-0.001385 0.000148 0.0
-0.001684 0.000151 0.0
-0.001988 0.000152 0.0
-0.002290 0.000150 0.0
-0.002587 0.000147 0.0
-0.002875 0.000142 0.0
-0.003152 0.000135 0.0
-0.003414 0.000127 0.0
-0.003658 0.000118 0.0
-0.003884 0.000108 0.0
-0.004087 0.000096 0.0
-0.004267 0.000084 0.0
-0.004421 0.000070 0.0
-0.004547 0.000056 0.0
-0.004644 0.000041 0.0
-0.004709 0.000024 0.0
-0.004740 0.000007 0.0
-0.004738 -0.000010 0.0
-0.004699 -0.000028 0.0
-0.004624 -0.000047 0.0
-0.004513 -0.000065 0.0
-0.004364 -0.000083 0.0
-0.004181 -0.000101 0.0
-0.003963 -0.000117 0.0
-0.003713 -0.000133 0.0
-0.003434 -0.000146 0.0
-0.003130 -0.000158 0.0
-0.002806 -0.000166 0.0
-0.002467 -0.000172 0.0
-0.002120 -0.000175 0.0
-0.001772 -0.000173 0.0
-0.001430 -0.000168 0.0
-0.001104 -0.000158 0.0
-0.000802 -0.000144 0.0
-0.000533 -0.000125 0.0
-0.000306 -0.000102 0.0
-0.000130 -0.000075 0.0
-0.000011 -0.000044 0.0
0.000046 -0.000014 0.0
0.000048 0.000012 0.0
0.000018 0.000018 0.0
0.000006 -0.000039 0.0
-0.000020 0.000021 0.0
-0.000146 0.000135 0.0
-0.000398 0.000260 0.0
-0.000778 0.000376 0.0
-0.001276 0.000477 0.0
-0.001874 0.000558 0.0
-0.002552 0.000621 0.0
-0.003291 0.000666 0.0
-0.004071 0.000695 0.0
-0.004878 0.000710 0.0
-0.005695 0.000713 0.0
-0.006510 0.000706 0.0
-0.007312 0.000690 0.0
-0.008091 0.000665 0.0
-0.008837 0.000634 0.0
-0.009544 0.000596 0.0
-0.010203 0.000553 0.0
-0.010809 0.000504 0.0
-0.011355 0.000450 0.0
-0.011836 0.000391 0.0
-0.012246 0.000327 0.0
-0.012579 0.000259 0.0
-0.012832 0.000186 0.0
-0.012999 0.000110 0.0
-0.013076 0.000031 0.0
-0.013061 -0.000052 0.0
-0.012949 -0.000136 0.0
-0.012741 -0.000222 0.0
-0.012436 -0.000307 0.0
-0.012033 -0.000391 0.0
-0.011537 -0.000473 0.0
-0.010951 -0.000549 0.0
-0.010282 -0.000620 0.0
-0.009537 -0.000682 0.0
-0.008727 -0.000735 0.0
-0.007865 -0.000775 0.0
-0.006965 -0.000802 0.0
-0.006044 -0.000813 0.0
-0.005121 -0.000807 0.0
-0.004214 -0.000782 0.0
-0.003346 -0.000738 0.0
-0.002538 -0.000674 0.0
-0.001813 -0.000590 0.0
-0.001190 -0.000487 0.0
-0.000689 -0.000367 0.0
-0.000322 -0.000237 0.0
-0.000095 -0.000106 0.0
0.000004 0.000003 0.0
0.000012 0.000049 0.0
-0.000021 -0.000025 0.0
-0.000134 0.000147 0.0
-0.000410 0.000410 0.0
-0.000866 0.000693 0.0
-0.001501 0.000959 0.0
-0.002301 0.001191 0.0
-0.003241 0.001382 0.0
-0.004296 0.001530 0.0
-0.005438 0.001638 0.0
-0.006643 0.001708 0.0
-0.007885 0.001745 0.0
-0.009143 0.001753 0.0
-0.010397 0.001736 0.0
-0.011631 0.001696 0.0
-0.012828 0.001635 0.0
-0.013976 0.001558 0.0
-0.015061 0.001464 0.0
-0.016073 0.001356 0.0
-0.017002 0.001235 0.0
-0.017838 0.001101 0.0
-0.018572 0.000954 0.0
-0.019195 0.000797 0.0
-0.019701 0.000628 0.0
-0.020080 0.000450 0.0
-0.020328 0.000262 0.0
-0.020439 0.000066 0.0
-0.020406 -0.000136 0.0
-0.020228 -0.000342 0.0
-0.019901 -0.000551 0.0
-0.019427 -0.000759 0.0
-0.018806 -0.000963 0.0
-0.018042 -0.001160 0.0
-0.017144 -0.001346 0.0
-0.016119 -0.001517 0.0
-0.014981 -0.001668 0.0
-0.013746 -0.001794 0.0
-0.012432 -0.001892 0.0
-0.011062 -0.001956 0.0
-0.009659 -0.001983 0.0
-0.008251 -0.001969 0.0
-0.006868 -0.001910 0.0
-0.005540 -0.001806 0.0
-0.004298 -0.001655 0.0
-0.003173 -0.001459 0.0
-0.002194 -0.001219 0.0
-0.001386 -0.000944 0.0
-0.000766 -0.000646 0.0
-0.000341 -0.000349 0.0
-0.000101 -0.000093 0.0
-0.000012 0.000048 0.0
-0.000051 0.000046 0.0
-0.000263 0.000402 0.0
-0.000703 0.000869 0.0
-0.001372 0.001358 0.0
-0.002261 0.001817 0.0
-0.003347 0.002219 0.0
-0.004603 0.002551 0.0
-0.005998 0.002811 0.0
-0.007500 0.003001 0.0
-0.009077 0.003126 0.0
-0.010700 0.003192 0.0
-0.012341 0.003206 0.0
-0.013975 0.003173 0.0
-0.015582 0.003099 0.0
-0.017140 0.002988 0.0
-0.018633 0.002845 0.0
-0.020043 0.002673 0.0
-0.021358 0.002474 0.0
-0.022562 0.002250 0.0
-0.023645 0.002003 0.0
-0.024593 0.001734 0.0
-0.025398 0.001445 0.0
-0.026047 0.001135 0.0
-0.026533 0.000808 0.0
-0.026847 0.000465 0.0
-0.026982 0.000108 0.0
-0.026932 -0.000260 0.0
-0.026692 -0.000635 0.0
-0.026262 -0.001014 0.0
-0.025640 -0.001392 0.0
-0.024829 -0.001762 0.0
-0.023836 -0.002118 0.0
-0.022669 -0.002454 0.0
-0.021341 -0.002762 0.0
-0.019867 -0.003034 0.0
-0.018269 -0.003262 0.0
-0.016570 -0.003438 0.0
-0.014797 -0.003554 0.0
-0.012982 -0.003603 0.0
-0.011159 -0.003579 0.0
-0.009364 -0.003478 0.0
-0.007635 -0.003296 0.0
-0.006011 -0.003032 0.0
-0.004528 -0.002689 0.0
-0.003223 -0.002273 0.0
-0.002123 -0.001798 0.0
-0.001252 -0.001284 0.0
-0.000619 -0.000769 0.0
-0.000222 -0.000311 0.0
-0.000040 -0.000004 0.0
-0.000080 0.000177 0.0
-0.000389 0.000794 0.0
-0.000993 0.001521 0.0
-0.001873 0.002257 0.0
-0.003008 0.002942 0.0
-0.004368 0.003540 0.0
-0.005919 0.004037 0.0
-0.007626 0.004427 0.0
-0.009453 0.004713 0.0
-0.011363 0.004901 0.0
-0.013323 0.005000 0.0
-0.015302 0.005018 0.0
-0.017270 0.004964 0.0
-0.019202 0.004846 0.0
-0.021076 0.004672 0.0
-0.022868 0.004447 0.0
-0.024562 0.004176 0.0
-0.026138 0.003862 0.0
-0.027581 0.003510 0.0
-0.028877 0.003122 0.0
-0.030011 0.002699 0.0
-0.030971 0.002244 0.0
-0.031744 0.001759 0.0
-0.032321 0.001247 0.0
-0.032690 0.000710 0.0
-0.032845 0.000153 0.0
-0.032779 -0.000421 0.0
-0.032486 -0.001006 0.0
-0.031964 -0.001596 0.0
-0.031214 -0.002182 0.0
-0.030240 -0.002756 0.0
-0.029047 -0.003309 0.0
-0.027647 -0.003830 0.0
-0.026056 -0.004307 0.0
-0.024291 -0.004728 0.0
-0.022377 -0.005081 0.0
-0.020342 -0.005353 0.0
-0.018218 -0.005534 0.0
-0.016043 -0.005613 0.0
-0.013854 -0.005581 0.0
-0.011694 -0.005431 0.0
-0.009608 -0.005158 0.0
-0.007639 -0.004763 0.0
-0.005830 -0.004249 0.0
-0.004221 -0.003628 0.0
-0.002845 -0.002918 0.0
-0.001730 -0.002150 0.0
-0.000893 -0.001373 0.0
-0.000340 -0.000658 0.0
-0.000067 -0.000111 0.0
-0.000106 0.000362 0.0
-0.000506 0.001319 0.0
-0.001266 0.002359 0.0
-0.002348 0.003382 0.0
-0.003718 0.004321 0.0
-0.005337 0.005139 0.0
-0.007165 0.005818 0.0
-0.009162 0.006350 0.0
-0.011286 0.006741 0.0
-0.013499 0.006996 0.0
-0.015763 0.007128 0.0
-0.018044 0.007148 0.0
-0.020309 0.007068 0.0
-0.022531 0.006897 0.0
-0.024683 0.006646 0.0
-0.026741 0.006323 0.0
-0.028683 0.005935 0.0
-0.030490 0.005487 0.0
-0.032144 0.004983 0.0
-0.033627 0.004428 0.0
-0.034925 0.003824 0.0
-0.036022 0.003175 0.0
-0.036905 0.002485 0.0
-0.037563 0.001755 0.0
-0.037983 0.000992 0.0
-0.038157 0.000200 0.0
-0.038078 -0.000615 0.0
-0.037740 -0.001444 0.0
-0.037140 -0.002279 0.0
-0.036279 -0.003109 0.0
-0.035162 -0.003922 0.0
-0.033795 -0.004703 0.0
-0.032191 -0.005439 0.0
-0.030367 -0.006113 0.0
-0.028345 -0.006708 0.0
-0.026151 -0.007208 0.0
-0.023818 -0.007595 0.0
-0.021380 -0.007854 0.0
-0.018880 -0.007970 0.0
-0.016361 -0.007932 0.0
-0.013871 -0.007730 0.0
-0.011457 -0.007358 0.0
-0.009170 -0.006818 0.0
-0.007057 -0.006116 0.0
-0.005162 -0.005266 0.0
-0.003525 -0.004293 0.0
-0.002179 -0.003237 0.0
-0.001147 -0.002155 0.0
-0.000447 -0.001128 0.0
-0.000091 -0.000270 0.0
-0.000129 0.000597 0.0
-0.000612 0.001967 0.0
-0.001517 0.003375 0.0
-0.002789 0.004721 0.0
-0.004381 0.005943 0.0
-0.006244 0.007000 0.0
-0.008332 0.007873 0.0
-0.010599 0.008558 0.0
-0.013000 0.009058 0.0
-0.015491 0.009383 0.0
-0.018033 0.009548 0.0
-0.020589 0.009565 0.0
-0.023124 0.009451 0.0
-0.025607 0.009218 0.0
-0.028009 0.008879 0.0
-0.030305 0.008444 0.0
-0.032471 0.007922 0.0
-0.034486 0.007321 0.0
-0.036329 0.006646 0.0
-0.037983 0.005902 0.0
-0.039429 0.005094 0.0
-0.040651 0.004226 0.0
-0.041636 0.003302 0.0
-0.042370 0.002328 0.0
-0.042840 0.001309 0.0
-0.043036 0.000253 0.0
-0.042950 -0.000833 0.0
-0.042576 -0.001938 0.0
-0.041910 -0.003050 0.0
-0.040955 -0.004155 0.0
-0.039712 -0.005236 0.0
-0.038192 -0.006276 0.0
-0.036407 -0.007255 0.0
-0.034376 -0.008152 0.0
-0.032122 -0.008945 0.0
-0.029674 -0.009612 0.0
-0.027068 -0.010131 0.0
-0.024342 -0.010481 0.0
-0.021542 -0.010644 0.0
-0.018716 -0.010603 0.0
-0.015916 -0.010349 0.0
-0.013195 -0.009873 0.0
-0.010608 -0.009178 0.0
-0.008206 -0.008271 0.0
-0.006041 -0.007171 0.0
-0.004155 -0.005910 0.0
-0.002590 -0.004533 0.0
-0.001376 -0.003104 0.0
-0.000542 -0.001713 0.0
-0.000112 -0.000472 0.0
-0.000150 0.000877 0.0
-0.000708 0.002729 0.0
-0.001745 0.004555 0.0
-0.003195 0.006263 0.0
-0.004995 0.007793 0.0
-0.007089 0.009107 0.0
-0.009422 0.010187 0.0
-0.011942 0.011031 0.0
-0.014601 0.011644 0.0
-0.017352 0.012040 0.0
-0.020153 0.012234 0.0
-0.022963 0.012245 0.0
-0.025746 0.012090 0.0
-0.028469 0.011785 0.0
-0.031101 0.011347 0.0
-0.033616 0.010787 0.0
-0.035988 0.010117 0.0
-0.038194 0.009346 0.0
-0.040213 0.008482 0.0
-0.042024 0.007530 0.0
-0.043610 0.006497 0.0
-0.044952 0.005388 0.0
-0.046035 0.004208 0.0
-0.046845 0.002965 0.0
-0.047367 0.001665 0.0
-0.047590 0.000317 0.0
-0.047506 -0.001068 0.0
-0.047106 -0.002477 0.0
-0.046389 -0.003894 0.0
-0.045353 -0.005302 0.0
-0.044003 -0.006681 0.0
-0.042347 -0.008007 0.0
-0.040399 -0.009257 0.0
-0.038179 -0.010402 0.0
-0.035711 -0.011417 0.0
-0.033027 -0.012272 0.0
-0.030165 -0.012940 0.0
-0.027168 -0.013395 0.0
-0.024083 -0.013614 0.0
-0.020963 -0.013578 0.0
-0.017866 -0.013272 0.0
-0.014848 -0.012688 0.0
-0.011970 -0.011828 0.0
-0.009290 -0.010702 0.0
-0.006862 -0.009333 0.0
-0.004739 -0.007757 0.0
-0.002966 -0.006025 0.0
-0.001583 -0.004208 0.0
-0.000626 -0.002399 0.0
-0.000129 -0.000713 0.0
-0.000169 0.001195 0.0
-0.000794 0.003594 0.0
-0.001955 0.005887 0.0
-0.003569 0.007994 0.0
-0.005565 0.009858 0.0
-0.007876 0.011446 0.0
-0.010440 0.012745 0.0
-0.013201 0.013754 0.0
-0.016104 0.014483 0.0
-0.019101 0.014948 0.0
-0.022144 0.015169 0.0
-0.025193 0.015168 0.0
-0.028209 0.014965 0.0
-0.031157 0.014581 0.0
-0.034005 0.014033 0.0
-0.036726 0.013337 0.0
-0.039292 0.012506 0.0
-0.041679 0.011551 0.0
-0.043865 0.010482 0.0
-0.045828 0.009305 0.0
-0.047550 0.008029 0.0
-0.049010 0.006659 0.0
-0.050193 0.005203 0.0
-0.051082 0.003668 0.0
-0.051662 0.002064 0.0
-0.051922 0.000401 0.0
-0.051849 -0.001308 0.0
-0.051438 -0.003047 0.0
-0.050682 -0.004797 0.0
-0.049580 -0.006536 0.0
-0.048138 -0.008240 0.0
-0.046361 -0.009880 0.0
-0.044266 -0.011427 0.0
-0.041871 -0.012847 0.0
-0.039203 -0.014107 0.0
-0.036295 -0.015172 0.0
-0.033187 -0.016009 0.0
-0.029926 -0.016585 0.0
-0.026562 -0.016873 0.0
-0.023154 -0.016847 0.0
-0.019762 -0.016491 0.0
-0.016451 -0.015797 0.0
-0.013285 -0.014763 0.0
-0.010329 -0.013404 0.0
-0.007644 -0.011744 0.0
-0.005288 -0.009825 0.0
-0.003314 -0.007703 0.0
-0.001771 -0.005456 0.0
-0.000701 -0.003179 0.0
-0.000144 -0.000986 0.0
-0.000186 0.001550 0.0
-0.000874 0.004553 0.0
-0.002148 0.007362 0.0
-0.003916 0.009902 0.0
-0.006096 0.012126 0.0
-0.008614 0.014007 0.0
-0.011399 0.015535 0.0
-0.014389 0.016715 0.0
-0.017526 0.017562 0.0
-0.020756 0.018096 0.0
-0.024032 0.018341 0.0
-0.027309 0.018322 0.0
-0.030547 0.018065 0.0
-0.033710 0.017592 0.0
-0.036766 0.016926 0.0
-0.039684 0.016083 0.0
-0.042437 0.015079 0.0
-0.045001 0.013928 0.0
-0.047351 0.012640 0.0
-0.049465 0.011225 0.0
-0.051324 0.009689 0.0
-0.052906 0.008042 0.0
-0.054194 0.006291 0.0
-0.055170 0.004445 0.0
-0.055819 0.002516 0.0
-0.056126 0.000515 0.0
-0.056079 -0.001542 0.0
-0.055668 -0.003636 0.0
-0.054889 -0.005744 0.0
-0.053738 -0.007841 0.0
-0.052217 -0.009898 0.0
-0.050335 -0.011881 0.0
-0.048105 -0.013753 0.0
-0.045546 -0.015475 0.0
-0.042687 -0.017006 0.0
-0.039562 -0.018306 0.0
-0.036213 -0.019333 0.0
-0.032689 -0.020048 0.0
-0.029046 -0.020417 0.0
-0.025346 -0.020411 0.0
-0.021656 -0.020009 0.0
-0.018046 -0.019200 0.0
-0.014587 -0.017985 0.0
-0.011351 -0.016376 0.0
-0.008406 -0.014403 0.0
-0.005818 -0.012110 0.0
-0.003647 -0.009562 0.0
-0.001947 -0.006840 0.0
-0.000769 -0.004043 0.0
-0.000158 -0.001289 0.0
-0.000201 0.001936 0.0
-0.000947 0.005601 0.0
-0.002328 0.008969 0.0
-0.004242 0.011978 0.0
-0.006598 0.014587 0.0
-0.009313 0.016777 0.0
-0.012310 0.018547 0.0
-0.015521 0.019905 0.0
-0.018884 0.020872 0.0
-0.022341 0.021474 0.0
-0.025842 0.021739 0.0
-0.029340 0.021699 0.0
-0.032794 0.021381 0.0
-0.036167 0.020813 0.0
-0.039425 0.020019 0.0
-0.042538 0.019020 0.0
-0.045477 0.017834 0.0
-0.048216 0.016476 0.0
-0.050732 0.014958 0.0
-0.053001 0.013290 0.0
-0.055001 0.011482 0.0
-0.056713 0.009543 0.0
-0.058115 0.007481 0.0
-0.059190 0.005307 0.0
-0.059920 0.003033 0.0
-0.060289 0.000673 0.0
-0.060283 -0.001753 0.0
-0.059891 -0.004226 0.0
-0.059105 -0.006719 0.0
-0.057920 -0.009202 0.0
-0.056338 -0.011640 0.0
-0.054363 -0.013995 0.0
-0.052010 -0.016222 0.0
-0.049298 -0.018276 0.0
-0.046254 -0.020108 0.0
-0.042915 -0.021669 0.0
-0.039323 -0.022910 0.0
-0.035533 -0.023785 0.0
-0.031603 -0.024252 0.0
-0.027602 -0.024277 0.0
-0.023602 -0.023833 0.0
-0.019681 -0.022908 0.0
-0.015916 -0.021500 0.0
-0.012388 -0.019624 0.0
-0.009174 -0.017313 0.0
-0.006347 -0.014615 0.0
-0.003975 -0.011601 0.0
-0.002120 -0.008357 0.0
-0.000835 -0.004989 0.0
-0.000171 -0.001619 0.0
-0.000216 0.002353 0.0
-0.001017 0.006731 0.0
-0.002500 0.010702 0.0
-0.004554 0.014213 0.0
-0.007079 0.017233 0.0
-0.009984 0.019751 0.0
-0.013188 0.021773 0.0
-0.016615 0.023316 0.0
-0.020198 0.024406 0.0
-0.023877 0.025076 0.0
-0.027599 0.025360 0.0
-0.031316 0.025293 0.0
-0.034983 0.024909 0.0
-0.038564 0.024239 0.0
-0.042024 0.023311 0.0
-0.045331 0.022148 0.0
-0.048458 0.020772 0.0
-0.051377 0.019197 0.0
-0.054063 0.017439 0.0
-0.056494 0.015509 0.0
-0.058646 0.013417 0.0
-0.060498 0.011172 0.0
-0.062028 0.008785 0.0
-0.063217 0.006267 0.0
-0.064045 0.003631 0.0
-0.064494 0.000893 0.0
-0.064548 -0.001925 0.0
-0.064193 -0.004801 0.0
-0.063419 -0.007705 0.0
-0.062219 -0.010602 0.0
-0.060592 -0.013451 0.0
-0.058540 -0.016209 0.0
-0.056077 -0.018824 0.0
-0.053219 -0.021243 0.0
-0.049995 -0.023409 0.0
-0.046441 -0.025262 0.0
-0.042604 -0.026746 0.0
-0.038538 -0.027805 0.0
-0.034309 -0.028390 0.0
-0.029991 -0.028459 0.0
-0.025662 -0.027980 0.0
-0.021408 -0.026937 0.0
-0.017317 -0.025327 0.0
-0.013478 -0.023165 0.0
-0.009977 -0.020487 0.0
-0.006897 -0.017348 0.0
-0.004314 -0.013823 0.0
-0.002296 -0.010008 0.0
-0.000902 -0.006015 0.0
-0.000184 -0.001974 0.0
-0.000230 0.002800 0.0
-0.001085 0.007941 0.0
-0.002666 0.012556 0.0
-0.004856 0.016603 0.0
-0.007547 0.020059 0.0
-0.010640 0.022924 0.0
-0.014046 0.025211 0.0
-0.017686 0.026945 0.0
-0.021488 0.028162 0.0
-0.025388 0.028900 0.0
-0.029330 0.029200 0.0
-0.033264 0.029103 0.0
-0.037146 0.028648 0.0
-0.040936 0.027871 0.0
-0.044600 0.026802 0.0
-0.048106 0.025470 0.0
-0.051424 0.023895 0.0
-0.054529 0.022097 0.0
-0.057395 0.020091 0.0
-0.059998 0.017890 0.0
-0.062314 0.015504 0.0
-0.064321 0.012943 0.0
-0.065996 0.010219 0.0
-0.067317 0.007343 0.0
-0.068263 0.004329 0.0
-0.068813 0.001195 0.0
-0.068949 -0.002037 0.0
-0.068654 -0.005339 0.0
-0.067915 -0.008680 0.0
-0.066721 -0.012020 0.0
-0.065068 -0.015314 0.0
-0.062957 -0.018509 0.0
-0.060396 -0.021549 0.0
-0.057402 -0.024370 0.0
-0.054002 -0.026906 0.0
-0.050233 -0.029088 0.0
-0.046142 -0.030848 0.0
-0.041789 -0.032121 0.0
-0.037243 -0.032848 0.0
-0.032584 -0.032978 0.0
-0.027900 -0.032473 0.0
-0.023286 -0.031312 0.0
-0.018840 -0.029489 0.0
-0.014661 -0.027021 0.0
-0.010847 -0.023946 0.0
-0.007491 -0.020325 0.0
-0.004678 -0.016242 0.0
-0.002484 -0.011801 0.0
-0.000973 -0.007126 0.0
-0.000198 -0.002357 0.0
-0.000244 0.003274 0.0
-0.001151 0.009228 0.0
-0.002830 0.014529 0.0
-0.005155 0.019145 0.0
-0.008010 0.023063 0.0
-0.011290 0.026293 0.0
-0.014899 0.028857 0.0
-0.018751 0.030792 0.0
-0.022772 0.032138 0.0
-0.026893 0.032945 0.0
-0.031057 0.033260 0.0
-0.035211 0.033130 0.0
-0.039309 0.032601 0.0
-0.043313 0.031712 0.0
-0.047186 0.030498 0.0
-0.050896 0.028990 0.0
-0.054415 0.027213 0.0
-0.057716 0.025186 0.0
-0.060773 0.022926 0.0
-0.063561 0.020447 0.0
-0.066057 0.017759 0.0
-0.068236 0.014874 0.0
-0.070075 0.011802 0.0
-0.071550 0.008555 0.0
-0.072637 0.005149 0.0
-0.073314 0.001602 0.0
-0.073558 -0.002063 0.0
-0.073349 -0.005816 0.0
-0.072670 -0.009621 0.0
-0.071507 -0.013436 0.0
-0.069851 -0.017207 0.0
-0.067700 -0.020879 0.0
-0.065057 -0.024383 0.0
-0.061938 -0.027648 0.0
-0.058368 -0.030598 0.0
-0.054382 -0.033151 0.0
-0.050030 -0.035228 0.0
-0.045375 -0.036751 0.0
-0.040490 -0.037650 0.0
-0.035462 -0.037863 0.0
-0.030390 -0.037345 0.0
-0.025378 -0.036067 0.0
-0.020537 -0.034021 0.0
-0.015980 -0.031225 0.0
-0.011817 -0.027719 0.0
-0.008153 -0.023572 0.0
-0.005084 -0.018877 0.0
-0.002694 -0.013750 0.0
-0.001053 -0.008329 0.0
-0.000213 -0.002768 0.0
-0.000258 0.003776 0.0
-0.001218 0.010592 0.0
-0.002995 0.016621 0.0
-0.005456 0.021839 0.0
-0.008477 0.026245 0.0
-0.011944 0.029858 0.0
-0.015757 0.032713 0.0
-0.019825 0.034856 0.0
-0.024067 0.036337 0.0
-0.028413 0.037214 0.0
-0.032802 0.037543 0.0
-0.037180 0.037379 0.0
-0.041500 0.036772 0.0
-0.045723 0.035767 0.0
-0.049812 0.034405 0.0
-0.053736 0.032718 0.0
-0.057465 0.030733 0.0
-0.060973 0.028474 0.0
-0.064234 0.025956 0.0
-0.067224 0.023194 0.0
-0.069917 0.020200 0.0
-0.072289 0.016984 0.0
-0.074314 0.013556 0.0
-0.075968 0.009929 0.0
-0.077223 0.006118 0.0
-0.078055 0.002141 0.0
-0.078437 -0.001976 0.0
-0.078344 -0.006203 0.0
-0.077756 -0.010501 0.0
-0.076654 -0.014822 0.0
-0.075022 -0.019109 0.0
-0.072854 -0.023297 0.0
-0.070150 -0.027311 0.0
-0.066920 -0.031069 0.0
-0.063187 -0.034481 0.0
-0.058985 -0.037455 0.0
-0.054363 -0.039897 0.0
-0.049388 -0.041714 0.0
-0.044138 -0.042822 0.0
-0.038709 -0.043147 0.0
-0.033208 -0.042634 0.0
-0.027753 -0.041244 0.0
-0.022470 -0.038968 0.0
-0.017486 -0.035820 0.0
-0.012926 -0.031846 0.0
-0.008911 -0.027123 0.0
-0.005550 -0.021756 0.0
-0.002935 -0.015876 0.0
-0.001144 -0.009637 0.0
-0.000231 -0.003213 0.0
-0.000273 0.004308 0.0
-0.001287 0.012035 0.0
-0.003164 0.018833 0.0
-0.005764 0.024687 0.0
-0.008953 0.029607 0.0
-0.012613 0.033624 0.0
-0.016634 0.036783 0.0
-0.020921 0.039141 0.0
-0.025390 0.040762 0.0
-0.029966 0.041711 0.0
-0.034585 0.042054 0.0
-0.039193 0.041853 0.0
-0.043742 0.041166 0.0
-0.048191 0.040044 0.0
-0.052504 0.038530 0.0
-0.056650 0.036662 0.0
-0.060601 0.034469 0.0
-0.064329 0.031974 0.0
-0.067810 0.029197 0.0
-0.071018 0.026151 0.0
-0.073929 0.022847 0.0
-0.076516 0.019296 0.0
-0.078754 0.015507 0.0
-0.080613 0.011492 0.0
-0.082067 0.007264 0.0
-0.083086 0.002844 0.0
-0.083639 -0.001744 0.0
-0.083699 -0.006468 0.0
-0.083237 -0.011286 0.0
-0.082229 -0.016147 0.0
-0.080654 -0.020989 0.0
-0.078500 -0.025739 0.0
-0.075760 -0.030313 0.0
-0.072438 -0.034618 0.0
-0.068553 -0.038551 0.0
-0.064137 -0.042004 0.0
-0.059239 -0.044867 0.0
-0.053927 -0.047031 0.0
-0.048284 -0.048396 0.0
-0.042416 -0.048871 0.0
-0.036439 -0.048387 0.0
-0.030488 -0.046897 0.0
-0.024703 -0.044383 0.0
-0.019231 -0.040861 0.0
-0.014216 -0.036380 0.0
-0.009796 -0.031025 0.0
-0.006095 -0.024917 0.0
-0.003218 -0.018205 0.0
-0.001251 -0.011066 0.0
-0.000252 -0.003696 0.0
-0.000288 0.004868 0.0
-0.001358 0.013559 0.0
-0.003339 0.021168 0.0
-0.006082 0.027693 0.0
-0.009446 0.033154 0.0
-0.013303 0.037594 0.0
-0.017539 0.041071 0.0
-0.022053 0.043654 0.0
-0.026754 0.045419 0.0
-0.031566 0.046442 0.0
-0.036423 0.046799 0.0
-0.041268 0.046561 0.0
-0.046052 0.045792 0.0
-0.050736 0.044551 0.0
-0.055283 0.042884 0.0
-0.059662 0.040834 0.0
-0.063846 0.038432 0.0
-0.067809 0.035703 0.0
-0.071525 0.032666 0.0
-0.074971 0.029336 0.0
-0.078120 0.025723 0.0
-0.080946 0.021835 0.0
-0.083423 0.017682 0.0
-0.085519 0.013273 0.0
-0.087204 0.008622 0.0
-0.088446 0.003746 0.0
-0.089209 -0.001330 0.0
-0.089460 -0.006572 0.0
-0.089165 -0.011939 0.0
-0.088292 -0.017375 0.0
-0.086814 -0.022813 0.0
-0.084710 -0.028174 0.0
-0.081965 -0.033364 0.0
-0.078577 -0.038277 0.0
-0.074558 -0.042796 0.0
-0.069936 -0.046797 0.0
-0.064758 -0.050150 0.0
-0.059092 -0.052727 0.0
-0.053028 -0.054406 0.0
-0.046678 -0.055080 0.0
-0.040174 -0.054660 0.0
-0.033663 -0.053086 0.0
-0.027308 -0.050333 0.0
-0.021276 -0.046414 0.0
-0.015734 -0.041383 0.0
-0.010842 -0.035335 0.0
-0.006742 -0.028409 0.0
-0.003556 -0.020776 0.0
-0.001380 -0.012639 0.0
-0.000277 -0.004225 0.0
-0.000304 0.005460 0.0
-0.001433 0.015166 0.0
-0.003523 0.023633 0.0
-0.006415 0.030863 0.0
-0.009961 0.036893 0.0
-0.014024 0.041776 0.0
-0.018483 0.045584 0.0
-0.023230 0.048401 0.0
-0.028172 0.050315 0.0
-0.033229 0.051414 0.0
-0.038330 0.051785 0.0
-0.043420 0.051509 0.0
-0.048448 0.050658 0.0
-0.053375 0.049296 0.0
-0.058165 0.047476 0.0
-0.062788 0.045244 0.0
-0.067217 0.042634 0.0
-0.071428 0.039673 0.0
-0.075396 0.036380 0.0
-0.079097 0.032768 0.0
-0.082507 0.028848 0.0
-0.085598 0.024627 0.0
-0.088341 0.020110 0.0
-0.090706 0.015306 0.0
-0.092658 0.010226 0.0
-0.094161 0.004886 0.0
-0.095176 -0.000691 0.0
-0.095663 -0.006473 0.0
-0.095582 -0.012415 0.0
-0.094892 -0.018461 0.0
-0.093557 -0.024539 0.0
-0.091546 -0.030563 0.0
-0.088836 -0.036430 0.0
-0.085416 -0.042019 0.0
-0.081287 -0.047200 0.0
-0.076473 -0.051828 0.0
-0.071017 -0.055753 0.0
-0.064985 -0.058821 0.0
-0.058472 -0.060888 0.0
-0.051598 -0.061822 0.0
-0.044508 -0.061513 0.0
-0.037368 -0.059883 0.0
-0.030363 -0.056896 0.0
-0.023687 -0.052560 0.0
-0.017533 -0.046933 0.0
-0.012086 -0.040124 0.0
-0.007515 -0.032290 0.0
-0.003963 -0.023632 0.0
-0.001536 -0.014385 0.0
-0.000308 -0.004811 0.0
-0.000320 0.006084 0.0
-0.001512 0.016863 0.0
-0.003717 0.026232 0.0
-0.006767 0.034206 0.0
-0.010503 0.040832 0.0
-0.014782 0.046178 0.0
-0.019473 0.050332 0.0
-0.024464 0.053392 0.0
-0.029656 0.055459 0.0
-0.034965 0.056635 0.0
-0.040319 0.057020 0.0
-0.045661 0.056705 0.0
-0.050941 0.055770 0.0
-0.056119 0.054288 0.0
-0.061161 0.052316 0.0
-0.066037 0.049904 0.0
-0.070723 0.047090 0.0
-0.075195 0.043900 0.0
-0.079430 0.040356 0.0
-0.083406 0.036469 0.0
-0.087097 0.032248 0.0
-0.090477 0.027698 0.0
-0.093516 0.022822 0.0
-0.096183 0.017625 0.0
-0.098439 0.012115 0.0
-0.100245 0.006305 0.0
-0.101557 0.000216 0.0
-0.102329 -0.006122 0.0
-0.102513 -0.012665 0.0
-0.102059 -0.019355 0.0
-0.100921 -0.026118 0.0
-0.099057 -0.032860 0.0
-0.096431 -0.039469 0.0
-0.093020 -0.045812 0.0
-0.088817 -0.051739 0.0
-0.083835 -0.057086 0.0
-0.078109 -0.061677 0.0
-0.071704 -0.065333 0.0
-0.064718 -0.067877 0.0
-0.057277 -0.069149 0.0
-0.049540 -0.069012 0.0
-0.041695 -0.067367 0.0
-0.033952 -0.064160 0.0
-0.026534 -0.059391 0.0
-0.019668 -0.053123 0.0
-0.013572 -0.045477 0.0
-0.008444 -0.036635 0.0
-0.004453 -0.026831 0.0
-0.001726 -0.016339 0.0
-0.000346 -0.005465 0.0
-0.000338 0.006742 0.0
-0.001596 0.018653 0.0
-0.003923 0.028974 0.0
-0.007140 0.037730 0.0
-0.011078 0.044982 0.0
-0.015583 0.050812 0.0
-0.020518 0.055325 0.0
-0.025763 0.058635 0.0
-0.031214 0.060858 0.0
-0.036784 0.062114 0.0
-0.042400 0.062512 0.0
-0.048002 0.062156 0.0
-0.053541 0.061137 0.0
-0.058976 0.059534 0.0
-0.064277 0.057412 0.0
-0.069415 0.054823 0.0
-0.074367 0.051809 0.0
-0.079111 0.048398 0.0
-0.083627 0.044610 0.0
-0.087892 0.040456 0.0
-0.091885 0.035944 0.0
-0.095577 0.031075 0.0
-0.098941 0.025849 0.0
-0.101941 0.020266 0.0
-0.104539 0.014330 0.0
-0.106691 0.008049 0.0
-0.108348 0.001442 0.0
-0.109458 -0.005466 0.0
-0.109963 -0.012632 0.0
-0.109805 -0.019999 0.0
-0.108925 -0.027491 0.0
-0.107268 -0.035008 0.0
-0.104785 -0.042429 0.0
-0.101438 -0.049609 0.0
-0.097206 -0.056378 0.0
-0.092088 -0.062548 0.0
-0.086112 -0.067917 0.0
-0.079338 -0.072272 0.0
-0.071860 -0.075402 0.0
-0.063813 -0.077112 0.0
-0.055370 -0.077229 0.0
-0.046740 -0.075625 0.0
-0.038162 -0.072223 0.0
-0.029894 -0.067014 0.0
-0.022202 -0.060058 0.0
-0.015344 -0.051495 0.0
-0.009559 -0.041531 0.0
-0.005045 -0.030440 0.0
-0.001956 -0.018544 0.0
-0.000392 -0.006203 0.0
-0.000358 0.007438 0.0
-0.001686 0.020544 0.0
-0.004144 0.031868 0.0
-0.007539 0.041447 0.0
-0.011691 0.049354 0.0
-0.016435 0.055689 0.0
-0.021626 0.060574 0.0
-0.027136 0.064141 0.0
-0.032856 0.066524 0.0
-0.038696 0.067858 0.0
-0.044580 0.068268 0.0
-0.050448 0.067870 0.0
-0.056251 0.066765 0.0
-0.061950 0.065041 0.0
-0.067514 0.062770 0.0
-0.072919 0.060008 0.0
-0.078143 0.056800 0.0
-0.083167 0.053175 0.0
-0.087973 0.049154 0.0
-0.092542 0.044747 0.0
-0.096852 0.039957 0.0
-0.100879 0.034782 0.0
-0.104592 0.029218 0.0
-0.107957 0.023261 0.0
-0.110933 0.016908 0.0
-0.113473 0.010163 0.0
-0.115523 0.003036 0.0
-0.117024 -0.004450 0.0
-0.117910 -0.012257 0.0
-0.118112 -0.020331 0.0
-0.117558 -0.028594 0.0
-0.116177 -0.036943 0.0
-0.113906 -0.045249 0.0
-0.110688 -0.053353 0.0
-0.106484 -0.061068 0.0
-0.101279 -0.068180 0.0
-0.095087 -0.074454 0.0
-0.087956 -0.079640 0.0
-0.079980 -0.083488 0.0
-0.071295 -0.085757 0.0
-0.062090 -0.086233 0.0
-0.052594 -0.084747 0.0
-0.043078 -0.081195 0.0
-0.033843 -0.075547 0.0
-0.025198 -0.067862 0.0
-0.017454 -0.058293 0.0
-0.010892 -0.047080 0.0
-0.005757 -0.034540 0.0
-0.002235 -0.021054 0.0
-0.000449 -0.007044 0.0
-0.000378 0.008174 0.0
-0.001784 0.022542 0.0
-0.004382 0.034926 0.0
-0.007967 0.045370 0.0
-0.012346 0.053962 0.0
-0.017343 0.060823 0.0
-0.022802 0.066091 0.0
-0.028589 0.069921 0.0
-0.034589 0.072465 0.0
-0.040707 0.073875 0.0
-0.046865 0.074294 0.0
-0.053003 0.073850 0.0
-0.059073 0.072657 0.0
-0.065037 0.070812 0.0
-0.070866 0.068393 0.0
-0.076539 0.065463 0.0
-0.082038 0.062068 0.0
-0.087346 0.058240 0.0
-0.092448 0.053998 0.0
-0.097328 0.049352 0.0
-0.101968 0.044301 0.0
-0.106343 0.038839 0.0
-0.110426 0.032957 0.0
-0.114182 0.026643 0.0
-0.117569 0.019889 0.0
-0.120536 0.012690 0.0
-0.123027 0.005049 0.0
-0.124972 -0.003017 0.0
-0.126299 -0.011477 0.0
-0.126927 -0.020281 0.0
-0.126771 -0.029353 0.0
-0.125744 -0.038591 0.0
-0.123762 -0.047856 0.0
-0.120749 -0.056978 0.0
-0.116646 -0.065750 0.0
-0.111417 -0.073932 0.0
-0.105057 -0.081255 0.0
-0.097601 -0.087426 0.0
-0.089134 -0.092146 0.0
-0.079794 -0.095123 0.0
-0.069778 -0.096088 0.0
-0.059340 -0.094825 0.0
-0.048785 -0.091187 0.0
-0.038457 -0.085118 0.0
-0.028724 -0.076669 0.0
-0.019950 -0.066004 0.0
-0.012481 -0.053400 0.0
-0.006611 -0.039226 0.0
-0.002572 -0.023930 0.0
-0.000517 -0.008010 0.0
-0.000401 0.008953 0.0
-0.001889 0.024657 0.0
-0.004638 0.038158 0.0
-0.008427 0.049511 0.0
-0.013048 0.058821 0.0
-0.018313 0.066226 0.0
-0.024055 0.071890 0.0
-0.030131 0.075985 0.0
-0.036419 0.078688 0.0
-0.042821 0.080171 0.0
-0.049258 0.080593 0.0
-0.055669 0.080099 0.0
-0.062004 0.078814 0.0
-0.068231 0.076846 0.0
-0.074323 0.074280 0.0
-0.080260 0.071186 0.0
-0.086030 0.067612 0.0
-0.091618 0.063592 0.0
-0.097016 0.059145 0.0
-0.102209 0.054278 0.0
-0.107181 0.048987 0.0
-0.111914 0.043261 0.0
-0.116380 0.037084 0.0
-0.120546 0.030438 0.0
-0.124369 0.023304 0.0
-0.127797 0.015670 0.0
-0.130768 0.007530 0.0
-0.133208 -0.001111 0.0
-0.135035 -0.010229 0.0
-0.136156 -0.019780 0.0
-0.136473 -0.029694 0.0
-0.135879 -0.039870 0.0
-0.134272 -0.050166 0.0
-0.131553 -0.060400 0.0
-0.127636 -0.070347 0.0
-0.122462 -0.079739 0.0
-0.116002 -0.088269 0.0
-0.108272 -0.095598 0.0
-0.099342 -0.101371 0.0
-0.089347 -0.105233 0.0
-0.078490 -0.106851 0.0
-0.067045 -0.105945 0.0
-0.055353 -0.102314 0.0
-0.043808 -0.095863 0.0
-0.032840 -0.086625 0.0
-0.022886 -0.074776 0.0
-0.014360 -0.060624 0.0
-0.007627 -0.044604 0.0
-0.002975 -0.027242 0.0
-0.000600 -0.009127 0.0
-0.000425 0.009779 0.0
-0.002004 0.026898 0.0
-0.004916 0.041579 0.0
-0.008925 0.053887 0.0
-0.013805 0.063946 0.0
-0.019354 0.071915 0.0
-0.025393 0.077982 0.0
-0.031768 0.082344 0.0
-0.038353 0.085203 0.0
-0.045045 0.086751 0.0
-0.051761 0.087168 0.0
-0.058441 0.086615 0.0
-0.065039 0.085232 0.0
-0.071521 0.083137 0.0
-0.077866 0.080425 0.0
-0.084057 0.077170 0.0
-0.090087 0.073426 0.0
-0.095946 0.069226 0.0
-0.101628 0.064590 0.0
-0.107125 0.059523 0.0
-0.112426 0.054016 0.0
-0.117514 0.048053 0.0
-0.122366 0.041610 0.0
-0.126950 0.034661 0.0
-0.131224 0.027178 0.0
-0.135136 0.019136 0.0
-0.138619 0.010518 0.0
-0.141595 0.001318 0.0
-0.143974 -0.008452 0.0
-0.145651 -0.018758 0.0
-0.146513 -0.029538 0.0
-0.146436 -0.040696 0.0
-0.145295 -0.052089 0.0
-0.142965 -0.063527 0.0
-0.139334 -0.074767 0.0
-0.134312 -0.085515 0.0
-0.127841 -0.095423 0.0
-0.119912 -0.104103 0.0
-0.110574 -0.111134 0.0
-0.099950 -0.116089 0.0
-0.088243 -0.118558 0.0
-0.075746 -0.118180 0.0
-0.062834 -0.114683 0.0
-0.049954 -0.107918 0.0
-0.037606 -0.097886 0.0
-0.026310 -0.084765 0.0
-0.016568 -0.068902 0.0
-0.008829 -0.050798 0.0
-0.003455 -0.031075 0.0
-0.000699 -0.010426 0.0
-0.000452 0.010656 0.0
-0.002129 0.029276 0.0
-0.005219 0.045203 0.0
-0.009464 0.058516 0.0
-0.014622 0.069355 0.0
-0.020472 0.077905 0.0
-0.026822 0.084380 0.0
-0.033509 0.089007 0.0
-0.040397 0.092013 0.0
-0.047380 0.093615 0.0
-0.054374 0.094014 0.0
-0.061317 0.093391 0.0
-0.068165 0.091901 0.0
-0.074889 0.089674 0.0
-0.081470 0.086814 0.0
-0.087898 0.083401 0.0
-0.094166 0.079493 0.0
-0.100275 0.075126 0.0
-0.106221 0.070319 0.0
-0.112003 0.065073 0.0
-0.117614 0.059377 0.0
-0.123043 0.053208 0.0
-0.128270 0.046534 0.0
-0.133266 0.039318 0.0
-0.137993 0.031522 0.0
-0.142397 0.023107 0.0
-0.146411 0.014043 0.0
-0.149952 0.004309 0.0
-0.152922 -0.006095 0.0
-0.155207 -0.017152 0.0
-0.156680 -0.028810 0.0