# vtk DataFile Version 3.0
Scalar Field
ASCII
DATASET RECTILINEAR_GRID
DIMENSIONS 50 50 1
X_COORDINATES 50 double
0.100000 0.300000 0.500000 0.700000 0.900000 1.100000 1.300000 1.500000 1.700000 1.900000 2.100000 2.300000 2.500000 2.700000 2.900000 3.100000 3.300000 3.500000 3.700000 3.900000 4.100000 4.300000 4.500000 4.700000 4.900000 5.100000 5.300000 5.500000 5.700000 5.900000 6.100000 6.300000 6.500000 6.700000 6.900000 7.100000 7.300000 7.500000 7.700000 7.900000 8.100000 8.300000 8.500000 8.700000 8.900000 9.100000 9.300000 9.500000 9.700000 9.900000 
Y_COORDINATES 50 double
0.100000 0.300000 0.500000 0.700000 0.900000 1.100000 1.300000 1.500000 1.700000 1.900000 2.100000 2.300000 2.500000 2.700000 2.900000 3.100000 3.300000 3.500000 3.700000 3.900000 4.100000 4.300000 4.500000 4.700000 4.900000 5.100000 5.300000 5.500000 5.700000 5.900000 6.100000 6.300000 6.500000 6.700000 6.900000 7.100000 7.300000 7.500000 7.700000 7.900000 8.100000 8.300000 8.500000 8.700000 8.900000 9.100000 9.300000 9.500000 9.700000 9.900000 
Z_COORDINATES 1 double
0.0
POINT_DATA 2500
SCALARS Skalarfeld double 1
LOOKUP_TABLE default
0.004398
0.004374
0.004438
0.004612
0.004898
0.005297
0.005808
0.006431
0.007169
0.008024
0.008998
0.010094
0.011316
0.012667
0.014152
0.015773
0.017534
0.019440
0.021493
0.023697
0.026055
0.028569
0.031240
0.034067
0.037051
0.040186
0.043470
0.046893
0.050446
0.054115
0.057885
0.061734
0.065639
0.069568
0.073491
0.077372
0.081172
0.084851
0.088366
0.091676
0.094739
0.097517
0.099977
0.102087
0.103824
0.105173
0.106126
0.106692
0.106903
0.106849
0.004422
0.004397
0.004473
0.004655
0.004946
0.005346
0.005856
0.006479
0.007215
0.008068
0.009040
0.010135
0.011354
0.012703
0.014184
0.015802
0.017559
0.019461
0.021510
0.023709
0.026062
0.028570
0.031235
0.034057
0.037034
0.040164
0.043441
0.046859
0.050407
0.054071
0.057837
0.061683
0.065583
0.069511
0.073432
0.077313
0.081113
0.084792
0.088308
0.091617
0.094679
0.097455
0.099911
0.102017
0.103749
0.105094
0.106048
0.106620
0.106847
0.106790
0.004347
0.004311
0.004388
0.004572
0.004864
0.005264
0.005772
0.006392
0.007125
0.007974
0.008941
0.010030
0.011244
0.012586
0.014060
0.015670
0.017421
0.019315
0.021356
0.023548
0.025894
0.028395
0.031054
0.033871
0.036846
0.039974
0.043253
0.046675
0.050230
0.053906
0.057686
0.061550
0.065473
0.069426
0.073378
0.077291
0.081126
0.084839
0.088389
0.091730
0.094820
0.097619
0.100092
0.102209
0.103947
0.105293
0.106243
0.106809
0.107022
0.106936
0.004139
0.004095
0.004169
0.004353
0.004643
0.005040
0.005545
0.006159
0.006886
0.007728
0.008687
0.009767
0.010972
0.012304
0.013768
0.015368
0.017107
0.018990
0.021021
0.023203
0.025540
0.028035
0.030689
0.033503
0.036478
0.039611
0.042899
0.046335
0.049911
0.053614
0.057428
0.061333
0.065303
0.069311
0.073323
0.077301
0.081202
0.084983
0.088597
0.091999
0.095142
0.097986
0.100494
0.102634
0.104385
0.105733
0.106677
0.107229
0.107423
0.107312
0.003787
0.003738
0.003809
0.003990
0.004277
0.004669
0.005167
0.005774
0.006493
0.007324
0.008273
0.009341
0.010532
0.011851
0.013301
0.014887
0.016612
0.018482
0.020500
0.022671
0.024998
0.027485
0.030134
0.032949
0.035928
0.039072
0.042377
0.045838
0.049447
0.053193
0.057060
0.061029
0.065073
0.069164
0.073266
0.077340
0.081340
0.085221
0.088931
0.092422
0.095644
0.098553
0.101110
0.103284
0.105052
0.106402
0.107336
0.107870
0.108041
0.107910
0.003288
0.003237
0.003304
0.003481
0.003762
0.004147
0.004637
0.005235
0.005942
0.006761
0.007695
0.008748
0.009924
0.011226
0.012658
0.014226
0.015934
0.017787
0.019789
0.021946
0.024262
0.026741
0.029387
0.032202
0.035190
0.038349
0.041679
0.045175
0.048830
0.052635
0.056575
0.060629
0.064773
0.068975
0.073199
0.077402
0.081536
0.085550
0.089390
0.092999
0.096326
0.099321
0.101943
0.104158
0.105945
0.107296
0.108214
0.108723
0.108866
0.108715
0.002643
0.002589
0.002654
0.002825
0.003099
0.003476
0.003955
0.004541
0.005233
0.006037
0.006954
0.007988
0.009144
0.010426
0.011837
0.013384
0.015070
0.016903
0.018886
0.021026
0.023328
0.025797
0.028439
0.031257
0.034254
0.037433
0.040794
0.044333
0.048047
0.051925
0.055955
0.060117
0.064387
0.068730
0.073108
0.077475
0.081780
0.085964
0.089969
0.093730
0.097190
0.100294
0.102995
0.105260
0.107066
0.108411
0.109304
0.109778
0.109887
0.109711
0.001853
0.001798
0.001858
0.002023
0.002289
0.002655
0.003122
0.003693
0.004369
0.005153
0.006050
0.007062
0.008194
0.009451
0.010837
0.012357
0.014018
0.015826
0.017786
0.019905
0.022190
0.024647
0.027282
0.030101
0.033108
0.036309
0.039704
0.043294
0.047075
0.051040
0.055177
0.059468
0.063888
0.068402
0.072969
0.077539
0.082054
0.086451
0.090661
0.094613
0.098239
0.101475
0.104272
0.106592
0.108416
0.109744
0.110599
0.111024
0.111086
0.110880
0.000920
0.000864
0.000920
0.001078
0.001334
0.001688
0.002140
0.002693
0.003349
0.004111
0.004983
0.005969
0.007073
0.008300
0.009656
0.011146
0.012776
0.014553
0.016484
0.018577
0.020839
0.023279
0.025903
0.028720
0.031736
0.034957
0.038389
0.042032
0.045887
0.049949
0.054208
0.058647
0.063243
0.067959
0.072751
0.077565
0.082337
0.086994
0.091457
0.095643
0.099471
0.102870
0.105779
0.108159
0.109993
0.111291
0.112086
0.112441
0.112440
0.112195
-0.000152
-0.000210
-0.000159
-0.000009
0.000236
0.000576
0.001011
0.001543
0.002176
0.002913
0.003756
0.004711
0.005782
0.006975
0.008294
0.009746
0.011339
0.013079
0.014975
0.017034
0.019267
0.021682
0.024289
0.027098
0.030117
0.033356
0.036821
0.040519
0.044451
0.048616
0.053008
0.057612
0.062409
0.067358
0.072414
0.077517
0.082596
0.087567
0.092338
0.096810
0.100887
0.104482
0.107524
0.109968
0.111800
0.113042
0.113748
0.114003
0.113917
0.113622
-0.001360
-0.001420
-0.001374
-0.001233
-0.001001
-0.000678
-0.000263
0.000247
0.000853
0.001560
0.002370
0.003290
0.004322
0.005474
0.006750
0.008159
0.009706
0.011401
0.013253
0.015270
0.017464
0.019845
0.022425
0.025216
0.028229
0.031477
0.034970
0.038718
0.042725
0.046997
0.051529
0.056311
0.061329
0.066542
0.071900
0.077341
0.082784
0.088133
0.093278
0.098101
0.102483
0.106316
0.109513
0.112022
0.113833
0.114984
0.115558
0.115671
0.115470
0.115109
-0.002701
-0.002763
-0.002723
-0.002592
-0.002375
-0.002070
-0.001677
-0.001194
-0.000618
0.000055
0.000828
0.001706
0.002694
0.003798
0.005024
0.006381
0.007874
0.009515
0.011312
0.013276
0.015419
0.017754
0.020295
0.023055
0.026049
0.029294
0.032802
0.036589
0.040665
0.045038
0.049711
0.054680
0.059933
0.065437
0.071137
0.076968
0.082838
0.088638
0.094236
0.099488
0.104246
0.108372
0.111755
0.114329
0.116090
0.117099
0.117477
0.117393
0.117033
0.116588
-0.004170
-0.004234
-0.004201
-0.004082
-0.003880
-0.003596
-0.003229
-0.002775
-0.002233
-0.001599
-0.000869
-0.000038
0.000899
0.001949
0.003117
0.004412
0.005842
0.007417
0.009147
0.011045
0.013124
0.015397
0.017881
0.020593
0.023551
0.026773
0.030279
0.034087
0.038215
0.042678
0.047485
0.052639
0.058131
0.063949
0.070028
0.076300
0.082667
0.089002
0.095148
0.100928
0.106154
0.110644
0.114252
0.116892
0.118562
0.119355
0.119452
0.119087
0.118512
0.117959
-0.005762
-0.005829
-0.005804
-0.005697
-0.005513
-0.005252
-0.004913
-0.004492
-0.003989
-0.003398
-0.002716
-0.001938
-0.001059
-0.000072
0.001029
0.002253
0.003608
0.005105
0.006755
0.008571
0.010567
0.012761
0.015168
0.017810
0.020707
0.023882
0.027359
0.031163
0.035318
0.039846
0.044766
0.050091
0.055821
0.061959
0.068445
0.075208
0.082143
0.089106
0.095913
0.102344
0.108156
0.113109
0.117001
0.119710
0.121233
0.121708
0.121399
0.120643
0.119774
0.119081
-0.007472
-0.007542
-0.007525
-0.007433
-0.007269
-0.007033
-0.006724
-0.006341
-0.005879
-0.005336
-0.004708
-0.003990
-0.003177
-0.002261
-0.001237
-0.000095
0.001172
0.002577
0.004131
0.005848
0.007743
0.009834
0.012141
0.014685
0.017491
0.020587
0.024000
0.027763
0.031906
0.036462
0.041460
0.046925
0.052872
0.059312
0.066220
0.073512
0.081084
0.088776
0.096374
0.103606
0.110159
0.115710
0.119971
0.122762
0.124067
0.124084
0.123197
0.121893
0.120626
0.119757
-0.009295
-0.009368
-0.009360
-0.009283
-0.009140
-0.008932
-0.008657
-0.008314
-0.007899
-0.007410
-0.006841
-0.006190
-0.005449
-0.004614
-0.003677
-0.002629
-0.001462
-0.000165
0.001276
0.002873
0.004645
0.006608
0.008784
0.011199
0.013878
0.016853
0.020158
0.023830
0.027910
0.032438
0.037458
0.043009
0.049122
0.055818
0.063134
0.070972
0.079233
0.087751
0.096281
0.104493
0.111986
0.118320
0.123081
0.125986
0.126989
0.126357
0.124654
0.122588
0.120791
0.119710
-0.011224
-0.011300
-0.011302
-0.011241
-0.011122
-0.010944
-0.010706
-0.010406
-0.010042
-0.009611
-0.009108
-0.008530
-0.007871
-0.007125
-0.006285
-0.005344
-0.004292
-0.003118
-0.001810
-0.000353
0.001269
0.003076
0.005090
0.007336
0.009845
0.012651
0.015792
0.019311
0.023256
0.027681
0.032641
0.038191
0.044387
0.051271
0.058907
0.067264
0.076232
0.085648
0.095246
0.104637
0.113312
0.120675
0.126128
0.129219
0.129824
0.128298
0.125458
0.122348
0.119862
0.118560
-0.013253
-0.013331
-0.013344
-0.013301
-0.013206
-0.013060
-0.012862
-0.012609
-0.012301
-0.011932
-0.011501
-0.011003
-0.010434
-0.009786
-0.009055
-0.008233
-0.007310
-0.006277
-0.005121
-0.003828
-0.002382
-0.000763
0.001051
0.003087
0.005376
0.007954
0.010863
0.014151
0.017874
0.022094
0.026881
0.032308
0.038453
0.045390
0.053184
0.061962
0.071582
0.081905
0.092665
0.103421
0.113547
0.122248
0.128666
0.132078
0.132204
0.129481
0.125095
0.120578
0.117322
0.115739
-0.015372
-0.015454
-0.015478
-0.015454
-0.015385
-0.015274
-0.015118
-0.014916
-0.014666
-0.014366
-0.014012
-0.013601
-0.013128
-0.012589
-0.011977
-0.011286
-0.010508
-0.009633
-0.008649
-0.007545
-0.006303
-0.004906
-0.003332
-0.001553
0.000459
0.002743
0.005342
0.008307
0.011698
0.015586
0.020050
0.025183
0.031085
0.037861
0.045617
0.054516
0.064608
0.075720
0.087615
0.099833
0.111639
0.122017
0.129765
0.133758
0.133407
0.129178
0.122778
0.116506
0.112353
0.110541
-0.017576
-0.017661
-0.017696
-0.017692
-0.017651
-0.017575
-0.017464
-0.017316
-0.017129
-0.016901
-0.016629
-0.016311
-0.015943
-0.015521
-0.015039
-0.014492
-0.013872
-0.013173
-0.012383
-0.011491
-0.010483
-0.009343
-0.008050
-0.006580
-0.004905
-0.002988
-0.000788
0.001746
0.004676
0.008075
0.012030
0.016644
0.022036
0.028341
0.035705
0.044276
0.054421
0.065958
0.078710
0.092240
0.105757
0.118056
0.127568
0.132639
0.132142
0.126344
0.117526
0.109248
0.104017
0.102203
-0.019854
-0.019943
-0.019990
-0.020006
-0.019995
-0.019957
-0.019892
-0.019800
-0.019679
-0.019527
-0.019342
-0.019123
-0.018866
-0.018569
-0.018226
-0.017835
-0.017388
-0.016881
-0.016304
-0.015649
-0.014904
-0.014056
-0.013087
-0.011978
-0.010703
-0.009233
-0.007528
-0.005544
-0.003224
-0.000497
0.002721
0.006535
0.011071
0.016479
0.022936
0.030643
0.039853
0.051074
0.063926
0.078076
0.092799
0.106869
0.118498
0.125515
0.126029
0.119604
0.108609
0.098258
0.091724
0.090263
-0.022199
-0.022291
-0.022351
-0.022388
-0.022406
-0.022407
-0.022391
-0.022357
-0.022304
-0.022232
-0.022138
-0.022023
-0.021883
-0.021718
-0.021523
-0.021298
-0.021037
-0.020737
-0.020392
-0.019996
-0.019542
-0.019019
-0.018417
-0.017720
-0.016910
-0.015966
-0.014858
-0.013552
-0.012002
-0.010154
-0.007936
-0.005259
-0.002013
0.001943
0.006782
0.012709
0.019952
0.029051
0.040432
0.053519
0.067871
0.082654
0.096311
0.106484
0.110475
0.106484
0.095619
0.083569
0.076736
0.074969
-0.024601
-0.024697
-0.024769
-0.024827
-0.024876
-0.024916
-0.024950
-0.024975
-0.024993
-0.025002
-0.025003
-0.024995
-0.024978
-0.024950
-0.024911
-0.024860
-0.024795
-0.024715
-0.024619
-0.024502
-0.024363
-0.024198
-0.024000
-0.023764
-0.023481
-0.023141
-0.022730
-0.022231
-0.021621
-0.020870
-0.019942
-0.018787
-0.017341
-0.015521
-0.013219
-0.010300
-0.006608
-0.001972
0.004581
0.013512
0.024361
0.037469
0.052308
0.066917
0.078007
0.081968
0.077111
0.066954
0.060613
0.056107
-0.027050
-0.027150
-0.027234
-0.027314
-0.027393
-0.027474
-0.027557
-0.027643
-0.027732
-0.027825
-0.027922
-0.028024
-0.028132
-0.028246
-0.028367
-0.028498
-0.028638
-0.028789
-0.028954
-0.029133
-0.029330
-0.029547
-0.029788
-0.030055
-0.030354
-0.030690
-0.031069
-0.031500
-0.031992
-0.032559
-0.033219
-0.033995
-0.034918
-0.036030
-0.037391
-0.039082
-0.041194
-0.043746
-0.046457
-0.047040
-0.044164
-0.036086
-0.021496
-0.001482
0.020387
0.038733
0.048159
0.046901
0.040991
0.032302
-0.029538
-0.029641
-0.029737
-0.029838
-0.029948
-0.030068
-0.030201
-0.030348
-0.030508
-0.030685
-0.030879
-0.031092
-0.031326
-0.031585
-0.031870
-0.032186
-0.032536
-0.032925
-0.033360
-0.033848
-0.034396
-0.035016
-0.035720
-0.036525
-0.037449
-0.038519
-0.039767
-0.041233
-0.042973
-0.045059
-0.047589
-0.050699
-0.054575
-0.059482
-0.065800
-0.074045
-0.084805
-0.098407
-0.114218
-0.129979
-0.139952
-0.140054
-0.127122
-0.101453
-0.066655
-0.029249
0.001907
0.017760
0.015414
0.008244
-0.032054
-0.032160
-0.032269
-0.032390
-0.032529
-0.032689
-0.032870
-0.033076
-0.033307
-0.033567
-0.033857
-0.034180
-0.034542
-0.034944
-0.035394
-0.035896
-0.036459
-0.037089
-0.037799
-0.038600
-0.039509
-0.040543
-0.041726
-0.043089
-0.044669
-0.046513
-0.048684
-0.051265
-0.054363
-0.058127
-0.062762
-0.068553
-0.075914
-0.085451
-0.098045
-0.114901
-0.137309
-0.165827
-0.198899
-0.231921
-0.257924
-0.267908
-0.257466
-0.226781
-0.179442
-0.122006
-0.064781
-0.022195
-0.006128
-0.003221
-0.034590
-0.034699
-0.034819
-0.034960
-0.035127
-0.035323
-0.035552
-0.035815
-0.036115
-0.036455
-0.036838
-0.037271
-0.037756
-0.038301
-0.038913
-0.039600
-0.040373
-0.041244
-0.042228
-0.043343
-0.044611
-0.046062
-0.047729
-0.049657
-0.051902
-0.054537
-0.057658
-0.061391
-0.065907
-0.071443
-0.078327
-0.087035
-0.098267
-0.113073
-0.133000
-0.160103
-0.196398
-0.242351
-0.294822
-0.346269
-0.386847
-0.406050
-0.397913
-0.363344
-0.306127
-0.231816
-0.149143
-0.073387
-0.024362
-0.006740
-0.037136
-0.037249
-0.037379
-0.037537
-0.037730
-0.037962
-0.038234
-0.038551
-0.038916
-0.039333
-0.039806
-0.040343
-0.040949
-0.041631
-0.042401
-0.043268
-0.044245
-0.045350
-0.046601
-0.048023
-0.049645
-0.051503
-0.053645
-0.056128
-0.059028
-0.062443
-0.066502
-0.071379
-0.077309
-0.084619
-0.093775
-0.105456
-0.120682
-0.140996
-0.168663
-0.206585
-0.257331
-0.320882
-0.392074
-0.460259
-0.512697
-0.538481
-0.531521
-0.494045
-0.430653
-0.345818
-0.244754
-0.139889
-0.057472
-0.024931
-0.039684
-0.039800
-0.039940
-0.040114
-0.040330
-0.040593
-0.040905
-0.041272
-0.041697
-0.042185
-0.042743
-0.043378
-0.044097
-0.044911
-0.045830
-0.046868
-0.048041
-0.049369
-0.050876
-0.052591
-0.054549
-0.056796
-0.059390
-0.062401
-0.065923
-0.070078
-0.075027
-0.080985
-0.088249
-0.097233
-0.108531
-0.123015
-0.142002
-0.167492
-0.202375
-0.250227
-0.313919
-0.392747
-0.479582
-0.561041
-0.621996
-0.651580
-0.644455
-0.604551
-0.538244
-0.450063
-0.341683
-0.220374
-0.114713
-0.069808
-0.042226
-0.042346
-0.042493
-0.042681
-0.042917
-0.043206
-0.043554
-0.043964
-0.044443
-0.044997
-0.045632
-0.046356
-0.047181
-0.048115
-0.049173
-0.050371
-0.051726
-0.053263
-0.055008
-0.056995
-0.059266
-0.061873
-0.064882
-0.068378
-0.072468
-0.077294
-0.083044
-0.089969
-0.098415
-0.108867
-0.122019
-0.138894
-0.161032
-0.190750
-0.231349
-0.286789
-0.360032
-0.449815
-0.547654
-0.638295
-0.704866
-0.736417
-0.728310
-0.686146
-0.618927
-0.532925
-0.427739
-0.304542
-0.189107
-0.136550
-0.044757
-0.044880
-0.045034
-0.045231
-0.045482
-0.045793
-0.046169
-0.046617
-0.047142
-0.047752
-0.048455
-0.049260
-0.050178
-0.051222
-0.052406
-0.053749
-0.055270
-0.056995
-0.058956
-0.061189
-0.063741
-0.066670
-0.070049
-0.073970
-0.078555
-0.083959
-0.090387
-0.098118
-0.107531
-0.119153
-0.133739
-0.152391
-0.176751
-0.209257
-0.253315
-0.312926
-0.390984
-0.486039
-0.589274
-0.684833
-0.754776
-0.787527
-0.778530
-0.734655
-0.667742
-0.587003
-0.492059
-0.378648
-0.265942
-0.211251
-0.047272
-0.047398
-0.047556
-0.047759
-0.048019
-0.048344
-0.048741
-0.049217
-0.049780
-0.050436
-0.051196
-0.052070
-0.053070
-0.054209
-0.055504
-0.056974
-0.058641
-0.060533
-0.062683
-0.065131
-0.067926
-0.071131
-0.074824
-0.079102
-0.084093
-0.089962
-0.096923
-0.105267
-0.115384
-0.127817
-0.143330
-0.163023
-0.188505
-0.222115
-0.267043
-0.326944
-0.404468
-0.498340
-0.600551
-0.696269
-0.767315
-0.800669
-0.791854
-0.748019
-0.683083
-0.609156
-0.527788
-0.431203
-0.330502
-0.278700
-0.049766
-0.049895
-0.050055
-0.050259
-0.050521
-0.050853
-0.051262
-0.051757
-0.052345
-0.053037
-0.053842
-0.054771
-0.055838
-0.057057
-0.058446
-0.060024
-0.061815
-0.063848
-0.066158
-0.068785
-0.071782
-0.075213
-0.079157
-0.083715
-0.089016
-0.095225
-0.102559
-0.111305
-0.121846
-0.134707
-0.150615
-0.170597
-0.196100
-0.229198
-0.272585
-0.329139
-0.400996
-0.487385
-0.581868
-0.671410
-0.739515
-0.773060
-0.766646
-0.726086
-0.665885
-0.599751
-0.532823
-0.455913
-0.372689
-0.327554
-0.052239
-0.052373
-0.052530
-0.052729
-0.052986
-0.053314
-0.053724
-0.054225
-0.054827
-0.055541
-0.056376
-0.057346
-0.058465
-0.059747
-0.061210
-0.062876
-0.064768
-0.066915
-0.069353
-0.072124
-0.075279
-0.078882
-0.083013
-0.087770
-0.093280
-0.099704
-0.107249
-0.116187
-0.126876
-0.139798
-0.155601
-0.175206
-0.199772
-0.230879
-0.270667
-0.321494
-0.385003
-0.460441
-0.542428
-0.620082
-0.679177
-0.707562
-0.702534
-0.668182
-0.616849
-0.562078
-0.509404
-0.452101
-0.388538
-0.352371
-0.054694
-0.054831
-0.054983
-0.055168
-0.055409
-0.055722
-0.056120
-0.056614
-0.057216
-0.057936
-0.058788
-0.059783
-0.060936
-0.062263
-0.063781
-0.065513
-0.067481
-0.069715
-0.072250
-0.075126
-0.078395
-0.082117
-0.086371
-0.091249
-0.096872
-0.103389
-0.110993
-0.119929
-0.130515
-0.143181
-0.158421
-0.176940
-0.199726
-0.227974
-0.263205
-0.307050
-0.360582
-0.422984
-0.489859
-0.552495
-0.599445
-0.620791
-0.615727
-0.587410
-0.545517
-0.501497
-0.463040
-0.423684
-0.379548
-0.353261
-0.057135
-0.057277
-0.057417
-0.057580
-0.057792
-0.058075
-0.058446
-0.058917
-0.059502
-0.060214
-0.061064
-0.062067
-0.063237
-0.064591
-0.066145
-0.067920
-0.069941
-0.072234
-0.074834
-0.077780
-0.081120
-0.084912
-0.089227
-0.094154
-0.099801
-0.106303
-0.113829
-0.122599
-0.132850
-0.144913
-0.159236
-0.176347
-0.196937
-0.221843
-0.252049
-0.288535
-0.331804
-0.380947
-0.432447
-0.479662
-0.514004
-0.528126
-0.522094
-0.498565
-0.464973
-0.430537
-0.402619
-0.377806
-0.351120
-0.334370
-0.059573
-0.059720
-0.059842
-0.059970
-0.060137
-0.060373
-0.060698
-0.061129
-0.061679
-0.062363
-0.063195
-0.064189
-0.065358
-0.066719
-0.068289
-0.070088
-0.072137
-0.074464
-0.077100
-0.080081
-0.083453
-0.087268
-0.091592
-0.096503
-0.102097
-0.108492
-0.115828
-0.124249
-0.133992
-0.145312
-0.158525
-0.174010
-0.192219
-0.213670
-0.238909
-0.268393
-0.302168
-0.339260
-0.376916
-0.410294
-0.433341
-0.441011
-0.433576
-0.413338
-0.385999
-0.358778
-0.337846
-0.324148
-0.310810
-0.302010
-0.062024
-0.062177
-0.062272
-0.062347
-0.062450
-0.062618
-0.062875
-0.063243
-0.063739
-0.064377
-0.065172
-0.066138
-0.067289
-0.068640
-0.070207
-0.072008
-0.074065
-0.076401
-0.079046
-0.082033
-0.085402
-0.089200
-0.093486
-0.098328
-0.103808
-0.110012
-0.117043
-0.125051
-0.134196
-0.144667
-0.156680
-0.170478
-0.186325
-0.204484
-0.225180
-0.248493
-0.274160
-0.301203
-0.327497
-0.349631
-0.363546
-0.365984
-0.357139
-0.339015
-0.316026
-0.293826
-0.277632
-0.270023
-0.265813
-0.262758
-0.064512
-0.064672
-0.064727
-0.064729
-0.064741
-0.064812
-0.064976
-0.065258
-0.065676
-0.066247
-0.066986
-0.067906
-0.069021
-0.070345
-0.071891
-0.073677
-0.075722
-0.078047
-0.080677
-0.083643
-0.086980
-0.090730
-0.094941
-0.099673
-0.104982
-0.110931
-0.117626
-0.125166
-0.133668
-0.143257
-0.154069
-0.166238
-0.179885
-0.195094
-0.211867
-0.230052
-0.249213
-0.268425
-0.286058
-0.299753
-0.306875
-0.305459
-0.295516
-0.278814
-0.258806
-0.239955
-0.226667
-0.221763
-0.222169
-0.222260
-0.067076
-0.067242
-0.067238
-0.067135
-0.067021
-0.066962
-0.067001
-0.067167
-0.067482
-0.067965
-0.068628
-0.069486
-0.070549
-0.071829
-0.073340
-0.075095
-0.077110
-0.079405
-0.082002
-0.084927
-0.088209
-0.091884
-0.095994
-0.100583
-0.105679
-0.111360
-0.117692
-0.124748
-0.132602
-0.141333
-0.151011
-0.161689
-0.173388
-0.186073
-0.199613
-0.213729
-0.227918
-0.241348
-0.252769
-0.260553
-0.263014
-0.259025
-0.248489
-0.232943
-0.215122
-0.198591
-0.187010
-0.182773
-0.183786
-0.184351
-0.069768
-0.069940
-0.069847
-0.069597
-0.069310
-0.069076
-0.068950
-0.068967
-0.069153
-0.069523
-0.070093
-0.070871
-0.071867
-0.073091
-0.074552
-0.076263
-0.078235
-0.080487
-0.083035
-0.085901
-0.089112
-0.092695
-0.096686
-0.101103
-0.105985
-0.111387
-0.117355
-0.123936
-0.131175
-0.139110
-0.147765
-0.157136
-0.167180
-0.177788
-0.188761
-0.199768
-0.210306
-0.219652
-0.226845
-0.230744
-0.230269
-0.224794
-0.214202
-0.199804
-0.183803
-0.169092
-0.158643
-0.153906
-0.152177
-0.150522
-0.072671
-0.072843
-0.072617
-0.072154
-0.071628
-0.071161
-0.070821
-0.070652
-0.070678
-0.070914
-0.071371
-0.072055
-0.072972
-0.074128
-0.075530
-0.077185
-0.079105
-0.081302
-0.083790
-0.086587
-0.089715
-0.093196
-0.097057
-0.101297
-0.105965
-0.111094
-0.116714
-0.122853
-0.129532
-0.136761
-0.144530
-0.152799
-0.161486
-0.170444
-0.179445
-0.188153
-0.196100
-0.202673
-0.207123
-0.208635
-0.206499
-0.200379
-0.190182
-0.177018
-0.162686
-0.149573
-0.140019
-0.134116
-0.126454
-0.119371
-0.075907
-0.076069
-0.075633
-0.074858
-0.074001
-0.073222
-0.072611
-0.072212
-0.072046
-0.072126
-0.072454
-0.073033
-0.073861
-0.074942
-0.076276
-0.077870
-0.079730
-0.081864
-0.084286
-0.087008
-0.090047
-0.093421
-0.097148
-0.101220
-0.105683
-0.110557
-0.115860
-0.121604
-0.127794
-0.134420
-0.141451
-0.148824
-0.156437
-0.164128
-0.171664
-0.178727
-0.184897
-0.189660
-0.192424
-0.192587
-0.189662
-0.183466
-0.173998
-0.162125
-0.149347
-0.137630
-0.128690
-0.120901
-0.103008
-0.085421
-0.079677
-0.079798
-0.079018
-0.077775
-0.076450
-0.075260
-0.074306
-0.073630
-0.073243
-0.073147
-0.073335
-0.073799
-0.074534
-0.075534
-0.076797
-0.078325
-0.080120
-0.082190
-0.084541
-0.087186
-0.090135
-0.093404
-0.096999
-0.100916
-0.105192
-0.109839
-0.114864
-0.120272
-0.126053
-0.132185
-0.138625
-0.145299
-0.152095
-0.158850
-0.165340
-0.171270
-0.176274
-0.179916
-0.181719
-0.181221
-0.178065
-0.172131
-0.163605
-0.152975
-0.141553
-0.130858
-0.121698
-0.109992
-0.074152
-0.036087
-0.084320
-0.084323
-0.082949
-0.080978
-0.078990
-0.077260
-0.075883
-0.074881
-0.074247
-0.073961
-0.074002
-0.074350
-0.074990
-0.075909
-0.077100
-0.078560
-0.080290
-0.082293
-0.084576
-0.087143
-0.090006
-0.093175
-0.096648
-0.100427
-0.104540
-0.108993
-0.113788
-0.118920
-0.124376
-0.130124
-0.136115
-0.142270
-0.148476
-0.154575
-0.160356
-0.165552
-0.169840
-0.172847
-0.174178
-0.173461
-0.170416
-0.164949
-0.157266
-0.147792
-0.137402
-0.127066
-0.115488
-0.092654
-0.024677
0.055439
-0.090460
-0.090141
-0.087665
-0.084531
-0.081602
-0.079178
-0.077296
-0.075928
-0.075028
-0.074547
-0.074442
-0.074677
-0.075226
-0.076068
-0.077188
-0.078581
-0.080248
-0.082188
-0.084405
-0.086902
-0.089681
-0.092761
-0.096124
-0.099789
-0.103767
-0.108064
-0.112677
-0.117599
-0.122811
-0.128279
-0.133952
-0.139749
-0.145560
-0.151234
-0.156575
-0.161339
-0.165237
-0.167943
-0.169118
-0.168446
-0.165687
-0.160740
-0.153716
-0.144974
-0.135085
-0.124007
-0.105081
-0.051390
0.079421
0.246025
-0.099396
-0.098140
-0.093465
-0.088430
-0.084190
-0.080922
-0.078467
-0.076705
-0.075536
-0.074866
-0.074623
-0.074755
-0.075223
-0.075994
-0.077046
-0.078376
-0.079983
-0.081865
-0.084026
-0.086465
-0.089168
-0.092163
-0.095444
-0.099019
-0.102895
-0.107075
-0.111558
-0.116332
-0.121378
-0.126662
-0.132130
-0.137704
-0.143278
-0.148707
-0.153807
-0.158352
-0.162076
-0.164686
-0.165876
-0.165363
-0.162917
-0.158408
-0.151818
-0.143185
-0.132443
-0.117903
-0.079899
0.039655
0.321215
0.657091
-0.114462
-0.110136
-0.100582
-0.092455
-0.086475
-0.082282
-0.079196
-0.077014
-0.075581
-0.074738
-0.074372
-0.074412
-0.074819
-0.075531
-0.076517
-0.077804
-0.079368
-0.081204
-0.083315
-0.085699
-0.088356
-0.091296
-0.094522
-0.098038
-0.101850
-0.105959
-0.110363
-0.115051
-0.120001
-0.125181
-0.130535
-0.135989
-0.141436
-0.146738
-0.151718
-0.156161
-0.159815
-0.162406
-0.163646
-0.163264
-0.161019
-0.156708
-0.150096
-0.140572
-0.126831
-0.098684
-0.009288
0.253358
0.831631
1.534820
-0.144475
-0.128301
-0.108840
-0.095264
-0.086820
-0.081737
-0.077906
-0.075499
-0.073936
-0.073006
-0.072593
-0.072612
-0.073003
-0.073718
-0.074726
-0.076029
-0.077611
-0.079465
-0.081590
-0.083986
-0.086656
-0.089604
-0.092836
-0.096356
-0.100167
-0.104272
-0.108666
-0.113337
-0.118266
-0.123415
-0.128731
-0.134139
-0.139532
-0.144774
-0.149691
-0.154074
-0.157680
-0.160242
-0.161480
-0.161118
-0.158859
-0.154327
-0.146688
-0.133843
-0.110150
-0.037208
0.172310
0.708274
1.799014
3.199581
-0.248132
-0.110773
-0.080786
-0.071324
-0.067308
-0.065369
-0.064206
-0.063689
-0.063572
-0.063778
-0.064279
-0.065048
-0.066066
-0.067315
-0.068786
-0.070487
-0.072419
-0.074582
-0.076981
-0.079623
-0.082513
-0.085660
-0.089071
-0.092753
-0.096711
-0.100948
-0.105459
-0.110235
-0.115253
-0.120479
-0.125857
-0.131311
-0.136735
-0.141993
-0.146914
-0.151290
-0.154883
-0.157431
-0.158651
-0.158238
-0.155764
-0.150438
-0.139841
-0.116905
-0.055310
0.103830
0.498482
1.386327
3.056679
5.276473
