# vtk DataFile Version 3.0
Scalar Field
ASCII
DATASET RECTILINEAR_GRID
DIMENSIONS 50 50 1
X_COORDINATES 50 double
0.100000 0.300000 0.500000 0.700000 0.900000 1.100000 1.300000 1.500000 1.700000 1.900000 2.100000 2.300000 2.500000 2.700000 2.900000 3.100000 3.300000 3.500000 3.700000 3.900000 4.100000 4.300000 4.500000 4.700000 4.900000 5.100000 5.300000 5.500000 5.700000 5.900000 6.100000 6.300000 6.500000 6.700000 6.900000 7.100000 7.300000 7.500000 7.700000 7.900000 8.100000 8.300000 8.500000 8.700000 8.900000 9.100000 9.300000 9.500000 9.700000 9.900000 
Y_COORDINATES 50 double
0.100000 0.300000 0.500000 0.700000 0.900000 1.100000 1.300000 1.500000 1.700000 1.900000 2.100000 2.300000 2.500000 2.700000 2.900000 3.100000 3.300000 3.500000 3.700000 3.900000 4.100000 4.300000 4.500000 4.700000 4.900000 5.100000 5.300000 5.500000 5.700000 5.900000 6.100000 6.300000 6.500000 6.700000 6.900000 7.100000 7.300000 7.500000 7.700000 7.900000 8.100000 8.300000 8.500000 8.700000 8.900000 9.100000 9.300000 9.500000 9.700000 9.900000 
Z_COORDINATES 1 double
0.0
POINT_DATA 2500
SCALARS Skalarfeld double 1
LOOKUP_TABLE default
-0.018441
-0.018462
-0.018436
-0.018354
-0.018217
-0.018023
-0.017774
-0.017469
-0.017108
-0.016691
-0.016217
-0.015688
-0.015103
-0.014462
-0.013765
-0.013013
-0.012207
-0.011347
-0.010435
-0.009472
-0.008460
-0.007400
-0.006296
-0.005150
-0.003966
-0.002747
-0.001498
-0.000223
0.001072
0.002381
0.003698
0.005017
0.006329
0.007627
0.008904
0.010149
0.011355
0.012513
0.013614
0.014649
0.015609
0.016486
0.017272
0.017960
0.018543
0.019015
0.019372
0.019610
0.019727
0.019735
-0.018421
-0.018442
-0.018412
-0.018329
-0.018191
-0.017998
-0.017750
-0.017447
-0.017087
-0.016672
-0.016201
-0.015673
-0.015090
-0.014451
-0.013757
-0.013008
-0.012204
-0.011347
-0.010437
-0.009477
-0.008467
-0.007410
-0.006308
-0.005164
-0.003982
-0.002764
-0.001517
-0.000243
0.001051
0.002360
0.003677
0.004995
0.006308
0.007607
0.008884
0.010131
0.011338
0.012498
0.013600
0.014637
0.015599
0.016478
0.017266
0.017955
0.018540
0.019014
0.019373
0.019613
0.019734
0.019742
-0.018449
-0.018475
-0.018445
-0.018362
-0.018225
-0.018033
-0.017786
-0.017484
-0.017126
-0.016713
-0.016243
-0.015718
-0.015137
-0.014500
-0.013807
-0.013059
-0.012257
-0.011401
-0.010493
-0.009533
-0.008523
-0.007466
-0.006363
-0.005218
-0.004033
-0.002814
-0.001562
-0.000285
0.001014
0.002329
0.003652
0.004978
0.006298
0.007606
0.008892
0.010148
0.011366
0.012535
0.013648
0.014694
0.015666
0.016554
0.017351
0.018048
0.018640
0.019120
0.019484
0.019727
0.019850
0.019854
-0.018538
-0.018566
-0.018538
-0.018456
-0.018320
-0.018129
-0.017883
-0.017583
-0.017226
-0.016814
-0.016347
-0.015823
-0.015243
-0.014607
-0.013916
-0.013169
-0.012367
-0.011511
-0.010602
-0.009640
-0.008629
-0.007568
-0.006462
-0.005312
-0.004122
-0.002895
-0.001636
-0.000349
0.000961
0.002287
0.003624
0.004964
0.006300
0.007623
0.008927
0.010201
0.011437
0.012625
0.013756
0.014821
0.015810
0.016715
0.017527
0.018239
0.018843
0.019333
0.019704
0.019954
0.020079
0.020081
-0.018689
-0.018718
-0.018691
-0.018610
-0.018475
-0.018286
-0.018042
-0.017742
-0.017388
-0.016977
-0.016511
-0.015989
-0.015410
-0.014775
-0.014084
-0.013337
-0.012534
-0.011677
-0.010765
-0.009800
-0.008784
-0.007719
-0.006606
-0.005448
-0.004248
-0.003010
-0.001737
-0.000436
0.000890
0.002234
0.003591
0.004952
0.006311
0.007659
0.008988
0.010288
0.011551
0.012766
0.013925
0.015016
0.016031
0.016960
0.017795
0.018527
0.019149
0.019654
0.020037
0.020294
0.020423
0.020425
-0.018900
-0.018931
-0.018905
-0.018826
-0.018692
-0.018504
-0.018262
-0.017964
-0.017611
-0.017202
-0.016737
-0.016216
-0.015638
-0.015003
-0.014312
-0.013563
-0.012759
-0.011899
-0.010983
-0.010014
-0.008991
-0.007918
-0.006795
-0.005626
-0.004413
-0.003159
-0.001869
-0.000548
0.000800
0.002169
0.003552
0.004942
0.006331
0.007711
0.009074
0.010409
0.011708
0.012960
0.014154
0.015281
0.016330
0.017292
0.018157
0.018916
0.019561
0.020086
0.020484
0.020752
0.020886
0.020889
-0.019172
-0.019204
-0.019180
-0.019102
-0.018970
-0.018784
-0.018543
-0.018247
-0.017896
-0.017488
-0.017024
-0.016504
-0.015927
-0.015292
-0.014600
-0.013850
-0.013043
-0.012179
-0.011258
-0.010282
-0.009252
-0.008168
-0.007033
-0.005849
-0.004619
-0.003346
-0.002034
-0.000687
0.000689
0.002088
0.003504
0.004930
0.006357
0.007779
0.009184
0.010563
0.011907
0.013204
0.014444
0.015616
0.016709
0.017711
0.018614
0.019408
0.020083
0.020633
0.021050
0.021331
0.021473
0.021477
-0.019505
-0.019538
-0.019516
-0.019440
-0.019310
-0.019125
-0.018886
-0.018592
-0.018243
-0.017837
-0.017374
-0.016855
-0.016278
-0.015643
-0.014950
-0.014198
-0.013388
-0.012519
-0.011592
-0.010608
-0.009567
-0.008471
-0.007321
-0.006119
-0.004869
-0.003572
-0.002234
-0.000857
0.000552
0.001988
0.003444
0.004914
0.006388
0.007858
0.009315
0.010748
0.012147
0.013500
0.014796
0.016022
0.017168
0.018221
0.019171
0.020006
0.020719
0.021299
0.021741
0.022038
0.022189
0.022195
-0.019899
-0.019934
-0.019913
-0.019839
-0.019711
-0.019528
-0.019292
-0.019000
-0.018652
-0.018248
-0.017788
-0.017269
-0.016693
-0.016057
-0.015363
-0.014608
-0.013794
-0.012920
-0.011986
-0.010993
-0.009940
-0.008829
-0.007662
-0.006441
-0.005167
-0.003843
-0.002473
-0.001062
0.000387
0.001866
0.003369
0.004890
0.006419
0.007948
0.009466
0.010963
0.012427
0.013846
0.015209
0.016501
0.017710
0.018824
0.019830
0.020716
0.021473
0.022091
0.022561
0.022879
0.023041
0.023049
-0.020354
-0.020390
-0.020372
-0.020299
-0.020174
-0.019994
-0.019760
-0.019470
-0.019125
-0.018723
-0.018265
-0.017747
-0.017172
-0.016536
-0.015840
-0.015084
-0.014265
-0.013385
-0.012443
-0.011439
-0.010374
-0.009248
-0.008061
-0.006817
-0.005516
-0.004162
-0.002757
-0.001305
0.000188
0.001716
0.003274
0.004853
0.006446
0.008043
0.009632
0.011203
0.012744
0.014242
0.015683
0.017052
0.018337
0.019522
0.020595
0.021543
0.022353
0.023015
0.023520
0.023862
0.024037
0.024048
-0.020869
-0.020908
-0.020891
-0.020822
-0.020699
-0.020522
-0.020290
-0.020004
-0.019662
-0.019263
-0.018806
-0.018291
-0.017716
-0.017081
-0.016384
-0.015625
-0.014803
-0.013917
-0.012967
-0.011952
-0.010872
-0.009729
-0.008522
-0.007252
-0.005922
-0.004534
-0.003089
-0.001594
-0.000051
0.001534
0.003153
0.004800
0.006465
0.008139
0.009810
0.011467
0.013097
0.014685
0.016217
0.017678
0.019051
0.020320
0.021472
0.022491
0.023364
0.024079
0.024625
0.024996
0.025188
0.025202
-0.021445
-0.021486
-0.021473
-0.021406
-0.021286
-0.021112
-0.020885
-0.020602
-0.020263
-0.019868
-0.019414
-0.018901
-0.018328
-0.017694
-0.016996
-0.016235
-0.015409
-0.014518
-0.013559
-0.012533
-0.011439
-0.010278
-0.009048
-0.007752
-0.006390
-0.004965
-0.003478
-0.001933
-0.000334
0.001312
0.003000
0.004722
0.006469
0.008230
0.009995
0.011751
0.013482
0.015175
0.016812
0.018378
0.019854
0.021222
0.022466
0.023569
0.024516
0.025293
0.025888
0.026293
0.026504
0.026522
-0.022083
-0.022127
-0.022116
-0.022052
-0.021936
-0.021766
-0.021543
-0.021264
-0.020930
-0.020538
-0.020088
-0.019579
-0.019009
-0.018376
-0.017679
-0.016917
-0.016088
-0.015191
-0.014224
-0.013187
-0.012079
-0.010899
-0.009646
-0.008322
-0.006927
-0.005461
-0.003928
-0.002330
-0.000671
0.001043
0.002807
0.004612
0.006450
0.008311
0.010181
0.012048
0.013895
0.015708
0.017467
0.019153
0.020748
0.022231
0.023583
0.024785
0.025818
0.026668
0.027321
0.027766
0.027999
0.028023
-0.022781
-0.022828
-0.022821
-0.022761
-0.022648
-0.022483
-0.022265
-0.021991
-0.021662
-0.021276
-0.020831
-0.020326
-0.019759
-0.019129
-0.018434
-0.017672
-0.016841
-0.015939
-0.014966
-0.013918
-0.012796
-0.011597
-0.010322
-0.008968
-0.007538
-0.006031
-0.004449
-0.002794
-0.001070
0.000718
0.002565
0.004462
0.006401
0.008371
0.010360
0.012352
0.014331
0.016280
0.018178
0.020004
0.021737
0.023353
0.024830
0.026147
0.027282
0.028217
0.028937
0.029430
0.029690
0.029720
-0.023541
-0.023591
-0.023588
-0.023532
-0.023424
-0.023265
-0.023052
-0.022784
-0.022461
-0.022081
-0.021643
-0.021143
-0.020582
-0.019956
-0.019264
-0.018503
-0.017672
-0.016767
-0.015788
-0.014731
-0.013596
-0.012379
-0.011081
-0.009698
-0.008232
-0.006682
-0.005049
-0.003335
-0.001541
0.000327
0.002263
0.004261
0.006311
0.008403
0.010523
0.012656
0.014784
0.016887
0.018943
0.020930
0.022821
0.024591
0.026214
0.027665
0.028919
0.029955
0.030754
0.031303
0.031594
0.031632
-0.024362
-0.024416
-0.024416
-0.024365
-0.024263
-0.024110
-0.023903
-0.023643
-0.023328
-0.022955
-0.022524
-0.022033
-0.021478
-0.020858
-0.020171
-0.019413
-0.018584
-0.017678
-0.016695
-0.015631
-0.014484
-0.013251
-0.011930
-0.010520
-0.009018
-0.007424
-0.005739
-0.003962
-0.002095
-0.000143
0.001889
0.003996
0.006168
0.008393
0.010659
0.012949
0.015243
0.017521
0.019759
0.021928
0.024002
0.025951
0.027744
0.029351
0.030745
0.031899
0.032791
0.033406
0.033734
0.033781
-0.025245
-0.025303
-0.025307
-0.025262
-0.025166
-0.025019
-0.024821
-0.024569
-0.024262
-0.023899
-0.023478
-0.022995
-0.022449
-0.021838
-0.021157
-0.020406
-0.019580
-0.018676
-0.017692
-0.016623
-0.015466
-0.014219
-0.012878
-0.011441
-0.009905
-0.008268
-0.006529
-0.004688
-0.002746
-0.000705
0.001430
0.003653
0.005956
0.008327
0.010754
0.013218
0.015700
0.018175
0.020618
0.022997
0.025282
0.027437
0.029427
0.031217
0.032775
0.034068
0.035071
0.035763
0.036136
0.036194
-0.026188
-0.026250
-0.026260
-0.026221
-0.026132
-0.025993
-0.025804
-0.025562
-0.025266
-0.024914
-0.024503
-0.024032
-0.023497
-0.022896
-0.022226
-0.021483
-0.020664
-0.019765
-0.018782
-0.017712
-0.016549
-0.015291
-0.013933
-0.012471
-0.010902
-0.009223
-0.007432
-0.005527
-0.003507
-0.001374
0.000868
0.003215
0.005659
0.008189
0.010791
0.013448
0.016138
0.018836
0.021511
0.024131
0.026658
0.029052
0.031272
0.033277
0.035027
0.036485
0.037618
0.038403
0.038828
0.038900
-0.027193
-0.027260
-0.027275
-0.027242
-0.027161
-0.027032
-0.026853
-0.026622
-0.026338
-0.025999
-0.025602
-0.025144
-0.024624
-0.024036
-0.023379
-0.022648
-0.021840
-0.020949
-0.019972
-0.018903
-0.017739
-0.016473
-0.015102
-0.013619
-0.012021
-0.010303
-0.008461
-0.006493
-0.004396
-0.002169
0.000185
0.002662
0.005256
0.007957
0.010751
0.013620
0.016542
0.019489
0.022428
0.025322
0.028127
0.030799
0.033288
0.035546
0.037523
0.039175
0.040463
0.041358
0.041847
0.041935
-0.028258
-0.028330
-0.028352
-0.028326
-0.028254
-0.028135
-0.027968
-0.027750
-0.027480
-0.027156
-0.026775
-0.026334
-0.025830
-0.025259
-0.024619
-0.023904
-0.023109
-0.022232
-0.021265
-0.020203
-0.019042
-0.017774
-0.016394
-0.014896
-0.013274
-0.011521
-0.009632
-0.007603
-0.005429
-0.003108
-0.000641
0.001972
0.004724
0.007607
0.010608
0.013710
0.016888
0.020114
0.023352
0.026558
0.029685
0.032679
0.035483
0.038038
0.040285
0.042169
0.043642
0.044669
0.045232
0.045340
-0.029384
-0.029461
-0.029489
-0.029472
-0.029410
-0.029303
-0.029148
-0.028945
-0.028692
-0.028385
-0.028022
-0.027601
-0.027117
-0.026567
-0.025947
-0.025252
-0.024477
-0.023617
-0.022666
-0.021617
-0.020465
-0.019201
-0.017820
-0.016312
-0.014672
-0.012890
-0.010960
-0.008875
-0.006628
-0.004215
-0.001633
0.001117
0.004034
0.007109
0.010333
0.013688
0.017149
0.020686
0.024260
0.027824
0.031321
0.034691
0.037864
0.040770
0.043337
0.045499
0.047194
0.048380
0.049034
0.049166
-0.030569
-0.030653
-0.030688
-0.030680
-0.030629
-0.030535
-0.030395
-0.030208
-0.029973
-0.029686
-0.029345
-0.028946
-0.028486
-0.027960
-0.027365
-0.026695
-0.025945
-0.025108
-0.024179
-0.023150
-0.022014
-0.020762
-0.019387
-0.017878
-0.016228
-0.014425
-0.012462
-0.010328
-0.008014
-0.005514
-0.002820
0.000069
0.003154
0.006431
0.009891
0.013518
0.017289
0.021172
0.025125
0.029095
0.033020
0.036827
0.040435
0.043758
0.046709
0.049204
0.051167
0.052545
0.053309
0.053472
-0.031815
-0.031904
-0.031948
-0.031950
-0.031911
-0.031830
-0.031707
-0.031539
-0.031324
-0.031060
-0.030743
-0.030370
-0.029937
-0.029441
-0.028875
-0.028235
-0.027515
-0.026709
-0.025809
-0.024807
-0.023696
-0.022465
-0.021105
-0.019605
-0.017955
-0.016142
-0.014155
-0.011982
-0.009611
-0.007031
-0.004232
-0.001207
0.002047
0.005531
0.009238
0.013157
0.017264
0.021529
0.025906
0.030339
0.034757
0.039075
0.043196
0.047017
0.050429
0.053327
0.055617
0.057228
0.058125
0.058326
-0.033119
-0.033216
-0.033268
-0.033280
-0.033254
-0.033189
-0.033084
-0.032937
-0.032745
-0.032505
-0.032216
-0.031872
-0.031471
-0.031008
-0.030477
-0.029874
-0.029191
-0.028422
-0.027558
-0.026593
-0.025515
-0.024315
-0.022981
-0.021502
-0.019865
-0.018055
-0.016058
-0.013860
-0.011444
-0.008797
-0.005902
-0.002749
0.000671
0.004363
0.008325
0.012550
0.017020
0.021703
0.026554
0.031513
0.036498
0.041413
0.046142
0.050559
0.054529
0.057919
0.060608
0.062504
0.063566
0.063813
-0.034482
-0.034586
-0.034647
-0.034671
-0.034659
-0.034611
-0.034526
-0.034401
-0.034234
-0.034022
-0.033763
-0.033453
-0.033088
-0.032663
-0.032173
-0.031611
-0.030972
-0.030248
-0.029430
-0.028510
-0.027477
-0.026320
-0.025025
-0.023581
-0.021971
-0.020179
-0.018189
-0.015982
-0.013539
-0.010841
-0.007866
-0.004598
-0.001023
0.002872
0.007092
0.011635
0.016489
0.021626
0.027002
0.032553
0.038192
0.043804
0.049256
0.054390
0.059039
0.063033
0.066214
0.068465
0.069729
0.070033
-0.035902
-0.036014
-0.036085
-0.036122
-0.036125
-0.036095
-0.036031
-0.035930
-0.035791
-0.035610
-0.035385
-0.035112
-0.034787
-0.034405
-0.033961
-0.033448
-0.032860
-0.032189
-0.031427
-0.030562
-0.029585
-0.028484
-0.027243
-0.025849
-0.024284
-0.022530
-0.020566
-0.018372
-0.015923
-0.013196
-0.010164
-0.006802
-0.003088
0.000997
0.005468
0.010333
0.015587
0.021211
0.027163
0.033380
0.039766
0.046194
0.052505
0.058507
0.063988
0.068729
0.072524
0.075217
0.076733
0.077108
-0.037380
-0.037501
-0.037583
-0.037632
-0.037651
-0.037641
-0.037599
-0.037525
-0.037415
-0.037268
-0.037080
-0.036847
-0.036566
-0.036233
-0.035840
-0.035383
-0.034854
-0.034245
-0.033547
-0.032750
-0.031842
-0.030811
-0.029640
-0.028314
-0.026813
-0.025118
-0.023205
-0.021049
-0.018622
-0.015895
-0.012836
-0.009408
-0.005583
-0.001331
0.003375
0.008555
0.014215
0.020349
0.026924
0.033880
0.041118
0.048498
0.055831
0.062887
0.069395
0.075070
0.079639
0.082889
0.084721
0.085186
-0.038916
-0.039046
-0.039138
-0.039201
-0.039237
-0.039247
-0.039229
-0.039183
-0.039105
-0.038993
-0.038845
-0.038657
-0.038425
-0.038144
-0.037810
-0.037415
-0.036952
-0.036415
-0.035792
-0.035074
-0.034249
-0.033303
-0.032219
-0.030981
-0.029567
-0.027956
-0.026121
-0.024034
-0.021662
-0.018971
-0.015921
-0.012470
-0.008572
-0.004189
0.000721
0.006192
0.012251
0.018905
0.026140
0.033905
0.042104
0.050588
0.059140
0.067478
0.075263
0.082117
0.087673
0.091635
0.093869
0.094446
-0.040509
-0.040648
-0.040752
-0.040828
-0.040882
-0.040913
-0.040921
-0.040903
-0.040859
-0.040785
-0.040680
-0.040540
-0.040360
-0.040138
-0.039866
-0.039540
-0.039153
-0.038695
-0.038159
-0.037532
-0.036804
-0.035959
-0.034982
-0.033853
-0.032551
-0.031051
-0.029326
-0.027343
-0.025066
-0.022453
-0.019460
-0.016035
-0.012119
-0.007658
-0.002595
0.003124
0.009550
0.016714
0.024626
0.033258
0.042526
0.052278
0.062275
0.072180
0.081561
0.089921
0.096751
0.101639
0.104391
0.105108
-0.042159
-0.042309
-0.042424
-0.042515
-0.042586
-0.042639
-0.042672
-0.042685
-0.042675
-0.042642
-0.042581
-0.042492
-0.042369
-0.042209
-0.042007
-0.041756
-0.041451
-0.041083
-0.040643
-0.040121
-0.039504
-0.038778
-0.037926
-0.036929
-0.035765
-0.034408
-0.032827
-0.030988
-0.028850
-0.026368
-0.023489
-0.020152
-0.016290
-0.011824
-0.006682
-0.000785
0.005945
0.013576
0.022151
0.031679
0.042107
0.053296
0.064993
0.076807
0.088196
0.098498
0.107004
0.113116
0.116546
0.117444
-0.043867
-0.044028
-0.044155
-0.044260
-0.044349
-0.044424
-0.044483
-0.044526
-0.044552
-0.044560
-0.044547
-0.044510
-0.044447
-0.044354
-0.044226
-0.044057
-0.043842
-0.043572
-0.043239
-0.042833
-0.042342
-0.041752
-0.041046
-0.040205
-0.039207
-0.038024
-0.036626
-0.034975
-0.033028
-0.030735
-0.028037
-0.024866
-0.021143
-0.016771
-0.011652
-0.005683
0.001249
0.009255
0.018429
0.028835
0.040474
0.053247
0.066914
0.081038
0.094958
0.107793
0.118541
0.126309
0.130653
0.131788
-0.045636
-0.045809
-0.045947
-0.046066
-0.046172
-0.046267
-0.046352
-0.046426
-0.046488
-0.046538
-0.046573
-0.046592
-0.046591
-0.046568
-0.046518
-0.046437
-0.046318
-0.046155
-0.045939
-0.045662
-0.045311
-0.044873
-0.044334
-0.043672
-0.042868
-0.041894
-0.040718
-0.039302
-0.037603
-0.035565
-0.033126
-0.030210
-0.026727
-0.022574
-0.017614
-0.011721
-0.004743
0.003483
0.013117
0.024301
0.037122
0.051567
0.067449
0.084329
0.101427
0.117591
0.131395
0.141472
0.147093
0.148564
-0.047468
-0.047653
-0.047802
-0.047934
-0.048056
-0.048171
-0.048280
-0.048383
-0.048481
-0.048572
-0.048656
-0.048731
-0.048795
-0.048844
-0.048877
-0.048887
-0.048871
-0.048822
-0.048733
-0.048595
-0.048398
-0.048129
-0.047775
-0.047317
-0.046735
-0.046003
-0.045091
-0.043960
-0.042567
-0.040856
-0.038761
-0.036201
-0.033081
-0.029282
-0.024666
-0.019044
-0.012239
-0.004031
0.005820
0.017557
0.031396
0.047464
0.065709
0.085767
0.106795
0.127341
0.145387
0.158802
0.166314
0.168333
-0.049367
-0.049565
-0.049724
-0.049867
-0.050002
-0.050135
-0.050266
-0.050397
-0.050528
-0.050660
-0.050792
-0.050923
-0.051052
-0.051176
-0.051294
-0.051400
-0.051492
-0.051563
-0.051608
-0.051619
-0.051588
-0.051503
-0.051353
-0.051120
-0.050788
-0.050331
-0.049723
-0.048927
-0.047900
-0.046590
-0.044930
-0.042840
-0.040217
-0.036938
-0.032851
-0.027768
-0.021431
-0.013579
-0.003891
0.007996
0.022466
0.039859
0.060370
0.083854
0.109556
0.135791
0.159803
0.178255
0.188808
0.191913
-0.051340
-0.051552
-0.051720
-0.051870
-0.052016
-0.052161
-0.052311
-0.052466
-0.052627
-0.052797
-0.052975
-0.053162
-0.053356
-0.053556
-0.053760
-0.053965
-0.054167
-0.054364
-0.054550
-0.054719
-0.054863
-0.054975
-0.055045
-0.055058
-0.054999
-0.054849
-0.054582
-0.054168
-0.053568
-0.052733
-0.051601
-0.050095
-0.048116
-0.045541
-0.042212
-0.037931
-0.032449
-0.025421
-0.016440
-0.005043
0.009348
0.027347
0.049527
0.076188
0.106963
0.140235
0.172589
0.198991
0.214966
0.220545
-0.053397
-0.053623
-0.053797
-0.053951
-0.054101
-0.054254
-0.054416
-0.054590
-0.054777
-0.054981
-0.055202
-0.055442
-0.055699
-0.055974
-0.056265
-0.056569
-0.056886
-0.057211
-0.057542
-0.057875
-0.058204
-0.058523
-0.058824
-0.059099
-0.059336
-0.059518
-0.059627
-0.059638
-0.059519
-0.059229
-0.058714
-0.057908
-0.056721
-0.055039
-0.052715
-0.049557
-0.045314
-0.039664
-0.032167
-0.022190
-0.009022
0.008221
0.030596
0.059081
0.094168
0.135010
0.178317
0.217456
0.243970
0.255113
-0.055551
-0.055792
-0.055967
-0.056118
-0.056265
-0.056418
-0.056584
-0.056769
-0.056975
-0.057207
-0.057467
-0.057755
-0.058073
-0.058421
-0.058797
-0.059201
-0.059632
-0.060088
-0.060567
-0.061067
-0.061585
-0.062118
-0.062662
-0.063211
-0.063758
-0.064294
-0.064806
-0.065277
-0.065686
-0.066001
-0.066185
-0.066183
-0.065927
-0.065323
-0.064250
-0.062545
-0.059989
-0.056291
-0.051056
-0.043758
-0.033592
-0.019341
0.000385
0.027277
0.063132
0.108944
0.163704
0.221346
0.267725
0.289694
-0.057822
-0.058077
-0.058249
-0.058386
-0.058518
-0.058659
-0.058818
-0.059003
-0.059219
-0.059472
-0.059763
-0.060095
-0.060469
-0.060886
-0.061346
-0.061848
-0.062392
-0.062977
-0.063605
-0.064273
-0.064983
-0.065733
-0.066523
-0.067353
-0.068221
-0.069124
-0.070057
-0.071015
-0.071985
-0.072954
-0.073899
-0.074788
-0.075581
-0.076217
-0.076619
-0.076677
-0.076246
-0.075127
-0.073045
-0.069623
-0.064319
-0.056385
-0.044401
-0.025775
0.002186
0.043224
0.102672
0.180724
0.257665
0.297484
-0.060238
-0.060508
-0.060664
-0.060773
-0.060874
-0.060986
-0.061122
-0.061293
-0.061507
-0.061768
-0.062082
-0.062451
-0.062876
-0.063357
-0.063896
-0.064493
-0.065147
-0.065861
-0.066634
-0.067470
-0.068369
-0.069335
-0.070372
-0.071484
-0.072675
-0.073950
-0.075314
-0.076770
-0.078322
-0.079972
-0.081719
-0.083559
-0.085484
-0.087480
-0.089529
-0.091601
-0.093664
-0.095675
-0.097591
-0.099371
-0.100991
-0.102456
-0.103745
-0.104541
-0.101042
-0.083620
-0.035925
0.056794
0.169811
0.234661
-0.062838
-0.063121
-0.063247
-0.063306
-0.063350
-0.063409
-0.063501
-0.063639
-0.063833
-0.064092
-0.064418
-0.064814
-0.065282
-0.065823
-0.066436
-0.067122
-0.067883
-0.068720
-0.069635
-0.070632
-0.071717
-0.072894
-0.074172
-0.075561
-0.077070
-0.078712
-0.080501
-0.082455
-0.084590
-0.086927
-0.089489
-0.092302
-0.095398
-0.098816
-0.102606
-0.106841
-0.111630
-0.117145
-0.123674
-0.131708
-0.142110
-0.156406
-0.177106
-0.207108
-0.245273
-0.275795
-0.258893
-0.162016
-0.015644
0.078086
-0.065681
-0.065973
-0.066044
-0.066017
-0.065970
-0.065941
-0.065959
-0.066039
-0.066195
-0.066433
-0.066758
-0.067172
-0.067675
-0.068268
-0.068949
-0.069720
-0.070581
-0.071535
-0.072586
-0.073738
-0.074998
-0.076377
-0.077886
-0.079538
-0.081351
-0.083346
-0.085545
-0.087978
-0.090677
-0.093683
-0.097041
-0.100810
-0.105062
-0.109889
-0.115418
-0.121827
-0.129381
-0.138493
-0.149836
-0.164558
-0.184695
-0.213924
-0.258453
-0.325817
-0.415936
-0.503940
-0.528443
-0.438839
-0.270076
-0.150447
-0.068853
-0.069146
-0.069119
-0.068953
-0.068760
-0.068597
-0.068499
-0.068490
-0.068582
-0.068781
-0.069092
-0.069512
-0.070042
-0.070679
-0.071422
-0.072270
-0.073225
-0.074289
-0.075465
-0.076762
-0.078188
-0.079754
-0.081477
-0.083374
-0.085469
-0.087790
-0.090370
-0.093249
-0.096475
-0.100104
-0.104207
-0.108871
-0.114206
-0.120355
-0.127513
-0.135956
-0.146090
-0.158548
-0.174359
-0.195291
-0.224515
-0.267803
-0.334869
-0.437322
-0.575150
-0.712952
-0.775631
-0.702605
-0.528325
-0.392691
-0.072484
-0.072761
-0.072565
-0.072173
-0.071752
-0.071387
-0.071122
-0.070983
-0.070982
-0.071122
-0.071402
-0.071818
-0.072365
-0.073039
-0.073837
-0.074757
-0.075798
-0.076963
-0.078256
-0.079685
-0.081260
-0.082996
-0.084912
-0.087029
-0.089377
-0.091989
-0.094909
-0.098185
-0.101878
-0.106063
-0.110828
-0.116287
-0.122580
-0.129892
-0.138472
-0.148669
-0.160989
-0.176215
-0.195610
-0.221326
-0.257196
-0.310114
-0.391412
-0.514237
-0.678169
-0.842866
-0.928573
-0.876488
-0.714759
-0.576970
-0.076784
-0.077005
-0.076511
-0.075749
-0.074979
-0.074317
-0.073817
-0.073501
-0.073374
-0.073433
-0.073668
-0.074070
-0.074628
-0.075334
-0.076181
-0.077165
-0.078285
-0.079542
-0.080940
-0.082487
-0.084195
-0.086080
-0.088162
-0.090469
-0.093032
-0.095892
-0.099099
-0.102710
-0.106797
-0.111447
-0.116765
-0.122884
-0.129967
-0.138228
-0.147949
-0.159518
-0.173489
-0.190698
-0.212461
-0.240972
-0.280020
-0.336152
-0.419424
-0.540622
-0.698001
-0.855407
-0.942822
-0.911796
-0.774375
-0.645362
-0.082100
-0.082176
-0.081139
-0.079767
-0.078463
-0.077378
-0.076559
-0.076013
-0.075729
-0.075687
-0.075867
-0.076247
-0.076811
-0.077544
-0.078436
-0.079479
-0.080671
-0.082011
-0.083503
-0.085153
-0.086974
-0.088983
-0.091204
-0.093664
-0.096401
-0.099458
-0.102890
-0.106762
-0.111155
-0.116164
-0.121907
-0.128527
-0.136204
-0.145165
-0.155705
-0.168220
-0.183262
-0.201629
-0.224539
-0.253933
-0.293007
-0.346949
-0.421780
-0.524418
-0.651179
-0.770015
-0.827025
-0.802245
-0.694263
-0.568240
-0.089066
-0.088766
-0.086694
-0.084300
-0.082193
-0.080526
-0.079297
-0.078470
-0.078000
-0.077845
-0.077963
-0.078320
-0.078889
-0.079648
-0.080583
-0.081682
-0.082940
-0.084354
-0.085927
-0.087664
-0.089578
-0.091687
-0.094013
-0.096589
-0.099452
-0.102649
-0.106240
-0.110293
-0.114895
-0.120148
-0.126176
-0.133129
-0.141192
-0.150597
-0.161635
-0.174689
-0.190272
-0.209099
-0.232209
-0.261158
-0.298270
-0.346058
-0.408963
-0.489315
-0.580122
-0.653301
-0.669598
-0.617409
-0.492216
-0.329632
-0.098966
-0.097632
-0.093463
-0.089351
-0.086075
-0.083658
-0.081932
-0.080783
-0.080110
-0.079836
-0.079894
-0.080231
-0.080806
-0.081592
-0.082568
-0.083719
-0.085036
-0.086516
-0.088159
-0.089967
-0.091952
-0.094133
-0.096534
-0.099185
-0.102126
-0.105407
-0.109088
-0.113242
-0.117958
-0.123342
-0.129521
-0.136650
-0.144913
-0.154538
-0.165809
-0.179083
-0.194828
-0.213670
-0.236485
-0.264221
-0.298306
-0.340570
-0.392821
-0.454532
-0.517096
-0.556666
-0.539577
-0.434561
-0.185120
0.130758
-0.115042
-0.110426
-0.101620
-0.094681
-0.089795
-0.086499
-0.084189
-0.082677
-0.081780
-0.081387
-0.081387
-0.081704
-0.082287
-0.083098
-0.084112
-0.085310
-0.086681
-0.088218
-0.089923
-0.091787
-0.093822
-0.096052
-0.098499
-0.101193
-0.104174
-0.107492
-0.111208
-0.115400
-0.120158
-0.125591
-0.131829
-0.139025
-0.147367
-0.157079
-0.168436
-0.181778
-0.197533
-0.216243
-0.238587
-0.265351
-0.297500
-0.336031
-0.381318
-0.431126
-0.476130
-0.494058
-0.437329
-0.213571
0.328336
1.031269
-0.145654
-0.128911
-0.110796
-0.098766
-0.091490
-0.087247
-0.084206
-0.082406
-0.081441
-0.080999
-0.080995
-0.081342
-0.081976
-0.082853
-0.083943
-0.085222
-0.086677
-0.088297
-0.090079
-0.092021
-0.094130
-0.096425
-0.098928
-0.101670
-0.104691
-0.108042
-0.111787
-0.116005
-0.120789
-0.126252
-0.132526
-0.139770
-0.148173
-0.157960
-0.169406
-0.182847
-0.198694
-0.217453
-0.239731
-0.266208
-0.297584
-0.334297
-0.375653
-0.417783
-0.449567
-0.433413
-0.274063
0.212237
1.292212
2.741843
-0.247837
-0.110344
-0.082496
-0.075064
-0.072430
-0.071445
-0.071040
-0.071143
-0.071616
-0.072324
-0.073248
-0.074364
-0.075649
-0.077086
-0.078662
-0.080369
-0.082203
-0.084163
-0.086248
-0.088464
-0.090821
-0.093339
-0.096044
-0.098967
-0.102152
-0.105652
-0.109533
-0.113878
-0.118782
-0.124363
-0.130756
-0.138123
-0.146660
-0.156595
-0.168208
-0.181837
-0.197893
-0.216873
-0.239350
-0.265925
-0.297072
-0.332609
-0.370224
-0.401372
-0.399039
-0.294615
0.049291
0.905631
2.606333
4.922140
