# vtk DataFile Version 3.0
Vector Field
ASCII
DATASET RECTILINEAR_GRID
DIMENSIONS 50 50 1
X_COORDINATES 50 double
0.100000 0.300000 0.500000 0.700000 0.900000 1.100000 1.300000 1.500000 1.700000 1.900000 2.100000 2.300000 2.500000 2.700000 2.900000 3.100000 3.300000 3.500000 3.700000 3.900000 4.100000 4.300000 4.500000 4.700000 4.900000 5.100000 5.300000 5.500000 5.700000 5.900000 6.100000 6.300000 6.500000 6.700000 6.900000 7.100000 7.300000 7.500000 7.700000 7.900000 8.100000 8.300000 8.500000 8.700000 8.900000 9.100000 9.300000 9.500000 9.700000 9.900000 
Y_COORDINATES 50 double
0.100000 0.300000 0.500000 0.700000 0.900000 1.100000 1.300000 1.500000 1.700000 1.900000 2.100000 2.300000 2.500000 2.700000 2.900000 3.100000 3.300000 3.500000 3.700000 3.900000 4.100000 4.300000 4.500000 4.700000 4.900000 5.100000 5.300000 5.500000 5.700000 5.900000 6.100000 6.300000 6.500000 6.700000 6.900000 7.100000 7.300000 7.500000 7.700000 7.900000 8.100000 8.300000 8.500000 8.700000 8.900000 9.100000 9.300000 9.500000 9.700000 9.900000 
Z_COORDINATES 1 double
0.0
POINT_DATA 2500
VECTORS Vektorfeld double
-0.000156 0.000156 0.0
-0.000703 0.000392 0.0
-0.001589 0.000494 0.0
-0.002607 0.000525 0.0
-0.003661 0.000530 0.0
-0.004719 0.000528 0.0
-0.005772 0.000525 0.0
-0.006820 0.000522 0.0
-0.007861 0.000519 0.0
-0.008895 0.000515 0.0
-0.009919 0.000510 0.0
-0.010932 0.000503 0.0
-0.011932 0.000496 0.0
-0.012916 0.000488 0.0
-0.013882 0.000478 0.0
-0.014827 0.000467 0.0
-0.015747 0.000453 0.0
-0.016638 0.000438 0.0
-0.017498 0.000421 0.0
-0.018320 0.000401 0.0
-0.019100 0.000379 0.0
-0.019833 0.000354 0.0
-0.020513 0.000326 0.0
-0.021133 0.000294 0.0
-0.021688 0.000260 0.0
-0.022169 0.000221 0.0
-0.022569 0.000179 0.0
-0.022882 0.000134 0.0
-0.023100 0.000084 0.0
-0.023214 0.000031 0.0
-0.023219 -0.000026 0.0
-0.023106 -0.000087 0.0
-0.022867 -0.000151 0.0
-0.022497 -0.000219 0.0
-0.021989 -0.000289 0.0
-0.021340 -0.000360 0.0
-0.020547 -0.000433 0.0
-0.019608 -0.000506 0.0
-0.018522 -0.000579 0.0
-0.017294 -0.000650 0.0
-0.015927 -0.000718 0.0
-0.014427 -0.000782 0.0
-0.012804 -0.000841 0.0
-0.011068 -0.000895 0.0
-0.009232 -0.000941 0.0
-0.007313 -0.000977 0.0
-0.005342 -0.000994 0.0
-0.003383 -0.000964 0.0
-0.001608 -0.000812 0.0
-0.000398 -0.000398 0.0
-0.000401 0.000713 0.0
-0.001590 0.001571 0.0
-0.003333 0.001943 0.0
-0.005300 0.002061 0.0
-0.007336 0.002083 0.0
-0.009382 0.002078 0.0
-0.011419 0.002066 0.0
-0.013438 0.002050 0.0
-0.015437 0.002031 0.0
-0.017410 0.002009 0.0
-0.019354 0.001983 0.0
-0.021264 0.001953 0.0
-0.023135 0.001918 0.0
-0.024963 0.001878 0.0
-0.026743 0.001833 0.0
-0.028466 0.001781 0.0
-0.030129 0.001722 0.0
-0.031723 0.001656 0.0
-0.033241 0.001581 0.0
-0.034676 0.001498 0.0
-0.036018 0.001405 0.0
-0.037258 0.001302 0.0
-0.038388 0.001187 0.0
-0.039396 0.001061 0.0
-0.040272 0.000923 0.0
-0.041005 0.000772 0.0
-0.041585 0.000608 0.0
-0.041999 0.000431 0.0
-0.042235 0.000241 0.0
-0.042284 0.000037 0.0
-0.042133 -0.000179 0.0
-0.041772 -0.000409 0.0
-0.041191 -0.000649 0.0
-0.040383 -0.000900 0.0
-0.039340 -0.001158 0.0
-0.038058 -0.001422 0.0
-0.036535 -0.001689 0.0
-0.034770 -0.001956 0.0
-0.032765 -0.002219 0.0
-0.030526 -0.002476 0.0
-0.028062 -0.002723 0.0
-0.025384 -0.002955 0.0
-0.022507 -0.003169 0.0
-0.019450 -0.003361 0.0
-0.016236 -0.003526 0.0
-0.012895 -0.003652 0.0
-0.009480 -0.003706 0.0
-0.006102 -0.003588 0.0
-0.003016 -0.003049 0.0
-0.000795 -0.001591 0.0
-0.000515 0.001629 0.0
-0.002003 0.003331 0.0
-0.004132 0.004055 0.0
-0.006506 0.004291 0.0
-0.008954 0.004338 0.0
-0.011411 0.004327 0.0
-0.013855 0.004297 0.0
-0.016276 0.004258 0.0
-0.018667 0.004212 0.0
-0.021022 0.004157 0.0
-0.023338 0.004094 0.0
-0.025607 0.004022 0.0
-0.027825 0.003939 0.0
-0.029983 0.003845 0.0
-0.032077 0.003739 0.0
-0.034098 0.003620 0.0
-0.036039 0.003487 0.0
-0.037893 0.003338 0.0
-0.039649 0.003173 0.0
-0.041300 0.002991 0.0
-0.042836 0.002789 0.0
-0.044246 0.002568 0.0
-0.045520 0.002325 0.0
-0.046646 0.002059 0.0
-0.047613 0.001769 0.0
-0.048409 0.001456 0.0
-0.049022 0.001117 0.0
-0.049438 0.000753 0.0
-0.049646 0.000364 0.0
-0.049633 -0.000050 0.0
-0.049387 -0.000489 0.0
-0.048898 -0.000949 0.0
-0.048157 -0.001430 0.0
-0.047155 -0.001929 0.0
-0.045885 -0.002441 0.0
-0.044343 -0.002962 0.0
-0.042527 -0.003488 0.0
-0.040436 -0.004012 0.0
-0.038075 -0.004529 0.0
-0.035450 -0.005031 0.0
-0.032572 -0.005511 0.0
-0.029453 -0.005963 0.0
-0.026111 -0.006379 0.0
-0.022568 -0.006751 0.0
-0.018849 -0.007069 0.0
-0.014990 -0.007309 0.0
-0.011049 -0.007406 0.0
-0.007145 -0.007170 0.0
-0.003557 -0.006141 0.0
-0.000945 -0.003332 0.0
-0.000555 0.002700 0.0
-0.002155 0.005347 0.0
-0.004435 0.006447 0.0
-0.006966 0.006804 0.0
-0.009570 0.006876 0.0
-0.012179 0.006856 0.0
-0.014773 0.006805 0.0
-0.017341 0.006738 0.0
-0.019876 0.006658 0.0
-0.022373 0.006564 0.0
-0.024825 0.006455 0.0
-0.027226 0.006331 0.0
-0.029569 0.006190 0.0
-0.031849 0.006032 0.0
-0.034058 0.005854 0.0
-0.036188 0.005656 0.0
-0.038232 0.005436 0.0
-0.040181 0.005192 0.0
-0.042027 0.004922 0.0
-0.043759 0.004625 0.0
-0.045368 0.004300 0.0
-0.046844 0.003943 0.0
-0.048175 0.003554 0.0
-0.049350 0.003131 0.0
-0.050357 0.002672 0.0
-0.051184 0.002176 0.0
-0.051818 0.001642 0.0
-0.052245 0.001071 0.0
-0.052454 0.000462 0.0
-0.052431 -0.000185 0.0
-0.052165 -0.000866 0.0
-0.051643 -0.001581 0.0
-0.050857 -0.002326 0.0
-0.049798 -0.003095 0.0
-0.048457 -0.003885 0.0
-0.046830 -0.004687 0.0
-0.044915 -0.005495 0.0
-0.042711 -0.006299 0.0
-0.040222 -0.007091 0.0
-0.037454 -0.007860 0.0
-0.034419 -0.008596 0.0
-0.031130 -0.009286 0.0
-0.027605 -0.009922 0.0
-0.023867 -0.010489 0.0
-0.019944 -0.010973 0.0
-0.015870 -0.011337 0.0
-0.011707 -0.011482 0.0
-0.007577 -0.011128 0.0
-0.003771 -0.009578 0.0
-0.001001 -0.005277 0.0
-0.000566 0.003821 0.0
-0.002204 0.007463 0.0
-0.004541 0.008948 0.0
-0.007133 0.009426 0.0
-0.009796 0.009520 0.0
-0.012464 0.009490 0.0
-0.015114 0.009416 0.0
-0.017738 0.009319 0.0
-0.020329 0.009203 0.0
-0.022881 0.009067 0.0
-0.025387 0.008910 0.0
-0.027841 0.008732 0.0
-0.030238 0.008530 0.0
-0.032569 0.008304 0.0
-0.034829 0.008051 0.0
-0.037009 0.007770 0.0
-0.039102 0.007459 0.0
-0.041100 0.007115 0.0
-0.042993 0.006737 0.0
-0.044772 0.006322 0.0
-0.046427 0.005868 0.0
-0.047947 0.005372 0.0
-0.049322 0.004832 0.0
-0.050540 0.004246 0.0
-0.051588 0.003612 0.0
-0.052454 0.002928 0.0
-0.053125 0.002194 0.0
-0.053587 0.001409 0.0
-0.053827 0.000573 0.0
-0.053832 -0.000314 0.0
-0.053588 -0.001247 0.0
-0.053085 -0.002225 0.0
-0.052309 -0.003243 0.0
-0.051252 -0.004295 0.0
-0.049905 -0.005373 0.0
-0.048262 -0.006469 0.0
-0.046318 -0.007572 0.0
-0.044075 -0.008670 0.0
-0.041533 -0.009751 0.0
-0.038700 -0.010801 0.0
-0.035585 -0.011805 0.0
-0.032203 -0.012748 0.0
-0.028572 -0.013615 0.0
-0.024715 -0.014390 0.0
-0.020661 -0.015050 0.0
-0.016448 -0.015547 0.0
-0.012136 -0.015747 0.0
-0.007854 -0.015275 0.0
-0.003905 -0.013185 0.0
-0.001034 -0.007312 0.0
-0.000570 0.004957 0.0
-0.002223 0.009617 0.0
-0.004587 0.011496 0.0
-0.007211 0.012094 0.0
-0.009905 0.012210 0.0
-0.012605 0.012168 0.0
-0.015287 0.012071 0.0
-0.017943 0.011944 0.0
-0.020566 0.011792 0.0
-0.023150 0.011613 0.0
-0.025689 0.011409 0.0
-0.028178 0.011176 0.0
-0.030610 0.010913 0.0
-0.032977 0.010619 0.0
-0.035275 0.010292 0.0
-0.037494 0.009928 0.0
-0.039627 0.009527 0.0
-0.041667 0.009084 0.0
-0.043603 0.008598 0.0
-0.045428 0.008065 0.0
-0.047130 0.007482 0.0
-0.048700 0.006847 0.0
-0.050126 0.006157 0.0
-0.051396 0.005408 0.0
-0.052498 0.004599 0.0
-0.053419 0.003727 0.0
-0.054144 0.002791 0.0
-0.054660 0.001790 0.0
-0.054953 0.000724 0.0
-0.055009 -0.000405 0.0
-0.054813 -0.001595 0.0
-0.054352 -0.002842 0.0
-0.053612 -0.004141 0.0
-0.052584 -0.005483 0.0
-0.051255 -0.006860 0.0
-0.049619 -0.008261 0.0
-0.047671 -0.009671 0.0
-0.045408 -0.011077 0.0
-0.042832 -0.012462 0.0
-0.039947 -0.013808 0.0
-0.036764 -0.015096 0.0
-0.033297 -0.016307 0.0
-0.029564 -0.017420 0.0
-0.025590 -0.018416 0.0
-0.021403 -0.019264 0.0
-0.017045 -0.019904 0.0
-0.012580 -0.020167 0.0
-0.008141 -0.019577 0.0
-0.004046 -0.016926 0.0
-0.001071 -0.009417 0.0
-0.000572 0.006099 0.0
-0.002237 0.011793 0.0
-0.004623 0.014071 0.0
-0.007273 0.014792 0.0
-0.009995 0.014929 0.0
-0.012723 0.014876 0.0
-0.015434 0.014756 0.0
-0.018119 0.014600 0.0
-0.020772 0.014412 0.0
-0.023387 0.014192 0.0
-0.025959 0.013941 0.0
-0.028481 0.013655 0.0
-0.030948 0.013333 0.0
-0.033353 0.012973 0.0
-0.035690 0.012572 0.0
-0.037952 0.012128 0.0
-0.040130 0.011638 0.0
-0.042216 0.011099 0.0
-0.044204 0.010507 0.0
-0.046081 0.009858 0.0
-0.047840 0.009150 0.0
-0.049470 0.008379 0.0
-0.050958 0.007540 0.0
-0.052294 0.006631 0.0
-0.053463 0.005648 0.0
-0.054453 0.004589 0.0
-0.055249 0.003451 0.0
-0.055836 0.002234 0.0
-0.056200 0.000937 0.0
-0.056323 -0.000438 0.0
-0.056192 -0.001889 0.0
-0.055790 -0.003412 0.0
-0.055103 -0.004998 0.0
-0.054117 -0.006641 0.0
-0.052820 -0.008328 0.0
-0.051202 -0.010046 0.0
-0.049256 -0.011780 0.0
-0.046978 -0.013510 0.0
-0.044368 -0.015217 0.0
-0.041428 -0.016877 0.0
-0.038169 -0.018469 0.0
-0.034604 -0.019966 0.0
-0.030752 -0.021345 0.0
-0.026639 -0.022579 0.0
-0.022295 -0.023631 0.0
-0.017764 -0.024426 0.0
-0.013114 -0.024760 0.0
-0.008488 -0.024051 0.0
-0.004219 -0.020817 0.0
-0.001117 -0.011604 0.0
-0.000575 0.007247 0.0
-0.002253 0.013987 0.0
-0.004663 0.016673 0.0
-0.007341 0.017518 0.0
-0.010093 0.017678 0.0
-0.012852 0.017614 0.0
-0.015595 0.017472 0.0
-0.018312 0.017286 0.0
-0.020999 0.017064 0.0
-0.023649 0.016805 0.0
-0.026257 0.016508 0.0
-0.028818 0.016171 0.0
-0.031326 0.015792 0.0
-0.033774 0.015368 0.0
-0.036157 0.014897 0.0
-0.038467 0.014375 0.0
-0.040697 0.013800 0.0
-0.042839 0.013167 0.0
-0.044885 0.012472 0.0
-0.046826 0.011712 0.0
-0.048652 0.010882 0.0
-0.050352 0.009977 0.0
-0.051915 0.008993 0.0
-0.053329 0.007927 0.0
-0.054580 0.006773 0.0
-0.055654 0.005528 0.0
-0.056536 0.004190 0.0
-0.057211 0.002757 0.0
-0.057661 0.001228 0.0
-0.057869 -0.000397 0.0
-0.057819 -0.002113 0.0
-0.057492 -0.003917 0.0
-0.056871 -0.005801 0.0
-0.055941 -0.007754 0.0
-0.054687 -0.009765 0.0
-0.053096 -0.011818 0.0
-0.051158 -0.013892 0.0
-0.048866 -0.015967 0.0
-0.046218 -0.018018 0.0
-0.043217 -0.020017 0.0
-0.039869 -0.021936 0.0
-0.036188 -0.023745 0.0
-0.032195 -0.025412 0.0
-0.027914 -0.026906 0.0
-0.023380 -0.028181 0.0
-0.018639 -0.029148 0.0
-0.013766 -0.029561 0.0
-0.008912 -0.028730 0.0
-0.004431 -0.024888 0.0
-0.001173 -0.013894 0.0
-0.000579 0.008402 0.0
-0.002272 0.016202 0.0
-0.004708 0.019303 0.0
-0.007419 0.020276 0.0
-0.010206 0.020459 0.0
-0.013000 0.020386 0.0
-0.015779 0.020222 0.0
-0.018533 0.020009 0.0
-0.021258 0.019753 0.0
-0.023949 0.019456 0.0
-0.026599 0.019116 0.0
-0.029204 0.018729 0.0
-0.031758 0.018295 0.0
-0.034256 0.017810 0.0
-0.036691 0.017272 0.0
-0.039056 0.016676 0.0
-0.041346 0.016019 0.0
-0.043552 0.015296 0.0
-0.045666 0.014503 0.0
-0.047680 0.013635 0.0
-0.049583 0.012688 0.0
-0.051366 0.011654 0.0
-0.053016 0.010530 0.0
-0.054522 0.009310 0.0
-0.055869 0.007988 0.0
-0.057043 0.006561 0.0
-0.058027 0.005024 0.0
-0.058805 0.003375 0.0
-0.059359 0.001613 0.0
-0.059670 -0.000263 0.0
-0.059718 -0.002249 0.0
-0.059483 -0.004342 0.0
-0.058946 -0.006533 0.0
-0.058087 -0.008811 0.0
-0.056888 -0.011162 0.0
-0.055333 -0.013567 0.0
-0.053410 -0.016005 0.0
-0.051107 -0.018449 0.0
-0.048420 -0.020871 0.0
-0.045349 -0.023237 0.0
-0.041900 -0.025513 0.0
-0.038084 -0.027663 0.0
-0.033923 -0.029649 0.0
-0.029444 -0.031430 0.0
-0.024683 -0.032952 0.0
-0.019691 -0.034109 0.0
-0.014550 -0.034613 0.0
-0.009424 -0.033658 0.0
-0.004688 -0.029177 0.0
-0.001242 -0.016309 0.0
-0.000584 0.009565 0.0
-0.002294 0.018442 0.0
-0.004761 0.021966 0.0
-0.007507 0.023070 0.0
-0.010333 0.023278 0.0
-0.013167 0.023195 0.0
-0.015987 0.023011 0.0
-0.018784 0.022771 0.0
-0.021552 0.022485 0.0
-0.024288 0.022151 0.0
-0.026985 0.021769 0.0
-0.029640 0.021336 0.0
-0.032246 0.020849 0.0
-0.034799 0.020307 0.0
-0.037293 0.019704 0.0
-0.039721 0.019038 0.0
-0.042078 0.018303 0.0
-0.044356 0.017495 0.0
-0.046547 0.016609 0.0
-0.048643 0.015639 0.0
-0.050634 0.014579 0.0
-0.052511 0.013422 0.0
-0.054261 0.012162 0.0
-0.055872 0.010794 0.0
-0.057330 0.009309 0.0
-0.058619 0.007703 0.0
-0.059723 0.005970 0.0
-0.060623 0.004108 0.0
-0.061300 0.002111 0.0
-0.061733 -0.000018 0.0
-0.061899 -0.002280 0.0
-0.061776 -0.004669 0.0
-0.061341 -0.007178 0.0
-0.060571 -0.009795 0.0
-0.059444 -0.012504 0.0
-0.057940 -0.015284 0.0
-0.056040 -0.018111 0.0
-0.053732 -0.020954 0.0
-0.051007 -0.023779 0.0
-0.047860 -0.026547 0.0
-0.044296 -0.029217 0.0
-0.040326 -0.031745 0.0
-0.035970 -0.034084 0.0
-0.031258 -0.036186 0.0
-0.026230 -0.037985 0.0
-0.020941 -0.039357 0.0
-0.015483 -0.039965 0.0
-0.010032 -0.038882 0.0
-0.004993 -0.033728 0.0
-0.001323 -0.018874 0.0
-0.000589 0.010738 0.0
-0.002319 0.020710 0.0
-0.004819 0.024666 0.0
-0.007607 0.025905 0.0
-0.010475 0.026138 0.0
-0.013354 0.026048 0.0
-0.016219 0.025844 0.0
-0.019063 0.025579 0.0
-0.021880 0.025262 0.0
-0.024665 0.024894 0.0
-0.027414 0.024472 0.0
-0.030123 0.023995 0.0
-0.032787 0.023460 0.0
-0.035401 0.022863 0.0
-0.037960 0.022200 0.0
-0.040457 0.021468 0.0
-0.042888 0.020660 0.0
-0.045246 0.019773 0.0
-0.047522 0.018799 0.0
-0.049710 0.017733 0.0
-0.051800 0.016567 0.0
-0.053782 0.015293 0.0
-0.055645 0.013904 0.0
-0.057375 0.012393 0.0
-0.058960 0.010751 0.0
-0.060381 0.008972 0.0
-0.061623 0.007047 0.0
-0.062664 0.004973 0.0
-0.063485 0.002744 0.0
-0.064061 0.000358 0.0
-0.064369 -0.002183 0.0
-0.064381 -0.004877 0.0
-0.064071 -0.007715 0.0
-0.063412 -0.010687 0.0
-0.062377 -0.013774 0.0
-0.060941 -0.016955 0.0
-0.059080 -0.020200 0.0
-0.056775 -0.023477 0.0
-0.054014 -0.026743 0.0
-0.050788 -0.029955 0.0
-0.047098 -0.033063 0.0
-0.042953 -0.036013 0.0
-0.038375 -0.038750 0.0
-0.033393 -0.041214 0.0
-0.028052 -0.043327 0.0
-0.022415 -0.044941 0.0
-0.016583 -0.045672 0.0
-0.010750 -0.044459 0.0
-0.005352 -0.038588 0.0
-0.001419 -0.021616 0.0
-0.000594 0.011921 0.0
-0.002346 0.023008 0.0
-0.004884 0.027406 0.0
-0.007716 0.028784 0.0
-0.010632 0.029045 0.0
-0.013559 0.028947 0.0
-0.016474 0.028725 0.0
-0.019369 0.028436 0.0
-0.022238 0.028091 0.0
-0.025078 0.027690 0.0
-0.027884 0.027232 0.0
-0.030652 0.026713 0.0
-0.033379 0.026132 0.0
-0.036059 0.025484 0.0
-0.038688 0.024766 0.0
-0.041261 0.023972 0.0
-0.043772 0.023098 0.0
-0.046217 0.022137 0.0
-0.048587 0.021082 0.0
-0.050876 0.019926 0.0
-0.053074 0.018662 0.0
-0.055173 0.017279 0.0
-0.057161 0.015769 0.0
-0.059025 0.014123 0.0
-0.060752 0.012331 0.0
-0.062323 0.010385 0.0
-0.063722 0.008274 0.0
-0.064927 0.005992 0.0
-0.065914 0.003533 0.0
-0.066659 0.000891 0.0
-0.067134 -0.001934 0.0
-0.067308 -0.004939 0.0
-0.067151 -0.008120 0.0
-0.066630 -0.011463 0.0
-0.065712 -0.014951 0.0
-0.064366 -0.018560 0.0
-0.062562 -0.022259 0.0
-0.060275 -0.026009 0.0
-0.057485 -0.029763 0.0
-0.054179 -0.033468 0.0
-0.050354 -0.037066 0.0
-0.046015 -0.040492 0.0
-0.041184 -0.043680 0.0
-0.035892 -0.046557 0.0
-0.030188 -0.049028 0.0
-0.024144 -0.050921 0.0
-0.017872 -0.051795 0.0
-0.011591 -0.050450 0.0
-0.005773 -0.043813 0.0
-0.001531 -0.024566 0.0
-0.000600 0.013115 0.0
-0.002375 0.025339 0.0
-0.004953 0.030191 0.0
-0.007834 0.031711 0.0
-0.010802 0.032001 0.0
-0.013782 0.031898 0.0
-0.016751 0.031658 0.0
-0.019700 0.031347 0.0
-0.022626 0.030975 0.0
-0.025524 0.030544 0.0
-0.028391 0.030051 0.0
-0.031223 0.029494 0.0
-0.034016 0.028871 0.0
-0.036767 0.028177 0.0
-0.039472 0.027407 0.0
-0.042125 0.026558 0.0
-0.044724 0.025623 0.0
-0.047262 0.024595 0.0
-0.049733 0.023466 0.0
-0.052131 0.022229 0.0
-0.054448 0.020874 0.0
-0.056675 0.019392 0.0
-0.058801 0.017770 0.0
-0.060813 0.015999 0.0
-0.062698 0.014067 0.0
-0.064438 0.011962 0.0
-0.066015 0.009673 0.0
-0.067406 0.007189 0.0
-0.068586 0.004503 0.0
-0.069528 0.001607 0.0
-0.070199 -0.001503 0.0
-0.070567 -0.004828 0.0
-0.070595 -0.008361 0.0
-0.070244 -0.012093 0.0
-0.069475 -0.016007 0.0
-0.068249 -0.020076 0.0
-0.066528 -0.024267 0.0
-0.064279 -0.028536 0.0
-0.061473 -0.032831 0.0
-0.058091 -0.037089 0.0
-0.054122 -0.041240 0.0
-0.049571 -0.045208 0.0
-0.044454 -0.048912 0.0
-0.038807 -0.052263 0.0
-0.032684 -0.055148 0.0
-0.026165 -0.057364 0.0
-0.019381 -0.058408 0.0
-0.012574 -0.056926 0.0
-0.006264 -0.049464 0.0
-0.001662 -0.027760 0.0
-0.000606 0.014322 0.0
-0.002406 0.027707 0.0
-0.005028 0.033024 0.0
-0.007961 0.034691 0.0
-0.010984 0.035012 0.0
-0.014021 0.034904 0.0
-0.017047 0.034648 0.0
-0.020056 0.034315 0.0
-0.023042 0.033919 0.0
-0.026002 0.033459 0.0
-0.028933 0.032934 0.0
-0.031832 0.032342 0.0
-0.034696 0.031680 0.0
-0.037522 0.030944 0.0
-0.040306 0.030129 0.0
-0.043045 0.029230 0.0
-0.045736 0.028240 0.0
-0.048373 0.027153 0.0
-0.050952 0.025959 0.0
-0.053468 0.024650 0.0
-0.055912 0.023215 0.0
-0.058277 0.021643 0.0
-0.060553 0.019921 0.0
-0.062729 0.018036 0.0
-0.064789 0.015975 0.0
-0.066717 0.013722 0.0
-0.068494 0.011265 0.0
-0.070096 0.008590 0.0
-0.071497 0.005684 0.0
-0.072666 0.002537 0.0
-0.073568 -0.000859 0.0
-0.074166 -0.004506 0.0
-0.074417 -0.008404 0.0
-0.074276 -0.012543 0.0
-0.073695 -0.016907 0.0
-0.072626 -0.021471 0.0
-0.071022 -0.026197 0.0
-0.068839 -0.031039 0.0
-0.066038 -0.035936 0.0
-0.062588 -0.040815 0.0
-0.058474 -0.045596 0.0
-0.053691 -0.050186 0.0
-0.048256 -0.054486 0.0
-0.042205 -0.058388 0.0
-0.035598 -0.061754 0.0
-0.028527 -0.064347 0.0
-0.021143 -0.065593 0.0
-0.013721 -0.063971 0.0
-0.006836 -0.055613 0.0
-0.001814 -0.031235 0.0
-0.000613 0.015541 0.0
-0.002439 0.030113 0.0
-0.005108 0.035908 0.0
-0.008096 0.037728 0.0
-0.011178 0.038081 0.0
-0.014275 0.037968 0.0
-0.017363 0.037698 0.0
-0.020434 0.037345 0.0
-0.023483 0.036925 0.0
-0.026509 0.036438 0.0
-0.029507 0.035884 0.0
-0.032477 0.035261 0.0
-0.035415 0.034564 0.0
-0.038319 0.033790 0.0
-0.041186 0.032934 0.0
-0.044014 0.031992 0.0
-0.046801 0.030955 0.0
-0.049543 0.029816 0.0
-0.052236 0.028567 0.0
-0.054875 0.027196 0.0
-0.057455 0.025693 0.0
-0.059969 0.024044 0.0
-0.062407 0.022234 0.0
-0.064759 0.020250 0.0
-0.067012 0.018073 0.0
-0.069148 0.015688 0.0
-0.071148 0.013076 0.0
-0.072988 0.010221 0.0
-0.074639 0.007105 0.0
-0.076070 0.003715 0.0
-0.077242 0.000037 0.0
-0.078112 -0.003935 0.0
-0.078631 -0.008205 0.0
-0.078747 -0.012767 0.0
-0.078403 -0.017608 0.0
-0.077539 -0.022702 0.0
-0.076096 -0.028012 0.0
-0.074017 -0.033486 0.0
-0.071250 -0.039057 0.0
-0.067751 -0.044641 0.0
-0.063494 -0.050143 0.0
-0.058465 -0.055450 0.0
-0.052677 -0.060444 0.0
-0.046166 -0.064991 0.0
-0.039001 -0.068924 0.0
-0.031288 -0.071961 0.0
-0.023202 -0.073449 0.0
-0.015058 -0.071681 0.0
-0.007501 -0.062345 0.0
-0.001989 -0.035038 0.0
-0.000620 0.016774 0.0
-0.002473 0.032560 0.0
-0.005192 0.038848 0.0
-0.008239 0.040824 0.0
-0.011384 0.041212 0.0
-0.014545 0.041096 0.0
-0.017697 0.040810 0.0
-0.020833 0.040439 0.0
-0.023949 0.039996 0.0
-0.027042 0.039486 0.0
-0.030111 0.038905 0.0
-0.033153 0.038252 0.0
-0.036167 0.037524 0.0
-0.039151 0.036717 0.0
-0.042104 0.035827 0.0
-0.045025 0.034848 0.0
-0.047911 0.033772 0.0
-0.050761 0.032591 0.0
-0.053572 0.031296 0.0
-0.056342 0.029876 0.0
-0.059065 0.028317 0.0
-0.061736 0.026605 0.0
-0.064347 0.024723 0.0
-0.066890 0.022655 0.0
-0.069351 0.020381 0.0
-0.071714 0.017880 0.0
-0.073961 0.015131 0.0
-0.076067 0.012112 0.0
-0.078003 0.008802 0.0
-0.079734 0.005180 0.0
-0.081218 0.001229 0.0
-0.082408 -0.003067 0.0
-0.083249 -0.007714 0.0
-0.083679 -0.012713 0.0
-0.083630 -0.018055 0.0
-0.083031 -0.023718 0.0
-0.081806 -0.029664 0.0
-0.079883 -0.035837 0.0
-0.077193 -0.042164 0.0
-0.073674 -0.048551 0.0
-0.069284 -0.054881 0.0
-0.063999 -0.061025 0.0
-0.057823 -0.066834 0.0
-0.050792 -0.072143 0.0
-0.042982 -0.076748 0.0
-0.034519 -0.080313 0.0
-0.025610 -0.082091 0.0
-0.016619 -0.080173 0.0
-0.008274 -0.069756 0.0
-0.002193 -0.039220 0.0
-0.000626 0.018020 0.0
-0.002509 0.035051 0.0
-0.005280 0.041846 0.0
-0.008390 0.043984 0.0
-0.011601 0.044407 0.0
-0.014829 0.044288 0.0
-0.018049 0.043989 0.0
-0.021252 0.043599 0.0
-0.024437 0.043136 0.0
-0.027601 0.042603 0.0
-0.030741 0.041997 0.0
-0.033858 0.041318 0.0
-0.036949 0.040563 0.0
-0.040015 0.039729 0.0
-0.043056 0.038809 0.0
-0.046070 0.037800 0.0
-0.049057 0.036693 0.0
-0.052018 0.035481 0.0
-0.054951 0.034151 0.0
-0.057855 0.032694 0.0
-0.060726 0.031094 0.0
-0.063562 0.029335 0.0
-0.066357 0.027399 0.0
-0.069102 0.025267 0.0
-0.071787 0.022915 0.0
-0.074398 0.020320 0.0
-0.076916 0.017456 0.0
-0.079317 0.014295 0.0
-0.081572 0.010810 0.0
-0.083644 0.006975 0.0
-0.085489 0.002763 0.0
-0.087054 -0.001846 0.0
-0.088278 -0.006870 0.0
-0.089089 -0.012316 0.0
-0.089408 -0.018182 0.0
-0.089147 -0.024451 0.0
-0.088215 -0.031087 0.0
-0.086518 -0.038035 0.0
-0.083963 -0.045213 0.0
-0.080469 -0.052515 0.0
-0.075970 -0.059807 0.0
-0.070425 -0.066930 0.0
-0.063826 -0.073704 0.0
-0.056208 -0.079922 0.0
-0.047654 -0.085332 0.0
-0.038314 -0.089532 0.0
-0.028434 -0.091661 0.0
-0.018444 -0.089584 0.0
-0.009172 -0.077962 0.0
-0.002427 -0.043840 0.0
-0.000633 0.019280 0.0
-0.002547 0.037588 0.0
-0.005372 0.044906 0.0
-0.008549 0.047211 0.0
-0.011829 0.047671 0.0
-0.015127 0.047550 0.0
-0.018417 0.047237 0.0
-0.021691 0.046829 0.0
-0.024946 0.046346 0.0
-0.028182 0.045791 0.0
-0.031395 0.045163 0.0
-0.034587 0.044461 0.0
-0.037757 0.043682 0.0
-0.040905 0.042824 0.0
-0.044033 0.041882 0.0
-0.047141 0.040850 0.0
-0.050231 0.039721 0.0
-0.053303 0.038486 0.0
-0.056359 0.037135 0.0
-0.059400 0.035654 0.0
-0.062424 0.034029 0.0
-0.065430 0.032242 0.0
-0.068415 0.030272 0.0
-0.071374 0.028098 0.0
-0.074298 0.025693 0.0
-0.077174 0.023029 0.0
-0.079987 0.020076 0.0
-0.082713 0.016801 0.0
-0.085323 0.013169 0.0
-0.087781 0.009145 0.0
-0.090039 0.004696 0.0
-0.092042 -0.000211 0.0
-0.093719 -0.005604 0.0
-0.094991 -0.011499 0.0
-0.095765 -0.017906 0.0
-0.095936 -0.024816 0.0
-0.095390 -0.032199 0.0
-0.094009 -0.040001 0.0
-0.091673 -0.048137 0.0
-0.088268 -0.056488 0.0
-0.083701 -0.064899 0.0
-0.077905 -0.073179 0.0
-0.070853 -0.081105 0.0
-0.062573 -0.088420 0.0
-0.053158 -0.094804 0.0
-0.042786 -0.099772 0.0
-0.031756 -0.102330 0.0
-0.020581 -0.100082 0.0
-0.010216 -0.087101 0.0
-0.002697 -0.048964 0.0
-0.000641 0.020554 0.0
-0.002586 0.040172 0.0
-0.005469 0.048031 0.0
-0.008715 0.050509 0.0
-0.012068 0.051007 0.0
-0.015439 0.050883 0.0
-0.018802 0.050556 0.0
-0.022148 0.050131 0.0
-0.025476 0.049628 0.0
-0.028784 0.049052 0.0
-0.032071 0.048403 0.0
-0.035338 0.047680 0.0
-0.038586 0.046881 0.0
-0.041816 0.046004 0.0
-0.045030 0.045044 0.0
-0.048231 0.043996 0.0
-0.051421 0.042854 0.0
-0.054604 0.041608 0.0
-0.057783 0.040248 0.0
-0.060961 0.038759 0.0
-0.064139 0.037126 0.0
-0.067319 0.035331 0.0
-0.070501 0.033350 0.0
-0.073681 0.031159 0.0
-0.076856 0.028730 0.0
-0.080014 0.026028 0.0
-0.083144 0.023020 0.0
-0.086224 0.019664 0.0
-0.089227 0.015920 0.0
-0.092117 0.011742 0.0
-0.094846 0.007086 0.0
-0.097353 0.001908 0.0
-0.099565 -0.003834 0.0
-0.101391 -0.010171 0.0
-0.102724 -0.017128 0.0
-0.103440 -0.024707 0.0
-0.103401 -0.032892 0.0
-0.102456 -0.041634 0.0
-0.100450 -0.050847 0.0
-0.097231 -0.060402 0.0
-0.092663 -0.070120 0.0
-0.086642 -0.079775 0.0
-0.079114 -0.089090 0.0
-0.070092 -0.097738 0.0
-0.059677 -0.105316 0.0
-0.048083 -0.111226 0.0
-0.035681 -0.114308 0.0
-0.023090 -0.111870 0.0
-0.011430 -0.097337 0.0
-0.003008 -0.054669 0.0
-0.000648 0.021843 0.0
-0.002627 0.042807 0.0
-0.005571 0.051224 0.0
-0.008890 0.053881 0.0
-0.012319 0.054417 0.0
-0.015766 0.054290 0.0
-0.019204 0.053949 0.0
-0.022625 0.053505 0.0
-0.026026 0.052983 0.0
-0.029407 0.052386 0.0
-0.032768 0.051717 0.0
-0.036109 0.050974 0.0
-0.039433 0.050158 0.0
-0.042742 0.049265 0.0
-0.046040 0.048294 0.0
-0.049330 0.047238 0.0
-0.052619 0.046091 0.0
-0.055909 0.044845 0.0
-0.059208 0.043489 0.0
-0.062521 0.042008 0.0
-0.065852 0.040387 0.0
-0.069206 0.038605 0.0
-0.072587 0.036638 0.0
-0.075995 0.034460 0.0
-0.079429 0.032037 0.0
-0.082884 0.029334 0.0
-0.086351 0.026309 0.0
-0.089812 0.022916 0.0
-0.093245 0.019104 0.0
-0.096614 0.014817 0.0
-0.099873 0.009999 0.0
-0.102961 0.004590 0.0
-0.105798 -0.001467 0.0
-0.108285 -0.008225 0.0
-0.110300 -0.015726 0.0
-0.111700 -0.023993 0.0
-0.112317 -0.033029 0.0
-0.111964 -0.042796 0.0
-0.110440 -0.053216 0.0
-0.107542 -0.064151 0.0
-0.103078 -0.075403 0.0
-0.096889 -0.086701 0.0
-0.088877 -0.097704 0.0
-0.079028 -0.107995 0.0
-0.067449 -0.117054 0.0
-0.054399 -0.124132 0.0
-0.040341 -0.127862 0.0
-0.026044 -0.125204 0.0
-0.012839 -0.108867 0.0
-0.003362 -0.061039 0.0
-0.000656 0.023147 0.0
-0.002669 0.045495 0.0
-0.005678 0.054489 0.0
-0.009074 0.057330 0.0
-0.012583 0.057906 0.0
-0.016109 0.057775 0.0
-0.019624 0.057418 0.0
-0.023121 0.056954 0.0
-0.026596 0.056411 0.0
-0.030050 0.055793 0.0
-0.033483 0.055104 0.0
-0.036897 0.054343 0.0
-0.040295 0.053511 0.0
-0.043680 0.052607 0.0
-0.047057 0.051628 0.0
-0.050433 0.050570 0.0
-0.053813 0.049428 0.0
-0.057207 0.048193 0.0
-0.060620 0.046854 0.0
-0.064063 0.045398 0.0
-0.067542 0.043808 0.0
-0.071068 0.042063 0.0
-0.074645 0.040138 0.0
-0.078282 0.038004 0.0
-0.081981 0.035626 0.0
-0.085742 0.032963 0.0
-0.089562 0.029967 0.0
-0.093430 0.026587 0.0
-0.097326 0.022762 0.0
-0.101222 0.018424 0.0
-0.105073 0.013503 0.0
-0.108820 0.007921 0.0
-0.112381 0.001600 0.0
-0.115650 -0.005536 0.0
-0.118493 -0.013556 0.0
-0.120743 -0.022512 0.0
-0.122204 -0.032433 0.0
-0.122643 -0.043306 0.0
-0.121805 -0.055067 0.0
-0.119419 -0.067584 0.0
-0.115217 -0.080636 0.0
-0.108963 -0.093910 0.0
-0.100487 -0.106983 0.0
-0.089730 -0.119321 0.0
-0.076792 -0.130244 0.0
-0.061988 -0.138796 0.0
-0.045910 -0.143333 0.0
-0.029533 -0.140407 0.0
-0.014471 -0.121931 0.0
-0.003762 -0.068162 0.0
-0.000664 0.024466 0.0
-0.002715 0.048240 0.0
-0.005792 0.057830 0.0
-0.009268 0.060861 0.0
-0.012860 0.061476 0.0
-0.016469 0.061339 0.0
-0.020064 0.060964 0.0
-0.023638 0.060479 0.0
-0.027188 0.059913 0.0
-0.030715 0.059272 0.0
-0.034218 0.058561 0.0
-0.037702 0.057782 0.0
-0.041169 0.056936 0.0
-0.044625 0.056022 0.0
-0.048076 0.055040 0.0
-0.051530 0.053987 0.0
-0.054996 0.052857 0.0
-0.058483 0.051644 0.0
-0.062003 0.050336 0.0
-0.065567 0.048922 0.0
-0.069187 0.047384 0.0
-0.072876 0.045701 0.0
-0.076646 0.043848 0.0
-0.080507 0.041793 0.0
-0.084471 0.039499 0.0
-0.088543 0.036923 0.0
-0.092726 0.034011 0.0
-0.097018 0.030704 0.0
-0.101408 0.026931 0.0
-0.105873 0.022615 0.0
-0.110377 0.017667 0.0
-0.114864 0.011990 0.0
-0.119255 0.005482 0.0
-0.123441 -0.001963 0.0
-0.127277 -0.010450 0.0
-0.130577 -0.020067 0.0
-0.133111 -0.030884 0.0
-0.134599 -0.042927 0.0
-0.134718 -0.056164 0.0
-0.133112 -0.070479 0.0
-0.129410 -0.085645 0.0
-0.123264 -0.101302 0.0
-0.114394 -0.116936 0.0
-0.102661 -0.131859 0.0
-0.088137 -0.145168 0.0
-0.071201 -0.155612 0.0
-0.052621 -0.161174 0.0
-0.033669 -0.157896 0.0
-0.016351 -0.136821 0.0
-0.004204 -0.076128 0.0
-0.000673 0.025803 0.0
-0.002763 0.051044 0.0
-0.005912 0.061252 0.0
-0.009475 0.064478 0.0
-0.013155 0.065131 0.0
-0.016849 0.064986 0.0
-0.020526 0.064590 0.0
-0.024179 0.064080 0.0
-0.027804 0.063487 0.0
-0.031401 0.062822 0.0
-0.034973 0.062088 0.0
-0.038523 0.061289 0.0
-0.042055 0.060428 0.0
-0.045575 0.059507 0.0
-0.049093 0.058525 0.0
-0.052616 0.057480 0.0
-0.056157 0.056370 0.0
-0.059727 0.055189 0.0
-0.063342 0.053926 0.0
-0.067015 0.052570 0.0
-0.070763 0.051105 0.0
-0.074604 0.049510 0.0
-0.078554 0.047759 0.0
-0.082631 0.045821 0.0
-0.086851 0.043656 0.0
-0.091231 0.041218 0.0
-0.095781 0.038450 0.0
-0.100509 0.035285 0.0
-0.105414 0.031645 0.0
-0.110486 0.027438 0.0
-0.115698 0.022560 0.0
-0.121005 0.016892 0.0
-0.126335 0.010302 0.0
-0.131581 0.002649 0.0
-0.136595 -0.006212 0.0
-0.141177 -0.016423 0.0
-0.145063 -0.028108 0.0
-0.147924 -0.041354 0.0
-0.149358 -0.056184 0.0
-0.148902 -0.072521 0.0
-0.146051 -0.090156 0.0
-0.140295 -0.108693 0.0
-0.131191 -0.127519 0.0
-0.118455 -0.145747 0.0
-0.102090 -0.162169 0.0
-0.082535 -0.175104 0.0
-0.060801 -0.181995 0.0
-0.038594 -0.178234 0.0
-0.018495 -0.153900 0.0
-0.004679 -0.085012 0.0
-0.000682 0.027158 0.0
-0.002816 0.053913 0.0
-0.006042 0.064760 0.0
-0.009696 0.068186 0.0
-0.013469 0.068876 0.0
-0.017252 0.068719 0.0
-0.021015 0.068297 0.0
-0.024747 0.067757 0.0
-0.028447 0.067135 0.0
-0.032114 0.066440 0.0
-0.035751 0.065679 0.0
-0.039362 0.064858 0.0
-0.042952 0.063981 0.0
-0.046529 0.063051 0.0
-0.050102 0.062071 0.0
-0.053684 0.061040 0.0
-0.057288 0.059956 0.0
-0.060928 0.058814 0.0
-0.064622 0.057608 0.0
-0.068388 0.056327 0.0
-0.072247 0.054955 0.0
-0.076222 0.053474 0.0
-0.080335 0.051858 0.0
-0.084610 0.050075 0.0
-0.089074 0.048086 0.0
-0.093749 0.045843 0.0
-0.098659 0.043285 0.0
-0.103823 0.040341 0.0
-0.109255 0.036925 0.0
-0.114958 0.032933 0.0
-0.120924 0.028243 0.0
-0.127122 0.022714 0.0
-0.133497 0.016184 0.0
-0.139954 0.008470 0.0
-0.146349 -0.000623 0.0
-0.152474 -0.011305 0.0
-0.158042 -0.023772 0.0
-0.162674 -0.038198 0.0
-0.165886 -0.054694 0.0
-0.167088 -0.073265 0.0
-0.165599 -0.093753 0.0
-0.160688 -0.115762 0.0
-0.151661 -0.138581 0.0
-0.137993 -0.161089 0.0
-0.119530 -0.181654 0.0
-0.096737 -0.197967 0.0
-0.070944 -0.206659 0.0
-0.044512 -0.202209 0.0
-0.020905 -0.173631 0.0
-0.005156 -0.094846 0.0
-0.000693 0.028533 0.0
-0.002873 0.056851 0.0
-0.006184 0.068360 0.0
-0.009935 0.071991 0.0
-0.013806 0.072715 0.0
-0.017684 0.072541 0.0
-0.021534 0.072088 0.0
-0.025348 0.071512 0.0
-0.029122 0.070853 0.0
-0.032857 0.070123 0.0
-0.036555 0.069330 0.0
-0.040221 0.068483 0.0
-0.043861 0.067587 0.0
-0.047485 0.066647 0.0
-0.051104 0.065668 0.0
-0.054731 0.064651 0.0
-0.058382 0.063598 0.0
-0.062075 0.062505 0.0
-0.065829 0.061366 0.0
-0.069668 0.060174 0.0
-0.073616 0.058916 0.0
-0.077701 0.057573 0.0
-0.081953 0.056123 0.0
-0.086402 0.054535 0.0
-0.091084 0.052771 0.0
-0.096032 0.050781 0.0
-0.101282 0.048507 0.0
-0.106869 0.045871 0.0
-0.112823 0.042781 0.0
-0.119168 0.039125 0.0
-0.125916 0.034765 0.0
-0.133064 0.029538 0.0
-0.140578 0.023249 0.0
-0.148389 0.015673 0.0
-0.156370 0.006551 0.0