# vtk DataFile Version 3.0
Scalar Field
ASCII
DATASET RECTILINEAR_GRID
DIMENSIONS 50 50 1
X_COORDINATES 50 double
0.100000 0.300000 0.500000 0.700000 0.900000 1.100000 1.300000 1.500000 1.700000 1.900000 2.100000 2.300000 2.500000 2.700000 2.900000 3.100000 3.300000 3.500000 3.700000 3.900000 4.100000 4.300000 4.500000 4.700000 4.900000 5.100000 5.300000 5.500000 5.700000 5.900000 6.100000 6.300000 6.500000 6.700000 6.900000 7.100000 7.300000 7.500000 7.700000 7.900000 8.100000 8.300000 8.500000 8.700000 8.900000 9.100000 9.300000 9.500000 9.700000 9.900000 
Y_COORDINATES 50 double
0.100000 0.300000 0.500000 0.700000 0.900000 1.100000 1.300000 1.500000 1.700000 1.900000 2.100000 2.300000 2.500000 2.700000 2.900000 3.100000 3.300000 3.500000 3.700000 3.900000 4.100000 4.300000 4.500000 4.700000 4.900000 5.100000 5.300000 5.500000 5.700000 5.900000 6.100000 6.300000 6.500000 6.700000 6.900000 7.100000 7.300000 7.500000 7.700000 7.900000 8.100000 8.300000 8.500000 8.700000 8.900000 9.100000 9.300000 9.500000 9.700000 9.900000 
Z_COORDINATES 1 double
0.0
POINT_DATA 2500
SCALARS Skalarfeld double 1
LOOKUP_TABLE default
-0.011884
-0.011939
-0.012067
-0.012236
-0.012418
-0.012590
-0.012737
-0.012848
-0.012916
-0.012937
-0.012908
-0.012828
-0.012697
-0.012515
-0.012283
-0.012003
-0.011676
-0.011304
-0.010889
-0.010434
-0.009942
-0.009417
-0.008862
-0.008283
-0.007684
-0.007072
-0.006453
-0.005836
-0.005227
-0.004636
-0.004070
-0.003538
-0.003049
-0.002609
-0.002226
-0.001907
-0.001654
-0.001472
-0.001360
-0.001319
-0.001345
-0.001431
-0.001570
-0.001751
-0.001960
-0.002180
-0.002392
-0.002570
-0.002690
-0.002729
-0.011830
-0.011885
-0.011991
-0.012128
-0.012273
-0.012411
-0.012527
-0.012613
-0.012661
-0.012668
-0.012630
-0.012546
-0.012415
-0.012237
-0.012013
-0.011744
-0.011431
-0.011076
-0.010682
-0.010249
-0.009783
-0.009285
-0.008760
-0.008212
-0.007647
-0.007069
-0.006487
-0.005905
-0.005333
-0.004778
-0.004246
-0.003747
-0.003287
-0.002874
-0.002513
-0.002210
-0.001968
-0.001791
-0.001678
-0.001628
-0.001637
-0.001701
-0.001812
-0.001958
-0.002129
-0.002309
-0.002481
-0.002628
-0.002729
-0.002767
-0.011701
-0.011778
-0.011886
-0.012010
-0.012137
-0.012253
-0.012349
-0.012416
-0.012449
-0.012445
-0.012399
-0.012312
-0.012181
-0.012006
-0.011789
-0.011530
-0.011230
-0.010890
-0.010513
-0.010101
-0.009656
-0.009182
-0.008682
-0.008161
-0.007623
-0.007074
-0.006520
-0.005968
-0.005425
-0.004898
-0.004393
-0.003919
-0.003482
-0.003089
-0.002745
-0.002455
-0.002222
-0.002048
-0.001934
-0.001879
-0.001878
-0.001926
-0.002018
-0.002142
-0.002288
-0.002445
-0.002597
-0.002731
-0.002832
-0.002886
-0.011529
-0.011641
-0.011765
-0.011891
-0.012011
-0.012117
-0.012200
-0.012255
-0.012278
-0.012265
-0.012215
-0.012124
-0.011994
-0.011823
-0.011612
-0.011361
-0.011072
-0.010746
-0.010384
-0.009988
-0.009562
-0.009107
-0.008628
-0.008129
-0.007613
-0.007087
-0.006556
-0.006027
-0.005506
-0.004999
-0.004515
-0.004060
-0.003639
-0.003261
-0.002929
-0.002648
-0.002422
-0.002251
-0.002138
-0.002079
-0.002072
-0.002112
-0.002193
-0.002305
-0.002439
-0.002585
-0.002731
-0.002867
-0.002981
-0.003064
-0.011340
-0.011494
-0.011642
-0.011779
-0.011902
-0.012005
-0.012082
-0.012131
-0.012147
-0.012129
-0.012075
-0.011984
-0.011854
-0.011686
-0.011481
-0.011238
-0.010958
-0.010643
-0.010294
-0.009913
-0.009502
-0.009063
-0.008601
-0.008119
-0.007621
-0.007112
-0.006598
-0.006085
-0.005579
-0.005088
-0.004617
-0.004174
-0.003765
-0.003395
-0.003071
-0.002797
-0.002575
-0.002407
-0.002295
-0.002235
-0.002227
-0.002263
-0.002340
-0.002448
-0.002580
-0.002726
-0.002877
-0.003024
-0.003160
-0.003278
-0.011156
-0.011353
-0.011529
-0.011684
-0.011815
-0.011921
-0.011998
-0.012045
-0.012058
-0.012038
-0.011982
-0.011890
-0.011762
-0.011598
-0.011398
-0.011161
-0.010890
-0.010585
-0.010246
-0.009877
-0.009478
-0.009052
-0.008603
-0.008133
-0.007647
-0.007150
-0.006648
-0.006145
-0.005649
-0.005166
-0.004703
-0.004267
-0.003863
-0.003499
-0.003178
-0.002907
-0.002687
-0.002522
-0.002410
-0.002352
-0.002344
-0.002382
-0.002461
-0.002572
-0.002710
-0.002864
-0.003028
-0.003194
-0.003356
-0.003512
-0.010995
-0.011233
-0.011439
-0.011614
-0.011758
-0.011871
-0.011952
-0.011999
-0.012013
-0.011992
-0.011937
-0.011846
-0.011720
-0.011559
-0.011364
-0.011134
-0.010869
-0.010572
-0.010242
-0.009882
-0.009492
-0.009076
-0.008636
-0.008175
-0.007697
-0.007207
-0.006710
-0.006213
-0.005721
-0.005241
-0.004780
-0.004344
-0.003941
-0.003576
-0.003256
-0.002984
-0.002764
-0.002599
-0.002489
-0.002433
-0.002429
-0.002472
-0.002557
-0.002677
-0.002826
-0.002995
-0.003178
-0.003368
-0.003560
-0.003752
-0.010868
-0.011146
-0.011382
-0.011579
-0.011738
-0.011861
-0.011948
-0.011999
-0.012015
-0.011996
-0.011942
-0.011853
-0.011730
-0.011573
-0.011382
-0.011157
-0.010899
-0.010608
-0.010285
-0.009932
-0.009549
-0.009139
-0.008704
-0.008248
-0.007774
-0.007286
-0.006790
-0.006292
-0.005798
-0.005316
-0.004851
-0.004411
-0.004003
-0.003633
-0.003308
-0.003033
-0.002811
-0.002644
-0.002535
-0.002482
-0.002483
-0.002534
-0.002629
-0.002763
-0.002928
-0.003117
-0.003324
-0.003541
-0.003765
-0.003993
-0.010786
-0.011101
-0.011366
-0.011586
-0.011762
-0.011896
-0.011991
-0.012048
-0.012068
-0.012052
-0.012001
-0.011916
-0.011796
-0.011643
-0.011456
-0.011236
-0.010982
-0.010697
-0.010379
-0.010030
-0.009652
-0.009245
-0.008813
-0.008357
-0.007883
-0.007393
-0.006892
-0.006389
-0.005888
-0.005397
-0.004923
-0.004473
-0.004054
-0.003675
-0.003341
-0.003058
-0.002830
-0.002661
-0.002551
-0.002501
-0.002508
-0.002568
-0.002677
-0.002828
-0.003014
-0.003228
-0.003462
-0.003710
-0.003967
-0.004230
-0.010757
-0.011107
-0.011401
-0.011643
-0.011836
-0.011983
-0.012088
-0.012152
-0.012177
-0.012166
-0.012118
-0.012037
-0.011921
-0.011771
-0.011588
-0.011372
-0.011123
-0.010842
-0.010528
-0.010182
-0.009805
-0.009399
-0.008966
-0.008508
-0.008029
-0.007532
-0.007023
-0.006509
-0.005995
-0.005490
-0.005001
-0.004535
-0.004101
-0.003707
-0.003359
-0.003064
-0.002827
-0.002651
-0.002539
-0.002491
-0.002505
-0.002577
-0.002702
-0.002873
-0.003083
-0.003325
-0.003590
-0.003871
-0.004163
-0.004462
-0.010788
-0.011171
-0.011492
-0.011756
-0.011967
-0.012128
-0.012243
-0.012315
-0.012347
-0.012340
-0.012298
-0.012220
-0.012108
-0.011963
-0.011784
-0.011572
-0.011327
-0.011048
-0.010736
-0.010392
-0.010015
-0.009607
-0.009171
-0.008707
-0.008219
-0.007712
-0.007189
-0.006659
-0.006128
-0.005603
-0.005093
-0.004605
-0.004150
-0.003734
-0.003367
-0.003055
-0.002804
-0.002619
-0.002503
-0.002456
-0.002476
-0.002560
-0.002702
-0.002897
-0.003135
-0.003408
-0.003708
-0.004026
-0.004355
-0.004690
-0.010884
-0.011299
-0.011647
-0.011933
-0.012161
-0.012336
-0.012462
-0.012542
-0.012581
-0.012581
-0.012544
-0.012471
-0.012364
-0.012223
-0.012049
-0.011840
-0.011598
-0.011322
-0.011011
-0.010666
-0.010288
-0.009876
-0.009433
-0.008961
-0.008462
-0.007940
-0.007399
-0.006849
-0.006294
-0.005744
-0.005207
-0.004691
-0.004207
-0.003764
-0.003371
-0.003037
-0.002767
-0.002569
-0.002444
-0.002396
-0.002421
-0.002517
-0.002679
-0.002899
-0.003168
-0.003476
-0.003814
-0.004172
-0.004542
-0.004916
-0.011051
-0.011498
-0.011872
-0.012179
-0.012424
-0.012613
-0.012750
-0.012840
-0.012887
-0.012894
-0.012863
-0.012795
-0.012693
-0.012557
-0.012387
-0.012182
-0.011943
-0.011668
-0.011358
-0.011012
-0.010631
-0.010214
-0.009763
-0.009279
-0.008766
-0.008226
-0.007664
-0.007088
-0.006505
-0.005923
-0.005353
-0.004802
-0.004283
-0.003806
-0.003380
-0.003016
-0.002721
-0.002504
-0.002367
-0.002313
-0.002342
-0.002450
-0.002631
-0.002878
-0.003181
-0.003528
-0.003909
-0.004312
-0.004727
-0.005144
-0.011295
-0.011772
-0.012172
-0.012500
-0.012763
-0.012966
-0.013115
-0.013214
-0.013269
-0.013283
-0.013259
-0.013198
-0.013101
-0.012970
-0.012805
-0.012604
-0.012368
-0.012095
-0.011786
-0.011439
-0.011053
-0.010630
-0.010170
-0.009673
-0.009143
-0.008582
-0.007995
-0.007389
-0.006772
-0.006153
-0.005543
-0.004951
-0.004388
-0.003868
-0.003402
-0.003000
-0.002673
-0.002429
-0.002274
-0.002210
-0.002239
-0.002357
-0.002559
-0.002834
-0.003174
-0.003564
-0.003993
-0.004446
-0.004911
-0.005378
-0.011621
-0.012128
-0.012553
-0.012902
-0.013182
-0.013399
-0.013560
-0.013670
-0.013734
-0.013756
-0.013739
-0.013684
-0.013594
-0.013469
-0.013309
-0.013113
-0.012881
-0.012611
-0.012302
-0.011954
-0.011565
-0.011135
-0.010664
-0.010154
-0.009605
-0.009021
-0.008406
-0.007766
-0.007111
-0.006450
-0.005792
-0.005150
-0.004537
-0.003965
-0.003448
-0.002999
-0.002630
-0.002351
-0.002170
-0.002091
-0.002115
-0.002241
-0.002461
-0.002766
-0.003145
-0.003583
-0.004065
-0.004575
-0.005098
-0.005620
-0.012033
-0.012570
-0.013020
-0.013390
-0.013687
-0.013919
-0.014092
-0.014213
-0.014286
-0.014317
-0.014308
-0.014262
-0.014179
-0.014061
-0.013908
-0.013718
-0.013490
-0.013224
-0.012918
-0.012569
-0.012177
-0.011741
-0.011261
-0.010736
-0.010169
-0.009560
-0.008915
-0.008238
-0.007540
-0.006830
-0.006119
-0.005420
-0.004746
-0.004112
-0.003534
-0.003026
-0.002604
-0.002279
-0.002062
-0.001959
-0.001972
-0.002100
-0.002337
-0.002672
-0.003093
-0.003583
-0.004124
-0.004698
-0.005287
-0.005876
-0.012537
-0.013104
-0.013579
-0.013970
-0.014285
-0.014531
-0.014717
-0.014849
-0.014933
-0.014973
-0.014973
-0.014936
-0.014863
-0.014753
-0.014608
-0.014426
-0.014205
-0.013945
-0.013642
-0.013295
-0.012903
-0.012462
-0.011974
-0.011436
-0.010850
-0.010217
-0.009541
-0.008824
-0.008080
-0.007317
-0.006546
-0.005780
-0.005036
-0.004329
-0.003677
-0.003098
-0.002609
-0.002225
-0.001959
-0.001820
-0.001813
-0.001937
-0.002187
-0.002551
-0.003015
-0.003561
-0.004168
-0.004815
-0.005481
-0.006147
-0.013138
-0.013734
-0.014235
-0.014648
-0.014980
-0.015242
-0.015441
-0.015585
-0.015680
-0.015731
-0.015741
-0.015715
-0.015652
-0.015553
-0.015418
-0.015246
-0.015035
-0.014783
-0.014487
-0.014145
-0.013755
-0.013313
-0.012819
-0.012271
-0.011668
-0.011013
-0.010307
-0.009550
-0.008756
-0.007935
-0.007098
-0.006259
-0.005434
-0.004642
-0.003902
-0.003236
-0.002663
-0.002204
-0.001873
-0.001684
-0.001644
-0.001754
-0.002010
-0.002401
-0.002910
-0.003516
-0.004196
-0.004926
-0.005680
-0.006436
-0.013841
-0.014467
-0.014994
-0.015428
-0.015779
-0.016056
-0.016269
-0.016426
-0.016533
-0.016596
-0.016618
-0.016604
-0.016554
-0.016468
-0.016347
-0.016188
-0.015990
-0.015750
-0.015465
-0.015132
-0.014748
-0.014310
-0.013815
-0.013260
-0.012645
-0.011970
-0.011236
-0.010440
-0.009597
-0.008716
-0.007808
-0.006887
-0.005971
-0.005081
-0.004238
-0.003466
-0.002791
-0.002236
-0.001820
-0.001562
-0.001473
-0.001556
-0.001809
-0.002220
-0.002773
-0.003443
-0.004204
-0.005026
-0.005882
-0.006744
-0.014650
-0.015308
-0.015861
-0.016317
-0.016687
-0.016981
-0.017208
-0.017378
-0.017498
-0.017575
-0.017611
-0.017611
-0.017576
-0.017507
-0.017402
-0.017260
-0.017080
-0.016856
-0.016588
-0.016270
-0.015898
-0.015469
-0.014979
-0.014425
-0.013804
-0.013114
-0.012356
-0.011527
-0.010635
-0.009693
-0.008710
-0.007701
-0.006684
-0.005682
-0.004719
-0.003822
-0.003022
-0.002346
-0.001822
-0.001471
-0.001311
-0.001348
-0.001584
-0.002007
-0.002601
-0.003337
-0.004185
-0.005112
-0.006084
-0.007070
-0.015572
-0.016262
-0.016842
-0.017321
-0.017710
-0.018021
-0.018263
-0.018448
-0.018583
-0.018674
-0.018727
-0.018744
-0.018727
-0.018676
-0.018592
-0.018472
-0.018314
-0.018113
-0.017867
-0.017571
-0.017220
-0.016808
-0.016332
-0.015786
-0.015167
-0.014471
-0.013696
-0.012842
-0.011906
-0.010904
-0.009845
-0.008743
-0.007616
-0.006488
-0.005387
-0.004344
-0.003393
-0.002569
-0.001906
-0.001433
-0.001173
-0.001141
-0.001340
-0.001762
-0.002389
-0.003192
-0.004134
-0.005177
-0.006281
-0.007410
-0.016613
-0.017335
-0.017943
-0.018445
-0.018854
-0.019182
-0.019441
-0.019642
-0.019792
-0.019900
-0.019970
-0.020007
-0.020011
-0.019984
-0.019925
-0.019832
-0.019701
-0.019531
-0.019315
-0.019049
-0.018727
-0.018343
-0.017892
-0.017366
-0.016759
-0.016068
-0.015288
-0.014418
-0.013445
-0.012389
-0.011256
-0.010058
-0.008815
-0.007550
-0.006292
-0.005079
-0.003948
-0.002943
-0.002106
-0.001474
-0.001080
-0.000946
-0.001083
-0.001485
-0.002134
-0.002999
-0.004040
-0.005211
-0.006465
-0.007759
-0.017776
-0.018533
-0.019169
-0.019695
-0.020125
-0.020472
-0.020748
-0.020965
-0.021132
-0.021258
-0.021348
-0.021407
-0.021435
-0.021436
-0.021406
-0.021346
-0.021251
-0.021117
-0.020940
-0.020715
-0.020433
-0.020089
-0.019675
-0.019182
-0.018603
-0.017932
-0.017160
-0.016285
-0.015290
-0.014190
-0.012988
-0.011697
-0.010333
-0.008919
-0.007489
-0.006081
-0.004740
-0.003517
-0.002464
-0.001630
-0.001059
-0.000783
-0.000822
-0.001176
-0.001830
-0.002750
-0.003892
-0.005200
-0.006622
-0.008105
-0.019069
-0.019861
-0.020527
-0.021079
-0.021530
-0.021896
-0.022189
-0.022423
-0.022609
-0.022754
-0.022866
-0.022948
-0.023005
-0.023036
-0.023042
-0.023019
-0.022967
-0.022879
-0.022751
-0.022576
-0.022348
-0.022057
-0.021695
-0.021252
-0.020718
-0.020083
-0.019338
-0.018474
-0.017478
-0.016346
-0.015088
-0.013709
-0.012223
-0.010655
-0.009036
-0.007409
-0.005826
-0.004345
-0.003030
-0.001942
-0.001141
-0.000673
-0.000569
-0.000839
-0.001472
-0.002434
-0.003673
-0.005129
-0.006736
-0.008434
-0.020497
-0.021326
-0.022023
-0.022601
-0.023074
-0.023459
-0.023771
-0.024023
-0.024226
-0.024392
-0.024527
-0.024636
-0.024723
-0.024789
-0.024834
-0.024856
-0.024853
-0.024819
-0.024751
-0.024639
-0.024477
-0.024255
-0.023963
-0.023588
-0.023118
-0.022541
-0.021844
-0.021013
-0.020037
-0.018895
-0.017595
-0.016140
-0.014539
-0.012813
-0.010995
-0.009128
-0.007269
-0.005488
-0.003858
-0.002460
-0.001367
-0.000645
-0.000341
-0.000479
-0.001054
-0.002035
-0.003366
-0.004975
-0.006785
-0.008725
-0.022066
-0.022934
-0.023664
-0.024269
-0.024766
-0.025170
-0.025499
-0.025768
-0.025990
-0.026176
-0.026334
-0.026471
-0.026590
-0.026694
-0.026782
-0.026855
-0.026908
-0.026938
-0.026938
-0.026903
-0.026822
-0.026685
-0.026480
-0.026194
-0.025812
-0.025317
-0.024692
-0.023920
-0.022988
-0.021862
-0.020545
-0.019032
-0.017327
-0.015447
-0.013422
-0.011297
-0.009133
-0.007008
-0.005010
-0.003235
-0.001779
-0.000729
-0.000156
-0.000099
-0.000569
-0.001537
-0.002943
-0.004707
-0.006737
-0.008948
-0.023783
-0.024693
-0.025458
-0.026092
-0.026611
-0.027034
-0.027380
-0.027664
-0.027903
-0.028108
-0.028289
-0.028453
-0.028606
-0.028749
-0.028885
-0.029012
-0.029128
-0.029229
-0.029309
-0.029361
-0.029375
-0.029340
-0.029243
-0.029067
-0.028796
-0.028409
-0.027885
-0.027201
-0.026338
-0.025262
-0.023957
-0.022411
-0.020622
-0.018599
-0.016368
-0.013972
-0.011477
-0.008967
-0.006544
-0.004323
-0.002424
-0.000962
-0.000035
0.000292
-0.000008
-0.000918
-0.002376
-0.004290
-0.006554
-0.009064
-0.025655
-0.026611
-0.027414
-0.028077
-0.028619
-0.029059
-0.029419
-0.029717
-0.029969
-0.030190
-0.030391
-0.030581
-0.030766
-0.030949
-0.031134
-0.031318
-0.031502
-0.031680
-0.031849
-0.031999
-0.032122
-0.032206
-0.032235
-0.032193
-0.032057
-0.031806
-0.031412
-0.030848
-0.030086
-0.029095
-0.027836
-0.026289
-0.024442
-0.022294
-0.019865
-0.017196
-0.014349
-0.011417
-0.008514
-0.005775
-0.003347
-0.001378
0.000002
0.000693
0.000642
-0.000149
-0.001622
-0.003675
-0.006182
-0.009020
-0.027690
-0.028698
-0.029541
-0.030235
-0.030798
-0.031254
-0.031624
-0.031930
-0.032191
-0.032423
-0.032639
-0.032850
-0.033064
-0.033285
-0.033517
-0.033760
-0.034013
-0.034275
-0.034538
-0.034797
-0.035041
-0.035258
-0.035432
-0.035543
-0.035568
-0.035479
-0.035246
-0.034836
-0.034211
-0.033338
-0.032163
-0.030652
-0.028780
-0.026535
-0.023926
-0.020986
-0.017778
-0.014394
-0.010961
-0.007634
-0.004588
-0.002007
-0.000063
0.001102
0.001398
0.000804
-0.000632
-0.002800
-0.005555
-0.008750
-0.029898
-0.030963
-0.031852
-0.032577
-0.033160
-0.033627
-0.034001
-0.034308
-0.034569
-0.034803
-0.035027
-0.035252
-0.035488
-0.035741
-0.036017
-0.036317
-0.036640
-0.036986
-0.037349
-0.037723
-0.038097
-0.038460
-0.038793
-0.039077
-0.039284
-0.039385
-0.039342
-0.039117
-0.038664
-0.037938
-0.036891
-0.035459
-0.033601
-0.031293
-0.028530
-0.025335
-0.021763
-0.017908
-0.013903
-0.009922
-0.006168
-0.002866
-0.000236
0.001529
0.002291
0.001991
0.000661
-0.001587
-0.004587
-0.008165
-0.032291
-0.033423
-0.034360
-0.035118
-0.035718
-0.036188
-0.036558
-0.036854
-0.037103
-0.037328
-0.037547
-0.037774
-0.038022
-0.038299
-0.038612
-0.038962
-0.039352
-0.039781
-0.040244
-0.040736
-0.041247
-0.041764
-0.042270
-0.042741
-0.043150
-0.043461
-0.043635
-0.043624
-0.043375
-0.042834
-0.041947
-0.040636
-0.038835
-0.036503
-0.033620
-0.030194
-0.026269
-0.021935
-0.017328
-0.012635
-0.008090
-0.003956
-0.000509
0.001996
0.003361
0.003475
0.002339
0.000063
-0.003170
-0.007153
-0.034884
-0.036093
-0.037086
-0.037876
-0.038487
-0.038952
-0.039303
-0.039574
-0.039794
-0.039991
-0.040188
-0.040402
-0.040647
-0.040935
-0.041272
-0.041664
-0.042113
-0.042619
-0.043180
-0.043789
-0.044438
-0.045114
-0.045799
-0.046468
-0.047091
-0.047630
-0.048041
-0.048268
-0.048253
-0.047929
-0.047229
-0.046079
-0.044376
-0.042060
-0.039095
-0.035470
-0.031214
-0.026405
-0.021178
-0.015730
-0.010317
-0.005246
-0.000848
0.002549
0.004671
0.005341
0.004512
0.002276
-0.001165
-0.005573
-0.037695
-0.038997
-0.040052
-0.040874
-0.041489
-0.041934
-0.042247
-0.042470
-0.042638
-0.042784
-0.042936
-0.043114
-0.043337
-0.043616
-0.043963
-0.044382
-0.044878
-0.045453
-0.046103
-0.046824
-0.047609
-0.048443
-0.049307
-0.050178
-0.051023
-0.051800
-0.052460
-0.052943
-0.053180
-0.053096
-0.052609
-0.051651
-0.050081
-0.047822
-0.044813
-0.041025
-0.036466
-0.031199
-0.025349
-0.019115
-0.012773
-0.006666
-0.001186
0.003262
0.006313
0.007702
0.007314
0.005211
0.001601
-0.003244
-0.040750
-0.042165
-0.043292
-0.044143
-0.044749
-0.045152
-0.045402
-0.045546
-0.045631
-0.045695
-0.045771
-0.045886
-0.046060
-0.046308
-0.046643
-0.047071
-0.047599
-0.048227
-0.048955
-0.049779
-0.050690
-0.051675
-0.052716
-0.053787
-0.054852
-0.055869
-0.056782
-0.057527
-0.058027
-0.058195
-0.057936
-0.057187
-0.055778
-0.053607
-0.050590
-0.046674
-0.041845
-0.036143
-0.029679
-0.022645
-0.015327
-0.008099
-0.001412
0.004248
0.008412
0.010706
0.010921
0.009066
0.005342
0.000057
-0.044084
-0.045638
-0.046848
-0.047722
-0.048299
-0.048632
-0.048780
-0.048806
-0.048766
-0.048707
-0.048670
-0.048686
-0.048779
-0.048967
-0.049265
-0.049680
-0.050218
-0.050883
-0.051673
-0.052584
-0.053610
-0.054736
-0.055942
-0.057203
-0.058480
-0.059729
-0.060890
-0.061893
-0.062655
-0.063079
-0.063060
-0.062498
-0.061271
-0.059208
-0.056208
-0.052193
-0.047123
-0.041013
-0.033951
-0.026115
-0.017789
-0.009371
-0.001360
0.005671
0.011141
0.014545
0.015553
0.014088
0.010327
0.004606
-0.047746
-0.049475
-0.050778
-0.051665
-0.052184
-0.052402
-0.052399
-0.052252
-0.052032
-0.051799
-0.051601
-0.051475
-0.051450
-0.051545
-0.051775
-0.052150
-0.052677
-0.053357
-0.054190
-0.055172
-0.056295
-0.057545
-0.058901
-0.060336
-0.061810
-0.063275
-0.064668
-0.065913
-0.066920
-0.067586
-0.067793
-0.067418
-0.066361
-0.064406
-0.061430
-0.057331
-0.052040
-0.045544
-0.037900
-0.029265
-0.019912
-0.010246
-0.000808
0.007751
0.014728
0.019467
0.021486
0.020584
0.016888
0.010746
-0.051804
-0.053753
-0.055162
-0.056042
-0.056457
-0.056500
-0.056275
-0.055883
-0.055415
-0.054943
-0.054526
-0.054208
-0.054020
-0.053984
-0.054115
-0.054422
-0.054911
-0.055584
-0.056440
-0.057473
-0.058674
-0.060028
-0.061514
-0.063102
-0.064750
-0.066406
-0.068005
-0.069465
-0.070691
-0.071569
-0.071973
-0.071763
-0.070848
-0.068979
-0.066014
-0.061825
-0.056317
-0.049442
-0.041226
-0.031794
-0.021397
-0.010434
0.000528
0.010767
0.019460
0.025783
0.029063
0.028937
0.025434
0.018900
-0.056357
-0.058587
-0.060110
-0.060948
-0.061191
-0.060970
-0.060427
-0.059695
-0.058889
-0.058100
-0.057396
-0.056828
-0.056429
-0.056221
-0.056219
-0.056429
-0.056856
-0.057500
-0.058357
-0.059421
-0.060681
-0.062118
-0.063710
-0.065425
-0.067219
-0.069037
-0.070807
-0.072446
-0.073849
-0.074899
-0.075457
-0.075369
-0.074546
-0.072721
-0.069731
-0.065424
-0.059679
-0.052413
-0.043616
-0.033376
-0.021911
-0.009599
0.002984
0.015062
0.025695
0.033878
0.038713
0.039619
0.036477
0.029591
-0.061548
-0.064138
-0.065778
-0.066511
-0.066476
-0.065863
-0.064869
-0.063672
-0.062418
-0.061217
-0.060149
-0.059267
-0.058606
-0.058186
-0.058017
-0.058104
-0.058447
-0.059041
-0.059882
-0.060958
-0.062256
-0.063755
-0.065430
-0.067246
-0.069155
-0.071097
-0.073000
-0.074772
-0.076304
-0.077472
-0.078131
-0.078113
-0.077306
-0.075463
-0.072388
-0.067910
-0.061884
-0.054188
-0.044771
-0.033690
-0.021114
-0.007385
0.006932
0.021026
0.033852
0.044215
0.050956
0.053215
0.050652
0.043471
-0.067594
-0.070645
-0.072385
-0.072902
-0.072423
-0.071233
-0.069607
-0.067783
-0.065944
-0.064221
-0.062702
-0.061441
-0.060468
-0.059797
-0.059434
-0.059376
-0.059617
-0.060147
-0.060956
-0.062033
-0.063352
-0.064891
-0.066627
-0.068519
-0.070510
-0.072539
-0.074531
-0.076388
-0.077996
-0.079221
-0.079910
-0.079901
-0.079015
-0.077083
-0.073848
-0.069119
-0.062753
-0.054560
-0.044442
-0.032460
-0.018702
-0.003453
0.012743
0.029072
0.044400
0.057338
0.066429
0.070457
0.068765
0.061371
-0.074827
-0.078467
-0.080243
-0.080350
-0.079168
-0.077130
-0.074627
-0.071969
-0.069381
-0.067011
-0.064949
-0.063244
-0.061915
-0.060966
-0.060388
-0.060172
-0.060305
-0.060761
-0.061530
-0.062606
-0.063933
-0.065511
-0.067296
-0.069242
-0.071293
-0.073381
-0.075424
-0.077320
-0.078947
-0.080164
-0.080811
-0.080710
-0.079664
-0.077509
-0.073981
-0.068878
-0.062022
-0.053260
-0.042455
-0.029503
-0.014461
0.002471
0.020736
0.039587
0.057820
0.073854
0.085889
0.092259
0.091858
0.084373
-0.083774
-0.088148
-0.089802
-0.089154
-0.086860
-0.083583
-0.079869
-0.076118
-0.072590
-0.069442
-0.066750
-0.064548
-0.062830
-0.061589
-0.060793
-0.060415
-0.060454
-0.060841
-0.061588
-0.062650
-0.063996
-0.065598
-0.067417
-0.069400
-0.071487
-0.073606
-0.075665
-0.077557
-0.079154
-0.080307
-0.080847
-0.080584
-0.079311
-0.076846
-0.072930
-0.067344
-0.059878
-0.050344
-0.038582
-0.024494
-0.008120
0.010541
0.031090
0.052855
0.074540
0.094389
0.110220
0.119780
0.121313
0.113947
-0.095306
-0.100545
-0.101704
-0.099686
-0.095631
-0.090551
-0.085191
-0.080037
-0.075365
-0.071312
-0.067920
-0.065193
-0.063073
-0.061556
-0.060559
-0.060059
-0.060005
-0.060354
-0.061079
-0.062144
-0.063510
-0.065140
-0.066988
-0.068999
-0.071107
-0.073232
-0.075278
-0.077130
-0.078654
-0.079695
-0.080073
-0.079589
-0.078027
-0.075176
-0.070794
-0.064638
-0.056471
-0.046070
-0.033235
-0.017817
0.000256
0.020958
0.043994
0.068949
0.094817
0.119493
0.140392
0.154481
0.159024
0.152195
-0.110928
-0.117023
-0.116855
-0.112361
-0.105525
-0.097852
-0.090300
-0.083401
-0.077386
-0.072343
-0.068209
-0.064993
-0.062507
-0.060748
-0.059601
-0.059006
-0.058904
-0.059244
-0.059981
-0.061073
-0.062476
-0.064144
-0.066026
-0.068063
-0.070182
-0.072298
-0.074309
-0.076096
-0.077517
-0.078408
-0.078585
-0.077839
-0.075942
-0.072660
-0.067763
-0.060988
-0.052069
-0.040742
-0.026760
-0.009901
0.010007
0.033048
0.059137
0.087918
0.118552
0.149428
0.177332
0.198172
0.207672
0.202313
-0.133388
-0.139794
-0.136453
-0.127507
-0.116322
-0.105010
-0.094637
-0.085684
-0.078183
-0.072174
-0.067365
-0.063691
-0.060949
-0.059026
-0.057803
-0.057189
-0.057106
-0.057489
-0.058285
-0.059440
-0.060907
-0.062634
-0.064564
-0.066632
-0.068763
-0.070865
-0.072833
-0.074541
-0.075843
-0.076570
-0.076529
-0.075504
-0.073257
-0.069537
-0.064126
-0.056737
-0.047073
-0.034832
-0.019706
-0.001391
0.020405
0.045938
0.075369
0.108655
0.145297
0.183873
0.221586
0.252932
0.271123
0.269462
-0.168016
-0.172414
-0.161833
-0.144987
-0.127178
-0.111000
-0.097212
-0.086103
-0.077197
-0.070290
-0.064994
-0.061043
-0.058192
-0.056256
-0.055083
-0.054557
-0.054582
-0.055083
-0.055997
-0.057266
-0.058836
-0.060651
-0.062651
-0.064767
-0.066921
-0.069018
-0.070949
-0.072584
-0.073774
-0.074345
-0.074100
-0.072817
-0.070243
-0.066135
-0.060271
-0.052341
-0.042024
-0.028974
-0.012823
0.006823
0.030397
0.058363
0.091203
0.129345
0.172964
0.221484
0.272584
0.320604
0.354879
0.362404
-0.225830
-0.220223
-0.193616
-0.163247
-0.135915
-0.113919
-0.096626
-0.083474
-0.073542
-0.066142
-0.060700
-0.056788
-0.054084
-0.052346
-0.051394
-0.051093
-0.051339
-0.052047
-0.053152
-0.054592
-0.056311
-0.058253
-0.060354
-0.062547
-0.064748
-0.066865
-0.068784
-0.070375
-0.071487
-0.071945
-0.071549
-0.070077
-0.067241
-0.062865
-0.056678
-0.048363
-0.037574
-0.023934
-0.007018
0.013657
0.038663
0.068690
0.104593
0.147417
0.198352
0.258415
0.327408
0.401071
0.466030
0.496537
-0.330795
-0.289247
-0.228758
-0.177330
-0.138401
-0.110446
-0.090533
-0.076392
-0.066332
-0.059198
-0.054193
-0.050772
-0.048558
-0.047282
-0.046755
-0.046837
-0.047425
-0.048438
-0.049810
-0.051483
-0.053404
-0.055516
-0.057761
-0.060067
-0.062357
-0.064536
-0.066492
-0.068097
-0.069198
-0.069622
-0.069169
-0.067613
-0.064681
-0.060207
-0.053896
-0.045428
-0.034445
-0.020546
-0.003268
0.017941
0.043764
0.075091
0.113127
0.159570
0.216847
0.288327
0.378087
0.488478
0.610437
0.699790
-0.534783
-0.376672
-0.253567
-0.175076
-0.126525
-0.096104
-0.076529
-0.063637
-0.055017
-0.049243
-0.045439
-0.043047
-0.041707
-0.041172
-0.041275
-0.041894
-0.042941
-0.044348
-0.046059
-0.048026
-0.050200
-0.052532
-0.054966
-0.057438
-0.059872
-0.062177
-0.064245
-0.065950
-0.067143
-0.067654
-0.067286
-0.065807
-0.062999
-0.058650
-0.052474
-0.044152
-0.033327
-0.019591
-0.002469
0.018618
0.044403
0.075878
0.114460
0.162309
0.222917
0.302186
0.410245
0.563415
0.779146
1.024706
-0.935786
-0.425843
-0.223689
-0.135155
-0.091389
-0.067556
-0.053639
-0.045147
-0.039872
-0.036643
-0.034796
-0.033934
-0.033806
-0.034247
-0.035145
-0.036422
-0.038019
-0.039891
-0.042000
-0.044311
-0.046787
-0.049387
-0.052065
-0.054762
-0.057410
-0.059924
-0.062202
-0.064123
-0.065544
-0.066300
-0.066197
-0.065023
-0.062570
-0.058605
-0.052858
-0.045021
-0.034747
-0.021644
-0.005253
0.014977
0.039739
0.069966
0.106997
0.152938
0.211423
0.289454
0.401975
0.582996
0.908857
1.541861
