# vtk DataFile Version 3.0
Vector Field
ASCII
DATASET RECTILINEAR_GRID
DIMENSIONS 50 50 1
X_COORDINATES 50 double
0.100000 0.300000 0.500000 0.700000 0.900000 1.100000 1.300000 1.500000 1.700000 1.900000 2.100000 2.300000 2.500000 2.700000 2.900000 3.100000 3.300000 3.500000 3.700000 3.900000 4.100000 4.300000 4.500000 4.700000 4.900000 5.100000 5.300000 5.500000 5.700000 5.900000 6.100000 6.300000 6.500000 6.700000 6.900000 7.100000 7.300000 7.500000 7.700000 7.900000 8.100000 8.300000 8.500000 8.700000 8.900000 9.100000 9.300000 9.500000 9.700000 9.900000 
Y_COORDINATES 50 double
0.100000 0.300000 0.500000 0.700000 0.900000 1.100000 1.300000 1.500000 1.700000 1.900000 2.100000 2.300000 2.500000 2.700000 2.900000 3.100000 3.300000 3.500000 3.700000 3.900000 4.100000 4.300000 4.500000 4.700000 4.900000 5.100000 5.300000 5.500000 5.700000 5.900000 6.100000 6.300000 6.500000 6.700000 6.900000 7.100000 7.300000 7.500000 7.700000 7.900000 8.100000 8.300000 8.500000 8.700000 8.900000 9.100000 9.300000 9.500000 9.700000 9.900000 
Z_COORDINATES 1 double
0.0
POINT_DATA 2500
VECTORS Vektorfeld double
0.000015 -0.000015 0.0
0.000029 0.000001 0.0
-0.000003 0.000030 0.0
-0.000093 0.000060 0.0
-0.000238 0.000085 0.0
-0.000429 0.000105 0.0
-0.000654 0.000120 0.0
-0.000905 0.000130 0.0
-0.001172 0.000136 0.0
-0.001447 0.000139 0.0
-0.001726 0.000139 0.0
-0.002002 0.000137 0.0
-0.002273 0.000133 0.0
-0.002534 0.000128 0.0
-0.002784 0.000122 0.0
-0.003021 0.000115 0.0
-0.003242 0.000107 0.0
-0.003447 0.000098 0.0
-0.003633 0.000088 0.0
-0.003799 0.000078 0.0
-0.003945 0.000068 0.0
-0.004069 0.000056 0.0
-0.004170 0.000045 0.0
-0.004247 0.000032 0.0
-0.004298 0.000019 0.0
-0.004324 0.000006 0.0
-0.004323 -0.000007 0.0
-0.004294 -0.000021 0.0
-0.004238 -0.000035 0.0
-0.004153 -0.000050 0.0
-0.004039 -0.000064 0.0
-0.003898 -0.000078 0.0
-0.003729 -0.000091 0.0
-0.003533 -0.000104 0.0
-0.003312 -0.000117 0.0
-0.003067 -0.000128 0.0
-0.002800 -0.000138 0.0
-0.002516 -0.000146 0.0
-0.002217 -0.000152 0.0
-0.001909 -0.000156 0.0
-0.001596 -0.000156 0.0
-0.001287 -0.000153 0.0
-0.000988 -0.000146 0.0
-0.000709 -0.000133 0.0
-0.000460 -0.000116 0.0
-0.000251 -0.000093 0.0
-0.000095 -0.000064 0.0
0.000000 -0.000031 0.0
0.000032 -0.000000 0.0
0.000016 0.000016 0.0
-0.000001 -0.000029 0.0
-0.000049 0.000050 0.0
-0.000209 0.000172 0.0
-0.000498 0.000297 0.0
-0.000910 0.000406 0.0
-0.001429 0.000494 0.0
-0.002032 0.000560 0.0
-0.002698 0.000606 0.0
-0.003405 0.000635 0.0
-0.004137 0.000648 0.0
-0.004878 0.000649 0.0
-0.005614 0.000640 0.0
-0.006336 0.000623 0.0
-0.007034 0.000599 0.0
-0.007702 0.000570 0.0
-0.008334 0.000536 0.0
-0.008925 0.000498 0.0
-0.009470 0.000456 0.0
-0.009965 0.000411 0.0
-0.010408 0.000364 0.0
-0.010793 0.000314 0.0
-0.011120 0.000261 0.0
-0.011383 0.000205 0.0
-0.011582 0.000147 0.0
-0.011714 0.000087 0.0
-0.011775 0.000026 0.0
-0.011765 -0.000038 0.0
-0.011682 -0.000102 0.0
-0.011525 -0.000168 0.0
-0.011293 -0.000234 0.0
-0.010986 -0.000299 0.0
-0.010605 -0.000364 0.0
-0.010152 -0.000427 0.0
-0.009629 -0.000488 0.0
-0.009039 -0.000544 0.0
-0.008389 -0.000596 0.0
-0.007684 -0.000641 0.0
-0.006933 -0.000679 0.0
-0.006146 -0.000706 0.0
-0.005335 -0.000722 0.0
-0.004515 -0.000723 0.0
-0.003704 -0.000708 0.0
-0.002921 -0.000673 0.0
-0.002187 -0.000618 0.0
-0.001526 -0.000540 0.0
-0.000964 -0.000439 0.0
-0.000521 -0.000317 0.0
-0.000215 -0.000180 0.0
-0.000049 -0.000049 0.0
0.000000 0.000032 0.0
-0.000030 0.000002 0.0
-0.000172 0.000210 0.0
-0.000488 0.000487 0.0
-0.000985 0.000767 0.0
-0.001650 0.001014 0.0
-0.002462 0.001216 0.0
-0.003391 0.001371 0.0
-0.004409 0.001480 0.0
-0.005487 0.001548 0.0
-0.006601 0.001580 0.0
-0.007727 0.001584 0.0
-0.008847 0.001562 0.0
-0.009945 0.001521 0.0
-0.011008 0.001463 0.0
-0.012025 0.001391 0.0
-0.012987 0.001308 0.0
-0.013885 0.001214 0.0
-0.014713 0.001112 0.0
-0.015464 0.001002 0.0
-0.016134 0.000885 0.0
-0.016717 0.000761 0.0
-0.017209 0.000631 0.0
-0.017604 0.000494 0.0
-0.017900 0.000353 0.0
-0.018093 0.000206 0.0
-0.018179 0.000055 0.0
-0.018157 -0.000100 0.0
-0.018023 -0.000257 0.0
-0.017777 -0.000417 0.0
-0.017418 -0.000576 0.0
-0.016946 -0.000736 0.0
-0.016363 -0.000892 0.0
-0.015671 -0.001044 0.0
-0.014874 -0.001190 0.0
-0.013979 -0.001326 0.0
-0.012993 -0.001450 0.0
-0.011926 -0.001559 0.0
-0.010791 -0.001648 0.0
-0.009603 -0.001712 0.0
-0.008380 -0.001749 0.0
-0.007145 -0.001751 0.0
-0.005921 -0.001714 0.0
-0.004738 -0.001634 0.0
-0.003625 -0.001505 0.0
-0.002614 -0.001324 0.0
-0.001740 -0.001093 0.0
-0.001029 -0.000816 0.0
-0.000505 -0.000511 0.0
-0.000176 -0.000214 0.0
-0.000030 0.000002 0.0
-0.000060 0.000092 0.0
-0.000301 0.000502 0.0
-0.000777 0.000987 0.0
-0.001477 0.001464 0.0
-0.002381 0.001886 0.0
-0.003458 0.002233 0.0
-0.004675 0.002500 0.0
-0.005997 0.002690 0.0
-0.007392 0.002810 0.0
-0.008828 0.002868 0.0
-0.010279 0.002873 0.0
-0.011721 0.002835 0.0
-0.013135 0.002760 0.0
-0.014502 0.002655 0.0
-0.015811 0.002524 0.0
-0.017047 0.002372 0.0
-0.018201 0.002202 0.0
-0.019264 0.002016 0.0
-0.020228 0.001815 0.0
-0.021086 0.001600 0.0
-0.021831 0.001374 0.0
-0.022458 0.001136 0.0
-0.022961 0.000888 0.0
-0.023335 0.000629 0.0
-0.023576 0.000363 0.0
-0.023679 0.000088 0.0
-0.023643 -0.000192 0.0
-0.023464 -0.000478 0.0
-0.023140 -0.000766 0.0
-0.022672 -0.001055 0.0
-0.022060 -0.001342 0.0
-0.021306 -0.001624 0.0
-0.020414 -0.001897 0.0
-0.019388 -0.002159 0.0
-0.018238 -0.002403 0.0
-0.016973 -0.002625 0.0
-0.015605 -0.002818 0.0
-0.014152 -0.002977 0.0
-0.012631 -0.003092 0.0
-0.011067 -0.003156 0.0
-0.009486 -0.003160 0.0
-0.007918 -0.003096 0.0
-0.006398 -0.002956 0.0
-0.004962 -0.002732 0.0
-0.003648 -0.002421 0.0
-0.002495 -0.002025 0.0
-0.001536 -0.001553 0.0
-0.000801 -0.001033 0.0
-0.000307 -0.000514 0.0
-0.000061 -0.000089 0.0
-0.000088 0.000240 0.0
-0.000418 0.000925 0.0
-0.001046 0.001667 0.0
-0.001938 0.002376 0.0
-0.003061 0.003000 0.0
-0.004378 0.003514 0.0
-0.005851 0.003910 0.0
-0.007440 0.004192 0.0
-0.009108 0.004370 0.0
-0.010821 0.004456 0.0
-0.012548 0.004463 0.0
-0.014263 0.004402 0.0
-0.015942 0.004285 0.0
-0.017567 0.004121 0.0
-0.019119 0.003918 0.0
-0.020586 0.003681 0.0
-0.021955 0.003416 0.0
-0.023214 0.003125 0.0
-0.024355 0.002811 0.0
-0.025370 0.002476 0.0
-0.026250 0.002123 0.0
-0.026988 0.001752 0.0
-0.027579 0.001365 0.0
-0.028017 0.000963 0.0
-0.028296 0.000549 0.0
-0.028412 0.000122 0.0
-0.028363 -0.000313 0.0
-0.028144 -0.000755 0.0
-0.027754 -0.001201 0.0
-0.027193 -0.001648 0.0
-0.026463 -0.002091 0.0
-0.025565 -0.002526 0.0
-0.024503 -0.002948 0.0
-0.023286 -0.003350 0.0
-0.021922 -0.003726 0.0
-0.020422 -0.004067 0.0
-0.018803 -0.004364 0.0
-0.017082 -0.004606 0.0
-0.015282 -0.004783 0.0
-0.013430 -0.004881 0.0
-0.011557 -0.004890 0.0
-0.009696 -0.004795 0.0
-0.007887 -0.004586 0.0
-0.006171 -0.004254 0.0
-0.004590 -0.003794 0.0
-0.003187 -0.003208 0.0
-0.002002 -0.002513 0.0
-0.001072 -0.001739 0.0
-0.000425 -0.000948 0.0
-0.000088 -0.000238 0.0
-0.000111 0.000439 0.0
-0.000521 0.001468 0.0
-0.001284 0.002514 0.0
-0.002351 0.003488 0.0
-0.003674 0.004335 0.0
-0.005208 0.005030 0.0
-0.006909 0.005567 0.0
-0.008734 0.005949 0.0
-0.010641 0.006189 0.0
-0.012594 0.006303 0.0
-0.014559 0.006308 0.0
-0.016507 0.006220 0.0
-0.018413 0.006053 0.0
-0.020256 0.005820 0.0
-0.022016 0.005532 0.0
-0.023677 0.005196 0.0
-0.025227 0.004819 0.0
-0.026652 0.004406 0.0
-0.027943 0.003961 0.0
-0.029090 0.003487 0.0
-0.030083 0.002986 0.0
-0.030916 0.002461 0.0
-0.031581 0.001913 0.0
-0.032073 0.001345 0.0
-0.032384 0.000758 0.0
-0.032511 0.000156 0.0
-0.032450 -0.000458 0.0
-0.032198 -0.001081 0.0
-0.031752 -0.001710 0.0
-0.031114 -0.002338 0.0
-0.030283 -0.002962 0.0
-0.029263 -0.003574 0.0
-0.028059 -0.004166 0.0
-0.026679 -0.004730 0.0
-0.025133 -0.005257 0.0
-0.023434 -0.005734 0.0
-0.021600 -0.006150 0.0
-0.019651 -0.006489 0.0
-0.017612 -0.006737 0.0
-0.015513 -0.006878 0.0
-0.013387 -0.006893 0.0
-0.011273 -0.006767 0.0
-0.009211 -0.006485 0.0
-0.007247 -0.006035 0.0
-0.005429 -0.005412 0.0
-0.003802 -0.004620 0.0
-0.002414 -0.003674 0.0
-0.001308 -0.002614 0.0
-0.000526 -0.001502 0.0
-0.000111 -0.000437 0.0
-0.000130 0.000679 0.0
-0.000609 0.002117 0.0
-0.001492 0.003511 0.0
-0.002713 0.004779 0.0
-0.004216 0.005870 0.0
-0.005946 0.006760 0.0
-0.007852 0.007444 0.0
-0.009886 0.007930 0.0
-0.012005 0.008234 0.0
-0.014169 0.008375 0.0
-0.016342 0.008375 0.0
-0.018494 0.008253 0.0
-0.020597 0.008029 0.0
-0.022627 0.007718 0.0
-0.024566 0.007333 0.0
-0.026395 0.006886 0.0
-0.028100 0.006384 0.0
-0.029668 0.005835 0.0
-0.031088 0.005243 0.0
-0.032348 0.004612 0.0
-0.033440 0.003946 0.0
-0.034354 0.003248 0.0
-0.035085 0.002521 0.0
-0.035623 0.001767 0.0
-0.035964 0.000989 0.0
-0.036102 0.000191 0.0
-0.036033 -0.000623 0.0
-0.035754 -0.001448 0.0
-0.035263 -0.002280 0.0
-0.034559 -0.003111 0.0
-0.033643 -0.003935 0.0
-0.032520 -0.004743 0.0
-0.031195 -0.005526 0.0
-0.029675 -0.006271 0.0
-0.027972 -0.006965 0.0
-0.026101 -0.007595 0.0
-0.024080 -0.008144 0.0
-0.021932 -0.008592 0.0
-0.019684 -0.008921 0.0
-0.017367 -0.009110 0.0
-0.015017 -0.009136 0.0
-0.012676 -0.008980 0.0
-0.010388 -0.008622 0.0
-0.008203 -0.008048 0.0
-0.006169 -0.007252 0.0
-0.004341 -0.006235 0.0
-0.002770 -0.005018 0.0
-0.001509 -0.003637 0.0
-0.000610 -0.002159 0.0
-0.000129 -0.000677 0.0
-0.000146 0.000956 0.0
-0.000684 0.002857 0.0
-0.001671 0.004640 0.0
-0.003030 0.006231 0.0
-0.004694 0.007584 0.0
-0.006599 0.008681 0.0
-0.008690 0.009520 0.0
-0.010914 0.010113 0.0
-0.013224 0.010480 0.0
-0.015577 0.010646 0.0
-0.017935 0.010636 0.0
-0.020267 0.010475 0.0
-0.022543 0.010186 0.0
-0.024740 0.009788 0.0
-0.026836 0.009297 0.0
-0.028813 0.008728 0.0
-0.030655 0.008090 0.0
-0.032349 0.007391 0.0
-0.033882 0.006639 0.0
-0.035243 0.005838 0.0
-0.036423 0.004992 0.0
-0.037411 0.004106 0.0
-0.038201 0.003183 0.0
-0.038784 0.002226 0.0
-0.039154 0.001240 0.0
-0.039305 0.000229 0.0
-0.039233 -0.000802 0.0
-0.038934 -0.001847 0.0
-0.038406 -0.002900 0.0
-0.037648 -0.003953 0.0
-0.036661 -0.004996 0.0
-0.035449 -0.006018 0.0
-0.034019 -0.007008 0.0
-0.032377 -0.007950 0.0
-0.030537 -0.008829 0.0
-0.028513 -0.009626 0.0
-0.026326 -0.010321 0.0
-0.023999 -0.010890 0.0
-0.021561 -0.011310 0.0
-0.019046 -0.011554 0.0
-0.016492 -0.011595 0.0
-0.013943 -0.011410 0.0
-0.011448 -0.010974 0.0
-0.009058 -0.010271 0.0
-0.006828 -0.009291 0.0
-0.004816 -0.008036 0.0
-0.003080 -0.006523 0.0
-0.001681 -0.004792 0.0
-0.000681 -0.002904 0.0
-0.000144 -0.000950 0.0
-0.000160 0.001262 0.0
-0.000748 0.003677 0.0
-0.001827 0.005886 0.0
-0.003309 0.007826 0.0
-0.005118 0.009461 0.0
-0.007184 0.010776 0.0
-0.009443 0.011776 0.0
-0.011840 0.012478 0.0
-0.014324 0.012908 0.0
-0.016849 0.013096 0.0
-0.019377 0.013072 0.0
-0.021872 0.012866 0.0
-0.024306 0.012505 0.0
-0.026653 0.012012 0.0
-0.028891 0.011407 0.0
-0.031002 0.010706 0.0
-0.032969 0.009921 0.0
-0.034777 0.009062 0.0
-0.036415 0.008138 0.0
-0.037869 0.007154 0.0
-0.039130 0.006116 0.0
-0.040188 0.005029 0.0
-0.041035 0.003896 0.0
-0.041662 0.002723 0.0
-0.042063 0.001514 0.0
-0.042231 0.000275 0.0
-0.042161 -0.000989 0.0
-0.041849 -0.002271 0.0
-0.041292 -0.003561 0.0
-0.040491 -0.004851 0.0
-0.039444 -0.006130 0.0
-0.038156 -0.007383 0.0
-0.036633 -0.008597 0.0
-0.034883 -0.009753 0.0
-0.032918 -0.010831 0.0
-0.030755 -0.011810 0.0
-0.028415 -0.012665 0.0
-0.025922 -0.013366 0.0
-0.023307 -0.013886 0.0
-0.020606 -0.014193 0.0
-0.017860 -0.014255 0.0
-0.015115 -0.014043 0.0
-0.012423 -0.013529 0.0
-0.009840 -0.012691 0.0
-0.007426 -0.011517 0.0
-0.005242 -0.010006 0.0
-0.003355 -0.008176 0.0
-0.001832 -0.006062 0.0
-0.000741 -0.003725 0.0
-0.000156 -0.001250 0.0
-0.000172 0.001595 0.0
-0.000805 0.004565 0.0
-0.001965 0.007236 0.0
-0.003559 0.009552 0.0
-0.005501 0.011486 0.0
-0.007715 0.013030 0.0
-0.010131 0.014198 0.0
-0.012689 0.015012 0.0
-0.015335 0.015504 0.0
-0.018022 0.015711 0.0
-0.020707 0.015669 0.0
-0.023355 0.015413 0.0
-0.025936 0.014973 0.0
-0.028423 0.014379 0.0
-0.030795 0.013651 0.0
-0.033031 0.012809 0.0
-0.035114 0.011868 0.0
-0.037031 0.010840 0.0
-0.038767 0.009733 0.0
-0.040311 0.008556 0.0
-0.041651 0.007315 0.0
-0.042778 0.006015 0.0
-0.043683 0.004661 0.0
-0.044356 0.003259 0.0
-0.044792 0.001814 0.0
-0.044981 0.000332 0.0
-0.044920 -0.001179 0.0
-0.044602 -0.002711 0.0
-0.044026 -0.004254 0.0
-0.043189 -0.005797 0.0
-0.042092 -0.007327 0.0
-0.040738 -0.008828 0.0
-0.039132 -0.010282 0.0
-0.037283 -0.011667 0.0
-0.035203 -0.012961 0.0
-0.032909 -0.014137 0.0
-0.030423 -0.015165 0.0
-0.027771 -0.016011 0.0
-0.024985 -0.016642 0.0
-0.022103 -0.017020 0.0
-0.019169 -0.017108 0.0
-0.016233 -0.016871 0.0
-0.013349 -0.016276 0.0
-0.010579 -0.015297 0.0
-0.007985 -0.013918 0.0
-0.005638 -0.012136 0.0
-0.003607 -0.009964 0.0
-0.001968 -0.007437 0.0
-0.000795 -0.004613 0.0
-0.000167 -0.001574 0.0
-0.000183 0.001949 0.0
-0.000856 0.005517 0.0
-0.002092 0.008681 0.0
-0.003790 0.011398 0.0
-0.005856 0.013648 0.0
-0.008209 0.015434 0.0
-0.010775 0.016776 0.0
-0.013487 0.017704 0.0
-0.016288 0.018259 0.0
-0.019128 0.018483 0.0
-0.021964 0.018419 0.0
-0.024759 0.018106 0.0
-0.027481 0.017583 0.0
-0.030104 0.016879 0.0
-0.032603 0.016021 0.0
-0.034961 0.015032 0.0
-0.037158 0.013927 0.0
-0.039180 0.012720 0.0
-0.041014 0.011423 0.0
-0.042647 0.010044 0.0
-0.044067 0.008589 0.0
-0.045265 0.007066 0.0
-0.046231 0.005480 0.0
-0.046955 0.003838 0.0
-0.047430 0.002145 0.0
-0.047648 0.000409 0.0
-0.047602 -0.001363 0.0
-0.047287 -0.003159 0.0
-0.046699 -0.004970 0.0
-0.045836 -0.006782 0.0
-0.044697 -0.008579 0.0
-0.043284 -0.010343 0.0
-0.041602 -0.012054 0.0
-0.039660 -0.013686 0.0
-0.037471 -0.015212 0.0
-0.035050 -0.016601 0.0
-0.032421 -0.017816 0.0
-0.029612 -0.018821 0.0
-0.026655 -0.019575 0.0
-0.023592 -0.020033 0.0
-0.020469 -0.020153 0.0
-0.017339 -0.019893 0.0
-0.014262 -0.019215 0.0
-0.011302 -0.018088 0.0
-0.008530 -0.016492 0.0
-0.006020 -0.014419 0.0
-0.003849 -0.011882 0.0
-0.002097 -0.008911 0.0
-0.000845 -0.005564 0.0
-0.000178 -0.001919 0.0
-0.000193 0.002325 0.0
-0.000905 0.006527 0.0
-0.002213 0.010216 0.0
-0.004009 0.013357 0.0
-0.006196 0.015942 0.0
-0.008684 0.017981 0.0
-0.011394 0.019504 0.0
-0.014256 0.020550 0.0
-0.017210 0.021167 0.0
-0.020202 0.021406 0.0
-0.023186 0.021316 0.0
-0.026126 0.020943 0.0
-0.028988 0.020330 0.0
-0.031744 0.019511 0.0
-0.034371 0.018516 0.0
-0.036849 0.017371 0.0
-0.039160 0.016095 0.0
-0.041289 0.014703 0.0
-0.043222 0.013207 0.0
-0.044946 0.011617 0.0
-0.046451 0.009941 0.0
-0.047724 0.008186 0.0
-0.048756 0.006358 0.0
-0.049537 0.004465 0.0
-0.050058 0.002514 0.0
-0.050312 0.000511 0.0
-0.050289 -0.001533 0.0
-0.049985 -0.003608 0.0
-0.049394 -0.005701 0.0
-0.048512 -0.007796 0.0
-0.047338 -0.009877 0.0
-0.045874 -0.011923 0.0
-0.044122 -0.013908 0.0
-0.042092 -0.015804 0.0
-0.039795 -0.017580 0.0
-0.037249 -0.019199 0.0
-0.034476 -0.020620 0.0
-0.031506 -0.021798 0.0
-0.028374 -0.022686 0.0
-0.025123 -0.023235 0.0
-0.021804 -0.023393 0.0
-0.018473 -0.023113 0.0
-0.015195 -0.022350 0.0
-0.012040 -0.021068 0.0
-0.009083 -0.019241 0.0
-0.006406 -0.016858 0.0
-0.004091 -0.013929 0.0
-0.002226 -0.010482 0.0
-0.000895 -0.006574 0.0
-0.000188 -0.002284 0.0
-0.000203 0.002721 0.0
-0.000953 0.007592 0.0
-0.002332 0.011836 0.0
-0.004226 0.015427 0.0
-0.006532 0.018364 0.0
-0.009154 0.020669 0.0
-0.012009 0.022381 0.0
-0.015021 0.023548 0.0
-0.018128 0.024229 0.0
-0.021272 0.024481 0.0
-0.024407 0.024361 0.0
-0.027492 0.023923 0.0
-0.030495 0.023214 0.0
-0.033387 0.022274 0.0
-0.036144 0.021137 0.0
-0.038745 0.019830 0.0
-0.041173 0.018376 0.0
-0.043413 0.016791 0.0
-0.045449 0.015089 0.0
-0.047270 0.013281 0.0
-0.048864 0.011375 0.0
-0.050219 0.009380 0.0
-0.051324 0.007302 0.0
-0.052170 0.005149 0.0
-0.052746 0.002928 0.0
-0.053044 0.000648 0.0
-0.053054 -0.001682 0.0
-0.052769 -0.004048 0.0
-0.052183 -0.006438 0.0
-0.051291 -0.008833 0.0
-0.050090 -0.011215 0.0
-0.048580 -0.013560 0.0
-0.046763 -0.015838 0.0
-0.044647 -0.018019 0.0
-0.042244 -0.020065 0.0
-0.039570 -0.021934 0.0
-0.036650 -0.023578 0.0
-0.033512 -0.024947 0.0
-0.030196 -0.025985 0.0
-0.026747 -0.026636 0.0
-0.023219 -0.026840 0.0
-0.019674 -0.026542 0.0
-0.016182 -0.025692 0.0
-0.012818 -0.024245 0.0
-0.009665 -0.022172 0.0
-0.006811 -0.019458 0.0
-0.004345 -0.016109 0.0
-0.002360 -0.012153 0.0
-0.000948 -0.007646 0.0
-0.000198 -0.002669 0.0
-0.000213 0.003138 0.0
-0.001002 0.008715 0.0
-0.002453 0.013544 0.0
-0.004447 0.017608 0.0
-0.006873 0.020916 0.0
-0.009633 0.023500 0.0
-0.012635 0.025408 0.0
-0.015802 0.026701 0.0
-0.019065 0.027445 0.0
-0.022366 0.027709 0.0
-0.025655 0.027557 0.0
-0.028891 0.027050 0.0
-0.032040 0.026240 0.0
-0.035072 0.025173 0.0
-0.037963 0.023886 0.0
-0.040693 0.022412 0.0
-0.043243 0.020773 0.0
-0.045599 0.018989 0.0
-0.047746 0.017074 0.0
-0.049670 0.015041 0.0
-0.051361 0.012899 0.0
-0.052805 0.010656 0.0
-0.053993 0.008319 0.0
-0.054912 0.005897 0.0
-0.055553 0.003397 0.0
-0.055904 0.000828 0.0
-0.055957 -0.001799 0.0
-0.055702 -0.004471 0.0
-0.055131 -0.007172 0.0
-0.054238 -0.009885 0.0
-0.053017 -0.012586 0.0
-0.051467 -0.015249 0.0
-0.049589 -0.017843 0.0
-0.047390 -0.020330 0.0
-0.044880 -0.022668 0.0
-0.042075 -0.024809 0.0
-0.039000 -0.026699 0.0
-0.035686 -0.028278 0.0
-0.032173 -0.029483 0.0
-0.028511 -0.030249 0.0
-0.024758 -0.030508 0.0
-0.020980 -0.030197 0.0
-0.017254 -0.029256 0.0
-0.013663 -0.027636 0.0
-0.010297 -0.025300 0.0
-0.007250 -0.022231 0.0
-0.004620 -0.018431 0.0
-0.002506 -0.013930 0.0
-0.001004 -0.008783 0.0
-0.000209 -0.003077 0.0
-0.000224 0.003575 0.0
-0.001053 0.009895 0.0
-0.002579 0.015341 0.0
-0.004677 0.019903 0.0
-0.007231 0.023601 0.0
-0.010133 0.026476 0.0
-0.013289 0.028590 0.0
-0.016617 0.030013 0.0
-0.020043 0.030823 0.0
-0.023507 0.031097 0.0
-0.026957 0.030909 0.0
-0.030350 0.030327 0.0
-0.033652 0.029411 0.0
-0.036831 0.028212 0.0
-0.039864 0.026771 0.0
-0.042729 0.025122 0.0
-0.045409 0.023293 0.0
-0.047889 0.021303 0.0
-0.050153 0.019170 0.0
-0.052189 0.016906 0.0
-0.053985 0.014520 0.0
-0.055529 0.012022 0.0
-0.056809 0.009419 0.0
-0.057812 0.006720 0.0
-0.058528 0.003931 0.0
-0.058945 0.001063 0.0
-0.059052 -0.001874 0.0
-0.058838 -0.004865 0.0
-0.058293 -0.007894 0.0
-0.057407 -0.010941 0.0
-0.056176 -0.013982 0.0
-0.054593 -0.016986 0.0
-0.052660 -0.019917 0.0
-0.050379 -0.022736 0.0
-0.047761 -0.025392 0.0
-0.044821 -0.027830 0.0
-0.041583 -0.029990 0.0
-0.038081 -0.031803 0.0
-0.034356 -0.033196 0.0
-0.030462 -0.034093 0.0
-0.026461 -0.034418 0.0
-0.022428 -0.034098 0.0
-0.018444 -0.033065 0.0
-0.014601 -0.031261 0.0
-0.010998 -0.028645 0.0
-0.007737 -0.025194 0.0
-0.004925 -0.020910 0.0
-0.002667 -0.015823 0.0
-0.001067 -0.009992 0.0
-0.000222 -0.003508 0.0
-0.000236 0.004035 0.0
-0.001108 0.011136 0.0
-0.002715 0.017232 0.0
-0.004923 0.022319 0.0
-0.007611 0.026426 0.0
-0.010664 0.029607 0.0
-0.013984 0.031935 0.0
-0.017481 0.033492 0.0
-0.021080 0.034368 0.0
-0.024716 0.034651 0.0
-0.028336 0.034425 0.0
-0.031896 0.033765 0.0
-0.035358 0.032738 0.0
-0.038693 0.031400 0.0
-0.041875 0.029798 0.0
-0.044884 0.027970 0.0
-0.047703 0.025944 0.0
-0.050315 0.023744 0.0
-0.052706 0.021386 0.0
-0.054864 0.018884 0.0
-0.056775 0.016249 0.0
-0.058429 0.013490 0.0
-0.059811 0.010614 0.0
-0.060911 0.007628 0.0
-0.061715 0.004542 0.0
-0.062210 0.001364 0.0
-0.062384 -0.001895 0.0
-0.062223 -0.005219 0.0
-0.061716 -0.008593 0.0
-0.060851 -0.011993 0.0
-0.059618 -0.015394 0.0
-0.058012 -0.018762 0.0
-0.056029 -0.022058 0.0
-0.053670 -0.025235 0.0
-0.050943 -0.028238 0.0
-0.047864 -0.031004 0.0
-0.044455 -0.033463 0.0
-0.040751 -0.035536 0.0
-0.036796 -0.037141 0.0
-0.032648 -0.038190 0.0
-0.028375 -0.038595 0.0
-0.024057 -0.038273 0.0
-0.019784 -0.037146 0.0
-0.015660 -0.035148 0.0
-0.011790 -0.032231 0.0
-0.008288 -0.028370 0.0
-0.005271 -0.023565 0.0
-0.002851 -0.017847 0.0
-0.001138 -0.011281 0.0
-0.000236 -0.003966 0.0
-0.000248 0.004519 0.0
-0.001168 0.012444 0.0
-0.002861 0.019224 0.0
-0.005189 0.024863 0.0
-0.008021 0.029401 0.0
-0.011237 0.032902 0.0
-0.014730 0.035453 0.0
-0.018409 0.037149 0.0
-0.022191 0.038093 0.0
-0.026011 0.038383 0.0
-0.029812 0.038114 0.0
-0.033548 0.037371 0.0
-0.037181 0.036227 0.0
-0.040681 0.034745 0.0
-0.044022 0.032977 0.0
-0.047185 0.030963 0.0
-0.050151 0.028735 0.0
-0.052904 0.026318 0.0
-0.055432 0.023731 0.0
-0.057722 0.020987 0.0
-0.059760 0.018097 0.0
-0.061534 0.015070 0.0
-0.063032 0.011914 0.0
-0.064241 0.008636 0.0
-0.065146 0.005243 0.0
-0.065734 0.001745 0.0
-0.065989 -0.001847 0.0
-0.065897 -0.005520 0.0
-0.065442 -0.009254 0.0
-0.064611 -0.013028 0.0
-0.063392 -0.016811 0.0
-0.061773 -0.020569 0.0
-0.059748 -0.024258 0.0
-0.057317 -0.027825 0.0
-0.054483 -0.031208 0.0
-0.051260 -0.034336 0.0
-0.047672 -0.037128 0.0
-0.043752 -0.039495 0.0
-0.039548 -0.041341 0.0
-0.035121 -0.042566 0.0
-0.030545 -0.043069 0.0
-0.025908 -0.042754 0.0
-0.021312 -0.041533 0.0
-0.016868 -0.039330 0.0
-0.012695 -0.036091 0.0
-0.008919 -0.031787 0.0
-0.005666 -0.026418 0.0
-0.003061 -0.020019 0.0
-0.001220 -0.012662 0.0
-0.000253 -0.004455 0.0
-0.000262 0.005029 0.0
-0.001233 0.013824 0.0
-0.003022 0.021326 0.0
-0.005479 0.027547 0.0
-0.008467 0.032536 0.0
-0.011858 0.036373 0.0
-0.015540 0.039157 0.0
-0.019413 0.040997 0.0
-0.023392 0.042008 0.0
-0.027408 0.042303 0.0
-0.031402 0.041988 0.0
-0.035325 0.041156 0.0
-0.039140 0.039890 0.0
-0.042816 0.038258 0.0
-0.046326 0.036317 0.0
-0.049651 0.034111 0.0
-0.052774 0.031676 0.0
-0.055680 0.029037 0.0
-0.058355 0.026215 0.0
-0.060786 0.023223 0.0
-0.062962 0.020074 0.0
-0.064870 0.016775 0.0
-0.066497 0.013334 0.0
-0.067828 0.009756 0.0
-0.068850 0.006050 0.0
-0.069546 0.002222 0.0
-0.069899 -0.001716 0.0
-0.069893 -0.005750 0.0
-0.069509 -0.009862 0.0
-0.068730 -0.014029 0.0
-0.067539 -0.018220 0.0
-0.065922 -0.022396 0.0
-0.063868 -0.026509 0.0
-0.061372 -0.030501 0.0
-0.058436 -0.034302 0.0
-0.055069 -0.037831 0.0
-0.051294 -0.040996 0.0
-0.047145 -0.043695 0.0
-0.042671 -0.045818 0.0
-0.037937 -0.047249 0.0
-0.033025 -0.047874 0.0
-0.028031 -0.047580 0.0
-0.023067 -0.046267 0.0
-0.018259 -0.043849 0.0
-0.013740 -0.040264 0.0
-0.009648 -0.035481 0.0
-0.006124 -0.029500 0.0
-0.003304 -0.022362 0.0
-0.001315 -0.014148 0.0
-0.000272 -0.004980 0.0
-0.000277 0.005569 0.0
-0.001305 0.015283 0.0
-0.003198 0.023548 0.0
-0.005797 0.030382 0.0
-0.008955 0.035847 0.0
-0.012537 0.040036 0.0
-0.016422 0.043061 0.0
-0.020504 0.045048 0.0
-0.024696 0.046128 0.0
-0.028922 0.046426 0.0
-0.033121 0.046059 0.0
-0.037244 0.045132 0.0
-0.041252 0.043737 0.0
-0.045114 0.041948 0.0
-0.048804 0.039827 0.0
-0.052302 0.037424 0.0
-0.055591 0.034775 0.0
-0.058659 0.031910 0.0
-0.061491 0.028848 0.0
-0.064075 0.025606 0.0
-0.066401 0.022193 0.0
-0.068454 0.018618 0.0
-0.070223 0.014887 0.0
-0.071693 0.011005 0.0
-0.072848 0.006978 0.0
-0.073670 0.002813 0.0
-0.074141 -0.001481 0.0
-0.074241 -0.005891 0.0
-0.073948 -0.010398 0.0
-0.073241 -0.014980 0.0
-0.072099 -0.019603 0.0
-0.070503 -0.024227 0.0
-0.068437 -0.028799 0.0
-0.065891 -0.033254 0.0
-0.062861 -0.037516 0.0
-0.059353 -0.041492 0.0
-0.055387 -0.045077 0.0
-0.050996 -0.048154 0.0
-0.046231 -0.050598 0.0
-0.041161 -0.052274 0.0
-0.035875 -0.053049 0.0
-0.030479 -0.052795 0.0
-0.025099 -0.051395 0.0
-0.019874 -0.048753 0.0
-0.014955 -0.044798 0.0
-0.010498 -0.039496 0.0
-0.006659 -0.032849 0.0
-0.003589 -0.024904 0.0
-0.001426 -0.015757 0.0
-0.000294 -0.005546 0.0
-0.000294 0.006141 0.0
-0.001385 0.016830 0.0
-0.003392 0.025901 0.0
-0.006147 0.033383 0.0
-0.009491 0.039349 0.0
-0.013280 0.043905 0.0
-0.017385 0.047181 0.0
-0.021695 0.049320 0.0
-0.026114 0.050467 0.0
-0.030565 0.050763 0.0
-0.034984 0.050339 0.0
-0.039320 0.049311 0.0
-0.043532 0.047779 0.0
-0.047590 0.045825 0.0
-0.051469 0.043518 0.0
-0.055150 0.040911 0.0
-0.058616 0.038044 0.0
-0.061854 0.034947 0.0
-0.064853 0.031642 0.0
-0.067601 0.028145 0.0
-0.070087 0.024466 0.0
-0.072300 0.020612 0.0
-0.074226 0.016588 0.0
-0.075849 0.012398 0.0
-0.077155 0.008045 0.0
-0.078123 0.003536 0.0
-0.078734 -0.001123 0.0
-0.078963 -0.005920 0.0
-0.078786 -0.010839 0.0
-0.078177 -0.015855 0.0
-0.077110 -0.020936 0.0
-0.075560 -0.026039 0.0
-0.073505 -0.031107 0.0
-0.070928 -0.036070 0.0
-0.067818 -0.040840 0.0
-0.064177 -0.045316 0.0
-0.060020 -0.049376 0.0
-0.055379 -0.052888 0.0
-0.050304 -0.055704 0.0
-0.044868 -0.057673 0.0
-0.039167 -0.058637 0.0
-0.033319 -0.058450 0.0
-0.027465 -0.056975 0.0
-0.021762 -0.054101 0.0
-0.016380 -0.049751 0.0
-0.011497 -0.043884 0.0
-0.007289 -0.036508 0.0
-0.003925 -0.027680 0.0
-0.001558 -0.017511 0.0
-0.000321 -0.006161 0.0
-0.000313 0.006748 0.0
-0.001473 0.018472 0.0
-0.003606 0.028399 0.0
-0.006533 0.036566 0.0
-0.010081 0.043059 0.0
-0.014096 0.047999 0.0
-0.018441 0.051536 0.0
-0.022995 0.053829 0.0
-0.027659 0.055041 0.0
-0.032351 0.055331 0.0
-0.037003 0.054843 0.0
-0.041564 0.053704 0.0
-0.045993 0.052027 0.0
-0.050258 0.049900 0.0
-0.054336 0.047400 0.0
-0.058207 0.044581 0.0
-0.061858 0.041490 0.0
-0.065276 0.038157 0.0
-0.068451 0.034606 0.0
-0.071373 0.030851 0.0
-0.074031 0.026904 0.0
-0.076415 0.022770 0.0
-0.078512 0.018452 0.0
-0.080306 0.013952 0.0
-0.081782 0.009272 0.0
-0.082918 0.004414 0.0
-0.083692 -0.000617 0.0
-0.084077 -0.005812 0.0
-0.084045 -0.011156 0.0
-0.083566 -0.016626 0.0
-0.082606 -0.022191 0.0
-0.081134 -0.027806 0.0
-0.079120 -0.033410 0.0
-0.076538 -0.038926 0.0
-0.073372 -0.044260 0.0
-0.069614 -0.049294 0.0
-0.065274 -0.053895 0.0
-0.060377 -0.057907 0.0
-0.054976 -0.061162 0.0
-0.049144 -0.063482 0.0
-0.042986 -0.064687 0.0
-0.036631 -0.064602 0.0
-0.030237 -0.063070 0.0
-0.023983 -0.059963 0.0
-0.018063 -0.055191 0.0
-0.012680 -0.048710 0.0
-0.008037 -0.040533 0.0
-0.004324 -0.030732 0.0
-0.001714 -0.019436 0.0
-0.000352 -0.006834 0.0
-0.000334 0.007396 0.0
-0.001571 0.020221 0.0
-0.003844 0.031057 0.0
-0.006959 0.039949 0.0
-0.010731 0.046997 0.0
-0.014994 0.052339 0.0
-0.019598 0.056144 0.0
-0.024417 0.058593 0.0
-0.029344 0.059868 0.0
-0.034293 0.060144 0.0
-0.039193 0.059583 0.0
-0.043992 0.058324 0.0
-0.048648 0.056491 0.0
-0.053129 0.054183 0.0
-0.057414 0.051479 0.0
-0.061484 0.048443 0.0
-0.065326 0.045122 0.0
-0.068931 0.041548 0.0
-0.072290 0.037748 0.0
-0.075394 0.033735 0.0
-0.078235 0.029520 0.0
-0.080802 0.025106 0.0
-0.083084 0.020495 0.0
-0.085067 0.015686 0.0
-0.086732 0.010678 0.0
-0.088059 0.005470 0.0
-0.089023 0.000064 0.0
-0.089595 -0.005536 0.0
-0.089742 -0.011317 0.0
-0.089428 -0.017259 0.0
-0.088613 -0.023333 0.0
-0.087259 -0.029491 0.0
-0.085326 -0.035672 0.0
-0.082778 -0.041793 0.0
-0.079588 -0.047749 0.0
-0.075739 -0.053412 0.0
-0.071231 -0.058626 0.0
-0.066084 -0.063218 0.0
-0.060345 -0.066991 0.0
-0.054090 -0.069739 0.0
-0.047430 -0.071249 0.0
-0.040508 -0.071317 0.0
-0.033501 -0.069758 0.0
-0.026611 -0.066421 0.0
-0.020063 -0.061201 0.0
-0.014092 -0.054053 0.0
-0.008932 -0.044994 0.0
-0.004803 -0.034113 0.0
-0.001902 -0.021566 0.0
-0.000390 -0.007577 0.0
-0.000357 0.008087 0.0
-0.001679 0.022088 0.0
-0.004108 0.033892 0.0
-0.007431 0.043553 0.0
-0.011449 0.051184 0.0
-0.015981 0.056946 0.0
-0.020868 0.061028 0.0
-0.025973 0.063633 0.0
-0.031182 0.064965 0.0
-0.036404 0.065219 0.0
-0.041568 0.064572 0.0
-0.046616 0.063182 0.0
-0.051508 0.061182 0.0
-0.056214 0.058680 0.0
-0.060712 0.055764 0.0
-0.064986 0.052502 0.0
-0.069026 0.048945 0.0
-0.072824 0.045128 0.0
-0.076372 0.041076 0.0
-0.079666 0.036805 0.0
-0.082697 0.032322 0.0
-0.085459 0.027632 0.0
-0.087939 0.022732 0.0
-0.090126 0.017618 0.0
-0.092002 0.012287 0.0
-0.093544 0.006731 0.0
-0.094727 0.000950 0.0
-0.095519 -0.005058 0.0
-0.095883 -0.011284 0.0
-0.095777 -0.017713 0.0
-0.095154 -0.024316 0.0
-0.093966 -0.031050 0.0
-0.092164 -0.037850 0.0
-0.089698 -0.044629 0.0
-0.086530 -0.051273 0.0
-0.082628 -0.057639 0.0
-0.077980 -0.063555 0.0
-0.072597 -0.068820 0.0
-0.066518 -0.073208 0.0
-0.059819 -0.076476 0.0
-0.052615 -0.078376 0.0
-0.045062 -0.078664 0.0
-0.037358 -0.077122 0.0
-0.029735 -0.073569 0.0
-0.022453 -0.067882 0.0
-0.015788 -0.060008 0.0
-0.010012 -0.049974 0.0
-0.005384 -0.037889 0.0
-0.002130 -0.023944 0.0
-0.000437 -0.008404 0.0
-0.000383 0.008828 0.0
-0.001800 0.024086 0.0
-0.004401 0.036922 0.0
-0.007954 0.047398 0.0
-0.012243 0.055646 0.0
-0.017071 0.061845 0.0
-0.022264 0.066210 0.0
-0.027677 0.068969 0.0
-0.033188 0.070350 0.0
-0.038701 0.070569 0.0
-0.044140 0.069824 0.0
-0.049449 0.068288 0.0
-0.054587 0.066106 0.0
-0.059523 0.063398 0.0
-0.064239 0.060260 0.0
-0.068721 0.056763 0.0
-0.072961 0.052964 0.0
-0.076953 0.048899 0.0
-0.080694 0.044595 0.0
-0.084181 0.040066 0.0
-0.087410 0.035321 0.0
-0.090374 0.030359 0.0
-0.093065 0.025177 0.0
-0.095472 0.019767 0.0
-0.097577 0.014119 0.0
-0.099359 0.008224 0.0
-0.100791 0.002072 0.0
-0.101839 -0.004340 0.0
-0.102462 -0.011014 0.0
-0.102612 -0.017938 0.0
-0.102235 -0.025089 0.0
-0.101272 -0.032427 0.0
-0.099661 -0.039886 0.0
-0.097341 -0.047378 0.0
-0.094253 -0.054780 0.0
-0.090352 -0.061935 0.0
-0.085608 -0.068651 0.0
-0.080018 -0.074698 0.0
-0.073610 -0.079816 0.0
-0.066453 -0.083722 0.0
-0.058667 -0.086121 0.0
-0.050418 -0.086721 0.0
-0.041927 -0.085260 0.0
-0.033461 -0.081520 0.0
-0.025322 -0.075352 0.0
-0.017834 -0.066693 0.0
-0.011321 -0.055578 0.0
-0.006091 -0.042144 0.0
-0.002410 -0.026624 0.0
-0.000494 -0.009335 0.0
-0.000412 0.009624 0.0
-0.001936 0.026230 0.0
-0.004728 0.040170 0.0
-0.008536 0.051512 0.0
-0.013123 0.060408 0.0
-0.018274 0.067061 0.0
-0.023801 0.071714 0.0
-0.029546 0.074622 0.0
-0.035379 0.076040 0.0
-0.041198 0.076210 0.0
-0.046926 0.075350 0.0
-0.052505 0.073650 0.0
-0.057893 0.071270 0.0
-0.063064 0.068341 0.0
-0.067999 0.064967 0.0
-0.072689 0.061227 0.0
-0.077128 0.057179 0.0
-0.081315 0.052863 0.0
-0.085249 0.048306 0.0
-0.088930 0.043523 0.0
-0.092358 0.038520 0.0
-0.095530 0.033296 0.0
-0.098441 0.027842 0.0
-0.101080 0.022147 0.0
-0.103432 0.016197 0.0
-0.105478 0.009974 0.0
-0.107190 0.003465 0.0
-0.108531 -0.003344 0.0
-0.109458 -0.010461 0.0
-0.109917 -0.017883 0.0
-0.109846 -0.025593 0.0