# vtk DataFile Version 3.0
Scalar Field
ASCII
DATASET RECTILINEAR_GRID
DIMENSIONS 50 50 1
X_COORDINATES 50 double
0.100000 0.300000 0.500000 0.700000 0.900000 1.100000 1.300000 1.500000 1.700000 1.900000 2.100000 2.300000 2.500000 2.700000 2.900000 3.100000 3.300000 3.500000 3.700000 3.900000 4.100000 4.300000 4.500000 4.700000 4.900000 5.100000 5.300000 5.500000 5.700000 5.900000 6.100000 6.300000 6.500000 6.700000 6.900000 7.100000 7.300000 7.500000 7.700000 7.900000 8.100000 8.300000 8.500000 8.700000 8.900000 9.100000 9.300000 9.500000 9.700000 9.900000 
Y_COORDINATES 50 double
0.100000 0.300000 0.500000 0.700000 0.900000 1.100000 1.300000 1.500000 1.700000 1.900000 2.100000 2.300000 2.500000 2.700000 2.900000 3.100000 3.300000 3.500000 3.700000 3.900000 4.100000 4.300000 4.500000 4.700000 4.900000 5.100000 5.300000 5.500000 5.700000 5.900000 6.100000 6.300000 6.500000 6.700000 6.900000 7.100000 7.300000 7.500000 7.700000 7.900000 8.100000 8.300000 8.500000 8.700000 8.900000 9.100000 9.300000 9.500000 9.700000 9.900000 
Z_COORDINATES 1 double
0.0
POINT_DATA 2500
SCALARS Skalarfeld double 1
LOOKUP_TABLE default
-0.010005
-0.010061
-0.010201
-0.010392
-0.010602
-0.010807
-0.010990
-0.011137
-0.011241
-0.011297
-0.011301
-0.011252
-0.011149
-0.010992
-0.010782
-0.010520
-0.010207
-0.009844
-0.009434
-0.008979
-0.008483
-0.007949
-0.007382
-0.006786
-0.006169
-0.005538
-0.004900
-0.004265
-0.003642
-0.003041
-0.002472
-0.001945
-0.001469
-0.001053
-0.000705
-0.000431
-0.000234
-0.000117
-0.000079
-0.000116
-0.000222
-0.000390
-0.000606
-0.000857
-0.001126
-0.001392
-0.001634
-0.001826
-0.001944
-0.001972
-0.009948
-0.010005
-0.010123
-0.010278
-0.010448
-0.010614
-0.010761
-0.010879
-0.010960
-0.010998
-0.010991
-0.010936
-0.010831
-0.010678
-0.010475
-0.010225
-0.009927
-0.009583
-0.009196
-0.008767
-0.008300
-0.007799
-0.007266
-0.006709
-0.006132
-0.005542
-0.004947
-0.004355
-0.003776
-0.003217
-0.002688
-0.002198
-0.001756
-0.001369
-0.001043
-0.000785
-0.000597
-0.000480
-0.000434
-0.000456
-0.000539
-0.000676
-0.000855
-0.001065
-0.001289
-0.001510
-0.001711
-0.001871
-0.001973
-0.002001
-0.009807
-0.009888
-0.010007
-0.010149
-0.010297
-0.010439
-0.010563
-0.010660
-0.010723
-0.010747
-0.010730
-0.010670
-0.010565
-0.010414
-0.010219
-0.009978
-0.009694
-0.009368
-0.009001
-0.008595
-0.008154
-0.007681
-0.007179
-0.006653
-0.006109
-0.005554
-0.004994
-0.004437
-0.003892
-0.003366
-0.002869
-0.002408
-0.001991
-0.001626
-0.001318
-0.001072
-0.000891
-0.000775
-0.000725
-0.000737
-0.000804
-0.000921
-0.001076
-0.001258
-0.001454
-0.001649
-0.001828
-0.001975
-0.002077
-0.002118
-0.009612
-0.009732
-0.009869
-0.010013
-0.010155
-0.010284
-0.010394
-0.010476
-0.010527
-0.010541
-0.010517
-0.010453
-0.010348
-0.010201
-0.010012
-0.009781
-0.009510
-0.009199
-0.008849
-0.008464
-0.008045
-0.007595
-0.007119
-0.006620
-0.006103
-0.005575
-0.005043
-0.004513
-0.003994
-0.003494
-0.003020
-0.002581
-0.002183
-0.001833
-0.001538
-0.001302
-0.001126
-0.001013
-0.000961
-0.000967
-0.001026
-0.001130
-0.001271
-0.001439
-0.001621
-0.001804
-0.001977
-0.002126
-0.002240
-0.002308
-0.009393
-0.009560
-0.009724
-0.009881
-0.010026
-0.010152
-0.010255
-0.010330
-0.010372
-0.010380
-0.010352
-0.010286
-0.010181
-0.010038
-0.009855
-0.009633
-0.009373
-0.009076
-0.008743
-0.008375
-0.007975
-0.007545
-0.007089
-0.006612
-0.006117
-0.005610
-0.005098
-0.004589
-0.004089
-0.003607
-0.003149
-0.002724
-0.002339
-0.002000
-0.001714
-0.001483
-0.001312
-0.001201
-0.001148
-0.001153
-0.001208
-0.001308
-0.001445
-0.001608
-0.001787
-0.001971
-0.002150
-0.002311
-0.002448
-0.002553
-0.009175
-0.009390
-0.009586
-0.009763
-0.009918
-0.010048
-0.010150
-0.010222
-0.010261
-0.010266
-0.010236
-0.010169
-0.010067
-0.009927
-0.009750
-0.009537
-0.009288
-0.009003
-0.008683
-0.008330
-0.007946
-0.007533
-0.007094
-0.006633
-0.006154
-0.005663
-0.005166
-0.004670
-0.004183
-0.003711
-0.003263
-0.002846
-0.002467
-0.002134
-0.001851
-0.001624
-0.001455
-0.001346
-0.001295
-0.001300
-0.001357
-0.001459
-0.001598
-0.001765
-0.001951
-0.002146
-0.002339
-0.002523
-0.002689
-0.002833
-0.008976
-0.009238
-0.009470
-0.009670
-0.009840
-0.009979
-0.010084
-0.010157
-0.010196
-0.010201
-0.010171
-0.010106
-0.010006
-0.009871
-0.009701
-0.009495
-0.009256
-0.008981
-0.008674
-0.008333
-0.007962
-0.007562
-0.007136
-0.006688
-0.006220
-0.005739
-0.005251
-0.004762
-0.004281
-0.003814
-0.003368
-0.002953
-0.002576
-0.002242
-0.001960
-0.001732
-0.001564
-0.001455
-0.001406
-0.001414
-0.001475
-0.001584
-0.001732
-0.001911
-0.002111
-0.002324
-0.002540
-0.002752
-0.002952
-0.003138
-0.008811
-0.009120
-0.009387
-0.009613
-0.009800
-0.009950
-0.010063
-0.010140
-0.010182
-0.010188
-0.010161
-0.010099
-0.010003
-0.009873
-0.009709
-0.009512
-0.009281
-0.009016
-0.008719
-0.008390
-0.008029
-0.007639
-0.007223
-0.006782
-0.006322
-0.005846
-0.005361
-0.004874
-0.004392
-0.003922
-0.003474
-0.003054
-0.002672
-0.002333
-0.002046
-0.001814
-0.001643
-0.001533
-0.001486
-0.001498
-0.001567
-0.001686
-0.001847
-0.002043
-0.002265
-0.002502
-0.002747
-0.002992
-0.003231
-0.003459
-0.008692
-0.009046
-0.009347
-0.009600
-0.009807
-0.009970
-0.010093
-0.010176
-0.010223
-0.010234
-0.010210
-0.010152
-0.010061
-0.009937
-0.009781
-0.009591
-0.009369
-0.009113
-0.008825
-0.008504
-0.008152
-0.007770
-0.007359
-0.006924
-0.006466
-0.005990
-0.005503
-0.005011
-0.004523
-0.004046
-0.003588
-0.003158
-0.002764
-0.002415
-0.002117
-0.001877
-0.001700
-0.001587
-0.001540
-0.001557
-0.001634
-0.001766
-0.001945
-0.002163
-0.002411
-0.002679
-0.002959
-0.003241
-0.003520
-0.003792
-0.008629
-0.009026
-0.009362
-0.009641
-0.009868
-0.010046
-0.010180
-0.010272
-0.010325
-0.010342
-0.010323
-0.010271
-0.010186
-0.010069
-0.009920
-0.009738
-0.009524
-0.009277
-0.008997
-0.008684
-0.008338
-0.007961
-0.007554
-0.007120
-0.006661
-0.006181
-0.005687
-0.005186
-0.004686
-0.004194
-0.003720
-0.003273
-0.002861
-0.002495
-0.002181
-0.001928
-0.001740
-0.001621
-0.001572
-0.001593
-0.001679
-0.001826
-0.002026
-0.002270
-0.002549
-0.002853
-0.003171
-0.003496
-0.003819
-0.004135
-0.008633
-0.009070
-0.009439
-0.009744
-0.009992
-0.010186
-0.010332
-0.010434
-0.010495
-0.010519
-0.010507
-0.010462
-0.010384
-0.010274
-0.010133
-0.009960
-0.009754
-0.009515
-0.009242
-0.008936
-0.008596
-0.008222
-0.007816
-0.007380
-0.006917
-0.006430
-0.005924
-0.005408
-0.004890
-0.004378
-0.003881
-0.003410
-0.002974
-0.002584
-0.002248
-0.001975
-0.001771
-0.001641
-0.001587
-0.001609
-0.001704
-0.001867
-0.002090
-0.002364
-0.002678
-0.003021
-0.003384
-0.003755
-0.004126
-0.004489
-0.008710
-0.009186
-0.009587
-0.009918
-0.010186
-0.010396
-0.010555
-0.010668
-0.010738
-0.010770
-0.010767
-0.010730
-0.010660
-0.010559
-0.010427
-0.010262
-0.010065
-0.009834
-0.009569
-0.009269
-0.008933
-0.008562
-0.008156
-0.007716
-0.007246
-0.006748
-0.006226
-0.005691
-0.005150
-0.004611
-0.004085
-0.003583
-0.003115
-0.002692
-0.002326
-0.002026
-0.001800
-0.001653
-0.001590
-0.001611
-0.001713
-0.001891
-0.002138
-0.002443
-0.002797
-0.003185
-0.003596
-0.004019
-0.004442
-0.004857
-0.008868
-0.009382
-0.009814
-0.010170
-0.010458
-0.010685
-0.010858
-0.010982
-0.011062
-0.011104
-0.011110
-0.011082
-0.011022
-0.010931
-0.010808
-0.010654
-0.010466
-0.010245
-0.009988
-0.009694
-0.009363
-0.008993
-0.008586
-0.008141
-0.007662
-0.007150
-0.006610
-0.006050
-0.005481
-0.004909
-0.004347
-0.003806
-0.003297
-0.002834
-0.002429
-0.002093
-0.001836
-0.001666
-0.001587
-0.001601
-0.001706
-0.001899
-0.002170
-0.002510
-0.002905
-0.003343
-0.003808
-0.004288
-0.004769
-0.005240
-0.009115
-0.009666
-0.010127
-0.010508
-0.010816
-0.011059
-0.011246
-0.011382
-0.011474
-0.011526
-0.011543
-0.011526
-0.011477
-0.011397
-0.011286
-0.011143
-0.010967
-0.010756
-0.010508
-0.010222
-0.009896
-0.009529
-0.009120
-0.008670
-0.008180
-0.007654
-0.007092
-0.006505
-0.005901
-0.005292
-0.004686
-0.004098
-0.003540
-0.003026
-0.002572
-0.002190
-0.001892
-0.001688
-0.001585
-0.001585
-0.001690
-0.001893
-0.002188
-0.002562
-0.003003
-0.003494
-0.004019
-0.004562
-0.005108
-0.005643
-0.009457
-0.010043
-0.010534
-0.010939
-0.011266
-0.011526
-0.011727
-0.011876
-0.011980
-0.012045
-0.012073
-0.012069
-0.012033
-0.011966
-0.011869
-0.011739
-0.011576
-0.011378
-0.011141
-0.010865
-0.010546
-0.010183
-0.009774
-0.009320
-0.008820
-0.008276
-0.007693
-0.007075
-0.006434
-0.005780
-0.005124
-0.004480
-0.003863
-0.003288
-0.002773
-0.002332
-0.001981
-0.001731
-0.001593
-0.001571
-0.001667
-0.001876
-0.002192
-0.002601
-0.003089
-0.003638
-0.004229
-0.004842
-0.005461
-0.006068
-0.009902
-0.010522
-0.011041
-0.011469
-0.011816
-0.012093
-0.012308
-0.012471
-0.012588
-0.012666
-0.012708
-0.012718
-0.012697
-0.012646
-0.012565
-0.012452
-0.012305
-0.012122
-0.011900
-0.011637
-0.011328
-0.010972
-0.010566
-0.010109
-0.009600
-0.009042
-0.008436
-0.007785
-0.007103
-0.006400
-0.005687
-0.004979
-0.004292
-0.003644
-0.003053
-0.002540
-0.002120
-0.001811
-0.001624
-0.001567
-0.001644
-0.001852
-0.002184
-0.002626
-0.003163
-0.003773
-0.004436
-0.005128
-0.005829
-0.006519
-0.010456
-0.011108
-0.011655
-0.012106
-0.012472
-0.012766
-0.012996
-0.013174
-0.013305
-0.013398
-0.013456
-0.013482
-0.013479
-0.013447
-0.013385
-0.013292
-0.013165
-0.013002
-0.012799
-0.012552
-0.012258
-0.011913
-0.011514
-0.011058
-0.010545
-0.009973
-0.009346
-0.008663
-0.007938
-0.007182
-0.006405
-0.005624
-0.004856
-0.004122
-0.003441
-0.002838
-0.002333
-0.001945
-0.001692
-0.001584
-0.001629
-0.001825
-0.002165
-0.002638
-0.003223
-0.003898
-0.004639
-0.005418
-0.006212
-0.006997
-0.011124
-0.011809
-0.012382
-0.012855
-0.013241
-0.013551
-0.013798
-0.013991
-0.014138
-0.014247
-0.014323
-0.014369
-0.014386
-0.014376
-0.014337
-0.014268
-0.014166
-0.014028
-0.013849
-0.013625
-0.013352
-0.013024
-0.012638
-0.012189
-0.011676
-0.011097
-0.010452
-0.009738
-0.008971
-0.008158
-0.007313
-0.006451
-0.005591
-0.004756
-0.003969
-0.003257
-0.002645
-0.002158
-0.001817
-0.001638
-0.001632
-0.001801
-0.002140
-0.002636
-0.003268
-0.004010
-0.004835
-0.005711
-0.006609
-0.007504
-0.011914
-0.012630
-0.013229
-0.013724
-0.014129
-0.014456
-0.014719
-0.014929
-0.015094
-0.015221
-0.015317
-0.015385
-0.015427
-0.015442
-0.015432
-0.015392
-0.015321
-0.015214
-0.015066
-0.014872
-0.014627
-0.014324
-0.013959
-0.013526
-0.013020
-0.012439
-0.011783
-0.011043
-0.010235
-0.009366
-0.008449
-0.007499
-0.006537
-0.005586
-0.004674
-0.003831
-0.003089
-0.002476
-0.002022
-0.001747
-0.001668
-0.001790
-0.002112
-0.002621
-0.003295
-0.004106
-0.005020
-0.006002
-0.007018
-0.008037
-0.012831
-0.013576
-0.014201
-0.014717
-0.015141
-0.015486
-0.015767
-0.015994
-0.016178
-0.016326
-0.016445
-0.016538
-0.016608
-0.016654
-0.016677
-0.016672
-0.016638
-0.016569
-0.016461
-0.016306
-0.016099
-0.015832
-0.015497
-0.015089
-0.014602
-0.014029
-0.013368
-0.012614
-0.011769
-0.010846
-0.009855
-0.008812
-0.007736
-0.006656
-0.005600
-0.004603
-0.003703
-0.002935
-0.002336
-0.001934
-0.001752
-0.001803
-0.002088
-0.002595
-0.003304
-0.004181
-0.005189
-0.006287
-0.007434
-0.008595
-0.013881
-0.014655
-0.015304
-0.015841
-0.016284
-0.016647
-0.016946
-0.017192
-0.017397
-0.017568
-0.017713
-0.017835
-0.017937
-0.018018
-0.018079
-0.018117
-0.018127
-0.018106
-0.018046
-0.017941
-0.017782
-0.017562
-0.017272
-0.016902
-0.016445
-0.015892
-0.015239
-0.014481
-0.013608
-0.012636
-0.011574
-0.010434
-0.009238
-0.008014
-0.006794
-0.005619
-0.004530
-0.003574
-0.002793
-0.002227
-0.001907
-0.001854
-0.002074
-0.002560
-0.003290
-0.004229
-0.005334
-0.006556
-0.007849
-0.009171
-0.015069
-0.015870
-0.016542
-0.017101
-0.017563
-0.017945
-0.018262
-0.018528
-0.018755
-0.018952
-0.019125
-0.019279
-0.019417
-0.019540
-0.019646
-0.019732
-0.019796
-0.019830
-0.019829
-0.019785
-0.019689
-0.019530
-0.019298
-0.018982
-0.018571
-0.018055
-0.017426
-0.016676
-0.015788
-0.014778
-0.013648
-0.012413
-0.011092
-0.009712
-0.008310
-0.006930
-0.005621
-0.004438
-0.003434
-0.002659
-0.002158
-0.001960
-0.002080
-0.002518
-0.003250
-0.004242
-0.005443
-0.006799
-0.008252
-0.009755
-0.016398
-0.017226
-0.017922
-0.018501
-0.018982
-0.019382
-0.019719
-0.020007
-0.020257
-0.020481
-0.020686
-0.020876
-0.021054
-0.021222
-0.021379
-0.021522
-0.021647
-0.021748
-0.021817
-0.021847
-0.021826
-0.021744
-0.021587
-0.021343
-0.020997
-0.020537
-0.019949
-0.019224
-0.018341
-0.017305
-0.016120
-0.014794
-0.013345
-0.011801
-0.010200
-0.008590
-0.007028
-0.005577
-0.004303
-0.003269
-0.002534
-0.002142
-0.002119
-0.002471
-0.003181
-0.004210
-0.005504
-0.006999
-0.008628
-0.010333
-0.017874
-0.018728
-0.019446
-0.020046
-0.020546
-0.020965
-0.021322
-0.021631
-0.021907
-0.022159
-0.022397
-0.022625
-0.022848
-0.023066
-0.023280
-0.023486
-0.023681
-0.023858
-0.024010
-0.024127
-0.024198
-0.024209
-0.024146
-0.023993
-0.023734
-0.023350
-0.022826
-0.022146
-0.021291
-0.020249
-0.019022
-0.017615
-0.016042
-0.014330
-0.012516
-0.010653
-0.008805
-0.007043
-0.005448
-0.004099
-0.003070
-0.002425
-0.002203
-0.002424
-0.003076
-0.004120
-0.005499
-0.007136
-0.008955
-0.010886
-0.019501
-0.020380
-0.021121
-0.021741
-0.022259
-0.022697
-0.023073
-0.023404
-0.023705
-0.023986
-0.024258
-0.024527
-0.024797
-0.025070
-0.025346
-0.025622
-0.025895
-0.026158
-0.026404
-0.026622
-0.026800
-0.026922
-0.026973
-0.026933
-0.026782
-0.026500
-0.026064
-0.025454
-0.024651
-0.023628
-0.022380
-0.020908
-0.019220
-0.017340
-0.015305
-0.013169
-0.011002
-0.008887
-0.006917
-0.005190
-0.003801
-0.002833
-0.002348
-0.002379
-0.002927
-0.003957
-0.005404
-0.007183
-0.009205
-0.011385
-0.021280
-0.022185
-0.022948
-0.023588
-0.024126
-0.024582
-0.024976
-0.025328
-0.025652
-0.025963
-0.026269
-0.026579
-0.026898
-0.027227
-0.027569
-0.027921
-0.028279
-0.028637
-0.028988
-0.029320
-0.029620
-0.029871
-0.030055
-0.030151
-0.030133
-0.029978
-0.029658
-0.029147
-0.028423
-0.027446
-0.026204
-0.024688
-0.022901
-0.020860
-0.018601
-0.016179
-0.013666
-0.011156
-0.008758
-0.006587
-0.004762
-0.003392
-0.002566
-0.002338
-0.002725
-0.003698
-0.005190
-0.007107
-0.009341
-0.011795
-0.023216
-0.024147
-0.024934
-0.025594
-0.026149
-0.026621
-0.027033
-0.027403
-0.027749
-0.028086
-0.028424
-0.028774
-0.029141
-0.029528
-0.029938
-0.030369
-0.030817
-0.031278
-0.031743
-0.032201
-0.032637
-0.033034
-0.033371
-0.033624
-0.033765
-0.033763
-0.033588
-0.033205
-0.032584
-0.031688
-0.030484
-0.028952
-0.027088
-0.024901
-0.022424
-0.019707
-0.016827
-0.013886
-0.011006
-0.008324
-0.005984
-0.004127
-0.002870
-0.002300
-0.002453
-0.003315
-0.004820
-0.006861
-0.009316
-0.012067
-0.025310
-0.026270
-0.027081
-0.027762
-0.028333
-0.028820
-0.029245
-0.029629
-0.029992
-0.030351
-0.030717
-0.031103
-0.031515
-0.031958
-0.032435
-0.032946
-0.033489
-0.034057
-0.034644
-0.035237
-0.035822
-0.036379
-0.036887
-0.037318
-0.037640
-0.037819
-0.037816
-0.037592
-0.037107
-0.036323
-0.035191
-0.033675
-0.031762
-0.029452
-0.026768
-0.023758
-0.020498
-0.017096
-0.013686
-0.010427
-0.007491
-0.005052
-0.003266
-0.002256
-0.002090
-0.002773
-0.004245
-0.006390
-0.009068
-0.012139
-0.027567
-0.028559
-0.029396
-0.030097
-0.030684
-0.031181
-0.031613
-0.032005
-0.032378
-0.032751
-0.033138
-0.033552
-0.034004
-0.034498
-0.035039
-0.035628
-0.036264
-0.036942
-0.037654
-0.038389
-0.039132
-0.039863
-0.040556
-0.041183
-0.041707
-0.042090
-0.042288
-0.042252
-0.041936
-0.041293
-0.040269
-0.038806
-0.036877
-0.034472
-0.031602
-0.028309
-0.024665
-0.020781
-0.016802
-0.012904
-0.009290
-0.006172
-0.003750
-0.002190
-0.001604
-0.002025
-0.003404
-0.005623
-0.008521
-0.011933
-0.029989
-0.031019
-0.031886
-0.032607
-0.033206
-0.033707
-0.034140
-0.034530
-0.034902
-0.035277
-0.035673
-0.036106
-0.036586
-0.037122
-0.037720
-0.038382
-0.039108
-0.039894
-0.040732
-0.041612
-0.042519
-0.043430
-0.044320
-0.045157
-0.045901
-0.046509
-0.046930
-0.047109
-0.046991
-0.046519
-0.045637
-0.044263
-0.042354
-0.039887
-0.036860
-0.033303
-0.029282
-0.024906
-0.020326
-0.015737
-0.011370
-0.007474
-0.004302
-0.002073
-0.000949
-0.001007
-0.002220
-0.004471
-0.007577
-0.011350
-0.032583
-0.033658
-0.034559
-0.035301
-0.035907
-0.036405
-0.036826
-0.037200
-0.037555
-0.037917
-0.038307
-0.038742
-0.039237
-0.039802
-0.040445
-0.041170
-0.041978
-0.042865
-0.043827
-0.044851
-0.045922
-0.047017
-0.048110
-0.049166
-0.050142
-0.050990
-0.051653
-0.052069
-0.052172
-0.051893
-0.051185
-0.049936
-0.048085
-0.045592
-0.042441
-0.038646
-0.034264
-0.029397
-0.024199
-0.018877
-0.013688
-0.008921
-0.004882
-0.001854
-0.000063
0.000360
-0.000596
-0.002820
-0.006116
-0.010264
-0.035357
-0.036488
-0.037429
-0.038191
-0.038798
-0.039281
-0.039674
-0.040013
-0.040331
-0.040658
-0.041019
-0.041436
-0.041926
-0.042502
-0.043174
-0.043948
-0.044825
-0.045805
-0.046881
-0.048043
-0.049274
-0.050553
-0.051849
-0.053127
-0.054341
-0.055437
-0.056354
-0.057022
-0.057367
-0.057310
-0.056780
-0.055691
-0.053932
-0.051448
-0.048207
-0.044206
-0.039487
-0.034141
-0.028319
-0.022235
-0.016166
-0.010442
-0.005421
-0.001459
0.001142
0.002180
0.001591
-0.000534
-0.003989
-0.008521
-0.038322
-0.039526
-0.040515
-0.041296
-0.041894
-0.042345
-0.042688
-0.042966
-0.043219
-0.043482
-0.043786
-0.044158
-0.044618
-0.045182
-0.045862
-0.046666
-0.047597
-0.048654
-0.049833
-0.051122
-0.052505
-0.053959
-0.055454
-0.056951
-0.058401
-0.059746
-0.060920
-0.061847
-0.062443
-0.062620
-0.062288
-0.061376
-0.059734
-0.057289
-0.053989
-0.049815
-0.044787
-0.038982
-0.032540
-0.025678
-0.018685
-0.011927
-0.005816
-0.000782
0.002782
0.004586
0.004495
0.002559
-0.001011
-0.005933
-0.041497
-0.042796
-0.043841
-0.044638
-0.045214
-0.045610
-0.045873
-0.046056
-0.046207
-0.046370
-0.046582
-0.046875
-0.047274
-0.047798
-0.048461
-0.049272
-0.050236
-0.051352
-0.052616
-0.054018
-0.055540
-0.057158
-0.058840
-0.060546
-0.062223
-0.063811
-0.065237
-0.066420
-0.067266
-0.067677
-0.067549
-0.066821
-0.065310
-0.062924
-0.059592
-0.055272
-0.049963
-0.043722
-0.036674
-0.029027
-0.021080
-0.013222
-0.005919
0.000323
0.005011
0.007749
0.008305
0.006670
0.003043
-0.002265
-0.044909
-0.046332
-0.047446
-0.048254
-0.048787
-0.049094
-0.049237
-0.049279
-0.049282
-0.049298
-0.049375
-0.049550
-0.049851
-0.050302
-0.050918
-0.051709
-0.052682
-0.053836
-0.055167
-0.056662
-0.058305
-0.060070
-0.061924
-0.063823
-0.065712
-0.067528
-0.069192
-0.070616
-0.071700
-0.072336
-0.072406
-0.071852
-0.070474
-0.068155
-0.064804
-0.060356
-0.054787
-0.048132
-0.040492
-0.032063
-0.023139
-0.014127
-0.005538
0.002046
0.008026
0.011880
0.013256
0.012057
0.008448
0.002763
-0.048602
-0.050185
-0.051382
-0.052191
-0.052650
-0.052823
-0.052790
-0.052632
-0.052427
-0.052240
-0.052129
-0.052137
-0.052299
-0.052640
-0.053176
-0.053920
-0.054876
-0.056045
-0.057419
-0.058988
-0.060732
-0.062624
-0.064629
-0.066700
-0.068780
-0.070800
-0.072679
-0.074322
-0.075623
-0.076466
-0.076725
-0.076294
-0.075042
-0.072784
-0.069411
-0.064838
-0.059018
-0.051959
-0.043738
-0.034527
-0.024608
-0.014395
-0.004433
0.004626
0.012074
0.017243
0.019636
0.019033
0.015540
0.009496
-0.052636
-0.054432
-0.055725
-0.056515
-0.056853
-0.056828
-0.056544
-0.056110
-0.055622
-0.055164
-0.054803
-0.054591
-0.054566
-0.054756
-0.055179
-0.055845
-0.056758
-0.057917
-0.059314
-0.060935
-0.062759
-0.064756
-0.066887
-0.069106
-0.071350
-0.073546
-0.075609
-0.077440
-0.078924
-0.079939
-0.080351
-0.080021
-0.078856
-0.076629
-0.073211
-0.068498
-0.062416
-0.054947
-0.046142
-0.036140
-0.025204
-0.013741
-0.002317
0.008354
0.017454
0.024161
0.027797
0.027984
0.024728
0.018354
-0.057106
-0.059179
-0.060583
-0.061319
-0.061466
-0.061149
-0.060515
-0.059704
-0.058841
-0.058029
-0.057347
-0.056856
-0.056595
-0.056594
-0.056868
-0.057427
-0.058273
-0.059400
-0.060798
-0.062450
-0.064333
-0.066411
-0.068645
-0.070983
-0.073362
-0.075701
-0.077912
-0.079890
-0.081516
-0.082658
-0.083174
-0.082911
-0.081780
-0.079534
-0.076031
-0.071138
-0.064759
-0.056854
-0.047441
-0.036621
-0.024630
-0.011856
0.001129
0.013564
0.024523
0.033019
0.038167
0.039380
0.036515
0.029849
-0.062153
-0.064590
-0.066108
-0.066728
-0.066575
-0.065837
-0.064716
-0.063400
-0.062048
-0.060785
-0.059704
-0.058869
-0.058322
-0.058089
-0.058184
-0.058612
-0.059368
-0.060444
-0.061825
-0.063491
-0.065413
-0.067552
-0.069860
-0.072292
-0.074774
-0.077220
-0.079538
-0.081620
-0.083338
-0.084555
-0.085120
-0.084869
-0.083708
-0.081383
-0.077738
-0.072610
-0.065865
-0.057472
-0.047409
-0.035713
-0.022604
-0.008433
0.006240
0.020619
0.033685
0.044274
0.051261
0.053797
0.051526
0.044619
-0.067994
-0.070902
-0.072521
-0.072914
-0.072296
-0.070948
-0.069156
-0.067171
-0.065192
-0.063369
-0.061802
-0.060559
-0.059678
-0.059179
-0.059069
-0.059345
-0.059996
-0.061011
-0.062359
-0.064025
-0.065974
-0.068156
-0.070536
-0.073040
-0.075597
-0.078120
-0.080508
-0.082646
-0.084401
-0.085629
-0.086168
-0.085847
-0.084557
-0.082046
-0.078147
-0.072710
-0.065603
-0.056655
-0.045895
-0.033210
-0.018893
-0.003199
0.013330
0.029890
0.045376
0.058447
0.067698
0.071949
0.070547
0.063469
-0.074964
-0.078478
-0.080138
-0.080111
-0.078767
-0.076537
-0.073827
-0.070966
-0.068198
-0.065691
-0.063552
-0.061840
-0.060584
-0.059794
-0.059462
-0.059578
-0.060115
-0.061070
-0.062385
-0.064052
-0.066019
-0.068240
-0.070662
-0.073217
-0.075825
-0.078393
-0.080815
-0.082968
-0.084715
-0.085900
-0.086358
-0.085905
-0.084408
-0.081627
-0.077376
-0.071484
-0.063792
-0.054166
-0.042555
-0.028966
-0.013366
0.004034
0.022643
0.041701
0.060029
0.076107
0.088208
0.094730
0.094593
0.087452
-0.083600
-0.087874
-0.089419
-0.088627
-0.086146
-0.082644
-0.078685
-0.074691
-0.070948
-0.067631
-0.064835
-0.062606
-0.060950
-0.059858
-0.059302
-0.059269
-0.059709
-0.060598
-0.061892
-0.063555
-0.065538
-0.067788
-0.070244
-0.072833
-0.075470
-0.078057
-0.080480
-0.082611
-0.084305
-0.085401
-0.085724
-0.085085
-0.083300
-0.080176
-0.075494
-0.069062
-0.060702
-0.050262
-0.037636
-0.022771
-0.005686
0.013404
0.034274
0.056266
0.078004
0.097830
0.113637
0.123264
0.125016
0.118005
-0.094791
-0.099960
-0.101020
-0.098850
-0.094585
-0.089249
-0.083609
-0.078178
-0.073259
-0.069013
-0.065498
-0.062729
-0.060666
-0.059293
-0.058541
-0.058370
-0.058730
-0.059577
-0.060860
-0.062532
-0.064537
-0.066816
-0.069302
-0.071915
-0.074564
-0.077148
-0.079545
-0.081622
-0.083227
-0.084191
-0.084332
-0.083452
-0.081341
-0.077810
-0.072633
-0.065597
-0.056498
-0.045150
-0.031400
-0.015138
0.003676
0.024952
0.048430
0.073594
0.099469
0.124094
0.144903
0.158974
0.163675
0.157190
-0.110066
-0.116124
-0.115869
-0.111217
-0.104153
-0.096198
-0.088337
-0.081134
-0.074850
-0.069594
-0.065329
-0.062049
-0.059625
-0.058001
-0.057093
-0.056832
-0.057152
-0.057991
-0.059290
-0.060992
-0.063034
-0.065350
-0.067866
-0.070499
-0.073152
-0.075717
-0.078069
-0.080069
-0.081559
-0.082364
-0.082293
-0.081139
-0.078675
-0.074704
-0.069002
-0.061333
-0.051462
-0.039166
-0.024235
-0.006489
0.014206
0.037899
0.064487
0.093590
0.124296
0.155090
0.182874
0.203626
0.213211
0.208165
-0.132206
-0.138611
-0.135195
-0.126090
-0.114664
-0.103049
-0.092345
-0.083069
-0.075286
-0.069041
-0.064093
-0.060352
-0.057653
-0.055870
-0.054887
-0.054608
-0.054948
-0.055831
-0.057189
-0.058952
-0.061055
-0.063424
-0.065981
-0.068637
-0.071293
-0.073835
-0.076135
-0.078048
-0.079413
-0.080049
-0.079760
-0.078329
-0.075504
-0.071105
-0.064897
-0.056619
-0.046006
-0.032792
-0.016707
0.002517
0.025134
0.051367
0.081350
0.115017
0.151846
0.190450
0.228032
0.259248
0.277452
0.276054
-0.166584
-0.171009
-0.160370
-0.143367
-0.125309
-0.108815
-0.094682
-0.083233
-0.074024
-0.066873
-0.061419
-0.057401
-0.054587
-0.052788
-0.051853
-0.051659
-0.052104
-0.053100
-0.054570
-0.056440
-0.058637
-0.061085
-0.063701
-0.066395
-0.069064
-0.071592
-0.073848
-0.075685
-0.076937
-0.077420
-0.076934
-0.075258
-0.072109
-0.067347
-0.060708
-0.051912
-0.040666
-0.026659
-0.009558
0.010997
0.035404
0.064096
0.097530
0.136115
0.180012
0.228649
0.279722
0.327631
0.361863
0.369584
-0.224252
-0.218695
-0.192047
-0.161528
-0.133939
-0.111618
-0.093957
-0.080448
-0.070198
-0.062544
-0.056934
-0.052949
-0.050271
-0.048663
-0.047942
-0.047965
-0.048620
-0.049813
-0.051463
-0.053492
-0.055826
-0.058388
-0.061094
-0.063854
-0.066562
-0.069103
-0.071344
-0.073138
-0.074317
-0.074696
-0.074070
-0.072215
-0.068854
-0.063846
-0.056915
-0.047766
-0.036082
-0.021514
-0.003671
0.017897
0.043730
0.074492
0.111014
0.154326
0.205607
0.265876
0.334940
0.408596
0.473498
0.504132
-0.329197
-0.287708
-0.227191
-0.175617
-0.136419
-0.108122
-0.087826
-0.073310
-0.062918
-0.055516
-0.050329
-0.046821
-0.044620
-0.043460
-0.043148
-0.043541
-0.044524
-0.046006
-0.047909
-0.050158
-0.052680
-0.055402
-0.058241
-0.061108
-0.063900
-0.066502
-0.068784
-0.070598
-0.071779
-0.072141
-0.071478
-0.069563
-0.066153
-0.061078
-0.054060
-0.044795
-0.032952
-0.018158
0.000019
0.022100
0.048739
0.080799
0.119465
0.166422
0.224090
0.295842
0.385766
0.496228
0.618196
0.707624
-0.533257
-0.375204
-0.252078
-0.173438
-0.124608
-0.093825
-0.073851
-0.060566
-0.051595
-0.045534
-0.041526
-0.039027
-0.037679
-0.037240
-0.037539
-0.038450
-0.039876
-0.041738
-0.043967
-0.046498
-0.049266
-0.052202
-0.055229
-0.058262
-0.061203
-0.063940
-0.066347
-0.068279
-0.069574
-0.070048
-0.069501
-0.067692
-0.064445
-0.059531
-0.052680
-0.043593
-0.031937
-0.017332
0.000670
0.022617
0.049213
0.081424
0.120646
0.169027
0.230052
0.309629
0.417899
0.571200
0.786999
1.032623
-0.934338
-0.424458
-0.222296
-0.133613
-0.089561
-0.065351
-0.051014
-0.042103
-0.036447
-0.032901
-0.030821
-0.029822
-0.029661
-0.030174
-0.031249
-0.032801
-0.034764
-0.037082
-0.039703
-0.042577
-0.045650
-0.048861
-0.052144
-0.055418
-0.058593
-0.061564
-0.064208
-0.066386
-0.067941
-0.068693
-0.068443
-0.066984
-0.064116
-0.059612
-0.053212
-0.044628
-0.033536
-0.019567
-0.002294
0.018803
0.044391
0.075373
0.113068
0.159563
0.218485
0.296839
0.409581
0.590743
0.916689
1.549749
