# vtk DataFile Version 3.0
Scalar Field
ASCII
DATASET RECTILINEAR_GRID
DIMENSIONS 50 50 1
X_COORDINATES 50 double
0.100000 0.300000 0.500000 0.700000 0.900000 1.100000 1.300000 1.500000 1.700000 1.900000 2.100000 2.300000 2.500000 2.700000 2.900000 3.100000 3.300000 3.500000 3.700000 3.900000 4.100000 4.300000 4.500000 4.700000 4.900000 5.100000 5.300000 5.500000 5.700000 5.900000 6.100000 6.300000 6.500000 6.700000 6.900000 7.100000 7.300000 7.500000 7.700000 7.900000 8.100000 8.300000 8.500000 8.700000 8.900000 9.100000 9.300000 9.500000 9.700000 9.900000 
Y_COORDINATES 50 double
0.100000 0.300000 0.500000 0.700000 0.900000 1.100000 1.300000 1.500000 1.700000 1.900000 2.100000 2.300000 2.500000 2.700000 2.900000 3.100000 3.300000 3.500000 3.700000 3.900000 4.100000 4.300000 4.500000 4.700000 4.900000 5.100000 5.300000 5.500000 5.700000 5.900000 6.100000 6.300000 6.500000 6.700000 6.900000 7.100000 7.300000 7.500000 7.700000 7.900000 8.100000 8.300000 8.500000 8.700000 8.900000 9.100000 9.300000 9.500000 9.700000 9.900000 
Z_COORDINATES 1 double
0.0
POINT_DATA 2500
SCALARS Skalarfeld double 1
LOOKUP_TABLE default
-0.018878
-0.018947
-0.019069
-0.019202
-0.019317
-0.019395
-0.019426
-0.019405
-0.019328
-0.019197
-0.019012
-0.018774
-0.018488
-0.018153
-0.017774
-0.017353
-0.016891
-0.016393
-0.015860
-0.015296
-0.014704
-0.014087
-0.013449
-0.012794
-0.012125
-0.011447
-0.010764
-0.010082
-0.009403
-0.008734
-0.008080
-0.007445
-0.006835
-0.006255
-0.005710
-0.005204
-0.004743
-0.004332
-0.003976
-0.003677
-0.003440
-0.003267
-0.003160
-0.003119
-0.003139
-0.003215
-0.003333
-0.003473
-0.003601
-0.003675
-0.018809
-0.018878
-0.018976
-0.019078
-0.019163
-0.019217
-0.019230
-0.019197
-0.019115
-0.018982
-0.018800
-0.018568
-0.018289
-0.017964
-0.017596
-0.017187
-0.016739
-0.016255
-0.015737
-0.015189
-0.014613
-0.014013
-0.013392
-0.012755
-0.012104
-0.011445
-0.010781
-0.010117
-0.009458
-0.008808
-0.008173
-0.007557
-0.006965
-0.006402
-0.005874
-0.005384
-0.004938
-0.004540
-0.004193
-0.003902
-0.003669
-0.003496
-0.003384
-0.003330
-0.003332
-0.003381
-0.003467
-0.003572
-0.003675
-0.003749
-0.018686
-0.018781
-0.018880
-0.018970
-0.019040
-0.019080
-0.019081
-0.019040
-0.018953
-0.018819
-0.018638
-0.018410
-0.018137
-0.017820
-0.017460
-0.017061
-0.016623
-0.016150
-0.015645
-0.015109
-0.014546
-0.013960
-0.013353
-0.012729
-0.012093
-0.011448
-0.010799
-0.010149
-0.009504
-0.008869
-0.008248
-0.007645
-0.007067
-0.006517
-0.006000
-0.005522
-0.005086
-0.004697
-0.004357
-0.004071
-0.003840
-0.003667
-0.003549
-0.003487
-0.003477
-0.003511
-0.003581
-0.003675
-0.003779
-0.003878
-0.018551
-0.018679
-0.018791
-0.018884
-0.018949
-0.018982
-0.018976
-0.018930
-0.018840
-0.018705
-0.018525
-0.018300
-0.018031
-0.017719
-0.017366
-0.016974
-0.016545
-0.016081
-0.015584
-0.015058
-0.014505
-0.013928
-0.013331
-0.012718
-0.012092
-0.011457
-0.010817
-0.010178
-0.009543
-0.008917
-0.008305
-0.007712
-0.007142
-0.006600
-0.006091
-0.005620
-0.005190
-0.004806
-0.004471
-0.004187
-0.003958
-0.003783
-0.003663
-0.003595
-0.003578
-0.003606
-0.003672
-0.003768
-0.003886
-0.004021
-0.018432
-0.018593
-0.018724
-0.018825
-0.018892
-0.018923
-0.018916
-0.018867
-0.018775
-0.018639
-0.018460
-0.018237
-0.017971
-0.017663
-0.017315
-0.016928
-0.016505
-0.016046
-0.015556
-0.015036
-0.014489
-0.013919
-0.013328
-0.012721
-0.012101
-0.011472
-0.010838
-0.010205
-0.009575
-0.008954
-0.008347
-0.007758
-0.007192
-0.006654
-0.006149
-0.005680
-0.005253
-0.004871
-0.004537
-0.004254
-0.004024
-0.003848
-0.003726
-0.003657
-0.003638
-0.003665
-0.003734
-0.003840
-0.003978
-0.004146
-0.018347
-0.018538
-0.018689
-0.018801
-0.018874
-0.018907
-0.018900
-0.018851
-0.018758
-0.018623
-0.018444
-0.018222
-0.017958
-0.017652
-0.017307
-0.016923
-0.016503
-0.016048
-0.015560
-0.015044
-0.014500
-0.013933
-0.013345
-0.012740
-0.012122
-0.011495
-0.010862
-0.010230
-0.009601
-0.008980
-0.008373
-0.007784
-0.007218
-0.006680
-0.006174
-0.005705
-0.005277
-0.004893
-0.004558
-0.004274
-0.004043
-0.003865
-0.003742
-0.003673
-0.003655
-0.003685
-0.003761
-0.003880
-0.004039
-0.004238
-0.018308
-0.018524
-0.018693
-0.018818
-0.018899
-0.018937
-0.018931
-0.018883
-0.018791
-0.018656
-0.018477
-0.018255
-0.017992
-0.017687
-0.017342
-0.016959
-0.016540
-0.016085
-0.015599
-0.015082
-0.014538
-0.013970
-0.013381
-0.012775
-0.012155
-0.011525
-0.010890
-0.010254
-0.009621
-0.008997
-0.008386
-0.007792
-0.007222
-0.006679
-0.006168
-0.005694
-0.005262
-0.004875
-0.004536
-0.004248
-0.004015
-0.003835
-0.003712
-0.003643
-0.003627
-0.003663
-0.003749
-0.003881
-0.004060
-0.004285
-0.018321
-0.018559
-0.018745
-0.018881
-0.018971
-0.019014
-0.019012
-0.018965
-0.018874
-0.018739
-0.018560
-0.018338
-0.018074
-0.017768
-0.017423
-0.017038
-0.016617
-0.016161
-0.015671
-0.015152
-0.014604
-0.014032
-0.013439
-0.012827
-0.012201
-0.011565
-0.010922
-0.010279
-0.009638
-0.009005
-0.008385
-0.007783
-0.007203
-0.006651
-0.006132
-0.005650
-0.005210
-0.004815
-0.004471
-0.004178
-0.003940
-0.003759
-0.003634
-0.003566
-0.003554
-0.003597
-0.003692
-0.003839
-0.004035
-0.004282
-0.018391
-0.018647
-0.018848
-0.018996
-0.019094
-0.019143
-0.019145
-0.019100
-0.019010
-0.018875
-0.018695
-0.018472
-0.018205
-0.017897
-0.017549
-0.017161
-0.016735
-0.016274
-0.015780
-0.015254
-0.014700
-0.014120
-0.013518
-0.012897
-0.012261
-0.011614
-0.010960
-0.010304
-0.009651
-0.009005
-0.008372
-0.007756
-0.007163
-0.006598
-0.006066
-0.005572
-0.005121
-0.004716
-0.004363
-0.004063
-0.003819
-0.003634
-0.003508
-0.003442
-0.003434
-0.003483
-0.003589
-0.003749
-0.003961
-0.004227
-0.018520
-0.018792
-0.019007
-0.019166
-0.019272
-0.019327
-0.019332
-0.019290
-0.019200
-0.019064
-0.018883
-0.018657
-0.018388
-0.018075
-0.017722
-0.017328
-0.016896
-0.016428
-0.015925
-0.015390
-0.014825
-0.014234
-0.013620
-0.012986
-0.012336
-0.011674
-0.011004
-0.010332
-0.009661
-0.008998
-0.008346
-0.007713
-0.007102
-0.006520
-0.005971
-0.005461
-0.004995
-0.004577
-0.004212
-0.003903
-0.003652
-0.003462
-0.003334
-0.003268
-0.003264
-0.003320
-0.003436
-0.003608
-0.003836
-0.004118
-0.018710
-0.018997
-0.019224
-0.019393
-0.019507
-0.019568
-0.019577
-0.019536
-0.019447
-0.019310
-0.019126
-0.018897
-0.018622
-0.018304
-0.017944
-0.017543
-0.017102
-0.016623
-0.016109
-0.015561
-0.014983
-0.014377
-0.013747
-0.013095
-0.012427
-0.011746
-0.011056
-0.010362
-0.009670
-0.008984
-0.008310
-0.007654
-0.007020
-0.006416
-0.005846
-0.005316
-0.004832
-0.004397
-0.004018
-0.003696
-0.003436
-0.003240
-0.003108
-0.003043
-0.003042
-0.003105
-0.003231
-0.003416
-0.003658
-0.003957
-0.018962
-0.019263
-0.019502
-0.019681
-0.019803
-0.019869
-0.019882
-0.019842
-0.019753
-0.019614
-0.019427
-0.019192
-0.018912
-0.018586
-0.018217
-0.017805
-0.017353
-0.016861
-0.016333
-0.015770
-0.015174
-0.014550
-0.013900
-0.013228
-0.012537
-0.011831
-0.011117
-0.010397
-0.009678
-0.008965
-0.008264
-0.007580
-0.006919
-0.006288
-0.005692
-0.005138
-0.004631
-0.004176
-0.003778
-0.003442
-0.003170
-0.002966
-0.002830
-0.002764
-0.002766
-0.002836
-0.002971
-0.003169
-0.003426
-0.003741
-0.019277
-0.019592
-0.019843
-0.020033
-0.020162
-0.020234
-0.020249
-0.020211
-0.020120
-0.019979
-0.019787
-0.019546
-0.019258
-0.018923
-0.018543
-0.018119
-0.017652
-0.017145
-0.016600
-0.016018
-0.015402
-0.014756
-0.014082
-0.013384
-0.012666
-0.011933
-0.011189
-0.010438
-0.009688
-0.008943
-0.008208
-0.007492
-0.006799
-0.006136
-0.005509
-0.004926
-0.004392
-0.003912
-0.003493
-0.003139
-0.002853
-0.002638
-0.002497
-0.002429
-0.002434
-0.002510
-0.002655
-0.002866
-0.003139
-0.003471
-0.019657
-0.019987
-0.020251
-0.020451
-0.020588
-0.020665
-0.020683
-0.020645
-0.020553
-0.020407
-0.020210
-0.019962
-0.019664
-0.019318
-0.018925
-0.018486
-0.018003
-0.017478
-0.016912
-0.016308
-0.015668
-0.014996
-0.014295
-0.013568
-0.012819
-0.012053
-0.011274
-0.010488
-0.009701
-0.008918
-0.008146
-0.007391
-0.006660
-0.005959
-0.005297
-0.004679
-0.004113
-0.003605
-0.003161
-0.002785
-0.002482
-0.002255
-0.002106
-0.002035
-0.002042
-0.002125
-0.002280
-0.002505
-0.002795
-0.003146
-0.020104
-0.020451
-0.020729
-0.020939
-0.021084
-0.021166
-0.021187
-0.021149
-0.021054
-0.020904
-0.020699
-0.020442
-0.020133
-0.019774
-0.019366
-0.018910
-0.018408
-0.017862
-0.017273
-0.016644
-0.015977
-0.015276
-0.014543
-0.013783
-0.012998
-0.012195
-0.011377
-0.010550
-0.009720
-0.008894
-0.008078
-0.007279
-0.006504
-0.005760
-0.005056
-0.004399
-0.003795
-0.003253
-0.002779
-0.002378
-0.002054
-0.001812
-0.001654
-0.001579
-0.001587
-0.001677
-0.001844
-0.002084
-0.002392
-0.002763
-0.020621
-0.020986
-0.021278
-0.021500
-0.021653
-0.021740
-0.021763
-0.021725
-0.021627
-0.021471
-0.021258
-0.020991
-0.020669
-0.020296
-0.019870
-0.019395
-0.018872
-0.018301
-0.017687
-0.017029
-0.016332
-0.015598
-0.014829
-0.014031
-0.013207
-0.012361
-0.011499
-0.010626
-0.009749
-0.008874
-0.008008
-0.007158
-0.006332
-0.005539
-0.004787
-0.004083
-0.003437
-0.002855
-0.002346
-0.001915
-0.001567
-0.001307
-0.001137
-0.001057
-0.001067
-0.001163
-0.001342
-0.001599
-0.001927
-0.002323
-0.021210
-0.021595
-0.021904
-0.022138
-0.022300
-0.022392
-0.022417
-0.022378
-0.022276
-0.022113
-0.021891
-0.021612
-0.021276
-0.020886
-0.020441
-0.019945
-0.019397
-0.018801
-0.018157
-0.017468
-0.016737
-0.015966
-0.015159
-0.014319
-0.013450
-0.012557
-0.011645
-0.010721
-0.009790
-0.008860
-0.007937
-0.007031
-0.006148
-0.005298
-0.004490
-0.003734
-0.003037
-0.002410
-0.001860
-0.001394
-0.001018
-0.000737
-0.000552
-0.000466
-0.000476
-0.000579
-0.000772
-0.001047
-0.001399
-0.001821
-0.021876
-0.022283
-0.022609
-0.022857
-0.023029
-0.023126
-0.023153
-0.023112
-0.023006
-0.022835
-0.022603
-0.022310
-0.021959
-0.021550
-0.021084
-0.020564
-0.019990
-0.019364
-0.018689
-0.017966
-0.017197
-0.016386
-0.015536
-0.014650
-0.013732
-0.012788
-0.011821
-0.010839
-0.009849
-0.008857
-0.007871
-0.006900
-0.005953
-0.005039
-0.004168
-0.003351
-0.002597
-0.001916
-0.001319
-0.000812
-0.000403
-0.000096
0.000105
0.000200
0.000190
0.000079
-0.000128
-0.000425
-0.000802
-0.001255
-0.022623
-0.023054
-0.023400
-0.023663
-0.023844
-0.023948
-0.023977
-0.023934
-0.023821
-0.023642
-0.023398
-0.023091
-0.022722
-0.022292
-0.021804
-0.021257
-0.020655
-0.019998
-0.019288
-0.018527
-0.017718
-0.016863
-0.015966
-0.015030
-0.014059
-0.013058
-0.012032
-0.010987
-0.009931
-0.008870
-0.007814
-0.006771
-0.005751
-0.004764
-0.003822
-0.002935
-0.002115
-0.001374
-0.000721
-0.000166
0.000282
0.000619
0.000840
0.000946
0.000936
0.000817
0.000593
0.000273
-0.000134
-0.000621
-0.023455
-0.023913
-0.024281
-0.024560
-0.024753
-0.024862
-0.024893
-0.024847
-0.024729
-0.024540
-0.024283
-0.023959
-0.023571
-0.023119
-0.022606
-0.022032
-0.021398
-0.020707
-0.019960
-0.019159
-0.018306
-0.017404
-0.016457
-0.015466
-0.014438
-0.013375
-0.012284
-0.011170
-0.010042
-0.008906
-0.007772
-0.006649
-0.005547
-0.004478
-0.003455
-0.002489
-0.001593
-0.000781
-0.000064
0.000546
0.001041
0.001413
0.001659
0.001777
0.001769
0.001641
0.001398
0.001051
0.000610
0.000084
-0.024378
-0.024867
-0.025259
-0.025555
-0.025760
-0.025876
-0.025909
-0.025860
-0.025735
-0.025535
-0.025263
-0.024922
-0.024513
-0.024037
-0.023497
-0.022892
-0.022226
-0.021498
-0.020711
-0.019867
-0.018968
-0.018016
-0.017014
-0.015966
-0.014875
-0.013746
-0.012585
-0.011396
-0.010189
-0.008971
-0.007751
-0.006539
-0.005347
-0.004186
-0.003070
-0.002014
-0.001032
-0.000139
0.000652
0.001328
0.001877
0.002292
0.002567
0.002701
0.002696
0.002557
0.002294
0.001916
0.001436
0.000864
-0.025399
-0.025921
-0.026339
-0.026656
-0.026874
-0.026997
-0.027031
-0.026979
-0.026846
-0.026634
-0.026346
-0.025986
-0.025554
-0.025053
-0.024483
-0.023846
-0.023144
-0.022378
-0.021549
-0.020659
-0.019710
-0.018705
-0.017646
-0.016536
-0.015380
-0.014180
-0.012943
-0.011674
-0.010382
-0.009074
-0.007760
-0.006450
-0.005157
-0.003894
-0.002675
-0.001516
-0.000435
0.000553
0.001430
0.002182
0.002796
0.003261
0.003572
0.003726
0.003725
0.003575
0.003288
0.002874
0.002349
0.001725
-0.026523
-0.027083
-0.027531
-0.027869
-0.028102
-0.028233
-0.028268
-0.028212
-0.028070
-0.027845
-0.027540
-0.027159
-0.026703
-0.026173
-0.025573
-0.024902
-0.024162
-0.023354
-0.022481
-0.021543
-0.020542
-0.019481
-0.018362
-0.017187
-0.015961
-0.014686
-0.013369
-0.012015
-0.010631
-0.009226
-0.007809
-0.006393
-0.004988
-0.003610
-0.002275
-0.001001
0.000194
0.001290
0.002269
0.003111
0.003801
0.004327
0.004681
0.004860
0.004865
0.004704
0.004389
0.003934
0.003356
0.002672
-0.027760
-0.028362
-0.028843
-0.029205
-0.029453
-0.029593
-0.029629
-0.029569
-0.029416
-0.029176
-0.028853
-0.028448
-0.027966
-0.027407
-0.026773
-0.026066
-0.025286
-0.024435
-0.023515
-0.022527
-0.021472
-0.020352
-0.019169
-0.017927
-0.016628
-0.015275
-0.013873
-0.012428
-0.010947
-0.009438
-0.007911
-0.006377
-0.004850
-0.003346
-0.001881
-0.000475
0.000850
0.002071
0.003167
0.004115
0.004897
0.005496
0.005904
0.006113
0.006128
0.005955
0.005608
0.005105
0.004466
0.003709
-0.029118
-0.029767
-0.030285
-0.030674
-0.030939
-0.031087
-0.031124
-0.031058
-0.030894
-0.030638
-0.030293
-0.029864
-0.029353
-0.028762
-0.028093
-0.027347
-0.026525
-0.025629
-0.024660
-0.023619
-0.022508
-0.021327
-0.020080
-0.018767
-0.017392
-0.015958
-0.014468
-0.012927
-0.011344
-0.009724
-0.008079
-0.006419
-0.004759
-0.003114
-0.001504
0.000049
0.001522
0.002888
0.004121
0.005195
0.006086
0.006776
0.007249
0.007499
0.007527
0.007341
0.006959
0.006399
0.005686
0.004845
-0.030608
-0.031309
-0.031868
-0.032287
-0.032571
-0.032728
-0.032766
-0.032692
-0.032515
-0.032240
-0.031873
-0.031416
-0.030874
-0.030248
-0.029541
-0.028754
-0.027889
-0.026945
-0.025925
-0.024830
-0.023660
-0.022417
-0.021102
-0.019718
-0.018265
-0.016747
-0.015167
-0.013527
-0.011836
-0.010101
-0.008331
-0.006536
-0.004731
-0.002933
-0.001163
0.000557
0.002198
0.003731
0.005125
0.006348
0.007372
0.008171
0.008726
0.009028
0.009076
0.008880
0.008456
0.007829
0.007029
0.006085
-0.032239
-0.033001
-0.033606
-0.034058
-0.034362
-0.034528
-0.034566
-0.034484
-0.034291
-0.033995
-0.033601
-0.033114
-0.032538
-0.031875
-0.031128
-0.030298
-0.029385
-0.028392
-0.027320
-0.026168
-0.024938
-0.023631
-0.022248
-0.020790
-0.019259
-0.017656
-0.015983
-0.014243
-0.012442
-0.010586
-0.008685
-0.006747
-0.004788
-0.002824
-0.000877
0.001028
0.002860
0.004585
0.006167
0.007569
0.008753
0.009687
0.010347
0.010718
0.010796
0.010590
0.010119
0.009414
0.008508
0.007439
-0.034027
-0.034857
-0.035514
-0.036002
-0.036329
-0.036504
-0.036540
-0.036447
-0.036236
-0.035915
-0.035491
-0.034971
-0.034357
-0.033654
-0.032863
-0.031986
-0.031025
-0.029980
-0.028852
-0.027643
-0.026352
-0.024980
-0.023528
-0.021997
-0.020386
-0.018698
-0.016933
-0.015091
-0.013178
-0.011200
-0.009163
-0.007077
-0.004955
-0.002813
-0.000673
0.001437
0.003484
0.005430
0.007232
0.008845
0.010224
0.011328
0.012122
0.012584
0.012706
0.012496
0.011974
0.011175
0.010142
0.008919
-0.035985
-0.036893
-0.037610
-0.038139
-0.038489
-0.038673
-0.038704
-0.038597
-0.038364
-0.038014
-0.037557
-0.036998
-0.036343
-0.035595
-0.034756
-0.033830
-0.032816
-0.031717
-0.030533
-0.029264
-0.027911
-0.026474
-0.024953
-0.023348
-0.021659
-0.019886
-0.018030
-0.016089
-0.014065
-0.011964
-0.009791
-0.007553
-0.005260
-0.002931
-0.000584
0.001750
0.004037
0.006235
0.008294
0.010160
0.011777
0.013092
0.014058
0.014644
0.014833
0.014627
0.014051
0.013143
0.011953
0.010539
-0.038133
-0.039131
-0.039915
-0.040489
-0.040864
-0.041055
-0.041080
-0.040954
-0.040693
-0.040308
-0.039811
-0.039209
-0.038507
-0.037709
-0.036819
-0.035839
-0.034770
-0.033613
-0.032369
-0.031039
-0.029623
-0.028120
-0.026531
-0.024854
-0.023089
-0.021235
-0.019290
-0.017254
-0.015123
-0.012902
-0.010594
-0.008204
-0.005739
-0.003215
-0.000651
0.001926
0.004479
0.006961
0.009317
0.011483
0.013390
0.014971
0.016162
0.016916
0.017204
0.017022
0.016391
0.015356
0.013977
0.012323
-0.040492
-0.041594
-0.042455
-0.043079
-0.043480
-0.043676
-0.043688
-0.043538
-0.043242
-0.042815
-0.042271
-0.041618
-0.040862
-0.040009
-0.039061
-0.038022
-0.036894
-0.035676
-0.034370
-0.032977
-0.031497
-0.029928
-0.028271
-0.026524
-0.024686
-0.022754
-0.020727
-0.018601
-0.016370
-0.014036
-0.011600
-0.009062
-0.006428
-0.003709
-0.000919
0.001914
0.004754
0.007553
0.010250
0.012771
0.015032
0.016947
0.018431
0.019415
0.019851
0.019722
0.019044
0.017865
0.016256
0.014304
-0.043087
-0.044312
-0.045262
-0.045941
-0.046366
-0.046563
-0.046556
-0.046372
-0.046031
-0.045554
-0.044953
-0.044240
-0.043422
-0.042505
-0.041494
-0.040390
-0.039195
-0.037912
-0.036542
-0.035083
-0.033537
-0.031903
-0.030180
-0.028365
-0.026458
-0.024454
-0.022351
-0.020144
-0.017823
-0.015388
-0.012835
-0.010161
-0.007366
-0.004456
-0.001443
0.001653
0.004799
0.007945
0.011028
0.013963
0.016653
0.018987
0.020854
0.022154
0.022809
0.022781
0.022075
0.020738
0.018855
0.016532
-0.045952
-0.047322
-0.048372
-0.049111
-0.049559
-0.049749
-0.049714
-0.049483
-0.049086
-0.048544
-0.047874
-0.047090
-0.046199
-0.045209
-0.044124
-0.042947
-0.041681
-0.040327
-0.038887
-0.037360
-0.035746
-0.034046
-0.032258
-0.030379
-0.028407
-0.026338
-0.024168
-0.021890
-0.019495
-0.016974
-0.014320
-0.011528
-0.008590
-0.005505
-0.002277
0.001079
0.004539
0.008056
0.011566
0.014979
0.018181
0.021036
0.023401
0.025131
0.026109
0.026259
0.025563
0.024066
0.021861
0.019079
-0.049128
-0.050669
-0.051835
-0.052636
-0.053103
-0.053275
-0.053195
-0.052903
-0.052431
-0.051807
-0.051053
-0.050182
-0.049205
-0.048129
-0.046960
-0.045701
-0.044354
-0.042922
-0.041406
-0.039806
-0.038123
-0.036356
-0.034503
-0.032563
-0.030532
-0.028406
-0.026178
-0.023842
-0.021390
-0.018802
-0.016071
-0.013185
-0.010130
-0.006896
-0.003477
0.000125
0.003893
0.007793
0.011764
0.015716
0.019520
0.023018
0.026020
0.028334
0.029778
0.030222
0.029608
0.027964
0.025393
0.022055
-0.052669
-0.054413
-0.055710
-0.056576
-0.057051
-0.057188
-0.057042
-0.056663
-0.056093
-0.055366
-0.054506
-0.053529
-0.052448
-0.051271
-0.050003
-0.048649
-0.047212
-0.045693
-0.044094
-0.042415
-0.040658
-0.038822
-0.036906
-0.034907
-0.032822
-0.030646
-0.028372
-0.025993
-0.023499
-0.020869
-0.018090
-0.015142
-0.012005
-0.008658
-0.005083
-0.001269
0.002786
0.007063
0.011514
0.016056
0.020554
0.024826
0.028637
0.031727
0.033834
0.034744
0.034330
0.032583
0.029615
0.025611
-0.056643
-0.058630
-0.060075
-0.061001
-0.061467
-0.061542
-0.061298
-0.060800
-0.060101
-0.059240
-0.058246
-0.057139
-0.055932
-0.054634
-0.053251
-0.051787
-0.050245
-0.048627
-0.046936
-0.045172
-0.043336
-0.041428
-0.039447
-0.037391
-0.035256
-0.033037
-0.030729
-0.028320
-0.025802
-0.023156
-0.020360
-0.017387
-0.014211
-0.010799
-0.007119
-0.003140
0.001159
0.005785
0.010715
0.015880
0.021155
0.026338
0.031152
0.035257
0.038285
0.039902
0.039872
0.038121
0.034745
0.029968
-0.061144
-0.063422
-0.065029
-0.066006
-0.066431
-0.066402
-0.066014
-0.065351
-0.064478
-0.063444
-0.062281
-0.061012
-0.059651
-0.058208
-0.056688
-0.055096
-0.053433
-0.051704
-0.049909
-0.048050
-0.046128
-0.044143
-0.042095
-0.039982
-0.037800
-0.035546
-0.033211
-0.030788
-0.028263
-0.025623
-0.022841
-0.019884
-0.016715
-0.013292
-0.009567
-0.005489
-0.001007
0.003917
0.009296
0.015094
0.021207
0.027434
0.033459
0.038858
0.043133
0.045784
0.046414
0.044828
0.041080
0.035429
-0.066297
-0.068924
-0.070706
-0.071706
-0.072039
-0.071842
-0.071242
-0.070349
-0.069243
-0.067982
-0.066604
-0.065134
-0.063585
-0.061967
-0.060285
-0.058542
-0.056741
-0.054883
-0.052972
-0.051007
-0.048991
-0.046923
-0.044805
-0.042633
-0.040406
-0.038120
-0.035767
-0.033340
-0.030825
-0.028207
-0.025467
-0.022563
-0.019448
-0.016070
-0.012365
-0.008259
-0.003670
0.001480
0.007251
0.013660
0.020645
0.028026
0.035471
0.042475
0.048390
0.052503
0.054182
0.053036
0.049023
0.042417
-0.072276
-0.075321
-0.077280
-0.078250
-0.078407
-0.077942
-0.077032
-0.075815
-0.074395
-0.072838
-0.071186
-0.069465
-0.067688
-0.065861
-0.063988
-0.062070
-0.060110
-0.058108
-0.056065
-0.053983
-0.051864
-0.049707
-0.047513
-0.045281
-0.043009
-0.040693
-0.038327
-0.035904
-0.033410
-0.030831
-0.028144
-0.025324
-0.022302
-0.019016
-0.015389
-0.011325
-0.006708
-0.001414
0.004675
0.011644
0.019501
0.028118
0.037174
0.046107
0.054112
0.060221
0.063479
0.063188
0.059118
0.051517
-0.079323
-0.082873
-0.084986
-0.085830
-0.085669
-0.084784
-0.083416
-0.081747
-0.079903
-0.077960
-0.075963
-0.073933
-0.071879
-0.069805
-0.067711
-0.065594
-0.063454
-0.061291
-0.059105
-0.056896
-0.054665
-0.052413
-0.050140
-0.047845
-0.045526
-0.043181
-0.040804
-0.038389
-0.035922
-0.033389
-0.030765
-0.028040
-0.025132
-0.021969
-0.018461
-0.014490
-0.009908
-0.004544
0.001787
0.009253
0.017953
0.027849
0.038678
0.049860
0.060450
0.069195
0.074722
0.075886
0.072115
0.063543
-0.087793
-0.091948
-0.094149
-0.094684
-0.093973
-0.092432
-0.090393
-0.088094
-0.085683
-0.083242
-0.080812
-0.078407
-0.076028
-0.073670
-0.071326
-0.068989
-0.066654
-0.064318
-0.061980
-0.059638
-0.057292
-0.054942
-0.052588
-0.050229
-0.047864
-0.045489
-0.043101
-0.040693
-0.038254
-0.035769
-0.033213
-0.030560
-0.027772
-0.024736
-0.021355
-0.017495
-0.012978
-0.007585
-0.001064
0.006846
0.016354
0.027549
0.040277
0.054005
0.067703
0.079827
0.088505
0.091958
0.089055
0.079637
-0.098218
-0.103090
-0.105210
-0.105106
-0.103464
-0.100905
-0.097892
-0.094722
-0.091562
-0.088492
-0.085536
-0.082691
-0.079940
-0.077267
-0.074655
-0.072087
-0.069552
-0.067041
-0.064550
-0.062077
-0.059620
-0.057177
-0.054746
-0.052327
-0.049918
-0.047515
-0.045116
-0.042713
-0.040296
-0.037849
-0.035347
-0.032753
-0.030054
-0.027115
-0.023831
-0.020053
-0.015577
-0.010143
-0.003431
0.004914
0.015221
0.027731
0.042462
0.059015
0.076357
0.092715
0.105655
0.112554
0.111401
0.101425
-0.111449
-0.117125
-0.118785
-0.117438
-0.114237
-0.110119
-0.105709
-0.101362
-0.097242
-0.093401
-0.089833
-0.086495
-0.083345
-0.080347
-0.077469
-0.074680
-0.071954
-0.069284
-0.066655
-0.064067
-0.061515
-0.058993
-0.056499
-0.054031
-0.051587
-0.049161
-0.046752
-0.044352
-0.041949
-0.039526
-0.037055
-0.034496
-0.031828
-0.028928
-0.025672
-0.021898
-0.017382
-0.011828
-0.004855
0.003999
0.015153
0.029024
0.045865
0.065522
0.087072
0.108655
0.127277
0.139254
0.141233
0.131287
-0.128921
-0.135351
-0.135706
-0.132018
-0.126249
-0.119787
-0.113426
-0.107545
-0.102246
-0.097512
-0.093283
-0.089440
-0.085898
-0.082600
-0.079496
-0.076530
-0.073649
-0.070859
-0.068140
-0.065475
-0.062857
-0.060281
-0.057746
-0.055248
-0.052783
-0.050348
-0.047936
-0.045540
-0.043145
-0.040732
-0.038271
-0.035716
-0.033007
-0.030072
-0.026745
-0.022849
-0.018137
-0.012283
-0.004880
0.004560
0.016684
0.032010
0.051092
0.074187
0.100535
0.128526
0.154707
0.174163
0.181542
0.172822
-0.153252
-0.159857
-0.157049
-0.149038
-0.139124
-0.129250
-0.120283
-0.112526
-0.105885
-0.100201
-0.095360
-0.091073
-0.087243
-0.083749
-0.080489
-0.077405
-0.074452
-0.071605
-0.068843
-0.066150
-0.063515
-0.060931
-0.058394
-0.055899
-0.053442
-0.051017
-0.048618
-0.046234
-0.043848
-0.041437
-0.038965
-0.036379
-0.033602
-0.030557
-0.027073
-0.022950
-0.017915
-0.011605
-0.003557
0.006804
0.020173
0.037274
0.058810
0.085434
0.117101
0.152977
0.189233
0.219878
0.236641
0.231716
-0.189568
-0.194012
-0.183956
-0.168150
-0.151786
-0.137239
-0.125025
-0.115240
-0.107285
-0.100860
-0.095520
-0.090967
-0.086991
-0.083426
-0.080151
-0.077084
-0.074169
-0.071367
-0.068655
-0.066013
-0.063429
-0.060897
-0.058408
-0.055960
-0.053547
-0.051162
-0.048797
-0.046440
-0.044070
-0.041660
-0.039166
-0.036528
-0.033657
-0.030452
-0.026748
-0.022321
-0.016868
-0.009991
-0.001175
0.010229
0.025014
0.044103
0.068515
0.099276
0.137064
0.181826
0.231311
0.279019
0.312622
0.317346
-0.248623
-0.242921
-0.216811
-0.187555
-0.161800
-0.141589
-0.126044
-0.114369
-0.105483
-0.098616
-0.093152
-0.088652
-0.084815
-0.081430
-0.078351
-0.075479
-0.072750
-0.070123
-0.067570
-0.065073
-0.062621
-0.060206
-0.057824
-0.055470
-0.053140
-0.050828
-0.048524
-0.046213
-0.043874
-0.041473
-0.038962
-0.036271
-0.033300
-0.029927
-0.025992
-0.021246
-0.015362
-0.007907
0.001677
0.014106
0.030278
0.051302
0.078521
0.113510
0.157963
0.213347
0.279637
0.352564
0.417308
0.445741
-0.354145
-0.312404
-0.252380
-0.202110
-0.164923
-0.138908
-0.120881
-0.108332
-0.099418
-0.092897
-0.087935
-0.083982
-0.080678
-0.077788
-0.075156
-0.072683
-0.070307
-0.067990
-0.065708
-0.063449
-0.061204
-0.058972
-0.056749
-0.054535
-0.052326
-0.050118
-0.047901
-0.045661
-0.043373
-0.041002
-0.038495
-0.035776
-0.032735
-0.029245
-0.025137
-0.020149
-0.013937
-0.006049
0.004107
0.017292
0.034488
0.056961
0.086351
0.124819
0.175232
0.241340
0.327474
0.436017
0.557317
0.645347
-0.558000
-0.399666
-0.277012
-0.199765
-0.153070
-0.124745
-0.107202
-0.096046
-0.088711
-0.083682
-0.080041
-0.077227
-0.074892
-0.072822
-0.070885
-0.069000
-0.067124
-0.065231
-0.063311
-0.061361
-0.059382
-0.057379
-0.055354
-0.053311
-0.051251
-0.049172
-0.047067
-0.044921
-0.042712
-0.040403
-0.037941
-0.035248
-0.032212
-0.028712
-0.024568
-0.019520
-0.013222
-0.005219
0.005081
0.018451
0.035902
0.058768
0.088869
0.128787
0.182411
0.255965
0.359779
0.510224
0.724511
0.968931
-0.958582
-0.448378
-0.246646
-0.159426
-0.117637
-0.096070
-0.084383
-0.077835
-0.074051
-0.071761
-0.070251
-0.069114
-0.068115
-0.067119
-0.066054
-0.064884
-0.063596
-0.062193
-0.060682
-0.059077
-0.057390
-0.055636
-0.053825
-0.051968
-0.050071
-0.048136
-0.046159
-0.044131
-0.042030
-0.039826
-0.037467
-0.034881
-0.031967
-0.028609
-0.024633
-0.019794
-0.013767
-0.006123
0.003699
0.016427
0.033013
0.054721
0.083282
0.121224
0.172594
0.244732
0.352787
0.530770
0.854777
1.486677
