# vtk DataFile Version 3.0
Vector Field
ASCII
DATASET RECTILINEAR_GRID
DIMENSIONS 50 50 1
X_COORDINATES 50 double
0.100000 0.300000 0.500000 0.700000 0.900000 1.100000 1.300000 1.500000 1.700000 1.900000 2.100000 2.300000 2.500000 2.700000 2.900000 3.100000 3.300000 3.500000 3.700000 3.900000 4.100000 4.300000 4.500000 4.700000 4.900000 5.100000 5.300000 5.500000 5.700000 5.900000 6.100000 6.300000 6.500000 6.700000 6.900000 7.100000 7.300000 7.500000 7.700000 7.900000 8.100000 8.300000 8.500000 8.700000 8.900000 9.100000 9.300000 9.500000 9.700000 9.900000 
Y_COORDINATES 50 double
0.100000 0.300000 0.500000 0.700000 0.900000 1.100000 1.300000 1.500000 1.700000 1.900000 2.100000 2.300000 2.500000 2.700000 2.900000 3.100000 3.300000 3.500000 3.700000 3.900000 4.100000 4.300000 4.500000 4.700000 4.900000 5.100000 5.300000 5.500000 5.700000 5.900000 6.100000 6.300000 6.500000 6.700000 6.900000 7.100000 7.300000 7.500000 7.700000 7.900000 8.100000 8.300000 8.500000 8.700000 8.900000 9.100000 9.300000 9.500000 9.700000 9.900000 
Z_COORDINATES 1 double
0.0
POINT_DATA 2500
VECTORS Vektorfeld double
-0.000285 0.000285 0.0
-0.000978 0.000409 0.0
-0.001807 0.000420 0.0
-0.002645 0.000417 0.0
-0.003473 0.000411 0.0
-0.004288 0.000404 0.0
-0.005086 0.000395 0.0
-0.005865 0.000384 0.0
-0.006622 0.000372 0.0
-0.007353 0.000359 0.0
-0.008057 0.000344 0.0
-0.008729 0.000328 0.0
-0.009368 0.000311 0.0
-0.009971 0.000292 0.0
-0.010536 0.000273 0.0
-0.011060 0.000252 0.0
-0.011542 0.000230 0.0
-0.011979 0.000207 0.0
-0.012369 0.000184 0.0
-0.012712 0.000159 0.0
-0.013005 0.000134 0.0
-0.013247 0.000108 0.0
-0.013438 0.000082 0.0
-0.013575 0.000055 0.0
-0.013658 0.000028 0.0
-0.013687 0.000001 0.0
-0.013661 -0.000027 0.0
-0.013580 -0.000054 0.0
-0.013444 -0.000082 0.0
-0.013253 -0.000109 0.0
-0.013006 -0.000137 0.0
-0.012706 -0.000164 0.0
-0.012352 -0.000190 0.0
-0.011946 -0.000216 0.0
-0.011490 -0.000241 0.0
-0.010983 -0.000265 0.0
-0.010429 -0.000289 0.0
-0.009830 -0.000311 0.0
-0.009187 -0.000332 0.0
-0.008503 -0.000352 0.0
-0.007781 -0.000370 0.0
-0.007024 -0.000387 0.0
-0.006235 -0.000402 0.0
-0.005418 -0.000415 0.0
-0.004576 -0.000427 0.0
-0.003713 -0.000436 0.0
-0.002832 -0.000444 0.0
-0.001939 -0.000449 0.0
-0.001053 -0.000437 0.0
-0.000308 -0.000308 0.0
-0.000412 0.000981 0.0
-0.001386 0.001380 0.0
-0.002524 0.001416 0.0
-0.003670 0.001405 0.0
-0.004804 0.001385 0.0
-0.005919 0.001360 0.0
-0.007012 0.001329 0.0
-0.008077 0.001294 0.0
-0.009111 0.001253 0.0
-0.010109 0.001208 0.0
-0.011069 0.001158 0.0
-0.011986 0.001103 0.0
-0.012856 0.001045 0.0
-0.013676 0.000982 0.0
-0.014444 0.000915 0.0
-0.015156 0.000845 0.0
-0.015809 0.000771 0.0
-0.016400 0.000694 0.0
-0.016928 0.000615 0.0
-0.017390 0.000533 0.0
-0.017784 0.000448 0.0
-0.018109 0.000361 0.0
-0.018362 0.000273 0.0
-0.018543 0.000183 0.0
-0.018650 0.000092 0.0
-0.018683 -0.000000 0.0
-0.018642 -0.000093 0.0
-0.018525 -0.000186 0.0
-0.018334 -0.000278 0.0
-0.018067 -0.000371 0.0
-0.017727 -0.000462 0.0
-0.017314 -0.000552 0.0
-0.016828 -0.000641 0.0
-0.016272 -0.000727 0.0
-0.015647 -0.000811 0.0
-0.014956 -0.000893 0.0
-0.014201 -0.000971 0.0
-0.013384 -0.001045 0.0
-0.012509 -0.001116 0.0
-0.011579 -0.001182 0.0
-0.010599 -0.001243 0.0
-0.009571 -0.001299 0.0
-0.008500 -0.001349 0.0
-0.007391 -0.001394 0.0
-0.006249 -0.001432 0.0
-0.005079 -0.001465 0.0
-0.003885 -0.001490 0.0
-0.002675 -0.001505 0.0
-0.001473 -0.001469 0.0
-0.000439 -0.001055 0.0
-0.000429 0.001822 0.0
-0.001442 0.002525 0.0
-0.002621 0.002588 0.0
-0.003809 0.002567 0.0
-0.004984 0.002531 0.0
-0.006139 0.002485 0.0
-0.007271 0.002429 0.0
-0.008374 0.002363 0.0
-0.009445 0.002289 0.0
-0.010480 0.002205 0.0
-0.011473 0.002114 0.0
-0.012422 0.002014 0.0
-0.013324 0.001906 0.0
-0.014173 0.001791 0.0
-0.014967 0.001669 0.0
-0.015704 0.001540 0.0
-0.016380 0.001405 0.0
-0.016992 0.001264 0.0
-0.017538 0.001119 0.0
-0.018015 0.000968 0.0
-0.018423 0.000814 0.0
-0.018758 0.000655 0.0
-0.019020 0.000494 0.0
-0.019206 0.000329 0.0
-0.019317 0.000163 0.0
-0.019351 -0.000005 0.0
-0.019308 -0.000174 0.0
-0.019187 -0.000343 0.0
-0.018988 -0.000512 0.0
-0.018713 -0.000679 0.0
-0.018360 -0.000846 0.0
-0.017932 -0.001010 0.0
-0.017430 -0.001171 0.0
-0.016854 -0.001328 0.0
-0.016208 -0.001481 0.0
-0.015492 -0.001629 0.0
-0.014711 -0.001771 0.0
-0.013865 -0.001907 0.0
-0.012960 -0.002035 0.0
-0.011997 -0.002155 0.0
-0.010982 -0.002266 0.0
-0.009917 -0.002368 0.0
-0.008809 -0.002460 0.0
-0.007661 -0.002541 0.0
-0.006478 -0.002611 0.0
-0.005266 -0.002669 0.0
-0.004030 -0.002715 0.0
-0.002777 -0.002743 0.0
-0.001531 -0.002681 0.0
-0.000457 -0.001951 0.0
-0.000434 0.002685 0.0
-0.001460 0.003700 0.0
-0.002654 0.003789 0.0
-0.003857 0.003758 0.0
-0.005047 0.003705 0.0
-0.006217 0.003636 0.0
-0.007362 0.003554 0.0
-0.008479 0.003458 0.0
-0.009564 0.003349 0.0
-0.010611 0.003227 0.0
-0.011617 0.003092 0.0
-0.012578 0.002945 0.0
-0.013490 0.002787 0.0
-0.014350 0.002619 0.0
-0.015154 0.002440 0.0
-0.015900 0.002251 0.0
-0.016584 0.002054 0.0
-0.017204 0.001848 0.0
-0.017757 0.001634 0.0
-0.018241 0.001414 0.0
-0.018654 0.001188 0.0
-0.018994 0.000956 0.0
-0.019260 0.000720 0.0
-0.019450 0.000480 0.0
-0.019563 0.000236 0.0
-0.019598 -0.000009 0.0
-0.019556 -0.000256 0.0
-0.019434 -0.000503 0.0
-0.019235 -0.000750 0.0
-0.018957 -0.000995 0.0
-0.018601 -0.001238 0.0
-0.018169 -0.001478 0.0
-0.017661 -0.001713 0.0
-0.017080 -0.001943 0.0
-0.016426 -0.002167 0.0
-0.015702 -0.002383 0.0
-0.014911 -0.002591 0.0
-0.014055 -0.002788 0.0
-0.013138 -0.002976 0.0
-0.012163 -0.003151 0.0
-0.011135 -0.003314 0.0
-0.010057 -0.003463 0.0
-0.008933 -0.003597 0.0
-0.007769 -0.003715 0.0
-0.006570 -0.003818 0.0
-0.005341 -0.003903 0.0
-0.004088 -0.003970 0.0
-0.002817 -0.004011 0.0
-0.001553 -0.003923 0.0
-0.000463 -0.002871 0.0
-0.000440 0.003560 0.0
-0.001480 0.004890 0.0
-0.002692 0.005005 0.0
-0.003912 0.004964 0.0
-0.005118 0.004894 0.0
-0.006305 0.004804 0.0
-0.007467 0.004695 0.0
-0.008600 0.004568 0.0
-0.009699 0.004423 0.0
-0.010761 0.004262 0.0
-0.011781 0.004083 0.0
-0.012756 0.003890 0.0
-0.013681 0.003681 0.0
-0.014553 0.003458 0.0
-0.015369 0.003221 0.0
-0.016126 0.002972 0.0
-0.016820 0.002711 0.0
-0.017449 0.002439 0.0
-0.018011 0.002158 0.0
-0.018502 0.001867 0.0
-0.018922 0.001568 0.0
-0.019268 0.001262 0.0
-0.019538 0.000950 0.0
-0.019732 0.000633 0.0
-0.019848 0.000312 0.0
-0.019886 -0.000012 0.0
-0.019844 -0.000337 0.0
-0.019723 -0.000664 0.0
-0.019522 -0.000989 0.0
-0.019242 -0.001313 0.0
-0.018883 -0.001634 0.0
-0.018446 -0.001951 0.0
-0.017933 -0.002261 0.0
-0.017344 -0.002565 0.0
-0.016682 -0.002861 0.0
-0.015949 -0.003146 0.0
-0.015147 -0.003420 0.0
-0.014280 -0.003682 0.0
-0.013350 -0.003929 0.0
-0.012361 -0.004161 0.0
-0.011317 -0.004376 0.0
-0.010222 -0.004573 0.0
-0.009081 -0.004751 0.0
-0.007898 -0.004908 0.0
-0.006680 -0.005043 0.0
-0.005431 -0.005156 0.0
-0.004156 -0.005245 0.0
-0.002864 -0.005299 0.0
-0.001579 -0.005185 0.0
-0.000471 -0.003806 0.0
-0.000448 0.004449 0.0
-0.001506 0.006099 0.0
-0.002739 0.006242 0.0
-0.003981 0.006190 0.0
-0.005209 0.006102 0.0
-0.006416 0.005989 0.0
-0.007599 0.005853 0.0
-0.008752 0.005695 0.0
-0.009871 0.005515 0.0
-0.010952 0.005313 0.0
-0.011990 0.005091 0.0
-0.012982 0.004849 0.0
-0.013924 0.004588 0.0
-0.014811 0.004310 0.0
-0.015642 0.004015 0.0
-0.016412 0.003705 0.0
-0.017119 0.003379 0.0
-0.017760 0.003041 0.0
-0.018332 0.002690 0.0
-0.018833 0.002327 0.0
-0.019261 0.001955 0.0
-0.019615 0.001574 0.0
-0.019891 0.001185 0.0
-0.020090 0.000790 0.0
-0.020210 0.000391 0.0
-0.020250 -0.000013 0.0
-0.020210 -0.000419 0.0
-0.020088 -0.000825 0.0
-0.019886 -0.001231 0.0
-0.019604 -0.001635 0.0
-0.019241 -0.002035 0.0
-0.018798 -0.002429 0.0
-0.018278 -0.002817 0.0
-0.017681 -0.003196 0.0
-0.017008 -0.003564 0.0
-0.016264 -0.003921 0.0
-0.015448 -0.004263 0.0
-0.014566 -0.004589 0.0
-0.013619 -0.004898 0.0
-0.012612 -0.005188 0.0
-0.011548 -0.005457 0.0
-0.010432 -0.005703 0.0
-0.009269 -0.005925 0.0
-0.008063 -0.006122 0.0
-0.006819 -0.006291 0.0
-0.005545 -0.006432 0.0
-0.004244 -0.006544 0.0
-0.002925 -0.006611 0.0
-0.001612 -0.006471 0.0
-0.000481 -0.004758 0.0
-0.000457 0.005354 0.0
-0.001538 0.007332 0.0
-0.002798 0.007502 0.0
-0.004066 0.007440 0.0
-0.005320 0.007334 0.0
-0.006553 0.007198 0.0
-0.007761 0.007035 0.0
-0.008938 0.006844 0.0
-0.010081 0.006627 0.0
-0.011185 0.006385 0.0
-0.012245 0.006117 0.0
-0.013258 0.005827 0.0
-0.014220 0.005514 0.0
-0.015127 0.005179 0.0
-0.015975 0.004825 0.0
-0.016762 0.004452 0.0
-0.017484 0.004061 0.0
-0.018139 0.003655 0.0
-0.018724 0.003233 0.0
-0.019237 0.002798 0.0
-0.019675 0.002351 0.0
-0.020038 0.001893 0.0
-0.020322 0.001427 0.0
-0.020527 0.000953 0.0
-0.020652 0.000473 0.0
-0.020695 -0.000012 0.0
-0.020656 -0.000499 0.0
-0.020535 -0.000987 0.0
-0.020331 -0.001475 0.0
-0.020045 -0.001960 0.0
-0.019678 -0.002440 0.0
-0.019229 -0.002915 0.0
-0.018700 -0.003381 0.0
-0.018092 -0.003837 0.0
-0.017407 -0.004280 0.0
-0.016648 -0.004709 0.0
-0.015816 -0.005121 0.0
-0.014916 -0.005515 0.0
-0.013949 -0.005887 0.0
-0.012919 -0.006236 0.0
-0.011832 -0.006560 0.0
-0.010690 -0.006857 0.0
-0.009499 -0.007125 0.0
-0.008264 -0.007362 0.0
-0.006991 -0.007567 0.0
-0.005684 -0.007738 0.0
-0.004351 -0.007872 0.0
-0.002999 -0.007954 0.0
-0.001653 -0.007787 0.0
-0.000493 -0.005733 0.0
-0.000469 0.006280 0.0
-0.001576 0.008593 0.0
-0.002867 0.008792 0.0
-0.004167 0.008719 0.0
-0.005452 0.008594 0.0
-0.006715 0.008435 0.0
-0.007953 0.008243 0.0
-0.009160 0.008020 0.0
-0.010331 0.007765 0.0
-0.011461 0.007481 0.0
-0.012548 0.007168 0.0
-0.013586 0.006827 0.0
-0.014571 0.006460 0.0
-0.015500 0.006069 0.0
-0.016370 0.005654 0.0
-0.017176 0.005217 0.0
-0.017917 0.004759 0.0
-0.018588 0.004283 0.0
-0.019189 0.003790 0.0
-0.019715 0.003281 0.0
-0.020166 0.002757 0.0
-0.020539 0.002222 0.0
-0.020832 0.001676 0.0
-0.021044 0.001121 0.0
-0.021175 0.000559 0.0
-0.021222 -0.000008 0.0
-0.021185 -0.000578 0.0
-0.021064 -0.001150 0.0
-0.020859 -0.001721 0.0
-0.020569 -0.002289 0.0
-0.020196 -0.002852 0.0
-0.019739 -0.003409 0.0
-0.019200 -0.003955 0.0
-0.018580 -0.004490 0.0
-0.017881 -0.005010 0.0
-0.017105 -0.005514 0.0
-0.016254 -0.005998 0.0
-0.015332 -0.006461 0.0
-0.014341 -0.006899 0.0
-0.013285 -0.007310 0.0
-0.012169 -0.007691 0.0
-0.010997 -0.008041 0.0
-0.009774 -0.008356 0.0
-0.008504 -0.008636 0.0
-0.007195 -0.008877 0.0
-0.005851 -0.009078 0.0
-0.004479 -0.009237 0.0
-0.003087 -0.009334 0.0
-0.001702 -0.009139 0.0
-0.000508 -0.006734 0.0
-0.000482 0.007230 0.0
-0.001620 0.009888 0.0
-0.002947 0.010115 0.0
-0.004284 0.010031 0.0
-0.005605 0.009888 0.0
-0.006904 0.009705 0.0
-0.008176 0.009484 0.0
-0.009417 0.009226 0.0
-0.010620 0.008933 0.0
-0.011782 0.008606 0.0
-0.012899 0.008246 0.0
-0.013966 0.007854 0.0
-0.014978 0.007432 0.0
-0.015933 0.006982 0.0
-0.016827 0.006504 0.0
-0.017656 0.006002 0.0
-0.018418 0.005476 0.0
-0.019109 0.004929 0.0
-0.019727 0.004362 0.0
-0.020269 0.003777 0.0
-0.020734 0.003176 0.0
-0.021119 0.002561 0.0
-0.021423 0.001934 0.0
-0.021644 0.001297 0.0
-0.021781 0.000651 0.0
-0.021832 -0.000001 0.0
-0.021798 -0.000656 0.0
-0.021678 -0.001313 0.0
-0.021471 -0.001970 0.0
-0.021177 -0.002623 0.0
-0.020797 -0.003272 0.0
-0.020331 -0.003912 0.0
-0.019781 -0.004541 0.0
-0.019147 -0.005158 0.0
-0.018431 -0.005758 0.0
-0.017636 -0.006338 0.0
-0.016763 -0.006897 0.0
-0.015816 -0.007431 0.0
-0.014798 -0.007937 0.0
-0.013712 -0.008412 0.0
-0.012563 -0.008853 0.0
-0.011355 -0.009258 0.0
-0.010094 -0.009623 0.0
-0.008785 -0.009947 0.0
-0.007433 -0.010226 0.0
-0.006046 -0.010460 0.0
-0.004629 -0.010644 0.0
-0.003191 -0.010757 0.0
-0.001759 -0.010533 0.0
-0.000525 -0.007768 0.0
-0.000497 0.008209 0.0
-0.001670 0.011221 0.0
-0.003039 0.011478 0.0
-0.004417 0.011383 0.0
-0.005780 0.011220 0.0
-0.007120 0.011012 0.0
-0.008431 0.010761 0.0
-0.009710 0.010468 0.0
-0.010951 0.010136 0.0
-0.012149 0.009764 0.0
-0.013300 0.009355 0.0
-0.014399 0.008910 0.0
-0.015443 0.008432 0.0
-0.016428 0.007921 0.0
-0.017349 0.007380 0.0
-0.018204 0.006811 0.0
-0.018990 0.006215 0.0
-0.019703 0.005595 0.0
-0.020341 0.004952 0.0
-0.020901 0.004290 0.0
-0.021382 0.003609 0.0
-0.021781 0.002912 0.0
-0.022097 0.002202 0.0
-0.022327 0.001480 0.0
-0.022472 0.000749 0.0
-0.022529 0.000011 0.0
-0.022498 -0.000732 0.0
-0.022378 -0.001477 0.0
-0.022169 -0.002222 0.0
-0.021871 -0.002963 0.0
-0.021484 -0.003699 0.0
-0.021009 -0.004426 0.0
-0.020446 -0.005141 0.0
-0.019796 -0.005841 0.0
-0.019062 -0.006524 0.0
-0.018244 -0.007185 0.0
-0.017347 -0.007821 0.0
-0.016371 -0.008430 0.0
-0.015322 -0.009007 0.0
-0.014202 -0.009549 0.0
-0.013015 -0.010053 0.0
-0.011767 -0.010515 0.0
-0.010462 -0.010932 0.0
-0.009107 -0.011302 0.0
-0.007708 -0.011622 0.0
-0.006270 -0.011889 0.0
-0.004801 -0.012100 0.0
-0.003310 -0.012229 0.0
-0.001825 -0.011977 0.0
-0.000545 -0.008838 0.0
-0.000513 0.009219 0.0
-0.001727 0.012598 0.0
-0.003143 0.012886 0.0
-0.004568 0.012779 0.0
-0.005977 0.012595 0.0
-0.007363 0.012361 0.0
-0.008719 0.012079 0.0
-0.010042 0.011751 0.0
-0.011324 0.011377 0.0
-0.012563 0.010960 0.0
-0.013753 0.010500 0.0
-0.014889 0.010001 0.0
-0.015968 0.009464 0.0
-0.016985 0.008891 0.0
-0.017938 0.008284 0.0
-0.018821 0.007645 0.0
-0.019634 0.006978 0.0
-0.020371 0.006283 0.0
-0.021032 0.005563 0.0
-0.021612 0.004820 0.0
-0.022111 0.004058 0.0
-0.022526 0.003278 0.0
-0.022855 0.002482 0.0
-0.023097 0.001673 0.0
-0.023250 0.000854 0.0
-0.023313 0.000026 0.0
-0.023286 -0.000806 0.0
-0.023167 -0.001642 0.0
-0.022957 -0.002477 0.0
-0.022654 -0.003309 0.0
-0.022260 -0.004135 0.0
-0.021773 -0.004951 0.0
-0.021197 -0.005755 0.0
-0.020530 -0.006543 0.0
-0.019775 -0.007311 0.0
-0.018933 -0.008056 0.0
-0.018008 -0.008773 0.0
-0.017001 -0.009460 0.0
-0.015917 -0.010111 0.0
-0.014758 -0.010724 0.0
-0.013529 -0.011293 0.0
-0.012235 -0.011816 0.0
-0.010882 -0.012289 0.0
-0.009475 -0.012708 0.0
-0.008020 -0.013070 0.0
-0.006525 -0.013373 0.0
-0.004998 -0.013613 0.0
-0.003446 -0.013760 0.0
-0.001900 -0.013477 0.0
-0.000568 -0.009951 0.0
-0.000532 0.010264 0.0
-0.001791 0.014024 0.0
-0.003259 0.014345 0.0
-0.004738 0.014225 0.0
-0.006199 0.014020 0.0
-0.007636 0.013759 0.0
-0.009042 0.013445 0.0
-0.010413 0.013078 0.0
-0.011742 0.012662 0.0
-0.013026 0.012197 0.0
-0.014258 0.011685 0.0
-0.015436 0.011130 0.0
-0.016554 0.010532 0.0
-0.017608 0.009894 0.0
-0.018595 0.009220 0.0
-0.019511 0.008510 0.0
-0.020352 0.007767 0.0
-0.021117 0.006995 0.0
-0.021803 0.006196 0.0
-0.022406 0.005371 0.0
-0.022925 0.004525 0.0
-0.023357 0.003658 0.0
-0.023701 0.002774 0.0
-0.023955 0.001876 0.0
-0.024118 0.000966 0.0
-0.024189 0.000047 0.0
-0.024166 -0.000878 0.0
-0.024048 -0.001806 0.0
-0.023836 -0.002735 0.0
-0.023529 -0.003661 0.0
-0.023127 -0.004580 0.0
-0.022629 -0.005490 0.0
-0.022037 -0.006386 0.0
-0.021352 -0.007265 0.0
-0.020574 -0.008122 0.0
-0.019707 -0.008954 0.0
-0.018751 -0.009757 0.0
-0.017709 -0.010525 0.0
-0.016585 -0.011254 0.0
-0.015383 -0.011941 0.0
-0.014108 -0.012580 0.0
-0.012763 -0.013168 0.0
-0.011354 -0.013699 0.0
-0.009889 -0.014170 0.0
-0.008373 -0.014578 0.0
-0.006814 -0.014919 0.0
-0.005220 -0.015189 0.0
-0.003600 -0.015355 0.0
-0.001985 -0.015042 0.0
-0.000593 -0.011111 0.0
-0.000553 0.011350 0.0
-0.001861 0.015505 0.0
-0.003388 0.015859 0.0
-0.004926 0.015726 0.0
-0.006445 0.015499 0.0
-0.007938 0.015210 0.0
-0.009400 0.014862 0.0
-0.010824 0.014456 0.0
-0.012206 0.013995 0.0
-0.013539 0.013480 0.0
-0.014820 0.012915 0.0
-0.016042 0.012300 0.0
-0.017203 0.011640 0.0
-0.018298 0.010935 0.0
-0.019322 0.010190 0.0
-0.020274 0.009406 0.0
-0.021148 0.008587 0.0
-0.021943 0.007735 0.0
-0.022656 0.006854 0.0
-0.023284 0.005944 0.0
-0.023824 0.005011 0.0
-0.024276 0.004056 0.0
-0.024637 0.003082 0.0
-0.024905 0.002091 0.0
-0.025079 0.001088 0.0
-0.025158 0.000075 0.0
-0.025140 -0.000946 0.0
-0.025024 -0.001971 0.0
-0.024811 -0.002996 0.0
-0.024499 -0.004019 0.0
-0.024089 -0.005035 0.0
-0.023579 -0.006041 0.0
-0.022971 -0.007034 0.0
-0.022266 -0.008007 0.0
-0.021464 -0.008959 0.0
-0.020568 -0.009882 0.0
-0.019579 -0.010774 0.0
-0.018499 -0.011628 0.0
-0.017333 -0.012441 0.0
-0.016083 -0.013206 0.0
-0.014755 -0.013919 0.0
-0.013354 -0.014575 0.0
-0.011884 -0.015169 0.0
-0.010354 -0.015696 0.0
-0.008769 -0.016153 0.0
-0.007138 -0.016535 0.0
-0.005469 -0.016837 0.0
-0.003772 -0.017024 0.0
-0.002081 -0.016679 0.0
-0.000622 -0.012326 0.0
-0.000576 0.012479 0.0
-0.001940 0.017047 0.0
-0.003531 0.017436 0.0
-0.005134 0.017289 0.0
-0.006717 0.017039 0.0
-0.008273 0.016720 0.0
-0.009796 0.016336 0.0
-0.011279 0.015889 0.0
-0.012718 0.015382 0.0
-0.014106 0.014815 0.0
-0.015439 0.014193 0.0
-0.016711 0.013517 0.0
-0.017919 0.012791 0.0
-0.019057 0.012017 0.0
-0.020123 0.011199 0.0
-0.021113 0.010339 0.0
-0.022023 0.009440 0.0
-0.022851 0.008506 0.0
-0.023594 0.007539 0.0
-0.024249 0.006542 0.0
-0.024813 0.005519 0.0
-0.025286 0.004472 0.0
-0.025665 0.003405 0.0
-0.025949 0.002320 0.0
-0.026135 0.001220 0.0
-0.026223 0.000109 0.0
-0.026211 -0.001010 0.0
-0.026099 -0.002134 0.0
-0.025884 -0.003260 0.0
-0.025568 -0.004383 0.0
-0.025149 -0.005500 0.0
-0.024628 -0.006607 0.0
-0.024003 -0.007700 0.0
-0.023277 -0.008773 0.0
-0.022449 -0.009822 0.0
-0.021522 -0.010842 0.0
-0.020497 -0.011828 0.0
-0.019376 -0.012774 0.0
-0.018163 -0.013674 0.0
-0.016862 -0.014523 0.0
-0.015476 -0.015315 0.0
-0.014012 -0.016045 0.0
-0.012476 -0.016705 0.0
-0.010873 -0.017293 0.0
-0.009212 -0.017802 0.0
-0.007501 -0.018228 0.0
-0.005748 -0.018566 0.0
-0.003966 -0.018774 0.0
-0.002188 -0.018396 0.0
-0.000654 -0.013602 0.0
-0.000602 0.013657 0.0
-0.002026 0.018656 0.0
-0.003689 0.019081 0.0
-0.005362 0.018919 0.0
-0.007016 0.018645 0.0
-0.008641 0.018295 0.0
-0.010231 0.017874 0.0
-0.011779 0.017384 0.0
-0.013280 0.016827 0.0
-0.014728 0.016206 0.0
-0.016118 0.015525 0.0
-0.017444 0.014785 0.0
-0.018703 0.013990 0.0
-0.019890 0.013144 0.0
-0.021001 0.012249 0.0
-0.022032 0.011310 0.0
-0.022981 0.010328 0.0
-0.023844 0.009308 0.0
-0.024619 0.008253 0.0
-0.025303 0.007166 0.0
-0.025894 0.006051 0.0
-0.026390 0.004909 0.0
-0.026789 0.003746 0.0
-0.027090 0.002563 0.0
-0.027290 0.001364 0.0
-0.027388 0.000152 0.0
-0.027383 -0.001069 0.0
-0.027274 -0.002296 0.0
-0.027060 -0.003526 0.0
-0.026740 -0.004754 0.0
-0.026313 -0.005976 0.0
-0.025779 -0.007188 0.0
-0.025137 -0.008385 0.0
-0.024389 -0.009563 0.0
-0.023534 -0.010715 0.0
-0.022574 -0.011837 0.0
-0.021510 -0.012923 0.0
-0.020345 -0.013965 0.0
-0.019082 -0.014959 0.0
-0.017724 -0.015898 0.0
-0.016276 -0.016774 0.0
-0.014744 -0.017582 0.0
-0.013133 -0.018315 0.0
-0.011450 -0.018968 0.0
-0.009705 -0.019534 0.0
-0.007904 -0.020008 0.0
-0.006059 -0.020384 0.0
-0.004181 -0.020617 0.0
-0.002308 -0.020205 0.0
-0.000690 -0.014946 0.0
-0.000630 0.014889 0.0
-0.002120 0.020339 0.0
-0.003861 0.020802 0.0
-0.005613 0.020624 0.0
-0.007344 0.020324 0.0
-0.009044 0.019941 0.0
-0.010707 0.019480 0.0
-0.012326 0.018945 0.0
-0.013895 0.018336 0.0
-0.015408 0.017658 0.0
-0.016860 0.016914 0.0
-0.018245 0.016107 0.0
-0.019560 0.015241 0.0
-0.020798 0.014319 0.0
-0.021958 0.013345 0.0
-0.023034 0.012322 0.0
-0.024025 0.011255 0.0
-0.024926 0.010146 0.0
-0.025736 0.009000 0.0
-0.026451 0.007819 0.0
-0.027070 0.006608 0.0
-0.027591 0.005369 0.0
-0.028012 0.004106 0.0
-0.028331 0.002822 0.0
-0.028546 0.001520 0.0
-0.028656 0.000204 0.0
-0.028659 -0.001123 0.0
-0.028555 -0.002456 0.0
-0.028342 -0.003794 0.0
-0.028018 -0.005130 0.0
-0.027583 -0.006461 0.0
-0.027037 -0.007783 0.0
-0.026378 -0.009090 0.0
-0.025607 -0.010377 0.0
-0.024724 -0.011639 0.0
-0.023729 -0.012868 0.0
-0.022625 -0.014059 0.0
-0.021413 -0.015206 0.0
-0.020096 -0.016300 0.0
-0.018677 -0.017334 0.0
-0.017161 -0.018302 0.0
-0.015554 -0.019195 0.0
-0.013861 -0.020006 0.0
-0.012091 -0.020729 0.0
-0.010252 -0.021357 0.0
-0.008353 -0.021884 0.0
-0.006405 -0.022301 0.0
-0.004421 -0.022561 0.0
-0.002441 -0.022114 0.0
-0.000730 -0.016366 0.0
-0.000660 0.016179 0.0
-0.002223 0.022103 0.0
-0.004049 0.022605 0.0
-0.005887 0.022411 0.0
-0.007702 0.022083 0.0
-0.009484 0.021665 0.0
-0.011227 0.021162 0.0
-0.012923 0.020578 0.0
-0.014566 0.019915 0.0
-0.016150 0.019177 0.0
-0.017669 0.018367 0.0
-0.019118 0.017489 0.0
-0.020491 0.016547 0.0
-0.021786 0.015546 0.0
-0.022998 0.014489 0.0
-0.024122 0.013380 0.0
-0.025157 0.012223 0.0
-0.026099 0.011022 0.0
-0.026946 0.009781 0.0
-0.027695 0.008503 0.0
-0.028345 0.007193 0.0
-0.028892 0.005853 0.0
-0.029337 0.004487 0.0
-0.029675 0.003098 0.0
-0.029907 0.001690 0.0
-0.030030 0.000267 0.0
-0.030044 -0.001169 0.0
-0.029945 -0.002613 0.0
-0.029734 -0.004062 0.0
-0.029407 -0.005511 0.0
-0.028966 -0.006956 0.0
-0.028407 -0.008393 0.0
-0.027731 -0.009815 0.0
-0.026937 -0.011217 0.0
-0.026025 -0.012594 0.0
-0.024995 -0.013937 0.0
-0.023848 -0.015241 0.0
-0.022586 -0.016498 0.0
-0.021211 -0.017700 0.0
-0.019726 -0.018837 0.0
-0.018137 -0.019903 0.0
-0.016448 -0.020889 0.0
-0.014667 -0.021786 0.0
-0.012801 -0.022586 0.0
-0.010859 -0.023281 0.0
-0.008852 -0.023865 0.0
-0.006790 -0.024329 0.0
-0.004688 -0.024619 0.0
-0.002589 -0.024135 0.0
-0.000774 -0.017870 0.0
-0.000693 0.017532 0.0
-0.002336 0.023955 0.0
-0.004255 0.024498 0.0
-0.006186 0.024286 0.0
-0.008093 0.023928 0.0
-0.009964 0.023473 0.0
-0.011794 0.022926 0.0
-0.013573 0.022290 0.0
-0.015296 0.021569 0.0
-0.016957 0.020766 0.0
-0.018548 0.019887 0.0
-0.020065 0.018934 0.0
-0.021503 0.017913 0.0
-0.022857 0.016829 0.0
-0.024124 0.015684 0.0
-0.025300 0.014485 0.0
-0.026382 0.013234 0.0
-0.027368 0.011938 0.0
-0.028254 0.010598 0.0
-0.029039 0.009220 0.0
-0.029721 0.007807 0.0
-0.030297 0.006362 0.0
-0.030767 0.004890 0.0
-0.031127 0.003394 0.0
-0.031377 0.001877 0.0
-0.031515 0.000342 0.0
-0.031539 -0.001207 0.0
-0.031448 -0.002765 0.0
-0.031240 -0.004330 0.0
-0.030913 -0.005896 0.0
-0.030465 -0.007460 0.0
-0.029895 -0.009017 0.0
-0.029203 -0.010560 0.0
-0.028386 -0.012084 0.0
-0.027444 -0.013582 0.0
-0.026377 -0.015047 0.0
-0.025186 -0.016471 0.0
-0.023871 -0.017846 0.0
-0.022435 -0.019163 0.0
-0.020881 -0.020413 0.0
-0.019213 -0.021586 0.0
-0.017436 -0.022672 0.0
-0.015558 -0.023662 0.0
-0.013587 -0.024547 0.0
-0.011532 -0.025317 0.0
-0.009404 -0.025965 0.0
-0.007217 -0.026479 0.0
-0.004984 -0.026802 0.0
-0.002754 -0.026281 0.0
-0.000824 -0.019469 0.0
-0.000730 0.018955 0.0
-0.002459 0.025904 0.0
-0.004479 0.026489 0.0
-0.006512 0.026259 0.0
-0.008518 0.025869 0.0
-0.010487 0.025374 0.0
-0.012410 0.024778 0.0
-0.014280 0.024087 0.0
-0.016090 0.023304 0.0
-0.017832 0.022433 0.0
-0.019501 0.021480 0.0
-0.021091 0.020448 0.0
-0.022597 0.019344 0.0
-0.024015 0.018171 0.0
-0.025341 0.016935 0.0
-0.026572 0.015641 0.0
-0.027704 0.014293 0.0
-0.028736 0.012896 0.0
-0.029664 0.011454 0.0
-0.030487 0.009972 0.0
-0.031202 0.008452 0.0
-0.031809 0.006900 0.0
-0.032305 0.005318 0.0
-0.032689 0.003710 0.0
-0.032959 0.002080 0.0
-0.033114 0.000431 0.0
-0.033151 -0.001234 0.0
-0.033068 -0.002911 0.0
-0.032865 -0.004596 0.0
-0.032538 -0.006284 0.0
-0.032086 -0.007972 0.0
-0.031507 -0.009654 0.0
-0.030798 -0.011324 0.0
-0.029959 -0.012976 0.0
-0.028988 -0.014602 0.0
-0.027884 -0.016197 0.0
-0.026647 -0.017749 0.0
-0.025278 -0.019252 0.0
-0.023777 -0.020694 0.0
-0.022149 -0.022065 0.0
-0.020396 -0.023354 0.0
-0.018525 -0.024551 0.0
-0.016542 -0.025644 0.0
-0.014456 -0.026622 0.0
-0.012277 -0.027475 0.0
-0.010018 -0.028194 0.0
-0.007691 -0.028765 0.0
-0.005314 -0.029126 0.0
-0.002937 -0.028566 0.0
-0.000879 -0.021172 0.0
-0.000769 0.020454 0.0
-0.002592 0.027957 0.0
-0.004723 0.028588 0.0
-0.006866 0.028336 0.0
-0.008981 0.027912 0.0
-0.011055 0.027374 0.0
-0.013080 0.026727 0.0
-0.015048 0.025976 0.0
-0.016950 0.025127 0.0
-0.018781 0.024183 0.0
-0.020533 0.023151 0.0
-0.022201 0.022035 0.0
-0.023780 0.020842 0.0
-0.025266 0.019576 0.0
-0.026654 0.018244 0.0
-0.027942 0.016851 0.0
-0.029127 0.015401 0.0
-0.030207 0.013899 0.0
-0.031179 0.012351 0.0
-0.032041 0.010760 0.0
-0.032793 0.009131 0.0
-0.033431 0.007467 0.0
-0.033956 0.005772 0.0
-0.034365 0.004050 0.0
-0.034657 0.002303 0.0
-0.034830 0.000535 0.0
-0.034881 -0.001250 0.0
-0.034810 -0.003049 0.0
-0.034613 -0.004858 0.0
-0.034289 -0.006673 0.0
-0.033834 -0.008490 0.0
-0.033247 -0.010303 0.0
-0.032525 -0.012106 0.0
-0.031665 -0.013893 0.0
-0.030665 -0.015656 0.0
-0.029524 -0.017388 0.0
-0.028241 -0.019078 0.0
-0.026815 -0.020718 0.0
-0.025248 -0.022295 0.0
-0.023541 -0.023798 0.0
-0.021699 -0.025216 0.0
-0.019726 -0.026534 0.0
-0.017629 -0.027741 0.0
-0.015418 -0.028823 0.0
-0.013103 -0.029768 0.0
-0.010698 -0.030566 0.0
-0.008217 -0.031201 0.0
-0.005680 -0.031604 0.0
-0.003141 -0.031004 0.0
-0.000941 -0.022991 0.0
-0.000812 0.022035 0.0
-0.002737 0.030124 0.0
-0.004988 0.030802 0.0
-0.007252 0.030528 0.0
-0.009484 0.030067 0.0
-0.011672 0.029481 0.0
-0.013807 0.028779 0.0
-0.015880 0.027965 0.0
-0.017883 0.027044 0.0
-0.019808 0.026022 0.0
-0.021649 0.024905 0.0
-0.023400 0.023700 0.0
-0.025056 0.022412 0.0
-0.026613 0.021049 0.0
-0.028067 0.019615 0.0
-0.029416 0.018117 0.0
-0.030656 0.016560 0.0
-0.031785 0.014949 0.0
-0.032803 0.013290 0.0
-0.033707 0.011587 0.0
-0.034495 0.009844 0.0
-0.035168 0.008065 0.0
-0.035723 0.006254 0.0
-0.036158 0.004413 0.0
-0.036474 0.002546 0.0
-0.036666 0.000657 0.0
-0.036735 -0.001252 0.0
-0.036677 -0.003177 0.0
-0.036489 -0.005114 0.0
-0.036170 -0.007061 0.0
-0.035715 -0.009011 0.0
-0.035123 -0.010961 0.0
-0.034388 -0.012904 0.0
-0.033510 -0.014833 0.0
-0.032483 -0.016742 0.0
-0.031306 -0.018620 0.0
-0.029977 -0.020458 0.0
-0.028494 -0.022246 0.0
-0.026858 -0.023970 0.0
-0.025070 -0.025618 0.0
-0.023132 -0.027176 0.0
-0.021050 -0.028629 0.0
-0.018831 -0.029962 0.0
-0.016484 -0.031160 0.0
-0.014020 -0.032209 0.0
-0.011455 -0.033096 0.0
-0.008804 -0.033803 0.0
-0.006088 -0.034254 0.0
-0.003368 -0.033614 0.0
-0.001009 -0.024941 0.0
-0.000858 0.023705 0.0
-0.002895 0.032416 0.0
-0.005277 0.033144 0.0
-0.007671 0.032844 0.0
-0.010031 0.032343 0.0
-0.012343 0.031706 0.0
-0.014597 0.030943 0.0
-0.016783 0.030060 0.0
-0.018893 0.029062 0.0
-0.020919 0.027955 0.0
-0.022855 0.026748 0.0
-0.024694 0.025447 0.0
-0.026431 0.024059 0.0
-0.028063 0.022591 0.0
-0.029586 0.021049 0.0
-0.030997 0.019441 0.0
-0.032294 0.017772 0.0
-0.033476 0.016048 0.0
-0.034541 0.014274 0.0
-0.035487 0.012454 0.0
-0.036315 0.010593 0.0
-0.037022 0.008696 0.0
-0.037608 0.006764 0.0
-0.038072 0.004802 0.0
-0.038413 0.002813 0.0
-0.038628 0.000799 0.0
-0.038715 -0.001237 0.0
-0.038673 -0.003292 0.0
-0.038497 -0.005362 0.0
-0.038186 -0.007444 0.0
-0.037735 -0.009534 0.0
-0.037140 -0.011626 0.0
-0.036397 -0.013716 0.0
-0.035502 -0.015795 0.0
-0.034451 -0.017857 0.0
-0.033241 -0.019892 0.0
-0.031867 -0.021889 0.0
-0.030327 -0.023837 0.0
-0.028620 -0.025722 0.0
-0.026747 -0.027528 0.0
-0.024710 -0.029241 0.0
-0.022512 -0.030843 0.0
-0.020160 -0.032318 0.0
-0.017665 -0.033646 0.0
-0.015039 -0.034813 0.0
-0.012297 -0.035800 0.0
-0.009457 -0.036590 0.0
-0.006544 -0.037096 0.0
-0.003622 -0.036414 0.0
-0.001086 -0.027035 0.0
-0.000909 0.025472 0.0
-0.003067 0.034843 0.0
-0.005591 0.035623 0.0
-0.008127 0.035295 0.0
-0.010626 0.034749 0.0
-0.013071 0.034057 0.0
-0.015454 0.033228 0.0
-0.017762 0.032269 0.0
-0.019987 0.031187 0.0
-0.022121 0.029990 0.0
-0.024157 0.028685 0.0
-0.026089 0.027281 0.0
-0.027912 0.025786 0.0
-0.029623 0.024206 0.0
-0.031217 0.022551 0.0
-0.032693 0.020827 0.0
-0.034049 0.019040 0.0
-0.035284 0.017197 0.0
-0.036397 0.015302 0.0
-0.037387 0.013362 0.0
-0.038254 0.011380 0.0
-0.038997 0.009360 0.0
-0.039616 0.007305 0.0
-0.040110 0.005219 0.0
-0.040477 0.003104 0.0
-0.040716 0.000962 0.0
-0.040825 -0.001204 0.0
-0.040801 -0.003392 0.0
-0.040641 -0.005598 0.0
-0.040341 -0.007820 0.0
-0.039897 -0.010053 0.0
-0.039304 -0.012294 0.0
-0.038558 -0.014537 0.0
-0.037651 -0.016775 0.0
-0.036580 -0.019000 0.0
-0.035338 -0.021202 0.0
-0.033922 -0.023370 0.0
-0.032327 -0.025491 0.0
-0.030549 -0.027551 0.0
-0.028589 -0.029532 0.0
-0.026447 -0.031417 0.0
-0.024127 -0.033186 0.0
-0.021634 -0.034819 0.0
-0.018979 -0.036295 0.0
-0.016174 -0.037595 0.0
-0.013237 -0.038697 0.0
-0.010188 -0.039581 0.0
-0.007054 -0.040152 0.0
-0.003906 -0.039428 0.0
-0.001172 -0.029293 0.0
-0.000964 0.027346 0.0
-0.003254 0.037418 0.0
-0.005933 0.038252 0.0
-0.008624 0.037893 0.0
-0.011273 0.037298 0.0
-0.013864 0.036545 0.0
-0.016385 0.035644 0.0
-0.018824 0.034602 0.0
-0.021172 0.033429 0.0
-0.023421 0.032132 0.0
-0.025564 0.030722 0.0
-0.027594 0.029207 0.0
-0.029506 0.027596 0.0
-0.031298 0.025898 0.0
-0.032966 0.024122 0.0
-0.034508 0.022275 0.0
-0.035925 0.020364 0.0
-0.037214 0.018396 0.0
-0.038375 0.016377 0.0
-0.039410 0.014312 0.0
-0.040317 0.012204 0.0
-0.041097 0.010059 0.0
-0.041749 0.007878 0.0
-0.042274 0.005665 0.0
-0.042670 0.003421 0.0
-0.042935 0.001149 0.0
-0.043068 -0.001149 0.0
-0.043066 -0.003472 0.0
-0.042925 -0.005818 0.0
-0.042641 -0.008183 0.0
-0.042209 -0.010566 0.0
-0.041623 -0.012961 0.0
-0.040878 -0.015363 0.0
-0.039965 -0.017768 0.0
-0.038878 -0.020165 0.0
-0.037611 -0.022546 0.0
-0.036156 -0.024898 0.0
-0.034508 -0.027208 0.0
-0.032661 -0.029459 0.0
-0.030613 -0.031633 0.0
-0.028363 -0.033709 0.0
-0.025914 -0.035665 0.0
-0.023270 -0.037477 0.0
-0.020441 -0.039121 0.0
-0.017442 -0.040573 0.0
-0.014290 -0.041808 0.0
-0.011008 -0.042801 0.0
-0.007627 -0.043446 0.0
-0.004227 -0.042682 0.0
-0.001268 -0.031732 0.0
-0.001024 0.029334 0.0
-0.003458 0.040153 0.0
-0.006307 0.041044 0.0
-0.009166 0.040651 0.0
-0.011979 0.040002 0.0
-0.014727 0.039180 0.0
-0.017397 0.038199 0.0
-0.019977 0.037066 0.0
-0.022457 0.035793 0.0
-0.024828 0.034388 0.0
-0.027083 0.032863 0.0
-0.029215 0.031228 0.0
-0.031221 0.029493 0.0
-0.033097 0.027668 0.0
-0.034840 0.025763 0.0
-0.036451 0.023786 0.0
-0.037927 0.021745 0.0
-0.039271 0.019647 0.0
-0.040481 0.017498 0.0
-0.041560 0.015303 0.0
-0.042507 0.013067 0.0
-0.043324 0.010793 0.0
-0.044010 0.008483 0.0
-0.044567 0.006141 0.0
-0.044993 0.003767 0.0
-0.045287 0.001363 0.0
-0.045447 -0.001070 0.0
-0.045470 -0.003531 0.0
-0.045352 -0.006018 0.0
-0.045089 -0.008530 0.0