# vtk DataFile Version 3.0
Vector Field
ASCII
DATASET RECTILINEAR_GRID
DIMENSIONS 50 50 1
X_COORDINATES 50 double
0.100000 0.300000 0.500000 0.700000 0.900000 1.100000 1.300000 1.500000 1.700000 1.900000 2.100000 2.300000 2.500000 2.700000 2.900000 3.100000 3.300000 3.500000 3.700000 3.900000 4.100000 4.300000 4.500000 4.700000 4.900000 5.100000 5.300000 5.500000 5.700000 5.900000 6.100000 6.300000 6.500000 6.700000 6.900000 7.100000 7.300000 7.500000 7.700000 7.900000 8.100000 8.300000 8.500000 8.700000 8.900000 9.100000 9.300000 9.500000 9.700000 9.900000 
Y_COORDINATES 50 double
0.100000 0.300000 0.500000 0.700000 0.900000 1.100000 1.300000 1.500000 1.700000 1.900000 2.100000 2.300000 2.500000 2.700000 2.900000 3.100000 3.300000 3.500000 3.700000 3.900000 4.100000 4.300000 4.500000 4.700000 4.900000 5.100000 5.300000 5.500000 5.700000 5.900000 6.100000 6.300000 6.500000 6.700000 6.900000 7.100000 7.300000 7.500000 7.700000 7.900000 8.100000 8.300000 8.500000 8.700000 8.900000 9.100000 9.300000 9.500000 9.700000 9.900000 
Z_COORDINATES 1 double
0.0
POINT_DATA 2500
VECTORS Vektorfeld double
-0.000226 0.000226 0.0
-0.001040 0.000588 0.0
-0.002387 0.000759 0.0
-0.003969 0.000823 0.0
-0.005635 0.000843 0.0
-0.007327 0.000849 0.0
-0.009030 0.000853 0.0
-0.010741 0.000858 0.0
-0.012464 0.000864 0.0
-0.014198 0.000871 0.0
-0.015947 0.000878 0.0
-0.017710 0.000885 0.0
-0.019487 0.000892 0.0
-0.021277 0.000898 0.0
-0.023078 0.000903 0.0
-0.024887 0.000906 0.0
-0.026701 0.000908 0.0
-0.028515 0.000906 0.0
-0.030323 0.000901 0.0
-0.032116 0.000892 0.0
-0.033885 0.000877 0.0
-0.035619 0.000857 0.0
-0.037305 0.000829 0.0
-0.038926 0.000792 0.0
-0.040465 0.000747 0.0
-0.041902 0.000690 0.0
-0.043214 0.000622 0.0
-0.044377 0.000541 0.0
-0.045365 0.000446 0.0
-0.046148 0.000338 0.0
-0.046700 0.000214 0.0
-0.046992 0.000077 0.0
-0.046997 -0.000072 0.0
-0.046686 -0.000238 0.0
-0.046030 -0.000418 0.0
-0.045006 -0.000607 0.0
-0.043594 -0.000804 0.0
-0.041786 -0.001004 0.0
-0.039579 -0.001203 0.0
-0.036979 -0.001397 0.0
-0.034002 -0.001581 0.0
-0.030671 -0.001750 0.0
-0.027021 -0.001900 0.0
-0.023095 -0.002026 0.0
-0.018948 -0.002121 0.0
-0.014657 -0.002170 0.0
-0.010343 -0.002144 0.0
-0.006223 -0.001975 0.0
-0.002722 -0.001526 0.0
-0.000598 -0.000598 0.0
-0.000614 0.001066 0.0
-0.002455 0.002403 0.0
-0.005204 0.003040 0.0
-0.008375 0.003295 0.0
-0.011722 0.003384 0.0
-0.015136 0.003415 0.0
-0.018576 0.003431 0.0
-0.022030 0.003446 0.0
-0.025495 0.003463 0.0
-0.028971 0.003482 0.0
-0.032456 0.003501 0.0
-0.035950 0.003519 0.0
-0.039449 0.003534 0.0
-0.042950 0.003546 0.0
-0.046446 0.003552 0.0
-0.049931 0.003551 0.0
-0.053395 0.003541 0.0
-0.056827 0.003519 0.0
-0.060213 0.003482 0.0
-0.063538 0.003428 0.0
-0.066781 0.003354 0.0
-0.069921 0.003254 0.0
-0.072932 0.003127 0.0
-0.075785 0.002968 0.0
-0.078447 0.002773 0.0
-0.080882 0.002537 0.0
-0.083052 0.002257 0.0
-0.084913 0.001930 0.0
-0.086421 0.001553 0.0
-0.087530 0.001124 0.0
-0.088193 0.000643 0.0
-0.088363 0.000111 0.0
-0.087992 -0.000472 0.0
-0.087035 -0.001106 0.0
-0.085458 -0.001783 0.0
-0.083231 -0.002493 0.0
-0.080335 -0.003225 0.0
-0.076761 -0.003965 0.0
-0.072512 -0.004699 0.0
-0.067603 -0.005409 0.0
-0.062067 -0.006082 0.0
-0.055948 -0.006699 0.0
-0.049303 -0.007246 0.0
-0.042207 -0.007703 0.0
-0.034755 -0.008043 0.0
-0.027079 -0.008215 0.0
-0.019386 -0.008108 0.0
-0.012029 -0.007489 0.0
-0.005647 -0.005895 0.0
-0.001402 -0.002598 0.0
-0.000823 0.002503 0.0
-0.003216 0.005201 0.0
-0.006696 0.006471 0.0
-0.010661 0.006999 0.0
-0.014830 0.007196 0.0
-0.019079 0.007266 0.0
-0.023359 0.007299 0.0
-0.027652 0.007324 0.0
-0.031952 0.007349 0.0
-0.036254 0.007374 0.0
-0.040557 0.007397 0.0
-0.044857 0.007416 0.0
-0.049149 0.007428 0.0
-0.053426 0.007430 0.0
-0.057681 0.007419 0.0
-0.061904 0.007392 0.0
-0.066083 0.007343 0.0
-0.070203 0.007269 0.0
-0.074247 0.007163 0.0
-0.078194 0.007020 0.0
-0.082022 0.006833 0.0
-0.085704 0.006596 0.0
-0.089209 0.006301 0.0
-0.092503 0.005941 0.0
-0.095547 0.005507 0.0
-0.098301 0.004992 0.0
-0.100718 0.004389 0.0
-0.102751 0.003692 0.0
-0.104348 0.002896 0.0
-0.105456 0.001998 0.0
-0.106023 0.000998 0.0
-0.105993 -0.000103 0.0
-0.105318 -0.001304 0.0
-0.103953 -0.002595 0.0
-0.101862 -0.003962 0.0
-0.099016 -0.005386 0.0
-0.095398 -0.006846 0.0
-0.091001 -0.008315 0.0
-0.085833 -0.009766 0.0
-0.079917 -0.011166 0.0
-0.073291 -0.012487 0.0
-0.066008 -0.013696 0.0
-0.058138 -0.014763 0.0
-0.049768 -0.015651 0.0
-0.041008 -0.016306 0.0
-0.032009 -0.016625 0.0
-0.023001 -0.016399 0.0
-0.014368 -0.015188 0.0
-0.006819 -0.012127 0.0
-0.001715 -0.005715 0.0
-0.000916 0.004241 0.0
-0.003571 0.008512 0.0
-0.007409 0.010479 0.0
-0.011755 0.011302 0.0
-0.016310 0.011615 0.0
-0.020944 0.011730 0.0
-0.025609 0.011780 0.0
-0.030284 0.011812 0.0
-0.034962 0.011839 0.0
-0.039638 0.011863 0.0
-0.044308 0.011881 0.0
-0.048968 0.011891 0.0
-0.053611 0.011888 0.0
-0.058231 0.011867 0.0
-0.062818 0.011825 0.0
-0.067361 0.011753 0.0
-0.071848 0.011647 0.0
-0.076263 0.011499 0.0
-0.080587 0.011300 0.0
-0.084798 0.011042 0.0
-0.088873 0.010714 0.0
-0.092782 0.010307 0.0
-0.096495 0.009808 0.0
-0.099973 0.009207 0.0
-0.103179 0.008491 0.0
-0.106068 0.007650 0.0
-0.108592 0.006672 0.0
-0.110700 0.005550 0.0
-0.112340 0.004275 0.0
-0.113455 0.002843 0.0
-0.113989 0.001253 0.0
-0.113886 -0.000491 0.0
-0.113096 -0.002383 0.0
-0.111571 -0.004406 0.0
-0.109273 -0.006540 0.0
-0.106170 -0.008756 0.0
-0.102244 -0.011021 0.0
-0.097487 -0.013295 0.0
-0.091908 -0.015533 0.0
-0.085531 -0.017691 0.0
-0.078399 -0.019720 0.0
-0.070571 -0.021574 0.0
-0.062123 -0.023204 0.0
-0.053151 -0.024554 0.0
-0.043775 -0.025540 0.0
-0.034156 -0.026009 0.0
-0.024534 -0.025645 0.0
-0.015313 -0.023794 0.0
-0.007247 -0.019137 0.0
-0.001813 -0.009243 0.0
-0.000950 0.006107 0.0
-0.003713 0.012064 0.0
-0.007710 0.014762 0.0
-0.012228 0.015884 0.0
-0.016953 0.016313 0.0
-0.021755 0.016470 0.0
-0.026586 0.016535 0.0
-0.031425 0.016572 0.0
-0.036266 0.016598 0.0
-0.041104 0.016618 0.0
-0.045934 0.016627 0.0
-0.050752 0.016623 0.0
-0.055552 0.016599 0.0
-0.060326 0.016550 0.0
-0.065066 0.016469 0.0
-0.069760 0.016347 0.0
-0.074395 0.016176 0.0
-0.078956 0.015946 0.0
-0.083426 0.015646 0.0
-0.087781 0.015263 0.0
-0.091998 0.014785 0.0
-0.096048 0.014196 0.0
-0.099900 0.013482 0.0
-0.103516 0.012628 0.0
-0.106857 0.011616 0.0
-0.109878 0.010433 0.0
-0.112530 0.009064 0.0
-0.114760 0.007497 0.0
-0.116513 0.005720 0.0
-0.117730 0.003730 0.0
-0.118352 0.001523 0.0
-0.118320 -0.000895 0.0
-0.117578 -0.003512 0.0
-0.116073 -0.006307 0.0
-0.113759 -0.009251 0.0
-0.110600 -0.012307 0.0
-0.106570 -0.015427 0.0
-0.101659 -0.018557 0.0
-0.095873 -0.021637 0.0
-0.089236 -0.024601 0.0
-0.081793 -0.027385 0.0
-0.073607 -0.029923 0.0
-0.064763 -0.032147 0.0
-0.055367 -0.033979 0.0
-0.045550 -0.035307 0.0
-0.035487 -0.035924 0.0
-0.025434 -0.035405 0.0
-0.015821 -0.032868 0.0
-0.007443 -0.026507 0.0
-0.001847 -0.012903 0.0
-0.000959 0.008016 0.0
-0.003758 0.015717 0.0
-0.007815 0.019163 0.0
-0.012403 0.020587 0.0
-0.017198 0.021130 0.0
-0.022069 0.021328 0.0
-0.026968 0.021407 0.0
-0.031876 0.021447 0.0
-0.036786 0.021474 0.0
-0.041695 0.021489 0.0
-0.046598 0.021490 0.0
-0.051490 0.021472 0.0
-0.056368 0.021428 0.0
-0.061223 0.021351 0.0
-0.066048 0.021232 0.0
-0.070833 0.021062 0.0
-0.075564 0.020828 0.0
-0.080229 0.020519 0.0
-0.084808 0.020121 0.0
-0.089283 0.019618 0.0
-0.093628 0.018993 0.0
-0.097817 0.018228 0.0
-0.101818 0.017303 0.0
-0.105596 0.016200 0.0
-0.109108 0.014897 0.0
-0.112311 0.013376 0.0
-0.115153 0.011616 0.0
-0.117582 0.009603 0.0
-0.119537 0.007322 0.0
-0.120956 0.004765 0.0
-0.121776 0.001929 0.0
-0.121930 -0.001179 0.0
-0.121354 -0.004546 0.0
-0.119987 -0.008145 0.0
-0.117773 -0.011941 0.0
-0.114665 -0.015884 0.0
-0.110629 -0.019915 0.0
-0.105647 -0.023962 0.0
-0.099720 -0.027945 0.0
-0.092870 -0.031779 0.0
-0.085144 -0.035377 0.0
-0.076613 -0.038649 0.0
-0.067370 -0.041507 0.0
-0.057536 -0.043849 0.0
-0.047260 -0.045530 0.0
-0.036737 -0.046287 0.0
-0.026248 -0.045583 0.0
-0.016254 -0.042298 0.0
-0.007595 -0.034114 0.0
-0.001868 -0.016618 0.0
-0.000958 0.009933 0.0
-0.003761 0.019401 0.0
-0.007835 0.023610 0.0
-0.012446 0.025339 0.0
-0.017268 0.025995 0.0
-0.022166 0.026233 0.0
-0.027092 0.026326 0.0
-0.032030 0.026373 0.0
-0.036972 0.026401 0.0
-0.041916 0.026414 0.0
-0.046858 0.026410 0.0
-0.051796 0.026382 0.0
-0.056724 0.026323 0.0
-0.061637 0.026224 0.0
-0.066529 0.026075 0.0
-0.071389 0.025863 0.0
-0.076208 0.025577 0.0
-0.080971 0.025199 0.0
-0.085664 0.024714 0.0
-0.090267 0.024103 0.0
-0.094758 0.023344 0.0
-0.099110 0.022417 0.0
-0.103294 0.021298 0.0
-0.107273 0.019961 0.0
-0.111008 0.018383 0.0
-0.114452 0.016537 0.0
-0.117553 0.014400 0.0
-0.120256 0.011950 0.0
-0.122496 0.009170 0.0
-0.124207 0.006047 0.0
-0.125317 0.002576 0.0
-0.125751 -0.001238 0.0
-0.125434 -0.005380 0.0
-0.124292 -0.009820 0.0
-0.122256 -0.014516 0.0
-0.119266 -0.019407 0.0
-0.115275 -0.024419 0.0
-0.110254 -0.029461 0.0
-0.104195 -0.034431 0.0
-0.097119 -0.039219 0.0
-0.089073 -0.043709 0.0
-0.080136 -0.047786 0.0
-0.070416 -0.051333 0.0
-0.060054 -0.054220 0.0
-0.049225 -0.056265 0.0
-0.038152 -0.057147 0.0
-0.027152 -0.056213 0.0
-0.016722 -0.052092 0.0
-0.007754 -0.041948 0.0
-0.001889 -0.020376 0.0
-0.000952 0.011844 0.0
-0.003747 0.023089 0.0
-0.007820 0.028068 0.0
-0.012435 0.030107 0.0
-0.017264 0.030878 0.0
-0.022173 0.031157 0.0
-0.027111 0.031267 0.0
-0.032063 0.031322 0.0
-0.037024 0.031355 0.0
-0.041991 0.031371 0.0
-0.046963 0.031367 0.0
-0.051936 0.031336 0.0
-0.056909 0.031270 0.0
-0.061876 0.031158 0.0
-0.066833 0.030989 0.0
-0.071771 0.030748 0.0
-0.076682 0.030421 0.0
-0.081554 0.029990 0.0
-0.086374 0.029435 0.0
-0.091125 0.028735 0.0
-0.095786 0.027864 0.0
-0.100332 0.026797 0.0
-0.104735 0.025505 0.0
-0.108961 0.023959 0.0
-0.112968 0.022127 0.0
-0.116712 0.019980 0.0
-0.120138 0.017485 0.0
-0.123187 0.014616 0.0
-0.125791 0.011349 0.0
-0.127876 0.007665 0.0
-0.129363 0.003554 0.0
-0.130164 -0.000981 0.0
-0.130191 -0.005927 0.0
-0.129354 -0.011252 0.0
-0.127569 -0.016906 0.0
-0.124755 -0.022820 0.0
-0.120850 -0.028902 0.0
-0.115807 -0.035041 0.0
-0.109610 -0.041107 0.0
-0.102270 -0.046959 0.0
-0.093837 -0.052448 0.0
-0.084399 -0.057422 0.0
-0.074087 -0.061729 0.0
-0.063067 -0.065205 0.0
-0.051551 -0.067626 0.0
-0.039803 -0.068606 0.0
-0.028185 -0.067373 0.0
-0.017243 -0.062302 0.0
-0.007921 -0.050029 0.0
-0.001908 -0.024172 0.0
-0.000945 0.013741 0.0
-0.003726 0.026767 0.0
-0.007789 0.032525 0.0
-0.012400 0.034877 0.0
-0.017230 0.035766 0.0
-0.022141 0.036089 0.0
-0.027086 0.036218 0.0
-0.032047 0.036284 0.0
-0.037022 0.036327 0.0
-0.042009 0.036352 0.0
-0.047007 0.036356 0.0
-0.052016 0.036330 0.0
-0.057033 0.036266 0.0
-0.062056 0.036152 0.0
-0.067081 0.035976 0.0
-0.072103 0.035721 0.0
-0.077116 0.035372 0.0
-0.082110 0.034906 0.0
-0.087073 0.034303 0.0
-0.091992 0.033537 0.0
-0.096847 0.032579 0.0
-0.101618 0.031399 0.0
-0.106276 0.029964 0.0
-0.110790 0.028239 0.0
-0.115120 0.026185 0.0
-0.119219 0.023765 0.0
-0.123033 0.020941 0.0
-0.126500 0.017676 0.0
-0.129547 0.013940 0.0
-0.132092 0.009705 0.0
-0.134045 0.004954 0.0
-0.135306 -0.000318 0.0
-0.135771 -0.006099 0.0
-0.135330 -0.012357 0.0
-0.133876 -0.019041 0.0
-0.131308 -0.026068 0.0
-0.127536 -0.033331 0.0
-0.122495 -0.040695 0.0
-0.116148 -0.047998 0.0
-0.108498 -0.055059 0.0
-0.099595 -0.061684 0.0
-0.089540 -0.067677 0.0
-0.078488 -0.072839 0.0
-0.066646 -0.076957 0.0
-0.054276 -0.079760 0.0
-0.041699 -0.080796 0.0
-0.029336 -0.079166 0.0
-0.017795 -0.072991 0.0
-0.008078 -0.058379 0.0
-0.001916 -0.027996 0.0
-0.000937 0.015623 0.0
-0.003701 0.030431 0.0
-0.007749 0.036973 0.0
-0.012352 0.039644 0.0
-0.017178 0.040654 0.0
-0.022089 0.041024 0.0
-0.027036 0.041175 0.0
-0.032005 0.041258 0.0
-0.036992 0.041316 0.0
-0.041998 0.041356 0.0
-0.047022 0.041374 0.0
-0.052065 0.041363 0.0
-0.057128 0.041313 0.0
-0.062210 0.041210 0.0
-0.067308 0.041042 0.0
-0.072421 0.040791 0.0
-0.077544 0.040437 0.0
-0.082670 0.039960 0.0
-0.087791 0.039334 0.0
-0.092895 0.038529 0.0
-0.097968 0.037515 0.0
-0.102991 0.036256 0.0
-0.107938 0.034714 0.0
-0.112780 0.032845 0.0
-0.117480 0.030607 0.0
-0.121991 0.027953 0.0
-0.126258 0.024835 0.0
-0.130216 0.021207 0.0
-0.133789 0.017028 0.0
-0.136885 0.012259 0.0
-0.139405 0.006872 0.0
-0.141234 0.000854 0.0
-0.142246 -0.005793 0.0
-0.142310 -0.013040 0.0
-0.141291 -0.020832 0.0
-0.139056 -0.029080 0.0
-0.135486 -0.037661 0.0
-0.130483 -0.046410 0.0
-0.123985 -0.055128 0.0
-0.115979 -0.063585 0.0
-0.106510 -0.071530 0.0
-0.095694 -0.078703 0.0
-0.083720 -0.084840 0.0
-0.070849 -0.089668 0.0
-0.057415 -0.092854 0.0
-0.043820 -0.093873 0.0
-0.030566 -0.091707 0.0
-0.018335 -0.084222 0.0
-0.008193 -0.067007 0.0
-0.001905 -0.031818 0.0
-0.000927 0.017487 0.0
-0.003671 0.034075 0.0
-0.007702 0.041408 0.0
-0.012293 0.044404 0.0
-0.017112 0.045538 0.0
-0.022020 0.045958 0.0
-0.026968 0.046136 0.0
-0.031942 0.046240 0.0
-0.036939 0.046318 0.0
-0.041962 0.046381 0.0
-0.047011 0.046423 0.0
-0.052089 0.046437 0.0
-0.057198 0.046411 0.0
-0.062340 0.046335 0.0
-0.067514 0.046191 0.0
-0.072721 0.045962 0.0
-0.077960 0.045627 0.0
-0.083227 0.045163 0.0
-0.088517 0.044542 0.0
-0.093823 0.043731 0.0
-0.099133 0.042696 0.0
-0.104432 0.041396 0.0
-0.109699 0.039788 0.0
-0.114907 0.037821 0.0
-0.120022 0.035445 0.0
-0.125000 0.032603 0.0
-0.129787 0.029238 0.0
-0.134314 0.025290 0.0
-0.138502 0.020705 0.0
-0.142253 0.015429 0.0
-0.145453 0.009421 0.0
-0.147972 0.002652 0.0
-0.149665 -0.004886 0.0
-0.150371 -0.013176 0.0
-0.149920 -0.022166 0.0
-0.148139 -0.031761 0.0
-0.144868 -0.041822 0.0
-0.139966 -0.052154 0.0
-0.133333 -0.062514 0.0
-0.124927 -0.072611 0.0
-0.114783 -0.082117 0.0
-0.103031 -0.090684 0.0
-0.089905 -0.097959 0.0
-0.075741 -0.103582 0.0
-0.060975 -0.107141 0.0
-0.046125 -0.108032 0.0
-0.031805 -0.105123 0.0
-0.018793 -0.096048 0.0
-0.008221 -0.075894 0.0
-0.001859 -0.035582 0.0
-0.000915 0.019329 0.0
-0.003636 0.037697 0.0
-0.007646 0.045827 0.0
-0.012223 0.049153 0.0
-0.017032 0.050417 0.0
-0.021934 0.050890 0.0
-0.026880 0.051098 0.0
-0.031856 0.051227 0.0
-0.036861 0.051333 0.0
-0.041897 0.051425 0.0
-0.046969 0.051500 0.0
-0.052080 0.051549 0.0
-0.057234 0.051562 0.0
-0.062434 0.051526 0.0
-0.067685 0.051424 0.0
-0.072988 0.051239 0.0
-0.078346 0.050947 0.0
-0.083759 0.050524 0.0
-0.089226 0.049939 0.0
-0.094745 0.049158 0.0
-0.100307 0.048142 0.0
-0.105903 0.046846 0.0
-0.111516 0.045219 0.0
-0.117126 0.043208 0.0
-0.122700 0.040749 0.0
-0.128200 0.037777 0.0
-0.133573 0.034222 0.0
-0.138751 0.030011 0.0
-0.143651 0.025071 0.0
-0.148169 0.019332 0.0
-0.152182 0.012731 0.0
-0.155541 0.005220 0.0
-0.158075 -0.003227 0.0
-0.159590 -0.012614 0.0
-0.159876 -0.022894 0.0
-0.158713 -0.033977 0.0
-0.155880 -0.045709 0.0
-0.151180 -0.057868 0.0
-0.144455 -0.070158 0.0
-0.135618 -0.082211 0.0
-0.124680 -0.093599 0.0
-0.111780 -0.103853 0.0
-0.097207 -0.112490 0.0
-0.081402 -0.119020 0.0
-0.064948 -0.122924 0.0
-0.048535 -0.123512 0.0
-0.032939 -0.119558 0.0
-0.019061 -0.108503 0.0
-0.008092 -0.084981 0.0
-0.001755 -0.039195 0.0
-0.000903 0.021147 0.0
-0.003596 0.041293 0.0
-0.007581 0.050227 0.0
-0.012139 0.053888 0.0
-0.016935 0.055285 0.0
-0.021827 0.055816 0.0
-0.026767 0.056058 0.0
-0.031741 0.056218 0.0
-0.036750 0.056356 0.0
-0.041797 0.056485 0.0
-0.046888 0.056601 0.0
-0.052027 0.056697 0.0
-0.057222 0.056762 0.0
-0.062478 0.056782 0.0
-0.067802 0.056742 0.0
-0.073200 0.056622 0.0
-0.078676 0.056399 0.0
-0.084236 0.056046 0.0
-0.089884 0.055532 0.0
-0.095621 0.054820 0.0
-0.101446 0.053867 0.0
-0.107355 0.052625 0.0
-0.113337 0.051037 0.0
-0.119378 0.049041 0.0
-0.125453 0.046566 0.0
-0.131527 0.043535 0.0
-0.137553 0.039863 0.0
-0.143466 0.035462 0.0
-0.149181 0.030237 0.0
-0.154593 0.024096 0.0
-0.159566 0.016952 0.0
-0.163936 0.008728 0.0
-0.167504 -0.000632 0.0
-0.170039 -0.011157 0.0
-0.171283 -0.022820 0.0
-0.170955 -0.035543 0.0
-0.168761 -0.049169 0.0
-0.164421 -0.063449 0.0
-0.157695 -0.078029 0.0
-0.148421 -0.092451 0.0
-0.136563 -0.106154 0.0
-0.122258 -0.118502 0.0
-0.105857 -0.128816 0.0
-0.087942 -0.136413 0.0
-0.069313 -0.140614 0.0
-0.050921 -0.140627 0.0
-0.033786 -0.135173 0.0
-0.018969 -0.121583 0.0
-0.007699 -0.094140 0.0
-0.001561 -0.042511 0.0
-0.000888 0.022938 0.0
-0.003550 0.044858 0.0
-0.007505 0.054603 0.0
-0.012041 0.058606 0.0
-0.016818 0.060140 0.0
-0.021697 0.060732 0.0
-0.026626 0.061012 0.0
-0.031594 0.061207 0.0
-0.036602 0.061384 0.0
-0.041654 0.061557 0.0
-0.046757 0.061724 0.0
-0.051919 0.061877 0.0
-0.057149 0.062007 0.0
-0.062455 0.062100 0.0
-0.067846 0.062140 0.0
-0.073332 0.062107 0.0
-0.078922 0.061980 0.0
-0.084626 0.061729 0.0
-0.090453 0.061323 0.0
-0.096410 0.060722 0.0
-0.102502 0.059882 0.0
-0.108733 0.058749 0.0
-0.115100 0.057262 0.0
-0.121597 0.055352 0.0
-0.128206 0.052939 0.0
-0.134903 0.049932 0.0
-0.141646 0.046234 0.0
-0.148377 0.041735 0.0
-0.155016 0.036319 0.0
-0.161455 0.029865 0.0
-0.167551 0.022254 0.0
-0.173126 0.013371 0.0
-0.177955 0.003121 0.0
-0.181773 -0.008558 0.0
-0.184263 -0.021685 0.0
-0.185063 -0.036206 0.0
-0.183790 -0.051973 0.0
-0.180052 -0.068722 0.0
-0.173489 -0.086045 0.0
-0.163826 -0.103373 0.0
-0.150936 -0.119980 0.0
-0.134925 -0.134993 0.0
-0.116203 -0.147448 0.0
-0.095539 -0.156359 0.0
-0.074049 -0.160787 0.0
-0.053088 -0.159807 0.0
-0.034060 -0.152155 0.0
-0.018254 -0.135225 0.0
-0.006884 -0.103139 0.0
-0.001231 -0.045302 0.0
-0.000871 0.024696 0.0
-0.003497 0.048387 0.0
-0.007418 0.058951 0.0
-0.011926 0.063302 0.0
-0.016681 0.064977 0.0
-0.021541 0.065632 0.0
-0.026454 0.065954 0.0
-0.031410 0.066188 0.0
-0.036409 0.066409 0.0
-0.041459 0.066633 0.0
-0.046567 0.066859 0.0
-0.051744 0.067081 0.0
-0.057000 0.067289 0.0
-0.062346 0.067470 0.0
-0.067795 0.067609 0.0
-0.073359 0.067688 0.0
-0.079054 0.067684 0.0
-0.084893 0.067568 0.0
-0.090891 0.067309 0.0
-0.097062 0.066865 0.0
-0.103420 0.066190 0.0
-0.109975 0.065227 0.0
-0.116734 0.063912 0.0
-0.123702 0.062167 0.0
-0.130873 0.059904 0.0
-0.138232 0.057022 0.0
-0.145751 0.053406 0.0
-0.153381 0.048925 0.0
-0.161051 0.043438 0.0
-0.168658 0.036791 0.0
-0.176058 0.028825 0.0
-0.183063 0.019380 0.0
-0.189429 0.008308 0.0
-0.194845 -0.004511 0.0
-0.198932 -0.019157 0.0
-0.201245 -0.035621 0.0
-0.201284 -0.053793 0.0
-0.198512 -0.073413 0.0
-0.192400 -0.094029 0.0
-0.182495 -0.114958 0.0
-0.168514 -0.135265 0.0
-0.150473 -0.153761 0.0
-0.128818 -0.169058 0.0
-0.104541 -0.179690 0.0
-0.079205 -0.184283 0.0
-0.054795 -0.181683 0.0
-0.033351 -0.170750 0.0
-0.016523 -0.149265 0.0
-0.005415 -0.111577 0.0
-0.000700 -0.047232 0.0
-0.000852 0.026420 0.0
-0.003438 0.051875 0.0
-0.007319 0.063265 0.0
-0.011794 0.067970 0.0
-0.016521 0.069791 0.0
-0.021355 0.070513 0.0
-0.026247 0.070878 0.0
-0.031183 0.071155 0.0
-0.036166 0.071425 0.0
-0.041205 0.071706 0.0
-0.046309 0.071999 0.0
-0.051490 0.072299 0.0
-0.056760 0.072597 0.0
-0.062134 0.072882 0.0
-0.067627 0.073139 0.0
-0.073257 0.073352 0.0
-0.079042 0.073499 0.0
-0.085001 0.073552 0.0
-0.091156 0.073479 0.0
-0.097529 0.073239 0.0
-0.104140 0.072784 0.0
-0.111011 0.072058 0.0
-0.118161 0.070990 0.0
-0.125604 0.069500 0.0
-0.133351 0.067489 0.0
-0.141402 0.064847 0.0
-0.149744 0.061441 0.0
-0.158345 0.057121 0.0
-0.167150 0.051716 0.0
-0.176067 0.045036 0.0
-0.184963 0.036876 0.0
-0.193645 0.027017 0.0
-0.201854 0.015245 0.0
-0.209242 0.001357 0.0
-0.215372 -0.014808 0.0
-0.219703 -0.033324 0.0
-0.221595 -0.054158 0.0
-0.220326 -0.077089 0.0
-0.215139 -0.101652 0.0
-0.205322 -0.127058 0.0
-0.190339 -0.152129 0.0
-0.170014 -0.175263 0.0
-0.144751 -0.194473 0.0
-0.115762 -0.207541 0.0
-0.085190 -0.212340 0.0
-0.055968 -0.207258 0.0
-0.031219 -0.191367 0.0
-0.013271 -0.163424 0.0
-0.002993 -0.118803 0.0
0.000108 -0.047823 0.0
-0.000832 0.028104 0.0
-0.003372 0.055316 0.0
-0.007207 0.067540 0.0
-0.011643 0.072606 0.0
-0.016336 0.074575 0.0
-0.021140 0.075366 0.0
-0.026001 0.075778 0.0
-0.030910 0.076100 0.0
-0.035869 0.076422 0.0
-0.040887 0.076765 0.0
-0.045975 0.077132 0.0
-0.051147 0.077518 0.0
-0.056417 0.077918 0.0
-0.061803 0.078320 0.0
-0.067324 0.078714 0.0
-0.073000 0.079083 0.0
-0.078855 0.079408 0.0
-0.084914 0.079662 0.0
-0.091204 0.079815 0.0
-0.097756 0.079827 0.0
-0.104601 0.079651 0.0
-0.111769 0.079230 0.0
-0.119293 0.078492 0.0
-0.127203 0.077352 0.0
-0.135525 0.075707 0.0
-0.144280 0.073435 0.0
-0.153477 0.070391 0.0
-0.163106 0.066402 0.0
-0.173136 0.061270 0.0
-0.183499 0.054763 0.0
-0.194078 0.046624 0.0
-0.204696 0.036568 0.0
-0.215086 0.024293 0.0
-0.224886 0.009496 0.0
-0.233607 -0.008097 0.0
-0.240605 -0.028706 0.0
-0.245079 -0.052410 0.0
-0.246092 -0.079093 0.0
-0.242597 -0.108331 0.0
-0.233533 -0.139261 0.0
-0.217986 -0.170455 0.0
-0.195436 -0.199812 0.0
-0.166083 -0.224540 0.0
-0.131231 -0.241316 0.0
-0.093621 -0.246747 0.0
-0.057466 -0.238228 0.0
-0.027691 -0.214920 0.0
-0.008102 -0.177410 0.0
0.000683 -0.123880 0.0
0.001275 -0.046440 0.0
-0.000809 0.029745 0.0
-0.003298 0.058705 0.0
-0.007082 0.071770 0.0
-0.011474 0.077203 0.0
-0.016127 0.079324 0.0
-0.020892 0.080185 0.0
-0.025716 0.080645 0.0
-0.030589 0.081014 0.0
-0.035512 0.081391 0.0
-0.040498 0.081800 0.0
-0.045557 0.082245 0.0
-0.050705 0.082725 0.0
-0.055958 0.083235 0.0
-0.061338 0.083768 0.0
-0.066864 0.084314 0.0
-0.072564 0.084859 0.0
-0.078463 0.085386 0.0
-0.084594 0.085873 0.0
-0.090991 0.086291 0.0
-0.097692 0.086603 0.0
-0.104737 0.086765 0.0
-0.112171 0.086719 0.0
-0.120039 0.086395 0.0
-0.128389 0.085708 0.0
-0.137267 0.084552 0.0
-0.146718 0.082796 0.0
-0.156777 0.080285 0.0
-0.167466 0.076827 0.0
-0.178789 0.072197 0.0
-0.190712 0.066122 0.0
-0.203157 0.058290 0.0
-0.215976 0.048338 0.0
-0.228926 0.035864 0.0
-0.241639 0.020438 0.0
-0.253582 0.001625 0.0
-0.264036 -0.020976 0.0
-0.272057 -0.047644 0.0
-0.276463 -0.078440 0.0
-0.275879 -0.113063 0.0
-0.268824 -0.150648 0.0
-0.253892 -0.189547 0.0
-0.230027 -0.227134 0.0
-0.196926 -0.259671 0.0
-0.155606 -0.282356 0.0
-0.109099 -0.289823 0.0
-0.062945 -0.277462 0.0
-0.024739 -0.243667 0.0
-0.001522 -0.191468 0.0
0.005694 -0.125823 0.0
0.002884 -0.042280 0.0
-0.000784 0.031338 0.0
-0.003218 0.062036 0.0
-0.006945 0.075950 0.0
-0.011286 0.081756 0.0
-0.015893 0.084031 0.0
-0.020612 0.084963 0.0
-0.025391 0.085470 0.0
-0.030218 0.085887 0.0
-0.035095 0.086319 0.0
-0.040035 0.086796 0.0
-0.045050 0.087323 0.0
-0.050156 0.087902 0.0
-0.055374 0.088530 0.0
-0.060724 0.089203 0.0
-0.066233 0.089914 0.0
-0.071927 0.090653 0.0
-0.077840 0.091406 0.0
-0.084009 0.092154 0.0
-0.090475 0.092873 0.0
-0.097283 0.093530 0.0
-0.104485 0.094085 0.0
-0.112138 0.094485 0.0
-0.120303 0.094662 0.0
-0.129046 0.094534 0.0
-0.138437 0.093995 0.0
-0.148547 0.092913 0.0
-0.159445 0.091125 0.0
-0.171194 0.088426 0.0
-0.183841 0.084567 0.0
-0.197405 0.079240 0.0
-0.211863 0.072075 0.0
-0.227122 0.062630 0.0
-0.242990 0.050389 0.0
-0.259133 0.034769 0.0
-0.275034 0.015138 0.0
-0.289930 -0.009139 0.0
-0.302746 -0.038643 0.0
-0.312100 -0.073680 0.0
-0.316323 -0.114185 0.0
-0.313519 -0.159385 0.0
-0.301719 -0.207542 0.0
-0.279081 -0.255642 0.0
-0.244319 -0.299028 0.0
-0.197487 -0.331150 0.0
-0.141122 -0.343902 0.0
-0.081449 -0.329210 0.0
-0.029014 -0.282560 0.0
0.003431 -0.208238 0.0
0.011345 -0.124183 0.0
0.004815 -0.034580 0.0
-0.000757 0.032879 0.0
-0.003132 0.065304 0.0
-0.006796 0.080073 0.0
-0.011081 0.086258 0.0
-0.015634 0.088689 0.0
-0.020302 0.089692 0.0
-0.025027 0.090245 0.0
-0.029797 0.090708 0.0
-0.034616 0.091195 0.0
-0.039496 0.091739 0.0
-0.044451 0.092349 0.0
-0.049498 0.093029 0.0
-0.054657 0.093780 0.0
-0.059954 0.094600 0.0
-0.065414 0.095486 0.0
-0.071072 0.096432 0.0
-0.076962 0.097430 0.0
-0.083127 0.098464 0.0
-0.089615 0.099516 0.0
-0.096480 0.100560 0.0
-0.103783 0.101561 0.0
-0.111594 0.102472 0.0
-0.119989 0.103235 0.0
-0.129056 0.103771 0.0
-0.138888 0.103981 0.0
-0.149588 0.103737 0.0
-0.161264 0.102875 0.0
-0.174024 0.101186 0.0
-0.187975 0.098404 0.0
-0.203204 0.094196 0.0
-0.219768 0.088140 0.0
-0.237662 0.079718 0.0
-0.256788 0.068296 0.0
-0.276902 0.053120 0.0
-0.297543 0.033329 0.0
-0.317970 0.007992 0.0
-0.337140 -0.023788 0.0
-0.353589 -0.062732 0.0
-0.365444 -0.109056 0.0
-0.370498 -0.162264 0.0
-0.366109 -0.220852 0.0
-0.349253 -0.281826 0.0
-0.317017 -0.339842 0.0
-0.267755 -0.386429 0.0
-0.202623 -0.410121 0.0
-0.127236 -0.398050 0.0
-0.053636 -0.339755 0.0
-0.001124 -0.236000 0.0
0.015053 -0.120511 0.0
0.006547 -0.023218 0.0
-0.000729 0.034365 0.0
-0.003040 0.068502 0.0
-0.006636 0.084135 0.0
-0.010859 0.090704 0.0
-0.015355 0.093293 0.0
-0.019963 0.094364 0.0
-0.024625 0.094961 0.0
-0.029329 0.095467 0.0
-0.034078 0.096005 0.0
-0.038883 0.096614 0.0
-0.043760 0.097306 0.0
-0.048726 0.098086 0.0
-0.053804 0.098960 0.0
-0.059018 0.099930 0.0
-0.064400 0.100998 0.0
-0.069983 0.102161 0.0
-0.075809 0.103416 0.0
-0.081922 0.104756 0.0
-0.088378 0.106168 0.0
-0.095238 0.107633 0.0
-0.102573 0.109126 0.0
-0.110464 0.110609 0.0
-0.119004 0.112034 0.0
-0.128300 0.113334 0.0
-0.138471 0.114421 0.0
-0.149653 0.115179 0.0
-0.161997 0.115452 0.0
-0.175665 0.115038 0.0
-0.190831 0.113669 0.0
-0.207669 0.110999 0.0
-0.226341 0.106573 0.0
-0.246969 0.099808 0.0
-0.269601 0.089963 0.0
-0.294151 0.076116 0.0
-0.320340 0.057162 0.0
-0.347606 0.031853 0.0
-0.375012 -0.001073 0.0
-0.401250 -0.042759 0.0
-0.424513 -0.093912 0.0
-0.442189 -0.154679 0.0
-0.450561 -0.224453 0.0
-0.444767 -0.300874 0.0
-0.419791 -0.378007 0.0
-0.372173 -0.445144 0.0
-0.301490 -0.487221 0.0
-0.211632 -0.486195 0.0
-0.113227 -0.423614 0.0
-0.028058 -0.289823 0.0
0.010957 -0.121880 0.0
0.007142 -0.009528 0.0
-0.000699 0.035793 0.0
-0.002943 0.071628 0.0
-0.006468 0.088131 0.0
-0.010625 0.095089 0.0
-0.015057 0.097835 0.0
-0.019599 0.098972 0.0
-0.024191 0.099607 0.0
-0.028818 0.100151 0.0
-0.033483 0.100736 0.0
-0.038199 0.101404 0.0
-0.042979 0.102172 0.0
-0.047843 0.103050 0.0
-0.052813 0.104044 0.0
-0.057916 0.105164 0.0
-0.063184 0.106413 0.0
-0.068653 0.107798 0.0
-0.074367 0.109319 0.0
-0.080376 0.110977 0.0
-0.086738 0.112766 0.0
-0.093522 0.114679 0.0
-0.100807 0.116700 0.0
-0.108685 0.118804 0.0
-0.117264 0.120958 0.0
-0.126669 0.123110 0.0
-0.137044 0.125192 0.0
-0.148558 0.127105 0.0
-0.161405 0.128716 0.0
-0.175807 0.129843 0.0
-0.192014 0.130237 0.0
-0.210301 0.129557 0.0
-0.230960 0.127345 0.0
-0.254280 0.122984 0.0
-0.280515 0.115654 0.0
-0.309836 0.104297 0.0
-0.342264 0.087598 0.0
-0.377606 0.064025 0.0
-0.415370 0.031924 0.0
-0.454554 -0.010333 0.0
-0.493221 -0.064409 0.0
-0.527812 -0.131916 0.0
-0.552676 -0.213981 0.0
-0.560665 -0.309150 0.0
-0.545159 -0.410213 0.0
-0.502017 -0.503697 0.0
-0.429960 -0.571406 0.0
-0.330670 -0.591158 0.0
-0.210899 -0.536827 0.0
-0.088863 -0.383815 0.0
-0.008734 -0.147031 0.0
0.006545 0.004158 0.0
-0.000669 0.037161 0.0
-0.002843 0.074678 0.0
-0.006294 0.092058 0.0
-0.010382 0.099409 0.0
-0.014746 0.102310 0.0
-0.019216 0.103508 0.0
-0.023729 0.104176 0.0
-0.028270 0.104750 0.0
-0.032840 0.105373 0.0
-0.037450 0.106093 0.0
-0.042115 0.106929 0.0
-0.046854 0.107896 0.0
-0.051690 0.109004 0.0
-0.056649 0.110267 0.0
-0.061766 0.111695 0.0
-0.067078 0.113298 0.0
-0.072630 0.115085 0.0
-0.078475 0.117065 0.0
-0.084676 0.119241 0.0
-0.091305 0.121617 0.0
-0.098448 0.124190 0.0
-0.106206 0.126951 0.0
-0.114699 0.129883 0.0
-0.124066 0.132957 0.0
-0.134477 0.136130 0.0
-0.146129 0.139332 0.0
-0.159258 0.142465 0.0
-0.174144 0.145383 0.0
-0.191117 0.147877 0.0
-0.210562 0.149648 0.0
-0.232920 0.150271 0.0
-0.258686 0.149143 0.0
-0.288391 0.145435 0.0
-0.322579 0.138026 0.0
-0.361767 0.125486 0.0
-0.406361 0.106073 0.0
-0.456416 0.077696 0.0
-0.511024 0.037687 0.0
-0.567263 -0.017523 0.0
-0.619379 -0.092094 0.0
-0.659277 -0.189041 0.0
-0.678472 -0.306906 0.0
-0.670754 -0.435680 0.0
-0.633115 -0.559012 0.0
-0.564151 -0.657113 0.0
-0.463070 -0.705822 0.0
-0.331548 -0.673455 0.0
-0.180077 -0.520695 0.0
-0.045622 -0.224735 0.0
0.005130 0.015833 0.0
-0.000638 0.038468 0.0
-0.002742 0.077649 0.0
-0.006117 0.095912 0.0
-0.010135 0.103660 0.0
-0.014428 0.106715 0.0
-0.018821 0.107967 0.0
-0.023250 0.108658 0.0
-0.027694 0.109252 0.0
-0.032156 0.109903 0.0
-0.036646 0.110663 0.0
-0.041177 0.111556 0.0
-0.045768 0.112599 0.0
-0.050442 0.113810 0.0
-0.055226 0.115205 0.0
-0.060153 0.116800 0.0
-0.065262 0.118613 0.0
-0.070600 0.120659 0.0
-0.076219 0.122955 0.0
-0.082185 0.125517 0.0
-0.088574 0.128359 0.0
-0.095474 0.131492 0.0
-0.102993 0.134926 0.0
-0.111257 0.138665 0.0
-0.120421 0.142707 0.0
-0.130668 0.147038 0.0
-0.142222 0.151630 0.0
-0.155354 0.156429 0.0
-0.170395 0.161347 0.0
-0.187749 0.166241 0.0
-0.207911 0.170891 0.0
-0.231480 0.174955 0.0
-0.259182 0.177926 0.0
-0.291887 0.179062 0.0
-0.330629 0.177329 0.0
-0.376586 0.171327 0.0
-0.430878 0.159117 0.0
-0.493879 0.137709 0.0
-0.563828 0.102231 0.0
-0.635374 0.045718 0.0
-0.699690 -0.038904 0.0
-0.747347 -0.154676 0.0
-0.771300 -0.298125 0.0
-0.768065 -0.455414 0.0
-0.736634 -0.608348 0.0
-0.675530 -0.737845 0.0
-0.581273 -0.820427 0.0
-0.449866 -0.821779 0.0
-0.282533 -0.691175 0.0
-0.099549 -0.371694 0.0
-0.004236 0.016727 0.0
-0.000607 0.039713 0.0
-0.002642 0.080543 0.0
-0.005943 0.099695 0.0
-0.009890 0.107842 0.0
-0.014111 0.111046 0.0
-0.018425 0.112344 0.0
-0.022763 0.113047 0.0
-0.027103 0.113648 0.0
-0.031446 0.114312 0.0
-0.035800 0.115097 0.0
-0.040179 0.116031 0.0
-0.044599 0.117136 0.0
-0.049084 0.118432 0.0
-0.053659 0.119943 0.0
-0.058358 0.121689 0.0
-0.063219 0.123694 0.0
-0.068287 0.125983 0.0
-0.073617 0.128581 0.0
-0.079273 0.131514 0.0
-0.085331 0.134808 0.0
-0.091881 0.138493 0.0
-0.099033 0.142595 0.0
-0.106917 0.147144 0.0
-0.115693 0.152167 0.0
-0.125554 0.157686 0.0
-0.136738 0.163720 0.0
-0.149541 0.170274 0.0
-0.164332 0.177334 0.0
-0.181575 0.184851 0.0
-0.201856 0.192723 0.0
-0.225921 0.200757 0.0
-0.254728 0.208633 0.0
-0.289509 0.215842 0.0
-0.331829 0.221612 0.0
-0.383511 0.224683 0.0
-0.446088 0.222630 0.0
-0.519397 0.210507 0.0
-0.599672 0.179657 0.0
-0.678791 0.118957 0.0