# vtk DataFile Version 3.0
Vector Field
ASCII
DATASET RECTILINEAR_GRID
DIMENSIONS 50 50 1
X_COORDINATES 50 double
0.100000 0.300000 0.500000 0.700000 0.900000 1.100000 1.300000 1.500000 1.700000 1.900000 2.100000 2.300000 2.500000 2.700000 2.900000 3.100000 3.300000 3.500000 3.700000 3.900000 4.100000 4.300000 4.500000 4.700000 4.900000 5.100000 5.300000 5.500000 5.700000 5.900000 6.100000 6.300000 6.500000 6.700000 6.900000 7.100000 7.300000 7.500000 7.700000 7.900000 8.100000 8.300000 8.500000 8.700000 8.900000 9.100000 9.300000 9.500000 9.700000 9.900000 
Y_COORDINATES 50 double
0.100000 0.300000 0.500000 0.700000 0.900000 1.100000 1.300000 1.500000 1.700000 1.900000 2.100000 2.300000 2.500000 2.700000 2.900000 3.100000 3.300000 3.500000 3.700000 3.900000 4.100000 4.300000 4.500000 4.700000 4.900000 5.100000 5.300000 5.500000 5.700000 5.900000 6.100000 6.300000 6.500000 6.700000 6.900000 7.100000 7.300000 7.500000 7.700000 7.900000 8.100000 8.300000 8.500000 8.700000 8.900000 9.100000 9.300000 9.500000 9.700000 9.900000 
Z_COORDINATES 1 double
0.0
POINT_DATA 2500
VECTORS Vektorfeld double
-0.000191 0.000191 0.0
-0.000856 0.000474 0.0
-0.001934 0.000604 0.0
-0.003186 0.000648 0.0
-0.004494 0.000660 0.0
-0.005815 0.000661 0.0
-0.007138 0.000661 0.0
-0.008460 0.000661 0.0
-0.009782 0.000661 0.0
-0.011104 0.000661 0.0
-0.012425 0.000660 0.0
-0.013744 0.000659 0.0
-0.015060 0.000657 0.0
-0.016369 0.000653 0.0
-0.017671 0.000648 0.0
-0.018961 0.000642 0.0
-0.020236 0.000633 0.0
-0.021491 0.000622 0.0
-0.022720 0.000608 0.0
-0.023919 0.000591 0.0
-0.025080 0.000570 0.0
-0.026195 0.000545 0.0
-0.027255 0.000515 0.0
-0.028250 0.000480 0.0
-0.029171 0.000440 0.0
-0.030004 0.000393 0.0
-0.030737 0.000340 0.0
-0.031358 0.000280 0.0
-0.031851 0.000213 0.0
-0.032204 0.000139 0.0
-0.032402 0.000058 0.0
-0.032431 -0.000029 0.0
-0.032277 -0.000125 0.0
-0.031926 -0.000227 0.0
-0.031363 -0.000335 0.0
-0.030580 -0.000448 0.0
-0.029567 -0.000564 0.0
-0.028320 -0.000682 0.0
-0.026837 -0.000800 0.0
-0.025120 -0.000917 0.0
-0.023175 -0.001029 0.0
-0.021012 -0.001134 0.0
-0.018646 -0.001232 0.0
-0.016095 -0.001319 0.0
-0.013383 -0.001392 0.0
-0.010545 -0.001446 0.0
-0.007638 -0.001462 0.0
-0.004778 -0.001397 0.0
-0.002229 -0.001152 0.0
-0.000538 -0.000538 0.0
-0.000489 0.000870 0.0
-0.001939 0.001909 0.0
-0.004077 0.002386 0.0
-0.006520 0.002561 0.0
-0.009076 0.002611 0.0
-0.011663 0.002619 0.0
-0.014255 0.002617 0.0
-0.016840 0.002613 0.0
-0.019415 0.002607 0.0
-0.021976 0.002599 0.0
-0.024522 0.002589 0.0
-0.027048 0.002575 0.0
-0.029549 0.002557 0.0
-0.032021 0.002534 0.0
-0.034458 0.002505 0.0
-0.036852 0.002469 0.0
-0.039196 0.002425 0.0
-0.041482 0.002370 0.0
-0.043698 0.002305 0.0
-0.045833 0.002228 0.0
-0.047875 0.002136 0.0
-0.049810 0.002029 0.0
-0.051623 0.001904 0.0
-0.053296 0.001760 0.0
-0.054811 0.001595 0.0
-0.056149 0.001409 0.0
-0.057289 0.001198 0.0
-0.058210 0.000964 0.0
-0.058890 0.000703 0.0
-0.059306 0.000418 0.0
-0.059435 0.000107 0.0
-0.059255 -0.000229 0.0
-0.058744 -0.000590 0.0
-0.057883 -0.000974 0.0
-0.056657 -0.001377 0.0
-0.055051 -0.001796 0.0
-0.053056 -0.002224 0.0
-0.050667 -0.002658 0.0
-0.047886 -0.003089 0.0
-0.044718 -0.003513 0.0
-0.041176 -0.003920 0.0
-0.037278 -0.004304 0.0
-0.033050 -0.004657 0.0
-0.028526 -0.004970 0.0
-0.023746 -0.005232 0.0
-0.018772 -0.005418 0.0
-0.013705 -0.005464 0.0
-0.008738 -0.005222 0.0
-0.004264 -0.004351 0.0
-0.001109 -0.002185 0.0
-0.000638 0.001997 0.0
-0.002481 0.004075 0.0
-0.005136 0.005014 0.0
-0.008132 0.005371 0.0
-0.011254 0.005479 0.0
-0.014413 0.005498 0.0
-0.017574 0.005490 0.0
-0.020722 0.005473 0.0
-0.023853 0.005451 0.0
-0.026961 0.005424 0.0
-0.030040 0.005389 0.0
-0.033087 0.005347 0.0
-0.036094 0.005294 0.0
-0.039055 0.005230 0.0
-0.041962 0.005153 0.0
-0.044807 0.005061 0.0
-0.047580 0.004950 0.0
-0.050270 0.004820 0.0
-0.052866 0.004667 0.0
-0.055354 0.004489 0.0
-0.057719 0.004282 0.0
-0.059945 0.004044 0.0
-0.062015 0.003771 0.0
-0.063910 0.003460 0.0
-0.065608 0.003109 0.0
-0.067088 0.002714 0.0
-0.068328 0.002273 0.0
-0.069303 0.001785 0.0
-0.069988 0.001247 0.0
-0.070359 0.000661 0.0
-0.070390 0.000025 0.0
-0.070057 -0.000659 0.0
-0.069338 -0.001389 0.0
-0.068214 -0.002160 0.0
-0.066668 -0.002964 0.0
-0.064687 -0.003796 0.0
-0.062261 -0.004645 0.0
-0.059387 -0.005500 0.0
-0.056066 -0.006349 0.0
-0.052308 -0.007179 0.0
-0.048127 -0.007977 0.0
-0.043545 -0.008726 0.0
-0.038593 -0.009414 0.0
-0.033309 -0.010023 0.0
-0.027740 -0.010528 0.0
-0.021958 -0.010879 0.0
-0.016072 -0.010956 0.0
-0.010295 -0.010475 0.0
-0.005061 -0.008805 0.0
-0.001327 -0.004621 0.0
-0.000697 0.003333 0.0
-0.002708 0.006593 0.0
-0.005592 0.008035 0.0
-0.008829 0.008584 0.0
-0.012192 0.008752 0.0
-0.015590 0.008781 0.0
-0.018986 0.008764 0.0
-0.022367 0.008730 0.0
-0.025727 0.008685 0.0
-0.029059 0.008629 0.0
-0.032357 0.008562 0.0
-0.035615 0.008479 0.0
-0.038828 0.008381 0.0
-0.041986 0.008263 0.0
-0.045083 0.008124 0.0
-0.048109 0.007960 0.0
-0.051054 0.007769 0.0
-0.053907 0.007545 0.0
-0.056654 0.007286 0.0
-0.059283 0.006987 0.0
-0.061778 0.006644 0.0
-0.064122 0.006252 0.0
-0.066297 0.005807 0.0
-0.068284 0.005305 0.0
-0.070060 0.004739 0.0
-0.071604 0.004108 0.0
-0.072892 0.003406 0.0
-0.073898 0.002632 0.0
-0.074597 0.001784 0.0
-0.074963 0.000861 0.0
-0.074971 -0.000137 0.0
-0.074594 -0.001207 0.0
-0.073811 -0.002343 0.0
-0.072600 -0.003540 0.0
-0.070943 -0.004787 0.0
-0.068826 -0.006072 0.0
-0.066239 -0.007382 0.0
-0.063177 -0.008699 0.0
-0.059643 -0.010005 0.0
-0.055644 -0.011280 0.0
-0.051198 -0.012503 0.0
-0.046326 -0.013652 0.0
-0.041062 -0.014704 0.0
-0.035445 -0.015634 0.0
-0.029527 -0.016402 0.0
-0.023381 -0.016933 0.0
-0.017123 -0.017045 0.0
-0.010972 -0.016315 0.0
-0.005388 -0.013784 0.0
-0.001408 -0.007356 0.0
-0.000716 0.004746 0.0
-0.002788 0.009262 0.0
-0.005765 0.011226 0.0
-0.009101 0.011967 0.0
-0.012563 0.012193 0.0
-0.016055 0.012229 0.0
-0.019546 0.012202 0.0
-0.023020 0.012148 0.0
-0.026472 0.012078 0.0
-0.029894 0.011991 0.0
-0.033282 0.011886 0.0
-0.036629 0.011760 0.0
-0.039928 0.011612 0.0
-0.043173 0.011436 0.0
-0.046354 0.011230 0.0
-0.049464 0.010990 0.0
-0.052491 0.010711 0.0
-0.055424 0.010389 0.0
-0.058252 0.010018 0.0
-0.060960 0.009592 0.0
-0.063533 0.009107 0.0
-0.065954 0.008555 0.0
-0.068205 0.007931 0.0
-0.070266 0.007228 0.0
-0.072115 0.006441 0.0
-0.073730 0.005564 0.0
-0.075085 0.004593 0.0
-0.076156 0.003523 0.0
-0.076915 0.002352 0.0
-0.077335 0.001079 0.0
-0.077390 -0.000294 0.0
-0.077051 -0.001765 0.0
-0.076295 -0.003325 0.0
-0.075097 -0.004967 0.0
-0.073437 -0.006676 0.0
-0.071299 -0.008438 0.0
-0.068669 -0.010233 0.0
-0.065542 -0.012037 0.0
-0.061917 -0.013826 0.0
-0.057802 -0.015572 0.0
-0.053214 -0.017247 0.0
-0.048175 -0.018819 0.0
-0.042718 -0.020258 0.0
-0.036887 -0.021529 0.0
-0.030735 -0.022577 0.0
-0.024339 -0.023300 0.0
-0.017820 -0.023454 0.0
-0.011408 -0.022468 0.0
-0.005590 -0.019033 0.0
-0.001456 -0.010220 0.0
-0.000721 0.006183 0.0
-0.002813 0.011990 0.0
-0.005827 0.014488 0.0
-0.009206 0.015422 0.0
-0.012710 0.015704 0.0
-0.016246 0.015747 0.0
-0.019778 0.015707 0.0
-0.023295 0.015634 0.0
-0.026790 0.015538 0.0
-0.030257 0.015420 0.0
-0.033690 0.015278 0.0
-0.037084 0.015109 0.0
-0.040433 0.014910 0.0
-0.043728 0.014677 0.0
-0.046963 0.014405 0.0
-0.050129 0.014090 0.0
-0.053216 0.013725 0.0
-0.056212 0.013305 0.0
-0.059107 0.012824 0.0
-0.061886 0.012273 0.0
-0.064535 0.011647 0.0
-0.067037 0.010937 0.0
-0.069373 0.010136 0.0
-0.071524 0.009235 0.0
-0.073467 0.008227 0.0
-0.075180 0.007106 0.0
-0.076636 0.005864 0.0
-0.077809 0.004496 0.0
-0.078671 0.003000 0.0
-0.079193 0.001373 0.0
-0.079345 -0.000382 0.0
-0.079098 -0.002262 0.0
-0.078423 -0.004259 0.0
-0.077294 -0.006360 0.0
-0.075685 -0.008551 0.0
-0.073576 -0.010811 0.0
-0.070953 -0.013114 0.0
-0.067804 -0.015432 0.0
-0.064127 -0.017732 0.0
-0.059929 -0.019979 0.0
-0.055223 -0.022135 0.0
-0.050034 -0.024160 0.0
-0.044395 -0.026013 0.0
-0.038353 -0.027648 0.0
-0.031964 -0.028998 0.0
-0.025311 -0.029928 0.0
-0.018525 -0.030132 0.0
-0.011848 -0.028880 0.0
-0.005794 -0.024493 0.0
-0.001506 -0.013182 0.0
-0.000721 0.007625 0.0
-0.002822 0.014741 0.0
-0.005853 0.017781 0.0
-0.009256 0.018912 0.0
-0.012787 0.019249 0.0
-0.016349 0.019299 0.0
-0.019908 0.019248 0.0
-0.023454 0.019156 0.0
-0.026978 0.019035 0.0
-0.030477 0.018888 0.0
-0.033945 0.018711 0.0
-0.037377 0.018502 0.0
-0.040767 0.018256 0.0
-0.044108 0.017968 0.0
-0.047393 0.017634 0.0
-0.050614 0.017247 0.0
-0.053761 0.016801 0.0
-0.056825 0.016289 0.0
-0.059793 0.015703 0.0
-0.062653 0.015034 0.0
-0.065390 0.014273 0.0
-0.067988 0.013411 0.0
-0.070429 0.012439 0.0
-0.072692 0.011346 0.0
-0.074755 0.010123 0.0
-0.076595 0.008762 0.0
-0.078184 0.007253 0.0
-0.079494 0.005591 0.0
-0.080496 0.003769 0.0
-0.081158 0.001787 0.0
-0.081447 -0.000355 0.0
-0.081330 -0.002653 0.0
-0.080775 -0.005098 0.0
-0.079750 -0.007676 0.0
-0.078225 -0.010369 0.0
-0.076176 -0.013151 0.0
-0.073582 -0.015992 0.0
-0.070428 -0.018857 0.0
-0.066708 -0.021704 0.0
-0.062425 -0.024489 0.0
-0.057592 -0.027164 0.0
-0.052234 -0.029678 0.0
-0.046385 -0.031982 0.0
-0.040094 -0.034014 0.0
-0.033424 -0.035690 0.0
-0.026466 -0.036846 0.0
-0.019361 -0.037105 0.0
-0.012371 -0.035574 0.0
-0.006041 -0.030183 0.0
-0.001567 -0.016255 0.0
-0.000721 0.009067 0.0
-0.002826 0.017504 0.0
-0.005871 0.021095 0.0
-0.009294 0.022424 0.0
-0.012847 0.022820 0.0
-0.016433 0.022876 0.0
-0.020018 0.022815 0.0
-0.023590 0.022706 0.0
-0.027144 0.022564 0.0
-0.030675 0.022390 0.0
-0.034178 0.022181 0.0
-0.037649 0.021935 0.0
-0.041083 0.021646 0.0
-0.044473 0.021309 0.0
-0.047812 0.020918 0.0
-0.051094 0.020466 0.0
-0.054310 0.019946 0.0
-0.057450 0.019349 0.0
-0.060504 0.018665 0.0
-0.063458 0.017886 0.0
-0.066300 0.016999 0.0
-0.069012 0.015995 0.0
-0.071578 0.014861 0.0
-0.073976 0.013585 0.0
-0.076185 0.012156 0.0
-0.078180 0.010562 0.0
-0.079932 0.008794 0.0
-0.081413 0.006841 0.0
-0.082589 0.004697 0.0
-0.083426 0.002359 0.0
-0.083889 -0.000175 0.0
-0.083938 -0.002900 0.0
-0.083538 -0.005807 0.0
-0.082650 -0.008881 0.0
-0.081239 -0.012099 0.0
-0.079273 -0.015435 0.0
-0.076726 -0.018850 0.0
-0.073577 -0.022302 0.0
-0.069815 -0.025741 0.0
-0.065438 -0.029111 0.0
-0.060459 -0.032354 0.0
-0.054899 -0.035406 0.0
-0.048798 -0.038204 0.0
-0.042206 -0.040673 0.0
-0.035196 -0.042709 0.0
-0.027867 -0.044114 0.0
-0.020376 -0.044434 0.0
-0.013007 -0.042604 0.0
-0.006341 -0.036149 0.0
-0.001641 -0.019463 0.0
-0.000721 0.010510 0.0
-0.002831 0.020277 0.0
-0.005890 0.024426 0.0
-0.009333 0.025959 0.0
-0.012909 0.026414 0.0
-0.016520 0.026479 0.0
-0.020132 0.026410 0.0
-0.023733 0.026285 0.0
-0.027319 0.026124 0.0
-0.030885 0.025926 0.0
-0.034427 0.025690 0.0
-0.037941 0.025412 0.0
-0.041423 0.025085 0.0
-0.044868 0.024705 0.0
-0.048269 0.024263 0.0
-0.051620 0.023754 0.0
-0.054913 0.023168 0.0
-0.058141 0.022494 0.0
-0.061292 0.021724 0.0
-0.064355 0.020845 0.0
-0.067316 0.019844 0.0
-0.070161 0.018708 0.0
-0.072873 0.017424 0.0
-0.075429 0.015977 0.0
-0.077810 0.014353 0.0
-0.079987 0.012538 0.0
-0.081934 0.010517 0.0
-0.083618 0.008281 0.0
-0.085004 0.005819 0.0
-0.086054 0.003125 0.0
-0.086728 0.000196 0.0
-0.086983 -0.002965 0.0
-0.086775 -0.006349 0.0
-0.086061 -0.009941 0.0
-0.084796 -0.013715 0.0
-0.082942 -0.017639 0.0
-0.080463 -0.021672 0.0
-0.077331 -0.025761 0.0
-0.073528 -0.029846 0.0
-0.069049 -0.033861 0.0
-0.063899 -0.037733 0.0
-0.058103 -0.041383 0.0
-0.051700 -0.044732 0.0
-0.044748 -0.047689 0.0
-0.037327 -0.050125 0.0
-0.029550 -0.051804 0.0
-0.021593 -0.052193 0.0
-0.013768 -0.050040 0.0
-0.006700 -0.042447 0.0
-0.001730 -0.022834 0.0
-0.000721 0.011951 0.0
-0.002836 0.023060 0.0
-0.005911 0.027776 0.0
-0.009375 0.029516 0.0
-0.012976 0.030033 0.0
-0.016615 0.030109 0.0
-0.020256 0.030034 0.0
-0.023890 0.029897 0.0
-0.027510 0.029719 0.0
-0.031114 0.029501 0.0
-0.034699 0.029242 0.0
-0.038261 0.028936 0.0
-0.041797 0.028578 0.0
-0.045302 0.028161 0.0
-0.048771 0.027677 0.0
-0.052198 0.027119 0.0
-0.055578 0.026476 0.0
-0.058902 0.025737 0.0
-0.062162 0.024891 0.0
-0.065347 0.023925 0.0
-0.068444 0.022823 0.0
-0.071440 0.021570 0.0
-0.074316 0.020150 0.0
-0.077055 0.018547 0.0
-0.079632 0.016741 0.0
-0.082022 0.014717 0.0
-0.084195 0.012457 0.0
-0.086117 0.009947 0.0
-0.087751 0.007173 0.0
-0.089054 0.004125 0.0
-0.089983 0.000798 0.0
-0.090488 -0.002808 0.0
-0.090517 -0.006685 0.0
-0.090019 -0.010818 0.0
-0.088941 -0.015180 0.0
-0.087233 -0.019736 0.0
-0.084850 -0.024437 0.0
-0.081754 -0.029223 0.0
-0.077918 -0.034023 0.0
-0.073327 -0.038755 0.0
-0.067986 -0.043330 0.0
-0.061915 -0.047653 0.0
-0.055156 -0.051624 0.0
-0.047774 -0.055130 0.0
-0.039862 -0.058016 0.0
-0.031548 -0.060002 0.0
-0.023034 -0.060466 0.0
-0.014665 -0.057961 0.0
-0.007120 -0.049138 0.0
-0.001834 -0.026399 0.0
-0.000721 0.013393 0.0
-0.002842 0.025855 0.0
-0.005933 0.031146 0.0
-0.009421 0.033099 0.0
-0.013049 0.033680 0.0
-0.016717 0.033768 0.0
-0.020391 0.033689 0.0
-0.024059 0.033542 0.0
-0.027717 0.033351 0.0
-0.031363 0.033119 0.0
-0.034994 0.032841 0.0
-0.038607 0.032513 0.0
-0.042200 0.032130 0.0
-0.045770 0.031683 0.0
-0.049312 0.031166 0.0
-0.052823 0.030568 0.0
-0.056297 0.029880 0.0
-0.059727 0.029088 0.0
-0.063106 0.028180 0.0
-0.066425 0.027140 0.0
-0.069673 0.025952 0.0
-0.072835 0.024599 0.0
-0.075898 0.023061 0.0
-0.078840 0.021317 0.0
-0.081640 0.019348 0.0
-0.084272 0.017132 0.0
-0.086705 0.014648 0.0
-0.088903 0.011877 0.0
-0.090827 0.008800 0.0
-0.092430 0.005404 0.0
-0.093661 0.001679 0.0
-0.094466 -0.002379 0.0
-0.094786 -0.006765 0.0
-0.094556 -0.011465 0.0
-0.093715 -0.016452 0.0
-0.092199 -0.021688 0.0
-0.089950 -0.027117 0.0
-0.086917 -0.032672 0.0
-0.083061 -0.038267 0.0
-0.078357 -0.043805 0.0
-0.072803 -0.049177 0.0
-0.066415 -0.054265 0.0
-0.059240 -0.058946 0.0
-0.051351 -0.063079 0.0
-0.042854 -0.066477 0.0
-0.033901 -0.068808 0.0
-0.024724 -0.069353 0.0
-0.015711 -0.066456 0.0
-0.007606 -0.056292 0.0
-0.001952 -0.030185 0.0
-0.000720 0.014834 0.0
-0.002847 0.028663 0.0
-0.005956 0.034539 0.0
-0.009469 0.036708 0.0
-0.013127 0.037356 0.0
-0.016826 0.037459 0.0
-0.020534 0.037379 0.0
-0.024238 0.037225 0.0
-0.027936 0.037025 0.0
-0.031626 0.036780 0.0
-0.035305 0.036489 0.0
-0.038973 0.036146 0.0
-0.042627 0.035744 0.0
-0.046266 0.035277 0.0
-0.049886 0.034735 0.0
-0.053485 0.034109 0.0
-0.057059 0.033387 0.0
-0.060602 0.032555 0.0
-0.064110 0.031600 0.0
-0.067574 0.030503 0.0
-0.070986 0.029248 0.0
-0.074332 0.027812 0.0
-0.077598 0.026176 0.0
-0.080767 0.024314 0.0
-0.083817 0.022202 0.0
-0.086722 0.019815 0.0
-0.089450 0.017126 0.0
-0.091965 0.014112 0.0
-0.094223 0.010747 0.0
-0.096176 0.007013 0.0
-0.097766 0.002892 0.0
-0.098932 -0.001622 0.0
-0.099603 -0.006532 0.0
-0.099706 -0.011825 0.0
-0.099163 -0.017476 0.0
-0.097898 -0.023446 0.0
-0.095834 -0.029673 0.0
-0.092903 -0.036079 0.0
-0.089051 -0.042567 0.0
-0.084239 -0.049019 0.0
-0.078453 -0.055303 0.0
-0.071706 -0.061273 0.0
-0.064047 -0.066773 0.0
-0.055559 -0.071630 0.0
-0.046367 -0.075615 0.0
-0.036654 -0.078335 0.0
-0.026690 -0.078967 0.0
-0.016918 -0.075627 0.0
-0.008160 -0.063984 0.0
-0.002085 -0.034222 0.0
-0.000719 0.016273 0.0
-0.002852 0.031483 0.0
-0.005978 0.037954 0.0
-0.009518 0.040346 0.0
-0.013206 0.041064 0.0
-0.016939 0.041184 0.0
-0.020682 0.041104 0.0
-0.024425 0.040947 0.0
-0.028164 0.040741 0.0
-0.031899 0.040489 0.0
-0.035628 0.040190 0.0
-0.039352 0.039837 0.0
-0.043069 0.039425 0.0
-0.046779 0.038945 0.0
-0.050480 0.038389 0.0
-0.054172 0.037745 0.0
-0.057850 0.037003 0.0
-0.061514 0.036146 0.0
-0.065158 0.035160 0.0
-0.068777 0.034026 0.0
-0.072363 0.032723 0.0
-0.075907 0.031228 0.0
-0.079396 0.029516 0.0
-0.082814 0.027560 0.0
-0.086139 0.025331 0.0
-0.089348 0.022799 0.0
-0.092408 0.019931 0.0
-0.095283 0.016696 0.0
-0.097926 0.013064 0.0
-0.100284 0.009007 0.0
-0.102297 0.004501 0.0
-0.103891 -0.000471 0.0
-0.104988 -0.005915 0.0
-0.105501 -0.011826 0.0
-0.105335 -0.018183 0.0
-0.104395 -0.024945 0.0
-0.102584 -0.032049 0.0
-0.099812 -0.039406 0.0
-0.096001 -0.046903 0.0
-0.091095 -0.054401 0.0
-0.085064 -0.061738 0.0
-0.077914 -0.068734 0.0
-0.069693 -0.075192 0.0
-0.060499 -0.080894 0.0
-0.050483 -0.085559 0.0
-0.039864 -0.088723 0.0
-0.028965 -0.089442 0.0
-0.018299 -0.085589 0.0
-0.008784 -0.072295 0.0
-0.002231 -0.038538 0.0
-0.000718 0.017710 0.0
-0.002855 0.034315 0.0
-0.006001 0.041394 0.0
-0.009568 0.044014 0.0
-0.013287 0.044804 0.0
-0.017054 0.044943 0.0
-0.020834 0.044867 0.0
-0.024615 0.044708 0.0
-0.028396 0.044500 0.0
-0.032177 0.044246 0.0
-0.035958 0.043943 0.0
-0.039738 0.043588 0.0
-0.043519 0.043172 0.0
-0.047301 0.042689 0.0
-0.051085 0.042129 0.0
-0.054871 0.041481 0.0
-0.058658 0.040733 0.0
-0.062445 0.039868 0.0
-0.066231 0.038869 0.0
-0.070012 0.037717 0.0
-0.073784 0.036389 0.0
-0.077538 0.034860 0.0
-0.081266 0.033100 0.0
-0.084952 0.031080 0.0
-0.088579 0.028764 0.0
-0.092122 0.026118 0.0
-0.095553 0.023102 0.0
-0.098832 0.019678 0.0
-0.101913 0.015806 0.0
-0.104739 0.011450 0.0
-0.107244 0.006575 0.0
-0.109347 0.001154 0.0
-0.110958 -0.004831 0.0
-0.111974 -0.011382 0.0
-0.112282 -0.018485 0.0
-0.111763 -0.026103 0.0
-0.110295 -0.034171 0.0
-0.107758 -0.042593 0.0
-0.104047 -0.051238 0.0
-0.099077 -0.059943 0.0
-0.092795 -0.068509 0.0
-0.085196 -0.076712 0.0
-0.076326 -0.084303 0.0
-0.066299 -0.091004 0.0
-0.055298 -0.096466 0.0
-0.043595 -0.100138 0.0
-0.031584 -0.100938 0.0
-0.019866 -0.096477 0.0
-0.009475 -0.081315 0.0
-0.002388 -0.043158 0.0
-0.000716 0.019144 0.0
-0.002857 0.037161 0.0
-0.006021 0.044857 0.0
-0.009616 0.047712 0.0
-0.013368 0.048578 0.0
-0.017170 0.048738 0.0
-0.020985 0.048667 0.0
-0.024806 0.048510 0.0
-0.028629 0.048303 0.0
-0.032456 0.048050 0.0
-0.036287 0.047750 0.0
-0.040123 0.047398 0.0
-0.043968 0.046987 0.0
-0.047822 0.046510 0.0
-0.051688 0.045958 0.0
-0.055568 0.045318 0.0
-0.059464 0.044578 0.0
-0.063377 0.043722 0.0
-0.067308 0.042732 0.0
-0.071257 0.041585 0.0
-0.075221 0.040257 0.0
-0.079196 0.038721 0.0
-0.083176 0.036945 0.0
-0.087149 0.034894 0.0
-0.091101 0.032528 0.0
-0.095010 0.029806 0.0
-0.098848 0.026682 0.0
-0.102579 0.023108 0.0
-0.106154 0.019034 0.0
-0.109516 0.014411 0.0
-0.112592 0.009194 0.0
-0.115295 0.003340 0.0
-0.117522 -0.003180 0.0
-0.119154 -0.010385 0.0
-0.120056 -0.018271 0.0
-0.120081 -0.026810 0.0
-0.119074 -0.035939 0.0
-0.116880 -0.045556 0.0
-0.113352 -0.055514 0.0
-0.108369 -0.065621 0.0
-0.101846 -0.075636 0.0
-0.093754 -0.085277 0.0
-0.084136 -0.094226 0.0
-0.073120 -0.102124 0.0
-0.060936 -0.108530 0.0
-0.047928 -0.112784 0.0
-0.034584 -0.113646 0.0
-0.021626 -0.108444 0.0
-0.010227 -0.091136 0.0
-0.002552 -0.048098 0.0
-0.000713 0.020573 0.0
-0.002858 0.040018 0.0
-0.006040 0.048346 0.0
-0.009663 0.051441 0.0
-0.013447 0.052386 0.0
-0.017283 0.052569 0.0
-0.021136 0.052505 0.0
-0.024995 0.052352 0.0
-0.028859 0.052148 0.0
-0.032730 0.051902 0.0
-0.036610 0.051609 0.0
-0.040501 0.051267 0.0
-0.044407 0.050869 0.0
-0.048331 0.050407 0.0
-0.052277 0.049873 0.0
-0.056250 0.049256 0.0
-0.060254 0.048540 0.0
-0.064292 0.047712 0.0
-0.068369 0.046750 0.0
-0.072486 0.045633 0.0
-0.076647 0.044334 0.0
-0.080850 0.042823 0.0
-0.085093 0.041066 0.0
-0.089369 0.039023 0.0
-0.093666 0.036649 0.0
-0.097969 0.033897 0.0
-0.102251 0.030712 0.0
-0.106480 0.027037 0.0
-0.110609 0.022809 0.0
-0.114579 0.017968 0.0
-0.118315 0.012449 0.0
-0.121721 0.006195 0.0
-0.124684 -0.000844 0.0
-0.127066 -0.008707 0.0
-0.128707 -0.017406 0.0
-0.129431 -0.026928 0.0
-0.129040 -0.037218 0.0
-0.127334 -0.048176 0.0
-0.124114 -0.059641 0.0
-0.119203 -0.071388 0.0
-0.112470 -0.083126 0.0
-0.103848 -0.094501 0.0
-0.093366 -0.105102 0.0
-0.081173 -0.114457 0.0
-0.067556 -0.121999 0.0
-0.052957 -0.126923 0.0
-0.038003 -0.127806 0.0
-0.023573 -0.121673 0.0
-0.011022 -0.101857 0.0
-0.002712 -0.053362 0.0
-0.000710 0.021996 0.0
-0.002856 0.042886 0.0
-0.006056 0.051860 0.0
-0.009707 0.055201 0.0
-0.013524 0.056227 0.0
-0.017394 0.056434 0.0
-0.021282 0.056379 0.0
-0.025178 0.056232 0.0
-0.029082 0.056036 0.0
-0.032995 0.055798 0.0
-0.036921 0.055518 0.0
-0.040864 0.055192 0.0
-0.044827 0.054814 0.0
-0.048818 0.054377 0.0
-0.052840 0.053873 0.0
-0.056901 0.053290 0.0
-0.061008 0.052616 0.0
-0.065168 0.051834 0.0
-0.069387 0.050924 0.0
-0.073673 0.049862 0.0
-0.078031 0.048623 0.0
-0.082465 0.047172 0.0
-0.086977 0.045472 0.0
-0.091566 0.043481 0.0
-0.096227 0.041149 0.0
-0.100947 0.038420 0.0
-0.105709 0.035233 0.0
-0.110481 0.031517 0.0
-0.115223 0.027200 0.0
-0.119877 0.022201 0.0
-0.124366 0.016440 0.0
-0.128590 0.009835 0.0
-0.132424 0.002312 0.0
-0.135715 -0.006191 0.0
-0.138277 -0.015718 0.0
-0.139894 -0.026276 0.0
-0.140323 -0.037831 0.0
-0.139303 -0.050290 0.0
-0.136566 -0.063484 0.0
-0.131862 -0.077159 0.0
-0.124986 -0.090965 0.0
-0.115813 -0.104457 0.0
-0.104343 -0.117098 0.0
-0.090739 -0.128258 0.0
-0.075364 -0.137191 0.0
-0.058801 -0.142893 0.0
-0.041872 -0.143719 0.0
-0.025686 -0.136376 0.0
-0.011822 -0.113570 0.0
-0.002853 -0.058928 0.0
-0.000706 0.023411 0.0
-0.002853 0.045765 0.0
-0.006070 0.055398 0.0
-0.009748 0.058992 0.0
-0.013597 0.060101 0.0
-0.017501 0.060334 0.0
-0.021423 0.060289 0.0
-0.025355 0.060150 0.0
-0.029296 0.059963 0.0
-0.033248 0.059737 0.0
-0.037216 0.059474 0.0
-0.041205 0.059168 0.0
-0.045222 0.058817 0.0
-0.049272 0.058414 0.0
-0.053364 0.057951 0.0
-0.057507 0.057417 0.0
-0.061710 0.056800 0.0
-0.065984 0.056084 0.0
-0.070340 0.055249 0.0
-0.074788 0.054271 0.0
-0.079338 0.053122 0.0
-0.084001 0.051769 0.0
-0.088783 0.050170 0.0
-0.093692 0.048281 0.0
-0.098727 0.046046 0.0
-0.103885 0.043403 0.0
-0.109155 0.040281 0.0
-0.114513 0.036600 0.0
-0.119926 0.032271 0.0
-0.125339 0.027197 0.0
-0.130681 0.021273 0.0
-0.135848 0.014393 0.0
-0.140709 0.006450 0.0
-0.145095 -0.002653 0.0
-0.148792 -0.012997 0.0
-0.151544 -0.024627 0.0
-0.153055 -0.037541 0.0
-0.152988 -0.051668 0.0
-0.150986 -0.066844 0.0
-0.146696 -0.082792 0.0
-0.139805 -0.099098 0.0
-0.130096 -0.115206 0.0
-0.117507 -0.130408 0.0
-0.102203 -0.143855 0.0
-0.084642 -0.154531 0.0
-0.065607 -0.161150 0.0
-0.046216 -0.161781 0.0
-0.027907 -0.152809 0.0
-0.012559 -0.126350 0.0
-0.002947 -0.064728 0.0
-0.000701 0.024817 0.0
-0.002847 0.048652 0.0
-0.006080 0.058960 0.0
-0.009786 0.062814 0.0
-0.013667 0.064009 0.0
-0.017603 0.064268 0.0
-0.021559 0.064233 0.0
-0.025523 0.064102 0.0
-0.029498 0.063925 0.0
-0.033485 0.063715 0.0
-0.037490 0.063470 0.0
-0.041520 0.063191 0.0
-0.045582 0.062873 0.0
-0.049684 0.062511 0.0
-0.053837 0.062099 0.0
-0.058052 0.061627 0.0
-0.062341 0.061083 0.0
-0.066719 0.060453 0.0
-0.071200 0.059716 0.0
-0.075800 0.058850 0.0
-0.080533 0.057827 0.0
-0.085417 0.056610 0.0
-0.090465 0.055160 0.0
-0.095691 0.053426 0.0
-0.101105 0.051350 0.0
-0.106712 0.048864 0.0
-0.112511 0.045888 0.0
-0.118491 0.042331 0.0
-0.124626 0.038088 0.0
-0.130875 0.033042 0.0
-0.137169 0.027064 0.0
-0.143413 0.020014 0.0
-0.149472 0.011748 0.0
-0.155162 0.002124 0.0
-0.160249 -0.008989 0.0
-0.164438 -0.021693 0.0
-0.167365 -0.036037 0.0
-0.168608 -0.051996 0.0
-0.167695 -0.069431 0.0
-0.164134 -0.088057 0.0
-0.157456 -0.107401 0.0
-0.147293 -0.126775 0.0
-0.133468 -0.145253 0.0
-0.116116 -0.161665 0.0
-0.095801 -0.174598 0.0
-0.073589 -0.182330 0.0
-0.051043 -0.182538 0.0
-0.030119 -0.171285 0.0
-0.013109 -0.140232 0.0
-0.002946 -0.070621 0.0
-0.000695 0.026213 0.0
-0.002840 0.051548 0.0
-0.006089 0.062545 0.0
-0.009821 0.066666 0.0
-0.013733 0.067949 0.0
-0.017701 0.068234 0.0
-0.021688 0.068209 0.0
-0.025682 0.068086 0.0
-0.029686 0.067920 0.0
-0.033704 0.067725 0.0
-0.037740 0.067502 0.0
-0.041803 0.067252 0.0
-0.045901 0.066971 0.0
-0.050046 0.066658 0.0
-0.054248 0.066306 0.0
-0.058522 0.065908 0.0
-0.062884 0.065453 0.0
-0.067351 0.064928 0.0
-0.071942 0.064313 0.0
-0.076677 0.063588 0.0
-0.081578 0.062724 0.0
-0.086668 0.061686 0.0
-0.091968 0.060432 0.0
-0.097502 0.058912 0.0
-0.103289 0.057064 0.0
-0.109347 0.054815 0.0
-0.115687 0.052077 0.0
-0.122313 0.048748 0.0
-0.129214 0.044708 0.0
-0.136364 0.039820 0.0
-0.143709 0.033926 0.0
-0.151164 0.026851 0.0
-0.158599 0.018405 0.0
-0.165831 0.008390 0.0
-0.172607 -0.003391 0.0
-0.178592 -0.017118 0.0
-0.183358 -0.032919 0.0
-0.186384 -0.050846 0.0
-0.187055 -0.070822 0.0
-0.184695 -0.092587 0.0
-0.178616 -0.115628 0.0
-0.168211 -0.139117 0.0
-0.153099 -0.161849 0.0
-0.133310 -0.182210 0.0
-0.109498 -0.198181 0.0
-0.083107 -0.207350 0.0
-0.056387 -0.206784 0.0
-0.032131 -0.192219 0.0
-0.013265 -0.155174 0.0
-0.002770 -0.076336 0.0
-0.000689 0.027597 0.0
-0.002831 0.054452 0.0
-0.006095 0.066155 0.0
-0.009855 0.070549 0.0
-0.013797 0.071920 0.0
-0.017796 0.072230 0.0
-0.021811 0.072213 0.0
-0.025833 0.072097 0.0
-0.029862 0.071942 0.0
-0.033904 0.071762 0.0
-0.037964 0.071561 0.0
-0.042051 0.071342 0.0
-0.046175 0.071104 0.0
-0.050349 0.070844 0.0
-0.054587 0.070561 0.0
-0.058905 0.070247 0.0
-0.063322 0.069894 0.0
-0.067859 0.069491 0.0
-0.072540 0.069021 0.0
-0.077389 0.068464 0.0
-0.082435 0.067794 0.0
-0.087708 0.066977 0.0
-0.093238 0.065972 0.0
-0.099059 0.064727 0.0
-0.105202 0.063180 0.0
-0.111699 0.061254 0.0
-0.118578 0.058857 0.0
-0.125860 0.055876 0.0
-0.133555 0.052177 0.0
-0.141657 0.047603 0.0
-0.150138 0.041968 0.0
-0.158934 0.035058 0.0
-0.167932 0.026631 0.0
-0.176959 0.016422 0.0
-0.185754 0.004149 0.0
-0.193961 -0.010466 0.0
-0.201093 -0.027673 0.0
-0.206516 -0.047643 0.0
-0.209453 -0.070416 0.0
-0.208993 -0.095813 0.0
-0.204146 -0.123329 0.0
-0.193954 -0.152013 0.0
-0.177684 -0.180334 0.0
-0.155116 -0.206081 0.0
-0.126905 -0.226333 0.0
-0.094937 -0.237555 0.0
-0.062472 -0.235764 0.0
-0.033719 -0.216248 0.0
-0.012712 -0.171017 0.0
-0.002297 -0.081403 0.0
-0.000682 0.028967 0.0
-0.002821 0.057363 0.0
-0.006101 0.069789 0.0
-0.009888 0.074462 0.0
-0.013861 0.075922 0.0
-0.017889 0.076255 0.0
-0.021931 0.076245 0.0
-0.025976 0.076133 0.0
-0.030026 0.075985 0.0
-0.034085 0.075819 0.0
-0.038160 0.075640 0.0
-0.042261 0.075452 0.0
-0.046399 0.075257 0.0
-0.050589 0.075055 0.0
-0.054846 0.074845 0.0
-0.059189 0.074624 0.0
-0.063640 0.074385 0.0
-0.068224 0.074121 0.0
-0.072969 0.073816 0.0
-0.077904 0.073455 0.0
-0.083066 0.073011 0.0
-0.088490 0.072457 0.0
-0.094218 0.071751 0.0
-0.100293 0.070844 0.0
-0.106762 0.069675 0.0
-0.113670 0.068165 0.0
-0.121066 0.066220 0.0
-0.128993 0.063720 0.0
-0.137487 0.060522 0.0
-0.146573 0.056448 0.0
-0.156254 0.051286 0.0
-0.166501 0.044783 0.0
-0.177236 0.036641 0.0
-0.188315 0.026518 0.0
-0.199498 0.014031 0.0
-0.210416 -0.001224 0.0
-0.220537 -0.019662 0.0
-0.229137 -0.041632 0.0
-0.235258 -0.067368 0.0
-0.237715 -0.096863 0.0
-0.235127 -0.129713 0.0
-0.226042 -0.164906 0.0
-0.209176 -0.200578 0.0
-0.183806 -0.233776 0.0
-0.150337 -0.260318 0.0
-0.110994 -0.274882 0.0
-0.070354 -0.271542 0.0
-0.034980 -0.244598 0.0
-0.011119 -0.187536 0.0
-0.001360 -0.085059 0.0
-0.000675 0.030324 0.0
-0.002811 0.060282 0.0
-0.006108 0.073447 0.0
-0.009924 0.078406 0.0
-0.013928 0.079954 0.0
-0.017985 0.080308 0.0
-0.022051 0.080300 0.0
-0.026116 0.080188 0.0
-0.030180 0.080044 0.0
-0.034249 0.079888 0.0
-0.038331 0.079727 0.0
-0.042434 0.079569 0.0
-0.046572 0.079416 0.0
-0.050761 0.079273 0.0
-0.055018 0.079140 0.0
-0.059364 0.079018 0.0
-0.063825 0.078903 0.0
-0.068428 0.078790 0.0
-0.073206 0.078669 0.0
-0.078194 0.078526 0.0
-0.083433 0.078341 0.0
-0.088969 0.078087 0.0
-0.094851 0.077730 0.0
-0.101135 0.077224 0.0
-0.107881 0.076510 0.0
-0.115154 0.075513 0.0
-0.123023 0.074138 0.0
-0.131558 0.072264 0.0
-0.140827 0.069741 0.0
-0.150893 0.066380 0.0
-0.161803 0.061945 0.0
-0.173579 0.056146 0.0
-0.186197 0.048631 0.0
-0.199568 0.038977 0.0
-0.213498 0.026686 0.0
-0.227652 0.011193 0.0
-0.241500 -0.008109 0.0
-0.254243 -0.031843 0.0
-0.264760 -0.060519 0.0
-0.271577 -0.094439 0.0
-0.272866 -0.133437 0.0
-0.266557 -0.176576 0.0
-0.250582 -0.221748 0.0
-0.223330 -0.265228 0.0
-0.184414 -0.301250 0.0
-0.135871 -0.321836 0.0
-0.083559 -0.317541 0.0
-0.037523 -0.280010 0.0
-0.008607 -0.204900 0.0
0.000179 -0.086240 0.0
-0.000668 0.031666 0.0
-0.002802 0.063210 0.0
-0.006118 0.077132 0.0
-0.009964 0.082382 0.0
-0.014000 0.084018 0.0
-0.018086 0.084388 0.0
-0.022175 0.084376 0.0
-0.026257 0.084258 0.0
-0.030331 0.084112 0.0
-0.034402 0.083960 0.0
-0.038479 0.083813 0.0
-0.042572 0.083680 0.0
-0.046695 0.083567 0.0
-0.050865 0.083480 0.0
-0.055100 0.083425 0.0
-0.059426 0.083405 0.0
-0.063868 0.083420 0.0
-0.068458 0.083468 0.0
-0.073233 0.083544 0.0
-0.078233 0.083639 0.0
-0.083504 0.083738 0.0
-0.089101 0.083821 0.0
-0.095081 0.083859 0.0
-0.101514 0.083811 0.0
-0.108473 0.083627 0.0
-0.116042 0.083238 0.0
-0.124314 0.082553 0.0
-0.133389 0.081458 0.0
-0.143371 0.079800 0.0
-0.154370 0.077386 0.0
-0.166488 0.073967 0.0
-0.179814 0.069226 0.0
-0.194406 0.062761 0.0
-0.210260 0.054072 0.0
-0.227280 0.042540 0.0
-0.245212 0.027425 0.0
-0.263575 0.007871 0.0
-0.281589 -0.017067 0.0
-0.298043 -0.048325 0.0
-0.311215 -0.086644 0.0
-0.318863 -0.132294 0.0
-0.318256 -0.184637 0.0
-0.306319 -0.241600 0.0
-0.279998 -0.298948 0.0
-0.237192 -0.349252 0.0
-0.178650 -0.380919 0.0
-0.110639 -0.378781 0.0
-0.047068 -0.328377 0.0
-0.007075 -0.225442 0.0
0.002251 -0.083810 0.0
-0.000661 0.032995 0.0
-0.002796 0.066150 0.0
-0.006134 0.080848 0.0
-0.010015 0.086393 0.0
-0.014085 0.088113 0.0
-0.018200 0.088493 0.0
-0.022311 0.088470 0.0
-0.026406 0.088339 0.0
-0.030483 0.088183 0.0
-0.034549 0.088027 0.0
-0.038611 0.087885 0.0
-0.042681 0.087770 0.0
-0.046772 0.087690 0.0
-0.050902 0.087656 0.0
-0.055093 0.087676 0.0
-0.059370 0.087757 0.0
-0.063762 0.087903 0.0
-0.068304 0.088117 0.0
-0.073035 0.088400 0.0
-0.078000 0.088748 0.0
-0.083251 0.089152 0.0
-0.088848 0.089601 0.0
-0.094861 0.090072 0.0
-0.101366 0.090536 0.0
-0.108454 0.090950 0.0
-0.116228 0.091258 0.0
-0.124803 0.091381 0.0
-0.134312 0.091213 0.0
-0.144899 0.090614 0.0
-0.156726 0.089397 0.0
-0.169963 0.087311 0.0
-0.184784 0.084029 0.0
-0.201351 0.079116 0.0
-0.219789 0.072009 0.0
-0.240147 0.061980 0.0
-0.262336 0.048106 0.0
-0.286038 0.029256 0.0