# vtk DataFile Version 3.0
Scalar Field
ASCII
DATASET RECTILINEAR_GRID
DIMENSIONS 50 50 1
X_COORDINATES 50 double
0.100000 0.300000 0.500000 0.700000 0.900000 1.100000 1.300000 1.500000 1.700000 1.900000 2.100000 2.300000 2.500000 2.700000 2.900000 3.100000 3.300000 3.500000 3.700000 3.900000 4.100000 4.300000 4.500000 4.700000 4.900000 5.100000 5.300000 5.500000 5.700000 5.900000 6.100000 6.300000 6.500000 6.700000 6.900000 7.100000 7.300000 7.500000 7.700000 7.900000 8.100000 8.300000 8.500000 8.700000 8.900000 9.100000 9.300000 9.500000 9.700000 9.900000 
Y_COORDINATES 50 double
0.100000 0.300000 0.500000 0.700000 0.900000 1.100000 1.300000 1.500000 1.700000 1.900000 2.100000 2.300000 2.500000 2.700000 2.900000 3.100000 3.300000 3.500000 3.700000 3.900000 4.100000 4.300000 4.500000 4.700000 4.900000 5.100000 5.300000 5.500000 5.700000 5.900000 6.100000 6.300000 6.500000 6.700000 6.900000 7.100000 7.300000 7.500000 7.700000 7.900000 8.100000 8.300000 8.500000 8.700000 8.900000 9.100000 9.300000 9.500000 9.700000 9.900000 
Z_COORDINATES 1 double
0.0
POINT_DATA 2500
SCALARS Skalarfeld double 1
LOOKUP_TABLE default
-0.018738
-0.018759
-0.018735
-0.018655
-0.018520
-0.018330
-0.018085
-0.017786
-0.017431
-0.017020
-0.016555
-0.016034
-0.015458
-0.014828
-0.014142
-0.013403
-0.012610
-0.011764
-0.010867
-0.009921
-0.008926
-0.007885
-0.006800
-0.005675
-0.004512
-0.003316
-0.002090
-0.000839
0.000431
0.001715
0.003006
0.004299
0.005584
0.006856
0.008105
0.009325
0.010505
0.011638
0.012714
0.013726
0.014664
0.015521
0.016289
0.016961
0.017530
0.017992
0.018340
0.018571
0.018684
0.018691
-0.018717
-0.018738
-0.018710
-0.018629
-0.018494
-0.018305
-0.018061
-0.017763
-0.017410
-0.017001
-0.016538
-0.016019
-0.015445
-0.014817
-0.014134
-0.013397
-0.012606
-0.011764
-0.010869
-0.009925
-0.008933
-0.007894
-0.006811
-0.005688
-0.004527
-0.003332
-0.002108
-0.000858
0.000411
0.001694
0.002985
0.004277
0.005563
0.006835
0.008086
0.009306
0.010488
0.011622
0.012700
0.013714
0.014654
0.015513
0.016282
0.016956
0.017527
0.017989
0.018339
0.018572
0.018690
0.018697
-0.018744
-0.018770
-0.018742
-0.018661
-0.018527
-0.018339
-0.018096
-0.017799
-0.017447
-0.017041
-0.016579
-0.016062
-0.015490
-0.014864
-0.014183
-0.013447
-0.012658
-0.011816
-0.010923
-0.009979
-0.008987
-0.007948
-0.006865
-0.005741
-0.004578
-0.003380
-0.002153
-0.000899
0.000375
0.001664
0.002961
0.004260
0.005553
0.006834
0.008093
0.009323
0.010514
0.011658
0.012746
0.013769
0.014719
0.015587
0.016365
0.017046
0.017624
0.018092
0.018446
0.018683
0.018802
0.018805
-0.018831
-0.018859
-0.018833
-0.018753
-0.018619
-0.018432
-0.018191
-0.017895
-0.017545
-0.017140
-0.016680
-0.016165
-0.015594
-0.014969
-0.014289
-0.013554
-0.012765
-0.011924
-0.011030
-0.010085
-0.009090
-0.008049
-0.006962
-0.005832
-0.004664
-0.003460
-0.002224
-0.000961
0.000323
0.001623
0.002933
0.004246
0.005555
0.006851
0.008127
0.009374
0.010583
0.011745
0.012852
0.013892
0.014859
0.015743
0.016537
0.017231
0.017821
0.018299
0.018661
0.018903
0.019025
0.019025
-0.018978
-0.019008
-0.018983
-0.018904
-0.018772
-0.018586
-0.018346
-0.018052
-0.017703
-0.017300
-0.016841
-0.016327
-0.015758
-0.015133
-0.014453
-0.013718
-0.012929
-0.012085
-0.011189
-0.010241
-0.009242
-0.008195
-0.007102
-0.005964
-0.004786
-0.003571
-0.002323
-0.001046
0.000255
0.001573
0.002902
0.004236
0.005567
0.006887
0.008187
0.009460
0.010695
0.011884
0.013017
0.014083
0.015075
0.015983
0.016798
0.017513
0.018119
0.018612
0.018985
0.019235
0.019360
0.019361
-0.019186
-0.019217
-0.019193
-0.019115
-0.018985
-0.018800
-0.018562
-0.018269
-0.017922
-0.017520
-0.017062
-0.016549
-0.015981
-0.015356
-0.014676
-0.013940
-0.013149
-0.012303
-0.011403
-0.010449
-0.009445
-0.008390
-0.007286
-0.006138
-0.004947
-0.003716
-0.002451
-0.001154
0.000168
0.001510
0.002865
0.004227
0.005587
0.006939
0.008273
0.009580
0.010850
0.012074
0.013241
0.014343
0.015368
0.016307
0.017152
0.017892
0.018522
0.019034
0.019422
0.019682
0.019812
0.019813
-0.019453
-0.019485
-0.019463
-0.019387
-0.019258
-0.019075
-0.018838
-0.018547
-0.018202
-0.017801
-0.017345
-0.016833
-0.016264
-0.015640
-0.014958
-0.014221
-0.013427
-0.012577
-0.011672
-0.010712
-0.009699
-0.008633
-0.007518
-0.006355
-0.005147
-0.003897
-0.002610
-0.001289
0.000060
0.001432
0.002820
0.004217
0.005615
0.007006
0.008382
0.009731
0.011046
0.012314
0.013526
0.014671
0.015738
0.016717
0.017599
0.018373
0.019032
0.019568
0.019974
0.020248
0.020385
0.020388
-0.019780
-0.019814
-0.019793
-0.019719
-0.019591
-0.019411
-0.019176
-0.018887
-0.018543
-0.018143
-0.017688
-0.017177
-0.016609
-0.015984
-0.015302
-0.014562
-0.013764
-0.012910
-0.011998
-0.011030
-0.010006
-0.008929
-0.007799
-0.006619
-0.005391
-0.004118
-0.002804
-0.001453
-0.000071
0.001336
0.002764
0.004203
0.005647
0.007086
0.008512
0.009914
0.011282
0.012605
0.013871
0.015069
0.016188
0.017216
0.018143
0.018958
0.019653
0.020219
0.020649
0.020938
0.021084
0.021089
-0.020168
-0.020203
-0.020184
-0.020111
-0.019986
-0.019807
-0.019574
-0.019287
-0.018945
-0.018548
-0.018094
-0.017584
-0.017016
-0.016390
-0.015707
-0.014964
-0.014163
-0.013303
-0.012384
-0.011406
-0.010371
-0.009279
-0.008132
-0.006932
-0.005680
-0.004381
-0.003036
-0.001651
-0.000231
0.001219
0.002693
0.004182
0.005680
0.007176
0.008662
0.010126
0.011558
0.012945
0.014276
0.015538
0.016719
0.017806
0.018788
0.019652
0.020390
0.020992
0.021450
0.021759
0.021916
0.021923
-0.020615
-0.020652
-0.020635
-0.020565
-0.020442
-0.020265
-0.020035
-0.019750
-0.019410
-0.019015
-0.018563
-0.018054
-0.017486
-0.016860
-0.016175
-0.015430
-0.014624
-0.013758
-0.012831
-0.011843
-0.010795
-0.009688
-0.008521
-0.007298
-0.006020
-0.004690
-0.003311
-0.001887
-0.000423
0.001076
0.002603
0.004150
0.005710
0.007272
0.008828
0.010364
0.011871
0.013334
0.014742
0.016079
0.017333
0.018490
0.019537
0.020460
0.021250
0.021895
0.022387
0.022719
0.022889
0.022899
-0.021122
-0.021162
-0.021147
-0.021079
-0.020958
-0.020785
-0.020557
-0.020275
-0.019938
-0.019545
-0.019095
-0.018588
-0.018021
-0.017395
-0.016709
-0.015961
-0.015151
-0.014279
-0.013343
-0.012344
-0.011282
-0.010157
-0.008970
-0.007723
-0.006416
-0.005052
-0.003634
-0.002166
-0.000652
0.000901
0.002488
0.004101
0.005732
0.007370
0.009006
0.010626
0.012219
0.013771
0.015267
0.016693
0.018033
0.019272
0.020395
0.021388
0.022239
0.022935
0.023467
0.023827
0.024013
0.024026
-0.021690
-0.021732
-0.021719
-0.021654
-0.021537
-0.021366
-0.021142
-0.020864
-0.020530
-0.020140
-0.019693
-0.019187
-0.018622
-0.017997
-0.017310
-0.016560
-0.015746
-0.014867
-0.013923
-0.012913
-0.011836
-0.010693
-0.009484
-0.008210
-0.006871
-0.005471
-0.004010
-0.002494
-0.000926
0.000688
0.002343
0.004030
0.005740
0.007464
0.009191
0.010907
0.012600
0.014253
0.015852
0.017380
0.018820
0.020155
0.021368
0.022443
0.023365
0.024121
0.024701
0.025094
0.025298
0.025315
-0.022318
-0.022362
-0.022353
-0.022291
-0.022177
-0.022010
-0.021790
-0.021516
-0.021186
-0.020800
-0.020356
-0.019854
-0.019291
-0.018667
-0.017980
-0.017228
-0.016411
-0.015527
-0.014574
-0.013553
-0.012461
-0.011300
-0.010068
-0.008765
-0.007393
-0.005953
-0.004447
-0.002879
-0.001251
0.000430
0.002159
0.003928
0.005728
0.007548
0.009378
0.011203
0.013009
0.014779
0.016496
0.018142
0.019697
0.021143
0.022461
0.023632
0.024638
0.025465
0.026100
0.026533
0.026759
0.026781
-0.023006
-0.023054
-0.023047
-0.022989
-0.022879
-0.022717
-0.022501
-0.022232
-0.021907
-0.021526
-0.021087
-0.020588
-0.020029
-0.019407
-0.018721
-0.017969
-0.017149
-0.016260
-0.015300
-0.014268
-0.013163
-0.011982
-0.010726
-0.009395
-0.007988
-0.006507
-0.004953
-0.003328
-0.001636
0.000118
0.001928
0.003787
0.005686
0.007614
0.009559
0.011507
0.013441
0.015344
0.017196
0.018978
0.020667
0.022242
0.023682
0.024964
0.026069
0.026979
0.027680
0.028158
0.028410
0.028438
-0.023755
-0.023806
-0.023803
-0.023749
-0.023644
-0.023487
-0.023277
-0.023013
-0.022694
-0.022319
-0.021885
-0.021392
-0.020838
-0.020219
-0.019536
-0.018785
-0.017964
-0.017072
-0.016106
-0.015064
-0.013945
-0.012746
-0.011467
-0.010107
-0.008664
-0.007140
-0.005535
-0.003851
-0.002090
-0.000258
0.001640
0.003598
0.005606
0.007653
0.009726
0.011811
0.013890
0.015943
0.017950
0.019887
0.021731
0.023456
0.025037
0.026449
0.027670
0.028678
0.029455
0.029988
0.030270
0.030305
-0.024565
-0.024620
-0.024621
-0.024571
-0.024471
-0.024320
-0.024116
-0.023860
-0.023548
-0.023180
-0.022753
-0.022267
-0.021719
-0.021106
-0.020427
-0.019679
-0.018859
-0.017965
-0.016994
-0.015945
-0.014813
-0.013598
-0.012296
-0.010907
-0.009429
-0.007861
-0.006204
-0.004458
-0.002626
-0.000710
0.001283
0.003348
0.005474
0.007652
0.009868
0.012106
0.014348
0.016571
0.018754
0.020870
0.022891
0.024789
0.026534
0.028099
0.029454
0.030577
0.031444
0.032041
0.032360
0.032404
-0.025436
-0.025494
-0.025500
-0.025455
-0.025361
-0.025217
-0.025021
-0.024772
-0.024469
-0.024109
-0.023692
-0.023214
-0.022674
-0.022069
-0.021396
-0.020653
-0.019837
-0.018943
-0.017971
-0.016915
-0.015774
-0.014544
-0.013222
-0.011805
-0.010292
-0.008681
-0.006971
-0.005162
-0.003254
-0.001251
0.000843
0.003022
0.005278
0.007599
0.009972
0.012380
0.014804
0.017220
0.019602
0.021921
0.024147
0.026245
0.028182
0.029924
0.031439
0.032696
0.033670
0.034343
0.034704
0.034759
-0.026367
-0.026429
-0.026440
-0.026402
-0.026315
-0.026178
-0.025990
-0.025751
-0.025458
-0.025109
-0.024702
-0.024235
-0.023706
-0.023111
-0.022447
-0.021711
-0.020901
-0.020011
-0.019040
-0.017981
-0.016833
-0.015591
-0.014251
-0.012810
-0.011264
-0.009610
-0.007848
-0.005974
-0.003990
-0.001896
0.000304
0.002605
0.004999
0.007475
0.010021
0.012617
0.015244
0.017877
0.020486
0.023038
0.025499
0.027829
0.029990
0.031940
0.033641
0.035057
0.036158
0.036920
0.037333
0.037400
-0.027358
-0.027426
-0.027442
-0.027410
-0.027331
-0.027203
-0.027025
-0.026797
-0.026515
-0.026179
-0.025785
-0.025331
-0.024814
-0.024232
-0.023580
-0.022856
-0.022055
-0.021173
-0.020206
-0.019149
-0.017997
-0.016747
-0.015393
-0.013930
-0.012354
-0.010661
-0.008847
-0.006911
-0.004849
-0.002662
-0.000351
0.002078
0.004619
0.007263
0.009996
0.012800
0.015653
0.018528
0.021394
0.024213
0.026944
0.029544
0.031964
0.034159
0.036080
0.037685
0.038936
0.039805
0.040279
0.040362
-0.028410
-0.028483
-0.028505
-0.028481
-0.028410
-0.028292
-0.028126
-0.027910
-0.027642
-0.027320
-0.026941
-0.026503
-0.026002
-0.025436
-0.024800
-0.024090
-0.023302
-0.022431
-0.021473
-0.020422
-0.019273
-0.018019
-0.016655
-0.015176
-0.013574
-0.011846
-0.009985
-0.007987
-0.005849
-0.003568
-0.001145
0.001418
0.004115
0.006938
0.009874
0.012905
0.016009
0.019156
0.022311
0.025434
0.028478
0.031390
0.034115
0.036597
0.038779
0.040609
0.042039
0.043036
0.043582
0.043686
-0.029522
-0.029601
-0.029629
-0.029613
-0.029552
-0.029445
-0.029292
-0.029090
-0.028837
-0.028532
-0.028171
-0.027751
-0.027270
-0.026723
-0.026106
-0.025415
-0.024645
-0.023791
-0.022848
-0.021808
-0.020666
-0.019415
-0.018048
-0.016557
-0.014937
-0.013178
-0.011275
-0.009220
-0.007009
-0.004636
-0.002100
0.000600
0.003459
0.006471
0.009625
0.012904
0.016284
0.019734
0.023218
0.026687
0.030090
0.033366
0.036449
0.039271
0.041763
0.043861
0.045506
0.046657
0.047291
0.047419
-0.030694
-0.030778
-0.030815
-0.030807
-0.030757
-0.030663
-0.030524
-0.030338
-0.030103
-0.029816
-0.029476
-0.029078
-0.028619
-0.028095
-0.027502
-0.026835
-0.026088
-0.025256
-0.024332
-0.023311
-0.022183
-0.020942
-0.019579
-0.018086
-0.016453
-0.014673
-0.012734
-0.010630
-0.008351
-0.005890
-0.003242
-0.000406
0.002620
0.005831
0.009217
0.012763
0.016445
0.020233
0.024085
0.027950
0.031767
0.035467
0.038970
0.042196
0.045059
0.047479
0.049384
0.050720
0.051461
0.051618
-0.031926
-0.032016
-0.032060
-0.032063
-0.032024
-0.031944
-0.031820
-0.031652
-0.031437
-0.031173
-0.030855
-0.030482
-0.030050
-0.029554
-0.028989
-0.028350
-0.027632
-0.026829
-0.025932
-0.024936
-0.023830
-0.022608
-0.021258
-0.019772
-0.018138
-0.016344
-0.014381
-0.012236
-0.009898
-0.007357
-0.004603
-0.001631
0.001563
0.004978
0.008608
0.012439
0.016451
0.020611
0.024876
0.029191
0.033486
0.037680
0.041681
0.045387
0.048695
0.051505
0.053725
0.055288
0.056159
0.056353
-0.033216
-0.033314
-0.033366
-0.033379
-0.033353
-0.033288
-0.033182
-0.033034
-0.032841
-0.032601
-0.032310
-0.031965
-0.031563
-0.031099
-0.030567
-0.029963
-0.029280
-0.028512
-0.027650
-0.026687
-0.025614
-0.024419
-0.023094
-0.021625
-0.020001
-0.018208
-0.016232
-0.014059
-0.011675
-0.009064
-0.006213
-0.003112
0.000246
0.003867
0.007749
0.011882
0.016248
0.020817
0.025544
0.030369
0.035215
0.039987
0.044575
0.048857
0.052704
0.055988
0.058594
0.060433
0.061464
0.061703
-0.034566
-0.034670
-0.034732
-0.034756
-0.034744
-0.034695
-0.034609
-0.034482
-0.034314
-0.034100
-0.033839
-0.033527
-0.033159
-0.032731
-0.032238
-0.031674
-0.031033
-0.030308
-0.029489
-0.028569
-0.027537
-0.026383
-0.025094
-0.023657
-0.022057
-0.020279
-0.018306
-0.016122
-0.013706
-0.011042
-0.008109
-0.004892
-0.001377
0.002446
0.006582
0.011029
0.015773
0.020786
0.026025
0.031427
0.036905
0.042353
0.047639
0.052613
0.057115
0.060981
0.064063
0.066245
0.067472
0.067768
-0.035973
-0.036086
-0.036157
-0.036193
-0.036196
-0.036165
-0.036099
-0.035996
-0.035854
-0.035671
-0.035442
-0.035165
-0.034836
-0.034450
-0.034001
-0.033484
-0.032892
-0.032217
-0.031451
-0.030584
-0.029606
-0.028504
-0.027265
-0.025874
-0.024315
-0.022571
-0.020621
-0.018445
-0.016020
-0.013323
-0.010329
-0.007015
-0.003360
0.000655
0.005042
0.009807
0.014945
0.020434
0.026236
0.032285
0.038490
0.044727
0.050843
0.056653
0.061957
0.066543
0.070218
0.072827
0.074300
0.074666
-0.037438
-0.037560
-0.037641
-0.037690
-0.037709
-0.037697
-0.037653
-0.037575
-0.037462
-0.037311
-0.037118
-0.036881
-0.036594
-0.036254
-0.035856
-0.035392
-0.034856
-0.034241
-0.033537
-0.032734
-0.031821
-0.030786
-0.029612
-0.028286
-0.026787
-0.025097
-0.023192
-0.021049
-0.018641
-0.015939
-0.012913
-0.009528
-0.005758
-0.001573
0.003049
0.008128
0.013668
0.019659
0.026071
0.032840
0.039873
0.047031
0.054134
0.060960
0.067252
0.072737
0.077157
0.080306
0.082087
0.082542
-0.038961
-0.039092
-0.039184
-0.039246
-0.039281
-0.039289
-0.039269
-0.039219
-0.039136
-0.039020
-0.038866
-0.038671
-0.038432
-0.038143
-0.037800
-0.037396
-0.036925
-0.036378
-0.035746
-0.035019
-0.034185
-0.033231
-0.032140
-0.030897
-0.029480
-0.027868
-0.026036
-0.023955
-0.021596
-0.018922
-0.015899
-0.012483
-0.008634
-0.004313
0.000517
0.005889
0.011825
0.018332
0.025391
0.032951
0.040919
0.049146
0.057426
0.065487
0.073006
0.079625
0.084994
0.088832
0.091004
0.091571
-0.040542
-0.040682
-0.040786
-0.040862
-0.040914
-0.040943
-0.040947
-0.040925
-0.040875
-0.040796
-0.040683
-0.040535
-0.040347
-0.040114
-0.039832
-0.039495
-0.039096
-0.038626
-0.038077
-0.037438
-0.036697
-0.035839
-0.034850
-0.033710
-0.032399
-0.030893
-0.029163
-0.027179
-0.024906
-0.022303
-0.019327
-0.015930
-0.012051
-0.007644
-0.002654
0.002972
0.009278
0.016293
0.024021
0.032432
0.041442
0.050900
0.060575
0.070143
0.079195
0.087259
0.093853
0.098584
0.101262
0.101971
-0.042181
-0.042332
-0.042447
-0.042537
-0.042607
-0.042656
-0.042686
-0.042693
-0.042678
-0.042637
-0.042568
-0.042469
-0.042336
-0.042164
-0.041949
-0.041685
-0.041365
-0.040981
-0.040525
-0.039986
-0.039352
-0.038609
-0.037740
-0.036727
-0.035547
-0.034175
-0.032582
-0.030734
-0.028591
-0.026108
-0.023235
-0.019914
-0.016076
-0.011651
-0.006569
-0.000754
0.005866
0.013351
0.021741
0.031037
0.041182
0.052038
0.063358
0.074763
0.085741
0.095665
0.103866
0.109777
0.113117
0.114009
-0.043879
-0.044041
-0.044168
-0.044272
-0.044359
-0.044430
-0.044485
-0.044523
-0.044542
-0.044541
-0.044518
-0.044471
-0.044396
-0.044288
-0.044145
-0.043960
-0.043727
-0.043439
-0.043086
-0.042660
-0.042147
-0.041534
-0.040806
-0.039942
-0.038921
-0.037716
-0.036296
-0.034626
-0.032663
-0.030358
-0.027653
-0.024481
-0.020768
-0.016416
-0.011339
-0.005434
0.001405
0.009280
0.018277
0.028450
0.039789
0.052194
0.065423
0.079056
0.092460
0.104806
0.115150
0.122654
0.126884
0.128018
-0.045639
-0.045812
-0.045951
-0.046068
-0.046172
-0.046264
-0.046344
-0.046411
-0.046466
-0.046506
-0.046530
-0.046536
-0.046522
-0.046483
-0.046416
-0.046316
-0.046176
-0.045991
-0.045752
-0.045449
-0.045072
-0.044607
-0.044039
-0.043348
-0.042513
-0.041508
-0.040302
-0.038856
-0.037128
-0.035064
-0.032601
-0.029667
-0.026173
-0.022018
-0.017072
-0.011215
-0.004301
0.003821
0.013302
0.024267
0.036790
0.050843
0.066233
0.082528
0.098981
0.114504
0.127761
0.137475
0.142947
0.144423
-0.047463
-0.047648
-0.047798
-0.047928
-0.048048
-0.048159
-0.048263
-0.048359
-0.048448
-0.048529
-0.048601
-0.048662
-0.048710
-0.048742
-0.048755
-0.048744
-0.048704
-0.048630
-0.048513
-0.048346
-0.048117
-0.047816
-0.047426
-0.046932
-0.046312
-0.045540
-0.044587
-0.043415
-0.041979
-0.040226
-0.038090
-0.035491
-0.032335
-0.028507
-0.023867
-0.018243
-0.011460
-0.003309
0.006434
0.017995
0.031565
0.047247
0.064967
0.084354
0.104587
0.124290
0.141577
0.154467
0.161761
0.163782
-0.049355
-0.049554
-0.049713
-0.049855
-0.049988
-0.050116
-0.050241
-0.050365
-0.050487
-0.050607
-0.050726
-0.050842
-0.050954
-0.051059
-0.051154
-0.051237
-0.051302
-0.051344
-0.051358
-0.051335
-0.051268
-0.051144
-0.050953
-0.050677
-0.050298
-0.049792
-0.049132
-0.048282
-0.047199
-0.045830
-0.044109
-0.041955
-0.039269
-0.035928
-0.031782
-0.026640
-0.020263
-0.012401
-0.002744
0.009049
0.023329
0.040399
0.060407
0.083176
0.107943
0.133088
0.156025
0.173662
0.183841
0.186902
-0.051323
-0.051536
-0.051704
-0.051853
-0.051996
-0.052137
-0.052281
-0.052428
-0.052579
-0.052737
-0.052902
-0.053072
-0.053247
-0.053425
-0.053605
-0.053783
-0.053957
-0.054122
-0.054272
-0.054403
-0.054506
-0.054574
-0.054596
-0.054558
-0.054445
-0.054237
-0.053908
-0.053427
-0.052756
-0.051844
-0.050630
-0.049036
-0.046963
-0.044286
-0.040851
-0.036460
-0.030863
-0.023716
-0.014653
-0.003212
0.011140
0.028975
0.050793
0.076816
0.106610
0.138564
0.169408
0.194459
0.209665
0.215026
-0.053376
-0.053603
-0.053777
-0.053930
-0.054077
-0.054227
-0.054382
-0.054548
-0.054725
-0.054916
-0.055123
-0.055345
-0.055582
-0.055833
-0.056098
-0.056374
-0.056658
-0.056948
-0.057240
-0.057531
-0.057814
-0.058083
-0.058331
-0.058548
-0.058722
-0.058837
-0.058874
-0.058806
-0.058601
-0.058217
-0.057599
-0.056678
-0.055364
-0.053540
-0.051057
-0.047720
-0.043278
-0.037407
-0.029648
-0.019416
-0.006036
0.011355
0.033714
0.061909
0.096272
0.135817
0.177210
0.214112
0.238917
0.249423
-0.055528
-0.055770
-0.055946
-0.056096
-0.056240
-0.056389
-0.056549
-0.056725
-0.056921
-0.057140
-0.057384
-0.057654
-0.057951
-0.058274
-0.058622
-0.058995
-0.059391
-0.059809
-0.060245
-0.060699
-0.061166
-0.061644
-0.062129
-0.062613
-0.063090
-0.063551
-0.063980
-0.064361
-0.064670
-0.064875
-0.064935
-0.064794
-0.064378
-0.063591
-0.062305
-0.060349
-0.057497
-0.053447
-0.047795
-0.039986
-0.029168
-0.014230
0.006143
0.033609
0.069694
0.115074
0.168178
0.222722
0.265796
0.286389
-0.057798
-0.058055
-0.058227
-0.058364
-0.058494
-0.058631
-0.058784
-0.058961
-0.059167
-0.059405
-0.059680
-0.059993
-0.060345
-0.060736
-0.061166
-0.061635
-0.062141
-0.062686
-0.063267
-0.063885
-0.064540
-0.065230
-0.065956
-0.066715
-0.067506
-0.068326
-0.069168
-0.070025
-0.070884
-0.071727
-0.072530
-0.073258
-0.073862
-0.074277
-0.074413
-0.074151
-0.073325
-0.071713
-0.069008
-0.064784
-0.058452
-0.049122
-0.035172
-0.014272
0.016061
0.059203
0.118858
0.193885
0.266025
0.303298
-0.060215
-0.060487
-0.060644
-0.060754
-0.060853
-0.060961
-0.061092
-0.061255
-0.061458
-0.061706
-0.062004
-0.062353
-0.062754
-0.063209
-0.063717
-0.064278
-0.064893
-0.065562
-0.066287
-0.067068
-0.067908
-0.068810
-0.069778
-0.070813
-0.071922
-0.073106
-0.074371
-0.075718
-0.077149
-0.078662
-0.080253
-0.081912
-0.083626
-0.085369
-0.087109
-0.088800
-0.090379
-0.091766
-0.092858
-0.093523
-0.093601
-0.092872
-0.091030
-0.087166
-0.077154
-0.053577
-0.002778
0.087697
0.195227
0.256279
-0.062819
-0.063104
-0.063231
-0.063290
-0.063334
-0.063390
-0.063477
-0.063608
-0.063792
-0.064037
-0.064347
-0.064723
-0.065168
-0.065680
-0.066261
-0.066910
-0.067629
-0.068419
-0.069283
-0.070223
-0.071244
-0.072353
-0.073557
-0.074864
-0.076285
-0.077832
-0.079517
-0.081354
-0.083361
-0.085553
-0.087950
-0.090571
-0.093439
-0.096583
-0.100035
-0.103846
-0.108088
-0.112879
-0.118421
-0.125067
-0.133446
-0.144680
-0.160633
-0.183449
-0.212243
-0.232835
-0.211102
-0.115829
0.025499
0.115105
-0.065667
-0.065961
-0.066034
-0.066009
-0.065961
-0.065931
-0.065945
-0.066018
-0.066165
-0.066391
-0.066700
-0.067094
-0.067573
-0.068136
-0.068784
-0.069517
-0.070334
-0.071239
-0.072235
-0.073326
-0.074521
-0.075827
-0.077257
-0.078824
-0.080545
-0.082440
-0.084530
-0.086844
-0.089410
-0.092267
-0.095456
-0.099027
-0.103046
-0.107591
-0.112772
-0.118739
-0.125718
-0.134059
-0.144331
-0.157507
-0.175311
-0.200867
-0.239523
-0.298066
-0.377265
-0.455892
-0.476677
-0.388269
-0.222669
-0.105911
-0.068846
-0.069141
-0.069117
-0.068954
-0.068761
-0.068598
-0.068498
-0.068484
-0.068567
-0.068755
-0.069050
-0.069451
-0.069956
-0.070564
-0.071273
-0.072081
-0.072991
-0.074003
-0.075123
-0.076356
-0.077712
-0.079202
-0.080843
-0.082651
-0.084651
-0.086869
-0.089338
-0.092096
-0.095187
-0.098668
-0.102603
-0.107073
-0.112179
-0.118053
-0.124873
-0.132886
-0.142462
-0.154168
-0.168930
-0.188339
-0.215242
-0.254868
-0.316179
-0.410469
-0.539350
-0.671348
-0.733770
-0.661789
-0.487735
-0.352443
-0.072487
-0.072766
-0.072573
-0.072185
-0.071767
-0.071403
-0.071137
-0.070994
-0.070986
-0.071116
-0.071381
-0.071778
-0.072302
-0.072947
-0.073711
-0.074589
-0.075584
-0.076695
-0.077929
-0.079291
-0.080794
-0.082450
-0.084280
-0.086305
-0.088555
-0.091063
-0.093870
-0.097025
-0.100587
-0.104627
-0.109231
-0.114506
-0.120585
-0.127643
-0.135913
-0.145721
-0.157541
-0.172101
-0.190580
-0.214986
-0.248910
-0.298884
-0.375922
-0.493571
-0.653444
-0.818246
-0.908017
-0.856910
-0.692172
-0.551567
-0.076798
-0.077021
-0.076531
-0.075775
-0.075010
-0.074352
-0.073852
-0.073534
-0.073403
-0.073453
-0.073675
-0.074059
-0.074594
-0.075271
-0.076083
-0.077026
-0.078098
-0.079299
-0.080635
-0.082113
-0.083745
-0.085547
-0.087540
-0.089752
-0.092215
-0.094969
-0.098063
-0.101555
-0.105516
-0.110029
-0.115198
-0.121149
-0.128042
-0.136080
-0.145534
-0.156776
-0.170335
-0.187010
-0.208064
-0.235602
-0.273301
-0.327607
-0.408826
-0.528930
-0.688160
-0.852071
-0.947218
-0.915989
-0.773731
-0.639281
-0.082129
-0.082205
-0.081173
-0.079810
-0.078513
-0.077434
-0.076618
-0.076073
-0.075786
-0.075737
-0.075905
-0.076270
-0.076812
-0.077517
-0.078374
-0.079376
-0.080519
-0.081802
-0.083228
-0.084806
-0.086548
-0.088471
-0.090598
-0.092961
-0.095594
-0.098544
-0.101865
-0.105623
-0.109896
-0.114779
-0.120387
-0.126861
-0.134376
-0.143153
-0.153478
-0.165739
-0.180469
-0.198451
-0.220874
-0.249652
-0.287977
-0.341079
-0.415924
-0.519709
-0.651124
-0.779568
-0.846957
-0.827121
-0.711396
-0.578654
-0.089113
-0.088811
-0.086745
-0.084362
-0.082266
-0.080608
-0.079384
-0.078560
-0.078091
-0.077931
-0.078040
-0.078384
-0.078932
-0.079665
-0.080566
-0.081623
-0.082831
-0.084186
-0.085692
-0.087353
-0.089184
-0.091201
-0.093431
-0.095905
-0.098662
-0.101751
-0.105231
-0.109174
-0.113664
-0.118803
-0.124714
-0.131544
-0.139477
-0.148738
-0.159617
-0.172487
-0.187856
-0.206432
-0.229247
-0.257863
-0.294793
-0.342651
-0.406229
-0.488821
-0.584886
-0.666826
-0.691691
-0.643582
-0.516308
-0.348584
-0.099033
-0.097694
-0.093533
-0.089436
-0.086174
-0.083769
-0.082052
-0.080909
-0.080239
-0.079965
-0.080017
-0.080342
-0.080900
-0.081662
-0.082605
-0.083714
-0.084981
-0.086400
-0.087972
-0.089702
-0.091598
-0.093682
-0.095980
-0.098524
-0.101356
-0.104526
-0.108097
-0.112143
-0.116755
-0.122038
-0.128118
-0.135148
-0.143311
-0.152832
-0.163992
-0.177146
-0.192758
-0.211453
-0.234113
-0.261844
-0.295976
-0.338612
-0.391882
-0.455937
-0.522998
-0.569023
-0.557841
-0.455697
-0.206666
0.109964
-0.115129
-0.110503
-0.101711
-0.094792
-0.089924
-0.086643
-0.084344
-0.082843
-0.081953
-0.081563
-0.081561
-0.081871
-0.082440
-0.083229
-0.084212
-0.085370
-0.086689
-0.088164
-0.089793
-0.091577
-0.093516
-0.095643
-0.097980
-0.100560
-0.103424
-0.106627
-0.110231
-0.114317
-0.118975
-0.124317
-0.130470
-0.137590
-0.145860
-0.155503
-0.166790
-0.180062
-0.195746
-0.214392
-0.236703
-0.263533
-0.295887
-0.334932
-0.381322
-0.433291
-0.481961
-0.504819
-0.452888
-0.232264
0.307998
1.010657
-0.145756
-0.128995
-0.110907
-0.098904
-0.091649
-0.087421
-0.084396
-0.082609
-0.081655
-0.081221
-0.081219
-0.081562
-0.082186
-0.083045
-0.084106
-0.085346
-0.086749
-0.088306
-0.090011
-0.091864
-0.093872
-0.096056
-0.098440
-0.101059
-0.103955
-0.107183
-0.110812
-0.114921
-0.119608
-0.124985
-0.131187
-0.138369
-0.146721
-0.156464
-0.167872
-0.181278
-0.197098
-0.215847
-0.238159
-0.264765
-0.296442
-0.333773
-0.376319
-0.420570
-0.455682
-0.444546
-0.289793
0.193007
1.271684
2.722336
-0.247892
-0.110402
-0.082602
-0.075207
-0.072599
-0.071634
-0.071246
-0.071364
-0.071849
-0.072566
-0.073495
-0.074610
-0.075887
-0.077307
-0.078857
-0.080527
-0.082310
-0.084205
-0.086212
-0.088336
-0.090589
-0.092991
-0.095571
-0.098364
-0.101418
-0.104790
-0.108551
-0.112784
-0.117589
-0.123085
-0.129408
-0.136721
-0.145215
-0.155118
-0.166708
-0.180321
-0.196375
-0.215377
-0.237930
-0.264687
-0.296213
-0.332474
-0.371419
-0.404812
-0.406075
-0.306009
0.033657
0.887166
2.587875
4.906261
