# vtk DataFile Version 3.0
Scalar Field
ASCII
DATASET RECTILINEAR_GRID
DIMENSIONS 50 50 1
X_COORDINATES 50 double
0.100000 0.300000 0.500000 0.700000 0.900000 1.100000 1.300000 1.500000 1.700000 1.900000 2.100000 2.300000 2.500000 2.700000 2.900000 3.100000 3.300000 3.500000 3.700000 3.900000 4.100000 4.300000 4.500000 4.700000 4.900000 5.100000 5.300000 5.500000 5.700000 5.900000 6.100000 6.300000 6.500000 6.700000 6.900000 7.100000 7.300000 7.500000 7.700000 7.900000 8.100000 8.300000 8.500000 8.700000 8.900000 9.100000 9.300000 9.500000 9.700000 9.900000 
Y_COORDINATES 50 double
0.100000 0.300000 0.500000 0.700000 0.900000 1.100000 1.300000 1.500000 1.700000 1.900000 2.100000 2.300000 2.500000 2.700000 2.900000 3.100000 3.300000 3.500000 3.700000 3.900000 4.100000 4.300000 4.500000 4.700000 4.900000 5.100000 5.300000 5.500000 5.700000 5.900000 6.100000 6.300000 6.500000 6.700000 6.900000 7.100000 7.300000 7.500000 7.700000 7.900000 8.100000 8.300000 8.500000 8.700000 8.900000 9.100000 9.300000 9.500000 9.700000 9.900000 
Z_COORDINATES 1 double
0.0
POINT_DATA 2500
SCALARS Skalarfeld double 1
LOOKUP_TABLE default
0.009573
0.009538
0.009596
0.009768
0.010058
0.010465
0.010989
0.011630
0.012391
0.013274
0.014282
0.015420
0.016691
0.018100
0.019652
0.021352
0.023205
0.025218
0.027396
0.029743
0.032265
0.034966
0.037850
0.040919
0.044174
0.047614
0.051235
0.055029
0.058987
0.063093
0.067328
0.071666
0.076077
0.080521
0.084954
0.089328
0.093594
0.097694
0.101576
0.105185
0.108472
0.111393
0.113914
0.116010
0.117667
0.118882
0.119671
0.120064
0.120130
0.119994
0.009606
0.009572
0.009643
0.009825
0.010120
0.010530
0.011054
0.011695
0.012455
0.013336
0.014343
0.015479
0.016747
0.018154
0.019703
0.021400
0.023249
0.025258
0.027430
0.029771
0.032287
0.034981
0.037858
0.040919
0.044166
0.047597
0.051209
0.054995
0.058945
0.063044
0.067272
0.071605
0.076010
0.080449
0.084879
0.089252
0.093516
0.097616
0.101494
0.105099
0.108379
0.111291
0.113800
0.115882
0.117524
0.118728
0.119510
0.119909
0.119992
0.119853
0.009535
0.009487
0.009559
0.009746
0.010043
0.010453
0.010975
0.011613
0.012369
0.013246
0.014247
0.015376
0.016638
0.018037
0.019577
0.021265
0.023105
0.025103
0.027265
0.029595
0.032100
0.034784
0.037650
0.040702
0.043942
0.047368
0.050978
0.054765
0.058720
0.062830
0.067074
0.071428
0.075859
0.080330
0.084798
0.089212
0.093518
0.097658
0.101575
0.105210
0.108513
0.111437
0.113948
0.116021
0.117646
0.118827
0.119584
0.119958
0.120015
0.119837
0.009317
0.009259
0.009329
0.009514
0.009811
0.010217
0.010736
0.011368
0.012116
0.012985
0.013976
0.015095
0.016344
0.017730
0.019257
0.020930
0.022755
0.024737
0.026883
0.029198
0.031688
0.034358
0.037212
0.040256
0.043489
0.046914
0.050529
0.054328
0.058304
0.062442
0.066725
0.071128
0.075618
0.080158
0.084701
0.089196
0.093585
0.097806
0.101795
0.105493
0.108842
0.111795
0.114314
0.116378
0.117977
0.119121
0.119835
0.120165
0.120179
0.119966
0.008937
0.008873
0.008939
0.009121
0.009414
0.009815
0.010325
0.010948
0.011686
0.012542
0.013520
0.014623
0.015856
0.017224
0.018732
0.020385
0.022189
0.024151
0.026276
0.028571
0.031043
0.033696
0.036538
0.039572
0.042803
0.046232
0.049859
0.053681
0.057691
0.061877
0.066222
0.070702
0.075284
0.079929
0.084587
0.089204
0.093716
0.098055
0.102154
0.105943
0.109360
0.112354
0.114886
0.116934
0.118495
0.119583
0.120233
0.120501
0.120463
0.120218
0.008390
0.008322
0.008385
0.008562
0.008847
0.009240
0.009741
0.010351
0.011075
0.011915
0.012874
0.013957
0.015169
0.016514
0.017997
0.019625
0.021404
0.023339
0.025439
0.027710
0.030159
0.032793
0.035620
0.038645
0.041875
0.045311
0.048958
0.052813
0.056871
0.061123
0.065553
0.070138
0.074845
0.079630
0.084444
0.089225
0.093903
0.098404
0.102649
0.106561
0.110070
0.113118
0.115663
0.117685
0.119187
0.120195
0.120757
0.120940
0.120837
0.120559
0.007675
0.007605
0.007664
0.007835
0.008112
0.008493
0.008981
0.009576
0.010281
0.011101
0.012038
0.013096
0.014281
0.015598
0.017051
0.018648
0.020395
0.022299
0.024367
0.026609
0.029030
0.031642
0.034450
0.037465
0.040693
0.044140
0.047810
0.051706
0.055824
0.060158
0.064693
0.069409
0.074272
0.079237
0.084248
0.089239
0.094133
0.098842
0.103278
0.107350
0.110977
0.114092
0.116648
0.118630
0.120047
0.120942
0.121380
0.121451
0.121265
0.120947
0.006794
0.006723
0.006777
0.006940
0.007207
0.007575
0.008047
0.008623
0.009307
0.010102
0.011012
0.012041
0.013194
0.014476
0.015893
0.017453
0.019161
0.021026
0.023057
0.025261
0.027650
0.030232
0.033017
0.036017
0.039240
0.042696
0.046391
0.050332
0.054518
0.058946
0.063605
0.068475
0.073526
0.078708
0.083962
0.089215
0.094377
0.099351
0.104030
0.108307
0.112084
0.115281
0.117847
0.119767
0.121064
0.121801
0.122072
0.121993
0.121698
0.121330
0.005751
0.005679
0.005727
0.005882
0.006136
0.006489
0.006942
0.007496
0.008154
0.008920
0.009798
0.010792
0.011907
0.013148
0.014523
0.016037
0.017699
0.019518
0.021502
0.023661
0.026007
0.028551
0.031305
0.034281
0.037493
0.040953
0.044670
0.048654
0.052911
0.057440
0.062236
0.067281
0.072550
0.077988
0.083532
0.089102
0.094597
0.099901
0.104886
0.109424
0.113393
0.116693
0.119265
0.121094
0.122223
0.122743
0.122786
0.122508
0.122073
0.121643
0.004550
0.004476
0.004518
0.004663
0.004903
0.005238
0.005669
0.006197
0.006826
0.007558
0.008398
0.009351
0.010421
0.011615
0.012939
0.014400
0.016007
0.017769
0.019696
0.021800
0.024092
0.026586
0.029296
0.032238
0.035426
0.038878
0.042608
0.046629
0.050952
0.055584
0.060522
0.065756
0.071267
0.076998
0.082883
0.088831
0.094730
0.100442
0.105813
0.110683
0.114898
0.118332
0.120906
0.122608
0.123504
0.123726
0.123462
0.122919
0.122300
0.121793
0.003194
0.003118
0.003155
0.003288
0.003512
0.003827
0.004232
0.004731
0.005325
0.006019
0.006816
0.007722
0.008741
0.009879
0.011143
0.012542
0.014083
0.015777
0.017635
0.019669
0.021892
0.024321
0.026971
0.029861
0.033009
0.036436
0.040161
0.044203
0.048580
0.053305
0.058383
0.063812
0.069578
0.075636
0.081910
0.088302
0.094686
0.100899
0.106754
0.112048
0.116584
0.120192
0.122768
0.124297
0.124873
0.124691
0.124012
0.123118
0.122263
0.121661
0.001690
0.001613
0.001641
0.001762
0.001968
0.002260
0.002637
0.003102
0.003658
0.004308
0.005056
0.005907
0.006867
0.007941
0.009136
0.010461
0.011925
0.013538
0.015312
0.017260
0.019398
0.021742
0.024311
0.027126
0.030209
0.033586
0.037280
0.041318
0.045724
0.050520
0.055722
0.061337
0.067359
0.073766
0.080471
0.087373
0.094329
0.101150
0.107609
0.113448
0.118405
0.122251
0.124836
0.126135
0.126279
0.125547
0.124311
0.122955
0.121797
0.121083
0.000044
-0.000036
-0.000016
0.000091
0.000277
0.000543
0.000888
0.001316
0.001829
0.002429
0.003122
0.003912
0.004804
0.005804
0.006920
0.008160
0.009533
0.011049
0.012723
0.014566
0.016597
0.018833
0.021295
0.024006
0.026993
0.030285
0.033912
0.037907
0.042303
0.047133
0.052423
0.058194
0.064453
0.071211
0.078374
0.085841
0.093458
0.101007
0.108213
0.114747
0.120263
0.124440
0.127056
0.128060
0.127627
0.126154
0.124174
0.122215
0.120678
0.119847
-0.001739
-0.001821
-0.001810
-0.001719
-0.001554
-0.001317
-0.001007
-0.000620
-0.000156
0.000390
0.001021
0.001742
0.002557
0.003474
0.004499
0.005641
0.006908
0.008312
0.009865
0.011583
0.013482
0.015582
0.017905
0.020478
0.023328
0.026491
0.030001
0.033900
0.038229
0.043031
0.048350
0.054222
0.060673
0.067732
0.075355
0.083423
0.091776
0.100174
0.108287
0.115703
0.121957
0.126599
0.129292
0.129931
0.128740
0.126277
0.123311
0.120585
0.118619
0.117651
-0.003651
-0.003735
-0.003734
-0.003660
-0.003519
-0.003313
-0.003041
-0.002700
-0.002289
-0.001804
-0.001241
-0.000597
0.000134
0.000957
0.001879
0.002909
0.004054
0.005327
0.006740
0.008308
0.010047
0.011979
0.014127
0.016517
0.019183
0.022161
0.025492
0.029223
0.033405
0.038095
0.043351
0.049228
0.055777
0.063035
0.071067
0.079721
0.088848
0.098193
0.107373
0.115877
0.123093
0.128386
0.131241
0.131449
0.129280
0.125519
0.121270
0.117637
0.115206
0.114098
-0.005683
-0.005770
-0.005779
-0.005724
-0.005609
-0.005437
-0.005206
-0.004915
-0.004561
-0.004142
-0.003655
-0.003095
-0.002459
-0.001740
-0.000933
-0.000030
0.000978
0.002101
0.003350
0.004741
0.006291
0.008018
0.009948
0.012109
0.014532
0.017258
0.020331
0.023804
0.027736
0.032195
0.037254
0.042990
0.049481
0.056794
0.065056
0.074193
0.084048
0.094364
0.104720
0.114504
0.122929
0.129119
0.132293
0.132051
0.128675
0.123256
0.117403
0.112776
0.109868
0.108702
-0.007828
-0.007917
-0.007938
-0.007902
-0.007815
-0.007679
-0.007493
-0.007255
-0.006964
-0.006617
-0.006211
-0.005744
-0.005210
-0.004606
-0.003927
-0.003164
-0.002312
-0.001359
-0.000296
0.000890
0.002216
0.003701
0.005366
0.007240
0.009356
0.011751
0.014473
0.017577
0.021128
0.025202
0.029884
0.035271
0.041469
0.048584
0.056723
0.066104
0.076483
0.087634
0.099125
0.110267
0.120105
0.127491
0.131294
0.130782
0.126116
0.118719
0.111006
0.105180
0.101995
0.100953
-0.010076
-0.010168
-0.010200
-0.010184
-0.010127
-0.010030
-0.009891
-0.009710
-0.009486
-0.009216
-0.008898
-0.008530
-0.008109
-0.007630
-0.007090
-0.006482
-0.005802
-0.005040
-0.004188
-0.003235
-0.002167
-0.000967
0.000385
0.001912
0.003646
0.005622
0.007886
0.010489
0.013499
0.016993
0.021063
0.025819
0.031386
0.037902
0.045507
0.054499
0.064917
0.076442
0.088681
0.100938
0.112178
0.121048
0.126052
0.125977
0.120572
0.111302
0.101517
0.094485
0.091176
0.090508
-0.012416
-0.012511
-0.012555
-0.012562
-0.012536
-0.012478
-0.012390
-0.012269
-0.012115
-0.011927
-0.011703
-0.011441
-0.011139
-0.010796
-0.010406
-0.009968
-0.009476
-0.008925
-0.008308
-0.007616
-0.006840
-0.005967
-0.004982
-0.003864
-0.002590
-0.001129
0.000554
0.002508
0.004789
0.007469
0.010636
0.014395
0.018878
0.024233
0.030627
0.038222
0.047680
0.058544
0.070477
0.082923
0.095007
0.105422
0.112475
0.114427
0.110229
0.100650
0.089277
0.081417
0.077593
0.077577
-0.014839
-0.014937
-0.014994
-0.015023
-0.015029
-0.015014
-0.014977
-0.014919
-0.014839
-0.014736
-0.014611
-0.014461
-0.014287
-0.014086
-0.013859
-0.013602
-0.013313
-0.012991
-0.012631
-0.012229
-0.011779
-0.011274
-0.010706
-0.010062
-0.009328
-0.008485
-0.007508
-0.006368
-0.005025
-0.003428
-0.001515
0.000797
0.003610
0.007048
0.011253
0.016367
0.022553
0.030892
0.040437
0.051061
0.062525
0.074053
0.084117
0.090568
0.091284
0.085461
0.075365
0.066880
0.062841
0.062996
-0.017334
-0.017434
-0.017504
-0.017556
-0.017595
-0.017623
-0.017640
-0.017647
-0.017643
-0.017630
-0.017606
-0.017574
-0.017532
-0.017483
-0.017425
-0.017360
-0.017289
-0.017211
-0.017128
-0.017040
-0.016947
-0.016850
-0.016747
-0.016639
-0.016523
-0.016397
-0.016259
-0.016102
-0.015920
-0.015702
-0.015437
-0.015104
-0.014680
-0.014139
-0.013462
-0.012638
-0.011644
-0.010080
-0.006122
-0.000429
0.008133
0.019863
0.033753
0.047459
0.057771
0.061760
0.058750
0.052499
0.049578
0.047577
-0.019889
-0.019991
-0.020074
-0.020150
-0.020222
-0.020294
-0.020366
-0.020439
-0.020513
-0.020590
-0.020672
-0.020760
-0.020856
-0.020963
-0.021082
-0.021218
-0.021374
-0.021555
-0.021765
-0.022012
-0.022302
-0.022645
-0.023050
-0.023532
-0.024106
-0.024791
-0.025614
-0.026605
-0.027807
-0.029274
-0.031078
-0.033315
-0.036122
-0.039689
-0.044274
-0.050151
-0.057395
-0.065495
-0.072488
-0.075227
-0.071953
-0.061053
-0.042939
-0.019971
0.003869
0.023659
0.035069
0.037351
0.036238
0.028868
-0.022493
-0.022598
-0.022693
-0.022792
-0.022898
-0.023013
-0.023140
-0.023279
-0.023432
-0.023602
-0.023790
-0.024001
-0.024236
-0.024502
-0.024803
-0.025145
-0.025536
-0.025984
-0.026500
-0.027097
-0.027790
-0.028598
-0.029545
-0.030661
-0.031983
-0.033558
-0.035449
-0.037735
-0.040525
-0.043964
-0.048253
-0.053672
-0.060625
-0.069682
-0.081574
-0.096978
-0.115946
-0.137132
-0.157504
-0.171852
-0.175548
-0.166272
-0.144166
-0.111542
-0.072629
-0.033586
-0.002230
0.014034
0.013442
0.003574
-0.025134
-0.025241
-0.025349
-0.025470
-0.025609
-0.025768
-0.025949
-0.026154
-0.026385
-0.026646
-0.026941
-0.027273
-0.027650
-0.028076
-0.028560
-0.029110
-0.029739
-0.030459
-0.031286
-0.032242
-0.033349
-0.034639
-0.036150
-0.037929
-0.040039
-0.042559
-0.045596
-0.049288
-0.053827
-0.059477
-0.066610
-0.075768
-0.087740
-0.103640
-0.124810
-0.152298
-0.185779
-0.222455
-0.257051
-0.283408
-0.294332
-0.286913
-0.261535
-0.220580
-0.168020
-0.110026
-0.056442
-0.020895
-0.013285
-0.016917
-0.027801
-0.027910
-0.028030
-0.028172
-0.028343
-0.028544
-0.028777
-0.029046
-0.029354
-0.029705
-0.030104
-0.030557
-0.031072
-0.031657
-0.032321
-0.033079
-0.033945
-0.034936
-0.036075
-0.037390
-0.038914
-0.040689
-0.042769
-0.045222
-0.048137
-0.051627
-0.055847
-0.061005
-0.067386
-0.075392
-0.085609
-0.098895
-0.116521
-0.140232
-0.171991
-0.213018
-0.262188
-0.314816
-0.363281
-0.399592
-0.416484
-0.410415
-0.382504
-0.335504
-0.272908
-0.199518
-0.124215
-0.062721
-0.031557
-0.023442
-0.030482
-0.030592
-0.030724
-0.030887
-0.031087
-0.031327
-0.031611
-0.031941
-0.032322
-0.032760
-0.033260
-0.033829
-0.034478
-0.035217
-0.036058
-0.037017
-0.038114
-0.039370
-0.040814
-0.042480
-0.044412
-0.046663
-0.049303
-0.052418
-0.056125
-0.060574
-0.065967
-0.072581
-0.080803
-0.091182
-0.104526
-0.122040
-0.145488
-0.177229
-0.219730
-0.274136
-0.338241
-0.405361
-0.465675
-0.509617
-0.530361
-0.524608
-0.494476
-0.443565
-0.375251
-0.292283
-0.199921
-0.111928
-0.051115
-0.030274
-0.033167
-0.033279
-0.033420
-0.033601
-0.033829
-0.034106
-0.034436
-0.034824
-0.035274
-0.035792
-0.036387
-0.037068
-0.037844
-0.038729
-0.039738
-0.040889
-0.042206
-0.043715
-0.045449
-0.047451
-0.049771
-0.052476
-0.055646
-0.059391
-0.063848
-0.069202
-0.075702
-0.083689
-0.093642
-0.106247
-0.122521
-0.143975
-0.172801
-0.211850
-0.263911
-0.329910
-0.406578
-0.485490
-0.555013
-0.604395
-0.627223
-0.620803
-0.588295
-0.534714
-0.464280
-0.378303
-0.277543
-0.171301
-0.086534
-0.054231
-0.035844
-0.035958
-0.036108
-0.036306
-0.036557
-0.036867
-0.037239
-0.037678
-0.038191
-0.038784
-0.039467
-0.040249
-0.041144
-0.042165
-0.043330
-0.044661
-0.046183
-0.047926
-0.049930
-0.052242
-0.054921
-0.058042
-0.061699
-0.066016
-0.071152
-0.077320
-0.084806
-0.094004
-0.105466
-0.119988
-0.138737
-0.163446
-0.196591
-0.241313
-0.300554
-0.375027
-0.460743
-0.548126
-0.624285
-0.677529
-0.701681
-0.694152
-0.659031
-0.603185
-0.532771
-0.449166
-0.349402
-0.236958
-0.138768
-0.098138
-0.038506
-0.038621
-0.038778
-0.038989
-0.039260
-0.039598
-0.040006
-0.040490
-0.041058
-0.041718
-0.042479
-0.043354
-0.044355
-0.045499
-0.046806
-0.048299
-0.050006
-0.051962
-0.054208
-0.056798
-0.059797
-0.063285
-0.067369
-0.072182
-0.077899
-0.084754
-0.093058
-0.103239
-0.115894
-0.131880
-0.152441
-0.179400
-0.215324
-0.263409
-0.326584
-0.405478
-0.495937
-0.588076
-0.668459
-0.724613
-0.750020
-0.741611
-0.704133
-0.646381
-0.577041
-0.499050
-0.407451
-0.299845
-0.199176
-0.154478
-0.041144
-0.041259
-0.041422
-0.041643
-0.041929
-0.042288
-0.042725
-0.043247
-0.043861
-0.044577
-0.045406
-0.046360
-0.047454
-0.048706
-0.050137
-0.051772
-0.053642
-0.055782
-0.058240
-0.061069
-0.064339
-0.068138
-0.072575
-0.077793
-0.083974
-0.091362
-0.100281
-0.111169
-0.124637
-0.141547
-0.163131
-0.191163
-0.228098
-0.276928
-0.340376
-0.419103
-0.509392
-0.601996
-0.683791
-0.741758
-0.768385
-0.759923
-0.721389
-0.662996
-0.595748
-0.524921
-0.445488
-0.350412
-0.256272
-0.211782
-0.043751
-0.043867
-0.044033
-0.044259
-0.044555
-0.044928
-0.045386
-0.045935
-0.046586
-0.047347
-0.048230
-0.049250
-0.050421
-0.051764
-0.053299
-0.055054
-0.057060
-0.059355
-0.061987
-0.065012
-0.068502
-0.072546
-0.077256
-0.082777
-0.089293
-0.097047
-0.106358
-0.117658
-0.131534
-0.148803
-0.170609
-0.198544
-0.234794
-0.281878
-0.342033
-0.415926
-0.500751
-0.588780
-0.668144
-0.725872
-0.753157
-0.746084
-0.709124
-0.652560
-0.589037
-0.526241
-0.460379
-0.381841
-0.300300
-0.259552
-0.046322
-0.046439
-0.046605
-0.046831
-0.047129
-0.047509
-0.047977
-0.048544
-0.049219
-0.050012
-0.050936
-0.052006
-0.053238
-0.054652
-0.056271
-0.058121
-0.060235
-0.062652
-0.065419
-0.068594
-0.072249
-0.076470
-0.081370
-0.087089
-0.093807
-0.101755
-0.111238
-0.122658
-0.136551
-0.153656
-0.174979
-0.201793
-0.235791
-0.279096
-0.333628
-0.399978
-0.475826
-0.554637
-0.626094
-0.678536
-0.703129
-0.697602
-0.665068
-0.615122
-0.558743
-0.504753
-0.452218
-0.391313
-0.325552
-0.290989
-0.048853
-0.048972
-0.049135
-0.049356
-0.049648
-0.050024
-0.050492
-0.051064
-0.051749
-0.052560
-0.053509
-0.054613
-0.055887
-0.057353
-0.059032
-0.060953
-0.063146
-0.065652
-0.068516
-0.071795
-0.075557
-0.079889
-0.084896
-0.090711
-0.097502
-0.105484
-0.114931
-0.126210
-0.139773
-0.156192
-0.176290
-0.201130
-0.232020
-0.270517
-0.318035
-0.374974
-0.439413
-0.506015
-0.566225
-0.610148
-0.629916
-0.624860
-0.597286
-0.554946
-0.507556
-0.463586
-0.423877
-0.379840
-0.330701
-0.303632
-0.051345
-0.051465
-0.051622
-0.051830
-0.052107
-0.052467
-0.052923
-0.053485
-0.054167
-0.054980
-0.055938
-0.057058
-0.058356
-0.059852
-0.061570
-0.063535
-0.065780
-0.068341
-0.071263
-0.074600
-0.078418
-0.082796
-0.087832
-0.093649
-0.100397
-0.108271
-0.117496
-0.128351
-0.141239
-0.156635
-0.175152
-0.197567
-0.224820
-0.257965
-0.297906
-0.344775
-0.396954
-0.450224
-0.497841
-0.531964
-0.546249
-0.540888
-0.517782
-0.482984
-0.444388
-0.409188
-0.380794
-0.351456
-0.317983
-0.298684
-0.053800
-0.053922
-0.054067
-0.054254
-0.054505
-0.054836
-0.055264
-0.055802
-0.056464
-0.057262
-0.058212
-0.059329
-0.060632
-0.062138
-0.063872
-0.065857
-0.068125
-0.070710
-0.073655
-0.077009
-0.080833
-0.085199
-0.090196
-0.095932
-0.102537
-0.110147
-0.118977
-0.129262
-0.141301
-0.155452
-0.172156
-0.191940
-0.215408
-0.243188
-0.275742
-0.312944
-0.353410
-0.393903
-0.429364
-0.453976
-0.463001
-0.456884
-0.437257
-0.408805
-0.377768
-0.350164
-0.329645
-0.311858
-0.291901
-0.279783
-0.056224
-0.056348
-0.056477
-0.056633
-0.056842
-0.057129
-0.057512
-0.058009
-0.058632
-0.059398
-0.060322
-0.061418
-0.062706
-0.064203
-0.065930
-0.067913
-0.070178
-0.072759
-0.075693
-0.079027
-0.082814
-0.087119
-0.092019
-0.097594
-0.103950
-0.111225
-0.119572
-0.129175
-0.140252
-0.153055
-0.167873
-0.185030
-0.204860
-0.227658
-0.253546
-0.282201
-0.312438
-0.341823
-0.366722
-0.383041
-0.387533
-0.380465
-0.363311
-0.339690
-0.314471
-0.292569
-0.277482
-0.267669
-0.257998
-0.251732
-0.058629
-0.058756
-0.058861
-0.058971
-0.059122
-0.059346
-0.059665
-0.060100
-0.060667
-0.061381
-0.062260
-0.063318
-0.064572
-0.066040
-0.067742
-0.069700
-0.071940
-0.074491
-0.077387
-0.080669
-0.084383
-0.088586
-0.093329
-0.098688
-0.104756
-0.111634
-0.119440
-0.128306
-0.138380
-0.149826
-0.162812
-0.177503
-0.194033
-0.212464
-0.232687
-0.254264
-0.276177
-0.296625
-0.313073
-0.322769
-0.323622
-0.315676
-0.300243
-0.280127
-0.259113
-0.241163
-0.229433
-0.224505
-0.221532
-0.219351
-0.061031
-0.061161
-0.061233
-0.061281
-0.061353
-0.061490
-0.061722
-0.062073
-0.062562
-0.063206
-0.064020
-0.065021
-0.066225
-0.067647
-0.069305
-0.071221
-0.073415
-0.075915
-0.078749
-0.081954
-0.085568
-0.089628
-0.094183
-0.099300
-0.105047
-0.111499
-0.118740
-0.126860
-0.135951
-0.146103
-0.157395
-0.169877
-0.183548
-0.198320
-0.213952
-0.229958
-0.245476
-0.259173
-0.269314
-0.274104
-0.272270
-0.263708
-0.249557
-0.232008
-0.214003
-0.198723
-0.188894
-0.186305
-0.186668
-0.186683
-0.063456
-0.063591
-0.063616
-0.063578
-0.063543
-0.063565
-0.063684
-0.063926
-0.064314
-0.064866
-0.065598
-0.066525
-0.067661
-0.069022
-0.070622
-0.072478
-0.074611
-0.077043
-0.079798
-0.082907
-0.086398
-0.090293
-0.094647
-0.099504
-0.104917
-0.110937
-0.117620
-0.125022
-0.133190
-0.142161
-0.151948
-0.162525
-0.173808
-0.185624
-0.197671
-0.209467
-0.220292
-0.229156
-0.234870
-0.236285
-0.232661
-0.223841
-0.210795
-0.195252
-0.179524
-0.166170
-0.157447
-0.155288
-0.156141
-0.156536
-0.065942
-0.066082
-0.066040
-0.065885
-0.065707
-0.065579
-0.065550
-0.065655
-0.065917
-0.066356
-0.066988
-0.067825
-0.068880
-0.070166
-0.071695
-0.073481
-0.075540
-0.077891
-0.080555
-0.083556
-0.086905
-0.090632
-0.094776
-0.099372
-0.104453
-0.110055
-0.116211
-0.122948
-0.130283
-0.138213
-0.146707
-0.155693
-0.165041
-0.174537
-0.183869
-0.192588
-0.200099
-0.205657
-0.208441
-0.207714
-0.203066
-0.194349
-0.182385
-0.168560
-0.154727
-0.142972
-0.135097
-0.132105
-0.131170
-0.130242
-0.068543
-0.068686
-0.068550
-0.068233
-0.067863
-0.067538
-0.067323
-0.067257
-0.067367
-0.067672
-0.068186
-0.068920
-0.069882
-0.071083
-0.072531
-0.074237
-0.076215
-0.078478
-0.081042
-0.083928
-0.087132
-0.090690
-0.094628
-0.098968
-0.103735
-0.108948
-0.114623
-0.120767
-0.127373
-0.134413
-0.141829
-0.149524
-0.157344
-0.165070
-0.172397
-0.178930
-0.184177
-0.187571
-0.188532
-0.186580
-0.181504
-0.173186
-0.162332
-0.150072
-0.137927
-0.127642
-0.120650
-0.116138
-0.111479
-0.107435
-0.071340
-0.071484
-0.071205
-0.070660
-0.070031
-0.069451
-0.069001
-0.068727
-0.068657
-0.068807
-0.069188
-0.069807
-0.070668
-0.071776
-0.073138
-0.074760
-0.076651
-0.078822
-0.081285
-0.084053
-0.087116
-0.090510
-0.094251
-0.098354
-0.102833
-0.107696
-0.112947
-0.118578
-0.124566
-0.130868
-0.137411
-0.144085
-0.150732
-0.157138
-0.163025
-0.168047
-0.171799
-0.173842
-0.173752
-0.171207
-0.166097
-0.158414
-0.148681
-0.137858
-0.127220
-0.118239
-0.112047
-0.105896
-0.095259
-0.085576
-0.074458
-0.074590
-0.074092
-0.073219
-0.072236
-0.071323
-0.070580
-0.070056
-0.069778
-0.069754
-0.069990
-0.070485
-0.071239
-0.072252
-0.073524
-0.075060
-0.076864
-0.078943
-0.081306
-0.083961
-0.086892
-0.090132
-0.093693
-0.097582
-0.101805
-0.106365
-0.111254
-0.116455
-0.121936
-0.127644
-0.133501
-0.139392
-0.145164
-0.150616
-0.155498
-0.159510
-0.162318
-0.163572
-0.162951
-0.160226
-0.155336
-0.148437
-0.139764
-0.130219
-0.120854
-0.112833
-0.106640
-0.099331
-0.078672
-0.058648
-0.078096
-0.078186
-0.077335
-0.075972
-0.074499
-0.073153
-0.072048
-0.071231
-0.070717
-0.070504
-0.070587
-0.070955
-0.071600
-0.072517
-0.073701
-0.075152
-0.076872
-0.078863
-0.081130
-0.083680
-0.086489
-0.089591
-0.092992
-0.096695
-0.100701
-0.105006
-0.109597
-0.114451
-0.119531
-0.124780
-0.130116
-0.135429
-0.140572
-0.145361
-0.149571
-0.152944
-0.155196
-0.156042
-0.155231
-0.152589
-0.148084
-0.141884
-0.134251
-0.125793
-0.117438
-0.110004
-0.103151
-0.091950
-0.053969
-0.013915
-0.082592
-0.082564
-0.081105
-0.078993
-0.076833
-0.074926
-0.073382
-0.072228
-0.071455
-0.071044
-0.070971
-0.071215
-0.071756
-0.072580
-0.073680
-0.075050
-0.076691
-0.078600
-0.080780
-0.083234
-0.085936
-0.088918
-0.092183
-0.095731
-0.099559
-0.103659
-0.108015
-0.112602
-0.117380
-0.122289
-0.127252
-0.132159
-0.136876
-0.141231
-0.145025
-0.148028
-0.149997
-0.150693
-0.149906
-0.147496
-0.143437
-0.137853
-0.131058
-0.123486
-0.115768
-0.108275
-0.098576
-0.076012
-0.006364
0.075211
-0.088570
-0.088221
-0.085645
-0.082344
-0.079218
-0.076600
-0.074540
-0.073012
-0.071969
-0.071360
-0.071137
-0.071264
-0.071709
-0.072448
-0.073469
-0.074767
-0.076336
-0.078174
-0.080275
-0.082642
-0.085255
-0.088139
-0.091294
-0.094718
-0.098407
-0.102352
-0.106534
-0.110928
-0.115493
-0.120170
-0.124884
-0.129531
-0.133984
-0.138085
-0.141653
-0.144481
-0.146354
-0.147061
-0.146422
-0.144312
-0.140694
-0.135650
-0.129391
-0.122240
-0.114564
-0.105913
-0.088366
-0.034420
0.097541
0.265156
-0.097333
-0.096052
-0.091255
-0.086020
-0.081561
-0.078088
-0.075449
-0.073525
-0.072215
-0.071418
-0.071060
-0.071084
-0.071450
-0.072111
-0.073060
-0.074293
-0.075802
-0.077587
-0.079615
-0.081905
-0.084452
-0.087260
-0.090332
-0.093665
-0.097255
-0.101091
-0.105157
-0.109424
-0.113853
-0.118388
-0.122954
-0.127453
-0.131765
-0.135742
-0.139214
-0.141991
-0.143875
-0.144674
-0.144221
-0.142397
-0.139147
-0.134492
-0.128507
-0.121194
-0.112277
-0.099582
-0.062313
0.057960
0.340502
0.676829
-0.112229
-0.107894
-0.098179
-0.089811
-0.083591
-0.079192
-0.075926
-0.073587
-0.072022
-0.071059
-0.070583
-0.070524
-0.070843
-0.071423
-0.072324
-0.073513
-0.074974
-0.076702
-0.078686
-0.080928
-0.083429
-0.086188
-0.089208
-0.092486
-0.096017
-0.099792
-0.103791
-0.107988
-0.112344
-0.116804
-0.121295
-0.125722
-0.129968
-0.133893
-0.137333
-0.140108
-0.142030
-0.142919
-0.142611
-0.140984
-0.137952
-0.133443
-0.127297
-0.118855
-0.106574
-0.079564
0.009787
0.273442
0.852389
1.555414
-0.142137
-0.125981
-0.106287
-0.092409
-0.083712
-0.078440
-0.074434
-0.071897
-0.070205
-0.069163
-0.068647
-0.068571
-0.068868
-0.069475
-0.070395
-0.071603
-0.073084
-0.074828
-0.076831
-0.079089
-0.081604
-0.084376
-0.087405
-0.090689
-0.094223
-0.097996
-0.101990
-0.106178
-0.110520
-0.114962
-0.119431
-0.123835
-0.128056
-0.131959
-0.135384
-0.138156
-0.140096
-0.141026
-0.140784
-0.139230
-0.136206
-0.131451
-0.124175
-0.112191
-0.089533
-0.017191
0.192654
0.729482
1.820284
3.219864
-0.245928
-0.108556
-0.078255
-0.068430
-0.064129
-0.061983
-0.060657
-0.060011
-0.059772
-0.059870
-0.060271
-0.060947
-0.061871
-0.063020
-0.064401
-0.066010
-0.067841
-0.069895
-0.072173
-0.074678
-0.077414
-0.080385
-0.083593
-0.087039
-0.090718
-0.094621
-0.098731
-0.103022
-0.107454
-0.111972
-0.116505
-0.120960
-0.125224
-0.129160
-0.132613
-0.135413
-0.137384
-0.138350
-0.138143
-0.136585
-0.133374
-0.127815
-0.117509
-0.095267
-0.034470
0.124322
0.519190
1.407333
3.076989
5.295046
