# vtk DataFile Version 3.0
Vector Field
ASCII
DATASET RECTILINEAR_GRID
DIMENSIONS 50 50 1
X_COORDINATES 50 double
0.100000 0.300000 0.500000 0.700000 0.900000 1.100000 1.300000 1.500000 1.700000 1.900000 2.100000 2.300000 2.500000 2.700000 2.900000 3.100000 3.300000 3.500000 3.700000 3.900000 4.100000 4.300000 4.500000 4.700000 4.900000 5.100000 5.300000 5.500000 5.700000 5.900000 6.100000 6.300000 6.500000 6.700000 6.900000 7.100000 7.300000 7.500000 7.700000 7.900000 8.100000 8.300000 8.500000 8.700000 8.900000 9.100000 9.300000 9.500000 9.700000 9.900000 
Y_COORDINATES 50 double
0.100000 0.300000 0.500000 0.700000 0.900000 1.100000 1.300000 1.500000 1.700000 1.900000 2.100000 2.300000 2.500000 2.700000 2.900000 3.100000 3.300000 3.500000 3.700000 3.900000 4.100000 4.300000 4.500000 4.700000 4.900000 5.100000 5.300000 5.500000 5.700000 5.900000 6.100000 6.300000 6.500000 6.700000 6.900000 7.100000 7.300000 7.500000 7.700000 7.900000 8.100000 8.300000 8.500000 8.700000 8.900000 9.100000 9.300000 9.500000 9.700000 9.900000 
Z_COORDINATES 1 double
0.0
POINT_DATA 2500
VECTORS Vektorfeld double
-0.000222 0.000222 0.0
-0.001015 0.000572 0.0
-0.002322 0.000736 0.0
-0.003855 0.000797 0.0
-0.005468 0.000816 0.0
-0.007105 0.000821 0.0
-0.008750 0.000825 0.0
-0.010403 0.000829 0.0
-0.012065 0.000833 0.0
-0.013738 0.000839 0.0
-0.015422 0.000845 0.0
-0.017117 0.000851 0.0
-0.018823 0.000856 0.0
-0.020539 0.000860 0.0
-0.022263 0.000864 0.0
-0.023992 0.000865 0.0
-0.025721 0.000865 0.0
-0.027447 0.000861 0.0
-0.029163 0.000855 0.0
-0.030861 0.000844 0.0
-0.032533 0.000828 0.0
-0.034166 0.000806 0.0
-0.035750 0.000777 0.0
-0.037268 0.000741 0.0
-0.038705 0.000696 0.0
-0.040042 0.000641 0.0
-0.041258 0.000575 0.0
-0.042330 0.000497 0.0
-0.043234 0.000407 0.0
-0.043946 0.000304 0.0
-0.044439 0.000189 0.0
-0.044688 0.000060 0.0
-0.044669 -0.000080 0.0
-0.044355 -0.000235 0.0
-0.043719 -0.000401 0.0
-0.042740 -0.000577 0.0
-0.041403 -0.000760 0.0
-0.039698 -0.000946 0.0
-0.037621 -0.001131 0.0
-0.035178 -0.001312 0.0
-0.032380 -0.001485 0.0
-0.029250 -0.001645 0.0
-0.025816 -0.001789 0.0
-0.022117 -0.001911 0.0
-0.018200 -0.002006 0.0
-0.014134 -0.002060 0.0
-0.010028 -0.002046 0.0
-0.006082 -0.001899 0.0
-0.002696 -0.001487 0.0
-0.000605 -0.000605 0.0
-0.000596 0.001039 0.0
-0.002377 0.002329 0.0
-0.005031 0.002940 0.0
-0.008088 0.003183 0.0
-0.011312 0.003266 0.0
-0.014597 0.003293 0.0
-0.017905 0.003306 0.0
-0.021223 0.003318 0.0
-0.024548 0.003331 0.0
-0.027880 0.003345 0.0
-0.031217 0.003359 0.0
-0.034557 0.003372 0.0
-0.037897 0.003381 0.0
-0.041233 0.003387 0.0
-0.044559 0.003387 0.0
-0.047867 0.003379 0.0
-0.051150 0.003362 0.0
-0.054395 0.003334 0.0
-0.057589 0.003292 0.0
-0.060717 0.003233 0.0
-0.063762 0.003154 0.0
-0.066701 0.003052 0.0
-0.069511 0.002925 0.0
-0.072165 0.002767 0.0
-0.074634 0.002576 0.0
-0.076883 0.002347 0.0
-0.078878 0.002079 0.0
-0.080579 0.001767 0.0
-0.081947 0.001410 0.0
-0.082939 0.001006 0.0
-0.083513 0.000555 0.0
-0.083627 0.000057 0.0
-0.083237 -0.000486 0.0
-0.082305 -0.001075 0.0
-0.080797 -0.001704 0.0
-0.078688 -0.002362 0.0
-0.075959 -0.003041 0.0
-0.072601 -0.003728 0.0
-0.068616 -0.004411 0.0
-0.064017 -0.005075 0.0
-0.058831 -0.005706 0.0
-0.053095 -0.006290 0.0
-0.046860 -0.006812 0.0
-0.040192 -0.007255 0.0
-0.033175 -0.007595 0.0
-0.025928 -0.007784 0.0
-0.018637 -0.007720 0.0
-0.011627 -0.007181 0.0
-0.005501 -0.005718 0.0
-0.001378 -0.002588 0.0
-0.000794 0.002428 0.0
-0.003101 0.005028 0.0
-0.006451 0.006245 0.0
-0.010262 0.006746 0.0
-0.014265 0.006929 0.0
-0.018341 0.006991 0.0
-0.022443 0.007017 0.0
-0.026553 0.007035 0.0
-0.030666 0.007052 0.0
-0.034777 0.007067 0.0
-0.038883 0.007080 0.0
-0.042980 0.007088 0.0
-0.047064 0.007088 0.0
-0.051127 0.007079 0.0
-0.055161 0.007055 0.0
-0.059158 0.007016 0.0
-0.063104 0.006955 0.0
-0.066987 0.006869 0.0
-0.070790 0.006754 0.0
-0.074493 0.006603 0.0
-0.078075 0.006411 0.0
-0.081511 0.006171 0.0
-0.084772 0.005878 0.0
-0.087828 0.005524 0.0
-0.090643 0.005102 0.0
-0.093179 0.004606 0.0
-0.095395 0.004030 0.0
-0.097247 0.003369 0.0
-0.098689 0.002618 0.0
-0.099673 0.001774 0.0
-0.100152 0.000839 0.0
-0.100076 -0.000188 0.0
-0.099402 -0.001305 0.0
-0.098089 -0.002502 0.0
-0.096106 -0.003769 0.0
-0.093425 -0.005088 0.0
-0.090029 -0.006440 0.0
-0.085912 -0.007804 0.0
-0.081079 -0.009153 0.0
-0.075549 -0.010461 0.0
-0.069355 -0.011701 0.0
-0.062542 -0.012844 0.0
-0.055170 -0.013864 0.0
-0.047317 -0.014725 0.0
-0.039079 -0.015380 0.0
-0.030593 -0.015733 0.0
-0.022066 -0.015589 0.0
-0.013853 -0.014533 0.0
-0.006620 -0.011724 0.0
-0.001679 -0.005645 0.0
-0.000881 0.004104 0.0
-0.003434 0.008212 0.0
-0.007119 0.010096 0.0
-0.011288 0.010876 0.0
-0.015652 0.011166 0.0
-0.020088 0.011267 0.0
-0.024549 0.011305 0.0
-0.029016 0.011325 0.0
-0.033481 0.011339 0.0
-0.037939 0.011349 0.0
-0.042387 0.011352 0.0
-0.046818 0.011345 0.0
-0.051227 0.011324 0.0
-0.055607 0.011285 0.0
-0.059948 0.011224 0.0
-0.064240 0.011135 0.0
-0.068470 0.011012 0.0
-0.072623 0.010848 0.0
-0.076682 0.010636 0.0
-0.080627 0.010368 0.0
-0.084434 0.010035 0.0
-0.088078 0.009626 0.0
-0.091528 0.009134 0.0
-0.094751 0.008547 0.0
-0.097712 0.007855 0.0
-0.100370 0.007048 0.0
-0.102682 0.006117 0.0
-0.104603 0.005054 0.0
-0.106083 0.003854 0.0
-0.107073 0.002512 0.0
-0.107522 0.001028 0.0
-0.107380 -0.000595 0.0
-0.106601 -0.002351 0.0
-0.105144 -0.004225 0.0
-0.102974 -0.006200 0.0
-0.100061 -0.008251 0.0
-0.096386 -0.010347 0.0
-0.091944 -0.012456 0.0
-0.086739 -0.014538 0.0
-0.080792 -0.016553 0.0
-0.074139 -0.018458 0.0
-0.066829 -0.020211 0.0
-0.058928 -0.021769 0.0
-0.050521 -0.023081 0.0
-0.041713 -0.024070 0.0
-0.032648 -0.024594 0.0
-0.023543 -0.024360 0.0
-0.014772 -0.022746 0.0
-0.007042 -0.018475 0.0
-0.001778 -0.009102 0.0
-0.000913 0.005898 0.0
-0.003565 0.011623 0.0
-0.007398 0.014203 0.0
-0.011725 0.015265 0.0
-0.016247 0.015662 0.0
-0.020838 0.015799 0.0
-0.025452 0.015847 0.0
-0.030071 0.015868 0.0
-0.034686 0.015877 0.0
-0.039293 0.015877 0.0
-0.043888 0.015866 0.0
-0.048465 0.015839 0.0
-0.053018 0.015792 0.0
-0.057539 0.015719 0.0
-0.062020 0.015613 0.0
-0.066450 0.015468 0.0
-0.070817 0.015276 0.0
-0.075105 0.015026 0.0
-0.079297 0.014710 0.0
-0.083374 0.014316 0.0
-0.087312 0.013832 0.0
-0.091085 0.013245 0.0
-0.094663 0.012543 0.0
-0.098013 0.011711 0.0
-0.101097 0.010736 0.0
-0.103877 0.009604 0.0
-0.106306 0.008302 0.0
-0.108338 0.006821 0.0
-0.109922 0.005152 0.0
-0.111006 0.003289 0.0
-0.111536 0.001232 0.0
-0.111461 -0.001016 0.0
-0.110728 -0.003441 0.0
-0.109292 -0.006028 0.0
-0.107110 -0.008750 0.0
-0.104150 -0.011574 0.0
-0.100388 -0.014460 0.0
-0.095812 -0.017361 0.0
-0.090427 -0.020223 0.0
-0.084251 -0.022990 0.0
-0.077322 -0.025603 0.0
-0.069693 -0.028004 0.0
-0.061438 -0.030132 0.0
-0.052646 -0.031917 0.0
-0.043433 -0.033254 0.0
-0.033955 -0.033953 0.0
-0.024444 -0.033617 0.0
-0.015293 -0.031410 0.0
-0.007253 -0.025580 0.0
-0.001818 -0.012697 0.0
-0.000921 0.007732 0.0
-0.003606 0.015127 0.0
-0.007494 0.018421 0.0
-0.011886 0.019767 0.0
-0.016473 0.020268 0.0
-0.021128 0.020440 0.0
-0.025806 0.020498 0.0
-0.030487 0.020518 0.0
-0.035167 0.020522 0.0
-0.039840 0.020513 0.0
-0.044502 0.020487 0.0
-0.049148 0.020441 0.0
-0.053774 0.020368 0.0
-0.058371 0.020261 0.0
-0.062932 0.020113 0.0
-0.067446 0.019913 0.0
-0.071902 0.019653 0.0
-0.076286 0.019321 0.0
-0.080581 0.018903 0.0
-0.084769 0.018387 0.0
-0.088826 0.017756 0.0
-0.092727 0.016995 0.0
-0.096443 0.016087 0.0
-0.099941 0.015015 0.0
-0.103184 0.013760 0.0
-0.106130 0.012305 0.0
-0.108734 0.010634 0.0
-0.110947 0.008734 0.0
-0.112715 0.006592 0.0
-0.113983 0.004201 0.0
-0.114694 0.001560 0.0
-0.114787 -0.001326 0.0
-0.114207 -0.004444 0.0
-0.112898 -0.007771 0.0
-0.110809 -0.011276 0.0
-0.107900 -0.014917 0.0
-0.104138 -0.018642 0.0
-0.099506 -0.022387 0.0
-0.094003 -0.026085 0.0
-0.087646 -0.029660 0.0
-0.080473 -0.033035 0.0
-0.072541 -0.036132 0.0
-0.063932 -0.038869 0.0
-0.054748 -0.041156 0.0
-0.045117 -0.042858 0.0
-0.035211 -0.043732 0.0
-0.025285 -0.043277 0.0
-0.015761 -0.040425 0.0
-0.007433 -0.032933 0.0
-0.001849 -0.016363 0.0
-0.000920 0.009573 0.0
-0.003609 0.018660 0.0
-0.007514 0.022680 0.0
-0.011930 0.024315 0.0
-0.016542 0.024919 0.0
-0.021224 0.025125 0.0
-0.025929 0.025193 0.0
-0.030639 0.025215 0.0
-0.035350 0.025215 0.0
-0.040058 0.025199 0.0
-0.044758 0.025163 0.0
-0.049448 0.025102 0.0
-0.054123 0.025007 0.0
-0.058776 0.024872 0.0
-0.063400 0.024687 0.0
-0.067987 0.024440 0.0
-0.072525 0.024121 0.0
-0.077003 0.023715 0.0
-0.081405 0.023206 0.0
-0.085713 0.022579 0.0
-0.089905 0.021814 0.0
-0.093958 0.020892 0.0
-0.097843 0.019792 0.0
-0.101527 0.018492 0.0
-0.104973 0.016971 0.0
-0.108140 0.015206 0.0
-0.110980 0.013177 0.0
-0.113442 0.010865 0.0
-0.115469 0.008255 0.0
-0.117000 0.005337 0.0
-0.117972 0.002106 0.0
-0.118318 -0.001432 0.0
-0.117972 -0.005265 0.0
-0.116866 -0.009365 0.0
-0.114941 -0.013696 0.0
-0.112143 -0.018206 0.0
-0.108428 -0.022829 0.0
-0.103771 -0.027489 0.0
-0.098162 -0.032096 0.0
-0.091615 -0.036554 0.0
-0.084168 -0.040762 0.0
-0.075886 -0.044619 0.0
-0.066858 -0.048019 0.0
-0.057202 -0.050846 0.0
-0.047069 -0.052932 0.0
-0.036653 -0.053979 0.0
-0.026238 -0.053372 0.0
-0.016284 -0.049807 0.0
-0.007632 -0.040531 0.0
-0.001884 -0.020096 0.0
-0.000915 0.011408 0.0
-0.003599 0.022198 0.0
-0.007504 0.026953 0.0
-0.011927 0.028880 0.0
-0.016549 0.029590 0.0
-0.021243 0.029831 0.0
-0.025962 0.029911 0.0
-0.030690 0.029936 0.0
-0.035421 0.029937 0.0
-0.040153 0.029918 0.0
-0.044884 0.029876 0.0
-0.049611 0.029805 0.0
-0.054330 0.029697 0.0
-0.059036 0.029542 0.0
-0.063724 0.029329 0.0
-0.068386 0.029047 0.0
-0.073014 0.028681 0.0
-0.077595 0.028214 0.0
-0.082117 0.027630 0.0
-0.086563 0.026909 0.0
-0.090915 0.026028 0.0
-0.095148 0.024964 0.0
-0.099236 0.023692 0.0
-0.103146 0.022187 0.0
-0.106842 0.020419 0.0
-0.110282 0.018364 0.0
-0.113416 0.015994 0.0
-0.116192 0.013285 0.0
-0.118547 0.010217 0.0
-0.120415 0.006775 0.0
-0.121725 0.002950 0.0
-0.122401 -0.001254 0.0
-0.122363 -0.005827 0.0
-0.121533 -0.010738 0.0
-0.119835 -0.015946 0.0
-0.117200 -0.021390 0.0
-0.113570 -0.026990 0.0
-0.108905 -0.032651 0.0
-0.103186 -0.038262 0.0
-0.096420 -0.043700 0.0
-0.088646 -0.048836 0.0
-0.079934 -0.053538 0.0
-0.070390 -0.057672 0.0
-0.060151 -0.061087 0.0
-0.049397 -0.063579 0.0
-0.038356 -0.064788 0.0
-0.027350 -0.063984 0.0
-0.016885 -0.059614 0.0
-0.007855 -0.048407 0.0
-0.001921 -0.023902 0.0
-0.000909 0.013232 0.0
-0.003582 0.025730 0.0
-0.007482 0.031227 0.0
-0.011905 0.033450 0.0
-0.016531 0.034268 0.0
-0.021232 0.034548 0.0
-0.025961 0.034641 0.0
-0.030702 0.034673 0.0
-0.035450 0.034679 0.0
-0.040205 0.034663 0.0
-0.044965 0.034622 0.0
-0.049729 0.034549 0.0
-0.054493 0.034436 0.0
-0.059256 0.034271 0.0
-0.064012 0.034044 0.0
-0.068756 0.033739 0.0
-0.073482 0.033341 0.0
-0.078179 0.032832 0.0
-0.082837 0.032192 0.0
-0.087441 0.031397 0.0
-0.091975 0.030423 0.0
-0.096416 0.029242 0.0
-0.100739 0.027825 0.0
-0.104915 0.026140 0.0
-0.108906 0.024153 0.0
-0.112669 0.021833 0.0
-0.116156 0.019146 0.0
-0.119309 0.016061 0.0
-0.122062 0.012550 0.0
-0.124343 0.008592 0.0
-0.126071 0.004172 0.0
-0.127159 -0.000713 0.0
-0.127512 -0.006052 0.0
-0.127037 -0.011818 0.0
-0.125638 -0.017963 0.0
-0.123226 -0.024419 0.0
-0.119725 -0.031091 0.0
-0.115074 -0.037865 0.0
-0.109240 -0.044601 0.0
-0.102221 -0.051146 0.0
-0.094053 -0.057333 0.0
-0.084815 -0.062992 0.0
-0.074631 -0.067948 0.0
-0.063670 -0.072011 0.0
-0.052148 -0.074932 0.0
-0.040341 -0.076283 0.0
-0.028622 -0.075214 0.0
-0.017553 -0.069919 0.0
-0.008090 -0.056596 0.0
-0.001956 -0.027779 0.0
-0.000902 0.015044 0.0
-0.003562 0.029251 0.0
-0.007453 0.035498 0.0
-0.011872 0.038022 0.0
-0.016500 0.038952 0.0
-0.021206 0.039271 0.0
-0.025943 0.039383 0.0
-0.030695 0.039426 0.0
-0.035461 0.039441 0.0
-0.040238 0.039434 0.0
-0.045027 0.039401 0.0
-0.049829 0.039335 0.0
-0.054641 0.039227 0.0
-0.059463 0.039065 0.0
-0.064292 0.038836 0.0
-0.069125 0.038524 0.0
-0.073957 0.038113 0.0
-0.078781 0.037582 0.0
-0.083589 0.036908 0.0
-0.088369 0.036065 0.0
-0.093106 0.035026 0.0
-0.097781 0.033757 0.0
-0.102372 0.032225 0.0
-0.106849 0.030392 0.0
-0.111178 0.028220 0.0
-0.115317 0.025668 0.0
-0.119214 0.022695 0.0
-0.122811 0.019261 0.0
-0.126037 0.015330 0.0
-0.128813 0.010869 0.0
-0.131047 0.005857 0.0
-0.132640 0.000282 0.0
-0.133482 -0.005852 0.0
-0.133456 -0.012519 0.0
-0.132446 -0.019671 0.0
-0.130337 -0.027232 0.0
-0.127024 -0.035093 0.0
-0.122423 -0.043116 0.0
-0.116476 -0.051131 0.0
-0.109169 -0.058943 0.0
-0.100531 -0.066341 0.0
-0.090652 -0.073101 0.0
-0.079680 -0.078995 0.0
-0.067823 -0.083782 0.0
-0.055353 -0.087153 0.0
-0.042611 -0.088611 0.0
-0.030036 -0.087179 0.0
-0.018262 -0.080797 0.0
-0.008316 -0.065127 0.0
-0.001981 -0.031716 0.0
-0.000894 0.016840 0.0
-0.003538 0.032758 0.0
-0.007418 0.039761 0.0
-0.011832 0.042592 0.0
-0.016459 0.043637 0.0
-0.021168 0.044001 0.0
-0.025911 0.044133 0.0
-0.030674 0.044191 0.0
-0.035455 0.044221 0.0
-0.040254 0.044230 0.0
-0.045073 0.044213 0.0
-0.049912 0.044164 0.0
-0.054773 0.044072 0.0
-0.059657 0.043925 0.0
-0.064562 0.043710 0.0
-0.069489 0.043410 0.0
-0.074434 0.043005 0.0
-0.079395 0.042475 0.0
-0.084364 0.041793 0.0
-0.089334 0.040931 0.0
-0.094293 0.039857 0.0
-0.099226 0.038535 0.0
-0.104113 0.036925 0.0
-0.108927 0.034985 0.0
-0.113637 0.032667 0.0
-0.118201 0.029924 0.0
-0.122569 0.026705 0.0
-0.126680 0.022959 0.0
-0.130459 0.018638 0.0
-0.133820 0.013698 0.0
-0.136662 0.008105 0.0
-0.138870 0.001835 0.0
-0.140315 -0.005118 0.0
-0.140858 -0.012736 0.0
-0.140352 -0.020971 0.0
-0.138650 -0.029744 0.0
-0.135611 -0.038932 0.0
-0.131115 -0.048373 0.0
-0.125074 -0.057860 0.0
-0.117448 -0.067148 0.0
-0.108258 -0.075964 0.0
-0.097600 -0.084015 0.0
-0.085654 -0.091000 0.0
-0.072685 -0.096603 0.0
-0.059040 -0.100446 0.0
-0.045151 -0.101950 0.0
-0.031553 -0.100013 0.0
-0.018967 -0.092323 0.0
-0.008501 -0.074013 0.0
-0.001984 -0.035681 0.0
-0.000885 0.018619 0.0
-0.003510 0.036249 0.0
-0.007376 0.044015 0.0
-0.011782 0.047158 0.0
-0.016407 0.048322 0.0
-0.021116 0.048733 0.0
-0.025864 0.048890 0.0
-0.030635 0.048969 0.0
-0.035430 0.049019 0.0
-0.040249 0.049050 0.0
-0.045096 0.049058 0.0
-0.049972 0.049035 0.0
-0.054882 0.048971 0.0
-0.059827 0.048854 0.0
-0.064810 0.048669 0.0
-0.069833 0.048399 0.0
-0.074895 0.048023 0.0
-0.079997 0.047518 0.0
-0.085136 0.046857 0.0
-0.090308 0.046008 0.0
-0.095504 0.044935 0.0
-0.100715 0.043600 0.0
-0.105924 0.041956 0.0
-0.111109 0.039954 0.0
-0.116241 0.037540 0.0
-0.121281 0.034656 0.0
-0.126181 0.031240 0.0
-0.130879 0.027231 0.0
-0.135298 0.022564 0.0
-0.139346 0.017181 0.0
-0.142910 0.011029 0.0
-0.145861 0.004069 0.0
-0.148050 -0.003718 0.0
-0.149309 -0.012333 0.0
-0.149455 -0.021734 0.0
-0.148298 -0.031840 0.0
-0.145654 -0.042519 0.0
-0.141353 -0.053583 0.0
-0.135259 -0.064784 0.0
-0.127296 -0.075814 0.0
-0.117463 -0.086321 0.0
-0.105862 -0.095916 0.0
-0.092710 -0.104195 0.0
-0.078348 -0.110738 0.0
-0.063234 -0.115070 0.0
-0.047930 -0.116520 0.0
-0.033105 -0.113866 0.0
-0.019596 -0.104564 0.0
-0.008594 -0.083241 0.0
-0.001949 -0.039615 0.0
-0.000874 0.020377 0.0
-0.003478 0.039721 0.0
-0.007326 0.048258 0.0
-0.011722 0.051718 0.0
-0.016341 0.053006 0.0
-0.021049 0.053467 0.0
-0.025798 0.053653 0.0
-0.030575 0.053756 0.0
-0.035380 0.053832 0.0
-0.040217 0.053892 0.0
-0.045088 0.053933 0.0
-0.049999 0.053947 0.0
-0.054955 0.053924 0.0
-0.059960 0.053852 0.0
-0.065018 0.053714 0.0
-0.070136 0.053494 0.0
-0.075316 0.053171 0.0
-0.080562 0.052719 0.0
-0.085875 0.052109 0.0
-0.091256 0.051308 0.0
-0.096702 0.050278 0.0
-0.102206 0.048973 0.0
-0.107759 0.047344 0.0
-0.113344 0.045335 0.0
-0.118936 0.042882 0.0
-0.124501 0.039919 0.0
-0.129995 0.036371 0.0
-0.135356 0.032160 0.0
-0.140509 0.027207 0.0
-0.145355 0.021432 0.0
-0.149774 0.014762 0.0
-0.153621 0.007135 0.0
-0.156721 -0.001494 0.0
-0.158874 -0.011145 0.0
-0.159859 -0.021792 0.0
-0.159435 -0.033362 0.0
-0.157355 -0.045721 0.0
-0.153383 -0.058655 0.0
-0.147317 -0.071871 0.0
-0.139019 -0.084988 0.0
-0.128451 -0.097548 0.0
-0.115710 -0.109032 0.0
-0.101056 -0.118885 0.0
-0.084933 -0.126534 0.0
-0.067955 -0.131366 0.0
-0.050882 -0.132601 0.0
-0.034578 -0.128914 0.0
-0.020033 -0.117571 0.0
-0.008518 -0.092752 0.0
-0.001851 -0.043415 0.0
-0.000861 0.022112 0.0
-0.003440 0.043169 0.0
-0.007268 0.052485 0.0
-0.011650 0.056269 0.0
-0.016260 0.057684 0.0
-0.020962 0.058199 0.0
-0.025709 0.058417 0.0
-0.030488 0.058549 0.0
-0.035300 0.058657 0.0
-0.040149 0.058753 0.0
-0.045041 0.058836 0.0
-0.049982 0.058897 0.0
-0.054978 0.058927 0.0
-0.060038 0.058913 0.0
-0.065168 0.058841 0.0
-0.070376 0.058693 0.0
-0.075671 0.058447 0.0
-0.081059 0.058076 0.0
-0.086546 0.057552 0.0
-0.092139 0.056839 0.0
-0.097840 0.055894 0.0
-0.103649 0.054670 0.0
-0.109563 0.053113 0.0
-0.115571 0.051158 0.0
-0.121657 0.048736 0.0
-0.127793 0.045767 0.0
-0.133940 0.042164 0.0
-0.140043 0.037831 0.0
-0.146026 0.032671 0.0
-0.151790 0.026578 0.0
-0.157209 0.019453 0.0
-0.162121 0.011203 0.0
-0.166331 0.001748 0.0
-0.169605 -0.008960 0.0
-0.171672 -0.020925 0.0
-0.172228 -0.034097 0.0
-0.170949 -0.048345 0.0
-0.167509 -0.063443 0.0
-0.161610 -0.079049 0.0
-0.153023 -0.094696 0.0
-0.141638 -0.109793 0.0
-0.127527 -0.123640 0.0
-0.110993 -0.135465 0.0
-0.092611 -0.144459 0.0
-0.073228 -0.149802 0.0
-0.053898 -0.150569 0.0
-0.035785 -0.145363 0.0
-0.020091 -0.131360 0.0
-0.008155 -0.102413 0.0
-0.001654 -0.046921 0.0
-0.000847 0.023820 0.0
-0.003397 0.046590 0.0
-0.007199 0.056693 0.0
-0.011563 0.060807 0.0
-0.016161 0.062353 0.0
-0.020853 0.062925 0.0
-0.025594 0.063178 0.0
-0.030370 0.063343 0.0
-0.035183 0.063488 0.0
-0.040039 0.063627 0.0
-0.044945 0.063759 0.0
-0.049908 0.063877 0.0
-0.054938 0.063973 0.0
-0.060045 0.064034 0.0
-0.065239 0.064045 0.0
-0.070531 0.063990 0.0
-0.075932 0.063846 0.0
-0.081456 0.063588 0.0
-0.087113 0.063185 0.0
-0.092914 0.062600 0.0
-0.098870 0.061789 0.0
-0.104987 0.060702 0.0
-0.111271 0.059279 0.0
-0.117720 0.057450 0.0
-0.124327 0.055137 0.0
-0.131074 0.052249 0.0
-0.137930 0.048685 0.0
-0.144849 0.044332 0.0
-0.151762 0.039066 0.0
-0.158572 0.032757 0.0
-0.165149 0.025270 0.0
-0.171322 0.016471 0.0
-0.176875 0.006241 0.0
-0.181542 -0.005512 0.0
-0.184996 -0.018851 0.0
-0.186857 -0.033754 0.0
-0.186705 -0.050119 0.0
-0.184097 -0.067718 0.0
-0.178598 -0.086171 0.0
-0.169842 -0.104917 0.0
-0.157597 -0.123200 0.0
-0.141864 -0.140077 0.0
-0.122972 -0.154454 0.0
-0.101661 -0.165162 0.0
-0.079104 -0.171040 0.0
-0.056815 -0.170950 0.0
-0.036434 -0.163476 0.0
-0.019482 -0.145894 0.0
-0.007322 -0.111976 0.0
-0.001303 -0.049877 0.0
-0.000831 0.025499 0.0
-0.003348 0.049979 0.0
-0.007120 0.060877 0.0
-0.011462 0.065329 0.0
-0.016042 0.067009 0.0
-0.020721 0.067640 0.0
-0.025449 0.067931 0.0
-0.030216 0.068133 0.0
-0.035024 0.068319 0.0
-0.039880 0.068507 0.0
-0.044791 0.068696 0.0
-0.049768 0.068881 0.0
-0.054822 0.069053 0.0
-0.059965 0.069203 0.0
-0.065212 0.069316 0.0
-0.070575 0.069375 0.0
-0.076072 0.069360 0.0
-0.081720 0.069245 0.0
-0.087535 0.069000 0.0
-0.093535 0.068587 0.0
-0.099738 0.067961 0.0
-0.106160 0.067070 0.0
-0.112815 0.065849 0.0
-0.119712 0.064226 0.0
-0.126857 0.062113 0.0
-0.134245 0.059408 0.0
-0.141858 0.055996 0.0
-0.149662 0.051744 0.0
-0.157601 0.046505 0.0
-0.165587 0.040114 0.0
-0.173494 0.032397 0.0
-0.181149 0.023173 0.0
-0.188321 0.012264 0.0
-0.194702 -0.000487 0.0
-0.199913 -0.015211 0.0
-0.203498 -0.031949 0.0
-0.204920 -0.050655 0.0
-0.203580 -0.071130 0.0
-0.198861 -0.092976 0.0
-0.190188 -0.115541 0.0
-0.177132 -0.137877 0.0
-0.159546 -0.158720 0.0
-0.137733 -0.176517 0.0
-0.112609 -0.189534 0.0
-0.085787 -0.196046 0.0
-0.059484 -0.194536 0.0
-0.036130 -0.183624 0.0
-0.017779 -0.161048 0.0
-0.005757 -0.121004 0.0
-0.000723 -0.051903 0.0
-0.000813 0.027143 0.0
-0.003293 0.053332 0.0
-0.007030 0.065034 0.0
-0.011345 0.069828 0.0
-0.015903 0.071647 0.0
-0.020561 0.072340 0.0
-0.025272 0.072671 0.0
-0.030023 0.072912 0.0
-0.034818 0.073143 0.0
-0.039664 0.073384 0.0
-0.044571 0.073637 0.0
-0.049551 0.073897 0.0
-0.054616 0.074157 0.0
-0.059783 0.074409 0.0
-0.065067 0.074640 0.0
-0.070486 0.074834 0.0
-0.076062 0.074973 0.0
-0.081816 0.075033 0.0
-0.087771 0.074982 0.0
-0.093953 0.074786 0.0
-0.100387 0.074399 0.0
-0.107099 0.073766 0.0
-0.114115 0.072823 0.0
-0.121457 0.071492 0.0
-0.129145 0.069679 0.0
-0.137190 0.067274 0.0
-0.145594 0.064146 0.0
-0.154341 0.060145 0.0
-0.163392 0.055095 0.0
-0.172680 0.048797 0.0
-0.182091 0.041032 0.0
-0.191457 0.031559 0.0
-0.200538 0.020130 0.0
-0.209008 0.006499 0.0
-0.216447 -0.009546 0.0
-0.222304 -0.028172 0.0
-0.225899 -0.049415 0.0
-0.226455 -0.073154 0.0
-0.223111 -0.099015 0.0
-0.215005 -0.126281 0.0
-0.201399 -0.153799 0.0
-0.181876 -0.179906 0.0
-0.156601 -0.202418 0.0
-0.126607 -0.218750 0.0
-0.094032 -0.226226 0.0
-0.062098 -0.222594 0.0
-0.034555 -0.206464 0.0
-0.014474 -0.176639 0.0
-0.003127 -0.128782 0.0
0.000170 -0.052456 0.0
-0.000794 0.028751 0.0
-0.003232 0.056642 0.0
-0.006929 0.069158 0.0
-0.011211 0.074302 0.0
-0.015742 0.076261 0.0
-0.020375 0.077017 0.0
-0.025061 0.077390 0.0
-0.029789 0.077672 0.0
-0.034561 0.077950 0.0
-0.039387 0.078249 0.0
-0.044278 0.078570 0.0
-0.049248 0.078912 0.0
-0.054310 0.079270 0.0
-0.059483 0.079636 0.0
-0.064786 0.080000 0.0
-0.070242 0.080349 0.0
-0.075874 0.080667 0.0
-0.081711 0.080930 0.0
-0.087782 0.081111 0.0
-0.094119 0.081176 0.0
-0.100758 0.081081 0.0
-0.107735 0.080773 0.0
-0.115088 0.080186 0.0
-0.122856 0.079240 0.0
-0.131075 0.077838 0.0
-0.139778 0.075862 0.0
-0.148987 0.073171 0.0
-0.158714 0.069594 0.0
-0.168948 0.064932 0.0
-0.179649 0.058948 0.0
-0.190732 0.051374 0.0
-0.202050 0.041902 0.0
-0.213377 0.030197 0.0
-0.224384 0.015908 0.0
-0.234593 -0.001307 0.0
-0.243374 -0.021772 0.0
-0.249930 -0.045665 0.0
-0.253264 -0.073016 0.0
-0.252218 -0.103544 0.0
-0.245554 -0.136523 0.0
-0.232104 -0.170614 0.0
-0.211014 -0.203703 0.0
-0.182103 -0.232808 0.0
-0.146313 -0.254143 0.0
-0.106208 -0.263512 0.0
-0.066239 -0.257211 0.0
-0.032223 -0.233406 0.0
-0.009343 -0.192657 0.0
0.000863 -0.134317 0.0
0.001465 -0.050821 0.0
-0.000772 0.030316 0.0
-0.003164 0.059906 0.0
-0.006817 0.073244 0.0
-0.011062 0.078743 0.0
-0.015559 0.080846 0.0
-0.020160 0.081667 0.0
-0.024815 0.082081 0.0
-0.029510 0.082404 0.0
-0.034251 0.082731 0.0
-0.039046 0.083089 0.0
-0.043908 0.083483 0.0
-0.048851 0.083912 0.0
-0.053893 0.084374 0.0
-0.059053 0.084864 0.0
-0.064353 0.085375 0.0
-0.069820 0.085897 0.0
-0.075482 0.086414 0.0
-0.081371 0.086909 0.0
-0.087525 0.087357 0.0
-0.093983 0.087726 0.0
-0.100790 0.087977 0.0
-0.107994 0.088058 0.0
-0.115647 0.087907 0.0
-0.123805 0.087444 0.0
-0.132523 0.086571 0.0
-0.141858 0.085167 0.0
-0.151862 0.083081 0.0
-0.162580 0.080129 0.0
-0.174038 0.076089 0.0
-0.186238 0.070691 0.0
-0.199137 0.063613 0.0
-0.212634 0.054477 0.0
-0.226534 0.042850 0.0
-0.240522 0.028249 0.0
-0.254122 0.010160 0.0
-0.266666 -0.011914 0.0
-0.277214 -0.038419 0.0
-0.284547 -0.069595 0.0
-0.287202 -0.105356 0.0
-0.283517 -0.145059 0.0
-0.271796 -0.187250 0.0
-0.250558 -0.229396 0.0
-0.218939 -0.267646 0.0
-0.177321 -0.296712 0.0
-0.128203 -0.310166 0.0
-0.077057 -0.301673 0.0
-0.032412 -0.267605 0.0
-0.003581 -0.210169 0.0
0.006116 -0.136708 0.0
0.003219 -0.046136 0.0
-0.000749 0.031838 0.0
-0.003091 0.063119 0.0
-0.006694 0.077287 0.0
-0.010897 0.083148 0.0
-0.015356 0.085397 0.0
-0.019919 0.086281 0.0
-0.024534 0.086736 0.0
-0.029189 0.087099 0.0
-0.033887 0.087475 0.0
-0.038638 0.087892 0.0
-0.043456 0.088359 0.0
-0.048356 0.088879 0.0
-0.053358 0.089450 0.0
-0.058482 0.090072 0.0
-0.063754 0.090740 0.0
-0.069203 0.091447 0.0
-0.074862 0.092184 0.0
-0.080768 0.092935 0.0
-0.086964 0.093681 0.0
-0.093499 0.094395 0.0
-0.100426 0.095042 0.0
-0.107805 0.095576 0.0
-0.115702 0.095940 0.0
-0.124192 0.096058 0.0
-0.133353 0.095836 0.0
-0.143268 0.095152 0.0
-0.154024 0.093855 0.0
-0.165705 0.091753 0.0
-0.178387 0.088605 0.0
-0.192126 0.084114 0.0
-0.206946 0.077910 0.0
-0.222813 0.069544 0.0
-0.239605 0.058476 0.0
-0.257072 0.044077 0.0
-0.274774 0.025635 0.0
-0.292014 0.002396 0.0
-0.307801 -0.026393 0.0
-0.320780 -0.061308 0.0
-0.329216 -0.102552 0.0
-0.331073 -0.149691 0.0
-0.324087 -0.201326 0.0
-0.305912 -0.254732 0.0
-0.274499 -0.305342 0.0
-0.228930 -0.346204 0.0
-0.170746 -0.367976 0.0
-0.105501 -0.360254 0.0
-0.044075 -0.315096 0.0
-0.001887 -0.233697 0.0
0.011341 -0.136104 0.0
0.005207 -0.037710 0.0
-0.000724 0.033311 0.0
-0.003012 0.066275 0.0
-0.006562 0.081283 0.0
-0.010718 0.087512 0.0
-0.015133 0.089908 0.0
-0.019653 0.090853 0.0
-0.024221 0.091347 0.0
-0.028825 0.091748 0.0
-0.033469 0.092169 0.0
-0.038164 0.092644 0.0
-0.042922 0.093184 0.0
-0.047760 0.093793 0.0
-0.052700 0.094476 0.0
-0.057763 0.095234 0.0
-0.062978 0.096065 0.0
-0.068376 0.096969 0.0
-0.073994 0.097939 0.0
-0.079874 0.098967 0.0
-0.086065 0.100037 0.0
-0.092623 0.101131 0.0
-0.099609 0.102219 0.0
-0.107096 0.103265 0.0
-0.115165 0.104218 0.0
-0.123909 0.105013 0.0
-0.133429 0.105562 0.0
-0.143838 0.105751 0.0
-0.155261 0.105435 0.0
-0.167830 0.104422 0.0
-0.181677 0.102466 0.0
-0.196933 0.099249 0.0
-0.213708 0.094369 0.0
-0.232068 0.087311 0.0
-0.252003 0.077436 0.0
-0.273377 0.063958 0.0
-0.295865 0.045945 0.0
-0.318876 0.022337 0.0
-0.341457 -0.007967 0.0
-0.362238 -0.045975 0.0
-0.379411 -0.092277 0.0
-0.390675 -0.146845 0.0
-0.393110 -0.208723 0.0
-0.383092 -0.275527 0.0
-0.356723 -0.342328 0.0
-0.311105 -0.400406 0.0
-0.246076 -0.436987 0.0
-0.166000 -0.436563 0.0
-0.082033 -0.384181 0.0
-0.014659 -0.274175 0.0
0.012577 -0.136089 0.0
0.006745 -0.025758 0.0
-0.000698 0.034733 0.0
-0.002929 0.069372 0.0
-0.006422 0.085228 0.0
-0.010528 0.091830 0.0
-0.014896 0.094372 0.0
-0.019365 0.095377 0.0
-0.023879 0.095905 0.0
-0.028424 0.096339 0.0
-0.033003 0.096801 0.0
-0.037626 0.097329 0.0
-0.042307 0.097938 0.0
-0.047064 0.098635 0.0
-0.051917 0.099427 0.0
-0.056892 0.100321 0.0
-0.062018 0.101319 0.0
-0.067329 0.102424 0.0
-0.072864 0.103637 0.0
-0.078670 0.104955 0.0
-0.084801 0.106370 0.0
-0.091317 0.107871 0.0
-0.098291 0.109439 0.0
-0.105805 0.111047 0.0
-0.113955 0.112656 0.0
-0.122849 0.114213 0.0
-0.132614 0.115646 0.0
-0.143395 0.116857 0.0
-0.155354 0.117712 0.0
-0.168675 0.118034 0.0
-0.183559 0.117585 0.0
-0.200223 0.116049 0.0
-0.218884 0.113005 0.0
-0.239748 0.107898 0.0
-0.262968 0.100005 0.0
-0.288600 0.088397 0.0
-0.316531 0.071925 0.0
-0.346392 0.049229 0.0
-0.377491 0.018823 0.0
-0.408739 -0.020735 0.0
-0.438405 -0.070679 0.0
-0.463830 -0.131755 0.0
-0.480996 -0.204212 0.0
-0.484288 -0.286764 0.0
-0.467516 -0.374232 0.0
-0.425936 -0.455699 0.0
-0.357894 -0.514764 0.0
-0.265849 -0.530908 0.0
-0.158489 -0.481162 0.0
-0.056114 -0.346943 0.0
0.002322 -0.148993 0.0
0.007157 -0.011857 0.0
-0.000671 0.036103 0.0
-0.002844 0.072406 0.0
-0.006277 0.089119 0.0
-0.010331 0.096099 0.0
-0.014646 0.098787 0.0
-0.019061 0.099847 0.0
-0.023514 0.100402 0.0
-0.027990 0.100862 0.0
-0.032492 0.101358 0.0
-0.037029 0.101933 0.0
-0.041616 0.102603 0.0
-0.046271 0.103381 0.0
-0.051014 0.104278 0.0
-0.055871 0.105303 0.0
-0.060874 0.106465 0.0
-0.066057 0.107772 0.0
-0.071463 0.109231 0.0
-0.077142 0.110846 0.0
-0.083149 0.112618 0.0
-0.089554 0.114544 0.0
-0.096433 0.116619 0.0
-0.103879 0.118827 0.0
-0.111999 0.121145 0.0
-0.120918 0.123538 0.0
-0.130785 0.125954 0.0
-0.141773 0.128317 0.0
-0.154084 0.130522 0.0
-0.167956 0.132417 0.0
-0.183662 0.133793 0.0
-0.201514 0.134358 0.0
-0.221860 0.133705 0.0
-0.245075 0.131276 0.0
-0.271533 0.126305 0.0
-0.301576 0.117772 0.0
-0.335451 0.104356 0.0
-0.373235 0.084443 0.0
-0.414723 0.056195 0.0
-0.459187 0.017604 0.0
-0.504922 -0.033618 0.0
-0.548264 -0.100048 0.0
-0.583048 -0.183968 0.0
-0.601236 -0.285528 0.0
-0.595060 -0.398417 0.0
-0.559467 -0.508687 0.0
-0.492441 -0.596843 0.0
-0.394439 -0.638876 0.0
-0.269893 -0.605099 0.0
-0.133287 -0.461987 0.0
-0.025861 -0.199812 0.0
0.006483 0.001783 0.0
-0.000644 0.037418 0.0
-0.002757 0.075377 0.0
-0.006131 0.092955 0.0
-0.010130 0.100316 0.0
-0.014392 0.103148 0.0
-0.018747 0.104256 0.0
-0.023133 0.104831 0.0
-0.027532 0.105308 0.0
-0.031946 0.105828 0.0
-0.036383 0.106438 0.0
-0.040859 0.107160 0.0
-0.045389 0.108009 0.0
-0.049996 0.109000 0.0
-0.054705 0.110147 0.0
-0.059549 0.111466 0.0
-0.064563 0.112968 0.0
-0.069790 0.114669 0.0
-0.075284 0.116579 0.0
-0.081102 0.118710 0.0
-0.087316 0.121070 0.0
-0.094009 0.123665 0.0
-0.101279 0.126496 0.0
-0.109243 0.129559 0.0
-0.118040 0.132840 0.0
-0.127835 0.136314 0.0
-0.138827 0.139937 0.0
-0.151254 0.143641 0.0
-0.165403 0.147319 0.0
-0.181618 0.150812 0.0
-0.200311 0.153884 0.0
-0.221970 0.156185 0.0
-0.247167 0.157207 0.0
-0.276553 0.156219 0.0
-0.310854 0.152202 0.0
-0.350844 0.143791 0.0
-0.397276 0.129225 0.0
-0.450614 0.106239 0.0
-0.510310 0.071720 0.0
-0.573539 0.021230 0.0
-0.634254 -0.050838 0.0
-0.683679 -0.148970 0.0
-0.712465 -0.273554 0.0
-0.713680 -0.415353 0.0
-0.684033 -0.556990 0.0
-0.621999 -0.677600 0.0
-0.525870 -0.752252 0.0
-0.394866 -0.747274 0.0
-0.234818 -0.616465 0.0
-0.072823 -0.314754 0.0
0.001646 0.009912 0.0
-0.000617 0.038680 0.0
-0.002672 0.078283 0.0
-0.005986 0.096735 0.0
-0.009932 0.104481 0.0
-0.014140 0.107452 0.0
-0.018433 0.108601 0.0
-0.022747 0.109185 0.0
-0.027061 0.109667 0.0
-0.031376 0.110198 0.0
-0.035700 0.110830 0.0
-0.040046 0.111589 0.0
-0.044431 0.112495 0.0
-0.048875 0.113566 0.0
-0.053406 0.114822 0.0
-0.058053 0.116282 0.0
-0.062854 0.117967 0.0
-0.067852 0.119897 0.0
-0.073100 0.122092 0.0
-0.078658 0.124574 0.0
-0.084599 0.127361 0.0
-0.091007 0.130475 0.0
-0.097985 0.133935 0.0
-0.105655 0.137755 0.0
-0.114163 0.141950 0.0
-0.123688 0.146525 0.0
-0.134446 0.151476 0.0
-0.146703 0.156785 0.0
-0.160785 0.162405 0.0
-0.177097 0.168253 0.0
-0.196143 0.174181 0.0
-0.218548 0.179951 0.0
-0.245090 0.185178 0.0
-0.276734 0.189278 0.0
-0.314676 0.191386 0.0
-0.360347 0.190269 0.0
-0.415249 0.184080 0.0
-0.480255 0.169726 0.0
-0.554089 0.141763 0.0
-0.631562 0.091889 0.0