# vtk DataFile Version 3.0
Vector Field
ASCII
DATASET RECTILINEAR_GRID
DIMENSIONS 50 50 1
X_COORDINATES 50 double
0.100000 0.300000 0.500000 0.700000 0.900000 1.100000 1.300000 1.500000 1.700000 1.900000 2.100000 2.300000 2.500000 2.700000 2.900000 3.100000 3.300000 3.500000 3.700000 3.900000 4.100000 4.300000 4.500000 4.700000 4.900000 5.100000 5.300000 5.500000 5.700000 5.900000 6.100000 6.300000 6.500000 6.700000 6.900000 7.100000 7.300000 7.500000 7.700000 7.900000 8.100000 8.300000 8.500000 8.700000 8.900000 9.100000 9.300000 9.500000 9.700000 9.900000 
Y_COORDINATES 50 double
0.100000 0.300000 0.500000 0.700000 0.900000 1.100000 1.300000 1.500000 1.700000 1.900000 2.100000 2.300000 2.500000 2.700000 2.900000 3.100000 3.300000 3.500000 3.700000 3.900000 4.100000 4.300000 4.500000 4.700000 4.900000 5.100000 5.300000 5.500000 5.700000 5.900000 6.100000 6.300000 6.500000 6.700000 6.900000 7.100000 7.300000 7.500000 7.700000 7.900000 8.100000 8.300000 8.500000 8.700000 8.900000 9.100000 9.300000 9.500000 9.700000 9.900000 
Z_COORDINATES 1 double
0.0
POINT_DATA 2500
VECTORS Vektorfeld double
-0.000249 0.000249 0.0
-0.001228 0.000730 0.0
-0.002927 0.000969 0.0
-0.004959 0.001062 0.0
-0.007115 0.001094 0.0
-0.009316 0.001107 0.0
-0.011539 0.001117 0.0
-0.013787 0.001131 0.0
-0.016065 0.001147 0.0
-0.018380 0.001167 0.0
-0.020737 0.001190 0.0
-0.023142 0.001214 0.0
-0.025597 0.001241 0.0
-0.028106 0.001268 0.0
-0.030670 0.001296 0.0
-0.033291 0.001324 0.0
-0.035967 0.001352 0.0
-0.038695 0.001377 0.0
-0.041471 0.001399 0.0
-0.044285 0.001416 0.0
-0.047127 0.001426 0.0
-0.049980 0.001427 0.0
-0.052824 0.001416 0.0
-0.055630 0.001390 0.0
-0.058365 0.001345 0.0
-0.060987 0.001277 0.0
-0.063447 0.001183 0.0
-0.065687 0.001057 0.0
-0.067642 0.000898 0.0
-0.069241 0.000701 0.0
-0.070408 0.000466 0.0
-0.071068 0.000194 0.0
-0.071152 -0.000110 0.0
-0.070587 -0.000455 0.0
-0.069299 -0.000833 0.0
-0.067234 -0.001232 0.0
-0.064368 -0.001634 0.0
-0.060709 -0.002024 0.0
-0.056302 -0.002383 0.0
-0.051224 -0.002694 0.0
-0.045588 -0.002942 0.0
-0.039533 -0.003114 0.0
-0.033217 -0.003203 0.0
-0.026810 -0.003204 0.0
-0.020493 -0.003112 0.0
-0.014468 -0.002912 0.0
-0.008987 -0.002569 0.0
-0.004408 -0.002010 0.0
-0.001253 -0.001144 0.0
-0.000054 -0.000054 0.0
-0.000784 0.001283 0.0
-0.003195 0.003086 0.0
-0.006874 0.003991 0.0
-0.011173 0.004372 0.0
-0.015751 0.004519 0.0
-0.020453 0.004585 0.0
-0.025224 0.004633 0.0
-0.030048 0.004687 0.0
-0.034929 0.004750 0.0
-0.039872 0.004823 0.0
-0.044885 0.004904 0.0
-0.049972 0.004992 0.0
-0.055136 0.005083 0.0
-0.060380 0.005178 0.0
-0.065701 0.005272 0.0
-0.071095 0.005364 0.0
-0.076555 0.005448 0.0
-0.082069 0.005522 0.0
-0.087619 0.005579 0.0
-0.093181 0.005613 0.0
-0.098726 0.005616 0.0
-0.104214 0.005579 0.0
-0.109598 0.005491 0.0
-0.114817 0.005341 0.0
-0.119802 0.005115 0.0
-0.124472 0.004799 0.0
-0.128732 0.004381 0.0
-0.132478 0.003845 0.0
-0.135594 0.003181 0.0
-0.137960 0.002382 0.0
-0.139451 0.001444 0.0
-0.139944 0.000370 0.0
-0.139315 -0.000831 0.0
-0.137450 -0.002163 0.0
-0.134269 -0.003594 0.0
-0.129728 -0.005078 0.0
-0.123820 -0.006562 0.0
-0.116586 -0.007989 0.0
-0.108115 -0.009297 0.0
-0.098548 -0.010426 0.0
-0.088066 -0.011327 0.0
-0.076891 -0.011959 0.0
-0.065270 -0.012296 0.0
-0.053468 -0.012319 0.0
-0.041775 -0.012006 0.0
-0.030519 -0.011300 0.0
-0.020113 -0.010069 0.0
-0.011137 -0.008066 0.0
-0.004405 -0.004975 0.0
-0.000859 -0.000968 0.0
-0.001111 0.003178 0.0
-0.004390 0.006880 0.0
-0.009225 0.008710 0.0
-0.014789 0.009515 0.0
-0.020689 0.009853 0.0
-0.026749 0.010013 0.0
-0.032899 0.010125 0.0
-0.039118 0.010238 0.0
-0.045402 0.010364 0.0
-0.051754 0.010505 0.0
-0.058180 0.010660 0.0
-0.064680 0.010824 0.0
-0.071258 0.010993 0.0
-0.077911 0.011164 0.0
-0.084633 0.011330 0.0
-0.091417 0.011484 0.0
-0.098248 0.011619 0.0
-0.105107 0.011724 0.0
-0.111968 0.011788 0.0
-0.118799 0.011797 0.0
-0.125556 0.011734 0.0
-0.132189 0.011581 0.0
-0.138634 0.011317 0.0
-0.144816 0.010917 0.0
-0.150649 0.010357 0.0
-0.156032 0.009610 0.0
-0.160853 0.008651 0.0
-0.164987 0.007455 0.0
-0.168302 0.006003 0.0
-0.170657 0.004282 0.0
-0.171909 0.002287 0.0
-0.171916 0.000026 0.0
-0.170543 -0.002489 0.0
-0.167687 -0.005226 0.0
-0.163281 -0.008118 0.0
-0.157290 -0.011086 0.0
-0.149724 -0.014029 0.0
-0.140642 -0.016838 0.0
-0.130160 -0.019399 0.0
-0.118449 -0.021603 0.0
-0.105728 -0.023353 0.0
-0.092260 -0.024576 0.0
-0.078334 -0.025225 0.0
-0.064264 -0.025262 0.0
-0.050379 -0.024642 0.0
-0.037045 -0.023255 0.0
-0.024710 -0.020854 0.0
-0.013989 -0.016977 0.0
-0.005769 -0.011016 0.0
-0.001207 -0.003035 0.0
-0.001279 0.005569 0.0
-0.005027 0.011516 0.0
-0.010499 0.014381 0.0
-0.016747 0.015657 0.0
-0.023346 0.016211 0.0
-0.030114 0.016483 0.0
-0.036978 0.016670 0.0
-0.043914 0.016848 0.0
-0.050918 0.017041 0.0
-0.057991 0.017253 0.0
-0.065133 0.017480 0.0
-0.072348 0.017719 0.0
-0.079633 0.017961 0.0
-0.086986 0.018201 0.0
-0.094398 0.018428 0.0
-0.101859 0.018630 0.0
-0.109350 0.018795 0.0
-0.116850 0.018907 0.0
-0.124329 0.018946 0.0
-0.131748 0.018889 0.0
-0.139060 0.018712 0.0
-0.146208 0.018384 0.0
-0.153122 0.017873 0.0
-0.159722 0.017143 0.0
-0.165913 0.016155 0.0
-0.171589 0.014871 0.0
-0.176629 0.013251 0.0
-0.180902 0.011262 0.0
-0.184266 0.008875 0.0
-0.186571 0.006071 0.0
-0.187667 0.002845 0.0
-0.187404 -0.000789 0.0
-0.185650 -0.004801 0.0
-0.182298 -0.009122 0.0
-0.177268 -0.013658 0.0
-0.170521 -0.018285 0.0
-0.162063 -0.022855 0.0
-0.151957 -0.027200 0.0
-0.140332 -0.031145 0.0
-0.127380 -0.034521 0.0
-0.113356 -0.037179 0.0
-0.098567 -0.039007 0.0
-0.083356 -0.039929 0.0
-0.068088 -0.039896 0.0
-0.053135 -0.038845 0.0
-0.038893 -0.036628 0.0
-0.025820 -0.032890 0.0
-0.014531 -0.026952 0.0
-0.005926 -0.017866 0.0
-0.001215 -0.005457 0.0
-0.001355 0.008204 0.0
-0.005327 0.016600 0.0
-0.011120 0.020561 0.0
-0.017715 0.022320 0.0
-0.024663 0.023095 0.0
-0.031779 0.023482 0.0
-0.038991 0.023747 0.0
-0.046276 0.023993 0.0
-0.053628 0.024253 0.0
-0.061049 0.024534 0.0
-0.068539 0.024832 0.0
-0.076100 0.025142 0.0
-0.083730 0.025454 0.0
-0.091425 0.025756 0.0
-0.099177 0.026036 0.0
-0.106973 0.026278 0.0
-0.114796 0.026463 0.0
-0.122624 0.026567 0.0
-0.130425 0.026565 0.0
-0.138162 0.026425 0.0
-0.145785 0.026112 0.0
-0.153239 0.025585 0.0
-0.160451 0.024799 0.0
-0.167342 0.023707 0.0
-0.173815 0.022255 0.0
-0.179762 0.020392 0.0
-0.185059 0.018067 0.0
-0.189571 0.015231 0.0
-0.193150 0.011848 0.0
-0.195639 0.007892 0.0
-0.196876 0.003357 0.0
-0.196701 -0.001738 0.0
-0.194965 -0.007342 0.0
-0.191536 -0.013363 0.0
-0.186307 -0.019675 0.0
-0.179213 -0.026109 0.0
-0.170241 -0.032461 0.0
-0.159444 -0.038496 0.0
-0.146953 -0.043964 0.0
-0.132985 -0.048621 0.0
-0.117838 -0.052249 0.0
-0.101886 -0.054679 0.0
-0.085552 -0.055803 0.0
-0.069281 -0.055562 0.0
-0.053518 -0.053894 0.0
-0.038704 -0.050634 0.0
-0.025313 -0.045348 0.0
-0.013950 -0.037146 0.0
-0.005492 -0.024735 0.0
-0.001060 -0.007732 0.0
-0.001382 0.010941 0.0
-0.005441 0.021894 0.0
-0.011370 0.026988 0.0
-0.018118 0.029237 0.0
-0.025221 0.030230 0.0
-0.032489 0.030731 0.0
-0.039853 0.031074 0.0
-0.047289 0.031388 0.0
-0.054795 0.031716 0.0
-0.062371 0.032067 0.0
-0.070019 0.032438 0.0
-0.077742 0.032820 0.0
-0.085537 0.033201 0.0
-0.093403 0.033568 0.0
-0.101331 0.033904 0.0
-0.109312 0.034188 0.0
-0.117330 0.034395 0.0
-0.125364 0.034496 0.0
-0.133386 0.034458 0.0
-0.141359 0.034241 0.0
-0.149240 0.033800 0.0
-0.156973 0.033083 0.0
-0.164491 0.032033 0.0
-0.171715 0.030588 0.0
-0.178551 0.028684 0.0
-0.184892 0.026251 0.0
-0.190612 0.023225 0.0
-0.195571 0.019544 0.0
-0.199615 0.015157 0.0
-0.202573 0.010029 0.0
-0.204266 0.004149 0.0
-0.204509 -0.002462 0.0
-0.203119 -0.009744 0.0
-0.199924 -0.017586 0.0
-0.194774 -0.025831 0.0
-0.187559 -0.034262 0.0
-0.178229 -0.042610 0.0
-0.166814 -0.050559 0.0
-0.153442 -0.057764 0.0
-0.138354 -0.063878 0.0
-0.121909 -0.068583 0.0
-0.104575 -0.071631 0.0
-0.086897 -0.072865 0.0
-0.069451 -0.072218 0.0
-0.052796 -0.069656 0.0
-0.037446 -0.065037 0.0
-0.023894 -0.057888 0.0
-0.012717 -0.047145 0.0
-0.004714 -0.031197 0.0
-0.000812 -0.009604 0.0
-0.001382 0.013705 0.0
-0.005454 0.027262 0.0
-0.011415 0.033510 0.0
-0.018207 0.036254 0.0
-0.025357 0.037466 0.0
-0.032673 0.038079 0.0
-0.040084 0.038500 0.0
-0.047570 0.038884 0.0
-0.055128 0.039283 0.0
-0.062761 0.039709 0.0
-0.070473 0.040157 0.0
-0.078266 0.040617 0.0
-0.086142 0.041076 0.0
-0.094100 0.041517 0.0
-0.102136 0.041920 0.0
-0.110242 0.042259 0.0
-0.118406 0.042506 0.0
-0.126611 0.042625 0.0
-0.134834 0.042575 0.0
-0.143044 0.042309 0.0
-0.151202 0.041771 0.0
-0.159258 0.040900 0.0
-0.167150 0.039626 0.0
-0.174805 0.037874 0.0
-0.182133 0.035562 0.0
-0.189026 0.032606 0.0
-0.195359 0.028924 0.0
-0.200988 0.024434 0.0
-0.205744 0.019068 0.0
-0.209443 0.012775 0.0
-0.211878 0.005531 0.0
-0.212827 -0.002651 0.0
-0.212061 -0.011710 0.0
-0.209352 -0.021524 0.0
-0.204489 -0.031906 0.0
-0.197299 -0.042591 0.0
-0.187674 -0.053236 0.0
-0.175599 -0.063424 0.0
-0.161187 -0.072685 0.0
-0.144703 -0.080529 0.0
-0.126585 -0.086495 0.0
-0.107431 -0.090207 0.0
-0.087968 -0.091430 0.0
-0.068975 -0.090091 0.0
-0.051191 -0.086220 0.0
-0.035242 -0.079771 0.0
-0.021636 -0.070312 0.0
-0.010877 -0.056658 0.0
-0.003616 -0.036947 0.0
-0.000478 -0.010894 0.0
-0.001368 0.016455 0.0
-0.005412 0.032627 0.0
-0.011349 0.040043 0.0
-0.018123 0.043288 0.0
-0.025261 0.044719 0.0
-0.032566 0.045446 0.0
-0.039968 0.045946 0.0
-0.047449 0.046404 0.0
-0.055007 0.046879 0.0
-0.062647 0.047386 0.0
-0.070375 0.047919 0.0
-0.078195 0.048468 0.0
-0.086113 0.049018 0.0
-0.094129 0.049549 0.0
-0.102244 0.050038 0.0
-0.110454 0.050457 0.0
-0.118753 0.050771 0.0
-0.127130 0.050941 0.0
-0.135566 0.050918 0.0
-0.144039 0.050648 0.0
-0.152516 0.050066 0.0
-0.160956 0.049100 0.0
-0.169305 0.047668 0.0
-0.177496 0.045678 0.0
-0.185445 0.043033 0.0
-0.193047 0.039630 0.0
-0.200177 0.035364 0.0
-0.206685 0.030130 0.0
-0.212391 0.023835 0.0
-0.217088 0.016404 0.0
-0.220538 0.007787 0.0
-0.222475 -0.002022 0.0
-0.222609 -0.012971 0.0
-0.220643 -0.024938 0.0
-0.216283 -0.037715 0.0
-0.209266 -0.050988 0.0
-0.199398 -0.064332 0.0
-0.186591 -0.077209 0.0
-0.170918 -0.088985 0.0
-0.152659 -0.098972 0.0
-0.132339 -0.106490 0.0
-0.110738 -0.110966 0.0
-0.088843 -0.112029 0.0
-0.067744 -0.109585 0.0
-0.048469 -0.103786 0.0
-0.031818 -0.094806 0.0
-0.018303 -0.082397 0.0
-0.008272 -0.065362 0.0
-0.002121 -0.041655 0.0
-0.000037 -0.011409 0.0
-0.001346 0.019170 0.0
-0.005338 0.037948 0.0
-0.011217 0.046538 0.0
-0.017939 0.050290 0.0
-0.025028 0.051944 0.0
-0.032289 0.052787 0.0
-0.039651 0.053370 0.0
-0.047096 0.053906 0.0
-0.054625 0.054464 0.0
-0.062244 0.055060 0.0
-0.069962 0.055690 0.0
-0.077786 0.056342 0.0
-0.085724 0.057000 0.0
-0.093783 0.057642 0.0
-0.101965 0.058243 0.0
-0.110274 0.058771 0.0
-0.118709 0.059190 0.0
-0.127264 0.059454 0.0
-0.135933 0.059510 0.0
-0.144698 0.059295 0.0
-0.153538 0.058737 0.0
-0.162421 0.057753 0.0
-0.171303 0.056247 0.0
-0.180127 0.054113 0.0
-0.188816 0.051235 0.0
-0.197273 0.047487 0.0
-0.205374 0.042738 0.0
-0.212964 0.036853 0.0
-0.219853 0.029707 0.0
-0.225811 0.021187 0.0
-0.230565 0.011208 0.0
-0.233800 -0.000271 0.0
-0.235156 -0.013231 0.0
-0.234245 -0.027556 0.0
-0.230668 -0.043035 0.0
-0.224040 -0.059313 0.0
-0.214040 -0.075877 0.0
-0.200465 -0.092046 0.0
-0.183308 -0.106978 0.0
-0.162835 -0.119710 0.0
-0.139661 -0.129245 0.0
-0.114785 -0.134688 0.0
-0.089557 -0.135429 0.0
-0.065535 -0.131306 0.0
-0.044211 -0.122663 0.0
-0.026692 -0.110100 0.0
-0.013486 -0.093824 0.0
-0.004642 -0.072811 0.0
-0.000110 -0.044890 0.0
0.000539 -0.010907 0.0
-0.001318 0.021834 0.0
-0.005243 0.043200 0.0
-0.011042 0.052965 0.0
-0.017688 0.057229 0.0
-0.024706 0.059112 0.0
-0.031901 0.060075 0.0
-0.039201 0.060746 0.0
-0.046591 0.061365 0.0
-0.054071 0.062014 0.0
-0.061651 0.062709 0.0
-0.069341 0.063449 0.0
-0.077154 0.064220 0.0
-0.085099 0.065006 0.0
-0.093188 0.065783 0.0
-0.101430 0.066526 0.0
-0.109833 0.067200 0.0
-0.118404 0.067766 0.0
-0.127146 0.068175 0.0
-0.136060 0.068370 0.0
-0.145141 0.068281 0.0
-0.154378 0.067828 0.0
-0.163752 0.066918 0.0
-0.173232 0.065443 0.0
-0.182772 0.063281 0.0
-0.192309 0.060294 0.0
-0.201755 0.056332 0.0
-0.210992 0.051231 0.0
-0.219866 0.044824 0.0
-0.228179 0.036939 0.0
-0.235682 0.027416 0.0
-0.242066 0.016118 0.0
-0.246961 0.002950 0.0
-0.249937 -0.012119 0.0
-0.250496 -0.029020 0.0
-0.248099 -0.047546 0.0
-0.242206 -0.067322 0.0
-0.232321 -0.087753 0.0
-0.218072 -0.107994 0.0
-0.199313 -0.126946 0.0
-0.176245 -0.143283 0.0
-0.149536 -0.155556 0.0
-0.120408 -0.162381 0.0
-0.090655 -0.162717 0.0
-0.062491 -0.156205 0.0
-0.038170 -0.143409 0.0
-0.019390 -0.125655 0.0
-0.006735 -0.104129 0.0
0.000287 -0.078371 0.0
0.002546 -0.046121 0.0
0.001294 -0.009073 0.0
-0.001286 0.024439 0.0
-0.005130 0.048363 0.0
-0.010833 0.059305 0.0
-0.017385 0.064087 0.0
-0.024315 0.066203 0.0
-0.031427 0.067290 0.0
-0.038649 0.068054 0.0
-0.045967 0.068764 0.0
-0.053382 0.069511 0.0
-0.060907 0.070317 0.0
-0.068556 0.071180 0.0
-0.076342 0.072088 0.0
-0.084281 0.073023 0.0
-0.092388 0.073962 0.0
-0.100678 0.074879 0.0
-0.109167 0.075739 0.0
-0.117869 0.076500 0.0
-0.126797 0.077112 0.0
-0.135962 0.077512 0.0
-0.145371 0.077629 0.0
-0.155026 0.077374 0.0
-0.164924 0.076645 0.0
-0.175050 0.075322 0.0
-0.185375 0.073267 0.0
-0.195852 0.070322 0.0
-0.206409 0.066307 0.0
-0.216943 0.061026 0.0
-0.227306 0.054266 0.0
-0.237300 0.045804 0.0
-0.246663 0.035416 0.0
-0.255057 0.022895 0.0
-0.262057 0.008067 0.0
-0.267147 -0.009171 0.0
-0.269713 -0.028842 0.0
-0.269063 -0.050771 0.0
-0.264465 -0.074589 0.0
-0.255205 -0.099631 0.0
-0.240689 -0.124881 0.0
-0.220571 -0.148937 0.0
-0.194897 -0.170034 0.0
-0.164275 -0.186137 0.0
-0.130041 -0.195162 0.0
-0.094380 -0.195349 0.0
-0.060298 -0.185819 0.0
-0.031214 -0.167199 0.0
-0.010051 -0.141807 0.0
0.002117 -0.112799 0.0
0.006700 -0.081307 0.0
0.005967 -0.044712 0.0
0.002258 -0.005521 0.0
-0.001249 0.026974 0.0
-0.005001 0.053423 0.0
-0.010594 0.065540 0.0
-0.017037 0.070846 0.0
-0.023863 0.073200 0.0
-0.030876 0.074417 0.0
-0.038005 0.075279 0.0
-0.045235 0.076085 0.0
-0.052570 0.076940 0.0
-0.060024 0.077868 0.0
-0.067614 0.078868 0.0
-0.075357 0.079929 0.0
-0.083273 0.081036 0.0
-0.091382 0.082165 0.0
-0.099705 0.083290 0.0
-0.108265 0.084377 0.0
-0.117085 0.085384 0.0
-0.126188 0.086258 0.0
-0.135596 0.086938 0.0
-0.145330 0.087346 0.0
-0.155410 0.087391 0.0
-0.165848 0.086963 0.0
-0.176649 0.085931 0.0
-0.187808 0.084142 0.0
-0.199300 0.081416 0.0
-0.211076 0.077546 0.0
-0.223054 0.072298 0.0
-0.235106 0.065409 0.0
-0.247045 0.056594 0.0
-0.258608 0.045553 0.0
-0.269439 0.031984 0.0
-0.279070 0.015609 0.0
-0.286898 -0.003795 0.0
-0.292193 -0.026356 0.0
-0.294114 -0.051987 0.0
-0.291727 -0.080358 0.0
-0.284099 -0.110750 0.0
-0.270400 -0.141976 0.0
-0.250025 -0.172336 0.0
-0.222725 -0.199609 0.0
-0.188796 -0.221111 0.0
-0.149355 -0.233864 0.0
-0.106660 -0.235003 0.0
-0.064363 -0.222545 0.0
-0.027375 -0.196546 0.0
-0.000924 -0.160073 0.0
0.012240 -0.119865 0.0
0.014404 -0.080988 0.0
0.010094 -0.039988 0.0
0.003411 0.000147 0.0
-0.001208 0.029432 0.0
-0.004858 0.058367 0.0
-0.010325 0.071657 0.0
-0.016644 0.077491 0.0
-0.023351 0.080089 0.0
-0.030250 0.081441 0.0
-0.037270 0.082404 0.0
-0.044396 0.083314 0.0
-0.051633 0.084284 0.0
-0.058999 0.085343 0.0
-0.066511 0.086494 0.0
-0.074191 0.087727 0.0
-0.082063 0.089027 0.0
-0.090153 0.090373 0.0
-0.098486 0.091740 0.0
-0.107095 0.093096 0.0
-0.116009 0.094399 0.0
-0.125264 0.095600 0.0
-0.134894 0.096635 0.0
-0.144936 0.097426 0.0
-0.155427 0.097881 0.0
-0.166400 0.097884 0.0
-0.177885 0.097297 0.0
-0.189902 0.095952 0.0
-0.202458 0.093653 0.0
-0.215536 0.090163 0.0
-0.229086 0.085210 0.0
-0.243014 0.078477 0.0
-0.257159 0.069610 0.0
-0.271275 0.058216 0.0
-0.285004 0.043882 0.0
-0.297855 0.026194 0.0
-0.309185 0.004778 0.0
-0.318196 -0.020621 0.0
-0.323905 -0.050092 0.0
-0.325230 -0.083315 0.0
-0.321109 -0.119543 0.0
-0.310512 -0.157478 0.0
-0.292486 -0.195235 0.0
-0.266222 -0.230275 0.0
-0.231283 -0.259313 0.0
-0.188036 -0.278350 0.0
-0.138232 -0.283016 0.0
-0.085610 -0.269450 0.0
-0.036336 -0.235903 0.0
0.001375 -0.184877 0.0
0.020417 -0.127267 0.0
0.022131 -0.077464 0.0
0.014457 -0.031529 0.0
0.004635 0.008193 0.0
-0.001163 0.031803 0.0
-0.004698 0.063180 0.0
-0.010026 0.077639 0.0
-0.016205 0.084007 0.0
-0.022779 0.086854 0.0
-0.029548 0.088344 0.0
-0.036443 0.089415 0.0
-0.043446 0.090433 0.0
-0.050568 0.091524 0.0
-0.057824 0.092724 0.0
-0.065237 0.094038 0.0
-0.072831 0.095458 0.0
-0.080634 0.096971 0.0
-0.088675 0.098560 0.0
-0.096990 0.100201 0.0
-0.105614 0.101867 0.0
-0.114589 0.103518 0.0
-0.123960 0.105107 0.0
-0.133776 0.106574 0.0
-0.144090 0.107844 0.0
-0.154958 0.108823 0.0
-0.166438 0.109395 0.0
-0.178586 0.109419 0.0
-0.191456 0.108718 0.0
-0.205092 0.107079 0.0
-0.219521 0.104243 0.0
-0.234741 0.099900 0.0
-0.250707 0.093680 0.0
-0.267308 0.085153 0.0
-0.284344 0.073825 0.0
-0.301495 0.059153 0.0
-0.318289 0.040568 0.0
-0.334085 0.017528 0.0
-0.348052 -0.010392 0.0
-0.359244 -0.043421 0.0
-0.366637 -0.081268 0.0
-0.369121 -0.123228 0.0
-0.365422 -0.168089 0.0
-0.353971 -0.214101 0.0
-0.332957 -0.258686 0.0
-0.300750 -0.298048 0.0
-0.256562 -0.327050 0.0
-0.201167 -0.339516 0.0
-0.137664 -0.329075 0.0
-0.072391 -0.290825 0.0
-0.015546 -0.224511 0.0
0.019160 -0.141381 0.0
0.026797 -0.072700 0.0
0.017900 -0.019721 0.0
0.005640 0.018468 0.0
-0.001113 0.034079 0.0
-0.004523 0.067848 0.0
-0.009696 0.083472 0.0
-0.015722 0.090379 0.0
-0.022145 0.093480 0.0
-0.028769 0.095112 0.0
-0.035520 0.096293 0.0
-0.042383 0.097422 0.0
-0.049368 0.098641 0.0
-0.056493 0.099989 0.0
-0.063781 0.101475 0.0
-0.071261 0.103095 0.0
-0.078964 0.104839 0.0
-0.086924 0.106693 0.0
-0.095182 0.108639 0.0
-0.103781 0.110652 0.0
-0.112772 0.112699 0.0
-0.122210 0.114736 0.0
-0.132160 0.116710 0.0
-0.142690 0.118551 0.0
-0.153877 0.120171 0.0
-0.165806 0.121455 0.0
-0.178564 0.122265 0.0
-0.192243 0.122421 0.0
-0.206933 0.121702 0.0
-0.222715 0.119831 0.0
-0.239651 0.116468 0.0
-0.257765 0.111193 0.0
-0.277025 0.103502 0.0
-0.297312 0.092799 0.0
-0.318387 0.078404 0.0
-0.339866 0.059590 0.0
-0.361219 0.035654 0.0
-0.381809 0.006039 0.0
-0.400957 -0.029512 0.0
-0.417771 -0.070969 0.0
-0.430995 -0.117820 0.0
-0.438769 -0.169421 0.0
-0.438362 -0.224628 0.0
-0.426548 -0.280987 0.0
-0.400444 -0.334058 0.0
-0.358291 -0.377382 0.0
-0.299957 -0.402913 0.0
-0.227461 -0.401676 0.0
-0.145970 -0.364987 0.0
-0.065573 -0.287591 0.0
-0.003054 -0.175527 0.0
0.023172 -0.072416 0.0
0.018570 -0.006507 0.0
0.005988 0.030096 0.0
-0.001059 0.036252 0.0
-0.004332 0.072358 0.0
-0.009337 0.089141 0.0
-0.015193 0.096591 0.0
-0.021450 0.099949 0.0
-0.027911 0.101726 0.0
-0.034500 0.103019 0.0
-0.041203 0.104262 0.0
-0.048028 0.105611 0.0
-0.054997 0.107112 0.0
-0.062133 0.108778 0.0
-0.069469 0.110607 0.0
-0.077036 0.112596 0.0
-0.084876 0.114735 0.0
-0.093032 0.117011 0.0
-0.101556 0.119404 0.0
-0.110506 0.121888 0.0
-0.119949 0.124429 0.0
-0.129962 0.126980 0.0
-0.140631 0.129481 0.0
-0.152055 0.131852 0.0
-0.164344 0.133991 0.0
-0.177621 0.135764 0.0
-0.192019 0.136999 0.0
-0.207682 0.137477 0.0
-0.224756 0.136913 0.0
-0.243382 0.134947 0.0
-0.263681 0.131126 0.0
-0.285732 0.124880 0.0
-0.309551 0.115525 0.0
-0.335064 0.102265 0.0
-0.362107 0.084252 0.0
-0.390447 0.060687 0.0
-0.419804 0.030953 0.0
-0.449747 -0.005334 0.0
-0.479482 -0.048597 0.0
-0.507152 -0.099298 0.0
-0.529436 -0.157885 0.0
-0.541994 -0.224014 0.0
-0.540433 -0.294975 0.0
-0.521422 -0.365184 0.0
-0.483057 -0.426773 0.0
-0.424731 -0.470183 0.0
-0.347247 -0.484386 0.0
-0.253715 -0.457301 0.0
-0.151562 -0.377828 0.0
-0.055947 -0.243424 0.0
0.003190 -0.089882 0.0
0.014614 0.004136 0.0
0.005283 0.041366 0.0
-0.001001 0.038312 0.0
-0.004126 0.076696 0.0
-0.008948 0.094630 0.0
-0.014618 0.102627 0.0
-0.020694 0.106247 0.0
-0.026974 0.108169 0.0
-0.033383 0.109574 0.0
-0.039904 0.110931 0.0
-0.046547 0.112410 0.0
-0.053333 0.114066 0.0
-0.060287 0.115915 0.0
-0.067443 0.117961 0.0
-0.074837 0.120204 0.0
-0.082510 0.122641 0.0
-0.090514 0.125265 0.0
-0.098904 0.128064 0.0
-0.107747 0.131021 0.0
-0.117118 0.134111 0.0
-0.127108 0.137300 0.0
-0.137818 0.140540 0.0
-0.149368 0.143767 0.0
-0.161895 0.146893 0.0
-0.175556 0.149801 0.0
-0.190531 0.152336 0.0
-0.207021 0.154292 0.0
-0.225246 0.155396 0.0
-0.245444 0.155288 0.0
-0.267857 0.153497 0.0
-0.292720 0.149424 0.0
-0.320250 0.142330 0.0
-0.350646 0.131370 0.0
-0.384121 0.115665 0.0
-0.420919 0.094411 0.0
-0.461201 0.066867 0.0
-0.504592 0.032086 0.0
-0.549409 -0.011466 0.0
-0.592138 -0.066030 0.0
-0.627680 -0.133326 0.0
-0.650624 -0.213071 0.0
-0.656760 -0.301343 0.0
-0.643608 -0.390979 0.0
-0.609859 -0.473092 0.0
-0.554615 -0.537435 0.0
-0.477308 -0.571925 0.0
-0.378512 -0.562089 0.0
-0.261988 -0.491718 0.0
-0.138918 -0.348219 0.0
-0.037491 -0.145651 0.0
0.004876 0.006116 0.0
0.003473 0.050122 0.0
-0.000939 0.040253 0.0
-0.003907 0.080848 0.0
-0.008532 0.099925 0.0
-0.014001 0.108472 0.0
-0.019879 0.112355 0.0
-0.025962 0.114423 0.0
-0.032171 0.115938 0.0
-0.038489 0.117407 0.0
-0.044925 0.119014 0.0
-0.051500 0.120822 0.0
-0.058240 0.122854 0.0
-0.065179 0.125117 0.0
-0.072356 0.127618 0.0
-0.079816 0.130360 0.0
-0.087610 0.133343 0.0
-0.095800 0.136565 0.0
-0.104458 0.140020 0.0
-0.113670 0.143695 0.0
-0.123533 0.147569 0.0
-0.134165 0.151614 0.0
-0.145703 0.155782 0.0
-0.158311 0.160011 0.0
-0.172178 0.164210 0.0
-0.187528 0.168252 0.0
-0.204623 0.171961 0.0
-0.223765 0.175095 0.0
-0.245299 0.177321 0.0
-0.269615 0.178193 0.0
-0.297153 0.177129 0.0
-0.328420 0.173422 0.0
-0.364028 0.166283 0.0
-0.404723 0.154920 0.0
-0.451249 0.138480 0.0
-0.503824 0.115655 0.0
-0.561138 0.084003 0.0
-0.619477 0.039774 0.0
-0.673079 -0.020940 0.0
-0.715964 -0.099990 0.0
-0.743646 -0.195780 0.0
-0.753589 -0.302555 0.0
-0.744754 -0.411754 0.0
-0.716485 -0.514335 0.0
-0.667530 -0.600391 0.0
-0.595883 -0.657922 0.0
-0.499470 -0.671300 0.0
-0.378063 -0.620439 0.0
-0.237244 -0.483387 0.0
-0.097214 -0.251940 0.0
-0.014684 -0.012492 0.0
0.000927 0.054521 0.0
-0.000874 0.042066 0.0
-0.003674 0.084802 0.0
-0.008089 0.105011 0.0
-0.013344 0.114111 0.0
-0.019009 0.118259 0.0
-0.024877 0.120470 0.0
-0.030868 0.122091 0.0
-0.036962 0.123665 0.0
-0.043166 0.125395 0.0
-0.049501 0.127350 0.0
-0.055994 0.129559 0.0
-0.062679 0.132036 0.0
-0.069594 0.134792 0.0
-0.076786 0.137838 0.0
-0.084309 0.141183 0.0
-0.092227 0.144835 0.0
-0.100617 0.148799 0.0
-0.109569 0.153078 0.0
-0.119189 0.157669 0.0
-0.129605 0.162562 0.0
-0.140970 0.167737 0.0
-0.153467 0.173161 0.0
-0.167316 0.178777 0.0
-0.182781 0.184501 0.0
-0.200180 0.190207 0.0
-0.219897 0.195708 0.0
-0.242391 0.200736 0.0
-0.268219 0.204922 0.0
-0.298068 0.207787 0.0
-0.332807 0.208770 0.0
-0.373538 0.207274 0.0
-0.421496 0.202582 0.0
-0.477532 0.193381 0.0
-0.541011 0.176808 0.0
-0.608669 0.147822 0.0
-0.674621 0.100247 0.0
-0.732079 0.029648 0.0
-0.775745 -0.064027 0.0
-0.803207 -0.176600 0.0
-0.814093 -0.300907 0.0
-0.808640 -0.427691 0.0
-0.786707 -0.548599 0.0
-0.746813 -0.654977 0.0
-0.685752 -0.736044 0.0
-0.598963 -0.776381 0.0
-0.482240 -0.753488 0.0
-0.335627 -0.637770 0.0
-0.171775 -0.401438 0.0
-0.044167 -0.073132 0.0
-0.000033 0.055416 0.0
-0.000806 0.043747 0.0
-0.003431 0.088546 0.0
-0.007624 0.109875 0.0
-0.012652 0.119530 0.0
-0.018089 0.123942 0.0
-0.023727 0.126293 0.0
-0.029481 0.128013 0.0
-0.035329 0.129685 0.0
-0.041277 0.131528 0.0
-0.047344 0.133620 0.0
-0.053557 0.135995 0.0
-0.059947 0.138675 0.0
-0.066554 0.141676 0.0
-0.073425 0.145016 0.0
-0.080613 0.148715 0.0
-0.088184 0.152792 0.0
-0.096215 0.157264 0.0
-0.104800 0.162150 0.0
-0.114049 0.167466 0.0
-0.124096 0.173228 0.0
-0.135105 0.179445 0.0
-0.147271 0.186117 0.0
-0.160837 0.193235 0.0
-0.176099 0.200769 0.0
-0.193422 0.208661 0.0
-0.213260 0.216808 0.0
-0.236182 0.225052 0.0
-0.262914 0.233166 0.0
-0.294396 0.240874 0.0
-0.331858 0.247883 0.0
-0.376779 0.253814 0.0
-0.430514 0.257736 0.0
-0.493294 0.257044 0.0
-0.562928 0.246258 0.0
-0.634297 0.217399 0.0
-0.700591 0.162915 0.0
-0.755654 0.079501 0.0
-0.795739 -0.030129 0.0
-0.820232 -0.158544 0.0
-0.830407 -0.297900 0.0
-0.827568 -0.438991 0.0
-0.812186 -0.574614 0.0
-0.782987 -0.698055 0.0
-0.736144 -0.800870 0.0
-0.665108 -0.869381 0.0
-0.561957 -0.880362 0.0
-0.421256 -0.798211 0.0
-0.247742 -0.578362 0.0
-0.074004 -0.197554 0.0
0.003158 0.058541 0.0
-0.000736 0.045289 0.0
-0.003179 0.092070 0.0
-0.007141 0.114506 0.0
-0.011929 0.124715 0.0
-0.017126 0.129390 0.0
-0.022519 0.131875 0.0
-0.028020 0.133686 0.0
-0.033603 0.135444 0.0
-0.039271 0.137386 0.0
-0.045043 0.139600 0.0
-0.050941 0.142126 0.0
-0.056999 0.144991 0.0
-0.063252 0.148219 0.0
-0.069746 0.151837 0.0
-0.076534 0.155871 0.0
-0.083679 0.160353 0.0
-0.091259 0.165314 0.0
-0.099366 0.170790 0.0
-0.108110 0.176819 0.0
-0.117627 0.183440 0.0
-0.128081 0.190696 0.0
-0.139676 0.198628 0.0
-0.152664 0.207278 0.0
-0.167357 0.216682 0.0
-0.184152 0.226867 0.0
-0.203553 0.237842 0.0
-0.226212 0.249600 0.0
-0.252988 0.262125 0.0
-0.285019 0.275429 0.0
-0.323753 0.289523 0.0
-0.370743 0.304086 0.0
-0.426956 0.317411 0.0
-0.491575 0.324767 0.0
-0.561057 0.317650 0.0
-0.629519 0.285839 0.0
-0.690584 0.221835 0.0
-0.739485 0.124544 0.0
-0.774145 -0.000427 0.0
-0.794758 -0.143140 0.0
-0.803304 -0.294582 0.0
-0.802135 -0.446317 0.0
-0.792487 -0.592318 0.0
-0.773900 -0.728137 0.0
-0.742857 -0.848674 0.0
-0.691698 -0.943771 0.0
-0.609217 -0.991603 0.0
-0.484274 -0.952613 0.0
-0.313238 -0.768510 0.0
-0.113431 -0.380952 0.0
-0.005177 0.056523 0.0
-0.000665 0.046690 0.0
-0.002921 0.095368 0.0
-0.006644 0.118894 0.0
-0.011184 0.129656 0.0
-0.016130 0.134592 0.0
-0.021266 0.137203 0.0
-0.026498 0.139091 0.0
-0.031797 0.140920 0.0
-0.037164 0.142945 0.0
-0.042614 0.145262 0.0
-0.048168 0.147917 0.0
-0.053854 0.150944 0.0
-0.059709 0.154374 0.0
-0.065773 0.158240 0.0
-0.072097 0.162580 0.0
-0.078741 0.167434 0.0
-0.085777 0.172849 0.0
-0.093295 0.178878 0.0
-0.101399 0.185579 0.0
-0.110219 0.193018 0.0
-0.119917 0.201270 0.0
-0.130689 0.210421 0.0
-0.142784 0.220567 0.0
-0.156514 0.231816 0.0
-0.172280 0.244293 0.0
-0.190603 0.258138 0.0
-0.212168 0.273527 0.0
-0.237892 0.290698 0.0
-0.268979 0.309975 0.0
-0.306872 0.331603 0.0
-0.352890 0.355014 0.0
-0.407388 0.377194 0.0
-0.468712 0.390928 0.0
-0.532801 0.385060 0.0
-0.594080 0.348168 0.0
-0.647231 0.273722 0.0
-0.688720 0.163046 0.0
-0.717344 0.024355 0.0
-0.733912 -0.130741 0.0
-0.740691 -0.291657 0.0
-0.740218 -0.450884 0.0
-0.734477 -0.603140 0.0
-0.724444 -0.745935 0.0
-0.708167 -0.878196 0.0
-0.678342 -0.995233 0.0
-0.621638 -1.079327 0.0
-0.522025 -1.089445 0.0
-0.369473 -0.955266 0.0
-0.176840 -0.586636 0.0
-0.037117 0.014229 0.0
-0.000593 0.047947 0.0
-0.002660 0.098434 0.0
-0.006140 0.123032 0.0
-0.010425 0.134344 0.0
-0.015112 0.139536 0.0
-0.019980 0.142263 0.0
-0.024931 0.144215 0.0
-0.029931 0.146096 0.0
-0.034977 0.148182 0.0
-0.040081 0.150577 0.0
-0.045261 0.153335 0.0
-0.050542 0.156495 0.0
-0.055956 0.160092 0.0
-0.061540 0.164170 0.0
-0.067340 0.168773 0.0
-0.073409 0.173954 0.0
-0.079815 0.179772 0.0
-0.086636 0.186294 0.0
-0.093970 0.193601 0.0
-0.101936 0.201782 0.0
-0.110678 0.210946 0.0
-0.120380 0.221219 0.0
-0.131269 0.232752 0.0
-0.143636 0.245728 0.0
-0.157857 0.260368 0.0
-0.174421 0.276950 0.0
-0.193982 0.295841 0.0
-0.217408 0.317534 0.0
-0.245804 0.342623 0.0
-0.280400 0.371444 0.0
-0.322126 0.402917 0.0
-0.370853 0.432515 0.0
-0.424660 0.450739 0.0
-0.479813 0.444491 0.0
-0.531698 0.401900 0.0
-0.576210 0.317653 0.0
-0.610789 0.195184 0.0
-0.634698 0.044751 0.0
-0.648679 -0.120588 0.0
-0.654491 -0.289220 0.0
-0.654195 -0.454090 0.0
-0.650146 -0.609723 0.0
-0.645071 -0.754460 0.0
-0.639809 -0.891211 0.0
-0.629301 -1.022551 0.0
-0.599886 -1.138128 0.0
-0.531711 -1.198432 0.0
-0.408399 -1.122143 0.0
-0.234502 -0.786288 0.0
-0.068728 -0.091615 0.0
-0.000521 0.049062 0.0
-0.002400 0.101265 0.0
-0.005635 0.126915 0.0
-0.009663 0.138774 0.0
-0.014085 0.144214 0.0
-0.018678 0.147046 0.0
-0.023338 0.149043 0.0
-0.028026 0.150956 0.0
-0.032735 0.153077 0.0
-0.037472 0.155522 0.0
-0.042253 0.158351 0.0
-0.047098 0.161606 0.0
-0.052034 0.165331 0.0
-0.057092 0.169574 0.0
-0.062313 0.174389 0.0
-0.067742 0.179837 0.0
-0.073437 0.185989 0.0
-0.079466 0.192927 0.0
-0.085911 0.200747 0.0
-0.092874 0.209564 0.0
-0.100480 0.219512 0.0
-0.108883 0.230757 0.0
-0.118276 0.243497 0.0
-0.128907 0.257981 0.0
-0.141091 0.274520 0.0
-0.155244 0.293516 0.0
-0.171912 0.315505 0.0
-0.191807 0.341190 0.0
-0.215794 0.371350 0.0
-0.244763 0.406282 0.0
-0.279268 0.444310 0.0
-0.318993 0.479573 0.0
-0.362346 0.500840 0.0
-0.406547 0.493745 0.0
-0.448313 0.446298 0.0
-0.484750 0.354204 0.0
-0.514005 0.222467 0.0
-0.535418 0.062789 0.0
-0.549124 -0.110939 0.0
-0.555700 -0.286481 0.0
-0.556056 -0.456768 0.0
-0.552319 -0.614832 0.0
-0.548643 -0.758101 0.0
-0.549111 -0.892365 0.0
-0.552564 -1.028453 0.0
-0.547086 -1.167120 0.0
-0.509887 -1.274814 0.0
-0.416998 -1.261963 0.0
-0.261308 -0.976054 0.0
-0.084294 -0.244637 0.0
-0.000452 0.050035 0.0
-0.002146 0.103864 0.0
-0.005138 0.130544 0.0
-0.008908 0.142943 0.0
-0.013065 0.148624 0.0
-0.017379 0.151544 0.0
-0.021741 0.153567 0.0
-0.026108 0.155486 0.0
-0.030466 0.157614 0.0
-0.034820 0.160076 0.0
-0.039180 0.162938 0.0
-0.043563 0.166247 0.0
-0.047988 0.170052 0.0
-0.052483 0.174406 0.0
-0.057077 0.179371 0.0
-0.061809 0.185016 0.0
-0.066725 0.191420 0.0
-0.071878 0.198677 0.0
-0.077334 0.206898 0.0
-0.083171 0.216214 0.0
-0.089485 0.226783 0.0
-0.096395 0.238799 0.0
-0.104047 0.252500 0.0
-0.112623 0.268184 0.0
-0.122355 0.286233 0.0
-0.133542 0.307143 0.0
-0.146565 0.331569 0.0
-0.161895 0.360351 0.0
-0.180073 0.394355 0.0
-0.201598 0.433772 0.0
-0.226730 0.476457 0.0
-0.255240 0.515663 0.0
-0.286262 0.539125 0.0
-0.318350 0.531750 0.0
-0.349761 0.481469 0.0
-0.378828 0.384537 0.0
-0.404255 0.246817 0.0
-0.425146 0.080744 0.0
-0.440664 -0.099670 0.0
-0.449891 -0.281948 0.0