# vtk DataFile Version 3.0
Scalar Field
ASCII
DATASET RECTILINEAR_GRID
DIMENSIONS 50 50 1
X_COORDINATES 50 double
0.100000 0.300000 0.500000 0.700000 0.900000 1.100000 1.300000 1.500000 1.700000 1.900000 2.100000 2.300000 2.500000 2.700000 2.900000 3.100000 3.300000 3.500000 3.700000 3.900000 4.100000 4.300000 4.500000 4.700000 4.900000 5.100000 5.300000 5.500000 5.700000 5.900000 6.100000 6.300000 6.500000 6.700000 6.900000 7.100000 7.300000 7.500000 7.700000 7.900000 8.100000 8.300000 8.500000 8.700000 8.900000 9.100000 9.300000 9.500000 9.700000 9.900000 
Y_COORDINATES 50 double
0.100000 0.300000 0.500000 0.700000 0.900000 1.100000 1.300000 1.500000 1.700000 1.900000 2.100000 2.300000 2.500000 2.700000 2.900000 3.100000 3.300000 3.500000 3.700000 3.900000 4.100000 4.300000 4.500000 4.700000 4.900000 5.100000 5.300000 5.500000 5.700000 5.900000 6.100000 6.300000 6.500000 6.700000 6.900000 7.100000 7.300000 7.500000 7.700000 7.900000 8.100000 8.300000 8.500000 8.700000 8.900000 9.100000 9.300000 9.500000 9.700000 9.900000 
Z_COORDINATES 1 double
0.0
POINT_DATA 2500
SCALARS Skalarfeld double 1
LOOKUP_TABLE default
-0.048025
-0.048002
-0.047877
-0.047650
-0.047319
-0.046888
-0.046356
-0.045727
-0.045001
-0.044181
-0.043270
-0.042271
-0.041187
-0.040022
-0.038780
-0.037465
-0.036081
-0.034635
-0.033130
-0.031573
-0.029969
-0.028324
-0.026646
-0.024939
-0.023212
-0.021471
-0.019724
-0.017977
-0.016238
-0.014515
-0.012816
-0.011147
-0.009516
-0.007932
-0.006401
-0.004930
-0.003528
-0.002200
-0.000954
0.000205
0.001270
0.002236
0.003098
0.003851
0.004491
0.005015
0.005420
0.005704
0.005864
0.005902
-0.048048
-0.048026
-0.047901
-0.047673
-0.047343
-0.046911
-0.046380
-0.045750
-0.045024
-0.044205
-0.043294
-0.042294
-0.041210
-0.040044
-0.038802
-0.037486
-0.036102
-0.034654
-0.033148
-0.031590
-0.029985
-0.028339
-0.026659
-0.024951
-0.023222
-0.021479
-0.019729
-0.017980
-0.016239
-0.014514
-0.012812
-0.011140
-0.009507
-0.007920
-0.006387
-0.004914
-0.003509
-0.002179
-0.000930
0.000231
0.001298
0.002266
0.003129
0.003884
0.004525
0.005050
0.005456
0.005740
0.005902
0.005940
-0.048176
-0.048154
-0.048029
-0.047800
-0.047469
-0.047036
-0.046503
-0.045872
-0.045144
-0.044321
-0.043407
-0.042404
-0.041315
-0.040145
-0.038897
-0.037576
-0.036186
-0.034732
-0.033220
-0.031654
-0.030042
-0.028388
-0.026700
-0.024983
-0.023245
-0.021493
-0.019734
-0.017976
-0.016225
-0.014490
-0.012778
-0.011096
-0.009453
-0.007856
-0.006313
-0.004831
-0.003417
-0.002078
-0.000821
0.000348
0.001423
0.002397
0.003267
0.004027
0.004673
0.005202
0.005611
0.005897
0.006060
0.006098
-0.048410
-0.048388
-0.048263
-0.048033
-0.047700
-0.047264
-0.046728
-0.046092
-0.045359
-0.044530
-0.043610
-0.042600
-0.041503
-0.040325
-0.039067
-0.037736
-0.036335
-0.034870
-0.033345
-0.031767
-0.030140
-0.028472
-0.026769
-0.025037
-0.023283
-0.021515
-0.019739
-0.017964
-0.016196
-0.014443
-0.012713
-0.011014
-0.009354
-0.007740
-0.006179
-0.004680
-0.003250
-0.001896
-0.000624
0.000559
0.001646
0.002633
0.003513
0.004282
0.004937
0.005472
0.005886
0.006176
0.006340
0.006378
-0.048751
-0.048729
-0.048603
-0.048371
-0.048035
-0.047595
-0.047054
-0.046411
-0.045671
-0.044834
-0.043904
-0.042883
-0.041775
-0.040584
-0.039313
-0.037966
-0.036550
-0.035067
-0.033524
-0.031927
-0.030281
-0.028592
-0.026867
-0.025113
-0.023336
-0.021544
-0.019744
-0.017944
-0.016151
-0.014373
-0.012618
-0.010894
-0.009208
-0.007570
-0.005985
-0.004462
-0.003009
-0.001633
-0.000340
0.000862
0.001968
0.002972
0.003867
0.004650
0.005316
0.005861
0.006282
0.006578
0.006745
0.006784
-0.049199
-0.049178
-0.049050
-0.048816
-0.048475
-0.048030
-0.047482
-0.046832
-0.046081
-0.045233
-0.044291
-0.043256
-0.042132
-0.040924
-0.039634
-0.038268
-0.036830
-0.035325
-0.033759
-0.032137
-0.030464
-0.028748
-0.026995
-0.025211
-0.023404
-0.021581
-0.019750
-0.017917
-0.016092
-0.014281
-0.012493
-0.010736
-0.009017
-0.007346
-0.005730
-0.004176
-0.002693
-0.001287
0.000033
0.001261
0.002391
0.003417
0.004332
0.005133
0.005814
0.006371
0.006802
0.007104
0.007276
0.007315
-0.049757
-0.049736
-0.049606
-0.049369
-0.049023
-0.048571
-0.048014
-0.047354
-0.046591
-0.045729
-0.044771
-0.043718
-0.042576
-0.041346
-0.040034
-0.038643
-0.037179
-0.035646
-0.034050
-0.032397
-0.030692
-0.028942
-0.027153
-0.025333
-0.023489
-0.021627
-0.019756
-0.017884
-0.016018
-0.014166
-0.012337
-0.010539
-0.008780
-0.007068
-0.005413
-0.003820
-0.002300
-0.000859
0.000496
0.001756
0.002916
0.003969
0.004910
0.005732
0.006432
0.007005
0.007448
0.007759
0.007935
0.007976
-0.050426
-0.050405
-0.050274
-0.050032
-0.049680
-0.049220
-0.048653
-0.047980
-0.047203
-0.046324
-0.045347
-0.044273
-0.043107
-0.041852
-0.040513
-0.039093
-0.037597
-0.036031
-0.034399
-0.032709
-0.030965
-0.029174
-0.027344
-0.025480
-0.023591
-0.021683
-0.019765
-0.017845
-0.015930
-0.014029
-0.012151
-0.010304
-0.008496
-0.006736
-0.005033
-0.003395
-0.001829
-0.000345
0.001051
0.002350
0.003546
0.004632
0.005603
0.006452
0.007174
0.007766
0.008224
0.008545
0.008727
0.008770
-0.051209
-0.051188
-0.051054
-0.050807
-0.050449
-0.049979
-0.049400
-0.048712
-0.047918
-0.047020
-0.046020
-0.044922
-0.043729
-0.042445
-0.041074
-0.039619
-0.038087
-0.036482
-0.034809
-0.033075
-0.031286
-0.029448
-0.027568
-0.025653
-0.023711
-0.021750
-0.019777
-0.017801
-0.015829
-0.013871
-0.011935
-0.010031
-0.008165
-0.006349
-0.004590
-0.002897
-0.001279
0.000256
0.001700
0.003045
0.004284
0.005409
0.006415
0.007295
0.008044
0.008658
0.009133
0.009467
0.009656
0.009701
-0.052107
-0.052086
-0.051950
-0.051698
-0.051331
-0.050851
-0.050257
-0.049553
-0.048740
-0.047819
-0.046794
-0.045669
-0.044445
-0.043127
-0.041719
-0.040225
-0.038651
-0.037001
-0.035281
-0.033497
-0.031656
-0.029764
-0.027827
-0.025854
-0.023852
-0.021829
-0.019793
-0.017752
-0.015715
-0.013691
-0.011689
-0.009718
-0.007787
-0.005906
-0.004082
-0.002327
-0.000648
0.000946
0.002446
0.003844
0.005132
0.006302
0.007349
0.008265
0.009046
0.009686
0.010181
0.010529
0.010726
0.010774
-0.053124
-0.053104
-0.052964
-0.052707
-0.052331
-0.051838
-0.051229
-0.050506
-0.049671
-0.048725
-0.047672
-0.046515
-0.045256
-0.043900
-0.042451
-0.040913
-0.039292
-0.037591
-0.035818
-0.033979
-0.032078
-0.030125
-0.028125
-0.026086
-0.024015
-0.021922
-0.019814
-0.017700
-0.015590
-0.013491
-0.011414
-0.009368
-0.007362
-0.005405
-0.003509
-0.001682
0.000067
0.001728
0.003292
0.004750
0.006094
0.007317
0.008411
0.009369
0.010185
0.010854
0.011373
0.011737
0.011945
0.011994
-0.054263
-0.054243
-0.054101
-0.053836
-0.053450
-0.052944
-0.052318
-0.051575
-0.050715
-0.049742
-0.048657
-0.047465
-0.046168
-0.044769
-0.043275
-0.041687
-0.040013
-0.038256
-0.036424
-0.034522
-0.032556
-0.030533
-0.028462
-0.026349
-0.024202
-0.022031
-0.019843
-0.017647
-0.015453
-0.013271
-0.011109
-0.008978
-0.006887
-0.004848
-0.002869
-0.000960
0.000867
0.002604
0.004240
0.005767
0.007176
0.008457
0.009604
0.010610
0.011467
0.012170
0.012715
0.013098
0.013317
0.013370
-0.055529
-0.055509
-0.055363
-0.055091
-0.054694
-0.054173
-0.053528
-0.052762
-0.051876
-0.050872
-0.049753
-0.048522
-0.047182
-0.045738
-0.044192
-0.042551
-0.040818
-0.038999
-0.037101
-0.035129
-0.033091
-0.030993
-0.028842
-0.026647
-0.024416
-0.022157
-0.019880
-0.017594
-0.015307
-0.013031
-0.010775
-0.008549
-0.006364
-0.004231
-0.002159
-0.000161
0.001755
0.003577
0.005295
0.006899
0.008380
0.009729
0.010936
0.011995
0.012899
0.013641
0.014216
0.014620
0.014851
0.014908
-0.056924
-0.056904
-0.056755
-0.056475
-0.056066
-0.055529
-0.054864
-0.054073
-0.053158
-0.052121
-0.050964
-0.049691
-0.048305
-0.046809
-0.045209
-0.043507
-0.041711
-0.039824
-0.037854
-0.035806
-0.033688
-0.031506
-0.029268
-0.026983
-0.024659
-0.022304
-0.019929
-0.017542
-0.015153
-0.012773
-0.010413
-0.008082
-0.005793
-0.003555
-0.001380
0.000720
0.002734
0.004651
0.006460
0.008151
0.009713
0.011137
0.012413
0.013532
0.014488
0.015273
0.015882
0.016311
0.016556
0.016616
-0.058453
-0.058434
-0.058281
-0.057993
-0.057571
-0.057017
-0.056330
-0.055512
-0.054566
-0.053493
-0.052295
-0.050977
-0.049540
-0.047989
-0.046328
-0.044562
-0.042696
-0.040736
-0.038687
-0.036556
-0.034350
-0.032077
-0.029744
-0.027360
-0.024934
-0.022474
-0.019991
-0.017493
-0.014992
-0.012499
-0.010023
-0.007577
-0.005171
-0.002818
-0.000530
0.001682
0.003806
0.005829
0.007741
0.009528
0.011181
0.012689
0.014041
0.015228
0.016242
0.017076
0.017723
0.018179
0.018441
0.018506
-0.060121
-0.060103
-0.059946
-0.059649
-0.059214
-0.058641
-0.057931
-0.057085
-0.056105
-0.054993
-0.053752
-0.052384
-0.050893
-0.049282
-0.047556
-0.045720
-0.043779
-0.041738
-0.039604
-0.037383
-0.035082
-0.032710
-0.030274
-0.027782
-0.025245
-0.022670
-0.020069
-0.017451
-0.014827
-0.012209
-0.009607
-0.007033
-0.004501
-0.002021
0.000393
0.002730
0.004974
0.007116
0.009140
0.011035
0.012789
0.014391
0.015828
0.017091
0.018171
0.019060
0.019751
0.020237
0.020517
0.020587
-0.061933
-0.061916
-0.061755
-0.061449
-0.061000
-0.060407
-0.059672
-0.058796
-0.057780
-0.056627
-0.055339
-0.053918
-0.052369
-0.050694
-0.048899
-0.046987
-0.044964
-0.042837
-0.040611
-0.038292
-0.035889
-0.033410
-0.030861
-0.028253
-0.025595
-0.022896
-0.020167
-0.017417
-0.014660
-0.011905
-0.009165
-0.006453
-0.003781
-0.001162
0.001391
0.003864
0.006243
0.008514
0.010664
0.012679
0.014545
0.016251
0.017784
0.019132
0.020286
0.021236
0.021975
0.022496
0.022796
0.022873
-0.063895
-0.063879
-0.063714
-0.063399
-0.062934
-0.062321
-0.061560
-0.060652
-0.059598
-0.058401
-0.057063
-0.055586
-0.053975
-0.052232
-0.050361
-0.048369
-0.046259
-0.044038
-0.041713
-0.039290
-0.036777
-0.034181
-0.031512
-0.028778
-0.025989
-0.023156
-0.020287
-0.017396
-0.014493
-0.011590
-0.008701
-0.005837
-0.003012
-0.000240
0.002464
0.005087
0.007613
0.010028
0.012317
0.014464
0.016456
0.018278
0.019917
0.021361
0.022597
0.023616
0.024409
0.024970
0.025293
0.025376
-0.066012
-0.065998
-0.065828
-0.065504
-0.065024
-0.064389
-0.063600
-0.062659
-0.061565
-0.060322
-0.058931
-0.057395
-0.055717
-0.053901
-0.051951
-0.049872
-0.047669
-0.045349
-0.042917
-0.040382
-0.037750
-0.035030
-0.032231
-0.029362
-0.026432
-0.023453
-0.020436
-0.017390
-0.014330
-0.011267
-0.008214
-0.005185
-0.002195
0.000744
0.003614
0.006401
0.009090
0.011663
0.014104
0.016399
0.018530
0.020481
0.022239
0.023789
0.025118
0.026214
0.027068
0.027673
0.028022
0.028113
-0.068291
-0.068279
-0.068105
-0.067771
-0.067275
-0.066618
-0.065801
-0.064824
-0.063689
-0.062397
-0.060950
-0.059351
-0.057603
-0.055709
-0.053675
-0.051504
-0.049202
-0.046775
-0.044230
-0.041575
-0.038816
-0.035963
-0.033024
-0.030010
-0.026930
-0.023794
-0.020615
-0.017405
-0.014175
-0.010938
-0.007709
-0.004502
-0.001330
0.001789
0.004841
0.007808
0.010674
0.013422
0.016033
0.018489
0.020774
0.022870
0.024761
0.026429
0.027862
0.029045
0.029968
0.030622
0.031001
0.031101
-0.070738
-0.070729
-0.070551
-0.070207
-0.069695
-0.069015
-0.068168
-0.067155
-0.065976
-0.064633
-0.063128
-0.061463
-0.059641
-0.057665
-0.055541
-0.053272
-0.050865
-0.048325
-0.045659
-0.042876
-0.039982
-0.036986
-0.033899
-0.030729
-0.027487
-0.024184
-0.020832
-0.017444
-0.014031
-0.010608
-0.007188
-0.003787
-0.000420
0.002896
0.006145
0.009310
0.012371
0.015309
0.018107
0.020743
0.023200
0.025456
0.027494
0.029296
0.030845
0.032126
0.033127
0.033837
0.034248
0.034360
-0.073361
-0.073354
-0.073173
-0.072819
-0.072290
-0.071588
-0.070711
-0.069660
-0.068436
-0.067040
-0.065474
-0.063739
-0.061839
-0.059777
-0.057558
-0.055186
-0.052667
-0.050007
-0.047213
-0.044293
-0.041255
-0.038108
-0.034861
-0.031525
-0.028111
-0.024629
-0.021092
-0.017513
-0.013904
-0.010280
-0.006656
-0.003046
0.000533
0.004063
0.007527
0.010906
0.014180
0.017329
0.020333
0.023168
0.025814
0.028250
0.030453
0.032404
0.034084
0.035476
0.036564
0.037338
0.037787
0.037910
-0.076165
-0.076162
-0.075979
-0.075615
-0.075070
-0.074344
-0.073437
-0.072348
-0.071077
-0.069626
-0.067996
-0.066189
-0.064207
-0.062055
-0.059735
-0.057254
-0.054617
-0.051829
-0.048899
-0.045834
-0.042643
-0.039335
-0.035919
-0.032407
-0.028809
-0.025136
-0.021402
-0.017618
-0.013800
-0.009961
-0.006116
-0.002281
0.001526
0.005287
0.008985
0.012598
0.016105
0.019486
0.022715
0.025771
0.028628
0.031263
0.033652
0.035771
0.037599
0.039115
0.040303
0.041148
0.041641
0.041778
-0.079160
-0.079161
-0.078976
-0.078603
-0.078043
-0.077294
-0.076355
-0.075227
-0.073909
-0.072401
-0.070705
-0.068822
-0.066755
-0.064508
-0.062083
-0.059487
-0.056725
-0.053803
-0.050728
-0.047510
-0.044157
-0.040677
-0.037082
-0.033382
-0.029588
-0.025712
-0.021767
-0.017767
-0.013724
-0.009655
-0.005574
-0.001498
0.002555
0.006567
0.010517
0.014385
0.018147
0.021781
0.025260
0.028559
0.031652
0.034509
0.037106
0.039414
0.041409
0.043067
0.044368
0.045296
0.045838
0.045991
-0.082352
-0.082359
-0.082172
-0.081791
-0.081216
-0.080444
-0.079475
-0.078308
-0.076941
-0.075375
-0.073611
-0.071650
-0.069495
-0.067147
-0.064613
-0.061895
-0.059001
-0.055937
-0.052710
-0.049330
-0.045804
-0.042144
-0.038358
-0.034459
-0.030457
-0.026366
-0.022198
-0.017966
-0.013685
-0.009370
-0.005037
-0.000702
0.003615
0.007896
0.012120
0.016265
0.020305
0.024216
0.027971
0.031540
0.034894
0.038001
0.040831
0.043353
0.045538
0.047358
0.048789
0.049811
0.050410
0.050582
-0.085749
-0.085763
-0.085576
-0.085189
-0.084600
-0.083807
-0.082807
-0.081601
-0.080185
-0.078561
-0.076727
-0.074685
-0.072437
-0.069986
-0.067336
-0.064491
-0.061458
-0.058244
-0.054856
-0.051304
-0.047597
-0.043744
-0.039757
-0.035647
-0.031426
-0.027106
-0.022701
-0.018224
-0.013690
-0.009114
-0.004512
0.000099
0.004700
0.009271
0.013790
0.018235
0.022578
0.026794
0.030852
0.034720
0.038365
0.041752
0.044846
0.047610
0.050011
0.052016
0.053596
0.054727
0.055393
0.055586
-0.089360
-0.089382
-0.089197
-0.088805
-0.088204
-0.087391
-0.086363
-0.085118
-0.083654
-0.081970
-0.080065
-0.077940
-0.075596
-0.073036
-0.070265
-0.067287
-0.064108
-0.060735
-0.057178
-0.053444
-0.049545
-0.045489
-0.041289
-0.036957
-0.032504
-0.027943
-0.023287
-0.018551
-0.013748
-0.008895
-0.004007
0.000898
0.005801
0.010683
0.015521
0.020290
0.024963
0.029512
0.033904
0.038103
0.042074
0.045775
0.049167
0.052207
0.054856
0.057074
0.058826
0.060084
0.060827
0.061046
-0.093193
-0.093225
-0.093044
-0.092650
-0.092038
-0.091207
-0.090153
-0.088871
-0.087359
-0.085615
-0.083638
-0.081428
-0.078985
-0.076313
-0.073415
-0.070296
-0.066964
-0.063425
-0.059688
-0.055763
-0.051660
-0.047391
-0.042966
-0.038399
-0.033701
-0.028885
-0.023966
-0.018956
-0.013870
-0.008724
-0.003534
0.001684
0.006910
0.012124
0.017303
0.022423
0.027455
0.032368
0.037127
0.041694
0.046028
0.050083
0.053813
0.057169
0.060103
0.062567
0.064521
0.065927
0.066760
0.067010
-0.097256
-0.097301
-0.097126
-0.096732
-0.096114
-0.095268
-0.094190
-0.092873
-0.091316
-0.089513
-0.087463
-0.085165
-0.082621
-0.079831
-0.076801
-0.073535
-0.070041
-0.066326
-0.062399
-0.058272
-0.053955
-0.049460
-0.044799
-0.039984
-0.035028
-0.029945
-0.024748
-0.019450
-0.014067
-0.008612
-0.003103
0.002446
0.008014
0.013582
0.019127
0.024624
0.030044
0.035355
0.040518
0.045493
0.050233
0.054688
0.058803
0.062521
0.065785
0.068537
0.070726
0.072308
0.073248
0.073535
-0.101557
-0.101617
-0.101452
-0.101062
-0.100442
-0.099586
-0.098488
-0.097140
-0.095539
-0.093678
-0.091556
-0.089169
-0.086520
-0.083608
-0.080440
-0.077019
-0.073354
-0.069453
-0.065327
-0.060986
-0.056443
-0.051709
-0.046798
-0.041723
-0.036497
-0.031133
-0.025645
-0.020046
-0.014350
-0.008572
-0.002727
0.003170
0.009100
0.015043
0.020979
0.026881
0.032720
0.038463
0.044070
0.049497
0.054692
0.059599
0.064154
0.068290
0.071938
0.075028
0.077496
0.079286
0.080354
0.080686
-0.106105
-0.106183
-0.106032
-0.105652
-0.105035
-0.104174
-0.103061
-0.101687
-0.100045
-0.098130
-0.095935
-0.093459
-0.090701
-0.087663
-0.084349
-0.080766
-0.076921
-0.072823
-0.068485
-0.063919
-0.059136
-0.054151
-0.048978
-0.043629
-0.038119
-0.032461
-0.026668
-0.020754
-0.014732
-0.008616
-0.002420
0.003841
0.010151
0.016491
0.022840
0.029175
0.035465
0.041677
0.047771
0.053698
0.059403
0.064821
0.069880
0.074501
0.078599
0.082090
0.084891
0.086932
0.088156
0.088544
-0.110907
-0.111007
-0.110875
-0.110511
-0.109904
-0.109046
-0.107925
-0.106532
-0.104855
-0.102887
-0.100622
-0.098055
-0.095186
-0.092016
-0.088550
-0.084795
-0.080759
-0.076453
-0.071891
-0.067085
-0.062049
-0.056799
-0.051349
-0.045713
-0.039905
-0.033939
-0.027829
-0.021587
-0.015226
-0.008759
-0.002198
0.004443
0.011150
0.017906
0.024692
0.031485
0.038258
0.044977
0.051602
0.058082
0.064357
0.070355
0.075994
0.081180
0.085810
0.089779
0.092983
0.095329
0.096744
0.097201
-0.115969
-0.116097
-0.115991
-0.115650
-0.115063
-0.114218
-0.113099
-0.111693
-0.109988
-0.107973
-0.105639
-0.102982
-0.099998
-0.096691
-0.093065
-0.089127
-0.084888
-0.080361
-0.075560
-0.070499
-0.065196
-0.059665
-0.053923
-0.047985
-0.041867
-0.035580
-0.029140
-0.022558
-0.015846
-0.009015
-0.002077
0.004957
0.012075
0.019264
0.026507
0.033783
0.041069
0.048334
0.055535
0.062624
0.069537
0.076194
0.082501
0.088347
0.093610
0.098156
0.101851
0.104575
0.106229
0.106772
-0.121299
-0.121460
-0.121389
-0.121082
-0.120527
-0.119705
-0.118601
-0.117194
-0.115470
-0.113413
-0.111014
-0.108266
-0.105165
-0.101713
-0.097917
-0.093785
-0.089330
-0.084566
-0.079509
-0.074178
-0.068589
-0.062762
-0.056713
-0.050458
-0.044014
-0.037394
-0.030612
-0.023679
-0.016605
-0.009401
-0.002076
0.005362
0.012904
0.020540
0.028256
0.036038
0.043865
0.051710
0.059535
0.067290
0.074912
0.082315
0.089393
0.096018
0.102038
0.107287
0.111591
0.114787
0.116743
0.117399
-0.126901
-0.127103
-0.127077
-0.126818
-0.126309
-0.125528
-0.124453
-0.123059
-0.121327
-0.119238
-0.116778
-0.113938
-0.110716
-0.107112
-0.103135
-0.098795
-0.094106
-0.089087
-0.083757
-0.078136
-0.072244
-0.066101
-0.059727
-0.053141
-0.046357
-0.039391
-0.032255
-0.024961
-0.017517
-0.009932
-0.002212
0.005638
0.013611
0.021703
0.029905
0.038209
0.046600
0.055056
0.063548
0.072029
0.080436
0.088682
0.096650
0.104192
0.111126
0.117241
0.122309
0.126107
0.128452
0.129258
-0.132779
-0.133032
-0.133064
-0.132869
-0.132426
-0.131706
-0.130680
-0.129318
-0.127592
-0.125480
-0.122965
-0.120034
-0.116686
-0.112921
-0.108748
-0.104183
-0.099242
-0.093947
-0.088321
-0.082388
-0.076171
-0.069693
-0.062977
-0.056040
-0.048902
-0.041577
-0.034078
-0.026413
-0.018592
-0.010621
-0.002502
0.005762
0.014169
0.022721
0.031416
0.040251
0.049221
0.058314
0.067508
0.076768
0.086037
0.095230
0.104224
0.112851
0.120893
0.128085
0.134126
0.138707
0.141566
0.142573
-0.138935
-0.139250
-0.139358
-0.139249
-0.138896
-0.138264
-0.137312
-0.136003
-0.134303
-0.132182
-0.129617
-0.126596
-0.123115
-0.119176
-0.114792
-0.109980
-0.104763
-0.099167
-0.093219
-0.086948
-0.080382
-0.073547
-0.066467
-0.059164
-0.051656
-0.043959
-0.036086
-0.028044
-0.019842
-0.011482
-0.002964
0.005712
0.014552
0.023561
0.032745
0.042112
0.051666
0.061408
0.071331
0.081415
0.091617
0.101861
0.112028
0.121936
0.131330
0.139877
0.147176
0.152797
0.156351
0.157636
-0.145369
-0.145762
-0.145965
-0.145970
-0.145739
-0.145226
-0.144382
-0.143156
-0.141505
-0.139390
-0.136784
-0.133672
-0.130049
-0.125921
-0.121303
-0.116218
-0.110696
-0.104769
-0.098469
-0.091831
-0.084888
-0.077670
-0.070203
-0.062514
-0.054620
-0.046539
-0.038283
-0.029859
-0.021273
-0.012525
-0.003613
0.005470
0.014733
0.024187
0.033849
0.043736
0.053864
0.064252
0.074912
0.085846
0.097036
0.108430
0.119924
0.131336
0.142380
0.152645
0.161599
0.168629
0.173151
0.174838
-0.152078
-0.152568
-0.152894
-0.153046
-0.152977
-0.152627
-0.151931
-0.150825
-0.149252
-0.147163
-0.144526
-0.141320
-0.137543
-0.133204
-0.128325
-0.122935
-0.117072
-0.110775
-0.104087
-0.097047
-0.089694
-0.082064
-0.074187
-0.066089
-0.057793
-0.049316
-0.040669
-0.031859
-0.022889
-0.013758
-0.004459
0.005017
0.014686
0.024567
0.034684
0.045064
0.055740
0.066748
0.078126
0.089907
0.102111
0.114728
0.127693
0.140848
0.153896
0.166352
0.177516
0.186507
0.192424
0.194713
-0.159060
-0.159669
-0.160150
-0.160493
-0.160636
-0.160502
-0.160008
-0.159069
-0.157611
-0.155572
-0.152913
-0.149610
-0.145661
-0.141083
-0.135906
-0.130169
-0.123920
-0.117209
-0.110088
-0.102604
-0.094805
-0.086729
-0.078413
-0.069885
-0.061169
-0.052283
-0.043238
-0.034040
-0.024690
-0.015183
-0.005511
0.004342
0.014394
0.024672
0.035207
0.046038
0.057214
0.068790
0.080834
0.093416
0.106609
0.120470
0.135006
0.150132
0.165585
0.180833
0.194984
0.206775
0.214779
0.218021
-0.166310
-0.167067
-0.167742
-0.168327
-0.168746
-0.168899
-0.168674
-0.167962
-0.166665
-0.164706
-0.162033
-0.158624
-0.154479
-0.149624
-0.144100
-0.137962
-0.131271
-0.124091
-0.116483
-0.108508
-0.100218
-0.091660
-0.082873
-0.073890
-0.064736
-0.055429
-0.045980
-0.036393
-0.026668
-0.016797
-0.006769
0.003436
0.013841
0.024478
0.035385
0.046610
0.058214
0.070274
0.082885
0.096164
0.110247
0.125281
0.141397
0.158648
0.176901
0.195666
0.213880
0.229765
0.241027
0.245888
-0.173830
-0.174767
-0.175681
-0.176572
-0.177347
-0.177874
-0.178007
-0.177598
-0.176520
-0.174673
-0.171996
-0.168464
-0.164086
-0.158901
-0.152968
-0.146360
-0.139156
-0.131438
-0.123281
-0.114756
-0.105925
-0.096842
-0.087552
-0.078087
-0.068476
-0.058736
-0.048878
-0.038904
-0.028812
-0.018592
-0.008228
0.002301
0.013024
0.023974
0.035194
0.046740
0.058681
0.071108
0.084141
0.097938
0.112706
0.128704
0.146231
0.165579
0.186899
0.209945
0.233647
0.255630
0.272207
0.280048
-0.181634
-0.182787
-0.183984
-0.185253
-0.186482
-0.187498
-0.188102
-0.188096
-0.187310
-0.185615
-0.182937
-0.179255
-0.174590
-0.169002
-0.162576
-0.155409
-0.147605
-0.139264
-0.130481
-0.121339
-0.111911
-0.102257
-0.092424
-0.082450
-0.072363
-0.062178
-0.051907
-0.041551
-0.031103
-0.020551
-0.009876
0.000946
0.011945
0.023158
0.034629
0.046413
0.058582
0.071231
0.084493
0.098553
0.113676
0.130229
0.148715
0.169760
0.194022
0.221881
0.252733
0.283830
0.309442
0.323242
-0.189776
-0.191173
-0.192682
-0.194402
-0.196205
-0.197858
-0.199086
-0.199612
-0.199208
-0.197709
-0.195027
-0.191148
-0.186118
-0.180027
-0.172996
-0.165155
-0.156639
-0.147575
-0.138075
-0.128239
-0.118149
-0.107871
-0.097457
-0.086945
-0.076361
-0.065723
-0.055038
-0.044304
-0.033513
-0.022650
-0.011692
-0.000612
0.010622
0.022047
0.033703
0.045640
0.057921
0.070633
0.083898
0.097900
0.112919
0.129389
0.147981
0.169696
0.195908
0.228177
0.267410
0.311675
0.353065
0.379322
-0.198403
-0.200031
-0.201825
-0.204052
-0.206575
-0.209064
-0.211119
-0.212352
-0.212445
-0.211188
-0.208483
-0.204333
-0.198822
-0.192089
-0.184303
-0.175641
-0.166276
-0.156364
-0.146042
-0.135423
-0.124600
-0.113643
-0.102606
-0.091526
-0.080429
-0.069328
-0.058228
-0.047126
-0.036010
-0.024860
-0.013649
-0.002346
0.009081
0.020668
0.032448
0.044460
0.056747
0.069369
0.082412
0.096010
0.110386
0.125929
0.143330
0.163805
0.189405
0.223299
0.269484
0.330211
0.398482
0.449558
-0.207883
-0.209598
-0.211487
-0.214224
-0.217645
-0.221246
-0.224419
-0.226593
-0.227329
-0.226358
-0.223582
-0.219040
-0.212880
-0.205312
-0.196573
-0.186901
-0.176516
-0.165609
-0.154342
-0.142842
-0.131208
-0.119515
-0.107813
-0.096139
-0.084512
-0.072942
-0.061432
-0.049973
-0.038552
-0.027142
-0.015712
-0.004226
0.007354
0.019061
0.030918
0.042945
0.055157
0.067573
0.080215
0.093115
0.106343
0.120065
0.134683
0.151127
0.171408
0.199609
0.243484
0.315363
0.421794
0.516804
-0.219155
-0.220365
-0.221738
-0.224868
-0.229433
-0.234560
-0.239273
-0.242713
-0.244271
-0.243618
-0.240672
-0.235546
-0.228490
-0.219819
-0.209866
-0.198945
-0.187333
-0.175259
-0.162908
-0.150420
-0.137896
-0.125409
-0.113006
-0.100713
-0.088544
-0.076503
-0.064588
-0.052789
-0.041087
-0.029452
-0.017843
-0.006213
0.005482
0.017277
0.029181
0.041192
0.053293
0.065452
0.077615
0.089678
0.101476
0.112758
0.123229
0.132692
0.141440
0.151397
0.170507
0.227893
0.375933
0.551833
-0.234808
-0.233337
-0.232473
-0.235702
-0.241800
-0.249090
-0.255968
-0.261112
-0.263702
-0.263358
-0.260060
-0.254057
-0.245754
-0.235622
-0.224126
-0.211669
-0.198592
-0.185163
-0.171586
-0.158006
-0.144521
-0.131194
-0.118061
-0.105137
-0.092423
-0.079915
-0.067607
-0.055488
-0.043537
-0.031716
-0.019969
-0.008235
0.003535
0.015404
0.027353
0.039356
0.051361
0.063299
0.075048
0.086381
0.096881
0.105792
0.111804
0.112853
0.105827
0.086942
0.059522
0.081174
0.302089
0.656680
-0.262682
-0.249471
-0.242548
-0.244491
-0.252332
-0.262605
-0.272535
-0.279988
-0.283926
-0.283968
-0.280201
-0.273090
-0.263278
-0.251431
-0.238158
-0.223983
-0.209314
-0.194451
-0.179608
-0.164926
-0.150493
-0.136354
-0.122530
-0.109017
-0.095801
-0.082866
-0.070202
-0.057802
-0.045651
-0.033705
-0.021885
-0.010086
0.001796
0.013753
0.025771
0.037809
0.049774
0.061579
0.073063
0.083901
0.093446
0.100399
0.102754
0.096921
0.076471
0.037154
0.005106
0.081589
0.487145
1.206666
-0.352637
-0.221451
-0.208605
-0.219064
-0.235575
-0.253159
-0.268960
-0.280974
-0.288142
-0.290218
-0.287519
-0.280750
-0.270780
-0.258466
-0.244568
-0.229704
-0.214349
-0.198841
-0.183413
-0.168214
-0.153331
-0.138806
-0.124651
-0.110858
-0.097403
-0.084265
-0.071432
-0.058902
-0.046666
-0.034678
-0.022848
-0.011046
0.000863
0.012960
0.025135
0.037188
0.049094
0.060764
0.071997
0.082393
0.091210
0.097171
0.097827
0.089486
0.071266
0.057951
0.106435
0.376898
1.140805
2.414086
