# vtk DataFile Version 3.0
Vector Field
ASCII
DATASET RECTILINEAR_GRID
DIMENSIONS 50 50 1
X_COORDINATES 50 double
0.100000 0.300000 0.500000 0.700000 0.900000 1.100000 1.300000 1.500000 1.700000 1.900000 2.100000 2.300000 2.500000 2.700000 2.900000 3.100000 3.300000 3.500000 3.700000 3.900000 4.100000 4.300000 4.500000 4.700000 4.900000 5.100000 5.300000 5.500000 5.700000 5.900000 6.100000 6.300000 6.500000 6.700000 6.900000 7.100000 7.300000 7.500000 7.700000 7.900000 8.100000 8.300000 8.500000 8.700000 8.900000 9.100000 9.300000 9.500000 9.700000 9.900000 
Y_COORDINATES 50 double
0.100000 0.300000 0.500000 0.700000 0.900000 1.100000 1.300000 1.500000 1.700000 1.900000 2.100000 2.300000 2.500000 2.700000 2.900000 3.100000 3.300000 3.500000 3.700000 3.900000 4.100000 4.300000 4.500000 4.700000 4.900000 5.100000 5.300000 5.500000 5.700000 5.900000 6.100000 6.300000 6.500000 6.700000 6.900000 7.100000 7.300000 7.500000 7.700000 7.900000 8.100000 8.300000 8.500000 8.700000 8.900000 9.100000 9.300000 9.500000 9.700000 9.900000 
Z_COORDINATES 1 double
0.0
POINT_DATA 2500
VECTORS Vektorfeld double
-0.000218 0.000218 0.0
-0.000996 0.000559 0.0
-0.002274 0.000719 0.0
-0.003771 0.000778 0.0
-0.005345 0.000795 0.0
-0.006941 0.000801 0.0
-0.008545 0.000803 0.0
-0.010155 0.000807 0.0
-0.011773 0.000811 0.0
-0.013400 0.000816 0.0
-0.015037 0.000821 0.0
-0.016683 0.000825 0.0
-0.018338 0.000830 0.0
-0.020001 0.000833 0.0
-0.021669 0.000835 0.0
-0.023339 0.000835 0.0
-0.025008 0.000834 0.0
-0.026670 0.000829 0.0
-0.028320 0.000821 0.0
-0.029951 0.000809 0.0
-0.031552 0.000792 0.0
-0.033114 0.000770 0.0
-0.034625 0.000741 0.0
-0.036071 0.000705 0.0
-0.037435 0.000660 0.0
-0.038701 0.000606 0.0
-0.039849 0.000542 0.0
-0.040857 0.000466 0.0
-0.041703 0.000380 0.0
-0.042364 0.000281 0.0
-0.042815 0.000170 0.0
-0.043034 0.000048 0.0
-0.042996 -0.000086 0.0
-0.042678 -0.000233 0.0
-0.042055 -0.000391 0.0
-0.041107 -0.000557 0.0
-0.039819 -0.000730 0.0
-0.038183 -0.000906 0.0
-0.036195 -0.001082 0.0
-0.033860 -0.001254 0.0
-0.031187 -0.001419 0.0
-0.028197 -0.001572 0.0
-0.024915 -0.001710 0.0
-0.021375 -0.001829 0.0
-0.017624 -0.001923 0.0
-0.013721 -0.001979 0.0
-0.009770 -0.001972 0.0
-0.005957 -0.001840 0.0
-0.002664 -0.001453 0.0
-0.000605 -0.000605 0.0
-0.000582 0.001019 0.0
-0.002320 0.002275 0.0
-0.004906 0.002868 0.0
-0.007881 0.003101 0.0
-0.011015 0.003180 0.0
-0.014208 0.003204 0.0
-0.017419 0.003215 0.0
-0.020639 0.003225 0.0
-0.023864 0.003236 0.0
-0.027092 0.003247 0.0
-0.030322 0.003257 0.0
-0.033552 0.003265 0.0
-0.036778 0.003271 0.0
-0.039996 0.003272 0.0
-0.043200 0.003268 0.0
-0.046383 0.003256 0.0
-0.049536 0.003235 0.0
-0.052648 0.003202 0.0
-0.055706 0.003156 0.0
-0.058695 0.003094 0.0
-0.061599 0.003012 0.0
-0.064396 0.002909 0.0
-0.067065 0.002781 0.0
-0.069579 0.002625 0.0
-0.071911 0.002437 0.0
-0.074030 0.002214 0.0
-0.075902 0.001953 0.0
-0.077491 0.001652 0.0
-0.078760 0.001309 0.0
-0.079669 0.000922 0.0
-0.080180 0.000492 0.0
-0.080253 0.000018 0.0
-0.079849 -0.000498 0.0
-0.078930 -0.001057 0.0
-0.077468 -0.001652 0.0
-0.075437 -0.002275 0.0
-0.072821 -0.002916 0.0
-0.069610 -0.003567 0.0
-0.065806 -0.004213 0.0
-0.061420 -0.004844 0.0
-0.056475 -0.005445 0.0
-0.051007 -0.006004 0.0
-0.045060 -0.006506 0.0
-0.038695 -0.006937 0.0
-0.031989 -0.007273 0.0
-0.025051 -0.007470 0.0
-0.018054 -0.007431 0.0
-0.011304 -0.006944 0.0
-0.005376 -0.005571 0.0
-0.001356 -0.002566 0.0
-0.000773 0.002374 0.0
-0.003018 0.004902 0.0
-0.006274 0.006082 0.0
-0.009975 0.006564 0.0
-0.013858 0.006736 0.0
-0.017810 0.006792 0.0
-0.021785 0.006814 0.0
-0.025764 0.006826 0.0
-0.029743 0.006837 0.0
-0.033717 0.006847 0.0
-0.037683 0.006852 0.0
-0.041635 0.006853 0.0
-0.045570 0.006845 0.0
-0.049481 0.006827 0.0
-0.053359 0.006795 0.0
-0.057194 0.006747 0.0
-0.060977 0.006678 0.0
-0.064692 0.006585 0.0
-0.068324 0.006463 0.0
-0.071855 0.006307 0.0
-0.075263 0.006111 0.0
-0.078526 0.005871 0.0
-0.081617 0.005579 0.0
-0.084506 0.005230 0.0
-0.087159 0.004817 0.0
-0.089543 0.004335 0.0
-0.091617 0.003778 0.0
-0.093342 0.003141 0.0
-0.094675 0.002421 0.0
-0.095572 0.001616 0.0
-0.095987 0.000725 0.0
-0.095878 -0.000251 0.0
-0.095201 -0.001310 0.0
-0.093921 -0.002443 0.0
-0.092008 -0.003641 0.0
-0.089437 -0.004887 0.0
-0.086191 -0.006166 0.0
-0.082264 -0.007455 0.0
-0.077660 -0.008733 0.0
-0.072396 -0.009975 0.0
-0.066500 -0.011155 0.0
-0.060013 -0.012249 0.0
-0.052991 -0.013230 0.0
-0.045502 -0.014067 0.0
-0.037637 -0.014714 0.0
-0.029521 -0.015083 0.0
-0.021345 -0.014989 0.0
-0.013446 -0.014034 0.0
-0.006455 -0.011400 0.0
-0.001646 -0.005568 0.0
-0.000856 0.004004 0.0
-0.003336 0.007996 0.0
-0.006912 0.009820 0.0
-0.010954 0.010569 0.0
-0.015181 0.010842 0.0
-0.019476 0.010933 0.0
-0.023791 0.010963 0.0
-0.028109 0.010975 0.0
-0.032423 0.010981 0.0
-0.036726 0.010981 0.0
-0.041014 0.010973 0.0
-0.045283 0.010954 0.0
-0.049526 0.010921 0.0
-0.053735 0.010870 0.0
-0.057902 0.010797 0.0
-0.062016 0.010695 0.0
-0.066065 0.010561 0.0
-0.070034 0.010387 0.0
-0.073907 0.010166 0.0
-0.077664 0.009892 0.0
-0.081283 0.009555 0.0
-0.084740 0.009147 0.0
-0.088006 0.008659 0.0
-0.091051 0.008083 0.0
-0.093840 0.007407 0.0
-0.096336 0.006625 0.0
-0.098500 0.005727 0.0
-0.100288 0.004706 0.0
-0.101655 0.003557 0.0
-0.102556 0.002277 0.0
-0.102944 0.000866 0.0
-0.102772 -0.000674 0.0
-0.101998 -0.002337 0.0
-0.100584 -0.004110 0.0
-0.098497 -0.005975 0.0
-0.095710 -0.007911 0.0
-0.092206 -0.009892 0.0
-0.087976 -0.011885 0.0
-0.083027 -0.013857 0.0
-0.077374 -0.015769 0.0
-0.071049 -0.017583 0.0
-0.064098 -0.019260 0.0
-0.056580 -0.020760 0.0
-0.048571 -0.022035 0.0
-0.040168 -0.023014 0.0
-0.031502 -0.023565 0.0
-0.022776 -0.023409 0.0
-0.014341 -0.021950 0.0
-0.006870 -0.017945 0.0
-0.001744 -0.008958 0.0
-0.000886 0.005746 0.0
-0.003460 0.011306 0.0
-0.007175 0.013801 0.0
-0.011366 0.014821 0.0
-0.015743 0.015194 0.0
-0.020184 0.015317 0.0
-0.024643 0.015354 0.0
-0.029104 0.015363 0.0
-0.033559 0.015360 0.0
-0.038002 0.015347 0.0
-0.042429 0.015322 0.0
-0.046835 0.015279 0.0
-0.051213 0.015216 0.0
-0.055556 0.015127 0.0
-0.059854 0.015005 0.0
-0.064098 0.014845 0.0
-0.068275 0.014637 0.0
-0.072370 0.014375 0.0
-0.076368 0.014048 0.0
-0.080249 0.013647 0.0
-0.083991 0.013160 0.0
-0.087569 0.012576 0.0
-0.090955 0.011883 0.0
-0.094118 0.011067 0.0
-0.097024 0.010118 0.0
-0.099634 0.009021 0.0
-0.101908 0.007767 0.0
-0.103800 0.006346 0.0
-0.105265 0.004750 0.0
-0.106255 0.002975 0.0
-0.106719 0.001020 0.0
-0.106610 -0.001110 0.0
-0.105880 -0.003405 0.0
-0.104487 -0.005849 0.0
-0.102392 -0.008418 0.0
-0.099563 -0.011083 0.0
-0.095979 -0.013808 0.0
-0.091630 -0.016549 0.0
-0.086516 -0.019257 0.0
-0.080654 -0.021882 0.0
-0.074078 -0.024370 0.0
-0.066834 -0.026667 0.0
-0.058988 -0.028717 0.0
-0.050621 -0.030454 0.0
-0.041839 -0.031781 0.0
-0.032782 -0.032520 0.0
-0.023667 -0.032295 0.0
-0.014864 -0.030302 0.0
-0.007088 -0.024840 0.0
-0.001788 -0.012490 0.0
-0.000894 0.007526 0.0
-0.003497 0.014703 0.0
-0.007265 0.017888 0.0
-0.011518 0.019179 0.0
-0.015956 0.019650 0.0
-0.020458 0.019803 0.0
-0.024977 0.019847 0.0
-0.029498 0.019853 0.0
-0.034014 0.019841 0.0
-0.038519 0.019815 0.0
-0.043010 0.019772 0.0
-0.047482 0.019707 0.0
-0.051929 0.019614 0.0
-0.056343 0.019487 0.0
-0.060717 0.019318 0.0
-0.065041 0.019100 0.0
-0.069303 0.018822 0.0
-0.073490 0.018473 0.0
-0.077585 0.018043 0.0
-0.081571 0.017519 0.0
-0.085426 0.016885 0.0
-0.089125 0.016129 0.0
-0.092642 0.015233 0.0
-0.095944 0.014183 0.0
-0.098998 0.012962 0.0
-0.101765 0.011554 0.0
-0.104202 0.009945 0.0
-0.106264 0.008122 0.0
-0.107901 0.006076 0.0
-0.109062 0.003800 0.0
-0.109694 0.001292 0.0
-0.109742 -0.001442 0.0
-0.109155 -0.004390 0.0
-0.107880 -0.007531 0.0
-0.105873 -0.010838 0.0
-0.103094 -0.014271 0.0
-0.099514 -0.017784 0.0
-0.095117 -0.021320 0.0
-0.089899 -0.024817 0.0
-0.083876 -0.028207 0.0
-0.077079 -0.031419 0.0
-0.069561 -0.034381 0.0
-0.061391 -0.037019 0.0
-0.052661 -0.039248 0.0
-0.043488 -0.040943 0.0
-0.034028 -0.041875 0.0
-0.024515 -0.041568 0.0
-0.015347 -0.038999 0.0
-0.007282 -0.031984 0.0
-0.001825 -0.016102 0.0
-0.000893 0.009313 0.0
-0.003501 0.018129 0.0
-0.007286 0.022015 0.0
-0.011562 0.023581 0.0
-0.016025 0.024149 0.0
-0.020553 0.024333 0.0
-0.025100 0.024383 0.0
-0.029649 0.024387 0.0
-0.034196 0.024369 0.0
-0.038735 0.024333 0.0
-0.043265 0.024275 0.0
-0.047779 0.024190 0.0
-0.052273 0.024072 0.0
-0.056742 0.023912 0.0
-0.061178 0.023702 0.0
-0.065572 0.023433 0.0
-0.069913 0.023092 0.0
-0.074190 0.022666 0.0
-0.078387 0.022143 0.0
-0.082487 0.021505 0.0
-0.086471 0.020737 0.0
-0.090314 0.019820 0.0
-0.093990 0.018735 0.0
-0.097467 0.017462 0.0
-0.100712 0.015981 0.0
-0.103685 0.014273 0.0
-0.106343 0.012319 0.0
-0.108636 0.010103 0.0
-0.110513 0.007610 0.0
-0.111919 0.004832 0.0
-0.112793 0.001765 0.0
-0.113075 -0.001585 0.0
-0.112704 -0.005206 0.0
-0.111619 -0.009075 0.0
-0.109764 -0.013156 0.0
-0.107090 -0.017405 0.0
-0.103559 -0.021761 0.0
-0.099143 -0.026156 0.0
-0.093834 -0.030508 0.0
-0.087643 -0.034731 0.0
-0.080602 -0.038733 0.0
-0.072765 -0.042421 0.0
-0.064214 -0.045700 0.0
-0.055051 -0.048460 0.0
-0.045409 -0.050545 0.0
-0.035468 -0.051674 0.0
-0.025486 -0.051264 0.0
-0.015897 -0.048060 0.0
-0.007502 -0.039383 0.0
-0.001868 -0.019795 0.0
-0.000889 0.011094 0.0
-0.003493 0.021560 0.0
-0.007280 0.026155 0.0
-0.011564 0.028001 0.0
-0.016040 0.028668 0.0
-0.020581 0.028883 0.0
-0.025144 0.028941 0.0
-0.029712 0.028946 0.0
-0.034280 0.028925 0.0
-0.038846 0.028882 0.0
-0.043406 0.028815 0.0
-0.047957 0.028716 0.0
-0.052497 0.028579 0.0
-0.057018 0.028395 0.0
-0.061516 0.028153 0.0
-0.065984 0.027843 0.0
-0.070411 0.027450 0.0
-0.074788 0.026961 0.0
-0.079100 0.026358 0.0
-0.083333 0.025623 0.0
-0.087467 0.024737 0.0
-0.091481 0.023677 0.0
-0.095348 0.022421 0.0
-0.099039 0.020944 0.0
-0.102518 0.019223 0.0
-0.105745 0.017233 0.0
-0.108677 0.014949 0.0
-0.111262 0.012351 0.0
-0.113443 0.009420 0.0
-0.115160 0.006144 0.0
-0.116346 0.002514 0.0
-0.116933 -0.001465 0.0
-0.116847 -0.005783 0.0
-0.116016 -0.010413 0.0
-0.114372 -0.015317 0.0
-0.111852 -0.020439 0.0
-0.108402 -0.025709 0.0
-0.103986 -0.031040 0.0
-0.098584 -0.036334 0.0
-0.092201 -0.041479 0.0
-0.084868 -0.046358 0.0
-0.076646 -0.050853 0.0
-0.067626 -0.054840 0.0
-0.057929 -0.058181 0.0
-0.047711 -0.060683 0.0
-0.037180 -0.062008 0.0
-0.026631 -0.061461 0.0
-0.016537 -0.057547 0.0
-0.007756 -0.047073 0.0
-0.001916 -0.023579 0.0
-0.000884 0.012867 0.0
-0.003479 0.024987 0.0
-0.007263 0.030300 0.0
-0.011551 0.032429 0.0
-0.016033 0.033198 0.0
-0.020585 0.033446 0.0
-0.025159 0.033515 0.0
-0.029743 0.033524 0.0
-0.034331 0.033503 0.0
-0.038921 0.033460 0.0
-0.043512 0.033388 0.0
-0.048102 0.033283 0.0
-0.052687 0.033136 0.0
-0.057265 0.032937 0.0
-0.061831 0.032675 0.0
-0.066379 0.032337 0.0
-0.070902 0.031907 0.0
-0.075391 0.031370 0.0
-0.079834 0.030705 0.0
-0.084217 0.029893 0.0
-0.088525 0.028909 0.0
-0.092735 0.027729 0.0
-0.096825 0.026325 0.0
-0.100764 0.024670 0.0
-0.104519 0.022732 0.0
-0.108049 0.020482 0.0
-0.111309 0.017890 0.0
-0.114243 0.014929 0.0
-0.116793 0.011574 0.0
-0.118891 0.007805 0.0
-0.120463 0.003611 0.0
-0.121428 -0.001010 0.0
-0.121702 -0.006050 0.0
-0.121198 -0.011481 0.0
-0.119831 -0.017261 0.0
-0.117519 -0.023327 0.0
-0.114192 -0.029597 0.0
-0.109796 -0.035965 0.0
-0.104299 -0.042309 0.0
-0.097695 -0.048490 0.0
-0.090015 -0.054360 0.0
-0.081324 -0.059765 0.0
-0.071727 -0.064546 0.0
-0.061371 -0.068529 0.0
-0.050444 -0.071479 0.0
-0.039193 -0.072994 0.0
-0.027958 -0.072260 0.0
-0.017265 -0.067534 0.0
-0.008035 -0.055098 0.0
-0.001966 -0.027462 0.0
-0.000878 0.014628 0.0
-0.003463 0.028406 0.0
-0.007242 0.034443 0.0
-0.011530 0.036861 0.0
-0.016017 0.037735 0.0
-0.020577 0.038019 0.0
-0.025163 0.038103 0.0
-0.029761 0.038119 0.0
-0.034369 0.038104 0.0
-0.038984 0.038065 0.0
-0.043607 0.037997 0.0
-0.048236 0.037894 0.0
-0.052870 0.037746 0.0
-0.057508 0.037543 0.0
-0.062147 0.037273 0.0
-0.066782 0.036922 0.0
-0.071409 0.036472 0.0
-0.076021 0.035905 0.0
-0.080609 0.035200 0.0
-0.085160 0.034333 0.0
-0.089661 0.033277 0.0
-0.094094 0.032004 0.0
-0.098436 0.030482 0.0
-0.102659 0.028676 0.0
-0.106730 0.026552 0.0
-0.110610 0.024072 0.0
-0.114251 0.021200 0.0
-0.117598 0.017900 0.0
-0.120585 0.014140 0.0
-0.123139 0.009891 0.0
-0.125177 0.005135 0.0
-0.126607 -0.000139 0.0
-0.127329 -0.005925 0.0
-0.127238 -0.012200 0.0
-0.126228 -0.018919 0.0
-0.124195 -0.026013 0.0
-0.121047 -0.033386 0.0
-0.116704 -0.040914 0.0
-0.111116 -0.048446 0.0
-0.104265 -0.055809 0.0
-0.096173 -0.062813 0.0
-0.086914 -0.069261 0.0
-0.076612 -0.074948 0.0
-0.065445 -0.079650 0.0
-0.053647 -0.083082 0.0
-0.041518 -0.084771 0.0
-0.029459 -0.083777 0.0
-0.018064 -0.078104 0.0
-0.008323 -0.063499 0.0
-0.002012 -0.031440 0.0
-0.000871 0.016376 0.0
-0.003443 0.031816 0.0
-0.007215 0.038584 0.0
-0.011502 0.041296 0.0
-0.015993 0.042278 0.0
-0.020560 0.042602 0.0
-0.025156 0.042703 0.0
-0.029769 0.042730 0.0
-0.034395 0.042726 0.0
-0.039036 0.042698 0.0
-0.043690 0.042641 0.0
-0.048360 0.042549 0.0
-0.053045 0.042411 0.0
-0.057746 0.042217 0.0
-0.062461 0.041954 0.0
-0.067189 0.041605 0.0
-0.071927 0.041154 0.0
-0.076671 0.040579 0.0
-0.081414 0.039857 0.0
-0.086148 0.038962 0.0
-0.090861 0.037863 0.0
-0.095539 0.036528 0.0
-0.100160 0.034921 0.0
-0.104701 0.033001 0.0
-0.109129 0.030727 0.0
-0.113407 0.028054 0.0
-0.117486 0.024938 0.0
-0.121308 0.021332 0.0
-0.124807 0.017194 0.0
-0.127900 0.012485 0.0
-0.130497 0.007175 0.0
-0.132491 0.001244 0.0
-0.133765 -0.005312 0.0
-0.134194 -0.012475 0.0
-0.133646 -0.020202 0.0
-0.131988 -0.028420 0.0
-0.129094 -0.037021 0.0
-0.124858 -0.045858 0.0
-0.119198 -0.054749 0.0
-0.112075 -0.063479 0.0
-0.103504 -0.071806 0.0
-0.093561 -0.079471 0.0
-0.082395 -0.086206 0.0
-0.070229 -0.091726 0.0
-0.057358 -0.095677 0.0
-0.044158 -0.097505 0.0
-0.031114 -0.096145 0.0
-0.018902 -0.089343 0.0
-0.008597 -0.072305 0.0
-0.002045 -0.035497 0.0
-0.000862 0.018109 0.0
-0.003420 0.035214 0.0
-0.007183 0.042721 0.0
-0.011467 0.045732 0.0
-0.015960 0.046826 0.0
-0.020532 0.047192 0.0
-0.025137 0.047314 0.0
-0.029763 0.047358 0.0
-0.034408 0.047370 0.0
-0.039072 0.047359 0.0
-0.043758 0.047321 0.0
-0.048468 0.047249 0.0
-0.053204 0.047132 0.0
-0.057968 0.046960 0.0
-0.062761 0.046719 0.0
-0.067585 0.046391 0.0
-0.072438 0.045959 0.0
-0.077320 0.045399 0.0
-0.082228 0.044687 0.0
-0.087156 0.043793 0.0
-0.092097 0.042685 0.0
-0.097038 0.041325 0.0
-0.101964 0.039672 0.0
-0.106854 0.037680 0.0
-0.111678 0.035301 0.0
-0.116401 0.032481 0.0
-0.120975 0.029164 0.0
-0.125343 0.025296 0.0
-0.129432 0.020818 0.0
-0.133158 0.015680 0.0
-0.136418 0.009836 0.0
-0.139092 0.003251 0.0
-0.141045 -0.004091 0.0
-0.142128 -0.012185 0.0
-0.142173 -0.020995 0.0
-0.141014 -0.030445 0.0
-0.138485 -0.040419 0.0
-0.134435 -0.050747 0.0
-0.128743 -0.061212 0.0
-0.121338 -0.071545 0.0
-0.112213 -0.081436 0.0
-0.101450 -0.090547 0.0
-0.089224 -0.098521 0.0
-0.075819 -0.104983 0.0
-0.061618 -0.109492 0.0
-0.047105 -0.111402 0.0
-0.032881 -0.109517 0.0
-0.019729 -0.101335 0.0
-0.008819 -0.081529 0.0
-0.002051 -0.039593 0.0
-0.000853 0.019824 0.0
-0.003393 0.038596 0.0
-0.007144 0.046850 0.0
-0.011423 0.050167 0.0
-0.015916 0.051377 0.0
-0.020491 0.051789 0.0
-0.025104 0.051935 0.0
-0.029740 0.051999 0.0
-0.034400 0.052033 0.0
-0.039086 0.052046 0.0
-0.043801 0.052035 0.0
-0.048549 0.051993 0.0
-0.053334 0.051909 0.0
-0.058160 0.051773 0.0
-0.063031 0.051570 0.0
-0.067950 0.051282 0.0
-0.072920 0.050891 0.0
-0.077943 0.050372 0.0
-0.083021 0.049699 0.0
-0.088151 0.048840 0.0
-0.093330 0.047759 0.0
-0.098552 0.046415 0.0
-0.103805 0.044761 0.0
-0.109072 0.042747 0.0
-0.114329 0.040315 0.0
-0.119543 0.037403 0.0
-0.124671 0.033944 0.0
-0.129654 0.029868 0.0
-0.134422 0.025104 0.0
-0.138883 0.019582 0.0
-0.142926 0.013237 0.0
-0.146419 0.006016 0.0
-0.149203 -0.002118 0.0
-0.151098 -0.011181 0.0
-0.151906 -0.021146 0.0
-0.151412 -0.031947 0.0
-0.149397 -0.043461 0.0
-0.145654 -0.055499 0.0
-0.140003 -0.067803 0.0
-0.132323 -0.080040 0.0
-0.122573 -0.091815 0.0
-0.110827 -0.102677 0.0
-0.097296 -0.112147 0.0
-0.082340 -0.119718 0.0
-0.066471 -0.124827 0.0
-0.050331 -0.126719 0.0
-0.034685 -0.124071 0.0
-0.020461 -0.114156 0.0
-0.008928 -0.091151 0.0
-0.002012 -0.043655 0.0
-0.000842 0.021519 0.0
-0.003362 0.041961 0.0
-0.007097 0.050971 0.0
-0.011369 0.054598 0.0
-0.015859 0.055928 0.0
-0.020435 0.056389 0.0
-0.025051 0.056563 0.0
-0.029695 0.056652 0.0
-0.034367 0.056712 0.0
-0.039071 0.056756 0.0
-0.043811 0.056780 0.0
-0.048594 0.056778 0.0
-0.053424 0.056739 0.0
-0.058308 0.056653 0.0
-0.063252 0.056505 0.0
-0.068264 0.056278 0.0
-0.073348 0.055951 0.0
-0.078512 0.055500 0.0
-0.083760 0.054897 0.0
-0.089096 0.054108 0.0
-0.094522 0.053095 0.0
-0.100036 0.051814 0.0
-0.105632 0.050212 0.0
-0.111300 0.048232 0.0
-0.117023 0.045810 0.0
-0.122772 0.042872 0.0
-0.128510 0.039340 0.0
-0.134182 0.035128 0.0
-0.139718 0.030147 0.0
-0.145025 0.024306 0.0
-0.149985 0.017516 0.0
-0.154451 0.009696 0.0
-0.158245 0.000780 0.0
-0.161155 -0.009273 0.0
-0.162940 -0.020461 0.0
-0.163330 -0.032736 0.0
-0.162038 -0.045977 0.0
-0.158781 -0.059983 0.0
-0.153296 -0.074453 0.0
-0.145384 -0.088982 0.0
-0.134946 -0.103061 0.0
-0.122031 -0.116092 0.0
-0.106882 -0.127413 0.0
-0.089964 -0.136325 0.0
-0.071967 -0.142085 0.0
-0.053774 -0.143794 0.0
-0.036396 -0.140020 0.0
-0.020959 -0.127868 0.0
-0.008833 -0.101097 0.0
-0.001896 -0.047563 0.0
-0.000830 0.023191 0.0
-0.003325 0.045305 0.0
-0.007042 0.055078 0.0
-0.011302 0.059024 0.0
-0.015786 0.060476 0.0
-0.020359 0.060989 0.0
-0.024975 0.061195 0.0
-0.029623 0.061312 0.0
-0.034303 0.061404 0.0
-0.039020 0.061485 0.0
-0.043780 0.061552 0.0
-0.048590 0.061599 0.0
-0.053459 0.061617 0.0
-0.058395 0.061595 0.0
-0.063406 0.061519 0.0
-0.068504 0.061372 0.0
-0.073697 0.061134 0.0
-0.078997 0.060780 0.0
-0.084412 0.060281 0.0
-0.089952 0.059601 0.0
-0.095625 0.058701 0.0
-0.101436 0.057532 0.0
-0.107387 0.056040 0.0
-0.113475 0.054160 0.0
-0.119690 0.051819 0.0
-0.126013 0.048935 0.0
-0.132415 0.045415 0.0
-0.138847 0.041157 0.0
-0.145244 0.036051 0.0
-0.151514 0.029979 0.0
-0.157536 0.022824 0.0
-0.163153 0.014470 0.0
-0.168164 0.004812 0.0
-0.172333 -0.006226 0.0
-0.175368 -0.018690 0.0
-0.176928 -0.032557 0.0
-0.176647 -0.047729 0.0
-0.174136 -0.064001 0.0
-0.169021 -0.081036 0.0
-0.160984 -0.098349 0.0
-0.149824 -0.115292 0.0
-0.135535 -0.131066 0.0
-0.118376 -0.144748 0.0
-0.098942 -0.155343 0.0
-0.078180 -0.161826 0.0
-0.057334 -0.163094 0.0
-0.037803 -0.157629 0.0
-0.021002 -0.142497 0.0
-0.008388 -0.111208 0.0
-0.001659 -0.051119 0.0
-0.000816 0.024837 0.0
-0.003284 0.048623 0.0
-0.006977 0.059170 0.0
-0.011223 0.063439 0.0
-0.015697 0.065019 0.0
-0.020263 0.065586 0.0
-0.024874 0.065826 0.0
-0.029520 0.065975 0.0
-0.034202 0.066103 0.0
-0.038925 0.066226 0.0
-0.043697 0.066343 0.0
-0.048528 0.066449 0.0
-0.053427 0.066535 0.0
-0.058405 0.066591 0.0
-0.063475 0.066604 0.0
-0.068649 0.066559 0.0
-0.073941 0.066434 0.0
-0.079366 0.066205 0.0
-0.084939 0.065844 0.0
-0.090676 0.065315 0.0
-0.096591 0.064575 0.0
-0.102697 0.063575 0.0
-0.109004 0.062256 0.0
-0.115521 0.060549 0.0
-0.122248 0.058372 0.0
-0.129177 0.055634 0.0
-0.136288 0.052228 0.0
-0.143547 0.048035 0.0
-0.150896 0.042919 0.0
-0.158251 0.036737 0.0
-0.165494 0.029332 0.0
-0.172462 0.020547 0.0
-0.178944 0.010228 0.0
-0.184660 -0.001756 0.0
-0.189271 -0.015515 0.0
-0.192370 -0.031072 0.0
-0.193486 -0.048379 0.0
-0.192099 -0.067248 0.0
-0.187676 -0.087326 0.0
-0.179727 -0.108045 0.0
-0.167887 -0.128596 0.0
-0.152025 -0.147913 0.0
-0.132384 -0.164701 0.0
-0.109698 -0.177509 0.0
-0.085268 -0.184851 0.0
-0.060890 -0.185293 0.0
-0.038591 -0.177259 0.0
-0.020246 -0.158014 0.0
-0.007372 -0.121178 0.0
-0.001235 -0.054013 0.0
-0.000800 0.026453 0.0
-0.003236 0.051911 0.0
-0.006902 0.063241 0.0
-0.011129 0.067840 0.0
-0.015589 0.069551 0.0
-0.020143 0.070175 0.0
-0.024745 0.070450 0.0
-0.029383 0.070634 0.0
-0.034059 0.070802 0.0
-0.038781 0.070972 0.0
-0.043557 0.071146 0.0
-0.048398 0.071318 0.0
-0.053316 0.071483 0.0
-0.058325 0.071630 0.0
-0.063439 0.071749 0.0
-0.068675 0.071824 0.0
-0.074051 0.071836 0.0
-0.079587 0.071763 0.0
-0.085303 0.071575 0.0
-0.091221 0.071238 0.0
-0.097365 0.070709 0.0
-0.103755 0.069937 0.0
-0.110413 0.068860 0.0
-0.117358 0.067406 0.0
-0.124604 0.065487 0.0
-0.132157 0.063002 0.0
-0.140014 0.059830 0.0
-0.148156 0.055834 0.0
-0.156542 0.050855 0.0
-0.165101 0.044716 0.0
-0.173726 0.037220 0.0
-0.182258 0.028158 0.0
-0.190473 0.017313 0.0
-0.198073 0.004475 0.0
-0.204676 -0.010531 0.0
-0.209794 -0.027838 0.0
-0.212830 -0.047462 0.0
-0.213104 -0.069278 0.0
-0.209877 -0.092946 0.0
-0.202411 -0.117839 0.0
-0.190082 -0.142971 0.0
-0.172538 -0.166942 0.0
-0.149913 -0.187938 0.0
-0.123053 -0.203817 0.0
-0.093698 -0.212328 0.0
-0.064459 -0.211434 0.0
-0.038403 -0.199471 0.0
-0.018217 -0.174333 0.0
-0.005472 -0.130479 0.0
-0.000536 -0.055785 0.0
-0.000783 0.028035 0.0
-0.003183 0.055165 0.0
-0.006817 0.067288 0.0
-0.011021 0.072224 0.0
-0.015461 0.074068 0.0
-0.019999 0.074750 0.0
-0.024585 0.075062 0.0
-0.029208 0.075282 0.0
-0.033871 0.075493 0.0
-0.038582 0.075714 0.0
-0.043352 0.075949 0.0
-0.048191 0.076196 0.0
-0.053115 0.076447 0.0
-0.058139 0.076698 0.0
-0.063281 0.076937 0.0
-0.068561 0.077152 0.0
-0.074001 0.077325 0.0
-0.079627 0.077436 0.0
-0.085464 0.077456 0.0
-0.091542 0.077354 0.0
-0.097892 0.077087 0.0
-0.104545 0.076604 0.0
-0.111536 0.075843 0.0
-0.118895 0.074728 0.0
-0.126652 0.073169 0.0
-0.134834 0.071055 0.0
-0.143456 0.068255 0.0
-0.152522 0.064615 0.0
-0.162013 0.059951 0.0
-0.171886 0.054052 0.0
-0.182052 0.046675 0.0
-0.192369 0.037552 0.0
-0.202622 0.026389 0.0
-0.212506 0.012883 0.0
-0.221588 -0.003253 0.0
-0.229303 -0.022284 0.0
-0.234940 -0.044344 0.0
-0.237627 -0.069433 0.0
-0.236361 -0.097284 0.0
-0.230074 -0.127255 0.0
-0.217764 -0.158194 0.0
-0.198709 -0.188317 0.0
-0.172771 -0.215128 0.0
-0.140774 -0.235485 0.0
-0.104889 -0.245900 0.0
-0.068800 -0.243190 0.0
-0.037242 -0.225330 0.0
-0.014477 -0.191426 0.0
-0.002337 -0.138272 0.0
0.000529 -0.055793 0.0
-0.000763 0.029581 0.0
-0.003124 0.058380 0.0
-0.006722 0.071305 0.0
-0.010898 0.076585 0.0
-0.015315 0.078565 0.0
-0.019830 0.079306 0.0
-0.024394 0.079656 0.0
-0.028995 0.079913 0.0
-0.033636 0.080167 0.0
-0.038326 0.080442 0.0
-0.043076 0.080742 0.0
-0.047900 0.081067 0.0
-0.052814 0.081414 0.0
-0.057835 0.081777 0.0
-0.062985 0.082150 0.0
-0.068287 0.082521 0.0
-0.073767 0.082876 0.0
-0.079455 0.083198 0.0
-0.085384 0.083461 0.0
-0.091591 0.083634 0.0
-0.098115 0.083680 0.0
-0.104999 0.083548 0.0
-0.112289 0.083178 0.0
-0.120032 0.082495 0.0
-0.128277 0.081405 0.0
-0.137071 0.079794 0.0
-0.146454 0.077522 0.0
-0.156460 0.074420 0.0
-0.167105 0.070283 0.0
-0.178377 0.064865 0.0
-0.190226 0.057878 0.0
-0.202545 0.048985 0.0
-0.215143 0.037807 0.0
-0.227721 0.023926 0.0
-0.239835 0.006901 0.0
-0.250879 -0.013679 0.0
-0.260013 -0.038179 0.0
-0.266147 -0.066776 0.0
-0.267989 -0.099366 0.0
-0.264071 -0.135378 0.0
-0.252899 -0.173552 0.0
-0.233204 -0.211709 0.0
-0.204312 -0.246566 0.0
-0.166694 -0.273662 0.0
-0.122659 -0.287643 0.0
-0.076975 -0.283219 0.0
-0.036747 -0.257087 0.0
-0.009333 -0.209846 0.0
0.002216 -0.143542 0.0
0.002046 -0.053218 0.0
-0.000743 0.031087 0.0
-0.003060 0.061552 0.0
-0.006618 0.075290 0.0
-0.010761 0.080919 0.0
-0.015150 0.083037 0.0
-0.019638 0.083837 0.0
-0.024172 0.084223 0.0
-0.028742 0.084516 0.0
-0.033352 0.084814 0.0
-0.038009 0.085142 0.0
-0.042727 0.085509 0.0
-0.047520 0.085917 0.0
-0.052405 0.086363 0.0
-0.057403 0.086847 0.0
-0.062537 0.087364 0.0
-0.067834 0.087905 0.0
-0.073324 0.088462 0.0
-0.079042 0.089018 0.0
-0.085027 0.089554 0.0
-0.091323 0.090043 0.0
-0.097978 0.090450 0.0
-0.105047 0.090730 0.0
-0.112589 0.090827 0.0
-0.120668 0.090668 0.0
-0.129353 0.090162 0.0
-0.138717 0.089193 0.0
-0.148830 0.087619 0.0
-0.159761 0.085260 0.0
-0.171569 0.081894 0.0
-0.184291 0.077247 0.0
-0.197931 0.070985 0.0
-0.212439 0.062705 0.0
-0.227682 0.051930 0.0
-0.243410 0.038109 0.0
-0.259207 0.020628 0.0
-0.274418 -0.001151 0.0
-0.288122 -0.027869 0.0
-0.299085 -0.059989 0.0
-0.305716 -0.097680 0.0
-0.306142 -0.140557 0.0
-0.298318 -0.187368 0.0
-0.280238 -0.235668 0.0
-0.250304 -0.281433 0.0
-0.208022 -0.318694 0.0
-0.155114 -0.339554 0.0
-0.096827 -0.335278 0.0
-0.042787 -0.299297 0.0
-0.005559 -0.232278 0.0
0.007584 -0.145802 0.0
0.003984 -0.047188 0.0
-0.000720 0.032550 0.0
-0.002991 0.064677 0.0
-0.006505 0.079237 0.0
-0.010613 0.085222 0.0
-0.014969 0.087479 0.0
-0.019423 0.088336 0.0
-0.023921 0.088757 0.0
-0.028453 0.089084 0.0
-0.033020 0.089422 0.0
-0.037632 0.089803 0.0
-0.042302 0.090237 0.0
-0.047047 0.090727 0.0
-0.051884 0.091275 0.0
-0.056835 0.091884 0.0
-0.061927 0.092552 0.0
-0.067188 0.093275 0.0
-0.072654 0.094048 0.0
-0.078363 0.094859 0.0
-0.084360 0.095695 0.0
-0.090695 0.096534 0.0
-0.097428 0.097347 0.0
-0.104622 0.098097 0.0
-0.112351 0.098732 0.0
-0.120698 0.099189 0.0
-0.129752 0.099381 0.0
-0.139613 0.099199 0.0
-0.150387 0.098502 0.0
-0.162186 0.097108 0.0
-0.175118 0.094787 0.0
-0.189286 0.091245 0.0
-0.204769 0.086110 0.0
-0.221600 0.078919 0.0
-0.239740 0.069098 0.0
-0.259027 0.055955 0.0
-0.279123 0.038674 0.0
-0.299443 0.016334 0.0
-0.319078 -0.012015 0.0
-0.336690 -0.047269 0.0
-0.350514 -0.089944 0.0
-0.358381 -0.140000 0.0
-0.357690 -0.196440 0.0
-0.345447 -0.256919 0.0
-0.318561 -0.317002 0.0
-0.274785 -0.369182 0.0
-0.214319 -0.402439 0.0
-0.141692 -0.403307 0.0
-0.067767 -0.359233 0.0
-0.010908 -0.266427 0.0
0.011151 -0.146854 0.0
0.005910 -0.037295 0.0
-0.000697 0.033968 0.0
-0.002918 0.067751 0.0
-0.006386 0.083144 0.0
-0.010454 0.089490 0.0
-0.014773 0.091887 0.0
-0.019189 0.092798 0.0
-0.023645 0.093249 0.0
-0.028128 0.093606 0.0
-0.032642 0.093981 0.0
-0.037197 0.094411 0.0
-0.041804 0.094907 0.0
-0.046481 0.095478 0.0
-0.051247 0.096128 0.0
-0.056127 0.096863 0.0
-0.061146 0.097685 0.0
-0.066338 0.098596 0.0
-0.071740 0.099595 0.0
-0.077395 0.100676 0.0
-0.083353 0.101833 0.0
-0.089671 0.103050 0.0
-0.096415 0.104307 0.0
-0.103662 0.105576 0.0
-0.111497 0.106817 0.0
-0.120019 0.107974 0.0
-0.129343 0.108974 0.0
-0.139596 0.109720 0.0
-0.150921 0.110080 0.0
-0.163476 0.109883 0.0
-0.177432 0.108901 0.0
-0.192968 0.106834 0.0
-0.210257 0.103292 0.0
-0.229452 0.097763 0.0
-0.250650 0.089592 0.0
-0.273850 0.077948 0.0
-0.298878 0.061805 0.0
-0.325305 0.039950 0.0
-0.352352 0.011052 0.0
-0.378862 -0.026214 0.0
-0.403113 -0.072924 0.0
-0.422702 -0.129565 0.0
-0.434340 -0.195929 0.0
-0.433517 -0.270496 0.0
-0.414965 -0.348865 0.0
-0.374221 -0.421840 0.0
-0.309616 -0.474852 0.0
-0.223973 -0.489165 0.0
-0.126867 -0.444406 0.0
-0.038924 -0.326057 0.0
0.006733 -0.154941 0.0
0.007076 -0.024309 0.0
-0.000673 0.035337 0.0
-0.002843 0.070773 0.0
-0.006262 0.087009 0.0
-0.010288 0.093721 0.0
-0.014568 0.096256 0.0
-0.018941 0.097217 0.0
-0.023348 0.097693 0.0
-0.027775 0.098073 0.0
-0.032226 0.098479 0.0
-0.036708 0.098950 0.0
-0.041236 0.099503 0.0
-0.045826 0.100149 0.0
-0.050499 0.100896 0.0
-0.055278 0.101753 0.0
-0.060193 0.102729 0.0
-0.065279 0.103829 0.0
-0.070574 0.105059 0.0
-0.076125 0.106419 0.0
-0.081986 0.107909 0.0
-0.088221 0.109525 0.0
-0.094901 0.111256 0.0
-0.102113 0.113085 0.0
-0.109954 0.114984 0.0
-0.118540 0.116915 0.0
-0.128006 0.118822 0.0
-0.138507 0.120625 0.0
-0.150224 0.122216 0.0
-0.163365 0.123443 0.0
-0.178167 0.124099 0.0
-0.194896 0.123900 0.0
-0.213840 0.122460 0.0
-0.235301 0.119251 0.0
-0.259565 0.113567 0.0
-0.286862 0.104470 0.0
-0.317304 0.090753 0.0
-0.350801 0.070927 0.0
-0.386964 0.043285 0.0
-0.424946 0.006044 0.0
-0.463256 -0.042620 0.0
-0.499135 -0.104401 0.0
-0.527851 -0.180740 0.0
-0.542591 -0.271767 0.0
-0.535714 -0.373023 0.0
-0.501258 -0.472881 0.0
-0.436550 -0.553123 0.0
-0.342555 -0.590533 0.0
-0.225390 -0.557308 0.0
-0.102022 -0.424466 0.0
-0.013807 -0.190403 0.0
0.007118 -0.010115 0.0
-0.000648 0.036659 0.0
-0.002767 0.073741 0.0
-0.006137 0.090829 0.0
-0.010121 0.097911 0.0
-0.014359 0.100582 0.0
-0.018685 0.101589 0.0
-0.023037 0.102082 0.0
-0.027401 0.102475 0.0
-0.031777 0.102903 0.0
-0.036174 0.103406 0.0
-0.040606 0.104007 0.0
-0.045088 0.104718 0.0
-0.049643 0.105553 0.0
-0.054293 0.106526 0.0
-0.059070 0.107649 0.0
-0.064009 0.108934 0.0
-0.069151 0.110391 0.0
-0.074544 0.112031 0.0
-0.080247 0.113861 0.0
-0.086324 0.115886 0.0
-0.092856 0.118108 0.0
-0.099934 0.120523 0.0
-0.107666 0.123120 0.0
-0.116182 0.125882 0.0
-0.125634 0.128773 0.0
-0.136202 0.131744 0.0
-0.148103 0.134715 0.0
-0.161593 0.137574 0.0
-0.176975 0.140152 0.0
-0.194608 0.142209 0.0
-0.214908 0.143396 0.0
-0.238352 0.143219 0.0
-0.265463 0.140974 0.0
-0.296794 0.135691 0.0
-0.332883 0.126063 0.0
-0.374190 0.110421 0.0
-0.420961 0.086724 0.0
-0.472860 0.052485 0.0
-0.528151 0.004540 0.0
-0.582645 -0.061188 0.0
-0.629156 -0.148725 0.0
-0.658420 -0.259777 0.0
-0.661822 -0.388489 0.0
-0.634032 -0.519662 0.0
-0.572805 -0.632276 0.0
-0.477364 -0.700817 0.0
-0.349153 -0.692401 0.0
-0.197386 -0.564509 0.0
-0.054408 -0.281552 0.0
0.004349 0.001352 0.0
-0.000624 0.037931 0.0
-0.002692 0.076656 0.0
-0.006014 0.094605 0.0
-0.009957 0.102062 0.0
-0.014153 0.104865 0.0
-0.018429 0.105908 0.0
-0.022723 0.106408 0.0
-0.027015 0.106805 0.0
-0.031307 0.107241 0.0
-0.035606 0.107764 0.0
-0.039925 0.108399 0.0
-0.044279 0.109163 0.0
-0.048690 0.110073 0.0
-0.053182 0.111149 0.0
-0.057786 0.112407 0.0
-0.062536 0.113865 0.0
-0.067476 0.115541 0.0
-0.072655 0.117453 0.0
-0.078131 0.119617 0.0
-0.083974 0.122050 0.0
-0.090265 0.124766 0.0
-0.097100 0.127777 0.0
-0.104595 0.131093 0.0
-0.112888 0.134717 0.0
-0.122144 0.138645 0.0
-0.132565 0.142861 0.0
-0.144394 0.147328 0.0
-0.157928 0.151985 0.0
-0.173532 0.156727 0.0
-0.191652 0.161387 0.0
-0.212835 0.165701 0.0
-0.237743 0.169266 0.0
-0.267180 0.171475 0.0
-0.302100 0.171442 0.0
-0.343621 0.167921 0.0
-0.392951 0.159201 0.0
-0.451056 0.142821 0.0
-0.517690 0.114921 0.0
-0.589761 0.069466 0.0