# vtk DataFile Version 3.0
Vector Field
ASCII
DATASET RECTILINEAR_GRID
DIMENSIONS 50 50 1
X_COORDINATES 50 double
0.100000 0.300000 0.500000 0.700000 0.900000 1.100000 1.300000 1.500000 1.700000 1.900000 2.100000 2.300000 2.500000 2.700000 2.900000 3.100000 3.300000 3.500000 3.700000 3.900000 4.100000 4.300000 4.500000 4.700000 4.900000 5.100000 5.300000 5.500000 5.700000 5.900000 6.100000 6.300000 6.500000 6.700000 6.900000 7.100000 7.300000 7.500000 7.700000 7.900000 8.100000 8.300000 8.500000 8.700000 8.900000 9.100000 9.300000 9.500000 9.700000 9.900000 
Y_COORDINATES 50 double
0.100000 0.300000 0.500000 0.700000 0.900000 1.100000 1.300000 1.500000 1.700000 1.900000 2.100000 2.300000 2.500000 2.700000 2.900000 3.100000 3.300000 3.500000 3.700000 3.900000 4.100000 4.300000 4.500000 4.700000 4.900000 5.100000 5.300000 5.500000 5.700000 5.900000 6.100000 6.300000 6.500000 6.700000 6.900000 7.100000 7.300000 7.500000 7.700000 7.900000 8.100000 8.300000 8.500000 8.700000 8.900000 9.100000 9.300000 9.500000 9.700000 9.900000 
Z_COORDINATES 1 double
0.0
POINT_DATA 2500
VECTORS Vektorfeld double
-0.000248 0.000248 0.0
-0.001213 0.000716 0.0
-0.002877 0.000948 0.0
-0.004864 0.001038 0.0
-0.006972 0.001069 0.0
-0.009121 0.001081 0.0
-0.011293 0.001091 0.0
-0.013487 0.001103 0.0
-0.015709 0.001119 0.0
-0.017965 0.001137 0.0
-0.020261 0.001158 0.0
-0.022599 0.001180 0.0
-0.024983 0.001204 0.0
-0.027416 0.001229 0.0
-0.029899 0.001254 0.0
-0.032431 0.001279 0.0
-0.035012 0.001302 0.0
-0.037637 0.001323 0.0
-0.040302 0.001341 0.0
-0.042998 0.001354 0.0
-0.045712 0.001361 0.0
-0.048431 0.001358 0.0
-0.051132 0.001344 0.0
-0.053791 0.001315 0.0
-0.056376 0.001269 0.0
-0.058848 0.001203 0.0
-0.061161 0.001111 0.0
-0.063265 0.000992 0.0
-0.065099 0.000842 0.0
-0.066599 0.000659 0.0
-0.067699 0.000441 0.0
-0.068331 0.000191 0.0
-0.068432 -0.000089 0.0
-0.067938 -0.000405 0.0
-0.066781 -0.000752 0.0
-0.064911 -0.001118 0.0
-0.062303 -0.001490 0.0
-0.058960 -0.001853 0.0
-0.054913 -0.002194 0.0
-0.050224 -0.002495 0.0
-0.044985 -0.002744 0.0
-0.039311 -0.002930 0.0
-0.033336 -0.003045 0.0
-0.027207 -0.003083 0.0
-0.021087 -0.003037 0.0
-0.015161 -0.002889 0.0
-0.009671 -0.002602 0.0
-0.004970 -0.002099 0.0
-0.001595 -0.001275 0.0
-0.000160 -0.000160 0.0
-0.000767 0.001264 0.0
-0.003119 0.003017 0.0
-0.006698 0.003892 0.0
-0.010875 0.004259 0.0
-0.015320 0.004400 0.0
-0.019883 0.004462 0.0
-0.024509 0.004507 0.0
-0.029184 0.004556 0.0
-0.033910 0.004614 0.0
-0.038692 0.004680 0.0
-0.043535 0.004753 0.0
-0.048444 0.004832 0.0
-0.053421 0.004914 0.0
-0.058466 0.004997 0.0
-0.063577 0.005079 0.0
-0.068750 0.005158 0.0
-0.073975 0.005229 0.0
-0.079242 0.005288 0.0
-0.084531 0.005331 0.0
-0.089822 0.005351 0.0
-0.095084 0.005341 0.0
-0.100280 0.005292 0.0
-0.105366 0.005196 0.0
-0.110287 0.005042 0.0
-0.114978 0.004818 0.0
-0.119365 0.004512 0.0
-0.123362 0.004112 0.0
-0.126874 0.003607 0.0
-0.129799 0.002986 0.0
-0.132026 0.002243 0.0
-0.133445 0.001376 0.0
-0.133944 0.000387 0.0
-0.133411 -0.000717 0.0
-0.131744 -0.001939 0.0
-0.128868 -0.003252 0.0
-0.124737 -0.004619 0.0
-0.119339 -0.005994 0.0
-0.112701 -0.007330 0.0
-0.104894 -0.008572 0.0
-0.096029 -0.009670 0.0
-0.086258 -0.010579 0.0
-0.075766 -0.011262 0.0
-0.064765 -0.011690 0.0
-0.053489 -0.011843 0.0
-0.042199 -0.011688 0.0
-0.031197 -0.011164 0.0
-0.020881 -0.010132 0.0
-0.011821 -0.008330 0.0
-0.004846 -0.005392 0.0
-0.001002 -0.001322 0.0
-0.001079 0.003110 0.0
-0.004260 0.006702 0.0
-0.008943 0.008469 0.0
-0.014327 0.009243 0.0
-0.020032 0.009565 0.0
-0.025888 0.009716 0.0
-0.031826 0.009819 0.0
-0.037826 0.009920 0.0
-0.043884 0.010033 0.0
-0.050001 0.010160 0.0
-0.056181 0.010297 0.0
-0.062426 0.010442 0.0
-0.068735 0.010590 0.0
-0.075107 0.010737 0.0
-0.081535 0.010878 0.0
-0.088010 0.011007 0.0
-0.094519 0.011114 0.0
-0.101043 0.011192 0.0
-0.107556 0.011230 0.0
-0.114028 0.011214 0.0
-0.120418 0.011130 0.0
-0.126678 0.010960 0.0
-0.132750 0.010687 0.0
-0.138565 0.010288 0.0
-0.144044 0.009742 0.0
-0.149096 0.009026 0.0
-0.153618 0.008118 0.0
-0.157500 0.006995 0.0
-0.160620 0.005642 0.0
-0.162853 0.004047 0.0
-0.164070 0.002207 0.0
-0.164142 0.000126 0.0
-0.162949 -0.002183 0.0
-0.160393 -0.004695 0.0
-0.156410 -0.007355 0.0
-0.150965 -0.010093 0.0
-0.144056 -0.012827 0.0
-0.135727 -0.015463 0.0
-0.126070 -0.017903 0.0
-0.115224 -0.020051 0.0
-0.103370 -0.021823 0.0
-0.090731 -0.023149 0.0
-0.077557 -0.023978 0.0
-0.064121 -0.024266 0.0
-0.050722 -0.023955 0.0
-0.037701 -0.022921 0.0
-0.025489 -0.020903 0.0
-0.014697 -0.017413 0.0
-0.006229 -0.011752 0.0
-0.001356 -0.003680 0.0
-0.001238 0.005427 0.0
-0.004859 0.011187 0.0
-0.010142 0.013950 0.0
-0.016171 0.015175 0.0
-0.022534 0.015702 0.0
-0.029054 0.015956 0.0
-0.035663 0.016126 0.0
-0.042336 0.016286 0.0
-0.049067 0.016457 0.0
-0.055857 0.016643 0.0
-0.062706 0.016843 0.0
-0.069616 0.017050 0.0
-0.076584 0.017259 0.0
-0.083605 0.017462 0.0
-0.090673 0.017650 0.0
-0.097775 0.017813 0.0
-0.104894 0.017937 0.0
-0.112009 0.018009 0.0
-0.119092 0.018010 0.0
-0.126106 0.017920 0.0
-0.133007 0.017715 0.0
-0.139743 0.017370 0.0
-0.146249 0.016855 0.0
-0.152451 0.016138 0.0
-0.158264 0.015185 0.0
-0.163591 0.013962 0.0
-0.168323 0.012436 0.0
-0.172340 0.010576 0.0
-0.175517 0.008358 0.0
-0.177718 0.005765 0.0
-0.178806 0.002794 0.0
-0.178648 -0.000546 0.0
-0.177123 -0.004229 0.0
-0.174130 -0.008196 0.0
-0.169597 -0.012369 0.0
-0.163480 -0.016642 0.0
-0.155777 -0.020890 0.0
-0.146535 -0.024970 0.0
-0.135856 -0.028732 0.0
-0.123895 -0.032029 0.0
-0.110864 -0.034729 0.0
-0.097020 -0.036725 0.0
-0.082657 -0.037939 0.0
-0.068091 -0.038306 0.0
-0.053661 -0.037744 0.0
-0.039735 -0.036078 0.0
-0.026761 -0.032932 0.0
-0.015354 -0.027584 0.0
-0.006449 -0.018954 0.0
-0.001381 -0.006418 0.0
-0.001308 0.007972 0.0
-0.005137 0.016093 0.0
-0.010718 0.019909 0.0
-0.017069 0.021596 0.0
-0.023756 0.022331 0.0
-0.030599 0.022691 0.0
-0.037530 0.022930 0.0
-0.044524 0.023149 0.0
-0.051577 0.023378 0.0
-0.058688 0.023623 0.0
-0.065858 0.023882 0.0
-0.073087 0.024149 0.0
-0.080371 0.024413 0.0
-0.087707 0.024665 0.0
-0.095086 0.024893 0.0
-0.102496 0.025081 0.0
-0.109921 0.025212 0.0
-0.117337 0.025265 0.0
-0.124716 0.025215 0.0
-0.132022 0.025034 0.0
-0.139211 0.024691 0.0
-0.146229 0.024148 0.0
-0.153012 0.023366 0.0
-0.159485 0.022302 0.0
-0.165561 0.020910 0.0
-0.171142 0.019144 0.0
-0.176115 0.016959 0.0
-0.180359 0.014315 0.0
-0.183740 0.011177 0.0
-0.186116 0.007524 0.0
-0.187343 0.003350 0.0
-0.187275 -0.001329 0.0
-0.185778 -0.006470 0.0
-0.182731 -0.011995 0.0
-0.178037 -0.017798 0.0
-0.171630 -0.023736 0.0
-0.163493 -0.029635 0.0
-0.153663 -0.035297 0.0
-0.142243 -0.040506 0.0
-0.129406 -0.045053 0.0
-0.115399 -0.048744 0.0
-0.100530 -0.051423 0.0
-0.085156 -0.052978 0.0
-0.069663 -0.053326 0.0
-0.054449 -0.052369 0.0
-0.039928 -0.049900 0.0
-0.026568 -0.045444 0.0
-0.014992 -0.038053 0.0
-0.006128 -0.026254 0.0
-0.001257 -0.009057 0.0
-0.001331 0.010611 0.0
-0.005240 0.021192 0.0
-0.010945 0.026096 0.0
-0.017436 0.028251 0.0
-0.024265 0.029192 0.0
-0.031248 0.029656 0.0
-0.038317 0.029965 0.0
-0.045450 0.030243 0.0
-0.052643 0.030530 0.0
-0.059896 0.030835 0.0
-0.067210 0.031155 0.0
-0.074586 0.031481 0.0
-0.082023 0.031802 0.0
-0.089515 0.032105 0.0
-0.097057 0.032374 0.0
-0.104638 0.032591 0.0
-0.112242 0.032731 0.0
-0.119849 0.032769 0.0
-0.127433 0.032674 0.0
-0.134960 0.032409 0.0
-0.142388 0.031933 0.0
-0.149666 0.031201 0.0
-0.156733 0.030162 0.0
-0.163516 0.028761 0.0
-0.169929 0.026940 0.0
-0.175873 0.024639 0.0
-0.181237 0.021801 0.0
-0.185892 0.018372 0.0
-0.189699 0.014307 0.0
-0.192506 0.009576 0.0
-0.194150 0.004169 0.0
-0.194467 -0.001898 0.0
-0.193293 -0.008572 0.0
-0.190472 -0.015761 0.0
-0.185871 -0.023329 0.0
-0.179387 -0.031095 0.0
-0.170972 -0.038829 0.0
-0.160640 -0.046265 0.0
-0.148490 -0.053108 0.0
-0.134715 -0.059062 0.0
-0.119606 -0.063850 0.0
-0.103546 -0.067246 0.0
-0.086987 -0.069088 0.0
-0.070422 -0.069274 0.0
-0.054347 -0.067710 0.0
-0.039244 -0.064183 0.0
-0.025615 -0.058150 0.0
-0.014076 -0.048461 0.0
-0.005511 -0.033275 0.0
-0.001052 -0.011366 0.0
-0.001331 0.013273 0.0
-0.005250 0.026357 0.0
-0.010984 0.032370 0.0
-0.017515 0.034998 0.0
-0.024386 0.036144 0.0
-0.031412 0.036712 0.0
-0.038524 0.037090 0.0
-0.045703 0.037429 0.0
-0.052944 0.037778 0.0
-0.060249 0.038146 0.0
-0.067622 0.038531 0.0
-0.075065 0.038923 0.0
-0.082577 0.039308 0.0
-0.090156 0.039671 0.0
-0.097799 0.039993 0.0
-0.105498 0.040251 0.0
-0.113239 0.040417 0.0
-0.121008 0.040459 0.0
-0.128781 0.040341 0.0
-0.136530 0.040017 0.0
-0.144217 0.039440 0.0
-0.151796 0.038552 0.0
-0.159210 0.037293 0.0
-0.166391 0.035594 0.0
-0.173255 0.033385 0.0
-0.179707 0.030590 0.0
-0.185630 0.027137 0.0
-0.190894 0.022956 0.0
-0.195349 0.017986 0.0
-0.198826 0.012182 0.0
-0.201142 0.005524 0.0
-0.202100 -0.001978 0.0
-0.201495 -0.010271 0.0
-0.199127 -0.019251 0.0
-0.194809 -0.028759 0.0
-0.188386 -0.038571 0.0
-0.179758 -0.048396 0.0
-0.168904 -0.057883 0.0
-0.155908 -0.066636 0.0
-0.140979 -0.074239 0.0
-0.124466 -0.080296 0.0
-0.106855 -0.084472 0.0
-0.088742 -0.086533 0.0
-0.070780 -0.086355 0.0
-0.053618 -0.083868 0.0
-0.037844 -0.078902 0.0
-0.023998 -0.070907 0.0
-0.012664 -0.058578 0.0
-0.004625 -0.039762 0.0
-0.000772 -0.013191 0.0
-0.001318 0.015921 0.0
-0.005210 0.031521 0.0
-0.010922 0.038654 0.0
-0.017437 0.041760 0.0
-0.024297 0.043114 0.0
-0.031314 0.043786 0.0
-0.038420 0.044235 0.0
-0.045595 0.044638 0.0
-0.052837 0.045052 0.0
-0.060151 0.045491 0.0
-0.067541 0.045949 0.0
-0.075012 0.046417 0.0
-0.082565 0.046879 0.0
-0.090202 0.047317 0.0
-0.097922 0.047710 0.0
-0.105722 0.048032 0.0
-0.113593 0.048250 0.0
-0.121525 0.048327 0.0
-0.129500 0.048221 0.0
-0.137496 0.047881 0.0
-0.145482 0.047249 0.0
-0.153419 0.046259 0.0
-0.161256 0.044837 0.0
-0.168930 0.042905 0.0
-0.176364 0.040373 0.0
-0.183462 0.037152 0.0
-0.190110 0.033147 0.0
-0.196170 0.028270 0.0
-0.201482 0.022438 0.0
-0.205858 0.015584 0.0
-0.209088 0.007668 0.0
-0.210935 -0.001317 0.0
-0.211146 -0.011326 0.0
-0.209457 -0.022252 0.0
-0.205613 -0.033920 0.0
-0.199385 -0.046062 0.0
-0.190600 -0.058319 0.0
-0.179174 -0.070240 0.0
-0.165157 -0.081293 0.0
-0.148766 -0.090902 0.0
-0.130418 -0.098493 0.0
-0.110738 -0.103565 0.0
-0.090527 -0.105764 0.0
-0.070686 -0.104927 0.0
-0.052099 -0.101045 0.0
-0.035520 -0.094078 0.0
-0.021526 -0.083571 0.0
-0.010619 -0.068155 0.0
-0.003397 -0.045445 0.0
-0.000397 -0.014360 0.0
-0.001298 0.018536 0.0
-0.005143 0.036643 0.0
-0.010803 0.044903 0.0
-0.017271 0.048493 0.0
-0.024088 0.050058 0.0
-0.031067 0.050837 0.0
-0.038138 0.051360 0.0
-0.045282 0.051832 0.0
-0.052501 0.052319 0.0
-0.059800 0.052836 0.0
-0.067185 0.053379 0.0
-0.074663 0.053936 0.0
-0.082241 0.054491 0.0
-0.089922 0.055024 0.0
-0.097711 0.055512 0.0
-0.105608 0.055926 0.0
-0.113612 0.056230 0.0
-0.121716 0.056383 0.0
-0.129912 0.056336 0.0
-0.138183 0.056033 0.0
-0.146509 0.055408 0.0
-0.154858 0.054385 0.0
-0.163188 0.052878 0.0
-0.171444 0.050794 0.0
-0.179556 0.048029 0.0
-0.187433 0.044471 0.0
-0.194960 0.040004 0.0
-0.201998 0.034512 0.0
-0.208375 0.027884 0.0
-0.213883 0.020023 0.0
-0.218282 0.010857 0.0
-0.221291 0.000351 0.0
-0.222597 -0.011477 0.0
-0.221861 -0.024526 0.0
-0.218737 -0.038614 0.0
-0.212892 -0.053440 0.0
-0.204048 -0.068571 0.0
-0.192024 -0.083437 0.0
-0.176800 -0.097337 0.0
-0.158580 -0.109470 0.0
-0.137848 -0.119005 0.0
-0.115404 -0.125178 0.0
-0.092338 -0.127429 0.0
-0.069923 -0.125518 0.0
-0.049422 -0.119541 0.0
-0.031850 -0.109732 0.0
-0.017834 -0.095927 0.0
-0.007694 -0.076847 0.0
-0.001709 -0.049959 0.0
0.000101 -0.014657 0.0
-0.001272 0.021106 0.0
-0.005057 0.041703 0.0
-0.010646 0.051092 0.0
-0.017046 0.055172 0.0
-0.023801 0.056952 0.0
-0.030722 0.057841 0.0
-0.037740 0.058444 0.0
-0.044837 0.058991 0.0
-0.052016 0.059558 0.0
-0.059283 0.060163 0.0
-0.066649 0.060803 0.0
-0.074122 0.061464 0.0
-0.081713 0.062131 0.0
-0.089430 0.062783 0.0
-0.097282 0.063394 0.0
-0.105274 0.063933 0.0
-0.113411 0.064363 0.0
-0.121696 0.064639 0.0
-0.130126 0.064707 0.0
-0.138697 0.064505 0.0
-0.147396 0.063960 0.0
-0.156202 0.062987 0.0
-0.165085 0.061489 0.0
-0.174000 0.059356 0.0
-0.182888 0.056467 0.0
-0.191666 0.052687 0.0
-0.200223 0.047873 0.0
-0.208421 0.041877 0.0
-0.216077 0.034551 0.0
-0.222970 0.025756 0.0
-0.228823 0.015376 0.0
-0.233312 0.003330 0.0
-0.236060 -0.010402 0.0
-0.236635 -0.025762 0.0
-0.234568 -0.042568 0.0
-0.229398 -0.060501 0.0
-0.220694 -0.079058 0.0
-0.208130 -0.097537 0.0
-0.191564 -0.115026 0.0
-0.171141 -0.130425 0.0
-0.147393 -0.142530 0.0
-0.121314 -0.150174 0.0
-0.094370 -0.152443 0.0
-0.068374 -0.148916 0.0
-0.045191 -0.139827 0.0
-0.026306 -0.125904 0.0
-0.012442 -0.107635 0.0
-0.003582 -0.084139 0.0
0.000577 -0.052811 0.0
0.000759 -0.013797 0.0
-0.001243 0.023622 0.0
-0.004955 0.046684 0.0
-0.010458 0.057204 0.0
-0.016776 0.061779 0.0
-0.023454 0.063779 0.0
-0.030302 0.064784 0.0
-0.037252 0.065470 0.0
-0.044288 0.066098 0.0
-0.051413 0.066754 0.0
-0.058635 0.067458 0.0
-0.065968 0.068207 0.0
-0.073425 0.068990 0.0
-0.081018 0.069789 0.0
-0.088760 0.070585 0.0
-0.096665 0.071349 0.0
-0.104746 0.072051 0.0
-0.113015 0.072651 0.0
-0.121481 0.073102 0.0
-0.130153 0.073347 0.0
-0.139035 0.073319 0.0
-0.148128 0.072938 0.0
-0.157424 0.072111 0.0
-0.166907 0.070730 0.0
-0.176546 0.068670 0.0
-0.186296 0.065790 0.0
-0.196087 0.061931 0.0
-0.205821 0.056920 0.0
-0.215362 0.050569 0.0
-0.224529 0.042684 0.0
-0.233086 0.033073 0.0
-0.240732 0.021558 0.0
-0.247090 0.007995 0.0
-0.251707 -0.007703 0.0
-0.254048 -0.025546 0.0
-0.253515 -0.045383 0.0
-0.249471 -0.066901 0.0
-0.241289 -0.089544 0.0
-0.228434 -0.112470 0.0
-0.210579 -0.134514 0.0
-0.187739 -0.154199 0.0
-0.160427 -0.169816 0.0
-0.129792 -0.179602 0.0
-0.097703 -0.182050 0.0
-0.066671 -0.176337 0.0
-0.039501 -0.162759 0.0
-0.018561 -0.142798 0.0
-0.004925 -0.118239 0.0
0.002001 -0.089322 0.0
0.003609 -0.053396 0.0
0.001627 -0.011411 0.0
-0.001210 0.026075 0.0
-0.004839 0.051573 0.0
-0.010244 0.063223 0.0
-0.016465 0.068298 0.0
-0.023052 0.070524 0.0
-0.029814 0.071649 0.0
-0.036683 0.072424 0.0
-0.043644 0.073140 0.0
-0.050700 0.073892 0.0
-0.057864 0.074706 0.0
-0.065150 0.075578 0.0
-0.072575 0.076499 0.0
-0.080155 0.077453 0.0
-0.087909 0.078417 0.0
-0.095855 0.079368 0.0
-0.104013 0.080271 0.0
-0.112402 0.081088 0.0
-0.121041 0.081770 0.0
-0.129950 0.082259 0.0
-0.139145 0.082484 0.0
-0.148640 0.082361 0.0
-0.158444 0.081788 0.0
-0.168557 0.080649 0.0
-0.178968 0.078803 0.0
-0.189651 0.076091 0.0
-0.200556 0.072327 0.0
-0.211603 0.067304 0.0
-0.222670 0.060792 0.0
-0.233585 0.052543 0.0
-0.244109 0.042296 0.0
-0.253921 0.029794 0.0
-0.262604 0.014801 0.0
-0.269627 -0.002869 0.0
-0.274348 -0.023318 0.0
-0.276019 -0.046473 0.0
-0.273805 -0.072069 0.0
-0.266845 -0.099518 0.0
-0.254358 -0.127839 0.0
-0.235766 -0.155592 0.0
-0.210862 -0.180866 0.0
-0.179988 -0.201336 0.0
-0.144257 -0.214446 0.0
-0.105778 -0.217773 0.0
-0.067769 -0.209654 0.0
-0.034316 -0.190065 0.0
-0.009462 -0.161286 0.0
0.004574 -0.127422 0.0
0.009154 -0.091645 0.0
0.007479 -0.051005 0.0
0.002722 -0.007063 0.0
-0.001173 0.028457 0.0
-0.004710 0.056357 0.0
-0.010002 0.069136 0.0
-0.016114 0.074717 0.0
-0.022596 0.077173 0.0
-0.029258 0.078423 0.0
-0.036032 0.079293 0.0
-0.042903 0.080103 0.0
-0.049876 0.080959 0.0
-0.056965 0.081892 0.0
-0.064188 0.082901 0.0
-0.071564 0.083977 0.0
-0.079113 0.085105 0.0
-0.086860 0.086265 0.0
-0.094827 0.087433 0.0
-0.103041 0.088578 0.0
-0.111531 0.089660 0.0
-0.120325 0.090632 0.0
-0.129454 0.091435 0.0
-0.138948 0.091997 0.0
-0.148837 0.092231 0.0
-0.159148 0.092032 0.0
-0.169903 0.091273 0.0
-0.181114 0.089802 0.0
-0.192780 0.087441 0.0
-0.204880 0.083981 0.0
-0.217361 0.079177 0.0
-0.230127 0.072753 0.0
-0.243028 0.064398 0.0
-0.255835 0.053771 0.0
-0.268223 0.040518 0.0
-0.279747 0.024284 0.0
-0.289826 0.004750 0.0
-0.297735 -0.018307 0.0
-0.302563 -0.044985 0.0
-0.303272 -0.075062 0.0
-0.298804 -0.107953 0.0
-0.288141 -0.142555 0.0
-0.270422 -0.177186 0.0
-0.245063 -0.209535 0.0
-0.211946 -0.236658 0.0
-0.171736 -0.255066 0.0
-0.126316 -0.261052 0.0
-0.079243 -0.251458 0.0
-0.035930 -0.225027 0.0
-0.003040 -0.184068 0.0
0.014277 -0.135993 0.0
0.017314 -0.090693 0.0
0.011999 -0.044968 0.0
0.003999 -0.000342 0.0
-0.001131 0.030761 0.0
-0.004565 0.061024 0.0
-0.009733 0.074930 0.0
-0.015721 0.081022 0.0
-0.022085 0.083714 0.0
-0.028633 0.085093 0.0
-0.035297 0.086061 0.0
-0.042062 0.086970 0.0
-0.048934 0.087938 0.0
-0.055931 0.088999 0.0
-0.063071 0.090157 0.0
-0.070376 0.091403 0.0
-0.077872 0.092725 0.0
-0.085586 0.094106 0.0
-0.093548 0.095522 0.0
-0.101792 0.096946 0.0
-0.110353 0.098342 0.0
-0.119271 0.099662 0.0
-0.128590 0.100852 0.0
-0.138353 0.101838 0.0
-0.148610 0.102536 0.0
-0.159406 0.102836 0.0
-0.170790 0.102608 0.0
-0.182803 0.101691 0.0
-0.195475 0.099892 0.0
-0.208822 0.096977 0.0
-0.222831 0.092671 0.0
-0.237450 0.086645 0.0
-0.252567 0.078523 0.0
-0.267988 0.067875 0.0
-0.283414 0.054228 0.0
-0.298404 0.037087 0.0
-0.312347 0.015969 0.0
-0.324432 -0.009532 0.0
-0.333686 -0.039679 0.0
-0.339008 -0.074336 0.0
-0.339221 -0.112935 0.0
-0.333127 -0.154330 0.0
-0.319500 -0.196758 0.0
-0.297096 -0.237725 0.0
-0.264883 -0.273798 0.0
-0.222529 -0.300490 0.0
-0.171088 -0.312489 0.0
-0.113748 -0.304433 0.0
-0.056592 -0.272519 0.0
-0.008820 -0.217238 0.0
0.018938 -0.147898 0.0
0.024381 -0.087267 0.0
0.016402 -0.035101 0.0
0.005268 0.008925 0.0
-0.001086 0.032978 0.0
-0.004407 0.065561 0.0
-0.009436 0.080590 0.0
-0.015286 0.087199 0.0
-0.021517 0.090131 0.0
-0.027936 0.091643 0.0
-0.034474 0.092713 0.0
-0.041116 0.093725 0.0
-0.047870 0.094810 0.0
-0.054753 0.096007 0.0
-0.061787 0.097323 0.0
-0.068997 0.098753 0.0
-0.076413 0.100286 0.0
-0.084064 0.101910 0.0
-0.091988 0.103604 0.0
-0.100224 0.105344 0.0
-0.108817 0.107098 0.0
-0.117817 0.108824 0.0
-0.127279 0.110470 0.0
-0.137265 0.111969 0.0
-0.147841 0.113237 0.0
-0.159077 0.114168 0.0
-0.171049 0.114631 0.0
-0.183831 0.114462 0.0
-0.197495 0.113457 0.0
-0.212102 0.111366 0.0
-0.227693 0.107883 0.0
-0.244276 0.102635 0.0
-0.261802 0.095176 0.0
-0.280142 0.084983 0.0
-0.299051 0.071455 0.0
-0.318136 0.053935 0.0
-0.336827 0.031756 0.0
-0.354381 0.004322 0.0
-0.369924 -0.028736 0.0
-0.382414 -0.067467 0.0
-0.390669 -0.111336 0.0
-0.393283 -0.159408 0.0
-0.388347 -0.210244 0.0
-0.373475 -0.261515 0.0
-0.346287 -0.309409 0.0
-0.305184 -0.348335 0.0
-0.250114 -0.371156 0.0
-0.183315 -0.369905 0.0
-0.110304 -0.337214 0.0
-0.041213 -0.269407 0.0
0.008396 -0.173097 0.0
0.025964 -0.085079 0.0
0.019082 -0.022427 0.0
0.006137 0.020330 0.0
-0.001037 0.035101 0.0
-0.004233 0.069956 0.0
-0.009112 0.086104 0.0
-0.014810 0.093234 0.0
-0.020893 0.096411 0.0
-0.027167 0.098058 0.0
-0.033562 0.099232 0.0
-0.040063 0.100349 0.0
-0.046677 0.101554 0.0
-0.053424 0.102893 0.0
-0.060327 0.104375 0.0
-0.067414 0.105998 0.0
-0.074716 0.107758 0.0
-0.082269 0.109643 0.0
-0.090115 0.111640 0.0
-0.098298 0.113728 0.0
-0.106873 0.115882 0.0
-0.115900 0.118067 0.0
-0.125446 0.120236 0.0
-0.135587 0.122331 0.0
-0.146411 0.124274 0.0
-0.158013 0.125968 0.0
-0.170497 0.127286 0.0
-0.183977 0.128068 0.0
-0.198571 0.128108 0.0
-0.214396 0.127148 0.0
-0.231564 0.124860 0.0
-0.250159 0.120836 0.0
-0.270227 0.114569 0.0
-0.291740 0.105443 0.0
-0.314570 0.092734 0.0
-0.338459 0.075629 0.0
-0.363007 0.053300 0.0
-0.387693 0.025017 0.0
-0.411876 -0.009705 0.0
-0.434781 -0.051104 0.0
-0.455172 -0.099052 0.0
-0.470907 -0.153343 0.0
-0.478758 -0.213395 0.0
-0.474800 -0.277194 0.0
-0.455420 -0.340297 0.0
-0.418216 -0.395755 0.0
-0.362395 -0.434627 0.0
-0.289099 -0.446528 0.0
-0.202265 -0.420437 0.0
-0.110486 -0.347055 0.0
-0.029486 -0.226057 0.0
0.014628 -0.093801 0.0
0.017815 -0.010009 0.0
0.006102 0.032569 0.0
-0.000984 0.037122 0.0
-0.004046 0.074194 0.0
-0.008759 0.091457 0.0
-0.014291 0.099111 0.0
-0.020212 0.102536 0.0
-0.026325 0.104320 0.0
-0.032560 0.105599 0.0
-0.038899 0.106821 0.0
-0.045352 0.108149 0.0
-0.051939 0.109631 0.0
-0.058683 0.111283 0.0
-0.065615 0.113108 0.0
-0.072768 0.115104 0.0
-0.080182 0.117265 0.0
-0.087903 0.119584 0.0
-0.095981 0.122047 0.0
-0.104479 0.124636 0.0
-0.113463 0.127324 0.0
-0.123016 0.130077 0.0
-0.133227 0.132844 0.0
-0.144204 0.135562 0.0
-0.156066 0.138144 0.0
-0.168950 0.140478 0.0
-0.183009 0.142415 0.0
-0.198415 0.143760 0.0
-0.215350 0.144257 0.0
-0.234007 0.143575 0.0
-0.254574 0.141284 0.0
-0.277223 0.136836 0.0
-0.302079 0.129545 0.0
-0.329206 0.118589 0.0
-0.358591 0.103049 0.0
-0.390171 0.082008 0.0
-0.423843 0.054667 0.0
-0.459372 0.020357 0.0
-0.495991 -0.021642 0.0
-0.531641 -0.072473 0.0
-0.562582 -0.133248 0.0
-0.583862 -0.204359 0.0
-0.590482 -0.283567 0.0
-0.578691 -0.365094 0.0
-0.546338 -0.440515 0.0
-0.492446 -0.499579 0.0
-0.417040 -0.530277 0.0
-0.321834 -0.518728 0.0
-0.212152 -0.450224 0.0
-0.100962 -0.315077 0.0
-0.017427 -0.132429 0.0
0.011065 -0.003061 0.0
0.004864 0.043535 0.0
-0.000927 0.039032 0.0
-0.003845 0.078264 0.0
-0.008380 0.096634 0.0
-0.013732 0.104818 0.0
-0.019475 0.108493 0.0
-0.025412 0.110414 0.0
-0.031469 0.111795 0.0
-0.037627 0.113123 0.0
-0.043896 0.114570 0.0
-0.050296 0.116196 0.0
-0.056851 0.118019 0.0
-0.063594 0.120047 0.0
-0.070559 0.122284 0.0
-0.077789 0.124729 0.0
-0.085333 0.127383 0.0
-0.093246 0.130240 0.0
-0.101596 0.133290 0.0
-0.110459 0.136518 0.0
-0.119926 0.139902 0.0
-0.130102 0.143407 0.0
-0.141111 0.146985 0.0
-0.153096 0.150569 0.0
-0.166226 0.154068 0.0
-0.180696 0.157355 0.0
-0.196729 0.160259 0.0
-0.214582 0.162546 0.0
-0.234541 0.163901 0.0
-0.256918 0.163903 0.0
-0.282048 0.161995 0.0
-0.310276 0.157471 0.0
-0.341970 0.149483 0.0
-0.377539 0.137109 0.0
-0.417440 0.119430 0.0
-0.462024 0.095502 0.0
-0.511005 0.064032 0.0
-0.562576 0.022874 0.0
-0.612870 -0.031044 0.0
-0.656244 -0.100362 0.0
-0.686822 -0.185386 0.0
-0.700167 -0.282575 0.0
-0.693790 -0.384255 0.0
-0.666496 -0.481001 0.0
-0.617260 -0.562222 0.0
-0.544868 -0.615433 0.0
-0.448531 -0.625116 0.0
-0.329761 -0.572287 0.0
-0.196317 -0.437649 0.0
-0.070932 -0.218777 0.0
-0.004797 -0.011341 0.0
0.002410 0.050809 0.0
-0.000867 0.040827 0.0
-0.003633 0.082154 0.0
-0.007977 0.101624 0.0
-0.013136 0.110339 0.0
-0.018687 0.114266 0.0
-0.024431 0.116322 0.0
-0.030291 0.117804 0.0
-0.036249 0.119230 0.0
-0.042311 0.120793 0.0
-0.048497 0.122558 0.0
-0.054833 0.124548 0.0
-0.061350 0.126777 0.0
-0.068086 0.129254 0.0
-0.075083 0.131986 0.0
-0.082393 0.134980 0.0
-0.090075 0.138239 0.0
-0.098200 0.141766 0.0
-0.106851 0.145557 0.0
-0.116127 0.149606 0.0
-0.126145 0.153896 0.0
-0.137041 0.158401 0.0
-0.148982 0.163079 0.0
-0.162164 0.167869 0.0
-0.176818 0.172678 0.0
-0.193224 0.177375 0.0
-0.211710 0.181768 0.0
-0.232662 0.185590 0.0
-0.256536 0.188465 0.0
-0.283861 0.189889 0.0
-0.315275 0.189219 0.0
-0.351556 0.185709 0.0
-0.393656 0.178551 0.0
-0.442553 0.166785 0.0
-0.498660 0.148837 0.0
-0.560707 0.121726 0.0
-0.624748 0.080793 0.0
-0.684488 0.021071 0.0
-0.733435 -0.060156 0.0
-0.766939 -0.161510 0.0
-0.782597 -0.277448 0.0
-0.779682 -0.398673 0.0
-0.757875 -0.515683 0.0
-0.716026 -0.618624 0.0
-0.651713 -0.695736 0.0
-0.561635 -0.731227 0.0
-0.443300 -0.703281 0.0
-0.298801 -0.584599 0.0
-0.143135 -0.352878 0.0
-0.032592 -0.053918 0.0
0.000185 0.053404 0.0
-0.000804 0.042498 0.0
-0.003409 0.085853 0.0
-0.007552 0.106412 0.0
-0.012505 0.115661 0.0
-0.017851 0.119841 0.0
-0.023388 0.122029 0.0
-0.029035 0.123604 0.0
-0.034771 0.125124 0.0
-0.040603 0.126794 0.0
-0.046548 0.128689 0.0
-0.052633 0.130838 0.0
-0.058888 0.133260 0.0
-0.065351 0.135969 0.0
-0.072064 0.138981 0.0
-0.079080 0.142310 0.0
-0.086460 0.145971 0.0
-0.094278 0.149976 0.0
-0.102619 0.154339 0.0
-0.111587 0.159069 0.0
-0.121307 0.164170 0.0
-0.131928 0.169643 0.0
-0.143628 0.175478 0.0
-0.156627 0.181650 0.0
-0.171190 0.188115 0.0
-0.187640 0.194794 0.0
-0.206374 0.201568 0.0
-0.227876 0.208246 0.0
-0.252748 0.214555 0.0
-0.281744 0.220121 0.0
-0.315830 0.224485 0.0
-0.356234 0.227128 0.0
-0.404365 0.227364 0.0
-0.461302 0.223806 0.0
-0.526656 0.213277 0.0
-0.597299 0.189976 0.0
-0.667214 0.146498 0.0
-0.729180 0.077072 0.0
-0.777244 -0.019145 0.0
-0.808775 -0.137486 0.0
-0.823851 -0.270739 0.0
-0.823217 -0.408930 0.0
-0.807234 -0.543216 0.0
-0.774843 -0.665331 0.0
-0.722804 -0.765383 0.0
-0.645659 -0.828804 0.0
-0.537100 -0.832598 0.0
-0.393736 -0.743145 0.0
-0.222979 -0.520756 0.0
-0.064276 -0.155286 0.0
0.002065 0.055654 0.0
-0.000739 0.044041 0.0
-0.003177 0.089352 0.0
-0.007109 0.110989 0.0
-0.011845 0.120773 0.0
-0.016973 0.125204 0.0
-0.022289 0.127519 0.0
-0.027707 0.129179 0.0
-0.033203 0.130781 0.0
-0.038783 0.132547 0.0
-0.044461 0.134560 0.0
-0.050263 0.136854 0.0
-0.056219 0.139454 0.0
-0.062364 0.142382 0.0
-0.068742 0.145659 0.0
-0.075403 0.149309 0.0
-0.082409 0.153358 0.0
-0.089832 0.157830 0.0
-0.097759 0.162754 0.0
-0.106296 0.168159 0.0
-0.115570 0.174073 0.0
-0.125733 0.180525 0.0
-0.136976 0.187540 0.0
-0.149527 0.195140 0.0
-0.163675 0.203336 0.0
-0.179775 0.212123 0.0
-0.198274 0.221472 0.0
-0.219742 0.231312 0.0
-0.244910 0.241529 0.0
-0.274738 0.251971 0.0
-0.310483 0.262466 0.0
-0.353688 0.272757 0.0
-0.405850 0.282029 0.0
-0.467490 0.287719 0.0
-0.536824 0.284053 0.0
-0.609067 0.262085 0.0
-0.677415 0.212653 0.0
-0.735373 0.130841 0.0
-0.778809 0.018586 0.0
-0.806436 -0.116060 0.0
-0.819539 -0.263987 0.0
-0.820253 -0.415602 0.0
-0.809746 -0.563035 0.0
-0.787537 -0.700112 0.0
-0.750322 -0.819856 0.0
-0.691196 -0.910602 0.0
-0.600383 -0.950172 0.0
-0.468742 -0.900576 0.0
-0.295035 -0.707790 0.0
-0.099455 -0.322533 0.0
-0.000307 0.057412 0.0
-0.000673 0.045454 0.0
-0.002939 0.092643 0.0
-0.006653 0.115345 0.0
-0.011163 0.125663 0.0
-0.016064 0.130342 0.0
-0.021146 0.132778 0.0
-0.026320 0.134513 0.0
-0.031559 0.136183 0.0
-0.036864 0.138030 0.0
-0.042251 0.140142 0.0
-0.047740 0.142563 0.0
-0.053361 0.145321 0.0
-0.059146 0.148445 0.0
-0.065136 0.151964 0.0
-0.071382 0.155911 0.0
-0.077940 0.160320 0.0
-0.084881 0.165232 0.0
-0.092290 0.170689 0.0
-0.100269 0.176740 0.0
-0.108942 0.183438 0.0
-0.118461 0.190842 0.0
-0.129013 0.199017 0.0
-0.140832 0.208033 0.0
-0.154208 0.217966 0.0
-0.169511 0.228896 0.0
-0.187214 0.240903 0.0
-0.207935 0.254070 0.0
-0.232488 0.268493 0.0
-0.261961 0.284308 0.0
-0.297759 0.301670 0.0
-0.341461 0.320460 0.0
-0.394249 0.339274 0.0
-0.455786 0.353651 0.0
-0.523168 0.354838 0.0
-0.590980 0.331354 0.0
-0.652859 0.273612 0.0
-0.703613 0.178593 0.0
-0.740512 0.051170 0.0
-0.763245 -0.098283 0.0
-0.773797 -0.258108 0.0
-0.774962 -0.419603 0.0
-0.768682 -0.575821 0.0
-0.755583 -0.722633 0.0
-0.733394 -0.856739 0.0
-0.695014 -0.971224 0.0
-0.628109 -1.047268 0.0
-0.518267 -1.044964 0.0
-0.357075 -0.898300 0.0
-0.158178 -0.526500 0.0
-0.026526 0.030579 0.0
-0.000606 0.046733 0.0
-0.002697 0.095720 0.0
-0.006188 0.119473 0.0
-0.010467 0.130323 0.0
-0.015131 0.135247 0.0
-0.019970 0.137793 0.0
-0.024888 0.139590 0.0
-0.029854 0.141312 0.0
-0.034867 0.143219 0.0
-0.039938 0.145410 0.0
-0.045086 0.147933 0.0
-0.050337 0.150823 0.0
-0.055722 0.154114 0.0
-0.061277 0.157842 0.0
-0.067047 0.162049 0.0
-0.073088 0.166780 0.0
-0.079463 0.172088 0.0
-0.086251 0.178030 0.0
-0.093547 0.184674 0.0
-0.101468 0.192098 0.0
-0.110155 0.200389 0.0
-0.119785 0.209652 0.0
-0.130579 0.220009 0.0
-0.142814 0.231601 0.0
-0.156848 0.244598 0.0
-0.173145 0.259201 0.0
-0.192316 0.275663 0.0
-0.215180 0.294317 0.0
-0.242822 0.315600 0.0
-0.276584 0.339938 0.0
-0.317818 0.367129 0.0
-0.367205 0.394780 0.0
-0.423772 0.416249 0.0
-0.484265 0.420114 0.0
-0.543643 0.393266 0.0
-0.596599 0.326535 0.0
-0.639170 0.218995 0.0
-0.669592 0.078089 0.0
-0.688220 -0.083841 0.0
-0.696862 -0.253355 0.0
-0.697977 -0.422076 0.0
-0.694069 -0.583537 0.0
-0.687259 -0.734825 0.0
-0.677550 -0.876445 0.0
-0.659440 -1.008009 0.0
-0.619733 -1.117095 0.0
-0.539969 -1.164744 0.0
-0.405649 -1.074031 0.0
-0.224059 -0.731257 0.0
-0.062214 -0.058161 0.0
-0.000539 0.047878 0.0
-0.002456 0.098583 0.0
-0.005723 0.123369 0.0
-0.009765 0.134749 0.0
-0.014189 0.139911 0.0
-0.018777 0.142556 0.0
-0.023429 0.144397 0.0
-0.028109 0.146151 0.0
-0.032813 0.148096 0.0
-0.037548 0.150339 0.0
-0.042330 0.152935 0.0
-0.047181 0.155923 0.0
-0.052127 0.159344 0.0
-0.057201 0.163241 0.0
-0.062443 0.167663 0.0
-0.067901 0.172664 0.0
-0.073631 0.178309 0.0
-0.079703 0.184669 0.0
-0.086201 0.191830 0.0
-0.093227 0.199889 0.0
-0.100906 0.208964 0.0
-0.109394 0.219195 0.0
-0.118884 0.230750 0.0
-0.129622 0.243834 0.0
-0.141925 0.258702 0.0
-0.156205 0.275673 0.0
-0.173008 0.295164 0.0
-0.193057 0.317730 0.0
-0.217292 0.344064 0.0
-0.246809 0.374753 0.0
-0.282588 0.409326 0.0
-0.324903 0.444286 0.0
-0.372627 0.471034 0.0
-0.422944 0.476139 0.0
-0.471887 0.445562 0.0
-0.515471 0.370780 0.0
-0.550781 0.252632 0.0
-0.576503 0.100595 0.0
-0.592867 -0.071355 0.0
-0.600995 -0.249071 0.0
-0.602376 -0.423863 0.0
-0.599266 -0.588768 0.0
-0.595175 -0.740495 0.0
-0.593153 -0.882506 0.0
-0.591089 -1.022122 0.0
-0.576931 -1.156847 0.0
-0.529029 -1.252658 0.0
-0.425445 -1.224021 0.0
-0.261767 -0.926535 0.0
-0.083060 -0.203435 0.0
-0.000474 0.048892 0.0
-0.002219 0.101230 0.0
-0.005263 0.127032 0.0
-0.009071 0.138936 0.0
-0.013252 0.144329 0.0
-0.017585 0.147058 0.0
-0.021964 0.148925 0.0
-0.026348 0.150688 0.0
-0.030729 0.152643 0.0
-0.035111 0.154908 0.0
-0.039505 0.157542 0.0
-0.043928 0.160590 0.0
-0.048404 0.164098 0.0
-0.052958 0.168115 0.0
-0.057624 0.172696 0.0
-0.062441 0.177905 0.0
-0.067457 0.183814 0.0
-0.072730 0.190508 0.0
-0.078327 0.198086 0.0
-0.084333 0.206664 0.0
-0.090849 0.216384 0.0
-0.097999 0.227414 0.0
-0.105940 0.239962 0.0
-0.114866 0.254287 0.0
-0.125026 0.270713 0.0
-0.136742 0.289658 0.0
-0.150434 0.311673 0.0
-0.166646 0.337482 0.0
-0.186053 0.367953 0.0
-0.209391 0.403720 0.0
-0.237247 0.443993 0.0
-0.269684 0.484371 0.0
-0.305881 0.514869 0.0
-0.344023 0.520764 0.0
-0.381631 0.487488 0.0
-0.416176 0.406982 0.0
-0.445665 0.281228 0.0
-0.468926 0.120982 0.0
-0.485482 -0.058822 0.0
-0.495184 -0.243775 0.0