# vtk DataFile Version 3.0
Vector Field
ASCII
DATASET RECTILINEAR_GRID
DIMENSIONS 50 50 1
X_COORDINATES 50 double
0.100000 0.300000 0.500000 0.700000 0.900000 1.100000 1.300000 1.500000 1.700000 1.900000 2.100000 2.300000 2.500000 2.700000 2.900000 3.100000 3.300000 3.500000 3.700000 3.900000 4.100000 4.300000 4.500000 4.700000 4.900000 5.100000 5.300000 5.500000 5.700000 5.900000 6.100000 6.300000 6.500000 6.700000 6.900000 7.100000 7.300000 7.500000 7.700000 7.900000 8.100000 8.300000 8.500000 8.700000 8.900000 9.100000 9.300000 9.500000 9.700000 9.900000 
Y_COORDINATES 50 double
0.100000 0.300000 0.500000 0.700000 0.900000 1.100000 1.300000 1.500000 1.700000 1.900000 2.100000 2.300000 2.500000 2.700000 2.900000 3.100000 3.300000 3.500000 3.700000 3.900000 4.100000 4.300000 4.500000 4.700000 4.900000 5.100000 5.300000 5.500000 5.700000 5.900000 6.100000 6.300000 6.500000 6.700000 6.900000 7.100000 7.300000 7.500000 7.700000 7.900000 8.100000 8.300000 8.500000 8.700000 8.900000 9.100000 9.300000 9.500000 9.700000 9.900000 
Z_COORDINATES 1 double
0.0
POINT_DATA 2500
VECTORS Vektorfeld double
-0.000197 0.000197 0.0
-0.000886 0.000492 0.0
-0.002005 0.000627 0.0
-0.003307 0.000675 0.0
-0.004668 0.000687 0.0
-0.006045 0.000689 0.0
-0.007424 0.000690 0.0
-0.008805 0.000691 0.0
-0.010187 0.000691 0.0
-0.011570 0.000692 0.0
-0.012954 0.000692 0.0
-0.014339 0.000692 0.0
-0.015722 0.000691 0.0
-0.017102 0.000689 0.0
-0.018476 0.000685 0.0
-0.019841 0.000680 0.0
-0.021194 0.000672 0.0
-0.022528 0.000662 0.0
-0.023840 0.000649 0.0
-0.025122 0.000633 0.0
-0.026368 0.000613 0.0
-0.027569 0.000588 0.0
-0.028715 0.000558 0.0
-0.029796 0.000523 0.0
-0.030800 0.000481 0.0
-0.031715 0.000433 0.0
-0.032526 0.000378 0.0
-0.033219 0.000315 0.0
-0.033778 0.000244 0.0
-0.034188 0.000166 0.0
-0.034433 0.000079 0.0
-0.034497 -0.000015 0.0
-0.034365 -0.000117 0.0
-0.034020 -0.000228 0.0
-0.033447 -0.000345 0.0
-0.032634 -0.000468 0.0
-0.031572 -0.000594 0.0
-0.030254 -0.000723 0.0
-0.028679 -0.000852 0.0
-0.026849 -0.000979 0.0
-0.024770 -0.001101 0.0
-0.022453 -0.001216 0.0
-0.019915 -0.001322 0.0
-0.017176 -0.001416 0.0
-0.014265 -0.001495 0.0
-0.011220 -0.001551 0.0
-0.008105 -0.001564 0.0
-0.005051 -0.001490 0.0
-0.002340 -0.001220 0.0
-0.000560 -0.000560 0.0
-0.000508 0.000902 0.0
-0.002015 0.001983 0.0
-0.004242 0.002482 0.0
-0.006789 0.002669 0.0
-0.009458 0.002724 0.0
-0.012165 0.002736 0.0
-0.014878 0.002736 0.0
-0.017587 0.002734 0.0
-0.020289 0.002731 0.0
-0.022981 0.002727 0.0
-0.025660 0.002721 0.0
-0.028323 0.002711 0.0
-0.030965 0.002697 0.0
-0.033581 0.002679 0.0
-0.036165 0.002654 0.0
-0.038711 0.002622 0.0
-0.041210 0.002581 0.0
-0.043653 0.002531 0.0
-0.046029 0.002469 0.0
-0.048326 0.002393 0.0
-0.050530 0.002303 0.0
-0.052627 0.002196 0.0
-0.054599 0.002069 0.0
-0.056429 0.001922 0.0
-0.058096 0.001753 0.0
-0.059578 0.001559 0.0
-0.060854 0.001339 0.0
-0.061897 0.001091 0.0
-0.062685 0.000815 0.0
-0.063191 0.000511 0.0
-0.063391 0.000178 0.0
-0.063258 -0.000183 0.0
-0.062767 -0.000572 0.0
-0.061897 -0.000988 0.0
-0.060629 -0.001426 0.0
-0.058948 -0.001881 0.0
-0.056842 -0.002349 0.0
-0.054306 -0.002822 0.0
-0.051340 -0.003294 0.0
-0.047951 -0.003756 0.0
-0.044153 -0.004201 0.0
-0.039966 -0.004619 0.0
-0.035420 -0.005003 0.0
-0.030551 -0.005343 0.0
-0.025407 -0.005624 0.0
-0.020056 -0.005818 0.0
-0.014613 -0.005856 0.0
-0.009289 -0.005576 0.0
-0.004515 -0.004619 0.0
-0.001168 -0.002288 0.0
-0.000665 0.002075 0.0
-0.002586 0.004239 0.0
-0.005358 0.005225 0.0
-0.008491 0.005607 0.0
-0.011762 0.005727 0.0
-0.015075 0.005753 0.0
-0.018394 0.005750 0.0
-0.021704 0.005739 0.0
-0.024999 0.005723 0.0
-0.028273 0.005702 0.0
-0.031524 0.005675 0.0
-0.034744 0.005640 0.0
-0.037929 0.005595 0.0
-0.041071 0.005539 0.0
-0.044163 0.005470 0.0
-0.047196 0.005385 0.0
-0.050160 0.005281 0.0
-0.053044 0.005157 0.0
-0.055834 0.005009 0.0
-0.058517 0.004833 0.0
-0.061077 0.004627 0.0
-0.063496 0.004387 0.0
-0.065755 0.004109 0.0
-0.067833 0.003790 0.0
-0.069707 0.003426 0.0
-0.071353 0.003014 0.0
-0.072745 0.002551 0.0
-0.073857 0.002035 0.0
-0.074661 0.001463 0.0
-0.075128 0.000836 0.0
-0.075229 0.000154 0.0
-0.074938 -0.000583 0.0
-0.074229 -0.001372 0.0
-0.073079 -0.002208 0.0
-0.071469 -0.003084 0.0
-0.069384 -0.003990 0.0
-0.066813 -0.004917 0.0
-0.063752 -0.005852 0.0
-0.060202 -0.006780 0.0
-0.056172 -0.007688 0.0
-0.051679 -0.008559 0.0
-0.046750 -0.009377 0.0
-0.041416 -0.010126 0.0
-0.035721 -0.010785 0.0
-0.029720 -0.011327 0.0
-0.023491 -0.011694 0.0
-0.017161 -0.011753 0.0
-0.010963 -0.011200 0.0
-0.005369 -0.009364 0.0
-0.001401 -0.004858 0.0
-0.000728 0.003468 0.0
-0.002830 0.006869 0.0
-0.005848 0.008385 0.0
-0.009241 0.008973 0.0
-0.012772 0.009162 0.0
-0.016343 0.009202 0.0
-0.019917 0.009194 0.0
-0.023479 0.009168 0.0
-0.027022 0.009132 0.0
-0.030540 0.009086 0.0
-0.034028 0.009029 0.0
-0.037480 0.008958 0.0
-0.040889 0.008871 0.0
-0.044247 0.008764 0.0
-0.047546 0.008636 0.0
-0.050778 0.008483 0.0
-0.053930 0.008300 0.0
-0.056992 0.008084 0.0
-0.059950 0.007830 0.0
-0.062789 0.007534 0.0
-0.065493 0.007190 0.0
-0.068042 0.006793 0.0
-0.070419 0.006338 0.0
-0.072600 0.005820 0.0
-0.074562 0.005233 0.0
-0.076280 0.004572 0.0
-0.077728 0.003833 0.0
-0.078877 0.003013 0.0
-0.079698 0.002109 0.0
-0.080162 0.001121 0.0
-0.080239 0.000048 0.0
-0.079902 -0.001106 0.0
-0.079123 -0.002337 0.0
-0.077879 -0.003637 0.0
-0.076148 -0.004995 0.0
-0.073914 -0.006397 0.0
-0.071166 -0.007829 0.0
-0.067899 -0.009269 0.0
-0.064112 -0.010699 0.0
-0.059818 -0.012094 0.0
-0.055032 -0.013431 0.0
-0.049783 -0.014685 0.0
-0.044104 -0.015830 0.0
-0.038043 -0.016837 0.0
-0.031658 -0.017661 0.0
-0.025031 -0.018215 0.0
-0.018294 -0.018299 0.0
-0.011689 -0.017458 0.0
-0.005717 -0.014672 0.0
-0.001487 -0.007746 0.0
-0.000749 0.004945 0.0
-0.002918 0.009662 0.0
-0.006037 0.011729 0.0
-0.009539 0.012525 0.0
-0.013177 0.012779 0.0
-0.016853 0.012831 0.0
-0.020530 0.012815 0.0
-0.024194 0.012773 0.0
-0.027837 0.012714 0.0
-0.031455 0.012640 0.0
-0.035042 0.012549 0.0
-0.038590 0.012438 0.0
-0.042095 0.012304 0.0
-0.045547 0.012142 0.0
-0.048939 0.011950 0.0
-0.052262 0.011723 0.0
-0.055505 0.011455 0.0
-0.058656 0.011141 0.0
-0.061702 0.010776 0.0
-0.064628 0.010352 0.0
-0.067417 0.009864 0.0
-0.070052 0.009304 0.0
-0.072512 0.008664 0.0
-0.074775 0.007938 0.0
-0.076818 0.007119 0.0
-0.078615 0.006200 0.0
-0.080138 0.005175 0.0
-0.081358 0.004040 0.0
-0.082246 0.002792 0.0
-0.082771 0.001428 0.0
-0.082901 -0.000051 0.0
-0.082607 -0.001639 0.0
-0.081858 -0.003331 0.0
-0.080629 -0.005116 0.0
-0.078896 -0.006980 0.0
-0.076638 -0.008904 0.0
-0.073843 -0.010866 0.0
-0.070501 -0.012841 0.0
-0.066614 -0.014800 0.0
-0.062189 -0.016712 0.0
-0.057245 -0.018543 0.0
-0.051807 -0.020260 0.0
-0.045914 -0.021826 0.0
-0.039614 -0.023202 0.0
-0.032969 -0.024326 0.0
-0.026066 -0.025079 0.0
-0.019043 -0.025195 0.0
-0.012153 -0.024056 0.0
-0.005929 -0.020270 0.0
-0.001537 -0.010770 0.0
-0.000754 0.006449 0.0
-0.002945 0.012518 0.0
-0.006104 0.015149 0.0
-0.009651 0.016154 0.0
-0.013336 0.016472 0.0
-0.017057 0.016535 0.0
-0.020779 0.016511 0.0
-0.024489 0.016451 0.0
-0.028179 0.016370 0.0
-0.031844 0.016268 0.0
-0.035479 0.016143 0.0
-0.039078 0.015992 0.0
-0.042634 0.015811 0.0
-0.046141 0.015595 0.0
-0.049591 0.015340 0.0
-0.052975 0.015040 0.0
-0.056282 0.014688 0.0
-0.059501 0.014279 0.0
-0.062620 0.013803 0.0
-0.065623 0.013254 0.0
-0.068495 0.012623 0.0
-0.071218 0.011902 0.0
-0.073771 0.011080 0.0
-0.076133 0.010148 0.0
-0.078280 0.009099 0.0
-0.080185 0.007922 0.0
-0.081820 0.006611 0.0
-0.083155 0.005160 0.0
-0.084158 0.003563 0.0
-0.084797 0.001819 0.0
-0.085037 -0.000072 0.0
-0.084846 -0.002104 0.0
-0.084190 -0.004270 0.0
-0.083039 -0.006557 0.0
-0.081364 -0.008947 0.0
-0.079142 -0.011416 0.0
-0.076354 -0.013937 0.0
-0.072989 -0.016477 0.0
-0.069043 -0.018998 0.0
-0.064524 -0.021459 0.0
-0.059447 -0.023818 0.0
-0.053841 -0.026029 0.0
-0.047744 -0.028047 0.0
-0.041207 -0.029818 0.0
-0.034299 -0.031263 0.0
-0.027111 -0.032232 0.0
-0.019793 -0.032384 0.0
-0.012616 -0.030934 0.0
-0.006140 -0.026093 0.0
-0.001586 -0.013893 0.0
-0.000755 0.007958 0.0
-0.002953 0.015399 0.0
-0.006129 0.018603 0.0
-0.009700 0.019819 0.0
-0.013410 0.020201 0.0
-0.017157 0.020275 0.0
-0.020906 0.020242 0.0
-0.024644 0.020167 0.0
-0.028364 0.020064 0.0
-0.032062 0.019936 0.0
-0.035732 0.019780 0.0
-0.039370 0.019592 0.0
-0.042969 0.019367 0.0
-0.046523 0.019100 0.0
-0.050025 0.018786 0.0
-0.053467 0.018418 0.0
-0.056838 0.017988 0.0
-0.060128 0.017488 0.0
-0.063326 0.016909 0.0
-0.066416 0.016242 0.0
-0.069384 0.015476 0.0
-0.072212 0.014600 0.0
-0.074880 0.013603 0.0
-0.077365 0.012473 0.0
-0.079645 0.011200 0.0
-0.081690 0.009772 0.0
-0.083474 0.008180 0.0
-0.084963 0.006415 0.0
-0.086123 0.004472 0.0
-0.086920 0.002346 0.0
-0.087316 0.000038 0.0
-0.087273 -0.002448 0.0
-0.086754 -0.005102 0.0
-0.085723 -0.007909 0.0
-0.084145 -0.010848 0.0
-0.081991 -0.013891 0.0
-0.079238 -0.017004 0.0
-0.075868 -0.020145 0.0
-0.071875 -0.023268 0.0
-0.067261 -0.026322 0.0
-0.062041 -0.029251 0.0
-0.056244 -0.032000 0.0
-0.049910 -0.034508 0.0
-0.043095 -0.036708 0.0
-0.035874 -0.038502 0.0
-0.028349 -0.039704 0.0
-0.020682 -0.039897 0.0
-0.013165 -0.038115 0.0
-0.006394 -0.032159 0.0
-0.001648 -0.017127 0.0
-0.000754 0.009466 0.0
-0.002955 0.018290 0.0
-0.006142 0.022075 0.0
-0.009731 0.023506 0.0
-0.013461 0.023954 0.0
-0.017231 0.024039 0.0
-0.021003 0.024000 0.0
-0.024767 0.023910 0.0
-0.028515 0.023789 0.0
-0.032243 0.023638 0.0
-0.035948 0.023453 0.0
-0.039625 0.023232 0.0
-0.043268 0.022969 0.0
-0.046872 0.022657 0.0
-0.050431 0.022290 0.0
-0.053936 0.021861 0.0
-0.057379 0.021360 0.0
-0.060751 0.020778 0.0
-0.064039 0.020105 0.0
-0.067231 0.019329 0.0
-0.070312 0.018438 0.0
-0.073264 0.017418 0.0
-0.076069 0.016257 0.0
-0.078704 0.014940 0.0
-0.081145 0.013453 0.0
-0.083363 0.011783 0.0
-0.085329 0.009918 0.0
-0.087009 0.007846 0.0
-0.088367 0.005559 0.0
-0.089362 0.003051 0.0
-0.089955 0.000322 0.0
-0.090103 -0.002627 0.0
-0.089761 -0.005783 0.0
-0.088888 -0.009132 0.0
-0.087441 -0.012649 0.0
-0.085385 -0.016300 0.0
-0.082687 -0.020046 0.0
-0.079325 -0.023835 0.0
-0.075285 -0.027612 0.0
-0.070566 -0.031312 0.0
-0.065180 -0.034867 0.0
-0.059155 -0.038206 0.0
-0.052536 -0.041255 0.0
-0.045385 -0.043928 0.0
-0.037783 -0.046106 0.0
-0.029847 -0.047562 0.0
-0.021756 -0.047798 0.0
-0.013829 -0.045658 0.0
-0.006701 -0.038515 0.0
-0.001722 -0.020497 0.0
-0.000753 0.010972 0.0
-0.002956 0.021188 0.0
-0.006155 0.025563 0.0
-0.009760 0.027213 0.0
-0.013511 0.027728 0.0
-0.017303 0.027827 0.0
-0.021100 0.027782 0.0
-0.024890 0.027681 0.0
-0.028668 0.027544 0.0
-0.032430 0.027373 0.0
-0.036172 0.027165 0.0
-0.039891 0.026916 0.0
-0.043583 0.026620 0.0
-0.047243 0.026269 0.0
-0.050864 0.025858 0.0
-0.054441 0.025375 0.0
-0.057965 0.024813 0.0
-0.061429 0.024160 0.0
-0.064821 0.023404 0.0
-0.068129 0.022531 0.0
-0.071340 0.021527 0.0
-0.074437 0.020378 0.0
-0.077401 0.019066 0.0
-0.080211 0.017575 0.0
-0.082841 0.015888 0.0
-0.085264 0.013989 0.0
-0.087448 0.011861 0.0
-0.089356 0.009491 0.0
-0.090950 0.006866 0.0
-0.092188 0.003978 0.0
-0.093022 0.000823 0.0
-0.093404 -0.002598 0.0
-0.093284 -0.006274 0.0
-0.092611 -0.010189 0.0
-0.091334 -0.014315 0.0
-0.089407 -0.018617 0.0
-0.086790 -0.023044 0.0
-0.083449 -0.027539 0.0
-0.079365 -0.032032 0.0
-0.074529 -0.036446 0.0
-0.068950 -0.040696 0.0
-0.062657 -0.044694 0.0
-0.055697 -0.048346 0.0
-0.048138 -0.051547 0.0
-0.040076 -0.054151 0.0
-0.031642 -0.055887 0.0
-0.023040 -0.056166 0.0
-0.014620 -0.053637 0.0
-0.007066 -0.045217 0.0
-0.001810 -0.024029 0.0
-0.000751 0.012476 0.0
-0.002957 0.024094 0.0
-0.006167 0.029065 0.0
-0.009791 0.030939 0.0
-0.013563 0.031524 0.0
-0.017379 0.031638 0.0
-0.021203 0.031592 0.0
-0.025022 0.031481 0.0
-0.028832 0.031332 0.0
-0.032630 0.031145 0.0
-0.036414 0.030919 0.0
-0.040180 0.030648 0.0
-0.043925 0.030325 0.0
-0.047645 0.029944 0.0
-0.051335 0.029495 0.0
-0.054991 0.028970 0.0
-0.058606 0.028358 0.0
-0.062171 0.027645 0.0
-0.065679 0.026819 0.0
-0.069118 0.025863 0.0
-0.072476 0.024763 0.0
-0.075736 0.023500 0.0
-0.078882 0.022054 0.0
-0.081891 0.020406 0.0
-0.084740 0.018536 0.0
-0.087399 0.016423 0.0
-0.089835 0.014047 0.0
-0.092012 0.011390 0.0
-0.093887 0.008436 0.0
-0.095412 0.005171 0.0
-0.096536 0.001588 0.0
-0.097204 -0.002313 0.0
-0.097357 -0.006526 0.0
-0.096934 -0.011034 0.0
-0.095873 -0.015808 0.0
-0.094117 -0.020807 0.0
-0.091613 -0.025976 0.0
-0.088316 -0.031245 0.0
-0.084195 -0.036533 0.0
-0.079233 -0.041744 0.0
-0.073435 -0.046775 0.0
-0.066827 -0.051516 0.0
-0.059462 -0.055850 0.0
-0.051416 -0.059647 0.0
-0.042801 -0.062728 0.0
-0.033770 -0.064774 0.0
-0.024555 -0.065097 0.0
-0.015547 -0.062135 0.0
-0.007490 -0.052330 0.0
-0.001911 -0.027751 0.0
-0.000750 0.013977 0.0
-0.002958 0.027008 0.0
-0.006181 0.032584 0.0
-0.009823 0.034686 0.0
-0.013619 0.035345 0.0
-0.017461 0.035476 0.0
-0.021313 0.035429 0.0
-0.025163 0.035313 0.0
-0.029008 0.035155 0.0
-0.032845 0.034958 0.0
-0.036672 0.034718 0.0
-0.040488 0.034431 0.0
-0.044290 0.034089 0.0
-0.048075 0.033685 0.0
-0.051840 0.033210 0.0
-0.055581 0.032653 0.0
-0.059293 0.032002 0.0
-0.062970 0.031243 0.0
-0.066605 0.030362 0.0
-0.070187 0.029341 0.0
-0.073706 0.028162 0.0
-0.077149 0.026803 0.0
-0.080497 0.025244 0.0
-0.083731 0.023460 0.0
-0.086826 0.021427 0.0
-0.089755 0.019120 0.0
-0.092482 0.016515 0.0
-0.094969 0.013587 0.0
-0.097171 0.010315 0.0
-0.099036 0.006681 0.0
-0.100507 0.002673 0.0
-0.101519 -0.001716 0.0
-0.102006 -0.006483 0.0
-0.101893 -0.011612 0.0
-0.101107 -0.017075 0.0
-0.099576 -0.022827 0.0
-0.097229 -0.028806 0.0
-0.094007 -0.034933 0.0
-0.089865 -0.041109 0.0
-0.084773 -0.047220 0.0
-0.078730 -0.053140 0.0
-0.071759 -0.058730 0.0
-0.063915 -0.063845 0.0
-0.055290 -0.068322 0.0
-0.046014 -0.071944 0.0
-0.036268 -0.074334 0.0
-0.026323 -0.074697 0.0
-0.016620 -0.071246 0.0
-0.007974 -0.059921 0.0
-0.002025 -0.031687 0.0
-0.000748 0.015475 0.0
-0.002958 0.029929 0.0
-0.006194 0.036121 0.0
-0.009857 0.038456 0.0
-0.013676 0.039190 0.0
-0.017545 0.039342 0.0
-0.021427 0.039297 0.0
-0.025310 0.039178 0.0
-0.029190 0.039015 0.0
-0.033068 0.038812 0.0
-0.036941 0.038564 0.0
-0.040809 0.038268 0.0
-0.044671 0.037915 0.0
-0.048524 0.037498 0.0
-0.052368 0.037006 0.0
-0.056200 0.036429 0.0
-0.060015 0.035754 0.0
-0.063811 0.034965 0.0
-0.067582 0.034046 0.0
-0.071319 0.032978 0.0
-0.075014 0.031740 0.0
-0.078655 0.030308 0.0
-0.082226 0.028658 0.0
-0.085709 0.026762 0.0
-0.089080 0.024591 0.0
-0.092311 0.022115 0.0
-0.095369 0.019304 0.0
-0.098212 0.016128 0.0
-0.100792 0.012557 0.0
-0.103055 0.008567 0.0
-0.104935 0.004138 0.0
-0.106361 -0.000743 0.0
-0.107253 -0.006078 0.0
-0.107526 -0.011858 0.0
-0.107088 -0.018053 0.0
-0.105849 -0.024620 0.0
-0.103719 -0.031490 0.0
-0.100619 -0.038571 0.0
-0.096483 -0.045750 0.0
-0.091266 -0.052888 0.0
-0.084954 -0.059828 0.0
-0.077566 -0.066401 0.0
-0.069162 -0.072421 0.0
-0.059848 -0.077685 0.0
-0.049781 -0.081925 0.0
-0.039181 -0.084698 0.0
-0.028367 -0.085092 0.0
-0.017845 -0.081077 0.0
-0.008517 -0.068065 0.0
-0.002149 -0.035861 0.0
-0.000745 0.016968 0.0
-0.002957 0.032858 0.0
-0.006205 0.039675 0.0
-0.009889 0.042249 0.0
-0.013734 0.043062 0.0
-0.017631 0.043236 0.0
-0.021543 0.043196 0.0
-0.025459 0.043078 0.0
-0.029377 0.042914 0.0
-0.033296 0.042709 0.0
-0.037216 0.042460 0.0
-0.041137 0.042161 0.0
-0.045060 0.041806 0.0
-0.048984 0.041384 0.0
-0.052909 0.040888 0.0
-0.056834 0.040304 0.0
-0.060758 0.039619 0.0
-0.064678 0.038816 0.0
-0.068592 0.037878 0.0
-0.072493 0.036784 0.0
-0.076376 0.035511 0.0
-0.080230 0.034032 0.0
-0.084043 0.032318 0.0
-0.087798 0.030339 0.0
-0.091473 0.028060 0.0
-0.095042 0.025446 0.0
-0.098470 0.022459 0.0
-0.101717 0.019062 0.0
-0.104732 0.015218 0.0
-0.107455 0.010892 0.0
-0.109817 0.006055 0.0
-0.111736 0.000685 0.0
-0.113120 -0.005230 0.0
-0.113868 -0.011686 0.0
-0.113870 -0.018661 0.0
-0.113012 -0.026110 0.0
-0.111180 -0.033961 0.0
-0.108267 -0.042113 0.0
-0.104182 -0.050430 0.0
-0.098855 -0.058750 0.0
-0.092255 -0.066878 0.0
-0.084393 -0.074601 0.0
-0.075333 -0.081684 0.0
-0.065200 -0.087868 0.0
-0.054186 -0.092824 0.0
-0.042561 -0.096024 0.0
-0.030713 -0.096428 0.0
-0.019228 -0.091748 0.0
-0.009114 -0.076837 0.0
-0.002280 -0.040290 0.0
-0.000742 0.018456 0.0
-0.002954 0.035794 0.0
-0.006215 0.043247 0.0
-0.009920 0.046065 0.0
-0.013790 0.046960 0.0
-0.017715 0.047159 0.0
-0.021658 0.047128 0.0
-0.025607 0.047013 0.0
-0.029562 0.046852 0.0
-0.033523 0.046651 0.0
-0.037489 0.046406 0.0
-0.041464 0.046112 0.0
-0.045448 0.045762 0.0
-0.049442 0.045347 0.0
-0.053449 0.044857 0.0
-0.057469 0.044280 0.0
-0.061503 0.043601 0.0
-0.065552 0.042803 0.0
-0.069613 0.041867 0.0
-0.073687 0.040770 0.0
-0.077767 0.039488 0.0
-0.081847 0.037990 0.0
-0.085918 0.036245 0.0
-0.089966 0.034216 0.0
-0.093973 0.031865 0.0
-0.097912 0.029150 0.0
-0.101753 0.026025 0.0
-0.105453 0.022444 0.0
-0.108963 0.018360 0.0
-0.112217 0.013728 0.0
-0.115142 0.008505 0.0
-0.117645 0.002657 0.0
-0.119622 -0.003840 0.0
-0.120956 -0.010995 0.0
-0.121512 -0.018794 0.0
-0.121149 -0.027197 0.0
-0.119722 -0.036132 0.0
-0.117089 -0.045487 0.0
-0.113121 -0.055109 0.0
-0.107719 -0.064800 0.0
-0.100821 -0.074325 0.0
-0.092425 -0.083412 0.0
-0.082598 -0.091761 0.0
-0.071486 -0.099037 0.0
-0.059329 -0.104827 0.0
-0.046469 -0.108505 0.0
-0.033384 -0.108881 0.0
-0.020768 -0.103395 0.0
-0.009755 -0.086316 0.0
-0.002414 -0.044985 0.0
-0.000738 0.019937 0.0
-0.002950 0.038736 0.0
-0.006222 0.046837 0.0
-0.009947 0.049906 0.0
-0.013843 0.050886 0.0
-0.017796 0.051112 0.0
-0.021769 0.051090 0.0
-0.025751 0.050982 0.0
-0.029742 0.050828 0.0
-0.033743 0.050635 0.0
-0.037755 0.050400 0.0
-0.041781 0.050118 0.0
-0.045825 0.049782 0.0
-0.049888 0.049384 0.0
-0.053976 0.048913 0.0
-0.058090 0.048357 0.0
-0.062234 0.047702 0.0
-0.066412 0.046928 0.0
-0.070624 0.046016 0.0
-0.074873 0.044943 0.0
-0.079157 0.043680 0.0
-0.083473 0.042195 0.0
-0.087817 0.040454 0.0
-0.092177 0.038415 0.0
-0.096539 0.036035 0.0
-0.100882 0.033263 0.0
-0.105176 0.030046 0.0
-0.109381 0.026329 0.0
-0.113448 0.022051 0.0
-0.117310 0.017154 0.0
-0.120888 0.011580 0.0
-0.124081 0.005278 0.0
-0.126772 -0.001792 0.0
-0.128822 -0.009659 0.0
-0.130073 -0.018323 0.0
-0.130350 -0.027754 0.0
-0.129470 -0.037883 0.0
-0.127244 -0.048595 0.0
-0.123497 -0.059716 0.0
-0.118079 -0.071014 0.0
-0.110889 -0.082199 0.0
-0.101900 -0.092925 0.0
-0.091173 -0.102803 0.0
-0.078884 -0.111395 0.0
-0.065338 -0.118173 0.0
-0.050974 -0.122382 0.0
-0.036398 -0.122666 0.0
-0.022450 -0.116176 0.0
-0.010418 -0.096580 0.0
-0.002540 -0.049939 0.0
-0.000734 0.021409 0.0
-0.002942 0.041684 0.0
-0.006225 0.050444 0.0
-0.009971 0.053770 0.0
-0.013891 0.054838 0.0
-0.017872 0.055093 0.0
-0.021874 0.055084 0.0
-0.025888 0.054985 0.0
-0.029913 0.054841 0.0
-0.033951 0.054661 0.0
-0.038006 0.054441 0.0
-0.042082 0.054178 0.0
-0.046182 0.053865 0.0
-0.050311 0.053494 0.0
-0.054476 0.053055 0.0
-0.058681 0.052535 0.0
-0.062932 0.051920 0.0
-0.067237 0.051191 0.0
-0.071599 0.050328 0.0
-0.076023 0.049305 0.0
-0.080514 0.048093 0.0
-0.085073 0.046657 0.0
-0.089698 0.044960 0.0
-0.094386 0.042956 0.0
-0.099125 0.040595 0.0
-0.103900 0.037820 0.0
-0.108687 0.034569 0.0
-0.113449 0.030774 0.0
-0.118137 0.026362 0.0
-0.122688 0.021257 0.0
-0.127018 0.015384 0.0
-0.131019 0.008670 0.0
-0.134562 0.001050 0.0
-0.137486 -0.007527 0.0
-0.139606 -0.017084 0.0
-0.140710 -0.027611 0.0
-0.140564 -0.039053 0.0
-0.138922 -0.051293 0.0
-0.135543 -0.064144 0.0
-0.130211 -0.077336 0.0
-0.122763 -0.090513 0.0
-0.113126 -0.103238 0.0
-0.101348 -0.114996 0.0
-0.087635 -0.125203 0.0
-0.072377 -0.133169 0.0
-0.056157 -0.137969 0.0
-0.039764 -0.138048 0.0
-0.024239 -0.130267 0.0
-0.011063 -0.107695 0.0
-0.002643 -0.055123 0.0
-0.000728 0.022870 0.0
-0.002932 0.044635 0.0
-0.006224 0.054068 0.0
-0.009989 0.057658 0.0
-0.013934 0.058817 0.0
-0.017941 0.059102 0.0
-0.021970 0.059107 0.0
-0.026013 0.059019 0.0
-0.030070 0.058889 0.0
-0.034143 0.058725 0.0
-0.038237 0.058526 0.0
-0.042357 0.058289 0.0
-0.046509 0.058007 0.0
-0.050699 0.057673 0.0
-0.054935 0.057277 0.0
-0.059225 0.056809 0.0
-0.063578 0.056252 0.0
-0.068004 0.055589 0.0
-0.072511 0.054799 0.0
-0.077108 0.053856 0.0
-0.081804 0.052729 0.0
-0.086606 0.051382 0.0
-0.091518 0.049773 0.0
-0.096542 0.047855 0.0
-0.101675 0.045569 0.0
-0.106908 0.042854 0.0
-0.112222 0.039636 0.0
-0.117589 0.035835 0.0
-0.122965 0.031364 0.0
-0.128288 0.026129 0.0
-0.133475 0.020029 0.0
-0.138415 0.012967 0.0
-0.142966 0.004846 0.0
-0.146952 -0.004413 0.0
-0.150156 -0.014873 0.0
-0.152320 -0.026553 0.0
-0.153153 -0.039423 0.0
-0.152337 -0.053381 0.0
-0.149543 -0.068229 0.0
-0.144461 -0.083665 0.0
-0.136835 -0.099258 0.0
-0.126515 -0.114451 0.0
-0.113513 -0.128563 0.0
-0.098063 -0.140798 0.0
-0.080668 -0.150228 0.0
-0.062115 -0.155683 0.0
-0.043468 -0.155373 0.0
-0.026061 -0.145875 0.0
-0.011619 -0.119704 0.0
-0.002694 -0.060460 0.0
-0.000721 0.024320 0.0
-0.002919 0.047588 0.0
-0.006219 0.057707 0.0
-0.010003 0.061567 0.0
-0.013971 0.062819 0.0
-0.018002 0.063136 0.0
-0.022057 0.063156 0.0
-0.026126 0.063082 0.0
-0.030211 0.062968 0.0
-0.034315 0.062823 0.0
-0.038443 0.062650 0.0
-0.042601 0.062443 0.0
-0.046797 0.062200 0.0
-0.051040 0.061913 0.0
-0.055340 0.061573 0.0
-0.059706 0.061170 0.0
-0.064152 0.060689 0.0
-0.068689 0.060114 0.0
-0.073332 0.059423 0.0
-0.078094 0.058590 0.0
-0.082988 0.057584 0.0
-0.088028 0.056368 0.0
-0.093226 0.054897 0.0
-0.098590 0.053119 0.0
-0.104126 0.050974 0.0
-0.109834 0.048390 0.0
-0.115705 0.045285 0.0
-0.121720 0.041567 0.0
-0.127844 0.037132 0.0
-0.134024 0.031864 0.0
-0.140180 0.025637 0.0
-0.146202 0.018321 0.0
-0.151943 0.009783 0.0
-0.157207 -0.000101 0.0
-0.161746 -0.011443 0.0
-0.165260 -0.024306 0.0
-0.167391 -0.038707 0.0
-0.167730 -0.054575 0.0
-0.165834 -0.071725 0.0
-0.161261 -0.089825 0.0
-0.153615 -0.108369 0.0
-0.142622 -0.126653 0.0
-0.128214 -0.143770 0.0
-0.110635 -0.158619 0.0
-0.090527 -0.169910 0.0
-0.068976 -0.176105 0.0
-0.047467 -0.175107 0.0
-0.027779 -0.163239 0.0
-0.011962 -0.132598 0.0
-0.002649 -0.065803 0.0
-0.000714 0.025755 0.0
-0.002904 0.050541 0.0
-0.006210 0.061360 0.0
-0.010011 0.065498 0.0
-0.014000 0.066846 0.0
-0.018054 0.067195 0.0
-0.022132 0.067231 0.0
-0.026225 0.067171 0.0
-0.030333 0.067073 0.0
-0.034462 0.066951 0.0
-0.038618 0.066805 0.0
-0.042807 0.066635 0.0
-0.047040 0.066437 0.0
-0.051326 0.066205 0.0
-0.055677 0.065932 0.0
-0.060109 0.065608 0.0
-0.064634 0.065222 0.0
-0.069270 0.064755 0.0
-0.074035 0.064189 0.0
-0.078947 0.063498 0.0
-0.084026 0.062650 0.0
-0.089293 0.061609 0.0
-0.094767 0.060328 0.0
-0.100465 0.058752 0.0
-0.106405 0.056817 0.0
-0.112597 0.054446 0.0
-0.119044 0.051548 0.0
-0.125742 0.048017 0.0
-0.132668 0.043733 0.0
-0.139783 0.038557 0.0
-0.147018 0.032335 0.0
-0.154270 0.024898 0.0
-0.161391 0.016068 0.0
-0.168175 0.005662 0.0
-0.174356 -0.006485 0.0
-0.179584 -0.020520 0.0
-0.183423 -0.036523 0.0
-0.185358 -0.054485 0.0
-0.184805 -0.074263 0.0
-0.181141 -0.095523 0.0
-0.173769 -0.117689 0.0
-0.162208 -0.139888 0.0
-0.146235 -0.160916 0.0
-0.126054 -0.179234 0.0
-0.102463 -0.192994 0.0
-0.076962 -0.200073 0.0
-0.051695 -0.197914 0.0
-0.029163 -0.182651 0.0
-0.011887 -0.146278 0.0
-0.002435 -0.070887 0.0
-0.000705 0.027173 0.0
-0.002886 0.053493 0.0
-0.006198 0.065027 0.0
-0.010014 0.069448 0.0
-0.014024 0.070894 0.0
-0.018098 0.071275 0.0
-0.022196 0.071326 0.0
-0.026308 0.071280 0.0
-0.030435 0.071200 0.0
-0.034583 0.071101 0.0
-0.038758 0.070986 0.0
-0.042970 0.070855 0.0
-0.047228 0.070707 0.0
-0.051545 0.070538 0.0
-0.055936 0.070341 0.0
-0.060416 0.070110 0.0
-0.065005 0.069834 0.0
-0.069722 0.069497 0.0
-0.074590 0.069081 0.0
-0.079633 0.068562 0.0
-0.084877 0.067910 0.0
-0.090351 0.067089 0.0
-0.096082 0.066052 0.0
-0.102100 0.064744 0.0
-0.108432 0.063097 0.0
-0.115103 0.061029 0.0
-0.122134 0.058443 0.0
-0.129535 0.055221 0.0
-0.137304 0.051226 0.0
-0.145422 0.046296 0.0
-0.153839 0.040247 0.0
-0.162469 0.032868 0.0
-0.171177 0.023926 0.0
-0.179760 0.013172 0.0
-0.187930 0.000356 0.0
-0.195297 -0.014767 0.0
-0.201358 -0.032378 0.0
-0.205476 -0.052577 0.0
-0.206893 -0.075308 0.0
-0.204750 -0.100284 0.0
-0.198161 -0.126890 0.0
-0.186331 -0.154078 0.0
-0.168751 -0.180277 0.0
-0.145470 -0.203335 0.0
-0.117403 -0.220552 0.0
-0.086588 -0.228832 0.0
-0.056177 -0.224833 0.0
-0.029905 -0.204537 0.0
-0.011081 -0.160493 0.0
-0.001941 -0.075264 0.0
-0.000696 0.028574 0.0
-0.002865 0.056443 0.0
-0.006182 0.068706 0.0
-0.010014 0.073417 0.0
-0.014042 0.074962 0.0
-0.018135 0.075375 0.0
-0.022250 0.075440 0.0
-0.026377 0.075406 0.0
-0.030517 0.075342 0.0
-0.034677 0.075266 0.0
-0.038863 0.075182 0.0
-0.043086 0.075093 0.0
-0.047357 0.074999 0.0
-0.051691 0.074897 0.0
-0.056105 0.074786 0.0
-0.060616 0.074658 0.0
-0.065248 0.074506 0.0
-0.070023 0.074317 0.0
-0.074969 0.074075 0.0
-0.080117 0.073759 0.0
-0.085499 0.073340 0.0
-0.091151 0.072785 0.0
-0.097112 0.072048 0.0
-0.103421 0.071075 0.0
-0.110120 0.069797 0.0
-0.117251 0.068131 0.0
-0.124853 0.065973 0.0
-0.132959 0.063197 0.0
-0.141593 0.059652 0.0
-0.150761 0.055156 0.0
-0.160446 0.049490 0.0
-0.170591 0.042401 0.0
-0.181087 0.033596 0.0
-0.191748 0.022746 0.0
-0.202293 0.009495 0.0
-0.212313 -0.006518 0.0
-0.221236 -0.025642 0.0
-0.228301 -0.048129 0.0
-0.232553 -0.074087 0.0
-0.232847 -0.103355 0.0
-0.227909 -0.135347 0.0
-0.216484 -0.168877 0.0
-0.197588 -0.201955 0.0
-0.170896 -0.231629 0.0
-0.137266 -0.253955 0.0
-0.099281 -0.264228 0.0
-0.061524 -0.257605 0.0
-0.029851 -0.229710 0.0
-0.009172 -0.174823 0.0
-0.001020 -0.078225 0.0
-0.000686 0.029955 0.0
-0.002843 0.059388 0.0
-0.006164 0.072397 0.0
-0.010010 0.077405 0.0
-0.014057 0.079048 0.0
-0.018167 0.079491 0.0
-0.022295 0.079567 0.0
-0.026433 0.079543 0.0
-0.030580 0.079493 0.0
-0.034743 0.079438 0.0
-0.038931 0.079384 0.0
-0.043153 0.079337 0.0
-0.047424 0.079298 0.0
-0.051758 0.079268 0.0
-0.056175 0.079246 0.0
-0.060696 0.079230 0.0
-0.065346 0.079214 0.0
-0.070153 0.079190 0.0
-0.075148 0.079143 0.0
-0.080367 0.079057 0.0
-0.085851 0.078907 0.0
-0.091643 0.078662 0.0
-0.097792 0.078280 0.0
-0.104351 0.077711 0.0
-0.111376 0.076886 0.0
-0.118928 0.075725 0.0
-0.127068 0.074120 0.0
-0.135855 0.071943 0.0
-0.145346 0.069031 0.0
-0.155584 0.065184 0.0
-0.166593 0.060156 0.0
-0.178363 0.053650 0.0
-0.190832 0.045311 0.0
-0.203859 0.034720 0.0
-0.217195 0.021401 0.0
-0.230430 0.004831 0.0
-0.242967 -0.015532 0.0
-0.253949 -0.040192 0.0
-0.262210 -0.069510 0.0
-0.266283 -0.103565 0.0
-0.264431 -0.141926 0.0
-0.254791 -0.183362 0.0
-0.235660 -0.225496 0.0
-0.205980 -0.264459 0.0
-0.166096 -0.294640 0.0
-0.118805 -0.308818 0.0
-0.070327 -0.299252 0.0
-0.029921 -0.260141 0.0
-0.006066 -0.188925 0.0
0.000452 -0.078793 0.0
-0.000675 0.031316 0.0
-0.002820 0.062330 0.0
-0.006145 0.076101 0.0
-0.010007 0.081411 0.0
-0.014071 0.083153 0.0
-0.018197 0.083622 0.0
-0.022337 0.083705 0.0
-0.026480 0.083685 0.0
-0.030628 0.083645 0.0
-0.034786 0.083607 0.0
-0.038964 0.083580 0.0
-0.043173 0.083572 0.0
-0.047427 0.083587 0.0
-0.051743 0.083629 0.0
-0.056142 0.083701 0.0
-0.060648 0.083802 0.0
-0.065288 0.083932 0.0
-0.070094 0.084085 0.0
-0.075102 0.084252 0.0
-0.080353 0.084420 0.0
-0.085895 0.084570 0.0
-0.091778 0.084675 0.0
-0.098063 0.084701 0.0
-0.104815 0.084601 0.0
-0.112106 0.084313 0.0
-0.120017 0.083760 0.0
-0.128634 0.082841 0.0
-0.138048 0.081424 0.0
-0.148352 0.079345 0.0
-0.159636 0.076392 0.0
-0.171979 0.072300 0.0
-0.185436 0.066733 0.0
-0.200017 0.059278 0.0
-0.215659 0.049424 0.0
-0.232187 0.036561 0.0
-0.249258 0.019977 0.0
-0.266281 -0.001118 0.0
-0.282347 -0.027559 0.0
-0.296152 -0.060078 0.0
-0.305929 -0.099147 0.0
-0.309466 -0.144659 0.0
-0.304205 -0.195531 0.0
-0.287458 -0.249206 0.0
-0.256877 -0.301011 0.0
-0.211459 -0.343391 0.0
-0.153304 -0.365513 0.0
-0.089739 -0.354600 0.0
-0.034371 -0.300567 0.0
-0.002944 -0.203783 0.0
0.002472 -0.075869 0.0
-0.000665 0.032656 0.0
-0.002798 0.065269 0.0
-0.006129 0.079817 0.0
-0.010008 0.085435 0.0
-0.014090 0.087275 0.0
-0.018230 0.087766 0.0
-0.022378 0.087849 0.0
-0.026523 0.087829 0.0
-0.030664 0.087791 0.0
-0.034809 0.087764 0.0
-0.038966 0.087758 0.0
-0.043147 0.087784 0.0
-0.047367 0.087849 0.0
-0.051645 0.087961 0.0
-0.056002 0.088125 0.0
-0.060465 0.088346 0.0
-0.065064 0.088627 0.0
-0.069833 0.088965 0.0
-0.074813 0.089359 0.0
-0.080049 0.089800 0.0
-0.085596 0.090277 0.0
-0.091512 0.090768 0.0
-0.097867 0.091248 0.0
-0.104739 0.091678 0.0
-0.112217 0.092006 0.0
-0.120401 0.092163 0.0
-0.129404 0.092058 0.0
-0.139351 0.091568 0.0
-0.150378 0.090532 0.0
-0.162629 0.088740 0.0
-0.176252 0.085918 0.0
-0.191385 0.081706 0.0
-0.208141 0.075642 0.0
-0.226575 0.067136 0.0
-0.246641 0.055443 0.0
-0.268123 0.039648 0.0
-0.290550 0.018661 0.0
-0.313083 -0.008738 0.0
-0.334381 -0.043796 0.0
-0.352520 -0.087513 0.0
-0.364938 -0.140336 0.0
-0.368364 -0.201690 0.0
-0.358771 -0.269386 0.0
-0.331732 -0.338451 0.0
-0.283826 -0.399275 0.0
-0.215261 -0.436348 0.0
-0.132975 -0.429617 0.0
-0.053744 -0.360150 0.0
-0.004163 -0.225208 0.0
0.004688 -0.068709 0.0
-0.000655 0.033976 0.0
-0.002779 0.068207 0.0
-0.006118 0.083550 0.0
-0.010017 0.089480 0.0
-0.014119 0.091414 0.0
-0.018273 0.091921 0.0
-0.022428 0.091997 0.0
-0.026569 0.091967 0.0
-0.030698 0.091924 0.0
-0.034820 0.091898 0.0
-0.038944 0.091905 0.0
-0.043082 0.091956 0.0
-0.047250 0.092065 0.0
-0.051467 0.092240 0.0
-0.055757 0.092493 0.0
-0.060147 0.092832 0.0
-0.064669 0.093262 0.0
-0.069361 0.093791 0.0
-0.074267 0.094419 0.0
-0.079436 0.095146 0.0
-0.084927 0.095968 0.0
-0.090807 0.096873 0.0
-0.097153 0.097845 0.0
-0.104057 0.098856 0.0
-0.111621 0.099869 0.0
-0.119965 0.100829 0.0
-0.129230 0.101660 0.0
-0.139574 0.102256 0.0
-0.151179 0.102475 0.0
-0.164250 0.102120 0.0
-0.179014 0.100925 0.0
-0.195712 0.098530 0.0
-0.214587 0.094450 0.0
-0.235860 0.088036 0.0
-0.259684 0.078433 0.0
-0.286073 0.064529 0.0
-0.314799 0.044932 0.0