# vtk DataFile Version 3.0
Vector Field
ASCII
DATASET RECTILINEAR_GRID
DIMENSIONS 50 50 1
X_COORDINATES 50 double
0.100000 0.300000 0.500000 0.700000 0.900000 1.100000 1.300000 1.500000 1.700000 1.900000 2.100000 2.300000 2.500000 2.700000 2.900000 3.100000 3.300000 3.500000 3.700000 3.900000 4.100000 4.300000 4.500000 4.700000 4.900000 5.100000 5.300000 5.500000 5.700000 5.900000 6.100000 6.300000 6.500000 6.700000 6.900000 7.100000 7.300000 7.500000 7.700000 7.900000 8.100000 8.300000 8.500000 8.700000 8.900000 9.100000 9.300000 9.500000 9.700000 9.900000 
Y_COORDINATES 50 double
0.100000 0.300000 0.500000 0.700000 0.900000 1.100000 1.300000 1.500000 1.700000 1.900000 2.100000 2.300000 2.500000 2.700000 2.900000 3.100000 3.300000 3.500000 3.700000 3.900000 4.100000 4.300000 4.500000 4.700000 4.900000 5.100000 5.300000 5.500000 5.700000 5.900000 6.100000 6.300000 6.500000 6.700000 6.900000 7.100000 7.300000 7.500000 7.700000 7.900000 8.100000 8.300000 8.500000 8.700000 8.900000 9.100000 9.300000 9.500000 9.700000 9.900000 
Z_COORDINATES 1 double
0.0
POINT_DATA 2500
VECTORS Vektorfeld double
-0.000145 0.000145 0.0
-0.000661 0.000370 0.0
-0.001497 0.000465 0.0
-0.002453 0.000491 0.0
-0.003438 0.000494 0.0
-0.004424 0.000492 0.0
-0.005405 0.000489 0.0
-0.006378 0.000485 0.0
-0.007344 0.000480 0.0
-0.008299 0.000475 0.0
-0.009243 0.000469 0.0
-0.010173 0.000461 0.0
-0.011087 0.000453 0.0
-0.011984 0.000443 0.0
-0.012860 0.000432 0.0
-0.013712 0.000420 0.0
-0.014537 0.000406 0.0
-0.015333 0.000390 0.0
-0.016094 0.000372 0.0
-0.016817 0.000352 0.0
-0.017498 0.000329 0.0
-0.018132 0.000304 0.0
-0.018713 0.000277 0.0
-0.019238 0.000247 0.0
-0.019699 0.000214 0.0
-0.020091 0.000178 0.0
-0.020408 0.000139 0.0
-0.020645 0.000097 0.0
-0.020795 0.000052 0.0
-0.020852 0.000005 0.0
-0.020810 -0.000046 0.0
-0.020665 -0.000100 0.0
-0.020409 -0.000156 0.0
-0.020038 -0.000215 0.0
-0.019548 -0.000275 0.0
-0.018936 -0.000337 0.0
-0.018201 -0.000399 0.0
-0.017341 -0.000461 0.0
-0.016358 -0.000522 0.0
-0.015254 -0.000582 0.0
-0.014033 -0.000639 0.0
-0.012702 -0.000693 0.0
-0.011266 -0.000743 0.0
-0.009736 -0.000787 0.0
-0.008123 -0.000826 0.0
-0.006439 -0.000857 0.0
-0.004709 -0.000873 0.0
-0.002987 -0.000849 0.0
-0.001421 -0.000718 0.0
-0.000351 -0.000351 0.0
-0.000379 0.000670 0.0
-0.001502 0.001485 0.0
-0.003143 0.001827 0.0
-0.004985 0.001927 0.0
-0.006883 0.001942 0.0
-0.008785 0.001933 0.0
-0.010674 0.001918 0.0
-0.012544 0.001899 0.0
-0.014389 0.001877 0.0
-0.016207 0.001851 0.0
-0.017992 0.001821 0.0
-0.019741 0.001787 0.0
-0.021447 0.001749 0.0
-0.023107 0.001705 0.0
-0.024715 0.001655 0.0
-0.026266 0.001600 0.0
-0.027753 0.001538 0.0
-0.029170 0.001470 0.0
-0.030510 0.001394 0.0
-0.031767 0.001310 0.0
-0.032933 0.001218 0.0
-0.034000 0.001117 0.0
-0.034960 0.001006 0.0
-0.035804 0.000886 0.0
-0.036524 0.000756 0.0
-0.037112 0.000615 0.0
-0.037556 0.000464 0.0
-0.037850 0.000303 0.0
-0.037984 0.000131 0.0
-0.037948 -0.000052 0.0
-0.037735 -0.000244 0.0
-0.037336 -0.000446 0.0
-0.036745 -0.000657 0.0
-0.035957 -0.000874 0.0
-0.034966 -0.001097 0.0
-0.033770 -0.001323 0.0
-0.032367 -0.001550 0.0
-0.030759 -0.001777 0.0
-0.028948 -0.002000 0.0
-0.026940 -0.002216 0.0
-0.024742 -0.002423 0.0
-0.022365 -0.002617 0.0
-0.019822 -0.002796 0.0
-0.017129 -0.002957 0.0
-0.014303 -0.003096 0.0
-0.011370 -0.003204 0.0
-0.008372 -0.003255 0.0
-0.005399 -0.003161 0.0
-0.002673 -0.002698 0.0
-0.000706 -0.001409 0.0
-0.000484 0.001532 0.0
-0.001879 0.003142 0.0
-0.003869 0.003802 0.0
-0.006076 0.004001 0.0
-0.008342 0.004032 0.0
-0.010611 0.004013 0.0
-0.012862 0.003978 0.0
-0.015087 0.003934 0.0
-0.017281 0.003881 0.0
-0.019437 0.003820 0.0
-0.021550 0.003751 0.0
-0.023614 0.003671 0.0
-0.025624 0.003581 0.0
-0.027574 0.003481 0.0
-0.029456 0.003369 0.0
-0.031264 0.003245 0.0
-0.032992 0.003108 0.0
-0.034632 0.002957 0.0
-0.036177 0.002791 0.0
-0.037618 0.002610 0.0
-0.038946 0.002412 0.0
-0.040155 0.002197 0.0
-0.041233 0.001964 0.0
-0.042173 0.001712 0.0
-0.042964 0.001441 0.0
-0.043597 0.001150 0.0
-0.044062 0.000839 0.0
-0.044349 0.000508 0.0
-0.044448 0.000158 0.0
-0.044350 -0.000212 0.0
-0.044047 -0.000600 0.0
-0.043530 -0.001005 0.0
-0.042793 -0.001425 0.0
-0.041830 -0.001857 0.0
-0.040637 -0.002298 0.0
-0.039210 -0.002744 0.0
-0.037550 -0.003192 0.0
-0.035657 -0.003636 0.0
-0.033535 -0.004073 0.0
-0.031192 -0.004495 0.0
-0.028636 -0.004898 0.0
-0.025878 -0.005276 0.0
-0.022935 -0.005624 0.0
-0.019822 -0.005935 0.0
-0.016563 -0.006202 0.0
-0.013185 -0.006408 0.0
-0.009734 -0.006500 0.0
-0.006308 -0.006315 0.0
-0.003146 -0.005432 0.0
-0.000837 -0.002951 0.0
-0.000518 0.002534 0.0
-0.002010 0.005028 0.0
-0.004130 0.006026 0.0
-0.006471 0.006325 0.0
-0.008868 0.006371 0.0
-0.011266 0.006340 0.0
-0.013644 0.006281 0.0
-0.015993 0.006206 0.0
-0.018309 0.006117 0.0
-0.020583 0.006015 0.0
-0.022811 0.005897 0.0
-0.024986 0.005764 0.0
-0.027102 0.005615 0.0
-0.029153 0.005448 0.0
-0.031131 0.005263 0.0
-0.033031 0.005059 0.0
-0.034844 0.004835 0.0
-0.036563 0.004589 0.0
-0.038181 0.004321 0.0
-0.039689 0.004029 0.0
-0.041078 0.003711 0.0
-0.042340 0.003368 0.0
-0.043465 0.002997 0.0
-0.044443 0.002598 0.0
-0.045266 0.002170 0.0
-0.045923 0.001712 0.0
-0.046404 0.001223 0.0
-0.046698 0.000705 0.0
-0.046796 0.000158 0.0
-0.046688 -0.000418 0.0
-0.046365 -0.001021 0.0
-0.045820 -0.001648 0.0
-0.045043 -0.002296 0.0
-0.044031 -0.002962 0.0
-0.042776 -0.003641 0.0
-0.041278 -0.004327 0.0
-0.039534 -0.005014 0.0
-0.037546 -0.005695 0.0
-0.035317 -0.006363 0.0
-0.032855 -0.007010 0.0
-0.030169 -0.007626 0.0
-0.027270 -0.008204 0.0
-0.024175 -0.008735 0.0
-0.020902 -0.009210 0.0
-0.017474 -0.009616 0.0
-0.013919 -0.009928 0.0
-0.010285 -0.010066 0.0
-0.006671 -0.009789 0.0
-0.003328 -0.008463 0.0
-0.000885 -0.004673 0.0
-0.000527 0.003578 0.0
-0.002051 0.006999 0.0
-0.004219 0.008342 0.0
-0.006611 0.008741 0.0
-0.009059 0.008801 0.0
-0.011505 0.008754 0.0
-0.013931 0.008670 0.0
-0.016328 0.008564 0.0
-0.018690 0.008437 0.0
-0.021011 0.008290 0.0
-0.023285 0.008123 0.0
-0.025505 0.007934 0.0
-0.027665 0.007722 0.0
-0.029759 0.007486 0.0
-0.031781 0.007225 0.0
-0.033722 0.006938 0.0
-0.035577 0.006624 0.0
-0.037337 0.006280 0.0
-0.038994 0.005905 0.0
-0.040541 0.005499 0.0
-0.041968 0.005058 0.0
-0.043267 0.004582 0.0
-0.044428 0.004069 0.0
-0.045442 0.003518 0.0
-0.046298 0.002928 0.0
-0.046986 0.002298 0.0
-0.047497 0.001628 0.0
-0.047818 0.000917 0.0
-0.047941 0.000167 0.0
-0.047855 -0.000621 0.0
-0.047549 -0.001445 0.0
-0.047016 -0.002302 0.0
-0.046246 -0.003187 0.0
-0.045233 -0.004096 0.0
-0.043972 -0.005022 0.0
-0.042458 -0.005958 0.0
-0.040689 -0.006895 0.0
-0.038667 -0.007825 0.0
-0.036394 -0.008735 0.0
-0.033877 -0.009617 0.0
-0.031124 -0.010458 0.0
-0.028149 -0.011246 0.0
-0.024967 -0.011970 0.0
-0.021597 -0.012617 0.0
-0.018063 -0.013171 0.0
-0.014394 -0.013596 0.0
-0.010639 -0.013787 0.0
-0.006901 -0.013419 0.0
-0.003440 -0.011636 0.0
-0.000913 -0.006471 0.0
-0.000531 0.004636 0.0
-0.002069 0.009004 0.0
-0.004263 0.010699 0.0
-0.006684 0.011197 0.0
-0.009162 0.011269 0.0
-0.011637 0.011208 0.0
-0.014093 0.011098 0.0
-0.016520 0.010959 0.0
-0.018911 0.010795 0.0
-0.021262 0.010604 0.0
-0.023566 0.010386 0.0
-0.025817 0.010141 0.0
-0.028010 0.009867 0.0
-0.030136 0.009562 0.0
-0.032191 0.009225 0.0
-0.034167 0.008856 0.0
-0.036058 0.008451 0.0
-0.037854 0.008009 0.0
-0.039550 0.007529 0.0
-0.041135 0.007008 0.0
-0.042603 0.006444 0.0
-0.043943 0.005835 0.0
-0.045147 0.005181 0.0
-0.046203 0.004478 0.0
-0.047103 0.003725 0.0
-0.047836 0.002922 0.0
-0.048390 0.002068 0.0
-0.048754 0.001163 0.0
-0.048918 0.000208 0.0
-0.048871 -0.000796 0.0
-0.048601 -0.001846 0.0
-0.048099 -0.002937 0.0
-0.047355 -0.004066 0.0
-0.046361 -0.005225 0.0
-0.045111 -0.006406 0.0
-0.043598 -0.007601 0.0
-0.041821 -0.008798 0.0
-0.039779 -0.009986 0.0
-0.037474 -0.011152 0.0
-0.034912 -0.012280 0.0
-0.032102 -0.013358 0.0
-0.029055 -0.014368 0.0
-0.025788 -0.015297 0.0
-0.022321 -0.016127 0.0
-0.018678 -0.016838 0.0
-0.014890 -0.017385 0.0
-0.011009 -0.017634 0.0
-0.007142 -0.017177 0.0
-0.003559 -0.014921 0.0
-0.000944 -0.008328 0.0
-0.000534 0.005701 0.0
-0.002086 0.011029 0.0
-0.004302 0.013084 0.0
-0.006751 0.013683 0.0
-0.009256 0.013767 0.0
-0.011761 0.013690 0.0
-0.014245 0.013555 0.0
-0.016701 0.013385 0.0
-0.019123 0.013183 0.0
-0.021504 0.012948 0.0
-0.023840 0.012682 0.0
-0.026124 0.012381 0.0
-0.028350 0.012045 0.0
-0.030512 0.011672 0.0
-0.032604 0.011261 0.0
-0.034618 0.010810 0.0
-0.036549 0.010317 0.0
-0.038387 0.009779 0.0
-0.040127 0.009194 0.0
-0.041759 0.008560 0.0
-0.043275 0.007875 0.0
-0.044665 0.007135 0.0
-0.045921 0.006340 0.0
-0.047031 0.005486 0.0
-0.047986 0.004572 0.0
-0.048774 0.003596 0.0
-0.049384 0.002558 0.0
-0.049804 0.001457 0.0
-0.050023 0.000295 0.0
-0.050027 -0.000927 0.0
-0.049805 -0.002206 0.0
-0.049347 -0.003538 0.0
-0.048640 -0.004916 0.0
-0.047675 -0.006333 0.0
-0.046444 -0.007779 0.0
-0.044941 -0.009244 0.0
-0.043160 -0.010713 0.0
-0.041099 -0.012173 0.0
-0.038761 -0.013608 0.0
-0.036149 -0.014998 0.0
-0.033273 -0.016327 0.0
-0.030143 -0.017575 0.0
-0.026776 -0.018723 0.0
-0.023193 -0.019751 0.0
-0.019420 -0.020631 0.0
-0.015490 -0.021310 0.0
-0.011457 -0.021624 0.0
-0.007434 -0.021077 0.0
-0.003706 -0.018331 0.0
-0.000984 -0.010256 0.0
-0.000538 0.006773 0.0
-0.002105 0.013076 0.0
-0.004347 0.015496 0.0
-0.006826 0.016198 0.0
-0.009364 0.016295 0.0
-0.011901 0.016204 0.0
-0.014418 0.016044 0.0
-0.016907 0.015842 0.0
-0.019363 0.015603 0.0
-0.021780 0.015326 0.0
-0.024152 0.015011 0.0
-0.026474 0.014657 0.0
-0.028739 0.014261 0.0
-0.030942 0.013822 0.0
-0.033077 0.013338 0.0
-0.035136 0.012807 0.0
-0.037114 0.012227 0.0
-0.039002 0.011595 0.0
-0.040794 0.010908 0.0
-0.042480 0.010164 0.0
-0.044053 0.009359 0.0
-0.045504 0.008491 0.0
-0.046822 0.007557 0.0
-0.047997 0.006554 0.0
-0.049018 0.005480 0.0
-0.049874 0.004332 0.0
-0.050552 0.003110 0.0
-0.051040 0.001813 0.0
-0.051325 0.000442 0.0
-0.051393 -0.001001 0.0
-0.051232 -0.002515 0.0
-0.050828 -0.004092 0.0
-0.050169 -0.005728 0.0
-0.049242 -0.007412 0.0
-0.048038 -0.009135 0.0
-0.046548 -0.010882 0.0
-0.044766 -0.012639 0.0
-0.042687 -0.014387 0.0
-0.040312 -0.016107 0.0
-0.037643 -0.017779 0.0
-0.034689 -0.019378 0.0
-0.031460 -0.020883 0.0
-0.027974 -0.022268 0.0
-0.024253 -0.023510 0.0
-0.020322 -0.024575 0.0
-0.016219 -0.025399 0.0
-0.012002 -0.025786 0.0
-0.007792 -0.025148 0.0
-0.003887 -0.021892 0.0
-0.001032 -0.012272 0.0
-0.000543 0.007854 0.0
-0.002128 0.015147 0.0
-0.004400 0.017939 0.0
-0.006913 0.018747 0.0
-0.009488 0.018858 0.0
-0.012062 0.018752 0.0
-0.014617 0.018568 0.0
-0.017146 0.018336 0.0
-0.019641 0.018061 0.0
-0.022099 0.017743 0.0
-0.024513 0.017381 0.0
-0.026878 0.016974 0.0
-0.029188 0.016520 0.0
-0.031439 0.016016 0.0
-0.033622 0.015462 0.0
-0.035733 0.014854 0.0
-0.037765 0.014190 0.0
-0.039711 0.013466 0.0
-0.041562 0.012680 0.0
-0.043312 0.011829 0.0
-0.044952 0.010908 0.0
-0.046472 0.009914 0.0
-0.047862 0.008843 0.0
-0.049113 0.007693 0.0
-0.050212 0.006461 0.0
-0.051148 0.005143 0.0
-0.051907 0.003737 0.0
-0.052476 0.002244 0.0
-0.052841 0.000662 0.0
-0.052987 -0.001007 0.0
-0.052899 -0.002759 0.0
-0.052563 -0.004589 0.0
-0.051963 -0.006490 0.0
-0.051085 -0.008453 0.0
-0.049917 -0.010465 0.0
-0.048447 -0.012511 0.0
-0.046667 -0.014572 0.0
-0.044570 -0.016629 0.0
-0.042155 -0.018657 0.0
-0.039422 -0.020631 0.0
-0.036378 -0.022524 0.0
-0.033035 -0.024309 0.0
-0.029408 -0.025955 0.0
-0.025522 -0.027432 0.0
-0.021404 -0.028701 0.0
-0.017095 -0.029685 0.0
-0.012658 -0.030155 0.0
-0.008222 -0.029425 0.0
-0.004105 -0.025637 0.0
-0.001091 -0.014395 0.0
-0.000549 0.008945 0.0
-0.002154 0.017246 0.0
-0.004460 0.020418 0.0
-0.007013 0.021335 0.0
-0.009629 0.021460 0.0
-0.012246 0.021341 0.0
-0.014844 0.021133 0.0
-0.017417 0.020871 0.0
-0.019957 0.020561 0.0
-0.022461 0.020203 0.0
-0.024922 0.019796 0.0
-0.027336 0.019338 0.0
-0.029697 0.018827 0.0
-0.032001 0.018262 0.0
-0.034240 0.017640 0.0
-0.036409 0.016957 0.0
-0.038502 0.016212 0.0
-0.040512 0.015400 0.0
-0.042432 0.014518 0.0
-0.044254 0.013562 0.0
-0.045969 0.012529 0.0
-0.047569 0.011412 0.0
-0.049043 0.010209 0.0
-0.050380 0.008916 0.0
-0.051569 0.007527 0.0
-0.052598 0.006040 0.0
-0.053451 0.004453 0.0
-0.054116 0.002762 0.0
-0.054576 0.000968 0.0
-0.054814 -0.000928 0.0
-0.054815 -0.002924 0.0
-0.054561 -0.005015 0.0
-0.054034 -0.007192 0.0
-0.053217 -0.009446 0.0
-0.052096 -0.011762 0.0
-0.050656 -0.014124 0.0
-0.048884 -0.016511 0.0
-0.046772 -0.018898 0.0
-0.044315 -0.021260 0.0
-0.041511 -0.023564 0.0
-0.038367 -0.025780 0.0
-0.034891 -0.027872 0.0
-0.031102 -0.029806 0.0
-0.027024 -0.031545 0.0
-0.022686 -0.033042 0.0
-0.018134 -0.034205 0.0
-0.013436 -0.034770 0.0
-0.008734 -0.033948 0.0
-0.004364 -0.029602 0.0
-0.001161 -0.016648 0.0
-0.000555 0.010049 0.0
-0.002184 0.019376 0.0
-0.004528 0.022937 0.0
-0.007125 0.023966 0.0
-0.009787 0.024107 0.0
-0.012451 0.023975 0.0
-0.015098 0.023744 0.0
-0.017719 0.023454 0.0
-0.020310 0.023110 0.0
-0.022864 0.022713 0.0
-0.025378 0.022262 0.0
-0.027847 0.021755 0.0
-0.030264 0.021190 0.0
-0.032626 0.020565 0.0
-0.034927 0.019877 0.0
-0.037161 0.019123 0.0
-0.039322 0.018300 0.0
-0.041404 0.017404 0.0
-0.043400 0.016430 0.0
-0.045302 0.015374 0.0
-0.047102 0.014232 0.0
-0.048791 0.012998 0.0
-0.050359 0.011666 0.0
-0.051795 0.010232 0.0
-0.053087 0.008691 0.0
-0.054222 0.007039 0.0
-0.055185 0.005271 0.0
-0.055960 0.003384 0.0
-0.056531 0.001377 0.0
-0.056879 -0.000750 0.0
-0.056986 -0.002995 0.0
-0.056831 -0.005353 0.0
-0.056394 -0.007817 0.0
-0.055655 -0.010375 0.0
-0.054595 -0.013014 0.0
-0.053196 -0.015712 0.0
-0.051441 -0.018449 0.0
-0.049319 -0.021195 0.0
-0.046821 -0.023919 0.0
-0.043942 -0.026587 0.0
-0.040686 -0.029158 0.0
-0.037062 -0.031593 0.0
-0.033087 -0.033850 0.0
-0.028786 -0.035882 0.0
-0.024193 -0.037635 0.0
-0.019356 -0.039000 0.0
-0.014353 -0.039676 0.0
-0.009336 -0.038762 0.0
-0.004669 -0.033825 0.0
-0.001244 -0.019052 0.0
-0.000562 0.011166 0.0
-0.002216 0.021542 0.0
-0.004602 0.025502 0.0
-0.007248 0.026645 0.0
-0.009962 0.026804 0.0
-0.012678 0.026659 0.0
-0.015378 0.026406 0.0
-0.018053 0.026088 0.0
-0.020698 0.025711 0.0
-0.023309 0.025277 0.0
-0.025880 0.024783 0.0
-0.028408 0.024229 0.0
-0.030887 0.023612 0.0
-0.033313 0.022930 0.0
-0.035682 0.022180 0.0
-0.037986 0.021358 0.0
-0.040222 0.020462 0.0
-0.042382 0.019485 0.0
-0.044462 0.018424 0.0
-0.046452 0.017273 0.0
-0.048346 0.016027 0.0
-0.050135 0.014680 0.0
-0.051808 0.013225 0.0
-0.053355 0.011656 0.0
-0.054763 0.009968 0.0
-0.056019 0.008153 0.0
-0.057106 0.006207 0.0
-0.058010 0.004126 0.0
-0.058710 0.001906 0.0
-0.059186 -0.000454 0.0
-0.059418 -0.002953 0.0
-0.059383 -0.005586 0.0
-0.059056 -0.008348 0.0
-0.058414 -0.011226 0.0
-0.057433 -0.014204 0.0
-0.056091 -0.017263 0.0
-0.054367 -0.020376 0.0
-0.052243 -0.023513 0.0
-0.049707 -0.026636 0.0
-0.046750 -0.029705 0.0
-0.043374 -0.032673 0.0
-0.039584 -0.035492 0.0
-0.035398 -0.038112 0.0
-0.030842 -0.040477 0.0
-0.025954 -0.042522 0.0
-0.020786 -0.044118 0.0
-0.015426 -0.044922 0.0
-0.010042 -0.043916 0.0
-0.005027 -0.038353 0.0
-0.001340 -0.021636 0.0
-0.000570 0.012298 0.0
-0.002252 0.023746 0.0
-0.004684 0.028115 0.0
-0.007383 0.029377 0.0
-0.010153 0.029554 0.0
-0.012926 0.029399 0.0
-0.015683 0.029124 0.0
-0.018416 0.028778 0.0
-0.021121 0.028370 0.0
-0.023792 0.027900 0.0
-0.026426 0.027366 0.0
-0.029018 0.026767 0.0
-0.031563 0.026100 0.0
-0.034059 0.025364 0.0
-0.036499 0.024555 0.0
-0.038880 0.023669 0.0
-0.041196 0.022703 0.0
-0.043442 0.021650 0.0
-0.045612 0.020507 0.0
-0.047699 0.019267 0.0
-0.049695 0.017924 0.0
-0.051593 0.016470 0.0
-0.053383 0.014898 0.0
-0.055053 0.013200 0.0
-0.056591 0.011370 0.0
-0.057983 0.009399 0.0
-0.059212 0.007279 0.0
-0.060262 0.005006 0.0
-0.061111 0.002575 0.0
-0.061738 -0.000019 0.0
-0.062118 -0.002775 0.0
-0.062226 -0.005692 0.0
-0.062033 -0.008762 0.0
-0.061512 -0.011975 0.0
-0.060633 -0.015315 0.0
-0.059368 -0.018760 0.0
-0.057691 -0.022281 0.0
-0.055579 -0.025844 0.0
-0.053012 -0.029408 0.0
-0.049979 -0.032923 0.0
-0.046474 -0.036336 0.0
-0.042503 -0.039590 0.0
-0.038080 -0.042623 0.0
-0.033234 -0.045369 0.0
-0.028005 -0.047747 0.0
-0.022454 -0.049611 0.0
-0.016679 -0.050566 0.0
-0.010866 -0.049469 0.0
-0.005444 -0.043237 0.0
-0.001453 -0.024430 0.0
-0.000578 0.013446 0.0
-0.002290 0.025992 0.0
-0.004771 0.030783 0.0
-0.007529 0.032167 0.0
-0.010359 0.032364 0.0
-0.013194 0.032197 0.0
-0.016013 0.031902 0.0
-0.018809 0.031530 0.0
-0.021577 0.031091 0.0
-0.024313 0.030586 0.0
-0.027013 0.030013 0.0
-0.029673 0.029371 0.0
-0.032290 0.028658 0.0
-0.034859 0.027871 0.0
-0.037376 0.027006 0.0
-0.039838 0.026061 0.0
-0.042240 0.025029 0.0
-0.044578 0.023907 0.0
-0.046845 0.022688 0.0
-0.049036 0.021365 0.0
-0.051144 0.019931 0.0
-0.053160 0.018377 0.0
-0.055077 0.016696 0.0
-0.056883 0.014878 0.0
-0.058565 0.012913 0.0
-0.060109 0.010792 0.0
-0.061499 0.008506 0.0
-0.062715 0.006046 0.0
-0.063735 0.003405 0.0
-0.064536 0.000578 0.0
-0.065091 -0.002438 0.0
-0.065369 -0.005643 0.0
-0.065339 -0.009033 0.0
-0.064967 -0.012597 0.0
-0.064218 -0.016320 0.0
-0.063057 -0.020179 0.0
-0.061451 -0.024144 0.0
-0.059369 -0.028176 0.0
-0.056785 -0.032227 0.0
-0.053679 -0.036242 0.0
-0.050041 -0.040159 0.0
-0.045872 -0.043907 0.0
-0.041186 -0.047414 0.0
-0.036011 -0.050599 0.0
-0.030392 -0.053365 0.0
-0.024398 -0.055538 0.0
-0.018139 -0.056674 0.0
-0.011826 -0.055488 0.0
-0.005930 -0.048536 0.0
-0.001584 -0.027467 0.0
-0.000587 0.014611 0.0
-0.002331 0.028283 0.0
-0.004866 0.033508 0.0
-0.007686 0.035020 0.0
-0.010581 0.035237 0.0
-0.013481 0.035059 0.0
-0.016366 0.034744 0.0
-0.019229 0.034346 0.0
-0.022065 0.033878 0.0
-0.024870 0.033340 0.0
-0.027640 0.032730 0.0
-0.030373 0.032047 0.0
-0.033064 0.031290 0.0
-0.035711 0.030455 0.0
-0.038309 0.029539 0.0
-0.040857 0.028538 0.0
-0.043350 0.027447 0.0
-0.045784 0.026260 0.0
-0.048154 0.024972 0.0
-0.050456 0.023573 0.0
-0.052683 0.022057 0.0
-0.054828 0.020413 0.0
-0.056882 0.018632 0.0
-0.058836 0.016702 0.0
-0.060677 0.014612 0.0
-0.062390 0.012350 0.0
-0.063958 0.009905 0.0
-0.065362 0.007266 0.0
-0.066579 0.004422 0.0
-0.067581 0.001365 0.0
-0.068339 -0.001912 0.0
-0.068820 -0.005411 0.0
-0.068987 -0.009129 0.0
-0.068799 -0.013060 0.0
-0.068215 -0.017189 0.0
-0.067192 -0.021493 0.0
-0.065688 -0.025940 0.0
-0.063662 -0.030488 0.0
-0.061079 -0.035083 0.0
-0.057911 -0.039661 0.0
-0.054139 -0.044150 0.0
-0.049760 -0.048465 0.0
-0.044782 -0.052520 0.0
-0.039236 -0.056215 0.0
-0.033170 -0.059433 0.0
-0.026663 -0.061971 0.0
-0.019842 -0.063321 0.0
-0.012946 -0.062050 0.0
-0.006497 -0.054320 0.0
-0.001737 -0.030788 0.0
-0.000596 0.015794 0.0
-0.002374 0.030622 0.0
-0.004966 0.036296 0.0
-0.007853 0.037938 0.0
-0.010817 0.038177 0.0
-0.013788 0.037990 0.0
-0.016743 0.037654 0.0
-0.019677 0.037232 0.0
-0.022584 0.036735 0.0
-0.025461 0.036165 0.0
-0.028305 0.035519 0.0
-0.031113 0.034798 0.0
-0.033882 0.033999 0.0
-0.036610 0.033120 0.0
-0.039293 0.032156 0.0
-0.041930 0.031105 0.0
-0.044518 0.029960 0.0
-0.047053 0.028716 0.0
-0.049532 0.027365 0.0
-0.051951 0.025900 0.0
-0.054304 0.024311 0.0
-0.056586 0.022586 0.0
-0.058789 0.020715 0.0
-0.060902 0.018685 0.0
-0.062916 0.016482 0.0
-0.064815 0.014092 0.0
-0.066583 0.011500 0.0
-0.068198 0.008691 0.0
-0.069637 0.005652 0.0
-0.070870 0.002371 0.0
-0.071866 -0.001164 0.0
-0.072586 -0.004958 0.0
-0.072989 -0.009013 0.0
-0.073027 -0.013326 0.0
-0.072651 -0.017884 0.0
-0.071808 -0.022664 0.0
-0.070446 -0.027636 0.0
-0.068512 -0.032752 0.0
-0.065958 -0.037954 0.0
-0.062746 -0.043170 0.0
-0.058846 -0.048312 0.0
-0.054245 -0.053284 0.0
-0.048948 -0.057976 0.0
-0.042984 -0.062269 0.0
-0.036407 -0.066021 0.0
-0.029307 -0.068990 0.0
-0.021832 -0.070599 0.0
-0.014254 -0.069246 0.0
-0.007157 -0.060670 0.0
-0.001915 -0.034440 0.0
-0.000606 0.016996 0.0
-0.002420 0.033013 0.0
-0.005073 0.039150 0.0
-0.008030 0.040928 0.0
-0.011068 0.041190 0.0
-0.014113 0.040993 0.0
-0.017143 0.040637 0.0
-0.020151 0.040191 0.0
-0.023133 0.039666 0.0
-0.026086 0.039064 0.0
-0.029007 0.038385 0.0
-0.031893 0.037627 0.0
-0.034742 0.036789 0.0
-0.037553 0.035868 0.0
-0.040324 0.034862 0.0
-0.043053 0.033765 0.0
-0.045738 0.032573 0.0
-0.048378 0.031278 0.0
-0.050970 0.029874 0.0
-0.053511 0.028351 0.0
-0.055997 0.026699 0.0
-0.058423 0.024906 0.0
-0.060783 0.022959 0.0
-0.063069 0.020842 0.0
-0.065270 0.018540 0.0
-0.067372 0.016035 0.0
-0.069359 0.013310 0.0
-0.071210 0.010346 0.0
-0.072899 0.007125 0.0
-0.074397 0.003629 0.0
-0.075668 -0.000156 0.0
-0.076670 -0.004244 0.0
-0.077355 -0.008640 0.0
-0.077669 -0.013347 0.0
-0.077553 -0.018355 0.0
-0.076944 -0.023645 0.0
-0.075775 -0.029186 0.0
-0.073981 -0.034930 0.0
-0.071497 -0.040813 0.0
-0.068269 -0.046752 0.0
-0.064254 -0.052646 0.0
-0.059426 -0.058379 0.0
-0.053783 -0.063820 0.0
-0.047351 -0.068821 0.0
-0.040189 -0.073207 0.0
-0.032401 -0.076691 0.0
-0.024160 -0.078614 0.0
-0.015783 -0.077186 0.0
-0.007928 -0.067681 0.0
-0.002122 -0.038477 0.0
-0.000616 0.018217 0.0
-0.002469 0.035459 0.0
-0.005186 0.042074 0.0
-0.008218 0.043993 0.0
-0.011334 0.044278 0.0
-0.014457 0.044072 0.0
-0.017565 0.043697 0.0
-0.020651 0.043226 0.0
-0.023711 0.042673 0.0
-0.026742 0.042041 0.0
-0.029742 0.041328 0.0
-0.032709 0.040536 0.0
-0.035641 0.039662 0.0
-0.038537 0.038703 0.0
-0.041397 0.037658 0.0
-0.044220 0.036521 0.0
-0.047005 0.035287 0.0
-0.049751 0.033950 0.0
-0.052459 0.032501 0.0
-0.055125 0.030931 0.0
-0.057749 0.029229 0.0
-0.060326 0.027380 0.0
-0.062853 0.025371 0.0
-0.065321 0.023184 0.0
-0.067723 0.020800 0.0
-0.070045 0.018200 0.0
-0.072272 0.015360 0.0
-0.074383 0.012259 0.0
-0.076354 0.008873 0.0
-0.078152 0.005178 0.0
-0.079739 0.001153 0.0
-0.081070 -0.003221 0.0
-0.082091 -0.007958 0.0
-0.082741 -0.013066 0.0
-0.082949 -0.018543 0.0
-0.082640 -0.024375 0.0
-0.081731 -0.030534 0.0
-0.080138 -0.036970 0.0
-0.077780 -0.043616 0.0
-0.074579 -0.050378 0.0
-0.070474 -0.057140 0.0
-0.065422 -0.063765 0.0
-0.059408 -0.070090 0.0
-0.052454 -0.075937 0.0
-0.044623 -0.081084 0.0
-0.036035 -0.085189 0.0
-0.026897 -0.087495 0.0
-0.017578 -0.086001 0.0
-0.008830 -0.075469 0.0
-0.002363 -0.042962 0.0
-0.000626 0.019459 0.0
-0.002520 0.037963 0.0
-0.005305 0.045073 0.0
-0.008417 0.047138 0.0
-0.011615 0.047448 0.0
-0.014821 0.047231 0.0
-0.018011 0.046836 0.0
-0.021178 0.046340 0.0
-0.024319 0.045759 0.0
-0.027430 0.045097 0.0
-0.030511 0.044353 0.0
-0.033560 0.043527 0.0
-0.036575 0.042618 0.0
-0.039557 0.041625 0.0
-0.042507 0.040545 0.0
-0.045424 0.039373 0.0
-0.048309 0.038105 0.0
-0.051164 0.036733 0.0
-0.053988 0.035250 0.0
-0.056783 0.033644 0.0
-0.059548 0.031904 0.0
-0.062281 0.030015 0.0
-0.064980 0.027961 0.0
-0.067640 0.025722 0.0
-0.070254 0.023277 0.0
-0.072812 0.020602 0.0
-0.075300 0.017672 0.0
-0.077697 0.014457 0.0
-0.079980 0.010928 0.0
-0.082117 0.007057 0.0
-0.084066 0.002812 0.0
-0.085780 -0.001834 0.0
-0.087200 -0.006904 0.0
-0.088254 -0.012415 0.0
-0.088863 -0.018376 0.0
-0.088935 -0.024780 0.0
-0.088370 -0.031603 0.0
-0.087062 -0.038801 0.0
-0.084904 -0.046301 0.0
-0.081794 -0.054003 0.0
-0.077641 -0.061773 0.0
-0.072380 -0.069446 0.0
-0.065977 -0.076826 0.0
-0.058443 -0.083689 0.0
-0.049845 -0.089760 0.0
-0.040324 -0.094622 0.0
-0.030126 -0.097399 0.0
-0.019692 -0.095850 0.0
-0.009888 -0.084172 0.0
-0.002645 -0.047970 0.0
-0.000637 0.020723 0.0
-0.002573 0.040528 0.0
-0.005432 0.048152 0.0
-0.008628 0.050367 0.0
-0.011912 0.050702 0.0
-0.015204 0.050475 0.0
-0.018480 0.050058 0.0
-0.021731 0.049536 0.0
-0.024955 0.048927 0.0
-0.028149 0.048234 0.0
-0.031312 0.047459 0.0
-0.034443 0.046600 0.0
-0.037542 0.045660 0.0
-0.040611 0.044635 0.0
-0.043649 0.043523 0.0
-0.046660 0.042322 0.0
-0.049645 0.041026 0.0
-0.052606 0.039628 0.0
-0.055548 0.038120 0.0
-0.058471 0.036491 0.0
-0.061378 0.034729 0.0
-0.064270 0.032816 0.0
-0.067146 0.030736 0.0
-0.070005 0.028467 0.0
-0.072842 0.025984 0.0
-0.075650 0.023261 0.0
-0.078417 0.020267 0.0
-0.081126 0.016968 0.0
-0.083754 0.013328 0.0
-0.086268 0.009308 0.0
-0.088630 0.004871 0.0
-0.090786 -0.000022 0.0
-0.092673 -0.005409 0.0
-0.094213 -0.011316 0.0
-0.095314 -0.017766 0.0
-0.095867 -0.024765 0.0
-0.095752 -0.032299 0.0
-0.094836 -0.040329 0.0
-0.092982 -0.048786 0.0
-0.090051 -0.057560 0.0
-0.085918 -0.066501 0.0
-0.080481 -0.075415 0.0
-0.073680 -0.084062 0.0
-0.065507 -0.092161 0.0
-0.056030 -0.099363 0.0
-0.045413 -0.105157 0.0
-0.033957 -0.108518 0.0
-0.022193 -0.106929 0.0
-0.011133 -0.093956 0.0
-0.002974 -0.053589 0.0
-0.000649 0.022010 0.0
-0.002630 0.043159 0.0
-0.005565 0.051315 0.0
-0.008850 0.053685 0.0
-0.012227 0.054045 0.0
-0.015609 0.053806 0.0
-0.018973 0.053366 0.0
-0.022312 0.052818 0.0
-0.025621 0.052179 0.0
-0.028899 0.051455 0.0
-0.032145 0.050647 0.0
-0.035359 0.049757 0.0
-0.038541 0.048785 0.0
-0.041694 0.047730 0.0
-0.044819 0.046592 0.0
-0.047921 0.045366 0.0
-0.051003 0.044049 0.0
-0.054070 0.042634 0.0
-0.057125 0.041112 0.0
-0.060175 0.039473 0.0
-0.063223 0.037702 0.0
-0.066274 0.035784 0.0
-0.069329 0.033700 0.0
-0.072392 0.031424 0.0
-0.075460 0.028932 0.0
-0.078530 0.026191 0.0
-0.081593 0.023167 0.0
-0.084637 0.019820 0.0
-0.087640 0.016106 0.0
-0.090573 0.011978 0.0
-0.093398 0.007387 0.0
-0.096060 0.002280 0.0
-0.098493 -0.003391 0.0
-0.100612 -0.009675 0.0
-0.102312 -0.016607 0.0
-0.103467 -0.024214 0.0
-0.103935 -0.032497 0.0
-0.103550 -0.041431 0.0
-0.102135 -0.050953 0.0
-0.099510 -0.060950 0.0
-0.095498 -0.071256 0.0
-0.089949 -0.081645 0.0
-0.082758 -0.091824 0.0
-0.073890 -0.101440 0.0
-0.063405 -0.110046 0.0
-0.051496 -0.117001 0.0
-0.038533 -0.121094 0.0
-0.025167 -0.119482 0.0
-0.012603 -0.105027 0.0
-0.003358 -0.059921 0.0
-0.000662 0.023321 0.0
-0.002691 0.045858 0.0
-0.005708 0.054566 0.0
-0.009087 0.057097 0.0
-0.012559 0.057482 0.0
-0.016037 0.057229 0.0
-0.019494 0.056764 0.0
-0.022922 0.056187 0.0
-0.026319 0.055516 0.0
-0.029681 0.054759 0.0
-0.033010 0.053918 0.0
-0.036306 0.052995 0.0
-0.039569 0.051992 0.0
-0.042804 0.050910 0.0
-0.046013 0.049747 0.0
-0.049202 0.048502 0.0
-0.052377 0.047170 0.0
-0.055544 0.045746 0.0
-0.058709 0.044221 0.0
-0.061881 0.042585 0.0
-0.065066 0.040824 0.0
-0.068272 0.038920 0.0
-0.071506 0.036854 0.0
-0.074773 0.034599 0.0
-0.078075 0.032128 0.0
-0.081415 0.029405 0.0
-0.084789 0.026390 0.0
-0.088187 0.023039 0.0
-0.091595 0.019298 0.0
-0.094987 0.015112 0.0
-0.098327 0.010418 0.0
-0.101564 0.005149 0.0
-0.104628 -0.000762 0.0
-0.107430 -0.007384 0.0
-0.109853 -0.014775 0.0
-0.111757 -0.022986 0.0
-0.112970 -0.032045 0.0
-0.113292 -0.041946 0.0
-0.112500 -0.052644 0.0
-0.110355 -0.064030 0.0
-0.106615 -0.075928 0.0
-0.101060 -0.088077 0.0
-0.093519 -0.100124 0.0
-0.083909 -0.111619 0.0
-0.072272 -0.121987 0.0
-0.058828 -0.130412 0.0
-0.044040 -0.135435 0.0
-0.028727 -0.133820 0.0
-0.014341 -0.117639 0.0
-0.003807 -0.067087 0.0
-0.000675 0.024657 0.0
-0.002756 0.048632 0.0
-0.005859 0.057913 0.0
-0.009338 0.060608 0.0
-0.012913 0.061017 0.0
-0.016490 0.060748 0.0
-0.020043 0.060255 0.0
-0.023564 0.059645 0.0
-0.027049 0.058940 0.0
-0.030498 0.058147 0.0
-0.033909 0.057270 0.0
-0.037284 0.056313 0.0
-0.040626 0.055279 0.0
-0.043939 0.054170 0.0
-0.047227 0.052985 0.0
-0.050498 0.051724 0.0
-0.053759 0.050384 0.0
-0.057019 0.048959 0.0
-0.060286 0.047442 0.0
-0.063573 0.045822 0.0
-0.066888 0.044087 0.0
-0.070243 0.042218 0.0
-0.073650 0.040195 0.0
-0.077117 0.037992 0.0
-0.080654 0.035576 0.0
-0.084267 0.032910 0.0
-0.087959 0.029951 0.0
-0.091729 0.026646 0.0
-0.095566 0.022936 0.0
-0.099454 0.018754 0.0
-0.103361 0.014023 0.0
-0.107240 0.008660 0.0
-0.111025 0.002576 0.0
-0.114624 -0.004322 0.0
-0.117914 -0.012124 0.0
-0.120737 -0.020912 0.0
-0.122895 -0.030749 0.0
-0.124149 -0.041666 0.0
-0.124219 -0.053645 0.0
-0.122795 -0.066599 0.0
-0.119547 -0.080348 0.0
-0.114158 -0.094602 0.0
-0.106359 -0.108939 0.0
-0.095983 -0.122790 0.0
-0.083033 -0.135404 0.0
-0.067756 -0.145717 0.0
-0.050733 -0.151940 0.0
-0.033016 -0.150346 0.0
-0.016403 -0.132111 0.0
-0.004329 -0.075223 0.0
-0.000689 0.026022 0.0
-0.002826 0.051485 0.0
-0.006022 0.061360 0.0
-0.009608 0.064226 0.0
-0.013290 0.064657 0.0
-0.016972 0.064367 0.0
-0.020625 0.063843 0.0
-0.024242 0.063195 0.0
-0.027818 0.062451 0.0
-0.031351 0.061618 0.0
-0.034844 0.060702 0.0
-0.038296 0.059709 0.0
-0.041712 0.058642 0.0
-0.045098 0.057505 0.0
-0.048459 0.056300 0.0
-0.051804 0.055026 0.0
-0.055142 0.053682 0.0
-0.058486 0.052263 0.0
-0.061845 0.050765 0.0
-0.065235 0.049175 0.0
-0.068670 0.047483 0.0
-0.072164 0.045671 0.0
-0.075733 0.043718 0.0
-0.079392 0.041596 0.0
-0.083157 0.039273 0.0
-0.087040 0.036709 0.0
-0.091053 0.033857 0.0
-0.095202 0.030658 0.0
-0.099487 0.027047 0.0
-0.103901 0.022944 0.0
-0.108421 0.018260 0.0
-0.113011 0.012892 0.0
-0.117610 0.006728 0.0
-0.122129 -0.000356 0.0
-0.126443 -0.008486 0.0
-0.130382 -0.017788 0.0
-0.133724 -0.028373 0.0
-0.136188 -0.040324 0.0
-0.137433 -0.053672 0.0
-0.137058 -0.068371 0.0
-0.134622 -0.084259 0.0
-0.129670 -0.101031 0.0
-0.121788 -0.118191 0.0
-0.110675 -0.135026 0.0
-0.096248 -0.150544 0.0
-0.078765 -0.163336 0.0
-0.058968 -0.171140 0.0
-0.038234 -0.169597 0.0
-0.018855 -0.148853 0.0
-0.004929 -0.084481 0.0
-0.000705 0.027417 0.0
-0.002902 0.054423 0.0
-0.006199 0.064915 0.0
-0.009899 0.067955 0.0
-0.013695 0.068406 0.0
-0.017487 0.068092 0.0
-0.021246 0.067530 0.0
-0.024960 0.066840 0.0
-0.028628 0.066050 0.0
-0.032247 0.065172 0.0
-0.035818 0.064212 0.0
-0.039344 0.063178 0.0
-0.042830 0.062075 0.0
-0.046281 0.060909 0.0
-0.049707 0.059682 0.0
-0.053116 0.058397 0.0
-0.056521 0.057054 0.0
-0.059936 0.055649 0.0
-0.063374 0.054178 0.0
-0.066854 0.052632 0.0
-0.070392 0.051000 0.0
-0.074009 0.049266 0.0
-0.077725 0.047408 0.0
-0.081562 0.045401 0.0
-0.085541 0.043211 0.0
-0.089684 0.040797 0.0
-0.094010 0.038109 0.0
-0.098539 0.035084 0.0
-0.103281 0.031649 0.0
-0.108241 0.027716 0.0
-0.113413 0.023180 0.0
-0.118773 0.017921 0.0
-0.124274 0.011799 0.0
-0.129838 0.004656 0.0
-0.135345 -0.003677 0.0