# vtk DataFile Version 3.0
Vector Field
ASCII
DATASET RECTILINEAR_GRID
DIMENSIONS 50 50 1
X_COORDINATES 50 double
0.100000 0.300000 0.500000 0.700000 0.900000 1.100000 1.300000 1.500000 1.700000 1.900000 2.100000 2.300000 2.500000 2.700000 2.900000 3.100000 3.300000 3.500000 3.700000 3.900000 4.100000 4.300000 4.500000 4.700000 4.900000 5.100000 5.300000 5.500000 5.700000 5.900000 6.100000 6.300000 6.500000 6.700000 6.900000 7.100000 7.300000 7.500000 7.700000 7.900000 8.100000 8.300000 8.500000 8.700000 8.900000 9.100000 9.300000 9.500000 9.700000 9.900000 
Y_COORDINATES 50 double
0.100000 0.300000 0.500000 0.700000 0.900000 1.100000 1.300000 1.500000 1.700000 1.900000 2.100000 2.300000 2.500000 2.700000 2.900000 3.100000 3.300000 3.500000 3.700000 3.900000 4.100000 4.300000 4.500000 4.700000 4.900000 5.100000 5.300000 5.500000 5.700000 5.900000 6.100000 6.300000 6.500000 6.700000 6.900000 7.100000 7.300000 7.500000 7.700000 7.900000 8.100000 8.300000 8.500000 8.700000 8.900000 9.100000 9.300000 9.500000 9.700000 9.900000 
Z_COORDINATES 1 double
0.0
POINT_DATA 2500
VECTORS Vektorfeld double
-0.000201 0.000201 0.0
-0.000907 0.000505 0.0
-0.002056 0.000644 0.0
-0.003394 0.000694 0.0
-0.004795 0.000707 0.0
-0.006213 0.000710 0.0
-0.007634 0.000711 0.0
-0.009057 0.000712 0.0
-0.010482 0.000713 0.0
-0.011911 0.000715 0.0
-0.013342 0.000716 0.0
-0.014774 0.000717 0.0
-0.016207 0.000716 0.0
-0.017639 0.000715 0.0
-0.019067 0.000712 0.0
-0.020487 0.000708 0.0
-0.021897 0.000701 0.0
-0.023291 0.000692 0.0
-0.024663 0.000680 0.0
-0.026008 0.000665 0.0
-0.027317 0.000645 0.0
-0.028582 0.000620 0.0
-0.029793 0.000590 0.0
-0.030938 0.000555 0.0
-0.032005 0.000513 0.0
-0.032981 0.000463 0.0
-0.033851 0.000406 0.0
-0.034599 0.000341 0.0
-0.035208 0.000268 0.0
-0.035661 0.000186 0.0
-0.035942 0.000095 0.0
-0.036033 -0.000004 0.0
-0.035918 -0.000112 0.0
-0.035577 -0.000228 0.0
-0.034996 -0.000353 0.0
-0.034161 -0.000483 0.0
-0.033061 -0.000617 0.0
-0.031690 -0.000754 0.0
-0.030045 -0.000891 0.0
-0.028128 -0.001026 0.0
-0.025948 -0.001155 0.0
-0.023515 -0.001278 0.0
-0.020847 -0.001390 0.0
-0.017968 -0.001489 0.0
-0.014907 -0.001571 0.0
-0.011707 -0.001628 0.0
-0.008439 -0.001640 0.0
-0.005241 -0.001557 0.0
-0.002416 -0.001268 0.0
-0.000574 -0.000574 0.0
-0.000522 0.000924 0.0
-0.002071 0.002037 0.0
-0.004363 0.002553 0.0
-0.006988 0.002748 0.0
-0.009741 0.002808 0.0
-0.012536 0.002822 0.0
-0.015340 0.002824 0.0
-0.018141 0.002824 0.0
-0.020937 0.002823 0.0
-0.023726 0.002822 0.0
-0.026504 0.002818 0.0
-0.029269 0.002812 0.0
-0.032015 0.002801 0.0
-0.034739 0.002786 0.0
-0.037434 0.002764 0.0
-0.040093 0.002736 0.0
-0.042708 0.002698 0.0
-0.045269 0.002650 0.0
-0.047765 0.002591 0.0
-0.050183 0.002517 0.0
-0.052510 0.002428 0.0
-0.054729 0.002321 0.0
-0.056823 0.002194 0.0
-0.058771 0.002045 0.0
-0.060553 0.001872 0.0
-0.062145 0.001672 0.0
-0.063523 0.001445 0.0
-0.064661 0.001188 0.0
-0.065531 0.000900 0.0
-0.066107 0.000582 0.0
-0.066360 0.000232 0.0
-0.066262 -0.000147 0.0
-0.065787 -0.000559 0.0
-0.064910 -0.000999 0.0
-0.063611 -0.001463 0.0
-0.061871 -0.001947 0.0
-0.059681 -0.002444 0.0
-0.057032 -0.002947 0.0
-0.053925 -0.003449 0.0
-0.050367 -0.003941 0.0
-0.046374 -0.004414 0.0
-0.041967 -0.004858 0.0
-0.037179 -0.005265 0.0
-0.032049 -0.005623 0.0
-0.026631 -0.005917 0.0
-0.020997 -0.006116 0.0
-0.015273 -0.006146 0.0
-0.009687 -0.005835 0.0
-0.004692 -0.004810 0.0
-0.001209 -0.002357 0.0
-0.000685 0.002131 0.0
-0.002664 0.004360 0.0
-0.005523 0.005381 0.0
-0.008759 0.005780 0.0
-0.012139 0.005910 0.0
-0.015567 0.005942 0.0
-0.019003 0.005943 0.0
-0.022433 0.005936 0.0
-0.025851 0.005925 0.0
-0.029250 0.005909 0.0
-0.032628 0.005887 0.0
-0.035979 0.005858 0.0
-0.039297 0.005819 0.0
-0.042575 0.005770 0.0
-0.045806 0.005706 0.0
-0.048980 0.005627 0.0
-0.052088 0.005529 0.0
-0.055117 0.005410 0.0
-0.058054 0.005265 0.0
-0.060884 0.005092 0.0
-0.063592 0.004887 0.0
-0.066157 0.004646 0.0
-0.068559 0.004365 0.0
-0.070776 0.004040 0.0
-0.072784 0.003667 0.0
-0.074557 0.003242 0.0
-0.076066 0.002762 0.0
-0.077283 0.002225 0.0
-0.078177 0.001628 0.0
-0.078718 0.000971 0.0
-0.078874 0.000253 0.0
-0.078615 -0.000524 0.0
-0.077912 -0.001359 0.0
-0.076742 -0.002245 0.0
-0.075084 -0.003175 0.0
-0.072919 -0.004139 0.0
-0.070236 -0.005125 0.0
-0.067031 -0.006121 0.0
-0.063304 -0.007110 0.0
-0.059067 -0.008076 0.0
-0.054336 -0.009003 0.0
-0.049141 -0.009871 0.0
-0.043517 -0.010664 0.0
-0.037510 -0.011360 0.0
-0.031183 -0.011927 0.0
-0.024619 -0.012303 0.0
-0.017957 -0.012345 0.0
-0.011446 -0.011733 0.0
-0.005588 -0.009765 0.0
-0.001453 -0.005019 0.0
-0.000751 0.003567 0.0
-0.002921 0.007073 0.0
-0.006039 0.008644 0.0
-0.009548 0.009262 0.0
-0.013204 0.009465 0.0
-0.016904 0.009515 0.0
-0.020610 0.009513 0.0
-0.024307 0.009494 0.0
-0.027988 0.009465 0.0
-0.031645 0.009426 0.0
-0.035275 0.009377 0.0
-0.038871 0.009315 0.0
-0.042427 0.009236 0.0
-0.045935 0.009139 0.0
-0.049387 0.009020 0.0
-0.052773 0.008874 0.0
-0.056083 0.008699 0.0
-0.059303 0.008489 0.0
-0.062419 0.008240 0.0
-0.065417 0.007946 0.0
-0.068279 0.007602 0.0
-0.070986 0.007202 0.0
-0.073515 0.006741 0.0
-0.075844 0.006211 0.0
-0.077948 0.005608 0.0
-0.079799 0.004925 0.0
-0.081369 0.004158 0.0
-0.082627 0.003304 0.0
-0.083542 0.002358 0.0
-0.084081 0.001320 0.0
-0.084213 0.000190 0.0
-0.083905 -0.001029 0.0
-0.083129 -0.002333 0.0
-0.081859 -0.003712 0.0
-0.080071 -0.005155 0.0
-0.077747 -0.006647 0.0
-0.074875 -0.008172 0.0
-0.071448 -0.009707 0.0
-0.067468 -0.011230 0.0
-0.062946 -0.012716 0.0
-0.057901 -0.014138 0.0
-0.052363 -0.015470 0.0
-0.046369 -0.016683 0.0
-0.039971 -0.017745 0.0
-0.033233 -0.018607 0.0
-0.026245 -0.019174 0.0
-0.019149 -0.019232 0.0
-0.012207 -0.018299 0.0
-0.005951 -0.015314 0.0
-0.001543 -0.008015 0.0
-0.000774 0.005092 0.0
-0.003015 0.009958 0.0
-0.006240 0.012102 0.0
-0.009865 0.012938 0.0
-0.013635 0.013214 0.0
-0.017447 0.013279 0.0
-0.021263 0.013272 0.0
-0.025069 0.013238 0.0
-0.028857 0.013188 0.0
-0.032621 0.013124 0.0
-0.036356 0.013044 0.0
-0.040056 0.012944 0.0
-0.043714 0.012821 0.0
-0.047323 0.012671 0.0
-0.050874 0.012490 0.0
-0.054358 0.012273 0.0
-0.057764 0.012015 0.0
-0.061079 0.011708 0.0
-0.064290 0.011348 0.0
-0.067381 0.010927 0.0
-0.070335 0.010437 0.0
-0.073132 0.009871 0.0
-0.075751 0.009220 0.0
-0.078169 0.008478 0.0
-0.080359 0.007635 0.0
-0.082295 0.006685 0.0
-0.083946 0.005620 0.0
-0.085281 0.004436 0.0
-0.086268 0.003128 0.0
-0.086873 0.001694 0.0
-0.087061 0.000136 0.0
-0.086800 -0.001544 0.0
-0.086057 -0.003337 0.0
-0.084804 -0.005231 0.0
-0.083013 -0.007213 0.0
-0.080663 -0.009262 0.0
-0.077739 -0.011353 0.0
-0.074232 -0.013459 0.0
-0.070142 -0.015547 0.0
-0.065479 -0.017584 0.0
-0.060261 -0.019533 0.0
-0.054518 -0.021357 0.0
-0.048292 -0.023016 0.0
-0.041636 -0.024467 0.0
-0.034618 -0.025642 0.0
-0.027333 -0.026412 0.0
-0.019932 -0.026490 0.0
-0.012690 -0.025225 0.0
-0.006169 -0.021165 0.0
-0.001592 -0.011149 0.0
-0.000779 0.006645 0.0
-0.003044 0.012911 0.0
-0.006311 0.015641 0.0
-0.009984 0.016697 0.0
-0.013802 0.017043 0.0
-0.017662 0.017122 0.0
-0.021526 0.017109 0.0
-0.025380 0.017060 0.0
-0.029216 0.016990 0.0
-0.033030 0.016901 0.0
-0.036816 0.016789 0.0
-0.040568 0.016652 0.0
-0.044282 0.016485 0.0
-0.047948 0.016283 0.0
-0.051560 0.016042 0.0
-0.055108 0.015754 0.0
-0.058581 0.015413 0.0
-0.061968 0.015012 0.0
-0.065256 0.014543 0.0
-0.068429 0.013996 0.0
-0.071471 0.013363 0.0
-0.074362 0.012633 0.0
-0.077081 0.011796 0.0
-0.079604 0.010843 0.0
-0.081906 0.009762 0.0
-0.083958 0.008545 0.0
-0.085730 0.007183 0.0
-0.087189 0.005668 0.0
-0.088300 0.003994 0.0
-0.089028 0.002160 0.0
-0.089337 0.000166 0.0
-0.089188 -0.001984 0.0
-0.088546 -0.004280 0.0
-0.087378 -0.006710 0.0
-0.085651 -0.009252 0.0
-0.083340 -0.011883 0.0
-0.080424 -0.014572 0.0
-0.076891 -0.017281 0.0
-0.072738 -0.019969 0.0
-0.067970 -0.022593 0.0
-0.062608 -0.025104 0.0
-0.056681 -0.027455 0.0
-0.050233 -0.029593 0.0
-0.043320 -0.031460 0.0
-0.036017 -0.032970 0.0
-0.028428 -0.033958 0.0
-0.020713 -0.034060 0.0
-0.013166 -0.032445 0.0
-0.006383 -0.027249 0.0
-0.001641 -0.014382 0.0
-0.000779 0.008204 0.0
-0.003050 0.015889 0.0
-0.006334 0.019214 0.0
-0.010031 0.020494 0.0
-0.013875 0.020909 0.0
-0.017761 0.021002 0.0
-0.021652 0.020983 0.0
-0.025534 0.020921 0.0
-0.029400 0.020832 0.0
-0.033247 0.020719 0.0
-0.037068 0.020579 0.0
-0.040860 0.020407 0.0
-0.044617 0.020199 0.0
-0.048332 0.019950 0.0
-0.051997 0.019652 0.0
-0.055605 0.019299 0.0
-0.059145 0.018882 0.0
-0.062607 0.018393 0.0
-0.065978 0.017821 0.0
-0.069243 0.017156 0.0
-0.072386 0.016387 0.0
-0.075389 0.015502 0.0
-0.078229 0.014487 0.0
-0.080885 0.013331 0.0
-0.083329 0.012020 0.0
-0.085533 0.010543 0.0
-0.087465 0.008888 0.0
-0.089091 0.007046 0.0
-0.090373 0.005010 0.0
-0.091274 0.002774 0.0
-0.091752 0.000339 0.0
-0.091766 -0.002291 0.0
-0.091274 -0.005106 0.0
-0.090237 -0.008090 0.0
-0.088617 -0.011219 0.0
-0.086382 -0.014463 0.0
-0.083504 -0.017785 0.0
-0.079967 -0.021138 0.0
-0.075760 -0.024472 0.0
-0.070889 -0.027729 0.0
-0.065370 -0.030850 0.0
-0.059234 -0.033772 0.0
-0.052528 -0.036430 0.0
-0.045313 -0.038750 0.0
-0.037672 -0.040623 0.0
-0.029720 -0.041846 0.0
-0.021633 -0.041973 0.0
-0.013729 -0.039984 0.0
-0.006638 -0.033584 0.0
-0.001702 -0.017726 0.0
-0.000778 0.009761 0.0
-0.003051 0.018876 0.0
-0.006345 0.022805 0.0
-0.010057 0.024311 0.0
-0.013920 0.024798 0.0
-0.017827 0.024906 0.0
-0.021740 0.024883 0.0
-0.025646 0.024809 0.0
-0.029539 0.024704 0.0
-0.033416 0.024570 0.0
-0.037272 0.024405 0.0
-0.041103 0.024203 0.0
-0.044903 0.023960 0.0
-0.048669 0.023669 0.0
-0.052392 0.023322 0.0
-0.056065 0.022910 0.0
-0.059680 0.022426 0.0
-0.063226 0.021857 0.0
-0.066692 0.021193 0.0
-0.070064 0.020421 0.0
-0.073327 0.019528 0.0
-0.076462 0.018498 0.0
-0.079449 0.017318 0.0
-0.082264 0.015971 0.0
-0.084882 0.014442 0.0
-0.087272 0.012716 0.0
-0.089402 0.010778 0.0
-0.091235 0.008616 0.0
-0.092732 0.006219 0.0
-0.093850 0.003582 0.0
-0.094543 0.000702 0.0
-0.094766 -0.002418 0.0
-0.094469 -0.005767 0.0
-0.093606 -0.009328 0.0
-0.092132 -0.013075 0.0
-0.090004 -0.016971 0.0
-0.087188 -0.020971 0.0
-0.083659 -0.025019 0.0
-0.079401 -0.029054 0.0
-0.074414 -0.033005 0.0
-0.068712 -0.036795 0.0
-0.062328 -0.040347 0.0
-0.055310 -0.043579 0.0
-0.047728 -0.046397 0.0
-0.039676 -0.048669 0.0
-0.031281 -0.050147 0.0
-0.022743 -0.050297 0.0
-0.014406 -0.047901 0.0
-0.006947 -0.040216 0.0
-0.001775 -0.021202 0.0
-0.000776 0.011315 0.0
-0.003049 0.021868 0.0
-0.006352 0.026410 0.0
-0.010079 0.028146 0.0
-0.013960 0.028707 0.0
-0.017887 0.028831 0.0
-0.021822 0.028806 0.0
-0.025753 0.028723 0.0
-0.029675 0.028605 0.0
-0.033584 0.028455 0.0
-0.037476 0.028269 0.0
-0.041349 0.028043 0.0
-0.045198 0.027771 0.0
-0.049019 0.027444 0.0
-0.052806 0.027056 0.0
-0.056553 0.026596 0.0
-0.060252 0.026054 0.0
-0.063894 0.025417 0.0
-0.067468 0.024674 0.0
-0.070963 0.023808 0.0
-0.074363 0.022804 0.0
-0.077651 0.021646 0.0
-0.080808 0.020315 0.0
-0.083811 0.018792 0.0
-0.086633 0.017060 0.0
-0.089243 0.015098 0.0
-0.091608 0.012890 0.0
-0.093690 0.010418 0.0
-0.095445 0.007669 0.0
-0.096827 0.004633 0.0
-0.097785 0.001304 0.0
-0.098265 -0.002316 0.0
-0.098213 -0.006218 0.0
-0.097571 -0.010383 0.0
-0.096283 -0.014782 0.0
-0.094299 -0.019375 0.0
-0.091572 -0.024108 0.0
-0.088068 -0.028916 0.0
-0.083761 -0.033722 0.0
-0.078645 -0.038440 0.0
-0.072731 -0.042976 0.0
-0.066050 -0.047232 0.0
-0.058657 -0.051105 0.0
-0.050631 -0.054479 0.0
-0.042079 -0.057191 0.0
-0.033150 -0.058948 0.0
-0.024066 -0.059118 0.0
-0.015210 -0.056274 0.0
-0.007311 -0.047203 0.0
-0.001861 -0.024838 0.0
-0.000774 0.012865 0.0
-0.003048 0.024865 0.0
-0.006359 0.030026 0.0
-0.010101 0.031998 0.0
-0.014001 0.032635 0.0
-0.017949 0.032779 0.0
-0.021909 0.032753 0.0
-0.025867 0.032664 0.0
-0.029818 0.032537 0.0
-0.033762 0.032374 0.0
-0.037694 0.032174 0.0
-0.041612 0.031930 0.0
-0.045514 0.031635 0.0
-0.049396 0.031282 0.0
-0.053253 0.030862 0.0
-0.057081 0.030364 0.0
-0.060872 0.029776 0.0
-0.064620 0.029085 0.0
-0.068316 0.028276 0.0
-0.071947 0.027332 0.0
-0.075502 0.026235 0.0
-0.078964 0.024965 0.0
-0.082314 0.023502 0.0
-0.085531 0.021824 0.0
-0.088587 0.019907 0.0
-0.091453 0.017728 0.0
-0.094092 0.015265 0.0
-0.096465 0.012497 0.0
-0.098525 0.009405 0.0
-0.100222 0.005975 0.0
-0.101498 0.002196 0.0
-0.102293 -0.001933 0.0
-0.102542 -0.006405 0.0
-0.102176 -0.011204 0.0
-0.101128 -0.016297 0.0
-0.099334 -0.021640 0.0
-0.096733 -0.027171 0.0
-0.093276 -0.032815 0.0
-0.088928 -0.038478 0.0
-0.083672 -0.044056 0.0
-0.077514 -0.049432 0.0
-0.070486 -0.054485 0.0
-0.062646 -0.059085 0.0
-0.054087 -0.063086 0.0
-0.044932 -0.066291 0.0
-0.035358 -0.068352 0.0
-0.025622 -0.068534 0.0
-0.016148 -0.065187 0.0
-0.007729 -0.054607 0.0
-0.001957 -0.028656 0.0
-0.000771 0.014410 0.0
-0.003045 0.027867 0.0
-0.006365 0.033656 0.0
-0.010123 0.035868 0.0
-0.014043 0.036584 0.0
-0.018014 0.036749 0.0
-0.021999 0.036727 0.0
-0.025985 0.036635 0.0
-0.029969 0.036502 0.0
-0.033949 0.036332 0.0
-0.037923 0.036123 0.0
-0.041891 0.035867 0.0
-0.045849 0.035558 0.0
-0.049795 0.035188 0.0
-0.053728 0.034746 0.0
-0.057642 0.034222 0.0
-0.061534 0.033602 0.0
-0.065397 0.032871 0.0
-0.069225 0.032013 0.0
-0.073007 0.031009 0.0
-0.076732 0.029838 0.0
-0.080387 0.028479 0.0
-0.083953 0.026906 0.0
-0.087409 0.025094 0.0
-0.090731 0.023015 0.0
-0.093887 0.020641 0.0
-0.096841 0.017945 0.0
-0.099551 0.014900 0.0
-0.101969 0.011480 0.0
-0.104037 0.007665 0.0
-0.105694 0.003439 0.0
-0.106868 -0.001206 0.0
-0.107485 -0.006267 0.0
-0.107463 -0.011729 0.0
-0.106720 -0.017562 0.0
-0.105174 -0.023715 0.0
-0.102748 -0.030122 0.0
-0.099375 -0.036693 0.0
-0.095003 -0.043319 0.0
-0.089602 -0.049871 0.0
-0.083170 -0.056207 0.0
-0.075736 -0.062173 0.0
-0.067367 -0.067605 0.0
-0.058168 -0.072323 0.0
-0.048291 -0.076085 0.0
-0.037943 -0.078480 0.0
-0.027427 -0.078659 0.0
-0.017223 -0.074739 0.0
-0.008202 -0.062496 0.0
-0.002064 -0.032677 0.0
-0.000769 0.015950 0.0
-0.003041 0.030873 0.0
-0.006371 0.037300 0.0
-0.010145 0.039757 0.0
-0.014085 0.040556 0.0
-0.018080 0.040744 0.0
-0.022091 0.040728 0.0
-0.026107 0.040636 0.0
-0.030124 0.040502 0.0
-0.034142 0.040330 0.0
-0.038160 0.040117 0.0
-0.042177 0.039857 0.0
-0.046194 0.039543 0.0
-0.050209 0.039165 0.0
-0.054220 0.038713 0.0
-0.058226 0.038175 0.0
-0.062224 0.037538 0.0
-0.066210 0.036784 0.0
-0.070178 0.035895 0.0
-0.074122 0.034852 0.0
-0.078033 0.033630 0.0
-0.081897 0.032205 0.0
-0.085700 0.030548 0.0
-0.089422 0.028630 0.0
-0.093040 0.026417 0.0
-0.096522 0.023877 0.0
-0.099834 0.020975 0.0
-0.102931 0.017677 0.0
-0.105761 0.013951 0.0
-0.108264 0.009766 0.0
-0.110370 0.005100 0.0
-0.112000 -0.000063 0.0
-0.113066 -0.005729 0.0
-0.113471 -0.011885 0.0
-0.113115 -0.018505 0.0
-0.111895 -0.025538 0.0
-0.109711 -0.032909 0.0
-0.106473 -0.040517 0.0
-0.102107 -0.048233 0.0
-0.096564 -0.055901 0.0
-0.089829 -0.063345 0.0
-0.081927 -0.070371 0.0
-0.072932 -0.076772 0.0
-0.062969 -0.082318 0.0
-0.052223 -0.086714 0.0
-0.040947 -0.089474 0.0
-0.029501 -0.089627 0.0
-0.018439 -0.085036 0.0
-0.008722 -0.070937 0.0
-0.002177 -0.036918 0.0
-0.000765 0.017484 0.0
-0.003036 0.033884 0.0
-0.006374 0.040957 0.0
-0.010165 0.043665 0.0
-0.014126 0.044549 0.0
-0.018145 0.044764 0.0
-0.022182 0.044756 0.0
-0.026228 0.044668 0.0
-0.030278 0.044537 0.0
-0.034334 0.044368 0.0
-0.038396 0.044159 0.0
-0.042465 0.043902 0.0
-0.046541 0.043591 0.0
-0.050625 0.043216 0.0
-0.054717 0.042766 0.0
-0.058818 0.042229 0.0
-0.062926 0.041590 0.0
-0.067040 0.040831 0.0
-0.071156 0.039933 0.0
-0.075272 0.038874 0.0
-0.079379 0.037626 0.0
-0.083469 0.036163 0.0
-0.087528 0.034453 0.0
-0.091541 0.032460 0.0
-0.095484 0.030147 0.0
-0.099329 0.027475 0.0
-0.103041 0.024401 0.0
-0.106576 0.020883 0.0
-0.109880 0.016879 0.0
-0.112888 0.012349 0.0
-0.115523 0.007259 0.0
-0.117696 0.001581 0.0
-0.119306 -0.004698 0.0
-0.120239 -0.011578 0.0
-0.120373 -0.019035 0.0
-0.119579 -0.027022 0.0
-0.117728 -0.035460 0.0
-0.114699 -0.044234 0.0
-0.110388 -0.053193 0.0
-0.104719 -0.062152 0.0
-0.097657 -0.070891 0.0
-0.089219 -0.079165 0.0
-0.079485 -0.086707 0.0
-0.068605 -0.093225 0.0
-0.056809 -0.098350 0.0
-0.044414 -0.101509 0.0
-0.031860 -0.101592 0.0
-0.019792 -0.096201 0.0
-0.009280 -0.080001 0.0
-0.002292 -0.041387 0.0
-0.000760 0.019009 0.0
-0.003028 0.036897 0.0
-0.006374 0.044628 0.0
-0.010181 0.047593 0.0
-0.014163 0.048565 0.0
-0.018205 0.048809 0.0
-0.022269 0.048813 0.0
-0.026344 0.048732 0.0
-0.030427 0.048608 0.0
-0.034521 0.048447 0.0
-0.038626 0.048247 0.0
-0.042745 0.048001 0.0
-0.046880 0.047702 0.0
-0.051033 0.047341 0.0
-0.055206 0.046906 0.0
-0.059402 0.046385 0.0
-0.063622 0.045762 0.0
-0.067866 0.045018 0.0
-0.072136 0.044133 0.0
-0.076429 0.043082 0.0
-0.080743 0.041838 0.0
-0.085071 0.040369 0.0
-0.089404 0.038639 0.0
-0.093728 0.036610 0.0
-0.098025 0.034237 0.0
-0.102269 0.031474 0.0
-0.106426 0.028271 0.0
-0.110453 0.024575 0.0
-0.114295 0.020333 0.0
-0.117884 0.015492 0.0
-0.121137 0.010004 0.0
-0.123955 0.003827 0.0
-0.126223 -0.003066 0.0
-0.127807 -0.010692 0.0
-0.128559 -0.019035 0.0
-0.128319 -0.028056 0.0
-0.126922 -0.037674 0.0
-0.124207 -0.047764 0.0
-0.120027 -0.058154 0.0
-0.114268 -0.068619 0.0
-0.106864 -0.078890 0.0
-0.097816 -0.088652 0.0
-0.087208 -0.097561 0.0
-0.075224 -0.105234 0.0
-0.062152 -0.111208 0.0
-0.048399 -0.114799 0.0
-0.034514 -0.114743 0.0
-0.021265 -0.108367 0.0
-0.009857 -0.089754 0.0
-0.002400 -0.046080 0.0
-0.000755 0.020525 0.0
-0.003018 0.039911 0.0
-0.006370 0.048311 0.0
-0.010192 0.051539 0.0
-0.014195 0.052604 0.0
-0.018260 0.052879 0.0
-0.022349 0.052896 0.0
-0.026452 0.052826 0.0
-0.030567 0.052713 0.0
-0.034696 0.052565 0.0
-0.038843 0.052381 0.0
-0.043010 0.052153 0.0
-0.047201 0.051876 0.0
-0.051421 0.051539 0.0
-0.055673 0.051133 0.0
-0.059962 0.050643 0.0
-0.064293 0.050054 0.0
-0.068668 0.049346 0.0
-0.073092 0.048499 0.0
-0.077567 0.047485 0.0
-0.082092 0.046275 0.0
-0.086668 0.044835 0.0
-0.091287 0.043126 0.0
-0.095943 0.041103 0.0
-0.100619 0.038717 0.0
-0.105295 0.035914 0.0
-0.109941 0.032634 0.0
-0.114515 0.028813 0.0
-0.118963 0.024385 0.0
-0.123217 0.019282 0.0
-0.127188 0.013438 0.0
-0.130768 0.006792 0.0
-0.133827 -0.000705 0.0
-0.136208 -0.009087 0.0
-0.137737 -0.018359 0.0
-0.138217 -0.028493 0.0
-0.137436 -0.039415 0.0
-0.135180 -0.050994 0.0
-0.131246 -0.063037 0.0
-0.125465 -0.075277 0.0
-0.117721 -0.087380 0.0
-0.107987 -0.098945 0.0
-0.096345 -0.109518 0.0
-0.083018 -0.118590 0.0
-0.068378 -0.125565 0.0
-0.052957 -0.129616 0.0
-0.037461 -0.129307 0.0
-0.022826 -0.121687 0.0
-0.010416 -0.100251 0.0
-0.002488 -0.050968 0.0
-0.000749 0.022028 0.0
-0.003004 0.042926 0.0
-0.006362 0.052006 0.0
-0.010198 0.055503 0.0
-0.014220 0.056663 0.0
-0.018306 0.056972 0.0
-0.022419 0.057005 0.0
-0.026548 0.056948 0.0
-0.030692 0.056850 0.0
-0.034854 0.056720 0.0
-0.039039 0.056557 0.0
-0.043250 0.056356 0.0
-0.047494 0.056109 0.0
-0.051776 0.055808 0.0
-0.056103 0.055443 0.0
-0.060481 0.055000 0.0
-0.064918 0.054464 0.0
-0.069421 0.053815 0.0
-0.073997 0.053030 0.0
-0.078653 0.052083 0.0
-0.083392 0.050942 0.0
-0.088220 0.049571 0.0
-0.093136 0.047926 0.0
-0.098137 0.045959 0.0
-0.103214 0.043615 0.0
-0.108352 0.040831 0.0
-0.113527 0.037537 0.0
-0.118702 0.033659 0.0
-0.123826 0.029113 0.0
-0.128832 0.023814 0.0
-0.133628 0.017674 0.0
-0.138100 0.010608 0.0
-0.142102 0.002540 0.0
-0.145460 -0.006592 0.0
-0.147965 -0.016821 0.0
-0.149375 -0.028142 0.0
-0.149424 -0.040498 0.0
-0.147830 -0.053761 0.0
-0.144314 -0.067719 0.0
-0.138626 -0.082065 0.0
-0.130576 -0.096385 0.0
-0.120085 -0.110166 0.0
-0.107221 -0.122802 0.0
-0.092248 -0.133606 0.0
-0.075652 -0.141785 0.0
-0.058150 -0.146318 0.0
-0.040677 -0.145574 0.0
-0.024404 -0.136329 0.0
-0.010897 -0.111527 0.0
-0.002531 -0.055986 0.0
-0.000741 0.023518 0.0
-0.002988 0.045938 0.0
-0.006348 0.055711 0.0
-0.010198 0.059484 0.0
-0.014237 0.060742 0.0
-0.018343 0.061086 0.0
-0.022477 0.061137 0.0
-0.026629 0.061096 0.0
-0.030798 0.061016 0.0
-0.034990 0.060908 0.0
-0.039208 0.060772 0.0
-0.043458 0.060603 0.0
-0.047749 0.060396 0.0
-0.052087 0.060142 0.0
-0.056481 0.059831 0.0
-0.060942 0.059451 0.0
-0.065478 0.058987 0.0
-0.070102 0.058419 0.0
-0.074824 0.057724 0.0
-0.079654 0.056876 0.0
-0.084605 0.055840 0.0
-0.089684 0.054580 0.0
-0.094899 0.053048 0.0
-0.100254 0.051193 0.0
-0.105747 0.048952 0.0
-0.111373 0.046257 0.0
-0.117113 0.043026 0.0
-0.122939 0.039171 0.0
-0.128808 0.034594 0.0
-0.134656 0.029186 0.0
-0.140393 0.022835 0.0
-0.145901 0.015426 0.0
-0.151025 0.006847 0.0
-0.155568 -0.002998 0.0
-0.159287 -0.014190 0.0
-0.161894 -0.026756 0.0
-0.163055 -0.040673 0.0
-0.162403 -0.055831 0.0
-0.159557 -0.072012 0.0
-0.154151 -0.088867 0.0
-0.145887 -0.105897 0.0
-0.134589 -0.122442 0.0
-0.120286 -0.137692 0.0
-0.103279 -0.150695 0.0
-0.084206 -0.160365 0.0
-0.064049 -0.165397 0.0
-0.044099 -0.163919 0.0
-0.025875 -0.152479 0.0
-0.011192 -0.123567 0.0
-0.002493 -0.061011 0.0
-0.000733 0.024993 0.0
-0.002968 0.048946 0.0
-0.006330 0.059425 0.0
-0.010190 0.063481 0.0
-0.014245 0.064839 0.0
-0.018369 0.065220 0.0
-0.022522 0.065290 0.0
-0.026693 0.065266 0.0
-0.030884 0.065206 0.0
-0.035099 0.065124 0.0
-0.039344 0.065019 0.0
-0.043627 0.064889 0.0
-0.047956 0.064729 0.0
-0.052341 0.064531 0.0
-0.056793 0.064288 0.0
-0.061326 0.063987 0.0
-0.065951 0.063613 0.0
-0.070684 0.063149 0.0
-0.075540 0.062572 0.0
-0.080536 0.061855 0.0
-0.085688 0.060964 0.0
-0.091012 0.059859 0.0
-0.096523 0.058494 0.0
-0.102232 0.056811 0.0
-0.108150 0.054745 0.0
-0.114278 0.052217 0.0
-0.120612 0.049139 0.0
-0.127134 0.045407 0.0
-0.133811 0.040905 0.0
-0.140590 0.035501 0.0
-0.147388 0.029055 0.0
-0.154088 0.021414 0.0
-0.160529 0.012425 0.0
-0.166498 0.001937 0.0
-0.171721 -0.010182 0.0
-0.175859 -0.024020 0.0
-0.178499 -0.039607 0.0
-0.179172 -0.056876 0.0
-0.177361 -0.075624 0.0
-0.172545 -0.095477 0.0
-0.164253 -0.115844 0.0
-0.152156 -0.135889 0.0
-0.136185 -0.154520 0.0
-0.116655 -0.170403 0.0
-0.094390 -0.181996 0.0
-0.070765 -0.187548 0.0
-0.047617 -0.184867 0.0
-0.027024 -0.170348 0.0
-0.011130 -0.136274 0.0
-0.002314 -0.065818 0.0
-0.000723 0.026448 0.0
-0.002945 0.051948 0.0
-0.006306 0.063145 0.0
-0.010176 0.067491 0.0
-0.014244 0.068952 0.0
-0.018383 0.069370 0.0
-0.022551 0.069460 0.0
-0.026738 0.069454 0.0
-0.030945 0.069416 0.0
-0.035177 0.069362 0.0
-0.039442 0.069292 0.0
-0.043749 0.069206 0.0
-0.048107 0.069099 0.0
-0.052528 0.068967 0.0
-0.057026 0.068802 0.0
-0.061616 0.068594 0.0
-0.066316 0.068330 0.0
-0.071143 0.067992 0.0
-0.076118 0.067560 0.0
-0.081263 0.067007 0.0
-0.086600 0.066300 0.0
-0.092154 0.065400 0.0
-0.097947 0.064257 0.0
-0.104003 0.062813 0.0
-0.110341 0.060999 0.0
-0.116978 0.058729 0.0
-0.123923 0.055906 0.0
-0.131174 0.052413 0.0
-0.138714 0.048116 0.0
-0.146505 0.042860 0.0
-0.154480 0.036469 0.0
-0.162532 0.028752 0.0
-0.170503 0.019500 0.0
-0.178172 0.008499 0.0
-0.185242 -0.004452 0.0
-0.191320 -0.019535 0.0
-0.195912 -0.036859 0.0
-0.198426 -0.056437 0.0
-0.198178 -0.078122 0.0
-0.194430 -0.101543 0.0
-0.186466 -0.126034 0.0
-0.173705 -0.150556 0.0
-0.155879 -0.173651 0.0
-0.133250 -0.193431 0.0
-0.106837 -0.207645 0.0
-0.078558 -0.213803 0.0
-0.051118 -0.209199 0.0
-0.027527 -0.190201 0.0
-0.010434 -0.149408 0.0
-0.001901 -0.070033 0.0
-0.000712 0.027884 0.0
-0.002919 0.054940 0.0
-0.006277 0.066871 0.0
-0.010155 0.071513 0.0
-0.014235 0.073079 0.0
-0.018387 0.073534 0.0
-0.022566 0.073643 0.0
-0.026763 0.073655 0.0
-0.030981 0.073639 0.0
-0.035223 0.073614 0.0
-0.039500 0.073582 0.0
-0.043819 0.073543 0.0
-0.048194 0.073495 0.0
-0.052638 0.073436 0.0
-0.057167 0.073360 0.0
-0.061798 0.073258 0.0
-0.066553 0.073120 0.0
-0.071454 0.072930 0.0
-0.076526 0.072670 0.0
-0.081796 0.072314 0.0
-0.087296 0.071831 0.0
-0.093056 0.071183 0.0
-0.099109 0.070321 0.0
-0.105491 0.069187 0.0
-0.112234 0.067707 0.0
-0.119371 0.065794 0.0
-0.126928 0.063342 0.0
-0.134924 0.060224 0.0
-0.143365 0.056287 0.0
-0.152237 0.051352 0.0
-0.161496 0.045211 0.0
-0.171057 0.037624 0.0
-0.180781 0.028322 0.0
-0.190451 0.017016 0.0
-0.199754 0.003404 0.0
-0.208262 -0.012805 0.0
-0.215404 -0.031855 0.0
-0.220446 -0.053885 0.0
-0.222505 -0.078863 0.0
-0.220568 -0.106486 0.0
-0.213571 -0.136052 0.0
-0.200548 -0.166322 0.0
-0.180870 -0.195389 0.0
-0.154592 -0.220602 0.0
-0.122853 -0.238627 0.0
-0.088232 -0.245722 0.0
-0.054747 -0.238204 0.0
-0.027044 -0.212490 0.0
-0.008735 -0.162521 0.0
-0.001127 -0.073062 0.0
-0.000701 0.029297 0.0
-0.002890 0.057923 0.0
-0.006244 0.070601 0.0
-0.010128 0.075545 0.0
-0.014218 0.077217 0.0
-0.018380 0.077709 0.0
-0.022567 0.077835 0.0
-0.026770 0.077863 0.0
-0.030991 0.077869 0.0
-0.035236 0.077872 0.0
-0.039514 0.077877 0.0
-0.043835 0.077888 0.0
-0.048213 0.077903 0.0
-0.052663 0.077923 0.0
-0.057204 0.077943 0.0
-0.061857 0.077959 0.0
-0.066644 0.077961 0.0
-0.071593 0.077939 0.0
-0.076734 0.077874 0.0
-0.082101 0.077747 0.0
-0.087731 0.077527 0.0
-0.093664 0.077179 0.0
-0.099943 0.076658 0.0
-0.106617 0.075905 0.0
-0.113734 0.074848 0.0
-0.121343 0.073399 0.0
-0.129493 0.071446 0.0
-0.138229 0.068853 0.0
-0.147586 0.065455 0.0
-0.157581 0.061051 0.0
-0.168209 0.055398 0.0
-0.179420 0.048210 0.0
-0.191111 0.039151 0.0
-0.203092 0.027840 0.0
-0.215065 0.013857 0.0
-0.226581 -0.003234 0.0
-0.236998 -0.023867 0.0
-0.245459 -0.048369 0.0
-0.250860 -0.076919 0.0
-0.251856 -0.109373 0.0
-0.246935 -0.145084 0.0
-0.234588 -0.182661 0.0
-0.213602 -0.219713 0.0
-0.183530 -0.252628 0.0
-0.145343 -0.276526 0.0
-0.102191 -0.285596 0.0
-0.059837 -0.274169 0.0
-0.025742 -0.238323 0.0
-0.005731 -0.175007 0.0
0.000137 -0.074052 0.0
-0.000688 0.030686 0.0
-0.002859 0.060894 0.0
-0.006208 0.074334 0.0
-0.010098 0.079586 0.0
-0.014196 0.081365 0.0
-0.018365 0.081891 0.0
-0.022556 0.082032 0.0
-0.026760 0.082073 0.0
-0.030978 0.082097 0.0
-0.035216 0.082127 0.0
-0.039484 0.082169 0.0
-0.043794 0.082228 0.0
-0.048159 0.082307 0.0
-0.052598 0.082408 0.0
-0.057131 0.082531 0.0
-0.061780 0.082672 0.0
-0.066573 0.082828 0.0
-0.071541 0.082989 0.0
-0.076718 0.083142 0.0
-0.082144 0.083271 0.0
-0.087863 0.083351 0.0
-0.093925 0.083350 0.0
-0.100384 0.083226 0.0
-0.107300 0.082927 0.0
-0.114740 0.082383 0.0
-0.122773 0.081507 0.0
-0.131473 0.080188 0.0
-0.140914 0.078288 0.0
-0.151167 0.075630 0.0
-0.162294 0.071998 0.0
-0.174337 0.067121 0.0
-0.187305 0.060666 0.0
-0.201151 0.052230 0.0
-0.215744 0.041334 0.0
-0.230830 0.027421 0.0
-0.245979 0.009866 0.0
-0.260544 -0.011986 0.0
-0.273559 -0.038773 0.0
-0.283703 -0.070970 0.0
-0.289294 -0.108735 0.0
-0.288319 -0.151618 0.0
-0.278588 -0.198205 0.0
-0.258032 -0.245711 0.0
-0.225223 -0.289510 0.0
-0.180314 -0.322740 0.0
-0.126429 -0.336421 0.0
-0.071051 -0.321076 0.0
-0.025866 -0.270696 0.0
-0.001808 -0.186703 0.0
0.001941 -0.071974 0.0
-0.000675 0.032049 0.0
-0.002827 0.063852 0.0
-0.006171 0.078069 0.0
-0.010066 0.083636 0.0
-0.014172 0.085521 0.0
-0.018346 0.086077 0.0
-0.022538 0.086228 0.0
-0.026737 0.086279 0.0
-0.030944 0.086317 0.0
-0.035166 0.086368 0.0
-0.039413 0.086442 0.0
-0.043696 0.086548 0.0
-0.048032 0.086689 0.0
-0.052440 0.086872 0.0
-0.056940 0.087100 0.0
-0.061560 0.087372 0.0
-0.066328 0.087689 0.0
-0.071279 0.088046 0.0
-0.076452 0.088436 0.0
-0.081893 0.088845 0.0
-0.087652 0.089256 0.0
-0.093788 0.089643 0.0
-0.100366 0.089971 0.0
-0.107461 0.090193 0.0
-0.115154 0.090249 0.0
-0.123537 0.090057 0.0
-0.132712 0.089512 0.0
-0.142787 0.088479 0.0
-0.153875 0.086781 0.0
-0.166091 0.084191 0.0
-0.179541 0.080422 0.0
-0.194311 0.075103 0.0
-0.210443 0.067771 0.0
-0.227902 0.057847 0.0
-0.246536 0.044627 0.0
-0.266000 0.027275 0.0
-0.285675 0.004845 0.0
-0.304593 -0.023671 0.0
-0.321322 -0.059198 0.0
-0.333902 -0.102336 0.0
-0.339868 -0.153026 0.0
-0.336287 -0.210109 0.0
-0.319887 -0.270764 0.0
-0.287551 -0.329601 0.0
-0.237615 -0.377494 0.0
-0.172053 -0.401114 0.0
-0.099007 -0.384807 0.0
-0.034634 -0.316523 0.0
0.000558 -0.200125 0.0
0.004145 -0.065887 0.0
-0.000662 0.033387 0.0
-0.002795 0.066798 0.0
-0.006135 0.081807 0.0
-0.010036 0.087694 0.0
-0.014151 0.089684 0.0
-0.018328 0.090266 0.0
-0.022518 0.090421 0.0
-0.026706 0.090474 0.0
-0.030896 0.090518 0.0
-0.035091 0.090584 0.0
-0.039304 0.090685 0.0
-0.043546 0.090831 0.0
-0.047835 0.091031 0.0
-0.052188 0.091292 0.0
-0.056631 0.091623 0.0
-0.061190 0.092028 0.0
-0.065899 0.092510 0.0
-0.070794 0.093071 0.0
-0.075919 0.093709 0.0
-0.081323 0.094417 0.0
-0.087065 0.095185 0.0
-0.093210 0.095995 0.0
-0.099833 0.096821 0.0
-0.107022 0.097627 0.0
-0.114877 0.098363 0.0
-0.123510 0.098960 0.0
-0.133051 0.099325 0.0
-0.143646 0.099334 0.0
-0.155454 0.098821 0.0
-0.168653 0.097565 0.0
-0.183426 0.095271 0.0
-0.199956 0.091553 0.0
-0.218406 0.085902 0.0
-0.238888 0.077657 0.0
-0.261410 0.065972 0.0
-0.285805 0.049789 0.0
-0.311629 0.027831 0.0
-0.338031 -0.001337 0.0
-0.363644 -0.039190 0.0
-0.386471 -0.086939 0.0
-0.403724 -0.145204 0.0
-0.411596 -0.213640 0.0
-0.405052 -0.290177 0.0
-0.378412 -0.369163 0.0
-0.327371 -0.438908 0.0
-0.251838 -0.480794 0.0
-0.158751 -0.471260 0.0
-0.065844 -0.387349 0.0
-0.005170 -0.225165 0.0
0.006069 -0.055673 0.0
-0.000650 0.034699 0.0
-0.002765 0.069733 0.0
-0.006104 0.085550 0.0
-0.010014 0.091762 0.0
-0.014137 0.093853 0.0
-0.018318 0.094455 0.0
-0.022503 0.094606 0.0
-0.026677 0.094651 0.0
-0.030840 0.094693 0.0
-0.035000 0.094765 0.0
-0.039166 0.094883 0.0
-0.043351 0.095060 0.0
-0.047571 0.095310 0.0
-0.051848 0.095643 0.0
-0.056205 0.096072 0.0
-0.060672 0.096605 0.0
-0.065284 0.097252 0.0
-0.070080 0.098020 0.0
-0.075106 0.098912 0.0
-0.080417 0.099930 0.0
-0.086075 0.101072 0.0
-0.092152 0.102330 0.0
-0.098734 0.103691 0.0
-0.105919 0.105131 0.0
-0.113821 0.106616 0.0
-0.122575 0.108095 0.0
-0.132338 0.109494 0.0
-0.143291 0.110713 0.0
-0.155644 0.111606 0.0
-0.169641 0.111975 0.0
-0.185553 0.111546 0.0
-0.203680 0.109937 0.0
-0.224340 0.106629 0.0
-0.247838 0.100911 0.0
-0.274427 0.091830 0.0
-0.304233 0.078131 0.0
-0.337147 0.058228 0.0
-0.372704 0.030225 0.0