# vtk DataFile Version 3.0
Scalar Field
ASCII
DATASET RECTILINEAR_GRID
DIMENSIONS 50 50 1
X_COORDINATES 50 double
0.100000 0.300000 0.500000 0.700000 0.900000 1.100000 1.300000 1.500000 1.700000 1.900000 2.100000 2.300000 2.500000 2.700000 2.900000 3.100000 3.300000 3.500000 3.700000 3.900000 4.100000 4.300000 4.500000 4.700000 4.900000 5.100000 5.300000 5.500000 5.700000 5.900000 6.100000 6.300000 6.500000 6.700000 6.900000 7.100000 7.300000 7.500000 7.700000 7.900000 8.100000 8.300000 8.500000 8.700000 8.900000 9.100000 9.300000 9.500000 9.700000 9.900000 
Y_COORDINATES 50 double
0.100000 0.300000 0.500000 0.700000 0.900000 1.100000 1.300000 1.500000 1.700000 1.900000 2.100000 2.300000 2.500000 2.700000 2.900000 3.100000 3.300000 3.500000 3.700000 3.900000 4.100000 4.300000 4.500000 4.700000 4.900000 5.100000 5.300000 5.500000 5.700000 5.900000 6.100000 6.300000 6.500000 6.700000 6.900000 7.100000 7.300000 7.500000 7.700000 7.900000 8.100000 8.300000 8.500000 8.700000 8.900000 9.100000 9.300000 9.500000 9.700000 9.900000 
Z_COORDINATES 1 double
0.0
POINT_DATA 2500
SCALARS Skalarfeld double 1
LOOKUP_TABLE default
-0.020182
-0.020207
-0.020188
-0.020118
-0.019996
-0.019823
-0.019597
-0.019321
-0.018992
-0.018613
-0.018181
-0.017698
-0.017164
-0.016579
-0.015944
-0.015258
-0.014524
-0.013741
-0.012911
-0.012036
-0.011117
-0.010157
-0.009157
-0.008121
-0.007052
-0.005953
-0.004829
-0.003683
-0.002521
-0.001348
-0.000170
0.001008
0.002178
0.003333
0.004468
0.005573
0.006641
0.007665
0.008637
0.009549
0.010394
0.011164
0.011853
0.012455
0.012964
0.013375
0.013684
0.013887
0.013984
0.013984
-0.020157
-0.020182
-0.020161
-0.020090
-0.019968
-0.019795
-0.019571
-0.019296
-0.018969
-0.018591
-0.018161
-0.017681
-0.017149
-0.016566
-0.015933
-0.015250
-0.014518
-0.013738
-0.012911
-0.012038
-0.011122
-0.010164
-0.009167
-0.008133
-0.007065
-0.005968
-0.004846
-0.003701
-0.002540
-0.001368
-0.000190
0.000987
0.002157
0.003312
0.004447
0.005553
0.006622
0.007647
0.008620
0.009533
0.010380
0.011152
0.011842
0.012445
0.012955
0.013368
0.013678
0.013883
0.013983
0.013983
-0.020179
-0.020208
-0.020186
-0.020115
-0.019994
-0.019822
-0.019599
-0.019325
-0.019000
-0.018624
-0.018196
-0.017717
-0.017187
-0.016606
-0.015975
-0.015293
-0.014563
-0.013784
-0.012958
-0.012086
-0.011170
-0.010212
-0.009214
-0.008179
-0.007110
-0.006011
-0.004885
-0.003737
-0.002572
-0.001395
-0.000212
0.000971
0.002147
0.003310
0.004452
0.005566
0.006644
0.007677
0.008659
0.009581
0.010435
0.011215
0.011912
0.012522
0.013038
0.013455
0.013769
0.013977
0.014079
0.014075
-0.020256
-0.020287
-0.020267
-0.020197
-0.020076
-0.019905
-0.019684
-0.019411
-0.019088
-0.018713
-0.018286
-0.017809
-0.017280
-0.016700
-0.016070
-0.015389
-0.014658
-0.013879
-0.013052
-0.012179
-0.011261
-0.010300
-0.009299
-0.008260
-0.007186
-0.006080
-0.004948
-0.003792
-0.002617
-0.001430
-0.000235
0.000960
0.002150
0.003327
0.004484
0.005613
0.006706
0.007755
0.008753
0.009690
0.010559
0.011353
0.012064
0.012685
0.013211
0.013637
0.013958
0.014171
0.014274
0.014268
-0.020389
-0.020422
-0.020403
-0.020334
-0.020215
-0.020045
-0.019825
-0.019554
-0.019231
-0.018858
-0.018433
-0.017956
-0.017428
-0.016849
-0.016218
-0.015537
-0.014805
-0.014025
-0.013195
-0.012319
-0.011397
-0.010431
-0.009423
-0.008377
-0.007294
-0.006178
-0.005034
-0.003865
-0.002676
-0.001472
-0.000261
0.000954
0.002163
0.003361
0.004540
0.005692
0.006808
0.007881
0.008901
0.009861
0.010753
0.011567
0.012297
0.012936
0.013477
0.013915
0.014245
0.014465
0.014571
0.014566
-0.020580
-0.020613
-0.020596
-0.020528
-0.020410
-0.020242
-0.020023
-0.019753
-0.019432
-0.019059
-0.018635
-0.018159
-0.017631
-0.017052
-0.016420
-0.015738
-0.015004
-0.014221
-0.013388
-0.012506
-0.011578
-0.010604
-0.009588
-0.008530
-0.007435
-0.006305
-0.005145
-0.003958
-0.002749
-0.001524
-0.000289
0.000950
0.002187
0.003413
0.004621
0.005803
0.006950
0.008054
0.009106
0.010096
0.011016
0.011858
0.012614
0.013276
0.013837
0.014291
0.014635
0.014863
0.014974
0.014969
-0.020826
-0.020861
-0.020845
-0.020778
-0.020662
-0.020495
-0.020277
-0.020009
-0.019689
-0.019317
-0.018894
-0.018418
-0.017890
-0.017310
-0.016678
-0.015993
-0.015256
-0.014469
-0.013630
-0.012742
-0.011805
-0.010822
-0.009793
-0.008722
-0.007611
-0.006464
-0.005283
-0.004074
-0.002840
-0.001588
-0.000323
0.000948
0.002218
0.003480
0.004725
0.005946
0.007132
0.008275
0.009365
0.010394
0.011351
0.012228
0.013016
0.013707
0.014294
0.014769
0.015129
0.015368
0.015486
0.015482
-0.021128
-0.021165
-0.021150
-0.021085
-0.020970
-0.020805
-0.020589
-0.020322
-0.020003
-0.019632
-0.019209
-0.018734
-0.018206
-0.017625
-0.016991
-0.016303
-0.015563
-0.014770
-0.013925
-0.013028
-0.012082
-0.011086
-0.010043
-0.008956
-0.007826
-0.006656
-0.005451
-0.004214
-0.002951
-0.001666
-0.000365
0.000944
0.002256
0.003561
0.004851
0.006118
0.007352
0.008543
0.009681
0.010757
0.011759
0.012679
0.013507
0.014233
0.014851
0.015353
0.015733
0.015986
0.016111
0.016108
-0.021487
-0.021526
-0.021513
-0.021449
-0.021336
-0.021172
-0.020958
-0.020692
-0.020375
-0.020005
-0.019583
-0.019108
-0.018580
-0.017997
-0.017361
-0.016670
-0.015925
-0.015126
-0.014273
-0.013367
-0.012409
-0.011399
-0.010340
-0.009233
-0.008081
-0.006886
-0.005653
-0.004384
-0.003085
-0.001761
-0.000418
0.000937
0.002296
0.003652
0.004996
0.006319
0.007609
0.008857
0.010053
0.011185
0.012242
0.013213
0.014089
0.014859
0.015514
0.016047
0.016452
0.016722
0.016856
0.016855
-0.021903
-0.021943
-0.021932
-0.021870
-0.021759
-0.021597
-0.021385
-0.021121
-0.020805
-0.020437
-0.020016
-0.019541
-0.019012
-0.018428
-0.017790
-0.017095
-0.016345
-0.015540
-0.014678
-0.013761
-0.012790
-0.011765
-0.010687
-0.009558
-0.008381
-0.007157
-0.005891
-0.004586
-0.003246
-0.001878
-0.000486
0.000921
0.002337
0.003752
0.005159
0.006546
0.007902
0.009218
0.010481
0.011679
0.012800
0.013833
0.014765
0.015587
0.016287
0.016858
0.017292
0.017583
0.017728
0.017729
-0.022375
-0.022417
-0.022408
-0.022349
-0.022240
-0.022080
-0.021870
-0.021609
-0.021295
-0.020928
-0.020508
-0.020034
-0.019505
-0.018920
-0.018279
-0.017581
-0.016825
-0.016013
-0.015142
-0.014214
-0.013228
-0.012185
-0.011087
-0.009934
-0.008729
-0.007473
-0.006171
-0.004824
-0.003439
-0.002020
-0.000574
0.000893
0.002373
0.003857
0.005335
0.006796
0.008230
0.009624
0.010965
0.012241
0.013438
0.014542
0.015541
0.016424
0.017177
0.017793
0.018261
0.018576
0.018735
0.018739
-0.022904
-0.022948
-0.022942
-0.022885
-0.022779
-0.022622
-0.022415
-0.022155
-0.021844
-0.021479
-0.021061
-0.020588
-0.020059
-0.019473
-0.018830
-0.018128
-0.017368
-0.016548
-0.015668
-0.014727
-0.013726
-0.012665
-0.011545
-0.010366
-0.009130
-0.007840
-0.006497
-0.005105
-0.003670
-0.002195
-0.000687
0.000848
0.002400
0.003961
0.005521
0.007068
0.008590
0.010074
0.011506
0.012871
0.014156
0.015344
0.016422
0.017375
0.018191
0.018859
0.019368
0.019712
0.019887
0.019894
-0.023490
-0.023537
-0.023533
-0.023480
-0.023376
-0.023223
-0.023018
-0.022762
-0.022454
-0.022092
-0.021676
-0.021204
-0.020676
-0.020090
-0.019445
-0.018740
-0.017975
-0.017148
-0.016258
-0.015305
-0.014289
-0.013209
-0.012065
-0.010859
-0.009590
-0.008262
-0.006876
-0.005435
-0.003944
-0.002407
-0.000831
0.000778
0.002412
0.004060
0.005712
0.007356
0.008979
0.010566
0.012102
0.013571
0.014957
0.016242
0.017411
0.018448
0.019337
0.020067
0.020624
0.021002
0.021196
0.021207
-0.024134
-0.024184
-0.024183
-0.024133
-0.024033
-0.023883
-0.023682
-0.023430
-0.023125
-0.022767
-0.022354
-0.021884
-0.021357
-0.020772
-0.020126
-0.019420
-0.018650
-0.017816
-0.016917
-0.015952
-0.014920
-0.013821
-0.012653
-0.011418
-0.010115
-0.008747
-0.007314
-0.005821
-0.004269
-0.002665
-0.001013
0.000678
0.002401
0.004146
0.005902
0.007655
0.009392
0.011097
0.012752
0.014341
0.015844
0.017242
0.018517
0.019650
0.020626
0.021427
0.022041
0.022459
0.022675
0.022691
-0.024835
-0.024889
-0.024892
-0.024845
-0.024749
-0.024603
-0.024407
-0.024160
-0.023859
-0.023505
-0.023096
-0.022630
-0.022106
-0.021522
-0.020877
-0.020168
-0.019395
-0.018556
-0.017649
-0.016672
-0.015625
-0.014506
-0.013314
-0.012049
-0.010712
-0.009301
-0.007820
-0.006270
-0.004654
-0.002977
-0.001244
0.000538
0.002360
0.004213
0.006084
0.007960
0.009826
0.011664
0.013455
0.015180
0.016818
0.018347
0.019745
0.020991
0.022066
0.022952
0.023633
0.024098
0.024340
0.024363
-0.025595
-0.025652
-0.025659
-0.025616
-0.025525
-0.025384
-0.025193
-0.024951
-0.024656
-0.024308
-0.023903
-0.023442
-0.022922
-0.022341
-0.021698
-0.020989
-0.020215
-0.019371
-0.018457
-0.017470
-0.016408
-0.015270
-0.014055
-0.012761
-0.011387
-0.009934
-0.008402
-0.006792
-0.005108
-0.003353
-0.001532
0.000348
0.002279
0.004250
0.006249
0.008262
0.010273
0.012261
0.014207
0.016089
0.017882
0.019561
0.021102
0.022480
0.023673
0.024657
0.025417
0.025936
0.026210
0.026240
-0.026413
-0.026474
-0.026485
-0.026447
-0.026361
-0.026226
-0.026042
-0.025806
-0.025518
-0.025176
-0.024778
-0.024323
-0.023808
-0.023232
-0.022592
-0.021886
-0.021111
-0.020265
-0.019346
-0.018350
-0.017276
-0.016120
-0.014882
-0.013559
-0.012149
-0.010653
-0.009069
-0.007398
-0.005642
-0.003804
-0.001890
0.000096
0.002145
0.004246
0.006387
0.008552
0.010725
0.012883
0.015005
0.017065
0.019036
0.020890
0.022597
0.024129
0.025458
0.026559
0.027411
0.027996
0.028307
0.028346
-0.027289
-0.027355
-0.027371
-0.027338
-0.027258
-0.027130
-0.026952
-0.026724
-0.026444
-0.026110
-0.025720
-0.025273
-0.024766
-0.024196
-0.023562
-0.022860
-0.022088
-0.021242
-0.020319
-0.019317
-0.018233
-0.017062
-0.015803
-0.014452
-0.013008
-0.011468
-0.009832
-0.008099
-0.006269
-0.004345
-0.002331
-0.000232
0.001944
0.004186
0.006483
0.008817
0.011171
0.013521
0.015842
0.018106
0.020282
0.022337
0.024237
0.025949
0.027439
0.028677
0.029637
0.030300
0.030655
0.030705
-0.028225
-0.028295
-0.028316
-0.028289
-0.028216
-0.028096
-0.027926
-0.027707
-0.027436
-0.027112
-0.026732
-0.026295
-0.025797
-0.025237
-0.024611
-0.023915
-0.023148
-0.022305
-0.021383
-0.020377
-0.019285
-0.018102
-0.016825
-0.015450
-0.013973
-0.012392
-0.010704
-0.008907
-0.007002
-0.004989
-0.002871
-0.000652
0.001659
0.004055
0.006521
0.009042
0.011597
0.014162
0.016709
0.019206
0.021618
0.023906
0.026031
0.027953
0.029632
0.031033
0.032122
0.032877
0.033285
0.033349
-0.029219
-0.029294
-0.029321
-0.029301
-0.029236
-0.029124
-0.028964
-0.028755
-0.028495
-0.028183
-0.027815
-0.027390
-0.026904
-0.026355
-0.025740
-0.025055
-0.024296
-0.023459
-0.022541
-0.021536
-0.020440
-0.019249
-0.017957
-0.016560
-0.015054
-0.013434
-0.011696
-0.009838
-0.007858
-0.005754
-0.003528
-0.001184
0.001272
0.003832
0.006483
0.009209
0.011987
0.014793
0.017596
0.020358
0.023041
0.025600
0.027987
0.030156
0.032059
0.033652
0.034895
0.035760
0.036231
0.036312
-0.030272
-0.030353
-0.030386
-0.030373
-0.030317
-0.030214
-0.030065
-0.029868
-0.029621
-0.029322
-0.028969
-0.028558
-0.028087
-0.027553
-0.026952
-0.026281
-0.025534
-0.024708
-0.023797
-0.022797
-0.021703
-0.020508
-0.019207
-0.017793
-0.016262
-0.014608
-0.012824
-0.010907
-0.008852
-0.006658
-0.004323
-0.001849
0.000759
0.003494
0.006345
0.009293
0.012319
0.015394
0.018485
0.021550
0.024545
0.027418
0.030113
0.032573
0.034741
0.036563
0.037991
0.038988
0.039535
0.039637
-0.031384
-0.031471
-0.031511
-0.031507
-0.031459
-0.031368
-0.031231
-0.031048
-0.030815
-0.030532
-0.030195
-0.029802
-0.029349
-0.028833
-0.028250
-0.027595
-0.026865
-0.026055
-0.025157
-0.024168
-0.023080
-0.021887
-0.020583
-0.019159
-0.017610
-0.015926
-0.014102
-0.012131
-0.010006
-0.007722
-0.005278
-0.002672
0.000094
0.003013
0.006077
0.009268
0.012565
0.015940
0.019355
0.022766
0.026120
0.029358
0.032414
0.035219
0.037704
0.039800
0.041450
0.042606
0.043245
0.043373
-0.032556
-0.032649
-0.032696
-0.032701
-0.032664
-0.032585
-0.032462
-0.032293
-0.032078
-0.031812
-0.031495
-0.031121
-0.030690
-0.030195
-0.029634
-0.029002
-0.028293
-0.027503
-0.026625
-0.025652
-0.024578
-0.023395
-0.022094
-0.020668
-0.019108
-0.017404
-0.015546
-0.013528
-0.011339
-0.008971
-0.006420
-0.003681
-0.000755
0.002357
0.005645
0.009098
0.012692
0.016399
0.020179
0.023983
0.027751
0.031415
0.034896
0.038110
0.040973
0.043401
0.045319
0.046668
0.047420
0.047581
-0.033786
-0.033887
-0.033942
-0.033956
-0.033931
-0.033865
-0.033757
-0.033606
-0.033409
-0.033164
-0.032868
-0.032518
-0.032111
-0.031642
-0.031107
-0.030502
-0.029820
-0.029057
-0.028204
-0.027255
-0.026203
-0.025037
-0.023750
-0.022330
-0.020769
-0.019054
-0.017174
-0.015117
-0.012873
-0.010429
-0.007777
-0.004910
-0.001823
0.001485
0.005010
0.008740
0.012656
0.016729
0.020917
0.025168
0.029413
0.033574
0.037556
0.041260
0.044578
0.047408
0.049653
0.051240
0.052129
0.052331
-0.035076
-0.035184
-0.035248
-0.035273
-0.035260
-0.035208
-0.035117
-0.034985
-0.034808
-0.034586
-0.034315
-0.033991
-0.033612
-0.033174
-0.032670
-0.032097
-0.031448
-0.030718
-0.029898
-0.028981
-0.027959
-0.026821
-0.025557
-0.024156
-0.022605
-0.020891
-0.019001
-0.016920
-0.014633
-0.012125
-0.009382
-0.006394
-0.003150
0.000355
0.004122
0.008144
0.012406
0.016878
0.021522
0.026278
0.031073
0.035813
0.040389
0.044679
0.048550
0.051870
0.054517
0.056397
0.057457
0.057709
-0.036425
-0.036542
-0.036615
-0.036651
-0.036651
-0.036615
-0.036542
-0.036430
-0.036277
-0.036079
-0.035836
-0.035542
-0.035195
-0.034791
-0.034323
-0.033788
-0.033179
-0.032489
-0.031710
-0.030834
-0.029851
-0.028752
-0.027523
-0.026153
-0.024627
-0.022930
-0.021045
-0.018955
-0.016642
-0.014087
-0.011269
-0.008172
-0.004782
-0.001085
0.002925
0.007249
0.011875
0.016781
0.021927
0.027253
0.032678
0.038096
0.043378
0.048373
0.052917
0.056841
0.059988
0.062231
0.063503
0.063820
-0.037834
-0.037959
-0.038042
-0.038090
-0.038105
-0.038086
-0.038032
-0.037942
-0.037813
-0.037644
-0.037431
-0.037170
-0.036859
-0.036493
-0.036067
-0.035576
-0.035012
-0.034370
-0.033641
-0.032815
-0.031884
-0.030834
-0.029655
-0.028330
-0.026845
-0.025183
-0.023323
-0.021245
-0.018927
-0.016345
-0.013473
-0.010289
-0.006769
-0.002894
0.001353
0.005980
0.010985
0.016354
0.022049
0.028014
0.034160
0.040368
0.046488
0.052336
0.057706
0.062381
0.066152
0.068853
0.070393
0.070791
-0.039303
-0.039437
-0.039531
-0.039591
-0.039621
-0.039620
-0.039587
-0.039520
-0.039418
-0.039279
-0.039099
-0.038875
-0.038604
-0.038281
-0.037901
-0.037459
-0.036949
-0.036362
-0.035692
-0.034927
-0.034058
-0.033073
-0.031957
-0.030695
-0.029270
-0.027662
-0.025849
-0.023808
-0.021511
-0.018930
-0.016035
-0.012790
-0.009168
-0.005137
-0.000671
0.004251
0.009640
0.015492
0.021780
0.028451
0.035416
0.042546
0.049663
0.056547
0.062937
0.068551
0.073114
0.076396
0.078277
0.078780
-0.040833
-0.040977
-0.041081
-0.041154
-0.041200
-0.041217
-0.041206
-0.041165
-0.041091
-0.040983
-0.040839
-0.040655
-0.040427
-0.040151
-0.039824
-0.039438
-0.038987
-0.038465
-0.037862
-0.037169
-0.036376
-0.035468
-0.034432
-0.033252
-0.031907
-0.030378
-0.028638
-0.026662
-0.024418
-0.021873
-0.018990
-0.015723
-0.012036
-0.007886
-0.003232
0.001962
0.007724
0.014066
0.020980
0.028422
0.036309
0.044504
0.052807
0.060951
0.068609
0.075413
0.080989
0.085022
0.087342
0.087981
-0.042424
-0.042579
-0.042694
-0.042780
-0.042842
-0.042879
-0.042890
-0.042875
-0.042831
-0.042757
-0.042651
-0.042509
-0.042328
-0.042104
-0.041833
-0.041509
-0.041125
-0.040675
-0.040150
-0.039540
-0.038835
-0.038020
-0.037082
-0.036002
-0.034762
-0.033336
-0.031700
-0.029823
-0.027669
-0.025201
-0.022374
-0.019136
-0.015435
-0.011217
-0.006424
-0.001002
0.005101
0.011921
0.019473
0.027738
0.036646
0.046062
0.055767
0.065447
0.074692
0.083016
0.089908
0.094925
0.097820
0.098638
-0.044079
-0.044244
-0.044371
-0.044471
-0.044549
-0.044605
-0.044639
-0.044650
-0.044637
-0.044598
-0.044532
-0.044435
-0.044304
-0.044136
-0.043926
-0.043669
-0.043359
-0.042990
-0.042552
-0.042037
-0.041433
-0.040727
-0.039904
-0.038946
-0.037834
-0.036541
-0.035041
-0.033300
-0.031280
-0.028937
-0.026221
-0.023074
-0.019425
-0.015209
-0.010349
-0.004767
0.001616
0.008868
0.017042
0.026153
0.036164
0.046957
0.058306
0.069853
0.081090
0.091377
0.100006
0.106337
0.110001
0.111058
-0.045799
-0.045977
-0.046115
-0.046228
-0.046321
-0.046396
-0.046453
-0.046491
-0.046509
-0.046506
-0.046481
-0.046430
-0.046352
-0.046243
-0.046099
-0.045915
-0.045685
-0.045404
-0.045063
-0.044653
-0.044163
-0.043581
-0.042893
-0.042079
-0.041120
-0.039991
-0.038662
-0.037099
-0.035261
-0.033099
-0.030558
-0.027572
-0.024062
-0.019939
-0.015110
-0.009470
-0.002908
0.004688
0.013418
0.023352
0.034507
0.046811
0.060057
0.073856
0.087597
0.100442
0.111400
0.119525
0.124247
0.125637
-0.047590
-0.047780
-0.047929
-0.048054
-0.048162
-0.048255
-0.048333
-0.048397
-0.048446
-0.048479
-0.048495
-0.048493
-0.048469
-0.048422
-0.048347
-0.048240
-0.048097
-0.047910
-0.047674
-0.047380
-0.047018
-0.046576
-0.046040
-0.045392
-0.044613
-0.043678
-0.042558
-0.041217
-0.039613
-0.037695
-0.035402
-0.032663
-0.029391
-0.025476
-0.020807
-0.015250
-0.008657
-0.000867
0.008283
0.018940
0.031206
0.045094
0.060462
0.076932
0.093804
0.110001
0.124135
0.134778
0.141010
0.142897
-0.049454
-0.049658
-0.049818
-0.049953
-0.050074
-0.050182
-0.050280
-0.050368
-0.050447
-0.050515
-0.050573
-0.050618
-0.050650
-0.050667
-0.050664
-0.050638
-0.050586
-0.050501
-0.050378
-0.050210
-0.049987
-0.049698
-0.049332
-0.048872
-0.048299
-0.047589
-0.046716
-0.045643
-0.044329
-0.042722
-0.040758
-0.038361
-0.035437
-0.031876
-0.027526
-0.022237
-0.015821
-0.008063
0.001275
0.012438
0.025651
0.041068
0.058685
0.078217
0.098937
0.119523
0.138052
0.152341
0.160842
0.163563
-0.051402
-0.051619
-0.051788
-0.051931
-0.052061
-0.052183
-0.052297
-0.052406
-0.052511
-0.052612
-0.052710
-0.052804
-0.052891
-0.052972
-0.053043
-0.053102
-0.053144
-0.053166
-0.053163
-0.053128
-0.053054
-0.052933
-0.052752
-0.052499
-0.052157
-0.051704
-0.051115
-0.050356
-0.049388
-0.048161
-0.046611
-0.044661
-0.042215
-0.039153
-0.035327
-0.030537
-0.024571
-0.017161
-0.007992
0.003298
0.017090
0.033746
0.053505
0.076317
0.101580
0.127822
0.152482
0.172236
0.184383
0.188718
-0.053441
-0.053674
-0.053848
-0.053996
-0.054131
-0.054259
-0.054385
-0.054511
-0.054638
-0.054769
-0.054904
-0.055044
-0.055186
-0.055331
-0.055477
-0.055621
-0.055761
-0.055893
-0.056015
-0.056120
-0.056205
-0.056261
-0.056280
-0.056252
-0.056162
-0.055993
-0.055723
-0.055322
-0.054756
-0.053978
-0.052929
-0.051535
-0.049703
-0.047311
-0.044209
-0.040205
-0.035034
-0.028389
-0.019893
-0.009068
0.004643
0.021865
0.043200
0.069038
0.099203
0.132377
0.165500
0.193726
0.212242
0.220040
-0.055587
-0.055835
-0.056013
-0.056158
-0.056290
-0.056419
-0.056548
-0.056683
-0.056828
-0.056983
-0.057152
-0.057334
-0.057529
-0.057737
-0.057957
-0.058186
-0.058425
-0.058670
-0.058919
-0.059169
-0.059418
-0.059660
-0.059890
-0.060100
-0.060282
-0.060420
-0.060500
-0.060497
-0.060383
-0.060119
-0.059654
-0.058923
-0.057841
-0.056298
-0.054149
-0.051207
-0.047230
-0.041884
-0.034722
-0.025199
-0.012616
0.003931
0.025482
0.053093
0.087439
0.128037
0.172105
0.213553
0.244010
0.259080
-0.057860
-0.058123
-0.058298
-0.058432
-0.058551
-0.058668
-0.058791
-0.058926
-0.059079
-0.059252
-0.059448
-0.059668
-0.059912
-0.060180
-0.060472
-0.060786
-0.061123
-0.061480
-0.061858
-0.062256
-0.062672
-0.063105
-0.063553
-0.064012
-0.064478
-0.064943
-0.065396
-0.065824
-0.066204
-0.066510
-0.066703
-0.066733
-0.066531
-0.066007
-0.065038
-0.063463
-0.061066
-0.057553
-0.052536
-0.045452
-0.035486
-0.021590
-0.002387
0.023918
0.059221
0.104831
0.160197
0.220334
0.272406
0.300406
-0.060288
-0.060567
-0.060728
-0.060837
-0.060927
-0.061017
-0.061119
-0.061241
-0.061391
-0.061572
-0.061788
-0.062039
-0.062328
-0.062652
-0.063013
-0.063409
-0.063841
-0.064310
-0.064815
-0.065359
-0.065943
-0.066568
-0.067236
-0.067949
-0.068707
-0.069509
-0.070353
-0.071233
-0.072140
-0.073059
-0.073969
-0.074840
-0.075626
-0.076269
-0.076686
-0.076762
-0.076343
-0.075216
-0.073088
-0.069551
-0.064051
-0.055726
-0.043115
-0.023981
0.004448
0.045926
0.105349
0.184786
0.268293
0.315183
-0.062912
-0.063204
-0.063338
-0.063399
-0.063437
-0.063478
-0.063538
-0.063630
-0.063761
-0.063939
-0.064165
-0.064440
-0.064766
-0.065142
-0.065567
-0.066041
-0.066566
-0.067142
-0.067771
-0.068458
-0.069206
-0.070020
-0.070906
-0.071872
-0.072922
-0.074064
-0.075305
-0.076648
-0.078099
-0.079657
-0.081321
-0.083086
-0.084939
-0.086859
-0.088818
-0.090773
-0.092664
-0.094414
-0.095923
-0.097069
-0.097708
-0.097668
-0.096757
-0.094451
-0.087813
-0.069024
-0.024428
0.064986
0.182660
0.253999
-0.065790
-0.066092
-0.066173
-0.066154
-0.066105
-0.066064
-0.066054
-0.066092
-0.066187
-0.066346
-0.066571
-0.066862
-0.067218
-0.067639
-0.068123
-0.068670
-0.069282
-0.069959
-0.070707
-0.071529
-0.072434
-0.073430
-0.074527
-0.075737
-0.077073
-0.078549
-0.080181
-0.081985
-0.083979
-0.086181
-0.088612
-0.091292
-0.094245
-0.097498
-0.101085
-0.105051
-0.109459
-0.114414
-0.120091
-0.126807
-0.135144
-0.146184
-0.161874
-0.184996
-0.216583
-0.246666
-0.240590
-0.155514
-0.008416
0.091385
-0.069008
-0.069312
-0.069299
-0.069147
-0.068959
-0.068791
-0.068673
-0.068626
-0.068662
-0.068785
-0.068996
-0.069293
-0.069672
-0.070132
-0.070669
-0.071283
-0.071974
-0.072746
-0.073602
-0.074552
-0.075603
-0.076768
-0.078063
-0.079503
-0.081109
-0.082902
-0.084908
-0.087155
-0.089675
-0.092503
-0.095682
-0.099261
-0.103300
-0.107875
-0.113087
-0.119072
-0.126029
-0.134263
-0.144270
-0.156896
-0.173661
-0.197400
-0.233289
-0.289120
-0.369831
-0.460571
-0.507661
-0.439186
-0.273018
-0.146065
-0.072699
-0.072986
-0.072808
-0.072438
-0.072033
-0.071670
-0.071394
-0.071226
-0.071175
-0.071243
-0.071427
-0.071719
-0.072115
-0.072606
-0.073191
-0.073865
-0.074629
-0.075485
-0.076441
-0.077504
-0.078687
-0.080005
-0.081478
-0.083127
-0.084979
-0.087063
-0.089415
-0.092073
-0.095082
-0.098495
-0.102374
-0.106796
-0.111854
-0.117671
-0.124406
-0.132283
-0.141622
-0.152911
-0.166934
-0.185031
-0.209613
-0.245212
-0.300146
-0.386948
-0.513836
-0.659417
-0.754068
-0.708802
-0.538051
-0.392042
-0.077072
-0.077301
-0.076830
-0.076101
-0.075358
-0.074711
-0.074210
-0.073875
-0.073708
-0.073702
-0.073846
-0.074126
-0.074531
-0.075051
-0.075676
-0.076404
-0.077232
-0.078164
-0.079206
-0.080367
-0.081664
-0.083113
-0.084739
-0.086570
-0.088636
-0.090976
-0.093633
-0.096655
-0.100099
-0.104033
-0.108537
-0.113710
-0.119673
-0.126586
-0.134656
-0.144170
-0.155539
-0.169377
-0.186657
-0.209016
-0.239379
-0.283170
-0.350191
-0.454949
-0.606837
-0.781950
-0.902147
-0.879868
-0.718525
-0.564300
-0.082476
-0.082555
-0.081548
-0.080222
-0.078960
-0.077904
-0.077098
-0.076545
-0.076232
-0.076135
-0.076230
-0.076494
-0.076906
-0.077450
-0.078113
-0.078889
-0.079773
-0.080769
-0.081882
-0.083125
-0.084513
-0.086068
-0.087818
-0.089795
-0.092037
-0.094588
-0.097499
-0.100826
-0.104637
-0.109010
-0.114040
-0.119842
-0.126557
-0.134368
-0.143516
-0.154322
-0.167243
-0.182943
-0.202449
-0.227439
-0.260810
-0.307716
-0.376913
-0.480422
-0.624402
-0.788181
-0.902667
-0.899622
-0.751160
-0.590883
-0.089547
-0.089241
-0.087206
-0.084875
-0.082828
-0.081207
-0.080007
-0.079190
-0.078705
-0.078508
-0.078552
-0.078799
-0.079219
-0.079788
-0.080487
-0.081305
-0.082238
-0.083286
-0.084455
-0.085758
-0.087213
-0.088844
-0.090683
-0.092767
-0.095139
-0.097849
-0.100954
-0.104517
-0.108615
-0.113333
-0.118775
-0.125064
-0.132355
-0.140841
-0.150774
-0.162488
-0.176441
-0.193285
-0.213991
-0.240081
-0.274055
-0.320093
-0.383736
-0.472192
-0.588091
-0.710168
-0.780552
-0.756966
-0.617381
-0.420485
-0.099568
-0.098210
-0.094091
-0.090065
-0.086871
-0.084520
-0.082842
-0.081722
-0.081052
-0.080753
-0.080751
-0.080989
-0.081421
-0.082017
-0.082751
-0.083608
-0.084581
-0.085668
-0.086875
-0.088216
-0.089710
-0.091382
-0.093270
-0.095416
-0.097867
-0.100679
-0.103914
-0.107642
-0.111942
-0.116907
-0.122644
-0.129280
-0.136974
-0.145919
-0.156366
-0.168641
-0.183182
-0.200593
-0.221741
-0.247925
-0.281156
-0.323550
-0.379060
-0.451084
-0.537068
-0.615225
-0.638001
-0.555493
-0.308471
0.015161
-0.115770
-0.111097
-0.102374
-0.095556
-0.090777
-0.087566
-0.085327
-0.083868
-0.082996
-0.082599
-0.082559
-0.082792
-0.083242
-0.083865
-0.084633
-0.085524
-0.086527
-0.087640
-0.088867
-0.090223
-0.091732
-0.093408
-0.095307
-0.097471
-0.099954
-0.102815
-0.106122
-0.109950
-0.114381
-0.119513
-0.125453
-0.132331
-0.140303
-0.149562
-0.160350
-0.172980
-0.187868
-0.205569
-0.226847
-0.252757
-0.284717
-0.324395
-0.373803
-0.433613
-0.498096
-0.545579
-0.520714
-0.318790
0.211656
0.910731
-0.146466
-0.129630
-0.111676
-0.099807
-0.092658
-0.088513
-0.085568
-0.083837
-0.082925
-0.082504
-0.082481
-0.082762
-0.083276
-0.083971
-0.084811
-0.085770
-0.086833
-0.087996
-0.089262
-0.090645
-0.092169
-0.093862
-0.095771
-0.097947
-0.100450
-0.103344
-0.106702
-0.110604
-0.115137
-0.120400
-0.126505
-0.133580
-0.141783
-0.151304
-0.162383
-0.175329
-0.190547
-0.208575
-0.230127
-0.256141
-0.287784
-0.326265
-0.372392
-0.424611
-0.474299
-0.487782
-0.358019
0.104330
1.171407
2.619522
-0.248372
-0.110906
-0.083349
-0.076143
-0.073669
-0.072806
-0.072506
-0.072693
-0.073231
-0.073974
-0.074893
-0.075956
-0.077129
-0.078389
-0.079716
-0.081097
-0.082528
-0.084010
-0.085554
-0.087180
-0.088915
-0.090796
-0.092871
-0.095199
-0.097842
-0.100872
-0.104365
-0.108407
-0.113089
-0.118514
-0.124797
-0.132071
-0.140494
-0.150262
-0.161618
-0.174875
-0.190445
-0.208865
-0.230839
-0.257246
-0.289072
-0.327003
-0.370282
-0.412500
-0.429844
-0.351628
-0.035261
0.799531
2.491508
4.811131
