# vtk DataFile Version 3.0
Scalar Field
ASCII
DATASET RECTILINEAR_GRID
DIMENSIONS 50 50 1
X_COORDINATES 50 double
0.100000 0.300000 0.500000 0.700000 0.900000 1.100000 1.300000 1.500000 1.700000 1.900000 2.100000 2.300000 2.500000 2.700000 2.900000 3.100000 3.300000 3.500000 3.700000 3.900000 4.100000 4.300000 4.500000 4.700000 4.900000 5.100000 5.300000 5.500000 5.700000 5.900000 6.100000 6.300000 6.500000 6.700000 6.900000 7.100000 7.300000 7.500000 7.700000 7.900000 8.100000 8.300000 8.500000 8.700000 8.900000 9.100000 9.300000 9.500000 9.700000 9.900000 
Y_COORDINATES 50 double
0.100000 0.300000 0.500000 0.700000 0.900000 1.100000 1.300000 1.500000 1.700000 1.900000 2.100000 2.300000 2.500000 2.700000 2.900000 3.100000 3.300000 3.500000 3.700000 3.900000 4.100000 4.300000 4.500000 4.700000 4.900000 5.100000 5.300000 5.500000 5.700000 5.900000 6.100000 6.300000 6.500000 6.700000 6.900000 7.100000 7.300000 7.500000 7.700000 7.900000 8.100000 8.300000 8.500000 8.700000 8.900000 9.100000 9.300000 9.500000 9.700000 9.900000 
Z_COORDINATES 1 double
0.0
POINT_DATA 2500
SCALARS Skalarfeld double 1
LOOKUP_TABLE default
-0.012074
-0.012085
-0.012035
-0.011912
-0.011714
-0.011443
-0.011097
-0.010677
-0.010182
-0.009612
-0.008966
-0.008243
-0.007443
-0.006566
-0.005610
-0.004576
-0.003464
-0.002274
-0.001007
0.000337
0.001756
0.003249
0.004811
0.006442
0.008137
0.009891
0.011699
0.013555
0.015452
0.017382
0.019335
0.021301
0.023270
0.025230
0.027167
0.029068
0.030919
0.032705
0.034411
0.036022
0.037524
0.038902
0.040142
0.041230
0.042157
0.042911
0.043483
0.043868
0.044066
0.044096
-0.012064
-0.012075
-0.012019
-0.011893
-0.011695
-0.011424
-0.011079
-0.010661
-0.010167
-0.009599
-0.008955
-0.008234
-0.007436
-0.006561
-0.005608
-0.004577
-0.003467
-0.002280
-0.001015
0.000326
0.001743
0.003233
0.004793
0.006422
0.008115
0.009867
0.011674
0.013529
0.015426
0.017355
0.019308
0.021275
0.023246
0.025207
0.027146
0.029049
0.030903
0.032692
0.034402
0.036017
0.037522
0.038903
0.040146
0.041238
0.042168
0.042924
0.043500
0.043890
0.044095
0.044125
-0.012118
-0.012134
-0.012079
-0.011953
-0.011755
-0.011484
-0.011141
-0.010724
-0.010233
-0.009667
-0.009025
-0.008307
-0.007512
-0.006639
-0.005689
-0.004660
-0.003552
-0.002367
-0.001103
0.000237
0.001653
0.003143
0.004704
0.006335
0.008030
0.009786
0.011598
0.013459
0.015363
0.017301
0.019264
0.021243
0.023226
0.025201
0.027155
0.029075
0.030945
0.032752
0.034479
0.036111
0.037633
0.039031
0.040289
0.041394
0.042336
0.043103
0.043687
0.044083
0.044290
0.044313
-0.012251
-0.012271
-0.012218
-0.012092
-0.011896
-0.011627
-0.011285
-0.010871
-0.010382
-0.009819
-0.009180
-0.008464
-0.007672
-0.006802
-0.005854
-0.004827
-0.003721
-0.002537
-0.001274
0.000067
0.001485
0.002977
0.004543
0.006179
0.007882
0.009647
0.011470
0.013345
0.015264
0.017219
0.019202
0.021203
0.023210
0.025211
0.027193
0.029142
0.031043
0.032880
0.034639
0.036302
0.037855
0.039281
0.040566
0.041696
0.042659
0.043443
0.044041
0.044446
0.044656
0.044675
-0.012467
-0.012490
-0.012438
-0.012314
-0.012119
-0.011852
-0.011513
-0.011101
-0.010615
-0.010055
-0.009419
-0.008707
-0.007918
-0.007050
-0.006105
-0.005079
-0.003975
-0.002790
-0.001527
-0.000184
0.001238
0.002736
0.004309
0.005954
0.007669
0.009449
0.011289
0.013184
0.015126
0.017108
0.019121
0.021154
0.023196
0.025236
0.027259
0.029250
0.031196
0.033079
0.034883
0.036592
0.038188
0.039656
0.040980
0.042145
0.043138
0.043947
0.044564
0.044982
0.045198
0.045217
-0.012766
-0.012790
-0.012739
-0.012617
-0.012425
-0.012161
-0.011824
-0.011416
-0.010933
-0.010377
-0.009744
-0.009036
-0.008250
-0.007385
-0.006442
-0.005418
-0.004314
-0.003129
-0.001863
-0.000517
0.000910
0.002416
0.003999
0.005658
0.007389
0.009188
0.011052
0.012974
0.014947
0.016964
0.019016
0.021093
0.023183
0.025273
0.027350
0.029398
0.031403
0.033346
0.035210
0.036979
0.038633
0.040157
0.041532
0.042743
0.043777
0.044620
0.045262
0.045698
0.045923
0.045942
-0.013146
-0.013171
-0.013123
-0.013003
-0.012813
-0.012552
-0.012219
-0.011814
-0.011336
-0.010783
-0.010155
-0.009451
-0.008668
-0.007807
-0.006866
-0.005844
-0.004741
-0.003555
-0.002286
-0.000935
0.000499
0.002015
0.003612
0.005287
0.007038
0.008862
0.010755
0.012710
0.014723
0.016784
0.018885
0.021016
0.023165
0.025318
0.027463
0.029583
0.031661
0.033680
0.035621
0.037465
0.039193
0.040786
0.042226
0.043497
0.044581
0.045467
0.046142
0.046599
0.046836
0.046857
-0.013608
-0.013634
-0.013588
-0.013471
-0.013284
-0.013026
-0.012697
-0.012297
-0.011823
-0.011276
-0.010652
-0.009952
-0.009174
-0.008317
-0.007379
-0.006359
-0.005256
-0.004069
-0.002797
-0.001440
0.000003
0.001530
0.003142
0.004837
0.006612
0.008465
0.010392
0.012388
0.014446
0.016560
0.018720
0.020916
0.023136
0.025367
0.027594
0.029800
0.031968
0.034079
0.036113
0.038050
0.039868
0.041547
0.043068
0.044410
0.045558
0.046495
0.047211
0.047695
0.047947
0.047970
-0.014150
-0.014178
-0.014134
-0.014020
-0.013836
-0.013583
-0.013259
-0.012864
-0.012396
-0.011854
-0.011236
-0.010542
-0.009769
-0.008916
-0.007982
-0.006965
-0.005863
-0.004675
-0.003400
-0.002036
-0.000585
0.000956
0.002585
0.004302
0.006105
0.007991
0.009958
0.012000
0.014112
0.016286
0.018515
0.020787
0.023091
0.025412
0.027736
0.030045
0.032320
0.034541
0.036686
0.038734
0.040660
0.042443
0.044060
0.045491
0.046715
0.047715
0.048479
0.048997
0.049266
0.049293
-0.014773
-0.014803
-0.014761
-0.014651
-0.014471
-0.014223
-0.013904
-0.013515
-0.013053
-0.012518
-0.011908
-0.011220
-0.010454
-0.009607
-0.008677
-0.007663
-0.006563
-0.005375
-0.004097
-0.002728
-0.001266
0.000288
0.001936
0.003677
0.005509
0.007432
0.009443
0.011537
0.013709
0.015953
0.018260
0.020619
0.023019
0.025446
0.027882
0.030311
0.032711
0.035062
0.037339
0.039517
0.041573
0.043479
0.045211
0.046746
0.048061
0.049137
0.049960
0.050517
0.050808
0.050838
-0.015476
-0.015508
-0.015469
-0.015362
-0.015187
-0.014945
-0.014633
-0.014250
-0.013797
-0.013269
-0.012667
-0.011987
-0.011229
-0.010389
-0.009466
-0.008457
-0.007360
-0.006173
-0.004893
-0.003518
-0.002048
-0.000480
0.001187
0.002953
0.004818
0.006781
0.008839
0.010990
0.013229
0.015550
0.017945
0.020403
0.022912
0.025458
0.028023
0.030590
0.033136
0.035637
0.038067
0.040400
0.042606
0.044658
0.046526
0.048185
0.049608
0.050774
0.051666
0.052271
0.052586
0.052621
-0.016258
-0.016292
-0.016257
-0.016154
-0.015985
-0.015749
-0.015444
-0.015070
-0.014625
-0.014107
-0.013515
-0.012845
-0.012096
-0.011266
-0.010351
-0.009348
-0.008256
-0.007072
-0.005792
-0.004413
-0.002935
-0.001353
0.000332
0.002124
0.004022
0.006026
0.008136
0.010348
0.012660
0.015065
0.017557
0.020124
0.022755
0.025436
0.028148
0.030872
0.033585
0.036259
0.038867
0.041379
0.043763
0.045985
0.048014
0.049818
0.051369
0.052642
0.053615
0.054276
0.054621
0.054660
-0.017119
-0.017156
-0.017124
-0.017026
-0.016863
-0.016634
-0.016338
-0.015974
-0.015540
-0.015033
-0.014452
-0.013794
-0.013057
-0.012238
-0.011333
-0.010340
-0.009256
-0.008076
-0.006798
-0.005418
-0.003933
-0.002340
-0.000637
0.001180
0.003111
0.005158
0.007321
0.009598
0.011987
0.014483
0.017080
0.019768
0.022535
0.025366
0.028243
0.031145
0.034047
0.036921
0.039734
0.042453
0.045043
0.047464
0.049681
0.051658
0.053359
0.054756
0.055826
0.056552
0.056932
0.056978
-0.018057
-0.018097
-0.018070
-0.017977
-0.017822
-0.017601
-0.017315
-0.016962
-0.016540
-0.016046
-0.015479
-0.014836
-0.014113
-0.013307
-0.012416
-0.011435
-0.010361
-0.009190
-0.007917
-0.006538
-0.005050
-0.003448
-0.001729
0.000111
0.002075
0.004164
0.006381
0.008725
0.011195
0.013788
0.016498
0.019316
0.022232
0.025229
0.028290
0.031393
0.034509
0.037610
0.040659
0.043618
0.046446
0.049101
0.051538
0.053716
0.055594
0.057139
0.058322
0.059125
0.059546
0.059598
-0.019072
-0.019116
-0.019093
-0.019007
-0.018859
-0.018649
-0.018374
-0.018034
-0.017626
-0.017148
-0.016597
-0.015970
-0.015264
-0.014476
-0.013601
-0.012636
-0.011576
-0.010416
-0.009152
-0.007779
-0.006292
-0.004685
-0.002953
-0.001093
0.000900
0.003031
0.005301
0.007713
0.010267
0.012960
0.015790
0.018749
0.021825
0.025004
0.028269
0.031595
0.034954
0.038312
0.041631
0.044866
0.047972
0.050898
0.053593
0.056007
0.058095
0.059813
0.061129
0.062022
0.062490
0.062550
-0.020164
-0.020210
-0.020193
-0.020114
-0.019975
-0.019776
-0.019514
-0.019189
-0.018797
-0.018336
-0.017804
-0.017197
-0.016512
-0.015745
-0.014890
-0.013945
-0.012904
-0.011761
-0.010510
-0.009147
-0.007665
-0.006058
-0.004320
-0.002444
-0.000425
0.001744
0.004065
0.006543
0.009181
0.011978
0.014933
0.018039
0.021288
0.024666
0.028154
0.031728
0.035358
0.039008
0.042634
0.046188
0.049615
0.052857
0.055855
0.058548
0.060881
0.062803
0.064276
0.065276
0.065798
0.065867
-0.021329
-0.021380
-0.021368
-0.021297
-0.021169
-0.020982
-0.020735
-0.020426
-0.020053
-0.019612
-0.019102
-0.018519
-0.017858
-0.017115
-0.016286
-0.015365
-0.014347
-0.013226
-0.011996
-0.010649
-0.009179
-0.007578
-0.005839
-0.003953
-0.001914
0.000286
0.002654
0.005195
0.007915
0.010816
0.013898
0.017160
0.020591
0.024182
0.027913
0.031761
0.035694
0.039672
0.043649
0.047569
0.051368
0.054979
0.058331
0.061353
0.063976
0.066141
0.067799
0.068922
0.069509
0.069587
-0.022567
-0.022622
-0.022617
-0.022555
-0.022438
-0.022265
-0.022034
-0.021744
-0.021392
-0.020975
-0.020490
-0.019934
-0.019301
-0.018587
-0.017788
-0.016898
-0.015910
-0.014817
-0.013613
-0.012290
-0.010840
-0.009253
-0.007521
-0.005634
-0.003583
-0.001359
0.001049
0.003647
0.006445
0.009447
0.012656
0.016076
0.019699
0.023515
0.027508
0.031656
0.035924
0.040272
0.044647
0.048986
0.053217
0.057260
0.061030
0.064440
0.067408
0.069860
0.071737
0.073005
0.073666
0.073754
-0.023877
-0.023936
-0.023938
-0.023886
-0.023781
-0.023624
-0.023412
-0.023143
-0.022815
-0.022424
-0.021968
-0.021442
-0.020842
-0.020163
-0.019399
-0.018545
-0.017593
-0.016537
-0.015367
-0.014076
-0.012654
-0.011091
-0.009376
-0.007499
-0.005447
-0.003209
-0.000772
0.001875
0.004742
0.007839
0.011173
0.014750
0.018569
0.022621
0.026894
0.031366
0.036004
0.040765
0.045590
0.050411
0.055142
0.059691
0.063954
0.067826
0.071204
0.073997
0.076134
0.077573
0.078319
0.078417
-0.025256
-0.025320
-0.025329
-0.025288
-0.025197
-0.025057
-0.024865
-0.024620
-0.024318
-0.023958
-0.023534
-0.023043
-0.022481
-0.021842
-0.021119
-0.020308
-0.019400
-0.018387
-0.017261
-0.016012
-0.014629
-0.013101
-0.011416
-0.009560
-0.007520
-0.005282
-0.002829
-0.000148
0.002777
0.005958
0.009408
0.013138
0.017152
0.021447
0.026014
0.030834
0.035875
0.041094
0.046428
0.051800
0.057112
0.062254
0.067101
0.071524
0.075394
0.078596
0.081042
0.082682
0.083524
0.083633
-0.026702
-0.026772
-0.026789
-0.026759
-0.026684
-0.026562
-0.026393
-0.026174
-0.025902
-0.025574
-0.025187
-0.024736
-0.024216
-0.023622
-0.022948
-0.022187
-0.021331
-0.020371
-0.019299
-0.018102
-0.016771
-0.015291
-0.013649
-0.011831
-0.009819
-0.007597
-0.005146
-0.002447
0.000517
0.003767
0.007320
0.011190
0.015394
0.019932
0.024801
0.029988
0.035465
0.041188
0.047093
0.053094
0.059080
0.064920
0.070462
0.075545
0.080008
0.083703
0.086518
0.088395
0.089347
0.089462
-0.028213
-0.028288
-0.028314
-0.028297
-0.028238
-0.028137
-0.027993
-0.027802
-0.027563
-0.027271
-0.026925
-0.026518
-0.026046
-0.025504
-0.024885
-0.024182
-0.023387
-0.022490
-0.021482
-0.020350
-0.019084
-0.017667
-0.016085
-0.014322
-0.012357
-0.010172
-0.007744
-0.005051
-0.002069
0.001227
0.004860
0.008853
0.013230
0.018003
0.023175
0.028741
0.034681
0.040954
0.047495
0.054211
0.060978
0.067639
0.074012
0.079893
0.085075
0.089369
0.092629
0.094782
0.095856
0.095973
-0.029786
-0.029867
-0.029903
-0.029899
-0.029858
-0.029779
-0.029661
-0.029502
-0.029298
-0.029047
-0.028744
-0.028387
-0.027969
-0.027485
-0.026928
-0.026291
-0.025566
-0.024743
-0.023811
-0.022758
-0.021571
-0.020234
-0.018731
-0.017043
-0.015148
-0.013024
-0.010646
-0.007986
-0.005016
-0.001705
0.001979
0.006066
0.010588
0.015577
0.021042
0.026989
0.033410
0.040272
0.047513
0.055037
0.062705
0.070335
0.077704
0.084555
0.090619
0.095647
0.099444
0.101923
0.103128
0.103235
-0.031418
-0.031506
-0.031552
-0.031563
-0.031541
-0.031486
-0.031396
-0.031270
-0.031104
-0.030897
-0.030643
-0.030340
-0.029981
-0.029562
-0.029075
-0.028513
-0.027867
-0.027129
-0.026286
-0.025326
-0.024235
-0.022996
-0.021592
-0.020002
-0.018203
-0.016169
-0.013871
-0.011279
-0.008358
-0.005070
-0.001376
0.002765
0.007395
0.012560
0.018290
0.024605
0.031510
0.038988
0.046987
0.055413
0.064117
0.072888
0.081455
0.089493
0.096650
0.102587
0.107043
0.109902
0.111243
0.111319
-0.033107
-0.033202
-0.033259
-0.033285
-0.033283
-0.033252
-0.033193
-0.033103
-0.032979
-0.032818
-0.032617
-0.032373
-0.032079
-0.031730
-0.031320
-0.030842
-0.030286
-0.029644
-0.028903
-0.028051
-0.027074
-0.025953
-0.024670
-0.023204
-0.021529
-0.019618
-0.017438
-0.014953
-0.012125
-0.008909
-0.005257
-0.001116
0.003566
0.008847
0.014794
0.021438
0.028807
0.036908
0.045707
0.055123
0.065002
0.075110
0.085122
0.094625
0.103151
0.110233
0.115505
0.118808
0.120275
0.120282
-0.034849
-0.034952
-0.035020
-0.035062
-0.035081
-0.035077
-0.035050
-0.034997
-0.034917
-0.034806
-0.034662
-0.034480
-0.034256
-0.033985
-0.033660
-0.033274
-0.032819
-0.032284
-0.031659
-0.030931
-0.030085
-0.029103
-0.027966
-0.026651
-0.025132
-0.023379
-0.021357
-0.019028
-0.016345
-0.013260
-0.009714
-0.005645
-0.000985
0.004340
0.010412
0.017315
0.025093
0.033787
0.043397
0.053867
0.065057
0.076718
0.088467
0.099786
0.110047
0.118597
0.124901
0.128727
0.130285
0.130155
-0.036642
-0.036752
-0.036832
-0.036890
-0.036931
-0.036955
-0.036961
-0.036948
-0.036914
-0.036856
-0.036772
-0.036657
-0.036509
-0.036321
-0.036087
-0.035802
-0.035456
-0.035041
-0.034546
-0.033958
-0.033261
-0.032440
-0.031474
-0.030340
-0.029011
-0.027456
-0.025638
-0.023516
-0.021040
-0.018154
-0.014794
-0.010885
-0.006346
-0.001083
0.005002
0.012039
0.020121
0.029323
0.039699
0.051241
0.063846
0.077272
0.091092
0.104665
0.117156
0.127628
0.135274
0.139723
0.141298
0.140906
-0.038483
-0.038601
-0.038693
-0.038768
-0.038831
-0.038883
-0.038923
-0.038951
-0.038965
-0.038962
-0.038941
-0.038897
-0.038828
-0.038729
-0.038594
-0.038417
-0.038191
-0.037907
-0.037555
-0.037122
-0.036594
-0.035955
-0.035186
-0.034263
-0.033160
-0.031844
-0.030280
-0.028422
-0.026220
-0.023613
-0.020531
-0.016889
-0.012593
-0.007532
-0.001580
0.005402
0.013608
0.023155
0.034162
0.046702
0.060748
0.076106
0.092341
0.108695
0.124067
0.137117
0.146579
0.151804
0.153258
0.152388
-0.040368
-0.040495
-0.040599
-0.040691
-0.040776
-0.040857
-0.040932
-0.041002
-0.041064
-0.041119
-0.041162
-0.041193
-0.041207
-0.041202
-0.041171
-0.041110
-0.041012
-0.040870
-0.040673
-0.040410
-0.040069
-0.039634
-0.039087
-0.038406
-0.037564
-0.036532
-0.035272
-0.033741
-0.031887
-0.029647
-0.026946
-0.023697
-0.019791
-0.015104
-0.009488
-0.002769
0.005249
0.014862
0.026230
0.039539
0.054892
0.072217
0.091139
0.110836
0.129923
0.146496
0.158543
0.164836
0.165962
0.164249
-0.042296
-0.042433
-0.042549
-0.042657
-0.042764
-0.042872
-0.042983
-0.043094
-0.043206
-0.043318
-0.043429
-0.043536
-0.043636
-0.043728
-0.043807
-0.043868
-0.043906
-0.043915
-0.043885
-0.043807
-0.043669
-0.043459
-0.043158
-0.042748
-0.042204
-0.041497
-0.040594
-0.039453
-0.038024
-0.036244
-0.034041
-0.031322
-0.027979
-0.023874
-0.018845
-0.012691
-0.005174
0.003989
0.015250
0.028854
0.045094
0.064117
0.085743
0.109220
0.132952
0.154369
0.170302
0.178327
0.178922
0.175858
-0.044265
-0.044411
-0.044539
-0.044663
-0.044791
-0.044927
-0.045071
-0.045223
-0.045385
-0.045555
-0.045732
-0.045917
-0.046106
-0.046298
-0.046490
-0.046678
-0.046859
-0.047026
-0.047173
-0.047292
-0.047373
-0.047405
-0.047374
-0.047262
-0.047049
-0.046710
-0.046215
-0.045526
-0.044598
-0.043375
-0.041788
-0.039751
-0.037157
-0.033872
-0.029727
-0.024512
-0.017963
-0.009750
0.000529
0.013575
0.029809
0.049683
0.073398
0.100528
0.129556
0.157402
0.179390
0.190811
0.191120
0.186473
-0.046274
-0.046430
-0.046569
-0.046707
-0.046855
-0.047016
-0.047192
-0.047384
-0.047594
-0.047820
-0.048065
-0.048326
-0.048604
-0.048898
-0.049206
-0.049525
-0.049852
-0.050184
-0.050517
-0.050843
-0.051155
-0.051446
-0.051703
-0.051914
-0.052062
-0.052128
-0.052087
-0.051909
-0.051556
-0.050984
-0.050132
-0.048929
-0.047280
-0.045069
-0.042142
-0.038301
-0.033290
-0.026773
-0.018315
-0.007357
0.007157
0.026046
0.049947
0.079097
0.112681
0.147945
0.179063
0.197883
0.200474
0.195955
-0.048323
-0.048489
-0.048638
-0.048789
-0.048954
-0.049137
-0.049343
-0.049572
-0.049826
-0.050107
-0.050416
-0.050753
-0.051120
-0.051515
-0.051939
-0.052391
-0.052868
-0.053370
-0.053893
-0.054433
-0.054987
-0.055548
-0.056110
-0.056663
-0.057198
-0.057700
-0.058153
-0.058536
-0.058825
-0.058986
-0.058979
-0.058753
-0.058242
-0.057360
-0.055996
-0.054000
-0.051174
-0.047248
-0.041854
-0.034490
-0.024466
-0.010352
0.009588
0.036037
0.069836
0.110687
0.153773
0.187771
0.202029
0.203815
-0.050414
-0.050591
-0.050749
-0.050909
-0.051087
-0.051289
-0.051519
-0.051780
-0.052075
-0.052407
-0.052777
-0.053188
-0.053640
-0.054135
-0.054675
-0.055258
-0.055886
-0.056559
-0.057276
-0.058035
-0.058836
-0.059676
-0.060553
-0.061463
-0.062402
-0.063363
-0.064341
-0.065326
-0.066307
-0.067271
-0.068201
-0.069076
-0.069870
-0.070550
-0.071074
-0.071385
-0.071410
-0.071048
-0.070159
-0.068540
-0.065891
-0.061734
-0.054621
-0.040153
-0.016254
0.023354
0.079116
0.138715
0.181925
0.199982
-0.052551
-0.052740
-0.052904
-0.053070
-0.053255
-0.053469
-0.053718
-0.054005
-0.054335
-0.054712
-0.055138
-0.055617
-0.056151
-0.056743
-0.057395
-0.058108
-0.058885
-0.059728
-0.060638
-0.061617
-0.062667
-0.063790
-0.064987
-0.066261
-0.067615
-0.069050
-0.070571
-0.072183
-0.073891
-0.075704
-0.077634
-0.079699
-0.081924
-0.084347
-0.087022
-0.090034
-0.093508
-0.097637
-0.102722
-0.109235
-0.117883
-0.129490
-0.144059
-0.158208
-0.158627
-0.130415
-0.064197
0.028137
0.114732
0.157271
-0.054742
-0.054943
-0.055110
-0.055275
-0.055460
-0.055679
-0.055937
-0.056242
-0.056600
-0.057013
-0.057489
-0.058029
-0.058639
-0.059322
-0.060082
-0.060921
-0.061843
-0.062852
-0.063953
-0.065149
-0.066445
-0.067849
-0.069365
-0.071003
-0.072772
-0.074684
-0.076754
-0.079001
-0.081448
-0.084130
-0.087089
-0.090387
-0.094107
-0.098372
-0.103357
-0.109321
-0.116657
-0.125977
-0.138257
-0.155089
-0.178991
-0.213185
-0.259224
-0.311139
-0.350125
-0.342203
-0.270796
-0.148424
-0.017789
0.051536
-0.056999
-0.057212
-0.057377
-0.057532
-0.057707
-0.057919
-0.058176
-0.058488
-0.058862
-0.059303
-0.059818
-0.060412
-0.061090
-0.061857
-0.062717
-0.063675
-0.064736
-0.065905
-0.067190
-0.068596
-0.070133
-0.071810
-0.073639
-0.075633
-0.077809
-0.080189
-0.082797
-0.085668
-0.088844
-0.092382
-0.096357
-0.100875
-0.106082
-0.112186
-0.119490
-0.128449
-0.139760
-0.154526
-0.174565
-0.202919
-0.244450
-0.305283
-0.388209
-0.482941
-0.560210
-0.575502
-0.505909
-0.366041
-0.204155
-0.112200
-0.059339
-0.059565
-0.059719
-0.059853
-0.060004
-0.060193
-0.060435
-0.060739
-0.061115
-0.061572
-0.062116
-0.062753
-0.063489
-0.064330
-0.065282
-0.066350
-0.067541
-0.068861
-0.070320
-0.071927
-0.073693
-0.075632
-0.077759
-0.080093
-0.082660
-0.085486
-0.088609
-0.092076
-0.095944
-0.100294
-0.105231
-0.110899
-0.117501
-0.125324
-0.134791
-0.146536
-0.161540
-0.181380
-0.208679
-0.247862
-0.305918
-0.391303
-0.507106
-0.638234
-0.745678
-0.779930
-0.717889
-0.577389
-0.404699
-0.299858
-0.061788
-0.062026
-0.062159
-0.062254
-0.062361
-0.062508
-0.062713
-0.062992
-0.063354
-0.063811
-0.064369
-0.065037
-0.065820
-0.066725
-0.067758
-0.068926
-0.070236
-0.071696
-0.073317
-0.075110
-0.077090
-0.079273
-0.081679
-0.084332
-0.087262
-0.090504
-0.094103
-0.098118
-0.102622
-0.107712
-0.113516
-0.120210
-0.128041
-0.137357
-0.148669
-0.162742
-0.180761
-0.204627
-0.237491
-0.284605
-0.354063
-0.455211
-0.590648
-0.742209
-0.865418
-0.909954
-0.858117
-0.732368
-0.570770
-0.466077
-0.064384
-0.064634
-0.064729
-0.064760
-0.064794
-0.064870
-0.065014
-0.065243
-0.065571
-0.066009
-0.066567
-0.067251
-0.068069
-0.069025
-0.070127
-0.071382
-0.072798
-0.074385
-0.076153
-0.078117
-0.080292
-0.082698
-0.085358
-0.088300
-0.091559
-0.095175
-0.099202
-0.103705
-0.108768
-0.114500
-0.121046
-0.128602
-0.137439
-0.147939
-0.160658
-0.176418
-0.196483
-0.222843
-0.258734
-0.309379
-0.382514
-0.486524
-0.623023
-0.773735
-0.895329
-0.940912
-0.899596
-0.798904
-0.665751
-0.573940
-0.067183
-0.067443
-0.067473
-0.067402
-0.067323
-0.067291
-0.067339
-0.067488
-0.067757
-0.068156
-0.068695
-0.069380
-0.070217
-0.071212
-0.072371
-0.073700
-0.075208
-0.076905
-0.078804
-0.080919
-0.083268
-0.085872
-0.088757
-0.091954
-0.095502
-0.099445
-0.103840
-0.108759
-0.114292
-0.120555
-0.127698
-0.135926
-0.145514
-0.156849
-0.170482
-0.187217
-0.208258
-0.235455
-0.271694
-0.321362
-0.390548
-0.484704
-0.603923
-0.733492
-0.836371
-0.876045
-0.847576
-0.775098
-0.677613
-0.607292
-0.070270
-0.070532
-0.070455
-0.070223
-0.069973
-0.069780
-0.069687
-0.069722
-0.069902
-0.070238
-0.070738
-0.071408
-0.072250
-0.073270
-0.074471
-0.075861
-0.077446
-0.079238
-0.081249
-0.083494
-0.085992
-0.088767
-0.091845
-0.095260
-0.099051
-0.103267
-0.107968
-0.113226
-0.119133
-0.125807
-0.133396
-0.142100
-0.152182
-0.164006
-0.178078
-0.195117
-0.216172
-0.242781
-0.277262
-0.322418
-0.382329
-0.460582
-0.555707
-0.654292
-0.726952
-0.749357
-0.723714
-0.677972
-0.617158
-0.571424
-0.073773
-0.074023
-0.073765
-0.073282
-0.072774
-0.072347
-0.072056
-0.071931
-0.071989
-0.072237
-0.072679
-0.073317
-0.074150
-0.075181
-0.076412
-0.077848
-0.079496
-0.081365
-0.083469
-0.085822
-0.088445
-0.091360
-0.094597
-0.098189
-0.102177
-0.106611
-0.111550
-0.117068
-0.123254
-0.130221
-0.138111
-0.147107
-0.157449
-0.169457
-0.183567
-0.200377
-0.220724
-0.245671
-0.276575
-0.315558
-0.364801
-0.425625
-0.495311
-0.562429
-0.605679
-0.610662
-0.583560
-0.549187
-0.514800
-0.485766
-0.077895
-0.078099
-0.077530
-0.076648
-0.075755
-0.074996
-0.074435
-0.074099
-0.073998
-0.074132
-0.074496
-0.075087
-0.075899
-0.076929
-0.078178
-0.079647
-0.081343
-0.083272
-0.085449
-0.087888
-0.090609
-0.093635
-0.096995
-0.100723
-0.104861
-0.109456
-0.114569
-0.120269
-0.126642
-0.133793
-0.141853
-0.150984
-0.161393
-0.173350
-0.187207
-0.203430
-0.222524
-0.245122
-0.272229
-0.304875
-0.343910
-0.389109
-0.437121
-0.478772
-0.499543
-0.491012
-0.460472
-0.428297
-0.397992
-0.367217
-0.082981
-0.083056
-0.081931
-0.080402
-0.078934
-0.077712
-0.076794
-0.076192
-0.075896
-0.075893
-0.076165
-0.076697
-0.077477
-0.078498
-0.079753
-0.081244
-0.082973
-0.084947
-0.087177
-0.089679
-0.092472
-0.095579
-0.099027
-0.102851
-0.107092
-0.111795
-0.117018
-0.122829
-0.129307
-0.136548
-0.144669
-0.153810
-0.164146
-0.175895
-0.189330
-0.204752
-0.222376
-0.242743
-0.266301
-0.293417
-0.324077
-0.357211
-0.389406
-0.413507
-0.419643
-0.402215
-0.367404
-0.328317
-0.275965
-0.212547
-0.089659
-0.089389
-0.087212
-0.084615
-0.082298
-0.080452
-0.079084
-0.078161
-0.077641
-0.077484
-0.077654
-0.078120
-0.078862
-0.079865
-0.081120
-0.082622
-0.084371
-0.086373
-0.088639
-0.091182
-0.094022
-0.097180
-0.100684
-0.104566
-0.108866
-0.113628
-0.118907
-0.124765
-0.131279
-0.138535
-0.146638
-0.155706
-0.165881
-0.177346
-0.190308
-0.204836
-0.221225
-0.239696
-0.260400
-0.283305
-0.307937
-0.332883
-0.354981
-0.368591
-0.366603
-0.344361
-0.303974
-0.242146
-0.125488
0.021048
-0.099215
-0.097965
-0.093663
-0.089287
-0.085748
-0.083111
-0.081206
-0.079918
-0.079154
-0.078835
-0.078899
-0.079298
-0.079998
-0.080977
-0.082223
-0.083729
-0.085487
-0.087500
-0.089783
-0.092348
-0.095212
-0.098396
-0.101927
-0.105836
-0.110160
-0.114943
-0.120236
-0.126099
-0.132602
-0.139828
-0.147874
-0.156838
-0.166825
-0.177985
-0.190461
-0.204355
-0.219808
-0.236909
-0.255643
-0.275771
-0.296618
-0.316696
-0.333151
-0.341272
-0.335245
-0.310387
-0.257465
-0.138426
0.127544
0.451798
-0.114925
-0.110498
-0.101473
-0.094177
-0.088974
-0.085425
-0.082897
-0.081202
-0.080174
-0.079691
-0.079648
-0.079976
-0.080630
-0.081582
-0.082814
-0.084320
-0.086076
-0.088085
-0.090373
-0.092948
-0.095825
-0.099025
-0.102570
-0.106490
-0.110822
-0.115609
-0.120900
-0.126753
-0.133236
-0.140424
-0.148405
-0.157272
-0.167127
-0.178088
-0.190269
-0.203765
-0.218653
-0.234956
-0.252568
-0.271144
-0.289913
-0.307356
-0.320766
-0.325718
-0.316688
-0.283908
-0.190402
0.063560
0.630188
1.333054
-0.145322
-0.128891
-0.110322
-0.097812
-0.090187
-0.085687
-0.082402
-0.080411
-0.079266
-0.078694
-0.078605
-0.078919
-0.079580
-0.080552
-0.081811
-0.083345
-0.085138
-0.087192
-0.089522
-0.092138
-0.095056
-0.098295
-0.101879
-0.105836
-0.110204
-0.115024
-0.120346
-0.126226
-0.132729
-0.139931
-0.147914
-0.156771
-0.166599
-0.177505
-0.189589
-0.202935
-0.217595
-0.233546
-0.250622
-0.268397
-0.285976
-0.301689
-0.312515
-0.313414
-0.296550
-0.225556
-0.020703
0.504654
1.594023
3.010283
-0.248225
-0.110796
-0.082134
-0.074029
-0.070962
-0.069672
-0.069020
-0.068916
-0.069200
-0.069760
-0.070582
-0.071645
-0.072936
-0.074444
-0.076167
-0.078103
-0.080252
-0.082624
-0.085238
-0.088109
-0.091258
-0.094707
-0.098484
-0.102621
-0.107154
-0.112128
-0.117594
-0.123609
-0.130240
-0.137561
-0.145656
-0.154616
-0.164537
-0.175522
-0.187664
-0.201038
-0.215676
-0.231522
-0.248357
-0.265658
-0.282341
-0.296329
-0.303247
-0.293795
-0.240561
-0.086400
0.302515
1.186397
2.868573
5.118246
