# vtk DataFile Version 3.0
Vector Field
ASCII
DATASET RECTILINEAR_GRID
DIMENSIONS 50 50 1
X_COORDINATES 50 double
0.100000 0.300000 0.500000 0.700000 0.900000 1.100000 1.300000 1.500000 1.700000 1.900000 2.100000 2.300000 2.500000 2.700000 2.900000 3.100000 3.300000 3.500000 3.700000 3.900000 4.100000 4.300000 4.500000 4.700000 4.900000 5.100000 5.300000 5.500000 5.700000 5.900000 6.100000 6.300000 6.500000 6.700000 6.900000 7.100000 7.300000 7.500000 7.700000 7.900000 8.100000 8.300000 8.500000 8.700000 8.900000 9.100000 9.300000 9.500000 9.700000 9.900000 
Y_COORDINATES 50 double
0.100000 0.300000 0.500000 0.700000 0.900000 1.100000 1.300000 1.500000 1.700000 1.900000 2.100000 2.300000 2.500000 2.700000 2.900000 3.100000 3.300000 3.500000 3.700000 3.900000 4.100000 4.300000 4.500000 4.700000 4.900000 5.100000 5.300000 5.500000 5.700000 5.900000 6.100000 6.300000 6.500000 6.700000 6.900000 7.100000 7.300000 7.500000 7.700000 7.900000 8.100000 8.300000 8.500000 8.700000 8.900000 9.100000 9.300000 9.500000 9.700000 9.900000 
Z_COORDINATES 1 double
0.0
POINT_DATA 2500
VECTORS Vektorfeld double
-0.000132 0.000132 0.0
-0.000602 0.000338 0.0
-0.001348 0.000408 0.0
-0.002179 0.000422 0.0
-0.003021 0.000421 0.0
-0.003859 0.000417 0.0
-0.004687 0.000411 0.0
-0.005503 0.000405 0.0
-0.006307 0.000398 0.0
-0.007095 0.000390 0.0
-0.007866 0.000381 0.0
-0.008617 0.000370 0.0
-0.009346 0.000359 0.0
-0.010051 0.000346 0.0
-0.010729 0.000332 0.0
-0.011377 0.000316 0.0
-0.011994 0.000300 0.0
-0.012575 0.000282 0.0
-0.013119 0.000262 0.0
-0.013622 0.000241 0.0
-0.014081 0.000218 0.0
-0.014494 0.000194 0.0
-0.014857 0.000169 0.0
-0.015167 0.000142 0.0
-0.015422 0.000113 0.0
-0.015618 0.000083 0.0
-0.015751 0.000051 0.0
-0.015820 0.000018 0.0
-0.015822 -0.000016 0.0
-0.015754 -0.000052 0.0
-0.015612 -0.000089 0.0
-0.015396 -0.000127 0.0
-0.015103 -0.000166 0.0
-0.014731 -0.000205 0.0
-0.014281 -0.000245 0.0
-0.013751 -0.000285 0.0
-0.013142 -0.000324 0.0
-0.012456 -0.000363 0.0
-0.011693 -0.000400 0.0
-0.010857 -0.000436 0.0
-0.009950 -0.000470 0.0
-0.008978 -0.000502 0.0
-0.007945 -0.000531 0.0
-0.006857 -0.000557 0.0
-0.005720 -0.000580 0.0
-0.004542 -0.000598 0.0
-0.003334 -0.000610 0.0
-0.002124 -0.000600 0.0
-0.001007 -0.000516 0.0
-0.000245 -0.000245 0.0
-0.000344 0.000608 0.0
-0.001349 0.001337 0.0
-0.002779 0.001585 0.0
-0.004339 0.001635 0.0
-0.005920 0.001632 0.0
-0.007492 0.001615 0.0
-0.009044 0.001593 0.0
-0.010570 0.001567 0.0
-0.012067 0.001537 0.0
-0.013530 0.001502 0.0
-0.014953 0.001463 0.0
-0.016334 0.001419 0.0
-0.017666 0.001371 0.0
-0.018945 0.001318 0.0
-0.020167 0.001260 0.0
-0.021327 0.001197 0.0
-0.022420 0.001129 0.0
-0.023442 0.001055 0.0
-0.024387 0.000977 0.0
-0.025251 0.000893 0.0
-0.026028 0.000804 0.0
-0.026715 0.000709 0.0
-0.027306 0.000609 0.0
-0.027797 0.000503 0.0
-0.028183 0.000392 0.0
-0.028459 0.000276 0.0
-0.028621 0.000154 0.0
-0.028665 0.000028 0.0
-0.028587 -0.000103 0.0
-0.028384 -0.000238 0.0
-0.028053 -0.000376 0.0
-0.027591 -0.000518 0.0
-0.026997 -0.000662 0.0
-0.026269 -0.000808 0.0
-0.025408 -0.000954 0.0
-0.024414 -0.001100 0.0
-0.023288 -0.001244 0.0
-0.022033 -0.001384 0.0
-0.020654 -0.001521 0.0
-0.019155 -0.001651 0.0
-0.017541 -0.001775 0.0
-0.015821 -0.001890 0.0
-0.014003 -0.001994 0.0
-0.012097 -0.002088 0.0
-0.010114 -0.002169 0.0
-0.008065 -0.002235 0.0
-0.005973 -0.002274 0.0
-0.003882 -0.002236 0.0
-0.001934 -0.001945 0.0
-0.000511 -0.001002 0.0
-0.000422 0.001373 0.0
-0.001622 0.002778 0.0
-0.003293 0.003245 0.0
-0.005099 0.003341 0.0
-0.006925 0.003334 0.0
-0.008739 0.003298 0.0
-0.010530 0.003251 0.0
-0.012289 0.003195 0.0
-0.014013 0.003129 0.0
-0.015695 0.003054 0.0
-0.017330 0.002970 0.0
-0.018913 0.002876 0.0
-0.020439 0.002772 0.0
-0.021901 0.002659 0.0
-0.023295 0.002535 0.0
-0.024616 0.002402 0.0
-0.025857 0.002258 0.0
-0.027014 0.002104 0.0
-0.028081 0.001940 0.0
-0.029052 0.001765 0.0
-0.029924 0.001580 0.0
-0.030689 0.001385 0.0
-0.031344 0.001179 0.0
-0.031882 0.000962 0.0
-0.032300 0.000736 0.0
-0.032592 0.000499 0.0
-0.032753 0.000254 0.0
-0.032779 -0.000001 0.0
-0.032667 -0.000264 0.0
-0.032412 -0.000534 0.0
-0.032012 -0.000811 0.0
-0.031466 -0.001093 0.0
-0.030770 -0.001378 0.0
-0.029924 -0.001666 0.0
-0.028928 -0.001954 0.0
-0.027783 -0.002239 0.0
-0.026492 -0.002521 0.0
-0.025056 -0.002796 0.0
-0.023482 -0.003063 0.0
-0.021773 -0.003317 0.0
-0.019938 -0.003557 0.0
-0.017984 -0.003780 0.0
-0.015922 -0.003984 0.0
-0.013761 -0.004165 0.0
-0.011515 -0.004322 0.0
-0.009197 -0.004448 0.0
-0.006830 -0.004521 0.0
-0.004462 -0.004447 0.0
-0.002242 -0.003903 0.0
-0.000598 -0.002111 0.0
-0.000442 0.002237 0.0
-0.001698 0.004372 0.0
-0.003442 0.005065 0.0
-0.005322 0.005207 0.0
-0.007220 0.005193 0.0
-0.009105 0.005137 0.0
-0.010964 0.005062 0.0
-0.012791 0.004971 0.0
-0.014581 0.004866 0.0
-0.016327 0.004746 0.0
-0.018024 0.004611 0.0
-0.019667 0.004461 0.0
-0.021249 0.004295 0.0
-0.022766 0.004115 0.0
-0.024211 0.003919 0.0
-0.025580 0.003707 0.0
-0.026866 0.003480 0.0
-0.028064 0.003237 0.0
-0.029169 0.002979 0.0
-0.030176 0.002705 0.0
-0.031078 0.002414 0.0
-0.031870 0.002108 0.0
-0.032548 0.001787 0.0
-0.033105 0.001450 0.0
-0.033538 0.001098 0.0
-0.033840 0.000731 0.0
-0.034007 0.000350 0.0
-0.034035 -0.000043 0.0
-0.033920 -0.000449 0.0
-0.033657 -0.000866 0.0
-0.033245 -0.001291 0.0
-0.032680 -0.001724 0.0
-0.031961 -0.002162 0.0
-0.031086 -0.002602 0.0
-0.030056 -0.003043 0.0
-0.028871 -0.003480 0.0
-0.027533 -0.003910 0.0
-0.026046 -0.004330 0.0
-0.024414 -0.004736 0.0
-0.022643 -0.005124 0.0
-0.020739 -0.005490 0.0
-0.018711 -0.005829 0.0
-0.016570 -0.006139 0.0
-0.014326 -0.006415 0.0
-0.011992 -0.006652 0.0
-0.009584 -0.006843 0.0
-0.007123 -0.006954 0.0
-0.004658 -0.006847 0.0
-0.002342 -0.006040 0.0
-0.000625 -0.003334 0.0
-0.000447 0.003125 0.0
-0.001723 0.006015 0.0
-0.003496 0.006939 0.0
-0.005407 0.007124 0.0
-0.007336 0.007104 0.0
-0.009250 0.007026 0.0
-0.011138 0.006921 0.0
-0.012994 0.006796 0.0
-0.014812 0.006650 0.0
-0.016586 0.006483 0.0
-0.018311 0.006296 0.0
-0.019981 0.006088 0.0
-0.021589 0.005859 0.0
-0.023132 0.005610 0.0
-0.024603 0.005339 0.0
-0.025996 0.005048 0.0
-0.027306 0.004736 0.0
-0.028528 0.004402 0.0
-0.029656 0.004047 0.0
-0.030684 0.003671 0.0
-0.031608 0.003273 0.0
-0.032420 0.002855 0.0
-0.033117 0.002415 0.0
-0.033693 0.001955 0.0
-0.034142 0.001474 0.0
-0.034460 0.000974 0.0
-0.034641 0.000456 0.0
-0.034681 -0.000080 0.0
-0.034576 -0.000633 0.0
-0.034322 -0.001199 0.0
-0.033915 -0.001777 0.0
-0.033352 -0.002365 0.0
-0.032632 -0.002960 0.0
-0.031753 -0.003558 0.0
-0.030714 -0.004156 0.0
-0.029516 -0.004749 0.0
-0.028161 -0.005333 0.0
-0.026651 -0.005903 0.0
-0.024992 -0.006454 0.0
-0.023188 -0.006981 0.0
-0.021247 -0.007478 0.0
-0.019177 -0.007939 0.0
-0.016988 -0.008359 0.0
-0.014693 -0.008734 0.0
-0.012303 -0.009056 0.0
-0.009836 -0.009316 0.0
-0.007312 -0.009467 0.0
-0.004782 -0.009328 0.0
-0.002403 -0.008254 0.0
-0.000641 -0.004599 0.0
-0.000452 0.004024 0.0
-0.001742 0.007683 0.0
-0.003538 0.008840 0.0
-0.005474 0.009070 0.0
-0.007429 0.009041 0.0
-0.009369 0.008941 0.0
-0.011282 0.008808 0.0
-0.013164 0.008647 0.0
-0.015007 0.008460 0.0
-0.016806 0.008246 0.0
-0.018556 0.008007 0.0
-0.020250 0.007741 0.0
-0.021884 0.007449 0.0
-0.023452 0.007130 0.0
-0.024947 0.006785 0.0
-0.026365 0.006414 0.0
-0.027700 0.006016 0.0
-0.028947 0.005591 0.0
-0.030099 0.005139 0.0
-0.031152 0.004660 0.0
-0.032100 0.004155 0.0
-0.032936 0.003623 0.0
-0.033657 0.003064 0.0
-0.034255 0.002480 0.0
-0.034727 0.001870 0.0
-0.035066 0.001235 0.0
-0.035267 0.000577 0.0
-0.035325 -0.000103 0.0
-0.035237 -0.000804 0.0
-0.034997 -0.001522 0.0
-0.034601 -0.002256 0.0
-0.034047 -0.003003 0.0
-0.033332 -0.003758 0.0
-0.032453 -0.004518 0.0
-0.031410 -0.005278 0.0
-0.030204 -0.006032 0.0
-0.028834 -0.006775 0.0
-0.027305 -0.007501 0.0
-0.025620 -0.008202 0.0
-0.023783 -0.008873 0.0
-0.021804 -0.009506 0.0
-0.019689 -0.010095 0.0
-0.017451 -0.010631 0.0
-0.015099 -0.011109 0.0
-0.012648 -0.011521 0.0
-0.010114 -0.011852 0.0
-0.007521 -0.012048 0.0
-0.004920 -0.011878 0.0
-0.002473 -0.010530 0.0
-0.000659 -0.005899 0.0
-0.000457 0.004932 0.0
-0.001765 0.009373 0.0
-0.003587 0.010768 0.0
-0.005552 0.011043 0.0
-0.007536 0.011007 0.0
-0.009505 0.010884 0.0
-0.011448 0.010721 0.0
-0.013359 0.010525 0.0
-0.015231 0.010297 0.0
-0.017060 0.010037 0.0
-0.018839 0.009745 0.0
-0.020563 0.009421 0.0
-0.022226 0.009066 0.0
-0.023823 0.008678 0.0
-0.025348 0.008258 0.0
-0.026795 0.007807 0.0
-0.028160 0.007323 0.0
-0.029436 0.006806 0.0
-0.030618 0.006258 0.0
-0.031701 0.005677 0.0
-0.032678 0.005063 0.0
-0.033544 0.004417 0.0
-0.034293 0.003740 0.0
-0.034920 0.003030 0.0
-0.035419 0.002290 0.0
-0.035784 0.001520 0.0
-0.036011 0.000721 0.0
-0.036093 -0.000106 0.0
-0.036026 -0.000957 0.0
-0.035804 -0.001831 0.0
-0.035424 -0.002724 0.0
-0.034882 -0.003632 0.0
-0.034174 -0.004552 0.0
-0.033298 -0.005479 0.0
-0.032252 -0.006406 0.0
-0.031036 -0.007327 0.0
-0.029651 -0.008235 0.0
-0.028099 -0.009122 0.0
-0.026383 -0.009982 0.0
-0.024509 -0.010804 0.0
-0.022484 -0.011580 0.0
-0.020316 -0.012303 0.0
-0.018016 -0.012962 0.0
-0.015596 -0.013550 0.0
-0.013070 -0.014057 0.0
-0.010456 -0.014465 0.0
-0.007777 -0.014708 0.0
-0.005089 -0.014507 0.0
-0.002559 -0.012878 0.0
-0.000683 -0.007242 0.0
-0.000463 0.005853 0.0
-0.001792 0.011089 0.0
-0.003645 0.012727 0.0
-0.005644 0.013048 0.0
-0.007663 0.013005 0.0
-0.009667 0.012860 0.0
-0.011645 0.012667 0.0
-0.013591 0.012435 0.0
-0.015498 0.012166 0.0
-0.017361 0.011859 0.0
-0.019175 0.011515 0.0
-0.020933 0.011133 0.0
-0.022631 0.010714 0.0
-0.024263 0.010258 0.0
-0.025822 0.009763 0.0
-0.027305 0.009232 0.0
-0.028705 0.008662 0.0
-0.030016 0.008054 0.0
-0.031233 0.007409 0.0
-0.032351 0.006725 0.0
-0.033363 0.006004 0.0
-0.034264 0.005244 0.0
-0.035048 0.004446 0.0
-0.035709 0.003612 0.0
-0.036242 0.002740 0.0
-0.036639 0.001833 0.0
-0.036896 0.000891 0.0
-0.037007 -0.000083 0.0
-0.036966 -0.001088 0.0
-0.036767 -0.002120 0.0
-0.036407 -0.003175 0.0
-0.035880 -0.004251 0.0
-0.035181 -0.005340 0.0
-0.034309 -0.006439 0.0
-0.033261 -0.007539 0.0
-0.032036 -0.008634 0.0
-0.030633 -0.009715 0.0
-0.029054 -0.010773 0.0
-0.027303 -0.011798 0.0
-0.025384 -0.012780 0.0
-0.023305 -0.013709 0.0
-0.021073 -0.014574 0.0
-0.018700 -0.015364 0.0
-0.016198 -0.016069 0.0
-0.013582 -0.016678 0.0
-0.010871 -0.017169 0.0
-0.008089 -0.017464 0.0
-0.005296 -0.017233 0.0
-0.002665 -0.015313 0.0
-0.000712 -0.008636 0.0
-0.000471 0.006787 0.0
-0.001824 0.012836 0.0
-0.003713 0.014723 0.0
-0.005752 0.015091 0.0
-0.007811 0.015040 0.0
-0.009856 0.014873 0.0
-0.011874 0.014650 0.0
-0.013860 0.014383 0.0
-0.015808 0.014073 0.0
-0.017711 0.013719 0.0
-0.019565 0.013323 0.0
-0.021364 0.012883 0.0
-0.023102 0.012401 0.0
-0.024774 0.011875 0.0
-0.026374 0.011306 0.0
-0.027897 0.010694 0.0
-0.029338 0.010039 0.0
-0.030690 0.009341 0.0
-0.031948 0.008598 0.0
-0.033106 0.007812 0.0
-0.034160 0.006982 0.0
-0.035101 0.006108 0.0
-0.035926 0.005191 0.0
-0.036627 0.004230 0.0
-0.037198 0.003226 0.0
-0.037634 0.002180 0.0
-0.037927 0.001094 0.0
-0.038072 -0.000030 0.0
-0.038063 -0.001191 0.0
-0.037892 -0.002385 0.0
-0.037556 -0.003607 0.0
-0.037047 -0.004854 0.0
-0.036363 -0.006120 0.0
-0.035497 -0.007397 0.0
-0.034448 -0.008679 0.0
-0.033212 -0.009956 0.0
-0.031790 -0.011218 0.0
-0.030182 -0.012456 0.0
-0.028391 -0.013657 0.0
-0.026421 -0.014810 0.0
-0.024278 -0.015902 0.0
-0.021971 -0.016920 0.0
-0.019512 -0.017851 0.0
-0.016913 -0.018683 0.0
-0.014191 -0.019402 0.0
-0.011364 -0.019983 0.0
-0.008461 -0.020334 0.0
-0.005543 -0.020074 0.0
-0.002792 -0.017854 0.0
-0.000746 -0.010094 0.0
-0.000480 0.007738 0.0
-0.001861 0.014618 0.0
-0.003791 0.016760 0.0
-0.005875 0.017177 0.0
-0.007981 0.017119 0.0
-0.010072 0.016929 0.0
-0.012136 0.016677 0.0
-0.014168 0.016374 0.0
-0.016162 0.016023 0.0
-0.018111 0.015622 0.0
-0.020011 0.015173 0.0
-0.021855 0.014676 0.0
-0.023639 0.014130 0.0
-0.025357 0.013535 0.0
-0.027003 0.012892 0.0
-0.028572 0.012201 0.0
-0.030059 0.011460 0.0
-0.031457 0.010670 0.0
-0.032762 0.009831 0.0
-0.033967 0.008943 0.0
-0.035067 0.008004 0.0
-0.036056 0.007016 0.0
-0.036927 0.005978 0.0
-0.037674 0.004890 0.0
-0.038291 0.003753 0.0
-0.038771 0.002568 0.0
-0.039107 0.001336 0.0
-0.039292 0.000058 0.0
-0.039320 -0.001262 0.0
-0.039184 -0.002621 0.0
-0.038876 -0.004015 0.0
-0.038392 -0.005439 0.0
-0.037724 -0.006887 0.0
-0.036868 -0.008351 0.0
-0.035820 -0.009823 0.0
-0.034575 -0.011291 0.0
-0.033133 -0.012747 0.0
-0.031494 -0.014176 0.0
-0.029657 -0.015565 0.0
-0.027629 -0.016901 0.0
-0.025414 -0.018168 0.0
-0.023022 -0.019352 0.0
-0.020463 -0.020437 0.0
-0.017753 -0.021407 0.0
-0.014906 -0.022247 0.0
-0.011945 -0.022926 0.0
-0.008899 -0.023340 0.0
-0.005834 -0.023052 0.0
-0.002941 -0.020519 0.0
-0.000788 -0.011628 0.0
-0.000490 0.008709 0.0
-0.001902 0.016441 0.0
-0.003879 0.018844 0.0
-0.006014 0.019312 0.0
-0.008172 0.019247 0.0
-0.010315 0.019035 0.0
-0.012431 0.018753 0.0
-0.014515 0.018414 0.0
-0.016560 0.018021 0.0
-0.018561 0.017574 0.0
-0.020512 0.017072 0.0
-0.022407 0.016517 0.0
-0.024242 0.015908 0.0
-0.026011 0.015244 0.0
-0.027709 0.014527 0.0
-0.029330 0.013756 0.0
-0.030868 0.012930 0.0
-0.032318 0.012050 0.0
-0.033676 0.011114 0.0
-0.034933 0.010123 0.0
-0.036086 0.009077 0.0
-0.037128 0.007974 0.0
-0.038052 0.006815 0.0
-0.038852 0.005600 0.0
-0.039520 0.004329 0.0
-0.040051 0.003003 0.0
-0.040437 0.001623 0.0
-0.040670 0.000190 0.0
-0.040742 -0.001293 0.0
-0.040646 -0.002822 0.0
-0.040374 -0.004393 0.0
-0.039920 -0.006001 0.0
-0.039274 -0.007639 0.0
-0.038432 -0.009298 0.0
-0.037388 -0.010969 0.0
-0.036136 -0.012641 0.0
-0.034674 -0.014301 0.0
-0.033001 -0.015935 0.0
-0.031116 -0.017527 0.0
-0.029024 -0.019061 0.0
-0.026729 -0.020519 0.0
-0.024239 -0.021883 0.0
-0.021567 -0.023136 0.0
-0.018728 -0.024258 0.0
-0.015738 -0.025232 0.0
-0.012621 -0.026020 0.0
-0.009409 -0.026504 0.0
-0.006173 -0.026190 0.0
-0.003116 -0.023330 0.0
-0.000836 -0.013251 0.0
-0.000501 0.009700 0.0
-0.001949 0.018309 0.0
-0.003977 0.020982 0.0
-0.006169 0.021502 0.0
-0.008384 0.021430 0.0
-0.010585 0.021195 0.0
-0.012759 0.020883 0.0
-0.014900 0.020509 0.0
-0.017002 0.020074 0.0
-0.019060 0.019579 0.0
-0.021068 0.019025 0.0
-0.023020 0.018412 0.0
-0.024912 0.017739 0.0
-0.026737 0.017007 0.0
-0.028492 0.016216 0.0
-0.030169 0.015365 0.0
-0.031765 0.014455 0.0
-0.033273 0.013484 0.0
-0.034688 0.012452 0.0
-0.036005 0.011359 0.0
-0.037216 0.010205 0.0
-0.038317 0.008988 0.0
-0.039301 0.007709 0.0
-0.040160 0.006366 0.0
-0.040888 0.004960 0.0
-0.041477 0.003492 0.0
-0.041920 0.001962 0.0
-0.042208 0.000371 0.0
-0.042332 -0.001277 0.0
-0.042284 -0.002981 0.0
-0.042056 -0.004734 0.0
-0.041637 -0.006533 0.0
-0.041021 -0.008368 0.0
-0.040199 -0.010232 0.0
-0.039163 -0.012115 0.0
-0.037907 -0.014002 0.0
-0.036427 -0.015881 0.0
-0.034720 -0.017735 0.0
-0.032784 -0.019547 0.0
-0.030621 -0.021296 0.0
-0.028237 -0.022963 0.0
-0.025639 -0.024526 0.0
-0.022839 -0.025964 0.0
-0.019853 -0.027256 0.0
-0.016700 -0.028377 0.0
-0.013404 -0.029288 0.0
-0.010000 -0.029851 0.0
-0.006567 -0.029513 0.0
-0.003319 -0.026311 0.0
-0.000891 -0.014978 0.0
-0.000514 0.010716 0.0
-0.002000 0.020226 0.0
-0.004085 0.023178 0.0
-0.006340 0.023752 0.0
-0.008619 0.023674 0.0
-0.010883 0.023416 0.0
-0.013120 0.023074 0.0
-0.015324 0.022663 0.0
-0.017489 0.022187 0.0
-0.019609 0.021645 0.0
-0.021679 0.021038 0.0
-0.023693 0.020366 0.0
-0.025647 0.019630 0.0
-0.027535 0.018829 0.0
-0.029351 0.017964 0.0
-0.031091 0.017034 0.0
-0.032749 0.016039 0.0
-0.034321 0.014979 0.0
-0.035800 0.013852 0.0
-0.037181 0.012658 0.0
-0.038458 0.011396 0.0
-0.039624 0.010065 0.0
-0.040674 0.008665 0.0
-0.041600 0.007195 0.0
-0.042395 0.005654 0.0
-0.043050 0.004043 0.0
-0.043558 0.002361 0.0
-0.043909 0.000610 0.0
-0.044094 -0.001207 0.0
-0.044103 -0.003089 0.0
-0.043926 -0.005031 0.0
-0.043553 -0.007027 0.0
-0.042974 -0.009069 0.0
-0.042179 -0.011149 0.0
-0.041158 -0.013255 0.0
-0.039903 -0.015373 0.0
-0.038407 -0.017487 0.0
-0.036666 -0.019579 0.0
-0.034677 -0.021629 0.0
-0.032440 -0.023614 0.0
-0.029959 -0.025511 0.0
-0.027241 -0.027294 0.0
-0.024298 -0.028939 0.0
-0.021146 -0.030419 0.0
-0.017806 -0.031707 0.0
-0.014305 -0.032755 0.0
-0.010683 -0.033410 0.0
-0.007021 -0.033050 0.0
-0.003554 -0.029489 0.0
-0.000956 -0.016826 0.0
-0.000527 0.011757 0.0
-0.002055 0.022199 0.0
-0.004203 0.025439 0.0
-0.006526 0.026069 0.0
-0.008875 0.025985 0.0
-0.011208 0.025703 0.0
-0.013515 0.025330 0.0
-0.015788 0.024883 0.0
-0.018021 0.024364 0.0
-0.020209 0.023775 0.0
-0.022346 0.023115 0.0
-0.024428 0.022385 0.0
-0.026448 0.021585 0.0
-0.028403 0.020716 0.0
-0.030287 0.019777 0.0
-0.032094 0.018769 0.0
-0.033821 0.017690 0.0
-0.035461 0.016540 0.0
-0.037009 0.015318 0.0
-0.038461 0.014023 0.0
-0.039809 0.012655 0.0
-0.041048 0.011211 0.0
-0.042171 0.009692 0.0
-0.043171 0.008094 0.0
-0.044040 0.006418 0.0
-0.044770 0.004664 0.0
-0.045352 0.002830 0.0
-0.045776 0.000917 0.0
-0.046031 -0.001073 0.0
-0.046108 -0.003138 0.0
-0.045993 -0.005274 0.0
-0.045676 -0.007475 0.0
-0.045143 -0.009733 0.0
-0.044384 -0.012040 0.0
-0.043386 -0.014383 0.0
-0.042139 -0.016747 0.0
-0.040633 -0.019114 0.0
-0.038861 -0.021464 0.0
-0.036819 -0.023775 0.0
-0.034503 -0.026020 0.0
-0.031917 -0.028172 0.0
-0.029067 -0.030201 0.0
-0.025965 -0.032077 0.0
-0.022627 -0.033770 0.0
-0.019077 -0.035247 0.0
-0.015342 -0.036451 0.0
-0.011468 -0.037210 0.0
-0.007545 -0.036834 0.0
-0.003825 -0.032893 0.0
-0.001031 -0.018813 0.0
-0.000542 0.012826 0.0
-0.002116 0.024231 0.0
-0.004331 0.027770 0.0
-0.006729 0.028459 0.0
-0.009153 0.028368 0.0
-0.011562 0.028063 0.0
-0.013944 0.027659 0.0
-0.016291 0.027175 0.0
-0.018598 0.026613 0.0
-0.020859 0.025975 0.0
-0.023069 0.025262 0.0
-0.025223 0.024474 0.0
-0.027316 0.023610 0.0
-0.029343 0.022673 0.0
-0.031298 0.021660 0.0
-0.033179 0.020573 0.0
-0.034978 0.019411 0.0
-0.036692 0.018173 0.0
-0.038316 0.016857 0.0
-0.039844 0.015463 0.0
-0.041270 0.013989 0.0
-0.042588 0.012434 0.0
-0.043791 0.010796 0.0
-0.044873 0.009072 0.0
-0.045825 0.007262 0.0
-0.046639 0.005364 0.0
-0.047304 0.003377 0.0
-0.047811 0.001300 0.0
-0.048149 -0.000864 0.0
-0.048303 -0.003116 0.0
-0.048263 -0.005451 0.0
-0.048013 -0.007864 0.0
-0.047540 -0.010349 0.0
-0.046828 -0.012895 0.0
-0.045864 -0.015490 0.0
-0.044634 -0.018117 0.0
-0.043125 -0.020758 0.0
-0.041328 -0.023390 0.0
-0.039233 -0.025987 0.0
-0.036837 -0.028520 0.0
-0.034140 -0.030955 0.0
-0.031146 -0.033260 0.0
-0.027868 -0.035398 0.0
-0.024322 -0.037333 0.0
-0.020533 -0.039024 0.0
-0.016533 -0.040408 0.0
-0.012372 -0.041289 0.0
-0.008149 -0.040900 0.0
-0.004138 -0.036558 0.0
-0.001118 -0.020962 0.0
-0.000558 0.013926 0.0
-0.002181 0.026329 0.0
-0.004470 0.030177 0.0
-0.006948 0.030927 0.0
-0.009454 0.030830 0.0
-0.011945 0.030501 0.0
-0.014407 0.030065 0.0
-0.016834 0.029543 0.0
-0.019220 0.028938 0.0
-0.021560 0.028251 0.0
-0.023848 0.027484 0.0
-0.026079 0.026637 0.0
-0.028249 0.025710 0.0
-0.030353 0.024704 0.0
-0.032386 0.023618 0.0
-0.034344 0.022453 0.0
-0.036221 0.021209 0.0
-0.038015 0.019883 0.0
-0.039719 0.018475 0.0
-0.041328 0.016983 0.0
-0.042838 0.015405 0.0
-0.044242 0.013740 0.0
-0.045533 0.011985 0.0
-0.046705 0.010137 0.0
-0.047749 0.008193 0.0
-0.048655 0.006153 0.0
-0.049415 0.004013 0.0
-0.050017 0.001773 0.0
-0.050448 -0.000569 0.0
-0.050694 -0.003010 0.0
-0.050742 -0.005550 0.0
-0.050574 -0.008183 0.0
-0.050174 -0.010904 0.0
-0.049525 -0.013701 0.0
-0.048608 -0.016564 0.0
-0.047408 -0.019474 0.0
-0.045907 -0.022411 0.0
-0.044091 -0.025351 0.0
-0.041948 -0.028264 0.0
-0.039471 -0.031116 0.0
-0.036658 -0.033870 0.0
-0.033510 -0.036486 0.0
-0.030039 -0.038922 0.0
-0.026261 -0.041133 0.0
-0.022203 -0.043071 0.0
-0.017902 -0.044662 0.0
-0.013412 -0.045686 0.0
-0.008845 -0.045293 0.0
-0.004499 -0.040523 0.0
-0.001218 -0.023298 0.0
-0.000575 0.015059 0.0
-0.002252 0.028496 0.0
-0.004620 0.032667 0.0
-0.007185 0.033480 0.0
-0.009778 0.033376 0.0
-0.012356 0.033023 0.0
-0.014905 0.032554 0.0
-0.017418 0.031993 0.0
-0.019889 0.031344 0.0
-0.022312 0.030608 0.0
-0.024683 0.029786 0.0
-0.026997 0.028880 0.0
-0.029249 0.027889 0.0
-0.031434 0.026814 0.0
-0.033549 0.025656 0.0
-0.035589 0.024413 0.0
-0.037549 0.023087 0.0
-0.039426 0.021675 0.0
-0.041216 0.020176 0.0
-0.042913 0.018588 0.0
-0.044512 0.016909 0.0
-0.046008 0.015136 0.0
-0.047395 0.013266 0.0
-0.048664 0.011296 0.0
-0.049809 0.009222 0.0
-0.050819 0.007041 0.0
-0.051685 0.004750 0.0
-0.052393 0.002346 0.0
-0.052932 -0.000173 0.0
-0.053285 -0.002807 0.0
-0.053436 -0.005555 0.0
-0.053367 -0.008415 0.0
-0.053058 -0.011381 0.0
-0.052488 -0.014443 0.0
-0.051637 -0.017590 0.0
-0.050482 -0.020803 0.0
-0.049003 -0.024062 0.0
-0.047180 -0.027339 0.0
-0.044998 -0.030601 0.0
-0.042443 -0.033810 0.0
-0.039510 -0.036923 0.0
-0.036198 -0.039893 0.0
-0.032516 -0.042669 0.0
-0.028481 -0.045198 0.0
-0.024121 -0.047423 0.0
-0.019477 -0.049256 0.0
-0.014611 -0.050448 0.0
-0.009649 -0.050060 0.0
-0.004916 -0.044836 0.0
-0.001334 -0.025849 0.0
-0.000593 0.016227 0.0
-0.002328 0.030739 0.0
-0.004781 0.035245 0.0
-0.007439 0.036124 0.0
-0.010127 0.036014 0.0
-0.012798 0.035634 0.0
-0.015440 0.035132 0.0
-0.018044 0.034532 0.0
-0.020605 0.033838 0.0
-0.023118 0.033051 0.0
-0.025576 0.032174 0.0
-0.027977 0.031207 0.0
-0.030315 0.030151 0.0
-0.032586 0.029008 0.0
-0.034787 0.027777 0.0
-0.036912 0.026458 0.0
-0.038960 0.025051 0.0
-0.040926 0.023554 0.0
-0.042806 0.021966 0.0
-0.044595 0.020284 0.0
-0.046290 0.018507 0.0
-0.047885 0.016629 0.0
-0.049373 0.014648 0.0
-0.050749 0.012559 0.0
-0.052003 0.010358 0.0
-0.053128 0.008040 0.0
-0.054111 0.005600 0.0
-0.054940 0.003034 0.0
-0.055601 0.000339 0.0
-0.056077 -0.002489 0.0
-0.056350 -0.005449 0.0
-0.056399 -0.008541 0.0
-0.056202 -0.011761 0.0
-0.055734 -0.015101 0.0
-0.054968 -0.018549 0.0
-0.053880 -0.022088 0.0
-0.052442 -0.025695 0.0
-0.050629 -0.029341 0.0
-0.048419 -0.032990 0.0
-0.045794 -0.036600 0.0
-0.042741 -0.040119 0.0
-0.039257 -0.043493 0.0
-0.035346 -0.046661 0.0
-0.031026 -0.049561 0.0
-0.026327 -0.052121 0.0
-0.021293 -0.054237 0.0
-0.015997 -0.055629 0.0
-0.010579 -0.055258 0.0
-0.005400 -0.049548 0.0
-0.001468 -0.028651 0.0
-0.000613 0.017433 0.0
-0.002409 0.033064 0.0
-0.004953 0.037919 0.0
-0.007711 0.038866 0.0
-0.010500 0.038749 0.0
-0.013272 0.038343 0.0
-0.016012 0.037806 0.0
-0.018713 0.037164 0.0
-0.021370 0.036423 0.0
-0.023976 0.035585 0.0
-0.026528 0.034651 0.0
-0.029020 0.033623 0.0
-0.031448 0.032502 0.0
-0.033809 0.031289 0.0
-0.036099 0.029986 0.0
-0.038315 0.028591 0.0
-0.040453 0.027104 0.0
-0.042511 0.025524 0.0
-0.044485 0.023850 0.0
-0.046372 0.022077 0.0
-0.048168 0.020204 0.0
-0.049867 0.018226 0.0
-0.051465 0.016138 0.0
-0.052954 0.013935 0.0
-0.054328 0.011611 0.0
-0.055577 0.009160 0.0
-0.056690 0.006576 0.0
-0.057654 0.003852 0.0
-0.058454 0.000982 0.0
-0.059072 -0.002038 0.0
-0.059488 -0.005211 0.0
-0.059678 -0.008540 0.0
-0.059617 -0.012021 0.0
-0.059276 -0.015650 0.0
-0.058623 -0.019416 0.0
-0.057628 -0.023304 0.0
-0.056256 -0.027289 0.0
-0.054476 -0.031341 0.0
-0.052256 -0.035420 0.0
-0.049572 -0.039479 0.0
-0.046404 -0.043460 0.0
-0.042741 -0.047299 0.0
-0.038585 -0.050922 0.0
-0.033952 -0.054253 0.0
-0.028872 -0.057208 0.0
-0.023395 -0.059660 0.0
-0.017604 -0.061293 0.0
-0.011660 -0.060956 0.0
-0.005964 -0.054725 0.0
-0.001625 -0.031745 0.0
-0.000634 0.018679 0.0
-0.002495 0.035475 0.0
-0.005138 0.040694 0.0
-0.008003 0.041713 0.0
-0.010900 0.041588 0.0
-0.013778 0.041154 0.0
-0.016623 0.040580 0.0
-0.019427 0.039895 0.0
-0.022185 0.039106 0.0
-0.024890 0.038214 0.0
-0.027538 0.037221 0.0
-0.030126 0.036131 0.0
-0.032648 0.034944 0.0
-0.035102 0.033662 0.0
-0.037485 0.032286 0.0
-0.039794 0.030816 0.0
-0.042027 0.029251 0.0
-0.044180 0.027590 0.0
-0.046253 0.025831 0.0
-0.048241 0.023971 0.0
-0.050141 0.022006 0.0
-0.051951 0.019932 0.0
-0.053664 0.017743 0.0
-0.055276 0.015431 0.0
-0.056778 0.012991 0.0
-0.058163 0.010414 0.0
-0.059419 0.007691 0.0
-0.060533 0.004815 0.0
-0.061490 0.001776 0.0
-0.062270 -0.001433 0.0
-0.062852 -0.004819 0.0
-0.063209 -0.008385 0.0
-0.063312 -0.012134 0.0
-0.063129 -0.016062 0.0
-0.062622 -0.020163 0.0
-0.061752 -0.024422 0.0
-0.060479 -0.028815 0.0
-0.058761 -0.033313 0.0
-0.056558 -0.037871 0.0
-0.053834 -0.042437 0.0
-0.050560 -0.046945 0.0
-0.046718 -0.051319 0.0
-0.042303 -0.055473 0.0
-0.037326 -0.059313 0.0
-0.031818 -0.062736 0.0
-0.025837 -0.065591 0.0
-0.019476 -0.067514 0.0
-0.012921 -0.067234 0.0
-0.006622 -0.060442 0.0
-0.001809 -0.035180 0.0
-0.000656 0.019969 0.0
-0.002588 0.037980 0.0
-0.005336 0.043579 0.0
-0.008315 0.044671 0.0
-0.011327 0.044538 0.0
-0.014318 0.044074 0.0
-0.017275 0.043461 0.0
-0.020188 0.042732 0.0
-0.023052 0.041891 0.0
-0.025861 0.040943 0.0
-0.028610 0.039890 0.0
-0.031297 0.038736 0.0
-0.033917 0.037481 0.0
-0.036467 0.036129 0.0
-0.038945 0.034680 0.0
-0.041350 0.033135 0.0
-0.043679 0.031493 0.0
-0.045931 0.029753 0.0
-0.048104 0.027913 0.0
-0.050197 0.025969 0.0
-0.052206 0.023918 0.0
-0.054131 0.021754 0.0
-0.055965 0.019469 0.0
-0.057706 0.017057 0.0
-0.059346 0.014508 0.0
-0.060877 0.011813 0.0
-0.062289 0.008961 0.0
-0.063570 0.005940 0.0
-0.064702 0.002740 0.0
-0.065667 -0.000652 0.0
-0.066440 -0.004245 0.0
-0.066994 -0.008048 0.0
-0.067295 -0.012067 0.0
-0.067305 -0.016303 0.0
-0.066983 -0.020752 0.0
-0.066280 -0.025405 0.0
-0.065147 -0.030239 0.0
-0.063531 -0.035223 0.0
-0.061380 -0.040314 0.0
-0.058646 -0.045452 0.0
-0.055286 -0.050563 0.0
-0.051269 -0.055558 0.0
-0.046583 -0.060335 0.0
-0.041231 -0.064780 0.0
-0.035245 -0.068763 0.0
-0.028687 -0.072103 0.0
-0.021667 -0.074382 0.0
-0.014400 -0.074188 0.0
-0.007396 -0.066791 0.0
-0.002025 -0.039014 0.0
-0.000680 0.021305 0.0
-0.002688 0.040584 0.0
-0.005548 0.046581 0.0
-0.008649 0.047750 0.0
-0.011783 0.047606 0.0
-0.014896 0.047110 0.0
-0.017970 0.046456 0.0
-0.020998 0.045678 0.0
-0.023973 0.044784 0.0
-0.026891 0.043777 0.0
-0.029746 0.042661 0.0
-0.032535 0.041440 0.0
-0.035255 0.040117 0.0
-0.037903 0.038693 0.0
-0.040479 0.037171 0.0
-0.042981 0.035551 0.0
-0.045409 0.033833 0.0
-0.047760 0.032016 0.0
-0.050036 0.030098 0.0
-0.052235 0.028076 0.0
-0.054357 0.025943 0.0
-0.056400 0.023695 0.0
-0.058361 0.021323 0.0
-0.060236 0.018819 0.0
-0.062022 0.016172 0.0
-0.063710 0.013369 0.0
-0.065292 0.010398 0.0
-0.066755 0.007245 0.0
-0.068082 0.003894 0.0
-0.069255 0.000331 0.0
-0.070248 -0.003461 0.0
-0.071031 -0.007495 0.0
-0.071567 -0.011782 0.0
-0.071815 -0.016329 0.0
-0.071724 -0.021139 0.0
-0.071239 -0.026206 0.0
-0.070298 -0.031512 0.0
-0.068836 -0.037028 0.0
-0.066786 -0.042710 0.0
-0.064083 -0.048494 0.0
-0.060667 -0.054297 0.0
-0.056491 -0.060016 0.0
-0.051527 -0.065529 0.0
-0.045771 -0.070695 0.0
-0.039251 -0.075354 0.0
-0.032034 -0.079286 0.0
-0.024249 -0.082004 0.0
-0.016147 -0.081935 0.0
-0.008311 -0.073884 0.0
-0.002281 -0.043321 0.0
-0.000706 0.022691 0.0
-0.002795 0.043296 0.0
-0.005775 0.049709 0.0
-0.009007 0.050956 0.0
-0.012272 0.050800 0.0
-0.015513 0.050269 0.0
-0.018712 0.049570 0.0
-0.021861 0.048740 0.0
-0.024953 0.047788 0.0
-0.027983 0.046719 0.0
-0.030947 0.045537 0.0
-0.033841 0.044247 0.0
-0.036664 0.042852 0.0
-0.039413 0.041355 0.0
-0.042087 0.039759 0.0
-0.044688 0.038065 0.0
-0.047213 0.036272 0.0
-0.049666 0.034381 0.0
-0.052045 0.032389 0.0
-0.054352 0.030292 0.0
-0.056587 0.028084 0.0
-0.058750 0.025760 0.0
-0.060841 0.023310 0.0
-0.062857 0.020724 0.0
-0.064796 0.017990 0.0
-0.066650 0.015094 0.0
-0.068413 0.012019 0.0
-0.070074 0.008748 0.0
-0.071617 0.005262 0.0
-0.073023 0.001541 0.0
-0.074265 -0.002436 0.0
-0.075314 -0.006689 0.0
-0.076129 -0.011236 0.0
-0.076663 -0.016094 0.0
-0.076859 -0.021270 0.0
-0.076653 -0.026767 0.0
-0.075970 -0.032574 0.0
-0.074729 -0.038668 0.0
-0.072846 -0.045004 0.0
-0.070233 -0.051517 0.0
-0.066808 -0.058115 0.0
-0.062502 -0.064680 0.0
-0.057265 -0.071065 0.0
-0.051078 -0.077101 0.0
-0.043962 -0.082585 0.0
-0.035990 -0.087244 0.0
-0.027311 -0.090510 0.0
-0.018223 -0.090620 0.0
-0.009400 -0.081859 0.0
-0.002586 -0.048189 0.0
-0.000733 0.024130 0.0
-0.002910 0.046123 0.0
-0.006019 0.052970 0.0
-0.009391 0.054298 0.0
-0.012796 0.054129 0.0
-0.016173 0.053558 0.0
-0.019504 0.052811 0.0
-0.022780 0.051925 0.0
-0.025994 0.050911 0.0
-0.029142 0.049775 0.0
-0.032218 0.048522 0.0
-0.035220 0.047159 0.0
-0.038147 0.045689 0.0
-0.040996 0.044117 0.0
-0.043770 0.042445 0.0
-0.046468 0.040676 0.0
-0.049092 0.038810 0.0
-0.051644 0.036847 0.0
-0.054126 0.034784 0.0
-0.056540 0.032618 0.0
-0.058889 0.030342 0.0
-0.061174 0.027951 0.0
-0.063396 0.025433 0.0
-0.065557 0.022778 0.0
-0.067653 0.019971 0.0
-0.069682 0.016996 0.0
-0.071638 0.013835 0.0
-0.073511 0.010466 0.0
-0.075289 0.006865 0.0
-0.076953 0.003007 0.0
-0.078478 -0.001134 0.0
-0.079831 -0.005588 0.0
-0.080972 -0.010382 0.0
-0.081848 -0.015539 0.0
-0.082397 -0.021080 0.0
-0.082543 -0.027017 0.0
-0.082199 -0.033351 0.0
-0.081266 -0.040065 0.0
-0.079635 -0.047121 0.0
-0.077194 -0.054454 0.0
-0.073830 -0.061966 0.0
-0.069442 -0.069522 0.0
-0.063953 -0.076950 0.0
-0.057317 -0.084039 0.0
-0.049542 -0.090537 0.0
-0.040703 -0.096103 0.0
-0.030974 -0.100059 0.0
-0.020712 -0.100421 0.0
-0.010706 -0.090888 0.0
-0.002952 -0.053727 0.0
-0.000763 0.025627 0.0
-0.003035 0.049074 0.0
-0.006282 0.056376 0.0
-0.009805 0.057787 0.0
-0.013359 0.057600 0.0
-0.016881 0.056986 0.0
-0.020352 0.056184 0.0
-0.023761 0.055236 0.0
-0.027103 0.054154 0.0
-0.030371 0.052946 0.0
-0.033563 0.051618 0.0
-0.036674 0.050177 0.0
-0.039706 0.048629 0.0
-0.042657 0.046978 0.0
-0.045528 0.045229 0.0
-0.048323 0.043385 0.0
-0.051043 0.041446 0.0
-0.053692 0.039413 0.0
-0.056274 0.037283 0.0
-0.058794 0.035053 0.0
-0.061254 0.032717 0.0
-0.063660 0.030267 0.0
-0.066014 0.027693 0.0
-0.068319 0.024983 0.0
-0.070577 0.022120 0.0
-0.072786 0.019086 0.0
-0.074944 0.015859 0.0
-0.077044 0.012415 0.0
-0.079075 0.008725 0.0
-0.081022 0.004758 0.0
-0.082862 0.000479 0.0
-0.084561 -0.004149 0.0
-0.086079 -0.009163 0.0