# vtk DataFile Version 3.0
Vector Field
ASCII
DATASET RECTILINEAR_GRID
DIMENSIONS 50 50 1
X_COORDINATES 50 double
0.100000 0.300000 0.500000 0.700000 0.900000 1.100000 1.300000 1.500000 1.700000 1.900000 2.100000 2.300000 2.500000 2.700000 2.900000 3.100000 3.300000 3.500000 3.700000 3.900000 4.100000 4.300000 4.500000 4.700000 4.900000 5.100000 5.300000 5.500000 5.700000 5.900000 6.100000 6.300000 6.500000 6.700000 6.900000 7.100000 7.300000 7.500000 7.700000 7.900000 8.100000 8.300000 8.500000 8.700000 8.900000 9.100000 9.300000 9.500000 9.700000 9.900000 
Y_COORDINATES 50 double
0.100000 0.300000 0.500000 0.700000 0.900000 1.100000 1.300000 1.500000 1.700000 1.900000 2.100000 2.300000 2.500000 2.700000 2.900000 3.100000 3.300000 3.500000 3.700000 3.900000 4.100000 4.300000 4.500000 4.700000 4.900000 5.100000 5.300000 5.500000 5.700000 5.900000 6.100000 6.300000 6.500000 6.700000 6.900000 7.100000 7.300000 7.500000 7.700000 7.900000 8.100000 8.300000 8.500000 8.700000 8.900000 9.100000 9.300000 9.500000 9.700000 9.900000 
Z_COORDINATES 1 double
0.0
POINT_DATA 2500
VECTORS Vektorfeld double
-0.000166 0.000166 0.0
-0.000746 0.000414 0.0
-0.001685 0.000524 0.0
-0.002767 0.000559 0.0
-0.003891 0.000565 0.0
-0.005022 0.000565 0.0
-0.006150 0.000563 0.0
-0.007273 0.000561 0.0
-0.008392 0.000558 0.0
-0.009505 0.000555 0.0
-0.010610 0.000551 0.0
-0.011707 0.000546 0.0
-0.012794 0.000540 0.0
-0.013867 0.000533 0.0
-0.014925 0.000525 0.0
-0.015964 0.000514 0.0
-0.016980 0.000502 0.0
-0.017970 0.000488 0.0
-0.018930 0.000471 0.0
-0.019854 0.000452 0.0
-0.020736 0.000430 0.0
-0.021571 0.000405 0.0
-0.022353 0.000376 0.0
-0.023072 0.000344 0.0
-0.023723 0.000307 0.0
-0.024297 0.000266 0.0
-0.024784 0.000221 0.0
-0.025177 0.000172 0.0
-0.025466 0.000117 0.0
-0.025642 0.000058 0.0
-0.025695 -0.000005 0.0
-0.025617 -0.000073 0.0
-0.025399 -0.000145 0.0
-0.025032 -0.000222 0.0
-0.024508 -0.000302 0.0
-0.023821 -0.000384 0.0
-0.022969 -0.000468 0.0
-0.021947 -0.000553 0.0
-0.020757 -0.000637 0.0
-0.019399 -0.000720 0.0
-0.017880 -0.000800 0.0
-0.016206 -0.000875 0.0
-0.014387 -0.000944 0.0
-0.012435 -0.001007 0.0
-0.010368 -0.001061 0.0
-0.008205 -0.001102 0.0
-0.005982 -0.001120 0.0
-0.003780 -0.001082 0.0
-0.001791 -0.000908 0.0
-0.000442 -0.000442 0.0
-0.000425 0.000757 0.0
-0.001683 0.001662 0.0
-0.003532 0.002063 0.0
-0.005627 0.002198 0.0
-0.007804 0.002228 0.0
-0.009998 0.002226 0.0
-0.012185 0.002216 0.0
-0.014357 0.002203 0.0
-0.016511 0.002188 0.0
-0.018643 0.002170 0.0
-0.020750 0.002148 0.0
-0.022825 0.002122 0.0
-0.024866 0.002092 0.0
-0.026867 0.002056 0.0
-0.028822 0.002014 0.0
-0.030725 0.001966 0.0
-0.032568 0.001911 0.0
-0.034346 0.001847 0.0
-0.036048 0.001775 0.0
-0.037667 0.001692 0.0
-0.039193 0.001599 0.0
-0.040615 0.001494 0.0
-0.041923 0.001376 0.0
-0.043103 0.001244 0.0
-0.044144 0.001099 0.0
-0.045033 0.000937 0.0
-0.045756 0.000761 0.0
-0.046299 0.000568 0.0
-0.046647 0.000358 0.0
-0.046788 0.000133 0.0
-0.046706 -0.000108 0.0
-0.046388 -0.000365 0.0
-0.045821 -0.000638 0.0
-0.044996 -0.000923 0.0
-0.043903 -0.001218 0.0
-0.042534 -0.001522 0.0
-0.040887 -0.001831 0.0
-0.038959 -0.002141 0.0
-0.036752 -0.002448 0.0
-0.034271 -0.002747 0.0
-0.031527 -0.003036 0.0
-0.028533 -0.003307 0.0
-0.025305 -0.003558 0.0
-0.021867 -0.003783 0.0
-0.018244 -0.003975 0.0
-0.014476 -0.004120 0.0
-0.010625 -0.004175 0.0
-0.006825 -0.004029 0.0
-0.003365 -0.003410 0.0
-0.000885 -0.001769 0.0
-0.000549 0.001730 0.0
-0.002131 0.003530 0.0
-0.004402 0.004314 0.0
-0.006945 0.004585 0.0
-0.009577 0.004649 0.0
-0.012225 0.004646 0.0
-0.014863 0.004622 0.0
-0.017481 0.004588 0.0
-0.020072 0.004548 0.0
-0.022631 0.004501 0.0
-0.025152 0.004445 0.0
-0.027630 0.004379 0.0
-0.030059 0.004304 0.0
-0.032432 0.004217 0.0
-0.034742 0.004118 0.0
-0.036982 0.004005 0.0
-0.039144 0.003877 0.0
-0.041218 0.003732 0.0
-0.043195 0.003569 0.0
-0.045065 0.003386 0.0
-0.046817 0.003182 0.0
-0.048439 0.002954 0.0
-0.049918 0.002702 0.0
-0.051242 0.002423 0.0
-0.052397 0.002116 0.0
-0.053367 0.001779 0.0
-0.054138 0.001413 0.0
-0.054695 0.001015 0.0
-0.055022 0.000586 0.0
-0.055103 0.000127 0.0
-0.054924 -0.000363 0.0
-0.054470 -0.000882 0.0
-0.053730 -0.001428 0.0
-0.052692 -0.001996 0.0
-0.051348 -0.002583 0.0
-0.049689 -0.003184 0.0
-0.047713 -0.003793 0.0
-0.045418 -0.004402 0.0
-0.042808 -0.005004 0.0
-0.039889 -0.005590 0.0
-0.036673 -0.006153 0.0
-0.033176 -0.006682 0.0
-0.029417 -0.007170 0.0
-0.025421 -0.007606 0.0
-0.021221 -0.007975 0.0
-0.016858 -0.008250 0.0
-0.012405 -0.008348 0.0
-0.008005 -0.008057 0.0
-0.003974 -0.006871 0.0
-0.001053 -0.003708 0.0
-0.000594 0.002873 0.0
-0.002304 0.005681 0.0
-0.004747 0.006877 0.0
-0.007470 0.007289 0.0
-0.010280 0.007387 0.0
-0.013104 0.007380 0.0
-0.015916 0.007337 0.0
-0.018704 0.007279 0.0
-0.021462 0.007207 0.0
-0.024184 0.007122 0.0
-0.026863 0.007024 0.0
-0.029494 0.006910 0.0
-0.032070 0.006779 0.0
-0.034585 0.006630 0.0
-0.037030 0.006461 0.0
-0.039397 0.006270 0.0
-0.041679 0.006055 0.0
-0.043866 0.005815 0.0
-0.045948 0.005546 0.0
-0.047915 0.005246 0.0
-0.049754 0.004914 0.0
-0.051455 0.004546 0.0
-0.053004 0.004139 0.0
-0.054387 0.003693 0.0
-0.055591 0.003204 0.0
-0.056600 0.002670 0.0
-0.057398 0.002091 0.0
-0.057971 0.001466 0.0
-0.058301 0.000793 0.0
-0.058374 0.000074 0.0
-0.058173 -0.000690 0.0
-0.057684 -0.001497 0.0
-0.056893 -0.002343 0.0
-0.055790 -0.003222 0.0
-0.054364 -0.004128 0.0
-0.052608 -0.005054 0.0
-0.050517 -0.005990 0.0
-0.048090 -0.006926 0.0
-0.045330 -0.007850 0.0
-0.042244 -0.008749 0.0
-0.038844 -0.009610 0.0
-0.035146 -0.010421 0.0
-0.031171 -0.011166 0.0
-0.026945 -0.011831 0.0
-0.022502 -0.012394 0.0
-0.017887 -0.012809 0.0
-0.013172 -0.012956 0.0
-0.008505 -0.012517 0.0
-0.004221 -0.010726 0.0
-0.001117 -0.005878 0.0
-0.000607 0.004073 0.0
-0.002361 0.007945 0.0
-0.004870 0.009565 0.0
-0.007664 0.010118 0.0
-0.010544 0.010248 0.0
-0.013435 0.010235 0.0
-0.016313 0.010172 0.0
-0.019167 0.010086 0.0
-0.021990 0.009981 0.0
-0.024776 0.009856 0.0
-0.027518 0.009712 0.0
-0.030212 0.009546 0.0
-0.032849 0.009356 0.0
-0.035424 0.009141 0.0
-0.037929 0.008899 0.0
-0.040355 0.008626 0.0
-0.042694 0.008321 0.0
-0.044938 0.007980 0.0
-0.047076 0.007601 0.0
-0.049097 0.007180 0.0
-0.050991 0.006714 0.0
-0.052745 0.006200 0.0
-0.054345 0.005635 0.0
-0.055780 0.005015 0.0
-0.057032 0.004338 0.0
-0.058088 0.003601 0.0
-0.058932 0.002803 0.0
-0.059547 0.001941 0.0
-0.059916 0.001017 0.0
-0.060022 0.000029 0.0
-0.059851 -0.001019 0.0
-0.059384 -0.002124 0.0
-0.058609 -0.003281 0.0
-0.057511 -0.004484 0.0
-0.056080 -0.005723 0.0
-0.054306 -0.006989 0.0
-0.052184 -0.008268 0.0
-0.049711 -0.009547 0.0
-0.046890 -0.010809 0.0
-0.043726 -0.012038 0.0
-0.040232 -0.013216 0.0
-0.036422 -0.014323 0.0
-0.032320 -0.015341 0.0
-0.027952 -0.016249 0.0
-0.023353 -0.017017 0.0
-0.018569 -0.017584 0.0
-0.013677 -0.017788 0.0
-0.008829 -0.017200 0.0
-0.004376 -0.014780 0.0
-0.001155 -0.008150 0.0
-0.000610 0.005290 0.0
-0.002381 0.010253 0.0
-0.004920 0.012306 0.0
-0.007748 0.012999 0.0
-0.010662 0.013160 0.0
-0.013588 0.013140 0.0
-0.016500 0.013057 0.0
-0.019388 0.012943 0.0
-0.022245 0.012804 0.0
-0.025067 0.012640 0.0
-0.027846 0.012450 0.0
-0.030577 0.012232 0.0
-0.033253 0.011984 0.0
-0.035867 0.011703 0.0
-0.038414 0.011387 0.0
-0.040883 0.011033 0.0
-0.043268 0.010638 0.0
-0.045559 0.010197 0.0
-0.047747 0.009708 0.0
-0.049821 0.009167 0.0
-0.051769 0.008569 0.0
-0.053580 0.007910 0.0
-0.055241 0.007186 0.0
-0.056737 0.006394 0.0
-0.058054 0.005529 0.0
-0.059175 0.004588 0.0
-0.060085 0.003569 0.0
-0.060767 0.002471 0.0
-0.061201 0.001291 0.0
-0.061372 0.000032 0.0
-0.061260 -0.001305 0.0
-0.060849 -0.002715 0.0
-0.060121 -0.004193 0.0
-0.059061 -0.005729 0.0
-0.057657 -0.007314 0.0
-0.055897 -0.008933 0.0
-0.053773 -0.010571 0.0
-0.051281 -0.012209 0.0
-0.048421 -0.013828 0.0
-0.045199 -0.015405 0.0
-0.041625 -0.016917 0.0
-0.037716 -0.018340 0.0
-0.033493 -0.019649 0.0
-0.028985 -0.020817 0.0
-0.024228 -0.021805 0.0
-0.019271 -0.022536 0.0
-0.014196 -0.022804 0.0
-0.009162 -0.022066 0.0
-0.004538 -0.018990 0.0
-0.001197 -0.010502 0.0
-0.000612 0.006512 0.0
-0.002393 0.012582 0.0
-0.004953 0.015075 0.0
-0.007806 0.015912 0.0
-0.010748 0.016103 0.0
-0.013701 0.016076 0.0
-0.016641 0.015973 0.0
-0.019558 0.015832 0.0
-0.022446 0.015660 0.0
-0.025298 0.015458 0.0
-0.028110 0.015224 0.0
-0.030876 0.014955 0.0
-0.033590 0.014650 0.0
-0.036244 0.014306 0.0
-0.038833 0.013919 0.0
-0.041348 0.013486 0.0
-0.043782 0.013004 0.0
-0.046126 0.012467 0.0
-0.048370 0.011871 0.0
-0.050504 0.011212 0.0
-0.052518 0.010485 0.0
-0.054398 0.009685 0.0
-0.056132 0.008806 0.0
-0.057705 0.007844 0.0
-0.059103 0.006793 0.0
-0.060309 0.005651 0.0
-0.061305 0.004413 0.0
-0.062074 0.003077 0.0
-0.062596 0.001642 0.0
-0.062853 0.000108 0.0
-0.062823 -0.001522 0.0
-0.062489 -0.003244 0.0
-0.061830 -0.005051 0.0
-0.060829 -0.006932 0.0
-0.059469 -0.008875 0.0
-0.057737 -0.010864 0.0
-0.055623 -0.012879 0.0
-0.053119 -0.014897 0.0
-0.050224 -0.016895 0.0
-0.046941 -0.018843 0.0
-0.043280 -0.020714 0.0
-0.039257 -0.022476 0.0
-0.034893 -0.024099 0.0
-0.030220 -0.025548 0.0
-0.025275 -0.026776 0.0
-0.020113 -0.027685 0.0
-0.014818 -0.028025 0.0
-0.009563 -0.027133 0.0
-0.004735 -0.023374 0.0
-0.001248 -0.012947 0.0
-0.000615 0.007739 0.0
-0.002406 0.014928 0.0
-0.004987 0.017868 0.0
-0.007866 0.018851 0.0
-0.010836 0.019074 0.0
-0.013818 0.019041 0.0
-0.016789 0.018919 0.0
-0.019737 0.018751 0.0
-0.022657 0.018548 0.0
-0.025544 0.018309 0.0
-0.028393 0.018033 0.0
-0.031198 0.017717 0.0
-0.033953 0.017358 0.0
-0.036652 0.016953 0.0
-0.039289 0.016498 0.0
-0.041857 0.015990 0.0
-0.044347 0.015424 0.0
-0.046752 0.014795 0.0
-0.049063 0.014098 0.0
-0.051269 0.013326 0.0
-0.053359 0.012475 0.0
-0.055321 0.011538 0.0
-0.057143 0.010509 0.0
-0.058810 0.009381 0.0
-0.060305 0.008149 0.0
-0.061613 0.006809 0.0
-0.062715 0.005354 0.0
-0.063592 0.003782 0.0
-0.064222 0.002090 0.0
-0.064586 0.000279 0.0
-0.064660 -0.001649 0.0
-0.064422 -0.003690 0.0
-0.063852 -0.005835 0.0
-0.062926 -0.008074 0.0
-0.061627 -0.010392 0.0
-0.059936 -0.012770 0.0
-0.057839 -0.015184 0.0
-0.055327 -0.017608 0.0
-0.052395 -0.020011 0.0
-0.049044 -0.022361 0.0
-0.045281 -0.024620 0.0
-0.041123 -0.026752 0.0
-0.036592 -0.028718 0.0
-0.031720 -0.030475 0.0
-0.026549 -0.031965 0.0
-0.021137 -0.033071 0.0
-0.015577 -0.033494 0.0
-0.010053 -0.032443 0.0
-0.004978 -0.027967 0.0
-0.001312 -0.015507 0.0
-0.000617 0.008971 0.0
-0.002422 0.017293 0.0
-0.005025 0.020688 0.0
-0.007934 0.021820 0.0
-0.010935 0.022076 0.0
-0.013951 0.022038 0.0
-0.016955 0.021897 0.0
-0.019939 0.021705 0.0
-0.022897 0.021472 0.0
-0.025823 0.021199 0.0
-0.028713 0.020882 0.0
-0.031562 0.020521 0.0
-0.034365 0.020111 0.0
-0.037115 0.019649 0.0
-0.039807 0.019131 0.0
-0.042435 0.018552 0.0
-0.044990 0.017908 0.0
-0.047465 0.017192 0.0
-0.049852 0.016398 0.0
-0.052140 0.015520 0.0
-0.054319 0.014551 0.0
-0.056377 0.013483 0.0
-0.058301 0.012309 0.0
-0.060077 0.011022 0.0
-0.061687 0.009615 0.0
-0.063116 0.008080 0.0
-0.064343 0.006412 0.0
-0.065348 0.004605 0.0
-0.066109 0.002658 0.0
-0.066601 0.000568 0.0
-0.066801 -0.001663 0.0
-0.066684 -0.004031 0.0
-0.066222 -0.006526 0.0
-0.065393 -0.009138 0.0
-0.064171 -0.011850 0.0
-0.062535 -0.014639 0.0
-0.060467 -0.017479 0.0
-0.057952 -0.020339 0.0
-0.054981 -0.023182 0.0
-0.051554 -0.025968 0.0
-0.047676 -0.028653 0.0
-0.043360 -0.031192 0.0
-0.038632 -0.033537 0.0
-0.033523 -0.035636 0.0
-0.028081 -0.037417 0.0
-0.022369 -0.038743 0.0
-0.016490 -0.039261 0.0
-0.010644 -0.038046 0.0
-0.005271 -0.032813 0.0
-0.001389 -0.018208 0.0
-0.000621 0.010209 0.0
-0.002439 0.019678 0.0
-0.005070 0.023537 0.0
-0.008011 0.024822 0.0
-0.011048 0.025112 0.0
-0.014101 0.025070 0.0
-0.017143 0.024912 0.0
-0.020167 0.024697 0.0
-0.023166 0.024436 0.0
-0.026136 0.024130 0.0
-0.029073 0.023777 0.0
-0.031971 0.023374 0.0
-0.034827 0.022916 0.0
-0.037634 0.022402 0.0
-0.040388 0.021825 0.0
-0.043083 0.021180 0.0
-0.045711 0.020463 0.0
-0.048265 0.019666 0.0
-0.050737 0.018782 0.0
-0.053118 0.017805 0.0
-0.055398 0.016725 0.0
-0.057565 0.015534 0.0
-0.059606 0.014223 0.0
-0.061506 0.012784 0.0
-0.063250 0.011207 0.0
-0.064818 0.009484 0.0
-0.066192 0.007607 0.0
-0.067347 0.005570 0.0
-0.068262 0.003368 0.0
-0.068908 0.000997 0.0
-0.069260 -0.001541 0.0
-0.069287 -0.004243 0.0
-0.068961 -0.007101 0.0
-0.068251 -0.010103 0.0
-0.067128 -0.013230 0.0
-0.065566 -0.016457 0.0
-0.063540 -0.019755 0.0
-0.061031 -0.023087 0.0
-0.058025 -0.026410 0.0
-0.054516 -0.029676 0.0
-0.050507 -0.032833 0.0
-0.046011 -0.035824 0.0
-0.041052 -0.038593 0.0
-0.035666 -0.041075 0.0
-0.029903 -0.043184 0.0
-0.023835 -0.044757 0.0
-0.017576 -0.045384 0.0
-0.011347 -0.043998 0.0
-0.005618 -0.037963 0.0
-0.001481 -0.021078 0.0
-0.000624 0.011454 0.0
-0.002459 0.022087 0.0
-0.005119 0.026418 0.0
-0.008097 0.027860 0.0
-0.011173 0.028187 0.0
-0.014267 0.028142 0.0
-0.017352 0.027968 0.0
-0.020419 0.027732 0.0
-0.023464 0.027446 0.0
-0.026483 0.027110 0.0
-0.029470 0.026722 0.0
-0.032423 0.026280 0.0
-0.035337 0.025780 0.0
-0.038207 0.025216 0.0
-0.041029 0.024586 0.0
-0.043797 0.023881 0.0
-0.046505 0.023098 0.0
-0.049146 0.022227 0.0
-0.051713 0.021261 0.0
-0.054198 0.020192 0.0
-0.056590 0.019010 0.0
-0.058879 0.017705 0.0
-0.061051 0.016266 0.0
-0.063093 0.014684 0.0
-0.064988 0.012946 0.0
-0.066716 0.011043 0.0
-0.068257 0.008964 0.0
-0.069588 0.006700 0.0
-0.070682 0.004246 0.0
-0.071510 0.001594 0.0
-0.072042 -0.001255 0.0
-0.072244 -0.004300 0.0
-0.072083 -0.007533 0.0
-0.071521 -0.010943 0.0
-0.070525 -0.014509 0.0
-0.069061 -0.018205 0.0
-0.067097 -0.021998 0.0
-0.064606 -0.025844 0.0
-0.061570 -0.029695 0.0
-0.057977 -0.033493 0.0
-0.053825 -0.037176 0.0
-0.049125 -0.040677 0.0
-0.043901 -0.043924 0.0
-0.038191 -0.046840 0.0
-0.032052 -0.049321 0.0
-0.025565 -0.051175 0.0
-0.018858 -0.051930 0.0
-0.012175 -0.050366 0.0
-0.006027 -0.043471 0.0
-0.001588 -0.024146 0.0
-0.000628 0.012706 0.0
-0.002480 0.024521 0.0
-0.005172 0.029336 0.0
-0.008190 0.030938 0.0
-0.011309 0.031304 0.0
-0.014448 0.031257 0.0
-0.017579 0.031070 0.0
-0.020694 0.030814 0.0
-0.023789 0.030504 0.0
-0.026860 0.030140 0.0
-0.029902 0.029722 0.0
-0.032914 0.029245 0.0
-0.035891 0.028705 0.0
-0.038829 0.028099 0.0
-0.041723 0.027420 0.0
-0.044571 0.026662 0.0
-0.047365 0.025819 0.0
-0.050101 0.024882 0.0
-0.052772 0.023843 0.0
-0.055370 0.022692 0.0
-0.057885 0.021418 0.0
-0.060309 0.020009 0.0
-0.062627 0.018453 0.0
-0.064827 0.016738 0.0
-0.066891 0.014850 0.0
-0.068801 0.012776 0.0
-0.070534 0.010504 0.0
-0.072065 0.008022 0.0
-0.073368 0.005320 0.0
-0.074409 0.002389 0.0
-0.075154 -0.000773 0.0
-0.075566 -0.004167 0.0
-0.075604 -0.007789 0.0
-0.075226 -0.011625 0.0
-0.074391 -0.015658 0.0
-0.073055 -0.019857 0.0
-0.071179 -0.024186 0.0
-0.068728 -0.028597 0.0
-0.065674 -0.033033 0.0
-0.061997 -0.037426 0.0
-0.057691 -0.041702 0.0
-0.052763 -0.045779 0.0
-0.047237 -0.049572 0.0
-0.041153 -0.052985 0.0
-0.034576 -0.055893 0.0
-0.027596 -0.058070 0.0
-0.020362 -0.058975 0.0
-0.013145 -0.057222 0.0
-0.006505 -0.049402 0.0
-0.001713 -0.027447 0.0
-0.000632 0.013966 0.0
-0.002503 0.026984 0.0
-0.005230 0.032293 0.0
-0.008291 0.034060 0.0
-0.011457 0.034466 0.0
-0.014643 0.034419 0.0
-0.017824 0.034219 0.0
-0.020990 0.033946 0.0
-0.024138 0.033614 0.0
-0.027264 0.033227 0.0
-0.030366 0.032780 0.0
-0.033440 0.032272 0.0
-0.036483 0.031698 0.0
-0.039493 0.031054 0.0
-0.042465 0.030333 0.0
-0.045397 0.029529 0.0
-0.048284 0.028634 0.0
-0.051122 0.027641 0.0
-0.053904 0.026538 0.0
-0.056624 0.025315 0.0
-0.059273 0.023960 0.0
-0.061843 0.022460 0.0
-0.064322 0.020800 0.0
-0.066696 0.018965 0.0
-0.068949 0.016940 0.0
-0.071062 0.014709 0.0
-0.073012 0.012255 0.0
-0.074773 0.009564 0.0
-0.076314 0.006622 0.0
-0.077603 0.003417 0.0
-0.078599 -0.000059 0.0
-0.079260 -0.003808 0.0
-0.079541 -0.007830 0.0
-0.079390 -0.012113 0.0
-0.078757 -0.016639 0.0
-0.077589 -0.021379 0.0
-0.075837 -0.026292 0.0
-0.073453 -0.031325 0.0
-0.070399 -0.036412 0.0
-0.066647 -0.041475 0.0
-0.062180 -0.046425 0.0
-0.057001 -0.051163 0.0
-0.051133 -0.055583 0.0
-0.044619 -0.059571 0.0
-0.037530 -0.062973 0.0
-0.029975 -0.065525 0.0
-0.022122 -0.066607 0.0
-0.014277 -0.064654 0.0
-0.007060 -0.055826 0.0
-0.001858 -0.031018 0.0
-0.000636 0.015235 0.0
-0.002527 0.029476 0.0
-0.005291 0.035291 0.0
-0.008398 0.037230 0.0
-0.011613 0.037678 0.0
-0.014851 0.037632 0.0
-0.018084 0.037421 0.0
-0.021305 0.037131 0.0
-0.024509 0.036781 0.0
-0.027694 0.036371 0.0
-0.030857 0.035900 0.0
-0.033996 0.035365 0.0
-0.037109 0.034762 0.0
-0.040194 0.034085 0.0
-0.043248 0.033328 0.0
-0.046269 0.032486 0.0
-0.049253 0.031549 0.0
-0.052198 0.030508 0.0
-0.055098 0.029352 0.0
-0.057947 0.028070 0.0
-0.060741 0.026648 0.0
-0.063469 0.025070 0.0
-0.066122 0.023321 0.0
-0.068686 0.021383 0.0
-0.071147 0.019237 0.0
-0.073486 0.016863 0.0
-0.075679 0.014243 0.0
-0.077699 0.011357 0.0
-0.079515 0.008186 0.0
-0.081089 0.004715 0.0
-0.082379 0.000930 0.0
-0.083336 -0.003178 0.0
-0.083908 -0.007609 0.0
-0.084036 -0.012357 0.0
-0.083657 -0.017406 0.0
-0.082708 -0.022728 0.0
-0.081125 -0.028278 0.0
-0.078848 -0.033999 0.0
-0.075824 -0.039816 0.0
-0.072010 -0.045638 0.0
-0.067380 -0.051358 0.0
-0.061930 -0.056858 0.0
-0.055677 -0.062009 0.0
-0.048669 -0.066667 0.0
-0.040987 -0.070647 0.0
-0.032757 -0.073637 0.0
-0.024176 -0.074928 0.0
-0.015595 -0.072759 0.0
-0.007704 -0.062828 0.0
-0.002024 -0.034899 0.0
-0.000641 0.016511 0.0
-0.002551 0.032001 0.0
-0.005355 0.038335 0.0
-0.008511 0.040449 0.0
-0.011779 0.040941 0.0
-0.015071 0.040898 0.0
-0.018359 0.040677 0.0
-0.021637 0.040373 0.0
-0.024899 0.040005 0.0
-0.028145 0.039577 0.0
-0.031372 0.039085 0.0
-0.034578 0.038527 0.0
-0.037764 0.037899 0.0
-0.040926 0.037195 0.0
-0.044064 0.036410 0.0
-0.047177 0.035537 0.0
-0.050262 0.034567 0.0
-0.053318 0.033490 0.0
-0.056341 0.032294 0.0
-0.059328 0.030966 0.0
-0.062273 0.029491 0.0
-0.065170 0.027852 0.0
-0.068010 0.026031 0.0
-0.070781 0.024008 0.0
-0.073468 0.021760 0.0
-0.076055 0.019265 0.0
-0.078518 0.016498 0.0
-0.080830 0.013434 0.0
-0.082957 0.010051 0.0
-0.084859 0.006326 0.0
-0.086491 0.002240 0.0
-0.087798 -0.002223 0.0
-0.088720 -0.007070 0.0
-0.089188 -0.012301 0.0
-0.089127 -0.017902 0.0
-0.088461 -0.023848 0.0
-0.087108 -0.030094 0.0
-0.084991 -0.036578 0.0
-0.082038 -0.043216 0.0
-0.078189 -0.049902 0.0
-0.073402 -0.056510 0.0
-0.067662 -0.062898 0.0
-0.060980 -0.068905 0.0
-0.053407 -0.074352 0.0
-0.045035 -0.079015 0.0
-0.036013 -0.082522 0.0
-0.026576 -0.084061 0.0
-0.017127 -0.081656 0.0
-0.008448 -0.070501 0.0
-0.002215 -0.039138 0.0
-0.000645 0.017797 0.0
-0.002577 0.034559 0.0
-0.005422 0.041426 0.0
-0.008629 0.043721 0.0
-0.011952 0.044260 0.0
-0.015301 0.044220 0.0
-0.018647 0.043990 0.0
-0.021983 0.043673 0.0
-0.025306 0.043290 0.0
-0.028614 0.042845 0.0
-0.031907 0.042335 0.0
-0.035182 0.041759 0.0
-0.038441 0.041111 0.0
-0.041682 0.040387 0.0
-0.044906 0.039581 0.0
-0.048113 0.038686 0.0
-0.051301 0.037692 0.0
-0.054471 0.036590 0.0
-0.057622 0.035367 0.0
-0.060750 0.034008 0.0
-0.063854 0.032497 0.0
-0.066928 0.030816 0.0
-0.069966 0.028944 0.0
-0.072958 0.026858 0.0
-0.075891 0.024531 0.0
-0.078748 0.021938 0.0
-0.081509 0.019048 0.0
-0.084145 0.015832 0.0
-0.086623 0.012259 0.0
-0.088900 0.008299 0.0
-0.090928 0.003926 0.0
-0.092646 -0.000884 0.0
-0.093986 -0.006148 0.0
-0.094868 -0.011873 0.0
-0.095204 -0.018053 0.0
-0.094900 -0.024667 0.0
-0.093856 -0.031672 0.0
-0.091970 -0.039003 0.0
-0.089148 -0.046566 0.0
-0.085305 -0.054242 0.0
-0.080379 -0.061882 0.0
-0.074336 -0.069310 0.0
-0.067179 -0.076331 0.0
-0.058959 -0.082719 0.0
-0.049783 -0.088196 0.0
-0.039829 -0.092317 0.0
-0.029379 -0.094152 0.0
-0.018909 -0.091484 0.0
-0.009305 -0.078957 0.0
-0.002433 -0.043787 0.0
-0.000649 0.019090 0.0
-0.002603 0.037152 0.0
-0.005491 0.044567 0.0
-0.008753 0.047049 0.0
-0.012133 0.047635 0.0
-0.015541 0.047600 0.0
-0.018947 0.047362 0.0
-0.022343 0.047033 0.0
-0.025728 0.046638 0.0
-0.029100 0.046178 0.0
-0.032458 0.045653 0.0
-0.035803 0.045062 0.0
-0.039135 0.044399 0.0
-0.042456 0.043661 0.0
-0.045766 0.042841 0.0
-0.049066 0.041932 0.0
-0.052358 0.040926 0.0
-0.055644 0.039811 0.0
-0.058923 0.038575 0.0
-0.062197 0.037202 0.0
-0.065465 0.035674 0.0
-0.068723 0.033972 0.0
-0.071968 0.032072 0.0
-0.075194 0.029947 0.0
-0.078388 0.027570 0.0
-0.081539 0.024907 0.0
-0.084624 0.021925 0.0
-0.087619 0.018586 0.0
-0.090489 0.014853 0.0
-0.093192 0.010686 0.0
-0.095675 0.006050 0.0
-0.097873 0.000909 0.0
-0.099709 -0.004765 0.0
-0.101093 -0.010990 0.0
-0.101921 -0.017771 0.0
-0.102080 -0.025095 0.0
-0.101444 -0.032925 0.0
-0.099885 -0.041194 0.0
-0.097278 -0.049805 0.0
-0.093505 -0.058619 0.0
-0.088474 -0.067462 0.0
-0.082125 -0.076122 0.0
-0.074447 -0.084354 0.0
-0.065488 -0.091875 0.0
-0.055372 -0.098333 0.0
-0.044314 -0.103193 0.0
-0.032660 -0.105380 0.0
-0.020979 -0.102408 0.0
-0.010290 -0.088326 0.0
-0.002680 -0.048900 0.0
-0.000653 0.020391 0.0
-0.002629 0.039781 0.0
-0.005563 0.047760 0.0
-0.008881 0.050434 0.0
-0.012321 0.051071 0.0
-0.015790 0.051040 0.0
-0.019257 0.050795 0.0
-0.022715 0.050456 0.0
-0.026163 0.050048 0.0
-0.029599 0.049575 0.0
-0.033023 0.049039 0.0
-0.036437 0.048435 0.0
-0.039842 0.047762 0.0
-0.043240 0.047016 0.0
-0.046634 0.046189 0.0
-0.050027 0.045277 0.0
-0.053422 0.044269 0.0
-0.056822 0.043155 0.0
-0.060231 0.041920 0.0
-0.063651 0.040551 0.0
-0.067084 0.039026 0.0
-0.070531 0.037326 0.0
-0.073991 0.035423 0.0
-0.077460 0.033290 0.0
-0.080931 0.030893 0.0
-0.084393 0.028196 0.0
-0.087830 0.025158 0.0
-0.091217 0.021735 0.0
-0.094522 0.017880 0.0
-0.097703 0.013544 0.0
-0.100706 0.008678 0.0
-0.103460 0.003234 0.0
-0.105884 -0.002831 0.0
-0.107873 -0.009551 0.0
-0.109309 -0.016946 0.0
-0.110054 -0.025017 0.0
-0.109955 -0.033737 0.0
-0.108850 -0.043046 0.0
-0.106572 -0.052839 0.0
-0.102964 -0.062966 0.0
-0.097887 -0.073222 0.0
-0.091247 -0.083351 0.0
-0.083005 -0.093046 0.0
-0.073202 -0.101945 0.0
-0.061980 -0.109601 0.0
-0.049606 -0.115357 0.0
-0.036511 -0.117964 0.0
-0.023383 -0.114632 0.0
-0.011416 -0.098758 0.0
-0.002957 -0.054536 0.0
-0.000657 0.021701 0.0
-0.002656 0.042448 0.0
-0.005637 0.051008 0.0
-0.009013 0.053880 0.0
-0.012516 0.054568 0.0
-0.016048 0.054543 0.0
-0.019578 0.054290 0.0
-0.023099 0.053940 0.0
-0.026609 0.053521 0.0
-0.030109 0.053037 0.0
-0.033598 0.052490 0.0
-0.037079 0.051879 0.0
-0.040555 0.051200 0.0
-0.044029 0.050450 0.0
-0.047504 0.049625 0.0
-0.050986 0.048717 0.0
-0.054481 0.047718 0.0
-0.057992 0.046617 0.0
-0.061527 0.045401 0.0
-0.065091 0.044054 0.0
-0.068690 0.042555 0.0
-0.072326 0.040881 0.0
-0.076004 0.039006 0.0
-0.079724 0.036896 0.0
-0.083483 0.034517 0.0
-0.087274 0.031825 0.0
-0.091085 0.028776 0.0
-0.094897 0.025315 0.0
-0.098680 0.021387 0.0
-0.102394 0.016931 0.0
-0.105985 0.011884 0.0
-0.109382 0.006180 0.0
-0.112494 -0.000241 0.0
-0.115208 -0.007436 0.0
-0.117388 -0.015445 0.0
-0.118871 -0.024290 0.0
-0.119473 -0.033961 0.0
-0.118987 -0.044412 0.0
-0.117198 -0.055540 0.0
-0.113890 -0.067183 0.0
-0.108866 -0.079106 0.0
-0.101974 -0.091000 0.0
-0.093135 -0.102479 0.0
-0.082371 -0.113077 0.0
-0.069844 -0.122217 0.0
-0.055885 -0.129074 0.0
-0.041043 -0.132184 0.0
-0.026176 -0.128407 0.0
-0.012696 -0.110431 0.0
-0.003262 -0.060755 0.0
-0.000660 0.023018 0.0
-0.002684 0.045154 0.0
-0.005714 0.054312 0.0
-0.009151 0.057389 0.0
-0.012719 0.058129 0.0
-0.016315 0.058109 0.0
-0.019909 0.057849 0.0
-0.023494 0.057487 0.0
-0.027067 0.057057 0.0
-0.030629 0.056563 0.0
-0.034182 0.056007 0.0
-0.037728 0.055389 0.0
-0.041271 0.054708 0.0
-0.044815 0.053960 0.0
-0.048368 0.053142 0.0
-0.051934 0.052248 0.0
-0.055521 0.051269 0.0
-0.059139 0.050196 0.0
-0.062795 0.049014 0.0
-0.066498 0.047708 0.0
-0.070257 0.046258 0.0
-0.074080 0.044638 0.0
-0.077976 0.042822 0.0
-0.081949 0.040773 0.0
-0.086002 0.038452 0.0
-0.090135 0.035814 0.0
-0.094340 0.032804 0.0
-0.098605 0.029363 0.0
-0.102906 0.025423 0.0
-0.107207 0.020911 0.0
-0.111458 0.015746 0.0
-0.115586 0.009844 0.0
-0.119499 0.003120 0.0
-0.123076 -0.004507 0.0
-0.126162 -0.013108 0.0
-0.128570 -0.022735 0.0
-0.130077 -0.033407 0.0
-0.130429 -0.045100 0.0
-0.129344 -0.057725 0.0
-0.126532 -0.071117 0.0
-0.121714 -0.085013 0.0
-0.114655 -0.099043 0.0
-0.105206 -0.112724 0.0
-0.093355 -0.125448 0.0
-0.079276 -0.136453 0.0
-0.063386 -0.144687 0.0
-0.046400 -0.148400 0.0
-0.029413 -0.144046 0.0
-0.014133 -0.123552 0.0
-0.003592 -0.067610 0.0
-0.000664 0.024342 0.0
-0.002713 0.047902 0.0
-0.005794 0.057676 0.0
-0.009295 0.060964 0.0
-0.012930 0.061757 0.0
-0.016593 0.061741 0.0
-0.020252 0.061471 0.0
-0.023900 0.061098 0.0
-0.027535 0.060655 0.0
-0.031158 0.060150 0.0
-0.034772 0.059586 0.0
-0.038379 0.058963 0.0
-0.041984 0.058282 0.0
-0.045595 0.057541 0.0
-0.049217 0.056736 0.0
-0.052860 0.055863 0.0
-0.056533 0.054915 0.0
-0.060247 0.053882 0.0
-0.064015 0.052751 0.0
-0.067848 0.051507 0.0
-0.071759 0.050129 0.0
-0.075762 0.048593 0.0
-0.079870 0.046869 0.0
-0.084093 0.044921 0.0
-0.088442 0.042706 0.0
-0.092922 0.040173 0.0
-0.097536 0.037264 0.0
-0.102277 0.033909 0.0
-0.107132 0.030032 0.0
-0.112071 0.025543 0.0
-0.117052 0.020344 0.0
-0.122007 0.014329 0.0
-0.126845 0.007384 0.0
-0.131436 -0.000604 0.0
-0.135615 -0.009747 0.0
-0.139170 -0.020135 0.0
-0.141838 -0.031832 0.0
-0.143306 -0.044855 0.0
-0.143217 -0.059144 0.0
-0.141181 -0.074546 0.0
-0.136805 -0.090778 0.0
-0.129733 -0.107409 0.0
-0.119707 -0.123833 0.0
-0.106639 -0.139257 0.0
-0.090707 -0.152655 0.0
-0.072434 -0.162647 0.0
-0.052769 -0.167091 0.0
-0.033157 -0.161955 0.0
-0.015719 -0.138360 0.0
-0.003930 -0.075132 0.0
-0.000668 0.025675 0.0
-0.002743 0.050692 0.0
-0.005878 0.061102 0.0
-0.009446 0.064607 0.0
-0.013151 0.065453 0.0
-0.016882 0.065439 0.0
-0.020608 0.065158 0.0
-0.024320 0.064770 0.0
-0.028016 0.064313 0.0
-0.031698 0.063796 0.0
-0.035368 0.063223 0.0
-0.039031 0.062596 0.0
-0.042693 0.061917 0.0
-0.046362 0.061185 0.0
-0.050045 0.060398 0.0
-0.053755 0.059553 0.0
-0.057503 0.058645 0.0
-0.061303 0.057665 0.0
-0.065169 0.056602 0.0
-0.069119 0.055440 0.0
-0.073170 0.054159 0.0
-0.077340 0.052737 0.0
-0.081648 0.051141 0.0
-0.086112 0.049336 0.0
-0.090750 0.047277 0.0
-0.095577 0.044909 0.0
-0.100604 0.042168 0.0
-0.105837 0.038979 0.0
-0.111272 0.035252 0.0
-0.116895 0.030885 0.0
-0.122672 0.025760 0.0
-0.128547 0.019744 0.0
-0.134433 0.012693 0.0
-0.140206 0.004451 0.0
-0.145691 -0.005137 0.0
-0.150656 -0.016224 0.0
-0.154797 -0.028933 0.0
-0.157741 -0.043342 0.0
-0.159036 -0.059451 0.0
-0.158171 -0.077141 0.0
-0.154597 -0.096134 0.0
-0.147781 -0.115941 0.0
-0.137290 -0.135820 0.0
-0.122901 -0.154726 0.0
-0.104753 -0.171266 0.0
-0.083495 -0.183567 0.0
-0.060412 -0.188919 0.0
-0.037474 -0.182676 0.0
-0.017415 -0.155136 0.0
-0.004249 -0.083311 0.0
-0.000672 0.027015 0.0
-0.002775 0.053529 0.0
-0.005968 0.064594 0.0
-0.009607 0.068322 0.0
-0.013384 0.069221 0.0
-0.017187 0.069206 0.0
-0.020980 0.068910 0.0
-0.024755 0.068505 0.0
-0.028511 0.068031 0.0
-0.032249 0.067499 0.0
-0.035972 0.066914 0.0
-0.039685 0.066282 0.0
-0.043396 0.065604 0.0
-0.047113 0.064883 0.0
-0.050848 0.064118 0.0
-0.054612 0.063307 0.0
-0.058421 0.062448 0.0
-0.062291 0.061532 0.0
-0.066240 0.060551 0.0
-0.070290 0.059490 0.0
-0.074462 0.058332 0.0
-0.078780 0.057053 0.0
-0.083270 0.055623 0.0
-0.087958 0.054006 0.0
-0.092869 0.052156 0.0
-0.098031 0.050018 0.0
-0.103466 0.047522 0.0
-0.109193 0.044586 0.0
-0.115226 0.041113 0.0
-0.121564 0.036985 0.0
-0.128193 0.032066 0.0
-0.135074 0.026195 0.0
-0.142137 0.019192 0.0
-0.149267 0.010855 0.0
-0.156291 0.000969 0.0
-0.162965 -0.010692 0.0
-0.168956 -0.024334 0.0
-0.173824 -0.040130 0.0
-0.177017 -0.058173 0.0
-0.177873 -0.078427 0.0
-0.175638 -0.100656 0.0
-0.169530 -0.124343 0.0
-0.158841 -0.148599 0.0
-0.143105 -0.172071 0.0
-0.122336 -0.192838 0.0
-0.097299 -0.208290 0.0
-0.069742 -0.214838 0.0
-0.042455 -0.206981 0.0
-0.019135 -0.174211 0.0
-0.004489 -0.092048 0.0
-0.000677 0.028365 0.0
-0.002810 0.056414 0.0
-0.006065 0.068157 0.0
-0.009779 0.072112 0.0
-0.013633 0.073062 0.0
-0.017510 0.073043 0.0
-0.021372 0.072729 0.0
-0.025210 0.072301 0.0
-0.029024 0.071804 0.0
-0.032814 0.071253 0.0
-0.036585 0.070654 0.0
-0.040341 0.070013 0.0
-0.044093 0.069335 0.0
-0.047848 0.068625 0.0
-0.051621 0.067883 0.0
-0.055425 0.067111 0.0
-0.059278 0.066306 0.0
-0.063200 0.065465 0.0
-0.067211 0.064580 0.0
-0.071338 0.063638 0.0
-0.075608 0.062625 0.0
-0.080049 0.061519 0.0
-0.084694 0.060292 0.0
-0.089579 0.058909 0.0
-0.094739 0.057325 0.0
-0.100211 0.055483 0.0
-0.106035 0.053314 0.0
-0.112245 0.050731 0.0
-0.118873 0.047629 0.0
-0.125942 0.043878 0.0
-0.133462 0.039323 0.0
-0.141421 0.033778 0.0
-0.149773 0.027024 0.0
-0.158430 0.018809 0.0
-0.167238 0.008846 0.0
-0.175957 -0.003176 0.0
-0.184236 -0.017581 0.0
-0.191581 -0.034670 0.0
-0.197338 -0.054683 0.0
-0.200669 -0.077730 0.0
-0.200568 -0.103689 0.0
-0.195909 -0.132077 0.0
-0.185571 -0.161892 0.0
-0.168672 -0.191413 0.0
-0.144926 -0.218010 0.0
-0.115117 -0.237964 0.0
-0.081567 -0.246272 0.0
-0.048333 -0.236067 0.0
-0.020752 -0.196026 0.0
-0.004547 -0.101084 0.0
-0.000683 0.029726 0.0
-0.002850 0.059353 0.0
-0.006172 0.071795 0.0
-0.009967 0.075983 0.0
-0.013903 0.076982 0.0
-0.017856 0.076953 0.0
-0.021789 0.076613 0.0
-0.025691 0.076157 0.0
-0.029561 0.075632 0.0
-0.033399 0.075054 0.0
-0.037212 0.074435 0.0
-0.041004 0.073781 0.0
-0.044784 0.073099 0.0
-0.048566 0.072397 0.0
-0.052362 0.071679 0.0
-0.056189 0.070947 0.0
-0.060067 0.070202 0.0
-0.064018 0.069442 0.0
-0.068068 0.068664 0.0
-0.072245 0.067858 0.0
-0.076581 0.067011 0.0
-0.081113 0.066106 0.0
-0.085880 0.065117 0.0
-0.090925 0.064013 0.0
-0.096295 0.062751 0.0
-0.102042 0.061277 0.0
-0.108218 0.059521 0.0
-0.114879 0.057396 0.0
-0.122079 0.054793 0.0
-0.129870 0.051574 0.0
-0.138293 0.047569 0.0
-0.147372 0.042569 0.0
-0.157105 0.036319 0.0
-0.167444 0.028511 0.0
-0.178276 0.018783 0.0
-0.189389 0.006720 0.0