# vtk DataFile Version 3.0
Scalar Field
ASCII
DATASET RECTILINEAR_GRID
DIMENSIONS 50 50 1
X_COORDINATES 50 double
0.100000 0.300000 0.500000 0.700000 0.900000 1.100000 1.300000 1.500000 1.700000 1.900000 2.100000 2.300000 2.500000 2.700000 2.900000 3.100000 3.300000 3.500000 3.700000 3.900000 4.100000 4.300000 4.500000 4.700000 4.900000 5.100000 5.300000 5.500000 5.700000 5.900000 6.100000 6.300000 6.500000 6.700000 6.900000 7.100000 7.300000 7.500000 7.700000 7.900000 8.100000 8.300000 8.500000 8.700000 8.900000 9.100000 9.300000 9.500000 9.700000 9.900000 
Y_COORDINATES 50 double
0.100000 0.300000 0.500000 0.700000 0.900000 1.100000 1.300000 1.500000 1.700000 1.900000 2.100000 2.300000 2.500000 2.700000 2.900000 3.100000 3.300000 3.500000 3.700000 3.900000 4.100000 4.300000 4.500000 4.700000 4.900000 5.100000 5.300000 5.500000 5.700000 5.900000 6.100000 6.300000 6.500000 6.700000 6.900000 7.100000 7.300000 7.500000 7.700000 7.900000 8.100000 8.300000 8.500000 8.700000 8.900000 9.100000 9.300000 9.500000 9.700000 9.900000 
Z_COORDINATES 1 double
0.0
POINT_DATA 2500
SCALARS Skalarfeld double 1
LOOKUP_TABLE default
-0.004802
-0.004813
-0.004747
-0.004589
-0.004336
-0.003988
-0.003545
-0.003007
-0.002373
-0.001641
-0.000810
0.000121
0.001155
0.002292
0.003535
0.004885
0.006343
0.007910
0.009587
0.011375
0.013273
0.015280
0.017395
0.019615
0.021937
0.024356
0.026867
0.029461
0.032130
0.034864
0.037650
0.040474
0.043319
0.046167
0.048999
0.051792
0.054525
0.057173
0.059712
0.062115
0.064359
0.066418
0.068270
0.069892
0.071266
0.072375
0.073206
0.073752
0.074019
0.074044
-0.004791
-0.004803
-0.004729
-0.004566
-0.004311
-0.003963
-0.003521
-0.002984
-0.002351
-0.001621
-0.000792
0.000137
0.001168
0.002303
0.003543
0.004890
0.006345
0.007909
0.009583
0.011367
0.013261
0.015265
0.017376
0.019593
0.021912
0.024329
0.026837
0.029429
0.032097
0.034829
0.037615
0.040438
0.043283
0.046132
0.048966
0.051762
0.054498
0.057149
0.059691
0.062098
0.064345
0.066408
0.068263
0.069888
0.071265
0.072377
0.073212
0.073765
0.074042
0.074066
-0.004863
-0.004882
-0.004809
-0.004644
-0.004389
-0.004042
-0.003601
-0.003067
-0.002437
-0.001710
-0.000885
0.000041
0.001068
0.002199
0.003435
0.004778
0.006229
0.007789
0.009459
0.011241
0.013133
0.015135
0.017246
0.019463
0.021784
0.024203
0.026716
0.029315
0.031991
0.034735
0.037533
0.040371
0.043234
0.046102
0.048957
0.051777
0.054537
0.057214
0.059782
0.062215
0.064487
0.066574
0.068451
0.070095
0.071488
0.072614
0.073459
0.074018
0.074296
0.074307
-0.005039
-0.005064
-0.004992
-0.004829
-0.004575
-0.004230
-0.003792
-0.003261
-0.002635
-0.001912
-0.001092
-0.000171
0.000851
0.001976
0.003207
0.004545
0.005991
0.007547
0.009214
0.010993
0.012884
0.014887
0.017000
0.019221
0.021548
0.023977
0.026502
0.029117
0.031812
0.034578
0.037403
0.040272
0.043168
0.046075
0.048971
0.051834
0.054641
0.057365
0.059981
0.062461
0.064779
0.066909
0.068825
0.070505
0.071927
0.073076
0.073938
0.074506
0.074785
0.074787
-0.005325
-0.005353
-0.005283
-0.005122
-0.004871
-0.004529
-0.004095
-0.003569
-0.002948
-0.002231
-0.001417
-0.000503
0.000513
0.001632
0.002857
0.004188
0.005630
0.007181
0.008845
0.010623
0.012514
0.014518
0.016636
0.018866
0.021205
0.023649
0.026193
0.028832
0.031557
0.034358
0.037223
0.040138
0.043086
0.046049
0.049006
0.051934
0.054807
0.057601
0.060287
0.062836
0.065221
0.067413
0.069386
0.071116
0.072581
0.073763
0.074649
0.075232
0.075513
0.075510
-0.005722
-0.005751
-0.005684
-0.005526
-0.005278
-0.004940
-0.004512
-0.003991
-0.003377
-0.002667
-0.001860
-0.000953
0.000054
0.001166
0.002383
0.003708
0.005143
0.006690
0.008351
0.010127
0.012019
0.014028
0.016153
0.018394
0.020749
0.023214
0.025786
0.028458
0.031222
0.034070
0.036989
0.039965
0.042981
0.046019
0.049057
0.052070
0.055034
0.057920
0.060698
0.063339
0.065813
0.068088
0.070137
0.071934
0.073455
0.074681
0.075598
0.076199
0.076487
0.076481
-0.006228
-0.006259
-0.006195
-0.006040
-0.005796
-0.005464
-0.005041
-0.004527
-0.003921
-0.003219
-0.002421
-0.001524
-0.000526
0.000576
0.001785
0.003101
0.004529
0.006071
0.007728
0.009502
0.011396
0.013411
0.015546
0.017801
0.020176
0.022668
0.025273
0.027986
0.030800
0.033705
0.036692
0.039744
0.042846
0.045977
0.049117
0.052238
0.055315
0.058318
0.061214
0.063971
0.066556
0.068937
0.071082
0.072962
0.074554
0.075835
0.076791
0.077416
0.077713
0.077704
-0.006843
-0.006876
-0.006814
-0.006663
-0.006424
-0.006098
-0.005683
-0.005177
-0.004580
-0.003889
-0.003101
-0.002215
-0.001228
-0.000137
0.001060
0.002367
0.003787
0.005321
0.006973
0.008746
0.010642
0.012662
0.014808
0.017080
0.019478
0.022000
0.024645
0.027406
0.030278
0.033253
0.036320
0.039464
0.042669
0.045914
0.049176
0.052430
0.055645
0.058790
0.061830
0.064729
0.067452
0.069962
0.072225
0.074209
0.075886
0.077235
0.078239
0.078892
0.079200
0.079188
-0.007566
-0.007600
-0.007541
-0.007395
-0.007162
-0.006843
-0.006436
-0.005941
-0.005354
-0.004675
-0.003900
-0.003027
-0.002053
-0.000976
0.000209
0.001504
0.002912
0.004438
0.006084
0.007853
0.009749
0.011775
0.013932
0.016222
0.018645
0.021202
0.023890
0.026707
0.029646
0.032700
0.035860
0.039110
0.042435
0.045814
0.049222
0.052632
0.056012
0.059328
0.062541
0.065612
0.068501
0.071167
0.073572
0.075681
0.077462
0.078891
0.079951
0.080637
0.080958
0.080942
-0.008395
-0.008431
-0.008375
-0.008234
-0.008008
-0.007697
-0.007301
-0.006817
-0.006243
-0.005577
-0.004817
-0.003960
-0.003002
-0.001941
-0.000772
0.000508
0.001903
0.003417
0.005054
0.006818
0.008713
0.010743
0.012910
0.015217
0.017667
0.020260
0.022996
0.025873
0.028886
0.032029
0.035293
0.038665
0.042128
0.045661
0.049239
0.052832
0.056406
0.059923
0.063341
0.066617
0.069704
0.072556
0.075131
0.077388
0.079291
0.080815
0.081941
0.082665
0.082999
0.082977
-0.009329
-0.009367
-0.009315
-0.009179
-0.008961
-0.008660
-0.008275
-0.007804
-0.007245
-0.006596
-0.005853
-0.005014
-0.004075
-0.003033
-0.001883
-0.000621
0.000757
0.002256
0.003880
0.005635
0.007526
0.009557
0.011732
0.014056
0.016532
0.019161
0.021947
0.024887
0.027980
0.031220
0.034599
0.038107
0.041726
0.045434
0.049205
0.053009
0.056808
0.060561
0.064221
0.067738
0.071059
0.074133
0.076908
0.079340
0.081388
0.083022
0.084223
0.084989
0.085337
0.085306
-0.010366
-0.010406
-0.010359
-0.010230
-0.010020
-0.009730
-0.009358
-0.008903
-0.008361
-0.007730
-0.007008
-0.006190
-0.005274
-0.004254
-0.003127
-0.001887
-0.000531
0.000949
0.002556
0.004298
0.006180
0.008208
0.010388
0.012725
0.015224
0.017889
0.020724
0.023730
0.026906
0.030249
0.033753
0.037410
0.041200
0.045105
0.049096
0.053141
0.057200
0.061226
0.065167
0.068967
0.072564
0.075899
0.078912
0.081549
0.083765
0.085526
0.086813
0.087624
0.087984
0.087943
-0.011504
-0.011546
-0.011504
-0.011383
-0.011183
-0.010906
-0.010549
-0.010111
-0.009588
-0.008979
-0.008280
-0.007488
-0.006597
-0.005605
-0.004505
-0.003293
-0.001962
-0.000508
0.001078
0.002800
0.004668
0.006687
0.008866
0.011210
0.013728
0.016426
0.019308
0.022378
0.025639
0.029090
0.032726
0.036541
0.040520
0.044642
0.048879
0.053197
0.057552
0.061894
0.066163
0.070293
0.074215
0.077857
0.081149
0.084028
0.086440
0.088346
0.089727
0.090586
0.090956
0.090898
-0.012741
-0.012786
-0.012750
-0.012636
-0.012448
-0.012185
-0.011845
-0.011427
-0.010927
-0.010342
-0.009670
-0.008906
-0.008046
-0.007086
-0.006018
-0.004839
-0.003541
-0.002118
-0.000562
0.001135
0.002981
0.004984
0.007153
0.009499
0.012029
0.014751
0.017675
0.020807
0.024151
0.027710
0.031483
0.035465
0.039646
0.044005
0.048514
0.053138
0.057830
0.062534
0.067182
0.071699
0.076003
0.080007
0.083628
0.086790
0.089429
0.091500
0.092984
0.093890
0.094265
0.094185
-0.014074
-0.014123
-0.014092
-0.013988
-0.013813
-0.013566
-0.013245
-0.012849
-0.012374
-0.011818
-0.011176
-0.010446
-0.009621
-0.008697
-0.007668
-0.006528
-0.005270
-0.003885
-0.002367
-0.000705
0.001110
0.003088
0.005239
0.007575
0.010107
0.012846
0.015803
0.018988
0.022409
0.026073
0.029983
0.034137
0.038531
0.043145
0.047951
0.052915
0.057987
0.063104
0.068191
0.073160
0.077912
0.082344
0.086355
0.089850
0.092752
0.095009
0.096602
0.097552
0.097922
0.097812
-0.015502
-0.015553
-0.015530
-0.015436
-0.015275
-0.015045
-0.014746
-0.014374
-0.013928
-0.013403
-0.012797
-0.012104
-0.011320
-0.010439
-0.009455
-0.008362
-0.007151
-0.005814
-0.004342
-0.002725
-0.000952
0.000989
0.003109
0.005423
0.007943
0.010686
0.013663
0.016890
0.020378
0.024140
0.028182
0.032508
0.037119
0.042001
0.047129
0.052466
0.057962
0.063550
0.069142
0.074638
0.079918
0.084859
0.089332
0.093220
0.096428
0.098894
0.100600
0.101584
0.101933
0.101779
-0.017019
-0.017075
-0.017058
-0.016976
-0.016830
-0.016620
-0.016345
-0.016001
-0.015586
-0.015097
-0.014530
-0.013880
-0.013142
-0.012311
-0.011379
-0.010340
-0.009185
-0.007905
-0.006491
-0.004930
-0.003212
-0.001323
0.000752
0.003027
0.005520
0.008248
0.011229
0.014480
0.018019
0.021863
0.026026
0.030517
0.035342
0.040502
0.045969
0.051711
0.057677
0.063795
0.069969
0.076079
0.081985
0.087531
0.092557
0.096914
0.100479
0.103177
0.104995
0.105991
0.106294
0.106077
-0.018624
-0.018683
-0.018675
-0.018606
-0.018477
-0.018288
-0.018038
-0.017725
-0.017346
-0.016896
-0.016373
-0.015771
-0.015086
-0.014311
-0.013439
-0.012462
-0.011373
-0.010162
-0.008817
-0.007326
-0.005678
-0.003856
-0.001845
0.000374
0.002819
0.005510
0.008471
0.011723
0.015290
0.019194
0.023457
0.028097
0.033126
0.038559
0.044376
0.050549
0.057028
0.063740
0.070578
0.077404
0.084051
0.090323
0.096018
0.100938
0.104924
0.107879
0.109797
0.110772
0.110988
0.110681
-0.020312
-0.020376
-0.020376
-0.020320
-0.020209
-0.020044
-0.019823
-0.019544
-0.019203
-0.018797
-0.018323
-0.017774
-0.017148
-0.016436
-0.015632
-0.014728
-0.013715
-0.012583
-0.011321
-0.009916
-0.008353
-0.006617
-0.004690
-0.002551
-0.000180
0.002449
0.005360
0.008583
0.012145
0.016078
0.020411
0.025171
0.030383
0.036067
0.042233
0.048851
0.055881
0.063247
0.070838
0.078497
0.086023
0.093173
0.099682
0.105290
0.109778
0.113018
0.115012
0.115906
0.115971
0.115533
-0.022079
-0.022147
-0.022157
-0.022115
-0.022025
-0.021885
-0.021695
-0.021452
-0.021153
-0.020795
-0.020374
-0.019885
-0.019324
-0.018682
-0.017955
-0.017133
-0.016208
-0.015169
-0.014004
-0.012700
-0.011242
-0.009613
-0.007793
-0.005760
-0.003491
-0.000957
0.001870
0.005024
0.008541
0.012459
0.016817
0.021654
0.027007
0.032907
0.039397
0.046458
0.054058
0.062132
0.070566
0.079186
0.087754
0.095969
0.103485
0.109946
0.115047
0.118605
0.120628
0.121346
0.121161
0.120532
-0.023920
-0.023993
-0.024013
-0.023987
-0.023917
-0.023805
-0.023648
-0.023444
-0.023191
-0.022885
-0.022523
-0.022099
-0.021609
-0.021046
-0.020404
-0.019675
-0.018849
-0.017916
-0.016863
-0.015678
-0.014345
-0.012845
-0.011158
-0.009261
-0.007127
-0.004727
-0.002026
0.001013
0.004433
0.008279
0.012601
0.017452
0.022885
0.028948
0.035694
0.043167
0.051333
0.060147
0.069502
0.079215
0.089012
0.098524
0.107296
0.114839
0.120710
0.124631
0.126611
0.127000
0.126408
0.125497
-0.025830
-0.025908
-0.025939
-0.025929
-0.025883
-0.025799
-0.025678
-0.025516
-0.025312
-0.025062
-0.024763
-0.024410
-0.023998
-0.023521
-0.022973
-0.022346
-0.021631
-0.020818
-0.019894
-0.018846
-0.017658
-0.016312
-0.014787
-0.013058
-0.011098
-0.008873
-0.006349
-0.003481
-0.000222
0.003482
0.007691
0.012471
0.017892
0.024025
0.030939
0.038735
0.047416
0.056960
0.067283
0.078208
0.089434
0.100517
0.110869
0.119810
0.126683
0.131044
0.132873
0.132698
0.131458
0.130132
-0.027805
-0.027888
-0.027929
-0.027937
-0.027915
-0.027862
-0.027778
-0.027661
-0.027509
-0.027319
-0.027087
-0.026810
-0.026482
-0.026099
-0.025654
-0.025140
-0.024548
-0.023868
-0.023089
-0.022197
-0.021177
-0.020010
-0.018677
-0.017151
-0.015405
-0.013405
-0.011112
-0.008480
-0.005456
-0.001981
0.002016
0.006614
0.011900
0.017970
0.024924
0.032862
0.041942
0.052133
0.063404
0.075610
0.088446
0.101403
0.113736
0.124510
0.132739
0.137682
0.139222
0.138132
0.135877
0.133945
-0.029838
-0.029926
-0.029979
-0.030005
-0.030008
-0.029987
-0.029942
-0.029872
-0.029775
-0.029648
-0.029488
-0.029291
-0.029054
-0.028772
-0.028438
-0.028046
-0.027588
-0.027055
-0.026437
-0.025720
-0.024890
-0.023930
-0.022819
-0.021534
-0.020046
-0.018321
-0.016320
-0.013997
-0.011296
-0.008151
-0.004485
-0.000209
0.004781
0.010605
0.017393
0.025287
0.034464
0.045103
0.057176
0.070612
0.085153
0.100255
0.115023
0.128201
0.138321
0.144126
0.145238
0.142744
0.138946
0.136150
-0.031923
-0.032017
-0.032083
-0.032127
-0.032155
-0.032167
-0.032163
-0.032142
-0.032102
-0.032041
-0.031956
-0.031845
-0.031703
-0.031528
-0.031313
-0.031052
-0.030740
-0.030367
-0.029925
-0.029401
-0.028783
-0.028056
-0.027199
-0.026191
-0.025006
-0.023611
-0.021969
-0.020034
-0.017749
-0.015050
-0.011855
-0.008069
-0.003576
0.001760
0.008100
0.015625
0.024539
0.035165
0.047678
0.062063
0.078174
0.095520
0.113110
0.129350
0.142135
0.149360
0.150032
0.145551
0.139533
0.135546
-0.034055
-0.034156
-0.034233
-0.034296
-0.034350
-0.034396
-0.034434
-0.034463
-0.034482
-0.034489
-0.034483
-0.034460
-0.034419
-0.034355
-0.034266
-0.034145
-0.033988
-0.033787
-0.033535
-0.033222
-0.032837
-0.032366
-0.031794
-0.031101
-0.030264
-0.029254
-0.028037
-0.026572
-0.024807
-0.022680
-0.020113
-0.017011
-0.013257
-0.008706
-0.003182
0.003527
0.011674
0.021550
0.033733
0.048367
0.065444
0.084648
0.105049
0.124849
0.141273
0.151013
0.151817
0.145011
0.136188
0.130401
-0.036228
-0.036335
-0.036424
-0.036507
-0.036587
-0.036667
-0.036747
-0.036827
-0.036906
-0.036983
-0.037056
-0.037125
-0.037188
-0.037241
-0.037282
-0.037308
-0.037314
-0.037296
-0.037247
-0.037159
-0.037026
-0.036836
-0.036576
-0.036232
-0.035785
-0.035213
-0.034488
-0.033576
-0.032435
-0.031012
-0.029240
-0.027037
-0.024296
-0.020884
-0.016630
-0.011319
-0.004681
0.003620
0.013985
0.027422
0.043983
0.063609
0.085703
0.108705
0.129565
0.143752
0.146975
0.139063
0.127345
0.119200
-0.038436
-0.038549
-0.038651
-0.038752
-0.038858
-0.038972
-0.039094
-0.039225
-0.039364
-0.039511
-0.039666
-0.039828
-0.039996
-0.040169
-0.040346
-0.040523
-0.040699
-0.040871
-0.041035
-0.041187
-0.041321
-0.041430
-0.041507
-0.041543
-0.041525
-0.041438
-0.041266
-0.040986
-0.040569
-0.039980
-0.039174
-0.038092
-0.036660
-0.034780
-0.032323
-0.029120
-0.024948
-0.019511
-0.012429
-0.003224
0.009780
0.026513
0.046955
0.070757
0.095820
0.117214
0.128288
0.124918
0.112363
0.102979
-0.040674
-0.040794
-0.040907
-0.041026
-0.041157
-0.041304
-0.041467
-0.041647
-0.041846
-0.042063
-0.042300
-0.042555
-0.042830
-0.043125
-0.043438
-0.043771
-0.044121
-0.044489
-0.044874
-0.045274
-0.045687
-0.046111
-0.046545
-0.046985
-0.047427
-0.047867
-0.048300
-0.048718
-0.049115
-0.049479
-0.049797
-0.050053
-0.050224
-0.050283
-0.050191
-0.049899
-0.049336
-0.048407
-0.046968
-0.044791
-0.041431
-0.033908
-0.021531
-0.002164
0.025191
0.056800
0.084180
0.097422
0.093710
0.089023
-0.042936
-0.043062
-0.043187
-0.043323
-0.043478
-0.043655
-0.043857
-0.044086
-0.044343
-0.044628
-0.044945
-0.045292
-0.045673
-0.046089
-0.046540
-0.047028
-0.047555
-0.048123
-0.048732
-0.049386
-0.050086
-0.050836
-0.051639
-0.052500
-0.053425
-0.054421
-0.055498
-0.056668
-0.057949
-0.059362
-0.060937
-0.062716
-0.064754
-0.067131
-0.069960
-0.073403
-0.077701
-0.083202
-0.090385
-0.099726
-0.111145
-0.122876
-0.127584
-0.119609
-0.092970
-0.049078
0.002881
0.048013
0.072474
0.081949
-0.045217
-0.045351
-0.045487
-0.045638
-0.045814
-0.046019
-0.046258
-0.046532
-0.046843
-0.047194
-0.047587
-0.048025
-0.048510
-0.049044
-0.049631
-0.050274
-0.050977
-0.051743
-0.052578
-0.053486
-0.054476
-0.055555
-0.056733
-0.058024
-0.059443
-0.061011
-0.062754
-0.064707
-0.066916
-0.069441
-0.072364
-0.075799
-0.079901
-0.084896
-0.091107
-0.099020
-0.109369
-0.123280
-0.142346
-0.168280
-0.201418
-0.238076
-0.268800
-0.277997
-0.254809
-0.198995
-0.119547
-0.033576
0.034248
0.064284
-0.047515
-0.047657
-0.047802
-0.047966
-0.048159
-0.048390
-0.048661
-0.048975
-0.049337
-0.049749
-0.050215
-0.050738
-0.051322
-0.051971
-0.052690
-0.053484
-0.054358
-0.055320
-0.056377
-0.057537
-0.058814
-0.060219
-0.061770
-0.063489
-0.065401
-0.067541
-0.069953
-0.072695
-0.075842
-0.079498
-0.083803
-0.088949
-0.095210
-0.102981
-0.112849
-0.125711
-0.142972
-0.166831
-0.200400
-0.246864
-0.306569
-0.372720
-0.430222
-0.457774
-0.439290
-0.374854
-0.273380
-0.151375
-0.041155
0.010200
-0.049828
-0.049978
-0.050130
-0.050303
-0.050511
-0.050761
-0.051058
-0.051408
-0.051814
-0.052281
-0.052813
-0.053415
-0.054093
-0.054851
-0.055696
-0.056634
-0.057674
-0.058824
-0.060095
-0.061500
-0.063054
-0.064776
-0.066690
-0.068824
-0.071215
-0.073910
-0.076972
-0.080480
-0.084540
-0.089297
-0.094947
-0.101765
-0.110145
-0.120659
-0.134173
-0.152031
-0.176378
-0.210577
-0.259291
-0.326954
-0.413252
-0.507436
-0.587950
-0.630263
-0.616005
-0.547813
-0.435750
-0.293551
-0.154741
-0.086151
-0.052155
-0.052313
-0.052470
-0.052649
-0.052864
-0.053127
-0.053444
-0.053822
-0.054265
-0.054779
-0.055369
-0.056043
-0.056805
-0.057664
-0.058626
-0.059700
-0.060896
-0.062224
-0.063699
-0.065336
-0.067154
-0.069176
-0.071433
-0.073960
-0.076803
-0.080021
-0.083692
-0.087915
-0.092823
-0.098598
-0.105487
-0.113838
-0.124148
-0.137148
-0.153949
-0.176287
-0.206938
-0.250212
-0.311928
-0.397222
-0.504799
-0.620402
-0.717299
-0.768334
-0.756652
-0.688952
-0.578291
-0.434755
-0.286150
-0.207953
-0.054499
-0.054665
-0.054825
-0.055002
-0.055218
-0.055486
-0.055814
-0.056209
-0.056679
-0.057230
-0.057869
-0.058604
-0.059442
-0.060391
-0.061460
-0.062658
-0.063998
-0.065492
-0.067156
-0.069008
-0.071070
-0.073372
-0.075945
-0.078833
-0.082089
-0.085782
-0.090002
-0.094863
-0.100521
-0.107185
-0.115141
-0.124789
-0.136702
-0.151721
-0.171117
-0.196866
-0.232095
-0.281572
-0.351548
-0.447231
-0.566613
-0.693635
-0.798794
-0.853140
-0.842548
-0.778099
-0.677398
-0.547748
-0.406988
-0.328140
-0.056865
-0.057040
-0.057198
-0.057367
-0.057573
-0.057834
-0.058161
-0.058563
-0.059047
-0.059624
-0.060301
-0.061085
-0.061987
-0.063014
-0.064177
-0.065487
-0.066956
-0.068599
-0.070434
-0.072482
-0.074766
-0.077318
-0.080175
-0.083385
-0.087006
-0.091114
-0.095806
-0.101209
-0.107492
-0.114879
-0.123678
-0.134318
-0.147406
-0.163822
-0.184884
-0.212604
-0.250083
-0.301934
-0.373971
-0.470814
-0.590323
-0.717063
-0.822034
-0.875658
-0.866153
-0.807240
-0.720907
-0.613781
-0.493539
-0.422078
-0.059264
-0.059449
-0.059598
-0.059748
-0.059932
-0.060172
-0.060483
-0.060876
-0.061362
-0.061950
-0.062650
-0.063471
-0.064423
-0.065514
-0.066758
-0.068164
-0.069746
-0.071522
-0.073508
-0.075727
-0.078206
-0.080978
-0.084082
-0.087568
-0.091499
-0.095953
-0.101032
-0.106867
-0.113631
-0.121554
-0.130947
-0.142237
-0.156021
-0.173152
-0.194876
-0.223044
-0.260378
-0.310814
-0.378889
-0.467786
-0.575633
-0.689921
-0.785972
-0.836171
-0.830315
-0.779883
-0.709179
-0.626839
-0.533684
-0.475288
-0.061711
-0.061906
-0.062038
-0.062155
-0.062300
-0.062501
-0.062778
-0.063145
-0.063614
-0.064198
-0.064905
-0.065747
-0.066734
-0.067876
-0.069184
-0.070670
-0.072348
-0.074236
-0.076352
-0.078718
-0.081364
-0.084321
-0.087632
-0.091346
-0.095528
-0.100255
-0.105630
-0.111782
-0.118880
-0.127147
-0.136879
-0.148477
-0.162491
-0.179690
-0.201151
-0.228470
-0.263672
-0.309523
-0.369472
-0.445770
-0.536354
-0.630629
-0.708287
-0.747090
-0.741812
-0.701850
-0.649371
-0.592078
-0.527574
-0.485133
-0.064231
-0.064436
-0.064540
-0.064605
-0.064687
-0.064826
-0.065045
-0.065363
-0.065796
-0.066356
-0.067054
-0.067901
-0.068907
-0.070082
-0.071439
-0.072988
-0.074744
-0.076724
-0.078946
-0.081434
-0.084216
-0.087324
-0.090800
-0.094694
-0.099066
-0.103995
-0.109576
-0.115933
-0.123224
-0.131654
-0.141491
-0.153090
-0.166928
-0.183657
-0.204076
-0.229273
-0.260869
-0.300731
-0.350926
-0.412538
-0.483297
-0.554588
-0.610930
-0.636534
-0.629556
-0.597732
-0.558162
-0.523117
-0.484783
-0.458383
-0.066861
-0.067077
-0.067134
-0.067117
-0.067106
-0.067150
-0.067283
-0.067527
-0.067899
-0.068414
-0.069083
-0.069917
-0.070926
-0.072120
-0.073508
-0.075103
-0.076918
-0.078969
-0.081275
-0.083859
-0.086747
-0.089972
-0.093573
-0.097598
-0.102105
-0.107166
-0.112871
-0.119331
-0.126689
-0.135124
-0.144869
-0.156220
-0.169560
-0.185284
-0.204077
-0.226707
-0.254154
-0.287510
-0.327764
-0.375018
-0.426908
-0.476751
-0.513581
-0.527162
-0.517286
-0.490581
-0.460387
-0.438197
-0.419906
-0.406960
-0.069655
-0.069879
-0.069862
-0.069725
-0.069575
-0.069484
-0.069493
-0.069629
-0.069914
-0.070360
-0.070981
-0.071784
-0.072779
-0.073974
-0.075378
-0.077001
-0.078857
-0.080960
-0.083328
-0.085982
-0.088948
-0.092257
-0.095945
-0.100057
-0.104646
-0.109779
-0.115534
-0.122011
-0.129332
-0.137649
-0.147152
-0.158056
-0.170589
-0.185137
-0.202110
-0.221979
-0.245262
-0.272436
-0.303723
-0.338569
-0.374701
-0.407125
-0.428483
-0.432480
-0.419519
-0.395325
-0.370553
-0.355099
-0.348169
-0.343453
-0.072696
-0.072923
-0.072788
-0.072467
-0.072118
-0.071835
-0.071673
-0.071664
-0.071829
-0.072183
-0.072733
-0.073488
-0.074453
-0.075634
-0.077038
-0.078674
-0.080553
-0.082689
-0.085097
-0.087798
-0.090815
-0.094177
-0.097918
-0.102078
-0.106705
-0.111857
-0.117603
-0.124029
-0.131235
-0.139345
-0.148495
-0.158793
-0.170480
-0.183774
-0.198914
-0.216136
-0.235628
-0.257447
-0.281341
-0.306418
-0.330625
-0.350301
-0.360633
-0.357812
-0.342395
-0.319297
-0.297240
-0.284231
-0.280028
-0.276791
-0.076108
-0.076325
-0.075998
-0.075400
-0.074761
-0.074211
-0.073818
-0.073618
-0.073631
-0.073865
-0.074326
-0.075015
-0.075935
-0.077089
-0.078479
-0.080113
-0.082000
-0.084150
-0.086580
-0.089306
-0.092351
-0.095739
-0.099503
-0.103677
-0.108304
-0.113434
-0.119126
-0.125451
-0.132491
-0.140341
-0.149047
-0.158750
-0.169584
-0.181672
-0.195124
-0.210007
-0.226296
-0.243798
-0.262015
-0.279947
-0.295820
-0.306944
-0.310150
-0.303107
-0.286313
-0.263947
-0.243261
-0.229965
-0.219500
-0.209258
-0.080093
-0.080269
-0.079618
-0.078590
-0.077529
-0.076612
-0.075916
-0.075474
-0.075298
-0.075389
-0.075741
-0.076351
-0.077215
-0.078329
-0.079694
-0.081314
-0.083194
-0.085344
-0.087777
-0.090510
-0.093560
-0.096952
-0.100712
-0.104873
-0.109471
-0.114549
-0.120156
-0.126350
-0.133196
-0.140745
-0.149030
-0.158163
-0.168211
-0.179227
-0.191233
-0.204187
-0.217939
-0.232170
-0.246288
-0.259317
-0.269764
-0.275611
-0.274682
-0.265578
-0.248516
-0.226988
-0.206811
-0.190512
-0.162929
-0.133064
-0.084991
-0.085048
-0.083826
-0.082116
-0.080440
-0.079024
-0.077940
-0.077203
-0.076805
-0.076730
-0.076961
-0.077482
-0.078280
-0.079347
-0.080678
-0.082272
-0.084134
-0.086271
-0.088693
-0.091414
-0.094453
-0.097829
-0.101566
-0.105693
-0.110240
-0.115245
-0.120749
-0.126799
-0.133444
-0.140693
-0.148604
-0.157233
-0.166612
-0.176745
-0.187597
-0.199065
-0.210936
-0.222839
-0.234178
-0.244058
-0.251232
-0.254139
-0.251194
-0.241487
-0.225038
-0.204367
-0.182965
-0.156162
-0.096596
-0.023534
-0.091429
-0.091157
-0.088865
-0.086044
-0.083476
-0.081402
-0.079840
-0.078757
-0.078111
-0.077858
-0.077960
-0.078386
-0.079115
-0.080131
-0.081422
-0.082983
-0.084817
-0.086928
-0.089327
-0.092025
-0.095037
-0.098382
-0.102082
-0.106161
-0.110646
-0.115567
-0.120961
-0.126873
-0.133314
-0.140311
-0.147909
-0.156132
-0.164987
-0.174450
-0.184456
-0.194868
-0.205451
-0.215824
-0.225423
-0.233447
-0.238842
-0.240345
-0.236695
-0.227107
-0.211703
-0.191406
-0.164640
-0.109799
0.015884
0.176582
-0.100698
-0.099476
-0.095027
-0.090370
-0.086539
-0.083647
-0.081526
-0.080059
-0.079149
-0.078714
-0.078687
-0.079019
-0.079678
-0.080641
-0.081892
-0.083411
-0.085209
-0.087287
-0.089653
-0.092319
-0.095297
-0.098604
-0.102260
-0.106290
-0.110714
-0.115549
-0.120841
-0.126617
-0.132899
-0.139709
-0.147071
-0.154999
-0.163486
-0.172495
-0.181944
-0.191685
-0.201474
-0.210943
-0.219563
-0.226611
-0.231166
-0.232140
-0.228409
-0.219074
-0.203857
-0.181924
-0.138767
-0.020352
0.256966
0.590213
-0.116103
-0.111771
-0.102523
-0.094864
-0.089331
-0.085516
-0.082763
-0.080874
-0.079690
-0.079077
-0.078926
-0.079168
-0.079759
-0.080674
-0.081893
-0.083358
-0.085119
-0.087171
-0.089513
-0.092150
-0.095096
-0.098368
-0.101986
-0.105969
-0.110340
-0.115120
-0.120341
-0.126030
-0.132209
-0.138900
-0.146117
-0.153869
-0.162140
-0.170886
-0.180019
-0.189384
-0.198738
-0.207721
-0.215825
-0.222376
-0.226516
-0.227218
-0.223323
-0.213485
-0.196340
-0.163579
-0.072220
0.187773
0.763572
1.467434
-0.146326
-0.130079
-0.111096
-0.098108
-0.090134
-0.085393
-0.081883
-0.079722
-0.078409
-0.077699
-0.077494
-0.077711
-0.078295
-0.079212
-0.080430
-0.081924
-0.083708
-0.085780
-0.088141
-0.090799
-0.093763
-0.097051
-0.100681
-0.104674
-0.109049
-0.113831
-0.119047
-0.124722
-0.130881
-0.137540
-0.144714
-0.152405
-0.160593
-0.169228
-0.178216
-0.187396
-0.196520
-0.205226
-0.213011
-0.219208
-0.222944
-0.223113
-0.218119
-0.205385
-0.179629
-0.104383
0.105070
0.638769
1.730092
3.135484
-0.249665
-0.112309
-0.082990
-0.074253
-0.070772
-0.069208
-0.068344
-0.068071
-0.068191
-0.068613
-0.069316
-0.070280
-0.071491
-0.072938
-0.074613
-0.076509
-0.078643
-0.081024
-0.083661
-0.086566
-0.089754
-0.093244
-0.097057
-0.101216
-0.105743
-0.110664
-0.116007
-0.121797
-0.128057
-0.134807
-0.142057
-0.149807
-0.158036
-0.166687
-0.175659
-0.184785
-0.193810
-0.202363
-0.209931
-0.215820
-0.219057
-0.218191
-0.210176
-0.187663
-0.124767
0.035539
0.430199
1.318049
2.992521
5.220763
