# vtk DataFile Version 3.0
Scalar Field
ASCII
DATASET RECTILINEAR_GRID
DIMENSIONS 50 50 1
X_COORDINATES 50 double
0.100000 0.300000 0.500000 0.700000 0.900000 1.100000 1.300000 1.500000 1.700000 1.900000 2.100000 2.300000 2.500000 2.700000 2.900000 3.100000 3.300000 3.500000 3.700000 3.900000 4.100000 4.300000 4.500000 4.700000 4.900000 5.100000 5.300000 5.500000 5.700000 5.900000 6.100000 6.300000 6.500000 6.700000 6.900000 7.100000 7.300000 7.500000 7.700000 7.900000 8.100000 8.300000 8.500000 8.700000 8.900000 9.100000 9.300000 9.500000 9.700000 9.900000 
Y_COORDINATES 50 double
0.100000 0.300000 0.500000 0.700000 0.900000 1.100000 1.300000 1.500000 1.700000 1.900000 2.100000 2.300000 2.500000 2.700000 2.900000 3.100000 3.300000 3.500000 3.700000 3.900000 4.100000 4.300000 4.500000 4.700000 4.900000 5.100000 5.300000 5.500000 5.700000 5.900000 6.100000 6.300000 6.500000 6.700000 6.900000 7.100000 7.300000 7.500000 7.700000 7.900000 8.100000 8.300000 8.500000 8.700000 8.900000 9.100000 9.300000 9.500000 9.700000 9.900000 
Z_COORDINATES 1 double
0.0
POINT_DATA 2500
SCALARS Skalarfeld double 1
LOOKUP_TABLE default
-0.012162
-0.012216
-0.012343
-0.012510
-0.012688
-0.012856
-0.012999
-0.013105
-0.013168
-0.013185
-0.013151
-0.013067
-0.012931
-0.012746
-0.012511
-0.012229
-0.011900
-0.011526
-0.011111
-0.010656
-0.010165
-0.009641
-0.009088
-0.008510
-0.007914
-0.007304
-0.006688
-0.006072
-0.005465
-0.004874
-0.004308
-0.003775
-0.003283
-0.002839
-0.002451
-0.002124
-0.001862
-0.001670
-0.001548
-0.001495
-0.001508
-0.001583
-0.001711
-0.001882
-0.002083
-0.002296
-0.002504
-0.002680
-0.002801
-0.002841
-0.012108
-0.012162
-0.012268
-0.012402
-0.012544
-0.012678
-0.012791
-0.012872
-0.012917
-0.012919
-0.012877
-0.012789
-0.012654
-0.012473
-0.012246
-0.011974
-0.011660
-0.011304
-0.010908
-0.010475
-0.010009
-0.009511
-0.008987
-0.008440
-0.007876
-0.007300
-0.006719
-0.006139
-0.005567
-0.005012
-0.004479
-0.003978
-0.003515
-0.003097
-0.002730
-0.002420
-0.002170
-0.001983
-0.001860
-0.001799
-0.001798
-0.001851
-0.001952
-0.002089
-0.002252
-0.002427
-0.002595
-0.002740
-0.002842
-0.002882
-0.011981
-0.012057
-0.012164
-0.012286
-0.012410
-0.012522
-0.012615
-0.012678
-0.012708
-0.012699
-0.012650
-0.012559
-0.012424
-0.012247
-0.012027
-0.011765
-0.011463
-0.011122
-0.010743
-0.010330
-0.009884
-0.009410
-0.008910
-0.008390
-0.007852
-0.007304
-0.006751
-0.006199
-0.005656
-0.005127
-0.004621
-0.004145
-0.003704
-0.003306
-0.002956
-0.002659
-0.002418
-0.002236
-0.002112
-0.002046
-0.002035
-0.002074
-0.002156
-0.002272
-0.002412
-0.002562
-0.002711
-0.002843
-0.002944
-0.003001
-0.011811
-0.011923
-0.012045
-0.012169
-0.012286
-0.012388
-0.012468
-0.012520
-0.012540
-0.012523
-0.012469
-0.012375
-0.012241
-0.012067
-0.011854
-0.011600
-0.011309
-0.010980
-0.010617
-0.010220
-0.009792
-0.009337
-0.008858
-0.008358
-0.007843
-0.007316
-0.006785
-0.006255
-0.005733
-0.005226
-0.004739
-0.004281
-0.003857
-0.003473
-0.003135
-0.002847
-0.002613
-0.002434
-0.002311
-0.002243
-0.002227
-0.002257
-0.002328
-0.002433
-0.002560
-0.002701
-0.002844
-0.002977
-0.003092
-0.003177
-0.011625
-0.011778
-0.011924
-0.012059
-0.012179
-0.012279
-0.012353
-0.012399
-0.012412
-0.012390
-0.012333
-0.012238
-0.012105
-0.011934
-0.011726
-0.011480
-0.011198
-0.010881
-0.010530
-0.010147
-0.009734
-0.009294
-0.008831
-0.008348
-0.007849
-0.007340
-0.006825
-0.006311
-0.005804
-0.005311
-0.004838
-0.004391
-0.003978
-0.003603
-0.003273
-0.002992
-0.002762
-0.002586
-0.002464
-0.002395
-0.002377
-0.002404
-0.002472
-0.002573
-0.002698
-0.002839
-0.002986
-0.003131
-0.003267
-0.003388
-0.011446
-0.011641
-0.011814
-0.011967
-0.012095
-0.012198
-0.012272
-0.012315
-0.012325
-0.012302
-0.012243
-0.012148
-0.012017
-0.011849
-0.011646
-0.011406
-0.011132
-0.010824
-0.010483
-0.010112
-0.009711
-0.009283
-0.008833
-0.008362
-0.007875
-0.007377
-0.006873
-0.006369
-0.005871
-0.005386
-0.004921
-0.004481
-0.004073
-0.003703
-0.003377
-0.003098
-0.002871
-0.002696
-0.002576
-0.002508
-0.002491
-0.002519
-0.002589
-0.002692
-0.002822
-0.002971
-0.003131
-0.003295
-0.003458
-0.003615
-0.011290
-0.011525
-0.011728
-0.011900
-0.012041
-0.012151
-0.012228
-0.012272
-0.012283
-0.012259
-0.012200
-0.012106
-0.011977
-0.011813
-0.011614
-0.011381
-0.011113
-0.010813
-0.010481
-0.010117
-0.009726
-0.009307
-0.008865
-0.008402
-0.007923
-0.007431
-0.006933
-0.006434
-0.005940
-0.005457
-0.004993
-0.004554
-0.004147
-0.003777
-0.003450
-0.003171
-0.002944
-0.002770
-0.002650
-0.002585
-0.002571
-0.002604
-0.002680
-0.002791
-0.002933
-0.003096
-0.003274
-0.003462
-0.003653
-0.003847
-0.011168
-0.011442
-0.011674
-0.011867
-0.012023
-0.012143
-0.012226
-0.012274
-0.012287
-0.012265
-0.012207
-0.012116
-0.011989
-0.011829
-0.011634
-0.011406
-0.011144
-0.010850
-0.010524
-0.010167
-0.009781
-0.009369
-0.008932
-0.008473
-0.007997
-0.007507
-0.007009
-0.006510
-0.006014
-0.005528
-0.005061
-0.004617
-0.004205
-0.003830
-0.003499
-0.003216
-0.002986
-0.002811
-0.002692
-0.002629
-0.002619
-0.002660
-0.002745
-0.002870
-0.003027
-0.003210
-0.003411
-0.003625
-0.003847
-0.004076
-0.011091
-0.011401
-0.011662
-0.011877
-0.012049
-0.012180
-0.012272
-0.012325
-0.012342
-0.012323
-0.012268
-0.012179
-0.012056
-0.011899
-0.011708
-0.011484
-0.011227
-0.010938
-0.010616
-0.010264
-0.009882
-0.009472
-0.009037
-0.008579
-0.008102
-0.007609
-0.007107
-0.006601
-0.006098
-0.005605
-0.005127
-0.004674
-0.004251
-0.003867
-0.003527
-0.003236
-0.003000
-0.002822
-0.002702
-0.002642
-0.002638
-0.002688
-0.002786
-0.002927
-0.003104
-0.003310
-0.003538
-0.003781
-0.004036
-0.004299
-0.011067
-0.011410
-0.011699
-0.011936
-0.012125
-0.012269
-0.012370
-0.012430
-0.012452
-0.012437
-0.012386
-0.012300
-0.012181
-0.012027
-0.011840
-0.011620
-0.011367
-0.011081
-0.010763
-0.010413
-0.010032
-0.009622
-0.009186
-0.008725
-0.008242
-0.007743
-0.007232
-0.006715
-0.006199
-0.005692
-0.005200
-0.004731
-0.004292
-0.003893
-0.003539
-0.003237
-0.002992
-0.002807
-0.002685
-0.002626
-0.002629
-0.002689
-0.002803
-0.002963
-0.003163
-0.003396
-0.003653
-0.003929
-0.004218
-0.004515
-0.011101
-0.011477
-0.011793
-0.012052
-0.012258
-0.012414
-0.012525
-0.012593
-0.012621
-0.012611
-0.012565
-0.012483
-0.012367
-0.012218
-0.012034
-0.011818
-0.011567
-0.011284
-0.010967
-0.010618
-0.010236
-0.009824
-0.009384
-0.008916
-0.008425
-0.007915
-0.007390
-0.006857
-0.006324
-0.005797
-0.005284
-0.004793
-0.004333
-0.003913
-0.003540
-0.003221
-0.002963
-0.002769
-0.002642
-0.002584
-0.002592
-0.002664
-0.002794
-0.002976
-0.003203
-0.003466
-0.003757
-0.004067
-0.004392
-0.004724
-0.011200
-0.011608
-0.011949
-0.012229
-0.012452
-0.012622
-0.012744
-0.012820
-0.012855
-0.012851
-0.012810
-0.012733
-0.012621
-0.012475
-0.012295
-0.012081
-0.011834
-0.011552
-0.011236
-0.010885
-0.010502
-0.010085
-0.009637
-0.009161
-0.008658
-0.008133
-0.007589
-0.007036
-0.006479
-0.005927
-0.005387
-0.004869
-0.004382
-0.003934
-0.003536
-0.003195
-0.002918
-0.002711
-0.002576
-0.002516
-0.002529
-0.002612
-0.002760
-0.002967
-0.003223
-0.003519
-0.003847
-0.004196
-0.004559
-0.004928
-0.011369
-0.011807
-0.012174
-0.012475
-0.012715
-0.012898
-0.013031
-0.013117
-0.013159
-0.013161
-0.013126
-0.013054
-0.012946
-0.012804
-0.012628
-0.012417
-0.012172
-0.011891
-0.011574
-0.011222
-0.010834
-0.010412
-0.009955
-0.009467
-0.008949
-0.008405
-0.007840
-0.007261
-0.006676
-0.006092
-0.005519
-0.004967
-0.004445
-0.003964
-0.003534
-0.003164
-0.002862
-0.002636
-0.002489
-0.002424
-0.002440
-0.002534
-0.002701
-0.002934
-0.003222
-0.003556
-0.003924
-0.004316
-0.004722
-0.005132
-0.011614
-0.012081
-0.012473
-0.012794
-0.013051
-0.013248
-0.013392
-0.013488
-0.013538
-0.013547
-0.013517
-0.013451
-0.013349
-0.013211
-0.013039
-0.012831
-0.012588
-0.012308
-0.011991
-0.011636
-0.011244
-0.010813
-0.010346
-0.009844
-0.009309
-0.008744
-0.008152
-0.007543
-0.006925
-0.006304
-0.005692
-0.005098
-0.004534
-0.004011
-0.003541
-0.003134
-0.002801
-0.002549
-0.002384
-0.002309
-0.002326
-0.002429
-0.002615
-0.002875
-0.003199
-0.003574
-0.003988
-0.004428
-0.004882
-0.005339
-0.011938
-0.012434
-0.012851
-0.013193
-0.013466
-0.013678
-0.013833
-0.013938
-0.013997
-0.014014
-0.013991
-0.013931
-0.013834
-0.013702
-0.013534
-0.013330
-0.013089
-0.012811
-0.012493
-0.012136
-0.011738
-0.011300
-0.010822
-0.010304
-0.009749
-0.009160
-0.008541
-0.007898
-0.007240
-0.006577
-0.005918
-0.005276
-0.004661
-0.004087
-0.003568
-0.003116
-0.002742
-0.002456
-0.002266
-0.002176
-0.002188
-0.002299
-0.002503
-0.002791
-0.003153
-0.003573
-0.004038
-0.004532
-0.005041
-0.005552
-0.012347
-0.012872
-0.013313
-0.013676
-0.013967
-0.014192
-0.014360
-0.014475
-0.014543
-0.014568
-0.014552
-0.014499
-0.014409
-0.014283
-0.014121
-0.013921
-0.013684
-0.013408
-0.013091
-0.012732
-0.012330
-0.011884
-0.011394
-0.010861
-0.010286
-0.009671
-0.009021
-0.008340
-0.007639
-0.006928
-0.006216
-0.005516
-0.004842
-0.004209
-0.003630
-0.003121
-0.002695
-0.002365
-0.002140
-0.002027
-0.002028
-0.002142
-0.002362
-0.002680
-0.003081
-0.003552
-0.004074
-0.004629
-0.005202
-0.005776
-0.012845
-0.013400
-0.013866
-0.014249
-0.014557
-0.014797
-0.014977
-0.015103
-0.015181
-0.015215
-0.015208
-0.015163
-0.015080
-0.014962
-0.014806
-0.014613
-0.014381
-0.014108
-0.013794
-0.013434
-0.013029
-0.012577
-0.012077
-0.011529
-0.010934
-0.010293
-0.009611
-0.008889
-0.008142
-0.007377
-0.006605
-0.005841
-0.005098
-0.004393
-0.003742
-0.003164
-0.002674
-0.002287
-0.002015
-0.001868
-0.001850
-0.001960
-0.002193
-0.002539
-0.002983
-0.003507
-0.004093
-0.004719
-0.005365
-0.006013
-0.013438
-0.014023
-0.014514
-0.014918
-0.015244
-0.015499
-0.015691
-0.015829
-0.015917
-0.015961
-0.015963
-0.015928
-0.015855
-0.015745
-0.015599
-0.015414
-0.015189
-0.014923
-0.014613
-0.014256
-0.013851
-0.013395
-0.012887
-0.012326
-0.011712
-0.011047
-0.010332
-0.009569
-0.008772
-0.007949
-0.007112
-0.006274
-0.005452
-0.004664
-0.003928
-0.003265
-0.002695
-0.002235
-0.001902
-0.001707
-0.001658
-0.001755
-0.001995
-0.002367
-0.002854
-0.003437
-0.004094
-0.004800
-0.005531
-0.006266
-0.014130
-0.014745
-0.015262
-0.015688
-0.016031
-0.016302
-0.016508
-0.016658
-0.016757
-0.016812
-0.016826
-0.016801
-0.016739
-0.016641
-0.016506
-0.016332
-0.016118
-0.015862
-0.015560
-0.015209
-0.014808
-0.014352
-0.013840
-0.013270
-0.012641
-0.011953
-0.011208
-0.010405
-0.009556
-0.008672
-0.007764
-0.006846
-0.005934
-0.005050
-0.004214
-0.003449
-0.002780
-0.002228
-0.001814
-0.001554
-0.001458
-0.001531
-0.001769
-0.002162
-0.002692
-0.003338
-0.004073
-0.004869
-0.005698
-0.006535
-0.014927
-0.015573
-0.016116
-0.016564
-0.016927
-0.017213
-0.017434
-0.017596
-0.017708
-0.017775
-0.017802
-0.017790
-0.017742
-0.017658
-0.017537
-0.017378
-0.017178
-0.016936
-0.016647
-0.016308
-0.015915
-0.015466
-0.014955
-0.014382
-0.013743
-0.013037
-0.012266
-0.011426
-0.010527
-0.009581
-0.008597
-0.007591
-0.006580
-0.005586
-0.004633
-0.003748
-0.002958
-0.002291
-0.001773
-0.001425
-0.001262
-0.001292
-0.001515
-0.001921
-0.002492
-0.003203
-0.004024
-0.004921
-0.005864
-0.006821
-0.015834
-0.016512
-0.017082
-0.017553
-0.017935
-0.018238
-0.018474
-0.018650
-0.018776
-0.018857
-0.018897
-0.018901
-0.018869
-0.018802
-0.018699
-0.018559
-0.018379
-0.018156
-0.017886
-0.017565
-0.017188
-0.016752
-0.016251
-0.015682
-0.015040
-0.014324
-0.013532
-0.012664
-0.011718
-0.010710
-0.009649
-0.008550
-0.007431
-0.006314
-0.005227
-0.004199
-0.003264
-0.002455
-0.001804
-0.001339
-0.001083
-0.001048
-0.001238
-0.001645
-0.002251
-0.003027
-0.003940
-0.004951
-0.006023
-0.007120
-0.016856
-0.017567
-0.018166
-0.018660
-0.019062
-0.019383
-0.019634
-0.019826
-0.019966
-0.020062
-0.020119
-0.020140
-0.020128
-0.020081
-0.020001
-0.019884
-0.019729
-0.019532
-0.019288
-0.018993
-0.018641
-0.018227
-0.017746
-0.017191
-0.016558
-0.015841
-0.015039
-0.014150
-0.013164
-0.012099
-0.010963
-0.009769
-0.008534
-0.007281
-0.006042
-0.004849
-0.003740
-0.002757
-0.001939
-0.001323
-0.000940
-0.000810
-0.000942
-0.001332
-0.001962
-0.002802
-0.003813
-0.004949
-0.006168
-0.007426
-0.017999
-0.018745
-0.019373
-0.019892
-0.020315
-0.020654
-0.020922
-0.021129
-0.021286
-0.021399
-0.021474
-0.021515
-0.021524
-0.021502
-0.021449
-0.021361
-0.021237
-0.021073
-0.020864
-0.020604
-0.020287
-0.019907
-0.019457
-0.018929
-0.018317
-0.017614
-0.016815
-0.015917
-0.014903
-0.013791
-0.012584
-0.011295
-0.009939
-0.008541
-0.007132
-0.005749
-0.004438
-0.003244
-0.002219
-0.001410
-0.000858
-0.000594
-0.000635
-0.000983
-0.001621
-0.002518
-0.003629
-0.004903
-0.006286
-0.007731
-0.019268
-0.020051
-0.020710
-0.021255
-0.021699
-0.022057
-0.022342
-0.022566
-0.022740
-0.022871
-0.022966
-0.023029
-0.023063
-0.023070
-0.023048
-0.022995
-0.022910
-0.022786
-0.022621
-0.022406
-0.022136
-0.021803
-0.021399
-0.020914
-0.020340
-0.019667
-0.018887
-0.017994
-0.016973
-0.015825
-0.014558
-0.013179
-0.011702
-0.010151
-0.008557
-0.006961
-0.005414
-0.003971
-0.002693
-0.001641
-0.000869
-0.000422
-0.000330
-0.000600
-0.001223
-0.002164
-0.003374
-0.004795
-0.006362
-0.008018
-0.020671
-0.021493
-0.022183
-0.022755
-0.023222
-0.023600
-0.023902
-0.024143
-0.024334
-0.024484
-0.024600
-0.024688
-0.024750
-0.024788
-0.024802
-0.024790
-0.024749
-0.024676
-0.024563
-0.024406
-0.024196
-0.023925
-0.023583
-0.023158
-0.022641
-0.022018
-0.021278
-0.020411
-0.019404
-0.018239
-0.016927
-0.015469
-0.013876
-0.012168
-0.010377
-0.008547
-0.006732
-0.004998
-0.003417
-0.002064
-0.001012
-0.000323
-0.000041
-0.000188
-0.000760
-0.001725
-0.003030
-0.004604
-0.006374
-0.008269
-0.022213
-0.023076
-0.023801
-0.024401
-0.024891
-0.025288
-0.025608
-0.025865
-0.026073
-0.026242
-0.026380
-0.026493
-0.026585
-0.026658
-0.026713
-0.026747
-0.026758
-0.026742
-0.026693
-0.026605
-0.026469
-0.026276
-0.026013
-0.025669
-0.025230
-0.024681
-0.024005
-0.023189
-0.022219
-0.021063
-0.019728
-0.018208
-0.016510
-0.014648
-0.012654
-0.010570
-0.008457
-0.006388
-0.004449
-0.002733
-0.001331
-0.000327
0.000213
0.000248
-0.000227
-0.001185
-0.002570
-0.004301
-0.006291
-0.008455
-0.023902
-0.024809
-0.025571
-0.026200
-0.026714
-0.027130
-0.027466
-0.027739
-0.027962
-0.028149
-0.028308
-0.028447
-0.028570
-0.028679
-0.028777
-0.028862
-0.028931
-0.028981
-0.029006
-0.028999
-0.028951
-0.028851
-0.028688
-0.028445
-0.028108
-0.027658
-0.027074
-0.026338
-0.025429
-0.024316
-0.022986
-0.021429
-0.019643
-0.017638
-0.015440
-0.013090
-0.010652
-0.008207
-0.005854
-0.003704
-0.001873
-0.000471
0.000409
0.000703
0.000386
-0.000523
-0.001965
-0.003851
-0.006075
-0.008538
-0.025746
-0.026701
-0.027502
-0.028162
-0.028699
-0.029133
-0.029483
-0.029769
-0.030005
-0.030207
-0.030385
-0.030547
-0.030700
-0.030847
-0.030990
-0.031128
-0.031260
-0.031383
-0.031490
-0.031575
-0.031628
-0.031639
-0.031594
-0.031475
-0.031265
-0.030940
-0.030478
-0.029852
-0.029036
-0.028001
-0.026711
-0.025148
-0.023300
-0.021170
-0.018775
-0.016154
-0.013370
-0.010511
-0.007688
-0.005033
-0.002686
-0.000792
0.000526
0.001169
0.001089
0.000288
-0.001177
-0.003205
-0.005675
-0.008468
-0.027753
-0.028762
-0.029605
-0.030297
-0.030857
-0.031306
-0.031667
-0.031960
-0.032205
-0.032417
-0.032609
-0.032791
-0.032971
-0.033153
-0.033341
-0.033534
-0.033732
-0.033932
-0.034128
-0.034315
-0.034482
-0.034618
-0.034709
-0.034735
-0.034675
-0.034505
-0.034194
-0.033712
-0.033026
-0.032102
-0.030889
-0.029357
-0.027481
-0.025252
-0.022677
-0.019788
-0.016647
-0.013343
-0.009999
-0.006766
-0.003815
-0.001322
0.000543
0.001646
0.001899
0.001283
-0.000154
-0.002305
-0.005027
-0.008178
-0.029933
-0.031003
-0.031893
-0.032618
-0.033199
-0.033659
-0.034025
-0.034319
-0.034564
-0.034778
-0.034977
-0.035172
-0.035373
-0.035585
-0.035814
-0.036060
-0.036324
-0.036604
-0.036895
-0.037190
-0.037481
-0.037756
-0.037998
-0.038188
-0.038302
-0.038311
-0.038182
-0.037877
-0.037355
-0.036572
-0.035481
-0.034022
-0.032158
-0.029863
-0.027134
-0.023992
-0.020491
-0.016721
-0.012813
-0.008935
-0.005287
-0.002087
0.000451
0.002139
0.002843
0.002508
0.001165
-0.001074
-0.004047
-0.007584
-0.032300
-0.033439
-0.034381
-0.035140
-0.035739
-0.036204
-0.036566
-0.036850
-0.037084
-0.037288
-0.037482
-0.037679
-0.037891
-0.038125
-0.038389
-0.038684
-0.039011
-0.039369
-0.039756
-0.040164
-0.040585
-0.041007
-0.041413
-0.041783
-0.042090
-0.042303
-0.042382
-0.042284
-0.041959
-0.041355
-0.040420
-0.039079
-0.037268
-0.034948
-0.032098
-0.028727
-0.024875
-0.020630
-0.016125
-0.011543
-0.007112
-0.003091
0.000251
0.002666
0.003958
0.004024
0.002863
0.000585
-0.002628
-0.006575
-0.034870
-0.036089
-0.037088
-0.037882
-0.038493
-0.038955
-0.039299
-0.039558
-0.039764
-0.039942
-0.040114
-0.040298
-0.040507
-0.040751
-0.041038
-0.041373
-0.041756
-0.042189
-0.042668
-0.043189
-0.043743
-0.044317
-0.044896
-0.045457
-0.045972
-0.046405
-0.046714
-0.046849
-0.046752
-0.046361
-0.045610
-0.044428
-0.042713
-0.040410
-0.037479
-0.033909
-0.029728
-0.025010
-0.019889
-0.014556
-0.009264
-0.004312
-0.000029
0.003266
0.005304
0.005911
0.005044
0.002796
-0.000634
-0.005012
-0.037661
-0.038976
-0.040041
-0.040868
-0.041484
-0.041927
-0.042235
-0.042449
-0.042604
-0.042733
-0.042861
-0.043010
-0.043197
-0.043434
-0.043729
-0.044090
-0.044519
-0.045017
-0.045583
-0.046211
-0.046896
-0.047623
-0.048377
-0.049134
-0.049865
-0.050530
-0.051084
-0.051469
-0.051622
-0.051467
-0.050929
-0.049938
-0.048358
-0.046112
-0.043139
-0.039408
-0.034925
-0.029751
-0.024008
-0.017892
-0.011673
-0.005690
-0.000330
0.004008
0.006965
0.008279
0.007842
0.005715
0.002104
-0.002718
-0.040702
-0.042133
-0.043271
-0.044129
-0.044738
-0.045142
-0.045388
-0.045526
-0.045600
-0.045649
-0.045704
-0.045792
-0.045932
-0.046138
-0.046422
-0.046792
-0.047250
-0.047801
-0.048441
-0.049169
-0.049977
-0.050852
-0.051777
-0.052730
-0.053677
-0.054578
-0.055382
-0.056027
-0.056441
-0.056539
-0.056228
-0.055448
-0.054032
-0.051877
-0.048900
-0.045044
-0.040293
-0.034686
-0.028329
-0.021413
-0.014217
-0.007114
-0.000548
0.004998
0.009061
0.011272
0.011427
0.009536
0.005801
0.000528
-0.044027
-0.045601
-0.046823
-0.047706
-0.048288
-0.048623
-0.048772
-0.048795
-0.048747
-0.048676
-0.048621
-0.048613
-0.048674
-0.048823
-0.049071
-0.049427
-0.049896
-0.050481
-0.051183
-0.051996
-0.052915
-0.053927
-0.055015
-0.056154
-0.057311
-0.058442
-0.059492
-0.060395
-0.061070
-0.061426
-0.061361
-0.060771
-0.059543
-0.057502
-0.054546
-0.050596
-0.045609
-0.039596
-0.032641
-0.024921
-0.016715
-0.008418
-0.000526
0.006393
0.011761
0.015077
0.016017
0.014505
0.010722
0.005002
-0.047688
-0.049437
-0.050755
-0.051653
-0.052179
-0.052403
-0.052404
-0.052258
-0.052035
-0.051794
-0.051582
-0.051436
-0.051382
-0.051439
-0.051622
-0.051939
-0.052396
-0.052997
-0.053740
-0.054622
-0.055637
-0.056770
-0.058006
-0.059317
-0.060669
-0.062015
-0.063297
-0.064444
-0.065368
-0.065969
-0.066134
-0.065739
-0.064688
-0.062763
-0.059839
-0.055812
-0.050610
-0.044214
-0.036680
-0.028159
-0.018922
-0.009371
-0.000045
0.008407
0.015286
0.019938
0.021883
0.020928
0.017197
0.011045
-0.051753
-0.053724
-0.055148
-0.056041
-0.056467
-0.056519
-0.056302
-0.055915
-0.055449
-0.054975
-0.054549
-0.054215
-0.054002
-0.053931
-0.054016
-0.054267
-0.054688
-0.055281
-0.056046
-0.056978
-0.058069
-0.059306
-0.060670
-0.062133
-0.063658
-0.065196
-0.066686
-0.068050
-0.069196
-0.070016
-0.070384
-0.070163
-0.069263
-0.067434
-0.064532
-0.060425
-0.055013
-0.048244
-0.040141
-0.030824
-0.020539
-0.009685
0.001175
0.011318
0.019921
0.026161
0.029369
0.029184
0.025638
0.019080
-0.056320
-0.058573
-0.060113
-0.060965
-0.061222
-0.061014
-0.060484
-0.059763
-0.058965
-0.058179
-0.057473
-0.056894
-0.056474
-0.056234
-0.056189
-0.056344
-0.056704
-0.057268
-0.058034
-0.058996
-0.060145
-0.061464
-0.062933
-0.064523
-0.066195
-0.067896
-0.069560
-0.071106
-0.072436
-0.073433
-0.073963
-0.073875
-0.073076
-0.071303
-0.068388
-0.064175
-0.058536
-0.051384
-0.042706
-0.032584
-0.021229
-0.009020
0.003470
0.015465
0.026021
0.034131
0.038899
0.039745
0.036552
0.029630
-0.061536
-0.064148
-0.065805
-0.066554
-0.066536
-0.065941
-0.064965
-0.063786
-0.062547
-0.061356
-0.060290
-0.059403
-0.058725
-0.058277
-0.058067
-0.058101
-0.058377
-0.058892
-0.059641
-0.060615
-0.061801
-0.063182
-0.064733
-0.066424
-0.068213
-0.070041
-0.071840
-0.073524
-0.074989
-0.076112
-0.076751
-0.076744
-0.075966
-0.074190
-0.071204
-0.066835
-0.060927
-0.053352
-0.044064
-0.033108
-0.020644
-0.007014
0.007219
0.021242
0.034007
0.044312
0.050997
0.053198
0.050580
0.043351
-0.067616
-0.070687
-0.072444
-0.072979
-0.072520
-0.071353
-0.069752
-0.067953
-0.066135
-0.064429
-0.062918
-0.061655
-0.060670
-0.059975
-0.059574
-0.059463
-0.059639
-0.060090
-0.060806
-0.061779
-0.062988
-0.064411
-0.066019
-0.067786
-0.069661
-0.071578
-0.073468
-0.075241
-0.076786
-0.077974
-0.078656
-0.078665
-0.077824
-0.075967
-0.072829
-0.068231
-0.061992
-0.053920
-0.043954
-0.032108
-0.018464
-0.003315
0.012802
0.029070
0.044351
0.057249
0.066298
0.070277
0.068529
0.061078
-0.074890
-0.078548
-0.080341
-0.080467
-0.079310
-0.077300
-0.074828
-0.072201
-0.069641
-0.067294
-0.065247
-0.063545
-0.062207
-0.061235
-0.060622
-0.060354
-0.060422
-0.060801
-0.061475
-0.062443
-0.063664
-0.065117
-0.066781
-0.068603
-0.070537
-0.072515
-0.074461
-0.076276
-0.077846
-0.079032
-0.079677
-0.079604
-0.078616
-0.076548
-0.073133
-0.068167
-0.061462
-0.052866
-0.042190
-0.029393
-0.014452
0.002362
0.020551
0.039347
0.057545
0.073556
0.085567
0.091901
0.091446
0.083897
-0.083886
-0.088274
-0.089943
-0.089316
-0.087050
-0.083807
-0.080131
-0.076418
-0.072925
-0.069805
-0.067132
-0.064937
-0.063214
-0.061951
-0.061121
-0.060692
-0.060665
-0.060974
-0.061626
-0.062584
-0.063818
-0.065299
-0.066995
-0.068855
-0.070826
-0.072836
-0.074801
-0.076618
-0.078162
-0.079290
-0.079834
-0.079607
-0.078401
-0.076032
-0.072239
-0.066799
-0.059496
-0.050131
-0.038531
-0.024603
-0.008373
0.010174
0.030669
0.052371
0.074027
0.093868
0.109693
0.119232
0.120720
0.113286
-0.095471
-0.100719
-0.101893
-0.099896
-0.095873
-0.090832
-0.085516
-0.080405
-0.075773
-0.071754
-0.068384
-0.065667
-0.063545
-0.062004
-0.060978
-0.060425
-0.060307
-0.060576
-0.061208
-0.062168
-0.063420
-0.064930
-0.066656
-0.068545
-0.070537
-0.072556
-0.074511
-0.076292
-0.077768
-0.078787
-0.079175
-0.078733
-0.077244
-0.074496
-0.070245
-0.064242
-0.056244
-0.046021
-0.033363
-0.018115
-0.000196
0.020380
0.043322
0.068227
0.094068
0.118748
0.139656
0.153741
0.158250
0.151353
-0.111146
-0.117245
-0.117089
-0.112619
-0.105817
-0.098188
-0.090683
-0.083833
-0.077863
-0.072857
-0.068748
-0.065541
-0.063057
-0.061280
-0.060100
-0.059455
-0.059288
-0.059547
-0.060191
-0.061178
-0.062467
-0.064016
-0.065777
-0.067693
-0.069698
-0.071711
-0.073634
-0.075352
-0.076729
-0.077603
-0.077793
-0.077093
-0.075273
-0.072098
-0.067335
-0.060717
-0.051971
-0.040827
-0.027030
-0.010349
0.009395
0.032297
0.058278
0.086984
0.117584
0.148480
0.176396
0.197246
0.206726
0.201304
-0.133654
-0.140059
-0.136728
-0.127806
-0.116657
-0.105391
-0.095070
-0.086169
-0.078716
-0.072747
-0.067965
-0.064306
-0.061565
-0.059625
-0.058369
-0.057705
-0.057557
-0.057861
-0.058563
-0.059615
-0.060969
-0.062578
-0.064388
-0.066338
-0.068357
-0.070359
-0.072242
-0.073884
-0.075144
-0.075857
-0.075831
-0.074854
-0.072686
-0.069073
-0.063796
-0.056564
-0.047074
-0.035017
-0.020079
-0.001946
0.019681
0.045066
0.074378
0.107577
0.144171
0.182737
0.220470
0.251835
0.270021
0.268307
-0.168319
-0.172711
-0.162138
-0.145314
-0.127543
-0.111414
-0.097681
-0.086627
-0.077772
-0.070908
-0.065642
-0.061707
-0.058857
-0.056905
-0.055701
-0.055125
-0.055086
-0.055509
-0.056331
-0.057497
-0.058956
-0.060655
-0.062538
-0.064539
-0.066584
-0.068583
-0.070431
-0.072004
-0.073153
-0.073711
-0.073483
-0.072246
-0.069752
-0.065749
-0.060014
-0.052238
-0.042091
-0.029223
-0.013258
0.006206
0.029609
0.057423
0.090135
0.128180
0.171735
0.220226
0.271329
0.319362
0.353646
0.361131
-0.226152
-0.220537
-0.193935
-0.163588
-0.136294
-0.114349
-0.097115
-0.084021
-0.074142
-0.066786
-0.061376
-0.057483
-0.054781
-0.053029
-0.052047
-0.051699
-0.051882
-0.052513
-0.053528
-0.054868
-0.056479
-0.058307
-0.060294
-0.062374
-0.064470
-0.066491
-0.068330
-0.069860
-0.070933
-0.071377
-0.070996
-0.069568
-0.066811
-0.062533
-0.056471
-0.048303
-0.037679
-0.024214
-0.007479
0.013018
0.037855
0.067729
0.103501
0.146219
0.197077
0.257093
0.326066
0.399733
0.464700
0.495181
-0.331118
-0.289560
-0.229075
-0.177667
-0.138780
-0.110878
-0.091025
-0.076945
-0.066941
-0.059854
-0.054884
-0.051484
-0.049274
-0.047987
-0.047431
-0.047469
-0.047997
-0.048935
-0.050220
-0.051796
-0.053611
-0.055613
-0.057745
-0.059942
-0.062128
-0.064213
-0.066090
-0.067633
-0.068695
-0.069104
-0.068663
-0.067149
-0.064286
-0.059905
-0.053713
-0.045385
-0.034559
-0.020828
-0.003724
0.017312
0.042970
0.074145
0.112048
0.158381
0.215572
0.286992
0.376716
0.487091
0.609048
0.698385
-0.535094
-0.376973
-0.253870
-0.175401
-0.126892
-0.096527
-0.077015
-0.064187
-0.055627
-0.049903
-0.046136
-0.043769
-0.042436
-0.041893
-0.041971
-0.042548
-0.043538
-0.044873
-0.046500
-0.048372
-0.050443
-0.052666
-0.054990
-0.057352
-0.059682
-0.061893
-0.063880
-0.065522
-0.066673
-0.067166
-0.066806
-0.065363
-0.062617
-0.058355
-0.052290
-0.044101
-0.033426
-0.019853
-0.002900
0.018017
0.043640
0.074964
0.113411
0.161147
0.221665
0.300867
0.408879
0.562022
0.777738
1.023285
-0.936085
-0.426131
-0.223977
-0.135464
-0.091741
-0.067967
-0.054116
-0.045692
-0.040481
-0.037307
-0.035502
-0.034668
-0.034552
-0.034989
-0.035866
-0.037105
-0.038647
-0.040450
-0.042477
-0.044693
-0.047066
-0.049558
-0.052124
-0.054710
-0.057252
-0.059668
-0.061861
-0.063714
-0.065088
-0.065820
-0.065719
-0.064574
-0.062175
-0.058292
-0.052651
-0.044942
-0.034815
-0.021872
-0.005648
0.014411
0.039009
0.069081
0.105974
0.151798
0.210188
0.288149
0.400621
0.581611
0.907454
1.540446
