# vtk DataFile Version 3.0
Vector Field
ASCII
DATASET RECTILINEAR_GRID
DIMENSIONS 50 50 1
X_COORDINATES 50 double
0.100000 0.300000 0.500000 0.700000 0.900000 1.100000 1.300000 1.500000 1.700000 1.900000 2.100000 2.300000 2.500000 2.700000 2.900000 3.100000 3.300000 3.500000 3.700000 3.900000 4.100000 4.300000 4.500000 4.700000 4.900000 5.100000 5.300000 5.500000 5.700000 5.900000 6.100000 6.300000 6.500000 6.700000 6.900000 7.100000 7.300000 7.500000 7.700000 7.900000 8.100000 8.300000 8.500000 8.700000 8.900000 9.100000 9.300000 9.500000 9.700000 9.900000 
Y_COORDINATES 50 double
0.100000 0.300000 0.500000 0.700000 0.900000 1.100000 1.300000 1.500000 1.700000 1.900000 2.100000 2.300000 2.500000 2.700000 2.900000 3.100000 3.300000 3.500000 3.700000 3.900000 4.100000 4.300000 4.500000 4.700000 4.900000 5.100000 5.300000 5.500000 5.700000 5.900000 6.100000 6.300000 6.500000 6.700000 6.900000 7.100000 7.300000 7.500000 7.700000 7.900000 8.100000 8.300000 8.500000 8.700000 8.900000 9.100000 9.300000 9.500000 9.700000 9.900000 
Z_COORDINATES 1 double
0.0
POINT_DATA 2500
VECTORS Vektorfeld double
0.000004 -0.000004 0.0
-0.000030 0.000037 0.0
-0.000144 0.000077 0.0
-0.000325 0.000104 0.0
-0.000547 0.000119 0.0
-0.000790 0.000125 0.0
-0.001042 0.000127 0.0
-0.001293 0.000125 0.0
-0.001540 0.000122 0.0
-0.001779 0.000118 0.0
-0.002009 0.000113 0.0
-0.002230 0.000108 0.0
-0.002439 0.000102 0.0
-0.002637 0.000096 0.0
-0.002822 0.000089 0.0
-0.002994 0.000082 0.0
-0.003152 0.000075 0.0
-0.003295 0.000068 0.0
-0.003422 0.000060 0.0
-0.003533 0.000052 0.0
-0.003628 0.000043 0.0
-0.003705 0.000034 0.0
-0.003765 0.000026 0.0
-0.003808 0.000017 0.0
-0.003832 0.000008 0.0
-0.003838 -0.000002 0.0
-0.003825 -0.000011 0.0
-0.003794 -0.000020 0.0
-0.003745 -0.000029 0.0
-0.003678 -0.000038 0.0
-0.003592 -0.000047 0.0
-0.003489 -0.000056 0.0
-0.003368 -0.000065 0.0
-0.003230 -0.000073 0.0
-0.003076 -0.000081 0.0
-0.002907 -0.000089 0.0
-0.002722 -0.000096 0.0
-0.002523 -0.000103 0.0
-0.002310 -0.000109 0.0
-0.002086 -0.000115 0.0
-0.001849 -0.000121 0.0
-0.001603 -0.000126 0.0
-0.001348 -0.000129 0.0
-0.001087 -0.000131 0.0
-0.000826 -0.000130 0.0
-0.000572 -0.000123 0.0
-0.000341 -0.000108 0.0
-0.000153 -0.000080 0.0
-0.000033 -0.000039 0.0
0.000003 0.000003 0.0
-0.000037 0.000030 0.0
-0.000199 0.000199 0.0
-0.000523 0.000354 0.0
-0.000978 0.000462 0.0
-0.001522 0.000525 0.0
-0.002114 0.000555 0.0
-0.002728 0.000562 0.0
-0.003343 0.000556 0.0
-0.003949 0.000543 0.0
-0.004538 0.000525 0.0
-0.005107 0.000504 0.0
-0.005650 0.000481 0.0
-0.006167 0.000455 0.0
-0.006655 0.000428 0.0
-0.007111 0.000399 0.0
-0.007534 0.000368 0.0
-0.007922 0.000335 0.0
-0.008272 0.000301 0.0
-0.008585 0.000266 0.0
-0.008857 0.000229 0.0
-0.009088 0.000191 0.0
-0.009277 0.000153 0.0
-0.009422 0.000113 0.0
-0.009524 0.000073 0.0
-0.009581 0.000032 0.0
-0.009593 -0.000008 0.0
-0.009560 -0.000050 0.0
-0.009482 -0.000091 0.0
-0.009358 -0.000131 0.0
-0.009190 -0.000172 0.0
-0.008977 -0.000212 0.0
-0.008721 -0.000251 0.0
-0.008423 -0.000289 0.0
-0.008083 -0.000326 0.0
-0.007703 -0.000362 0.0
-0.007284 -0.000396 0.0
-0.006829 -0.000429 0.0
-0.006339 -0.000459 0.0
-0.005816 -0.000488 0.0
-0.005263 -0.000514 0.0
-0.004683 -0.000538 0.0
-0.004079 -0.000559 0.0
-0.003456 -0.000574 0.0
-0.002822 -0.000581 0.0
-0.002189 -0.000575 0.0
-0.001576 -0.000544 0.0
-0.001015 -0.000479 0.0
-0.000544 -0.000368 0.0
-0.000207 -0.000208 0.0
-0.000039 -0.000033 0.0
-0.000077 0.000144 0.0
-0.000355 0.000524 0.0
-0.000855 0.000852 0.0
-0.001520 0.001084 0.0
-0.002295 0.001222 0.0
-0.003134 0.001289 0.0
-0.004000 0.001307 0.0
-0.004869 0.001296 0.0
-0.005725 0.001266 0.0
-0.006559 0.001225 0.0
-0.007363 0.001176 0.0
-0.008132 0.001122 0.0
-0.008864 0.001062 0.0
-0.009554 0.000998 0.0
-0.010199 0.000930 0.0
-0.010797 0.000857 0.0
-0.011345 0.000781 0.0
-0.011840 0.000701 0.0
-0.012280 0.000618 0.0
-0.012664 0.000532 0.0
-0.012989 0.000444 0.0
-0.013254 0.000354 0.0
-0.013458 0.000261 0.0
-0.013599 0.000168 0.0
-0.013678 0.000073 0.0
-0.013693 -0.000022 0.0
-0.013644 -0.000118 0.0
-0.013531 -0.000213 0.0
-0.013355 -0.000309 0.0
-0.013115 -0.000403 0.0
-0.012813 -0.000496 0.0
-0.012449 -0.000587 0.0
-0.012026 -0.000675 0.0
-0.011544 -0.000762 0.0
-0.011006 -0.000845 0.0
-0.010414 -0.000924 0.0
-0.009770 -0.001000 0.0
-0.009077 -0.001071 0.0
-0.008338 -0.001138 0.0
-0.007557 -0.001199 0.0
-0.006739 -0.001253 0.0
-0.005887 -0.001300 0.0
-0.005010 -0.001334 0.0
-0.004117 -0.001348 0.0
-0.003227 -0.001331 0.0
-0.002365 -0.001263 0.0
-0.001567 -0.001120 0.0
-0.000882 -0.000882 0.0
-0.000367 -0.000545 0.0
-0.000080 -0.000152 0.0
-0.000105 0.000326 0.0
-0.000469 0.000985 0.0
-0.001100 0.001522 0.0
-0.001918 0.001897 0.0
-0.002857 0.002123 0.0
-0.003865 0.002234 0.0
-0.004902 0.002266 0.0
-0.005941 0.002246 0.0
-0.006966 0.002196 0.0
-0.007963 0.002125 0.0
-0.008924 0.002041 0.0
-0.009845 0.001947 0.0
-0.010720 0.001844 0.0
-0.011545 0.001732 0.0
-0.012317 0.001613 0.0
-0.013031 0.001487 0.0
-0.013685 0.001354 0.0
-0.014276 0.001215 0.0
-0.014802 0.001070 0.0
-0.015259 0.000921 0.0
-0.015646 0.000768 0.0
-0.015962 0.000611 0.0
-0.016204 0.000451 0.0
-0.016371 0.000288 0.0
-0.016464 0.000124 0.0
-0.016480 -0.000042 0.0
-0.016420 -0.000207 0.0
-0.016283 -0.000373 0.0
-0.016071 -0.000538 0.0
-0.015783 -0.000701 0.0
-0.015420 -0.000862 0.0
-0.014985 -0.001019 0.0
-0.014478 -0.001173 0.0
-0.013901 -0.001322 0.0
-0.013258 -0.001466 0.0
-0.012549 -0.001604 0.0
-0.011779 -0.001735 0.0
-0.010951 -0.001858 0.0
-0.010068 -0.001972 0.0
-0.009135 -0.002077 0.0
-0.008157 -0.002171 0.0
-0.007141 -0.002250 0.0
-0.006094 -0.002308 0.0
-0.005029 -0.002331 0.0
-0.003966 -0.002302 0.0
-0.002932 -0.002189 0.0
-0.001968 -0.001956 0.0
-0.001129 -0.001570 0.0
-0.000482 -0.001019 0.0
-0.000108 -0.000339 0.0
-0.000122 0.000554 0.0
-0.000543 0.001543 0.0
-0.001264 0.002315 0.0
-0.002188 0.002846 0.0
-0.003239 0.003165 0.0
-0.004362 0.003322 0.0
-0.005513 0.003366 0.0
-0.006665 0.003337 0.0
-0.007800 0.003263 0.0
-0.008904 0.003159 0.0
-0.009969 0.003034 0.0
-0.010988 0.002894 0.0
-0.011956 0.002740 0.0
-0.012869 0.002574 0.0
-0.013723 0.002396 0.0
-0.014513 0.002208 0.0
-0.015236 0.002010 0.0
-0.015889 0.001803 0.0
-0.016469 0.001588 0.0
-0.016974 0.001366 0.0
-0.017402 0.001138 0.0
-0.017750 0.000904 0.0
-0.018016 0.000666 0.0
-0.018201 0.000424 0.0
-0.018301 0.000180 0.0
-0.018318 -0.000065 0.0
-0.018251 -0.000312 0.0
-0.018099 -0.000557 0.0
-0.017863 -0.000802 0.0
-0.017544 -0.001044 0.0
-0.017143 -0.001282 0.0
-0.016661 -0.001516 0.0
-0.016099 -0.001744 0.0
-0.015461 -0.001966 0.0
-0.014749 -0.002179 0.0
-0.013965 -0.002383 0.0
-0.013113 -0.002577 0.0
-0.012196 -0.002760 0.0
-0.011220 -0.002930 0.0
-0.010188 -0.003085 0.0
-0.009106 -0.003223 0.0
-0.007982 -0.003339 0.0
-0.006824 -0.003423 0.0
-0.005645 -0.003459 0.0
-0.004467 -0.003417 0.0
-0.003317 -0.003257 0.0
-0.002240 -0.002929 0.0
-0.001293 -0.002383 0.0
-0.000556 -0.001591 0.0
-0.000125 -0.000573 0.0
-0.000133 0.000809 0.0
-0.000589 0.002166 0.0
-0.001369 0.003192 0.0
-0.002365 0.003888 0.0
-0.003494 0.004304 0.0
-0.004695 0.004507 0.0
-0.005924 0.004562 0.0
-0.007152 0.004522 0.0
-0.008360 0.004421 0.0
-0.009535 0.004280 0.0
-0.010668 0.004111 0.0
-0.011752 0.003921 0.0
-0.012782 0.003712 0.0
-0.013753 0.003486 0.0
-0.014661 0.003245 0.0
-0.015501 0.002989 0.0
-0.016269 0.002720 0.0
-0.016963 0.002440 0.0
-0.017580 0.002148 0.0
-0.018116 0.001847 0.0
-0.018570 0.001538 0.0
-0.018939 0.001221 0.0
-0.019222 0.000899 0.0
-0.019417 0.000572 0.0
-0.019524 0.000241 0.0
-0.019542 -0.000091 0.0
-0.019470 -0.000425 0.0
-0.019308 -0.000757 0.0
-0.019057 -0.001088 0.0
-0.018718 -0.001416 0.0
-0.018292 -0.001738 0.0
-0.017779 -0.002055 0.0
-0.017183 -0.002363 0.0
-0.016504 -0.002663 0.0
-0.015747 -0.002952 0.0
-0.014914 -0.003228 0.0
-0.014008 -0.003490 0.0
-0.013033 -0.003737 0.0
-0.011995 -0.003967 0.0
-0.010897 -0.004177 0.0
-0.009746 -0.004364 0.0
-0.008550 -0.004520 0.0
-0.007317 -0.004634 0.0
-0.006061 -0.004682 0.0
-0.004804 -0.004629 0.0
-0.003574 -0.004423 0.0
-0.002418 -0.003996 0.0
-0.001399 -0.003281 0.0
-0.000602 -0.002227 0.0
-0.000135 -0.000833 0.0
-0.000139 0.001080 0.0
-0.000618 0.002831 0.0
-0.001438 0.004127 0.0
-0.002486 0.004996 0.0
-0.003671 0.005510 0.0
-0.004929 0.005759 0.0
-0.006215 0.005824 0.0
-0.007498 0.005771 0.0
-0.008759 0.005641 0.0
-0.009985 0.005461 0.0
-0.011167 0.005245 0.0
-0.012298 0.005002 0.0
-0.013372 0.004735 0.0
-0.014385 0.004446 0.0
-0.015330 0.004138 0.0
-0.016205 0.003811 0.0
-0.017006 0.003468 0.0
-0.017729 0.003109 0.0
-0.018371 0.002737 0.0
-0.018930 0.002353 0.0
-0.019402 0.001958 0.0
-0.019787 0.001554 0.0
-0.020082 0.001143 0.0
-0.020286 0.000726 0.0
-0.020397 0.000305 0.0
-0.020416 -0.000119 0.0
-0.020341 -0.000544 0.0
-0.020174 -0.000968 0.0
-0.019913 -0.001389 0.0
-0.019561 -0.001807 0.0
-0.019117 -0.002218 0.0
-0.018584 -0.002621 0.0
-0.017963 -0.003015 0.0
-0.017257 -0.003396 0.0
-0.016468 -0.003764 0.0
-0.015599 -0.004117 0.0
-0.014655 -0.004452 0.0
-0.013639 -0.004767 0.0
-0.012556 -0.005059 0.0
-0.011411 -0.005327 0.0
-0.010210 -0.005565 0.0
-0.008961 -0.005764 0.0
-0.007673 -0.005910 0.0
-0.006360 -0.005974 0.0
-0.005044 -0.005912 0.0
-0.003755 -0.005659 0.0
-0.002542 -0.005131 0.0
-0.001470 -0.004238 0.0
-0.000631 -0.002907 0.0
-0.000141 -0.001110 0.0
-0.000143 0.001361 0.0
-0.000639 0.003525 0.0
-0.001491 0.005105 0.0
-0.002579 0.006154 0.0
-0.003809 0.006769 0.0
-0.005115 0.007064 0.0
-0.006447 0.007138 0.0
-0.007776 0.007069 0.0
-0.009082 0.006909 0.0
-0.010350 0.006688 0.0
-0.011573 0.006423 0.0
-0.012742 0.006124 0.0
-0.013852 0.005797 0.0
-0.014898 0.005442 0.0
-0.015875 0.005064 0.0
-0.016779 0.004664 0.0
-0.017607 0.004243 0.0
-0.018353 0.003804 0.0
-0.019016 0.003348 0.0
-0.019593 0.002878 0.0
-0.020082 0.002394 0.0
-0.020479 0.001900 0.0
-0.020784 0.001397 0.0
-0.020995 0.000887 0.0
-0.021111 0.000372 0.0
-0.021131 -0.000147 0.0
-0.021056 -0.000666 0.0
-0.020884 -0.001185 0.0
-0.020616 -0.001700 0.0
-0.020253 -0.002211 0.0
-0.019796 -0.002714 0.0
-0.019247 -0.003208 0.0
-0.018607 -0.003689 0.0
-0.017879 -0.004157 0.0
-0.017064 -0.004607 0.0
-0.016168 -0.005039 0.0
-0.015192 -0.005449 0.0
-0.014142 -0.005835 0.0
-0.013022 -0.006194 0.0
-0.011838 -0.006522 0.0
-0.010595 -0.006814 0.0
-0.009301 -0.007059 0.0
-0.007966 -0.007238 0.0
-0.006605 -0.007319 0.0
-0.005239 -0.007249 0.0
-0.003901 -0.006949 0.0
-0.002639 -0.006316 0.0
-0.001525 -0.005238 0.0
-0.000653 -0.003616 0.0
-0.000146 -0.001397 0.0
-0.000147 0.001651 0.0
-0.000659 0.004243 0.0
-0.001538 0.006118 0.0
-0.002663 0.007353 0.0
-0.003936 0.008073 0.0
-0.005286 0.008415 0.0
-0.006663 0.008497 0.0
-0.008036 0.008412 0.0
-0.009384 0.008219 0.0
-0.010693 0.007955 0.0
-0.011954 0.007639 0.0
-0.013160 0.007283 0.0
-0.014305 0.006893 0.0
-0.015383 0.006471 0.0
-0.016390 0.006020 0.0
-0.017321 0.005543 0.0
-0.018173 0.005042 0.0
-0.018943 0.004520 0.0
-0.019626 0.003978 0.0
-0.020220 0.003419 0.0
-0.020724 0.002844 0.0
-0.021134 0.002257 0.0
-0.021448 0.001660 0.0
-0.021667 0.001054 0.0
-0.021787 0.000442 0.0
-0.021810 -0.000174 0.0
-0.021734 -0.000791 0.0
-0.021559 -0.001407 0.0
-0.021285 -0.002020 0.0
-0.020913 -0.002626 0.0
-0.020445 -0.003224 0.0
-0.019881 -0.003811 0.0
-0.019223 -0.004384 0.0
-0.018474 -0.004940 0.0
-0.017636 -0.005476 0.0
-0.016713 -0.005990 0.0
-0.015708 -0.006478 0.0
-0.014626 -0.006938 0.0
-0.013470 -0.007366 0.0
-0.012248 -0.007757 0.0
-0.010964 -0.008105 0.0
-0.009627 -0.008398 0.0
-0.008247 -0.008614 0.0
-0.006838 -0.008714 0.0
-0.005424 -0.008636 0.0
-0.004037 -0.008287 0.0
-0.002730 -0.007546 0.0
-0.001576 -0.006276 0.0
-0.000674 -0.004351 0.0
-0.000150 -0.001693 0.0
-0.000151 0.001950 0.0
-0.000679 0.004985 0.0
-0.001588 0.007165 0.0
-0.002751 0.008594 0.0
-0.004068 0.009422 0.0
-0.005464 0.009811 0.0
-0.006888 0.009902 0.0
-0.008307 0.009799 0.0
-0.009699 0.009572 0.0
-0.011051 0.009263 0.0
-0.012353 0.008894 0.0
-0.013598 0.008479 0.0
-0.014779 0.008023 0.0
-0.015890 0.007530 0.0
-0.016929 0.007005 0.0
-0.017889 0.006450 0.0
-0.018767 0.005867 0.0
-0.019560 0.005258 0.0
-0.020265 0.004627 0.0
-0.020878 0.003977 0.0
-0.021397 0.003309 0.0
-0.021820 0.002626 0.0
-0.022145 0.001931 0.0
-0.022372 0.001227 0.0
-0.022498 0.000516 0.0
-0.022523 -0.000200 0.0
-0.022446 -0.000917 0.0
-0.022268 -0.001634 0.0
-0.021989 -0.002346 0.0
-0.021609 -0.003052 0.0
-0.021129 -0.003747 0.0
-0.020550 -0.004430 0.0
-0.019874 -0.005097 0.0
-0.019104 -0.005745 0.0
-0.018242 -0.006370 0.0
-0.017291 -0.006970 0.0
-0.016256 -0.007540 0.0
-0.015139 -0.008076 0.0
-0.013946 -0.008576 0.0
-0.012683 -0.009033 0.0
-0.011356 -0.009440 0.0
-0.009972 -0.009783 0.0
-0.008544 -0.010037 0.0
-0.007085 -0.010157 0.0
-0.005619 -0.010072 0.0
-0.004182 -0.009674 0.0
-0.002827 -0.008821 0.0
-0.001630 -0.007351 0.0
-0.000697 -0.005111 0.0
-0.000155 -0.001999 0.0
-0.000157 0.002258 0.0
-0.000703 0.005751 0.0
-0.001644 0.008249 0.0
-0.002849 0.009878 0.0
-0.004213 0.010818 0.0
-0.005660 0.011257 0.0
-0.007135 0.011356 0.0
-0.008605 0.011234 0.0
-0.010047 0.010972 0.0
-0.011447 0.010615 0.0
-0.012793 0.010191 0.0
-0.014080 0.009713 0.0
-0.015301 0.009190 0.0
-0.016450 0.008625 0.0
-0.017523 0.008022 0.0
-0.018515 0.007385 0.0
-0.019422 0.006717 0.0
-0.020241 0.006020 0.0
-0.020968 0.005298 0.0
-0.021602 0.004553 0.0
-0.022138 0.003788 0.0
-0.022576 0.003007 0.0
-0.022913 0.002213 0.0
-0.023148 0.001407 0.0
-0.023280 0.000594 0.0
-0.023308 -0.000225 0.0
-0.023232 -0.001045 0.0
-0.023051 -0.001865 0.0
-0.022766 -0.002680 0.0
-0.022377 -0.003487 0.0
-0.021884 -0.004284 0.0
-0.021290 -0.005067 0.0
-0.020595 -0.005831 0.0
-0.019802 -0.006574 0.0
-0.018914 -0.007292 0.0
-0.017933 -0.007980 0.0
-0.016863 -0.008635 0.0
-0.015709 -0.009252 0.0
-0.014475 -0.009827 0.0
-0.013166 -0.010354 0.0
-0.011791 -0.010823 0.0
-0.010356 -0.011219 0.0
-0.008874 -0.011513 0.0
-0.007359 -0.011655 0.0
-0.005836 -0.011563 0.0
-0.004343 -0.011114 0.0
-0.002935 -0.010145 0.0
-0.001692 -0.008467 0.0
-0.000723 -0.005899 0.0
-0.000161 -0.002315 0.0
-0.000162 0.002577 0.0
-0.000730 0.006546 0.0
-0.001708 0.009373 0.0
-0.002960 0.011211 0.0
-0.004378 0.012268 0.0
-0.005881 0.012758 0.0
-0.007414 0.012864 0.0
-0.008941 0.012723 0.0
-0.010438 0.012422 0.0
-0.011890 0.012016 0.0
-0.013287 0.011534 0.0
-0.014622 0.010992 0.0
-0.015887 0.010397 0.0
-0.017078 0.009757 0.0
-0.018189 0.009074 0.0
-0.019216 0.008352 0.0
-0.020155 0.007596 0.0
-0.021002 0.006807 0.0
-0.021755 0.005990 0.0
-0.022411 0.005149 0.0
-0.022967 0.004285 0.0
-0.023420 0.003403 0.0
-0.023771 0.002505 0.0
-0.024016 0.001595 0.0
-0.024155 0.000677 0.0
-0.024187 -0.000248 0.0
-0.024111 -0.001174 0.0
-0.023927 -0.002100 0.0
-0.023636 -0.003021 0.0
-0.023237 -0.003934 0.0
-0.022731 -0.004836 0.0
-0.022119 -0.005721 0.0
-0.021404 -0.006587 0.0
-0.020586 -0.007429 0.0
-0.019668 -0.008243 0.0
-0.018654 -0.009024 0.0
-0.017546 -0.009768 0.0
-0.016350 -0.010470 0.0
-0.015070 -0.011124 0.0
-0.013712 -0.011723 0.0
-0.012282 -0.012258 0.0
-0.010790 -0.012710 0.0
-0.009247 -0.013047 0.0
-0.007669 -0.013213 0.0
-0.006082 -0.013115 0.0
-0.004526 -0.012613 0.0
-0.003058 -0.011522 0.0
-0.001763 -0.009627 0.0
-0.000753 -0.006718 0.0
-0.000167 -0.002643 0.0
-0.000169 0.002908 0.0
-0.000761 0.007373 0.0
-0.001780 0.010543 0.0
-0.003085 0.012598 0.0
-0.004564 0.013776 0.0
-0.006131 0.014319 0.0
-0.007728 0.014434 0.0
-0.009319 0.014270 0.0
-0.010877 0.013930 0.0
-0.012389 0.013472 0.0
-0.013842 0.012929 0.0
-0.015230 0.012319 0.0
-0.016545 0.011651 0.0
-0.017781 0.010931 0.0
-0.018935 0.010164 0.0
-0.020001 0.009355 0.0
-0.020975 0.008507 0.0
-0.021854 0.007623 0.0
-0.022636 0.006708 0.0
-0.023316 0.005766 0.0
-0.023893 0.004800 0.0
-0.024364 0.003813 0.0
-0.024729 0.002809 0.0
-0.024985 0.001792 0.0
-0.025132 0.000765 0.0
-0.025168 -0.000268 0.0
-0.025093 -0.001305 0.0
-0.024907 -0.002340 0.0
-0.024609 -0.003371 0.0
-0.024200 -0.004393 0.0
-0.023679 -0.005403 0.0
-0.023049 -0.006396 0.0
-0.022311 -0.007367 0.0
-0.021465 -0.008312 0.0
-0.020516 -0.009227 0.0
-0.019465 -0.010105 0.0
-0.018316 -0.010943 0.0
-0.017073 -0.011734 0.0
-0.015742 -0.012471 0.0
-0.014327 -0.013148 0.0
-0.012837 -0.013753 0.0
-0.011281 -0.014265 0.0
-0.009669 -0.014648 0.0
-0.008020 -0.014839 0.0
-0.006362 -0.014734 0.0
-0.004734 -0.014178 0.0
-0.003198 -0.012960 0.0
-0.001843 -0.010839 0.0
-0.000787 -0.007573 0.0
-0.000175 -0.002985 0.0
-0.000177 0.003254 0.0
-0.000795 0.008236 0.0
-0.001862 0.011765 0.0
-0.003227 0.014047 0.0
-0.004773 0.015351 0.0
-0.006411 0.015949 0.0
-0.008081 0.016071 0.0
-0.009742 0.015885 0.0
-0.011370 0.015502 0.0
-0.012947 0.014989 0.0
-0.014464 0.014382 0.0
-0.015910 0.013700 0.0
-0.017280 0.012954 0.0
-0.018567 0.012152 0.0
-0.019767 0.011297 0.0
-0.020876 0.010396 0.0
-0.021889 0.009453 0.0
-0.022803 0.008470 0.0
-0.023615 0.007454 0.0
-0.024322 0.006408 0.0
-0.024923 0.005335 0.0
-0.025414 0.004241 0.0
-0.025794 0.003127 0.0
-0.026063 0.001999 0.0
-0.026218 0.000860 0.0
-0.026259 -0.000286 0.0
-0.026186 -0.001436 0.0
-0.025997 -0.002585 0.0
-0.025692 -0.003729 0.0
-0.025272 -0.004865 0.0
-0.024736 -0.005987 0.0
-0.024086 -0.007091 0.0
-0.023323 -0.008173 0.0
-0.022448 -0.009227 0.0
-0.021464 -0.010247 0.0
-0.020372 -0.011228 0.0
-0.019178 -0.012164 0.0
-0.017884 -0.013049 0.0
-0.016495 -0.013876 0.0
-0.015019 -0.014635 0.0
-0.013462 -0.015314 0.0
-0.011833 -0.015890 0.0
-0.010145 -0.016322 0.0
-0.008417 -0.016541 0.0
-0.006677 -0.016431 0.0
-0.004969 -0.015817 0.0
-0.003357 -0.014468 0.0
-0.001935 -0.012108 0.0
-0.000826 -0.008469 0.0
-0.000184 -0.003344 0.0
-0.000186 0.003617 0.0
-0.000835 0.009141 0.0
-0.001954 0.013046 0.0
-0.003386 0.015565 0.0
-0.005008 0.017001 0.0
-0.006725 0.017656 0.0
-0.008475 0.017784 0.0
-0.010216 0.017573 0.0
-0.011920 0.017145 0.0
-0.013570 0.016574 0.0
-0.015155 0.015898 0.0
-0.016666 0.015141 0.0
-0.018096 0.014313 0.0
-0.019440 0.013423 0.0
-0.020691 0.012477 0.0
-0.021847 0.011480 0.0
-0.022902 0.010437 0.0
-0.023854 0.009352 0.0
-0.024699 0.008230 0.0
-0.025435 0.007076 0.0
-0.026061 0.005893 0.0
-0.026573 0.004686 0.0
-0.026971 0.003460 0.0
-0.027253 0.002217 0.0
-0.027418 0.000963 0.0
-0.027465 -0.000300 0.0
-0.027393 -0.001567 0.0
-0.027201 -0.002834 0.0
-0.026890 -0.004096 0.0
-0.026458 -0.005349 0.0
-0.025907 -0.006589 0.0
-0.025236 -0.007810 0.0
-0.024447 -0.009007 0.0
-0.023540 -0.010174 0.0
-0.022518 -0.011306 0.0
-0.021383 -0.012395 0.0
-0.020138 -0.013436 0.0
-0.018788 -0.014421 0.0
-0.017338 -0.015342 0.0
-0.015793 -0.016190 0.0
-0.014160 -0.016948 0.0
-0.012451 -0.017593 0.0
-0.010678 -0.018079 0.0
-0.008862 -0.018329 0.0
-0.007031 -0.018214 0.0
-0.005233 -0.017541 0.0
-0.003536 -0.016052 0.0
-0.002038 -0.013443 0.0
-0.000870 -0.009411 0.0
-0.000193 -0.003721 0.0
-0.000196 0.003998 0.0
-0.000879 0.010092 0.0
-0.002056 0.014391 0.0
-0.003564 0.017160 0.0
-0.005269 0.018733 0.0
-0.007075 0.019447 0.0
-0.008914 0.019582 0.0
-0.010742 0.019344 0.0
-0.012530 0.018867 0.0
-0.014261 0.018233 0.0
-0.015922 0.017485 0.0
-0.017504 0.016647 0.0
-0.019000 0.015733 0.0
-0.020404 0.014751 0.0
-0.021711 0.013708 0.0
-0.022917 0.012610 0.0
-0.024018 0.011463 0.0
-0.025010 0.010270 0.0
-0.025892 0.009038 0.0
-0.026660 0.007772 0.0
-0.027312 0.006475 0.0
-0.027847 0.005152 0.0
-0.028264 0.003808 0.0
-0.028561 0.002447 0.0
-0.028736 0.001073 0.0
-0.028789 -0.000310 0.0
-0.028719 -0.001699 0.0
-0.028526 -0.003087 0.0
-0.028208 -0.004472 0.0
-0.027765 -0.005848 0.0
-0.027197 -0.007210 0.0
-0.026504 -0.008553 0.0
-0.025687 -0.009871 0.0
-0.024747 -0.011158 0.0
-0.023685 -0.012407 0.0
-0.022503 -0.013611 0.0
-0.021205 -0.014763 0.0
-0.019794 -0.015855 0.0
-0.018275 -0.016878 0.0
-0.016654 -0.017820 0.0
-0.014940 -0.018665 0.0
-0.013142 -0.019384 0.0
-0.011275 -0.019929 0.0
-0.009360 -0.020212 0.0
-0.007428 -0.020093 0.0
-0.005529 -0.019359 0.0
-0.003737 -0.017724 0.0
-0.002154 -0.014852 0.0
-0.000920 -0.010405 0.0
-0.000204 -0.004119 0.0
-0.000206 0.004400 0.0
-0.000928 0.011094 0.0
-0.002171 0.015809 0.0
-0.003761 0.018840 0.0
-0.005560 0.020558 0.0
-0.007464 0.021333 0.0
-0.009401 0.021473 0.0
-0.011325 0.021205 0.0
-0.013206 0.020676 0.0
-0.015025 0.019974 0.0
-0.016768 0.019148 0.0
-0.018428 0.018225 0.0
-0.019995 0.017219 0.0
-0.021465 0.016139 0.0
-0.022832 0.014994 0.0
-0.024092 0.013790 0.0
-0.025242 0.012533 0.0
-0.026278 0.011228 0.0
-0.027198 0.009882 0.0
-0.027999 0.008498 0.0
-0.028680 0.007083 0.0
-0.029240 0.005640 0.0
-0.029677 0.004174 0.0
-0.029989 0.002690 0.0
-0.030176 0.001192 0.0
-0.030237 -0.000316 0.0
-0.030170 -0.001830 0.0
-0.029975 -0.003345 0.0
-0.029651 -0.004857 0.0
-0.029196 -0.006360 0.0
-0.028612 -0.007850 0.0
-0.027897 -0.009321 0.0
-0.027051 -0.010766 0.0
-0.026076 -0.012179 0.0
-0.024971 -0.013552 0.0
-0.023740 -0.014879 0.0
-0.022384 -0.016150 0.0
-0.020907 -0.017356 0.0
-0.019314 -0.018488 0.0
-0.017612 -0.019533 0.0
-0.015807 -0.020471 0.0
-0.013912 -0.021271 0.0
-0.011940 -0.021880 0.0
-0.009916 -0.022201 0.0
-0.007872 -0.022079 0.0
-0.005861 -0.021282 0.0
-0.003962 -0.019494 0.0
-0.002284 -0.016343 0.0
-0.000975 -0.011457 0.0
-0.000217 -0.004540 0.0
-0.000219 0.004825 0.0
-0.000982 0.012154 0.0
-0.002298 0.017308 0.0
-0.003980 0.020614 0.0
-0.005882 0.022484 0.0
-0.007894 0.023322 0.0
-0.009939 0.023466 0.0
-0.011969 0.023165 0.0
-0.013952 0.022579 0.0
-0.015867 0.021804 0.0
-0.017701 0.020895 0.0
-0.019444 0.019880 0.0
-0.021089 0.018776 0.0
-0.022629 0.017593 0.0
-0.024060 0.016340 0.0
-0.025378 0.015023 0.0
-0.026580 0.013651 0.0
-0.027662 0.012228 0.0
-0.028622 0.010762 0.0
-0.029459 0.009256 0.0
-0.030170 0.007717 0.0
-0.030756 0.006150 0.0
-0.031213 0.004559 0.0
-0.031543 0.002948 0.0
-0.031742 0.001322 0.0
-0.031811 -0.000316 0.0
-0.031748 -0.001960 0.0
-0.031553 -0.003606 0.0
-0.031223 -0.005250 0.0
-0.030758 -0.006886 0.0
-0.030158 -0.008509 0.0
-0.029420 -0.010114 0.0
-0.028545 -0.011693 0.0
-0.027533 -0.013239 0.0
-0.026385 -0.014745 0.0
-0.025101 -0.016201 0.0
-0.023684 -0.017600 0.0
-0.022137 -0.018930 0.0
-0.020464 -0.020180 0.0
-0.018672 -0.021335 0.0
-0.016769 -0.022375 0.0
-0.014767 -0.023265 0.0
-0.012681 -0.023944 0.0
-0.010535 -0.024308 0.0
-0.008366 -0.024185 0.0
-0.006231 -0.023322 0.0
-0.004212 -0.021371 0.0
-0.002429 -0.017926 0.0
-0.001037 -0.012574 0.0
-0.000231 -0.004988 0.0
-0.000232 0.005276 0.0
-0.001043 0.013277 0.0
-0.002438 0.018896 0.0
-0.004223 0.022494 0.0
-0.006239 0.024522 0.0
-0.008370 0.025426 0.0
-0.010534 0.025573 0.0
-0.012680 0.025234 0.0
-0.014774 0.024586 0.0
-0.016793 0.023732 0.0
-0.018725 0.022733 0.0
-0.020559 0.021619 0.0
-0.022286 0.020409 0.0
-0.023902 0.019116 0.0
-0.025402 0.017747 0.0
-0.026781 0.016313 0.0
-0.028037 0.014819 0.0
-0.029167 0.013272 0.0
-0.030170 0.011680 0.0
-0.031043 0.010048 0.0
-0.031786 0.008381 0.0
-0.032399 0.006684 0.0
-0.032879 0.004963 0.0
-0.033226 0.003220 0.0
-0.033439 0.001462 0.0
-0.033518 -0.000309 0.0
-0.033460 -0.002087 0.0
-0.033265 -0.003869 0.0
-0.032931 -0.005650 0.0
-0.032456 -0.007425 0.0
-0.031840 -0.009188 0.0
-0.031080 -0.010933 0.0
-0.030177 -0.012653 0.0
-0.029128 -0.014340 0.0
-0.027934 -0.015986 0.0
-0.026595 -0.017582 0.0
-0.025114 -0.019118 0.0
-0.023492 -0.020581 0.0
-0.021734 -0.021959 0.0
-0.019846 -0.023236 0.0
-0.017836 -0.024387 0.0
-0.015716 -0.025375 0.0
-0.013503 -0.026132 0.0
-0.011224 -0.026544 0.0
-0.008917 -0.026424 0.0
-0.006643 -0.025492 0.0
-0.004493 -0.023371 0.0
-0.002591 -0.019612 0.0
-0.001106 -0.013765 0.0
-0.000246 -0.005464 0.0
-0.000247 0.005755 0.0
-0.001110 0.014471 0.0
-0.002594 0.020583 0.0
-0.004492 0.024489 0.0
-0.006634 0.026685 0.0
-0.008895 0.027655 0.0
-0.011191 0.027803 0.0
-0.013464 0.027423 0.0
-0.015678 0.026705 0.0
-0.017812 0.025766 0.0
-0.019849 0.024668 0.0
-0.021780 0.023448 0.0
-0.023596 0.022125 0.0
-0.025292 0.020713 0.0
-0.026864 0.019222 0.0
-0.028307 0.017661 0.0
-0.029620 0.016039 0.0
-0.030800 0.014362 0.0
-0.031846 0.012639 0.0
-0.032758 0.010874 0.0
-0.033534 0.009074 0.0
-0.034174 0.007243 0.0
-0.034677 0.005387 0.0
-0.035043 0.003509 0.0
-0.035271 0.001614 0.0
-0.035360 -0.000294 0.0
-0.035309 -0.002211 0.0
-0.035116 -0.004134 0.0
-0.034779 -0.006057 0.0
-0.034296 -0.007975 0.0
-0.033665 -0.009884 0.0
-0.032885 -0.011776 0.0
-0.031953 -0.013645 0.0
-0.030867 -0.015482 0.0
-0.029627 -0.017278 0.0
-0.028233 -0.019024 0.0
-0.026684 -0.020707 0.0
-0.024983 -0.022315 0.0
-0.023134 -0.023833 0.0
-0.021143 -0.025242 0.0
-0.019017 -0.026517 0.0
-0.016769 -0.027613 0.0
-0.014418 -0.028458 0.0
-0.011991 -0.028925 0.0
-0.009531 -0.028810 0.0
-0.007104 -0.027807 0.0
-0.004805 -0.025505 0.0
-0.002772 -0.021413 0.0
-0.001184 -0.015036 0.0
-0.000263 -0.005974 0.0
-0.000264 0.006266 0.0
-0.001184 0.015743 0.0
-0.002767 0.022379 0.0
-0.004790 0.026612 0.0
-0.007070 0.028984 0.0
-0.009477 0.030024 0.0
-0.011916 0.030169 0.0
-0.014327 0.029741 0.0
-0.016674 0.028947 0.0
-0.018930 0.027913 0.0
-0.021081 0.026709 0.0
-0.023116 0.025373 0.0
-0.025026 0.023927 0.0
-0.026807 0.022387 0.0
-0.028454 0.020765 0.0
-0.029964 0.019071 0.0
-0.031336 0.017313 0.0
-0.032567 0.015500 0.0
-0.033658 0.013639 0.0
-0.034608 0.011736 0.0
-0.035417 0.009797 0.0
-0.036086 0.007828 0.0
-0.036613 0.005833 0.0
-0.036999 0.003816 0.0
-0.037243 0.001780 0.0
-0.037343 -0.000270 0.0
-0.037300 -0.002330 0.0
-0.037110 -0.004398 0.0
-0.036772 -0.006468 0.0
-0.036283 -0.008536 0.0
-0.035641 -0.010597 0.0
-0.034841 -0.012643 0.0
-0.033882 -0.014669 0.0
-0.032761 -0.016665 0.0
-0.031475 -0.018621 0.0
-0.030024 -0.020527 0.0
-0.028406 -0.022370 0.0
-0.026623 -0.024135 0.0
-0.024678 -0.025806 0.0
-0.022576 -0.027362 0.0
-0.020325 -0.028773 0.0
-0.017938 -0.029991 0.0
-0.015435 -0.030934 0.0
-0.012845 -0.031465 0.0
-0.010216 -0.031359 0.0
-0.007617 -0.030284 0.0
-0.005154 -0.027789 0.0
-0.002974 -0.023342 0.0
-0.001270 -0.016399 0.0
-0.000283 -0.006519 0.0
-0.000282 0.006812 0.0
-0.001266 0.017102 0.0
-0.002959 0.024297 0.0
-0.005120 0.028877 0.0
-0.007554 0.031435 0.0
-0.010119 0.032545 0.0
-0.012716 0.032684 0.0
-0.015279 0.032201 0.0
-0.017768 0.031323 0.0
-0.020158 0.030184 0.0
-0.022431 0.028862 0.0
-0.024576 0.027399 0.0
-0.026586 0.025821 0.0
-0.028455 0.024144 0.0
-0.030181 0.022381 0.0
-0.031760 0.020544 0.0
-0.033191 0.018643 0.0
-0.034475 0.016685 0.0
-0.035610 0.014680 0.0
-0.036599 0.012633 0.0
-0.037442 0.010551 0.0
-0.038138 0.008439 0.0
-0.038690 0.006300 0.0
-0.039096 0.004140 0.0
-0.039357 0.001960 0.0
-0.039471 -0.000235 0.0
-0.039437 -0.002442 0.0
-0.039253 -0.004659 0.0
-0.038917 -0.006881 0.0
-0.038425 -0.009104 0.0
-0.037773 -0.011323 0.0
-0.036957 -0.013532 0.0
-0.035974 -0.015723 0.0
-0.034820 -0.017887 0.0
-0.033490 -0.020015 0.0
-0.031982 -0.022093 0.0
-0.030294 -0.024109 0.0
-0.028426 -0.026046 0.0
-0.026380 -0.027886 0.0
-0.024160 -0.029604 0.0
-0.021775 -0.031167 0.0
-0.019237 -0.032522 0.0
-0.016567 -0.033577 0.0
-0.013798 -0.034181 0.0
-0.010981 -0.034090 0.0
-0.008192 -0.032940 0.0
-0.005545 -0.030242 0.0
-0.003200 -0.025414 0.0
-0.001367 -0.017863 0.0
-0.000304 -0.007106 0.0
-0.000303 0.007396 0.0
-0.001358 0.018557 0.0
-0.003173 0.026349 0.0
-0.005486 0.031299 0.0
-0.008091 0.034051 0.0
-0.010831 0.035233 0.0
-0.013600 0.035362 0.0
-0.016329 0.034816 0.0
-0.018974 0.033842 0.0
-0.021506 0.032587 0.0
-0.023910 0.031135 0.0
-0.026172 0.029534 0.0
-0.028286 0.027811 0.0
-0.030248 0.025985 0.0
-0.032054 0.024071 0.0
-0.033703 0.022082 0.0
-0.035194 0.020028 0.0
-0.036530 0.017919 0.0
-0.037710 0.015763 0.0
-0.038737 0.013566 0.0
-0.039612 0.011336 0.0
-0.040336 0.009076 0.0
-0.040912 0.006790 0.0
-0.041339 0.004483 0.0
-0.041617 0.002156 0.0
-0.041746 -0.000187 0.0
-0.041724 -0.002545 0.0
-0.041549 -0.004915 0.0
-0.041217 -0.007293 0.0
-0.040725 -0.009676 0.0
-0.040068 -0.012060 0.0
-0.039241 -0.014438 0.0
-0.038238 -0.016803 0.0
-0.037053 -0.019146 0.0
-0.035682 -0.021457 0.0
-0.034119 -0.023722 0.0
-0.032362 -0.025926 0.0
-0.030407 -0.028052 0.0
-0.028256 -0.030078 0.0
-0.025912 -0.031977 0.0
-0.023383 -0.033710 0.0
-0.020681 -0.035218 0.0
-0.017829 -0.036401 0.0
-0.014863 -0.037092 0.0
-0.011837 -0.037023 0.0
-0.008836 -0.035798 0.0
-0.005983 -0.032884 0.0
-0.003454 -0.027647 0.0
-0.001476 -0.019441 0.0
-0.000328 -0.007739 0.0
-0.000326 0.008025 0.0
-0.001461 0.020120 0.0
-0.003411 0.028551 0.0
-0.005895 0.033894 0.0
-0.008687 0.036852 0.0
-0.011620 0.038106 0.0
-0.014580 0.038218 0.0
-0.017489 0.037599 0.0
-0.020302 0.036516 0.0
-0.022989 0.035131 0.0
-0.025531 0.033536 0.0
-0.027917 0.031782 0.0
-0.030140 0.029900 0.0
-0.032196 0.027913 0.0
-0.034084 0.025836 0.0
-0.035803 0.023684 0.0
-0.037354 0.021469 0.0
-0.038740 0.019199 0.0
-0.039963 0.016885 0.0
-0.041026 0.014533 0.0
-0.041932 0.012150 0.0
-0.042684 0.009738 0.0
-0.043283 0.007302 0.0
-0.043730 0.004845 0.0
-0.044027 0.002369 0.0
-0.044172 -0.000126 0.0
-0.044165 -0.002636 0.0
-0.044001 -0.005162 0.0
-0.043678 -0.007700 0.0
-0.043191 -0.010248 0.0
-0.042534 -0.012802 0.0
-0.041700 -0.015357 0.0
-0.040683 -0.017905 0.0
-0.039473 -0.020438 0.0
-0.038065 -0.022944 0.0
-0.036452 -0.025411 0.0
-0.034626 -0.027820 0.0
-0.032585 -0.030153 0.0
-0.030327 -0.032386 0.0
-0.027853 -0.034487 0.0
-0.025170 -0.036413 0.0
-0.022291 -0.038096 0.0
-0.019241 -0.039426 0.0
-0.016056 -0.040218 0.0
-0.012798 -0.040181 0.0
-0.009560 -0.038880 0.0
-0.006477 -0.035736 0.0
-0.003741 -0.030060 0.0
-0.001599 -0.021148 0.0
-0.000356 -0.008423 0.0
-0.000351 0.008701 0.0
-0.001575 0.021802 0.0
-0.003677 0.030920 0.0
-0.006350 0.036683 0.0
-0.009352 0.039857 0.0
-0.012499 0.041182 0.0
-0.015667 0.041269 0.0
-0.018774 0.040564 0.0
-0.021769 0.039358 0.0
-0.024620 0.037827 0.0
-0.027310 0.036071 0.0
-0.029825 0.034148 0.0
-0.032161 0.032093 0.0
-0.034314 0.029930 0.0
-0.036283 0.027677 0.0
-0.038071 0.025350 0.0
-0.039679 0.022963 0.0
-0.041113 0.020525 0.0
-0.042376 0.018046 0.0
-0.043473 0.015533 0.0
-0.044407 0.012991 0.0
-0.045183 0.010424 0.0
-0.045805 0.007836 0.0
-0.046272 0.005227 0.0
-0.046588 0.002599 0.0
-0.046751 -0.000048 0.0
-0.046761 -0.002713 0.0
-0.046613 -0.005397 0.0
-0.046304 -0.008098 0.0