# vtk DataFile Version 3.0
Scalar Field
ASCII
DATASET RECTILINEAR_GRID
DIMENSIONS 50 50 1
X_COORDINATES 50 double
0.100000 0.300000 0.500000 0.700000 0.900000 1.100000 1.300000 1.500000 1.700000 1.900000 2.100000 2.300000 2.500000 2.700000 2.900000 3.100000 3.300000 3.500000 3.700000 3.900000 4.100000 4.300000 4.500000 4.700000 4.900000 5.100000 5.300000 5.500000 5.700000 5.900000 6.100000 6.300000 6.500000 6.700000 6.900000 7.100000 7.300000 7.500000 7.700000 7.900000 8.100000 8.300000 8.500000 8.700000 8.900000 9.100000 9.300000 9.500000 9.700000 9.900000 
Y_COORDINATES 50 double
0.100000 0.300000 0.500000 0.700000 0.900000 1.100000 1.300000 1.500000 1.700000 1.900000 2.100000 2.300000 2.500000 2.700000 2.900000 3.100000 3.300000 3.500000 3.700000 3.900000 4.100000 4.300000 4.500000 4.700000 4.900000 5.100000 5.300000 5.500000 5.700000 5.900000 6.100000 6.300000 6.500000 6.700000 6.900000 7.100000 7.300000 7.500000 7.700000 7.900000 8.100000 8.300000 8.500000 8.700000 8.900000 9.100000 9.300000 9.500000 9.700000 9.900000 
Z_COORDINATES 1 double
0.0
POINT_DATA 2500
SCALARS Skalarfeld double 1
LOOKUP_TABLE default
-0.049073
-0.049046
-0.048913
-0.048673
-0.048328
-0.047877
-0.047324
-0.046669
-0.045914
-0.045063
-0.044118
-0.043082
-0.041959
-0.040752
-0.039466
-0.038105
-0.036674
-0.035179
-0.033625
-0.032017
-0.030362
-0.028665
-0.026934
-0.025176
-0.023397
-0.021604
-0.019806
-0.018009
-0.016220
-0.014449
-0.012702
-0.010988
-0.009314
-0.007687
-0.006115
-0.004607
-0.003168
-0.001806
-0.000527
0.000661
0.001754
0.002744
0.003629
0.004402
0.005059
0.005598
0.006015
0.006308
0.006476
0.006518
-0.049101
-0.049074
-0.048941
-0.048701
-0.048356
-0.047905
-0.047352
-0.046696
-0.045942
-0.045090
-0.044145
-0.043108
-0.041984
-0.040777
-0.039490
-0.038128
-0.036697
-0.035200
-0.033645
-0.032035
-0.030378
-0.028680
-0.026948
-0.025187
-0.023406
-0.021611
-0.019810
-0.018011
-0.016220
-0.014446
-0.012697
-0.010980
-0.009303
-0.007673
-0.006099
-0.004588
-0.003146
-0.001782
-0.000501
0.000690
0.001785
0.002778
0.003664
0.004438
0.005097
0.005637
0.006055
0.006349
0.006517
0.006559
-0.049237
-0.049211
-0.049077
-0.048837
-0.048490
-0.048038
-0.047482
-0.046825
-0.046068
-0.045213
-0.044264
-0.043223
-0.042095
-0.040882
-0.039590
-0.038223
-0.036785
-0.035282
-0.033719
-0.032102
-0.030437
-0.028731
-0.026989
-0.025220
-0.023429
-0.021625
-0.019814
-0.018004
-0.016204
-0.014419
-0.012660
-0.010932
-0.009245
-0.007605
-0.006021
-0.004499
-0.003048
-0.001675
-0.000385
0.000814
0.001916
0.002916
0.003808
0.004588
0.005252
0.005796
0.006217
0.006513
0.006682
0.006724
-0.049483
-0.049457
-0.049322
-0.049080
-0.048731
-0.048277
-0.047717
-0.047055
-0.046293
-0.045432
-0.044476
-0.043427
-0.042290
-0.041069
-0.039766
-0.038388
-0.036939
-0.035423
-0.033847
-0.032216
-0.030537
-0.028816
-0.027059
-0.025273
-0.023466
-0.021645
-0.019817
-0.017989
-0.016171
-0.014368
-0.012590
-0.010845
-0.009139
-0.007482
-0.005880
-0.004342
-0.002875
-0.001485
-0.000181
0.001032
0.002148
0.003160
0.004063
0.004852
0.005524
0.006075
0.006501
0.006801
0.006972
0.007014
-0.049839
-0.049813
-0.049678
-0.049433
-0.049081
-0.048622
-0.048057
-0.047388
-0.046617
-0.045748
-0.044781
-0.043722
-0.042572
-0.041337
-0.040020
-0.038626
-0.037159
-0.035626
-0.034031
-0.032380
-0.030680
-0.028937
-0.027158
-0.025349
-0.023518
-0.021672
-0.019818
-0.017966
-0.016121
-0.014293
-0.012489
-0.010718
-0.008987
-0.007304
-0.005677
-0.004115
-0.002624
-0.001212
0.000114
0.001347
0.002481
0.003510
0.004429
0.005232
0.005916
0.006476
0.006910
0.007215
0.007389
0.007432
-0.050307
-0.050281
-0.050144
-0.049897
-0.049540
-0.049075
-0.048502
-0.047825
-0.047043
-0.046162
-0.045182
-0.044107
-0.042941
-0.041688
-0.040351
-0.038936
-0.037447
-0.035890
-0.034270
-0.032594
-0.030866
-0.029095
-0.027286
-0.025446
-0.023584
-0.021706
-0.019820
-0.017934
-0.016056
-0.014194
-0.012356
-0.010551
-0.008786
-0.007070
-0.005411
-0.003817
-0.002296
-0.000854
0.000500
0.001759
0.002918
0.003969
0.004908
0.005729
0.006428
0.007001
0.007445
0.007757
0.007936
0.007980
-0.050888
-0.050862
-0.050723
-0.050472
-0.050110
-0.049637
-0.049055
-0.048366
-0.047572
-0.046675
-0.045679
-0.044585
-0.043399
-0.042123
-0.040762
-0.039321
-0.037805
-0.036219
-0.034568
-0.032859
-0.031097
-0.029290
-0.027445
-0.025568
-0.023666
-0.021748
-0.019822
-0.017895
-0.015975
-0.014071
-0.012191
-0.010344
-0.008538
-0.006781
-0.005081
-0.003448
-0.001888
-0.000411
0.000978
0.002270
0.003459
0.004539
0.005503
0.006346
0.007065
0.007653
0.008109
0.008430
0.008614
0.008659
-0.051584
-0.051558
-0.051417
-0.051162
-0.050793
-0.050311
-0.049718
-0.049015
-0.048206
-0.047291
-0.046274
-0.045158
-0.043947
-0.042645
-0.041255
-0.039783
-0.038233
-0.036612
-0.034924
-0.033176
-0.031374
-0.029525
-0.027636
-0.025713
-0.023765
-0.021800
-0.019825
-0.017848
-0.015879
-0.013925
-0.011994
-0.010097
-0.008241
-0.006434
-0.004687
-0.003006
-0.001401
0.000121
0.001551
0.002883
0.004108
0.005221
0.006216
0.007086
0.007828
0.008435
0.008906
0.009238
0.009427
0.009474
-0.052397
-0.052371
-0.052228
-0.051967
-0.051590
-0.051098
-0.050492
-0.049774
-0.048946
-0.048011
-0.046970
-0.045828
-0.044588
-0.043255
-0.041831
-0.040323
-0.038735
-0.037073
-0.035342
-0.033548
-0.031699
-0.029800
-0.027860
-0.025885
-0.023883
-0.021862
-0.019830
-0.017796
-0.015768
-0.013755
-0.011766
-0.009809
-0.007895
-0.006031
-0.004226
-0.002490
-0.000832
0.000742
0.002221
0.003599
0.004868
0.006020
0.007051
0.007953
0.008721
0.009351
0.009840
0.010184
0.010381
0.010430
-0.053331
-0.053305
-0.053159
-0.052892
-0.052506
-0.052002
-0.051382
-0.050646
-0.049797
-0.048837
-0.047770
-0.046598
-0.045326
-0.043956
-0.042494
-0.040945
-0.039312
-0.037603
-0.035823
-0.033977
-0.032074
-0.030119
-0.028120
-0.026084
-0.024020
-0.021935
-0.019838
-0.017737
-0.015643
-0.013562
-0.011505
-0.009481
-0.007499
-0.005569
-0.003699
-0.001899
-0.000178
0.001454
0.002991
0.004422
0.005741
0.006939
0.008011
0.008950
0.009750
0.010406
0.010915
0.011273
0.011479
0.011530
-0.054388
-0.054362
-0.054212
-0.053939
-0.053543
-0.053026
-0.052389
-0.051633
-0.050760
-0.049774
-0.048676
-0.047471
-0.046161
-0.044752
-0.043246
-0.041650
-0.039968
-0.038206
-0.036370
-0.034466
-0.032501
-0.030482
-0.028417
-0.026313
-0.024178
-0.022021
-0.019850
-0.017675
-0.015504
-0.013347
-0.011213
-0.009112
-0.007054
-0.005047
-0.003103
-0.001231
0.000561
0.002261
0.003862
0.005355
0.006731
0.007982
0.009102
0.010082
0.010918
0.011605
0.012137
0.012512
0.012728
0.012782
-0.055572
-0.055546
-0.055393
-0.055112
-0.054705
-0.054173
-0.053517
-0.052739
-0.051840
-0.050824
-0.049693
-0.048450
-0.047100
-0.045645
-0.044091
-0.042443
-0.040705
-0.038884
-0.036986
-0.035017
-0.032983
-0.030893
-0.028754
-0.026573
-0.024359
-0.022122
-0.019868
-0.017609
-0.015353
-0.013110
-0.010889
-0.008702
-0.006557
-0.004466
-0.002438
-0.000483
0.001388
0.003166
0.004840
0.006402
0.007843
0.009154
0.010327
0.011356
0.012233
0.012954
0.013513
0.013907
0.014134
0.014192
-0.056887
-0.056861
-0.056703
-0.056415
-0.055996
-0.055448
-0.054771
-0.053968
-0.053041
-0.051992
-0.050824
-0.049540
-0.048144
-0.046640
-0.045033
-0.043327
-0.041528
-0.039642
-0.037675
-0.035633
-0.033524
-0.031354
-0.029133
-0.026868
-0.024567
-0.022239
-0.019894
-0.017541
-0.015190
-0.012851
-0.010535
-0.008251
-0.006010
-0.003823
-0.001701
0.000346
0.002306
0.004171
0.005928
0.007568
0.009082
0.010460
0.011695
0.012777
0.013701
0.014461
0.015050
0.015466
0.015706
0.015767
-0.058336
-0.058311
-0.058149
-0.057852
-0.057419
-0.056854
-0.056155
-0.055325
-0.054367
-0.053282
-0.052074
-0.050745
-0.049299
-0.047741
-0.046075
-0.044307
-0.042441
-0.040483
-0.038440
-0.036319
-0.034126
-0.031870
-0.029558
-0.027199
-0.024802
-0.022375
-0.019929
-0.017473
-0.015018
-0.012573
-0.010149
-0.007758
-0.005411
-0.003118
-0.000891
0.001258
0.003319
0.005279
0.007129
0.008856
0.010452
0.011906
0.013209
0.014353
0.015330
0.016133
0.016757
0.017197
0.017451
0.017517
-0.059926
-0.059900
-0.059734
-0.059427
-0.058981
-0.058396
-0.057674
-0.056815
-0.055823
-0.054699
-0.053447
-0.052069
-0.050570
-0.048953
-0.047224
-0.045386
-0.043447
-0.041411
-0.039286
-0.037077
-0.034794
-0.032443
-0.030032
-0.027571
-0.025068
-0.022533
-0.019976
-0.017407
-0.014836
-0.012275
-0.009734
-0.007225
-0.004759
-0.002349
-0.000007
0.002256
0.004427
0.006495
0.008448
0.010273
0.011961
0.013499
0.014879
0.016091
0.017127
0.017979
0.018642
0.019110
0.019380
0.019451
-0.061660
-0.061635
-0.061464
-0.061147
-0.060686
-0.060080
-0.059332
-0.058443
-0.057414
-0.056249
-0.054949
-0.053519
-0.051961
-0.050281
-0.048483
-0.046571
-0.044552
-0.042432
-0.040217
-0.037914
-0.035532
-0.033077
-0.030560
-0.027987
-0.025369
-0.022716
-0.020038
-0.017345
-0.014648
-0.011959
-0.009289
-0.006650
-0.004055
-0.001517
0.000954
0.003342
0.005636
0.007823
0.009890
0.011824
0.013613
0.015246
0.016712
0.018001
0.019103
0.020010
0.020716
0.021215
0.021504
0.021580
-0.063544
-0.063520
-0.063344
-0.063017
-0.062539
-0.061912
-0.061137
-0.060215
-0.059147
-0.057937
-0.056587
-0.055100
-0.053480
-0.051731
-0.049858
-0.047866
-0.045762
-0.043550
-0.041238
-0.038834
-0.036345
-0.033778
-0.031144
-0.028451
-0.025708
-0.022927
-0.020116
-0.017289
-0.014455
-0.011626
-0.008816
-0.006036
-0.003299
-0.000619
0.001992
0.004519
0.006948
0.009266
0.011459
0.013514
0.015417
0.017155
0.018717
0.020091
0.021267
0.022236
0.022991
0.023525
0.023834
0.023917
-0.065585
-0.065561
-0.065380
-0.065042
-0.064548
-0.063898
-0.063094
-0.062136
-0.061028
-0.059770
-0.058365
-0.056818
-0.055131
-0.053309
-0.051356
-0.049279
-0.047082
-0.044772
-0.042356
-0.039842
-0.037237
-0.034550
-0.031790
-0.028967
-0.026090
-0.023169
-0.020216
-0.017242
-0.014260
-0.011280
-0.008316
-0.005382
-0.002490
0.000345
0.003109
0.005788
0.008366
0.010830
0.013163
0.015351
0.017380
0.019235
0.020904
0.022373
0.023632
0.024670
0.025480
0.026053
0.026385
0.026475
-0.067788
-0.067765
-0.067579
-0.067230
-0.066718
-0.066044
-0.065210
-0.064215
-0.063062
-0.061754
-0.060292
-0.058680
-0.056922
-0.055022
-0.052984
-0.050814
-0.048519
-0.046104
-0.043576
-0.040944
-0.038216
-0.035399
-0.032504
-0.029540
-0.026518
-0.023447
-0.020340
-0.017209
-0.014065
-0.010922
-0.007792
-0.004689
-0.001629
0.001375
0.004307
0.007153
0.009895
0.012517
0.015005
0.017341
0.019509
0.021495
0.023282
0.024858
0.026210
0.027326
0.028197
0.028814
0.029173
0.029271
-0.070161
-0.070139
-0.069948
-0.069587
-0.069057
-0.068358
-0.067492
-0.066458
-0.065259
-0.063897
-0.062375
-0.060695
-0.058861
-0.056877
-0.054749
-0.052481
-0.050080
-0.047553
-0.044906
-0.042148
-0.039286
-0.036331
-0.033291
-0.030176
-0.026998
-0.023766
-0.020494
-0.017192
-0.013875
-0.010554
-0.007244
-0.003960
-0.000716
0.002471
0.005587
0.008614
0.011536
0.014334
0.016992
0.019491
0.021814
0.023944
0.025865
0.027560
0.029016
0.030219
0.031158
0.031825
0.032214
0.032321
-0.072709
-0.072690
-0.072493
-0.072121
-0.071572
-0.070848
-0.069948
-0.068873
-0.067626
-0.066208
-0.064622
-0.062869
-0.060955
-0.058883
-0.056659
-0.054287
-0.051774
-0.049126
-0.046352
-0.043459
-0.040456
-0.037352
-0.034157
-0.030881
-0.027536
-0.024131
-0.020681
-0.017197
-0.013692
-0.010181
-0.006677
-0.003196
0.000246
0.003634
0.006949
0.010175
0.013293
0.016284
0.019129
0.021809
0.024304
0.026595
0.028664
0.030492
0.032064
0.033365
0.034382
0.035105
0.035527
0.035645
-0.075442
-0.075425
-0.075224
-0.074839
-0.074271
-0.073520
-0.072586
-0.071470
-0.070172
-0.068695
-0.067041
-0.065213
-0.063214
-0.061049
-0.058722
-0.056239
-0.053607
-0.050832
-0.047923
-0.044886
-0.041732
-0.038470
-0.035109
-0.031661
-0.028137
-0.024549
-0.020908
-0.017228
-0.013523
-0.009806
-0.006094
-0.002401
0.001256
0.004861
0.008393
0.011836
0.015169
0.018372
0.021424
0.024303
0.026988
0.029458
0.031692
0.033670
0.035373
0.036784
0.037889
0.038675
0.039135
0.039266
-0.078367
-0.078352
-0.078147
-0.077751
-0.077164
-0.076385
-0.075416
-0.074256
-0.072906
-0.071367
-0.069643
-0.067735
-0.065647
-0.063383
-0.060949
-0.058349
-0.055590
-0.052680
-0.049626
-0.046438
-0.043123
-0.039692
-0.036155
-0.032524
-0.028810
-0.025024
-0.021180
-0.017291
-0.013371
-0.009435
-0.005498
-0.001577
0.002312
0.006151
0.009919
0.013598
0.017166
0.020601
0.023880
0.026980
0.029877
0.032547
0.034966
0.037111
0.038961
0.040497
0.041701
0.042559
0.043063
0.043207
-0.081491
-0.081481
-0.081271
-0.080864
-0.080257
-0.079452
-0.078446
-0.077241
-0.075837
-0.074235
-0.072438
-0.070446
-0.068265
-0.065897
-0.063349
-0.060625
-0.057733
-0.054679
-0.051473
-0.048122
-0.044637
-0.041027
-0.037303
-0.033477
-0.029560
-0.025565
-0.021504
-0.017392
-0.013243
-0.009072
-0.004895
-0.000728
0.003410
0.007502
0.011526
0.015461
0.019286
0.022975
0.026505
0.029849
0.032980
0.035873
0.038499
0.040833
0.042849
0.044526
0.045843
0.046784
0.047337
0.047497
-0.084824
-0.084818
-0.084606
-0.084188
-0.083563
-0.082730
-0.081688
-0.080437
-0.078978
-0.077310
-0.075436
-0.073358
-0.071078
-0.068602
-0.065933
-0.063079
-0.060045
-0.056840
-0.053472
-0.049949
-0.046283
-0.042483
-0.038561
-0.034528
-0.030397
-0.026179
-0.021889
-0.017540
-0.013146
-0.008725
-0.004290
0.000139
0.004546
0.008910
0.013210
0.017424
0.021528
0.025496
0.029302
0.032916
0.036309
0.039450
0.042309
0.044856
0.047061
0.048898
0.050344
0.051379
0.051989
0.052168
-0.088375
-0.088375
-0.088161
-0.087733
-0.087090
-0.086230
-0.085152
-0.083855
-0.082339
-0.080604
-0.078651
-0.076482
-0.074100
-0.071509
-0.068714
-0.065722
-0.062539
-0.059173
-0.055634
-0.051930
-0.048072
-0.044072
-0.039939
-0.035687
-0.031328
-0.026875
-0.022341
-0.017740
-0.013088
-0.008400
-0.003692
0.001019
0.005712
0.010369
0.014968
0.019484
0.023893
0.028167
0.032276
0.036188
0.039872
0.043292
0.046413
0.049201
0.051621
0.053642
0.055236
0.056379
0.057054
0.057256
-0.092152
-0.092160
-0.091945
-0.091509
-0.090849
-0.089963
-0.088850
-0.087507
-0.085933
-0.084129
-0.082095
-0.079832
-0.077343
-0.074632
-0.071705
-0.068567
-0.065226
-0.061691
-0.057970
-0.054075
-0.050014
-0.045801
-0.041447
-0.036963
-0.032364
-0.027661
-0.022869
-0.018003
-0.013076
-0.008105
-0.003106
0.001903
0.006903
0.011875
0.016794
0.021637
0.026378
0.030985
0.035428
0.039672
0.043680
0.047413
0.050830
0.053892
0.056558
0.058790
0.060554
0.061823
0.062575
0.062802
-0.096166
-0.096182
-0.095969
-0.095526
-0.094851
-0.093942
-0.092794
-0.091406
-0.089775
-0.087900
-0.085782
-0.083422
-0.080821
-0.077985
-0.074919
-0.071628
-0.068121
-0.064406
-0.060494
-0.056395
-0.052121
-0.047683
-0.043094
-0.038366
-0.033513
-0.028548
-0.023484
-0.018337
-0.013121
-0.007851
-0.002544
0.002782
0.008110
0.013417
0.018681
0.023877
0.028977
0.033950
0.038761
0.043372
0.047741
0.051826
0.055579
0.058953
0.061901
0.064377
0.066340
0.067755
0.068597
0.068856
-0.100425
-0.100452
-0.100243
-0.099797
-0.099110
-0.098178
-0.096998
-0.095566
-0.093878
-0.091933
-0.089729
-0.087268
-0.084552
-0.081585
-0.078371
-0.074919
-0.071236
-0.067332
-0.063218
-0.058904
-0.054403
-0.049728
-0.044892
-0.039906
-0.034786
-0.029545
-0.024196
-0.018754
-0.013233
-0.007648
-0.002016
0.003646
0.009320
0.014985
0.020619
0.026195
0.031685
0.037056
0.042270
0.047288
0.052062
0.056543
0.060678
0.064411
0.067684
0.070444
0.072640
0.074228
0.075176
0.075471
-0.104939
-0.104980
-0.104778
-0.104331
-0.103636
-0.102687
-0.101477
-0.100003
-0.098259
-0.096243
-0.093953
-0.091388
-0.088552
-0.085447
-0.082079
-0.078457
-0.074588
-0.070483
-0.066154
-0.061614
-0.056874
-0.051948
-0.046851
-0.041595
-0.036194
-0.030663
-0.025014
-0.019263
-0.013422
-0.007508
-0.001534
0.004482
0.010522
0.016567
0.022594
0.028578
0.034489
0.040293
0.045951
0.051419
0.056646
0.061576
0.066146
0.070291
0.073944
0.077036
0.079507
0.081300
0.082374
0.082715
-0.109719
-0.109777
-0.109585
-0.109143
-0.108444
-0.107481
-0.106247
-0.104735
-0.102938
-0.100851
-0.098473
-0.095802
-0.092840
-0.089591
-0.086061
-0.082258
-0.078192
-0.073875
-0.069319
-0.064538
-0.059545
-0.054355
-0.048983
-0.043443
-0.037748
-0.031913
-0.025951
-0.019876
-0.013702
-0.007442
-0.001112
0.005275
0.011701
0.018146
0.024591
0.031010
0.037374
0.043649
0.049793
0.055760
0.061493
0.066930
0.071999
0.076622
0.080718
0.084204
0.087001
0.089040
0.090268
0.090664
-0.114772
-0.114851
-0.114675
-0.114244
-0.113548
-0.112578
-0.111325
-0.109780
-0.107932
-0.105778
-0.103311
-0.100531
-0.097438
-0.094038
-0.090336
-0.086342
-0.082067
-0.077524
-0.072726
-0.067690
-0.062430
-0.056961
-0.051299
-0.045460
-0.039457
-0.033305
-0.027016
-0.020605
-0.014084
-0.007466
-0.000763
0.006009
0.012837
0.019704
0.026590
0.033471
0.040321
0.047104
0.053779
0.060297
0.066597
0.072608
0.078249
0.083429
0.088047
0.092002
0.095193
0.097531
0.098947
0.099411
-0.120108
-0.120213
-0.120060
-0.119647
-0.118962
-0.117995
-0.116731
-0.115159
-0.113267
-0.111046
-0.108491
-0.105598
-0.102370
-0.098810
-0.094926
-0.090729
-0.086230
-0.081446
-0.076392
-0.071084
-0.065540
-0.059777
-0.053810
-0.047657
-0.041332
-0.034849
-0.028222
-0.021462
-0.014582
-0.007593
-0.000506
0.006667
0.013913
0.021218
0.028566
0.035935
0.043301
0.050631
0.057884
0.065008
0.071941
0.078604
0.084905
0.090734
0.095973
0.100492
0.104163
0.106870
0.108518
0.109068
-0.125736
-0.125873
-0.125750
-0.125365
-0.124704
-0.123750
-0.122487
-0.120897
-0.118966
-0.116683
-0.114040
-0.111033
-0.107662
-0.103934
-0.099855
-0.095440
-0.090703
-0.085660
-0.080331
-0.074734
-0.068889
-0.062813
-0.056526
-0.050044
-0.043383
-0.036556
-0.029577
-0.022458
-0.015208
-0.007838
-0.000356
0.007228
0.014904
0.022663
0.030490
0.038370
0.046281
0.054194
0.062071
0.069862
0.077500
0.084901
0.091962
0.098555
0.104535
0.109740
0.114004
0.117171
0.119113
0.119774
-0.131662
-0.131838
-0.131758
-0.131414
-0.130790
-0.129865
-0.128615
-0.127020
-0.125060
-0.122721
-0.119991
-0.116866
-0.113346
-0.109437
-0.105150
-0.100500
-0.095505
-0.090185
-0.084560
-0.078654
-0.072487
-0.066082
-0.059456
-0.052629
-0.045617
-0.038434
-0.031093
-0.023603
-0.015975
-0.008216
-0.000332
0.007671
0.015787
0.024009
0.032330
0.040738
0.049219
0.057748
0.066294
0.074809
0.083229
0.091465
0.099404
0.106897
0.113770
0.119817
0.124822
0.128573
0.130894
0.131699
-0.137892
-0.138118
-0.138093
-0.137808
-0.137240
-0.136363
-0.135146
-0.133561
-0.131584
-0.129195
-0.126380
-0.123133
-0.119454
-0.115352
-0.110840
-0.105935
-0.100660
-0.095038
-0.089095
-0.082856
-0.076347
-0.069590
-0.062608
-0.055419
-0.048042
-0.040490
-0.032776
-0.024908
-0.016894
-0.008741
-0.000450
0.007975
0.016534
0.025225
0.034046
0.042995
0.052062
0.061235
0.070488
0.079784
0.089063
0.098238
0.107188
0.115745
0.123699
0.130793
0.136739
0.141246
0.144063
0.145063
-0.144430
-0.144719
-0.144766
-0.144562
-0.144076
-0.143271
-0.142111
-0.140557
-0.138578
-0.136148
-0.133250
-0.129876
-0.126028
-0.121716
-0.116957
-0.111773
-0.106191
-0.100240
-0.093951
-0.087354
-0.080476
-0.073346
-0.065986
-0.058419
-0.050661
-0.042728
-0.034632
-0.026379
-0.017976
-0.009426
-0.000728
0.008118
0.017118
0.026276
0.035598
0.045089
0.054751
0.064582
0.074572
0.084697
0.094909
0.105130
0.115238
0.125051
0.134322
0.142728
0.149888
0.155393
0.158879
0.160148
-0.151279
-0.151646
-0.151788
-0.151692
-0.151320
-0.150622
-0.149549
-0.148052
-0.146090
-0.143631
-0.140652
-0.137145
-0.133113
-0.128570
-0.123537
-0.118043
-0.112122
-0.105810
-0.099143
-0.092156
-0.084882
-0.077353
-0.069594
-0.061629
-0.053476
-0.045151
-0.036663
-0.028021
-0.019227
-0.010282
-0.001181
0.008081
0.017513
0.027129
0.036940
0.046964
0.057214
0.067706
0.078446
0.089431
0.100636
0.112005
0.123427
0.134717
0.145593
0.155660
0.164410
0.171265
0.175676
0.177330
-0.158438
-0.158903
-0.159169
-0.159218
-0.159000
-0.158452
-0.157506
-0.156101
-0.154181
-0.151705
-0.148648
-0.144998
-0.140763
-0.135960
-0.130620
-0.124779
-0.118480
-0.111767
-0.104683
-0.097271
-0.089569
-0.081612
-0.073429
-0.065047
-0.056483
-0.047755
-0.038870
-0.029836
-0.020652
-0.011316
-0.001822
0.007843
0.017693
0.027747
0.038028
0.048561
0.059378
0.070509
0.081987
0.093838
0.106071
0.118668
0.131552
0.144558
0.157389
0.169571
0.180437
0.189160
0.194897
0.197122
-0.165903
-0.166493
-0.166918
-0.167160
-0.167151
-0.166807
-0.166041
-0.164770
-0.162923
-0.160447
-0.157311
-0.153505
-0.149039
-0.143941
-0.138250
-0.132015
-0.125289
-0.118126
-0.110581
-0.102702
-0.094535
-0.086119
-0.077487
-0.068666
-0.059676
-0.050534
-0.041247
-0.031820
-0.022251
-0.012534
-0.002658
0.007392
0.017637
0.028101
0.038817
0.049822
0.061161
0.072886
0.085058
0.097739
0.110990
0.124850
0.139311
0.154268
0.169448
0.184326
0.198047
0.209423
0.217128
0.220250
-0.173672
-0.174417
-0.175048
-0.175541
-0.175810
-0.175743
-0.175224
-0.174143
-0.172407
-0.169949
-0.166732
-0.162749
-0.158016
-0.152574
-0.146476
-0.139787
-0.132574
-0.124904
-0.116843
-0.108450
-0.099776
-0.090865
-0.081755
-0.072473
-0.063042
-0.053476
-0.043783
-0.033965
-0.024018
-0.013932
-0.003693
0.006718
0.017327
0.028166
0.039271
0.050693
0.062488
0.074731
0.087509
0.100931
0.115117
0.130195
0.146266
0.163350
0.181284
0.199565
0.217163
0.232402
0.243157
0.247776
-0.181740
-0.182682
-0.183572
-0.184391
-0.185027
-0.185331
-0.185147
-0.184327
-0.182748
-0.180328
-0.177023
-0.172830
-0.167779
-0.161928
-0.155351
-0.148131
-0.140357
-0.132111
-0.123471
-0.114506
-0.105277
-0.095833
-0.086214
-0.076449
-0.066560
-0.056563
-0.046462
-0.036257
-0.025942
-0.015504
-0.004924
0.005819
0.016757
0.027923
0.039363
0.051131
0.063295
0.075945
0.089196
0.103198
0.118142
0.134260
0.151816
0.171046
0.192040
0.214494
0.237336
0.258312
0.274003
0.281334
-0.190117
-0.191300
-0.192511
-0.193746
-0.194864
-0.195663
-0.195929
-0.195460
-0.194097
-0.191734
-0.188323
-0.183871
-0.178429
-0.172082
-0.164930
-0.157084
-0.148656
-0.139749
-0.130455
-0.120856
-0.111019
-0.100999
-0.090837
-0.080566
-0.070205
-0.059768
-0.049260
-0.038676
-0.028006
-0.017236
-0.006342
0.004701
0.015925
0.027370
0.039080
0.051112
0.063539
0.076458
0.090000
0.104345
0.119745
0.136544
0.155200
0.176267
0.200294
0.227527
0.257258
0.286808
0.310832
0.323499
-0.198842
-0.200309
-0.201898
-0.203654
-0.205398
-0.206855
-0.207723
-0.207725
-0.206646
-0.204355
-0.200804
-0.196019
-0.190085
-0.183121
-0.175270
-0.166677
-0.157482
-0.147812
-0.137778
-0.127471
-0.116968
-0.106326
-0.095589
-0.084787
-0.073941
-0.063060
-0.052147
-0.041194
-0.030187
-0.019108
-0.007930
0.003376
0.014845
0.026514
0.038428
0.050639
0.063214
0.076245
0.089859
0.104241
0.119669
0.136563
0.155560
0.177582
0.203857
0.235705
0.273717
0.315770
0.354298
0.378080
-0.208034
-0.209803
-0.211786
-0.214169
-0.216726
-0.219061
-0.220738
-0.221364
-0.220651
-0.218437
-0.214684
-0.209454
-0.202880
-0.195141
-0.186428
-0.176934
-0.166834
-0.156282
-0.145406
-0.134311
-0.123078
-0.111767
-0.100421
-0.089068
-0.077725
-0.066398
-0.055085
-0.043776
-0.032454
-0.021093
-0.009664
0.001868
0.013537
0.025380
0.037434
0.049741
0.062354
0.075341
0.088800
0.102879
0.117815
0.134010
0.152151
0.173416
0.199735
0.233982
0.279559
0.337853
0.401374
0.447752
-0.218018
-0.219989
-0.222256
-0.225347
-0.228959
-0.232483
-0.235256
-0.236710
-0.236454
-0.234300
-0.230237
-0.224389
-0.216970
-0.208236
-0.198450
-0.187863
-0.176690
-0.165116
-0.153288
-0.141317
-0.129289
-0.117261
-0.105274
-0.093351
-0.081502
-0.069730
-0.058028
-0.046382
-0.034769
-0.023159
-0.011515
0.000202
0.012030
0.024001
0.036143
0.048481
0.061041
0.073857
0.086970
0.100439
0.114373
0.128987
0.144747
0.162653
0.184776
0.215120
0.260842
0.332424
0.433235
0.520906
-0.229657
-0.231318
-0.233388
-0.237202
-0.242212
-0.247383
-0.251665
-0.254217
-0.254515
-0.252358
-0.247800
-0.241075
-0.232516
-0.222491
-0.211362
-0.199443
-0.187001
-0.174247
-0.161342
-0.148405
-0.135516
-0.122729
-0.110075
-0.097567
-0.085210
-0.072998
-0.060920
-0.048959
-0.037087
-0.025266
-0.013450
-0.001588
0.010362
0.022426
0.034620
0.046946
0.059403
0.071977
0.084639
0.097325
0.109925
0.122287
0.134260
0.145878
0.157900
0.172868
0.198836
0.261903
0.405159
0.569255
-0.245402
-0.244731
-0.245114
-0.249564
-0.256506
-0.264020
-0.270405
-0.274402
-0.275326
-0.273018
-0.267665
-0.259679
-0.249577
-0.237880
-0.225071
-0.211545
-0.197614
-0.183514
-0.169412
-0.155424
-0.141621
-0.128043
-0.114707
-0.101613
-0.088753
-0.076112
-0.063678
-0.051431
-0.039339
-0.027351
-0.015404
-0.003443
0.008598
0.020736
0.032974
0.045283
0.057633
0.069976
0.082216
0.094167
0.105481
0.115533
0.123238
0.126815
0.124098
0.112752
0.096447
0.127724
0.339493
0.672559
-0.272952
-0.261113
-0.256307
-0.260297
-0.269589
-0.280352
-0.289683
-0.295626
-0.297313
-0.294760
-0.288356
-0.278785
-0.266817
-0.253176
-0.238463
-0.223162
-0.207633
-0.192126
-0.176806
-0.161773
-0.147081
-0.132749
-0.118774
-0.105141
-0.091822
-0.078795
-0.066045
-0.053557
-0.041301
-0.029213
-0.017198
-0.005139
0.007018
0.019223
0.031533
0.043850
0.056134
0.068321
0.080267
0.091686
0.102004
0.110115
0.113919
0.110646
0.094486
0.063000
0.039502
0.116261
0.501816
1.185365
-0.361359
-0.232185
-0.222472
-0.235947
-0.254655
-0.273160
-0.288464
-0.298745
-0.303291
-0.302319
-0.296539
-0.286932
-0.274516
-0.260201
-0.244727
-0.228660
-0.212408
-0.196246
-0.180349
-0.164816
-0.149695
-0.135000
-0.120718
-0.106825
-0.093287
-0.080076
-0.067177
-0.054581
-0.042260
-0.030145
-0.018121
-0.006049
0.006186
0.018616
0.030978
0.043278
0.055493
0.067538
0.079229
0.090195
0.099738
0.106625
0.108927
0.103437
0.090252
0.081958
0.132577
0.391658
1.118420
2.337593
