# vtk DataFile Version 3.0
Scalar Field
ASCII
DATASET RECTILINEAR_GRID
DIMENSIONS 50 50 1
X_COORDINATES 50 double
0.100000 0.300000 0.500000 0.700000 0.900000 1.100000 1.300000 1.500000 1.700000 1.900000 2.100000 2.300000 2.500000 2.700000 2.900000 3.100000 3.300000 3.500000 3.700000 3.900000 4.100000 4.300000 4.500000 4.700000 4.900000 5.100000 5.300000 5.500000 5.700000 5.900000 6.100000 6.300000 6.500000 6.700000 6.900000 7.100000 7.300000 7.500000 7.700000 7.900000 8.100000 8.300000 8.500000 8.700000 8.900000 9.100000 9.300000 9.500000 9.700000 9.900000 
Y_COORDINATES 50 double
0.100000 0.300000 0.500000 0.700000 0.900000 1.100000 1.300000 1.500000 1.700000 1.900000 2.100000 2.300000 2.500000 2.700000 2.900000 3.100000 3.300000 3.500000 3.700000 3.900000 4.100000 4.300000 4.500000 4.700000 4.900000 5.100000 5.300000 5.500000 5.700000 5.900000 6.100000 6.300000 6.500000 6.700000 6.900000 7.100000 7.300000 7.500000 7.700000 7.900000 8.100000 8.300000 8.500000 8.700000 8.900000 9.100000 9.300000 9.500000 9.700000 9.900000 
Z_COORDINATES 1 double
0.0
POINT_DATA 2500
SCALARS Skalarfeld double 1
LOOKUP_TABLE default
-0.008166
-0.008175
-0.008114
-0.007970
-0.007739
-0.007423
-0.007021
-0.006533
-0.005958
-0.005295
-0.004544
-0.003702
-0.002770
-0.001745
-0.000627
0.000584
0.001890
0.003291
0.004786
0.006376
0.008060
0.009836
0.011701
0.013654
0.015691
0.017806
0.019994
0.022247
0.024559
0.026919
0.029317
0.031739
0.034173
0.036603
0.039013
0.041385
0.043701
0.045941
0.048086
0.050115
0.052009
0.053748
0.055313
0.056688
0.057856
0.058804
0.059520
0.059998
0.060240
0.060273
-0.008157
-0.008166
-0.008099
-0.007951
-0.007719
-0.007403
-0.007001
-0.006515
-0.005941
-0.005280
-0.004531
-0.003691
-0.002761
-0.001739
-0.000624
0.000585
0.001888
0.003286
0.004778
0.006365
0.008046
0.009819
0.011682
0.013632
0.015666
0.017779
0.019965
0.022218
0.024529
0.026888
0.029286
0.031708
0.034143
0.036575
0.038987
0.041362
0.043681
0.045924
0.048073
0.050106
0.052004
0.053747
0.055316
0.056694
0.057865
0.058816
0.059536
0.060020
0.060271
0.060303
-0.008222
-0.008238
-0.008171
-0.008022
-0.007790
-0.007475
-0.007075
-0.006590
-0.006019
-0.005361
-0.004614
-0.003778
-0.002851
-0.001832
-0.000721
0.000485
0.001785
0.003180
0.004670
0.006255
0.007935
0.009707
0.011570
0.013522
0.015558
0.017675
0.019866
0.022126
0.024445
0.026814
0.029223
0.031660
0.034110
0.036559
0.038989
0.041384
0.043724
0.045990
0.048161
0.050216
0.052136
0.053899
0.055487
0.056882
0.058068
0.059032
0.059762
0.060253
0.060505
0.060528
-0.008380
-0.008401
-0.008336
-0.008188
-0.007957
-0.007644
-0.007246
-0.006765
-0.006197
-0.005542
-0.004799
-0.003967
-0.003044
-0.002029
-0.000921
0.000281
0.001578
0.002971
0.004460
0.006044
0.007724
0.009498
0.011365
0.013322
0.015366
0.017492
0.019695
0.021969
0.024306
0.026696
0.029129
0.031592
0.034072
0.036553
0.039019
0.041451
0.043830
0.046135
0.048346
0.050442
0.052400
0.054200
0.055823
0.057248
0.058461
0.059446
0.060193
0.060694
0.060949
0.060965
-0.008636
-0.008659
-0.008596
-0.008450
-0.008221
-0.007911
-0.007517
-0.007038
-0.006474
-0.005824
-0.005086
-0.004258
-0.003340
-0.002329
-0.001226
-0.000027
0.001267
0.002658
0.004145
0.005730
0.007412
0.009191
0.011064
0.013030
0.015086
0.017228
0.019451
0.021747
0.024111
0.026533
0.029001
0.031504
0.034028
0.036557
0.039074
0.041560
0.043995
0.046359
0.048629
0.050782
0.052797
0.054651
0.056323
0.057793
0.059044
0.060060
0.060830
0.061346
0.061606
0.061621
-0.008989
-0.009014
-0.008953
-0.008809
-0.008583
-0.008276
-0.007886
-0.007412
-0.006853
-0.006208
-0.005475
-0.004653
-0.003740
-0.002735
-0.001636
-0.000442
0.000849
0.002238
0.003725
0.005312
0.006998
0.008783
0.010666
0.012645
0.014717
0.016880
0.019129
0.021456
0.023856
0.026319
0.028835
0.031391
0.033973
0.036566
0.039151
0.041709
0.044220
0.046660
0.049008
0.051239
0.053328
0.055253
0.056991
0.058520
0.059821
0.060878
0.061679
0.062215
0.062485
0.062499
-0.009438
-0.009465
-0.009406
-0.009265
-0.009043
-0.008739
-0.008354
-0.007886
-0.007333
-0.006694
-0.005967
-0.005152
-0.004246
-0.003246
-0.002153
-0.000963
0.000324
0.001711
0.003198
0.004787
0.006478
0.008271
0.010166
0.012161
0.014255
0.016444
0.018724
0.021090
0.023535
0.026050
0.028625
0.031247
0.033902
0.036574
0.039245
0.041894
0.044499
0.047037
0.049482
0.051810
0.053995
0.056010
0.057830
0.059434
0.060799
0.061909
0.062748
0.063309
0.063591
0.063606
-0.009984
-0.010012
-0.009955
-0.009817
-0.009599
-0.009301
-0.008921
-0.008459
-0.007913
-0.007282
-0.006563
-0.005755
-0.004857
-0.003865
-0.002778
-0.001594
-0.000311
0.001073
0.002560
0.004151
0.005848
0.007650
0.009559
0.011573
0.013691
0.015911
0.018230
0.020641
0.023139
0.025716
0.028361
0.031063
0.033806
0.036574
0.039348
0.042107
0.044828
0.047484
0.050050
0.052498
0.054798
0.056924
0.058847
0.060542
0.061986
0.063159
0.064046
0.064639
0.064936
0.064951
-0.010625
-0.010654
-0.010600
-0.010466
-0.010252
-0.009960
-0.009587
-0.009132
-0.008594
-0.007972
-0.007262
-0.006464
-0.005574
-0.004591
-0.003513
-0.002336
-0.001058
0.000322
0.001808
0.003401
0.005104
0.006916
0.008840
0.010875
0.013021
0.015275
0.017636
0.020100
0.022659
0.025308
0.028035
0.030829
0.033675
0.036556
0.039453
0.042343
0.045200
0.047999
0.050708
0.053299
0.055740
0.057999
0.060045
0.061851
0.063390
0.064641
0.065586
0.066216
0.066531
0.066547
-0.011359
-0.011391
-0.011339
-0.011209
-0.011002
-0.010715
-0.010350
-0.009904
-0.009376
-0.008764
-0.008065
-0.007278
-0.006399
-0.005427
-0.004359
-0.003191
-0.001920
-0.000545
0.000938
0.002532
0.004239
0.006062
0.008001
0.010058
0.012233
0.014526
0.016934
0.019455
0.022083
0.024812
0.027632
0.030532
0.033496
0.036508
0.039547
0.042589
0.045607
0.048573
0.051453
0.054214
0.056821
0.059239
0.061433
0.063371
0.065024
0.066366
0.067380
0.068054
0.068391
0.068408
-0.012187
-0.012221
-0.012173
-0.012048
-0.011846
-0.011568
-0.011211
-0.010776
-0.010259
-0.009658
-0.008973
-0.008198
-0.007333
-0.006374
-0.005318
-0.004161
-0.002901
-0.001533
-0.000054
0.001539
0.003249
0.005080
0.007034
0.009113
0.011318
0.013651
0.016110
0.018693
0.021396
0.024213
0.027137
0.030156
0.033254
0.036414
0.039616
0.042834
0.046038
0.049198
0.052278
0.055239
0.058043
0.060648
0.063017
0.065112
0.066899
0.068350
0.069445
0.070171
0.070533
0.070550
-0.013107
-0.013143
-0.013099
-0.012979
-0.012785
-0.012515
-0.012169
-0.011745
-0.011242
-0.010655
-0.009984
-0.009226
-0.008377
-0.007433
-0.006392
-0.005250
-0.004002
-0.002645
-0.001174
0.000415
0.002126
0.003963
0.005930
0.008030
0.010266
0.012639
0.015150
0.017798
0.020582
0.023495
0.026532
0.029681
0.032929
0.036256
0.039642
0.043060
0.046479
0.049864
0.053175
0.056370
0.059404
0.062231
0.064806
0.067085
0.069031
0.070610
0.071799
0.072586
0.072975
0.072993
-0.014118
-0.014156
-0.014117
-0.014003
-0.013817
-0.013557
-0.013223
-0.012813
-0.012324
-0.011754
-0.011101
-0.010361
-0.009531
-0.008606
-0.007584
-0.006459
-0.005228
-0.003885
-0.002425
-0.000844
0.000864
0.002704
0.004680
0.006798
0.009062
0.011474
0.014038
0.016754
0.019621
0.022637
0.025795
0.029087
0.032498
0.036011
0.039604
0.043249
0.046912
0.050555
0.054134
0.057601
0.060904
0.063990
0.066807
0.069304
0.071436
0.073164
0.074463
0.075319
0.075741
0.075757
-0.015218
-0.015259
-0.015224
-0.015118
-0.014941
-0.014693
-0.014372
-0.013977
-0.013506
-0.012955
-0.012322
-0.011604
-0.010796
-0.009894
-0.008894
-0.007792
-0.006582
-0.005258
-0.003815
-0.002246
-0.000547
0.001291
0.003273
0.005405
0.007693
0.010142
0.012757
0.015540
0.018493
0.021614
0.024900
0.028345
0.031934
0.035652
0.039474
0.043373
0.047313
0.051251
0.055139
0.058921
0.062538
0.065928
0.069030
0.071782
0.074133
0.076036
0.077462
0.078398
0.078854
0.078868
-0.016406
-0.016450
-0.016421
-0.016322
-0.016155
-0.015920
-0.015615
-0.015238
-0.014786
-0.014257
-0.013648
-0.012954
-0.012172
-0.011298
-0.010326
-0.009251
-0.008067
-0.006768
-0.005347
-0.003797
-0.002112
-0.000283
0.001698
0.003838
0.006144
0.008625
0.011287
0.014134
0.017171
0.020400
0.023819
0.027424
0.031205
0.035144
0.039219
0.043401
0.047653
0.051927
0.056168
0.060316
0.064299
0.068046
0.071482
0.074535
0.077142
0.079250
0.080823
0.081848
0.082342
0.082352
-0.017679
-0.017727
-0.017703
-0.017613
-0.017458
-0.017238
-0.016950
-0.016593
-0.016163
-0.015659
-0.015077
-0.014412
-0.013661
-0.012818
-0.011879
-0.010837
-0.009685
-0.008418
-0.007026
-0.005504
-0.003840
-0.002028
-0.000057
0.002082
0.004400
0.006904
0.009606
0.012512
0.015630
0.018965
0.022518
0.026289
0.030270
0.034447
0.038797
0.043293
0.047893
0.052547
0.057195
0.061764
0.066175
0.070340
0.074170
0.077578
0.080488
0.082834
0.084576
0.085701
0.086234
0.086236
-0.019035
-0.019087
-0.019070
-0.018990
-0.018848
-0.018644
-0.018375
-0.018040
-0.017636
-0.017160
-0.016609
-0.015977
-0.015262
-0.014456
-0.013555
-0.012552
-0.011440
-0.010212
-0.008858
-0.007371
-0.005740
-0.003954
-0.002003
0.000125
0.002442
0.004960
0.007691
0.010647
0.013838
0.017273
0.020957
0.024894
0.029084
0.033512
0.038159
0.042996
0.047984
0.053068
0.058179
0.063237
0.068146
0.072802
0.077098
0.080927
0.084193
0.086818
0.088753
0.089989
0.090561
0.090550
-0.020473
-0.020528
-0.020519
-0.020450
-0.020322
-0.020135
-0.019888
-0.019578
-0.019203
-0.018759
-0.018242
-0.017648
-0.016973
-0.016210
-0.015354
-0.014398
-0.013334
-0.012153
-0.010847
-0.009405
-0.007817
-0.006070
-0.004152
-0.002048
0.000254
0.002772
0.005518
0.008510
0.011762
0.015286
0.019094
0.023194
0.027593
0.032280
0.037241
0.042449
0.047864
0.053428
0.059068
0.064689
0.070180
0.075418
0.080267
0.084596
0.088285
0.091236
0.093392
0.094748
0.095355
0.095322
-0.021988
-0.022048
-0.022047
-0.021989
-0.021877
-0.021710
-0.021487
-0.021205
-0.020861
-0.020452
-0.019974
-0.019424
-0.018794
-0.018081
-0.017277
-0.016375
-0.015367
-0.014244
-0.012995
-0.011611
-0.010079
-0.008384
-0.006514
-0.004452
-0.002180
0.000318
0.003062
0.006071
0.009365
0.012962
0.016880
0.021132
0.025732
0.030682
0.035969
0.041572
0.047451
0.053551
0.059789
0.066059
0.072233
0.078157
0.083668
0.088596
0.092789
0.096124
0.098531
0.100012
0.100646
0.100578
-0.023579
-0.023643
-0.023651
-0.023606
-0.023511
-0.023365
-0.023168
-0.022916
-0.022607
-0.022238
-0.021804
-0.021300
-0.020723
-0.020065
-0.019320
-0.018481
-0.017539
-0.016484
-0.015306
-0.013992
-0.012530
-0.010905
-0.009100
-0.007098
-0.004878
-0.002421
0.000297
0.003299
0.006610
0.010256
0.014260
0.018645
0.023429
0.028634
0.034251
0.040265
0.046644
0.053332
0.060243
0.067260
0.074231
0.080972
0.087277
0.092931
0.097731
0.101520
0.104210
0.105816
0.106457
0.106333
-0.025241
-0.025310
-0.025327
-0.025296
-0.025219
-0.025097
-0.024928
-0.024709
-0.024439
-0.024112
-0.023726
-0.023276
-0.022756
-0.022161
-0.021484
-0.020716
-0.019850
-0.018875
-0.017779
-0.016551
-0.015175
-0.013637
-0.011918
-0.009998
-0.007855
-0.005466
-0.002803
0.000161
0.003458
0.007119
0.011177
0.015663
0.020608
0.026040
0.031977
0.038407
0.045309
0.052634
0.060295
0.068165
0.076069
0.083785
0.091051
0.097589
0.103130
0.107460
0.110469
0.112188
0.112800
0.112588
-0.026970
-0.027046
-0.027072
-0.027055
-0.026999
-0.026902
-0.026763
-0.026580
-0.026351
-0.026072
-0.025738
-0.025346
-0.024891
-0.024365
-0.023763
-0.023077
-0.022297
-0.021413
-0.020414
-0.019287
-0.018016
-0.016584
-0.014973
-0.013161
-0.011123
-0.008833
-0.006260
-0.003371
-0.000130
0.003503
0.007569
0.012111
0.017172
0.022790
0.029015
0.035848
0.043281
0.051279
0.059762
0.068597
0.077586
0.086465
0.094904
0.102535
0.108992
0.113977
0.117341
0.119145
0.119664
0.119312
-0.028764
-0.028845
-0.028882
-0.028881
-0.028845
-0.028775
-0.028669
-0.028525
-0.028340
-0.028111
-0.027835
-0.027507
-0.027121
-0.026673
-0.026154
-0.025558
-0.024876
-0.024097
-0.023209
-0.022199
-0.021051
-0.019748
-0.018270
-0.016593
-0.014692
-0.012538
-0.010095
-0.007327
-0.004192
-0.000642
0.003374
0.007910
0.013023
0.018770
0.025213
0.032407
0.040351
0.049033
0.058392
0.068299
0.078542
0.088807
0.098683
0.107681
0.115293
0.121089
0.124851
0.126677
0.126997
0.126420
-0.030617
-0.030704
-0.030752
-0.030767
-0.030754
-0.030712
-0.030641
-0.030538
-0.030400
-0.030226
-0.030011
-0.029751
-0.029442
-0.029077
-0.028651
-0.028155
-0.027581
-0.026919
-0.026157
-0.025281
-0.024277
-0.023126
-0.021807
-0.020297
-0.018568
-0.016589
-0.014323
-0.011729
-0.008759
-0.005359
-0.001470
0.002977
0.008055
0.013839
0.020409
0.027870
0.036260
0.045595
0.055847
0.066911
0.078571
0.090475
0.102115
0.112843
0.121943
0.128776
0.132992
0.134735
0.134673
0.133738
-0.032525
-0.032619
-0.032678
-0.032711
-0.032721
-0.032709
-0.032673
-0.032613
-0.032526
-0.032409
-0.032260
-0.032073
-0.031846
-0.031572
-0.031245
-0.030859
-0.030404
-0.029872
-0.029251
-0.028528
-0.027687
-0.026711
-0.025580
-0.024269
-0.022750
-0.020991
-0.018954
-0.016593
-0.013858
-0.010689
-0.007017
-0.002762
0.002163
0.007858
0.014429
0.021986
0.030694
0.040581
0.051675
0.063920
0.077129
0.090930
0.104719
0.117651
0.128713
0.136923
0.141688
0.143180
0.142439
0.140926
-0.034484
-0.034584
-0.034655
-0.034706
-0.034740
-0.034759
-0.034761
-0.034746
-0.034711
-0.034655
-0.034574
-0.034465
-0.034325
-0.034147
-0.033928
-0.033660
-0.033336
-0.032946
-0.032480
-0.031927
-0.031270
-0.030494
-0.029579
-0.028501
-0.027232
-0.025740
-0.023987
-0.021926
-0.019504
-0.016658
-0.013311
-0.009377
-0.004751
0.000685
0.007066
0.014541
0.023285
0.033516
0.045282
0.058615
0.073404
0.089306
0.105650
0.121375
0.135061
0.145191
0.150700
0.151705
0.149821
0.147381
-0.036489
-0.036596
-0.036680
-0.036748
-0.036807
-0.036857
-0.036897
-0.036929
-0.036948
-0.036955
-0.036946
-0.036918
-0.036869
-0.036794
-0.036689
-0.036547
-0.036363
-0.036127
-0.035831
-0.035464
-0.035011
-0.034459
-0.033788
-0.032976
-0.031998
-0.030822
-0.029411
-0.027721
-0.025698
-0.023277
-0.020381
-0.016916
-0.012768
-0.007805
-0.001867
0.005232
0.013703
0.023834
0.035911
0.050025
0.066207
0.084229
0.103437
0.122586
0.139779
0.152695
0.159388
0.159661
0.155979
0.152077
-0.038536
-0.038650
-0.038746
-0.038832
-0.038915
-0.038997
-0.039077
-0.039155
-0.039230
-0.039301
-0.039366
-0.039423
-0.039469
-0.039501
-0.039516
-0.039507
-0.039471
-0.039400
-0.039286
-0.039120
-0.038891
-0.038584
-0.038184
-0.037672
-0.037024
-0.036213
-0.035204
-0.033958
-0.032422
-0.030537
-0.028227
-0.025400
-0.021941
-0.017709
-0.012532
-0.006198
0.001548
0.011007
0.022644
0.036876
0.053845
0.073561
0.095545
0.118534
0.140212
0.157236
0.166149
0.165741
0.159562
0.153512
-0.040619
-0.040742
-0.040849
-0.040954
-0.041061
-0.041174
-0.041293
-0.041418
-0.041549
-0.041685
-0.041825
-0.041968
-0.042112
-0.042255
-0.042393
-0.042525
-0.042644
-0.042746
-0.042826
-0.042875
-0.042884
-0.042844
-0.042740
-0.042558
-0.042278
-0.041877
-0.041328
-0.040596
-0.039638
-0.038401
-0.036821
-0.034813
-0.032273
-0.029070
-0.025034
-0.019953
-0.013555
-0.005500
0.004632
0.017582
0.034010
0.054099
0.077760
0.104065
0.130723
0.153545
0.166973
0.167418
0.158748
0.150348
-0.042736
-0.042867
-0.042986
-0.043107
-0.043238
-0.043381
-0.043538
-0.043710
-0.043896
-0.044097
-0.044313
-0.044543
-0.044786
-0.045041
-0.045307
-0.045582
-0.045862
-0.046145
-0.046427
-0.046702
-0.046964
-0.047207
-0.047420
-0.047594
-0.047715
-0.047766
-0.047729
-0.047577
-0.047281
-0.046802
-0.046091
-0.045087
-0.043709
-0.041855
-0.039389
-0.036133
-0.031853
-0.026239
-0.018878
-0.009238
0.003773
0.021334
0.043511
0.070278
0.100536
0.130447
0.152672
0.159674
0.152121
0.143892
-0.044883
-0.045022
-0.045153
-0.045290
-0.045442
-0.045614
-0.045808
-0.046024
-0.046264
-0.046528
-0.046818
-0.047134
-0.047477
-0.047845
-0.048240
-0.048660
-0.049105
-0.049573
-0.050062
-0.050571
-0.051097
-0.051636
-0.052183
-0.052734
-0.053283
-0.053820
-0.054338
-0.054823
-0.055263
-0.055638
-0.055926
-0.056097
-0.056115
-0.055930
-0.055478
-0.054670
-0.053389
-0.051470
-0.048682
-0.044702
-0.039063
-0.030397
-0.016050
0.004423
0.033453
0.070202
0.107304
0.132820
0.139188
0.138685
-0.047058
-0.047205
-0.047347
-0.047498
-0.047670
-0.047867
-0.048094
-0.048351
-0.048642
-0.048968
-0.049330
-0.049730
-0.050170
-0.050650
-0.051173
-0.051739
-0.052349
-0.053004
-0.053705
-0.054453
-0.055248
-0.056091
-0.056983
-0.057926
-0.058920
-0.059968
-0.061073
-0.062238
-0.063469
-0.064774
-0.066164
-0.067656
-0.069271
-0.071043
-0.073019
-0.075268
-0.077895
-0.081052
-0.084971
-0.089965
-0.096313
-0.103703
-0.109258
-0.105452
-0.085402
-0.043828
0.013836
0.072205
0.112435
0.129448
-0.049259
-0.049416
-0.049566
-0.049729
-0.049916
-0.050136
-0.050391
-0.050686
-0.051023
-0.051406
-0.051836
-0.052316
-0.052850
-0.053440
-0.054088
-0.054798
-0.055572
-0.056413
-0.057325
-0.058311
-0.059377
-0.060527
-0.061769
-0.063109
-0.064558
-0.066129
-0.067838
-0.069707
-0.071763
-0.074045
-0.076605
-0.079514
-0.082869
-0.086810
-0.091539
-0.097352
-0.104692
-0.114248
-0.127088
-0.144786
-0.169133
-0.200548
-0.234857
-0.259811
-0.256266
-0.212949
-0.133473
-0.035457
0.050784
0.091258
-0.051487
-0.051654
-0.051811
-0.051981
-0.052180
-0.052416
-0.052695
-0.053021
-0.053399
-0.053832
-0.054324
-0.054880
-0.055502
-0.056196
-0.056965
-0.057814
-0.058748
-0.059771
-0.060890
-0.062112
-0.063445
-0.064900
-0.066487
-0.068223
-0.070125
-0.072218
-0.074531
-0.077106
-0.079993
-0.083264
-0.087013
-0.091372
-0.096525
-0.102734
-0.110385
-0.120053
-0.132629
-0.149532
-0.173041
-0.206552
-0.253864
-0.315852
-0.384725
-0.441535
-0.457719
-0.415935
-0.320133
-0.189126
-0.060935
0.002959
-0.053746
-0.053923
-0.054084
-0.054257
-0.054460
-0.054705
-0.055000
-0.055349
-0.055759
-0.056235
-0.056782
-0.057406
-0.058110
-0.058901
-0.059784
-0.060766
-0.061852
-0.063050
-0.064369
-0.065819
-0.067411
-0.069161
-0.071084
-0.073204
-0.075546
-0.078146
-0.081047
-0.084306
-0.088000
-0.092230
-0.097134
-0.102903
-0.109807
-0.118235
-0.128761
-0.142258
-0.160103
-0.184530
-0.219164
-0.269336
-0.340681
-0.433783
-0.536220
-0.620827
-0.653939
-0.615961
-0.513763
-0.366301
-0.212087
-0.130254
-0.056041
-0.056229
-0.056391
-0.056559
-0.056758
-0.057003
-0.057302
-0.057665
-0.058098
-0.058607
-0.059199
-0.059880
-0.060657
-0.061537
-0.062525
-0.063630
-0.064859
-0.066223
-0.067731
-0.069397
-0.071235
-0.073264
-0.075507
-0.077990
-0.080749
-0.083827
-0.087280
-0.091182
-0.095628
-0.100747
-0.106716
-0.113779
-0.122278
-0.132713
-0.145822
-0.162738
-0.185254
-0.216295
-0.260574
-0.324857
-0.415868
-0.533358
-0.660821
-0.764625
-0.808350
-0.774801
-0.676098
-0.531038
-0.371321
-0.280953
-0.058384
-0.058582
-0.058739
-0.058893
-0.059076
-0.059308
-0.059600
-0.059963
-0.060405
-0.060935
-0.061561
-0.062289
-0.063128
-0.064085
-0.065168
-0.066385
-0.067745
-0.069261
-0.070945
-0.072811
-0.074878
-0.077167
-0.079706
-0.082525
-0.085667
-0.089183
-0.093137
-0.097617
-0.102734
-0.108639
-0.115534
-0.123703
-0.133543
-0.145626
-0.160803
-0.180365
-0.206353
-0.242050
-0.292645
-0.365362
-0.467010
-0.596544
-0.735580
-0.847449
-0.895078
-0.865477
-0.777172
-0.649514
-0.503228
-0.415055
-0.060791
-0.061001
-0.061144
-0.061271
-0.061422
-0.061623
-0.061891
-0.062238
-0.062674
-0.063211
-0.063856
-0.064619
-0.065507
-0.066528
-0.067693
-0.069009
-0.070487
-0.072140
-0.073983
-0.076031
-0.078305
-0.080830
-0.083635
-0.086757
-0.090240
-0.094142
-0.098536
-0.103515
-0.109201
-0.115758
-0.123405
-0.132445
-0.143299
-0.156571
-0.173145
-0.194348
-0.222231
-0.260007
-0.312598
-0.386510
-0.487550
-0.614053
-0.748884
-0.857424
-0.904110
-0.878714
-0.804485
-0.702426
-0.582692
-0.506044
-0.063286
-0.063508
-0.063626
-0.063707
-0.063805
-0.063954
-0.064175
-0.064485
-0.064897
-0.065423
-0.066072
-0.066854
-0.067777
-0.068849
-0.070081
-0.071482
-0.073062
-0.074836
-0.076819
-0.079028
-0.081486
-0.084218
-0.087257
-0.090641
-0.094419
-0.098650
-0.103411
-0.108800
-0.114942
-0.122004
-0.130208
-0.139857
-0.151369
-0.165330
-0.182584
-0.204369
-0.232537
-0.269843
-0.320384
-0.388847
-0.479064
-0.589643
-0.706247
-0.799248
-0.839391
-0.821317
-0.764581
-0.689100
-0.601484
-0.542373
-0.065908
-0.066141
-0.066217
-0.066225
-0.066240
-0.066306
-0.066453
-0.066701
-0.067066
-0.067561
-0.068196
-0.068980
-0.069923
-0.071032
-0.072316
-0.073786
-0.075452
-0.077328
-0.079431
-0.081778
-0.084393
-0.087302
-0.090539
-0.094144
-0.098166
-0.102665
-0.107719
-0.113423
-0.119903
-0.127320
-0.135886
-0.145887
-0.157709
-0.171886
-0.189161
-0.210590
-0.237727
-0.272506
-0.317675
-0.376733
-0.451923
-0.540998
-0.631902
-0.701345
-0.728493
-0.712026
-0.669303
-0.622505
-0.566678
-0.527252
-0.068712
-0.068953
-0.068959
-0.068856
-0.068744
-0.068689
-0.068725
-0.068880
-0.069171
-0.069612
-0.070214
-0.070984
-0.071930
-0.073060
-0.074381
-0.075904
-0.077638
-0.079598
-0.081800
-0.084261
-0.087006
-0.090061
-0.093460
-0.097242
-0.101456
-0.106162
-0.111434
-0.117363
-0.124068
-0.131698
-0.140446
-0.150567
-0.162399
-0.176394
-0.193167
-0.213494
-0.238343
-0.269253
-0.307948
-0.356302
-0.415112
-0.481606
-0.546094
-0.591724
-0.605305
-0.588287
-0.555216
-0.525262
-0.495395
-0.473779
-0.071779
-0.072023
-0.071917
-0.071641
-0.071344
-0.071111
-0.070991
-0.071015
-0.071202
-0.071564
-0.072111
-0.072849
-0.073782
-0.074918
-0.076261
-0.077821
-0.079607
-0.081631
-0.083910
-0.086462
-0.089309
-0.092478
-0.096002
-0.099919
-0.104276
-0.109130
-0.114550
-0.120621
-0.127450
-0.135169
-0.143948
-0.154001
-0.165609
-0.179132
-0.194945
-0.213604
-0.235844
-0.262518
-0.294531
-0.332589
-0.376393
-0.423019
-0.465049
-0.491093
-0.493257
-0.474140
-0.445975
-0.424631
-0.409305
-0.398314
-0.075236
-0.075470
-0.075177
-0.074636
-0.074064
-0.073580
-0.073246
-0.073093
-0.073141
-0.073399
-0.073871
-0.074559
-0.075466
-0.076592
-0.077943
-0.079525
-0.081345
-0.083416
-0.085752
-0.088370
-0.091292
-0.094545
-0.098159
-0.102170
-0.106624
-0.111572
-0.117078
-0.123218
-0.130086
-0.137796
-0.146489
-0.156340
-0.167570
-0.180374
-0.195035
-0.211953
-0.231523
-0.254149
-0.280129
-0.309412
-0.341059
-0.372295
-0.397605
-0.409536
-0.403324
-0.381747
-0.355195
-0.336563
-0.323254
-0.312157
-0.079287
-0.079478
-0.078868
-0.077911
-0.076935
-0.076100
-0.075477
-0.075097
-0.074970
-0.075097
-0.075475
-0.076099
-0.076964
-0.078070
-0.079415
-0.081005
-0.082844
-0.084944
-0.087316
-0.089979
-0.092951
-0.096258
-0.099929
-0.103998
-0.108506
-0.113501
-0.119040
-0.125190
-0.132031
-0.139659
-0.148189
-0.157757
-0.168502
-0.180518
-0.194056
-0.209311
-0.226457
-0.245592
-0.266632
-0.289107
-0.311810
-0.332272
-0.346400
-0.349263
-0.337791
-0.314371
-0.287618
-0.266912
-0.241743
-0.215237
-0.084272
-0.084341
-0.083167
-0.081545
-0.079972
-0.078654
-0.077658
-0.076994
-0.076658
-0.076632
-0.076901
-0.077448
-0.078263
-0.079338
-0.080668
-0.082253
-0.084098
-0.086209
-0.088601
-0.091286
-0.094284
-0.097619
-0.101317
-0.105411
-0.109937
-0.114940
-0.120469
-0.126584
-0.133351
-0.140852
-0.149178
-0.158430
-0.168649
-0.179959
-0.192486
-0.206310
-0.221456
-0.237838
-0.255164
-0.272778
-0.289436
-0.303017
-0.310412
-0.308178
-0.294175
-0.269917
-0.241454
-0.210032
-0.156634
-0.088302
-0.090818
-0.090553
-0.088319
-0.085606
-0.083160
-0.081200
-0.079736
-0.078738
-0.078163
-0.077968
-0.078119
-0.078584
-0.079342
-0.080379
-0.081686
-0.083258
-0.085095
-0.087204
-0.089597
-0.092287
-0.095291
-0.098630
-0.102330
-0.106420
-0.110936
-0.115916
-0.121407
-0.127456
-0.134123
-0.141477
-0.149594
-0.158512
-0.168288
-0.179007
-0.190718
-0.203430
-0.217081
-0.231487
-0.246263
-0.260703
-0.273633
-0.283244
-0.287072
-0.282471
-0.267887
-0.243504
-0.210497
-0.153343
-0.031695
0.123511
-0.100215
-0.098990
-0.094614
-0.090090
-0.086400
-0.083633
-0.081619
-0.080244
-0.079412
-0.079043
-0.079072
-0.079453
-0.080152
-0.081147
-0.082427
-0.083976
-0.085793
-0.087888
-0.090270
-0.092947
-0.095941
-0.099268
-0.102952
-0.107021
-0.111507
-0.116449
-0.121892
-0.127867
-0.134427
-0.141636
-0.149547
-0.158205
-0.167654
-0.177935
-0.189065
-0.201015
-0.213677
-0.226822
-0.240034
-0.252617
-0.263487
-0.271066
-0.273266
-0.267764
-0.252927
-0.227429
-0.179906
-0.061348
0.212184
0.542534
-0.115755
-0.111395
-0.102254
-0.094764
-0.089389
-0.085701
-0.083058
-0.081265
-0.080161
-0.079617
-0.079527
-0.079824
-0.080462
-0.081414
-0.082669
-0.084192
-0.085977
-0.088052
-0.090419
-0.093088
-0.096068
-0.099378
-0.103043
-0.107089
-0.111547
-0.116453
-0.121844
-0.127760
-0.134247
-0.141358
-0.149139
-0.157634
-0.166877
-0.176895
-0.187684
-0.199194
-0.211296
-0.223741
-0.236099
-0.247686
-0.257470
-0.263980
-0.265247
-0.258789
-0.242203
-0.207465
-0.114448
0.143805
0.717045
1.420935
-0.146057
-0.129746
-0.110950
-0.098183
-0.090374
-0.085749
-0.082346
-0.080267
-0.079037
-0.078397
-0.078255
-0.078529
-0.079164
-0.080126
-0.081390
-0.082933
-0.084750
-0.086854
-0.089248
-0.091943
-0.094948
-0.098283
-0.101971
-0.106036
-0.110510
-0.115428
-0.120825
-0.126742
-0.133223
-0.140315
-0.148064
-0.156510
-0.165684
-0.175601
-0.186249
-0.197563
-0.209397
-0.221481
-0.233368
-0.244354
-0.253379
-0.258909
-0.258645
-0.249133
-0.224517
-0.149020
0.059956
0.591569
1.682892
3.092182
-0.249227
-0.111848
-0.082813
-0.074361
-0.071073
-0.069638
-0.068875
-0.068683
-0.068883
-0.069374
-0.070140
-0.071162
-0.072424
-0.073918
-0.075639
-0.077583
-0.079754
-0.082170
-0.084842
-0.087786
-0.091017
-0.094557
-0.098432
-0.102669
-0.107300
-0.112362
-0.117892
-0.123932
-0.130525
-0.137718
-0.145556
-0.154077
-0.163310
-0.173265
-0.183920
-0.195198
-0.206939
-0.218852
-0.230458
-0.241007
-0.249316
-0.253520
-0.249949
-0.230585
-0.169232
-0.009516
0.384372
1.271754
2.949375
5.184883
