# vtk DataFile Version 3.0
Vector Field
ASCII
DATASET RECTILINEAR_GRID
DIMENSIONS 50 50 1
X_COORDINATES 50 double
0.100000 0.300000 0.500000 0.700000 0.900000 1.100000 1.300000 1.500000 1.700000 1.900000 2.100000 2.300000 2.500000 2.700000 2.900000 3.100000 3.300000 3.500000 3.700000 3.900000 4.100000 4.300000 4.500000 4.700000 4.900000 5.100000 5.300000 5.500000 5.700000 5.900000 6.100000 6.300000 6.500000 6.700000 6.900000 7.100000 7.300000 7.500000 7.700000 7.900000 8.100000 8.300000 8.500000 8.700000 8.900000 9.100000 9.300000 9.500000 9.700000 9.900000 
Y_COORDINATES 50 double
0.100000 0.300000 0.500000 0.700000 0.900000 1.100000 1.300000 1.500000 1.700000 1.900000 2.100000 2.300000 2.500000 2.700000 2.900000 3.100000 3.300000 3.500000 3.700000 3.900000 4.100000 4.300000 4.500000 4.700000 4.900000 5.100000 5.300000 5.500000 5.700000 5.900000 6.100000 6.300000 6.500000 6.700000 6.900000 7.100000 7.300000 7.500000 7.700000 7.900000 8.100000 8.300000 8.500000 8.700000 8.900000 9.100000 9.300000 9.500000 9.700000 9.900000 
Z_COORDINATES 1 double
0.0
POINT_DATA 2500
VECTORS Vektorfeld double
-0.000237 0.000237 0.0
-0.000877 0.000402 0.0
-0.001706 0.000427 0.0
-0.002560 0.000426 0.0
-0.003408 0.000421 0.0
-0.004244 0.000414 0.0
-0.005064 0.000406 0.0
-0.005867 0.000396 0.0
-0.006648 0.000385 0.0
-0.007406 0.000373 0.0
-0.008137 0.000359 0.0
-0.008839 0.000343 0.0
-0.009509 0.000327 0.0
-0.010144 0.000309 0.0
-0.010742 0.000290 0.0
-0.011301 0.000269 0.0
-0.011818 0.000248 0.0
-0.012291 0.000225 0.0
-0.012718 0.000202 0.0
-0.013096 0.000177 0.0
-0.013425 0.000152 0.0
-0.013702 0.000125 0.0
-0.013926 0.000098 0.0
-0.014095 0.000071 0.0
-0.014208 0.000042 0.0
-0.014264 0.000014 0.0
-0.014263 -0.000015 0.0
-0.014203 -0.000045 0.0
-0.014084 -0.000074 0.0
-0.013906 -0.000104 0.0
-0.013669 -0.000134 0.0
-0.013372 -0.000163 0.0
-0.013017 -0.000192 0.0
-0.012605 -0.000221 0.0
-0.012135 -0.000249 0.0
-0.011611 -0.000276 0.0
-0.011033 -0.000302 0.0
-0.010403 -0.000327 0.0
-0.009725 -0.000351 0.0
-0.009000 -0.000374 0.0
-0.008232 -0.000395 0.0
-0.007423 -0.000414 0.0
-0.006578 -0.000431 0.0
-0.005701 -0.000446 0.0
-0.004794 -0.000460 0.0
-0.003864 -0.000471 0.0
-0.002914 -0.000479 0.0
-0.001953 -0.000482 0.0
-0.001014 -0.000456 0.0
-0.000279 -0.000279 0.0
-0.000406 0.000881 0.0
-0.001430 0.001423 0.0
-0.002700 0.001506 0.0
-0.004001 0.001502 0.0
-0.005292 0.001484 0.0
-0.006564 0.001459 0.0
-0.007812 0.001430 0.0
-0.009032 0.001395 0.0
-0.010218 0.001355 0.0
-0.011366 0.001309 0.0
-0.012473 0.001259 0.0
-0.013533 0.001205 0.0
-0.014544 0.001145 0.0
-0.015500 0.001081 0.0
-0.016398 0.001013 0.0
-0.017235 0.000941 0.0
-0.018006 0.000865 0.0
-0.018710 0.000785 0.0
-0.019343 0.000701 0.0
-0.019902 0.000615 0.0
-0.020384 0.000525 0.0
-0.020787 0.000432 0.0
-0.021109 0.000337 0.0
-0.021348 0.000240 0.0
-0.021503 0.000141 0.0
-0.021571 0.000040 0.0
-0.021553 -0.000062 0.0
-0.021446 -0.000165 0.0
-0.021251 -0.000268 0.0
-0.020968 -0.000372 0.0
-0.020596 -0.000475 0.0
-0.020137 -0.000577 0.0
-0.019591 -0.000678 0.0
-0.018960 -0.000778 0.0
-0.018246 -0.000875 0.0
-0.017451 -0.000969 0.0
-0.016577 -0.001060 0.0
-0.015628 -0.001147 0.0
-0.014608 -0.001230 0.0
-0.013520 -0.001308 0.0
-0.012368 -0.001380 0.0
-0.011158 -0.001446 0.0
-0.009896 -0.001506 0.0
-0.008585 -0.001559 0.0
-0.007233 -0.001605 0.0
-0.005847 -0.001643 0.0
-0.004432 -0.001672 0.0
-0.003000 -0.001683 0.0
-0.001598 -0.001597 0.0
-0.000457 -0.001014 0.0
-0.000437 0.001723 0.0
-0.001533 0.002701 0.0
-0.002884 0.002849 0.0
-0.004265 0.002842 0.0
-0.005636 0.002806 0.0
-0.006986 0.002759 0.0
-0.008311 0.002702 0.0
-0.009604 0.002635 0.0
-0.010863 0.002558 0.0
-0.012081 0.002472 0.0
-0.013254 0.002377 0.0
-0.014378 0.002272 0.0
-0.015448 0.002159 0.0
-0.016461 0.002037 0.0
-0.017412 0.001907 0.0
-0.018298 0.001770 0.0
-0.019115 0.001625 0.0
-0.019859 0.001473 0.0
-0.020527 0.001315 0.0
-0.021117 0.001150 0.0
-0.021626 0.000980 0.0
-0.022051 0.000805 0.0
-0.022390 0.000626 0.0
-0.022642 0.000442 0.0
-0.022803 0.000255 0.0
-0.022873 0.000065 0.0
-0.022851 -0.000127 0.0
-0.022737 -0.000321 0.0
-0.022528 -0.000515 0.0
-0.022226 -0.000710 0.0
-0.021831 -0.000903 0.0
-0.021344 -0.001095 0.0
-0.020765 -0.001285 0.0
-0.020096 -0.001471 0.0
-0.019339 -0.001653 0.0
-0.018496 -0.001829 0.0
-0.017570 -0.001999 0.0
-0.016565 -0.002162 0.0
-0.015484 -0.002317 0.0
-0.014332 -0.002462 0.0
-0.013112 -0.002597 0.0
-0.011831 -0.002721 0.0
-0.010494 -0.002832 0.0
-0.009107 -0.002931 0.0
-0.007675 -0.003016 0.0
-0.006207 -0.003087 0.0
-0.004709 -0.003141 0.0
-0.003193 -0.003161 0.0
-0.001705 -0.003009 0.0
-0.000489 -0.001960 0.0
-0.000443 0.002603 0.0
-0.001557 0.004031 0.0
-0.002930 0.004244 0.0
-0.004333 0.004231 0.0
-0.005725 0.004179 0.0
-0.007096 0.004108 0.0
-0.008441 0.004023 0.0
-0.009755 0.003922 0.0
-0.011033 0.003807 0.0
-0.012270 0.003678 0.0
-0.013461 0.003535 0.0
-0.014603 0.003379 0.0
-0.015690 0.003209 0.0
-0.016719 0.003028 0.0
-0.017685 0.002834 0.0
-0.018585 0.002628 0.0
-0.019414 0.002412 0.0
-0.020171 0.002186 0.0
-0.020850 0.001950 0.0
-0.021451 0.001705 0.0
-0.021968 0.001452 0.0
-0.022401 0.001191 0.0
-0.022747 0.000924 0.0
-0.023003 0.000651 0.0
-0.023169 0.000373 0.0
-0.023242 0.000091 0.0
-0.023222 -0.000195 0.0
-0.023107 -0.000483 0.0
-0.022897 -0.000771 0.0
-0.022593 -0.001060 0.0
-0.022194 -0.001347 0.0
-0.021700 -0.001632 0.0
-0.021114 -0.001914 0.0
-0.020436 -0.002190 0.0
-0.019668 -0.002459 0.0
-0.018813 -0.002721 0.0
-0.017874 -0.002973 0.0
-0.016853 -0.003214 0.0
-0.015755 -0.003444 0.0
-0.014584 -0.003659 0.0
-0.013345 -0.003859 0.0
-0.012042 -0.004042 0.0
-0.010682 -0.004208 0.0
-0.009271 -0.004354 0.0
-0.007815 -0.004480 0.0
-0.006321 -0.004585 0.0
-0.004796 -0.004665 0.0
-0.003253 -0.004695 0.0
-0.001737 -0.004478 0.0
-0.000498 -0.002947 0.0
-0.000449 0.003495 0.0
-0.001577 0.005381 0.0
-0.002969 0.005659 0.0
-0.004391 0.005641 0.0
-0.005802 0.005571 0.0
-0.007191 0.005477 0.0
-0.008555 0.005362 0.0
-0.009886 0.005228 0.0
-0.011182 0.005075 0.0
-0.012436 0.004902 0.0
-0.013644 0.004711 0.0
-0.014801 0.004502 0.0
-0.015904 0.004276 0.0
-0.016947 0.004033 0.0
-0.017927 0.003774 0.0
-0.018840 0.003501 0.0
-0.019683 0.003212 0.0
-0.020451 0.002910 0.0
-0.021142 0.002596 0.0
-0.021752 0.002270 0.0
-0.022279 0.001932 0.0
-0.022720 0.001585 0.0
-0.023073 0.001229 0.0
-0.023336 0.000865 0.0
-0.023507 0.000495 0.0
-0.023584 0.000119 0.0
-0.023567 -0.000261 0.0
-0.023454 -0.000644 0.0
-0.023244 -0.001028 0.0
-0.022939 -0.001413 0.0
-0.022537 -0.001795 0.0
-0.022040 -0.002175 0.0
-0.021448 -0.002549 0.0
-0.020763 -0.002917 0.0
-0.019987 -0.003276 0.0
-0.019121 -0.003624 0.0
-0.018169 -0.003961 0.0
-0.017135 -0.004282 0.0
-0.016021 -0.004587 0.0
-0.014833 -0.004874 0.0
-0.013574 -0.005141 0.0
-0.012251 -0.005386 0.0
-0.010869 -0.005606 0.0
-0.009434 -0.005802 0.0
-0.007953 -0.005970 0.0
-0.006433 -0.006110 0.0
-0.004881 -0.006217 0.0
-0.003311 -0.006258 0.0
-0.001768 -0.005974 0.0
-0.000507 -0.003952 0.0
-0.000456 0.004400 0.0
-0.001602 0.006751 0.0
-0.003017 0.007095 0.0
-0.004463 0.007073 0.0
-0.005897 0.006984 0.0
-0.007309 0.006866 0.0
-0.008695 0.006722 0.0
-0.010049 0.006554 0.0
-0.011366 0.006361 0.0
-0.012641 0.006145 0.0
-0.013869 0.005905 0.0
-0.015047 0.005643 0.0
-0.016168 0.005359 0.0
-0.017230 0.005055 0.0
-0.018228 0.004730 0.0
-0.019157 0.004387 0.0
-0.020015 0.004026 0.0
-0.020798 0.003648 0.0
-0.021503 0.003254 0.0
-0.022126 0.002845 0.0
-0.022665 0.002423 0.0
-0.023116 0.001988 0.0
-0.023479 0.001542 0.0
-0.023750 0.001086 0.0
-0.023927 0.000622 0.0
-0.024010 0.000151 0.0
-0.023997 -0.000325 0.0
-0.023886 -0.000804 0.0
-0.023678 -0.001286 0.0
-0.023371 -0.001767 0.0
-0.022967 -0.002247 0.0
-0.022465 -0.002723 0.0
-0.021866 -0.003192 0.0
-0.021173 -0.003653 0.0
-0.020386 -0.004103 0.0
-0.019507 -0.004541 0.0
-0.018540 -0.004963 0.0
-0.017488 -0.005367 0.0
-0.016355 -0.005750 0.0
-0.015145 -0.006111 0.0
-0.013863 -0.006446 0.0
-0.012514 -0.006753 0.0
-0.011104 -0.007031 0.0
-0.009639 -0.007277 0.0
-0.008127 -0.007488 0.0
-0.006574 -0.007664 0.0
-0.004989 -0.007799 0.0
-0.003384 -0.007851 0.0
-0.001807 -0.007499 0.0
-0.000518 -0.004976 0.0
-0.000465 0.005320 0.0
-0.001633 0.008146 0.0
-0.003076 0.008558 0.0
-0.004550 0.008530 0.0
-0.006013 0.008423 0.0
-0.007454 0.008280 0.0
-0.008867 0.008107 0.0
-0.010248 0.007904 0.0
-0.011592 0.007671 0.0
-0.012892 0.007410 0.0
-0.014146 0.007121 0.0
-0.015347 0.006805 0.0
-0.016492 0.006463 0.0
-0.017576 0.006096 0.0
-0.018595 0.005706 0.0
-0.019545 0.005292 0.0
-0.020423 0.004857 0.0
-0.021224 0.004401 0.0
-0.021945 0.003926 0.0
-0.022584 0.003434 0.0
-0.023137 0.002925 0.0
-0.023602 0.002402 0.0
-0.023975 0.001864 0.0
-0.024256 0.001316 0.0
-0.024442 0.000757 0.0
-0.024532 0.000189 0.0
-0.024523 -0.000384 0.0
-0.024416 -0.000963 0.0
-0.024208 -0.001543 0.0
-0.023901 -0.002124 0.0
-0.023493 -0.002702 0.0
-0.022986 -0.003276 0.0
-0.022379 -0.003843 0.0
-0.021675 -0.004400 0.0
-0.020875 -0.004944 0.0
-0.019981 -0.005473 0.0
-0.018996 -0.005983 0.0
-0.017923 -0.006471 0.0
-0.016766 -0.006935 0.0
-0.015529 -0.007372 0.0
-0.014217 -0.007778 0.0
-0.012837 -0.008151 0.0
-0.011393 -0.008487 0.0
-0.009892 -0.008785 0.0
-0.008341 -0.009042 0.0
-0.006749 -0.009256 0.0
-0.005122 -0.009420 0.0
-0.003475 -0.009484 0.0
-0.001856 -0.009062 0.0
-0.000532 -0.006026 0.0
-0.000475 0.006260 0.0
-0.001670 0.009571 0.0
-0.003146 0.010052 0.0
-0.004655 0.010019 0.0
-0.006151 0.009893 0.0
-0.007625 0.009726 0.0
-0.009072 0.009522 0.0
-0.010485 0.009283 0.0
-0.011860 0.009010 0.0
-0.013191 0.008704 0.0
-0.014474 0.008364 0.0
-0.015705 0.007994 0.0
-0.016877 0.007592 0.0
-0.017988 0.007162 0.0
-0.019032 0.006703 0.0
-0.020006 0.006218 0.0
-0.020906 0.005708 0.0
-0.021729 0.005174 0.0
-0.022470 0.004617 0.0
-0.023127 0.004039 0.0
-0.023697 0.003443 0.0
-0.024177 0.002829 0.0
-0.024565 0.002199 0.0
-0.024858 0.001555 0.0
-0.025054 0.000899 0.0
-0.025151 0.000234 0.0
-0.025149 -0.000440 0.0
-0.025045 -0.001119 0.0
-0.024839 -0.001800 0.0
-0.024531 -0.002483 0.0
-0.024119 -0.003162 0.0
-0.023606 -0.003837 0.0
-0.022990 -0.004504 0.0
-0.022274 -0.005159 0.0
-0.021458 -0.005800 0.0
-0.020546 -0.006423 0.0
-0.019539 -0.007024 0.0
-0.018441 -0.007601 0.0
-0.017256 -0.008148 0.0
-0.015988 -0.008664 0.0
-0.014641 -0.009144 0.0
-0.013223 -0.009584 0.0
-0.011738 -0.009982 0.0
-0.010194 -0.010335 0.0
-0.008598 -0.010639 0.0
-0.006958 -0.010892 0.0
-0.005281 -0.011086 0.0
-0.003583 -0.011163 0.0
-0.001914 -0.010670 0.0
-0.000549 -0.007107 0.0
-0.000487 0.007222 0.0
-0.001713 0.011030 0.0
-0.003228 0.011583 0.0
-0.004776 0.011544 0.0
-0.006312 0.011399 0.0
-0.007825 0.011206 0.0
-0.009309 0.010972 0.0
-0.010760 0.010697 0.0
-0.012171 0.010383 0.0
-0.013538 0.010030 0.0
-0.014856 0.009639 0.0
-0.016119 0.009212 0.0
-0.017324 0.008751 0.0
-0.018465 0.008255 0.0
-0.019539 0.007728 0.0
-0.020541 0.007170 0.0
-0.021467 0.006583 0.0
-0.022315 0.005968 0.0
-0.023079 0.005328 0.0
-0.023758 0.004664 0.0
-0.024348 0.003978 0.0
-0.024846 0.003271 0.0
-0.025249 0.002547 0.0
-0.025556 0.001806 0.0
-0.025764 0.001052 0.0
-0.025871 0.000286 0.0
-0.025875 -0.000490 0.0
-0.025776 -0.001271 0.0
-0.025572 -0.002057 0.0
-0.025263 -0.002843 0.0
-0.024848 -0.003628 0.0
-0.024327 -0.004406 0.0
-0.023702 -0.005176 0.0
-0.022971 -0.005933 0.0
-0.022139 -0.006674 0.0
-0.021205 -0.007395 0.0
-0.020174 -0.008091 0.0
-0.019047 -0.008759 0.0
-0.017829 -0.009394 0.0
-0.016524 -0.009992 0.0
-0.015138 -0.010549 0.0
-0.013675 -0.011060 0.0
-0.012143 -0.011523 0.0
-0.010549 -0.011933 0.0
-0.008899 -0.012287 0.0
-0.007203 -0.012581 0.0
-0.005468 -0.012807 0.0
-0.003710 -0.012898 0.0
-0.001983 -0.012332 0.0
-0.000569 -0.008225 0.0
-0.000501 0.008210 0.0
-0.001762 0.012530 0.0
-0.003321 0.013156 0.0
-0.004915 0.013112 0.0
-0.006495 0.012947 0.0
-0.008053 0.012729 0.0
-0.009581 0.012463 0.0
-0.011074 0.012151 0.0
-0.012527 0.011794 0.0
-0.013935 0.011393 0.0
-0.015292 0.010950 0.0
-0.016593 0.010466 0.0
-0.017834 0.009943 0.0
-0.019010 0.009381 0.0
-0.020118 0.008783 0.0
-0.021151 0.008151 0.0
-0.022108 0.007485 0.0
-0.022983 0.006789 0.0
-0.023774 0.006063 0.0
-0.024478 0.005311 0.0
-0.025090 0.004533 0.0
-0.025608 0.003732 0.0
-0.026030 0.002911 0.0
-0.026353 0.002071 0.0
-0.026574 0.001216 0.0
-0.026692 0.000347 0.0
-0.026706 -0.000533 0.0
-0.026612 -0.001421 0.0
-0.026411 -0.002313 0.0
-0.026101 -0.003207 0.0
-0.025682 -0.004098 0.0
-0.025154 -0.004985 0.0
-0.024517 -0.005861 0.0
-0.023772 -0.006724 0.0
-0.022920 -0.007569 0.0
-0.021963 -0.008391 0.0
-0.020903 -0.009186 0.0
-0.019744 -0.009949 0.0
-0.018489 -0.010676 0.0
-0.017142 -0.011361 0.0
-0.015710 -0.011999 0.0
-0.014197 -0.012585 0.0
-0.012611 -0.013116 0.0
-0.010958 -0.013587 0.0
-0.009247 -0.013994 0.0
-0.007486 -0.014332 0.0
-0.005684 -0.014592 0.0
-0.003858 -0.014698 0.0
-0.002062 -0.014056 0.0
-0.000592 -0.009386 0.0
-0.000516 0.009227 0.0
-0.001818 0.014076 0.0
-0.003426 0.014778 0.0
-0.005071 0.014728 0.0
-0.006702 0.014543 0.0
-0.008310 0.014298 0.0
-0.009887 0.013999 0.0
-0.011429 0.013649 0.0
-0.012929 0.013249 0.0
-0.014382 0.012799 0.0
-0.015783 0.012302 0.0
-0.017127 0.011760 0.0
-0.018409 0.011173 0.0
-0.019625 0.010543 0.0
-0.020769 0.009873 0.0
-0.021839 0.009164 0.0
-0.022829 0.008419 0.0
-0.023737 0.007638 0.0
-0.024557 0.006826 0.0
-0.025288 0.005982 0.0
-0.025926 0.005111 0.0
-0.026467 0.004214 0.0
-0.026910 0.003294 0.0
-0.027251 0.002353 0.0
-0.027488 0.001393 0.0
-0.027619 0.000419 0.0
-0.027643 -0.000569 0.0
-0.027556 -0.001565 0.0
-0.027358 -0.002567 0.0
-0.027049 -0.003572 0.0
-0.026626 -0.004575 0.0
-0.026090 -0.005572 0.0
-0.025441 -0.006560 0.0
-0.024679 -0.007532 0.0
-0.023806 -0.008486 0.0
-0.022823 -0.009414 0.0
-0.021732 -0.010313 0.0
-0.020536 -0.011177 0.0
-0.019240 -0.012000 0.0
-0.017847 -0.012776 0.0
-0.016363 -0.013500 0.0
-0.014793 -0.014166 0.0
-0.013145 -0.014770 0.0
-0.011426 -0.015305 0.0
-0.009645 -0.015768 0.0
-0.007810 -0.016153 0.0
-0.005932 -0.016450 0.0
-0.004027 -0.016572 0.0
-0.002153 -0.015852 0.0
-0.000618 -0.010595 0.0
-0.000534 0.010277 0.0
-0.001880 0.015673 0.0
-0.003544 0.016454 0.0
-0.005246 0.016399 0.0
-0.006934 0.016193 0.0
-0.008597 0.015919 0.0
-0.010229 0.015587 0.0
-0.011825 0.015198 0.0
-0.013377 0.014752 0.0
-0.014881 0.014253 0.0
-0.016331 0.013700 0.0
-0.017723 0.013097 0.0
-0.019051 0.012445 0.0
-0.020310 0.011746 0.0
-0.021497 0.011001 0.0
-0.022606 0.010214 0.0
-0.023634 0.009387 0.0
-0.024576 0.008520 0.0
-0.025430 0.007618 0.0
-0.026192 0.006682 0.0
-0.026858 0.005715 0.0
-0.027426 0.004719 0.0
-0.027892 0.003697 0.0
-0.028253 0.002652 0.0
-0.028508 0.001586 0.0
-0.028654 0.000503 0.0
-0.028689 -0.000595 0.0
-0.028611 -0.001704 0.0
-0.028418 -0.002819 0.0
-0.028109 -0.003939 0.0
-0.027683 -0.005057 0.0
-0.027139 -0.006170 0.0
-0.026477 -0.007273 0.0
-0.025698 -0.008360 0.0
-0.024802 -0.009427 0.0
-0.023790 -0.010468 0.0
-0.022666 -0.011476 0.0
-0.021430 -0.012446 0.0
-0.020088 -0.013370 0.0
-0.018643 -0.014244 0.0
-0.017100 -0.015059 0.0
-0.015467 -0.015810 0.0
-0.013750 -0.016491 0.0
-0.011956 -0.017096 0.0
-0.010096 -0.017619 0.0
-0.008178 -0.018055 0.0
-0.006213 -0.018391 0.0
-0.004219 -0.018530 0.0
-0.002256 -0.017729 0.0
-0.000648 -0.011861 0.0
-0.000553 0.011363 0.0
-0.001948 0.017328 0.0
-0.003675 0.018190 0.0
-0.005440 0.018129 0.0
-0.007191 0.017901 0.0
-0.008916 0.017599 0.0
-0.010609 0.017232 0.0
-0.012263 0.016802 0.0
-0.013874 0.016310 0.0
-0.015434 0.015759 0.0
-0.016939 0.015149 0.0
-0.018383 0.014484 0.0
-0.019761 0.013764 0.0
-0.021068 0.012993 0.0
-0.022301 0.012173 0.0
-0.023454 0.011305 0.0
-0.024523 0.010393 0.0
-0.025505 0.009439 0.0
-0.026395 0.008445 0.0
-0.027191 0.007413 0.0
-0.027889 0.006348 0.0
-0.028485 0.005251 0.0
-0.028977 0.004124 0.0
-0.029362 0.002972 0.0
-0.029638 0.001796 0.0
-0.029801 0.000601 0.0
-0.029849 -0.000610 0.0
-0.029780 -0.001835 0.0
-0.029593 -0.003068 0.0
-0.029286 -0.004306 0.0
-0.028857 -0.005544 0.0
-0.028306 -0.006778 0.0
-0.027631 -0.008001 0.0
-0.026834 -0.009209 0.0
-0.025913 -0.010395 0.0
-0.024871 -0.011553 0.0
-0.023710 -0.012677 0.0
-0.022431 -0.013759 0.0
-0.021038 -0.014792 0.0
-0.019536 -0.015769 0.0
-0.017929 -0.016682 0.0
-0.016225 -0.017525 0.0
-0.014431 -0.018289 0.0
-0.012554 -0.018969 0.0
-0.010604 -0.019557 0.0
-0.008593 -0.020047 0.0
-0.006530 -0.020426 0.0
-0.004435 -0.020585 0.0
-0.002373 -0.019699 0.0
-0.000682 -0.013191 0.0
-0.000574 0.012491 0.0
-0.002024 0.019046 0.0
-0.003819 0.019993 0.0
-0.005653 0.019926 0.0
-0.007473 0.019675 0.0
-0.009267 0.019344 0.0
-0.011027 0.018941 0.0
-0.012746 0.018468 0.0
-0.014420 0.017928 0.0
-0.016042 0.017323 0.0
-0.017607 0.016654 0.0
-0.019108 0.015924 0.0
-0.020541 0.015135 0.0
-0.021902 0.014290 0.0
-0.023185 0.013391 0.0
-0.024385 0.012441 0.0
-0.025500 0.011441 0.0
-0.026525 0.010396 0.0
-0.027455 0.009308 0.0
-0.028289 0.008179 0.0
-0.029021 0.007012 0.0
-0.029649 0.005811 0.0
-0.030170 0.004577 0.0
-0.030581 0.003315 0.0
-0.030879 0.002027 0.0
-0.031061 0.000716 0.0
-0.031125 -0.000613 0.0
-0.031069 -0.001957 0.0
-0.030889 -0.003312 0.0
-0.030585 -0.004674 0.0
-0.030154 -0.006036 0.0
-0.029596 -0.007395 0.0
-0.028908 -0.008745 0.0
-0.028092 -0.010079 0.0
-0.027146 -0.011391 0.0
-0.026072 -0.012673 0.0
-0.024871 -0.013920 0.0
-0.023545 -0.015121 0.0
-0.022098 -0.016270 0.0
-0.020533 -0.017358 0.0
-0.018856 -0.018376 0.0
-0.017074 -0.019317 0.0
-0.015194 -0.020172 0.0
-0.013224 -0.020932 0.0
-0.011176 -0.021591 0.0
-0.009059 -0.022141 0.0
-0.006887 -0.022566 0.0
-0.004679 -0.022747 0.0
-0.002505 -0.021773 0.0
-0.000720 -0.014593 0.0
-0.000597 0.013662 0.0
-0.002107 0.020834 0.0
-0.003976 0.021870 0.0
-0.005887 0.021795 0.0
-0.007783 0.021522 0.0
-0.009651 0.021159 0.0
-0.011484 0.020718 0.0
-0.013276 0.020202 0.0
-0.015019 0.019612 0.0
-0.016708 0.018951 0.0
-0.018337 0.018220 0.0
-0.019901 0.017424 0.0
-0.021395 0.016563 0.0
-0.022813 0.015641 0.0
-0.024150 0.014661 0.0
-0.025403 0.013625 0.0
-0.026567 0.012536 0.0
-0.027638 0.011398 0.0
-0.028613 0.010212 0.0
-0.029487 0.008982 0.0
-0.030257 0.007712 0.0
-0.030920 0.006403 0.0
-0.031473 0.005059 0.0
-0.031913 0.003683 0.0
-0.032236 0.002279 0.0
-0.032440 0.000850 0.0
-0.032522 -0.000601 0.0
-0.032480 -0.002069 0.0
-0.032310 -0.003550 0.0
-0.032010 -0.005040 0.0
-0.031579 -0.006532 0.0
-0.031014 -0.008023 0.0
-0.030315 -0.009504 0.0
-0.029480 -0.010971 0.0
-0.028508 -0.012416 0.0
-0.027400 -0.013830 0.0
-0.026157 -0.015207 0.0
-0.024781 -0.016536 0.0
-0.023275 -0.017809 0.0
-0.021642 -0.019016 0.0
-0.019889 -0.020149 0.0
-0.018020 -0.021196 0.0
-0.016046 -0.022148 0.0
-0.013974 -0.022997 0.0
-0.011815 -0.023734 0.0
-0.009581 -0.024349 0.0
-0.007287 -0.024825 0.0
-0.004953 -0.025030 0.0
-0.002653 -0.023965 0.0
-0.000763 -0.016076 0.0
-0.000623 0.014882 0.0
-0.002197 0.022697 0.0
-0.004148 0.023826 0.0
-0.006143 0.023745 0.0
-0.008122 0.023447 0.0
-0.010071 0.023051 0.0
-0.011984 0.022571 0.0
-0.013853 0.022009 0.0
-0.015671 0.021367 0.0
-0.017434 0.020647 0.0
-0.019134 0.019853 0.0
-0.020766 0.018987 0.0
-0.022324 0.018051 0.0
-0.023804 0.017050 0.0
-0.025201 0.015986 0.0
-0.026510 0.014862 0.0
-0.027727 0.013680 0.0
-0.028849 0.012446 0.0
-0.029870 0.011160 0.0
-0.030789 0.009827 0.0
-0.031600 0.008449 0.0
-0.032302 0.007030 0.0
-0.032890 0.005573 0.0
-0.033361 0.004081 0.0
-0.033713 0.002557 0.0
-0.033941 0.001005 0.0
-0.034044 -0.000571 0.0
-0.034018 -0.002168 0.0
-0.033860 -0.003780 0.0
-0.033567 -0.005402 0.0
-0.033137 -0.007030 0.0
-0.032568 -0.008658 0.0
-0.031857 -0.010279 0.0
-0.031003 -0.011886 0.0
-0.030005 -0.013471 0.0
-0.028863 -0.015025 0.0
-0.027577 -0.016541 0.0
-0.026148 -0.018007 0.0
-0.024578 -0.019414 0.0
-0.022873 -0.020750 0.0
-0.021035 -0.022006 0.0
-0.019073 -0.023169 0.0
-0.016995 -0.024228 0.0
-0.014810 -0.025174 0.0
-0.012529 -0.025996 0.0
-0.010165 -0.026683 0.0
-0.007734 -0.027216 0.0
-0.005259 -0.027448 0.0
-0.002818 -0.026287 0.0
-0.000811 -0.017650 0.0
-0.000650 0.016155 0.0
-0.002296 0.024644 0.0
-0.004336 0.025870 0.0
-0.006421 0.025782 0.0
-0.008490 0.025457 0.0
-0.010528 0.025028 0.0
-0.012527 0.024506 0.0
-0.014480 0.023896 0.0
-0.016381 0.023199 0.0
-0.018222 0.022419 0.0
-0.019998 0.021558 0.0
-0.021703 0.020619 0.0
-0.023332 0.019606 0.0
-0.024878 0.018522 0.0
-0.026339 0.017371 0.0
-0.027709 0.016155 0.0
-0.028983 0.014879 0.0
-0.030159 0.013544 0.0
-0.031231 0.012156 0.0
-0.032198 0.010716 0.0
-0.033054 0.009228 0.0
-0.033797 0.007696 0.0
-0.034423 0.006122 0.0
-0.034929 0.004509 0.0
-0.035312 0.002862 0.0
-0.035568 0.001184 0.0
-0.035695 -0.000522 0.0
-0.035688 -0.002251 0.0
-0.035544 -0.003998 0.0
-0.035261 -0.005759 0.0
-0.034835 -0.007529 0.0
-0.034263 -0.009301 0.0
-0.033543 -0.011068 0.0
-0.032671 -0.012822 0.0
-0.031648 -0.014556 0.0
-0.030470 -0.016260 0.0
-0.029139 -0.017924 0.0
-0.027654 -0.019537 0.0
-0.026018 -0.021088 0.0
-0.024234 -0.022565 0.0
-0.022307 -0.023955 0.0
-0.020243 -0.025245 0.0
-0.018051 -0.026423 0.0
-0.015741 -0.027475 0.0
-0.013325 -0.028391 0.0
-0.010818 -0.029159 0.0
-0.008235 -0.029754 0.0
-0.005602 -0.030018 0.0
-0.003004 -0.028756 0.0
-0.000865 -0.019327 0.0
-0.000680 0.017486 0.0
-0.002402 0.026681 0.0
-0.004539 0.028009 0.0
-0.006723 0.027913 0.0
-0.008889 0.027561 0.0
-0.011023 0.027096 0.0
-0.013116 0.026531 0.0
-0.015160 0.025869 0.0
-0.017149 0.025115 0.0
-0.019075 0.024271 0.0
-0.020933 0.023340 0.0
-0.022717 0.022326 0.0
-0.024421 0.021232 0.0
-0.026039 0.020062 0.0
-0.027568 0.018820 0.0
-0.029002 0.017510 0.0
-0.030338 0.016134 0.0
-0.031572 0.014698 0.0
-0.032699 0.013203 0.0
-0.033716 0.011653 0.0
-0.034621 0.010052 0.0
-0.035408 0.008403 0.0
-0.036076 0.006709 0.0
-0.036621 0.004973 0.0
-0.037038 0.003199 0.0
-0.037325 0.001391 0.0
-0.037479 -0.000449 0.0
-0.037494 -0.002315 0.0
-0.037369 -0.004203 0.0
-0.037098 -0.006109 0.0
-0.036678 -0.008026 0.0
-0.036106 -0.009948 0.0
-0.035379 -0.011869 0.0
-0.034492 -0.013779 0.0
-0.033443 -0.015671 0.0
-0.032231 -0.017534 0.0
-0.030854 -0.019358 0.0
-0.029312 -0.021130 0.0
-0.027606 -0.022838 0.0
-0.025739 -0.024467 0.0
-0.023715 -0.026004 0.0
-0.021541 -0.027434 0.0
-0.019225 -0.028742 0.0
-0.016778 -0.029913 0.0
-0.014214 -0.030934 0.0
-0.011546 -0.031791 0.0
-0.008794 -0.032457 0.0
-0.005986 -0.032757 0.0
-0.003211 -0.031390 0.0
-0.000926 -0.021117 0.0
-0.000712 0.018878 0.0
-0.002518 0.028817 0.0
-0.004759 0.030251 0.0
-0.007050 0.030146 0.0
-0.009322 0.029766 0.0
-0.011559 0.029262 0.0
-0.013753 0.028651 0.0
-0.015895 0.027936 0.0
-0.017979 0.027121 0.0
-0.019997 0.026209 0.0
-0.021943 0.025205 0.0
-0.023811 0.024112 0.0
-0.025595 0.022933 0.0
-0.027290 0.021674 0.0
-0.028891 0.020338 0.0
-0.030394 0.018929 0.0
-0.031796 0.017452 0.0
-0.033091 0.015909 0.0
-0.034276 0.014304 0.0
-0.035348 0.012641 0.0
-0.036304 0.010924 0.0
-0.037140 0.009155 0.0
-0.037853 0.007337 0.0
-0.038439 0.005475 0.0
-0.038894 0.003571 0.0
-0.039216 0.001628 0.0
-0.039400 -0.000349 0.0
-0.039442 -0.002357 0.0
-0.039338 -0.004391 0.0
-0.039084 -0.006446 0.0
-0.038674 -0.008517 0.0
-0.038106 -0.010597 0.0
-0.037374 -0.012679 0.0
-0.036474 -0.014755 0.0
-0.035403 -0.016815 0.0
-0.034157 -0.018849 0.0
-0.032734 -0.020844 0.0
-0.031134 -0.022787 0.0
-0.029355 -0.024665 0.0
-0.027400 -0.026461 0.0
-0.025274 -0.028160 0.0
-0.022981 -0.029744 0.0
-0.020530 -0.031197 0.0
-0.017934 -0.032501 0.0
-0.015205 -0.033640 0.0
-0.012360 -0.034597 0.0
-0.009420 -0.035342 0.0
-0.006415 -0.035685 0.0
-0.003444 -0.034207 0.0
-0.000993 -0.023036 0.0
-0.000747 0.020338 0.0
-0.002643 0.031058 0.0
-0.004997 0.032605 0.0
-0.007404 0.032491 0.0
-0.009790 0.032079 0.0
-0.012139 0.031535 0.0
-0.014442 0.030874 0.0
-0.016690 0.030103 0.0
-0.018875 0.029224 0.0
-0.020991 0.028241 0.0
-0.023031 0.027159 0.0
-0.024989 0.025983 0.0
-0.026858 0.024716 0.0
-0.028634 0.023363 0.0
-0.030313 0.021929 0.0
-0.031889 0.020418 0.0
-0.033359 0.018834 0.0
-0.034719 0.017182 0.0
-0.035966 0.015464 0.0
-0.037097 0.013684 0.0
-0.038107 0.011847 0.0
-0.038995 0.009955 0.0
-0.039756 0.008011 0.0
-0.040387 0.006018 0.0
-0.040885 0.003980 0.0
-0.041245 0.001900 0.0
-0.041463 -0.000219 0.0
-0.041536 -0.002372 0.0
-0.041458 -0.004557 0.0
-0.041224 -0.006768 0.0
-0.040830 -0.008999 0.0
-0.040269 -0.011244 0.0
-0.039537 -0.013496 0.0
-0.038628 -0.015747 0.0
-0.037537 -0.017985 0.0
-0.036260 -0.020201 0.0
-0.034793 -0.022381 0.0
-0.033133 -0.024510 0.0
-0.031280 -0.026574 0.0
-0.029234 -0.028553 0.0
-0.026998 -0.030431 0.0
-0.024578 -0.032187 0.0
-0.021982 -0.033801 0.0
-0.019222 -0.035254 0.0
-0.016312 -0.036526 0.0
-0.013271 -0.037597 0.0
-0.010121 -0.038433 0.0
-0.006897 -0.038824 0.0
-0.003706 -0.037231 0.0
-0.001070 -0.025100 0.0
-0.000785 0.021871 0.0
-0.002778 0.033414 0.0
-0.005254 0.035079 0.0
-0.007786 0.034955 0.0
-0.010296 0.034510 0.0
-0.012765 0.033922 0.0
-0.015185 0.033209 0.0
-0.017546 0.032377 0.0
-0.019841 0.031430 0.0
-0.022062 0.030372 0.0
-0.024202 0.029208 0.0
-0.026254 0.027944 0.0
-0.028214 0.026584 0.0
-0.030077 0.025133 0.0
-0.031836 0.023597 0.0
-0.033489 0.021980 0.0
-0.035032 0.020286 0.0
-0.036461 0.018520 0.0
-0.037773 0.016685 0.0
-0.038965 0.014786 0.0
-0.040034 0.012825 0.0
-0.040976 0.010806 0.0
-0.041789 0.008733 0.0
-0.042469 0.006607 0.0
-0.043012 0.004432 0.0
-0.043415 0.002211 0.0
-0.043673 -0.000053 0.0
-0.043780 -0.002357 0.0
-0.043733 -0.004697 0.0
-0.043525 -0.007069 0.0
-0.043151 -0.009467 0.0
-0.042603 -0.011885 0.0
-0.041876 -0.014315 0.0
-0.040963 -0.016750 0.0
-0.039857 -0.019179 0.0
-0.038552 -0.021589 0.0
-0.037044 -0.023968 0.0
-0.035326 -0.026300 0.0
-0.033398 -0.028566 0.0
-0.031258 -0.030747 0.0
-0.028907 -0.032823 0.0
-0.026351 -0.034771 0.0
-0.023598 -0.036567 0.0
-0.020659 -0.038188 0.0
-0.017550 -0.039611 0.0
-0.014291 -0.040812 0.0
-0.010908 -0.041751 0.0
-0.007439 -0.042200 0.0
-0.004000 -0.040485 0.0
-0.001156 -0.027325 0.0
-0.000826 0.023481 0.0
-0.002924 0.035895 0.0
-0.005533 0.037684 0.0
-0.008199 0.037549 0.0
-0.010842 0.037068 0.0
-0.013441 0.036433 0.0
-0.015986 0.035664 0.0
-0.018469 0.034767 0.0
-0.020881 0.033747 0.0
-0.023213 0.032608 0.0
-0.025459 0.031358 0.0
-0.027613 0.030001 0.0
-0.029669 0.028543 0.0
-0.031621 0.026989 0.0
-0.033466 0.025346 0.0
-0.035200 0.023618 0.0
-0.036819 0.021809 0.0
-0.038320 0.019926 0.0
-0.039700 0.017971 0.0
-0.040957 0.015948 0.0
-0.042087 0.013861 0.0
-0.043087 0.011713 0.0
-0.043955 0.009507 0.0
-0.044688 0.007245 0.0
-0.045281 0.004930 0.0
-0.045730 0.002565 0.0
-0.046032 0.000152 0.0
-0.046180 -0.002306 0.0
-0.046169 -0.004806 0.0
-0.045993 -0.007344 0.0
-0.045645 -0.009914 0.0
-0.045117 -0.012512 0.0
-0.044402 -0.015130 0.0
-0.043491 -0.017760 0.0
-0.042376 -0.020390 0.0
-0.041049 -0.023010 0.0
-0.039503 -0.025603 0.0
-0.037731 -0.028154 0.0
-0.035728 -0.030643 0.0
-0.033492 -0.033047 0.0
-0.031022 -0.035344 0.0
-0.028322 -0.037506 0.0
-0.025399 -0.039508 0.0
-0.022265 -0.041320 0.0
-0.018938 -0.042915 0.0
-0.015438 -0.044265 0.0
-0.011794 -0.045325 0.0
-0.008049 -0.045841 0.0
-0.004332 -0.043999 0.0
-0.001253 -0.029734 0.0
-0.000869 0.025176 0.0
-0.003081 0.038510 0.0
-0.005833 0.040430 0.0
-0.008646 0.040282 0.0
-0.011431 0.039762 0.0
-0.014170 0.039077 0.0
-0.016851 0.038247 0.0
-0.019464 0.037280 0.0
-0.022000 0.036181 0.0
-0.024451 0.034957 0.0
-0.026809 0.033614 0.0
-0.029070 0.032158 0.0
-0.031226 0.030597 0.0
-0.033273 0.028935 0.0
-0.035208 0.027179 0.0
-0.037026 0.025336 0.0
-0.038724 0.023409 0.0
-0.040300 0.021404 0.0
-0.041751 0.019324 0.0
-0.043075 0.017175 0.0
-0.044269 0.014959 0.0
-0.045331 0.012678 0.0
-0.046257 0.010337 0.0
-0.047046 0.007936 0.0
-0.047693 0.005479 0.0
-0.048194 0.002967 0.0
-0.048544 0.000402 0.0
-0.048739 -0.002214 0.0
-0.048771 -0.004878 0.0
-0.048633 -0.007586 0.0
-0.048319 -0.010335 0.0
-0.047819 -0.013120 0.0
-0.047124 -0.015933 0.0
-0.046223 -0.018768 0.0
-0.045107 -0.021613 0.0
-0.043766 -0.024456 0.0
-0.042188 -0.027281 0.0
-0.040366 -0.030071 0.0
-0.038291 -0.032804 0.0
-0.035959 -0.035455 0.0
-0.033366 -0.037998 0.0
-0.030515 -0.040403 0.0
-0.027411 -0.042637 0.0
-0.024066 -0.044668 0.0
-0.020498 -0.046462 0.0
-0.016731 -0.047986 0.0
-0.012795 -0.049184 0.0
-0.008740 -0.049782 0.0
-0.004708 -0.047807 0.0
-0.001363 -0.032351 0.0
-0.000917 0.026962 0.0
-0.003251 0.041270 0.0
-0.006158 0.043329 0.0
-0.009128 0.043166 0.0
-0.012069 0.042604 0.0
-0.014958 0.041863 0.0
-0.017783 0.040967 0.0
-0.020535 0.039924 0.0
-0.023204 0.038741 0.0
-0.025780 0.037425 0.0
-0.028258 0.035983 0.0
-0.030630 0.034422 0.0
-0.032892 0.032751 0.0
-0.035038 0.030975 0.0
-0.037066 0.029101 0.0
-0.038971 0.027137 0.0
-0.040751 0.025086 0.0
-0.042405 0.022955 0.0
-0.043929 0.020748 0.0
-0.045322 0.018468 0.0
-0.046583 0.016120 0.0
-0.047709 0.013705 0.0
-0.048697 0.011226 0.0
-0.049546 0.008684 0.0
-0.050250 0.006083 0.0
-0.050808 0.003421 0.0
-0.051213 0.000702 0.0
-0.051459 -0.002073 0.0
-0.051541 -0.004904 0.0
-0.051451 -0.007787 0.0
-0.051179 -0.010720 0.0
-0.050716 -0.013698 0.0
-0.050050 -0.016716 0.0
-0.049171 -0.019765 0.0
-0.048064 -0.022837 0.0
-0.046718 -0.025919 0.0
-0.045118 -0.028994 0.0
-0.043254 -0.032044 0.0
-0.041113 -0.035046 0.0
-0.038686 -0.037972 0.0
-0.035969 -0.040792 0.0
-0.032960 -0.043470 0.0
-0.029664 -0.045971 0.0
-0.026090 -0.048253 0.0
-0.022258 -0.050278 0.0
-0.018193 -0.052003 0.0
-0.013930 -0.053365 0.0
-0.009525 -0.054060 0.0
-0.005137 -0.051948 0.0
-0.001489 -0.035203 0.0
-0.000968 0.028847 0.0
-0.003435 0.044188 0.0
-0.006510 0.046392 0.0
-0.009651 0.046213 0.0
-0.012758 0.045604 0.0
-0.015808 0.044802 0.0
-0.018789 0.043834 0.0
-0.021690 0.042709 0.0
-0.024499 0.041434 0.0
-0.027209 0.040018 0.0
-0.029812 0.038470 0.0
-0.032302 0.036797 0.0
-0.034673 0.035009 0.0
-0.036922 0.033112 0.0
-0.039046 0.031115 0.0
-0.041041 0.029024 0.0
-0.042905 0.026845 0.0
-0.044638 0.024583 0.0
-0.046238 0.022244 0.0
-0.047703 0.019831 0.0
-0.049032 0.017347 0.0
-0.050225 0.014795 0.0
-0.051278 0.012177 0.0
-0.052189 0.009493 0.0
-0.052956 0.006745 0.0
-0.053574 0.003934 0.0
-0.054039 0.001060 0.0
-0.054345 -0.001878 0.0
-0.054484 -0.004878 0.0
-0.054449 -0.007939 0.0
-0.054230 -0.011060 0.0