# vtk DataFile Version 3.0
Scalar Field
ASCII
DATASET RECTILINEAR_GRID
DIMENSIONS 50 50 1
X_COORDINATES 50 double
0.100000 0.300000 0.500000 0.700000 0.900000 1.100000 1.300000 1.500000 1.700000 1.900000 2.100000 2.300000 2.500000 2.700000 2.900000 3.100000 3.300000 3.500000 3.700000 3.900000 4.100000 4.300000 4.500000 4.700000 4.900000 5.100000 5.300000 5.500000 5.700000 5.900000 6.100000 6.300000 6.500000 6.700000 6.900000 7.100000 7.300000 7.500000 7.700000 7.900000 8.100000 8.300000 8.500000 8.700000 8.900000 9.100000 9.300000 9.500000 9.700000 9.900000 
Y_COORDINATES 50 double
0.100000 0.300000 0.500000 0.700000 0.900000 1.100000 1.300000 1.500000 1.700000 1.900000 2.100000 2.300000 2.500000 2.700000 2.900000 3.100000 3.300000 3.500000 3.700000 3.900000 4.100000 4.300000 4.500000 4.700000 4.900000 5.100000 5.300000 5.500000 5.700000 5.900000 6.100000 6.300000 6.500000 6.700000 6.900000 7.100000 7.300000 7.500000 7.700000 7.900000 8.100000 8.300000 8.500000 8.700000 8.900000 9.100000 9.300000 9.500000 9.700000 9.900000 
Z_COORDINATES 1 double
0.0
POINT_DATA 2500
SCALARS Skalarfeld double 1
LOOKUP_TABLE default
-0.024823
-0.024911
-0.025025
-0.025115
-0.025152
-0.025123
-0.025024
-0.024855
-0.024617
-0.024315
-0.023949
-0.023524
-0.023041
-0.022504
-0.021916
-0.021280
-0.020599
-0.019876
-0.019116
-0.018322
-0.017499
-0.016650
-0.015781
-0.014895
-0.013997
-0.013093
-0.012188
-0.011285
-0.010392
-0.009511
-0.008650
-0.007813
-0.007004
-0.006229
-0.005493
-0.004800
-0.004155
-0.003562
-0.003026
-0.002550
-0.002138
-0.001794
-0.001522
-0.001324
-0.001204
-0.001161
-0.001190
-0.001278
-0.001393
-0.001484
-0.024736
-0.024824
-0.024912
-0.024973
-0.024987
-0.024945
-0.024839
-0.024668
-0.024433
-0.024135
-0.023776
-0.023358
-0.022885
-0.022357
-0.021779
-0.021154
-0.020484
-0.019773
-0.019025
-0.018244
-0.017434
-0.016598
-0.015742
-0.014870
-0.013987
-0.013097
-0.012205
-0.011317
-0.010437
-0.009571
-0.008724
-0.007899
-0.007104
-0.006342
-0.005618
-0.004937
-0.004303
-0.003720
-0.003193
-0.002726
-0.002322
-0.001983
-0.001714
-0.001515
-0.001389
-0.001331
-0.001338
-0.001395
-0.001483
-0.001574
-0.024621
-0.024736
-0.024825
-0.024877
-0.024881
-0.024830
-0.024719
-0.024547
-0.024313
-0.024017
-0.023663
-0.023250
-0.022782
-0.022261
-0.021690
-0.021072
-0.020410
-0.019708
-0.018968
-0.018196
-0.017394
-0.016567
-0.015720
-0.014857
-0.013983
-0.013102
-0.012220
-0.011341
-0.010470
-0.009613
-0.008774
-0.007958
-0.007171
-0.006417
-0.005700
-0.005027
-0.004400
-0.003824
-0.003303
-0.002840
-0.002440
-0.002105
-0.001836
-0.001636
-0.001504
-0.001439
-0.001434
-0.001482
-0.001572
-0.001690
-0.024529
-0.024676
-0.024776
-0.024829
-0.024831
-0.024776
-0.024663
-0.024489
-0.024255
-0.023961
-0.023608
-0.023199
-0.022734
-0.022217
-0.021650
-0.021036
-0.020378
-0.019680
-0.018945
-0.018177
-0.017380
-0.016558
-0.015715
-0.014857
-0.013987
-0.013110
-0.012232
-0.011357
-0.010491
-0.009637
-0.008802
-0.007990
-0.007206
-0.006455
-0.005742
-0.005071
-0.004447
-0.003874
-0.003355
-0.002895
-0.002496
-0.002161
-0.001892
-0.001690
-0.001555
-0.001486
-0.001479
-0.001529
-0.001631
-0.001781
-0.024488
-0.024661
-0.024776
-0.024835
-0.024838
-0.024783
-0.024668
-0.024494
-0.024259
-0.023965
-0.023613
-0.023204
-0.022740
-0.022224
-0.021658
-0.021045
-0.020388
-0.019690
-0.018956
-0.018188
-0.017391
-0.016570
-0.015727
-0.014868
-0.013998
-0.013121
-0.012242
-0.011367
-0.010499
-0.009644
-0.008808
-0.007995
-0.007210
-0.006458
-0.005743
-0.005071
-0.004446
-0.003871
-0.003352
-0.002890
-0.002490
-0.002154
-0.001883
-0.001680
-0.001543
-0.001473
-0.001468
-0.001524
-0.001641
-0.001818
-0.024513
-0.024705
-0.024833
-0.024900
-0.024906
-0.024852
-0.024737
-0.024562
-0.024326
-0.024031
-0.023678
-0.023267
-0.022802
-0.022284
-0.021715
-0.021100
-0.020440
-0.019740
-0.019002
-0.018230
-0.017429
-0.016603
-0.015756
-0.014892
-0.014017
-0.013135
-0.012250
-0.011369
-0.010495
-0.009635
-0.008792
-0.007973
-0.007182
-0.006424
-0.005704
-0.005027
-0.004396
-0.003817
-0.003293
-0.002827
-0.002423
-0.002084
-0.001811
-0.001605
-0.001468
-0.001399
-0.001397
-0.001461
-0.001591
-0.001788
-0.024607
-0.024814
-0.024953
-0.025027
-0.025037
-0.024985
-0.024870
-0.024694
-0.024457
-0.024159
-0.023802
-0.023388
-0.022919
-0.022396
-0.021823
-0.021201
-0.020535
-0.019828
-0.019083
-0.018303
-0.017494
-0.016659
-0.015803
-0.014929
-0.014044
-0.013151
-0.012256
-0.011364
-0.010480
-0.009608
-0.008755
-0.007925
-0.007123
-0.006355
-0.005625
-0.004938
-0.004299
-0.003711
-0.003179
-0.002706
-0.002296
-0.001952
-0.001675
-0.001466
-0.001328
-0.001260
-0.001262
-0.001334
-0.001475
-0.001687
-0.024775
-0.024992
-0.025140
-0.025220
-0.025234
-0.025184
-0.025069
-0.024891
-0.024651
-0.024349
-0.023988
-0.023568
-0.023092
-0.022562
-0.021980
-0.021350
-0.020674
-0.019956
-0.019199
-0.018408
-0.017586
-0.016737
-0.015867
-0.014979
-0.014079
-0.013171
-0.012261
-0.011353
-0.010452
-0.009565
-0.008696
-0.007850
-0.007033
-0.006250
-0.005505
-0.004805
-0.004152
-0.003552
-0.003009
-0.002527
-0.002108
-0.001756
-0.001474
-0.001262
-0.001122
-0.001055
-0.001060
-0.001139
-0.001289
-0.001512
-0.025014
-0.025241
-0.025396
-0.025482
-0.025500
-0.025450
-0.025335
-0.025155
-0.024911
-0.024604
-0.024236
-0.023808
-0.023323
-0.022782
-0.022189
-0.021546
-0.020857
-0.020124
-0.019352
-0.018544
-0.017705
-0.016839
-0.015950
-0.015043
-0.014123
-0.013195
-0.012264
-0.011335
-0.010413
-0.009505
-0.008615
-0.007748
-0.006911
-0.006108
-0.005345
-0.004626
-0.003956
-0.003340
-0.002783
-0.002288
-0.001858
-0.001497
-0.001207
-0.000990
-0.000848
-0.000781
-0.000789
-0.000873
-0.001032
-0.001265
-0.025327
-0.025562
-0.025725
-0.025816
-0.025836
-0.025787
-0.025671
-0.025487
-0.025238
-0.024924
-0.024547
-0.024109
-0.023612
-0.023058
-0.022451
-0.021792
-0.021085
-0.020334
-0.019543
-0.018714
-0.017853
-0.016965
-0.016052
-0.015121
-0.014176
-0.013222
-0.012265
-0.011310
-0.010363
-0.009428
-0.008512
-0.007620
-0.006757
-0.005929
-0.005142
-0.004401
-0.003710
-0.003074
-0.002499
-0.001987
-0.001543
-0.001171
-0.000872
-0.000648
-0.000502
-0.000435
-0.000446
-0.000535
-0.000701
-0.000943
-0.025714
-0.025958
-0.026127
-0.026223
-0.026246
-0.026197
-0.026079
-0.025890
-0.025634
-0.025312
-0.024924
-0.024474
-0.023962
-0.023392
-0.022767
-0.022089
-0.021361
-0.020588
-0.019772
-0.018919
-0.018032
-0.017115
-0.016175
-0.015214
-0.014239
-0.013255
-0.012267
-0.011280
-0.010301
-0.009335
-0.008387
-0.007464
-0.006571
-0.005713
-0.004898
-0.004129
-0.003412
-0.002753
-0.002155
-0.001624
-0.001163
-0.000776
-0.000466
-0.000235
-0.000084
-0.000015
-0.000028
-0.000122
-0.000296
-0.000548
-0.026175
-0.026429
-0.026606
-0.026706
-0.026732
-0.026683
-0.026561
-0.026367
-0.026103
-0.025770
-0.025369
-0.024904
-0.024375
-0.023786
-0.023139
-0.022438
-0.021685
-0.020886
-0.020042
-0.019159
-0.018241
-0.017292
-0.016318
-0.015324
-0.014313
-0.013293
-0.012268
-0.011245
-0.010228
-0.009225
-0.008240
-0.007280
-0.006351
-0.005459
-0.004610
-0.003809
-0.003062
-0.002374
-0.001751
-0.001196
-0.000715
-0.000311
0.000012
0.000254
0.000410
0.000482
0.000467
0.000369
0.000187
-0.000076
-0.026714
-0.026979
-0.027164
-0.027269
-0.027296
-0.027247
-0.027121
-0.026920
-0.026646
-0.026301
-0.025885
-0.025402
-0.024853
-0.024242
-0.023570
-0.022842
-0.022061
-0.021230
-0.020354
-0.019437
-0.018483
-0.017498
-0.016485
-0.015451
-0.014400
-0.013338
-0.012271
-0.011205
-0.010146
-0.009099
-0.008072
-0.007069
-0.006099
-0.005166
-0.004278
-0.003439
-0.002657
-0.001936
-0.001283
-0.000701
-0.000197
0.000227
0.000567
0.000820
0.000984
0.001059
0.001044
0.000940
0.000749
0.000474
-0.027333
-0.027610
-0.027804
-0.027915
-0.027944
-0.027892
-0.027761
-0.027553
-0.027267
-0.026907
-0.026475
-0.025971
-0.025399
-0.024762
-0.024063
-0.023304
-0.022490
-0.021624
-0.020711
-0.019755
-0.018761
-0.017733
-0.016676
-0.015597
-0.014500
-0.013391
-0.012276
-0.011161
-0.010053
-0.008957
-0.007881
-0.006831
-0.005813
-0.004834
-0.003900
-0.003019
-0.002196
-0.001437
-0.000749
-0.000136
0.000396
0.000843
0.001201
0.001468
0.001641
0.001720
0.001704
0.001595
0.001394
0.001105
-0.028036
-0.028326
-0.028530
-0.028646
-0.028677
-0.028623
-0.028487
-0.028269
-0.027970
-0.027594
-0.027141
-0.026615
-0.026017
-0.025351
-0.024619
-0.023826
-0.022975
-0.022070
-0.021115
-0.020115
-0.019075
-0.018000
-0.016894
-0.015764
-0.014615
-0.013453
-0.012284
-0.011115
-0.009951
-0.008801
-0.007669
-0.006564
-0.005492
-0.004461
-0.003476
-0.002546
-0.001677
-0.000875
-0.000146
0.000502
0.001066
0.001539
0.001919
0.002202
0.002386
0.002470
0.002454
0.002339
0.002127
0.001822
-0.028826
-0.029132
-0.029346
-0.029468
-0.029501
-0.029445
-0.029301
-0.029072
-0.028759
-0.028364
-0.027889
-0.027337
-0.026710
-0.026011
-0.025244
-0.024412
-0.023520
-0.022570
-0.021569
-0.020521
-0.019429
-0.018301
-0.017141
-0.015954
-0.014747
-0.013526
-0.012297
-0.011066
-0.009842
-0.008629
-0.007436
-0.006270
-0.005137
-0.004047
-0.003005
-0.002019
-0.001097
-0.000246
0.000527
0.001217
0.001816
0.002321
0.002726
0.003027
0.003224
0.003313
0.003297
0.003176
0.002952
0.002630
-0.029707
-0.030030
-0.030256
-0.030386
-0.030420
-0.030361
-0.030210
-0.029968
-0.029639
-0.029223
-0.028723
-0.028141
-0.027482
-0.026747
-0.025940
-0.025065
-0.024127
-0.023129
-0.022076
-0.020974
-0.019826
-0.018639
-0.017418
-0.016169
-0.014898
-0.013612
-0.012316
-0.011018
-0.009725
-0.008444
-0.007182
-0.005947
-0.004748
-0.003591
-0.002484
-0.001437
-0.000455
0.000451
0.001276
0.002012
0.002652
0.003192
0.003625
0.003948
0.004159
0.004256
0.004239
0.004111
0.003874
0.003532
-0.030686
-0.031028
-0.031267
-0.031404
-0.031441
-0.031378
-0.031218
-0.030962
-0.030614
-0.030175
-0.029647
-0.029033
-0.028337
-0.027562
-0.026712
-0.025790
-0.024801
-0.023749
-0.022640
-0.021478
-0.020268
-0.019017
-0.017730
-0.016412
-0.015071
-0.013713
-0.012344
-0.010971
-0.009603
-0.008246
-0.006908
-0.005598
-0.004323
-0.003092
-0.001914
-0.000796
0.000251
0.001220
0.002103
0.002892
0.003578
0.004157
0.004623
0.004971
0.005198
0.005303
0.005287
0.005152
0.004900
0.004535
-0.031768
-0.032131
-0.032385
-0.032530
-0.032568
-0.032501
-0.032331
-0.032060
-0.031691
-0.031225
-0.030667
-0.030018
-0.029282
-0.028462
-0.027564
-0.026590
-0.025545
-0.024435
-0.023263
-0.022036
-0.020759
-0.019438
-0.018078
-0.016686
-0.015268
-0.013831
-0.012382
-0.010928
-0.009477
-0.008036
-0.006615
-0.005221
-0.003863
-0.002550
-0.001292
-0.000097
0.001025
0.002064
0.003012
0.003860
0.004600
0.005224
0.005726
0.006102
0.006348
0.006463
0.006448
0.006304
0.006035
0.005647
-0.032960
-0.033346
-0.033616
-0.033769
-0.033809
-0.033738
-0.033556
-0.033268
-0.032876
-0.032382
-0.031789
-0.031101
-0.030320
-0.029453
-0.028501
-0.027470
-0.026365
-0.025190
-0.023951
-0.022654
-0.021303
-0.019905
-0.018467
-0.016993
-0.015492
-0.013969
-0.012433
-0.010890
-0.009349
-0.007817
-0.006304
-0.004818
-0.003368
-0.001965
-0.000617
0.000664
0.001869
0.002987
0.004008
0.004923
0.005722
0.006397
0.006942
0.007350
0.007618
0.007744
0.007730
0.007577
0.007289
0.006873
-0.034268
-0.034680
-0.034967
-0.035131
-0.035173
-0.035095
-0.034902
-0.034594
-0.034176
-0.033650
-0.033019
-0.032288
-0.031460
-0.030538
-0.029529
-0.028436
-0.027265
-0.026020
-0.024708
-0.023334
-0.021904
-0.020423
-0.018899
-0.017338
-0.015746
-0.014131
-0.012500
-0.010860
-0.009221
-0.007590
-0.005977
-0.004390
-0.002840
-0.001336
0.000110
0.001487
0.002785
0.003991
0.005095
0.006085
0.006951
0.007685
0.008277
0.008722
0.009015
0.009154
0.009141
0.008978
0.008670
0.008222
-0.035700
-0.036141
-0.036448
-0.036622
-0.036666
-0.036583
-0.036375
-0.036046
-0.035599
-0.035038
-0.034366
-0.033587
-0.032705
-0.031726
-0.030654
-0.029493
-0.028250
-0.026930
-0.025538
-0.024081
-0.022565
-0.020996
-0.019380
-0.017724
-0.016035
-0.014320
-0.012586
-0.010843
-0.009097
-0.007358
-0.005635
-0.003938
-0.002278
-0.000664
0.000890
0.002374
0.003775
0.005080
0.006276
0.007352
0.008295
0.009094
0.009741
0.010227
0.010549
0.010704
0.010693
0.010519
0.010187
0.009705
-0.037266
-0.037739
-0.038068
-0.038254
-0.038300
-0.038210
-0.037986
-0.037633
-0.037154
-0.036554
-0.035836
-0.035005
-0.034065
-0.033022
-0.031881
-0.030647
-0.029326
-0.027924
-0.026447
-0.024901
-0.023292
-0.021627
-0.019913
-0.018155
-0.016362
-0.014539
-0.012696
-0.010840
-0.008980
-0.007124
-0.005283
-0.003466
-0.001685
0.000050
0.001724
0.003326
0.004842
0.006257
0.007558
0.008729
0.009759
0.010634
0.011343
0.011878
0.012233
0.012405
0.012396
0.012210
0.011852
0.011331
-0.038976
-0.039484
-0.039837
-0.040037
-0.040085
-0.039986
-0.039745
-0.039365
-0.038851
-0.038207
-0.037439
-0.036550
-0.035547
-0.034434
-0.033218
-0.031905
-0.030500
-0.029009
-0.027440
-0.025798
-0.024090
-0.022323
-0.020503
-0.018636
-0.016731
-0.014794
-0.012833
-0.010857
-0.008873
-0.006892
-0.004922
-0.002976
-0.001063
0.000804
0.002611
0.004343
0.005987
0.007526
0.008943
0.010224
0.011352
0.012313
0.013093
0.013684
0.014077
0.014271
0.014265
0.014064
0.013677
0.013111
-0.040841
-0.041389
-0.041769
-0.041983
-0.042033
-0.041925
-0.041663
-0.041253
-0.040700
-0.040008
-0.039184
-0.038232
-0.037159
-0.035970
-0.034673
-0.033272
-0.031776
-0.030191
-0.028522
-0.026778
-0.024964
-0.023087
-0.021154
-0.019172
-0.017148
-0.015090
-0.013003
-0.010898
-0.008783
-0.006666
-0.004559
-0.002471
-0.000415
0.001596
0.003548
0.005425
0.007211
0.008888
0.010438
0.011842
0.013082
0.014142
0.015005
0.015659
0.016097
0.016315
0.016313
0.016097
0.015676
0.015060
-0.042873
-0.043466
-0.043877
-0.044106
-0.044159
-0.044040
-0.043755
-0.043311
-0.042713
-0.041968
-0.041081
-0.040059
-0.038909
-0.037638
-0.036251
-0.034757
-0.033163
-0.031475
-0.029700
-0.027846
-0.025918
-0.023925
-0.021873
-0.019769
-0.017619
-0.015430
-0.013211
-0.010969
-0.008713
-0.006452
-0.004197
-0.001957
0.000254
0.002422
0.004533
0.006570
0.008514
0.010346
0.012045
0.013589
0.014958
0.016131
0.017089
0.017819
0.018309
0.018555
0.018558
0.018325
0.017865
0.017192
-0.045087
-0.045731
-0.046176
-0.046423
-0.046477
-0.046345
-0.046034
-0.045551
-0.044903
-0.044098
-0.043142
-0.042043
-0.040809
-0.039446
-0.037963
-0.036367
-0.034666
-0.032867
-0.030979
-0.029007
-0.026960
-0.024843
-0.022664
-0.020430
-0.018147
-0.015822
-0.013462
-0.011076
-0.008671
-0.006257
-0.003843
-0.001441
0.000938
0.003277
0.005562
0.007775
0.009895
0.011900
0.013768
0.015472
0.016988
0.018292
0.019362
0.020179
0.020731
0.021011
0.021020
0.020767
0.020263
0.019523
-0.047500
-0.048201
-0.048684
-0.048951
-0.049007
-0.048859
-0.048518
-0.047990
-0.047286
-0.046413
-0.045380
-0.044195
-0.042867
-0.041404
-0.039815
-0.038108
-0.036292
-0.034375
-0.032365
-0.030268
-0.028093
-0.025846
-0.023534
-0.021163
-0.018740
-0.016272
-0.013764
-0.011225
-0.008664
-0.006087
-0.003505
-0.000929
0.001629
0.004154
0.006629
0.009035
0.011350
0.013550
0.015608
0.017495
0.019181
0.020638
0.021837
0.022758
0.023383
0.023704
0.023722
0.023445
0.022890
0.022073
-0.050129
-0.050896
-0.051423
-0.051711
-0.051768
-0.051602
-0.051225
-0.050646
-0.049877
-0.048928
-0.047807
-0.046526
-0.045094
-0.043521
-0.041816
-0.039989
-0.038049
-0.036005
-0.033864
-0.031634
-0.029324
-0.026939
-0.024486
-0.021972
-0.019403
-0.016785
-0.014123
-0.011425
-0.008699
-0.005951
-0.003192
-0.000431
0.002319
0.005044
0.007725
0.010344
0.012875
0.015293
0.017566
0.019662
0.021545
0.023180
0.024534
0.025577
0.026290
0.026661
0.026690
0.026387
0.025770
0.024864
-0.052996
-0.053840
-0.054417
-0.054729
-0.054785
-0.054597
-0.054177
-0.053539
-0.052695
-0.051658
-0.050439
-0.049051
-0.047503
-0.045808
-0.043976
-0.042018
-0.039943
-0.037761
-0.035481
-0.033110
-0.030656
-0.028127
-0.025527
-0.022864
-0.020143
-0.017368
-0.014547
-0.011684
-0.008786
-0.005860
-0.002914
0.000041
0.002996
0.005934
0.008839
0.011689
0.014460
0.017122
0.019640
0.021975
0.024087
0.025932
0.027468
0.028660
0.029480
0.029912
0.029955
0.029621
0.028933
0.027919
-0.056127
-0.057059
-0.057693
-0.058033
-0.058087
-0.057870
-0.057400
-0.056691
-0.055761
-0.054623
-0.053292
-0.051782
-0.050105
-0.048275
-0.046303
-0.044201
-0.041981
-0.039651
-0.037222
-0.034701
-0.032096
-0.029414
-0.026662
-0.023843
-0.020964
-0.018029
-0.015043
-0.012009
-0.008934
-0.005824
-0.002685
0.000475
0.003645
0.006810
0.009956
0.013059
0.016093
0.019027
0.021822
0.024433
0.026811
0.028904
0.030660
0.032032
0.032984
0.033493
0.033556
0.033186
0.032412
0.031269
-0.059550
-0.060587
-0.061288
-0.061656
-0.061706
-0.061454
-0.060922
-0.060129
-0.059097
-0.057842
-0.056383
-0.054734
-0.052912
-0.050931
-0.048805
-0.046546
-0.044167
-0.041679
-0.039090
-0.036410
-0.033647
-0.030806
-0.027894
-0.024915
-0.021874
-0.018774
-0.015618
-0.012411
-0.009155
-0.005855
-0.002517
0.000854
0.004249
0.007655
0.011056
0.014432
0.017755
0.020992
0.024100
0.027028
0.029719
0.032107
0.034129
0.035723
0.036840
0.037448
0.037539
0.037127
0.036247
0.034946
-0.063301
-0.064462
-0.065241
-0.065642
-0.065682
-0.065385
-0.064776
-0.063883
-0.062730
-0.061338
-0.059730
-0.057924
-0.055937
-0.053787
-0.051490
-0.049059
-0.046508
-0.043848
-0.041089
-0.038241
-0.035310
-0.032303
-0.029226
-0.026082
-0.022875
-0.019608
-0.016281
-0.012897
-0.009459
-0.005967
-0.002425
0.001162
0.004788
0.008444
0.012116
0.015784
0.019421
0.022993
0.026454
0.029747
0.032803
0.035546
0.037893
0.039763
0.041090
0.041828
0.041960
0.041499
0.040489
0.038990
-0.067423
-0.068732
-0.069603
-0.070040
-0.070064
-0.069707
-0.069003
-0.067986
-0.066688
-0.065136
-0.063354
-0.061366
-0.059193
-0.056854
-0.054366
-0.051745
-0.049006
-0.046161
-0.043221
-0.040194
-0.037088
-0.033909
-0.030661
-0.027349
-0.023973
-0.020536
-0.017038
-0.013478
-0.009856
-0.006172
-0.002427
0.001378
0.005240
0.009153
0.013106
0.017082
0.021058
0.024997
0.028853
0.032564
0.036049
0.039217
0.041964
0.044184
0.045785
0.046697
0.046891
0.046376
0.045202
0.043449
-0.071967
-0.073459
-0.074439
-0.074913
-0.074910
-0.074473
-0.073648
-0.072479
-0.071005
-0.069260
-0.067276
-0.065078
-0.062691
-0.060138
-0.057438
-0.054608
-0.051664
-0.048619
-0.045484
-0.042268
-0.038979
-0.035621
-0.032199
-0.028715
-0.025170
-0.021563
-0.017894
-0.014160
-0.010358
-0.006486
-0.002540
0.001481
0.005579
0.009750
0.013991
0.018287
0.022620
0.026958
0.031252
0.035437
0.039425
0.043105
0.046347
0.049015
0.050978
0.052133
0.052424
0.051851
0.050472
0.048388
-0.077001
-0.078719
-0.079829
-0.080339
-0.080292
-0.079747
-0.078766
-0.077406
-0.075717
-0.073742
-0.071517
-0.069075
-0.066444
-0.063648
-0.060710
-0.057649
-0.054481
-0.051220
-0.047877
-0.044462
-0.040981
-0.037438
-0.033837
-0.030179
-0.026464
-0.022690
-0.018854
-0.014950
-0.010974
-0.006920
-0.002780
0.001450
0.005776
0.010202
0.014729
0.019351
0.024055
0.028814
0.033587
0.038306
0.042876
0.047170
0.051030
0.054277
0.056728
0.058229
0.058679
0.058055
0.056417
0.053893
-0.082611
-0.084613
-0.085877
-0.086419
-0.086301
-0.085607
-0.084421
-0.082820
-0.080865
-0.078611
-0.076101
-0.073373
-0.070459
-0.067387
-0.064183
-0.060865
-0.057452
-0.053958
-0.050393
-0.046767
-0.043086
-0.039353
-0.035571
-0.031738
-0.027855
-0.023916
-0.019918
-0.015852
-0.011711
-0.007485
-0.003165
0.001261
0.005804
0.010472
0.015275
0.020217
0.025293
0.030489
0.035771
0.041079
0.046316
0.051342
0.055970
0.059969
0.063088
0.065093
0.065810
0.065167
0.063209
0.060093
-0.088916
-0.091279
-0.092723
-0.093281
-0.093049
-0.092146
-0.090689
-0.088777
-0.086492
-0.083897
-0.081046
-0.077982
-0.074742
-0.071356
-0.067852
-0.064250
-0.060569
-0.056822
-0.053021
-0.049174
-0.045285
-0.041357
-0.037390
-0.033384
-0.029334
-0.025237
-0.021084
-0.016866
-0.012572
-0.008190
-0.003704
0.000899
0.005637
0.010526
0.015584
0.020826
0.026261
0.031890
0.037696
0.043634
0.049618
0.055503
0.061077
0.066054
0.070095
0.072848
0.074018
0.073434
0.071099
0.067190
-0.096081
-0.098906
-0.100555
-0.101095
-0.100677
-0.099476
-0.097654
-0.095342
-0.092641
-0.089629
-0.086369
-0.082909
-0.079291
-0.075547
-0.071705
-0.067789
-0.063815
-0.059797
-0.055744
-0.051664
-0.047560
-0.043433
-0.039281
-0.035103
-0.030891
-0.026641
-0.022343
-0.017986
-0.013555
-0.009034
-0.004405
0.000351
0.005256
0.010335
0.015614
0.021120
0.026881
0.032917
0.039236
0.045820
0.052609
0.059475
0.066195
0.072433
0.077744
0.081614
0.083551
0.083205
0.080469
0.075513
-0.104353
-0.107765
-0.109629
-0.110080
-0.109360
-0.107730
-0.105411
-0.102575
-0.099349
-0.095824
-0.092071
-0.088145
-0.084088
-0.079936
-0.075718
-0.071454
-0.067161
-0.062852
-0.058534
-0.054211
-0.049886
-0.045556
-0.041221
-0.036873
-0.032506
-0.028111
-0.023679
-0.019196
-0.014646
-0.010007
-0.005260
-0.000381
0.004657
0.009885
0.015338
0.021058
0.027089
0.033476
0.040261
0.047468
0.055084
0.063024
0.071090
0.078921
0.085961
0.091487
0.094707
0.094955
0.091888
0.085602
-0.114101
-0.118253
-0.120305
-0.120525
-0.119312
-0.117051
-0.114048
-0.110523
-0.106630
-0.102472
-0.098128
-0.093652
-0.089091
-0.084478
-0.079840
-0.075196
-0.070560
-0.065942
-0.061345
-0.056772
-0.052222
-0.047691
-0.043173
-0.038661
-0.034146
-0.029618
-0.025063
-0.020469
-0.015819
-0.011086
-0.006247
-0.001277
0.003856
0.009187
0.014761
0.020630
0.026855
0.033510
0.040674
0.048429
0.056833
0.065887
0.075467
0.085242
0.094579
0.102512
0.107826
0.109325
0.106204
0.098335
-0.125909
-0.130962
-0.133083
-0.132799
-0.130771
-0.127572
-0.123619
-0.119185
-0.114444
-0.109510
-0.104458
-0.099344
-0.094208
-0.089080
-0.083983
-0.078930
-0.073932
-0.068992
-0.064110
-0.059285
-0.054510
-0.049781
-0.045087
-0.040420
-0.035767
-0.031116
-0.026452
-0.021761
-0.017029
-0.012224
-0.007320
-0.002290
0.002900
0.008290
0.013928
0.019875
0.026210
0.033030
0.040457
0.048637
0.057725
0.067851
0.079040
0.091081
0.103358
0.114682
0.123296
0.127179
0.124681
0.115124
-0.140714
-0.146794
-0.148658
-0.147346
-0.143964
-0.139359
-0.134078
-0.128443
-0.122636
-0.116762
-0.110883
-0.105042
-0.099268
-0.093583
-0.087999
-0.082522
-0.077154
-0.071890
-0.066726
-0.061654
-0.056664
-0.051747
-0.046889
-0.042079
-0.037302
-0.032543
-0.027786
-0.023015
-0.018212
-0.013357
-0.008410
-0.003346
0.001870
0.007279
0.012934
0.018901
0.025269
0.032156
0.039723
0.048184
0.057805
0.068885
0.081677
0.096225
0.112089
0.127995
0.141594
0.149699
0.149198
0.138237
-0.160082
-0.167141
-0.167965
-0.164630
-0.158989
-0.152271
-0.145150
-0.137956
-0.130841
-0.123869
-0.117061
-0.110431
-0.103987
-0.097730
-0.091661
-0.085769
-0.080045
-0.074477
-0.069051
-0.063753
-0.058569
-0.053485
-0.048484
-0.043550
-0.038668
-0.033820
-0.028987
-0.024152
-0.019293
-0.014402
-0.009430
-0.004350
0.000871
0.006276
0.011919
0.017870
0.024225
0.031117
0.038739
0.047366
0.057380
0.069276
0.083593
0.100772
0.120794
0.142604
0.163402
0.178551
0.182598
0.171344
-0.186761
-0.194175
-0.192162
-0.184935
-0.175561
-0.165721
-0.156123
-0.146987
-0.138359
-0.130198
-0.122432
-0.115022
-0.107937
-0.101155
-0.094653
-0.088400
-0.082374
-0.076552
-0.070910
-0.065428
-0.060089
-0.054873
-0.049760
-0.044733
-0.039771
-0.034857
-0.029970
-0.025091
-0.020195
-0.015273
-0.010287
-0.005202
0.000017
0.005412
0.011038
0.016973
0.023317
0.030212
0.037884
0.046655
0.057014
0.069670
0.085451
0.105306
0.129917
0.158974
0.189699
0.216074
0.229207
0.220484
-0.225917
-0.231261
-0.222377
-0.207870
-0.192509
-0.178281
-0.165578
-0.154230
-0.144059
-0.134808
-0.126210
-0.118165
-0.110604
-0.103444
-0.096629
-0.090123
-0.083890
-0.077898
-0.072117
-0.066521
-0.061087
-0.055791
-0.050612
-0.045530
-0.040524
-0.035575
-0.030660
-0.025759
-0.020848
-0.015902
-0.010912
-0.005826
-0.000610
0.004780
0.010406
0.016348
0.022721
0.029693
0.037515
0.046568
0.057416
0.070874
0.088190
0.110783
0.140219
0.177812
0.221564
0.265207
0.295489
0.295787
-0.288106
-0.283285
-0.258722
-0.231284
-0.206957
-0.187227
-0.171216
-0.157945
-0.146603
-0.136586
-0.127521
-0.119180
-0.111415
-0.104118
-0.097211
-0.090640
-0.084360
-0.078332
-0.072525
-0.066909
-0.061460
-0.056153
-0.050967
-0.045881
-0.040874
-0.035925
-0.031014
-0.026118
-0.021213
-0.016270
-0.011281
-0.006200
-0.000990
0.004400
0.010036
0.016011
0.022455
0.029561
0.037622
0.047078
0.058602
0.073200
0.092353
0.118064
0.152855
0.199352
0.258998
0.328269
0.390248
0.414503
-0.396475
-0.355502
-0.297307
-0.249280
-0.213861
-0.188632
-0.170124
-0.155888
-0.144312
-0.134405
-0.125587
-0.117526
-0.110027
-0.102965
-0.096262
-0.089863
-0.083727
-0.077819
-0.072113
-0.066582
-0.061206
-0.055962
-0.050830
-0.045793
-0.040829
-0.035921
-0.031047
-0.026185
-0.021312
-0.016399
-0.011427
-0.006367
-0.001173
0.004208
0.009852
0.015862
0.022385
0.029641
0.037961
0.047846
0.060061
0.075765
0.096694
0.125383
0.165440
0.221715
0.299857
0.403208
0.521855
0.606700
-0.602023
-0.444329
-0.323780
-0.249159
-0.204576
-0.177242
-0.159342
-0.146554
-0.136540
-0.128051
-0.120433
-0.113351
-0.106634
-0.100196
-0.093988
-0.087985
-0.082166
-0.076517
-0.071022
-0.065668
-0.060439
-0.055320
-0.050297
-0.045354
-0.040474
-0.035641
-0.030835
-0.026036
-0.021222
-0.016367
-0.011442
-0.006428
-0.001280
0.004063
0.009677
0.015673
0.022209
0.029519
0.037953
0.048045
0.060605
0.076869
0.098727
0.129073
0.172410
0.235868
0.330880
0.474834
0.685294
0.926859
-1.002712
-0.493176
-0.293855
-0.209718
-0.170525
-0.150385
-0.138691
-0.130751
-0.124406
-0.118665
-0.113102
-0.107559
-0.102002
-0.096446
-0.090917
-0.085444
-0.080045
-0.074734
-0.069516
-0.064391
-0.059355
-0.054402
-0.049522
-0.044705
-0.039937
-0.035205
-0.030492
-0.025782
-0.021053
-0.016282
-0.011442
-0.006514
-0.001454
0.003793
0.009302
0.015177
0.021569
0.028700
0.036900
0.046668
0.058759
0.074327
0.095145
0.124001
0.165480
0.227734
0.326879
0.497800
0.816983
1.445879
