# vtk DataFile Version 3.0
Vector Field
ASCII
DATASET RECTILINEAR_GRID
DIMENSIONS 50 50 1
X_COORDINATES 50 double
0.100000 0.300000 0.500000 0.700000 0.900000 1.100000 1.300000 1.500000 1.700000 1.900000 2.100000 2.300000 2.500000 2.700000 2.900000 3.100000 3.300000 3.500000 3.700000 3.900000 4.100000 4.300000 4.500000 4.700000 4.900000 5.100000 5.300000 5.500000 5.700000 5.900000 6.100000 6.300000 6.500000 6.700000 6.900000 7.100000 7.300000 7.500000 7.700000 7.900000 8.100000 8.300000 8.500000 8.700000 8.900000 9.100000 9.300000 9.500000 9.700000 9.900000 
Y_COORDINATES 50 double
0.100000 0.300000 0.500000 0.700000 0.900000 1.100000 1.300000 1.500000 1.700000 1.900000 2.100000 2.300000 2.500000 2.700000 2.900000 3.100000 3.300000 3.500000 3.700000 3.900000 4.100000 4.300000 4.500000 4.700000 4.900000 5.100000 5.300000 5.500000 5.700000 5.900000 6.100000 6.300000 6.500000 6.700000 6.900000 7.100000 7.300000 7.500000 7.700000 7.900000 8.100000 8.300000 8.500000 8.700000 8.900000 9.100000 9.300000 9.500000 9.700000 9.900000 
Z_COORDINATES 1 double
0.0
POINT_DATA 2500
VECTORS Vektorfeld double
-0.000189 0.000189 0.0
-0.000847 0.000470 0.0
-0.001915 0.000597 0.0
-0.003153 0.000641 0.0
-0.004447 0.000652 0.0
-0.005753 0.000654 0.0
-0.007060 0.000653 0.0
-0.008366 0.000653 0.0
-0.009672 0.000653 0.0
-0.010978 0.000652 0.0
-0.012281 0.000652 0.0
-0.013583 0.000650 0.0
-0.014880 0.000647 0.0
-0.016171 0.000644 0.0
-0.017453 0.000638 0.0
-0.018723 0.000631 0.0
-0.019977 0.000622 0.0
-0.021210 0.000611 0.0
-0.022418 0.000597 0.0
-0.023595 0.000580 0.0
-0.024733 0.000559 0.0
-0.025825 0.000533 0.0
-0.026862 0.000504 0.0
-0.027834 0.000469 0.0
-0.028732 0.000429 0.0
-0.029544 0.000383 0.0
-0.030257 0.000330 0.0
-0.030858 0.000271 0.0
-0.031334 0.000205 0.0
-0.031672 0.000133 0.0
-0.031858 0.000053 0.0
-0.031878 -0.000033 0.0
-0.031718 -0.000127 0.0
-0.031365 -0.000227 0.0
-0.030805 -0.000333 0.0
-0.030029 -0.000443 0.0
-0.029030 -0.000556 0.0
-0.027802 -0.000672 0.0
-0.026343 -0.000787 0.0
-0.024656 -0.000900 0.0
-0.022747 -0.001009 0.0
-0.020624 -0.001113 0.0
-0.018303 -0.001208 0.0
-0.015802 -0.001293 0.0
-0.013143 -0.001365 0.0
-0.010361 -0.001418 0.0
-0.007509 -0.001434 0.0
-0.004703 -0.001372 0.0
-0.002197 -0.001133 0.0
-0.000532 -0.000532 0.0
-0.000484 0.000862 0.0
-0.001918 0.001889 0.0
-0.004033 0.002360 0.0
-0.006448 0.002532 0.0
-0.008973 0.002580 0.0
-0.011529 0.002588 0.0
-0.014087 0.002585 0.0
-0.016639 0.002580 0.0
-0.019180 0.002573 0.0
-0.021707 0.002565 0.0
-0.024216 0.002553 0.0
-0.026706 0.002539 0.0
-0.029169 0.002520 0.0
-0.031603 0.002496 0.0
-0.034000 0.002465 0.0
-0.036354 0.002428 0.0
-0.038657 0.002383 0.0
-0.040900 0.002328 0.0
-0.043074 0.002262 0.0
-0.045166 0.002184 0.0
-0.047166 0.002092 0.0
-0.049058 0.001984 0.0
-0.050828 0.001860 0.0
-0.052459 0.001717 0.0
-0.053935 0.001554 0.0
-0.055235 0.001369 0.0
-0.056339 0.001161 0.0
-0.057228 0.000930 0.0
-0.057879 0.000674 0.0
-0.058271 0.000394 0.0
-0.058382 0.000089 0.0
-0.058190 -0.000241 0.0
-0.057674 -0.000595 0.0
-0.056816 -0.000970 0.0
-0.055600 -0.001364 0.0
-0.054014 -0.001773 0.0
-0.052048 -0.002192 0.0
-0.049699 -0.002614 0.0
-0.046966 -0.003036 0.0
-0.043856 -0.003448 0.0
-0.040381 -0.003846 0.0
-0.036559 -0.004220 0.0
-0.032416 -0.004565 0.0
-0.027982 -0.004872 0.0
-0.023299 -0.005128 0.0
-0.018426 -0.005311 0.0
-0.013459 -0.005359 0.0
-0.008587 -0.005126 0.0
-0.004195 -0.004278 0.0
-0.001092 -0.002156 0.0
-0.000631 0.001976 0.0
-0.002452 0.004030 0.0
-0.005076 0.004958 0.0
-0.008036 0.005308 0.0
-0.011118 0.005412 0.0
-0.014236 0.005429 0.0
-0.017354 0.005420 0.0
-0.020459 0.005402 0.0
-0.023546 0.005378 0.0
-0.026609 0.005349 0.0
-0.029643 0.005313 0.0
-0.032643 0.005268 0.0
-0.035603 0.005214 0.0
-0.038515 0.005148 0.0
-0.041373 0.005069 0.0
-0.044168 0.004974 0.0
-0.046891 0.004862 0.0
-0.049530 0.004731 0.0
-0.052074 0.004577 0.0
-0.054510 0.004398 0.0
-0.056824 0.004191 0.0
-0.058999 0.003953 0.0
-0.061019 0.003681 0.0
-0.062865 0.003373 0.0
-0.064518 0.003025 0.0
-0.065954 0.002635 0.0
-0.067154 0.002200 0.0
-0.068093 0.001719 0.0
-0.068747 0.001191 0.0
-0.069093 0.000614 0.0
-0.069105 -0.000009 0.0
-0.068761 -0.000679 0.0
-0.068040 -0.001393 0.0
-0.066923 -0.002147 0.0
-0.065394 -0.002933 0.0
-0.063440 -0.003745 0.0
-0.061052 -0.004573 0.0
-0.058227 -0.005407 0.0
-0.054966 -0.006236 0.0
-0.051279 -0.007045 0.0
-0.047180 -0.007823 0.0
-0.042690 -0.008554 0.0
-0.037839 -0.009226 0.0
-0.032662 -0.009821 0.0
-0.027209 -0.010315 0.0
-0.021544 -0.010661 0.0
-0.015778 -0.010742 0.0
-0.010113 -0.010280 0.0
-0.004976 -0.008653 0.0
-0.001306 -0.004554 0.0
-0.000689 0.003296 0.0
-0.002675 0.006519 0.0
-0.005523 0.007942 0.0
-0.008719 0.008480 0.0
-0.012037 0.008642 0.0
-0.015388 0.008667 0.0
-0.018737 0.008648 0.0
-0.022070 0.008612 0.0
-0.025380 0.008565 0.0
-0.028662 0.008507 0.0
-0.031910 0.008436 0.0
-0.035117 0.008351 0.0
-0.038277 0.008250 0.0
-0.041382 0.008130 0.0
-0.044425 0.007988 0.0
-0.047397 0.007821 0.0
-0.050287 0.007627 0.0
-0.053084 0.007402 0.0
-0.055776 0.007142 0.0
-0.058349 0.006842 0.0
-0.060789 0.006500 0.0
-0.063079 0.006109 0.0
-0.065201 0.005667 0.0
-0.067136 0.005169 0.0
-0.068864 0.004609 0.0
-0.070362 0.003986 0.0
-0.071608 0.003294 0.0
-0.072577 0.002533 0.0
-0.073244 0.001699 0.0
-0.073584 0.000792 0.0
-0.073573 -0.000186 0.0
-0.073186 -0.001233 0.0
-0.072402 -0.002345 0.0
-0.071200 -0.003514 0.0
-0.069562 -0.004732 0.0
-0.067476 -0.005987 0.0
-0.064931 -0.007264 0.0
-0.061923 -0.008549 0.0
-0.058455 -0.009823 0.0
-0.054534 -0.011066 0.0
-0.050176 -0.012259 0.0
-0.045404 -0.013380 0.0
-0.040249 -0.014407 0.0
-0.034749 -0.015316 0.0
-0.028955 -0.016068 0.0
-0.022936 -0.016591 0.0
-0.016806 -0.016709 0.0
-0.010776 -0.016007 0.0
-0.005297 -0.013542 0.0
-0.001386 -0.007246 0.0
-0.000707 0.004692 0.0
-0.002754 0.009155 0.0
-0.005692 0.011092 0.0
-0.008984 0.011818 0.0
-0.012398 0.012036 0.0
-0.015842 0.012068 0.0
-0.019283 0.012037 0.0
-0.022707 0.011981 0.0
-0.026107 0.011907 0.0
-0.029477 0.011817 0.0
-0.032812 0.011709 0.0
-0.036105 0.011580 0.0
-0.039350 0.011427 0.0
-0.042539 0.011248 0.0
-0.045665 0.011038 0.0
-0.048718 0.010795 0.0
-0.051687 0.010513 0.0
-0.054563 0.010189 0.0
-0.057333 0.009817 0.0
-0.059984 0.009391 0.0
-0.062499 0.008906 0.0
-0.064864 0.008357 0.0
-0.067060 0.007737 0.0
-0.069068 0.007041 0.0
-0.070866 0.006263 0.0
-0.072433 0.005397 0.0
-0.073745 0.004440 0.0
-0.074776 0.003387 0.0
-0.075501 0.002237 0.0
-0.075894 0.000988 0.0
-0.075929 -0.000358 0.0
-0.075579 -0.001797 0.0
-0.074821 -0.003324 0.0
-0.073631 -0.004927 0.0
-0.071990 -0.006597 0.0
-0.069883 -0.008316 0.0
-0.067296 -0.010067 0.0
-0.064225 -0.011826 0.0
-0.060668 -0.013571 0.0
-0.056635 -0.015273 0.0
-0.052140 -0.016906 0.0
-0.047205 -0.018440 0.0
-0.041863 -0.019845 0.0
-0.036156 -0.021086 0.0
-0.030134 -0.022113 0.0
-0.023873 -0.022826 0.0
-0.017489 -0.022989 0.0
-0.011205 -0.022041 0.0
-0.005496 -0.018695 0.0
-0.001434 -0.010066 0.0
-0.000712 0.006111 0.0
-0.002778 0.011848 0.0
-0.005752 0.014311 0.0
-0.009087 0.015226 0.0
-0.012543 0.015498 0.0
-0.016029 0.015535 0.0
-0.019511 0.015492 0.0
-0.022977 0.015415 0.0
-0.026419 0.015315 0.0
-0.029833 0.015193 0.0
-0.033213 0.015047 0.0
-0.036552 0.014874 0.0
-0.039845 0.014670 0.0
-0.043084 0.014433 0.0
-0.046262 0.014157 0.0
-0.049370 0.013837 0.0
-0.052399 0.013469 0.0
-0.055337 0.013047 0.0
-0.058172 0.012564 0.0
-0.060892 0.012014 0.0
-0.063482 0.011389 0.0
-0.065925 0.010683 0.0
-0.068204 0.009887 0.0
-0.070300 0.008994 0.0
-0.072190 0.007998 0.0
-0.073851 0.006891 0.0
-0.075261 0.005667 0.0
-0.076392 0.004322 0.0
-0.077217 0.002852 0.0
-0.077708 0.001257 0.0
-0.077837 -0.000463 0.0
-0.077575 -0.002303 0.0
-0.076896 -0.004256 0.0
-0.075772 -0.006309 0.0
-0.074180 -0.008448 0.0
-0.072101 -0.010652 0.0
-0.069520 -0.012898 0.0
-0.066428 -0.015158 0.0
-0.062821 -0.017401 0.0
-0.058707 -0.019591 0.0
-0.054098 -0.021692 0.0
-0.049018 -0.023667 0.0
-0.043500 -0.025477 0.0
-0.037587 -0.027075 0.0
-0.031336 -0.028397 0.0
-0.024825 -0.029315 0.0
-0.018180 -0.029529 0.0
-0.011637 -0.028327 0.0
-0.005698 -0.024057 0.0
-0.001483 -0.012983 0.0
-0.000712 0.007535 0.0
-0.002787 0.014565 0.0
-0.005779 0.017561 0.0
-0.009138 0.018668 0.0
-0.012620 0.018994 0.0
-0.016133 0.019037 0.0
-0.019642 0.018982 0.0
-0.023136 0.018885 0.0
-0.026608 0.018760 0.0
-0.030054 0.018608 0.0
-0.033469 0.018426 0.0
-0.036846 0.018211 0.0
-0.040180 0.017960 0.0
-0.043464 0.017667 0.0
-0.046691 0.017328 0.0
-0.049853 0.016936 0.0
-0.052941 0.016486 0.0
-0.055945 0.015971 0.0
-0.058853 0.015383 0.0
-0.061652 0.014714 0.0
-0.064328 0.013955 0.0
-0.066866 0.013097 0.0
-0.069247 0.012132 0.0
-0.071451 0.011049 0.0
-0.073457 0.009840 0.0
-0.075243 0.008496 0.0
-0.076781 0.007010 0.0
-0.078045 0.005374 0.0
-0.079005 0.003585 0.0
-0.079631 0.001641 0.0
-0.079893 -0.000458 0.0
-0.079757 -0.002707 0.0
-0.079192 -0.005097 0.0
-0.078168 -0.007615 0.0
-0.076658 -0.010243 0.0
-0.074636 -0.012957 0.0
-0.072082 -0.015727 0.0
-0.068984 -0.018520 0.0
-0.065336 -0.021294 0.0
-0.061139 -0.024009 0.0
-0.056407 -0.026616 0.0
-0.051163 -0.029068 0.0
-0.045441 -0.031316 0.0
-0.039288 -0.033302 0.0
-0.032764 -0.034944 0.0
-0.025956 -0.036086 0.0
-0.019001 -0.036359 0.0
-0.012153 -0.034889 0.0
-0.005942 -0.029644 0.0
-0.001543 -0.016009 0.0
-0.000712 0.008960 0.0
-0.002792 0.017293 0.0
-0.005799 0.020832 0.0
-0.009178 0.022135 0.0
-0.012683 0.022516 0.0
-0.016219 0.022565 0.0
-0.019754 0.022499 0.0
-0.023276 0.022384 0.0
-0.026778 0.022236 0.0
-0.030256 0.022056 0.0
-0.033706 0.021842 0.0
-0.037122 0.021589 0.0
-0.040500 0.021294 0.0
-0.043832 0.020950 0.0
-0.047114 0.020553 0.0
-0.050337 0.020096 0.0
-0.053492 0.019571 0.0
-0.056571 0.018970 0.0
-0.059563 0.018284 0.0
-0.062455 0.017504 0.0
-0.065233 0.016619 0.0
-0.067882 0.015619 0.0
-0.070385 0.014493 0.0
-0.072721 0.013229 0.0
-0.074869 0.011815 0.0
-0.076805 0.010242 0.0
-0.078501 0.008499 0.0
-0.079929 0.006577 0.0
-0.081058 0.004472 0.0
-0.081854 0.002178 0.0
-0.082283 -0.000305 0.0
-0.082307 -0.002971 0.0
-0.081891 -0.005813 0.0
-0.080999 -0.008815 0.0
-0.079598 -0.011956 0.0
-0.077655 -0.015209 0.0
-0.075147 -0.018538 0.0
-0.072053 -0.021901 0.0
-0.068363 -0.025252 0.0
-0.064076 -0.028535 0.0
-0.059201 -0.031695 0.0
-0.053763 -0.034671 0.0
-0.047796 -0.037401 0.0
-0.041352 -0.039814 0.0
-0.034498 -0.041810 0.0
-0.027329 -0.043196 0.0
-0.019998 -0.043535 0.0
-0.012779 -0.041780 0.0
-0.006239 -0.035503 0.0
-0.001618 -0.019170 0.0
-0.000713 0.010385 0.0
-0.002798 0.020033 0.0
-0.005819 0.024122 0.0
-0.009219 0.025623 0.0
-0.012748 0.026062 0.0
-0.016310 0.026118 0.0
-0.019873 0.026043 0.0
-0.023424 0.025912 0.0
-0.026958 0.025744 0.0
-0.030472 0.025540 0.0
-0.033961 0.025297 0.0
-0.037421 0.025010 0.0
-0.040847 0.024676 0.0
-0.044234 0.024288 0.0
-0.047577 0.023840 0.0
-0.050868 0.023323 0.0
-0.054100 0.022731 0.0
-0.057265 0.022053 0.0
-0.060352 0.021279 0.0
-0.063350 0.020399 0.0
-0.066246 0.019399 0.0
-0.069024 0.018268 0.0
-0.071669 0.016992 0.0
-0.074159 0.015557 0.0
-0.076474 0.013950 0.0
-0.078587 0.012157 0.0
-0.080472 0.010165 0.0
-0.082097 0.007964 0.0
-0.083429 0.005545 0.0
-0.084430 0.002902 0.0
-0.085063 0.000032 0.0
-0.085285 -0.003061 0.0
-0.085054 -0.006369 0.0
-0.084329 -0.009876 0.0
-0.083067 -0.013558 0.0
-0.081231 -0.017385 0.0
-0.078788 -0.021314 0.0
-0.075710 -0.025297 0.0
-0.071980 -0.029276 0.0
-0.067593 -0.033186 0.0
-0.062554 -0.036957 0.0
-0.056887 -0.040515 0.0
-0.050629 -0.043782 0.0
-0.043835 -0.046671 0.0
-0.036583 -0.049059 0.0
-0.028979 -0.050718 0.0
-0.021194 -0.051129 0.0
-0.013530 -0.049069 0.0
-0.006595 -0.041688 0.0
-0.001707 -0.022495 0.0
-0.000713 0.011811 0.0
-0.002804 0.022784 0.0
-0.005842 0.027431 0.0
-0.009264 0.029135 0.0
-0.012819 0.029634 0.0
-0.016410 0.029699 0.0
-0.020003 0.029617 0.0
-0.023587 0.029473 0.0
-0.027157 0.029288 0.0
-0.030709 0.029063 0.0
-0.034241 0.028795 0.0
-0.037749 0.028480 0.0
-0.041229 0.028112 0.0
-0.044676 0.027686 0.0
-0.048086 0.027194 0.0
-0.051453 0.026627 0.0
-0.054770 0.025977 0.0
-0.058031 0.025232 0.0
-0.061225 0.024381 0.0
-0.064342 0.023412 0.0
-0.067371 0.022310 0.0
-0.070297 0.021061 0.0
-0.073103 0.019649 0.0
-0.075770 0.018057 0.0
-0.078276 0.016270 0.0
-0.080595 0.014269 0.0
-0.082699 0.012041 0.0
-0.084555 0.009569 0.0
-0.086126 0.006843 0.0
-0.087372 0.003852 0.0
-0.088250 0.000592 0.0
-0.088712 -0.002937 0.0
-0.088709 -0.006726 0.0
-0.088192 -0.010761 0.0
-0.087109 -0.015017 0.0
-0.085414 -0.019457 0.0
-0.083062 -0.024037 0.0
-0.080017 -0.028697 0.0
-0.076254 -0.033369 0.0
-0.071759 -0.037975 0.0
-0.066535 -0.042430 0.0
-0.060602 -0.046642 0.0
-0.054000 -0.050515 0.0
-0.046792 -0.053941 0.0
-0.039063 -0.056770 0.0
-0.030940 -0.058733 0.0
-0.022612 -0.059227 0.0
-0.014416 -0.056833 0.0
-0.007013 -0.048262 0.0
-0.001810 -0.026012 0.0
-0.000713 0.013236 0.0
-0.002810 0.025547 0.0
-0.005866 0.030762 0.0
-0.009313 0.032674 0.0
-0.012897 0.033234 0.0
-0.016518 0.033311 0.0
-0.020144 0.033224 0.0
-0.023763 0.033069 0.0
-0.027372 0.032870 0.0
-0.030966 0.032628 0.0
-0.034545 0.032340 0.0
-0.038104 0.032002 0.0
-0.041642 0.031608 0.0
-0.045154 0.031151 0.0
-0.048637 0.030623 0.0
-0.052087 0.030015 0.0
-0.055497 0.029317 0.0
-0.058862 0.028517 0.0
-0.062173 0.027602 0.0
-0.065422 0.026558 0.0
-0.068598 0.025369 0.0
-0.071687 0.024017 0.0
-0.074674 0.022485 0.0
-0.077540 0.020754 0.0
-0.080263 0.018802 0.0
-0.082817 0.016611 0.0
-0.085173 0.014159 0.0
-0.087296 0.011429 0.0
-0.089147 0.008405 0.0
-0.090682 0.005071 0.0
-0.091852 0.001420 0.0
-0.092603 -0.002552 0.0
-0.092879 -0.006838 0.0
-0.092620 -0.011426 0.0
-0.091764 -0.016290 0.0
-0.090252 -0.021392 0.0
-0.088028 -0.026678 0.0
-0.085043 -0.032084 0.0
-0.081260 -0.037528 0.0
-0.076655 -0.042916 0.0
-0.071225 -0.048144 0.0
-0.064988 -0.053099 0.0
-0.057985 -0.057663 0.0
-0.050286 -0.061701 0.0
-0.041992 -0.065032 0.0
-0.033249 -0.067339 0.0
-0.024276 -0.067922 0.0
-0.015451 -0.065159 0.0
-0.007497 -0.055292 0.0
-0.001929 -0.029752 0.0
-0.000713 0.014661 0.0
-0.002817 0.028324 0.0
-0.005892 0.034115 0.0
-0.009365 0.036240 0.0
-0.012979 0.036865 0.0
-0.016634 0.036956 0.0
-0.020294 0.036866 0.0
-0.023951 0.036703 0.0
-0.027600 0.036493 0.0
-0.031240 0.036238 0.0
-0.034867 0.035935 0.0
-0.038481 0.035580 0.0
-0.042080 0.035166 0.0
-0.045661 0.034686 0.0
-0.049222 0.034131 0.0
-0.052759 0.033493 0.0
-0.056269 0.032759 0.0
-0.059746 0.031917 0.0
-0.063184 0.030952 0.0
-0.066576 0.029849 0.0
-0.069912 0.028590 0.0
-0.073180 0.027154 0.0
-0.076366 0.025522 0.0
-0.079453 0.023670 0.0
-0.082419 0.021575 0.0
-0.085238 0.019212 0.0
-0.087880 0.016556 0.0
-0.090310 0.013585 0.0
-0.092484 0.010275 0.0
-0.094357 0.006608 0.0
-0.095872 0.002568 0.0
-0.096970 -0.001850 0.0
-0.097584 -0.006649 0.0
-0.097644 -0.011816 0.0
-0.097074 -0.017326 0.0
-0.095802 -0.023141 0.0
-0.093754 -0.029201 0.0
-0.090867 -0.035433 0.0
-0.087086 -0.041742 0.0
-0.082377 -0.048015 0.0
-0.076724 -0.054127 0.0
-0.070141 -0.059937 0.0
-0.062673 -0.065297 0.0
-0.054397 -0.070041 0.0
-0.045433 -0.073949 0.0
-0.035953 -0.076645 0.0
-0.026215 -0.077326 0.0
-0.016648 -0.074148 0.0
-0.008051 -0.062855 0.0
-0.002063 -0.033745 0.0
-0.000712 0.016086 0.0
-0.002823 0.031115 0.0
-0.005918 0.037494 0.0
-0.009419 0.039836 0.0
-0.013065 0.040529 0.0
-0.016754 0.040635 0.0
-0.020451 0.040545 0.0
-0.024147 0.040377 0.0
-0.027839 0.040160 0.0
-0.031524 0.039896 0.0
-0.035203 0.039584 0.0
-0.038874 0.039217 0.0
-0.042536 0.038790 0.0
-0.046189 0.038295 0.0
-0.049830 0.037724 0.0
-0.053459 0.037066 0.0
-0.057073 0.036309 0.0
-0.060668 0.035439 0.0
-0.064241 0.034441 0.0
-0.067785 0.033296 0.0
-0.071293 0.031986 0.0
-0.074755 0.030488 0.0
-0.078158 0.028778 0.0
-0.081487 0.026830 0.0
-0.084721 0.024615 0.0
-0.087836 0.022105 0.0
-0.090800 0.019269 0.0
-0.093577 0.016078 0.0
-0.096124 0.012503 0.0
-0.098388 0.008516 0.0
-0.100310 0.004097 0.0
-0.101821 -0.000770 0.0
-0.102845 -0.006092 0.0
-0.103297 -0.011862 0.0
-0.103088 -0.018058 0.0
-0.102127 -0.024643 0.0
-0.100320 -0.031553 0.0
-0.097583 -0.038706 0.0
-0.093842 -0.045991 0.0
-0.089042 -0.053276 0.0
-0.083154 -0.060406 0.0
-0.076184 -0.067210 0.0
-0.068176 -0.073500 0.0
-0.059222 -0.079068 0.0
-0.049464 -0.083645 0.0
-0.039108 -0.086785 0.0
-0.028463 -0.087569 0.0
-0.018022 -0.083914 0.0
-0.008677 -0.071031 0.0
-0.002212 -0.038020 0.0
-0.000711 0.017510 0.0
-0.002829 0.033920 0.0
-0.005943 0.040898 0.0
-0.009473 0.043464 0.0
-0.013153 0.044227 0.0
-0.016877 0.044350 0.0
-0.020612 0.044262 0.0
-0.024348 0.044092 0.0
-0.028083 0.043871 0.0
-0.031816 0.043603 0.0
-0.035546 0.043286 0.0
-0.039275 0.042914 0.0
-0.043002 0.042482 0.0
-0.046727 0.041982 0.0
-0.050452 0.041404 0.0
-0.054175 0.040738 0.0
-0.057896 0.039971 0.0
-0.061614 0.039089 0.0
-0.065326 0.038075 0.0
-0.069030 0.036910 0.0
-0.072720 0.035571 0.0
-0.076388 0.034034 0.0
-0.080025 0.032272 0.0
-0.083616 0.030255 0.0
-0.087144 0.027951 0.0
-0.090584 0.025324 0.0
-0.093907 0.022338 0.0
-0.097076 0.018956 0.0
-0.100046 0.015141 0.0
-0.102762 0.010858 0.0
-0.105159 0.006074 0.0
-0.107159 0.000765 0.0
-0.108676 -0.005086 0.0
-0.109611 -0.011480 0.0
-0.109856 -0.018403 0.0
-0.109297 -0.025819 0.0
-0.107817 -0.033663 0.0
-0.105304 -0.041846 0.0
-0.101657 -0.050240 0.0
-0.096794 -0.058690 0.0
-0.090667 -0.067008 0.0
-0.083267 -0.074979 0.0
-0.074639 -0.082367 0.0
-0.064886 -0.088908 0.0
-0.054182 -0.094268 0.0
-0.042780 -0.097918 0.0
-0.031056 -0.098805 0.0
-0.019586 -0.094588 0.0
-0.009376 -0.079912 0.0
-0.002374 -0.042606 0.0
-0.000710 0.018931 0.0
-0.002833 0.036739 0.0
-0.005967 0.044328 0.0
-0.009527 0.047124 0.0
-0.013240 0.047960 0.0
-0.017001 0.048103 0.0
-0.020775 0.048019 0.0
-0.024552 0.047849 0.0
-0.028330 0.047627 0.0
-0.032110 0.047359 0.0
-0.035892 0.047043 0.0
-0.039678 0.046672 0.0
-0.043469 0.046242 0.0
-0.047267 0.045745 0.0
-0.051074 0.045171 0.0
-0.054892 0.044510 0.0
-0.058721 0.043749 0.0
-0.062564 0.042872 0.0
-0.066420 0.041861 0.0
-0.070289 0.040696 0.0
-0.074169 0.039353 0.0
-0.078054 0.037805 0.0
-0.081937 0.036022 0.0
-0.085809 0.033968 0.0
-0.089653 0.031609 0.0
-0.093448 0.028901 0.0
-0.097168 0.025803 0.0
-0.100774 0.022268 0.0
-0.104223 0.018249 0.0
-0.107456 0.013699 0.0
-0.110403 0.008576 0.0
-0.112980 0.002840 0.0
-0.115088 -0.003536 0.0
-0.116614 -0.010570 0.0
-0.117427 -0.018256 0.0
-0.117387 -0.026565 0.0
-0.116348 -0.035436 0.0
-0.114160 -0.044773 0.0
-0.110687 -0.054434 0.0
-0.105812 -0.064235 0.0
-0.099454 -0.073948 0.0
-0.091584 -0.083307 0.0
-0.082242 -0.092009 0.0
-0.071546 -0.099715 0.0
-0.059708 -0.106004 0.0
-0.047051 -0.110242 0.0
-0.034035 -0.111222 0.0
-0.021351 -0.106325 0.0
-0.010143 -0.089594 0.0
-0.002544 -0.047524 0.0
-0.000708 0.020348 0.0
-0.002835 0.039572 0.0
-0.005990 0.047785 0.0
-0.009580 0.050816 0.0
-0.013328 0.051728 0.0
-0.017125 0.051892 0.0
-0.020937 0.051814 0.0
-0.024754 0.051647 0.0
-0.028575 0.051428 0.0
-0.032401 0.051164 0.0
-0.036234 0.050853 0.0
-0.040075 0.050490 0.0
-0.043929 0.050070 0.0
-0.047798 0.049585 0.0
-0.051686 0.049027 0.0
-0.055597 0.048384 0.0
-0.059534 0.047643 0.0
-0.063501 0.046788 0.0
-0.067502 0.045802 0.0
-0.071538 0.044661 0.0
-0.075611 0.043341 0.0
-0.079720 0.041812 0.0
-0.083862 0.040040 0.0
-0.088029 0.037989 0.0
-0.092211 0.035614 0.0
-0.096389 0.032870 0.0
-0.100541 0.029705 0.0
-0.104631 0.026063 0.0
-0.108615 0.021886 0.0
-0.112435 0.017115 0.0
-0.116017 0.011690 0.0
-0.119272 0.005557 0.0
-0.122086 -0.001330 0.0
-0.124330 -0.009007 0.0
-0.125850 -0.017485 0.0
-0.126478 -0.026748 0.0
-0.126025 -0.036744 0.0
-0.124302 -0.047375 0.0
-0.121120 -0.058486 0.0
-0.116313 -0.069865 0.0
-0.109754 -0.081235 0.0
-0.101382 -0.092262 0.0
-0.091220 -0.102558 0.0
-0.079405 -0.111677 0.0
-0.066199 -0.119083 0.0
-0.052016 -0.124003 0.0
-0.037443 -0.125050 0.0
-0.023320 -0.119303 0.0
-0.010965 -0.100180 0.0
-0.002716 -0.052784 0.0
-0.000705 0.021761 0.0
-0.002836 0.042418 0.0
-0.006011 0.051268 0.0
-0.009631 0.054542 0.0
-0.013413 0.055533 0.0
-0.017247 0.055719 0.0
-0.021096 0.055649 0.0
-0.024953 0.055486 0.0
-0.028815 0.055273 0.0
-0.032685 0.055016 0.0
-0.036566 0.054714 0.0
-0.040461 0.054365 0.0
-0.044374 0.053962 0.0
-0.048310 0.053498 0.0
-0.052276 0.052966 0.0
-0.056275 0.052354 0.0
-0.060316 0.051650 0.0
-0.064405 0.050837 0.0
-0.068548 0.049897 0.0
-0.072750 0.048806 0.0
-0.077018 0.047537 0.0
-0.081354 0.046061 0.0
-0.085761 0.044339 0.0
-0.090235 0.042331 0.0
-0.094771 0.039989 0.0
-0.099358 0.037260 0.0
-0.103975 0.034083 0.0
-0.108593 0.030393 0.0
-0.113171 0.026118 0.0
-0.117651 0.021184 0.0
-0.121960 0.015513 0.0
-0.126002 0.009030 0.0
-0.129653 0.001664 0.0
-0.132768 -0.006643 0.0
-0.135168 -0.015928 0.0
-0.136647 -0.026198 0.0
-0.136975 -0.037418 0.0
-0.135903 -0.049496 0.0
-0.133179 -0.062271 0.0
-0.128567 -0.075500 0.0
-0.121873 -0.088853 0.0
-0.112980 -0.101911 0.0
-0.101883 -0.114168 0.0
-0.088732 -0.125035 0.0
-0.073857 -0.133806 0.0
-0.057797 -0.139523 0.0
-0.041322 -0.140580 0.0
-0.025481 -0.133737 0.0
-0.011812 -0.111771 0.0
-0.002876 -0.058377 0.0
-0.000701 0.023167 0.0
-0.002835 0.045277 0.0
-0.006029 0.054779 0.0
-0.009679 0.058301 0.0
-0.013496 0.059373 0.0
-0.017366 0.059583 0.0
-0.021252 0.059521 0.0
-0.025146 0.059364 0.0
-0.029048 0.059158 0.0
-0.032959 0.058912 0.0
-0.036885 0.058624 0.0
-0.040828 0.058293 0.0
-0.044796 0.057914 0.0
-0.048794 0.057481 0.0
-0.052830 0.056985 0.0
-0.056913 0.056418 0.0
-0.061051 0.055766 0.0
-0.065255 0.055013 0.0
-0.069533 0.054142 0.0
-0.073897 0.053127 0.0
-0.078356 0.051942 0.0
-0.082918 0.050554 0.0
-0.087591 0.048925 0.0
-0.092379 0.047008 0.0
-0.097282 0.044752 0.0
-0.102296 0.042097 0.0
-0.107408 0.038974 0.0
-0.112595 0.035307 0.0
-0.117823 0.031009 0.0
-0.123040 0.025989 0.0
-0.128171 0.020148 0.0
-0.133120 0.013385 0.0
-0.137757 0.005598 0.0
-0.141920 -0.003300 0.0
-0.145406 -0.013386 0.0
-0.147968 -0.024699 0.0
-0.149323 -0.037234 0.0
-0.149155 -0.050920 0.0
-0.147127 -0.065599 0.0
-0.142905 -0.081005 0.0
-0.136197 -0.096749 0.0
-0.126798 -0.112307 0.0
-0.114647 -0.127018 0.0
-0.099894 -0.140089 0.0
-0.082954 -0.150567 0.0
-0.064547 -0.157228 0.0
-0.045706 -0.158191 0.0
-0.027791 -0.149881 0.0
-0.012628 -0.124459 0.0
-0.003000 -0.064253 0.0
-0.000697 0.024565 0.0
-0.002832 0.048147 0.0
-0.006045 0.058316 0.0
-0.009725 0.062094 0.0
-0.013576 0.063248 0.0
-0.017481 0.063483 0.0
-0.021403 0.063429 0.0
-0.025333 0.063280 0.0
-0.029271 0.063082 0.0
-0.033220 0.062848 0.0
-0.037185 0.062578 0.0
-0.041171 0.062270 0.0
-0.045187 0.061920 0.0
-0.049239 0.061525 0.0
-0.053338 0.061077 0.0
-0.057495 0.060566 0.0
-0.061721 0.059982 0.0
-0.066029 0.059309 0.0
-0.070434 0.058529 0.0
-0.074950 0.057619 0.0
-0.079591 0.056550 0.0
-0.084372 0.055290 0.0
-0.089307 0.053797 0.0
-0.094407 0.052024 0.0
-0.099682 0.049915 0.0
-0.105136 0.047402 0.0
-0.110765 0.044410 0.0
-0.116558 0.040851 0.0
-0.122488 0.036623 0.0
-0.128512 0.031616 0.0
-0.134565 0.025706 0.0
-0.140551 0.018762 0.0
-0.146339 0.010647 0.0
-0.151753 0.001229 0.0
-0.156566 -0.009617 0.0
-0.160495 -0.021978 0.0
-0.163196 -0.035899 0.0
-0.164269 -0.051351 0.0
-0.163268 -0.068198 0.0
-0.159732 -0.086165 0.0
-0.153223 -0.104807 0.0
-0.143395 -0.123476 0.0
-0.130085 -0.141310 0.0
-0.113411 -0.157223 0.0
-0.093884 -0.169899 0.0
-0.072478 -0.177710 0.0
-0.050627 -0.178401 0.0
-0.030162 -0.168051 0.0
-0.013308 -0.138307 0.0
-0.003044 -0.070297 0.0
-0.000692 0.025955 0.0
-0.002828 0.051028 0.0
-0.006059 0.061880 0.0
-0.009769 0.065919 0.0
-0.013654 0.067158 0.0
-0.017593 0.067418 0.0
-0.021549 0.067372 0.0
-0.025512 0.067229 0.0
-0.029482 0.067041 0.0
-0.033464 0.066820 0.0
-0.037463 0.066569 0.0
-0.041486 0.066287 0.0
-0.045541 0.065973 0.0
-0.049638 0.065622 0.0
-0.053789 0.065230 0.0
-0.058007 0.064788 0.0
-0.062308 0.064287 0.0
-0.066708 0.063712 0.0
-0.071224 0.063047 0.0
-0.075876 0.062269 0.0
-0.080685 0.061350 0.0
-0.085671 0.060258 0.0
-0.090857 0.058950 0.0
-0.096261 0.057377 0.0
-0.101904 0.055480 0.0
-0.107800 0.053187 0.0
-0.113959 0.050414 0.0
-0.120383 0.047062 0.0
-0.127058 0.043017 0.0
-0.133957 0.038146 0.0
-0.141026 0.032298 0.0
-0.148180 0.025310 0.0
-0.155292 0.016999 0.0
-0.162182 0.007180 0.0
-0.168609 -0.004329 0.0
-0.174250 -0.017695 0.0
-0.178697 -0.033033 0.0
-0.181456 -0.050386 0.0
-0.181948 -0.069672 0.0
-0.179538 -0.090638 0.0
-0.173584 -0.112797 0.0
-0.163525 -0.135373 0.0
-0.149005 -0.157244 0.0
-0.130051 -0.176918 0.0
-0.107255 -0.192527 0.0
-0.081930 -0.201814 0.0
-0.056127 -0.201951 0.0
-0.032432 -0.188660 0.0
-0.013670 -0.153315 0.0
-0.002940 -0.076282 0.0
-0.000687 0.027334 0.0
-0.002822 0.053919 0.0
-0.006072 0.065470 0.0
-0.009812 0.069778 0.0
-0.013730 0.071103 0.0
-0.017703 0.071386 0.0
-0.021691 0.071348 0.0
-0.025684 0.071210 0.0
-0.029683 0.071030 0.0
-0.033692 0.070823 0.0
-0.037718 0.070592 0.0
-0.041768 0.070338 0.0
-0.045852 0.070062 0.0
-0.049982 0.069761 0.0
-0.054172 0.069432 0.0
-0.058438 0.069070 0.0
-0.062797 0.068665 0.0
-0.067269 0.068206 0.0
-0.071878 0.067678 0.0
-0.076646 0.067059 0.0
-0.081602 0.066324 0.0
-0.086772 0.065440 0.0
-0.092187 0.064367 0.0
-0.097877 0.063054 0.0
-0.103873 0.061441 0.0
-0.110202 0.059451 0.0
-0.116890 0.056997 0.0
-0.123955 0.053968 0.0
-0.131405 0.050237 0.0
-0.139231 0.045651 0.0
-0.147401 0.040033 0.0
-0.155850 0.033179 0.0
-0.164468 0.024859 0.0
-0.173082 0.014825 0.0
-0.181440 0.002812 0.0
-0.189197 -0.011438 0.0
-0.195888 -0.028153 0.0
-0.200911 -0.047484 0.0
-0.203533 -0.069458 0.0
-0.202900 -0.093893 0.0
-0.198089 -0.120307 0.0
-0.188209 -0.147802 0.0
-0.172587 -0.174956 0.0
-0.151022 -0.199726 0.0
-0.124115 -0.219423 0.0
-0.093585 -0.230773 0.0
-0.062395 -0.229986 0.0
-0.034398 -0.212316 0.0
-0.013431 -0.169386 0.0
-0.002574 -0.081797 0.0
-0.000681 0.028701 0.0
-0.002815 0.056821 0.0
-0.006084 0.069088 0.0
-0.009855 0.073671 0.0
-0.013807 0.075081 0.0
-0.017813 0.075386 0.0
-0.021831 0.075353 0.0
-0.025851 0.075218 0.0
-0.029873 0.075044 0.0
-0.033903 0.074848 0.0
-0.037948 0.074636 0.0
-0.042016 0.074411 0.0
-0.046118 0.074175 0.0
-0.050267 0.073928 0.0
-0.054480 0.073668 0.0
-0.058775 0.073394 0.0
-0.063172 0.073097 0.0
-0.067695 0.072770 0.0
-0.072371 0.072399 0.0
-0.077230 0.071965 0.0
-0.082304 0.071447 0.0
-0.087628 0.070813 0.0
-0.093243 0.070024 0.0
-0.099188 0.069033 0.0
-0.105507 0.067777 0.0
-0.112244 0.066181 0.0
-0.119443 0.064153 0.0
-0.127142 0.061576 0.0
-0.135375 0.058311 0.0
-0.144161 0.054188 0.0
-0.153498 0.049003 0.0
-0.163353 0.042513 0.0
-0.173646 0.034436 0.0
-0.184232 0.024448 0.0
-0.194874 0.012190 0.0
-0.205215 -0.002717 0.0
-0.214745 -0.020654 0.0
-0.222769 -0.041937 0.0
-0.228383 -0.066769 0.0
-0.230470 -0.095128 0.0
-0.227740 -0.126615 0.0
-0.218843 -0.160271 0.0
-0.202593 -0.194358 0.0
-0.178337 -0.226145 0.0
-0.146469 -0.251779 0.0
-0.109050 -0.266365 0.0
-0.070261 -0.264372 0.0
-0.036061 -0.240128 0.0
-0.012252 -0.186351 0.0
-0.001785 -0.086156 0.0
-0.000675 0.030056 0.0
-0.002808 0.059733 0.0
-0.006098 0.072734 0.0
-0.009900 0.077598 0.0
-0.013887 0.079094 0.0
-0.017926 0.079417 0.0
-0.021971 0.079385 0.0
-0.026015 0.079249 0.0
-0.030056 0.079077 0.0
-0.034101 0.078889 0.0
-0.038155 0.078694 0.0
-0.042229 0.078495 0.0
-0.046336 0.078299 0.0
-0.050489 0.078106 0.0
-0.054706 0.077920 0.0
-0.059009 0.077739 0.0
-0.063420 0.077560 0.0
-0.067968 0.077378 0.0
-0.072682 0.077181 0.0
-0.077598 0.076957 0.0
-0.082754 0.076685 0.0
-0.088195 0.076339 0.0
-0.093967 0.075884 0.0
-0.100125 0.075275 0.0
-0.106724 0.074453 0.0
-0.113826 0.073345 0.0
-0.121495 0.071857 0.0
-0.129796 0.069873 0.0
-0.138793 0.067244 0.0
-0.148539 0.063788 0.0
-0.159076 0.059277 0.0
-0.170417 0.053435 0.0
-0.182533 0.045923 0.0
-0.195327 0.036340 0.0
-0.208606 0.024217 0.0
-0.222035 0.009026 0.0
-0.235103 -0.009800 0.0
-0.247042 -0.032829 0.0
-0.256782 -0.060523 0.0
-0.262927 -0.093141 0.0
-0.263756 -0.130503 0.0
-0.257326 -0.171710 0.0
-0.241717 -0.214778 0.0
-0.215470 -0.256229 0.0
-0.178303 -0.290728 0.0
-0.132189 -0.310948 0.0
-0.082566 -0.308201 0.0
-0.038592 -0.274472 0.0
-0.010096 -0.204312 0.0
-0.000408 -0.088349 0.0
-0.000669 0.031400 0.0
-0.002803 0.062658 0.0
-0.006115 0.076411 0.0
-0.009952 0.081561 0.0
-0.013975 0.083141 0.0
-0.018045 0.083479 0.0
-0.022118 0.083442 0.0
-0.026182 0.083299 0.0
-0.030237 0.083123 0.0
-0.034287 0.082938 0.0
-0.038342 0.082754 0.0
-0.042411 0.082578 0.0
-0.046507 0.082418 0.0
-0.050646 0.082279 0.0
-0.054847 0.082166 0.0
-0.059134 0.082082 0.0
-0.063533 0.082027 0.0
-0.068074 0.081999 0.0
-0.072791 0.081992 0.0
-0.077726 0.081997 0.0
-0.082921 0.081998 0.0
-0.088430 0.081975 0.0
-0.094307 0.081899 0.0
-0.100619 0.081729 0.0
-0.107437 0.081415 0.0
-0.114840 0.080888 0.0
-0.122915 0.080059 0.0
-0.131756 0.078813 0.0
-0.141460 0.077004 0.0
-0.152127 0.074441 0.0
-0.163851 0.070884 0.0
-0.176707 0.066026 0.0
-0.190741 0.059481 0.0
-0.205938 0.050772 0.0
-0.222188 0.039314 0.0
-0.239235 0.024407 0.0
-0.256602 0.005254 0.0
-0.273523 -0.019023 0.0
-0.288834 -0.049279 0.0
-0.300884 -0.086189 0.0
-0.307530 -0.129979 0.0
-0.306178 -0.180016 0.0
-0.293957 -0.234301 0.0
-0.268106 -0.288805 0.0
-0.226826 -0.336599 0.0
-0.170997 -0.367021 0.0
-0.106608 -0.366140 0.0
-0.046622 -0.320493 0.0
-0.008362 -0.225048 0.0
0.001548 -0.087210 0.0
-0.000663 0.032731 0.0
-0.002800 0.065598 0.0
-0.006138 0.080121 0.0
-0.010013 0.085562 0.0
-0.014074 0.087224 0.0
-0.018178 0.087570 0.0
-0.022277 0.087521 0.0
-0.026358 0.087364 0.0
-0.030421 0.087177 0.0
-0.034471 0.086986 0.0
-0.038515 0.086805 0.0
-0.042565 0.086645 0.0
-0.046634 0.086516 0.0
-0.050740 0.086426 0.0
-0.054903 0.086384 0.0
-0.059148 0.086396 0.0
-0.063504 0.086467 0.0
-0.068003 0.086599 0.0
-0.072684 0.086791 0.0
-0.077592 0.087039 0.0
-0.082776 0.087335 0.0
-0.088294 0.087665 0.0
-0.094213 0.088006 0.0
-0.100608 0.088329 0.0
-0.107565 0.088590 0.0
-0.115182 0.088732 0.0
-0.123570 0.088676 0.0
-0.132851 0.088318 0.0
-0.143165 0.087517 0.0
-0.154659 0.086090 0.0
-0.167492 0.083792 0.0
-0.181820 0.080303 0.0
-0.197786 0.075205 0.0
-0.215495 0.067955 0.0
-0.234972 0.057859 0.0
-0.256107 0.044044 0.0
-0.278568 0.025445 0.0