# vtk DataFile Version 3.0
Scalar Field
ASCII
DATASET RECTILINEAR_GRID
DIMENSIONS 50 50 1
X_COORDINATES 50 double
0.100000 0.300000 0.500000 0.700000 0.900000 1.100000 1.300000 1.500000 1.700000 1.900000 2.100000 2.300000 2.500000 2.700000 2.900000 3.100000 3.300000 3.500000 3.700000 3.900000 4.100000 4.300000 4.500000 4.700000 4.900000 5.100000 5.300000 5.500000 5.700000 5.900000 6.100000 6.300000 6.500000 6.700000 6.900000 7.100000 7.300000 7.500000 7.700000 7.900000 8.100000 8.300000 8.500000 8.700000 8.900000 9.100000 9.300000 9.500000 9.700000 9.900000 
Y_COORDINATES 50 double
0.100000 0.300000 0.500000 0.700000 0.900000 1.100000 1.300000 1.500000 1.700000 1.900000 2.100000 2.300000 2.500000 2.700000 2.900000 3.100000 3.300000 3.500000 3.700000 3.900000 4.100000 4.300000 4.500000 4.700000 4.900000 5.100000 5.300000 5.500000 5.700000 5.900000 6.100000 6.300000 6.500000 6.700000 6.900000 7.100000 7.300000 7.500000 7.700000 7.900000 8.100000 8.300000 8.500000 8.700000 8.900000 9.100000 9.300000 9.500000 9.700000 9.900000 
Z_COORDINATES 1 double
0.0
POINT_DATA 2500
SCALARS Skalarfeld double 1
LOOKUP_TABLE default
-0.013837
-0.013850
-0.013806
-0.013694
-0.013512
-0.013262
-0.012943
-0.012555
-0.012098
-0.011570
-0.010973
-0.010305
-0.009565
-0.008755
-0.007873
-0.006919
-0.005894
-0.004799
-0.003633
-0.002399
-0.001097
0.000270
0.001700
0.003190
0.004736
0.006334
0.007978
0.009664
0.011383
0.013130
0.014895
0.016669
0.018443
0.020205
0.021945
0.023650
0.025307
0.026905
0.028429
0.029868
0.031207
0.032434
0.033538
0.034507
0.035331
0.036002
0.036512
0.036855
0.037031
0.037057
-0.013825
-0.013838
-0.013789
-0.013674
-0.013492
-0.013242
-0.012924
-0.012538
-0.012082
-0.011556
-0.010961
-0.010295
-0.009558
-0.008749
-0.007870
-0.006919
-0.005897
-0.004804
-0.003641
-0.002409
-0.001109
0.000255
0.001683
0.003171
0.004715
0.006312
0.007955
0.009640
0.011359
0.013105
0.014870
0.016645
0.018420
0.020184
0.021925
0.023632
0.025293
0.026893
0.028421
0.029862
0.031204
0.032435
0.033541
0.034513
0.035340
0.036013
0.036526
0.036873
0.037056
0.037081
-0.013873
-0.013891
-0.013842
-0.013727
-0.013545
-0.013297
-0.012980
-0.012595
-0.012141
-0.011618
-0.011024
-0.010360
-0.009626
-0.008820
-0.007942
-0.006993
-0.005973
-0.004882
-0.003720
-0.002489
-0.001190
0.000175
0.001604
0.003094
0.004640
0.006240
0.007888
0.009578
0.011304
0.013058
0.014833
0.016618
0.018404
0.020180
0.021935
0.023657
0.025332
0.026947
0.028490
0.029947
0.031304
0.032549
0.033669
0.034653
0.035490
0.036172
0.036692
0.037045
0.037229
0.037249
-0.013994
-0.014016
-0.013968
-0.013854
-0.013674
-0.013426
-0.013111
-0.012728
-0.012277
-0.011756
-0.011165
-0.010503
-0.009771
-0.008967
-0.008092
-0.007145
-0.006125
-0.005035
-0.003873
-0.002641
-0.001340
0.000028
0.001461
0.002956
0.004510
0.006119
0.007777
0.009480
0.011220
0.012990
0.014782
0.016587
0.018395
0.020195
0.021974
0.023722
0.025424
0.027067
0.028637
0.030121
0.031505
0.032775
0.033918
0.034923
0.035780
0.036477
0.037009
0.037370
0.037558
0.037574
-0.014192
-0.014215
-0.014170
-0.014057
-0.013878
-0.013633
-0.013320
-0.012939
-0.012490
-0.011971
-0.011383
-0.010724
-0.009994
-0.009193
-0.008319
-0.007373
-0.006354
-0.005263
-0.004100
-0.002865
-0.001560
-0.000186
0.001254
0.002759
0.004324
0.005946
0.007621
0.009342
0.011103
0.012898
0.014717
0.016551
0.018391
0.020225
0.022041
0.023826
0.025567
0.027251
0.028861
0.030385
0.031807
0.033113
0.034291
0.035327
0.036210
0.036930
0.037479
0.037851
0.038044
0.038061
-0.014466
-0.014491
-0.014446
-0.014336
-0.014159
-0.013916
-0.013605
-0.013227
-0.012781
-0.012265
-0.011680
-0.011024
-0.010296
-0.009497
-0.008624
-0.007679
-0.006660
-0.005567
-0.004402
-0.003163
-0.001852
-0.000470
0.000981
0.002498
0.004079
0.005720
0.007417
0.009163
0.010953
0.012780
0.014635
0.016508
0.018390
0.020270
0.022134
0.023969
0.025763
0.027499
0.029162
0.030738
0.032212
0.033567
0.034790
0.035866
0.036785
0.037534
0.038106
0.038494
0.038695
0.038713
-0.014815
-0.014841
-0.014799
-0.014690
-0.014516
-0.014275
-0.013967
-0.013593
-0.013150
-0.012637
-0.012055
-0.011402
-0.010677
-0.009880
-0.009009
-0.008064
-0.007045
-0.005950
-0.004781
-0.003536
-0.002217
-0.000825
0.000639
0.002172
0.003773
0.005437
0.007161
0.008939
0.010765
0.012632
0.014531
0.016454
0.018389
0.020325
0.022250
0.024148
0.026007
0.027810
0.029541
0.031183
0.032721
0.034137
0.035417
0.036545
0.037509
0.038296
0.038897
0.039304
0.039516
0.039536
-0.015240
-0.015267
-0.015227
-0.015120
-0.014949
-0.014711
-0.014407
-0.014036
-0.013596
-0.013088
-0.012510
-0.011860
-0.011139
-0.010344
-0.009475
-0.008530
-0.007510
-0.006413
-0.005239
-0.003988
-0.002660
-0.001256
0.000224
0.001777
0.003401
0.005093
0.006849
0.008665
0.010533
0.012448
0.014401
0.016383
0.018382
0.020387
0.022385
0.024361
0.026299
0.028183
0.029995
0.031719
0.033335
0.034827
0.036177
0.037369
0.038388
0.039221
0.039858
0.040290
0.040515
0.040537
-0.015740
-0.015769
-0.015730
-0.015626
-0.015457
-0.015223
-0.014923
-0.014556
-0.014122
-0.013618
-0.013044
-0.012399
-0.011681
-0.010889
-0.010022
-0.009078
-0.008058
-0.006958
-0.005780
-0.004521
-0.003183
-0.001765
-0.000268
0.001307
0.002958
0.004682
0.006476
0.008334
0.010253
0.012224
0.014240
0.016290
0.018365
0.020451
0.022535
0.024601
0.026634
0.028615
0.030526
0.032347
0.034058
0.035641
0.037075
0.038344
0.039430
0.040319
0.040999
0.041461
0.041702
0.041727
-0.016314
-0.016345
-0.016308
-0.016208
-0.016042
-0.015812
-0.015517
-0.015155
-0.014726
-0.014227
-0.013659
-0.013019
-0.012305
-0.011517
-0.010653
-0.009711
-0.008690
-0.007589
-0.006405
-0.005139
-0.003790
-0.002357
-0.000841
0.000758
0.002438
0.004198
0.006033
0.007941
0.009916
0.011951
0.014038
0.016167
0.018329
0.020509
0.022693
0.024866
0.027010
0.029105
0.031131
0.033067
0.034891
0.036581
0.038117
0.039477
0.040643
0.041599
0.042330
0.042829
0.043090
0.043118
-0.016962
-0.016995
-0.016962
-0.016864
-0.016703
-0.016478
-0.016188
-0.015832
-0.015409
-0.014917
-0.014355
-0.013721
-0.013013
-0.012230
-0.011370
-0.010431
-0.009410
-0.008308
-0.007120
-0.005847
-0.004487
-0.003039
-0.001502
0.000122
0.001835
0.003633
0.005514
0.007476
0.009513
0.011619
0.013787
0.016006
0.018266
0.020553
0.022853
0.025148
0.027420
0.029647
0.031808
0.033879
0.035835
0.037653
0.039307
0.040776
0.042037
0.043073
0.043866
0.044406
0.044691
0.044724
-0.017684
-0.017720
-0.017689
-0.017596
-0.017439
-0.017220
-0.016936
-0.016587
-0.016171
-0.015687
-0.015132
-0.014506
-0.013806
-0.013029
-0.012175
-0.011239
-0.010221
-0.009118
-0.007928
-0.006648
-0.005278
-0.003814
-0.002258
-0.000606
0.001139
0.002978
0.004910
0.006930
0.009035
0.011220
0.013476
0.015795
0.018166
0.020574
0.023005
0.025440
0.027859
0.030239
0.032556
0.034783
0.036894
0.038860
0.040655
0.042251
0.043625
0.044754
0.045620
0.046211
0.046523
0.046562
-0.018480
-0.018518
-0.018491
-0.018402
-0.018251
-0.018038
-0.017761
-0.017420
-0.017013
-0.016538
-0.015993
-0.015376
-0.014684
-0.013916
-0.013069
-0.012140
-0.011126
-0.010024
-0.008833
-0.007548
-0.006168
-0.004691
-0.003114
-0.001436
0.000344
0.002226
0.004209
0.006291
0.008469
0.010739
0.013093
0.015523
0.018016
0.020560
0.023138
0.025731
0.028317
0.030872
0.033369
0.035778
0.038068
0.040208
0.042167
0.043913
0.045419
0.046658
0.047610
0.048261
0.048605
0.048650
-0.019348
-0.019389
-0.019366
-0.019282
-0.019138
-0.018932
-0.018664
-0.018332
-0.017935
-0.017471
-0.016937
-0.016331
-0.015651
-0.014893
-0.014056
-0.013135
-0.012127
-0.011030
-0.009839
-0.008552
-0.007165
-0.005676
-0.004080
-0.002376
-0.000562
0.001363
0.003400
0.005547
0.007803
0.010164
0.012623
0.015173
0.017801
0.020495
0.023238
0.026009
0.028785
0.031539
0.034242
0.036860
0.039358
0.041701
0.043852
0.045774
0.047435
0.048804
0.049858
0.050578
0.050960
0.051014
-0.020289
-0.020333
-0.020314
-0.020236
-0.020099
-0.019901
-0.019643
-0.019322
-0.018937
-0.018485
-0.017965
-0.017372
-0.016706
-0.015962
-0.015136
-0.014227
-0.013229
-0.012139
-0.010952
-0.009666
-0.008275
-0.006775
-0.005163
-0.003436
-0.001589
0.000379
0.002470
0.004684
0.007021
0.009477
0.012049
0.014728
0.017504
0.020362
0.023288
0.026258
0.029248
0.032229
0.035167
0.038026
0.040765
0.043344
0.045718
0.047847
0.049691
0.051213
0.052386
0.053189
0.053616
0.053678
-0.021301
-0.021349
-0.021335
-0.021263
-0.021134
-0.020946
-0.020699
-0.020391
-0.020019
-0.019582
-0.019077
-0.018501
-0.017851
-0.017123
-0.016314
-0.015419
-0.014434
-0.013355
-0.012177
-0.010895
-0.009504
-0.007998
-0.006374
-0.004625
-0.002749
-0.000740
0.001404
0.003685
0.006104
0.008661
0.011351
0.014168
0.017102
0.020141
0.023267
0.026458
0.029689
0.032926
0.036133
0.039268
0.042286
0.045139
0.047776
0.050147
0.052206
0.053909
0.055223
0.056122
0.056602
0.056675
-0.022383
-0.022435
-0.022427
-0.022362
-0.022242
-0.022065
-0.021831
-0.021537
-0.021181
-0.020761
-0.020275
-0.019718
-0.019087
-0.018379
-0.017589
-0.016713
-0.015746
-0.014683
-0.013518
-0.012245
-0.010859
-0.009353
-0.007721
-0.005956
-0.004054
-0.002008
0.000186
0.002533
0.005035
0.007692
0.010505
0.013468
0.016571
0.019804
0.023150
0.026586
0.030085
0.033611
0.037124
0.040577
0.043917
0.047089
0.050033
0.052689
0.055002
0.056919
0.058399
0.059414
0.059955
0.060041
-0.023535
-0.023591
-0.023589
-0.023532
-0.023422
-0.023258
-0.023038
-0.022760
-0.022423
-0.022023
-0.021557
-0.021022
-0.020415
-0.019731
-0.018965
-0.018113
-0.017169
-0.016126
-0.014980
-0.013723
-0.012348
-0.010847
-0.009214
-0.007440
-0.005518
-0.003441
-0.001201
0.001208
0.003790
0.006549
0.009487
0.012600
0.015882
0.019323
0.022907
0.026612
0.030408
0.034259
0.038119
0.041936
0.045650
0.049193
0.052498
0.055491
0.058104
0.060276
0.061953
0.063103
0.063718
0.063818
-0.024755
-0.024816
-0.024820
-0.024773
-0.024674
-0.024523
-0.024319
-0.024060
-0.023743
-0.023365
-0.022924
-0.022416
-0.021836
-0.021180
-0.020443
-0.019620
-0.018704
-0.017689
-0.016568
-0.015333
-0.013977
-0.012490
-0.010864
-0.009089
-0.007155
-0.005054
-0.002776
-0.000312
0.002346
0.005203
0.008265
0.011532
0.015000
0.018661
0.022501
0.026498
0.030624
0.034838
0.039092
0.043326
0.047470
0.051449
0.055177
0.058568
0.061539
0.064013
0.065926
0.067237
0.067937
0.068054
-0.026042
-0.026108
-0.026119
-0.026081
-0.025995
-0.025860
-0.025674
-0.025435
-0.025141
-0.024789
-0.024376
-0.023897
-0.023349
-0.022726
-0.022023
-0.021235
-0.020354
-0.019374
-0.018286
-0.017083
-0.015754
-0.014290
-0.012680
-0.010914
-0.008980
-0.006865
-0.004559
-0.002049
0.000676
0.003625
0.006806
0.010226
0.013884
0.017774
0.021886
0.026200
0.030686
0.035305
0.040003
0.044714
0.049358
0.053844
0.058073
0.061938
0.065337
0.068172
0.070367
0.071869
0.072670
0.072807
-0.027394
-0.027465
-0.027484
-0.027457
-0.027385
-0.027266
-0.027100
-0.026884
-0.026616
-0.026293
-0.025911
-0.025466
-0.024954
-0.024370
-0.023707
-0.022961
-0.022122
-0.021184
-0.020139
-0.018975
-0.017684
-0.016254
-0.014674
-0.012929
-0.011006
-0.008892
-0.006571
-0.004028
-0.001248
0.001781
0.005074
0.008642
0.012488
0.016613
0.021008
0.025660
0.030539
0.035606
0.040804
0.046059
0.051281
0.056363
0.061184
0.065615
0.069527
0.072799
0.075331
0.077062
0.077982
0.078140
-0.028809
-0.028886
-0.028914
-0.028898
-0.028841
-0.028741
-0.028596
-0.028406
-0.028167
-0.027875
-0.027528
-0.027122
-0.026651
-0.026111
-0.025495
-0.024797
-0.024008
-0.023122
-0.022128
-0.021016
-0.019774
-0.018391
-0.016853
-0.015144
-0.013250
-0.011152
-0.008833
-0.006274
-0.003457
-0.000362
0.003028
0.006731
0.010759
0.015117
0.019804
0.024810
0.030112
0.035671
0.041427
0.047302
0.053193
0.058973
0.064498
0.069609
0.074141
0.077942
0.080883
0.082888
0.083948
0.084130
-0.030285
-0.030368
-0.030405
-0.030402
-0.030361
-0.030281
-0.030161
-0.029998
-0.029790
-0.029534
-0.029226
-0.028863
-0.028438
-0.027948
-0.027385
-0.026743
-0.026013
-0.025187
-0.024256
-0.023207
-0.022028
-0.020706
-0.019226
-0.017571
-0.015723
-0.013662
-0.011366
-0.008814
-0.005981
-0.002844
0.000622
0.004440
0.008636
0.013219
0.018197
0.023569
0.029317
0.035408
0.041785
0.048362
0.055024
0.061626
0.067991
0.073921
0.079209
0.083656
0.087097
0.089432
0.090655
0.090861
-0.031821
-0.031910
-0.031957
-0.031968
-0.031944
-0.031885
-0.031791
-0.031658
-0.031485
-0.031267
-0.031002
-0.030686
-0.030314
-0.029879
-0.029376
-0.028798
-0.028136
-0.027381
-0.026523
-0.025550
-0.024449
-0.023205
-0.021801
-0.020219
-0.018439
-0.016438
-0.014191
-0.011673
-0.008853
-0.005702
-0.002189
0.001717
0.006052
0.010840
0.016097
0.021834
0.028045
0.034705
0.041761
0.049127
0.056677
0.064243
0.071613
0.078540
0.084756
0.089999
0.094053
0.096787
0.098202
0.098428
-0.033413
-0.033510
-0.033567
-0.033592
-0.033587
-0.033551
-0.033484
-0.033384
-0.033247
-0.033072
-0.032854
-0.032590
-0.032274
-0.031901
-0.031466
-0.030959
-0.030375
-0.029702
-0.028930
-0.028046
-0.027038
-0.025889
-0.024581
-0.023095
-0.021408
-0.019495
-0.017327
-0.014875
-0.012104
-0.008978
-0.005457
-0.001501
0.002932
0.007891
0.013401
0.019487
0.026162
0.033414
0.041202
0.049445
0.058010
0.066706
0.075281
0.083424
0.090790
0.097028
0.101844
0.105064
0.106697
0.106938
-0.035060
-0.035164
-0.035233
-0.035272
-0.035287
-0.035275
-0.035238
-0.035172
-0.035075
-0.034944
-0.034777
-0.034569
-0.034316
-0.034011
-0.033650
-0.033224
-0.032726
-0.032146
-0.031472
-0.030693
-0.029795
-0.028760
-0.027570
-0.026204
-0.024637
-0.022843
-0.020789
-0.018442
-0.015763
-0.012707
-0.009229
-0.005276
-0.000795
0.004275
0.009990
0.016389
0.023505
0.031353
0.039910
0.049109
0.058820
0.068833
0.078852
0.088490
0.097294
0.104790
0.110566
0.114382
0.116264
0.116500
-0.036759
-0.036872
-0.036951
-0.037007
-0.037041
-0.037055
-0.037048
-0.037019
-0.036964
-0.036881
-0.036768
-0.036621
-0.036434
-0.036204
-0.035924
-0.035587
-0.035185
-0.034709
-0.034147
-0.033487
-0.032716
-0.031815
-0.030766
-0.029546
-0.028130
-0.026489
-0.024590
-0.022393
-0.019854
-0.016926
-0.013552
-0.009670
-0.005212
-0.000108
0.005735
0.012377
0.019881
0.028293
0.037625
0.047838
0.058818
0.070350
0.082094
0.093574
0.104196
0.113305
0.120313
0.124870
0.127027
0.127222
-0.038509
-0.038630
-0.038721
-0.038792
-0.038848
-0.038888
-0.038913
-0.038921
-0.038910
-0.038878
-0.038822
-0.038739
-0.038624
-0.038474
-0.038282
-0.038041
-0.037745
-0.037384
-0.036947
-0.036422
-0.035795
-0.035048
-0.034164
-0.033119
-0.031887
-0.030437
-0.028734
-0.026737
-0.024398
-0.021663
-0.018467
-0.014740
-0.010399
-0.005355
0.000493
0.007272
0.015063
0.023958
0.034019
0.045256
0.057597
0.070843
0.084627
0.098376
0.111315
0.122532
0.131158
0.136658
0.139106
0.139188
-0.040306
-0.040436
-0.040539
-0.040627
-0.040704
-0.040771
-0.040828
-0.040875
-0.040909
-0.040930
-0.040933
-0.040918
-0.040879
-0.040814
-0.040716
-0.040580
-0.040398
-0.040162
-0.039862
-0.039487
-0.039022
-0.038452
-0.037757
-0.036915
-0.035900
-0.034681
-0.033222
-0.031480
-0.029404
-0.026936
-0.024007
-0.020535
-0.016426
-0.011573
-0.005853
0.000880
0.008796
0.018019
0.028681
0.040869
0.054588
0.069698
0.085839
0.102358
0.118262
0.132280
0.143100
0.149844
0.152593
0.152431
-0.042150
-0.042290
-0.042405
-0.042509
-0.042606
-0.042700
-0.042790
-0.042876
-0.042957
-0.043031
-0.043096
-0.043151
-0.043192
-0.043215
-0.043217
-0.043192
-0.043133
-0.043032
-0.042882
-0.042670
-0.042385
-0.042011
-0.041529
-0.040920
-0.040157
-0.039210
-0.038043
-0.036614
-0.034872
-0.032754
-0.030189
-0.027089
-0.023351
-0.018850
-0.013444
-0.006962
0.000806
0.010102
0.021114
0.034039
0.049008
0.066003
0.084748
0.104564
0.124242
0.142034
0.155934
0.164430
0.167506
0.166878
-0.044040
-0.044189
-0.044316
-0.044435
-0.044554
-0.044674
-0.044796
-0.044921
-0.045048
-0.045176
-0.045304
-0.045431
-0.045553
-0.045670
-0.045775
-0.045867
-0.045938
-0.045982
-0.045991
-0.045957
-0.045867
-0.045708
-0.045464
-0.045114
-0.044637
-0.044003
-0.043178
-0.042122
-0.040785
-0.039106
-0.037012
-0.034415
-0.031205
-0.027250
-0.022388
-0.016427
-0.009131
-0.000196
0.010744
0.023977
0.039811
0.058444
0.079804
0.103322
0.127664
0.150545
0.168939
0.180144
0.183702
0.182322
-0.045974
-0.046134
-0.046273
-0.046406
-0.046544
-0.046688
-0.046841
-0.047004
-0.047176
-0.047358
-0.047549
-0.047749
-0.047955
-0.048166
-0.048379
-0.048591
-0.048798
-0.048994
-0.049173
-0.049328
-0.049447
-0.049521
-0.049535
-0.049472
-0.049312
-0.049029
-0.048595
-0.047970
-0.047111
-0.045961
-0.044451
-0.042495
-0.039988
-0.036795
-0.032752
-0.027650
-0.021230
-0.013171
-0.003042
0.009760
0.025664
0.045183
0.068618
0.095751
0.125396
0.154906
0.180011
0.195905
0.200662
0.198526
-0.047955
-0.048126
-0.048275
-0.048421
-0.048576
-0.048742
-0.048924
-0.049122
-0.049338
-0.049572
-0.049824
-0.050096
-0.050385
-0.050692
-0.051015
-0.051352
-0.051699
-0.052052
-0.052408
-0.052761
-0.053102
-0.053423
-0.053714
-0.053960
-0.054146
-0.054251
-0.054250
-0.054113
-0.053800
-0.053266
-0.052450
-0.051277
-0.049653
-0.047457
-0.044534
-0.040685
-0.035652
-0.029102
-0.020600
-0.009572
0.004983
0.023796
0.047672
0.077052
0.111435
0.148543
0.183304
0.207925
0.216679
0.215398
-0.049985
-0.050167
-0.050326
-0.050482
-0.050649
-0.050835
-0.051041
-0.051271
-0.051526
-0.051809
-0.052121
-0.052463
-0.052835
-0.053237
-0.053670
-0.054131
-0.054621
-0.055136
-0.055674
-0.056231
-0.056803
-0.057384
-0.057966
-0.058540
-0.059095
-0.059617
-0.060088
-0.060486
-0.060782
-0.060943
-0.060923
-0.060666
-0.060101
-0.059134
-0.057644
-0.055471
-0.052401
-0.048148
-0.042322
-0.034391
-0.023643
-0.008637
0.012160
0.039778
0.075105
0.117897
0.164452
0.204573
0.225739
0.230824
-0.052068
-0.052263
-0.052428
-0.052590
-0.052766
-0.052965
-0.053190
-0.053446
-0.053737
-0.054064
-0.054431
-0.054839
-0.055290
-0.055786
-0.056327
-0.056914
-0.057546
-0.058224
-0.058946
-0.059712
-0.060520
-0.061368
-0.062251
-0.063167
-0.064109
-0.065070
-0.066042
-0.067012
-0.067966
-0.068886
-0.069748
-0.070523
-0.071172
-0.071646
-0.071883
-0.071798
-0.071280
-0.070175
-0.068272
-0.065269
-0.060731
-0.054018
-0.043657
-0.026059
0.000606
0.041118
0.097955
0.161519
0.210366
0.231317
-0.054213
-0.054420
-0.054589
-0.054752
-0.054930
-0.055134
-0.055371
-0.055646
-0.055963
-0.056328
-0.056744
-0.057214
-0.057740
-0.058325
-0.058971
-0.059680
-0.060453
-0.061293
-0.062200
-0.063175
-0.064221
-0.065338
-0.066528
-0.067792
-0.069130
-0.070544
-0.072035
-0.073602
-0.075247
-0.076971
-0.078776
-0.080665
-0.082644
-0.084726
-0.086928
-0.089282
-0.091841
-0.094689
-0.097963
-0.101883
-0.106795
-0.113155
-0.121121
-0.129048
-0.126822
-0.102268
-0.040860
0.051015
0.141141
0.186709
-0.056431
-0.056652
-0.056819
-0.056974
-0.057144
-0.057344
-0.057582
-0.057865
-0.058201
-0.058595
-0.059052
-0.059576
-0.060170
-0.060839
-0.061585
-0.062412
-0.063322
-0.064319
-0.065407
-0.066589
-0.067870
-0.069256
-0.070751
-0.072363
-0.074099
-0.075968
-0.077983
-0.080155
-0.082504
-0.085051
-0.087827
-0.090873
-0.094246
-0.098030
-0.102343
-0.107364
-0.113366
-0.120769
-0.130246
-0.142894
-0.160513
-0.185793
-0.221356
-0.265592
-0.305643
-0.310484
-0.252112
-0.134808
-0.001762
0.071649
-0.058742
-0.058976
-0.059135
-0.059270
-0.059419
-0.059599
-0.059824
-0.060103
-0.060445
-0.060856
-0.061344
-0.061912
-0.062567
-0.063312
-0.064151
-0.065089
-0.066129
-0.067278
-0.068540
-0.069923
-0.071433
-0.073080
-0.074873
-0.076825
-0.078951
-0.081268
-0.083798
-0.086568
-0.089611
-0.092973
-0.096712
-0.100907
-0.105671
-0.111159
-0.117601
-0.125337
-0.134889
-0.147078
-0.163244
-0.185645
-0.218088
-0.266316
-0.335930
-0.424449
-0.510374
-0.549962
-0.501629
-0.370097
-0.205503
-0.107796
-0.061171
-0.061418
-0.061557
-0.061657
-0.061765
-0.061907
-0.062099
-0.062356
-0.062688
-0.063103
-0.063609
-0.064212
-0.064916
-0.065728
-0.066651
-0.067691
-0.068854
-0.070145
-0.071573
-0.073146
-0.074874
-0.076770
-0.078849
-0.081127
-0.083626
-0.086371
-0.089394
-0.092734
-0.096441
-0.100579
-0.105234
-0.110521
-0.116600
-0.123696
-0.132140
-0.142424
-0.155305
-0.171993
-0.194484
-0.226197
-0.272913
-0.343202
-0.444948
-0.573722
-0.698851
-0.767503
-0.732992
-0.602354
-0.425851
-0.313538
-0.063758
-0.064016
-0.064120
-0.064159
-0.064198
-0.064275
-0.064410
-0.064623
-0.064925
-0.065326
-0.065836
-0.066460
-0.067203
-0.068070
-0.069068
-0.070200
-0.071474
-0.072897
-0.074478
-0.076228
-0.078160
-0.080289
-0.082634
-0.085216
-0.088063
-0.091207
-0.094688
-0.098555
-0.102874
-0.107723
-0.113212
-0.119483
-0.126735
-0.135249
-0.145430
-0.157884
-0.173543
-0.193892
-0.221389
-0.260213
-0.317339
-0.402793
-0.525227
-0.678462
-0.826374
-0.910807
-0.889244
-0.773325
-0.607131
-0.494013
-0.066558
-0.066826
-0.066866
-0.066808
-0.066740
-0.066714
-0.066759
-0.066898
-0.067147
-0.067515
-0.068012
-0.068642
-0.069411
-0.070322
-0.071382
-0.072595
-0.073969
-0.075510
-0.077231
-0.079142
-0.081259
-0.083600
-0.086187
-0.089046
-0.092208
-0.095711
-0.099603
-0.103942
-0.108802
-0.114276
-0.120486
-0.127597
-0.135830
-0.145497
-0.157045
-0.171135
-0.188773
-0.211544
-0.242024
-0.284487
-0.345833
-0.435478
-0.560910
-0.715207
-0.862955
-0.947668
-0.935261
-0.843546
-0.706266
-0.606474
-0.069657
-0.069926
-0.069862
-0.069648
-0.069416
-0.069235
-0.069147
-0.069178
-0.069344
-0.069656
-0.070121
-0.070742
-0.071523
-0.072467
-0.073577
-0.074859
-0.076318
-0.077964
-0.079808
-0.081862
-0.084143
-0.086673
-0.089473
-0.092575
-0.096013
-0.099830
-0.104078
-0.108821
-0.114139
-0.120133
-0.126935
-0.134716
-0.143707
-0.154225
-0.166720
-0.181845
-0.200576
-0.224406
-0.255688
-0.298135
-0.357420
-0.440302
-0.550993
-0.683225
-0.807896
-0.877531
-0.873607
-0.809880
-0.708974
-0.631990
-0.073183
-0.073439
-0.073197
-0.072738
-0.072256
-0.071849
-0.071571
-0.071449
-0.071501
-0.071732
-0.072146
-0.072742
-0.073522
-0.074486
-0.075634
-0.076972
-0.078504
-0.080239
-0.082188
-0.084365
-0.086788
-0.089478
-0.092462
-0.095770
-0.099441
-0.103519
-0.108061
-0.113133
-0.118819
-0.125224
-0.132477
-0.140752
-0.150270
-0.161336
-0.174368
-0.189958
-0.208968
-0.232671
-0.262987
-0.302637
-0.355052
-0.424890
-0.514029
-0.615195
-0.703892
-0.746008
-0.734128
-0.691244
-0.628763
-0.576475
-0.077341
-0.077549
-0.076999
-0.076148
-0.075290
-0.074560
-0.074020
-0.073695
-0.073596
-0.073720
-0.074065
-0.074623
-0.075390
-0.076362
-0.077538
-0.078919
-0.080510
-0.082319
-0.084355
-0.086634
-0.089173
-0.091996
-0.095128
-0.098603
-0.102460
-0.106746
-0.111517
-0.116841
-0.122802
-0.129504
-0.137072
-0.145669
-0.155503
-0.166845
-0.180062
-0.195654
-0.214323
-0.237064
-0.265017
-0.299920
-0.344079
-0.399569
-0.466019
-0.535904
-0.590059
-0.606204
-0.583404
-0.544391
-0.502530
-0.460394
-0.082478
-0.082553
-0.081450
-0.079961
-0.078538
-0.077354
-0.076466
-0.075883
-0.075597
-0.075593
-0.075853
-0.076362
-0.077106
-0.078077
-0.079271
-0.080685
-0.082322
-0.084188
-0.086293
-0.088652
-0.091283
-0.094208
-0.097455
-0.101057
-0.105052
-0.109489
-0.114424
-0.119924
-0.126070
-0.132961
-0.140717
-0.149487
-0.159455
-0.170857
-0.183997
-0.199277
-0.217232
-0.238392
-0.263497
-0.293646
-0.329847
-0.372529
-0.419899
-0.464950
-0.493449
-0.490848
-0.458425
-0.414111
-0.358228
-0.293539
-0.089222
-0.088945
-0.086794
-0.084249
-0.081986
-0.080188
-0.078858
-0.077963
-0.077461
-0.077311
-0.077478
-0.077930
-0.078646
-0.079610
-0.080813
-0.082250
-0.083921
-0.085830
-0.087986
-0.090403
-0.093100
-0.096098
-0.099425
-0.103113
-0.107202
-0.111737
-0.116774
-0.122378
-0.128627
-0.135614
-0.143450
-0.152271
-0.162240
-0.173555
-0.186457
-0.201272
-0.218303
-0.237838
-0.260423
-0.286506
-0.316317
-0.349347
-0.383189
-0.411701
-0.424251
-0.410425
-0.369298
-0.304068
-0.188522
-0.046150
-0.098858
-0.097589
-0.093319
-0.089009
-0.085538
-0.082957
-0.081097
-0.079846
-0.079107
-0.078804
-0.078874
-0.079267
-0.079951
-0.080903
-0.082108
-0.083560
-0.085255
-0.087189
-0.089377
-0.091832
-0.094571
-0.097616
-0.100992
-0.104731
-0.108873
-0.113461
-0.118550
-0.124201
-0.130490
-0.137505
-0.145348
-0.154145
-0.164046
-0.175219
-0.187822
-0.202105
-0.218300
-0.236619
-0.257305
-0.280479
-0.305952
-0.332779
-0.358415
-0.377496
-0.381481
-0.361640
-0.307356
-0.187594
0.073796
0.393821
-0.114654
-0.110184
-0.101212
-0.094004
-0.088880
-0.085392
-0.082917
-0.081266
-0.080269
-0.079809
-0.079781
-0.080113
-0.080761
-0.081694
-0.082895
-0.084353
-0.086070
-0.088009
-0.090213
-0.092691
-0.095457
-0.098531
-0.101938
-0.105710
-0.109882
-0.114498
-0.119612
-0.125284
-0.131586
-0.138603
-0.146433
-0.155191
-0.165010
-0.176039
-0.188434
-0.202382
-0.218061
-0.235626
-0.255180
-0.276670
-0.299679
-0.323048
-0.344174
-0.357997
-0.356900
-0.328479
-0.235954
0.014933
0.576161
1.277406
-0.145099
-0.128595
-0.110136
-0.097746
-0.090204
-0.085764
-0.082533
-0.080584
-0.079480
-0.078937
-0.078868
-0.079193
-0.079854
-0.080815
-0.082052
-0.083551
-0.085303
-0.087298
-0.089553
-0.092081
-0.094897
-0.098021
-0.101477
-0.105298
-0.109517
-0.114181
-0.119341
-0.125057
-0.131401
-0.138455
-0.146315
-0.155094
-0.164917
-0.175925
-0.188269
-0.202112
-0.217604
-0.234863
-0.253915
-0.274590
-0.296285
-0.317584
-0.335462
-0.344306
-0.334884
-0.269221
-0.068599
0.451211
1.537494
2.957514
-0.247846
-0.110391
-0.081919
-0.073981
-0.071018
-0.069796
-0.069198
-0.069138
-0.069462
-0.070054
-0.070898
-0.071975
-0.073268
-0.074768
-0.076471
-0.078376
-0.080485
-0.082802
-0.085344
-0.088131
-0.091181
-0.094520
-0.098174
-0.102177
-0.106568
-0.111392
-0.116703
-0.122562
-0.129043
-0.136229
-0.144217
-0.153117
-0.163055
-0.174169
-0.186605
-0.200516
-0.216038
-0.233255
-0.252137
-0.272399
-0.293209
-0.312671
-0.326343
-0.324409
-0.278582
-0.130142
0.253618
1.133239
2.816648
5.075100
