# vtk DataFile Version 3.0
Vector Field
ASCII
DATASET RECTILINEAR_GRID
DIMENSIONS 50 50 1
X_COORDINATES 50 double
0.100000 0.300000 0.500000 0.700000 0.900000 1.100000 1.300000 1.500000 1.700000 1.900000 2.100000 2.300000 2.500000 2.700000 2.900000 3.100000 3.300000 3.500000 3.700000 3.900000 4.100000 4.300000 4.500000 4.700000 4.900000 5.100000 5.300000 5.500000 5.700000 5.900000 6.100000 6.300000 6.500000 6.700000 6.900000 7.100000 7.300000 7.500000 7.700000 7.900000 8.100000 8.300000 8.500000 8.700000 8.900000 9.100000 9.300000 9.500000 9.700000 9.900000 
Y_COORDINATES 50 double
0.100000 0.300000 0.500000 0.700000 0.900000 1.100000 1.300000 1.500000 1.700000 1.900000 2.100000 2.300000 2.500000 2.700000 2.900000 3.100000 3.300000 3.500000 3.700000 3.900000 4.100000 4.300000 4.500000 4.700000 4.900000 5.100000 5.300000 5.500000 5.700000 5.900000 6.100000 6.300000 6.500000 6.700000 6.900000 7.100000 7.300000 7.500000 7.700000 7.900000 8.100000 8.300000 8.500000 8.700000 8.900000 9.100000 9.300000 9.500000 9.700000 9.900000 
Z_COORDINATES 1 double
0.0
POINT_DATA 2500
VECTORS Vektorfeld double
0.000018 -0.000018 0.0
0.000043 -0.000008 0.0
0.000033 0.000018 0.0
-0.000034 0.000049 0.0
-0.000159 0.000077 0.0
-0.000337 0.000101 0.0
-0.000558 0.000120 0.0
-0.000814 0.000135 0.0
-0.001096 0.000147 0.0
-0.001396 0.000154 0.0
-0.001709 0.000158 0.0
-0.002027 0.000160 0.0
-0.002346 0.000159 0.0
-0.002661 0.000156 0.0
-0.002968 0.000151 0.0
-0.003265 0.000145 0.0
-0.003546 0.000137 0.0
-0.003811 0.000127 0.0
-0.004055 0.000117 0.0
-0.004276 0.000104 0.0
-0.004471 0.000091 0.0
-0.004638 0.000076 0.0
-0.004775 0.000060 0.0
-0.004879 0.000043 0.0
-0.004947 0.000025 0.0
-0.004978 0.000006 0.0
-0.004971 -0.000014 0.0
-0.004923 -0.000034 0.0
-0.004835 -0.000054 0.0
-0.004706 -0.000075 0.0
-0.004536 -0.000095 0.0
-0.004327 -0.000114 0.0
-0.004081 -0.000132 0.0
-0.003802 -0.000148 0.0
-0.003492 -0.000162 0.0
-0.003158 -0.000173 0.0
-0.002805 -0.000180 0.0
-0.002440 -0.000185 0.0
-0.002071 -0.000185 0.0
-0.001705 -0.000181 0.0
-0.001351 -0.000173 0.0
-0.001019 -0.000160 0.0
-0.000716 -0.000142 0.0
-0.000453 -0.000121 0.0
-0.000238 -0.000095 0.0
-0.000077 -0.000066 0.0
0.000025 -0.000035 0.0
0.000066 -0.000006 0.0
0.000055 0.000017 0.0
0.000019 0.000019 0.0
0.000008 -0.000043 0.0
-0.000012 0.000013 0.0
-0.000130 0.000126 0.0
-0.000377 0.000254 0.0
-0.000756 0.000376 0.0
-0.001259 0.000482 0.0
-0.001869 0.000570 0.0
-0.002566 0.000639 0.0
-0.003330 0.000690 0.0
-0.004143 0.000725 0.0
-0.004988 0.000745 0.0
-0.005849 0.000753 0.0
-0.006712 0.000749 0.0
-0.007566 0.000735 0.0
-0.008399 0.000713 0.0
-0.009201 0.000682 0.0
-0.009963 0.000644 0.0
-0.010677 0.000599 0.0
-0.011335 0.000547 0.0
-0.011929 0.000489 0.0
-0.012452 0.000425 0.0
-0.012899 0.000355 0.0
-0.013261 0.000280 0.0
-0.013533 0.000199 0.0
-0.013709 0.000114 0.0
-0.013785 0.000025 0.0
-0.013756 -0.000068 0.0
-0.013621 -0.000163 0.0
-0.013376 -0.000258 0.0
-0.013023 -0.000353 0.0
-0.012563 -0.000446 0.0
-0.012000 -0.000535 0.0
-0.011340 -0.000617 0.0
-0.010592 -0.000691 0.0
-0.009766 -0.000754 0.0
-0.008875 -0.000805 0.0
-0.007935 -0.000841 0.0
-0.006964 -0.000861 0.0
-0.005980 -0.000862 0.0
-0.005006 -0.000844 0.0
-0.004062 -0.000807 0.0
-0.003171 -0.000749 0.0
-0.002356 -0.000671 0.0
-0.001638 -0.000574 0.0
-0.001036 -0.000460 0.0
-0.000564 -0.000333 0.0
-0.000234 -0.000200 0.0
-0.000043 -0.000073 0.0
0.000026 0.000026 0.0
0.000017 0.000056 0.0
-0.000018 -0.000034 0.0
-0.000126 0.000131 0.0
-0.000396 0.000396 0.0
-0.000851 0.000686 0.0
-0.001492 0.000964 0.0
-0.002306 0.001210 0.0
-0.003270 0.001416 0.0
-0.004360 0.001579 0.0
-0.005548 0.001701 0.0
-0.006808 0.001786 0.0
-0.008114 0.001835 0.0
-0.009444 0.001854 0.0
-0.010778 0.001845 0.0
-0.012095 0.001811 0.0
-0.013380 0.001755 0.0
-0.014617 0.001678 0.0
-0.015791 0.001584 0.0
-0.016890 0.001472 0.0
-0.017901 0.001343 0.0
-0.018813 0.001199 0.0
-0.019614 0.001040 0.0
-0.020295 0.000867 0.0
-0.020845 0.000680 0.0
-0.021255 0.000481 0.0
-0.021518 0.000271 0.0
-0.021626 0.000052 0.0
-0.021574 -0.000175 0.0
-0.021358 -0.000407 0.0
-0.020976 -0.000641 0.0
-0.020429 -0.000872 0.0
-0.019719 -0.001097 0.0
-0.018853 -0.001312 0.0
-0.017841 -0.001512 0.0
-0.016695 -0.001690 0.0
-0.015432 -0.001844 0.0
-0.014071 -0.001967 0.0
-0.012636 -0.002054 0.0
-0.011153 -0.002102 0.0
-0.009651 -0.002107 0.0
-0.008160 -0.002065 0.0
-0.006713 -0.001977 0.0
-0.005342 -0.001840 0.0
-0.004079 -0.001657 0.0
-0.002955 -0.001430 0.0
-0.001996 -0.001166 0.0
-0.001222 -0.000873 0.0
-0.000646 -0.000568 0.0
-0.000267 -0.000276 0.0
-0.000067 -0.000040 0.0
-0.000004 0.000068 0.0
-0.000049 0.000033 0.0
-0.000258 0.000381 0.0
-0.000698 0.000854 0.0
-0.001373 0.001358 0.0
-0.002278 0.001838 0.0
-0.003393 0.002265 0.0
-0.004690 0.002623 0.0
-0.006139 0.002911 0.0
-0.007709 0.003127 0.0
-0.009365 0.003276 0.0
-0.011079 0.003364 0.0
-0.012821 0.003397 0.0
-0.014565 0.003379 0.0
-0.016288 0.003316 0.0
-0.017966 0.003212 0.0
-0.019580 0.003071 0.0
-0.021111 0.002896 0.0
-0.022543 0.002689 0.0
-0.023859 0.002452 0.0
-0.025043 0.002187 0.0
-0.026083 0.001894 0.0
-0.026964 0.001575 0.0
-0.027673 0.001232 0.0
-0.028200 0.000867 0.0
-0.028535 0.000483 0.0
-0.028668 0.000081 0.0
-0.028593 -0.000332 0.0
-0.028305 -0.000754 0.0
-0.027802 -0.001178 0.0
-0.027086 -0.001598 0.0
-0.026160 -0.002007 0.0
-0.025033 -0.002395 0.0
-0.023717 -0.002756 0.0
-0.022230 -0.003079 0.0
-0.020591 -0.003357 0.0
-0.018827 -0.003579 0.0
-0.016966 -0.003738 0.0
-0.015042 -0.003826 0.0
-0.013091 -0.003836 0.0
-0.011151 -0.003766 0.0
-0.009263 -0.003611 0.0
-0.007468 -0.003372 0.0
-0.005804 -0.003051 0.0
-0.004309 -0.002655 0.0
-0.003014 -0.002194 0.0
-0.001945 -0.001686 0.0
-0.001118 -0.001158 0.0
-0.000535 -0.000648 0.0
-0.000183 -0.000220 0.0
-0.000031 0.000033 0.0
-0.000079 0.000161 0.0
-0.000390 0.000773 0.0
-0.001001 0.001513 0.0
-0.001900 0.002274 0.0
-0.003065 0.002992 0.0
-0.004470 0.003630 0.0
-0.006082 0.004168 0.0
-0.007865 0.004599 0.0
-0.009784 0.004926 0.0
-0.011800 0.005151 0.0
-0.013880 0.005283 0.0
-0.015989 0.005330 0.0
-0.018098 0.005299 0.0
-0.020178 0.005198 0.0
-0.022203 0.005033 0.0
-0.024149 0.004810 0.0
-0.025994 0.004534 0.0
-0.027718 0.004207 0.0
-0.029300 0.003833 0.0
-0.030724 0.003414 0.0
-0.031971 0.002953 0.0
-0.033027 0.002452 0.0
-0.033876 0.001914 0.0
-0.034505 0.001342 0.0
-0.034903 0.000740 0.0
-0.035057 0.000112 0.0
-0.034962 -0.000534 0.0
-0.034612 -0.001191 0.0
-0.034005 -0.001852 0.0
-0.033141 -0.002505 0.0
-0.032028 -0.003140 0.0
-0.030673 -0.003743 0.0
-0.029094 -0.004303 0.0
-0.027308 -0.004806 0.0
-0.025341 -0.005236 0.0
-0.023222 -0.005582 0.0
-0.020986 -0.005831 0.0
-0.018672 -0.005970 0.0
-0.016323 -0.005992 0.0
-0.013982 -0.005890 0.0
-0.011698 -0.005659 0.0
-0.009517 -0.005301 0.0
-0.007484 -0.004819 0.0
-0.005642 -0.004224 0.0
-0.004029 -0.003533 0.0
-0.002674 -0.002772 0.0
-0.001597 -0.001977 0.0
-0.000807 -0.001202 0.0
-0.000299 -0.000525 0.0
-0.000057 -0.000055 0.0
-0.000107 0.000348 0.0
-0.000514 0.001306 0.0
-0.001292 0.002369 0.0
-0.002406 0.003431 0.0
-0.003824 0.004419 0.0
-0.005508 0.005292 0.0
-0.007419 0.006029 0.0
-0.009517 0.006620 0.0
-0.011760 0.007066 0.0
-0.014107 0.007374 0.0
-0.016521 0.007553 0.0
-0.018963 0.007612 0.0
-0.021401 0.007563 0.0
-0.023803 0.007415 0.0
-0.026139 0.007177 0.0
-0.028382 0.006856 0.0
-0.030507 0.006458 0.0
-0.032491 0.005990 0.0
-0.034312 0.005454 0.0
-0.035949 0.004854 0.0
-0.037384 0.004195 0.0
-0.038597 0.003480 0.0
-0.039572 0.002712 0.0
-0.040295 0.001896 0.0
-0.040751 0.001039 0.0
-0.040929 0.000146 0.0
-0.040820 -0.000772 0.0
-0.040418 -0.001705 0.0
-0.039721 -0.002642 0.0
-0.038731 -0.003568 0.0
-0.037454 -0.004468 0.0
-0.035900 -0.005323 0.0
-0.034087 -0.006117 0.0
-0.032036 -0.006829 0.0
-0.029775 -0.007441 0.0
-0.027339 -0.007933 0.0
-0.024765 -0.008289 0.0
-0.022097 -0.008494 0.0
-0.019383 -0.008533 0.0
-0.016674 -0.008399 0.0
-0.014022 -0.008086 0.0
-0.011480 -0.007597 0.0
-0.009100 -0.006936 0.0
-0.006929 -0.006120 0.0
-0.005010 -0.005170 0.0
-0.003378 -0.004122 0.0
-0.002058 -0.003023 0.0
-0.001067 -0.001938 0.0
-0.000408 -0.000956 0.0
-0.000081 -0.000194 0.0
-0.000132 0.000587 0.0
-0.000629 0.001970 0.0
-0.001563 0.003416 0.0
-0.002884 0.004819 0.0
-0.004543 0.006108 0.0
-0.006494 0.007239 0.0
-0.008690 0.008190 0.0
-0.011085 0.008951 0.0
-0.013632 0.009525 0.0
-0.016289 0.009919 0.0
-0.019011 0.010144 0.0
-0.021761 0.010214 0.0
-0.024501 0.010140 0.0
-0.027197 0.009936 0.0
-0.029816 0.009612 0.0
-0.032330 0.009178 0.0
-0.034711 0.008642 0.0
-0.036933 0.008012 0.0
-0.038972 0.007292 0.0
-0.040806 0.006487 0.0
-0.042414 0.005604 0.0
-0.043774 0.004645 0.0
-0.044869 0.003617 0.0
-0.045683 0.002526 0.0
-0.046198 0.001380 0.0
-0.046404 0.000189 0.0
-0.046290 -0.001037 0.0
-0.045849 -0.002282 0.0
-0.045079 -0.003532 0.0
-0.043980 -0.004767 0.0
-0.042560 -0.005967 0.0
-0.040830 -0.007108 0.0
-0.038808 -0.008167 0.0
-0.036517 -0.009119 0.0
-0.033989 -0.009939 0.0
-0.031260 -0.010601 0.0
-0.028373 -0.011083 0.0
-0.025374 -0.011366 0.0
-0.022318 -0.011431 0.0
-0.019260 -0.011268 0.0
-0.016257 -0.010871 0.0
-0.013370 -0.010241 0.0
-0.010654 -0.009388 0.0
-0.008164 -0.008329 0.0
-0.005947 -0.007096 0.0
-0.004046 -0.005730 0.0
-0.002491 -0.004289 0.0
-0.001307 -0.002848 0.0
-0.000507 -0.001503 0.0
-0.000103 -0.000378 0.0
-0.000155 0.000874 0.0
-0.000734 0.002758 0.0
-0.001815 0.004643 0.0
-0.003330 0.006428 0.0
-0.005219 0.008047 0.0
-0.007425 0.009457 0.0
-0.009892 0.010636 0.0
-0.012569 0.011577 0.0
-0.015406 0.012283 0.0
-0.018353 0.012765 0.0
-0.021367 0.013035 0.0
-0.024404 0.013110 0.0
-0.027426 0.013005 0.0
-0.030395 0.012736 0.0
-0.033279 0.012315 0.0
-0.036045 0.011755 0.0
-0.038664 0.011066 0.0
-0.041109 0.010256 0.0
-0.043355 0.009332 0.0
-0.045375 0.008302 0.0
-0.047148 0.007170 0.0
-0.048652 0.005943 0.0
-0.049866 0.004628 0.0
-0.050772 0.003234 0.0
-0.051354 0.001770 0.0
-0.051597 0.000248 0.0
-0.051489 -0.001317 0.0
-0.051023 -0.002908 0.0
-0.050196 -0.004504 0.0
-0.049007 -0.006082 0.0
-0.047463 -0.007616 0.0
-0.045577 -0.009076 0.0
-0.043365 -0.010433 0.0
-0.040855 -0.011654 0.0
-0.038078 -0.012709 0.0
-0.035074 -0.013565 0.0
-0.031888 -0.014194 0.0
-0.028572 -0.014569 0.0
-0.025184 -0.014672 0.0
-0.021785 -0.014485 0.0
-0.018439 -0.014002 0.0
-0.015211 -0.013226 0.0
-0.012163 -0.012166 0.0
-0.009357 -0.010847 0.0
-0.006847 -0.009305 0.0
-0.004680 -0.007590 0.0
-0.002897 -0.005767 0.0
-0.001528 -0.003923 0.0
-0.000597 -0.002159 0.0
-0.000121 -0.000602 0.0
-0.000176 0.001205 0.0
-0.000831 0.003661 0.0
-0.002048 0.006038 0.0
-0.003747 0.008247 0.0
-0.005854 0.010224 0.0
-0.008303 0.011933 0.0
-0.011030 0.013354 0.0
-0.013977 0.014483 0.0
-0.017089 0.015326 0.0
-0.020314 0.015895 0.0
-0.023604 0.016208 0.0
-0.026915 0.016284 0.0
-0.030204 0.016142 0.0
-0.033433 0.015798 0.0
-0.036568 0.015270 0.0
-0.039574 0.014572 0.0
-0.042422 0.013715 0.0
-0.045081 0.012711 0.0
-0.047526 0.011567 0.0
-0.049729 0.010291 0.0
-0.051667 0.008891 0.0
-0.053315 0.007374 0.0
-0.054653 0.005749 0.0
-0.055660 0.004026 0.0
-0.056318 0.002217 0.0
-0.056610 0.000336 0.0
-0.056524 -0.001599 0.0
-0.056049 -0.003566 0.0
-0.055182 -0.005541 0.0
-0.053922 -0.007495 0.0
-0.052273 -0.009395 0.0
-0.050248 -0.011208 0.0
-0.047865 -0.012895 0.0
-0.045151 -0.014417 0.0
-0.042138 -0.015736 0.0
-0.038868 -0.016812 0.0
-0.035391 -0.017610 0.0
-0.031763 -0.018098 0.0
-0.028045 -0.018249 0.0
-0.024305 -0.018046 0.0
-0.020612 -0.017479 0.0
-0.017039 -0.016550 0.0
-0.013656 -0.015272 0.0
-0.010530 -0.013673 0.0
-0.007724 -0.011795 0.0
-0.005293 -0.009697 0.0
-0.003284 -0.007452 0.0
-0.001735 -0.005155 0.0
-0.000678 -0.002915 0.0
-0.000138 -0.000861 0.0
-0.000195 0.001577 0.0
-0.000920 0.004669 0.0
-0.002266 0.007592 0.0
-0.004138 0.010264 0.0
-0.006453 0.012630 0.0
-0.009134 0.014658 0.0
-0.012111 0.016334 0.0
-0.015318 0.017658 0.0
-0.018695 0.018640 0.0
-0.022188 0.019298 0.0
-0.025745 0.019652 0.0
-0.029318 0.019724 0.0
-0.032865 0.019538 0.0
-0.036345 0.019112 0.0
-0.039723 0.018468 0.0
-0.042963 0.017621 0.0
-0.046034 0.016585 0.0
-0.048905 0.015372 0.0
-0.051548 0.013993 0.0
-0.053936 0.012456 0.0
-0.056042 0.010770 0.0
-0.057843 0.008944 0.0
-0.059314 0.006988 0.0
-0.060434 0.004914 0.0
-0.061182 0.002734 0.0
-0.061540 0.000468 0.0
-0.061493 -0.001864 0.0
-0.061030 -0.004238 0.0
-0.060143 -0.006623 0.0
-0.058831 -0.008986 0.0
-0.057097 -0.011287 0.0
-0.054951 -0.013487 0.0
-0.052411 -0.015538 0.0
-0.049504 -0.017395 0.0
-0.046265 -0.019010 0.0
-0.042736 -0.020336 0.0
-0.038970 -0.021329 0.0
-0.035026 -0.021950 0.0
-0.030973 -0.022168 0.0
-0.026883 -0.021958 0.0
-0.022833 -0.021310 0.0
-0.018902 -0.020223 0.0
-0.015171 -0.018714 0.0
-0.011713 -0.016814 0.0
-0.008602 -0.014572 0.0
-0.005900 -0.012054 0.0
-0.003662 -0.009342 0.0
-0.001935 -0.006540 0.0
-0.000756 -0.003766 0.0
-0.000154 -0.001153 0.0
-0.000213 0.001985 0.0
-0.001004 0.005778 0.0
-0.002471 0.009296 0.0
-0.004509 0.012470 0.0
-0.007023 0.015253 0.0
-0.009928 0.017620 0.0
-0.013145 0.019565 0.0
-0.016604 0.021093 0.0
-0.020240 0.022219 0.0
-0.023992 0.022965 0.0
-0.027808 0.023358 0.0
-0.031639 0.023422 0.0
-0.035438 0.023186 0.0
-0.039165 0.022672 0.0
-0.042782 0.021903 0.0
-0.046253 0.020898 0.0
-0.049547 0.019672 0.0
-0.052632 0.018240 0.0
-0.055477 0.016614 0.0
-0.058057 0.014802 0.0
-0.060341 0.012816 0.0
-0.062306 0.010664 0.0
-0.063925 0.008358 0.0
-0.065174 0.005912 0.0
-0.066031 0.003341 0.0
-0.066475 0.000665 0.0
-0.066490 -0.002093 0.0
-0.066061 -0.004902 0.0
-0.065177 -0.007729 0.0
-0.063835 -0.010534 0.0
-0.062036 -0.013273 0.0
-0.059787 -0.015896 0.0
-0.057106 -0.018350 0.0
-0.054018 -0.020579 0.0
-0.050559 -0.022526 0.0
-0.046773 -0.024135 0.0
-0.042714 -0.025354 0.0
-0.038448 -0.026135 0.0
-0.034046 -0.026438 0.0
-0.029589 -0.026235 0.0
-0.025163 -0.025510 0.0
-0.020854 -0.024262 0.0
-0.016752 -0.022509 0.0
-0.012944 -0.020286 0.0
-0.009509 -0.017647 0.0
-0.006523 -0.014668 0.0
-0.004047 -0.011441 0.0
-0.002136 -0.008079 0.0
-0.000833 -0.004710 0.0
-0.000169 -0.001475 0.0
-0.000230 0.002428 0.0
-0.001084 0.006980 0.0
-0.002667 0.011143 0.0
-0.004863 0.014857 0.0
-0.007570 0.018086 0.0
-0.010692 0.020814 0.0
-0.014144 0.023041 0.0
-0.017849 0.024781 0.0
-0.021737 0.026054 0.0
-0.025746 0.026891 0.0
-0.029817 0.027320 0.0
-0.033901 0.027374 0.0
-0.037950 0.027082 0.0
-0.041922 0.026474 0.0
-0.045779 0.025574 0.0
-0.049484 0.024403 0.0
-0.053004 0.022981 0.0
-0.056308 0.021321 0.0
-0.059366 0.019437 0.0
-0.062147 0.017340 0.0
-0.064623 0.015040 0.0
-0.066768 0.012549 0.0
-0.068553 0.009878 0.0
-0.069952 0.007041 0.0
-0.070942 0.004058 0.0
-0.071498 0.000948 0.0
-0.071600 -0.002260 0.0
-0.071231 -0.005534 0.0
-0.070377 -0.008835 0.0
-0.069030 -0.012118 0.0
-0.067188 -0.015331 0.0
-0.064857 -0.018417 0.0
-0.062051 -0.021315 0.0
-0.058794 -0.023958 0.0
-0.055121 -0.026279 0.0
-0.051077 -0.028212 0.0
-0.046720 -0.029693 0.0
-0.042118 -0.030665 0.0
-0.037349 -0.031078 0.0
-0.032503 -0.030898 0.0
-0.027671 -0.030104 0.0
-0.022955 -0.028693 0.0
-0.018453 -0.026682 0.0
-0.014264 -0.024111 0.0
-0.010479 -0.021041 0.0
-0.007185 -0.017556 0.0
-0.004454 -0.013760 0.0
-0.002347 -0.009778 0.0
-0.000912 -0.005750 0.0
-0.000184 -0.001828 0.0
-0.000246 0.002904 0.0
-0.001161 0.008273 0.0
-0.002857 0.013128 0.0
-0.005208 0.017420 0.0
-0.008102 0.021124 0.0
-0.011437 0.024233 0.0
-0.015119 0.026757 0.0
-0.019067 0.028717 0.0
-0.023204 0.030144 0.0
-0.027466 0.031071 0.0
-0.031791 0.031536 0.0
-0.036128 0.031577 0.0
-0.040427 0.031228 0.0
-0.044646 0.030521 0.0
-0.048746 0.029484 0.0
-0.052690 0.028143 0.0
-0.056444 0.026516 0.0
-0.059977 0.024622 0.0
-0.063257 0.022473 0.0
-0.066255 0.020082 0.0
-0.068940 0.017460 0.0
-0.071284 0.014617 0.0
-0.073258 0.011568 0.0
-0.074834 0.008326 0.0
-0.075983 0.004912 0.0
-0.076680 0.001347 0.0
-0.076900 -0.002336 0.0
-0.076622 -0.006104 0.0
-0.075828 -0.009912 0.0
-0.074505 -0.013710 0.0
-0.072648 -0.017438 0.0
-0.070258 -0.021032 0.0
-0.067345 -0.024419 0.0
-0.063932 -0.027524 0.0
-0.060051 -0.030267 0.0
-0.055749 -0.032570 0.0
-0.051085 -0.034357 0.0
-0.046131 -0.035557 0.0
-0.040973 -0.036113 0.0
-0.035706 -0.035978 0.0
-0.030435 -0.035126 0.0
-0.025272 -0.033550 0.0
-0.020329 -0.031269 0.0
-0.015719 -0.028323 0.0
-0.011548 -0.024783 0.0
-0.007913 -0.020742 0.0
-0.004900 -0.016318 0.0
-0.002577 -0.011649 0.0
-0.000999 -0.006891 0.0
-0.000201 -0.002213 0.0
-0.000262 0.003413 0.0
-0.001237 0.009654 0.0
-0.003043 0.015247 0.0
-0.005546 0.020155 0.0
-0.008625 0.024362 0.0
-0.012170 0.027874 0.0
-0.016081 0.030709 0.0
-0.020269 0.032900 0.0
-0.024655 0.034485 0.0
-0.029169 0.035506 0.0
-0.033749 0.036007 0.0
-0.038340 0.036033 0.0
-0.042892 0.035623 0.0
-0.047362 0.034814 0.0
-0.051710 0.033638 0.0
-0.055900 0.032122 0.0
-0.059898 0.030289 0.0
-0.063672 0.028155 0.0
-0.067190 0.025737 0.0
-0.070421 0.023047 0.0
-0.073336 0.020095 0.0
-0.075904 0.016894 0.0
-0.078093 0.013455 0.0
-0.079874 0.009795 0.0
-0.081214 0.005933 0.0
-0.082085 0.001894 0.0
-0.082458 -0.002290 0.0
-0.082306 -0.006580 0.0
-0.081607 -0.010929 0.0
-0.080343 -0.015279 0.0
-0.078502 -0.019566 0.0
-0.076081 -0.023715 0.0
-0.073084 -0.027644 0.0
-0.069531 -0.031265 0.0
-0.065452 -0.034486 0.0
-0.060891 -0.037214 0.0
-0.055911 -0.039357 0.0
-0.050587 -0.040834 0.0
-0.045011 -0.041570 0.0
-0.039288 -0.041510 0.0
-0.033535 -0.040617 0.0
-0.027878 -0.038880 0.0
-0.022443 -0.036315 0.0
-0.017362 -0.032968 0.0
-0.012755 -0.028916 0.0
-0.008737 -0.024263 0.0
-0.005405 -0.019143 0.0
-0.002838 -0.013713 0.0
-0.001098 -0.008147 0.0
-0.000220 -0.002633 0.0
-0.000278 0.003953 0.0
-0.001312 0.011122 0.0
-0.003228 0.017500 0.0
-0.005882 0.023060 0.0
-0.009146 0.027800 0.0
-0.012901 0.031735 0.0
-0.017040 0.034898 0.0
-0.021469 0.037329 0.0
-0.026104 0.039077 0.0
-0.030872 0.040195 0.0
-0.035709 0.040734 0.0
-0.040556 0.040744 0.0
-0.045365 0.040273 0.0
-0.050092 0.039361 0.0
-0.054696 0.038044 0.0
-0.059141 0.036352 0.0
-0.063394 0.034310 0.0
-0.067422 0.031936 0.0
-0.071195 0.029247 0.0
-0.074680 0.026254 0.0
-0.077847 0.022970 0.0
-0.080665 0.019404 0.0
-0.083099 0.015569 0.0
-0.085116 0.011479 0.0
-0.086684 0.007156 0.0
-0.087767 0.002624 0.0
-0.088332 -0.002083 0.0
-0.088347 -0.006924 0.0
-0.087784 -0.011847 0.0
-0.086618 -0.016791 0.0
-0.084830 -0.021683 0.0
-0.082410 -0.026440 0.0
-0.079358 -0.030968 0.0
-0.075685 -0.035167 0.0
-0.071419 -0.038929 0.0
-0.066604 -0.042146 0.0
-0.061299 -0.044710 0.0
-0.055586 -0.046519 0.0
-0.049562 -0.047485 0.0
-0.043343 -0.047537 0.0
-0.037058 -0.046628 0.0
-0.030849 -0.044737 0.0
-0.024862 -0.041879 0.0
-0.019247 -0.038102 0.0
-0.014145 -0.033491 0.0
-0.009687 -0.028164 0.0
-0.005989 -0.022273 0.0
-0.003141 -0.015996 0.0
-0.001212 -0.009533 0.0
-0.000242 -0.003095 0.0
-0.000294 0.004526 0.0
-0.001388 0.012678 0.0
-0.003414 0.019886 0.0
-0.006221 0.026136 0.0
-0.009670 0.031437 0.0
-0.013636 0.035818 0.0
-0.018004 0.039323 0.0
-0.022676 0.042005 0.0
-0.027563 0.043924 0.0
-0.032588 0.045142 0.0
-0.037684 0.045720 0.0
-0.042793 0.045715 0.0
-0.047864 0.045182 0.0
-0.052853 0.044167 0.0
-0.057721 0.042709 0.0
-0.062431 0.040842 0.0
-0.066952 0.038592 0.0
-0.071249 0.035980 0.0
-0.075294 0.033021 0.0
-0.079055 0.029727 0.0
-0.082499 0.026109 0.0
-0.085594 0.022177 0.0
-0.088305 0.017941 0.0
-0.090595 0.013416 0.0
-0.092428 0.008620 0.0
-0.093765 0.003580 0.0
-0.094566 -0.001672 0.0
-0.094794 -0.007091 0.0
-0.094413 -0.012624 0.0
-0.093390 -0.018204 0.0
-0.091699 -0.023750 0.0
-0.089320 -0.029172 0.0
-0.086246 -0.034363 0.0
-0.082481 -0.039210 0.0
-0.078046 -0.043587 0.0
-0.072982 -0.047368 0.0
-0.067348 -0.050425 0.0
-0.061228 -0.052637 0.0
-0.054725 -0.053894 0.0
-0.047965 -0.054108 0.0
-0.041092 -0.053214 0.0
-0.034267 -0.051185 0.0
-0.027657 -0.048027 0.0
-0.021434 -0.043792 0.0
-0.015763 -0.038573 0.0
-0.010799 -0.032504 0.0
-0.006675 -0.025757 0.0
-0.003499 -0.018536 0.0
-0.001349 -0.011071 0.0
-0.000269 -0.003606 0.0
-0.000311 0.005131 0.0
-0.001465 0.014321 0.0
-0.003603 0.022407 0.0
-0.006565 0.029384 0.0
-0.010202 0.035276 0.0
-0.014382 0.040124 0.0
-0.018983 0.043987 0.0
-0.023901 0.046930 0.0
-0.029042 0.049027 0.0
-0.034327 0.050349 0.0
-0.039687 0.050968 0.0
-0.045061 0.050951 0.0
-0.050400 0.050357 0.0
-0.055659 0.049240 0.0
-0.060799 0.047644 0.0
-0.065785 0.045604 0.0
-0.070584 0.043150 0.0
-0.075167 0.040303 0.0
-0.079502 0.037078 0.0
-0.083559 0.033487 0.0
-0.087306 0.029539 0.0
-0.090708 0.025243 0.0
-0.093728 0.020606 0.0
-0.096329 0.015642 0.0
-0.098468 0.010366 0.0
-0.100103 0.004805 0.0
-0.101189 -0.001010 0.0
-0.101679 -0.007034 0.0
-0.101532 -0.013210 0.0
-0.100704 -0.019468 0.0
-0.099160 -0.025722 0.0
-0.096869 -0.031869 0.0
-0.093815 -0.037794 0.0
-0.089992 -0.043366 0.0
-0.085414 -0.048443 0.0
-0.080114 -0.052876 0.0
-0.074152 -0.056514 0.0
-0.067608 -0.059212 0.0
-0.060596 -0.060835 0.0
-0.053249 -0.061273 0.0
-0.045729 -0.060441 0.0
-0.038216 -0.058297 0.0
-0.030902 -0.054839 0.0
-0.023985 -0.050120 0.0
-0.017660 -0.044241 0.0
-0.012108 -0.037353 0.0
-0.007486 -0.029653 0.0
-0.003924 -0.021378 0.0
-0.001512 -0.012792 0.0
-0.000301 -0.004176 0.0
-0.000327 0.005769 0.0
-0.001544 0.016055 0.0
-0.003798 0.025065 0.0
-0.006918 0.032808 0.0
-0.010747 0.039319 0.0
-0.015145 0.044657 0.0
-0.019983 0.048894 0.0
-0.025151 0.052109 0.0
-0.030551 0.054389 0.0
-0.036100 0.055820 0.0
-0.041727 0.056483 0.0
-0.047372 0.056455 0.0
-0.052984 0.055803 0.0
-0.058518 0.054587 0.0
-0.063937 0.052856 0.0
-0.069207 0.050649 0.0
-0.074298 0.047996 0.0
-0.079179 0.044921 0.0
-0.083823 0.041438 0.0
-0.088197 0.037558 0.0
-0.092270 0.033288 0.0
-0.096008 0.028633 0.0
-0.099371 0.023600 0.0
-0.102320 0.018197 0.0
-0.104808 0.012439 0.0
-0.106788 0.006347 0.0
-0.108208 -0.000046 0.0
-0.109016 -0.006698 0.0
-0.109159 -0.013551 0.0
-0.108584 -0.020530 0.0
-0.107243 -0.027545 0.0
-0.105096 -0.034484 0.0
-0.102112 -0.041219 0.0
-0.098275 -0.047602 0.0
-0.093587 -0.053473 0.0
-0.088074 -0.058658 0.0
-0.081789 -0.062980 0.0
-0.074815 -0.066264 0.0
-0.067265 -0.068346 0.0
-0.059288 -0.069086 0.0
-0.051058 -0.068377 0.0
-0.042779 -0.066153 0.0
-0.034672 -0.062404 0.0
-0.026965 -0.057178 0.0
-0.019888 -0.050585 0.0
-0.013653 -0.042795 0.0
-0.008450 -0.034035 0.0
-0.004431 -0.024578 0.0
-0.001707 -0.014729 0.0
-0.000340 -0.004817 0.0
-0.000345 0.006441 0.0
-0.001626 0.017881 0.0
-0.003998 0.027864 0.0
-0.007281 0.036411 0.0
-0.011309 0.043573 0.0
-0.015930 0.049422 0.0
-0.021010 0.054048 0.0
-0.026433 0.057545 0.0
-0.032096 0.060016 0.0
-0.037913 0.061560 0.0
-0.043812 0.062269 0.0
-0.049730 0.062232 0.0
-0.055618 0.061525 0.0
-0.061433 0.060214 0.0
-0.067137 0.058352 0.0
-0.072699 0.055984 0.0
-0.078090 0.053142 0.0
-0.083282 0.049849 0.0
-0.088247 0.046119 0.0
-0.092957 0.041961 0.0
-0.097379 0.037381 0.0
-0.101480 0.032378 0.0
-0.105218 0.026957 0.0
-0.108552 0.021122 0.0
-0.111431 0.014882 0.0
-0.113804 0.008256 0.0
-0.115611 0.001272 0.0
-0.116792 -0.006028 0.0
-0.117285 -0.013586 0.0
-0.117025 -0.021329 0.0
-0.115953 -0.029159 0.0
-0.114011 -0.036958 0.0
-0.111157 -0.044584 0.0
-0.107358 -0.051873 0.0
-0.102605 -0.058643 0.0
-0.096912 -0.064694 0.0
-0.090322 -0.069818 0.0
-0.082917 -0.073806 0.0
-0.074811 -0.076459 0.0
-0.066162 -0.077601 0.0
-0.057162 -0.077092 0.0
-0.048039 -0.074841 0.0
-0.039042 -0.070820 0.0
-0.030440 -0.065071 0.0
-0.022499 -0.057710 0.0
-0.015474 -0.048929 0.0
-0.009592 -0.038987 0.0
-0.005036 -0.028200 0.0
-0.001943 -0.016924 0.0
-0.000387 -0.005544 0.0
-0.000363 0.007149 0.0
-0.001712 0.019803 0.0
-0.004207 0.030809 0.0
-0.007659 0.040200 0.0
-0.011890 0.048042 0.0
-0.016741 0.054425 0.0
-0.022070 0.059454 0.0
-0.027752 0.063244 0.0
-0.033683 0.065911 0.0
-0.039772 0.067571 0.0
-0.045944 0.068329 0.0
-0.052139 0.068286 0.0
-0.058305 0.067526 0.0
-0.064402 0.066124 0.0
-0.070393 0.064138 0.0
-0.076251 0.061618 0.0
-0.081948 0.058596 0.0
-0.087458 0.055097 0.0
-0.092757 0.051135 0.0
-0.097816 0.046715 0.0
-0.102607 0.041840 0.0
-0.107093 0.036506 0.0
-0.111234 0.030711 0.0
-0.114987 0.024454 0.0
-0.118297 0.017740 0.0
-0.121108 0.010581 0.0
-0.123353 0.003001 0.0
-0.124965 -0.004962 0.0
-0.125871 -0.013254 0.0
-0.125992 -0.021799 0.0
-0.125256 -0.030498 0.0
-0.123591 -0.039225 0.0
-0.120935 -0.047827 0.0
-0.117239 -0.056124 0.0
-0.112477 -0.063908 0.0
-0.106649 -0.070952 0.0
-0.099786 -0.077012 0.0
-0.091962 -0.081841 0.0
-0.083292 -0.085198 0.0
-0.073940 -0.086863 0.0
-0.064114 -0.086655 0.0
-0.054067 -0.084449 0.0
-0.044083 -0.080192 0.0
-0.034472 -0.073913 0.0
-0.025548 -0.065734 0.0
-0.017613 -0.055866 0.0
-0.010941 -0.044606 0.0
-0.005755 -0.032321 0.0
-0.002224 -0.019428 0.0
-0.000444 -0.006376 0.0
-0.000382 0.007893 0.0
-0.001801 0.021826 0.0
-0.004425 0.033907 0.0
-0.008053 0.044182 0.0
-0.012495 0.052734 0.0
-0.017583 0.059672 0.0
-0.023166 0.065119 0.0
-0.029114 0.069210 0.0
-0.035316 0.072078 0.0
-0.041678 0.073856 0.0
-0.048126 0.074665 0.0
-0.054596 0.074616 0.0
-0.061040 0.073806 0.0
-0.067417 0.072317 0.0
-0.073695 0.070215 0.0
-0.079848 0.067551 0.0
-0.085851 0.064362 0.0
-0.091682 0.060673 0.0
-0.097319 0.056495 0.0
-0.102737 0.051832 0.0
-0.107907 0.046682 0.0
-0.112795 0.041037 0.0
-0.117363 0.034888 0.0
-0.121562 0.028228 0.0
-0.125338 0.021053 0.0
-0.128628 0.013368 0.0
-0.131361 0.005192 0.0
-0.133459 -0.003444 0.0
-0.134837 -0.012489 0.0
-0.135408 -0.021871 0.0
-0.135081 -0.031489 0.0
-0.133767 -0.041213 0.0
-0.131386 -0.050878 0.0
-0.127869 -0.060286 0.0
-0.123168 -0.069208 0.0
-0.117265 -0.077383 0.0
-0.110176 -0.084532 0.0
-0.101963 -0.090360 0.0
-0.092736 -0.094576 0.0
-0.082663 -0.096910 0.0
-0.071967 -0.097130 0.0
-0.060924 -0.095065 0.0
-0.049858 -0.090626 0.0
-0.039123 -0.083825 0.0
-0.029087 -0.074781 0.0
-0.020111 -0.063728 0.0
-0.012525 -0.051003 0.0
-0.006605 -0.037030 0.0
-0.002558 -0.022298 0.0
-0.000512 -0.007331 0.0
-0.000402 0.008677 0.0
-0.001895 0.023954 0.0
-0.004654 0.037163 0.0
-0.008465 0.048364 0.0
-0.013127 0.057657 0.0
-0.018460 0.065170 0.0
-0.024304 0.071048 0.0
-0.030522 0.075446 0.0
-0.036997 0.078519 0.0
-0.043634 0.080415 0.0
-0.050355 0.081274 0.0
-0.057098 0.081220 0.0
-0.063815 0.080362 0.0
-0.070466 0.078790 0.0
-0.077024 0.076578 0.0
-0.083465 0.073781 0.0
-0.089768 0.070439 0.0
-0.095916 0.066575 0.0
-0.101888 0.062202 0.0
-0.107664 0.057319 0.0
-0.113217 0.051919 0.0
-0.118516 0.045988 0.0
-0.123521 0.039510 0.0
-0.128186 0.032470 0.0
-0.132454 0.024854 0.0
-0.136257 0.016660 0.0
-0.139519 0.007895 0.0
-0.142152 -0.001416 0.0
-0.144062 -0.011229 0.0
-0.145148 -0.021475 0.0
-0.145304 -0.032057 0.0
-0.144421 -0.042841 0.0
-0.142399 -0.053653 0.0
-0.139145 -0.064281 0.0
-0.134590 -0.074469 0.0
-0.128690 -0.083925 0.0
-0.121442 -0.092327 0.0
-0.112889 -0.099330 0.0
-0.103135 -0.104587 0.0
-0.092343 -0.107764 0.0
-0.080749 -0.108566 0.0
-0.068653 -0.106767 0.0
-0.056415 -0.102228 0.0
-0.044442 -0.094932 0.0
-0.033163 -0.084989 0.0
-0.023008 -0.072651 0.0
-0.014374 -0.058300 0.0
-0.007602 -0.042425 0.0
-0.002953 -0.025599 0.0
-0.000593 -0.008436 0.0
-0.000423 0.009502 0.0
-0.001994 0.026193 0.0
-0.004896 0.040586 0.0
-0.008899 0.052755 0.0
-0.013790 0.062819 0.0
-0.019376 0.070927 0.0
-0.025488 0.077247 0.0
-0.031980 0.081957 0.0
-0.038730 0.085234 0.0
-0.045640 0.087247 0.0
-0.052630 0.088153 0.0
-0.059637 0.088092 0.0
-0.066616 0.087185 0.0
-0.073531 0.085534 0.0
-0.080356 0.083217 0.0
-0.087070 0.080297 0.0
-0.093659 0.076815 0.0
-0.100109 0.072796 0.0
-0.106404 0.068248 0.0
-0.112526 0.063171 0.0
-0.118455 0.057549 0.0
-0.124160 0.051362 0.0
-0.129604 0.044587 0.0
-0.134742 0.037196 0.0
-0.139515 0.029168 0.0
-0.143852 0.020487 0.0
-0.147672 0.011151 0.0
-0.150882 0.001172 0.0
-0.153374 -0.009413 0.0
-0.155036 -0.020543 0.0
-0.155745 -0.032125 0.0
-0.155374 -0.044026 0.0
-0.153800 -0.056066 0.0
-0.150905 -0.068017 0.0
-0.146592 -0.079601 0.0
-0.140790 -0.090494 0.0
-0.133471 -0.100326 0.0
-0.124655 -0.108699 0.0
-0.114428 -0.115200 0.0
-0.102948 -0.119422 0.0
-0.090453 -0.120996 0.0
-0.077267 -0.119620 0.0
-0.063785 -0.115095 0.0
-0.050468 -0.107355 0.0
-0.037817 -0.096495 0.0
-0.026339 -0.082778 0.0
-0.016515 -0.066630 0.0
-0.008765 -0.048617 0.0
-0.003416 -0.029406 0.0
-0.000688 -0.009717 0.0
-0.000446 0.010371 0.0
-0.002099 0.028549 0.0
-0.005152 0.044184 0.0
-0.009358 0.057365 0.0
-0.014488 0.068230 0.0
-0.020336 0.076950 0.0
-0.026722 0.083721 0.0
-0.033491 0.088744 0.0
-0.040516 0.092222 0.0
-0.047694 0.094346 0.0
-0.054943 0.095293 0.0
-0.062204 0.095220 0.0
-0.069429 0.094262 0.0
-0.076588 0.092530 0.0
-0.083657 0.090115 0.0
-0.090622 0.087080 0.0
-0.097472 0.083472 0.0
-0.104198 0.079314 0.0
-0.110790 0.074616 0.0
-0.117236 0.069371 0.0
-0.123517 0.063558 0.0
-0.129609 0.057150 0.0
-0.135478 0.050113 0.0
-0.141079 0.042408 0.0
-0.146354 0.034003 0.0
-0.151232 0.024867 0.0
-0.155627 0.014985 0.0
-0.159438 0.004357 0.0
-0.162551 -0.006993 0.0
-0.164839 -0.019013 0.0
-0.166165 -0.031620 0.0
-0.166384 -0.044683 0.0
-0.165347 -0.058020 0.0
-0.162912 -0.071392 0.0
-0.158951 -0.084500 0.0
-0.153362 -0.096985 0.0
-0.146084 -0.108432 0.0
-0.137109 -0.118384 0.0
-0.126497 -0.126355 0.0
-0.114391 -0.131854 0.0
-0.101028 -0.134422 0.0
-0.086744 -0.133666 0.0
-0.071970 -0.129304 0.0
-0.057223 -0.121209 0.0
-0.043079 -0.109438 0.0
-0.030136 -0.094257 0.0
-0.018974 -0.076137 0.0
-0.010109 -0.055726 0.0
-0.003955 -0.033800 0.0
-0.000800 -0.011205 0.0
-0.000470 0.011286 0.0
-0.002212 0.031030 0.0
-0.005425 0.047969 0.0
-0.009845 0.062206 0.0
-0.015226 0.073900 0.0
-0.021346 0.083248 0.0
-0.028012 0.090474 0.0
-0.035060 0.095808 0.0
-0.042356 0.099479 0.0
-0.049794 0.101704 0.0
-0.057290 0.102681 0.0
-0.064784 0.102586 0.0
-0.072233 0.101570 0.0
-0.079608 0.099756 0.0
-0.086891 0.097242 0.0
-0.094072 0.094099 0.0
-0.101146 0.090376 0.0
-0.108110 0.086099 0.0
-0.114959 0.081273 0.0
-0.121688 0.075888 0.0
-0.128283 0.069917 0.0
-0.134725 0.063325 0.0
-0.140984 0.056066 0.0
-0.147019 0.048091 0.0
-0.152774 0.039350 0.0
-0.158177 0.029801 0.0
-0.163142 0.019411 0.0
-0.167563 0.008163 0.0
-0.171317 -0.003932 0.0
-0.174266 -0.016836 0.0
-0.176261 -0.030477 0.0