# vtk DataFile Version 3.0
Scalar Field
ASCII
DATASET RECTILINEAR_GRID
DIMENSIONS 50 50 1
X_COORDINATES 50 double
0.100000 0.300000 0.500000 0.700000 0.900000 1.100000 1.300000 1.500000 1.700000 1.900000 2.100000 2.300000 2.500000 2.700000 2.900000 3.100000 3.300000 3.500000 3.700000 3.900000 4.100000 4.300000 4.500000 4.700000 4.900000 5.100000 5.300000 5.500000 5.700000 5.900000 6.100000 6.300000 6.500000 6.700000 6.900000 7.100000 7.300000 7.500000 7.700000 7.900000 8.100000 8.300000 8.500000 8.700000 8.900000 9.100000 9.300000 9.500000 9.700000 9.900000 
Y_COORDINATES 50 double
0.100000 0.300000 0.500000 0.700000 0.900000 1.100000 1.300000 1.500000 1.700000 1.900000 2.100000 2.300000 2.500000 2.700000 2.900000 3.100000 3.300000 3.500000 3.700000 3.900000 4.100000 4.300000 4.500000 4.700000 4.900000 5.100000 5.300000 5.500000 5.700000 5.900000 6.100000 6.300000 6.500000 6.700000 6.900000 7.100000 7.300000 7.500000 7.700000 7.900000 8.100000 8.300000 8.500000 8.700000 8.900000 9.100000 9.300000 9.500000 9.700000 9.900000 
Z_COORDINATES 1 double
0.0
POINT_DATA 2500
SCALARS Skalarfeld double 1
LOOKUP_TABLE default
-0.015808
-0.015823
-0.015786
-0.015687
-0.015523
-0.015297
-0.015008
-0.014655
-0.014238
-0.013758
-0.013214
-0.012606
-0.011933
-0.011195
-0.010393
-0.009527
-0.008596
-0.007603
-0.006548
-0.005431
-0.004256
-0.003023
-0.001735
-0.000396
0.000992
0.002423
0.003893
0.005398
0.006930
0.008483
0.010050
0.011622
0.013191
0.014747
0.016280
0.017780
0.019236
0.020637
0.021972
0.023230
0.024400
0.025470
0.026432
0.027276
0.027993
0.028576
0.029019
0.029316
0.029467
0.029487
-0.015793
-0.015808
-0.015767
-0.015665
-0.015502
-0.015276
-0.014988
-0.014636
-0.014222
-0.013743
-0.013201
-0.012594
-0.011924
-0.011188
-0.010389
-0.009525
-0.008597
-0.007606
-0.006553
-0.005439
-0.004266
-0.003035
-0.001750
-0.000413
0.000973
0.002403
0.003872
0.005376
0.006907
0.008460
0.010027
0.011600
0.013169
0.014726
0.016261
0.017763
0.019221
0.020625
0.021962
0.023223
0.024395
0.025468
0.026433
0.027279
0.027998
0.028583
0.029028
0.029329
0.029486
0.029505
-0.015833
-0.015853
-0.015812
-0.015710
-0.015547
-0.015322
-0.015035
-0.014686
-0.014273
-0.013796
-0.013256
-0.012652
-0.011983
-0.011250
-0.010452
-0.009590
-0.008664
-0.007675
-0.006623
-0.005509
-0.004336
-0.003105
-0.001819
-0.000480
0.000908
0.002341
0.003815
0.005323
0.006861
0.008421
0.009996
0.011577
0.013157
0.014725
0.016271
0.017785
0.019256
0.020673
0.022023
0.023297
0.024482
0.025567
0.026543
0.027399
0.028128
0.028720
0.029171
0.029477
0.029635
0.029650
-0.015941
-0.015964
-0.015924
-0.015824
-0.015662
-0.015438
-0.015152
-0.014804
-0.014393
-0.013919
-0.013381
-0.012778
-0.012112
-0.011380
-0.010584
-0.009723
-0.008798
-0.007809
-0.006757
-0.005642
-0.004467
-0.003233
-0.001942
-0.000598
0.000797
0.002238
0.003721
0.005241
0.006791
0.008365
0.009956
0.011555
0.013153
0.014742
0.016309
0.017846
0.019340
0.020780
0.022154
0.023451
0.024659
0.025766
0.026761
0.027636
0.028380
0.028986
0.029447
0.029760
0.029921
0.029933
-0.016118
-0.016143
-0.016105
-0.016006
-0.015845
-0.015623
-0.015340
-0.014993
-0.014585
-0.014112
-0.013576
-0.012976
-0.012311
-0.011581
-0.010786
-0.009925
-0.009000
-0.008010
-0.006956
-0.005838
-0.004659
-0.003419
-0.002121
-0.000768
0.000638
0.002092
0.003590
0.005126
0.006696
0.008292
0.009906
0.011531
0.013158
0.014776
0.016375
0.017945
0.019472
0.020947
0.022355
0.023686
0.024926
0.026064
0.027089
0.027990
0.028757
0.029382
0.029858
0.030180
0.030346
0.030358
-0.016366
-0.016392
-0.016355
-0.016257
-0.016099
-0.015878
-0.015597
-0.015253
-0.014846
-0.014376
-0.013842
-0.013244
-0.012580
-0.011852
-0.011057
-0.010197
-0.009270
-0.008278
-0.007221
-0.006099
-0.004913
-0.003665
-0.002357
-0.000991
0.000429
0.001900
0.003418
0.004978
0.006574
0.008199
0.009845
0.011504
0.013168
0.014826
0.016467
0.018080
0.019653
0.021173
0.022627
0.024002
0.025286
0.026465
0.027529
0.028464
0.029261
0.029911
0.030407
0.030743
0.030916
0.030929
-0.016682
-0.016709
-0.016674
-0.016578
-0.016421
-0.016203
-0.015924
-0.015583
-0.015179
-0.014711
-0.014179
-0.013583
-0.012922
-0.012194
-0.011400
-0.010539
-0.009611
-0.008616
-0.007554
-0.006425
-0.005232
-0.003973
-0.002652
-0.001271
0.000168
0.001661
0.003205
0.004793
0.006421
0.008082
0.009768
0.011471
0.013181
0.014889
0.016583
0.018250
0.019879
0.021457
0.022968
0.024400
0.025739
0.026971
0.028082
0.029062
0.029897
0.030579
0.031100
0.031453
0.031635
0.031650
-0.017067
-0.017096
-0.017062
-0.016968
-0.016814
-0.016598
-0.016322
-0.015983
-0.015582
-0.015117
-0.014588
-0.013995
-0.013335
-0.012608
-0.011815
-0.010953
-0.010023
-0.009024
-0.007957
-0.006821
-0.005617
-0.004347
-0.003010
-0.001610
-0.000149
0.001371
0.002944
0.004567
0.006234
0.007938
0.009672
0.011427
0.013194
0.014962
0.016719
0.018453
0.020151
0.021798
0.023380
0.024881
0.026287
0.027583
0.028754
0.029788
0.030670
0.031392
0.031943
0.032317
0.032511
0.032528
-0.017520
-0.017551
-0.017520
-0.017428
-0.017276
-0.017063
-0.016790
-0.016455
-0.016057
-0.015596
-0.015070
-0.014479
-0.013821
-0.013096
-0.012303
-0.011441
-0.010509
-0.009506
-0.008433
-0.007288
-0.006074
-0.004789
-0.003434
-0.002013
-0.000526
0.001024
0.002632
0.004295
0.006007
0.007762
0.009552
0.011368
0.013201
0.015040
0.016873
0.018686
0.020465
0.022195
0.023861
0.025445
0.026932
0.028305
0.029549
0.030647
0.031587
0.032356
0.032944
0.033344
0.033553
0.033573
-0.018042
-0.018075
-0.018046
-0.017956
-0.017807
-0.017599
-0.017329
-0.016997
-0.016604
-0.016146
-0.015624
-0.015037
-0.014382
-0.013659
-0.012867
-0.012004
-0.011070
-0.010063
-0.008984
-0.007831
-0.006604
-0.005303
-0.003930
-0.002484
-0.000969
0.000615
0.002262
0.003971
0.005734
0.007547
0.009401
0.011288
0.013197
0.015119
0.017039
0.018944
0.020819
0.022647
0.024411
0.026094
0.027676
0.029141
0.030470
0.031646
0.032654
0.033480
0.034113
0.034544
0.034769
0.034793
-0.018633
-0.018667
-0.018641
-0.018554
-0.018409
-0.018204
-0.017939
-0.017612
-0.017223
-0.016770
-0.016253
-0.015669
-0.015018
-0.014298
-0.013508
-0.012645
-0.011709
-0.010699
-0.009614
-0.008451
-0.007212
-0.005895
-0.004500
-0.003029
-0.001483
0.000138
0.001829
0.003587
0.005408
0.007286
0.009212
0.011179
0.013175
0.015191
0.017212
0.019223
0.021208
0.023150
0.025029
0.026827
0.028522
0.030095
0.031525
0.032793
0.033882
0.034775
0.035461
0.035928
0.036174
0.036202
-0.019291
-0.019328
-0.019304
-0.019221
-0.019080
-0.018880
-0.018619
-0.018298
-0.017915
-0.017468
-0.016956
-0.016378
-0.015731
-0.015015
-0.014227
-0.013366
-0.012430
-0.011417
-0.010326
-0.009155
-0.007903
-0.006569
-0.005153
-0.003655
-0.002075
-0.000415
0.001323
0.003137
0.005020
0.006969
0.008976
0.011032
0.013127
0.015249
0.017384
0.019516
0.021629
0.023701
0.025714
0.027645
0.029471
0.031170
0.032719
0.034095
0.035279
0.036252
0.037000
0.037511
0.037782
0.037815
-0.020018
-0.020057
-0.020037
-0.019958
-0.019821
-0.019626
-0.019372
-0.019057
-0.018680
-0.018240
-0.017735
-0.017163
-0.016523
-0.015812
-0.015029
-0.014170
-0.013235
-0.012220
-0.011124
-0.009945
-0.008682
-0.007331
-0.005893
-0.004367
-0.002753
-0.001051
0.000737
0.002609
0.004561
0.006588
0.008683
0.010838
0.013042
0.015284
0.017547
0.019817
0.022074
0.024297
0.026463
0.028548
0.030526
0.032372
0.034059
0.035563
0.036859
0.037926
0.038747
0.039310
0.039609
0.039648
-0.020812
-0.020854
-0.020837
-0.020763
-0.020631
-0.020443
-0.020195
-0.019888
-0.019519
-0.019087
-0.018591
-0.018027
-0.017395
-0.016691
-0.015913
-0.015060
-0.014127
-0.013112
-0.012014
-0.010828
-0.009554
-0.008188
-0.006729
-0.005175
-0.003526
-0.001780
0.000060
0.001994
0.004019
0.006130
0.008322
0.010584
0.012909
0.015283
0.017691
0.020115
0.022536
0.024930
0.027271
0.029534
0.031689
0.033706
0.035555
0.037206
0.038634
0.039812
0.040720
0.041343
0.041675
0.041723
-0.021673
-0.021719
-0.021706
-0.021637
-0.021511
-0.021330
-0.021090
-0.020791
-0.020432
-0.020010
-0.019524
-0.018971
-0.018348
-0.017653
-0.016884
-0.016037
-0.015109
-0.014097
-0.012998
-0.011808
-0.010525
-0.009146
-0.007667
-0.006086
-0.004402
-0.002613
-0.000719
0.001280
0.003381
0.005582
0.007876
0.010257
0.012713
0.015233
0.017801
0.020399
0.023004
0.025592
0.028135
0.030602
0.032960
0.035175
0.037213
0.039039
0.040620
0.041928
0.042938
0.043633
0.044005
0.044062
-0.022601
-0.022651
-0.022643
-0.022579
-0.022461
-0.022287
-0.022057
-0.021768
-0.021420
-0.021010
-0.020535
-0.019994
-0.019384
-0.018701
-0.017943
-0.017105
-0.016185
-0.015179
-0.014082
-0.012891
-0.011603
-0.010212
-0.008716
-0.007110
-0.005393
-0.003561
-0.001613
0.000452
0.002633
0.004928
0.007332
0.009838
0.012437
0.015117
0.017862
0.020653
0.023465
0.026273
0.029045
0.031746
0.034339
0.036785
0.039043
0.041072
0.042835
0.044296
0.045427
0.046206
0.046625
0.046693
-0.023596
-0.023650
-0.023646
-0.023589
-0.023479
-0.023314
-0.023094
-0.022818
-0.022482
-0.022086
-0.021626
-0.021100
-0.020504
-0.019836
-0.019092
-0.018267
-0.017358
-0.016361
-0.015271
-0.014083
-0.012792
-0.011394
-0.009884
-0.008257
-0.006509
-0.004636
-0.002635
-0.000504
0.001758
0.004150
0.006669
0.009309
0.012062
0.014916
0.017855
0.020859
0.023903
0.026959
0.029991
0.032960
0.035825
0.038538
0.041053
0.043322
0.045299
0.046941
0.048214
0.049093
0.049568
0.049649
-0.024657
-0.024714
-0.024717
-0.024667
-0.024565
-0.024411
-0.024203
-0.023940
-0.023620
-0.023239
-0.022796
-0.022287
-0.021710
-0.021060
-0.020333
-0.019525
-0.018632
-0.017649
-0.016569
-0.015389
-0.014101
-0.012701
-0.011181
-0.009537
-0.007763
-0.005852
-0.003801
-0.001606
0.000737
0.003228
0.005866
0.008647
0.011563
0.014604
0.017755
0.020994
0.024297
0.027631
0.030958
0.034236
0.037413
0.040438
0.043254
0.045804
0.048033
0.049890
0.051332
0.052329
0.052870
0.052967
-0.025782
-0.025844
-0.025853
-0.025811
-0.025719
-0.025577
-0.025383
-0.025135
-0.024831
-0.024469
-0.024046
-0.023558
-0.023002
-0.022374
-0.021669
-0.020883
-0.020010
-0.019045
-0.017982
-0.016815
-0.015536
-0.014139
-0.012617
-0.010962
-0.009166
-0.007224
-0.005128
-0.002871
-0.000450
0.002139
0.004898
0.007824
0.010913
0.014154
0.017533
0.021031
0.024619
0.028266
0.031928
0.035557
0.039096
0.042483
0.045652
0.048534
0.051062
0.053174
0.054818
0.055956
0.056576
0.056691
-0.026971
-0.027039
-0.027054
-0.027021
-0.026940
-0.026811
-0.026632
-0.026402
-0.026118
-0.025777
-0.025376
-0.024912
-0.024381
-0.023779
-0.023101
-0.022341
-0.021494
-0.020554
-0.019514
-0.018366
-0.017104
-0.015718
-0.014201
-0.012542
-0.010734
-0.008767
-0.006632
-0.004321
-0.001827
0.000858
0.003738
0.006812
0.010079
0.013530
0.017155
0.020933
0.024838
0.028833
0.032873
0.036904
0.040861
0.044670
0.048254
0.051529
0.054413
0.056831
0.058716
0.060023
0.060736
0.060874
-0.028224
-0.028297
-0.028319
-0.028296
-0.028227
-0.028113
-0.027951
-0.027740
-0.027477
-0.027160
-0.026786
-0.026350
-0.025848
-0.025276
-0.024630
-0.023902
-0.023087
-0.022179
-0.021169
-0.020049
-0.018811
-0.017446
-0.015942
-0.014290
-0.012479
-0.010498
-0.008334
-0.005977
-0.003417
-0.000643
0.002353
0.005575
0.009023
0.012694
0.016579
0.020659
0.024909
0.029291
0.033758
0.038248
0.042687
0.046990
0.051063
0.054805
0.058116
0.060900
0.063076
0.064586
0.065411
0.065575
-0.029538
-0.029617
-0.029647
-0.029634
-0.029579
-0.029481
-0.029338
-0.029149
-0.028910
-0.028620
-0.028275
-0.027870
-0.027402
-0.026866
-0.026257
-0.025568
-0.024792
-0.023922
-0.022951
-0.021868
-0.020664
-0.019329
-0.017851
-0.016218
-0.014416
-0.012432
-0.010252
-0.007862
-0.005247
-0.002394
0.000709
0.004073
0.007703
0.011598
0.015754
0.020156
0.024781
0.029591
0.034536
0.039549
0.044545
0.049425
0.054077
0.058378
0.062202
0.065429
0.067956
0.069711
0.070671
0.070867
-0.030912
-0.030997
-0.031037
-0.031035
-0.030994
-0.030914
-0.030792
-0.030626
-0.030415
-0.030155
-0.029842
-0.029473
-0.029044
-0.028549
-0.027982
-0.027338
-0.026609
-0.025786
-0.024862
-0.023827
-0.022668
-0.021376
-0.019936
-0.018335
-0.016557
-0.014587
-0.012407
-0.009999
-0.007346
-0.004430
-0.001232
0.002264
0.006068
0.010186
0.014620
0.019361
0.024388
0.029667
0.035145
0.040751
0.046390
0.051947
0.057286
0.062257
0.066702
0.070469
0.073424
0.075477
0.076599
0.076834
-0.032346
-0.032438
-0.032486
-0.032497
-0.032472
-0.032411
-0.032311
-0.032172
-0.031990
-0.031763
-0.031487
-0.031158
-0.030772
-0.030323
-0.029806
-0.029213
-0.028539
-0.027773
-0.026906
-0.025928
-0.024828
-0.023592
-0.022205
-0.020653
-0.018917
-0.016979
-0.014818
-0.012414
-0.009744
-0.006784
-0.003512
0.000098
0.004062
0.008396
0.013107
0.018196
0.023648
0.029434
0.035503
0.041779
0.048159
0.054509
0.060666
0.066445
0.071647
0.076076
0.079559
0.081977
0.083295
0.083573
-0.033837
-0.033936
-0.033994
-0.034018
-0.034010
-0.033969
-0.033894
-0.033783
-0.033633
-0.033442
-0.033207
-0.032922
-0.032584
-0.032187
-0.031726
-0.031193
-0.030581
-0.029881
-0.029083
-0.028175
-0.027146
-0.025982
-0.024665
-0.023180
-0.021506
-0.019623
-0.017506
-0.015130
-0.012469
-0.009493
-0.006173
-0.002479
0.001624
0.006155
0.011133
0.016570
0.022461
0.028788
0.035503
0.042531
0.049760
0.057038
0.064171
0.070930
0.077062
0.082311
0.086448
0.089316
0.090872
0.091202
-0.035383
-0.035491
-0.035559
-0.035597
-0.035607
-0.035588
-0.035539
-0.035458
-0.035343
-0.035191
-0.034999
-0.034763
-0.034478
-0.034139
-0.033741
-0.033275
-0.032734
-0.032110
-0.031392
-0.030568
-0.029625
-0.028548
-0.027321
-0.025923
-0.024335
-0.022531
-0.020486
-0.018171
-0.015552
-0.012595
-0.009263
-0.005518
-0.001315
0.003381
0.008602
0.014373
0.020705
0.027594
0.035004
0.042866
0.051062
0.059424
0.067723
0.075677
0.082961
0.089235
0.094193
0.097622
0.099469
0.099856
-0.036985
-0.037100
-0.037180
-0.037232
-0.037261
-0.037265
-0.037243
-0.037195
-0.037117
-0.037007
-0.036862
-0.036679
-0.036452
-0.036176
-0.035847
-0.035456
-0.034996
-0.034458
-0.033832
-0.033105
-0.032263
-0.031293
-0.030174
-0.028888
-0.027410
-0.025716
-0.023776
-0.021555
-0.019018
-0.016124
-0.012827
-0.009079
-0.004828
-0.000013
0.005407
0.011478
0.018233
0.025687
0.033827
0.042595
0.051881
0.061501
0.071193
0.080608
0.089329
0.096902
0.102905
0.107041
0.109242
0.109691
-0.038639
-0.038763
-0.038854
-0.038922
-0.038970
-0.038997
-0.039005
-0.038990
-0.038951
-0.038886
-0.038792
-0.038665
-0.038500
-0.038294
-0.038040
-0.037732
-0.037362
-0.036921
-0.036398
-0.035782
-0.035059
-0.034213
-0.033225
-0.032074
-0.030737
-0.029184
-0.027384
-0.025301
-0.022893
-0.020113
-0.016907
-0.013219
-0.008983
-0.004124
0.001429
0.007739
0.014868
0.022863
0.031739
0.041468
0.051958
0.063023
0.074369
0.085576
0.096105
0.105344
0.112697
0.117739
0.120376
0.120885
-0.040345
-0.040478
-0.040581
-0.040664
-0.040732
-0.040784
-0.040821
-0.040842
-0.040844
-0.040826
-0.040784
-0.040717
-0.040619
-0.040487
-0.040316
-0.040097
-0.039826
-0.039492
-0.039085
-0.038595
-0.038006
-0.037304
-0.036469
-0.035480
-0.034313
-0.032937
-0.031319
-0.029419
-0.027193
-0.024588
-0.021543
-0.017990
-0.013853
-0.009045
-0.003458
0.002995
0.010410
0.018873
0.028448
0.039152
0.050932
0.063623
0.076916
0.090314
0.103134
0.114537
0.123671
0.129899
0.133078
0.133634
-0.042102
-0.042245
-0.042360
-0.042459
-0.042546
-0.042623
-0.042690
-0.042747
-0.042791
-0.042821
-0.042835
-0.042830
-0.042803
-0.042750
-0.042666
-0.042545
-0.042380
-0.042163
-0.041885
-0.041533
-0.041096
-0.040557
-0.039899
-0.039099
-0.038133
-0.036971
-0.035579
-0.033914
-0.031929
-0.029568
-0.026763
-0.023439
-0.019505
-0.014859
-0.009385
-0.002927
0.004631
0.013429
0.023593
0.035213
0.048305
0.062765
0.078299
0.094355
0.110080
0.124336
0.135873
0.143703
0.147573
0.148147
-0.043909
-0.044063
-0.044190
-0.044304
-0.044410
-0.044512
-0.044610
-0.044702
-0.044788
-0.044868
-0.044939
-0.044999
-0.045046
-0.045076
-0.045084
-0.045066
-0.045016
-0.044925
-0.044786
-0.044588
-0.044318
-0.043962
-0.043502
-0.042919
-0.042187
-0.041277
-0.040155
-0.038779
-0.037100
-0.035059
-0.032586
-0.029597
-0.025992
-0.021655
-0.016446
-0.010202
-0.002711
0.006202
0.016742
0.029100
0.043407
0.059671
0.077682
0.096888
0.116276
0.134326
0.149195
0.159281
0.164087
0.164634
-0.045768
-0.045933
-0.046072
-0.046200
-0.046325
-0.046450
-0.046576
-0.046704
-0.046833
-0.046962
-0.047090
-0.047217
-0.047340
-0.047455
-0.047560
-0.047651
-0.047722
-0.047766
-0.047776
-0.047743
-0.047655
-0.047500
-0.047261
-0.046920
-0.046454
-0.045835
-0.045030
-0.043999
-0.042693
-0.041055
-0.039011
-0.036477
-0.033345
-0.029489
-0.024753
-0.018952
-0.011857
-0.003159
0.007402
0.020141
0.035353
0.053236
0.073773
0.096530
0.120420
0.143511
0.163121
0.176584
0.182807
0.183325
-0.047680
-0.047857
-0.048006
-0.048147
-0.048289
-0.048436
-0.048589
-0.048750
-0.048920
-0.049097
-0.049283
-0.049477
-0.049676
-0.049879
-0.050084
-0.050288
-0.050485
-0.050671
-0.050839
-0.050982
-0.051090
-0.051152
-0.051155
-0.051081
-0.050910
-0.050618
-0.050175
-0.049544
-0.048680
-0.047527
-0.046016
-0.044064
-0.041564
-0.038386
-0.034367
-0.029305
-0.022947
-0.014983
-0.004954
0.007556
0.023032
0.041948
0.064623
0.090956
0.120024
0.149630
0.176091
0.194995
0.203763
0.204562
-0.049648
-0.049837
-0.049996
-0.050148
-0.050303
-0.050468
-0.050646
-0.050838
-0.051045
-0.051269
-0.051511
-0.051770
-0.052046
-0.052338
-0.052644
-0.052963
-0.053291
-0.053624
-0.053957
-0.054285
-0.054600
-0.054894
-0.055155
-0.055369
-0.055521
-0.055590
-0.055551
-0.055371
-0.055013
-0.054428
-0.053553
-0.052314
-0.050612
-0.048323
-0.045292
-0.041316
-0.036138
-0.029424
-0.020753
-0.009477
0.005145
0.023838
0.047416
0.076391
0.110445
0.147684
0.183785
0.211964
0.226187
0.228748
-0.051679
-0.051880
-0.052047
-0.052205
-0.052370
-0.052549
-0.052746
-0.052964
-0.053205
-0.053472
-0.053766
-0.054088
-0.054440
-0.054819
-0.055227
-0.055663
-0.056123
-0.056607
-0.057110
-0.057630
-0.058160
-0.058696
-0.059230
-0.059751
-0.060248
-0.060706
-0.061106
-0.061424
-0.061630
-0.061687
-0.061544
-0.061142
-0.060399
-0.059214
-0.057453
-0.054941
-0.051446
-0.046663
-0.040180
-0.031448
-0.019649
-0.003426
0.018357
0.047037
0.083445
0.127187
0.175034
0.218465
0.245221
0.253813
-0.053780
-0.053995
-0.054166
-0.054326
-0.054494
-0.054680
-0.054889
-0.055127
-0.055396
-0.055700
-0.056041
-0.056423
-0.056846
-0.057312
-0.057820
-0.058371
-0.058964
-0.059600
-0.060275
-0.060991
-0.061742
-0.062528
-0.063344
-0.064184
-0.065043
-0.065912
-0.066779
-0.067631
-0.068449
-0.069210
-0.069881
-0.070424
-0.070787
-0.070902
-0.070680
-0.070003
-0.068714
-0.066597
-0.063358
-0.058581
-0.051671
-0.041801
-0.027091
-0.005068
0.026077
0.069318
0.126655
0.191290
0.243006
0.265631
-0.055964
-0.056193
-0.056364
-0.056518
-0.056681
-0.056864
-0.057076
-0.057324
-0.057612
-0.057946
-0.058329
-0.058764
-0.059254
-0.059801
-0.060406
-0.061070
-0.061795
-0.062581
-0.063430
-0.064341
-0.065316
-0.066354
-0.067457
-0.068624
-0.069854
-0.071147
-0.072500
-0.073910
-0.075373
-0.076881
-0.078427
-0.079998
-0.081580
-0.083153
-0.084695
-0.086178
-0.087568
-0.088827
-0.089909
-0.090764
-0.091327
-0.091505
-0.091034
-0.088417
-0.076820
-0.049243
0.008600
0.096605
0.185576
0.231336
-0.058250
-0.058493
-0.058657
-0.058795
-0.058939
-0.059106
-0.059308
-0.059554
-0.059850
-0.060204
-0.060619
-0.061101
-0.061651
-0.062274
-0.062971
-0.063744
-0.064597
-0.065530
-0.066548
-0.067653
-0.068848
-0.070138
-0.071527
-0.073021
-0.074624
-0.076345
-0.078190
-0.080168
-0.082290
-0.084569
-0.087020
-0.089666
-0.092534
-0.095665
-0.099119
-0.102985
-0.107403
-0.112591
-0.118902
-0.126917
-0.137606
-0.152535
-0.173748
-0.201870
-0.231081
-0.237935
-0.191436
-0.083756
0.045998
0.120059
-0.060666
-0.060922
-0.061069
-0.061174
-0.061281
-0.061414
-0.061588
-0.061816
-0.062106
-0.062466
-0.062903
-0.063421
-0.064024
-0.064715
-0.065497
-0.066374
-0.067348
-0.068423
-0.069605
-0.070897
-0.072308
-0.073843
-0.075512
-0.077326
-0.079296
-0.081437
-0.083767
-0.086307
-0.089083
-0.092128
-0.095484
-0.099207
-0.103371
-0.108081
-0.113488
-0.119814
-0.127399
-0.136776
-0.148810
-0.164951
-0.187698
-0.221228
-0.271214
-0.340629
-0.418868
-0.473120
-0.447342
-0.329796
-0.167581
-0.066838
-0.063250
-0.063519
-0.063632
-0.063680
-0.063724
-0.063797
-0.063920
-0.064108
-0.064373
-0.064725
-0.065170
-0.065714
-0.066359
-0.067109
-0.067969
-0.068940
-0.070028
-0.071238
-0.072575
-0.074046
-0.075662
-0.077431
-0.079369
-0.081489
-0.083810
-0.086354
-0.089150
-0.092229
-0.095633
-0.099413
-0.103637
-0.108393
-0.113800
-0.120022
-0.127299
-0.135981
-0.146606
-0.160020
-0.177621
-0.201791
-0.236707
-0.289388
-0.369197
-0.480779
-0.607612
-0.703529
-0.701718
-0.587345
-0.409981
-0.290973
-0.066060
-0.066338
-0.066391
-0.066347
-0.066290
-0.066266
-0.066305
-0.066427
-0.066645
-0.066970
-0.067408
-0.067963
-0.068640
-0.069440
-0.070368
-0.071425
-0.072618
-0.073951
-0.075433
-0.077071
-0.078878
-0.080867
-0.083055
-0.085461
-0.088110
-0.091031
-0.094259
-0.097838
-0.101823
-0.106283
-0.111305
-0.117005
-0.123539
-0.131124
-0.140067
-0.150821
-0.164078
-0.180931
-0.203182
-0.233918
-0.278536
-0.345966
-0.447738
-0.588929
-0.748716
-0.870319
-0.888615
-0.789103
-0.617936
-0.494265
-0.069181
-0.069460
-0.069411
-0.069218
-0.069004
-0.068834
-0.068747
-0.068768
-0.068912
-0.069188
-0.069601
-0.070155
-0.070851
-0.071691
-0.072676
-0.073810
-0.075096
-0.076542
-0.078156
-0.079947
-0.081929
-0.084118
-0.086534
-0.089200
-0.092146
-0.095406
-0.099023
-0.103050
-0.107552
-0.112611
-0.118331
-0.124849
-0.132348
-0.141075
-0.151382
-0.163782
-0.179045
-0.198381
-0.223759
-0.258493
-0.308237
-0.382032
-0.490903
-0.639002
-0.805002
-0.930771
-0.959323
-0.882269
-0.736866
-0.623738
-0.072743
-0.073007
-0.072783
-0.072353
-0.071898
-0.071512
-0.071244
-0.071121
-0.071159
-0.071362
-0.071734
-0.072272
-0.072976
-0.073844
-0.074877
-0.076076
-0.077445
-0.078991
-0.080722
-0.082649
-0.084787
-0.087153
-0.089771
-0.092666
-0.095871
-0.099427
-0.103380
-0.107790
-0.112731
-0.118293
-0.124591
-0.131774
-0.140038
-0.149645
-0.160961
-0.174505
-0.191049
-0.211772
-0.238544
-0.274395
-0.324208
-0.395355
-0.495289
-0.625452
-0.768070
-0.875188
-0.905549
-0.854028
-0.743088
-0.650943
-0.076952
-0.077165
-0.076637
-0.075823
-0.075002
-0.074303
-0.073783
-0.073468
-0.073364
-0.073471
-0.073783
-0.074293
-0.074993
-0.075881
-0.076952
-0.078206
-0.079647
-0.081280
-0.083113
-0.085158
-0.087430
-0.089949
-0.092738
-0.095827
-0.099250
-0.103051
-0.107280
-0.112002
-0.117293
-0.123251
-0.129994
-0.137675
-0.146493
-0.156706
-0.168666
-0.182861
-0.199993
-0.221103
-0.247775
-0.282464
-0.328554
-0.390422
-0.473161
-0.575611
-0.680902
-0.750283
-0.759650
-0.719830
-0.647893
-0.575653
-0.082156
-0.082231
-0.081153
-0.079712
-0.078338
-0.077197
-0.076340
-0.075777
-0.075497
-0.075486
-0.075724
-0.076195
-0.076884
-0.077783
-0.078884
-0.080185
-0.081686
-0.083392
-0.085311
-0.087454
-0.089838
-0.092483
-0.095413
-0.098658
-0.102255
-0.106247
-0.110689
-0.115645
-0.121195
-0.127436
-0.134488
-0.142500
-0.151665
-0.162225
-0.174503
-0.188928
-0.206093
-0.226850
-0.252424
-0.284182
-0.324311
-0.375534
-0.439616
-0.513228
-0.581178
-0.614977
-0.601158
-0.554697
-0.488799
-0.411619
-0.088984
-0.088698
-0.086576
-0.084092
-0.081893
-0.080150
-0.078862
-0.077997
-0.077512
-0.077367
-0.077522
-0.077949
-0.078623
-0.079527
-0.080651
-0.081990
-0.083541
-0.085308
-0.087297
-0.089519
-0.091992
-0.094735
-0.097773
-0.101136
-0.104860
-0.108991
-0.113582
-0.118697
-0.124415
-0.130831
-0.138063
-0.146253
-0.155581
-0.166271
-0.178609
-0.192962
-0.209798
-0.229798
-0.253585
-0.282073
-0.316568
-0.358123
-0.406499
-0.457219
-0.497393
-0.506687
-0.474768
-0.407861
-0.291763
-0.150695
-0.098721
-0.097427
-0.093195
-0.088964
-0.085571
-0.083056
-0.081250
-0.080040
-0.079330
-0.079043
-0.079114
-0.079495
-0.080150
-0.081056
-0.082197
-0.083565
-0.085157
-0.086972
-0.089012
-0.091293
-0.093832
-0.096646
-0.099761
-0.103207
-0.107018
-0.111238
-0.115920
-0.121129
-0.126938
-0.133441
-0.140749
-0.148999
-0.158358
-0.169031
-0.181275
-0.195420
-0.211768
-0.230773
-0.252950
-0.278835
-0.308980
-0.343509
-0.381148
-0.417128
-0.440571
-0.435749
-0.386875
-0.268958
-0.013431
0.302622
-0.114625
-0.110099
-0.101189
-0.094087
-0.089058
-0.085644
-0.083232
-0.081635
-0.080677
-0.080244
-0.080230
-0.080563
-0.081197
-0.082099
-0.083250
-0.084638
-0.086261
-0.088117
-0.090187
-0.092510
-0.095097
-0.097963
-0.101134
-0.104636
-0.108506
-0.112787
-0.117527
-0.122789
-0.128646
-0.135188
-0.142521
-0.150778
-0.160116
-0.170726
-0.182840
-0.196728
-0.212682
-0.231047
-0.252190
-0.276434
-0.303944
-0.334328
-0.365762
-0.393326
-0.407178
-0.390883
-0.305343
-0.061733
0.492002
1.193117
-0.145132
-0.128534
-0.110208
-0.097961
-0.090522
-0.086156
-0.082995
-0.081100
-0.080047
-0.079541
-0.079497
-0.079833
-0.080490
-0.081431
-0.082630
-0.084072
-0.085751
-0.087662
-0.089803
-0.092193
-0.094847
-0.097781
-0.101021
-0.104592
-0.108532
-0.112880
-0.117687
-0.123013
-0.128930
-0.135527
-0.142908
-0.151203
-0.160565
-0.171181
-0.183270
-0.197084
-0.212901
-0.231021
-0.251733
-0.275231
-0.301426
-0.329517
-0.357020
-0.378273
-0.382328
-0.329625
-0.139859
0.369484
1.452931
2.882983
-0.247671
-0.110189
-0.081958
-0.074220
-0.071383
-0.070249
-0.069721
-0.069719
-0.070096
-0.070728
-0.071600
-0.072692
-0.073986
-0.075470
-0.077140
-0.078995
-0.081037
-0.083272
-0.085709
-0.088365
-0.091261
-0.094420
-0.097866
-0.101632
-0.105752
-0.110272
-0.115241
-0.120721
-0.126786
-0.133525
-0.141044
-0.149471
-0.158963
-0.169703
-0.181908
-0.195824
-0.211720
-0.229871
-0.250515
-0.273731
-0.299172
-0.325462
-0.348598
-0.358598
-0.326583
-0.190517
0.181910
1.054122
2.742914
5.021133
