# vtk DataFile Version 3.0
Vector Field
ASCII
DATASET RECTILINEAR_GRID
DIMENSIONS 50 50 1
X_COORDINATES 50 double
0.100000 0.300000 0.500000 0.700000 0.900000 1.100000 1.300000 1.500000 1.700000 1.900000 2.100000 2.300000 2.500000 2.700000 2.900000 3.100000 3.300000 3.500000 3.700000 3.900000 4.100000 4.300000 4.500000 4.700000 4.900000 5.100000 5.300000 5.500000 5.700000 5.900000 6.100000 6.300000 6.500000 6.700000 6.900000 7.100000 7.300000 7.500000 7.700000 7.900000 8.100000 8.300000 8.500000 8.700000 8.900000 9.100000 9.300000 9.500000 9.700000 9.900000 
Y_COORDINATES 50 double
0.100000 0.300000 0.500000 0.700000 0.900000 1.100000 1.300000 1.500000 1.700000 1.900000 2.100000 2.300000 2.500000 2.700000 2.900000 3.100000 3.300000 3.500000 3.700000 3.900000 4.100000 4.300000 4.500000 4.700000 4.900000 5.100000 5.300000 5.500000 5.700000 5.900000 6.100000 6.300000 6.500000 6.700000 6.900000 7.100000 7.300000 7.500000 7.700000 7.900000 8.100000 8.300000 8.500000 8.700000 8.900000 9.100000 9.300000 9.500000 9.700000 9.900000 
Z_COORDINATES 1 double
0.0
POINT_DATA 2500
VECTORS Vektorfeld double
0.000017 -0.000017 0.0
0.000041 -0.000007 0.0
0.000028 0.000020 0.0
-0.000041 0.000049 0.0
-0.000167 0.000077 0.0
-0.000345 0.000100 0.0
-0.000564 0.000119 0.0
-0.000816 0.000133 0.0
-0.001093 0.000144 0.0
-0.001387 0.000150 0.0
-0.001692 0.000154 0.0
-0.002001 0.000155 0.0
-0.002310 0.000154 0.0
-0.002615 0.000151 0.0
-0.002911 0.000146 0.0
-0.003196 0.000139 0.0
-0.003466 0.000131 0.0
-0.003719 0.000122 0.0
-0.003952 0.000111 0.0
-0.004163 0.000100 0.0
-0.004350 0.000087 0.0
-0.004509 0.000073 0.0
-0.004640 0.000058 0.0
-0.004740 0.000042 0.0
-0.004806 0.000025 0.0
-0.004838 0.000007 0.0
-0.004834 -0.000012 0.0
-0.004792 -0.000031 0.0
-0.004711 -0.000050 0.0
-0.004592 -0.000069 0.0
-0.004435 -0.000088 0.0
-0.004241 -0.000106 0.0
-0.004012 -0.000123 0.0
-0.003750 -0.000139 0.0
-0.003458 -0.000153 0.0
-0.003141 -0.000164 0.0
-0.002805 -0.000172 0.0
-0.002455 -0.000177 0.0
-0.002099 -0.000179 0.0
-0.001743 -0.000177 0.0
-0.001397 -0.000170 0.0
-0.001068 -0.000159 0.0
-0.000766 -0.000143 0.0
-0.000499 -0.000123 0.0
-0.000277 -0.000099 0.0
-0.000107 -0.000071 0.0
0.000004 -0.000041 0.0
0.000055 -0.000010 0.0
0.000051 0.000014 0.0
0.000019 0.000019 0.0
0.000007 -0.000041 0.0
-0.000017 0.000017 0.0
-0.000138 0.000131 0.0
-0.000387 0.000257 0.0
-0.000767 0.000375 0.0
-0.001266 0.000478 0.0
-0.001868 0.000562 0.0
-0.002552 0.000627 0.0
-0.003301 0.000675 0.0
-0.004095 0.000707 0.0
-0.004916 0.000724 0.0
-0.005752 0.000729 0.0
-0.006587 0.000724 0.0
-0.007410 0.000709 0.0
-0.008211 0.000685 0.0
-0.008981 0.000654 0.0
-0.009711 0.000616 0.0
-0.010393 0.000572 0.0
-0.011021 0.000522 0.0
-0.011588 0.000467 0.0
-0.012087 0.000406 0.0
-0.012512 0.000339 0.0
-0.012858 0.000268 0.0
-0.013119 0.000192 0.0
-0.013291 0.000112 0.0
-0.013368 0.000029 0.0
-0.013348 -0.000058 0.0
-0.013227 -0.000147 0.0
-0.013004 -0.000237 0.0
-0.012679 -0.000326 0.0
-0.012253 -0.000414 0.0
-0.011730 -0.000498 0.0
-0.011113 -0.000577 0.0
-0.010411 -0.000649 0.0
-0.009632 -0.000712 0.0
-0.008789 -0.000764 0.0
-0.007894 -0.000803 0.0
-0.006964 -0.000827 0.0
-0.006017 -0.000834 0.0
-0.005072 -0.000823 0.0
-0.004150 -0.000793 0.0
-0.003272 -0.000743 0.0
-0.002461 -0.000672 0.0
-0.001739 -0.000583 0.0
-0.001125 -0.000475 0.0
-0.000636 -0.000353 0.0
-0.000285 -0.000221 0.0
-0.000073 -0.000092 0.0
0.000013 0.000013 0.0
0.000014 0.000052 0.0
-0.000019 -0.000029 0.0
-0.000130 0.000139 0.0
-0.000403 0.000402 0.0
-0.000857 0.000688 0.0
-0.001494 0.000959 0.0
-0.002298 0.001197 0.0
-0.003247 0.001394 0.0
-0.004315 0.001549 0.0
-0.005475 0.001663 0.0
-0.006702 0.001739 0.0
-0.007970 0.001782 0.0
-0.009258 0.001795 0.0
-0.010545 0.001781 0.0
-0.011813 0.001743 0.0
-0.013047 0.001685 0.0
-0.014232 0.001608 0.0
-0.015355 0.001515 0.0
-0.016404 0.001405 0.0
-0.017367 0.001281 0.0
-0.018235 0.001143 0.0
-0.018998 0.000991 0.0
-0.019646 0.000827 0.0
-0.020171 0.000651 0.0
-0.020564 0.000464 0.0
-0.020819 0.000267 0.0
-0.020930 0.000061 0.0
-0.020890 -0.000151 0.0
-0.020697 -0.000368 0.0
-0.020348 -0.000587 0.0
-0.019844 -0.000805 0.0
-0.019186 -0.001018 0.0
-0.018381 -0.001223 0.0
-0.017435 -0.001415 0.0
-0.016360 -0.001589 0.0
-0.015170 -0.001741 0.0
-0.013882 -0.001866 0.0
-0.012518 -0.001960 0.0
-0.011100 -0.002017 0.0
-0.009655 -0.002035 0.0
-0.008212 -0.002009 0.0
-0.006802 -0.001938 0.0
-0.005456 -0.001821 0.0
-0.004205 -0.001656 0.0
-0.003081 -0.001447 0.0
-0.002110 -0.001197 0.0
-0.001316 -0.000914 0.0
-0.000715 -0.000613 0.0
-0.000310 -0.000318 0.0
-0.000086 -0.000071 0.0
-0.000009 0.000057 0.0
-0.000050 0.000041 0.0
-0.000260 0.000392 0.0
-0.000699 0.000861 0.0
-0.001370 0.001355 0.0
-0.002263 0.001822 0.0
-0.003360 0.002234 0.0
-0.004631 0.002578 0.0
-0.006048 0.002849 0.0
-0.007576 0.003051 0.0
-0.009185 0.003187 0.0
-0.010845 0.003263 0.0
-0.012528 0.003284 0.0
-0.014208 0.003258 0.0
-0.015863 0.003189 0.0
-0.017471 0.003082 0.0
-0.019015 0.002940 0.0
-0.020476 0.002767 0.0
-0.021840 0.002565 0.0
-0.023092 0.002336 0.0
-0.024218 0.002081 0.0
-0.025205 0.001803 0.0
-0.026042 0.001501 0.0
-0.026718 0.001178 0.0
-0.027222 0.000835 0.0
-0.027546 0.000475 0.0
-0.027681 0.000099 0.0
-0.027621 -0.000288 0.0
-0.027363 -0.000683 0.0
-0.026903 -0.001081 0.0
-0.026243 -0.001476 0.0
-0.025385 -0.001862 0.0
-0.024336 -0.002233 0.0
-0.023108 -0.002579 0.0
-0.021713 -0.002894 0.0
-0.020171 -0.003169 0.0
-0.018503 -0.003394 0.0
-0.016736 -0.003563 0.0
-0.014899 -0.003668 0.0
-0.013027 -0.003701 0.0
-0.011155 -0.003658 0.0
-0.009321 -0.003534 0.0
-0.007564 -0.003328 0.0
-0.005923 -0.003040 0.0
-0.004435 -0.002675 0.0
-0.003134 -0.002240 0.0
-0.002048 -0.001751 0.0
-0.001195 -0.001230 0.0
-0.000583 -0.000718 0.0
-0.000205 -0.000272 0.0
-0.000036 0.000012 0.0
-0.000079 0.000169 0.0
-0.000389 0.000783 0.0
-0.000994 0.001514 0.0
-0.001881 0.002259 0.0
-0.003026 0.002957 0.0
-0.004403 0.003572 0.0
-0.005978 0.004086 0.0
-0.007715 0.004494 0.0
-0.009579 0.004798 0.0
-0.011532 0.005002 0.0
-0.013541 0.005116 0.0
-0.015574 0.005147 0.0
-0.017601 0.005103 0.0
-0.019595 0.004993 0.0
-0.021532 0.004823 0.0
-0.023389 0.004600 0.0
-0.025146 0.004327 0.0
-0.026784 0.004008 0.0
-0.028287 0.003647 0.0
-0.029637 0.003246 0.0
-0.030819 0.002808 0.0
-0.031820 0.002334 0.0
-0.032626 0.001827 0.0
-0.033226 0.001290 0.0
-0.033609 0.000726 0.0
-0.033765 0.000139 0.0
-0.033687 -0.000465 0.0
-0.033372 -0.001080 0.0
-0.032815 -0.001699 0.0
-0.032019 -0.002314 0.0
-0.030987 -0.002914 0.0
-0.029727 -0.003489 0.0
-0.028253 -0.004026 0.0
-0.026580 -0.004514 0.0
-0.024731 -0.004940 0.0
-0.022731 -0.005291 0.0
-0.020612 -0.005554 0.0
-0.018409 -0.005718 0.0
-0.016159 -0.005773 0.0
-0.013907 -0.005711 0.0
-0.011695 -0.005527 0.0
-0.009569 -0.005218 0.0
-0.007573 -0.004787 0.0
-0.005750 -0.004239 0.0
-0.004139 -0.003588 0.0
-0.002773 -0.002856 0.0
-0.001674 -0.002077 0.0
-0.000857 -0.001300 0.0
-0.000323 -0.000601 0.0
-0.000063 -0.000087 0.0
-0.000106 0.000355 0.0
-0.000509 0.001310 0.0
-0.001274 0.002358 0.0
-0.002368 0.003395 0.0
-0.003756 0.004355 0.0
-0.005400 0.005196 0.0
-0.007261 0.005899 0.0
-0.009298 0.006457 0.0
-0.011471 0.006871 0.0
-0.013739 0.007150 0.0
-0.016065 0.007303 0.0
-0.018413 0.007340 0.0
-0.020750 0.007274 0.0
-0.023047 0.007113 0.0
-0.025276 0.006869 0.0
-0.027412 0.006547 0.0
-0.029431 0.006156 0.0
-0.031313 0.005699 0.0
-0.033037 0.005183 0.0
-0.034586 0.004609 0.0
-0.035942 0.003983 0.0
-0.037089 0.003307 0.0
-0.038012 0.002584 0.0
-0.038698 0.001819 0.0
-0.039134 0.001016 0.0
-0.039311 0.000182 0.0
-0.039221 -0.000676 0.0
-0.038857 -0.001549 0.0
-0.038218 -0.002427 0.0
-0.037304 -0.003297 0.0
-0.036120 -0.004147 0.0
-0.034675 -0.004960 0.0
-0.032984 -0.005721 0.0
-0.031066 -0.006411 0.0
-0.028944 -0.007014 0.0
-0.026648 -0.007512 0.0
-0.024214 -0.007886 0.0
-0.021680 -0.008123 0.0
-0.019090 -0.008207 0.0
-0.016491 -0.008129 0.0
-0.013932 -0.007880 0.0
-0.011465 -0.007459 0.0
-0.009139 -0.006868 0.0
-0.007002 -0.006117 0.0
-0.005097 -0.005225 0.0
-0.003462 -0.004220 0.0
-0.002127 -0.003146 0.0
-0.001113 -0.002063 0.0
-0.000431 -0.001055 0.0
-0.000087 -0.000237 0.0
-0.000130 0.000591 0.0
-0.000618 0.001964 0.0
-0.001534 0.003385 0.0
-0.002824 0.004754 0.0
-0.004442 0.006002 0.0
-0.006340 0.007090 0.0
-0.008472 0.007997 0.0
-0.010790 0.008714 0.0
-0.013251 0.009247 0.0
-0.015810 0.009602 0.0
-0.018427 0.009793 0.0
-0.021064 0.009834 0.0
-0.023684 0.009738 0.0
-0.026256 0.009518 0.0
-0.028750 0.009186 0.0
-0.031137 0.008753 0.0
-0.033394 0.008226 0.0
-0.035496 0.007613 0.0
-0.037422 0.006920 0.0
-0.039152 0.006151 0.0
-0.040667 0.005312 0.0
-0.041948 0.004406 0.0
-0.042981 0.003439 0.0
-0.043748 0.002417 0.0
-0.044239 0.001345 0.0
-0.044440 0.000232 0.0
-0.044343 -0.000912 0.0
-0.043942 -0.002077 0.0
-0.043234 -0.003246 0.0
-0.042219 -0.004406 0.0
-0.040903 -0.005538 0.0
-0.039295 -0.006621 0.0
-0.037411 -0.007635 0.0
-0.035271 -0.008556 0.0
-0.032903 -0.009361 0.0
-0.030337 -0.010026 0.0
-0.027612 -0.010531 0.0
-0.024772 -0.010853 0.0
-0.021864 -0.010975 0.0
-0.018941 -0.010883 0.0
-0.016056 -0.010569 0.0
-0.013265 -0.010028 0.0
-0.010624 -0.009266 0.0
-0.008186 -0.008295 0.0
-0.005999 -0.007139 0.0
-0.004108 -0.005833 0.0
-0.002547 -0.004429 0.0
-0.001346 -0.002995 0.0
-0.000527 -0.001624 0.0
-0.000108 -0.000432 0.0
-0.000152 0.000873 0.0
-0.000718 0.002735 0.0
-0.001772 0.004583 0.0
-0.003247 0.006322 0.0
-0.005082 0.007888 0.0
-0.007221 0.009242 0.0
-0.009609 0.010364 0.0
-0.012193 0.011250 0.0
-0.014925 0.011904 0.0
-0.017757 0.012337 0.0
-0.020646 0.012565 0.0
-0.023551 0.012604 0.0
-0.026433 0.012471 0.0
-0.029260 0.012183 0.0
-0.031998 0.011753 0.0
-0.034618 0.011194 0.0
-0.037095 0.010517 0.0
-0.039402 0.009731 0.0
-0.041516 0.008842 0.0
-0.043416 0.007858 0.0
-0.045080 0.006784 0.0
-0.046491 0.005626 0.0
-0.047630 0.004391 0.0
-0.048481 0.003084 0.0
-0.049029 0.001716 0.0
-0.049261 0.000295 0.0
-0.049168 -0.001165 0.0
-0.048742 -0.002651 0.0
-0.047979 -0.004144 0.0
-0.046879 -0.005623 0.0
-0.045448 -0.007068 0.0
-0.043696 -0.008451 0.0
-0.041638 -0.009747 0.0
-0.039296 -0.010925 0.0
-0.036698 -0.011957 0.0
-0.033880 -0.012814 0.0
-0.030882 -0.013466 0.0
-0.027751 -0.013889 0.0
-0.024538 -0.014059 0.0
-0.021302 -0.013959 0.0
-0.018100 -0.013579 0.0
-0.014995 -0.012914 0.0
-0.012046 -0.011969 0.0
-0.009314 -0.010762 0.0
-0.006852 -0.009320 0.0
-0.004712 -0.007684 0.0
-0.002935 -0.005914 0.0
-0.001559 -0.004086 0.0
-0.000613 -0.002297 0.0
-0.000126 -0.000666 0.0
-0.000171 0.001197 0.0
-0.000809 0.003615 0.0
-0.001991 0.005940 0.0
-0.003639 0.008087 0.0
-0.005680 0.009998 0.0
-0.008046 0.011637 0.0
-0.010677 0.012988 0.0
-0.013514 0.014048 0.0
-0.016504 0.014827 0.0
-0.019595 0.015337 0.0
-0.022741 0.015599 0.0
-0.025899 0.015632 0.0
-0.029029 0.015456 0.0
-0.032095 0.015091 0.0
-0.035064 0.014552 0.0
-0.037905 0.013857 0.0
-0.040589 0.013016 0.0
-0.043091 0.012041 0.0
-0.045386 0.010941 0.0
-0.047451 0.009724 0.0
-0.049263 0.008396 0.0
-0.050804 0.006965 0.0
-0.052052 0.005439 0.0
-0.052991 0.003826 0.0
-0.053604 0.002135 0.0
-0.053878 0.000381 0.0
-0.053800 -0.001423 0.0
-0.053362 -0.003257 0.0
-0.052560 -0.005102 0.0
-0.051392 -0.006932 0.0
-0.049863 -0.008719 0.0
-0.047982 -0.010433 0.0
-0.045766 -0.012040 0.0
-0.043237 -0.013504 0.0
-0.040424 -0.014789 0.0
-0.037364 -0.015860 0.0
-0.034101 -0.016681 0.0
-0.030686 -0.017221 0.0
-0.027174 -0.017451 0.0
-0.023627 -0.017351 0.0
-0.020109 -0.016906 0.0
-0.016689 -0.016112 0.0
-0.013433 -0.014975 0.0
-0.010407 -0.013515 0.0
-0.007672 -0.011763 0.0
-0.005286 -0.009768 0.0
-0.003299 -0.007595 0.0
-0.001754 -0.005327 0.0
-0.000691 -0.003066 0.0
-0.000142 -0.000933 0.0
-0.000189 0.001558 0.0
-0.000892 0.004594 0.0
-0.002195 0.007446 0.0
-0.004005 0.010039 0.0
-0.006240 0.012321 0.0
-0.008824 0.014264 0.0
-0.011687 0.015855 0.0
-0.014767 0.017097 0.0
-0.018003 0.018003 0.0
-0.021343 0.018591 0.0
-0.024736 0.018884 0.0
-0.028136 0.018906 0.0
-0.031504 0.018680 0.0
-0.034800 0.018229 0.0
-0.037991 0.017573 0.0
-0.041044 0.016730 0.0
-0.043931 0.015714 0.0
-0.046624 0.014538 0.0
-0.049097 0.013212 0.0
-0.051327 0.011746 0.0
-0.053290 0.010149 0.0
-0.054964 0.008427 0.0
-0.056329 0.006591 0.0
-0.057365 0.004649 0.0
-0.058056 0.002615 0.0
-0.058384 0.000503 0.0
-0.058337 -0.001669 0.0
-0.057904 -0.003881 0.0
-0.057080 -0.006106 0.0
-0.055860 -0.008315 0.0
-0.054250 -0.010476 0.0
-0.052256 -0.012550 0.0
-0.049896 -0.014499 0.0
-0.047191 -0.016279 0.0
-0.044172 -0.017846 0.0
-0.040877 -0.019158 0.0
-0.037353 -0.020171 0.0
-0.033653 -0.020847 0.0
-0.029838 -0.021152 0.0
-0.025975 -0.021060 0.0
-0.022135 -0.020554 0.0
-0.018392 -0.019628 0.0
-0.014820 -0.018288 0.0
-0.011493 -0.016556 0.0
-0.008480 -0.014469 0.0
-0.005847 -0.012082 0.0
-0.003649 -0.009465 0.0
-0.001940 -0.006710 0.0
-0.000763 -0.003924 0.0
-0.000156 -0.001231 0.0
-0.000206 0.001953 0.0
-0.000970 0.005665 0.0
-0.002385 0.009092 0.0
-0.004350 0.012167 0.0
-0.006770 0.014848 0.0
-0.009563 0.017113 0.0
-0.012650 0.018957 0.0
-0.015964 0.020388 0.0
-0.019440 0.021425 0.0
-0.023020 0.022090 0.0
-0.026653 0.022411 0.0
-0.030290 0.022417 0.0
-0.033889 0.022135 0.0
-0.037410 0.021592 0.0
-0.040819 0.020810 0.0
-0.044082 0.019810 0.0
-0.047170 0.018608 0.0
-0.050054 0.017220 0.0
-0.052708 0.015657 0.0
-0.055107 0.013930 0.0
-0.057227 0.012048 0.0
-0.059045 0.010020 0.0
-0.060538 0.007856 0.0
-0.061685 0.005568 0.0
-0.062468 0.003170 0.0
-0.062868 0.000677 0.0
-0.062870 -0.001888 0.0
-0.062462 -0.004503 0.0
-0.061634 -0.007137 0.0
-0.060382 -0.009756 0.0
-0.058707 -0.012321 0.0
-0.056617 -0.014789 0.0
-0.054126 -0.017112 0.0
-0.051255 -0.019241 0.0
-0.048036 -0.021122 0.0
-0.044509 -0.022704 0.0
-0.040721 -0.023936 0.0
-0.036732 -0.024771 0.0
-0.032605 -0.025169 0.0
-0.028414 -0.025097 0.0
-0.024236 -0.024534 0.0
-0.020154 -0.023472 0.0
-0.016251 -0.021918 0.0
-0.012608 -0.019896 0.0
-0.009304 -0.017446 0.0
-0.006413 -0.014630 0.0
-0.004000 -0.011527 0.0
-0.002124 -0.008234 0.0
-0.000833 -0.004868 0.0
-0.000170 -0.001557 0.0
-0.000222 0.002380 0.0
-0.001044 0.006825 0.0
-0.002567 0.010871 0.0
-0.004679 0.014465 0.0
-0.007279 0.017571 0.0
-0.010273 0.020178 0.0
-0.013580 0.022287 0.0
-0.017122 0.023915 0.0
-0.020832 0.025084 0.0
-0.024648 0.025827 0.0
-0.028516 0.026174 0.0
-0.032387 0.026161 0.0
-0.036214 0.025818 0.0
-0.039959 0.025176 0.0
-0.043585 0.024261 0.0
-0.047060 0.023096 0.0
-0.050351 0.021701 0.0
-0.053431 0.020092 0.0
-0.056273 0.018282 0.0
-0.058850 0.016282 0.0
-0.061138 0.014103 0.0
-0.063112 0.011755 0.0
-0.064748 0.009250 0.0
-0.066024 0.006598 0.0
-0.066919 0.003817 0.0
-0.067412 0.000923 0.0
-0.067485 -0.002059 0.0
-0.067122 -0.005103 0.0
-0.066313 -0.008174 0.0
-0.065050 -0.011233 0.0
-0.063331 -0.014237 0.0
-0.061161 -0.017133 0.0
-0.058553 -0.019868 0.0
-0.055526 -0.022382 0.0
-0.052113 -0.024613 0.0
-0.048353 -0.026500 0.0
-0.044298 -0.027983 0.0
-0.040007 -0.029004 0.0
-0.035553 -0.029516 0.0
-0.031015 -0.029479 0.0
-0.026477 -0.028867 0.0
-0.022032 -0.027667 0.0
-0.017772 -0.025887 0.0
-0.013790 -0.023552 0.0
-0.010174 -0.020709 0.0
-0.007007 -0.017425 0.0
-0.004366 -0.013787 0.0
-0.002313 -0.009903 0.0
-0.000905 -0.005898 0.0
-0.000184 -0.001911 0.0
-0.000237 0.002839 0.0
-0.001116 0.008068 0.0
-0.002743 0.012779 0.0
-0.004999 0.016925 0.0
-0.007774 0.020484 0.0
-0.010966 0.023452 0.0
-0.014487 0.025840 0.0
-0.018255 0.027672 0.0
-0.022196 0.028979 0.0
-0.026247 0.029800 0.0
-0.030350 0.030172 0.0
-0.034452 0.030136 0.0
-0.038509 0.029727 0.0
-0.042479 0.028982 0.0
-0.046326 0.027928 0.0
-0.050015 0.026593 0.0
-0.053516 0.024997 0.0
-0.056800 0.023160 0.0
-0.059839 0.021094 0.0
-0.062607 0.018814 0.0
-0.065077 0.016329 0.0
-0.067224 0.013650 0.0
-0.069023 0.010790 0.0
-0.070449 0.007760 0.0
-0.071478 0.004578 0.0
-0.072088 0.001264 0.0
-0.072258 -0.002158 0.0
-0.071968 -0.005656 0.0
-0.071204 -0.009194 0.0
-0.069954 -0.012726 0.0
-0.068213 -0.016203 0.0
-0.065983 -0.019567 0.0
-0.063272 -0.022753 0.0
-0.060101 -0.025694 0.0
-0.056499 -0.028317 0.0
-0.052505 -0.030550 0.0
-0.048174 -0.032320 0.0
-0.043570 -0.033562 0.0
-0.038768 -0.034215 0.0
-0.033856 -0.034232 0.0
-0.028929 -0.033579 0.0
-0.024088 -0.032241 0.0
-0.019437 -0.030224 0.0
-0.015082 -0.027554 0.0
-0.011123 -0.024283 0.0
-0.007655 -0.020485 0.0
-0.004762 -0.016260 0.0
-0.002518 -0.011726 0.0
-0.000982 -0.007020 0.0
-0.000199 -0.002293 0.0
-0.000252 0.003327 0.0
-0.001186 0.009394 0.0
-0.002917 0.014812 0.0
-0.005315 0.019546 0.0
-0.008262 0.023585 0.0
-0.011652 0.026933 0.0
-0.015386 0.029613 0.0
-0.019378 0.031658 0.0
-0.023551 0.033108 0.0
-0.027837 0.034008 0.0
-0.032175 0.034404 0.0
-0.036511 0.034343 0.0
-0.040800 0.033866 0.0
-0.044999 0.033012 0.0
-0.049071 0.031816 0.0
-0.052983 0.030306 0.0
-0.056702 0.028505 0.0
-0.060200 0.026434 0.0
-0.063449 0.024108 0.0
-0.066422 0.021540 0.0
-0.069092 0.018742 0.0
-0.071433 0.015724 0.0
-0.073417 0.012499 0.0
-0.075018 0.009079 0.0
-0.076209 0.005481 0.0
-0.076965 0.001727 0.0
-0.077260 -0.002156 0.0
-0.077073 -0.006135 0.0
-0.076383 -0.010169 0.0
-0.075175 -0.014209 0.0
-0.073439 -0.018198 0.0
-0.071172 -0.022070 0.0
-0.068379 -0.025753 0.0
-0.065076 -0.029168 0.0
-0.061291 -0.032231 0.0
-0.057064 -0.034856 0.0
-0.052449 -0.036960 0.0
-0.047513 -0.038462 0.0
-0.042340 -0.039290 0.0
-0.037023 -0.039385 0.0
-0.031669 -0.038707 0.0
-0.026390 -0.037233 0.0
-0.021304 -0.034967 0.0
-0.016532 -0.031938 0.0
-0.012189 -0.028201 0.0
-0.008382 -0.023842 0.0
-0.005208 -0.018970 0.0
-0.002748 -0.013719 0.0
-0.001069 -0.008242 0.0
-0.000215 -0.002708 0.0
-0.000266 0.003845 0.0
-0.001257 0.010800 0.0
-0.003090 0.016969 0.0
-0.005631 0.022327 0.0
-0.008752 0.026872 0.0
-0.012338 0.030621 0.0
-0.016287 0.033608 0.0
-0.020505 0.035874 0.0
-0.024912 0.037471 0.0
-0.029434 0.038453 0.0
-0.034011 0.038873 0.0
-0.038585 0.038785 0.0
-0.043111 0.038237 0.0
-0.047544 0.037274 0.0
-0.051849 0.035932 0.0
-0.055991 0.034243 0.0
-0.059939 0.032235 0.0
-0.063664 0.029928 0.0
-0.067139 0.027338 0.0
-0.070335 0.024480 0.0
-0.073225 0.021363 0.0
-0.075781 0.018000 0.0
-0.077976 0.014402 0.0
-0.079780 0.010580 0.0
-0.081163 0.006554 0.0
-0.082098 0.002344 0.0
-0.082553 -0.002021 0.0
-0.082504 -0.006507 0.0
-0.081923 -0.011068 0.0
-0.080791 -0.015650 0.0
-0.079092 -0.020192 0.0
-0.076816 -0.024619 0.0
-0.073963 -0.028849 0.0
-0.070546 -0.032792 0.0
-0.066588 -0.036350 0.0
-0.062128 -0.039425 0.0
-0.057220 -0.041915 0.0
-0.051936 -0.043726 0.0
-0.046363 -0.044771 0.0
-0.040605 -0.044979 0.0
-0.034778 -0.044295 0.0
-0.029011 -0.042692 0.0
-0.023438 -0.040168 0.0
-0.018194 -0.036753 0.0
-0.013413 -0.032510 0.0
-0.009218 -0.027534 0.0
-0.005721 -0.021949 0.0
-0.003014 -0.015906 0.0
-0.001169 -0.009579 0.0
-0.000235 -0.003158 0.0
-0.000282 0.004393 0.0
-0.001328 0.012289 0.0
-0.003267 0.019253 0.0
-0.005952 0.025269 0.0
-0.009248 0.030348 0.0
-0.013035 0.034519 0.0
-0.017201 0.037825 0.0
-0.021649 0.040323 0.0
-0.026292 0.042072 0.0
-0.031056 0.043138 0.0
-0.035875 0.043583 0.0
-0.040693 0.043468 0.0
-0.045461 0.042848 0.0
-0.050137 0.041772 0.0
-0.054682 0.040283 0.0
-0.059065 0.038416 0.0
-0.063253 0.036199 0.0
-0.067219 0.033655 0.0
-0.070935 0.030801 0.0
-0.074373 0.027651 0.0
-0.077506 0.024215 0.0
-0.080304 0.020503 0.0
-0.082737 0.016527 0.0
-0.084775 0.012297 0.0
-0.086385 0.007831 0.0
-0.087534 0.003150 0.0
-0.088189 -0.001717 0.0
-0.088316 -0.006733 0.0
-0.087886 -0.011852 0.0
-0.086869 -0.017015 0.0
-0.085243 -0.022153 0.0
-0.082993 -0.027185 0.0
-0.080110 -0.032018 0.0
-0.076601 -0.036549 0.0
-0.072485 -0.040667 0.0
-0.067796 -0.044256 0.0
-0.062590 -0.047198 0.0
-0.056939 -0.049379 0.0
-0.050936 -0.050694 0.0
-0.044696 -0.051055 0.0
-0.038346 -0.050395 0.0
-0.032032 -0.048674 0.0
-0.025905 -0.045885 0.0
-0.020123 -0.042061 0.0
-0.014839 -0.037268 0.0
-0.010197 -0.031614 0.0
-0.006324 -0.025240 0.0
-0.003328 -0.018319 0.0
-0.001289 -0.011051 0.0
-0.000258 -0.003651 0.0
-0.000297 0.004972 0.0
-0.001402 0.013862 0.0
-0.003448 0.021665 0.0
-0.006281 0.028375 0.0
-0.009758 0.034016 0.0
-0.013749 0.038628 0.0
-0.018138 0.042270 0.0
-0.022820 0.045008 0.0
-0.027706 0.046916 0.0
-0.032716 0.048069 0.0
-0.037784 0.048539 0.0
-0.042851 0.048397 0.0
-0.047869 0.047704 0.0
-0.052793 0.046516 0.0
-0.057589 0.044880 0.0
-0.062222 0.042835 0.0
-0.066664 0.040410 0.0
-0.070885 0.037631 0.0
-0.074860 0.034515 0.0
-0.078560 0.031075 0.0
-0.081958 0.027321 0.0
-0.085023 0.023261 0.0
-0.087726 0.018905 0.0
-0.090031 0.014262 0.0
-0.091905 0.009349 0.0
-0.093309 0.004185 0.0
-0.094205 -0.001201 0.0
-0.094554 -0.006772 0.0
-0.094319 -0.012479 0.0
-0.093464 -0.018260 0.0
-0.091957 -0.024041 0.0
-0.089773 -0.029732 0.0
-0.086897 -0.035229 0.0
-0.083326 -0.040418 0.0
-0.079071 -0.045169 0.0
-0.074164 -0.049349 0.0
-0.068657 -0.052819 0.0
-0.062623 -0.055443 0.0
-0.056162 -0.057094 0.0
-0.049394 -0.057663 0.0
-0.042465 -0.057065 0.0
-0.035537 -0.055246 0.0
-0.028782 -0.052193 0.0
-0.022383 -0.047934 0.0
-0.016518 -0.042544 0.0
-0.011354 -0.036144 0.0
-0.007040 -0.028895 0.0
-0.003702 -0.020998 0.0
-0.001432 -0.012682 0.0
-0.000286 -0.004196 0.0
-0.000313 0.005582 0.0
-0.001478 0.015521 0.0
-0.003636 0.024209 0.0
-0.006622 0.031651 0.0
-0.010286 0.037881 0.0
-0.014488 0.042957 0.0
-0.019106 0.046948 0.0
-0.024030 0.049936 0.0
-0.029164 0.052008 0.0
-0.034427 0.053250 0.0
-0.039750 0.053748 0.0
-0.045073 0.053579 0.0
-0.050346 0.052813 0.0
-0.055528 0.051514 0.0
-0.060582 0.049732 0.0
-0.065476 0.047510 0.0
-0.070182 0.044882 0.0
-0.074674 0.041872 0.0
-0.078924 0.038499 0.0
-0.082906 0.034774 0.0
-0.086592 0.030706 0.0
-0.089953 0.026302 0.0
-0.092955 0.021568 0.0
-0.095563 0.016513 0.0
-0.097739 0.011148 0.0
-0.099441 0.005492 0.0
-0.100625 -0.000428 0.0
-0.101246 -0.006575 0.0
-0.101258 -0.012899 0.0
-0.100616 -0.019337 0.0
-0.099279 -0.025808 0.0
-0.097211 -0.032216 0.0
-0.094386 -0.038446 0.0
-0.090791 -0.044368 0.0
-0.086427 -0.049837 0.0
-0.081320 -0.054696 0.0
-0.075515 -0.058784 0.0
-0.069087 -0.061939 0.0
-0.062138 -0.064008 0.0
-0.054800 -0.064855 0.0
-0.047231 -0.064371 0.0
-0.039614 -0.062486 0.0
-0.032147 -0.059174 0.0
-0.025040 -0.054460 0.0
-0.018501 -0.048424 0.0
-0.012727 -0.041202 0.0
-0.007895 -0.032982 0.0
-0.004152 -0.023994 0.0
-0.001605 -0.014504 0.0
-0.000321 -0.004803 0.0
-0.000330 0.006226 0.0
-0.001559 0.017271 0.0
-0.003833 0.026891 0.0
-0.006980 0.035102 0.0
-0.010837 0.041952 0.0
-0.015259 0.047511 0.0
-0.020113 0.051866 0.0
-0.025286 0.055114 0.0
-0.030676 0.057355 0.0
-0.036199 0.058690 0.0
-0.041782 0.059215 0.0
-0.047367 0.059019 0.0
-0.052903 0.058182 0.0
-0.058349 0.056772 0.0
-0.063669 0.054848 0.0
-0.068833 0.052454 0.0
-0.073815 0.049627 0.0
-0.078588 0.046393 0.0
-0.083129 0.042769 0.0
-0.087412 0.038768 0.0
-0.091410 0.034395 0.0
-0.095091 0.029655 0.0
-0.098424 0.024550 0.0
-0.101370 0.019085 0.0
-0.103888 0.013269 0.0
-0.105933 0.007117 0.0
-0.107454 0.000653 0.0
-0.108399 -0.006089 0.0
-0.108715 -0.013058 0.0
-0.108345 -0.020190 0.0
-0.107236 -0.027400 0.0
-0.105342 -0.034586 0.0
-0.102622 -0.041621 0.0
-0.099050 -0.048361 0.0
-0.094617 -0.054641 0.0
-0.089336 -0.060281 0.0
-0.083246 -0.065093 0.0
-0.076420 -0.068885 0.0
-0.068960 -0.071470 0.0
-0.061009 -0.072682 0.0
-0.052738 -0.072383 0.0
-0.044353 -0.070477 0.0
-0.036081 -0.066922 0.0
-0.028163 -0.061736 0.0
-0.020845 -0.055005 0.0
-0.014360 -0.046880 0.0
-0.008917 -0.037578 0.0
-0.004692 -0.027366 0.0
-0.001814 -0.016556 0.0
-0.000363 -0.005486 0.0
-0.000348 0.006905 0.0
-0.001644 0.019116 0.0
-0.004041 0.029717 0.0
-0.007355 0.038736 0.0
-0.011416 0.046235 0.0
-0.016066 0.052299 0.0
-0.021167 0.057033 0.0
-0.026596 0.060549 0.0
-0.032249 0.062963 0.0
-0.038038 0.064393 0.0
-0.043889 0.064946 0.0
-0.049741 0.064725 0.0
-0.055545 0.063816 0.0
-0.061259 0.062298 0.0
-0.066851 0.060234 0.0
-0.072292 0.057673 0.0
-0.077557 0.054654 0.0
-0.082624 0.051205 0.0
-0.087469 0.047343 0.0
-0.092068 0.043077 0.0
-0.096396 0.038412 0.0
-0.100423 0.033347 0.0
-0.104115 0.027882 0.0
-0.107433 0.022017 0.0
-0.110333 0.015755 0.0
-0.112765 0.009107 0.0
-0.114673 0.002092 0.0
-0.115999 -0.005257 0.0
-0.116677 -0.012895 0.0
-0.116642 -0.020757 0.0
-0.115829 -0.028755 0.0
-0.114174 -0.036780 0.0
-0.111622 -0.044698 0.0
-0.108132 -0.052346 0.0
-0.103680 -0.059541 0.0
-0.098263 -0.066078 0.0
-0.091913 -0.071736 0.0
-0.084694 -0.076288 0.0
-0.076710 -0.079510 0.0
-0.068107 -0.081196 0.0
-0.059075 -0.081171 0.0
-0.049842 -0.079308 0.0
-0.040665 -0.075540 0.0
-0.031826 -0.069874 0.0
-0.023610 -0.062399 0.0
-0.016297 -0.053284 0.0
-0.010136 -0.042777 0.0
-0.005340 -0.031189 0.0
-0.002067 -0.018885 0.0
-0.000413 -0.006263 0.0
-0.000368 0.007621 0.0
-0.001734 0.021062 0.0
-0.004261 0.032696 0.0
-0.007753 0.042564 0.0
-0.012027 0.050741 0.0
-0.016916 0.057332 0.0
-0.022272 0.062457 0.0
-0.027967 0.066249 0.0
-0.033892 0.068841 0.0
-0.039953 0.070366 0.0
-0.046076 0.070947 0.0
-0.052199 0.070699 0.0
-0.058273 0.069720 0.0
-0.064259 0.068095 0.0
-0.070125 0.065895 0.0
-0.075846 0.063173 0.0
-0.081399 0.059972 0.0
-0.086764 0.056319 0.0
-0.091921 0.052231 0.0
-0.096849 0.047716 0.0
-0.101523 0.042775 0.0
-0.105915 0.037403 0.0
-0.109991 0.031595 0.0
-0.113712 0.025344 0.0
-0.117030 0.018647 0.0
-0.119892 0.011510 0.0
-0.122238 0.003944 0.0
-0.123999 -0.004023 0.0
-0.125102 -0.012349 0.0
-0.125469 -0.020971 0.0
-0.125020 -0.029803 0.0
-0.123677 -0.038730 0.0
-0.121367 -0.047609 0.0
-0.118029 -0.056263 0.0
-0.113620 -0.064487 0.0
-0.108122 -0.072047 0.0
-0.101550 -0.078690 0.0
-0.093958 -0.084146 0.0
-0.085447 -0.088148 0.0
-0.076167 -0.090441 0.0
-0.066320 -0.090805 0.0
-0.056159 -0.089070 0.0
-0.045977 -0.085137 0.0
-0.036097 -0.078997 0.0
-0.026855 -0.070734 0.0
-0.018583 -0.060536 0.0
-0.011584 -0.048685 0.0
-0.006115 -0.035546 0.0
-0.002371 -0.021546 0.0
-0.000475 -0.007151 0.0
-0.000388 0.008376 0.0
-0.001830 0.023114 0.0
-0.004496 0.035837 0.0
-0.008176 0.046595 0.0
-0.012674 0.055482 0.0
-0.017813 0.062620 0.0
-0.023436 0.068149 0.0
-0.029406 0.072222 0.0
-0.035608 0.074994 0.0
-0.041947 0.076613 0.0
-0.048345 0.077221 0.0
-0.054740 0.076944 0.0
-0.061085 0.075893 0.0
-0.067341 0.074164 0.0
-0.073480 0.071831 0.0
-0.079479 0.068956 0.0
-0.085319 0.065582 0.0
-0.090984 0.061738 0.0
-0.096456 0.057441 0.0
-0.101717 0.052695 0.0
-0.106746 0.047498 0.0
-0.111516 0.041841 0.0
-0.115994 0.035711 0.0
-0.120142 0.029095 0.0
-0.123909 0.021982 0.0
-0.127240 0.014368 0.0
-0.130068 0.006259 0.0
-0.132318 -0.002327 0.0
-0.133905 -0.011354 0.0
-0.134741 -0.020763 0.0
-0.134731 -0.030470 0.0
-0.133779 -0.040359 0.0
-0.131791 -0.050278 0.0
-0.128686 -0.060037 0.0
-0.124398 -0.069409 0.0
-0.118887 -0.078133 0.0
-0.112149 -0.085914 0.0
-0.104223 -0.092440 0.0
-0.095200 -0.097388 0.0
-0.085232 -0.100449 0.0
-0.074531 -0.101344 0.0
-0.063372 -0.099850 0.0
-0.052086 -0.095826 0.0
-0.041043 -0.089231 0.0
-0.030639 -0.080145 0.0
-0.021267 -0.068769 0.0
-0.013294 -0.055424 0.0
-0.007035 -0.040535 0.0
-0.002734 -0.024602 0.0
-0.000549 -0.008176 0.0
-0.000410 0.009175 0.0
-0.001933 0.025281 0.0
-0.004747 0.039149 0.0
-0.008626 0.050842 0.0
-0.013362 0.060469 0.0
-0.018764 0.068173 0.0
-0.024664 0.074118 0.0
-0.030918 0.078477 0.0
-0.037404 0.081427 0.0
-0.044023 0.083138 0.0
-0.050697 0.083768 0.0
-0.057363 0.083458 0.0
-0.063974 0.082334 0.0
-0.070494 0.080500 0.0
-0.076899 0.078039 0.0
-0.083168 0.075017 0.0
-0.089288 0.071481 0.0
-0.095244 0.067461 0.0
-0.101026 0.062972 0.0
-0.106617 0.058017 0.0
-0.112001 0.052589 0.0
-0.117153 0.046673 0.0
-0.122043 0.040248 0.0
-0.126632 0.033294 0.0
-0.130870 0.025789 0.0
-0.134698 0.017721 0.0
-0.138046 0.009082 0.0
-0.140831 -0.000117 0.0
-0.142959 -0.009848 0.0
-0.144330 -0.020062 0.0
-0.144832 -0.030679 0.0
-0.144352 -0.041583 0.0
-0.142774 -0.052619 0.0
-0.139992 -0.063583 0.0
-0.135916 -0.074228 0.0
-0.130478 -0.084262 0.0
-0.123650 -0.093351 0.0
-0.115450 -0.101129 0.0
-0.105955 -0.107216 0.0
-0.095310 -0.111235 0.0
-0.083734 -0.112835 0.0
-0.071523 -0.111728 0.0
-0.059044 -0.107713 0.0
-0.046721 -0.100710 0.0
-0.035014 -0.090778 0.0
-0.024391 -0.078130 0.0
-0.015298 -0.063129 0.0
-0.008121 -0.046265 0.0
-0.003166 -0.028128 0.0
-0.000638 -0.009363 0.0
-0.000434 0.010019 0.0
-0.002044 0.027571 0.0
-0.005017 0.042645 0.0
-0.009109 0.055318 0.0
-0.014097 0.065717 0.0
-0.019774 0.074006 0.0
-0.025963 0.080374 0.0
-0.032508 0.085020 0.0
-0.039283 0.088145 0.0
-0.046184 0.089941 0.0
-0.053130 0.090585 0.0
-0.060060 0.090237 0.0
-0.066928 0.089034 0.0
-0.073701 0.087093 0.0
-0.080358 0.084506 0.0
-0.086882 0.081344 0.0
-0.093264 0.077656 0.0
-0.099497 0.073475 0.0
-0.105572 0.068814 0.0
-0.111479 0.063674 0.0
-0.117206 0.058042 0.0
-0.122732 0.051897 0.0
-0.128029 0.045211 0.0
-0.133061 0.037951 0.0
-0.137778 0.030088 0.0
-0.142121 0.021593 0.0
-0.146014 0.012450 0.0
-0.149369 0.002655 0.0
-0.152086 -0.007775 0.0
-0.154049 -0.018802 0.0
-0.155133 -0.030353 0.0
-0.155205 -0.042318 0.0
-0.154127 -0.054539 0.0
-0.151768 -0.066804 0.0
-0.148006 -0.078846 0.0
-0.142746 -0.090343 0.0
-0.135927 -0.100917 0.0
-0.127540 -0.110149 0.0
-0.117640 -0.117591 0.0
-0.106359 -0.122786 0.0
-0.093917 -0.125302 0.0
-0.080624 -0.124765 0.0
-0.066882 -0.120898 0.0
-0.053171 -0.113560 0.0
-0.040025 -0.102781 0.0
-0.027998 -0.088776 0.0
-0.017627 -0.071947 0.0
-0.009391 -0.052860 0.0
-0.003674 -0.032205 0.0
-0.000743 -0.010744 0.0
-0.000460 0.010912 0.0
-0.002165 0.029993 0.0
-0.005308 0.046339 0.0
-0.009629 0.060038 0.0
-0.014883 0.071239 0.0
-0.020851 0.080129 0.0
-0.027339 0.086926 0.0
-0.034183 0.091857 0.0
-0.041249 0.095149 0.0
-0.048430 0.097019 0.0
-0.055642 0.097666 0.0
-0.062825 0.097268 0.0
-0.069934 0.095980 0.0
-0.076940 0.093927 0.0
-0.083825 0.091214 0.0
-0.090580 0.087915 0.0
-0.097198 0.084086 0.0
-0.103679 0.079758 0.0
-0.110019 0.074946 0.0
-0.116215 0.069646 0.0
-0.122258 0.063840 0.0
-0.128133 0.057500 0.0
-0.133818 0.050589 0.0
-0.139277 0.043064 0.0
-0.144466 0.034881 0.0
-0.149322 0.025999 0.0
-0.153770 0.016386 0.0
-0.157717 0.006022 0.0
-0.161053 -0.005090 0.0
-0.163652 -0.016924 0.0
-0.165378 -0.029421 0.0