# vtk DataFile Version 3.0
Vector Field
ASCII
DATASET RECTILINEAR_GRID
DIMENSIONS 50 50 1
X_COORDINATES 50 double
0.100000 0.300000 0.500000 0.700000 0.900000 1.100000 1.300000 1.500000 1.700000 1.900000 2.100000 2.300000 2.500000 2.700000 2.900000 3.100000 3.300000 3.500000 3.700000 3.900000 4.100000 4.300000 4.500000 4.700000 4.900000 5.100000 5.300000 5.500000 5.700000 5.900000 6.100000 6.300000 6.500000 6.700000 6.900000 7.100000 7.300000 7.500000 7.700000 7.900000 8.100000 8.300000 8.500000 8.700000 8.900000 9.100000 9.300000 9.500000 9.700000 9.900000 
Y_COORDINATES 50 double
0.100000 0.300000 0.500000 0.700000 0.900000 1.100000 1.300000 1.500000 1.700000 1.900000 2.100000 2.300000 2.500000 2.700000 2.900000 3.100000 3.300000 3.500000 3.700000 3.900000 4.100000 4.300000 4.500000 4.700000 4.900000 5.100000 5.300000 5.500000 5.700000 5.900000 6.100000 6.300000 6.500000 6.700000 6.900000 7.100000 7.300000 7.500000 7.700000 7.900000 8.100000 8.300000 8.500000 8.700000 8.900000 9.100000 9.300000 9.500000 9.700000 9.900000 
Z_COORDINATES 1 double
0.0
POINT_DATA 2500
VECTORS Vektorfeld double
0.000016 -0.000016 0.0
0.000037 -0.000005 0.0
0.000019 0.000022 0.0
-0.000055 0.000052 0.0
-0.000185 0.000078 0.0
-0.000364 0.000101 0.0
-0.000583 0.000118 0.0
-0.000832 0.000131 0.0
-0.001103 0.000140 0.0
-0.001388 0.000146 0.0
-0.001682 0.000148 0.0
-0.001978 0.000148 0.0
-0.002273 0.000146 0.0
-0.002561 0.000142 0.0
-0.002840 0.000137 0.0
-0.003107 0.000130 0.0
-0.003359 0.000122 0.0
-0.003594 0.000113 0.0
-0.003810 0.000103 0.0
-0.004005 0.000092 0.0
-0.004176 0.000080 0.0
-0.004323 0.000067 0.0
-0.004444 0.000053 0.0
-0.004536 0.000039 0.0
-0.004599 0.000024 0.0
-0.004630 0.000008 0.0
-0.004628 -0.000009 0.0
-0.004594 -0.000026 0.0
-0.004524 -0.000043 0.0
-0.004421 -0.000061 0.0
-0.004282 -0.000078 0.0
-0.004110 -0.000094 0.0
-0.003905 -0.000110 0.0
-0.003669 -0.000125 0.0
-0.003405 -0.000139 0.0
-0.003116 -0.000150 0.0
-0.002806 -0.000160 0.0
-0.002480 -0.000166 0.0
-0.002144 -0.000170 0.0
-0.001805 -0.000169 0.0
-0.001470 -0.000165 0.0
-0.001148 -0.000157 0.0
-0.000846 -0.000145 0.0
-0.000574 -0.000127 0.0
-0.000342 -0.000105 0.0
-0.000158 -0.000079 0.0
-0.000030 -0.000049 0.0
0.000036 -0.000018 0.0
0.000045 0.000009 0.0
0.000018 0.000018 0.0
0.000005 -0.000037 0.0
-0.000025 0.000026 0.0
-0.000156 0.000140 0.0
-0.000413 0.000265 0.0
-0.000797 0.000380 0.0
-0.001296 0.000477 0.0
-0.001892 0.000555 0.0
-0.002563 0.000615 0.0
-0.003292 0.000656 0.0
-0.004059 0.000682 0.0
-0.004848 0.000695 0.0
-0.005645 0.000695 0.0
-0.006438 0.000686 0.0
-0.007214 0.000668 0.0
-0.007966 0.000642 0.0
-0.008685 0.000610 0.0
-0.009364 0.000573 0.0
-0.009996 0.000530 0.0
-0.010576 0.000482 0.0
-0.011098 0.000429 0.0
-0.011556 0.000373 0.0
-0.011947 0.000312 0.0
-0.012265 0.000247 0.0
-0.012506 0.000179 0.0
-0.012666 0.000107 0.0
-0.012742 0.000032 0.0
-0.012731 -0.000046 0.0
-0.012629 -0.000125 0.0
-0.012437 -0.000206 0.0
-0.012152 -0.000286 0.0
-0.011777 -0.000366 0.0
-0.011311 -0.000444 0.0
-0.010760 -0.000517 0.0
-0.010129 -0.000586 0.0
-0.009423 -0.000648 0.0
-0.008653 -0.000701 0.0
-0.007829 -0.000743 0.0
-0.006965 -0.000773 0.0
-0.006075 -0.000788 0.0
-0.005177 -0.000788 0.0
-0.004290 -0.000769 0.0
-0.003434 -0.000732 0.0
-0.002630 -0.000675 0.0
-0.001901 -0.000597 0.0
-0.001268 -0.000500 0.0
-0.000752 -0.000384 0.0
-0.000367 -0.000255 0.0
-0.000122 -0.000123 0.0
-0.000008 -0.000008 0.0
0.000009 0.000045 0.0
-0.000022 -0.000020 0.0
-0.000140 0.000157 0.0
-0.000421 0.000421 0.0
-0.000882 0.000702 0.0
-0.001519 0.000963 0.0
-0.002316 0.001189 0.0
-0.003249 0.001372 0.0
-0.004291 0.001512 0.0
-0.005414 0.001611 0.0
-0.006595 0.001674 0.0
-0.007807 0.001704 0.0
-0.009032 0.001706 0.0
-0.010248 0.001684 0.0
-0.011441 0.001639 0.0
-0.012595 0.001577 0.0
-0.013699 0.001498 0.0
-0.014740 0.001405 0.0
-0.015708 0.001298 0.0
-0.016595 0.001180 0.0
-0.017392 0.001050 0.0
-0.018090 0.000910 0.0
-0.018684 0.000759 0.0
-0.019165 0.000599 0.0
-0.019527 0.000430 0.0
-0.019765 0.000253 0.0
-0.019873 0.000069 0.0
-0.019847 -0.000121 0.0
-0.019684 -0.000315 0.0
-0.019381 -0.000511 0.0
-0.018939 -0.000707 0.0
-0.018359 -0.000901 0.0
-0.017644 -0.001089 0.0
-0.016799 -0.001268 0.0
-0.015832 -0.001434 0.0
-0.014756 -0.001582 0.0
-0.013582 -0.001710 0.0
-0.012328 -0.001812 0.0
-0.011013 -0.001883 0.0
-0.009660 -0.001920 0.0
-0.008295 -0.001919 0.0
-0.006944 -0.001876 0.0
-0.005638 -0.001788 0.0
-0.004407 -0.001654 0.0
-0.003282 -0.001472 0.0
-0.002294 -0.001246 0.0
-0.001469 -0.000980 0.0
-0.000827 -0.000686 0.0
-0.000379 -0.000386 0.0
-0.000118 -0.000120 0.0
-0.000016 0.000038 0.0
-0.000052 0.000054 0.0
-0.000268 0.000417 0.0
-0.000712 0.000885 0.0
-0.001383 0.001369 0.0
-0.002269 0.001819 0.0
-0.003347 0.002208 0.0
-0.004588 0.002527 0.0
-0.005961 0.002772 0.0
-0.007434 0.002948 0.0
-0.008975 0.003059 0.0
-0.010555 0.003113 0.0
-0.012148 0.003115 0.0
-0.013730 0.003073 0.0
-0.015280 0.002992 0.0
-0.016779 0.002878 0.0
-0.018211 0.002733 0.0
-0.019561 0.002561 0.0
-0.020817 0.002365 0.0
-0.021965 0.002148 0.0
-0.022995 0.001909 0.0
-0.023896 0.001651 0.0
-0.024660 0.001375 0.0
-0.025277 0.001081 0.0
-0.025739 0.000772 0.0
-0.026039 0.000449 0.0
-0.026170 0.000113 0.0
-0.026128 -0.000233 0.0
-0.025909 -0.000585 0.0
-0.025510 -0.000942 0.0
-0.024931 -0.001298 0.0
-0.024174 -0.001648 0.0
-0.023244 -0.001988 0.0
-0.022148 -0.002310 0.0
-0.020896 -0.002609 0.0
-0.019503 -0.002877 0.0
-0.017986 -0.003106 0.0
-0.016367 -0.003289 0.0
-0.014669 -0.003418 0.0
-0.012923 -0.003485 0.0
-0.011158 -0.003484 0.0
-0.009411 -0.003409 0.0
-0.007716 -0.003255 0.0
-0.006113 -0.003021 0.0
-0.004638 -0.002705 0.0
-0.003328 -0.002312 0.0
-0.002213 -0.001853 0.0
-0.001320 -0.001348 0.0
-0.000662 -0.000830 0.0
-0.000242 -0.000357 0.0
-0.000045 -0.000023 0.0
-0.000081 0.000187 0.0
-0.000392 0.000813 0.0
-0.000996 0.001538 0.0
-0.001873 0.002265 0.0
-0.002999 0.002934 0.0
-0.004342 0.003514 0.0
-0.005869 0.003990 0.0
-0.007544 0.004357 0.0
-0.009330 0.004621 0.0
-0.011191 0.004788 0.0
-0.013095 0.004867 0.0
-0.015011 0.004869 0.0
-0.016911 0.004801 0.0
-0.018771 0.004674 0.0
-0.020568 0.004493 0.0
-0.022285 0.004265 0.0
-0.023902 0.003996 0.0
-0.025403 0.003688 0.0
-0.026776 0.003346 0.0
-0.028006 0.002971 0.0
-0.029081 0.002566 0.0
-0.029990 0.002132 0.0
-0.030723 0.001673 0.0
-0.031270 0.001189 0.0
-0.031622 0.000684 0.0
-0.031773 0.000160 0.0
-0.031715 -0.000379 0.0
-0.031446 -0.000928 0.0
-0.030963 -0.001482 0.0
-0.030265 -0.002034 0.0
-0.029355 -0.002578 0.0
-0.028239 -0.003104 0.0
-0.026926 -0.003603 0.0
-0.025428 -0.004065 0.0
-0.023762 -0.004479 0.0
-0.021949 -0.004834 0.0
-0.020014 -0.005116 0.0
-0.017985 -0.005316 0.0
-0.015897 -0.005422 0.0
-0.013784 -0.005424 0.0
-0.011689 -0.005313 0.0
-0.009651 -0.005083 0.0
-0.007715 -0.004732 0.0
-0.005924 -0.004260 0.0
-0.004317 -0.003674 0.0
-0.002931 -0.002991 0.0
-0.001797 -0.002238 0.0
-0.000936 -0.001459 0.0
-0.000360 -0.000725 0.0
-0.000072 -0.000140 0.0
-0.000106 0.000374 0.0
-0.000506 0.001337 0.0
-0.001261 0.002372 0.0
-0.002333 0.003380 0.0
-0.003686 0.004297 0.0
-0.005279 0.005088 0.0
-0.007072 0.005736 0.0
-0.009024 0.006238 0.0
-0.011094 0.006597 0.0
-0.013244 0.006823 0.0
-0.015437 0.006929 0.0
-0.017639 0.006926 0.0
-0.019820 0.006826 0.0
-0.021953 0.006642 0.0
-0.024013 0.006383 0.0
-0.025978 0.006057 0.0
-0.027829 0.005671 0.0
-0.029546 0.005232 0.0
-0.031115 0.004743 0.0
-0.032520 0.004208 0.0
-0.033747 0.003631 0.0
-0.034783 0.003013 0.0
-0.035617 0.002359 0.0
-0.036239 0.001671 0.0
-0.036637 0.000953 0.0
-0.036805 0.000209 0.0
-0.036736 -0.000555 0.0
-0.036425 -0.001333 0.0
-0.035868 -0.002117 0.0
-0.035068 -0.002898 0.0
-0.034025 -0.003666 0.0
-0.032748 -0.004409 0.0
-0.031245 -0.005114 0.0
-0.029532 -0.005766 0.0
-0.027627 -0.006350 0.0
-0.025553 -0.006850 0.0
-0.023339 -0.007250 0.0
-0.021017 -0.007534 0.0
-0.018623 -0.007687 0.0
-0.016200 -0.007695 0.0
-0.013791 -0.007547 0.0
-0.011443 -0.007235 0.0
-0.009204 -0.006756 0.0
-0.007120 -0.006111 0.0
-0.005238 -0.005312 0.0
-0.003599 -0.004378 0.0
-0.002239 -0.003345 0.0
-0.001187 -0.002265 0.0
-0.000467 -0.001216 0.0
-0.000096 -0.000308 0.0
-0.000129 0.000608 0.0
-0.000608 0.001981 0.0
-0.001502 0.003378 0.0
-0.002756 0.004702 0.0
-0.004321 0.005892 0.0
-0.006148 0.006912 0.0
-0.008188 0.007746 0.0
-0.010397 0.008389 0.0
-0.012729 0.008848 0.0
-0.015142 0.009135 0.0
-0.017597 0.009265 0.0
-0.020058 0.009253 0.0
-0.022492 0.009114 0.0
-0.024869 0.008864 0.0
-0.027163 0.008515 0.0
-0.029350 0.008077 0.0
-0.031409 0.007560 0.0
-0.033319 0.006971 0.0
-0.035062 0.006316 0.0
-0.036623 0.005601 0.0
-0.037987 0.004828 0.0
-0.039138 0.004003 0.0
-0.040065 0.003130 0.0
-0.040756 0.002212 0.0
-0.041199 0.001254 0.0
-0.041386 0.000263 0.0
-0.041309 -0.000754 0.0
-0.040964 -0.001790 0.0
-0.040347 -0.002833 0.0
-0.039459 -0.003872 0.0
-0.038301 -0.004892 0.0
-0.036882 -0.005880 0.0
-0.035213 -0.006816 0.0
-0.033308 -0.007682 0.0
-0.031189 -0.008458 0.0
-0.028880 -0.009124 0.0
-0.026414 -0.009657 0.0
-0.023824 -0.010038 0.0
-0.021152 -0.010247 0.0
-0.018443 -0.010267 0.0
-0.015745 -0.010082 0.0
-0.013108 -0.009684 0.0
-0.010585 -0.009069 0.0
-0.008228 -0.008239 0.0
-0.006088 -0.007207 0.0
-0.004211 -0.005999 0.0
-0.002639 -0.004655 0.0
-0.001412 -0.003234 0.0
-0.000560 -0.001819 0.0
-0.000116 -0.000520 0.0
-0.000148 0.000885 0.0
-0.000699 0.002734 0.0
-0.001719 0.004540 0.0
-0.003142 0.006216 0.0
-0.004905 0.007705 0.0
-0.006949 0.008971 0.0
-0.009221 0.010000 0.0
-0.011669 0.010791 0.0
-0.014244 0.011353 0.0
-0.016901 0.011700 0.0
-0.019598 0.011851 0.0
-0.022296 0.011825 0.0
-0.024961 0.011641 0.0
-0.027561 0.011315 0.0
-0.030069 0.010865 0.0
-0.032458 0.010303 0.0
-0.034705 0.009640 0.0
-0.036791 0.008886 0.0
-0.038695 0.008049 0.0
-0.040401 0.007134 0.0
-0.041891 0.006148 0.0
-0.043151 0.005095 0.0
-0.044166 0.003980 0.0
-0.044924 0.002810 0.0
-0.045413 0.001589 0.0
-0.045624 0.000326 0.0
-0.045547 -0.000970 0.0
-0.045178 -0.002289 0.0
-0.044512 -0.003617 0.0
-0.043549 -0.004939 0.0
-0.042292 -0.006239 0.0
-0.040748 -0.007496 0.0
-0.038929 -0.008688 0.0
-0.036852 -0.009792 0.0
-0.034537 -0.010782 0.0
-0.032013 -0.011632 0.0
-0.029312 -0.012316 0.0
-0.026472 -0.012808 0.0
-0.023538 -0.013083 0.0
-0.020558 -0.013120 0.0
-0.017585 -0.012901 0.0
-0.014673 -0.012414 0.0
-0.011879 -0.011655 0.0
-0.009261 -0.010627 0.0
-0.006874 -0.009346 0.0
-0.004771 -0.007840 0.0
-0.003001 -0.006155 0.0
-0.001611 -0.004353 0.0
-0.000641 -0.002521 0.0
-0.000133 -0.000769 0.0
-0.000166 0.001199 0.0
-0.000780 0.003584 0.0
-0.001917 0.005847 0.0
-0.003495 0.007910 0.0
-0.005441 0.009720 0.0
-0.007690 0.011248 0.0
-0.010179 0.012483 0.0
-0.012852 0.013428 0.0
-0.015656 0.014094 0.0
-0.018541 0.014501 0.0
-0.021464 0.014670 0.0
-0.024384 0.014624 0.0
-0.027264 0.014387 0.0
-0.030072 0.013978 0.0
-0.032778 0.013416 0.0
-0.035355 0.012718 0.0
-0.037780 0.011898 0.0
-0.040031 0.010965 0.0
-0.042087 0.009931 0.0
-0.043930 0.008801 0.0
-0.045542 0.007584 0.0
-0.046908 0.006285 0.0
-0.048012 0.004910 0.0
-0.048840 0.003466 0.0
-0.049380 0.001962 0.0
-0.049621 0.000405 0.0
-0.049553 -0.001193 0.0
-0.049170 -0.002818 0.0
-0.048467 -0.004456 0.0
-0.047443 -0.006087 0.0
-0.046101 -0.007690 0.0
-0.044447 -0.009242 0.0
-0.042493 -0.010715 0.0
-0.040256 -0.012080 0.0
-0.037760 -0.013306 0.0
-0.035032 -0.014361 0.0
-0.032107 -0.015213 0.0
-0.029028 -0.015830 0.0
-0.025840 -0.016182 0.0
-0.022597 -0.016244 0.0
-0.019354 -0.015993 0.0
-0.016172 -0.015416 0.0
-0.013113 -0.014506 0.0
-0.010239 -0.013268 0.0
-0.007612 -0.011719 0.0
-0.005291 -0.009891 0.0
-0.003333 -0.007832 0.0
-0.001790 -0.005610 0.0
-0.000712 -0.003313 0.0
-0.000148 -0.001050 0.0
-0.000182 0.001547 0.0
-0.000854 0.004523 0.0
-0.002097 0.007288 0.0
-0.003819 0.009770 0.0
-0.005939 0.011926 0.0
-0.008380 0.013733 0.0
-0.011076 0.015184 0.0
-0.013962 0.016287 0.0
-0.016983 0.017059 0.0
-0.020086 0.017524 0.0
-0.023223 0.017707 0.0
-0.026354 0.017637 0.0
-0.029439 0.017339 0.0
-0.032444 0.016838 0.0
-0.035339 0.016157 0.0
-0.038097 0.015313 0.0
-0.040692 0.014323 0.0
-0.043101 0.013200 0.0
-0.045305 0.011955 0.0
-0.047283 0.010597 0.0
-0.049018 0.009134 0.0
-0.050491 0.007573 0.0
-0.051687 0.005922 0.0
-0.052592 0.004187 0.0
-0.053191 0.002379 0.0
-0.053471 0.000509 0.0
-0.053423 -0.001412 0.0
-0.053039 -0.003367 0.0
-0.052312 -0.005337 0.0
-0.051240 -0.007301 0.0
-0.049826 -0.009233 0.0
-0.048075 -0.011104 0.0
-0.045998 -0.012883 0.0
-0.043614 -0.014533 0.0
-0.040944 -0.016019 0.0
-0.038020 -0.017301 0.0
-0.034877 -0.018340 0.0
-0.031561 -0.019099 0.0
-0.028121 -0.019541 0.0
-0.024614 -0.019636 0.0
-0.021101 -0.019357 0.0
-0.017647 -0.018688 0.0
-0.014320 -0.017620 0.0
-0.011190 -0.016159 0.0
-0.008324 -0.014322 0.0
-0.005788 -0.012144 0.0
-0.003646 -0.009678 0.0
-0.001957 -0.006995 0.0
-0.000778 -0.004185 0.0
-0.000161 -0.001359 0.0
-0.000196 0.001924 0.0
-0.000923 0.005545 0.0
-0.002265 0.008852 0.0
-0.004123 0.011786 0.0
-0.006406 0.014312 0.0
-0.009032 0.016414 0.0
-0.011925 0.018091 0.0
-0.015017 0.019359 0.0
-0.018247 0.020239 0.0
-0.021559 0.020760 0.0
-0.024905 0.020954 0.0
-0.028238 0.020854 0.0
-0.031521 0.020490 0.0
-0.034718 0.019890 0.0
-0.037798 0.019080 0.0
-0.040731 0.018081 0.0
-0.043494 0.016912 0.0
-0.046062 0.015589 0.0
-0.048414 0.014122 0.0
-0.050529 0.012524 0.0
-0.052389 0.010802 0.0
-0.053976 0.008966 0.0
-0.055273 0.007022 0.0
-0.056262 0.004981 0.0
-0.056930 0.002853 0.0
-0.057263 0.000649 0.0
-0.057248 -0.001615 0.0
-0.056876 -0.003921 0.0
-0.056140 -0.006247 0.0
-0.055035 -0.008568 0.0
-0.053562 -0.010854 0.0
-0.051725 -0.013071 0.0
-0.049537 -0.015181 0.0
-0.047012 -0.017144 0.0
-0.044176 -0.018914 0.0
-0.041058 -0.020447 0.0
-0.037699 -0.021695 0.0
-0.034144 -0.022615 0.0
-0.030447 -0.023162 0.0
-0.026669 -0.023300 0.0
-0.022877 -0.022998 0.0
-0.019142 -0.022236 0.0
-0.015539 -0.021002 0.0
-0.012144 -0.019302 0.0
-0.009033 -0.017156 0.0
-0.006278 -0.014600 0.0
-0.003951 -0.011691 0.0
-0.002118 -0.008504 0.0
-0.000839 -0.005134 0.0
-0.000173 -0.001693 0.0
-0.000210 0.002330 0.0
-0.000987 0.006643 0.0
-0.002424 0.010533 0.0
-0.004413 0.013952 0.0
-0.006854 0.016871 0.0
-0.009657 0.019284 0.0
-0.012741 0.021198 0.0
-0.016034 0.022636 0.0
-0.019468 0.023626 0.0
-0.022986 0.024203 0.0
-0.026535 0.024406 0.0
-0.030070 0.024271 0.0
-0.033548 0.023834 0.0
-0.036935 0.023129 0.0
-0.040197 0.022183 0.0
-0.043307 0.021022 0.0
-0.046238 0.019666 0.0
-0.048967 0.018132 0.0
-0.051471 0.016435 0.0
-0.053729 0.014585 0.0
-0.055723 0.012594 0.0
-0.057432 0.010470 0.0
-0.058839 0.008221 0.0
-0.059926 0.005859 0.0
-0.060678 0.003394 0.0
-0.061077 0.000840 0.0
-0.061111 -0.001787 0.0
-0.060767 -0.004465 0.0
-0.060037 -0.007170 0.0
-0.058914 -0.009873 0.0
-0.057396 -0.012539 0.0
-0.055488 -0.015130 0.0
-0.053197 -0.017601 0.0
-0.050540 -0.019905 0.0
-0.047541 -0.021989 0.0
-0.044231 -0.023800 0.0
-0.040651 -0.025282 0.0
-0.036850 -0.026384 0.0
-0.032885 -0.027054 0.0
-0.028824 -0.027248 0.0
-0.024738 -0.026929 0.0
-0.020706 -0.026072 0.0
-0.016810 -0.024664 0.0
-0.013136 -0.022710 0.0
-0.009765 -0.020230 0.0
-0.006782 -0.017264 0.0
-0.004263 -0.013873 0.0
-0.002280 -0.010138 0.0
-0.000901 -0.006158 0.0
-0.000185 -0.002051 0.0
-0.000223 0.002763 0.0
-0.001050 0.007815 0.0
-0.002579 0.012328 0.0
-0.004694 0.016261 0.0
-0.007290 0.019598 0.0
-0.010268 0.022339 0.0
-0.013541 0.024502 0.0
-0.017032 0.026115 0.0
-0.020669 0.027218 0.0
-0.024391 0.027851 0.0
-0.028143 0.028059 0.0
-0.031878 0.027886 0.0
-0.035552 0.027372 0.0
-0.039130 0.026555 0.0
-0.042578 0.025467 0.0
-0.045867 0.024136 0.0
-0.048971 0.022586 0.0
-0.051866 0.020835 0.0
-0.054529 0.018899 0.0
-0.056939 0.016790 0.0
-0.059076 0.014520 0.0
-0.060920 0.012097 0.0
-0.062452 0.009533 0.0
-0.063652 0.006836 0.0
-0.064503 0.004019 0.0
-0.064987 0.001098 0.0
-0.065087 -0.001910 0.0
-0.064791 -0.004982 0.0
-0.064085 -0.008089 0.0
-0.062961 -0.011200 0.0
-0.061415 -0.014276 0.0
-0.059447 -0.017270 0.0
-0.057066 -0.020134 0.0
-0.054284 -0.022811 0.0
-0.051125 -0.025241 0.0
-0.047621 -0.027361 0.0
-0.043814 -0.029108 0.0
-0.039757 -0.030418 0.0
-0.035510 -0.031231 0.0
-0.031146 -0.031496 0.0
-0.026744 -0.031168 0.0
-0.022391 -0.030217 0.0
-0.018179 -0.028627 0.0
-0.014201 -0.026401 0.0
-0.010550 -0.023560 0.0
-0.007319 -0.020149 0.0
-0.004593 -0.016233 0.0
-0.002452 -0.011901 0.0
-0.000967 -0.007259 0.0
-0.000198 -0.002434 0.0
-0.000236 0.003222 0.0
-0.001112 0.009059 0.0
-0.002732 0.014233 0.0
-0.004974 0.018713 0.0
-0.007723 0.022490 0.0
-0.010876 0.025577 0.0
-0.014338 0.028000 0.0
-0.018028 0.029797 0.0
-0.021869 0.031015 0.0
-0.025797 0.031704 0.0
-0.029754 0.031916 0.0
-0.033691 0.031701 0.0
-0.037565 0.031106 0.0
-0.041337 0.030172 0.0
-0.044975 0.028936 0.0
-0.048450 0.027430 0.0
-0.051733 0.025680 0.0
-0.054803 0.023705 0.0
-0.057635 0.021524 0.0
-0.060209 0.019149 0.0
-0.062502 0.016592 0.0
-0.064496 0.013863 0.0
-0.066168 0.010971 0.0
-0.067499 0.007928 0.0
-0.068469 0.004747 0.0
-0.069058 0.001443 0.0
-0.069247 -0.001965 0.0
-0.069019 -0.005451 0.0
-0.068359 -0.008986 0.0
-0.067255 -0.012532 0.0
-0.065699 -0.016046 0.0
-0.063688 -0.019478 0.0
-0.061227 -0.022769 0.0
-0.058329 -0.025856 0.0
-0.055014 -0.028669 0.0
-0.051314 -0.031136 0.0
-0.047273 -0.033181 0.0
-0.042945 -0.034730 0.0
-0.038397 -0.035714 0.0
-0.033706 -0.036069 0.0
-0.028960 -0.035743 0.0
-0.024255 -0.034700 0.0
-0.019693 -0.032919 0.0
-0.015379 -0.030401 0.0
-0.011418 -0.027170 0.0
-0.007913 -0.023275 0.0
-0.004958 -0.018788 0.0
-0.002641 -0.013805 0.0
-0.001038 -0.008444 0.0
-0.000212 -0.002844 0.0
-0.000249 0.003707 0.0
-0.001175 0.010376 0.0
-0.002888 0.016250 0.0
-0.005257 0.021307 0.0
-0.008162 0.025550 0.0
-0.011492 0.029000 0.0
-0.015147 0.031694 0.0
-0.019038 0.033682 0.0
-0.023087 0.035019 0.0
-0.027224 0.035765 0.0
-0.031391 0.035980 0.0
-0.035536 0.035720 0.0
-0.039614 0.035039 0.0
-0.043588 0.033984 0.0
-0.047422 0.032597 0.0
-0.051090 0.030911 0.0
-0.054562 0.028956 0.0
-0.057817 0.026753 0.0
-0.060830 0.024322 0.0
-0.063580 0.021675 0.0
-0.066046 0.018825 0.0
-0.068206 0.015783 0.0
-0.070039 0.012556 0.0
-0.071522 0.009158 0.0
-0.072633 0.005599 0.0
-0.073350 0.001897 0.0
-0.073652 -0.001928 0.0
-0.073518 -0.005850 0.0
-0.072928 -0.009836 0.0
-0.071868 -0.013847 0.0
-0.070323 -0.017832 0.0
-0.068289 -0.021737 0.0
-0.065765 -0.025495 0.0
-0.062761 -0.029033 0.0
-0.059295 -0.032273 0.0
-0.055398 -0.035129 0.0
-0.051114 -0.037513 0.0
-0.046501 -0.039340 0.0
-0.041628 -0.040525 0.0
-0.036580 -0.040996 0.0
-0.031455 -0.040688 0.0
-0.026359 -0.039557 0.0
-0.021406 -0.037577 0.0
-0.016714 -0.034748 0.0
-0.012403 -0.031095 0.0
-0.008587 -0.026672 0.0
-0.005372 -0.021560 0.0
-0.002856 -0.015866 0.0
-0.001120 -0.009723 0.0
-0.000228 -0.003284 0.0
-0.000263 0.004219 0.0
-0.001240 0.011766 0.0
-0.003048 0.018380 0.0
-0.005549 0.024047 0.0
-0.008614 0.028780 0.0
-0.012126 0.032612 0.0
-0.015979 0.035590 0.0
-0.020078 0.037776 0.0
-0.024340 0.039236 0.0
-0.028693 0.040039 0.0
-0.033076 0.040255 0.0
-0.037435 0.039948 0.0
-0.041725 0.039179 0.0
-0.045907 0.037999 0.0
-0.049947 0.036457 0.0
-0.053816 0.034588 0.0
-0.057489 0.032424 0.0
-0.060940 0.029990 0.0
-0.064148 0.027305 0.0
-0.067090 0.024384 0.0
-0.069745 0.021238 0.0
-0.072091 0.017876 0.0
-0.074105 0.014309 0.0
-0.075763 0.010546 0.0
-0.077041 0.006600 0.0
-0.077915 0.002487 0.0
-0.078358 -0.001773 0.0
-0.078346 -0.006152 0.0
-0.077856 -0.010615 0.0
-0.076867 -0.015118 0.0
-0.075361 -0.019610 0.0
-0.073327 -0.024027 0.0
-0.070760 -0.028295 0.0
-0.067665 -0.032333 0.0
-0.064056 -0.036048 0.0
-0.059963 -0.039343 0.0
-0.055429 -0.042117 0.0
-0.050512 -0.044266 0.0
-0.045290 -0.045694 0.0
-0.039852 -0.046312 0.0
-0.034306 -0.046043 0.0
-0.028771 -0.044833 0.0
-0.023376 -0.042649 0.0
-0.018255 -0.039489 0.0
-0.013542 -0.035379 0.0
-0.009368 -0.030379 0.0
-0.005854 -0.024581 0.0
-0.003107 -0.018108 0.0
-0.001215 -0.011109 0.0
-0.000246 -0.003758 0.0
-0.000277 0.004759 0.0
-0.001308 0.013234 0.0
-0.003216 0.020628 0.0
-0.005854 0.026938 0.0
-0.009087 0.032187 0.0
-0.012788 0.036418 0.0
-0.016846 0.039694 0.0
-0.021160 0.042086 0.0
-0.025644 0.043672 0.0
-0.030221 0.044534 0.0
-0.034828 0.044750 0.0
-0.039409 0.044394 0.0
-0.043919 0.043533 0.0
-0.048318 0.042226 0.0
-0.052573 0.040525 0.0
-0.056654 0.038471 0.0
-0.060538 0.036097 0.0
-0.064199 0.033430 0.0
-0.067616 0.030490 0.0
-0.070767 0.027292 0.0
-0.073630 0.023848 0.0
-0.076183 0.020165 0.0
-0.078401 0.016253 0.0
-0.080260 0.012120 0.0
-0.081733 0.007777 0.0
-0.082792 0.003241 0.0
-0.083408 -0.001468 0.0
-0.083553 -0.006324 0.0
-0.083197 -0.011289 0.0
-0.082313 -0.016317 0.0
-0.080879 -0.021352 0.0
-0.078875 -0.026323 0.0
-0.076290 -0.031150 0.0
-0.073124 -0.035740 0.0
-0.069385 -0.039988 0.0
-0.065100 -0.043781 0.0
-0.060310 -0.047003 0.0
-0.055076 -0.049531 0.0
-0.049476 -0.051252 0.0
-0.043611 -0.052057 0.0
-0.037597 -0.051857 0.0
-0.031568 -0.050582 0.0
-0.025669 -0.048193 0.0
-0.020055 -0.044681 0.0
-0.014878 -0.040076 0.0
-0.010289 -0.034445 0.0
-0.006424 -0.027894 0.0
-0.003404 -0.020563 0.0
-0.001328 -0.012623 0.0
-0.000269 -0.004272 0.0
-0.000293 0.005329 0.0
-0.001380 0.014783 0.0
-0.003394 0.023000 0.0
-0.006177 0.029988 0.0
-0.009585 0.035778 0.0
-0.013486 0.040429 0.0
-0.017758 0.044014 0.0
-0.022298 0.046619 0.0
-0.027012 0.048336 0.0
-0.031823 0.049258 0.0
-0.036662 0.049473 0.0
-0.041475 0.049065 0.0
-0.046213 0.048110 0.0
-0.050839 0.046674 0.0
-0.055318 0.044812 0.0
-0.059623 0.042571 0.0
-0.063729 0.039986 0.0
-0.067613 0.037086 0.0
-0.071254 0.033892 0.0
-0.074631 0.030418 0.0
-0.077721 0.026675 0.0
-0.080503 0.022671 0.0
-0.082951 0.018412 0.0
-0.085038 0.013906 0.0
-0.086737 0.009162 0.0
-0.088015 0.004194 0.0
-0.088841 -0.000979 0.0
-0.089179 -0.006330 0.0
-0.088996 -0.011822 0.0
-0.088258 -0.017406 0.0
-0.086934 -0.023022 0.0
-0.084997 -0.028594 0.0
-0.082428 -0.034033 0.0
-0.079218 -0.039234 0.0
-0.075370 -0.044080 0.0
-0.070903 -0.048441 0.0
-0.065857 -0.052180 0.0
-0.060290 -0.055155 0.0
-0.054287 -0.057231 0.0
-0.047953 -0.058278 0.0
-0.041418 -0.058185 0.0
-0.034832 -0.056869 0.0
-0.028360 -0.054276 0.0
-0.022177 -0.050395 0.0
-0.016460 -0.045255 0.0
-0.011383 -0.038933 0.0
-0.007104 -0.031550 0.0
-0.003761 -0.023269 0.0
-0.001465 -0.014288 0.0
-0.000296 -0.004837 0.0
-0.000309 0.005931 0.0
-0.001458 0.016418 0.0
-0.003584 0.025504 0.0
-0.006521 0.033205 0.0
-0.010116 0.039564 0.0
-0.014227 0.044653 0.0
-0.018726 0.048561 0.0
-0.023502 0.051388 0.0
-0.028458 0.053239 0.0
-0.033512 0.054220 0.0
-0.038594 0.054432 0.0
-0.043647 0.053971 0.0
-0.048624 0.052919 0.0
-0.053486 0.051351 0.0
-0.058199 0.049327 0.0
-0.062738 0.046899 0.0
-0.067077 0.044104 0.0
-0.071197 0.040972 0.0
-0.075077 0.037526 0.0
-0.078696 0.033780 0.0
-0.082033 0.029742 0.0
-0.085066 0.025419 0.0
-0.087768 0.020816 0.0
-0.090114 0.015936 0.0
-0.092070 0.010788 0.0
-0.093604 0.005381 0.0
-0.094679 -0.000266 0.0
-0.095254 -0.006129 0.0
-0.095289 -0.012170 0.0
-0.094743 -0.018341 0.0
-0.093575 -0.024578 0.0
-0.091751 -0.030799 0.0
-0.089239 -0.036908 0.0
-0.086021 -0.042787 0.0
-0.082091 -0.048305 0.0
-0.077461 -0.053313 0.0
-0.072164 -0.057652 0.0
-0.066257 -0.061157 0.0
-0.059825 -0.063665 0.0
-0.052982 -0.065020 0.0
-0.045871 -0.065089 0.0
-0.038657 -0.063765 0.0
-0.031529 -0.060980 0.0
-0.024689 -0.056714 0.0
-0.018343 -0.050998 0.0
-0.012691 -0.043918 0.0
-0.007921 -0.035614 0.0
-0.004192 -0.026277 0.0
-0.001632 -0.016137 0.0
-0.000329 -0.005461 0.0
-0.000327 0.006567 0.0
-0.001541 0.018145 0.0
-0.003788 0.028149 0.0
-0.006891 0.036600 0.0
-0.010685 0.043557 0.0
-0.015019 0.049105 0.0
-0.019758 0.053348 0.0
-0.024783 0.056402 0.0
-0.029993 0.058390 0.0
-0.035301 0.059430 0.0
-0.040636 0.059639 0.0
-0.045939 0.059121 0.0
-0.051163 0.057970 0.0
-0.056268 0.056267 0.0
-0.061224 0.054081 0.0
-0.066006 0.051465 0.0
-0.070589 0.048461 0.0
-0.074956 0.045102 0.0
-0.079088 0.041408 0.0
-0.082965 0.037394 0.0
-0.086568 0.033067 0.0
-0.089873 0.028432 0.0
-0.092857 0.023489 0.0
-0.095490 0.018240 0.0
-0.097738 0.012689 0.0
-0.099566 0.006842 0.0
-0.100932 0.000713 0.0
-0.101791 -0.005675 0.0
-0.102095 -0.012286 0.0
-0.101793 -0.019073 0.0
-0.100837 -0.025970 0.0
-0.099178 -0.032891 0.0
-0.096775 -0.039731 0.0
-0.093596 -0.046361 0.0
-0.089623 -0.052634 0.0
-0.084858 -0.058380 0.0
-0.079324 -0.063416 0.0
-0.073074 -0.067549 0.0
-0.066195 -0.070584 0.0
-0.058804 -0.072334 0.0
-0.051057 -0.072634 0.0
-0.043140 -0.071351 0.0
-0.035265 -0.068396 0.0
-0.027668 -0.063737 0.0
-0.020587 -0.057403 0.0
-0.014260 -0.049491 0.0
-0.008906 -0.040165 0.0
-0.004714 -0.029646 0.0
-0.001834 -0.018207 0.0
-0.000369 -0.006159 0.0
-0.000346 0.007239 0.0
-0.001632 0.019973 0.0
-0.004009 0.030945 0.0
-0.007289 0.040187 0.0
-0.011296 0.047771 0.0
-0.015868 0.053797 0.0
-0.020861 0.058388 0.0
-0.026150 0.061676 0.0
-0.031626 0.063802 0.0
-0.037199 0.064900 0.0
-0.042797 0.065101 0.0
-0.048359 0.064523 0.0
-0.053837 0.063269 0.0
-0.059194 0.061430 0.0
-0.064400 0.059080 0.0
-0.069431 0.056277 0.0
-0.074267 0.053068 0.0
-0.078890 0.049485 0.0
-0.083285 0.045551 0.0
-0.087434 0.041277 0.0
-0.091318 0.036671 0.0
-0.094917 0.031733 0.0
-0.098206 0.026460 0.0
-0.101155 0.020851 0.0
-0.103729 0.014902 0.0
-0.105891 0.008617 0.0
-0.107592 0.002005 0.0
-0.108785 -0.004916 0.0
-0.109412 -0.012114 0.0
-0.109414 -0.019544 0.0
-0.108730 -0.027139 0.0
-0.107300 -0.034811 0.0
-0.105068 -0.042446 0.0
-0.101986 -0.049906 0.0
-0.098022 -0.057026 0.0
-0.093161 -0.063614 0.0
-0.087417 -0.069460 0.0
-0.080835 -0.074337 0.0
-0.073495 -0.078014 0.0
-0.065523 -0.080267 0.0
-0.057083 -0.080889 0.0
-0.048382 -0.079714 0.0
-0.039663 -0.076626 0.0
-0.031195 -0.071573 0.0
-0.023261 -0.064582 0.0
-0.016139 -0.055761 0.0
-0.010092 -0.045297 0.0
-0.005347 -0.033452 0.0
-0.002082 -0.020546 0.0
-0.000419 -0.006947 0.0
-0.000367 0.007952 0.0
-0.001730 0.021909 0.0
-0.004249 0.033905 0.0
-0.007721 0.043980 0.0
-0.011957 0.052221 0.0
-0.016783 0.058746 0.0
-0.022046 0.063695 0.0
-0.027612 0.067222 0.0
-0.033367 0.069486 0.0
-0.039217 0.070640 0.0
-0.045086 0.070829 0.0
-0.050914 0.070185 0.0
-0.056653 0.068824 0.0
-0.062266 0.066846 0.0
-0.067726 0.064330 0.0
-0.073011 0.061343 0.0
-0.078104 0.057932 0.0
-0.082989 0.054131 0.0
-0.087655 0.049964 0.0
-0.092085 0.045443 0.0
-0.096265 0.040569 0.0
-0.100174 0.035342 0.0
-0.103789 0.029754 0.0
-0.107080 0.023797 0.0
-0.110014 0.017464 0.0
-0.112546 0.010750 0.0
-0.114630 0.003658 0.0
-0.116207 -0.003799 0.0
-0.117215 -0.011596 0.0
-0.117584 -0.019691 0.0
-0.117241 -0.028019 0.0
-0.116111 -0.036491 0.0
-0.114122 -0.044988 0.0
-0.111207 -0.053361 0.0
-0.107316 -0.061427 0.0
-0.102416 -0.068973 0.0
-0.096503 -0.075757 0.0
-0.089610 -0.081515 0.0
-0.081812 -0.085973 0.0
-0.073233 -0.088859 0.0
-0.064048 -0.089921 0.0
-0.054485 -0.088946 0.0
-0.044819 -0.085780 0.0
-0.035359 -0.080347 0.0
-0.026436 -0.072665 0.0
-0.018385 -0.062851 0.0
-0.011518 -0.051120 0.0
-0.006111 -0.037781 0.0
-0.002382 -0.023211 0.0
-0.000480 -0.007847 0.0
-0.000390 0.008709 0.0
-0.001838 0.023963 0.0
-0.004510 0.037042 0.0
-0.008190 0.047995 0.0
-0.012672 0.056925 0.0
-0.017771 0.063967 0.0
-0.023320 0.069286 0.0
-0.029178 0.073055 0.0
-0.035225 0.075455 0.0
-0.041361 0.076658 0.0
-0.047510 0.076828 0.0
-0.053609 0.076112 0.0
-0.059611 0.074639 0.0
-0.065483 0.072516 0.0
-0.071197 0.069834 0.0
-0.076737 0.066663 0.0
-0.082087 0.063054 0.0
-0.087236 0.059044 0.0
-0.092175 0.054656 0.0
-0.096892 0.049899 0.0
-0.101374 0.044775 0.0
-0.105605 0.039277 0.0
-0.109562 0.033392 0.0
-0.113218 0.027107 0.0
-0.116538 0.020407 0.0
-0.119478 0.013279 0.0
-0.121985 0.005719 0.0
-0.123998 -0.002270 0.0
-0.125444 -0.010670 0.0
-0.126246 -0.019445 0.0
-0.126317 -0.028536 0.0
-0.125566 -0.037854 0.0
-0.123901 -0.047279 0.0
-0.121236 -0.056650 0.0
-0.117497 -0.065769 0.0
-0.112628 -0.074400 0.0
-0.106606 -0.082266 0.0
-0.099444 -0.089062 0.0
-0.091204 -0.094464 0.0
-0.082008 -0.098144 0.0
-0.072038 -0.099791 0.0
-0.061540 -0.099136 0.0
-0.050823 -0.095974 0.0
-0.040242 -0.090194 0.0
-0.030187 -0.081796 0.0
-0.021055 -0.070904 0.0
-0.013224 -0.057764 0.0
-0.007032 -0.042736 0.0
-0.002747 -0.026271 0.0
-0.000555 -0.008881 0.0
-0.000415 0.009514 0.0
-0.001955 0.026146 0.0
-0.004796 0.040372 0.0
-0.008701 0.052251 0.0
-0.013449 0.061900 0.0
-0.018839 0.069480 0.0
-0.024693 0.075176 0.0
-0.030858 0.079188 0.0
-0.037208 0.081718 0.0
-0.043640 0.082963 0.0
-0.050073 0.083105 0.0
-0.056446 0.082307 0.0
-0.062712 0.080713 0.0
-0.068839 0.078441 0.0
-0.074804 0.075590 0.0
-0.080592 0.072235 0.0
-0.086194 0.068433 0.0
-0.091601 0.064222 0.0
-0.096809 0.059624 0.0
-0.101810 0.054649 0.0
-0.106596 0.049293 0.0
-0.111152 0.043546 0.0
-0.115461 0.037389 0.0
-0.119496 0.030802 0.0
-0.123223 0.023760 0.0
-0.126598 0.016241 0.0
-0.129566 0.008232 0.0
-0.132060 -0.000277 0.0
-0.134001 -0.009275 0.0
-0.135301 -0.018738 0.0
-0.135860 -0.028614 0.0
-0.135570 -0.038818 0.0
-0.134319 -0.049231 0.0
-0.131997 -0.059685 0.0
-0.128503 -0.069968 0.0
-0.123755 -0.079817 0.0
-0.117702 -0.088924 0.0
-0.110333 -0.096935 0.0
-0.101693 -0.103470 0.0
-0.091891 -0.108136 0.0
-0.081112 -0.110549 0.0
-0.069620 -0.110368 0.0
-0.057756 -0.107324 0.0
-0.045926 -0.101254 0.0
-0.034586 -0.092131 0.0
-0.024208 -0.080078 0.0
-0.015254 -0.065374 0.0
-0.008134 -0.048438 0.0
-0.003185 -0.029803 0.0
-0.000645 -0.010081 0.0
-0.000443 0.010372 0.0
-0.002085 0.028470 0.0
-0.005109 0.043912 0.0
-0.009259 0.056766 0.0
-0.014295 0.067169 0.0
-0.019997 0.075304 0.0
-0.026173 0.081383 0.0
-0.032661 0.085634 0.0
-0.039325 0.088287 0.0
-0.046059 0.089561 0.0
-0.052780 0.089661 0.0
-0.059424 0.088769 0.0
-0.065949 0.087042 0.0
-0.072323 0.084613 0.0
-0.078529 0.081588 0.0
-0.084554 0.078050 0.0
-0.090394 0.074059 0.0
-0.096046 0.069656 0.0
-0.101510 0.064862 0.0
-0.106784 0.059686 0.0
-0.111863 0.054121 0.0
-0.116739 0.048151 0.0
-0.121397 0.041751 0.0
-0.125815 0.034892 0.0
-0.129959 0.027541 0.0
-0.133787 0.019663 0.0
-0.137242 0.011232 0.0
-0.140254 0.002228 0.0
-0.142738 -0.007354 0.0
-0.144596 -0.017501 0.0
-0.145714 -0.028173 0.0