# vtk DataFile Version 3.0
Vector Field
ASCII
DATASET RECTILINEAR_GRID
DIMENSIONS 50 50 1
X_COORDINATES 50 double
0.100000 0.300000 0.500000 0.700000 0.900000 1.100000 1.300000 1.500000 1.700000 1.900000 2.100000 2.300000 2.500000 2.700000 2.900000 3.100000 3.300000 3.500000 3.700000 3.900000 4.100000 4.300000 4.500000 4.700000 4.900000 5.100000 5.300000 5.500000 5.700000 5.900000 6.100000 6.300000 6.500000 6.700000 6.900000 7.100000 7.300000 7.500000 7.700000 7.900000 8.100000 8.300000 8.500000 8.700000 8.900000 9.100000 9.300000 9.500000 9.700000 9.900000 
Y_COORDINATES 50 double
0.100000 0.300000 0.500000 0.700000 0.900000 1.100000 1.300000 1.500000 1.700000 1.900000 2.100000 2.300000 2.500000 2.700000 2.900000 3.100000 3.300000 3.500000 3.700000 3.900000 4.100000 4.300000 4.500000 4.700000 4.900000 5.100000 5.300000 5.500000 5.700000 5.900000 6.100000 6.300000 6.500000 6.700000 6.900000 7.100000 7.300000 7.500000 7.700000 7.900000 8.100000 8.300000 8.500000 8.700000 8.900000 9.100000 9.300000 9.500000 9.700000 9.900000 
Z_COORDINATES 1 double
0.0
POINT_DATA 2500
VECTORS Vektorfeld double
0.000007 -0.000007 0.0
-0.000013 0.000028 0.0
-0.000107 0.000066 0.0
-0.000268 0.000095 0.0
-0.000477 0.000114 0.0
-0.000714 0.000124 0.0
-0.000966 0.000128 0.0
-0.001223 0.000128 0.0
-0.001477 0.000126 0.0
-0.001726 0.000123 0.0
-0.001966 0.000118 0.0
-0.002197 0.000113 0.0
-0.002417 0.000107 0.0
-0.002624 0.000101 0.0
-0.002819 0.000094 0.0
-0.003000 0.000087 0.0
-0.003167 0.000080 0.0
-0.003318 0.000072 0.0
-0.003454 0.000064 0.0
-0.003572 0.000055 0.0
-0.003674 0.000046 0.0
-0.003757 0.000037 0.0
-0.003823 0.000028 0.0
-0.003869 0.000019 0.0
-0.003897 0.000009 0.0
-0.003906 -0.000001 0.0
-0.003895 -0.000010 0.0
-0.003864 -0.000020 0.0
-0.003814 -0.000030 0.0
-0.003745 -0.000040 0.0
-0.003656 -0.000049 0.0
-0.003549 -0.000059 0.0
-0.003422 -0.000068 0.0
-0.003278 -0.000077 0.0
-0.003116 -0.000085 0.0
-0.002937 -0.000094 0.0
-0.002742 -0.000101 0.0
-0.002532 -0.000109 0.0
-0.002307 -0.000116 0.0
-0.002069 -0.000122 0.0
-0.001819 -0.000128 0.0
-0.001559 -0.000132 0.0
-0.001292 -0.000135 0.0
-0.001022 -0.000135 0.0
-0.000757 -0.000131 0.0
-0.000507 -0.000120 0.0
-0.000286 -0.000100 0.0
-0.000116 -0.000070 0.0
-0.000016 -0.000030 0.0
0.000007 0.000007 0.0
-0.000028 0.000013 0.0
-0.000161 0.000162 0.0
-0.000450 0.000314 0.0
-0.000875 0.000433 0.0
-0.001402 0.000512 0.0
-0.001995 0.000556 0.0
-0.002624 0.000576 0.0
-0.003266 0.000579 0.0
-0.003905 0.000570 0.0
-0.004532 0.000554 0.0
-0.005140 0.000534 0.0
-0.005723 0.000511 0.0
-0.006278 0.000484 0.0
-0.006804 0.000456 0.0
-0.007296 0.000426 0.0
-0.007753 0.000394 0.0
-0.008174 0.000360 0.0
-0.008555 0.000324 0.0
-0.008895 0.000287 0.0
-0.009193 0.000248 0.0
-0.009446 0.000208 0.0
-0.009655 0.000167 0.0
-0.009817 0.000125 0.0
-0.009932 0.000083 0.0
-0.009999 0.000039 0.0
-0.010017 -0.000004 0.0
-0.009986 -0.000048 0.0
-0.009906 -0.000092 0.0
-0.009777 -0.000136 0.0
-0.009599 -0.000180 0.0
-0.009373 -0.000223 0.0
-0.009099 -0.000266 0.0
-0.008778 -0.000307 0.0
-0.008412 -0.000348 0.0
-0.008002 -0.000386 0.0
-0.007550 -0.000424 0.0
-0.007057 -0.000459 0.0
-0.006527 -0.000492 0.0
-0.005960 -0.000523 0.0
-0.005362 -0.000551 0.0
-0.004735 -0.000576 0.0
-0.004084 -0.000594 0.0
-0.003419 -0.000605 0.0
-0.002749 -0.000604 0.0
-0.002092 -0.000584 0.0
-0.001472 -0.000537 0.0
-0.000920 -0.000455 0.0
-0.000475 -0.000331 0.0
-0.000171 -0.000172 0.0
-0.000030 -0.000016 0.0
-0.000066 0.000107 0.0
-0.000315 0.000451 0.0
-0.000782 0.000780 0.0
-0.001425 0.001036 0.0
-0.002199 0.001210 0.0
-0.003059 0.001311 0.0
-0.003967 0.001358 0.0
-0.004893 0.001365 0.0
-0.005816 0.001347 0.0
-0.006723 0.001311 0.0
-0.007601 0.001264 0.0
-0.008446 0.001208 0.0
-0.009250 0.001147 0.0
-0.010010 0.001079 0.0
-0.010722 0.001007 0.0
-0.011384 0.000931 0.0
-0.011991 0.000850 0.0
-0.012541 0.000765 0.0
-0.013031 0.000677 0.0
-0.013460 0.000585 0.0
-0.013825 0.000490 0.0
-0.014124 0.000393 0.0
-0.014355 0.000294 0.0
-0.014519 0.000193 0.0
-0.014612 0.000090 0.0
-0.014636 -0.000014 0.0
-0.014588 -0.000118 0.0
-0.014469 -0.000222 0.0
-0.014280 -0.000326 0.0
-0.014020 -0.000429 0.0
-0.013691 -0.000531 0.0
-0.013292 -0.000631 0.0
-0.012827 -0.000728 0.0
-0.012296 -0.000823 0.0
-0.011703 -0.000915 0.0
-0.011048 -0.001002 0.0
-0.010336 -0.001085 0.0
-0.009569 -0.001164 0.0
-0.008751 -0.001236 0.0
-0.007887 -0.001301 0.0
-0.006984 -0.001357 0.0
-0.006048 -0.001400 0.0
-0.005091 -0.001423 0.0
-0.004129 -0.001418 0.0
-0.003185 -0.001371 0.0
-0.002291 -0.001265 0.0
-0.001485 -0.001084 0.0
-0.000816 -0.000817 0.0
-0.000330 -0.000475 0.0
-0.000069 -0.000115 0.0
-0.000096 0.000269 0.0
-0.000439 0.000881 0.0
-0.001050 0.001427 0.0
-0.001866 0.001848 0.0
-0.002830 0.002135 0.0
-0.003889 0.002305 0.0
-0.005002 0.002384 0.0
-0.006134 0.002398 0.0
-0.007263 0.002366 0.0
-0.008370 0.002305 0.0
-0.009444 0.002223 0.0
-0.010476 0.002126 0.0
-0.011459 0.002017 0.0
-0.012388 0.001898 0.0
-0.013258 0.001771 0.0
-0.014066 0.001636 0.0
-0.014807 0.001493 0.0
-0.015477 0.001343 0.0
-0.016075 0.001187 0.0
-0.016597 0.001025 0.0
-0.017041 0.000858 0.0
-0.017404 0.000687 0.0
-0.017685 0.000512 0.0
-0.017882 0.000334 0.0
-0.017993 0.000154 0.0
-0.018019 -0.000028 0.0
-0.017959 -0.000211 0.0
-0.017811 -0.000394 0.0
-0.017578 -0.000577 0.0
-0.017258 -0.000757 0.0
-0.016853 -0.000936 0.0
-0.016365 -0.001111 0.0
-0.015796 -0.001283 0.0
-0.015146 -0.001449 0.0
-0.014420 -0.001609 0.0
-0.013620 -0.001762 0.0
-0.012749 -0.001908 0.0
-0.011813 -0.002045 0.0
-0.010815 -0.002170 0.0
-0.009761 -0.002283 0.0
-0.008660 -0.002380 0.0
-0.007520 -0.002453 0.0
-0.006354 -0.002492 0.0
-0.005182 -0.002482 0.0
-0.004030 -0.002402 0.0
-0.002932 -0.002226 0.0
-0.001934 -0.001927 0.0
-0.001088 -0.001489 0.0
-0.000455 -0.000922 0.0
-0.000100 -0.000284 0.0
-0.000117 0.000482 0.0
-0.000528 0.001422 0.0
-0.001248 0.002218 0.0
-0.002195 0.002821 0.0
-0.003301 0.003231 0.0
-0.004508 0.003475 0.0
-0.005769 0.003588 0.0
-0.007050 0.003607 0.0
-0.008325 0.003560 0.0
-0.009575 0.003468 0.0
-0.010788 0.003345 0.0
-0.011953 0.003199 0.0
-0.013062 0.003036 0.0
-0.014110 0.002857 0.0
-0.015092 0.002664 0.0
-0.016002 0.002460 0.0
-0.016837 0.002244 0.0
-0.017593 0.002018 0.0
-0.018266 0.001783 0.0
-0.018854 0.001539 0.0
-0.019353 0.001287 0.0
-0.019760 0.001029 0.0
-0.020075 0.000766 0.0
-0.020295 0.000498 0.0
-0.020420 0.000226 0.0
-0.020447 -0.000048 0.0
-0.020377 -0.000323 0.0
-0.020209 -0.000598 0.0
-0.019944 -0.000872 0.0
-0.019582 -0.001144 0.0
-0.019124 -0.001412 0.0
-0.018573 -0.001675 0.0
-0.017929 -0.001932 0.0
-0.017196 -0.002182 0.0
-0.016376 -0.002422 0.0
-0.015473 -0.002652 0.0
-0.014491 -0.002870 0.0
-0.013435 -0.003075 0.0
-0.012310 -0.003263 0.0
-0.011122 -0.003432 0.0
-0.009881 -0.003575 0.0
-0.008596 -0.003683 0.0
-0.007282 -0.003741 0.0
-0.005959 -0.003728 0.0
-0.004655 -0.003613 0.0
-0.003408 -0.003360 0.0
-0.002265 -0.002934 0.0
-0.001287 -0.002307 0.0
-0.000544 -0.001480 0.0
-0.000121 -0.000504 0.0
-0.000131 0.000730 0.0
-0.000588 0.002043 0.0
-0.001387 0.003115 0.0
-0.002431 0.003915 0.0
-0.003643 0.004454 0.0
-0.004958 0.004774 0.0
-0.006329 0.004922 0.0
-0.007718 0.004944 0.0
-0.009098 0.004879 0.0
-0.010451 0.004753 0.0
-0.011762 0.004584 0.0
-0.013021 0.004384 0.0
-0.014220 0.004159 0.0
-0.015353 0.003914 0.0
-0.016414 0.003650 0.0
-0.017397 0.003369 0.0
-0.018299 0.003072 0.0
-0.019115 0.002762 0.0
-0.019841 0.002439 0.0
-0.020474 0.002104 0.0
-0.021012 0.001759 0.0
-0.021452 0.001405 0.0
-0.021791 0.001044 0.0
-0.022028 0.000677 0.0
-0.022161 0.000305 0.0
-0.022189 -0.000070 0.0
-0.022113 -0.000447 0.0
-0.021931 -0.000823 0.0
-0.021644 -0.001199 0.0
-0.021252 -0.001570 0.0
-0.020758 -0.001937 0.0
-0.020161 -0.002297 0.0
-0.019466 -0.002649 0.0
-0.018674 -0.002990 0.0
-0.017788 -0.003319 0.0
-0.016813 -0.003634 0.0
-0.015752 -0.003932 0.0
-0.014611 -0.004211 0.0
-0.013395 -0.004468 0.0
-0.012111 -0.004698 0.0
-0.010769 -0.004893 0.0
-0.009380 -0.005040 0.0
-0.007958 -0.005120 0.0
-0.006526 -0.005105 0.0
-0.005111 -0.004955 0.0
-0.003752 -0.004624 0.0
-0.002503 -0.004062 0.0
-0.001426 -0.003232 0.0
-0.000604 -0.002120 0.0
-0.000134 -0.000759 0.0
-0.000139 0.001000 0.0
-0.000629 0.002721 0.0
-0.001485 0.004091 0.0
-0.002601 0.005098 0.0
-0.003892 0.005773 0.0
-0.005290 0.006169 0.0
-0.006743 0.006350 0.0
-0.008214 0.006375 0.0
-0.009674 0.006288 0.0
-0.011103 0.006125 0.0
-0.012487 0.005907 0.0
-0.013816 0.005649 0.0
-0.015082 0.005359 0.0
-0.016277 0.005042 0.0
-0.017396 0.004701 0.0
-0.018433 0.004338 0.0
-0.019384 0.003955 0.0
-0.020244 0.003555 0.0
-0.021010 0.003138 0.0
-0.021677 0.002706 0.0
-0.022244 0.002261 0.0
-0.022707 0.001805 0.0
-0.023065 0.001340 0.0
-0.023314 0.000867 0.0
-0.023455 0.000388 0.0
-0.023485 -0.000095 0.0
-0.023404 -0.000580 0.0
-0.023213 -0.001064 0.0
-0.022910 -0.001547 0.0
-0.022498 -0.002026 0.0
-0.021977 -0.002498 0.0
-0.021349 -0.002961 0.0
-0.020616 -0.003414 0.0
-0.019781 -0.003853 0.0
-0.018848 -0.004276 0.0
-0.017819 -0.004681 0.0
-0.016700 -0.005065 0.0
-0.015495 -0.005424 0.0
-0.014212 -0.005754 0.0
-0.012857 -0.006050 0.0
-0.011439 -0.006300 0.0
-0.009971 -0.006490 0.0
-0.008467 -0.006595 0.0
-0.006950 -0.006580 0.0
-0.005449 -0.006396 0.0
-0.004006 -0.005984 0.0
-0.002674 -0.005283 0.0
-0.001525 -0.004237 0.0
-0.000646 -0.002816 0.0
-0.000143 -0.001035 0.0
-0.000146 0.001285 0.0
-0.000659 0.003439 0.0
-0.001557 0.005126 0.0
-0.002729 0.006351 0.0
-0.004084 0.007165 0.0
-0.005549 0.007640 0.0
-0.007070 0.007854 0.0
-0.008607 0.007878 0.0
-0.010131 0.007769 0.0
-0.011622 0.007565 0.0
-0.013066 0.007296 0.0
-0.014452 0.006976 0.0
-0.015770 0.006617 0.0
-0.017016 0.006224 0.0
-0.018181 0.005802 0.0
-0.019261 0.005354 0.0
-0.020251 0.004881 0.0
-0.021147 0.004385 0.0
-0.021944 0.003870 0.0
-0.022640 0.003337 0.0
-0.023230 0.002788 0.0
-0.023713 0.002225 0.0
-0.024085 0.001650 0.0
-0.024346 0.001067 0.0
-0.024493 0.000476 0.0
-0.024526 -0.000120 0.0
-0.024443 -0.000718 0.0
-0.024245 -0.001316 0.0
-0.023932 -0.001911 0.0
-0.023505 -0.002501 0.0
-0.022964 -0.003084 0.0
-0.022311 -0.003656 0.0
-0.021549 -0.004214 0.0
-0.020681 -0.004756 0.0
-0.019709 -0.005278 0.0
-0.018638 -0.005778 0.0
-0.017472 -0.006252 0.0
-0.016217 -0.006696 0.0
-0.014879 -0.007104 0.0
-0.013465 -0.007469 0.0
-0.011986 -0.007779 0.0
-0.010452 -0.008014 0.0
-0.008880 -0.008147 0.0
-0.007292 -0.008133 0.0
-0.005720 -0.007915 0.0
-0.004206 -0.007422 0.0
-0.002808 -0.006575 0.0
-0.001600 -0.005302 0.0
-0.000676 -0.003554 0.0
-0.000149 -0.001327 0.0
-0.000151 0.001581 0.0
-0.000684 0.004190 0.0
-0.001618 0.006208 0.0
-0.002838 0.007661 0.0
-0.004248 0.008620 0.0
-0.005772 0.009175 0.0
-0.007353 0.009422 0.0
-0.008950 0.009444 0.0
-0.010532 0.009309 0.0
-0.012079 0.009063 0.0
-0.013576 0.008739 0.0
-0.015012 0.008355 0.0
-0.016379 0.007924 0.0
-0.017669 0.007453 0.0
-0.018876 0.006947 0.0
-0.019995 0.006408 0.0
-0.021020 0.005841 0.0
-0.021948 0.005248 0.0
-0.022773 0.004631 0.0
-0.023494 0.003992 0.0
-0.024106 0.003335 0.0
-0.024606 0.002661 0.0
-0.024993 0.001974 0.0
-0.025264 0.001275 0.0
-0.025418 0.000569 0.0
-0.025454 -0.000144 0.0
-0.025371 -0.000859 0.0
-0.025169 -0.001574 0.0
-0.024848 -0.002287 0.0
-0.024408 -0.002993 0.0
-0.023850 -0.003690 0.0
-0.023177 -0.004375 0.0
-0.022391 -0.005043 0.0
-0.021493 -0.005692 0.0
-0.020488 -0.006319 0.0
-0.019380 -0.006918 0.0
-0.018173 -0.007486 0.0
-0.016872 -0.008018 0.0
-0.015484 -0.008508 0.0
-0.014017 -0.008946 0.0
-0.012480 -0.009318 0.0
-0.010886 -0.009603 0.0
-0.009251 -0.009765 0.0
-0.007598 -0.009755 0.0
-0.005960 -0.009504 0.0
-0.004382 -0.008926 0.0
-0.002924 -0.007928 0.0
-0.001664 -0.006417 0.0
-0.000702 -0.004326 0.0
-0.000154 -0.001631 0.0
-0.000155 0.001887 0.0
-0.000707 0.004968 0.0
-0.001675 0.007332 0.0
-0.002941 0.009023 0.0
-0.004404 0.010131 0.0
-0.005986 0.010769 0.0
-0.007627 0.011049 0.0
-0.009282 0.011069 0.0
-0.010921 0.010906 0.0
-0.012524 0.010616 0.0
-0.014074 0.010233 0.0
-0.015560 0.009783 0.0
-0.016974 0.009277 0.0
-0.018308 0.008724 0.0
-0.019556 0.008131 0.0
-0.020713 0.007500 0.0
-0.021773 0.006835 0.0
-0.022732 0.006140 0.0
-0.023586 0.005418 0.0
-0.024331 0.004670 0.0
-0.024965 0.003901 0.0
-0.025483 0.003113 0.0
-0.025885 0.002310 0.0
-0.026167 0.001493 0.0
-0.026329 0.000667 0.0
-0.026370 -0.000166 0.0
-0.026287 -0.001002 0.0
-0.026082 -0.001839 0.0
-0.025753 -0.002672 0.0
-0.025302 -0.003498 0.0
-0.024730 -0.004314 0.0
-0.024038 -0.005116 0.0
-0.023228 -0.005899 0.0
-0.022303 -0.006660 0.0
-0.021266 -0.007394 0.0
-0.020121 -0.008096 0.0
-0.018872 -0.008763 0.0
-0.017526 -0.009388 0.0
-0.016089 -0.009963 0.0
-0.014568 -0.010478 0.0
-0.012974 -0.010917 0.0
-0.011319 -0.011253 0.0
-0.009620 -0.011448 0.0
-0.007902 -0.011442 0.0
-0.006198 -0.011158 0.0
-0.004555 -0.010493 0.0
-0.003038 -0.009337 0.0
-0.001727 -0.007577 0.0
-0.000727 -0.005127 0.0
-0.000160 -0.001945 0.0
-0.000161 0.002204 0.0
-0.000732 0.005774 0.0
-0.001736 0.008498 0.0
-0.003049 0.010436 0.0
-0.004568 0.011701 0.0
-0.006210 0.012424 0.0
-0.007912 0.012737 0.0
-0.009629 0.012753 0.0
-0.011329 0.012561 0.0
-0.012990 0.012224 0.0
-0.014596 0.011781 0.0
-0.016135 0.011260 0.0
-0.017599 0.010677 0.0
-0.018979 0.010039 0.0
-0.020271 0.009355 0.0
-0.021468 0.008629 0.0
-0.022564 0.007864 0.0
-0.023557 0.007064 0.0
-0.024440 0.006232 0.0
-0.025212 0.005373 0.0
-0.025868 0.004488 0.0
-0.026406 0.003583 0.0
-0.026824 0.002659 0.0
-0.027119 0.001721 0.0
-0.027289 0.000772 0.0
-0.027335 -0.000186 0.0
-0.027254 -0.001147 0.0
-0.027046 -0.002108 0.0
-0.026711 -0.003066 0.0
-0.026249 -0.004017 0.0
-0.025662 -0.004955 0.0
-0.024951 -0.005878 0.0
-0.024117 -0.006780 0.0
-0.023164 -0.007657 0.0
-0.022093 -0.008504 0.0
-0.020910 -0.009315 0.0
-0.019619 -0.010085 0.0
-0.018225 -0.010806 0.0
-0.016735 -0.011472 0.0
-0.015157 -0.012068 0.0
-0.013501 -0.012577 0.0
-0.011781 -0.012969 0.0
-0.010014 -0.013198 0.0
-0.008225 -0.013199 0.0
-0.006451 -0.012880 0.0
-0.004740 -0.012125 0.0
-0.003159 -0.010804 0.0
-0.001795 -0.008785 0.0
-0.000755 -0.005959 0.0
-0.000166 -0.002270 0.0
-0.000167 0.002531 0.0
-0.000760 0.006611 0.0
-0.001803 0.009709 0.0
-0.003168 0.011904 0.0
-0.004747 0.013331 0.0
-0.006454 0.014142 0.0
-0.008224 0.014490 0.0
-0.010008 0.014502 0.0
-0.011774 0.014279 0.0
-0.013499 0.013891 0.0
-0.015165 0.013386 0.0
-0.016762 0.012792 0.0
-0.018281 0.012127 0.0
-0.019712 0.011402 0.0
-0.021051 0.010623 0.0
-0.022291 0.009797 0.0
-0.023428 0.008928 0.0
-0.024456 0.008020 0.0
-0.025372 0.007076 0.0
-0.026172 0.006101 0.0
-0.026854 0.005098 0.0
-0.027413 0.004071 0.0
-0.027848 0.003024 0.0
-0.028157 0.001960 0.0
-0.028338 0.000884 0.0
-0.028389 -0.000201 0.0
-0.028310 -0.001291 0.0
-0.028100 -0.002382 0.0
-0.027759 -0.003469 0.0
-0.027287 -0.004548 0.0
-0.026685 -0.005614 0.0
-0.025953 -0.006662 0.0
-0.025094 -0.007688 0.0
-0.024110 -0.008686 0.0
-0.023004 -0.009651 0.0
-0.021780 -0.010575 0.0
-0.020442 -0.011453 0.0
-0.018996 -0.012278 0.0
-0.017448 -0.013038 0.0
-0.015807 -0.013720 0.0
-0.014084 -0.014304 0.0
-0.012292 -0.014754 0.0
-0.010449 -0.015021 0.0
-0.008584 -0.015029 0.0
-0.006732 -0.014675 0.0
-0.004945 -0.013827 0.0
-0.003295 -0.012334 0.0
-0.001872 -0.010043 0.0
-0.000787 -0.006826 0.0
-0.000172 -0.002608 0.0
-0.000174 0.002871 0.0
-0.000791 0.007481 0.0
-0.001878 0.010969 0.0
-0.003301 0.013433 0.0
-0.004948 0.015028 0.0
-0.006727 0.015931 0.0
-0.008571 0.016314 0.0
-0.010430 0.016321 0.0
-0.012269 0.016065 0.0
-0.014064 0.015625 0.0
-0.015798 0.015053 0.0
-0.017459 0.014382 0.0
-0.019037 0.013632 0.0
-0.020524 0.012815 0.0
-0.021915 0.011939 0.0
-0.023203 0.011010 0.0
-0.024383 0.010032 0.0
-0.025451 0.009012 0.0
-0.026403 0.007952 0.0
-0.027234 0.006857 0.0
-0.027943 0.005731 0.0
-0.028526 0.004579 0.0
-0.028980 0.003405 0.0
-0.029305 0.002212 0.0
-0.029497 0.001005 0.0
-0.029555 -0.000212 0.0
-0.029479 -0.001435 0.0
-0.029268 -0.002659 0.0
-0.028921 -0.003879 0.0
-0.028438 -0.005092 0.0
-0.027819 -0.006290 0.0
-0.027066 -0.007470 0.0
-0.026181 -0.008625 0.0
-0.025164 -0.009750 0.0
-0.024019 -0.010838 0.0
-0.022750 -0.011882 0.0
-0.021361 -0.012874 0.0
-0.019857 -0.013807 0.0
-0.018246 -0.014668 0.0
-0.016535 -0.015442 0.0
-0.014737 -0.016104 0.0
-0.012864 -0.016618 0.0
-0.010938 -0.016926 0.0
-0.008986 -0.016943 0.0
-0.007047 -0.016552 0.0
-0.005177 -0.015606 0.0
-0.003449 -0.013933 0.0
-0.001958 -0.011358 0.0
-0.000823 -0.007731 0.0
-0.000180 -0.002960 0.0
-0.000181 0.003226 0.0
-0.000827 0.008389 0.0
-0.001963 0.012284 0.0
-0.003451 0.015029 0.0
-0.005173 0.016800 0.0
-0.007032 0.017799 0.0
-0.008959 0.018217 0.0
-0.010901 0.018218 0.0
-0.012821 0.017927 0.0
-0.014694 0.017431 0.0
-0.016503 0.016790 0.0
-0.018234 0.016038 0.0
-0.019878 0.015199 0.0
-0.021427 0.014286 0.0
-0.022875 0.013307 0.0
-0.024216 0.012270 0.0
-0.025444 0.011180 0.0
-0.026555 0.010043 0.0
-0.027545 0.008862 0.0
-0.028412 0.007644 0.0
-0.029150 0.006392 0.0
-0.029759 0.005110 0.0
-0.030235 0.003804 0.0
-0.030576 0.002478 0.0
-0.030781 0.001136 0.0
-0.030848 -0.000218 0.0
-0.030776 -0.001578 0.0
-0.030564 -0.002940 0.0
-0.030211 -0.004299 0.0
-0.029716 -0.005650 0.0
-0.029081 -0.006986 0.0
-0.028306 -0.008303 0.0
-0.027391 -0.009593 0.0
-0.026339 -0.010851 0.0
-0.025152 -0.012068 0.0
-0.023834 -0.013238 0.0
-0.022389 -0.014352 0.0
-0.020822 -0.015399 0.0
-0.019140 -0.016368 0.0
-0.017353 -0.017240 0.0
-0.015470 -0.017988 0.0
-0.013508 -0.018569 0.0
-0.011488 -0.018921 0.0
-0.009439 -0.018949 0.0
-0.007403 -0.018521 0.0
-0.005438 -0.017472 0.0
-0.003623 -0.015610 0.0
-0.002057 -0.012737 0.0
-0.000864 -0.008680 0.0
-0.000189 -0.003329 0.0
-0.000190 0.003598 0.0
-0.000867 0.009340 0.0
-0.002059 0.013662 0.0
-0.003620 0.016700 0.0
-0.005425 0.018655 0.0
-0.007374 0.019753 0.0
-0.009393 0.020208 0.0
-0.011427 0.020202 0.0
-0.013436 0.019873 0.0
-0.015396 0.019318 0.0
-0.017287 0.018602 0.0
-0.019096 0.017766 0.0
-0.020813 0.016833 0.0
-0.022430 0.015818 0.0
-0.023940 0.014732 0.0
-0.025338 0.013583 0.0
-0.026618 0.012376 0.0
-0.027776 0.011117 0.0
-0.028809 0.009812 0.0
-0.029713 0.008465 0.0
-0.030484 0.007081 0.0
-0.031121 0.005666 0.0
-0.031621 0.004224 0.0
-0.031981 0.002760 0.0
-0.032201 0.001278 0.0
-0.032277 -0.000216 0.0
-0.032210 -0.001719 0.0
-0.031997 -0.003224 0.0
-0.031638 -0.004727 0.0
-0.031132 -0.006222 0.0
-0.030480 -0.007702 0.0
-0.029681 -0.009162 0.0
-0.028736 -0.010594 0.0
-0.027646 -0.011992 0.0
-0.026414 -0.013346 0.0
-0.025043 -0.014650 0.0
-0.023536 -0.015892 0.0
-0.021900 -0.017062 0.0
-0.020141 -0.018146 0.0
-0.018268 -0.019123 0.0
-0.016293 -0.019962 0.0
-0.014232 -0.020618 0.0
-0.012107 -0.021018 0.0
-0.009950 -0.021058 0.0
-0.007805 -0.020593 0.0
-0.005734 -0.019437 0.0
-0.003819 -0.017376 0.0
-0.002168 -0.014188 0.0
-0.000911 -0.009678 0.0
-0.000199 -0.003718 0.0
-0.000200 0.003988 0.0
-0.000912 0.010339 0.0
-0.002167 0.015109 0.0
-0.003808 0.018455 0.0
-0.005706 0.020603 0.0
-0.007755 0.021804 0.0
-0.009876 0.022297 0.0
-0.012011 0.022282 0.0
-0.014120 0.021911 0.0
-0.016175 0.021293 0.0
-0.018156 0.020499 0.0
-0.020050 0.019572 0.0
-0.021847 0.018540 0.0
-0.023538 0.017419 0.0
-0.025116 0.016220 0.0
-0.026576 0.014953 0.0
-0.027913 0.013623 0.0
-0.029122 0.012238 0.0
-0.030201 0.010802 0.0
-0.031145 0.009322 0.0
-0.031952 0.007803 0.0
-0.032619 0.006249 0.0
-0.033144 0.004666 0.0
-0.033526 0.003060 0.0
-0.033761 0.001433 0.0
-0.033849 -0.000207 0.0
-0.033787 -0.001857 0.0
-0.033575 -0.003511 0.0
-0.033211 -0.005163 0.0
-0.032694 -0.006808 0.0
-0.032024 -0.008438 0.0
-0.031201 -0.010048 0.0
-0.030223 -0.011630 0.0
-0.029094 -0.013175 0.0
-0.027814 -0.014675 0.0
-0.026386 -0.016120 0.0
-0.024813 -0.017500 0.0
-0.023102 -0.018802 0.0
-0.021258 -0.020009 0.0
-0.019291 -0.021099 0.0
-0.017214 -0.022038 0.0
-0.015042 -0.022774 0.0
-0.012801 -0.023228 0.0
-0.010523 -0.023283 0.0
-0.008256 -0.022779 0.0
-0.006066 -0.021511 0.0
-0.004041 -0.019241 0.0
-0.002294 -0.015721 0.0
-0.000964 -0.010732 0.0
-0.000211 -0.004128 0.0
-0.000211 0.004399 0.0
-0.000963 0.011392 0.0
-0.002287 0.016634 0.0
-0.004018 0.020303 0.0
-0.006020 0.022653 0.0
-0.008179 0.023963 0.0
-0.010413 0.024494 0.0
-0.012660 0.024468 0.0
-0.014878 0.024052 0.0
-0.017037 0.023366 0.0
-0.019118 0.022488 0.0
-0.021104 0.021464 0.0
-0.022987 0.020327 0.0
-0.024758 0.019093 0.0
-0.026410 0.017776 0.0
-0.027937 0.016384 0.0
-0.029334 0.014926 0.0
-0.030599 0.013408 0.0
-0.031726 0.011837 0.0
-0.032714 0.010218 0.0
-0.033558 0.008558 0.0
-0.034258 0.006861 0.0
-0.034811 0.005133 0.0
-0.035215 0.003378 0.0
-0.035468 0.001603 0.0
-0.035569 -0.000189 0.0
-0.035514 -0.001991 0.0
-0.035304 -0.003799 0.0
-0.034936 -0.005607 0.0
-0.034409 -0.007408 0.0
-0.033722 -0.009196 0.0
-0.032873 -0.010963 0.0
-0.031863 -0.012702 0.0
-0.030693 -0.014403 0.0
-0.029362 -0.016058 0.0
-0.027873 -0.017655 0.0
-0.026230 -0.019182 0.0
-0.024437 -0.020625 0.0
-0.022501 -0.021966 0.0
-0.020431 -0.023179 0.0
-0.018241 -0.024227 0.0
-0.015947 -0.025051 0.0
-0.013577 -0.025564 0.0
-0.011164 -0.025637 0.0
-0.008762 -0.025094 0.0
-0.006439 -0.023709 0.0
-0.004290 -0.021218 0.0
-0.002435 -0.017346 0.0
-0.001023 -0.011850 0.0
-0.000224 -0.004562 0.0
-0.000224 0.004834 0.0
-0.001019 0.012504 0.0
-0.002420 0.018245 0.0
-0.004252 0.022256 0.0
-0.006367 0.024818 0.0
-0.008649 0.026239 0.0
-0.011008 0.026809 0.0
-0.013378 0.026770 0.0
-0.015715 0.026305 0.0
-0.017989 0.025546 0.0
-0.020177 0.024576 0.0
-0.022265 0.023450 0.0
-0.024241 0.022200 0.0
-0.026098 0.020847 0.0
-0.027828 0.019404 0.0
-0.029427 0.017882 0.0
-0.030889 0.016289 0.0
-0.032212 0.014633 0.0
-0.033391 0.012920 0.0
-0.034425 0.011157 0.0
-0.035310 0.009350 0.0
-0.036045 0.007504 0.0
-0.036627 0.005625 0.0
-0.037056 0.003718 0.0
-0.037328 0.001789 0.0
-0.037443 -0.000159 0.0
-0.037398 -0.002120 0.0
-0.037191 -0.004088 0.0
-0.036820 -0.006057 0.0
-0.036284 -0.008021 0.0
-0.035580 -0.009974 0.0
-0.034707 -0.011907 0.0
-0.033664 -0.013811 0.0
-0.032451 -0.015678 0.0
-0.031067 -0.017497 0.0
-0.029515 -0.019256 0.0
-0.027796 -0.020942 0.0
-0.025916 -0.022538 0.0
-0.023880 -0.024024 0.0
-0.021699 -0.025372 0.0
-0.019385 -0.026538 0.0
-0.016957 -0.027460 0.0
-0.014443 -0.028040 0.0
-0.011882 -0.028135 0.0
-0.009328 -0.027553 0.0
-0.006856 -0.026045 0.0
-0.004568 -0.023319 0.0
-0.002594 -0.019074 0.0
-0.001090 -0.013038 0.0
-0.000238 -0.005024 0.0
-0.000237 0.005295 0.0
-0.001082 0.013684 0.0
-0.002568 0.019952 0.0
-0.004511 0.024323 0.0
-0.006753 0.027109 0.0
-0.009170 0.028647 0.0
-0.011665 0.029256 0.0
-0.014171 0.029200 0.0
-0.016639 0.028681 0.0
-0.019037 0.027841 0.0
-0.021341 0.026774 0.0
-0.023538 0.025537 0.0
-0.025615 0.024167 0.0
-0.027564 0.022686 0.0
-0.029379 0.021110 0.0
-0.031053 0.019450 0.0
-0.032584 0.017715 0.0
-0.033968 0.015913 0.0
-0.035202 0.014052 0.0
-0.036284 0.012139 0.0
-0.037211 0.010180 0.0
-0.037983 0.008180 0.0
-0.038597 0.006146 0.0
-0.039052 0.004081 0.0
-0.039346 0.001992 0.0
-0.039477 -0.000117 0.0
-0.039443 -0.002241 0.0
-0.039241 -0.004375 0.0
-0.038870 -0.006512 0.0
-0.038326 -0.008646 0.0
-0.037607 -0.010771 0.0
-0.036711 -0.012878 0.0
-0.035636 -0.014958 0.0
-0.034379 -0.017001 0.0
-0.032942 -0.018996 0.0
-0.031323 -0.020929 0.0
-0.029525 -0.022786 0.0
-0.027552 -0.024548 0.0
-0.025409 -0.026193 0.0
-0.023107 -0.027687 0.0
-0.020658 -0.028985 0.0
-0.018083 -0.030015 0.0
-0.015411 -0.030670 0.0
-0.012684 -0.030794 0.0
-0.009961 -0.030172 0.0
-0.007324 -0.028534 0.0
-0.004881 -0.025560 0.0
-0.002771 -0.020917 0.0
-0.001164 -0.014306 0.0
-0.000255 -0.005518 0.0
-0.000253 0.005785 0.0
-0.001152 0.014937 0.0
-0.002733 0.021765 0.0
-0.004798 0.026518 0.0
-0.007180 0.029538 0.0
-0.009745 0.031198 0.0
-0.012391 0.031845 0.0
-0.015045 0.031769 0.0
-0.017656 0.031190 0.0
-0.020188 0.030263 0.0
-0.022620 0.029089 0.0
-0.024934 0.027733 0.0
-0.027118 0.026233 0.0
-0.029165 0.024616 0.0
-0.031069 0.022898 0.0
-0.032824 0.021091 0.0
-0.034427 0.019206 0.0
-0.035874 0.017253 0.0
-0.037165 0.015237 0.0
-0.038297 0.013168 0.0
-0.039269 0.011051 0.0
-0.040079 0.008892 0.0
-0.040726 0.006696 0.0
-0.041210 0.004469 0.0
-0.041527 0.002216 0.0
-0.041676 -0.000060 0.0
-0.041655 -0.002353 0.0
-0.041462 -0.004658 0.0
-0.041092 -0.006970 0.0
-0.040543 -0.009282 0.0
-0.039812 -0.011586 0.0
-0.038894 -0.013876 0.0
-0.037788 -0.016142 0.0
-0.036489 -0.018372 0.0
-0.034997 -0.020554 0.0
-0.033311 -0.022675 0.0
-0.031430 -0.024717 0.0
-0.029359 -0.026661 0.0
-0.027102 -0.028479 0.0
-0.024669 -0.030137 0.0
-0.022073 -0.031581 0.0
-0.019337 -0.032732 0.0
-0.016490 -0.033472 0.0
-0.013580 -0.033629 0.0
-0.010669 -0.032970 0.0
-0.007847 -0.031196 0.0
-0.005231 -0.027957 0.0
-0.002971 -0.022890 0.0
-0.001248 -0.015663 0.0
-0.000273 -0.006045 0.0
-0.000270 0.006308 0.0
-0.001229 0.016273 0.0
-0.002915 0.023696 0.0
-0.005116 0.028853 0.0
-0.007653 0.032122 0.0
-0.010381 0.033908 0.0
-0.013193 0.034593 0.0
-0.016009 0.034492 0.0
-0.018775 0.033844 0.0
-0.021454 0.032820 0.0
-0.024021 0.031530 0.0
-0.026461 0.030044 0.0
-0.028760 0.028406 0.0
-0.030911 0.026642 0.0
-0.032908 0.024772 0.0
-0.034746 0.022810 0.0
-0.036424 0.020767 0.0
-0.037937 0.018653 0.0
-0.039287 0.016476 0.0
-0.040470 0.014244 0.0
-0.041487 0.011963 0.0
-0.042337 0.009640 0.0
-0.043020 0.007278 0.0
-0.043533 0.004884 0.0
-0.043876 0.002461 0.0
-0.044046 0.000014 0.0
-0.044041 -0.002453 0.0
-0.043858 -0.004935 0.0
-0.043493 -0.007427 0.0
-0.042943 -0.009923 0.0
-0.042202 -0.012417 0.0
-0.041266 -0.014899 0.0
-0.040131 -0.017360 0.0
-0.038793 -0.019790 0.0
-0.037247 -0.022174 0.0
-0.035493 -0.024497 0.0
-0.033527 -0.026741 0.0
-0.031353 -0.028883 0.0
-0.028975 -0.030893 0.0
-0.026402 -0.032730 0.0
-0.023647 -0.034337 0.0
-0.020734 -0.035625 0.0
-0.017696 -0.036463 0.0
-0.014582 -0.036662 0.0
-0.011463 -0.035967 0.0
-0.008434 -0.034050 0.0
-0.005623 -0.030530 0.0
-0.003194 -0.025007 0.0
-0.001342 -0.017120 0.0
-0.000294 -0.006612 0.0
-0.000289 0.006866 0.0
-0.001315 0.017700 0.0
-0.003118 0.025758 0.0
-0.005470 0.031345 0.0
-0.008177 0.034874 0.0
-0.011086 0.036792 0.0
-0.014078 0.037513 0.0
-0.017071 0.037380 0.0
-0.020006 0.036656 0.0
-0.022843 0.035525 0.0
-0.025557 0.034107 0.0
-0.028130 0.032480 0.0
-0.030551 0.030690 0.0
-0.032811 0.028769 0.0
-0.034905 0.026737 0.0
-0.036830 0.024609 0.0
-0.038584 0.022399 0.0
-0.040165 0.020117 0.0
-0.041574 0.017771 0.0
-0.042810 0.015369 0.0
-0.043873 0.012919 0.0
-0.044764 0.010425 0.0
-0.045482 0.007893 0.0
-0.046027 0.005327 0.0
-0.046397 0.002731 0.0
-0.046590 0.000108 0.0
-0.046604 -0.002538 0.0
-0.046436 -0.005202 0.0
-0.046080 -0.007881 0.0
-0.045533 -0.010568 0.0
-0.044787 -0.013258 0.0
-0.043838 -0.015942 0.0
-0.042679 -0.018611 0.0
-0.041304 -0.021253 0.0
-0.039707 -0.023853 0.0
-0.037885 -0.026395 0.0
-0.035834 -0.028859 0.0
-0.033554 -0.031218 0.0
-0.031049 -0.033440 0.0
-0.028326 -0.035479 0.0
-0.025399 -0.037269 0.0
-0.022293 -0.038712 0.0
-0.019044 -0.039663 0.0
-0.015705 -0.039915 0.0
-0.012353 -0.039186 0.0
-0.009093 -0.037120 0.0
-0.006065 -0.033299 0.0
-0.003445 -0.027287 0.0
-0.001448 -0.018689 0.0
-0.000317 -0.007222 0.0
-0.000310 0.007465 0.0
-0.001411 0.019229 0.0
-0.003343 0.027965 0.0
-0.005862 0.034009 0.0
-0.008758 0.037814 0.0
-0.011866 0.039868 0.0
-0.015058 0.040622 0.0
-0.018244 0.040450 0.0
-0.021362 0.039639 0.0
-0.024370 0.038388 0.0
-0.027240 0.036829 0.0
-0.029955 0.035046 0.0
-0.032503 0.033092 0.0
-0.034877 0.031000 0.0
-0.037072 0.028794 0.0
-0.039086 0.026491 0.0
-0.040917 0.024103 0.0
-0.042566 0.021643 0.0
-0.044034 0.019121 0.0
-0.045322 0.016543 0.0
-0.046432 0.013917 0.0
-0.047363 0.011249 0.0
-0.048118 0.008542 0.0
-0.048695 0.005800 0.0
-0.049095 0.003027 0.0
-0.049314 0.000225 0.0
-0.049351 -0.002603 0.0
-0.049201 -0.005455 0.0
-0.048859 -0.008325 0.0
-0.048320 -0.011211 0.0
-0.047576 -0.014105 0.0
-0.046619 -0.017001 0.0
-0.045442 -0.019889 0.0
-0.044036 -0.022756 0.0
-0.042393 -0.025589 0.0
-0.040506 -0.028369 0.0
-0.038370 -0.031072 0.0
-0.035983 -0.033672 0.0
-0.033345 -0.036130 0.0
-0.030464 -0.038394 0.0
-0.027353 -0.040391 0.0
-0.024037 -0.042012 0.0
-0.020555 -0.043094 0.0
-0.016966 -0.043411 0.0
-0.013354 -0.042654 0.0
-0.009835 -0.040431 0.0
-0.006562 -0.036289 0.0
-0.003728 -0.029751 0.0
-0.001567 -0.020385 0.0
-0.000343 -0.007881 0.0
-0.000333 0.008108 0.0
-0.001518 0.020870 0.0
-0.003595 0.030333 0.0
-0.006299 0.036864 0.0
-0.009405 0.040961 0.0
-0.012732 0.043155 0.0
-0.016142 0.043938 0.0
-0.019539 0.043718 0.0
-0.022856 0.042806 0.0
-0.026048 0.041420 0.0
-0.029085 0.039705 0.0
-0.031950 0.037751 0.0
-0.034632 0.035617 0.0
-0.037123 0.033340 0.0
-0.039420 0.030946 0.0
-0.041523 0.028454 0.0
-0.043432 0.025879 0.0
-0.045148 0.023233 0.0
-0.046674 0.020526 0.0
-0.048013 0.017766 0.0
-0.049168 0.014959 0.0
-0.050140 0.012111 0.0
-0.050931 0.009225 0.0
-0.051542 0.006305 0.0
-0.051972 0.003352 0.0
-0.052221 0.000368 0.0
-0.052284 -0.002646 0.0
-0.052158 -0.005688 0.0
-0.051836 -0.008755 0.0
-0.051312 -0.011844 0.0
-0.050577 -0.014951 0.0
-0.049622 -0.018068 0.0
-0.048435 -0.021186 0.0
-0.047005 -0.024294 0.0
-0.045323 -0.027377 0.0
-0.043377 -0.030414 0.0
-0.041159 -0.033381 0.0
-0.038665 -0.036246 0.0
-0.035891 -0.038967 0.0
-0.032843 -0.041486 0.0
-0.029534 -0.043719 0.0
-0.025991 -0.045543 0.0
-0.022254 -0.046781 0.0
-0.018387 -0.047180 0.0
-0.014485 -0.046400 0.0
-0.010674 -0.044015 0.0
-0.007125 -0.039528 0.0
-0.004049 -0.032421 0.0
-0.001701 -0.022224 0.0
-0.000372 -0.008596 0.0
-0.000360 0.008801 0.0
-0.001637 0.022639 0.0
-0.003876 0.032881 0.0
-0.006788 0.039932 0.0
-0.010126 0.044337 0.0
-0.013695 0.046674 0.0
-0.017346 0.047480 0.0
-0.020974 0.047200 0.0
-0.024506 0.046172 0.0
-0.027894 0.044634 0.0
-0.031109 0.042743 0.0
-0.034132 0.040600 0.0
-0.036951 0.038269 0.0
-0.039562 0.035791 0.0
-0.041963 0.033194 0.0
-0.044155 0.030501 0.0
-0.046139 0.027726 0.0
-0.047920 0.024884 0.0
-0.049502 0.021983 0.0
-0.050889 0.019034 0.0
-0.052086 0.016042 0.0
-0.053097 0.013011 0.0
-0.053924 0.009944 0.0
-0.054569 0.006842 0.0
-0.055032 0.003708 0.0
-0.055312 0.000540 0.0
-0.055406 -0.002661 0.0
-0.055310 -0.005896 0.0
-0.055016 -0.009163 0.0
-0.054516 -0.012460 0.0