# vtk DataFile Version 3.0
Scalar Field
ASCII
DATASET RECTILINEAR_GRID
DIMENSIONS 50 50 1
X_COORDINATES 50 double
0.100000 0.300000 0.500000 0.700000 0.900000 1.100000 1.300000 1.500000 1.700000 1.900000 2.100000 2.300000 2.500000 2.700000 2.900000 3.100000 3.300000 3.500000 3.700000 3.900000 4.100000 4.300000 4.500000 4.700000 4.900000 5.100000 5.300000 5.500000 5.700000 5.900000 6.100000 6.300000 6.500000 6.700000 6.900000 7.100000 7.300000 7.500000 7.700000 7.900000 8.100000 8.300000 8.500000 8.700000 8.900000 9.100000 9.300000 9.500000 9.700000 9.900000 
Y_COORDINATES 50 double
0.100000 0.300000 0.500000 0.700000 0.900000 1.100000 1.300000 1.500000 1.700000 1.900000 2.100000 2.300000 2.500000 2.700000 2.900000 3.100000 3.300000 3.500000 3.700000 3.900000 4.100000 4.300000 4.500000 4.700000 4.900000 5.100000 5.300000 5.500000 5.700000 5.900000 6.100000 6.300000 6.500000 6.700000 6.900000 7.100000 7.300000 7.500000 7.700000 7.900000 8.100000 8.300000 8.500000 8.700000 8.900000 9.100000 9.300000 9.500000 9.700000 9.900000 
Z_COORDINATES 1 double
0.0
POINT_DATA 2500
SCALARS Skalarfeld double 1
LOOKUP_TABLE default
-0.033785
-0.033881
-0.033956
-0.033956
-0.033864
-0.033677
-0.033398
-0.033028
-0.032572
-0.032033
-0.031413
-0.030716
-0.029946
-0.029105
-0.028198
-0.027230
-0.026205
-0.025129
-0.024006
-0.022841
-0.021641
-0.020411
-0.019158
-0.017886
-0.016603
-0.015315
-0.014027
-0.012747
-0.011480
-0.010233
-0.009012
-0.007824
-0.006674
-0.005568
-0.004512
-0.003512
-0.002572
-0.001699
-0.000895
-0.000167
0.000482
0.001048
0.001528
0.001918
0.002215
0.002416
0.002517
0.002521
0.002449
0.002352
-0.033688
-0.033785
-0.033836
-0.033818
-0.033716
-0.033526
-0.033247
-0.032881
-0.032430
-0.031896
-0.031282
-0.030592
-0.029828
-0.028995
-0.028096
-0.027137
-0.026121
-0.025053
-0.023939
-0.022785
-0.021595
-0.020375
-0.019131
-0.017870
-0.016598
-0.015319
-0.014042
-0.012772
-0.011516
-0.010279
-0.009068
-0.007890
-0.006749
-0.005653
-0.004606
-0.003614
-0.002683
-0.001817
-0.001021
-0.000299
0.000344
0.000905
0.001380
0.001767
0.002063
0.002266
0.002377
0.002401
0.002352
0.002255
-0.033613
-0.033735
-0.033787
-0.033763
-0.033656
-0.033464
-0.033185
-0.032820
-0.032371
-0.031839
-0.031228
-0.030541
-0.029780
-0.028950
-0.028055
-0.027100
-0.026087
-0.025024
-0.023914
-0.022764
-0.021578
-0.020362
-0.019123
-0.017866
-0.016598
-0.015324
-0.014051
-0.012785
-0.011532
-0.010300
-0.009093
-0.007918
-0.006781
-0.005688
-0.004645
-0.003656
-0.002728
-0.001865
-0.001072
-0.000353
0.000288
0.000847
0.001320
0.001706
0.002003
0.002208
0.002324
0.002354
0.002304
0.002181
-0.033611
-0.033755
-0.033815
-0.033791
-0.033684
-0.033490
-0.033210
-0.032844
-0.032394
-0.031863
-0.031251
-0.030563
-0.029802
-0.028972
-0.028076
-0.027119
-0.026106
-0.025041
-0.023930
-0.022778
-0.021591
-0.020374
-0.019133
-0.017874
-0.016603
-0.015327
-0.014052
-0.012784
-0.011530
-0.010295
-0.009086
-0.007909
-0.006770
-0.005675
-0.004629
-0.003639
-0.002709
-0.001844
-0.001050
-0.000330
0.000312
0.000872
0.001347
0.001734
0.002032
0.002239
0.002357
0.002385
0.002327
0.002183
-0.033701
-0.033859
-0.033926
-0.033906
-0.033798
-0.033604
-0.033322
-0.032954
-0.032501
-0.031967
-0.031352
-0.030660
-0.029895
-0.029060
-0.028159
-0.027196
-0.026177
-0.025106
-0.023988
-0.022829
-0.021634
-0.020409
-0.019160
-0.017893
-0.016615
-0.015330
-0.014047
-0.012771
-0.011508
-0.010264
-0.009047
-0.007862
-0.006715
-0.005612
-0.004559
-0.003562
-0.002626
-0.001755
-0.000955
-0.000229
0.000417
0.000981
0.001460
0.001850
0.002150
0.002359
0.002476
0.002502
0.002436
0.002278
-0.033887
-0.034053
-0.034126
-0.034109
-0.034002
-0.033806
-0.033521
-0.033150
-0.032692
-0.032152
-0.031531
-0.030832
-0.030058
-0.029214
-0.028304
-0.027331
-0.026301
-0.025218
-0.024088
-0.022916
-0.021708
-0.020469
-0.019206
-0.017925
-0.016632
-0.015333
-0.014035
-0.012744
-0.011466
-0.010208
-0.008976
-0.007777
-0.006617
-0.005501
-0.004435
-0.003425
-0.002477
-0.001596
-0.000786
-0.000051
0.000603
0.001175
0.001659
0.002054
0.002358
0.002569
0.002686
0.002709
0.002638
0.002470
-0.034169
-0.034341
-0.034418
-0.034403
-0.034296
-0.034098
-0.033809
-0.033432
-0.032968
-0.032420
-0.031789
-0.031079
-0.030294
-0.029436
-0.028512
-0.027524
-0.026477
-0.025377
-0.024230
-0.023039
-0.021812
-0.020554
-0.019271
-0.017969
-0.016655
-0.015335
-0.014016
-0.012704
-0.011405
-0.010126
-0.008874
-0.007655
-0.006474
-0.005339
-0.004255
-0.003228
-0.002264
-0.001367
-0.000542
0.000205
0.000872
0.001453
0.001946
0.002348
0.002657
0.002871
0.002989
0.003010
0.002934
0.002761
-0.034546
-0.034724
-0.034805
-0.034791
-0.034683
-0.034482
-0.034188
-0.033804
-0.033330
-0.032771
-0.032127
-0.031403
-0.030602
-0.029727
-0.028784
-0.027776
-0.026708
-0.025586
-0.024415
-0.023200
-0.021948
-0.020664
-0.019354
-0.018026
-0.016685
-0.015337
-0.013990
-0.012650
-0.011324
-0.010018
-0.008739
-0.007493
-0.006287
-0.005127
-0.004020
-0.002970
-0.001983
-0.001066
-0.000223
0.000542
0.001223
0.001818
0.002322
0.002734
0.003049
0.003267
0.003387
0.003407
0.003328
0.003149
-0.035020
-0.035203
-0.035288
-0.035275
-0.035165
-0.034959
-0.034659
-0.034265
-0.033781
-0.033207
-0.032548
-0.031806
-0.030985
-0.030088
-0.029121
-0.028088
-0.026994
-0.025844
-0.024644
-0.023399
-0.022115
-0.020799
-0.019457
-0.018095
-0.016721
-0.015339
-0.013958
-0.012584
-0.011224
-0.009884
-0.008571
-0.007293
-0.006055
-0.004864
-0.003727
-0.002648
-0.001635
-0.000693
0.000174
0.000959
0.001660
0.002271
0.002790
0.003212
0.003537
0.003761
0.003883
0.003902
0.003820
0.003635
-0.035593
-0.035782
-0.035870
-0.035858
-0.035745
-0.035534
-0.035225
-0.034820
-0.034322
-0.033731
-0.033053
-0.032289
-0.031444
-0.030521
-0.029526
-0.028463
-0.027337
-0.026153
-0.024918
-0.023637
-0.022316
-0.020962
-0.019580
-0.018179
-0.016763
-0.015341
-0.013919
-0.012504
-0.011103
-0.009723
-0.008371
-0.007053
-0.005777
-0.004549
-0.003376
-0.002263
-0.001218
-0.000245
0.000649
0.001461
0.002184
0.002816
0.003351
0.003788
0.004122
0.004353
0.004479
0.004499
0.004413
0.004222
-0.036266
-0.036462
-0.036554
-0.036542
-0.036426
-0.036208
-0.035890
-0.035471
-0.034956
-0.034346
-0.033644
-0.032855
-0.031981
-0.031028
-0.030000
-0.028901
-0.027738
-0.026515
-0.025239
-0.023915
-0.022551
-0.021151
-0.019724
-0.018276
-0.016813
-0.015344
-0.013874
-0.012411
-0.010962
-0.009535
-0.008136
-0.006772
-0.005451
-0.004180
-0.002965
-0.001813
-0.000729
0.000279
0.001207
0.002048
0.002799
0.003454
0.004009
0.004462
0.004810
0.005049
0.005179
0.005200
0.005110
0.004912
-0.037044
-0.037248
-0.037344
-0.037332
-0.037212
-0.036986
-0.036655
-0.036221
-0.035687
-0.035054
-0.034326
-0.033507
-0.032601
-0.031612
-0.030545
-0.029406
-0.028199
-0.026931
-0.025608
-0.024236
-0.022821
-0.021370
-0.019890
-0.018388
-0.016871
-0.015347
-0.013822
-0.012304
-0.010801
-0.009319
-0.007866
-0.006450
-0.005078
-0.003756
-0.002493
-0.001294
-0.000167
0.000882
0.001848
0.002725
0.003506
0.004189
0.004768
0.005240
0.005602
0.005852
0.005988
0.006009
0.005915
0.005709
-0.037930
-0.038143
-0.038243
-0.038231
-0.038107
-0.037871
-0.037527
-0.037075
-0.036518
-0.035859
-0.035101
-0.034248
-0.033305
-0.032275
-0.031165
-0.029979
-0.028724
-0.027404
-0.026028
-0.024600
-0.023128
-0.021619
-0.020079
-0.018516
-0.016938
-0.015352
-0.013764
-0.012184
-0.010618
-0.009075
-0.007561
-0.006085
-0.004654
-0.003276
-0.001958
-0.000706
0.000471
0.001567
0.002577
0.003493
0.004311
0.005025
0.005631
0.006126
0.006505
0.006766
0.006908
0.006931
0.006833
0.006617
-0.038929
-0.039152
-0.039257
-0.039244
-0.039114
-0.038869
-0.038508
-0.038036
-0.037454
-0.036765
-0.035973
-0.035082
-0.034096
-0.033021
-0.031862
-0.030624
-0.029313
-0.027936
-0.026499
-0.025009
-0.023473
-0.021899
-0.020292
-0.018661
-0.017014
-0.015358
-0.013701
-0.012051
-0.010415
-0.008802
-0.007220
-0.005677
-0.004180
-0.002737
-0.001357
-0.000046
0.001188
0.002337
0.003396
0.004358
0.005217
0.005967
0.006604
0.007123
0.007522
0.007797
0.007947
0.007970
0.007868
0.007642
-0.040046
-0.040281
-0.040391
-0.040377
-0.040241
-0.039983
-0.039605
-0.039110
-0.038499
-0.037777
-0.036947
-0.036013
-0.034980
-0.033854
-0.032639
-0.031343
-0.029971
-0.028530
-0.027026
-0.025467
-0.023859
-0.022211
-0.020530
-0.018824
-0.017100
-0.015367
-0.013632
-0.011904
-0.010190
-0.008501
-0.006842
-0.005223
-0.003653
-0.002139
-0.000689
0.000689
0.001986
0.003196
0.004310
0.005323
0.006228
0.007019
0.007691
0.008239
0.008660
0.008950
0.009109
0.009134
0.009027
0.008789
-0.041287
-0.041534
-0.041650
-0.041636
-0.041492
-0.041221
-0.040823
-0.040302
-0.039659
-0.038900
-0.038027
-0.037045
-0.035960
-0.034777
-0.033501
-0.032140
-0.030700
-0.029187
-0.027609
-0.025974
-0.024288
-0.022559
-0.020796
-0.019006
-0.017197
-0.015379
-0.013558
-0.011744
-0.009945
-0.008169
-0.006426
-0.004724
-0.003072
-0.001478
0.000050
0.001501
0.002870
0.004146
0.005323
0.006393
0.007350
0.008187
0.008898
0.009478
0.009924
0.010232
0.010401
0.010428
0.010316
0.010065
-0.042659
-0.042919
-0.043042
-0.043027
-0.042875
-0.042588
-0.042168
-0.041618
-0.040940
-0.040139
-0.039219
-0.038184
-0.037041
-0.035795
-0.034452
-0.033019
-0.031504
-0.029913
-0.028253
-0.026533
-0.024761
-0.022944
-0.021090
-0.019208
-0.017307
-0.015394
-0.013479
-0.011570
-0.009677
-0.007808
-0.005971
-0.004177
-0.002434
-0.000752
0.000861
0.002395
0.003842
0.005193
0.006439
0.007573
0.008588
0.009476
0.010231
0.010848
0.011322
0.011650
0.011830
0.011860
0.011742
0.011476
-0.044169
-0.044444
-0.044574
-0.044557
-0.044396
-0.044092
-0.043648
-0.043066
-0.042349
-0.041501
-0.040529
-0.039435
-0.038228
-0.036912
-0.035495
-0.033984
-0.032386
-0.030709
-0.028960
-0.027148
-0.025281
-0.023367
-0.021414
-0.019432
-0.017430
-0.015415
-0.013397
-0.011385
-0.009388
-0.007415
-0.005477
-0.003582
-0.001740
0.000040
0.001747
0.003372
0.004906
0.006340
0.007664
0.008869
0.009949
0.010894
0.011699
0.012356
0.012862
0.013213
0.013405
0.013439
0.013314
0.013032
-0.045825
-0.046117
-0.046254
-0.046236
-0.046065
-0.045742
-0.045270
-0.044652
-0.043892
-0.042993
-0.041963
-0.040805
-0.039527
-0.038135
-0.036636
-0.035039
-0.033351
-0.031579
-0.029733
-0.027820
-0.025850
-0.023831
-0.021771
-0.019680
-0.017567
-0.015441
-0.013311
-0.011186
-0.009077
-0.006992
-0.004942
-0.002937
-0.000986
0.000900
0.002712
0.004437
0.006068
0.007593
0.009002
0.010287
0.011439
0.012448
0.013308
0.014012
0.014553
0.014929
0.015136
0.015173
0.015041
0.014741
-0.047636
-0.047947
-0.048092
-0.048073
-0.047890
-0.047546
-0.047044
-0.046386
-0.045577
-0.044623
-0.043528
-0.042299
-0.040943
-0.039468
-0.037880
-0.036189
-0.034402
-0.032528
-0.030575
-0.028554
-0.026472
-0.024338
-0.022162
-0.019953
-0.017721
-0.015474
-0.013222
-0.010976
-0.008744
-0.006538
-0.004366
-0.002240
-0.000171
0.001832
0.003757
0.005594
0.007330
0.008956
0.010461
0.011834
0.013066
0.014146
0.015068
0.015823
0.016405
0.016809
0.017032
0.017073
0.016933
0.016614
-0.049612
-0.049944
-0.050098
-0.050077
-0.049882
-0.049514
-0.048978
-0.048276
-0.047415
-0.046398
-0.045233
-0.043926
-0.042485
-0.040918
-0.039233
-0.037438
-0.035544
-0.033559
-0.031491
-0.029351
-0.027148
-0.024891
-0.022590
-0.020254
-0.017892
-0.015515
-0.013133
-0.010754
-0.008391
-0.006052
-0.003749
-0.001492
0.000707
0.002837
0.004887
0.006845
0.008698
0.010436
0.012046
0.013516
0.014837
0.015998
0.016988
0.017801
0.018428
0.018864
0.019106
0.019152
0.019003
0.018662
-0.051766
-0.052120
-0.052285
-0.052261
-0.052051
-0.051658
-0.051084
-0.050334
-0.049413
-0.048328
-0.047085
-0.045692
-0.044158
-0.042490
-0.040699
-0.038793
-0.036782
-0.034676
-0.032484
-0.030217
-0.027883
-0.025493
-0.023057
-0.020583
-0.018083
-0.015566
-0.013043
-0.010523
-0.008016
-0.005535
-0.003089
-0.000691
0.001649
0.003918
0.006104
0.008194
0.010176
0.012037
0.013763
0.015342
0.016762
0.018012
0.019080
0.019956
0.020634
0.021106
0.021369
0.021421
0.021263
0.020897
-0.054108
-0.054487
-0.054664
-0.054638
-0.054412
-0.053989
-0.053373
-0.052569
-0.051583
-0.050422
-0.049094
-0.047607
-0.045970
-0.044193
-0.042286
-0.040258
-0.038121
-0.035884
-0.033558
-0.031153
-0.028679
-0.026146
-0.023564
-0.020944
-0.018296
-0.015629
-0.012954
-0.010282
-0.007623
-0.004988
-0.002388
0.000164
0.002656
0.005076
0.007410
0.009646
0.011769
0.013765
0.015620
0.017319
0.018850
0.020199
0.021354
0.022303
0.023038
0.023551
0.023838
0.023896
0.023727
0.023335
-0.056653
-0.057061
-0.057250
-0.057221
-0.056977
-0.056521
-0.055859
-0.054995
-0.053937
-0.052692
-0.051270
-0.049679
-0.047930
-0.046033
-0.043999
-0.041840
-0.039566
-0.037187
-0.034717
-0.032163
-0.029539
-0.026853
-0.024116
-0.021339
-0.018532
-0.015705
-0.012868
-0.010033
-0.007210
-0.004410
-0.001646
0.001071
0.003729
0.006312
0.008809
0.011203
0.013481
0.015626
0.017624
0.019457
0.021111
0.022572
0.023824
0.024855
0.025654
0.026213
0.026527
0.026593
0.026413
0.025990
-0.059418
-0.059857
-0.060059
-0.060027
-0.059762
-0.059270
-0.058555
-0.057625
-0.056486
-0.055149
-0.053622
-0.051917
-0.050045
-0.048017
-0.045846
-0.043543
-0.041121
-0.038590
-0.035964
-0.033252
-0.030466
-0.027617
-0.024715
-0.021770
-0.018794
-0.015796
-0.012787
-0.009778
-0.006780
-0.003804
-0.000863
0.002032
0.004867
0.007629
0.010301
0.012869
0.015317
0.017627
0.019782
0.021764
0.023556
0.025141
0.026503
0.027627
0.028499
0.029112
0.029456
0.029531
0.029338
0.028881
-0.062418
-0.062892
-0.063110
-0.063073
-0.062786
-0.062252
-0.061479
-0.060474
-0.059246
-0.057805
-0.056163
-0.054332
-0.052325
-0.050154
-0.047833
-0.045374
-0.042792
-0.040097
-0.037303
-0.034422
-0.031463
-0.028440
-0.025362
-0.022240
-0.019084
-0.015905
-0.012714
-0.009520
-0.006336
-0.003172
-0.000041
0.003045
0.006072
0.009025
0.011889
0.014646
0.017280
0.019771
0.022101
0.024250
0.026196
0.027922
0.029408
0.030636
0.031593
0.032265
0.032646
0.032731
0.032524
0.032028
-0.065674
-0.066188
-0.066423
-0.066381
-0.066067
-0.065487
-0.064647
-0.063558
-0.062230
-0.060674
-0.058904
-0.056934
-0.054778
-0.052451
-0.049966
-0.047339
-0.044583
-0.041712
-0.038739
-0.035676
-0.032534
-0.029325
-0.026061
-0.022750
-0.019405
-0.016035
-0.012650
-0.009261
-0.005879
-0.002515
0.000819
0.004108
0.007341
0.010501
0.013572
0.016536
0.019374
0.022066
0.024590
0.026923
0.029044
0.030928
0.032555
0.033903
0.034955
0.035697
0.036119
0.036217
0.035993
0.035454
-0.069208
-0.069767
-0.070021
-0.069973
-0.069629
-0.068995
-0.068081
-0.066897
-0.065456
-0.063772
-0.061859
-0.059735
-0.057415
-0.054916
-0.052253
-0.049443
-0.046500
-0.043439
-0.040274
-0.037017
-0.033680
-0.030275
-0.026813
-0.023305
-0.019759
-0.016187
-0.012598
-0.009003
-0.005412
-0.001837
0.001711
0.005219
0.008672
0.012055
0.015351
0.018540
0.021602
0.024515
0.027254
0.029795
0.032111
0.034175
0.035963
0.037448
0.038611
0.039432
0.039902
0.040015
0.039774
0.039185
-0.073046
-0.073655
-0.073931
-0.073876
-0.073497
-0.072801
-0.071801
-0.070510
-0.068941
-0.067113
-0.065042
-0.062746
-0.060245
-0.057557
-0.054700
-0.051691
-0.048546
-0.045281
-0.041911
-0.038447
-0.034904
-0.031292
-0.027622
-0.023904
-0.020149
-0.016365
-0.012562
-0.008751
-0.004940
-0.001141
0.002634
0.006373
0.010062
0.013684
0.017222
0.020656
0.023964
0.027121
0.030100
0.032874
0.035410
0.037680
0.039651
0.041295
0.042586
0.043501
0.044027
0.044158
0.043896
0.043251
-0.077215
-0.077884
-0.078184
-0.078120
-0.077699
-0.076933
-0.075834
-0.074420
-0.072707
-0.070715
-0.068465
-0.065979
-0.063278
-0.060382
-0.057313
-0.054088
-0.050725
-0.047241
-0.043651
-0.039969
-0.036207
-0.032377
-0.028488
-0.024552
-0.020577
-0.016572
-0.012546
-0.008508
-0.004467
-0.000434
0.003581
0.007565
0.011505
0.015384
0.019184
0.022884
0.026460
0.029887
0.033133
0.036168
0.038955
0.041459
0.043642
0.045470
0.046911
0.047936
0.048529
0.048682
0.048396
0.047685
-0.081751
-0.082487
-0.082815
-0.082740
-0.082270
-0.081421
-0.080208
-0.078652
-0.076773
-0.074596
-0.072146
-0.069446
-0.066523
-0.063399
-0.060096
-0.056637
-0.053039
-0.049321
-0.045497
-0.041583
-0.037590
-0.033531
-0.029414
-0.025250
-0.021046
-0.016811
-0.012553
-0.008279
-0.003999
0.000280
0.004546
0.008789
0.012994
0.017147
0.021228
0.025217
0.029087
0.032812
0.036356
0.039685
0.042757
0.045530
0.047960
0.050003
0.051620
0.052776
0.053449
0.053628
0.053317
0.052527
-0.086692
-0.087507
-0.087867
-0.087776
-0.087248
-0.086301
-0.084954
-0.083233
-0.081165
-0.078777
-0.076098
-0.073160
-0.069988
-0.066612
-0.063055
-0.059340
-0.055489
-0.051519
-0.047447
-0.043288
-0.039053
-0.034754
-0.030399
-0.025998
-0.021558
-0.017085
-0.012587
-0.008070
-0.003541
0.000992
0.005521
0.010034
0.014520
0.018963
0.023346
0.027647
0.031839
0.035892
0.039769
0.043430
0.046828
0.049912
0.052629
0.054926
0.056753
0.058067
0.058836
0.059048
0.058706
0.057825
-0.092083
-0.092992
-0.093388
-0.093278
-0.092679
-0.091614
-0.090110
-0.088196
-0.085907
-0.083276
-0.080339
-0.077130
-0.073682
-0.070027
-0.066190
-0.062199
-0.058074
-0.053836
-0.049501
-0.045082
-0.040594
-0.036045
-0.031444
-0.026798
-0.022114
-0.017397
-0.012653
-0.007885
-0.003101
0.001695
0.006495
0.011291
0.016071
0.020822
0.025526
0.030163
0.034705
0.039120
0.043369
0.047405
0.051175
0.054620
0.057676
0.060275
0.062355
0.063859
0.064748
0.065001
0.064623
0.063633
-0.097981
-0.099000
-0.099438
-0.099303
-0.098617
-0.097410
-0.095716
-0.093575
-0.091027
-0.088115
-0.084882
-0.081368
-0.077611
-0.073646
-0.069503
-0.065211
-0.060792
-0.056267
-0.051653
-0.046963
-0.042210
-0.037402
-0.032546
-0.027650
-0.022717
-0.017751
-0.012755
-0.007732
-0.002687
0.002378
0.007458
0.012545
0.017632
0.022706
0.027751
0.032748
0.037670
0.042483
0.047145
0.051606
0.055805
0.059671
0.063126
0.066089
0.068477
0.070216
0.071253
0.071560
0.071138
0.070016
-0.104451
-0.105604
-0.106091
-0.105922
-0.105126
-0.103743
-0.101821
-0.099407
-0.096555
-0.093317
-0.089744
-0.085883
-0.081778
-0.077470
-0.072991
-0.068371
-0.063636
-0.058806
-0.053897
-0.048924
-0.043895
-0.038820
-0.033704
-0.028552
-0.023366
-0.018147
-0.012897
-0.007617
-0.002307
0.003031
0.008395
0.013782
0.019184
0.024595
0.029999
0.035380
0.040711
0.045960
0.051082
0.056023
0.060714
0.065073
0.069006
0.072409
0.075176
0.077210
0.078436
0.078813
0.078341
0.077054
-0.111575
-0.112892
-0.113435
-0.113219
-0.112283
-0.110682
-0.108478
-0.105737
-0.102523
-0.098902
-0.094935
-0.090679
-0.086184
-0.081494
-0.076646
-0.071673
-0.066598
-0.061444
-0.056226
-0.050956
-0.045644
-0.040295
-0.034914
-0.029502
-0.024061
-0.018589
-0.013085
-0.007546
-0.001972
0.003640
0.009292
0.014981
0.020708
0.026465
0.032243
0.038029
0.043799
0.049521
0.055152
0.060635
0.065892
0.070830
0.075335
0.079278
0.082520
0.084930
0.086400
0.086871
0.086338
0.084845
-0.119455
-0.120977
-0.121586
-0.121301
-0.120182
-0.118304
-0.115751
-0.112609
-0.108962
-0.104890
-0.100467
-0.095759
-0.090824
-0.085710
-0.080459
-0.075101
-0.069664
-0.064167
-0.058625
-0.053049
-0.047445
-0.041818
-0.036169
-0.030497
-0.024801
-0.019077
-0.013321
-0.007527
-0.001690
0.004194
0.010131
0.016124
0.022176
0.028286
0.034450
0.040658
0.046892
0.053125
0.059316
0.065405
0.071313
0.076932
0.082127
0.086737
0.090581
0.093477
0.095274
0.095877
0.095270
0.093511
-0.128221
-0.130004
-0.130688
-0.130305
-0.128940
-0.126704
-0.123711
-0.120075
-0.115903
-0.111296
-0.106342
-0.101117
-0.095687
-0.090104
-0.084410
-0.078639
-0.072816
-0.066958
-0.061080
-0.055188
-0.049287
-0.043378
-0.037461
-0.031531
-0.025583
-0.019611
-0.013608
-0.007565
-0.001473
0.004677
0.010894
0.017187
0.023562
0.030026
0.036579
0.043221
0.049940
0.056716
0.063515
0.070279
0.076929
0.083346
0.089375
0.094817
0.099434
0.102978
0.105222
0.106017
0.105322
0.103210
-0.138044
-0.140166
-0.140934
-0.140402
-0.138702
-0.135993
-0.132437
-0.128185
-0.123376
-0.118132
-0.112558
-0.106741
-0.100754
-0.094651
-0.088476
-0.082261
-0.076029
-0.069795
-0.063569
-0.057354
-0.051154
-0.044964
-0.038780
-0.032596
-0.026403
-0.020191
-0.013950
-0.007667
-0.001329
0.005076
0.011562
0.018144
0.024834
0.031644
0.038585
0.045664
0.052879
0.060223
0.067670
0.075175
0.082662
0.090010
0.097046
0.103529
0.109154
0.113574
0.116453
0.117541
0.116745
0.114151
-0.149158
-0.151732
-0.152587
-0.151822
-0.149648
-0.146304
-0.142017
-0.136991
-0.131401
-0.125396
-0.119099
-0.112606
-0.105994
-0.099319
-0.092623
-0.085935
-0.079273
-0.072649
-0.066067
-0.059527
-0.053026
-0.046558
-0.040114
-0.033683
-0.027254
-0.020813
-0.014346
-0.007837
-0.001269
0.005376
0.012116
0.018970
0.025958
0.033101
0.040416
0.047922
0.055633
0.063554
0.071678
0.079978
0.088392
0.096811
0.105053
0.112841
0.119791
0.125424
0.129233
0.130796
0.129903
0.126628
-0.161896
-0.165083
-0.166007
-0.164864
-0.162004
-0.157790
-0.152544
-0.146536
-0.139987
-0.133073
-0.125932
-0.118669
-0.111361
-0.104061
-0.096806
-0.089618
-0.082510
-0.075486
-0.068544
-0.061679
-0.054882
-0.048143
-0.041447
-0.034781
-0.028128
-0.021473
-0.014797
-0.008079
-0.001298
0.005566
0.012537
0.019641
0.026903
0.034352
0.042016
0.049927
0.058113
0.066601
0.075407
0.084532
0.093946
0.103567
0.113229
0.122639
0.131336
0.138677
0.143898
0.146276
0.145348
0.141095
-0.176769
-0.180794
-0.181711
-0.179930
-0.176048
-0.170622
-0.164104
-0.156847
-0.149118
-0.141120
-0.133002
-0.124869
-0.116792
-0.108816
-0.100968
-0.093259
-0.085693
-0.078265
-0.070964
-0.063780
-0.056696
-0.049696
-0.042762
-0.035875
-0.029016
-0.022164
-0.015298
-0.008392
-0.001424
0.005635
0.012810
0.020133
0.027636
0.035356
0.043331
0.051606
0.060227
0.069243
0.078702
0.088643
0.099086
0.110005
0.121288
0.132672
0.143654
0.153418
0.160843
0.164689
0.163964
0.158324
-0.194625
-0.199762
-0.200441
-0.197546
-0.192107
-0.184970
-0.176755
-0.167905
-0.158731
-0.149452
-0.140213
-0.131109
-0.122195
-0.113500
-0.105033
-0.096792
-0.088765
-0.080936
-0.073285
-0.065793
-0.058436
-0.051191
-0.044036
-0.036948
-0.029902
-0.022875
-0.015842
-0.008775
-0.001644
0.005579
0.012926
0.020432
0.028136
0.036080
0.044314
0.052894
0.061885
0.071360
0.081400
0.092093
0.103524
0.115758
0.128793
0.142479
0.156373
0.169551
0.180460
0.187028
0.187206
0.179756
-0.216978
-0.223436
-0.223269
-0.218374
-0.210516
-0.200943
-0.190463
-0.179596
-0.168674
-0.157902
-0.147402
-0.137239
-0.127436
-0.117995
-0.108900
-0.100127
-0.091649
-0.083434
-0.075451
-0.067670
-0.060061
-0.052594
-0.045240
-0.037973
-0.030764
-0.023586
-0.016413
-0.009212
-0.001950
0.005405
0.012888
0.020537
0.028395
0.036510
0.044941
0.053754
0.063029
0.072861
0.083366
0.094681
0.106970
0.120414
0.135187
0.151373
0.168787
0.186622
0.202978
0.214607
0.217470
0.208208
-0.246701
-0.254197
-0.251658
-0.243098
-0.231445
-0.218410
-0.204946
-0.191582
-0.178602
-0.166151
-0.154284
-0.143009
-0.132302
-0.122121
-0.112417
-0.103140
-0.094240
-0.085670
-0.077386
-0.069347
-0.061515
-0.053854
-0.046331
-0.038912
-0.031568
-0.024267
-0.016980
-0.009676
-0.002313
0.005141
0.012722
0.020472
0.028436
0.036668
0.045230
0.054197
0.063660
0.073733
0.084557
0.096317
0.109249
0.123666
0.139962
0.158591
0.179913
0.203719
0.228249
0.248995
0.258600
0.249150
-0.289426
-0.295846
-0.287274
-0.271958
-0.254392
-0.236561
-0.219326
-0.203038
-0.187797
-0.173591
-0.160355
-0.148010
-0.136459
-0.125604
-0.115359
-0.105642
-0.096381
-0.087512
-0.078977
-0.070727
-0.062715
-0.054900
-0.047243
-0.039708
-0.032260
-0.024867
-0.017495
-0.010116
-0.002683
0.004837
0.012481
0.020293
0.028320
0.036618
0.045253
0.054304
0.063870
0.074075
0.085083
0.097109
0.110453
0.125546
0.143015
0.163753
0.188970
0.219772
0.255712
0.291912
0.316562
0.312848
-0.356468
-0.353830
-0.330810
-0.303338
-0.277012
-0.253049
-0.231560
-0.212313
-0.194959
-0.179215
-0.164825
-0.151624
-0.139423
-0.128067
-0.117426
-0.107391
-0.097872
-0.088792
-0.080083
-0.071689
-0.063555
-0.055638
-0.047893
-0.040283
-0.032771
-0.025319
-0.017894
-0.010467
-0.002994
0.004561
0.012238
0.020079
0.028134
0.036460
0.045125
0.054212
0.063823
0.074092
0.085191
0.097369
0.110976
0.126551
0.144930
0.167405
0.196189
0.234424
0.284808
0.344968
0.400110
0.417851
-0.471322
-0.433406
-0.378156
-0.330746
-0.293332
-0.263224
-0.238295
-0.216931
-0.198253
-0.181659
-0.166719
-0.153129
-0.140645
-0.129077
-0.118273
-0.108112
-0.098492
-0.089331
-0.080557
-0.072108
-0.063930
-0.055976
-0.048202
-0.040567
-0.033034
-0.025567
-0.018127
-0.010679
-0.003196
0.004365
0.012044
0.019885
0.027937
0.036259
0.044920
0.054004
0.063620
0.073907
0.085057
0.097341
0.111165
0.127168
0.146399
0.170657
0.203072
0.248714
0.314995
0.407790
0.519442
0.597034
-0.683409
-0.529102
-0.412734
-0.339776
-0.293045
-0.260281
-0.235025
-0.214101
-0.195991
-0.179902
-0.165367
-0.152082
-0.139827
-0.128432
-0.117761
-0.107702
-0.098165
-0.089070
-0.080350
-0.071947
-0.063810
-0.055891
-0.048148
-0.040543
-0.033038
-0.025596
-0.018181
-0.010755
-0.003294
0.004241
0.011890
0.019697
0.027714
0.035997
0.044616
0.053656
0.063228
0.073475
0.084599
0.096894
0.110805
0.127054
0.146865
0.172413
0.207666
0.259858
0.341729
0.473229
0.674624
0.909138
-1.087271
-0.581744
-0.388054
-0.306703
-0.265886
-0.240297
-0.220763
-0.203935
-0.188639
-0.174465
-0.161248
-0.148890
-0.137303
-0.126404
-0.116111
-0.106347
-0.097044
-0.088139
-0.079576
-0.071306
-0.063281
-0.055460
-0.047804
-0.040277
-0.032843
-0.025469
-0.018119
-0.010757
-0.003359
0.004111
0.011692
0.019427
0.027364
0.035559
0.044078
0.053004
0.062440
0.072527
0.083457
0.095512
0.109121
0.124978
0.144267
0.169119
0.203586
0.255755
0.342586
0.500831
0.809261
1.430366
