# vtk DataFile Version 3.0
Scalar Field
ASCII
DATASET RECTILINEAR_GRID
DIMENSIONS 50 50 1
X_COORDINATES 50 double
0.100000 0.300000 0.500000 0.700000 0.900000 1.100000 1.300000 1.500000 1.700000 1.900000 2.100000 2.300000 2.500000 2.700000 2.900000 3.100000 3.300000 3.500000 3.700000 3.900000 4.100000 4.300000 4.500000 4.700000 4.900000 5.100000 5.300000 5.500000 5.700000 5.900000 6.100000 6.300000 6.500000 6.700000 6.900000 7.100000 7.300000 7.500000 7.700000 7.900000 8.100000 8.300000 8.500000 8.700000 8.900000 9.100000 9.300000 9.500000 9.700000 9.900000 
Y_COORDINATES 50 double
0.100000 0.300000 0.500000 0.700000 0.900000 1.100000 1.300000 1.500000 1.700000 1.900000 2.100000 2.300000 2.500000 2.700000 2.900000 3.100000 3.300000 3.500000 3.700000 3.900000 4.100000 4.300000 4.500000 4.700000 4.900000 5.100000 5.300000 5.500000 5.700000 5.900000 6.100000 6.300000 6.500000 6.700000 6.900000 7.100000 7.300000 7.500000 7.700000 7.900000 8.100000 8.300000 8.500000 8.700000 8.900000 9.100000 9.300000 9.500000 9.700000 9.900000 
Z_COORDINATES 1 double
0.0
POINT_DATA 2500
SCALARS Skalarfeld double 1
LOOKUP_TABLE default
0.013729
0.013686
0.013736
0.013903
0.014190
0.014596
0.015120
0.015763
0.016527
0.017415
0.018430
0.019578
0.020862
0.022288
0.023862
0.025591
0.027481
0.029539
0.031772
0.034188
0.036794
0.039596
0.042600
0.045812
0.049234
0.052868
0.056710
0.060754
0.064991
0.069403
0.073967
0.078654
0.083425
0.088229
0.093010
0.097708
0.102255
0.106582
0.110622
0.114311
0.117594
0.120428
0.122785
0.124652
0.126035
0.126956
0.127458
0.127605
0.127495
0.127283
0.013770
0.013727
0.013793
0.013972
0.014265
0.014674
0.015199
0.015842
0.016605
0.017492
0.018506
0.019652
0.020934
0.022358
0.023930
0.025655
0.027541
0.029594
0.031822
0.034231
0.036830
0.039624
0.042619
0.045821
0.049233
0.052855
0.056686
0.060719
0.064945
0.069347
0.073903
0.078583
0.083346
0.088144
0.092922
0.097618
0.102163
0.106488
0.110523
0.114204
0.117475
0.120292
0.122627
0.124470
0.125828
0.126730
0.127221
0.127372
0.127282
0.127069
0.013704
0.013646
0.013713
0.013897
0.014193
0.014603
0.015127
0.015767
0.016526
0.017408
0.018416
0.019555
0.020829
0.022245
0.023806
0.025521
0.027395
0.029436
0.031650
0.034046
0.036630
0.039409
0.042390
0.045578
0.048977
0.052589
0.056413
0.060445
0.064674
0.069086
0.073659
0.078363
0.083157
0.087995
0.092820
0.097566
0.102163
0.106536
0.110613
0.114324
0.117609
0.120424
0.122739
0.124547
0.125860
0.126711
0.127152
0.127261
0.127133
0.126875
0.013481
0.013411
0.013476
0.013659
0.013955
0.014362
0.014881
0.015515
0.016266
0.017138
0.018136
0.019262
0.020522
0.021922
0.023468
0.025164
0.027019
0.029040
0.031233
0.033607
0.036170
0.038929
0.041890
0.045062
0.048448
0.052053
0.055876
0.059915
0.064163
0.068605
0.073222
0.077983
0.082848
0.087771
0.092689
0.097536
0.102233
0.106701
0.110858
0.114629
0.117949
0.120767
0.123057
0.124812
0.126052
0.126819
0.127177
0.127210
0.127020
0.126721
0.013082
0.013005
0.013066
0.013246
0.013537
0.013938
0.014449
0.015072
0.015811
0.016669
0.017650
0.018759
0.019999
0.021377
0.022899
0.024571
0.026399
0.028392
0.030558
0.032904
0.035439
0.038172
0.041111
0.044264
0.047638
0.051238
0.055067
0.059125
0.063406
0.067899
0.072586
0.077439
0.082415
0.087466
0.092526
0.097522
0.102369
0.106977
0.111254
0.115114
0.118484
0.121309
0.123560
0.125236
0.126369
0.127013
0.127249
0.127176
0.126908
0.126570
0.012499
0.012419
0.012476
0.012650
0.012934
0.013325
0.013824
0.014433
0.015156
0.015995
0.016954
0.018038
0.019253
0.020602
0.022094
0.023733
0.025528
0.027487
0.029617
0.031928
0.034430
0.037131
0.040044
0.043176
0.046537
0.050135
0.053975
0.058061
0.062390
0.066954
0.071737
0.076712
0.081839
0.087061
0.092313
0.097510
0.102560
0.107358
0.111798
0.115781
0.119219
0.122050
0.124244
0.125808
0.126788
0.127260
0.127329
0.127114
0.126749
0.126370
0.011732
0.011649
0.011701
0.011868
0.012142
0.012521
0.013005
0.013596
0.014297
0.015112
0.016045
0.017099
0.018281
0.019596
0.021049
0.022649
0.024402
0.026318
0.028405
0.030674
0.033134
0.035799
0.038678
0.041784
0.045130
0.048725
0.052579
0.056699
0.061086
0.065736
0.070637
0.075764
0.081078
0.086519
0.092013
0.097470
0.102781
0.107828
0.112484
0.116628
0.120156
0.122994
0.125110
0.126519
0.127289
0.127527
0.127371
0.126971
0.126483
0.126057
0.010782
0.010698
0.010744
0.010903
0.011165
0.011528
0.011993
0.012562
0.013237
0.014023
0.014923
0.015942
0.017084
0.018356
0.019764
0.021316
0.023019
0.024883
0.026918
0.029134
0.031545
0.034162
0.036999
0.040072
0.043395
0.046982
0.050847
0.055001
0.059451
0.064197
0.069231
0.074535
0.080072
0.085776
0.091568
0.097348
0.102991
0.108356
0.113291
0.117649
0.121298
0.124147
0.126157
0.127358
0.127844
0.127769
0.127315
0.126674
0.126030
0.125548
0.009653
0.009567
0.009608
0.009756
0.010004
0.010349
0.010791
0.011334
0.011979
0.012730
0.013592
0.014568
0.015663
0.016885
0.018239
0.019733
0.021377
0.023178
0.025149
0.027302
0.029649
0.032206
0.034990
0.038016
0.041304
0.044872
0.048738
0.052918
0.057427
0.062270
0.067446
0.072943
0.078733
0.084744
0.090892
0.097064
0.103119
0.108887
0.114184
0.118823
0.122637
0.125505
0.127380
0.128303
0.128412
0.127920
0.127076
0.126127
0.125287
0.124737
0.008350
0.008262
0.008296
0.008433
0.008664
0.008988
0.009405
0.009917
0.010527
0.011238
0.012054
0.012980
0.014021
0.015184
0.016474
0.017901
0.019472
0.021199
0.023093
0.025167
0.027436
0.029917
0.032628
0.035589
0.038823
0.042352
0.046200
0.050390
0.054942
0.059872
0.065187
0.070882
0.076945
0.083300
0.089859
0.096499
0.103057
0.109330
0.115092
0.120103
0.124144
0.127051
0.128756
0.129318
0.128929
0.127886
0.126535
0.125194
0.124112
0.123488
0.006878
0.006789
0.006816
0.006939
0.007152
0.007451
0.007839
0.008316
0.008885
0.009550
0.010315
0.011184
0.012162
0.013256
0.014472
0.015819
0.017306
0.018943
0.020744
0.022722
0.024893
0.027275
0.029891
0.032762
0.035914
0.039375
0.043175
0.047344
0.051911
0.056902
0.062335
0.068219
0.074549
0.081277
0.088297
0.095479
0.102638
0.109536
0.115890
0.121392
0.125748
0.128729
0.130231
0.130328
0.129286
0.127523
0.125518
0.123688
0.122319
0.121623
0.005245
0.005154
0.005172
0.005281
0.005472
0.005745
0.006099
0.006537
0.007060
0.007673
0.008379
0.009183
0.010089
0.011104
0.012234
0.013489
0.014876
0.016408
0.018097
0.019957
0.022007
0.024265
0.026756
0.029503
0.032538
0.035892
0.039601
0.043703
0.048237
0.053241
0.058748
0.064782
0.071349
0.078451
0.085961
0.093747
0.101606
0.109259
0.116356
0.122501
0.127293
0.130406
0.131675
0.131183
0.129293
0.126598
0.123762
0.121345
0.119682
0.118895
0.003457
0.003365
0.003373
0.003466
0.003634
0.003876
0.004194
0.004587
0.005060
0.005615
0.006255
0.006985
0.007809
0.008734
0.009766
0.010914
0.012186
0.013593
0.015149
0.016868
0.018769
0.020872
0.023200
0.025784
0.028654
0.031848
0.035408
0.039379
0.043810
0.048753
0.054256
0.060363
0.067102
0.074527
0.082516
0.090937
0.099573
0.108106
0.116111
0.123077
0.128464
0.131798
0.132814
0.131589
0.128618
0.124733
0.120861
0.117849
0.115850
0.114997
0.001524
0.001429
0.001428
0.001502
0.001645
0.001854
0.002131
0.002476
0.002893
0.003382
0.003949
0.004597
0.005330
0.006154
0.007074
0.008100
0.009238
0.010501
0.011900
0.013451
0.015171
0.017082
0.019207
0.021577
0.024226
0.027194
0.030528
0.034281
0.038512
0.043284
0.048666
0.054723
0.061514
0.069106
0.077502
0.086523
0.095957
0.105452
0.114510
0.122487
0.128663
0.132361
0.133145
0.131049
0.126724
0.121358
0.116321
0.112657
0.110400
0.109561
-0.000546
-0.000643
-0.000655
-0.000601
-0.000486
-0.000312
-0.000080
0.000213
0.000567
0.000986
0.001472
0.002029
0.002660
0.003371
0.004167
0.005054
0.006041
0.007137
0.008355
0.009707
0.011212
0.012888
0.014762
0.016860
0.019220
0.021882
0.024896
0.028320
0.032220
0.036672
0.041760
0.047572
0.054199
0.061716
0.070310
0.079769
0.089890
0.100312
0.110471
0.119602
0.126787
0.131092
0.131819
0.128848
0.122950
0.115805
0.109488
0.105181
0.102890
0.102221
-0.002743
-0.002842
-0.002866
-0.002832
-0.002747
-0.002612
-0.002428
-0.002192
-0.001905
-0.001563
-0.001165
-0.000707
-0.000188
0.000398
0.001055
0.001788
0.002604
0.003512
0.004521
0.005643
0.006894
0.008292
0.009858
0.011621
0.013613
0.015874
0.018454
0.021411
0.024816
0.028749
0.033309
0.038600
0.044742
0.051850
0.060128
0.069653
0.080105
0.091148
0.102206
0.112451
0.120821
0.126133
0.127345
0.123995
0.116739
0.107696
0.099968
0.095017
0.093049
0.092804
-0.005056
-0.005157
-0.005194
-0.005182
-0.005129
-0.005035
-0.004902
-0.004727
-0.004511
-0.004252
-0.003949
-0.003599
-0.003200
-0.002751
-0.002247
-0.001684
-0.001058
-0.000362
0.000411
0.001271
0.002229
0.003300
0.004502
0.005857
0.007394
0.009147
0.011161
0.013488
0.016194
0.019361
0.023083
0.027477
0.032673
0.038808
0.046010
0.054801
0.064778
0.075623
0.086841
0.097708
0.107209
0.114051
0.116861
0.114633
0.107451
0.097296
0.088104
0.082724
0.081095
0.081431
-0.007474
-0.007577
-0.007627
-0.007639
-0.007618
-0.007568
-0.007488
-0.007379
-0.007239
-0.007068
-0.006865
-0.006630
-0.006362
-0.006059
-0.005720
-0.005343
-0.004925
-0.004463
-0.003952
-0.003388
-0.002763
-0.002068
-0.001292
-0.000419
0.000570
0.001698
0.002998
0.004508
0.006279
0.008375
0.010877
0.013882
0.017506
0.021877
0.027114
0.033343
0.041389
0.050407
0.060175
0.070413
0.080516
0.089376
0.095433
0.097029
0.093184
0.084748
0.075349
0.070047
0.067859
0.068703
-0.009985
-0.010090
-0.010153
-0.010189
-0.010203
-0.010198
-0.010175
-0.010132
-0.010072
-0.009993
-0.009897
-0.009784
-0.009654
-0.009507
-0.009345
-0.009167
-0.008974
-0.008767
-0.008544
-0.008307
-0.008053
-0.007781
-0.007490
-0.007175
-0.006831
-0.006450
-0.006022
-0.005533
-0.004963
-0.004287
-0.003470
-0.002469
-0.001237
0.000268
0.002064
0.004149
0.006857
0.011478
0.017241
0.024848
0.034552
0.045742
0.056860
0.065644
0.069809
0.068247
0.062584
0.057603
0.055284
0.055690
-0.012576
-0.012683
-0.012759
-0.012820
-0.012870
-0.012911
-0.012945
-0.012973
-0.012995
-0.013012
-0.013027
-0.013040
-0.013055
-0.013073
-0.013097
-0.013130
-0.013177
-0.013242
-0.013330
-0.013446
-0.013599
-0.013795
-0.014045
-0.014359
-0.014752
-0.015240
-0.015843
-0.016587
-0.017503
-0.018634
-0.020031
-0.021773
-0.023971
-0.026793
-0.030430
-0.034972
-0.040130
-0.044470
-0.045691
-0.042916
-0.034731
-0.021152
-0.003615
0.015227
0.031940
0.043180
0.047260
0.046136
0.045096
0.042650
-0.015234
-0.015343
-0.015433
-0.015518
-0.015604
-0.015693
-0.015786
-0.015885
-0.015991
-0.016106
-0.016235
-0.016379
-0.016542
-0.016730
-0.016948
-0.017202
-0.017500
-0.017851
-0.018267
-0.018761
-0.019349
-0.020050
-0.020889
-0.021896
-0.023110
-0.024577
-0.026361
-0.028542
-0.031228
-0.034564
-0.038751
-0.044075
-0.050943
-0.059886
-0.071410
-0.085595
-0.101548
-0.117162
-0.128459
-0.132260
-0.126459
-0.110741
-0.086434
-0.056296
-0.024388
0.004151
0.024087
0.032781
0.034021
0.025909
-0.017946
-0.018056
-0.018160
-0.018270
-0.018392
-0.018528
-0.018680
-0.018850
-0.019041
-0.019256
-0.019499
-0.019776
-0.020091
-0.020452
-0.020868
-0.021348
-0.021905
-0.022553
-0.023310
-0.024197
-0.025241
-0.026475
-0.027940
-0.029689
-0.031789
-0.034326
-0.037417
-0.041213
-0.045924
-0.051842
-0.059384
-0.069154
-0.081998
-0.098932
-0.120747
-0.147230
-0.176368
-0.204328
-0.226502
-0.237430
-0.234297
-0.216884
-0.186566
-0.145982
-0.099136
-0.052000
-0.012888
0.009268
0.010860
0.000416
-0.020698
-0.020810
-0.020927
-0.021061
-0.021218
-0.021401
-0.021611
-0.021852
-0.022128
-0.022441
-0.022799
-0.023208
-0.023675
-0.024211
-0.024825
-0.025534
-0.026352
-0.027300
-0.028403
-0.029691
-0.031202
-0.032984
-0.035097
-0.037618
-0.040646
-0.044313
-0.048796
-0.054335
-0.061264
-0.070061
-0.081426
-0.096375
-0.116287
-0.142674
-0.176440
-0.216690
-0.259893
-0.300353
-0.332026
-0.349216
-0.348298
-0.329538
-0.294623
-0.246060
-0.187224
-0.123628
-0.065092
-0.026108
-0.017435
-0.021586
-0.023478
-0.023591
-0.023720
-0.023877
-0.024068
-0.024296
-0.024563
-0.024874
-0.025231
-0.025641
-0.026112
-0.026650
-0.027267
-0.027974
-0.028785
-0.029719
-0.030796
-0.032042
-0.033489
-0.035177
-0.037155
-0.039485
-0.042248
-0.045545
-0.049511
-0.054327
-0.060234
-0.067568
-0.076805
-0.088634
-0.104074
-0.124595
-0.152112
-0.188541
-0.234656
-0.288587
-0.345108
-0.396714
-0.436058
-0.457725
-0.458024
-0.437916
-0.399712
-0.346091
-0.279605
-0.203939
-0.127464
-0.066126
-0.036354
-0.029806
-0.026272
-0.026385
-0.026526
-0.026705
-0.026928
-0.027199
-0.027520
-0.027896
-0.028332
-0.028835
-0.029413
-0.030077
-0.030838
-0.031711
-0.032712
-0.033864
-0.035192
-0.036727
-0.038508
-0.040584
-0.043015
-0.045877
-0.049271
-0.053322
-0.058201
-0.064134
-0.071429
-0.080516
-0.092012
-0.106818
-0.126265
-0.152243
-0.187123
-0.233078
-0.290585
-0.356721
-0.424673
-0.485370
-0.530446
-0.554879
-0.555350
-0.533532
-0.492668
-0.436201
-0.366298
-0.284193
-0.194296
-0.110312
-0.054372
-0.036676
-0.029067
-0.029181
-0.029332
-0.029531
-0.029783
-0.030093
-0.030465
-0.030902
-0.031412
-0.032002
-0.032682
-0.033464
-0.034361
-0.035390
-0.036572
-0.037930
-0.039495
-0.041304
-0.043400
-0.045841
-0.048698
-0.052060
-0.056043
-0.060799
-0.066525
-0.073491
-0.082063
-0.092756
-0.106307
-0.123797
-0.146808
-0.177556
-0.218728
-0.272618
-0.339386
-0.415243
-0.492147
-0.559844
-0.609206
-0.635411
-0.635421
-0.611443
-0.567858
-0.509563
-0.439325
-0.356532
-0.260847
-0.161564
-0.084717
-0.057010
-0.031853
-0.031966
-0.032125
-0.032342
-0.032620
-0.032966
-0.033382
-0.033875
-0.034452
-0.035122
-0.035895
-0.036786
-0.037808
-0.038982
-0.040330
-0.041879
-0.043662
-0.045721
-0.048106
-0.050880
-0.054124
-0.057936
-0.062448
-0.067829
-0.074302
-0.082167
-0.091836
-0.103885
-0.119136
-0.138788
-0.164578
-0.198897
-0.244582
-0.303952
-0.376975
-0.459401
-0.542527
-0.615364
-0.668134
-0.695911
-0.695416
-0.669132
-0.622631
-0.562730
-0.493801
-0.414802
-0.321380
-0.217243
-0.128645
-0.093619
-0.034616
-0.034729
-0.034896
-0.035126
-0.035427
-0.035802
-0.036257
-0.036799
-0.037435
-0.038175
-0.039032
-0.040019
-0.041154
-0.042457
-0.043953
-0.045672
-0.047650
-0.049932
-0.052572
-0.055639
-0.059218
-0.063418
-0.068380
-0.074284
-0.081371
-0.089960
-0.100488
-0.113563
-0.130043
-0.151168
-0.178707
-0.215053
-0.263007
-0.324839
-0.400508
-0.485832
-0.572150
-0.648264
-0.703784
-0.733091
-0.732501
-0.704391
-0.655417
-0.594289
-0.527450
-0.454867
-0.369810
-0.270365
-0.179469
-0.140750
-0.037349
-0.037461
-0.037633
-0.037874
-0.038191
-0.038590
-0.039077
-0.039658
-0.040344
-0.041144
-0.042071
-0.043141
-0.044373
-0.045788
-0.047413
-0.049278
-0.051423
-0.053895
-0.056750
-0.060061
-0.063918
-0.068433
-0.073751
-0.080061
-0.087607
-0.096716
-0.107828
-0.121550
-0.138728
-0.160557
-0.188718
-0.225438
-0.273272
-0.334332
-0.408699
-0.492736
-0.578635
-0.655641
-0.712907
-0.742927
-0.742986
-0.714374
-0.664561
-0.603546
-0.539630
-0.474648
-0.401358
-0.313330
-0.227973
-0.189201
-0.040042
-0.040154
-0.040328
-0.040575
-0.040903
-0.041319
-0.041828
-0.042440
-0.043164
-0.044011
-0.044995
-0.046134
-0.047445
-0.048952
-0.050682
-0.052668
-0.054949
-0.057574
-0.060601
-0.064104
-0.068173
-0.072923
-0.078498
-0.085086
-0.092926
-0.102339
-0.113749
-0.127729
-0.145070
-0.166852
-0.194581
-0.230169
-0.275693
-0.332939
-0.402239
-0.480831
-0.561923
-0.635765
-0.692092
-0.722464
-0.724006
-0.697046
-0.649167
-0.590526
-0.530816
-0.473950
-0.413573
-0.340549
-0.266100
-0.230312
-0.042688
-0.042799
-0.042974
-0.043222
-0.043555
-0.043978
-0.044501
-0.045131
-0.045881
-0.046762
-0.047788
-0.048977
-0.050349
-0.051926
-0.053737
-0.055816
-0.058201
-0.060941
-0.064095
-0.067735
-0.071950
-0.076852
-0.082582
-0.089318
-0.097289
-0.106795
-0.118226
-0.132102
-0.149133
-0.170201
-0.196488
-0.229573
-0.271239
-0.322965
-0.385044
-0.455223
-0.527838
-0.594380
-0.645418
-0.672697
-0.674336
-0.650585
-0.607922
-0.555821
-0.502761
-0.454334
-0.406546
-0.349566
-0.288930
-0.258257
-0.045283
-0.045393
-0.045565
-0.045810
-0.046138
-0.046560
-0.047084
-0.047722
-0.048484
-0.049383
-0.050435
-0.051656
-0.053068
-0.054694
-0.056561
-0.058703
-0.061159
-0.063976
-0.067210
-0.070933
-0.075228
-0.080203
-0.085989
-0.092751
-0.100700
-0.110108
-0.121314
-0.134726
-0.150927
-0.170680
-0.194920
-0.224834
-0.261755
-0.306802
-0.360150
-0.419971
-0.481660
-0.538121
-0.581225
-0.603756
-0.604434
-0.583971
-0.547542
-0.502987
-0.458114
-0.418735
-0.382610
-0.341022
-0.295053
-0.270673
-0.047825
-0.047934
-0.048099
-0.048333
-0.048649
-0.049058
-0.049572
-0.050202
-0.050961
-0.051863
-0.052923
-0.054158
-0.055590
-0.057242
-0.059140
-0.061317
-0.063810
-0.066666
-0.069937
-0.073690
-0.078005
-0.082978
-0.088730
-0.095411
-0.103199
-0.112302
-0.123024
-0.135719
-0.150837
-0.168948
-0.190751
-0.217088
-0.248868
-0.286818
-0.330945
-0.379749
-0.429594
-0.474837
-0.508922
-0.526056
-0.525321
-0.507739
-0.477364
-0.440448
-0.403554
-0.371829
-0.346226
-0.318052
-0.285994
-0.268201
-0.050312
-0.050421
-0.050576
-0.050792
-0.051083
-0.051467
-0.051957
-0.052565
-0.053306
-0.054193
-0.055242
-0.056473
-0.057904
-0.059558
-0.061463
-0.063647
-0.066148
-0.069007
-0.072275
-0.076011
-0.080288
-0.085194
-0.090834
-0.097315
-0.104805
-0.113490
-0.123598
-0.135407
-0.149253
-0.165543
-0.184756
-0.207435
-0.234127
-0.265205
-0.300504
-0.338776
-0.377225
-0.411571
-0.436839
-0.448696
-0.446412
-0.431073
-0.405844
-0.375625
-0.345750
-0.320706
-0.302288
-0.285165
-0.265190
-0.253554
-0.052749
-0.052858
-0.052999
-0.053186
-0.053442
-0.053786
-0.054236
-0.054805
-0.055509
-0.056364
-0.057385
-0.058591
-0.060001
-0.061637
-0.063525
-0.065691
-0.068171
-0.071002
-0.074229
-0.077908
-0.082101
-0.086876
-0.092318
-0.098539
-0.105663
-0.113837
-0.123237
-0.134066
-0.146560
-0.160988
-0.177645
-0.196836
-0.218821
-0.243699
-0.271168
-0.300175
-0.328615
-0.353368
-0.370856
-0.378027
-0.374255
-0.360534
-0.339337
-0.314468
-0.290185
-0.270295
-0.256885
-0.247496
-0.237007
-0.230517
-0.055143
-0.055253
-0.055372
-0.055521
-0.055726
-0.056014
-0.056405
-0.056918
-0.057567
-0.058371
-0.059345
-0.060507
-0.061877
-0.063475
-0.065324
-0.067450
-0.069883
-0.072658
-0.075815
-0.079402
-0.083461
-0.088058
-0.093270
-0.099179
-0.105885
-0.113499
-0.122146
-0.131968
-0.143115
-0.155747
-0.170017
-0.186050
-0.203907
-0.223494
-0.244424
-0.265806
-0.286072
-0.303014
-0.314169
-0.317495
-0.312456
-0.299886
-0.281724
-0.260912
-0.240811
-0.224591
-0.214363
-0.209852
-0.205821
-0.203068
-0.057506
-0.057617
-0.057708
-0.057804
-0.057941
-0.058153
-0.058465
-0.058900
-0.059475
-0.060208
-0.061117
-0.062218
-0.063529
-0.065070
-0.066861
-0.068926
-0.071292
-0.073989
-0.077052
-0.080511
-0.084411
-0.088807
-0.093757
-0.099327
-0.105590
-0.112625
-0.120518
-0.129356
-0.139227
-0.150202
-0.162334
-0.175628
-0.190010
-0.205275
-0.221000
-0.236435
-0.250413
-0.261400
-0.267749
-0.268159
-0.262182
-0.250499
-0.234634
-0.216864
-0.199830
-0.186139
-0.177746
-0.175762
-0.175270
-0.174706
-0.059855
-0.059969
-0.060022
-0.060047
-0.060094
-0.060205
-0.060415
-0.060750
-0.061229
-0.061873
-0.062697
-0.063719
-0.064955
-0.066423
-0.068141
-0.070130
-0.072412
-0.075014
-0.077960
-0.081273
-0.084999
-0.089176
-0.093850
-0.099070
-0.104887
-0.111354
-0.118524
-0.126442
-0.135146
-0.144649
-0.154932
-0.165924
-0.177478
-0.189333
-0.201072
-0.212065
-0.221441
-0.228137
-0.231073
-0.229450
-0.222920
-0.212032
-0.197994
-0.182580
-0.167872
-0.155998
-0.148630
-0.147364
-0.147914
-0.148049
-0.062218
-0.062335
-0.062337
-0.062268
-0.062195
-0.062177
-0.062257
-0.062466
-0.062828
-0.063361
-0.064084
-0.065011
-0.066158
-0.067539
-0.069171
-0.071071
-0.073257
-0.075752
-0.078566
-0.081727
-0.085269
-0.089222
-0.093619
-0.098493
-0.103880
-0.109810
-0.116310
-0.123396
-0.131068
-0.139300
-0.148029
-0.157142
-0.166455
-0.175693
-0.184469
-0.192260
-0.198408
-0.202170
-0.202839
-0.199940
-0.193231
-0.183150
-0.170671
-0.157197
-0.144390
-0.133986
-0.127302
-0.125508
-0.125131
-0.124627
-0.064632
-0.064753
-0.064684
-0.064488
-0.064259
-0.064076
-0.063993
-0.064048
-0.064267
-0.064670
-0.065274
-0.066093
-0.067138
-0.068423
-0.069959
-0.071761
-0.073844
-0.076224
-0.078901
-0.081908
-0.085266
-0.088997
-0.093125
-0.097672
-0.102658
-0.108097
-0.113996
-0.120351
-0.127135
-0.134299
-0.141755
-0.149369
-0.156947
-0.164224
-0.170854
-0.176403
-0.180371
-0.182226
-0.181503
-0.177924
-0.171351
-0.162123
-0.151047
-0.139259
-0.128116
-0.119051
-0.113035
-0.109964
-0.107147
-0.104773
-0.067153
-0.067277
-0.067107
-0.066739
-0.066304
-0.065910
-0.065624
-0.065492
-0.065543
-0.065796
-0.066267
-0.066965
-0.067900
-0.069080
-0.070516
-0.072215
-0.074191
-0.076454
-0.078997
-0.081850
-0.085030
-0.088551
-0.092428
-0.096674
-0.101296
-0.106299
-0.111675
-0.117404
-0.123445
-0.129733
-0.136170
-0.142615
-0.148880
-0.154718
-0.159828
-0.163853
-0.166402
-0.167089
-0.165596
-0.161758
-0.155578
-0.147224
-0.137431
-0.127137
-0.117477
-0.109663
-0.104427
-0.099707
-0.093090
-0.087453
-0.069863
-0.069985
-0.069667
-0.069060
-0.068352
-0.067686
-0.067150
-0.066795
-0.066651
-0.066736
-0.067060
-0.067629
-0.068447
-0.069520
-0.070852
-0.072448
-0.074317
-0.076466
-0.078880
-0.081588
-0.084601
-0.087928
-0.091577
-0.095554
-0.099858
-0.104484
-0.109416
-0.114623
-0.120057
-0.125646
-0.131287
-0.136842
-0.142134
-0.146943
-0.151005
-0.154026
-0.155696
-0.155724
-0.153885
-0.150085
-0.144416
-0.136936
-0.128308
-0.119319
-0.110930
-0.104167
-0.099639
-0.093222
-0.080927
-0.069792
-0.072884
-0.072994
-0.072451
-0.071503
-0.070425
-0.069410
-0.068566
-0.067948
-0.067584
-0.067484
-0.067651
-0.068086
-0.068786
-0.069751
-0.070980
-0.072476
-0.074243
-0.076284
-0.078578
-0.081152
-0.084014
-0.087167
-0.090616
-0.094359
-0.098392
-0.102703
-0.107269
-0.112055
-0.117007
-0.122052
-0.127088
-0.131985
-0.136579
-0.140672
-0.144037
-0.146427
-0.147591
-0.147301
-0.145394
-0.141809
-0.136644
-0.130061
-0.122460
-0.114568
-0.107186
-0.101087
-0.096295
-0.088854
-0.066929
-0.045725
-0.076417
-0.076485
-0.075581
-0.074130
-0.072545
-0.071081
-0.069862
-0.068939
-0.068330
-0.068032
-0.068038
-0.068338
-0.068922
-0.069783
-0.070915
-0.072316
-0.073987
-0.075928
-0.078116
-0.080571
-0.083299
-0.086302
-0.089580
-0.093128
-0.096938
-0.100993
-0.105268
-0.109725
-0.114309
-0.118947
-0.123541
-0.127969
-0.132081
-0.135701
-0.138629
-0.140654
-0.141568
-0.141187
-0.139381
-0.136110
-0.131456
-0.125647
-0.118962
-0.111939
-0.105292
-0.099480
-0.093660
-0.082548
-0.043598
-0.002643
-0.080799
-0.080749
-0.079229
-0.077012
-0.074723
-0.072683
-0.071014
-0.069746
-0.068873
-0.068372
-0.068219
-0.068389
-0.068864
-0.069626
-0.070669
-0.071984
-0.073570
-0.075421
-0.077517
-0.079867
-0.082483
-0.085361
-0.088498
-0.091890
-0.095523
-0.099380
-0.103435
-0.107647
-0.111963
-0.116312
-0.120601
-0.124715
-0.128518
-0.131850
-0.134534
-0.136385
-0.137224
-0.136896
-0.135293
-0.132379
-0.128219
-0.122992
-0.117006
-0.110650
-0.104389
-0.098263
-0.089336
-0.066739
0.003631
0.085856
-0.086655
-0.086284
-0.083636
-0.080211
-0.076939
-0.074176
-0.071983
-0.070337
-0.069191
-0.068491
-0.068187
-0.068241
-0.068617
-0.069293
-0.070254
-0.071495
-0.073008
-0.074780
-0.076796
-0.079063
-0.081587
-0.084365
-0.087394
-0.090665
-0.094167
-0.097880
-0.101777
-0.105820
-0.109956
-0.114116
-0.118214
-0.122140
-0.125768
-0.128952
-0.131531
-0.133340
-0.134218
-0.134027
-0.132672
-0.130113
-0.126393
-0.121639
-0.116061
-0.109920
-0.103422
-0.095912
-0.078869
-0.024639
0.107920
0.275964
-0.095290
-0.093990
-0.089104
-0.083723
-0.079101
-0.075475
-0.072700
-0.070659
-0.069247
-0.068363
-0.067927
-0.067881
-0.068177
-0.068775
-0.069666
-0.070845
-0.072305
-0.074004
-0.075957
-0.078160
-0.080616
-0.083320
-0.086269
-0.089456
-0.092867
-0.096485
-0.100282
-0.104220
-0.108248
-0.112301
-0.116294
-0.120126
-0.123676
-0.126807
-0.129370
-0.131211
-0.132182
-0.132154
-0.131034
-0.128779
-0.125400
-0.120961
-0.115536
-0.109069
-0.101133
-0.089262
-0.052153
0.068666
0.351792
0.688358
-0.110061
-0.105719
-0.095889
-0.087343
-0.080944
-0.076392
-0.072994
-0.070541
-0.068883
-0.067840
-0.067293
-0.067175
-0.067415
-0.067943
-0.068792
-0.069923
-0.071326
-0.072983
-0.074895
-0.077057
-0.079468
-0.082128
-0.085030
-0.088168
-0.091530
-0.095095
-0.098839
-0.102723
-0.106698
-0.110699
-0.114646
-0.118439
-0.121963
-0.125086
-0.127665
-0.129554
-0.130611
-0.130712
-0.129764
-0.127710
-0.124525
-0.120174
-0.114493
-0.106755
-0.095255
-0.068701
0.020858
0.285257
0.864703
1.567717
-0.139894
-0.123753
-0.103891
-0.089792
-0.080904
-0.075488
-0.071355
-0.068724
-0.066942
-0.065825
-0.065244
-0.065107
-0.065342
-0.065899
-0.066769
-0.067922
-0.069346
-0.071026
-0.072959
-0.075140
-0.077570
-0.080244
-0.083158
-0.086306
-0.089673
-0.093243
-0.096987
-0.100869
-0.104839
-0.108833
-0.112772
-0.116559
-0.120079
-0.123205
-0.125798
-0.127715
-0.128821
-0.128993
-0.128132
-0.126162
-0.122977
-0.118344
-0.111458
-0.100042
-0.077921
-0.005749
0.204511
0.742048
1.833085
3.232265
-0.243780
-0.106401
-0.075878
-0.065787
-0.061272
-0.058968
-0.057522
-0.056783
-0.056459
-0.056485
-0.056822
-0.057439
-0.058306
-0.059405
-0.060737
-0.062293
-0.064068
-0.066061
-0.068270
-0.070699
-0.073350
-0.076223
-0.079317
-0.082626
-0.086138
-0.089838
-0.093698
-0.097683
-0.101743
-0.105816
-0.109823
-0.113669
-0.117241
-0.120413
-0.123052
-0.125018
-0.126179
-0.126412
-0.125607
-0.123646
-0.120274
-0.114814
-0.104841
-0.083063
-0.022657
0.136093
0.531308
1.419868
3.089382
5.306670
