# vtk DataFile Version 3.0
Vector Field
ASCII
DATASET RECTILINEAR_GRID
DIMENSIONS 50 50 1
X_COORDINATES 50 double
0.100000 0.300000 0.500000 0.700000 0.900000 1.100000 1.300000 1.500000 1.700000 1.900000 2.100000 2.300000 2.500000 2.700000 2.900000 3.100000 3.300000 3.500000 3.700000 3.900000 4.100000 4.300000 4.500000 4.700000 4.900000 5.100000 5.300000 5.500000 5.700000 5.900000 6.100000 6.300000 6.500000 6.700000 6.900000 7.100000 7.300000 7.500000 7.700000 7.900000 8.100000 8.300000 8.500000 8.700000 8.900000 9.100000 9.300000 9.500000 9.700000 9.900000 
Y_COORDINATES 50 double
0.100000 0.300000 0.500000 0.700000 0.900000 1.100000 1.300000 1.500000 1.700000 1.900000 2.100000 2.300000 2.500000 2.700000 2.900000 3.100000 3.300000 3.500000 3.700000 3.900000 4.100000 4.300000 4.500000 4.700000 4.900000 5.100000 5.300000 5.500000 5.700000 5.900000 6.100000 6.300000 6.500000 6.700000 6.900000 7.100000 7.300000 7.500000 7.700000 7.900000 8.100000 8.300000 8.500000 8.700000 8.900000 9.100000 9.300000 9.500000 9.700000 9.900000 
Z_COORDINATES 1 double
0.0
POINT_DATA 2500
VECTORS Vektorfeld double
-0.000242 0.000242 0.0
-0.001154 0.000669 0.0
-0.002699 0.000876 0.0
-0.004531 0.000956 0.0
-0.006469 0.000982 0.0
-0.008444 0.000992 0.0
-0.010436 0.001000 0.0
-0.012445 0.001009 0.0
-0.014475 0.001021 0.0
-0.016530 0.001034 0.0
-0.018613 0.001049 0.0
-0.020726 0.001065 0.0
-0.022872 0.001081 0.0
-0.025051 0.001098 0.0
-0.027262 0.001113 0.0
-0.029504 0.001128 0.0
-0.031774 0.001142 0.0
-0.034067 0.001152 0.0
-0.036378 0.001159 0.0
-0.038698 0.001161 0.0
-0.041015 0.001156 0.0
-0.043316 0.001144 0.0
-0.045583 0.001123 0.0
-0.047794 0.001089 0.0
-0.049925 0.001042 0.0
-0.051946 0.000979 0.0
-0.053823 0.000897 0.0
-0.055516 0.000796 0.0
-0.056983 0.000672 0.0
-0.058180 0.000525 0.0
-0.059058 0.000353 0.0
-0.059570 0.000159 0.0
-0.059671 -0.000057 0.0
-0.059317 -0.000298 0.0
-0.058457 -0.000562 0.0
-0.057054 -0.000841 0.0
-0.055083 -0.001129 0.0
-0.052537 -0.001418 0.0
-0.049422 -0.001697 0.0
-0.045766 -0.001959 0.0
-0.041614 -0.002193 0.0
-0.037027 -0.002393 0.0
-0.032082 -0.002552 0.0
-0.026870 -0.002661 0.0
-0.021497 -0.002712 0.0
-0.016100 -0.002686 0.0
-0.010871 -0.002543 0.0
-0.006123 -0.002205 0.0
-0.002385 -0.001533 0.0
-0.000426 -0.000426 0.0
-0.000708 0.001193 0.0
-0.002860 0.002781 0.0
-0.006109 0.003559 0.0
-0.009884 0.003881 0.0
-0.013890 0.004001 0.0
-0.017992 0.004051 0.0
-0.022143 0.004084 0.0
-0.026327 0.004119 0.0
-0.030545 0.004159 0.0
-0.034798 0.004204 0.0
-0.039090 0.004254 0.0
-0.043421 0.004305 0.0
-0.047792 0.004357 0.0
-0.052200 0.004408 0.0
-0.056642 0.004455 0.0
-0.061110 0.004497 0.0
-0.065597 0.004529 0.0
-0.070088 0.004549 0.0
-0.074569 0.004553 0.0
-0.079019 0.004536 0.0
-0.083413 0.004492 0.0
-0.087720 0.004416 0.0
-0.091904 0.004301 0.0
-0.095923 0.004140 0.0
-0.099727 0.003926 0.0
-0.103260 0.003649 0.0
-0.106460 0.003303 0.0
-0.109258 0.002881 0.0
-0.111581 0.002377 0.0
-0.113350 0.001786 0.0
-0.114487 0.001107 0.0
-0.114913 0.000342 0.0
-0.114548 -0.000504 0.0
-0.113319 -0.001435 0.0
-0.111165 -0.002437 0.0
-0.108047 -0.003487 0.0
-0.103943 -0.004559 0.0
-0.098855 -0.005624 0.0
-0.092808 -0.006652 0.0
-0.085856 -0.007611 0.0
-0.078080 -0.008470 0.0
-0.069582 -0.009202 0.0
-0.060489 -0.009782 0.0
-0.050949 -0.010184 0.0
-0.041139 -0.010371 0.0
-0.031288 -0.010275 0.0
-0.021715 -0.009755 0.0
-0.012921 -0.008535 0.0
-0.005713 -0.006148 0.0
-0.001315 -0.002167 0.0
-0.000976 0.002877 0.0
-0.003836 0.006109 0.0
-0.008028 0.007672 0.0
-0.012832 0.008346 0.0
-0.017907 0.008617 0.0
-0.023104 0.008735 0.0
-0.028362 0.008808 0.0
-0.033659 0.008876 0.0
-0.038991 0.008950 0.0
-0.044356 0.009032 0.0
-0.049756 0.009118 0.0
-0.055188 0.009205 0.0
-0.060651 0.009291 0.0
-0.066141 0.009372 0.0
-0.071649 0.009442 0.0
-0.077166 0.009496 0.0
-0.082678 0.009529 0.0
-0.088169 0.009532 0.0
-0.093616 0.009498 0.0
-0.098993 0.009417 0.0
-0.104267 0.009279 0.0
-0.109400 0.009070 0.0
-0.114348 0.008779 0.0
-0.119056 0.008391 0.0
-0.123467 0.007891 0.0
-0.127514 0.007264 0.0
-0.131122 0.006497 0.0
-0.134213 0.005576 0.0
-0.136699 0.004491 0.0
-0.138492 0.003234 0.0
-0.139500 0.001804 0.0
-0.139634 0.000204 0.0
-0.138805 -0.001560 0.0
-0.136940 -0.003474 0.0
-0.133988 -0.005505 0.0
-0.129909 -0.007615 0.0
-0.124687 -0.009755 0.0
-0.118334 -0.011870 0.0
-0.110888 -0.013900 0.0
-0.102417 -0.015786 0.0
-0.093018 -0.017470 0.0
-0.082817 -0.018901 0.0
-0.071962 -0.020030 0.0
-0.060629 -0.020808 0.0
-0.049024 -0.021162 0.0
-0.037402 -0.020958 0.0
-0.026119 -0.019929 0.0
-0.015717 -0.017558 0.0
-0.007082 -0.012969 0.0
-0.001672 -0.005154 0.0
-0.001104 0.004957 0.0
-0.004325 0.010110 0.0
-0.009009 0.012546 0.0
-0.014339 0.013605 0.0
-0.019950 0.014045 0.0
-0.025686 0.014240 0.0
-0.031485 0.014358 0.0
-0.037323 0.014461 0.0
-0.043194 0.014568 0.0
-0.049095 0.014681 0.0
-0.055026 0.014798 0.0
-0.060982 0.014914 0.0
-0.066962 0.015025 0.0
-0.072958 0.015123 0.0
-0.078962 0.015202 0.0
-0.084963 0.015253 0.0
-0.090944 0.015266 0.0
-0.096887 0.015229 0.0
-0.102767 0.015129 0.0
-0.108556 0.014952 0.0
-0.114217 0.014680 0.0
-0.119711 0.014295 0.0
-0.124987 0.013777 0.0
-0.129991 0.013105 0.0
-0.134659 0.012256 0.0
-0.138921 0.011208 0.0
-0.142698 0.009939 0.0
-0.145906 0.008431 0.0
-0.148453 0.006669 0.0
-0.150245 0.004641 0.0
-0.151186 0.002346 0.0
-0.151179 -0.000211 0.0
-0.150138 -0.003015 0.0
-0.147987 -0.006033 0.0
-0.144666 -0.009219 0.0
-0.140134 -0.012513 0.0
-0.134372 -0.015840 0.0
-0.127393 -0.019117 0.0
-0.119238 -0.022253 0.0
-0.109986 -0.025156 0.0
-0.099746 -0.027738 0.0
-0.088662 -0.029918 0.0
-0.076904 -0.031625 0.0
-0.064671 -0.032780 0.0
-0.052191 -0.033275 0.0
-0.039744 -0.032914 0.0
-0.027700 -0.031299 0.0
-0.016624 -0.027665 0.0
-0.007450 -0.020671 0.0
-0.001743 -0.008569 0.0
-0.001158 0.007220 0.0
-0.004540 0.014451 0.0
-0.009456 0.017805 0.0
-0.015038 0.019259 0.0
-0.020903 0.019867 0.0
-0.026889 0.020141 0.0
-0.032936 0.020304 0.0
-0.039022 0.020440 0.0
-0.045140 0.020577 0.0
-0.051287 0.020719 0.0
-0.057461 0.020864 0.0
-0.063660 0.021004 0.0
-0.069880 0.021134 0.0
-0.076114 0.021244 0.0
-0.082353 0.021325 0.0
-0.088586 0.021364 0.0
-0.094797 0.021347 0.0
-0.100967 0.021260 0.0
-0.107071 0.021083 0.0
-0.113082 0.020797 0.0
-0.118962 0.020378 0.0
-0.124672 0.019800 0.0
-0.130162 0.019038 0.0
-0.135376 0.018062 0.0
-0.140250 0.016841 0.0
-0.144711 0.015346 0.0
-0.148680 0.013547 0.0
-0.152069 0.011420 0.0
-0.154783 0.008942 0.0
-0.156723 0.006100 0.0
-0.157785 0.002890 0.0
-0.157867 -0.000679 0.0
-0.156874 -0.004582 0.0
-0.154717 -0.008775 0.0
-0.151322 -0.013194 0.0
-0.146635 -0.017757 0.0
-0.140629 -0.022363 0.0
-0.133307 -0.026895 0.0
-0.124710 -0.031226 0.0
-0.114923 -0.035224 0.0
-0.104069 -0.038764 0.0
-0.092313 -0.041732 0.0
-0.079856 -0.044026 0.0
-0.066929 -0.045539 0.0
-0.053796 -0.046129 0.0
-0.040765 -0.045538 0.0
-0.028237 -0.043246 0.0
-0.016801 -0.038229 0.0
-0.007427 -0.028655 0.0
-0.001704 -0.012016 0.0
-0.001174 0.009551 0.0
-0.004613 0.018941 0.0
-0.009622 0.023240 0.0
-0.015310 0.025093 0.0
-0.021281 0.025868 0.0
-0.027372 0.026218 0.0
-0.033523 0.026425 0.0
-0.039713 0.026595 0.0
-0.045935 0.026763 0.0
-0.052188 0.026934 0.0
-0.058471 0.027106 0.0
-0.064782 0.027272 0.0
-0.071117 0.027421 0.0
-0.077470 0.027544 0.0
-0.083834 0.027628 0.0
-0.090199 0.027658 0.0
-0.096549 0.027615 0.0
-0.102868 0.027481 0.0
-0.109133 0.027232 0.0
-0.115317 0.026842 0.0
-0.121385 0.026282 0.0
-0.127299 0.025520 0.0
-0.133010 0.024521 0.0
-0.138465 0.023248 0.0
-0.143599 0.021663 0.0
-0.148340 0.019726 0.0
-0.152605 0.017402 0.0
-0.156305 0.014654 0.0
-0.159338 0.011455 0.0
-0.161599 0.007787 0.0
-0.162974 0.003641 0.0
-0.163348 -0.000972 0.0
-0.162608 -0.006022 0.0
-0.160646 -0.011454 0.0
-0.157366 -0.017189 0.0
-0.152692 -0.023122 0.0
-0.146578 -0.029119 0.0
-0.139015 -0.035026 0.0
-0.130036 -0.040670 0.0
-0.119731 -0.045872 0.0
-0.108242 -0.050459 0.0
-0.095762 -0.054272 0.0
-0.082536 -0.057169 0.0
-0.068846 -0.059013 0.0
-0.055006 -0.059628 0.0
-0.041376 -0.058700 0.0
-0.028396 -0.055593 0.0
-0.016688 -0.049026 0.0
-0.007243 -0.036677 0.0
-0.001620 -0.015340 0.0
-0.001172 0.011897 0.0
-0.004617 0.023480 0.0
-0.009648 0.028741 0.0
-0.015365 0.030996 0.0
-0.021369 0.031938 0.0
-0.027493 0.032364 0.0
-0.033678 0.032614 0.0
-0.039903 0.032820 0.0
-0.046164 0.033021 0.0
-0.052460 0.033225 0.0
-0.058790 0.033429 0.0
-0.065156 0.033624 0.0
-0.071553 0.033801 0.0
-0.077979 0.033944 0.0
-0.084428 0.034041 0.0
-0.090890 0.034072 0.0
-0.097355 0.034017 0.0
-0.103807 0.033851 0.0
-0.110226 0.033547 0.0
-0.116589 0.033073 0.0
-0.122864 0.032394 0.0
-0.129015 0.031472 0.0
-0.134997 0.030262 0.0
-0.140757 0.028721 0.0
-0.146234 0.026800 0.0
-0.151354 0.024450 0.0
-0.156034 0.021624 0.0
-0.160179 0.018276 0.0
-0.163682 0.014370 0.0
-0.166426 0.009877 0.0
-0.168285 0.004784 0.0
-0.169124 -0.000902 0.0
-0.168806 -0.007151 0.0
-0.167194 -0.013899 0.0
-0.164165 -0.021053 0.0
-0.159612 -0.028484 0.0
-0.153459 -0.036023 0.0
-0.145675 -0.043470 0.0
-0.136283 -0.050596 0.0
-0.125373 -0.057161 0.0
-0.113108 -0.062925 0.0
-0.099726 -0.067668 0.0
-0.085530 -0.071195 0.0
-0.070878 -0.073330 0.0
-0.056164 -0.073864 0.0
-0.041819 -0.072439 0.0
-0.028339 -0.068315 0.0
-0.016380 -0.059971 0.0
-0.006938 -0.044619 0.0
-0.001500 -0.018460 0.0
-0.001162 0.014232 0.0
-0.004588 0.028016 0.0
-0.009604 0.034251 0.0
-0.015313 0.036914 0.0
-0.021312 0.038023 0.0
-0.027434 0.038525 0.0
-0.033619 0.038822 0.0
-0.039847 0.039066 0.0
-0.046116 0.039305 0.0
-0.052426 0.039548 0.0
-0.058779 0.039791 0.0
-0.065175 0.040025 0.0
-0.071615 0.040238 0.0
-0.078097 0.040415 0.0
-0.084618 0.040539 0.0
-0.091171 0.040590 0.0
-0.097750 0.040542 0.0
-0.104341 0.040368 0.0
-0.110929 0.040037 0.0
-0.117494 0.039510 0.0
-0.124009 0.038747 0.0
-0.130442 0.037702 0.0
-0.136751 0.036323 0.0
-0.142887 0.034557 0.0
-0.148790 0.032344 0.0
-0.154389 0.029624 0.0
-0.159597 0.026337 0.0
-0.164316 0.022426 0.0
-0.168431 0.017839 0.0
-0.171812 0.012535 0.0
-0.174316 0.006489 0.0
-0.175784 -0.000300 0.0
-0.176049 -0.007806 0.0
-0.174940 -0.015963 0.0
-0.172293 -0.024666 0.0
-0.167959 -0.033759 0.0
-0.161822 -0.043038 0.0
-0.153815 -0.052246 0.0
-0.143940 -0.061087 0.0
-0.132284 -0.069236 0.0
-0.119035 -0.076364 0.0
-0.104486 -0.082161 0.0
-0.089025 -0.086358 0.0
-0.073122 -0.088723 0.0
-0.057288 -0.089018 0.0
-0.042060 -0.086858 0.0
-0.028008 -0.081428 0.0
-0.015821 -0.071003 0.0
-0.006474 -0.052374 0.0
-0.001329 -0.021289 0.0
-0.001148 0.016542 0.0
-0.004541 0.032526 0.0
-0.009523 0.039739 0.0
-0.015203 0.042815 0.0
-0.021178 0.044096 0.0
-0.027279 0.044677 0.0
-0.033447 0.045023 0.0
-0.039663 0.045310 0.0
-0.045925 0.045592 0.0
-0.052235 0.045881 0.0
-0.058598 0.046172 0.0
-0.065015 0.046457 0.0
-0.071490 0.046720 0.0
-0.078022 0.046947 0.0
-0.084613 0.047119 0.0
-0.091260 0.047211 0.0
-0.097958 0.047197 0.0
-0.104700 0.047046 0.0
-0.111475 0.046722 0.0
-0.118268 0.046182 0.0
-0.125056 0.045379 0.0
-0.131814 0.044260 0.0
-0.138504 0.042765 0.0
-0.145082 0.040830 0.0
-0.151492 0.038383 0.0
-0.157662 0.035353 0.0
-0.163508 0.031663 0.0
-0.168926 0.027238 0.0
-0.173794 0.022010 0.0
-0.177970 0.015920 0.0
-0.181288 0.008925 0.0
-0.183563 0.001007 0.0
-0.184592 -0.007819 0.0
-0.184161 -0.017490 0.0
-0.182053 -0.027894 0.0
-0.178063 -0.038855 0.0
-0.172016 -0.050126 0.0
-0.163794 -0.061388 0.0
-0.153358 -0.072256 0.0
-0.140783 -0.082297 0.0
-0.126281 -0.091054 0.0
-0.110213 -0.098088 0.0
-0.093090 -0.103014 0.0
-0.075540 -0.105521 0.0
-0.058255 -0.105340 0.0
-0.041928 -0.102091 0.0
-0.027231 -0.094945 0.0
-0.014873 -0.082031 0.0
-0.005773 -0.059792 0.0
-0.001085 -0.023703 0.0
-0.001130 0.018819 0.0
-0.004482 0.036993 0.0
-0.009418 0.045190 0.0
-0.015057 0.048683 0.0
-0.020996 0.050140 0.0
-0.027065 0.050804 0.0
-0.033205 0.051204 0.0
-0.039399 0.051538 0.0
-0.045645 0.051871 0.0
-0.051947 0.052215 0.0
-0.058312 0.052565 0.0
-0.064744 0.052913 0.0
-0.071248 0.053243 0.0
-0.077829 0.053539 0.0
-0.084490 0.053779 0.0
-0.091232 0.053939 0.0
-0.098056 0.053991 0.0
-0.104959 0.053898 0.0
-0.111936 0.053622 0.0
-0.118977 0.053115 0.0
-0.126068 0.052325 0.0
-0.133188 0.051191 0.0
-0.140307 0.049644 0.0
-0.147387 0.047609 0.0
-0.154376 0.045003 0.0
-0.161208 0.041736 0.0
-0.167799 0.037716 0.0
-0.174044 0.032848 0.0
-0.179814 0.027039 0.0
-0.184952 0.020205 0.0
-0.189273 0.012278 0.0
-0.192560 0.003216 0.0
-0.194573 -0.006986 0.0
-0.195043 -0.018285 0.0
-0.193682 -0.030567 0.0
-0.190213 -0.043641 0.0
-0.184380 -0.057219 0.0
-0.175984 -0.070912 0.0
-0.164923 -0.084228 0.0
-0.151235 -0.096587 0.0
-0.135147 -0.107355 0.0
-0.117104 -0.115899 0.0
-0.097780 -0.121650 0.0
-0.078039 -0.124174 0.0
-0.058846 -0.123165 0.0
-0.041138 -0.118301 0.0
-0.025728 -0.108842 0.0
-0.013329 -0.092891 0.0
-0.004721 -0.066641 0.0
-0.000737 -0.025526 0.0
-0.001110 0.021059 0.0
-0.004413 0.041408 0.0
-0.009294 0.050592 0.0
-0.014883 0.054509 0.0
-0.020776 0.056145 0.0
-0.026805 0.056896 0.0
-0.032908 0.057355 0.0
-0.039071 0.057743 0.0
-0.045293 0.058134 0.0
-0.051580 0.058541 0.0
-0.057940 0.058963 0.0
-0.064380 0.059388 0.0
-0.070909 0.059801 0.0
-0.077533 0.060186 0.0
-0.084261 0.060520 0.0
-0.091098 0.060778 0.0
-0.098050 0.060928 0.0
-0.105120 0.060934 0.0
-0.112308 0.060752 0.0
-0.119613 0.060332 0.0
-0.127028 0.059614 0.0
-0.134540 0.058533 0.0
-0.142128 0.057009 0.0
-0.149762 0.054957 0.0
-0.157399 0.052280 0.0
-0.164979 0.048871 0.0
-0.172422 0.044616 0.0
-0.179625 0.039396 0.0
-0.186455 0.033090 0.0
-0.192745 0.025581 0.0
-0.198288 0.016766 0.0
-0.202838 0.006566 0.0
-0.206103 -0.005057 0.0
-0.207750 -0.018097 0.0
-0.207417 -0.032449 0.0
-0.204726 -0.047920 0.0
-0.199309 -0.064190 0.0
-0.190850 -0.080796 0.0
-0.179140 -0.097116 0.0
-0.164144 -0.112383 0.0
-0.146078 -0.125714 0.0
-0.125475 -0.136186 0.0
-0.103222 -0.142940 0.0
-0.080524 -0.145323 0.0
-0.058766 -0.142967 0.0
-0.039278 -0.135695 0.0
-0.023096 -0.123041 0.0
-0.010889 -0.103297 0.0
-0.003168 -0.072562 0.0
-0.000247 -0.026510 0.0
-0.001086 0.023255 0.0
-0.004334 0.045763 0.0
-0.009152 0.055937 0.0
-0.014681 0.060282 0.0
-0.020520 0.062104 0.0
-0.026499 0.062946 0.0
-0.032558 0.063468 0.0
-0.038681 0.063916 0.0
-0.044871 0.064372 0.0
-0.051134 0.064853 0.0
-0.057480 0.065357 0.0
-0.063920 0.065874 0.0
-0.070465 0.066389 0.0
-0.077126 0.066884 0.0
-0.083915 0.067338 0.0
-0.090841 0.067724 0.0
-0.097917 0.068010 0.0
-0.105152 0.068157 0.0
-0.112555 0.068120 0.0
-0.120131 0.067845 0.0
-0.127882 0.067268 0.0
-0.135807 0.066316 0.0
-0.143896 0.064903 0.0
-0.152128 0.062931 0.0
-0.160473 0.060288 0.0
-0.168880 0.056851 0.0
-0.177281 0.052481 0.0
-0.185577 0.047031 0.0
-0.193635 0.040344 0.0
-0.201283 0.032264 0.0
-0.208297 0.022641 0.0
-0.214400 0.011343 0.0
-0.219247 -0.001723 0.0
-0.222436 -0.016595 0.0
-0.223511 -0.033209 0.0
-0.221969 -0.051393 0.0
-0.217292 -0.070811 0.0
-0.208996 -0.090929 0.0
-0.196708 -0.110981 0.0
-0.180256 -0.129965 0.0
-0.159796 -0.146659 0.0
-0.135930 -0.159710 0.0
-0.109796 -0.167802 0.0
-0.083065 -0.169891 0.0
-0.057759 -0.165463 0.0
-0.035863 -0.154583 0.0
-0.018804 -0.137394 0.0
-0.007163 -0.112793 0.0
-0.000929 -0.077021 0.0
0.000428 -0.026329 0.0
-0.001060 0.025402 0.0
-0.004245 0.050049 0.0
-0.008991 0.061215 0.0
-0.014452 0.065995 0.0
-0.020227 0.068005 0.0
-0.026148 0.068944 0.0
-0.032152 0.069533 0.0
-0.038227 0.070048 0.0
-0.044373 0.070577 0.0
-0.050602 0.071141 0.0
-0.056924 0.071739 0.0
-0.063353 0.072362 0.0
-0.069904 0.072996 0.0
-0.076589 0.073624 0.0
-0.083427 0.074224 0.0
-0.090432 0.074770 0.0
-0.097623 0.075230 0.0
-0.105015 0.075564 0.0
-0.112626 0.075726 0.0
-0.120470 0.075659 0.0
-0.128561 0.075297 0.0
-0.136909 0.074560 0.0
-0.145517 0.073355 0.0
-0.154380 0.071574 0.0
-0.163482 0.069091 0.0
-0.172788 0.065762 0.0
-0.182244 0.061426 0.0
-0.191764 0.055901 0.0
-0.201224 0.048992 0.0
-0.210450 0.040491 0.0
-0.219210 0.030189 0.0
-0.227198 0.017886 0.0
-0.234028 0.003412 0.0
-0.239229 -0.013340 0.0
-0.242226 -0.032392 0.0
-0.242359 -0.053619 0.0
-0.238924 -0.076698 0.0
-0.231214 -0.101047 0.0
-0.218616 -0.125751 0.0
-0.200739 -0.149524 0.0
-0.177592 -0.170706 0.0
-0.149775 -0.187346 0.0
-0.118656 -0.197418 0.0
-0.086457 -0.199205 0.0
-0.056100 -0.191811 0.0
-0.030654 -0.175578 0.0
-0.012364 -0.151748 0.0
-0.001752 -0.120691 0.0
0.002200 -0.079309 0.0
0.001352 -0.024550 0.0
-0.001031 0.027494 0.0
-0.004146 0.054257 0.0
-0.008810 0.066416 0.0
-0.014193 0.071637 0.0
-0.019895 0.073842 0.0
-0.025747 0.074880 0.0
-0.031688 0.075542 0.0
-0.037702 0.076128 0.0
-0.043794 0.076736 0.0
-0.049976 0.077392 0.0
-0.056261 0.078095 0.0
-0.062665 0.078839 0.0
-0.069205 0.079609 0.0
-0.075900 0.080391 0.0
-0.082770 0.081164 0.0
-0.089837 0.081903 0.0
-0.097125 0.082575 0.0
-0.104658 0.083143 0.0
-0.112461 0.083560 0.0
-0.120561 0.083769 0.0
-0.128983 0.083700 0.0
-0.137750 0.083271 0.0
-0.146883 0.082383 0.0
-0.156393 0.080919 0.0
-0.166285 0.078739 0.0
-0.176546 0.075682 0.0
-0.187143 0.071559 0.0
-0.198011 0.066156 0.0
-0.209045 0.059230 0.0
-0.220083 0.050518 0.0
-0.230896 0.039736 0.0
-0.241166 0.026598 0.0
-0.250469 0.010833 0.0
-0.258250 -0.007780 0.0
-0.263817 -0.029388 0.0
-0.266354 -0.053953 0.0
-0.264929 -0.081224 0.0
-0.258560 -0.110600 0.0
-0.246328 -0.141029 0.0
-0.227535 -0.170916 0.0
-0.201916 -0.198080 0.0
-0.169899 -0.219806 0.0
-0.132900 -0.233076 0.0
-0.093591 -0.235056 0.0
-0.055953 -0.223955 0.0
-0.024730 -0.200103 0.0
-0.003961 -0.166282 0.0
0.005501 -0.126232 0.0
0.006372 -0.078592 0.0
0.002576 -0.020622 0.0
-0.000999 0.029524 0.0
-0.004035 0.058377 0.0
-0.008608 0.071532 0.0
-0.013903 0.077198 0.0
-0.019522 0.079602 0.0
-0.025295 0.080744 0.0
-0.031160 0.081482 0.0
-0.037101 0.082144 0.0
-0.043126 0.082837 0.0
-0.049247 0.083592 0.0
-0.055478 0.084411 0.0
-0.061840 0.085288 0.0
-0.068351 0.086211 0.0
-0.075035 0.087168 0.0
-0.081916 0.088139 0.0
-0.089022 0.089101 0.0
-0.096382 0.090025 0.0
-0.104030 0.090874 0.0
-0.112001 0.091603 0.0
-0.120331 0.092156 0.0
-0.129059 0.092463 0.0
-0.138226 0.092442 0.0
-0.147870 0.091988 0.0
-0.158024 0.090979 0.0
-0.168719 0.089265 0.0
-0.179969 0.086667 0.0
-0.191771 0.082973 0.0
-0.204093 0.077932 0.0
-0.216862 0.071256 0.0
-0.229945 0.062614 0.0
-0.243133 0.051640 0.0
-0.256111 0.037941 0.0
-0.268430 0.021112 0.0
-0.279481 0.000773 0.0
-0.288475 -0.023379 0.0
-0.294426 -0.051473 0.0
-0.296178 -0.083377 0.0
-0.292475 -0.118519 0.0
-0.282074 -0.155742 0.0
-0.263899 -0.193171 0.0
-0.237231 -0.228112 0.0
-0.201997 -0.257024 0.0
-0.159212 -0.275642 0.0
-0.111537 -0.279474 0.0
-0.063764 -0.264948 0.0
-0.022754 -0.231343 0.0
0.004077 -0.182641 0.0
0.013912 -0.129170 0.0
0.011448 -0.074061 0.0
0.004069 -0.013977 0.0
-0.000963 0.031486 0.0
-0.003913 0.062401 0.0
-0.008384 0.076552 0.0
-0.013581 0.082669 0.0
-0.019107 0.085277 0.0
-0.024789 0.086525 0.0
-0.030565 0.087342 0.0
-0.036421 0.088082 0.0
-0.042364 0.088866 0.0
-0.048406 0.089726 0.0
-0.054566 0.090669 0.0
-0.060865 0.091690 0.0
-0.067325 0.092781 0.0
-0.073973 0.093930 0.0
-0.080837 0.095122 0.0
-0.087952 0.096338 0.0
-0.095352 0.097550 0.0
-0.103080 0.098725 0.0
-0.111180 0.099822 0.0
-0.119701 0.100788 0.0
-0.128697 0.101556 0.0
-0.138225 0.102044 0.0
-0.148345 0.102149 0.0
-0.159116 0.101745 0.0
-0.170597 0.100675 0.0
-0.182839 0.098749 0.0
-0.195878 0.095732 0.0
-0.209728 0.091344 0.0
-0.224363 0.085247 0.0
-0.239700 0.077043 0.0
-0.255572 0.066272 0.0
-0.271698 0.052413 0.0
-0.287644 0.034905 0.0
-0.302789 0.013177 0.0
-0.316289 -0.013290 0.0
-0.327039 -0.044861 0.0
-0.333728 -0.081548 0.0
-0.334920 -0.122860 0.0
-0.329099 -0.167623 0.0
-0.314717 -0.213847 0.0
-0.290292 -0.258530 0.0
-0.254741 -0.297391 0.0
-0.208040 -0.324760 0.0
-0.152098 -0.333974 0.0
-0.091710 -0.318610 0.0
-0.035389 -0.275012 0.0
0.005035 -0.206226 0.0
0.020709 -0.131094 0.0
0.016525 -0.065490 0.0
0.005632 -0.004277 0.0
-0.000925 0.033375 0.0
-0.003780 0.066318 0.0
-0.008140 0.081466 0.0
-0.013227 0.088040 0.0
-0.018648 0.090853 0.0
-0.024227 0.092210 0.0
-0.029902 0.093107 0.0
-0.035658 0.093929 0.0
-0.041502 0.094805 0.0
-0.047448 0.095776 0.0
-0.053516 0.096848 0.0
-0.059728 0.098022 0.0
-0.066111 0.099292 0.0
-0.072693 0.100649 0.0
-0.079509 0.102083 0.0
-0.086595 0.103577 0.0
-0.093995 0.105111 0.0
-0.101758 0.106655 0.0
-0.109938 0.108173 0.0
-0.118597 0.109618 0.0
-0.127804 0.110929 0.0
-0.137633 0.112029 0.0
-0.148169 0.112819 0.0
-0.159499 0.113176 0.0
-0.171715 0.112942 0.0
-0.184912 0.111920 0.0
-0.199175 0.109864 0.0
-0.214578 0.106465 0.0
-0.231163 0.101346 0.0
-0.248922 0.094041 0.0
-0.267769 0.083993 0.0
-0.287501 0.070548 0.0
-0.307748 0.052962 0.0
-0.327930 0.030446 0.0
-0.347228 0.002238 0.0
-0.364605 -0.032260 0.0
-0.378787 -0.073278 0.0
-0.388267 -0.120460 0.0
-0.391236 -0.172874 0.0
-0.385376 -0.228837 0.0
-0.367928 -0.285412 0.0
-0.336301 -0.337686 0.0
-0.289039 -0.378428 0.0
-0.226812 -0.398475 0.0
-0.153466 -0.387843 0.0
-0.077493 -0.338074 0.0
-0.013408 -0.247674 0.0
0.019480 -0.138208 0.0
0.019566 -0.054279 0.0
0.006808 0.008163 0.0
-0.000883 0.035183 0.0
-0.003636 0.070118 0.0
-0.007874 0.086263 0.0
-0.012841 0.093297 0.0
-0.018146 0.096321 0.0
-0.023610 0.097787 0.0
-0.029170 0.098765 0.0
-0.034810 0.099667 0.0
-0.040538 0.100638 0.0
-0.046368 0.101720 0.0
-0.052321 0.102926 0.0
-0.058422 0.104258 0.0
-0.064698 0.105714 0.0
-0.071181 0.107292 0.0
-0.077909 0.108983 0.0
-0.084924 0.110778 0.0
-0.092275 0.112661 0.0
-0.100018 0.114610 0.0
-0.108217 0.116597 0.0
-0.116945 0.118582 0.0
-0.126286 0.120513 0.0
-0.136335 0.122323 0.0
-0.147198 0.123923 0.0
-0.158994 0.125197 0.0
-0.171853 0.125996 0.0
-0.185917 0.126126 0.0
-0.201333 0.125337 0.0
-0.218246 0.123308 0.0
-0.236788 0.119630 0.0
-0.257057 0.113785 0.0
-0.279085 0.105125 0.0
-0.302800 0.092863 0.0
-0.327986 0.076079 0.0
-0.354241 0.053767 0.0
-0.380970 0.024944 0.0
-0.407360 -0.011199 0.0
-0.432335 -0.055182 0.0
-0.454306 -0.107105 0.0
-0.470737 -0.166829 0.0
-0.477893 -0.233587 0.0
-0.471286 -0.304717 0.0
-0.446880 -0.374415 0.0
-0.402202 -0.433639 0.0
-0.336903 -0.470790 0.0
-0.253327 -0.472450 0.0
-0.158012 -0.424754 0.0
-0.064818 -0.318272 0.0
0.000253 -0.165568 0.0
0.017689 -0.044442 0.0
0.006901 0.021872 0.0
-0.000839 0.036905 0.0
-0.003482 0.073792 0.0
-0.007588 0.090932 0.0
-0.012425 0.098432 0.0
-0.017602 0.101668 0.0
-0.022939 0.103243 0.0
-0.028370 0.104299 0.0
-0.033879 0.105281 0.0
-0.039472 0.106344 0.0
-0.045165 0.107537 0.0
-0.050979 0.108876 0.0
-0.056940 0.110369 0.0
-0.063077 0.112016 0.0
-0.069424 0.113821 0.0
-0.076022 0.115780 0.0
-0.082917 0.117891 0.0
-0.090163 0.120145 0.0
-0.097822 0.122528 0.0
-0.105966 0.125022 0.0
-0.114681 0.127599 0.0
-0.124062 0.130219 0.0
-0.134223 0.132828 0.0
-0.145295 0.135353 0.0
-0.157425 0.137694 0.0
-0.170787 0.139720 0.0
-0.185571 0.141251 0.0
-0.201993 0.142050 0.0
-0.220285 0.141801 0.0
-0.240689 0.140084 0.0
-0.263442 0.136352 0.0
-0.288747 0.129892 0.0
-0.316749 0.119814 0.0
-0.347494 0.105059 0.0
-0.380920 0.084468 0.0
-0.416838 0.056890 0.0
-0.454842 0.021249 0.0
-0.493944 -0.023553 0.0
-0.531786 -0.078921 0.0
-0.564174 -0.146194 0.0
-0.585454 -0.225786 0.0
-0.589827 -0.314754 0.0
-0.572985 -0.405626 0.0
-0.532596 -0.487493 0.0
-0.467819 -0.547012 0.0
-0.379282 -0.568341 0.0
-0.270446 -0.533015 0.0
-0.151106 -0.422546 0.0
-0.044473 -0.232999 0.0
0.005970 -0.044889 0.0
0.005152 0.033926 0.0
-0.000792 0.038535 0.0
-0.003318 0.077331 0.0
-0.007283 0.095464 0.0
-0.011980 0.103434 0.0
-0.017019 0.106882 0.0
-0.022218 0.108565 0.0
-0.027506 0.109697 0.0
-0.032867 0.110753 0.0
-0.038306 0.111904 0.0
-0.043840 0.113204 0.0
-0.049490 0.114674 0.0
-0.055282 0.116324 0.0
-0.061245 0.118162 0.0
-0.067417 0.120195 0.0
-0.073839 0.122426 0.0
-0.080560 0.124861 0.0
-0.087638 0.127498 0.0
-0.095140 0.130336 0.0
-0.103146 0.133365 0.0
-0.111749 0.136573 0.0
-0.121058 0.139935 0.0
-0.131201 0.143417 0.0
-0.142332 0.146966 0.0
-0.154627 0.150508 0.0
-0.168297 0.153938 0.0
-0.183587 0.157108 0.0
-0.200783 0.159811 0.0
-0.220213 0.161761 0.0
-0.242247 0.162562 0.0
-0.267292 0.161672 0.0
-0.295785 0.158370 0.0
-0.328183 0.151736 0.0
-0.364968 0.140668 0.0
-0.406621 0.123939 0.0
-0.453476 0.100191 0.0
-0.505199 0.067676 0.0
-0.559874 0.023797 0.0
-0.613287 -0.035016 0.0
-0.659087 -0.111911 0.0
-0.690428 -0.207447 0.0
-0.702003 -0.317145 0.0
-0.690885 -0.431195 0.0
-0.655726 -0.537473 0.0
-0.595332 -0.622203 0.0
-0.508376 -0.668642 0.0
-0.394634 -0.655292 0.0
-0.258364 -0.555879 0.0
-0.116086 -0.348576 0.0
-0.020765 -0.075075 0.0
0.002544 0.041621 0.0
-0.000743 0.040070 0.0
-0.003147 0.080727 0.0
-0.006963 0.099850 0.0
-0.011511 0.108292 0.0
-0.016402 0.111953 0.0
-0.021450 0.113740 0.0
-0.026582 0.114942 0.0
-0.031780 0.116067 0.0
-0.037047 0.117298 0.0
-0.042401 0.118697 0.0
-0.047860 0.120290 0.0
-0.053452 0.122091 0.0
-0.059206 0.124113 0.0
-0.065160 0.126369 0.0
-0.071356 0.128870 0.0
-0.077845 0.131628 0.0
-0.084688 0.134652 0.0
-0.091955 0.137951 0.0
-0.099729 0.141531 0.0
-0.108111 0.145392 0.0
-0.117218 0.149532 0.0
-0.127193 0.153938 0.0
-0.138204 0.158585 0.0
-0.150453 0.163433 0.0
-0.164187 0.168415 0.0
-0.179698 0.173431 0.0
-0.197341 0.178327 0.0
-0.217540 0.182876 0.0
-0.240806 0.186747 0.0
-0.267743 0.189469 0.0
-0.299075 0.190398 0.0
-0.335675 0.188706 0.0
-0.378581 0.183387 0.0
-0.428871 0.173163 0.0
-0.487111 0.156061 0.0
-0.552194 0.128612 0.0
-0.620088 0.085430 0.0
-0.683852 0.020528 0.0
-0.735855 -0.069651 0.0
-0.770406 -0.183815 0.0
-0.784541 -0.315068 0.0
-0.777401 -0.451530 0.0
-0.748589 -0.581108 0.0
-0.696494 -0.691057 0.0
-0.617840 -0.765397 0.0
-0.508666 -0.781453 0.0
-0.367596 -0.707058 0.0
-0.203380 -0.503891 0.0
-0.056333 -0.162129 0.0
0.002434 0.046599 0.0
-0.000692 0.041504 0.0
-0.002969 0.083974 0.0
-0.006631 0.104082 0.0
-0.011022 0.112999 0.0
-0.015756 0.116872 0.0
-0.020643 0.118757 0.0
-0.025607 0.120021 0.0
-0.030626 0.121205 0.0
-0.035704 0.122506 0.0
-0.040855 0.123993 0.0
-0.046098 0.125696 0.0
-0.051459 0.127636 0.0
-0.056967 0.129831 0.0
-0.062660 0.132298 0.0
-0.068580 0.135057 0.0
-0.074778 0.138128 0.0
-0.081314 0.141531 0.0
-0.088261 0.145286 0.0
-0.095705 0.149414 0.0
-0.103747 0.153934 0.0
-0.112512 0.158863 0.0
-0.122148 0.164217 0.0
-0.132836 0.170004 0.0
-0.144797 0.176224 0.0
-0.158299 0.182860 0.0
-0.173677 0.189875 0.0
-0.191342 0.197191 0.0
-0.211808 0.204677 0.0
-0.235718 0.212120 0.0
-0.263883 0.219198 0.0
-0.297343 0.225460 0.0
-0.337417 0.230317 0.0
-0.385655 0.232920 0.0
-0.443394 0.231659 0.0
-0.510629 0.223040 0.0
-0.584498 0.200584 0.0
-0.658690 0.155544 0.0
-0.724965 0.080453 0.0
-0.776022 -0.026517 0.0
-0.808388 -0.160032 0.0
-0.822035 -0.311070 0.0
-0.817905 -0.466799 0.0
-0.796372 -0.616183 0.0
-0.755725 -0.748725 0.0
-0.691212 -0.850896 0.0
-0.595391 -0.900949 0.0
-0.461006 -0.863017 0.0
-0.287852 -0.685303 0.0
-0.096861 -0.318755 0.0
-0.000719 0.048315 0.0
-0.000640 0.042837 0.0
-0.002788 0.087066 0.0
-0.006290 0.108154 0.0
-0.010519 0.117547 0.0
-0.015090 0.121629 0.0
-0.019807 0.123606 0.0
-0.024592 0.124920 0.0
-0.029419 0.126151 0.0
-0.034289 0.127508 0.0
-0.039216 0.129068 0.0
-0.044218 0.130866 0.0
-0.049318 0.132927 0.0
-0.054545 0.135275 0.0
-0.059934 0.137935 0.0
-0.065526 0.140932 0.0
-0.071372 0.144296 0.0
-0.077530 0.148057 0.0
-0.084072 0.152248 0.0
-0.091081 0.156904 0.0
-0.098661 0.162065 0.0
-0.106934 0.167770 0.0
-0.116052 0.174064 0.0
-0.126197 0.180991 0.0
-0.137598 0.188598 0.0
-0.150536 0.196928 0.0
-0.165368 0.206017 0.0
-0.182545 0.215890 0.0
-0.202642 0.226542 0.0
-0.226410 0.237933 0.0
-0.254834 0.249975 0.0
-0.289220 0.262528 0.0
-0.331210 0.275315 0.0
-0.382545 0.287497 0.0
-0.444207 0.296483 0.0
-0.514949 0.296194 0.0
-0.590171 0.276520 0.0
-0.662500 0.226129 0.0
-0.724243 0.137886 0.0
-0.770101 0.012965 0.0
-0.798181 -0.139066 0.0
-0.809931 -0.306638 0.0
-0.807989 -0.477303 0.0
-0.793703 -0.641497 0.0
-0.765997 -0.791764 0.0
-0.719663 -0.918704 0.0
-0.644627 -1.003998 0.0
-0.528184 -1.010795 0.0
-0.362282 -0.876582 0.0
-0.159566 -0.521183 0.0
-0.026280 0.021316 0.0
-0.000589 0.044065 0.0
-0.002605 0.090001 0.0
-0.005946 0.112063 0.0
-0.010010 0.121931 0.0
-0.014412 0.126217 0.0
-0.018953 0.128276 0.0
-0.023549 0.129630 0.0
-0.028171 0.130891 0.0
-0.032820 0.132287 0.0
-0.037503 0.133900 0.0
-0.042240 0.135772 0.0
-0.047049 0.137932 0.0
-0.051960 0.140409 0.0
-0.057003 0.143234 0.0
-0.062219 0.146441 0.0
-0.067653 0.150067 0.0
-0.073362 0.154153 0.0
-0.079414 0.158744 0.0
-0.085888 0.163891 0.0
-0.092881 0.169652 0.0
-0.100513 0.176089 0.0
-0.108927 0.183277 0.0
-0.118302 0.191299 0.0
-0.128860 0.200249 0.0
-0.140880 0.210235 0.0
-0.154717 0.221379 0.0
-0.170829 0.233817 0.0
-0.189817 0.247700 0.0
-0.212478 0.263204 0.0
-0.239887 0.280538 0.0
-0.273461 0.299924 0.0
-0.314902 0.321350 0.0
-0.365736 0.343632 0.0
-0.426234 0.362507 0.0
-0.494089 0.368767 0.0
-0.563994 0.349073 0.0
-0.628940 0.290852 0.0
-0.682592 0.188559 0.0
-0.721180 0.046737 0.0
-0.744000 -0.121938 0.0
-0.753360 -0.302656 0.0
-0.752640 -0.483948 0.0
-0.744251 -0.657528 0.0
-0.728632 -0.819058 0.0
-0.701696 -0.964680 0.0
-0.652430 -1.082323 0.0
-0.564094 -1.137249 0.0
-0.422270 -1.057855 0.0
-0.233013 -0.731884 0.0
-0.064658 -0.069623 0.0
-0.000538 0.045192 0.0
-0.002425 0.092778 0.0
-0.005605 0.115807 0.0
-0.009503 0.126149 0.0
-0.013735 0.130633 0.0
-0.018095 0.132762 0.0
-0.022495 0.134139 0.0
-0.026903 0.135413 0.0
-0.031315 0.136825 0.0
-0.035739 0.138469 0.0
-0.040188 0.140388 0.0
-0.044681 0.142618 0.0
-0.049242 0.145194 0.0
-0.053901 0.148151 0.0
-0.058693 0.151531 0.0
-0.063660 0.155379 0.0
-0.068853 0.159744 0.0
-0.074333 0.164685 0.0
-0.080174 0.170266 0.0
-0.086464 0.176561 0.0
-0.093309 0.183657 0.0
-0.100842 0.191656 0.0
-0.109225 0.200677 0.0
-0.118661 0.210864 0.0
-0.129407 0.222385 0.0
-0.141791 0.235450 0.0
-0.156242 0.250309 0.0
-0.173327 0.267280 0.0
-0.193808 0.286767 0.0
-0.218713 0.309288 0.0
-0.249364 0.335399 0.0
-0.287234 0.365187 0.0
-0.333399 0.396794 0.0
-0.387543 0.423986 0.0
-0.447040 0.434640 0.0
-0.507011 0.413075 0.0
-0.561653 0.346438 0.0
-0.606107 0.231080 0.0
-0.637777 0.074474 0.0
-0.656466 -0.108165 0.0