# vtk DataFile Version 3.0
Scalar Field
ASCII
DATASET RECTILINEAR_GRID
DIMENSIONS 50 50 1
X_COORDINATES 50 double
0.100000 0.300000 0.500000 0.700000 0.900000 1.100000 1.300000 1.500000 1.700000 1.900000 2.100000 2.300000 2.500000 2.700000 2.900000 3.100000 3.300000 3.500000 3.700000 3.900000 4.100000 4.300000 4.500000 4.700000 4.900000 5.100000 5.300000 5.500000 5.700000 5.900000 6.100000 6.300000 6.500000 6.700000 6.900000 7.100000 7.300000 7.500000 7.700000 7.900000 8.100000 8.300000 8.500000 8.700000 8.900000 9.100000 9.300000 9.500000 9.700000 9.900000 
Y_COORDINATES 50 double
0.100000 0.300000 0.500000 0.700000 0.900000 1.100000 1.300000 1.500000 1.700000 1.900000 2.100000 2.300000 2.500000 2.700000 2.900000 3.100000 3.300000 3.500000 3.700000 3.900000 4.100000 4.300000 4.500000 4.700000 4.900000 5.100000 5.300000 5.500000 5.700000 5.900000 6.100000 6.300000 6.500000 6.700000 6.900000 7.100000 7.300000 7.500000 7.700000 7.900000 8.100000 8.300000 8.500000 8.700000 8.900000 9.100000 9.300000 9.500000 9.700000 9.900000 
Z_COORDINATES 1 double
0.0
POINT_DATA 2500
SCALARS Skalarfeld double 1
LOOKUP_TABLE default
-0.010090
-0.010146
-0.010286
-0.010475
-0.010684
-0.010887
-0.011068
-0.011213
-0.011316
-0.011370
-0.011372
-0.011322
-0.011217
-0.011059
-0.010848
-0.010585
-0.010271
-0.009908
-0.009497
-0.009043
-0.008547
-0.008013
-0.007446
-0.006852
-0.006235
-0.005605
-0.004968
-0.004334
-0.003712
-0.003111
-0.002543
-0.002015
-0.001539
-0.001123
-0.000774
-0.000497
-0.000298
-0.000178
-0.000137
-0.000170
-0.000273
-0.000437
-0.000650
-0.000898
-0.001164
-0.001428
-0.001668
-0.001859
-0.001977
-0.002006
-0.010033
-0.010090
-0.010207
-0.010361
-0.010530
-0.010695
-0.010840
-0.010957
-0.011036
-0.011073
-0.011064
-0.011007
-0.010901
-0.010746
-0.010543
-0.010291
-0.009993
-0.009648
-0.009261
-0.008832
-0.008365
-0.007863
-0.007332
-0.006775
-0.006198
-0.005609
-0.005015
-0.004423
-0.003844
-0.003286
-0.002757
-0.002267
-0.001824
-0.001436
-0.001109
-0.000849
-0.000658
-0.000539
-0.000490
-0.000509
-0.000589
-0.000722
-0.000899
-0.001105
-0.001326
-0.001546
-0.001745
-0.001905
-0.002007
-0.002035
-0.009893
-0.009973
-0.010092
-0.010233
-0.010380
-0.010521
-0.010643
-0.010738
-0.010800
-0.010823
-0.010805
-0.010743
-0.010636
-0.010485
-0.010288
-0.010047
-0.009762
-0.009435
-0.009067
-0.008661
-0.008220
-0.007746
-0.007244
-0.006719
-0.006175
-0.005620
-0.005061
-0.004504
-0.003959
-0.003434
-0.002936
-0.002475
-0.002057
-0.001691
-0.001382
-0.001134
-0.000950
-0.000833
-0.000780
-0.000788
-0.000853
-0.000966
-0.001118
-0.001298
-0.001491
-0.001685
-0.001862
-0.002009
-0.002110
-0.002152
-0.009699
-0.009819
-0.009955
-0.010098
-0.010239
-0.010367
-0.010475
-0.010556
-0.010605
-0.010618
-0.010593
-0.010528
-0.010421
-0.010273
-0.010082
-0.009851
-0.009578
-0.009267
-0.008917
-0.008531
-0.008111
-0.007661
-0.007185
-0.006685
-0.006169
-0.005641
-0.005109
-0.004580
-0.004061
-0.003560
-0.003086
-0.002646
-0.002247
-0.001897
-0.001600
-0.001362
-0.001184
-0.001068
-0.001014
-0.001017
-0.001073
-0.001174
-0.001313
-0.001478
-0.001657
-0.001839
-0.002010
-0.002159
-0.002273
-0.002342
-0.009482
-0.009647
-0.009811
-0.009967
-0.010111
-0.010236
-0.010337
-0.010411
-0.010452
-0.010459
-0.010429
-0.010362
-0.010256
-0.010111
-0.009927
-0.009704
-0.009443
-0.009145
-0.008811
-0.008442
-0.008041
-0.007611
-0.007155
-0.006677
-0.006182
-0.005676
-0.005164
-0.004655
-0.004155
-0.003672
-0.003214
-0.002788
-0.002402
-0.002062
-0.001774
-0.001542
-0.001368
-0.001255
-0.001200
-0.001201
-0.001254
-0.001351
-0.001485
-0.001645
-0.001822
-0.002005
-0.002182
-0.002343
-0.002480
-0.002584
-0.009265
-0.009479
-0.009675
-0.009850
-0.010004
-0.010133
-0.010234
-0.010304
-0.010342
-0.010346
-0.010314
-0.010246
-0.010142
-0.010001
-0.009823
-0.009609
-0.009358
-0.009072
-0.008751
-0.008398
-0.008013
-0.007599
-0.007159
-0.006698
-0.006219
-0.005728
-0.005230
-0.004734
-0.004247
-0.003775
-0.003326
-0.002908
-0.002529
-0.002194
-0.001910
-0.001681
-0.001510
-0.001398
-0.001345
-0.001347
-0.001401
-0.001500
-0.001636
-0.001801
-0.001985
-0.002178
-0.002370
-0.002552
-0.002718
-0.002863
-0.009068
-0.009329
-0.009559
-0.009759
-0.009927
-0.010064
-0.010169
-0.010240
-0.010278
-0.010281
-0.010250
-0.010184
-0.010082
-0.009946
-0.009774
-0.009568
-0.009327
-0.009051
-0.008742
-0.008401
-0.008029
-0.007628
-0.007201
-0.006752
-0.006284
-0.005803
-0.005314
-0.004826
-0.004344
-0.003876
-0.003430
-0.003014
-0.002636
-0.002301
-0.002017
-0.001788
-0.001617
-0.001506
-0.001454
-0.001459
-0.001518
-0.001623
-0.001769
-0.001945
-0.002143
-0.002353
-0.002568
-0.002779
-0.002979
-0.003164
-0.008905
-0.009212
-0.009478
-0.009702
-0.009888
-0.010037
-0.010148
-0.010224
-0.010264
-0.010270
-0.010241
-0.010177
-0.010080
-0.009948
-0.009783
-0.009585
-0.009352
-0.009086
-0.008788
-0.008457
-0.008095
-0.007704
-0.007287
-0.006846
-0.006384
-0.005908
-0.005422
-0.004935
-0.004452
-0.003983
-0.003534
-0.003114
-0.002730
-0.002390
-0.002101
-0.001868
-0.001694
-0.001583
-0.001532
-0.001542
-0.001608
-0.001723
-0.001882
-0.002075
-0.002294
-0.002530
-0.002773
-0.003016
-0.003254
-0.003482
-0.008788
-0.009140
-0.009439
-0.009690
-0.009896
-0.010058
-0.010179
-0.010261
-0.010306
-0.010316
-0.010290
-0.010231
-0.010139
-0.010013
-0.009855
-0.009664
-0.009439
-0.009182
-0.008893
-0.008571
-0.008217
-0.007834
-0.007422
-0.006985
-0.006526
-0.006050
-0.005562
-0.005071
-0.004582
-0.004104
-0.003645
-0.003215
-0.002820
-0.002469
-0.002170
-0.001929
-0.001749
-0.001634
-0.001584
-0.001599
-0.001673
-0.001801
-0.001978
-0.002193
-0.002438
-0.002703
-0.002981
-0.003262
-0.003540
-0.003810
-0.008727
-0.009121
-0.009455
-0.009732
-0.009957
-0.010134
-0.010266
-0.010357
-0.010409
-0.010424
-0.010404
-0.010350
-0.010264
-0.010145
-0.009994
-0.009810
-0.009594
-0.009345
-0.009063
-0.008748
-0.008401
-0.008023
-0.007614
-0.007179
-0.006719
-0.006238
-0.005744
-0.005242
-0.004741
-0.004249
-0.003775
-0.003327
-0.002914
-0.002547
-0.002232
-0.001977
-0.001787
-0.001666
-0.001614
-0.001632
-0.001715
-0.001859
-0.002056
-0.002297
-0.002573
-0.002873
-0.003189
-0.003512
-0.003834
-0.004148
-0.008732
-0.009166
-0.009533
-0.009836
-0.010081
-0.010274
-0.010418
-0.010519
-0.010578
-0.010600
-0.010587
-0.010540
-0.010461
-0.010349
-0.010206
-0.010030
-0.009822
-0.009581
-0.009307
-0.008998
-0.008656
-0.008281
-0.007873
-0.007436
-0.006971
-0.006483
-0.005977
-0.005460
-0.004942
-0.004429
-0.003932
-0.003460
-0.003024
-0.002632
-0.002295
-0.002021
-0.001815
-0.001683
-0.001627
-0.001646
-0.001738
-0.001897
-0.002117
-0.002387
-0.002698
-0.003038
-0.003398
-0.003767
-0.004136
-0.004497
-0.008810
-0.009283
-0.009681
-0.010010
-0.010276
-0.010484
-0.010642
-0.010752
-0.010821
-0.010852
-0.010846
-0.010807
-0.010736
-0.010633
-0.010498
-0.010331
-0.010132
-0.009898
-0.009631
-0.009328
-0.008990
-0.008617
-0.008209
-0.007768
-0.007296
-0.006797
-0.006274
-0.005738
-0.005196
-0.004657
-0.004131
-0.003628
-0.003160
-0.002737
-0.002370
-0.002069
-0.001841
-0.001692
-0.001627
-0.001644
-0.001743
-0.001918
-0.002161
-0.002463
-0.002813
-0.003198
-0.003606
-0.004026
-0.004446
-0.004859
-0.008968
-0.009479
-0.009908
-0.010262
-0.010548
-0.010773
-0.010943
-0.011065
-0.011144
-0.011184
-0.011188
-0.011158
-0.011096
-0.011003
-0.010877
-0.010720
-0.010530
-0.010305
-0.010046
-0.009749
-0.009415
-0.009043
-0.008634
-0.008187
-0.007706
-0.007193
-0.006651
-0.006091
-0.005521
-0.004949
-0.004387
-0.003846
-0.003337
-0.002874
-0.002468
-0.002131
-0.001873
-0.001701
-0.001619
-0.001631
-0.001733
-0.001922
-0.002190
-0.002526
-0.002917
-0.003351
-0.003813
-0.004289
-0.004767
-0.005236
-0.009215
-0.009762
-0.010221
-0.010599
-0.010904
-0.011146
-0.011330
-0.011465
-0.011555
-0.011605
-0.011619
-0.011600
-0.011549
-0.011466
-0.011352
-0.011206
-0.011026
-0.010812
-0.010561
-0.010272
-0.009942
-0.009572
-0.009161
-0.008709
-0.008217
-0.007688
-0.007125
-0.006538
-0.005934
-0.005324
-0.004718
-0.004130
-0.003572
-0.003059
-0.002605
-0.002222
-0.001923
-0.001718
-0.001613
-0.001611
-0.001712
-0.001913
-0.002203
-0.002574
-0.003010
-0.003497
-0.004018
-0.004557
-0.005099
-0.005631
-0.009557
-0.010138
-0.010626
-0.011028
-0.011353
-0.011611
-0.011810
-0.011957
-0.012059
-0.012121
-0.012147
-0.012140
-0.012101
-0.012031
-0.011930
-0.011797
-0.011631
-0.011428
-0.011188
-0.010908
-0.010585
-0.010219
-0.009807
-0.009350
-0.008847
-0.008302
-0.007717
-0.007098
-0.006456
-0.005802
-0.005146
-0.004503
-0.003886
-0.003312
-0.002797
-0.002357
-0.002005
-0.001755
-0.001616
-0.001592
-0.001685
-0.001891
-0.002203
-0.002608
-0.003091
-0.003636
-0.004222
-0.004831
-0.005445
-0.006049
-0.009999
-0.010615
-0.011131
-0.011556
-0.011901
-0.012175
-0.012388
-0.012549
-0.012664
-0.012739
-0.012779
-0.012785
-0.012761
-0.012707
-0.012622
-0.012505
-0.012354
-0.012166
-0.011940
-0.011672
-0.011359
-0.010998
-0.010589
-0.010128
-0.009617
-0.009056
-0.008448
-0.007796
-0.007114
-0.006410
-0.005698
-0.004990
-0.004304
-0.003657
-0.003068
-0.002556
-0.002137
-0.001827
-0.001639
-0.001581
-0.001656
-0.001861
-0.002189
-0.002628
-0.003160
-0.003765
-0.004422
-0.005110
-0.005806
-0.006492
-0.010550
-0.011199
-0.011742
-0.012190
-0.012554
-0.012845
-0.013073
-0.013248
-0.013377
-0.013467
-0.013522
-0.013545
-0.013538
-0.013502
-0.013435
-0.013337
-0.013206
-0.013038
-0.012829
-0.012577
-0.012278
-0.011928
-0.011525
-0.011065
-0.010548
-0.009974
-0.009344
-0.008659
-0.007934
-0.007177
-0.006401
-0.005622
-0.004855
-0.004122
-0.003444
-0.002843
-0.002339
-0.001952
-0.001699
-0.001591
-0.001634
-0.001827
-0.002165
-0.002633
-0.003214
-0.003884
-0.004619
-0.005393
-0.006181
-0.006961
-0.011215
-0.011896
-0.012465
-0.012936
-0.013319
-0.013627
-0.013871
-0.014061
-0.014206
-0.014312
-0.014384
-0.014426
-0.014439
-0.014424
-0.014381
-0.014306
-0.014199
-0.014055
-0.013870
-0.013640
-0.013360
-0.013027
-0.012635
-0.012182
-0.011664
-0.011081
-0.010434
-0.009718
-0.008949
-0.008137
-0.007292
-0.006432
-0.005574
-0.004741
-0.003957
-0.003248
-0.002638
-0.002154
-0.001814
-0.001636
-0.001629
-0.001797
-0.002133
-0.002625
-0.003252
-0.003989
-0.004808
-0.005678
-0.006570
-0.007459
-0.012001
-0.012712
-0.013308
-0.013800
-0.014202
-0.014527
-0.014787
-0.014994
-0.015156
-0.015281
-0.015373
-0.015436
-0.015473
-0.015483
-0.015467
-0.015421
-0.015343
-0.015229
-0.015074
-0.014874
-0.014621
-0.014312
-0.013940
-0.013501
-0.012990
-0.012405
-0.011745
-0.011003
-0.010193
-0.009325
-0.008408
-0.007460
-0.006500
-0.005553
-0.004645
-0.003806
-0.003067
-0.002459
-0.002007
-0.001734
-0.001655
-0.001777
-0.002097
-0.002603
-0.003272
-0.004078
-0.004986
-0.005962
-0.006971
-0.007984
-0.012913
-0.013653
-0.014274
-0.014788
-0.015209
-0.015552
-0.015829
-0.016054
-0.016234
-0.016379
-0.016494
-0.016582
-0.016646
-0.016687
-0.016702
-0.016691
-0.016649
-0.016573
-0.016456
-0.016293
-0.016078
-0.015803
-0.015461
-0.015046
-0.014552
-0.013974
-0.013308
-0.012551
-0.011704
-0.010781
-0.009791
-0.008749
-0.007678
-0.006601
-0.005550
-0.004559
-0.003664
-0.002901
-0.002306
-0.001908
-0.001728
-0.001780
-0.002063
-0.002569
-0.003273
-0.004145
-0.005147
-0.006238
-0.007379
-0.008532
-0.013956
-0.014725
-0.015371
-0.015906
-0.016346
-0.016707
-0.017002
-0.017245
-0.017447
-0.017614
-0.017754
-0.017870
-0.017966
-0.018041
-0.018095
-0.018124
-0.018126
-0.018096
-0.018026
-0.017912
-0.017744
-0.017515
-0.017215
-0.016837
-0.016373
-0.015814
-0.015155
-0.014393
-0.013518
-0.012545
-0.011483
-0.010346
-0.009154
-0.007935
-0.006721
-0.005552
-0.004471
-0.003522
-0.002747
-0.002186
-0.001870
-0.001819
-0.002039
-0.002524
-0.003251
-0.004185
-0.005284
-0.006499
-0.007785
-0.009099
-0.015136
-0.015933
-0.016603
-0.017159
-0.017618
-0.017997
-0.018311
-0.018574
-0.018798
-0.018990
-0.019158
-0.019306
-0.019437
-0.019552
-0.019650
-0.019727
-0.019781
-0.019805
-0.019794
-0.019739
-0.019632
-0.019462
-0.019220
-0.018894
-0.018474
-0.017951
-0.017315
-0.016561
-0.015670
-0.014657
-0.013529
-0.012296
-0.010979
-0.009605
-0.008210
-0.006838
-0.005539
-0.004364
-0.003368
-0.002601
-0.002106
-0.001912
-0.002034
-0.002471
-0.003202
-0.004189
-0.005385
-0.006734
-0.008180
-0.009674
-0.016457
-0.017282
-0.017974
-0.018551
-0.019030
-0.019428
-0.019761
-0.020045
-0.020292
-0.020511
-0.020709
-0.020893
-0.021064
-0.021223
-0.021371
-0.021504
-0.021618
-0.021707
-0.021765
-0.021782
-0.021749
-0.021655
-0.021486
-0.021231
-0.020875
-0.020405
-0.019810
-0.019078
-0.018191
-0.017154
-0.015969
-0.014645
-0.013201
-0.011664
-0.010071
-0.008471
-0.006920
-0.005479
-0.004216
-0.003192
-0.002465
-0.002079
-0.002060
-0.002414
-0.003122
-0.004148
-0.005437
-0.006925
-0.008547
-0.010244
-0.017924
-0.018775
-0.019491
-0.020088
-0.020586
-0.021003
-0.021356
-0.021661
-0.021932
-0.022180
-0.022411
-0.022632
-0.022847
-0.023056
-0.023259
-0.023454
-0.023637
-0.023802
-0.023940
-0.024044
-0.024100
-0.024098
-0.024022
-0.023856
-0.023584
-0.023190
-0.022656
-0.021969
-0.021109
-0.020065
-0.018838
-0.017433
-0.015865
-0.014160
-0.012356
-0.010504
-0.008668
-0.006919
-0.005337
-0.004000
-0.002983
-0.002346
-0.002131
-0.002355
-0.003007
-0.004050
-0.005424
-0.007055
-0.008866
-0.010788
-0.019540
-0.020417
-0.021156
-0.021774
-0.022291
-0.022726
-0.023099
-0.023426
-0.023722
-0.023998
-0.024263
-0.024524
-0.024785
-0.025048
-0.025312
-0.025576
-0.025836
-0.026085
-0.026316
-0.026519
-0.026681
-0.026788
-0.026824
-0.026769
-0.026605
-0.026311
-0.025864
-0.025246
-0.024437
-0.023410
-0.022162
-0.020691
-0.019009
-0.017136
-0.015112
-0.012989
-0.010836
-0.008736
-0.006781
-0.005069
-0.003693
-0.002736
-0.002260
-0.002297
-0.002848
-0.003877
-0.005321
-0.007095
-0.009109
-0.011280
-0.021309
-0.022213
-0.022975
-0.023613
-0.024149
-0.024602
-0.024993
-0.025341
-0.025661
-0.025965
-0.026264
-0.026565
-0.026874
-0.027193
-0.027523
-0.027861
-0.028205
-0.028548
-0.028883
-0.029198
-0.029481
-0.029715
-0.029882
-0.029962
-0.029929
-0.029760
-0.029428
-0.028908
-0.028177
-0.027194
-0.025951
-0.024437
-0.022655
-0.020623
-0.018375
-0.015966
-0.013469
-0.010976
-0.008595
-0.006441
-0.004633
-0.003277
-0.002463
-0.002243
-0.002635
-0.003609
-0.005099
-0.007011
-0.009238
-0.011684
-0.023234
-0.024165
-0.024951
-0.025610
-0.026163
-0.026633
-0.027041
-0.027407
-0.027748
-0.028079
-0.028410
-0.028751
-0.029107
-0.029483
-0.029879
-0.030296
-0.030729
-0.031174
-0.031621
-0.032061
-0.032478
-0.032857
-0.033176
-0.033411
-0.033535
-0.033518
-0.033329
-0.032936
-0.032307
-0.031406
-0.030199
-0.028669
-0.026810
-0.024632
-0.022166
-0.019463
-0.016601
-0.013678
-0.010817
-0.008154
-0.005834
-0.003993
-0.002751
-0.002192
-0.002352
-0.003218
-0.004722
-0.006760
-0.009208
-0.011951
-0.025318
-0.026278
-0.027089
-0.027769
-0.028339
-0.028823
-0.029245
-0.029625
-0.029983
-0.030335
-0.030694
-0.031070
-0.031471
-0.031902
-0.032366
-0.032862
-0.033387
-0.033938
-0.034506
-0.035080
-0.035645
-0.036183
-0.036671
-0.037082
-0.037386
-0.037548
-0.037531
-0.037296
-0.036802
-0.036012
-0.034877
-0.033363
-0.031455
-0.029153
-0.026481
-0.023486
-0.020244
-0.016862
-0.013473
-0.010235
-0.007320
-0.004900
-0.003131
-0.002135
-0.001979
-0.002668
-0.004141
-0.006284
-0.008957
-0.012020
-0.027564
-0.028556
-0.029395
-0.030095
-0.030681
-0.031176
-0.031605
-0.031993
-0.032361
-0.032727
-0.033106
-0.033511
-0.033951
-0.034433
-0.034959
-0.035533
-0.036152
-0.036811
-0.037504
-0.038218
-0.038940
-0.039649
-0.040321
-0.040928
-0.041433
-0.041798
-0.041980
-0.041932
-0.041607
-0.040957
-0.039930
-0.038468
-0.036544
-0.034148
-0.031290
-0.028013
-0.024388
-0.020524
-0.016566
-0.012692
-0.009101
-0.006004
-0.003601
-0.002058
-0.001484
-0.001913
-0.003296
-0.005515
-0.008408
-0.011813
-0.029976
-0.031007
-0.031875
-0.032597
-0.033195
-0.033695
-0.034125
-0.034511
-0.034877
-0.035246
-0.035634
-0.036057
-0.036526
-0.037050
-0.037633
-0.038278
-0.038986
-0.039753
-0.040571
-0.041430
-0.042314
-0.043203
-0.044071
-0.044886
-0.045610
-0.046199
-0.046604
-0.046771
-0.046642
-0.046163
-0.045278
-0.043906
-0.042002
-0.039544
-0.036529
-0.032988
-0.028986
-0.024631
-0.020074
-0.015509
-0.011165
-0.007293
-0.004141
-0.001931
-0.000822
-0.000890
-0.002110
-0.004361
-0.007465
-0.011231
-0.032560
-0.033638
-0.034541
-0.035283
-0.035889
-0.036386
-0.036804
-0.037175
-0.037525
-0.037881
-0.038262
-0.038688
-0.039172
-0.039724
-0.040352
-0.041060
-0.041850
-0.042718
-0.043658
-0.044660
-0.045707
-0.046780
-0.047850
-0.048884
-0.049839
-0.050668
-0.051314
-0.051717
-0.051811
-0.051525
-0.050814
-0.049567
-0.047721
-0.045238
-0.042099
-0.038320
-0.033957
-0.029111
-0.023936
-0.018638
-0.013473
-0.008730
-0.004713
-0.001705
0.000068
0.000479
-0.000485
-0.002713
-0.006008
-0.010150
-0.035325
-0.036460
-0.037403
-0.038167
-0.038774
-0.039256
-0.039648
-0.039983
-0.040297
-0.040618
-0.040971
-0.041379
-0.041858
-0.042421
-0.043078
-0.043835
-0.044694
-0.045653
-0.046708
-0.047847
-0.049055
-0.050310
-0.051583
-0.052838
-0.054031
-0.055108
-0.056008
-0.056664
-0.056999
-0.056937
-0.056404
-0.055317
-0.053564
-0.051090
-0.047862
-0.043878
-0.039177
-0.033852
-0.028052
-0.021992
-0.015947
-0.010247
-0.005250
-0.001308
0.001274
0.002298
0.001700
-0.000431
-0.003887
-0.008416
-0.038282
-0.039491
-0.040483
-0.041266
-0.041865
-0.042316
-0.042658
-0.042934
-0.043182
-0.043440
-0.043737
-0.044101
-0.044550
-0.045101
-0.045767
-0.046554
-0.047466
-0.048503
-0.049659
-0.050925
-0.052285
-0.053715
-0.055187
-0.056661
-0.058089
-0.059416
-0.060574
-0.061488
-0.062076
-0.062247
-0.061914
-0.061005
-0.059370
-0.056936
-0.053650
-0.049492
-0.044483
-0.038699
-0.032279
-0.025440
-0.018471
-0.011735
-0.005647
-0.000634
0.002911
0.004700
0.004597
0.002654
-0.000919
-0.005839
-0.041451
-0.042755
-0.043804
-0.044605
-0.045182
-0.045578
-0.045841
-0.046022
-0.046170
-0.046328
-0.046535
-0.046820
-0.047209
-0.047721
-0.048369
-0.049164
-0.050109
-0.051205
-0.052447
-0.053825
-0.055323
-0.056917
-0.058576
-0.060259
-0.061916
-0.063485
-0.064896
-0.066066
-0.066905
-0.067312
-0.067184
-0.066461
-0.064958
-0.062585
-0.059268
-0.054965
-0.049675
-0.043455
-0.036428
-0.028803
-0.020878
-0.013042
-0.005760
0.000462
0.005132
0.007853
0.008397
0.006753
0.003121
-0.002188
-0.044859
-0.046288
-0.047407
-0.048218
-0.048753
-0.049062
-0.049205
-0.049246
-0.049247
-0.049260
-0.049332
-0.049499
-0.049791
-0.050230
-0.050833
-0.051608
-0.052563
-0.053696
-0.055005
-0.056477
-0.058096
-0.059837
-0.061668
-0.063544
-0.065413
-0.067211
-0.068861
-0.070274
-0.071352
-0.071986
-0.072058
-0.071510
-0.070142
-0.067837
-0.064502
-0.060073
-0.054524
-0.047889
-0.040270
-0.031861
-0.022958
-0.013966
-0.005396
0.002169
0.008132
0.011970
0.013333
0.012123
0.008508
0.002820
-0.048550
-0.050140
-0.051342
-0.052155
-0.052616
-0.052792
-0.052760
-0.052603
-0.052397
-0.052208
-0.052093
-0.052095
-0.052249
-0.052578
-0.053101
-0.053829
-0.054767
-0.055916
-0.057269
-0.058815
-0.060535
-0.062403
-0.064385
-0.066434
-0.068494
-0.070498
-0.072363
-0.073997
-0.075293
-0.076136
-0.076400
-0.075975
-0.074736
-0.072494
-0.069139
-0.064586
-0.058788
-0.051749
-0.043549
-0.034357
-0.024457
-0.014263
-0.004317
0.004726
0.012158
0.017314
0.019693
0.019079
0.015578
0.009530
-0.052584
-0.054387
-0.055686
-0.056481
-0.056822
-0.056800
-0.056519
-0.056086
-0.055599
-0.055141
-0.054777
-0.054560
-0.054528
-0.054708
-0.055118
-0.055769
-0.056664
-0.057803
-0.059179
-0.060777
-0.062577
-0.064550
-0.066659
-0.068856
-0.071081
-0.073262
-0.075313
-0.077135
-0.078616
-0.079633
-0.080050
-0.079730
-0.078581
-0.076371
-0.072974
-0.068282
-0.062223
-0.054777
-0.045992
-0.036010
-0.025091
-0.013645
-0.002234
0.008424
0.017511
0.024206
0.027830
0.028006
0.024740
0.018359
-0.057057
-0.059138
-0.060547
-0.061288
-0.061439
-0.061127
-0.060497
-0.059689
-0.058829
-0.058018
-0.057335
-0.056840
-0.056573
-0.056562
-0.056824
-0.057368
-0.058196
-0.059304
-0.060680
-0.062310
-0.064169
-0.066224
-0.068435
-0.070752
-0.073112
-0.075437
-0.077637
-0.079608
-0.081233
-0.082378
-0.082902
-0.082652
-0.081538
-0.079313
-0.075832
-0.070962
-0.064607
-0.056727
-0.047336
-0.036535
-0.024562
-0.011802
0.001172
0.013596
0.024546
0.033033
0.038171
0.039373
0.036498
0.029823
-0.062110
-0.064554
-0.066078
-0.066703
-0.066556
-0.065824
-0.064708
-0.063397
-0.062049
-0.060789
-0.059708
-0.058871
-0.058318
-0.058077
-0.058160
-0.058573
-0.059311
-0.060368
-0.061728
-0.063370
-0.065269
-0.067385
-0.069672
-0.072082
-0.074546
-0.076979
-0.079287
-0.081362
-0.083081
-0.084303
-0.084877
-0.084641
-0.083499
-0.081199
-0.077578
-0.072473
-0.065757
-0.057391
-0.047350
-0.035675
-0.022584
-0.008426
0.006237
0.020609
0.033668
0.044252
0.051232
0.053758
0.051477
0.044558
-0.067959
-0.070874
-0.072499
-0.072898
-0.072286
-0.070945
-0.069161
-0.067182
-0.065210
-0.063390
-0.061825
-0.060581
-0.059695
-0.059188
-0.059066
-0.059328
-0.059962
-0.060956
-0.062283
-0.063925
-0.065852
-0.068009
-0.070367
-0.072851
-0.075391
-0.077900
-0.080279
-0.082412
-0.084169
-0.085403
-0.085954
-0.085650
-0.084382
-0.081897
-0.078025
-0.072620
-0.065538
-0.056620
-0.045882
-0.033220
-0.018922
-0.003241
0.013278
0.029833
0.045316
0.058384
0.067631
0.071876
0.070463
0.063373
-0.074940
-0.078461
-0.080126
-0.080106
-0.078769
-0.076548
-0.073847
-0.070994
-0.068234
-0.065733
-0.063596
-0.061883
-0.060623
-0.059825
-0.059482
-0.059584
-0.060103
-0.061038
-0.062330
-0.063974
-0.065917
-0.068115
-0.070515
-0.073049
-0.075640
-0.078195
-0.080609
-0.082759
-0.084507
-0.085700
-0.086171
-0.085738
-0.084262
-0.081509
-0.077289
-0.071428
-0.063767
-0.054173
-0.042593
-0.029024
-0.013445
0.003945
0.022543
0.041596
0.059923
0.076002
0.088102
0.094620
0.094474
0.087320
-0.083590
-0.087869
-0.089419
-0.088634
-0.086162
-0.082669
-0.078721
-0.074738
-0.071003
-0.067693
-0.064901
-0.062672
-0.061012
-0.059913
-0.059345
-0.059297
-0.059718
-0.060588
-0.061859
-0.063498
-0.065457
-0.067684
-0.070118
-0.072687
-0.075307
-0.077881
-0.080296
-0.082424
-0.084121
-0.085226
-0.085563
-0.084944
-0.083181
-0.080087
-0.075437
-0.069038
-0.060712
-0.050305
-0.037710
-0.022871
-0.005808
0.013264
0.034127
0.056113
0.077852
0.097681
0.113490
0.123117
0.124861
0.117837
-0.094796
-0.099968
-0.101033
-0.098870
-0.094615
-0.089290
-0.083663
-0.078244
-0.073335
-0.069096
-0.065585
-0.062816
-0.060749
-0.059370
-0.058606
-0.058420
-0.058762
-0.059588
-0.060848
-0.062496
-0.064477
-0.066732
-0.069195
-0.071788
-0.074421
-0.076992
-0.079381
-0.081456
-0.083064
-0.084037
-0.084194
-0.083334
-0.081247
-0.077746
-0.072601
-0.065600
-0.056535
-0.045222
-0.031505
-0.015272
0.003517
0.024774
0.048239
0.073396
0.099276
0.123903
0.144717
0.158790
0.163485
0.156989
-0.110086
-0.116147
-0.115896
-0.111252
-0.104197
-0.096255
-0.088407
-0.081217
-0.074944
-0.069696
-0.065436
-0.062157
-0.059729
-0.058097
-0.057178
-0.056902
-0.057203
-0.058021
-0.059297
-0.060974
-0.062992
-0.065284
-0.067778
-0.070390
-0.073027
-0.075580
-0.077924
-0.079922
-0.081415
-0.082229
-0.082174
-0.081040
-0.078602
-0.074660
-0.068991
-0.061356
-0.051521
-0.039260
-0.024363
-0.006647
0.014021
0.037692
0.064265
0.093359
0.124063
0.154862
0.182651
0.203407
0.212990
0.207933
-0.132242
-0.138646
-0.135234
-0.126137
-0.114722
-0.103120
-0.092431
-0.083168
-0.075396
-0.069161
-0.064217
-0.060477
-0.057775
-0.055983
-0.054989
-0.054695
-0.055016
-0.055878
-0.057212
-0.058951
-0.061030
-0.063375
-0.065909
-0.068545
-0.071185
-0.073714
-0.076007
-0.077918
-0.079286
-0.079932
-0.079657
-0.078245
-0.075448
-0.071077
-0.064901
-0.056657
-0.046080
-0.032901
-0.016850
0.002342
0.024932
0.051141
0.081107
0.114762
0.151586
0.190190
0.227777
0.258999
0.277203
0.275796
-0.166631
-0.171055
-0.160419
-0.143424
-0.125377
-0.108897
-0.094779
-0.083343
-0.074147
-0.067005
-0.061556
-0.057540
-0.054722
-0.052915
-0.051969
-0.051759
-0.052185
-0.053160
-0.054607
-0.056453
-0.058625
-0.061049
-0.063644
-0.066318
-0.068971
-0.071487
-0.073735
-0.075569
-0.076824
-0.077316
-0.076844
-0.075188
-0.072064
-0.067330
-0.060722
-0.051959
-0.040748
-0.026776
-0.009709
0.010815
0.035193
0.063861
0.097276
0.135847
0.179735
0.228369
0.279444
0.327357
0.361591
0.369305
-0.224306
-0.218747
-0.192102
-0.161589
-0.134013
-0.111706
-0.094060
-0.080566
-0.070329
-0.062685
-0.057080
-0.053096
-0.050416
-0.048800
-0.048067
-0.048075
-0.048712
-0.049884
-0.051510
-0.053516
-0.055826
-0.058365
-0.061050
-0.063789
-0.066481
-0.069010
-0.071243
-0.073034
-0.074215
-0.074603
-0.073990
-0.072155
-0.068816
-0.063835
-0.056935
-0.047818
-0.036167
-0.021633
-0.003823
0.017714
0.043519
0.074256
0.110758
0.154053
0.205323
0.265587
0.334648
0.408305
0.473210
0.503839
-0.329253
-0.287762
-0.227246
-0.175680
-0.136493
-0.108211
-0.087932
-0.073432
-0.063052
-0.055661
-0.050480
-0.046974
-0.044770
-0.043603
-0.043280
-0.043658
-0.044623
-0.046086
-0.047966
-0.050191
-0.052690
-0.055389
-0.058206
-0.061054
-0.063829
-0.066419
-0.068692
-0.070503
-0.071686
-0.072055
-0.071405
-0.069508
-0.066119
-0.061070
-0.054080
-0.044846
-0.033036
-0.018275
-0.000130
0.021921
0.048532
0.080567
0.119212
0.166152
0.223807
0.295551
0.385470
0.495929
0.617897
0.707323
-0.533310
-0.375255
-0.252130
-0.173497
-0.124680
-0.093913
-0.073956
-0.060688
-0.051730
-0.045680
-0.041679
-0.039183
-0.037833
-0.037388
-0.037677
-0.038574
-0.039983
-0.041825
-0.044032
-0.046540
-0.049285
-0.052198
-0.055203
-0.058216
-0.061140
-0.063864
-0.066262
-0.068190
-0.069485
-0.069966
-0.069430
-0.067638
-0.064411
-0.059521
-0.052697
-0.043640
-0.032016
-0.017443
0.000527
0.022443
0.049012
0.081198
0.120398
0.168761
0.229774
0.309341
0.417604
0.570900
0.786697
1.032318
-0.934387
-0.424506
-0.222344
-0.133668
-0.089629
-0.065436
-0.051117
-0.042224
-0.036583
-0.033049
-0.030978
-0.029983
-0.029820
-0.030329
-0.031394
-0.032932
-0.034878
-0.037177
-0.039776
-0.042627
-0.045676
-0.048864
-0.052124
-0.055377
-0.058535
-0.061491
-0.064125
-0.066298
-0.067852
-0.068609
-0.068369
-0.066925
-0.064077
-0.059596
-0.053223
-0.044669
-0.033608
-0.019672
-0.002431
0.018636
0.044195
0.075151
0.112824
0.159300
0.218208
0.296552
0.409287
0.590444
0.916388
1.549445
