# vtk DataFile Version 3.0
Vector Field
ASCII
DATASET RECTILINEAR_GRID
DIMENSIONS 50 50 1
X_COORDINATES 50 double
0.100000 0.300000 0.500000 0.700000 0.900000 1.100000 1.300000 1.500000 1.700000 1.900000 2.100000 2.300000 2.500000 2.700000 2.900000 3.100000 3.300000 3.500000 3.700000 3.900000 4.100000 4.300000 4.500000 4.700000 4.900000 5.100000 5.300000 5.500000 5.700000 5.900000 6.100000 6.300000 6.500000 6.700000 6.900000 7.100000 7.300000 7.500000 7.700000 7.900000 8.100000 8.300000 8.500000 8.700000 8.900000 9.100000 9.300000 9.500000 9.700000 9.900000 
Y_COORDINATES 50 double
0.100000 0.300000 0.500000 0.700000 0.900000 1.100000 1.300000 1.500000 1.700000 1.900000 2.100000 2.300000 2.500000 2.700000 2.900000 3.100000 3.300000 3.500000 3.700000 3.900000 4.100000 4.300000 4.500000 4.700000 4.900000 5.100000 5.300000 5.500000 5.700000 5.900000 6.100000 6.300000 6.500000 6.700000 6.900000 7.100000 7.300000 7.500000 7.700000 7.900000 8.100000 8.300000 8.500000 8.700000 8.900000 9.100000 9.300000 9.500000 9.700000 9.900000 
Z_COORDINATES 1 double
0.0
POINT_DATA 2500
VECTORS Vektorfeld double
0.000020 -0.000020 0.0
0.000052 -0.000012 0.0
0.000050 0.000015 0.0
-0.000013 0.000048 0.0
-0.000139 0.000079 0.0
-0.000324 0.000106 0.0
-0.000558 0.000128 0.0
-0.000832 0.000146 0.0
-0.001138 0.000160 0.0
-0.001467 0.000169 0.0
-0.001812 0.000175 0.0
-0.002166 0.000178 0.0
-0.002523 0.000179 0.0
-0.002879 0.000177 0.0
-0.003228 0.000172 0.0
-0.003566 0.000166 0.0
-0.003889 0.000158 0.0
-0.004194 0.000147 0.0
-0.004476 0.000135 0.0
-0.004732 0.000121 0.0
-0.004959 0.000105 0.0
-0.005152 0.000088 0.0
-0.005309 0.000069 0.0
-0.005425 0.000048 0.0
-0.005499 0.000026 0.0
-0.005527 0.000002 0.0
-0.005507 -0.000022 0.0
-0.005438 -0.000047 0.0
-0.005320 -0.000072 0.0
-0.005151 -0.000097 0.0
-0.004934 -0.000120 0.0
-0.004672 -0.000142 0.0
-0.004367 -0.000163 0.0
-0.004024 -0.000180 0.0
-0.003650 -0.000194 0.0
-0.003252 -0.000204 0.0
-0.002838 -0.000210 0.0
-0.002417 -0.000211 0.0
-0.001999 -0.000207 0.0
-0.001594 -0.000198 0.0
-0.001212 -0.000184 0.0
-0.000864 -0.000165 0.0
-0.000558 -0.000141 0.0
-0.000303 -0.000114 0.0
-0.000107 -0.000083 0.0
0.000027 -0.000051 0.0
0.000096 -0.000019 0.0
0.000106 0.000009 0.0
0.000069 0.000027 0.0
0.000021 0.000021 0.0
0.000013 -0.000053 0.0
0.000002 -0.000001 0.0
-0.000108 0.000117 0.0
-0.000356 0.000256 0.0
-0.000750 0.000390 0.0
-0.001282 0.000510 0.0
-0.001936 0.000611 0.0
-0.002691 0.000693 0.0
-0.003527 0.000755 0.0
-0.004424 0.000800 0.0
-0.005363 0.000829 0.0
-0.006327 0.000843 0.0
-0.007300 0.000845 0.0
-0.008268 0.000835 0.0
-0.009219 0.000814 0.0
-0.010139 0.000783 0.0
-0.011018 0.000743 0.0
-0.011844 0.000693 0.0
-0.012608 0.000635 0.0
-0.013300 0.000568 0.0
-0.013908 0.000493 0.0
-0.014425 0.000410 0.0
-0.014840 0.000319 0.0
-0.015147 0.000221 0.0
-0.015336 0.000116 0.0
-0.015402 0.000006 0.0
-0.015340 -0.000108 0.0
-0.015146 -0.000224 0.0
-0.014819 -0.000340 0.0
-0.014361 -0.000455 0.0
-0.013775 -0.000565 0.0
-0.013068 -0.000668 0.0
-0.012250 -0.000761 0.0
-0.011334 -0.000841 0.0
-0.010335 -0.000906 0.0
-0.009273 -0.000953 0.0
-0.008168 -0.000980 0.0
-0.007045 -0.000985 0.0
-0.005928 -0.000968 0.0
-0.004843 -0.000927 0.0
-0.003815 -0.000864 0.0
-0.002870 -0.000778 0.0
-0.002032 -0.000672 0.0
-0.001319 -0.000550 0.0
-0.000748 -0.000414 0.0
-0.000330 -0.000272 0.0
-0.000064 -0.000132 0.0
0.000059 -0.000010 0.0
0.000071 0.000071 0.0
0.000027 0.000070 0.0
-0.000015 -0.000051 0.0
-0.000117 0.000110 0.0
-0.000389 0.000389 0.0
-0.000861 0.000705 0.0
-0.001539 0.001013 0.0
-0.002411 0.001292 0.0
-0.003457 0.001529 0.0
-0.004648 0.001722 0.0
-0.005958 0.001871 0.0
-0.007357 0.001980 0.0
-0.008818 0.002049 0.0
-0.010317 0.002084 0.0
-0.011828 0.002088 0.0
-0.013330 0.002062 0.0
-0.014804 0.002010 0.0
-0.016230 0.001933 0.0
-0.017590 0.001832 0.0
-0.018868 0.001708 0.0
-0.020047 0.001563 0.0
-0.021112 0.001396 0.0
-0.022047 0.001209 0.0
-0.022839 0.001002 0.0
-0.023473 0.000776 0.0
-0.023937 0.000534 0.0
-0.024220 0.000276 0.0
-0.024314 0.000006 0.0
-0.024210 -0.000273 0.0
-0.023905 -0.000557 0.0
-0.023397 -0.000841 0.0
-0.022688 -0.001120 0.0
-0.021786 -0.001388 0.0
-0.020700 -0.001638 0.0
-0.019445 -0.001863 0.0
-0.018041 -0.002058 0.0
-0.016512 -0.002216 0.0
-0.014887 -0.002331 0.0
-0.013195 -0.002398 0.0
-0.011474 -0.002413 0.0
-0.009758 -0.002373 0.0
-0.008087 -0.002278 0.0
-0.006498 -0.002129 0.0
-0.005027 -0.001928 0.0
-0.003709 -0.001680 0.0
-0.002571 -0.001392 0.0
-0.001637 -0.001076 0.0
-0.000920 -0.000746 0.0
-0.000421 -0.000423 0.0
-0.000126 -0.000138 0.0
-0.000002 0.000063 0.0
0.000011 0.000108 0.0
-0.000048 0.000012 0.0
-0.000261 0.000362 0.0
-0.000719 0.000866 0.0
-0.001436 0.001416 0.0
-0.002407 0.001951 0.0
-0.003616 0.002435 0.0
-0.005036 0.002851 0.0
-0.006635 0.003191 0.0
-0.008378 0.003456 0.0
-0.010231 0.003648 0.0
-0.012161 0.003772 0.0
-0.014135 0.003834 0.0
-0.016124 0.003838 0.0
-0.018100 0.003790 0.0
-0.020035 0.003692 0.0
-0.021906 0.003548 0.0
-0.023690 0.003361 0.0
-0.025363 0.003131 0.0
-0.026905 0.002862 0.0
-0.028296 0.002553 0.0
-0.029516 0.002207 0.0
-0.030546 0.001825 0.0
-0.031369 0.001410 0.0
-0.031970 0.000965 0.0
-0.032334 0.000493 0.0
-0.032451 -0.000001 0.0
-0.032311 -0.000510 0.0
-0.031909 -0.001027 0.0
-0.031244 -0.001544 0.0
-0.030320 -0.002050 0.0
-0.029144 -0.002536 0.0
-0.027731 -0.002989 0.0
-0.026100 -0.003398 0.0
-0.024276 -0.003752 0.0
-0.022288 -0.004039 0.0
-0.020173 -0.004249 0.0
-0.017972 -0.004373 0.0
-0.015726 -0.004404 0.0
-0.013484 -0.004339 0.0
-0.011293 -0.004175 0.0
-0.009200 -0.003914 0.0
-0.007251 -0.003562 0.0
-0.005487 -0.003127 0.0
-0.003946 -0.002624 0.0
-0.002654 -0.002071 0.0
-0.001629 -0.001494 0.0
-0.000875 -0.000928 0.0
-0.000379 -0.000423 0.0
-0.000109 -0.000046 0.0
-0.000013 0.000106 0.0
-0.000082 0.000142 0.0
-0.000409 0.000772 0.0
-0.001060 0.001565 0.0
-0.002029 0.002402 0.0
-0.003296 0.003205 0.0
-0.004837 0.003931 0.0
-0.006619 0.004556 0.0
-0.008603 0.005069 0.0
-0.010751 0.005469 0.0
-0.013024 0.005760 0.0
-0.015382 0.005948 0.0
-0.017788 0.006039 0.0
-0.020208 0.006042 0.0
-0.022609 0.005962 0.0
-0.024958 0.005805 0.0
-0.027228 0.005576 0.0
-0.029390 0.005278 0.0
-0.031416 0.004914 0.0
-0.033283 0.004487 0.0
-0.034965 0.004000 0.0
-0.036439 0.003454 0.0
-0.037683 0.002853 0.0
-0.038677 0.002200 0.0
-0.039402 0.001501 0.0
-0.039841 0.000761 0.0
-0.039982 -0.000012 0.0
-0.039814 -0.000807 0.0
-0.039332 -0.001615 0.0
-0.038534 -0.002420 0.0
-0.037423 -0.003209 0.0
-0.036011 -0.003965 0.0
-0.034314 -0.004671 0.0
-0.032353 -0.005308 0.0
-0.030158 -0.005861 0.0
-0.027766 -0.006310 0.0
-0.025216 -0.006641 0.0
-0.022557 -0.006841 0.0
-0.019841 -0.006898 0.0
-0.017120 -0.006808 0.0
-0.014452 -0.006566 0.0
-0.011892 -0.006177 0.0
-0.009494 -0.005647 0.0
-0.007307 -0.004992 0.0
-0.005373 -0.004234 0.0
-0.003727 -0.003399 0.0
-0.002389 -0.002528 0.0
-0.001367 -0.001670 0.0
-0.000654 -0.000890 0.0
-0.000226 -0.000277 0.0
-0.000039 0.000054 0.0
-0.000114 0.000338 0.0
-0.000551 0.001341 0.0
-0.001394 0.002491 0.0
-0.002612 0.003663 0.0
-0.004173 0.004773 0.0
-0.006040 0.005771 0.0
-0.008171 0.006629 0.0
-0.010525 0.007334 0.0
-0.013056 0.007884 0.0
-0.015721 0.008283 0.0
-0.018477 0.008539 0.0
-0.021283 0.008661 0.0
-0.024099 0.008657 0.0
-0.026889 0.008537 0.0
-0.029617 0.008308 0.0
-0.032250 0.007976 0.0
-0.034756 0.007546 0.0
-0.037106 0.007022 0.0
-0.039269 0.006409 0.0
-0.041218 0.005710 0.0
-0.042927 0.004927 0.0
-0.044370 0.004067 0.0
-0.045525 0.003134 0.0
-0.046369 0.002136 0.0
-0.046885 0.001081 0.0
-0.047057 -0.000019 0.0
-0.046874 -0.001151 0.0
-0.046329 -0.002299 0.0
-0.045420 -0.003443 0.0
-0.044151 -0.004564 0.0
-0.042534 -0.005638 0.0
-0.040587 -0.006642 0.0
-0.038333 -0.007551 0.0
-0.035807 -0.008339 0.0
-0.033047 -0.008984 0.0
-0.030101 -0.009463 0.0
-0.027022 -0.009757 0.0
-0.023867 -0.009854 0.0
-0.020698 -0.009742 0.0
-0.017579 -0.009419 0.0
-0.014573 -0.008890 0.0
-0.011741 -0.008164 0.0
-0.009139 -0.007264 0.0
-0.006818 -0.006217 0.0
-0.004816 -0.005064 0.0
-0.003161 -0.003856 0.0
-0.001867 -0.002657 0.0
-0.000932 -0.001550 0.0
-0.000341 -0.000637 0.0
-0.000064 -0.000049 0.0
-0.000143 0.000595 0.0
-0.000686 0.002064 0.0
-0.001713 0.003638 0.0
-0.003175 0.005195 0.0
-0.005021 0.006648 0.0
-0.007204 0.007945 0.0
-0.009675 0.009056 0.0
-0.012384 0.009968 0.0
-0.015281 0.010678 0.0
-0.018319 0.011191 0.0
-0.021450 0.011518 0.0
-0.024631 0.011668 0.0
-0.027817 0.011653 0.0
-0.030970 0.011484 0.0
-0.034051 0.011170 0.0
-0.037022 0.010719 0.0
-0.039850 0.010137 0.0
-0.042502 0.009431 0.0
-0.044944 0.008605 0.0
-0.047146 0.007665 0.0
-0.049079 0.006614 0.0
-0.050715 0.005460 0.0
-0.052029 0.004209 0.0
-0.052996 0.002872 0.0
-0.053596 0.001460 0.0
-0.053811 -0.000011 0.0
-0.053629 -0.001524 0.0
-0.053041 -0.003058 0.0
-0.052045 -0.004589 0.0
-0.050644 -0.006088 0.0
-0.048850 -0.007526 0.0
-0.046681 -0.008871 0.0
-0.044165 -0.010092 0.0
-0.041335 -0.011154 0.0
-0.038237 -0.012027 0.0
-0.034920 -0.012682 0.0
-0.031442 -0.013095 0.0
-0.027868 -0.013245 0.0
-0.024266 -0.013121 0.0
-0.020706 -0.012719 0.0
-0.017260 -0.012042 0.0
-0.013997 -0.011107 0.0
-0.010981 -0.009939 0.0
-0.008268 -0.008576 0.0
-0.005907 -0.007069 0.0
-0.003931 -0.005482 0.0
-0.002361 -0.003895 0.0
-0.001204 -0.002403 0.0
-0.000452 -0.001126 0.0
-0.000088 -0.000201 0.0
-0.000171 0.000909 0.0
-0.000812 0.002933 0.0
-0.002015 0.004999 0.0
-0.003711 0.006990 0.0
-0.005834 0.008823 0.0
-0.008324 0.010445 0.0
-0.011124 0.011827 0.0
-0.014176 0.012958 0.0
-0.017425 0.013835 0.0
-0.020820 0.014467 0.0
-0.024310 0.014864 0.0
-0.027846 0.015039 0.0
-0.031385 0.015007 0.0
-0.034882 0.014780 0.0
-0.038297 0.014369 0.0
-0.041591 0.013785 0.0
-0.044726 0.013035 0.0
-0.047667 0.012126 0.0
-0.050379 0.011065 0.0
-0.052829 0.009857 0.0
-0.054984 0.008510 0.0
-0.056815 0.007031 0.0
-0.058293 0.005430 0.0
-0.059392 0.003718 0.0
-0.060089 0.001912 0.0
-0.060365 0.000029 0.0
-0.060204 -0.001908 0.0
-0.059596 -0.003871 0.0
-0.058537 -0.005831 0.0
-0.057030 -0.007753 0.0
-0.055085 -0.009599 0.0
-0.052721 -0.011330 0.0
-0.049966 -0.012904 0.0
-0.046857 -0.014280 0.0
-0.043438 -0.015418 0.0
-0.039765 -0.016281 0.0
-0.035901 -0.016838 0.0
-0.031915 -0.017062 0.0
-0.027882 -0.016939 0.0
-0.023881 -0.016462 0.0
-0.019990 -0.015636 0.0
-0.016288 -0.014479 0.0
-0.012848 -0.013024 0.0
-0.009734 -0.011317 0.0
-0.007003 -0.009421 0.0
-0.004698 -0.007412 0.0
-0.002848 -0.005385 0.0
-0.001467 -0.003451 0.0
-0.000558 -0.001739 0.0
-0.000110 -0.000400 0.0
-0.000197 0.001277 0.0
-0.000931 0.003941 0.0
-0.002301 0.006565 0.0
-0.004220 0.009039 0.0
-0.006610 0.011286 0.0
-0.009397 0.013259 0.0
-0.012515 0.014930 0.0
-0.015900 0.016291 0.0
-0.019490 0.017342 0.0
-0.023230 0.018094 0.0
-0.027065 0.018561 0.0
-0.030946 0.018759 0.0
-0.034823 0.018703 0.0
-0.038653 0.018410 0.0
-0.042391 0.017892 0.0
-0.045998 0.017162 0.0
-0.049433 0.016228 0.0
-0.052659 0.015099 0.0
-0.055638 0.013783 0.0
-0.058337 0.012287 0.0
-0.060719 0.010619 0.0
-0.062754 0.008788 0.0
-0.064409 0.006806 0.0
-0.065656 0.004688 0.0
-0.066470 0.002452 0.0
-0.066828 0.000122 0.0
-0.066712 -0.002277 0.0
-0.066110 -0.004712 0.0
-0.065016 -0.007144 0.0
-0.063429 -0.009533 0.0
-0.061360 -0.011833 0.0
-0.058825 -0.013995 0.0
-0.055853 -0.015967 0.0
-0.052480 -0.017700 0.0
-0.048755 -0.019143 0.0
-0.044735 -0.020250 0.0
-0.040487 -0.020981 0.0
-0.036087 -0.021305 0.0
-0.031617 -0.021200 0.0
-0.027162 -0.020657 0.0
-0.022812 -0.019681 0.0
-0.018653 -0.018294 0.0
-0.014770 -0.016533 0.0
-0.011237 -0.014454 0.0
-0.008121 -0.012131 0.0
-0.005474 -0.009654 0.0
-0.003335 -0.007132 0.0
-0.001727 -0.004692 0.0
-0.000660 -0.002475 0.0
-0.000131 -0.000640 0.0
-0.000221 0.001694 0.0
-0.001042 0.005080 0.0
-0.002571 0.008325 0.0
-0.004705 0.011332 0.0
-0.007352 0.014030 0.0
-0.010427 0.016378 0.0
-0.013853 0.018356 0.0
-0.017560 0.019957 0.0
-0.021482 0.021188 0.0
-0.025558 0.022063 0.0
-0.029730 0.022599 0.0
-0.033945 0.022816 0.0
-0.038153 0.022732 0.0
-0.042308 0.022366 0.0
-0.046364 0.021732 0.0
-0.050279 0.020844 0.0
-0.054013 0.019714 0.0
-0.057525 0.018351 0.0
-0.060777 0.016763 0.0
-0.063732 0.014960 0.0
-0.066354 0.012950 0.0
-0.068606 0.010744 0.0
-0.070457 0.008356 0.0
-0.071874 0.005803 0.0
-0.072829 0.003106 0.0
-0.073296 0.000293 0.0
-0.073254 -0.002606 0.0
-0.072688 -0.005551 0.0
-0.071588 -0.008499 0.0
-0.069951 -0.011401 0.0
-0.067785 -0.014202 0.0
-0.065103 -0.016842 0.0
-0.061934 -0.019262 0.0
-0.058314 -0.021398 0.0
-0.054292 -0.023191 0.0
-0.049928 -0.024585 0.0
-0.045294 -0.025528 0.0
-0.040471 -0.025982 0.0
-0.035547 -0.025918 0.0
-0.030619 -0.025322 0.0
-0.025784 -0.024200 0.0
-0.021143 -0.022575 0.0
-0.016788 -0.020490 0.0
-0.012810 -0.018009 0.0
-0.009284 -0.015218 0.0
-0.006275 -0.012222 0.0
-0.003833 -0.009146 0.0
-0.001990 -0.006130 0.0
-0.000761 -0.003332 0.0
-0.000151 -0.000922 0.0
-0.000243 0.002158 0.0
-0.001148 0.006343 0.0
-0.002829 0.010272 0.0
-0.005169 0.013858 0.0
-0.008063 0.017043 0.0
-0.011416 0.019793 0.0
-0.015143 0.022094 0.0
-0.019165 0.023947 0.0
-0.023410 0.025365 0.0
-0.027814 0.026365 0.0
-0.032315 0.026971 0.0
-0.036859 0.027204 0.0
-0.041394 0.027087 0.0
-0.045870 0.026642 0.0
-0.050243 0.025885 0.0
-0.054468 0.024832 0.0
-0.058503 0.023495 0.0
-0.062308 0.021886 0.0
-0.065843 0.020014 0.0
-0.069068 0.017889 0.0
-0.071944 0.015519 0.0
-0.074436 0.012918 0.0
-0.076506 0.010102 0.0
-0.078119 0.007088 0.0
-0.079245 0.003902 0.0
-0.079853 0.000573 0.0
-0.079919 -0.002861 0.0
-0.079423 -0.006358 0.0
-0.078351 -0.009865 0.0
-0.076696 -0.013327 0.0
-0.074462 -0.016677 0.0
-0.071660 -0.019849 0.0
-0.068315 -0.022769 0.0
-0.064463 -0.025363 0.0
-0.060152 -0.027559 0.0
-0.055445 -0.029287 0.0
-0.050417 -0.030487 0.0
-0.045155 -0.031108 0.0
-0.039757 -0.031113 0.0
-0.034327 -0.030485 0.0
-0.028975 -0.029224 0.0
-0.023814 -0.027355 0.0
-0.018952 -0.024926 0.0
-0.014491 -0.022012 0.0
-0.010523 -0.018709 0.0
-0.007125 -0.015138 0.0
-0.004358 -0.011440 0.0
-0.002264 -0.007774 0.0
-0.000866 -0.004314 0.0
-0.000172 -0.001245 0.0
-0.000265 0.002667 0.0
-0.001250 0.007724 0.0
-0.003076 0.012398 0.0
-0.005615 0.016611 0.0
-0.008748 0.020318 0.0
-0.012372 0.023495 0.0
-0.016391 0.026138 0.0
-0.020720 0.028255 0.0
-0.025282 0.029865 0.0
-0.030008 0.030995 0.0
-0.034834 0.031669 0.0
-0.039703 0.031918 0.0
-0.044562 0.031766 0.0
-0.049360 0.031237 0.0
-0.054051 0.030353 0.0
-0.058590 0.029128 0.0
-0.062935 0.027579 0.0
-0.067043 0.025716 0.0
-0.070873 0.023550 0.0
-0.074385 0.021090 0.0
-0.077539 0.018348 0.0
-0.080294 0.015336 0.0
-0.082611 0.012071 0.0
-0.084453 0.008574 0.0
-0.085784 0.004872 0.0
-0.086570 0.000997 0.0
-0.086782 -0.003008 0.0
-0.086394 -0.007095 0.0
-0.085388 -0.011206 0.0
-0.083752 -0.015276 0.0
-0.081483 -0.019231 0.0
-0.078590 -0.022991 0.0
-0.075092 -0.026470 0.0
-0.071023 -0.029583 0.0
-0.066432 -0.032241 0.0
-0.061383 -0.034362 0.0
-0.055952 -0.035871 0.0
-0.050234 -0.036705 0.0
-0.044333 -0.036816 0.0
-0.038366 -0.036179 0.0
-0.032457 -0.034790 0.0
-0.026732 -0.032675 0.0
-0.021315 -0.029885 0.0
-0.016327 -0.026503 0.0
-0.011874 -0.022639 0.0
-0.008049 -0.018430 0.0
-0.004927 -0.014037 0.0
-0.002560 -0.009638 0.0
-0.000979 -0.005429 0.0
-0.000194 -0.001611 0.0
-0.000286 0.003217 0.0
-0.001347 0.009220 0.0
-0.003314 0.014696 0.0
-0.006045 0.019583 0.0
-0.009411 0.023847 0.0
-0.013298 0.027477 0.0
-0.017602 0.030479 0.0
-0.022232 0.032872 0.0
-0.027105 0.034684 0.0
-0.032149 0.035946 0.0
-0.037297 0.036692 0.0
-0.042489 0.036956 0.0
-0.047671 0.036768 0.0
-0.052792 0.036155 0.0
-0.057805 0.035139 0.0
-0.062665 0.033741 0.0
-0.067329 0.031975 0.0
-0.071754 0.029853 0.0
-0.075897 0.027386 0.0
-0.079717 0.024585 0.0
-0.083171 0.021461 0.0
-0.086218 0.018025 0.0
-0.088816 0.014297 0.0
-0.090922 0.010297 0.0
-0.092496 0.006054 0.0
-0.093501 0.001606 0.0
-0.093902 -0.003004 0.0
-0.093666 -0.007722 0.0
-0.092769 -0.012483 0.0
-0.091192 -0.017213 0.0
-0.088926 -0.021829 0.0
-0.085974 -0.026238 0.0
-0.082351 -0.030344 0.0
-0.078086 -0.034043 0.0
-0.073226 -0.037232 0.0
-0.067834 -0.039813 0.0
-0.061991 -0.041694 0.0
-0.055796 -0.042796 0.0
-0.049363 -0.043058 0.0
-0.042821 -0.042445 0.0
-0.036306 -0.040947 0.0
-0.029964 -0.038586 0.0
-0.023938 -0.035417 0.0
-0.018365 -0.031532 0.0
-0.013374 -0.027054 0.0
-0.009076 -0.022138 0.0
-0.005558 -0.016968 0.0
-0.002888 -0.011745 0.0
-0.001104 -0.006687 0.0
-0.000218 -0.002023 0.0
-0.000306 0.003809 0.0
-0.001442 0.010826 0.0
-0.003545 0.017160 0.0
-0.006463 0.022766 0.0
-0.010056 0.027622 0.0
-0.014199 0.031731 0.0
-0.018782 0.035112 0.0
-0.023707 0.037794 0.0
-0.028887 0.039815 0.0
-0.034245 0.041216 0.0
-0.039711 0.042037 0.0
-0.045225 0.042318 0.0
-0.050731 0.042094 0.0
-0.056178 0.041397 0.0
-0.061519 0.040251 0.0
-0.066708 0.038678 0.0
-0.071702 0.036695 0.0
-0.076457 0.034313 0.0
-0.080932 0.031544 0.0
-0.085082 0.028398 0.0
-0.088865 0.024885 0.0
-0.092235 0.021018 0.0
-0.095147 0.016814 0.0
-0.097556 0.012295 0.0
-0.099417 0.007492 0.0
-0.100685 0.002442 0.0
-0.101320 -0.002805 0.0
-0.101284 -0.008193 0.0
-0.100543 -0.013650 0.0
-0.099072 -0.019094 0.0
-0.096853 -0.024432 0.0
-0.093882 -0.029559 0.0
-0.090165 -0.034363 0.0
-0.085728 -0.038725 0.0
-0.080614 -0.042525 0.0
-0.074884 -0.045643 0.0
-0.068621 -0.047969 0.0
-0.061930 -0.049406 0.0
-0.054933 -0.049877 0.0
-0.047772 -0.049331 0.0
-0.040600 -0.047748 0.0
-0.033581 -0.045146 0.0
-0.026880 -0.041584 0.0
-0.020658 -0.037159 0.0
-0.015065 -0.032010 0.0
-0.010234 -0.026312 0.0
-0.006272 -0.020273 0.0
-0.003260 -0.014122 0.0
-0.001246 -0.008108 0.0
-0.000246 -0.002487 0.0
-0.000326 0.004440 0.0
-0.001534 0.012538 0.0
-0.003770 0.019788 0.0
-0.006870 0.026156 0.0
-0.010684 0.031639 0.0
-0.015079 0.036253 0.0
-0.019936 0.040031 0.0
-0.025151 0.043015 0.0
-0.030632 0.045255 0.0
-0.036300 0.046800 0.0
-0.042082 0.047701 0.0
-0.047917 0.048003 0.0
-0.053748 0.047746 0.0
-0.059523 0.046967 0.0
-0.065197 0.045694 0.0
-0.070723 0.043950 0.0
-0.076058 0.041752 0.0
-0.081160 0.039113 0.0
-0.085985 0.036044 0.0
-0.090489 0.032553 0.0
-0.094627 0.028650 0.0
-0.098352 0.024347 0.0
-0.101615 0.019660 0.0
-0.104368 0.014610 0.0
-0.106559 0.009228 0.0
-0.108139 0.003554 0.0
-0.109060 -0.002362 0.0
-0.109275 -0.008458 0.0
-0.108743 -0.014658 0.0
-0.107428 -0.020872 0.0
-0.105305 -0.026996 0.0
-0.102359 -0.032913 0.0
-0.098588 -0.038496 0.0
-0.094010 -0.043607 0.0
-0.088663 -0.048105 0.0
-0.082604 -0.051851 0.0
-0.075919 -0.054709 0.0
-0.068715 -0.056562 0.0
-0.061123 -0.057310 0.0
-0.053299 -0.056884 0.0
-0.045413 -0.055252 0.0
-0.037652 -0.052423 0.0
-0.030203 -0.048456 0.0
-0.023257 -0.043455 0.0
-0.016988 -0.037574 0.0
-0.011556 -0.031012 0.0
-0.007089 -0.024002 0.0
-0.003687 -0.016808 0.0
-0.001409 -0.009714 0.0
-0.000278 -0.003011 0.0
-0.000345 0.005110 0.0
-0.001624 0.014356 0.0
-0.003990 0.022573 0.0
-0.007268 0.029748 0.0
-0.011299 0.035891 0.0
-0.015939 0.041036 0.0
-0.021065 0.045230 0.0
-0.026565 0.048531 0.0
-0.032343 0.050999 0.0
-0.038317 0.052697 0.0
-0.044412 0.053682 0.0
-0.050566 0.054010 0.0
-0.056721 0.053725 0.0
-0.062827 0.052870 0.0
-0.068837 0.051475 0.0
-0.074707 0.049565 0.0
-0.080394 0.047159 0.0
-0.085856 0.044270 0.0
-0.091049 0.040906 0.0
-0.095929 0.037076 0.0
-0.100450 0.032786 0.0
-0.104561 0.028048 0.0
-0.108212 0.022874 0.0
-0.111349 0.017285 0.0
-0.113916 0.011312 0.0
-0.115857 0.004992 0.0
-0.117116 -0.001621 0.0
-0.117637 -0.008463 0.0
-0.117371 -0.015452 0.0
-0.116270 -0.022493 0.0
-0.114298 -0.029470 0.0
-0.111428 -0.036255 0.0
-0.107650 -0.042703 0.0
-0.102970 -0.048657 0.0
-0.097419 -0.053954 0.0
-0.091050 -0.058429 0.0
-0.083945 -0.061921 0.0
-0.076217 -0.064283 0.0
-0.068004 -0.065392 0.0
-0.059474 -0.065155 0.0
-0.050818 -0.063522 0.0
-0.042244 -0.060489 0.0
-0.033970 -0.056112 0.0
-0.026215 -0.050501 0.0
-0.019186 -0.043825 0.0
-0.013072 -0.036307 0.0
-0.008031 -0.028214 0.0
-0.004181 -0.019848 0.0
-0.001599 -0.011534 0.0
-0.000316 -0.003605 0.0
-0.000364 0.005819 0.0
-0.001712 0.016275 0.0
-0.004206 0.025514 0.0
-0.007659 0.033537 0.0
-0.011901 0.040374 0.0
-0.016783 0.046075 0.0
-0.022171 0.050705 0.0
-0.027951 0.054336 0.0
-0.034021 0.057043 0.0
-0.040296 0.058901 0.0
-0.046700 0.059978 0.0
-0.053169 0.060337 0.0
-0.059647 0.060031 0.0
-0.066083 0.059106 0.0
-0.072432 0.057597 0.0
-0.078651 0.055531 0.0
-0.084697 0.052927 0.0
-0.090530 0.049797 0.0
-0.096107 0.046149 0.0
-0.101382 0.041988 0.0
-0.106309 0.037321 0.0
-0.110836 0.032152 0.0
-0.114909 0.026494 0.0
-0.118470 0.020363 0.0
-0.121457 0.013789 0.0
-0.123808 0.006808 0.0
-0.125458 -0.000528 0.0
-0.126343 -0.008149 0.0
-0.126402 -0.015974 0.0
-0.125576 -0.023898 0.0
-0.123816 -0.031798 0.0
-0.121083 -0.039531 0.0
-0.117352 -0.046936 0.0
-0.112619 -0.053836 0.0
-0.106903 -0.060042 0.0
-0.100251 -0.065361 0.0
-0.092741 -0.069602 0.0
-0.084486 -0.072586 0.0
-0.075631 -0.074157 0.0
-0.066358 -0.074194 0.0
-0.056876 -0.072621 0.0
-0.047419 -0.069421 0.0
-0.038236 -0.064637 0.0
-0.029582 -0.058385 0.0
-0.021701 -0.050850 0.0
-0.014816 -0.042281 0.0
-0.009118 -0.032981 0.0
-0.004754 -0.023296 0.0
-0.001821 -0.013601 0.0
-0.000360 -0.004281 0.0
-0.000382 0.006564 0.0
-0.001799 0.018295 0.0
-0.004418 0.028607 0.0
-0.008041 0.037521 0.0
-0.012492 0.045084 0.0
-0.017610 0.051366 0.0
-0.023256 0.056449 0.0
-0.029309 0.060424 0.0
-0.035665 0.063381 0.0
-0.042234 0.065407 0.0
-0.048941 0.066583 0.0
-0.055720 0.066981 0.0
-0.062516 0.066661 0.0
-0.069279 0.065676 0.0
-0.075965 0.064063 0.0
-0.082533 0.061852 0.0
-0.088942 0.059062 0.0
-0.095153 0.055705 0.0
-0.101123 0.051787 0.0
-0.106809 0.047311 0.0
-0.112162 0.042278 0.0
-0.117129 0.036689 0.0
-0.121654 0.030554 0.0
-0.125674 0.023884 0.0
-0.129124 0.016705 0.0
-0.131932 0.009051 0.0
-0.134026 0.000974 0.0
-0.135332 -0.007459 0.0
-0.135778 -0.016160 0.0
-0.135291 -0.025023 0.0
-0.133810 -0.033914 0.0
-0.131279 -0.042679 0.0
-0.127659 -0.051139 0.0
-0.122931 -0.059094 0.0
-0.117102 -0.066330 0.0
-0.110208 -0.072621 0.0
-0.102319 -0.077741 0.0
-0.093547 -0.081475 0.0
-0.084042 -0.083628 0.0
-0.073996 -0.084043 0.0
-0.063639 -0.082612 0.0
-0.053231 -0.079294 0.0
-0.043056 -0.074120 0.0
-0.033408 -0.067205 0.0
-0.024572 -0.058747 0.0
-0.016817 -0.049024 0.0
-0.010373 -0.038380 0.0
-0.005419 -0.027214 0.0
-0.002079 -0.015957 0.0
-0.000412 -0.005053 0.0
-0.000400 0.007346 0.0
-0.001884 0.020413 0.0
-0.004625 0.031850 0.0
-0.008417 0.041694 0.0
-0.013071 0.050015 0.0
-0.018420 0.056902 0.0
-0.024318 0.062457 0.0
-0.030637 0.066789 0.0
-0.037271 0.070005 0.0
-0.044126 0.072208 0.0
-0.051127 0.073490 0.0
-0.058208 0.073934 0.0
-0.065313 0.073609 0.0
-0.072396 0.072573 0.0
-0.079413 0.070868 0.0
-0.086325 0.068526 0.0
-0.093095 0.065567 0.0
-0.099684 0.062000 0.0
-0.106052 0.057831 0.0
-0.112155 0.053057 0.0
-0.117947 0.047676 0.0
-0.123372 0.041684 0.0
-0.128372 0.035084 0.0
-0.132882 0.027884 0.0
-0.136829 0.020102 0.0
-0.140137 0.011770 0.0
-0.142724 0.002936 0.0
-0.144507 -0.006332 0.0
-0.145401 -0.015949 0.0
-0.145320 -0.025801 0.0
-0.144188 -0.035751 0.0
-0.141931 -0.045630 0.0
-0.138496 -0.055243 0.0
-0.133844 -0.064369 0.0
-0.127966 -0.072762 0.0
-0.120885 -0.080164 0.0
-0.112660 -0.086310 0.0
-0.103397 -0.090940 0.0
-0.093249 -0.093816 0.0
-0.082414 -0.094735 0.0
-0.071143 -0.093550 0.0
-0.059723 -0.090185 0.0
-0.048474 -0.084653 0.0
-0.037734 -0.077061 0.0
-0.027840 -0.067621 0.0
-0.019108 -0.056637 0.0
-0.011816 -0.044503 0.0
-0.006189 -0.031673 0.0
-0.002380 -0.018646 0.0
-0.000473 -0.005938 0.0
-0.000418 0.008164 0.0
-0.001967 0.022628 0.0
-0.004829 0.035239 0.0
-0.008786 0.046053 0.0
-0.013639 0.055162 0.0
-0.019213 0.062677 0.0
-0.025355 0.068721 0.0
-0.031933 0.073423 0.0
-0.038835 0.076907 0.0
-0.045966 0.079293 0.0
-0.053249 0.080688 0.0
-0.060618 0.081186 0.0
-0.068020 0.080865 0.0
-0.075409 0.079789 0.0
-0.082744 0.078005 0.0
-0.089989 0.075547 0.0
-0.097109 0.072436 0.0
-0.104069 0.068680 0.0
-0.110830 0.064280 0.0
-0.117350 0.059232 0.0
-0.123583 0.053525 0.0
-0.129474 0.047152 0.0
-0.134964 0.040106 0.0
-0.139983 0.032390 0.0
-0.144456 0.024015 0.0
-0.148299 0.015007 0.0
-0.151423 0.005410 0.0
-0.153734 -0.004713 0.0
-0.155133 -0.015275 0.0
-0.155525 -0.026163 0.0
-0.154813 -0.037233 0.0
-0.152910 -0.048307 0.0
-0.149739 -0.059172 0.0
-0.145245 -0.069585 0.0
-0.139398 -0.079271 0.0
-0.132202 -0.087933 0.0
-0.123703 -0.095265 0.0
-0.113996 -0.100956 0.0
-0.103229 -0.104716 0.0
-0.091610 -0.106288 0.0
-0.079401 -0.105476 0.0
-0.066920 -0.102160 0.0
-0.054524 -0.096322 0.0
-0.042599 -0.088057 0.0
-0.031537 -0.077581 0.0
-0.021716 -0.065231 0.0
-0.013470 -0.051446 0.0
-0.007076 -0.036751 0.0
-0.002730 -0.021722 0.0
-0.000544 -0.006956 0.0
-0.000435 0.009018 0.0
-0.002049 0.024938 0.0
-0.005030 0.038771 0.0
-0.009148 0.050595 0.0
-0.014196 0.060522 0.0
-0.019989 0.068686 0.0
-0.026368 0.075233 0.0
-0.033194 0.080314 0.0
-0.040351 0.084075 0.0
-0.047744 0.086650 0.0
-0.055293 0.088163 0.0
-0.062934 0.088721 0.0
-0.070614 0.088411 0.0
-0.078289 0.087306 0.0
-0.085922 0.085456 0.0
-0.093480 0.082899 0.0
-0.100932 0.079655 0.0
-0.108244 0.075732 0.0
-0.115381 0.071127 0.0
-0.122306 0.065830 0.0
-0.128971 0.059825 0.0
-0.135324 0.053097 0.0
-0.141304 0.045631 0.0
-0.146841 0.037422 0.0
-0.151856 0.028471 0.0
-0.156258 0.018798 0.0
-0.159953 0.008438 0.0
-0.162834 -0.002550 0.0
-0.164792 -0.014080 0.0
-0.165719 -0.026041 0.0
-0.165501 -0.038285 0.0
-0.164032 -0.050627 0.0
-0.161215 -0.062839 0.0
-0.156972 -0.074655 0.0
-0.151250 -0.085770 0.0
-0.144031 -0.095849 0.0
-0.135341 -0.104538 0.0
-0.125259 -0.111472 0.0
-0.113926 -0.116300 0.0
-0.101549 -0.118701 0.0
-0.088402 -0.118418 0.0
-0.074828 -0.115274 0.0
-0.061224 -0.109208 0.0
-0.048028 -0.100292 0.0
-0.035694 -0.088741 0.0
-0.024668 -0.074918 0.0
-0.015354 -0.059318 0.0
-0.008092 -0.042537 0.0
-0.003132 -0.025242 0.0
-0.000627 -0.008126 0.0
-0.000453 0.009906 0.0
-0.002130 0.027341 0.0
-0.005227 0.042445 0.0
-0.009503 0.055315 0.0
-0.014741 0.066087 0.0
-0.020747 0.074920 0.0
-0.027353 0.081984 0.0
-0.034415 0.087452 0.0
-0.041814 0.091493 0.0
-0.049451 0.094261 0.0
-0.057246 0.095896 0.0
-0.065136 0.096518 0.0
-0.073068 0.096226 0.0
-0.081002 0.095100 0.0
-0.088905 0.093197 0.0
-0.096746 0.090557 0.0
-0.104498 0.087200 0.0
-0.112132 0.083133 0.0
-0.119618 0.078349 0.0
-0.126920 0.072833 0.0
-0.133993 0.066561 0.0
-0.140789 0.059509 0.0
-0.147246 0.051656 0.0
-0.153293 0.042982 0.0
-0.158850 0.033482 0.0
-0.163822 0.023162 0.0
-0.168106 0.012052 0.0
-0.171589 0.000201 0.0
-0.174152 -0.012309 0.0
-0.175670 -0.025368 0.0
-0.176016 -0.038830 0.0
-0.175063 -0.052504 0.0
-0.172694 -0.066148 0.0
-0.168805 -0.079478 0.0
-0.163317 -0.092157 0.0
-0.156186 -0.103813 0.0
-0.147412 -0.114038 0.0
-0.137054 -0.122412 0.0
-0.125235 -0.128512 0.0
-0.112157 -0.131945 0.0
-0.098101 -0.132377 0.0
-0.083429 -0.129561 0.0
-0.068577 -0.123378 0.0
-0.054037 -0.113859 0.0
-0.040332 -0.101212 0.0
-0.027987 -0.085819 0.0
-0.017488 -0.068230 0.0
-0.009251 -0.049124 0.0
-0.003594 -0.029272 0.0
-0.000722 -0.009475 0.0
-0.000470 0.010828 0.0
-0.002210 0.029837 0.0
-0.005422 0.046258 0.0
-0.009853 0.060210 0.0
-0.015276 0.071853 0.0
-0.021487 0.081371 0.0
-0.028311 0.088961 0.0
-0.035596 0.094823 0.0
-0.043219 0.099145 0.0
-0.051078 0.102106 0.0
-0.059094 0.103862 0.0
-0.067202 0.104549 0.0
-0.075354 0.104279 0.0
-0.083512 0.103139 0.0
-0.091644 0.101194 0.0
-0.099728 0.098485 0.0
-0.107738 0.095034 0.0
-0.115651 0.090847 0.0
-0.123441 0.085912 0.0
-0.131077 0.080207 0.0
-0.138519 0.073702 0.0
-0.145719 0.066364 0.0
-0.152621 0.058159 0.0
-0.159153 0.049058 0.0
-0.165233 0.039042 0.0
-0.170766 0.028107 0.0
-0.175644 0.016269 0.0
-0.179747 0.003570 0.0
-0.182944 -0.009917 0.0
-0.185101 -0.024086 0.0
-0.186073 -0.038794 0.0
-0.185717 -0.053848 0.0
-0.183891 -0.068999 0.0
-0.180467 -0.083941 0.0
-0.175336 -0.098312 0.0
-0.168424 -0.111701 0.0
-0.159699 -0.123648 0.0
-0.149192 -0.133668 0.0
-0.137002 -0.141264 0.0
-0.123316 -0.145957 0.0
-0.108414 -0.147323 0.0
-0.092671 -0.145028 0.0
-0.076559 -0.138875 0.0
-0.060623 -0.128838 0.0
-0.045463 -0.115098 0.0
-0.031689 -0.098052 0.0
-0.019886 -0.078300 0.0
-0.010562 -0.056614 0.0
-0.004121 -0.033880 0.0
-0.000831 -0.011028 0.0
-0.000487 0.011784 0.0
-0.002289 0.032424 0.0
-0.005615 0.050208 0.0
-0.010200 0.065277 0.0
-0.015804 0.077814 0.0
-0.022213 0.088031 0.0
-0.029242 0.096154 0.0
-0.036735 0.102408 0.0
-0.044561 0.107009 0.0
-0.052617 0.110158 0.0
-0.060822 0.112031 0.0
-0.069113 0.112780 0.0
-0.077444 0.112531 0.0
-0.085778 0.111380 0.0
-0.094092 0.109399 0.0
-0.102363 0.106634 0.0
-0.110575 0.103107 0.0
-0.118708 0.098821 0.0
-0.126742 0.093762 0.0
-0.134652 0.087901 0.0
-0.142402 0.081200 0.0
-0.149951 0.073615 0.0
-0.157243 0.065102 0.0
-0.164212 0.055617 0.0
-0.170777 0.045129 0.0
-0.176843 0.033619 0.0
-0.182298 0.021090 0.0
-0.187018 0.007571 0.0
-0.190865 -0.006874 0.0
-0.193691 -0.022146 0.0
-0.195342 -0.038111 0.0
-0.195655 -0.054575 0.0
-0.194467 -0.071285 0.0
-0.191623 -0.087923 0.0
-0.186984 -0.104101 0.0
-0.180439 -0.119370 0.0
-0.171921 -0.133221 0.0
-0.161424 -0.145100 0.0
-0.149016 -0.154430 0.0
-0.134857 -0.160636 0.0
-0.119213 -0.163190 0.0
-0.102469 -0.161649 0.0
-0.085120 -0.155716 0.0
-0.067767 -0.145286 0.0
-0.051085 -0.130492 0.0
-0.035786 -0.111730 0.0
-0.022563 -0.089648 0.0
-0.012039 -0.065114 0.0
-0.004717 -0.039144 0.0
-0.000956 -0.012815 0.0
-0.000503 0.012774 0.0
-0.002369 0.035102 0.0
-0.005808 0.054295 0.0
-0.010546 0.070512 0.0
-0.016328 0.083964 0.0
-0.022928 0.094890 0.0
-0.030152 0.103547 0.0
-0.037834 0.110189 0.0
-0.045839 0.115060 0.0
-0.054062 0.118386 0.0
-0.062419 0.120365 0.0
-0.070849 0.121167 0.0
-0.079308 0.120933 0.0
-0.087764 0.119769 0.0
-0.096196 0.117755 0.0
-0.104589 0.114942 0.0
-0.112931 0.111352 0.0
-0.121209 0.106988 0.0
-0.129409 0.101830 0.0
-0.137513 0.095845 0.0
-0.145491 0.088985 0.0
-0.153308 0.081196 0.0
-0.160916 0.072421 0.0
-0.168251 0.062602 0.0
-0.175237 0.051694 0.0
-0.181781 0.039662 0.0
-0.187773 0.026493 0.0
-0.193085 0.012201 0.0
-0.197574 -0.003167 0.0
-0.201085 -0.019517 0.0
-0.203450 -0.036724 0.0