# vtk DataFile Version 3.0
Vector Field
ASCII
DATASET RECTILINEAR_GRID
DIMENSIONS 50 50 1
X_COORDINATES 50 double
0.100000 0.300000 0.500000 0.700000 0.900000 1.100000 1.300000 1.500000 1.700000 1.900000 2.100000 2.300000 2.500000 2.700000 2.900000 3.100000 3.300000 3.500000 3.700000 3.900000 4.100000 4.300000 4.500000 4.700000 4.900000 5.100000 5.300000 5.500000 5.700000 5.900000 6.100000 6.300000 6.500000 6.700000 6.900000 7.100000 7.300000 7.500000 7.700000 7.900000 8.100000 8.300000 8.500000 8.700000 8.900000 9.100000 9.300000 9.500000 9.700000 9.900000 
Y_COORDINATES 50 double
0.100000 0.300000 0.500000 0.700000 0.900000 1.100000 1.300000 1.500000 1.700000 1.900000 2.100000 2.300000 2.500000 2.700000 2.900000 3.100000 3.300000 3.500000 3.700000 3.900000 4.100000 4.300000 4.500000 4.700000 4.900000 5.100000 5.300000 5.500000 5.700000 5.900000 6.100000 6.300000 6.500000 6.700000 6.900000 7.100000 7.300000 7.500000 7.700000 7.900000 8.100000 8.300000 8.500000 8.700000 8.900000 9.100000 9.300000 9.500000 9.700000 9.900000 
Z_COORDINATES 1 double
0.0
POINT_DATA 2500
VECTORS Vektorfeld double
-0.000132 0.000132 0.0
-0.000604 0.000341 0.0
-0.001363 0.000418 0.0
-0.002216 0.000435 0.0
-0.003085 0.000434 0.0
-0.003950 0.000431 0.0
-0.004807 0.000426 0.0
-0.005654 0.000421 0.0
-0.006488 0.000414 0.0
-0.007309 0.000407 0.0
-0.008114 0.000398 0.0
-0.008900 0.000388 0.0
-0.009666 0.000378 0.0
-0.010410 0.000366 0.0
-0.011127 0.000352 0.0
-0.011817 0.000338 0.0
-0.012476 0.000321 0.0
-0.013102 0.000304 0.0
-0.013690 0.000285 0.0
-0.014239 0.000264 0.0
-0.014745 0.000242 0.0
-0.015204 0.000217 0.0
-0.015613 0.000192 0.0
-0.015968 0.000164 0.0
-0.016266 0.000134 0.0
-0.016503 0.000103 0.0
-0.016675 0.000070 0.0
-0.016780 0.000035 0.0
-0.016813 -0.000002 0.0
-0.016772 -0.000040 0.0
-0.016652 -0.000080 0.0
-0.016451 -0.000121 0.0
-0.016166 -0.000164 0.0
-0.015796 -0.000207 0.0
-0.015338 -0.000251 0.0
-0.014792 -0.000295 0.0
-0.014159 -0.000339 0.0
-0.013437 -0.000382 0.0
-0.012631 -0.000425 0.0
-0.011741 -0.000465 0.0
-0.010771 -0.000504 0.0
-0.009726 -0.000540 0.0
-0.008612 -0.000574 0.0
-0.007435 -0.000604 0.0
-0.006202 -0.000630 0.0
-0.004922 -0.000651 0.0
-0.003608 -0.000663 0.0
-0.002294 -0.000650 0.0
-0.001088 -0.000556 0.0
-0.000266 -0.000266 0.0
-0.000347 0.000611 0.0
-0.001371 0.001358 0.0
-0.002843 0.001631 0.0
-0.004463 0.001694 0.0
-0.006113 0.001694 0.0
-0.007756 0.001679 0.0
-0.009380 0.001659 0.0
-0.010981 0.001635 0.0
-0.012553 0.001606 0.0
-0.014092 0.001574 0.0
-0.015594 0.001537 0.0
-0.017053 0.001496 0.0
-0.018466 0.001449 0.0
-0.019827 0.001398 0.0
-0.021132 0.001342 0.0
-0.022375 0.001281 0.0
-0.023552 0.001214 0.0
-0.024658 0.001142 0.0
-0.025687 0.001064 0.0
-0.026634 0.000980 0.0
-0.027493 0.000890 0.0
-0.028260 0.000794 0.0
-0.028928 0.000692 0.0
-0.029492 0.000583 0.0
-0.029947 0.000468 0.0
-0.030287 0.000346 0.0
-0.030507 0.000219 0.0
-0.030601 0.000085 0.0
-0.030566 -0.000054 0.0
-0.030395 -0.000199 0.0
-0.030086 -0.000349 0.0
-0.029634 -0.000504 0.0
-0.029038 -0.000662 0.0
-0.028295 -0.000822 0.0
-0.027404 -0.000984 0.0
-0.026365 -0.001146 0.0
-0.025179 -0.001307 0.0
-0.023849 -0.001466 0.0
-0.022377 -0.001620 0.0
-0.020770 -0.001768 0.0
-0.019034 -0.001908 0.0
-0.017176 -0.002039 0.0
-0.015207 -0.002159 0.0
-0.013136 -0.002266 0.0
-0.010977 -0.002359 0.0
-0.008745 -0.002434 0.0
-0.006463 -0.002476 0.0
-0.004189 -0.002426 0.0
-0.002081 -0.002094 0.0
-0.000549 -0.001081 0.0
-0.000432 0.001391 0.0
-0.001672 0.002841 0.0
-0.003412 0.003360 0.0
-0.005309 0.003482 0.0
-0.007235 0.003483 0.0
-0.009152 0.003451 0.0
-0.011046 0.003406 0.0
-0.012910 0.003352 0.0
-0.014739 0.003290 0.0
-0.016527 0.003218 0.0
-0.018269 0.003136 0.0
-0.019959 0.003046 0.0
-0.021592 0.002945 0.0
-0.023162 0.002834 0.0
-0.024663 0.002713 0.0
-0.026090 0.002581 0.0
-0.027437 0.002438 0.0
-0.028698 0.002285 0.0
-0.029868 0.002120 0.0
-0.030940 0.001943 0.0
-0.031909 0.001755 0.0
-0.032768 0.001555 0.0
-0.033511 0.001343 0.0
-0.034133 0.001118 0.0
-0.034628 0.000882 0.0
-0.034989 0.000633 0.0
-0.035211 0.000373 0.0
-0.035288 0.000102 0.0
-0.035216 -0.000179 0.0
-0.034990 -0.000471 0.0
-0.034606 -0.000771 0.0
-0.034060 -0.001079 0.0
-0.033350 -0.001393 0.0
-0.032474 -0.001710 0.0
-0.031431 -0.002030 0.0
-0.030222 -0.002349 0.0
-0.028848 -0.002665 0.0
-0.027311 -0.002975 0.0
-0.025617 -0.003276 0.0
-0.023771 -0.003564 0.0
-0.021780 -0.003838 0.0
-0.019654 -0.004093 0.0
-0.017404 -0.004325 0.0
-0.015041 -0.004533 0.0
-0.012579 -0.004713 0.0
-0.010036 -0.004856 0.0
-0.007439 -0.004933 0.0
-0.004846 -0.004835 0.0
-0.002428 -0.004212 0.0
-0.000647 -0.002277 0.0
-0.000456 0.002278 0.0
-0.001760 0.004498 0.0
-0.003588 0.005272 0.0
-0.005572 0.005452 0.0
-0.007584 0.005451 0.0
-0.009585 0.005400 0.0
-0.011561 0.005328 0.0
-0.013506 0.005240 0.0
-0.015414 0.005139 0.0
-0.017278 0.005022 0.0
-0.019094 0.004890 0.0
-0.020855 0.004743 0.0
-0.022556 0.004581 0.0
-0.024191 0.004402 0.0
-0.025753 0.004208 0.0
-0.027238 0.003997 0.0
-0.028639 0.003770 0.0
-0.029950 0.003526 0.0
-0.031166 0.003264 0.0
-0.032279 0.002985 0.0
-0.033285 0.002688 0.0
-0.034177 0.002373 0.0
-0.034948 0.002040 0.0
-0.035593 0.001688 0.0
-0.036106 0.001319 0.0
-0.036480 0.000932 0.0
-0.036710 0.000527 0.0
-0.036790 0.000106 0.0
-0.036715 -0.000330 0.0
-0.036480 -0.000781 0.0
-0.036081 -0.001245 0.0
-0.035514 -0.001718 0.0
-0.034777 -0.002201 0.0
-0.033867 -0.002688 0.0
-0.032784 -0.003178 0.0
-0.031527 -0.003667 0.0
-0.030098 -0.004150 0.0
-0.028500 -0.004624 0.0
-0.026737 -0.005084 0.0
-0.024815 -0.005524 0.0
-0.022742 -0.005941 0.0
-0.020528 -0.006330 0.0
-0.018183 -0.006684 0.0
-0.015719 -0.007001 0.0
-0.013153 -0.007273 0.0
-0.010500 -0.007490 0.0
-0.007789 -0.007608 0.0
-0.005080 -0.007462 0.0
-0.002546 -0.006536 0.0
-0.000678 -0.003602 0.0
-0.000462 0.003196 0.0
-0.001789 0.006211 0.0
-0.003649 0.007245 0.0
-0.005668 0.007482 0.0
-0.007715 0.007479 0.0
-0.009749 0.007407 0.0
-0.011758 0.007306 0.0
-0.013736 0.007184 0.0
-0.015675 0.007042 0.0
-0.017572 0.006879 0.0
-0.019419 0.006695 0.0
-0.021210 0.006491 0.0
-0.022941 0.006265 0.0
-0.024605 0.006017 0.0
-0.026197 0.005748 0.0
-0.027710 0.005456 0.0
-0.029139 0.005141 0.0
-0.030477 0.004804 0.0
-0.031719 0.004443 0.0
-0.032858 0.004059 0.0
-0.033889 0.003650 0.0
-0.034804 0.003218 0.0
-0.035598 0.002761 0.0
-0.036265 0.002279 0.0
-0.036798 0.001773 0.0
-0.037191 0.001244 0.0
-0.037438 0.000692 0.0
-0.037534 0.000117 0.0
-0.037472 -0.000478 0.0
-0.037248 -0.001092 0.0
-0.036856 -0.001723 0.0
-0.036294 -0.002369 0.0
-0.035557 -0.003025 0.0
-0.034644 -0.003688 0.0
-0.033552 -0.004354 0.0
-0.032281 -0.005018 0.0
-0.030833 -0.005676 0.0
-0.029210 -0.006320 0.0
-0.027416 -0.006944 0.0
-0.025458 -0.007544 0.0
-0.023342 -0.008111 0.0
-0.021078 -0.008639 0.0
-0.018677 -0.009121 0.0
-0.016153 -0.009551 0.0
-0.013521 -0.009922 0.0
-0.010798 -0.010216 0.0
-0.008012 -0.010378 0.0
-0.005226 -0.010188 0.0
-0.002619 -0.008951 0.0
-0.000697 -0.004977 0.0
-0.000466 0.004124 0.0
-0.001807 0.007951 0.0
-0.003691 0.009249 0.0
-0.005737 0.009543 0.0
-0.007809 0.009536 0.0
-0.009869 0.009443 0.0
-0.011905 0.009314 0.0
-0.013908 0.009158 0.0
-0.015874 0.008975 0.0
-0.017797 0.008765 0.0
-0.019670 0.008529 0.0
-0.021488 0.008267 0.0
-0.023245 0.007977 0.0
-0.024936 0.007660 0.0
-0.026554 0.007315 0.0
-0.028094 0.006942 0.0
-0.029550 0.006540 0.0
-0.030916 0.006109 0.0
-0.032185 0.005649 0.0
-0.033352 0.005159 0.0
-0.034410 0.004639 0.0
-0.035353 0.004088 0.0
-0.036175 0.003506 0.0
-0.036868 0.002894 0.0
-0.037428 0.002251 0.0
-0.037847 0.001578 0.0
-0.038119 0.000877 0.0
-0.038238 0.000147 0.0
-0.038198 -0.000610 0.0
-0.037993 -0.001390 0.0
-0.037618 -0.002192 0.0
-0.037069 -0.003012 0.0
-0.036341 -0.003846 0.0
-0.035431 -0.004690 0.0
-0.034338 -0.005537 0.0
-0.033061 -0.006383 0.0
-0.031600 -0.007220 0.0
-0.029957 -0.008041 0.0
-0.028136 -0.008838 0.0
-0.026142 -0.009602 0.0
-0.023984 -0.010326 0.0
-0.021670 -0.011001 0.0
-0.019212 -0.011617 0.0
-0.016624 -0.012168 0.0
-0.013920 -0.012641 0.0
-0.011121 -0.013019 0.0
-0.008254 -0.013228 0.0
-0.005385 -0.012995 0.0
-0.002698 -0.011438 0.0
-0.000718 -0.006392 0.0
-0.000471 0.005061 0.0
-0.001828 0.009713 0.0
-0.003737 0.011280 0.0
-0.005811 0.011632 0.0
-0.007913 0.011622 0.0
-0.010003 0.011508 0.0
-0.012068 0.011350 0.0
-0.014101 0.011158 0.0
-0.016096 0.010935 0.0
-0.018048 0.010679 0.0
-0.019951 0.010391 0.0
-0.021799 0.010071 0.0
-0.023587 0.009718 0.0
-0.025309 0.009331 0.0
-0.026958 0.008911 0.0
-0.028530 0.008457 0.0
-0.030018 0.007968 0.0
-0.031416 0.007445 0.0
-0.032718 0.006885 0.0
-0.033918 0.006290 0.0
-0.035010 0.005658 0.0
-0.035986 0.004989 0.0
-0.036842 0.004283 0.0
-0.037570 0.003539 0.0
-0.038163 0.002759 0.0
-0.038614 0.001942 0.0
-0.038918 0.001089 0.0
-0.039067 0.000202 0.0
-0.039054 -0.000717 0.0
-0.038875 -0.001667 0.0
-0.038522 -0.002643 0.0
-0.037990 -0.003642 0.0
-0.037275 -0.004659 0.0
-0.036374 -0.005688 0.0
-0.035282 -0.006724 0.0
-0.033999 -0.007758 0.0
-0.032524 -0.008782 0.0
-0.030858 -0.009787 0.0
-0.029006 -0.010765 0.0
-0.026972 -0.011703 0.0
-0.024764 -0.012593 0.0
-0.022390 -0.013422 0.0
-0.019863 -0.014181 0.0
-0.017197 -0.014859 0.0
-0.014408 -0.015443 0.0
-0.011516 -0.015909 0.0
-0.008550 -0.016169 0.0
-0.005580 -0.015893 0.0
-0.002798 -0.014008 0.0
-0.000745 -0.007855 0.0
-0.000477 0.006008 0.0
-0.001853 0.011500 0.0
-0.003792 0.013341 0.0
-0.005900 0.013753 0.0
-0.008036 0.013739 0.0
-0.010161 0.013604 0.0
-0.012260 0.013418 0.0
-0.014328 0.013191 0.0
-0.016358 0.012927 0.0
-0.018345 0.012626 0.0
-0.020283 0.012286 0.0
-0.022167 0.011908 0.0
-0.023991 0.011492 0.0
-0.025749 0.011036 0.0
-0.027435 0.010542 0.0
-0.029044 0.010007 0.0
-0.030569 0.009432 0.0
-0.032006 0.008816 0.0
-0.033347 0.008158 0.0
-0.034587 0.007457 0.0
-0.035718 0.006714 0.0
-0.036736 0.005927 0.0
-0.037632 0.005096 0.0
-0.038400 0.004221 0.0
-0.039033 0.003303 0.0
-0.039524 0.002340 0.0
-0.039866 0.001336 0.0
-0.040051 0.000290 0.0
-0.040073 -0.000795 0.0
-0.039925 -0.001917 0.0
-0.039599 -0.003071 0.0
-0.039090 -0.004254 0.0
-0.038393 -0.005459 0.0
-0.037501 -0.006681 0.0
-0.036413 -0.007911 0.0
-0.035124 -0.009142 0.0
-0.033634 -0.010362 0.0
-0.031944 -0.011562 0.0
-0.030055 -0.012730 0.0
-0.027974 -0.013853 0.0
-0.025706 -0.014919 0.0
-0.023261 -0.015914 0.0
-0.020652 -0.016825 0.0
-0.017892 -0.017640 0.0
-0.014999 -0.018343 0.0
-0.011995 -0.018905 0.0
-0.008911 -0.019222 0.0
-0.005818 -0.018903 0.0
-0.002919 -0.016679 0.0
-0.000778 -0.009378 0.0
-0.000484 0.006969 0.0
-0.001883 0.013316 0.0
-0.003857 0.015438 0.0
-0.006004 0.015911 0.0
-0.008180 0.015894 0.0
-0.010344 0.015738 0.0
-0.012484 0.015523 0.0
-0.014592 0.015262 0.0
-0.016663 0.014958 0.0
-0.018690 0.014610 0.0
-0.020669 0.014219 0.0
-0.022594 0.013784 0.0
-0.024460 0.013305 0.0
-0.026260 0.012781 0.0
-0.027988 0.012212 0.0
-0.029640 0.011598 0.0
-0.031210 0.010937 0.0
-0.032691 0.010228 0.0
-0.034077 0.009472 0.0
-0.035363 0.008668 0.0
-0.036541 0.007813 0.0
-0.037605 0.006909 0.0
-0.038548 0.005954 0.0
-0.039364 0.004947 0.0
-0.040044 0.003890 0.0
-0.040582 0.002782 0.0
-0.040969 0.001623 0.0
-0.041198 0.000416 0.0
-0.041262 -0.000837 0.0
-0.041151 -0.002134 0.0
-0.040859 -0.003471 0.0
-0.040379 -0.004843 0.0
-0.039703 -0.006243 0.0
-0.038826 -0.007665 0.0
-0.037743 -0.009099 0.0
-0.036450 -0.010536 0.0
-0.034945 -0.011964 0.0
-0.033227 -0.013370 0.0
-0.031298 -0.014740 0.0
-0.029161 -0.016061 0.0
-0.026825 -0.017316 0.0
-0.024297 -0.018489 0.0
-0.021591 -0.019566 0.0
-0.018720 -0.020530 0.0
-0.015705 -0.021362 0.0
-0.012567 -0.022028 0.0
-0.009341 -0.022409 0.0
-0.006103 -0.022048 0.0
-0.003065 -0.019472 0.0
-0.000818 -0.010974 0.0
-0.000492 0.007945 0.0
-0.001918 0.015165 0.0
-0.003931 0.017575 0.0
-0.006122 0.018111 0.0
-0.008344 0.018092 0.0
-0.010554 0.017915 0.0
-0.012739 0.017671 0.0
-0.014893 0.017376 0.0
-0.017010 0.017031 0.0
-0.019084 0.016638 0.0
-0.021110 0.016196 0.0
-0.023081 0.015704 0.0
-0.024994 0.015163 0.0
-0.026841 0.014571 0.0
-0.028619 0.013928 0.0
-0.030320 0.013235 0.0
-0.031939 0.012488 0.0
-0.033470 0.011689 0.0
-0.034908 0.010836 0.0
-0.036246 0.009927 0.0
-0.037477 0.008963 0.0
-0.038595 0.007941 0.0
-0.039593 0.006862 0.0
-0.040463 0.005724 0.0
-0.041199 0.004528 0.0
-0.041790 0.003273 0.0
-0.042231 0.001960 0.0
-0.042512 0.000590 0.0
-0.042624 -0.000835 0.0
-0.042559 -0.002312 0.0
-0.042308 -0.003836 0.0
-0.041863 -0.005403 0.0
-0.041215 -0.007006 0.0
-0.040357 -0.008636 0.0
-0.039284 -0.010284 0.0
-0.037988 -0.011939 0.0
-0.036468 -0.013586 0.0
-0.034721 -0.015212 0.0
-0.032747 -0.016801 0.0
-0.030549 -0.018334 0.0
-0.028135 -0.019794 0.0
-0.025512 -0.021162 0.0
-0.022693 -0.022419 0.0
-0.019695 -0.023546 0.0
-0.016536 -0.024521 0.0
-0.013241 -0.025302 0.0
-0.009849 -0.025753 0.0
-0.006440 -0.025351 0.0
-0.003238 -0.022408 0.0
-0.000865 -0.012657 0.0
-0.000501 0.008938 0.0
-0.001956 0.017054 0.0
-0.004015 0.019758 0.0
-0.006255 0.020360 0.0
-0.008528 0.020338 0.0
-0.010790 0.020141 0.0
-0.013027 0.019868 0.0
-0.015232 0.019538 0.0
-0.017400 0.019154 0.0
-0.019526 0.018715 0.0
-0.021604 0.018222 0.0
-0.023628 0.017674 0.0
-0.025593 0.017070 0.0
-0.027494 0.016411 0.0
-0.029325 0.015696 0.0
-0.031080 0.014924 0.0
-0.032755 0.014093 0.0
-0.034344 0.013204 0.0
-0.035839 0.012254 0.0
-0.037236 0.011243 0.0
-0.038527 0.010170 0.0
-0.039706 0.009032 0.0
-0.040765 0.007829 0.0
-0.041698 0.006560 0.0
-0.042496 0.005225 0.0
-0.043150 0.003822 0.0
-0.043652 0.002353 0.0
-0.043993 0.000818 0.0
-0.044163 -0.000781 0.0
-0.044152 -0.002442 0.0
-0.043951 -0.004159 0.0
-0.043549 -0.005928 0.0
-0.042936 -0.007741 0.0
-0.042105 -0.009590 0.0
-0.041046 -0.011464 0.0
-0.039752 -0.013349 0.0
-0.038218 -0.015231 0.0
-0.036441 -0.017093 0.0
-0.034419 -0.018916 0.0
-0.032155 -0.020680 0.0
-0.029653 -0.022364 0.0
-0.026922 -0.023945 0.0
-0.023976 -0.025401 0.0
-0.020829 -0.026708 0.0
-0.017505 -0.027841 0.0
-0.014029 -0.028752 0.0
-0.010443 -0.029282 0.0
-0.006834 -0.028840 0.0
-0.003440 -0.025514 0.0
-0.000921 -0.014443 0.0
-0.000511 0.009950 0.0
-0.002000 0.018985 0.0
-0.004107 0.021993 0.0
-0.006404 0.022662 0.0
-0.008733 0.022638 0.0
-0.011052 0.022420 0.0
-0.013346 0.022119 0.0
-0.015608 0.021755 0.0
-0.017833 0.021331 0.0
-0.020016 0.020847 0.0
-0.022151 0.020303 0.0
-0.024233 0.019699 0.0
-0.026256 0.019034 0.0
-0.028216 0.018308 0.0
-0.030106 0.017521 0.0
-0.031922 0.016671 0.0
-0.033659 0.015757 0.0
-0.035309 0.014779 0.0
-0.036869 0.013734 0.0
-0.038331 0.012622 0.0
-0.039689 0.011440 0.0
-0.040936 0.010187 0.0
-0.042065 0.008862 0.0
-0.043068 0.007463 0.0
-0.043937 0.005989 0.0
-0.044662 0.004439 0.0
-0.045235 0.002812 0.0
-0.045646 0.001110 0.0
-0.045883 -0.000666 0.0
-0.045937 -0.002514 0.0
-0.045794 -0.004430 0.0
-0.045445 -0.006408 0.0
-0.044877 -0.008441 0.0
-0.044080 -0.010519 0.0
-0.043042 -0.012631 0.0
-0.041756 -0.014762 0.0
-0.040212 -0.016895 0.0
-0.038406 -0.019012 0.0
-0.036334 -0.021090 0.0
-0.033998 -0.023107 0.0
-0.031400 -0.025037 0.0
-0.028549 -0.026854 0.0
-0.025457 -0.028530 0.0
-0.022143 -0.030039 0.0
-0.018629 -0.031349 0.0
-0.014944 -0.032404 0.0
-0.011134 -0.033025 0.0
-0.007293 -0.032547 0.0
-0.003676 -0.028818 0.0
-0.000986 -0.016350 0.0
-0.000523 0.010984 0.0
-0.002047 0.020963 0.0
-0.004210 0.024285 0.0
-0.006567 0.025023 0.0
-0.008959 0.024999 0.0
-0.011340 0.024760 0.0
-0.013696 0.024430 0.0
-0.016021 0.024032 0.0
-0.018309 0.023567 0.0
-0.020554 0.023038 0.0
-0.022752 0.022444 0.0
-0.024896 0.021784 0.0
-0.026983 0.021058 0.0
-0.029007 0.020267 0.0
-0.030962 0.019408 0.0
-0.032844 0.018482 0.0
-0.034647 0.017486 0.0
-0.036367 0.016420 0.0
-0.037996 0.015282 0.0
-0.039530 0.014070 0.0
-0.040961 0.012782 0.0
-0.042284 0.011415 0.0
-0.043490 0.009969 0.0
-0.044571 0.008441 0.0
-0.045520 0.006829 0.0
-0.046327 0.005131 0.0
-0.046981 0.003347 0.0
-0.047472 0.001477 0.0
-0.047788 -0.000479 0.0
-0.047916 -0.002519 0.0
-0.047845 -0.004639 0.0
-0.047560 -0.006834 0.0
-0.047047 -0.009096 0.0
-0.046294 -0.011415 0.0
-0.045288 -0.013779 0.0
-0.044016 -0.016172 0.0
-0.042468 -0.018576 0.0
-0.040636 -0.020969 0.0
-0.038515 -0.023326 0.0
-0.036102 -0.025621 0.0
-0.033400 -0.027823 0.0
-0.030416 -0.029903 0.0
-0.027162 -0.031826 0.0
-0.023658 -0.033562 0.0
-0.019927 -0.035072 0.0
-0.016002 -0.036291 0.0
-0.011933 -0.037017 0.0
-0.007824 -0.036505 0.0
-0.003950 -0.032351 0.0
-0.001061 -0.018396 0.0
-0.000535 0.012041 0.0
-0.002099 0.022994 0.0
-0.004321 0.026639 0.0
-0.006745 0.027450 0.0
-0.009205 0.027424 0.0
-0.011654 0.027165 0.0
-0.014078 0.026806 0.0
-0.016471 0.026373 0.0
-0.018827 0.025869 0.0
-0.021140 0.025295 0.0
-0.023405 0.024650 0.0
-0.025618 0.023935 0.0
-0.027773 0.023149 0.0
-0.029866 0.022292 0.0
-0.031891 0.021363 0.0
-0.033844 0.020362 0.0
-0.035720 0.019285 0.0
-0.037514 0.018133 0.0
-0.039219 0.016903 0.0
-0.040831 0.015593 0.0
-0.042343 0.014201 0.0
-0.043748 0.012724 0.0
-0.045039 0.011158 0.0
-0.046208 0.009503 0.0
-0.047246 0.007754 0.0
-0.048144 0.005910 0.0
-0.048890 0.003969 0.0
-0.049473 0.001929 0.0
-0.049879 -0.000209 0.0
-0.050096 -0.002444 0.0
-0.050109 -0.004773 0.0
-0.049901 -0.007192 0.0
-0.049458 -0.009693 0.0
-0.048763 -0.012266 0.0
-0.047799 -0.014898 0.0
-0.046552 -0.017572 0.0
-0.045009 -0.020268 0.0
-0.043156 -0.022961 0.0
-0.040986 -0.025625 0.0
-0.038495 -0.028227 0.0
-0.035681 -0.030733 0.0
-0.032552 -0.033106 0.0
-0.029118 -0.035309 0.0
-0.025400 -0.037302 0.0
-0.021423 -0.039040 0.0
-0.017223 -0.040448 0.0
-0.012858 -0.041296 0.0
-0.008440 -0.040754 0.0
-0.004267 -0.036150 0.0
-0.001148 -0.020605 0.0
-0.000548 0.013124 0.0
-0.002155 0.025082 0.0
-0.004442 0.029062 0.0
-0.006938 0.029947 0.0
-0.009472 0.029921 0.0
-0.011995 0.029640 0.0
-0.014493 0.029253 0.0
-0.016959 0.028785 0.0
-0.019387 0.028241 0.0
-0.021773 0.027622 0.0
-0.024111 0.026927 0.0
-0.026397 0.026157 0.0
-0.028626 0.025311 0.0
-0.030793 0.024390 0.0
-0.032893 0.023392 0.0
-0.034922 0.022316 0.0
-0.036876 0.021161 0.0
-0.038749 0.019924 0.0
-0.040536 0.018605 0.0
-0.042232 0.017200 0.0
-0.043831 0.015706 0.0
-0.045326 0.014120 0.0
-0.046711 0.012438 0.0
-0.047976 0.010658 0.0
-0.049113 0.008775 0.0
-0.050112 0.006786 0.0
-0.050962 0.004688 0.0
-0.051649 0.002480 0.0
-0.052161 0.000159 0.0
-0.052481 -0.002275 0.0
-0.052593 -0.004818 0.0
-0.052479 -0.007468 0.0
-0.052121 -0.010218 0.0
-0.051499 -0.013058 0.0
-0.050594 -0.015975 0.0
-0.049386 -0.018950 0.0
-0.047858 -0.021962 0.0
-0.045993 -0.024984 0.0
-0.043780 -0.027985 0.0
-0.041210 -0.030929 0.0
-0.038279 -0.033775 0.0
-0.034992 -0.036481 0.0
-0.031360 -0.039001 0.0
-0.027401 -0.041287 0.0
-0.023145 -0.043288 0.0
-0.018632 -0.044912 0.0
-0.013926 -0.045903 0.0
-0.009151 -0.045338 0.0
-0.004634 -0.040256 0.0
-0.001249 -0.023002 0.0
-0.000562 0.014235 0.0
-0.002215 0.027231 0.0
-0.004572 0.031558 0.0
-0.007146 0.032521 0.0
-0.009759 0.032494 0.0
-0.012362 0.032193 0.0
-0.014939 0.031776 0.0
-0.017484 0.031273 0.0
-0.019990 0.030689 0.0
-0.022454 0.030024 0.0
-0.024870 0.029279 0.0
-0.027234 0.028454 0.0
-0.029540 0.027549 0.0
-0.031786 0.026564 0.0
-0.033965 0.025498 0.0
-0.036075 0.024349 0.0
-0.038112 0.023117 0.0
-0.040069 0.021799 0.0
-0.041944 0.020392 0.0
-0.043730 0.018895 0.0
-0.045423 0.017302 0.0
-0.047016 0.015611 0.0
-0.048501 0.013817 0.0
-0.049872 0.011915 0.0
-0.051118 0.009901 0.0
-0.052230 0.007770 0.0
-0.053196 0.005519 0.0
-0.054002 0.003142 0.0
-0.054633 0.000638 0.0
-0.055073 -0.001995 0.0
-0.055303 -0.004757 0.0
-0.055302 -0.007645 0.0
-0.055048 -0.010654 0.0
-0.054519 -0.013774 0.0
-0.053691 -0.016992 0.0
-0.052540 -0.020291 0.0
-0.051043 -0.023646 0.0
-0.049179 -0.027028 0.0
-0.046931 -0.030403 0.0
-0.044285 -0.033728 0.0
-0.041234 -0.036958 0.0
-0.037778 -0.040041 0.0
-0.033927 -0.042924 0.0
-0.029701 -0.045549 0.0
-0.025130 -0.047853 0.0
-0.020259 -0.049731 0.0
-0.015161 -0.050891 0.0
-0.009976 -0.050309 0.0
-0.005060 -0.044717 0.0
-0.001367 -0.025619 0.0
-0.000578 0.015374 0.0
-0.002280 0.029446 0.0
-0.004713 0.034133 0.0
-0.007370 0.035177 0.0
-0.010069 0.035150 0.0
-0.012756 0.034827 0.0
-0.015418 0.034380 0.0
-0.018047 0.033842 0.0
-0.020637 0.033217 0.0
-0.023183 0.032506 0.0
-0.025681 0.031711 0.0
-0.028127 0.030831 0.0
-0.030516 0.029867 0.0
-0.032844 0.028819 0.0
-0.035108 0.027686 0.0
-0.037303 0.026466 0.0
-0.039426 0.025159 0.0
-0.041473 0.023762 0.0
-0.043440 0.022271 0.0
-0.045322 0.020685 0.0
-0.047115 0.018997 0.0
-0.048812 0.017205 0.0
-0.050407 0.015303 0.0
-0.051892 0.013284 0.0
-0.053258 0.011144 0.0
-0.054494 0.008876 0.0
-0.055590 0.006474 0.0
-0.056530 0.003933 0.0
-0.057298 0.001247 0.0
-0.057876 -0.001586 0.0
-0.058243 -0.004569 0.0
-0.058376 -0.007701 0.0
-0.058250 -0.010977 0.0
-0.057838 -0.014391 0.0
-0.057111 -0.017930 0.0
-0.056040 -0.021576 0.0
-0.054595 -0.025303 0.0
-0.052750 -0.029080 0.0
-0.050480 -0.032869 0.0
-0.047765 -0.036622 0.0
-0.044592 -0.040286 0.0
-0.040959 -0.043802 0.0
-0.036870 -0.047103 0.0
-0.032346 -0.050121 0.0
-0.027419 -0.052779 0.0
-0.022141 -0.054954 0.0
-0.016591 -0.056315 0.0
-0.010932 -0.055729 0.0
-0.005555 -0.049590 0.0
-0.001504 -0.028490 0.0
-0.000594 0.016546 0.0
-0.002349 0.031732 0.0
-0.004863 0.036793 0.0
-0.007610 0.037921 0.0
-0.010400 0.037894 0.0
-0.013179 0.037549 0.0
-0.015930 0.037072 0.0
-0.018648 0.036497 0.0
-0.021326 0.035830 0.0
-0.023960 0.035073 0.0
-0.026545 0.034227 0.0
-0.029077 0.033293 0.0
-0.031552 0.032270 0.0
-0.033967 0.031159 0.0
-0.036318 0.029960 0.0
-0.038602 0.028671 0.0
-0.040816 0.027291 0.0
-0.042957 0.025817 0.0
-0.045021 0.024246 0.0
-0.047004 0.022575 0.0
-0.048902 0.020798 0.0
-0.050710 0.018910 0.0
-0.052422 0.016905 0.0
-0.054030 0.014776 0.0
-0.055526 0.012515 0.0
-0.056900 0.010116 0.0
-0.058139 0.007569 0.0
-0.059229 0.004868 0.0
-0.060152 0.002004 0.0
-0.060889 -0.001028 0.0
-0.061417 -0.004232 0.0
-0.061710 -0.007611 0.0
-0.061739 -0.011164 0.0
-0.061472 -0.014884 0.0
-0.060875 -0.018761 0.0
-0.059912 -0.022778 0.0
-0.058548 -0.026909 0.0
-0.056746 -0.031121 0.0
-0.054473 -0.035371 0.0
-0.051702 -0.039606 0.0
-0.048413 -0.043764 0.0
-0.044594 -0.047776 0.0
-0.040250 -0.051562 0.0
-0.035396 -0.055040 0.0
-0.030068 -0.058115 0.0
-0.024323 -0.060642 0.0
-0.018254 -0.062245 0.0
-0.012045 -0.061668 0.0
-0.006131 -0.054942 0.0
-0.001663 -0.031657 0.0
-0.000611 0.017751 0.0
-0.002423 0.034094 0.0
-0.005023 0.039545 0.0
-0.007867 0.040760 0.0
-0.010754 0.040733 0.0
-0.013630 0.040364 0.0
-0.016477 0.039855 0.0
-0.019289 0.039243 0.0
-0.022060 0.038533 0.0
-0.024786 0.037729 0.0
-0.027462 0.036832 0.0
-0.030084 0.035842 0.0
-0.032649 0.034761 0.0
-0.035154 0.033588 0.0
-0.037596 0.032324 0.0
-0.039972 0.030968 0.0
-0.042280 0.029517 0.0
-0.044518 0.027970 0.0
-0.046683 0.026322 0.0
-0.048771 0.024571 0.0
-0.050780 0.022709 0.0
-0.052705 0.020731 0.0
-0.054541 0.018631 0.0
-0.056281 0.016398 0.0
-0.057918 0.014025 0.0
-0.059441 0.011502 0.0
-0.060838 0.008819 0.0
-0.062095 0.005964 0.0
-0.063193 0.002929 0.0
-0.064112 -0.000297 0.0
-0.064827 -0.003721 0.0
-0.065308 -0.007348 0.0
-0.065523 -0.011182 0.0
-0.065436 -0.015220 0.0
-0.065005 -0.019453 0.0
-0.064187 -0.023866 0.0
-0.062938 -0.028435 0.0
-0.061212 -0.033124 0.0
-0.058964 -0.037888 0.0
-0.056158 -0.042667 0.0
-0.052762 -0.047390 0.0
-0.048757 -0.051974 0.0
-0.044138 -0.056327 0.0
-0.038921 -0.060346 0.0
-0.033141 -0.063916 0.0
-0.026862 -0.066864 0.0
-0.020194 -0.068761 0.0
-0.013344 -0.068212 0.0
-0.006805 -0.060851 0.0
-0.001850 -0.035170 0.0
-0.000630 0.018991 0.0
-0.002502 0.036538 0.0
-0.005195 0.042394 0.0
-0.008141 0.043700 0.0
-0.011132 0.043672 0.0
-0.014110 0.043279 0.0
-0.017059 0.042737 0.0
-0.019971 0.042085 0.0
-0.022840 0.041332 0.0
-0.025662 0.040479 0.0
-0.028432 0.039529 0.0
-0.031148 0.038483 0.0
-0.033806 0.037343 0.0
-0.036404 0.036109 0.0
-0.038939 0.034781 0.0
-0.041409 0.033358 0.0
-0.043814 0.031840 0.0
-0.046152 0.030222 0.0
-0.048420 0.028503 0.0
-0.050618 0.026676 0.0
-0.052741 0.024736 0.0
-0.054789 0.022676 0.0
-0.056755 0.020488 0.0
-0.058635 0.018161 0.0
-0.060422 0.015686 0.0
-0.062107 0.013049 0.0
-0.063677 0.010239 0.0
-0.065119 0.007242 0.0
-0.066413 0.004044 0.0
-0.067539 0.000633 0.0
-0.068469 -0.003005 0.0
-0.069172 -0.006880 0.0
-0.069610 -0.010997 0.0
-0.069743 -0.015360 0.0
-0.069521 -0.019965 0.0
-0.068894 -0.024799 0.0
-0.067806 -0.029840 0.0
-0.066198 -0.035053 0.0
-0.064015 -0.040389 0.0
-0.061204 -0.045783 0.0
-0.057720 -0.051153 0.0
-0.053532 -0.056404 0.0
-0.048626 -0.061422 0.0
-0.043010 -0.066084 0.0
-0.036722 -0.070247 0.0
-0.029832 -0.073701 0.0
-0.022467 -0.075957 0.0
-0.014870 -0.075462 0.0
-0.007596 -0.067414 0.0
-0.002069 -0.039089 0.0
-0.000649 0.020271 0.0
-0.002587 0.039069 0.0
-0.005378 0.045347 0.0
-0.008433 0.046747 0.0
-0.011535 0.046718 0.0
-0.014623 0.046299 0.0
-0.017679 0.045721 0.0
-0.020695 0.045029 0.0
-0.023667 0.044229 0.0
-0.026589 0.043326 0.0
-0.029458 0.042321 0.0
-0.032270 0.041218 0.0
-0.035023 0.040019 0.0
-0.037716 0.038723 0.0
-0.040346 0.037332 0.0
-0.042913 0.035845 0.0
-0.045416 0.034261 0.0
-0.047855 0.032577 0.0
-0.050229 0.030790 0.0
-0.052538 0.028894 0.0
-0.054780 0.026884 0.0
-0.056953 0.024750 0.0
-0.059056 0.022483 0.0
-0.061083 0.020073 0.0
-0.063029 0.017507 0.0
-0.064887 0.014770 0.0
-0.066645 0.011847 0.0
-0.068290 0.008721 0.0
-0.069803 0.005374 0.0
-0.071161 0.001788 0.0
-0.072339 -0.002054 0.0
-0.073300 -0.006167 0.0
-0.074004 -0.010566 0.0
-0.074404 -0.015259 0.0
-0.074444 -0.020248 0.0
-0.074063 -0.025525 0.0
-0.073192 -0.031073 0.0
-0.071760 -0.036859 0.0
-0.069694 -0.042832 0.0
-0.066923 -0.048922 0.0
-0.063383 -0.055037 0.0
-0.059026 -0.061064 0.0
-0.053824 -0.066870 0.0
-0.047775 -0.072301 0.0
-0.040915 -0.077179 0.0
-0.033322 -0.081251 0.0
-0.025146 -0.083949 0.0
-0.016670 -0.083543 0.0
-0.008531 -0.074746 0.0
-0.002328 -0.043486 0.0
-0.000671 0.021591 0.0
-0.002677 0.041693 0.0
-0.005574 0.048412 0.0
-0.008746 0.049909 0.0
-0.011966 0.049878 0.0
-0.015169 0.049430 0.0
-0.018338 0.048815 0.0
-0.021464 0.048078 0.0
-0.024543 0.047229 0.0
-0.027569 0.046273 0.0
-0.030539 0.045213 0.0
-0.033451 0.044051 0.0
-0.036301 0.042790 0.0
-0.039090 0.041433 0.0
-0.041816 0.039979 0.0
-0.044480 0.038429 0.0
-0.047082 0.036782 0.0
-0.049623 0.035036 0.0
-0.052103 0.033186 0.0
-0.054524 0.031228 0.0
-0.056886 0.029154 0.0
-0.059189 0.026956 0.0
-0.061431 0.024623 0.0
-0.063612 0.022142 0.0
-0.065726 0.019499 0.0
-0.067767 0.016677 0.0
-0.069727 0.013658 0.0
-0.071592 0.010420 0.0
-0.073346 0.006942 0.0
-0.074966 0.003199 0.0
-0.076424 -0.000830 0.0
-0.077684 -0.005170 0.0
-0.078702 -0.009842 0.0
-0.079424 -0.014862 0.0
-0.079788 -0.020241 0.0
-0.079720 -0.025981 0.0
-0.079140 -0.032069 0.0
-0.077957 -0.038478 0.0
-0.076078 -0.045158 0.0
-0.073409 -0.052036 0.0
-0.069863 -0.059009 0.0
-0.065366 -0.065946 0.0
-0.059868 -0.072688 0.0
-0.053354 -0.079045 0.0
-0.045853 -0.084796 0.0
-0.037452 -0.089628 0.0
-0.028324 -0.092876 0.0
-0.018809 -0.092607 0.0
-0.009642 -0.082990 0.0
-0.002636 -0.048450 0.0
-0.000693 0.022954 0.0
-0.002774 0.044417 0.0
-0.005785 0.051596 0.0
-0.009081 0.053193 0.0
-0.012425 0.053158 0.0
-0.015751 0.052679 0.0
-0.019039 0.052023 0.0
-0.022281 0.051239 0.0
-0.025472 0.050338 0.0
-0.028606 0.049325 0.0
-0.031680 0.048205 0.0
-0.034692 0.046982 0.0
-0.037642 0.045659 0.0
-0.040527 0.044238 0.0
-0.043349 0.042722 0.0
-0.046110 0.041110 0.0
-0.048809 0.039403 0.0
-0.051451 0.037598 0.0
-0.054037 0.035691 0.0
-0.056570 0.033677 0.0
-0.059052 0.031549 0.0
-0.061485 0.029297 0.0
-0.063870 0.026909 0.0
-0.066207 0.024372 0.0
-0.068494 0.021670 0.0
-0.070728 0.018782 0.0
-0.072902 0.015687 0.0
-0.075006 0.012359 0.0
-0.077023 0.008773 0.0
-0.078933 0.004898 0.0
-0.080708 0.000704 0.0
-0.082311 -0.003841 0.0
-0.083696 -0.008769 0.0
-0.084803 -0.014105 0.0
-0.085563 -0.019874 0.0
-0.085891 -0.026087 0.0
-0.085690 -0.032744 0.0
-0.084850 -0.039826 0.0
-0.083252 -0.047287 0.0
-0.080773 -0.055054 0.0
-0.077294 -0.063017 0.0
-0.072706 -0.071024 0.0
-0.066930 -0.078884 0.0
-0.059925 -0.086368 0.0
-0.051708 -0.093192 0.0
-0.042373 -0.098968 0.0
-0.032125 -0.102911 0.0
-0.021370 -0.102841 0.0
-0.010971 -0.092322 0.0
-0.003004 -0.054091 0.0
-0.000718 0.024365 0.0
-0.002879 0.047248 0.0
-0.006010 0.054907 0.0
-0.009439 0.056607 0.0
-0.012917 0.056566 0.0
-0.016373 0.056053 0.0
-0.019787 0.055351 0.0
-0.023150 0.054515 0.0
-0.026457 0.053558 0.0
-0.029702 0.052484 0.0
-0.032883 0.051301 0.0
-0.035997 0.050013 0.0
-0.039045 0.048625 0.0
-0.042027 0.047139 0.0
-0.044944 0.045560 0.0
-0.047799 0.043887 0.0
-0.050595 0.042121 0.0
-0.053335 0.040261 0.0
-0.056024 0.038302 0.0
-0.058666 0.036240 0.0
-0.061266 0.034067 0.0
-0.063828 0.031773 0.0
-0.066356 0.029345 0.0
-0.068851 0.026769 0.0
-0.071316 0.024026 0.0
-0.073750 0.021094 0.0
-0.076149 0.017947 0.0
-0.078505 0.014558 0.0
-0.080807 0.010893 0.0
-0.083035 0.006917 0.0
-0.085164 0.002589 0.0
-0.087157 -0.002131 0.0
-0.088966 -0.007286 0.0
-0.090530 -0.012917 0.0
-0.091769 -0.019062 0.0
-0.092590 -0.025750 0.0
-0.092878 -0.032995 0.0
-0.092500 -0.040793 0.0
-0.091307 -0.049111 0.0
-0.089139 -0.057878 0.0
-0.085832 -0.066979 0.0
-0.081235 -0.076246 0.0
-0.075222 -0.085452 0.0
-0.067713 -0.094313 0.0
-0.058703 -0.102473 0.0
-0.048287 -0.109438 0.0
-0.036709 -0.114267 0.0
-0.024464 -0.114485 0.0
-0.012575 -0.102965 0.0
-0.003447 -0.060542 0.0
-0.000744 0.025827 0.0
-0.002991 0.050194 0.0
-0.006254 0.058354 0.0
-0.009826 0.060160 0.0
-0.013446 0.060111 0.0
-0.017040 0.059558 0.0
-0.020586 0.058806 0.0
-0.024076 0.057913 0.0
-0.027503 0.056893 0.0
-0.030862 0.055754 0.0
-0.034151 0.054502 0.0
-0.037369 0.053145 0.0
-0.040515 0.051688 0.0
-0.043592 0.050135 0.0
-0.046602 0.048491 0.0
-0.049548 0.046757 0.0
-0.052436 0.044935 0.0
-0.055270 0.043023 0.0
-0.058058 0.041018 0.0
-0.060805 0.038915 0.0
-0.063519 0.036706 0.0
-0.066206 0.034383 0.0
-0.068873 0.031930 0.0
-0.071526 0.029333 0.0
-0.074170 0.026571 0.0
-0.076807 0.023620 0.0
-0.079438 0.020451 0.0
-0.082060 0.017033 0.0
-0.084664 0.013325 0.0
-0.087237 0.009286 0.0
-0.089756 0.004867 0.0
-0.092187 0.000015 0.0
-0.094482 -0.005327 0.0