# vtk DataFile Version 3.0
Vector Field
ASCII
DATASET RECTILINEAR_GRID
DIMENSIONS 50 50 1
X_COORDINATES 50 double
0.100000 0.300000 0.500000 0.700000 0.900000 1.100000 1.300000 1.500000 1.700000 1.900000 2.100000 2.300000 2.500000 2.700000 2.900000 3.100000 3.300000 3.500000 3.700000 3.900000 4.100000 4.300000 4.500000 4.700000 4.900000 5.100000 5.300000 5.500000 5.700000 5.900000 6.100000 6.300000 6.500000 6.700000 6.900000 7.100000 7.300000 7.500000 7.700000 7.900000 8.100000 8.300000 8.500000 8.700000 8.900000 9.100000 9.300000 9.500000 9.700000 9.900000 
Y_COORDINATES 50 double
0.100000 0.300000 0.500000 0.700000 0.900000 1.100000 1.300000 1.500000 1.700000 1.900000 2.100000 2.300000 2.500000 2.700000 2.900000 3.100000 3.300000 3.500000 3.700000 3.900000 4.100000 4.300000 4.500000 4.700000 4.900000 5.100000 5.300000 5.500000 5.700000 5.900000 6.100000 6.300000 6.500000 6.700000 6.900000 7.100000 7.300000 7.500000 7.700000 7.900000 8.100000 8.300000 8.500000 8.700000 8.900000 9.100000 9.300000 9.500000 9.700000 9.900000 
Z_COORDINATES 1 double
0.0
POINT_DATA 2500
VECTORS Vektorfeld double
-0.000140 0.000140 0.0
-0.000638 0.000359 0.0
-0.001445 0.000448 0.0
-0.002365 0.000471 0.0
-0.003310 0.000474 0.0
-0.004254 0.000471 0.0
-0.005192 0.000467 0.0
-0.006122 0.000463 0.0
-0.007042 0.000458 0.0
-0.007951 0.000452 0.0
-0.008847 0.000445 0.0
-0.009729 0.000437 0.0
-0.010593 0.000427 0.0
-0.011437 0.000417 0.0
-0.012260 0.000405 0.0
-0.013057 0.000392 0.0
-0.013826 0.000377 0.0
-0.014564 0.000361 0.0
-0.015267 0.000342 0.0
-0.015932 0.000322 0.0
-0.016554 0.000300 0.0
-0.017129 0.000275 0.0
-0.017652 0.000248 0.0
-0.018120 0.000219 0.0
-0.018526 0.000187 0.0
-0.018866 0.000153 0.0
-0.019134 0.000116 0.0
-0.019327 0.000076 0.0
-0.019437 0.000034 0.0
-0.019461 -0.000010 0.0
-0.019393 -0.000057 0.0
-0.019229 -0.000107 0.0
-0.018963 -0.000159 0.0
-0.018592 -0.000212 0.0
-0.018113 -0.000267 0.0
-0.017524 -0.000322 0.0
-0.016823 -0.000378 0.0
-0.016011 -0.000434 0.0
-0.015088 -0.000489 0.0
-0.014057 -0.000542 0.0
-0.012921 -0.000593 0.0
-0.011688 -0.000641 0.0
-0.010362 -0.000685 0.0
-0.008952 -0.000725 0.0
-0.007469 -0.000759 0.0
-0.005923 -0.000787 0.0
-0.004334 -0.000802 0.0
-0.002751 -0.000781 0.0
-0.001308 -0.000662 0.0
-0.000323 -0.000323 0.0
-0.000366 0.000646 0.0
-0.001453 0.001438 0.0
-0.003036 0.001759 0.0
-0.004803 0.001848 0.0
-0.006619 0.001858 0.0
-0.008435 0.001847 0.0
-0.010236 0.001830 0.0
-0.012016 0.001810 0.0
-0.013771 0.001786 0.0
-0.015496 0.001758 0.0
-0.017186 0.001726 0.0
-0.018839 0.001689 0.0
-0.020447 0.001648 0.0
-0.022008 0.001602 0.0
-0.023514 0.001550 0.0
-0.024962 0.001493 0.0
-0.026345 0.001429 0.0
-0.027658 0.001359 0.0
-0.028894 0.001283 0.0
-0.030046 0.001199 0.0
-0.031109 0.001107 0.0
-0.032074 0.001008 0.0
-0.032935 0.000900 0.0
-0.033685 0.000784 0.0
-0.034314 0.000658 0.0
-0.034817 0.000524 0.0
-0.035185 0.000381 0.0
-0.035410 0.000228 0.0
-0.035484 0.000067 0.0
-0.035402 -0.000102 0.0
-0.035154 -0.000281 0.0
-0.034735 -0.000467 0.0
-0.034141 -0.000659 0.0
-0.033366 -0.000857 0.0
-0.032407 -0.001059 0.0
-0.031263 -0.001264 0.0
-0.029932 -0.001469 0.0
-0.028416 -0.001672 0.0
-0.026720 -0.001871 0.0
-0.024846 -0.002064 0.0
-0.022805 -0.002248 0.0
-0.020603 -0.002421 0.0
-0.018255 -0.002579 0.0
-0.015772 -0.002722 0.0
-0.013173 -0.002845 0.0
-0.010477 -0.002942 0.0
-0.007722 -0.002990 0.0
-0.004986 -0.002911 0.0
-0.002471 -0.002491 0.0
-0.000652 -0.001298 0.0
-0.000465 0.001478 0.0
-0.001807 0.003034 0.0
-0.003715 0.003653 0.0
-0.005821 0.003828 0.0
-0.007976 0.003849 0.0
-0.010130 0.003826 0.0
-0.012265 0.003787 0.0
-0.014372 0.003740 0.0
-0.016447 0.003684 0.0
-0.018482 0.003620 0.0
-0.020474 0.003546 0.0
-0.022415 0.003462 0.0
-0.024301 0.003369 0.0
-0.026125 0.003265 0.0
-0.027881 0.003150 0.0
-0.029564 0.003023 0.0
-0.031165 0.002884 0.0
-0.032679 0.002731 0.0
-0.034098 0.002566 0.0
-0.035415 0.002386 0.0
-0.036623 0.002191 0.0
-0.037713 0.001980 0.0
-0.038678 0.001754 0.0
-0.039510 0.001511 0.0
-0.040200 0.001251 0.0
-0.040739 0.000974 0.0
-0.041120 0.000680 0.0
-0.041334 0.000368 0.0
-0.041373 0.000041 0.0
-0.041228 -0.000303 0.0
-0.040895 -0.000662 0.0
-0.040365 -0.001034 0.0
-0.039633 -0.001418 0.0
-0.038696 -0.001811 0.0
-0.037550 -0.002211 0.0
-0.036194 -0.002614 0.0
-0.034627 -0.003016 0.0
-0.032852 -0.003415 0.0
-0.030872 -0.003805 0.0
-0.028695 -0.004181 0.0
-0.026328 -0.004540 0.0
-0.023782 -0.004876 0.0
-0.021071 -0.005184 0.0
-0.018211 -0.005460 0.0
-0.015221 -0.005697 0.0
-0.012124 -0.005882 0.0
-0.008960 -0.005970 0.0
-0.005814 -0.005813 0.0
-0.002903 -0.005015 0.0
-0.000773 -0.002723 0.0
-0.000496 0.002439 0.0
-0.001925 0.004843 0.0
-0.003949 0.005775 0.0
-0.006174 0.006037 0.0
-0.008446 0.006068 0.0
-0.010714 0.006029 0.0
-0.012962 0.005966 0.0
-0.015180 0.005887 0.0
-0.017362 0.005794 0.0
-0.019502 0.005686 0.0
-0.021595 0.005564 0.0
-0.023634 0.005425 0.0
-0.025614 0.005271 0.0
-0.027528 0.005100 0.0
-0.029369 0.004912 0.0
-0.031131 0.004705 0.0
-0.032807 0.004479 0.0
-0.034391 0.004233 0.0
-0.035874 0.003966 0.0
-0.037250 0.003678 0.0
-0.038510 0.003367 0.0
-0.039647 0.003032 0.0
-0.040652 0.002673 0.0
-0.041518 0.002289 0.0
-0.042234 0.001879 0.0
-0.042794 0.001444 0.0
-0.043187 0.000984 0.0
-0.043407 0.000498 0.0
-0.043443 -0.000013 0.0
-0.043289 -0.000547 0.0
-0.042937 -0.001103 0.0
-0.042381 -0.001679 0.0
-0.041614 -0.002271 0.0
-0.040632 -0.002877 0.0
-0.039432 -0.003491 0.0
-0.038011 -0.004110 0.0
-0.036370 -0.004728 0.0
-0.034510 -0.005338 0.0
-0.032436 -0.005935 0.0
-0.030154 -0.006511 0.0
-0.027673 -0.007059 0.0
-0.025003 -0.007572 0.0
-0.022160 -0.008042 0.0
-0.019159 -0.008463 0.0
-0.016021 -0.008824 0.0
-0.012770 -0.009104 0.0
-0.009446 -0.009236 0.0
-0.006136 -0.009003 0.0
-0.003065 -0.007808 0.0
-0.000815 -0.004311 0.0
-0.000504 0.003440 0.0
-0.001961 0.006728 0.0
-0.004028 0.007980 0.0
-0.006299 0.008328 0.0
-0.008616 0.008366 0.0
-0.010928 0.008311 0.0
-0.013218 0.008221 0.0
-0.015479 0.008109 0.0
-0.017703 0.007977 0.0
-0.019884 0.007825 0.0
-0.022018 0.007651 0.0
-0.024097 0.007456 0.0
-0.026116 0.007239 0.0
-0.028069 0.006999 0.0
-0.029948 0.006734 0.0
-0.031748 0.006445 0.0
-0.033461 0.006129 0.0
-0.035080 0.005786 0.0
-0.036599 0.005415 0.0
-0.038009 0.005015 0.0
-0.039303 0.004584 0.0
-0.040472 0.004121 0.0
-0.041509 0.003626 0.0
-0.042405 0.003097 0.0
-0.043150 0.002534 0.0
-0.043737 0.001936 0.0
-0.044156 0.001304 0.0
-0.044399 0.000639 0.0
-0.044456 -0.000060 0.0
-0.044320 -0.000791 0.0
-0.043982 -0.001550 0.0
-0.043435 -0.002336 0.0
-0.042672 -0.003144 0.0
-0.041689 -0.003969 0.0
-0.040481 -0.004807 0.0
-0.039045 -0.005650 0.0
-0.037382 -0.006492 0.0
-0.035491 -0.007324 0.0
-0.033377 -0.008137 0.0
-0.031046 -0.008922 0.0
-0.028506 -0.009669 0.0
-0.025770 -0.010368 0.0
-0.022850 -0.011009 0.0
-0.019765 -0.011582 0.0
-0.016535 -0.012073 0.0
-0.013184 -0.012455 0.0
-0.009756 -0.012637 0.0
-0.006337 -0.012330 0.0
-0.003164 -0.010725 0.0
-0.000840 -0.005966 0.0
-0.000508 0.004452 0.0
-0.001980 0.008645 0.0
-0.004071 0.010221 0.0
-0.006370 0.010656 0.0
-0.008716 0.010701 0.0
-0.011056 0.010629 0.0
-0.013374 0.010512 0.0
-0.015663 0.010367 0.0
-0.017915 0.010196 0.0
-0.020125 0.009998 0.0
-0.022288 0.009774 0.0
-0.024397 0.009522 0.0
-0.026446 0.009241 0.0
-0.028429 0.008932 0.0
-0.030340 0.008591 0.0
-0.032171 0.008219 0.0
-0.033917 0.007814 0.0
-0.035570 0.007374 0.0
-0.037123 0.006899 0.0
-0.038568 0.006387 0.0
-0.039898 0.005836 0.0
-0.041105 0.005245 0.0
-0.042179 0.004613 0.0
-0.043112 0.003939 0.0
-0.043896 0.003221 0.0
-0.044520 0.002460 0.0
-0.044977 0.001656 0.0
-0.045256 0.000808 0.0
-0.045347 -0.000081 0.0
-0.045243 -0.001011 0.0
-0.044934 -0.001977 0.0
-0.044412 -0.002978 0.0
-0.043670 -0.004007 0.0
-0.042700 -0.005059 0.0
-0.041499 -0.006127 0.0
-0.040062 -0.007203 0.0
-0.038388 -0.008277 0.0
-0.036477 -0.009340 0.0
-0.034333 -0.010379 0.0
-0.031961 -0.011383 0.0
-0.029368 -0.012339 0.0
-0.026568 -0.013235 0.0
-0.023573 -0.014056 0.0
-0.020402 -0.014791 0.0
-0.017076 -0.015421 0.0
-0.013621 -0.015912 0.0
-0.010082 -0.016149 0.0
-0.006550 -0.015768 0.0
-0.003270 -0.013741 0.0
-0.000868 -0.007675 0.0
-0.000512 0.005472 0.0
-0.001997 0.010582 0.0
-0.004112 0.012490 0.0
-0.006439 0.013012 0.0
-0.008813 0.013065 0.0
-0.011183 0.012975 0.0
-0.013530 0.012832 0.0
-0.015848 0.012654 0.0
-0.018130 0.012444 0.0
-0.020371 0.012202 0.0
-0.022565 0.011927 0.0
-0.024705 0.011619 0.0
-0.026787 0.011276 0.0
-0.028804 0.010897 0.0
-0.030750 0.010482 0.0
-0.032617 0.010028 0.0
-0.034401 0.009534 0.0
-0.036093 0.008999 0.0
-0.037686 0.008421 0.0
-0.039174 0.007798 0.0
-0.040547 0.007128 0.0
-0.041798 0.006410 0.0
-0.042918 0.005642 0.0
-0.043898 0.004823 0.0
-0.044730 0.003952 0.0
-0.045402 0.003027 0.0
-0.045906 0.002050 0.0
-0.046232 0.001019 0.0
-0.046369 -0.000063 0.0
-0.046307 -0.001194 0.0
-0.046037 -0.002372 0.0
-0.045549 -0.003592 0.0
-0.044835 -0.004848 0.0
-0.043888 -0.006134 0.0
-0.042699 -0.007441 0.0
-0.041266 -0.008759 0.0
-0.039584 -0.010077 0.0
-0.037654 -0.011381 0.0
-0.035477 -0.012659 0.0
-0.033058 -0.013895 0.0
-0.030405 -0.015073 0.0
-0.027529 -0.016177 0.0
-0.024445 -0.017192 0.0
-0.021172 -0.018100 0.0
-0.017731 -0.018880 0.0
-0.014151 -0.019488 0.0
-0.010478 -0.019786 0.0
-0.006810 -0.019331 0.0
-0.003401 -0.016868 0.0
-0.000904 -0.009447 0.0
-0.000516 0.006500 0.0
-0.002019 0.012542 0.0
-0.004161 0.014788 0.0
-0.006519 0.015399 0.0
-0.008926 0.015459 0.0
-0.011328 0.015353 0.0
-0.013710 0.015183 0.0
-0.016062 0.014972 0.0
-0.018378 0.014724 0.0
-0.020655 0.014438 0.0
-0.022885 0.014114 0.0
-0.025062 0.013750 0.0
-0.027183 0.013346 0.0
-0.029239 0.012900 0.0
-0.031225 0.012411 0.0
-0.033136 0.011877 0.0
-0.034963 0.011296 0.0
-0.036701 0.010667 0.0
-0.038343 0.009987 0.0
-0.039880 0.009255 0.0
-0.041304 0.008468 0.0
-0.042609 0.007625 0.0
-0.043784 0.006722 0.0
-0.044821 0.005760 0.0
-0.045709 0.004735 0.0
-0.046440 0.003647 0.0
-0.047002 0.002496 0.0
-0.047384 0.001281 0.0
-0.047577 0.000004 0.0
-0.047568 -0.001332 0.0
-0.047347 -0.002726 0.0
-0.046903 -0.004171 0.0
-0.046225 -0.005661 0.0
-0.045306 -0.007189 0.0
-0.044136 -0.008744 0.0
-0.042709 -0.010316 0.0
-0.041021 -0.011889 0.0
-0.039070 -0.013450 0.0
-0.036856 -0.014981 0.0
-0.034383 -0.016465 0.0
-0.031658 -0.017881 0.0
-0.028693 -0.019210 0.0
-0.025503 -0.020433 0.0
-0.022106 -0.021529 0.0
-0.018527 -0.022471 0.0
-0.014795 -0.023207 0.0
-0.010961 -0.023574 0.0
-0.007127 -0.023044 0.0
-0.003562 -0.020129 0.0
-0.000947 -0.011298 0.0
-0.000522 0.007538 0.0
-0.002044 0.014527 0.0
-0.004217 0.017118 0.0
-0.006612 0.017822 0.0
-0.009057 0.017889 0.0
-0.011498 0.017766 0.0
-0.013918 0.017571 0.0
-0.016309 0.017328 0.0
-0.018666 0.017042 0.0
-0.020983 0.016713 0.0
-0.023255 0.016340 0.0
-0.025476 0.015922 0.0
-0.027640 0.015458 0.0
-0.029742 0.014946 0.0
-0.031776 0.014385 0.0
-0.033735 0.013772 0.0
-0.035613 0.013107 0.0
-0.037404 0.012386 0.0
-0.039101 0.011607 0.0
-0.040696 0.010768 0.0
-0.042180 0.009866 0.0
-0.043547 0.008898 0.0
-0.044786 0.007863 0.0
-0.045889 0.006758 0.0
-0.046845 0.005581 0.0
-0.047644 0.004330 0.0
-0.048275 0.003005 0.0
-0.048726 0.001605 0.0
-0.048985 0.000132 0.0
-0.049039 -0.001414 0.0
-0.048878 -0.003027 0.0
-0.048487 -0.004704 0.0
-0.047856 -0.006437 0.0
-0.046973 -0.008216 0.0
-0.045828 -0.010032 0.0
-0.044412 -0.011870 0.0
-0.042720 -0.013715 0.0
-0.040747 -0.015549 0.0
-0.038492 -0.017351 0.0
-0.035958 -0.019101 0.0
-0.033152 -0.020775 0.0
-0.030083 -0.022349 0.0
-0.026767 -0.023800 0.0
-0.023224 -0.025101 0.0
-0.019480 -0.026222 0.0
-0.015568 -0.027100 0.0
-0.011540 -0.027544 0.0
-0.007509 -0.026939 0.0
-0.003756 -0.023552 0.0
-0.001000 -0.013245 0.0
-0.000528 0.008589 0.0
-0.002073 0.016543 0.0
-0.004282 0.019486 0.0
-0.006718 0.020284 0.0
-0.009206 0.020360 0.0
-0.011691 0.020221 0.0
-0.014155 0.020000 0.0
-0.016591 0.019726 0.0
-0.018993 0.019404 0.0
-0.021357 0.019032 0.0
-0.023676 0.018612 0.0
-0.025945 0.018141 0.0
-0.028159 0.017618 0.0
-0.030313 0.017042 0.0
-0.032400 0.016410 0.0
-0.034414 0.015721 0.0
-0.036351 0.014973 0.0
-0.038202 0.014162 0.0
-0.039961 0.013286 0.0
-0.041621 0.012343 0.0
-0.043174 0.011328 0.0
-0.044611 0.010240 0.0
-0.045924 0.009074 0.0
-0.047103 0.007829 0.0
-0.048137 0.006501 0.0
-0.049016 0.005088 0.0
-0.049727 0.003589 0.0
-0.050258 0.002003 0.0
-0.050596 0.000331 0.0
-0.050727 -0.001427 0.0
-0.050637 -0.003266 0.0
-0.050312 -0.005181 0.0
-0.049738 -0.007165 0.0
-0.048901 -0.009208 0.0
-0.047790 -0.011297 0.0
-0.046392 -0.013418 0.0
-0.044700 -0.015552 0.0
-0.042706 -0.017679 0.0
-0.040408 -0.019775 0.0
-0.037807 -0.021814 0.0
-0.034907 -0.023769 0.0
-0.031719 -0.025612 0.0
-0.028258 -0.027314 0.0
-0.024545 -0.028843 0.0
-0.020608 -0.030162 0.0
-0.016483 -0.031198 0.0
-0.012227 -0.031729 0.0
-0.007962 -0.031051 0.0
-0.003986 -0.027170 0.0
-0.001062 -0.015307 0.0
-0.000536 0.009653 0.0
-0.002105 0.018592 0.0
-0.004355 0.021896 0.0
-0.006837 0.022791 0.0
-0.009373 0.022878 0.0
-0.011907 0.022722 0.0
-0.014421 0.022477 0.0
-0.016907 0.022172 0.0
-0.019360 0.021813 0.0
-0.021775 0.021401 0.0
-0.024146 0.020934 0.0
-0.026470 0.020411 0.0
-0.028739 0.019831 0.0
-0.030950 0.019192 0.0
-0.033096 0.018493 0.0
-0.035172 0.017730 0.0
-0.037173 0.016901 0.0
-0.039091 0.016003 0.0
-0.040920 0.015033 0.0
-0.042654 0.013989 0.0
-0.044283 0.012865 0.0
-0.045801 0.011658 0.0
-0.047197 0.010365 0.0
-0.048462 0.008982 0.0
-0.049586 0.007506 0.0
-0.050556 0.005932 0.0
-0.051360 0.004260 0.0
-0.051984 0.002488 0.0
-0.052415 0.000614 0.0
-0.052636 -0.001359 0.0
-0.052632 -0.003428 0.0
-0.052386 -0.005589 0.0
-0.051883 -0.007834 0.0
-0.051105 -0.010153 0.0
-0.050038 -0.012531 0.0
-0.048667 -0.014952 0.0
-0.046981 -0.017396 0.0
-0.044970 -0.019839 0.0
-0.042628 -0.022254 0.0
-0.039953 -0.024610 0.0
-0.036950 -0.026876 0.0
-0.033628 -0.029017 0.0
-0.030001 -0.030997 0.0
-0.026092 -0.032781 0.0
-0.021931 -0.034323 0.0
-0.017557 -0.035536 0.0
-0.013035 -0.036168 0.0
-0.008495 -0.035417 0.0
-0.004258 -0.031016 0.0
-0.001136 -0.017506 0.0
-0.000544 0.010733 0.0
-0.002141 0.020679 0.0
-0.004436 0.024354 0.0
-0.006969 0.025349 0.0
-0.009558 0.025446 0.0
-0.012146 0.025276 0.0
-0.014714 0.025005 0.0
-0.017256 0.024670 0.0
-0.019765 0.024277 0.0
-0.022236 0.023824 0.0
-0.024665 0.023312 0.0
-0.027048 0.022739 0.0
-0.029378 0.022104 0.0
-0.031651 0.021404 0.0
-0.033863 0.020638 0.0
-0.036006 0.019804 0.0
-0.038077 0.018897 0.0
-0.040069 0.017916 0.0
-0.041975 0.016856 0.0
-0.043790 0.015713 0.0
-0.045504 0.014484 0.0
-0.047111 0.013163 0.0
-0.048600 0.011746 0.0
-0.049963 0.010229 0.0
-0.051187 0.008607 0.0
-0.052261 0.006875 0.0
-0.053172 0.005032 0.0
-0.053904 0.003073 0.0
-0.054442 0.000998 0.0
-0.054770 -0.001194 0.0
-0.054868 -0.003499 0.0
-0.054718 -0.005913 0.0
-0.054302 -0.008430 0.0
-0.053598 -0.011038 0.0
-0.052590 -0.013722 0.0
-0.051258 -0.016464 0.0
-0.049587 -0.019242 0.0
-0.047564 -0.022028 0.0
-0.045179 -0.024792 0.0
-0.042429 -0.027498 0.0
-0.039313 -0.030107 0.0
-0.035841 -0.032580 0.0
-0.032026 -0.034874 0.0
-0.027893 -0.036945 0.0
-0.023473 -0.038739 0.0
-0.018811 -0.040155 0.0
-0.013978 -0.040904 0.0
-0.009117 -0.040081 0.0
-0.004575 -0.035131 0.0
-0.001223 -0.019865 0.0
-0.000553 0.011829 0.0
-0.002180 0.022807 0.0
-0.004524 0.026863 0.0
-0.007113 0.027961 0.0
-0.009761 0.028071 0.0
-0.012408 0.027886 0.0
-0.015036 0.027591 0.0
-0.017637 0.027227 0.0
-0.020206 0.026799 0.0
-0.022740 0.026307 0.0
-0.025232 0.025751 0.0
-0.027678 0.025129 0.0
-0.030074 0.024440 0.0
-0.032415 0.023682 0.0
-0.034697 0.022853 0.0
-0.036913 0.021950 0.0
-0.039061 0.020969 0.0
-0.041132 0.019908 0.0
-0.043123 0.018761 0.0
-0.045026 0.017525 0.0
-0.046833 0.016194 0.0
-0.048538 0.014764 0.0
-0.050131 0.013228 0.0
-0.051602 0.011581 0.0
-0.052939 0.009817 0.0
-0.054131 0.007931 0.0
-0.055162 0.005918 0.0
-0.056018 0.003775 0.0
-0.056681 0.001497 0.0
-0.057132 -0.000915 0.0
-0.057352 -0.003460 0.0
-0.057317 -0.006136 0.0
-0.057007 -0.008935 0.0
-0.056397 -0.011846 0.0
-0.055465 -0.014854 0.0
-0.054188 -0.017940 0.0
-0.052545 -0.021079 0.0
-0.050519 -0.024240 0.0
-0.048097 -0.027387 0.0
-0.045269 -0.030481 0.0
-0.042033 -0.033475 0.0
-0.038396 -0.036322 0.0
-0.034371 -0.038972 0.0
-0.029983 -0.041370 0.0
-0.025266 -0.043451 0.0
-0.020271 -0.045100 0.0
-0.015078 -0.045986 0.0
-0.009844 -0.045094 0.0
-0.004945 -0.039559 0.0
-0.001323 -0.022411 0.0
-0.000562 0.012944 0.0
-0.002223 0.024981 0.0
-0.004620 0.029430 0.0
-0.007270 0.030635 0.0
-0.009981 0.030757 0.0
-0.012692 0.030557 0.0
-0.015384 0.030239 0.0
-0.018050 0.029846 0.0
-0.020685 0.029384 0.0
-0.023284 0.028854 0.0
-0.025843 0.028255 0.0
-0.028358 0.027586 0.0
-0.030825 0.026846 0.0
-0.033238 0.026032 0.0
-0.035595 0.025142 0.0
-0.037890 0.024173 0.0
-0.040119 0.023122 0.0
-0.042277 0.021985 0.0
-0.044358 0.020756 0.0
-0.046357 0.019431 0.0
-0.048266 0.018005 0.0
-0.050077 0.016470 0.0
-0.051784 0.014820 0.0
-0.053374 0.013049 0.0
-0.054837 0.011149 0.0
-0.056160 0.009113 0.0
-0.057328 0.006936 0.0
-0.058325 0.004610 0.0
-0.059132 0.002132 0.0
-0.059727 -0.000502 0.0
-0.060089 -0.003292 0.0
-0.060193 -0.006235 0.0
-0.060011 -0.009327 0.0
-0.059518 -0.012557 0.0
-0.058684 -0.015909 0.0
-0.057483 -0.019364 0.0
-0.055886 -0.022894 0.0
-0.053872 -0.026465 0.0
-0.051420 -0.030037 0.0
-0.048516 -0.033563 0.0
-0.045155 -0.036990 0.0
-0.041338 -0.040262 0.0
-0.037079 -0.043316 0.0
-0.032403 -0.046090 0.0
-0.027347 -0.048504 0.0
-0.021968 -0.050421 0.0
-0.016357 -0.051470 0.0
-0.010689 -0.050512 0.0
-0.005376 -0.044353 0.0
-0.001441 -0.025175 0.0
-0.000572 0.014078 0.0
-0.002269 0.027204 0.0
-0.004723 0.032057 0.0
-0.007439 0.033373 0.0
-0.010218 0.033509 0.0
-0.012998 0.033295 0.0
-0.015759 0.032954 0.0
-0.018494 0.032532 0.0
-0.021199 0.032037 0.0
-0.023869 0.031470 0.0
-0.026499 0.030829 0.0
-0.029087 0.030115 0.0
-0.031628 0.029325 0.0
-0.034119 0.028457 0.0
-0.036555 0.027509 0.0
-0.038933 0.026479 0.0
-0.041249 0.025361 0.0
-0.043498 0.024152 0.0
-0.045676 0.022847 0.0
-0.047777 0.021440 0.0
-0.049795 0.019923 0.0
-0.051723 0.018291 0.0
-0.053552 0.016535 0.0
-0.055273 0.014646 0.0
-0.056875 0.012617 0.0
-0.058344 0.010438 0.0
-0.059666 0.008101 0.0
-0.060822 0.005598 0.0
-0.061793 0.002921 0.0
-0.062556 0.000067 0.0
-0.063085 -0.002969 0.0
-0.063353 -0.006187 0.0
-0.063328 -0.009581 0.0
-0.062979 -0.013145 0.0
-0.062272 -0.016862 0.0
-0.061172 -0.020713 0.0
-0.059646 -0.024667 0.0
-0.057662 -0.028689 0.0
-0.055195 -0.032732 0.0
-0.052222 -0.036744 0.0
-0.048732 -0.040661 0.0
-0.044723 -0.044417 0.0
-0.040205 -0.047938 0.0
-0.035204 -0.051145 0.0
-0.029762 -0.053946 0.0
-0.023941 -0.056178 0.0
-0.017846 -0.057420 0.0
-0.011673 -0.056402 0.0
-0.005878 -0.049571 0.0
-0.001577 -0.028193 0.0
-0.000583 0.015233 0.0
-0.002317 0.029479 0.0
-0.004833 0.034752 0.0
-0.007620 0.036182 0.0
-0.010472 0.036332 0.0
-0.013325 0.036105 0.0
-0.016160 0.035741 0.0
-0.018969 0.035290 0.0
-0.021748 0.034762 0.0
-0.024492 0.034158 0.0
-0.027198 0.033477 0.0
-0.029863 0.032719 0.0
-0.032482 0.031881 0.0
-0.035054 0.030962 0.0
-0.037573 0.029960 0.0
-0.040038 0.028871 0.0
-0.042446 0.027692 0.0
-0.044791 0.026417 0.0
-0.047071 0.025041 0.0
-0.049280 0.023557 0.0
-0.051414 0.021958 0.0
-0.053466 0.020236 0.0
-0.055428 0.018381 0.0
-0.057292 0.016384 0.0
-0.059045 0.014234 0.0
-0.060676 0.011921 0.0
-0.062169 0.009432 0.0
-0.063504 0.006758 0.0
-0.064662 0.003889 0.0
-0.065618 0.000817 0.0
-0.066342 -0.002465 0.0
-0.066805 -0.005960 0.0
-0.066970 -0.009667 0.0
-0.066799 -0.013579 0.0
-0.066252 -0.017683 0.0
-0.065288 -0.021958 0.0
-0.063863 -0.026374 0.0
-0.061937 -0.030892 0.0
-0.059475 -0.035460 0.0
-0.056445 -0.040018 0.0
-0.052828 -0.044494 0.0
-0.048616 -0.048806 0.0
-0.043815 -0.052867 0.0
-0.038450 -0.056582 0.0
-0.032567 -0.059835 0.0
-0.026238 -0.062439 0.0
-0.019580 -0.063913 0.0
-0.012821 -0.062841 0.0
-0.006463 -0.055285 0.0
-0.001736 -0.031506 0.0
-0.000594 0.016411 0.0
-0.002369 0.031811 0.0
-0.004951 0.037517 0.0
-0.007813 0.039066 0.0
-0.010743 0.039231 0.0
-0.013674 0.038990 0.0
-0.016587 0.038603 0.0
-0.019474 0.038124 0.0
-0.022331 0.037564 0.0
-0.025154 0.036924 0.0
-0.027939 0.036203 0.0
-0.030683 0.035402 0.0
-0.033385 0.034519 0.0
-0.036040 0.033551 0.0
-0.038646 0.032498 0.0
-0.041202 0.031354 0.0
-0.043704 0.030118 0.0
-0.046149 0.028782 0.0
-0.048536 0.027342 0.0
-0.050859 0.025789 0.0
-0.053116 0.024116 0.0
-0.055299 0.022313 0.0
-0.057404 0.020370 0.0
-0.059420 0.018275 0.0
-0.061339 0.016016 0.0
-0.063146 0.013578 0.0
-0.064828 0.010949 0.0
-0.066365 0.008114 0.0
-0.067734 0.005061 0.0
-0.068910 0.001777 0.0
-0.069862 -0.001749 0.0
-0.070554 -0.005523 0.0
-0.070947 -0.009547 0.0
-0.070995 -0.013820 0.0
-0.070651 -0.018331 0.0
-0.069863 -0.023061 0.0
-0.068580 -0.027979 0.0
-0.066749 -0.033043 0.0
-0.064321 -0.038199 0.0
-0.061256 -0.043375 0.0
-0.057520 -0.048489 0.0
-0.053098 -0.053445 0.0
-0.047990 -0.058137 0.0
-0.042219 -0.062448 0.0
-0.035834 -0.066238 0.0
-0.028917 -0.069283 0.0
-0.021607 -0.071037 0.0
-0.014161 -0.069922 0.0
-0.007146 -0.061577 0.0
-0.001922 -0.035165 0.0
-0.000606 0.017612 0.0
-0.002425 0.034204 0.0
-0.005076 0.040357 0.0
-0.008018 0.042029 0.0
-0.011031 0.042211 0.0
-0.014045 0.041956 0.0
-0.017041 0.041545 0.0
-0.020010 0.041038 0.0
-0.022948 0.040446 0.0
-0.025853 0.039770 0.0
-0.028720 0.039010 0.0
-0.031548 0.038167 0.0
-0.034333 0.037240 0.0
-0.037074 0.036226 0.0
-0.039770 0.035125 0.0
-0.042419 0.033931 0.0
-0.045018 0.032642 0.0
-0.047567 0.031252 0.0
-0.050064 0.029755 0.0
-0.052506 0.028141 0.0
-0.054890 0.026404 0.0
-0.057212 0.024531 0.0
-0.059467 0.022511 0.0
-0.061646 0.020331 0.0
-0.063743 0.017975 0.0
-0.065743 0.015427 0.0
-0.067632 0.012671 0.0
-0.069392 0.009689 0.0
-0.071000 0.006463 0.0
-0.072428 0.002977 0.0
-0.073642 -0.000784 0.0
-0.074603 -0.004834 0.0
-0.075267 -0.009180 0.0
-0.075583 -0.013824 0.0
-0.075493 -0.018762 0.0
-0.074935 -0.023976 0.0
-0.073845 -0.029438 0.0
-0.072157 -0.035104 0.0
-0.069806 -0.040916 0.0
-0.066736 -0.046794 0.0
-0.062899 -0.052642 0.0
-0.058266 -0.058347 0.0
-0.052828 -0.063780 0.0
-0.046606 -0.068798 0.0
-0.039649 -0.073229 0.0
-0.032054 -0.076804 0.0
-0.023981 -0.078898 0.0
-0.015732 -0.077755 0.0
-0.007946 -0.068546 0.0
-0.002139 -0.039226 0.0
-0.000619 0.018838 0.0
-0.002483 0.036660 0.0
-0.005209 0.043278 0.0
-0.008236 0.045078 0.0
-0.011337 0.045276 0.0
-0.014439 0.045006 0.0
-0.017521 0.044572 0.0
-0.020576 0.044036 0.0
-0.023600 0.043410 0.0
-0.026589 0.042699 0.0
-0.029541 0.041901 0.0
-0.032454 0.041017 0.0
-0.035326 0.040047 0.0
-0.038155 0.038990 0.0
-0.040941 0.037843 0.0
-0.043684 0.036604 0.0
-0.046383 0.035268 0.0
-0.049037 0.033830 0.0
-0.051647 0.032283 0.0
-0.054210 0.030619 0.0
-0.056726 0.028827 0.0
-0.059192 0.026896 0.0
-0.061604 0.024813 0.0
-0.063957 0.022562 0.0
-0.066242 0.020125 0.0
-0.068450 0.017484 0.0
-0.070566 0.014619 0.0
-0.072572 0.011507 0.0
-0.074446 0.008126 0.0
-0.076158 0.004454 0.0
-0.077674 0.000469 0.0
-0.078950 -0.003849 0.0
-0.079937 -0.008514 0.0
-0.080577 -0.013536 0.0
-0.080802 -0.018915 0.0
-0.080539 -0.024642 0.0
-0.079709 -0.030692 0.0
-0.078227 -0.037021 0.0
-0.076011 -0.043566 0.0
-0.072982 -0.050242 0.0
-0.069074 -0.056938 0.0
-0.064239 -0.063519 0.0
-0.058454 -0.069830 0.0
-0.051731 -0.075694 0.0
-0.044124 -0.080896 0.0
-0.035743 -0.085113 0.0
-0.026777 -0.087627 0.0
-0.017581 -0.086472 0.0
-0.008885 -0.076312 0.0
-0.002393 -0.043758 0.0
-0.000633 0.020089 0.0
-0.002545 0.039184 0.0
-0.005350 0.046285 0.0
-0.008468 0.048217 0.0
-0.011661 0.048431 0.0
-0.014855 0.048146 0.0
-0.018028 0.047686 0.0
-0.021173 0.047120 0.0
-0.024285 0.046462 0.0
-0.027362 0.045713 0.0
-0.030401 0.044877 0.0
-0.033401 0.043953 0.0
-0.036360 0.042942 0.0
-0.039279 0.041843 0.0
-0.042156 0.040654 0.0
-0.044994 0.039373 0.0
-0.047792 0.037996 0.0
-0.050552 0.036517 0.0
-0.053275 0.034929 0.0
-0.055962 0.033223 0.0
-0.058612 0.031389 0.0
-0.061226 0.029414 0.0
-0.063801 0.027283 0.0
-0.066334 0.024978 0.0
-0.068820 0.022480 0.0
-0.071249 0.019767 0.0
-0.073610 0.016814 0.0
-0.075885 0.013594 0.0
-0.078053 0.010081 0.0
-0.080085 0.006244 0.0
-0.081944 0.002054 0.0
-0.083586 -0.002516 0.0
-0.084954 -0.007490 0.0
-0.085985 -0.012889 0.0
-0.086600 -0.018722 0.0
-0.086712 -0.024987 0.0
-0.086224 -0.031666 0.0
-0.085031 -0.038721 0.0
-0.083028 -0.046087 0.0
-0.080107 -0.053671 0.0
-0.076177 -0.061348 0.0
-0.071161 -0.068960 0.0
-0.065019 -0.076318 0.0
-0.057747 -0.083201 0.0
-0.049401 -0.089342 0.0
-0.040104 -0.094346 0.0
-0.030086 -0.097377 0.0
-0.019767 -0.096237 0.0
-0.009992 -0.085018 0.0
-0.002692 -0.048844 0.0
-0.000647 0.021369 0.0
-0.002611 0.041781 0.0
-0.005500 0.049383 0.0
-0.008714 0.051451 0.0
-0.012005 0.051682 0.0
-0.015296 0.051381 0.0
-0.018565 0.050894 0.0
-0.021803 0.050296 0.0
-0.025007 0.049602 0.0
-0.028174 0.048816 0.0
-0.031301 0.047941 0.0
-0.034389 0.046977 0.0
-0.037436 0.045925 0.0
-0.040443 0.044786 0.0
-0.043411 0.043558 0.0
-0.046343 0.042239 0.0
-0.049240 0.040825 0.0
-0.052104 0.039312 0.0
-0.054940 0.037692 0.0
-0.057750 0.035956 0.0
-0.060535 0.034092 0.0
-0.063298 0.032088 0.0
-0.066040 0.029926 0.0
-0.068759 0.027587 0.0
-0.071454 0.025050 0.0
-0.074116 0.022289 0.0
-0.076738 0.019274 0.0
-0.079305 0.015976 0.0
-0.081796 0.012359 0.0
-0.084185 0.008386 0.0
-0.086433 0.004020 0.0
-0.088495 -0.000778 0.0
-0.090310 -0.006044 0.0
-0.091808 -0.011808 0.0
-0.092900 -0.018096 0.0
-0.093484 -0.024917 0.0
-0.093443 -0.032265 0.0
-0.092648 -0.040109 0.0
-0.090961 -0.048389 0.0
-0.088243 -0.057007 0.0
-0.084364 -0.065822 0.0
-0.079212 -0.074652 0.0
-0.072714 -0.083267 0.0
-0.064847 -0.091390 0.0
-0.055659 -0.098686 0.0
-0.045294 -0.104664 0.0
-0.034027 -0.108344 0.0
-0.022367 -0.107250 0.0
-0.011305 -0.094842 0.0
-0.003044 -0.054580 0.0
-0.000662 0.022678 0.0
-0.002681 0.044454 0.0
-0.005660 0.052577 0.0
-0.008975 0.054787 0.0
-0.012371 0.055033 0.0
-0.015764 0.054713 0.0
-0.019132 0.054197 0.0
-0.022467 0.053566 0.0
-0.025765 0.052835 0.0
-0.029024 0.052009 0.0
-0.032241 0.051093 0.0
-0.035417 0.050088 0.0
-0.038551 0.048995 0.0
-0.041646 0.047817 0.0
-0.044703 0.046552 0.0
-0.047726 0.045199 0.0
-0.050719 0.043755 0.0
-0.053686 0.042214 0.0
-0.056632 0.040571 0.0
-0.059561 0.038816 0.0
-0.062480 0.036936 0.0
-0.065392 0.034919 0.0
-0.068301 0.032746 0.0
-0.071210 0.030396 0.0
-0.074119 0.027844 0.0
-0.077025 0.025063 0.0
-0.079922 0.022019 0.0
-0.082801 0.018676 0.0
-0.085643 0.014992 0.0
-0.088424 0.010921 0.0
-0.091108 0.006417 0.0
-0.093649 0.001427 0.0
-0.095984 -0.004097 0.0
-0.098037 -0.010205 0.0
-0.099708 -0.016936 0.0
-0.100881 -0.024320 0.0
-0.101416 -0.032367 0.0
-0.101156 -0.041062 0.0
-0.099925 -0.050353 0.0
-0.097541 -0.060144 0.0
-0.093823 -0.070282 0.0
-0.088611 -0.080556 0.0
-0.081782 -0.090690 0.0
-0.073279 -0.100337 0.0
-0.063137 -0.109069 0.0
-0.051517 -0.116267 0.0
-0.038757 -0.120767 0.0
-0.025480 -0.119764 0.0
-0.012867 -0.106004 0.0
-0.003461 -0.061085 0.0
-0.000678 0.024018 0.0
-0.002756 0.047211 0.0
-0.005830 0.055874 0.0
-0.009254 0.058229 0.0
-0.012759 0.058491 0.0
-0.016260 0.058150 0.0
-0.019733 0.057602 0.0
-0.023169 0.056933 0.0
-0.026564 0.056161 0.0
-0.029916 0.055293 0.0
-0.033223 0.054334 0.0
-0.036486 0.053285 0.0
-0.039706 0.052152 0.0
-0.042886 0.050935 0.0
-0.046029 0.049634 0.0
-0.049140 0.048250 0.0
-0.052224 0.046780 0.0
-0.055288 0.045220 0.0
-0.058339 0.043562 0.0
-0.061384 0.041799 0.0
-0.064432 0.039919 0.0
-0.067489 0.037906 0.0
-0.070563 0.035742 0.0
-0.073661 0.033405 0.0
-0.076786 0.030869 0.0
-0.079941 0.028100 0.0
-0.083126 0.025064 0.0
-0.086333 0.021717 0.0
-0.089551 0.018011 0.0
-0.092760 0.013891 0.0
-0.095927 0.009298 0.0
-0.099008 0.004168 0.0
-0.101942 -0.001568 0.0
-0.104646 -0.007977 0.0
-0.107015 -0.015123 0.0
-0.108915 -0.023059 0.0
-0.110185 -0.031822 0.0
-0.110634 -0.041419 0.0
-0.110043 -0.051819 0.0
-0.108172 -0.062933 0.0
-0.104778 -0.074605 0.0
-0.099627 -0.086597 0.0
-0.092527 -0.098577 0.0
-0.083366 -0.110114 0.0
-0.072147 -0.120653 0.0
-0.059047 -0.129403 0.0
-0.044484 -0.134954 0.0
-0.029236 -0.134101 0.0
-0.014737 -0.118778 0.0
-0.003954 -0.068500 0.0
-0.000696 0.025392 0.0
-0.002837 0.050055 0.0
-0.006013 0.059281 0.0
-0.009553 0.061786 0.0
-0.013175 0.062061 0.0
-0.016789 0.061695 0.0
-0.020371 0.061110 0.0
-0.023911 0.060400 0.0
-0.027405 0.059583 0.0
-0.030852 0.058669 0.0
-0.034249 0.057663 0.0
-0.037599 0.056569 0.0
-0.040902 0.055392 0.0
-0.044163 0.054135 0.0
-0.047387 0.052800 0.0
-0.050580 0.051388 0.0
-0.053749 0.049896 0.0
-0.056904 0.048322 0.0
-0.060052 0.046660 0.0
-0.063205 0.044901 0.0
-0.066374 0.043033 0.0
-0.069569 0.041043 0.0
-0.072802 0.038911 0.0
-0.076083 0.036614 0.0
-0.079423 0.034124 0.0
-0.082829 0.031406 0.0
-0.086306 0.028420 0.0
-0.089854 0.025118 0.0
-0.093469 0.021444 0.0
-0.097137 0.017335 0.0
-0.100832 0.012718 0.0
-0.104516 0.007513 0.0
-0.108129 0.001633 0.0
-0.111591 -0.005013 0.0
-0.114790 -0.012520 0.0
-0.117580 -0.020972 0.0
-0.119776 -0.030442 0.0
-0.121153 -0.040974 0.0
-0.121439 -0.052569 0.0
-0.120328 -0.065163 0.0
-0.117489 -0.078608 0.0
-0.112592 -0.092643 0.0
-0.105342 -0.106881 0.0
-0.095532 -0.120782 0.0
-0.083111 -0.133625 0.0
-0.068259 -0.144382 0.0
-0.051494 -0.151304 0.0
-0.033810 -0.150683 0.0
-0.016988 -0.133518 0.0
-0.004538 -0.076992 0.0
-0.000715 0.026802 0.0
-0.002924 0.052994 0.0
-0.006212 0.062806 0.0
-0.009875 0.065465 0.0
-0.013621 0.065750 0.0
-0.017355 0.065354 0.0
-0.021050 0.064728 0.0
-0.024699 0.063970 0.0
-0.028295 0.063103 0.0
-0.031836 0.062137 0.0
-0.035323 0.061079 0.0
-0.038757 0.059936 0.0
-0.042140 0.058712 0.0
-0.045478 0.057414 0.0
-0.048777 0.056044 0.0
-0.052044 0.054605 0.0
-0.055290 0.053095 0.0
-0.058525 0.051513 0.0
-0.061761 0.049854 0.0
-0.065011 0.048110 0.0
-0.068289 0.046271 0.0
-0.071611 0.044323 0.0
-0.074992 0.042246 0.0
-0.078448 0.040017 0.0
-0.081994 0.037607 0.0
-0.085646 0.034980 0.0
-0.089414 0.032091 0.0
-0.093309 0.028889 0.0
-0.097334 0.025312 0.0
-0.101486 0.021285 0.0
-0.105748 0.016725 0.0
-0.110093 0.011534 0.0
-0.114469 0.005602 0.0
-0.118799 -0.001190 0.0