# vtk DataFile Version 3.0
Vector Field
ASCII
DATASET RECTILINEAR_GRID
DIMENSIONS 50 50 1
X_COORDINATES 50 double
0.100000 0.300000 0.500000 0.700000 0.900000 1.100000 1.300000 1.500000 1.700000 1.900000 2.100000 2.300000 2.500000 2.700000 2.900000 3.100000 3.300000 3.500000 3.700000 3.900000 4.100000 4.300000 4.500000 4.700000 4.900000 5.100000 5.300000 5.500000 5.700000 5.900000 6.100000 6.300000 6.500000 6.700000 6.900000 7.100000 7.300000 7.500000 7.700000 7.900000 8.100000 8.300000 8.500000 8.700000 8.900000 9.100000 9.300000 9.500000 9.700000 9.900000 
Y_COORDINATES 50 double
0.100000 0.300000 0.500000 0.700000 0.900000 1.100000 1.300000 1.500000 1.700000 1.900000 2.100000 2.300000 2.500000 2.700000 2.900000 3.100000 3.300000 3.500000 3.700000 3.900000 4.100000 4.300000 4.500000 4.700000 4.900000 5.100000 5.300000 5.500000 5.700000 5.900000 6.100000 6.300000 6.500000 6.700000 6.900000 7.100000 7.300000 7.500000 7.700000 7.900000 8.100000 8.300000 8.500000 8.700000 8.900000 9.100000 9.300000 9.500000 9.700000 9.900000 
Z_COORDINATES 1 double
0.0
POINT_DATA 2500
VECTORS Vektorfeld double
-0.000238 0.000238 0.0
-0.001118 0.000642 0.0
-0.002597 0.000837 0.0
-0.004345 0.000911 0.0
-0.006192 0.000935 0.0
-0.008072 0.000944 0.0
-0.009966 0.000951 0.0
-0.011875 0.000958 0.0
-0.013801 0.000968 0.0
-0.015748 0.000979 0.0
-0.017718 0.000991 0.0
-0.019712 0.001003 0.0
-0.021732 0.001016 0.0
-0.023777 0.001029 0.0
-0.025847 0.001041 0.0
-0.027939 0.001051 0.0
-0.030050 0.001060 0.0
-0.032176 0.001066 0.0
-0.034310 0.001068 0.0
-0.036443 0.001065 0.0
-0.038566 0.001057 0.0
-0.040664 0.001041 0.0
-0.042722 0.001017 0.0
-0.044721 0.000982 0.0
-0.046637 0.000935 0.0
-0.048446 0.000874 0.0
-0.050117 0.000797 0.0
-0.051618 0.000703 0.0
-0.052911 0.000591 0.0
-0.053960 0.000458 0.0
-0.054723 0.000306 0.0
-0.055162 0.000133 0.0
-0.055240 -0.000056 0.0
-0.054917 -0.000267 0.0
-0.054151 -0.000498 0.0
-0.052911 -0.000742 0.0
-0.051173 -0.000995 0.0
-0.048928 -0.001250 0.0
-0.046177 -0.001500 0.0
-0.042938 -0.001739 0.0
-0.039241 -0.001958 0.0
-0.035130 -0.002152 0.0
-0.030663 -0.002315 0.0
-0.025910 -0.002439 0.0
-0.020956 -0.002515 0.0
-0.015913 -0.002527 0.0
-0.010950 -0.002437 0.0
-0.006346 -0.002167 0.0
-0.002603 -0.001575 0.0
-0.000514 -0.000514 0.0
-0.000677 0.001152 0.0
-0.002723 0.002654 0.0
-0.005800 0.003382 0.0
-0.009366 0.003681 0.0
-0.013144 0.003790 0.0
-0.017009 0.003834 0.0
-0.020914 0.003861 0.0
-0.024845 0.003888 0.0
-0.028801 0.003920 0.0
-0.032784 0.003956 0.0
-0.036794 0.003994 0.0
-0.040833 0.004033 0.0
-0.044898 0.004072 0.0
-0.048986 0.004108 0.0
-0.053094 0.004139 0.0
-0.057214 0.004165 0.0
-0.061336 0.004181 0.0
-0.065449 0.004184 0.0
-0.069538 0.004172 0.0
-0.073582 0.004140 0.0
-0.077561 0.004083 0.0
-0.081445 0.003997 0.0
-0.085202 0.003876 0.0
-0.088796 0.003715 0.0
-0.092183 0.003506 0.0
-0.095315 0.003244 0.0
-0.098139 0.002922 0.0
-0.100597 0.002536 0.0
-0.102626 0.002080 0.0
-0.104162 0.001552 0.0
-0.105138 0.000951 0.0
-0.105488 0.000277 0.0
-0.105145 -0.000465 0.0
-0.104047 -0.001280 0.0
-0.102143 -0.002155 0.0
-0.099397 -0.003072 0.0
-0.095785 -0.004014 0.0
-0.091304 -0.004958 0.0
-0.085968 -0.005880 0.0
-0.079812 -0.006755 0.0
-0.072893 -0.007558 0.0
-0.065289 -0.008268 0.0
-0.057094 -0.008861 0.0
-0.048426 -0.009314 0.0
-0.039430 -0.009591 0.0
-0.030294 -0.009629 0.0
-0.021300 -0.009293 0.0
-0.012898 -0.008317 0.0
-0.005848 -0.006217 0.0
-0.001391 -0.002419 0.0
-0.000923 0.002752 0.0
-0.003621 0.005798 0.0
-0.007564 0.007258 0.0
-0.012073 0.007881 0.0
-0.016831 0.008126 0.0
-0.021696 0.008227 0.0
-0.026610 0.008286 0.0
-0.031554 0.008338 0.0
-0.036522 0.008394 0.0
-0.041513 0.008455 0.0
-0.046524 0.008517 0.0
-0.051555 0.008579 0.0
-0.056601 0.008637 0.0
-0.061658 0.008688 0.0
-0.066717 0.008727 0.0
-0.071770 0.008749 0.0
-0.076802 0.008750 0.0
-0.081797 0.008723 0.0
-0.086736 0.008660 0.0
-0.091593 0.008554 0.0
-0.096340 0.008395 0.0
-0.100943 0.008173 0.0
-0.105363 0.007878 0.0
-0.109553 0.007497 0.0
-0.113463 0.007020 0.0
-0.117037 0.006435 0.0
-0.120211 0.005729 0.0
-0.122918 0.004894 0.0
-0.125086 0.003920 0.0
-0.126641 0.002803 0.0
-0.127507 0.001542 0.0
-0.127607 0.000137 0.0
-0.126869 -0.001406 0.0
-0.125230 -0.003076 0.0
-0.122645 -0.004848 0.0
-0.119076 -0.006693 0.0
-0.114506 -0.008574 0.0
-0.108936 -0.010449 0.0
-0.102388 -0.012272 0.0
-0.094911 -0.013996 0.0
-0.086574 -0.015574 0.0
-0.077469 -0.016962 0.0
-0.067711 -0.018119 0.0
-0.057437 -0.018997 0.0
-0.046814 -0.019527 0.0
-0.036059 -0.019583 0.0
-0.025481 -0.018911 0.0
-0.015572 -0.017010 0.0
-0.007169 -0.012976 0.0
-0.001738 -0.005548 0.0
-0.001038 0.004712 0.0
-0.004059 0.009557 0.0
-0.008444 0.011827 0.0
-0.013427 0.012804 0.0
-0.018665 0.013199 0.0
-0.024011 0.013366 0.0
-0.029408 0.013459 0.0
-0.034834 0.013535 0.0
-0.040281 0.013612 0.0
-0.045745 0.013692 0.0
-0.051226 0.013772 0.0
-0.056719 0.013848 0.0
-0.062219 0.013915 0.0
-0.067720 0.013968 0.0
-0.073213 0.013999 0.0
-0.078686 0.014003 0.0
-0.084126 0.013969 0.0
-0.089513 0.013887 0.0
-0.094826 0.013747 0.0
-0.100038 0.013536 0.0
-0.105118 0.013240 0.0
-0.110030 0.012843 0.0
-0.114732 0.012329 0.0
-0.119176 0.011680 0.0
-0.123307 0.010879 0.0
-0.127066 0.009908 0.0
-0.130387 0.008751 0.0
-0.133198 0.007391 0.0
-0.135423 0.005817 0.0
-0.136984 0.004022 0.0
-0.137799 0.002003 0.0
-0.137789 -0.000235 0.0
-0.136880 -0.002681 0.0
-0.135010 -0.005310 0.0
-0.132124 -0.008086 0.0
-0.128184 -0.010964 0.0
-0.123170 -0.013888 0.0
-0.117084 -0.016793 0.0
-0.109950 -0.019609 0.0
-0.101823 -0.022264 0.0
-0.092779 -0.024686 0.0
-0.082925 -0.026809 0.0
-0.072390 -0.028566 0.0
-0.061326 -0.029887 0.0
-0.049920 -0.030666 0.0
-0.038404 -0.030715 0.0
-0.027103 -0.029657 0.0
-0.016532 -0.026745 0.0
-0.007578 -0.020599 0.0
-0.001824 -0.009110 0.0
-0.001084 0.006835 0.0
-0.004246 0.013619 0.0
-0.008836 0.016740 0.0
-0.014040 0.018077 0.0
-0.019499 0.018622 0.0
-0.025065 0.018854 0.0
-0.030679 0.018981 0.0
-0.036320 0.019080 0.0
-0.041981 0.019176 0.0
-0.047660 0.019271 0.0
-0.053352 0.019365 0.0
-0.059054 0.019450 0.0
-0.064762 0.019521 0.0
-0.070468 0.019569 0.0
-0.076164 0.019587 0.0
-0.081838 0.019563 0.0
-0.087475 0.019485 0.0
-0.093058 0.019340 0.0
-0.098565 0.019113 0.0
-0.103968 0.018786 0.0
-0.109238 0.018340 0.0
-0.114338 0.017754 0.0
-0.119225 0.017006 0.0
-0.123851 0.016073 0.0
-0.128162 0.014929 0.0
-0.132096 0.013551 0.0
-0.135584 0.011917 0.0
-0.138555 0.010006 0.0
-0.140927 0.007801 0.0
-0.142619 0.005291 0.0
-0.143545 0.002475 0.0
-0.143619 -0.000642 0.0
-0.142762 -0.004040 0.0
-0.140899 -0.007685 0.0
-0.137967 -0.011529 0.0
-0.133918 -0.015510 0.0
-0.128723 -0.019551 0.0
-0.122377 -0.023562 0.0
-0.114905 -0.027445 0.0
-0.106362 -0.031099 0.0
-0.096835 -0.034422 0.0
-0.086441 -0.037320 0.0
-0.075330 -0.039701 0.0
-0.063678 -0.041467 0.0
-0.051694 -0.042477 0.0
-0.039634 -0.042481 0.0
-0.027849 -0.040977 0.0
-0.016881 -0.036964 0.0
-0.007660 -0.028554 0.0
-0.001818 -0.012751 0.0
-0.001097 0.009016 0.0
-0.004308 0.017810 0.0
-0.008978 0.021808 0.0
-0.014273 0.023509 0.0
-0.019824 0.024202 0.0
-0.025480 0.024497 0.0
-0.031184 0.024656 0.0
-0.036915 0.024778 0.0
-0.042667 0.024892 0.0
-0.048437 0.025004 0.0
-0.054223 0.025111 0.0
-0.060023 0.025206 0.0
-0.065831 0.025281 0.0
-0.071641 0.025326 0.0
-0.077447 0.025331 0.0
-0.083236 0.025282 0.0
-0.088996 0.025164 0.0
-0.094711 0.024959 0.0
-0.100358 0.024649 0.0
-0.105914 0.024211 0.0
-0.111350 0.023621 0.0
-0.116628 0.022852 0.0
-0.121710 0.021877 0.0
-0.126546 0.020665 0.0
-0.131083 0.019184 0.0
-0.135259 0.017405 0.0
-0.139003 0.015297 0.0
-0.142241 0.012833 0.0
-0.144888 0.009992 0.0
-0.146855 0.006759 0.0
-0.148049 0.003127 0.0
-0.148375 -0.000894 0.0
-0.147740 -0.005281 0.0
-0.146053 -0.009993 0.0
-0.143235 -0.014970 0.0
-0.139221 -0.020132 0.0
-0.133969 -0.025377 0.0
-0.127463 -0.030588 0.0
-0.119720 -0.035634 0.0
-0.110798 -0.040376 0.0
-0.100792 -0.044678 0.0
-0.089840 -0.048409 0.0
-0.078117 -0.051446 0.0
-0.065832 -0.053659 0.0
-0.053231 -0.054871 0.0
-0.040609 -0.054770 0.0
-0.028350 -0.052731 0.0
-0.017036 -0.047493 0.0
-0.007632 -0.036650 0.0
-0.001781 -0.016350 0.0
-0.001096 0.011209 0.0
-0.004311 0.022044 0.0
-0.009000 0.026932 0.0
-0.014322 0.029001 0.0
-0.019903 0.029841 0.0
-0.025589 0.030199 0.0
-0.031323 0.030391 0.0
-0.037086 0.030537 0.0
-0.042874 0.030672 0.0
-0.048683 0.030804 0.0
-0.054514 0.030928 0.0
-0.060364 0.031037 0.0
-0.066230 0.031123 0.0
-0.072107 0.031172 0.0
-0.077990 0.031173 0.0
-0.083869 0.031108 0.0
-0.089733 0.030961 0.0
-0.095567 0.030710 0.0
-0.101354 0.030332 0.0
-0.107070 0.029800 0.0
-0.112689 0.029085 0.0
-0.118177 0.028155 0.0
-0.123496 0.026974 0.0
-0.128598 0.025506 0.0
-0.133431 0.023712 0.0
-0.137932 0.021553 0.0
-0.142030 0.018991 0.0
-0.145646 0.015992 0.0
-0.148690 0.012525 0.0
-0.151065 0.008568 0.0
-0.152666 0.004113 0.0
-0.153384 -0.000835 0.0
-0.153107 -0.006252 0.0
-0.151725 -0.012091 0.0
-0.149135 -0.018280 0.0
-0.145250 -0.024720 0.0
-0.140005 -0.031285 0.0
-0.133368 -0.037823 0.0
-0.125345 -0.044163 0.0
-0.115993 -0.050121 0.0
-0.105419 -0.055513 0.0
-0.093785 -0.060160 0.0
-0.081304 -0.063899 0.0
-0.068236 -0.066560 0.0
-0.054879 -0.067928 0.0
-0.041583 -0.067632 0.0
-0.028784 -0.064926 0.0
-0.017103 -0.058293 0.0
-0.007541 -0.044816 0.0
-0.001723 -0.019853 0.0
-0.001087 0.013392 0.0
-0.004287 0.026277 0.0
-0.008965 0.032066 0.0
-0.014283 0.034508 0.0
-0.019864 0.035497 0.0
-0.025552 0.035918 0.0
-0.031290 0.036145 0.0
-0.037061 0.036317 0.0
-0.042860 0.036478 0.0
-0.048687 0.036634 0.0
-0.054542 0.036783 0.0
-0.060425 0.036915 0.0
-0.066334 0.037020 0.0
-0.072267 0.037085 0.0
-0.078219 0.037095 0.0
-0.084185 0.037031 0.0
-0.090155 0.036873 0.0
-0.096117 0.036596 0.0
-0.102057 0.036173 0.0
-0.107956 0.035574 0.0
-0.113788 0.034763 0.0
-0.119525 0.033702 0.0
-0.125129 0.032350 0.0
-0.130557 0.030662 0.0
-0.135757 0.028590 0.0
-0.140666 0.026086 0.0
-0.145213 0.023103 0.0
-0.149312 0.019595 0.0
-0.152869 0.015522 0.0
-0.155776 0.010853 0.0
-0.157915 0.005569 0.0
-0.159158 -0.000330 0.0
-0.159370 -0.006823 0.0
-0.158415 -0.013859 0.0
-0.156159 -0.021357 0.0
-0.152486 -0.029201 0.0
-0.147299 -0.037236 0.0
-0.140541 -0.045269 0.0
-0.132199 -0.053081 0.0
-0.122326 -0.060429 0.0
-0.111042 -0.067063 0.0
-0.098541 -0.072744 0.0
-0.085091 -0.077246 0.0
-0.071019 -0.080353 0.0
-0.056705 -0.081805 0.0
-0.042577 -0.081178 0.0
-0.029139 -0.077617 0.0
-0.017061 -0.069361 0.0
-0.007365 -0.053006 0.0
-0.001635 -0.023211 0.0
-0.001075 0.015554 0.0
-0.004250 0.030489 0.0
-0.008903 0.037185 0.0
-0.014201 0.040004 0.0
-0.019766 0.041146 0.0
-0.025442 0.041633 0.0
-0.031172 0.041898 0.0
-0.036938 0.042101 0.0
-0.042738 0.042293 0.0
-0.048573 0.042481 0.0
-0.054444 0.042662 0.0
-0.060353 0.042828 0.0
-0.066301 0.042965 0.0
-0.072287 0.043060 0.0
-0.078310 0.043096 0.0
-0.084366 0.043052 0.0
-0.090450 0.042905 0.0
-0.096553 0.042629 0.0
-0.102664 0.042191 0.0
-0.108768 0.041558 0.0
-0.114844 0.040688 0.0
-0.120867 0.039537 0.0
-0.126805 0.038057 0.0
-0.132615 0.036194 0.0
-0.138249 0.033891 0.0
-0.143646 0.031090 0.0
-0.148731 0.027730 0.0
-0.153417 0.023754 0.0
-0.157603 0.019106 0.0
-0.161170 0.013743 0.0
-0.163983 0.007632 0.0
-0.165894 0.000761 0.0
-0.166739 -0.006857 0.0
-0.166350 -0.015170 0.0
-0.164555 -0.024095 0.0
-0.161195 -0.033497 0.0
-0.156132 -0.043190 0.0
-0.149268 -0.052938 0.0
-0.140564 -0.062458 0.0
-0.130058 -0.071431 0.0
-0.117883 -0.079521 0.0
-0.104275 -0.086396 0.0
-0.089572 -0.091748 0.0
-0.074206 -0.095290 0.0
-0.058671 -0.096716 0.0
-0.043511 -0.095555 0.0
-0.029320 -0.090869 0.0
-0.016823 -0.080684 0.0
-0.007052 -0.061150 0.0
-0.001501 -0.026347 0.0
-0.001061 0.017691 0.0
-0.004203 0.034668 0.0
-0.008822 0.042277 0.0
-0.014091 0.045480 0.0
-0.019632 0.046777 0.0
-0.025288 0.047334 0.0
-0.031002 0.047641 0.0
-0.036757 0.047880 0.0
-0.042552 0.048109 0.0
-0.048389 0.048337 0.0
-0.054272 0.048561 0.0
-0.060204 0.048771 0.0
-0.066188 0.048954 0.0
-0.072227 0.049096 0.0
-0.078322 0.049177 0.0
-0.084472 0.049177 0.0
-0.090676 0.049068 0.0
-0.096931 0.048823 0.0
-0.103228 0.048406 0.0
-0.109558 0.047777 0.0
-0.115904 0.046892 0.0
-0.122248 0.045700 0.0
-0.128561 0.044144 0.0
-0.134806 0.042163 0.0
-0.140938 0.039688 0.0
-0.146898 0.036649 0.0
-0.152612 0.032971 0.0
-0.157992 0.028579 0.0
-0.162928 0.023403 0.0
-0.167292 0.017377 0.0
-0.170931 0.010451 0.0
-0.173673 0.002594 0.0
-0.175325 -0.006193 0.0
-0.175676 -0.015873 0.0
-0.174505 -0.026358 0.0
-0.171597 -0.037502 0.0
-0.166757 -0.049088 0.0
-0.159830 -0.060830 0.0
-0.150730 -0.072369 0.0
-0.139468 -0.083286 0.0
-0.126183 -0.093126 0.0
-0.111159 -0.101424 0.0
-0.094833 -0.107747 0.0
-0.077782 -0.111708 0.0
-0.060676 -0.112938 0.0
-0.044227 -0.110942 0.0
-0.029159 -0.104743 0.0
-0.016253 -0.092213 0.0
-0.006520 -0.069126 0.0
-0.001297 -0.029145 0.0
-0.001045 0.019796 0.0
-0.004149 0.038809 0.0
-0.008727 0.047334 0.0
-0.013960 0.050925 0.0
-0.019470 0.052382 0.0
-0.025100 0.053013 0.0
-0.030791 0.053367 0.0
-0.036529 0.053648 0.0
-0.042313 0.053920 0.0
-0.048147 0.054196 0.0
-0.054037 0.054473 0.0
-0.059988 0.054741 0.0
-0.066005 0.054986 0.0
-0.072095 0.055193 0.0
-0.078261 0.055341 0.0
-0.084507 0.055409 0.0
-0.090836 0.055369 0.0
-0.097249 0.055189 0.0
-0.103743 0.054831 0.0
-0.110313 0.054252 0.0
-0.116952 0.053402 0.0
-0.123644 0.052225 0.0
-0.130369 0.050656 0.0
-0.137096 0.048624 0.0
-0.143786 0.046049 0.0
-0.150383 0.042846 0.0
-0.156818 0.038924 0.0
-0.163001 0.034189 0.0
-0.168819 0.028547 0.0
-0.174132 0.021909 0.0
-0.178772 0.014198 0.0
-0.182542 0.005358 0.0
-0.185211 -0.004635 0.0
-0.186520 -0.015770 0.0
-0.186189 -0.027963 0.0
-0.183931 -0.041063 0.0
-0.179469 -0.054829 0.0
-0.172568 -0.068918 0.0
-0.163066 -0.082883 0.0
-0.150923 -0.096176 0.0
-0.136267 -0.108177 0.0
-0.119434 -0.118231 0.0
-0.100991 -0.125709 0.0
-0.081722 -0.130067 0.0
-0.062560 -0.130847 0.0
-0.044482 -0.127560 0.0
-0.028396 -0.119278 0.0
-0.015146 -0.103833 0.0
-0.005656 -0.076729 0.0
-0.000990 -0.031432 0.0
-0.001026 0.021867 0.0
-0.004087 0.042903 0.0
-0.008617 0.052349 0.0
-0.013808 0.056334 0.0
-0.019281 0.057956 0.0
-0.024877 0.058664 0.0
-0.030539 0.059069 0.0
-0.036254 0.059398 0.0
-0.042021 0.059721 0.0
-0.047846 0.060055 0.0
-0.053736 0.060395 0.0
-0.059700 0.060734 0.0
-0.065746 0.061056 0.0
-0.071881 0.061347 0.0
-0.078115 0.061586 0.0
-0.084455 0.061750 0.0
-0.090907 0.061810 0.0
-0.097479 0.061732 0.0
-0.104175 0.061477 0.0
-0.110996 0.060998 0.0
-0.117941 0.060240 0.0
-0.125003 0.059142 0.0
-0.132170 0.057631 0.0
-0.139421 0.055626 0.0
-0.146722 0.053037 0.0
-0.154028 0.049761 0.0
-0.161274 0.045690 0.0
-0.168373 0.040705 0.0
-0.175212 0.034687 0.0
-0.181644 0.027515 0.0
-0.187488 0.019077 0.0
-0.192518 0.009279 0.0
-0.196461 -0.001943 0.0
-0.199005 -0.014609 0.0
-0.199800 -0.028660 0.0
-0.198468 -0.043956 0.0
-0.194624 -0.060241 0.0
-0.187914 -0.077118 0.0
-0.178061 -0.094038 0.0
-0.164931 -0.110293 0.0
-0.148610 -0.125038 0.0
-0.129475 -0.137338 0.0
-0.108253 -0.146266 0.0
-0.086021 -0.151011 0.0
-0.064113 -0.150973 0.0
-0.043921 -0.145705 0.0
-0.026652 -0.134487 0.0
-0.013202 -0.115324 0.0
-0.004300 -0.083630 0.0
-0.000538 -0.032959 0.0
-0.001005 0.023898 0.0
-0.004016 0.046944 0.0
-0.008492 0.057315 0.0
-0.013633 0.061699 0.0
-0.019061 0.063491 0.0
-0.024617 0.064281 0.0
-0.030244 0.064742 0.0
-0.035928 0.065123 0.0
-0.041670 0.065505 0.0
-0.047478 0.065904 0.0
-0.053361 0.066319 0.0
-0.059330 0.066742 0.0
-0.065395 0.067159 0.0
-0.071568 0.067554 0.0
-0.077861 0.067907 0.0
-0.084287 0.068195 0.0
-0.090858 0.068388 0.0
-0.097585 0.068453 0.0
-0.104480 0.068347 0.0
-0.111553 0.068021 0.0
-0.118810 0.067419 0.0
-0.126256 0.066471 0.0
-0.133887 0.065100 0.0
-0.141693 0.063214 0.0
-0.149653 0.060711 0.0
-0.157732 0.057472 0.0
-0.165875 0.053368 0.0
-0.174005 0.048255 0.0
-0.182010 0.041981 0.0
-0.189744 0.034387 0.0
-0.197012 0.025316 0.0
-0.203565 0.014623 0.0
-0.209095 0.002187 0.0
-0.213233 -0.012059 0.0
-0.215539 -0.028110 0.0
-0.215519 -0.045858 0.0
-0.212652 -0.065051 0.0
-0.206419 -0.085252 0.0
-0.196371 -0.105805 0.0
-0.182218 -0.125809 0.0
-0.163941 -0.144121 0.0
-0.141923 -0.159408 0.0
-0.117068 -0.170274 0.0
-0.090840 -0.175463 0.0
-0.065167 -0.174102 0.0
-0.042119 -0.165816 0.0
-0.023410 -0.150354 0.0
-0.010011 -0.126305 0.0
-0.002244 -0.089318 0.0
0.000110 -0.033387 0.0
-0.000981 0.025884 0.0
-0.003937 0.050925 0.0
-0.008351 0.062225 0.0
-0.013434 0.067014 0.0
-0.018810 0.068980 0.0
-0.024318 0.069856 0.0
-0.029901 0.070377 0.0
-0.035545 0.070816 0.0
-0.041253 0.071262 0.0
-0.047034 0.071736 0.0
-0.052900 0.072236 0.0
-0.058862 0.072756 0.0
-0.064935 0.073283 0.0
-0.071134 0.073802 0.0
-0.077475 0.074293 0.0
-0.083974 0.074734 0.0
-0.090650 0.075096 0.0
-0.097522 0.075344 0.0
-0.104607 0.075436 0.0
-0.111925 0.075322 0.0
-0.119492 0.074942 0.0
-0.127323 0.074224 0.0
-0.135427 0.073083 0.0
-0.143810 0.071420 0.0
-0.152464 0.069120 0.0
-0.161371 0.066049 0.0
-0.170491 0.062055 0.0
-0.179760 0.056967 0.0
-0.189080 0.050595 0.0
-0.198309 0.042735 0.0
-0.207248 0.033175 0.0
-0.215635 0.021704 0.0
-0.223128 0.008129 0.0
-0.229296 -0.007695 0.0
-0.233605 -0.025859 0.0
-0.235425 -0.046307 0.0
-0.234062 -0.068832 0.0
-0.228782 -0.092984 0.0
-0.218891 -0.118011 0.0
-0.203853 -0.142793 0.0
-0.183455 -0.165812 0.0
-0.158004 -0.185185 0.0
-0.128536 -0.198819 0.0
-0.096963 -0.204718 0.0
-0.066025 -0.201458 0.0
-0.038870 -0.188664 0.0
-0.018163 -0.166922 0.0
-0.005111 -0.136188 0.0
0.000746 -0.093060 0.0
0.001012 -0.032265 0.0
-0.000955 0.027819 0.0
-0.003848 0.054838 0.0
-0.008192 0.067070 0.0
-0.013210 0.072271 0.0
-0.018526 0.074415 0.0
-0.023977 0.075381 0.0
-0.029506 0.075965 0.0
-0.035101 0.076466 0.0
-0.040764 0.076983 0.0
-0.046506 0.077538 0.0
-0.052341 0.078134 0.0
-0.058284 0.078763 0.0
-0.064350 0.079415 0.0
-0.070558 0.080077 0.0
-0.076929 0.080730 0.0
-0.083484 0.081352 0.0
-0.090248 0.081917 0.0
-0.097245 0.082391 0.0
-0.104502 0.082732 0.0
-0.112048 0.082890 0.0
-0.119909 0.082803 0.0
-0.128115 0.082399 0.0
-0.136690 0.081587 0.0
-0.145656 0.080263 0.0
-0.155024 0.078299 0.0
-0.164797 0.075548 0.0
-0.174957 0.071836 0.0
-0.185465 0.066962 0.0
-0.196242 0.060697 0.0
-0.207163 0.052784 0.0
-0.218044 0.042946 0.0
-0.228616 0.030891 0.0
-0.238511 0.016329 0.0
-0.247234 -0.001003 0.0
-0.254162 -0.021316 0.0
-0.258531 -0.044661 0.0
-0.259438 -0.070933 0.0
-0.255882 -0.099718 0.0
-0.246855 -0.130195 0.0
-0.231483 -0.161018 0.0
-0.209236 -0.190233 0.0
-0.180188 -0.215264 0.0
-0.145343 -0.233054 0.0
-0.106946 -0.240453 0.0
-0.068650 -0.234957 0.0
-0.035174 -0.215796 0.0
-0.011017 -0.184654 0.0
0.001737 -0.144263 0.0
0.004866 -0.093971 0.0
0.002250 -0.029003 0.0
-0.000925 0.029700 0.0
-0.003749 0.058675 0.0
-0.008015 0.071843 0.0
-0.012959 0.077460 0.0
-0.018205 0.079788 0.0
-0.023590 0.080845 0.0
-0.029056 0.081496 0.0
-0.034590 0.082063 0.0
-0.040196 0.082655 0.0
-0.045886 0.083299 0.0
-0.051676 0.083998 0.0
-0.057581 0.084747 0.0
-0.063622 0.085538 0.0
-0.069820 0.086360 0.0
-0.076199 0.087196 0.0
-0.082787 0.088028 0.0
-0.089612 0.088830 0.0
-0.096707 0.089571 0.0
-0.104109 0.090211 0.0
-0.111854 0.090702 0.0
-0.119983 0.090983 0.0
-0.128539 0.090981 0.0
-0.137564 0.090605 0.0
-0.147098 0.089745 0.0
-0.157179 0.088267 0.0
-0.167834 0.086009 0.0
-0.179078 0.082780 0.0
-0.190900 0.078348 0.0
-0.203258 0.072445 0.0
-0.216059 0.064759 0.0
-0.229143 0.054936 0.0
-0.242256 0.042586 0.0
-0.255023 0.027296 0.0
-0.266923 0.008654 0.0
-0.277274 -0.013695 0.0
-0.285151 -0.040035 0.0
-0.289424 -0.070380 0.0
-0.288826 -0.104426 0.0
-0.282010 -0.141331 0.0
-0.267704 -0.179559 0.0
-0.244919 -0.216725 0.0
-0.213234 -0.249505 0.0
-0.173222 -0.273670 0.0
-0.127023 -0.284432 0.0
-0.078909 -0.277388 0.0
-0.035428 -0.250322 0.0
-0.004265 -0.205448 0.0
0.009876 -0.150366 0.0
0.010059 -0.091180 0.0
0.003817 -0.022936 0.0
-0.000893 0.031518 0.0
-0.003641 0.062427 0.0
-0.007819 0.076535 0.0
-0.012680 0.082574 0.0
-0.017848 0.085088 0.0
-0.023157 0.086240 0.0
-0.028549 0.086959 0.0
-0.034010 0.087595 0.0
-0.039545 0.088265 0.0
-0.045167 0.089002 0.0
-0.050894 0.089810 0.0
-0.056743 0.090689 0.0
-0.062737 0.091631 0.0
-0.068900 0.092628 0.0
-0.075261 0.093668 0.0
-0.081851 0.094734 0.0
-0.088705 0.095804 0.0
-0.095864 0.096851 0.0
-0.103371 0.097839 0.0
-0.111275 0.098723 0.0
-0.119630 0.099446 0.0
-0.128493 0.099937 0.0
-0.137927 0.100107 0.0
-0.147994 0.099845 0.0
-0.158759 0.099013 0.0
-0.170284 0.097443 0.0
-0.182619 0.094925 0.0
-0.195799 0.091206 0.0
-0.209831 0.085977 0.0
-0.224672 0.078871 0.0
-0.240216 0.069452 0.0
-0.256255 0.057222 0.0
-0.272449 0.041621 0.0
-0.288277 0.022057 0.0
-0.302970 -0.002054 0.0
-0.315530 -0.031238 0.0
-0.324709 -0.065725 0.0
-0.329010 -0.105377 0.0
-0.326800 -0.149406 0.0
-0.316387 -0.196203 0.0
-0.296124 -0.243130 0.0
-0.264665 -0.286244 0.0
-0.221542 -0.320065 0.0
-0.168044 -0.337734 0.0
-0.108249 -0.331995 0.0
-0.049981 -0.297463 0.0
-0.004808 -0.234641 0.0
0.016360 -0.156482 0.0
0.015472 -0.084359 0.0
0.005538 -0.013582 0.0
-0.000859 0.033271 0.0
-0.003523 0.066086 0.0
-0.007605 0.081136 0.0
-0.012374 0.087603 0.0
-0.017454 0.090306 0.0
-0.022677 0.091554 0.0
-0.027982 0.092342 0.0
-0.033357 0.093047 0.0
-0.038807 0.093797 0.0
-0.044345 0.094630 0.0
-0.049989 0.095553 0.0
-0.055760 0.096567 0.0
-0.061682 0.097669 0.0
-0.067783 0.098854 0.0
-0.074094 0.100114 0.0
-0.080651 0.101435 0.0
-0.087495 0.102801 0.0
-0.094672 0.104190 0.0
-0.102237 0.105571 0.0
-0.110247 0.106905 0.0
-0.118769 0.108141 0.0
-0.127878 0.109214 0.0
-0.137656 0.110041 0.0
-0.148192 0.110514 0.0
-0.159581 0.110498 0.0
-0.171922 0.109823 0.0
-0.185315 0.108272 0.0
-0.199848 0.105573 0.0
-0.215593 0.101387 0.0
-0.232584 0.095294 0.0
-0.250794 0.086782 0.0
-0.270096 0.075234 0.0
-0.290221 0.059930 0.0
-0.310708 0.040062 0.0
-0.330859 0.014785 0.0
-0.349710 -0.016666 0.0
-0.365964 -0.054864 0.0
-0.378063 -0.099838 0.0
-0.384199 -0.151020 0.0
-0.382139 -0.207062 0.0
-0.369173 -0.265499 0.0
-0.342471 -0.322035 0.0
-0.299984 -0.369884 0.0
-0.241598 -0.399800 0.0
-0.170307 -0.401016 0.0
-0.093677 -0.363340 0.0
-0.025570 -0.282044 0.0
0.014109 -0.169926 0.0
0.018961 -0.074878 0.0
0.006939 -0.001105 0.0
-0.000822 0.034951 0.0
-0.003396 0.069644 0.0
-0.007374 0.085638 0.0
-0.012042 0.092538 0.0
-0.017024 0.095433 0.0
-0.022150 0.096777 0.0
-0.027358 0.097632 0.0
-0.032633 0.098406 0.0
-0.037981 0.099236 0.0
-0.043416 0.100164 0.0
-0.048957 0.101203 0.0
-0.054626 0.102356 0.0
-0.060449 0.103625 0.0
-0.066456 0.105006 0.0
-0.072680 0.106498 0.0
-0.079163 0.108091 0.0
-0.085950 0.109776 0.0
-0.093094 0.111537 0.0
-0.100656 0.113350 0.0
-0.108705 0.115185 0.0
-0.117321 0.116999 0.0
-0.126594 0.118738 0.0
-0.136627 0.120328 0.0
-0.147536 0.121671 0.0
-0.159450 0.122644 0.0
-0.172510 0.123080 0.0
-0.186869 0.122766 0.0
-0.202684 0.121426 0.0
-0.220109 0.118703 0.0
-0.239278 0.114138 0.0
-0.260282 0.107151 0.0
-0.283131 0.097015 0.0
-0.307706 0.082849 0.0
-0.333707 0.063630 0.0
-0.360595 0.038257 0.0
-0.387575 0.005692 0.0
-0.413637 -0.034907 0.0
-0.437319 -0.084013 0.0
-0.456406 -0.141622 0.0
-0.467631 -0.207296 0.0
-0.466591 -0.279271 0.0
-0.448660 -0.352898 0.0
-0.410385 -0.419783 0.0
-0.350492 -0.468179 0.0
-0.270546 -0.483873 0.0
-0.176257 -0.451402 0.0
-0.080486 -0.357862 0.0
-0.007630 -0.206643 0.0
0.016738 -0.067381 0.0
0.007162 0.012995 0.0
-0.000782 0.036554 0.0
-0.003260 0.073094 0.0
-0.007126 0.090032 0.0
-0.011685 0.097370 0.0
-0.016560 0.100458 0.0
-0.021579 0.101896 0.0
-0.026677 0.102817 0.0
-0.031838 0.103657 0.0
-0.037068 0.104564 0.0
-0.042382 0.105586 0.0
-0.047798 0.106739 0.0
-0.053339 0.108031 0.0
-0.059032 0.109467 0.0
-0.064910 0.111049 0.0
-0.071009 0.112779 0.0
-0.077372 0.114656 0.0
-0.084049 0.116676 0.0
-0.091099 0.118831 0.0
-0.098589 0.121107 0.0
-0.106597 0.123485 0.0
-0.115216 0.125934 0.0
-0.124550 0.128411 0.0
-0.134723 0.130860 0.0
-0.145876 0.133201 0.0
-0.158173 0.135325 0.0
-0.171800 0.137086 0.0
-0.186968 0.138287 0.0
-0.203911 0.138664 0.0
-0.222882 0.137861 0.0
-0.244141 0.135407 0.0
-0.267935 0.130679 0.0
-0.294471 0.122871 0.0
-0.323871 0.110970 0.0
-0.356142 0.093780 0.0
-0.391135 0.069989 0.0
-0.428490 0.038295 0.0
-0.467405 -0.002533 0.0
-0.506246 -0.053865 0.0
-0.541762 -0.117166 0.0
-0.568741 -0.193548 0.0
-0.580857 -0.281943 0.0
-0.572435 -0.376579 0.0
-0.539871 -0.466941 0.0
-0.481622 -0.539164 0.0
-0.397887 -0.576568 0.0
-0.291520 -0.559362 0.0
-0.171144 -0.466049 0.0
-0.057918 -0.284539 0.0
0.002024 -0.073795 0.0
0.005427 0.025584 0.0
-0.000740 0.038077 0.0
-0.003118 0.076427 0.0
-0.006864 0.094311 0.0
-0.011306 0.102091 0.0
-0.016066 0.105373 0.0
-0.020968 0.106903 0.0
-0.025944 0.107885 0.0
-0.030977 0.108784 0.0
-0.036073 0.109762 0.0
-0.041245 0.110873 0.0
-0.046513 0.112135 0.0
-0.051899 0.113562 0.0
-0.057432 0.115162 0.0
-0.063143 0.116943 0.0
-0.069073 0.118913 0.0
-0.075266 0.121078 0.0
-0.081775 0.123441 0.0
-0.088663 0.126004 0.0
-0.096002 0.128764 0.0
-0.103879 0.131714 0.0
-0.112394 0.134838 0.0
-0.121667 0.138113 0.0
-0.131838 0.141502 0.0
-0.143072 0.144947 0.0
-0.155565 0.148369 0.0
-0.169548 0.151652 0.0
-0.185291 0.154633 0.0
-0.203111 0.157081 0.0
-0.223369 0.158673 0.0
-0.246474 0.158959 0.0
-0.272874 0.157322 0.0
-0.303046 0.152935 0.0
-0.337476 0.144737 0.0
-0.376653 0.131459 0.0
-0.420999 0.111650 0.0
-0.470614 0.083604 0.0
-0.524574 0.045033 0.0
-0.579899 -0.007265 0.0
-0.631088 -0.077060 0.0
-0.670943 -0.166821 0.0
-0.692460 -0.275037 0.0
-0.690858 -0.393509 0.0
-0.663866 -0.509567 0.0
-0.610225 -0.608429 0.0
-0.528664 -0.672599 0.0
-0.418620 -0.679742 0.0
-0.283292 -0.601373 0.0
-0.137065 -0.408669 0.0
-0.028544 -0.118128 0.0
0.003480 0.034490 0.0
-0.000697 0.039514 0.0
-0.002969 0.079639 0.0
-0.006591 0.098468 0.0
-0.010909 0.106693 0.0
-0.015546 0.110167 0.0
-0.020322 0.111785 0.0
-0.025165 0.112822 0.0
-0.030057 0.113773 0.0
-0.035002 0.114814 0.0
-0.040013 0.116004 0.0
-0.045109 0.117367 0.0
-0.050313 0.118920 0.0
-0.055651 0.120676 0.0
-0.061159 0.122649 0.0
-0.066874 0.124852 0.0
-0.072844 0.127301 0.0
-0.079123 0.130006 0.0
-0.085776 0.132979 0.0
-0.092879 0.136231 0.0
-0.100523 0.139768 0.0
-0.108816 0.143593 0.0
-0.117887 0.147703 0.0
-0.127889 0.152085 0.0
-0.139009 0.156716 0.0
-0.151468 0.161552 0.0
-0.165536 0.166520 0.0
-0.181539 0.171511 0.0
-0.199873 0.176355 0.0
-0.221011 0.180795 0.0
-0.245527 0.184457 0.0
-0.274102 0.186800 0.0
-0.307553 0.187080 0.0
-0.346855 0.184326 0.0
-0.393119 0.177311 0.0
-0.447335 0.164361 0.0
-0.509594 0.142767 0.0
-0.577734 0.107969 0.0
-0.646268 0.053658 0.0
-0.707069 -0.025994 0.0
-0.752351 -0.132750 0.0
-0.777041 -0.262902 0.0
-0.778922 -0.405366 0.0
-0.757422 -0.546202 0.0
-0.711502 -0.671355 0.0
-0.638370 -0.764365 0.0
-0.533949 -0.802440 0.0
-0.395706 -0.752245 0.0
-0.229612 -0.570118 0.0
-0.067584 -0.227227 0.0
0.003006 0.040976 0.0
-0.000653 0.040864 0.0
-0.002817 0.082724 0.0
-0.006310 0.102498 0.0
-0.010499 0.111171 0.0
-0.015007 0.114835 0.0
-0.019649 0.116534 0.0
-0.024349 0.117616 0.0
-0.029088 0.118610 0.0
-0.033866 0.119702 0.0
-0.038697 0.120959 0.0
-0.043598 0.122409 0.0
-0.048591 0.124074 0.0
-0.053703 0.125972 0.0
-0.058967 0.128123 0.0
-0.064421 0.130548 0.0
-0.070113 0.133267 0.0
-0.076097 0.136302 0.0
-0.082438 0.139676 0.0
-0.089214 0.143413 0.0
-0.096517 0.147534 0.0
-0.104460 0.152062 0.0
-0.113175 0.157019 0.0
-0.122824 0.162421 0.0
-0.133606 0.168281 0.0
-0.145761 0.174601 0.0
-0.159588 0.181367 0.0
-0.175458 0.188538 0.0
-0.193831 0.196034 0.0
-0.215285 0.203709 0.0
-0.240551 0.211324 0.0
-0.270556 0.218513 0.0
-0.306490 0.224752 0.0
-0.349842 0.229307 0.0
-0.402243 0.230994 0.0
-0.464786 0.227436 0.0
-0.536589 0.213754 0.0
-0.613304 0.181837 0.0
-0.687159 0.122180 0.0
-0.749344 0.028469 0.0
-0.793204 -0.098070 0.0
-0.816460 -0.249636 0.0
-0.819779 -0.413432 0.0
-0.803994 -0.575420 0.0
-0.768401 -0.723649 0.0
-0.709144 -0.844460 0.0
-0.618964 -0.916946 0.0
-0.489423 -0.905524 0.0
-0.317386 -0.754970 0.0
-0.119100 -0.402687 0.0
-0.008618 0.035364 0.0
-0.000609 0.042126 0.0
-0.002663 0.085681 0.0
-0.006026 0.106398 0.0
-0.010084 0.115519 0.0
-0.014458 0.119370 0.0
-0.018959 0.121142 0.0
-0.023508 0.122258 0.0
-0.028082 0.123280 0.0
-0.032679 0.124408 0.0
-0.037312 0.125716 0.0
-0.041995 0.127236 0.0
-0.046750 0.128995 0.0
-0.051602 0.131016 0.0
-0.056583 0.133325 0.0
-0.061731 0.135949 0.0
-0.067090 0.138916 0.0
-0.072713 0.142260 0.0
-0.078665 0.146012 0.0
-0.085021 0.150210 0.0
-0.091873 0.154893 0.0
-0.099331 0.160104 0.0
-0.107528 0.165889 0.0
-0.116627 0.172299 0.0
-0.126829 0.179386 0.0
-0.138382 0.187205 0.0
-0.151599 0.195807 0.0
-0.166874 0.205242 0.0
-0.184710 0.215540 0.0
-0.205760 0.226708 0.0
-0.230878 0.238709 0.0
-0.261197 0.251453 0.0
-0.298209 0.264760 0.0
-0.343742 0.278183 0.0
-0.399532 0.290310 0.0
-0.466072 0.297204 0.0
-0.540963 0.290681 0.0
-0.618114 0.258775 0.0
-0.689090 0.190073 0.0
-0.746115 0.079786 0.0
-0.784599 -0.067043 0.0
-0.804391 -0.237616 0.0
-0.808001 -0.418523 0.0
-0.797639 -0.596476 0.0
-0.773498 -0.762328 0.0
-0.731751 -0.906786 0.0
-0.663110 -1.013442 0.0
-0.554193 -1.047487 0.0
-0.394610 -0.944627 0.0
-0.194290 -0.611635 0.0
-0.043604 -0.016858 0.0
-0.000565 0.043299 0.0
-0.002511 0.088508 0.0
-0.005744 0.110166 0.0
-0.009670 0.119735 0.0
-0.013909 0.123767 0.0
-0.018265 0.125601 0.0
-0.022656 0.126738 0.0
-0.027055 0.127772 0.0
-0.031458 0.128918 0.0
-0.035875 0.130256 0.0
-0.040320 0.131824 0.0
-0.044811 0.133653 0.0
-0.049373 0.135772 0.0
-0.054034 0.138211 0.0
-0.058830 0.141005 0.0
-0.063802 0.144191 0.0
-0.069001 0.147808 0.0
-0.074488 0.151902 0.0
-0.080333 0.156521 0.0
-0.086623 0.161723 0.0
-0.093463 0.167571 0.0
-0.100979 0.174136 0.0
-0.109327 0.181500 0.0
-0.118700 0.189760 0.0
-0.129340 0.199024 0.0
-0.141552 0.209417 0.0
-0.155728 0.221083 0.0
-0.172380 0.234186 0.0
-0.192181 0.248912 0.0
-0.216038 0.265479 0.0
-0.245176 0.284140 0.0
-0.281196 0.305105 0.0
-0.325919 0.328095 0.0
-0.380721 0.350991 0.0
-0.445202 0.367544 0.0
-0.515898 0.365927 0.0
-0.586323 0.331104 0.0
-0.648885 0.251282 0.0
-0.697533 0.124251 0.0
-0.729506 -0.041051 0.0