# vtk DataFile Version 3.0
Scalar Field
ASCII
DATASET RECTILINEAR_GRID
DIMENSIONS 50 50 1
X_COORDINATES 50 double
0.100000 0.300000 0.500000 0.700000 0.900000 1.100000 1.300000 1.500000 1.700000 1.900000 2.100000 2.300000 2.500000 2.700000 2.900000 3.100000 3.300000 3.500000 3.700000 3.900000 4.100000 4.300000 4.500000 4.700000 4.900000 5.100000 5.300000 5.500000 5.700000 5.900000 6.100000 6.300000 6.500000 6.700000 6.900000 7.100000 7.300000 7.500000 7.700000 7.900000 8.100000 8.300000 8.500000 8.700000 8.900000 9.100000 9.300000 9.500000 9.700000 9.900000 
Y_COORDINATES 50 double
0.100000 0.300000 0.500000 0.700000 0.900000 1.100000 1.300000 1.500000 1.700000 1.900000 2.100000 2.300000 2.500000 2.700000 2.900000 3.100000 3.300000 3.500000 3.700000 3.900000 4.100000 4.300000 4.500000 4.700000 4.900000 5.100000 5.300000 5.500000 5.700000 5.900000 6.100000 6.300000 6.500000 6.700000 6.900000 7.100000 7.300000 7.500000 7.700000 7.900000 8.100000 8.300000 8.500000 8.700000 8.900000 9.100000 9.300000 9.500000 9.700000 9.900000 
Z_COORDINATES 1 double
0.0
POINT_DATA 2500
SCALARS Skalarfeld double 1
LOOKUP_TABLE default
-0.011776
-0.011830
-0.011959
-0.012129
-0.012312
-0.012486
-0.012635
-0.012748
-0.012818
-0.012841
-0.012814
-0.012735
-0.012605
-0.012425
-0.012194
-0.011915
-0.011588
-0.011217
-0.010802
-0.010348
-0.009856
-0.009330
-0.008774
-0.008194
-0.007594
-0.006981
-0.006362
-0.005743
-0.005134
-0.004543
-0.003977
-0.003446
-0.002957
-0.002519
-0.002139
-0.001822
-0.001572
-0.001394
-0.001287
-0.001250
-0.001280
-0.001372
-0.001515
-0.001700
-0.001912
-0.002135
-0.002348
-0.002527
-0.002646
-0.002684
-0.011722
-0.011776
-0.011883
-0.012021
-0.012167
-0.012306
-0.012424
-0.012512
-0.012562
-0.012570
-0.012534
-0.012451
-0.012321
-0.012145
-0.011922
-0.011654
-0.011342
-0.010988
-0.010593
-0.010162
-0.009695
-0.009197
-0.008671
-0.008123
-0.007557
-0.006979
-0.006396
-0.005814
-0.005242
-0.004686
-0.004155
-0.003657
-0.003198
-0.002787
-0.002428
-0.002128
-0.001889
-0.001715
-0.001606
-0.001560
-0.001574
-0.001642
-0.001757
-0.001907
-0.002080
-0.002263
-0.002437
-0.002584
-0.002685
-0.002723
-0.011592
-0.011669
-0.011778
-0.011903
-0.012030
-0.012148
-0.012245
-0.012314
-0.012349
-0.012346
-0.012302
-0.012215
-0.012086
-0.011913
-0.011697
-0.011438
-0.011139
-0.010800
-0.010424
-0.010012
-0.009567
-0.009093
-0.008593
-0.008071
-0.007533
-0.006984
-0.006430
-0.005878
-0.005335
-0.004808
-0.004304
-0.003831
-0.003395
-0.003004
-0.002662
-0.002375
-0.002145
-0.001975
-0.001865
-0.001813
-0.001816
-0.001869
-0.001963
-0.002091
-0.002240
-0.002399
-0.002552
-0.002687
-0.002788
-0.002841
-0.011418
-0.011532
-0.011656
-0.011783
-0.011904
-0.012011
-0.012095
-0.012152
-0.012176
-0.012165
-0.012115
-0.012026
-0.011897
-0.011728
-0.011518
-0.011268
-0.010980
-0.010654
-0.010293
-0.009898
-0.009472
-0.009018
-0.008539
-0.008039
-0.007524
-0.006998
-0.006467
-0.005938
-0.005417
-0.004911
-0.004428
-0.003973
-0.003554
-0.003177
-0.002848
-0.002570
-0.002346
-0.002180
-0.002070
-0.002015
-0.002012
-0.002056
-0.002139
-0.002255
-0.002392
-0.002540
-0.002687
-0.002823
-0.002937
-0.003020
-0.011228
-0.011383
-0.011531
-0.011670
-0.011794
-0.011898
-0.011976
-0.012026
-0.012044
-0.012028
-0.011975
-0.011884
-0.011756
-0.011590
-0.011385
-0.011144
-0.010865
-0.010551
-0.010202
-0.009822
-0.009411
-0.008973
-0.008512
-0.008029
-0.007532
-0.007023
-0.006509
-0.005996
-0.005491
-0.005000
-0.004531
-0.004089
-0.003681
-0.003314
-0.002992
-0.002720
-0.002501
-0.002337
-0.002228
-0.002173
-0.002168
-0.002208
-0.002288
-0.002399
-0.002534
-0.002682
-0.002835
-0.002983
-0.003118
-0.003235
-0.011043
-0.011240
-0.011417
-0.011573
-0.011706
-0.011813
-0.011891
-0.011939
-0.011954
-0.011935
-0.011880
-0.011790
-0.011663
-0.011500
-0.011301
-0.011066
-0.010796
-0.010491
-0.010154
-0.009785
-0.009387
-0.008962
-0.008513
-0.008044
-0.007559
-0.007062
-0.006560
-0.006058
-0.005562
-0.005080
-0.004619
-0.004183
-0.003781
-0.003419
-0.003101
-0.002832
-0.002616
-0.002453
-0.002346
-0.002291
-0.002287
-0.002329
-0.002411
-0.002526
-0.002665
-0.002822
-0.002988
-0.003155
-0.003317
-0.003471
-0.010880
-0.011119
-0.011326
-0.011502
-0.011648
-0.011762
-0.011844
-0.011893
-0.011908
-0.011888
-0.011834
-0.011745
-0.011620
-0.011461
-0.011266
-0.011037
-0.010774
-0.010478
-0.010149
-0.009790
-0.009401
-0.008986
-0.008547
-0.008086
-0.007609
-0.007120
-0.006623
-0.006127
-0.005635
-0.005156
-0.004696
-0.004262
-0.003861
-0.003498
-0.003180
-0.002911
-0.002694
-0.002533
-0.002426
-0.002374
-0.002374
-0.002420
-0.002509
-0.002633
-0.002784
-0.002956
-0.003141
-0.003332
-0.003524
-0.003716
-0.010751
-0.011030
-0.011267
-0.011466
-0.011627
-0.011751
-0.011839
-0.011892
-0.011909
-0.011891
-0.011838
-0.011751
-0.011630
-0.011474
-0.011284
-0.011060
-0.010804
-0.010514
-0.010193
-0.009840
-0.009459
-0.009050
-0.008616
-0.008161
-0.007687
-0.007200
-0.006705
-0.006207
-0.005715
-0.005233
-0.004769
-0.004331
-0.003924
-0.003557
-0.003234
-0.002961
-0.002742
-0.002579
-0.002474
-0.002425
-0.002429
-0.002484
-0.002583
-0.002721
-0.002889
-0.003081
-0.003290
-0.003509
-0.003733
-0.003961
-0.010667
-0.010983
-0.011251
-0.011472
-0.011649
-0.011785
-0.011882
-0.011940
-0.011961
-0.011947
-0.011897
-0.011813
-0.011695
-0.011543
-0.011357
-0.011139
-0.010887
-0.010603
-0.010287
-0.009939
-0.009562
-0.009157
-0.008726
-0.008271
-0.007797
-0.007308
-0.006809
-0.006306
-0.005806
-0.005316
-0.004843
-0.004394
-0.003978
-0.003600
-0.003269
-0.002988
-0.002763
-0.002598
-0.002492
-0.002445
-0.002457
-0.002521
-0.002634
-0.002789
-0.002979
-0.003195
-0.003432
-0.003682
-0.003940
-0.004203
-0.010636
-0.010988
-0.011284
-0.011528
-0.011723
-0.011872
-0.011978
-0.012043
-0.012070
-0.012060
-0.012014
-0.011934
-0.011819
-0.011671
-0.011490
-0.011276
-0.011029
-0.010749
-0.010436
-0.010092
-0.009717
-0.009313
-0.008881
-0.008424
-0.007946
-0.007450
-0.006942
-0.006428
-0.005916
-0.005412
-0.004924
-0.004459
-0.004027
-0.003634
-0.003289
-0.002996
-0.002762
-0.002590
-0.002482
-0.002438
-0.002456
-0.002533
-0.002662
-0.002838
-0.003052
-0.003297
-0.003565
-0.003849
-0.004142
-0.004441
-0.010665
-0.011051
-0.011375
-0.011641
-0.011853
-0.012016
-0.012132
-0.012206
-0.012239
-0.012235
-0.012194
-0.012118
-0.012008
-0.011864
-0.011687
-0.011477
-0.011233
-0.010957
-0.010647
-0.010304
-0.009929
-0.009523
-0.009088
-0.008626
-0.008139
-0.007633
-0.007112
-0.006582
-0.006052
-0.005528
-0.005019
-0.004533
-0.004078
-0.003665
-0.003299
-0.002990
-0.002742
-0.002561
-0.002449
-0.002406
-0.002430
-0.002519
-0.002666
-0.002865
-0.003108
-0.003385
-0.003688
-0.004009
-0.004341
-0.004677
-0.010760
-0.011178
-0.011529
-0.011818
-0.012048
-0.012224
-0.012352
-0.012434
-0.012475
-0.012476
-0.012440
-0.012370
-0.012264
-0.012125
-0.011953
-0.011746
-0.011506
-0.011232
-0.010924
-0.010581
-0.010205
-0.009796
-0.009354
-0.008884
-0.008386
-0.007865
-0.007326
-0.006776
-0.006223
-0.005673
-0.005137
-0.004623
-0.004140
-0.003699
-0.003308
-0.002975
-0.002709
-0.002514
-0.002393
-0.002349
-0.002379
-0.002480
-0.002647
-0.002872
-0.003146
-0.003459
-0.003801
-0.004163
-0.004536
-0.004912
-0.010927
-0.011377
-0.011754
-0.012064
-0.012311
-0.012502
-0.012641
-0.012733
-0.012781
-0.012790
-0.012760
-0.012695
-0.012595
-0.012461
-0.012293
-0.012090
-0.011854
-0.011582
-0.011275
-0.010931
-0.010552
-0.010138
-0.009689
-0.009207
-0.008696
-0.008157
-0.007596
-0.007021
-0.006439
-0.005858
-0.005288
-0.004739
-0.004221
-0.003745
-0.003321
-0.002959
-0.002667
-0.002452
-0.002319
-0.002270
-0.002304
-0.002417
-0.002604
-0.002857
-0.003165
-0.003518
-0.003903
-0.004311
-0.004729
-0.005149
-0.011171
-0.011651
-0.012055
-0.012386
-0.012650
-0.012855
-0.013006
-0.013108
-0.013165
-0.013181
-0.013158
-0.013099
-0.013005
-0.012877
-0.012714
-0.012516
-0.012282
-0.012013
-0.011707
-0.011362
-0.010980
-0.010560
-0.010102
-0.009608
-0.009079
-0.008521
-0.007934
-0.007329
-0.006714
-0.006096
-0.005486
-0.004894
-0.004333
-0.003813
-0.003348
-0.002948
-0.002623
-0.002382
-0.002231
-0.002172
-0.002206
-0.002329
-0.002537
-0.002818
-0.003164
-0.003560
-0.003995
-0.004453
-0.004923
-0.005393
-0.011497
-0.012008
-0.012437
-0.012789
-0.013071
-0.013290
-0.013453
-0.013565
-0.013631
-0.013655
-0.013640
-0.013589
-0.013501
-0.013379
-0.013222
-0.013029
-0.012800
-0.012534
-0.012229
-0.011884
-0.011499
-0.011072
-0.010605
-0.010097
-0.009551
-0.008969
-0.008355
-0.007717
-0.007062
-0.006402
-0.005744
-0.005103
-0.004490
-0.003918
-0.003402
-0.002954
-0.002587
-0.002311
-0.002133
-0.002058
-0.002087
-0.002218
-0.002444
-0.002756
-0.003142
-0.003587
-0.004075
-0.004591
-0.005119
-0.005647
-0.011911
-0.012452
-0.012906
-0.013279
-0.013579
-0.013813
-0.013988
-0.014111
-0.014186
-0.014220
-0.014213
-0.014170
-0.014090
-0.013976
-0.013826
-0.013639
-0.013416
-0.013154
-0.012851
-0.012507
-0.012119
-0.011687
-0.011211
-0.010689
-0.010125
-0.009519
-0.008876
-0.008200
-0.007503
-0.006794
-0.006083
-0.005384
-0.004710
-0.004076
-0.003498
-0.002991
-0.002570
-0.002247
-0.002032
-0.001932
-0.001950
-0.002084
-0.002327
-0.002669
-0.003097
-0.003595
-0.004143
-0.004724
-0.005320
-0.005914
-0.012417
-0.012988
-0.013467
-0.013862
-0.014179
-0.014428
-0.014616
-0.014750
-0.014837
-0.014879
-0.014883
-0.014848
-0.014778
-0.014673
-0.014532
-0.014354
-0.014138
-0.013882
-0.013585
-0.013243
-0.012855
-0.012420
-0.011935
-0.011402
-0.010820
-0.010190
-0.009517
-0.008802
-0.008058
-0.007296
-0.006525
-0.005759
-0.005014
-0.004306
-0.003654
-0.003074
-0.002585
-0.002202
-0.001938
-0.001802
-0.001799
-0.001928
-0.002184
-0.002556
-0.003028
-0.003582
-0.004197
-0.004853
-0.005526
-0.006199
-0.013021
-0.013622
-0.014127
-0.014542
-0.014878
-0.015142
-0.015344
-0.015490
-0.015588
-0.015641
-0.015656
-0.015632
-0.015573
-0.015479
-0.015349
-0.015182
-0.014977
-0.014730
-0.014440
-0.014104
-0.013720
-0.013284
-0.012795
-0.012252
-0.011654
-0.011003
-0.010300
-0.009545
-0.008753
-0.007933
-0.007096
-0.006256
-0.005430
-0.004636
-0.003895
-0.003227
-0.002653
-0.002193
-0.001863
-0.001676
-0.001639
-0.001754
-0.002016
-0.002414
-0.002931
-0.003546
-0.004236
-0.004975
-0.005737
-0.006502
-0.013728
-0.014360
-0.014890
-0.015327
-0.015681
-0.015961
-0.016177
-0.016336
-0.016446
-0.016512
-0.016539
-0.016528
-0.016483
-0.016402
-0.016286
-0.016134
-0.015942
-0.015708
-0.015431
-0.015105
-0.014728
-0.014296
-0.013808
-0.013260
-0.012651
-0.011980
-0.011250
-0.010458
-0.009617
-0.008737
-0.007828
-0.006907
-0.005989
-0.005096
-0.004250
-0.003476
-0.002798
-0.002240
-0.001824
-0.001567
-0.001479
-0.001566
-0.001824
-0.002243
-0.002804
-0.003483
-0.004254
-0.005087
-0.005953
-0.006825
-0.014543
-0.015206
-0.015762
-0.016222
-0.016594
-0.016891
-0.017121
-0.017294
-0.017418
-0.017498
-0.017538
-0.017543
-0.017514
-0.017450
-0.017351
-0.017217
-0.017043
-0.016828
-0.016567
-0.016258
-0.015895
-0.015474
-0.014992
-0.014446
-0.013832
-0.013148
-0.012396
-0.011571
-0.010682
-0.009741
-0.008758
-0.007748
-0.006729
-0.005723
-0.004755
-0.003855
-0.003050
-0.002370
-0.001843
-0.001491
-0.001331
-0.001371
-0.001611
-0.002041
-0.002642
-0.003388
-0.004248
-0.005186
-0.006169
-0.007166
-0.015472
-0.016166
-0.016749
-0.017232
-0.017623
-0.017937
-0.018183
-0.018371
-0.018509
-0.018604
-0.018662
-0.018684
-0.018673
-0.018629
-0.018553
-0.018441
-0.018291
-0.018100
-0.017863
-0.017577
-0.017236
-0.016834
-0.016368
-0.015832
-0.015221
-0.014533
-0.013765
-0.012917
-0.011985
-0.010984
-0.009926
-0.008822
-0.007693
-0.006561
-0.005454
-0.004404
-0.003447
-0.002616
-0.001948
-0.001471
-0.001209
-0.001178
-0.001380
-0.001808
-0.002443
-0.003255
-0.004208
-0.005264
-0.006380
-0.007522
-0.016519
-0.017246
-0.017857
-0.018362
-0.018774
-0.019106
-0.019368
-0.019572
-0.019726
-0.019838
-0.019914
-0.019956
-0.019968
-0.019948
-0.019898
-0.019814
-0.019694
-0.019534
-0.019329
-0.019075
-0.018765
-0.018393
-0.017953
-0.017439
-0.016843
-0.016162
-0.015391
-0.014528
-0.013560
-0.012507
-0.011375
-0.010177
-0.008930
-0.007659
-0.006395
-0.005173
-0.004033
-0.003019
-0.002173
-0.001535
-0.001136
-0.001001
-0.001138
-0.001544
-0.002201
-0.003075
-0.004128
-0.005311
-0.006578
-0.007886
-0.017691
-0.018451
-0.019091
-0.019620
-0.020053
-0.020403
-0.020682
-0.020903
-0.021075
-0.021206
-0.021302
-0.021367
-0.021403
-0.021412
-0.021392
-0.021342
-0.021259
-0.021138
-0.020974
-0.020762
-0.020495
-0.020165
-0.019765
-0.019286
-0.018720
-0.018061
-0.017300
-0.016434
-0.015447
-0.014351
-0.013152
-0.011860
-0.010491
-0.009072
-0.007633
-0.006214
-0.004862
-0.003627
-0.002562
-0.001718
-0.001139
-0.000858
-0.000895
-0.001252
-0.001911
-0.002840
-0.003993
-0.005314
-0.006750
-0.008249
-0.018993
-0.019788
-0.020457
-0.021012
-0.021466
-0.021834
-0.022131
-0.022370
-0.022560
-0.022711
-0.022829
-0.022920
-0.022985
-0.023026
-0.023042
-0.023032
-0.022992
-0.022919
-0.022806
-0.022647
-0.022435
-0.022161
-0.021816
-0.021390
-0.020872
-0.020251
-0.019519
-0.018667
-0.017680
-0.016556
-0.015300
-0.013921
-0.012432
-0.010856
-0.009228
-0.007588
-0.005991
-0.004494
-0.003163
-0.002062
-0.001249
-0.000772
-0.000663
-0.000933
-0.001569
-0.002538
-0.003788
-0.005257
-0.006879
-0.008593
-0.020431
-0.021263
-0.021963
-0.022543
-0.023019
-0.023407
-0.023722
-0.023978
-0.024187
-0.024359
-0.024501
-0.024618
-0.024715
-0.024792
-0.024849
-0.024885
-0.024897
-0.024880
-0.024828
-0.024735
-0.024592
-0.024389
-0.024116
-0.023761
-0.023311
-0.022751
-0.022070
-0.021253
-0.020289
-0.019156
-0.017861
-0.016407
-0.014803
-0.013069
-0.011239
-0.009357
-0.007482
-0.005682
-0.004033
-0.002616
-0.001506
-0.000771
-0.000458
-0.000592
-0.001168
-0.002154
-0.003494
-0.005116
-0.006942
-0.008899
-0.022011
-0.022881
-0.023613
-0.024221
-0.024719
-0.025126
-0.025459
-0.025732
-0.025960
-0.026153
-0.026319
-0.026465
-0.026595
-0.026711
-0.026813
-0.026901
-0.026971
-0.027019
-0.027039
-0.027024
-0.026964
-0.026850
-0.026668
-0.026405
-0.026044
-0.025570
-0.024965
-0.024211
-0.023293
-0.022178
-0.020867
-0.019357
-0.017649
-0.015762
-0.013724
-0.011583
-0.009399
-0.007252
-0.005230
-0.003432
-0.001954
-0.000887
-0.000299
-0.000235
-0.000701
-0.001672
-0.003087
-0.004862
-0.006907
-0.009135
-0.023739
-0.024651
-0.025418
-0.026053
-0.026574
-0.027000
-0.027349
-0.027638
-0.027883
-0.028095
-0.028285
-0.028459
-0.028623
-0.028780
-0.028931
-0.029074
-0.029209
-0.029330
-0.029432
-0.029507
-0.029545
-0.029536
-0.029465
-0.029315
-0.029070
-0.028707
-0.028206
-0.027543
-0.026696
-0.025634
-0.024338
-0.022796
-0.021005
-0.018975
-0.016730
-0.014317
-0.011799
-0.009264
-0.006813
-0.004564
-0.002639
-0.001154
-0.000207
0.000133
-0.000160
-0.001069
-0.002533
-0.004458
-0.006736
-0.009263
-0.025623
-0.026580
-0.027383
-0.028047
-0.028591
-0.029034
-0.029397
-0.029700
-0.029958
-0.030187
-0.030397
-0.030598
-0.030795
-0.030993
-0.031194
-0.031396
-0.031600
-0.031801
-0.031993
-0.032170
-0.032320
-0.032432
-0.032490
-0.032477
-0.032371
-0.032147
-0.031780
-0.031240
-0.030498
-0.029523
-0.028276
-0.026734
-0.024886
-0.022731
-0.020289
-0.017600
-0.014729
-0.011768
-0.008834
-0.006062
-0.003603
-0.001605
-0.000201
0.000509
0.000469
-0.000317
-0.001792
-0.003854
-0.006374
-0.009230
-0.027670
-0.028676
-0.029520
-0.030214
-0.030779
-0.031237
-0.031611
-0.031921
-0.032189
-0.032428
-0.032654
-0.032877
-0.033104
-0.033340
-0.033589
-0.033852
-0.034128
-0.034413
-0.034703
-0.034990
-0.035264
-0.035512
-0.035718
-0.035862
-0.035919
-0.035862
-0.035659
-0.035275
-0.034674
-0.033819
-0.032658
-0.031155
-0.029283
-0.027031
-0.024409
-0.021449
-0.018214
-0.014799
-0.011331
-0.007967
-0.004885
-0.002270
-0.000296
0.000893
0.001206
0.000621
-0.000814
-0.002988
-0.005754
-0.008966
-0.029889
-0.030952
-0.031839
-0.032565
-0.033149
-0.033618
-0.033995
-0.034307
-0.034574
-0.034817
-0.035050
-0.035287
-0.035536
-0.035806
-0.036100
-0.036421
-0.036768
-0.037139
-0.037530
-0.037935
-0.038342
-0.038738
-0.039107
-0.039427
-0.039670
-0.039805
-0.039795
-0.039599
-0.039172
-0.038468
-0.037437
-0.036013
-0.034157
-0.031842
-0.029066
-0.025850
-0.022251
-0.018363
-0.014321
-0.010299
-0.006506
-0.003165
-0.000499
0.001295
0.002079
0.001794
0.000469
-0.001782
-0.004791
-0.008384
-0.032292
-0.033421
-0.034356
-0.035113
-0.035714
-0.036186
-0.036559
-0.036860
-0.037115
-0.037348
-0.037576
-0.037815
-0.038077
-0.038371
-0.038703
-0.039075
-0.039490
-0.039946
-0.040439
-0.040963
-0.041509
-0.042063
-0.042607
-0.043116
-0.043564
-0.043913
-0.044122
-0.044143
-0.043923
-0.043405
-0.042535
-0.041234
-0.039435
-0.037097
-0.034200
-0.030753
-0.026800
-0.022431
-0.017785
-0.013050
-0.008461
-0.004285
-0.000799
0.001741
0.003133
0.003267
0.002141
-0.000134
-0.003373
-0.007370
-0.034894
-0.036099
-0.037089
-0.037878
-0.038490
-0.038956
-0.039309
-0.039584
-0.039810
-0.040015
-0.040221
-0.040446
-0.040706
-0.041010
-0.041367
-0.041782
-0.042256
-0.042791
-0.043383
-0.044027
-0.044713
-0.045427
-0.046152
-0.046862
-0.047527
-0.048106
-0.048554
-0.048816
-0.048830
-0.048530
-0.047848
-0.046710
-0.045009
-0.042688
-0.039709
-0.036061
-0.031776
-0.026932
-0.021665
-0.016174
-0.010716
-0.005599
-0.001158
0.002278
0.004432
0.005125
0.004311
0.002081
-0.001363
-0.005782
-0.037713
-0.039010
-0.040062
-0.040881
-0.041496
-0.041941
-0.042256
-0.042482
-0.042656
-0.042809
-0.042969
-0.043159
-0.043395
-0.043692
-0.044058
-0.044500
-0.045023
-0.045626
-0.046309
-0.047066
-0.047889
-0.048764
-0.049671
-0.050585
-0.051472
-0.052291
-0.052991
-0.053509
-0.053777
-0.053718
-0.053249
-0.052302
-0.050734
-0.048468
-0.045445
-0.041634
-0.037046
-0.031743
-0.025852
-0.019575
-0.013187
-0.007033
-0.001508
0.002981
0.006068
0.007485
0.007116
0.005023
0.001413
-0.003439
-0.040774
-0.042183
-0.043305
-0.044154
-0.044758
-0.045161
-0.045412
-0.045559
-0.045647
-0.045717
-0.045802
-0.045927
-0.046114
-0.046379
-0.046733
-0.047184
-0.047738
-0.048397
-0.049158
-0.050019
-0.050970
-0.051997
-0.053082
-0.054197
-0.055307
-0.056366
-0.057320
-0.058101
-0.058632
-0.058825
-0.058583
-0.057844
-0.056436
-0.054257
-0.051224
-0.047285
-0.042425
-0.036687
-0.030182
-0.023104
-0.015741
-0.008467
-0.001734
0.003968
0.008170
0.010494
0.010733
0.008891
0.005172
-0.000117
-0.044112
-0.045659
-0.046863
-0.047734
-0.048309
-0.048640
-0.048789
-0.048816
-0.048778
-0.048724
-0.048693
-0.048718
-0.048824
-0.049028
-0.049345
-0.049782
-0.050347
-0.051042
-0.051867
-0.052816
-0.053882
-0.055051
-0.056302
-0.057608
-0.058931
-0.060224
-0.061425
-0.062465
-0.063257
-0.063704
-0.063701
-0.063148
-0.061920
-0.059846
-0.056828
-0.052787
-0.047686
-0.041539
-0.034435
-0.026556
-0.018186
-0.009724
-0.001669
0.005404
0.010912
0.014348
0.015382
0.013934
0.010182
0.004461
-0.047774
-0.049495
-0.050792
-0.051675
-0.052191
-0.052407
-0.052402
-0.052255
-0.052036
-0.051806
-0.051613
-0.051495
-0.051481
-0.051591
-0.051839
-0.052237
-0.052790
-0.053500
-0.054368
-0.055389
-0.056553
-0.057847
-0.059248
-0.060729
-0.062249
-0.063757
-0.065190
-0.066471
-0.067508
-0.068195
-0.068417
-0.068047
-0.066986
-0.065017
-0.062020
-0.057892
-0.052567
-0.046033
-0.038348
-0.029671
-0.020275
-0.010567
-0.001088
0.007510
0.014523
0.019294
0.021340
0.020459
0.016775
0.010639
-0.051830
-0.053771
-0.055173
-0.056048
-0.056459
-0.056499
-0.056270
-0.055876
-0.055407
-0.054936
-0.054522
-0.054211
-0.054032
-0.054009
-0.054158
-0.054487
-0.055002
-0.055706
-0.056596
-0.057668
-0.058911
-0.060309
-0.061841
-0.063475
-0.065168
-0.066868
-0.068506
-0.070001
-0.071254
-0.072152
-0.072567
-0.072360
-0.071436
-0.069550
-0.066559
-0.062339
-0.056793
-0.049878
-0.041620
-0.032146
-0.021707
-0.010705
0.000294
0.010568
0.019294
0.025647
0.028954
0.028850
0.025363
0.018838
-0.056377
-0.058598
-0.060115
-0.060947
-0.061185
-0.060959
-0.060410
-0.059674
-0.058865
-0.058074
-0.057372
-0.056808
-0.056417
-0.056222
-0.056236
-0.056467
-0.056920
-0.057595
-0.058487
-0.059589
-0.060891
-0.062372
-0.064011
-0.065773
-0.067611
-0.069471
-0.071280
-0.072951
-0.074380
-0.075447
-0.076013
-0.075925
-0.075090
-0.073243
-0.070222
-0.065879
-0.060093
-0.052783
-0.043942
-0.033659
-0.022153
-0.009804
0.002812
0.014920
0.025581
0.033789
0.038649
0.039577
0.036455
0.029582
-0.061559
-0.064140
-0.065774
-0.066500
-0.066458
-0.065838
-0.064837
-0.063633
-0.062373
-0.061169
-0.060100
-0.059220
-0.058566
-0.058156
-0.058003
-0.058111
-0.058479
-0.059104
-0.059979
-0.061095
-0.062434
-0.063978
-0.065700
-0.067562
-0.069515
-0.071499
-0.073439
-0.075240
-0.076795
-0.077979
-0.078643
-0.078622
-0.077799
-0.075928
-0.072818
-0.068299
-0.062227
-0.054485
-0.045019
-0.033892
-0.021276
-0.007511
0.006836
0.020956
0.033804
0.044186
0.050948
0.053228
0.050685
0.043523
-0.067592
-0.070636
-0.072368
-0.072878
-0.072392
-0.071192
-0.069557
-0.067724
-0.065876
-0.064147
-0.062624
-0.061363
-0.060395
-0.059735
-0.059386
-0.059348
-0.059614
-0.060175
-0.061019
-0.062135
-0.063496
-0.065079
-0.066862
-0.068802
-0.070834
-0.072905
-0.074933
-0.076821
-0.078450
-0.079685
-0.080374
-0.080351
-0.079448
-0.077487
-0.074213
-0.069438
-0.063020
-0.054782
-0.044608
-0.032575
-0.018776
-0.003490
0.012734
0.029084
0.044428
0.057380
0.066485
0.070531
0.068860
0.061488
-0.074809
-0.078442
-0.080212
-0.080311
-0.079120
-0.077071
-0.074555
-0.071885
-0.069286
-0.066907
-0.064840
-0.063134
-0.061808
-0.060868
-0.060305
-0.060108
-0.060266
-0.060752
-0.061558
-0.062671
-0.064041
-0.065666
-0.067496
-0.069488
-0.071582
-0.073710
-0.075788
-0.077712
-0.079358
-0.080583
-0.081228
-0.081113
-0.080044
-0.077855
-0.074283
-0.069128
-0.062214
-0.053390
-0.042536
-0.029528
-0.014449
0.002526
0.020818
0.039688
0.057933
0.073974
0.086017
0.092401
0.092019
0.084558
-0.083738
-0.088106
-0.089754
-0.089097
-0.086793
-0.083502
-0.079774
-0.076008
-0.072467
-0.069308
-0.066609
-0.064404
-0.062689
-0.061456
-0.060672
-0.060316
-0.060378
-0.060798
-0.061579
-0.062680
-0.064069
-0.065717
-0.067581
-0.069610
-0.071740
-0.073898
-0.075991
-0.077909
-0.079523
-0.080683
-0.081218
-0.080940
-0.079640
-0.077136
-0.073173
-0.067531
-0.060004
-0.050407
-0.038584
-0.024437
-0.008010
0.010692
0.031260
0.053048
0.074742
0.094593
0.110426
0.119992
0.121542
0.114201
-0.095249
-0.100484
-0.101638
-0.099611
-0.095544
-0.090449
-0.085072
-0.079901
-0.075213
-0.071148
-0.067747
-0.065016
-0.062898
-0.061390
-0.060405
-0.059924
-0.059895
-0.060275
-0.061036
-0.062140
-0.063549
-0.065225
-0.067119
-0.069174
-0.071325
-0.073488
-0.075567
-0.077444
-0.078984
-0.080029
-0.080401
-0.079900
-0.078307
-0.075416
-0.070984
-0.064770
-0.056539
-0.046071
-0.033171
-0.017690
0.000439
0.021188
0.044257
0.069229
0.095107
0.119780
0.140675
0.154765
0.159321
0.152516
-0.110851
-0.116943
-0.116771
-0.112268
-0.105418
-0.097729
-0.090158
-0.083240
-0.077209
-0.072152
-0.068007
-0.064788
-0.062302
-0.060550
-0.059416
-0.058840
-0.058764
-0.059134
-0.059907
-0.061039
-0.062484
-0.064198
-0.066126
-0.068206
-0.070367
-0.072521
-0.074564
-0.076374
-0.077809
-0.078705
-0.078874
-0.078109
-0.076180
-0.072857
-0.067909
-0.061074
-0.052089
-0.040694
-0.026643
-0.009718
0.010249
0.033341
0.059469
0.088277
0.118922
0.149790
0.177689
0.198525
0.208032
0.202696
-0.133292
-0.139698
-0.136353
-0.127399
-0.116199
-0.104869
-0.094475
-0.085503
-0.077984
-0.071959
-0.067140
-0.063461
-0.060719
-0.058803
-0.057593
-0.056997
-0.056939
-0.057354
-0.058184
-0.059380
-0.060889
-0.062661
-0.064635
-0.066747
-0.068919
-0.071058
-0.073056
-0.074787
-0.076102
-0.076832
-0.076783
-0.075738
-0.073459
-0.069698
-0.064236
-0.056787
-0.047058
-0.034748
-0.019553
-0.001170
0.020688
0.046275
0.075750
0.109066
0.145725
0.184305
0.222009
0.253348
0.271541
0.269900
-0.167906
-0.172305
-0.161721
-0.144866
-0.127043
-0.110846
-0.097037
-0.085907
-0.076982
-0.070059
-0.064751
-0.060794
-0.057943
-0.056013
-0.054853
-0.054345
-0.054395
-0.054927
-0.055876
-0.057184
-0.058796
-0.060654
-0.062698
-0.064857
-0.067051
-0.069183
-0.071144
-0.072801
-0.074003
-0.074577
-0.074324
-0.073021
-0.070416
-0.066268
-0.060353
-0.052366
-0.041984
-0.028866
-0.012647
0.007066
0.030703
0.058725
0.091611
0.129788
0.173430
0.221960
0.273059
0.321073
0.355345
0.362885
-0.225711
-0.220108
-0.193500
-0.163122
-0.135774
-0.113759
-0.096444
-0.083270
-0.073317
-0.065900
-0.060445
-0.056527
-0.053822
-0.052090
-0.051151
-0.050868
-0.051137
-0.051876
-0.053014
-0.054492
-0.056253
-0.058237
-0.060381
-0.062615
-0.064856
-0.067007
-0.068955
-0.070568
-0.071692
-0.072153
-0.071749
-0.070259
-0.067391
-0.062978
-0.056743
-0.048372
-0.037522
-0.023816
-0.006834
0.013907
0.038975
0.069059
0.105010
0.147872
0.198834
0.258915
0.327914
0.401576
0.466532
0.497049
-0.330676
-0.289132
-0.228642
-0.177206
-0.138261
-0.110286
-0.090349
-0.076184
-0.066103
-0.058951
-0.053933
-0.050505
-0.048289
-0.047018
-0.046502
-0.046602
-0.047213
-0.048254
-0.049659
-0.051370
-0.053330
-0.055485
-0.057771
-0.060118
-0.062446
-0.064659
-0.066644
-0.068270
-0.069385
-0.069812
-0.069352
-0.067779
-0.064820
-0.060309
-0.053953
-0.045432
-0.034390
-0.020428
-0.003085
0.018188
0.044072
0.075454
0.113538
0.160022
0.217329
0.288830
0.378604
0.489000
0.610960
0.700319
-0.534670
-0.376562
-0.253456
-0.174957
-0.126389
-0.095947
-0.076347
-0.063430
-0.054788
-0.048995
-0.045176
-0.042776
-0.041433
-0.040902
-0.041014
-0.041649
-0.042718
-0.044153
-0.045897
-0.047899
-0.050113
-0.052486
-0.054962
-0.057474
-0.059946
-0.062285
-0.064382
-0.066109
-0.067317
-0.067833
-0.067460
-0.065965
-0.063134
-0.058750
-0.052531
-0.044159
-0.033277
-0.019481
-0.002296
0.018853
0.044699
0.076229
0.114860
0.162750
0.223391
0.302684
0.410760
0.563940
0.779676
1.025242
-0.935677
-0.425738
-0.223584
-0.135042
-0.091259
-0.067404
-0.053461
-0.044943
-0.039644
-0.036394
-0.034531
-0.033658
-0.033525
-0.033968
-0.034875
-0.036167
-0.037785
-0.039684
-0.041824
-0.044171
-0.046686
-0.049327
-0.052047
-0.054786
-0.057473
-0.060022
-0.062331
-0.064276
-0.065714
-0.066477
-0.066371
-0.065185
-0.062710
-0.058713
-0.052925
-0.045039
-0.034710
-0.021546
-0.005093
0.015200
0.040023
0.070306
0.107388
0.153372
0.211891
0.289948
0.402486
0.583518
0.909386
1.542394
