# vtk DataFile Version 3.0
Vector Field
ASCII
DATASET RECTILINEAR_GRID
DIMENSIONS 50 50 1
X_COORDINATES 50 double
0.100000 0.300000 0.500000 0.700000 0.900000 1.100000 1.300000 1.500000 1.700000 1.900000 2.100000 2.300000 2.500000 2.700000 2.900000 3.100000 3.300000 3.500000 3.700000 3.900000 4.100000 4.300000 4.500000 4.700000 4.900000 5.100000 5.300000 5.500000 5.700000 5.900000 6.100000 6.300000 6.500000 6.700000 6.900000 7.100000 7.300000 7.500000 7.700000 7.900000 8.100000 8.300000 8.500000 8.700000 8.900000 9.100000 9.300000 9.500000 9.700000 9.900000 
Y_COORDINATES 50 double
0.100000 0.300000 0.500000 0.700000 0.900000 1.100000 1.300000 1.500000 1.700000 1.900000 2.100000 2.300000 2.500000 2.700000 2.900000 3.100000 3.300000 3.500000 3.700000 3.900000 4.100000 4.300000 4.500000 4.700000 4.900000 5.100000 5.300000 5.500000 5.700000 5.900000 6.100000 6.300000 6.500000 6.700000 6.900000 7.100000 7.300000 7.500000 7.700000 7.900000 8.100000 8.300000 8.500000 8.700000 8.900000 9.100000 9.300000 9.500000 9.700000 9.900000 
Z_COORDINATES 1 double
0.0
POINT_DATA 2500
VECTORS Vektorfeld double
-0.000233 0.000233 0.0
-0.001082 0.000617 0.0
-0.002500 0.000801 0.0
-0.004171 0.000870 0.0
-0.005933 0.000892 0.0
-0.007725 0.000900 0.0
-0.009529 0.000905 0.0
-0.011346 0.000911 0.0
-0.013176 0.000919 0.0
-0.015023 0.000928 0.0
-0.016889 0.000938 0.0
-0.018774 0.000948 0.0
-0.020679 0.000957 0.0
-0.022604 0.000967 0.0
-0.024546 0.000975 0.0
-0.026504 0.000982 0.0
-0.028473 0.000987 0.0
-0.030450 0.000989 0.0
-0.032428 0.000988 0.0
-0.034398 0.000982 0.0
-0.036350 0.000970 0.0
-0.038272 0.000952 0.0
-0.040150 0.000926 0.0
-0.041965 0.000890 0.0
-0.043698 0.000843 0.0
-0.045326 0.000784 0.0
-0.046822 0.000712 0.0
-0.048158 0.000624 0.0
-0.049303 0.000520 0.0
-0.050223 0.000400 0.0
-0.050885 0.000262 0.0
-0.051255 0.000108 0.0
-0.051302 -0.000061 0.0
-0.050990 -0.000250 0.0
-0.050286 -0.000454 0.0
-0.049160 -0.000671 0.0
-0.047593 -0.000896 0.0
-0.045573 -0.001124 0.0
-0.043101 -0.001349 0.0
-0.040186 -0.001566 0.0
-0.036850 -0.001769 0.0
-0.033127 -0.001953 0.0
-0.029062 -0.002112 0.0
-0.024708 -0.002241 0.0
-0.020138 -0.002330 0.0
-0.015443 -0.002364 0.0
-0.010769 -0.002310 0.0
-0.006366 -0.002093 0.0
-0.002703 -0.001570 0.0
-0.000567 -0.000566 0.0
-0.000648 0.001113 0.0
-0.002597 0.002536 0.0
-0.005518 0.003221 0.0
-0.008897 0.003499 0.0
-0.012470 0.003599 0.0
-0.016121 0.003636 0.0
-0.019805 0.003658 0.0
-0.023509 0.003679 0.0
-0.027231 0.003704 0.0
-0.030972 0.003731 0.0
-0.034732 0.003760 0.0
-0.038510 0.003789 0.0
-0.042304 0.003816 0.0
-0.046111 0.003840 0.0
-0.049925 0.003859 0.0
-0.053739 0.003871 0.0
-0.057544 0.003874 0.0
-0.061328 0.003864 0.0
-0.065076 0.003839 0.0
-0.068772 0.003796 0.0
-0.072393 0.003730 0.0
-0.075914 0.003637 0.0
-0.079308 0.003512 0.0
-0.082540 0.003351 0.0
-0.085573 0.003148 0.0
-0.088365 0.002899 0.0
-0.090869 0.002598 0.0
-0.093035 0.002241 0.0
-0.094811 0.001824 0.0
-0.096141 0.001346 0.0
-0.096969 0.000805 0.0
-0.097238 0.000203 0.0
-0.096890 -0.000458 0.0
-0.095873 -0.001182 0.0
-0.094144 -0.001956 0.0
-0.091669 -0.002770 0.0
-0.088427 -0.003607 0.0
-0.084410 -0.004450 0.0
-0.079626 -0.005280 0.0
-0.074099 -0.006077 0.0
-0.067872 -0.006821 0.0
-0.061003 -0.007493 0.0
-0.053569 -0.008073 0.0
-0.045662 -0.008540 0.0
-0.037402 -0.008862 0.0
-0.028949 -0.008980 0.0
-0.020548 -0.008770 0.0
-0.012602 -0.007980 0.0
-0.005819 -0.006129 0.0
-0.001415 -0.002548 0.0
-0.000875 0.002635 0.0
-0.003428 0.005516 0.0
-0.007150 0.006885 0.0
-0.011399 0.007462 0.0
-0.015875 0.007684 0.0
-0.020445 0.007771 0.0
-0.025056 0.007817 0.0
-0.029688 0.007856 0.0
-0.034335 0.007897 0.0
-0.038995 0.007939 0.0
-0.043666 0.007982 0.0
-0.048344 0.008023 0.0
-0.053027 0.008058 0.0
-0.057707 0.008084 0.0
-0.062378 0.008098 0.0
-0.067028 0.008096 0.0
-0.071646 0.008072 0.0
-0.076216 0.008020 0.0
-0.080719 0.007935 0.0
-0.085133 0.007809 0.0
-0.089431 0.007636 0.0
-0.093584 0.007405 0.0
-0.097556 0.007109 0.0
-0.101307 0.006737 0.0
-0.104793 0.006281 0.0
-0.107965 0.005730 0.0
-0.110769 0.005075 0.0
-0.113148 0.004309 0.0
-0.115039 0.003424 0.0
-0.116380 0.002418 0.0
-0.117107 0.001288 0.0
-0.117153 0.000037 0.0
-0.116459 -0.001333 0.0
-0.114971 -0.002812 0.0
-0.112647 -0.004379 0.0
-0.109455 -0.006013 0.0
-0.105376 -0.007684 0.0
-0.100406 -0.009359 0.0
-0.094560 -0.011001 0.0
-0.087870 -0.012572 0.0
-0.080389 -0.014034 0.0
-0.072187 -0.015350 0.0
-0.063356 -0.016483 0.0
-0.054005 -0.017389 0.0
-0.044271 -0.018006 0.0
-0.034339 -0.018219 0.0
-0.024479 -0.017793 0.0
-0.015131 -0.016251 0.0
-0.007077 -0.012695 0.0
-0.001749 -0.005713 0.0
-0.000979 0.004490 0.0
-0.003825 0.009060 0.0
-0.007948 0.011185 0.0
-0.012624 0.012088 0.0
-0.017534 0.012444 0.0
-0.022538 0.012586 0.0
-0.027583 0.012657 0.0
-0.032647 0.012712 0.0
-0.037723 0.012764 0.0
-0.042808 0.012816 0.0
-0.047897 0.012865 0.0
-0.052987 0.012908 0.0
-0.058072 0.012940 0.0
-0.063146 0.012956 0.0
-0.068199 0.012950 0.0
-0.073220 0.012916 0.0
-0.078196 0.012845 0.0
-0.083109 0.012729 0.0
-0.087938 0.012559 0.0
-0.092661 0.012323 0.0
-0.097250 0.012009 0.0
-0.101671 0.011605 0.0
-0.105887 0.011097 0.0
-0.109858 0.010471 0.0
-0.113535 0.009711 0.0
-0.116868 0.008804 0.0
-0.119799 0.007736 0.0
-0.122268 0.006495 0.0
-0.124210 0.005071 0.0
-0.125559 0.003460 0.0
-0.126245 0.001658 0.0
-0.126202 -0.000330 0.0
-0.125367 -0.002496 0.0
-0.123685 -0.004819 0.0
-0.121110 -0.007271 0.0
-0.117608 -0.009816 0.0
-0.113156 -0.012412 0.0
-0.107751 -0.015006 0.0
-0.101410 -0.017542 0.0
-0.094168 -0.019963 0.0
-0.086084 -0.022209 0.0
-0.077238 -0.024223 0.0
-0.067729 -0.025949 0.0
-0.057682 -0.027321 0.0
-0.047245 -0.028244 0.0
-0.036617 -0.028542 0.0
-0.026082 -0.027866 0.0
-0.016101 -0.025506 0.0
-0.007504 -0.020091 0.0
-0.001843 -0.009305 0.0
-0.001020 0.006489 0.0
-0.003990 0.012877 0.0
-0.008294 0.015795 0.0
-0.013167 0.017029 0.0
-0.018273 0.017518 0.0
-0.023471 0.017714 0.0
-0.028707 0.017810 0.0
-0.033961 0.017878 0.0
-0.039226 0.017939 0.0
-0.044498 0.017997 0.0
-0.049773 0.018049 0.0
-0.055046 0.018089 0.0
-0.060313 0.018112 0.0
-0.065567 0.018111 0.0
-0.070797 0.018079 0.0
-0.075993 0.018005 0.0
-0.081142 0.017880 0.0
-0.086226 0.017691 0.0
-0.091225 0.017426 0.0
-0.096115 0.017069 0.0
-0.100869 0.016605 0.0
-0.105454 0.016016 0.0
-0.109833 0.015283 0.0
-0.113964 0.014387 0.0
-0.117799 0.013308 0.0
-0.121285 0.012026 0.0
-0.124364 0.010524 0.0
-0.126974 0.008785 0.0
-0.129047 0.006796 0.0
-0.130513 0.004549 0.0
-0.131299 0.002041 0.0
-0.131334 -0.000722 0.0
-0.130550 -0.003724 0.0
-0.128884 -0.006938 0.0
-0.126281 -0.010328 0.0
-0.122698 -0.013844 0.0
-0.118108 -0.017426 0.0
-0.112502 -0.021002 0.0
-0.105893 -0.024496 0.0
-0.098319 -0.027825 0.0
-0.089843 -0.030907 0.0
-0.080554 -0.033661 0.0
-0.070563 -0.036010 0.0
-0.060010 -0.037861 0.0
-0.049063 -0.039087 0.0
-0.037936 -0.039454 0.0
-0.026935 -0.038492 0.0
-0.016549 -0.035247 0.0
-0.007653 -0.027843 0.0
-0.001859 -0.013008 0.0
-0.001031 0.008539 0.0
-0.004043 0.016809 0.0
-0.008417 0.020541 0.0
-0.013370 0.022109 0.0
-0.018557 0.022730 0.0
-0.023834 0.022977 0.0
-0.029149 0.023097 0.0
-0.034482 0.023178 0.0
-0.039826 0.023249 0.0
-0.045179 0.023312 0.0
-0.050537 0.023366 0.0
-0.055897 0.023404 0.0
-0.061253 0.023420 0.0
-0.066599 0.023403 0.0
-0.071926 0.023345 0.0
-0.077226 0.023234 0.0
-0.082484 0.023057 0.0
-0.087684 0.022799 0.0
-0.092809 0.022442 0.0
-0.097836 0.021969 0.0
-0.102736 0.021359 0.0
-0.107480 0.020590 0.0
-0.112031 0.019638 0.0
-0.116347 0.018478 0.0
-0.120381 0.017085 0.0
-0.124079 0.015433 0.0
-0.127382 0.013500 0.0
-0.130224 0.011262 0.0
-0.132535 0.008703 0.0
-0.134239 0.005812 0.0
-0.135258 0.002584 0.0
-0.135513 -0.000975 0.0
-0.134923 -0.004844 0.0
-0.133415 -0.008992 0.0
-0.130921 -0.013372 0.0
-0.127385 -0.017920 0.0
-0.122768 -0.022558 0.0
-0.117052 -0.027193 0.0
-0.110245 -0.031721 0.0
-0.102384 -0.036034 0.0
-0.093537 -0.040020 0.0
-0.083804 -0.043571 0.0
-0.073314 -0.046580 0.0
-0.062229 -0.048929 0.0
-0.050743 -0.050453 0.0
-0.039099 -0.050858 0.0
-0.027633 -0.049555 0.0
-0.016870 -0.045333 0.0
-0.007728 -0.035796 0.0
-0.001855 -0.016722 0.0
-0.001029 0.010599 0.0
-0.004045 0.020777 0.0
-0.008437 0.025338 0.0
-0.013416 0.027244 0.0
-0.018630 0.027995 0.0
-0.023935 0.028295 0.0
-0.029279 0.028438 0.0
-0.034642 0.028534 0.0
-0.040021 0.028616 0.0
-0.045410 0.028688 0.0
-0.050810 0.028748 0.0
-0.056217 0.028789 0.0
-0.061627 0.028801 0.0
-0.067036 0.028776 0.0
-0.072435 0.028700 0.0
-0.077817 0.028561 0.0
-0.083171 0.028342 0.0
-0.088481 0.028025 0.0
-0.093732 0.027591 0.0
-0.098903 0.027017 0.0
-0.103969 0.026278 0.0
-0.108899 0.025346 0.0
-0.113660 0.024193 0.0
-0.118210 0.022789 0.0
-0.122502 0.021100 0.0
-0.126483 0.019097 0.0
-0.130092 0.016747 0.0
-0.133259 0.014024 0.0
-0.135911 0.010903 0.0
-0.137963 0.007369 0.0
-0.139330 0.003413 0.0
-0.139920 -0.000960 0.0
-0.139639 -0.005729 0.0
-0.138396 -0.010858 0.0
-0.136107 -0.016290 0.0
-0.132698 -0.021947 0.0
-0.128112 -0.027732 0.0
-0.122319 -0.033527 0.0
-0.115317 -0.039196 0.0
-0.107140 -0.044597 0.0
-0.097861 -0.049582 0.0
-0.087597 -0.054007 0.0
-0.076500 -0.057730 0.0
-0.064765 -0.060599 0.0
-0.052624 -0.062411 0.0
-0.040361 -0.062808 0.0
-0.028354 -0.061078 0.0
-0.017173 -0.055754 0.0
-0.007779 -0.043911 0.0
-0.001840 -0.020417 0.0
-0.001022 0.012650 0.0
-0.004026 0.024747 0.0
-0.008412 0.030146 0.0
-0.013390 0.032394 0.0
-0.018608 0.033277 0.0
-0.023919 0.033629 0.0
-0.029270 0.033798 0.0
-0.034645 0.033912 0.0
-0.040038 0.034009 0.0
-0.045448 0.034095 0.0
-0.050875 0.034167 0.0
-0.056316 0.034218 0.0
-0.061770 0.034236 0.0
-0.067233 0.034212 0.0
-0.072700 0.034131 0.0
-0.078165 0.033977 0.0
-0.083617 0.033732 0.0
-0.089047 0.033376 0.0
-0.094439 0.032884 0.0
-0.099775 0.032231 0.0
-0.105032 0.031387 0.0
-0.110184 0.030320 0.0
-0.115197 0.028994 0.0
-0.120033 0.027374 0.0
-0.124645 0.025420 0.0
-0.128979 0.023092 0.0
-0.132973 0.020353 0.0
-0.136554 0.017167 0.0
-0.139642 0.013500 0.0
-0.142146 0.009330 0.0
-0.143968 0.004641 0.0
-0.145002 -0.000565 0.0
-0.145137 -0.006270 0.0
-0.144260 -0.012436 0.0
-0.142265 -0.018997 0.0
-0.139053 -0.025862 0.0
-0.134546 -0.032911 0.0
-0.128691 -0.039996 0.0
-0.121473 -0.046947 0.0
-0.112919 -0.053577 0.0
-0.103110 -0.059690 0.0
-0.092180 -0.065094 0.0
-0.080318 -0.069602 0.0
-0.067762 -0.073019 0.0
-0.054799 -0.075095 0.0
-0.041774 -0.075412 0.0
-0.029120 -0.073135 0.0
-0.017459 -0.066539 0.0
-0.007797 -0.052183 0.0
-0.001811 -0.024069 0.0
-0.001013 0.014685 0.0
-0.003997 0.028701 0.0
-0.008365 0.034944 0.0
-0.013331 0.037539 0.0
-0.018541 0.038559 0.0
-0.023847 0.038966 0.0
-0.029198 0.039164 0.0
-0.034575 0.039299 0.0
-0.039975 0.039416 0.0
-0.045399 0.039522 0.0
-0.050847 0.039614 0.0
-0.056319 0.039684 0.0
-0.061815 0.039720 0.0
-0.067333 0.039709 0.0
-0.072870 0.039637 0.0
-0.078422 0.039486 0.0
-0.083983 0.039236 0.0
-0.089543 0.038862 0.0
-0.095093 0.038339 0.0
-0.100616 0.037635 0.0
-0.106093 0.036717 0.0
-0.111500 0.035548 0.0
-0.116807 0.034086 0.0
-0.121978 0.032288 0.0
-0.126968 0.030107 0.0
-0.131722 0.027494 0.0
-0.136178 0.024401 0.0
-0.140260 0.020782 0.0
-0.143881 0.016594 0.0
-0.146942 0.011801 0.0
-0.149332 0.006381 0.0
-0.150927 0.000324 0.0
-0.151594 -0.006357 0.0
-0.151197 -0.013623 0.0
-0.149598 -0.021404 0.0
-0.146669 -0.029596 0.0
-0.142297 -0.038056 0.0
-0.136401 -0.046602 0.0
-0.128943 -0.055018 0.0
-0.119939 -0.063063 0.0
-0.109475 -0.070477 0.0
-0.097708 -0.077004 0.0
-0.084873 -0.082390 0.0
-0.071274 -0.086385 0.0
-0.057278 -0.088687 0.0
-0.043310 -0.088813 0.0
-0.029882 -0.085815 0.0
-0.017679 -0.077723 0.0
-0.007748 -0.060593 0.0
-0.001756 -0.027636 0.0
-0.001001 0.016699 0.0
-0.003961 0.032631 0.0
-0.008304 0.039725 0.0
-0.013252 0.042673 0.0
-0.018448 0.043831 0.0
-0.023744 0.044297 0.0
-0.029088 0.044527 0.0
-0.034463 0.044688 0.0
-0.039867 0.044831 0.0
-0.045301 0.044965 0.0
-0.050768 0.045086 0.0
-0.056269 0.045185 0.0
-0.061806 0.045251 0.0
-0.067380 0.045269 0.0
-0.072990 0.045224 0.0
-0.078635 0.045096 0.0
-0.084312 0.044863 0.0
-0.090015 0.044499 0.0
-0.095736 0.043973 0.0
-0.101466 0.043252 0.0
-0.107187 0.042298 0.0
-0.112880 0.041068 0.0
-0.118520 0.039514 0.0
-0.124072 0.037584 0.0
-0.129495 0.035223 0.0
-0.134736 0.032373 0.0
-0.139731 0.028973 0.0
-0.144403 0.024964 0.0
-0.148659 0.020289 0.0
-0.152391 0.014899 0.0
-0.155473 0.008755 0.0
-0.157762 0.001835 0.0
-0.159102 -0.005860 0.0
-0.159324 -0.014295 0.0
-0.158253 -0.023401 0.0
-0.155718 -0.033063 0.0
-0.151564 -0.043114 0.0
-0.145668 -0.053335 0.0
-0.137955 -0.063456 0.0
-0.128422 -0.073162 0.0
-0.117153 -0.082112 0.0
-0.104336 -0.089954 0.0
-0.090264 -0.096347 0.0
-0.075334 -0.100957 0.0
-0.060029 -0.103417 0.0
-0.044894 -0.103185 0.0
-0.030547 -0.099217 0.0
-0.017747 -0.089324 0.0
-0.007578 -0.069094 0.0
-0.001657 -0.031049 0.0
-0.000988 0.018688 0.0
-0.003919 0.036532 0.0
-0.008233 0.044482 0.0
-0.013157 0.047787 0.0
-0.018333 0.049089 0.0
-0.023615 0.049616 0.0
-0.028948 0.049883 0.0
-0.034317 0.050076 0.0
-0.039721 0.050252 0.0
-0.045162 0.050421 0.0
-0.050645 0.050580 0.0
-0.056173 0.050721 0.0
-0.061751 0.050830 0.0
-0.067380 0.050894 0.0
-0.073064 0.050894 0.0
-0.078805 0.050812 0.0
-0.084602 0.050622 0.0
-0.090456 0.050296 0.0
-0.096361 0.049802 0.0
-0.102312 0.049103 0.0
-0.108298 0.048155 0.0
-0.114304 0.046911 0.0
-0.120310 0.045316 0.0
-0.126286 0.043310 0.0
-0.132194 0.040828 0.0
-0.137986 0.037801 0.0
-0.143599 0.034153 0.0
-0.148955 0.029811 0.0
-0.153955 0.024699 0.0
-0.158484 0.018750 0.0
-0.162401 0.011903 0.0
-0.165542 0.004117 0.0
-0.167725 -0.004620 0.0
-0.168742 -0.014296 0.0
-0.168370 -0.024843 0.0
-0.166385 -0.036141 0.0
-0.162574 -0.048002 0.0
-0.156752 -0.060166 0.0
-0.148791 -0.072298 0.0
-0.138651 -0.083993 0.0
-0.126403 -0.094796 0.0
-0.112266 -0.104225 0.0
-0.096613 -0.111801 0.0
-0.079971 -0.117074 0.0
-0.062990 -0.119587 0.0
-0.046397 -0.118744 0.0
-0.030961 -0.113441 0.0
-0.017533 -0.101327 0.0
-0.007208 -0.077585 0.0
-0.001490 -0.034196 0.0
-0.000973 0.020649 0.0
-0.003870 0.040399 0.0
-0.008150 0.049210 0.0
-0.013045 0.052878 0.0
-0.018198 0.054327 0.0
-0.023460 0.054921 0.0
-0.028777 0.055229 0.0
-0.034136 0.055458 0.0
-0.039535 0.055673 0.0
-0.044979 0.055886 0.0
-0.050474 0.056093 0.0
-0.056026 0.056287 0.0
-0.061639 0.056454 0.0
-0.067322 0.056581 0.0
-0.073078 0.056648 0.0
-0.078914 0.056635 0.0
-0.084834 0.056516 0.0
-0.090841 0.056262 0.0
-0.096936 0.055837 0.0
-0.103119 0.055202 0.0
-0.109385 0.054309 0.0
-0.115725 0.053104 0.0
-0.122126 0.051528 0.0
-0.128564 0.049512 0.0
-0.135008 0.046979 0.0
-0.141414 0.043848 0.0
-0.147724 0.040029 0.0
-0.153859 0.035427 0.0
-0.159722 0.029948 0.0
-0.165189 0.023497 0.0
-0.170107 0.015990 0.0
-0.174291 0.007356 0.0
-0.177522 -0.002445 0.0
-0.179549 -0.013427 0.0
-0.180099 -0.025535 0.0
-0.178878 -0.038654 0.0
-0.175594 -0.052584 0.0
-0.169976 -0.067023 0.0
-0.161815 -0.081562 0.0
-0.151002 -0.095683 0.0
-0.137579 -0.108777 0.0
-0.121787 -0.120174 0.0
-0.104099 -0.129194 0.0
-0.085224 -0.135199 0.0
-0.066064 -0.137603 0.0
-0.047621 -0.135763 0.0
-0.030892 -0.128586 0.0
-0.016839 -0.113664 0.0
-0.006523 -0.085889 0.0
-0.001223 -0.036909 0.0
-0.000956 0.022578 0.0
-0.003814 0.044226 0.0
-0.008055 0.053904 0.0
-0.012916 0.057940 0.0
-0.018039 0.059542 0.0
-0.023276 0.060205 0.0
-0.028573 0.060558 0.0
-0.033915 0.060829 0.0
-0.039304 0.061090 0.0
-0.044745 0.061354 0.0
-0.050246 0.061621 0.0
-0.055814 0.061880 0.0
-0.061459 0.062120 0.0
-0.067188 0.062327 0.0
-0.073012 0.062482 0.0
-0.078939 0.062564 0.0
-0.084977 0.062546 0.0
-0.091136 0.062398 0.0
-0.097423 0.062083 0.0
-0.103842 0.061558 0.0
-0.110397 0.060773 0.0
-0.117086 0.059670 0.0
-0.123904 0.058181 0.0
-0.130836 0.056229 0.0
-0.137859 0.053729 0.0
-0.144938 0.050584 0.0
-0.152021 0.046686 0.0
-0.159036 0.041921 0.0
-0.165886 0.036167 0.0
-0.172443 0.029301 0.0
-0.178544 0.021204 0.0
-0.183984 0.011766 0.0
-0.188512 0.000903 0.0
-0.191830 -0.011430 0.0
-0.193598 -0.025214 0.0
-0.193437 -0.040356 0.0
-0.190950 -0.056654 0.0
-0.185749 -0.073772 0.0
-0.177503 -0.091221 0.0
-0.165993 -0.108348 0.0
-0.151189 -0.124339 0.0
-0.133333 -0.138259 0.0
-0.113012 -0.149118 0.0
-0.091183 -0.155979 0.0
-0.069125 -0.158042 0.0
-0.048273 -0.154618 0.0
-0.029986 -0.144747 0.0
-0.015368 -0.126176 0.0
-0.005356 -0.093705 0.0
-0.000808 -0.038940 0.0
-0.000937 0.024470 0.0
-0.003752 0.048007 0.0
-0.007946 0.058557 0.0
-0.012766 0.062968 0.0
-0.017855 0.064726 0.0
-0.023061 0.065464 0.0
-0.028330 0.065865 0.0
-0.033649 0.066183 0.0
-0.039021 0.066496 0.0
-0.044451 0.066820 0.0
-0.049949 0.067154 0.0
-0.055526 0.067491 0.0
-0.061193 0.067820 0.0
-0.066960 0.068125 0.0
-0.072842 0.068389 0.0
-0.078851 0.068592 0.0
-0.085000 0.068706 0.0
-0.091304 0.068701 0.0
-0.097776 0.068539 0.0
-0.104429 0.068175 0.0
-0.111274 0.067556 0.0
-0.118318 0.066621 0.0
-0.125567 0.065295 0.0
-0.133016 0.063496 0.0
-0.140654 0.061125 0.0
-0.148458 0.058071 0.0
-0.156387 0.054210 0.0
-0.164378 0.049403 0.0
-0.172342 0.043499 0.0
-0.180153 0.036338 0.0
-0.187641 0.027756 0.0
-0.194584 0.017596 0.0
-0.200702 0.005719 0.0
-0.205656 -0.007973 0.0
-0.209026 -0.023533 0.0
-0.210323 -0.040901 0.0
-0.209023 -0.059897 0.0
-0.204579 -0.080172 0.0
-0.196483 -0.101163 0.0
-0.184338 -0.122060 0.0
-0.167980 -0.141789 0.0
-0.147600 -0.159043 0.0
-0.123888 -0.172366 0.0
-0.098119 -0.180329 0.0
-0.072115 -0.181753 0.0
-0.048007 -0.175866 0.0
-0.027758 -0.162035 0.0
-0.012701 -0.138563 0.0
-0.003480 -0.100550 0.0
-0.000188 -0.039936 0.0
-0.000915 0.026322 0.0
-0.003681 0.051736 0.0
-0.007822 0.063164 0.0
-0.012596 0.067956 0.0
-0.017643 0.069875 0.0
-0.022811 0.070689 0.0
-0.028046 0.071144 0.0
-0.033334 0.071513 0.0
-0.038679 0.071883 0.0
-0.044089 0.072274 0.0
-0.049575 0.072685 0.0
-0.055149 0.073112 0.0
-0.060826 0.073542 0.0
-0.066619 0.073963 0.0
-0.072545 0.074359 0.0
-0.078622 0.074708 0.0
-0.084868 0.074986 0.0
-0.091304 0.075161 0.0
-0.097949 0.075196 0.0
-0.104825 0.075046 0.0
-0.111951 0.074656 0.0
-0.119347 0.073961 0.0
-0.127028 0.072884 0.0
-0.135006 0.071334 0.0
-0.143284 0.069203 0.0
-0.151853 0.066366 0.0
-0.160689 0.062681 0.0
-0.169748 0.057982 0.0
-0.178951 0.052087 0.0
-0.188185 0.044794 0.0
-0.197284 0.035887 0.0
-0.206021 0.025145 0.0
-0.214091 0.012358 0.0
-0.221092 -0.002657 0.0
-0.226527 -0.020044 0.0
-0.229810 -0.039811 0.0
-0.230249 -0.061848 0.0
-0.227090 -0.085824 0.0
-0.219576 -0.111122 0.0
-0.207051 -0.136770 0.0
-0.189109 -0.161379 0.0
-0.165800 -0.183142 0.0
-0.137853 -0.199925 0.0
-0.106882 -0.209511 0.0
-0.075432 -0.210025 0.0
-0.046698 -0.200438 0.0
-0.023724 -0.180686 0.0
-0.008336 -0.150357 0.0
-0.000628 -0.105684 0.0
0.000701 -0.039423 0.0
-0.000891 0.028127 0.0
-0.003602 0.055406 0.0
-0.007684 0.067718 0.0
-0.012404 0.072896 0.0
-0.017402 0.074980 0.0
-0.022524 0.075874 0.0
-0.027716 0.076384 0.0
-0.032964 0.076808 0.0
-0.038272 0.077240 0.0
-0.043651 0.077704 0.0
-0.049112 0.078202 0.0
-0.054670 0.078728 0.0
-0.060341 0.079274 0.0
-0.066144 0.079827 0.0
-0.072097 0.080374 0.0
-0.078224 0.080896 0.0
-0.084547 0.081368 0.0
-0.091094 0.081761 0.0
-0.097891 0.082039 0.0
-0.104969 0.082157 0.0
-0.112359 0.082061 0.0
-0.120090 0.081684 0.0
-0.128194 0.080947 0.0
-0.136697 0.079752 0.0
-0.145622 0.077986 0.0
-0.154980 0.075510 0.0
-0.164771 0.072164 0.0
-0.174972 0.067758 0.0
-0.185530 0.062074 0.0
-0.196353 0.054864 0.0
-0.207290 0.045853 0.0
-0.218118 0.034743 0.0
-0.228516 0.021228 0.0
-0.238051 0.005008 0.0
-0.246171 -0.014154 0.0
-0.252149 -0.036440 0.0
-0.255100 -0.061829 0.0
-0.254028 -0.090073 0.0
-0.247865 -0.120549 0.0
-0.235597 -0.152136 0.0
-0.216459 -0.183094 0.0
-0.190197 -0.210999 0.0
-0.157410 -0.232802 0.0
-0.119917 -0.245099 0.0
-0.081030 -0.244774 0.0
-0.045412 -0.230040 0.0
-0.018016 -0.201454 0.0
-0.001992 -0.161002 0.0
0.003436 -0.108175 0.0
0.001949 -0.036774 0.0
-0.000864 0.029883 0.0
-0.003514 0.059011 0.0
-0.007529 0.072211 0.0
-0.012188 0.077782 0.0
-0.017130 0.080034 0.0
-0.022198 0.081010 0.0
-0.027337 0.081578 0.0
-0.032535 0.082060 0.0
-0.037796 0.082558 0.0
-0.043130 0.083100 0.0
-0.048552 0.083690 0.0
-0.054078 0.084324 0.0
-0.059726 0.084997 0.0
-0.065518 0.085698 0.0
-0.071477 0.086416 0.0
-0.077629 0.087133 0.0
-0.084003 0.087828 0.0
-0.090633 0.088476 0.0
-0.097553 0.089041 0.0
-0.104803 0.089482 0.0
-0.112424 0.089746 0.0
-0.120461 0.089767 0.0
-0.128960 0.089466 0.0
-0.137967 0.088743 0.0
-0.147526 0.087478 0.0
-0.157675 0.085525 0.0
-0.168442 0.082707 0.0
-0.179838 0.078812 0.0
-0.191845 0.073586 0.0
-0.204406 0.066736 0.0
-0.217405 0.057917 0.0
-0.230643 0.046744 0.0
-0.243815 0.032798 0.0
-0.256480 0.015639 0.0
-0.268000 -0.005145 0.0
-0.277540 -0.029932 0.0
-0.284053 -0.058872 0.0
-0.286274 -0.091881 0.0
-0.282785 -0.128393 0.0
-0.272157 -0.167188 0.0
-0.253139 -0.206197 0.0
-0.224952 -0.242345 0.0
-0.187702 -0.271493 0.0
-0.142978 -0.288626 0.0
-0.094512 -0.288601 0.0
-0.048549 -0.267794 0.0
-0.013041 -0.226605 0.0
0.005631 -0.170547 0.0
0.008686 -0.107114 0.0
0.003582 -0.031243 0.0
-0.000836 0.031583 0.0
-0.003418 0.062543 0.0
-0.007359 0.076636 0.0
-0.011949 0.082606 0.0
-0.016827 0.085029 0.0
-0.021833 0.086089 0.0
-0.026910 0.086716 0.0
-0.032046 0.087256 0.0
-0.037246 0.087822 0.0
-0.042521 0.088445 0.0
-0.047888 0.089133 0.0
-0.053363 0.089883 0.0
-0.058968 0.090692 0.0
-0.064725 0.091553 0.0
-0.070663 0.092457 0.0
-0.076811 0.093391 0.0
-0.083204 0.094338 0.0
-0.089881 0.095273 0.0
-0.096885 0.096169 0.0
-0.104265 0.096985 0.0
-0.112074 0.097674 0.0
-0.120371 0.098174 0.0
-0.129219 0.098406 0.0
-0.138685 0.098275 0.0
-0.148839 0.097658 0.0
-0.159751 0.096405 0.0
-0.171484 0.094327 0.0
-0.184092 0.091195 0.0
-0.197606 0.086725 0.0
-0.212023 0.080575 0.0
-0.227282 0.072334 0.0
-0.243238 0.061521 0.0
-0.259627 0.047583 0.0
-0.276017 0.029909 0.0
-0.291768 0.007857 0.0
-0.306009 -0.019154 0.0
-0.317534 -0.051612 0.0
-0.324836 -0.089619 0.0
-0.326223 -0.132757 0.0
-0.319863 -0.179814 0.0
-0.303898 -0.228553 0.0
-0.276669 -0.275405 0.0
-0.237219 -0.315133 0.0
-0.186167 -0.340761 0.0
-0.126836 -0.344263 0.0
-0.066367 -0.318564 0.0
-0.016137 -0.261573 0.0
0.011223 -0.181610 0.0
0.014283 -0.102166 0.0
0.005429 -0.022232 0.0
-0.000804 0.033223 0.0
-0.003314 0.065994 0.0
-0.007174 0.080986 0.0
-0.011688 0.087360 0.0
-0.016493 0.089957 0.0
-0.021427 0.091101 0.0
-0.026432 0.091786 0.0
-0.031495 0.092385 0.0
-0.036621 0.093019 0.0
-0.041822 0.093725 0.0
-0.047115 0.094512 0.0
-0.052519 0.095382 0.0
-0.058056 0.096334 0.0
-0.063752 0.097365 0.0
-0.069638 0.098469 0.0
-0.075748 0.099637 0.0
-0.082121 0.100857 0.0
-0.088802 0.102111 0.0
-0.095841 0.103375 0.0
-0.103297 0.104615 0.0
-0.111236 0.105791 0.0
-0.119729 0.106847 0.0
-0.128859 0.107711 0.0
-0.138715 0.108293 0.0
-0.149396 0.108476 0.0
-0.161006 0.108109 0.0
-0.173652 0.107003 0.0
-0.187440 0.104916 0.0
-0.202465 0.101544 0.0
-0.218797 0.096505 0.0
-0.236459 0.089325 0.0
-0.255397 0.079425 0.0
-0.275440 0.066111 0.0
-0.296245 0.048576 0.0
-0.317235 0.025930 0.0
-0.337505 -0.002715 0.0
-0.355860 -0.038171 0.0
-0.370788 -0.080830 0.0
-0.380421 -0.130525 0.0
-0.382514 -0.186314 0.0
-0.374323 -0.246209 0.0
-0.352775 -0.306526 0.0
-0.315232 -0.361005 0.0
-0.260736 -0.400436 0.0
-0.191348 -0.413307 0.0
-0.113664 -0.387673 0.0
-0.040847 -0.315510 0.0
0.006925 -0.202805 0.0
0.017770 -0.094875 0.0
0.006952 -0.009852 0.0
-0.000771 0.034799 0.0
-0.003202 0.069359 0.0
-0.006974 0.085253 0.0
-0.011405 0.092037 0.0
-0.016130 0.094810 0.0
-0.020984 0.096037 0.0
-0.025906 0.096778 0.0
-0.030884 0.097433 0.0
-0.035922 0.098134 0.0
-0.041032 0.098922 0.0
-0.046232 0.099808 0.0
-0.051541 0.100799 0.0
-0.056985 0.101897 0.0
-0.062590 0.103103 0.0
-0.068390 0.104416 0.0
-0.074422 0.105832 0.0
-0.080730 0.107343 0.0
-0.087363 0.108939 0.0
-0.094381 0.110603 0.0
-0.101848 0.112310 0.0
-0.109842 0.114028 0.0
-0.118450 0.115711 0.0
-0.127772 0.117299 0.0
-0.137921 0.118711 0.0
-0.149024 0.119842 0.0
-0.161224 0.120552 0.0
-0.174677 0.120659 0.0
-0.189551 0.119922 0.0
-0.206018 0.118029 0.0
-0.224242 0.114575 0.0
-0.244363 0.109037 0.0
-0.266461 0.100749 0.0
-0.290512 0.088882 0.0
-0.316334 0.072432 0.0
-0.343520 0.050249 0.0
-0.371403 0.021120 0.0
-0.399006 -0.016049 0.0
-0.424914 -0.062115 0.0
-0.447125 -0.117397 0.0
-0.462674 -0.181799 0.0
-0.467314 -0.254275 0.0
-0.456011 -0.331312 0.0
-0.424374 -0.405400 0.0
-0.370080 -0.464831 0.0
-0.293769 -0.494610 0.0
-0.200188 -0.477635 0.0
-0.100948 -0.397605 0.0
-0.019067 -0.250364 0.0
0.014036 -0.091265 0.0
0.007146 0.004246 0.0
-0.000736 0.036306 0.0
-0.003084 0.072631 0.0
-0.006762 0.089432 0.0
-0.011103 0.096630 0.0
-0.015740 0.099579 0.0
-0.020505 0.100887 0.0
-0.025335 0.101681 0.0
-0.030215 0.102388 0.0
-0.035150 0.103151 0.0
-0.040152 0.104016 0.0
-0.045238 0.104999 0.0
-0.050430 0.106109 0.0
-0.055752 0.107353 0.0
-0.061234 0.108735 0.0
-0.066910 0.110260 0.0
-0.072821 0.111930 0.0
-0.079013 0.113745 0.0
-0.085542 0.115700 0.0
-0.092470 0.117788 0.0
-0.099873 0.119995 0.0
-0.107835 0.122300 0.0
-0.116458 0.124670 0.0
-0.125858 0.127061 0.0
-0.136171 0.129410 0.0
-0.147554 0.131629 0.0
-0.160189 0.133600 0.0
-0.174282 0.135159 0.0
-0.190070 0.136084 0.0
-0.207813 0.136077 0.0
-0.227792 0.134731 0.0
-0.250293 0.131503 0.0
-0.275583 0.125672 0.0
-0.303875 0.116303 0.0
-0.335272 0.102229 0.0
-0.369717 0.082083 0.0
-0.406938 0.054391 0.0
-0.446331 0.017676 0.0
-0.486676 -0.029586 0.0
-0.525323 -0.089069 0.0
-0.557632 -0.162268 0.0
-0.577225 -0.249574 0.0
-0.577365 -0.347175 0.0
-0.553046 -0.445493 0.0
-0.501750 -0.530328 0.0
-0.423079 -0.584095 0.0
-0.319156 -0.585653 0.0
-0.197321 -0.510662 0.0
-0.076903 -0.339606 0.0
-0.004524 -0.107505 0.0
0.005731 0.017123 0.0
-0.000699 0.037741 0.0
-0.002961 0.075805 0.0
-0.006540 0.093515 0.0
-0.010785 0.101132 0.0
-0.015328 0.104257 0.0
-0.019996 0.105642 0.0
-0.024724 0.106483 0.0
-0.029495 0.107236 0.0
-0.034312 0.108055 0.0
-0.039188 0.108991 0.0
-0.044139 0.110063 0.0
-0.049188 0.111286 0.0
-0.054359 0.112670 0.0
-0.059683 0.114224 0.0
-0.065195 0.115959 0.0
-0.070938 0.117884 0.0
-0.076960 0.120005 0.0
-0.083320 0.122328 0.0
-0.090086 0.124854 0.0
-0.097337 0.127583 0.0
-0.105168 0.130506 0.0
-0.113689 0.133609 0.0
-0.123032 0.136866 0.0
-0.133352 0.140238 0.0
-0.144834 0.143665 0.0
-0.157694 0.147059 0.0
-0.172193 0.150291 0.0
-0.188633 0.153180 0.0
-0.207372 0.155463 0.0
-0.228821 0.156772 0.0
-0.253443 0.156584 0.0
-0.281745 0.154183 0.0
-0.314266 0.148603 0.0
-0.351551 0.138610 0.0
-0.394115 0.122712 0.0
-0.442284 0.099152 0.0
-0.495706 0.065730 0.0
-0.552408 0.019406 0.0
-0.607948 -0.043874 0.0
-0.655318 -0.127783 0.0
-0.686458 -0.233327 0.0
-0.694788 -0.354952 0.0
-0.676636 -0.480187 0.0
-0.630373 -0.593194 0.0
-0.554713 -0.675561 0.0
-0.448707 -0.704115 0.0
-0.314364 -0.648378 0.0
-0.163621 -0.473052 0.0
-0.038829 -0.171231 0.0
0.004456 0.027310 0.0
-0.000662 0.039102 0.0
-0.002834 0.078877 0.0
-0.006311 0.097500 0.0
-0.010456 0.105539 0.0
-0.014900 0.108837 0.0
-0.019464 0.110294 0.0
-0.024080 0.111175 0.0
-0.028730 0.111965 0.0
-0.033415 0.112829 0.0
-0.038148 0.113825 0.0
-0.042943 0.114977 0.0
-0.047824 0.116302 0.0
-0.052814 0.117815 0.0
-0.057944 0.119532 0.0
-0.063250 0.121469 0.0
-0.068775 0.123642 0.0
-0.074569 0.126064 0.0
-0.080693 0.128752 0.0
-0.087215 0.131719 0.0
-0.094221 0.134976 0.0
-0.101809 0.138532 0.0
-0.110098 0.142393 0.0
-0.119229 0.146556 0.0
-0.129372 0.151011 0.0
-0.140734 0.155734 0.0
-0.153562 0.160679 0.0
-0.168161 0.165768 0.0
-0.184898 0.170881 0.0
-0.204224 0.175827 0.0
-0.226683 0.180316 0.0
-0.252936 0.183915 0.0
-0.283777 0.185997 0.0
-0.320162 0.185695 0.0
-0.363217 0.181858 0.0
-0.414132 0.172944 0.0
-0.473677 0.156633 0.0
-0.541035 0.129028 0.0
-0.612297 0.084072 0.0
-0.679986 0.014690 0.0
-0.735100 -0.083863 0.0
-0.770458 -0.210749 0.0
-0.782077 -0.357581 0.0
-0.768660 -0.509126 0.0
-0.729588 -0.649590 0.0
-0.662602 -0.761811 0.0
-0.563542 -0.822931 0.0
-0.428607 -0.798840 0.0
-0.260702 -0.641238 0.0
-0.084090 -0.304448 0.0
0.000693 0.032459 0.0
-0.000624 0.040388 0.0
-0.002705 0.081845 0.0
-0.006078 0.101382 0.0
-0.010122 0.109845 0.0
-0.014462 0.113315 0.0
-0.018917 0.114836 0.0
-0.023414 0.115746 0.0
-0.027932 0.116561 0.0
-0.032472 0.117458 0.0
-0.037044 0.118500 0.0
-0.041663 0.119717 0.0
-0.046350 0.121129 0.0
-0.051128 0.122757 0.0
-0.056029 0.124621 0.0
-0.061086 0.126744 0.0
-0.066343 0.129149 0.0
-0.071849 0.131858 0.0
-0.077666 0.134898 0.0
-0.083862 0.138293 0.0
-0.090524 0.142069 0.0
-0.097751 0.146254 0.0
-0.105665 0.150874 0.0
-0.114413 0.155954 0.0
-0.124174 0.161518 0.0
-0.135167 0.167582 0.0
-0.147660 0.174153 0.0
-0.161990 0.181222 0.0
-0.178576 0.188750 0.0
-0.197944 0.196652 0.0
-0.220763 0.204769 0.0
-0.247885 0.212836 0.0
-0.280404 0.220437 0.0
-0.319725 0.226961 0.0
-0.367545 0.231466 0.0
-0.425504 0.232210 0.0
-0.494104 0.225513 0.0
-0.570973 0.204375 0.0
-0.649703 0.158718 0.0
-0.720959 0.078989 0.0
-0.775695 -0.038312 0.0
-0.809078 -0.187559 0.0
-0.820589 -0.357641 0.0
-0.811246 -0.531825 0.0
-0.781299 -0.695910 0.0
-0.727933 -0.835843 0.0
-0.644265 -0.931627 0.0
-0.520835 -0.948509 0.0
-0.351794 -0.828515 0.0
-0.150041 -0.495535 0.0
-0.022216 0.010936 0.0
-0.000586 0.041598 0.0
-0.002578 0.084708 0.0
-0.005848 0.105162 0.0
-0.009789 0.114050 0.0
-0.014025 0.117686 0.0
-0.018367 0.119261 0.0
-0.022738 0.120189 0.0
-0.027116 0.121014 0.0
-0.031498 0.121927 0.0
-0.035893 0.122998 0.0
-0.040316 0.124261 0.0
-0.044784 0.125740 0.0
-0.049321 0.127461 0.0
-0.053956 0.129451 0.0
-0.058722 0.131738 0.0
-0.063661 0.134351 0.0
-0.068820 0.137323 0.0
-0.074258 0.140688 0.0
-0.080044 0.144485 0.0
-0.086260 0.148754 0.0
-0.093005 0.153541 0.0
-0.100398 0.158894 0.0
-0.108585 0.164869 0.0
-0.117745 0.171523 0.0
-0.128098 0.178922 0.0
-0.139922 0.187130 0.0
-0.153564 0.196218 0.0
-0.169471 0.206247 0.0
-0.188218 0.217270 0.0
-0.210558 0.229310 0.0
-0.237491 0.242349 0.0
-0.270352 0.256304 0.0
-0.310881 0.270943 0.0
-0.361073 0.285495 0.0
-0.422437 0.297504 0.0
-0.494450 0.300832 0.0
-0.572930 0.284404 0.0
-0.650021 0.234510 0.0
-0.716596 0.141029 0.0