# vtk DataFile Version 3.0
Scalar Field
ASCII
DATASET RECTILINEAR_GRID
DIMENSIONS 50 50 1
X_COORDINATES 50 double
0.100000 0.300000 0.500000 0.700000 0.900000 1.100000 1.300000 1.500000 1.700000 1.900000 2.100000 2.300000 2.500000 2.700000 2.900000 3.100000 3.300000 3.500000 3.700000 3.900000 4.100000 4.300000 4.500000 4.700000 4.900000 5.100000 5.300000 5.500000 5.700000 5.900000 6.100000 6.300000 6.500000 6.700000 6.900000 7.100000 7.300000 7.500000 7.700000 7.900000 8.100000 8.300000 8.500000 8.700000 8.900000 9.100000 9.300000 9.500000 9.700000 9.900000 
Y_COORDINATES 50 double
0.100000 0.300000 0.500000 0.700000 0.900000 1.100000 1.300000 1.500000 1.700000 1.900000 2.100000 2.300000 2.500000 2.700000 2.900000 3.100000 3.300000 3.500000 3.700000 3.900000 4.100000 4.300000 4.500000 4.700000 4.900000 5.100000 5.300000 5.500000 5.700000 5.900000 6.100000 6.300000 6.500000 6.700000 6.900000 7.100000 7.300000 7.500000 7.700000 7.900000 8.100000 8.300000 8.500000 8.700000 8.900000 9.100000 9.300000 9.500000 9.700000 9.900000 
Z_COORDINATES 1 double
0.0
POINT_DATA 2500
SCALARS Skalarfeld double 1
LOOKUP_TABLE default
0.017362
0.017313
0.017355
0.017515
0.017796
0.018197
0.018715
0.019352
0.020110
0.020991
0.021999
0.023140
0.024419
0.025842
0.027415
0.029146
0.031043
0.033113
0.035367
0.037812
0.040459
0.043317
0.046393
0.049696
0.053230
0.057000
0.061005
0.065239
0.069693
0.074347
0.079177
0.084145
0.089208
0.094298
0.099347
0.104277
0.109007
0.113451
0.117527
0.121163
0.124301
0.126903
0.128952
0.130458
0.131452
0.131990
0.132145
0.132014
0.131725
0.131449
0.017411
0.017361
0.017420
0.017594
0.017882
0.018286
0.018806
0.019443
0.020200
0.021081
0.022089
0.023229
0.024506
0.025927
0.027498
0.029225
0.031118
0.033184
0.035431
0.037870
0.040509
0.043356
0.046422
0.049712
0.053234
0.056990
0.060980
0.065201
0.069640
0.074282
0.079101
0.084062
0.089114
0.094197
0.099243
0.104172
0.108901
0.113343
0.117413
0.121038
0.124158
0.126735
0.128754
0.130226
0.131187
0.131697
0.131838
0.131713
0.131447
0.131173
0.017349
0.017283
0.017345
0.017524
0.017817
0.018222
0.018741
0.019375
0.020128
0.021004
0.022006
0.023138
0.024407
0.025819
0.027379
0.029094
0.030973
0.033024
0.035256
0.037677
0.040298
0.043126
0.046172
0.049444
0.052947
0.056688
0.060666
0.064880
0.069320
0.073971
0.078808
0.083797
0.088884
0.094016
0.099119
0.104112
0.108903
0.113402
0.117518
0.121170
0.124296
0.126853
0.128828
0.130236
0.131122
0.131554
0.131623
0.131440
0.131128
0.130808
0.017124
0.017044
0.017103
0.017283
0.017575
0.017978
0.018492
0.019120
0.019865
0.020730
0.021720
0.022839
0.024092
0.025486
0.027027
0.028721
0.030578
0.032604
0.034810
0.037204
0.039796
0.042597
0.045615
0.048862
0.052344
0.056069
0.060040
0.064255
0.068711
0.073392
0.078277
0.083331
0.088503
0.093736
0.098954
0.104068
0.108980
0.113589
0.117793
0.121503
0.124647
0.127179
0.129088
0.130396
0.131159
0.131461
0.131409
0.131124
0.130737
0.130372
0.016711
0.016623
0.016678
0.016854
0.017142
0.017538
0.018043
0.018660
0.019391
0.020241
0.021212
0.022311
0.023542
0.024910
0.026423
0.028088
0.029912
0.031905
0.034075
0.036432
0.038988
0.041752
0.044737
0.047954
0.051413
0.055123
0.059090
0.063318
0.067804
0.072538
0.077500
0.082659
0.087962
0.093349
0.098737
0.104031
0.109121
0.113892
0.118228
0.122024
0.125195
0.127693
0.129505
0.130665
0.131248
0.131362
0.131135
0.130708
0.130225
0.129819
0.016100
0.016008
0.016058
0.016228
0.016508
0.016893
0.017386
0.017987
0.018699
0.019527
0.020475
0.021546
0.022746
0.024082
0.025559
0.027185
0.028968
0.030917
0.033042
0.035353
0.037863
0.040584
0.043529
0.046710
0.050142
0.053837
0.057805
0.062053
0.066583
0.071390
0.076456
0.081755
0.087233
0.092825
0.098442
0.103978
0.109309
0.114300
0.118816
0.122729
0.125940
0.128388
0.130065
0.131020
0.131354
0.131208
0.130745
0.130131
0.129529
0.129083
0.015289
0.015194
0.015240
0.015402
0.015670
0.016042
0.016517
0.017098
0.017787
0.018587
0.019504
0.020541
0.021703
0.022997
0.024429
0.026007
0.027739
0.029635
0.031705
0.033960
0.036415
0.039082
0.041977
0.045116
0.048515
0.052191
0.056159
0.060429
0.065011
0.069904
0.075096
0.080565
0.086260
0.092108
0.098014
0.103860
0.109503
0.114784
0.119539
0.123612
0.126878
0.129263
0.130760
0.131438
0.131436
0.130943
0.130170
0.129318
0.128570
0.128079
0.014280
0.014183
0.014223
0.014376
0.014631
0.014985
0.015439
0.015994
0.016654
0.017421
0.018300
0.019296
0.020412
0.021656
0.023034
0.024554
0.026224
0.028055
0.030058
0.032245
0.034632
0.037232
0.040066
0.043150
0.046505
0.050152
0.054110
0.058399
0.063031
0.068014
0.073345
0.079006
0.084954
0.091108
0.097366
0.103597
0.109635
0.115289
0.120359
0.124648
0.127997
0.130306
0.131570
0.131883
0.131437
0.130491
0.129318
0.128168
0.127242
0.126702
0.013077
0.012979
0.013012
0.013154
0.013393
0.013726
0.014155
0.014680
0.015305
0.016033
0.016868
0.017813
0.018875
0.020059
0.021373
0.022824
0.024420
0.026174
0.028096
0.030200
0.032502
0.035020
0.037773
0.040784
0.044076
0.047675
0.051607
0.055897
0.060566
0.065632
0.071100
0.076961
0.083190
0.089693
0.096367
0.103063
0.109589
0.115719
0.121201
0.125784
0.129255
0.131483
0.132452
0.132292
0.131269
0.129735
0.128058
0.126541
0.125406
0.124821
0.011686
0.011587
0.011612
0.011741
0.011961
0.012270
0.012670
0.013161
0.013745
0.014427
0.015210
0.016098
0.017096
0.018211
0.019448
0.020817
0.022327
0.023988
0.025812
0.027815
0.030013
0.032426
0.035076
0.037988
0.041190
0.044711
0.048586
0.052846
0.057523
0.062645
0.068230
0.074282
0.080797
0.087682
0.094826
0.102067
0.109186
0.115910
0.121924
0.126903
0.130559
0.132705
0.133311
0.132548
0.130781
0.128499
0.126196
0.124249
0.122895
0.122256
0.010113
0.010013
0.010030
0.010143
0.010342
0.010625
0.010991
0.011442
0.011980
0.012610
0.013333
0.014155
0.015080
0.016113
0.017263
0.018537
0.019943
0.021494
0.023202
0.025081
0.027151
0.029432
0.031948
0.034726
0.037799
0.041202
0.044974
0.049156
0.053791
0.058919
0.064574
0.070778
0.077549
0.084822
0.092471
0.100327
0.108142
0.115589
0.122277
0.127781
0.131709
0.133787
0.133954
0.132431
0.129720
0.126497
0.123445
0.121057
0.119467
0.118786
0.008367
0.008265
0.008273
0.008370
0.008545
0.008797
0.009125
0.009532
0.010019
0.010588
0.011244
0.011991
0.012832
0.013773
0.014822
0.015985
0.017271
0.018692
0.020261
0.021992
0.023904
0.026019
0.028362
0.030964
0.033858
0.037086
0.040692
0.044726
0.049243
0.054295
0.059937
0.066212
0.073149
0.080773
0.088921
0.097425
0.106015
0.114308
0.121821
0.128005
0.132321
0.134369
0.134023
0.131559
0.127666
0.123282
0.119449
0.116598
0.114811
0.114138
0.006458
0.006354
0.006351
0.006429
0.006579
0.006796
0.007083
0.007440
0.007869
0.008372
0.008953
0.009614
0.010361
0.011198
0.012131
0.013167
0.014314
0.015584
0.016988
0.018541
0.020262
0.022172
0.024297
0.026668
0.029322
0.032302
0.035659
0.039449
0.043738
0.048593
0.054087
0.060287
0.067249
0.075087
0.083644
0.092752
0.102127
0.111336
0.119801
0.126828
0.131700
0.133825
0.132953
0.129385
0.124059
0.118331
0.113626
0.110406
0.108589
0.108032
0.004393
0.004288
0.004274
0.004332
0.004452
0.004633
0.004874
0.005176
0.005541
0.005971
0.006469
0.007036
0.007677
0.008397
0.009199
0.010091
0.011079
0.012174
0.013386
0.014729
0.016220
0.017880
0.019733
0.021811
0.024149
0.026792
0.029794
0.033216
0.037129
0.041617
0.046767
0.052674
0.059429
0.067154
0.075906
0.085426
0.095439
0.105488
0.114924
0.122928
0.128592
0.131083
0.129919
0.125303
0.118387
0.111161
0.105433
0.102062
0.100522
0.100275
0.002185
0.002078
0.002052
0.002088
0.002178
0.002318
0.002510
0.002753
0.003048
0.003398
0.003804
0.004268
0.004793
0.005382
0.006039
0.006768
0.007577
0.008472
0.009463
0.010561
0.011781
0.013140
0.014662
0.016372
0.018307
0.020507
0.023024
0.025920
0.029270
0.033161
0.037694
0.042982
0.049140
0.056273
0.064725
0.074183
0.084377
0.094865
0.105006
0.113956
0.120689
0.124138
0.123479
0.118570
0.110461
0.101610
0.095133
0.091524
0.090585
0.090837
-0.000154
-0.000263
-0.000302
-0.000289
-0.000233
-0.000135
0.000003
0.000182
0.000403
0.000666
0.000973
0.001324
0.001722
0.002168
0.002665
0.003215
0.003822
0.004493
0.005232
0.006049
0.006953
0.007958
0.009082
0.010346
0.011778
0.013412
0.015293
0.017474
0.020025
0.023027
0.026580
0.030801
0.035812
0.041734
0.048750
0.057240
0.066615
0.076537
0.086556
0.096022
0.104000
0.109308
0.110740
0.107539
0.100112
0.090746
0.083352
0.079680
0.079283
0.080050
-0.002613
-0.002724
-0.002776
-0.002788
-0.002766
-0.002714
-0.002633
-0.002521
-0.002380
-0.002209
-0.002008
-0.001778
-0.001517
-0.001226
-0.000904
-0.000551
-0.000165
0.000256
0.000713
0.001212
0.001756
0.002352
0.003010
0.003742
0.004563
0.005496
0.006568
0.007815
0.009285
0.011038
0.013148
0.015702
0.018789
0.022482
0.026810
0.032229
0.039007
0.046520
0.054822
0.063824
0.072980
0.081194
0.086935
0.088664
0.085613
0.078822
0.071763
0.068559
0.067597
0.068615
-0.005177
-0.005290
-0.005356
-0.005393
-0.005408
-0.005404
-0.005382
-0.005342
-0.005284
-0.005211
-0.005122
-0.005020
-0.004905
-0.004780
-0.004646
-0.004505
-0.004360
-0.004212
-0.004064
-0.003919
-0.003779
-0.003647
-0.003524
-0.003412
-0.003312
-0.003225
-0.003148
-0.003078
-0.003010
-0.002933
-0.002838
-0.002723
-0.002609
-0.002553
-0.002618
-0.002777
-0.001906
0.000671
0.005112
0.012322
0.022376
0.034408
0.046685
0.056941
0.063013
0.063908
0.061071
0.058529
0.056860
0.057336
-0.007834
-0.007948
-0.008028
-0.008091
-0.008144
-0.008190
-0.008228
-0.008262
-0.008292
-0.008320
-0.008349
-0.008381
-0.008420
-0.008469
-0.008534
-0.008619
-0.008731
-0.008876
-0.009064
-0.009305
-0.009609
-0.009991
-0.010468
-0.011060
-0.011791
-0.012693
-0.013802
-0.015168
-0.016851
-0.018934
-0.021534
-0.024826
-0.029060
-0.034532
-0.041415
-0.049446
-0.057668
-0.063209
-0.064754
-0.060555
-0.049989
-0.033693
-0.013449
0.008019
0.027372
0.041367
0.048181
0.049133
0.048259
0.046306
-0.010568
-0.010683
-0.010778
-0.010867
-0.010958
-0.011054
-0.011155
-0.011265
-0.011384
-0.011516
-0.011666
-0.011837
-0.012035
-0.012266
-0.012538
-0.012859
-0.013242
-0.013697
-0.014242
-0.014894
-0.015677
-0.016618
-0.017752
-0.019122
-0.020784
-0.022808
-0.025286
-0.028340
-0.032133
-0.036893
-0.042951
-0.050777
-0.060988
-0.074180
-0.090510
-0.109124
-0.127888
-0.143802
-0.152683
-0.152197
-0.141498
-0.121136
-0.092839
-0.059404
-0.024757
0.006091
0.027897
0.037838
0.039754
0.032506
-0.013364
-0.013480
-0.013589
-0.013705
-0.013835
-0.013981
-0.014145
-0.014331
-0.014540
-0.014779
-0.015051
-0.015363
-0.015723
-0.016140
-0.016625
-0.017190
-0.017852
-0.018629
-0.019545
-0.020629
-0.021914
-0.023447
-0.025281
-0.027489
-0.030162
-0.033419
-0.037423
-0.042389
-0.048623
-0.056560
-0.066836
-0.080337
-0.098121
-0.121026
-0.148907
-0.179905
-0.210425
-0.236153
-0.252546
-0.255732
-0.245102
-0.221374
-0.186240
-0.142243
-0.093151
-0.044753
-0.005189
0.017150
0.019783
0.008996
-0.016207
-0.016325
-0.016447
-0.016589
-0.016757
-0.016953
-0.017180
-0.017441
-0.017741
-0.018085
-0.018480
-0.018934
-0.019457
-0.020061
-0.020759
-0.021571
-0.022516
-0.023620
-0.024914
-0.026438
-0.028241
-0.030383
-0.032945
-0.036026
-0.039760
-0.044326
-0.049964
-0.057008
-0.065936
-0.077446
-0.092551
-0.112609
-0.139105
-0.172934
-0.213327
-0.257103
-0.299067
-0.333525
-0.356137
-0.362160
-0.351454
-0.325140
-0.285059
-0.233419
-0.173204
-0.109746
-0.052837
-0.016513
-0.010416
-0.017403
-0.019084
-0.019201
-0.019336
-0.019503
-0.019708
-0.019953
-0.020241
-0.020576
-0.020964
-0.021412
-0.021927
-0.022520
-0.023204
-0.023993
-0.024904
-0.025959
-0.027185
-0.028613
-0.030285
-0.032248
-0.034567
-0.037321
-0.040612
-0.044575
-0.049385
-0.055282
-0.062594
-0.071785
-0.083526
-0.098800
-0.119018
-0.145999
-0.181545
-0.226410
-0.278980
-0.334657
-0.386742
-0.428432
-0.455295
-0.462970
-0.451724
-0.423259
-0.379903
-0.323813
-0.256920
-0.182744
-0.110069
-0.055042
-0.032448
-0.029558
-0.021977
-0.022095
-0.022242
-0.022433
-0.022672
-0.022963
-0.023309
-0.023716
-0.024189
-0.024736
-0.025368
-0.026096
-0.026935
-0.027902
-0.029018
-0.030310
-0.031808
-0.033552
-0.035589
-0.037979
-0.040799
-0.044146
-0.048146
-0.052963
-0.058817
-0.066008
-0.074950
-0.086232
-0.100714
-0.119653
-0.144817
-0.178401
-0.222399
-0.277293
-0.340595
-0.406418
-0.466812
-0.514197
-0.543576
-0.552041
-0.539711
-0.509013
-0.463191
-0.404966
-0.335529
-0.255760
-0.170790
-0.095113
-0.048853
-0.035944
-0.024875
-0.024991
-0.025150
-0.025362
-0.025633
-0.025967
-0.026368
-0.026841
-0.027393
-0.028035
-0.028776
-0.029632
-0.030617
-0.031754
-0.033065
-0.034580
-0.036336
-0.038377
-0.040758
-0.043550
-0.046841
-0.050743
-0.055403
-0.061013
-0.067833
-0.076214
-0.086644
-0.099823
-0.116764
-0.138942
-0.168396
-0.207570
-0.258544
-0.321532
-0.393349
-0.467139
-0.534018
-0.585788
-0.617122
-0.625919
-0.612110
-0.578782
-0.530445
-0.471101
-0.402069
-0.321901
-0.230963
-0.139881
-0.073152
-0.050883
-0.027762
-0.027877
-0.028045
-0.028276
-0.028576
-0.028949
-0.029399
-0.029933
-0.030558
-0.031286
-0.032128
-0.033101
-0.034222
-0.035514
-0.037005
-0.038726
-0.040718
-0.043031
-0.045727
-0.048884
-0.052599
-0.056999
-0.062246
-0.068557
-0.076217
-0.085620
-0.097308
-0.112056
-0.130978
-0.155677
-0.188335
-0.231509
-0.287294
-0.355750
-0.433343
-0.512717
-0.584429
-0.639780
-0.673055
-0.682293
-0.666987
-0.630798
-0.579667
-0.519357
-0.452302
-0.375941
-0.286277
-0.188814
-0.109324
-0.079731
-0.030626
-0.030740
-0.030915
-0.031162
-0.031487
-0.031893
-0.032386
-0.032973
-0.033663
-0.034467
-0.035400
-0.036477
-0.037720
-0.039152
-0.040802
-0.042707
-0.044909
-0.047463
-0.050435
-0.053909
-0.057990
-0.062814
-0.068554
-0.075442
-0.083781
-0.093987
-0.106631
-0.122518
-0.142796
-0.169093
-0.203586
-0.248796
-0.306775
-0.377592
-0.457784
-0.540068
-0.614880
-0.673094
-0.708357
-0.718364
-0.701970
-0.663332
-0.609719
-0.548659
-0.484272
-0.414318
-0.331826
-0.236891
-0.153180
-0.119326
-0.033455
-0.033568
-0.033748
-0.034008
-0.034352
-0.034785
-0.035314
-0.035945
-0.036690
-0.037559
-0.038569
-0.039737
-0.041084
-0.042636
-0.044424
-0.046486
-0.048868
-0.051625
-0.054828
-0.058564
-0.062943
-0.068104
-0.074228
-0.081549
-0.090379
-0.101136
-0.114389
-0.130932
-0.151875
-0.178763
-0.213633
-0.258800
-0.316180
-0.385975
-0.465162
-0.547173
-0.622836
-0.682635
-0.719491
-0.730413
-0.713748
-0.674022
-0.619360
-0.558570
-0.497464
-0.435126
-0.363391
-0.277704
-0.197239
-0.162380
-0.036240
-0.036350
-0.036534
-0.036802
-0.037159
-0.037612
-0.038168
-0.038834
-0.039622
-0.040544
-0.041616
-0.042858
-0.044291
-0.045941
-0.047842
-0.050032
-0.052558
-0.055478
-0.058862
-0.062799
-0.067401
-0.072806
-0.079193
-0.086796
-0.095918
-0.106961
-0.120468
-0.137183
-0.158111
-0.184637
-0.218552
-0.261763
-0.315881
-0.381311
-0.455839
-0.533771
-0.606786
-0.665999
-0.703406
-0.715169
-0.699595
-0.661114
-0.607834
-0.549130
-0.492322
-0.438015
-0.378467
-0.305966
-0.234166
-0.201154
-0.038971
-0.039080
-0.039264
-0.039535
-0.039899
-0.040364
-0.040936
-0.041626
-0.042444
-0.043404
-0.044524
-0.045821
-0.047318
-0.049045
-0.051032
-0.053318
-0.055952
-0.058991
-0.062504
-0.066580
-0.071326
-0.076879
-0.083410
-0.091141
-0.100358
-0.111432
-0.124856
-0.141311
-0.161630
-0.186914
-0.218608
-0.258414
-0.307717
-0.366901
-0.434174
-0.504783
-0.571430
-0.625822
-0.660336
-0.671205
-0.657440
-0.622737
-0.574622
-0.521473
-0.470339
-0.424070
-0.376637
-0.318825
-0.258888
-0.229837
-0.041643
-0.041749
-0.041931
-0.042200
-0.042563
-0.043030
-0.043608
-0.044309
-0.045143
-0.046126
-0.047275
-0.048608
-0.050150
-0.051927
-0.053972
-0.056324
-0.059028
-0.062142
-0.065732
-0.069884
-0.074699
-0.080306
-0.086866
-0.094581
-0.103713
-0.114594
-0.127615
-0.143319
-0.162450
-0.185893
-0.214770
-0.250361
-0.293764
-0.345275
-0.403456
-0.464434
-0.522063
-0.569080
-0.598647
-0.607341
-0.595170
-0.565085
-0.523342
-0.477297
-0.433499
-0.395674
-0.359437
-0.316079
-0.269274
-0.245468
-0.044251
-0.044354
-0.044531
-0.044791
-0.045145
-0.045603
-0.046175
-0.046873
-0.047709
-0.048698
-0.049858
-0.051207
-0.052771
-0.054574
-0.056649
-0.059034
-0.061773
-0.064919
-0.068537
-0.072705
-0.077518
-0.083094
-0.089580
-0.097149
-0.106005
-0.116440
-0.128801
-0.143521
-0.161157
-0.182387
-0.208033
-0.238996
-0.276035
-0.319296
-0.367606
-0.417889
-0.465190
-0.503514
-0.527162
-0.533239
-0.522349
-0.496853
-0.461756
-0.423153
-0.386741
-0.356438
-0.330000
-0.299772
-0.265852
-0.247785
-0.046792
-0.046894
-0.047061
-0.047305
-0.047640
-0.048078
-0.048630
-0.049310
-0.050131
-0.051109
-0.052261
-0.053607
-0.055170
-0.056975
-0.059054
-0.061442
-0.064180
-0.067319
-0.070918
-0.075049
-0.079797
-0.085265
-0.091562
-0.098853
-0.107318
-0.117183
-0.128723
-0.142269
-0.158226
-0.177076
-0.199370
-0.225682
-0.256451
-0.291655
-0.330313
-0.370036
-0.406993
-0.436516
-0.454164
-0.457611
-0.447638
-0.426142
-0.397050
-0.365256
-0.335495
-0.311214
-0.293035
-0.273549
-0.251075
-0.238547
-0.049268
-0.049368
-0.049522
-0.049742
-0.050047
-0.050450
-0.050968
-0.051614
-0.052404
-0.053352
-0.054478
-0.055800
-0.057340
-0.059125
-0.061181
-0.063543
-0.066250
-0.069346
-0.072885
-0.076933
-0.081550
-0.086831
-0.092880
-0.099823
-0.107807
-0.117006
-0.127627
-0.139910
-0.154130
-0.170600
-0.189649
-0.211588
-0.236594
-0.264499
-0.294460
-0.324652
-0.352223
-0.373717
-0.385876
-0.386910
-0.377521
-0.359240
-0.335119
-0.309025
-0.284832
-0.265628
-0.252548
-0.241494
-0.228387
-0.220687
-0.051683
-0.051781
-0.051917
-0.052104
-0.052365
-0.052720
-0.053186
-0.053781
-0.054521
-0.055421
-0.056501
-0.057780
-0.059278
-0.061019
-0.063030
-0.065342
-0.067988
-0.071012
-0.074457
-0.078367
-0.082814
-0.087870
-0.093620
-0.100162
-0.107611
-0.116096
-0.125762
-0.136771
-0.149294
-0.163510
-0.179579
-0.197614
-0.217604
-0.239278
-0.261902
-0.284091
-0.303782
-0.318525
-0.326045
-0.325029
-0.315996
-0.300186
-0.279963
-0.258349
-0.238466
-0.222993
-0.213255
-0.207797
-0.201527
-0.197564
-0.054044
-0.054142
-0.054254
-0.054396
-0.054598
-0.054886
-0.055283
-0.055808
-0.056478
-0.057312
-0.058328
-0.059544
-0.060980
-0.062658
-0.064604
-0.066843
-0.069407
-0.072331
-0.075644
-0.079398
-0.083645
-0.088445
-0.093865
-0.099979
-0.106871
-0.114631
-0.123355
-0.133140
-0.144078
-0.156247
-0.169687
-0.184379
-0.200190
-0.216791
-0.233544
-0.249399
-0.262889
-0.272329
-0.276198
-0.273580
-0.264809
-0.250891
-0.233659
-0.215460
-0.198783
-0.185898
-0.178194
-0.175906
-0.173872
-0.172365
-0.056365
-0.056463
-0.056543
-0.056627
-0.056751
-0.056953
-0.057259
-0.057693
-0.058274
-0.059022
-0.059955
-0.061090
-0.062448
-0.064046
-0.065908
-0.068058
-0.070522
-0.073320
-0.076488
-0.080066
-0.084095
-0.088623
-0.093698
-0.099376
-0.105715
-0.112772
-0.120603
-0.129258
-0.138767
-0.149138
-0.160335
-0.172256
-0.184701
-0.197325
-0.209577
-0.220657
-0.229527
-0.235048
-0.236238
-0.232501
-0.224009
-0.211596
-0.196686
-0.181107
-0.166833
-0.155755
-0.149160
-0.148174
-0.148034
-0.147691
-0.058665
-0.058764
-0.058803
-0.058809
-0.058834
-0.058924
-0.059115
-0.059435
-0.059906
-0.060549
-0.061381
-0.062420
-0.063683
-0.065188
-0.066953
-0.068999
-0.071346
-0.074008
-0.077020
-0.080412
-0.084215
-0.088465
-0.093198
-0.098451
-0.104261
-0.110660
-0.117674
-0.125314
-0.133573
-0.142411
-0.151744
-0.161427
-0.171235
-0.180832
-0.189750
-0.197372
-0.202959
-0.205744
-0.205101
-0.200724
-0.192589
-0.181450
-0.168420
-0.154931
-0.142553
-0.132845
-0.126860
-0.125829
-0.125684
-0.125330
-0.060970
-0.061072
-0.061056
-0.060960
-0.060856
-0.060805
-0.060853
-0.061034
-0.061374
-0.061892
-0.062607
-0.063535
-0.064691
-0.066090
-0.067748
-0.069681
-0.071902
-0.074423
-0.077275
-0.080477
-0.084056
-0.088034
-0.092438
-0.097290
-0.102610
-0.108411
-0.114696
-0.121453
-0.128644
-0.136204
-0.144024
-0.151942
-0.159728
-0.167077
-0.173591
-0.178794
-0.182149
-0.183138
-0.181366
-0.176692
-0.169040
-0.159053
-0.147623
-0.135890
-0.125121
-0.116594
-0.111068
-0.109126
-0.107540
-0.106150
-0.063321
-0.063426
-0.063334
-0.063104
-0.062834
-0.062605
-0.062477
-0.062491
-0.062674
-0.063049
-0.063632
-0.064436
-0.065475
-0.066761
-0.068305
-0.070121
-0.072213
-0.074593
-0.077284
-0.080301
-0.083663
-0.087385
-0.091482
-0.095967
-0.100846
-0.106118
-0.111770
-0.117773
-0.124075
-0.130594
-0.137211
-0.143763
-0.150031
-0.155742
-0.160567
-0.164127
-0.166030
-0.165915
-0.163538
-0.158849
-0.151776
-0.142864
-0.132840
-0.122638
-0.113302
-0.105890
-0.100896
-0.097564
-0.093426
-0.090032
-0.065772
-0.065879
-0.065682
-0.065272
-0.064785
-0.064332
-0.063989
-0.063803
-0.063806
-0.064019
-0.064456
-0.065127
-0.066043
-0.067210
-0.068638
-0.070336
-0.072301
-0.074543
-0.077079
-0.079922
-0.083081
-0.086567
-0.090387
-0.094544
-0.099036
-0.103851
-0.108967
-0.114344
-0.119921
-0.125609
-0.131289
-0.136803
-0.141953
-0.146498
-0.150162
-0.152644
-0.153648
-0.152917
-0.150293
-0.145778
-0.139360
-0.131452
-0.122675
-0.113812
-0.105749
-0.099383
-0.095058
-0.090111
-0.082309
-0.075701
-0.068405
-0.068510
-0.068161
-0.067503
-0.066731
-0.065994
-0.065388
-0.064967
-0.064765
-0.064799
-0.065079
-0.065611
-0.066399
-0.067448
-0.068761
-0.070343
-0.072189
-0.074299
-0.076691
-0.079372
-0.082348
-0.085622
-0.089198
-0.093070
-0.097232
-0.101664
-0.106337
-0.111205
-0.116204
-0.121245
-0.126211
-0.130956
-0.135300
-0.139035
-0.141926
-0.143731
-0.144217
-0.143197
-0.140564
-0.136332
-0.130626
-0.123624
-0.115932
-0.108210
-0.101215
-0.095706
-0.091986
-0.085412
-0.072169
-0.060211
-0.071345
-0.071437
-0.070858
-0.069849
-0.068694
-0.067596
-0.066670
-0.065977
-0.065544
-0.065384
-0.065500
-0.065891
-0.066553
-0.067486
-0.068688
-0.070160
-0.071898
-0.073886
-0.076147
-0.078684
-0.081497
-0.084588
-0.087954
-0.091587
-0.095474
-0.099592
-0.103909
-0.108376
-0.112927
-0.117477
-0.121915
-0.126106
-0.129889
-0.133079
-0.135480
-0.136889
-0.137120
-0.136027
-0.133536
-0.129671
-0.124587
-0.118442
-0.111671
-0.104880
-0.098698
-0.093675
-0.089608
-0.082003
-0.059388
-0.037543
-0.074790
-0.074840
-0.073893
-0.072371
-0.070696
-0.069136
-0.067825
-0.066818
-0.066134
-0.065771
-0.065720
-0.065971
-0.066512
-0.067335
-0.068434
-0.069806
-0.071446
-0.073326
-0.075472
-0.077883
-0.080558
-0.083495
-0.086687
-0.090124
-0.093790
-0.097661
-0.101702
-0.105863
-0.110081
-0.114273
-0.118335
-0.122144
-0.125554
-0.128402
-0.130517
-0.131728
-0.131879
-0.130854
-0.128592
-0.125119
-0.120563
-0.115162
-0.109190
-0.103105
-0.097476
-0.092564
-0.087261
-0.076134
-0.036636
0.004810
-0.079077
-0.079010
-0.077440
-0.075139
-0.072746
-0.070599
-0.068830
-0.067472
-0.066519
-0.065950
-0.065738
-0.065857
-0.066286
-0.067009
-0.068016
-0.069299
-0.070851
-0.072642
-0.074689
-0.076995
-0.079556
-0.082367
-0.085420
-0.088704
-0.092201
-0.095885
-0.099721
-0.103662
-0.107645
-0.111591
-0.115403
-0.118968
-0.122152
-0.124810
-0.126790
-0.127941
-0.128130
-0.127256
-0.125269
-0.122187
-0.118112
-0.113234
-0.107839
-0.102271
-0.096868
-0.091500
-0.082937
-0.060236
0.010549
0.093143
-0.084833
-0.084445
-0.081739
-0.078215
-0.074825
-0.071945
-0.069646
-0.067907
-0.066682
-0.065913
-0.065551
-0.065554
-0.065884
-0.066519
-0.067446
-0.068655
-0.070131
-0.071848
-0.073816
-0.076038
-0.078509
-0.081223
-0.084172
-0.087342
-0.090717
-0.094269
-0.097966
-0.101759
-0.105590
-0.109384
-0.113049
-0.116478
-0.119549
-0.122129
-0.124078
-0.125262
-0.125560
-0.124881
-0.123177
-0.120455
-0.116789
-0.112318
-0.107234
-0.101740
-0.095949
-0.089058
-0.072215
-0.017727
0.115240
0.283535
-0.093363
-0.092049
-0.087093
-0.081595
-0.076841
-0.073091
-0.070208
-0.068075
-0.066587
-0.065638
-0.065147
-0.065054
-0.065303
-0.065862
-0.066723
-0.067877
-0.069287
-0.070945
-0.072855
-0.075014
-0.077419
-0.080064
-0.082939
-0.086033
-0.089327
-0.092797
-0.096408
-0.100115
-0.103861
-0.107575
-0.111169
-0.114541
-0.117577
-0.120150
-0.122131
-0.123394
-0.123825
-0.123338
-0.121883
-0.119455
-0.116096
-0.111880
-0.106868
-0.100951
-0.093608
-0.082152
-0.045020
0.076247
0.359808
0.696551
-0.108034
-0.103688
-0.093768
-0.085079
-0.078535
-0.073859
-0.070354
-0.067813
-0.066086
-0.064984
-0.064390
-0.064235
-0.064419
-0.064922
-0.065739
-0.066840
-0.068206
-0.069826
-0.071699
-0.073820
-0.076185
-0.078790
-0.081624
-0.084676
-0.087928
-0.091355
-0.094924
-0.098591
-0.102300
-0.105980
-0.109549
-0.112907
-0.115943
-0.118537
-0.120563
-0.121901
-0.122442
-0.122101
-0.120822
-0.118587
-0.115395
-0.111223
-0.105889
-0.098612
-0.087570
-0.061202
0.028629
0.293637
0.873503
1.576553
-0.137808
-0.121682
-0.101688
-0.087410
-0.078365
-0.072832
-0.068596
-0.065893
-0.064045
-0.062875
-0.062251
-0.062076
-0.062272
-0.062802
-0.063644
-0.064769
-0.066161
-0.067807
-0.069704
-0.071848
-0.074233
-0.076855
-0.079704
-0.082769
-0.086032
-0.089467
-0.093042
-0.096713
-0.100425
-0.104108
-0.107680
-0.111044
-0.114092
-0.116705
-0.118763
-0.120149
-0.120755
-0.120498
-0.119315
-0.117162
-0.113958
-0.109474
-0.102881
-0.091834
-0.070004
0.002174
0.212853
0.751005
1.842312
3.241289
-0.241772
-0.104392
-0.073692
-0.063387
-0.058695
-0.056263
-0.054719
-0.053907
-0.053521
-0.053496
-0.053792
-0.054372
-0.055205
-0.056277
-0.057583
-0.059111
-0.060857
-0.062817
-0.064992
-0.067383
-0.069991
-0.072812
-0.075841
-0.079067
-0.082475
-0.086040
-0.089732
-0.093507
-0.097311
-0.101075
-0.104720
-0.108149
-0.111256
-0.113926
-0.116043
-0.117491
-0.118167
-0.117984
-0.116866
-0.114726
-0.111329
-0.105997
-0.096275
-0.074789
-0.014569
0.144264
0.539855
1.428841
3.098383
5.315232
