# vtk DataFile Version 3.0
Scalar Field
ASCII
DATASET RECTILINEAR_GRID
DIMENSIONS 50 50 1
X_COORDINATES 50 double
0.100000 0.300000 0.500000 0.700000 0.900000 1.100000 1.300000 1.500000 1.700000 1.900000 2.100000 2.300000 2.500000 2.700000 2.900000 3.100000 3.300000 3.500000 3.700000 3.900000 4.100000 4.300000 4.500000 4.700000 4.900000 5.100000 5.300000 5.500000 5.700000 5.900000 6.100000 6.300000 6.500000 6.700000 6.900000 7.100000 7.300000 7.500000 7.700000 7.900000 8.100000 8.300000 8.500000 8.700000 8.900000 9.100000 9.300000 9.500000 9.700000 9.900000 
Y_COORDINATES 50 double
0.100000 0.300000 0.500000 0.700000 0.900000 1.100000 1.300000 1.500000 1.700000 1.900000 2.100000 2.300000 2.500000 2.700000 2.900000 3.100000 3.300000 3.500000 3.700000 3.900000 4.100000 4.300000 4.500000 4.700000 4.900000 5.100000 5.300000 5.500000 5.700000 5.900000 6.100000 6.300000 6.500000 6.700000 6.900000 7.100000 7.300000 7.500000 7.700000 7.900000 8.100000 8.300000 8.500000 8.700000 8.900000 9.100000 9.300000 9.500000 9.700000 9.900000 
Z_COORDINATES 1 double
0.0
POINT_DATA 2500
SCALARS Skalarfeld double 1
LOOKUP_TABLE default
0.020654
0.020598
0.020633
0.020785
0.021059
0.021451
0.021960
0.022586
0.023331
0.024198
0.025191
0.026316
0.027578
0.028984
0.030540
0.032256
0.034140
0.036202
0.038452
0.040901
0.043561
0.046444
0.049559
0.052919
0.056530
0.060401
0.064531
0.068918
0.073551
0.078411
0.083468
0.088681
0.093995
0.099328
0.104596
0.109706
0.114556
0.119044
0.123076
0.126569
0.129467
0.131741
0.133393
0.134460
0.135005
0.135118
0.134908
0.134501
0.134045
0.133720
0.020709
0.020652
0.020705
0.020873
0.021155
0.021551
0.022061
0.022688
0.023433
0.024300
0.025293
0.026417
0.027678
0.029082
0.030637
0.032350
0.034230
0.036287
0.038530
0.040972
0.043623
0.046494
0.049597
0.052942
0.056538
0.060391
0.064504
0.068873
0.073489
0.078334
0.083378
0.088582
0.093882
0.099208
0.104474
0.109584
0.114435
0.118921
0.122945
0.126424
0.129300
0.131542
0.133155
0.134180
0.134685
0.134766
0.134542
0.134143
0.133716
0.133396
0.020652
0.020578
0.020634
0.020809
0.021095
0.021493
0.022003
0.022627
0.023369
0.024231
0.025217
0.026334
0.027586
0.028980
0.030523
0.032223
0.034088
0.036128
0.038353
0.040774
0.043402
0.046250
0.049328
0.052648
0.056220
0.060051
0.064146
0.068503
0.073116
0.077967
0.083030
0.088264
0.093607
0.098990
0.104326
0.109512
0.114437
0.118990
0.123064
0.126568
0.129438
0.131641
0.133186
0.134118
0.134519
0.134499
0.134185
0.133719
0.133243
0.132879
0.020426
0.020337
0.020391
0.020566
0.020853
0.021248
0.021754
0.022371
0.023104
0.023955
0.024929
0.026031
0.027266
0.028641
0.030163
0.031838
0.033677
0.035688
0.037882
0.040269
0.042862
0.045674
0.048716
0.052002
0.055542
0.059348
0.063426
0.067778
0.072401
0.077281
0.082395
0.087703
0.093144
0.098647
0.104118
0.109448
0.114515
0.119195
0.123365
0.126923
0.129793
0.131941
0.133378
0.134162
0.134394
0.134204
0.133739
0.133152
0.132593
0.132186
0.020001
0.019904
0.019954
0.020125
0.020407
0.020796
0.021292
0.021898
0.022616
0.023450
0.024404
0.025484
0.026694
0.028040
0.029530
0.031172
0.032973
0.034943
0.037094
0.039436
0.041982
0.044746
0.047743
0.050986
0.054490
0.058268
0.062331
0.066687
0.071335
0.076267
0.081464
0.086889
0.092480
0.098161
0.103833
0.109375
0.114650
0.119515
0.123827
0.127465
0.130338
0.132406
0.133686
0.134255
0.134241
0.133806
0.133127
0.132375
0.131711
0.131267
0.019367
0.019264
0.019309
0.019474
0.019748
0.020126
0.020608
0.021196
0.021894
0.022705
0.023632
0.024681
0.025857
0.027166
0.028615
0.030211
0.031963
0.033881
0.035977
0.038262
0.040750
0.043456
0.046397
0.049589
0.053050
0.056798
0.060847
0.065211
0.069896
0.074899
0.080206
0.085786
0.091575
0.097493
0.103431
0.109256
0.114810
0.119925
0.124432
0.128180
0.131059
0.133019
0.134084
0.134357
0.134006
0.133240
0.132276
0.131312
0.130522
0.130043
0.018518
0.018413
0.018452
0.018609
0.018871
0.019233
0.019697
0.020263
0.020935
0.021715
0.022608
0.023619
0.024752
0.026013
0.027410
0.028950
0.030642
0.032496
0.034524
0.036739
0.039156
0.041792
0.044664
0.047794
0.051203
0.054912
0.058942
0.063313
0.068038
0.073122
0.078559
0.084323
0.090354
0.096563
0.102835
0.109019
0.114933
0.120377
0.125143
0.129044
0.131937
0.133758
0.134539
0.134419
0.133622
0.132423
0.131095
0.129869
0.128930
0.128421
0.017457
0.017350
0.017384
0.017530
0.017777
0.018120
0.018560
0.019099
0.019738
0.020482
0.021333
0.022296
0.023377
0.024582
0.025916
0.027388
0.029007
0.030784
0.032730
0.034860
0.037191
0.039739
0.042527
0.045578
0.048917
0.052571
0.056568
0.060933
0.065689
0.070851
0.076422
0.082386
0.088693
0.095245
0.101918
0.108544
0.114911
0.120778
0.125887
0.129997
0.132923
0.134575
0.134994
0.134364
0.132989
0.131236
0.129456
0.127920
0.126814
0.126277
0.016189
0.016080
0.016107
0.016240
0.016469
0.016790
0.017202
0.017708
0.018309
0.019008
0.019809
0.020717
0.021736
0.022873
0.024132
0.025524
0.027056
0.028740
0.030588
0.032616
0.034840
0.037281
0.039961
0.042909
0.046153
0.049725
0.053660
0.057992
0.062754
0.067972
0.073662
0.079821
0.086423
0.093356
0.100492
0.107643
0.114565
0.120965
0.126521
0.130920
0.133910
0.135365
0.135330
0.134051
0.131941
0.129495
0.127177
0.125292
0.124027
0.123458
0.014719
0.014609
0.014627
0.014747
0.014955
0.015249
0.015629
0.016096
0.016652
0.017300
0.018044
0.018887
0.019834
0.020890
0.022063
0.023359
0.024789
0.026363
0.028093
0.029996
0.032090
0.034396
0.036939
0.039750
0.042862
0.046311
0.050141
0.054394
0.059113
0.064340
0.070105
0.076425
0.083309
0.090638
0.098279
0.106031
0.113611
0.120667
0.126792
0.131579
0.134683
0.135915
0.135322
0.133231
0.130202
0.126909
0.123996
0.121786
0.120348
0.119772
0.013056
0.012945
0.012954
0.013056
0.013241
0.013506
0.013848
0.014271
0.014776
0.015366
0.016043
0.016811
0.017675
0.018640
0.019711
0.020897
0.022206
0.023650
0.025240
0.026992
0.028926
0.031064
0.033432
0.036062
0.038992
0.042263
0.045924
0.050027
0.054628
0.059783
0.065542
0.071942
0.079038
0.086732
0.094883
0.103277
0.111598
0.119424
0.126253
0.131550
0.134844
0.135848
0.134590
0.131497
0.127346
0.123062
0.119587
0.117056
0.115526
0.115003
0.011209
0.011096
0.011095
0.011179
0.011338
0.011568
0.011869
0.012243
0.012690
0.013213
0.013815
0.014499
0.015268
0.016128
0.017084
0.018142
0.019311
0.020602
0.022026
0.023598
0.025337
0.027266
0.029411
0.031807
0.034490
0.037508
0.040915
0.044770
0.049141
0.054099
0.059717
0.066062
0.073190
0.081151
0.089737
0.098740
0.107816
0.116482
0.124131
0.130089
0.133714
0.134566
0.132599
0.128330
0.122835
0.117502
0.113405
0.110734
0.109303
0.108950
0.009188
0.009074
0.009061
0.009125
0.009255
0.009448
0.009703
0.010022
0.010405
0.010854
0.011372
0.011961
0.012624
0.013365
0.014189
0.015102
0.016110
0.017223
0.018451
0.019809
0.021314
0.022987
0.024854
0.026947
0.029306
0.031978
0.035018
0.038494
0.042480
0.047063
0.052333
0.058382
0.065288
0.073247
0.082043
0.091463
0.101149
0.110585
0.119091
0.125869
0.130096
0.131111
0.128679
0.123290
0.116327
0.109790
0.105076
0.102532
0.101498
0.101481
0.007005
0.006889
0.006864
0.006906
0.007005
0.007157
0.007361
0.007620
0.007933
0.008301
0.008726
0.009210
0.009755
0.010364
0.011040
0.011787
0.012612
0.013520
0.014523
0.015629
0.016855
0.018219
0.019743
0.021457
0.023397
0.025607
0.028143
0.031071
0.034471
0.038434
0.043064
0.048473
0.054770
0.062127
0.070675
0.080025
0.089849
0.099666
0.108825
0.116502
0.121749
0.123662
0.121669
0.115961
0.107914
0.100094
0.094932
0.092536
0.092192
0.092659
0.004672
0.004556
0.004517
0.004535
0.004600
0.004707
0.004858
0.005051
0.005288
0.005567
0.005892
0.006261
0.006676
0.007138
0.007649
0.008213
0.008831
0.009508
0.010251
0.011067
0.011966
0.012962
0.014073
0.015320
0.016733
0.018348
0.020213
0.022387
0.024941
0.027964
0.031557
0.035831
0.040891
0.046810
0.054085
0.062371
0.071285
0.080516
0.089647
0.098038
0.104784
0.108794
0.109057
0.105130
0.097799
0.089574
0.084008
0.081617
0.081972
0.082867
0.002204
0.002086
0.002034
0.002026
0.002054
0.002115
0.002207
0.002331
0.002485
0.002670
0.002885
0.003130
0.003404
0.003707
0.004038
0.004398
0.004787
0.005206
0.005656
0.006140
0.006663
0.007231
0.007851
0.008536
0.009302
0.010172
0.011174
0.012348
0.013742
0.015421
0.017455
0.019920
0.022871
0.026328
0.030270
0.035749
0.041957
0.048903
0.056747
0.065322
0.073970
0.081535
0.086563
0.087761
0.084749
0.078913
0.073606
0.071767
0.071700
0.072724
-0.000386
-0.000506
-0.000572
-0.000606
-0.000616
-0.000605
-0.000574
-0.000524
-0.000456
-0.000372
-0.000274
-0.000162
-0.000039
0.000092
0.000228
0.000367
0.000505
0.000639
0.000765
0.000878
0.000975
0.001052
0.001104
0.001129
0.001122
0.001082
0.001008
0.000901
0.000766
0.000604
0.000410
0.000151
-0.000246
-0.000876
-0.001767
-0.002730
-0.001662
0.000823
0.005828
0.013867
0.024651
0.037066
0.049326
0.059317
0.065224
0.066471
0.064710
0.063524
0.062283
0.062828
-0.003082
-0.003203
-0.003285
-0.003346
-0.003395
-0.003436
-0.003469
-0.003496
-0.003519
-0.003541
-0.003564
-0.003593
-0.003630
-0.003682
-0.003753
-0.003851
-0.003983
-0.004158
-0.004387
-0.004681
-0.005056
-0.005529
-0.006120
-0.006854
-0.007761
-0.008879
-0.010254
-0.011944
-0.014028
-0.016615
-0.019872
-0.024043
-0.029440
-0.036308
-0.044546
-0.053406
-0.061327
-0.065359
-0.064539
-0.057697
-0.044805
-0.026882
-0.005847
0.015644
0.034516
0.047941
0.054554
0.055831
0.054370
0.053251
-0.005869
-0.005991
-0.006088
-0.006177
-0.006267
-0.006360
-0.006459
-0.006565
-0.006682
-0.006814
-0.006964
-0.007138
-0.007342
-0.007585
-0.007874
-0.008222
-0.008640
-0.009143
-0.009751
-0.010485
-0.011373
-0.012447
-0.013750
-0.015332
-0.017259
-0.019616
-0.022514
-0.026100
-0.030579
-0.036246
-0.043531
-0.053017
-0.065321
-0.080754
-0.098801
-0.117793
-0.135165
-0.147436
-0.151612
-0.146390
-0.131685
-0.108468
-0.078604
-0.044858
-0.011005
0.018242
0.038143
0.046521
0.047674
0.042323
-0.008731
-0.008853
-0.008965
-0.009082
-0.009212
-0.009359
-0.009525
-0.009712
-0.009924
-0.010167
-0.010447
-0.010770
-0.011146
-0.011585
-0.012100
-0.012706
-0.013421
-0.014268
-0.015274
-0.016472
-0.017904
-0.019621
-0.021689
-0.024193
-0.027241
-0.030978
-0.035598
-0.041369
-0.048676
-0.058077
-0.070369
-0.086542
-0.107487
-0.133355
-0.162853
-0.193056
-0.220060
-0.240134
-0.249159
-0.245538
-0.229403
-0.201813
-0.164499
-0.119925
-0.071793
-0.025769
0.010545
0.030291
0.033538
0.023148
-0.011650
-0.011773
-0.011898
-0.012043
-0.012215
-0.012415
-0.012647
-0.012915
-0.013223
-0.013578
-0.013987
-0.014461
-0.015010
-0.015648
-0.016392
-0.017261
-0.018280
-0.019478
-0.020892
-0.022568
-0.024563
-0.026948
-0.029818
-0.033292
-0.037531
-0.042749
-0.049241
-0.057425
-0.067910
-0.081581
-0.099653
-0.123519
-0.154200
-0.191415
-0.232812
-0.274082
-0.310105
-0.336443
-0.349312
-0.346792
-0.329443
-0.298612
-0.256009
-0.203614
-0.144348
-0.083677
-0.031184
0.000604
0.004441
-0.005219
-0.014610
-0.014733
-0.014872
-0.015044
-0.015255
-0.015508
-0.015805
-0.016152
-0.016554
-0.017020
-0.017559
-0.018181
-0.018902
-0.019738
-0.020709
-0.021841
-0.023162
-0.024712
-0.026535
-0.028691
-0.031253
-0.034313
-0.037995
-0.042458
-0.047914
-0.054657
-0.063092
-0.073804
-0.087650
-0.105862
-0.130064
-0.161969
-0.202559
-0.250913
-0.303505
-0.354696
-0.398324
-0.429413
-0.444750
-0.442562
-0.423895
-0.390603
-0.344709
-0.287885
-0.221873
-0.150629
-0.083645
-0.036855
-0.022754
-0.024385
-0.017594
-0.017717
-0.017869
-0.018067
-0.018316
-0.018618
-0.018979
-0.019402
-0.019896
-0.020469
-0.021133
-0.021900
-0.022788
-0.023816
-0.025009
-0.026396
-0.028013
-0.029906
-0.032129
-0.034753
-0.037869
-0.041589
-0.046065
-0.051494
-0.058143
-0.066381
-0.076725
-0.089925
-0.107075
-0.129726
-0.159845
-0.199356
-0.249073
-0.307387
-0.369674
-0.429151
-0.478832
-0.513417
-0.530179
-0.527650
-0.507293
-0.471665
-0.423571
-0.364913
-0.296339
-0.219217
-0.140183
-0.074702
-0.040166
-0.032617
-0.020588
-0.020709
-0.020873
-0.021095
-0.021379
-0.021728
-0.022148
-0.022644
-0.023224
-0.023899
-0.024681
-0.025587
-0.026634
-0.027845
-0.029249
-0.030879
-0.032777
-0.034995
-0.037597
-0.040665
-0.044303
-0.048644
-0.053864
-0.060196
-0.067956
-0.077577
-0.089677
-0.105145
-0.125271
-0.151849
-0.187090
-0.233025
-0.290276
-0.356660
-0.426705
-0.492767
-0.547246
-0.584585
-0.602438
-0.599264
-0.576816
-0.538471
-0.488267
-0.429033
-0.360991
-0.282777
-0.196514
-0.114649
-0.059434
-0.042957
-0.023574
-0.023694
-0.023869
-0.024111
-0.024427
-0.024819
-0.025294
-0.025856
-0.026516
-0.027285
-0.028178
-0.029211
-0.030406
-0.031787
-0.033387
-0.035242
-0.037399
-0.039916
-0.042866
-0.046338
-0.050449
-0.055350
-0.061236
-0.068367
-0.077097
-0.087912
-0.101500
-0.118845
-0.141363
-0.170989
-0.210056
-0.260629
-0.323202
-0.395274
-0.470902
-0.541938
-0.600345
-0.640249
-0.659353
-0.655626
-0.630935
-0.589503
-0.536844
-0.477267
-0.411517
-0.336381
-0.249347
-0.158401
-0.088430
-0.064321
-0.026540
-0.026657
-0.026840
-0.027101
-0.027444
-0.027875
-0.028397
-0.029019
-0.029751
-0.030604
-0.031596
-0.032744
-0.034072
-0.035607
-0.037382
-0.039438
-0.041827
-0.044610
-0.047865
-0.051691
-0.056212
-0.061590
-0.068036
-0.075827
-0.085341
-0.097093
-0.111806
-0.130506
-0.154643
-0.186179
-0.227437
-0.280454
-0.345704
-0.420693
-0.499470
-0.573773
-0.635293
-0.677684
-0.698300
-0.694368
-0.667742
-0.623426
-0.568377
-0.508503
-0.445806
-0.376605
-0.294746
-0.203109
-0.126031
-0.096742
-0.029470
-0.029585
-0.029775
-0.030050
-0.030416
-0.030878
-0.031441
-0.032114
-0.032907
-0.033834
-0.034912
-0.036160
-0.037603
-0.039271
-0.041198
-0.043428
-0.046014
-0.049023
-0.052534
-0.056652
-0.061507
-0.067265
-0.074145
-0.082432
-0.092510
-0.104899
-0.120319
-0.139777
-0.164672
-0.196866
-0.238549
-0.291636
-0.356655
-0.431448
-0.510530
-0.585952
-0.649323
-0.693734
-0.715732
-0.712062
-0.684387
-0.638311
-0.581928
-0.522414
-0.463209
-0.401418
-0.328838
-0.243543
-0.166654
-0.135106
-0.032354
-0.032466
-0.032660
-0.032945
-0.033328
-0.033815
-0.034410
-0.035123
-0.035966
-0.036953
-0.038102
-0.039433
-0.040972
-0.042750
-0.044802
-0.047174
-0.049921
-0.053109
-0.056822
-0.061165
-0.066268
-0.072300
-0.079477
-0.088081
-0.098488
-0.111197
-0.126892
-0.146512
-0.171319
-0.202975
-0.243420
-0.294278
-0.356102
-0.427347
-0.503431
-0.577158
-0.640319
-0.685544
-0.708099
-0.705373
-0.678241
-0.632371
-0.576698
-0.519061
-0.463979
-0.410117
-0.348856
-0.274565
-0.203617
-0.172568
-0.035182
-0.035290
-0.035485
-0.035776
-0.036170
-0.036672
-0.037290
-0.038032
-0.038912
-0.039945
-0.041147
-0.042543
-0.044156
-0.046018
-0.048167
-0.050647
-0.053514
-0.056834
-0.060691
-0.065187
-0.070450
-0.076645
-0.083980
-0.092722
-0.103225
-0.115950
-0.131513
-0.150768
-0.174753
-0.204797
-0.242499
-0.289428
-0.346173
-0.411509
-0.481574
-0.550032
-0.609335
-0.652341
-0.673343
-0.671422
-0.646771
-0.604903
-0.553103
-0.499345
-0.449150
-0.403245
-0.353721
-0.292720
-0.231493
-0.203155
-0.037943
-0.038048
-0.038242
-0.038533
-0.038930
-0.039439
-0.040068
-0.040827
-0.041730
-0.042792
-0.044031
-0.045470
-0.047134
-0.049055
-0.051270
-0.053823
-0.056769
-0.060172
-0.064114
-0.068692
-0.074029
-0.080280
-0.087638
-0.096348
-0.106737
-0.119205
-0.134246
-0.152544
-0.175018
-0.202743
-0.236987
-0.278967
-0.329224
-0.386811
-0.448574
-0.509138
-0.561822
-0.599993
-0.618211
-0.616215
-0.594410
-0.557332
-0.511608
-0.464196
-0.420593
-0.382519
-0.344111
-0.296820
-0.247225
-0.223092
-0.040634
-0.040735
-0.040924
-0.041209
-0.041601
-0.042106
-0.042735
-0.043497
-0.044408
-0.045482
-0.046738
-0.048200
-0.049891
-0.051845
-0.054095
-0.056687
-0.059670
-0.063109
-0.067079
-0.071671
-0.077001
-0.083208
-0.090471
-0.098992
-0.109031
-0.120948
-0.135168
-0.152232
-0.172831
-0.197797
-0.228072
-0.264537
-0.307579
-0.356439
-0.408599
-0.459669
-0.504018
-0.535895
-0.550612
-0.548141
-0.529215
-0.497483
-0.458463
-0.418050
-0.381217
-0.350708
-0.322228
-0.287796
-0.250212
-0.231054
-0.043248
-0.043346
-0.043527
-0.043800
-0.044177
-0.044667
-0.045282
-0.046033
-0.046935
-0.048003
-0.049258
-0.050720
-0.052416
-0.054375
-0.056632
-0.059228
-0.062211
-0.065641
-0.069586
-0.074132
-0.079382
-0.085449
-0.092477
-0.100664
-0.110225
-0.121440
-0.134645
-0.150254
-0.168771
-0.190784
-0.216937
-0.247800
-0.283571
-0.323601
-0.365914
-0.407056
-0.442521
-0.467642
-0.478660
-0.475543
-0.459196
-0.432518
-0.399937
-0.366312
-0.335955
-0.311657
-0.291413
-0.268189
-0.241829
-0.227766
-0.045786
-0.045880
-0.046049
-0.046303
-0.046655
-0.047117
-0.047704
-0.048428
-0.049304
-0.050349
-0.051582
-0.053024
-0.054701
-0.056640
-0.058875
-0.061444
-0.064392
-0.067772
-0.071647
-0.076088
-0.081175
-0.087023
-0.093753
-0.101517
-0.110493
-0.120895
-0.132975
-0.147031
-0.163405
-0.182480
-0.204646
-0.230207
-0.259186
-0.290996
-0.324098
-0.355865
-0.382862
-0.401519
-0.408998
-0.405164
-0.390935
-0.368592
-0.341621
-0.313934
-0.289127
-0.269686
-0.255905
-0.241535
-0.224733
-0.215340
-0.048248
-0.048340
-0.048492
-0.048718
-0.049033
-0.049454
-0.049997
-0.050676
-0.051509
-0.052511
-0.053703
-0.055105
-0.056740
-0.058636
-0.060824
-0.063338
-0.066218
-0.069514
-0.073269
-0.077553
-0.082441
-0.088019
-0.094390
-0.101671
-0.110000
-0.119534
-0.130452
-0.142950
-0.157244
-0.173551
-0.192063
-0.212881
-0.235887
-0.260537
-0.285633
-0.309230
-0.328815
-0.341792
-0.346130
-0.341597
-0.329014
-0.310171
-0.287782
-0.264950
-0.244636
-0.229105
-0.219187
-0.211432
-0.202097
-0.196571
-0.050640
-0.050729
-0.050861
-0.051048
-0.051313
-0.051677
-0.052158
-0.052776
-0.053546
-0.054487
-0.055618
-0.056960
-0.058534
-0.060365
-0.062482
-0.064917
-0.067704
-0.070876
-0.074485
-0.078584
-0.083236
-0.088509
-0.094485
-0.101251
-0.108909
-0.117568
-0.127343
-0.138354
-0.150716
-0.164522
-0.179824
-0.196581
-0.214584
-0.233325
-0.251871
-0.268801
-0.282335
-0.290663
-0.292405
-0.287274
-0.275955
-0.259849
-0.241056
-0.222016
-0.205130
-0.192404
-0.184832
-0.181289
-0.177092
-0.174378
-0.052970
-0.053057
-0.053162
-0.053299
-0.053498
-0.053787
-0.054189
-0.054725
-0.055414
-0.056274
-0.057326
-0.058588
-0.060082
-0.061830
-0.063858
-0.066193
-0.068858
-0.071891
-0.075332
-0.079225
-0.083619
-0.088569
-0.094133
-0.100378
-0.107371
-0.115183
-0.123881
-0.133524
-0.144152
-0.155775
-0.168351
-0.181754
-0.195722
-0.209795
-0.223238
-0.235018
-0.243901
-0.248663
-0.248411
-0.242853
-0.232540
-0.218571
-0.202569
-0.186442
-0.172119
-0.161327
-0.155085
-0.153713
-0.152412
-0.151368
-0.055252
-0.055339
-0.055409
-0.055482
-0.055596
-0.055788
-0.056089
-0.056522
-0.057110
-0.057871
-0.058826
-0.059992
-0.061389
-0.063038
-0.064962
-0.067178
-0.069709
-0.072589
-0.075849
-0.079523
-0.083650
-0.088270
-0.093426
-0.099162
-0.105522
-0.112543
-0.120257
-0.128677
-0.137795
-0.147564
-0.157889
-0.168595
-0.179409
-0.189919
-0.199541
-0.207524
-0.213016
-0.215208
-0.213542
-0.207771
-0.198325
-0.186071
-0.172273
-0.158423
-0.146066
-0.136655
-0.131107
-0.130359
-0.130029
-0.129560
-0.057506
-0.057594
-0.057619
-0.057609
-0.057615
-0.057686
-0.057861
-0.058170
-0.058635
-0.059278
-0.060118
-0.061173
-0.062460
-0.063998
-0.065804
-0.067890
-0.070280
-0.072999
-0.076071
-0.079523
-0.083384
-0.087682
-0.092446
-0.097703
-0.103476
-0.109780
-0.116618
-0.123975
-0.131809
-0.140041
-0.148546
-0.157135
-0.165541
-0.173403
-0.180257
-0.185549
-0.188687
-0.189140
-0.186575
-0.180806
-0.172167
-0.161354
-0.149361
-0.137367
-0.126614
-0.118307
-0.113141
-0.111976
-0.111104
-0.110247
-0.059760
-0.059849
-0.059816
-0.059699
-0.059568
-0.059488
-0.059509
-0.059667
-0.059988
-0.060495
-0.061205
-0.062136
-0.063302
-0.064718
-0.066400
-0.068352
-0.070595
-0.073151
-0.076036
-0.079271
-0.082875
-0.086868
-0.091266
-0.096084
-0.101328
-0.106998
-0.113076
-0.119528
-0.126294
-0.133277
-0.140341
-0.147298
-0.153902
-0.159840
-0.164743
-0.168193
-0.169774
-0.169135
-0.166082
-0.160510
-0.152657
-0.143101
-0.132642
-0.122231
-0.112879
-0.105578
-0.100739
-0.098539
-0.096002
-0.093924
-0.062053
-0.062145
-0.062034
-0.061776
-0.061469
-0.061202
-0.061036
-0.061016
-0.061170
-0.061522
-0.062088
-0.062884
-0.063920
-0.065210
-0.066765
-0.068581
-0.070679
-0.073074
-0.075779
-0.078807
-0.082172
-0.085883
-0.089949
-0.094374
-0.099154
-0.104275
-0.109708
-0.115408
-0.121301
-0.127288
-0.133232
-0.138954
-0.144232
-0.148801
-0.152362
-0.154595
-0.155200
-0.153938
-0.150696
-0.145492
-0.138398
-0.129962
-0.120839
-0.111810
-0.103720
-0.097390
-0.093018
-0.089427
-0.084348
-0.080232
-0.064442
-0.064536
-0.064316
-0.063871
-0.063339
-0.062836
-0.062445
-0.062214
-0.062178
-0.062358
-0.062769
-0.063421
-0.064324
-0.065485
-0.066912
-0.068598
-0.070556
-0.072798
-0.075334
-0.078171
-0.081316
-0.084774
-0.088547
-0.092629
-0.097010
-0.101668
-0.106566
-0.111651
-0.116849
-0.122057
-0.127144
-0.131948
-0.136270
-0.139886
-0.142549
-0.144012
-0.144049
-0.142496
-0.139290
-0.134510
-0.128160
-0.120731
-0.112771
-0.104942
-0.097969
-0.092548
-0.088790
-0.083650
-0.075043
-0.067780
-0.067008
-0.067100
-0.066725
-0.066024
-0.065197
-0.064400
-0.063735
-0.063260
-0.063010
-0.063002
-0.063248
-0.063754
-0.064522
-0.065556
-0.066859
-0.068423
-0.070248
-0.072349
-0.074730
-0.077395
-0.080346
-0.083583
-0.087101
-0.090892
-0.094939
-0.099215
-0.103678
-0.108275
-0.112928
-0.117541
-0.121989
-0.126125
-0.129775
-0.132745
-0.134832
-0.135836
-0.135584
-0.133958
-0.130923
-0.126557
-0.120962
-0.114422
-0.107457
-0.100636
-0.094582
-0.089884
-0.086665
-0.079967
-0.066102
-0.053607
-0.069877
-0.069955
-0.069346
-0.068286
-0.067066
-0.065897
-0.064903
-0.064146
-0.063659
-0.063452
-0.063528
-0.063886
-0.064522
-0.065434
-0.066621
-0.068074
-0.069778
-0.071751
-0.073995
-0.076509
-0.079292
-0.082341
-0.085646
-0.089197
-0.092971
-0.096940
-0.101061
-0.105279
-0.109519
-0.113689
-0.117674
-0.121340
-0.124533
-0.127085
-0.128825
-0.129588
-0.129235
-0.127676
-0.124891
-0.120949
-0.116026
-0.110280
-0.104139
-0.098121
-0.092741
-0.088405
-0.084773
-0.077056
-0.053997
-0.031741
-0.073245
-0.073282
-0.072300
-0.070718
-0.068967
-0.067326
-0.065938
-0.064862
-0.064117
-0.063702
-0.063609
-0.063823
-0.064335
-0.065134
-0.066214
-0.067569
-0.069166
-0.071028
-0.073154
-0.075540
-0.078183
-0.081076
-0.084208
-0.087566
-0.091126
-0.094857
-0.098718
-0.102653
-0.106592
-0.110446
-0.114110
-0.117461
-0.120363
-0.122667
-0.124225
-0.124897
-0.124568
-0.123164
-0.120670
-0.117147
-0.112740
-0.107689
-0.102252
-0.096825
-0.091870
-0.087527
-0.082527
-0.071367
-0.031517
0.010243
-0.077452
-0.077371
-0.075761
-0.073390
-0.070909
-0.068672
-0.066818
-0.065386
-0.064370
-0.063748
-0.063491
-0.063573
-0.063971
-0.064669
-0.065656
-0.066922
-0.068434
-0.070201
-0.072228
-0.074510
-0.077039
-0.079809
-0.082806
-0.086016
-0.089415
-0.092972
-0.096645
-0.100381
-0.104112
-0.107756
-0.111214
-0.114375
-0.117113
-0.119295
-0.120790
-0.121476
-0.121251
-0.120052
-0.117864
-0.114735
-0.110783
-0.106200
-0.101243
-0.096213
-0.091388
-0.086501
-0.078140
-0.055332
0.015732
0.098572
-0.083122
-0.082721
-0.079968
-0.076361
-0.072872
-0.069894
-0.067505
-0.065690
-0.064401
-0.063581
-0.063176
-0.063142
-0.063442
-0.064053
-0.064962
-0.066153
-0.067595
-0.069287
-0.071236
-0.073436
-0.075878
-0.078555
-0.081453
-0.084557
-0.087843
-0.091281
-0.094829
-0.098437
-0.102041
-0.105561
-0.108906
-0.111971
-0.114640
-0.116792
-0.118307
-0.119072
-0.118996
-0.118020
-0.116126
-0.113348
-0.109774
-0.105543
-0.100827
-0.095790
-0.090466
-0.083957
-0.067200
-0.012487
0.120790
0.289262
-0.091563
-0.090239
-0.085226
-0.079630
-0.074765
-0.070911
-0.067938
-0.065729
-0.064180
-0.063182
-0.062653
-0.062528
-0.062746
-0.063282
-0.064131
-0.065267
-0.066647
-0.068286
-0.070179
-0.072319
-0.074699
-0.077312
-0.080143
-0.083178
-0.086393
-0.089758
-0.093235
-0.096773
-0.100311
-0.103773
-0.107072
-0.110108
-0.112772
-0.114949
-0.116526
-0.117398
-0.117479
-0.116708
-0.115064
-0.112565
-0.109266
-0.105244
-0.100542
-0.095012
-0.088063
-0.076847
-0.039633
0.082012
0.365929
0.702820
-0.106151
-0.101803
-0.091809
-0.083000
-0.076334
-0.071552
-0.067959
-0.065346
-0.063564
-0.062419
-0.061792
-0.061616
-0.061763
-0.062254
-0.063055
-0.064140
-0.065487
-0.067092
-0.068949
-0.071054
-0.073400
-0.075976
-0.078773
-0.081772
-0.084952
-0.088284
-0.091728
-0.095237
-0.098750
-0.102194
-0.105484
-0.108524
-0.111208
-0.113425
-0.115066
-0.116031
-0.116233
-0.115614
-0.114145
-0.111827
-0.108674
-0.104661
-0.099590
-0.092636
-0.081893
-0.055596
0.034509
0.300038
0.880272
1.583386
-0.135876
-0.119765
-0.099663
-0.085234
-0.076055
-0.070422
-0.066100
-0.063338
-0.061439
-0.060231
-0.059578
-0.059380
-0.059553
-0.060072
-0.060900
-0.062013
-0.063390
-0.065024
-0.066909
-0.069038
-0.071406
-0.074003
-0.076817
-0.079832
-0.083027
-0.086371
-0.089826
-0.093345
-0.096868
-0.100322
-0.103624
-0.106680
-0.109387
-0.111636
-0.113322
-0.114345
-0.114624
-0.114097
-0.112725
-0.110485
-0.107307
-0.102958
-0.096588
-0.085795
-0.064135
0.008115
0.219192
0.757889
1.849475
3.248350
-0.239907
-0.102529
-0.071685
-0.061198
-0.056355
-0.053811
-0.052185
-0.051315
-0.050880
-0.050819
-0.051088
-0.051646
-0.052459
-0.053520
-0.054814
-0.056332
-0.058065
-0.060013
-0.062177
-0.064555
-0.067145
-0.069941
-0.072935
-0.076112
-0.079452
-0.082927
-0.086500
-0.090124
-0.093741
-0.097279
-0.100658
-0.103783
-0.106556
-0.108870
-0.110623
-0.111719
-0.112076
-0.111631
-0.110330
-0.108103
-0.104724
-0.099512
-0.089979
-0.068689
-0.008554
0.150410
0.546368
1.435768
3.105417
5.321999
