# vtk DataFile Version 3.0
Vector Field
ASCII
DATASET RECTILINEAR_GRID
DIMENSIONS 50 50 1
X_COORDINATES 50 double
0.100000 0.300000 0.500000 0.700000 0.900000 1.100000 1.300000 1.500000 1.700000 1.900000 2.100000 2.300000 2.500000 2.700000 2.900000 3.100000 3.300000 3.500000 3.700000 3.900000 4.100000 4.300000 4.500000 4.700000 4.900000 5.100000 5.300000 5.500000 5.700000 5.900000 6.100000 6.300000 6.500000 6.700000 6.900000 7.100000 7.300000 7.500000 7.700000 7.900000 8.100000 8.300000 8.500000 8.700000 8.900000 9.100000 9.300000 9.500000 9.700000 9.900000 
Y_COORDINATES 50 double
0.100000 0.300000 0.500000 0.700000 0.900000 1.100000 1.300000 1.500000 1.700000 1.900000 2.100000 2.300000 2.500000 2.700000 2.900000 3.100000 3.300000 3.500000 3.700000 3.900000 4.100000 4.300000 4.500000 4.700000 4.900000 5.100000 5.300000 5.500000 5.700000 5.900000 6.100000 6.300000 6.500000 6.700000 6.900000 7.100000 7.300000 7.500000 7.700000 7.900000 8.100000 8.300000 8.500000 8.700000 8.900000 9.100000 9.300000 9.500000 9.700000 9.900000 
Z_COORDINATES 1 double
0.0
POINT_DATA 2500
VECTORS Vektorfeld double
-0.000214 0.000214 0.0
-0.000974 0.000546 0.0
-0.002220 0.000700 0.0
-0.003676 0.000756 0.0
-0.005205 0.000773 0.0
-0.006755 0.000777 0.0
-0.008312 0.000780 0.0
-0.009874 0.000783 0.0
-0.011443 0.000786 0.0
-0.013019 0.000790 0.0
-0.014602 0.000794 0.0
-0.016193 0.000797 0.0
-0.017791 0.000800 0.0
-0.019393 0.000802 0.0
-0.020999 0.000803 0.0
-0.022604 0.000802 0.0
-0.024205 0.000799 0.0
-0.025797 0.000793 0.0
-0.027374 0.000784 0.0
-0.028929 0.000771 0.0
-0.030453 0.000753 0.0
-0.031936 0.000730 0.0
-0.033368 0.000701 0.0
-0.034733 0.000665 0.0
-0.036018 0.000620 0.0
-0.037206 0.000568 0.0
-0.038279 0.000505 0.0
-0.039217 0.000433 0.0
-0.039999 0.000350 0.0
-0.040604 0.000255 0.0
-0.041010 0.000150 0.0
-0.041194 0.000034 0.0
-0.041136 -0.000092 0.0
-0.040813 -0.000231 0.0
-0.040202 -0.000380 0.0
-0.039286 -0.000536 0.0
-0.038051 -0.000699 0.0
-0.036489 -0.000864 0.0
-0.034596 -0.001029 0.0
-0.032375 -0.001191 0.0
-0.029837 -0.001347 0.0
-0.026998 -0.001492 0.0
-0.023882 -0.001624 0.0
-0.020519 -0.001739 0.0
-0.016950 -0.001830 0.0
-0.013231 -0.001888 0.0
-0.009455 -0.001888 0.0
-0.005797 -0.001770 0.0
-0.002616 -0.001411 0.0
-0.000602 -0.000602 0.0
-0.000567 0.000995 0.0
-0.002256 0.002214 0.0
-0.004765 0.002786 0.0
-0.007648 0.003010 0.0
-0.010684 0.003083 0.0
-0.013772 0.003105 0.0
-0.016877 0.003114 0.0
-0.019987 0.003121 0.0
-0.023100 0.003128 0.0
-0.026212 0.003136 0.0
-0.029324 0.003143 0.0
-0.032431 0.003147 0.0
-0.035531 0.003148 0.0
-0.038619 0.003145 0.0
-0.041688 0.003136 0.0
-0.044732 0.003119 0.0
-0.047742 0.003093 0.0
-0.050707 0.003056 0.0
-0.053615 0.003006 0.0
-0.056452 0.002940 0.0
-0.059201 0.002857 0.0
-0.061843 0.002752 0.0
-0.064357 0.002624 0.0
-0.066718 0.002469 0.0
-0.068902 0.002285 0.0
-0.070878 0.002068 0.0
-0.072616 0.001816 0.0
-0.074083 0.001527 0.0
-0.075244 0.001199 0.0
-0.076063 0.000830 0.0
-0.076504 0.000422 0.0
-0.076532 -0.000025 0.0
-0.076110 -0.000513 0.0
-0.075204 -0.001039 0.0
-0.073789 -0.001598 0.0
-0.071840 -0.002182 0.0
-0.069343 -0.002785 0.0
-0.066289 -0.003395 0.0
-0.062678 -0.004003 0.0
-0.058520 -0.004596 0.0
-0.053836 -0.005164 0.0
-0.048657 -0.005693 0.0
-0.043024 -0.006172 0.0
-0.036991 -0.006586 0.0
-0.030628 -0.006915 0.0
-0.024034 -0.007117 0.0
-0.017368 -0.007101 0.0
-0.010916 -0.006667 0.0
-0.005219 -0.005392 0.0
-0.001324 -0.002529 0.0
-0.000750 0.002312 0.0
-0.002926 0.004761 0.0
-0.006077 0.005899 0.0
-0.009655 0.006359 0.0
-0.013407 0.006521 0.0
-0.017221 0.006570 0.0
-0.021053 0.006586 0.0
-0.024888 0.006594 0.0
-0.028719 0.006599 0.0
-0.032541 0.006601 0.0
-0.036351 0.006599 0.0
-0.040144 0.006591 0.0
-0.043915 0.006575 0.0
-0.047657 0.006548 0.0
-0.051363 0.006507 0.0
-0.055022 0.006450 0.0
-0.058624 0.006373 0.0
-0.062155 0.006272 0.0
-0.065600 0.006144 0.0
-0.068943 0.005982 0.0
-0.072162 0.005783 0.0
-0.075237 0.005542 0.0
-0.078141 0.005252 0.0
-0.080848 0.004909 0.0
-0.083326 0.004507 0.0
-0.085543 0.004040 0.0
-0.087464 0.003503 0.0
-0.089051 0.002893 0.0
-0.090265 0.002207 0.0
-0.091066 0.001442 0.0
-0.091412 0.000598 0.0
-0.091263 -0.000322 0.0
-0.090581 -0.001319 0.0
-0.089335 -0.002385 0.0
-0.087495 -0.003508 0.0
-0.085038 -0.004677 0.0
-0.081951 -0.005875 0.0
-0.078226 -0.007084 0.0
-0.073865 -0.008284 0.0
-0.068885 -0.009453 0.0
-0.063309 -0.010567 0.0
-0.057175 -0.011603 0.0
-0.050533 -0.012538 0.0
-0.043444 -0.013343 0.0
-0.035989 -0.013976 0.0
-0.028283 -0.014356 0.0
-0.020503 -0.014308 0.0
-0.012959 -0.013456 0.0
-0.006252 -0.011008 0.0
-0.001603 -0.005457 0.0
-0.000829 0.003891 0.0
-0.003227 0.007755 0.0
-0.006682 0.009512 0.0
-0.010583 0.010226 0.0
-0.014660 0.010482 0.0
-0.018797 0.010561 0.0
-0.022952 0.010583 0.0
-0.027106 0.010586 0.0
-0.031251 0.010582 0.0
-0.035383 0.010571 0.0
-0.039496 0.010552 0.0
-0.043586 0.010521 0.0
-0.047646 0.010476 0.0
-0.051668 0.010411 0.0
-0.055644 0.010325 0.0
-0.059563 0.010211 0.0
-0.063413 0.010064 0.0
-0.067180 0.009880 0.0
-0.070849 0.009650 0.0
-0.074401 0.009370 0.0
-0.077816 0.009030 0.0
-0.081069 0.008623 0.0
-0.084136 0.008142 0.0
-0.086986 0.007577 0.0
-0.089589 0.006920 0.0
-0.091910 0.006164 0.0
-0.093912 0.005301 0.0
-0.095556 0.004326 0.0
-0.096800 0.003233 0.0
-0.097604 0.002019 0.0
-0.097923 0.000686 0.0
-0.097716 -0.000766 0.0
-0.096945 -0.002329 0.0
-0.095574 -0.003992 0.0
-0.093573 -0.005741 0.0
-0.090918 -0.007555 0.0
-0.087592 -0.009410 0.0
-0.083588 -0.011279 0.0
-0.078909 -0.013129 0.0
-0.073570 -0.014927 0.0
-0.067598 -0.016639 0.0
-0.061035 -0.018229 0.0
-0.053932 -0.019659 0.0
-0.046358 -0.020886 0.0
-0.038400 -0.021845 0.0
-0.030178 -0.022414 0.0
-0.021877 -0.022331 0.0
-0.013824 -0.021029 0.0
-0.006656 -0.017310 0.0
-0.001700 -0.008760 0.0
-0.000857 0.005577 0.0
-0.003342 0.010953 0.0
-0.006928 0.013355 0.0
-0.010970 0.014326 0.0
-0.015185 0.014674 0.0
-0.019460 0.014781 0.0
-0.023749 0.014806 0.0
-0.028036 0.014803 0.0
-0.032313 0.014788 0.0
-0.036576 0.014760 0.0
-0.040819 0.014719 0.0
-0.045036 0.014661 0.0
-0.049222 0.014581 0.0
-0.053368 0.014474 0.0
-0.057466 0.014336 0.0
-0.061506 0.014159 0.0
-0.065476 0.013936 0.0
-0.069361 0.013661 0.0
-0.073147 0.013324 0.0
-0.076814 0.012916 0.0
-0.080343 0.012427 0.0
-0.083709 0.011846 0.0
-0.086887 0.011163 0.0
-0.089847 0.010366 0.0
-0.092558 0.009445 0.0
-0.094985 0.008387 0.0
-0.097089 0.007184 0.0
-0.098830 0.005828 0.0
-0.100165 0.004311 0.0
-0.101051 0.002630 0.0
-0.101441 0.000785 0.0
-0.101293 -0.001220 0.0
-0.100563 -0.003376 0.0
-0.099213 -0.005667 0.0
-0.097206 -0.008074 0.0
-0.094515 -0.010569 0.0
-0.091118 -0.013119 0.0
-0.087006 -0.015686 0.0
-0.082180 -0.018227 0.0
-0.076652 -0.020695 0.0
-0.070453 -0.023042 0.0
-0.063622 -0.025219 0.0
-0.056219 -0.027174 0.0
-0.048315 -0.028848 0.0
-0.040005 -0.030151 0.0
-0.031418 -0.030918 0.0
-0.022749 -0.030796 0.0
-0.014345 -0.029021 0.0
-0.006878 -0.023951 0.0
-0.001746 -0.012206 0.0
-0.000864 0.007297 0.0
-0.003377 0.014232 0.0
-0.007013 0.017296 0.0
-0.011112 0.018526 0.0
-0.015385 0.018964 0.0
-0.019717 0.019097 0.0
-0.024062 0.019125 0.0
-0.028406 0.019116 0.0
-0.032741 0.019088 0.0
-0.037062 0.019044 0.0
-0.041365 0.018982 0.0
-0.045645 0.018896 0.0
-0.049896 0.018782 0.0
-0.054110 0.018634 0.0
-0.058279 0.018444 0.0
-0.062395 0.018205 0.0
-0.066444 0.017909 0.0
-0.070416 0.017545 0.0
-0.074293 0.017103 0.0
-0.078059 0.016570 0.0
-0.081693 0.015935 0.0
-0.085173 0.015184 0.0
-0.088473 0.014303 0.0
-0.091564 0.013278 0.0
-0.094413 0.012093 0.0
-0.096985 0.010737 0.0
-0.099241 0.009195 0.0
-0.101138 0.007456 0.0
-0.102633 0.005512 0.0
-0.103676 0.003358 0.0
-0.104222 0.000993 0.0
-0.104219 -0.001579 0.0
-0.103620 -0.004346 0.0
-0.102379 -0.007289 0.0
-0.100454 -0.010383 0.0
-0.097810 -0.013594 0.0
-0.094421 -0.016880 0.0
-0.090269 -0.020190 0.0
-0.085352 -0.023468 0.0
-0.079681 -0.026653 0.0
-0.073285 -0.029681 0.0
-0.066207 -0.032488 0.0
-0.058510 -0.035006 0.0
-0.050274 -0.037156 0.0
-0.041603 -0.038824 0.0
-0.032639 -0.039798 0.0
-0.023593 -0.039631 0.0
-0.014836 -0.037348 0.0
-0.007084 -0.030843 0.0
-0.001789 -0.015742 0.0
-0.000863 0.009023 0.0
-0.003382 0.017539 0.0
-0.007034 0.021276 0.0
-0.011156 0.022767 0.0
-0.015455 0.023295 0.0
-0.019813 0.023454 0.0
-0.024185 0.023485 0.0
-0.028557 0.023471 0.0
-0.032923 0.023433 0.0
-0.037278 0.023375 0.0
-0.041618 0.023294 0.0
-0.045940 0.023185 0.0
-0.050237 0.023041 0.0
-0.054504 0.022856 0.0
-0.058733 0.022621 0.0
-0.062915 0.022327 0.0
-0.067041 0.021963 0.0
-0.071098 0.021519 0.0
-0.075072 0.020980 0.0
-0.078947 0.020333 0.0
-0.082702 0.019562 0.0
-0.086317 0.018652 0.0
-0.089766 0.017584 0.0
-0.093020 0.016341 0.0
-0.096047 0.014906 0.0
-0.098810 0.013259 0.0
-0.101269 0.011387 0.0
-0.103380 0.009272 0.0
-0.105095 0.006905 0.0
-0.106363 0.004277 0.0
-0.107130 0.001386 0.0
-0.107341 -0.001764 0.0
-0.106940 -0.005160 0.0
-0.105873 -0.008782 0.0
-0.104089 -0.012599 0.0
-0.101543 -0.016568 0.0
-0.098200 -0.020639 0.0
-0.094036 -0.024747 0.0
-0.089041 -0.028822 0.0
-0.083223 -0.032786 0.0
-0.076610 -0.036557 0.0
-0.069249 -0.040051 0.0
-0.061207 -0.043181 0.0
-0.052577 -0.045847 0.0
-0.043475 -0.047905 0.0
-0.034060 -0.049095 0.0
-0.024569 -0.048869 0.0
-0.015403 -0.046032 0.0
-0.007322 -0.037994 0.0
-0.001839 -0.019369 0.0
-0.000859 0.010745 0.0
-0.003376 0.020852 0.0
-0.007032 0.025271 0.0
-0.011165 0.027028 0.0
-0.015478 0.027647 0.0
-0.019851 0.027833 0.0
-0.024241 0.027869 0.0
-0.028633 0.027851 0.0
-0.033021 0.027807 0.0
-0.037404 0.027739 0.0
-0.041776 0.027644 0.0
-0.046135 0.027516 0.0
-0.050477 0.027349 0.0
-0.054796 0.027134 0.0
-0.059087 0.026862 0.0
-0.063341 0.026522 0.0
-0.067550 0.026103 0.0
-0.071703 0.025589 0.0
-0.075787 0.024967 0.0
-0.079787 0.024220 0.0
-0.083685 0.023329 0.0
-0.087460 0.022275 0.0
-0.091087 0.021037 0.0
-0.094539 0.019594 0.0
-0.097783 0.017923 0.0
-0.100782 0.016004 0.0
-0.103494 0.013814 0.0
-0.105873 0.011335 0.0
-0.107866 0.008551 0.0
-0.109419 0.005452 0.0
-0.110471 0.002031 0.0
-0.110959 -0.001709 0.0
-0.110818 -0.005757 0.0
-0.109983 -0.010088 0.0
-0.108392 -0.014668 0.0
-0.105988 -0.019449 0.0
-0.102723 -0.024366 0.0
-0.098563 -0.029344 0.0
-0.093490 -0.034293 0.0
-0.087507 -0.039116 0.0
-0.080637 -0.043710 0.0
-0.072933 -0.047965 0.0
-0.064471 -0.051771 0.0
-0.055356 -0.055003 0.0
-0.045724 -0.057483 0.0
-0.035760 -0.058897 0.0
-0.025729 -0.058589 0.0
-0.016073 -0.055135 0.0
-0.007600 -0.045445 0.0
-0.001897 -0.023105 0.0
-0.000855 0.012460 0.0
-0.003365 0.024164 0.0
-0.007022 0.029272 0.0
-0.011161 0.031298 0.0
-0.015484 0.032012 0.0
-0.019870 0.032227 0.0
-0.024275 0.032270 0.0
-0.028685 0.032253 0.0
-0.033096 0.032205 0.0
-0.037505 0.032132 0.0
-0.041910 0.032028 0.0
-0.046308 0.031889 0.0
-0.050697 0.031706 0.0
-0.055073 0.031471 0.0
-0.059430 0.031173 0.0
-0.063763 0.030799 0.0
-0.068064 0.030336 0.0
-0.072325 0.029769 0.0
-0.076533 0.029080 0.0
-0.080677 0.028250 0.0
-0.084738 0.027258 0.0
-0.088698 0.026081 0.0
-0.092534 0.024694 0.0
-0.096218 0.023072 0.0
-0.099718 0.021188 0.0
-0.102996 0.019015 0.0
-0.106009 0.016527 0.0
-0.108709 0.013700 0.0
-0.111040 0.010511 0.0
-0.112941 0.006945 0.0
-0.114344 0.002992 0.0
-0.115177 -0.001350 0.0
-0.115363 -0.006071 0.0
-0.114825 -0.011147 0.0
-0.113485 -0.016540 0.0
-0.111272 -0.022194 0.0
-0.108123 -0.028035 0.0
-0.103988 -0.033970 0.0
-0.098837 -0.039891 0.0
-0.092663 -0.045676 0.0
-0.085490 -0.051193 0.0
-0.077372 -0.056305 0.0
-0.068396 -0.060870 0.0
-0.058686 -0.064729 0.0
-0.048406 -0.067668 0.0
-0.037771 -0.069311 0.0
-0.027088 -0.068888 0.0
-0.016846 -0.064735 0.0
-0.007916 -0.053246 0.0
-0.001961 -0.026962 0.0
-0.000850 0.014165 0.0
-0.003353 0.027471 0.0
-0.007008 0.033276 0.0
-0.011152 0.035577 0.0
-0.015483 0.036388 0.0
-0.019881 0.036634 0.0
-0.024301 0.036688 0.0
-0.028730 0.036674 0.0
-0.033163 0.036628 0.0
-0.037600 0.036554 0.0
-0.042039 0.036449 0.0
-0.046479 0.036306 0.0
-0.050918 0.036117 0.0
-0.055354 0.035872 0.0
-0.059783 0.035559 0.0
-0.064202 0.035165 0.0
-0.068605 0.034674 0.0
-0.072984 0.034071 0.0
-0.077331 0.033334 0.0
-0.081634 0.032443 0.0
-0.085878 0.031372 0.0
-0.090047 0.030096 0.0
-0.094119 0.028587 0.0
-0.098067 0.026812 0.0
-0.101861 0.024742 0.0
-0.105462 0.022342 0.0
-0.108827 0.019580 0.0
-0.111905 0.016425 0.0
-0.114636 0.012848 0.0
-0.116952 0.008826 0.0
-0.118779 0.004341 0.0
-0.120033 -0.000612 0.0
-0.120625 -0.006030 0.0
-0.120461 -0.011890 0.0
-0.119446 -0.018151 0.0
-0.117489 -0.024753 0.0
-0.114505 -0.031609 0.0
-0.110425 -0.038610 0.0
-0.105203 -0.045625 0.0
-0.098818 -0.052500 0.0
-0.091289 -0.059071 0.0
-0.082673 -0.065161 0.0
-0.073073 -0.070589 0.0
-0.062636 -0.075155 0.0
-0.051564 -0.078595 0.0
-0.040115 -0.080467 0.0
-0.028649 -0.079880 0.0
-0.017716 -0.074920 0.0
-0.008258 -0.061449 0.0
-0.002025 -0.030948 0.0
-0.000844 0.015860 0.0
-0.003338 0.030773 0.0
-0.006990 0.037282 0.0
-0.011138 0.039863 0.0
-0.015478 0.040774 0.0
-0.019887 0.041055 0.0
-0.024321 0.041122 0.0
-0.028768 0.041116 0.0
-0.033224 0.041076 0.0
-0.037689 0.041008 0.0
-0.042163 0.040908 0.0
-0.046646 0.040770 0.0
-0.051138 0.040584 0.0
-0.055637 0.040340 0.0
-0.060143 0.040026 0.0
-0.064654 0.039627 0.0
-0.069165 0.039126 0.0
-0.073672 0.038505 0.0
-0.078168 0.037743 0.0
-0.082645 0.036814 0.0
-0.087091 0.035692 0.0
-0.091490 0.034346 0.0
-0.095824 0.032743 0.0
-0.100068 0.030849 0.0
-0.104193 0.028624 0.0
-0.108162 0.026030 0.0
-0.111930 0.023025 0.0
-0.115445 0.019572 0.0
-0.118643 0.015630 0.0
-0.121451 0.011168 0.0
-0.123785 0.006160 0.0
-0.125551 0.000588 0.0
-0.126642 -0.005548 0.0
-0.126947 -0.012231 0.0
-0.126349 -0.019423 0.0
-0.124731 -0.027057 0.0
-0.121982 -0.035038 0.0
-0.118005 -0.043237 0.0
-0.112730 -0.051496 0.0
-0.106118 -0.059625 0.0
-0.098178 -0.067416 0.0
-0.088968 -0.074641 0.0
-0.078611 -0.081067 0.0
-0.067287 -0.086437 0.0
-0.055245 -0.090428 0.0
-0.042808 -0.092520 0.0
-0.030406 -0.091695 0.0
-0.018663 -0.085781 0.0
-0.008611 -0.070097 0.0
-0.002085 -0.035058 0.0
-0.000838 0.017542 0.0
-0.003320 0.034067 0.0
-0.006968 0.041288 0.0
-0.011118 0.044154 0.0
-0.015465 0.045169 0.0
-0.019885 0.045488 0.0
-0.024333 0.045571 0.0
-0.028798 0.045577 0.0
-0.033276 0.045549 0.0
-0.037769 0.045493 0.0
-0.042278 0.045406 0.0
-0.046804 0.045281 0.0
-0.051349 0.045109 0.0
-0.055914 0.044879 0.0
-0.060498 0.044578 0.0
-0.065103 0.044190 0.0
-0.069728 0.043698 0.0
-0.074369 0.043082 0.0
-0.079024 0.042318 0.0
-0.083687 0.041378 0.0
-0.088348 0.040234 0.0
-0.092997 0.038851 0.0
-0.097618 0.037192 0.0
-0.102188 0.035215 0.0
-0.106681 0.032876 0.0
-0.111062 0.030127 0.0
-0.115286 0.026921 0.0
-0.119301 0.023205 0.0
-0.123039 0.018933 0.0
-0.126423 0.014058 0.0
-0.129359 0.008541 0.0
-0.131739 0.002353 0.0
-0.133443 -0.004517 0.0
-0.134336 -0.012064 0.0
-0.134273 -0.020252 0.0
-0.133104 -0.029015 0.0
-0.130686 -0.038248 0.0
-0.126884 -0.047805 0.0
-0.121594 -0.057494 0.0
-0.114749 -0.067084 0.0
-0.106340 -0.076307 0.0
-0.096426 -0.084873 0.0
-0.085149 -0.092471 0.0
-0.072736 -0.098770 0.0
-0.059503 -0.103369 0.0
-0.045862 -0.105657 0.0
-0.032339 -0.104483 0.0
-0.019658 -0.097416 0.0
-0.008947 -0.079226 0.0
-0.002130 -0.039273 0.0
-0.000830 0.019210 0.0
-0.003299 0.037352 0.0
-0.006941 0.045293 0.0
-0.011092 0.048450 0.0
-0.015445 0.049573 0.0
-0.019873 0.049932 0.0
-0.024334 0.050036 0.0
-0.028815 0.050058 0.0
-0.033314 0.050046 0.0
-0.037833 0.050008 0.0
-0.042376 0.049942 0.0
-0.046944 0.049840 0.0
-0.051541 0.049692 0.0
-0.056169 0.049489 0.0
-0.060833 0.049216 0.0
-0.065533 0.048857 0.0
-0.070273 0.048395 0.0
-0.075053 0.047806 0.0
-0.079872 0.047067 0.0
-0.084729 0.046148 0.0
-0.089618 0.045016 0.0
-0.094533 0.043633 0.0
-0.099461 0.041958 0.0
-0.104385 0.039943 0.0
-0.109281 0.037537 0.0
-0.114117 0.034684 0.0
-0.118852 0.031324 0.0
-0.123433 0.027397 0.0
-0.127791 0.022838 0.0
-0.131843 0.017588 0.0
-0.135489 0.011591 0.0
-0.138607 0.004801 0.0
-0.141058 -0.002810 0.0
-0.142682 -0.011254 0.0
-0.143301 -0.020506 0.0
-0.142728 -0.030502 0.0
-0.140772 -0.041135 0.0
-0.137253 -0.052239 0.0
-0.132014 -0.063589 0.0
-0.124948 -0.074900 0.0
-0.116014 -0.085834 0.0
-0.105267 -0.096008 0.0
-0.092869 -0.105011 0.0
-0.079109 -0.112403 0.0
-0.064401 -0.117677 0.0
-0.049279 -0.120113 0.0
-0.034408 -0.118422 0.0
-0.020643 -0.109923 0.0
-0.009224 -0.088848 0.0
-0.002145 -0.043547 0.0
-0.000821 0.020861 0.0
-0.003274 0.040624 0.0
-0.006907 0.049295 0.0
-0.011057 0.052749 0.0
-0.015413 0.053984 0.0
-0.019849 0.054386 0.0
-0.024320 0.054514 0.0
-0.028814 0.054555 0.0
-0.033331 0.054565 0.0
-0.037874 0.054552 0.0
-0.042447 0.054514 0.0
-0.047054 0.054443 0.0
-0.051700 0.054332 0.0
-0.056390 0.054168 0.0
-0.061130 0.053939 0.0
-0.065924 0.053629 0.0
-0.070778 0.053217 0.0
-0.075697 0.052682 0.0
-0.080682 0.051997 0.0
-0.085738 0.051131 0.0
-0.090863 0.050048 0.0
-0.096055 0.048708 0.0
-0.101308 0.047063 0.0
-0.106609 0.045062 0.0
-0.111940 0.042644 0.0
-0.117274 0.039746 0.0
-0.122573 0.036296 0.0
-0.127787 0.032219 0.0
-0.132848 0.027435 0.0
-0.137670 0.021866 0.0
-0.142147 0.015435 0.0
-0.146144 0.008073 0.0
-0.149502 -0.000273 0.0
-0.152032 -0.009638 0.0
-0.153521 -0.020014 0.0
-0.153734 -0.031354 0.0
-0.152423 -0.043551 0.0
-0.149340 -0.056425 0.0
-0.144263 -0.069718 0.0
-0.137017 -0.083082 0.0
-0.127514 -0.096088 0.0
-0.115785 -0.108230 0.0
-0.102017 -0.118954 0.0
-0.086575 -0.127662 0.0
-0.070010 -0.133692 0.0
-0.053042 -0.136188 0.0
-0.036536 -0.133724 0.0
-0.021525 -0.123396 0.0
-0.009374 -0.098945 0.0
-0.002107 -0.047799 0.0
-0.000810 0.022492 0.0
-0.003245 0.043881 0.0
-0.006866 0.053291 0.0
-0.011012 0.057048 0.0
-0.015369 0.058398 0.0
-0.019809 0.058847 0.0
-0.024287 0.059001 0.0
-0.028792 0.059067 0.0
-0.033323 0.059102 0.0
-0.037886 0.059120 0.0
-0.042484 0.059117 0.0
-0.047125 0.059088 0.0
-0.051815 0.059024 0.0
-0.056562 0.058914 0.0
-0.061373 0.058745 0.0
-0.066256 0.058501 0.0
-0.071220 0.058163 0.0
-0.076273 0.057707 0.0
-0.081423 0.057107 0.0
-0.086677 0.056330 0.0
-0.092041 0.055338 0.0
-0.097518 0.054087 0.0
-0.103107 0.052526 0.0
-0.108804 0.050597 0.0
-0.114597 0.048233 0.0
-0.120466 0.045360 0.0
-0.126380 0.041895 0.0
-0.132293 0.037747 0.0
-0.138143 0.032818 0.0
-0.143844 0.027007 0.0
-0.149283 0.020210 0.0
-0.154317 0.012330 0.0
-0.158766 0.003278 0.0
-0.162418 -0.007007 0.0
-0.165016 -0.018558 0.0
-0.166265 -0.031348 0.0
-0.165845 -0.045287 0.0
-0.163424 -0.060192 0.0
-0.158683 -0.075770 0.0
-0.151351 -0.091607 0.0
-0.141258 -0.107159 0.0
-0.128387 -0.121759 0.0
-0.112936 -0.134645 0.0
-0.095368 -0.144982 0.0
-0.076427 -0.151878 0.0
-0.057109 -0.154288 0.0
-0.038587 -0.150652 0.0
-0.022148 -0.137917 0.0
-0.009289 -0.109434 0.0
-0.001980 -0.051885 0.0
-0.000798 0.024101 0.0
-0.003211 0.047119 0.0
-0.006816 0.057279 0.0
-0.010955 0.061346 0.0
-0.015311 0.062814 0.0
-0.019752 0.063312 0.0
-0.024233 0.063495 0.0
-0.028744 0.063588 0.0
-0.033284 0.063654 0.0
-0.037861 0.063707 0.0
-0.042479 0.063747 0.0
-0.047148 0.063767 0.0
-0.051874 0.063761 0.0
-0.056669 0.063718 0.0
-0.061543 0.063625 0.0
-0.066506 0.063467 0.0
-0.071572 0.063226 0.0
-0.076752 0.062878 0.0
-0.082060 0.062395 0.0
-0.087507 0.061744 0.0
-0.093106 0.060887 0.0
-0.098867 0.059776 0.0
-0.104798 0.058357 0.0
-0.110902 0.056567 0.0
-0.117177 0.054331 0.0
-0.123612 0.051567 0.0
-0.130187 0.048177 0.0
-0.136864 0.044055 0.0
-0.143588 0.039083 0.0
-0.150278 0.033132 0.0
-0.156823 0.026069 0.0
-0.163074 0.017756 0.0
-0.168838 0.008065 0.0
-0.173868 -0.003112 0.0
-0.177862 -0.015860 0.0
-0.180464 -0.030194 0.0
-0.181268 -0.046058 0.0
-0.179829 -0.063281 0.0
-0.175697 -0.081554 0.0
-0.168460 -0.100392 0.0
-0.157812 -0.119115 0.0
-0.143642 -0.136845 0.0
-0.126129 -0.152522 0.0
-0.105845 -0.164956 0.0
-0.083802 -0.172887 0.0
-0.061416 -0.174983 0.0
-0.040343 -0.169553 0.0
-0.022259 -0.153539 0.0
-0.008795 -0.120135 0.0
-0.001711 -0.055577 0.0
-0.000785 0.025684 0.0
-0.003172 0.050336 0.0
-0.006758 0.061255 0.0
-0.010887 0.065638 0.0
-0.015237 0.067228 0.0
-0.019675 0.067777 0.0
-0.024155 0.067991 0.0
-0.028666 0.068113 0.0
-0.033210 0.068213 0.0
-0.037794 0.068307 0.0
-0.042424 0.068396 0.0
-0.047111 0.068474 0.0
-0.051865 0.068535 0.0
-0.056698 0.068571 0.0
-0.061623 0.068570 0.0
-0.066655 0.068518 0.0
-0.071810 0.068396 0.0
-0.077104 0.068182 0.0
-0.082556 0.067850 0.0
-0.088185 0.067366 0.0
-0.094009 0.066689 0.0
-0.100048 0.065773 0.0
-0.106316 0.064560 0.0
-0.112829 0.062981 0.0
-0.119597 0.060959 0.0
-0.126620 0.058398 0.0
-0.133891 0.055192 0.0
-0.141387 0.051215 0.0
-0.149066 0.046327 0.0
-0.156858 0.040371 0.0
-0.164659 0.033176 0.0
-0.172321 0.024561 0.0
-0.179640 0.014343 0.0
-0.186346 0.002346 0.0
-0.192096 -0.011574 0.0
-0.196463 -0.027510 0.0
-0.198935 -0.045466 0.0
-0.198932 -0.065316 0.0
-0.195826 -0.086757 0.0
-0.189004 -0.109248 0.0
-0.177951 -0.131961 0.0
-0.162375 -0.153747 0.0
-0.142375 -0.173133 0.0
-0.118616 -0.188389 0.0
-0.092455 -0.197658 0.0
-0.065934 -0.199120 0.0
-0.041499 -0.190924 0.0
-0.021473 -0.170278 0.0
-0.007634 -0.130699 0.0
-0.001221 -0.058510 0.0
-0.000770 0.027239 0.0
-0.003128 0.053526 0.0
-0.006691 0.065215 0.0
-0.010806 0.069921 0.0
-0.015147 0.071636 0.0
-0.019577 0.072238 0.0
-0.024051 0.072484 0.0
-0.028557 0.072637 0.0
-0.033097 0.072774 0.0
-0.037680 0.072912 0.0
-0.042313 0.073054 0.0
-0.047008 0.073197 0.0
-0.051777 0.073335 0.0
-0.056634 0.073462 0.0
-0.061596 0.073567 0.0
-0.066681 0.073637 0.0
-0.071907 0.073657 0.0
-0.077298 0.073606 0.0
-0.082876 0.073457 0.0
-0.088668 0.073179 0.0
-0.094699 0.072731 0.0
-0.100997 0.072067 0.0
-0.107590 0.071127 0.0
-0.114503 0.069841 0.0
-0.121760 0.068124 0.0
-0.129379 0.065876 0.0
-0.137370 0.062976 0.0
-0.145729 0.059285 0.0
-0.154432 0.054638 0.0
-0.163429 0.048849 0.0
-0.172634 0.041704 0.0
-0.181908 0.032969 0.0
-0.191050 0.022396 0.0
-0.199779 0.009728 0.0
-0.207715 -0.005271 0.0
-0.214357 -0.022805 0.0
-0.219081 -0.042975 0.0
-0.221143 -0.065750 0.0
-0.219692 -0.090880 0.0
-0.213836 -0.117803 0.0
-0.202745 -0.145550 0.0
-0.185827 -0.172651 0.0
-0.162973 -0.197082 0.0
-0.134856 -0.216316 0.0
-0.103217 -0.227530 0.0
-0.070969 -0.228017 0.0
-0.041835 -0.215596 0.0
-0.019315 -0.188152 0.0
-0.005454 -0.140525 0.0
-0.000410 -0.060141 0.0
-0.000753 0.028762 0.0
-0.003078 0.056686 0.0
-0.006616 0.069156 0.0
-0.010713 0.074191 0.0
-0.015040 0.076034 0.0
-0.019458 0.076689 0.0
-0.023920 0.076968 0.0
-0.028414 0.077153 0.0
-0.032943 0.077328 0.0
-0.037515 0.077513 0.0
-0.042140 0.077712 0.0
-0.046830 0.077924 0.0
-0.051600 0.078147 0.0
-0.056466 0.078374 0.0
-0.061447 0.078597 0.0
-0.066564 0.078808 0.0
-0.071841 0.078990 0.0
-0.077304 0.079127 0.0
-0.082983 0.079194 0.0
-0.088911 0.079161 0.0
-0.095121 0.078991 0.0
-0.101652 0.078636 0.0
-0.108542 0.078040 0.0
-0.115832 0.077131 0.0
-0.123562 0.075821 0.0
-0.131768 0.074004 0.0
-0.140482 0.071552 0.0
-0.149725 0.068310 0.0
-0.159502 0.064093 0.0
-0.169793 0.058682 0.0
-0.180538 0.051821 0.0
-0.191628 0.043217 0.0
-0.202881 0.032543 0.0
-0.214016 0.019445 0.0
-0.224626 0.003559 0.0
-0.234165 -0.015454 0.0
-0.241896 -0.037870 0.0
-0.246884 -0.063806 0.0
-0.248016 -0.093142 0.0
-0.244043 -0.125369 0.0
-0.233702 -0.159416 0.0
-0.215934 -0.193471 0.0
-0.190218 -0.224833 0.0
-0.157020 -0.249880 0.0
-0.118329 -0.264295 0.0
-0.078073 -0.263757 0.0
-0.041902 -0.245162 0.0
-0.015547 -0.207461 0.0
-0.001918 -0.148707 0.0
0.000815 -0.059736 0.0
-0.000735 0.030250 0.0
-0.003024 0.059812 0.0
-0.006532 0.073074 0.0
-0.010607 0.078445 0.0
-0.014917 0.080418 0.0
-0.019319 0.081125 0.0
-0.023762 0.081436 0.0
-0.028237 0.081653 0.0
-0.032746 0.081866 0.0
-0.037297 0.082098 0.0
-0.041902 0.082357 0.0
-0.046573 0.082642 0.0
-0.051328 0.082954 0.0
-0.056184 0.083288 0.0
-0.061162 0.083642 0.0
-0.066288 0.084006 0.0
-0.071588 0.084369 0.0
-0.077095 0.084718 0.0
-0.082842 0.085030 0.0
-0.088871 0.085280 0.0
-0.095223 0.085434 0.0
-0.101948 0.085448 0.0
-0.109095 0.085267 0.0
-0.116722 0.084821 0.0
-0.124887 0.084024 0.0
-0.133648 0.082768 0.0
-0.143064 0.080919 0.0
-0.153188 0.078311 0.0
-0.164060 0.074742 0.0
-0.175701 0.069964 0.0
-0.188098 0.063680 0.0
-0.201186 0.055535 0.0
-0.214824 0.045115 0.0
-0.228765 0.031948 0.0
-0.242619 0.015520 0.0
-0.255797 -0.004699 0.0
-0.267468 -0.029223 0.0
-0.276531 -0.058401 0.0
-0.281590 -0.092355 0.0
-0.280992 -0.130728 0.0
-0.272947 -0.172442 0.0
-0.255759 -0.215399 0.0
-0.228192 -0.256188 0.0
-0.190061 -0.289853 0.0
-0.143117 -0.309957 0.0
-0.092035 -0.309433 0.0
-0.044862 -0.282830 0.0
-0.011325 -0.229684 0.0
0.002930 -0.154369 0.0
0.002522 -0.056399 0.0
-0.000716 0.031701 0.0
-0.002966 0.062901 0.0
-0.006440 0.076966 0.0
-0.010491 0.082679 0.0
-0.014780 0.084783 0.0
-0.019160 0.085542 0.0
-0.023579 0.085883 0.0
-0.028027 0.086129 0.0
-0.032506 0.086378 0.0
-0.037026 0.086657 0.0
-0.041596 0.086974 0.0
-0.046234 0.087334 0.0
-0.050954 0.087737 0.0
-0.055778 0.088185 0.0
-0.060730 0.088675 0.0
-0.065836 0.089204 0.0
-0.071129 0.089764 0.0
-0.076644 0.090344 0.0
-0.082421 0.090929 0.0
-0.088507 0.091496 0.0
-0.094954 0.092018 0.0
-0.101820 0.092455 0.0
-0.109169 0.092758 0.0
-0.117075 0.092862 0.0
-0.125615 0.092687 0.0
-0.134873 0.092125 0.0
-0.144939 0.091044 0.0
-0.155902 0.089273 0.0
-0.167849 0.086599 0.0
-0.180854 0.082754 0.0
-0.194968 0.077401 0.0
-0.210194 0.070128 0.0
-0.226467 0.060433 0.0
-0.243610 0.047714 0.0
-0.261281 0.031279 0.0
-0.278916 0.010355 0.0
-0.295673 -0.015849 0.0
-0.310322 -0.048064 0.0
-0.321215 -0.086739 0.0
-0.326345 -0.131813 0.0
-0.323386 -0.182362 0.0
-0.309837 -0.236217 0.0
-0.283319 -0.289455 0.0
-0.242298 -0.335737 0.0
-0.187393 -0.365922 0.0
-0.123098 -0.368845 0.0
-0.059363 -0.334325 0.0
-0.011497 -0.259591 0.0
0.007699 -0.157913 0.0
0.004565 -0.049312 0.0
-0.000695 0.033112 0.0
-0.002905 0.065950 0.0
-0.006343 0.080829 0.0
-0.010367 0.086891 0.0
-0.014631 0.089125 0.0
-0.018985 0.089933 0.0
-0.023374 0.090301 0.0
-0.027788 0.090572 0.0
-0.032227 0.090853 0.0
-0.036703 0.091175 0.0
-0.041225 0.091549 0.0
-0.045810 0.091981 0.0
-0.050476 0.092477 0.0
-0.055246 0.093039 0.0
-0.060143 0.093671 0.0
-0.065199 0.094371 0.0
-0.070448 0.095138 0.0
-0.075930 0.095966 0.0
-0.081690 0.096844 0.0
-0.087782 0.097758 0.0
-0.094265 0.098685 0.0
-0.101208 0.099595 0.0
-0.108688 0.100447 0.0
-0.116793 0.101184 0.0
-0.125624 0.101735 0.0
-0.135291 0.102002 0.0
-0.145916 0.101858 0.0
-0.157632 0.101139 0.0
-0.170580 0.099629 0.0
-0.184900 0.097050 0.0
-0.200724 0.093042 0.0
-0.218155 0.087145 0.0
-0.237239 0.078774 0.0
-0.257925 0.067202 0.0
-0.280000 0.051538 0.0
-0.303011 0.030741 0.0
-0.326155 0.003666 0.0
-0.348235 -0.030851 0.0
-0.367562 -0.073731 0.0
-0.381893 -0.125360 0.0
-0.388386 -0.185282 0.0
-0.383459 -0.251774 0.0
-0.362972 -0.320902 0.0
-0.323258 -0.385026 0.0
-0.262987 -0.431809 0.0
-0.185285 -0.444956 0.0
-0.100082 -0.407153 0.0
-0.026984 -0.307726 0.0
0.008065 -0.164025 0.0
0.006373 -0.038374 0.0
-0.000674 0.034482 0.0
-0.002841 0.068957 0.0
-0.006242 0.084662 0.0
-0.010237 0.091076 0.0
-0.014474 0.093441 0.0
-0.018798 0.094294 0.0
-0.023152 0.094683 0.0
-0.027523 0.094974 0.0
-0.031914 0.095282 0.0
-0.036332 0.095640 0.0
-0.040791 0.096065 0.0
-0.045306 0.096565 0.0
-0.049896 0.097149 0.0
-0.054584 0.097824 0.0
-0.059398 0.098597 0.0
-0.064369 0.099472 0.0
-0.069534 0.100452 0.0
-0.074937 0.101537 0.0
-0.080629 0.102725 0.0
-0.086666 0.104007 0.0
-0.093117 0.105370 0.0
-0.100058 0.106794 0.0
-0.107580 0.108250 0.0
-0.115787 0.109694 0.0
-0.124798 0.111067 0.0
-0.134750 0.112288 0.0
-0.145802 0.113248 0.0
-0.158131 0.113795 0.0
-0.171938 0.113727 0.0
-0.187441 0.112775 0.0
-0.204873 0.110572 0.0
-0.224462 0.106635 0.0
-0.246413 0.100320 0.0
-0.270860 0.090789 0.0
-0.297805 0.076971 0.0
-0.327034 0.057548 0.0
-0.358016 0.030986 0.0
-0.389780 -0.004327 0.0
-0.420805 -0.049903 0.0
-0.448759 -0.106903 0.0
-0.470033 -0.175972 0.0
-0.479324 -0.256719 0.0
-0.470038 -0.345729 0.0
-0.436167 -0.433785 0.0
-0.374583 -0.504904 0.0
-0.286556 -0.537589 0.0
-0.179630 -0.506650 0.0
-0.072649 -0.388308 0.0
-0.003930 -0.187211 0.0
0.007288 -0.024713 0.0
-0.000653 0.035808 0.0
-0.002776 0.071921 0.0
-0.006141 0.088463 0.0
-0.010106 0.095235 0.0
-0.014315 0.097728 0.0
-0.018605 0.098621 0.0
-0.022919 0.099024 0.0
-0.027240 0.099327 0.0
-0.031572 0.099652 0.0
-0.035921 0.100038 0.0
-0.040301 0.100505 0.0
-0.044726 0.101065 0.0
-0.049217 0.101730 0.0
-0.053798 0.102512 0.0
-0.058495 0.103421 0.0
-0.063344 0.104468 0.0
-0.068383 0.105661 0.0
-0.073657 0.107007 0.0
-0.079221 0.108511 0.0
-0.085137 0.110174 0.0
-0.091477 0.111994 0.0
-0.098328 0.113963 0.0
-0.105788 0.116064 0.0
-0.113976 0.118274 0.0
-0.123029 0.120551 0.0
-0.133110 0.122838 0.0
-0.144410 0.125049 0.0
-0.157152 0.127065 0.0
-0.171600 0.128712 0.0
-0.188055 0.129749 0.0
-0.206864 0.129838 0.0
-0.228409 0.128503 0.0
-0.253096 0.125088 0.0
-0.281321 0.118692 0.0
-0.313421 0.108113 0.0
-0.349595 0.091810 0.0
-0.389808 0.067918 0.0
-0.433610 0.034307 0.0
-0.479742 -0.011379 0.0
-0.525377 -0.071838 0.0
-0.565248 -0.149892 0.0
-0.591477 -0.247280 0.0
-0.595098 -0.360835 0.0
-0.569031 -0.478617 0.0
-0.509804 -0.580882 0.0
-0.417157 -0.642285 0.0
-0.294718 -0.631318 0.0
-0.155243 -0.510095 0.0
-0.035698 -0.253686 0.0
0.006136 -0.011289 0.0
-0.000631 0.037092 0.0
-0.002714 0.074843 0.0
-0.006042 0.092234 0.0
-0.009980 0.099367 0.0
-0.014160 0.101985 0.0
-0.018415 0.102910 0.0
-0.022684 0.103317 0.0
-0.026950 0.103621 0.0
-0.031213 0.103952 0.0
-0.035480 0.104355 0.0
-0.039765 0.104852 0.0
-0.044081 0.105460 0.0
-0.048449 0.106194 0.0
-0.052893 0.107071 0.0
-0.057442 0.108107 0.0
-0.062129 0.109317 0.0
-0.066995 0.110716 0.0
-0.072087 0.112318 0.0
-0.077462 0.114137 0.0
-0.083183 0.116184 0.0
-0.089328 0.118469 0.0
-0.095988 0.120998 0.0
-0.103269 0.123772 0.0
-0.111300 0.126786 0.0
-0.120234 0.130025 0.0
-0.130252 0.133462 0.0
-0.141575 0.137047 0.0
-0.154468 0.140702 0.0
-0.169253 0.144306 0.0
-0.186315 0.147673 0.0
-0.206120 0.150528 0.0
-0.229218 0.152457 0.0
-0.256255 0.152858 0.0
-0.287964 0.150857 0.0
-0.325153 0.145237 0.0
-0.368656 0.134363 0.0
-0.419182 0.116103 0.0
-0.476848 0.087590 0.0