# vtk DataFile Version 3.0
Vector Field
ASCII
DATASET RECTILINEAR_GRID
DIMENSIONS 50 50 1
X_COORDINATES 50 double
0.100000 0.300000 0.500000 0.700000 0.900000 1.100000 1.300000 1.500000 1.700000 1.900000 2.100000 2.300000 2.500000 2.700000 2.900000 3.100000 3.300000 3.500000 3.700000 3.900000 4.100000 4.300000 4.500000 4.700000 4.900000 5.100000 5.300000 5.500000 5.700000 5.900000 6.100000 6.300000 6.500000 6.700000 6.900000 7.100000 7.300000 7.500000 7.700000 7.900000 8.100000 8.300000 8.500000 8.700000 8.900000 9.100000 9.300000 9.500000 9.700000 9.900000 
Y_COORDINATES 50 double
0.100000 0.300000 0.500000 0.700000 0.900000 1.100000 1.300000 1.500000 1.700000 1.900000 2.100000 2.300000 2.500000 2.700000 2.900000 3.100000 3.300000 3.500000 3.700000 3.900000 4.100000 4.300000 4.500000 4.700000 4.900000 5.100000 5.300000 5.500000 5.700000 5.900000 6.100000 6.300000 6.500000 6.700000 6.900000 7.100000 7.300000 7.500000 7.700000 7.900000 8.100000 8.300000 8.500000 8.700000 8.900000 9.100000 9.300000 9.500000 9.700000 9.900000 
Z_COORDINATES 1 double
0.0
POINT_DATA 2500
VECTORS Vektorfeld double
-0.000221 0.000221 0.0
-0.001012 0.000570 0.0
-0.002316 0.000734 0.0
-0.003845 0.000795 0.0
-0.005453 0.000813 0.0
-0.007084 0.000819 0.0
-0.008725 0.000822 0.0
-0.010372 0.000826 0.0
-0.012029 0.000831 0.0
-0.013696 0.000836 0.0
-0.015374 0.000842 0.0
-0.017063 0.000847 0.0
-0.018763 0.000853 0.0
-0.020472 0.000857 0.0
-0.022189 0.000860 0.0
-0.023910 0.000861 0.0
-0.025632 0.000861 0.0
-0.027350 0.000857 0.0
-0.029058 0.000850 0.0
-0.030747 0.000839 0.0
-0.032410 0.000823 0.0
-0.034035 0.000801 0.0
-0.035609 0.000773 0.0
-0.037118 0.000736 0.0
-0.038546 0.000691 0.0
-0.039874 0.000636 0.0
-0.041081 0.000571 0.0
-0.042145 0.000493 0.0
-0.043042 0.000404 0.0
-0.043747 0.000302 0.0
-0.044235 0.000186 0.0
-0.044481 0.000059 0.0
-0.044459 -0.000081 0.0
-0.044144 -0.000234 0.0
-0.043510 -0.000400 0.0
-0.042535 -0.000575 0.0
-0.041205 -0.000756 0.0
-0.039508 -0.000941 0.0
-0.037443 -0.001125 0.0
-0.035013 -0.001305 0.0
-0.032232 -0.001477 0.0
-0.029119 -0.001636 0.0
-0.025705 -0.001779 0.0
-0.022025 -0.001901 0.0
-0.018129 -0.001995 0.0
-0.014084 -0.002050 0.0
-0.009997 -0.002037 0.0
-0.006068 -0.001892 0.0
-0.002693 -0.001483 0.0
-0.000605 -0.000605 0.0
-0.000594 0.001036 0.0
-0.002370 0.002322 0.0
-0.005015 0.002931 0.0
-0.008062 0.003173 0.0
-0.011275 0.003255 0.0
-0.014548 0.003282 0.0
-0.017844 0.003295 0.0
-0.021150 0.003306 0.0
-0.024462 0.003319 0.0
-0.027781 0.003333 0.0
-0.031104 0.003346 0.0
-0.034431 0.003358 0.0
-0.037757 0.003367 0.0
-0.041078 0.003372 0.0
-0.044388 0.003372 0.0
-0.047681 0.003364 0.0
-0.050947 0.003346 0.0
-0.054175 0.003318 0.0
-0.057352 0.003275 0.0
-0.060463 0.003215 0.0
-0.063490 0.003136 0.0
-0.066411 0.003034 0.0
-0.069203 0.002906 0.0
-0.071840 0.002749 0.0
-0.074291 0.002558 0.0
-0.076524 0.002330 0.0
-0.078503 0.002063 0.0
-0.080190 0.001752 0.0
-0.081545 0.001397 0.0
-0.082527 0.000995 0.0
-0.083093 0.000547 0.0
-0.083202 0.000053 0.0
-0.082811 -0.000487 0.0
-0.081880 -0.001073 0.0
-0.080378 -0.001697 0.0
-0.078279 -0.002351 0.0
-0.075564 -0.003025 0.0
-0.072225 -0.003707 0.0
-0.068263 -0.004385 0.0
-0.063692 -0.005045 0.0
-0.058536 -0.005673 0.0
-0.052834 -0.006254 0.0
-0.046636 -0.006773 0.0
-0.040006 -0.007215 0.0
-0.033029 -0.007555 0.0
-0.025820 -0.007745 0.0
-0.018566 -0.007684 0.0
-0.011588 -0.007152 0.0
-0.005486 -0.005700 0.0
-0.001376 -0.002586 0.0
-0.000791 0.002422 0.0
-0.003091 0.005012 0.0
-0.006428 0.006225 0.0
-0.010226 0.006724 0.0
-0.014214 0.006905 0.0
-0.018274 0.006966 0.0
-0.022360 0.006992 0.0
-0.026454 0.007009 0.0
-0.030550 0.007025 0.0
-0.034644 0.007040 0.0
-0.038732 0.007052 0.0
-0.042811 0.007058 0.0
-0.046876 0.007058 0.0
-0.050920 0.007047 0.0
-0.054935 0.007023 0.0
-0.058911 0.006982 0.0
-0.062837 0.006920 0.0
-0.066698 0.006833 0.0
-0.070479 0.006717 0.0
-0.074160 0.006565 0.0
-0.077721 0.006373 0.0
-0.081135 0.006133 0.0
-0.084375 0.005840 0.0
-0.087409 0.005486 0.0
-0.090204 0.005066 0.0
-0.092720 0.004572 0.0
-0.094918 0.003998 0.0
-0.096754 0.003340 0.0
-0.098182 0.002593 0.0
-0.099156 0.001754 0.0
-0.099626 0.000824 0.0
-0.099547 -0.000196 0.0
-0.098872 -0.001305 0.0
-0.097564 -0.002494 0.0
-0.095589 -0.003752 0.0
-0.092922 -0.005062 0.0
-0.089546 -0.006405 0.0
-0.085453 -0.007759 0.0
-0.080650 -0.009099 0.0
-0.075154 -0.010399 0.0
-0.068997 -0.011631 0.0
-0.062225 -0.012769 0.0
-0.054898 -0.013783 0.0
-0.047091 -0.014642 0.0
-0.038900 -0.015296 0.0
-0.030461 -0.015652 0.0
-0.021977 -0.015515 0.0
-0.013804 -0.014472 0.0
-0.006601 -0.011685 0.0
-0.001675 -0.005637 0.0
-0.000878 0.004091 0.0
-0.003421 0.008185 0.0
-0.007093 0.010061 0.0
-0.011246 0.010837 0.0
-0.015593 0.011125 0.0
-0.020011 0.011225 0.0
-0.024454 0.011262 0.0
-0.028902 0.011281 0.0
-0.033348 0.011294 0.0
-0.037787 0.011303 0.0
-0.042214 0.011304 0.0
-0.046625 0.011296 0.0
-0.051013 0.011273 0.0
-0.055371 0.011233 0.0
-0.059690 0.011170 0.0
-0.063960 0.011080 0.0
-0.068167 0.010955 0.0
-0.072297 0.010790 0.0
-0.076332 0.010577 0.0
-0.080253 0.010308 0.0
-0.084037 0.009974 0.0
-0.087657 0.009566 0.0
-0.091083 0.009074 0.0
-0.094284 0.008488 0.0
-0.097223 0.007798 0.0
-0.099861 0.006994 0.0
-0.102154 0.006068 0.0
-0.104058 0.005010 0.0
-0.105524 0.003817 0.0
-0.106502 0.002483 0.0
-0.106944 0.001008 0.0
-0.106798 -0.000605 0.0
-0.106020 -0.002349 0.0
-0.104569 -0.004210 0.0
-0.102409 -0.006171 0.0
-0.099512 -0.008207 0.0
-0.095860 -0.010289 0.0
-0.091445 -0.012383 0.0
-0.086273 -0.014451 0.0
-0.080364 -0.016453 0.0
-0.073752 -0.018346 0.0
-0.066487 -0.020090 0.0
-0.058635 -0.021641 0.0
-0.050279 -0.022949 0.0
-0.041521 -0.023937 0.0
-0.032506 -0.024465 0.0
-0.023449 -0.024242 0.0
-0.014720 -0.022648 0.0
-0.007022 -0.018410 0.0
-0.001774 -0.009085 0.0
-0.000910 0.005879 0.0
-0.003552 0.011584 0.0
-0.007370 0.014153 0.0
-0.011680 0.015209 0.0
-0.016183 0.015603 0.0
-0.020756 0.015738 0.0
-0.025351 0.015785 0.0
-0.029949 0.015804 0.0
-0.034544 0.015812 0.0
-0.039131 0.015811 0.0
-0.043704 0.015797 0.0
-0.048260 0.015769 0.0
-0.052790 0.015719 0.0
-0.057289 0.015644 0.0
-0.061747 0.015537 0.0
-0.066154 0.015390 0.0
-0.070496 0.015195 0.0
-0.074760 0.014944 0.0
-0.078928 0.014626 0.0
-0.082980 0.014231 0.0
-0.086893 0.013747 0.0
-0.090641 0.013161 0.0
-0.094195 0.012459 0.0
-0.097521 0.011630 0.0
-0.100583 0.010657 0.0
-0.103341 0.009530 0.0
-0.105750 0.008235 0.0
-0.107764 0.006761 0.0
-0.109333 0.005101 0.0
-0.110406 0.003249 0.0
-0.110928 0.001205 0.0
-0.110848 -0.001027 0.0
-0.110116 -0.003436 0.0
-0.108685 -0.006004 0.0
-0.106515 -0.008707 0.0
-0.103572 -0.011511 0.0
-0.099833 -0.014377 0.0
-0.095286 -0.017257 0.0
-0.089935 -0.020100 0.0
-0.083800 -0.022849 0.0
-0.076916 -0.025446 0.0
-0.069336 -0.027834 0.0
-0.061132 -0.029953 0.0
-0.052394 -0.031732 0.0
-0.043236 -0.033069 0.0
-0.033811 -0.033773 0.0
-0.024349 -0.033453 0.0
-0.015241 -0.031273 0.0
-0.007234 -0.025491 0.0
-0.001814 -0.012673 0.0
-0.000918 0.007706 0.0
-0.003592 0.015074 0.0
-0.007465 0.018354 0.0
-0.011840 0.019693 0.0
-0.016408 0.020190 0.0
-0.021044 0.020360 0.0
-0.025701 0.020416 0.0
-0.030363 0.020434 0.0
-0.035022 0.020436 0.0
-0.039673 0.020425 0.0
-0.044314 0.020397 0.0
-0.048938 0.020349 0.0
-0.053541 0.020273 0.0
-0.058115 0.020164 0.0
-0.062652 0.020012 0.0
-0.067143 0.019811 0.0
-0.071574 0.019548 0.0
-0.075933 0.019214 0.0
-0.080203 0.018794 0.0
-0.084365 0.018277 0.0
-0.088397 0.017646 0.0
-0.092272 0.016886 0.0
-0.095963 0.015979 0.0
-0.099436 0.014909 0.0
-0.102655 0.013659 0.0
-0.105578 0.012210 0.0
-0.108161 0.010547 0.0
-0.110355 0.008656 0.0
-0.112107 0.006526 0.0
-0.113361 0.004150 0.0
-0.114062 0.001527 0.0
-0.114150 -0.001340 0.0
-0.113569 -0.004436 0.0
-0.112264 -0.007740 0.0
-0.110186 -0.011220 0.0
-0.107293 -0.014834 0.0
-0.103555 -0.018531 0.0
-0.098953 -0.022251 0.0
-0.093487 -0.025923 0.0
-0.087173 -0.029475 0.0
-0.080048 -0.032829 0.0
-0.072169 -0.035909 0.0
-0.063616 -0.038635 0.0
-0.054489 -0.040915 0.0
-0.044916 -0.042617 0.0
-0.035066 -0.043500 0.0
-0.025191 -0.043064 0.0
-0.015711 -0.040249 0.0
-0.007415 -0.032818 0.0
-0.001846 -0.016334 0.0
-0.000916 0.009540 0.0
-0.003596 0.018593 0.0
-0.007486 0.022597 0.0
-0.011883 0.024223 0.0
-0.016477 0.024822 0.0
-0.021140 0.025026 0.0
-0.025824 0.025091 0.0
-0.030515 0.025111 0.0
-0.035205 0.025109 0.0
-0.039891 0.025090 0.0
-0.044570 0.025051 0.0
-0.049238 0.024987 0.0
-0.053890 0.024889 0.0
-0.058519 0.024751 0.0
-0.063120 0.024563 0.0
-0.067682 0.024313 0.0
-0.072196 0.023991 0.0
-0.076648 0.023582 0.0
-0.081024 0.023072 0.0
-0.085305 0.022443 0.0
-0.089471 0.021677 0.0
-0.093498 0.020756 0.0
-0.097356 0.019658 0.0
-0.101014 0.018362 0.0
-0.104435 0.016846 0.0
-0.107577 0.015088 0.0
-0.110394 0.013069 0.0
-0.112834 0.010769 0.0
-0.114842 0.008174 0.0
-0.116358 0.005273 0.0
-0.117317 0.002064 0.0
-0.117656 -0.001451 0.0
-0.117306 -0.005256 0.0
-0.116203 -0.009327 0.0
-0.114287 -0.013626 0.0
-0.111505 -0.018103 0.0
-0.107814 -0.022692 0.0
-0.103188 -0.027318 0.0
-0.097618 -0.031892 0.0
-0.091117 -0.036321 0.0
-0.083722 -0.040503 0.0
-0.075496 -0.044339 0.0
-0.066529 -0.047725 0.0
-0.056936 -0.050545 0.0
-0.046865 -0.052632 0.0
-0.036509 -0.053690 0.0
-0.026148 -0.053110 0.0
-0.016239 -0.049592 0.0
-0.007617 -0.040393 0.0
-0.001882 -0.020063 0.0
-0.000912 0.011368 0.0
-0.003585 0.022118 0.0
-0.007476 0.026853 0.0
-0.011881 0.028769 0.0
-0.016485 0.029474 0.0
-0.021160 0.029712 0.0
-0.025859 0.029789 0.0
-0.030567 0.029811 0.0
-0.035277 0.029809 0.0
-0.039989 0.029788 0.0
-0.044698 0.029742 0.0
-0.049403 0.029668 0.0
-0.054099 0.029556 0.0
-0.058782 0.029397 0.0
-0.063446 0.029181 0.0
-0.068083 0.028895 0.0
-0.072685 0.028525 0.0
-0.077241 0.028056 0.0
-0.081736 0.027469 0.0
-0.086156 0.026746 0.0
-0.090480 0.025864 0.0
-0.094685 0.024801 0.0
-0.098745 0.023531 0.0
-0.102627 0.022029 0.0
-0.106296 0.020268 0.0
-0.109708 0.018221 0.0
-0.112817 0.015862 0.0
-0.115568 0.013167 0.0
-0.117901 0.010117 0.0
-0.119750 0.006695 0.0
-0.121045 0.002896 0.0
-0.121709 -0.001280 0.0
-0.121666 -0.005820 0.0
-0.120836 -0.010696 0.0
-0.119145 -0.015865 0.0
-0.116525 -0.021267 0.0
-0.112918 -0.026825 0.0
-0.108286 -0.032444 0.0
-0.102607 -0.038015 0.0
-0.095891 -0.043416 0.0
-0.088174 -0.048520 0.0
-0.079525 -0.053197 0.0
-0.070047 -0.057313 0.0
-0.059877 -0.060720 0.0
-0.049191 -0.063215 0.0
-0.038214 -0.064440 0.0
-0.027265 -0.063671 0.0
-0.016845 -0.059361 0.0
-0.007844 -0.048247 0.0
-0.001921 -0.023867 0.0
-0.000906 0.013186 0.0
-0.003569 0.025636 0.0
-0.007455 0.031111 0.0
-0.011860 0.033322 0.0
-0.016469 0.034134 0.0
-0.021151 0.034409 0.0
-0.025860 0.034500 0.0
-0.030581 0.034529 0.0
-0.035309 0.034531 0.0
-0.040044 0.034511 0.0
-0.044782 0.034467 0.0
-0.049524 0.034390 0.0
-0.054266 0.034272 0.0
-0.059005 0.034103 0.0
-0.063737 0.033871 0.0
-0.068457 0.033562 0.0
-0.073156 0.033160 0.0
-0.077827 0.032647 0.0
-0.082458 0.032004 0.0
-0.087034 0.031207 0.0
-0.091539 0.030232 0.0
-0.095951 0.029051 0.0
-0.100245 0.027635 0.0
-0.104390 0.025953 0.0
-0.108351 0.023973 0.0
-0.112085 0.021662 0.0
-0.115543 0.018987 0.0
-0.118668 0.015918 0.0
-0.121395 0.012427 0.0
-0.123653 0.008492 0.0
-0.125362 0.004101 0.0
-0.126433 -0.000750 0.0
-0.126777 -0.006051 0.0
-0.126298 -0.011774 0.0
-0.124903 -0.017872 0.0
-0.122505 -0.024278 0.0
-0.119026 -0.030899 0.0
-0.114409 -0.037620 0.0
-0.108618 -0.044307 0.0
-0.101653 -0.050805 0.0
-0.093548 -0.056953 0.0
-0.084380 -0.062580 0.0
-0.074272 -0.067515 0.0
-0.063388 -0.071571 0.0
-0.051941 -0.074497 0.0
-0.040204 -0.075872 0.0
-0.028545 -0.074848 0.0
-0.017522 -0.069627 0.0
-0.008086 -0.056417 0.0
-0.001958 -0.027747 0.0
-0.000899 0.014992 0.0
-0.003549 0.029144 0.0
-0.007426 0.035365 0.0
-0.011829 0.037876 0.0
-0.016440 0.038799 0.0
-0.021127 0.039114 0.0
-0.025844 0.039222 0.0
-0.030578 0.039261 0.0
-0.035323 0.039272 0.0
-0.040080 0.039261 0.0
-0.044848 0.039224 0.0
-0.049628 0.039153 0.0
-0.054418 0.039040 0.0
-0.059217 0.038873 0.0
-0.064022 0.038638 0.0
-0.068830 0.038322 0.0
-0.073636 0.037906 0.0
-0.078433 0.037370 0.0
-0.083213 0.036692 0.0
-0.087964 0.035846 0.0
-0.092671 0.034804 0.0
-0.097316 0.033535 0.0
-0.101875 0.032004 0.0
-0.106320 0.030175 0.0
-0.110616 0.028009 0.0
-0.114722 0.025466 0.0
-0.118586 0.022505 0.0
-0.122151 0.019089 0.0
-0.125347 0.015179 0.0
-0.128094 0.010746 0.0
-0.130304 0.005766 0.0
-0.131876 0.000230 0.0
-0.132702 -0.005860 0.0
-0.132669 -0.012477 0.0
-0.131659 -0.019573 0.0
-0.129560 -0.027074 0.0
-0.126269 -0.034872 0.0
-0.121701 -0.042832 0.0
-0.115801 -0.050785 0.0
-0.108553 -0.058541 0.0
-0.099986 -0.065889 0.0
-0.090188 -0.072610 0.0
-0.079301 -0.078480 0.0
-0.067533 -0.083258 0.0
-0.055149 -0.086640 0.0
-0.042483 -0.088131 0.0
-0.029972 -0.086758 0.0
-0.018243 -0.080469 0.0
-0.008320 -0.064934 0.0
-0.001986 -0.031691 0.0
-0.000891 0.016782 0.0
-0.003526 0.032640 0.0
-0.007392 0.039613 0.0
-0.011790 0.042429 0.0
-0.016401 0.043466 0.0
-0.021091 0.043825 0.0
-0.025816 0.043953 0.0
-0.030560 0.044007 0.0
-0.035321 0.044033 0.0
-0.040101 0.044037 0.0
-0.044899 0.044015 0.0
-0.049717 0.043960 0.0
-0.054556 0.043862 0.0
-0.059416 0.043710 0.0
-0.064298 0.043488 0.0
-0.069199 0.043182 0.0
-0.074118 0.042771 0.0
-0.079051 0.042235 0.0
-0.083992 0.041548 0.0
-0.088932 0.040681 0.0
-0.093860 0.039604 0.0
-0.098760 0.038280 0.0
-0.103614 0.036671 0.0
-0.108394 0.034733 0.0
-0.113068 0.032421 0.0
-0.117595 0.029687 0.0
-0.121926 0.026480 0.0
-0.126000 0.022752 0.0
-0.129743 0.018454 0.0
-0.133070 0.013545 0.0
-0.135881 0.007988 0.0
-0.138061 0.001761 0.0
-0.139485 -0.005142 0.0
-0.140014 -0.012700 0.0
-0.139502 -0.020871 0.0
-0.137806 -0.029572 0.0
-0.134786 -0.038685 0.0
-0.130324 -0.048048 0.0
-0.124334 -0.057459 0.0
-0.116773 -0.066676 0.0
-0.107664 -0.075430 0.0
-0.097099 -0.083433 0.0
-0.085254 -0.090388 0.0
-0.072388 -0.095984 0.0
-0.058842 -0.099845 0.0
-0.045039 -0.101395 0.0
-0.031509 -0.099535 0.0
-0.018967 -0.091962 0.0
-0.008517 -0.073815 0.0
-0.001993 -0.035670 0.0
-0.000882 0.018555 0.0
-0.003499 0.036119 0.0
-0.007352 0.043853 0.0
-0.011743 0.046979 0.0
-0.016351 0.048134 0.0
-0.021043 0.048539 0.0
-0.025772 0.048692 0.0
-0.030526 0.048766 0.0
-0.035301 0.048811 0.0
-0.040101 0.048837 0.0
-0.044927 0.048839 0.0
-0.049783 0.048810 0.0
-0.054671 0.048739 0.0
-0.059593 0.048615 0.0
-0.064552 0.048423 0.0
-0.069549 0.048146 0.0
-0.074585 0.047762 0.0
-0.079660 0.047250 0.0
-0.084769 0.046582 0.0
-0.089910 0.045728 0.0
-0.095075 0.044650 0.0
-0.100251 0.043311 0.0
-0.105424 0.041666 0.0
-0.110572 0.039665 0.0
-0.115664 0.037256 0.0
-0.120664 0.034380 0.0
-0.125522 0.030977 0.0
-0.130178 0.026985 0.0
-0.134555 0.022342 0.0
-0.138562 0.016990 0.0
-0.142087 0.010878 0.0
-0.145003 0.003966 0.0
-0.147162 -0.003764 0.0
-0.148398 -0.012312 0.0
-0.148531 -0.021637 0.0
-0.147375 -0.031659 0.0
-0.144746 -0.042247 0.0
-0.140477 -0.053217 0.0
-0.134437 -0.064322 0.0
-0.126546 -0.075264 0.0
-0.116806 -0.085692 0.0
-0.105314 -0.095227 0.0
-0.092283 -0.103470 0.0
-0.078045 -0.110007 0.0
-0.063047 -0.114366 0.0
-0.047843 -0.115881 0.0
-0.033092 -0.113331 0.0
-0.019624 -0.104176 0.0
-0.008628 -0.083046 0.0
-0.001964 -0.039626 0.0
-0.000871 0.020308 0.0
-0.003467 0.039579 0.0
-0.007303 0.048081 0.0
-0.011685 0.051523 0.0
-0.016288 0.052801 0.0
-0.020979 0.053256 0.0
-0.025710 0.053436 0.0
-0.030470 0.053535 0.0
-0.035257 0.053606 0.0
-0.040075 0.053660 0.0
-0.044926 0.053694 0.0
-0.049817 0.053701 0.0
-0.054751 0.053670 0.0
-0.059733 0.053589 0.0
-0.064768 0.053443 0.0
-0.069861 0.053215 0.0
-0.075014 0.052883 0.0
-0.080232 0.052422 0.0
-0.085515 0.051804 0.0
-0.090864 0.050996 0.0
-0.096277 0.049959 0.0
-0.101745 0.048649 0.0
-0.107260 0.047016 0.0
-0.112804 0.045006 0.0
-0.118354 0.042556 0.0
-0.123874 0.039599 0.0
-0.129321 0.036062 0.0
-0.134635 0.031868 0.0
-0.139738 0.026939 0.0
-0.144534 0.021197 0.0
-0.148905 0.014568 0.0
-0.152707 0.006993 0.0
-0.155766 -0.001572 0.0
-0.157886 -0.011148 0.0
-0.158849 -0.021707 0.0
-0.158416 -0.033178 0.0
-0.156345 -0.045428 0.0
-0.152403 -0.058247 0.0
-0.146392 -0.071345 0.0
-0.138175 -0.084349 0.0
-0.127715 -0.096808 0.0
-0.115104 -0.108214 0.0
-0.100597 -0.118021 0.0
-0.084625 -0.125665 0.0
-0.067790 -0.130540 0.0
-0.050835 -0.131867 0.0
-0.034611 -0.128320 0.0
-0.020101 -0.117165 0.0
-0.008577 -0.092577 0.0
-0.001874 -0.043464 0.0
-0.000859 0.022038 0.0
-0.003431 0.043017 0.0
-0.007246 0.052294 0.0
-0.011614 0.056059 0.0
-0.016209 0.057463 0.0
-0.020896 0.057971 0.0
-0.025626 0.058183 0.0
-0.030389 0.058310 0.0
-0.035183 0.058412 0.0
-0.040014 0.058502 0.0
-0.044886 0.058577 0.0
-0.049807 0.058630 0.0
-0.054783 0.058651 0.0
-0.059820 0.058628 0.0
-0.064927 0.058546 0.0
-0.070110 0.058388 0.0
-0.075379 0.058131 0.0
-0.080738 0.057751 0.0
-0.086196 0.057216 0.0
-0.091756 0.056493 0.0
-0.097422 0.055539 0.0
-0.103194 0.054308 0.0
-0.109067 0.052745 0.0
-0.115032 0.050787 0.0
-0.121071 0.048364 0.0
-0.127158 0.045399 0.0
-0.133253 0.041804 0.0
-0.139301 0.037487 0.0
-0.145227 0.032349 0.0
-0.150933 0.026289 0.0
-0.156292 0.019207 0.0
-0.161147 0.011011 0.0
-0.165303 0.001625 0.0
-0.168531 -0.008998 0.0
-0.170561 -0.020863 0.0
-0.171096 -0.033919 0.0
-0.169816 -0.048038 0.0
-0.166400 -0.062994 0.0
-0.160556 -0.078453 0.0
-0.152058 -0.093955 0.0
-0.140798 -0.108922 0.0
-0.126844 -0.122666 0.0
-0.110492 -0.134429 0.0
-0.092302 -0.143419 0.0
-0.073098 -0.148824 0.0
-0.053913 -0.149723 0.0
-0.035889 -0.144711 0.0
-0.020220 -0.130952 0.0
-0.008250 -0.102283 0.0
-0.001687 -0.047025 0.0
-0.000845 0.023741 0.0
-0.003388 0.046428 0.0
-0.007179 0.056490 0.0
-0.011531 0.060583 0.0
-0.016114 0.062117 0.0
-0.020791 0.062681 0.0
-0.025516 0.062928 0.0
-0.030276 0.063087 0.0
-0.035073 0.063225 0.0
-0.039911 0.063357 0.0
-0.044798 0.063481 0.0
-0.049743 0.063590 0.0
-0.054752 0.063676 0.0
-0.059838 0.063726 0.0
-0.065008 0.063726 0.0
-0.070276 0.063659 0.0
-0.075651 0.063503 0.0
-0.081147 0.063233 0.0
-0.086773 0.062818 0.0
-0.092541 0.062220 0.0
-0.098461 0.061398 0.0
-0.104540 0.060300 0.0
-0.110782 0.058868 0.0
-0.117185 0.057032 0.0
-0.123742 0.054715 0.0
-0.130434 0.051828 0.0
-0.137233 0.048269 0.0
-0.144090 0.043927 0.0
-0.150936 0.038682 0.0
-0.157677 0.032403 0.0
-0.164183 0.024958 0.0
-0.170284 0.016216 0.0
-0.175767 0.006059 0.0
-0.180370 -0.005602 0.0
-0.183770 -0.018828 0.0
-0.185592 -0.033598 0.0
-0.185423 -0.049808 0.0
-0.182828 -0.067235 0.0
-0.177381 -0.085504 0.0
-0.168719 -0.104064 0.0
-0.156618 -0.122174 0.0
-0.141075 -0.138910 0.0
-0.122412 -0.153201 0.0
-0.101348 -0.163901 0.0
-0.079025 -0.169869 0.0
-0.056921 -0.169968 0.0
-0.036643 -0.162767 0.0
-0.019700 -0.145509 0.0
-0.007470 -0.111926 0.0
-0.001351 -0.050063 0.0
-0.000829 0.025416 0.0
-0.003340 0.049809 0.0
-0.007102 0.060663 0.0
-0.011432 0.065091 0.0
-0.015999 0.066758 0.0
-0.020663 0.067382 0.0
-0.025377 0.067666 0.0
-0.030129 0.067861 0.0
-0.034921 0.068040 0.0
-0.039760 0.068220 0.0
-0.044654 0.068400 0.0
-0.049612 0.068574 0.0
-0.054647 0.068736 0.0
-0.059770 0.068874 0.0
-0.064993 0.068974 0.0
-0.070333 0.069019 0.0
-0.075805 0.068990 0.0
-0.081424 0.068861 0.0
-0.087208 0.068601 0.0
-0.093175 0.068173 0.0
-0.099342 0.067532 0.0
-0.105724 0.066627 0.0
-0.112335 0.065394 0.0
-0.119184 0.063759 0.0
-0.126276 0.061637 0.0
-0.133605 0.058928 0.0
-0.141154 0.055516 0.0
-0.148889 0.051272 0.0
-0.156752 0.046047 0.0
-0.164657 0.039683 0.0
-0.172478 0.032005 0.0
-0.180045 0.022837 0.0
-0.187128 0.012004 0.0
-0.193423 -0.000649 0.0
-0.198556 -0.015249 0.0
-0.202078 -0.031834 0.0
-0.203459 -0.050359 0.0
-0.202114 -0.070626 0.0
-0.197434 -0.092241 0.0
-0.188856 -0.114566 0.0
-0.175960 -0.136670 0.0
-0.158602 -0.157315 0.0
-0.137076 -0.174985 0.0
-0.112273 -0.187983 0.0
-0.085766 -0.194617 0.0
-0.059711 -0.193379 0.0
-0.036487 -0.182858 0.0
-0.018124 -0.160724 0.0
-0.005978 -0.121088 0.0
-0.000792 -0.052206 0.0
-0.000812 0.027057 0.0
-0.003286 0.053153 0.0
-0.007014 0.064809 0.0
-0.011318 0.069578 0.0
-0.015863 0.071383 0.0
-0.020509 0.072067 0.0
-0.025206 0.072392 0.0
-0.029943 0.072625 0.0
-0.034723 0.072848 0.0
-0.039553 0.073081 0.0
-0.044444 0.073323 0.0
-0.049406 0.073572 0.0
-0.054453 0.073820 0.0
-0.059600 0.074059 0.0
-0.064863 0.074275 0.0
-0.070259 0.074454 0.0
-0.075810 0.074577 0.0
-0.081536 0.074620 0.0
-0.087461 0.074552 0.0
-0.093610 0.074337 0.0
-0.100007 0.073931 0.0
-0.106679 0.073281 0.0
-0.113649 0.072321 0.0
-0.120941 0.070973 0.0
-0.128573 0.069147 0.0
-0.136555 0.066731 0.0
-0.144889 0.063597 0.0
-0.153559 0.059595 0.0
-0.162525 0.054553 0.0
-0.171719 0.048275 0.0
-0.181029 0.040544 0.0
-0.190288 0.031123 0.0
-0.199257 0.019769 0.0
-0.207614 0.006239 0.0
-0.214944 -0.009672 0.0
-0.220705 -0.028128 0.0
-0.224227 -0.049161 0.0
-0.224745 -0.072650 0.0
-0.221416 -0.098226 0.0
-0.213393 -0.125182 0.0
-0.199953 -0.152389 0.0
-0.180690 -0.178218 0.0
-0.155761 -0.200536 0.0
-0.126179 -0.216817 0.0
-0.094027 -0.224443 0.0
-0.062446 -0.221189 0.0
-0.035092 -0.205626 0.0
-0.014985 -0.176425 0.0
-0.003441 -0.129078 0.0
0.000078 -0.052920 0.0
-0.000792 0.028661 0.0
-0.003226 0.056457 0.0
-0.006915 0.068923 0.0
-0.011188 0.074040 0.0
-0.015707 0.075985 0.0
-0.020328 0.076732 0.0
-0.025001 0.077097 0.0
-0.029716 0.077371 0.0
-0.034475 0.077641 0.0
-0.039287 0.077930 0.0
-0.044163 0.078240 0.0
-0.049115 0.078570 0.0
-0.054160 0.078914 0.0
-0.059315 0.079265 0.0
-0.064598 0.079614 0.0
-0.070031 0.079946 0.0
-0.075639 0.080245 0.0
-0.081450 0.080489 0.0
-0.087491 0.080649 0.0
-0.093796 0.080693 0.0
-0.100398 0.080575 0.0
-0.107334 0.080245 0.0
-0.114642 0.079635 0.0
-0.122358 0.078667 0.0
-0.130519 0.077245 0.0
-0.139155 0.075251 0.0
-0.148289 0.072545 0.0
-0.157932 0.068959 0.0
-0.168071 0.064295 0.0
-0.178666 0.058322 0.0
-0.189630 0.050772 0.0
-0.200819 0.041343 0.0
-0.212008 0.029707 0.0
-0.222869 0.015518 0.0
-0.232931 -0.001559 0.0
-0.241573 -0.021839 0.0
-0.248008 -0.045494 0.0
-0.251255 -0.072551 0.0
-0.250178 -0.102731 0.0
-0.243559 -0.135319 0.0
-0.230252 -0.168999 0.0
-0.209420 -0.201703 0.0
-0.180888 -0.230512 0.0
-0.145587 -0.251726 0.0
-0.106031 -0.261242 0.0
-0.066574 -0.255429 0.0
-0.032886 -0.232427 0.0
-0.010020 -0.192597 0.0
0.000444 -0.134914 0.0
0.001343 -0.051500 0.0
-0.000771 0.030224 0.0
-0.003159 0.059715 0.0
-0.006805 0.073000 0.0
-0.011041 0.078472 0.0
-0.015529 0.080560 0.0
-0.020119 0.081370 0.0
-0.024762 0.081776 0.0
-0.029446 0.082091 0.0
-0.034174 0.082409 0.0
-0.038956 0.082756 0.0
-0.043804 0.083138 0.0
-0.048732 0.083554 0.0
-0.053758 0.084001 0.0
-0.058900 0.084475 0.0
-0.064182 0.084969 0.0
-0.069628 0.085471 0.0
-0.075267 0.085968 0.0
-0.081132 0.086440 0.0
-0.087257 0.086865 0.0
-0.093684 0.087209 0.0
-0.100455 0.087433 0.0
-0.107619 0.087487 0.0
-0.115226 0.087308 0.0
-0.123331 0.086816 0.0
-0.131989 0.085915 0.0
-0.141256 0.084483 0.0
-0.151181 0.082372 0.0
-0.161808 0.079401 0.0
-0.173162 0.075347 0.0
-0.185243 0.069945 0.0
-0.198008 0.062877 0.0
-0.211352 0.053771 0.0
-0.225084 0.042200 0.0
-0.238889 0.027691 0.0
-0.252295 0.009737 0.0
-0.264643 -0.012145 0.0
-0.275004 -0.038391 0.0
-0.282177 -0.069234 0.0
-0.284717 -0.104585 0.0
-0.280989 -0.143811 0.0
-0.269321 -0.185483 0.0
-0.248258 -0.227114 0.0
-0.216967 -0.264925 0.0
-0.175845 -0.293735 0.0
-0.127375 -0.307258 0.0
-0.076945 -0.299300 0.0
-0.032903 -0.266285 0.0
-0.004291 -0.210218 0.0
0.005624 -0.137673 0.0
0.003071 -0.047086 0.0
-0.000748 0.031743 0.0
-0.003087 0.062922 0.0
-0.006684 0.077036 0.0
-0.010880 0.082868 0.0
-0.015330 0.085101 0.0
-0.019884 0.085974 0.0
-0.024489 0.086420 0.0
-0.029133 0.086775 0.0
-0.033820 0.087140 0.0
-0.038560 0.087546 0.0
-0.043365 0.088001 0.0
-0.048252 0.088506 0.0
-0.053239 0.089061 0.0
-0.058347 0.089666 0.0
-0.063602 0.090314 0.0
-0.069032 0.091001 0.0
-0.074670 0.091714 0.0
-0.080553 0.092441 0.0
-0.086723 0.093160 0.0
-0.093227 0.093845 0.0
-0.100120 0.094461 0.0
-0.107460 0.094963 0.0
-0.115313 0.095292 0.0
-0.123751 0.095374 0.0
-0.132852 0.095115 0.0
-0.142697 0.094395 0.0
-0.153372 0.093061 0.0
-0.164957 0.090925 0.0
-0.177527 0.087748 0.0
-0.191136 0.083235 0.0
-0.205805 0.077021 0.0
-0.221497 0.068664 0.0
-0.238089 0.057632 0.0
-0.255330 0.043304 0.0
-0.272784 0.024984 0.0
-0.289758 0.001930 0.0
-0.305269 -0.026594 0.0
-0.317975 -0.061152 0.0
-0.326160 -0.101943 0.0
-0.327803 -0.148538 0.0
-0.320670 -0.199558 0.0
-0.302462 -0.252308 0.0
-0.271194 -0.302289 0.0
-0.226009 -0.342678 0.0
-0.168477 -0.364317 0.0
-0.104127 -0.357022 0.0
-0.043693 -0.313040 0.0
-0.002232 -0.233536 0.0
0.010907 -0.137409 0.0
0.005062 -0.038952 0.0
-0.000724 0.033215 0.0
-0.003010 0.066074 0.0
-0.006555 0.081026 0.0
-0.010705 0.087224 0.0
-0.015113 0.089602 0.0
-0.019624 0.090537 0.0
-0.024184 0.091021 0.0
-0.028779 0.091413 0.0
-0.033414 0.091824 0.0
-0.038098 0.092287 0.0
-0.042845 0.092813 0.0
-0.047672 0.093407 0.0
-0.052598 0.094073 0.0
-0.057648 0.094812 0.0
-0.062847 0.095623 0.0
-0.068228 0.096504 0.0
-0.073827 0.097449 0.0
-0.079686 0.098448 0.0
-0.085853 0.099489 0.0
-0.092383 0.100550 0.0
-0.099337 0.101603 0.0
-0.106788 0.102611 0.0
-0.114815 0.103524 0.0
-0.123508 0.104275 0.0
-0.132969 0.104777 0.0
-0.143310 0.104919 0.0
-0.154651 0.104552 0.0
-0.167121 0.103489 0.0
-0.180853 0.101485 0.0
-0.195970 0.098225 0.0
-0.212579 0.093309 0.0
-0.230742 0.086231 0.0
-0.250446 0.076360 0.0
-0.271549 0.062921 0.0
-0.293725 0.044997 0.0
-0.316382 0.021548 0.0
-0.338572 -0.008511 0.0
-0.358925 -0.046176 0.0
-0.375633 -0.092026 0.0
-0.386416 -0.146029 0.0
-0.388400 -0.207217 0.0
-0.378053 -0.273204 0.0
-0.351585 -0.339130 0.0
-0.306171 -0.396436 0.0
-0.241692 -0.432570 0.0
-0.162540 -0.432272 0.0
-0.079864 -0.380900 0.0
-0.013932 -0.273070 0.0
0.012504 -0.137450 0.0
0.006664 -0.027226 0.0
-0.000698 0.034637 0.0
-0.002928 0.069168 0.0
-0.006417 0.084966 0.0
-0.010519 0.091536 0.0
-0.014881 0.094060 0.0
-0.019343 0.095053 0.0
-0.023850 0.095571 0.0
-0.028387 0.095995 0.0
-0.032958 0.096446 0.0
-0.037573 0.096962 0.0
-0.042245 0.097557 0.0
-0.046992 0.098238 0.0
-0.051835 0.099012 0.0
-0.056798 0.099885 0.0
-0.061910 0.100861 0.0
-0.067206 0.101942 0.0
-0.072725 0.103128 0.0
-0.078512 0.104415 0.0
-0.084621 0.105798 0.0
-0.091113 0.107262 0.0
-0.098059 0.108791 0.0
-0.105539 0.110355 0.0
-0.113650 0.111917 0.0
-0.122498 0.113423 0.0
-0.132208 0.114800 0.0
-0.142922 0.115950 0.0
-0.154801 0.116741 0.0
-0.168025 0.116995 0.0
-0.182792 0.116477 0.0
-0.199312 0.114870 0.0
-0.217799 0.111759 0.0
-0.238448 0.106594 0.0
-0.261408 0.098660 0.0
-0.286725 0.087042 0.0
-0.314277 0.070604 0.0
-0.343686 0.048006 0.0
-0.374245 0.017780 0.0
-0.404855 -0.021504 0.0
-0.433788 -0.071056 0.0
-0.458430 -0.131575 0.0
-0.474876 -0.203240 0.0
-0.477659 -0.284744 0.0
-0.460688 -0.371031 0.0
-0.419221 -0.451414 0.0
-0.351589 -0.509704 0.0
-0.260299 -0.525579 0.0
-0.154181 -0.476385 0.0
-0.053633 -0.344064 0.0
0.003048 -0.149573 0.0
0.007173 -0.013389 0.0
-0.000672 0.036007 0.0
-0.002844 0.072201 0.0
-0.006275 0.088854 0.0
-0.010325 0.095800 0.0
-0.014637 0.098469 0.0
-0.019046 0.099516 0.0
-0.023493 0.100062 0.0
-0.027963 0.100512 0.0
-0.032459 0.100996 0.0
-0.036990 0.101558 0.0
-0.041570 0.102213 0.0
-0.046216 0.102975 0.0
-0.050951 0.103852 0.0
-0.055798 0.104856 0.0
-0.060790 0.105995 0.0
-0.065961 0.107276 0.0
-0.071354 0.108706 0.0
-0.077017 0.110288 0.0
-0.083006 0.112024 0.0
-0.089390 0.113911 0.0
-0.096245 0.115942 0.0
-0.103662 0.118101 0.0
-0.111747 0.120366 0.0
-0.120625 0.122700 0.0
-0.130442 0.125050 0.0
-0.141369 0.127341 0.0
-0.153606 0.129466 0.0
-0.167386 0.131274 0.0
-0.182978 0.132556 0.0
-0.200688 0.133020 0.0
-0.220856 0.132263 0.0
-0.243847 0.129729 0.0
-0.270023 0.124661 0.0
-0.299711 0.116047 0.0
-0.333139 0.102579 0.0
-0.370359 0.082660 0.0
-0.411139 0.054466 0.0
-0.454743 0.016024 0.0
-0.499517 -0.034877 0.0
-0.541943 -0.100688 0.0
-0.576043 -0.183581 0.0
-0.593910 -0.283753 0.0
-0.587734 -0.395169 0.0
-0.552312 -0.504165 0.0
-0.485543 -0.591355 0.0
-0.387965 -0.632796 0.0
-0.264240 -0.599012 0.0
-0.129190 -0.457036 0.0
-0.024218 -0.198254 0.0
0.006582 0.000366 0.0
-0.000645 0.037323 0.0
-0.002759 0.075171 0.0
-0.006131 0.092688 0.0
-0.010129 0.100014 0.0
-0.014388 0.102826 0.0
-0.018740 0.103921 0.0
-0.023121 0.104486 0.0
-0.027516 0.104952 0.0
-0.031925 0.105461 0.0
-0.036358 0.106057 0.0
-0.040828 0.106764 0.0
-0.045353 0.107595 0.0
-0.049953 0.108567 0.0
-0.054655 0.109692 0.0
-0.059491 0.110986 0.0
-0.064495 0.112461 0.0
-0.069713 0.114130 0.0
-0.075194 0.116007 0.0
-0.080998 0.118099 0.0
-0.087195 0.120417 0.0
-0.093869 0.122964 0.0
-0.101115 0.125742 0.0
-0.109051 0.128746 0.0
-0.117813 0.131960 0.0
-0.127566 0.135359 0.0
-0.138506 0.138899 0.0
-0.150868 0.142508 0.0
-0.164935 0.146080 0.0
-0.181046 0.149454 0.0
-0.199606 0.152393 0.0
-0.221093 0.154547 0.0
-0.246067 0.155410 0.0
-0.275163 0.154253 0.0
-0.309081 0.150061 0.0
-0.348564 0.141475 0.0
-0.394326 0.126746 0.0
-0.446810 0.103645 0.0
-0.505522 0.069160 0.0
-0.567808 0.019047 0.0
-0.627881 -0.052113 0.0
-0.677133 -0.148803 0.0
-0.706143 -0.271655 0.0
-0.707707 -0.411878 0.0
-0.678283 -0.552303 0.0
-0.616287 -0.671982 0.0
-0.520148 -0.745885 0.0
-0.389374 -0.740421 0.0
-0.230222 -0.609829 0.0
-0.070460 -0.310194 0.0
0.002049 0.008997 0.0
-0.000618 0.038586 0.0
-0.002675 0.078079 0.0
-0.005990 0.096468 0.0
-0.009936 0.104177 0.0
-0.014142 0.107127 0.0
-0.018433 0.108263 0.0
-0.022744 0.108837 0.0
-0.027056 0.109308 0.0
-0.031368 0.109827 0.0
-0.035689 0.110445 0.0
-0.040032 0.111188 0.0
-0.044413 0.112076 0.0
-0.048854 0.113127 0.0
-0.053380 0.114360 0.0
-0.058022 0.115795 0.0
-0.062817 0.117451 0.0
-0.067808 0.119349 0.0
-0.073048 0.121509 0.0
-0.078596 0.123950 0.0
-0.084525 0.126693 0.0
-0.090919 0.129756 0.0
-0.097880 0.133158 0.0
-0.105529 0.136915 0.0
-0.114011 0.141036 0.0
-0.123504 0.145529 0.0
-0.134221 0.150386 0.0
-0.146425 0.155586 0.0
-0.160440 0.161083 0.0
-0.176665 0.166787 0.0
-0.195596 0.172551 0.0
-0.217849 0.178130 0.0
-0.244185 0.183138 0.0
-0.275550 0.186985 0.0
-0.313106 0.188803 0.0
-0.358244 0.187355 0.0
-0.412438 0.180821 0.0
-0.476596 0.166212 0.0
-0.549614 0.138323 0.0
-0.626587 0.089144 0.0