# vtk DataFile Version 3.0
Vector Field
ASCII
DATASET RECTILINEAR_GRID
DIMENSIONS 50 50 1
X_COORDINATES 50 double
0.100000 0.300000 0.500000 0.700000 0.900000 1.100000 1.300000 1.500000 1.700000 1.900000 2.100000 2.300000 2.500000 2.700000 2.900000 3.100000 3.300000 3.500000 3.700000 3.900000 4.100000 4.300000 4.500000 4.700000 4.900000 5.100000 5.300000 5.500000 5.700000 5.900000 6.100000 6.300000 6.500000 6.700000 6.900000 7.100000 7.300000 7.500000 7.700000 7.900000 8.100000 8.300000 8.500000 8.700000 8.900000 9.100000 9.300000 9.500000 9.700000 9.900000 
Y_COORDINATES 50 double
0.100000 0.300000 0.500000 0.700000 0.900000 1.100000 1.300000 1.500000 1.700000 1.900000 2.100000 2.300000 2.500000 2.700000 2.900000 3.100000 3.300000 3.500000 3.700000 3.900000 4.100000 4.300000 4.500000 4.700000 4.900000 5.100000 5.300000 5.500000 5.700000 5.900000 6.100000 6.300000 6.500000 6.700000 6.900000 7.100000 7.300000 7.500000 7.700000 7.900000 8.100000 8.300000 8.500000 8.700000 8.900000 9.100000 9.300000 9.500000 9.700000 9.900000 
Z_COORDINATES 1 double
0.0
POINT_DATA 2500
VECTORS Vektorfeld double
0.000020 -0.000020 0.0
0.000053 -0.000012 0.0
0.000050 0.000015 0.0
-0.000013 0.000048 0.0
-0.000139 0.000079 0.0
-0.000323 0.000106 0.0
-0.000558 0.000129 0.0
-0.000833 0.000146 0.0
-0.001140 0.000160 0.0
-0.001469 0.000170 0.0
-0.001815 0.000176 0.0
-0.002170 0.000179 0.0
-0.002528 0.000179 0.0
-0.002884 0.000177 0.0
-0.003234 0.000173 0.0
-0.003574 0.000166 0.0
-0.003898 0.000158 0.0
-0.004204 0.000148 0.0
-0.004487 0.000136 0.0
-0.004744 0.000122 0.0
-0.004971 0.000106 0.0
-0.005165 0.000088 0.0
-0.005322 0.000069 0.0
-0.005439 0.000048 0.0
-0.005513 0.000026 0.0
-0.005541 0.000002 0.0
-0.005521 -0.000022 0.0
-0.005452 -0.000047 0.0
-0.005332 -0.000072 0.0
-0.005163 -0.000097 0.0
-0.004945 -0.000121 0.0
-0.004681 -0.000143 0.0
-0.004374 -0.000163 0.0
-0.004030 -0.000181 0.0
-0.003655 -0.000195 0.0
-0.003255 -0.000205 0.0
-0.002840 -0.000211 0.0
-0.002417 -0.000212 0.0
-0.001998 -0.000208 0.0
-0.001592 -0.000198 0.0
-0.001210 -0.000184 0.0
-0.000861 -0.000165 0.0
-0.000555 -0.000141 0.0
-0.000300 -0.000113 0.0
-0.000104 -0.000083 0.0
0.000029 -0.000050 0.0
0.000098 -0.000018 0.0
0.000106 0.000010 0.0
0.000070 0.000027 0.0
0.000021 0.000021 0.0
0.000013 -0.000053 0.0
0.000002 -0.000002 0.0
-0.000108 0.000117 0.0
-0.000356 0.000256 0.0
-0.000751 0.000391 0.0
-0.001283 0.000511 0.0
-0.001938 0.000613 0.0
-0.002695 0.000694 0.0
-0.003533 0.000757 0.0
-0.004432 0.000802 0.0
-0.005374 0.000831 0.0
-0.006340 0.000845 0.0
-0.007316 0.000847 0.0
-0.008287 0.000837 0.0
-0.009240 0.000816 0.0
-0.010164 0.000785 0.0
-0.011045 0.000745 0.0
-0.011875 0.000696 0.0
-0.012641 0.000637 0.0
-0.013335 0.000570 0.0
-0.013945 0.000495 0.0
-0.014464 0.000411 0.0
-0.014881 0.000320 0.0
-0.015188 0.000221 0.0
-0.015377 0.000116 0.0
-0.015443 0.000006 0.0
-0.015380 -0.000109 0.0
-0.015185 -0.000225 0.0
-0.014856 -0.000342 0.0
-0.014396 -0.000457 0.0
-0.013807 -0.000568 0.0
-0.013096 -0.000671 0.0
-0.012274 -0.000764 0.0
-0.011354 -0.000844 0.0
-0.010351 -0.000909 0.0
-0.009285 -0.000956 0.0
-0.008176 -0.000983 0.0
-0.007049 -0.000988 0.0
-0.005929 -0.000971 0.0
-0.004841 -0.000929 0.0
-0.003811 -0.000865 0.0
-0.002865 -0.000779 0.0
-0.002025 -0.000673 0.0
-0.001312 -0.000549 0.0
-0.000742 -0.000413 0.0
-0.000325 -0.000271 0.0
-0.000061 -0.000131 0.0
0.000062 -0.000009 0.0
0.000072 0.000072 0.0
0.000027 0.000070 0.0
-0.000015 -0.000051 0.0
-0.000117 0.000109 0.0
-0.000389 0.000389 0.0
-0.000862 0.000705 0.0
-0.001541 0.001015 0.0
-0.002415 0.001294 0.0
-0.003462 0.001532 0.0
-0.004657 0.001726 0.0
-0.005970 0.001876 0.0
-0.007372 0.001985 0.0
-0.008838 0.002055 0.0
-0.010340 0.002090 0.0
-0.011856 0.002094 0.0
-0.013363 0.002069 0.0
-0.014842 0.002016 0.0
-0.016272 0.001939 0.0
-0.017637 0.001838 0.0
-0.018919 0.001714 0.0
-0.020102 0.001568 0.0
-0.021171 0.001401 0.0
-0.022109 0.001213 0.0
-0.022903 0.001005 0.0
-0.023539 0.000779 0.0
-0.024005 0.000535 0.0
-0.024289 0.000276 0.0
-0.024382 0.000005 0.0
-0.024277 -0.000276 0.0
-0.023970 -0.000561 0.0
-0.023459 -0.000846 0.0
-0.022747 -0.001126 0.0
-0.021840 -0.001395 0.0
-0.020748 -0.001645 0.0
-0.019488 -0.001872 0.0
-0.018078 -0.002067 0.0
-0.016543 -0.002225 0.0
-0.014910 -0.002340 0.0
-0.013213 -0.002406 0.0
-0.011485 -0.002420 0.0
-0.009765 -0.002380 0.0
-0.008089 -0.002284 0.0
-0.006496 -0.002133 0.0
-0.005022 -0.001931 0.0
-0.003702 -0.001681 0.0
-0.002564 -0.001392 0.0
-0.001630 -0.001075 0.0
-0.000914 -0.000743 0.0
-0.000416 -0.000420 0.0
-0.000123 -0.000135 0.0
-0.000001 0.000065 0.0
0.000012 0.000109 0.0
-0.000048 0.000012 0.0
-0.000261 0.000362 0.0
-0.000720 0.000866 0.0
-0.001438 0.001418 0.0
-0.002411 0.001955 0.0
-0.003623 0.002440 0.0
-0.005046 0.002857 0.0
-0.006649 0.003198 0.0
-0.008396 0.003464 0.0
-0.010255 0.003658 0.0
-0.012190 0.003783 0.0
-0.014171 0.003845 0.0
-0.016166 0.003850 0.0
-0.018147 0.003801 0.0
-0.020089 0.003704 0.0
-0.021967 0.003560 0.0
-0.023756 0.003372 0.0
-0.025435 0.003142 0.0
-0.026983 0.002872 0.0
-0.028379 0.002562 0.0
-0.029603 0.002215 0.0
-0.030637 0.001832 0.0
-0.031463 0.001415 0.0
-0.032065 0.000967 0.0
-0.032430 0.000493 0.0
-0.032547 -0.000003 0.0
-0.032405 -0.000514 0.0
-0.032000 -0.001034 0.0
-0.031332 -0.001553 0.0
-0.030403 -0.002061 0.0
-0.029221 -0.002548 0.0
-0.027802 -0.003003 0.0
-0.026163 -0.003413 0.0
-0.024330 -0.003768 0.0
-0.022334 -0.004055 0.0
-0.020211 -0.004265 0.0
-0.018001 -0.004388 0.0
-0.015748 -0.004419 0.0
-0.013498 -0.004352 0.0
-0.011301 -0.004186 0.0
-0.009202 -0.003923 0.0
-0.007249 -0.003568 0.0
-0.005483 -0.003130 0.0
-0.003940 -0.002624 0.0
-0.002648 -0.002069 0.0
-0.001623 -0.001490 0.0
-0.000870 -0.000924 0.0
-0.000375 -0.000418 0.0
-0.000107 -0.000042 0.0
-0.000012 0.000108 0.0
-0.000082 0.000142 0.0
-0.000409 0.000772 0.0
-0.001062 0.001567 0.0
-0.002032 0.002406 0.0
-0.003303 0.003211 0.0
-0.004848 0.003939 0.0
-0.006634 0.004566 0.0
-0.008623 0.005081 0.0
-0.010778 0.005483 0.0
-0.013057 0.005776 0.0
-0.015422 0.005965 0.0
-0.017836 0.006057 0.0
-0.020264 0.006061 0.0
-0.022672 0.005981 0.0
-0.025030 0.005824 0.0
-0.027307 0.005594 0.0
-0.029476 0.005296 0.0
-0.031511 0.004931 0.0
-0.033384 0.004503 0.0
-0.035072 0.004014 0.0
-0.036552 0.003466 0.0
-0.037800 0.002863 0.0
-0.038798 0.002207 0.0
-0.039525 0.001504 0.0
-0.039965 0.000761 0.0
-0.040106 -0.000015 0.0
-0.039937 -0.000814 0.0
-0.039451 -0.001624 0.0
-0.038648 -0.002433 0.0
-0.037532 -0.003225 0.0
-0.036113 -0.003984 0.0
-0.034408 -0.004693 0.0
-0.032438 -0.005332 0.0
-0.030233 -0.005886 0.0
-0.027830 -0.006336 0.0
-0.025271 -0.006667 0.0
-0.022602 -0.006865 0.0
-0.019875 -0.006921 0.0
-0.017145 -0.006828 0.0
-0.014469 -0.006583 0.0
-0.011902 -0.006190 0.0
-0.009498 -0.005657 0.0
-0.007307 -0.004998 0.0
-0.005370 -0.004236 0.0
-0.003722 -0.003398 0.0
-0.002384 -0.002524 0.0
-0.001363 -0.001664 0.0
-0.000652 -0.000884 0.0
-0.000224 -0.000271 0.0
-0.000039 0.000057 0.0
-0.000114 0.000338 0.0
-0.000552 0.001342 0.0
-0.001397 0.002495 0.0
-0.002618 0.003670 0.0
-0.004183 0.004783 0.0
-0.006054 0.005784 0.0
-0.008192 0.006645 0.0
-0.010552 0.007353 0.0
-0.013091 0.007905 0.0
-0.015764 0.008306 0.0
-0.018529 0.008564 0.0
-0.021343 0.008687 0.0
-0.024169 0.008684 0.0
-0.026969 0.008565 0.0
-0.029706 0.008336 0.0
-0.032349 0.008003 0.0
-0.034865 0.007572 0.0
-0.037223 0.007047 0.0
-0.039394 0.006432 0.0
-0.041351 0.005730 0.0
-0.043066 0.004945 0.0
-0.044515 0.004081 0.0
-0.045674 0.003144 0.0
-0.046521 0.002142 0.0
-0.047039 0.001082 0.0
-0.047211 -0.000023 0.0
-0.047026 -0.001160 0.0
-0.046477 -0.002312 0.0
-0.045563 -0.003462 0.0
-0.044288 -0.004588 0.0
-0.042663 -0.005666 0.0
-0.040706 -0.006674 0.0
-0.038442 -0.007585 0.0
-0.035905 -0.008375 0.0
-0.033133 -0.009021 0.0
-0.030175 -0.009500 0.0
-0.027083 -0.009793 0.0
-0.023917 -0.009887 0.0
-0.020737 -0.009772 0.0
-0.017607 -0.009445 0.0
-0.014592 -0.008911 0.0
-0.011752 -0.008180 0.0
-0.009145 -0.007274 0.0
-0.006819 -0.006222 0.0
-0.004814 -0.005064 0.0
-0.003158 -0.003852 0.0
-0.001864 -0.002650 0.0
-0.000930 -0.001542 0.0
-0.000340 -0.000630 0.0
-0.000064 -0.000046 0.0
-0.000144 0.000595 0.0
-0.000688 0.002067 0.0
-0.001718 0.003645 0.0
-0.003183 0.005206 0.0
-0.005034 0.006663 0.0
-0.007224 0.007965 0.0
-0.009702 0.009080 0.0
-0.012419 0.009995 0.0
-0.015325 0.010708 0.0
-0.018373 0.011224 0.0
-0.021514 0.011553 0.0
-0.024705 0.011704 0.0
-0.027903 0.011691 0.0
-0.031067 0.011522 0.0
-0.034159 0.011208 0.0
-0.037142 0.010756 0.0
-0.039981 0.010174 0.0
-0.042642 0.009466 0.0
-0.045094 0.008637 0.0
-0.047305 0.007693 0.0
-0.049246 0.006638 0.0
-0.050889 0.005479 0.0
-0.052207 0.004224 0.0
-0.053178 0.002881 0.0
-0.053780 0.001463 0.0
-0.053996 -0.000016 0.0
-0.053812 -0.001536 0.0
-0.053220 -0.003077 0.0
-0.052219 -0.004613 0.0
-0.050811 -0.006119 0.0
-0.049008 -0.007563 0.0
-0.046829 -0.008913 0.0
-0.044301 -0.010137 0.0
-0.041459 -0.011203 0.0
-0.038347 -0.012077 0.0
-0.035015 -0.012733 0.0
-0.031524 -0.013144 0.0
-0.027936 -0.013291 0.0
-0.024320 -0.013163 0.0
-0.020748 -0.012756 0.0
-0.017291 -0.012073 0.0
-0.014018 -0.011131 0.0
-0.010994 -0.009955 0.0
-0.008275 -0.008585 0.0
-0.005909 -0.007072 0.0
-0.003930 -0.005479 0.0
-0.002359 -0.003888 0.0
-0.001202 -0.002395 0.0
-0.000451 -0.001118 0.0
-0.000088 -0.000198 0.0
-0.000171 0.000911 0.0
-0.000814 0.002938 0.0
-0.002021 0.005010 0.0
-0.003721 0.007006 0.0
-0.005850 0.008844 0.0
-0.008348 0.010472 0.0
-0.011156 0.011859 0.0
-0.014218 0.012994 0.0
-0.017478 0.013875 0.0
-0.020884 0.014510 0.0
-0.024386 0.014910 0.0
-0.027935 0.015087 0.0
-0.031486 0.015057 0.0
-0.034997 0.014830 0.0
-0.038425 0.014419 0.0
-0.041731 0.013834 0.0
-0.044879 0.013082 0.0
-0.047832 0.012171 0.0
-0.050555 0.011107 0.0
-0.053015 0.009895 0.0
-0.055179 0.008542 0.0
-0.057018 0.007057 0.0
-0.058502 0.005449 0.0
-0.059606 0.003730 0.0
-0.060306 0.001915 0.0
-0.060582 0.000024 0.0
-0.060420 -0.001921 0.0
-0.059809 -0.003894 0.0
-0.058744 -0.005862 0.0
-0.057230 -0.007792 0.0
-0.055275 -0.009646 0.0
-0.052900 -0.011384 0.0
-0.050132 -0.012963 0.0
-0.047008 -0.014343 0.0
-0.043574 -0.015483 0.0
-0.039886 -0.016347 0.0
-0.036005 -0.016902 0.0
-0.032003 -0.017124 0.0
-0.027954 -0.016996 0.0
-0.023938 -0.016512 0.0
-0.020034 -0.015678 0.0
-0.016320 -0.014512 0.0
-0.012870 -0.013048 0.0
-0.009748 -0.011333 0.0
-0.007011 -0.009428 0.0
-0.004701 -0.007412 0.0
-0.002849 -0.005379 0.0
-0.001467 -0.003442 0.0
-0.000557 -0.001731 0.0
-0.000110 -0.000395 0.0
-0.000197 0.001279 0.0
-0.000933 0.003949 0.0
-0.002308 0.006580 0.0
-0.004233 0.009061 0.0
-0.006630 0.011315 0.0
-0.009426 0.013295 0.0
-0.012554 0.014972 0.0
-0.015950 0.016338 0.0
-0.019552 0.017394 0.0
-0.023305 0.018150 0.0
-0.027154 0.018620 0.0
-0.031049 0.018821 0.0
-0.034941 0.018767 0.0
-0.038785 0.018474 0.0
-0.042538 0.017956 0.0
-0.046159 0.017225 0.0
-0.049608 0.016289 0.0
-0.052848 0.015157 0.0
-0.055840 0.013836 0.0
-0.058550 0.012335 0.0
-0.060944 0.010660 0.0
-0.062987 0.008822 0.0
-0.064650 0.006831 0.0
-0.065903 0.004704 0.0
-0.066720 0.002458 0.0
-0.067079 0.000117 0.0
-0.066963 -0.002293 0.0
-0.066358 -0.004738 0.0
-0.065258 -0.007182 0.0
-0.063664 -0.009581 0.0
-0.061584 -0.011891 0.0
-0.059038 -0.014061 0.0
-0.056051 -0.016040 0.0
-0.052663 -0.017778 0.0
-0.048921 -0.019224 0.0
-0.044883 -0.020332 0.0
-0.040617 -0.021063 0.0
-0.036198 -0.021383 0.0
-0.031710 -0.021273 0.0
-0.027238 -0.020722 0.0
-0.022871 -0.019737 0.0
-0.018699 -0.018340 0.0
-0.014802 -0.016568 0.0
-0.011259 -0.014478 0.0
-0.008134 -0.012144 0.0
-0.005481 -0.009658 0.0
-0.003338 -0.007129 0.0
-0.001728 -0.004684 0.0
-0.000660 -0.002467 0.0
-0.000131 -0.000636 0.0
-0.000221 0.001698 0.0
-0.001046 0.005091 0.0
-0.002580 0.008346 0.0
-0.004720 0.011361 0.0
-0.007375 0.014068 0.0
-0.010460 0.016424 0.0
-0.013899 0.018409 0.0
-0.017619 0.020017 0.0
-0.021554 0.021254 0.0
-0.025644 0.022133 0.0
-0.029831 0.022673 0.0
-0.034062 0.022893 0.0
-0.038287 0.022811 0.0
-0.042458 0.022445 0.0
-0.046530 0.021811 0.0
-0.050462 0.020922 0.0
-0.054211 0.019790 0.0
-0.057739 0.018423 0.0
-0.061006 0.016830 0.0
-0.063974 0.015020 0.0
-0.066608 0.013002 0.0
-0.068871 0.010787 0.0
-0.070730 0.008388 0.0
-0.072154 0.005824 0.0
-0.073114 0.003115 0.0
-0.073583 0.000289 0.0
-0.073542 -0.002623 0.0
-0.072973 -0.005582 0.0
-0.071868 -0.008544 0.0
-0.070223 -0.011458 0.0
-0.068046 -0.014271 0.0
-0.065352 -0.016922 0.0
-0.062168 -0.019350 0.0
-0.058531 -0.021493 0.0
-0.054491 -0.023291 0.0
-0.050107 -0.024687 0.0
-0.045452 -0.025630 0.0
-0.040608 -0.026080 0.0
-0.035663 -0.026010 0.0
-0.030715 -0.025406 0.0
-0.025862 -0.024273 0.0
-0.021202 -0.022636 0.0
-0.016833 -0.020538 0.0
-0.012841 -0.018044 0.0
-0.009304 -0.015240 0.0
-0.006288 -0.012232 0.0
-0.003839 -0.009146 0.0
-0.001992 -0.006125 0.0
-0.000762 -0.003325 0.0
-0.000151 -0.000918 0.0
-0.000244 0.002163 0.0
-0.001152 0.006358 0.0
-0.002839 0.010299 0.0
-0.005186 0.013896 0.0
-0.008090 0.017091 0.0
-0.011455 0.019851 0.0
-0.015195 0.022160 0.0
-0.019231 0.024021 0.0
-0.023491 0.025445 0.0
-0.027911 0.026451 0.0
-0.032429 0.027061 0.0
-0.036991 0.027298 0.0
-0.041543 0.027183 0.0
-0.046038 0.026739 0.0
-0.050429 0.025982 0.0
-0.054672 0.024927 0.0
-0.058725 0.023588 0.0
-0.062547 0.021974 0.0
-0.066098 0.020096 0.0
-0.069338 0.017962 0.0
-0.072228 0.015583 0.0
-0.074732 0.012972 0.0
-0.076812 0.010143 0.0
-0.078434 0.007115 0.0
-0.079566 0.003915 0.0
-0.080177 0.000571 0.0
-0.080244 -0.002880 0.0
-0.079746 -0.006392 0.0
-0.078669 -0.009916 0.0
-0.077007 -0.013393 0.0
-0.074762 -0.016758 0.0
-0.071947 -0.019943 0.0
-0.068586 -0.022874 0.0
-0.064716 -0.025477 0.0
-0.060385 -0.027679 0.0
-0.055657 -0.029411 0.0
-0.050606 -0.030611 0.0
-0.045321 -0.031228 0.0
-0.039899 -0.031228 0.0
-0.034445 -0.030590 0.0
-0.029072 -0.029317 0.0
-0.023890 -0.027434 0.0
-0.019009 -0.024990 0.0
-0.014533 -0.022060 0.0
-0.010551 -0.018741 0.0
-0.007143 -0.015156 0.0
-0.004368 -0.011446 0.0
-0.002268 -0.007772 0.0
-0.000868 -0.004309 0.0
-0.000172 -0.001241 0.0
-0.000266 0.002673 0.0
-0.001254 0.007745 0.0
-0.003087 0.012432 0.0
-0.005634 0.016658 0.0
-0.008779 0.020377 0.0
-0.012415 0.023566 0.0
-0.016448 0.026218 0.0
-0.020793 0.028344 0.0
-0.025372 0.029962 0.0
-0.030115 0.031098 0.0
-0.034960 0.031778 0.0
-0.039848 0.032030 0.0
-0.044726 0.031881 0.0
-0.049544 0.031354 0.0
-0.054255 0.030469 0.0
-0.058814 0.029243 0.0
-0.063179 0.027690 0.0
-0.067306 0.025821 0.0
-0.071154 0.023648 0.0
-0.074683 0.021179 0.0
-0.077852 0.018426 0.0
-0.080621 0.015402 0.0
-0.082951 0.012123 0.0
-0.084803 0.008610 0.0
-0.086141 0.004890 0.0
-0.086932 0.000998 0.0
-0.087146 -0.003026 0.0
-0.086757 -0.007133 0.0
-0.085747 -0.011263 0.0
-0.084103 -0.015351 0.0
-0.081824 -0.019324 0.0
-0.078917 -0.023099 0.0
-0.075403 -0.026593 0.0
-0.071315 -0.029716 0.0
-0.066703 -0.032383 0.0
-0.061629 -0.034509 0.0
-0.056174 -0.036019 0.0
-0.050429 -0.036850 0.0
-0.044502 -0.036955 0.0
-0.038510 -0.036308 0.0
-0.032575 -0.034906 0.0
-0.026826 -0.032775 0.0
-0.021388 -0.029968 0.0
-0.016380 -0.026567 0.0
-0.011910 -0.022685 0.0
-0.008073 -0.018459 0.0
-0.004940 -0.014051 0.0
-0.002566 -0.009641 0.0
-0.000981 -0.005425 0.0
-0.000194 -0.001607 0.0
-0.000287 0.003226 0.0
-0.001352 0.009246 0.0
-0.003326 0.014738 0.0
-0.006067 0.019640 0.0
-0.009445 0.023918 0.0
-0.013345 0.027561 0.0
-0.017665 0.030575 0.0
-0.022312 0.032978 0.0
-0.027203 0.034799 0.0
-0.032266 0.036068 0.0
-0.037434 0.036820 0.0
-0.042647 0.037089 0.0
-0.047850 0.036904 0.0
-0.052993 0.036292 0.0
-0.058028 0.035276 0.0
-0.062910 0.033876 0.0
-0.067595 0.032105 0.0
-0.072040 0.029978 0.0
-0.076203 0.027503 0.0
-0.080042 0.024692 0.0
-0.083514 0.021555 0.0
-0.086577 0.018105 0.0
-0.089188 0.014360 0.0
-0.091306 0.010342 0.0
-0.092890 0.006080 0.0
-0.093901 0.001610 0.0
-0.094304 -0.003022 0.0
-0.094069 -0.007762 0.0
-0.093168 -0.012545 0.0
-0.091584 -0.017297 0.0
-0.089309 -0.021933 0.0
-0.086343 -0.026362 0.0
-0.082703 -0.030484 0.0
-0.078418 -0.034197 0.0
-0.073535 -0.037397 0.0
-0.068117 -0.039985 0.0
-0.062247 -0.041868 0.0
-0.056024 -0.042969 0.0
-0.049562 -0.043226 0.0
-0.042990 -0.042602 0.0
-0.036447 -0.041090 0.0
-0.030077 -0.038711 0.0
-0.024025 -0.035522 0.0
-0.018431 -0.031615 0.0
-0.013420 -0.027116 0.0
-0.009105 -0.022180 0.0
-0.005576 -0.016991 0.0
-0.002897 -0.011754 0.0
-0.001107 -0.006687 0.0
-0.000219 -0.002020 0.0
-0.000307 0.003820 0.0
-0.001447 0.010857 0.0
-0.003558 0.017211 0.0
-0.006486 0.022835 0.0
-0.010092 0.027707 0.0
-0.014250 0.031831 0.0
-0.018850 0.035225 0.0
-0.023794 0.037918 0.0
-0.028993 0.039949 0.0
-0.034371 0.041358 0.0
-0.039859 0.042186 0.0
-0.045395 0.042472 0.0
-0.050924 0.042252 0.0
-0.056394 0.041556 0.0
-0.061758 0.040411 0.0
-0.066970 0.038836 0.0
-0.071987 0.036847 0.0
-0.076766 0.034459 0.0
-0.081262 0.031681 0.0
-0.085433 0.028524 0.0
-0.089235 0.024997 0.0
-0.092623 0.021113 0.0
-0.095551 0.016891 0.0
-0.097973 0.012351 0.0
-0.099845 0.007526 0.0
-0.101122 0.002452 0.0
-0.101761 -0.002820 0.0
-0.101726 -0.008234 0.0
-0.100983 -0.013716 0.0
-0.099506 -0.019186 0.0
-0.097277 -0.024548 0.0
-0.094292 -0.029698 0.0
-0.090558 -0.034522 0.0
-0.086101 -0.038902 0.0
-0.080962 -0.042715 0.0
-0.075205 -0.045842 0.0
-0.068913 -0.048173 0.0
-0.062191 -0.049610 0.0
-0.055162 -0.050075 0.0
-0.047968 -0.049518 0.0
-0.040764 -0.047920 0.0
-0.033714 -0.045300 0.0
-0.026984 -0.041715 0.0
-0.020736 -0.037265 0.0
-0.015121 -0.032091 0.0
-0.010271 -0.026370 0.0
-0.006294 -0.020308 0.0
-0.003271 -0.014139 0.0
-0.001249 -0.008113 0.0
-0.000247 -0.002486 0.0
-0.000327 0.004453 0.0
-0.001539 0.012576 0.0
-0.003784 0.019848 0.0
-0.006895 0.026237 0.0
-0.010723 0.031738 0.0
-0.015133 0.036369 0.0
-0.020008 0.040162 0.0
-0.025242 0.043159 0.0
-0.030744 0.045410 0.0
-0.036434 0.046965 0.0
-0.042239 0.047873 0.0
-0.048097 0.048180 0.0
-0.053952 0.047928 0.0
-0.059752 0.047151 0.0
-0.065451 0.045878 0.0
-0.071002 0.044131 0.0
-0.076362 0.041929 0.0
-0.081488 0.039283 0.0
-0.086337 0.036203 0.0
-0.090864 0.032700 0.0
-0.095023 0.028782 0.0
-0.098768 0.024461 0.0
-0.102049 0.019753 0.0
-0.104817 0.014680 0.0
-0.107021 0.009273 0.0
-0.108611 0.003572 0.0
-0.109537 -0.002373 0.0
-0.109755 -0.008498 0.0
-0.109222 -0.014728 0.0
-0.107902 -0.020971 0.0
-0.105770 -0.027124 0.0
-0.102810 -0.033068 0.0
-0.099022 -0.038674 0.0
-0.094423 -0.043806 0.0
-0.089050 -0.048321 0.0
-0.082964 -0.052079 0.0
-0.076247 -0.054945 0.0
-0.069009 -0.056798 0.0
-0.061383 -0.057542 0.0
-0.053523 -0.057106 0.0
-0.045602 -0.055458 0.0
-0.037806 -0.052609 0.0
-0.030325 -0.048616 0.0
-0.023349 -0.043588 0.0
-0.017055 -0.037679 0.0
-0.011600 -0.031087 0.0
-0.007116 -0.024051 0.0
-0.003700 -0.016835 0.0
-0.001414 -0.009724 0.0
-0.000279 -0.003011 0.0
-0.000346 0.005126 0.0
-0.001630 0.014400 0.0
-0.004005 0.022644 0.0
-0.007295 0.029842 0.0
-0.011339 0.036006 0.0
-0.015997 0.041169 0.0
-0.021141 0.045380 0.0
-0.026661 0.048695 0.0
-0.032461 0.051176 0.0
-0.038457 0.052884 0.0
-0.044576 0.053878 0.0
-0.050755 0.054212 0.0
-0.056935 0.053932 0.0
-0.063067 0.053079 0.0
-0.069104 0.051684 0.0
-0.075000 0.049772 0.0
-0.080714 0.047361 0.0
-0.086202 0.044464 0.0
-0.091421 0.041090 0.0
-0.096325 0.037246 0.0
-0.100869 0.032939 0.0
-0.105002 0.028181 0.0
-0.108673 0.022984 0.0
-0.111827 0.017370 0.0
-0.114408 0.011368 0.0
-0.116361 0.005019 0.0
-0.117627 -0.001627 0.0
-0.118152 -0.008502 0.0
-0.117886 -0.015525 0.0
-0.116781 -0.022599 0.0
-0.114800 -0.029609 0.0
-0.111918 -0.036425 0.0
-0.108122 -0.042901 0.0
-0.103421 -0.048880 0.0
-0.097844 -0.054198 0.0
-0.091446 -0.058688 0.0
-0.084309 -0.062189 0.0
-0.076545 -0.064555 0.0
-0.068295 -0.065661 0.0
-0.059726 -0.065414 0.0
-0.051031 -0.063764 0.0
-0.042419 -0.060710 0.0
-0.034110 -0.056306 0.0
-0.026321 -0.050664 0.0
-0.019263 -0.043955 0.0
-0.013124 -0.036405 0.0
-0.008062 -0.028280 0.0
-0.004196 -0.019887 0.0
-0.001605 -0.011550 0.0
-0.000317 -0.003608 0.0
-0.000365 0.005837 0.0
-0.001718 0.016326 0.0
-0.004221 0.025595 0.0
-0.007686 0.033645 0.0
-0.011943 0.040505 0.0
-0.016842 0.046227 0.0
-0.022250 0.050875 0.0
-0.028050 0.054521 0.0
-0.034143 0.057243 0.0
-0.040441 0.059112 0.0
-0.046870 0.060198 0.0
-0.053365 0.060565 0.0
-0.059869 0.060264 0.0
-0.066332 0.059342 0.0
-0.072709 0.057834 0.0
-0.078955 0.055766 0.0
-0.085029 0.053156 0.0
-0.090890 0.050018 0.0
-0.096493 0.046358 0.0
-0.101795 0.042183 0.0
-0.106747 0.037497 0.0
-0.111297 0.032307 0.0
-0.115392 0.026623 0.0
-0.118971 0.020465 0.0
-0.121975 0.013859 0.0
-0.124339 0.006844 0.0
-0.125998 -0.000527 0.0
-0.126889 -0.008185 0.0
-0.126949 -0.016048 0.0
-0.126120 -0.024009 0.0
-0.124353 -0.031947 0.0
-0.121607 -0.039716 0.0
-0.117859 -0.047154 0.0
-0.113105 -0.054083 0.0
-0.107363 -0.060314 0.0
-0.100681 -0.065652 0.0
-0.093138 -0.069906 0.0
-0.084845 -0.072896 0.0
-0.075952 -0.074465 0.0
-0.066637 -0.074493 0.0
-0.057114 -0.072904 0.0
-0.047616 -0.069680 0.0
-0.038394 -0.064867 0.0
-0.029703 -0.058582 0.0
-0.021788 -0.051010 0.0
-0.014875 -0.042403 0.0
-0.009154 -0.033066 0.0
-0.004772 -0.023348 0.0
-0.001828 -0.013626 0.0
-0.000361 -0.004286 0.0
-0.000383 0.006585 0.0
-0.001805 0.018353 0.0
-0.004433 0.028699 0.0
-0.008069 0.037642 0.0
-0.012535 0.045231 0.0
-0.017670 0.051536 0.0
-0.023336 0.056639 0.0
-0.029410 0.060632 0.0
-0.035789 0.063603 0.0
-0.042382 0.065642 0.0
-0.049114 0.066829 0.0
-0.055919 0.067235 0.0
-0.062742 0.066922 0.0
-0.069533 0.065940 0.0
-0.076248 0.064328 0.0
-0.082844 0.062115 0.0
-0.089283 0.059320 0.0
-0.095522 0.055954 0.0
-0.101521 0.052024 0.0
-0.107234 0.047532 0.0
-0.112614 0.042479 0.0
-0.117606 0.036867 0.0
-0.122153 0.030704 0.0
-0.126194 0.024004 0.0
-0.129661 0.016790 0.0
-0.132484 0.009099 0.0
-0.134589 0.000983 0.0
-0.135902 -0.007491 0.0
-0.136350 -0.016234 0.0
-0.135862 -0.025139 0.0
-0.134374 -0.034073 0.0
-0.131832 -0.042878 0.0
-0.128196 -0.051375 0.0
-0.123448 -0.059364 0.0
-0.117593 -0.066629 0.0
-0.110668 -0.072943 0.0
-0.102745 -0.078080 0.0
-0.093935 -0.081823 0.0
-0.084390 -0.083977 0.0
-0.074301 -0.084384 0.0
-0.063900 -0.082938 0.0
-0.053449 -0.079596 0.0
-0.043231 -0.074391 0.0
-0.033543 -0.067438 0.0
-0.024671 -0.058940 0.0
-0.016884 -0.049173 0.0
-0.010414 -0.038487 0.0
-0.005440 -0.027282 0.0
-0.002087 -0.015990 0.0
-0.000414 -0.005061 0.0
-0.000402 0.007370 0.0
-0.001890 0.020479 0.0
-0.004641 0.031952 0.0
-0.008445 0.041829 0.0
-0.013114 0.050178 0.0
-0.018481 0.057090 0.0
-0.024398 0.062667 0.0
-0.030739 0.067019 0.0
-0.037395 0.070251 0.0
-0.044275 0.072468 0.0
-0.051301 0.073761 0.0
-0.058408 0.074215 0.0
-0.065541 0.073897 0.0
-0.072652 0.072865 0.0
-0.079698 0.071162 0.0
-0.086640 0.068818 0.0
-0.093439 0.065854 0.0
-0.100058 0.062279 0.0
-0.106455 0.058096 0.0
-0.112587 0.053306 0.0
-0.118406 0.047903 0.0
-0.123857 0.041886 0.0
-0.128882 0.035257 0.0
-0.133413 0.028023 0.0
-0.137379 0.020204 0.0
-0.140703 0.011832 0.0
-0.143302 0.002955 0.0
-0.145093 -0.006359 0.0
-0.145991 -0.016021 0.0
-0.145910 -0.025921 0.0
-0.144772 -0.035917 0.0
-0.142506 -0.045842 0.0
-0.139055 -0.055498 0.0
-0.134384 -0.064662 0.0
-0.128481 -0.073089 0.0
-0.121369 -0.080519 0.0
-0.113111 -0.086686 0.0
-0.103810 -0.091328 0.0
-0.093620 -0.094207 0.0
-0.082742 -0.095120 0.0
-0.071425 -0.093920 0.0
-0.059959 -0.090531 0.0
-0.048665 -0.084966 0.0
-0.037883 -0.077335 0.0
-0.027949 -0.067849 0.0
-0.019182 -0.056817 0.0
-0.011862 -0.044634 0.0
-0.006213 -0.031758 0.0
-0.002390 -0.018690 0.0
-0.000475 -0.005950 0.0
-0.000419 0.008191 0.0
-0.001974 0.022701 0.0
-0.004845 0.035352 0.0
-0.008813 0.046202 0.0
-0.013681 0.055342 0.0
-0.019273 0.062884 0.0
-0.025434 0.068952 0.0
-0.032033 0.073674 0.0
-0.038957 0.077176 0.0
-0.046112 0.079578 0.0
-0.053421 0.080986 0.0
-0.060817 0.081494 0.0
-0.068246 0.081181 0.0
-0.075663 0.080110 0.0
-0.083027 0.078328 0.0
-0.090302 0.075869 0.0
-0.097452 0.072753 0.0
-0.104442 0.068988 0.0
-0.111232 0.064575 0.0
-0.117782 0.059509 0.0
-0.124043 0.053780 0.0
-0.129961 0.047379 0.0
-0.135475 0.040303 0.0
-0.140517 0.032551 0.0
-0.145009 0.024136 0.0
-0.148870 0.015084 0.0
-0.152007 0.005440 0.0
-0.154327 -0.004732 0.0
-0.155731 -0.015345 0.0
-0.156123 -0.026285 0.0
-0.155408 -0.037407 0.0
-0.153496 -0.048530 0.0
-0.150312 -0.059444 0.0
-0.145799 -0.069900 0.0
-0.139928 -0.079624 0.0
-0.132704 -0.088320 0.0
-0.124171 -0.095676 0.0
-0.114427 -0.101384 0.0
-0.103619 -0.105150 0.0
-0.091955 -0.106719 0.0
-0.079701 -0.105893 0.0
-0.067172 -0.102553 0.0
-0.054729 -0.096680 0.0
-0.042759 -0.088372 0.0
-0.031656 -0.077847 0.0
-0.021798 -0.065443 0.0
-0.013521 -0.051604 0.0
-0.007102 -0.036856 0.0
-0.002740 -0.021778 0.0
-0.000546 -0.006971 0.0
-0.000437 0.009047 0.0
-0.002055 0.025018 0.0
-0.005044 0.038895 0.0
-0.009174 0.050758 0.0
-0.014236 0.060718 0.0
-0.020046 0.068911 0.0
-0.026443 0.075484 0.0
-0.033290 0.080587 0.0
-0.040469 0.084367 0.0
-0.047886 0.086959 0.0
-0.055460 0.088487 0.0
-0.063126 0.089056 0.0
-0.070833 0.088755 0.0
-0.078536 0.087655 0.0
-0.086199 0.085809 0.0
-0.093786 0.083251 0.0
-0.101267 0.080002 0.0
-0.108609 0.076070 0.0
-0.115776 0.071451 0.0
-0.122729 0.066135 0.0
-0.129423 0.060107 0.0
-0.135803 0.053350 0.0
-0.141808 0.045851 0.0
-0.147368 0.037604 0.0
-0.152402 0.028610 0.0
-0.156823 0.018890 0.0
-0.160531 0.008479 0.0
-0.163422 -0.002561 0.0
-0.165387 -0.014147 0.0
-0.166315 -0.026164 0.0
-0.166094 -0.038464 0.0
-0.164618 -0.050861 0.0
-0.161790 -0.063126 0.0
-0.157530 -0.074990 0.0
-0.151786 -0.086149 0.0
-0.144540 -0.096266 0.0
-0.135818 -0.104984 0.0
-0.125701 -0.111938 0.0
-0.114328 -0.116776 0.0
-0.101907 -0.119177 0.0
-0.088714 -0.118881 0.0
-0.075093 -0.115714 0.0
-0.061442 -0.109613 0.0
-0.048199 -0.100652 0.0
-0.035822 -0.089048 0.0
-0.024756 -0.075167 0.0
-0.015410 -0.059504 0.0
-0.008121 -0.042663 0.0
-0.003144 -0.025311 0.0
-0.000629 -0.008146 0.0
-0.000454 0.009937 0.0
-0.002136 0.027428 0.0
-0.005241 0.042579 0.0
-0.009528 0.055490 0.0
-0.014779 0.066298 0.0
-0.020801 0.075162 0.0
-0.027424 0.082253 0.0
-0.034506 0.087746 0.0
-0.041926 0.091808 0.0
-0.049585 0.094594 0.0
-0.057404 0.096244 0.0
-0.065318 0.096879 0.0
-0.073277 0.096597 0.0
-0.081238 0.095478 0.0
-0.089169 0.093579 0.0
-0.097038 0.090938 0.0
-0.104819 0.087577 0.0
-0.112483 0.083500 0.0
-0.119998 0.078703 0.0
-0.127327 0.073167 0.0
-0.134429 0.066870 0.0
-0.141250 0.059789 0.0
-0.147732 0.051900 0.0
-0.153802 0.043185 0.0
-0.159378 0.033639 0.0
-0.164368 0.023270 0.0
-0.168666 0.012105 0.0
-0.172160 0.000198 0.0
-0.174730 -0.012371 0.0
-0.176251 -0.025490 0.0
-0.176595 -0.039013 0.0
-0.175637 -0.052746 0.0
-0.173258 -0.066449 0.0
-0.169354 -0.079831 0.0
-0.163847 -0.092559 0.0
-0.156691 -0.104257 0.0
-0.147889 -0.114517 0.0
-0.137497 -0.122915 0.0
-0.125641 -0.129029 0.0
-0.112521 -0.132465 0.0
-0.098420 -0.132887 0.0
-0.083702 -0.130048 0.0
-0.068803 -0.123830 0.0
-0.054216 -0.114265 0.0
-0.040467 -0.101561 0.0
-0.028081 -0.086105 0.0
-0.017547 -0.068447 0.0
-0.009282 -0.049273 0.0
-0.003606 -0.029355 0.0
-0.000724 -0.009499 0.0
-0.000471 0.010862 0.0
-0.002215 0.029929 0.0
-0.005434 0.046401 0.0
-0.009875 0.060397 0.0
-0.015311 0.072078 0.0
-0.021536 0.081629 0.0
-0.028376 0.089249 0.0
-0.035679 0.095135 0.0
-0.043321 0.099480 0.0
-0.051201 0.102461 0.0
-0.059239 0.104234 0.0
-0.067371 0.104935 0.0
-0.075547 0.104676 0.0
-0.083731 0.103544 0.0
-0.091890 0.101603 0.0
-0.100000 0.098894 0.0
-0.108038 0.095439 0.0
-0.115979 0.091243 0.0
-0.123796 0.086293 0.0
-0.131459 0.080568 0.0
-0.138927 0.074038 0.0
-0.146153 0.066669 0.0
-0.153078 0.058426 0.0
-0.159632 0.049282 0.0
-0.165731 0.039218 0.0
-0.171281 0.028230 0.0
-0.176173 0.016335 0.0
-0.180286 0.003576 0.0
-0.183491 -0.009974 0.0
-0.185651 -0.024207 0.0
-0.186624 -0.038980 0.0
-0.186264 -0.054098 0.0
-0.184430 -0.069310 0.0
-0.180994 -0.084310 0.0
-0.175846 -0.098735 0.0
-0.168913 -0.112170 0.0
-0.160163 -0.124156 0.0
-0.149626 -0.134205 0.0
-0.137402 -0.141819 0.0
-0.123678 -0.146519 0.0
-0.108734 -0.147878 0.0
-0.092948 -0.145562 0.0
-0.076789 -0.139374 0.0
-0.060808 -0.129290 0.0
-0.045602 -0.115491 0.0
-0.031788 -0.098376 0.0
-0.019948 -0.078549 0.0
-0.010596 -0.056787 0.0
-0.004134 -0.033978 0.0
-0.000834 -0.011057 0.0
-0.000487 0.011820 0.0
-0.002294 0.032521 0.0
-0.005625 0.050359 0.0
-0.010219 0.065474 0.0
-0.015834 0.078051 0.0
-0.022256 0.088303 0.0
-0.029299 0.096457 0.0
-0.036807 0.102738 0.0
-0.044651 0.107364 0.0
-0.052726 0.110533 0.0
-0.060951 0.112424 0.0
-0.069264 0.113189 0.0
-0.077617 0.112952 0.0
-0.085975 0.111810 0.0
-0.094313 0.109834 0.0
-0.102609 0.107069 0.0
-0.110846 0.103538 0.0
-0.119005 0.099243 0.0
-0.127065 0.094170 0.0
-0.134999 0.088288 0.0
-0.142774 0.081561 0.0
-0.150345 0.073943 0.0
-0.157660 0.065391 0.0
-0.164649 0.055861 0.0
-0.171232 0.045323 0.0
-0.177313 0.033757 0.0
-0.182782 0.021168 0.0
-0.187512 0.007586 0.0
-0.191367 -0.006925 0.0
-0.194197 -0.022265 0.0
-0.195849 -0.038298 0.0
-0.196160 -0.054829 0.0
-0.194966 -0.071605 0.0
-0.192113 -0.088305 0.0
-0.187460 -0.104540 0.0
-0.180899 -0.119860 0.0
-0.172361 -0.133754 0.0
-0.161839 -0.145666 0.0
-0.149401 -0.155019 0.0
-0.135208 -0.161236 0.0
-0.119527 -0.163785 0.0
-0.102742 -0.162227 0.0
-0.085350 -0.156260 0.0
-0.067953 -0.145783 0.0
-0.051228 -0.130928 0.0
-0.035887 -0.112093 0.0
-0.022628 -0.089931 0.0
-0.012074 -0.065312 0.0
-0.004732 -0.039258 0.0
-0.000959 -0.012850 0.0
-0.000504 0.012812 0.0
-0.002372 0.035204 0.0
-0.005817 0.054453 0.0
-0.010562 0.070719 0.0
-0.016352 0.084212 0.0
-0.022963 0.095175 0.0
-0.030199 0.103864 0.0
-0.037894 0.110535 0.0
-0.045915 0.115432 0.0
-0.054154 0.118780 0.0
-0.062529 0.120778 0.0
-0.070978 0.121597 0.0
-0.079456 0.121375 0.0
-0.087933 0.120221 0.0
-0.096387 0.118213 0.0
-0.104802 0.115401 0.0
-0.113166 0.111808 0.0
-0.121467 0.107434 0.0
-0.129690 0.102262 0.0
-0.137816 0.096256 0.0
-0.145816 0.089368 0.0
-0.153654 0.081545 0.0
-0.161280 0.072729 0.0
-0.168633 0.062865 0.0
-0.175636 0.051904 0.0
-0.182194 0.039815 0.0
-0.188197 0.026583 0.0
-0.193519 0.012224 0.0
-0.198015 -0.003212 0.0
-0.201530 -0.019633 0.0
-0.203898 -0.036911 0.0