# vtk DataFile Version 3.0
Vector Field
ASCII
DATASET RECTILINEAR_GRID
DIMENSIONS 50 50 1
X_COORDINATES 50 double
0.100000 0.300000 0.500000 0.700000 0.900000 1.100000 1.300000 1.500000 1.700000 1.900000 2.100000 2.300000 2.500000 2.700000 2.900000 3.100000 3.300000 3.500000 3.700000 3.900000 4.100000 4.300000 4.500000 4.700000 4.900000 5.100000 5.300000 5.500000 5.700000 5.900000 6.100000 6.300000 6.500000 6.700000 6.900000 7.100000 7.300000 7.500000 7.700000 7.900000 8.100000 8.300000 8.500000 8.700000 8.900000 9.100000 9.300000 9.500000 9.700000 9.900000 
Y_COORDINATES 50 double
0.100000 0.300000 0.500000 0.700000 0.900000 1.100000 1.300000 1.500000 1.700000 1.900000 2.100000 2.300000 2.500000 2.700000 2.900000 3.100000 3.300000 3.500000 3.700000 3.900000 4.100000 4.300000 4.500000 4.700000 4.900000 5.100000 5.300000 5.500000 5.700000 5.900000 6.100000 6.300000 6.500000 6.700000 6.900000 7.100000 7.300000 7.500000 7.700000 7.900000 8.100000 8.300000 8.500000 8.700000 8.900000 9.100000 9.300000 9.500000 9.700000 9.900000 
Z_COORDINATES 1 double
0.0
POINT_DATA 2500
VECTORS Vektorfeld double
-0.000250 0.000250 0.0
-0.001253 0.000752 0.0
-0.003011 0.001006 0.0
-0.005121 0.001104 0.0
-0.007363 0.001138 0.0
-0.009652 0.001151 0.0
-0.011967 0.001163 0.0
-0.014308 0.001178 0.0
-0.016684 0.001197 0.0
-0.019101 0.001220 0.0
-0.021568 0.001246 0.0
-0.024089 0.001275 0.0
-0.026669 0.001306 0.0
-0.029314 0.001339 0.0
-0.032025 0.001373 0.0
-0.034805 0.001407 0.0
-0.037655 0.001442 0.0
-0.040572 0.001475 0.0
-0.043553 0.001505 0.0
-0.046589 0.001531 0.0
-0.049671 0.001550 0.0
-0.052780 0.001559 0.0
-0.055894 0.001555 0.0
-0.058984 0.001534 0.0
-0.062010 0.001492 0.0
-0.064925 0.001423 0.0
-0.067670 0.001322 0.0
-0.070177 0.001184 0.0
-0.072366 0.001005 0.0
-0.074151 0.000780 0.0
-0.075439 0.000508 0.0
-0.076137 0.000191 0.0
-0.076163 -0.000165 0.0
-0.075426 -0.000572 0.0
-0.073836 -0.001018 0.0
-0.071333 -0.001485 0.0
-0.067899 -0.001950 0.0
-0.063557 -0.002392 0.0
-0.058380 -0.002785 0.0
-0.052488 -0.003107 0.0
-0.046042 -0.003340 0.0
-0.039233 -0.003470 0.0
-0.032272 -0.003491 0.0
-0.025377 -0.003404 0.0
-0.018766 -0.003208 0.0
-0.012664 -0.002895 0.0
-0.007334 -0.002436 0.0
-0.003127 -0.001771 0.0
-0.000513 -0.000842 0.0
0.000165 0.000165 0.0
-0.000815 0.001315 0.0
-0.003332 0.003207 0.0
-0.007189 0.004166 0.0
-0.011708 0.004572 0.0
-0.016525 0.004730 0.0
-0.021479 0.004802 0.0
-0.026510 0.004857 0.0
-0.031604 0.004919 0.0
-0.036765 0.004993 0.0
-0.042001 0.005079 0.0
-0.047322 0.005175 0.0
-0.052734 0.005279 0.0
-0.058242 0.005391 0.0
-0.063851 0.005507 0.0
-0.069559 0.005625 0.0
-0.075366 0.005742 0.0
-0.081264 0.005855 0.0
-0.087242 0.005957 0.0
-0.093282 0.006044 0.0
-0.099361 0.006108 0.0
-0.105445 0.006139 0.0
-0.111491 0.006126 0.0
-0.117446 0.006057 0.0
-0.123241 0.005917 0.0
-0.128794 0.005689 0.0
-0.134010 0.005356 0.0
-0.138776 0.004900 0.0
-0.142966 0.004303 0.0
-0.146441 0.003550 0.0
-0.149054 0.002632 0.0
-0.150653 0.001544 0.0
-0.151089 0.000290 0.0
-0.150208 -0.001118 0.0
-0.147879 -0.002684 0.0
-0.144014 -0.004361 0.0
-0.138570 -0.006088 0.0
-0.131560 -0.007792 0.0
-0.123056 -0.009395 0.0
-0.113197 -0.010816 0.0
-0.102186 -0.011979 0.0
-0.090278 -0.012822 0.0
-0.077771 -0.013303 0.0
-0.064989 -0.013401 0.0
-0.052265 -0.013113 0.0
-0.039941 -0.012434 0.0
-0.028382 -0.011329 0.0
-0.018024 -0.009690 0.0
-0.009441 -0.007307 0.0
-0.003384 -0.003978 0.0
-0.000546 -0.000216 0.0
-0.001169 0.003299 0.0
-0.004628 0.007200 0.0
-0.009742 0.009145 0.0
-0.015636 0.010006 0.0
-0.021893 0.010371 0.0
-0.028328 0.010550 0.0
-0.034867 0.010679 0.0
-0.041488 0.010812 0.0
-0.048189 0.010963 0.0
-0.054976 0.011133 0.0
-0.061856 0.011320 0.0
-0.068832 0.011522 0.0
-0.075909 0.011733 0.0
-0.083087 0.011950 0.0
-0.090362 0.012165 0.0
-0.097726 0.012372 0.0
-0.105165 0.012562 0.0
-0.112661 0.012724 0.0
-0.120186 0.012843 0.0
-0.127703 0.012904 0.0
-0.135165 0.012888 0.0
-0.142514 0.012772 0.0
-0.149676 0.012529 0.0
-0.156566 0.012130 0.0
-0.163079 0.011543 0.0
-0.169096 0.010736 0.0
-0.174483 0.009674 0.0
-0.179090 0.008326 0.0
-0.182755 0.006667 0.0
-0.185307 0.004680 0.0
-0.186573 0.002361 0.0
-0.186382 -0.000283 0.0
-0.184574 -0.003233 0.0
-0.181033 -0.006440 0.0
-0.175687 -0.009817 0.0
-0.168510 -0.013252 0.0
-0.159536 -0.016612 0.0
-0.148865 -0.019750 0.0
-0.136669 -0.022516 0.0
-0.123192 -0.024768 0.0
-0.108739 -0.026394 0.0
-0.093663 -0.027314 0.0
-0.078342 -0.027492 0.0
-0.063166 -0.026922 0.0
-0.048522 -0.025593 0.0
-0.034813 -0.023438 0.0
-0.022501 -0.020251 0.0
-0.012188 -0.015641 0.0
-0.004683 -0.009205 0.0
-0.000874 -0.001636 0.0
-0.001357 0.005825 0.0
-0.005338 0.012114 0.0
-0.011160 0.015166 0.0
-0.017817 0.016535 0.0
-0.024854 0.017138 0.0
-0.032080 0.017444 0.0
-0.039418 0.017663 0.0
-0.046846 0.017877 0.0
-0.054358 0.018111 0.0
-0.061958 0.018371 0.0
-0.069650 0.018653 0.0
-0.077437 0.018953 0.0
-0.085321 0.019263 0.0
-0.093298 0.019575 0.0
-0.101364 0.019880 0.0
-0.109505 0.020163 0.0
-0.117706 0.020411 0.0
-0.125941 0.020605 0.0
-0.134179 0.020723 0.0
-0.142375 0.020738 0.0
-0.150478 0.020620 0.0
-0.158420 0.020331 0.0
-0.166121 0.019833 0.0
-0.173486 0.019080 0.0
-0.180402 0.018023 0.0
-0.186742 0.016614 0.0
-0.192361 0.014802 0.0
-0.197101 0.012544 0.0
-0.200790 0.009802 0.0
-0.203247 0.006555 0.0
-0.204290 0.002795 0.0
-0.203741 -0.001459 0.0
-0.201443 -0.006162 0.0
-0.197275 -0.011221 0.0
-0.191150 -0.016507 0.0
-0.183035 -0.021854 0.0
-0.172960 -0.027060 0.0
-0.161030 -0.031904 0.0
-0.147436 -0.036152 0.0
-0.132455 -0.039590 0.0
-0.116443 -0.042037 0.0
-0.099817 -0.043373 0.0
-0.083030 -0.043541 0.0
-0.066541 -0.042539 0.0
-0.050789 -0.040371 0.0
-0.036203 -0.036955 0.0
-0.023239 -0.032009 0.0
-0.012477 -0.024958 0.0
-0.004713 -0.015158 0.0
-0.000848 -0.003357 0.0
-0.001445 0.008627 0.0
-0.005685 0.017532 0.0
-0.011872 0.021759 0.0
-0.018924 0.023650 0.0
-0.026361 0.024497 0.0
-0.033986 0.024935 0.0
-0.041725 0.025249 0.0
-0.049554 0.025547 0.0
-0.057469 0.025868 0.0
-0.065472 0.026218 0.0
-0.073567 0.026594 0.0
-0.081758 0.026990 0.0
-0.090043 0.027395 0.0
-0.098419 0.027798 0.0
-0.106880 0.028184 0.0
-0.115414 0.028535 0.0
-0.124002 0.028829 0.0
-0.132619 0.029040 0.0
-0.141232 0.029138 0.0
-0.149796 0.029085 0.0
-0.158258 0.028838 0.0
-0.166550 0.028347 0.0
-0.174591 0.027559 0.0
-0.182284 0.026411 0.0
-0.189517 0.024840 0.0
-0.196158 0.022778 0.0
-0.202061 0.020160 0.0
-0.207062 0.016927 0.0
-0.210984 0.013030 0.0
-0.213636 0.008437 0.0
-0.214823 0.003143 0.0
-0.214353 -0.002825 0.0
-0.212048 -0.009398 0.0
-0.207751 -0.016450 0.0
-0.201342 -0.023811 0.0
-0.192751 -0.031255 0.0
-0.181983 -0.038503 0.0
-0.169130 -0.045243 0.0
-0.154393 -0.051144 0.0
-0.138086 -0.055887 0.0
-0.120634 -0.059204 0.0
-0.102556 -0.060910 0.0
-0.084420 -0.060926 0.0
-0.066799 -0.059264 0.0
-0.050223 -0.055973 0.0
-0.035161 -0.051002 0.0
-0.022058 -0.044028 0.0
-0.011448 -0.034312 0.0
-0.004055 -0.020960 0.0
-0.000635 -0.004840 0.0
-0.001478 0.011551 0.0
-0.005822 0.023192 0.0
-0.012170 0.028635 0.0
-0.019401 0.031057 0.0
-0.027020 0.032146 0.0
-0.034825 0.032716 0.0
-0.042742 0.033124 0.0
-0.050750 0.033509 0.0
-0.058846 0.033917 0.0
-0.067033 0.034359 0.0
-0.075315 0.034831 0.0
-0.083696 0.035324 0.0
-0.092175 0.035825 0.0
-0.100751 0.036320 0.0
-0.109419 0.036790 0.0
-0.118167 0.037210 0.0
-0.126980 0.037554 0.0
-0.135834 0.037787 0.0
-0.144699 0.037869 0.0
-0.153534 0.037753 0.0
-0.162288 0.037385 0.0
-0.170897 0.036702 0.0
-0.179285 0.035633 0.0
-0.187358 0.034103 0.0
-0.195006 0.032028 0.0
-0.202099 0.029324 0.0
-0.208491 0.025908 0.0
-0.214012 0.021701 0.0
-0.218475 0.016640 0.0
-0.221676 0.010680 0.0
-0.223396 0.003808 0.0
-0.223411 -0.003945 0.0
-0.221497 -0.012497 0.0
-0.217445 -0.021701 0.0
-0.211072 -0.031343 0.0
-0.202254 -0.041132 0.0
-0.190944 -0.050705 0.0
-0.177204 -0.059634 0.0
-0.161236 -0.067458 0.0
-0.143399 -0.073717 0.0
-0.124213 -0.078011 0.0
-0.104341 -0.080053 0.0
-0.084537 -0.079723 0.0
-0.065559 -0.077066 0.0
-0.048082 -0.072224 0.0
-0.032641 -0.065254 0.0
-0.019659 -0.055860 0.0
-0.009574 -0.043177 0.0
-0.002966 -0.026096 0.0
-0.000308 -0.005783 0.0
-0.001480 0.014508 0.0
-0.005841 0.028940 0.0
-0.012231 0.035625 0.0
-0.019516 0.038583 0.0
-0.027192 0.039914 0.0
-0.035054 0.040615 0.0
-0.043029 0.041117 0.0
-0.051096 0.041590 0.0
-0.059254 0.042090 0.0
-0.067508 0.042627 0.0
-0.075864 0.043200 0.0
-0.084326 0.043797 0.0
-0.092898 0.044403 0.0
-0.101579 0.045000 0.0
-0.110367 0.045566 0.0
-0.119255 0.046071 0.0
-0.128231 0.046482 0.0
-0.137277 0.046759 0.0
-0.146367 0.046852 0.0
-0.155467 0.046706 0.0
-0.164534 0.046253 0.0
-0.173510 0.045420 0.0
-0.182326 0.044119 0.0
-0.190896 0.042259 0.0
-0.199113 0.039737 0.0
-0.206853 0.036449 0.0
-0.213968 0.032289 0.0
-0.220282 0.027156 0.0
-0.225596 0.020963 0.0
-0.229683 0.013644 0.0
-0.232291 0.005171 0.0
-0.233147 -0.004437 0.0
-0.231966 -0.015100 0.0
-0.228464 -0.026654 0.0
-0.222376 -0.038849 0.0
-0.213492 -0.051328 0.0
-0.201685 -0.063625 0.0
-0.186963 -0.075175 0.0
-0.169510 -0.085338 0.0
-0.149731 -0.093455 0.0
-0.128268 -0.098923 0.0
-0.105990 -0.101290 0.0
-0.083925 -0.100356 0.0
-0.063123 -0.096213 0.0
-0.044499 -0.089178 0.0
-0.028695 -0.079544 0.0
-0.016074 -0.067172 0.0
-0.006889 -0.051135 0.0
-0.001472 -0.030162 0.0
0.000122 -0.005969 0.0
-0.001464 0.017452 0.0
-0.005795 0.034689 0.0
-0.012158 0.042628 0.0
-0.019423 0.046130 0.0
-0.027084 0.047705 0.0
-0.034934 0.048536 0.0
-0.042898 0.049135 0.0
-0.050958 0.049700 0.0
-0.059114 0.050295 0.0
-0.067373 0.050935 0.0
-0.075743 0.051618 0.0
-0.084232 0.052330 0.0
-0.092844 0.053055 0.0
-0.101586 0.053771 0.0
-0.110457 0.054454 0.0
-0.119456 0.055070 0.0
-0.128578 0.055580 0.0
-0.137810 0.055938 0.0
-0.147135 0.056088 0.0
-0.156529 0.055964 0.0
-0.165956 0.055489 0.0
-0.175371 0.054575 0.0
-0.184712 0.053121 0.0
-0.193903 0.051017 0.0
-0.202848 0.048141 0.0
-0.211425 0.044363 0.0
-0.219488 0.039551 0.0
-0.226855 0.033575 0.0
-0.233312 0.026315 0.0
-0.238606 0.017673 0.0
-0.242444 0.007588 0.0
-0.244493 -0.003948 0.0
-0.244391 -0.016871 0.0
-0.241758 -0.031018 0.0
-0.236222 -0.046110 0.0
-0.227449 -0.061726 0.0
-0.215198 -0.077286 0.0
-0.199380 -0.092054 0.0
-0.180131 -0.105159 0.0
-0.157887 -0.115658 0.0
-0.133428 -0.122641 0.0
-0.107893 -0.125385 0.0
-0.082695 -0.123525 0.0
-0.059343 -0.117198 0.0
-0.039153 -0.107008 0.0
-0.022961 -0.093710 0.0
-0.011017 -0.077571 0.0
-0.003228 -0.057711 0.0
0.000500 -0.032733 0.0
0.000677 -0.005169 0.0
-0.001439 0.020355 0.0
-0.005709 0.040386 0.0
-0.012003 0.049587 0.0
-0.019205 0.053638 0.0
-0.026808 0.055460 0.0
-0.034603 0.056425 0.0
-0.042516 0.057124 0.0
-0.050530 0.057784 0.0
-0.058647 0.058482 0.0
-0.066875 0.059235 0.0
-0.075226 0.060039 0.0
-0.083710 0.060881 0.0
-0.092336 0.061743 0.0
-0.101115 0.062603 0.0
-0.110051 0.063431 0.0
-0.119151 0.064192 0.0
-0.128414 0.064843 0.0
-0.137840 0.065333 0.0
-0.147419 0.065598 0.0
-0.157138 0.065566 0.0
-0.166974 0.065150 0.0
-0.176893 0.064248 0.0
-0.186849 0.062746 0.0
-0.196777 0.060513 0.0
-0.206592 0.057405 0.0
-0.216183 0.053266 0.0
-0.225403 0.047931 0.0
-0.234072 0.041231 0.0
-0.241960 0.033004 0.0
-0.248787 0.023105 0.0
-0.254216 0.011423 0.0
-0.257851 -0.002099 0.0
-0.259237 -0.017437 0.0
-0.257877 -0.034444 0.0
-0.253258 -0.052838 0.0
-0.244887 -0.072140 0.0
-0.232360 -0.091650 0.0
-0.215443 -0.110426 0.0
-0.194174 -0.127304 0.0
-0.168976 -0.140956 0.0
-0.140746 -0.150032 0.0
-0.110909 -0.153366 0.0
-0.081377 -0.150273 0.0
-0.054333 -0.140846 0.0
-0.031788 -0.126094 0.0
-0.015014 -0.107589 0.0
-0.004122 -0.086529 0.0
0.001621 -0.062287 0.0
0.003053 -0.033317 0.0
0.001392 -0.003100 0.0
-0.001406 0.023200 0.0
-0.005596 0.046000 0.0
-0.011794 0.056465 0.0
-0.018903 0.061071 0.0
-0.026419 0.063145 0.0
-0.034132 0.064248 0.0
-0.041968 0.065051 0.0
-0.049909 0.065813 0.0
-0.057961 0.066622 0.0
-0.066135 0.067497 0.0
-0.074443 0.068436 0.0
-0.082901 0.069425 0.0
-0.091523 0.070447 0.0
-0.100322 0.071476 0.0
-0.109311 0.072483 0.0
-0.118502 0.073430 0.0
-0.127905 0.074272 0.0
-0.137528 0.074952 0.0
-0.147374 0.075404 0.0
-0.157442 0.075547 0.0
-0.167723 0.075286 0.0
-0.178201 0.074508 0.0
-0.188844 0.073084 0.0
-0.199606 0.070864 0.0
-0.210417 0.067680 0.0
-0.221180 0.063344 0.0
-0.231759 0.057653 0.0
-0.241974 0.050393 0.0
-0.251588 0.041345 0.0
-0.260300 0.030303 0.0
-0.267729 0.017084 0.0
-0.273413 0.001559 0.0
-0.276803 -0.016321 0.0
-0.277264 -0.036460 0.0
-0.274112 -0.058593 0.0
-0.266667 -0.082201 0.0
-0.254324 -0.106459 0.0
-0.236660 -0.130199 0.0
-0.213550 -0.151909 0.0
-0.185306 -0.169794 0.0
-0.152816 -0.181915 0.0
-0.117687 -0.186449 0.0
-0.082315 -0.182094 0.0
-0.049756 -0.168629 0.0
-0.023195 -0.147418 0.0
-0.004980 -0.121254 0.0
0.004726 -0.093461 0.0
0.007798 -0.064169 0.0
0.006274 -0.031343 0.0
0.002284 0.000576 0.0
-0.001368 0.025974 0.0
-0.005461 0.051509 0.0
-0.011543 0.063237 0.0
-0.018538 0.068404 0.0
-0.025944 0.070735 0.0
-0.033553 0.071980 0.0
-0.041290 0.072892 0.0
-0.049139 0.073763 0.0
-0.057106 0.074691 0.0
-0.065204 0.075700 0.0
-0.073451 0.076788 0.0
-0.081864 0.077944 0.0
-0.090462 0.079148 0.0
-0.099264 0.080376 0.0
-0.108291 0.081598 0.0
-0.117561 0.082776 0.0
-0.127095 0.083863 0.0
-0.136910 0.084800 0.0
-0.147024 0.085517 0.0
-0.157451 0.085929 0.0
-0.168198 0.085934 0.0
-0.179269 0.085409 0.0
-0.190652 0.084210 0.0
-0.202323 0.082171 0.0
-0.214235 0.079097 0.0
-0.226312 0.074767 0.0
-0.238438 0.068935 0.0
-0.250445 0.061333 0.0
-0.262100 0.051674 0.0
-0.273086 0.039671 0.0
-0.282988 0.025048 0.0
-0.291280 0.007573 0.0
-0.297331 -0.012894 0.0
-0.300370 -0.036387 0.0
-0.299537 -0.062651 0.0
-0.293976 -0.091149 0.0
-0.282891 -0.120939 0.0
-0.265646 -0.150628 0.0
-0.241865 -0.178370 0.0
-0.211551 -0.201890 0.0
-0.175286 -0.218573 0.0
-0.134510 -0.225697 0.0
-0.091815 -0.220913 0.0
-0.051103 -0.203081 0.0
-0.017243 -0.173387 0.0
0.005115 -0.135857 0.0
0.014794 -0.098242 0.0
0.015086 -0.062752 0.0
0.010069 -0.026219 0.0
0.003325 0.006186 0.0
-0.001324 0.028667 0.0
-0.005308 0.056894 0.0
-0.011255 0.069881 0.0
-0.018116 0.075615 0.0
-0.025394 0.078208 0.0
-0.032880 0.079601 0.0
-0.040499 0.080628 0.0
-0.048236 0.081614 0.0
-0.056098 0.082669 0.0
-0.064101 0.083823 0.0
-0.072265 0.085076 0.0
-0.080612 0.086416 0.0
-0.089165 0.087827 0.0
-0.097950 0.089284 0.0
-0.106993 0.090759 0.0
-0.116322 0.092214 0.0
-0.125967 0.093603 0.0
-0.135958 0.094866 0.0
-0.146327 0.095934 0.0
-0.157105 0.096716 0.0
-0.168319 0.097108 0.0
-0.179993 0.096979 0.0
-0.192144 0.096174 0.0
-0.204774 0.094509 0.0
-0.217867 0.091765 0.0
-0.231378 0.087687 0.0
-0.245223 0.081985 0.0
-0.259259 0.074327 0.0
-0.273274 0.064349 0.0
-0.286958 0.051665 0.0
-0.299884 0.035882 0.0
-0.311488 0.016636 0.0
-0.321043 -0.006352 0.0
-0.327700 -0.033233 0.0
-0.330534 -0.063804 0.0
-0.328575 -0.097515 0.0
-0.320903 -0.133332 0.0
-0.306645 -0.169738 0.0
-0.284988 -0.204700 0.0
-0.255279 -0.235583 0.0
-0.217334 -0.259090 0.0
-0.171901 -0.271389 0.0
-0.121217 -0.268599 0.0
-0.069530 -0.247794 0.0
-0.023350 -0.208713 0.0
0.009255 -0.155494 0.0
0.023297 -0.102327 0.0
0.022340 -0.058002 0.0
0.013987 -0.017599 0.0
0.004393 0.013904 0.0
-0.001276 0.031266 0.0
-0.005136 0.062138 0.0
-0.010932 0.076381 0.0
-0.017641 0.082685 0.0
-0.024773 0.085548 0.0
-0.032117 0.087093 0.0
-0.039600 0.088239 0.0
-0.047205 0.089345 0.0
-0.054941 0.090536 0.0
-0.062827 0.091845 0.0
-0.070886 0.093276 0.0
-0.079142 0.094819 0.0
-0.087624 0.096459 0.0
-0.096364 0.098176 0.0
-0.105394 0.099941 0.0
-0.114752 0.101720 0.0
-0.124477 0.103468 0.0
-0.134614 0.105129 0.0
-0.145208 0.106634 0.0
-0.156308 0.107894 0.0
-0.167965 0.108801 0.0
-0.180229 0.109223 0.0
-0.193145 0.108997 0.0
-0.206752 0.107923 0.0
-0.221073 0.105764 0.0
-0.236105 0.102232 0.0
-0.251809 0.096989 0.0
-0.268090 0.089640 0.0
-0.284773 0.079734 0.0
-0.301582 0.066772 0.0
-0.318108 0.050228 0.0
-0.333801 0.029587 0.0
-0.347969 0.004419 0.0
-0.359822 -0.025493 0.0
-0.368449 -0.060083 0.0
-0.372909 -0.098735 0.0
-0.372200 -0.140493 0.0
-0.365031 -0.184003 0.0
-0.349764 -0.227359 0.0
-0.324652 -0.267744 0.0
-0.288371 -0.301156 0.0
-0.240651 -0.322476 0.0
-0.182905 -0.325943 0.0
-0.118934 -0.306109 0.0
-0.055795 -0.259717 0.0
-0.004044 -0.188847 0.0
0.023849 -0.110909 0.0
0.026897 -0.051511 0.0
0.017011 -0.005852 0.0
0.005233 0.023530 0.0
-0.001222 0.033764 0.0
-0.004946 0.067225 0.0
-0.010574 0.082717 0.0
-0.017113 0.089598 0.0
-0.024081 0.092734 0.0
-0.031265 0.094435 0.0
-0.038591 0.095705 0.0
-0.046043 0.096936 0.0
-0.053632 0.098269 0.0
-0.061377 0.099743 0.0
-0.069303 0.101363 0.0
-0.077441 0.103125 0.0
-0.085821 0.105016 0.0
-0.094482 0.107019 0.0
-0.103462 0.109109 0.0
-0.112808 0.111256 0.0
-0.122571 0.113420 0.0
-0.132806 0.115549 0.0
-0.143576 0.117578 0.0
-0.154949 0.119424 0.0
-0.167001 0.120980 0.0
-0.179808 0.122116 0.0
-0.193453 0.122665 0.0
-0.208014 0.122423 0.0
-0.223564 0.121134 0.0
-0.240157 0.118487 0.0
-0.257819 0.114100 0.0
-0.276523 0.107514 0.0
-0.296171 0.098191 0.0
-0.316562 0.085516 0.0
-0.337378 0.068827 0.0
-0.358177 0.047478 0.0
-0.378424 0.020943 0.0
-0.397525 -0.011063 0.0
-0.414847 -0.048564 0.0
-0.429530 -0.091110 0.0
-0.440155 -0.138202 0.0
-0.444486 -0.189132 0.0
-0.439573 -0.242410 0.0
-0.422401 -0.294978 0.0
-0.390674 -0.341931 0.0
-0.343342 -0.376753 0.0
-0.280962 -0.391792 0.0
-0.206250 -0.378942 0.0
-0.125161 -0.331111 0.0
-0.048468 -0.245897 0.0
0.005893 -0.136112 0.0
0.024436 -0.047898 0.0
0.017541 0.007316 0.0
0.005460 0.034222 0.0
-0.001163 0.036149 0.0
-0.004738 0.072139 0.0
-0.010181 0.088873 0.0
-0.016533 0.096335 0.0
-0.023318 0.099749 0.0
-0.030323 0.101610 0.0
-0.037472 0.103005 0.0
-0.044749 0.104366 0.0
-0.052166 0.105844 0.0
-0.059743 0.107489 0.0
-0.067508 0.109309 0.0
-0.075494 0.111303 0.0
-0.083736 0.113462 0.0
-0.092277 0.115774 0.0
-0.101162 0.118220 0.0
-0.110446 0.120775 0.0
-0.120189 0.123406 0.0
-0.130460 0.126069 0.0
-0.141338 0.128706 0.0
-0.152911 0.131242 0.0
-0.165278 0.133580 0.0
-0.178548 0.135594 0.0
-0.192841 0.137125 0.0
-0.208286 0.137968 0.0
-0.225011 0.137864 0.0
-0.243142 0.136483 0.0
-0.262790 0.133413 0.0
-0.284026 0.128142 0.0
-0.306868 0.120053 0.0
-0.331259 0.108435 0.0
-0.357061 0.092525 0.0
-0.384092 0.071609 0.0
-0.412172 0.045140 0.0
-0.441124 0.012794 0.0
-0.470560 -0.025664 0.0
-0.499155 -0.070732 0.0
-0.524276 -0.122834 0.0
-0.542176 -0.182269 0.0
-0.548599 -0.247763 0.0
-0.539904 -0.315492 0.0
-0.513697 -0.379350 0.0
-0.468785 -0.431576 0.0
-0.405049 -0.463085 0.0
-0.323780 -0.463632 0.0
-0.228784 -0.422507 0.0
-0.128592 -0.331387 0.0
-0.039858 -0.193717 0.0
0.008704 -0.057398 0.0
0.014008 0.018406 0.0
0.004770 0.044452 0.0
-0.001100 0.038413 0.0
-0.004513 0.076864 0.0
-0.009754 0.094830 0.0
-0.015901 0.102877 0.0
-0.022484 0.106574 0.0
-0.029291 0.108597 0.0
-0.036242 0.110119 0.0
-0.043321 0.111609 0.0
-0.050540 0.113236 0.0
-0.057920 0.115055 0.0
-0.065492 0.117080 0.0
-0.073290 0.119315 0.0
-0.081352 0.121755 0.0
-0.089726 0.124394 0.0
-0.098463 0.127221 0.0
-0.107624 0.130218 0.0
-0.117278 0.133361 0.0
-0.127508 0.136615 0.0
-0.138405 0.139935 0.0
-0.150078 0.143259 0.0
-0.162650 0.146502 0.0
-0.176264 0.149555 0.0
-0.191079 0.152272 0.0
-0.207276 0.154462 0.0
-0.225051 0.155871 0.0
-0.244614 0.156171 0.0
-0.266182 0.154939 0.0
-0.289962 0.151633 0.0
-0.316151 0.145594 0.0
-0.344934 0.136069 0.0
-0.376522 0.122282 0.0
-0.411189 0.103549 0.0
-0.449220 0.079311 0.0
-0.490582 0.048937 0.0
-0.534247 0.011293 0.0
-0.577694 -0.035646 0.0
-0.616552 -0.093941 0.0
-0.645593 -0.164222 0.0
-0.660396 -0.244585 0.0
-0.658020 -0.329740 0.0
-0.636898 -0.412431 0.0
-0.596059 -0.484246 0.0
-0.534717 -0.535493 0.0
-0.452511 -0.554698 0.0
-0.350559 -0.528388 0.0
-0.233671 -0.442585 0.0
-0.114870 -0.290055 0.0
-0.025775 -0.098718 0.0
0.006099 0.022549 0.0
0.003213 0.052434 0.0
-0.001033 0.040546 0.0
-0.004272 0.081384 0.0
-0.009294 0.100572 0.0
-0.015219 0.109208 0.0
-0.021582 0.113190 0.0
-0.028170 0.115375 0.0
-0.034902 0.117023 0.0
-0.041759 0.118642 0.0
-0.048753 0.120416 0.0
-0.055907 0.122409 0.0
-0.063250 0.124641 0.0
-0.070820 0.127121 0.0
-0.078657 0.129850 0.0
-0.086812 0.132828 0.0
-0.095339 0.136052 0.0
-0.104307 0.139515 0.0
-0.113793 0.143203 0.0
-0.123886 0.147095 0.0
-0.134695 0.151161 0.0
-0.146345 0.155355 0.0
-0.158982 0.159615 0.0
-0.172778 0.163853 0.0
-0.187936 0.167948 0.0
-0.204688 0.171735 0.0
-0.223304 0.174988 0.0
-0.244090 0.177403 0.0
-0.267388 0.178573 0.0
-0.293585 0.177975 0.0
-0.323125 0.174979 0.0
-0.356554 0.168896 0.0
-0.394576 0.159065 0.0
-0.438002 0.144859 0.0
-0.487370 0.125400 0.0
-0.542079 0.098920 0.0
-0.599409 0.062304 0.0
-0.654384 0.011765 0.0
-0.701389 -0.055489 0.0
-0.735695 -0.139326 0.0
-0.754180 -0.236194 0.0
-0.755478 -0.339209 0.0
-0.739014 -0.440549 0.0
-0.703984 -0.531997 0.0
-0.648886 -0.604182 0.0
-0.571666 -0.645433 0.0
-0.470651 -0.640620 0.0
-0.346683 -0.571208 0.0
-0.207402 -0.419514 0.0
-0.077085 -0.188671 0.0
-0.008279 0.011822 0.0
0.001061 0.056707 0.0
-0.000961 0.042539 0.0
-0.004015 0.085684 0.0
-0.008804 0.106082 0.0
-0.014489 0.115308 0.0
-0.020615 0.119579 0.0
-0.026965 0.121925 0.0
-0.033455 0.123695 0.0
-0.040067 0.125438 0.0
-0.046809 0.127355 0.0
-0.053704 0.129518 0.0
-0.060783 0.131954 0.0
-0.068082 0.134677 0.0
-0.075645 0.137694 0.0
-0.083524 0.141015 0.0
-0.091776 0.144645 0.0
-0.100473 0.148587 0.0
-0.109698 0.152842 0.0
-0.119550 0.157403 0.0
-0.130145 0.162258 0.0
-0.141624 0.167386 0.0
-0.154153 0.172750 0.0
-0.167931 0.178293 0.0
-0.183198 0.183932 0.0
-0.200238 0.189543 0.0
-0.219392 0.194950 0.0
-0.241069 0.199903 0.0
-0.265756 0.204059 0.0
-0.294054 0.206984 0.0
-0.326724 0.208181 0.0
-0.364756 0.207156 0.0
-0.409348 0.203418 0.0
-0.461563 0.196146 0.0
-0.521426 0.183345 0.0
-0.586739 0.160998 0.0
-0.652642 0.123459 0.0
-0.712767 0.065711 0.0
-0.761327 -0.013870 0.0
-0.795200 -0.112765 0.0
-0.813684 -0.225785 0.0
-0.816874 -0.345130 0.0
-0.804909 -0.463056 0.0
-0.777163 -0.572266 0.0
-0.731613 -0.664562 0.0
-0.664740 -0.729146 0.0
-0.572198 -0.750466 0.0
-0.450790 -0.706738 0.0
-0.302514 -0.571541 0.0
-0.143247 -0.326228 0.0
-0.032702 -0.029972 0.0
-0.000655 0.057113 0.0
-0.000886 0.044386 0.0
-0.003745 0.089751 0.0
-0.008285 0.111344 0.0
-0.013716 0.121163 0.0
-0.019587 0.125721 0.0
-0.025680 0.128226 0.0
-0.031909 0.130114 0.0
-0.038250 0.131973 0.0
-0.044712 0.134024 0.0
-0.051317 0.136349 0.0
-0.058094 0.138980 0.0
-0.065080 0.141937 0.0
-0.072319 0.145236 0.0
-0.079861 0.148894 0.0
-0.087768 0.152926 0.0
-0.096111 0.157347 0.0
-0.104977 0.162173 0.0
-0.114470 0.167415 0.0
-0.124712 0.173083 0.0
-0.135853 0.179181 0.0
-0.148075 0.185705 0.0
-0.161596 0.192638 0.0
-0.176686 0.199944 0.0
-0.193674 0.207560 0.0
-0.212966 0.215381 0.0
-0.235066 0.223249 0.0
-0.260612 0.230946 0.0
-0.290430 0.238213 0.0
-0.325608 0.244800 0.0
-0.367512 0.250473 0.0
-0.417549 0.254730 0.0
-0.476388 0.255889 0.0
-0.542746 0.249823 0.0
-0.612593 0.229679 0.0
-0.679835 0.187922 0.0
-0.738330 0.119868 0.0
-0.783839 0.026041 0.0
-0.814594 -0.088049 0.0
-0.831187 -0.215424 0.0
-0.835107 -0.348382 0.0
-0.827234 -0.479643 0.0
-0.807375 -0.603285 0.0
-0.773462 -0.713006 0.0
-0.721038 -0.799998 0.0
-0.643487 -0.849707 0.0
-0.533800 -0.838592 0.0
-0.388683 -0.733082 0.0
-0.216700 -0.495937 0.0
-0.061266 -0.126242 0.0
0.001806 0.058264 0.0
-0.000808 0.046079 0.0
-0.003463 0.093573 0.0
-0.007743 0.116343 0.0
-0.012904 0.126754 0.0
-0.018505 0.131601 0.0
-0.024324 0.134259 0.0
-0.030271 0.136256 0.0
-0.036319 0.138221 0.0
-0.042475 0.140394 0.0
-0.048758 0.142867 0.0
-0.055197 0.145678 0.0
-0.061826 0.148854 0.0
-0.068689 0.152419 0.0
-0.075834 0.156398 0.0
-0.083323 0.160817 0.0
-0.091226 0.165703 0.0
-0.099630 0.171088 0.0
-0.108640 0.177002 0.0
-0.118379 0.183478 0.0
-0.129002 0.190551 0.0
-0.140697 0.198251 0.0
-0.153693 0.206609 0.0
-0.168278 0.215647 0.0
-0.184810 0.225377 0.0
-0.203744 0.235789 0.0
-0.225661 0.246857 0.0
-0.251322 0.258545 0.0
-0.281739 0.270849 0.0
-0.318226 0.283827 0.0
-0.362291 0.297414 0.0
-0.415111 0.310647 0.0
-0.476491 0.320192 0.0
-0.543810 0.319198 0.0
-0.612009 0.298349 0.0
-0.675021 0.249505 0.0
-0.727777 0.169537 0.0
-0.767465 0.061568 0.0
-0.793519 -0.066767 0.0
-0.807321 -0.206310 0.0
-0.811052 -0.349845 0.0
-0.806326 -0.490779 0.0
-0.793685 -0.624650 0.0
-0.771706 -0.747533 0.0
-0.735856 -0.853744 0.0
-0.677957 -0.931411 0.0
-0.587476 -0.957054 0.0
-0.455565 -0.891647 0.0
-0.282473 -0.682447 0.0
-0.090703 -0.286936 0.0
0.002557 0.062627 0.0
-0.000727 0.047614 0.0
-0.003173 0.097139 0.0
-0.007182 0.121067 0.0
-0.012061 0.132070 0.0
-0.017378 0.137202 0.0
-0.022907 0.140007 0.0
-0.028554 0.142101 0.0
-0.034289 0.144158 0.0
-0.040113 0.146437 0.0
-0.046044 0.149038 0.0
-0.052109 0.152009 0.0
-0.058339 0.155383 0.0
-0.064775 0.159189 0.0
-0.071464 0.163463 0.0
-0.078463 0.168239 0.0
-0.085840 0.173561 0.0
-0.093679 0.179473 0.0
-0.102079 0.186026 0.0
-0.111163 0.193278 0.0
-0.121081 0.201292 0.0
-0.132016 0.210140 0.0
-0.144201 0.219901 0.0
-0.157923 0.230662 0.0
-0.173549 0.242521 0.0
-0.191554 0.255583 0.0
-0.212556 0.269982 0.0
-0.237380 0.285905 0.0
-0.267117 0.303643 0.0
-0.303118 0.323522 0.0
-0.346742 0.345408 0.0
-0.398662 0.367392 0.0
-0.457854 0.384019 0.0
-0.520992 0.385828 0.0
-0.582987 0.361912 0.0
-0.638559 0.304525 0.0
-0.683814 0.212529 0.0
-0.716993 0.091443 0.0
-0.738329 -0.049253 0.0
-0.749392 -0.198958 0.0
-0.752411 -0.350447 0.0
-0.749477 -0.497836 0.0
-0.742052 -0.637660 0.0
-0.730165 -0.768390 0.0
-0.710430 -0.888472 0.0
-0.674295 -0.990717 0.0
-0.608409 -1.054116 0.0
-0.498568 -1.036338 0.0
-0.337900 -0.871517 0.0
-0.141664 -0.485873 0.0
-0.019272 0.045912 0.0
-0.000646 0.048988 0.0
-0.002877 0.100441 0.0
-0.006608 0.125505 0.0
-0.011196 0.137098 0.0
-0.016217 0.142512 0.0
-0.021444 0.145454 0.0
-0.026775 0.147632 0.0
-0.032176 0.149763 0.0
-0.037646 0.152126 0.0
-0.043198 0.154833 0.0
-0.048855 0.157937 0.0
-0.054647 0.161477 0.0
-0.060609 0.165492 0.0
-0.066784 0.170023 0.0
-0.073224 0.175118 0.0
-0.079993 0.180829 0.0
-0.087165 0.187217 0.0
-0.094835 0.194352 0.0
-0.103113 0.202315 0.0
-0.112140 0.211200 0.0
-0.122088 0.221116 0.0
-0.133171 0.232193 0.0
-0.145664 0.244585 0.0
-0.159914 0.258476 0.0
-0.176378 0.274097 0.0
-0.195657 0.291749 0.0
-0.218550 0.311854 0.0
-0.246088 0.334969 0.0
-0.279468 0.361577 0.0
-0.319720 0.391230 0.0
-0.367031 0.420801 0.0
-0.419977 0.442749 0.0
-0.475298 0.445557 0.0
-0.528604 0.417484 0.0
-0.575682 0.351602 0.0
-0.613626 0.248651 0.0
-0.641292 0.116166 0.0
-0.659105 -0.034827 0.0
-0.668420 -0.193005 0.0
-0.670944 -0.350857 0.0
-0.668556 -0.502748 0.0
-0.663571 -0.645159 0.0
-0.658087 -0.778262 0.0
-0.651256 -0.905166 0.0
-0.635923 -1.025490 0.0
-0.597412 -1.123739 0.0
-0.517213 -1.156754 0.0
-0.382682 -1.046300 0.0
-0.204077 -0.685931 0.0
-0.053569 -0.026929 0.0
-0.000565 0.050199 0.0
-0.002580 0.103475 0.0
-0.006028 0.129652 0.0
-0.010318 0.141828 0.0
-0.015035 0.147519 0.0
-0.019949 0.150587 0.0
-0.024951 0.152832 0.0
-0.030003 0.155015 0.0
-0.035098 0.157438 0.0
-0.040247 0.160222 0.0
-0.045467 0.163426 0.0
-0.050785 0.167097 0.0
-0.056229 0.171279 0.0
-0.061838 0.176021 0.0
-0.067657 0.181380 0.0
-0.073741 0.187419 0.0
-0.080155 0.194213 0.0
-0.086981 0.201850 0.0
-0.094315 0.210430 0.0
-0.102280 0.220076 0.0
-0.111023 0.230931 0.0
-0.120734 0.243172 0.0
-0.131647 0.257012 0.0
-0.144069 0.272720 0.0
-0.158393 0.290641 0.0
-0.175142 0.311232 0.0
-0.194994 0.335116 0.0
-0.218795 0.363047 0.0
-0.247453 0.395538 0.0
-0.281635 0.431702 0.0
-0.321248 0.467251 0.0
-0.364972 0.492969 0.0
-0.410232 0.495918 0.0
-0.453770 0.463968 0.0
-0.492544 0.390970 0.0
-0.524447 0.279131 0.0
-0.548596 0.137502 0.0
-0.565130 -0.021816 0.0
-0.574651 -0.187180 0.0
-0.577769 -0.351041 0.0
-0.575568 -0.507153 0.0
-0.570765 -0.650541 0.0
-0.567490 -0.781639 0.0
-0.568317 -0.907792 0.0
-0.569374 -1.037139 0.0
-0.556563 -1.163412 0.0
-0.507784 -1.246058 0.0
-0.403328 -1.195983 0.0
-0.242733 -0.875448 0.0
-0.075077 -0.155576 0.0
-0.000485 0.051249 0.0
-0.002285 0.106239 0.0
-0.005451 0.133502 0.0
-0.009439 0.146257 0.0
-0.013848 0.152216 0.0
-0.018441 0.155397 0.0
-0.023105 0.157689 0.0
-0.027795 0.159900 0.0
-0.032499 0.162353 0.0
-0.037224 0.165180 0.0
-0.041983 0.168447 0.0
-0.046795 0.172205 0.0
-0.051685 0.176505 0.0
-0.056683 0.181402 0.0
-0.061826 0.186960 0.0
-0.067159 0.193254 0.0
-0.072734 0.200368 0.0
-0.078618 0.208404 0.0
-0.084887 0.217481 0.0
-0.091640 0.227742 0.0
-0.098993 0.239361 0.0
-0.107092 0.252551 0.0
-0.116124 0.267577 0.0
-0.126319 0.284772 0.0
-0.137979 0.304573 0.0
-0.151489 0.327558 0.0
-0.167334 0.354487 0.0
-0.186081 0.386224 0.0
-0.208292 0.423230 0.0
-0.234314 0.464214 0.0
-0.264007 0.504045 0.0
-0.296533 0.532426 0.0
-0.330387 0.535575 0.0
-0.363689 0.501151 0.0
-0.394618 0.423488 0.0
-0.421783 0.305682 0.0
-0.444343 0.157660 0.0
-0.461785 -0.007998 0.0
-0.473503 -0.179759 0.0
-0.478780 -0.350068 0.0
-0.477732 -0.511375 0.0
-0.472859 -0.655996 0.0
-0.469374 -0.782944 0.0
-0.472889 -0.902144 0.0
-0.484046 -1.030574 0.0
-0.491583 -1.175251 0.0
-0.471141 -1.303440 0.0
-0.395744 -1.318455 0.0
-0.254497 -1.054819 0.0
-0.083852 -0.314505 0.0
-0.000408 0.052142 0.0
-0.001998 0.108736 0.0
-0.004884 0.137056 0.0
-0.008574 0.150381 0.0
-0.012673 0.156600 0.0
-0.016942 0.159877 0.0
-0.021262 0.162193 0.0
-0.025581 0.164405 0.0
-0.029883 0.166856 0.0
-0.034169 0.169688 0.0
-0.038446 0.172975 0.0
-0.042728 0.176772 0.0
-0.047033 0.181134 0.0
-0.051383 0.186122 0.0
-0.055806 0.191806 0.0
-0.060333 0.198268 0.0
-0.065005 0.205601 0.0
-0.069868 0.213917 0.0
-0.074977 0.223347 0.0
-0.080399 0.234051 0.0
-0.086215 0.246221 0.0
-0.092520 0.260097 0.0
-0.099435 0.275976 0.0
-0.107103 0.294237 0.0
-0.115705 0.315370 0.0
-0.125454 0.340020 0.0
-0.136598 0.369013 0.0
-0.149387 0.403235 0.0
-0.164023 0.443065 0.0
-0.180590 0.486968 0.0
-0.199030 0.529423 0.0
-0.219162 0.559706 0.0
-0.240702 0.563690 0.0
-0.263240 0.528876 0.0
-0.286213 0.449666 0.0
-0.308935 0.329392 0.0
-0.330555 0.178130 0.0
-0.349787 0.008207 0.0
-0.364681 -0.169352 0.0
-0.373412 -0.346468 0.0
-0.375453 -0.513981 0.0