# vtk DataFile Version 3.0
Scalar Field
ASCII
DATASET RECTILINEAR_GRID
DIMENSIONS 50 50 1
X_COORDINATES 50 double
0.100000 0.300000 0.500000 0.700000 0.900000 1.100000 1.300000 1.500000 1.700000 1.900000 2.100000 2.300000 2.500000 2.700000 2.900000 3.100000 3.300000 3.500000 3.700000 3.900000 4.100000 4.300000 4.500000 4.700000 4.900000 5.100000 5.300000 5.500000 5.700000 5.900000 6.100000 6.300000 6.500000 6.700000 6.900000 7.100000 7.300000 7.500000 7.700000 7.900000 8.100000 8.300000 8.500000 8.700000 8.900000 9.100000 9.300000 9.500000 9.700000 9.900000 
Y_COORDINATES 50 double
0.100000 0.300000 0.500000 0.700000 0.900000 1.100000 1.300000 1.500000 1.700000 1.900000 2.100000 2.300000 2.500000 2.700000 2.900000 3.100000 3.300000 3.500000 3.700000 3.900000 4.100000 4.300000 4.500000 4.700000 4.900000 5.100000 5.300000 5.500000 5.700000 5.900000 6.100000 6.300000 6.500000 6.700000 6.900000 7.100000 7.300000 7.500000 7.700000 7.900000 8.100000 8.300000 8.500000 8.700000 8.900000 9.100000 9.300000 9.500000 9.700000 9.900000 
Z_COORDINATES 1 double
0.0
POINT_DATA 2500
SCALARS Skalarfeld double 1
LOOKUP_TABLE default
-0.037678
-0.037692
-0.037638
-0.037513
-0.037317
-0.037052
-0.036718
-0.036314
-0.035843
-0.035305
-0.034702
-0.034035
-0.033306
-0.032516
-0.031668
-0.030764
-0.029807
-0.028800
-0.027745
-0.026647
-0.025509
-0.024335
-0.023130
-0.021897
-0.020642
-0.019370
-0.018085
-0.016794
-0.015502
-0.014216
-0.012940
-0.011682
-0.010448
-0.009243
-0.008075
-0.006949
-0.005872
-0.004850
-0.003889
-0.002994
-0.002172
-0.001426
-0.000763
-0.000185
0.000303
0.000698
0.000997
0.001198
0.001299
0.001305
-0.037665
-0.037679
-0.037624
-0.037499
-0.037305
-0.037040
-0.036707
-0.036304
-0.035835
-0.035298
-0.034696
-0.034031
-0.033303
-0.032514
-0.031668
-0.030765
-0.029810
-0.028804
-0.027751
-0.026654
-0.025517
-0.024344
-0.023139
-0.021907
-0.020653
-0.019381
-0.018096
-0.016806
-0.015514
-0.014227
-0.012951
-0.011692
-0.010457
-0.009252
-0.008082
-0.006956
-0.005878
-0.004855
-0.003893
-0.002997
-0.002174
-0.001427
-0.000763
-0.000184
0.000304
0.000700
0.000999
0.001201
0.001304
0.001309
-0.037722
-0.037738
-0.037683
-0.037559
-0.037364
-0.037100
-0.036767
-0.036365
-0.035895
-0.035358
-0.034756
-0.034090
-0.033362
-0.032572
-0.031725
-0.030821
-0.029864
-0.028856
-0.027801
-0.026701
-0.025561
-0.024385
-0.023176
-0.021940
-0.020681
-0.019404
-0.018115
-0.016818
-0.015521
-0.014227
-0.012945
-0.011680
-0.010438
-0.009225
-0.008049
-0.006916
-0.005831
-0.004801
-0.003832
-0.002930
-0.002101
-0.001349
-0.000680
-0.000097
0.000396
0.000794
0.001096
0.001300
0.001403
0.001407
-0.037853
-0.037870
-0.037816
-0.037691
-0.037497
-0.037232
-0.036898
-0.036495
-0.036025
-0.035487
-0.034883
-0.034214
-0.033483
-0.032691
-0.031840
-0.030932
-0.029970
-0.028957
-0.027895
-0.026789
-0.025643
-0.024458
-0.023242
-0.021996
-0.020728
-0.019441
-0.018140
-0.016833
-0.015523
-0.014218
-0.012923
-0.011645
-0.010390
-0.009164
-0.007975
-0.006828
-0.005730
-0.004688
-0.003707
-0.002794
-0.001954
-0.001192
-0.000513
0.000078
0.000577
0.000981
0.001288
0.001494
0.001599
0.001603
-0.038058
-0.038076
-0.038022
-0.037898
-0.037703
-0.037437
-0.037102
-0.036697
-0.036224
-0.035683
-0.035076
-0.034404
-0.033668
-0.032870
-0.032013
-0.031098
-0.030128
-0.029106
-0.028036
-0.026920
-0.025761
-0.024565
-0.023335
-0.022076
-0.020793
-0.019490
-0.018174
-0.016849
-0.015522
-0.014198
-0.012884
-0.011587
-0.010313
-0.009068
-0.007859
-0.006693
-0.005576
-0.004516
-0.003517
-0.002587
-0.001731
-0.000954
-0.000262
0.000340
0.000850
0.001262
0.001575
0.001786
0.001893
0.001897
-0.038337
-0.038356
-0.038303
-0.038178
-0.037982
-0.037715
-0.037378
-0.036971
-0.036494
-0.035949
-0.035337
-0.034659
-0.033916
-0.033111
-0.032245
-0.031320
-0.030340
-0.029306
-0.028223
-0.027092
-0.025919
-0.024706
-0.023459
-0.022181
-0.020878
-0.019554
-0.018216
-0.016868
-0.015517
-0.014169
-0.012830
-0.011508
-0.010207
-0.008937
-0.007702
-0.006510
-0.005368
-0.004283
-0.003261
-0.002308
-0.001431
-0.000635
0.000074
0.000693
0.001216
0.001639
0.001960
0.002177
0.002288
0.002292
-0.038691
-0.038711
-0.038658
-0.038533
-0.038336
-0.038068
-0.037727
-0.037316
-0.036835
-0.036285
-0.035666
-0.034980
-0.034229
-0.033414
-0.032537
-0.031600
-0.030606
-0.029557
-0.028457
-0.027309
-0.026116
-0.024883
-0.023613
-0.022311
-0.020983
-0.019633
-0.018267
-0.016891
-0.015510
-0.014131
-0.012761
-0.011407
-0.010074
-0.008770
-0.007503
-0.006279
-0.005106
-0.003990
-0.002938
-0.001957
-0.001054
-0.000233
0.000499
0.001137
0.001676
0.002114
0.002446
0.002670
0.002785
0.002789
-0.039121
-0.039142
-0.039090
-0.038964
-0.038766
-0.038495
-0.038151
-0.037736
-0.037249
-0.036692
-0.036065
-0.035370
-0.034608
-0.033781
-0.032891
-0.031939
-0.030928
-0.029861
-0.028741
-0.027571
-0.026355
-0.025096
-0.023799
-0.022469
-0.021111
-0.019729
-0.018330
-0.016918
-0.015502
-0.014086
-0.012678
-0.011284
-0.009913
-0.008570
-0.007263
-0.006000
-0.004789
-0.003635
-0.002547
-0.001532
-0.000596
0.000254
0.001013
0.001675
0.002235
0.002690
0.003035
0.003268
0.003388
0.003393
-0.039628
-0.039650
-0.039598
-0.039472
-0.039272
-0.038998
-0.038651
-0.038230
-0.037737
-0.037172
-0.036536
-0.035830
-0.035056
-0.034214
-0.033308
-0.032338
-0.031308
-0.030220
-0.029076
-0.027881
-0.026637
-0.025349
-0.024020
-0.022657
-0.021263
-0.019843
-0.018405
-0.016953
-0.015494
-0.014034
-0.012581
-0.011142
-0.009724
-0.008335
-0.006981
-0.005672
-0.004415
-0.003218
-0.002087
-0.001031
-0.000057
0.000829
0.001620
0.002310
0.002895
0.003370
0.003731
0.003975
0.004100
0.004107
-0.040213
-0.040237
-0.040185
-0.040058
-0.039856
-0.039579
-0.039227
-0.038800
-0.038300
-0.037726
-0.037079
-0.036361
-0.035573
-0.034715
-0.033791
-0.032801
-0.031748
-0.030635
-0.029465
-0.028240
-0.026964
-0.025642
-0.024278
-0.022875
-0.021440
-0.019978
-0.018494
-0.016995
-0.015487
-0.013977
-0.012472
-0.010980
-0.009509
-0.008065
-0.006658
-0.005295
-0.003985
-0.002736
-0.001556
-0.000453
0.000566
0.001494
0.002322
0.003046
0.003660
0.004159
0.004538
0.004795
0.004928
0.004936
-0.040877
-0.040902
-0.040851
-0.040724
-0.040519
-0.040239
-0.039882
-0.039449
-0.038940
-0.038356
-0.037698
-0.036966
-0.036161
-0.035286
-0.034341
-0.033329
-0.032251
-0.031110
-0.029909
-0.028652
-0.027341
-0.025980
-0.024574
-0.023128
-0.021647
-0.020136
-0.018600
-0.017047
-0.015484
-0.013916
-0.012353
-0.010800
-0.009267
-0.007762
-0.006293
-0.004868
-0.003498
-0.002189
-0.000951
0.000207
0.001277
0.002252
0.003125
0.003888
0.004535
0.005061
0.005462
0.005734
0.005875
0.005885
-0.041622
-0.041650
-0.041599
-0.041471
-0.041264
-0.040980
-0.040617
-0.040177
-0.039660
-0.039065
-0.038393
-0.037646
-0.036825
-0.035929
-0.034962
-0.033925
-0.032819
-0.031647
-0.030413
-0.029119
-0.027768
-0.026365
-0.024913
-0.023418
-0.021885
-0.020319
-0.018726
-0.017113
-0.015486
-0.013854
-0.012224
-0.010603
-0.009001
-0.007425
-0.005886
-0.004391
-0.002951
-0.001575
-0.000272
0.000949
0.002079
0.003109
0.004032
0.004839
0.005525
0.006083
0.006509
0.006798
0.006949
0.006961
-0.042449
-0.042479
-0.042430
-0.042301
-0.042092
-0.041804
-0.041436
-0.040988
-0.040461
-0.039854
-0.039169
-0.038406
-0.037565
-0.036648
-0.035657
-0.034592
-0.033456
-0.032251
-0.030979
-0.029645
-0.028250
-0.026800
-0.025298
-0.023748
-0.022158
-0.020531
-0.018874
-0.017194
-0.015497
-0.013793
-0.012088
-0.010390
-0.008710
-0.007056
-0.005437
-0.003864
-0.002345
-0.000893
0.000485
0.001777
0.002974
0.004067
0.005047
0.005906
0.006636
0.007231
0.007685
0.007995
0.008156
0.008170
-0.043361
-0.043394
-0.043345
-0.043216
-0.043005
-0.042713
-0.042339
-0.041883
-0.041346
-0.040727
-0.040027
-0.039246
-0.038386
-0.037446
-0.036428
-0.035334
-0.034165
-0.032923
-0.031612
-0.030233
-0.028791
-0.027289
-0.025731
-0.024123
-0.022469
-0.020775
-0.019047
-0.017293
-0.015520
-0.013735
-0.011947
-0.010164
-0.008397
-0.006655
-0.004947
-0.003285
-0.001679
-0.000140
0.001322
0.002695
0.003968
0.005133
0.006178
0.007094
0.007875
0.008512
0.008999
0.009331
0.009506
0.009523
-0.044359
-0.044395
-0.044348
-0.044218
-0.044005
-0.043709
-0.043329
-0.042865
-0.042318
-0.041686
-0.040971
-0.040172
-0.039290
-0.038326
-0.037280
-0.036154
-0.034950
-0.033669
-0.032315
-0.030889
-0.029395
-0.027837
-0.026219
-0.024546
-0.022823
-0.021056
-0.019251
-0.017415
-0.015557
-0.013683
-0.011804
-0.009927
-0.008063
-0.006223
-0.004417
-0.002655
-0.000951
0.000685
0.002241
0.003705
0.005065
0.006310
0.007429
0.008412
0.009250
0.009934
0.010458
0.010817
0.011007
0.011027
-0.045446
-0.045486
-0.045440
-0.045310
-0.045095
-0.044795
-0.044410
-0.043938
-0.043380
-0.042735
-0.042004
-0.041186
-0.040282
-0.039292
-0.038217
-0.037057
-0.035816
-0.034494
-0.033093
-0.031616
-0.030067
-0.028449
-0.026766
-0.025023
-0.023225
-0.021378
-0.019489
-0.017564
-0.015613
-0.013642
-0.011662
-0.009682
-0.007711
-0.005763
-0.003846
-0.001975
-0.000161
0.001584
0.003246
0.004812
0.006269
0.007605
0.008808
0.009866
0.010769
0.011508
0.012074
0.012463
0.012670
0.012694
-0.046624
-0.046667
-0.046623
-0.046494
-0.046278
-0.045974
-0.045583
-0.045103
-0.044535
-0.043877
-0.043130
-0.042292
-0.041365
-0.040348
-0.039242
-0.038048
-0.036767
-0.035401
-0.033951
-0.032421
-0.030812
-0.029130
-0.027377
-0.025558
-0.023680
-0.021747
-0.019766
-0.017745
-0.015692
-0.013616
-0.011525
-0.009431
-0.007344
-0.005275
-0.003238
-0.001244
0.000693
0.002558
0.004338
0.006019
0.007585
0.009024
0.010322
0.011465
0.012442
0.013243
0.013858
0.014281
0.014507
0.014536
-0.047894
-0.047942
-0.047901
-0.047772
-0.047555
-0.047248
-0.046852
-0.046365
-0.045786
-0.045116
-0.044352
-0.043495
-0.042544
-0.041500
-0.040362
-0.039132
-0.037810
-0.036397
-0.034896
-0.033308
-0.031637
-0.029886
-0.028058
-0.026159
-0.024194
-0.022168
-0.020089
-0.017964
-0.015801
-0.013609
-0.011399
-0.009180
-0.006964
-0.004764
-0.002592
-0.000463
0.001609
0.003609
0.005521
0.007331
0.009020
0.010575
0.011979
0.013219
0.014280
0.015152
0.015823
0.016285
0.016534
0.016568
-0.049260
-0.049312
-0.049275
-0.049147
-0.048930
-0.048621
-0.048220
-0.047726
-0.047138
-0.046455
-0.045675
-0.044798
-0.043824
-0.042752
-0.041582
-0.040314
-0.038949
-0.037488
-0.035933
-0.034285
-0.032548
-0.030724
-0.028817
-0.026832
-0.024774
-0.022649
-0.020464
-0.018226
-0.015945
-0.013628
-0.011287
-0.008932
-0.006576
-0.004232
-0.001913
0.000366
0.002588
0.004738
0.006798
0.008751
0.010579
0.012264
0.013790
0.015139
0.016296
0.017248
0.017982
0.018490
0.018764
0.018805
-0.050723
-0.050781
-0.050748
-0.050622
-0.050405
-0.050095
-0.049691
-0.049191
-0.048594
-0.047899
-0.047104
-0.046208
-0.045210
-0.044110
-0.042907
-0.041601
-0.040192
-0.038681
-0.037069
-0.035359
-0.033551
-0.031651
-0.029660
-0.027584
-0.025428
-0.023197
-0.020898
-0.018540
-0.016130
-0.013679
-0.011197
-0.008695
-0.006186
-0.003683
-0.001203
0.001241
0.003629
0.005945
0.008170
0.010284
0.012267
0.014100
0.015762
0.017236
0.018502
0.019546
0.020353
0.020912
0.021217
0.021265
-0.052287
-0.052351
-0.052322
-0.052200
-0.051985
-0.051674
-0.051268
-0.050763
-0.050158
-0.049452
-0.048642
-0.047728
-0.046707
-0.045579
-0.044343
-0.042998
-0.041544
-0.039982
-0.038312
-0.036536
-0.034656
-0.032675
-0.030596
-0.028424
-0.026163
-0.023820
-0.021400
-0.018913
-0.016366
-0.013770
-0.011135
-0.008473
-0.005798
-0.003124
-0.000466
0.002159
0.004731
0.007231
0.009640
0.011934
0.014092
0.016091
0.017909
0.019523
0.020915
0.022064
0.022954
0.023573
0.023912
0.023970
-0.053953
-0.054024
-0.054001
-0.053883
-0.053670
-0.053361
-0.052954
-0.052445
-0.051834
-0.051119
-0.050296
-0.049365
-0.048322
-0.047167
-0.045898
-0.044514
-0.043015
-0.041400
-0.039670
-0.037827
-0.035871
-0.033806
-0.031635
-0.029361
-0.026990
-0.024527
-0.021980
-0.019355
-0.016662
-0.013910
-0.011111
-0.008277
-0.005421
-0.002559
0.000293
0.003116
0.005890
0.008595
0.011208
0.013704
0.016058
0.018245
0.020239
0.022016
0.023550
0.024820
0.025806
0.026495
0.026874
0.026943
-0.055724
-0.055803
-0.055786
-0.055674
-0.055466
-0.055160
-0.054753
-0.054243
-0.053628
-0.052905
-0.052071
-0.051124
-0.050061
-0.048879
-0.047578
-0.046156
-0.044611
-0.042943
-0.041152
-0.039239
-0.037205
-0.035053
-0.032785
-0.030405
-0.027918
-0.025330
-0.022647
-0.019876
-0.017027
-0.014109
-0.011134
-0.008114
-0.005063
-0.001998
0.001065
0.004106
0.007104
0.010035
0.012875
0.015597
0.018172
0.020572
0.022767
0.024728
0.026426
0.027836
0.028934
0.029702
0.030128
0.030211
-0.057602
-0.057690
-0.057681
-0.057576
-0.057374
-0.057073
-0.056669
-0.056160
-0.055543
-0.054815
-0.053972
-0.053011
-0.051930
-0.050724
-0.049392
-0.047932
-0.046341
-0.044620
-0.042767
-0.040783
-0.038669
-0.036426
-0.034058
-0.031568
-0.028960
-0.026239
-0.023413
-0.020487
-0.017473
-0.014378
-0.011215
-0.007996
-0.004735
-0.001450
0.001843
0.005122
0.008365
0.011547
0.014640
0.017615
0.020440
0.023081
0.025505
0.027677
0.029564
0.031135
0.032363
0.033226
0.033707
0.033805
-0.059589
-0.059687
-0.059688
-0.059592
-0.059398
-0.059104
-0.058706
-0.058201
-0.057586
-0.056855
-0.056006
-0.055035
-0.053937
-0.052709
-0.051348
-0.049851
-0.048216
-0.046441
-0.044526
-0.042469
-0.040273
-0.037938
-0.035466
-0.032860
-0.030126
-0.027267
-0.024290
-0.021203
-0.018013
-0.014731
-0.011367
-0.007935
-0.004449
-0.000926
0.002616
0.006155
0.009667
0.013126
0.016501
0.019759
0.022865
0.025780
0.028465
0.030881
0.032987
0.034747
0.036126
0.037099
0.037645
0.037763
-0.061688
-0.061797
-0.061809
-0.061724
-0.061541
-0.061257
-0.060868
-0.060371
-0.059760
-0.059031
-0.058179
-0.057200
-0.056089
-0.054842
-0.053454
-0.051923
-0.050245
-0.048417
-0.046440
-0.044310
-0.042030
-0.039599
-0.037021
-0.034296
-0.031430
-0.028427
-0.025294
-0.022035
-0.018661
-0.015181
-0.011605
-0.007947
-0.004220
-0.000441
0.003370
0.007192
0.010999
0.014763
0.018451
0.022027
0.025450
0.028677
0.031663
0.034359
0.036720
0.038700
0.040258
0.041361
0.041985
0.042126
-0.063900
-0.064022
-0.064046
-0.063975
-0.063806
-0.063536
-0.063159
-0.062673
-0.062071
-0.061348
-0.060498
-0.059516
-0.058396
-0.057133
-0.055722
-0.054158
-0.052439
-0.050560
-0.048521
-0.046318
-0.043953
-0.041425
-0.038736
-0.035889
-0.032887
-0.029735
-0.026437
-0.023001
-0.019434
-0.015745
-0.011946
-0.008047
-0.004064
-0.000012
0.004090
0.008218
0.012348
0.016447
0.020483
0.024414
0.028195
0.031778
0.035109
0.038132
0.040791
0.043030
0.044800
0.046057
0.046774
0.046945
-0.066227
-0.066363
-0.066402
-0.066347
-0.066196
-0.065943
-0.065584
-0.065113
-0.064525
-0.063813
-0.062970
-0.061990
-0.060866
-0.059591
-0.058160
-0.056568
-0.054810
-0.052882
-0.050782
-0.048506
-0.046055
-0.043429
-0.040628
-0.037655
-0.034513
-0.031205
-0.027738
-0.024116
-0.020348
-0.016442
-0.012407
-0.008255
-0.004000
0.000343
0.004755
0.009215
0.013694
0.018163
0.022583
0.026911
0.031098
0.035087
0.038817
0.042220
0.045229
0.047776
0.049798
0.051242
0.052071
0.052277
-0.068670
-0.068822
-0.068879
-0.068844
-0.068713
-0.068482
-0.068145
-0.067696
-0.067127
-0.066432
-0.065602
-0.064630
-0.063507
-0.062227
-0.060782
-0.059165
-0.057372
-0.055397
-0.053237
-0.050889
-0.048352
-0.045626
-0.042711
-0.039609
-0.036322
-0.032856
-0.029213
-0.025399
-0.021422
-0.017289
-0.013009
-0.008593
-0.004051
0.000600
0.005343
0.010158
0.015016
0.019888
0.024733
0.029506
0.034151
0.038605
0.042795
0.046643
0.050067
0.052981
0.055307
0.056977
0.057943
0.058194
-0.071230
-0.071400
-0.071478
-0.071466
-0.071360
-0.071156
-0.070847
-0.070426
-0.069884
-0.069213
-0.068403
-0.067446
-0.066332
-0.065052
-0.063597
-0.061961
-0.060137
-0.058118
-0.055901
-0.053482
-0.050860
-0.048032
-0.045001
-0.041768
-0.038334
-0.034703
-0.030880
-0.026869
-0.022677
-0.018310
-0.013775
-0.009083
-0.004243
0.000732
0.005826
0.011018
0.016286
0.021595
0.026909
0.032176
0.037339
0.042324
0.047050
0.051421
0.055337
0.058694
0.061390
0.063337
0.064472
0.064780
-0.073909
-0.074099
-0.074201
-0.074215
-0.074140
-0.073969
-0.073695
-0.073309
-0.072802
-0.072163
-0.071382
-0.070448
-0.069350
-0.068077
-0.066621
-0.064971
-0.063121
-0.061062
-0.058791
-0.056302
-0.053594
-0.050666
-0.047517
-0.044150
-0.040565
-0.036767
-0.032760
-0.028546
-0.024133
-0.019524
-0.014728
-0.009752
-0.004602
0.000709
0.006170
0.011763
0.017466
0.023249
0.029074
0.034891
0.040636
0.046231
0.051578
0.056568
0.061075
0.064969
0.068120
0.070410
0.071757
0.072138
-0.076706
-0.076920
-0.077048
-0.077095
-0.077055
-0.076924
-0.076692
-0.076350
-0.075886
-0.075289
-0.074546
-0.073645
-0.072573
-0.071317
-0.069866
-0.068210
-0.066339
-0.064246
-0.061923
-0.059367
-0.056575
-0.053545
-0.050278
-0.046774
-0.043036
-0.039067
-0.034870
-0.030451
-0.025811
-0.020958
-0.015895
-0.010627
-0.005161
0.000498
0.006339
0.012350
0.018513
0.024803
0.031184
0.037607
0.044006
0.050296
0.056368
0.062091
0.067312
0.071865
0.075581
0.078303
0.079918
0.080393
-0.079623
-0.079863
-0.080022
-0.080105
-0.080108
-0.080024
-0.079843
-0.079553
-0.079143
-0.078599
-0.077906
-0.077049
-0.076013
-0.074785
-0.073349
-0.071695
-0.069810
-0.067687
-0.065317
-0.062696
-0.059820
-0.056689
-0.053301
-0.049658
-0.045764
-0.041621
-0.037233
-0.032604
-0.027735
-0.022633
-0.017300
-0.011739
-0.005951
0.000060
0.006290
0.012732
0.019375
0.026200
0.033177
0.040263
0.047393
0.054475
0.061391
0.067986
0.074074
0.079443
0.083871
0.087145
0.089106
0.089705
-0.082661
-0.082930
-0.083123
-0.083248
-0.083300
-0.083271
-0.083150
-0.082924
-0.082580
-0.082101
-0.081471
-0.080671
-0.079685
-0.078496
-0.077087
-0.075443
-0.073553
-0.071406
-0.068994
-0.066310
-0.063352
-0.060117
-0.056607
-0.052824
-0.048770
-0.044450
-0.039867
-0.035025
-0.029926
-0.024575
-0.018971
-0.013116
-0.007008
-0.000645
0.005976
0.012854
0.019988
0.027369
0.034977
0.042779
0.050715
0.058695
0.066591
0.074226
0.081373
0.087764
0.093101
0.097091
0.099508
0.100274
-0.085819
-0.086121
-0.086354
-0.086526
-0.086634
-0.086669
-0.086618
-0.086469
-0.086203
-0.085804
-0.085252
-0.084525
-0.083603
-0.082467
-0.081097
-0.079476
-0.077589
-0.075425
-0.072974
-0.070231
-0.067190
-0.063852
-0.060218
-0.056291
-0.052074
-0.047573
-0.042792
-0.037736
-0.032406
-0.026805
-0.020934
-0.014790
-0.008367
-0.001658
0.005346
0.012656
0.020280
0.028225
0.036487
0.045047
0.053860
0.062847
0.071875
0.080749
0.089198
0.096880
0.103395
0.108333
0.111362
0.112359
-0.089101
-0.089440
-0.089715
-0.089940
-0.090111
-0.090219
-0.090250
-0.090190
-0.090019
-0.089717
-0.089260
-0.088624
-0.087784
-0.086717
-0.085401
-0.083815
-0.081942
-0.079768
-0.077284
-0.074483
-0.071360
-0.067917
-0.064155
-0.060079
-0.055695
-0.051008
-0.046026
-0.040753
-0.035192
-0.029345
-0.023212
-0.016787
-0.010061
-0.003022
0.004348
0.012071
0.020170
0.028669
0.037587
0.046928
0.056676
0.066770
0.077092
0.087436
0.097489
0.106817
0.114884
0.121104
0.124978
0.126303
-0.092510
-0.092889
-0.093211
-0.093494
-0.093735
-0.093924
-0.094050
-0.094094
-0.094034
-0.093848
-0.093506
-0.092982
-0.092245
-0.091267
-0.090021
-0.088485
-0.086637
-0.084463
-0.081950
-0.079092
-0.075887
-0.072335
-0.068440
-0.064210
-0.059652
-0.054774
-0.049585
-0.044093
-0.038301
-0.032212
-0.025824
-0.019131
-0.012122
-0.004776
0.002931
0.011033
0.019570
0.028588
0.038135
0.048250
0.058958
0.070240
0.082012
0.094081
0.106103
0.117546
0.127688
0.135683
0.140759
0.142571
-0.096052
-0.096476
-0.096848
-0.097191
-0.097507
-0.097787
-0.098019
-0.098182
-0.098254
-0.098205
-0.098004
-0.097615
-0.097005
-0.096139
-0.094984
-0.093514
-0.091705
-0.089538
-0.087002
-0.084089
-0.080798
-0.077132
-0.073097
-0.068704
-0.063962
-0.058885
-0.053484
-0.047768
-0.041746
-0.035418
-0.028785
-0.021841
-0.014572
-0.006953
0.001048
0.009477
0.018391
0.027861
0.037969
0.048803
0.060443
0.072943
0.086287
0.100337
0.114756
0.128920
0.141877
0.152391
0.159241
0.161811
-0.099741
-0.100213
-0.100633
-0.101037
-0.101431
-0.101809
-0.102158
-0.102458
-0.102682
-0.102797
-0.102763
-0.102541
-0.102086
-0.101359
-0.100320
-0.098935
-0.097179
-0.095029
-0.092474
-0.089505
-0.086124
-0.082335
-0.078150
-0.073581
-0.068645
-0.063357
-0.057733
-0.051787
-0.045531
-0.038969
-0.032103
-0.024927
-0.017426
-0.009576
-0.001336
0.007349
0.016551
0.026368
0.036918
0.048346
0.060809
0.074463
0.089414
0.105651
0.122920
0.140563
0.157370
0.171550
0.181130
0.184973
-0.103597
-0.104119
-0.104583
-0.105043
-0.105512
-0.105990
-0.106466
-0.106920
-0.107321
-0.107629
-0.107798
-0.107776
-0.107513
-0.106957
-0.106061
-0.104786
-0.103099
-0.100976
-0.098404
-0.095377
-0.091897
-0.087974
-0.083623
-0.078863
-0.073714
-0.068199
-0.062339
-0.056154
-0.049659
-0.042864
-0.035773
-0.028385
-0.020686
-0.012651
-0.004239
0.004612
0.013987
0.024002
0.034814
0.046624
0.059680
0.074273
0.090696
0.109168
0.129665
0.151651
0.173721
0.193350
0.207325
0.213507
-0.107658
-0.108229
-0.108723
-0.109222
-0.109754
-0.110328
-0.110939
-0.111564
-0.112170
-0.112707
-0.113118
-0.113341
-0.113312
-0.112967
-0.112249
-0.111109
-0.109510
-0.107425
-0.104839
-0.101747
-0.098156
-0.094082
-0.089544
-0.084569
-0.079185
-0.073421
-0.067307
-0.060866
-0.054123
-0.047093
-0.039785
-0.032202
-0.024336
-0.016167
-0.007655
0.001260
0.010667
0.020694
0.031522
0.043399
0.056664
0.071758
0.089220
0.109629
0.133426
0.160522
0.189624
0.217440
0.238823
0.249713
-0.111987
-0.112599
-0.113092
-0.113595
-0.114163
-0.114819
-0.115565
-0.116379
-0.117221
-0.118029
-0.118734
-0.119256
-0.119514
-0.119429
-0.118930
-0.117958
-0.116469
-0.114431
-0.111829
-0.108663
-0.104943
-0.100692
-0.095940
-0.090720
-0.085071
-0.079029
-0.072633
-0.065916
-0.058908
-0.051635
-0.044110
-0.036346
-0.028343
-0.020086
-0.011547
-0.002674
0.006613
0.016437
0.026979
0.038510
0.051423
0.066290
0.083907
0.105318
0.131711
0.164007
0.201831
0.241742
0.276092
0.296888
-0.116694
-0.117324
-0.117754
-0.118194
-0.118742
-0.119448
-0.120323
-0.121343
-0.122458
-0.123592
-0.124654
-0.125543
-0.126155
-0.126391
-0.126162
-0.125396
-0.124040
-0.122058
-0.119437
-0.116179
-0.112306
-0.107846
-0.102841
-0.097337
-0.091381
-0.085024
-0.078312
-0.071288
-0.063992
-0.056458
-0.048713
-0.040772
-0.032650
-0.024345
-0.015843
-0.007111
0.001910
0.011312
0.021245
0.031945
0.043794
0.057395
0.073703
0.094178
0.120905
0.156459
0.202896
0.258983
0.315846
0.356087
-0.121966
-0.122563
-0.122807
-0.123057
-0.123490
-0.124188
-0.125173
-0.126416
-0.127851
-0.129380
-0.130882
-0.132226
-0.133277
-0.133911
-0.134015
-0.133501
-0.132303
-0.130386
-0.127735
-0.124363
-0.120298
-0.115586
-0.110279
-0.104438
-0.098126
-0.091404
-0.084331
-0.076962
-0.069345
-0.061525
-0.053540
-0.045418
-0.037184
-0.028855
-0.020434
-0.011917
-0.003283
0.005512
0.014541
0.023940
0.033955
0.045039
0.058015
0.074359
0.096629
0.129030
0.177563
0.248234
0.337995
0.409336
-0.128144
-0.128589
-0.128401
-0.128233
-0.128385
-0.128982
-0.130046
-0.131534
-0.133351
-0.135365
-0.137416
-0.139330
-0.140933
-0.142062
-0.142578
-0.142369
-0.141360
-0.139510
-0.136813
-0.133290
-0.128985
-0.123960
-0.118287
-0.112044
-0.105311
-0.098163
-0.090673
-0.082908
-0.074927
-0.066784
-0.058530
-0.050208
-0.041854
-0.033502
-0.025182
-0.016917
-0.008733
-0.000656
0.007279
0.015036
0.022593
0.029990
0.037431
0.045500
0.055599
0.071365
0.101851
0.167389
0.288451
0.401002
-0.135870
-0.135873
-0.134747
-0.133751
-0.133362
-0.133723
-0.134827
-0.136592
-0.138878
-0.141502
-0.144248
-0.146886
-0.149186
-0.150937
-0.151961
-0.152122
-0.151332
-0.149549
-0.146776
-0.143049
-0.138435
-0.133020
-0.126899
-0.120171
-0.112937
-0.105288
-0.097313
-0.089090
-0.080690
-0.072178
-0.063613
-0.055053
-0.046551
-0.038158
-0.029923
-0.021903
-0.014162
-0.006798
0.000034
0.006088
0.010977
0.014105
0.014515
0.010730
0.000397
-0.019052
-0.040519
-0.018557
0.125232
0.299514
-0.146458
-0.145242
-0.142101
-0.139570
-0.138258
-0.138218
-0.139326
-0.141423
-0.144304
-0.147709
-0.151350
-0.154916
-0.158103
-0.160637
-0.162292
-0.162900
-0.162359
-0.160631
-0.157733
-0.153730
-0.148716
-0.142809
-0.136134
-0.128819
-0.120986
-0.112748
-0.104208
-0.095456
-0.086572
-0.077630
-0.068700
-0.059851
-0.051152
-0.042672
-0.034478
-0.026648
-0.019269
-0.012488
-0.006554
-0.001890
0.000766
0.000169
-0.005845
-0.021557
-0.055318
-0.120170
-0.216069
-0.261769
-0.073125
0.223514
-0.163095
-0.158217
-0.150601
-0.145402
-0.142673
-0.142058
-0.143139
-0.145643
-0.149286
-0.153695
-0.158493
-0.163253
-0.167571
-0.171091
-0.173524
-0.174667
-0.174405
-0.172710
-0.169625
-0.165252
-0.159726
-0.153207
-0.145859
-0.137842
-0.129306
-0.120386
-0.111199
-0.101846
-0.092413
-0.082979
-0.073622
-0.064424
-0.055468
-0.046841
-0.038620
-0.030882
-0.023732
-0.017327
-0.011948
-0.008108
-0.006703
-0.009357
-0.019217
-0.042619
-0.092785
-0.190976
-0.335059
-0.387117
-0.070805
0.478434
-0.194130
-0.176468
-0.159775
-0.149503
-0.144425
-0.143024
-0.144007
-0.147006
-0.151655
-0.157408
-0.163686
-0.169950
-0.175687
-0.180439
-0.183847
-0.185664
-0.185769
-0.184149
-0.180887
-0.176131
-0.170069
-0.162910
-0.154864
-0.146127
-0.136876
-0.127270
-0.117440
-0.107495
-0.097520
-0.087594
-0.077798
-0.068227
-0.058983
-0.050171
-0.041882
-0.034191
-0.027177
-0.020972
-0.015849
-0.012360
-0.011525
-0.015200
-0.026922
-0.053415
-0.108621
-0.213036
-0.322984
-0.205860
0.456831
1.531780
-0.292982
-0.155772
-0.130077
-0.124566
-0.124147
-0.126175
-0.129967
-0.135378
-0.142199
-0.150010
-0.158275
-0.166421
-0.173889
-0.180174
-0.184880
-0.187742
-0.188634
-0.187561
-0.184630
-0.180025
-0.173972
-0.166715
-0.158497
-0.149541
-0.140048
-0.130191
-0.120116
-0.109935
-0.099739
-0.089604
-0.079618
-0.069882
-0.060513
-0.051627
-0.043326
-0.035686
-0.028780
-0.022728
-0.017821
-0.014670
-0.014433
-0.019193
-0.032655
-0.060353
-0.109412
-0.166050
-0.119899
0.302335
1.458150
3.234090
