# vtk DataFile Version 3.0
Scalar Field
ASCII
DATASET RECTILINEAR_GRID
DIMENSIONS 50 50 1
X_COORDINATES 50 double
0.100000 0.300000 0.500000 0.700000 0.900000 1.100000 1.300000 1.500000 1.700000 1.900000 2.100000 2.300000 2.500000 2.700000 2.900000 3.100000 3.300000 3.500000 3.700000 3.900000 4.100000 4.300000 4.500000 4.700000 4.900000 5.100000 5.300000 5.500000 5.700000 5.900000 6.100000 6.300000 6.500000 6.700000 6.900000 7.100000 7.300000 7.500000 7.700000 7.900000 8.100000 8.300000 8.500000 8.700000 8.900000 9.100000 9.300000 9.500000 9.700000 9.900000 
Y_COORDINATES 50 double
0.100000 0.300000 0.500000 0.700000 0.900000 1.100000 1.300000 1.500000 1.700000 1.900000 2.100000 2.300000 2.500000 2.700000 2.900000 3.100000 3.300000 3.500000 3.700000 3.900000 4.100000 4.300000 4.500000 4.700000 4.900000 5.100000 5.300000 5.500000 5.700000 5.900000 6.100000 6.300000 6.500000 6.700000 6.900000 7.100000 7.300000 7.500000 7.700000 7.900000 8.100000 8.300000 8.500000 8.700000 8.900000 9.100000 9.300000 9.500000 9.700000 9.900000 
Z_COORDINATES 1 double
0.0
POINT_DATA 2500
SCALARS Skalarfeld double 1
LOOKUP_TABLE default
0.006889
0.006860
0.006922
0.007095
0.007385
0.007789
0.008308
0.008943
0.009694
0.010566
0.011560
0.012681
0.013931
0.015316
0.016838
0.018504
0.020316
0.022281
0.024402
0.026683
0.029129
0.031742
0.034524
0.037477
0.040601
0.043892
0.047347
0.050958
0.054714
0.058602
0.062604
0.066697
0.070854
0.075041
0.079220
0.083352
0.087392
0.091292
0.095005
0.098485
0.101685
0.104564
0.107087
0.109225
0.110957
0.112273
0.113173
0.113675
0.113828
0.113736
0.006918
0.006888
0.006962
0.007145
0.007439
0.007845
0.008364
0.008998
0.009749
0.010619
0.011611
0.012730
0.013978
0.015360
0.016879
0.018542
0.020350
0.022311
0.024427
0.026703
0.029143
0.031749
0.034525
0.037471
0.040588
0.043872
0.047320
0.050924
0.054674
0.058556
0.062552
0.066641
0.070793
0.074977
0.079154
0.083285
0.087324
0.091223
0.094936
0.098413
0.101609
0.104483
0.106999
0.109128
0.110852
0.112160
0.113057
0.113566
0.113734
0.113640
0.006844
0.006802
0.006877
0.007064
0.007359
0.007765
0.008282
0.008913
0.009660
0.010526
0.011513
0.012626
0.013867
0.015242
0.016754
0.018408
0.020208
0.022160
0.024267
0.026534
0.028965
0.031563
0.034331
0.037271
0.040383
0.043664
0.047111
0.050718
0.054475
0.058368
0.062380
0.066488
0.070664
0.074876
0.079087
0.083253
0.087330
0.091267
0.095015
0.098524
0.101746
0.104639
0.107166
0.109299
0.111019
0.112318
0.113203
0.113697
0.113846
0.113718
0.006631
0.006580
0.006653
0.006838
0.007132
0.007535
0.008048
0.008674
0.009414
0.010272
0.011250
0.012353
0.013584
0.014947
0.016448
0.018089
0.019876
0.021815
0.023909
0.026164
0.028583
0.031172
0.033932
0.036866
0.039975
0.043259
0.046714
0.050334
0.054111
0.058032
0.062080
0.066232
0.070461
0.074734
0.079012
0.083250
0.087400
0.091410
0.095227
0.098797
0.102071
0.105003
0.107554
0.109698
0.111415
0.112701
0.113564
0.114031
0.114150
0.113993
0.006265
0.006209
0.006278
0.006460
0.006750
0.007148
0.007654
0.008272
0.009002
0.009849
0.010815
0.011904
0.013121
0.014468
0.015952
0.017577
0.019347
0.021269
0.023347
0.025586
0.027992
0.030569
0.033321
0.036251
0.039362
0.042653
0.046123
0.049767
0.053579
0.057545
0.061650
0.065873
0.070183
0.074548
0.078927
0.083273
0.087533
0.091651
0.095570
0.099231
0.102581
0.105569
0.108156
0.110313
0.112024
0.113289
0.114119
0.114549
0.114632
0.114449
0.005742
0.005683
0.005748
0.005926
0.006210
0.006600
0.007097
0.007704
0.008421
0.009253
0.010204
0.011276
0.012473
0.013802
0.015265
0.016868
0.018617
0.020518
0.022576
0.024796
0.027186
0.029750
0.032493
0.035421
0.038535
0.041839
0.045332
0.049010
0.052869
0.056898
0.061081
0.065398
0.069819
0.074309
0.078824
0.083314
0.087722
0.091987
0.096043
0.099827
0.103276
0.106338
0.108970
0.111142
0.112841
0.114072
0.114856
0.115235
0.115274
0.115064
0.005062
0.005001
0.005063
0.005235
0.005511
0.005892
0.006377
0.006969
0.007671
0.008486
0.009416
0.010467
0.011642
0.012945
0.014383
0.015961
0.017684
0.019559
0.021592
0.023790
0.026160
0.028709
0.031442
0.034366
0.037486
0.040805
0.044326
0.048047
0.051965
0.056072
0.060353
0.064788
0.069348
0.073996
0.078684
0.083359
0.087957
0.092409
0.096643
0.100583
0.104161
0.107316
0.110001
0.112186
0.113863
0.115043
0.115761
0.116071
0.116053
0.115810
0.004228
0.004165
0.004223
0.004388
0.004655
0.005024
0.005495
0.006071
0.006753
0.007546
0.008453
0.009478
0.010625
0.011900
0.013307
0.014854
0.016545
0.018389
0.020392
0.022562
0.024908
0.027436
0.030155
0.033073
0.036197
0.039533
0.043085
0.046855
0.050842
0.055038
0.059434
0.064010
0.068739
0.073578
0.078479
0.083382
0.088217
0.092904
0.097360
0.101499
0.105238
0.108507
0.111253
0.113447
0.115085
0.116190
0.116814
0.117031
0.116938
0.116655
0.003242
0.003178
0.003231
0.003388
0.003644
0.003999
0.004453
0.005009
0.005669
0.006437
0.007315
0.008310
0.009424
0.010664
0.012035
0.013544
0.015198
0.017004
0.018970
0.021106
0.023420
0.025921
0.028621
0.031528
0.034652
0.038002
0.041584
0.045404
0.049464
0.053761
0.058286
0.063023
0.067947
0.073012
0.078167
0.083347
0.088471
0.093450
0.098183
0.102568
0.106507
0.109917
0.112734
0.114928
0.116503
0.117499
0.117991
0.118080
0.117888
0.117554
0.002107
0.002041
0.002089
0.002237
0.002481
0.002820
0.003254
0.003787
0.004421
0.005159
0.006005
0.006964
0.008040
0.009239
0.010567
0.012032
0.013640
0.015400
0.017321
0.019413
0.021686
0.024152
0.026823
0.029710
0.032826
0.036183
0.039790
0.043658
0.047792
0.052194
0.056858
0.061772
0.066916
0.072242
0.077695
0.083203
0.088678
0.094011
0.099087
0.103780
0.107970
0.111552
0.114450
0.116631
0.118108
0.118947
0.119255
0.119169
0.118846
0.118447
0.000827
0.000760
0.000801
0.000939
0.001169
0.001490
0.001902
0.002409
0.003012
0.003716
0.004525
0.005442
0.006474
0.007625
0.008903
0.010314
0.011868
0.013572
0.015438
0.017475
0.019697
0.022115
0.024744
0.027599
0.030694
0.034046
0.037668
0.041575
0.045776
0.050280
0.055087
0.060189
0.065572
0.071191
0.076987
0.082881
0.088772
0.094538
0.100036
0.105113
0.109617
0.113414
0.116408
0.118557
0.119890
0.120504
0.120555
0.120232
0.119734
0.119252
-0.000592
-0.000662
-0.000627
-0.000501
-0.000287
0.000013
0.000400
0.000877
0.001447
0.002112
0.002877
0.003747
0.004727
0.005823
0.007042
0.008392
0.009881
0.011518
0.013316
0.015285
0.017440
0.019796
0.022367
0.025172
0.028229
0.031557
0.035176
0.039105
0.043360
0.047955
0.052900
0.058192
0.063822
0.069762
0.075943
0.082281
0.088665
0.094951
0.100969
0.106526
0.111428
0.115499
0.118609
0.120705
0.121829
0.122126
0.121820
0.121174
0.120444
0.119857
-0.002147
-0.002219
-0.002192
-0.002078
-0.001882
-0.001605
-0.001246
-0.000803
-0.000272
0.000350
0.001067
0.001883
0.002804
0.003837
0.004987
0.006264
0.007677
0.009235
0.010950
0.012836
0.014907
0.017180
0.019673
0.022406
0.025400
0.028680
0.032269
0.036194
0.040477
0.045142
0.050204
0.055675
0.061551
0.067827
0.074428
0.081267
0.088224
0.095132
0.101786
0.107947
0.113360
0.117787
0.121047
0.123062
0.123892
0.123745
0.122945
0.121860
0.120823
0.120107
-0.003832
-0.003906
-0.003887
-0.003787
-0.003611
-0.003360
-0.003032
-0.002626
-0.002138
-0.001565
-0.000903
-0.000147
0.000707
0.001667
0.002740
0.003933
0.005256
0.006720
0.008337
0.010121
0.012088
0.014256
0.016645
0.019277
0.022178
0.025376
0.028901
0.032783
0.037056
0.041751
0.046897
0.052516
0.058619
0.065221
0.072261
0.079649
0.087257
0.094898
0.102327
0.109244
0.115316
0.120217
0.123684
0.125593
0.126018
0.125256
0.123776
0.122098
0.120662
0.119790
-0.005640
-0.005717
-0.005707
-0.005622
-0.005468
-0.005245
-0.004952
-0.004586
-0.004146
-0.003627
-0.003026
-0.002338
-0.001558
-0.000680
0.000304
0.001401
0.002621
0.003975
0.005476
0.007137
0.008976
0.011012
0.013267
0.015765
0.018535
0.021608
0.025020
0.028809
0.033017
0.037685
0.042857
0.048569
0.054853
0.061726
0.069203
0.077166
0.085489
0.093971
0.102328
0.110187
0.117113
0.122652
0.126418
0.128203
0.128086
0.126483
0.124073
0.121600
0.119656
0.118625
-0.007565
-0.007644
-0.007644
-0.007576
-0.007446
-0.007253
-0.006997
-0.006676
-0.006288
-0.005828
-0.005294
-0.004682
-0.003985
-0.003198
-0.002315
-0.001327
-0.000225
0.001002
0.002366
0.003882
0.005567
0.007441
0.009526
0.011850
0.014443
0.017339
0.020580
0.024209
0.028277
0.032838
0.037948
0.043663
0.050035
0.057102
0.064945
0.073459
0.082524
0.091934
0.101368
0.110377
0.118395
0.124796
0.129004
0.130669
0.129848
0.127114
0.123453
0.119932
0.117423
0.116195
-0.009599
-0.009681
-0.009691
-0.009642
-0.009537
-0.009377
-0.009162
-0.008889
-0.008557
-0.008162
-0.007701
-0.007171
-0.006566
-0.005881
-0.005109
-0.004244
-0.003276
-0.002194
-0.000988
0.000359
0.001861
0.003539
0.005416
0.007520
0.009881
0.012539
0.015535
0.018921
0.022754
0.027098
0.032024
0.037608
0.043927
0.051056
0.059071
0.068046
0.077804
0.088161
0.098778
0.109129
0.118503
0.126049
0.130917
0.132517
0.130824
0.126609
0.121316
0.116505
0.113376
0.111968
-0.011734
-0.011819
-0.011840
-0.011810
-0.011732
-0.011607
-0.011436
-0.011215
-0.010943
-0.010618
-0.010237
-0.009796
-0.009291
-0.008718
-0.008069
-0.007340
-0.006521
-0.005604
-0.004577
-0.003427
-0.002138
-0.000692
0.000934
0.002766
0.004836
0.007183
0.009850
0.012891
0.016369
0.020355
0.024934
0.030199
0.036252
0.043198
0.051137
0.060302
0.070554
0.081732
0.093504
0.105292
0.116241
0.125247
0.131102
0.132837
0.130207
0.124164
0.116821
0.110548
0.106774
0.105317
-0.013962
-0.014050
-0.014083
-0.014072
-0.014023
-0.013936
-0.013810
-0.013644
-0.013438
-0.013187
-0.012891
-0.012546
-0.012150
-0.011697
-0.011183
-0.010603
-0.009949
-0.009215
-0.008390
-0.007462
-0.006419
-0.005242
-0.003914
-0.002408
-0.000695
0.001259
0.003499
0.006078
0.009057
0.012512
0.016534
0.021229
0.026717
0.033138
0.040640
0.049388
0.059718
0.071323
0.083926
0.096957
0.109484
0.120191
0.127498
0.129925
0.126759
0.118881
0.109166
0.101343
0.096919
0.095669
-0.016273
-0.016364
-0.016409
-0.016420
-0.016400
-0.016352
-0.016275
-0.016167
-0.016028
-0.015857
-0.015651
-0.015408
-0.015127
-0.014804
-0.014435
-0.014017
-0.013544
-0.013010
-0.012408
-0.011730
-0.010963
-0.010095
-0.009111
-0.007988
-0.006705
-0.005228
-0.003523
-0.001541
0.000774
0.003492
0.006700
0.010504
0.015032
0.020435
0.026887
0.034574
0.043926
0.055081
0.067622
0.081075
0.094606
0.106909
0.116201
0.120493
0.118317
0.109871
0.098232
0.088870
0.083561
0.082872
-0.018657
-0.018752
-0.018809
-0.018842
-0.018853
-0.018845
-0.018818
-0.018771
-0.018703
-0.018614
-0.018503
-0.018368
-0.018209
-0.018023
-0.017809
-0.017564
-0.017285
-0.016969
-0.016611
-0.016205
-0.015746
-0.015224
-0.014630
-0.013949
-0.013165
-0.012257
-0.011199
-0.009958
-0.008491
-0.006745
-0.004652
-0.002126
0.000939
0.004680
0.009257
0.014854
0.021653
0.030520
0.041163
0.053124
0.066028
0.079070
0.090708
0.098694
0.100630
0.095242
0.084298
0.073751
0.068381
0.067716
-0.021106
-0.021203
-0.021273
-0.021328
-0.021371
-0.021405
-0.021429
-0.021444
-0.021449
-0.021446
-0.021432
-0.021410
-0.021378
-0.021336
-0.021284
-0.021222
-0.021149
-0.021065
-0.020968
-0.020859
-0.020734
-0.020593
-0.020431
-0.020246
-0.020031
-0.019780
-0.019484
-0.019130
-0.018704
-0.018184
-0.017542
-0.016745
-0.015743
-0.014477
-0.012872
-0.010846
-0.008314
-0.005163
0.000291
0.007476
0.016849
0.028878
0.042862
0.056655
0.066988
0.070583
0.066315
0.057979
0.053613
0.050492
-0.023608
-0.023708
-0.023791
-0.023868
-0.023943
-0.024018
-0.024095
-0.024173
-0.024253
-0.024336
-0.024423
-0.024516
-0.024614
-0.024721
-0.024837
-0.024966
-0.025108
-0.025268
-0.025448
-0.025652
-0.025886
-0.026154
-0.026463
-0.026821
-0.027238
-0.027725
-0.028297
-0.028973
-0.029776
-0.030739
-0.031902
-0.033320
-0.035068
-0.037248
-0.040006
-0.043527
-0.047972
-0.053252
-0.058673
-0.060603
-0.058352
-0.049458
-0.033459
-0.012173
0.010523
0.029430
0.039719
0.040261
0.037000
0.028805
-0.026153
-0.026256
-0.026351
-0.026450
-0.026557
-0.026674
-0.026803
-0.026944
-0.027099
-0.027270
-0.027458
-0.027667
-0.027899
-0.028157
-0.028445
-0.028769
-0.029133
-0.029544
-0.030011
-0.030543
-0.031151
-0.031851
-0.032660
-0.033600
-0.034699
-0.035991
-0.037522
-0.039351
-0.041555
-0.044240
-0.047546
-0.051670
-0.056889
-0.063600
-0.072356
-0.083834
-0.098568
-0.116308
-0.135248
-0.151585
-0.159581
-0.155483
-0.138003
-0.108718
-0.071725
-0.033433
-0.002186
0.013777
0.012014
0.003269
-0.028730
-0.028836
-0.028944
-0.029064
-0.029202
-0.029360
-0.029540
-0.029743
-0.029973
-0.030230
-0.030520
-0.030845
-0.031210
-0.031620
-0.032081
-0.032601
-0.033189
-0.033856
-0.034615
-0.035481
-0.036475
-0.037620
-0.038947
-0.040493
-0.042307
-0.044451
-0.047007
-0.050081
-0.053819
-0.058417
-0.064153
-0.071418
-0.080785
-0.093094
-0.109508
-0.131369
-0.159543
-0.193189
-0.228708
-0.260170
-0.279788
-0.281032
-0.262613
-0.226223
-0.175844
-0.117883
-0.062410
-0.023505
-0.012077
-0.012503
-0.031329
-0.031438
-0.031557
-0.031698
-0.031866
-0.032063
-0.032292
-0.032556
-0.032858
-0.033201
-0.033589
-0.034028
-0.034524
-0.035084
-0.035716
-0.036432
-0.037243
-0.038164
-0.039214
-0.040415
-0.041795
-0.043388
-0.045237
-0.047398
-0.049941
-0.052957
-0.056567
-0.060934
-0.066278
-0.072906
-0.081254
-0.091960
-0.105972
-0.124689
-0.150009
-0.183958
-0.227482
-0.278610
-0.331350
-0.376890
-0.406929
-0.412661
-0.393507
-0.351746
-0.291189
-0.216971
-0.137792
-0.069117
-0.029111
-0.016314
-0.033941
-0.034052
-0.034182
-0.034341
-0.034537
-0.034771
-0.035048
-0.035369
-0.035740
-0.036164
-0.036648
-0.037197
-0.037819
-0.038524
-0.039323
-0.040228
-0.041256
-0.042425
-0.043760
-0.045288
-0.047046
-0.049078
-0.051440
-0.054205
-0.057465
-0.061341
-0.065995
-0.071646
-0.078592
-0.087256
-0.098248
-0.112471
-0.131281
-0.156672
-0.191262
-0.237620
-0.296468
-0.364363
-0.432795
-0.490335
-0.527716
-0.536174
-0.515985
-0.470513
-0.403884
-0.319578
-0.222599
-0.125929
-0.054196
-0.027589
-0.036554
-0.036668
-0.036807
-0.036984
-0.037205
-0.037473
-0.037793
-0.038168
-0.038603
-0.039103
-0.039676
-0.040329
-0.041072
-0.041915
-0.042871
-0.043957
-0.045192
-0.046598
-0.048204
-0.050045
-0.052163
-0.054613
-0.057463
-0.060801
-0.064741
-0.069432
-0.075072
-0.081933
-0.090389
-0.100969
-0.114446
-0.131969
-0.155265
-0.186842
-0.229896
-0.287326
-0.359455
-0.441405
-0.522500
-0.589275
-0.630920
-0.640588
-0.618830
-0.570625
-0.501427
-0.413983
-0.309171
-0.195094
-0.099685
-0.061143
-0.039162
-0.039277
-0.039425
-0.039617
-0.039859
-0.040157
-0.040515
-0.040938
-0.041431
-0.042001
-0.042656
-0.043405
-0.044259
-0.045230
-0.046334
-0.047588
-0.049015
-0.050642
-0.052500
-0.054630
-0.057082
-0.059917
-0.063215
-0.067077
-0.071635
-0.077060
-0.083584
-0.091520
-0.101303
-0.113548
-0.129153
-0.149449
-0.176427
-0.212935
-0.262504
-0.328168
-0.409909
-0.501866
-0.591904
-0.665098
-0.709439
-0.719406
-0.695702
-0.645119
-0.575447
-0.490349
-0.387722
-0.269630
-0.162593
-0.116031
-0.041755
-0.041872
-0.042027
-0.042230
-0.042490
-0.042813
-0.043203
-0.043667
-0.044211
-0.044842
-0.045570
-0.046405
-0.047358
-0.048445
-0.049682
-0.051089
-0.052691
-0.054517
-0.056603
-0.058994
-0.061743
-0.064921
-0.068614
-0.072933
-0.078024
-0.084076
-0.091341
-0.100161
-0.111011
-0.124557
-0.141765
-0.164054
-0.193519
-0.233105
-0.286394
-0.356389
-0.442952
-0.539988
-0.634929
-0.712079
-0.758435
-0.768642
-0.743262
-0.690779
-0.621745
-0.542136
-0.448822
-0.338123
-0.231210
-0.181514
-0.044327
-0.044446
-0.044606
-0.044817
-0.045089
-0.045430
-0.045845
-0.046342
-0.046928
-0.047611
-0.048401
-0.049309
-0.050350
-0.051538
-0.052891
-0.054433
-0.056188
-0.058189
-0.060474
-0.063090
-0.066095
-0.069564
-0.073588
-0.078286
-0.083808
-0.090355
-0.098189
-0.107665
-0.119269
-0.133678
-0.151862
-0.175219
-0.205771
-0.246314
-0.300155
-0.370065
-0.456019
-0.552495
-0.647715
-0.726093
-0.773713
-0.784600
-0.758810
-0.705983
-0.638858
-0.566244
-0.485890
-0.389967
-0.292339
-0.244154
-0.046873
-0.046994
-0.047156
-0.047371
-0.047649
-0.048001
-0.048432
-0.048952
-0.049569
-0.050292
-0.051132
-0.052101
-0.053213
-0.054486
-0.055938
-0.057593
-0.059478
-0.061626
-0.064076
-0.066879
-0.070094
-0.073797
-0.078082
-0.083069
-0.088912
-0.095811
-0.104026
-0.113909
-0.125931
-0.140743
-0.159255
-0.182746
-0.213013
-0.252513
-0.303924
-0.369455
-0.449296
-0.539153
-0.629022
-0.704826
-0.752182
-0.764342
-0.740560
-0.690416
-0.627170
-0.562515
-0.496212
-0.418487
-0.335922
-0.292906
-0.049389
-0.049513
-0.049675
-0.049887
-0.050164
-0.050517
-0.050955
-0.051487
-0.052123
-0.052873
-0.053748
-0.054763
-0.055931
-0.057271
-0.058802
-0.060548
-0.062537
-0.064802
-0.067384
-0.070333
-0.073708
-0.077585
-0.082058
-0.087243
-0.093292
-0.100395
-0.108804
-0.118847
-0.130962
-0.145735
-0.163990
-0.186805
-0.215575
-0.252192
-0.298960
-0.357671
-0.428429
-0.507654
-0.586898
-0.653922
-0.695921
-0.706938
-0.686679
-0.643005
-0.588413
-0.533436
-0.480831
-0.421813
-0.356994
-0.321524
-0.051876
-0.052003
-0.052160
-0.052363
-0.052630
-0.052974
-0.053407
-0.053938
-0.054579
-0.055342
-0.056238
-0.057282
-0.058489
-0.059876
-0.061465
-0.063279
-0.065345
-0.067698
-0.070376
-0.073429
-0.076915
-0.080907
-0.085494
-0.090789
-0.096931
-0.104101
-0.112527
-0.122502
-0.134426
-0.148763
-0.166147
-0.187484
-0.213888
-0.246769
-0.287746
-0.338111
-0.397788
-0.463820
-0.529349
-0.584341
-0.618217
-0.626272
-0.609078
-0.572719
-0.527345
-0.482844
-0.443991
-0.402315
-0.355527
-0.328724
-0.054335
-0.054464
-0.054613
-0.054800
-0.055045
-0.055368
-0.055781
-0.056297
-0.056928
-0.057688
-0.058588
-0.059644
-0.060871
-0.062287
-0.063913
-0.065771
-0.067889
-0.070299
-0.073039
-0.076156
-0.079705
-0.083755
-0.088389
-0.093710
-0.099846
-0.106957
-0.115248
-0.124949
-0.136361
-0.149915
-0.166103
-0.185579
-0.209145
-0.237768
-0.272485
-0.314045
-0.362156
-0.414385
-0.465389
-0.507421
-0.532396
-0.536855
-0.521850
-0.492086
-0.455518
-0.420463
-0.392275
-0.365396
-0.335227
-0.317095
-0.056771
-0.056905
-0.057040
-0.057199
-0.057410
-0.057696
-0.058073
-0.058557
-0.059162
-0.059901
-0.060788
-0.061839
-0.063068
-0.064493
-0.066135
-0.068014
-0.070158
-0.072597
-0.075366
-0.078510
-0.082079
-0.086135
-0.090755
-0.096030
-0.102073
-0.109018
-0.117004
-0.126258
-0.137023
-0.149605
-0.164375
-0.181777
-0.202336
-0.226637
-0.255238
-0.288430
-0.325728
-0.365143
-0.402669
-0.432653
-0.449328
-0.450254
-0.436554
-0.411913
-0.382488
-0.355015
-0.334537
-0.318550
-0.302061
-0.291583
-0.059197
-0.059334
-0.059448
-0.059567
-0.059727
-0.059958
-0.060281
-0.060714
-0.061274
-0.061974
-0.062830
-0.063857
-0.065069
-0.066485
-0.068122
-0.070002
-0.072148
-0.074590
-0.077359
-0.080496
-0.084046
-0.088065
-0.092620
-0.097789
-0.103656
-0.110326
-0.117940
-0.126657
-0.136662
-0.148172
-0.161435
-0.176731
-0.194357
-0.214599
-0.237662
-0.263501
-0.291507
-0.320063
-0.346253
-0.366139
-0.375843
-0.373683
-0.360651
-0.339661
-0.315473
-0.293452
-0.278024
-0.269305
-0.262559
-0.257941
-0.061627
-0.061769
-0.061853
-0.061915
-0.062004
-0.062157
-0.062403
-0.062764
-0.063257
-0.063899
-0.064705
-0.065690
-0.066868
-0.068256
-0.069870
-0.071731
-0.073859
-0.076280
-0.079023
-0.082125
-0.085624
-0.089570
-0.094018
-0.099023
-0.104656
-0.111014
-0.118198
-0.126325
-0.135525
-0.145939
-0.157717
-0.171008
-0.185940
-0.202588
-0.220919
-0.240679
-0.261209
-0.281205
-0.298577
-0.310671
-0.315000
-0.310422
-0.297752
-0.279314
-0.258795
-0.240451
-0.228056
-0.223439
-0.222386
-0.221460
-0.064088
-0.064236
-0.064276
-0.064259
-0.064248
-0.064296
-0.064439
-0.064702
-0.065106
-0.065670
-0.066406
-0.067332
-0.068459
-0.069802
-0.071377
-0.073201
-0.075292
-0.077674
-0.080371
-0.083414
-0.086837
-0.090682
-0.094987
-0.099793
-0.105170
-0.111187
-0.117917
-0.125440
-0.133839
-0.143197
-0.153588
-0.165063
-0.177634
-0.191240
-0.205708
-0.220677
-0.235501
-0.249130
-0.260074
-0.266573
-0.267085
-0.260851
-0.248528
-0.231980
-0.214092
-0.198254
-0.187636
-0.184596
-0.185625
-0.186179
-0.066616
-0.066770
-0.066747
-0.066619
-0.066475
-0.066383
-0.066389
-0.066526
-0.066816
-0.067279
-0.067928
-0.068777
-0.069838
-0.071122
-0.072644
-0.074416
-0.076456
-0.078783
-0.081417
-0.084384
-0.087714
-0.091438
-0.095573
-0.100171
-0.105280
-0.110947
-0.117224
-0.124160
-0.131803
-0.140189
-0.149337
-0.159232
-0.169812
-0.180938
-0.192366
-0.203700
-0.214346
-0.223464
-0.229979
-0.232726
-0.230766
-0.223610
-0.211793
-0.196824
-0.180994
-0.167044
-0.157585
-0.154366
-0.154527
-0.154448
-0.069267
-0.069425
-0.069310
-0.069028
-0.068701
-0.068423
-0.068254
-0.068231
-0.068381
-0.068721
-0.069264
-0.070021
-0.071002
-0.072216
-0.073672
-0.075383
-0.077360
-0.079620
-0.082179
-0.085059
-0.088284
-0.091872
-0.095835
-0.100221
-0.105061
-0.110389
-0.116235
-0.122626
-0.129583
-0.137108
-0.145181
-0.153749
-0.162704
-0.171870
-0.180977
-0.189639
-0.197332
-0.203382
-0.207004
-0.207410
-0.204029
-0.196579
-0.185478
-0.171973
-0.157921
-0.145580
-0.137081
-0.132697
-0.129508
-0.126639
-0.072120
-0.072278
-0.072026
-0.071523
-0.070948
-0.070426
-0.070033
-0.069813
-0.069792
-0.069987
-0.070408
-0.071060
-0.071951
-0.073084
-0.074467
-0.076108
-0.078015
-0.080200
-0.082679
-0.085465
-0.088579
-0.092026
-0.095821
-0.100001
-0.104586
-0.109596
-0.115048
-0.120953
-0.127309
-0.134097
-0.141274
-0.148760
-0.156428
-0.164088
-0.171474
-0.178229
-0.183900
-0.187947
-0.189780
-0.188850
-0.184795
-0.177551
-0.167323
-0.155226
-0.142782
-0.131856
-0.124034
-0.118432
-0.109141
-0.100657
-0.075300
-0.075447
-0.074981
-0.074158
-0.073239
-0.072396
-0.071720
-0.071261
-0.071041
-0.071070
-0.071354
-0.071892
-0.072684
-0.073731
-0.075036
-0.076601
-0.078434
-0.080542
-0.082936
-0.085628
-0.088631
-0.091941
-0.095577
-0.099563
-0.103914
-0.108640
-0.113747
-0.119232
-0.125080
-0.131259
-0.137711
-0.144345
-0.151026
-0.157566
-0.163713
-0.169148
-0.173484
-0.176283
-0.177090
-0.175509
-0.171302
-0.164524
-0.155273
-0.144515
-0.133510
-0.123781
-0.116343
-0.108923
-0.089567
-0.070657
-0.079007
-0.079112
-0.078297
-0.076996
-0.075598
-0.074333
-0.073305
-0.072560
-0.072111
-0.071958
-0.072094
-0.072512
-0.073203
-0.074161
-0.075385
-0.076875
-0.078633
-0.080663
-0.082974
-0.085572
-0.088469
-0.091652
-0.095142
-0.098955
-0.103100
-0.107581
-0.112395
-0.117532
-0.122968
-0.128664
-0.134552
-0.140539
-0.146491
-0.152227
-0.157517
-0.162077
-0.165577
-0.167652
-0.167944
-0.166149
-0.162101
-0.155860
-0.147668
-0.138113
-0.128306
-0.119385
-0.111516
-0.100132
-0.063125
-0.023967
-0.083578
-0.083566
-0.082150
-0.080110
-0.078038
-0.076221
-0.074763
-0.073687
-0.072985
-0.072637
-0.072622
-0.072918
-0.073509
-0.074381
-0.075526
-0.076941
-0.078625
-0.080582
-0.082813
-0.085323
-0.088122
-0.091191
-0.094552
-0.098217
-0.102188
-0.106466
-0.111044
-0.115905
-0.121023
-0.126351
-0.131823
-0.137344
-0.142784
-0.147976
-0.152707
-0.156727
-0.159747
-0.161460
-0.161569
-0.159832
-0.156113
-0.150457
-0.143145
-0.134624
-0.125651
-0.116873
-0.106361
-0.083715
-0.014805
0.066122
-0.089639
-0.089305
-0.086781
-0.083564
-0.080539
-0.078020
-0.076051
-0.074604
-0.073634
-0.073089
-0.072926
-0.073107
-0.073604
-0.074394
-0.075464
-0.076808
-0.078425
-0.080313
-0.082473
-0.084902
-0.087612
-0.090582
-0.093837
-0.097380
-0.101213
-0.105332
-0.109730
-0.114386
-0.119272
-0.124342
-0.129527
-0.134736
-0.139846
-0.144700
-0.149104
-0.152829
-0.155621
-0.157212
-0.157345
-0.155811
-0.152488
-0.147386
-0.140686
-0.132744
-0.124035
-0.114295
-0.096166
-0.042368
0.089072
0.256247
-0.098490
-0.097222
-0.092487
-0.087353
-0.083006
-0.079638
-0.077093
-0.075251
-0.074012
-0.073279
-0.072978
-0.073056
-0.073472
-0.074187
-0.075188
-0.076466
-0.078022
-0.079852
-0.081957
-0.084311
-0.086940
-0.089837
-0.093009
-0.096460
-0.100190
-0.104196
-0.108467
-0.112984
-0.117718
-0.122622
-0.127630
-0.132653
-0.137574
-0.142245
-0.146484
-0.150081
-0.152802
-0.154405
-0.154657
-0.153364
-0.150400
-0.145724
-0.139384
-0.131412
-0.121639
-0.108126
-0.070569
0.049342
0.331428
0.667551
-0.113472
-0.109142
-0.099509
-0.091263
-0.085165
-0.080871
-0.077697
-0.075437
-0.073939
-0.073036
-0.072615
-0.072604
-0.072965
-0.073610
-0.074552
-0.075790
-0.077299
-0.079080
-0.081128
-0.083437
-0.086015
-0.088861
-0.091980
-0.095373
-0.099041
-0.102979
-0.107176
-0.111615
-0.116263
-0.121076
-0.125989
-0.130915
-0.135740
-0.140322
-0.144488
-0.148037
-0.150749
-0.152395
-0.152755
-0.151637
-0.148892
-0.144396
-0.137966
-0.128979
-0.116012
-0.088506
0.000820
0.263973
0.842588
1.545675
-0.143434
-0.127268
-0.107692
-0.093967
-0.085400
-0.080224
-0.076307
-0.073836
-0.072209
-0.071222
-0.070757
-0.070727
-0.071070
-0.071729
-0.072692
-0.073946
-0.075475
-0.077272
-0.079335
-0.081659
-0.084249
-0.087106
-0.090232
-0.093630
-0.097298
-0.101233
-0.105422
-0.109847
-0.114477
-0.119265
-0.124148
-0.129038
-0.133824
-0.138365
-0.142492
-0.146012
-0.148711
-0.150367
-0.150765
-0.149701
-0.146960
-0.142236
-0.134729
-0.122306
-0.099162
-0.026568
0.183082
0.719468
1.810203
3.210207
-0.247157
-0.109792
-0.079648
-0.070007
-0.065852
-0.063812
-0.062569
-0.061988
-0.061810
-0.061962
-0.062412
-0.063134
-0.064103
-0.065300
-0.066725
-0.068378
-0.070257
-0.072364
-0.074701
-0.077272
-0.080082
-0.083137
-0.086443
-0.090002
-0.093816
-0.097882
-0.102188
-0.106716
-0.111435
-0.116299
-0.121244
-0.126183
-0.131004
-0.135569
-0.139712
-0.143242
-0.145952
-0.147622
-0.148032
-0.146945
-0.144008
-0.138489
-0.127991
-0.105392
-0.044221
0.114710
0.509437
1.397394
3.067322
5.286138
