# vtk DataFile Version 3.0
Vector Field
ASCII
DATASET RECTILINEAR_GRID
DIMENSIONS 50 50 1
X_COORDINATES 50 double
0.100000 0.300000 0.500000 0.700000 0.900000 1.100000 1.300000 1.500000 1.700000 1.900000 2.100000 2.300000 2.500000 2.700000 2.900000 3.100000 3.300000 3.500000 3.700000 3.900000 4.100000 4.300000 4.500000 4.700000 4.900000 5.100000 5.300000 5.500000 5.700000 5.900000 6.100000 6.300000 6.500000 6.700000 6.900000 7.100000 7.300000 7.500000 7.700000 7.900000 8.100000 8.300000 8.500000 8.700000 8.900000 9.100000 9.300000 9.500000 9.700000 9.900000 
Y_COORDINATES 50 double
0.100000 0.300000 0.500000 0.700000 0.900000 1.100000 1.300000 1.500000 1.700000 1.900000 2.100000 2.300000 2.500000 2.700000 2.900000 3.100000 3.300000 3.500000 3.700000 3.900000 4.100000 4.300000 4.500000 4.700000 4.900000 5.100000 5.300000 5.500000 5.700000 5.900000 6.100000 6.300000 6.500000 6.700000 6.900000 7.100000 7.300000 7.500000 7.700000 7.900000 8.100000 8.300000 8.500000 8.700000 8.900000 9.100000 9.300000 9.500000 9.700000 9.900000 
Z_COORDINATES 1 double
0.0
POINT_DATA 2500
VECTORS Vektorfeld double
-0.000151 0.000151 0.0
-0.000683 0.000381 0.0
-0.001544 0.000480 0.0
-0.002532 0.000508 0.0
-0.003553 0.000513 0.0
-0.004576 0.000511 0.0
-0.005594 0.000508 0.0
-0.006606 0.000504 0.0
-0.007611 0.000500 0.0
-0.008607 0.000495 0.0
-0.009592 0.000490 0.0
-0.010565 0.000483 0.0
-0.011524 0.000475 0.0
-0.012466 0.000466 0.0
-0.013388 0.000456 0.0
-0.014288 0.000444 0.0
-0.015163 0.000430 0.0
-0.016008 0.000415 0.0
-0.016820 0.000397 0.0
-0.017594 0.000377 0.0
-0.018327 0.000355 0.0
-0.019012 0.000330 0.0
-0.019644 0.000302 0.0
-0.020218 0.000271 0.0
-0.020727 0.000238 0.0
-0.021165 0.000200 0.0
-0.021525 0.000160 0.0
-0.021801 0.000116 0.0
-0.021986 0.000069 0.0
-0.022072 0.000018 0.0
-0.022054 -0.000036 0.0
-0.021925 -0.000093 0.0
-0.021678 -0.000154 0.0
-0.021307 -0.000217 0.0
-0.020808 -0.000282 0.0
-0.020177 -0.000349 0.0
-0.019412 -0.000417 0.0
-0.018511 -0.000484 0.0
-0.017475 -0.000551 0.0
-0.016307 -0.000617 0.0
-0.015011 -0.000680 0.0
-0.013593 -0.000739 0.0
-0.012060 -0.000793 0.0
-0.010424 -0.000843 0.0
-0.008696 -0.000885 0.0
-0.006892 -0.000919 0.0
-0.005037 -0.000936 0.0
-0.003193 -0.000908 0.0
-0.001518 -0.000767 0.0
-0.000376 -0.000376 0.0
-0.000390 0.000692 0.0
-0.001547 0.001529 0.0
-0.003240 0.001887 0.0
-0.005147 0.001996 0.0
-0.007117 0.002015 0.0
-0.009093 0.002008 0.0
-0.011059 0.001994 0.0
-0.013006 0.001977 0.0
-0.014931 0.001957 0.0
-0.016829 0.001933 0.0
-0.018696 0.001905 0.0
-0.020528 0.001873 0.0
-0.022320 0.001836 0.0
-0.024067 0.001794 0.0
-0.025764 0.001747 0.0
-0.027404 0.001693 0.0
-0.028982 0.001633 0.0
-0.030490 0.001566 0.0
-0.031922 0.001491 0.0
-0.033271 0.001407 0.0
-0.034527 0.001314 0.0
-0.035683 0.001212 0.0
-0.036731 0.001100 0.0
-0.037659 0.000976 0.0
-0.038460 0.000842 0.0
-0.039122 0.000696 0.0
-0.039635 0.000538 0.0
-0.039991 0.000369 0.0
-0.040177 0.000187 0.0
-0.040184 -0.000006 0.0
-0.040002 -0.000211 0.0
-0.039622 -0.000427 0.0
-0.039036 -0.000653 0.0
-0.038237 -0.000888 0.0
-0.037219 -0.001129 0.0
-0.035979 -0.001374 0.0
-0.034514 -0.001622 0.0
-0.032824 -0.001869 0.0
-0.030913 -0.002113 0.0
-0.028786 -0.002350 0.0
-0.026451 -0.002577 0.0
-0.023920 -0.002791 0.0
-0.021205 -0.002988 0.0
-0.018324 -0.003165 0.0
-0.015299 -0.003317 0.0
-0.012156 -0.003435 0.0
-0.008943 -0.003488 0.0
-0.005762 -0.003381 0.0
-0.002851 -0.002879 0.0
-0.000752 -0.001504 0.0
-0.000500 0.001582 0.0
-0.001943 0.003238 0.0
-0.004005 0.003933 0.0
-0.006299 0.004151 0.0
-0.008659 0.004191 0.0
-0.011026 0.004176 0.0
-0.013377 0.004143 0.0
-0.015704 0.004102 0.0
-0.018000 0.004053 0.0
-0.020260 0.003995 0.0
-0.022478 0.003929 0.0
-0.024649 0.003853 0.0
-0.026766 0.003766 0.0
-0.028824 0.003669 0.0
-0.030816 0.003560 0.0
-0.032734 0.003439 0.0
-0.034572 0.003304 0.0
-0.036323 0.003154 0.0
-0.037976 0.002988 0.0
-0.039526 0.002806 0.0
-0.040961 0.002607 0.0
-0.042273 0.002388 0.0
-0.043452 0.002150 0.0
-0.044487 0.001891 0.0
-0.045369 0.001610 0.0
-0.046085 0.001307 0.0
-0.046626 0.000981 0.0
-0.046979 0.000633 0.0
-0.047133 0.000263 0.0
-0.047078 -0.000130 0.0
-0.046804 -0.000544 0.0
-0.046300 -0.000978 0.0
-0.045560 -0.001429 0.0
-0.044577 -0.001895 0.0
-0.043343 -0.002372 0.0
-0.041856 -0.002857 0.0
-0.040115 -0.003345 0.0
-0.038120 -0.003830 0.0
-0.035875 -0.004308 0.0
-0.033387 -0.004771 0.0
-0.030664 -0.005214 0.0
-0.027720 -0.005630 0.0
-0.024572 -0.006012 0.0
-0.021238 -0.006355 0.0
-0.017742 -0.006648 0.0
-0.014116 -0.006872 0.0
-0.010413 -0.006967 0.0
-0.006740 -0.006756 0.0
-0.003359 -0.005798 0.0
-0.000893 -0.003149 0.0
-0.000537 0.002619 0.0
-0.002085 0.005192 0.0
-0.004288 0.006244 0.0
-0.006728 0.006574 0.0
-0.009232 0.006634 0.0
-0.011740 0.006608 0.0
-0.014230 0.006553 0.0
-0.016694 0.006482 0.0
-0.019123 0.006398 0.0
-0.021513 0.006299 0.0
-0.023857 0.006186 0.0
-0.026149 0.006058 0.0
-0.028383 0.005913 0.0
-0.030553 0.005750 0.0
-0.032650 0.005569 0.0
-0.034669 0.005368 0.0
-0.036602 0.005145 0.0
-0.038440 0.004900 0.0
-0.040175 0.004631 0.0
-0.041798 0.004336 0.0
-0.043301 0.004015 0.0
-0.044673 0.003664 0.0
-0.045904 0.003284 0.0
-0.046983 0.002872 0.0
-0.047901 0.002427 0.0
-0.048644 0.001950 0.0
-0.049203 0.001438 0.0
-0.049565 0.000892 0.0
-0.049720 0.000313 0.0
-0.049655 -0.000300 0.0
-0.049360 -0.000943 0.0
-0.048826 -0.001615 0.0
-0.048044 -0.002313 0.0
-0.047006 -0.003032 0.0
-0.045706 -0.003768 0.0
-0.044141 -0.004514 0.0
-0.042308 -0.005263 0.0
-0.040209 -0.006007 0.0
-0.037846 -0.006739 0.0
-0.035226 -0.007448 0.0
-0.032360 -0.008125 0.0
-0.029260 -0.008761 0.0
-0.025944 -0.009346 0.0
-0.022432 -0.009868 0.0
-0.018748 -0.010314 0.0
-0.014926 -0.010654 0.0
-0.011020 -0.010796 0.0
-0.007140 -0.010479 0.0
-0.003558 -0.009038 0.0
-0.000945 -0.004987 0.0
-0.000547 0.003703 0.0
-0.002130 0.007238 0.0
-0.004386 0.008657 0.0
-0.006882 0.009097 0.0
-0.009441 0.009175 0.0
-0.012003 0.009136 0.0
-0.014546 0.009057 0.0
-0.017061 0.008956 0.0
-0.019541 0.008834 0.0
-0.021982 0.008693 0.0
-0.024376 0.008531 0.0
-0.026718 0.008347 0.0
-0.029000 0.008140 0.0
-0.031217 0.007909 0.0
-0.033362 0.007652 0.0
-0.035427 0.007368 0.0
-0.037405 0.007055 0.0
-0.039288 0.006711 0.0
-0.041066 0.006334 0.0
-0.042733 0.005923 0.0
-0.044278 0.005475 0.0
-0.045690 0.004988 0.0
-0.046962 0.004461 0.0
-0.048080 0.003892 0.0
-0.049035 0.003279 0.0
-0.049814 0.002621 0.0
-0.050406 0.001917 0.0
-0.050799 0.001168 0.0
-0.050982 0.000373 0.0
-0.050941 -0.000466 0.0
-0.050667 -0.001346 0.0
-0.050148 -0.002265 0.0
-0.049374 -0.003219 0.0
-0.048338 -0.004201 0.0
-0.047032 -0.005205 0.0
-0.045450 -0.006223 0.0
-0.043591 -0.007245 0.0
-0.041454 -0.008261 0.0
-0.039043 -0.009259 0.0
-0.036363 -0.010227 0.0
-0.033423 -0.011152 0.0
-0.030239 -0.012019 0.0
-0.026826 -0.012817 0.0
-0.023205 -0.013530 0.0
-0.019403 -0.014138 0.0
-0.015454 -0.014601 0.0
-0.011413 -0.014797 0.0
-0.007394 -0.014377 0.0
-0.003681 -0.012436 0.0
-0.000976 -0.006908 0.0
-0.000551 0.004801 0.0
-0.002148 0.009320 0.0
-0.004431 0.011112 0.0
-0.006957 0.011663 0.0
-0.009547 0.011758 0.0
-0.012140 0.011707 0.0
-0.014713 0.011603 0.0
-0.017258 0.011471 0.0
-0.019770 0.011312 0.0
-0.022242 0.011128 0.0
-0.024668 0.010916 0.0
-0.027042 0.010677 0.0
-0.029359 0.010409 0.0
-0.031610 0.010109 0.0
-0.033791 0.009777 0.0
-0.035892 0.009410 0.0
-0.037908 0.009007 0.0
-0.039830 0.008564 0.0
-0.041650 0.008080 0.0
-0.043359 0.007553 0.0
-0.044948 0.006979 0.0
-0.046406 0.006356 0.0
-0.047724 0.005683 0.0
-0.048890 0.004956 0.0
-0.049894 0.004173 0.0
-0.050722 0.003334 0.0
-0.051364 0.002438 0.0
-0.051806 0.001483 0.0
-0.052035 0.000470 0.0
-0.052040 -0.000598 0.0
-0.051807 -0.001721 0.0
-0.051325 -0.002892 0.0
-0.050583 -0.004108 0.0
-0.049570 -0.005361 0.0
-0.048279 -0.006643 0.0
-0.046702 -0.007943 0.0
-0.044836 -0.009250 0.0
-0.042680 -0.010550 0.0
-0.040235 -0.011828 0.0
-0.037506 -0.013068 0.0
-0.034504 -0.014253 0.0
-0.031241 -0.015366 0.0
-0.027734 -0.016390 0.0
-0.024006 -0.017305 0.0
-0.020084 -0.018087 0.0
-0.016003 -0.018682 0.0
-0.011821 -0.018939 0.0
-0.007658 -0.018415 0.0
-0.003812 -0.015956 0.0
-0.001010 -0.008894 0.0
-0.000554 0.005906 0.0
-0.002164 0.011423 0.0
-0.004468 0.013596 0.0
-0.007021 0.014259 0.0
-0.009640 0.014371 0.0
-0.012260 0.014306 0.0
-0.014862 0.014179 0.0
-0.017437 0.014015 0.0
-0.019979 0.013820 0.0
-0.022481 0.013594 0.0
-0.024939 0.013334 0.0
-0.027347 0.013041 0.0
-0.029698 0.012712 0.0
-0.031986 0.012346 0.0
-0.034205 0.011940 0.0
-0.036347 0.011492 0.0
-0.038405 0.010999 0.0
-0.040372 0.010460 0.0
-0.042239 0.009871 0.0
-0.043998 0.009229 0.0
-0.045639 0.008532 0.0
-0.047153 0.007775 0.0
-0.048528 0.006957 0.0
-0.049754 0.006074 0.0
-0.050819 0.005124 0.0
-0.051710 0.004104 0.0
-0.052415 0.003014 0.0
-0.052921 0.001853 0.0
-0.053213 0.000621 0.0
-0.053278 -0.000680 0.0
-0.053101 -0.002048 0.0
-0.052671 -0.003477 0.0
-0.051973 -0.004963 0.0
-0.050997 -0.006496 0.0
-0.049731 -0.008066 0.0
-0.048168 -0.009660 0.0
-0.046301 -0.011265 0.0
-0.044128 -0.012864 0.0
-0.041649 -0.014438 0.0
-0.038869 -0.015967 0.0
-0.035795 -0.017430 0.0
-0.032441 -0.018806 0.0
-0.028825 -0.020072 0.0
-0.024970 -0.021206 0.0
-0.020903 -0.022175 0.0
-0.016664 -0.022915 0.0
-0.012313 -0.023240 0.0
-0.007979 -0.022611 0.0
-0.003972 -0.019615 0.0
-0.001053 -0.010957 0.0
-0.000557 0.007017 0.0
-0.002181 0.013546 0.0
-0.004510 0.016107 0.0
-0.007093 0.016884 0.0
-0.009742 0.017014 0.0
-0.012394 0.016936 0.0
-0.015029 0.016785 0.0
-0.017637 0.016592 0.0
-0.020212 0.016361 0.0
-0.022750 0.016094 0.0
-0.025245 0.015787 0.0
-0.027691 0.015442 0.0
-0.030082 0.015054 0.0
-0.032412 0.014622 0.0
-0.034675 0.014145 0.0
-0.036864 0.013618 0.0
-0.038972 0.013040 0.0
-0.040991 0.012406 0.0
-0.042914 0.011715 0.0
-0.044732 0.010962 0.0
-0.046435 0.010143 0.0
-0.048014 0.009256 0.0
-0.049458 0.008295 0.0
-0.050756 0.007259 0.0
-0.051895 0.006143 0.0
-0.052863 0.004944 0.0
-0.053645 0.003662 0.0
-0.054228 0.002294 0.0
-0.054597 0.000841 0.0
-0.054737 -0.000696 0.0
-0.054631 -0.002314 0.0
-0.054266 -0.004008 0.0
-0.053625 -0.005771 0.0
-0.052696 -0.007594 0.0
-0.051465 -0.009464 0.0
-0.049922 -0.011368 0.0
-0.048058 -0.013288 0.0
-0.045870 -0.015203 0.0
-0.043354 -0.017093 0.0
-0.040513 -0.018932 0.0
-0.037357 -0.020695 0.0
-0.033896 -0.022356 0.0
-0.030149 -0.023886 0.0
-0.026140 -0.025257 0.0
-0.021899 -0.026431 0.0
-0.017468 -0.027329 0.0
-0.012914 -0.027731 0.0
-0.008372 -0.026995 0.0
-0.004170 -0.023439 0.0
-0.001106 -0.013115 0.0
-0.000562 0.008136 0.0
-0.002202 0.015692 0.0
-0.004559 0.018647 0.0
-0.007175 0.019542 0.0
-0.009860 0.019690 0.0
-0.012549 0.019601 0.0
-0.015220 0.019427 0.0
-0.017866 0.019204 0.0
-0.020481 0.018939 0.0
-0.023060 0.018632 0.0
-0.025596 0.018280 0.0
-0.028086 0.017884 0.0
-0.030523 0.017439 0.0
-0.032901 0.016945 0.0
-0.035215 0.016398 0.0
-0.037458 0.015796 0.0
-0.039623 0.015135 0.0
-0.041703 0.014411 0.0
-0.043690 0.013621 0.0
-0.045576 0.012760 0.0
-0.047352 0.011824 0.0
-0.049007 0.010809 0.0
-0.050531 0.009710 0.0
-0.051912 0.008523 0.0
-0.053139 0.007244 0.0
-0.054196 0.005869 0.0
-0.055071 0.004395 0.0
-0.055746 0.002821 0.0
-0.056207 0.001145 0.0
-0.056437 -0.000630 0.0
-0.056418 -0.002503 0.0
-0.056132 -0.004469 0.0
-0.055563 -0.006519 0.0
-0.054694 -0.008644 0.0
-0.053509 -0.010830 0.0
-0.051994 -0.013060 0.0
-0.050139 -0.015314 0.0
-0.047936 -0.017569 0.0
-0.045380 -0.019799 0.0
-0.042473 -0.021974 0.0
-0.039221 -0.024063 0.0
-0.035635 -0.026034 0.0
-0.031734 -0.027855 0.0
-0.027543 -0.029488 0.0
-0.023095 -0.030888 0.0
-0.018435 -0.031962 0.0
-0.013636 -0.032452 0.0
-0.008845 -0.031608 0.0
-0.004408 -0.027466 0.0
-0.001170 -0.015391 0.0
-0.000567 0.009264 0.0
-0.002226 0.017864 0.0
-0.004615 0.021221 0.0
-0.007269 0.022237 0.0
-0.009994 0.022405 0.0
-0.012724 0.022305 0.0
-0.015438 0.022109 0.0
-0.018127 0.021858 0.0
-0.020786 0.021560 0.0
-0.023410 0.021214 0.0
-0.025994 0.020819 0.0
-0.028533 0.020374 0.0
-0.031021 0.019875 0.0
-0.033454 0.019321 0.0
-0.035825 0.018708 0.0
-0.038128 0.018033 0.0
-0.040358 0.017292 0.0
-0.042506 0.016482 0.0
-0.044566 0.015597 0.0
-0.046530 0.014633 0.0
-0.048387 0.013584 0.0
-0.050129 0.012446 0.0
-0.051745 0.011213 0.0
-0.053223 0.009879 0.0
-0.054550 0.008440 0.0
-0.055712 0.006891 0.0
-0.056694 0.005228 0.0
-0.057479 0.003448 0.0
-0.058049 0.001549 0.0
-0.058386 -0.000468 0.0
-0.058470 -0.002601 0.0
-0.058282 -0.004845 0.0
-0.057801 -0.007193 0.0
-0.057007 -0.009633 0.0
-0.055881 -0.012151 0.0
-0.054406 -0.014728 0.0
-0.052568 -0.017340 0.0
-0.050354 -0.019960 0.0
-0.047758 -0.022559 0.0
-0.044778 -0.025101 0.0
-0.041418 -0.027549 0.0
-0.037689 -0.029864 0.0
-0.033609 -0.032006 0.0
-0.029206 -0.033931 0.0
-0.024514 -0.035585 0.0
-0.019583 -0.036856 0.0
-0.014494 -0.037446 0.0
-0.009407 -0.036493 0.0
-0.004691 -0.031733 0.0
-0.001246 -0.017806 0.0
-0.000572 0.010403 0.0
-0.002253 0.020065 0.0
-0.004678 0.023835 0.0
-0.007375 0.024974 0.0
-0.010144 0.025163 0.0
-0.012920 0.025052 0.0
-0.015681 0.024835 0.0
-0.018418 0.024557 0.0
-0.021126 0.024227 0.0
-0.023800 0.023845 0.0
-0.026437 0.023408 0.0
-0.029030 0.022916 0.0
-0.031575 0.022366 0.0
-0.034068 0.021755 0.0
-0.036503 0.021079 0.0
-0.038873 0.020336 0.0
-0.041174 0.019520 0.0
-0.043398 0.018627 0.0
-0.045539 0.017653 0.0
-0.047589 0.016590 0.0
-0.049538 0.015434 0.0
-0.051378 0.014178 0.0
-0.053098 0.012816 0.0
-0.054685 0.011341 0.0
-0.056127 0.009747 0.0
-0.057409 0.008028 0.0
-0.058514 0.006178 0.0
-0.059425 0.004194 0.0
-0.060123 0.002072 0.0
-0.060587 -0.000189 0.0
-0.060795 -0.002587 0.0
-0.060725 -0.005118 0.0
-0.060351 -0.007775 0.0
-0.059652 -0.010545 0.0
-0.058603 -0.013414 0.0
-0.057183 -0.016360 0.0
-0.055372 -0.019357 0.0
-0.053155 -0.022374 0.0
-0.050521 -0.025376 0.0
-0.047463 -0.028321 0.0
-0.043984 -0.031167 0.0
-0.040094 -0.033866 0.0
-0.035809 -0.036368 0.0
-0.031159 -0.038623 0.0
-0.026183 -0.040562 0.0
-0.020936 -0.042057 0.0
-0.015506 -0.042764 0.0
-0.010069 -0.041700 0.0
-0.005025 -0.036286 0.0
-0.001335 -0.020388 0.0
-0.000579 0.011554 0.0
-0.002283 0.022299 0.0
-0.004748 0.026490 0.0
-0.007491 0.027757 0.0
-0.010310 0.027969 0.0
-0.013136 0.027848 0.0
-0.015948 0.027611 0.0
-0.018737 0.027307 0.0
-0.021499 0.026947 0.0
-0.024229 0.026529 0.0
-0.026922 0.026054 0.0
-0.029575 0.025517 0.0
-0.032183 0.024918 0.0
-0.034741 0.024253 0.0
-0.037244 0.023519 0.0
-0.039688 0.022711 0.0
-0.042066 0.021824 0.0
-0.044374 0.020855 0.0
-0.046603 0.019796 0.0
-0.048748 0.018641 0.0
-0.050799 0.017384 0.0
-0.052747 0.016017 0.0
-0.054582 0.014533 0.0
-0.056292 0.012923 0.0
-0.057864 0.011179 0.0
-0.059281 0.009295 0.0
-0.060528 0.007263 0.0
-0.061585 0.005077 0.0
-0.062432 0.002733 0.0
-0.063045 0.000227 0.0
-0.063399 -0.002440 0.0
-0.063470 -0.005266 0.0
-0.063228 -0.008243 0.0
-0.062646 -0.011359 0.0
-0.061695 -0.014599 0.0
-0.060349 -0.017940 0.0
-0.058582 -0.021353 0.0
-0.056374 -0.024803 0.0
-0.053706 -0.028248 0.0
-0.050570 -0.031642 0.0
-0.046963 -0.034932 0.0
-0.042892 -0.038062 0.0
-0.038375 -0.040973 0.0
-0.033443 -0.043601 0.0
-0.028137 -0.045866 0.0
-0.022520 -0.047617 0.0
-0.016692 -0.048461 0.0
-0.010846 -0.047286 0.0
-0.005416 -0.041175 0.0
-0.001440 -0.023164 0.0
-0.000585 0.012718 0.0
-0.002315 0.024569 0.0
-0.004823 0.029193 0.0
-0.007617 0.030591 0.0
-0.010490 0.030827 0.0
-0.013371 0.030698 0.0
-0.016239 0.030441 0.0
-0.019084 0.030113 0.0
-0.021904 0.029723 0.0
-0.024694 0.029272 0.0
-0.027448 0.028759 0.0
-0.030165 0.028181 0.0
-0.032840 0.027536 0.0
-0.035468 0.026821 0.0
-0.038045 0.026032 0.0
-0.040568 0.025164 0.0
-0.043030 0.024212 0.0
-0.045427 0.023171 0.0
-0.047753 0.022034 0.0
-0.050000 0.020795 0.0
-0.052162 0.019444 0.0
-0.054230 0.017973 0.0
-0.056192 0.016374 0.0
-0.058038 0.014637 0.0
-0.059754 0.012752 0.0
-0.061325 0.010710 0.0
-0.062732 0.008502 0.0
-0.063956 0.006119 0.0
-0.064974 0.003555 0.0
-0.065760 0.000804 0.0
-0.066288 -0.002135 0.0
-0.066527 -0.005262 0.0
-0.066445 -0.008570 0.0
-0.066008 -0.012050 0.0
-0.065183 -0.015684 0.0
-0.063936 -0.019449 0.0
-0.062235 -0.023313 0.0
-0.060051 -0.027236 0.0
-0.057360 -0.031173 0.0
-0.054147 -0.035067 0.0
-0.050404 -0.038857 0.0
-0.046136 -0.042476 0.0
-0.041359 -0.045852 0.0
-0.036103 -0.048909 0.0
-0.030417 -0.051549 0.0
-0.024371 -0.053597 0.0
-0.018078 -0.054603 0.0
-0.011753 -0.053315 0.0
-0.005872 -0.046456 0.0
-0.001563 -0.026167 0.0
-0.000593 0.013896 0.0
-0.002350 0.026877 0.0
-0.004904 0.031947 0.0
-0.007753 0.033481 0.0
-0.010684 0.033741 0.0
-0.013624 0.033604 0.0
-0.016551 0.033329 0.0
-0.019458 0.032977 0.0
-0.022340 0.032560 0.0
-0.025193 0.032078 0.0
-0.028013 0.031529 0.0
-0.030798 0.030913 0.0
-0.033543 0.030225 0.0
-0.036245 0.029463 0.0
-0.038901 0.028623 0.0
-0.041507 0.027700 0.0
-0.044059 0.026689 0.0
-0.046552 0.025584 0.0
-0.048980 0.024376 0.0
-0.051339 0.023059 0.0
-0.053620 0.021623 0.0
-0.055817 0.020058 0.0
-0.057919 0.018354 0.0
-0.059914 0.016499 0.0
-0.061790 0.014482 0.0
-0.063532 0.012292 0.0
-0.065119 0.009915 0.0
-0.066532 0.007343 0.0
-0.067747 0.004564 0.0
-0.068734 0.001570 0.0
-0.069465 -0.001642 0.0
-0.069905 -0.005076 0.0
-0.070016 -0.008727 0.0
-0.069760 -0.012587 0.0
-0.069094 -0.016638 0.0
-0.067978 -0.020858 0.0
-0.066370 -0.025212 0.0
-0.064234 -0.029657 0.0
-0.061537 -0.034140 0.0
-0.058254 -0.038596 0.0
-0.054372 -0.042953 0.0
-0.049890 -0.047131 0.0
-0.044821 -0.051043 0.0
-0.039199 -0.054596 0.0
-0.033075 -0.057672 0.0
-0.026531 -0.060065 0.0
-0.019695 -0.061264 0.0
-0.012812 -0.059862 0.0
-0.006404 -0.052197 0.0
-0.001705 -0.029435 0.0
-0.000600 0.015089 0.0
-0.002386 0.029228 0.0
-0.004991 0.034755 0.0
-0.007899 0.036429 0.0
-0.010892 0.036717 0.0
-0.013895 0.036572 0.0
-0.016886 0.036280 0.0
-0.019857 0.035905 0.0
-0.022804 0.035461 0.0
-0.025724 0.034949 0.0
-0.028614 0.034368 0.0
-0.031469 0.033715 0.0
-0.034289 0.032988 0.0
-0.037069 0.032183 0.0
-0.039808 0.031298 0.0
-0.042501 0.030325 0.0
-0.045147 0.029261 0.0
-0.047740 0.028098 0.0
-0.050278 0.026828 0.0
-0.052754 0.025442 0.0
-0.055163 0.023931 0.0
-0.057499 0.022282 0.0
-0.059751 0.020484 0.0
-0.061910 0.018523 0.0
-0.063962 0.016386 0.0
-0.065892 0.014059 0.0
-0.067681 0.011525 0.0
-0.069308 0.008772 0.0
-0.070746 0.005786 0.0
-0.071966 0.002555 0.0
-0.072934 -0.000929 0.0
-0.073611 -0.004673 0.0
-0.073955 -0.008675 0.0
-0.073920 -0.012931 0.0
-0.073455 -0.017425 0.0
-0.072510 -0.022133 0.0
-0.071034 -0.027021 0.0
-0.068978 -0.032041 0.0
-0.066299 -0.037133 0.0
-0.062961 -0.042224 0.0
-0.058940 -0.047228 0.0
-0.054229 -0.052050 0.0
-0.048839 -0.056584 0.0
-0.042801 -0.060715 0.0
-0.036175 -0.064302 0.0
-0.029053 -0.067102 0.0
-0.021584 -0.068531 0.0
-0.014046 -0.067016 0.0
-0.007024 -0.058473 0.0
-0.001871 -0.033011 0.0
-0.000608 0.016297 0.0
-0.002425 0.031623 0.0
-0.005083 0.037622 0.0
-0.008054 0.039441 0.0
-0.011112 0.039757 0.0
-0.014182 0.039606 0.0
-0.017241 0.039296 0.0
-0.020280 0.038899 0.0
-0.023296 0.038430 0.0
-0.026286 0.037890 0.0
-0.029247 0.037277 0.0
-0.032178 0.036591 0.0
-0.035074 0.035828 0.0
-0.037935 0.034985 0.0
-0.040759 0.034058 0.0
-0.043544 0.033043 0.0
-0.046286 0.031932 0.0
-0.048985 0.030719 0.0
-0.051636 0.029396 0.0
-0.054236 0.027951 0.0
-0.056781 0.026375 0.0
-0.059264 0.024655 0.0
-0.061677 0.022776 0.0
-0.064012 0.020724 0.0
-0.066255 0.018481 0.0
-0.068393 0.016031 0.0
-0.070405 0.013355 0.0
-0.072271 0.010435 0.0
-0.073964 0.007254 0.0
-0.075450 0.003795 0.0
-0.076694 0.000044 0.0
-0.077651 -0.004010 0.0
-0.078274 -0.008371 0.0
-0.078509 -0.013036 0.0
-0.078296 -0.017996 0.0
-0.077574 -0.023228 0.0
-0.076278 -0.028697 0.0
-0.074346 -0.034352 0.0
-0.071720 -0.040127 0.0
-0.068349 -0.045938 0.0
-0.064199 -0.051685 0.0
-0.059249 -0.057253 0.0
-0.053505 -0.062514 0.0
-0.046999 -0.067328 0.0
-0.039796 -0.071519 0.0
-0.032001 -0.074801 0.0
-0.023793 -0.076509 0.0
-0.015489 -0.074881 0.0
-0.007745 -0.065374 0.0
-0.002063 -0.036945 0.0
-0.000616 0.017522 0.0
-0.002466 0.034066 0.0
-0.005180 0.040552 0.0
-0.008217 0.042520 0.0
-0.011346 0.042865 0.0
-0.014486 0.042708 0.0
-0.017616 0.042381 0.0
-0.020726 0.041964 0.0
-0.023814 0.041470 0.0
-0.026877 0.040903 0.0
-0.029913 0.040261 0.0
-0.032919 0.039544 0.0
-0.035895 0.038748 0.0
-0.038839 0.037870 0.0
-0.041750 0.036908 0.0
-0.044628 0.035855 0.0
-0.047470 0.034705 0.0
-0.050277 0.033451 0.0
-0.053045 0.032084 0.0
-0.055774 0.030592 0.0
-0.058460 0.028965 0.0
-0.061098 0.027187 0.0
-0.063682 0.025243 0.0
-0.066205 0.023115 0.0
-0.068655 0.020784 0.0
-0.071018 0.018229 0.0
-0.073277 0.015429 0.0
-0.075409 0.012360 0.0
-0.077387 0.008999 0.0
-0.079177 0.005326 0.0
-0.080739 0.001318 0.0
-0.082025 -0.003040 0.0
-0.082982 -0.007761 0.0
-0.083546 -0.012848 0.0
-0.083647 -0.018296 0.0
-0.083211 -0.024087 0.0
-0.082158 -0.030187 0.0
-0.080408 -0.036544 0.0
-0.077885 -0.043085 0.0
-0.074519 -0.049716 0.0
-0.070256 -0.056320 0.0
-0.065063 -0.062760 0.0
-0.058936 -0.068879 0.0
-0.051903 -0.074502 0.0
-0.044036 -0.079416 0.0
-0.035459 -0.083276 0.0
-0.026381 -0.085320 0.0
-0.017176 -0.083579 0.0
-0.008586 -0.073009 0.0
-0.002286 -0.041293 0.0
-0.000625 0.018762 0.0
-0.002509 0.036558 0.0
-0.005282 0.043547 0.0
-0.008390 0.045670 0.0
-0.011592 0.046045 0.0
-0.014807 0.045883 0.0
-0.018010 0.045539 0.0
-0.021195 0.045101 0.0
-0.024357 0.044583 0.0
-0.027495 0.043990 0.0
-0.030607 0.043321 0.0
-0.033691 0.042575 0.0
-0.036747 0.041749 0.0
-0.039775 0.040841 0.0
-0.042775 0.039848 0.0
-0.045746 0.038764 0.0
-0.048690 0.037582 0.0
-0.051606 0.036296 0.0
-0.054495 0.034896 0.0
-0.057355 0.033370 0.0
-0.060186 0.031704 0.0
-0.062986 0.029885 0.0
-0.065749 0.027893 0.0
-0.068471 0.025708 0.0
-0.071141 0.023310 0.0
-0.073748 0.020673 0.0
-0.076275 0.017771 0.0
-0.078701 0.014576 0.0
-0.080998 0.011059 0.0
-0.083131 0.007190 0.0
-0.085059 0.002943 0.0
-0.086730 -0.001708 0.0
-0.088082 -0.006784 0.0
-0.089044 -0.012298 0.0
-0.089535 -0.018253 0.0
-0.089465 -0.024637 0.0
-0.088735 -0.031420 0.0
-0.087244 -0.038551 0.0
-0.084892 -0.045954 0.0
-0.081584 -0.053521 0.0
-0.077243 -0.061119 0.0
-0.071813 -0.068583 0.0
-0.065275 -0.075721 0.0
-0.057651 -0.082317 0.0
-0.049020 -0.088101 0.0
-0.039528 -0.092660 0.0
-0.029426 -0.095115 0.0
-0.019155 -0.093262 0.0
-0.009568 -0.081503 0.0
-0.002544 -0.046123 0.0
-0.000634 0.020021 0.0
-0.002553 0.039104 0.0
-0.005390 0.046612 0.0
-0.008572 0.048895 0.0
-0.011852 0.049302 0.0
-0.015144 0.049133 0.0
-0.018425 0.048773 0.0
-0.021686 0.048313 0.0
-0.024925 0.047772 0.0
-0.028139 0.047154 0.0
-0.031328 0.046458 0.0
-0.034491 0.045685 0.0
-0.037628 0.044832 0.0
-0.040740 0.043898 0.0
-0.043828 0.042878 0.0
-0.046893 0.041769 0.0
-0.049937 0.040565 0.0
-0.052963 0.039256 0.0
-0.055972 0.037834 0.0
-0.058966 0.036286 0.0
-0.061945 0.034599 0.0
-0.064910 0.032755 0.0
-0.067858 0.030735 0.0
-0.070787 0.028517 0.0
-0.073690 0.026075 0.0
-0.076557 0.023382 0.0
-0.079374 0.020406 0.0
-0.082121 0.017113 0.0
-0.084772 0.013469 0.0
-0.087292 0.009434 0.0
-0.089637 0.004973 0.0
-0.091753 0.000049 0.0
-0.093572 -0.005370 0.0
-0.095014 -0.011309 0.0
-0.095985 -0.017781 0.0
-0.096378 -0.024787 0.0
-0.096073 -0.032305 0.0
-0.094942 -0.040288 0.0
-0.092855 -0.048657 0.0
-0.089684 -0.057296 0.0
-0.085319 -0.066051 0.0
-0.079673 -0.074726 0.0
-0.072703 -0.083086 0.0
-0.064421 -0.090858 0.0
-0.054909 -0.097703 0.0
-0.044341 -0.103117 0.0
-0.033023 -0.106078 0.0
-0.021483 -0.104111 0.0
-0.010715 -0.091009 0.0
-0.002844 -0.051511 0.0
-0.000643 0.021297 0.0
-0.002600 0.041705 0.0
-0.005504 0.049751 0.0
-0.008764 0.052199 0.0
-0.012125 0.052638 0.0
-0.015499 0.052462 0.0
-0.018859 0.052084 0.0
-0.022200 0.051603 0.0
-0.025517 0.051038 0.0
-0.028809 0.050395 0.0
-0.032076 0.049673 0.0
-0.035317 0.048874 0.0
-0.038534 0.047997 0.0
-0.041729 0.047039 0.0
-0.044903 0.045999 0.0
-0.048060 0.044871 0.0
-0.051203 0.043651 0.0
-0.054337 0.042329 0.0
-0.057465 0.040897 0.0
-0.060590 0.039342 0.0
-0.063718 0.037649 0.0
-0.066850 0.035800 0.0
-0.069987 0.033775 0.0
-0.073130 0.031548 0.0
-0.076275 0.029092 0.0
-0.079417 0.026374 0.0
-0.082543 0.023358 0.0
-0.085638 0.020004 0.0
-0.088677 0.016268 0.0
-0.091627 0.012105 0.0
-0.094445 0.007465 0.0
-0.097072 0.002300 0.0
-0.099439 -0.003436 0.0
-0.101455 -0.009784 0.0
-0.103014 -0.016776 0.0
-0.103989 -0.024425 0.0
-0.104236 -0.032725 0.0
-0.103596 -0.041638 0.0
-0.101901 -0.051089 0.0
-0.098979 -0.060956 0.0
-0.094675 -0.071062 0.0
-0.088858 -0.081177 0.0
-0.081449 -0.091014 0.0
-0.072437 -0.100224 0.0
-0.061908 -0.108379 0.0
-0.050068 -0.114849 0.0
-0.037295 -0.118436 0.0
-0.024235 -0.116353 0.0
-0.012058 -0.101712 0.0
-0.003191 -0.057546 0.0
-0.000652 0.022592 0.0
-0.002650 0.044366 0.0
-0.005624 0.052967 0.0
-0.008967 0.055586 0.0
-0.012413 0.056058 0.0
-0.015871 0.055874 0.0
-0.019315 0.055477 0.0
-0.022737 0.054972 0.0
-0.026134 0.054383 0.0
-0.029505 0.053713 0.0
-0.032849 0.052966 0.0
-0.036168 0.052142 0.0
-0.039463 0.051241 0.0
-0.042738 0.050263 0.0
-0.045996 0.049206 0.0
-0.049241 0.048066 0.0
-0.052479 0.046838 0.0
-0.055717 0.045513 0.0
-0.058959 0.044084 0.0
-0.062214 0.042536 0.0
-0.065487 0.040856 0.0
-0.068784 0.039023 0.0
-0.072111 0.037017 0.0
-0.075471 0.034809 0.0
-0.078865 0.032370 0.0
-0.082291 0.029663 0.0
-0.085744 0.026647 0.0
-0.089210 0.023275 0.0
-0.092671 0.019496 0.0
-0.096095 0.015252 0.0
-0.099442 0.010482 0.0
-0.102654 0.005123 0.0
-0.105657 -0.000889 0.0
-0.108354 -0.007617 0.0
-0.110626 -0.015112 0.0
-0.112327 -0.023412 0.0
-0.113286 -0.032532 0.0
-0.113306 -0.042451 0.0
-0.112172 -0.053107 0.0
-0.109657 -0.064374 0.0
-0.105543 -0.076062 0.0
-0.099637 -0.087900 0.0
-0.091804 -0.099534 0.0
-0.081995 -0.110524 0.0
-0.070290 -0.120314 0.0
-0.056934 -0.128109 0.0
-0.042402 -0.132481 0.0
-0.027499 -0.130271 0.0
-0.013631 -0.113838 0.0
-0.003591 -0.064328 0.0
-0.000663 0.023907 0.0
-0.002703 0.047088 0.0
-0.005751 0.056266 0.0
-0.009181 0.059061 0.0
-0.012717 0.059565 0.0
-0.016264 0.059372 0.0
-0.019794 0.058953 0.0
-0.023299 0.058423 0.0
-0.026777 0.057806 0.0
-0.030226 0.057109 0.0
-0.033647 0.056335 0.0
-0.037042 0.055486 0.0
-0.040413 0.054563 0.0
-0.043764 0.053567 0.0
-0.047100 0.052497 0.0
-0.050429 0.051349 0.0
-0.053756 0.050120 0.0
-0.057091 0.048803 0.0
-0.060442 0.047388 0.0
-0.063819 0.045863 0.0
-0.067231 0.044214 0.0
-0.070689 0.042420 0.0
-0.074201 0.040459 0.0
-0.077777 0.038302 0.0
-0.081422 0.035916 0.0
-0.085140 0.033262 0.0
-0.088931 0.030292 0.0
-0.092789 0.026954 0.0
-0.096700 0.023188 0.0
-0.100641 0.018925 0.0
-0.104574 0.014089 0.0
-0.108445 0.008600 0.0
-0.112179 0.002371 0.0
-0.115677 -0.004683 0.0
-0.118808 -0.012643 0.0
-0.121408 -0.021579 0.0
-0.123275 -0.031538 0.0
-0.124171 -0.042529 0.0
-0.123824 -0.054511 0.0
-0.121935 -0.067372 0.0
-0.118204 -0.080910 0.0
-0.112347 -0.094814 0.0
-0.104144 -0.108656 0.0
-0.093482 -0.121873 0.0
-0.080418 -0.133735 0.0
-0.065242 -0.143219 0.0
-0.048557 -0.148588 0.0
-0.031392 -0.146232 0.0
-0.015473 -0.127665 0.0
-0.004048 -0.071966 0.0
-0.000673 0.025243 0.0
-0.002759 0.049878 0.0
-0.005886 0.059653 0.0
-0.009410 0.062629 0.0
-0.013040 0.063164 0.0
-0.016679 0.062959 0.0
-0.020298 0.062516 0.0
-0.023889 0.061957 0.0
-0.027449 0.061310 0.0
-0.030976 0.060583 0.0
-0.034472 0.059779 0.0
-0.037940 0.058904 0.0
-0.041382 0.057959 0.0
-0.044804 0.056945 0.0
-0.048214 0.055864 0.0
-0.051618 0.054714 0.0
-0.055026 0.053491 0.0
-0.058449 0.052190 0.0
-0.061899 0.050801 0.0
-0.065388 0.049315 0.0
-0.068930 0.047716 0.0
-0.072539 0.045984 0.0
-0.076228 0.044097 0.0
-0.080013 0.042024 0.0
-0.083905 0.039731 0.0
-0.087916 0.037175 0.0
-0.092051 0.034305 0.0
-0.096315 0.031063 0.0
-0.100701 0.027377 0.0
-0.105194 0.023170 0.0
-0.109767 0.018349 0.0
-0.114372 0.012815 0.0
-0.118939 0.006457 0.0
-0.123368 -0.000841 0.0
-0.127522 -0.009199 0.0
-0.131222 -0.018725 0.0
-0.134236 -0.029511 0.0
-0.136280 -0.041615 0.0
-0.137016 -0.055037 0.0
-0.136057 -0.069693 0.0
-0.132991 -0.085387 0.0
-0.127408 -0.101776 0.0
-0.118958 -0.118347 0.0
-0.107419 -0.134383 0.0
-0.092793 -0.148916 0.0
-0.075411 -0.160595 0.0
-0.056051 -0.167256 0.0
-0.036064 -0.164716 0.0
-0.017624 -0.143542 0.0
-0.004563 -0.080576 0.0
-0.000685 0.026602 0.0
-0.002820 0.052739 0.0
-0.006032 0.063132 0.0
-0.009654 0.066294 0.0
-0.013385 0.066860 0.0
-0.017121 0.066638 0.0
-0.020832 0.066167 0.0
-0.024510 0.065575 0.0
-0.028152 0.064893 0.0
-0.031757 0.064131 0.0
-0.035326 0.063296 0.0
-0.038863 0.062391 0.0
-0.042371 0.061422 0.0
-0.045858 0.060391 0.0
-0.049332 0.059301 0.0
-0.052802 0.058151 0.0
-0.056281 0.056940 0.0
-0.059780 0.055663 0.0
-0.063316 0.054313 0.0
-0.066904 0.052880 0.0
-0.070562 0.051350 0.0
-0.074308 0.049705 0.0
-0.078161 0.047920 0.0
-0.082142 0.045967 0.0
-0.086271 0.043809 0.0
-0.090566 0.041402 0.0
-0.095044 0.038692 0.0
-0.099717 0.035613 0.0
-0.104593 0.032089 0.0
-0.109669 0.028028 0.0
-0.114928 0.023324 0.0
-0.120337 0.017855 0.0
-0.125836 0.011483 0.0
-0.131332 0.004057 0.0
-0.136690 -0.004585 0.0
-0.141720 -0.014609 0.0
-0.146166 -0.026167 0.0
-0.149697 -0.039384 0.0
-0.151902 -0.054328 0.0
-0.152287 -0.070975 0.0
-0.150296 -0.089162 0.0
-0.145344 -0.108536 0.0
-0.136885 -0.128497 0.0
-0.124515 -0.148142 0.0
-0.108119 -0.166180 0.0
-0.088047 -0.180785 0.0
-0.065306 -0.189167 0.0
-0.041720 -0.186378 0.0
-0.020127 -0.161912 0.0
-0.005128 -0.090267 0.0
-0.000699 0.027985 0.0
-0.002886 0.055677 0.0
-0.006191 0.066711 0.0
-0.009918 0.070064 0.0
-0.013755 0.070657 0.0
-0.017593 0.070415 0.0
-0.021401 0.069909 0.0
-0.025168 0.069278 0.0
-0.028893 0.068556 0.0
-0.032574 0.067754 0.0
-0.036213 0.066881 0.0
-0.039814 0.065943 0.0
-0.043382 0.064947 0.0
-0.046925 0.063897 0.0
-0.050453 0.062798 0.0
-0.053978 0.061650 0.0
-0.057514 0.060455 0.0
-0.061076 0.059210 0.0
-0.064682 0.057908 0.0
-0.068351 0.056543 0.0
-0.072105 0.055100 0.0
-0.075969 0.053564 0.0
-0.079966 0.051912 0.0
-0.084124 0.050115 0.0
-0.088470 0.048137 0.0
-0.093033 0.045933 0.0
-0.097841 0.043446 0.0
-0.102918 0.040609 0.0
-0.108286 0.037337 0.0
-0.113959 0.033528 0.0
-0.119940 0.029063 0.0
-0.126212 0.023797 0.0
-0.132737 0.017564 0.0
-0.139437 0.010172 0.0
-0.146188 0.001409 0.0