# vtk DataFile Version 3.0
Scalar Field
ASCII
DATASET RECTILINEAR_GRID
DIMENSIONS 50 50 1
X_COORDINATES 50 double
0.100000 0.300000 0.500000 0.700000 0.900000 1.100000 1.300000 1.500000 1.700000 1.900000 2.100000 2.300000 2.500000 2.700000 2.900000 3.100000 3.300000 3.500000 3.700000 3.900000 4.100000 4.300000 4.500000 4.700000 4.900000 5.100000 5.300000 5.500000 5.700000 5.900000 6.100000 6.300000 6.500000 6.700000 6.900000 7.100000 7.300000 7.500000 7.700000 7.900000 8.100000 8.300000 8.500000 8.700000 8.900000 9.100000 9.300000 9.500000 9.700000 9.900000 
Y_COORDINATES 50 double
0.100000 0.300000 0.500000 0.700000 0.900000 1.100000 1.300000 1.500000 1.700000 1.900000 2.100000 2.300000 2.500000 2.700000 2.900000 3.100000 3.300000 3.500000 3.700000 3.900000 4.100000 4.300000 4.500000 4.700000 4.900000 5.100000 5.300000 5.500000 5.700000 5.900000 6.100000 6.300000 6.500000 6.700000 6.900000 7.100000 7.300000 7.500000 7.700000 7.900000 8.100000 8.300000 8.500000 8.700000 8.900000 9.100000 9.300000 9.500000 9.700000 9.900000 
Z_COORDINATES 1 double
0.0
POINT_DATA 2500
SCALARS Skalarfeld double 1
LOOKUP_TABLE default
-0.015029
-0.015086
-0.015205
-0.015354
-0.015504
-0.015636
-0.015736
-0.015795
-0.015809
-0.015774
-0.015690
-0.015556
-0.015374
-0.015144
-0.014870
-0.014551
-0.014191
-0.013792
-0.013356
-0.012886
-0.012385
-0.011857
-0.011303
-0.010729
-0.010139
-0.009537
-0.008927
-0.008317
-0.007710
-0.007114
-0.006535
-0.005978
-0.005451
-0.004959
-0.004510
-0.004108
-0.003759
-0.003467
-0.003236
-0.003069
-0.002966
-0.002925
-0.002945
-0.003019
-0.003139
-0.003293
-0.003462
-0.003625
-0.003752
-0.003809
-0.014973
-0.015029
-0.015128
-0.015245
-0.015363
-0.015465
-0.015540
-0.015580
-0.015580
-0.015537
-0.015449
-0.015315
-0.015137
-0.014914
-0.014649
-0.014342
-0.013996
-0.013612
-0.013193
-0.012742
-0.012261
-0.011753
-0.011222
-0.010672
-0.010106
-0.009529
-0.008945
-0.008361
-0.007781
-0.007212
-0.006658
-0.006127
-0.005624
-0.005156
-0.004726
-0.004342
-0.004008
-0.003727
-0.003503
-0.003337
-0.003229
-0.003178
-0.003181
-0.003232
-0.003323
-0.003442
-0.003575
-0.003705
-0.003809
-0.003865
-0.014853
-0.014932
-0.015031
-0.015137
-0.015238
-0.015322
-0.015380
-0.015406
-0.015396
-0.015346
-0.015254
-0.015121
-0.014945
-0.014728
-0.014470
-0.014173
-0.013839
-0.013468
-0.013064
-0.012628
-0.012164
-0.011674
-0.011162
-0.010631
-0.010085
-0.009528
-0.008965
-0.008402
-0.007843
-0.007294
-0.006761
-0.006250
-0.005765
-0.005314
-0.004900
-0.004529
-0.004206
-0.003933
-0.003713
-0.003548
-0.003437
-0.003379
-0.003370
-0.003406
-0.003478
-0.003578
-0.003693
-0.003810
-0.003914
-0.003992
-0.014701
-0.014813
-0.014927
-0.015035
-0.015130
-0.015205
-0.015254
-0.015271
-0.015253
-0.015198
-0.015104
-0.014971
-0.014798
-0.014585
-0.014334
-0.014045
-0.013720
-0.013360
-0.012968
-0.012546
-0.012095
-0.011620
-0.011122
-0.010607
-0.010076
-0.009535
-0.008988
-0.008441
-0.007898
-0.007364
-0.006846
-0.006348
-0.005877
-0.005438
-0.005035
-0.004673
-0.004357
-0.004090
-0.003873
-0.003709
-0.003596
-0.003533
-0.003518
-0.003545
-0.003607
-0.003698
-0.003808
-0.003927
-0.004045
-0.004156
-0.014546
-0.014694
-0.014829
-0.014946
-0.015044
-0.015117
-0.015161
-0.015174
-0.015152
-0.015094
-0.014999
-0.014866
-0.014694
-0.014486
-0.014240
-0.013958
-0.013640
-0.013290
-0.012907
-0.012495
-0.012055
-0.011591
-0.011105
-0.010601
-0.010082
-0.009552
-0.009016
-0.008480
-0.007947
-0.007424
-0.006915
-0.006426
-0.005963
-0.005531
-0.005134
-0.004778
-0.004466
-0.004202
-0.003987
-0.003823
-0.003710
-0.003645
-0.003627
-0.003651
-0.003711
-0.003802
-0.003915
-0.004045
-0.004185
-0.004331
-0.014405
-0.014590
-0.014748
-0.014880
-0.014984
-0.015060
-0.015104
-0.015115
-0.015092
-0.015033
-0.014937
-0.014805
-0.014636
-0.014430
-0.014189
-0.013912
-0.013601
-0.013257
-0.012882
-0.012477
-0.012045
-0.011589
-0.011111
-0.010614
-0.010102
-0.009580
-0.009051
-0.008520
-0.007993
-0.007475
-0.006970
-0.006485
-0.006026
-0.005596
-0.005202
-0.004848
-0.004538
-0.004274
-0.004060
-0.003896
-0.003782
-0.003718
-0.003700
-0.003725
-0.003788
-0.003884
-0.004008
-0.004154
-0.004318
-0.004500
-0.014294
-0.014512
-0.014694
-0.014843
-0.014957
-0.015039
-0.015086
-0.015099
-0.015076
-0.015017
-0.014922
-0.014791
-0.014623
-0.014420
-0.014182
-0.013909
-0.013602
-0.013263
-0.012893
-0.012493
-0.012067
-0.011615
-0.011141
-0.010648
-0.010140
-0.009620
-0.009093
-0.008564
-0.008038
-0.007519
-0.007015
-0.006529
-0.006068
-0.005637
-0.005241
-0.004885
-0.004573
-0.004309
-0.004094
-0.003929
-0.003816
-0.003753
-0.003738
-0.003767
-0.003837
-0.003943
-0.004081
-0.004245
-0.004435
-0.004649
-0.014223
-0.014471
-0.014676
-0.014842
-0.014969
-0.015058
-0.015110
-0.015126
-0.015104
-0.015047
-0.014953
-0.014823
-0.014658
-0.014457
-0.014221
-0.013950
-0.013647
-0.013310
-0.012943
-0.012546
-0.012121
-0.011671
-0.011198
-0.010706
-0.010197
-0.009676
-0.009146
-0.008614
-0.008084
-0.007561
-0.007051
-0.006559
-0.006093
-0.005656
-0.005254
-0.004893
-0.004577
-0.004309
-0.004091
-0.003926
-0.003813
-0.003752
-0.003741
-0.003777
-0.003856
-0.003975
-0.004129
-0.004314
-0.004528
-0.004771
-0.014198
-0.014474
-0.014701
-0.014884
-0.015023
-0.015121
-0.015180
-0.015200
-0.015181
-0.015126
-0.015034
-0.014906
-0.014741
-0.014542
-0.014307
-0.014038
-0.013736
-0.013400
-0.013033
-0.012637
-0.012211
-0.011760
-0.011284
-0.010788
-0.010275
-0.009748
-0.009212
-0.008672
-0.008133
-0.007601
-0.007081
-0.006579
-0.006102
-0.005654
-0.005243
-0.004873
-0.004549
-0.004275
-0.004053
-0.003886
-0.003773
-0.003715
-0.003709
-0.003754
-0.003844
-0.003978
-0.004149
-0.004355
-0.004594
-0.004863
-0.014225
-0.014526
-0.014774
-0.014973
-0.015126
-0.015234
-0.015299
-0.015324
-0.015310
-0.015257
-0.015167
-0.015040
-0.014877
-0.014678
-0.014443
-0.014175
-0.013872
-0.013535
-0.013167
-0.012768
-0.012339
-0.011883
-0.011402
-0.010899
-0.010377
-0.009840
-0.009293
-0.008741
-0.008188
-0.007642
-0.007107
-0.006590
-0.006097
-0.005635
-0.005210
-0.004828
-0.004493
-0.004210
-0.003981
-0.003810
-0.003697
-0.003642
-0.003642
-0.003696
-0.003800
-0.003949
-0.004139
-0.004367
-0.004629
-0.004924
-0.014308
-0.014632
-0.014901
-0.015116
-0.015281
-0.015399
-0.015472
-0.015502
-0.015492
-0.015442
-0.015354
-0.015228
-0.015066
-0.014867
-0.014632
-0.014362
-0.014057
-0.013718
-0.013346
-0.012942
-0.012507
-0.012044
-0.011554
-0.011040
-0.010506
-0.009955
-0.009393
-0.008823
-0.008252
-0.007687
-0.007132
-0.006594
-0.006082
-0.005600
-0.005157
-0.004758
-0.004408
-0.004113
-0.003876
-0.003700
-0.003585
-0.003532
-0.003539
-0.003603
-0.003721
-0.003887
-0.004098
-0.004348
-0.004634
-0.004953
-0.014450
-0.014797
-0.015085
-0.015316
-0.015493
-0.015621
-0.015702
-0.015738
-0.015732
-0.015685
-0.015599
-0.015474
-0.015312
-0.015112
-0.014876
-0.014603
-0.014295
-0.013952
-0.013574
-0.013163
-0.012719
-0.012245
-0.011743
-0.011216
-0.010666
-0.010097
-0.009514
-0.008923
-0.008329
-0.007739
-0.007159
-0.006596
-0.006058
-0.005552
-0.005085
-0.004664
-0.004296
-0.003986
-0.003737
-0.003554
-0.003436
-0.003385
-0.003399
-0.003474
-0.003607
-0.003792
-0.004024
-0.004297
-0.004608
-0.004950
-0.014655
-0.015024
-0.015330
-0.015576
-0.015767
-0.015905
-0.015994
-0.016036
-0.016034
-0.015990
-0.015905
-0.015781
-0.015618
-0.015417
-0.015178
-0.014902
-0.014589
-0.014240
-0.013854
-0.013434
-0.012979
-0.012492
-0.011975
-0.011430
-0.010860
-0.010269
-0.009662
-0.009045
-0.008423
-0.007803
-0.007192
-0.006598
-0.006029
-0.005492
-0.004997
-0.004550
-0.004158
-0.003829
-0.003565
-0.003372
-0.003250
-0.003200
-0.003220
-0.003306
-0.003455
-0.003660
-0.003916
-0.004214
-0.004550
-0.004918
-0.014925
-0.015316
-0.015640
-0.015902
-0.016106
-0.016254
-0.016351
-0.016399
-0.016401
-0.016359
-0.016276
-0.016152
-0.015988
-0.015785
-0.015543
-0.015262
-0.014943
-0.014586
-0.014191
-0.013760
-0.013292
-0.012789
-0.012254
-0.011688
-0.011095
-0.010478
-0.009842
-0.009193
-0.008538
-0.007883
-0.007235
-0.006604
-0.005998
-0.005425
-0.004895
-0.004416
-0.003996
-0.003642
-0.003360
-0.003153
-0.003025
-0.002974
-0.003000
-0.003099
-0.003265
-0.003492
-0.003772
-0.004098
-0.004463
-0.004858
-0.015264
-0.015676
-0.016019
-0.016297
-0.016514
-0.016672
-0.016777
-0.016831
-0.016837
-0.016798
-0.016716
-0.016592
-0.016426
-0.016220
-0.015974
-0.015688
-0.015362
-0.014996
-0.014590
-0.014145
-0.013662
-0.013142
-0.012585
-0.011996
-0.011376
-0.010729
-0.010060
-0.009375
-0.008681
-0.007985
-0.007295
-0.006620
-0.005970
-0.005354
-0.004783
-0.004265
-0.003810
-0.003427
-0.003121
-0.002898
-0.002759
-0.002707
-0.002738
-0.002850
-0.003034
-0.003285
-0.003594
-0.003950
-0.004346
-0.004772
-0.015673
-0.016108
-0.016471
-0.016766
-0.016995
-0.017164
-0.017277
-0.017337
-0.017347
-0.017311
-0.017229
-0.017104
-0.016937
-0.016728
-0.016477
-0.016185
-0.015851
-0.015475
-0.015057
-0.014597
-0.014097
-0.013556
-0.012977
-0.012361
-0.011711
-0.011031
-0.010325
-0.009599
-0.008861
-0.008118
-0.007379
-0.006653
-0.005952
-0.005285
-0.004664
-0.004101
-0.003604
-0.003184
-0.002849
-0.002604
-0.002453
-0.002396
-0.002432
-0.002555
-0.002760
-0.003038
-0.003378
-0.003768
-0.004200
-0.004662
-0.016156
-0.016615
-0.016999
-0.017311
-0.017554
-0.017734
-0.017855
-0.017921
-0.017935
-0.017901
-0.017821
-0.017695
-0.017526
-0.017313
-0.017057
-0.016758
-0.016415
-0.016028
-0.015597
-0.015122
-0.014604
-0.014041
-0.013437
-0.012792
-0.012110
-0.011392
-0.010645
-0.009873
-0.009086
-0.008290
-0.007495
-0.006711
-0.005951
-0.005225
-0.004546
-0.003928
-0.003381
-0.002917
-0.002545
-0.002272
-0.002103
-0.002038
-0.002077
-0.002214
-0.002441
-0.002748
-0.003123
-0.003553
-0.004026
-0.004530
-0.016717
-0.017202
-0.017608
-0.017938
-0.018196
-0.018387
-0.018516
-0.018588
-0.018607
-0.018575
-0.018495
-0.018369
-0.018197
-0.017981
-0.017720
-0.017413
-0.017062
-0.016664
-0.016220
-0.015728
-0.015190
-0.014605
-0.013974
-0.013299
-0.012581
-0.011824
-0.011032
-0.010210
-0.009367
-0.008512
-0.007655
-0.006805
-0.005977
-0.005182
-0.004436
-0.003753
-0.003146
-0.002628
-0.002210
-0.001902
-0.001709
-0.001633
-0.001672
-0.001821
-0.002071
-0.002411
-0.002826
-0.003303
-0.003825
-0.004378
-0.017360
-0.017873
-0.018302
-0.018651
-0.018924
-0.019128
-0.019266
-0.019345
-0.019367
-0.019338
-0.019259
-0.019132
-0.018958
-0.018738
-0.018472
-0.018158
-0.017798
-0.017389
-0.016931
-0.016424
-0.015866
-0.015257
-0.014599
-0.013892
-0.013137
-0.012338
-0.011498
-0.010622
-0.009720
-0.008800
-0.007872
-0.006949
-0.006043
-0.005170
-0.004345
-0.003584
-0.002905
-0.002322
-0.001848
-0.001495
-0.001270
-0.001176
-0.001212
-0.001372
-0.001647
-0.002024
-0.002486
-0.003015
-0.003595
-0.004208
-0.018089
-0.018632
-0.019086
-0.019456
-0.019746
-0.019962
-0.020110
-0.020195
-0.020222
-0.020196
-0.020117
-0.019990
-0.019814
-0.019591
-0.019320
-0.019000
-0.018631
-0.018212
-0.017741
-0.017218
-0.016641
-0.016009
-0.015324
-0.014584
-0.013792
-0.012950
-0.012060
-0.011127
-0.010160
-0.009169
-0.008165
-0.007158
-0.006165
-0.005202
-0.004286
-0.003435
-0.002669
-0.002007
-0.001463
-0.001053
-0.000785
-0.000665
-0.000693
-0.000863
-0.001164
-0.001581
-0.002096
-0.002688
-0.003336
-0.004020
-0.018909
-0.019485
-0.019967
-0.020358
-0.020666
-0.020895
-0.021053
-0.021146
-0.021178
-0.021154
-0.021077
-0.020950
-0.020773
-0.020547
-0.020272
-0.019946
-0.019570
-0.019142
-0.018659
-0.018121
-0.017526
-0.016873
-0.016161
-0.015390
-0.014560
-0.013674
-0.012734
-0.011741
-0.010707
-0.009640
-0.008552
-0.007455
-0.006364
-0.005298
-0.004277
-0.003321
-0.002453
-0.001693
-0.001064
-0.000581
-0.000257
-0.000100
-0.000112
-0.000287
-0.000614
-0.001076
-0.001651
-0.002316
-0.003045
-0.003816
-0.019825
-0.020437
-0.020949
-0.021365
-0.021691
-0.021935
-0.022104
-0.022204
-0.022242
-0.022221
-0.022146
-0.022019
-0.021841
-0.021613
-0.021335
-0.021006
-0.020624
-0.020188
-0.019695
-0.019145
-0.018534
-0.017861
-0.017125
-0.016324
-0.015459
-0.014529
-0.013539
-0.012486
-0.011382
-0.010236
-0.009059
-0.007863
-0.006665
-0.005484
-0.004342
-0.003263
-0.002273
-0.001397
-0.000661
-0.000085
0.000312
0.000521
0.000536
0.000362
0.000010
-0.000499
-0.001143
-0.001893
-0.002719
-0.003594
-0.020844
-0.021496
-0.022040
-0.022482
-0.022829
-0.023089
-0.023269
-0.023377
-0.023420
-0.023403
-0.023330
-0.023204
-0.023026
-0.022798
-0.022518
-0.022186
-0.021801
-0.021360
-0.020860
-0.020300
-0.019676
-0.018987
-0.018230
-0.017403
-0.016505
-0.015536
-0.014496
-0.013387
-0.012212
-0.010985
-0.009714
-0.008412
-0.007097
-0.005788
-0.004510
-0.003289
-0.002155
-0.001139
-0.000271
0.000422
0.000916
0.001196
0.001254
0.001091
0.000719
0.000159
-0.000561
-0.001410
-0.002351
-0.003352
-0.021973
-0.022668
-0.023248
-0.023719
-0.024088
-0.024364
-0.024556
-0.024672
-0.024721
-0.024708
-0.024637
-0.024513
-0.024336
-0.024109
-0.023829
-0.023497
-0.023111
-0.022667
-0.022164
-0.021598
-0.020966
-0.020265
-0.019491
-0.018643
-0.017718
-0.016713
-0.015630
-0.014467
-0.013225
-0.011916
-0.010550
-0.009138
-0.007697
-0.006248
-0.004817
-0.003434
-0.002132
-0.000948
0.000082
0.000923
0.001544
0.001922
0.002044
0.001907
0.001523
0.000912
0.000107
-0.000854
-0.001931
-0.003084
-0.023219
-0.023963
-0.024582
-0.025084
-0.025476
-0.025770
-0.025974
-0.026099
-0.026153
-0.026144
-0.026076
-0.025954
-0.025780
-0.025554
-0.025277
-0.024947
-0.024562
-0.024119
-0.023617
-0.023050
-0.022415
-0.021708
-0.020925
-0.020062
-0.019116
-0.018084
-0.016964
-0.015755
-0.014451
-0.013065
-0.011604
-0.010080
-0.008508
-0.006909
-0.005309
-0.003742
-0.002246
-0.000861
0.000366
0.001393
0.002178
0.002690
0.002905
0.002818
0.002434
0.001777
0.000881
-0.000210
-0.001446
-0.002781
-0.024592
-0.025389
-0.026052
-0.026587
-0.027005
-0.027316
-0.027533
-0.027666
-0.027726
-0.027720
-0.027655
-0.027536
-0.027364
-0.027141
-0.026868
-0.026542
-0.026163
-0.025726
-0.025228
-0.024666
-0.024034
-0.023328
-0.022544
-0.021676
-0.020719
-0.019669
-0.018522
-0.017276
-0.015921
-0.014466
-0.012917
-0.011283
-0.009577
-0.007820
-0.006038
-0.004267
-0.002547
-0.000927
0.000539
0.001797
0.002794
0.003484
0.003835
0.003828
0.003466
0.002771
0.001780
0.000545
-0.000877
-0.002427
-0.026102
-0.026958
-0.027669
-0.028240
-0.028685
-0.029014
-0.029243
-0.029384
-0.029449
-0.029446
-0.029383
-0.029265
-0.029097
-0.028878
-0.028610
-0.028292
-0.027920
-0.027493
-0.027005
-0.026454
-0.025833
-0.025137
-0.024361
-0.023498
-0.022542
-0.021487
-0.020327
-0.019056
-0.017668
-0.016156
-0.014529
-0.012793
-0.010957
-0.009039
-0.007065
-0.005069
-0.003098
-0.001205
0.000547
0.002090
0.003356
0.004283
0.004822
0.004941
0.004633
0.003916
0.002832
0.001438
-0.000196
-0.002001
-0.027761
-0.028683
-0.029446
-0.030057
-0.030529
-0.030878
-0.031118
-0.031265
-0.031332
-0.031330
-0.031267
-0.031151
-0.030985
-0.030771
-0.030510
-0.030200
-0.029840
-0.029426
-0.028955
-0.028421
-0.027818
-0.027142
-0.026385
-0.025540
-0.024599
-0.023554
-0.022397
-0.021121
-0.019717
-0.018167
-0.016480
-0.014656
-0.012700
-0.010625
-0.008454
-0.006220
-0.003970
-0.001765
0.000323
0.002212
0.003817
0.005053
0.005849
0.006155
0.005948
0.005239
0.004069
0.002506
0.000632
-0.001471
-0.029583
-0.030580
-0.031400
-0.032054
-0.032554
-0.032920
-0.033169
-0.033319
-0.033386
-0.033382
-0.033317
-0.033200
-0.033035
-0.032825
-0.032571
-0.032272
-0.031925
-0.031529
-0.031078
-0.030568
-0.029993
-0.029346
-0.028620
-0.027807
-0.026897
-0.025881
-0.024747
-0.023486
-0.022088
-0.020528
-0.018806
-0.016916
-0.014858
-0.012638
-0.010272
-0.007792
-0.005242
-0.002688
-0.000210
0.002094
0.004117
0.005750
0.006891
0.007464
0.007424
0.006766
0.005531
0.003795
0.001653
-0.000793
-0.031583
-0.032664
-0.033549
-0.034248
-0.034777
-0.035158
-0.035413
-0.035561
-0.035622
-0.035611
-0.035540
-0.035419
-0.035252
-0.035043
-0.034795
-0.034506
-0.034175
-0.033799
-0.033374
-0.032894
-0.032354
-0.031747
-0.031065
-0.030298
-0.029436
-0.028468
-0.027381
-0.026161
-0.024793
-0.023257
-0.021530
-0.019605
-0.017473
-0.015129
-0.012582
-0.009855
-0.006991
-0.004055
-0.001135
0.001656
0.004188
0.006320
0.007915
0.008858
0.009072
0.008532
0.007268
0.005362
0.002929
0.000092
-0.033783
-0.034960
-0.035915
-0.036662
-0.037219
-0.037612
-0.037866
-0.038006
-0.038054
-0.038028
-0.037944
-0.037811
-0.037637
-0.037426
-0.037181
-0.036901
-0.036586
-0.036231
-0.035834
-0.035390
-0.034893
-0.034335
-0.033708
-0.033002
-0.032207
-0.031309
-0.030292
-0.029140
-0.027834
-0.026355
-0.024661
-0.022740
-0.020569
-0.018134
-0.015431
-0.012471
-0.009288
-0.005946
-0.002536
0.000816
0.003953
0.006701
0.008878
0.010321
0.010906
0.010574
0.009337
0.007282
0.004541
0.001264
-0.036206
-0.037491
-0.038526
-0.039322
-0.039904
-0.040302
-0.040547
-0.040668
-0.040692
-0.040641
-0.040533
-0.040379
-0.040190
-0.039970
-0.039723
-0.039448
-0.039146
-0.038813
-0.038446
-0.038041
-0.037591
-0.037090
-0.036530
-0.035899
-0.035188
-0.034380
-0.033459
-0.032404
-0.031193
-0.029799
-0.028185
-0.026313
-0.024151
-0.021667
-0.018842
-0.015674
-0.012183
-0.008422
-0.004483
-0.000502
0.003341
0.006832
0.009739
0.011837
0.012941
0.012940
0.011815
0.009648
0.006593
0.002829
-0.038882
-0.040292
-0.041414
-0.042261
-0.042863
-0.043256
-0.043477
-0.043564
-0.043548
-0.043456
-0.043310
-0.043123
-0.042907
-0.042668
-0.042410
-0.042134
-0.041840
-0.041525
-0.041187
-0.040821
-0.040423
-0.039984
-0.039499
-0.038956
-0.038343
-0.037644
-0.036842
-0.035912
-0.034828
-0.033557
-0.032062
-0.030289
-0.028185
-0.025703
-0.022804
-0.019465
-0.015689
-0.011512
-0.007019
-0.002351
0.002294
0.006663
0.010463
0.013398
0.015202
0.015691
0.014796
0.012582
0.009220
0.004926
-0.041847
-0.043403
-0.044621
-0.045518
-0.046130
-0.046502
-0.046681
-0.046711
-0.046634
-0.046479
-0.046274
-0.046035
-0.045776
-0.045504
-0.045223
-0.044936
-0.044642
-0.044340
-0.044026
-0.043698
-0.043350
-0.042978
-0.042572
-0.042124
-0.041621
-0.041048
-0.040384
-0.039605
-0.038677
-0.037565
-0.036223
-0.034596
-0.032602
-0.030176
-0.027256
-0.023795
-0.019770
-0.015196
-0.010141
-0.004741
0.000792
0.006168
0.011035
0.015011
0.017729
0.018908
0.018403
0.016239
0.012598
0.007737
-0.045149
-0.046876
-0.048201
-0.049144
-0.049750
-0.050076
-0.050183
-0.050127
-0.049956
-0.049711
-0.049420
-0.049105
-0.048781
-0.048457
-0.048137
-0.047825
-0.047519
-0.047219
-0.046923
-0.046627
-0.046327
-0.046018
-0.045694
-0.045345
-0.044959
-0.044522
-0.044010
-0.043399
-0.042652
-0.041725
-0.040565
-0.039121
-0.037288
-0.034971
-0.032085
-0.028555
-0.024327
-0.019388
-0.013779
-0.007622
-0.001133
0.005372
0.011481
0.016716
0.020596
0.022707
0.022795
0.020819
0.016954
0.011500
-0.048849
-0.050779
-0.052220
-0.053199
-0.053774
-0.054020
-0.054014
-0.053827
-0.053521
-0.053144
-0.052731
-0.052309
-0.051893
-0.051492
-0.051114
-0.050758
-0.050426
-0.050116
-0.049826
-0.049553
-0.049294
-0.049044
-0.048797
-0.048546
-0.048279
-0.047980
-0.047628
-0.047194
-0.046641
-0.045920
-0.044970
-0.043721
-0.042088
-0.039923
-0.037118
-0.033569
-0.029188
-0.023924
-0.017785
-0.010866
-0.003371
0.004367
0.011884
0.018608
0.023919
0.027248
0.028185
0.026583
0.022584
0.016523
-0.053027
-0.055200
-0.056767
-0.057763
-0.058268
-0.058379
-0.058200
-0.057822
-0.057324
-0.056763
-0.056184
-0.055613
-0.055070
-0.054565
-0.054102
-0.053682
-0.053305
-0.052969
-0.052672
-0.052411
-0.052182
-0.051982
-0.051805
-0.051645
-0.051491
-0.051327
-0.051132
-0.050876
-0.050519
-0.050008
-0.049273
-0.048232
-0.046812
-0.044822
-0.042130
-0.038600
-0.034107
-0.028559
-0.021922
-0.014250
-0.005721
0.003333
0.012410
0.020849
0.027885
0.032756
0.034853
0.033868
0.029867
0.023205
-0.057793
-0.060262
-0.061960
-0.062940
-0.063309
-0.063206
-0.062768
-0.062117
-0.061349
-0.060538
-0.059733
-0.058966
-0.058256
-0.057612
-0.057036
-0.056528
-0.056087
-0.055707
-0.055388
-0.055124
-0.054914
-0.054752
-0.054634
-0.054554
-0.054501
-0.054461
-0.054412
-0.054323
-0.054151
-0.053838
-0.053309
-0.052467
-0.051246
-0.049431
-0.046859
-0.043363
-0.038781
-0.032977
-0.025868
-0.017458
-0.007882
0.002550
0.013322
0.023696
0.032762
0.039542
0.043171
0.043113
0.039296
0.032061
-0.063299
-0.066132
-0.067960
-0.068859
-0.068994
-0.068557
-0.067740
-0.066701
-0.065564
-0.064416
-0.063316
-0.062295
-0.061371
-0.060550
-0.059831
-0.059212
-0.058685
-0.058246
-0.057889
-0.057610
-0.057405
-0.057268
-0.057197
-0.057182
-0.057216
-0.057282
-0.057359
-0.057414
-0.057402
-0.057261
-0.056911
-0.056250
-0.055162
-0.053500
-0.051024
-0.047546
-0.042869
-0.036812
-0.029240
-0.020100
-0.009468
0.002395
0.014981
0.027506
0.038922
0.048019
0.053624
0.054885
0.051506
0.043758
-0.069764
-0.073050
-0.074984
-0.075695
-0.075434
-0.074487
-0.073118
-0.071538
-0.069902
-0.068314
-0.066835
-0.065495
-0.064308
-0.063273
-0.062384
-0.061630
-0.061001
-0.060488
-0.060082
-0.059777
-0.059567
-0.059444
-0.059405
-0.059441
-0.059542
-0.059693
-0.059870
-0.060038
-0.060150
-0.060139
-0.059920
-0.059381
-0.058386
-0.056804
-0.054363
-0.050850
-0.046033
-0.039686
-0.031630
-0.021745
-0.010033
0.003317
0.017836
0.032730
0.046842
0.058721
0.066836
0.069920
0.067329
0.059163
-0.077517
-0.081369
-0.083340
-0.083668
-0.082758
-0.081037
-0.078876
-0.076553
-0.074258
-0.072105
-0.070154
-0.068430
-0.066933
-0.065651
-0.064567
-0.063665
-0.062924
-0.062328
-0.061866
-0.061531
-0.061311
-0.061194
-0.061177
-0.061250
-0.061400
-0.061612
-0.061860
-0.062105
-0.062295
-0.062361
-0.062210
-0.061722
-0.060748
-0.059153
-0.056656
-0.053022
-0.047984
-0.041264
-0.032661
-0.021983
-0.009137
0.005784
0.022373
0.039882
0.057082
0.072300
0.083595
0.089165
0.087853
0.079426
-0.087071
-0.091619
-0.093462
-0.093063
-0.091096
-0.088213
-0.084929
-0.081604
-0.078456
-0.075602
-0.073087
-0.070917
-0.069073
-0.067521
-0.066233
-0.065181
-0.064329
-0.063654
-0.063139
-0.062778
-0.062555
-0.062439
-0.062441
-0.062546
-0.062737
-0.062992
-0.063282
-0.063568
-0.063792
-0.063878
-0.063725
-0.063205
-0.062155
-0.060423
-0.057730
-0.053826
-0.048442
-0.041298
-0.032051
-0.020500
-0.006435
0.010205
0.029033
0.049464
0.070233
0.089496
0.104862
0.113846
0.114540
0.106114
-0.099268
-0.104630
-0.105968
-0.104224
-0.100551
-0.095939
-0.091094
-0.086450
-0.082235
-0.078545
-0.075385
-0.072726
-0.070524
-0.068701
-0.067214
-0.066039
-0.065094
-0.064365
-0.063830
-0.063456
-0.063229
-0.063132
-0.063157
-0.063288
-0.063508
-0.063791
-0.064103
-0.064400
-0.064620
-0.064677
-0.064464
-0.063842
-0.062636
-0.060664
-0.057663
-0.053361
-0.047458
-0.039631
-0.029545
-0.016911
-0.001515
0.016847
0.038066
0.061847
0.086791
0.111044
0.131744
0.145531
0.149391
0.141452
-0.115567
-0.121724
-0.121720
-0.117521
-0.111115
-0.103979
-0.097015
-0.090699
-0.085206
-0.080580
-0.076728
-0.073577
-0.071059
-0.069002
-0.067387
-0.066112
-0.065119
-0.064369
-0.063830
-0.063471
-0.063271
-0.063209
-0.063271
-0.063438
-0.063689
-0.063995
-0.064317
-0.064604
-0.064788
-0.064778
-0.064454
-0.063669
-0.062237
-0.059941
-0.056538
-0.051736
-0.045205
-0.036589
-0.025515
-0.011616
0.005440
0.025921
0.049885
0.077128
0.106924
0.137476
0.165367
0.186176
0.195215
0.188783
-0.138651
-0.145058
-0.141858
-0.133220
-0.122505
-0.111783
-0.102058
-0.093746
-0.086816
-0.081259
-0.076764
-0.073228
-0.070438
-0.068248
-0.066553
-0.065253
-0.064276
-0.063565
-0.063079
-0.062781
-0.062646
-0.062651
-0.062775
-0.062997
-0.063291
-0.063623
-0.063952
-0.064220
-0.064351
-0.064246
-0.063780
-0.062792
-0.061087
-0.058416
-0.054558
-0.049197
-0.041980
-0.032513
-0.020373
-0.005116
0.013708
0.036518
0.063630
0.095132
0.130594
0.168754
0.206542
0.238051
0.256031
0.253422
-0.173774
-0.178114
-0.167647
-0.151110
-0.133799
-0.118252
-0.105158
-0.094738
-0.086449
-0.080046
-0.075094
-0.071302
-0.068412
-0.066222
-0.064582
-0.063374
-0.062509
-0.061921
-0.061559
-0.061384
-0.061365
-0.061478
-0.061699
-0.062002
-0.062358
-0.062732
-0.063076
-0.063327
-0.063404
-0.063202
-0.062585
-0.061386
-0.059397
-0.056354
-0.052046
-0.046139
-0.038254
-0.027965
-0.014795
0.001783
0.022343
0.047501
0.077885
0.114050
0.156268
0.204026
0.254980
0.303219
0.337502
0.344281
-0.231873
-0.226166
-0.199641
-0.169576
-0.142763
-0.121427
-0.104888
-0.092469
-0.083196
-0.076330
-0.071258
-0.067529
-0.064803
-0.062829
-0.061426
-0.060459
-0.059830
-0.059465
-0.059312
-0.059329
-0.059486
-0.059755
-0.060111
-0.060529
-0.060977
-0.061416
-0.061795
-0.062050
-0.062092
-0.061813
-0.061072
-0.059693
-0.057460
-0.054113
-0.049436
-0.043082
-0.034654
-0.023695
-0.009683
0.007986
0.030015
0.057231
0.090619
0.131341
0.180673
0.239690
0.308186
0.381847
0.446891
0.476886
-0.336876
-0.295205
-0.234775
-0.183643
-0.145269
-0.118018
-0.098892
-0.085528
-0.076167
-0.069602
-0.065000
-0.061794
-0.059587
-0.058104
-0.057154
-0.056597
-0.056337
-0.056304
-0.056447
-0.056728
-0.057118
-0.057592
-0.058125
-0.058694
-0.059266
-0.059802
-0.060251
-0.060545
-0.060596
-0.060292
-0.059490
-0.058012
-0.055632
-0.052123
-0.047240
-0.040635
-0.031902
-0.020568
-0.006078
0.012228
0.035156
0.063720
0.099244
0.143529
0.199075
0.269295
0.358271
0.468313
0.590184
0.679229
-0.540714
-0.382481
-0.259418
-0.181236
-0.133261
-0.103588
-0.084840
-0.072768
-0.064891
-0.059731
-0.056375
-0.054242
-0.052953
-0.052254
-0.051973
-0.051991
-0.052227
-0.052623
-0.053138
-0.053743
-0.054415
-0.055135
-0.055883
-0.056637
-0.057368
-0.058040
-0.058603
-0.058990
-0.059117
-0.058870
-0.058111
-0.056662
-0.054299
-0.050833
-0.045984
-0.039414
-0.030723
-0.019438
-0.004997
0.013279
0.036241
0.064996
0.101076
0.146740
0.205550
0.283440
0.390534
0.543112
0.758535
1.003835
-0.941555
-0.431476
-0.229339
-0.141115
-0.097941
-0.074890
-0.061847
-0.054232
-0.049762
-0.047211
-0.045877
-0.045335
-0.045315
-0.045645
-0.046208
-0.046928
-0.047751
-0.048645
-0.049584
-0.050554
-0.051542
-0.052537
-0.053527
-0.054496
-0.055421
-0.056271
-0.057001
-0.057550
-0.057838
-0.057760
-0.057180
-0.055928
-0.053814
-0.050628
-0.046106
-0.039923
-0.031697
-0.020973
-0.007213
0.010233
0.032171
0.059651
0.094133
0.137823
0.194440
0.271027
0.382524
0.562888
0.888358
1.521123
