# vtk DataFile Version 3.0
Scalar Field
ASCII
DATASET RECTILINEAR_GRID
DIMENSIONS 50 50 1
X_COORDINATES 50 double
0.100000 0.300000 0.500000 0.700000 0.900000 1.100000 1.300000 1.500000 1.700000 1.900000 2.100000 2.300000 2.500000 2.700000 2.900000 3.100000 3.300000 3.500000 3.700000 3.900000 4.100000 4.300000 4.500000 4.700000 4.900000 5.100000 5.300000 5.500000 5.700000 5.900000 6.100000 6.300000 6.500000 6.700000 6.900000 7.100000 7.300000 7.500000 7.700000 7.900000 8.100000 8.300000 8.500000 8.700000 8.900000 9.100000 9.300000 9.500000 9.700000 9.900000 
Y_COORDINATES 50 double
0.100000 0.300000 0.500000 0.700000 0.900000 1.100000 1.300000 1.500000 1.700000 1.900000 2.100000 2.300000 2.500000 2.700000 2.900000 3.100000 3.300000 3.500000 3.700000 3.900000 4.100000 4.300000 4.500000 4.700000 4.900000 5.100000 5.300000 5.500000 5.700000 5.900000 6.100000 6.300000 6.500000 6.700000 6.900000 7.100000 7.300000 7.500000 7.700000 7.900000 8.100000 8.300000 8.500000 8.700000 8.900000 9.100000 9.300000 9.500000 9.700000 9.900000 
Z_COORDINATES 1 double
0.0
POINT_DATA 2500
SCALARS Skalarfeld double 1
LOOKUP_TABLE default
-0.036291
-0.036387
-0.036447
-0.036422
-0.036296
-0.036069
-0.035743
-0.035322
-0.034810
-0.034208
-0.033520
-0.032749
-0.031900
-0.030977
-0.029983
-0.028924
-0.027805
-0.026631
-0.025407
-0.024140
-0.022835
-0.021499
-0.020138
-0.018758
-0.017367
-0.015970
-0.014574
-0.013187
-0.011815
-0.010464
-0.009141
-0.007853
-0.006606
-0.005406
-0.004259
-0.003172
-0.002149
-0.001197
-0.000319
0.000479
0.001193
0.001819
0.002354
0.002794
0.003135
0.003375
0.003509
0.003540
0.003482
0.003386
-0.036195
-0.036292
-0.036330
-0.036289
-0.036155
-0.035927
-0.035603
-0.035185
-0.034677
-0.034080
-0.033398
-0.032633
-0.031791
-0.030875
-0.029888
-0.028837
-0.027726
-0.026560
-0.025346
-0.024087
-0.022792
-0.021465
-0.020114
-0.018744
-0.017362
-0.015975
-0.014589
-0.013211
-0.011848
-0.010507
-0.009193
-0.007914
-0.006676
-0.005484
-0.004346
-0.003267
-0.002252
-0.001306
-0.000435
0.000357
0.001065
0.001686
0.002216
0.002653
0.002992
0.003233
0.003375
0.003422
0.003386
0.003289
-0.036135
-0.036254
-0.036294
-0.036247
-0.036110
-0.035880
-0.035556
-0.035140
-0.034633
-0.034038
-0.033358
-0.032596
-0.031756
-0.030842
-0.029859
-0.028811
-0.027702
-0.026540
-0.025328
-0.024073
-0.022780
-0.021457
-0.020108
-0.018741
-0.017362
-0.015978
-0.014595
-0.013221
-0.011861
-0.010522
-0.009211
-0.007935
-0.006699
-0.005511
-0.004375
-0.003298
-0.002285
-0.001342
-0.000473
0.000317
0.001024
0.001643
0.002172
0.002608
0.002947
0.003190
0.003336
0.003387
0.003350
0.003230
-0.036158
-0.036297
-0.036343
-0.036298
-0.036160
-0.035928
-0.035603
-0.035186
-0.034678
-0.034082
-0.033401
-0.032637
-0.031796
-0.030880
-0.029895
-0.028844
-0.027734
-0.026568
-0.025354
-0.024095
-0.022800
-0.021473
-0.020121
-0.018751
-0.017368
-0.015981
-0.014594
-0.013216
-0.011852
-0.010510
-0.009195
-0.007915
-0.006676
-0.005484
-0.004345
-0.003265
-0.002249
-0.001303
-0.000432
0.000360
0.001068
0.001690
0.002220
0.002657
0.002999
0.003243
0.003390
0.003441
0.003397
0.003257
-0.036283
-0.036433
-0.036485
-0.036442
-0.036304
-0.036071
-0.035744
-0.035323
-0.034812
-0.034212
-0.033526
-0.032758
-0.031911
-0.030989
-0.029996
-0.028939
-0.027820
-0.026647
-0.025423
-0.024156
-0.022851
-0.021515
-0.020153
-0.018773
-0.017380
-0.015982
-0.014585
-0.013197
-0.011822
-0.010470
-0.009145
-0.007855
-0.006607
-0.005405
-0.004257
-0.003169
-0.002145
-0.001191
-0.000313
0.000485
0.001200
0.001826
0.002361
0.002801
0.003146
0.003392
0.003540
0.003588
0.003538
0.003387
-0.036510
-0.036667
-0.036724
-0.036683
-0.036544
-0.036309
-0.035978
-0.035553
-0.035036
-0.034429
-0.033735
-0.032958
-0.032101
-0.031168
-0.030164
-0.029094
-0.027962
-0.026775
-0.025537
-0.024255
-0.022935
-0.021582
-0.020204
-0.018807
-0.017398
-0.015982
-0.014569
-0.013163
-0.011772
-0.010402
-0.009061
-0.007755
-0.006490
-0.005273
-0.004111
-0.003008
-0.001971
-0.001005
-0.000115
0.000694
0.001417
0.002052
0.002594
0.003040
0.003389
0.003638
0.003787
0.003834
0.003779
0.003621
-0.036840
-0.037002
-0.037062
-0.037022
-0.036882
-0.036644
-0.036308
-0.035877
-0.035351
-0.034734
-0.034029
-0.033239
-0.032368
-0.031420
-0.030399
-0.029311
-0.028161
-0.026954
-0.025696
-0.024392
-0.023050
-0.021675
-0.020274
-0.018854
-0.017421
-0.015982
-0.014544
-0.013114
-0.011699
-0.010306
-0.008942
-0.007613
-0.006326
-0.005088
-0.003905
-0.002782
-0.001727
-0.000743
0.000163
0.000986
0.001723
0.002370
0.002921
0.003376
0.003731
0.003984
0.004134
0.004180
0.004122
0.003959
-0.037272
-0.037439
-0.037502
-0.037462
-0.037321
-0.037078
-0.036736
-0.036295
-0.035759
-0.035129
-0.034409
-0.033602
-0.032713
-0.031745
-0.030703
-0.029592
-0.028417
-0.027185
-0.025900
-0.024569
-0.023199
-0.021795
-0.020364
-0.018913
-0.017450
-0.015980
-0.014512
-0.013051
-0.011605
-0.010182
-0.008788
-0.007430
-0.006115
-0.004849
-0.003639
-0.002491
-0.001411
-0.000405
0.000522
0.001365
0.002119
0.002780
0.003345
0.003810
0.004173
0.004431
0.004584
0.004630
0.004569
0.004401
-0.037808
-0.037980
-0.038046
-0.038006
-0.037862
-0.037613
-0.037262
-0.036811
-0.036261
-0.035615
-0.034877
-0.034049
-0.033137
-0.032144
-0.031076
-0.029937
-0.028732
-0.027468
-0.026151
-0.024786
-0.023381
-0.021941
-0.020474
-0.018986
-0.017485
-0.015978
-0.014471
-0.012973
-0.011490
-0.010029
-0.008598
-0.007204
-0.005854
-0.004554
-0.003311
-0.002132
-0.001022
0.000011
0.000964
0.001830
0.002606
0.003285
0.003866
0.004344
0.004717
0.004983
0.005139
0.005186
0.005122
0.004949
-0.038450
-0.038628
-0.038696
-0.038656
-0.038508
-0.038253
-0.037892
-0.037427
-0.036860
-0.036195
-0.035435
-0.034583
-0.033643
-0.032621
-0.031520
-0.030347
-0.029107
-0.027806
-0.026449
-0.025044
-0.023597
-0.022115
-0.020605
-0.019073
-0.017527
-0.015975
-0.014423
-0.012880
-0.011352
-0.009847
-0.008373
-0.006935
-0.005543
-0.004203
-0.002921
-0.001704
-0.000559
0.000508
0.001491
0.002386
0.003186
0.003889
0.004488
0.004982
0.005368
0.005642
0.005803
0.005851
0.005785
0.005605
-0.039201
-0.039386
-0.039457
-0.039416
-0.039263
-0.039000
-0.038626
-0.038146
-0.037560
-0.036872
-0.036086
-0.035205
-0.034233
-0.033176
-0.032039
-0.030826
-0.029544
-0.028199
-0.026797
-0.025345
-0.023850
-0.022318
-0.020757
-0.019174
-0.017576
-0.015972
-0.014368
-0.012772
-0.011192
-0.009635
-0.008110
-0.006623
-0.005182
-0.003794
-0.002466
-0.001206
-0.000020
0.001086
0.002106
0.003034
0.003864
0.004593
0.005215
0.005727
0.006127
0.006411
0.006579
0.006628
0.006559
0.006373
-0.040066
-0.040258
-0.040332
-0.040290
-0.040132
-0.039858
-0.039470
-0.038971
-0.038363
-0.037649
-0.036833
-0.035919
-0.034910
-0.033813
-0.032633
-0.031375
-0.030045
-0.028650
-0.027196
-0.025690
-0.024139
-0.022551
-0.020932
-0.019290
-0.017633
-0.015969
-0.014305
-0.012649
-0.011009
-0.009393
-0.007809
-0.006265
-0.004768
-0.003325
-0.001946
-0.000635
0.000599
0.001750
0.002811
0.003777
0.004642
0.005401
0.006049
0.006583
0.007000
0.007296
0.007471
0.007522
0.007450
0.007256
-0.041047
-0.041248
-0.041326
-0.041282
-0.041117
-0.040832
-0.040428
-0.039908
-0.039274
-0.038530
-0.037680
-0.036728
-0.035678
-0.034535
-0.033307
-0.031997
-0.030613
-0.029161
-0.027648
-0.026081
-0.024468
-0.022815
-0.021131
-0.019422
-0.017698
-0.015966
-0.014234
-0.012510
-0.010803
-0.009120
-0.007470
-0.005861
-0.004300
-0.002796
-0.001357
0.000011
0.001299
0.002501
0.003610
0.004619
0.005524
0.006317
0.006996
0.007555
0.007991
0.008301
0.008484
0.008537
0.008463
0.008260
-0.042151
-0.042361
-0.042443
-0.042397
-0.042225
-0.041926
-0.041504
-0.040960
-0.040298
-0.039520
-0.038631
-0.037636
-0.036539
-0.035346
-0.034062
-0.032695
-0.031250
-0.029734
-0.028155
-0.026520
-0.024836
-0.023111
-0.021354
-0.019571
-0.017772
-0.015964
-0.014156
-0.012357
-0.010574
-0.008816
-0.007091
-0.005409
-0.003777
-0.002204
-0.000697
0.000735
0.002084
0.003344
0.004506
0.005565
0.006514
0.007347
0.008060
0.008647
0.009105
0.009431
0.009623
0.009680
0.009602
0.009390
-0.043383
-0.043603
-0.043689
-0.043641
-0.043460
-0.043147
-0.042704
-0.042134
-0.041439
-0.040623
-0.039691
-0.038648
-0.037498
-0.036248
-0.034903
-0.033471
-0.031958
-0.030372
-0.028719
-0.027008
-0.025246
-0.023442
-0.021603
-0.019738
-0.017855
-0.015964
-0.014071
-0.012187
-0.010320
-0.008479
-0.006672
-0.004908
-0.003197
-0.001546
0.000036
0.001539
0.002957
0.004282
0.005504
0.006619
0.007618
0.008496
0.009246
0.009865
0.010349
0.010693
0.010896
0.010956
0.010874
0.010651
-0.044749
-0.044981
-0.045072
-0.045021
-0.044830
-0.044501
-0.044034
-0.043434
-0.042703
-0.041845
-0.040865
-0.039768
-0.038560
-0.037246
-0.035834
-0.034331
-0.032743
-0.031078
-0.029344
-0.027549
-0.025701
-0.023808
-0.021880
-0.019924
-0.017949
-0.015965
-0.013979
-0.012002
-0.010042
-0.008109
-0.006211
-0.004357
-0.002558
-0.000821
0.000844
0.002428
0.003922
0.005318
0.006609
0.007785
0.008840
0.009768
0.010562
0.011217
0.011728
0.012093
0.012308
0.012373
0.012287
0.012052
-0.046257
-0.046502
-0.046598
-0.046544
-0.046342
-0.045994
-0.045502
-0.044868
-0.044097
-0.043192
-0.042158
-0.041002
-0.039729
-0.038346
-0.036859
-0.035276
-0.033606
-0.031854
-0.030031
-0.028144
-0.026201
-0.024212
-0.022185
-0.020130
-0.018054
-0.015968
-0.013881
-0.011802
-0.009740
-0.007705
-0.005707
-0.003754
-0.001857
-0.000026
0.001731
0.003403
0.004982
0.006459
0.007824
0.009070
0.010188
0.011171
0.012013
0.012709
0.013252
0.013639
0.013869
0.013938
0.013848
0.013599
-0.047915
-0.048174
-0.048275
-0.048218
-0.048004
-0.047635
-0.047114
-0.046443
-0.045627
-0.044670
-0.043577
-0.042356
-0.041011
-0.039551
-0.037982
-0.036313
-0.034551
-0.032705
-0.030784
-0.028796
-0.026750
-0.024656
-0.022522
-0.020357
-0.018172
-0.015975
-0.013777
-0.011586
-0.009413
-0.007267
-0.005159
-0.003098
-0.001094
0.000841
0.002699
0.004470
0.006142
0.007707
0.009156
0.010478
0.011666
0.012712
0.013608
0.014349
0.014928
0.015341
0.015586
0.015661
0.015566
0.015302
-0.049731
-0.050006
-0.050112
-0.050051
-0.049824
-0.049432
-0.048879
-0.048167
-0.047301
-0.046287
-0.045129
-0.043836
-0.042412
-0.040867
-0.039209
-0.037444
-0.035583
-0.033634
-0.031606
-0.029508
-0.027350
-0.025141
-0.022890
-0.020608
-0.018303
-0.015986
-0.013666
-0.011354
-0.009060
-0.006794
-0.004566
-0.002386
-0.000266
0.001784
0.003753
0.005631
0.007407
0.009070
0.010610
0.012018
0.013284
0.014399
0.015355
0.016146
0.016765
0.017207
0.017470
0.017551
0.017451
0.017171
-0.051715
-0.052007
-0.052121
-0.052055
-0.051813
-0.051395
-0.050806
-0.050049
-0.049128
-0.048051
-0.046821
-0.045448
-0.043939
-0.042301
-0.040544
-0.038676
-0.036706
-0.034645
-0.032501
-0.030284
-0.028004
-0.025670
-0.023294
-0.020883
-0.018449
-0.016002
-0.013551
-0.011108
-0.008682
-0.006285
-0.003927
-0.001618
0.000629
0.002804
0.004895
0.006891
0.008780
0.010551
0.012193
0.013695
0.015048
0.016240
0.017263
0.018110
0.018774
0.019249
0.019531
0.019619
0.019514
0.019216
-0.053878
-0.054190
-0.054310
-0.054240
-0.053981
-0.053535
-0.052906
-0.052099
-0.051118
-0.049970
-0.048662
-0.047201
-0.045597
-0.043858
-0.041993
-0.040012
-0.037925
-0.035741
-0.033471
-0.031125
-0.028714
-0.026246
-0.023733
-0.021185
-0.018612
-0.016024
-0.013432
-0.010847
-0.008279
-0.005740
-0.003241
-0.000793
0.001593
0.003904
0.006128
0.008253
0.010267
0.012157
0.013912
0.015518
0.016966
0.018245
0.019343
0.020253
0.020966
0.021478
0.021783
0.021879
0.021767
0.021449
-0.056233
-0.056566
-0.056695
-0.056619
-0.056340
-0.055863
-0.055190
-0.054327
-0.053279
-0.052054
-0.050659
-0.049103
-0.047395
-0.045545
-0.043563
-0.041459
-0.039243
-0.036928
-0.034522
-0.032037
-0.029483
-0.026871
-0.024211
-0.021515
-0.018792
-0.016053
-0.013309
-0.010572
-0.007851
-0.005160
-0.002508
0.000092
0.002628
0.005087
0.007456
0.009722
0.011873
0.013894
0.015773
0.017495
0.019050
0.020423
0.021605
0.022586
0.023355
0.023908
0.024238
0.024344
0.024225
0.023885
-0.058793
-0.059150
-0.059287
-0.059204
-0.058905
-0.058393
-0.057671
-0.056746
-0.055624
-0.054314
-0.052823
-0.051162
-0.049340
-0.047369
-0.045259
-0.043021
-0.040667
-0.038208
-0.035655
-0.033020
-0.030314
-0.027547
-0.024730
-0.021875
-0.018991
-0.016091
-0.013185
-0.010284
-0.007399
-0.004543
-0.001727
0.001037
0.003735
0.006354
0.008881
0.011302
0.013603
0.015768
0.017783
0.019634
0.021307
0.022787
0.024063
0.025122
0.025955
0.026554
0.026913
0.027029
0.026903
0.026538
-0.061573
-0.061956
-0.062102
-0.062013
-0.061690
-0.061138
-0.060362
-0.059369
-0.058165
-0.056760
-0.055164
-0.053387
-0.051441
-0.049337
-0.047088
-0.044705
-0.042201
-0.039587
-0.036876
-0.034080
-0.031210
-0.028276
-0.025292
-0.022267
-0.019212
-0.016139
-0.013059
-0.009983
-0.006923
-0.003891
-0.000898
0.002042
0.004915
0.007709
0.010408
0.012997
0.015462
0.017786
0.019952
0.021945
0.023749
0.025349
0.026729
0.027877
0.028781
0.029432
0.029823
0.029952
0.029818
0.029425
-0.064590
-0.065002
-0.065159
-0.065061
-0.064712
-0.064116
-0.063279
-0.062209
-0.060914
-0.059405
-0.057692
-0.055788
-0.053705
-0.051457
-0.049056
-0.046516
-0.043849
-0.041069
-0.038188
-0.035219
-0.032173
-0.029063
-0.025899
-0.022693
-0.019456
-0.016199
-0.012934
-0.009672
-0.006425
-0.003204
-0.000022
0.003107
0.006170
0.009152
0.012037
0.014811
0.017455
0.019953
0.022286
0.024437
0.026388
0.028120
0.029618
0.030866
0.031851
0.032561
0.032990
0.033133
0.032990
0.032565
-0.067862
-0.068307
-0.068475
-0.068368
-0.067989
-0.067344
-0.066439
-0.065283
-0.063887
-0.062262
-0.060420
-0.058376
-0.056143
-0.053737
-0.051171
-0.048459
-0.045617
-0.042658
-0.039595
-0.036440
-0.033207
-0.029908
-0.026553
-0.023156
-0.019725
-0.016274
-0.012812
-0.009352
-0.005905
-0.002483
0.000900
0.004232
0.007498
0.010684
0.013772
0.016746
0.019587
0.022276
0.024794
0.027121
0.029235
0.031117
0.032748
0.034109
0.035185
0.035963
0.036434
0.036593
0.036440
0.035981
-0.071411
-0.071893
-0.072074
-0.071956
-0.071543
-0.070842
-0.069860
-0.068609
-0.067099
-0.065345
-0.063360
-0.061161
-0.058764
-0.056184
-0.053438
-0.050542
-0.047510
-0.044357
-0.041098
-0.037747
-0.034314
-0.030814
-0.027258
-0.023656
-0.020022
-0.016364
-0.012695
-0.009025
-0.005367
-0.001732
0.001867
0.005416
0.008901
0.012305
0.015613
0.018804
0.021861
0.024762
0.027484
0.030006
0.032303
0.034354
0.036134
0.037624
0.038804
0.039660
0.040180
0.040358
0.040195
0.039695
-0.075260
-0.075785
-0.075980
-0.075849
-0.075397
-0.074632
-0.073564
-0.072204
-0.070567
-0.068668
-0.066525
-0.064155
-0.061576
-0.058807
-0.055865
-0.052767
-0.049531
-0.046171
-0.042703
-0.039140
-0.035496
-0.031783
-0.028014
-0.024198
-0.020347
-0.016473
-0.012584
-0.008694
-0.004812
-0.000952
0.002876
0.006656
0.010375
0.014015
0.017560
0.020989
0.024281
0.027414
0.030363
0.033103
0.035606
0.037846
0.039797
0.041434
0.042734
0.043679
0.044256
0.044456
0.044281
0.043737
-0.079438
-0.080010
-0.080221
-0.080076
-0.079579
-0.078741
-0.077574
-0.076091
-0.074310
-0.072250
-0.069929
-0.067369
-0.064590
-0.061613
-0.058457
-0.055142
-0.051684
-0.048102
-0.044410
-0.040623
-0.036755
-0.032818
-0.028823
-0.024782
-0.020705
-0.016602
-0.012484
-0.008362
-0.004245
-0.000146
0.003923
0.007950
0.011918
0.015811
0.019612
0.023298
0.026849
0.030238
0.033438
0.036421
0.039157
0.041613
0.043758
0.045564
0.047003
0.048051
0.048694
0.048921
0.048732
0.048136
-0.083975
-0.084601
-0.084831
-0.084667
-0.084118
-0.083196
-0.081915
-0.080293
-0.078349
-0.076106
-0.073587
-0.070816
-0.067816
-0.064610
-0.061221
-0.057669
-0.053973
-0.050152
-0.046221
-0.042197
-0.038091
-0.033917
-0.029686
-0.025409
-0.021095
-0.016755
-0.012397
-0.008032
-0.003669
0.000680
0.005005
0.009291
0.013525
0.017689
0.021765
0.025732
0.029564
0.033236
0.036716
0.039972
0.042969
0.045671
0.048040
0.050041
0.051641
0.052811
0.053531
0.053789
0.053586
0.052931
-0.088907
-0.089596
-0.089846
-0.089661
-0.089051
-0.088031
-0.086618
-0.084835
-0.082706
-0.080256
-0.077514
-0.074506
-0.071261
-0.067804
-0.064159
-0.060351
-0.056398
-0.052322
-0.048137
-0.043861
-0.039505
-0.035083
-0.030605
-0.026082
-0.021522
-0.016934
-0.012327
-0.007709
-0.003090
0.001521
0.006114
0.010674
0.015190
0.019643
0.024016
0.028285
0.032426
0.036408
0.040199
0.043762
0.047056
0.050039
0.052667
0.054895
0.056684
0.057998
0.058810
0.059107
0.058887
0.058162
-0.094275
-0.095038
-0.095311
-0.095100
-0.094417
-0.093282
-0.091716
-0.089747
-0.087404
-0.084719
-0.081724
-0.078452
-0.074934
-0.071200
-0.067277
-0.063190
-0.058961
-0.054611
-0.050157
-0.045614
-0.040996
-0.036314
-0.031580
-0.026801
-0.021985
-0.017142
-0.012277
-0.007398
-0.002512
0.002371
0.007242
0.012091
0.016904
0.021665
0.026355
0.030951
0.035428
0.039753
0.043890
0.047798
0.051430
0.054737
0.057665
0.060160
0.062173
0.063658
0.064581
0.064925
0.064686
0.063879
-0.100131
-0.100980
-0.101278
-0.101034
-0.100264
-0.098992
-0.097246
-0.095060
-0.092470
-0.089515
-0.086233
-0.082664
-0.078843
-0.074802
-0.070574
-0.066185
-0.061659
-0.057017
-0.052277
-0.047454
-0.042561
-0.037610
-0.032609
-0.027566
-0.022488
-0.017381
-0.012251
-0.007103
-0.001944
0.003221
0.008382
0.013531
0.018656
0.023741
0.028770
0.033719
0.038562
0.043264
0.047787
0.052084
0.056102
0.059782
0.063061
0.065873
0.068153
0.069845
0.070904
0.071305
0.071045
0.070140
-0.106531
-0.107482
-0.107811
-0.107525
-0.106648
-0.105211
-0.103250
-0.100808
-0.097931
-0.094665
-0.091057
-0.087152
-0.082991
-0.078613
-0.074050
-0.069334
-0.064488
-0.059535
-0.054493
-0.049376
-0.044197
-0.038966
-0.033690
-0.028376
-0.023030
-0.017654
-0.012253
-0.006831
-0.001392
0.004061
0.009521
0.014981
0.020431
0.025859
0.031247
0.036574
0.041814
0.046930
0.051882
0.056618
0.061077
0.065192
0.068884
0.072073
0.074677
0.076622
0.077848
0.078322
0.078038
0.077015
-0.113547
-0.114622
-0.114984
-0.114645
-0.113636
-0.111997
-0.109777
-0.107031
-0.103816
-0.100189
-0.096207
-0.091921
-0.087381
-0.082629
-0.077701
-0.072629
-0.067441
-0.062158
-0.056797
-0.051373
-0.045898
-0.040378
-0.034821
-0.029231
-0.023611
-0.017963
-0.012289
-0.006589
-0.000865
0.004881
0.010646
0.016425
0.022212
0.027997
0.033764
0.039495
0.045162
0.050732
0.056161
0.061392
0.066357
0.070978
0.075160
0.078804
0.081804
0.084063
0.085500
0.086068
0.085755
0.084588
-0.121265
-0.122491
-0.122891
-0.122482
-0.121305
-0.119417
-0.116883
-0.113771
-0.110156
-0.106108
-0.101694
-0.096977
-0.092012
-0.086845
-0.081517
-0.076062
-0.070507
-0.064874
-0.059180
-0.053437
-0.047655
-0.041840
-0.035997
-0.030128
-0.024232
-0.018311
-0.012361
-0.006383
-0.000373
0.005668
0.011742
0.017846
0.023979
0.030132
0.036296
0.042453
0.048580
0.054644
0.060599
0.066388
0.071934
0.077147
0.081914
0.086111
0.089602
0.092256
0.093964
0.094655
0.094310
0.092963
-0.129793
-0.131207
-0.131649
-0.131145
-0.129754
-0.127552
-0.124628
-0.121073
-0.116981
-0.112438
-0.107527
-0.102318
-0.096875
-0.091250
-0.085485
-0.079617
-0.073671
-0.067669
-0.061626
-0.055554
-0.049458
-0.043344
-0.037211
-0.031061
-0.024891
-0.018697
-0.012475
-0.006219
0.000073
0.006409
0.012791
0.019223
0.025705
0.032236
0.038810
0.045413
0.052029
0.058625
0.065161
0.071575
0.077787
0.083692
0.089161
0.094036
0.098144
0.101307
0.103369
0.104226
0.103846
0.102269
-0.139269
-0.140920
-0.141410
-0.140774
-0.139098
-0.136495
-0.133083
-0.128985
-0.124319
-0.119192
-0.113703
-0.107935
-0.101956
-0.095825
-0.089585
-0.083272
-0.076912
-0.070523
-0.064120
-0.057709
-0.051294
-0.044877
-0.038456
-0.032027
-0.025585
-0.019123
-0.012632
-0.006106
0.000465
0.007089
0.013776
0.020532
0.027364
0.034275
0.041266
0.048332
0.055459
0.062625
0.069792
0.076903
0.083874
0.090591
0.096903
0.102618
0.107510
0.111338
0.113877
0.114967
0.114548
0.112670
-0.149872
-0.151831
-0.152368
-0.151542
-0.149484
-0.146357
-0.142326
-0.137555
-0.132194
-0.126376
-0.120216
-0.113809
-0.107232
-0.100543
-0.093788
-0.087000
-0.080203
-0.073413
-0.066638
-0.059882
-0.053146
-0.046428
-0.039721
-0.033018
-0.026310
-0.019587
-0.012838
-0.006050
0.000790
0.007693
0.014675
0.021747
0.028922
0.036210
0.043620
0.051154
0.058811
0.066576
0.074421
0.082298
0.090128
0.097790
0.105115
0.111875
0.117779
0.122495
0.125695
0.127123
0.126668
0.124385
-0.161844
-0.164210
-0.164788
-0.163679
-0.161092
-0.157267
-0.152439
-0.146827
-0.140620
-0.133981
-0.127043
-0.119911
-0.112665
-0.105366
-0.098056
-0.090765
-0.083512
-0.076307
-0.069153
-0.062051
-0.054995
-0.047979
-0.040992
-0.034024
-0.027060
-0.020089
-0.013092
-0.006056
0.001038
0.008206
0.015468
0.022841
0.030346
0.037999
0.045818
0.053818
0.062008
0.070390
0.078950
0.087656
0.096441
0.105192
0.113731
0.121792
0.129012
0.134938
0.139082
0.141030
0.140559
0.137711
-0.175524
-0.178444
-0.179033
-0.177485
-0.174144
-0.169373
-0.163508
-0.156836
-0.149597
-0.141982
-0.134143
-0.126190
-0.118204
-0.110242
-0.102341
-0.094522
-0.086797
-0.079169
-0.071635
-0.064188
-0.056818
-0.049513
-0.042257
-0.035035
-0.027830
-0.020624
-0.013397
-0.006130
0.001199
0.008612
0.016134
0.023787
0.031599
0.039595
0.047804
0.056252
0.064965
0.073962
0.083253
0.092831
0.102656
0.112639
0.122610
0.132285
0.141226
0.148828
0.154369
0.157157
0.156742
0.153086
-0.191420
-0.195103
-0.195617
-0.193359
-0.188913
-0.182840
-0.175608
-0.167596
-0.159095
-0.150326
-0.141449
-0.132576
-0.123779
-0.115106
-0.106581
-0.098216
-0.090010
-0.081958
-0.074047
-0.066264
-0.058590
-0.051007
-0.043497
-0.036037
-0.028608
-0.021188
-0.013752
-0.006276
0.001266
0.008899
0.016653
0.024558
0.032646
0.040953
0.049518
0.058380
0.067583
0.077170
0.087179
0.097638
0.108554
0.119885
0.131505
0.143148
0.154331
0.164281
0.171950
0.176175
0.176034
0.171212
-0.210355
-0.215073
-0.215282
-0.211827
-0.205723
-0.197826
-0.188785
-0.179076
-0.169041
-0.158917
-0.148860
-0.138967
-0.129295
-0.119871
-0.110701
-0.101781
-0.093095
-0.084624
-0.076348
-0.068241
-0.060280
-0.052439
-0.044693
-0.037017
-0.029385
-0.021772
-0.014152
-0.006493
0.001233
0.009057
0.017011
0.025131
0.033457
0.042031
0.050903
0.060127
0.069764
0.079882
0.090554
0.101855
0.113851
0.126582
0.140016
0.153979
0.168023
0.181259
0.192234
0.199032
0.199774
0.193361
-0.233787
-0.239789
-0.239101
-0.233558
-0.224914
-0.214444
-0.203004
-0.191162
-0.179282
-0.167591
-0.156215
-0.145218
-0.134623
-0.124425
-0.114605
-0.105134
-0.095980
-0.087110
-0.078488
-0.070080
-0.061854
-0.053778
-0.045821
-0.037953
-0.030145
-0.022366
-0.014588
-0.006777
0.001102
0.009082
0.017199
0.025493
0.034009
0.042797
0.051916
0.061431
0.071422
0.081980
0.093214
0.105249
0.118227
0.132297
0.147584
0.164115
0.181650
0.199375
0.215492
0.227002
0.230205
0.222034
-0.264516
-0.271630
-0.268575
-0.259288
-0.246709
-0.232612
-0.218028
-0.203552
-0.189510
-0.176060
-0.163261
-0.151111
-0.139577
-0.128613
-0.118162
-0.108168
-0.098578
-0.089339
-0.080403
-0.071726
-0.063267
-0.054987
-0.046849
-0.038818
-0.030862
-0.022947
-0.015043
-0.007110
0.000888
0.008987
0.017226
0.025649
0.034304
0.043247
0.052543
0.062268
0.072514
0.083395
0.095047
0.107647
0.121411
0.136614
0.153588
0.172690
0.194155
0.217677
0.241552
0.261606
0.271010
0.262297
-0.308168
-0.314475
-0.305503
-0.289420
-0.270774
-0.251676
-0.233114
-0.215539
-0.199103
-0.183802
-0.169567
-0.156294
-0.143874
-0.132203
-0.121184
-0.110729
-0.100759
-0.091204
-0.082004
-0.073104
-0.064453
-0.056008
-0.047725
-0.039567
-0.031497
-0.023478
-0.015478
-0.007458
0.000625
0.008807
0.017129
0.025636
0.034380
0.043420
0.052825
0.062677
0.073079
0.084158
0.096074
0.109040
0.123339
0.139356
0.157649
0.178993
0.204392
0.234743
0.269547
0.304340
0.327983
0.324115
-0.376283
-0.374007
-0.350877
-0.322654
-0.295074
-0.269570
-0.246449
-0.225650
-0.206903
-0.189919
-0.174439
-0.160229
-0.147087
-0.134860
-0.123403
-0.112598
-0.102345
-0.092559
-0.083168
-0.074107
-0.065321
-0.056761
-0.048379
-0.040135
-0.031989
-0.023902
-0.015837
-0.007761
0.000373
0.008603
0.016971
0.025523
0.034312
0.043399
0.052856
0.062769
0.073246
0.084422
0.096476
0.109648
0.124270
0.140810
0.160030
0.183121
0.212028
0.249593
0.298273
0.356314
0.409675
0.426110
-0.492799
-0.455790
-0.400896
-0.352739
-0.313874
-0.281726
-0.254756
-0.231527
-0.211188
-0.193142
-0.176931
-0.162204
-0.148687
-0.136175
-0.124497
-0.113519
-0.103127
-0.093230
-0.083748
-0.074613
-0.065765
-0.057153
-0.048729
-0.040449
-0.032271
-0.024157
-0.016065
-0.007964
0.000189
0.008433
0.016812
0.025373
0.034170
0.043265
0.052730
0.062655
0.073150
0.084359
0.096469
0.109746
0.124566
0.141508
0.161514
0.186193
0.218349
0.262781
0.326961
0.416962
0.526395
0.601817
-0.707125
-0.554074
-0.438489
-0.364974
-0.316446
-0.281226
-0.253444
-0.230216
-0.210098
-0.192288
-0.176274
-0.161699
-0.148299
-0.135874
-0.124263
-0.113336
-0.102986
-0.093123
-0.083669
-0.074558
-0.065733
-0.057141
-0.048736
-0.040474
-0.032314
-0.024217
-0.016142
-0.008052
0.000084
0.008307
0.016662
0.025197
0.033965
0.043027
0.052457
0.062343
0.072798
0.083968
0.096050
0.109323
0.124200
0.141338
0.161839
0.187668
0.222483
0.273201
0.352486
0.480720
0.679201
0.911305
-1.112566
-0.608651
-0.416281
-0.334577
-0.291836
-0.263467
-0.240984
-0.221437
-0.203789
-0.187631
-0.172744
-0.158959
-0.146131
-0.134131
-0.122844
-0.112171
-0.102023
-0.092324
-0.083007
-0.074011
-0.065285
-0.056779
-0.048451
-0.040259
-0.032164
-0.024128
-0.016113
-0.008080
-0.000003
0.008159
0.016450
0.024916
0.033608
0.042585
0.051918
0.061693
0.072016
0.083029
0.094919
0.107956
0.122540
0.139309
0.159341
0.184588
0.218835
0.269867
0.354459
0.509577
0.814714
1.433063
