# vtk DataFile Version 3.0
Scalar Field
ASCII
DATASET RECTILINEAR_GRID
DIMENSIONS 50 50 1
X_COORDINATES 50 double
0.100000 0.300000 0.500000 0.700000 0.900000 1.100000 1.300000 1.500000 1.700000 1.900000 2.100000 2.300000 2.500000 2.700000 2.900000 3.100000 3.300000 3.500000 3.700000 3.900000 4.100000 4.300000 4.500000 4.700000 4.900000 5.100000 5.300000 5.500000 5.700000 5.900000 6.100000 6.300000 6.500000 6.700000 6.900000 7.100000 7.300000 7.500000 7.700000 7.900000 8.100000 8.300000 8.500000 8.700000 8.900000 9.100000 9.300000 9.500000 9.700000 9.900000 
Y_COORDINATES 50 double
0.100000 0.300000 0.500000 0.700000 0.900000 1.100000 1.300000 1.500000 1.700000 1.900000 2.100000 2.300000 2.500000 2.700000 2.900000 3.100000 3.300000 3.500000 3.700000 3.900000 4.100000 4.300000 4.500000 4.700000 4.900000 5.100000 5.300000 5.500000 5.700000 5.900000 6.100000 6.300000 6.500000 6.700000 6.900000 7.100000 7.300000 7.500000 7.700000 7.900000 8.100000 8.300000 8.500000 8.700000 8.900000 9.100000 9.300000 9.500000 9.700000 9.900000 
Z_COORDINATES 1 double
0.0
POINT_DATA 2500
SCALARS Skalarfeld double 1
LOOKUP_TABLE default
-0.009973
-0.010030
-0.010170
-0.010361
-0.010572
-0.010777
-0.010961
-0.011109
-0.011213
-0.011270
-0.011275
-0.011226
-0.011124
-0.010968
-0.010758
-0.010496
-0.010183
-0.009820
-0.009411
-0.008956
-0.008460
-0.007925
-0.007358
-0.006762
-0.006145
-0.005513
-0.004875
-0.004239
-0.003616
-0.003014
-0.002445
-0.001918
-0.001443
-0.001027
-0.000680
-0.000406
-0.000210
-0.000094
-0.000057
-0.000095
-0.000203
-0.000372
-0.000590
-0.000842
-0.001112
-0.001379
-0.001621
-0.001813
-0.001931
-0.001960
-0.009917
-0.009973
-0.010091
-0.010247
-0.010417
-0.010584
-0.010732
-0.010850
-0.010932
-0.010971
-0.010964
-0.010909
-0.010805
-0.010652
-0.010450
-0.010200
-0.009902
-0.009559
-0.009172
-0.008743
-0.008276
-0.007775
-0.007242
-0.006685
-0.006107
-0.005517
-0.004922
-0.004330
-0.003750
-0.003191
-0.002662
-0.002173
-0.001730
-0.001344
-0.001019
-0.000761
-0.000574
-0.000458
-0.000413
-0.000436
-0.000521
-0.000659
-0.000839
-0.001050
-0.001274
-0.001497
-0.001698
-0.001859
-0.001961
-0.001988
-0.009775
-0.009856
-0.009975
-0.010118
-0.010267
-0.010409
-0.010533
-0.010630
-0.010694
-0.010719
-0.010703
-0.010643
-0.010538
-0.010388
-0.010193
-0.009953
-0.009670
-0.009343
-0.008977
-0.008571
-0.008130
-0.007656
-0.007154
-0.006629
-0.006085
-0.005529
-0.004969
-0.004412
-0.003867
-0.003341
-0.002844
-0.002383
-0.001966
-0.001601
-0.001294
-0.001049
-0.000868
-0.000754
-0.000705
-0.000718
-0.000786
-0.000904
-0.001060
-0.001243
-0.001440
-0.001636
-0.001815
-0.001963
-0.002064
-0.002105
-0.009580
-0.009700
-0.009837
-0.009982
-0.010124
-0.010254
-0.010364
-0.010447
-0.010498
-0.010513
-0.010489
-0.010426
-0.010321
-0.010174
-0.009985
-0.009755
-0.009484
-0.009174
-0.008825
-0.008439
-0.008020
-0.007571
-0.007094
-0.006595
-0.006079
-0.005551
-0.005018
-0.004489
-0.003970
-0.003469
-0.002996
-0.002556
-0.002159
-0.001810
-0.001515
-0.001279
-0.001105
-0.000992
-0.000941
-0.000948
-0.001008
-0.001114
-0.001256
-0.001424
-0.001607
-0.001791
-0.001964
-0.002114
-0.002228
-0.002296
-0.009360
-0.009527
-0.009691
-0.009849
-0.009994
-0.010121
-0.010225
-0.010299
-0.010343
-0.010351
-0.010324
-0.010258
-0.010154
-0.010011
-0.009828
-0.009607
-0.009348
-0.009051
-0.008717
-0.008350
-0.007950
-0.007520
-0.007065
-0.006587
-0.006092
-0.005586
-0.005074
-0.004565
-0.004065
-0.003583
-0.003125
-0.002700
-0.002316
-0.001977
-0.001691
-0.001461
-0.001291
-0.001181
-0.001129
-0.001135
-0.001191
-0.001292
-0.001430
-0.001594
-0.001774
-0.001959
-0.002138
-0.002300
-0.002437
-0.002541
-0.009141
-0.009356
-0.009553
-0.009731
-0.009886
-0.010017
-0.010119
-0.010191
-0.010231
-0.010237
-0.010207
-0.010141
-0.010039
-0.009899
-0.009723
-0.009511
-0.009261
-0.008977
-0.008657
-0.008305
-0.007921
-0.007508
-0.007069
-0.006608
-0.006130
-0.005639
-0.005142
-0.004646
-0.004159
-0.003687
-0.003239
-0.002823
-0.002444
-0.002112
-0.001830
-0.001603
-0.001435
-0.001326
-0.001276
-0.001283
-0.001340
-0.001443
-0.001584
-0.001752
-0.001939
-0.002134
-0.002328
-0.002512
-0.002678
-0.002822
-0.008941
-0.009205
-0.009436
-0.009638
-0.009808
-0.009947
-0.010053
-0.010126
-0.010166
-0.010171
-0.010141
-0.010077
-0.009978
-0.009843
-0.009673
-0.009469
-0.009229
-0.008955
-0.008648
-0.008308
-0.007938
-0.007538
-0.007112
-0.006664
-0.006197
-0.005716
-0.005228
-0.004739
-0.004258
-0.003790
-0.003346
-0.002931
-0.002553
-0.002221
-0.001939
-0.001712
-0.001544
-0.001436
-0.001388
-0.001397
-0.001460
-0.001569
-0.001718
-0.001898
-0.002099
-0.002313
-0.002529
-0.002742
-0.002942
-0.003128
-0.008776
-0.009085
-0.009353
-0.009580
-0.009768
-0.009918
-0.010031
-0.010109
-0.010151
-0.010158
-0.010131
-0.010070
-0.009974
-0.009845
-0.009682
-0.009485
-0.009254
-0.008991
-0.008694
-0.008365
-0.008005
-0.007615
-0.007199
-0.006759
-0.006299
-0.005823
-0.005338
-0.004851
-0.004369
-0.003900
-0.003452
-0.003033
-0.002650
-0.002312
-0.002025
-0.001795
-0.001624
-0.001515
-0.001469
-0.001482
-0.001552
-0.001672
-0.001834
-0.002032
-0.002254
-0.002492
-0.002738
-0.002983
-0.003222
-0.003450
-0.008656
-0.009011
-0.009313
-0.009566
-0.009774
-0.009938
-0.010061
-0.010145
-0.010192
-0.010203
-0.010180
-0.010123
-0.010033
-0.009909
-0.009753
-0.009564
-0.009342
-0.009087
-0.008800
-0.008480
-0.008128
-0.007746
-0.007336
-0.006901
-0.006443
-0.005968
-0.005481
-0.004990
-0.004502
-0.004024
-0.003567
-0.003137
-0.002743
-0.002394
-0.002097
-0.001858
-0.001681
-0.001570
-0.001523
-0.001541
-0.001620
-0.001753
-0.001933
-0.002152
-0.002401
-0.002670
-0.002950
-0.003234
-0.003513
-0.003785
-0.008593
-0.008991
-0.009327
-0.009607
-0.009834
-0.010014
-0.010148
-0.010240
-0.010294
-0.010311
-0.010293
-0.010242
-0.010158
-0.010041
-0.009893
-0.009712
-0.009498
-0.009252
-0.008972
-0.008660
-0.008315
-0.007938
-0.007532
-0.007098
-0.006639
-0.006160
-0.005666
-0.005165
-0.004665
-0.004174
-0.003700
-0.003253
-0.002842
-0.002476
-0.002163
-0.001910
-0.001722
-0.001604
-0.001556
-0.001578
-0.001666
-0.001814
-0.002015
-0.002260
-0.002540
-0.002845
-0.003164
-0.003490
-0.003814
-0.004130
-0.008596
-0.009034
-0.009404
-0.009710
-0.009958
-0.010153
-0.010300
-0.010402
-0.010464
-0.010488
-0.010477
-0.010433
-0.010356
-0.010247
-0.010106
-0.009933
-0.009728
-0.009490
-0.009218
-0.008913
-0.008573
-0.008200
-0.007795
-0.007360
-0.006897
-0.006410
-0.005904
-0.005389
-0.004871
-0.004359
-0.003863
-0.003391
-0.002956
-0.002566
-0.002230
-0.001957
-0.001754
-0.001625
-0.001572
-0.001596
-0.001692
-0.001856
-0.002080
-0.002355
-0.002670
-0.003015
-0.003379
-0.003751
-0.004123
-0.004486
-0.008673
-0.009150
-0.009552
-0.009884
-0.010153
-0.010364
-0.010523
-0.010636
-0.010707
-0.010740
-0.010737
-0.010701
-0.010632
-0.010532
-0.010400
-0.010237
-0.010040
-0.009811
-0.009547
-0.009247
-0.008912
-0.008542
-0.008136
-0.007697
-0.007227
-0.006730
-0.006209
-0.005674
-0.005132
-0.004594
-0.004068
-0.003566
-0.003098
-0.002676
-0.002310
-0.002010
-0.001785
-0.001639
-0.001576
-0.001598
-0.001701
-0.001881
-0.002129
-0.002436
-0.002791
-0.003180
-0.003593
-0.004017
-0.004441
-0.004856
-0.008831
-0.009346
-0.009779
-0.010136
-0.010425
-0.010653
-0.010826
-0.010950
-0.011032
-0.011074
-0.011081
-0.011054
-0.010995
-0.010905
-0.010783
-0.010629
-0.010443
-0.010222
-0.009966
-0.009674
-0.009344
-0.008975
-0.008568
-0.008125
-0.007646
-0.007135
-0.006594
-0.006035
-0.005466
-0.004895
-0.004333
-0.003791
-0.003283
-0.002820
-0.002415
-0.002079
-0.001823
-0.001653
-0.001575
-0.001590
-0.001696
-0.001890
-0.002163
-0.002504
-0.002901
-0.003340
-0.003807
-0.004288
-0.004770
-0.005242
-0.009078
-0.009630
-0.010093
-0.010475
-0.010783
-0.011027
-0.011214
-0.011351
-0.011444
-0.011497
-0.011514
-0.011498
-0.011451
-0.011372
-0.011262
-0.011120
-0.010945
-0.010735
-0.010488
-0.010203
-0.009879
-0.009513
-0.009105
-0.008656
-0.008167
-0.007641
-0.007079
-0.006493
-0.005890
-0.005280
-0.004674
-0.004086
-0.003528
-0.003014
-0.002560
-0.002178
-0.001880
-0.001677
-0.001574
-0.001576
-0.001681
-0.001886
-0.002182
-0.002558
-0.003000
-0.003493
-0.004019
-0.004564
-0.005111
-0.005648
-0.009421
-0.010008
-0.010500
-0.010906
-0.011234
-0.011495
-0.011696
-0.011846
-0.011951
-0.012016
-0.012046
-0.012042
-0.012007
-0.011942
-0.011846
-0.011718
-0.011556
-0.011359
-0.011124
-0.010849
-0.010531
-0.010170
-0.009762
-0.009309
-0.008810
-0.008267
-0.007684
-0.007067
-0.006426
-0.005772
-0.005116
-0.004472
-0.003854
-0.003279
-0.002764
-0.002323
-0.001972
-0.001723
-0.001585
-0.001563
-0.001660
-0.001871
-0.002188
-0.002599
-0.003088
-0.003639
-0.004231
-0.004846
-0.005467
-0.006076
-0.009866
-0.010487
-0.011008
-0.011437
-0.011785
-0.012062
-0.012278
-0.012442
-0.012560
-0.012639
-0.012682
-0.012693
-0.012674
-0.012624
-0.012544
-0.012433
-0.012287
-0.012106
-0.011886
-0.011624
-0.011317
-0.010962
-0.010557
-0.010102
-0.009594
-0.009037
-0.008431
-0.007781
-0.007100
-0.006396
-0.005683
-0.004975
-0.004287
-0.003639
-0.003048
-0.002534
-0.002115
-0.001805
-0.001618
-0.001562
-0.001639
-0.001848
-0.002181
-0.002626
-0.003164
-0.003776
-0.004440
-0.005135
-0.005837
-0.006529
-0.010420
-0.011075
-0.011623
-0.012075
-0.012442
-0.012736
-0.012968
-0.013146
-0.013279
-0.013372
-0.013431
-0.013459
-0.013457
-0.013426
-0.013366
-0.013275
-0.013150
-0.012989
-0.012787
-0.012543
-0.012250
-0.011907
-0.011510
-0.011056
-0.010544
-0.009974
-0.009347
-0.008664
-0.007940
-0.007183
-0.006407
-0.005625
-0.004857
-0.004121
-0.003441
-0.002837
-0.002331
-0.001943
-0.001689
-0.001582
-0.001627
-0.001824
-0.002166
-0.002639
-0.003226
-0.003904
-0.004646
-0.005427
-0.006223
-0.007011
-0.011090
-0.011777
-0.012351
-0.012826
-0.013212
-0.013523
-0.013771
-0.013965
-0.014113
-0.014223
-0.014300
-0.014347
-0.014366
-0.014358
-0.014321
-0.014254
-0.014155
-0.014018
-0.013842
-0.013620
-0.013349
-0.013023
-0.012639
-0.012193
-0.011681
-0.011103
-0.010459
-0.009746
-0.008979
-0.008166
-0.007321
-0.006459
-0.005598
-0.004761
-0.003974
-0.003260
-0.002647
-0.002159
-0.001818
-0.001639
-0.001633
-0.001803
-0.002143
-0.002640
-0.003274
-0.004018
-0.004845
-0.005723
-0.006624
-0.007520
-0.011882
-0.012599
-0.013200
-0.013696
-0.014101
-0.014430
-0.014694
-0.014904
-0.015070
-0.015200
-0.015297
-0.015366
-0.015410
-0.015427
-0.015419
-0.015381
-0.015313
-0.015208
-0.015063
-0.014872
-0.014629
-0.014329
-0.013966
-0.013535
-0.013031
-0.012452
-0.011797
-0.011059
-0.010251
-0.009382
-0.008465
-0.007514
-0.006551
-0.005598
-0.004685
-0.003841
-0.003097
-0.002483
-0.002027
-0.001752
-0.001672
-0.001795
-0.002118
-0.002628
-0.003304
-0.004117
-0.005033
-0.006017
-0.007036
-0.008057
-0.012801
-0.013548
-0.014173
-0.014691
-0.015116
-0.015462
-0.015743
-0.015972
-0.016157
-0.016307
-0.016427
-0.016522
-0.016594
-0.016642
-0.016667
-0.016666
-0.016634
-0.016568
-0.016463
-0.016311
-0.016107
-0.015843
-0.015511
-0.015106
-0.014620
-0.014050
-0.013390
-0.012637
-0.011793
-0.010870
-0.009879
-0.008835
-0.007759
-0.006676
-0.005618
-0.004620
-0.003717
-0.002948
-0.002347
-0.001944
-0.001761
-0.001812
-0.002097
-0.002605
-0.003315
-0.004194
-0.005205
-0.006305
-0.007455
-0.008618
-0.013853
-0.014629
-0.015279
-0.015817
-0.016261
-0.016625
-0.016925
-0.017172
-0.017378
-0.017551
-0.017698
-0.017822
-0.017926
-0.018010
-0.018074
-0.018114
-0.018128
-0.018110
-0.018053
-0.017952
-0.017797
-0.017580
-0.017293
-0.016926
-0.016472
-0.015922
-0.015271
-0.014514
-0.013642
-0.012671
-0.011607
-0.010467
-0.009270
-0.008043
-0.006822
-0.005644
-0.004553
-0.003594
-0.002810
-0.002242
-0.001921
-0.001867
-0.002087
-0.002573
-0.003304
-0.004245
-0.005352
-0.006577
-0.007873
-0.009197
-0.015044
-0.015846
-0.016520
-0.017080
-0.017542
-0.017925
-0.018243
-0.018511
-0.018739
-0.018938
-0.019113
-0.019270
-0.019410
-0.019535
-0.019644
-0.019734
-0.019801
-0.019840
-0.019843
-0.019803
-0.019710
-0.019555
-0.019327
-0.019015
-0.018607
-0.018094
-0.017467
-0.016719
-0.015833
-0.014822
-0.013693
-0.012457
-0.011134
-0.009752
-0.008347
-0.006964
-0.005652
-0.004465
-0.003458
-0.002681
-0.002177
-0.001978
-0.002098
-0.002535
-0.003268
-0.004261
-0.005465
-0.006823
-0.008279
-0.009785
-0.016376
-0.017205
-0.017902
-0.018482
-0.018964
-0.019366
-0.019703
-0.019992
-0.020245
-0.020470
-0.020677
-0.020869
-0.021051
-0.021222
-0.021382
-0.021529
-0.021658
-0.021763
-0.021837
-0.021871
-0.021855
-0.021777
-0.021625
-0.021385
-0.021043
-0.020586
-0.020001
-0.019278
-0.018396
-0.017362
-0.016176
-0.014849
-0.013398
-0.011852
-0.010248
-0.008634
-0.007068
-0.005613
-0.004335
-0.003298
-0.002560
-0.002165
-0.002141
-0.002492
-0.003202
-0.004233
-0.005529
-0.007026
-0.008658
-0.010366
-0.017856
-0.018711
-0.019430
-0.020031
-0.020531
-0.020952
-0.021309
-0.021620
-0.021897
-0.022151
-0.022391
-0.022623
-0.022849
-0.023070
-0.023288
-0.023498
-0.023698
-0.023880
-0.024037
-0.024159
-0.024234
-0.024251
-0.024193
-0.024045
-0.023790
-0.023410
-0.022889
-0.022211
-0.021358
-0.020318
-0.019091
-0.017683
-0.016108
-0.014393
-0.012576
-0.010709
-0.008855
-0.007089
-0.005489
-0.004135
-0.003103
-0.002454
-0.002230
-0.002450
-0.003101
-0.004146
-0.005526
-0.007166
-0.008988
-0.010922
-0.019486
-0.020366
-0.021107
-0.021728
-0.022248
-0.022687
-0.023064
-0.023396
-0.023698
-0.023982
-0.024257
-0.024529
-0.024802
-0.025079
-0.025358
-0.025639
-0.025917
-0.026186
-0.026437
-0.026661
-0.026844
-0.026972
-0.027028
-0.026994
-0.026848
-0.026570
-0.026138
-0.025531
-0.024731
-0.023709
-0.022461
-0.020988
-0.019298
-0.017415
-0.015376
-0.013236
-0.011064
-0.008943
-0.006968
-0.005235
-0.003841
-0.002869
-0.002380
-0.002409
-0.002956
-0.003986
-0.005434
-0.007216
-0.009240
-0.011424
-0.021269
-0.022174
-0.022939
-0.023579
-0.024117
-0.024574
-0.024970
-0.025323
-0.025650
-0.025962
-0.026271
-0.026584
-0.026906
-0.027240
-0.027586
-0.027943
-0.028306
-0.028671
-0.029027
-0.029365
-0.029671
-0.029929
-0.030120
-0.030221
-0.030209
-0.030059
-0.029743
-0.029236
-0.028515
-0.027539
-0.026297
-0.024780
-0.022991
-0.020948
-0.018685
-0.016257
-0.013739
-0.011223
-0.008818
-0.006640
-0.004810
-0.003435
-0.002604
-0.002373
-0.002758
-0.003730
-0.005223
-0.007142
-0.009379
-0.011836
-0.023209
-0.024140
-0.024928
-0.025588
-0.026144
-0.026617
-0.027030
-0.027401
-0.027749
-0.028089
-0.028430
-0.028783
-0.029154
-0.029545
-0.029960
-0.030396
-0.030850
-0.031317
-0.031789
-0.032253
-0.032696
-0.033100
-0.033444
-0.033703
-0.033850
-0.033854
-0.033683
-0.033305
-0.032687
-0.031793
-0.030589
-0.029057
-0.027190
-0.025001
-0.022519
-0.019797
-0.016911
-0.013963
-0.011076
-0.008386
-0.006040
-0.004176
-0.002914
-0.002340
-0.002490
-0.003351
-0.004856
-0.006898
-0.009355
-0.012110
-0.025308
-0.026267
-0.027079
-0.027759
-0.028332
-0.028819
-0.029245
-0.029631
-0.029996
-0.030357
-0.030726
-0.031115
-0.031531
-0.031979
-0.032461
-0.032978
-0.033526
-0.034101
-0.034695
-0.035295
-0.035887
-0.036453
-0.036968
-0.037405
-0.037734
-0.037919
-0.037921
-0.037702
-0.037220
-0.036438
-0.035307
-0.033791
-0.031876
-0.029563
-0.026874
-0.023858
-0.020592
-0.017183
-0.013765
-0.010498
-0.007554
-0.005107
-0.003316
-0.002301
-0.002131
-0.002812
-0.004283
-0.006429
-0.009109
-0.012183
-0.027568
-0.028560
-0.029397
-0.030098
-0.030685
-0.031183
-0.031616
-0.032010
-0.032385
-0.032760
-0.033150
-0.033568
-0.034023
-0.034522
-0.035069
-0.035664
-0.036306
-0.036991
-0.037710
-0.038453
-0.039204
-0.039942
-0.040643
-0.041277
-0.041809
-0.042198
-0.042401
-0.042370
-0.042058
-0.041417
-0.040394
-0.038931
-0.037000
-0.034591
-0.031717
-0.028418
-0.024768
-0.020876
-0.016888
-0.012982
-0.009360
-0.006234
-0.003804
-0.002239
-0.001648
-0.002066
-0.003444
-0.005663
-0.008562
-0.011977
-0.029995
-0.031023
-0.031890
-0.032611
-0.033210
-0.033712
-0.034145
-0.034537
-0.034911
-0.035288
-0.035688
-0.036124
-0.036608
-0.037149
-0.037753
-0.038421
-0.039153
-0.039946
-0.040792
-0.041680
-0.042595
-0.043515
-0.044413
-0.045257
-0.046009
-0.046623
-0.047050
-0.047234
-0.047120
-0.046650
-0.045769
-0.044394
-0.042484
-0.040013
-0.036982
-0.033419
-0.029391
-0.025007
-0.020419
-0.015821
-0.011445
-0.007541
-0.004361
-0.002125
-0.000996
-0.001050
-0.002261
-0.004511
-0.007618
-0.011393
-0.032592
-0.033666
-0.034566
-0.035308
-0.035914
-0.036412
-0.036834
-0.037209
-0.037567
-0.037931
-0.038323
-0.038762
-0.039261
-0.039831
-0.040480
-0.041211
-0.042025
-0.042920
-0.043890
-0.044922
-0.046001
-0.047105
-0.048207
-0.049271
-0.050254
-0.051109
-0.051778
-0.052199
-0.052306
-0.052029
-0.051322
-0.050072
-0.048219
-0.045723
-0.042566
-0.038766
-0.034377
-0.029502
-0.024296
-0.018965
-0.013767
-0.008991
-0.004944
-0.001908
-0.000111
0.000316
-0.000637
-0.002860
-0.006156
-0.010305
-0.035369
-0.036499
-0.037439
-0.038201
-0.038807
-0.039290
-0.039684
-0.040024
-0.040344
-0.040673
-0.041037
-0.041457
-0.041951
-0.042532
-0.043210
-0.043990
-0.044874
-0.045861
-0.046945
-0.048116
-0.049356
-0.050643
-0.051948
-0.053234
-0.054455
-0.055558
-0.056481
-0.057154
-0.057503
-0.057448
-0.056919
-0.055829
-0.054068
-0.051580
-0.048333
-0.044327
-0.039601
-0.034247
-0.028417
-0.022324
-0.016246
-0.010513
-0.005484
-0.001514
0.001093
0.002136
0.001552
-0.000572
-0.004026
-0.008560
-0.038337
-0.039540
-0.040527
-0.041307
-0.041905
-0.042356
-0.042700
-0.042979
-0.043233
-0.043498
-0.043805
-0.044180
-0.044644
-0.045213
-0.045898
-0.046708
-0.047646
-0.048711
-0.049897
-0.051195
-0.052587
-0.054050
-0.055553
-0.057058
-0.058516
-0.059868
-0.061048
-0.061980
-0.062579
-0.062757
-0.062426
-0.061512
-0.059867
-0.057418
-0.054114
-0.049933
-0.044898
-0.039085
-0.032636
-0.025765
-0.018764
-0.011997
-0.005878
-0.000836
0.002735
0.004545
0.004458
0.002525
-0.001045
-0.005967
-0.041514
-0.042811
-0.043855
-0.044651
-0.045227
-0.045622
-0.045886
-0.046069
-0.046221
-0.046385
-0.046600
-0.046896
-0.047299
-0.047828
-0.048496
-0.049313
-0.050283
-0.051407
-0.052680
-0.054089
-0.055620
-0.057247
-0.058938
-0.060652
-0.062337
-0.063931
-0.065363
-0.066550
-0.067398
-0.067811
-0.067683
-0.066953
-0.065439
-0.063048
-0.059711
-0.055384
-0.050068
-0.043820
-0.036764
-0.029109
-0.021154
-0.013288
-0.005977
0.000272
0.004967
0.007711
0.008272
0.006640
0.003015
-0.002294
-0.044928
-0.046348
-0.047461
-0.048268
-0.048800
-0.049107
-0.049249
-0.049292
-0.049295
-0.049313
-0.049391
-0.049568
-0.049873
-0.050328
-0.050950
-0.051747
-0.052727
-0.053889
-0.055227
-0.056731
-0.058383
-0.060156
-0.062019
-0.063925
-0.065823
-0.067644
-0.069314
-0.070741
-0.071828
-0.072465
-0.072534
-0.071977
-0.070595
-0.068271
-0.064914
-0.060459
-0.054883
-0.048220
-0.040573
-0.032136
-0.023205
-0.014186
-0.005590
0.002001
0.007988
0.011847
0.013228
0.012033
0.008426
0.002742
-0.048621
-0.050202
-0.051397
-0.052205
-0.052663
-0.052835
-0.052801
-0.052643
-0.052438
-0.052253
-0.052143
-0.052153
-0.052318
-0.052663
-0.053204
-0.053954
-0.054917
-0.056092
-0.057475
-0.059053
-0.060805
-0.062706
-0.064719
-0.066798
-0.068885
-0.070912
-0.072795
-0.074442
-0.075745
-0.076587
-0.076845
-0.076411
-0.075154
-0.072890
-0.069510
-0.064930
-0.059103
-0.052035
-0.043807
-0.034588
-0.024663
-0.014444
-0.004475
0.004590
0.012043
0.017218
0.019615
0.019017
0.015526
0.009485
-0.052655
-0.054448
-0.055740
-0.056529
-0.056865
-0.056839
-0.056554
-0.056118
-0.055630
-0.055172
-0.054813
-0.054603
-0.054581
-0.054775
-0.055202
-0.055873
-0.056793
-0.057960
-0.059365
-0.060994
-0.062826
-0.064832
-0.066972
-0.069198
-0.071449
-0.073651
-0.075719
-0.077552
-0.079037
-0.080052
-0.080461
-0.080127
-0.078957
-0.076722
-0.073297
-0.068576
-0.062486
-0.055009
-0.046196
-0.036187
-0.025245
-0.013776
-0.002347
0.008329
0.017433
0.024145
0.027786
0.027977
0.024724
0.018352
-0.057124
-0.059195
-0.060596
-0.061331
-0.061476
-0.061158
-0.060522
-0.059709
-0.058845
-0.058033
-0.057352
-0.056862
-0.056604
-0.056606
-0.056885
-0.057449
-0.058301
-0.059436
-0.060842
-0.062503
-0.064393
-0.066481
-0.068723
-0.071069
-0.073454
-0.075799
-0.078014
-0.079994
-0.081620
-0.082761
-0.083273
-0.083006
-0.081868
-0.079615
-0.076103
-0.071202
-0.064813
-0.056900
-0.047479
-0.036651
-0.024655
-0.011876
0.001114
0.013552
0.024515
0.033015
0.038166
0.039382
0.036522
0.029859
-0.062170
-0.064603
-0.066119
-0.066737
-0.066583
-0.065843
-0.064719
-0.063401
-0.062048
-0.060784
-0.059703
-0.058869
-0.058324
-0.058094
-0.058194
-0.058626
-0.059389
-0.060473
-0.061862
-0.063536
-0.065466
-0.067613
-0.069931
-0.072369
-0.074858
-0.077309
-0.079631
-0.081714
-0.083433
-0.084648
-0.085209
-0.084952
-0.083784
-0.081450
-0.077796
-0.072660
-0.065904
-0.057501
-0.047430
-0.035726
-0.022611
-0.008435
0.006242
0.020624
0.033691
0.044283
0.051273
0.053811
0.051545
0.044641
-0.068007
-0.070913
-0.072529
-0.072920
-0.072300
-0.070949
-0.069154
-0.067167
-0.065186
-0.063361
-0.061794
-0.060551
-0.059672
-0.059176
-0.059070
-0.059352
-0.060010
-0.061031
-0.062387
-0.064062
-0.066019
-0.068210
-0.070598
-0.073110
-0.075673
-0.078200
-0.080592
-0.082731
-0.084486
-0.085711
-0.086246
-0.085919
-0.084621
-0.082101
-0.078190
-0.072742
-0.065626
-0.056667
-0.045900
-0.033205
-0.018881
-0.003182
0.013349
0.029911
0.045399
0.058470
0.067723
0.071977
0.070578
0.063504
-0.074972
-0.078485
-0.080143
-0.080114
-0.078766
-0.076534
-0.073820
-0.070956
-0.068185
-0.065676
-0.063536
-0.061824
-0.060570
-0.059783
-0.059456
-0.059577
-0.060121
-0.061082
-0.062405
-0.064081
-0.066057
-0.068286
-0.070717
-0.073279
-0.075893
-0.078466
-0.080891
-0.083045
-0.084791
-0.085973
-0.086426
-0.085966
-0.084460
-0.081669
-0.077407
-0.071503
-0.063800
-0.054162
-0.042541
-0.028945
-0.013336
0.004067
0.022680
0.041741
0.060069
0.076146
0.088248
0.094771
0.094637
0.087501
-0.083604
-0.087876
-0.089419
-0.088625
-0.086141
-0.082635
-0.078672
-0.074674
-0.070927
-0.067608
-0.064812
-0.062582
-0.060927
-0.059838
-0.059287
-0.059258
-0.059706
-0.060602
-0.061904
-0.063576
-0.065568
-0.067827
-0.070291
-0.072888
-0.075531
-0.078122
-0.080548
-0.082680
-0.084373
-0.085465
-0.085782
-0.085136
-0.083343
-0.080209
-0.075514
-0.069070
-0.060698
-0.050246
-0.037608
-0.022734
-0.005640
0.013455
0.034329
0.056323
0.078060
0.097885
0.113691
0.123319
0.125073
0.118067
-0.094789
-0.099957
-0.101015
-0.098842
-0.094574
-0.089234
-0.083590
-0.078155
-0.073232
-0.068983
-0.065466
-0.062697
-0.060635
-0.059265
-0.058517
-0.058352
-0.058719
-0.059573
-0.060865
-0.062545
-0.064560
-0.066848
-0.069341
-0.071961
-0.074617
-0.077205
-0.079605
-0.081683
-0.083286
-0.084247
-0.084383
-0.083495
-0.081375
-0.077833
-0.072644
-0.065595
-0.056483
-0.045123
-0.031361
-0.015088
0.003734
0.025018
0.048501
0.073667
0.099540
0.124164
0.144971
0.159042
0.163744
0.157265
-0.110058
-0.116116
-0.115859
-0.111205
-0.104136
-0.096177
-0.088311
-0.081103
-0.074816
-0.069556
-0.065290
-0.062009
-0.059587
-0.057965
-0.057062
-0.056807
-0.057133
-0.057980
-0.059288
-0.060999
-0.063050
-0.065375
-0.067899
-0.070539
-0.073198
-0.075767
-0.078122
-0.080123
-0.081611
-0.082413
-0.082337
-0.081174
-0.078701
-0.074719
-0.069005
-0.061323
-0.051440
-0.039130
-0.024187
-0.006430
0.014275
0.037975
0.064569
0.093675
0.124382
0.155175
0.182956
0.203706
0.213292
0.208251
-0.132193
-0.138598
-0.135181
-0.126073
-0.114643
-0.103023
-0.092314
-0.083033
-0.075245
-0.068998
-0.064048
-0.060306
-0.057609
-0.055828
-0.054850
-0.054577
-0.054924
-0.055815
-0.057180
-0.058953
-0.061065
-0.063443
-0.066008
-0.068671
-0.071332
-0.073879
-0.076182
-0.078096
-0.079460
-0.080092
-0.079797
-0.078359
-0.075524
-0.071115
-0.064894
-0.056604
-0.045979
-0.032751
-0.016654
0.002581
0.025209
0.051450
0.081440
0.115110
0.151942
0.190546
0.228125
0.259340
0.277544
0.276149
-0.166567
-0.170992
-0.160352
-0.143347
-0.125284
-0.108785
-0.094646
-0.083192
-0.073978
-0.066824
-0.061369
-0.057351
-0.054537
-0.052741
-0.051811
-0.051623
-0.052075
-0.053079
-0.054557
-0.056436
-0.058641
-0.061098
-0.063723
-0.066424
-0.069099
-0.071631
-0.073890
-0.075727
-0.076978
-0.077458
-0.076966
-0.075283
-0.072125
-0.067353
-0.060702
-0.051894
-0.040635
-0.026615
-0.009502
0.011065
0.035482
0.064183
0.097624
0.136214
0.180114
0.228752
0.279824
0.327732
0.361963
0.369686
-0.224232
-0.218676
-0.192027
-0.161505
-0.133912
-0.111586
-0.093919
-0.080404
-0.070149
-0.062493
-0.056880
-0.052894
-0.050218
-0.048613
-0.047896
-0.047925
-0.048587
-0.049788
-0.051445
-0.053483
-0.055826
-0.058397
-0.061111
-0.063878
-0.066592
-0.069137
-0.071381
-0.073176
-0.074354
-0.074730
-0.074099
-0.072237
-0.068867
-0.063850
-0.056908
-0.047747
-0.036050
-0.021469
-0.003615
0.017965
0.043809
0.074580
0.111109
0.154426
0.205711
0.265983
0.335047
0.408703
0.473605
0.504240
-0.329176
-0.287689
-0.227171
-0.175595
-0.136392
-0.108089
-0.087787
-0.073266
-0.062868
-0.055463
-0.050274
-0.046765
-0.044565
-0.043408
-0.043100
-0.043498
-0.044487
-0.045978
-0.047888
-0.050146
-0.052677
-0.055407
-0.058254
-0.061128
-0.063926
-0.066533
-0.068818
-0.070633
-0.071813
-0.072172
-0.071505
-0.069583
-0.066165
-0.061081
-0.054052
-0.044775
-0.032921
-0.018115
0.000075
0.022167
0.048816
0.080885
0.119558
0.166521
0.224194
0.295950
0.385875
0.496338
0.618306
0.707735
-0.533238
-0.375186
-0.252059
-0.173416
-0.124581
-0.093793
-0.073812
-0.060521
-0.051545
-0.045480
-0.041469
-0.038969
-0.037622
-0.037186
-0.037489
-0.038405
-0.039837
-0.041706
-0.043944
-0.046483
-0.049260
-0.052204
-0.055240
-0.058280
-0.061227
-0.063969
-0.066379
-0.068312
-0.069606
-0.070079
-0.069527
-0.067712
-0.064458
-0.059534
-0.052673
-0.043575
-0.031908
-0.017290
0.000723
0.022681
0.049288
0.081508
0.120738
0.169124
0.230155
0.309736
0.418008
0.571310
0.787110
1.032734
-0.934319
-0.424441
-0.222278
-0.133592
-0.089536
-0.065320
-0.050976
-0.042059
-0.036397
-0.032846
-0.030763
-0.029763
-0.029602
-0.030117
-0.031196
-0.032753
-0.034722
-0.037047
-0.039676
-0.042559
-0.045640
-0.048861
-0.052151
-0.055433
-0.058615
-0.061591
-0.064238
-0.066419
-0.067973
-0.068724
-0.068470
-0.067005
-0.064130
-0.059617
-0.053208
-0.044613
-0.033509
-0.019528
-0.002244
0.018865
0.044464
0.075455
0.113158
0.159659
0.218587
0.296945
0.409690
0.590853
0.916800
1.549860
