# vtk DataFile Version 3.0
Vector Field
ASCII
DATASET RECTILINEAR_GRID
DIMENSIONS 50 50 1
X_COORDINATES 50 double
0.100000 0.300000 0.500000 0.700000 0.900000 1.100000 1.300000 1.500000 1.700000 1.900000 2.100000 2.300000 2.500000 2.700000 2.900000 3.100000 3.300000 3.500000 3.700000 3.900000 4.100000 4.300000 4.500000 4.700000 4.900000 5.100000 5.300000 5.500000 5.700000 5.900000 6.100000 6.300000 6.500000 6.700000 6.900000 7.100000 7.300000 7.500000 7.700000 7.900000 8.100000 8.300000 8.500000 8.700000 8.900000 9.100000 9.300000 9.500000 9.700000 9.900000 
Y_COORDINATES 50 double
0.100000 0.300000 0.500000 0.700000 0.900000 1.100000 1.300000 1.500000 1.700000 1.900000 2.100000 2.300000 2.500000 2.700000 2.900000 3.100000 3.300000 3.500000 3.700000 3.900000 4.100000 4.300000 4.500000 4.700000 4.900000 5.100000 5.300000 5.500000 5.700000 5.900000 6.100000 6.300000 6.500000 6.700000 6.900000 7.100000 7.300000 7.500000 7.700000 7.900000 8.100000 8.300000 8.500000 8.700000 8.900000 9.100000 9.300000 9.500000 9.700000 9.900000 
Z_COORDINATES 1 double
0.0
POINT_DATA 2500
VECTORS Vektorfeld double
0.000014 -0.000014 0.0
0.000025 0.000004 0.0
-0.000013 0.000034 0.0
-0.000112 0.000064 0.0
-0.000265 0.000089 0.0
-0.000463 0.000108 0.0
-0.000693 0.000122 0.0
-0.000946 0.000131 0.0
-0.001212 0.000136 0.0
-0.001485 0.000137 0.0
-0.001758 0.000136 0.0
-0.002028 0.000133 0.0
-0.002290 0.000129 0.0
-0.002543 0.000123 0.0
-0.002783 0.000117 0.0
-0.003009 0.000109 0.0
-0.003220 0.000101 0.0
-0.003414 0.000093 0.0
-0.003590 0.000083 0.0
-0.003747 0.000074 0.0
-0.003884 0.000063 0.0
-0.004000 0.000053 0.0
-0.004094 0.000041 0.0
-0.004165 0.000030 0.0
-0.004212 0.000018 0.0
-0.004235 0.000005 0.0
-0.004233 -0.000008 0.0
-0.004205 -0.000021 0.0
-0.004150 -0.000034 0.0
-0.004070 -0.000047 0.0
-0.003963 -0.000060 0.0
-0.003830 -0.000073 0.0
-0.003671 -0.000086 0.0
-0.003487 -0.000098 0.0
-0.003279 -0.000110 0.0
-0.003048 -0.000121 0.0
-0.002796 -0.000131 0.0
-0.002525 -0.000139 0.0
-0.002240 -0.000146 0.0
-0.001943 -0.000151 0.0
-0.001639 -0.000153 0.0
-0.001336 -0.000151 0.0
-0.001040 -0.000145 0.0
-0.000759 -0.000135 0.0
-0.000505 -0.000119 0.0
-0.000288 -0.000097 0.0
-0.000121 -0.000070 0.0
-0.000014 -0.000037 0.0
0.000026 -0.000004 0.0
0.000015 0.000015 0.0
-0.000004 -0.000025 0.0
-0.000061 0.000062 0.0
-0.000236 0.000189 0.0
-0.000542 0.000314 0.0
-0.000971 0.000421 0.0
-0.001502 0.000505 0.0
-0.002113 0.000566 0.0
-0.002780 0.000606 0.0
-0.003482 0.000629 0.0
-0.004202 0.000637 0.0
-0.004926 0.000633 0.0
-0.005640 0.000621 0.0
-0.006337 0.000601 0.0
-0.007007 0.000575 0.0
-0.007646 0.000544 0.0
-0.008248 0.000510 0.0
-0.008808 0.000472 0.0
-0.009323 0.000431 0.0
-0.009789 0.000388 0.0
-0.010204 0.000342 0.0
-0.010565 0.000293 0.0
-0.010869 0.000243 0.0
-0.011113 0.000190 0.0
-0.011296 0.000135 0.0
-0.011415 0.000079 0.0
-0.011469 0.000021 0.0
-0.011457 -0.000038 0.0
-0.011376 -0.000099 0.0
-0.011226 -0.000160 0.0
-0.011006 -0.000221 0.0
-0.010718 -0.000282 0.0
-0.010361 -0.000342 0.0
-0.009936 -0.000401 0.0
-0.009446 -0.000458 0.0
-0.008893 -0.000512 0.0
-0.008282 -0.000562 0.0
-0.007617 -0.000607 0.0
-0.006905 -0.000645 0.0
-0.006155 -0.000676 0.0
-0.005378 -0.000696 0.0
-0.004585 -0.000703 0.0
-0.003794 -0.000695 0.0
-0.003021 -0.000670 0.0
-0.002289 -0.000623 0.0
-0.001621 -0.000553 0.0
-0.001043 -0.000458 0.0
-0.000580 -0.000339 0.0
-0.000251 -0.000202 0.0
-0.000065 -0.000065 0.0
-0.000004 0.000027 0.0
-0.000034 0.000013 0.0
-0.000189 0.000237 0.0
-0.000524 0.000523 0.0
-0.001041 0.000803 0.0
-0.001724 0.001045 0.0
-0.002548 0.001237 0.0
-0.003481 0.001378 0.0
-0.004494 0.001473 0.0
-0.005558 0.001528 0.0
-0.006648 0.001548 0.0
-0.007743 0.001540 0.0
-0.008825 0.001510 0.0
-0.009880 0.001462 0.0
-0.010896 0.001400 0.0
-0.011863 0.001325 0.0
-0.012774 0.001241 0.0
-0.013622 0.001148 0.0
-0.014401 0.001048 0.0
-0.015105 0.000941 0.0
-0.015731 0.000828 0.0
-0.016273 0.000710 0.0
-0.016729 0.000585 0.0
-0.017094 0.000456 0.0
-0.017365 0.000323 0.0
-0.017539 0.000185 0.0
-0.017615 0.000044 0.0
-0.017588 -0.000100 0.0
-0.017459 -0.000247 0.0
-0.017226 -0.000395 0.0
-0.016888 -0.000543 0.0
-0.016446 -0.000690 0.0
-0.015901 -0.000836 0.0
-0.015255 -0.000978 0.0
-0.014511 -0.001115 0.0
-0.013674 -0.001244 0.0
-0.012750 -0.001364 0.0
-0.011747 -0.001472 0.0
-0.010676 -0.001564 0.0
-0.009548 -0.001635 0.0
-0.008380 -0.001682 0.0
-0.007191 -0.001699 0.0
-0.006003 -0.001680 0.0
-0.004843 -0.001618 0.0
-0.003740 -0.001509 0.0
-0.002727 -0.001348 0.0
-0.001837 -0.001131 0.0
-0.001104 -0.000863 0.0
-0.000553 -0.000558 0.0
-0.000198 -0.000250 0.0
-0.000036 -0.000013 0.0
-0.000065 0.000112 0.0
-0.000318 0.000547 0.0
-0.000813 0.001044 0.0
-0.001533 0.001519 0.0
-0.002450 0.001930 0.0
-0.003533 0.002259 0.0
-0.004746 0.002503 0.0
-0.006053 0.002668 0.0
-0.007420 0.002764 0.0
-0.008818 0.002800 0.0
-0.010221 0.002786 0.0
-0.011607 0.002733 0.0
-0.012958 0.002646 0.0
-0.014259 0.002533 0.0
-0.015497 0.002398 0.0
-0.016663 0.002245 0.0
-0.017747 0.002076 0.0
-0.018742 0.001894 0.0
-0.019642 0.001699 0.0
-0.020439 0.001494 0.0
-0.021129 0.001277 0.0
-0.021708 0.001051 0.0
-0.022169 0.000817 0.0
-0.022510 0.000574 0.0
-0.022727 0.000324 0.0
-0.022816 0.000069 0.0
-0.022776 -0.000192 0.0
-0.022604 -0.000456 0.0
-0.022299 -0.000723 0.0
-0.021861 -0.000990 0.0
-0.021290 -0.001255 0.0
-0.020588 -0.001517 0.0
-0.019758 -0.001772 0.0
-0.018805 -0.002018 0.0
-0.017734 -0.002250 0.0
-0.016553 -0.002464 0.0
-0.015273 -0.002656 0.0
-0.013906 -0.002818 0.0
-0.012469 -0.002945 0.0
-0.010982 -0.003027 0.0
-0.009468 -0.003057 0.0
-0.007954 -0.003023 0.0
-0.006473 -0.002917 0.0
-0.005059 -0.002728 0.0
-0.003752 -0.002450 0.0
-0.002590 -0.002080 0.0
-0.001612 -0.001626 0.0
-0.000851 -0.001108 0.0
-0.000331 -0.000575 0.0
-0.000067 -0.000115 0.0
-0.000092 0.000268 0.0
-0.000434 0.000986 0.0
-0.001076 0.001742 0.0
-0.001982 0.002446 0.0
-0.003111 0.003050 0.0
-0.004425 0.003535 0.0
-0.005881 0.003896 0.0
-0.007440 0.004141 0.0
-0.009065 0.004283 0.0
-0.010722 0.004336 0.0
-0.012382 0.004314 0.0
-0.014021 0.004230 0.0
-0.015618 0.004096 0.0
-0.017154 0.003921 0.0
-0.018617 0.003711 0.0
-0.019993 0.003474 0.0
-0.021272 0.003211 0.0
-0.022445 0.002928 0.0
-0.023504 0.002625 0.0
-0.024443 0.002304 0.0
-0.025254 0.001968 0.0
-0.025932 0.001617 0.0
-0.026472 0.001253 0.0
-0.026869 0.000876 0.0
-0.027119 0.000489 0.0
-0.027218 0.000093 0.0
-0.027165 -0.000310 0.0
-0.026956 -0.000719 0.0
-0.026590 -0.001131 0.0
-0.026068 -0.001543 0.0
-0.025390 -0.001952 0.0
-0.024558 -0.002354 0.0
-0.023576 -0.002747 0.0
-0.022449 -0.003124 0.0
-0.021184 -0.003480 0.0
-0.019791 -0.003808 0.0
-0.018281 -0.004101 0.0
-0.016671 -0.004349 0.0
-0.014979 -0.004543 0.0
-0.013227 -0.004669 0.0
-0.011442 -0.004714 0.0
-0.009656 -0.004665 0.0
-0.007905 -0.004507 0.0
-0.006227 -0.004228 0.0
-0.004666 -0.003818 0.0
-0.003265 -0.003274 0.0
-0.002069 -0.002606 0.0
-0.001118 -0.001840 0.0
-0.000448 -0.001032 0.0
-0.000094 -0.000276 0.0
-0.000114 0.000473 0.0
-0.000533 0.001542 0.0
-0.001305 0.002600 0.0
-0.002375 0.003563 0.0
-0.003693 0.004381 0.0
-0.005210 0.005035 0.0
-0.006880 0.005522 0.0
-0.008658 0.005852 0.0
-0.010504 0.006042 0.0
-0.012381 0.006111 0.0
-0.014259 0.006077 0.0
-0.016111 0.005957 0.0
-0.017913 0.005767 0.0
-0.019647 0.005520 0.0
-0.021296 0.005224 0.0
-0.022847 0.004888 0.0
-0.024288 0.004517 0.0
-0.025609 0.004116 0.0
-0.026801 0.003688 0.0
-0.027856 0.003235 0.0
-0.028767 0.002760 0.0
-0.029528 0.002264 0.0
-0.030133 0.001750 0.0
-0.030576 0.001219 0.0
-0.030854 0.000674 0.0
-0.030962 0.000116 0.0
-0.030897 -0.000452 0.0
-0.030657 -0.001026 0.0
-0.030242 -0.001605 0.0
-0.029650 -0.002183 0.0
-0.028882 -0.002757 0.0
-0.027942 -0.003321 0.0
-0.026833 -0.003871 0.0
-0.025562 -0.004398 0.0
-0.024135 -0.004896 0.0
-0.022565 -0.005355 0.0
-0.020864 -0.005764 0.0
-0.019050 -0.006111 0.0
-0.017142 -0.006381 0.0
-0.015167 -0.006558 0.0
-0.013154 -0.006624 0.0
-0.011136 -0.006560 0.0
-0.009152 -0.006348 0.0
-0.007246 -0.005971 0.0
-0.005463 -0.005418 0.0
-0.003852 -0.004685 0.0
-0.002463 -0.003781 0.0
-0.001345 -0.002735 0.0
-0.000545 -0.001606 0.0
-0.000116 -0.000486 0.0
-0.000132 0.000719 0.0
-0.000615 0.002198 0.0
-0.001498 0.003600 0.0
-0.002713 0.004848 0.0
-0.004197 0.005898 0.0
-0.005895 0.006732 0.0
-0.007752 0.007351 0.0
-0.009721 0.007770 0.0
-0.011759 0.008009 0.0
-0.013827 0.008091 0.0
-0.015892 0.008040 0.0
-0.017925 0.007879 0.0
-0.019903 0.007626 0.0
-0.021804 0.007296 0.0
-0.023611 0.006904 0.0
-0.025310 0.006458 0.0
-0.026887 0.005966 0.0
-0.028333 0.005434 0.0
-0.029638 0.004866 0.0
-0.030792 0.004266 0.0
-0.031788 0.003636 0.0
-0.032619 0.002980 0.0
-0.033279 0.002299 0.0
-0.033763 0.001597 0.0
-0.034065 0.000876 0.0
-0.034182 0.000138 0.0
-0.034109 -0.000611 0.0
-0.033845 -0.001370 0.0
-0.033389 -0.002133 0.0
-0.032739 -0.002896 0.0
-0.031898 -0.003652 0.0
-0.030868 -0.004396 0.0
-0.029652 -0.005120 0.0
-0.028259 -0.005814 0.0
-0.026696 -0.006469 0.0
-0.024975 -0.007073 0.0
-0.023111 -0.007611 0.0
-0.021122 -0.008068 0.0
-0.019029 -0.008424 0.0
-0.016861 -0.008658 0.0
-0.014649 -0.008749 0.0
-0.012428 -0.008673 0.0
-0.010240 -0.008406 0.0
-0.008132 -0.007928 0.0
-0.006153 -0.007223 0.0
-0.004357 -0.006287 0.0
-0.002798 -0.005126 0.0
-0.001534 -0.003772 0.0
-0.000625 -0.002278 0.0
-0.000133 -0.000735 0.0
-0.000147 0.000998 0.0
-0.000683 0.002938 0.0
-0.001662 0.004722 0.0
-0.003002 0.006282 0.0
-0.004633 0.007580 0.0
-0.006490 0.008604 0.0
-0.008513 0.009361 0.0
-0.010652 0.009869 0.0
-0.012860 0.010155 0.0
-0.015096 0.010248 0.0
-0.017325 0.010177 0.0
-0.019517 0.009968 0.0
-0.021647 0.009644 0.0
-0.023693 0.009225 0.0
-0.025637 0.008727 0.0
-0.027464 0.008161 0.0
-0.029161 0.007537 0.0
-0.030715 0.006863 0.0
-0.032117 0.006143 0.0
-0.033358 0.005383 0.0
-0.034429 0.004586 0.0
-0.035323 0.003755 0.0
-0.036033 0.002894 0.0
-0.036554 0.002006 0.0
-0.036880 0.001094 0.0
-0.037006 0.000163 0.0
-0.036930 -0.000784 0.0
-0.036648 -0.001743 0.0
-0.036160 -0.002706 0.0
-0.035463 -0.003669 0.0
-0.034561 -0.004623 0.0
-0.033454 -0.005562 0.0
-0.032149 -0.006475 0.0
-0.030651 -0.007351 0.0
-0.028970 -0.008177 0.0
-0.027118 -0.008938 0.0
-0.025110 -0.009618 0.0
-0.022967 -0.010194 0.0
-0.020711 -0.010645 0.0
-0.018370 -0.010945 0.0
-0.015979 -0.011066 0.0
-0.013575 -0.010980 0.0
-0.011204 -0.010658 0.0
-0.008913 -0.010075 0.0
-0.006757 -0.009211 0.0
-0.004794 -0.008059 0.0
-0.003085 -0.006623 0.0
-0.001694 -0.004930 0.0
-0.000690 -0.003034 0.0
-0.000147 -0.001014 0.0
-0.000159 0.001303 0.0
-0.000740 0.003750 0.0
-0.001802 0.005950 0.0
-0.003253 0.007845 0.0
-0.005014 0.009408 0.0
-0.007013 0.010632 0.0
-0.009187 0.011531 0.0
-0.011480 0.012130 0.0
-0.013841 0.012463 0.0
-0.016228 0.012564 0.0
-0.018605 0.012467 0.0
-0.020940 0.012204 0.0
-0.023206 0.011804 0.0
-0.025382 0.011288 0.0
-0.027449 0.010675 0.0
-0.029391 0.009981 0.0
-0.031194 0.009216 0.0
-0.032846 0.008390 0.0
-0.034336 0.007508 0.0
-0.035656 0.006578 0.0
-0.036795 0.005602 0.0
-0.037748 0.004586 0.0
-0.038506 0.003532 0.0
-0.039063 0.002446 0.0
-0.039414 0.001331 0.0
-0.039554 0.000192 0.0
-0.039478 -0.000966 0.0
-0.039185 -0.002137 0.0
-0.038672 -0.003314 0.0
-0.037938 -0.004491 0.0
-0.036984 -0.005658 0.0
-0.035813 -0.006805 0.0
-0.034429 -0.007921 0.0
-0.032840 -0.008992 0.0
-0.031054 -0.010003 0.0
-0.029084 -0.010935 0.0
-0.026946 -0.011766 0.0
-0.024661 -0.012474 0.0
-0.022254 -0.013029 0.0
-0.019754 -0.013402 0.0
-0.017197 -0.013559 0.0
-0.014623 -0.013465 0.0
-0.012080 -0.013088 0.0
-0.009619 -0.012396 0.0
-0.007299 -0.011366 0.0
-0.005182 -0.009984 0.0
-0.003336 -0.008253 0.0
-0.001831 -0.006195 0.0
-0.000745 -0.003859 0.0
-0.000158 -0.001319 0.0
-0.000169 0.001631 0.0
-0.000791 0.004625 0.0
-0.001925 0.007272 0.0
-0.003475 0.009526 0.0
-0.005355 0.011368 0.0
-0.007485 0.012801 0.0
-0.009798 0.013848 0.0
-0.012232 0.014540 0.0
-0.014736 0.014918 0.0
-0.017264 0.015024 0.0
-0.019777 0.014897 0.0
-0.022244 0.014576 0.0
-0.024638 0.014092 0.0
-0.026934 0.013472 0.0
-0.029115 0.012739 0.0
-0.031164 0.011908 0.0
-0.033066 0.010994 0.0
-0.034810 0.010007 0.0
-0.036384 0.008955 0.0
-0.037778 0.007845 0.0
-0.038984 0.006681 0.0
-0.039994 0.005469 0.0
-0.040799 0.004213 0.0
-0.041395 0.002918 0.0
-0.041773 0.001589 0.0
-0.041930 0.000231 0.0
-0.041861 -0.001149 0.0
-0.041562 -0.002545 0.0
-0.041031 -0.003950 0.0
-0.040267 -0.005353 0.0
-0.039271 -0.006746 0.0
-0.038044 -0.008115 0.0
-0.036591 -0.009448 0.0
-0.034918 -0.010728 0.0
-0.033036 -0.011936 0.0
-0.030956 -0.013051 0.0
-0.028696 -0.014047 0.0
-0.026277 -0.014897 0.0
-0.023725 -0.015566 0.0
-0.021072 -0.016019 0.0
-0.018354 -0.016217 0.0
-0.015615 -0.016120 0.0
-0.012905 -0.015687 0.0
-0.010280 -0.014883 0.0
-0.007802 -0.013677 0.0
-0.005539 -0.012052 0.0
-0.003564 -0.010006 0.0
-0.001955 -0.007556 0.0
-0.000794 -0.004746 0.0
-0.000168 -0.001646 0.0
-0.000179 0.001980 0.0
-0.000836 0.005554 0.0
-0.002037 0.008677 0.0
-0.003680 0.011313 0.0
-0.005670 0.013450 0.0
-0.007924 0.015103 0.0
-0.010368 0.016302 0.0
-0.012938 0.017089 0.0
-0.015578 0.017512 0.0
-0.018240 0.017620 0.0
-0.020885 0.017460 0.0
-0.023479 0.017075 0.0
-0.025995 0.016502 0.0
-0.028407 0.015772 0.0
-0.030698 0.014910 0.0
-0.032850 0.013937 0.0
-0.034849 0.012866 0.0
-0.036682 0.011711 0.0
-0.038338 0.010481 0.0
-0.039807 0.009182 0.0
-0.041079 0.007822 0.0
-0.042147 0.006405 0.0
-0.043003 0.004938 0.0
-0.043640 0.003425 0.0
-0.044050 0.001872 0.0
-0.044229 0.000285 0.0
-0.044172 -0.001329 0.0
-0.043874 -0.002962 0.0
-0.043332 -0.004605 0.0
-0.042545 -0.006248 0.0
-0.041513 -0.007879 0.0
-0.040236 -0.009485 0.0
-0.038720 -0.011048 0.0
-0.036970 -0.012550 0.0
-0.034996 -0.013970 0.0
-0.032810 -0.015282 0.0
-0.030431 -0.016456 0.0
-0.027880 -0.017458 0.0
-0.025184 -0.018252 0.0
-0.022377 -0.018794 0.0
-0.019498 -0.019039 0.0
-0.016593 -0.018941 0.0
-0.013716 -0.018453 0.0
-0.010926 -0.017532 0.0
-0.008291 -0.016141 0.0
-0.005884 -0.014258 0.0
-0.003783 -0.011875 0.0
-0.002073 -0.009006 0.0
-0.000841 -0.005689 0.0
-0.000178 -0.001992 0.0
-0.000188 0.002347 0.0
-0.000879 0.006536 0.0
-0.002145 0.010163 0.0
-0.003876 0.013201 0.0
-0.005973 0.015649 0.0
-0.008347 0.017532 0.0
-0.010920 0.018890 0.0
-0.013623 0.019774 0.0
-0.016397 0.020241 0.0
-0.019192 0.020349 0.0
-0.021968 0.020151 0.0
-0.024688 0.019698 0.0
-0.027324 0.019030 0.0
-0.029853 0.018185 0.0
-0.032253 0.017189 0.0
-0.034508 0.016066 0.0
-0.036604 0.014832 0.0
-0.038527 0.013502 0.0
-0.040267 0.012086 0.0
-0.041812 0.010592 0.0
-0.043155 0.009027 0.0
-0.044285 0.007398 0.0
-0.045195 0.005711 0.0
-0.045877 0.003971 0.0
-0.046325 0.002184 0.0
-0.046532 0.000358 0.0
-0.046492 -0.001500 0.0
-0.046201 -0.003381 0.0
-0.045655 -0.005275 0.0
-0.044851 -0.007170 0.0
-0.043788 -0.009053 0.0
-0.042468 -0.010908 0.0
-0.040892 -0.012716 0.0
-0.039068 -0.014456 0.0
-0.037004 -0.016102 0.0
-0.034714 -0.017625 0.0
-0.032214 -0.018991 0.0
-0.029529 -0.020160 0.0
-0.026685 -0.021089 0.0
-0.023720 -0.021729 0.0
-0.020673 -0.022029 0.0
-0.017596 -0.021933 0.0
-0.014545 -0.021389 0.0
-0.011586 -0.020345 0.0
-0.008789 -0.018760 0.0
-0.006233 -0.016603 0.0
-0.004004 -0.013861 0.0
-0.002191 -0.010544 0.0
-0.000887 -0.006687 0.0
-0.000187 -0.002356 0.0
-0.000197 0.002732 0.0
-0.000923 0.007568 0.0
-0.002252 0.011726 0.0
-0.004072 0.015188 0.0
-0.006276 0.017964 0.0
-0.008772 0.020087 0.0
-0.011474 0.021610 0.0
-0.014311 0.022594 0.0
-0.017221 0.023105 0.0
-0.020152 0.023211 0.0
-0.023060 0.022972 0.0
-0.025908 0.022445 0.0
-0.028668 0.021679 0.0
-0.031315 0.020711 0.0
-0.033827 0.019575 0.0
-0.036189 0.018296 0.0
-0.038385 0.016893 0.0
-0.040402 0.015382 0.0
-0.042229 0.013773 0.0
-0.043856 0.012077 0.0
-0.045272 0.010301 0.0
-0.046470 0.008452 0.0
-0.047440 0.006537 0.0
-0.048174 0.004561 0.0
-0.048665 0.002533 0.0
-0.048907 0.000458 0.0
-0.048891 -0.001655 0.0
-0.048614 -0.003795 0.0
-0.048069 -0.005952 0.0
-0.047254 -0.008112 0.0
-0.046167 -0.010261 0.0
-0.044806 -0.012381 0.0
-0.043175 -0.014450 0.0
-0.041278 -0.016443 0.0
-0.039125 -0.018332 0.0
-0.036727 -0.020083 0.0
-0.034103 -0.021656 0.0
-0.031277 -0.023007 0.0
-0.028279 -0.024084 0.0
-0.025145 -0.024834 0.0
-0.021921 -0.025195 0.0
-0.018661 -0.025105 0.0
-0.015425 -0.024504 0.0
-0.012283 -0.023332 0.0
-0.009314 -0.021540 0.0
-0.006601 -0.019091 0.0
-0.004237 -0.015966 0.0
-0.002315 -0.012173 0.0
-0.000935 -0.007742 0.0
-0.000197 -0.002740 0.0
-0.000206 0.003135 0.0
-0.000968 0.008651 0.0
-0.002364 0.013368 0.0
-0.004275 0.017276 0.0
-0.006590 0.020395 0.0
-0.009210 0.022771 0.0
-0.012047 0.024466 0.0
-0.015023 0.025552 0.0
-0.018074 0.026108 0.0
-0.021145 0.026209 0.0
-0.024190 0.025926 0.0
-0.027173 0.025322 0.0
-0.030061 0.024450 0.0
-0.032831 0.023356 0.0
-0.035461 0.022074 0.0
-0.037935 0.020632 0.0
-0.040236 0.019054 0.0
-0.042352 0.017355 0.0
-0.044273 0.015547 0.0
-0.045986 0.013643 0.0
-0.047483 0.011649 0.0
-0.048754 0.009573 0.0
-0.049791 0.007422 0.0
-0.050584 0.005204 0.0
-0.051126 0.002924 0.0
-0.051409 0.000591 0.0
-0.051426 -0.001786 0.0
-0.051169 -0.004197 0.0
-0.050634 -0.006629 0.0
-0.049814 -0.009069 0.0
-0.048706 -0.011499 0.0
-0.047310 -0.013900 0.0
-0.045625 -0.016247 0.0
-0.043656 -0.018512 0.0
-0.041411 -0.020662 0.0
-0.038903 -0.022659 0.0
-0.036149 -0.024458 0.0
-0.033174 -0.026006 0.0
-0.030009 -0.027248 0.0
-0.026695 -0.028118 0.0
-0.023279 -0.028549 0.0
-0.019819 -0.028471 0.0
-0.016382 -0.027811 0.0
-0.013042 -0.026505 0.0
-0.009885 -0.024493 0.0
-0.007002 -0.021733 0.0
-0.004489 -0.018201 0.0
-0.002450 -0.013899 0.0
-0.000988 -0.008858 0.0
-0.000207 -0.003144 0.0
-0.000217 0.003558 0.0
-0.001016 0.009789 0.0
-0.002482 0.015093 0.0
-0.004490 0.019470 0.0
-0.006922 0.022950 0.0
-0.009674 0.025589 0.0
-0.012652 0.027462 0.0
-0.015776 0.028655 0.0
-0.018976 0.029256 0.0
-0.022195 0.029351 0.0
-0.025386 0.029020 0.0
-0.028509 0.028334 0.0
-0.031534 0.027352 0.0
-0.034434 0.026124 0.0
-0.037189 0.024690 0.0
-0.039780 0.023081 0.0
-0.042194 0.021320 0.0
-0.044417 0.019427 0.0
-0.046437 0.017415 0.0
-0.048244 0.015296 0.0
-0.049829 0.013077 0.0
-0.051181 0.010768 0.0
-0.052292 0.008375 0.0
-0.053153 0.005905 0.0
-0.053754 0.003366 0.0
-0.054087 0.000765 0.0
-0.054144 -0.001887 0.0
-0.053916 -0.004581 0.0
-0.053396 -0.007302 0.0
-0.052578 -0.010035 0.0
-0.051456 -0.012762 0.0
-0.050028 -0.015461 0.0
-0.048293 -0.018105 0.0
-0.046252 -0.020662 0.0
-0.043914 -0.023095 0.0
-0.041290 -0.025359 0.0
-0.038398 -0.027404 0.0
-0.035264 -0.029170 0.0
-0.031920 -0.030593 0.0
-0.028408 -0.031599 0.0
-0.024782 -0.032111 0.0
-0.021103 -0.032048 0.0
-0.017443 -0.031331 0.0
-0.013885 -0.029883 0.0
-0.010519 -0.027638 0.0
-0.007446 -0.024545 0.0
-0.004770 -0.020577 0.0
-0.002601 -0.015731 0.0
-0.001048 -0.010040 0.0
-0.000220 -0.003571 0.0
-0.000228 0.004003 0.0
-0.001068 0.010984 0.0
-0.002610 0.016907 0.0
-0.004722 0.021776 0.0
-0.007281 0.025634 0.0
-0.010174 0.028550 0.0
-0.013304 0.030610 0.0
-0.016585 0.031912 0.0
-0.019944 0.032558 0.0
-0.023321 0.032645 0.0
-0.026666 0.032263 0.0
-0.029940 0.031489 0.0
-0.033110 0.030391 0.0
-0.036149 0.029024 0.0
-0.039036 0.027432 0.0
-0.041754 0.025649 0.0
-0.044288 0.023700 0.0
-0.046625 0.021607 0.0
-0.048753 0.019384 0.0
-0.050662 0.017044 0.0
-0.052343 0.014595 0.0
-0.053785 0.012045 0.0
-0.054979 0.009403 0.0
-0.055915 0.006674 0.0
-0.056585 0.003867 0.0
-0.056977 0.000989 0.0
-0.057083 -0.001949 0.0
-0.056893 -0.004937 0.0
-0.056398 -0.007960 0.0
-0.055590 -0.011003 0.0
-0.054461 -0.014045 0.0
-0.053006 -0.017062 0.0
-0.051223 -0.020023 0.0
-0.049113 -0.022895 0.0
-0.046680 -0.025633 0.0
-0.043935 -0.028189 0.0
-0.040897 -0.030504 0.0
-0.037590 -0.032511 0.0
-0.034051 -0.034135 0.0
-0.030324 -0.035295 0.0
-0.026465 -0.035900 0.0
-0.022542 -0.035861 0.0
-0.018634 -0.035086 0.0
-0.014831 -0.033489 0.0
-0.011233 -0.030995 0.0
-0.007947 -0.027547 0.0
-0.005087 -0.023111 0.0
-0.002771 -0.017683 0.0
-0.001115 -0.011297 0.0
-0.000233 -0.004024 0.0
-0.000240 0.004470 0.0
-0.001125 0.012243 0.0
-0.002751 0.018816 0.0
-0.004977 0.024204 0.0
-0.007672 0.028460 0.0
-0.010719 0.031664 0.0
-0.014012 0.033918 0.0
-0.017462 0.035334 0.0
-0.020992 0.036026 0.0
-0.024539 0.036102 0.0
-0.028050 0.035663 0.0
-0.031485 0.034797 0.0
-0.034810 0.033577 0.0
-0.037998 0.032065 0.0
-0.041027 0.030308 0.0
-0.043880 0.028344 0.0
-0.046543 0.026201 0.0
-0.049002 0.023902 0.0
-0.051246 0.021462 0.0
-0.053266 0.018895 0.0
-0.055051 0.016209 0.0
-0.056592 0.013413 0.0
-0.057878 0.010515 0.0
-0.058900 0.007520 0.0
-0.059648 0.004437 0.0
-0.060110 0.001274 0.0
-0.060276 -0.001961 0.0
-0.060134 -0.005256 0.0
-0.059674 -0.008596 0.0
-0.058885 -0.011965 0.0
-0.057757 -0.015340 0.0
-0.056284 -0.018695 0.0
-0.054458 -0.021998 0.0
-0.052279 -0.025209 0.0
-0.049750 -0.028281 0.0
-0.046881 -0.031156 0.0
-0.043688 -0.033769 0.0
-0.040197 -0.036043 0.0
-0.036445 -0.037894 0.0
-0.032481 -0.039227 0.0
-0.028364 -0.039943 0.0
-0.024170 -0.039936 0.0
-0.019984 -0.039105 0.0
-0.015905 -0.037351 0.0
-0.012044 -0.034592 0.0
-0.008517 -0.030763 0.0
-0.005448 -0.025824 0.0
-0.002965 -0.019771 0.0
-0.001191 -0.012639 0.0
-0.000249 -0.004506 0.0
-0.000253 0.004963 0.0
-0.001189 0.013571 0.0
-0.002906 0.020831 0.0
-0.005256 0.026766 0.0
-0.008101 0.031439 0.0
-0.011315 0.034946 0.0
-0.014786 0.037402 0.0
-0.018420 0.038934 0.0
-0.022134 0.039670 0.0
-0.025864 0.039733 0.0
-0.029554 0.039234 0.0
-0.033161 0.038269 0.0
-0.036652 0.036921 0.0
-0.039998 0.035256 0.0
-0.043179 0.033327 0.0
-0.046177 0.031175 0.0
-0.048977 0.028832 0.0
-0.051567 0.026321 0.0
-0.053936 0.023658 0.0
-0.056076 0.020858 0.0
-0.057974 0.017930 0.0
-0.059623 0.014882 0.0
-0.061012 0.011721 0.0
-0.062130 0.008454 0.0
-0.062967 0.005088 0.0
-0.063510 0.001629 0.0
-0.063748 -0.001913 0.0
-0.063667 -0.005527 0.0
-0.063254 -0.009198 0.0
-0.062496 -0.012909 0.0
-0.061380 -0.016638 0.0
-0.059897 -0.020355 0.0
-0.058036 -0.024025 0.0
-0.055794 -0.027604 0.0
-0.053170 -0.031039 0.0
-0.050173 -0.034265 0.0
-0.046817 -0.037209 0.0
-0.043129 -0.039782 0.0
-0.039147 -0.041889 0.0
-0.034922 -0.043422 0.0
-0.030520 -0.044267 0.0
-0.026021 -0.044305 0.0
-0.021522 -0.043421 0.0
-0.017132 -0.041505 0.0
-0.012970 -0.038462 0.0
-0.009168 -0.034222 0.0
-0.005861 -0.028740 0.0
-0.003186 -0.022013 0.0
-0.001279 -0.014078 0.0
-0.000267 -0.005021 0.0
-0.000268 0.005485 0.0
-0.001259 0.014975 0.0
-0.003078 0.022961 0.0
-0.005565 0.029473 0.0
-0.008574 0.034585 0.0
-0.011970 0.038409 0.0
-0.015635 0.041075 0.0
-0.019468 0.042727 0.0
-0.023383 0.043507 0.0
-0.027309 0.043553 0.0
-0.031191 0.042986 0.0
-0.034983 0.041916 0.0
-0.038651 0.040432 0.0
-0.042167 0.038607 0.0
-0.045509 0.036499 0.0
-0.048660 0.034152 0.0
-0.051606 0.031601 0.0
-0.054336 0.028871 0.0
-0.056839 0.025980 0.0
-0.059106 0.022942 0.0
-0.061128 0.019766 0.0
-0.062894 0.016461 0.0
-0.064396 0.013033 0.0
-0.065621 0.009487 0.0
-0.066559 0.005830 0.0
-0.067197 0.002068 0.0
-0.067520 -0.001791 0.0
-0.067514 -0.005736 0.0
-0.067163 -0.009753 0.0
-0.066451 -0.013825 0.0
-0.065362 -0.017927 0.0
-0.063881 -0.022030 0.0
-0.061996 -0.026095 0.0
-0.059698 -0.030074 0.0
-0.056984 -0.033906 0.0
-0.053858 -0.037521 0.0
-0.050334 -0.040833 0.0
-0.046437 -0.043743 0.0
-0.042206 -0.046142 0.0
-0.037695 -0.047905 0.0
-0.032976 -0.048904 0.0
-0.028138 -0.049004 0.0
-0.023285 -0.048073 0.0
-0.018540 -0.045988 0.0
-0.014036 -0.042644 0.0
-0.009919 -0.037960 0.0
-0.006337 -0.031891 0.0
-0.003442 -0.024432 0.0
-0.001380 -0.015628 0.0
-0.000287 -0.005576 0.0
-0.000285 0.006038 0.0
-0.001337 0.016465 0.0
-0.003268 0.025220 0.0
-0.005906 0.032341 0.0
-0.009096 0.037916 0.0
-0.012692 0.042071 0.0
-0.016568 0.044955 0.0
-0.020617 0.046728 0.0
-0.024748 0.047551 0.0
-0.028887 0.047574 0.0
-0.032975 0.046935 0.0
-0.036965 0.045751 0.0
-0.040821 0.044122 0.0
-0.044516 0.042128 0.0
-0.048029 0.039832 0.0
-0.051342 0.037283 0.0
-0.054443 0.034518 0.0
-0.057321 0.031563 0.0
-0.059966 0.028437 0.0
-0.062370 0.025155 0.0
-0.064523 0.021727 0.0
-0.066417 0.018160 0.0
-0.068042 0.014460 0.0
-0.069387 0.010630 0.0
-0.070440 0.006677 0.0
-0.071186 0.002605 0.0
-0.071611 -0.001580 0.0
-0.071696 -0.005867 0.0
-0.071425 -0.010245 0.0
-0.070776 -0.014694 0.0
-0.069731 -0.019192 0.0
-0.068270 -0.023707 0.0
-0.066376 -0.028197 0.0
-0.064035 -0.032610 0.0
-0.061239 -0.036879 0.0
-0.057989 -0.040924 0.0
-0.054294 -0.044649 0.0
-0.050177 -0.047941 0.0
-0.045680 -0.050674 0.0
-0.040857 -0.052707 0.0
-0.035787 -0.053892 0.0
-0.030567 -0.054075 0.0
-0.025315 -0.053107 0.0
-0.020165 -0.050849 0.0
-0.015269 -0.047182 0.0
-0.010788 -0.042019 0.0
-0.006889 -0.035311 0.0
-0.003739 -0.027056 0.0
-0.001497 -0.017308 0.0
-0.000311 -0.006175 0.0
-0.000304 0.006627 0.0
-0.001424 0.018050 0.0
-0.003478 0.027620 0.0
-0.006284 0.035385 0.0
-0.009672 0.041448 0.0
-0.013487 0.045950 0.0
-0.017594 0.049060 0.0
-0.021878 0.050956 0.0
-0.026243 0.051818 0.0
-0.030610 0.051813 0.0
-0.034918 0.051091 0.0
-0.039119 0.049785 0.0
-0.043175 0.048001 0.0
-0.047060 0.045828 0.0
-0.050753 0.043336 0.0
-0.054236 0.040576 0.0
-0.057500 0.037589 0.0
-0.060533 0.034402 0.0
-0.063327 0.031037 0.0
-0.065876 0.027507 0.0
-0.068170 0.023823 0.0
-0.070201 0.019990 0.0
-0.071961 0.016014 0.0
-0.073437 0.011898 0.0
-0.074619 0.007643 0.0
-0.075489 0.003255 0.0
-0.076033 -0.001263 0.0
-0.076229 -0.005902 0.0
-0.076058 -0.010653 0.0
-0.075495 -0.015498 0.0
-0.074516 -0.020413 0.0
-0.073097 -0.025366 0.0
-0.071215 -0.030314 0.0
-0.068849 -0.035199 0.0
-0.065986 -0.039948 0.0
-0.062620 -0.044472 0.0
-0.058756 -0.048660 0.0
-0.054414 -0.052387 0.0
-0.049634 -0.055506 0.0
-0.044474 -0.057857 0.0
-0.039017 -0.059268 0.0
-0.033371 -0.059565 0.0
-0.027666 -0.058575 0.0
-0.022053 -0.056142 0.0
-0.016705 -0.052133 0.0
-0.011803 -0.046452 0.0
-0.007534 -0.039046 0.0
-0.004086 -0.029920 0.0
-0.001634 -0.019137 0.0
-0.000339 -0.006826 0.0
-0.000324 0.007255 0.0
-0.001521 0.019739 0.0
-0.003712 0.030177 0.0
-0.006703 0.038625 0.0
-0.010309 0.045202 0.0
-0.014365 0.050067 0.0
-0.018724 0.053409 0.0
-0.023263 0.055430 0.0
-0.027880 0.056326 0.0
-0.032492 0.056284 0.0
-0.037035 0.055471 0.0
-0.041459 0.054030 0.0
-0.045727 0.052080 0.0
-0.049811 0.049718 0.0
-0.053691 0.047019 0.0
-0.057353 0.044039 0.0
-0.060785 0.040822 0.0
-0.063980 0.037397 0.0
-0.066930 0.033787 0.0
-0.069630 0.030005 0.0
-0.072073 0.026062 0.0
-0.074251 0.021961 0.0
-0.076155 0.017708 0.0
-0.077777 0.013302 0.0
-0.079101 0.008745 0.0
-0.080114 0.004037 0.0
-0.080796 -0.000819 0.0
-0.081125 -0.005819 0.0
-0.081079 -0.010954 0.0
-0.080628 -0.016210 0.0
-0.079744 -0.021564 0.0
-0.078395 -0.026983 0.0
-0.076553 -0.032422 0.0
-0.074189 -0.037821 0.0
-0.071280 -0.043098 0.0
-0.067815 -0.048154 0.0
-0.063790 -0.052866 0.0
-0.059223 -0.057090 0.0
-0.054147 -0.060658 0.0
-0.048625 -0.063386 0.0
-0.042744 -0.065076 0.0
-0.036622 -0.065526 0.0
-0.030403 -0.064538 0.0
-0.024261 -0.061934 0.0
-0.018389 -0.057563 0.0
-0.012995 -0.051319 0.0
-0.008294 -0.043149 0.0
-0.004495 -0.033064 0.0
-0.001796 -0.021144 0.0
-0.000372 -0.007537 0.0
-0.000347 0.007927 0.0
-0.001628 0.021544 0.0
-0.003972 0.032907 0.0
-0.007168 0.042081 0.0
-0.011015 0.049199 0.0
-0.015334 0.054444 0.0
-0.019968 0.058026 0.0
-0.024784 0.060168 0.0
-0.029672 0.061093 0.0
-0.034547 0.061004 0.0
-0.039339 0.060087 0.0
-0.043999 0.058498 0.0
-0.048489 0.056369 0.0
-0.052780 0.053805 0.0
-0.056855 0.050887 0.0
-0.060701 0.047678 0.0
-0.064307 0.044222 0.0
-0.067669 0.040553 0.0
-0.070780 0.036693 0.0
-0.073637 0.032656 0.0
-0.076235 0.028451 0.0
-0.078567 0.024083 0.0
-0.080628 0.019552 0.0
-0.082406 0.014857 0.0
-0.083889 0.009997 0.0
-0.085062 0.004970 0.0
-0.085904 -0.000228 0.0
-0.086392 -0.005593 0.0
-0.086499 -0.011121 0.0
-0.086192 -0.016801 0.0
-0.085436 -0.022613 0.0
-0.084195 -0.028524 0.0
-0.082428 -0.034490 0.0
-0.080100 -0.040445 0.0
-0.077179 -0.046303 0.0
-0.073640 -0.051953 0.0
-0.069474 -0.057258 0.0
-0.064687 -0.062053 0.0
-0.059311 -0.066147 0.0
-0.053405 -0.069326 0.0
-0.047063 -0.071361 0.0
-0.040410 -0.072017 0.0
-0.033611 -0.071065 0.0
-0.026860 -0.068300 0.0
-0.020380 -0.063549 0.0
-0.014410 -0.056696 0.0
-0.009197 -0.047686 0.0
-0.004982 -0.036541 0.0
-0.001988 -0.023360 0.0
-0.000412 -0.008321 0.0
-0.000373 0.008647 0.0
-0.001748 0.023479 0.0
-0.004262 0.035830 0.0
-0.007685 0.045775 0.0
-0.011798 0.053465 0.0
-0.016406 0.059105 0.0
-0.021340 0.062932 0.0
-0.026456 0.065194 0.0
-0.031637 0.066137 0.0
-0.036791 0.065989 0.0
-0.041848 0.064952 0.0
-0.046756 0.063200 0.0
-0.051475 0.060876 0.0
-0.055982 0.058096 0.0
-0.060257 0.054947 0.0
-0.064289 0.051496 0.0
-0.068073 0.047794 0.0
-0.071604 0.043874 0.0
-0.074879 0.039759 0.0
-0.077897 0.035465 0.0
-0.080655 0.030998 0.0
-0.083149 0.026363 0.0
-0.085374 0.021557 0.0
-0.087321 0.016577 0.0
-0.088979 0.011418 0.0
-0.090331 0.006073 0.0
-0.091357 0.000537 0.0
-0.092031 -0.005195 0.0
-0.092324 -0.011121 0.0
-0.092198 -0.017235 0.0
-0.091612 -0.023521 0.0
-0.090520 -0.029949 0.0
-0.088876 -0.036476 0.0
-0.086631 -0.043032 0.0
-0.083740 -0.049528 0.0
-0.080167 -0.055840 0.0
-0.075888 -0.061816 0.0
-0.070901 -0.067269 0.0
-0.065227 -0.071980 0.0
-0.058923 -0.075702 0.0
-0.052084 -0.078167 0.0
-0.044846 -0.079101 0.0
-0.037391 -0.078236 0.0
-0.029940 -0.075330 0.0
-0.022751 -0.070188 0.0
-0.016102 -0.062676 0.0
-0.010281 -0.052741 0.0
-0.005568 -0.040415 0.0
-0.002220 -0.025827 0.0
-0.000459 -0.009192 0.0
-0.000402 0.009422 0.0
-0.001883 0.025560 0.0
-0.004587 0.038968 0.0
-0.008261 0.049734 0.0
-0.012669 0.058027 0.0
-0.017595 0.064078 0.0
-0.022856 0.068153 0.0
-0.028297 0.070529 0.0
-0.033791 0.071478 0.0
-0.039243 0.071254 0.0
-0.044579 0.070079 0.0
-0.049744 0.068145 0.0
-0.054702 0.065609 0.0
-0.059428 0.062595 0.0
-0.063905 0.059200 0.0
-0.068127 0.055497 0.0
-0.072088 0.051538 0.0
-0.075788 0.047360 0.0
-0.079228 0.042987 0.0
-0.082408 0.038434 0.0
-0.085328 0.033707 0.0
-0.087989 0.028808 0.0
-0.090386 0.023733 0.0
-0.092513 0.018475 0.0
-0.094359 0.013024 0.0
-0.095909 0.007370 0.0
-0.097143 0.001501 0.0
-0.098034 -0.004593 0.0
-0.098549 -0.010916 0.0
-0.098645 -0.017469 0.0
-0.098277 -0.024241 0.0