# vtk DataFile Version 3.0
Scalar Field
ASCII
DATASET RECTILINEAR_GRID
DIMENSIONS 50 50 1
X_COORDINATES 50 double
0.100000 0.300000 0.500000 0.700000 0.900000 1.100000 1.300000 1.500000 1.700000 1.900000 2.100000 2.300000 2.500000 2.700000 2.900000 3.100000 3.300000 3.500000 3.700000 3.900000 4.100000 4.300000 4.500000 4.700000 4.900000 5.100000 5.300000 5.500000 5.700000 5.900000 6.100000 6.300000 6.500000 6.700000 6.900000 7.100000 7.300000 7.500000 7.700000 7.900000 8.100000 8.300000 8.500000 8.700000 8.900000 9.100000 9.300000 9.500000 9.700000 9.900000 
Y_COORDINATES 50 double
0.100000 0.300000 0.500000 0.700000 0.900000 1.100000 1.300000 1.500000 1.700000 1.900000 2.100000 2.300000 2.500000 2.700000 2.900000 3.100000 3.300000 3.500000 3.700000 3.900000 4.100000 4.300000 4.500000 4.700000 4.900000 5.100000 5.300000 5.500000 5.700000 5.900000 6.100000 6.300000 6.500000 6.700000 6.900000 7.100000 7.300000 7.500000 7.700000 7.900000 8.100000 8.300000 8.500000 8.700000 8.900000 9.100000 9.300000 9.500000 9.700000 9.900000 
Z_COORDINATES 1 double
0.0
POINT_DATA 2500
SCALARS Skalarfeld double 1
LOOKUP_TABLE default
-0.015407
-0.015422
-0.015383
-0.015281
-0.015114
-0.014883
-0.014588
-0.014228
-0.013803
-0.013313
-0.012758
-0.012138
-0.011451
-0.010699
-0.009881
-0.008997
-0.008048
-0.007034
-0.005956
-0.004816
-0.003615
-0.002355
-0.001039
0.000330
0.001749
0.003214
0.004719
0.006260
0.007829
0.009421
0.011027
0.012639
0.014249
0.015845
0.017419
0.018960
0.020456
0.021896
0.023269
0.024562
0.025765
0.026867
0.027857
0.028725
0.029464
0.030064
0.030520
0.030826
0.030983
0.031004
-0.015393
-0.015408
-0.015365
-0.015260
-0.015093
-0.014863
-0.014568
-0.014210
-0.013786
-0.013299
-0.012746
-0.012127
-0.011443
-0.010693
-0.009877
-0.008996
-0.008049
-0.007038
-0.005962
-0.004825
-0.003626
-0.002369
-0.001055
0.000313
0.001730
0.003193
0.004697
0.006237
0.007806
0.009397
0.011004
0.012616
0.014227
0.015825
0.017401
0.018943
0.020441
0.021884
0.023259
0.024555
0.025761
0.026865
0.027858
0.028729
0.029470
0.030072
0.030531
0.030841
0.031003
0.031024
-0.015435
-0.015454
-0.015412
-0.015307
-0.015140
-0.014911
-0.014617
-0.014260
-0.013839
-0.013353
-0.012802
-0.012186
-0.011504
-0.010756
-0.009942
-0.009063
-0.008118
-0.007108
-0.006034
-0.004897
-0.003699
-0.002441
-0.001126
0.000243
0.001663
0.003130
0.004638
0.006183
0.007758
0.009357
0.010971
0.012593
0.014214
0.015823
0.017411
0.018966
0.020477
0.021933
0.023322
0.024631
0.025850
0.026967
0.027972
0.028853
0.029603
0.030214
0.030679
0.030994
0.031158
0.031173
-0.015545
-0.015568
-0.015527
-0.015423
-0.015258
-0.015029
-0.014738
-0.014382
-0.013963
-0.013479
-0.012930
-0.012316
-0.011636
-0.010890
-0.010078
-0.009200
-0.008255
-0.007246
-0.006171
-0.005033
-0.003833
-0.002572
-0.001253
0.000122
0.001548
0.003023
0.004541
0.006097
0.007685
0.009298
0.010929
0.012569
0.014209
0.015839
0.017449
0.019028
0.020563
0.022043
0.023456
0.024790
0.026032
0.027171
0.028196
0.029097
0.029863
0.030487
0.030963
0.031285
0.031452
0.031465
-0.015727
-0.015752
-0.015712
-0.015610
-0.015445
-0.015219
-0.014929
-0.014576
-0.014159
-0.013677
-0.013130
-0.012518
-0.011840
-0.011096
-0.010285
-0.009407
-0.008463
-0.007452
-0.006376
-0.005235
-0.004030
-0.002764
-0.001437
-0.000054
0.001384
0.002871
0.004405
0.005978
0.007586
0.009221
0.010877
0.012543
0.014212
0.015873
0.017515
0.019128
0.020698
0.022213
0.023662
0.025031
0.026307
0.027478
0.028533
0.029461
0.030251
0.030895
0.031385
0.031718
0.031890
0.031902
-0.015980
-0.016005
-0.015967
-0.015867
-0.015704
-0.015479
-0.015192
-0.014841
-0.014426
-0.013947
-0.013403
-0.012793
-0.012116
-0.011373
-0.010563
-0.009685
-0.008740
-0.007728
-0.006649
-0.005503
-0.004292
-0.003017
-0.001681
-0.000285
0.001168
0.002673
0.004227
0.005824
0.007458
0.009123
0.010811
0.012513
0.014221
0.015922
0.017608
0.019265
0.020881
0.022444
0.023939
0.025354
0.026676
0.027890
0.028985
0.029948
0.030769
0.031439
0.031950
0.032297
0.032475
0.032489
-0.016302
-0.016330
-0.016293
-0.016194
-0.016034
-0.015811
-0.015526
-0.015178
-0.014766
-0.014289
-0.013748
-0.013140
-0.012465
-0.011724
-0.010914
-0.010036
-0.009090
-0.008075
-0.006991
-0.005839
-0.004620
-0.003335
-0.001985
-0.000573
0.000898
0.002426
0.004005
0.005631
0.007299
0.009001
0.010729
0.012476
0.014231
0.015984
0.017724
0.019437
0.021112
0.022733
0.024288
0.025762
0.027140
0.028408
0.029553
0.030562
0.031423
0.032126
0.032663
0.033027
0.033215
0.033231
-0.016695
-0.016724
-0.016689
-0.016592
-0.016434
-0.016214
-0.015932
-0.015587
-0.015178
-0.014705
-0.014166
-0.013560
-0.012888
-0.012148
-0.011339
-0.010461
-0.009512
-0.008494
-0.007405
-0.006246
-0.005017
-0.003719
-0.002354
-0.000924
0.000570
0.002124
0.003735
0.005396
0.007103
0.008850
0.010627
0.012427
0.014240
0.016055
0.017860
0.019642
0.021387
0.023081
0.024709
0.026254
0.027702
0.029036
0.030243
0.031308
0.032218
0.032961
0.033530
0.033916
0.034116
0.034134
-0.017158
-0.017188
-0.017155
-0.017061
-0.016906
-0.016689
-0.016410
-0.016068
-0.015663
-0.015193
-0.014658
-0.014055
-0.013386
-0.012647
-0.011839
-0.010960
-0.010010
-0.008988
-0.007893
-0.006726
-0.005486
-0.004175
-0.002792
-0.001339
0.000180
0.001765
0.003410
0.005113
0.006866
0.008664
0.010499
0.012362
0.014243
0.016131
0.018013
0.019877
0.021706
0.023486
0.025200
0.026831
0.028363
0.029777
0.031058
0.032191
0.033159
0.033952
0.034559
0.034972
0.035187
0.035208
-0.017691
-0.017723
-0.017692
-0.017600
-0.017448
-0.017235
-0.016960
-0.016622
-0.016221
-0.015756
-0.015224
-0.014626
-0.013959
-0.013223
-0.012416
-0.011537
-0.010586
-0.009560
-0.008459
-0.007283
-0.006032
-0.004705
-0.003302
-0.001826
-0.000277
0.001341
0.003027
0.004775
0.006581
0.008438
0.010338
0.012273
0.014233
0.016206
0.018178
0.020137
0.022065
0.023945
0.025762
0.027494
0.029125
0.030634
0.032004
0.033217
0.034256
0.035108
0.035761
0.036205
0.036438
0.036463
-0.018293
-0.018327
-0.018299
-0.018210
-0.018061
-0.017852
-0.017582
-0.017249
-0.016853
-0.016393
-0.015866
-0.015272
-0.014610
-0.013877
-0.013072
-0.012194
-0.011241
-0.010212
-0.009106
-0.007921
-0.006658
-0.005314
-0.003891
-0.002389
-0.000809
0.000847
0.002576
0.004376
0.006240
0.008163
0.010137
0.012154
0.014204
0.016273
0.018349
0.020417
0.022459
0.024457
0.026392
0.028244
0.029990
0.031611
0.033086
0.034394
0.035517
0.036439
0.037146
0.037628
0.037882
0.037912
-0.018964
-0.019000
-0.018975
-0.018890
-0.018746
-0.018541
-0.018276
-0.017949
-0.017559
-0.017105
-0.016584
-0.015996
-0.015339
-0.014610
-0.013809
-0.012933
-0.011980
-0.010949
-0.009837
-0.008644
-0.007368
-0.006008
-0.004564
-0.003035
-0.001421
0.000275
0.002052
0.003906
0.005835
0.007831
0.009887
0.011996
0.014146
0.016325
0.018518
0.020711
0.022884
0.025017
0.027090
0.029079
0.030962
0.032714
0.034311
0.035731
0.036953
0.037957
0.038729
0.039256
0.039535
0.039570
-0.019704
-0.019743
-0.019721
-0.019640
-0.019501
-0.019302
-0.019043
-0.018723
-0.018340
-0.017893
-0.017379
-0.016799
-0.016148
-0.015425
-0.014629
-0.013756
-0.012805
-0.011772
-0.010657
-0.009457
-0.008169
-0.006793
-0.005327
-0.003770
-0.002123
-0.000384
0.001443
0.003357
0.005355
0.007431
0.009577
0.011787
0.014049
0.016350
0.018676
0.021010
0.023332
0.025621
0.027852
0.030001
0.032041
0.033945
0.035686
0.037238
0.038575
0.039677
0.040525
0.041105
0.041414
0.041455
-0.020513
-0.020555
-0.020537
-0.020460
-0.020326
-0.020134
-0.019882
-0.019570
-0.019195
-0.018757
-0.018253
-0.017681
-0.017038
-0.016324
-0.015534
-0.014666
-0.013718
-0.012687
-0.011570
-0.010363
-0.009066
-0.007675
-0.006188
-0.004604
-0.002921
-0.001140
0.000740
0.002717
0.004789
0.006950
0.009195
0.011515
0.013900
0.016338
0.018812
0.021305
0.023796
0.026261
0.028674
0.031007
0.033230
0.035311
0.037220
0.038925
0.040399
0.041615
0.042553
0.043196
0.043539
0.043588
-0.021390
-0.021436
-0.021422
-0.021350
-0.021222
-0.021037
-0.020794
-0.020491
-0.020126
-0.019698
-0.019205
-0.018644
-0.018012
-0.017307
-0.016526
-0.015667
-0.014724
-0.013696
-0.012579
-0.011370
-0.010065
-0.008661
-0.007155
-0.005545
-0.003827
-0.002002
-0.000068
0.001974
0.004123
0.006375
0.008725
0.011165
0.013685
0.016273
0.018912
0.021583
0.024264
0.026930
0.029551
0.032095
0.034529
0.036816
0.038920
0.040806
0.042440
0.043791
0.044834
0.045551
0.045934
0.045993
-0.022335
-0.022384
-0.022375
-0.022309
-0.022189
-0.022012
-0.021778
-0.021486
-0.021133
-0.020717
-0.020237
-0.019688
-0.019070
-0.018378
-0.017609
-0.016759
-0.015826
-0.014805
-0.013692
-0.012482
-0.011172
-0.009758
-0.008236
-0.006601
-0.004851
-0.002983
-0.000996
0.001113
0.003342
0.005690
0.008151
0.010720
0.013386
0.016137
0.018958
0.021828
0.024723
0.027616
0.030473
0.033260
0.035937
0.038463
0.040796
0.042893
0.044715
0.046225
0.047393
0.048197
0.048629
0.048698
-0.023348
-0.023400
-0.023396
-0.023337
-0.023225
-0.023058
-0.022835
-0.022555
-0.022215
-0.021814
-0.021348
-0.020816
-0.020213
-0.019537
-0.018783
-0.017948
-0.017027
-0.016016
-0.014911
-0.013705
-0.012395
-0.010975
-0.009439
-0.007784
-0.006005
-0.004096
-0.002056
0.000119
0.002429
0.004875
0.007453
0.010158
0.012981
0.015911
0.018931
0.022020
0.025155
0.028303
0.031430
0.034495
0.037453
0.040257
0.042857
0.045202
0.047246
0.048944
0.050259
0.051166
0.051655
0.051738
-0.024426
-0.024483
-0.024485
-0.024433
-0.024330
-0.024174
-0.023963
-0.023697
-0.023373
-0.022989
-0.022541
-0.022027
-0.021443
-0.020786
-0.020051
-0.019234
-0.018331
-0.017335
-0.016242
-0.015045
-0.013739
-0.012318
-0.010775
-0.009104
-0.007300
-0.005355
-0.003265
-0.001026
0.001365
0.003910
0.006609
0.009457
0.012446
0.015567
0.018804
0.022136
0.025537
0.028973
0.032406
0.035789
0.039072
0.042199
0.045111
0.047749
0.050055
0.051975
0.053465
0.054494
0.055051
0.055150
-0.025570
-0.025632
-0.025640
-0.025597
-0.025503
-0.025359
-0.025163
-0.024913
-0.024607
-0.024241
-0.023814
-0.023322
-0.022761
-0.022127
-0.021415
-0.020622
-0.019740
-0.018765
-0.017689
-0.016508
-0.015213
-0.013797
-0.012253
-0.010573
-0.008749
-0.006774
-0.004640
-0.002341
0.000128
0.002772
0.005593
0.008588
0.011752
0.015078
0.018549
0.022146
0.025841
0.029600
0.033378
0.037126
0.040784
0.044288
0.047567
0.050550
0.053166
0.055351
0.057050
0.058225
0.058862
0.058979
-0.026779
-0.026846
-0.026861
-0.026826
-0.026744
-0.026614
-0.026434
-0.026202
-0.025915
-0.025572
-0.025169
-0.024702
-0.024167
-0.023560
-0.022877
-0.022111
-0.021257
-0.020309
-0.019258
-0.018099
-0.016823
-0.015420
-0.013883
-0.012202
-0.010368
-0.008370
-0.006200
-0.003847
-0.001305
0.001433
0.004375
0.007520
0.010865
0.014405
0.018127
0.022012
0.026032
0.030150
0.034320
0.038485
0.042576
0.046519
0.050230
0.053621
0.056608
0.059110
0.061059
0.062407
0.063141
0.063280
-0.028051
-0.028124
-0.028146
-0.028121
-0.028052
-0.027937
-0.027774
-0.027562
-0.027298
-0.026980
-0.026603
-0.026165
-0.025662
-0.025087
-0.024437
-0.023705
-0.022886
-0.021971
-0.020953
-0.019824
-0.018574
-0.017195
-0.015675
-0.014003
-0.012169
-0.010159
-0.007962
-0.005566
-0.002960
-0.000133
0.002924
0.006216
0.009745
0.013508
0.017495
0.021690
0.026065
0.030583
0.035193
0.039833
0.044426
0.048882
0.053102
0.056980
0.060411
0.063293
0.065542
0.067100
0.067948
0.068113
-0.029385
-0.029464
-0.029494
-0.029480
-0.029424
-0.029326
-0.029183
-0.028993
-0.028754
-0.028464
-0.028118
-0.027713
-0.027245
-0.026708
-0.026096
-0.025405
-0.024626
-0.023753
-0.022776
-0.021687
-0.020475
-0.019129
-0.017638
-0.015988
-0.014166
-0.012157
-0.009948
-0.007522
-0.004864
-0.001961
0.001202
0.004637
0.008348
0.012337
0.016600
0.021124
0.025883
0.030842
0.035947
0.041129
0.046300
0.051357
0.056180
0.060640
0.064605
0.067948
0.070561
0.072371
0.073356
0.073553
-0.030780
-0.030865
-0.030904
-0.030902
-0.030861
-0.030780
-0.030659
-0.030494
-0.030283
-0.030023
-0.029712
-0.029344
-0.028915
-0.028421
-0.027855
-0.027211
-0.026481
-0.025658
-0.024731
-0.023692
-0.022529
-0.021229
-0.019780
-0.018167
-0.016373
-0.014383
-0.012177
-0.009738
-0.007046
-0.004083
-0.000829
0.002736
0.006621
0.010834
0.015379
0.020247
0.025418
0.030859
0.036514
0.042311
0.048150
0.053911
0.059451
0.064610
0.069222
0.073127
0.076184
0.078300
0.079449
0.079683
-0.032234
-0.032325
-0.032374
-0.032384
-0.032359
-0.032298
-0.032200
-0.032062
-0.031882
-0.031656
-0.031383
-0.031056
-0.030673
-0.030227
-0.029712
-0.029123
-0.028450
-0.027686
-0.026820
-0.025843
-0.024741
-0.023502
-0.022111
-0.020551
-0.018804
-0.016851
-0.014670
-0.012240
-0.009536
-0.006535
-0.003210
0.000462
0.004506
0.008934
0.013757
0.018978
0.024583
0.030543
0.036807
0.043298
0.049906
0.056493
0.062886
0.068890
0.074293
0.078887
0.082490
0.084981
0.086328
0.086603
-0.033745
-0.033844
-0.033902
-0.033926
-0.033918
-0.033878
-0.033805
-0.033696
-0.033549
-0.033361
-0.033129
-0.032848
-0.032515
-0.032123
-0.031667
-0.031139
-0.030532
-0.029837
-0.029043
-0.028140
-0.027114
-0.025951
-0.024635
-0.023148
-0.021469
-0.019577
-0.017447
-0.015052
-0.012365
-0.009354
-0.005989
-0.002238
0.001938
0.006559
0.011649
0.017219
0.023270
0.029783
0.036711
0.043979
0.051469
0.059022
0.066435
0.073464
0.079840
0.085289
0.089570
0.092523
0.094109
0.094430
-0.035312
-0.035418
-0.035487
-0.035525
-0.035536
-0.035518
-0.035471
-0.035394
-0.035282
-0.035135
-0.034948
-0.034717
-0.034439
-0.034107
-0.033716
-0.033258
-0.032726
-0.032110
-0.031400
-0.030584
-0.029649
-0.028579
-0.027358
-0.025964
-0.024378
-0.022573
-0.020523
-0.018197
-0.015561
-0.012579
-0.009211
-0.005418
-0.001153
0.003628
0.008954
0.014857
0.021352
0.028435
0.036075
0.044201
0.052694
0.061377
0.070009
0.078289
0.085871
0.092392
0.097525
0.101052
0.102926
0.103298
-0.036932
-0.037047
-0.037127
-0.037180
-0.037209
-0.037215
-0.037197
-0.037152
-0.037079
-0.036975
-0.036837
-0.036660
-0.036442
-0.036175
-0.035856
-0.035476
-0.035027
-0.034501
-0.033887
-0.033173
-0.032345
-0.031387
-0.030280
-0.029005
-0.027538
-0.025851
-0.023914
-0.021694
-0.019151
-0.016243
-0.012923
-0.009140
-0.004839
0.000046
0.005561
0.011756
0.018670
0.026323
0.034705
0.043763
0.053382
0.063374
0.073461
0.083275
0.092365
0.100246
0.106465
0.110714
0.112938
0.113358
-0.038605
-0.038729
-0.038820
-0.038888
-0.038938
-0.038968
-0.038979
-0.038969
-0.038936
-0.038878
-0.038791
-0.038673
-0.038519
-0.038324
-0.038083
-0.037788
-0.037433
-0.037007
-0.036502
-0.035903
-0.035198
-0.034371
-0.033402
-0.032270
-0.030951
-0.029416
-0.027631
-0.025560
-0.023159
-0.020379
-0.017167
-0.013460
-0.009190
-0.004284
0.001347
0.007766
0.015042
0.023230
0.032353
0.042389
0.053247
0.064738
0.076555
0.088249
0.099243
0.108873
0.116498
0.121673
0.124321
0.124779
-0.040329
-0.040462
-0.040565
-0.040649
-0.040718
-0.040774
-0.040815
-0.040841
-0.040850
-0.040840
-0.040808
-0.040751
-0.040666
-0.040547
-0.040390
-0.040189
-0.039935
-0.039621
-0.039236
-0.038768
-0.038203
-0.037526
-0.036718
-0.035757
-0.034617
-0.033268
-0.031677
-0.029804
-0.027600
-0.025013
-0.021980
-0.018431
-0.014284
-0.009450
-0.003819
0.002717
0.010255
0.018892
0.028704
0.039720
0.051894
0.065065
0.078910
0.092906
0.106314
0.118227
0.127715
0.134102
0.137270
0.137738
-0.042103
-0.042246
-0.042361
-0.042460
-0.042550
-0.042631
-0.042703
-0.042765
-0.042817
-0.042856
-0.042881
-0.042889
-0.042876
-0.042838
-0.042772
-0.042670
-0.042527
-0.042333
-0.042081
-0.041757
-0.041350
-0.040843
-0.040219
-0.039455
-0.038527
-0.037404
-0.036052
-0.034428
-0.032484
-0.030161
-0.027392
-0.024098
-0.020184
-0.015546
-0.010060
-0.003568
0.004071
0.013004
0.023374
0.035287
0.048779
0.063756
0.079924
0.096705
0.113181
0.128113
0.140132
0.148164
0.151986
0.152409
-0.043927
-0.044080
-0.044207
-0.044322
-0.044431
-0.044536
-0.044639
-0.044738
-0.044833
-0.044923
-0.045006
-0.045080
-0.045142
-0.045190
-0.045219
-0.045223
-0.045197
-0.045134
-0.045025
-0.044860
-0.044626
-0.044309
-0.043891
-0.043353
-0.042669
-0.041811
-0.040744
-0.039425
-0.037806
-0.035827
-0.033416
-0.030488
-0.026940
-0.022652
-0.017481
-0.011258
-0.003758
0.005223
0.015903
0.028497
0.043166
0.059949
0.078651
0.098710
0.119047
0.138010
0.153564
0.163942
0.168651
0.168948
-0.045800
-0.045964
-0.046103
-0.046232
-0.046360
-0.046489
-0.046621
-0.046756
-0.046894
-0.047034
-0.047176
-0.047318
-0.047458
-0.047593
-0.047721
-0.047837
-0.047936
-0.048011
-0.048056
-0.048060
-0.048015
-0.047905
-0.047716
-0.047430
-0.047022
-0.046467
-0.045732
-0.044776
-0.043551
-0.041999
-0.040047
-0.037609
-0.034578
-0.030823
-0.026186
-0.020474
-0.013458
-0.004813
0.005773
0.018631
0.034095
0.052418
0.073629
0.097318
0.122361
0.146678
0.167310
0.181271
0.187372
0.187508
-0.047726
-0.047901
-0.048051
-0.048193
-0.048337
-0.048488
-0.048648
-0.048817
-0.048996
-0.049185
-0.049385
-0.049595
-0.049813
-0.050039
-0.050268
-0.050499
-0.050728
-0.050948
-0.051155
-0.051341
-0.051496
-0.051611
-0.051671
-0.051660
-0.051559
-0.051344
-0.050986
-0.050447
-0.049685
-0.048645
-0.047258
-0.045441
-0.043090
-0.040073
-0.036226
-0.031346
-0.025175
-0.017396
-0.007557
0.004866
0.020365
0.039494
0.062659
0.089841
0.120154
0.151313
0.179322
0.199215
0.207992
0.208350
-0.049706
-0.049894
-0.050052
-0.050205
-0.050363
-0.050532
-0.050716
-0.050916
-0.051134
-0.051370
-0.051627
-0.051903
-0.052200
-0.052515
-0.052848
-0.053197
-0.053558
-0.053929
-0.054305
-0.054680
-0.055048
-0.055400
-0.055726
-0.056013
-0.056245
-0.056403
-0.056462
-0.056393
-0.056159
-0.055712
-0.054993
-0.053930
-0.052427
-0.050365
-0.047590
-0.043906
-0.039055
-0.032708
-0.024436
-0.013639
0.000599
0.019033
0.042591
0.071923
0.106894
0.145724
0.183971
0.214144
0.229116
0.231619
-0.051746
-0.051947
-0.052113
-0.052272
-0.052439
-0.052623
-0.052826
-0.053052
-0.053303
-0.053583
-0.053893
-0.054233
-0.054606
-0.055010
-0.055447
-0.055914
-0.056410
-0.056935
-0.057484
-0.058055
-0.058643
-0.059243
-0.059848
-0.060450
-0.061036
-0.061595
-0.062107
-0.062552
-0.062902
-0.063122
-0.063167
-0.062980
-0.062489
-0.061597
-0.060182
-0.058080
-0.055075
-0.050877
-0.045094
-0.037188
-0.026437
-0.011454
0.009257
0.036979
0.072923
0.117225
0.167246
0.214088
0.243742
0.253681
-0.053855
-0.054069
-0.054239
-0.054400
-0.054571
-0.054760
-0.054976
-0.055221
-0.055501
-0.055818
-0.056176
-0.056576
-0.057021
-0.057512
-0.058050
-0.058634
-0.059266
-0.059945
-0.060670
-0.061439
-0.062253
-0.063108
-0.064001
-0.064928
-0.065885
-0.066864
-0.067856
-0.068849
-0.069829
-0.070775
-0.071662
-0.072458
-0.073119
-0.073592
-0.073803
-0.073657
-0.073027
-0.071740
-0.069557
-0.066141
-0.061013
-0.053477
-0.042129
-0.023724
0.003835
0.044684
0.102955
0.172287
0.230265
0.256556
-0.056046
-0.056273
-0.056443
-0.056598
-0.056762
-0.056949
-0.057167
-0.057422
-0.057721
-0.058068
-0.058467
-0.058921
-0.059434
-0.060007
-0.060642
-0.061341
-0.062106
-0.062937
-0.063837
-0.064805
-0.065845
-0.066957
-0.068142
-0.069401
-0.070736
-0.072147
-0.073634
-0.075198
-0.076837
-0.078549
-0.080334
-0.082188
-0.084108
-0.086094
-0.088145
-0.090268
-0.092477
-0.094805
-0.097313
-0.100111
-0.103384
-0.107403
-0.112319
-0.117315
-0.114821
-0.093732
-0.036582
0.056900
0.154600
0.205867
-0.058336
-0.058577
-0.058740
-0.058878
-0.059023
-0.059193
-0.059400
-0.059653
-0.059959
-0.060326
-0.060757
-0.061257
-0.061830
-0.062480
-0.063207
-0.064016
-0.064909
-0.065890
-0.066960
-0.068124
-0.069387
-0.070753
-0.072228
-0.073819
-0.075532
-0.077376
-0.079363
-0.081503
-0.083812
-0.086307
-0.089014
-0.091963
-0.095198
-0.098780
-0.102799
-0.107387
-0.112749
-0.119205
-0.127265
-0.137774
-0.152144
-0.172653
-0.202215
-0.241698
-0.283110
-0.299326
-0.254045
-0.141158
-0.002961
0.076770
-0.060754
-0.061008
-0.061153
-0.061257
-0.061365
-0.061500
-0.061678
-0.061912
-0.062212
-0.062584
-0.063036
-0.063573
-0.064198
-0.064916
-0.065729
-0.066641
-0.067656
-0.068778
-0.070014
-0.071367
-0.072846
-0.074460
-0.076217
-0.078130
-0.080213
-0.082482
-0.084958
-0.087664
-0.090633
-0.093902
-0.097521
-0.101557
-0.106101
-0.111280
-0.117278
-0.124367
-0.132963
-0.143721
-0.157706
-0.176716
-0.203857
-0.244253
-0.304520
-0.387177
-0.478120
-0.539652
-0.513897
-0.392602
-0.225005
-0.120278
-0.063338
-0.063604
-0.063715
-0.063762
-0.063805
-0.063879
-0.064005
-0.064198
-0.064472
-0.064835
-0.065294
-0.065855
-0.066522
-0.067299
-0.068188
-0.069196
-0.070324
-0.071581
-0.072972
-0.074504
-0.076189
-0.078038
-0.080064
-0.082285
-0.084720
-0.087394
-0.090336
-0.093583
-0.097180
-0.101184
-0.105670
-0.110738
-0.116520
-0.123206
-0.131066
-0.140501
-0.152126
-0.166916
-0.186474
-0.213551
-0.252947
-0.312551
-0.402265
-0.525342
-0.661011
-0.759634
-0.755210
-0.638983
-0.461014
-0.341212
-0.066145
-0.066420
-0.066471
-0.066423
-0.066364
-0.066341
-0.066382
-0.066507
-0.066733
-0.067067
-0.067518
-0.068090
-0.068788
-0.069613
-0.070569
-0.071662
-0.072895
-0.074274
-0.075809
-0.077508
-0.079384
-0.081452
-0.083728
-0.086235
-0.088997
-0.092046
-0.095419
-0.099164
-0.103338
-0.108015
-0.113290
-0.119288
-0.126179
-0.134198
-0.143682
-0.155128
-0.169296
-0.187387
-0.211380
-0.244658
-0.293067
-0.366013
-0.474839
-0.622529
-0.784532
-0.902433
-0.915274
-0.815499
-0.648944
-0.528487
-0.069260
-0.069537
-0.069485
-0.069288
-0.069070
-0.068898
-0.068812
-0.068835
-0.068984
-0.069268
-0.069693
-0.070263
-0.070978
-0.071841
-0.072854
-0.074021
-0.075346
-0.076837
-0.078502
-0.080353
-0.082403
-0.084669
-0.087172
-0.089936
-0.092993
-0.096378
-0.100137
-0.104324
-0.109007
-0.114272
-0.120229
-0.127023
-0.134844
-0.143958
-0.154738
-0.167727
-0.183748
-0.204085
-0.230818
-0.267428
-0.319732
-0.396686
-0.508375
-0.656405
-0.817005
-0.933472
-0.955421
-0.878326
-0.741518
-0.635226
-0.072814
-0.073076
-0.072848
-0.072412
-0.071952
-0.071562
-0.071292
-0.071170
-0.071211
-0.071421
-0.071802
-0.072354
-0.073075
-0.073965
-0.075024
-0.076254
-0.077661
-0.079250
-0.081030
-0.083015
-0.085218
-0.087659
-0.090361
-0.093351
-0.096664
-0.100340
-0.104428
-0.108991
-0.114102
-0.119855
-0.126370
-0.133799
-0.142346
-0.152281
-0.163983
-0.177993
-0.195108
-0.216546
-0.244220
-0.281198
-0.332291
-0.404242
-0.503178
-0.629348
-0.762635
-0.854749
-0.874356
-0.825637
-0.724779
-0.641330
-0.077011
-0.077223
-0.076690
-0.075869
-0.075040
-0.074335
-0.073811
-0.073494
-0.073392
-0.073504
-0.073823
-0.074344
-0.075060
-0.075967
-0.077062
-0.078345
-0.079821
-0.081494
-0.083374
-0.085473
-0.087808
-0.090398
-0.093268
-0.096448
-0.099974
-0.103889
-0.108247
-0.113111
-0.118561
-0.124694
-0.131631
-0.139528
-0.148584
-0.159064
-0.171323
-0.185857
-0.203374
-0.224921
-0.252072
-0.287237
-0.333199
-0.394496
-0.474699
-0.571197
-0.665797
-0.721354
-0.721485
-0.680858
-0.617668
-0.553048
-0.082200
-0.082275
-0.081192
-0.079741
-0.078357
-0.077208
-0.076344
-0.075777
-0.075497
-0.075487
-0.075731
-0.076211
-0.076913
-0.077828
-0.078950
-0.080277
-0.081810
-0.083554
-0.085516
-0.087711
-0.090153
-0.092865
-0.095871
-0.099202
-0.102896
-0.106997
-0.111559
-0.116649
-0.122345
-0.128746
-0.135970
-0.144170
-0.153533
-0.164305
-0.176803
-0.191455
-0.208848
-0.229818
-0.255525
-0.287048
-0.326655
-0.376503
-0.437480
-0.505189
-0.564012
-0.587965
-0.568220
-0.521462
-0.458565
-0.385481
-0.089010
-0.088726
-0.086598
-0.084101
-0.081889
-0.080134
-0.078838
-0.077967
-0.077479
-0.077333
-0.077491
-0.077924
-0.078608
-0.079526
-0.080669
-0.082030
-0.083610
-0.085410
-0.087438
-0.089707
-0.092234
-0.095039
-0.098148
-0.101592
-0.105407
-0.109640
-0.114344
-0.119584
-0.125437
-0.132000
-0.139388
-0.147741
-0.157237
-0.168096
-0.180596
-0.195089
-0.212039
-0.232090
-0.255660
-0.283778
-0.317467
-0.357429
-0.402861
-0.448691
-0.482144
-0.485080
-0.449875
-0.382921
-0.267238
-0.126516
-0.098726
-0.097437
-0.093197
-0.088949
-0.085539
-0.083011
-0.081194
-0.079975
-0.079259
-0.078969
-0.079040
-0.079424
-0.080086
-0.081003
-0.082159
-0.083547
-0.085163
-0.087006
-0.089082
-0.091405
-0.093992
-0.096864
-0.100045
-0.103565
-0.107461
-0.111777
-0.116567
-0.121893
-0.127830
-0.134470
-0.141923
-0.150322
-0.159829
-0.170646
-0.183022
-0.197244
-0.213604
-0.232548
-0.254472
-0.279870
-0.309129
-0.342120
-0.377216
-0.409359
-0.427977
-0.418956
-0.367989
-0.249321
0.007387
0.324072
-0.114606
-0.110092
-0.101169
-0.094045
-0.088995
-0.085566
-0.083141
-0.081532
-0.080565
-0.080128
-0.080111
-0.080444
-0.081080
-0.081990
-0.083152
-0.084557
-0.086202
-0.088079
-0.090180
-0.092541
-0.095172
-0.098090
-0.101321
-0.104894
-0.108844
-0.113216
-0.118058
-0.123432
-0.129413
-0.136088
-0.143562
-0.151962
-0.161440
-0.172181
-0.184403
-0.198351
-0.214294
-0.232548
-0.253409
-0.277131
-0.303748
-0.332682
-0.361881
-0.386281
-0.396381
-0.376821
-0.288950
-0.043382
0.511933
1.212800
-0.145100
-0.128522
-0.110168
-0.097891
-0.090430
-0.086047
-0.082871
-0.080965
-0.079900
-0.079386
-0.079337
-0.079670
-0.080329
-0.081274
-0.082482
-0.083937
-0.085633
-0.087564
-0.089732
-0.092155
-0.094848
-0.097831
-0.101126
-0.104764
-0.108780
-0.113215
-0.118121
-0.123558
-0.129598
-0.136328
-0.143850
-0.152288
-0.161792
-0.172537
-0.184728
-0.198597
-0.214393
-0.232380
-0.252790
-0.275738
-0.301017
-0.327675
-0.353060
-0.371454
-0.372243
-0.315819
-0.123107
0.388766
1.472565
2.899859
-0.247684
-0.110207
-0.081924
-0.074144
-0.071280
-0.070127
-0.069584
-0.069569
-0.069934
-0.070558
-0.071424
-0.072512
-0.073806
-0.075294
-0.076971
-0.078837
-0.080895
-0.083149
-0.085610
-0.088297
-0.091231
-0.094435
-0.097935
-0.101764
-0.105959
-0.110563
-0.115630
-0.121220
-0.127408
-0.134279
-0.141938
-0.150510
-0.160143
-0.171011
-0.183314
-0.197279
-0.213145
-0.231148
-0.251465
-0.274096
-0.298580
-0.323406
-0.344428
-0.351642
-0.316166
-0.176771
0.198602
1.072500
2.759591
5.032623
