# vtk DataFile Version 3.0
Vector Field
ASCII
DATASET RECTILINEAR_GRID
DIMENSIONS 50 50 1
X_COORDINATES 50 double
0.100000 0.300000 0.500000 0.700000 0.900000 1.100000 1.300000 1.500000 1.700000 1.900000 2.100000 2.300000 2.500000 2.700000 2.900000 3.100000 3.300000 3.500000 3.700000 3.900000 4.100000 4.300000 4.500000 4.700000 4.900000 5.100000 5.300000 5.500000 5.700000 5.900000 6.100000 6.300000 6.500000 6.700000 6.900000 7.100000 7.300000 7.500000 7.700000 7.900000 8.100000 8.300000 8.500000 8.700000 8.900000 9.100000 9.300000 9.500000 9.700000 9.900000 
Y_COORDINATES 50 double
0.100000 0.300000 0.500000 0.700000 0.900000 1.100000 1.300000 1.500000 1.700000 1.900000 2.100000 2.300000 2.500000 2.700000 2.900000 3.100000 3.300000 3.500000 3.700000 3.900000 4.100000 4.300000 4.500000 4.700000 4.900000 5.100000 5.300000 5.500000 5.700000 5.900000 6.100000 6.300000 6.500000 6.700000 6.900000 7.100000 7.300000 7.500000 7.700000 7.900000 8.100000 8.300000 8.500000 8.700000 8.900000 9.100000 9.300000 9.500000 9.700000 9.900000 
Z_COORDINATES 1 double
0.0
POINT_DATA 2500
VECTORS Vektorfeld double
-0.000217 0.000217 0.0
-0.000989 0.000555 0.0
-0.002256 0.000713 0.0
-0.003740 0.000771 0.0
-0.005298 0.000788 0.0
-0.006879 0.000793 0.0
-0.008467 0.000796 0.0
-0.010062 0.000799 0.0
-0.011663 0.000803 0.0
-0.013273 0.000807 0.0
-0.014892 0.000812 0.0
-0.016520 0.000816 0.0
-0.018156 0.000820 0.0
-0.019798 0.000823 0.0
-0.021445 0.000824 0.0
-0.023094 0.000824 0.0
-0.024740 0.000822 0.0
-0.026379 0.000817 0.0
-0.028005 0.000809 0.0
-0.029610 0.000796 0.0
-0.031185 0.000779 0.0
-0.032721 0.000757 0.0
-0.034205 0.000728 0.0
-0.035624 0.000691 0.0
-0.036962 0.000647 0.0
-0.038201 0.000593 0.0
-0.039324 0.000529 0.0
-0.040308 0.000455 0.0
-0.041133 0.000370 0.0
-0.041775 0.000272 0.0
-0.042211 0.000164 0.0
-0.042418 0.000043 0.0
-0.042373 -0.000088 0.0
-0.042053 -0.000232 0.0
-0.041435 -0.000387 0.0
-0.040498 -0.000550 0.0
-0.039228 -0.000719 0.0
-0.037617 -0.000892 0.0
-0.035662 -0.001064 0.0
-0.033365 -0.001233 0.0
-0.030738 -0.001394 0.0
-0.027798 -0.001545 0.0
-0.024572 -0.001681 0.0
-0.021092 -0.001799 0.0
-0.017402 -0.001892 0.0
-0.013561 -0.001949 0.0
-0.009668 -0.001944 0.0
-0.005906 -0.001817 0.0
-0.002649 -0.001440 0.0
-0.000605 -0.000605 0.0
-0.000577 0.001011 0.0
-0.002299 0.002254 0.0
-0.004859 0.002841 0.0
-0.007803 0.003071 0.0
-0.010905 0.003148 0.0
-0.014062 0.003171 0.0
-0.017238 0.003182 0.0
-0.020421 0.003190 0.0
-0.023608 0.003200 0.0
-0.026798 0.003210 0.0
-0.029988 0.003219 0.0
-0.033177 0.003226 0.0
-0.036361 0.003230 0.0
-0.039535 0.003230 0.0
-0.042694 0.003223 0.0
-0.045831 0.003210 0.0
-0.048935 0.003187 0.0
-0.051998 0.003153 0.0
-0.055006 0.003106 0.0
-0.057944 0.003042 0.0
-0.060795 0.002960 0.0
-0.063540 0.002856 0.0
-0.066157 0.002728 0.0
-0.068620 0.002572 0.0
-0.070902 0.002385 0.0
-0.072972 0.002165 0.0
-0.074799 0.001907 0.0
-0.076347 0.001610 0.0
-0.077579 0.001272 0.0
-0.078458 0.000891 0.0
-0.078946 0.000468 0.0
-0.079004 0.000004 0.0
-0.078594 -0.000503 0.0
-0.077680 -0.001051 0.0
-0.076233 -0.001633 0.0
-0.074231 -0.002243 0.0
-0.071655 -0.002872 0.0
-0.068497 -0.003508 0.0
-0.064759 -0.004142 0.0
-0.060450 -0.004760 0.0
-0.055594 -0.005350 0.0
-0.050223 -0.005899 0.0
-0.044382 -0.006394 0.0
-0.038129 -0.006819 0.0
-0.031538 -0.007153 0.0
-0.024715 -0.007352 0.0
-0.017828 -0.007321 0.0
-0.011178 -0.006853 0.0
-0.005326 -0.005513 0.0
-0.001346 -0.002555 0.0
-0.000766 0.002353 0.0
-0.002987 0.004855 0.0
-0.006208 0.006021 0.0
-0.009868 0.006495 0.0
-0.013707 0.006664 0.0
-0.017613 0.006718 0.0
-0.021540 0.006738 0.0
-0.025471 0.006749 0.0
-0.029400 0.006758 0.0
-0.033323 0.006764 0.0
-0.037236 0.006768 0.0
-0.041136 0.006765 0.0
-0.045016 0.006754 0.0
-0.048870 0.006733 0.0
-0.052690 0.006699 0.0
-0.056466 0.006647 0.0
-0.060187 0.006576 0.0
-0.063841 0.006480 0.0
-0.067410 0.006356 0.0
-0.070877 0.006198 0.0
-0.074222 0.006001 0.0
-0.077422 0.005760 0.0
-0.080450 0.005469 0.0
-0.083277 0.005122 0.0
-0.085871 0.004713 0.0
-0.088199 0.004236 0.0
-0.090221 0.003685 0.0
-0.091900 0.003058 0.0
-0.093193 0.002349 0.0
-0.094057 0.001557 0.0
-0.094449 0.000682 0.0
-0.094326 -0.000275 0.0
-0.093648 -0.001313 0.0
-0.092380 -0.002423 0.0
-0.090492 -0.003595 0.0
-0.087960 -0.004816 0.0
-0.084768 -0.006067 0.0
-0.080910 -0.007329 0.0
-0.076389 -0.008581 0.0
-0.071221 -0.009798 0.0
-0.065433 -0.010956 0.0
-0.059066 -0.012031 0.0
-0.052171 -0.012997 0.0
-0.044817 -0.013824 0.0
-0.037090 -0.014467 0.0
-0.029111 -0.014840 0.0
-0.021068 -0.014763 0.0
-0.013286 -0.013843 0.0
-0.006389 -0.011272 0.0
-0.001632 -0.005534 0.0
-0.000847 0.003966 0.0
-0.003299 0.007916 0.0
-0.006835 0.009717 0.0
-0.010830 0.010454 0.0
-0.015007 0.010722 0.0
-0.019249 0.010808 0.0
-0.023510 0.010836 0.0
-0.027773 0.010845 0.0
-0.032030 0.010847 0.0
-0.036275 0.010843 0.0
-0.040505 0.010832 0.0
-0.044714 0.010809 0.0
-0.048895 0.010772 0.0
-0.053041 0.010716 0.0
-0.057144 0.010638 0.0
-0.061192 0.010533 0.0
-0.065174 0.010394 0.0
-0.069076 0.010216 0.0
-0.072880 0.009993 0.0
-0.076568 0.009716 0.0
-0.080118 0.009378 0.0
-0.083506 0.008971 0.0
-0.086705 0.008485 0.0
-0.089684 0.007912 0.0
-0.092410 0.007243 0.0
-0.094848 0.006469 0.0
-0.096957 0.005583 0.0
-0.098696 0.004578 0.0
-0.100022 0.003448 0.0
-0.100890 0.002191 0.0
-0.101255 0.000806 0.0
-0.101071 -0.000705 0.0
-0.100299 -0.002334 0.0
-0.098900 -0.004069 0.0
-0.096842 -0.005895 0.0
-0.094101 -0.007790 0.0
-0.090657 -0.009728 0.0
-0.086504 -0.011679 0.0
-0.081646 -0.013610 0.0
-0.076100 -0.015483 0.0
-0.069895 -0.017263 0.0
-0.063075 -0.018911 0.0
-0.055698 -0.020389 0.0
-0.047835 -0.021648 0.0
-0.039581 -0.022622 0.0
-0.031064 -0.023181 0.0
-0.022480 -0.023050 0.0
-0.014172 -0.021645 0.0
-0.006801 -0.017737 0.0
-0.001730 -0.008896 0.0
-0.000876 0.005690 0.0
-0.003420 0.011188 0.0
-0.007092 0.013652 0.0
-0.011233 0.014655 0.0
-0.015556 0.015020 0.0
-0.019941 0.015137 0.0
-0.024343 0.015170 0.0
-0.028746 0.015176 0.0
-0.033141 0.015168 0.0
-0.037524 0.015151 0.0
-0.041889 0.015120 0.0
-0.046231 0.015072 0.0
-0.050545 0.015003 0.0
-0.054821 0.014908 0.0
-0.059052 0.014780 0.0
-0.063227 0.014614 0.0
-0.067334 0.014402 0.0
-0.071359 0.014135 0.0
-0.075286 0.013805 0.0
-0.079094 0.013401 0.0
-0.082764 0.012913 0.0
-0.086271 0.012330 0.0
-0.089587 0.011640 0.0
-0.092682 0.010831 0.0
-0.095522 0.009891 0.0
-0.098070 0.008807 0.0
-0.100286 0.007571 0.0
-0.102127 0.006171 0.0
-0.103549 0.004602 0.0
-0.104503 0.002859 0.0
-0.104943 0.000942 0.0
-0.104821 -0.001146 0.0
-0.104091 -0.003394 0.0
-0.102713 -0.005786 0.0
-0.100648 -0.008300 0.0
-0.097867 -0.010908 0.0
-0.094347 -0.013573 0.0
-0.090078 -0.016255 0.0
-0.085062 -0.018907 0.0
-0.079315 -0.021480 0.0
-0.072866 -0.023921 0.0
-0.065762 -0.026178 0.0
-0.058066 -0.028197 0.0
-0.049855 -0.029914 0.0
-0.041231 -0.031235 0.0
-0.032332 -0.031985 0.0
-0.023366 -0.031796 0.0
-0.014695 -0.029879 0.0
-0.007021 -0.024549 0.0
-0.001775 -0.012401 0.0
-0.000884 0.007450 0.0
-0.003457 0.014545 0.0
-0.007181 0.017690 0.0
-0.011382 0.018960 0.0
-0.015765 0.019420 0.0
-0.020209 0.019566 0.0
-0.024670 0.019605 0.0
-0.029131 0.019606 0.0
-0.033586 0.019589 0.0
-0.038030 0.019557 0.0
-0.042458 0.019507 0.0
-0.046865 0.019435 0.0
-0.051246 0.019334 0.0
-0.055593 0.019200 0.0
-0.059898 0.019024 0.0
-0.064152 0.018799 0.0
-0.068343 0.018515 0.0
-0.072457 0.018161 0.0
-0.076478 0.017727 0.0
-0.080390 0.017199 0.0
-0.084171 0.016565 0.0
-0.087796 0.015810 0.0
-0.091239 0.014920 0.0
-0.094471 0.013878 0.0
-0.097455 0.012669 0.0
-0.100156 0.011278 0.0
-0.102532 0.009692 0.0
-0.104538 0.007898 0.0
-0.106127 0.005886 0.0
-0.107249 0.003651 0.0
-0.107852 0.001192 0.0
-0.107883 -0.001487 0.0
-0.107292 -0.004373 0.0
-0.106029 -0.007448 0.0
-0.104051 -0.010682 0.0
-0.101318 -0.014040 0.0
-0.097803 -0.017476 0.0
-0.093490 -0.020935 0.0
-0.088375 -0.024358 0.0
-0.082471 -0.027679 0.0
-0.075811 -0.030830 0.0
-0.068442 -0.033741 0.0
-0.060432 -0.036340 0.0
-0.051869 -0.038544 0.0
-0.042865 -0.040232 0.0
-0.033571 -0.041181 0.0
-0.024213 -0.040924 0.0
-0.015182 -0.038454 0.0
-0.007219 -0.031612 0.0
-0.001814 -0.015989 0.0
-0.000883 0.009216 0.0
-0.003461 0.017931 0.0
-0.007201 0.021767 0.0
-0.011426 0.023308 0.0
-0.015834 0.023863 0.0
-0.020305 0.024038 0.0
-0.024793 0.024082 0.0
-0.029283 0.024080 0.0
-0.033768 0.024055 0.0
-0.038246 0.024011 0.0
-0.042712 0.023946 0.0
-0.047161 0.023852 0.0
-0.051589 0.023725 0.0
-0.055990 0.023557 0.0
-0.060356 0.023339 0.0
-0.064679 0.023061 0.0
-0.068948 0.022712 0.0
-0.073151 0.022280 0.0
-0.077273 0.021751 0.0
-0.081297 0.021110 0.0
-0.085203 0.020341 0.0
-0.088969 0.019426 0.0
-0.092569 0.018347 0.0
-0.095971 0.017084 0.0
-0.099142 0.015618 0.0
-0.102044 0.013931 0.0
-0.104635 0.012005 0.0
-0.106866 0.009823 0.0
-0.108689 0.007372 0.0
-0.110048 0.004645 0.0
-0.110886 0.001638 0.0
-0.111144 -0.001644 0.0
-0.110764 -0.005189 0.0
-0.109685 -0.008973 0.0
-0.107855 -0.012965 0.0
-0.105225 -0.017119 0.0
-0.101758 -0.021378 0.0
-0.097428 -0.025676 0.0
-0.092227 -0.029934 0.0
-0.086163 -0.034070 0.0
-0.079268 -0.037995 0.0
-0.071593 -0.041620 0.0
-0.063214 -0.044850 0.0
-0.054231 -0.047580 0.0
-0.044771 -0.049659 0.0
-0.035007 -0.050812 0.0
-0.025188 -0.050468 0.0
-0.015739 -0.047391 0.0
-0.007446 -0.038930 0.0
-0.001859 -0.019663 0.0
-0.000879 0.010977 0.0
-0.003453 0.021323 0.0
-0.007197 0.025859 0.0
-0.011430 0.027675 0.0
-0.015851 0.028326 0.0
-0.020336 0.028531 0.0
-0.024841 0.028582 0.0
-0.029350 0.028579 0.0
-0.033857 0.028550 0.0
-0.038361 0.028498 0.0
-0.042859 0.028422 0.0
-0.047346 0.028313 0.0
-0.051818 0.028166 0.0
-0.056272 0.027971 0.0
-0.060700 0.027719 0.0
-0.065096 0.027399 0.0
-0.069450 0.026997 0.0
-0.073751 0.026499 0.0
-0.077986 0.025890 0.0
-0.082141 0.025150 0.0
-0.086195 0.024262 0.0
-0.090128 0.023204 0.0
-0.093915 0.021954 0.0
-0.097525 0.020489 0.0
-0.100924 0.018784 0.0
-0.104075 0.016818 0.0
-0.106932 0.014566 0.0
-0.109447 0.012008 0.0
-0.111565 0.009127 0.0
-0.113226 0.005911 0.0
-0.114367 0.002352 0.0
-0.114921 -0.001546 0.0
-0.114816 -0.005772 0.0
-0.113985 -0.010300 0.0
-0.112359 -0.015094 0.0
-0.109879 -0.020100 0.0
-0.106493 -0.025250 0.0
-0.102165 -0.030462 0.0
-0.096875 -0.035639 0.0
-0.090629 -0.040676 0.0
-0.083455 -0.045460 0.0
-0.075409 -0.049875 0.0
-0.066579 -0.053804 0.0
-0.057078 -0.057110 0.0
-0.047058 -0.059609 0.0
-0.036717 -0.060968 0.0
-0.026340 -0.060506 0.0
-0.016390 -0.056751 0.0
-0.007709 -0.046544 0.0
-0.001911 -0.023433 0.0
-0.000874 0.012731 0.0
-0.003441 0.024711 0.0
-0.007182 0.029955 0.0
-0.011420 0.032050 0.0
-0.015849 0.032800 0.0
-0.020345 0.033037 0.0
-0.024863 0.033098 0.0
-0.029388 0.033097 0.0
-0.033917 0.033068 0.0
-0.038446 0.033014 0.0
-0.042974 0.032932 0.0
-0.047500 0.032815 0.0
-0.052019 0.032656 0.0
-0.056529 0.032444 0.0
-0.061025 0.032170 0.0
-0.065500 0.031819 0.0
-0.069949 0.031378 0.0
-0.074360 0.030831 0.0
-0.078724 0.030158 0.0
-0.083027 0.029339 0.0
-0.087251 0.028353 0.0
-0.091378 0.027173 0.0
-0.095381 0.025775 0.0
-0.099235 0.024131 0.0
-0.102903 0.022211 0.0
-0.106348 0.019987 0.0
-0.109524 0.017430 0.0
-0.112379 0.014514 0.0
-0.114855 0.011215 0.0
-0.116887 0.007515 0.0
-0.118401 0.003403 0.0
-0.119322 -0.001123 0.0
-0.119566 -0.006054 0.0
-0.119051 -0.011365 0.0
-0.117694 -0.017013 0.0
-0.115416 -0.022939 0.0
-0.112151 -0.029063 0.0
-0.107844 -0.035284 0.0
-0.102466 -0.041485 0.0
-0.096010 -0.047532 0.0
-0.088503 -0.053284 0.0
-0.080008 -0.058592 0.0
-0.070623 -0.063303 0.0
-0.060486 -0.067248 0.0
-0.049777 -0.070200 0.0
-0.038733 -0.071763 0.0
-0.027681 -0.071140 0.0
-0.017136 -0.066613 0.0
-0.008001 -0.054499 0.0
-0.001966 -0.027311 0.0
-0.000868 0.014473 0.0
-0.003426 0.028093 0.0
-0.007163 0.034052 0.0
-0.011403 0.036431 0.0
-0.015838 0.037283 0.0
-0.020343 0.037555 0.0
-0.024874 0.037628 0.0
-0.029415 0.037634 0.0
-0.033964 0.037609 0.0
-0.038519 0.037558 0.0
-0.043080 0.037477 0.0
-0.047646 0.037361 0.0
-0.052215 0.037199 0.0
-0.056785 0.036982 0.0
-0.061353 0.036697 0.0
-0.065916 0.036331 0.0
-0.070467 0.035867 0.0
-0.075001 0.035287 0.0
-0.079507 0.034571 0.0
-0.083975 0.033696 0.0
-0.088389 0.032635 0.0
-0.092733 0.031361 0.0
-0.096984 0.029842 0.0
-0.101114 0.028047 0.0
-0.105091 0.025941 0.0
-0.108877 0.023488 0.0
-0.112425 0.020653 0.0
-0.115680 0.017402 0.0
-0.118580 0.013704 0.0
-0.121054 0.009532 0.0
-0.123020 0.004868 0.0
-0.124391 -0.000297 0.0
-0.125069 -0.005958 0.0
-0.124953 -0.012091 0.0
-0.123942 -0.018655 0.0
-0.121936 -0.025581 0.0
-0.118845 -0.032778 0.0
-0.114593 -0.040127 0.0
-0.109131 -0.047483 0.0
-0.102440 -0.054681 0.0
-0.094542 -0.061540 0.0
-0.085503 -0.067870 0.0
-0.075441 -0.073472 0.0
-0.064522 -0.078134 0.0
-0.052970 -0.081575 0.0
-0.041069 -0.083333 0.0
-0.029207 -0.082484 0.0
-0.017961 -0.077059 0.0
-0.008310 -0.062839 0.0
-0.002019 -0.031296 0.0
-0.000862 0.016203 0.0
-0.003408 0.031466 0.0
-0.007140 0.038148 0.0
-0.011380 0.040816 0.0
-0.015820 0.041774 0.0
-0.020334 0.042083 0.0
-0.024876 0.042172 0.0
-0.029433 0.042189 0.0
-0.034003 0.042172 0.0
-0.038584 0.042131 0.0
-0.043178 0.042059 0.0
-0.047785 0.041951 0.0
-0.052405 0.041797 0.0
-0.057038 0.041586 0.0
-0.061683 0.041305 0.0
-0.066338 0.040939 0.0
-0.071000 0.040471 0.0
-0.075664 0.039881 0.0
-0.080324 0.039145 0.0
-0.084971 0.038238 0.0
-0.089594 0.037131 0.0
-0.094177 0.035792 0.0
-0.098702 0.034186 0.0
-0.103142 0.032274 0.0
-0.107468 0.030017 0.0
-0.111641 0.027370 0.0
-0.115615 0.024291 0.0
-0.119333 0.020737 0.0
-0.122729 0.016666 0.0
-0.125726 0.012041 0.0
-0.128233 0.006833 0.0
-0.130150 0.001024 0.0
-0.131362 -0.005389 0.0
-0.131749 -0.012388 0.0
-0.131185 -0.019933 0.0
-0.129541 -0.027952 0.0
-0.126698 -0.036341 0.0
-0.122551 -0.044961 0.0
-0.117025 -0.053637 0.0
-0.110078 -0.062164 0.0
-0.101725 -0.070310 0.0
-0.092034 -0.077829 0.0
-0.081146 -0.084464 0.0
-0.069267 -0.089940 0.0
-0.056677 -0.093913 0.0
-0.043733 -0.095840 0.0
-0.030901 -0.094671 0.0
-0.018841 -0.088178 0.0
-0.008612 -0.071600 0.0
-0.002061 -0.035377 0.0
-0.000854 0.017919 0.0
-0.003387 0.034829 0.0
-0.007111 0.042240 0.0
-0.011350 0.045203 0.0
-0.015794 0.046270 0.0
-0.020315 0.046621 0.0
-0.024868 0.046730 0.0
-0.029440 0.046760 0.0
-0.034028 0.046759 0.0
-0.038635 0.046732 0.0
-0.043262 0.046678 0.0
-0.047910 0.046588 0.0
-0.052582 0.046453 0.0
-0.057279 0.046261 0.0
-0.062002 0.045999 0.0
-0.066752 0.045651 0.0
-0.071528 0.045198 0.0
-0.076329 0.044619 0.0
-0.081152 0.043889 0.0
-0.085990 0.042979 0.0
-0.090837 0.041859 0.0
-0.095680 0.040490 0.0
-0.100503 0.038835 0.0
-0.105285 0.036848 0.0
-0.109997 0.034481 0.0
-0.114603 0.031685 0.0
-0.119059 0.028406 0.0
-0.123307 0.024589 0.0
-0.127277 0.020181 0.0
-0.130887 0.015132 0.0
-0.134037 0.009399 0.0
-0.136610 0.002949 0.0
-0.138479 -0.004232 0.0
-0.139497 -0.012140 0.0
-0.139506 -0.020737 0.0
-0.138345 -0.029953 0.0
-0.135854 -0.039674 0.0
-0.131891 -0.049739 0.0
-0.126338 -0.059939 0.0
-0.119127 -0.070019 0.0
-0.110250 -0.079685 0.0
-0.099780 -0.088614 0.0
-0.087881 -0.096466 0.0
-0.074816 -0.102881 0.0
-0.060944 -0.107432 0.0
-0.046725 -0.109484 0.0
-0.032732 -0.107853 0.0
-0.019730 -0.100059 0.0
-0.008875 -0.080803 0.0
-0.002081 -0.039519 0.0
-0.000845 0.019619 0.0
-0.003362 0.038179 0.0
-0.007076 0.046328 0.0
-0.011312 0.049591 0.0
-0.015758 0.050772 0.0
-0.020284 0.051166 0.0
-0.024846 0.051298 0.0
-0.029430 0.051348 0.0
-0.034036 0.051366 0.0
-0.038666 0.051362 0.0
-0.043323 0.051332 0.0
-0.048011 0.051270 0.0
-0.052733 0.051165 0.0
-0.057493 0.051005 0.0
-0.062294 0.050778 0.0
-0.067139 0.050467 0.0
-0.072032 0.050051 0.0
-0.076973 0.049508 0.0
-0.081964 0.048813 0.0
-0.087002 0.047933 0.0
-0.092084 0.046834 0.0
-0.097202 0.045476 0.0
-0.102345 0.043815 0.0
-0.107496 0.041800 0.0
-0.112631 0.039376 0.0
-0.117717 0.036483 0.0
-0.122711 0.033057 0.0
-0.127558 0.029031 0.0
-0.132186 0.024337 0.0
-0.136508 0.018907 0.0
-0.140416 0.012680 0.0
-0.143781 0.005606 0.0
-0.146452 -0.002350 0.0
-0.148254 -0.011202 0.0
-0.148998 -0.020923 0.0
-0.148477 -0.031449 0.0
-0.146484 -0.042661 0.0
-0.142819 -0.054380 0.0
-0.137312 -0.066357 0.0
-0.129845 -0.078279 0.0
-0.120379 -0.089768 0.0
-0.108979 -0.100400 0.0
-0.095840 -0.109718 0.0
-0.081296 -0.117239 0.0
-0.065824 -0.122419 0.0
-0.050027 -0.124513 0.0
-0.034636 -0.122208 0.0
-0.020555 -0.112787 0.0
-0.009046 -0.090438 0.0
-0.002061 -0.043662 0.0
-0.000835 0.021299 0.0
-0.003333 0.041513 0.0
-0.007033 0.050409 0.0
-0.011264 0.053978 0.0
-0.015710 0.055276 0.0
-0.020239 0.055717 0.0
-0.024806 0.055876 0.0
-0.029400 0.055949 0.0
-0.034020 0.055992 0.0
-0.038670 0.056016 0.0
-0.043354 0.056019 0.0
-0.048078 0.055994 0.0
-0.052846 0.055931 0.0
-0.057665 0.055818 0.0
-0.062541 0.055642 0.0
-0.067479 0.055387 0.0
-0.072487 0.055031 0.0
-0.077568 0.054551 0.0
-0.082728 0.053920 0.0
-0.087969 0.053105 0.0
-0.093294 0.052068 0.0
-0.098699 0.050766 0.0
-0.104179 0.049149 0.0
-0.109723 0.047161 0.0
-0.115313 0.044740 0.0
-0.120922 0.041815 0.0
-0.126511 0.038309 0.0
-0.132027 0.034143 0.0
-0.137402 0.029228 0.0
-0.142544 0.023479 0.0
-0.147339 0.016811 0.0
-0.151645 0.009147 0.0
-0.155290 0.000425 0.0
-0.158070 -0.009394 0.0
-0.159753 -0.020304 0.0
-0.160083 -0.032259 0.0
-0.158786 -0.045142 0.0
-0.155590 -0.058760 0.0
-0.150248 -0.072826 0.0
-0.142568 -0.086957 0.0
-0.132456 -0.100669 0.0
-0.119954 -0.113401 0.0
-0.105285 -0.124526 0.0
-0.088877 -0.133382 0.0
-0.071373 -0.139253 0.0
-0.053594 -0.141254 0.0
-0.036502 -0.137949 0.0
-0.021193 -0.126435 0.0
-0.009039 -0.100453 0.0
-0.001973 -0.047696 0.0
-0.000823 0.022957 0.0
-0.003299 0.044827 0.0
-0.006983 0.054479 0.0
-0.011205 0.058361 0.0
-0.015647 0.059780 0.0
-0.020175 0.060271 0.0
-0.024745 0.060459 0.0
-0.029345 0.060559 0.0
-0.033975 0.060632 0.0
-0.038640 0.060691 0.0
-0.043346 0.060734 0.0
-0.048100 0.060756 0.0
-0.052909 0.060746 0.0
-0.057781 0.060694 0.0
-0.062725 0.060587 0.0
-0.067751 0.060407 0.0
-0.072867 0.060134 0.0
-0.078084 0.059746 0.0
-0.083410 0.059212 0.0
-0.088854 0.058499 0.0
-0.094423 0.057567 0.0
-0.100121 0.056370 0.0
-0.105950 0.054854 0.0
-0.111905 0.052956 0.0
-0.117977 0.050607 0.0
-0.124147 0.047726 0.0
-0.130383 0.044223 0.0
-0.136639 0.040002 0.0
-0.142850 0.034955 0.0
-0.148926 0.028971 0.0
-0.154749 0.021937 0.0
-0.160166 0.013743 0.0
-0.164985 0.004292 0.0
-0.168977 -0.006489 0.0
-0.171862 -0.018640 0.0
-0.173316 -0.032139 0.0
-0.172987 -0.046887 0.0
-0.170509 -0.062689 0.0
-0.165524 -0.079224 0.0
-0.157734 -0.096029 0.0
-0.146947 -0.112496 0.0
-0.133153 -0.127871 0.0
-0.116590 -0.141288 0.0
-0.097806 -0.151811 0.0
-0.077673 -0.158461 0.0
-0.057347 -0.160151 0.0
-0.038148 -0.155344 0.0
-0.021447 -0.141051 0.0
-0.008722 -0.110716 0.0
-0.001776 -0.051445 0.0
-0.000810 0.024591 0.0
-0.003259 0.048119 0.0
-0.006923 0.058536 0.0
-0.011133 0.062737 0.0
-0.015568 0.064280 0.0
-0.020092 0.064824 0.0
-0.024660 0.065044 0.0
-0.029260 0.065174 0.0
-0.033895 0.065281 0.0
-0.038569 0.065381 0.0
-0.043290 0.065472 0.0
-0.048066 0.065549 0.0
-0.052908 0.065603 0.0
-0.057824 0.065626 0.0
-0.062828 0.065603 0.0
-0.067931 0.065519 0.0
-0.073148 0.065354 0.0
-0.078490 0.065085 0.0
-0.083975 0.064682 0.0
-0.089614 0.064112 0.0
-0.095422 0.063331 0.0
-0.101412 0.062293 0.0
-0.107593 0.060940 0.0
-0.113970 0.059203 0.0
-0.120544 0.057006 0.0
-0.127306 0.054258 0.0
-0.134235 0.050856 0.0
-0.141296 0.046686 0.0
-0.148432 0.041618 0.0
-0.155561 0.035513 0.0
-0.162565 0.028223 0.0
-0.169288 0.019598 0.0
-0.175524 0.009492 0.0
-0.181005 -0.002217 0.0
-0.185403 -0.015630 0.0
-0.188331 -0.030768 0.0
-0.189340 -0.047578 0.0
-0.187935 -0.065881 0.0
-0.183615 -0.085337 0.0
-0.175915 -0.105407 0.0
-0.164491 -0.125328 0.0
-0.149221 -0.144102 0.0
-0.130325 -0.160517 0.0
-0.108478 -0.173215 0.0
-0.084878 -0.180790 0.0
-0.061183 -0.181843 0.0
-0.039289 -0.174746 0.0
-0.021003 -0.156637 0.0
-0.007891 -0.120967 0.0
-0.001406 -0.054627 0.0
-0.000795 0.026196 0.0
-0.003215 0.051383 0.0
-0.006854 0.062575 0.0
-0.011048 0.067102 0.0
-0.015471 0.068772 0.0
-0.019987 0.069371 0.0
-0.024548 0.069626 0.0
-0.029143 0.069788 0.0
-0.033775 0.069934 0.0
-0.038451 0.070078 0.0
-0.043178 0.070223 0.0
-0.047968 0.070363 0.0
-0.052831 0.070493 0.0
-0.057781 0.070603 0.0
-0.062832 0.070681 0.0
-0.067999 0.070712 0.0
-0.073301 0.070679 0.0
-0.078756 0.070558 0.0
-0.084384 0.070321 0.0
-0.090205 0.069934 0.0
-0.096241 0.069354 0.0
-0.102513 0.068532 0.0
-0.109040 0.067408 0.0
-0.115839 0.065911 0.0
-0.122923 0.063956 0.0
-0.130297 0.061443 0.0
-0.137955 0.058258 0.0
-0.145878 0.054267 0.0
-0.154023 0.049318 0.0
-0.162321 0.043239 0.0
-0.170664 0.035844 0.0
-0.178898 0.026933 0.0
-0.186806 0.016301 0.0
-0.194098 0.003748 0.0
-0.200407 -0.010887 0.0
-0.205266 -0.027724 0.0
-0.208106 -0.046774 0.0
-0.208284 -0.067913 0.0
-0.205099 -0.090812 0.0
-0.197857 -0.114874 0.0
-0.185972 -0.139169 0.0
-0.169115 -0.162387 0.0
-0.147407 -0.182836 0.0
-0.121630 -0.198519 0.0
-0.093388 -0.207328 0.0
-0.065090 -0.207299 0.0
-0.039579 -0.196694 0.0
-0.019414 -0.173140 0.0
-0.006250 -0.130739 0.0
-0.000779 -0.056811 0.0
-0.000778 0.027769 0.0
-0.003165 0.054615 0.0
-0.006775 0.066593 0.0
-0.010949 0.071452 0.0
-0.015357 0.073253 0.0
-0.019858 0.073908 0.0
-0.024407 0.074198 0.0
-0.028991 0.074395 0.0
-0.033613 0.074581 0.0
-0.038281 0.074775 0.0
-0.043005 0.074978 0.0
-0.047796 0.075189 0.0
-0.052668 0.075403 0.0
-0.057637 0.075611 0.0
-0.062718 0.075805 0.0
-0.067933 0.075970 0.0
-0.073302 0.076092 0.0
-0.078849 0.076147 0.0
-0.084599 0.076110 0.0
-0.090581 0.075948 0.0
-0.096824 0.075619 0.0
-0.103358 0.075073 0.0
-0.110214 0.074251 0.0
-0.117423 0.073077 0.0
-0.125012 0.071463 0.0
-0.133003 0.069302 0.0
-0.141411 0.066467 0.0
-0.150237 0.062807 0.0
-0.159460 0.058147 0.0
-0.169035 0.052282 0.0
-0.178872 0.044982 0.0
-0.188832 0.035989 0.0
-0.198704 0.025024 0.0
-0.208190 0.011803 0.0
-0.216877 -0.003945 0.0
-0.224220 -0.022464 0.0
-0.229539 -0.043874 0.0
-0.232008 -0.068166 0.0
-0.230674 -0.095077 0.0
-0.224532 -0.123993 0.0
-0.212640 -0.153827 0.0
-0.194320 -0.182906 0.0
-0.169446 -0.208900 0.0
-0.138793 -0.228886 0.0
-0.104384 -0.239612 0.0
-0.069633 -0.238064 0.0
-0.038914 -0.222158 0.0
-0.016211 -0.190544 0.0
-0.003437 -0.139273 0.0
0.000202 -0.057388 0.0
-0.000760 0.029307 0.0
-0.003109 0.057812 0.0
-0.006687 0.070585 0.0
-0.010836 0.075783 0.0
-0.015223 0.077717 0.0
-0.019707 0.078429 0.0
-0.024236 0.078755 0.0
-0.028801 0.078988 0.0
-0.033405 0.079215 0.0
-0.038056 0.079460 0.0
-0.042764 0.079726 0.0
-0.047544 0.080013 0.0
-0.052409 0.080317 0.0
-0.057379 0.080634 0.0
-0.062472 0.080956 0.0
-0.067712 0.081273 0.0
-0.073125 0.081570 0.0
-0.078738 0.081829 0.0
-0.084583 0.082025 0.0
-0.090696 0.082128 0.0
-0.097115 0.082100 0.0
-0.103881 0.081892 0.0
-0.111036 0.081444 0.0
-0.118627 0.080683 0.0
-0.126698 0.079517 0.0
-0.135293 0.077834 0.0
-0.144450 0.075499 0.0
-0.154198 0.072347 0.0
-0.164548 0.068180 0.0
-0.175485 0.062761 0.0
-0.186958 0.055813 0.0
-0.198856 0.047016 0.0
-0.210992 0.036006 0.0
-0.223073 0.022388 0.0
-0.234667 0.005750 0.0
-0.245189 -0.014294 0.0
-0.253834 -0.038080 0.0
-0.259565 -0.065761 0.0
-0.261151 -0.097230 0.0
-0.257196 -0.131936 0.0
-0.246287 -0.168685 0.0
-0.227225 -0.205429 0.0
-0.199393 -0.239083 0.0
-0.163271 -0.265479 0.0
-0.121068 -0.279629 0.0
-0.077277 -0.276589 0.0
-0.038492 -0.253136 0.0
-0.011469 -0.209291 0.0
0.000795 -0.145564 0.0
0.001622 -0.055564 0.0
-0.000740 0.030807 0.0
-0.003048 0.060969 0.0
-0.006589 0.074547 0.0
-0.010710 0.080090 0.0
-0.015073 0.082160 0.0
-0.019532 0.082928 0.0
-0.024036 0.083289 0.0
-0.028574 0.083557 0.0
-0.033150 0.083825 0.0
-0.037772 0.084122 0.0
-0.042452 0.084452 0.0
-0.047205 0.084818 0.0
-0.052047 0.085219 0.0
-0.056997 0.085653 0.0
-0.062080 0.086114 0.0
-0.067319 0.086595 0.0
-0.072746 0.087087 0.0
-0.078394 0.087572 0.0
-0.084300 0.088032 0.0
-0.090506 0.088440 0.0
-0.097060 0.088761 0.0
-0.104013 0.088950 0.0
-0.111423 0.088951 0.0
-0.119350 0.088694 0.0
-0.127860 0.088087 0.0
-0.137021 0.087019 0.0
-0.146898 0.085349 0.0
-0.157556 0.082903 0.0
-0.169047 0.079464 0.0
-0.181401 0.074769 0.0
-0.194617 0.068494 0.0
-0.208640 0.060255 0.0
-0.223332 0.049595 0.0
-0.238445 0.035992 0.0
-0.253571 0.018867 0.0
-0.268077 -0.002383 0.0
-0.281070 -0.028353 0.0
-0.291361 -0.059466 0.0
-0.297423 -0.095877 0.0
-0.297452 -0.137214 0.0
-0.289486 -0.182282 0.0
-0.271628 -0.228752 0.0
-0.242415 -0.272804 0.0
-0.201478 -0.308819 0.0
-0.150566 -0.329404 0.0
-0.094760 -0.326412 0.0
-0.043169 -0.293689 0.0
-0.007356 -0.231574 0.0
0.006056 -0.148956 0.0
0.003499 -0.050442 0.0
-0.000719 0.032266 0.0
-0.002983 0.064082 0.0
-0.006484 0.078476 0.0
-0.010572 0.084371 0.0
-0.014906 0.086576 0.0
-0.019336 0.087400 0.0
-0.023808 0.087794 0.0
-0.028311 0.088094 0.0
-0.032849 0.088402 0.0
-0.037431 0.088749 0.0
-0.042068 0.089143 0.0
-0.046777 0.089589 0.0
-0.051575 0.090089 0.0
-0.056484 0.090643 0.0
-0.061529 0.091251 0.0
-0.066740 0.091908 0.0
-0.072148 0.092609 0.0
-0.077792 0.093342 0.0
-0.083716 0.094092 0.0
-0.089968 0.094839 0.0
-0.096605 0.095553 0.0
-0.103690 0.096196 0.0
-0.111292 0.096718 0.0
-0.119491 0.097054 0.0
-0.128372 0.097119 0.0
-0.138031 0.096806 0.0
-0.148567 0.095976 0.0
-0.160083 0.094451 0.0
-0.172682 0.092006 0.0
-0.186455 0.088355 0.0
-0.201471 0.083140 0.0
-0.217754 0.075914 0.0
-0.235255 0.066129 0.0
-0.253804 0.053122 0.0
-0.273062 0.036121 0.0
-0.292449 0.014256 0.0
-0.311078 -0.013369 0.0
-0.327639 -0.047598 0.0
-0.340400 -0.088922 0.0
-0.347242 -0.137299 0.0
-0.345658 -0.191747 0.0
-0.332839 -0.249965 0.0
-0.305955 -0.307688 0.0
-0.263011 -0.357817 0.0
-0.204352 -0.389976 0.0
-0.134524 -0.391474 0.0
-0.064147 -0.350594 0.0
-0.010614 -0.264015 0.0
0.010179 -0.150719 0.0
0.005499 -0.041444 0.0
-0.000696 0.033682 0.0
-0.002914 0.067148 0.0
-0.006372 0.082369 0.0
-0.010425 0.088620 0.0
-0.014726 0.090962 0.0
-0.019121 0.091839 0.0
-0.023555 0.092262 0.0
-0.028016 0.092590 0.0
-0.032505 0.092933 0.0
-0.037033 0.093327 0.0
-0.041612 0.093782 0.0
-0.046259 0.094305 0.0
-0.050992 0.094904 0.0
-0.055835 0.095580 0.0
-0.060814 0.096338 0.0
-0.065961 0.097178 0.0
-0.071313 0.098098 0.0
-0.076910 0.099094 0.0
-0.082803 0.100156 0.0
-0.089046 0.101270 0.0
-0.095703 0.102416 0.0
-0.102848 0.103562 0.0
-0.110565 0.104670 0.0
-0.118949 0.105684 0.0
-0.128108 0.106530 0.0
-0.138164 0.107111 0.0
-0.149254 0.107297 0.0
-0.161527 0.106919 0.0
-0.175142 0.105753 0.0
-0.190267 0.103506 0.0
-0.207058 0.099797 0.0
-0.225652 0.094134 0.0
-0.246127 0.085884 0.0
-0.268464 0.074252 0.0
-0.292473 0.058258 0.0
-0.317713 0.036746 0.0
-0.343389 0.008446 0.0
-0.368324 -0.027917 0.0
-0.390804 -0.073361 0.0
-0.408484 -0.128338 0.0
-0.418253 -0.192522 0.0
-0.415955 -0.264307 0.0
-0.396705 -0.339479 0.0
-0.356269 -0.409407 0.0
-0.293051 -0.460263 0.0
-0.209986 -0.474081 0.0
-0.116846 -0.431504 0.0
-0.034080 -0.319404 0.0
0.007581 -0.157785 0.0
0.006913 -0.029031 0.0
-0.000673 0.035051 0.0
-0.002843 0.070165 0.0
-0.006256 0.086223 0.0
-0.010272 0.092836 0.0
-0.014537 0.095313 0.0
-0.018894 0.096239 0.0
-0.023283 0.096685 0.0
-0.027692 0.097035 0.0
-0.032123 0.097408 0.0
-0.036584 0.097841 0.0
-0.041090 0.098351 0.0
-0.045655 0.098948 0.0
-0.050300 0.099640 0.0
-0.055050 0.100436 0.0
-0.059932 0.101343 0.0
-0.064979 0.102368 0.0
-0.070232 0.103513 0.0
-0.075734 0.104780 0.0
-0.081539 0.106168 0.0
-0.087709 0.107671 0.0
-0.094313 0.109277 0.0
-0.101435 0.110968 0.0
-0.109171 0.112716 0.0
-0.117631 0.114481 0.0
-0.126946 0.116205 0.0
-0.137264 0.117809 0.0
-0.148758 0.119183 0.0
-0.161627 0.120175 0.0
-0.176095 0.120580 0.0
-0.192411 0.120118 0.0
-0.210843 0.118409 0.0
-0.231669 0.114941 0.0
-0.255143 0.109028 0.0
-0.281463 0.099765 0.0
-0.310699 0.085990 0.0
-0.342714 0.066268 0.0
-0.377062 0.038947 0.0
-0.412851 0.002305 0.0
-0.448589 -0.045365 0.0
-0.481715 -0.105529 0.0
-0.507943 -0.179334 0.0
-0.520978 -0.266758 0.0
-0.513450 -0.363804 0.0
-0.479269 -0.459700 0.0
-0.415555 -0.536901 0.0
-0.323395 -0.572667 0.0
-0.209442 -0.540009 0.0
-0.091424 -0.411683 0.0
-0.010034 -0.188557 0.0
0.007247 -0.014871 0.0
-0.000650 0.036375 0.0
-0.002770 0.073132 0.0
-0.006138 0.090037 0.0
-0.010117 0.097016 0.0
-0.014345 0.099627 0.0
-0.018659 0.100595 0.0
-0.022999 0.101058 0.0
-0.027349 0.101421 0.0
-0.031710 0.101814 0.0
-0.036092 0.102279 0.0
-0.040507 0.102834 0.0
-0.044971 0.103494 0.0
-0.049504 0.104272 0.0
-0.054132 0.105181 0.0
-0.058883 0.106232 0.0
-0.063792 0.107436 0.0
-0.068900 0.108804 0.0
-0.074255 0.110345 0.0
-0.079912 0.112065 0.0
-0.085937 0.113968 0.0
-0.092406 0.116053 0.0
-0.099409 0.118317 0.0
-0.107052 0.120746 0.0
-0.115460 0.123320 0.0
-0.124780 0.126002 0.0
-0.135187 0.128738 0.0
-0.146888 0.131449 0.0
-0.160129 0.134018 0.0
-0.175199 0.136275 0.0
-0.192438 0.137977 0.0
-0.212236 0.138781 0.0
-0.235038 0.138196 0.0
-0.261326 0.135535 0.0
-0.291595 0.129847 0.0
-0.326309 0.119859 0.0
-0.365834 0.103939 0.0
-0.410317 0.080108 0.0
-0.459409 0.046025 0.0
-0.511609 -0.001147 0.0
-0.563278 -0.064953 0.0
-0.607893 -0.149066 0.0
-0.636546 -0.255338 0.0
-0.640318 -0.378980 0.0
-0.613188 -0.505836 0.0
-0.552526 -0.615141 0.0
-0.457788 -0.681326 0.0
-0.331193 -0.671898 0.0
-0.183184 -0.545822 0.0
-0.047875 -0.271117 0.0
0.005079 -0.002546 0.0
-0.000627 0.037651 0.0
-0.002700 0.076049 0.0
-0.006024 0.093812 0.0
-0.009965 0.101160 0.0
-0.014156 0.103902 0.0
-0.018426 0.104905 0.0
-0.022711 0.105374 0.0
-0.026995 0.105739 0.0
-0.031278 0.106140 0.0
-0.035567 0.106623 0.0
-0.039874 0.107211 0.0
-0.044217 0.107923 0.0
-0.048614 0.108774 0.0
-0.053090 0.109783 0.0
-0.057676 0.110966 0.0
-0.062406 0.112341 0.0
-0.067323 0.113924 0.0
-0.072474 0.115731 0.0
-0.077917 0.117779 0.0
-0.083720 0.120082 0.0
-0.089964 0.122652 0.0
-0.096742 0.125500 0.0
-0.104168 0.128632 0.0
-0.112376 0.132049 0.0
-0.121527 0.135743 0.0
-0.131816 0.139693 0.0
-0.143479 0.143859 0.0
-0.156802 0.148173 0.0
-0.172135 0.152523 0.0
-0.189905 0.156736 0.0
-0.210627 0.160544 0.0
-0.234929 0.163537 0.0
-0.263555 0.165108 0.0
-0.297383 0.164371 0.0
-0.337419 0.160085 0.0
-0.384745 0.150564 0.0
-0.440267 0.133489 0.0
-0.503940 0.105410 0.0