# vtk DataFile Version 3.0
Scalar Field
ASCII
DATASET RECTILINEAR_GRID
DIMENSIONS 50 50 1
X_COORDINATES 50 double
0.100000 0.300000 0.500000 0.700000 0.900000 1.100000 1.300000 1.500000 1.700000 1.900000 2.100000 2.300000 2.500000 2.700000 2.900000 3.100000 3.300000 3.500000 3.700000 3.900000 4.100000 4.300000 4.500000 4.700000 4.900000 5.100000 5.300000 5.500000 5.700000 5.900000 6.100000 6.300000 6.500000 6.700000 6.900000 7.100000 7.300000 7.500000 7.700000 7.900000 8.100000 8.300000 8.500000 8.700000 8.900000 9.100000 9.300000 9.500000 9.700000 9.900000 
Y_COORDINATES 50 double
0.100000 0.300000 0.500000 0.700000 0.900000 1.100000 1.300000 1.500000 1.700000 1.900000 2.100000 2.300000 2.500000 2.700000 2.900000 3.100000 3.300000 3.500000 3.700000 3.900000 4.100000 4.300000 4.500000 4.700000 4.900000 5.100000 5.300000 5.500000 5.700000 5.900000 6.100000 6.300000 6.500000 6.700000 6.900000 7.100000 7.300000 7.500000 7.700000 7.900000 8.100000 8.300000 8.500000 8.700000 8.900000 9.100000 9.300000 9.500000 9.700000 9.900000 
Z_COORDINATES 1 double
0.0
POINT_DATA 2500
SCALARS Skalarfeld double 1
LOOKUP_TABLE default
-0.010738
-0.010748
-0.010694
-0.010563
-0.010353
-0.010066
-0.009700
-0.009256
-0.008733
-0.008130
-0.007447
-0.006683
-0.005837
-0.004908
-0.003896
-0.002800
-0.001621
-0.000358
0.000988
0.002417
0.003926
0.005516
0.007182
0.008923
0.010733
0.012610
0.014546
0.016537
0.018573
0.020647
0.022750
0.024869
0.026993
0.029109
0.031203
0.033261
0.035266
0.037203
0.039055
0.040805
0.042437
0.043934
0.045282
0.046467
0.047474
0.048293
0.048915
0.049332
0.049546
0.049578
-0.010728
-0.010738
-0.010678
-0.010544
-0.010334
-0.010047
-0.009682
-0.009239
-0.008718
-0.008117
-0.007436
-0.006673
-0.005829
-0.004903
-0.003894
-0.002801
-0.001624
-0.000364
0.000979
0.002405
0.003913
0.005499
0.007163
0.008902
0.010710
0.012585
0.014520
0.016510
0.018545
0.020619
0.022722
0.024841
0.026967
0.029085
0.031181
0.033241
0.035250
0.037190
0.039045
0.040799
0.042435
0.043936
0.045287
0.046475
0.047485
0.048308
0.048933
0.049355
0.049577
0.049609
-0.010787
-0.010803
-0.010743
-0.010608
-0.010398
-0.010112
-0.009748
-0.009308
-0.008788
-0.008190
-0.007511
-0.006752
-0.005910
-0.004987
-0.003980
-0.002890
-0.001715
-0.000457
0.000884
0.002309
0.003815
0.005402
0.007067
0.008806
0.010618
0.012497
0.014437
0.016433
0.018476
0.020559
0.022672
0.024804
0.026943
0.029076
0.031189
0.033266
0.035293
0.037252
0.039126
0.040899
0.042553
0.044072
0.045440
0.046643
0.047667
0.048500
0.049134
0.049563
0.049787
0.049811
-0.010929
-0.010949
-0.010891
-0.010757
-0.010548
-0.010264
-0.009902
-0.009464
-0.008947
-0.008352
-0.007676
-0.006920
-0.006082
-0.005161
-0.004157
-0.003069
-0.001897
-0.000641
0.000700
0.002125
0.003633
0.005222
0.006891
0.008636
0.010455
0.012343
0.014295
0.016305
0.018364
0.020466
0.022600
0.024756
0.026921
0.029082
0.031225
0.033334
0.035394
0.037387
0.039296
0.041103
0.042790
0.044341
0.045738
0.046967
0.048014
0.048867
0.049515
0.049954
0.050181
0.050200
-0.011159
-0.011181
-0.011125
-0.010993
-0.010786
-0.010503
-0.010145
-0.009709
-0.009196
-0.008604
-0.007932
-0.007179
-0.006345
-0.005427
-0.004426
-0.003341
-0.002170
-0.000915
0.000427
0.001853
0.003364
0.004959
0.006635
0.008390
0.010221
0.012124
0.014093
0.016124
0.018209
0.020339
0.022504
0.024695
0.026898
0.029101
0.031288
0.033445
0.035553
0.037595
0.039554
0.041411
0.043146
0.044743
0.046183
0.047450
0.048530
0.049410
0.050079
0.050532
0.050765
0.050783
-0.011476
-0.011500
-0.011445
-0.011316
-0.011111
-0.010831
-0.010476
-0.010044
-0.009535
-0.008947
-0.008279
-0.007530
-0.006700
-0.005786
-0.004788
-0.003705
-0.002536
-0.001280
0.000062
0.001492
0.003008
0.004610
0.006296
0.008064
0.009912
0.011835
0.013829
0.015888
0.018006
0.020173
0.022381
0.024618
0.026873
0.029130
0.031377
0.033595
0.035767
0.037876
0.039901
0.041823
0.043622
0.045279
0.046776
0.048094
0.049218
0.050134
0.050831
0.051302
0.051544
0.051563
-0.011880
-0.011905
-0.011853
-0.011725
-0.011524
-0.011247
-0.010896
-0.010468
-0.009964
-0.009380
-0.008718
-0.007974
-0.007148
-0.006238
-0.005244
-0.004163
-0.002995
-0.001740
-0.000395
0.001039
0.002561
0.004173
0.005872
0.007657
0.009525
0.011474
0.013498
0.015593
0.017751
0.019965
0.022225
0.024521
0.026839
0.029166
0.031486
0.033781
0.036035
0.038226
0.040334
0.042339
0.044219
0.045953
0.047521
0.048904
0.050083
0.051045
0.051778
0.052272
0.052527
0.052547
-0.012371
-0.012397
-0.012347
-0.012222
-0.012024
-0.011751
-0.011405
-0.010982
-0.010483
-0.009905
-0.009248
-0.008510
-0.007689
-0.006785
-0.005794
-0.004717
-0.003551
-0.002295
-0.000948
0.000490
0.002021
0.003643
0.005358
0.007162
0.009055
0.011033
0.013093
0.015230
0.017437
0.019707
0.022030
0.024396
0.026791
0.029201
0.031610
0.034000
0.036352
0.038644
0.040854
0.042961
0.044940
0.046768
0.048424
0.049885
0.051134
0.052153
0.052928
0.053452
0.053721
0.053744
-0.012947
-0.012975
-0.012927
-0.012805
-0.012611
-0.012343
-0.012002
-0.011585
-0.011092
-0.010521
-0.009871
-0.009140
-0.008325
-0.007427
-0.006441
-0.005368
-0.004204
-0.002949
-0.001600
-0.000157
0.001382
0.003017
0.004748
0.006574
0.008495
0.010507
0.012608
0.014793
0.017057
0.019391
0.021788
0.024235
0.026720
0.029228
0.031743
0.034245
0.036713
0.039126
0.041459
0.043687
0.045785
0.047727
0.049489
0.051046
0.052378
0.053465
0.054293
0.054852
0.055140
0.055166
-0.013608
-0.013638
-0.013592
-0.013474
-0.013284
-0.013022
-0.012687
-0.012277
-0.011792
-0.011229
-0.010587
-0.009863
-0.009057
-0.008166
-0.007187
-0.006119
-0.004958
-0.003704
-0.002354
-0.000907
0.000641
0.002288
0.004037
0.005887
0.007837
0.009887
0.012034
0.014273
0.016600
0.019008
0.021487
0.024028
0.026617
0.029239
0.031876
0.034508
0.037114
0.039668
0.042145
0.044518
0.046757
0.048835
0.050723
0.052394
0.053825
0.054995
0.055886
0.056487
0.056797
0.056826
-0.014353
-0.014385
-0.014343
-0.014229
-0.014044
-0.013788
-0.013460
-0.013059
-0.012582
-0.012028
-0.011396
-0.010683
-0.009886
-0.009003
-0.008033
-0.006971
-0.005816
-0.004565
-0.003215
-0.001764
-0.000209
0.001450
0.003217
0.005092
0.007074
0.009164
0.011360
0.013658
0.016055
0.018544
0.021117
0.023763
0.026469
0.029220
0.031997
0.034780
0.037545
0.040264
0.042910
0.045452
0.047857
0.050095
0.052132
0.053940
0.055489
0.056755
0.057720
0.058372
0.058708
0.058740
-0.015182
-0.015216
-0.015177
-0.015068
-0.014890
-0.014641
-0.014321
-0.013929
-0.013463
-0.012920
-0.012299
-0.011597
-0.010812
-0.009941
-0.008981
-0.007929
-0.006781
-0.005535
-0.004187
-0.002734
-0.001174
0.000497
0.002281
0.004180
0.006195
0.008327
0.010575
0.012936
0.015409
0.017986
0.020662
0.023425
0.026262
0.029159
0.032095
0.035050
0.037996
0.040906
0.043748
0.046486
0.049087
0.051512
0.053726
0.055693
0.057381
0.058763
0.059815
0.060526
0.060892
0.060928
-0.016094
-0.016131
-0.016096
-0.015992
-0.015820
-0.015580
-0.015270
-0.014889
-0.014434
-0.013904
-0.013297
-0.012609
-0.011838
-0.010981
-0.010033
-0.008993
-0.007856
-0.006617
-0.005274
-0.003823
-0.002259
-0.000579
0.001221
0.003143
0.005190
0.007364
0.009665
0.012093
0.014645
0.017318
0.020105
0.022996
0.025979
0.029038
0.032153
0.035301
0.038455
0.041584
0.044651
0.047618
0.050446
0.053091
0.055511
0.057666
0.059519
0.061036
0.062191
0.062971
0.063372
0.063413
-0.017087
-0.017127
-0.017096
-0.016999
-0.016835
-0.016604
-0.016305
-0.015936
-0.015496
-0.014981
-0.014389
-0.013718
-0.012964
-0.012123
-0.011192
-0.010167
-0.009044
-0.007817
-0.006482
-0.005036
-0.003472
-0.001786
0.000026
0.001969
0.004047
0.006262
0.008617
0.011112
0.013748
0.016521
0.019427
0.022456
0.025598
0.028836
0.032150
0.035516
0.038906
0.042283
0.045609
0.048842
0.051933
0.054835
0.057497
0.059874
0.061919
0.063595
0.064872
0.065731
0.066174
0.066220
-0.018161
-0.018204
-0.018178
-0.018088
-0.017932
-0.017712
-0.017426
-0.017072
-0.016647
-0.016150
-0.015577
-0.014925
-0.014191
-0.013371
-0.012460
-0.011454
-0.010348
-0.009138
-0.007816
-0.006379
-0.004820
-0.003133
-0.001312
0.000648
0.002752
0.005006
0.007413
0.009976
0.012696
0.015573
0.018604
0.021781
0.025094
0.028528
0.032062
0.035672
0.039326
0.042986
0.046610
0.050147
0.053545
0.056746
0.059693
0.062330
0.064602
0.066465
0.067884
0.068837
0.069327
0.069378
-0.019314
-0.019361
-0.019340
-0.019257
-0.019112
-0.018904
-0.018632
-0.018294
-0.017888
-0.017411
-0.016860
-0.016231
-0.015520
-0.014724
-0.013838
-0.012856
-0.011773
-0.010583
-0.009281
-0.007859
-0.006310
-0.004628
-0.002805
-0.000834
0.001292
0.003580
0.006035
0.008663
0.011468
0.014450
0.017609
0.020942
0.024438
0.028083
0.031858
0.035738
0.039688
0.043669
0.047632
0.051522
0.055275
0.058827
0.062108
0.065050
0.067591
0.069674
0.071258
0.072321
0.072864
0.072920
-0.020544
-0.020595
-0.020581
-0.020506
-0.020372
-0.020178
-0.019922
-0.019603
-0.019218
-0.018763
-0.018237
-0.017634
-0.016952
-0.016184
-0.015327
-0.014375
-0.013321
-0.012159
-0.010881
-0.009481
-0.007951
-0.006281
-0.004463
-0.002489
-0.000349
0.001966
0.004464
0.007152
0.010037
0.013123
0.016413
0.019907
0.023595
0.027466
0.031503
0.035679
0.039960
0.044302
0.048652
0.052946
0.057113
0.061074
0.064747
0.068051
0.070909
0.073252
0.075031
0.076220
0.076825
0.076886
-0.021851
-0.021905
-0.021898
-0.021833
-0.021711
-0.021532
-0.021294
-0.020996
-0.020634
-0.020206
-0.019708
-0.019136
-0.018485
-0.017752
-0.016930
-0.016012
-0.014994
-0.013866
-0.012622
-0.011253
-0.009749
-0.008101
-0.006298
-0.004330
-0.002185
0.000147
0.002678
0.005418
0.008377
0.011562
0.014981
0.018636
0.022523
0.026633
0.030950
0.035449
0.040096
0.044844
0.049633
0.054392
0.059039
0.063480
0.067617
0.071350
0.074583
0.077234
0.079243
0.080578
0.081252
0.081316
-0.023230
-0.023290
-0.023289
-0.023235
-0.023127
-0.022965
-0.022747
-0.022472
-0.022137
-0.021738
-0.021272
-0.020735
-0.020121
-0.019427
-0.018646
-0.017770
-0.016795
-0.015710
-0.014507
-0.013178
-0.011711
-0.010095
-0.008319
-0.006370
-0.004234
-0.001897
0.000655
0.003434
0.006456
0.009732
0.013273
0.017085
0.021174
0.025531
0.030145
0.034994
0.040042
0.045241
0.050529
0.055823
0.061028
0.066032
0.070718
0.074960
0.078642
0.081660
0.083938
0.085443
0.086192
0.086257
-0.024681
-0.024745
-0.024753
-0.024710
-0.024617
-0.024473
-0.024278
-0.024029
-0.023723
-0.023357
-0.022927
-0.022429
-0.021858
-0.021209
-0.020475
-0.019649
-0.018724
-0.017691
-0.016541
-0.015262
-0.013844
-0.012274
-0.010538
-0.008622
-0.006509
-0.004184
-0.001629
0.001174
0.004243
0.007595
0.011245
0.015206
0.019493
0.024100
0.029023
0.034242
0.039726
0.045427
0.051276
0.057182
0.063036
0.068705
0.074043
0.078896
0.083115
0.086570
0.089167
0.090867
0.091699
0.091760
-0.026201
-0.026270
-0.026287
-0.026256
-0.026179
-0.026056
-0.025885
-0.025665
-0.025391
-0.025062
-0.024672
-0.024218
-0.023695
-0.023097
-0.022417
-0.021649
-0.020784
-0.019812
-0.018724
-0.017509
-0.016153
-0.014643
-0.012964
-0.011098
-0.009028
-0.006735
-0.004196
-0.001391
0.001704
0.005110
0.008851
0.012945
0.017414
0.022268
0.027503
0.033110
0.039061
0.045311
0.051789
0.058395
0.065003
0.071455
0.077573
0.083162
0.088031
0.092013
0.094987
0.096909
0.097827
0.097875
-0.027787
-0.027862
-0.027887
-0.027870
-0.027811
-0.027710
-0.027566
-0.027376
-0.027138
-0.026848
-0.026503
-0.026099
-0.025629
-0.025089
-0.024471
-0.023768
-0.022972
-0.022073
-0.021059
-0.019920
-0.018642
-0.017209
-0.015604
-0.013810
-0.011805
-0.009566
-0.007070
-0.004290
-0.001198
0.002235
0.006037
0.010239
0.014867
0.019950
0.025492
0.031492
0.037935
0.044778
0.051953
0.059354
0.066837
0.074215
0.081269
0.087752
0.093414
0.098035
0.101459
0.103633
0.104635
0.104653
-0.029435
-0.029516
-0.029552
-0.029548
-0.029508
-0.029431
-0.029316
-0.029159
-0.028960
-0.028714
-0.028418
-0.028068
-0.027657
-0.027181
-0.026633
-0.026004
-0.025287
-0.024471
-0.023546
-0.022498
-0.021313
-0.019975
-0.018466
-0.016766
-0.014851
-0.012696
-0.010273
-0.007551
-0.004498
-0.001076
0.002751
0.007022
0.011775
0.017050
0.022877
0.029264
0.036207
0.043678
0.051615
0.059911
0.068404
0.076878
0.085062
0.092638
0.099279
0.104685
0.108647
0.111102
0.112174
0.112136
-0.031144
-0.031231
-0.031277
-0.031288
-0.031268
-0.031217
-0.031132
-0.031012
-0.030854
-0.030655
-0.030412
-0.030121
-0.029775
-0.029370
-0.028899
-0.028354
-0.027726
-0.027006
-0.026182
-0.025240
-0.024167
-0.022944
-0.021553
-0.019972
-0.018176
-0.016137
-0.013823
-0.011200
-0.008229
-0.004866
-0.001065
0.003223
0.008049
0.013463
0.019531
0.026272
0.033704
0.041820
0.050571
0.059857
0.069508
0.079276
0.088826
0.097754
0.105618
0.112003
0.116615
0.119379
0.120488
0.120347
-0.032908
-0.033002
-0.033059
-0.033086
-0.033088
-0.033063
-0.033010
-0.032928
-0.032815
-0.032667
-0.032481
-0.032253
-0.031979
-0.031651
-0.031265
-0.030812
-0.030285
-0.029672
-0.028963
-0.028144
-0.027200
-0.026114
-0.024865
-0.023432
-0.021787
-0.019900
-0.017737
-0.015259
-0.012422
-0.009175
-0.005465
-0.001229
0.003598
0.009084
0.015305
0.022339
0.030216
0.038959
0.048549
0.058906
0.069863
0.081144
0.092349
0.102959
0.112374
0.120005
0.125420
0.128514
0.129591
0.129268
-0.034725
-0.034826
-0.034895
-0.034939
-0.034962
-0.034965
-0.034946
-0.034905
-0.034839
-0.034745
-0.034620
-0.034460
-0.034261
-0.034018
-0.033724
-0.033373
-0.032955
-0.032462
-0.031882
-0.031202
-0.030407
-0.029480
-0.028400
-0.027143
-0.025684
-0.023989
-0.022023
-0.019743
-0.017101
-0.014041
-0.010498
-0.006402
-0.001671
0.003783
0.010053
0.017260
0.025487
0.034789
0.045193
0.056660
0.069048
0.082074
0.095272
0.107986
0.119397
0.128652
0.135089
0.138528
0.139446
0.138803
-0.036591
-0.036700
-0.036780
-0.036841
-0.036887
-0.036919
-0.036936
-0.036937
-0.036919
-0.036882
-0.036821
-0.036733
-0.036615
-0.036462
-0.036268
-0.036026
-0.035729
-0.035367
-0.034930
-0.034406
-0.033779
-0.033033
-0.032148
-0.031101
-0.029863
-0.028404
-0.026685
-0.024662
-0.022284
-0.019489
-0.016208
-0.012358
-0.007844
-0.002560
0.003617
0.010816
0.019225
0.028937
0.040044
0.052578
0.066459
0.081430
0.096988
0.112325
0.126339
0.137773
0.145570
0.149375
0.149914
0.148713
-0.038503
-0.038620
-0.038712
-0.038790
-0.038860
-0.038921
-0.038974
-0.039018
-0.039051
-0.039072
-0.039078
-0.039066
-0.039034
-0.038976
-0.038888
-0.038763
-0.038596
-0.038377
-0.038096
-0.037743
-0.037304
-0.036762
-0.036098
-0.035291
-0.034313
-0.033133
-0.031715
-0.030012
-0.027973
-0.025535
-0.022622
-0.019144
-0.014997
-0.010056
-0.004174
0.002814
0.011096
0.020959
0.032525
0.045936
0.061227
0.078235
0.096478
0.115028
0.132441
0.146881
0.156605
0.160853
0.160667
0.158510
-0.040457
-0.040582
-0.040687
-0.040782
-0.040875
-0.040965
-0.041055
-0.041142
-0.041227
-0.041308
-0.041383
-0.041450
-0.041506
-0.041548
-0.041572
-0.041572
-0.041542
-0.041476
-0.041365
-0.041198
-0.040963
-0.040647
-0.040230
-0.039694
-0.039014
-0.038159
-0.037095
-0.035779
-0.034159
-0.032174
-0.029747
-0.026787
-0.023181
-0.018795
-0.013464
-0.006990
0.000857
0.010354
0.021940
0.035797
0.052144
0.071009
0.092053
0.114335
0.136096
0.154748
0.167418
0.172408
0.171049
0.167348
-0.042451
-0.042585
-0.042702
-0.042814
-0.042929
-0.043048
-0.043174
-0.043305
-0.043442
-0.043583
-0.043729
-0.043876
-0.044023
-0.044168
-0.044308
-0.044438
-0.044554
-0.044650
-0.044718
-0.044751
-0.044737
-0.044666
-0.044521
-0.044285
-0.043937
-0.043451
-0.042796
-0.041932
-0.040813
-0.039382
-0.037567
-0.035280
-0.032413
-0.028827
-0.024354
-0.018779
-0.011841
-0.003217
0.007499
0.021004
0.037583
0.057574
0.080966
0.107041
0.133953
0.158387
0.175841
0.182626
0.179867
0.174122
-0.044482
-0.044625
-0.044753
-0.044882
-0.045018
-0.045165
-0.045326
-0.045500
-0.045688
-0.045889
-0.046105
-0.046333
-0.046573
-0.046824
-0.047082
-0.047347
-0.047614
-0.047878
-0.048135
-0.048379
-0.048601
-0.048791
-0.048939
-0.049030
-0.049048
-0.048970
-0.048773
-0.048424
-0.047885
-0.047107
-0.046031
-0.044580
-0.042659
-0.040145
-0.036880
-0.032661
-0.027227
-0.020238
-0.011259
0.000268
0.015490
0.034881
0.058927
0.087492
0.119246
0.150803
0.176018
0.187824
0.185196
0.178427
-0.046548
-0.046701
-0.046841
-0.046983
-0.047139
-0.047312
-0.047506
-0.047720
-0.047957
-0.048218
-0.048502
-0.048810
-0.049143
-0.049500
-0.049879
-0.050281
-0.050702
-0.051141
-0.051593
-0.052056
-0.052524
-0.052991
-0.053449
-0.053889
-0.054299
-0.054664
-0.054969
-0.055190
-0.055302
-0.055270
-0.055052
-0.054594
-0.053827
-0.052661
-0.050978
-0.048622
-0.045384
-0.040983
-0.035037
-0.027027
-0.016266
-0.001021
0.019721
0.046529
0.079707
0.117751
0.154408
0.178794
0.184063
0.181496
-0.048651
-0.048814
-0.048963
-0.049118
-0.049290
-0.049486
-0.049709
-0.049961
-0.050244
-0.050560
-0.050910
-0.051297
-0.051721
-0.052183
-0.052683
-0.053222
-0.053799
-0.054414
-0.055066
-0.055754
-0.056475
-0.057228
-0.058008
-0.058813
-0.059636
-0.060472
-0.061313
-0.062150
-0.062971
-0.063761
-0.064504
-0.065177
-0.065752
-0.066193
-0.066456
-0.066477
-0.066174
-0.065435
-0.064098
-0.061933
-0.058597
-0.053528
-0.044398
-0.028060
-0.001986
0.038117
0.089252
0.138060
0.168285
0.179546
-0.050790
-0.050964
-0.051121
-0.051285
-0.051470
-0.051684
-0.051931
-0.052215
-0.052539
-0.052906
-0.053319
-0.053780
-0.054292
-0.054856
-0.055475
-0.056150
-0.056882
-0.057674
-0.058526
-0.059441
-0.060419
-0.061462
-0.062573
-0.063751
-0.065001
-0.066324
-0.067724
-0.069205
-0.070776
-0.072444
-0.074222
-0.076130
-0.078196
-0.080457
-0.082973
-0.085830
-0.089156
-0.093150
-0.098112
-0.104510
-0.112989
-0.124100
-0.137096
-0.146006
-0.139558
-0.104608
-0.038220
0.045059
0.117247
0.151185
-0.052970
-0.053155
-0.053318
-0.053486
-0.053678
-0.053903
-0.054168
-0.054478
-0.054837
-0.055249
-0.055718
-0.056248
-0.056842
-0.057504
-0.058237
-0.059044
-0.059929
-0.060894
-0.061945
-0.063084
-0.064318
-0.065652
-0.067092
-0.068647
-0.070326
-0.072141
-0.074109
-0.076248
-0.078586
-0.081158
-0.084011
-0.087212
-0.090853
-0.095065
-0.100038
-0.106053
-0.113534
-0.123139
-0.135917
-0.153551
-0.178529
-0.213442
-0.257889
-0.303280
-0.328125
-0.304938
-0.226481
-0.108730
0.009238
0.069182
-0.055198
-0.055395
-0.055560
-0.055726
-0.055917
-0.056145
-0.056419
-0.056745
-0.057130
-0.057578
-0.058096
-0.058687
-0.059357
-0.060110
-0.060951
-0.061884
-0.062915
-0.064049
-0.065291
-0.066651
-0.068135
-0.069753
-0.071517
-0.073442
-0.075544
-0.077845
-0.080373
-0.083163
-0.086261
-0.089731
-0.093654
-0.098146
-0.103369
-0.109552
-0.117032
-0.126311
-0.138162
-0.153813
-0.175284
-0.205890
-0.250538
-0.314171
-0.395914
-0.480617
-0.539198
-0.530772
-0.447249
-0.306515
-0.153580
-0.070605
-0.057486
-0.057694
-0.057856
-0.058011
-0.058190
-0.058409
-0.058680
-0.059011
-0.059410
-0.059885
-0.060441
-0.061084
-0.061821
-0.062657
-0.063597
-0.064649
-0.065817
-0.067111
-0.068537
-0.070106
-0.071830
-0.073721
-0.075797
-0.078077
-0.080586
-0.083353
-0.086419
-0.089833
-0.093659
-0.097984
-0.102926
-0.108645
-0.115367
-0.123416
-0.133267
-0.145637
-0.161640
-0.183078
-0.212949
-0.256185
-0.319941
-0.410953
-0.527012
-0.646302
-0.730337
-0.735536
-0.654866
-0.508694
-0.340333
-0.242822
-0.059849
-0.060070
-0.060221
-0.060353
-0.060505
-0.060699
-0.060952
-0.061273
-0.061672
-0.062159
-0.062742
-0.063426
-0.064219
-0.065127
-0.066157
-0.067316
-0.068612
-0.070054
-0.071652
-0.073418
-0.075367
-0.077515
-0.079884
-0.082498
-0.085387
-0.088591
-0.092157
-0.096147
-0.100644
-0.105752
-0.111618
-0.118438
-0.126492
-0.136176
-0.148075
-0.163071
-0.182540
-0.208702
-0.245242
-0.298138
-0.375798
-0.485597
-0.623882
-0.764489
-0.861939
-0.876142
-0.804093
-0.669426
-0.507313
-0.407160
-0.062315
-0.062548
-0.062676
-0.062767
-0.062872
-0.063021
-0.063234
-0.063526
-0.063909
-0.064392
-0.064986
-0.065698
-0.066534
-0.067503
-0.068611
-0.069866
-0.071276
-0.072853
-0.074608
-0.076556
-0.078711
-0.081096
-0.083732
-0.086651
-0.089888
-0.093486
-0.097503
-0.102009
-0.107097
-0.112888
-0.119547
-0.127294
-0.136441
-0.147431
-0.160906
-0.177833
-0.199702
-0.228887
-0.269241
-0.326827
-0.409847
-0.524952
-0.667713
-0.811586
-0.909805
-0.927311
-0.867063
-0.755585
-0.617637
-0.526931
-0.064921
-0.065165
-0.065254
-0.065278
-0.065306
-0.065381
-0.065529
-0.065767
-0.066111
-0.066573
-0.067162
-0.067886
-0.068752
-0.069768
-0.070940
-0.072278
-0.073789
-0.075486
-0.077381
-0.079490
-0.081831
-0.084426
-0.087303
-0.090493
-0.094036
-0.097980
-0.102388
-0.107336
-0.112923
-0.119278
-0.126574
-0.135043
-0.145006
-0.156913
-0.171413
-0.189462
-0.212503
-0.242770
-0.283748
-0.340599
-0.419915
-0.526092
-0.654466
-0.782836
-0.870237
-0.888924
-0.842892
-0.758235
-0.654312
-0.582097
-0.067723
-0.067976
-0.067998
-0.067917
-0.067828
-0.067790
-0.067837
-0.067991
-0.068272
-0.068690
-0.069255
-0.069975
-0.070856
-0.071905
-0.073128
-0.074533
-0.076130
-0.077930
-0.079947
-0.082196
-0.084699
-0.087478
-0.090561
-0.093984
-0.097789
-0.102026
-0.106759
-0.112067
-0.118053
-0.124845
-0.132615
-0.141590
-0.152080
-0.164512
-0.179488
-0.197875
-0.220939
-0.250557
-0.289544
-0.341332
-0.410336
-0.499485
-0.603950
-0.704782
-0.768921
-0.779331
-0.743526
-0.690477
-0.622075
-0.572380
-0.070803
-0.071059
-0.070972
-0.070726
-0.070462
-0.070257
-0.070158
-0.070192
-0.070378
-0.070728
-0.071250
-0.071949
-0.072830
-0.073897
-0.075157
-0.076615
-0.078282
-0.080167
-0.082286
-0.084654
-0.087292
-0.090224
-0.093481
-0.097097
-0.101115
-0.105587
-0.110578
-0.116165
-0.122448
-0.129551
-0.137635
-0.146913
-0.157664
-0.170268
-0.185246
-0.203322
-0.225521
-0.253098
-0.287878
-0.332352
-0.388953
-0.458480
-0.535926
-0.606077
-0.645269
-0.644957
-0.614616
-0.579713
-0.540926
-0.512011
-0.074290
-0.074535
-0.074265
-0.073763
-0.073235
-0.072791
-0.072488
-0.072357
-0.072416
-0.072672
-0.073130
-0.073791
-0.074657
-0.075729
-0.077011
-0.078508
-0.080228
-0.082182
-0.084382
-0.086845
-0.089592
-0.092648
-0.096042
-0.099809
-0.103993
-0.108645
-0.113825
-0.119611
-0.126095
-0.133393
-0.141650
-0.151053
-0.161845
-0.174342
-0.188966
-0.206280
-0.226821
-0.251576
-0.281684
-0.318408
-0.362686
-0.413855
-0.467048
-0.510784
-0.529542
-0.519434
-0.490263
-0.462970
-0.439667
-0.420422
-0.078387
-0.078587
-0.078005
-0.077098
-0.076178
-0.075396
-0.074816
-0.074468
-0.074363
-0.074499
-0.074874
-0.075482
-0.076320
-0.077384
-0.078676
-0.080199
-0.081957
-0.083960
-0.086222
-0.088757
-0.091587
-0.094735
-0.098232
-0.102110
-0.106413
-0.111188
-0.116496
-0.122407
-0.129007
-0.136398
-0.144710
-0.154100
-0.164770
-0.176971
-0.191025
-0.207185
-0.225924
-0.247808
-0.273388
-0.303105
-0.336891
-0.373282
-0.407899
-0.432373
-0.436845
-0.419261
-0.388698
-0.361402
-0.335445
-0.307802
-0.083438
-0.083512
-0.082371
-0.080811
-0.079309
-0.078056
-0.077114
-0.076494
-0.076188
-0.076182
-0.076458
-0.077001
-0.077800
-0.078848
-0.080139
-0.081674
-0.083456
-0.085493
-0.087796
-0.090382
-0.093268
-0.096480
-0.100044
-0.103994
-0.108371
-0.113221
-0.118599
-0.124570
-0.131213
-0.138618
-0.146895
-0.156176
-0.166623
-0.178429
-0.191761
-0.206785
-0.223831
-0.243142
-0.264883
-0.288989
-0.314841
-0.340682
-0.362756
-0.374932
-0.370736
-0.348428
-0.315098
-0.279356
-0.227734
-0.163189
-0.090069
-0.089803
-0.087608
-0.084972
-0.082611
-0.080729
-0.079330
-0.078384
-0.077849
-0.077683
-0.077850
-0.078322
-0.079077
-0.080100
-0.081382
-0.082920
-0.084712
-0.086766
-0.089093
-0.091707
-0.094626
-0.097873
-0.101474
-0.105461
-0.109873
-0.114753
-0.120152
-0.126132
-0.132763
-0.140127
-0.148309
-0.157427
-0.167612
-0.178988
-0.191617
-0.205689
-0.221331
-0.238610
-0.257462
-0.277552
-0.298032
-0.317140
-0.331704
-0.337042
-0.328488
-0.303928
-0.265863
-0.206181
-0.088029
0.061768
-0.099569
-0.098330
-0.094005
-0.089578
-0.085989
-0.083309
-0.081368
-0.080053
-0.079268
-0.078935
-0.078991
-0.079389
-0.080094
-0.081087
-0.082354
-0.083887
-0.085676
-0.087732
-0.090066
-0.092691
-0.095621
-0.098880
-0.102492
-0.106489
-0.110906
-0.115784
-0.121173
-0.127129
-0.133718
-0.141021
-0.149085
-0.158028
-0.167944
-0.178929
-0.191056
-0.204414
-0.219052
-0.234937
-0.251886
-0.269446
-0.286704
-0.302000
-0.312597
-0.314594
-0.303991
-0.277870
-0.226785
-0.108137
0.160850
0.487723
-0.115219
-0.110819
-0.101755
-0.094393
-0.089132
-0.085536
-0.082970
-0.081243
-0.080190
-0.079688
-0.079633
-0.079954
-0.080608
-0.081566
-0.082813
-0.084344
-0.086112
-0.088159
-0.090491
-0.093117
-0.096053
-0.099316
-0.102930
-0.106925
-0.111335
-0.116203
-0.121574
-0.127501
-0.134047
-0.141278
-0.149261
-0.158082
-0.167825
-0.178569
-0.190381
-0.203309
-0.217360
-0.232448
-0.248331
-0.264500
-0.280015
-0.293270
-0.301716
-0.301604
-0.288749
-0.254449
-0.160872
0.094853
0.664465
1.368082
-0.145582
-0.129198
-0.110550
-0.097952
-0.090264
-0.085722
-0.082397
-0.080376
-0.079203
-0.078609
-0.078504
-0.078807
-0.079464
-0.080438
-0.081707
-0.083256
-0.085065
-0.087149
-0.089517
-0.092179
-0.095149
-0.098445
-0.102092
-0.106117
-0.110557
-0.115449
-0.120842
-0.126786
-0.133341
-0.140571
-0.148545
-0.157341
-0.167035
-0.177701
-0.189396
-0.202151
-0.215945
-0.230660
-0.246005
-0.261414
-0.275868
-0.287658
-0.293944
-0.290254
-0.269613
-0.196197
0.010681
0.538888
1.629555
3.043405
-0.248587
-0.111178
-0.082381
-0.074156
-0.071013
-0.069673
-0.068983
-0.068849
-0.069104
-0.069642
-0.070446
-0.071498
-0.072783
-0.074292
-0.076022
-0.077970
-0.080137
-0.082536
-0.085185
-0.088100
-0.091298
-0.094803
-0.098641
-0.102842
-0.107444
-0.112488
-0.118021
-0.124095
-0.130772
-0.138114
-0.146192
-0.155080
-0.164854
-0.175581
-0.187313
-0.200070
-0.213809
-0.228383
-0.243453
-0.258375
-0.271967
-0.282158
-0.284764
-0.270955
-0.213868
-0.056928
0.334446
1.220212
2.901104
5.145476
