# vtk DataFile Version 3.0
Vector Field
ASCII
DATASET RECTILINEAR_GRID
DIMENSIONS 50 50 1
X_COORDINATES 50 double
0.100000 0.300000 0.500000 0.700000 0.900000 1.100000 1.300000 1.500000 1.700000 1.900000 2.100000 2.300000 2.500000 2.700000 2.900000 3.100000 3.300000 3.500000 3.700000 3.900000 4.100000 4.300000 4.500000 4.700000 4.900000 5.100000 5.300000 5.500000 5.700000 5.900000 6.100000 6.300000 6.500000 6.700000 6.900000 7.100000 7.300000 7.500000 7.700000 7.900000 8.100000 8.300000 8.500000 8.700000 8.900000 9.100000 9.300000 9.500000 9.700000 9.900000 
Y_COORDINATES 50 double
0.100000 0.300000 0.500000 0.700000 0.900000 1.100000 1.300000 1.500000 1.700000 1.900000 2.100000 2.300000 2.500000 2.700000 2.900000 3.100000 3.300000 3.500000 3.700000 3.900000 4.100000 4.300000 4.500000 4.700000 4.900000 5.100000 5.300000 5.500000 5.700000 5.900000 6.100000 6.300000 6.500000 6.700000 6.900000 7.100000 7.300000 7.500000 7.700000 7.900000 8.100000 8.300000 8.500000 8.700000 8.900000 9.100000 9.300000 9.500000 9.700000 9.900000 
Z_COORDINATES 1 double
0.0
POINT_DATA 2500
VECTORS Vektorfeld double
0.000015 -0.000015 0.0
0.000028 0.000001 0.0
-0.000004 0.000031 0.0
-0.000095 0.000060 0.0
-0.000241 0.000086 0.0
-0.000433 0.000106 0.0
-0.000659 0.000120 0.0
-0.000910 0.000130 0.0
-0.001177 0.000136 0.0
-0.001452 0.000139 0.0
-0.001730 0.000139 0.0
-0.002005 0.000137 0.0
-0.002275 0.000133 0.0
-0.002535 0.000128 0.0
-0.002784 0.000121 0.0
-0.003019 0.000114 0.0
-0.003239 0.000106 0.0
-0.003442 0.000097 0.0
-0.003626 0.000088 0.0
-0.003792 0.000078 0.0
-0.003936 0.000067 0.0
-0.004059 0.000056 0.0
-0.004159 0.000044 0.0
-0.004235 0.000032 0.0
-0.004286 0.000019 0.0
-0.004311 0.000006 0.0
-0.004310 -0.000007 0.0
-0.004281 -0.000021 0.0
-0.004225 -0.000035 0.0
-0.004141 -0.000049 0.0
-0.004029 -0.000063 0.0
-0.003889 -0.000077 0.0
-0.003721 -0.000091 0.0
-0.003527 -0.000104 0.0
-0.003307 -0.000116 0.0
-0.003064 -0.000127 0.0
-0.002800 -0.000137 0.0
-0.002517 -0.000145 0.0
-0.002220 -0.000152 0.0
-0.001913 -0.000155 0.0
-0.001602 -0.000156 0.0
-0.001293 -0.000153 0.0
-0.000995 -0.000146 0.0
-0.000716 -0.000134 0.0
-0.000466 -0.000116 0.0
-0.000256 -0.000093 0.0
-0.000098 -0.000065 0.0
-0.000002 -0.000032 0.0
0.000031 -0.000001 0.0
0.000016 0.000016 0.0
-0.000001 -0.000028 0.0
-0.000051 0.000051 0.0
-0.000212 0.000174 0.0
-0.000503 0.000299 0.0
-0.000918 0.000408 0.0
-0.001438 0.000496 0.0
-0.002042 0.000561 0.0
-0.002708 0.000606 0.0
-0.003415 0.000634 0.0
-0.004145 0.000647 0.0
-0.004883 0.000647 0.0
-0.005617 0.000637 0.0
-0.006335 0.000620 0.0
-0.007030 0.000596 0.0
-0.007694 0.000566 0.0
-0.008322 0.000532 0.0
-0.008908 0.000494 0.0
-0.009449 0.000453 0.0
-0.009940 0.000408 0.0
-0.010379 0.000361 0.0
-0.010761 0.000311 0.0
-0.011084 0.000258 0.0
-0.011345 0.000203 0.0
-0.011542 0.000146 0.0
-0.011672 0.000086 0.0
-0.011732 0.000025 0.0
-0.011722 -0.000038 0.0
-0.011639 -0.000102 0.0
-0.011483 -0.000167 0.0
-0.011253 -0.000232 0.0
-0.010949 -0.000297 0.0
-0.010571 -0.000361 0.0
-0.010122 -0.000423 0.0
-0.009604 -0.000483 0.0
-0.009020 -0.000540 0.0
-0.008375 -0.000591 0.0
-0.007675 -0.000637 0.0
-0.006930 -0.000674 0.0
-0.006148 -0.000702 0.0
-0.005341 -0.000718 0.0
-0.004525 -0.000720 0.0
-0.003717 -0.000706 0.0
-0.002934 -0.000673 0.0
-0.002201 -0.000619 0.0
-0.001539 -0.000542 0.0
-0.000974 -0.000442 0.0
-0.000529 -0.000320 0.0
-0.000219 -0.000183 0.0
-0.000051 -0.000051 0.0
-0.000000 0.000031 0.0
-0.000031 0.000003 0.0
-0.000174 0.000213 0.0
-0.000493 0.000492 0.0
-0.000992 0.000771 0.0
-0.001659 0.001018 0.0
-0.002473 0.001219 0.0
-0.003402 0.001372 0.0
-0.004420 0.001479 0.0
-0.005496 0.001545 0.0
-0.006606 0.001576 0.0
-0.007728 0.001578 0.0
-0.008843 0.001555 0.0
-0.009936 0.001513 0.0
-0.010992 0.001454 0.0
-0.012003 0.001382 0.0
-0.012957 0.001298 0.0
-0.013848 0.001205 0.0
-0.014669 0.001103 0.0
-0.015414 0.000994 0.0
-0.016078 0.000877 0.0
-0.016655 0.000754 0.0
-0.017142 0.000624 0.0
-0.017533 0.000489 0.0
-0.017826 0.000349 0.0
-0.018016 0.000203 0.0
-0.018101 0.000054 0.0
-0.018078 -0.000100 0.0
-0.017945 -0.000256 0.0
-0.017701 -0.000413 0.0
-0.017345 -0.000571 0.0
-0.016878 -0.000729 0.0
-0.016300 -0.000884 0.0
-0.015614 -0.001035 0.0
-0.014825 -0.001179 0.0
-0.013938 -0.001315 0.0
-0.012961 -0.001438 0.0
-0.011903 -0.001547 0.0
-0.010777 -0.001636 0.0
-0.009597 -0.001702 0.0
-0.008382 -0.001740 0.0
-0.007152 -0.001744 0.0
-0.005933 -0.001710 0.0
-0.004753 -0.001632 0.0
-0.003641 -0.001506 0.0
-0.002630 -0.001328 0.0
-0.001753 -0.001098 0.0
-0.001039 -0.000823 0.0
-0.000511 -0.000517 0.0
-0.000179 -0.000218 0.0
-0.000031 0.000000 0.0
-0.000061 0.000095 0.0
-0.000303 0.000507 0.0
-0.000781 0.000994 0.0
-0.001484 0.001471 0.0
-0.002389 0.001891 0.0
-0.003467 0.002236 0.0
-0.004684 0.002501 0.0
-0.006004 0.002687 0.0
-0.007395 0.002804 0.0
-0.008826 0.002859 0.0
-0.010270 0.002862 0.0
-0.011705 0.002821 0.0
-0.013110 0.002744 0.0
-0.014469 0.002638 0.0
-0.015768 0.002507 0.0
-0.016994 0.002355 0.0
-0.018139 0.002185 0.0
-0.019193 0.001999 0.0
-0.020148 0.001799 0.0
-0.020997 0.001586 0.0
-0.021735 0.001360 0.0
-0.022355 0.001124 0.0
-0.022852 0.000878 0.0
-0.023222 0.000622 0.0
-0.023459 0.000358 0.0
-0.023561 0.000086 0.0
-0.023524 -0.000192 0.0
-0.023346 -0.000474 0.0
-0.023025 -0.000759 0.0
-0.022562 -0.001045 0.0
-0.021955 -0.001329 0.0
-0.021209 -0.001608 0.0
-0.020325 -0.001879 0.0
-0.019310 -0.002139 0.0
-0.018171 -0.002381 0.0
-0.016918 -0.002603 0.0
-0.015562 -0.002796 0.0
-0.014121 -0.002955 0.0
-0.012612 -0.003072 0.0
-0.011058 -0.003139 0.0
-0.009485 -0.003147 0.0
-0.007925 -0.003087 0.0
-0.006409 -0.002951 0.0
-0.004976 -0.002732 0.0
-0.003663 -0.002425 0.0
-0.002508 -0.002032 0.0
-0.001547 -0.001563 0.0
-0.000808 -0.001043 0.0
-0.000310 -0.000522 0.0
-0.000062 -0.000092 0.0
-0.000088 0.000244 0.0
-0.000420 0.000933 0.0
-0.001050 0.001677 0.0
-0.001943 0.002385 0.0
-0.003067 0.003006 0.0
-0.004384 0.003516 0.0
-0.005855 0.003908 0.0
-0.007440 0.004185 0.0
-0.009102 0.004359 0.0
-0.010807 0.004440 0.0
-0.012526 0.004443 0.0
-0.014230 0.004379 0.0
-0.015899 0.004260 0.0
-0.017511 0.004094 0.0
-0.019051 0.003890 0.0
-0.020506 0.003653 0.0
-0.021862 0.003387 0.0
-0.023110 0.003097 0.0
-0.024240 0.002785 0.0
-0.025243 0.002453 0.0
-0.026114 0.002102 0.0
-0.026844 0.001733 0.0
-0.027428 0.001350 0.0
-0.027860 0.000951 0.0
-0.028135 0.000541 0.0
-0.028249 0.000119 0.0
-0.028199 -0.000312 0.0
-0.027982 -0.000749 0.0
-0.027596 -0.001191 0.0
-0.027041 -0.001632 0.0
-0.026317 -0.002071 0.0
-0.025429 -0.002502 0.0
-0.024379 -0.002920 0.0
-0.023174 -0.003318 0.0
-0.021824 -0.003692 0.0
-0.020339 -0.004031 0.0
-0.018734 -0.004327 0.0
-0.017029 -0.004571 0.0
-0.015244 -0.004750 0.0
-0.013405 -0.004853 0.0
-0.011544 -0.004867 0.0
-0.009693 -0.004778 0.0
-0.007892 -0.004576 0.0
-0.006180 -0.004251 0.0
-0.004601 -0.003798 0.0
-0.003198 -0.003218 0.0
-0.002012 -0.002526 0.0
-0.001078 -0.001753 0.0
-0.000428 -0.000960 0.0
-0.000089 -0.000243 0.0
-0.000111 0.000443 0.0
-0.000523 0.001477 0.0
-0.001287 0.002525 0.0
-0.002353 0.003497 0.0
-0.003676 0.004341 0.0
-0.005208 0.005031 0.0
-0.006905 0.005561 0.0
-0.008723 0.005936 0.0
-0.010622 0.006170 0.0
-0.012565 0.006278 0.0
-0.014519 0.006277 0.0
-0.016454 0.006185 0.0
-0.018346 0.006015 0.0
-0.020174 0.005779 0.0
-0.021919 0.005490 0.0
-0.023565 0.005154 0.0
-0.025100 0.004777 0.0
-0.026511 0.004366 0.0
-0.027788 0.003923 0.0
-0.028922 0.003452 0.0
-0.029904 0.002955 0.0
-0.030727 0.002434 0.0
-0.031384 0.001890 0.0
-0.031869 0.001327 0.0
-0.032176 0.000747 0.0
-0.032300 0.000151 0.0
-0.032239 -0.000456 0.0
-0.031988 -0.001073 0.0
-0.031547 -0.001694 0.0
-0.030915 -0.002316 0.0
-0.030093 -0.002932 0.0
-0.029085 -0.003538 0.0
-0.027894 -0.004124 0.0
-0.026529 -0.004684 0.0
-0.025000 -0.005206 0.0
-0.023319 -0.005682 0.0
-0.021503 -0.006097 0.0
-0.019573 -0.006438 0.0
-0.017552 -0.006689 0.0
-0.015470 -0.006835 0.0
-0.013359 -0.006857 0.0
-0.011257 -0.006740 0.0
-0.009205 -0.006468 0.0
-0.007249 -0.006028 0.0
-0.005435 -0.005414 0.0
-0.003810 -0.004629 0.0
-0.002421 -0.003690 0.0
-0.001313 -0.002631 0.0
-0.000529 -0.001516 0.0
-0.000111 -0.000444 0.0
-0.000130 0.000684 0.0
-0.000610 0.002127 0.0
-0.001492 0.003522 0.0
-0.002713 0.004787 0.0
-0.004213 0.005873 0.0
-0.005938 0.006756 0.0
-0.007838 0.007432 0.0
-0.009864 0.007909 0.0
-0.011972 0.008204 0.0
-0.014123 0.008337 0.0
-0.016282 0.008330 0.0
-0.018418 0.008203 0.0
-0.020504 0.007974 0.0
-0.022517 0.007660 0.0
-0.024437 0.007275 0.0
-0.026249 0.006827 0.0
-0.027937 0.006327 0.0
-0.029488 0.005779 0.0
-0.030892 0.005191 0.0
-0.032137 0.004564 0.0
-0.033216 0.003903 0.0
-0.034119 0.003211 0.0
-0.034839 0.002490 0.0
-0.035370 0.001743 0.0
-0.035706 0.000974 0.0
-0.035841 0.000184 0.0
-0.035772 -0.000620 0.0
-0.035495 -0.001436 0.0
-0.035009 -0.002258 0.0
-0.034312 -0.003080 0.0
-0.033408 -0.003895 0.0
-0.032297 -0.004694 0.0
-0.030987 -0.005468 0.0
-0.029485 -0.006206 0.0
-0.027802 -0.006896 0.0
-0.025952 -0.007523 0.0
-0.023953 -0.008070 0.0
-0.021826 -0.008521 0.0
-0.019599 -0.008854 0.0
-0.017302 -0.009049 0.0
-0.014971 -0.009085 0.0
-0.012646 -0.008940 0.0
-0.010371 -0.008594 0.0
-0.008195 -0.008034 0.0
-0.006169 -0.007249 0.0
-0.004344 -0.006244 0.0
-0.002775 -0.005034 0.0
-0.001513 -0.003656 0.0
-0.000612 -0.002175 0.0
-0.000130 -0.000685 0.0
-0.000146 0.000961 0.0
-0.000684 0.002867 0.0
-0.001669 0.004650 0.0
-0.003026 0.006237 0.0
-0.004685 0.007583 0.0
-0.006585 0.008671 0.0
-0.008667 0.009499 0.0
-0.010879 0.010081 0.0
-0.013175 0.010437 0.0
-0.015512 0.010593 0.0
-0.017854 0.010574 0.0
-0.020167 0.010407 0.0
-0.022423 0.010113 0.0
-0.024599 0.009711 0.0
-0.026675 0.009220 0.0
-0.028631 0.008650 0.0
-0.030454 0.008014 0.0
-0.032128 0.007318 0.0
-0.033643 0.006570 0.0
-0.034988 0.005775 0.0
-0.036152 0.004936 0.0
-0.037128 0.004057 0.0
-0.037906 0.003143 0.0
-0.038481 0.002196 0.0
-0.038845 0.001220 0.0
-0.038992 0.000221 0.0
-0.038920 -0.000799 0.0
-0.038623 -0.001832 0.0
-0.038101 -0.002872 0.0
-0.037351 -0.003912 0.0
-0.036377 -0.004942 0.0
-0.035180 -0.005953 0.0
-0.033767 -0.006932 0.0
-0.032145 -0.007866 0.0
-0.030327 -0.008738 0.0
-0.028327 -0.009531 0.0
-0.026165 -0.010224 0.0
-0.023863 -0.010795 0.0
-0.021450 -0.011220 0.0
-0.018958 -0.011472 0.0
-0.016426 -0.011525 0.0
-0.013897 -0.011354 0.0
-0.011418 -0.010934 0.0
-0.009041 -0.010247 0.0
-0.006820 -0.009283 0.0
-0.004814 -0.008041 0.0
-0.003082 -0.006538 0.0
-0.001684 -0.004811 0.0
-0.000682 -0.002922 0.0
-0.000144 -0.000959 0.0
-0.000160 0.001267 0.0
-0.000747 0.003686 0.0
-0.001823 0.005894 0.0
-0.003301 0.007828 0.0
-0.005104 0.009453 0.0
-0.007161 0.010756 0.0
-0.009409 0.011743 0.0
-0.011792 0.012432 0.0
-0.014259 0.012849 0.0
-0.016766 0.013025 0.0
-0.019273 0.012991 0.0
-0.021747 0.012777 0.0
-0.024158 0.012410 0.0
-0.026482 0.011914 0.0
-0.028697 0.011307 0.0
-0.030785 0.010607 0.0
-0.032729 0.009824 0.0
-0.034516 0.008969 0.0
-0.036133 0.008051 0.0
-0.037569 0.007074 0.0
-0.038813 0.006045 0.0
-0.039856 0.004967 0.0
-0.040691 0.003846 0.0
-0.041308 0.002685 0.0
-0.041702 0.001489 0.0
-0.041866 0.000264 0.0
-0.041795 -0.000985 0.0
-0.041486 -0.002251 0.0
-0.040936 -0.003526 0.0
-0.040143 -0.004800 0.0
-0.039110 -0.006063 0.0
-0.037839 -0.007301 0.0
-0.036335 -0.008501 0.0
-0.034607 -0.009646 0.0
-0.032668 -0.010716 0.0
-0.030531 -0.011689 0.0
-0.028219 -0.012541 0.0
-0.025755 -0.013244 0.0
-0.023168 -0.013770 0.0
-0.020494 -0.014087 0.0
-0.017774 -0.014163 0.0
-0.015052 -0.013967 0.0
-0.012380 -0.013472 0.0
-0.009813 -0.012654 0.0
-0.007411 -0.011499 0.0
-0.005236 -0.010006 0.0
-0.003354 -0.008188 0.0
-0.001832 -0.006081 0.0
-0.000742 -0.003744 0.0
-0.000157 -0.001260 0.0
-0.000172 0.001599 0.0
-0.000803 0.004572 0.0
-0.001960 0.007240 0.0
-0.003548 0.009548 0.0
-0.005481 0.011469 0.0
-0.007683 0.013000 0.0
-0.010086 0.014151 0.0
-0.012628 0.014949 0.0
-0.015255 0.015426 0.0
-0.017920 0.015619 0.0
-0.020581 0.015566 0.0
-0.023205 0.015300 0.0
-0.025761 0.014854 0.0
-0.028222 0.014255 0.0
-0.030568 0.013526 0.0
-0.032778 0.012686 0.0
-0.034837 0.011748 0.0
-0.036729 0.010725 0.0
-0.038443 0.009626 0.0
-0.039966 0.008458 0.0
-0.041288 0.007227 0.0
-0.042398 0.005939 0.0
-0.043289 0.004599 0.0
-0.043952 0.003212 0.0
-0.044379 0.001783 0.0
-0.044564 0.000319 0.0
-0.044502 -0.001174 0.0
-0.044187 -0.002686 0.0
-0.043617 -0.004210 0.0
-0.042791 -0.005734 0.0
-0.041708 -0.007245 0.0
-0.040372 -0.008727 0.0
-0.038787 -0.010164 0.0
-0.036962 -0.011536 0.0
-0.034910 -0.012818 0.0
-0.032646 -0.013987 0.0
-0.030191 -0.015011 0.0
-0.027571 -0.015859 0.0
-0.024818 -0.016496 0.0
-0.021967 -0.016885 0.0
-0.019062 -0.016989 0.0
-0.016153 -0.016772 0.0
-0.013292 -0.016199 0.0
-0.010541 -0.015244 0.0
-0.007963 -0.013889 0.0
-0.005626 -0.012127 0.0
-0.003603 -0.009972 0.0
-0.001967 -0.007455 0.0
-0.000795 -0.004632 0.0
-0.000168 -0.001584 0.0
-0.000182 0.001953 0.0
-0.000854 0.005521 0.0
-0.002085 0.008680 0.0
-0.003775 0.011386 0.0
-0.005831 0.013621 0.0
-0.008170 0.015390 0.0
-0.010719 0.016712 0.0
-0.013412 0.017622 0.0
-0.016192 0.018159 0.0
-0.019008 0.018367 0.0
-0.021818 0.018290 0.0
-0.024586 0.017967 0.0
-0.027280 0.017436 0.0
-0.029874 0.016729 0.0
-0.032345 0.015870 0.0
-0.034674 0.014882 0.0
-0.036844 0.013781 0.0
-0.038840 0.012581 0.0
-0.040649 0.011293 0.0
-0.042259 0.009924 0.0
-0.043659 0.008483 0.0
-0.044839 0.006974 0.0
-0.045789 0.005405 0.0
-0.046501 0.003781 0.0
-0.046967 0.002107 0.0
-0.047179 0.000392 0.0
-0.047132 -0.001357 0.0
-0.046819 -0.003130 0.0
-0.046238 -0.004918 0.0
-0.045385 -0.006706 0.0
-0.044261 -0.008480 0.0
-0.042867 -0.010222 0.0
-0.041209 -0.011912 0.0
-0.039294 -0.013527 0.0
-0.037135 -0.015039 0.0
-0.034747 -0.016418 0.0
-0.032153 -0.017629 0.0
-0.029379 -0.018635 0.0
-0.026458 -0.019395 0.0
-0.023430 -0.019865 0.0
-0.020340 -0.020004 0.0
-0.017241 -0.019767 0.0
-0.014191 -0.019115 0.0
-0.011254 -0.018017 0.0
-0.008500 -0.016448 0.0
-0.006003 -0.014401 0.0
-0.003841 -0.011884 0.0
-0.002094 -0.008926 0.0
-0.000845 -0.005582 0.0
-0.000178 -0.001929 0.0
-0.000192 0.002328 0.0
-0.000901 0.006527 0.0
-0.002204 0.010207 0.0
-0.003991 0.013335 0.0
-0.006165 0.015902 0.0
-0.008638 0.017921 0.0
-0.011329 0.019422 0.0
-0.014170 0.020446 0.0
-0.017099 0.021044 0.0
-0.020065 0.021265 0.0
-0.023021 0.021159 0.0
-0.025931 0.020775 0.0
-0.028762 0.020154 0.0
-0.031487 0.019330 0.0
-0.034083 0.018335 0.0
-0.036530 0.017192 0.0
-0.038811 0.015921 0.0
-0.040912 0.014537 0.0
-0.042818 0.013052 0.0
-0.044517 0.011475 0.0
-0.045999 0.009814 0.0
-0.047252 0.008076 0.0
-0.048267 0.006268 0.0
-0.049034 0.004397 0.0
-0.049545 0.002468 0.0
-0.049792 0.000490 0.0
-0.049767 -0.001527 0.0
-0.049465 -0.003575 0.0
-0.048880 -0.005640 0.0
-0.048009 -0.007707 0.0
-0.046851 -0.009760 0.0
-0.045406 -0.011779 0.0
-0.043680 -0.013740 0.0
-0.041678 -0.015615 0.0
-0.039414 -0.017374 0.0
-0.036904 -0.018981 0.0
-0.034169 -0.020395 0.0
-0.031238 -0.021573 0.0
-0.028146 -0.022469 0.0
-0.024935 -0.023031 0.0
-0.021653 -0.023210 0.0
-0.018357 -0.022956 0.0
-0.015109 -0.022224 0.0
-0.011980 -0.020974 0.0
-0.009045 -0.019180 0.0
-0.006384 -0.016828 0.0
-0.004081 -0.013923 0.0
-0.002221 -0.010493 0.0
-0.000894 -0.006591 0.0
-0.000187 -0.002294 0.0
-0.000202 0.002722 0.0
-0.000949 0.007588 0.0
-0.002321 0.011820 0.0
-0.004205 0.015394 0.0
-0.006496 0.018310 0.0
-0.009101 0.020591 0.0
-0.011935 0.022277 0.0
-0.014924 0.023421 0.0
-0.018004 0.024078 0.0
-0.021119 0.024310 0.0
-0.024223 0.024174 0.0
-0.027277 0.023724 0.0
-0.030246 0.023006 0.0
-0.033104 0.022061 0.0
-0.035828 0.020923 0.0
-0.038396 0.019619 0.0
-0.040792 0.018171 0.0
-0.043000 0.016596 0.0
-0.045008 0.014906 0.0
-0.046801 0.013113 0.0
-0.048370 0.011225 0.0
-0.049703 0.009250 0.0
-0.050789 0.007195 0.0
-0.051619 0.005067 0.0
-0.052183 0.002873 0.0
-0.052473 0.000622 0.0
-0.052479 -0.001677 0.0
-0.052196 -0.004011 0.0
-0.051615 -0.006368 0.0
-0.050734 -0.008731 0.0
-0.049549 -0.011080 0.0
-0.048060 -0.013393 0.0
-0.046269 -0.015643 0.0
-0.044184 -0.017798 0.0
-0.041816 -0.019823 0.0
-0.039181 -0.021677 0.0
-0.036302 -0.023313 0.0
-0.033208 -0.024680 0.0
-0.029936 -0.025726 0.0
-0.026530 -0.026391 0.0
-0.023044 -0.026618 0.0
-0.019538 -0.026350 0.0
-0.016080 -0.025534 0.0
-0.012747 -0.024126 0.0
-0.009619 -0.022091 0.0
-0.006784 -0.019413 0.0
-0.004331 -0.016093 0.0
-0.002354 -0.012159 0.0
-0.000946 -0.007661 0.0
-0.000198 -0.002680 0.0
-0.000212 0.003137 0.0
-0.000997 0.008704 0.0
-0.002440 0.013519 0.0
-0.004423 0.017562 0.0
-0.006834 0.020845 0.0
-0.009575 0.023401 0.0
-0.012554 0.025281 0.0
-0.015695 0.026547 0.0
-0.018929 0.027266 0.0
-0.022199 0.027507 0.0
-0.025455 0.027337 0.0
-0.028656 0.026816 0.0
-0.031769 0.025996 0.0
-0.034765 0.024925 0.0
-0.037621 0.023638 0.0
-0.040315 0.022167 0.0
-0.042831 0.020536 0.0
-0.045153 0.018762 0.0
-0.047268 0.016862 0.0
-0.049163 0.014846 0.0
-0.050826 0.012724 0.0
-0.052246 0.010504 0.0
-0.053412 0.008194 0.0
-0.054314 0.005800 0.0
-0.054940 0.003331 0.0
-0.055282 0.000795 0.0
-0.055329 -0.001796 0.0
-0.055074 -0.004431 0.0
-0.054508 -0.007095 0.0
-0.053624 -0.009769 0.0
-0.052419 -0.012432 0.0
-0.050891 -0.015059 0.0
-0.049041 -0.017618 0.0
-0.046874 -0.020075 0.0
-0.044401 -0.022388 0.0
-0.041638 -0.024510 0.0
-0.038608 -0.026389 0.0
-0.035341 -0.027965 0.0
-0.031877 -0.029177 0.0
-0.028263 -0.029959 0.0
-0.024556 -0.030243 0.0
-0.020822 -0.029965 0.0
-0.017136 -0.029064 0.0
-0.013579 -0.027487 0.0
-0.010242 -0.025196 0.0
-0.007217 -0.022168 0.0
-0.004603 -0.018404 0.0
-0.002498 -0.013929 0.0
-0.001002 -0.008795 0.0
-0.000209 -0.003086 0.0
-0.000223 0.003572 0.0
-0.001048 0.009879 0.0
-0.002566 0.015305 0.0
-0.004651 0.019843 0.0
-0.007188 0.023512 0.0
-0.010069 0.026356 0.0
-0.013201 0.028438 0.0
-0.016501 0.029830 0.0
-0.019896 0.030612 0.0
-0.023327 0.030861 0.0
-0.026742 0.030654 0.0
-0.030098 0.030057 0.0
-0.033361 0.029131 0.0
-0.036502 0.027927 0.0
-0.039497 0.026486 0.0
-0.042324 0.024841 0.0
-0.044967 0.023020 0.0
-0.047410 0.021043 0.0
-0.049641 0.018926 0.0
-0.051645 0.016681 0.0
-0.053411 0.014319 0.0
-0.054927 0.011847 0.0
-0.056183 0.009273 0.0
-0.057166 0.006605 0.0
-0.057866 0.003852 0.0
-0.058270 0.001021 0.0
-0.058370 -0.001875 0.0
-0.058153 -0.004824 0.0
-0.057611 -0.007810 0.0
-0.056735 -0.010813 0.0
-0.055519 -0.013809 0.0
-0.053958 -0.016770 0.0
-0.052053 -0.019662 0.0
-0.049806 -0.022445 0.0
-0.047227 -0.025071 0.0
-0.044331 -0.027486 0.0
-0.041142 -0.029632 0.0
-0.037691 -0.031439 0.0
-0.034020 -0.032838 0.0
-0.030179 -0.033752 0.0
-0.026231 -0.034105 0.0
-0.022246 -0.033822 0.0
-0.018307 -0.032833 0.0
-0.014504 -0.031078 0.0
-0.010933 -0.028513 0.0
-0.007698 -0.025111 0.0
-0.004905 -0.020869 0.0
-0.002659 -0.015814 0.0
-0.001065 -0.010001 0.0
-0.000222 -0.003517 0.0
-0.000234 0.004029 0.0
-0.001102 0.011114 0.0
-0.002700 0.017186 0.0
-0.004895 0.022243 0.0
-0.007565 0.026318 0.0
-0.010596 0.029464 0.0
-0.013890 0.031756 0.0
-0.017357 0.033279 0.0
-0.020923 0.034124 0.0
-0.024524 0.034380 0.0
-0.028107 0.034132 0.0
-0.031627 0.033456 0.0
-0.035049 0.032418 0.0
-0.038343 0.031075 0.0
-0.041485 0.029473 0.0
-0.044454 0.027650 0.0
-0.047232 0.025634 0.0
-0.049806 0.023447 0.0
-0.052160 0.021107 0.0
-0.054282 0.018627 0.0
-0.056161 0.016018 0.0
-0.057784 0.013287 0.0
-0.059140 0.010443 0.0
-0.060216 0.007494 0.0
-0.061001 0.004447 0.0
-0.061481 0.001311 0.0
-0.061644 -0.001902 0.0
-0.061479 -0.005179 0.0
-0.060973 -0.008503 0.0
-0.060116 -0.011853 0.0
-0.058898 -0.015203 0.0
-0.057313 -0.018522 0.0
-0.055357 -0.021772 0.0
-0.053033 -0.024906 0.0
-0.050348 -0.027873 0.0
-0.047315 -0.030612 0.0
-0.043959 -0.033052 0.0
-0.040311 -0.035118 0.0
-0.036414 -0.036727 0.0
-0.032325 -0.037793 0.0
-0.028110 -0.038228 0.0
-0.023847 -0.037946 0.0
-0.019625 -0.036868 0.0
-0.015545 -0.034926 0.0
-0.011713 -0.032067 0.0
-0.008242 -0.028262 0.0
-0.005246 -0.023507 0.0
-0.002840 -0.017828 0.0
-0.001135 -0.011285 0.0
-0.000236 -0.003975 0.0
-0.000247 0.004511 0.0
-0.001162 0.012415 0.0
-0.002846 0.019166 0.0
-0.005159 0.024772 0.0
-0.007972 0.029272 0.0
-0.011165 0.032734 0.0
-0.014631 0.035245 0.0
-0.018278 0.036904 0.0
-0.022026 0.037814 0.0
-0.025809 0.038075 0.0
-0.029570 0.037782 0.0
-0.033264 0.037021 0.0
-0.036855 0.035865 0.0
-0.040312 0.034378 0.0
-0.043610 0.032610 0.0
-0.046730 0.030601 0.0
-0.049653 0.028384 0.0
-0.052365 0.025982 0.0
-0.054853 0.023414 0.0
-0.057104 0.020694 0.0
-0.059106 0.017832 0.0
-0.060847 0.014837 0.0
-0.062315 0.011717 0.0
-0.063497 0.008478 0.0
-0.064379 0.005129 0.0
-0.064948 0.001678 0.0
-0.065190 -0.001864 0.0
-0.065090 -0.005483 0.0
-0.064634 -0.009161 0.0
-0.063809 -0.012878 0.0
-0.062601 -0.016604 0.0
-0.061003 -0.020305 0.0
-0.059006 -0.023940 0.0
-0.056610 -0.027458 0.0
-0.053819 -0.030798 0.0
-0.050646 -0.033892 0.0
-0.047113 -0.036661 0.0
-0.043253 -0.039017 0.0
-0.039113 -0.040865 0.0
-0.034751 -0.042107 0.0
-0.030239 -0.042641 0.0
-0.025665 -0.042371 0.0
-0.021126 -0.041204 0.0
-0.016733 -0.039064 0.0
-0.012604 -0.035891 0.0
-0.008863 -0.031652 0.0
-0.005636 -0.026341 0.0
-0.003047 -0.019988 0.0
-0.001216 -0.012661 0.0
-0.000252 -0.004463 0.0
-0.000261 0.005019 0.0
-0.001227 0.013787 0.0
-0.003005 0.021256 0.0
-0.005448 0.027438 0.0
-0.008416 0.032386 0.0
-0.011783 0.036179 0.0
-0.015435 0.038919 0.0
-0.019276 0.040718 0.0
-0.023219 0.041692 0.0
-0.027196 0.041955 0.0
-0.031148 0.041614 0.0
-0.035028 0.040763 0.0
-0.038798 0.039484 0.0
-0.042428 0.037846 0.0
-0.045893 0.035905 0.0
-0.049172 0.033705 0.0
-0.052250 0.031281 0.0
-0.055111 0.028659 0.0
-0.057743 0.025857 0.0
-0.060133 0.022892 0.0
-0.062269 0.019772 0.0
-0.064140 0.016508 0.0
-0.065732 0.013106 0.0
-0.067033 0.009571 0.0
-0.068027 0.005912 0.0
-0.068701 0.002137 0.0
-0.069037 -0.001745 0.0
-0.069019 -0.005720 0.0
-0.068630 -0.009770 0.0
-0.067853 -0.013872 0.0
-0.066672 -0.017998 0.0
-0.065073 -0.022109 0.0
-0.063046 -0.026160 0.0
-0.060585 -0.030095 0.0
-0.057693 -0.033845 0.0
-0.054378 -0.037333 0.0
-0.050662 -0.040469 0.0
-0.046578 -0.043152 0.0
-0.042173 -0.045274 0.0
-0.037511 -0.046722 0.0
-0.032670 -0.047379 0.0
-0.027746 -0.047132 0.0
-0.022848 -0.045879 0.0
-0.018099 -0.043531 0.0
-0.013630 -0.040022 0.0
-0.009580 -0.035313 0.0
-0.006087 -0.029400 0.0
-0.003287 -0.022317 0.0
-0.001310 -0.014140 0.0
-0.000271 -0.004986 0.0
-0.000276 0.005556 0.0
-0.001299 0.015239 0.0
-0.003181 0.023465 0.0
-0.005764 0.030256 0.0
-0.008902 0.035674 0.0
-0.012458 0.039814 0.0
-0.016313 0.042791 0.0
-0.020361 0.044734 0.0
-0.024515 0.045773 0.0
-0.028700 0.046036 0.0
-0.032856 0.045641 0.0
-0.036934 0.044694 0.0
-0.040895 0.043285 0.0
-0.044709 0.041489 0.0
-0.048350 0.039368 0.0
-0.051800 0.036971 0.0
-0.055041 0.034334 0.0
-0.058061 0.031486 0.0
-0.060846 0.028447 0.0
-0.063386 0.025231 0.0
-0.065668 0.021851 0.0
-0.067680 0.018313 0.0
-0.069410 0.014623 0.0
-0.070844 0.010788 0.0
-0.071967 0.006813 0.0
-0.072762 0.002705 0.0
-0.073211 -0.001528 0.0
-0.073294 -0.005871 0.0
-0.072992 -0.010309 0.0
-0.072283 -0.014819 0.0
-0.071148 -0.019368 0.0
-0.069567 -0.023918 0.0
-0.067526 -0.028419 0.0
-0.065013 -0.032808 0.0
-0.062027 -0.037010 0.0
-0.058573 -0.040937 0.0
-0.054669 -0.044485 0.0
-0.050347 -0.047541 0.0
-0.045658 -0.049980 0.0
-0.040667 -0.051670 0.0
-0.035461 -0.052478 0.0
-0.030144 -0.052274 0.0
-0.024839 -0.050940 0.0
-0.019683 -0.048376 0.0
-0.014823 -0.044505 0.0
-0.010414 -0.039288 0.0
-0.006612 -0.032720 0.0
-0.003568 -0.024842 0.0
-0.001420 -0.015741 0.0
-0.000293 -0.005551 0.0
-0.000293 0.006125 0.0
-0.001378 0.016777 0.0
-0.003374 0.025805 0.0
-0.006113 0.033239 0.0
-0.009436 0.039152 0.0
-0.013199 0.043655 0.0
-0.017273 0.046879 0.0
-0.021546 0.048969 0.0
-0.025926 0.050072 0.0
-0.030335 0.050331 0.0
-0.034708 0.049876 0.0
-0.038997 0.048825 0.0
-0.043160 0.047278 0.0
-0.047168 0.045317 0.0
-0.050996 0.043010 0.0
-0.054626 0.040408 0.0
-0.058040 0.037553 0.0
-0.061228 0.034474 0.0
-0.064176 0.031193 0.0
-0.066875 0.027724 0.0
-0.069314 0.024079 0.0
-0.071481 0.020264 0.0
-0.073363 0.016284 0.0
-0.074946 0.012144 0.0
-0.076214 0.007848 0.0
-0.077149 0.003400 0.0
-0.077732 -0.001192 0.0
-0.077939 -0.005917 0.0
-0.077747 -0.010758 0.0
-0.077130 -0.015694 0.0
-0.076065 -0.020693 0.0
-0.074526 -0.025713 0.0
-0.072492 -0.030700 0.0
-0.069947 -0.035585 0.0
-0.066880 -0.040286 0.0
-0.063294 -0.044702 0.0
-0.059202 -0.048716 0.0
-0.054634 -0.052199 0.0
-0.049641 -0.055005 0.0
-0.044292 -0.056984 0.0
-0.038680 -0.057981 0.0
-0.032922 -0.057846 0.0
-0.027154 -0.056442 0.0
-0.021530 -0.053654 0.0
-0.016218 -0.049398 0.0
-0.011393 -0.043629 0.0
-0.007230 -0.036344 0.0
-0.003897 -0.027595 0.0
-0.001549 -0.017484 0.0
-0.000319 -0.006163 0.0
-0.000312 0.006730 0.0
-0.001466 0.018411 0.0
-0.003588 0.028289 0.0
-0.006498 0.036402 0.0
-0.010024 0.042838 0.0
-0.014012 0.047720 0.0
-0.018324 0.051200 0.0
-0.022842 0.053439 0.0
-0.027465 0.054605 0.0
-0.032113 0.054854 0.0
-0.036718 0.054332 0.0
-0.041230 0.053170 0.0
-0.045608 0.051475 0.0
-0.049820 0.049340 0.0
-0.053844 0.046838 0.0
-0.057661 0.044026 0.0
-0.061258 0.040947 0.0
-0.064621 0.037632 0.0
-0.067742 0.034104 0.0
-0.070611 0.030380 0.0
-0.073217 0.026468 0.0
-0.075550 0.022374 0.0
-0.077597 0.018103 0.0
-0.079346 0.013657 0.0
-0.080778 0.009036 0.0
-0.081874 0.004244 0.0
-0.082613 -0.000714 0.0
-0.082969 -0.005831 0.0
-0.082916 -0.011090 0.0
-0.082422 -0.016472 0.0
-0.081457 -0.021945 0.0
-0.079990 -0.027466 0.0
-0.077993 -0.032978 0.0
-0.075440 -0.038406 0.0
-0.072315 -0.043657 0.0
-0.068612 -0.048621 0.0
-0.064338 -0.053164 0.0
-0.059519 -0.057137 0.0
-0.054205 -0.060375 0.0
-0.048469 -0.062700 0.0
-0.042410 -0.063934 0.0
-0.036157 -0.063903 0.0
-0.029862 -0.062447 0.0
-0.023700 -0.059434 0.0
-0.017863 -0.054767 0.0
-0.012550 -0.048397 0.0
-0.007962 -0.040327 0.0
-0.004288 -0.030619 0.0
-0.001702 -0.019395 0.0
-0.000350 -0.006833 0.0
-0.000333 0.007375 0.0
-0.001564 0.020151 0.0
-0.003826 0.030933 0.0
-0.006923 0.039766 0.0
-0.010673 0.046750 0.0
-0.014907 0.052029 0.0
-0.019478 0.055773 0.0
-0.024259 0.058164 0.0
-0.029144 0.059388 0.0
-0.034047 0.059620 0.0
-0.038899 0.059023 0.0
-0.043647 0.057738 0.0
-0.048249 0.055887 0.0
-0.052676 0.053568 0.0
-0.056904 0.050863 0.0
-0.060917 0.047832 0.0
-0.064702 0.044522 0.0
-0.068249 0.040967 0.0
-0.071550 0.037191 0.0
-0.074596 0.033208 0.0
-0.077380 0.029029 0.0
-0.079891 0.024657 0.0
-0.082118 0.020095 0.0
-0.084047 0.015342 0.0
-0.085662 0.010397 0.0
-0.086942 0.005259 0.0
-0.087864 -0.000069 0.0
-0.088399 -0.005584 0.0
-0.088515 -0.011274 0.0
-0.088179 -0.017119 0.0
-0.087352 -0.023090 0.0
-0.085996 -0.029144 0.0
-0.084073 -0.035220 0.0
-0.081548 -0.041240 0.0
-0.078396 -0.047100 0.0
-0.074600 -0.052678 0.0
-0.070158 -0.057822 0.0
-0.065092 -0.062363 0.0
-0.059447 -0.066108 0.0
-0.053297 -0.068853 0.0
-0.046748 -0.070389 0.0
-0.039940 -0.070510 0.0
-0.033046 -0.069030 0.0
-0.026264 -0.065795 0.0
-0.019815 -0.060693 0.0
-0.013928 -0.053670 0.0
-0.008836 -0.044735 0.0
-0.004756 -0.033965 0.0
-0.001886 -0.021506 0.0
-0.000388 -0.007571 0.0
-0.000356 0.008063 0.0
-0.001672 0.022010 0.0
-0.004089 0.033753 0.0
-0.007394 0.043349 0.0
-0.011389 0.050912 0.0
-0.015893 0.056605 0.0
-0.020745 0.060621 0.0
-0.025811 0.063164 0.0
-0.030977 0.064440 0.0
-0.036152 0.064647 0.0
-0.041265 0.063962 0.0
-0.046261 0.062543 0.0
-0.051098 0.060522 0.0
-0.055747 0.058009 0.0
-0.060186 0.055090 0.0
-0.064401 0.051832 0.0
-0.068380 0.048286 0.0
-0.072116 0.044486 0.0
-0.075602 0.040459 0.0
-0.078833 0.036218 0.0
-0.081802 0.031772 0.0
-0.084502 0.027125 0.0
-0.086921 0.022275 0.0
-0.089048 0.017219 0.0
-0.090865 0.011953 0.0
-0.092353 0.006471 0.0
-0.093484 0.000772 0.0
-0.094230 -0.005145 0.0
-0.094554 -0.011272 0.0
-0.094416 -0.017595 0.0
-0.093771 -0.024086 0.0
-0.092572 -0.030703 0.0
-0.090771 -0.037385 0.0
-0.088323 -0.044048 0.0
-0.085186 -0.050581 0.0
-0.081333 -0.056846 0.0
-0.076752 -0.062676 0.0
-0.071452 -0.067875 0.0
-0.065472 -0.072221 0.0
-0.058885 -0.075477 0.0
-0.051804 -0.077395 0.0
-0.044380 -0.077734 0.0
-0.036806 -0.076274 0.0
-0.029310 -0.072830 0.0
-0.022145 -0.067273 0.0
-0.015582 -0.059541 0.0
-0.009889 -0.049650 0.0
-0.005322 -0.037696 0.0
-0.002108 -0.023859 0.0
-0.000433 -0.008391 0.0
-0.000382 0.008801 0.0
-0.001793 0.023999 0.0
-0.004381 0.036769 0.0
-0.007917 0.047174 0.0
-0.012182 0.055347 0.0
-0.016980 0.061472 0.0
-0.022139 0.065766 0.0
-0.027512 0.068458 0.0
-0.032979 0.069779 0.0
-0.038444 0.069947 0.0
-0.043831 0.069161 0.0
-0.049086 0.067593 0.0
-0.054166 0.065389 0.0
-0.059043 0.062668 0.0
-0.063698 0.059525 0.0
-0.068118 0.056031 0.0
-0.072294 0.052242 0.0
-0.076221 0.048194 0.0
-0.079897 0.043913 0.0
-0.083317 0.039414 0.0
-0.086477 0.034705 0.0
-0.089373 0.029787 0.0
-0.091997 0.024655 0.0
-0.094336 0.019304 0.0
-0.096375 0.013724 0.0
-0.098093 0.007905 0.0
-0.099464 0.001840 0.0
-0.100455 -0.004477 0.0
-0.101028 -0.011045 0.0
-0.101135 -0.017854 0.0
-0.100724 -0.024883 0.0
-0.099739 -0.032091 0.0
-0.098119 -0.039418 0.0
-0.095805 -0.046777 0.0
-0.092742 -0.054051 0.0
-0.088885 -0.061087 0.0
-0.084205 -0.067698 0.0
-0.078698 -0.073661 0.0
-0.072393 -0.078721 0.0
-0.065358 -0.082600 0.0
-0.057706 -0.085006 0.0
-0.049602 -0.085651 0.0
-0.041260 -0.084272 0.0
-0.032941 -0.080647 0.0
-0.024941 -0.074621 0.0
-0.017576 -0.066122 0.0
-0.011165 -0.055172 0.0
-0.006011 -0.041894 0.0
-0.002381 -0.026506 0.0
-0.000488 -0.009312 0.0
-0.000411 0.009594 0.0
-0.001928 0.026135 0.0
-0.004708 0.040002 0.0
-0.008499 0.051267 0.0
-0.013062 0.060082 0.0
-0.018183 0.066656 0.0
-0.023674 0.071232 0.0
-0.029379 0.074068 0.0
-0.035167 0.075423 0.0
-0.040937 0.075538 0.0
-0.046612 0.074633 0.0
-0.052135 0.072898 0.0
-0.057465 0.070494 0.0
-0.062575 0.067550 0.0
-0.067447 0.064170 0.0
-0.072072 0.060431 0.0
-0.076444 0.056391 0.0
-0.080563 0.052090 0.0
-0.084427 0.047556 0.0
-0.088036 0.042801 0.0
-0.091392 0.037834 0.0
-0.094490 0.032652 0.0
-0.097325 0.027249 0.0
-0.099889 0.021614 0.0
-0.102167 0.015732 0.0
-0.104140 0.009588 0.0
-0.105780 0.003168 0.0
-0.107053 -0.003540 0.0
-0.107917 -0.010545 0.0
-0.108320 -0.017844 0.0
-0.108203 -0.025421 0.0