# vtk DataFile Version 3.0
Scalar Field
ASCII
DATASET RECTILINEAR_GRID
DIMENSIONS 50 50 1
X_COORDINATES 50 double
0.100000 0.300000 0.500000 0.700000 0.900000 1.100000 1.300000 1.500000 1.700000 1.900000 2.100000 2.300000 2.500000 2.700000 2.900000 3.100000 3.300000 3.500000 3.700000 3.900000 4.100000 4.300000 4.500000 4.700000 4.900000 5.100000 5.300000 5.500000 5.700000 5.900000 6.100000 6.300000 6.500000 6.700000 6.900000 7.100000 7.300000 7.500000 7.700000 7.900000 8.100000 8.300000 8.500000 8.700000 8.900000 9.100000 9.300000 9.500000 9.700000 9.900000 
Y_COORDINATES 50 double
0.100000 0.300000 0.500000 0.700000 0.900000 1.100000 1.300000 1.500000 1.700000 1.900000 2.100000 2.300000 2.500000 2.700000 2.900000 3.100000 3.300000 3.500000 3.700000 3.900000 4.100000 4.300000 4.500000 4.700000 4.900000 5.100000 5.300000 5.500000 5.700000 5.900000 6.100000 6.300000 6.500000 6.700000 6.900000 7.100000 7.300000 7.500000 7.700000 7.900000 8.100000 8.300000 8.500000 8.700000 8.900000 9.100000 9.300000 9.500000 9.700000 9.900000 
Z_COORDINATES 1 double
0.0
POINT_DATA 2500
SCALARS Skalarfeld double 1
LOOKUP_TABLE default
0.001087
0.001068
0.001135
0.001307
0.001586
0.001972
0.002466
0.003067
0.003777
0.004599
0.005534
0.006585
0.007755
0.009046
0.010462
0.012005
0.013678
0.015484
0.017425
0.019503
0.021719
0.024076
0.026571
0.029206
0.031976
0.034878
0.037908
0.041056
0.044313
0.047667
0.051104
0.054604
0.058147
0.061708
0.065260
0.068773
0.072216
0.075554
0.078752
0.081775
0.084587
0.087156
0.089449
0.091439
0.093102
0.094418
0.095375
0.095974
0.096232
0.096217
0.001105
0.001086
0.001164
0.001342
0.001624
0.002011
0.002504
0.003104
0.003813
0.004633
0.005567
0.006616
0.007783
0.009072
0.010484
0.012024
0.013693
0.015495
0.017432
0.019506
0.021718
0.024069
0.026560
0.029190
0.031955
0.034853
0.037878
0.041022
0.044275
0.047626
0.051060
0.054558
0.058099
0.061659
0.065211
0.068725
0.072169
0.075508
0.078708
0.081733
0.084547
0.087116
0.089410
0.091399
0.093061
0.094377
0.095337
0.095942
0.096214
0.096197
0.001029
0.001001
0.001078
0.001259
0.001542
0.001928
0.002419
0.003017
0.003723
0.004539
0.005468
0.006512
0.007674
0.008957
0.010364
0.011897
0.013561
0.015356
0.017287
0.019355
0.021562
0.023910
0.026397
0.029024
0.031788
0.034687
0.037715
0.040864
0.044126
0.047488
0.050936
0.054451
0.058012
0.061596
0.065174
0.068717
0.072192
0.075563
0.078794
0.081850
0.084692
0.087287
0.089602
0.091609
0.093284
0.094608
0.095573
0.096180
0.096445
0.096405
0.000831
0.000795
0.000870
0.001049
0.001331
0.001715
0.002202
0.002795
0.003496
0.004306
0.005228
0.006265
0.007419
0.008694
0.010092
0.011618
0.013273
0.015060
0.016984
0.019045
0.021247
0.023590
0.026076
0.028703
0.031471
0.034377
0.037415
0.040580
0.043862
0.047250
0.050729
0.054280
0.057884
0.061516
0.065147
0.068746
0.072279
0.075710
0.079001
0.082114
0.085010
0.087652
0.090009
0.092049
0.093748
0.095089
0.096061
0.096667
0.096923
0.096866
0.000500
0.000460
0.000532
0.000709
0.000987
0.001367
0.001849
0.002436
0.003129
0.003930
0.004843
0.005870
0.007014
0.008279
0.009666
0.011181
0.012825
0.014603
0.016518
0.018572
0.020768
0.023108
0.025593
0.028224
0.031000
0.033919
0.036976
0.040166
0.043481
0.046909
0.050436
0.054044
0.057713
0.061416
0.065126
0.068809
0.072429
0.075949
0.079328
0.082524
0.085498
0.088211
0.090626
0.092714
0.094449
0.095812
0.096795
0.097400
0.097647
0.097576
0.000035
-0.000007
0.000062
0.000235
0.000509
0.000882
0.001357
0.001936
0.002619
0.003411
0.004312
0.005327
0.006458
0.007709
0.009083
0.010584
0.012216
0.013982
0.015886
0.017932
0.020122
0.022459
0.024946
0.027583
0.030371
0.033308
0.036392
0.039617
0.042976
0.046458
0.050051
0.053736
0.057491
0.061291
0.065106
0.068901
0.072638
0.076276
0.079772
0.083080
0.086158
0.088963
0.091457
0.093607
0.095387
0.096778
0.097774
0.098378
0.098616
0.098532
-0.000563
-0.000607
-0.000541
-0.000372
-0.000105
0.000262
0.000728
0.001296
0.001968
0.002746
0.003634
0.004634
0.005749
0.006984
0.008342
0.009827
0.011443
0.013195
0.015087
0.017122
0.019305
0.021640
0.024128
0.026773
0.029576
0.032537
0.035653
0.038922
0.042336
0.045887
0.049561
0.053341
0.057206
0.061128
0.065075
0.069012
0.072897
0.076686
0.080330
0.083782
0.086991
0.089913
0.092505
0.094732
0.096566
0.097990
0.098999
0.099601
0.099827
0.099729
-0.001292
-0.001338
-0.001275
-0.001112
-0.000851
-0.000494
-0.000038
0.000518
0.001176
0.001939
0.002809
0.003791
0.004888
0.006103
0.007442
0.008907
0.010505
0.012239
0.014115
0.016138
0.018312
0.020642
0.023132
0.025785
0.028605
0.031592
0.034747
0.038066
0.041545
0.045176
0.048947
0.052842
0.056838
0.060908
0.065017
0.069127
0.073195
0.077169
0.080998
0.084625
0.087998
0.091063
0.093774
0.096093
0.097991
0.099451
0.100472
0.101068
0.101277
0.101161
-0.002152
-0.002199
-0.002140
-0.001983
-0.001730
-0.001383
-0.000940
-0.000399
0.000243
0.000988
0.001838
0.002799
0.003874
0.005066
0.006381
0.007823
0.009398
0.011111
0.012967
0.014974
0.017135
0.019458
0.021947
0.024608
0.027444
0.030459
0.033654
0.037030
0.040582
0.044304
0.048186
0.052214
0.056364
0.060607
0.064909
0.069227
0.073514
0.077713
0.081765
0.085608
0.089178
0.092417
0.095271
0.097698
0.099668
0.101166
0.102195
0.102778
0.102963
0.102823
-0.003139
-0.003187
-0.003133
-0.002982
-0.002739
-0.002404
-0.001976
-0.001451
-0.000829
-0.000105
0.000722
0.001658
0.002706
0.003871
0.005158
0.006572
0.008119
0.009806
0.011638
0.013623
0.015767
0.018078
0.020562
0.023226
0.026077
0.029119
0.032356
0.035790
0.039420
0.043243
0.047249
0.051425
0.055751
0.060195
0.064722
0.069285
0.073832
0.078299
0.082620
0.086721
0.090530
0.093977
0.097001
0.099554
0.101603
0.103136
0.104165
0.104724
0.104874
0.104703
-0.004250
-0.004301
-0.004251
-0.004109
-0.003877
-0.003555
-0.003143
-0.002638
-0.002038
-0.001339
-0.000538
0.000369
0.001386
0.002519
0.003772
0.005153
0.006666
0.008320
0.010121
0.012078
0.014198
0.016491
0.018964
0.021626
0.024486
0.027551
0.030827
0.034320
0.038031
0.041959
0.046098
0.050437
0.054960
0.059632
0.064417
0.069265
0.074117
0.078903
0.083545
0.087957
0.092052
0.095748
0.098973
0.101669
0.103802
0.105366
0.106380
0.106896
0.106996
0.106786
-0.005484
-0.005537
-0.005493
-0.005359
-0.005139
-0.004833
-0.004440
-0.003957
-0.003382
-0.002711
-0.001941
-0.001068
-0.000087
0.001009
0.002223
0.003563
0.005036
0.006650
0.008412
0.010332
0.012420
0.014685
0.017138
0.019790
0.022651
0.025732
0.029042
0.032589
0.036378
0.040414
0.044692
0.049206
0.053942
0.058868
0.063945
0.069120
0.074328
0.079489
0.084513
0.089296
0.093736
0.097731
0.101192
0.104052
0.106273
0.107853
0.108831
0.109279
0.109306
0.109043
-0.006837
-0.006892
-0.006854
-0.006730
-0.006524
-0.006236
-0.005864
-0.005406
-0.004859
-0.004221
-0.003486
-0.002651
-0.001711
-0.000660
0.000509
0.001801
0.003226
0.004791
0.006505
0.008379
0.010423
0.012650
0.015071
0.017701
0.020551
0.023636
0.026968
0.030560
0.034422
0.038561
0.042979
0.047674
0.052636
0.057840
0.063242
0.068788
0.074407
0.080008
0.085485
0.090715
0.095570
0.099925
0.103667
0.106713
0.109021
0.110598
0.111503
0.111844
0.111766
0.111434
-0.008304
-0.008362
-0.008331
-0.008218
-0.008027
-0.007759
-0.007411
-0.006981
-0.006466
-0.005864
-0.005169
-0.004378
-0.003485
-0.002484
-0.001370
-0.000133
0.001234
0.002739
0.004394
0.006210
0.008198
0.010373
0.012748
0.015339
0.018162
0.021235
0.024574
0.028196
0.032116
0.036348
0.040900
0.045775
0.050968
0.056468
0.062226
0.068188
0.074277
0.080391
0.086404
0.092170
0.097529
0.102321
0.106402
0.109662
0.112052
0.113591
0.114371
0.114549
0.114321
0.113896
-0.009883
-0.009943
-0.009919
-0.009819
-0.009645
-0.009398
-0.009077
-0.008678
-0.008200
-0.007638
-0.006988
-0.006246
-0.005407
-0.004465
-0.003411
-0.002240
-0.000941
0.000494
0.002077
0.003820
0.005737
0.007842
0.010153
0.012686
0.015462
0.018500
0.021823
0.025452
0.029409
0.033714
0.038383
0.043427
0.048849
0.054652
0.060791
0.067211
0.073830
0.080536
0.087184
0.093595
0.099570
0.104900
0.109394
0.112906
0.115369
0.116818
0.117395
0.117327
0.116885
0.116337
-0.011567
-0.011631
-0.011615
-0.011528
-0.011373
-0.011150
-0.010858
-0.010494
-0.010055
-0.009538
-0.008939
-0.008253
-0.007474
-0.006597
-0.005615
-0.004518
-0.003299
-0.001947
-0.000450
0.001205
0.003032
0.005049
0.007273
0.009724
0.012426
0.015402
0.018679
0.022285
0.026247
0.030593
0.035350
0.040539
0.046175
0.052268
0.058801
0.065711
0.072919
0.080303
0.087696
0.094885
0.101616
0.107617
0.112628
0.116444
0.118968
0.120254
0.120512
0.120079
0.119332
0.118618
-0.013353
-0.013420
-0.013414
-0.013341
-0.013206
-0.013009
-0.012749
-0.012422
-0.012027
-0.011560
-0.011017
-0.010393
-0.009682
-0.008879
-0.007977
-0.006966
-0.005839
-0.004583
-0.003188
-0.001639
0.000079
0.001984
0.004096
0.006437
0.009034
0.011913
0.015106
0.018646
0.022569
0.026912
0.031712
0.037003
0.042814
0.049164
0.056082
0.063500
0.071344
0.079489
0.087748
0.095869
0.103533
0.110383
0.116055
0.120254
0.122828
0.123846
0.123622
0.122650
0.121469
0.120536
-0.015235
-0.015305
-0.015308
-0.015251
-0.015139
-0.014970
-0.014744
-0.014459
-0.014111
-0.013699
-0.013216
-0.012660
-0.012025
-0.011305
-0.010492
-0.009579
-0.008556
-0.007412
-0.006136
-0.004713
-0.003126
-0.001358
0.000613
0.002811
0.005264
0.008004
0.011066
0.014488
0.018315
0.022592
0.027370
0.032696
0.038619
0.045176
0.052416
0.060327
0.068828
0.077801
0.087047
0.096274
0.105089
0.113018
0.119558
0.124264
0.126887
0.127501
0.126559
0.124801
0.123007
0.121790
-0.017206
-0.017280
-0.017293
-0.017253
-0.017164
-0.017025
-0.016837
-0.016596
-0.016300
-0.015946
-0.015531
-0.015049
-0.014497
-0.013868
-0.013155
-0.012350
-0.011445
-0.010429
-0.009290
-0.008013
-0.006582
-0.004979
-0.003182
-0.001164
0.001104
0.003654
0.006528
0.009768
0.013425
0.017556
0.022221
0.027487
0.033419
0.040084
0.047535
0.055871
0.065001
0.074828
0.085156
0.095663
0.105876
0.115182
0.122874
0.128284
0.130985
0.131021
0.129041
0.126153
0.123504
0.121949
-0.019260
-0.019338
-0.019362
-0.019339
-0.019275
-0.019169
-0.019020
-0.018827
-0.018586
-0.018296
-0.017952
-0.017552
-0.017089
-0.016560
-0.015957
-0.015273
-0.014499
-0.013626
-0.012643
-0.011534
-0.010285
-0.008877
-0.007288
-0.005491
-0.003458
-0.001153
0.001466
0.004447
0.007846
0.011726
0.016162
0.021234
0.027031
0.033646
0.041170
0.049722
0.059369
0.069990
0.081423
0.093341
0.105201
0.116226
0.125449
0.131865
0.134738
0.134007
0.130572
0.126104
0.122309
0.120389
-0.021390
-0.021472
-0.021507
-0.021503
-0.021465
-0.021393
-0.021287
-0.021143
-0.020961
-0.020739
-0.020472
-0.020158
-0.019793
-0.019371
-0.018888
-0.018335
-0.017707
-0.016994
-0.016184
-0.015266
-0.014225
-0.013043
-0.011699
-0.010168
-0.008422
-0.006425
-0.004135
-0.001502
0.001532
0.005037
0.009095
0.013800
0.019261
0.025598
0.032940
0.041415
0.051294
0.062490
0.074897
0.088219
0.101879
0.114949
0.126153
0.134023
0.137314
0.135685
0.130319
0.123744
0.118550
0.116235
-0.023588
-0.023674
-0.023721
-0.023737
-0.023727
-0.023690
-0.023627
-0.023537
-0.023417
-0.023265
-0.023080
-0.022858
-0.022596
-0.022290
-0.021935
-0.021526
-0.021055
-0.020517
-0.019900
-0.019194
-0.018387
-0.017462
-0.016402
-0.015183
-0.013779
-0.012157
-0.010278
-0.008093
-0.005544
-0.002563
0.000938
0.005059
0.009921
0.015667
0.022461
0.030486
0.039945
0.051259
0.064217
0.078625
0.093944
0.109170
0.122753
0.132686
0.136991
0.134706
0.127109
0.117962
0.111115
0.108516
-0.025848
-0.025938
-0.025997
-0.026033
-0.026051
-0.026051
-0.026033
-0.025997
-0.025942
-0.025865
-0.025765
-0.025639
-0.025486
-0.025303
-0.025085
-0.024828
-0.024528
-0.024178
-0.023771
-0.023298
-0.022750
-0.022114
-0.021374
-0.020513
-0.019507
-0.018330
-0.016947
-0.015317
-0.013388
-0.011096
-0.008361
-0.005086
-0.001150
0.003596
0.009333
0.016274
0.024665
0.034932
0.047504
0.062064
0.078220
0.095071
0.111022
0.123685
0.130259
0.128701
0.119622
0.107791
0.099409
0.096369
-0.028160
-0.028254
-0.028325
-0.028382
-0.028429
-0.028466
-0.028495
-0.028515
-0.028526
-0.028526
-0.028514
-0.028489
-0.028450
-0.028394
-0.028320
-0.028224
-0.028104
-0.027956
-0.027774
-0.027554
-0.027288
-0.026968
-0.026585
-0.026125
-0.025572
-0.024908
-0.024108
-0.023142
-0.021972
-0.020548
-0.018810
-0.016680
-0.014058
-0.010816
-0.006795
-0.001789
0.004451
0.012213
0.022283
0.035015
0.049908
0.066513
0.083782
0.099534
0.110456
0.113088
0.106066
0.093287
0.083935
0.078995
-0.030516
-0.030616
-0.030699
-0.030776
-0.030851
-0.030927
-0.031003
-0.031080
-0.031157
-0.031236
-0.031314
-0.031392
-0.031470
-0.031547
-0.031622
-0.031694
-0.031762
-0.031826
-0.031882
-0.031930
-0.031967
-0.031989
-0.031992
-0.031973
-0.031923
-0.031836
-0.031701
-0.031505
-0.031232
-0.030859
-0.030359
-0.029696
-0.028822
-0.027673
-0.026168
-0.024194
-0.021608
-0.018227
-0.013817
-0.007009
0.002723
0.015274
0.031277
0.049784
0.067641
0.079983
0.082237
0.074217
0.064396
0.056017
-0.032910
-0.033013
-0.033109
-0.033206
-0.033310
-0.033423
-0.033546
-0.033680
-0.033825
-0.033982
-0.034151
-0.034334
-0.034531
-0.034742
-0.034970
-0.035214
-0.035477
-0.035760
-0.036065
-0.036393
-0.036747
-0.037130
-0.037546
-0.037999
-0.038494
-0.039039
-0.039640
-0.040309
-0.041060
-0.041909
-0.042881
-0.044008
-0.045333
-0.046917
-0.048843
-0.051230
-0.054232
-0.058014
-0.062585
-0.067429
-0.069248
-0.066159
-0.055054
-0.034763
-0.007714
0.020190
0.040816
0.047124
0.039991
0.032240
-0.035331
-0.035439
-0.035546
-0.035663
-0.035795
-0.035945
-0.036114
-0.036304
-0.036515
-0.036750
-0.037010
-0.037297
-0.037613
-0.037960
-0.038342
-0.038761
-0.039221
-0.039728
-0.040286
-0.040901
-0.041583
-0.042341
-0.043187
-0.044136
-0.045206
-0.046422
-0.047815
-0.049424
-0.051301
-0.053517
-0.056164
-0.059372
-0.063321
-0.068268
-0.074585
-0.082811
-0.093687
-0.108048
-0.126285
-0.147302
-0.167610
-0.179296
-0.176289
-0.155369
-0.118251
-0.071197
-0.024599
0.008207
0.018044
0.019309
-0.037772
-0.037885
-0.038004
-0.038139
-0.038298
-0.038482
-0.038696
-0.038939
-0.039216
-0.039527
-0.039876
-0.040265
-0.040699
-0.041180
-0.041715
-0.042308
-0.042965
-0.043696
-0.044508
-0.045414
-0.046427
-0.047565
-0.048848
-0.050303
-0.051965
-0.053876
-0.056093
-0.058688
-0.061759
-0.065438
-0.069905
-0.075413
-0.082325
-0.091170
-0.102741
-0.118221
-0.139242
-0.167548
-0.203793
-0.245545
-0.286071
-0.315858
-0.322382
-0.301729
-0.255581
-0.189906
-0.114759
-0.045846
-0.001672
0.015289
-0.040227
-0.040344
-0.040473
-0.040626
-0.040809
-0.041026
-0.041281
-0.041576
-0.041913
-0.042298
-0.042732
-0.043220
-0.043768
-0.044380
-0.045064
-0.045827
-0.046678
-0.047629
-0.048692
-0.049885
-0.051225
-0.052740
-0.054458
-0.056418
-0.058670
-0.061277
-0.064322
-0.067913
-0.072197
-0.077374
-0.083722
-0.091634
-0.101688
-0.114746
-0.132130
-0.155825
-0.188519
-0.232871
-0.289396
-0.353572
-0.414855
-0.459978
-0.474997
-0.454790
-0.402089
-0.322588
-0.223963
-0.120266
-0.037692
-0.003551
-0.042687
-0.042809
-0.042948
-0.043115
-0.043320
-0.043566
-0.043859
-0.044200
-0.044595
-0.045048
-0.045562
-0.046144
-0.046801
-0.047538
-0.048365
-0.049291
-0.050329
-0.051492
-0.052798
-0.054267
-0.055925
-0.057804
-0.059942
-0.062391
-0.065214
-0.068495
-0.072342
-0.076898
-0.082359
-0.088992
-0.097173
-0.107440
-0.120590
-0.137833
-0.161040
-0.193010
-0.237419
-0.297599
-0.373502
-0.458153
-0.537208
-0.593895
-0.614391
-0.594005
-0.537490
-0.451252
-0.340290
-0.214232
-0.102694
-0.053604
-0.045148
-0.045275
-0.045422
-0.045601
-0.045824
-0.046095
-0.046420
-0.046803
-0.047249
-0.047763
-0.048351
-0.049020
-0.049777
-0.050631
-0.051592
-0.052673
-0.053887
-0.055251
-0.056786
-0.058516
-0.060473
-0.062695
-0.065229
-0.068136
-0.071493
-0.075401
-0.079992
-0.085440
-0.091984
-0.099950
-0.109799
-0.122196
-0.138131
-0.159109
-0.187454
-0.226605
-0.280942
-0.354140
-0.445461
-0.545821
-0.637845
-0.702072
-0.725162
-0.703794
-0.645465
-0.558894
-0.447698
-0.315726
-0.190193
-0.131214
-0.047604
-0.047736
-0.047889
-0.048078
-0.048313
-0.048603
-0.048955
-0.049372
-0.049862
-0.050430
-0.051083
-0.051830
-0.052678
-0.053639
-0.054723
-0.055945
-0.057321
-0.058871
-0.060617
-0.062588
-0.064820
-0.067356
-0.070250
-0.073571
-0.077409
-0.081876
-0.087124
-0.093352
-0.100829
-0.109929
-0.121172
-0.135313
-0.153467
-0.177325
-0.209463
-0.253636
-0.314507
-0.395794
-0.496315
-0.605908
-0.705539
-0.773970
-0.798017
-0.775413
-0.716520
-0.633645
-0.531117
-0.407383
-0.282661
-0.220229
-0.050053
-0.050190
-0.050347
-0.050540
-0.050783
-0.051085
-0.051455
-0.051898
-0.052422
-0.053035
-0.053743
-0.054556
-0.055485
-0.056539
-0.057734
-0.059083
-0.060605
-0.062321
-0.064256
-0.066443
-0.068919
-0.071733
-0.074943
-0.078625
-0.082875
-0.087816
-0.093612
-0.100475
-0.108696
-0.118670
-0.130950
-0.146326
-0.165953
-0.191556
-0.225711
-0.272092
-0.335159
-0.418366
-0.520499
-0.631755
-0.733316
-0.803240
-0.827760
-0.804855
-0.746897
-0.669851
-0.580616
-0.474098
-0.361614
-0.301865
-0.052494
-0.052636
-0.052794
-0.052985
-0.053228
-0.053534
-0.053913
-0.054372
-0.054919
-0.055564
-0.056316
-0.057184
-0.058179
-0.059314
-0.060603
-0.062062
-0.063711
-0.065572
-0.067672
-0.070046
-0.072732
-0.075782
-0.079259
-0.083239
-0.087824
-0.093142
-0.099359
-0.106694
-0.115442
-0.125999
-0.138914
-0.154959
-0.175239
-0.201373
-0.235681
-0.281393
-0.342286
-0.421102
-0.516793
-0.621346
-0.718267
-0.786542
-0.811694
-0.791086
-0.736806
-0.667063
-0.592699
-0.507276
-0.413975
-0.361661
-0.054928
-0.055076
-0.055231
-0.055414
-0.055647
-0.055946
-0.056322
-0.056784
-0.057343
-0.058008
-0.058789
-0.059697
-0.060744
-0.061944
-0.063311
-0.064862
-0.066617
-0.068599
-0.070838
-0.073367
-0.076227
-0.079469
-0.083157
-0.087370
-0.092208
-0.097798
-0.104305
-0.111943
-0.120995
-0.131838
-0.144985
-0.161145
-0.181298
-0.206881
-0.239740
-0.282302
-0.337500
-0.407654
-0.491848
-0.583268
-0.667934
-0.727637
-0.749876
-0.733000
-0.687160
-0.628994
-0.569730
-0.505568
-0.434377
-0.392469
-0.057361
-0.057515
-0.057662
-0.057828
-0.058040
-0.058318
-0.058677
-0.059128
-0.059683
-0.060353
-0.061148
-0.062082
-0.063166
-0.064413
-0.065840
-0.067463
-0.069303
-0.071383
-0.073732
-0.076383
-0.079379
-0.082768
-0.086614
-0.090992
-0.096001
-0.101762
-0.108429
-0.116205
-0.125348
-0.136201
-0.149216
-0.165018
-0.184357
-0.208286
-0.238332
-0.276289
-0.324191
-0.383494
-0.453233
-0.527786
-0.595897
-0.642984
-0.659411
-0.645107
-0.607785
-0.561241
-0.517652
-0.473436
-0.424469
-0.394236
-0.059802
-0.059963
-0.060096
-0.060233
-0.060409
-0.060650
-0.060975
-0.061398
-0.061932
-0.062590
-0.063384
-0.064326
-0.065429
-0.066707
-0.068175
-0.069851
-0.071754
-0.073907
-0.076338
-0.079081
-0.082174
-0.085665
-0.089615
-0.094096
-0.099198
-0.105033
-0.111744
-0.119509
-0.128558
-0.139189
-0.151742
-0.166679
-0.184655
-0.206444
-0.233061
-0.265704
-0.305603
-0.353444
-0.408112
-0.465092
-0.515816
-0.549491
-0.559349
-0.546214
-0.516060
-0.479632
-0.447358
-0.420440
-0.391096
-0.372118
-0.062268
-0.062437
-0.062546
-0.062638
-0.062759
-0.062943
-0.063213
-0.063587
-0.064081
-0.064709
-0.065483
-0.066416
-0.067522
-0.068813
-0.070304
-0.072013
-0.073957
-0.076160
-0.078647
-0.081449
-0.084604
-0.088157
-0.092163
-0.096688
-0.101813
-0.107640
-0.114292
-0.121924
-0.130724
-0.140884
-0.152726
-0.166600
-0.182950
-0.202302
-0.225278
-0.252552
-0.284703
-0.321816
-0.362674
-0.403746
-0.438842
-0.460515
-0.464293
-0.451247
-0.426128
-0.397213
-0.372979
-0.357445
-0.343487
-0.333946
-0.064783
-0.064960
-0.065033
-0.065059
-0.065100
-0.065200
-0.065390
-0.065692
-0.066124
-0.066701
-0.067436
-0.068343
-0.069433
-0.070720
-0.072217
-0.073940
-0.075905
-0.078135
-0.080652
-0.083487
-0.086672
-0.090249
-0.094267
-0.098786
-0.103877
-0.109626
-0.116139
-0.123531
-0.131927
-0.141528
-0.152544
-0.165223
-0.179847
-0.196729
-0.216190
-0.238507
-0.263793
-0.291733
-0.321101
-0.349193
-0.371710
-0.383783
-0.382570
-0.369083
-0.347166
-0.323261
-0.304344
-0.294814
-0.290864
-0.287906
-0.067384
-0.067569
-0.067587
-0.067518
-0.067444
-0.067427
-0.067506
-0.067707
-0.068052
-0.068556
-0.069233
-0.070096
-0.071154
-0.072420
-0.073906
-0.075625
-0.077593
-0.079830
-0.082356
-0.085197
-0.088384
-0.091954
-0.095949
-0.100421
-0.105431
-0.111051
-0.117357
-0.124421
-0.132378
-0.141356
-0.151497
-0.162958
-0.175898
-0.190462
-0.206756
-0.224790
-0.244386
-0.265013
-0.285517
-0.303847
-0.317081
-0.322148
-0.317279
-0.303344
-0.283480
-0.262769
-0.246950
-0.240059
-0.240531
-0.240726
-0.070125
-0.070316
-0.070251
-0.070044
-0.069810
-0.069632
-0.069561
-0.069628
-0.069858
-0.070266
-0.070865
-0.071665
-0.072676
-0.073905
-0.075365
-0.077065
-0.079020
-0.081246
-0.083761
-0.086588
-0.089755
-0.093291
-0.097235
-0.101629
-0.106525
-0.111979
-0.118022
-0.124748
-0.132239
-0.140582
-0.149864
-0.160168
-0.171561
-0.184071
-0.197662
-0.212184
-0.227307
-0.242415
-0.256479
-0.267946
-0.274829
-0.275220
-0.268031
-0.253992
-0.235677
-0.217168
-0.203168
-0.196792
-0.196732
-0.196435
-0.073087
-0.073279
-0.073087
-0.072677
-0.072218
-0.071822
-0.071552
-0.071448
-0.071532
-0.071820
-0.072322
-0.073043
-0.073991
-0.075172
-0.076592
-0.078260
-0.080188
-0.082388
-0.084877
-0.087673
-0.090800
-0.094284
-0.098156
-0.102452
-0.107213
-0.112467
-0.118249
-0.124630
-0.131663
-0.139399
-0.147884
-0.157146
-0.167188
-0.177963
-0.189350
-0.201115
-0.212867
-0.223994
-0.233610
-0.240526
-0.243372
-0.240948
-0.232605
-0.218933
-0.202064
-0.185337
-0.172590
-0.165484
-0.160385
-0.155499
-0.076394
-0.076576
-0.076180
-0.075471
-0.074695
-0.074003
-0.073476
-0.073155
-0.073062
-0.073206
-0.073592
-0.074221
-0.075095
-0.076216
-0.077586
-0.079212
-0.081101
-0.083265
-0.085715
-0.088467
-0.091542
-0.094960
-0.098747
-0.102933
-0.107549
-0.112595
-0.118124
-0.124176
-0.130783
-0.137970
-0.145751
-0.154120
-0.163035
-0.172405
-0.182066
-0.191751
-0.201060
-0.209430
-0.216111
-0.220183
-0.220665
-0.216769
-0.208197
-0.195293
-0.179896
-0.164751
-0.152903
-0.144096
-0.128794
-0.113565
-0.080247
-0.080388
-0.079656
-0.078491
-0.077264
-0.076176
-0.075320
-0.074734
-0.074430
-0.074408
-0.074664
-0.075191
-0.075983
-0.077036
-0.078349
-0.079925
-0.081768
-0.083885
-0.086288
-0.088988
-0.092002
-0.095346
-0.099041
-0.103112
-0.107580
-0.112433
-0.117726
-0.123480
-0.129710
-0.136425
-0.143616
-0.151253
-0.159270
-0.167553
-0.175919
-0.184097
-0.191710
-0.198253
-0.203095
-0.205512
-0.204773
-0.200328
-0.192084
-0.180222
-0.166274
-0.152411
-0.140672
-0.128110
-0.094496
-0.058532
-0.084983
-0.085008
-0.083689
-0.081813
-0.079939
-0.078325
-0.077058
-0.076156
-0.075613
-0.075409
-0.075525
-0.075943
-0.076649
-0.077632
-0.078884
-0.080404
-0.082195
-0.084261
-0.086611
-0.089254
-0.092203
-0.095469
-0.099072
-0.103032
-0.107354
-0.112038
-0.117123
-0.122620
-0.128536
-0.134866
-0.141587
-0.148657
-0.155996
-0.163481
-0.170926
-0.178071
-0.184568
-0.189971
-0.193748
-0.195309
-0.194081
-0.189648
-0.181942
-0.171276
-0.158595
-0.145417
-0.131646
-0.108196
-0.042101
0.036396
-0.091230
-0.090931
-0.088522
-0.085501
-0.082702
-0.080407
-0.078643
-0.077382
-0.076577
-0.076183
-0.076158
-0.076468
-0.077089
-0.078001
-0.079190
-0.080653
-0.082389
-0.084402
-0.086697
-0.089281
-0.092166
-0.095356
-0.098869
-0.102728
-0.106915
-0.111457
-0.116371
-0.121663
-0.127333
-0.133368
-0.139742
-0.146402
-0.153265
-0.160206
-0.167044
-0.173534
-0.179358
-0.184120
-0.187359
-0.188577
-0.187300
-0.183169
-0.176076
-0.166291
-0.154456
-0.140910
-0.120291
-0.066592
0.063041
0.228441
-0.100283
-0.099043
-0.094450
-0.089550
-0.085458
-0.082327
-0.079994
-0.078341
-0.077267
-0.076685
-0.076523
-0.076730
-0.077272
-0.078121
-0.079246
-0.080652
-0.082331
-0.084292
-0.086534
-0.089064
-0.091895
-0.095013
-0.098446
-0.102207
-0.106297
-0.110728
-0.115512
-0.120653
-0.126147
-0.131979
-0.138118
-0.144511
-0.151072
-0.157679
-0.164158
-0.170277
-0.175743
-0.180195
-0.183221
-0.184381
-0.183250
-0.179481
-0.172874
-0.163386
-0.151063
-0.134587
-0.095536
0.023542
0.304148
0.639520
-0.115466
-0.111145
-0.101700
-0.093738
-0.087919
-0.083863
-0.080898
-0.078822
-0.077480
-0.076721
-0.076434
-0.076547
-0.077020
-0.077827
-0.078879
-0.080236
-0.081881
-0.083800
-0.085998
-0.088482
-0.091258
-0.094329
-0.097708
-0.101406
-0.105430
-0.109790
-0.114494
-0.119542
-0.124932
-0.130645
-0.136650
-0.142891
-0.149285
-0.155709
-0.161996
-0.167923
-0.173210
-0.177520
-0.180467
-0.181639
-0.180623
-0.177031
-0.170472
-0.160281
-0.145287
-0.115913
-0.026186
0.235700
0.813416
1.516810
-0.145553
-0.129362
-0.110066
-0.096695
-0.088421
-0.083463
-0.079748
-0.077430
-0.075957
-0.075106
-0.074768
-0.074858
-0.075322
-0.076115
-0.077193
-0.078567
-0.080227
-0.082164
-0.084379
-0.086876
-0.089662
-0.092743
-0.096128
-0.099828
-0.103851
-0.108206
-0.112898
-0.117930
-0.123294
-0.128972
-0.134931
-0.141115
-0.147437
-0.153777
-0.159966
-0.165786
-0.170965
-0.175173
-0.178038
-0.179150
-0.178057
-0.174220
-0.166685
-0.153345
-0.128783
-0.055158
0.154287
0.689647
1.780513
3.182182
-0.249111
-0.111760
-0.081996
-0.072784
-0.068959
-0.067156
-0.066102
-0.065673
-0.065641
-0.065925
-0.066498
-0.067338
-0.068428
-0.069751
-0.071292
-0.073065
-0.075074
-0.077319
-0.079809
-0.082552
-0.085558
-0.088838
-0.092403
-0.096265
-0.100436
-0.104925
-0.109737
-0.114875
-0.120332
-0.126089
-0.132112
-0.138342
-0.144693
-0.151041
-0.157218
-0.163008
-0.168139
-0.172287
-0.175077
-0.176076
-0.174715
-0.170059
-0.159597
-0.136293
-0.074038
0.085518
0.480171
1.367976
3.039245
5.260936
