# vtk DataFile Version 3.0
Vector Field
ASCII
DATASET RECTILINEAR_GRID
DIMENSIONS 50 50 1
X_COORDINATES 50 double
0.100000 0.300000 0.500000 0.700000 0.900000 1.100000 1.300000 1.500000 1.700000 1.900000 2.100000 2.300000 2.500000 2.700000 2.900000 3.100000 3.300000 3.500000 3.700000 3.900000 4.100000 4.300000 4.500000 4.700000 4.900000 5.100000 5.300000 5.500000 5.700000 5.900000 6.100000 6.300000 6.500000 6.700000 6.900000 7.100000 7.300000 7.500000 7.700000 7.900000 8.100000 8.300000 8.500000 8.700000 8.900000 9.100000 9.300000 9.500000 9.700000 9.900000 
Y_COORDINATES 50 double
0.100000 0.300000 0.500000 0.700000 0.900000 1.100000 1.300000 1.500000 1.700000 1.900000 2.100000 2.300000 2.500000 2.700000 2.900000 3.100000 3.300000 3.500000 3.700000 3.900000 4.100000 4.300000 4.500000 4.700000 4.900000 5.100000 5.300000 5.500000 5.700000 5.900000 6.100000 6.300000 6.500000 6.700000 6.900000 7.100000 7.300000 7.500000 7.700000 7.900000 8.100000 8.300000 8.500000 8.700000 8.900000 9.100000 9.300000 9.500000 9.700000 9.900000 
Z_COORDINATES 1 double
0.0
POINT_DATA 2500
VECTORS Vektorfeld double
-0.000190 0.000190 0.0
-0.000756 0.000376 0.0
-0.001548 0.000416 0.0
-0.002382 0.000418 0.0
-0.003213 0.000413 0.0
-0.004034 0.000407 0.0
-0.004841 0.000400 0.0
-0.005633 0.000392 0.0
-0.006406 0.000382 0.0
-0.007158 0.000370 0.0
-0.007886 0.000358 0.0
-0.008588 0.000344 0.0
-0.009260 0.000329 0.0
-0.009901 0.000312 0.0
-0.010508 0.000295 0.0
-0.011078 0.000276 0.0
-0.011609 0.000256 0.0
-0.012099 0.000234 0.0
-0.012546 0.000212 0.0
-0.012946 0.000189 0.0
-0.013299 0.000164 0.0
-0.013602 0.000139 0.0
-0.013853 0.000112 0.0
-0.014050 0.000085 0.0
-0.014192 0.000057 0.0
-0.014277 0.000028 0.0
-0.014305 -0.000001 0.0
-0.014273 -0.000031 0.0
-0.014181 -0.000061 0.0
-0.014028 -0.000092 0.0
-0.013814 -0.000123 0.0
-0.013538 -0.000153 0.0
-0.013200 -0.000184 0.0
-0.012801 -0.000215 0.0
-0.012342 -0.000245 0.0
-0.011823 -0.000274 0.0
-0.011247 -0.000303 0.0
-0.010614 -0.000330 0.0
-0.009928 -0.000356 0.0
-0.009190 -0.000381 0.0
-0.008405 -0.000404 0.0
-0.007575 -0.000426 0.0
-0.006704 -0.000445 0.0
-0.005797 -0.000462 0.0
-0.004858 -0.000477 0.0
-0.003892 -0.000489 0.0
-0.002905 -0.000498 0.0
-0.001908 -0.000499 0.0
-0.000952 -0.000457 0.0
-0.000247 -0.000247 0.0
-0.000381 0.000760 0.0
-0.001398 0.001389 0.0
-0.002724 0.001521 0.0
-0.004106 0.001528 0.0
-0.005485 0.001513 0.0
-0.006846 0.001490 0.0
-0.008183 0.001462 0.0
-0.009492 0.001430 0.0
-0.010768 0.001392 0.0
-0.012006 0.001350 0.0
-0.013203 0.001302 0.0
-0.014352 0.001250 0.0
-0.015451 0.001193 0.0
-0.016494 0.001132 0.0
-0.017479 0.001066 0.0
-0.018400 0.000996 0.0
-0.019255 0.000921 0.0
-0.020039 0.000843 0.0
-0.020749 0.000760 0.0
-0.021382 0.000674 0.0
-0.021934 0.000584 0.0
-0.022403 0.000490 0.0
-0.022785 0.000394 0.0
-0.023079 0.000294 0.0
-0.023281 0.000192 0.0
-0.023391 0.000088 0.0
-0.023405 -0.000019 0.0
-0.023323 -0.000127 0.0
-0.023144 -0.000236 0.0
-0.022867 -0.000347 0.0
-0.022491 -0.000458 0.0
-0.022017 -0.000568 0.0
-0.021446 -0.000678 0.0
-0.020778 -0.000787 0.0
-0.020015 -0.000894 0.0
-0.019159 -0.000999 0.0
-0.018214 -0.001100 0.0
-0.017181 -0.001198 0.0
-0.016064 -0.001291 0.0
-0.014869 -0.001379 0.0
-0.013600 -0.001461 0.0
-0.012263 -0.001536 0.0
-0.010863 -0.001605 0.0
-0.009407 -0.001665 0.0
-0.007902 -0.001717 0.0
-0.006357 -0.001761 0.0
-0.004779 -0.001792 0.0
-0.003187 -0.001794 0.0
-0.001651 -0.001654 0.0
-0.000456 -0.000950 0.0
-0.000425 0.001566 0.0
-0.001549 0.002724 0.0
-0.002999 0.002962 0.0
-0.004506 0.002976 0.0
-0.006006 0.002945 0.0
-0.007488 0.002900 0.0
-0.008943 0.002845 0.0
-0.010367 0.002780 0.0
-0.011754 0.002705 0.0
-0.013100 0.002621 0.0
-0.014399 0.002527 0.0
-0.015647 0.002423 0.0
-0.016839 0.002311 0.0
-0.017971 0.002190 0.0
-0.019038 0.002060 0.0
-0.020036 0.001921 0.0
-0.020960 0.001775 0.0
-0.021808 0.001621 0.0
-0.022574 0.001459 0.0
-0.023256 0.001290 0.0
-0.023851 0.001114 0.0
-0.024354 0.000932 0.0
-0.024763 0.000744 0.0
-0.025076 0.000551 0.0
-0.025291 0.000353 0.0
-0.025404 0.000150 0.0
-0.025414 -0.000056 0.0
-0.025320 -0.000265 0.0
-0.025121 -0.000476 0.0
-0.024815 -0.000689 0.0
-0.024404 -0.000902 0.0
-0.023886 -0.001115 0.0
-0.023264 -0.001326 0.0
-0.022537 -0.001535 0.0
-0.021707 -0.001739 0.0
-0.020778 -0.001939 0.0
-0.019751 -0.002133 0.0
-0.018631 -0.002319 0.0
-0.017420 -0.002496 0.0
-0.016125 -0.002664 0.0
-0.014751 -0.002820 0.0
-0.013302 -0.002963 0.0
-0.011786 -0.003093 0.0
-0.010211 -0.003208 0.0
-0.008582 -0.003307 0.0
-0.006910 -0.003389 0.0
-0.005203 -0.003449 0.0
-0.003480 -0.003452 0.0
-0.001812 -0.003200 0.0
-0.000503 -0.001909 0.0
-0.000435 0.002426 0.0
-0.001583 0.004137 0.0
-0.003065 0.004482 0.0
-0.004603 0.004500 0.0
-0.006134 0.004453 0.0
-0.007645 0.004385 0.0
-0.009130 0.004300 0.0
-0.010583 0.004201 0.0
-0.011998 0.004087 0.0
-0.013371 0.003958 0.0
-0.014697 0.003815 0.0
-0.015970 0.003657 0.0
-0.017187 0.003486 0.0
-0.018342 0.003301 0.0
-0.019430 0.003104 0.0
-0.020448 0.002893 0.0
-0.021392 0.002671 0.0
-0.022257 0.002437 0.0
-0.023040 0.002192 0.0
-0.023737 0.001936 0.0
-0.024344 0.001670 0.0
-0.024859 0.001394 0.0
-0.025278 0.001110 0.0
-0.025599 0.000818 0.0
-0.025819 0.000519 0.0
-0.025937 0.000214 0.0
-0.025949 -0.000097 0.0
-0.025856 -0.000412 0.0
-0.025655 -0.000730 0.0
-0.025346 -0.001050 0.0
-0.024929 -0.001370 0.0
-0.024403 -0.001690 0.0
-0.023770 -0.002007 0.0
-0.023030 -0.002320 0.0
-0.022186 -0.002628 0.0
-0.021239 -0.002927 0.0
-0.020192 -0.003218 0.0
-0.019049 -0.003497 0.0
-0.017815 -0.003763 0.0
-0.016493 -0.004014 0.0
-0.015089 -0.004248 0.0
-0.013609 -0.004463 0.0
-0.012060 -0.004658 0.0
-0.010450 -0.004830 0.0
-0.008785 -0.004978 0.0
-0.007074 -0.005101 0.0
-0.005328 -0.005190 0.0
-0.003565 -0.005196 0.0
-0.001857 -0.004831 0.0
-0.000515 -0.002928 0.0
-0.000440 0.003300 0.0
-0.001603 0.005574 0.0
-0.003105 0.006028 0.0
-0.004663 0.006050 0.0
-0.006215 0.005986 0.0
-0.007747 0.005894 0.0
-0.009251 0.005780 0.0
-0.010724 0.005646 0.0
-0.012158 0.005492 0.0
-0.013550 0.005318 0.0
-0.014894 0.005124 0.0
-0.016186 0.004912 0.0
-0.017420 0.004681 0.0
-0.018591 0.004432 0.0
-0.019696 0.004166 0.0
-0.020730 0.003883 0.0
-0.021689 0.003584 0.0
-0.022568 0.003269 0.0
-0.023364 0.002939 0.0
-0.024073 0.002595 0.0
-0.024692 0.002237 0.0
-0.025218 0.001867 0.0
-0.025647 0.001486 0.0
-0.025977 0.001094 0.0
-0.026205 0.000692 0.0
-0.026329 0.000282 0.0
-0.026347 -0.000135 0.0
-0.026257 -0.000557 0.0
-0.026059 -0.000984 0.0
-0.025751 -0.001413 0.0
-0.025332 -0.001843 0.0
-0.024804 -0.002271 0.0
-0.024166 -0.002697 0.0
-0.023420 -0.003117 0.0
-0.022566 -0.003529 0.0
-0.021608 -0.003931 0.0
-0.020548 -0.004321 0.0
-0.019390 -0.004695 0.0
-0.018137 -0.005052 0.0
-0.016795 -0.005389 0.0
-0.015368 -0.005703 0.0
-0.013864 -0.005992 0.0
-0.012288 -0.006253 0.0
-0.010649 -0.006485 0.0
-0.008954 -0.006684 0.0
-0.007211 -0.006848 0.0
-0.005432 -0.006968 0.0
-0.003634 -0.006979 0.0
-0.001893 -0.006499 0.0
-0.000525 -0.003969 0.0
-0.000446 0.004186 0.0
-0.001626 0.007032 0.0
-0.003151 0.007597 0.0
-0.004734 0.007623 0.0
-0.006310 0.007542 0.0
-0.007865 0.007425 0.0
-0.009393 0.007282 0.0
-0.010888 0.007112 0.0
-0.012346 0.006918 0.0
-0.013760 0.006698 0.0
-0.015126 0.006454 0.0
-0.016438 0.006186 0.0
-0.017693 0.005895 0.0
-0.018885 0.005582 0.0
-0.020009 0.005246 0.0
-0.021062 0.004889 0.0
-0.022038 0.004512 0.0
-0.022935 0.004116 0.0
-0.023747 0.003700 0.0
-0.024472 0.003267 0.0
-0.025106 0.002818 0.0
-0.025645 0.002352 0.0
-0.026087 0.001872 0.0
-0.026428 0.001379 0.0
-0.026666 0.000873 0.0
-0.026798 0.000358 0.0
-0.026823 -0.000167 0.0
-0.026739 -0.000699 0.0
-0.026544 -0.001236 0.0
-0.026238 -0.001776 0.0
-0.025819 -0.002317 0.0
-0.025288 -0.002856 0.0
-0.024646 -0.003392 0.0
-0.023892 -0.003921 0.0
-0.023028 -0.004441 0.0
-0.022057 -0.004948 0.0
-0.020982 -0.005440 0.0
-0.019805 -0.005912 0.0
-0.018531 -0.006363 0.0
-0.017164 -0.006788 0.0
-0.015710 -0.007185 0.0
-0.014176 -0.007550 0.0
-0.012568 -0.007880 0.0
-0.010893 -0.008172 0.0
-0.009161 -0.008424 0.0
-0.007379 -0.008632 0.0
-0.005559 -0.008784 0.0
-0.003720 -0.008800 0.0
-0.001937 -0.008202 0.0
-0.000538 -0.005032 0.0
-0.000453 0.005085 0.0
-0.001655 0.008515 0.0
-0.003208 0.009192 0.0
-0.004820 0.009222 0.0
-0.006425 0.009124 0.0
-0.008009 0.008983 0.0
-0.009566 0.008809 0.0
-0.011089 0.008604 0.0
-0.012575 0.008368 0.0
-0.014016 0.008103 0.0
-0.015408 0.007808 0.0
-0.016747 0.007484 0.0
-0.018027 0.007132 0.0
-0.019243 0.006753 0.0
-0.020391 0.006347 0.0
-0.021467 0.005916 0.0
-0.022465 0.005461 0.0
-0.023383 0.004982 0.0
-0.024216 0.004480 0.0
-0.024960 0.003957 0.0
-0.025611 0.003413 0.0
-0.026167 0.002851 0.0
-0.026624 0.002271 0.0
-0.026979 0.001675 0.0
-0.027229 0.001065 0.0
-0.027372 0.000442 0.0
-0.027406 -0.000192 0.0
-0.027329 -0.000835 0.0
-0.027139 -0.001484 0.0
-0.026835 -0.002138 0.0
-0.026416 -0.002792 0.0
-0.025882 -0.003446 0.0
-0.025234 -0.004094 0.0
-0.024471 -0.004736 0.0
-0.023596 -0.005366 0.0
-0.022609 -0.005981 0.0
-0.021515 -0.006577 0.0
-0.020315 -0.007151 0.0
-0.019015 -0.007698 0.0
-0.017618 -0.008215 0.0
-0.016132 -0.008698 0.0
-0.014560 -0.009142 0.0
-0.012912 -0.009544 0.0
-0.011195 -0.009900 0.0
-0.009416 -0.010207 0.0
-0.007587 -0.010461 0.0
-0.005716 -0.010647 0.0
-0.003825 -0.010667 0.0
-0.001993 -0.009950 0.0
-0.000553 -0.006123 0.0
-0.000463 0.006001 0.0
-0.001689 0.010027 0.0
-0.003275 0.010819 0.0
-0.004922 0.010853 0.0
-0.006562 0.010738 0.0
-0.008181 0.010572 0.0
-0.009772 0.010367 0.0
-0.011329 0.010126 0.0
-0.012847 0.009849 0.0
-0.014321 0.009537 0.0
-0.015745 0.009190 0.0
-0.017114 0.008810 0.0
-0.018424 0.008396 0.0
-0.019669 0.007951 0.0
-0.020846 0.007474 0.0
-0.021948 0.006968 0.0
-0.022973 0.006433 0.0
-0.023916 0.005870 0.0
-0.024772 0.005281 0.0
-0.025539 0.004666 0.0
-0.026212 0.004028 0.0
-0.026788 0.003368 0.0
-0.027263 0.002687 0.0
-0.027634 0.001987 0.0
-0.027900 0.001269 0.0
-0.028056 0.000537 0.0
-0.028100 -0.000209 0.0
-0.028031 -0.000965 0.0
-0.027847 -0.001729 0.0
-0.027546 -0.002498 0.0
-0.027128 -0.003269 0.0
-0.026591 -0.004039 0.0
-0.025936 -0.004805 0.0
-0.025163 -0.005561 0.0
-0.024274 -0.006305 0.0
-0.023269 -0.007032 0.0
-0.022152 -0.007737 0.0
-0.020926 -0.008416 0.0
-0.019595 -0.009065 0.0
-0.018163 -0.009677 0.0
-0.016637 -0.010249 0.0
-0.015022 -0.010776 0.0
-0.013326 -0.011253 0.0
-0.011557 -0.011677 0.0
-0.009724 -0.012042 0.0
-0.007836 -0.012344 0.0
-0.005905 -0.012565 0.0
-0.003953 -0.012592 0.0
-0.002060 -0.011751 0.0
-0.000572 -0.007248 0.0
-0.000473 0.006937 0.0
-0.001729 0.011574 0.0
-0.003354 0.012484 0.0
-0.005042 0.012523 0.0
-0.006722 0.012389 0.0
-0.008381 0.012198 0.0
-0.010011 0.011962 0.0
-0.011608 0.011685 0.0
-0.013164 0.011366 0.0
-0.014675 0.011006 0.0
-0.016136 0.010606 0.0
-0.017541 0.010168 0.0
-0.018886 0.009692 0.0
-0.020165 0.009179 0.0
-0.021374 0.008631 0.0
-0.022508 0.008048 0.0
-0.023563 0.007432 0.0
-0.024535 0.006785 0.0
-0.025419 0.006107 0.0
-0.026212 0.005400 0.0
-0.026910 0.004665 0.0
-0.027509 0.003905 0.0
-0.028005 0.003121 0.0
-0.028396 0.002315 0.0
-0.028679 0.001489 0.0
-0.028850 0.000645 0.0
-0.028908 -0.000215 0.0
-0.028849 -0.001087 0.0
-0.028672 -0.001968 0.0
-0.028375 -0.002856 0.0
-0.027957 -0.003747 0.0
-0.027418 -0.004638 0.0
-0.026756 -0.005523 0.0
-0.025972 -0.006399 0.0
-0.025066 -0.007261 0.0
-0.024042 -0.008105 0.0
-0.022899 -0.008923 0.0
-0.021643 -0.009713 0.0
-0.020276 -0.010467 0.0
-0.018803 -0.011180 0.0
-0.017230 -0.011846 0.0
-0.015564 -0.012460 0.0
-0.013813 -0.013017 0.0
-0.011983 -0.013511 0.0
-0.010085 -0.013938 0.0
-0.008130 -0.014291 0.0
-0.006128 -0.014550 0.0
-0.004103 -0.014584 0.0
-0.002139 -0.013617 0.0
-0.000594 -0.008415 0.0
-0.000486 0.007895 0.0
-0.001775 0.013160 0.0
-0.003444 0.014192 0.0
-0.005178 0.014235 0.0
-0.006905 0.014084 0.0
-0.008610 0.013867 0.0
-0.010285 0.013600 0.0
-0.011926 0.013284 0.0
-0.013526 0.012922 0.0
-0.015080 0.012514 0.0
-0.016583 0.012061 0.0
-0.018029 0.011564 0.0
-0.019413 0.011025 0.0
-0.020730 0.010443 0.0
-0.021977 0.009822 0.0
-0.023147 0.009162 0.0
-0.024237 0.008464 0.0
-0.025241 0.007730 0.0
-0.026157 0.006962 0.0
-0.026980 0.006161 0.0
-0.027706 0.005328 0.0
-0.028332 0.004467 0.0
-0.028853 0.003578 0.0
-0.029267 0.002663 0.0
-0.029570 0.001726 0.0
-0.029759 0.000768 0.0
-0.029832 -0.000208 0.0
-0.029785 -0.001199 0.0
-0.029617 -0.002201 0.0
-0.029325 -0.003212 0.0
-0.028909 -0.004226 0.0
-0.028367 -0.005241 0.0
-0.027697 -0.006251 0.0
-0.026901 -0.007252 0.0
-0.025979 -0.008237 0.0
-0.024931 -0.009202 0.0
-0.023761 -0.010139 0.0
-0.022470 -0.011044 0.0
-0.021062 -0.011910 0.0
-0.019543 -0.012729 0.0
-0.017918 -0.013495 0.0
-0.016193 -0.014202 0.0
-0.014377 -0.014844 0.0
-0.012478 -0.015413 0.0
-0.010505 -0.015905 0.0
-0.008471 -0.016313 0.0
-0.006387 -0.016613 0.0
-0.004278 -0.016655 0.0
-0.002231 -0.015557 0.0
-0.000621 -0.009630 0.0
-0.000499 0.008880 0.0
-0.001827 0.014792 0.0
-0.003546 0.015949 0.0
-0.005332 0.015998 0.0
-0.007111 0.015828 0.0
-0.008867 0.015584 0.0
-0.010594 0.015284 0.0
-0.012285 0.014931 0.0
-0.013934 0.014525 0.0
-0.015536 0.014068 0.0
-0.017086 0.013560 0.0
-0.018578 0.013003 0.0
-0.020007 0.012399 0.0
-0.021368 0.011748 0.0
-0.022656 0.011052 0.0
-0.023866 0.010312 0.0
-0.024995 0.009531 0.0
-0.026037 0.008710 0.0
-0.026989 0.007849 0.0
-0.027845 0.006953 0.0
-0.028604 0.006021 0.0
-0.029259 0.005055 0.0
-0.029809 0.004059 0.0
-0.030248 0.003035 0.0
-0.030574 0.001984 0.0
-0.030784 0.000909 0.0
-0.030874 -0.000186 0.0
-0.030842 -0.001299 0.0
-0.030685 -0.002426 0.0
-0.030401 -0.003563 0.0
-0.029987 -0.004705 0.0
-0.029442 -0.005849 0.0
-0.028766 -0.006989 0.0
-0.027957 -0.008119 0.0
-0.027016 -0.009233 0.0
-0.025944 -0.010325 0.0
-0.024742 -0.011388 0.0
-0.023413 -0.012415 0.0
-0.021960 -0.013399 0.0
-0.020389 -0.014331 0.0
-0.018704 -0.015203 0.0
-0.016913 -0.016010 0.0
-0.015024 -0.016742 0.0
-0.013045 -0.017393 0.0
-0.010988 -0.017955 0.0
-0.008863 -0.018422 0.0
-0.006685 -0.018766 0.0
-0.004479 -0.018818 0.0
-0.002337 -0.017583 0.0
-0.000651 -0.010901 0.0
-0.000515 0.009895 0.0
-0.001884 0.016474 0.0
-0.003660 0.017762 0.0
-0.005504 0.017815 0.0
-0.007341 0.017627 0.0
-0.009155 0.017356 0.0
-0.010939 0.017023 0.0
-0.012685 0.016630 0.0
-0.014389 0.016179 0.0
-0.016045 0.015671 0.0
-0.017647 0.015108 0.0
-0.019190 0.014490 0.0
-0.020668 0.013819 0.0
-0.022077 0.013097 0.0
-0.023412 0.012325 0.0
-0.024668 0.011505 0.0
-0.025839 0.010639 0.0
-0.026923 0.009728 0.0
-0.027915 0.008774 0.0
-0.028809 0.007779 0.0
-0.029603 0.006746 0.0
-0.030293 0.005675 0.0
-0.030874 0.004570 0.0
-0.031343 0.003432 0.0
-0.031695 0.002265 0.0
-0.031929 0.001071 0.0
-0.032040 -0.000147 0.0
-0.032025 -0.001385 0.0
-0.031881 -0.002640 0.0
-0.031605 -0.003908 0.0
-0.031196 -0.005183 0.0
-0.030650 -0.006461 0.0
-0.029967 -0.007736 0.0
-0.029146 -0.009002 0.0
-0.028185 -0.010251 0.0
-0.027087 -0.011478 0.0
-0.025851 -0.012674 0.0
-0.024480 -0.013830 0.0
-0.022977 -0.014939 0.0
-0.021348 -0.015991 0.0
-0.019597 -0.016978 0.0
-0.017731 -0.017891 0.0
-0.015760 -0.018721 0.0
-0.013691 -0.019460 0.0
-0.011538 -0.020099 0.0
-0.009311 -0.020630 0.0
-0.007026 -0.021022 0.0
-0.004709 -0.021085 0.0
-0.002459 -0.019709 0.0
-0.000685 -0.012236 0.0
-0.000532 0.010942 0.0
-0.001948 0.018213 0.0
-0.003786 0.019635 0.0
-0.005694 0.019695 0.0
-0.007596 0.019486 0.0
-0.009474 0.019188 0.0
-0.011320 0.018820 0.0
-0.013128 0.018388 0.0
-0.014893 0.017891 0.0
-0.016608 0.017331 0.0
-0.018267 0.016710 0.0
-0.019867 0.016030 0.0
-0.021400 0.015291 0.0
-0.022862 0.014496 0.0
-0.024247 0.013647 0.0
-0.025552 0.012744 0.0
-0.026772 0.011791 0.0
-0.027902 0.010789 0.0
-0.028937 0.009740 0.0
-0.029874 0.008645 0.0
-0.030708 0.007508 0.0
-0.031435 0.006330 0.0
-0.032051 0.005113 0.0
-0.032553 0.003860 0.0
-0.032936 0.002574 0.0
-0.033196 0.001257 0.0
-0.033331 -0.000087 0.0
-0.033336 -0.001455 0.0
-0.033208 -0.002843 0.0
-0.032943 -0.004246 0.0
-0.032540 -0.005659 0.0
-0.031995 -0.007076 0.0
-0.031307 -0.008492 0.0
-0.030473 -0.009901 0.0
-0.029493 -0.011293 0.0
-0.028366 -0.012662 0.0
-0.027094 -0.013998 0.0
-0.025678 -0.015292 0.0
-0.024122 -0.016536 0.0
-0.022428 -0.017718 0.0
-0.020604 -0.018828 0.0
-0.018656 -0.019856 0.0
-0.016592 -0.020792 0.0
-0.014423 -0.021626 0.0
-0.012161 -0.022349 0.0
-0.009819 -0.022949 0.0
-0.007412 -0.023394 0.0
-0.004971 -0.023471 0.0
-0.002597 -0.021947 0.0
-0.000724 -0.013645 0.0
-0.000551 0.012025 0.0
-0.002019 0.020015 0.0
-0.003924 0.021577 0.0
-0.005904 0.021642 0.0
-0.007876 0.021413 0.0
-0.009824 0.021086 0.0
-0.011739 0.020683 0.0
-0.013615 0.020209 0.0
-0.015446 0.019665 0.0
-0.017226 0.019052 0.0
-0.018949 0.018372 0.0
-0.020609 0.017627 0.0
-0.022202 0.016819 0.0
-0.023722 0.015950 0.0
-0.025164 0.015021 0.0
-0.026523 0.014034 0.0
-0.027795 0.012993 0.0
-0.028975 0.011897 0.0
-0.030058 0.010750 0.0
-0.031041 0.009554 0.0
-0.031919 0.008311 0.0
-0.032688 0.007023 0.0
-0.033344 0.005692 0.0
-0.033882 0.004321 0.0
-0.034299 0.002912 0.0
-0.034590 0.001470 0.0
-0.034752 -0.000004 0.0
-0.034780 -0.001505 0.0
-0.034671 -0.003030 0.0
-0.034421 -0.004573 0.0
-0.034026 -0.006129 0.0
-0.033484 -0.007693 0.0
-0.032791 -0.009257 0.0
-0.031946 -0.010815 0.0
-0.030946 -0.012358 0.0
-0.029791 -0.013878 0.0
-0.028481 -0.015364 0.0
-0.027018 -0.016806 0.0
-0.025402 -0.018194 0.0
-0.023640 -0.019515 0.0
-0.021735 -0.020759 0.0
-0.019695 -0.021912 0.0
-0.017530 -0.022964 0.0
-0.015249 -0.023903 0.0
-0.012865 -0.024718 0.0
-0.010393 -0.025395 0.0
-0.007849 -0.025898 0.0
-0.005266 -0.025991 0.0
-0.002754 -0.024313 0.0
-0.000768 -0.015138 0.0
-0.000571 0.013147 0.0
-0.002096 0.021884 0.0
-0.004075 0.023592 0.0
-0.006132 0.023663 0.0
-0.008182 0.023414 0.0
-0.010206 0.023057 0.0
-0.012197 0.022618 0.0
-0.014147 0.022101 0.0
-0.016050 0.021507 0.0
-0.017900 0.020840 0.0
-0.019692 0.020099 0.0
-0.021419 0.019288 0.0
-0.023077 0.018409 0.0
-0.024660 0.017463 0.0
-0.026163 0.016452 0.0
-0.027581 0.015380 0.0
-0.028909 0.014247 0.0
-0.030144 0.013057 0.0
-0.031280 0.011810 0.0
-0.032313 0.010510 0.0
-0.033239 0.009159 0.0
-0.034054 0.007758 0.0
-0.034753 0.006311 0.0
-0.035332 0.004819 0.0
-0.035787 0.003286 0.0
-0.036113 0.001714 0.0
-0.036306 0.000106 0.0
-0.036361 -0.001532 0.0
-0.036275 -0.003198 0.0
-0.036043 -0.004887 0.0
-0.035660 -0.006592 0.0
-0.035123 -0.008309 0.0
-0.034429 -0.010029 0.0
-0.033574 -0.011744 0.0
-0.032555 -0.013447 0.0
-0.031372 -0.015127 0.0
-0.030023 -0.016773 0.0
-0.028508 -0.018375 0.0
-0.026831 -0.019918 0.0
-0.024993 -0.021391 0.0
-0.023001 -0.022780 0.0
-0.020861 -0.024071 0.0
-0.018583 -0.025250 0.0
-0.016177 -0.026304 0.0
-0.013657 -0.027220 0.0
-0.011040 -0.027983 0.0
-0.008343 -0.028550 0.0
-0.005601 -0.028663 0.0
-0.002931 -0.026823 0.0
-0.000819 -0.016725 0.0
-0.000594 0.014312 0.0
-0.002179 0.023828 0.0
-0.004240 0.025688 0.0
-0.006382 0.025766 0.0
-0.008516 0.025495 0.0
-0.010623 0.025107 0.0
-0.012695 0.024630 0.0
-0.014725 0.024068 0.0
-0.016707 0.023424 0.0
-0.018634 0.022700 0.0
-0.020500 0.021897 0.0
-0.022300 0.021018 0.0
-0.024027 0.020065 0.0
-0.025678 0.019040 0.0
-0.027247 0.017946 0.0
-0.028728 0.016786 0.0
-0.030118 0.015560 0.0
-0.031411 0.014272 0.0
-0.032604 0.012924 0.0
-0.033692 0.011518 0.0
-0.034671 0.010056 0.0
-0.035536 0.008541 0.0
-0.036283 0.006974 0.0
-0.036907 0.005359 0.0
-0.037404 0.003698 0.0
-0.037769 0.001993 0.0
-0.037998 0.000249 0.0
-0.038085 -0.001532 0.0
-0.038025 -0.003344 0.0
-0.037815 -0.005184 0.0
-0.037448 -0.007045 0.0
-0.036920 -0.008921 0.0
-0.036227 -0.010804 0.0
-0.035365 -0.012687 0.0
-0.034329 -0.014559 0.0
-0.033118 -0.016410 0.0
-0.031729 -0.018228 0.0
-0.030163 -0.020001 0.0
-0.028419 -0.021713 0.0
-0.026502 -0.023351 0.0
-0.024415 -0.024899 0.0
-0.022165 -0.026341 0.0
-0.019763 -0.027661 0.0
-0.017219 -0.028843 0.0
-0.014549 -0.029872 0.0
-0.011768 -0.030730 0.0
-0.008898 -0.031370 0.0
-0.005978 -0.031506 0.0
-0.003131 -0.029496 0.0
-0.000876 -0.018419 0.0
-0.000618 0.015524 0.0
-0.002270 0.025854 0.0
-0.004419 0.027872 0.0
-0.006652 0.027957 0.0
-0.008878 0.027663 0.0
-0.011075 0.027243 0.0
-0.013235 0.026726 0.0
-0.015352 0.026119 0.0
-0.017418 0.025422 0.0
-0.019428 0.024638 0.0
-0.021374 0.023771 0.0
-0.023252 0.022821 0.0
-0.025055 0.021792 0.0
-0.026778 0.020687 0.0
-0.028417 0.019507 0.0
-0.029967 0.018256 0.0
-0.031423 0.016935 0.0
-0.032780 0.015548 0.0
-0.034034 0.014096 0.0
-0.035181 0.012581 0.0
-0.036217 0.011007 0.0
-0.037136 0.009374 0.0
-0.037935 0.007686 0.0
-0.038609 0.005945 0.0
-0.039153 0.004153 0.0
-0.039562 0.002312 0.0
-0.039831 0.000427 0.0
-0.039954 -0.001500 0.0
-0.039927 -0.003463 0.0
-0.039743 -0.005459 0.0
-0.039397 -0.007482 0.0
-0.038883 -0.009525 0.0
-0.038195 -0.011580 0.0
-0.037328 -0.013639 0.0
-0.036278 -0.015692 0.0
-0.035041 -0.017726 0.0
-0.033613 -0.019729 0.0
-0.031994 -0.021686 0.0
-0.030182 -0.023583 0.0
-0.028179 -0.025402 0.0
-0.025991 -0.027124 0.0
-0.023623 -0.028733 0.0
-0.021084 -0.030209 0.0
-0.018388 -0.031534 0.0
-0.015550 -0.032689 0.0
-0.012588 -0.033655 0.0
-0.009525 -0.034377 0.0
-0.006403 -0.034542 0.0
-0.003357 -0.032353 0.0
-0.000940 -0.020234 0.0
-0.000644 0.016786 0.0
-0.002368 0.027967 0.0
-0.004612 0.030152 0.0
-0.006945 0.030244 0.0
-0.009269 0.029926 0.0
-0.011563 0.029472 0.0
-0.013820 0.028914 0.0
-0.016030 0.028258 0.0
-0.018187 0.027506 0.0
-0.020285 0.026661 0.0
-0.022317 0.025726 0.0
-0.024278 0.024704 0.0
-0.026162 0.023597 0.0
-0.027963 0.022408 0.0
-0.029678 0.021140 0.0
-0.031300 0.019795 0.0
-0.032826 0.018377 0.0
-0.034251 0.016888 0.0
-0.035571 0.015330 0.0
-0.036781 0.013705 0.0
-0.037878 0.012016 0.0
-0.038857 0.010264 0.0
-0.039712 0.008452 0.0
-0.040441 0.006582 0.0
-0.041037 0.004656 0.0
-0.041495 0.002676 0.0
-0.041809 0.000647 0.0
-0.041975 -0.001430 0.0
-0.041985 -0.003550 0.0
-0.041834 -0.005708 0.0
-0.041514 -0.007900 0.0
-0.041018 -0.010117 0.0
-0.040341 -0.012353 0.0
-0.039476 -0.014599 0.0
-0.038415 -0.016842 0.0
-0.037155 -0.019073 0.0
-0.035690 -0.021275 0.0
-0.034017 -0.023433 0.0
-0.032134 -0.025531 0.0
-0.030043 -0.027547 0.0
-0.027746 -0.029464 0.0
-0.025250 -0.031258 0.0
-0.022564 -0.032909 0.0
-0.019700 -0.034394 0.0
-0.016676 -0.035692 0.0
-0.013511 -0.036780 0.0
-0.010231 -0.037595 0.0
-0.006883 -0.037795 0.0
-0.003612 -0.035417 0.0
-0.001013 -0.022187 0.0
-0.000672 0.018103 0.0
-0.002474 0.030176 0.0
-0.004821 0.032535 0.0
-0.007261 0.032634 0.0
-0.009691 0.032291 0.0
-0.012091 0.031801 0.0
-0.014450 0.031200 0.0
-0.016760 0.030493 0.0
-0.019015 0.029684 0.0
-0.021208 0.028775 0.0
-0.023332 0.027769 0.0
-0.025381 0.026671 0.0
-0.027351 0.025483 0.0
-0.029235 0.024207 0.0
-0.031030 0.022848 0.0
-0.032729 0.021409 0.0
-0.034330 0.019891 0.0
-0.035827 0.018297 0.0
-0.037217 0.016631 0.0
-0.038495 0.014893 0.0
-0.039658 0.013087 0.0
-0.040700 0.011213 0.0
-0.041617 0.009275 0.0
-0.042405 0.007274 0.0
-0.043058 0.005212 0.0
-0.043571 0.003091 0.0
-0.043937 0.000913 0.0
-0.044151 -0.001318 0.0
-0.044205 -0.003598 0.0
-0.044093 -0.005924 0.0
-0.043806 -0.008291 0.0
-0.043336 -0.010691 0.0
-0.042676 -0.013117 0.0
-0.041818 -0.015559 0.0
-0.040753 -0.018007 0.0
-0.039473 -0.020447 0.0
-0.037974 -0.022865 0.0
-0.036249 -0.025241 0.0
-0.034296 -0.027558 0.0
-0.032112 -0.029794 0.0
-0.029701 -0.031925 0.0
-0.027068 -0.033927 0.0
-0.024220 -0.035774 0.0
-0.021172 -0.037440 0.0
-0.017942 -0.038901 0.0
-0.014551 -0.040127 0.0
-0.011029 -0.041050 0.0
-0.007426 -0.041292 0.0
-0.003902 -0.038715 0.0
-0.001095 -0.024295 0.0
-0.000703 0.019478 0.0
-0.002588 0.032487 0.0
-0.005046 0.035029 0.0
-0.007601 0.035135 0.0
-0.010147 0.034766 0.0
-0.012659 0.034238 0.0
-0.015128 0.033591 0.0
-0.017546 0.032830 0.0
-0.019905 0.031960 0.0
-0.022199 0.030984 0.0
-0.024421 0.029906 0.0
-0.026565 0.028728 0.0
-0.028625 0.027456 0.0
-0.030597 0.026091 0.0
-0.032476 0.024638 0.0
-0.034258 0.023100 0.0
-0.035937 0.021479 0.0
-0.037511 0.019779 0.0
-0.038975 0.018002 0.0
-0.040325 0.016150 0.0
-0.041558 0.014225 0.0
-0.042668 0.012228 0.0
-0.043652 0.010162 0.0
-0.044504 0.008028 0.0
-0.045220 0.005827 0.0
-0.045793 0.003562 0.0
-0.046218 0.001233 0.0
-0.046486 -0.001155 0.0
-0.046592 -0.003601 0.0
-0.046526 -0.006100 0.0
-0.046280 -0.008648 0.0
-0.045845 -0.011238 0.0
-0.045210 -0.013864 0.0
-0.044366 -0.016515 0.0
-0.043304 -0.019180 0.0
-0.042012 -0.021845 0.0
-0.040484 -0.024495 0.0
-0.038711 -0.027109 0.0
-0.036687 -0.029668 0.0
-0.034410 -0.032145 0.0
-0.031879 -0.034516 0.0
-0.029099 -0.036750 0.0
-0.026077 -0.038819 0.0
-0.022828 -0.040692 0.0
-0.019369 -0.042338 0.0
-0.015726 -0.043723 0.0
-0.011931 -0.044770 0.0
-0.008041 -0.045064 0.0
-0.004230 -0.042277 0.0
-0.001189 -0.026580 0.0
-0.000736 0.020916 0.0
-0.002711 0.034908 0.0
-0.005288 0.037643 0.0
-0.007968 0.037756 0.0
-0.010637 0.037359 0.0
-0.013270 0.036790 0.0
-0.015857 0.036094 0.0
-0.018390 0.035277 0.0
-0.020861 0.034343 0.0
-0.023262 0.033297 0.0
-0.025588 0.032141 0.0
-0.027832 0.030881 0.0
-0.029988 0.029520 0.0
-0.032053 0.028063 0.0
-0.034021 0.026513 0.0
-0.035888 0.024874 0.0
-0.037650 0.023148 0.0
-0.039305 0.021339 0.0
-0.040847 0.019449 0.0
-0.042273 0.017480 0.0
-0.043580 0.015434 0.0
-0.044763 0.013312 0.0
-0.045818 0.011117 0.0
-0.046740 0.008848 0.0
-0.047524 0.006507 0.0
-0.048164 0.004095 0.0
-0.048654 0.001614 0.0
-0.048985 -0.000935 0.0
-0.049150 -0.003550 0.0
-0.049140 -0.006227 0.0
-0.048944 -0.008963 0.0
-0.048552 -0.011751 0.0
-0.047953 -0.014585 0.0
-0.047134 -0.017456 0.0
-0.046083 -0.020352 0.0
-0.044788 -0.023259 0.0
-0.043238 -0.026159 0.0
-0.041422 -0.029034 0.0
-0.039332 -0.031858 0.0
-0.036961 -0.034604 0.0
-0.034306 -0.037242 0.0
-0.031371 -0.039740 0.0
-0.028162 -0.042061 0.0
-0.024692 -0.044170 0.0
-0.020981 -0.046029 0.0
-0.017057 -0.047600 0.0
-0.012955 -0.048791 0.0
-0.008740 -0.049149 0.0
-0.004604 -0.046140 0.0
-0.001297 -0.029066 0.0
-0.000771 0.022422 0.0
-0.002843 0.037450 0.0
-0.005550 0.040386 0.0
-0.008363 0.040507 0.0
-0.011165 0.040078 0.0
-0.013928 0.039467 0.0
-0.016641 0.038719 0.0
-0.019297 0.037841 0.0
-0.021886 0.036839 0.0
-0.024401 0.035718 0.0
-0.026837 0.034481 0.0
-0.029186 0.033134 0.0
-0.031443 0.031681 0.0
-0.033605 0.030128 0.0
-0.035666 0.028477 0.0
-0.037623 0.026733 0.0
-0.039472 0.024900 0.0
-0.041210 0.022979 0.0
-0.042834 0.020974 0.0
-0.044340 0.018887 0.0
-0.045725 0.016719 0.0
-0.046985 0.014471 0.0
-0.048116 0.012144 0.0
-0.049114 0.009740 0.0
-0.049973 0.007258 0.0
-0.050686 0.004698 0.0
-0.051248 0.002062 0.0
-0.051650 -0.000650 0.0
-0.051884 -0.003437 0.0
-0.051939 -0.006296 0.0
-0.051804 -0.009224 0.0
-0.051467 -0.012218 0.0
-0.050915 -0.015270 0.0
-0.050133 -0.018372 0.0
-0.049106 -0.021513 0.0
-0.047820 -0.024678 0.0
-0.046259 -0.027851 0.0
-0.044409 -0.031008 0.0
-0.042257 -0.034125 0.0
-0.039794 -0.037170 0.0
-0.037015 -0.040110 0.0
-0.033917 -0.042905 0.0
-0.030507 -0.045515 0.0
-0.026797 -0.047896 0.0
-0.022808 -0.050003 0.0
-0.018569 -0.051789 0.0
-0.014121 -0.053150 0.0
-0.009538 -0.053587 0.0
-0.005032 -0.050344 0.0
-0.001419 -0.031781 0.0
-0.000808 0.024001 0.0
-0.002985 0.040120 0.0
-0.005831 0.043269 0.0
-0.008789 0.043396 0.0
-0.011733 0.042934 0.0
-0.014635 0.042276 0.0
-0.017484 0.041472 0.0
-0.020270 0.040529 0.0
-0.022984 0.039455 0.0
-0.025621 0.038254 0.0
-0.028171 0.036931 0.0
-0.030631 0.035493 0.0
-0.032994 0.033944 0.0
-0.035257 0.032290 0.0
-0.037415 0.030535 0.0
-0.039465 0.028683 0.0
-0.041405 0.026738 0.0
-0.043230 0.024704 0.0
-0.044939 0.022582 0.0
-0.046528 0.020375 0.0
-0.047995 0.018083 0.0
-0.049337 0.015708 0.0
-0.050549 0.013250 0.0
-0.051627 0.010709 0.0
-0.052566 0.008086 0.0
-0.053360 0.005378 0.0
-0.054002 0.002586 0.0
-0.054484 -0.000290 0.0
-0.054796 -0.003251 0.0
-0.054927 -0.006295 0.0
-0.054866 -0.009421 0.0
-0.054597 -0.012626 0.0
-0.054107 -0.015904 0.0
-0.053377 -0.019249 0.0
-0.052390 -0.022649 0.0
-0.051127 -0.026091 0.0
-0.049568 -0.029557 0.0
-0.047696 -0.033024 0.0
-0.045494 -0.036464 0.0
-0.042945 -0.039843 0.0
-0.040041 -0.043121 0.0
-0.036776 -0.046256 0.0
-0.033153 -0.049197 0.0
-0.029182 -0.051894 0.0
-0.024885 -0.054292 0.0
-0.020294 -0.056331 0.0
-0.015455 -0.057894 0.0
-0.010453 -0.058429 0.0
-0.005523 -0.054938 0.0
-0.001561 -0.034761 0.0
-0.000849 0.025659 0.0
-0.003139 0.042928 0.0
-0.006134 0.046302 0.0
-0.009247 0.046434 0.0
-0.012344 0.045936 0.0
-0.015396 0.045228 0.0
-0.018389 0.044362 0.0
-0.021314 0.043350 0.0
-0.024162 0.042197 0.0
-0.026925 0.040911 0.0
-0.029597 0.039497 0.0
-0.032173 0.037962 0.0
-0.034646 0.036312 0.0
-0.037014 0.034552 0.0
-0.039273 0.032689 0.0
-0.041419 0.030726 0.0
-0.043451 0.028667 0.0
-0.045367 0.026516 0.0
-0.047163 0.024275 0.0
-0.048839 0.021946 0.0
-0.050392 0.019531 0.0
-0.051818 0.017028 0.0
-0.053115 0.014439 0.0
-0.054279 0.011762 0.0
-0.055304 0.008997 0.0
-0.056186 0.006142 0.0
-0.056916 0.003195 0.0
-0.057487 0.000154 0.0
-0.057889 -0.002982 0.0
-0.058109 -0.006213 0.0
-0.058135 -0.009540 0.0
-0.057950 -0.012961 0.0
-0.057538 -0.016473 0.0
-0.056878 -0.020070 0.0
-0.055949 -0.023744 0.0
-0.054728 -0.027481 0.0
-0.053192 -0.031263 0.0
-0.051315 -0.035067 0.0
-0.049076 -0.038863 0.0
-0.046452 -0.042615 0.0
-0.043428 -0.046277 0.0
-0.039993 -0.049800 0.0
-0.036145 -0.053125 0.0
-0.031893 -0.056190 0.0
-0.027256 -0.058929 0.0
-0.022270 -0.061270 0.0
-0.016989 -0.063075 0.0
-0.011507 -0.063733 0.0
-0.006091 -0.059981 0.0
-0.001724 -0.038047 0.0
-0.000893 0.027401 0.0
-0.003304 0.045886 0.0
-0.006461 0.049496 0.0
-0.009742 0.049634 0.0
-0.013004 0.049095 0.0
-0.016215 0.048331 0.0
-0.019362 0.047399 0.0
-0.022434 0.046311 0.0
-0.025424 0.045074 0.0
-0.028321 0.043696 0.0
-0.031121 0.042184 0.0
-0.033816 0.040546 0.0
-0.036404 0.038789 0.0
-0.038880 0.036919 0.0
-0.041242 0.034942 0.0
-0.043487 0.032864 0.0
-0.045614 0.030688 0.0
-0.047622 0.028418 0.0
-0.049509 0.026057 0.0
-0.051273 0.023605 0.0
-0.052914 0.021065 0.0
-0.054428 0.018435 0.0
-0.055815 0.015715 0.0
-0.057069 0.012904 0.0
-0.058187 0.009999 0.0
-0.059163 0.006997 0.0
-0.059990 0.003897 0.0
-0.060660 0.000693 0.0
-0.061163 -0.002616 0.0
-0.061485 -0.006035 0.0
-0.061614 -0.009564 0.0