# vtk DataFile Version 3.0
Vector Field
ASCII
DATASET RECTILINEAR_GRID
DIMENSIONS 50 50 1
X_COORDINATES 50 double
0.100000 0.300000 0.500000 0.700000 0.900000 1.100000 1.300000 1.500000 1.700000 1.900000 2.100000 2.300000 2.500000 2.700000 2.900000 3.100000 3.300000 3.500000 3.700000 3.900000 4.100000 4.300000 4.500000 4.700000 4.900000 5.100000 5.300000 5.500000 5.700000 5.900000 6.100000 6.300000 6.500000 6.700000 6.900000 7.100000 7.300000 7.500000 7.700000 7.900000 8.100000 8.300000 8.500000 8.700000 8.900000 9.100000 9.300000 9.500000 9.700000 9.900000 
Y_COORDINATES 50 double
0.100000 0.300000 0.500000 0.700000 0.900000 1.100000 1.300000 1.500000 1.700000 1.900000 2.100000 2.300000 2.500000 2.700000 2.900000 3.100000 3.300000 3.500000 3.700000 3.900000 4.100000 4.300000 4.500000 4.700000 4.900000 5.100000 5.300000 5.500000 5.700000 5.900000 6.100000 6.300000 6.500000 6.700000 6.900000 7.100000 7.300000 7.500000 7.700000 7.900000 8.100000 8.300000 8.500000 8.700000 8.900000 9.100000 9.300000 9.500000 9.700000 9.900000 
Z_COORDINATES 1 double
0.0
POINT_DATA 2500
VECTORS Vektorfeld double
-0.000170 0.000170 0.0
-0.000763 0.000423 0.0
-0.001722 0.000536 0.0
-0.002830 0.000572 0.0
-0.003981 0.000579 0.0
-0.005140 0.000579 0.0
-0.006297 0.000577 0.0
-0.007450 0.000576 0.0
-0.008598 0.000573 0.0
-0.009742 0.000571 0.0
-0.010880 0.000567 0.0
-0.012010 0.000563 0.0
-0.013130 0.000557 0.0
-0.014238 0.000551 0.0
-0.015332 0.000543 0.0
-0.016407 0.000533 0.0
-0.017462 0.000521 0.0
-0.018490 0.000508 0.0
-0.019489 0.000491 0.0
-0.020453 0.000472 0.0
-0.021376 0.000450 0.0
-0.022251 0.000425 0.0
-0.023072 0.000396 0.0
-0.023832 0.000363 0.0
-0.024521 0.000326 0.0
-0.025131 0.000284 0.0
-0.025654 0.000238 0.0
-0.026078 0.000187 0.0
-0.026396 0.000131 0.0
-0.026596 0.000070 0.0
-0.026670 0.000004 0.0
-0.026606 -0.000067 0.0
-0.026397 -0.000143 0.0
-0.026031 -0.000223 0.0
-0.025501 -0.000307 0.0
-0.024800 -0.000394 0.0
-0.023924 -0.000482 0.0
-0.022870 -0.000572 0.0
-0.021638 -0.000661 0.0
-0.020229 -0.000748 0.0
-0.018650 -0.000832 0.0
-0.016906 -0.000912 0.0
-0.015009 -0.000985 0.0
-0.012972 -0.001051 0.0
-0.010812 -0.001108 0.0
-0.008553 -0.001152 0.0
-0.006231 -0.001170 0.0
-0.003933 -0.001128 0.0
-0.001860 -0.000945 0.0
-0.000458 -0.000458 0.0
-0.000434 0.000774 0.0
-0.001720 0.001698 0.0
-0.003611 0.002110 0.0
-0.005757 0.002251 0.0
-0.007989 0.002284 0.0
-0.010240 0.002284 0.0
-0.012486 0.002275 0.0
-0.014719 0.002264 0.0
-0.016934 0.002250 0.0
-0.019129 0.002233 0.0
-0.021298 0.002213 0.0
-0.023439 0.002188 0.0
-0.025547 0.002160 0.0
-0.027616 0.002126 0.0
-0.029640 0.002086 0.0
-0.031613 0.002039 0.0
-0.033529 0.001985 0.0
-0.035379 0.001923 0.0
-0.037155 0.001851 0.0
-0.038847 0.001769 0.0
-0.040446 0.001676 0.0
-0.041941 0.001570 0.0
-0.043320 0.001451 0.0
-0.044569 0.001317 0.0
-0.045677 0.001169 0.0
-0.046628 0.001004 0.0
-0.047409 0.000822 0.0
-0.048004 0.000623 0.0
-0.048398 0.000406 0.0
-0.048576 0.000172 0.0
-0.048523 -0.000079 0.0
-0.048223 -0.000347 0.0
-0.047663 -0.000632 0.0
-0.046832 -0.000931 0.0
-0.045719 -0.001242 0.0
-0.044317 -0.001562 0.0
-0.042620 -0.001887 0.0
-0.040627 -0.002214 0.0
-0.038339 -0.002538 0.0
-0.035763 -0.002856 0.0
-0.032906 -0.003160 0.0
-0.029785 -0.003448 0.0
-0.026417 -0.003714 0.0
-0.022826 -0.003951 0.0
-0.019040 -0.004154 0.0
-0.015100 -0.004305 0.0
-0.011076 -0.004361 0.0
-0.007108 -0.004203 0.0
-0.003501 -0.003550 0.0
-0.000920 -0.001836 0.0
-0.000562 0.001770 0.0
-0.002182 0.003609 0.0
-0.004508 0.004417 0.0
-0.007117 0.004700 0.0
-0.009821 0.004771 0.0
-0.012543 0.004771 0.0
-0.015258 0.004749 0.0
-0.017953 0.004718 0.0
-0.020622 0.004680 0.0
-0.023261 0.004635 0.0
-0.025863 0.004582 0.0
-0.028423 0.004520 0.0
-0.030935 0.004448 0.0
-0.033393 0.004364 0.0
-0.035789 0.004268 0.0
-0.038115 0.004157 0.0
-0.040364 0.004031 0.0
-0.042526 0.003888 0.0
-0.044591 0.003726 0.0
-0.046548 0.003544 0.0
-0.048387 0.003338 0.0
-0.050093 0.003109 0.0
-0.051656 0.002853 0.0
-0.053059 0.002569 0.0
-0.054289 0.002255 0.0
-0.055330 0.001910 0.0
-0.056166 0.001532 0.0
-0.056780 0.001121 0.0
-0.057156 0.000677 0.0
-0.057276 0.000200 0.0
-0.057125 -0.000311 0.0
-0.056687 -0.000853 0.0
-0.055948 -0.001424 0.0
-0.054897 -0.002021 0.0
-0.053523 -0.002639 0.0
-0.051819 -0.003272 0.0
-0.049779 -0.003913 0.0
-0.047403 -0.004557 0.0
-0.044693 -0.005193 0.0
-0.041657 -0.005814 0.0
-0.038306 -0.006409 0.0
-0.034657 -0.006970 0.0
-0.030730 -0.007486 0.0
-0.026554 -0.007947 0.0
-0.022160 -0.008338 0.0
-0.017597 -0.008625 0.0
-0.012940 -0.008722 0.0
-0.008342 -0.008408 0.0
-0.004137 -0.007158 0.0
-0.001095 -0.003851 0.0
-0.000609 0.002940 0.0
-0.002363 0.005813 0.0
-0.004870 0.007046 0.0
-0.007668 0.007478 0.0
-0.010559 0.007587 0.0
-0.013466 0.007585 0.0
-0.016363 0.007546 0.0
-0.019237 0.007490 0.0
-0.022082 0.007422 0.0
-0.024892 0.007341 0.0
-0.027661 0.007247 0.0
-0.030383 0.007137 0.0
-0.033051 0.007011 0.0
-0.035658 0.006866 0.0
-0.038196 0.006700 0.0
-0.040658 0.006513 0.0
-0.043034 0.006301 0.0
-0.045315 0.006062 0.0
-0.047492 0.005794 0.0
-0.049552 0.005494 0.0
-0.051483 0.005159 0.0
-0.053274 0.004786 0.0
-0.054911 0.004374 0.0
-0.056378 0.003919 0.0
-0.057661 0.003418 0.0
-0.058744 0.002870 0.0
-0.059610 0.002273 0.0
-0.060242 0.001626 0.0
-0.060622 0.000929 0.0
-0.060734 0.000181 0.0
-0.060561 -0.000617 0.0
-0.060086 -0.001460 0.0
-0.059295 -0.002346 0.0
-0.058176 -0.003270 0.0
-0.056717 -0.004223 0.0
-0.054909 -0.005199 0.0
-0.052748 -0.006187 0.0
-0.050233 -0.007175 0.0
-0.047365 -0.008152 0.0
-0.044151 -0.009104 0.0
-0.040605 -0.010016 0.0
-0.036743 -0.010875 0.0
-0.032587 -0.011664 0.0
-0.028166 -0.012367 0.0
-0.023515 -0.012961 0.0
-0.018684 -0.013396 0.0
-0.013749 -0.013542 0.0
-0.008869 -0.013066 0.0
-0.004396 -0.011177 0.0
-0.001162 -0.006108 0.0
-0.000623 0.004172 0.0
-0.002423 0.008136 0.0
-0.005000 0.009807 0.0
-0.007873 0.010388 0.0
-0.010837 0.010532 0.0
-0.013816 0.010526 0.0
-0.016783 0.010468 0.0
-0.019727 0.010386 0.0
-0.022641 0.010285 0.0
-0.025518 0.010166 0.0
-0.028354 0.010027 0.0
-0.031142 0.009866 0.0
-0.033874 0.009682 0.0
-0.036545 0.009472 0.0
-0.039147 0.009234 0.0
-0.041670 0.008965 0.0
-0.044108 0.008662 0.0
-0.046449 0.008323 0.0
-0.048684 0.007944 0.0
-0.050803 0.007521 0.0
-0.052792 0.007052 0.0
-0.054639 0.006531 0.0
-0.056331 0.005957 0.0
-0.057852 0.005324 0.0
-0.059187 0.004631 0.0
-0.060321 0.003874 0.0
-0.061235 0.003050 0.0
-0.061912 0.002159 0.0
-0.062334 0.001199 0.0
-0.062483 0.000171 0.0
-0.062341 -0.000923 0.0
-0.061891 -0.002079 0.0
-0.061117 -0.003292 0.0
-0.060005 -0.004556 0.0
-0.058540 -0.005860 0.0
-0.056715 -0.007194 0.0
-0.054522 -0.008545 0.0
-0.051958 -0.009897 0.0
-0.049025 -0.011232 0.0
-0.045729 -0.012533 0.0
-0.042082 -0.013780 0.0
-0.038101 -0.014954 0.0
-0.033809 -0.016032 0.0
-0.029236 -0.016993 0.0
-0.024419 -0.017804 0.0
-0.019407 -0.018397 0.0
-0.014283 -0.018599 0.0
-0.009211 -0.017962 0.0
-0.004559 -0.015406 0.0
-0.001202 -0.008471 0.0
-0.000626 0.005421 0.0
-0.002443 0.010504 0.0
-0.005051 0.012623 0.0
-0.007959 0.013353 0.0
-0.010959 0.013531 0.0
-0.013973 0.013520 0.0
-0.016975 0.013443 0.0
-0.019954 0.013334 0.0
-0.022904 0.013201 0.0
-0.025819 0.013043 0.0
-0.028692 0.012859 0.0
-0.031518 0.012648 0.0
-0.034291 0.012406 0.0
-0.037003 0.012131 0.0
-0.039648 0.011820 0.0
-0.042217 0.011471 0.0
-0.044701 0.011078 0.0
-0.047093 0.010640 0.0
-0.049380 0.010150 0.0
-0.051553 0.009606 0.0
-0.053600 0.009003 0.0
-0.055508 0.008335 0.0
-0.057263 0.007599 0.0
-0.058851 0.006790 0.0
-0.060254 0.005904 0.0
-0.061458 0.004937 0.0
-0.062443 0.003886 0.0
-0.063191 0.002748 0.0
-0.063684 0.001524 0.0
-0.063902 0.000213 0.0
-0.063825 -0.001183 0.0
-0.063435 -0.002659 0.0
-0.062714 -0.004208 0.0
-0.061643 -0.005823 0.0
-0.060210 -0.007491 0.0
-0.058400 -0.009198 0.0
-0.056206 -0.010928 0.0
-0.053623 -0.012661 0.0
-0.050650 -0.014374 0.0
-0.047293 -0.016045 0.0
-0.043562 -0.017647 0.0
-0.039475 -0.019155 0.0
-0.035054 -0.020542 0.0
-0.030332 -0.021778 0.0
-0.025346 -0.022822 0.0
-0.020150 -0.023586 0.0
-0.014831 -0.023853 0.0
-0.009561 -0.023051 0.0
-0.004728 -0.019801 0.0
-0.001245 -0.010917 0.0
-0.000628 0.006675 0.0
-0.002455 0.012894 0.0
-0.005083 0.015468 0.0
-0.008016 0.016349 0.0
-0.011043 0.016562 0.0
-0.014085 0.016545 0.0
-0.017115 0.016449 0.0
-0.020123 0.016315 0.0
-0.023102 0.016150 0.0
-0.026048 0.015955 0.0
-0.028955 0.015728 0.0
-0.031817 0.015467 0.0
-0.034627 0.015170 0.0
-0.037380 0.014832 0.0
-0.040068 0.014452 0.0
-0.042684 0.014024 0.0
-0.045220 0.013545 0.0
-0.047665 0.013010 0.0
-0.050012 0.012414 0.0
-0.052249 0.011752 0.0
-0.054364 0.011019 0.0
-0.056345 0.010208 0.0
-0.058178 0.009314 0.0
-0.059847 0.008332 0.0
-0.061337 0.007256 0.0
-0.062631 0.006081 0.0
-0.063708 0.004804 0.0
-0.064551 0.003421 0.0
-0.065139 0.001932 0.0
-0.065450 0.000334 0.0
-0.065463 -0.001368 0.0
-0.065157 -0.003170 0.0
-0.064511 -0.005065 0.0
-0.063505 -0.007042 0.0
-0.062122 -0.009089 0.0
-0.060345 -0.011187 0.0
-0.058164 -0.013315 0.0
-0.055570 -0.015451 0.0
-0.052561 -0.017566 0.0
-0.049140 -0.019631 0.0
-0.045317 -0.021614 0.0
-0.041109 -0.023483 0.0
-0.036539 -0.025204 0.0
-0.031641 -0.026738 0.0
-0.026455 -0.028034 0.0
-0.021039 -0.028986 0.0
-0.015487 -0.029325 0.0
-0.009982 -0.028354 0.0
-0.004935 -0.024378 0.0
-0.001298 -0.013460 0.0
-0.000630 0.007933 0.0
-0.002467 0.015300 0.0
-0.005114 0.018337 0.0
-0.008073 0.019372 0.0
-0.011127 0.019620 0.0
-0.014197 0.019599 0.0
-0.017257 0.019485 0.0
-0.020296 0.019326 0.0
-0.023308 0.019130 0.0
-0.026288 0.018900 0.0
-0.029231 0.018632 0.0
-0.032132 0.018325 0.0
-0.034984 0.017975 0.0
-0.037783 0.017578 0.0
-0.040520 0.017132 0.0
-0.043190 0.016630 0.0
-0.045784 0.016069 0.0
-0.048293 0.015442 0.0
-0.050709 0.014745 0.0
-0.053020 0.013970 0.0
-0.055216 0.013112 0.0
-0.057284 0.012163 0.0
-0.059210 0.011117 0.0
-0.060978 0.009967 0.0
-0.062573 0.008706 0.0
-0.063975 0.007328 0.0
-0.065167 0.005827 0.0
-0.066126 0.004201 0.0
-0.066830 0.002445 0.0
-0.067258 0.000560 0.0
-0.067384 -0.001453 0.0
-0.067184 -0.003589 0.0
-0.066635 -0.005840 0.0
-0.065714 -0.008195 0.0
-0.064397 -0.010636 0.0
-0.062667 -0.013146 0.0
-0.060508 -0.015697 0.0
-0.057908 -0.018263 0.0
-0.054862 -0.020809 0.0
-0.051370 -0.023301 0.0
-0.047440 -0.025697 0.0
-0.043089 -0.027959 0.0
-0.038341 -0.030044 0.0
-0.033231 -0.031906 0.0
-0.027803 -0.033480 0.0
-0.022121 -0.034638 0.0
-0.016287 -0.035059 0.0
-0.010497 -0.033914 0.0
-0.005188 -0.029175 0.0
-0.001365 -0.016123 0.0
-0.000632 0.009195 0.0
-0.002481 0.017723 0.0
-0.005150 0.021231 0.0
-0.008137 0.022423 0.0
-0.011222 0.022708 0.0
-0.014324 0.022684 0.0
-0.017417 0.022553 0.0
-0.020490 0.022370 0.0
-0.023538 0.022146 0.0
-0.026557 0.021883 0.0
-0.029542 0.021577 0.0
-0.032487 0.021226 0.0
-0.035387 0.020827 0.0
-0.038237 0.020375 0.0
-0.041031 0.019866 0.0
-0.043762 0.019296 0.0
-0.046422 0.018657 0.0
-0.049004 0.017945 0.0
-0.051499 0.017152 0.0
-0.053897 0.016272 0.0
-0.056186 0.015296 0.0
-0.058355 0.014216 0.0
-0.060389 0.013024 0.0
-0.062273 0.011713 0.0
-0.063991 0.010272 0.0
-0.065522 0.008696 0.0
-0.066848 0.006976 0.0
-0.067946 0.005108 0.0
-0.068791 0.003087 0.0
-0.069359 0.000912 0.0
-0.069623 -0.001416 0.0
-0.069554 -0.003894 0.0
-0.069126 -0.006513 0.0
-0.068310 -0.009260 0.0
-0.067081 -0.012117 0.0
-0.065413 -0.015062 0.0
-0.063288 -0.018066 0.0
-0.060688 -0.021094 0.0
-0.057604 -0.024108 0.0
-0.054033 -0.027064 0.0
-0.049981 -0.029915 0.0
-0.045463 -0.032611 0.0
-0.040505 -0.035099 0.0
-0.035142 -0.037324 0.0
-0.029425 -0.039207 0.0
-0.023423 -0.040595 0.0
-0.017249 -0.041111 0.0
-0.011118 -0.039783 0.0
-0.005494 -0.034239 0.0
-0.001445 -0.018932 0.0
-0.000635 0.010463 0.0
-0.002497 0.020166 0.0
-0.005191 0.024153 0.0
-0.008209 0.025506 0.0
-0.011328 0.025829 0.0
-0.014466 0.025803 0.0
-0.017596 0.025656 0.0
-0.020708 0.025452 0.0
-0.023798 0.025202 0.0
-0.026860 0.024908 0.0
-0.029890 0.024567 0.0
-0.032884 0.024176 0.0
-0.035838 0.023731 0.0
-0.038746 0.023229 0.0
-0.041603 0.022663 0.0
-0.044402 0.022029 0.0
-0.047137 0.021320 0.0
-0.049801 0.020529 0.0
-0.052385 0.019648 0.0
-0.054880 0.018669 0.0
-0.057275 0.017583 0.0
-0.059558 0.016381 0.0
-0.061716 0.015052 0.0
-0.063733 0.013586 0.0
-0.065592 0.011975 0.0
-0.067274 0.010207 0.0
-0.068756 0.008274 0.0
-0.070017 0.006168 0.0
-0.071028 0.003884 0.0
-0.071763 0.001418 0.0
-0.072192 -0.001230 0.0
-0.072283 -0.004058 0.0
-0.072003 -0.007057 0.0
-0.071319 -0.010214 0.0
-0.070201 -0.013511 0.0
-0.068617 -0.016920 0.0
-0.066541 -0.020409 0.0
-0.063952 -0.023940 0.0
-0.060833 -0.027466 0.0
-0.057177 -0.030934 0.0
-0.052988 -0.034287 0.0
-0.048278 -0.037466 0.0
-0.043074 -0.040407 0.0
-0.037414 -0.043039 0.0
-0.031354 -0.045269 0.0
-0.024972 -0.046916 0.0
-0.018394 -0.047541 0.0
-0.011855 -0.046023 0.0
-0.005856 -0.039622 0.0
-0.001539 -0.021916 0.0
-0.000638 0.011736 0.0
-0.002514 0.022630 0.0
-0.005237 0.027105 0.0
-0.008289 0.028623 0.0
-0.011446 0.028988 0.0
-0.014623 0.028961 0.0
-0.017795 0.028800 0.0
-0.020950 0.028576 0.0
-0.024084 0.028302 0.0
-0.027193 0.027980 0.0
-0.030274 0.027606 0.0
-0.033323 0.027179 0.0
-0.036335 0.026694 0.0
-0.039306 0.026145 0.0
-0.042231 0.025528 0.0
-0.045106 0.024837 0.0
-0.047923 0.024064 0.0
-0.050677 0.023202 0.0
-0.053359 0.022241 0.0
-0.055962 0.021173 0.0
-0.058475 0.019987 0.0
-0.060887 0.018672 0.0
-0.063184 0.017216 0.0
-0.065351 0.015607 0.0
-0.067371 0.013833 0.0
-0.069224 0.011883 0.0
-0.070887 0.009744 0.0
-0.072336 0.007407 0.0
-0.073542 0.004863 0.0
-0.074474 0.002107 0.0
-0.075099 -0.000865 0.0
-0.075381 -0.004051 0.0
-0.075282 -0.007444 0.0
-0.074763 -0.011030 0.0
-0.073786 -0.014791 0.0
-0.072312 -0.018697 0.0
-0.070308 -0.022712 0.0
-0.067744 -0.026791 0.0
-0.064598 -0.030880 0.0
-0.060855 -0.034917 0.0
-0.056515 -0.038834 0.0
-0.051588 -0.042556 0.0
-0.046100 -0.046008 0.0
-0.040095 -0.049103 0.0
-0.033632 -0.051728 0.0
-0.026801 -0.053670 0.0
-0.019745 -0.054422 0.0
-0.012723 -0.052703 0.0
-0.006282 -0.045382 0.0
-0.001650 -0.025106 0.0
-0.000641 0.013016 0.0
-0.002533 0.025119 0.0
-0.005286 0.030092 0.0
-0.008376 0.031780 0.0
-0.011574 0.032186 0.0
-0.014795 0.032160 0.0
-0.018010 0.031987 0.0
-0.021212 0.031745 0.0
-0.024395 0.031449 0.0
-0.027555 0.031102 0.0
-0.030691 0.030700 0.0
-0.033797 0.030241 0.0
-0.036872 0.029719 0.0
-0.039911 0.029130 0.0
-0.042911 0.028468 0.0
-0.045866 0.027727 0.0
-0.048772 0.026898 0.0
-0.051624 0.025973 0.0
-0.054414 0.024943 0.0
-0.057134 0.023795 0.0
-0.059777 0.022520 0.0
-0.062330 0.021103 0.0
-0.064781 0.019532 0.0
-0.067115 0.017792 0.0
-0.069316 0.015869 0.0
-0.071363 0.013747 0.0
-0.073232 0.011413 0.0
-0.074898 0.008853 0.0
-0.076329 0.006055 0.0
-0.077492 0.003011 0.0
-0.078350 -0.000286 0.0
-0.078861 -0.003837 0.0
-0.078982 -0.007636 0.0
-0.078666 -0.011672 0.0
-0.077867 -0.015925 0.0
-0.076538 -0.020365 0.0
-0.074636 -0.024951 0.0
-0.072120 -0.029632 0.0
-0.068958 -0.034347 0.0
-0.065131 -0.039020 0.0
-0.060629 -0.043573 0.0
-0.055459 -0.047914 0.0
-0.049648 -0.051949 0.0
-0.043241 -0.055575 0.0
-0.036307 -0.058653 0.0
-0.028949 -0.060933 0.0
-0.021329 -0.061835 0.0
-0.013740 -0.059901 0.0
-0.006779 -0.051585 0.0
-0.001779 -0.028535 0.0
-0.000645 0.014302 0.0
-0.002553 0.027633 0.0
-0.005339 0.033116 0.0
-0.008470 0.034977 0.0
-0.011712 0.035429 0.0
-0.014979 0.035405 0.0
-0.018242 0.035221 0.0
-0.021493 0.034963 0.0
-0.024727 0.034648 0.0
-0.027942 0.034279 0.0
-0.031136 0.033852 0.0
-0.034304 0.033364 0.0
-0.037445 0.032811 0.0
-0.040557 0.032188 0.0
-0.043635 0.031488 0.0
-0.046676 0.030704 0.0
-0.049677 0.029828 0.0
-0.052632 0.028850 0.0
-0.055537 0.027760 0.0
-0.058385 0.026546 0.0
-0.061167 0.025194 0.0
-0.063874 0.023690 0.0
-0.066495 0.022018 0.0
-0.069014 0.020161 0.0
-0.071416 0.018102 0.0
-0.073679 0.015824 0.0
-0.075781 0.013307 0.0
-0.077694 0.010536 0.0
-0.079384 0.007494 0.0
-0.080816 0.004167 0.0
-0.081947 0.000546 0.0
-0.082731 -0.003374 0.0
-0.083118 -0.007591 0.0
-0.083053 -0.012098 0.0
-0.082479 -0.016873 0.0
-0.081338 -0.021886 0.0
-0.079576 -0.027095 0.0
-0.077140 -0.032441 0.0
-0.073986 -0.037853 0.0
-0.070081 -0.043246 0.0
-0.065410 -0.048521 0.0
-0.059973 -0.053572 0.0
-0.053794 -0.058281 0.0
-0.046924 -0.062521 0.0
-0.039441 -0.066124 0.0
-0.031464 -0.068797 0.0
-0.023181 -0.069874 0.0
-0.014924 -0.067708 0.0
-0.007356 -0.058307 0.0
-0.001928 -0.032242 0.0
-0.000648 0.015595 0.0
-0.002574 0.030175 0.0
-0.005394 0.036179 0.0
-0.008569 0.038220 0.0
-0.011859 0.038718 0.0
-0.015174 0.038698 0.0
-0.018488 0.038505 0.0
-0.021791 0.038233 0.0
-0.025080 0.037902 0.0
-0.028352 0.037513 0.0
-0.031605 0.037065 0.0
-0.034838 0.036553 0.0
-0.038049 0.035974 0.0
-0.041235 0.035323 0.0
-0.044395 0.034591 0.0
-0.047526 0.033773 0.0
-0.050626 0.032860 0.0
-0.053692 0.031840 0.0
-0.056718 0.030702 0.0
-0.059701 0.029434 0.0
-0.062633 0.028020 0.0
-0.065506 0.026444 0.0
-0.068310 0.024687 0.0
-0.071031 0.022732 0.0
-0.073653 0.020556 0.0
-0.076158 0.018138 0.0
-0.078520 0.015457 0.0
-0.080711 0.012490 0.0
-0.082698 0.009216 0.0
-0.084439 0.005618 0.0
-0.085890 0.001678 0.0
-0.086998 -0.002613 0.0
-0.087706 -0.007259 0.0
-0.087948 -0.012254 0.0
-0.087656 -0.017582 0.0
-0.086761 -0.023213 0.0
-0.085190 -0.029101 0.0
-0.082878 -0.035184 0.0
-0.079763 -0.041379 0.0
-0.075799 -0.047588 0.0
-0.070957 -0.053693 0.0
-0.065229 -0.059565 0.0
-0.058637 -0.065059 0.0
-0.051233 -0.070017 0.0
-0.043109 -0.074235 0.0
-0.034406 -0.077366 0.0
-0.025343 -0.078649 0.0
-0.016302 -0.076230 0.0
-0.008022 -0.065633 0.0
-0.002098 -0.036267 0.0
-0.000651 0.016894 0.0
-0.002596 0.032746 0.0
-0.005452 0.039284 0.0
-0.008673 0.041510 0.0
-0.012012 0.042057 0.0
-0.015380 0.042042 0.0
-0.018746 0.041841 0.0
-0.022103 0.041557 0.0
-0.025449 0.041211 0.0
-0.028780 0.040806 0.0
-0.032095 0.040340 0.0
-0.035394 0.039810 0.0
-0.038676 0.039210 0.0
-0.041939 0.038536 0.0
-0.045184 0.037782 0.0
-0.048408 0.036938 0.0
-0.051610 0.035997 0.0
-0.054790 0.034947 0.0
-0.057943 0.033775 0.0
-0.061067 0.032468 0.0
-0.064157 0.031008 0.0
-0.067207 0.029378 0.0
-0.070207 0.027557 0.0
-0.073146 0.025523 0.0
-0.076009 0.023251 0.0
-0.078778 0.020716 0.0
-0.081430 0.017892 0.0
-0.083934 0.014750 0.0
-0.086256 0.011264 0.0
-0.088354 0.007409 0.0
-0.090177 0.003161 0.0
-0.091667 -0.001497 0.0
-0.092759 -0.006576 0.0
-0.093376 -0.012077 0.0
-0.093438 -0.017988 0.0
-0.092858 -0.024282 0.0
-0.091547 -0.030913 0.0
-0.089418 -0.037813 0.0
-0.086390 -0.044892 0.0
-0.082396 -0.052033 0.0
-0.077390 -0.059097 0.0
-0.071351 -0.065927 0.0
-0.064295 -0.072345 0.0
-0.056279 -0.078151 0.0
-0.047407 -0.083096 0.0
-0.037848 -0.086768 0.0
-0.027864 -0.088294 0.0
-0.017899 -0.085592 0.0
-0.008788 -0.073662 0.0
-0.002292 -0.040657 0.0
-0.000655 0.018200 0.0
-0.002618 0.035348 0.0
-0.005512 0.042434 0.0
-0.008781 0.044850 0.0
-0.012173 0.045448 0.0
-0.015594 0.045439 0.0
-0.019015 0.045232 0.0
-0.022429 0.044937 0.0
-0.025832 0.044579 0.0
-0.029223 0.044161 0.0
-0.032602 0.043680 0.0
-0.035968 0.043135 0.0
-0.039322 0.042520 0.0
-0.042663 0.041831 0.0
-0.045993 0.041061 0.0
-0.049311 0.040201 0.0
-0.052618 0.039243 0.0
-0.055913 0.038175 0.0
-0.059197 0.036984 0.0
-0.062468 0.035654 0.0
-0.065723 0.034167 0.0
-0.068957 0.032503 0.0
-0.072165 0.030639 0.0
-0.075337 0.028551 0.0
-0.078460 0.026209 0.0
-0.081517 0.023584 0.0
-0.084486 0.020644 0.0
-0.087339 0.017355 0.0
-0.090039 0.013682 0.0
-0.092543 0.009592 0.0
-0.094797 0.005054 0.0
-0.096736 0.000040 0.0
-0.098286 -0.005472 0.0
-0.099360 -0.011490 0.0
-0.099861 -0.018011 0.0
-0.099686 -0.025015 0.0
-0.098722 -0.032456 0.0
-0.096856 -0.040265 0.0
-0.093982 -0.048342 0.0
-0.090006 -0.056553 0.0
-0.084855 -0.064734 0.0
-0.078492 -0.072692 0.0
-0.070920 -0.080207 0.0
-0.062200 -0.087026 0.0
-0.052453 -0.092840 0.0
-0.041882 -0.097154 0.0
-0.030807 -0.098966 0.0
-0.019751 -0.095941 0.0
-0.009666 -0.082509 0.0
-0.002512 -0.045461 0.0
-0.000658 0.019513 0.0
-0.002640 0.037981 0.0
-0.005574 0.045630 0.0
-0.008894 0.048242 0.0
-0.012339 0.048893 0.0
-0.015816 0.048891 0.0
-0.019293 0.048679 0.0
-0.022764 0.048375 0.0
-0.026226 0.048006 0.0
-0.029678 0.047577 0.0
-0.033121 0.047086 0.0
-0.036554 0.046530 0.0
-0.039980 0.045905 0.0
-0.043399 0.045207 0.0
-0.046813 0.044429 0.0
-0.050225 0.043563 0.0
-0.053636 0.042600 0.0
-0.057049 0.041527 0.0
-0.060465 0.040332 0.0
-0.063884 0.038996 0.0
-0.067308 0.037503 0.0
-0.070734 0.035828 0.0
-0.074159 0.033947 0.0
-0.077576 0.031832 0.0
-0.080976 0.029451 0.0
-0.084343 0.026768 0.0
-0.087659 0.023746 0.0
-0.090896 0.020343 0.0
-0.094019 0.016517 0.0
-0.096982 0.012225 0.0
-0.099730 0.007423 0.0
-0.102193 0.002072 0.0
-0.104287 -0.003861 0.0
-0.105915 -0.010399 0.0
-0.106963 -0.017553 0.0
-0.107303 -0.025309 0.0
-0.106797 -0.033631 0.0
-0.105303 -0.042450 0.0
-0.102678 -0.051657 0.0
-0.098790 -0.061102 0.0
-0.093534 -0.070592 0.0
-0.086843 -0.079890 0.0
-0.078703 -0.088720 0.0
-0.069173 -0.096764 0.0
-0.058396 -0.103626 0.0
-0.046623 -0.108712 0.0
-0.034245 -0.110861 0.0
-0.021894 -0.107454 0.0
-0.010668 -0.092306 0.0
-0.002757 -0.050730 0.0
-0.000660 0.020831 0.0
-0.002662 0.040646 0.0
-0.005638 0.048875 0.0
-0.009009 0.051688 0.0
-0.012511 0.052394 0.0
-0.016045 0.052400 0.0
-0.019580 0.052183 0.0
-0.023110 0.051871 0.0
-0.026631 0.051493 0.0
-0.030144 0.051055 0.0
-0.033649 0.050555 0.0
-0.037149 0.049993 0.0
-0.040644 0.049363 0.0
-0.044139 0.048663 0.0
-0.047637 0.047885 0.0
-0.051140 0.047022 0.0
-0.054654 0.046065 0.0
-0.058182 0.045002 0.0
-0.061728 0.043819 0.0
-0.065297 0.042498 0.0
-0.068891 0.041019 0.0
-0.072513 0.039359 0.0
-0.076161 0.037489 0.0
-0.079833 0.035379 0.0
-0.083524 0.032993 0.0
-0.087222 0.030291 0.0
-0.090911 0.027228 0.0
-0.094567 0.023754 0.0
-0.098157 0.019819 0.0
-0.101637 0.015367 0.0
-0.104949 0.010341 0.0
-0.108019 0.004687 0.0
-0.110757 -0.001643 0.0
-0.113051 -0.008694 0.0
-0.114771 -0.016491 0.0
-0.115765 -0.025037 0.0
-0.115862 -0.034310 0.0
-0.114882 -0.044246 0.0
-0.112635 -0.054733 0.0
-0.108943 -0.065605 0.0
-0.103650 -0.076637 0.0
-0.096645 -0.087540 0.0
-0.087888 -0.097967 0.0
-0.077428 -0.107507 0.0
-0.065434 -0.115655 0.0
-0.052215 -0.121675 0.0
-0.038270 -0.124220 0.0
-0.024369 -0.120348 0.0
-0.011802 -0.103206 0.0
-0.003028 -0.056515 0.0
-0.000663 0.022154 0.0
-0.002684 0.043346 0.0
-0.005703 0.052169 0.0
-0.009129 0.055191 0.0
-0.012688 0.055953 0.0
-0.016281 0.055968 0.0
-0.019875 0.055745 0.0
-0.023463 0.055425 0.0
-0.027043 0.055040 0.0
-0.030616 0.054594 0.0
-0.034183 0.054089 0.0
-0.037747 0.053522 0.0
-0.041310 0.052893 0.0
-0.044877 0.052195 0.0
-0.048454 0.051426 0.0
-0.052045 0.050576 0.0
-0.055656 0.049637 0.0
-0.059296 0.048598 0.0
-0.062969 0.047444 0.0
-0.066684 0.046157 0.0
-0.070447 0.044717 0.0
-0.074264 0.043098 0.0
-0.078138 0.041272 0.0
-0.082072 0.039203 0.0
-0.086064 0.036853 0.0
-0.090109 0.034175 0.0
-0.094196 0.031119 0.0
-0.098304 0.027628 0.0
-0.102406 0.023638 0.0
-0.106460 0.019081 0.0
-0.110409 0.013887 0.0
-0.114178 0.007981 0.0
-0.117670 0.001293 0.0
-0.120762 -0.006244 0.0
-0.123306 -0.014678 0.0
-0.125122 -0.024040 0.0
-0.126006 -0.034327 0.0
-0.125726 -0.045490 0.0
-0.124038 -0.057423 0.0
-0.120697 -0.069949 0.0
-0.115478 -0.082806 0.0
-0.108206 -0.095647 0.0
-0.098792 -0.108032 0.0
-0.087265 -0.119428 0.0
-0.073820 -0.129174 0.0
-0.058849 -0.136345 0.0
-0.042993 -0.139351 0.0
-0.027221 -0.134888 0.0
-0.013071 -0.115383 0.0
-0.003319 -0.062863 0.0
-0.000665 0.023483 0.0
-0.002707 0.046080 0.0
-0.005770 0.055516 0.0
-0.009252 0.058752 0.0
-0.012872 0.059572 0.0
-0.016525 0.059594 0.0
-0.020179 0.059367 0.0
-0.023825 0.059039 0.0
-0.027464 0.058645 0.0
-0.031095 0.058193 0.0
-0.034721 0.057683 0.0
-0.038345 0.057116 0.0
-0.041971 0.056489 0.0
-0.045606 0.055801 0.0
-0.049256 0.055046 0.0
-0.052928 0.054219 0.0
-0.056632 0.053310 0.0
-0.060375 0.052309 0.0
-0.064169 0.051201 0.0
-0.068024 0.049970 0.0
-0.071950 0.048593 0.0
-0.075958 0.047046 0.0
-0.080056 0.045297 0.0
-0.084252 0.043309 0.0
-0.088552 0.041039 0.0
-0.092955 0.038437 0.0
-0.097458 0.035446 0.0
-0.102049 0.032000 0.0
-0.106704 0.028023 0.0
-0.111388 0.023434 0.0
-0.116049 0.018144 0.0
-0.120614 0.012057 0.0
-0.124981 0.005076 0.0
-0.129021 -0.002894 0.0
-0.132567 -0.011937 0.0
-0.135413 -0.022118 0.0
-0.137312 -0.033467 0.0
-0.137978 -0.045964 0.0
-0.137094 -0.059521 0.0
-0.134329 -0.073958 0.0
-0.129361 -0.088984 0.0
-0.121918 -0.104182 0.0
-0.111831 -0.118998 0.0
-0.099087 -0.132732 0.0
-0.083902 -0.144501 0.0
-0.066776 -0.153114 0.0
-0.048555 -0.156660 0.0
-0.030494 -0.151412 0.0
-0.014465 -0.129039 0.0
-0.003620 -0.069802 0.0
-0.000668 0.024816 0.0
-0.002730 0.048851 0.0
-0.005839 0.058918 0.0
-0.009380 0.062374 0.0
-0.013062 0.063252 0.0
-0.016776 0.063282 0.0
-0.020491 0.063047 0.0
-0.024196 0.062710 0.0
-0.027891 0.062307 0.0
-0.031578 0.061848 0.0
-0.035260 0.061335 0.0
-0.038940 0.060768 0.0
-0.042625 0.060148 0.0
-0.046321 0.059473 0.0
-0.050036 0.058739 0.0
-0.053781 0.057942 0.0
-0.057566 0.057074 0.0
-0.061404 0.056125 0.0
-0.065308 0.055082 0.0
-0.069292 0.053928 0.0
-0.073371 0.052641 0.0
-0.077561 0.051196 0.0
-0.081875 0.049560 0.0
-0.086330 0.047696 0.0
-0.090935 0.045557 0.0
-0.095702 0.043089 0.0
-0.100634 0.040229 0.0
-0.105728 0.036901 0.0
-0.110972 0.033020 0.0
-0.116339 0.028489 0.0
-0.121787 0.023198 0.0
-0.127246 0.017027 0.0
-0.132621 0.009847 0.0
-0.137775 0.001529 0.0
-0.142529 -0.008059 0.0
-0.146652 -0.019028 0.0
-0.149852 -0.031458 0.0
-0.151781 -0.045378 0.0
-0.152033 -0.060738 0.0
-0.150164 -0.077375 0.0
-0.145721 -0.094979 0.0
-0.138289 -0.113062 0.0
-0.127564 -0.130930 0.0
-0.113450 -0.147657 0.0
-0.096165 -0.162047 0.0
-0.076348 -0.172511 0.0
-0.055140 -0.176692 0.0
-0.034225 -0.170357 0.0
-0.015949 -0.144400 0.0
-0.003906 -0.077328 0.0
-0.000670 0.026154 0.0
-0.002754 0.051659 0.0
-0.005912 0.062376 0.0
-0.009514 0.066059 0.0
-0.013261 0.066996 0.0
-0.017038 0.067030 0.0
-0.020813 0.066787 0.0
-0.024576 0.066439 0.0
-0.028327 0.066025 0.0
-0.032067 0.065558 0.0
-0.035800 0.065040 0.0
-0.039531 0.064474 0.0
-0.043267 0.063862 0.0
-0.047015 0.063203 0.0
-0.050787 0.062496 0.0
-0.054593 0.061737 0.0
-0.058449 0.060920 0.0
-0.062367 0.060036 0.0
-0.066367 0.059074 0.0
-0.070465 0.058018 0.0
-0.074682 0.056847 0.0
-0.079038 0.055535 0.0
-0.083556 0.054052 0.0
-0.088255 0.052358 0.0
-0.093158 0.050404 0.0
-0.098284 0.048134 0.0
-0.103647 0.045479 0.0
-0.109257 0.042356 0.0
-0.115116 0.038668 0.0
-0.121211 0.034304 0.0
-0.127512 0.029132 0.0
-0.133964 0.023005 0.0
-0.140480 0.015759 0.0
-0.146927 0.007218 0.0
-0.153122 -0.002800 0.0
-0.158812 -0.014475 0.0
-0.163663 -0.027958 0.0
-0.167259 -0.043353 0.0
-0.169093 -0.060678 0.0
-0.168577 -0.079819 0.0
-0.165078 -0.100477 0.0
-0.157972 -0.122102 0.0
-0.146746 -0.143841 0.0
-0.131138 -0.164469 0.0
-0.111320 -0.182338 0.0
-0.088092 -0.195264 0.0
-0.063018 -0.200220 0.0
-0.038445 -0.192318 0.0
-0.017443 -0.161717 0.0
-0.004131 -0.085365 0.0
-0.000673 0.027496 0.0
-0.002780 0.054508 0.0
-0.005990 0.065894 0.0
-0.009657 0.069810 0.0
-0.013470 0.070805 0.0
-0.017313 0.070842 0.0
-0.021149 0.070587 0.0
-0.024970 0.070223 0.0
-0.028774 0.069796 0.0
-0.032564 0.069317 0.0
-0.036343 0.068793 0.0
-0.040118 0.068227 0.0
-0.043896 0.067623 0.0
-0.047687 0.066982 0.0
-0.051502 0.066305 0.0
-0.055357 0.065590 0.0
-0.059267 0.064832 0.0
-0.063250 0.064026 0.0
-0.067327 0.063161 0.0
-0.071520 0.062223 0.0
-0.075854 0.061193 0.0
-0.080355 0.060047 0.0
-0.085053 0.058755 0.0
-0.089978 0.057278 0.0
-0.095159 0.055568 0.0
-0.100627 0.053565 0.0
-0.106412 0.051196 0.0
-0.112538 0.048375 0.0
-0.119024 0.044994 0.0
-0.125876 0.040926 0.0
-0.133086 0.036021 0.0
-0.140619 0.030102 0.0
-0.148407 0.022966 0.0
-0.156335 0.014386 0.0
-0.164221 0.004113 0.0
-0.171807 -0.008113 0.0
-0.178729 -0.022546 0.0
-0.184501 -0.039397 0.0
-0.188503 -0.058799 0.0
-0.189977 -0.080739 0.0
-0.188055 -0.104978 0.0
-0.181816 -0.130946 0.0
-0.170417 -0.157622 0.0
-0.153299 -0.183414 0.0
-0.130476 -0.206034 0.0
-0.102884 -0.222389 0.0
-0.072669 -0.228384 0.0
-0.043222 -0.218174 0.0
-0.018805 -0.181280 0.0
-0.004211 -0.093707 0.0
-0.000676 0.028845 0.0
-0.002809 0.057400 0.0
-0.006074 0.069477 0.0
-0.009810 0.073630 0.0
-0.013694 0.074682 0.0
-0.017604 0.074718 0.0
-0.021503 0.074446 0.0
-0.025380 0.074062 0.0
-0.029236 0.073616 0.0
-0.033071 0.073122 0.0
-0.036890 0.072587 0.0
-0.040701 0.072018 0.0
-0.044512 0.071420 0.0
-0.048333 0.070797 0.0
-0.052179 0.070152 0.0
-0.056066 0.069484 0.0
-0.060012 0.068793 0.0
-0.064039 0.068075 0.0
-0.068170 0.067320 0.0
-0.072433 0.066519 0.0
-0.076857 0.065655 0.0
-0.081476 0.064706 0.0
-0.086325 0.063644 0.0
-0.091443 0.062432 0.0
-0.096872 0.061024 0.0
-0.102655 0.059360 0.0
-0.108836 0.057367 0.0
-0.115460 0.054953 0.0
-0.122565 0.052006 0.0
-0.130184 0.048385 0.0
-0.138336 0.043923 0.0
-0.147018 0.038415 0.0
-0.156195 0.031618 0.0
-0.165781 0.023248 0.0
-0.175624 0.012980 0.0
-0.185471 0.000453 0.0
-0.194947 -0.014714 0.0
-0.203514 -0.032889 0.0
-0.210443 -0.054377 0.0
-0.214783 -0.079346 0.0
-0.215375 -0.107703 0.0
-0.210898 -0.138936 0.0
-0.200022 -0.171906 0.0
-0.181674 -0.204596 0.0
-0.155484 -0.233865 0.0
-0.122373 -0.255261 0.0
-0.085171 -0.262928 0.0
-0.048877 -0.249371 0.0
-0.019865 -0.203513 0.0
-0.004008 -0.101926 0.0
-0.000680 0.030201 0.0
-0.002842 0.060339 0.0
-0.006168 0.073128 0.0
-0.009977 0.077525 0.0
-0.013936 0.078630 0.0
-0.017917 0.078660 0.0
-0.021879 0.078365 0.0
-0.025813 0.077955 0.0
-0.029717 0.077483 0.0
-0.033593 0.076966 0.0
-0.037447 0.076415 0.0
-0.041284 0.075838 0.0
-0.045116 0.075243 0.0
-0.048955 0.074635 0.0
-0.052815 0.074021 0.0
-0.056716 0.073403 0.0
-0.060677 0.072783 0.0
-0.064723 0.072159 0.0
-0.068882 0.071526 0.0
-0.073185 0.070878 0.0
-0.077667 0.070201 0.0
-0.082366 0.069477 0.0
-0.087327 0.068682 0.0
-0.092598 0.067783 0.0
-0.098231 0.066735 0.0
-0.104284 0.065485 0.0
-0.110819 0.063959 0.0
-0.117899 0.062066 0.0
-0.125592 0.059691 0.0
-0.133959 0.056687 0.0
-0.143056 0.052871 0.0
-0.152924 0.048017 0.0
-0.163574 0.041843 0.0
-0.174973 0.034009 0.0
-0.187017 0.024106 0.0
-0.199501 0.011657 0.0