# vtk DataFile Version 3.0
Scalar Field
ASCII
DATASET RECTILINEAR_GRID
DIMENSIONS 50 50 1
X_COORDINATES 50 double
0.100000 0.300000 0.500000 0.700000 0.900000 1.100000 1.300000 1.500000 1.700000 1.900000 2.100000 2.300000 2.500000 2.700000 2.900000 3.100000 3.300000 3.500000 3.700000 3.900000 4.100000 4.300000 4.500000 4.700000 4.900000 5.100000 5.300000 5.500000 5.700000 5.900000 6.100000 6.300000 6.500000 6.700000 6.900000 7.100000 7.300000 7.500000 7.700000 7.900000 8.100000 8.300000 8.500000 8.700000 8.900000 9.100000 9.300000 9.500000 9.700000 9.900000 
Y_COORDINATES 50 double
0.100000 0.300000 0.500000 0.700000 0.900000 1.100000 1.300000 1.500000 1.700000 1.900000 2.100000 2.300000 2.500000 2.700000 2.900000 3.100000 3.300000 3.500000 3.700000 3.900000 4.100000 4.300000 4.500000 4.700000 4.900000 5.100000 5.300000 5.500000 5.700000 5.900000 6.100000 6.300000 6.500000 6.700000 6.900000 7.100000 7.300000 7.500000 7.700000 7.900000 8.100000 8.300000 8.500000 8.700000 8.900000 9.100000 9.300000 9.500000 9.700000 9.900000 
Z_COORDINATES 1 double
0.0
POINT_DATA 2500
SCALARS Skalarfeld double 1
LOOKUP_TABLE default
-0.009788
-0.009798
-0.009741
-0.009605
-0.009387
-0.009089
-0.008709
-0.008248
-0.007706
-0.007080
-0.006371
-0.005578
-0.004699
-0.003734
-0.002682
-0.001543
-0.000317
0.000998
0.002400
0.003888
0.005463
0.007121
0.008862
0.010681
0.012575
0.014539
0.016568
0.018656
0.020793
0.022972
0.025183
0.027413
0.029650
0.031880
0.034090
0.036262
0.038380
0.040427
0.042386
0.044237
0.045965
0.047550
0.048977
0.050231
0.051298
0.052164
0.052821
0.053261
0.053486
0.053519
-0.009779
-0.009789
-0.009726
-0.009586
-0.009367
-0.009069
-0.008691
-0.008231
-0.007690
-0.007066
-0.006359
-0.005568
-0.004691
-0.003729
-0.002680
-0.001544
-0.000320
0.000992
0.002391
0.003877
0.005449
0.007105
0.008842
0.010659
0.012551
0.014514
0.016542
0.018628
0.020764
0.022943
0.025153
0.027384
0.029622
0.031855
0.034066
0.036241
0.038362
0.040413
0.042375
0.044231
0.045962
0.047551
0.048982
0.050239
0.051309
0.052178
0.052839
0.053284
0.053517
0.053550
-0.009840
-0.009856
-0.009793
-0.009653
-0.009434
-0.009137
-0.008760
-0.008302
-0.007763
-0.007142
-0.006438
-0.005649
-0.004776
-0.003816
-0.002770
-0.001637
-0.000416
0.000894
0.002291
0.003775
0.005346
0.007002
0.008740
0.010559
0.012453
0.014420
0.016453
0.018545
0.020690
0.022878
0.025100
0.027343
0.029595
0.031844
0.034072
0.036266
0.038406
0.040477
0.042459
0.044335
0.046086
0.047694
0.049142
0.050415
0.051498
0.052380
0.053050
0.053502
0.053737
0.053761
-0.009988
-0.010009
-0.009948
-0.009808
-0.009591
-0.009295
-0.008920
-0.008465
-0.007929
-0.007311
-0.006610
-0.005825
-0.004955
-0.003999
-0.002956
-0.001825
-0.000606
0.000701
0.002097
0.003582
0.005153
0.006811
0.008554
0.010378
0.012280
0.014256
0.016300
0.018407
0.020569
0.022776
0.025020
0.027288
0.029568
0.031846
0.034107
0.036334
0.038510
0.040616
0.042635
0.044547
0.046333
0.047975
0.049454
0.050756
0.051863
0.052765
0.053450
0.053912
0.054150
0.054169
-0.010228
-0.010251
-0.010191
-0.010054
-0.009839
-0.009545
-0.009173
-0.008722
-0.008189
-0.007575
-0.006878
-0.006097
-0.005231
-0.004278
-0.003238
-0.002111
-0.000894
0.000413
0.001809
0.003294
0.004869
0.006532
0.008281
0.010115
0.012029
0.014020
0.016083
0.018212
0.020399
0.022636
0.024913
0.027218
0.029538
0.031860
0.034168
0.036444
0.038671
0.040831
0.042903
0.044868
0.046705
0.048395
0.049920
0.051262
0.052405
0.053335
0.054042
0.054518
0.054763
0.054780
-0.010559
-0.010583
-0.010526
-0.010390
-0.010178
-0.009887
-0.009519
-0.009071
-0.008543
-0.007933
-0.007240
-0.006464
-0.005602
-0.004654
-0.003618
-0.002493
-0.001278
0.000027
0.001424
0.002912
0.004492
0.006162
0.007921
0.009768
0.011699
0.013711
0.015799
0.017957
0.020178
0.022454
0.024775
0.027129
0.029503
0.031883
0.034253
0.036595
0.038890
0.041120
0.043262
0.045297
0.047202
0.048957
0.050541
0.051937
0.053126
0.054095
0.054831
0.055327
0.055580
0.055598
-0.010980
-0.011005
-0.010950
-0.010817
-0.010608
-0.010321
-0.009957
-0.009513
-0.008990
-0.008386
-0.007699
-0.006928
-0.006071
-0.005128
-0.004096
-0.002975
-0.001762
-0.000457
0.000941
0.002433
0.004019
0.005698
0.007470
0.009333
0.011285
0.013323
0.015441
0.017636
0.019900
0.022225
0.024600
0.027015
0.029457
0.031909
0.034357
0.036782
0.039163
0.041480
0.043712
0.045834
0.047825
0.049662
0.051323
0.052786
0.054035
0.055052
0.055824
0.056345
0.056610
0.056630
-0.011491
-0.011517
-0.011464
-0.011334
-0.011128
-0.010846
-0.010487
-0.010049
-0.009532
-0.008934
-0.008253
-0.007489
-0.006639
-0.005701
-0.004674
-0.003556
-0.002346
-0.001042
0.000357
0.001853
0.003446
0.005136
0.006922
0.008805
0.010781
0.012849
0.015005
0.017243
0.019557
0.021940
0.024382
0.026870
0.029392
0.031933
0.034475
0.037000
0.039485
0.041910
0.044250
0.046481
0.048577
0.050514
0.052268
0.053816
0.055137
0.056214
0.057032
0.057582
0.057863
0.057884
-0.012091
-0.012119
-0.012068
-0.011942
-0.011740
-0.011463
-0.011109
-0.010678
-0.010168
-0.009577
-0.008904
-0.008147
-0.007305
-0.006374
-0.005353
-0.004241
-0.003034
-0.001731
-0.000331
0.001169
0.002769
0.004470
0.006273
0.008178
0.010182
0.012284
0.014481
0.016769
0.019142
0.021592
0.024110
0.026684
0.029301
0.031945
0.034599
0.037242
0.039853
0.042406
0.044876
0.047236
0.049459
0.051517
0.053384
0.055033
0.056442
0.057591
0.058463
0.059050
0.059350
0.059374
-0.012779
-0.012809
-0.012761
-0.012638
-0.012442
-0.012170
-0.011823
-0.011400
-0.010898
-0.010316
-0.009652
-0.008904
-0.008071
-0.007148
-0.006135
-0.005029
-0.003827
-0.002527
-0.001127
0.000376
0.001983
0.003696
0.005516
0.007444
0.009478
0.011618
0.013862
0.016205
0.018643
0.021169
0.023774
0.026446
0.029172
0.031936
0.034720
0.037501
0.040257
0.042961
0.045585
0.048099
0.050473
0.052675
0.054676
0.056446
0.057960
0.059195
0.060133
0.060764
0.061086
0.061112
-0.013555
-0.013587
-0.013542
-0.013424
-0.013233
-0.012968
-0.012629
-0.012214
-0.011722
-0.011150
-0.010497
-0.009761
-0.008938
-0.008026
-0.007023
-0.005925
-0.004730
-0.003434
-0.002035
-0.000531
0.001083
0.002807
0.004644
0.006595
0.008661
0.010841
0.013135
0.015538
0.018048
0.020658
0.023360
0.026143
0.028992
0.031893
0.034825
0.037766
0.040690
0.043570
0.046374
0.049068
0.051619
0.053992
0.056152
0.058066
0.059704
0.061041
0.062057
0.062739
0.063087
0.063116
-0.014417
-0.014452
-0.014411
-0.014297
-0.014113
-0.013856
-0.013526
-0.013121
-0.012640
-0.012081
-0.011441
-0.010717
-0.009907
-0.009008
-0.008017
-0.006930
-0.005744
-0.004455
-0.003061
-0.001556
0.000061
0.001795
0.003648
0.005622
0.007720
0.009942
0.012288
0.014756
0.017343
0.020044
0.022853
0.025758
0.028745
0.031799
0.034899
0.038022
0.041140
0.044223
0.047235
0.050140
0.052899
0.055472
0.057819
0.059903
0.061688
0.063146
0.064252
0.064995
0.065373
0.065404
-0.015365
-0.015403
-0.015366
-0.015258
-0.015080
-0.014833
-0.014513
-0.014120
-0.013653
-0.013107
-0.012482
-0.011774
-0.010980
-0.010096
-0.009120
-0.008047
-0.006874
-0.005595
-0.004208
-0.002707
-0.001088
0.000653
0.002520
0.004516
0.006644
0.008908
0.011307
0.013842
0.016511
0.019310
0.022234
0.025272
0.028411
0.031636
0.034925
0.038254
0.041593
0.044908
0.048161
0.051311
0.054312
0.057119
0.059687
0.061970
0.063928
0.065528
0.066741
0.067553
0.067967
0.068001
-0.016398
-0.016438
-0.016406
-0.016305
-0.016135
-0.015898
-0.015590
-0.015211
-0.014758
-0.014230
-0.013622
-0.012932
-0.012157
-0.011292
-0.010335
-0.009279
-0.008122
-0.006858
-0.005482
-0.003988
-0.002372
-0.000628
0.001249
0.003263
0.005421
0.007724
0.010176
0.012779
0.015532
0.018434
0.021481
0.024663
0.027968
0.031381
0.034880
0.038440
0.042029
0.045610
0.049140
0.052573
0.055856
0.058937
0.061763
0.064281
0.066443
0.068208
0.069546
0.070440
0.070894
0.070931
-0.017514
-0.017557
-0.017530
-0.017436
-0.017276
-0.017050
-0.016756
-0.016393
-0.015957
-0.015447
-0.014860
-0.014192
-0.013439
-0.012597
-0.011662
-0.010629
-0.009492
-0.008247
-0.006887
-0.005406
-0.003798
-0.002057
-0.000175
0.001854
0.004035
0.006375
0.008878
0.011548
0.014386
0.017394
0.020568
0.023903
0.027387
0.031005
0.034737
0.038555
0.042425
0.046308
0.050156
0.053915
0.057526
0.060928
0.064057
0.066850
0.069252
0.071213
0.072697
0.073685
0.074183
0.074223
-0.018711
-0.018758
-0.018737
-0.018651
-0.018501
-0.018288
-0.018010
-0.017664
-0.017248
-0.016760
-0.016196
-0.015553
-0.014826
-0.014011
-0.013104
-0.012098
-0.010988
-0.009767
-0.008430
-0.006968
-0.005375
-0.003642
-0.001762
0.000274
0.002474
0.004844
0.007393
0.010126
0.013048
0.016162
0.019467
0.022962
0.026636
0.030476
0.034461
0.038564
0.042750
0.046974
0.051185
0.055321
0.059314
0.063091
0.066576
0.069695
0.072379
0.074569
0.076223
0.077320
0.077869
0.077910
-0.019989
-0.020039
-0.020024
-0.019947
-0.019809
-0.019611
-0.019350
-0.019024
-0.018631
-0.018167
-0.017631
-0.017016
-0.016320
-0.015537
-0.014662
-0.013689
-0.012611
-0.011422
-0.010114
-0.008679
-0.007109
-0.005393
-0.003523
-0.001489
0.000720
0.003113
0.005700
0.008490
0.011491
0.014708
0.018145
0.021804
0.025676
0.029752
0.034011
0.038427
0.042964
0.047574
0.052199
0.056769
0.061206
0.065422
0.069327
0.072830
0.075848
0.078309
0.080161
0.081382
0.081987
0.082029
-0.021343
-0.021398
-0.021390
-0.021322
-0.021198
-0.021016
-0.020774
-0.020471
-0.020103
-0.019668
-0.019161
-0.018580
-0.017919
-0.017173
-0.016336
-0.015403
-0.014365
-0.013215
-0.011945
-0.010546
-0.009008
-0.007320
-0.005471
-0.003449
-0.001242
0.001163
0.003777
0.006614
0.009685
0.012999
0.016564
0.020384
0.024462
0.028784
0.033336
0.038093
0.043018
0.048060
0.053156
0.058227
0.063180
0.067912
0.072313
0.076273
0.079686
0.082466
0.084550
0.085914
0.086579
0.086617
-0.022773
-0.022833
-0.022832
-0.022775
-0.022665
-0.022501
-0.022281
-0.022002
-0.021663
-0.021259
-0.020787
-0.020244
-0.019623
-0.018920
-0.018128
-0.017241
-0.016250
-0.015149
-0.013926
-0.012573
-0.011079
-0.009430
-0.007615
-0.005619
-0.003428
-0.001027
0.001601
0.004471
0.007598
0.010997
0.014681
0.018658
0.022939
0.027515
0.032376
0.037499
0.042848
0.048372
0.054002
0.059647
0.065202
0.070541
0.075532
0.080036
0.083922
0.087080
0.089435
0.090959
0.091688
0.091717
-0.024276
-0.024340
-0.024347
-0.024303
-0.024209
-0.024064
-0.023867
-0.023616
-0.023308
-0.022940
-0.022507
-0.022006
-0.021431
-0.020776
-0.020036
-0.019203
-0.018269
-0.017225
-0.016061
-0.014766
-0.013327
-0.011732
-0.009966
-0.008013
-0.005855
-0.003475
-0.000853
0.002030
0.005195
0.008662
0.012448
0.016571
0.021046
0.025876
0.031055
0.036565
0.042374
0.048430
0.054661
0.060966
0.067221
0.073278
0.078972
0.084129
0.088583
0.092193
0.094863
0.096567
0.097360
0.097369
-0.025848
-0.025918
-0.025934
-0.025902
-0.025825
-0.025702
-0.025531
-0.025310
-0.025037
-0.024707
-0.024318
-0.023864
-0.023340
-0.022741
-0.022060
-0.021289
-0.020421
-0.019445
-0.018350
-0.017126
-0.015758
-0.014233
-0.012533
-0.010641
-0.008538
-0.006202
-0.003609
-0.000737
0.002441
0.005950
0.009816
0.014063
0.018712
0.023788
0.029284
0.035194
0.041492
0.048130
0.055033
0.062091
0.069162
0.076069
0.082607
0.088555
0.093696
0.097848
0.100887
0.102790
0.103639
0.103613
-0.027488
-0.027562
-0.027588
-0.027570
-0.027512
-0.027412
-0.027269
-0.027081
-0.026845
-0.026558
-0.026216
-0.025814
-0.025348
-0.024811
-0.024197
-0.023498
-0.022704
-0.021807
-0.020796
-0.019656
-0.018376
-0.016937
-0.015324
-0.013516
-0.011491
-0.009225
-0.006691
-0.003860
-0.000702
0.002816
0.006727
0.011066
0.015864
0.021156
0.026957
0.033267
0.040074
0.047336
0.054981
0.062895
0.070914
0.078829
0.086385
0.093297
0.099281
0.104090
0.107563
0.109678
0.110565
0.110478
-0.029190
-0.029271
-0.029306
-0.029303
-0.029265
-0.029189
-0.029077
-0.028924
-0.028729
-0.028488
-0.028198
-0.027854
-0.027451
-0.026983
-0.026444
-0.025825
-0.025117
-0.024311
-0.023395
-0.022357
-0.021180
-0.019849
-0.018344
-0.016644
-0.014725
-0.012560
-0.010119
-0.007368
-0.004270
-0.000786
0.003126
0.007511
0.012412
0.017874
0.023948
0.030641
0.037957
0.045873
0.054324
0.063196
0.072310
0.081421
0.090211
0.098312
0.105342
0.110959
0.114945
0.117278
0.118164
0.117972
-0.030952
-0.031039
-0.031085
-0.031098
-0.031080
-0.031031
-0.030951
-0.030836
-0.030685
-0.030494
-0.030260
-0.029979
-0.029645
-0.029253
-0.028796
-0.028266
-0.027655
-0.026952
-0.026147
-0.025224
-0.024170
-0.022967
-0.021595
-0.020031
-0.018250
-0.016221
-0.013912
-0.011284
-0.008296
-0.004901
-0.001047
0.003321
0.008263
0.013838
0.020113
0.027143
0.034943
0.043514
0.052815
0.062741
0.073107
0.083629
0.093920
0.103502
0.111850
0.118482
0.123081
0.125624
0.126434
0.126066
-0.032770
-0.032864
-0.032921
-0.032950
-0.032954
-0.032933
-0.032887
-0.032812
-0.032708
-0.032570
-0.032396
-0.032182
-0.031923
-0.031613
-0.031247
-0.030816
-0.030312
-0.029725
-0.029044
-0.028255
-0.027343
-0.026290
-0.025076
-0.023678
-0.022068
-0.020215
-0.018083
-0.015631
-0.012811
-0.009570
-0.005847
-0.001575
0.003320
0.008917
0.015297
0.022572
0.030785
0.039972
0.050128
0.061177
0.072942
0.085114
0.097229
0.108668
0.118708
0.126645
0.131996
0.134721
0.135321
0.134654
-0.034640
-0.034741
-0.034810
-0.034856
-0.034883
-0.034891
-0.034879
-0.034847
-0.034792
-0.034710
-0.034600
-0.034458
-0.034279
-0.034058
-0.033790
-0.033466
-0.033080
-0.032621
-0.032079
-0.031440
-0.030689
-0.029810
-0.028782
-0.027581
-0.026179
-0.024544
-0.022639
-0.020420
-0.017835
-0.014825
-0.011322
-0.007248
-0.002513
0.002982
0.009346
0.016696
0.025193
0.034888
0.045835
0.058013
0.071285
0.085341
0.099650
0.113427
0.125673
0.135343
0.141659
0.144510
0.144674
0.143501
-0.036558
-0.036666
-0.036747
-0.036811
-0.036861
-0.036899
-0.036924
-0.036935
-0.036931
-0.036909
-0.036866
-0.036799
-0.036705
-0.036579
-0.036415
-0.036208
-0.035949
-0.035630
-0.035241
-0.034768
-0.034200
-0.033517
-0.032701
-0.031730
-0.030574
-0.029203
-0.027578
-0.025655
-0.023380
-0.020690
-0.017511
-0.013757
-0.009323
-0.004092
0.002071
0.009318
0.017832
0.027825
0.039383
0.052579
0.067362
0.083473
0.100351
0.117043
0.132198
0.144249
0.151891
0.154804
0.154164
0.152142
-0.038520
-0.038636
-0.038729
-0.038810
-0.038884
-0.038953
-0.039015
-0.039071
-0.039119
-0.039158
-0.039185
-0.039197
-0.039192
-0.039166
-0.039113
-0.039029
-0.038907
-0.038739
-0.038516
-0.038226
-0.037858
-0.037395
-0.036819
-0.036108
-0.035238
-0.034177
-0.032889
-0.031329
-0.029444
-0.027172
-0.024435
-0.021140
-0.017178
-0.012415
-0.006693
0.000175
0.008401
0.018273
0.030088
0.043986
0.060068
0.078213
0.097920
0.118127
0.137091
0.152508
0.162147
0.165131
0.163160
0.159744
-0.040523
-0.040647
-0.040753
-0.040851
-0.040949
-0.041047
-0.041147
-0.041248
-0.041349
-0.041450
-0.041548
-0.041642
-0.041730
-0.041807
-0.041872
-0.041918
-0.041940
-0.041933
-0.041888
-0.041796
-0.041645
-0.041422
-0.041112
-0.040694
-0.040147
-0.039442
-0.038545
-0.037417
-0.036007
-0.034256
-0.032088
-0.029413
-0.026118
-0.022064
-0.017080
-0.010956
-0.003439
0.005775
0.017133
0.031090
0.047866
0.067597
0.090000
0.114080
0.137806
0.157998
0.170938
0.174396
0.170541
0.165063
-0.042563
-0.042695
-0.042813
-0.042929
-0.043049
-0.043177
-0.043314
-0.043460
-0.043614
-0.043777
-0.043948
-0.044125
-0.044307
-0.044491
-0.044676
-0.044858
-0.045032
-0.045194
-0.045337
-0.045454
-0.045537
-0.045574
-0.045552
-0.045456
-0.045266
-0.044961
-0.044510
-0.043881
-0.043029
-0.041903
-0.040438
-0.038550
-0.036136
-0.033065
-0.029170
-0.024241
-0.018007
-0.010128
-0.000181
0.012514
0.028725
0.048765
0.072777
0.100159
0.129031
0.155616
0.174278
0.180065
0.174575
0.167029
-0.044638
-0.044779
-0.044908
-0.045040
-0.045182
-0.045338
-0.045511
-0.045700
-0.045907
-0.046131
-0.046374
-0.046634
-0.046911
-0.047204
-0.047512
-0.047833
-0.048163
-0.048500
-0.048840
-0.049177
-0.049506
-0.049818
-0.050105
-0.050355
-0.050555
-0.050687
-0.050731
-0.050661
-0.050447
-0.050047
-0.049413
-0.048480
-0.047168
-0.045373
-0.042956
-0.039738
-0.035483
-0.029877
-0.022502
-0.012812
0.000152
0.017807
0.040429
0.068253
0.100549
0.134253
0.162412
0.176141
0.173238
0.166635
-0.046745
-0.046896
-0.047036
-0.047182
-0.047343
-0.047526
-0.047731
-0.047961
-0.048218
-0.048503
-0.048815
-0.049158
-0.049529
-0.049931
-0.050363
-0.050824
-0.051314
-0.051830
-0.052372
-0.052937
-0.053521
-0.054121
-0.054732
-0.055347
-0.055960
-0.056562
-0.057141
-0.057683
-0.058173
-0.058587
-0.058901
-0.059080
-0.059081
-0.058848
-0.058305
-0.057353
-0.055857
-0.053631
-0.050415
-0.045845
-0.039410
-0.030086
-0.014907
0.006477
0.036306
0.075229
0.117360
0.150160
0.163307
0.165675
-0.048885
-0.049046
-0.049195
-0.049353
-0.049531
-0.049735
-0.049970
-0.050238
-0.050541
-0.050882
-0.051262
-0.051684
-0.052148
-0.052657
-0.053212
-0.053813
-0.054462
-0.055159
-0.055906
-0.056701
-0.057547
-0.058442
-0.059386
-0.060380
-0.061424
-0.062517
-0.063660
-0.064853
-0.066098
-0.067395
-0.068750
-0.070169
-0.071661
-0.073243
-0.074937
-0.076781
-0.078830
-0.081171
-0.083935
-0.087311
-0.091510
-0.096455
-0.100846
-0.097256
-0.080046
-0.040642
0.018929
0.083774
0.132402
0.153648
-0.051058
-0.051229
-0.051386
-0.051553
-0.051743
-0.051965
-0.052224
-0.052524
-0.052868
-0.053260
-0.053703
-0.054199
-0.054752
-0.055365
-0.056039
-0.056778
-0.057585
-0.058462
-0.059412
-0.060439
-0.061546
-0.062738
-0.064020
-0.065398
-0.066881
-0.068477
-0.070199
-0.072064
-0.074093
-0.076315
-0.078770
-0.081513
-0.084620
-0.088199
-0.092406
-0.097472
-0.103741
-0.111744
-0.122310
-0.136732
-0.156771
-0.183828
-0.216215
-0.245220
-0.251338
-0.216941
-0.140160
-0.037663
0.057287
0.103266
-0.053268
-0.053450
-0.053613
-0.053782
-0.053979
-0.054211
-0.054488
-0.054813
-0.055191
-0.055627
-0.056126
-0.056691
-0.057327
-0.058038
-0.058827
-0.059699
-0.060658
-0.061710
-0.062860
-0.064115
-0.065480
-0.066966
-0.068582
-0.070342
-0.072261
-0.074358
-0.076659
-0.079198
-0.082016
-0.085171
-0.088742
-0.092835
-0.097602
-0.103257
-0.110112
-0.118632
-0.129532
-0.143941
-0.163695
-0.191727
-0.232071
-0.287946
-0.356348
-0.422140
-0.457109
-0.431722
-0.343242
-0.210142
-0.073872
-0.003487
-0.055522
-0.055715
-0.055879
-0.056046
-0.056240
-0.056475
-0.056759
-0.057099
-0.057502
-0.057974
-0.058520
-0.059146
-0.059857
-0.060658
-0.061555
-0.062553
-0.063658
-0.064878
-0.066221
-0.067694
-0.069310
-0.071080
-0.073021
-0.075151
-0.077494
-0.080078
-0.082942
-0.086134
-0.089717
-0.093778
-0.098431
-0.103836
-0.110217
-0.117895
-0.127342
-0.139271
-0.154791
-0.175696
-0.204952
-0.247313
-0.309149
-0.395064
-0.499576
-0.599553
-0.659711
-0.644313
-0.552834
-0.405377
-0.244355
-0.155664
-0.057831
-0.058035
-0.058195
-0.058350
-0.058531
-0.058755
-0.059035
-0.059379
-0.059795
-0.060291
-0.060874
-0.061550
-0.062327
-0.063209
-0.064204
-0.065318
-0.066560
-0.067938
-0.069462
-0.071144
-0.072997
-0.075037
-0.077286
-0.079767
-0.082511
-0.085556
-0.088949
-0.092755
-0.097054
-0.101956
-0.107610
-0.114219
-0.122072
-0.131581
-0.143357
-0.158325
-0.177934
-0.204542
-0.242052
-0.296630
-0.376254
-0.486053
-0.617980
-0.742606
-0.818529
-0.811238
-0.724864
-0.581416
-0.416869
-0.320191
-0.060211
-0.060428
-0.060576
-0.060706
-0.060858
-0.061056
-0.061315
-0.061647
-0.062061
-0.062568
-0.063175
-0.063890
-0.064720
-0.065672
-0.066755
-0.067974
-0.069341
-0.070864
-0.072556
-0.074430
-0.076503
-0.078795
-0.081329
-0.084135
-0.087249
-0.090715
-0.094592
-0.098952
-0.103893
-0.109542
-0.116071
-0.123718
-0.132816
-0.143842
-0.157495
-0.174836
-0.197515
-0.228194
-0.271204
-0.333216
-0.422518
-0.543870
-0.687851
-0.822616
-0.903604
-0.901294
-0.825340
-0.700546
-0.552136
-0.459241
-0.062689
-0.062917
-0.063042
-0.063130
-0.063232
-0.063382
-0.063599
-0.063899
-0.064294
-0.064795
-0.065411
-0.066151
-0.067022
-0.068031
-0.069188
-0.070500
-0.071978
-0.073632
-0.075475
-0.077524
-0.079797
-0.082316
-0.085108
-0.088206
-0.091650
-0.095491
-0.099792
-0.104635
-0.110125
-0.116401
-0.123650
-0.132126
-0.142183
-0.154324
-0.169279
-0.188138
-0.212570
-0.245198
-0.290160
-0.353532
-0.442436
-0.560371
-0.698131
-0.826721
-0.903396
-0.904671
-0.841675
-0.743433
-0.624569
-0.545559
-0.065301
-0.065541
-0.065625
-0.065644
-0.065668
-0.065741
-0.065889
-0.066132
-0.066486
-0.066961
-0.067569
-0.068318
-0.069215
-0.070269
-0.071486
-0.072876
-0.074449
-0.076217
-0.078195
-0.080398
-0.082847
-0.085566
-0.088584
-0.091937
-0.095667
-0.099829
-0.104489
-0.109732
-0.115668
-0.122439
-0.130235
-0.139310
-0.150014
-0.162839
-0.178483
-0.197967
-0.222808
-0.255294
-0.298887
-0.358198
-0.437902
-0.540255
-0.657521
-0.765185
-0.826950
-0.828546
-0.783057
-0.713502
-0.628786
-0.569731
-0.068104
-0.068353
-0.068370
-0.068280
-0.068184
-0.068140
-0.068184
-0.068341
-0.068627
-0.069055
-0.069636
-0.070377
-0.071285
-0.072368
-0.073631
-0.075084
-0.076737
-0.078602
-0.080693
-0.083028
-0.085628
-0.088517
-0.091728
-0.095295
-0.099263
-0.103688
-0.108638
-0.114196
-0.120471
-0.127602
-0.135770
-0.145217
-0.156269
-0.169369
-0.185141
-0.204462
-0.228593
-0.259284
-0.298755
-0.350300
-0.416956
-0.499155
-0.589589
-0.668676
-0.709811
-0.706347
-0.670599
-0.627430
-0.575988
-0.538594
-0.071180
-0.071432
-0.071338
-0.071081
-0.070805
-0.070591
-0.070486
-0.070518
-0.070706
-0.071063
-0.071596
-0.072312
-0.073216
-0.074312
-0.075607
-0.077107
-0.078824
-0.080767
-0.082951
-0.085395
-0.088119
-0.091149
-0.094516
-0.098256
-0.102414
-0.107044
-0.112213
-0.118001
-0.124512
-0.131876
-0.140257
-0.149874
-0.161010
-0.174046
-0.189496
-0.208061
-0.230515
-0.258099
-0.292382
-0.335148
-0.387754
-0.449278
-0.513148
-0.564728
-0.586611
-0.576559
-0.546317
-0.517404
-0.489514
-0.469000
-0.074656
-0.074897
-0.074619
-0.074104
-0.073560
-0.073102
-0.072789
-0.072652
-0.072708
-0.072967
-0.073433
-0.074107
-0.074991
-0.076087
-0.077399
-0.078932
-0.080695
-0.082698
-0.084956
-0.087485
-0.090306
-0.093445
-0.096933
-0.100804
-0.105104
-0.109883
-0.115204
-0.121145
-0.127799
-0.135283
-0.143742
-0.153362
-0.164380
-0.177103
-0.191928
-0.209198
-0.229580
-0.253819
-0.282734
-0.317066
-0.356946
-0.400647
-0.442598
-0.472440
-0.479371
-0.463134
-0.434534
-0.411337
-0.392681
-0.377688
-0.078736
-0.078933
-0.078341
-0.077417
-0.076476
-0.075675
-0.075081
-0.074723
-0.074612
-0.074747
-0.075125
-0.075742
-0.076593
-0.077677
-0.078993
-0.080545
-0.082339
-0.084385
-0.086695
-0.089286
-0.092179
-0.095397
-0.098970
-0.102933
-0.107328
-0.112204
-0.117618
-0.123642
-0.130359
-0.137871
-0.146302
-0.155807
-0.166573
-0.178836
-0.192774
-0.208695
-0.226997
-0.248043
-0.272135
-0.299331
-0.329038
-0.359220
-0.385337
-0.400185
-0.396975
-0.375974
-0.346503
-0.321935
-0.297367
-0.270586
-0.083763
-0.083835
-0.082683
-0.081100
-0.079572
-0.078297
-0.077336
-0.076702
-0.076386
-0.076374
-0.076650
-0.077198
-0.078006
-0.079067
-0.080378
-0.081936
-0.083747
-0.085818
-0.088162
-0.090793
-0.093731
-0.096999
-0.100625
-0.104643
-0.109092
-0.114016
-0.119472
-0.125521
-0.132238
-0.139709
-0.148039
-0.157354
-0.167800
-0.179509
-0.192574
-0.207246
-0.223692
-0.242031
-0.262239
-0.283989
-0.306354
-0.327312
-0.343209
-0.348904
-0.339876
-0.316032
-0.284333
-0.250404
-0.198541
-0.132748
-0.090362
-0.090097
-0.087888
-0.085224
-0.082833
-0.080922
-0.079501
-0.078537
-0.077988
-0.077814
-0.077977
-0.078449
-0.079208
-0.080240
-0.081536
-0.083091
-0.084906
-0.086987
-0.089346
-0.091996
-0.094956
-0.098248
-0.101899
-0.105938
-0.110404
-0.115339
-0.120793
-0.126823
-0.133496
-0.140881
-0.149071
-0.158168
-0.168279
-0.179432
-0.191779
-0.205413
-0.220389
-0.236674
-0.254066
-0.272061
-0.289633
-0.304924
-0.314950
-0.315801
-0.304221
-0.279198
-0.242968
-0.184381
-0.064957
0.086958
-0.099823
-0.098591
-0.094247
-0.089785
-0.086159
-0.083448
-0.081481
-0.080145
-0.079344
-0.078999
-0.079047
-0.079441
-0.080147
-0.081144
-0.082419
-0.083964
-0.085768
-0.087845
-0.090204
-0.092857
-0.095819
-0.099114
-0.102765
-0.106802
-0.111260
-0.116179
-0.121605
-0.127594
-0.134211
-0.141491
-0.149533
-0.158412
-0.168206
-0.178968
-0.190771
-0.203658
-0.217617
-0.232533
-0.248122
-0.263817
-0.278600
-0.290790
-0.297846
-0.296478
-0.283733
-0.257464
-0.207680
-0.089088
0.181781
0.510118
-0.115432
-0.111049
-0.101957
-0.094547
-0.089245
-0.085616
-0.083022
-0.081271
-0.080200
-0.079684
-0.079617
-0.079931
-0.080582
-0.081541
-0.082794
-0.084329
-0.086105
-0.088169
-0.090521
-0.093170
-0.096133
-0.099423
-0.103067
-0.107094
-0.111537
-0.116435
-0.121833
-0.127780
-0.134332
-0.141542
-0.149480
-0.158217
-0.167816
-0.178331
-0.189805
-0.202251
-0.215623
-0.229766
-0.244356
-0.258797
-0.272084
-0.282622
-0.288049
-0.285108
-0.270390
-0.235595
-0.142091
0.114731
0.685944
1.389757
-0.145772
-0.129418
-0.110715
-0.098054
-0.090322
-0.085749
-0.082396
-0.080354
-0.079160
-0.078550
-0.078433
-0.078727
-0.079377
-0.080349
-0.081621
-0.083172
-0.084987
-0.087084
-0.089468
-0.092150
-0.095142
-0.098463
-0.102136
-0.106189
-0.110656
-0.115574
-0.120987
-0.126944
-0.133497
-0.140701
-0.148622
-0.157322
-0.166862
-0.177289
-0.188636
-0.200897
-0.214002
-0.227769
-0.241837
-0.255568
-0.267901
-0.277161
-0.280689
-0.274413
-0.251851
-0.177303
0.030623
0.560366
1.651443
3.063496
-0.248842
-0.111445
-0.082558
-0.074249
-0.071052
-0.069677
-0.068960
-0.068805
-0.069040
-0.069562
-0.070353
-0.071395
-0.072673
-0.074179
-0.075910
-0.077860
-0.080032
-0.082443
-0.085107
-0.088039
-0.091259
-0.094787
-0.098649
-0.102877
-0.107504
-0.112571
-0.118122
-0.124205
-0.130876
-0.138189
-0.146208
-0.154994
-0.164604
-0.175083
-0.186455
-0.198702
-0.211735
-0.225344
-0.239126
-0.252379
-0.263896
-0.271656
-0.271654
-0.255382
-0.196275
-0.037951
0.354657
1.241249
2.920923
5.161704
