# vtk DataFile Version 3.0
Scalar Field
ASCII
DATASET RECTILINEAR_GRID
DIMENSIONS 50 50 1
X_COORDINATES 50 double
0.100000 0.300000 0.500000 0.700000 0.900000 1.100000 1.300000 1.500000 1.700000 1.900000 2.100000 2.300000 2.500000 2.700000 2.900000 3.100000 3.300000 3.500000 3.700000 3.900000 4.100000 4.300000 4.500000 4.700000 4.900000 5.100000 5.300000 5.500000 5.700000 5.900000 6.100000 6.300000 6.500000 6.700000 6.900000 7.100000 7.300000 7.500000 7.700000 7.900000 8.100000 8.300000 8.500000 8.700000 8.900000 9.100000 9.300000 9.500000 9.700000 9.900000 
Y_COORDINATES 50 double
0.100000 0.300000 0.500000 0.700000 0.900000 1.100000 1.300000 1.500000 1.700000 1.900000 2.100000 2.300000 2.500000 2.700000 2.900000 3.100000 3.300000 3.500000 3.700000 3.900000 4.100000 4.300000 4.500000 4.700000 4.900000 5.100000 5.300000 5.500000 5.700000 5.900000 6.100000 6.300000 6.500000 6.700000 6.900000 7.100000 7.300000 7.500000 7.700000 7.900000 8.100000 8.300000 8.500000 8.700000 8.900000 9.100000 9.300000 9.500000 9.700000 9.900000 
Z_COORDINATES 1 double
0.0
POINT_DATA 2500
SCALARS Skalarfeld double 1
LOOKUP_TABLE default
-0.011828
-0.011839
-0.011788
-0.011663
-0.011463
-0.011189
-0.010840
-0.010415
-0.009915
-0.009339
-0.008686
-0.007955
-0.007147
-0.006260
-0.005294
-0.004249
-0.003124
-0.001921
-0.000639
0.000721
0.002156
0.003666
0.005248
0.006899
0.008615
0.010391
0.012223
0.014103
0.016025
0.017981
0.019962
0.021956
0.023953
0.025941
0.027906
0.029836
0.031714
0.033528
0.035260
0.036897
0.038422
0.039822
0.041081
0.042187
0.043128
0.043894
0.044476
0.044867
0.045068
0.045098
-0.011818
-0.011828
-0.011772
-0.011645
-0.011444
-0.011170
-0.010822
-0.010398
-0.009900
-0.009326
-0.008675
-0.007946
-0.007140
-0.006255
-0.005292
-0.004249
-0.003127
-0.001927
-0.000647
0.000710
0.002143
0.003650
0.005230
0.006878
0.008592
0.010367
0.012197
0.014077
0.015999
0.017954
0.019935
0.021930
0.023928
0.025918
0.027885
0.029817
0.031699
0.033515
0.035252
0.036892
0.038420
0.039823
0.041086
0.042195
0.043139
0.043908
0.044493
0.044889
0.045097
0.045127
-0.011872
-0.011889
-0.011833
-0.011705
-0.011505
-0.011231
-0.010884
-0.010463
-0.009967
-0.009394
-0.008746
-0.008020
-0.007216
-0.006334
-0.005373
-0.004333
-0.003214
-0.002015
-0.000737
0.000619
0.002051
0.003559
0.005139
0.006790
0.008506
0.010285
0.012120
0.014006
0.015935
0.017899
0.019890
0.021896
0.023908
0.025911
0.027894
0.029842
0.031741
0.033575
0.035329
0.036987
0.038533
0.039952
0.041230
0.042353
0.043310
0.044089
0.044682
0.045084
0.045294
0.045317
-0.012007
-0.012028
-0.011973
-0.011846
-0.011647
-0.011375
-0.011030
-0.010611
-0.010118
-0.009548
-0.008902
-0.008179
-0.007379
-0.006499
-0.005541
-0.004503
-0.003385
-0.002187
-0.000910
0.000446
0.001881
0.003391
0.004975
0.006631
0.008355
0.010143
0.011990
0.013889
0.015833
0.017816
0.019826
0.021855
0.023891
0.025921
0.027932
0.029910
0.031840
0.033705
0.035491
0.037180
0.038757
0.040206
0.041511
0.042659
0.043637
0.044434
0.045041
0.045452
0.045666
0.045685
-0.012226
-0.012248
-0.012196
-0.012070
-0.011873
-0.011603
-0.011261
-0.010845
-0.010354
-0.009787
-0.009145
-0.008425
-0.007628
-0.006751
-0.005795
-0.004759
-0.003642
-0.002445
-0.001166
0.000192
0.001630
0.003145
0.004737
0.006403
0.008139
0.009941
0.011805
0.013724
0.015693
0.017701
0.019742
0.021804
0.023876
0.025945
0.027997
0.030019
0.031994
0.033906
0.035738
0.037473
0.039095
0.040586
0.041931
0.043114
0.044123
0.044945
0.045572
0.045996
0.046216
0.046234
-0.012528
-0.012552
-0.012501
-0.012377
-0.012182
-0.011915
-0.011576
-0.011163
-0.010675
-0.010113
-0.009474
-0.008758
-0.007964
-0.007090
-0.006137
-0.005102
-0.003986
-0.002788
-0.001508
-0.000146
0.001297
0.002820
0.004423
0.006101
0.007854
0.009676
0.011563
0.013510
0.015509
0.017554
0.019634
0.021740
0.023860
0.025980
0.028088
0.030167
0.032202
0.034175
0.036069
0.037865
0.039546
0.041093
0.042490
0.043721
0.044771
0.045628
0.046280
0.046722
0.046950
0.046970
-0.012913
-0.012938
-0.012889
-0.012768
-0.012575
-0.012311
-0.011975
-0.011566
-0.011083
-0.010524
-0.009890
-0.009178
-0.008388
-0.007518
-0.006567
-0.005534
-0.004419
-0.003220
-0.001937
-0.000571
0.000880
0.002413
0.004028
0.005724
0.007497
0.009343
0.011260
0.013241
0.015280
0.017369
0.019499
0.021659
0.023839
0.026024
0.028201
0.030352
0.032462
0.034512
0.036483
0.038356
0.040112
0.041731
0.043194
0.044485
0.045587
0.046486
0.047172
0.047636
0.047876
0.047898
-0.013380
-0.013406
-0.013359
-0.013240
-0.013051
-0.012791
-0.012459
-0.012054
-0.011576
-0.011023
-0.010393
-0.009686
-0.008900
-0.008034
-0.007086
-0.006056
-0.004941
-0.003741
-0.002456
-0.001084
0.000375
0.001920
0.003551
0.005266
0.007062
0.008938
0.010890
0.012911
0.014997
0.017139
0.019329
0.021555
0.023807
0.026071
0.028330
0.030570
0.032771
0.034915
0.036981
0.038948
0.040796
0.042502
0.044047
0.045411
0.046577
0.047530
0.048256
0.048748
0.049003
0.049026
-0.013928
-0.013957
-0.013911
-0.013796
-0.013610
-0.013354
-0.013027
-0.012628
-0.012155
-0.011608
-0.010984
-0.010283
-0.009503
-0.008641
-0.007698
-0.006670
-0.005556
-0.004356
-0.003067
-0.001689
-0.000221
0.001337
0.002984
0.004721
0.006546
0.008455
0.010446
0.012514
0.014654
0.016858
0.019117
0.021421
0.023757
0.026113
0.028471
0.030815
0.033125
0.035381
0.037560
0.039640
0.041598
0.043410
0.045053
0.046506
0.047750
0.048767
0.049542
0.050068
0.050341
0.050367
-0.014558
-0.014588
-0.014546
-0.014434
-0.014252
-0.014001
-0.013680
-0.013286
-0.012820
-0.012280
-0.011664
-0.010969
-0.010196
-0.009340
-0.008402
-0.007378
-0.006266
-0.005066
-0.003775
-0.002391
-0.000914
0.000658
0.002324
0.004085
0.005939
0.007885
0.009921
0.012041
0.014242
0.016516
0.018854
0.021246
0.023680
0.026142
0.028615
0.031081
0.033518
0.035906
0.038219
0.040433
0.042521
0.044459
0.046219
0.047779
0.049115
0.050209
0.051043
0.051609
0.051904
0.051934
-0.015269
-0.015301
-0.015261
-0.015153
-0.014976
-0.014731
-0.014416
-0.014030
-0.013572
-0.013040
-0.012432
-0.011746
-0.010981
-0.010133
-0.009201
-0.008182
-0.007074
-0.005875
-0.004582
-0.003194
-0.001708
-0.000123
0.001562
0.003348
0.005235
0.007221
0.009305
0.011483
0.013750
0.016102
0.018529
0.021021
0.023566
0.026149
0.028753
0.031359
0.033944
0.036485
0.038954
0.041325
0.043567
0.045653
0.047552
0.049237
0.050684
0.051868
0.052774
0.053387
0.053707
0.053741
-0.016059
-0.016094
-0.016058
-0.015954
-0.015783
-0.015544
-0.015237
-0.014859
-0.014410
-0.013888
-0.013290
-0.012615
-0.011859
-0.011021
-0.010097
-0.009086
-0.007983
-0.006787
-0.005495
-0.004103
-0.002609
-0.001011
0.000693
0.002504
0.004424
0.006452
0.008587
0.010826
0.013167
0.015604
0.018129
0.020732
0.023401
0.026121
0.028874
0.031639
0.034394
0.037111
0.039762
0.042314
0.044737
0.046996
0.049059
0.050893
0.052469
0.053762
0.054750
0.055420
0.055769
0.055808
-0.016929
-0.016967
-0.016934
-0.016835
-0.016670
-0.016439
-0.016141
-0.015773
-0.015335
-0.014824
-0.014238
-0.013575
-0.012832
-0.012005
-0.011093
-0.010091
-0.008996
-0.007806
-0.006516
-0.005122
-0.003623
-0.002014
-0.000293
0.001544
0.003496
0.005567
0.007755
0.010060
0.012479
0.015007
0.017638
0.020363
0.023169
0.026042
0.028962
0.031909
0.034856
0.037776
0.040635
0.043400
0.046032
0.048494
0.050748
0.052757
0.054486
0.055906
0.056991
0.057728
0.058112
0.058157
-0.017878
-0.017918
-0.017890
-0.017797
-0.017639
-0.017417
-0.017128
-0.016772
-0.016347
-0.015849
-0.015277
-0.014629
-0.013900
-0.013088
-0.012189
-0.011200
-0.010117
-0.008935
-0.007650
-0.006259
-0.004757
-0.003140
-0.001403
0.000456
0.002441
0.004553
0.006796
0.009168
0.011668
0.014294
0.017040
0.019896
0.022853
0.025894
0.029001
0.032151
0.035317
0.038467
0.041567
0.044575
0.047451
0.050151
0.052629
0.054843
0.056752
0.058321
0.059522
0.060336
0.060761
0.060813
-0.018904
-0.018947
-0.018924
-0.018837
-0.018688
-0.018475
-0.018199
-0.017856
-0.017444
-0.016963
-0.016408
-0.015776
-0.015065
-0.014271
-0.013389
-0.012416
-0.011348
-0.010179
-0.008904
-0.007519
-0.006018
-0.004396
-0.002648
-0.000769
0.001245
0.003398
0.005694
0.008133
0.010718
0.013445
0.016311
0.019310
0.022429
0.025655
0.028968
0.032346
0.035758
0.039171
0.042544
0.045835
0.048993
0.051969
0.054710
0.057165
0.059286
0.061031
0.062367
0.063272
0.063745
0.063804
-0.020006
-0.020053
-0.020035
-0.019955
-0.019815
-0.019614
-0.019351
-0.019023
-0.018628
-0.018165
-0.017629
-0.017018
-0.016328
-0.015555
-0.014695
-0.013742
-0.012693
-0.011541
-0.010281
-0.008907
-0.007413
-0.005792
-0.004037
-0.002144
-0.000104
0.002086
0.004432
0.006938
0.009606
0.012437
0.015430
0.018578
0.021871
0.025298
0.028838
0.032467
0.036155
0.039865
0.043552
0.047167
0.050653
0.053951
0.057000
0.059739
0.062110
0.064063
0.065557
0.066569
0.067097
0.067164
-0.021184
-0.021234
-0.021222
-0.021150
-0.021021
-0.020832
-0.020584
-0.020273
-0.019897
-0.019455
-0.018941
-0.018354
-0.017689
-0.016941
-0.016107
-0.015180
-0.014156
-0.013027
-0.011787
-0.010431
-0.008949
-0.007335
-0.005581
-0.003679
-0.001621
0.000600
0.002992
0.005561
0.008311
0.011246
0.014367
0.017671
0.021149
0.024791
0.028577
0.032485
0.036481
0.040525
0.044569
0.048556
0.052421
0.056096
0.059507
0.062581
0.065247
0.067446
0.069127
0.070264
0.070855
0.070931
-0.022434
-0.022489
-0.022483
-0.022421
-0.022303
-0.022129
-0.021897
-0.021605
-0.021251
-0.020832
-0.020345
-0.019785
-0.019149
-0.018431
-0.017628
-0.016732
-0.015738
-0.014639
-0.013427
-0.012095
-0.010635
-0.009036
-0.007291
-0.005389
-0.003320
-0.001076
0.001355
0.003980
0.006807
0.009843
0.013091
0.016554
0.020225
0.024095
0.028147
0.032358
0.036695
0.041115
0.045565
0.049980
0.054286
0.058401
0.062238
0.065707
0.068724
0.071214
0.073117
0.074400
0.075064
0.075149
-0.023757
-0.023816
-0.023817
-0.023765
-0.023660
-0.023501
-0.023288
-0.023018
-0.022688
-0.022296
-0.021838
-0.021310
-0.020707
-0.020025
-0.019258
-0.018400
-0.017443
-0.016381
-0.015205
-0.013906
-0.012476
-0.010903
-0.009176
-0.007285
-0.005217
-0.002960
-0.000502
0.002170
0.005066
0.008196
0.011568
0.015189
0.019057
0.023165
0.027500
0.032040
0.036753
0.041593
0.046501
0.051407
0.056224
0.060855
0.065195
0.069135
0.072569
0.075406
0.077571
0.079025
0.079773
0.079867
-0.025149
-0.025213
-0.025222
-0.025180
-0.025089
-0.024948
-0.024756
-0.024510
-0.024207
-0.023845
-0.023420
-0.022928
-0.022364
-0.021723
-0.020998
-0.020184
-0.019272
-0.018255
-0.017124
-0.015869
-0.014479
-0.012943
-0.011248
-0.009381
-0.007327
-0.005071
-0.002599
0.000105
0.003057
0.006270
0.009758
0.013530
0.017595
0.021947
0.026579
0.031471
0.036593
0.041898
0.047325
0.052793
0.058203
0.063440
0.068376
0.072877
0.076813
0.080064
0.082541
0.084195
0.085039
0.085141
-0.026608
-0.026678
-0.026695
-0.026665
-0.026590
-0.026468
-0.026298
-0.026078
-0.025806
-0.025478
-0.025090
-0.024638
-0.024118
-0.023523
-0.022848
-0.022085
-0.021227
-0.020264
-0.019188
-0.017988
-0.016651
-0.015166
-0.013516
-0.011688
-0.009665
-0.007429
-0.004961
-0.002242
0.000748
0.004027
0.007615
0.011527
0.015781
0.020377
0.025313
0.030576
0.036139
0.041958
0.047966
0.054075
0.060173
0.066123
0.071769
0.076945
0.081484
0.085235
0.088084
0.089974
0.090924
0.091030
-0.028133
-0.028208
-0.028234
-0.028217
-0.028158
-0.028057
-0.027912
-0.027722
-0.027482
-0.027191
-0.026845
-0.026438
-0.025967
-0.025425
-0.024806
-0.024102
-0.023306
-0.022409
-0.021399
-0.020266
-0.018996
-0.017576
-0.015989
-0.014219
-0.012246
-0.010050
-0.007608
-0.004898
-0.001895
0.001428
0.005093
0.009126
0.013550
0.018380
0.023621
0.029267
0.035298
0.041674
0.048329
0.055168
0.062063
0.068853
0.075349
0.081340
0.086612
0.090970
0.094266
0.096430
0.097498
0.097600
-0.029720
-0.029801
-0.029837
-0.029833
-0.029792
-0.029714
-0.029596
-0.029437
-0.029234
-0.028983
-0.028682
-0.028326
-0.027909
-0.027426
-0.026871
-0.026235
-0.025511
-0.024688
-0.023757
-0.022705
-0.021517
-0.020179
-0.018674
-0.016982
-0.015083
-0.012952
-0.010564
-0.007892
-0.004904
-0.001571
0.002141
0.006263
0.010829
0.015872
0.021405
0.027433
0.033950
0.040922
0.048289
0.055951
0.063767
0.071548
0.079063
0.086046
0.092218
0.097320
0.101157
0.103641
0.104832
0.104918
-0.031366
-0.031454
-0.031500
-0.031511
-0.031489
-0.031434
-0.031345
-0.031220
-0.031056
-0.030850
-0.030599
-0.030297
-0.029940
-0.029523
-0.029039
-0.028480
-0.027837
-0.027101
-0.026261
-0.025304
-0.024215
-0.022979
-0.021576
-0.019986
-0.018186
-0.016150
-0.013848
-0.011248
-0.008316
-0.005011
-0.001295
0.002875
0.007543
0.012756
0.018551
0.024945
0.031948
0.039542
0.047678
0.056258
0.065131
0.074080
0.082823
0.091022
0.098310
0.104337
0.108833
0.111689
0.113001
0.113046
-0.033069
-0.033163
-0.033220
-0.033246
-0.033245
-0.033216
-0.033158
-0.033069
-0.032947
-0.032788
-0.032590
-0.032348
-0.032057
-0.031712
-0.031307
-0.030833
-0.030282
-0.029644
-0.028909
-0.028062
-0.027090
-0.025975
-0.024697
-0.023236
-0.021565
-0.019656
-0.017477
-0.014991
-0.012159
-0.008934
-0.005268
-0.001107
0.003606
0.008927
0.014930
0.021648
0.029113
0.037332
0.046276
0.055861
0.065933
0.076251
0.086475
0.096177
0.104866
0.112057
0.117371
0.120658
0.122073
0.122031
-0.034825
-0.034927
-0.034995
-0.035037
-0.035057
-0.035054
-0.035029
-0.034978
-0.034900
-0.034793
-0.034652
-0.034474
-0.034254
-0.033988
-0.033668
-0.033288
-0.032839
-0.032312
-0.031695
-0.030975
-0.030137
-0.029164
-0.028036
-0.026731
-0.025221
-0.023477
-0.021463
-0.019140
-0.016461
-0.013377
-0.009828
-0.005749
-0.001071
0.004283
0.010396
0.017362
0.025227
0.034036
0.043793
0.054446
0.065852
0.077756
0.089762
0.101329
0.111800
0.120487
0.126837
0.130623
0.132094
0.131887
-0.036631
-0.036741
-0.036821
-0.036880
-0.036921
-0.036946
-0.036954
-0.036944
-0.036913
-0.036859
-0.036778
-0.036669
-0.036526
-0.036344
-0.036117
-0.035840
-0.035502
-0.035097
-0.034611
-0.034034
-0.033350
-0.032541
-0.031589
-0.030469
-0.029155
-0.027615
-0.025813
-0.023705
-0.021244
-0.018370
-0.015019
-0.011116
-0.006574
-0.001300
0.004811
0.011885
0.020037
0.029341
0.039857
0.051584
0.064423
0.078126
0.092255
0.106141
0.118904
0.129560
0.137259
0.141634
0.143064
0.142551
-0.038485
-0.038603
-0.038695
-0.038770
-0.038834
-0.038888
-0.038931
-0.038961
-0.038979
-0.038980
-0.038964
-0.038926
-0.038863
-0.038772
-0.038645
-0.038478
-0.038262
-0.037989
-0.037649
-0.037230
-0.036718
-0.036096
-0.035344
-0.034441
-0.033359
-0.032066
-0.030525
-0.028692
-0.026516
-0.023935
-0.020877
-0.017259
-0.012981
-0.007932
-0.001981
0.005015
0.013251
0.022870
0.033994
0.046705
0.060987
0.076649
0.093245
0.109988
0.125723
0.139028
0.148567
0.153671
0.154891
0.153826
-0.040383
-0.040510
-0.040614
-0.040706
-0.040793
-0.040875
-0.040953
-0.041025
-0.041092
-0.041151
-0.041201
-0.041238
-0.041260
-0.041263
-0.041242
-0.041192
-0.041106
-0.040977
-0.040795
-0.040550
-0.040227
-0.039813
-0.039288
-0.038632
-0.037818
-0.036815
-0.035588
-0.034093
-0.032277
-0.030078
-0.027420
-0.024215
-0.020354
-0.015710
-0.010130
-0.003438
0.004570
0.014191
0.025624
0.039061
0.054620
0.072245
0.091564
0.111730
0.131292
0.148238
0.160421
0.166545
0.167305
0.165281
-0.042323
-0.042459
-0.042575
-0.042684
-0.042792
-0.042903
-0.043016
-0.043131
-0.043248
-0.043365
-0.043482
-0.043596
-0.043705
-0.043807
-0.043897
-0.043970
-0.044022
-0.044046
-0.044034
-0.043975
-0.043860
-0.043674
-0.043400
-0.043020
-0.042510
-0.041842
-0.040981
-0.039886
-0.038509
-0.036787
-0.034646
-0.031997
-0.028728
-0.024703
-0.019756
-0.013683
-0.006242
0.002858
0.014071
0.027709
0.044067
0.063323
0.085319
0.109303
0.133625
0.155583
0.171792
0.179642
0.179710
0.176189
-0.044303
-0.044449
-0.044576
-0.044701
-0.044831
-0.044969
-0.045116
-0.045272
-0.045439
-0.045614
-0.045799
-0.045991
-0.046190
-0.046392
-0.046596
-0.046799
-0.046995
-0.047179
-0.047346
-0.047487
-0.047594
-0.047654
-0.047654
-0.047578
-0.047405
-0.047112
-0.046668
-0.046037
-0.045175
-0.044027
-0.042525
-0.040584
-0.038099
-0.034937
-0.030929
-0.025866
-0.019480
-0.011439
-0.001331
0.011533
0.027697
0.047612
0.071525
0.099051
0.128679
0.157235
0.179772
0.191194
0.190914
0.185778
-0.046323
-0.046478
-0.046617
-0.046756
-0.046905
-0.047069
-0.047248
-0.047444
-0.047659
-0.047892
-0.048143
-0.048413
-0.048702
-0.049007
-0.049328
-0.049662
-0.050006
-0.050358
-0.050712
-0.051062
-0.051403
-0.051725
-0.052018
-0.052269
-0.052464
-0.052582
-0.052601
-0.052492
-0.052220
-0.051739
-0.050994
-0.049916
-0.048414
-0.046373
-0.043646
-0.040040
-0.035303
-0.029105
-0.021013
-0.010467
0.003545
0.022063
0.045691
0.074757
0.108577
0.144500
0.176543
0.196024
0.198601
0.194073
-0.048381
-0.048547
-0.048696
-0.048848
-0.049014
-0.049200
-0.049408
-0.049641
-0.049901
-0.050189
-0.050505
-0.050852
-0.051229
-0.051637
-0.052074
-0.052542
-0.053038
-0.053560
-0.054106
-0.054674
-0.055258
-0.055853
-0.056454
-0.057053
-0.057639
-0.058200
-0.058721
-0.059184
-0.059565
-0.059834
-0.059956
-0.059883
-0.059555
-0.058894
-0.057797
-0.056128
-0.053705
-0.050277
-0.045504
-0.038911
-0.029849
-0.017050
0.001642
0.026839
0.059745
0.100653
0.145004
0.181067
0.197324
0.200360
-0.050481
-0.050658
-0.050816
-0.050977
-0.051156
-0.051360
-0.051593
-0.051858
-0.052159
-0.052497
-0.052875
-0.053295
-0.053759
-0.054267
-0.054821
-0.055421
-0.056069
-0.056763
-0.057504
-0.058292
-0.059125
-0.060002
-0.060921
-0.061880
-0.062874
-0.063901
-0.064954
-0.066026
-0.067111
-0.068198
-0.069275
-0.070328
-0.071339
-0.072287
-0.073145
-0.073878
-0.074443
-0.074781
-0.074813
-0.074424
-0.073437
-0.071514
-0.067565
-0.056463
-0.035359
0.003298
0.060650
0.124062
0.171984
0.192703
-0.052627
-0.052815
-0.052978
-0.053145
-0.053331
-0.053547
-0.053799
-0.054091
-0.054426
-0.054809
-0.055244
-0.055732
-0.056277
-0.056882
-0.057549
-0.058280
-0.059077
-0.059943
-0.060879
-0.061887
-0.062971
-0.064132
-0.065374
-0.066699
-0.068111
-0.069615
-0.071216
-0.072922
-0.074742
-0.076689
-0.078781
-0.081045
-0.083515
-0.086246
-0.089314
-0.092833
-0.096976
-0.102006
-0.108334
-0.116605
-0.127792
-0.143036
-0.162429
-0.182222
-0.187439
-0.160744
-0.092605
0.004426
0.096974
0.142814
-0.054825
-0.055025
-0.055191
-0.055356
-0.055542
-0.055763
-0.056024
-0.056333
-0.056696
-0.057116
-0.057599
-0.058150
-0.058771
-0.059467
-0.060242
-0.061098
-0.062041
-0.063073
-0.064200
-0.065426
-0.066757
-0.068200
-0.069763
-0.071453
-0.073283
-0.075266
-0.077418
-0.079763
-0.082327
-0.085150
-0.088280
-0.091790
-0.095775
-0.100376
-0.105794
-0.112330
-0.120437
-0.130826
-0.144635
-0.163731
-0.191047
-0.230228
-0.282717
-0.341239
-0.385077
-0.378058
-0.304581
-0.178247
-0.042692
0.029560
-0.057087
-0.057299
-0.057463
-0.057618
-0.057794
-0.058007
-0.058267
-0.058583
-0.058961
-0.059409
-0.059932
-0.060535
-0.061225
-0.062004
-0.062879
-0.063855
-0.064936
-0.066129
-0.067440
-0.068876
-0.070448
-0.072165
-0.074039
-0.076086
-0.078324
-0.080775
-0.083467
-0.086437
-0.089731
-0.093411
-0.097561
-0.102295
-0.107772
-0.114222
-0.121978
-0.131539
-0.143672
-0.159600
-0.181337
-0.212263
-0.257707
-0.324120
-0.413749
-0.514371
-0.594457
-0.608966
-0.537308
-0.395415
-0.231235
-0.137641
-0.059431
-0.059656
-0.059809
-0.059943
-0.060094
-0.060285
-0.060528
-0.060836
-0.061217
-0.061679
-0.062230
-0.062876
-0.063623
-0.064477
-0.065444
-0.066529
-0.067740
-0.069083
-0.070568
-0.072205
-0.074006
-0.075983
-0.078156
-0.080542
-0.083169
-0.086065
-0.089270
-0.092833
-0.096817
-0.101307
-0.106413
-0.112292
-0.119157
-0.127318
-0.137226
-0.149559
-0.165369
-0.186349
-0.215320
-0.257018
-0.318796
-0.409156
-0.530207
-0.664742
-0.771983
-0.803313
-0.739178
-0.598886
-0.427138
-0.322548
-0.061883
-0.062121
-0.062253
-0.062347
-0.062453
-0.062601
-0.062808
-0.063089
-0.063455
-0.063917
-0.064482
-0.065159
-0.065952
-0.066869
-0.067917
-0.069101
-0.070430
-0.071912
-0.073559
-0.075381
-0.077395
-0.079616
-0.082065
-0.084768
-0.087755
-0.091064
-0.094742
-0.098849
-0.103461
-0.108681
-0.114644
-0.121534
-0.129609
-0.139235
-0.150949
-0.165552
-0.184291
-0.209158
-0.243455
-0.292635
-0.364933
-0.469401
-0.607417
-0.759050
-0.878914
-0.918779
-0.864822
-0.741033
-0.583212
-0.480708
-0.064481
-0.064730
-0.064824
-0.064853
-0.064886
-0.064963
-0.065107
-0.065338
-0.065669
-0.066112
-0.066676
-0.067368
-0.068195
-0.069163
-0.070279
-0.071549
-0.072984
-0.074591
-0.076384
-0.078376
-0.080582
-0.083025
-0.085726
-0.088715
-0.092028
-0.095707
-0.099806
-0.104393
-0.109555
-0.115405
-0.122093
-0.129821
-0.138871
-0.149639
-0.162697
-0.178898
-0.199541
-0.226676
-0.263610
-0.315630
-0.390341
-0.495554
-0.631522
-0.779008
-0.894912
-0.935599
-0.892339
-0.794243
-0.666494
-0.578258
-0.067281
-0.067539
-0.067568
-0.067495
-0.067414
-0.067381
-0.067429
-0.067580
-0.067851
-0.068254
-0.068798
-0.069490
-0.070336
-0.071341
-0.072512
-0.073856
-0.075382
-0.077099
-0.079020
-0.081161
-0.083540
-0.086178
-0.089101
-0.092342
-0.095939
-0.099938
-0.104399
-0.109393
-0.115013
-0.121377
-0.128641
-0.137013
-0.146777
-0.158326
-0.172224
-0.189290
-0.210746
-0.238458
-0.275306
-0.325672
-0.395218
-0.488799
-0.606000
-0.730812
-0.826259
-0.859379
-0.829364
-0.760552
-0.668724
-0.602453
-0.070366
-0.070627
-0.070548
-0.070314
-0.070061
-0.069866
-0.069772
-0.069807
-0.069988
-0.070328
-0.070832
-0.071508
-0.072358
-0.073387
-0.074600
-0.076003
-0.077604
-0.079414
-0.081446
-0.083715
-0.086241
-0.089046
-0.092159
-0.095614
-0.099449
-0.103716
-0.108473
-0.113795
-0.119777
-0.126534
-0.134222
-0.143039
-0.153255
-0.165237
-0.179496
-0.196756
-0.218066
-0.244961
-0.279618
-0.324764
-0.384348
-0.461273
-0.553421
-0.646738
-0.712532
-0.729729
-0.702727
-0.659103
-0.602962
-0.560822
-0.073866
-0.074115
-0.073855
-0.073368
-0.072857
-0.072427
-0.072134
-0.072008
-0.072066
-0.072316
-0.072762
-0.073404
-0.074244
-0.075283
-0.076525
-0.077973
-0.079635
-0.081521
-0.083644
-0.086019
-0.088666
-0.091609
-0.094877
-0.098504
-0.102531
-0.107009
-0.111996
-0.117567
-0.123813
-0.130847
-0.138812
-0.147892
-0.158328
-0.170442
-0.184666
-0.201596
-0.222060
-0.246998
-0.277850
-0.316524
-0.365001
-0.424178
-0.490848
-0.553376
-0.591401
-0.592845
-0.564974
-0.531954
-0.500125
-0.473311
-0.077983
-0.078186
-0.077615
-0.076728
-0.075831
-0.075067
-0.074503
-0.074165
-0.074064
-0.074198
-0.074565
-0.075160
-0.075977
-0.077014
-0.078272
-0.079752
-0.081460
-0.083404
-0.085598
-0.088056
-0.090799
-0.093850
-0.097237
-0.100996
-0.105167
-0.109799
-0.114952
-0.120695
-0.127115
-0.134317
-0.142431
-0.151618
-0.162087
-0.174103
-0.188014
-0.204278
-0.223319
-0.245830
-0.272716
-0.304891
-0.343028
-0.386634
-0.432089
-0.470260
-0.487478
-0.476784
-0.446020
-0.414830
-0.385556
-0.355592
-0.083062
-0.083137
-0.082010
-0.080475
-0.079001
-0.077774
-0.076851
-0.076246
-0.075949
-0.075945
-0.076218
-0.076753
-0.077537
-0.078563
-0.079826
-0.081326
-0.083066
-0.085052
-0.087298
-0.089817
-0.092629
-0.095757
-0.099229
-0.103080
-0.107348
-0.112082
-0.117338
-0.123183
-0.129696
-0.136974
-0.145131
-0.154306
-0.164673
-0.176445
-0.189890
-0.205253
-0.222794
-0.242998
-0.266259
-0.292859
-0.322659
-0.354431
-0.384650
-0.406297
-0.410153
-0.391516
-0.356859
-0.318458
-0.266349
-0.202804
-0.089732
-0.089462
-0.087283
-0.084679
-0.082353
-0.080501
-0.079127
-0.078200
-0.077678
-0.077519
-0.077689
-0.078157
-0.078902
-0.079909
-0.081169
-0.082679
-0.084437
-0.086450
-0.088728
-0.091287
-0.094143
-0.097319
-0.100843
-0.104748
-0.109071
-0.113859
-0.119164
-0.125049
-0.131590
-0.138871
-0.146997
-0.156081
-0.166268
-0.177732
-0.190647
-0.205106
-0.221376
-0.239650
-0.260036
-0.282442
-0.306315
-0.330156
-0.350770
-0.362670
-0.359230
-0.336369
-0.296359
-0.234979
-0.118084
0.029071
-0.099277
-0.098029
-0.093724
-0.089338
-0.085790
-0.083145
-0.081233
-0.079941
-0.079173
-0.078852
-0.078915
-0.079313
-0.080015
-0.080997
-0.082248
-0.083759
-0.085524
-0.087547
-0.089840
-0.092418
-0.095297
-0.098496
-0.102044
-0.105973
-0.110317
-0.115121
-0.120435
-0.126319
-0.132843
-0.140087
-0.148150
-0.157111
-0.167095
-0.178235
-0.190658
-0.204467
-0.219784
-0.236678
-0.255099
-0.274766
-0.294951
-0.314121
-0.329422
-0.336285
-0.329254
-0.304046
-0.251452
-0.132518
0.134036
0.458825
-0.114976
-0.110555
-0.101523
-0.094214
-0.089001
-0.085443
-0.082908
-0.081207
-0.080174
-0.079688
-0.079643
-0.079970
-0.080625
-0.081578
-0.082813
-0.084325
-0.086084
-0.088101
-0.090399
-0.092985
-0.095875
-0.099088
-0.102648
-0.106584
-0.110934
-0.115739
-0.121048
-0.126920
-0.133418
-0.140620
-0.148609
-0.157473
-0.167315
-0.178246
-0.190370
-0.203773
-0.218520
-0.234613
-0.251918
-0.270060
-0.288226
-0.304873
-0.317309
-0.321231
-0.311377
-0.278232
-0.184697
0.069607
0.636856
1.339910
-0.145367
-0.128945
-0.110361
-0.097835
-0.090198
-0.085691
-0.082398
-0.080401
-0.079251
-0.078675
-0.078583
-0.078896
-0.079556
-0.080529
-0.081791
-0.083328
-0.085125
-0.087186
-0.089524
-0.092150
-0.095079
-0.098331
-0.101928
-0.105901
-0.110285
-0.115122
-0.120460
-0.126355
-0.132873
-0.140085
-0.148073
-0.156925
-0.166736
-0.177606
-0.189629
-0.202877
-0.217389
-0.233124
-0.249892
-0.267237
-0.284235
-0.299201
-0.309137
-0.309106
-0.291444
-0.219924
-0.014645
0.511306
1.600992
3.016824
-0.248289
-0.110864
-0.082177
-0.074050
-0.070968
-0.069669
-0.069010
-0.068901
-0.069179
-0.069735
-0.070553
-0.071615
-0.072905
-0.074414
-0.076138
-0.078077
-0.080231
-0.082609
-0.085230
-0.088111
-0.091271
-0.094733
-0.098523
-0.102674
-0.107223
-0.112213
-0.117695
-0.123725
-0.130368
-0.137699
-0.145796
-0.154749
-0.164651
-0.175596
-0.187673
-0.200943
-0.215426
-0.231050
-0.247568
-0.264434
-0.280540
-0.293802
-0.299873
-0.289540
-0.235502
-0.080749
0.308692
1.192999
2.874992
5.123670
