# vtk DataFile Version 3.0
Vector Field
ASCII
DATASET RECTILINEAR_GRID
DIMENSIONS 50 50 1
X_COORDINATES 50 double
0.100000 0.300000 0.500000 0.700000 0.900000 1.100000 1.300000 1.500000 1.700000 1.900000 2.100000 2.300000 2.500000 2.700000 2.900000 3.100000 3.300000 3.500000 3.700000 3.900000 4.100000 4.300000 4.500000 4.700000 4.900000 5.100000 5.300000 5.500000 5.700000 5.900000 6.100000 6.300000 6.500000 6.700000 6.900000 7.100000 7.300000 7.500000 7.700000 7.900000 8.100000 8.300000 8.500000 8.700000 8.900000 9.100000 9.300000 9.500000 9.700000 9.900000 
Y_COORDINATES 50 double
0.100000 0.300000 0.500000 0.700000 0.900000 1.100000 1.300000 1.500000 1.700000 1.900000 2.100000 2.300000 2.500000 2.700000 2.900000 3.100000 3.300000 3.500000 3.700000 3.900000 4.100000 4.300000 4.500000 4.700000 4.900000 5.100000 5.300000 5.500000 5.700000 5.900000 6.100000 6.300000 6.500000 6.700000 6.900000 7.100000 7.300000 7.500000 7.700000 7.900000 8.100000 8.300000 8.500000 8.700000 8.900000 9.100000 9.300000 9.500000 9.700000 9.900000 
Z_COORDINATES 1 double
0.0
POINT_DATA 2500
VECTORS Vektorfeld double
-0.000243 0.000243 0.0
-0.001159 0.000673 0.0
-0.002713 0.000882 0.0
-0.004558 0.000962 0.0
-0.006509 0.000989 0.0
-0.008498 0.000999 0.0
-0.010504 0.001007 0.0
-0.012528 0.001017 0.0
-0.014574 0.001029 0.0
-0.016644 0.001042 0.0
-0.018744 0.001058 0.0
-0.020876 0.001074 0.0
-0.023040 0.001091 0.0
-0.025239 0.001108 0.0
-0.027471 0.001124 0.0
-0.029735 0.001140 0.0
-0.032029 0.001154 0.0
-0.034348 0.001165 0.0
-0.036686 0.001173 0.0
-0.039034 0.001175 0.0
-0.041381 0.001172 0.0
-0.043712 0.001160 0.0
-0.046011 0.001139 0.0
-0.048256 0.001106 0.0
-0.050420 0.001059 0.0
-0.052474 0.000995 0.0
-0.054382 0.000913 0.0
-0.056105 0.000810 0.0
-0.057600 0.000684 0.0
-0.058819 0.000535 0.0
-0.059714 0.000360 0.0
-0.060236 0.000162 0.0
-0.060340 -0.000058 0.0
-0.059979 -0.000304 0.0
-0.059102 -0.000573 0.0
-0.057671 -0.000858 0.0
-0.055661 -0.001152 0.0
-0.053063 -0.001446 0.0
-0.049888 -0.001730 0.0
-0.046164 -0.001994 0.0
-0.041938 -0.002231 0.0
-0.037276 -0.002431 0.0
-0.032256 -0.002588 0.0
-0.026973 -0.002694 0.0
-0.021539 -0.002740 0.0
-0.016093 -0.002707 0.0
-0.010830 -0.002556 0.0
-0.006069 -0.002206 0.0
-0.002342 -0.001521 0.0
-0.000410 -0.000410 0.0
-0.000713 0.001199 0.0
-0.002880 0.002799 0.0
-0.006155 0.003585 0.0
-0.009962 0.003910 0.0
-0.014001 0.004032 0.0
-0.018139 0.004083 0.0
-0.022327 0.004117 0.0
-0.026549 0.004153 0.0
-0.030806 0.004194 0.0
-0.035100 0.004241 0.0
-0.039434 0.004292 0.0
-0.043809 0.004346 0.0
-0.048227 0.004400 0.0
-0.052683 0.004453 0.0
-0.057175 0.004503 0.0
-0.061697 0.004547 0.0
-0.066239 0.004582 0.0
-0.070788 0.004605 0.0
-0.075330 0.004611 0.0
-0.079842 0.004597 0.0
-0.084299 0.004555 0.0
-0.088672 0.004481 0.0
-0.092922 0.004367 0.0
-0.097007 0.004206 0.0
-0.100875 0.003991 0.0
-0.104471 0.003712 0.0
-0.107729 0.003362 0.0
-0.110580 0.002934 0.0
-0.112947 0.002422 0.0
-0.114752 0.001821 0.0
-0.115913 0.001130 0.0
-0.116348 0.000350 0.0
-0.115977 -0.000513 0.0
-0.114723 -0.001464 0.0
-0.112526 -0.002486 0.0
-0.109345 -0.003557 0.0
-0.105158 -0.004650 0.0
-0.099969 -0.005735 0.0
-0.093805 -0.006779 0.0
-0.086725 -0.007750 0.0
-0.078811 -0.008616 0.0
-0.070171 -0.009349 0.0
-0.060938 -0.009924 0.0
-0.051266 -0.010314 0.0
-0.041336 -0.010484 0.0
-0.031383 -0.010363 0.0
-0.021733 -0.009811 0.0
-0.012893 -0.008551 0.0
-0.005676 -0.006121 0.0
-0.001299 -0.002119 0.0
-0.000984 0.002896 0.0
-0.003869 0.006155 0.0
-0.008098 0.007734 0.0
-0.012946 0.008415 0.0
-0.018070 0.008690 0.0
-0.023317 0.008811 0.0
-0.028627 0.008886 0.0
-0.033977 0.008957 0.0
-0.039364 0.009034 0.0
-0.044786 0.009118 0.0
-0.050245 0.009208 0.0
-0.055739 0.009300 0.0
-0.061265 0.009390 0.0
-0.066821 0.009475 0.0
-0.072398 0.009550 0.0
-0.077986 0.009610 0.0
-0.083572 0.009648 0.0
-0.089139 0.009656 0.0
-0.094665 0.009627 0.0
-0.100122 0.009550 0.0
-0.105478 0.009415 0.0
-0.110693 0.009209 0.0
-0.115722 0.008918 0.0
-0.120512 0.008529 0.0
-0.125001 0.008026 0.0
-0.129121 0.007393 0.0
-0.132796 0.006616 0.0
-0.135945 0.005681 0.0
-0.138480 0.004578 0.0
-0.140308 0.003298 0.0
-0.141337 0.001841 0.0
-0.141472 0.000209 0.0
-0.140625 -0.001591 0.0
-0.138720 -0.003545 0.0
-0.135704 -0.005619 0.0
-0.131539 -0.007771 0.0
-0.126209 -0.009952 0.0
-0.119726 -0.012104 0.0
-0.112133 -0.014166 0.0
-0.103500 -0.016075 0.0
-0.093931 -0.017773 0.0
-0.083557 -0.019205 0.0
-0.072532 -0.020325 0.0
-0.061038 -0.021080 0.0
-0.049287 -0.021399 0.0
-0.037542 -0.021147 0.0
-0.026164 -0.020056 0.0
-0.015703 -0.017608 0.0
-0.007049 -0.012935 0.0
-0.001657 -0.005075 0.0
-0.001114 0.004994 0.0
-0.004366 0.010193 0.0
-0.009094 0.012654 0.0
-0.014477 0.013726 0.0
-0.020145 0.014172 0.0
-0.025941 0.014372 0.0
-0.031801 0.014494 0.0
-0.037702 0.014601 0.0
-0.043637 0.014712 0.0
-0.049605 0.014830 0.0
-0.055604 0.014953 0.0
-0.061632 0.015076 0.0
-0.067685 0.015194 0.0
-0.073758 0.015299 0.0
-0.079840 0.015386 0.0
-0.085922 0.015444 0.0
-0.091987 0.015465 0.0
-0.098016 0.015435 0.0
-0.103984 0.015342 0.0
-0.109862 0.015170 0.0
-0.115614 0.014903 0.0
-0.121198 0.014520 0.0
-0.126563 0.014002 0.0
-0.131654 0.013326 0.0
-0.136406 0.012469 0.0
-0.140746 0.011409 0.0
-0.144594 0.010123 0.0
-0.147862 0.008591 0.0
-0.150458 0.006798 0.0
-0.152284 0.004733 0.0
-0.153241 0.002393 0.0
-0.153231 -0.000217 0.0
-0.152164 -0.003080 0.0
-0.149964 -0.006161 0.0
-0.146568 -0.009414 0.0
-0.141935 -0.012774 0.0
-0.136049 -0.016166 0.0
-0.128922 -0.019501 0.0
-0.120600 -0.022685 0.0
-0.111164 -0.025624 0.0
-0.100732 -0.028225 0.0
-0.089453 -0.030407 0.0
-0.077505 -0.032096 0.0
-0.065093 -0.033214 0.0
-0.052455 -0.033654 0.0
-0.039875 -0.033217 0.0
-0.027733 -0.031506 0.0
-0.016598 -0.027754 0.0
-0.007410 -0.020631 0.0
-0.001725 -0.008456 0.0
-0.001169 0.007277 0.0
-0.004585 0.014577 0.0
-0.009551 0.017965 0.0
-0.015191 0.019437 0.0
-0.021117 0.020055 0.0
-0.027167 0.020335 0.0
-0.033281 0.020504 0.0
-0.039435 0.020646 0.0
-0.045622 0.020790 0.0
-0.051841 0.020939 0.0
-0.058090 0.021092 0.0
-0.064365 0.021241 0.0
-0.070663 0.021380 0.0
-0.076978 0.021500 0.0
-0.083302 0.021591 0.0
-0.089621 0.021640 0.0
-0.095921 0.021634 0.0
-0.102182 0.021556 0.0
-0.108379 0.021387 0.0
-0.114484 0.021108 0.0
-0.120460 0.020693 0.0
-0.126264 0.020118 0.0
-0.131848 0.019354 0.0
-0.137153 0.018371 0.0
-0.142115 0.017138 0.0
-0.146658 0.015624 0.0
-0.150702 0.013799 0.0
-0.154155 0.011637 0.0
-0.156921 0.009114 0.0
-0.158896 0.006218 0.0
-0.159976 0.002944 0.0
-0.160056 -0.000699 0.0
-0.159036 -0.004685 0.0
-0.156826 -0.008966 0.0
-0.153352 -0.013479 0.0
-0.148557 -0.018136 0.0
-0.142414 -0.022833 0.0
-0.134929 -0.027446 0.0
-0.126147 -0.031844 0.0
-0.116156 -0.035892 0.0
-0.105087 -0.039458 0.0
-0.093114 -0.042427 0.0
-0.080446 -0.044693 0.0
-0.067324 -0.046151 0.0
-0.054021 -0.046659 0.0
-0.040854 -0.045959 0.0
-0.028229 -0.043530 0.0
-0.016743 -0.038349 0.0
-0.007368 -0.028599 0.0
-0.001680 -0.011861 0.0
-0.001185 0.009632 0.0
-0.004660 0.019112 0.0
-0.009721 0.023457 0.0
-0.015469 0.025333 0.0
-0.021504 0.026120 0.0
-0.027662 0.026479 0.0
-0.033881 0.026693 0.0
-0.040141 0.026871 0.0
-0.046435 0.027047 0.0
-0.052763 0.027228 0.0
-0.059122 0.027411 0.0
-0.065512 0.027587 0.0
-0.071928 0.027749 0.0
-0.078365 0.027884 0.0
-0.084815 0.027981 0.0
-0.091269 0.028023 0.0
-0.097711 0.027993 0.0
-0.104124 0.027870 0.0
-0.110485 0.027631 0.0
-0.116766 0.027249 0.0
-0.122933 0.026694 0.0
-0.128946 0.025934 0.0
-0.134755 0.024931 0.0
-0.140306 0.023649 0.0
-0.145533 0.022048 0.0
-0.150362 0.020086 0.0
-0.154708 0.017727 0.0
-0.158479 0.014933 0.0
-0.161572 0.011676 0.0
-0.163876 0.007936 0.0
-0.165276 0.003706 0.0
-0.165654 -0.001003 0.0
-0.164893 -0.006162 0.0
-0.162881 -0.011711 0.0
-0.159520 -0.017569 0.0
-0.154734 -0.023627 0.0
-0.148474 -0.029744 0.0
-0.140733 -0.035761 0.0
-0.131549 -0.041496 0.0
-0.121016 -0.046765 0.0
-0.109283 -0.051386 0.0
-0.096558 -0.055198 0.0
-0.083094 -0.058054 0.0
-0.069187 -0.059818 0.0
-0.055165 -0.060317 0.0
-0.041394 -0.059238 0.0
-0.028324 -0.055946 0.0
-0.016582 -0.049162 0.0
-0.007157 -0.036586 0.0
-0.001589 -0.015130 0.0
-0.001184 0.012001 0.0
-0.004664 0.023698 0.0
-0.009747 0.029016 0.0
-0.015525 0.031299 0.0
-0.021593 0.032256 0.0
-0.027785 0.032692 0.0
-0.034039 0.032952 0.0
-0.040334 0.033167 0.0
-0.046668 0.033379 0.0
-0.053039 0.033595 0.0
-0.059447 0.033811 0.0
-0.065891 0.034020 0.0
-0.072371 0.034211 0.0
-0.078882 0.034370 0.0
-0.085418 0.034482 0.0
-0.091970 0.034528 0.0
-0.098528 0.034488 0.0
-0.105076 0.034336 0.0
-0.111594 0.034044 0.0
-0.118057 0.033580 0.0
-0.124435 0.032908 0.0
-0.130689 0.031987 0.0
-0.136775 0.030774 0.0
-0.142638 0.029221 0.0
-0.148215 0.027280 0.0
-0.153432 0.024899 0.0
-0.158202 0.022030 0.0
-0.162429 0.018627 0.0
-0.166003 0.014649 0.0
-0.168804 0.010069 0.0
-0.170700 0.004871 0.0
-0.171555 -0.000936 0.0
-0.171225 -0.007320 0.0
-0.169571 -0.014217 0.0
-0.166465 -0.021530 0.0
-0.161797 -0.029121 0.0
-0.155489 -0.036817 0.0
-0.147511 -0.044407 0.0
-0.137889 -0.051655 0.0
-0.126719 -0.058308 0.0
-0.114175 -0.064119 0.0
-0.100508 -0.068858 0.0
-0.086038 -0.072327 0.0
-0.071139 -0.074350 0.0
-0.056224 -0.074723 0.0
-0.041735 -0.073092 0.0
-0.028176 -0.068722 0.0
-0.016206 -0.060099 0.0
-0.006815 -0.044466 0.0
-0.001457 -0.018176 0.0
-0.001174 0.014359 0.0
-0.004634 0.028281 0.0
-0.009702 0.034583 0.0
-0.015471 0.037279 0.0
-0.021534 0.038407 0.0
-0.027722 0.038922 0.0
-0.033976 0.039230 0.0
-0.040274 0.039485 0.0
-0.046615 0.039736 0.0
-0.053000 0.039993 0.0
-0.059429 0.040251 0.0
-0.065905 0.040501 0.0
-0.072426 0.040732 0.0
-0.078993 0.040927 0.0
-0.085602 0.041070 0.0
-0.092247 0.041138 0.0
-0.098919 0.041109 0.0
-0.105608 0.040952 0.0
-0.112297 0.040635 0.0
-0.118966 0.040121 0.0
-0.125587 0.039366 0.0
-0.132129 0.038324 0.0
-0.138548 0.036942 0.0
-0.144796 0.035163 0.0
-0.150809 0.032928 0.0
-0.156515 0.030174 0.0
-0.161827 0.026838 0.0
-0.166643 0.022862 0.0
-0.170845 0.018191 0.0
-0.174300 0.012783 0.0
-0.176859 0.006613 0.0
-0.178360 -0.000323 0.0
-0.178629 -0.007995 0.0
-0.177490 -0.016335 0.0
-0.174773 -0.025235 0.0
-0.170324 -0.034533 0.0
-0.164023 -0.044013 0.0
-0.155803 -0.053409 0.0
-0.145668 -0.062411 0.0
-0.133711 -0.070679 0.0
-0.120134 -0.077870 0.0
-0.105246 -0.083662 0.0
-0.089460 -0.087778 0.0
-0.073269 -0.089988 0.0
-0.057209 -0.090060 0.0
-0.041833 -0.087620 0.0
-0.027719 -0.081866 0.0
-0.015554 -0.071089 0.0
-0.006301 -0.052121 0.0
-0.001273 -0.020906 0.0
-0.001159 0.016692 0.0
-0.004586 0.032835 0.0
-0.009618 0.040128 0.0
-0.015357 0.043242 0.0
-0.021394 0.044545 0.0
-0.027561 0.045140 0.0
-0.033796 0.045499 0.0
-0.040081 0.045799 0.0
-0.046414 0.046096 0.0
-0.052797 0.046401 0.0
-0.059235 0.046710 0.0
-0.065731 0.047013 0.0
-0.072286 0.047297 0.0
-0.078904 0.047545 0.0
-0.085583 0.047738 0.0
-0.092321 0.047853 0.0
-0.099114 0.047861 0.0
-0.105956 0.047730 0.0
-0.112834 0.047424 0.0
-0.119734 0.046900 0.0
-0.126633 0.046109 0.0
-0.133506 0.044995 0.0
-0.140314 0.043499 0.0
-0.147012 0.041552 0.0
-0.153544 0.039084 0.0
-0.159836 0.036016 0.0
-0.165801 0.032273 0.0
-0.171335 0.027776 0.0
-0.176311 0.022454 0.0
-0.180582 0.016246 0.0
-0.183979 0.009106 0.0
-0.186309 0.001016 0.0
-0.187365 -0.008009 0.0
-0.186922 -0.017903 0.0
-0.184756 -0.028550 0.0
-0.180655 -0.039767 0.0
-0.174438 -0.051296 0.0
-0.165982 -0.062803 0.0
-0.155249 -0.073885 0.0
-0.142322 -0.084089 0.0
-0.127425 -0.092935 0.0
-0.110945 -0.099965 0.0
-0.093424 -0.104782 0.0
-0.075527 -0.107073 0.0
-0.057979 -0.106582 0.0
-0.041500 -0.102952 0.0
-0.026767 -0.095380 0.0
-0.014482 -0.082025 0.0
-0.005533 -0.059387 0.0
-0.001011 -0.023190 0.0
-0.001141 0.018991 0.0
-0.004525 0.037347 0.0
-0.009509 0.045634 0.0
-0.015205 0.049171 0.0
-0.021205 0.050652 0.0
-0.027338 0.051333 0.0
-0.033543 0.051747 0.0
-0.039804 0.052097 0.0
-0.046119 0.052446 0.0
-0.052493 0.052808 0.0
-0.058931 0.053179 0.0
-0.065440 0.053548 0.0
-0.072025 0.053902 0.0
-0.078689 0.054222 0.0
-0.085438 0.054488 0.0
-0.092271 0.054675 0.0
-0.099191 0.054752 0.0
-0.106195 0.054684 0.0
-0.113278 0.054431 0.0
-0.120430 0.053945 0.0
-0.127637 0.053171 0.0
-0.134878 0.052046 0.0
-0.142124 0.050502 0.0
-0.149335 0.048459 0.0
-0.156459 0.045832 0.0
-0.163429 0.042530 0.0
-0.170159 0.038455 0.0
-0.176542 0.033510 0.0
-0.182444 0.027599 0.0
-0.187705 0.020633 0.0
-0.192134 0.012543 0.0
-0.195507 0.003283 0.0
-0.197575 -0.007152 0.0
-0.198059 -0.018718 0.0
-0.196662 -0.031298 0.0
-0.193092 -0.044690 0.0
-0.187086 -0.058597 0.0
-0.178435 -0.072609 0.0
-0.167035 -0.086212 0.0
-0.152930 -0.098795 0.0
-0.136362 -0.109694 0.0
-0.117807 -0.118242 0.0
-0.097982 -0.123851 0.0
-0.077807 -0.126077 0.0
-0.058297 -0.124636 0.0
-0.040428 -0.119247 0.0
-0.025022 -0.109224 0.0
-0.012767 -0.092721 0.0
-0.004394 -0.066013 0.0
-0.000640 -0.024840 0.0
-0.001120 0.021251 0.0
-0.004453 0.041804 0.0
-0.009381 0.051089 0.0
-0.015024 0.055055 0.0
-0.020975 0.056719 0.0
-0.027065 0.057489 0.0
-0.033232 0.057963 0.0
-0.039460 0.058369 0.0
-0.045749 0.058778 0.0
-0.052105 0.059207 0.0
-0.058537 0.059651 0.0
-0.065053 0.060101 0.0
-0.071660 0.060541 0.0
-0.078367 0.060955 0.0
-0.085182 0.061319 0.0
-0.092110 0.061607 0.0
-0.099158 0.061788 0.0
-0.106330 0.061824 0.0
-0.113626 0.061671 0.0
-0.121046 0.061277 0.0
-0.128582 0.060582 0.0
-0.136222 0.059516 0.0
-0.143946 0.058001 0.0
-0.151723 0.055947 0.0
-0.159509 0.053254 0.0
-0.167245 0.049813 0.0
-0.174849 0.045506 0.0
-0.182215 0.040208 0.0
-0.189207 0.033795 0.0
-0.195653 0.026144 0.0
-0.201341 0.017149 0.0
-0.206016 0.006725 0.0
-0.209376 -0.005166 0.0
-0.211075 -0.018521 0.0
-0.210736 -0.033231 0.0
-0.207967 -0.049096 0.0
-0.202382 -0.065782 0.0
-0.193652 -0.082804 0.0
-0.181558 -0.099510 0.0
-0.166068 -0.115092 0.0
-0.147413 -0.128620 0.0
-0.126165 -0.139119 0.0
-0.103268 -0.145694 0.0
-0.080007 -0.147672 0.0
-0.057848 -0.144711 0.0
-0.038182 -0.136706 0.0
-0.022058 -0.123296 0.0
-0.010098 -0.102864 0.0
-0.002728 -0.071614 0.0
-0.000120 -0.025600 0.0
-0.001096 0.023467 0.0
-0.004372 0.046199 0.0
-0.009234 0.056484 0.0
-0.014815 0.060884 0.0
-0.020709 0.062736 0.0
-0.026747 0.063599 0.0
-0.032866 0.064139 0.0
-0.039052 0.064607 0.0
-0.045306 0.065083 0.0
-0.051636 0.065588 0.0
-0.058053 0.066118 0.0
-0.064566 0.066663 0.0
-0.071188 0.067209 0.0
-0.077929 0.067737 0.0
-0.084803 0.068225 0.0
-0.091820 0.068647 0.0
-0.098993 0.068969 0.0
-0.106331 0.069152 0.0
-0.113843 0.069151 0.0
-0.121536 0.068909 0.0
-0.129414 0.068363 0.0
-0.137474 0.067435 0.0
-0.145707 0.066039 0.0
-0.154094 0.064074 0.0
-0.162604 0.061424 0.0
-0.171187 0.057962 0.0
-0.179772 0.053546 0.0
-0.188259 0.048022 0.0
-0.196514 0.041228 0.0
-0.204358 0.033001 0.0
-0.211562 0.023185 0.0
-0.217839 0.011641 0.0
-0.222833 -0.001729 0.0
-0.226126 -0.016967 0.0
-0.227244 -0.034006 0.0
-0.225661 -0.052673 0.0
-0.220837 -0.072615 0.0
-0.212267 -0.093273 0.0
-0.199557 -0.113845 0.0
-0.182532 -0.133272 0.0
-0.161362 -0.150265 0.0
-0.136688 -0.163396 0.0
-0.109723 -0.171277 0.0
-0.082244 -0.172829 0.0
-0.056397 -0.167559 0.0
-0.034274 -0.155647 0.0
-0.017335 -0.137418 0.0
-0.006082 -0.111953 0.0
-0.000350 -0.075627 0.0
0.000588 -0.025132 0.0
-0.001069 0.025631 0.0
-0.004280 0.050522 0.0
-0.009067 0.061809 0.0
-0.014576 0.066650 0.0
-0.020405 0.068694 0.0
-0.026381 0.069655 0.0
-0.032443 0.070265 0.0
-0.038577 0.070800 0.0
-0.044786 0.071352 0.0
-0.051079 0.071942 0.0
-0.057468 0.072570 0.0
-0.063968 0.073224 0.0
-0.070592 0.073893 0.0
-0.077357 0.074558 0.0
-0.084278 0.075198 0.0
-0.091373 0.075786 0.0
-0.098659 0.076288 0.0
-0.106154 0.076666 0.0
-0.113875 0.076871 0.0
-0.121840 0.076847 0.0
-0.130061 0.076524 0.0
-0.138550 0.075823 0.0
-0.147311 0.074646 0.0
-0.156341 0.072884 0.0
-0.165624 0.070406 0.0
-0.175126 0.067065 0.0
-0.184792 0.062694 0.0
-0.194535 0.057105 0.0
-0.204230 0.050094 0.0
-0.213698 0.041448 0.0
-0.222702 0.030946 0.0
-0.230926 0.018380 0.0
-0.237970 0.003570 0.0
-0.243346 -0.013596 0.0
-0.246457 -0.033149 0.0
-0.246613 -0.054956 0.0
-0.243081 -0.078687 0.0
-0.235122 -0.103730 0.0
-0.222095 -0.129124 0.0
-0.203598 -0.153515 0.0
-0.179644 -0.175148 0.0
-0.150868 -0.191964 0.0
-0.118711 -0.201831 0.0
-0.085518 -0.202948 0.0
-0.054386 -0.194419 0.0
-0.028565 -0.176732 0.0
-0.010410 -0.151428 0.0
-0.000345 -0.119262 0.0
0.002935 -0.077330 0.0
0.001556 -0.022988 0.0
-0.001039 0.027739 0.0
-0.004177 0.054765 0.0
-0.008880 0.067055 0.0
-0.014308 0.072341 0.0
-0.020060 0.074583 0.0
-0.025965 0.075646 0.0
-0.031959 0.076330 0.0
-0.038030 0.076939 0.0
-0.044181 0.077573 0.0
-0.050424 0.078257 0.0
-0.056773 0.078993 0.0
-0.063244 0.079772 0.0
-0.069856 0.080582 0.0
-0.076626 0.081406 0.0
-0.083578 0.082223 0.0
-0.090732 0.083009 0.0
-0.098114 0.083732 0.0
-0.105749 0.084352 0.0
-0.113664 0.084821 0.0
-0.121885 0.085083 0.0
-0.130440 0.085065 0.0
-0.139353 0.084684 0.0
-0.148647 0.083839 0.0
-0.158335 0.082409 0.0
-0.168423 0.080252 0.0
-0.178900 0.077199 0.0
-0.189734 0.073059 0.0
-0.200859 0.067608 0.0
-0.212170 0.060596 0.0
-0.223504 0.051748 0.0
-0.234624 0.040770 0.0
-0.245205 0.027361 0.0
-0.254808 0.011237 0.0
-0.262858 -0.007837 0.0
-0.268639 -0.030016 0.0
-0.271303 -0.055268 0.0
-0.269880 -0.083330 0.0
-0.263353 -0.113572 0.0
-0.250773 -0.144888 0.0
-0.231421 -0.175600 0.0
-0.205022 -0.203415 0.0
-0.172008 -0.225487 0.0
-0.133832 -0.238641 0.0
-0.093264 -0.239898 0.0
-0.054476 -0.227390 0.0
-0.022503 -0.201556 0.0
-0.001688 -0.165573 0.0
0.007188 -0.124059 0.0
0.007259 -0.075884 0.0
0.002819 -0.018614 0.0
-0.001006 0.029783 0.0
-0.004063 0.058917 0.0
-0.008671 0.072212 0.0
-0.014008 0.077949 0.0
-0.019673 0.080393 0.0
-0.025495 0.081562 0.0
-0.031410 0.082324 0.0
-0.037405 0.083011 0.0
-0.043485 0.083732 0.0
-0.049663 0.084519 0.0
-0.055955 0.085373 0.0
-0.062380 0.086289 0.0
-0.068959 0.087255 0.0
-0.075715 0.088259 0.0
-0.082675 0.089281 0.0
-0.089865 0.090297 0.0
-0.097317 0.091278 0.0
-0.105065 0.092188 0.0
-0.113145 0.092980 0.0
-0.121596 0.093597 0.0
-0.130460 0.093969 0.0
-0.139776 0.094011 0.0
-0.149587 0.093617 0.0
-0.159929 0.092662 0.0
-0.170834 0.090991 0.0
-0.182319 0.088422 0.0
-0.194383 0.084735 0.0
-0.206998 0.079672 0.0
-0.220089 0.072935 0.0
-0.233526 0.064180 0.0
-0.247093 0.053026 0.0
-0.260469 0.039061 0.0
-0.273193 0.021864 0.0
-0.284638 0.001032 0.0
-0.293989 -0.023752 0.0
-0.300230 -0.052628 0.0
-0.302173 -0.085451 0.0
-0.298534 -0.121617 0.0
-0.288050 -0.159908 0.0
-0.269614 -0.198368 0.0
-0.242458 -0.234202 0.0
-0.206446 -0.263726 0.0
-0.162544 -0.282480 0.0
-0.113426 -0.285745 0.0
-0.064024 -0.269733 0.0
-0.021546 -0.233665 0.0
0.006025 -0.181849 0.0
0.015617 -0.126250 0.0
0.012382 -0.070529 0.0
0.004324 -0.011471 0.0
-0.000969 0.031758 0.0
-0.003938 0.062969 0.0
-0.008440 0.077270 0.0
-0.013675 0.083463 0.0
-0.019243 0.086113 0.0
-0.024970 0.087391 0.0
-0.030793 0.088234 0.0
-0.036698 0.089001 0.0
-0.042691 0.089815 0.0
-0.048787 0.090710 0.0
-0.055004 0.091691 0.0
-0.061362 0.092754 0.0
-0.067886 0.093893 0.0
-0.074602 0.095094 0.0
-0.081540 0.096343 0.0
-0.088735 0.097619 0.0
-0.096223 0.098897 0.0
-0.104048 0.100142 0.0
-0.112255 0.101313 0.0
-0.120896 0.102356 0.0
-0.130026 0.103204 0.0
-0.139705 0.103772 0.0
-0.149996 0.103957 0.0
-0.160961 0.103629 0.0
-0.172663 0.102630 0.0
-0.185157 0.100762 0.0
-0.198483 0.097786 0.0
-0.212659 0.093412 0.0
-0.227663 0.087291 0.0
-0.243414 0.079011 0.0
-0.259745 0.068093 0.0
-0.276372 0.053996 0.0
-0.292852 0.036133 0.0
-0.308551 0.013907 0.0
-0.322607 -0.013221 0.0
-0.333900 -0.045625 0.0
-0.341114 -0.083298 0.0
-0.342809 -0.125713 0.0
-0.337452 -0.171652 0.0
-0.323423 -0.219088 0.0
-0.299107 -0.264955 0.0
-0.263264 -0.304829 0.0
-0.215740 -0.332803 0.0
-0.158371 -0.341908 0.0
-0.095975 -0.325367 0.0
-0.037289 -0.279195 0.0
0.005234 -0.206413 0.0
0.021770 -0.127813 0.0
0.017257 -0.061220 0.0
0.005841 -0.001306 0.0
-0.000930 0.033657 0.0
-0.003801 0.066910 0.0
-0.008188 0.082217 0.0
-0.013309 0.088872 0.0
-0.018768 0.091732 0.0
-0.024388 0.093120 0.0
-0.030106 0.094045 0.0
-0.035906 0.094895 0.0
-0.041796 0.095804 0.0
-0.047791 0.096811 0.0
-0.053911 0.097925 0.0
-0.060178 0.099145 0.0
-0.066620 0.100467 0.0
-0.073265 0.101881 0.0
-0.080149 0.103378 0.0
-0.087311 0.104940 0.0
-0.094794 0.106547 0.0
-0.102648 0.108171 0.0
-0.110931 0.109775 0.0
-0.119706 0.111310 0.0
-0.129044 0.112717 0.0
-0.139023 0.113917 0.0
-0.149730 0.114810 0.0
-0.161257 0.115269 0.0
-0.173701 0.115136 0.0
-0.187162 0.114209 0.0
-0.201733 0.112235 0.0
-0.217493 0.108898 0.0
-0.234490 0.103807 0.0
-0.252726 0.096482 0.0
-0.272116 0.086345 0.0
-0.292461 0.072715 0.0
-0.313392 0.054823 0.0
-0.334327 0.031851 0.0
-0.354455 0.003019 0.0
-0.372766 -0.032261 0.0
-0.388009 -0.074206 0.0
-0.398676 -0.122443 0.0
-0.402884 -0.176071 0.0
-0.398124 -0.233457 0.0
-0.381402 -0.291625 0.0
-0.349937 -0.345467 0.0
-0.302173 -0.387453 0.0
-0.238721 -0.408080 0.0
-0.163349 -0.396963 0.0
-0.084506 -0.345127 0.0
-0.016910 -0.250599 0.0
0.018729 -0.135801 0.0
0.019694 -0.049684 0.0
0.006867 0.011402 0.0
-0.000887 0.035473 0.0
-0.003653 0.070731 0.0
-0.007913 0.087043 0.0
-0.012910 0.094164 0.0
-0.018249 0.097237 0.0
-0.023750 0.098737 0.0
-0.029348 0.099744 0.0
-0.035028 0.100677 0.0
-0.040797 0.101682 0.0
-0.046671 0.102803 0.0
-0.052670 0.104053 0.0
-0.058821 0.105435 0.0
-0.065150 0.106948 0.0
-0.071691 0.108587 0.0
-0.078481 0.110347 0.0
-0.085565 0.112217 0.0
-0.092992 0.114181 0.0
-0.100821 0.116220 0.0
-0.109116 0.118304 0.0
-0.117954 0.120394 0.0
-0.127420 0.122438 0.0
-0.137613 0.124368 0.0
-0.148643 0.126095 0.0
-0.160634 0.127502 0.0
-0.173723 0.128437 0.0
-0.188058 0.128704 0.0
-0.203794 0.128047 0.0
-0.221088 0.126139 0.0
-0.240081 0.122557 0.0
-0.260883 0.116768 0.0
-0.283538 0.108105 0.0
-0.307990 0.095752 0.0
-0.334038 0.078764 0.0
-0.361309 0.056116 0.0
-0.389249 0.026823 0.0
-0.417095 -0.009908 0.0
-0.443802 -0.054609 0.0
-0.467694 -0.107482 0.0
-0.485973 -0.168546 0.0
-0.494572 -0.237143 0.0
-0.488775 -0.310459 0.0
-0.464532 -0.382342 0.0
-0.419460 -0.443413 0.0
-0.353226 -0.481806 0.0
-0.268037 -0.483798 0.0
-0.170150 -0.435022 0.0
-0.073174 -0.325276 0.0
-0.003496 -0.166442 0.0
0.016832 -0.040336 0.0
0.006722 0.024991 0.0
-0.000841 0.037201 0.0
-0.003494 0.074423 0.0
-0.007619 0.091737 0.0
-0.012481 0.099329 0.0
-0.017687 0.102616 0.0
-0.023057 0.104228 0.0
-0.028521 0.105315 0.0
-0.034064 0.106329 0.0
-0.039693 0.107428 0.0
-0.045425 0.108662 0.0
-0.051280 0.110049 0.0
-0.057284 0.111594 0.0
-0.063468 0.113301 0.0
-0.069866 0.115172 0.0
-0.076520 0.117206 0.0
-0.083476 0.119398 0.0
-0.090790 0.121742 0.0
-0.098526 0.124224 0.0
-0.106758 0.126827 0.0
-0.115572 0.129523 0.0
-0.125070 0.132272 0.0
-0.135366 0.135023 0.0
-0.146596 0.137700 0.0
-0.158914 0.140206 0.0
-0.172499 0.142407 0.0
-0.187553 0.144122 0.0
-0.204299 0.145112 0.0
-0.222984 0.145053 0.0
-0.243865 0.143517 0.0
-0.267198 0.139942 0.0
-0.293210 0.133599 0.0
-0.322074 0.123575 0.0
-0.353883 0.108799 0.0
-0.388639 0.088108 0.0
-0.426230 0.060362 0.0
-0.466279 0.024448 0.0
-0.507659 -0.020877 0.0
-0.547684 -0.077296 0.0
-0.581731 -0.146405 0.0
-0.603861 -0.228555 0.0
-0.608358 -0.320347 0.0
-0.591244 -0.413812 0.0
-0.550448 -0.497811 0.0
-0.485148 -0.558942 0.0
-0.395746 -0.581253 0.0
-0.285275 -0.545925 0.0
-0.162939 -0.433685 0.0
-0.051418 -0.239232 0.0
0.003553 -0.042846 0.0
0.004725 0.036438 0.0
-0.000793 0.038835 0.0
-0.003326 0.077975 0.0
-0.007306 0.096290 0.0
-0.012023 0.104356 0.0
-0.017086 0.107859 0.0
-0.022311 0.109579 0.0
-0.027628 0.110743 0.0
-0.033018 0.111834 0.0
-0.038489 0.113022 0.0
-0.044055 0.114365 0.0
-0.049740 0.115885 0.0
-0.055568 0.117591 0.0
-0.061571 0.119492 0.0
-0.067786 0.121595 0.0
-0.074255 0.123906 0.0
-0.081029 0.126428 0.0
-0.088166 0.129163 0.0
-0.095735 0.132108 0.0
-0.103817 0.135258 0.0
-0.112508 0.138598 0.0
-0.121920 0.142106 0.0
-0.132185 0.145750 0.0
-0.143459 0.149478 0.0
-0.155928 0.153216 0.0
-0.169807 0.156862 0.0
-0.185354 0.160267 0.0
-0.202865 0.163224 0.0
-0.222685 0.165445 0.0
-0.245205 0.166527 0.0
-0.270860 0.165921 0.0
-0.300124 0.162896 0.0
-0.333509 0.156528 0.0
-0.371575 0.145721 0.0
-0.414894 0.129260 0.0
-0.463834 0.105741 0.0
-0.517921 0.073204 0.0
-0.574812 0.028637 0.0
-0.629691 -0.031906 0.0
-0.675880 -0.111560 0.0
-0.706733 -0.210415 0.0
-0.717482 -0.323241 0.0
-0.705713 -0.439801 0.0
-0.670294 -0.548036 0.0
-0.609947 -0.634365 0.0
-0.523036 -0.682144 0.0
-0.408842 -0.669698 0.0
-0.270974 -0.570116 0.0
-0.125201 -0.360095 0.0
-0.024533 -0.077621 0.0
0.002172 0.043336 0.0
-0.000743 0.040371 0.0
-0.003150 0.081380 0.0
-0.006977 0.100691 0.0
-0.011540 0.109234 0.0
-0.016450 0.112953 0.0
-0.021519 0.114780 0.0
-0.026674 0.116015 0.0
-0.031896 0.117175 0.0
-0.037189 0.118445 0.0
-0.042568 0.119889 0.0
-0.048056 0.121533 0.0
-0.053677 0.123392 0.0
-0.059464 0.125480 0.0
-0.065452 0.127810 0.0
-0.071687 0.130394 0.0
-0.078219 0.133245 0.0
-0.085110 0.136373 0.0
-0.092431 0.139788 0.0
-0.100268 0.143497 0.0
-0.108723 0.147504 0.0
-0.117917 0.151806 0.0
-0.127995 0.156393 0.0
-0.139129 0.161244 0.0
-0.151530 0.166319 0.0
-0.165449 0.171557 0.0
-0.181190 0.176860 0.0
-0.199123 0.182076 0.0
-0.219690 0.186981 0.0
-0.243427 0.191247 0.0
-0.270975 0.194403 0.0
-0.303112 0.195815 0.0
-0.340790 0.194673 0.0
-0.385140 0.189992 0.0
-0.437286 0.180454 0.0
-0.497650 0.163851 0.0
-0.564670 0.136201 0.0
-0.633679 0.091540 0.0
-0.697339 0.023731 0.0
-0.748153 -0.070194 0.0
-0.781063 -0.188018 0.0
-0.793826 -0.322126 0.0
-0.785989 -0.460523 0.0
-0.757231 -0.591491 0.0
-0.705796 -0.702691 0.0
-0.628091 -0.778434 0.0
-0.519652 -0.796041 0.0
-0.378451 -0.722842 0.0
-0.212412 -0.519182 0.0
-0.060094 -0.171520 0.0
0.002464 0.047972 0.0
-0.000691 0.041805 0.0
-0.002968 0.084631 0.0
-0.006635 0.104934 0.0
-0.011037 0.113956 0.0
-0.015785 0.117890 0.0
-0.020688 0.119816 0.0
-0.025669 0.121114 0.0
-0.030707 0.122334 0.0
-0.035803 0.123675 0.0
-0.040974 0.125208 0.0
-0.046238 0.126965 0.0
-0.051621 0.128965 0.0
-0.057153 0.131227 0.0
-0.062872 0.133771 0.0
-0.068821 0.136617 0.0
-0.075050 0.139785 0.0
-0.081623 0.143296 0.0
-0.088611 0.147174 0.0
-0.096102 0.151440 0.0
-0.104200 0.156115 0.0
-0.113031 0.161220 0.0
-0.122747 0.166772 0.0
-0.133533 0.172784 0.0
-0.145614 0.179260 0.0
-0.159267 0.186189 0.0
-0.174836 0.193539 0.0
-0.192748 0.201240 0.0
-0.213534 0.209170 0.0
-0.237867 0.217127 0.0
-0.266603 0.224806 0.0
-0.300843 0.231789 0.0
-0.341987 0.237521 0.0
-0.391634 0.241141 0.0
-0.451016 0.240833 0.0
-0.519743 0.232561 0.0
-0.594339 0.209107 0.0
-0.668029 0.161333 0.0
-0.732633 0.082202 0.0
-0.781438 -0.029045 0.0
-0.811701 -0.165995 0.0
-0.823897 -0.319189 0.0
-0.819200 -0.475995 0.0
-0.798014 -0.625963 0.0
-0.758519 -0.759149 0.0
-0.695699 -0.862502 0.0
-0.601648 -0.914464 0.0
-0.468448 -0.878820 0.0
-0.295061 -0.702630 0.0
-0.101237 -0.334213 0.0
-0.001783 0.048653 0.0
-0.000638 0.043134 0.0
-0.002782 0.087723 0.0
-0.006285 0.109012 0.0
-0.010519 0.118514 0.0
-0.015099 0.122659 0.0
-0.019827 0.124678 0.0
-0.024623 0.126029 0.0
-0.029462 0.127296 0.0
-0.034346 0.128694 0.0
-0.039286 0.130300 0.0
-0.044301 0.132152 0.0
-0.049415 0.134275 0.0
-0.054657 0.136692 0.0
-0.060063 0.139430 0.0
-0.065673 0.142516 0.0
-0.071539 0.145980 0.0
-0.077720 0.149854 0.0
-0.084288 0.154172 0.0
-0.091328 0.158973 0.0
-0.098943 0.164296 0.0
-0.107260 0.170187 0.0
-0.116430 0.176692 0.0
-0.126642 0.183861 0.0
-0.138125 0.191747 0.0
-0.151170 0.200400 0.0
-0.166141 0.209867 0.0
-0.183500 0.220182 0.0
-0.203844 0.231358 0.0
-0.227949 0.243377 0.0
-0.256844 0.256187 0.0
-0.291887 0.269692 0.0
-0.334764 0.283639 0.0
-0.387160 0.297065 0.0
-0.449789 0.306921 0.0
-0.520921 0.306332 0.0
-0.595489 0.284501 0.0
-0.666030 0.230170 0.0
-0.725245 0.137185 0.0
-0.768495 0.008026 0.0
-0.794449 -0.146850 0.0
-0.804863 -0.315724 0.0
-0.802482 -0.486538 0.0
-0.788681 -0.650406 0.0
-0.762366 -0.800515 0.0
-0.718193 -0.928129 0.0
-0.645738 -1.015343 0.0
-0.531752 -1.025127 0.0
-0.367592 -0.893872 0.0
-0.165614 -0.538773 0.0
-0.029362 0.017507 0.0
-0.000585 0.044357 0.0
-0.002595 0.090653 0.0
-0.005932 0.112921 0.0
-0.009996 0.122903 0.0
-0.014401 0.127254 0.0
-0.018947 0.129358 0.0
-0.023549 0.130748 0.0
-0.028178 0.132046 0.0
-0.032832 0.133482 0.0
-0.037522 0.135142 0.0
-0.042265 0.137068 0.0
-0.047081 0.139289 0.0
-0.051998 0.141837 0.0
-0.057048 0.144741 0.0
-0.062271 0.148038 0.0
-0.067713 0.151766 0.0
-0.073431 0.155967 0.0
-0.079492 0.160688 0.0
-0.085978 0.165982 0.0
-0.092986 0.171910 0.0
-0.100635 0.178539 0.0
-0.109073 0.185947 0.0
-0.118478 0.194222 0.0
-0.129075 0.203467 0.0
-0.141148 0.213799 0.0
-0.155058 0.225350 0.0
-0.171273 0.238273 0.0
-0.190405 0.252743 0.0
-0.213275 0.268968 0.0
-0.240986 0.287202 0.0
-0.274980 0.307714 0.0
-0.316940 0.330454 0.0
-0.368244 0.353950 0.0
-0.428842 0.373263 0.0
-0.496039 0.378319 0.0
-0.564328 0.355370 0.0
-0.626873 0.292386 0.0
-0.677804 0.185115 0.0
-0.713875 0.039417 0.0
-0.734823 -0.131338 0.0
-0.743096 -0.312548 0.0
-0.742024 -0.493168 0.0
-0.734048 -0.665553 0.0
-0.719714 -0.826016 0.0
-0.694982 -0.971533 0.0
-0.648662 -1.090712 0.0
-0.563572 -1.148834 0.0
-0.424709 -1.073187 0.0
-0.237392 -0.748753 0.0
-0.067151 -0.079006 0.0
-0.000533 0.045476 0.0
-0.002411 0.093423 0.0
-0.005582 0.116660 0.0
-0.009475 0.127120 0.0
-0.013704 0.131672 0.0
-0.018064 0.133847 0.0
-0.022464 0.135260 0.0
-0.026873 0.136570 0.0
-0.031285 0.138024 0.0
-0.035707 0.139714 0.0
-0.040155 0.141687 0.0
-0.044647 0.143978 0.0
-0.049205 0.146623 0.0
-0.053861 0.149660 0.0
-0.058649 0.153130 0.0
-0.063611 0.157079 0.0
-0.068798 0.161559 0.0
-0.074272 0.166630 0.0
-0.080105 0.172359 0.0
-0.086387 0.178823 0.0
-0.093223 0.186113 0.0
-0.100747 0.194335 0.0
-0.109121 0.203614 0.0
-0.118549 0.214101 0.0
-0.129289 0.225978 0.0
-0.141672 0.239464 0.0
-0.156130 0.254832 0.0
-0.173237 0.272424 0.0
-0.193763 0.292684 0.0
-0.218743 0.316176 0.0
-0.249487 0.343479 0.0
-0.287398 0.374560 0.0
-0.333378 0.407128 0.0
-0.386852 0.434157 0.0
-0.444985 0.442755 0.0
-0.502910 0.417150 0.0
-0.555117 0.345357 0.0
-0.597178 0.225134 0.0
-0.626851 0.065143 0.0
-0.644123 -0.118844 0.0