# vtk DataFile Version 3.0
Scalar Field
ASCII
DATASET RECTILINEAR_GRID
DIMENSIONS 50 50 1
X_COORDINATES 50 double
0.100000 0.300000 0.500000 0.700000 0.900000 1.100000 1.300000 1.500000 1.700000 1.900000 2.100000 2.300000 2.500000 2.700000 2.900000 3.100000 3.300000 3.500000 3.700000 3.900000 4.100000 4.300000 4.500000 4.700000 4.900000 5.100000 5.300000 5.500000 5.700000 5.900000 6.100000 6.300000 6.500000 6.700000 6.900000 7.100000 7.300000 7.500000 7.700000 7.900000 8.100000 8.300000 8.500000 8.700000 8.900000 9.100000 9.300000 9.500000 9.700000 9.900000 
Y_COORDINATES 50 double
0.100000 0.300000 0.500000 0.700000 0.900000 1.100000 1.300000 1.500000 1.700000 1.900000 2.100000 2.300000 2.500000 2.700000 2.900000 3.100000 3.300000 3.500000 3.700000 3.900000 4.100000 4.300000 4.500000 4.700000 4.900000 5.100000 5.300000 5.500000 5.700000 5.900000 6.100000 6.300000 6.500000 6.700000 6.900000 7.100000 7.300000 7.500000 7.700000 7.900000 8.100000 8.300000 8.500000 8.700000 8.900000 9.100000 9.300000 9.500000 9.700000 9.900000 
Z_COORDINATES 1 double
0.0
POINT_DATA 2500
SCALARS Skalarfeld double 1
LOOKUP_TABLE default
-0.016293
-0.016353
-0.016473
-0.016616
-0.016756
-0.016872
-0.016952
-0.016988
-0.016975
-0.016912
-0.016799
-0.016636
-0.016424
-0.016166
-0.015862
-0.015517
-0.015131
-0.014707
-0.014248
-0.013757
-0.013236
-0.012688
-0.012118
-0.011528
-0.010923
-0.010307
-0.009685
-0.009061
-0.008441
-0.007830
-0.007235
-0.006659
-0.006111
-0.005594
-0.005116
-0.004681
-0.004296
-0.003964
-0.003690
-0.003477
-0.003328
-0.003241
-0.003218
-0.003252
-0.003339
-0.003467
-0.003621
-0.003777
-0.003905
-0.003968
-0.016233
-0.016293
-0.016391
-0.016504
-0.016612
-0.016700
-0.016757
-0.016776
-0.016752
-0.016683
-0.016568
-0.016407
-0.016201
-0.015951
-0.015658
-0.015324
-0.014952
-0.014543
-0.014100
-0.013626
-0.013124
-0.012596
-0.012046
-0.011477
-0.010894
-0.010301
-0.009701
-0.009101
-0.008504
-0.007917
-0.007345
-0.006792
-0.006266
-0.005770
-0.005312
-0.004895
-0.004524
-0.004205
-0.003939
-0.003730
-0.003580
-0.003487
-0.003451
-0.003466
-0.003527
-0.003623
-0.003741
-0.003864
-0.003968
-0.004031
-0.016112
-0.016195
-0.016294
-0.016396
-0.016487
-0.016558
-0.016600
-0.016607
-0.016575
-0.016501
-0.016385
-0.016225
-0.016023
-0.015779
-0.015494
-0.015171
-0.014810
-0.014414
-0.013985
-0.013525
-0.013038
-0.012526
-0.011993
-0.011442
-0.010876
-0.010301
-0.009720
-0.009138
-0.008560
-0.007991
-0.007436
-0.006901
-0.006391
-0.005911
-0.005467
-0.005063
-0.004704
-0.004393
-0.004133
-0.003927
-0.003776
-0.003678
-0.003633
-0.003635
-0.003680
-0.003758
-0.003858
-0.003969
-0.004074
-0.004160
-0.015966
-0.016082
-0.016195
-0.016298
-0.016385
-0.016447
-0.016480
-0.016480
-0.016442
-0.016365
-0.016247
-0.016089
-0.015890
-0.015651
-0.015373
-0.015057
-0.014705
-0.014320
-0.013902
-0.013454
-0.012979
-0.012480
-0.011960
-0.011422
-0.010870
-0.010308
-0.009741
-0.009172
-0.008608
-0.008052
-0.007510
-0.006987
-0.006489
-0.006020
-0.005586
-0.005191
-0.004838
-0.004533
-0.004277
-0.004073
-0.003921
-0.003820
-0.003769
-0.003764
-0.003801
-0.003871
-0.003966
-0.004079
-0.004198
-0.004318
-0.015821
-0.015973
-0.016106
-0.016218
-0.016307
-0.016368
-0.016397
-0.016393
-0.016351
-0.016272
-0.016154
-0.015997
-0.015800
-0.015565
-0.015293
-0.014983
-0.014639
-0.014261
-0.013852
-0.013413
-0.012948
-0.012458
-0.011948
-0.011419
-0.010877
-0.010325
-0.009766
-0.009207
-0.008651
-0.008103
-0.007569
-0.007054
-0.006562
-0.006100
-0.005671
-0.005280
-0.004932
-0.004629
-0.004375
-0.004172
-0.004019
-0.003917
-0.003864
-0.003856
-0.003890
-0.003960
-0.004059
-0.004182
-0.004322
-0.004478
-0.015697
-0.015883
-0.016038
-0.016164
-0.016259
-0.016323
-0.016352
-0.016346
-0.016304
-0.016224
-0.016106
-0.015950
-0.015756
-0.015524
-0.015255
-0.014951
-0.014612
-0.014240
-0.013836
-0.013404
-0.012945
-0.012461
-0.011957
-0.011435
-0.010898
-0.010350
-0.009797
-0.009242
-0.008690
-0.008146
-0.007615
-0.007102
-0.006613
-0.006152
-0.005725
-0.005335
-0.004987
-0.004685
-0.004431
-0.004227
-0.004074
-0.003971
-0.003918
-0.003911
-0.003947
-0.004022
-0.004130
-0.004268
-0.004432
-0.004621
-0.015608
-0.015824
-0.016001
-0.016142
-0.016247
-0.016315
-0.016348
-0.016343
-0.016301
-0.016222
-0.016105
-0.015949
-0.015757
-0.015527
-0.015261
-0.014960
-0.014624
-0.014256
-0.013856
-0.013427
-0.012971
-0.012491
-0.011989
-0.011469
-0.010934
-0.010387
-0.009835
-0.009279
-0.008727
-0.008182
-0.007649
-0.007134
-0.006643
-0.006180
-0.005750
-0.005358
-0.005007
-0.004703
-0.004447
-0.004242
-0.004088
-0.003985
-0.003933
-0.003929
-0.003970
-0.004053
-0.004174
-0.004329
-0.004516
-0.004736
-0.015561
-0.015805
-0.016003
-0.016159
-0.016275
-0.016350
-0.016387
-0.016385
-0.016345
-0.016267
-0.016150
-0.015996
-0.015805
-0.015576
-0.015312
-0.015012
-0.014678
-0.014311
-0.013912
-0.013484
-0.013029
-0.012548
-0.012046
-0.011524
-0.010986
-0.010437
-0.009880
-0.009321
-0.008763
-0.008212
-0.007673
-0.007152
-0.006654
-0.006184
-0.005748
-0.005349
-0.004994
-0.004685
-0.004425
-0.004217
-0.004062
-0.003960
-0.003910
-0.003910
-0.003959
-0.004052
-0.004186
-0.004359
-0.004570
-0.004816
-0.015564
-0.015832
-0.016050
-0.016221
-0.016347
-0.016431
-0.016474
-0.016476
-0.016438
-0.016361
-0.016245
-0.016092
-0.015901
-0.015673
-0.015409
-0.015109
-0.014774
-0.014406
-0.014007
-0.013577
-0.013119
-0.012635
-0.012128
-0.011601
-0.011057
-0.010501
-0.009936
-0.009368
-0.008800
-0.008239
-0.007690
-0.007157
-0.006648
-0.006167
-0.005720
-0.005312
-0.004948
-0.004631
-0.004365
-0.004153
-0.003996
-0.003894
-0.003847
-0.003853
-0.003910
-0.004014
-0.004164
-0.004356
-0.004587
-0.004858
-0.015620
-0.015910
-0.016146
-0.016332
-0.016470
-0.016562
-0.016610
-0.016616
-0.016581
-0.016506
-0.016392
-0.016239
-0.016048
-0.015819
-0.015553
-0.015252
-0.014915
-0.014544
-0.014141
-0.013707
-0.013243
-0.012753
-0.012238
-0.011702
-0.011149
-0.010581
-0.010004
-0.009422
-0.008840
-0.008264
-0.007699
-0.007151
-0.006626
-0.006130
-0.005668
-0.005246
-0.004870
-0.004543
-0.004269
-0.004051
-0.003891
-0.003789
-0.003744
-0.003756
-0.003822
-0.003939
-0.004104
-0.004314
-0.004566
-0.004859
-0.015733
-0.016043
-0.016297
-0.016497
-0.016646
-0.016746
-0.016801
-0.016811
-0.016779
-0.016706
-0.016592
-0.016439
-0.016247
-0.016016
-0.015748
-0.015444
-0.015103
-0.014727
-0.014318
-0.013876
-0.013404
-0.012904
-0.012379
-0.011830
-0.011263
-0.010680
-0.010086
-0.009486
-0.008885
-0.008289
-0.007704
-0.007135
-0.006590
-0.006074
-0.005593
-0.005153
-0.004761
-0.004421
-0.004136
-0.003910
-0.003745
-0.003642
-0.003600
-0.003619
-0.003694
-0.003825
-0.004006
-0.004234
-0.004506
-0.004821
-0.015906
-0.016235
-0.016505
-0.016718
-0.016878
-0.016988
-0.017049
-0.017064
-0.017034
-0.016962
-0.016849
-0.016695
-0.016501
-0.016268
-0.015996
-0.015686
-0.015340
-0.014957
-0.014539
-0.014088
-0.013605
-0.013092
-0.012552
-0.011987
-0.011402
-0.010800
-0.010185
-0.009562
-0.008938
-0.008317
-0.007706
-0.007112
-0.006541
-0.006000
-0.005495
-0.005034
-0.004622
-0.004264
-0.003966
-0.003730
-0.003559
-0.003453
-0.003414
-0.003438
-0.003524
-0.003668
-0.003866
-0.004113
-0.004406
-0.004741
-0.016141
-0.016488
-0.016774
-0.017001
-0.017172
-0.017290
-0.017357
-0.017376
-0.017350
-0.017279
-0.017165
-0.017009
-0.016813
-0.016576
-0.016299
-0.015983
-0.015629
-0.015237
-0.014808
-0.014345
-0.013848
-0.013319
-0.012761
-0.012177
-0.011570
-0.010944
-0.010303
-0.009654
-0.009000
-0.008350
-0.007708
-0.007083
-0.006481
-0.005910
-0.005376
-0.004888
-0.004452
-0.004073
-0.003758
-0.003509
-0.003330
-0.003221
-0.003183
-0.003214
-0.003310
-0.003468
-0.003684
-0.003951
-0.004266
-0.004623
-0.016439
-0.016805
-0.017108
-0.017348
-0.017530
-0.017656
-0.017730
-0.017753
-0.017729
-0.017659
-0.017544
-0.017386
-0.017186
-0.016944
-0.016660
-0.016337
-0.015973
-0.015570
-0.015129
-0.014651
-0.014137
-0.013590
-0.013011
-0.012403
-0.011771
-0.011117
-0.010446
-0.009764
-0.009077
-0.008391
-0.007714
-0.007052
-0.006413
-0.005806
-0.005238
-0.004718
-0.004252
-0.003848
-0.003512
-0.003247
-0.003057
-0.002943
-0.002906
-0.002942
-0.003050
-0.003224
-0.003458
-0.003747
-0.004084
-0.004465
-0.016803
-0.017189
-0.017508
-0.017763
-0.017956
-0.018091
-0.018170
-0.018198
-0.018175
-0.018106
-0.017989
-0.017828
-0.017624
-0.017375
-0.017085
-0.016752
-0.016377
-0.015961
-0.015505
-0.015010
-0.014477
-0.013908
-0.013305
-0.012671
-0.012009
-0.011323
-0.010617
-0.009899
-0.009172
-0.008446
-0.007726
-0.007021
-0.006339
-0.005690
-0.005082
-0.004523
-0.004023
-0.003588
-0.003226
-0.002941
-0.002738
-0.002617
-0.002580
-0.002622
-0.002741
-0.002931
-0.003186
-0.003499
-0.003862
-0.004269
-0.017236
-0.017643
-0.017980
-0.018249
-0.018453
-0.018597
-0.018683
-0.018714
-0.018694
-0.018623
-0.018505
-0.018341
-0.018130
-0.017875
-0.017575
-0.017232
-0.016845
-0.016414
-0.015942
-0.015427
-0.014873
-0.014280
-0.013650
-0.012986
-0.012291
-0.011569
-0.010824
-0.010063
-0.009292
-0.008519
-0.007751
-0.006996
-0.006265
-0.005566
-0.004910
-0.004306
-0.003765
-0.003293
-0.002901
-0.002592
-0.002371
-0.002241
-0.002202
-0.002250
-0.002381
-0.002590
-0.002867
-0.003206
-0.003598
-0.004034
-0.017741
-0.018170
-0.018525
-0.018810
-0.019027
-0.019179
-0.019271
-0.019306
-0.019287
-0.019217
-0.019096
-0.018927
-0.018710
-0.018447
-0.018138
-0.017783
-0.017382
-0.016935
-0.016444
-0.015909
-0.015331
-0.014711
-0.014051
-0.013354
-0.012622
-0.011860
-0.011072
-0.010264
-0.009443
-0.008617
-0.007793
-0.006982
-0.006194
-0.005438
-0.004726
-0.004070
-0.003479
-0.002965
-0.002534
-0.002196
-0.001954
-0.001812
-0.001769
-0.001822
-0.001966
-0.002195
-0.002498
-0.002867
-0.003292
-0.003762
-0.018320
-0.018774
-0.019150
-0.019451
-0.019680
-0.019842
-0.019941
-0.019980
-0.019962
-0.019890
-0.019766
-0.019592
-0.019369
-0.019097
-0.018777
-0.018409
-0.017993
-0.017530
-0.017019
-0.016461
-0.015857
-0.015208
-0.014516
-0.013783
-0.013012
-0.012206
-0.011370
-0.010509
-0.009633
-0.008747
-0.007862
-0.006987
-0.006133
-0.005312
-0.004536
-0.003817
-0.003169
-0.002602
-0.002128
-0.001753
-0.001485
-0.001326
-0.001277
-0.001335
-0.001493
-0.001744
-0.002077
-0.002480
-0.002942
-0.003452
-0.018979
-0.019459
-0.019857
-0.020176
-0.020419
-0.020591
-0.020696
-0.020739
-0.020722
-0.020649
-0.020522
-0.020343
-0.020112
-0.019831
-0.019499
-0.019118
-0.018686
-0.018204
-0.017673
-0.017091
-0.016460
-0.015781
-0.015054
-0.014283
-0.013469
-0.012615
-0.011727
-0.010810
-0.009872
-0.008921
-0.007966
-0.007019
-0.006091
-0.005194
-0.004344
-0.003554
-0.002838
-0.002209
-0.001681
-0.001262
-0.000961
-0.000781
-0.000723
-0.000784
-0.000957
-0.001233
-0.001599
-0.002042
-0.002548
-0.003104
-0.019720
-0.020229
-0.020652
-0.020990
-0.021248
-0.021431
-0.021543
-0.021590
-0.021574
-0.021499
-0.021369
-0.021183
-0.020945
-0.020654
-0.020310
-0.019915
-0.019467
-0.018967
-0.018413
-0.017807
-0.017148
-0.016437
-0.015674
-0.014862
-0.014003
-0.013099
-0.012155
-0.011177
-0.010172
-0.009149
-0.008117
-0.007089
-0.006077
-0.005096
-0.004160
-0.003286
-0.002490
-0.001788
-0.001195
-0.000722
-0.000379
-0.000172
-0.000101
-0.000164
-0.000352
-0.000655
-0.001060
-0.001549
-0.002107
-0.002718
-0.020550
-0.021092
-0.021541
-0.021900
-0.022174
-0.022368
-0.022488
-0.022538
-0.022524
-0.022447
-0.022313
-0.022121
-0.021874
-0.021573
-0.021218
-0.020808
-0.020344
-0.019824
-0.019249
-0.018618
-0.017930
-0.017186
-0.016387
-0.015533
-0.014627
-0.013670
-0.012668
-0.011623
-0.010546
-0.009445
-0.008330
-0.007212
-0.006106
-0.005028
-0.003994
-0.003023
-0.002133
-0.001344
-0.000673
-0.000134
0.000261
0.000504
0.000594
0.000532
0.000328
-0.000006
-0.000454
-0.000998
-0.001617
-0.002294
-0.021474
-0.022051
-0.022529
-0.022912
-0.023203
-0.023410
-0.023538
-0.023592
-0.023578
-0.023500
-0.023361
-0.023163
-0.022908
-0.022597
-0.022229
-0.021805
-0.021325
-0.020786
-0.020189
-0.019532
-0.018816
-0.018040
-0.017203
-0.016307
-0.015353
-0.014342
-0.013279
-0.012166
-0.011012
-0.009827
-0.008621
-0.007405
-0.006195
-0.005007
-0.003861
-0.002778
-0.001779
-0.000886
-0.000120
0.000500
0.000961
0.001251
0.001367
0.001311
0.001092
0.000724
0.000225
-0.000382
-0.001075
-0.001831
-0.022498
-0.023115
-0.023625
-0.024033
-0.024343
-0.024563
-0.024699
-0.024758
-0.024745
-0.024665
-0.024521
-0.024317
-0.024053
-0.023732
-0.023352
-0.022915
-0.022418
-0.021861
-0.021242
-0.020562
-0.019818
-0.019009
-0.018136
-0.017198
-0.016196
-0.015131
-0.014005
-0.012821
-0.011588
-0.010314
-0.009010
-0.007687
-0.006362
-0.005053
-0.003781
-0.002568
-0.001441
-0.000425
0.000455
0.001176
0.001719
0.002071
0.002225
0.002181
0.001949
0.001544
0.000988
0.000306
-0.000475
-0.001326
-0.023630
-0.024290
-0.024836
-0.025272
-0.025603
-0.025837
-0.025982
-0.026045
-0.026032
-0.025950
-0.025801
-0.025590
-0.025319
-0.024987
-0.024596
-0.024145
-0.023632
-0.023058
-0.022420
-0.021716
-0.020946
-0.020107
-0.019199
-0.018220
-0.017171
-0.016052
-0.014865
-0.013610
-0.012295
-0.010929
-0.009522
-0.008085
-0.006635
-0.005191
-0.003776
-0.002416
-0.001140
0.000022
0.001040
0.001886
0.002534
0.002967
0.003174
0.003152
0.002911
0.002468
0.001846
0.001076
0.000191
-0.000777
-0.024877
-0.025587
-0.026172
-0.026638
-0.026992
-0.027241
-0.027395
-0.027462
-0.027449
-0.027364
-0.027211
-0.026993
-0.026712
-0.026371
-0.025968
-0.025504
-0.024978
-0.024387
-0.023731
-0.023006
-0.022212
-0.021345
-0.020404
-0.019388
-0.018295
-0.017125
-0.015878
-0.014555
-0.013158
-0.011698
-0.010184
-0.008627
-0.007043
-0.005452
-0.003878
-0.002351
-0.000902
0.000433
0.001617
0.002617
0.003399
0.003938
0.004218
0.004234
0.003992
0.003510
0.002815
0.001943
0.000932
-0.000178
-0.026250
-0.027014
-0.027644
-0.028143
-0.028520
-0.028785
-0.028948
-0.029019
-0.029006
-0.028917
-0.028758
-0.028533
-0.028243
-0.027892
-0.027479
-0.027003
-0.026463
-0.025858
-0.025185
-0.024443
-0.023627
-0.022736
-0.021767
-0.020717
-0.019584
-0.018367
-0.017065
-0.015677
-0.014201
-0.012649
-0.011027
-0.009346
-0.007622
-0.005873
-0.004125
-0.002410
-0.000763
0.000775
0.002160
0.003349
0.004300
0.004980
0.005363
0.005437
0.005207
0.004689
0.003914
0.002923
0.001763
0.000480
-0.027758
-0.028584
-0.029262
-0.029799
-0.030202
-0.030483
-0.030655
-0.030728
-0.030714
-0.030620
-0.030454
-0.030220
-0.029921
-0.029560
-0.029136
-0.028649
-0.028097
-0.027480
-0.026794
-0.026035
-0.025203
-0.024291
-0.023299
-0.022221
-0.021055
-0.019798
-0.018447
-0.017001
-0.015453
-0.013813
-0.012087
-0.010282
-0.008413
-0.006498
-0.004562
-0.002638
-0.000766
0.001007
0.002632
0.004053
0.005219
0.006083
0.006607
0.006772
0.006574
0.006028
0.005169
0.004043
0.002705
0.001212
-0.029416
-0.030311
-0.031043
-0.031620
-0.032050
-0.032348
-0.032528
-0.032602
-0.032584
-0.032484
-0.032309
-0.032064
-0.031755
-0.031383
-0.030948
-0.030451
-0.029889
-0.029261
-0.028564
-0.027794
-0.026948
-0.026022
-0.025013
-0.023914
-0.022723
-0.021434
-0.020044
-0.018550
-0.016940
-0.015222
-0.013399
-0.011475
-0.009463
-0.007377
-0.005243
-0.003093
-0.000969
0.001077
0.002985
0.004690
0.006126
0.007229
0.007948
0.008246
0.008112
0.007555
0.006610
0.005332
0.003786
0.002040
-0.031236
-0.032209
-0.033003
-0.033623
-0.034082
-0.034396
-0.034582
-0.034655
-0.034631
-0.034520
-0.034333
-0.034076
-0.033754
-0.033370
-0.032924
-0.032416
-0.031845
-0.031208
-0.030503
-0.029725
-0.028871
-0.027937
-0.026917
-0.025807
-0.024600
-0.023291
-0.021874
-0.020342
-0.018690
-0.016907
-0.015000
-0.012969
-0.010820
-0.008566
-0.006228
-0.003837
-0.001437
0.000917
0.003157
0.005205
0.006977
0.008391
0.009372
0.009865
0.009840
0.009300
0.008277
0.006833
0.005045
0.002997
-0.033237
-0.034300
-0.035161
-0.035829
-0.036317
-0.036646
-0.036835
-0.036903
-0.036867
-0.036742
-0.036539
-0.036265
-0.035928
-0.035529
-0.035070
-0.034551
-0.033970
-0.033326
-0.032615
-0.031833
-0.030977
-0.030040
-0.029019
-0.027906
-0.026695
-0.025379
-0.023950
-0.022400
-0.020721
-0.018894
-0.016922
-0.014802
-0.012532
-0.010121
-0.007582
-0.004944
-0.002247
0.000449
0.003071
0.005528
0.007715
0.009526
0.010858
0.011627
0.011779
0.011299
0.010216
0.008597
0.006534
0.004128
-0.035440
-0.036605
-0.037542
-0.038261
-0.038779
-0.039119
-0.039305
-0.039362
-0.039308
-0.039162
-0.038936
-0.038641
-0.038283
-0.037866
-0.037391
-0.036859
-0.036268
-0.035617
-0.034902
-0.034119
-0.033264
-0.032332
-0.031317
-0.030212
-0.029010
-0.027702
-0.026278
-0.024729
-0.023044
-0.021201
-0.019192
-0.017009
-0.014644
-0.012094
-0.009368
-0.006485
-0.003480
-0.000412
0.002641
0.005575
0.008266
0.010578
0.012371
0.013523
0.013944
0.013593
0.012486
0.010692
0.008322
0.005498
-0.037870
-0.039153
-0.040175
-0.040948
-0.041494
-0.041840
-0.042017
-0.042052
-0.041971
-0.041794
-0.041537
-0.041212
-0.040826
-0.040384
-0.039889
-0.039340
-0.038737
-0.038078
-0.037359
-0.036578
-0.035729
-0.034807
-0.033806
-0.032720
-0.031539
-0.030255
-0.028856
-0.027330
-0.025662
-0.023836
-0.021823
-0.019611
-0.017184
-0.014529
-0.011640
-0.008527
-0.005215
-0.001756
0.001771
0.005253
0.008545
0.011476
0.013865
0.015536
0.016351
0.016226
0.015154
0.013204
0.010501
0.007197
-0.040560
-0.041978
-0.043095
-0.043925
-0.044494
-0.044838
-0.044993
-0.044994
-0.044872
-0.044651
-0.044350
-0.043984
-0.043560
-0.043085
-0.042562
-0.041991
-0.041372
-0.040701
-0.039978
-0.039198
-0.038357
-0.037450
-0.036471
-0.035413
-0.034267
-0.033022
-0.031668
-0.030189
-0.028567
-0.026786
-0.024807
-0.022610
-0.020165
-0.017447
-0.014434
-0.011120
-0.007515
-0.003659
0.000375
0.004469
0.008460
0.012143
0.015283
0.017643
0.019013
0.019251
0.018307
0.016239
0.013190
0.009342
-0.043549
-0.045125
-0.046348
-0.047235
-0.047820
-0.048147
-0.048263
-0.048211
-0.048028
-0.047744
-0.047382
-0.046959
-0.046484
-0.045964
-0.045403
-0.044801
-0.044158
-0.043472
-0.042740
-0.041960
-0.041128
-0.040238
-0.039286
-0.038263
-0.037163
-0.035973
-0.034682
-0.033273
-0.031725
-0.030017
-0.028116
-0.025981
-0.023568
-0.020838
-0.017752
-0.014281
-0.010415
-0.006174
-0.001616
0.003143
0.007929
0.012501
0.016569
0.019818
0.021948
0.022731
0.022051
0.019938
0.016545
0.012095
-0.046888
-0.048649
-0.049989
-0.050930
-0.051517
-0.051806
-0.051858
-0.051725
-0.051454
-0.051082
-0.050636
-0.050134
-0.049589
-0.049009
-0.048395
-0.047751
-0.047075
-0.046365
-0.045619
-0.044835
-0.044009
-0.043136
-0.042213
-0.041232
-0.040185
-0.039062
-0.037850
-0.036532
-0.035085
-0.033482
-0.031692
-0.029664
-0.027338
-0.024654
-0.021553
-0.017981
-0.013901
-0.009303
-0.004224
0.001236
0.006898
0.012496
0.017681
0.022048
0.025186
0.026748
0.026521
0.024477
0.020771
0.015666
-0.050643
-0.052622
-0.054090
-0.055077
-0.055643
-0.055862
-0.055811
-0.055559
-0.055163
-0.054668
-0.054106
-0.053499
-0.052860
-0.052197
-0.051514
-0.050812
-0.050089
-0.049345
-0.048576
-0.047781
-0.046956
-0.046097
-0.045202
-0.044264
-0.043275
-0.042227
-0.041106
-0.039894
-0.038568
-0.037098
-0.035444
-0.033567
-0.031376
-0.028795
-0.025739
-0.022129
-0.017892
-0.012983
-0.007405
-0.001230
0.005373
0.012122
0.018613
0.024349
0.028785
0.031418
0.031895
0.030090
0.026137
0.020339
-0.054900
-0.057137
-0.058743
-0.059760
-0.060268
-0.060367
-0.060159
-0.059733
-0.059160
-0.058495
-0.057776
-0.057027
-0.056264
-0.055493
-0.054719
-0.053939
-0.053155
-0.052362
-0.051559
-0.050743
-0.049911
-0.049061
-0.048189
-0.047292
-0.046362
-0.045391
-0.044366
-0.043270
-0.042078
-0.040759
-0.039267
-0.037553
-0.035542
-0.033110
-0.030155
-0.026564
-0.022230
-0.017065
-0.011025
-0.004142
0.003442
0.011446
0.019427
0.026793
0.032850
0.036906
0.038407
0.037081
0.032995
0.026485
-0.059774
-0.062321
-0.064072
-0.065084
-0.065474
-0.065379
-0.064935
-0.064257
-0.063437
-0.062541
-0.061612
-0.060678
-0.059753
-0.058844
-0.057951
-0.057073
-0.056208
-0.055351
-0.054500
-0.053652
-0.052804
-0.051954
-0.051099
-0.050236
-0.049360
-0.048463
-0.047533
-0.046553
-0.045499
-0.044336
-0.043015
-0.041477
-0.039661
-0.037405
-0.034584
-0.031057
-0.026675
-0.021305
-0.014848
-0.007280
0.001302
0.010642
0.020277
0.029535
0.037566
0.043451
0.046380
0.045852
0.041813
0.034596
-0.065424
-0.068347
-0.070239
-0.071188
-0.071363
-0.070961
-0.070165
-0.069129
-0.067968
-0.066761
-0.065556
-0.064383
-0.063253
-0.062169
-0.061130
-0.060131
-0.059166
-0.058230
-0.057318
-0.056426
-0.055551
-0.054691
-0.053844
-0.053007
-0.052176
-0.051345
-0.050501
-0.049630
-0.048704
-0.047689
-0.046532
-0.045160
-0.043528
-0.041448
-0.038770
-0.035321
-0.030919
-0.025376
-0.018537
-0.010310
-0.000725
0.010007
0.021440
0.032843
0.043218
0.051396
0.056243
0.056937
0.053203
0.045324
-0.072076
-0.075460
-0.077468
-0.078246
-0.078051
-0.077170
-0.075858
-0.074318
-0.072693
-0.071075
-0.069515
-0.068041
-0.066658
-0.065363
-0.064150
-0.063007
-0.061926
-0.060897
-0.059912
-0.058966
-0.058055
-0.057177
-0.056329
-0.055510
-0.054714
-0.053935
-0.053164
-0.052383
-0.051568
-0.050678
-0.049661
-0.048441
-0.046928
-0.044999
-0.042435
-0.039044
-0.034607
-0.028893
-0.021680
-0.012802
-0.002210
0.009961
0.023316
0.037110
0.050220
0.061216
0.068577
0.071042
0.067985
0.059534
-0.080061
-0.084013
-0.086067
-0.086482
-0.085668
-0.084051
-0.081990
-0.079749
-0.077503
-0.075353
-0.073348
-0.071506
-0.069823
-0.068284
-0.066872
-0.065570
-0.064361
-0.063232
-0.062168
-0.061164
-0.060212
-0.059312
-0.058458
-0.057648
-0.056877
-0.056137
-0.055420
-0.054707
-0.053972
-0.053174
-0.052253
-0.051130
-0.049694
-0.047841
-0.045321
-0.041920
-0.037390
-0.031459
-0.023840
-0.014280
-0.002654
0.011009
0.026413
0.042845
0.059111
0.073532
0.084140
0.089102
0.087252
0.078392
-0.089893
-0.094536
-0.096469
-0.096178
-0.094342
-0.091606
-0.088471
-0.085274
-0.082216
-0.079398
-0.076854
-0.074581
-0.072559
-0.070753
-0.069130
-0.067662
-0.066327
-0.065101
-0.063963
-0.062905
-0.061915
-0.060994
-0.060135
-0.059331
-0.058579
-0.057865
-0.057183
-0.056513
-0.055824
-0.055073
-0.054195
-0.053101
-0.051672
-0.049796
-0.047217
-0.043699
-0.038973
-0.032735
-0.024634
-0.014298
-0.001566
0.013662
0.031269
0.050618
0.070520
0.089097
0.103897
0.112350
0.112487
0.103502
-0.102410
-0.107851
-0.109284
-0.107671
-0.104167
-0.099750
-0.095102
-0.090633
-0.086547
-0.082924
-0.079758
-0.077008
-0.074631
-0.072557
-0.070728
-0.069107
-0.067668
-0.066368
-0.065171
-0.064079
-0.063078
-0.062150
-0.061291
-0.060496
-0.059757
-0.059065
-0.058406
-0.057758
-0.057086
-0.056340
-0.055450
-0.054316
-0.052809
-0.050794
-0.048020
-0.044234
-0.039139
-0.032396
-0.023638
-0.012523
0.001424
0.018294
0.038342
0.060934
0.085060
0.108722
0.129000
0.142389
0.145738
0.137156
-0.119054
-0.125269
-0.125360
-0.121315
-0.115117
-0.108222
-0.101502
-0.095403
-0.090075
-0.085540
-0.081707
-0.078466
-0.075765
-0.073461
-0.071477
-0.069766
-0.068256
-0.066910
-0.065696
-0.064598
-0.063600
-0.062686
-0.061847
-0.061075
-0.060361
-0.059692
-0.059051
-0.058411
-0.057732
-0.056959
-0.056011
-0.054781
-0.053126
-0.050879
-0.047807
-0.043634
-0.038037
-0.030638
-0.021022
-0.008747
0.006643
0.025475
0.047918
0.074024
0.103120
0.133083
0.160674
0.181251
0.189888
0.182780
-0.142482
-0.148917
-0.145812
-0.137348
-0.126876
-0.116436
-0.106997
-0.098940
-0.092205
-0.086743
-0.082288
-0.078671
-0.075711
-0.073253
-0.071191
-0.069439
-0.067926
-0.066600
-0.065423
-0.064370
-0.063420
-0.062558
-0.061770
-0.061047
-0.060375
-0.059741
-0.059121
-0.058484
-0.057786
-0.056961
-0.055924
-0.054554
-0.052697
-0.050151
-0.046704
-0.042058
-0.035861
-0.027700
-0.017109
-0.003570
0.013462
0.034505
0.059999
0.090178
0.124663
0.162320
0.199889
0.231319
0.249050
0.245802
-0.177906
-0.182245
-0.171867
-0.155519
-0.138480
-0.123249
-0.110471
-0.100339
-0.092262
-0.085992
-0.081078
-0.077216
-0.074153
-0.071689
-0.069677
-0.068006
-0.066594
-0.065378
-0.064315
-0.063373
-0.062530
-0.061768
-0.061073
-0.060431
-0.059829
-0.059248
-0.058662
-0.058035
-0.057316
-0.056435
-0.055294
-0.053766
-0.051682
-0.048816
-0.044970
-0.039826
-0.033004
-0.024060
-0.012475
0.002342
0.021053
0.044375
0.073051
0.107756
0.148852
0.195889
0.246588
0.294823
0.329009
0.335254
-0.236215
-0.230479
-0.204035
-0.174168
-0.147648
-0.126657
-0.110469
-0.098363
-0.089327
-0.082609
-0.077584
-0.073792
-0.070896
-0.068649
-0.066874
-0.065442
-0.064261
-0.063264
-0.062407
-0.061654
-0.060984
-0.060377
-0.059820
-0.059299
-0.058797
-0.058296
-0.057765
-0.057166
-0.056442
-0.055518
-0.054288
-0.052617
-0.050326
-0.047181
-0.042984
-0.037401
-0.030034
-0.020410
-0.007967
0.007958
0.028145
0.053516
0.085158
0.124336
0.172421
0.230559
0.298577
0.372133
0.437165
0.466775
-0.341297
-0.299580
-0.239221
-0.188292
-0.150240
-0.123361
-0.104613
-0.091584
-0.082483
-0.076084
-0.071544
-0.068289
-0.065925
-0.064179
-0.062864
-0.061849
-0.061043
-0.060382
-0.059824
-0.059338
-0.058904
-0.058506
-0.058132
-0.057768
-0.057401
-0.057009
-0.056563
-0.056021
-0.055324
-0.054394
-0.053122
-0.051366
-0.048940
-0.045628
-0.041211
-0.035352
-0.027643
-0.017596
-0.004619
0.012001
0.033141
0.059899
0.093691
0.136409
0.190635
0.259845
0.348159
0.457878
0.579641
0.668447
-0.545091
-0.386808
-0.263811
-0.185845
-0.138211
-0.108938
-0.090595
-0.078885
-0.071296
-0.066328
-0.063059
-0.060901
-0.059475
-0.058531
-0.057901
-0.057474
-0.057174
-0.056951
-0.056773
-0.056617
-0.056470
-0.056323
-0.056167
-0.055994
-0.055790
-0.055538
-0.055210
-0.054764
-0.054144
-0.053270
-0.052035
-0.050298
-0.047869
-0.044567
-0.040143
-0.034270
-0.026546
-0.016482
-0.003485
0.013174
0.034411
0.061410
0.095789
0.139891
0.197353
0.274163
0.380472
0.532556
0.747722
0.992817
-0.945849
-0.435713
-0.233633
-0.145634
-0.102819
-0.080197
-0.067594
-0.060378
-0.056234
-0.053914
-0.052701
-0.052164
-0.052035
-0.052142
-0.052375
-0.052664
-0.052964
-0.053247
-0.053499
-0.053711
-0.053881
-0.054009
-0.054093
-0.054130
-0.054113
-0.054029
-0.053853
-0.053551
-0.053070
-0.052335
-0.051245
-0.049665
-0.047429
-0.044355
-0.040199
-0.034651
-0.027329
-0.017768
-0.005399
0.010472
0.030712
0.056448
0.089222
0.131328
0.186561
0.262027
0.372694
0.552505
0.877645
1.510213
