# vtk DataFile Version 3.0
Vector Field
ASCII
DATASET RECTILINEAR_GRID
DIMENSIONS 50 50 1
X_COORDINATES 50 double
0.100000 0.300000 0.500000 0.700000 0.900000 1.100000 1.300000 1.500000 1.700000 1.900000 2.100000 2.300000 2.500000 2.700000 2.900000 3.100000 3.300000 3.500000 3.700000 3.900000 4.100000 4.300000 4.500000 4.700000 4.900000 5.100000 5.300000 5.500000 5.700000 5.900000 6.100000 6.300000 6.500000 6.700000 6.900000 7.100000 7.300000 7.500000 7.700000 7.900000 8.100000 8.300000 8.500000 8.700000 8.900000 9.100000 9.300000 9.500000 9.700000 9.900000 
Y_COORDINATES 50 double
0.100000 0.300000 0.500000 0.700000 0.900000 1.100000 1.300000 1.500000 1.700000 1.900000 2.100000 2.300000 2.500000 2.700000 2.900000 3.100000 3.300000 3.500000 3.700000 3.900000 4.100000 4.300000 4.500000 4.700000 4.900000 5.100000 5.300000 5.500000 5.700000 5.900000 6.100000 6.300000 6.500000 6.700000 6.900000 7.100000 7.300000 7.500000 7.700000 7.900000 8.100000 8.300000 8.500000 8.700000 8.900000 9.100000 9.300000 9.500000 9.700000 9.900000 
Z_COORDINATES 1 double
0.0
POINT_DATA 2500
VECTORS Vektorfeld double
-0.000006 0.000006 0.0
-0.000070 0.000058 0.0
-0.000224 0.000096 0.0
-0.000434 0.000115 0.0
-0.000671 0.000122 0.0
-0.000915 0.000122 0.0
-0.001158 0.000120 0.0
-0.001396 0.000117 0.0
-0.001626 0.000114 0.0
-0.001849 0.000109 0.0
-0.002063 0.000105 0.0
-0.002268 0.000100 0.0
-0.002462 0.000094 0.0
-0.002645 0.000088 0.0
-0.002816 0.000082 0.0
-0.002974 0.000076 0.0
-0.003118 0.000069 0.0
-0.003248 0.000062 0.0
-0.003364 0.000054 0.0
-0.003465 0.000046 0.0
-0.003550 0.000039 0.0
-0.003619 0.000031 0.0
-0.003672 0.000022 0.0
-0.003708 0.000014 0.0
-0.003728 0.000006 0.0
-0.003730 -0.000003 0.0
-0.003716 -0.000011 0.0
-0.003686 -0.000020 0.0
-0.003638 -0.000028 0.0
-0.003574 -0.000036 0.0
-0.003493 -0.000044 0.0
-0.003397 -0.000052 0.0
-0.003284 -0.000060 0.0
-0.003157 -0.000068 0.0
-0.003014 -0.000075 0.0
-0.002858 -0.000082 0.0
-0.002687 -0.000088 0.0
-0.002504 -0.000095 0.0
-0.002309 -0.000100 0.0
-0.002103 -0.000106 0.0
-0.001886 -0.000111 0.0
-0.001660 -0.000115 0.0
-0.001425 -0.000119 0.0
-0.001184 -0.000123 0.0
-0.000936 -0.000125 0.0
-0.000687 -0.000124 0.0
-0.000445 -0.000117 0.0
-0.000230 -0.000098 0.0
-0.000073 -0.000059 0.0
-0.000007 -0.000007 0.0
-0.000058 0.000070 0.0
-0.000272 0.000272 0.0
-0.000653 0.000416 0.0
-0.001140 0.000492 0.0
-0.001681 0.000522 0.0
-0.002240 0.000526 0.0
-0.002799 0.000518 0.0
-0.003347 0.000505 0.0
-0.003880 0.000490 0.0
-0.004396 0.000472 0.0
-0.004891 0.000452 0.0
-0.005364 0.000430 0.0
-0.005813 0.000407 0.0
-0.006235 0.000381 0.0
-0.006629 0.000354 0.0
-0.006993 0.000326 0.0
-0.007326 0.000296 0.0
-0.007626 0.000265 0.0
-0.007892 0.000233 0.0
-0.008123 0.000200 0.0
-0.008318 0.000165 0.0
-0.008476 0.000131 0.0
-0.008597 0.000095 0.0
-0.008679 0.000060 0.0
-0.008723 0.000024 0.0
-0.008728 -0.000013 0.0
-0.008695 -0.000049 0.0
-0.008622 -0.000085 0.0
-0.008511 -0.000121 0.0
-0.008362 -0.000157 0.0
-0.008175 -0.000191 0.0
-0.007951 -0.000226 0.0
-0.007691 -0.000259 0.0
-0.007396 -0.000291 0.0
-0.007067 -0.000323 0.0
-0.006705 -0.000352 0.0
-0.006312 -0.000381 0.0
-0.005890 -0.000408 0.0
-0.005440 -0.000433 0.0
-0.004964 -0.000456 0.0
-0.004464 -0.000477 0.0
-0.003943 -0.000496 0.0
-0.003402 -0.000513 0.0
-0.002846 -0.000527 0.0
-0.002279 -0.000535 0.0
-0.001711 -0.000531 0.0
-0.001161 -0.000501 0.0
-0.000666 -0.000424 0.0
-0.000278 -0.000278 0.0
-0.000059 -0.000073 0.0
-0.000096 0.000224 0.0
-0.000419 0.000655 0.0
-0.000953 0.000949 0.0
-0.001614 0.001107 0.0
-0.002339 0.001171 0.0
-0.003085 0.001182 0.0
-0.003830 0.001166 0.0
-0.004563 0.001138 0.0
-0.005276 0.001103 0.0
-0.005965 0.001063 0.0
-0.006627 0.001018 0.0
-0.007259 0.000969 0.0
-0.007858 0.000915 0.0
-0.008421 0.000858 0.0
-0.008947 0.000797 0.0
-0.009433 0.000733 0.0
-0.009877 0.000666 0.0
-0.010278 0.000596 0.0
-0.010632 0.000523 0.0
-0.010940 0.000448 0.0
-0.011199 0.000371 0.0
-0.011410 0.000293 0.0
-0.011569 0.000214 0.0
-0.011679 0.000133 0.0
-0.011736 0.000052 0.0
-0.011742 -0.000030 0.0
-0.011696 -0.000111 0.0
-0.011599 -0.000193 0.0
-0.011450 -0.000273 0.0
-0.011250 -0.000353 0.0
-0.011000 -0.000432 0.0
-0.010700 -0.000509 0.0
-0.010353 -0.000584 0.0
-0.009958 -0.000656 0.0
-0.009519 -0.000726 0.0
-0.009035 -0.000794 0.0
-0.008511 -0.000857 0.0
-0.007946 -0.000918 0.0
-0.007345 -0.000974 0.0
-0.006710 -0.001026 0.0
-0.006043 -0.001074 0.0
-0.005347 -0.001117 0.0
-0.004627 -0.001154 0.0
-0.003885 -0.001184 0.0
-0.003130 -0.001201 0.0
-0.002373 -0.001191 0.0
-0.001639 -0.001126 0.0
-0.000968 -0.000966 0.0
-0.000425 -0.000667 0.0
-0.000098 -0.000230 0.0
-0.000117 0.000437 0.0
-0.000502 0.001149 0.0
-0.001128 0.001615 0.0
-0.001890 0.001864 0.0
-0.002717 0.001966 0.0
-0.003567 0.001983 0.0
-0.004414 0.001958 0.0
-0.005247 0.001912 0.0
-0.006057 0.001853 0.0
-0.006841 0.001785 0.0
-0.007593 0.001710 0.0
-0.008311 0.001627 0.0
-0.008992 0.001537 0.0
-0.009633 0.001441 0.0
-0.010230 0.001338 0.0
-0.010782 0.001230 0.0
-0.011286 0.001117 0.0
-0.011740 0.000999 0.0
-0.012142 0.000877 0.0
-0.012491 0.000751 0.0
-0.012785 0.000622 0.0
-0.013023 0.000491 0.0
-0.013204 0.000357 0.0
-0.013328 0.000222 0.0
-0.013392 0.000085 0.0
-0.013399 -0.000051 0.0
-0.013346 -0.000188 0.0
-0.013235 -0.000325 0.0
-0.013065 -0.000460 0.0
-0.012838 -0.000594 0.0
-0.012553 -0.000726 0.0
-0.012213 -0.000855 0.0
-0.011818 -0.000980 0.0
-0.011370 -0.001102 0.0
-0.010871 -0.001220 0.0
-0.010322 -0.001332 0.0
-0.009725 -0.001440 0.0
-0.009085 -0.001541 0.0
-0.008402 -0.001635 0.0
-0.007680 -0.001722 0.0
-0.006922 -0.001802 0.0
-0.006132 -0.001874 0.0
-0.005314 -0.001936 0.0
-0.004472 -0.001985 0.0
-0.003614 -0.002012 0.0
-0.002753 -0.001996 0.0
-0.001915 -0.001894 0.0
-0.001143 -0.001641 0.0
-0.000509 -0.001168 0.0
-0.000119 -0.000446 0.0
-0.000127 0.000681 0.0
-0.000543 0.001707 0.0
-0.001219 0.002358 0.0
-0.002037 0.002702 0.0
-0.002921 0.002841 0.0
-0.003827 0.002864 0.0
-0.004729 0.002827 0.0
-0.005615 0.002761 0.0
-0.006477 0.002676 0.0
-0.007310 0.002579 0.0
-0.008110 0.002469 0.0
-0.008873 0.002349 0.0
-0.009597 0.002219 0.0
-0.010278 0.002080 0.0
-0.010912 0.001931 0.0
-0.011499 0.001775 0.0
-0.012034 0.001611 0.0
-0.012516 0.001441 0.0
-0.012943 0.001264 0.0
-0.013314 0.001083 0.0
-0.013626 0.000897 0.0
-0.013878 0.000707 0.0
-0.014070 0.000514 0.0
-0.014201 0.000319 0.0
-0.014270 0.000122 0.0
-0.014276 -0.000075 0.0
-0.014220 -0.000273 0.0
-0.014102 -0.000470 0.0
-0.013922 -0.000665 0.0
-0.013680 -0.000858 0.0
-0.013378 -0.001048 0.0
-0.013017 -0.001234 0.0
-0.012597 -0.001415 0.0
-0.012121 -0.001591 0.0
-0.011590 -0.001761 0.0
-0.011007 -0.001923 0.0
-0.010374 -0.002078 0.0
-0.009693 -0.002224 0.0
-0.008967 -0.002360 0.0
-0.008199 -0.002486 0.0
-0.007394 -0.002602 0.0
-0.006554 -0.002705 0.0
-0.005683 -0.002794 0.0
-0.004788 -0.002864 0.0
-0.003875 -0.002904 0.0
-0.002958 -0.002882 0.0
-0.002063 -0.002742 0.0
-0.001234 -0.002394 0.0
-0.000550 -0.001734 0.0
-0.000128 -0.000693 0.0
-0.000131 0.000939 0.0
-0.000565 0.002299 0.0
-0.001268 0.003145 0.0
-0.002119 0.003585 0.0
-0.003038 0.003761 0.0
-0.003978 0.003788 0.0
-0.004913 0.003740 0.0
-0.005830 0.003652 0.0
-0.006723 0.003540 0.0
-0.007585 0.003410 0.0
-0.008413 0.003266 0.0
-0.009203 0.003107 0.0
-0.009952 0.002934 0.0
-0.010656 0.002749 0.0
-0.011313 0.002553 0.0
-0.011919 0.002346 0.0
-0.012473 0.002129 0.0
-0.012971 0.001904 0.0
-0.013413 0.001670 0.0
-0.013796 0.001430 0.0
-0.014118 0.001184 0.0
-0.014379 0.000933 0.0
-0.014578 0.000678 0.0
-0.014713 0.000420 0.0
-0.014784 0.000160 0.0
-0.014791 -0.000101 0.0
-0.014733 -0.000361 0.0
-0.014611 -0.000621 0.0
-0.014425 -0.000879 0.0
-0.014175 -0.001134 0.0
-0.013863 -0.001385 0.0
-0.013490 -0.001631 0.0
-0.013056 -0.001871 0.0
-0.012564 -0.002104 0.0
-0.012016 -0.002328 0.0
-0.011413 -0.002543 0.0
-0.010758 -0.002747 0.0
-0.010053 -0.002940 0.0
-0.009302 -0.003121 0.0
-0.008508 -0.003288 0.0
-0.007674 -0.003440 0.0
-0.006804 -0.003576 0.0
-0.005903 -0.003694 0.0
-0.004975 -0.003787 0.0
-0.004029 -0.003840 0.0
-0.003078 -0.003814 0.0
-0.002147 -0.003636 0.0
-0.001284 -0.003190 0.0
-0.000572 -0.002334 0.0
-0.000133 -0.000954 0.0
-0.000134 0.001204 0.0
-0.000579 0.002912 0.0
-0.001303 0.003959 0.0
-0.002179 0.004498 0.0
-0.003124 0.004712 0.0
-0.004090 0.004743 0.0
-0.005051 0.004681 0.0
-0.005994 0.004570 0.0
-0.006910 0.004430 0.0
-0.007795 0.004268 0.0
-0.008645 0.004086 0.0
-0.009455 0.003887 0.0
-0.010223 0.003671 0.0
-0.010946 0.003439 0.0
-0.011619 0.003193 0.0
-0.012240 0.002934 0.0
-0.012808 0.002662 0.0
-0.013319 0.002380 0.0
-0.013771 0.002088 0.0
-0.014163 0.001787 0.0
-0.014494 0.001480 0.0
-0.014762 0.001166 0.0
-0.014965 0.000847 0.0
-0.015104 0.000525 0.0
-0.015177 0.000200 0.0
-0.015184 -0.000126 0.0
-0.015125 -0.000452 0.0
-0.015001 -0.000777 0.0
-0.014811 -0.001100 0.0
-0.014556 -0.001419 0.0
-0.014236 -0.001732 0.0
-0.013854 -0.002040 0.0
-0.013410 -0.002340 0.0
-0.012907 -0.002631 0.0
-0.012344 -0.002911 0.0
-0.011726 -0.003180 0.0
-0.011055 -0.003437 0.0
-0.010332 -0.003678 0.0
-0.009562 -0.003904 0.0
-0.008747 -0.004113 0.0
-0.007891 -0.004304 0.0
-0.006998 -0.004475 0.0
-0.006072 -0.004623 0.0
-0.005118 -0.004740 0.0
-0.004145 -0.004807 0.0
-0.003167 -0.004777 0.0
-0.002208 -0.004562 0.0
-0.001320 -0.004015 0.0
-0.000587 -0.002955 0.0
-0.000136 -0.001223 0.0
-0.000137 0.001475 0.0
-0.000593 0.003541 0.0
-0.001336 0.004796 0.0
-0.002236 0.005438 0.0
-0.003208 0.005689 0.0
-0.004200 0.005724 0.0
-0.005187 0.005647 0.0
-0.006154 0.005513 0.0
-0.007094 0.005344 0.0
-0.008002 0.005147 0.0
-0.008874 0.004928 0.0
-0.009705 0.004687 0.0
-0.010492 0.004426 0.0
-0.011232 0.004146 0.0
-0.011922 0.003849 0.0
-0.012558 0.003536 0.0
-0.013139 0.003208 0.0
-0.013663 0.002868 0.0
-0.014126 0.002516 0.0
-0.014528 0.002154 0.0
-0.014866 0.001783 0.0
-0.015140 0.001404 0.0
-0.015349 0.001020 0.0
-0.015491 0.000632 0.0
-0.015566 0.000241 0.0
-0.015574 -0.000152 0.0
-0.015514 -0.000545 0.0
-0.015387 -0.000936 0.0
-0.015194 -0.001325 0.0
-0.014933 -0.001709 0.0
-0.014607 -0.002087 0.0
-0.014217 -0.002458 0.0
-0.013763 -0.002819 0.0
-0.013248 -0.003170 0.0
-0.012672 -0.003509 0.0
-0.012040 -0.003834 0.0
-0.011352 -0.004143 0.0
-0.010611 -0.004435 0.0
-0.009821 -0.004708 0.0
-0.008985 -0.004961 0.0
-0.008107 -0.005191 0.0
-0.007190 -0.005398 0.0
-0.006240 -0.005576 0.0
-0.005260 -0.005718 0.0
-0.004261 -0.005800 0.0
-0.003254 -0.005768 0.0
-0.002269 -0.005515 0.0
-0.001355 -0.004864 0.0
-0.000602 -0.003593 0.0
-0.000139 -0.001498 0.0
-0.000141 0.001753 0.0
-0.000609 0.004188 0.0
-0.001374 0.005657 0.0
-0.002301 0.006404 0.0
-0.003301 0.006695 0.0
-0.004322 0.006732 0.0
-0.005338 0.006641 0.0
-0.006333 0.006482 0.0
-0.007300 0.006282 0.0
-0.008233 0.006051 0.0
-0.009129 0.005792 0.0
-0.009983 0.005508 0.0
-0.010792 0.005201 0.0
-0.011552 0.004871 0.0
-0.012260 0.004522 0.0
-0.012913 0.004153 0.0
-0.013509 0.003768 0.0
-0.014046 0.003368 0.0
-0.014521 0.002954 0.0
-0.014933 0.002529 0.0
-0.015281 0.002093 0.0
-0.015562 0.001649 0.0
-0.015776 0.001198 0.0
-0.015922 0.000743 0.0
-0.016000 0.000283 0.0
-0.016009 -0.000178 0.0
-0.015948 -0.000639 0.0
-0.015819 -0.001098 0.0
-0.015621 -0.001554 0.0
-0.015355 -0.002006 0.0
-0.015022 -0.002450 0.0
-0.014622 -0.002885 0.0
-0.014157 -0.003310 0.0
-0.013629 -0.003723 0.0
-0.013040 -0.004121 0.0
-0.012391 -0.004503 0.0
-0.011684 -0.004867 0.0
-0.010924 -0.005211 0.0
-0.010113 -0.005533 0.0
-0.009253 -0.005831 0.0
-0.008350 -0.006103 0.0
-0.007407 -0.006346 0.0
-0.006428 -0.006557 0.0
-0.005420 -0.006725 0.0
-0.004389 -0.006824 0.0
-0.003352 -0.006789 0.0
-0.002337 -0.006496 0.0
-0.001395 -0.005738 0.0
-0.000619 -0.004249 0.0
-0.000143 -0.001780 0.0
-0.000145 0.002039 0.0
-0.000629 0.004854 0.0
-0.001418 0.006544 0.0
-0.002375 0.007401 0.0
-0.003408 0.007731 0.0
-0.004463 0.007772 0.0
-0.005511 0.007665 0.0
-0.006538 0.007480 0.0
-0.007536 0.007248 0.0
-0.008499 0.006981 0.0
-0.009423 0.006681 0.0
-0.010303 0.006353 0.0
-0.011136 0.005997 0.0
-0.011919 0.005617 0.0
-0.012648 0.005213 0.0
-0.013320 0.004788 0.0
-0.013933 0.004343 0.0
-0.014486 0.003882 0.0
-0.014974 0.003405 0.0
-0.015398 0.002914 0.0
-0.015755 0.002412 0.0
-0.016045 0.001901 0.0
-0.016265 0.001381 0.0
-0.016416 0.000856 0.0
-0.016496 0.000328 0.0
-0.016506 -0.000203 0.0
-0.016445 -0.000734 0.0
-0.016313 -0.001264 0.0
-0.016111 -0.001789 0.0
-0.015838 -0.002309 0.0
-0.015497 -0.002821 0.0
-0.015087 -0.003323 0.0
-0.014610 -0.003814 0.0
-0.014067 -0.004290 0.0
-0.013461 -0.004750 0.0
-0.012794 -0.005191 0.0
-0.012067 -0.005612 0.0
-0.011284 -0.006010 0.0
-0.010448 -0.006382 0.0
-0.009562 -0.006727 0.0
-0.008630 -0.007042 0.0
-0.007656 -0.007324 0.0
-0.006645 -0.007569 0.0
-0.005603 -0.007764 0.0
-0.004538 -0.007879 0.0
-0.003466 -0.007842 0.0
-0.002416 -0.007508 0.0
-0.001442 -0.006640 0.0
-0.000640 -0.004926 0.0
-0.000148 -0.002071 0.0
-0.000150 0.002335 0.0
-0.000651 0.005543 0.0
-0.001469 0.007462 0.0
-0.002461 0.008432 0.0
-0.003532 0.008804 0.0
-0.004624 0.008847 0.0
-0.005710 0.008723 0.0
-0.006774 0.008512 0.0
-0.007807 0.008247 0.0
-0.008803 0.007941 0.0
-0.009759 0.007599 0.0
-0.010669 0.007225 0.0
-0.011530 0.006819 0.0
-0.012338 0.006386 0.0
-0.013091 0.005926 0.0
-0.013785 0.005442 0.0
-0.014418 0.004936 0.0
-0.014987 0.004411 0.0
-0.015491 0.003868 0.0
-0.015928 0.003311 0.0
-0.016296 0.002741 0.0
-0.016595 0.002160 0.0
-0.016823 0.001570 0.0
-0.016978 0.000974 0.0
-0.017062 0.000374 0.0
-0.017073 -0.000229 0.0
-0.017011 -0.000832 0.0
-0.016876 -0.001433 0.0
-0.016669 -0.002030 0.0
-0.016389 -0.002620 0.0
-0.016038 -0.003202 0.0
-0.015617 -0.003774 0.0
-0.015126 -0.004331 0.0
-0.014568 -0.004874 0.0
-0.013943 -0.005397 0.0
-0.013254 -0.005900 0.0
-0.012504 -0.006380 0.0
-0.011696 -0.006834 0.0
-0.010831 -0.007259 0.0
-0.009915 -0.007653 0.0
-0.008950 -0.008013 0.0
-0.007942 -0.008336 0.0
-0.006894 -0.008616 0.0
-0.005814 -0.008840 0.0
-0.004709 -0.008973 0.0
-0.003597 -0.008933 0.0
-0.002507 -0.008558 0.0
-0.001496 -0.007574 0.0
-0.000663 -0.005627 0.0
-0.000153 -0.002372 0.0
-0.000156 0.002642 0.0
-0.000677 0.006258 0.0
-0.001528 0.008416 0.0
-0.002559 0.009502 0.0
-0.003672 0.009917 0.0
-0.004808 0.009963 0.0
-0.005937 0.009822 0.0
-0.007042 0.009582 0.0
-0.008114 0.009282 0.0
-0.009149 0.008937 0.0
-0.010140 0.008550 0.0
-0.011083 0.008127 0.0
-0.011975 0.007670 0.0
-0.012813 0.007181 0.0
-0.013592 0.006662 0.0
-0.014310 0.006117 0.0
-0.014965 0.005548 0.0
-0.015554 0.004957 0.0
-0.016075 0.004347 0.0
-0.016526 0.003721 0.0
-0.016907 0.003080 0.0
-0.017216 0.002428 0.0
-0.017451 0.001766 0.0
-0.017613 0.001096 0.0
-0.017700 0.000422 0.0
-0.017712 -0.000254 0.0
-0.017649 -0.000931 0.0
-0.017511 -0.001606 0.0
-0.017299 -0.002277 0.0
-0.017011 -0.002940 0.0
-0.016650 -0.003595 0.0
-0.016216 -0.004237 0.0
-0.015710 -0.004865 0.0
-0.015134 -0.005475 0.0
-0.014488 -0.006065 0.0
-0.013777 -0.006633 0.0
-0.013000 -0.007174 0.0
-0.012163 -0.007686 0.0
-0.011267 -0.008166 0.0
-0.010316 -0.008612 0.0
-0.009315 -0.009019 0.0
-0.008267 -0.009385 0.0
-0.007178 -0.009703 0.0
-0.006054 -0.009957 0.0
-0.004904 -0.010110 0.0
-0.003746 -0.010068 0.0
-0.002611 -0.009648 0.0
-0.001558 -0.008546 0.0
-0.000691 -0.006356 0.0
-0.000160 -0.002685 0.0
-0.000163 0.002961 0.0
-0.000707 0.007003 0.0
-0.001594 0.009408 0.0
-0.002670 0.010616 0.0
-0.003831 0.011076 0.0
-0.005016 0.011125 0.0
-0.006192 0.010965 0.0
-0.007344 0.010696 0.0
-0.008461 0.010359 0.0
-0.009537 0.009971 0.0
-0.010568 0.009538 0.0
-0.011549 0.009064 0.0
-0.012476 0.008552 0.0
-0.013346 0.008005 0.0
-0.014154 0.007426 0.0
-0.014899 0.006817 0.0
-0.015578 0.006182 0.0
-0.016188 0.005523 0.0
-0.016728 0.004843 0.0
-0.017195 0.004145 0.0
-0.017590 0.003431 0.0
-0.017910 0.002705 0.0
-0.018154 0.001968 0.0
-0.018322 0.001223 0.0
-0.018413 0.000473 0.0
-0.018427 -0.000279 0.0
-0.018363 -0.001033 0.0
-0.018222 -0.001784 0.0
-0.018003 -0.002530 0.0
-0.017707 -0.003270 0.0
-0.017335 -0.003999 0.0
-0.016887 -0.004715 0.0
-0.016364 -0.005415 0.0
-0.015768 -0.006097 0.0
-0.015100 -0.006757 0.0
-0.014363 -0.007391 0.0
-0.013558 -0.007997 0.0
-0.012688 -0.008570 0.0
-0.011757 -0.009109 0.0
-0.010768 -0.009609 0.0
-0.009726 -0.010067 0.0
-0.008634 -0.010478 0.0
-0.007498 -0.010835 0.0
-0.006325 -0.011122 0.0
-0.005125 -0.011295 0.0
-0.003915 -0.011251 0.0
-0.002729 -0.010787 0.0
-0.001629 -0.009560 0.0
-0.000722 -0.007117 0.0
-0.000167 -0.003011 0.0
-0.000171 0.003295 0.0
-0.000740 0.007782 0.0
-0.001668 0.010446 0.0
-0.002794 0.011781 0.0
-0.004009 0.012287 0.0
-0.005248 0.012338 0.0
-0.006478 0.012158 0.0
-0.007681 0.011857 0.0
-0.008848 0.011481 0.0
-0.009972 0.011049 0.0
-0.011047 0.010566 0.0
-0.012069 0.010039 0.0
-0.013034 0.009470 0.0
-0.013939 0.008862 0.0
-0.014780 0.008219 0.0
-0.015554 0.007543 0.0
-0.016259 0.006839 0.0
-0.016892 0.006109 0.0
-0.017453 0.005356 0.0
-0.017938 0.004584 0.0
-0.018347 0.003795 0.0
-0.018679 0.002992 0.0
-0.018933 0.002178 0.0
-0.019108 0.001356 0.0
-0.019203 0.000527 0.0
-0.019218 -0.000304 0.0
-0.019154 -0.001136 0.0
-0.019009 -0.001966 0.0
-0.018784 -0.002792 0.0
-0.018480 -0.003609 0.0
-0.018096 -0.004416 0.0
-0.017633 -0.005209 0.0
-0.017092 -0.005985 0.0
-0.016475 -0.006741 0.0
-0.015782 -0.007473 0.0
-0.015017 -0.008178 0.0
-0.014180 -0.008851 0.0
-0.013275 -0.009490 0.0
-0.012305 -0.010090 0.0
-0.011274 -0.010648 0.0
-0.010186 -0.011159 0.0
-0.009045 -0.011618 0.0
-0.007857 -0.012018 0.0
-0.006630 -0.012340 0.0
-0.005373 -0.012534 0.0
-0.004105 -0.012489 0.0
-0.002861 -0.011978 0.0
-0.001708 -0.010621 0.0
-0.000757 -0.007913 0.0
-0.000175 -0.003353 0.0
-0.000179 0.003645 0.0
-0.000777 0.008598 0.0
-0.001751 0.011533 0.0
-0.002933 0.013002 0.0
-0.004208 0.013556 0.0
-0.005508 0.013609 0.0
-0.006797 0.013407 0.0
-0.008057 0.013072 0.0
-0.009279 0.012654 0.0
-0.010454 0.012174 0.0
-0.011578 0.011640 0.0
-0.012646 0.011056 0.0
-0.013653 0.010426 0.0
-0.014597 0.009754 0.0
-0.015473 0.009043 0.0
-0.016279 0.008298 0.0
-0.017012 0.007522 0.0
-0.017670 0.006718 0.0
-0.018252 0.005890 0.0
-0.018757 0.005040 0.0
-0.019182 0.004173 0.0
-0.019527 0.003291 0.0
-0.019790 0.002397 0.0
-0.019973 0.001494 0.0
-0.020073 0.000585 0.0
-0.020090 -0.000328 0.0
-0.020025 -0.001242 0.0
-0.019877 -0.002154 0.0
-0.019646 -0.003060 0.0
-0.019331 -0.003959 0.0
-0.018935 -0.004847 0.0
-0.018456 -0.005720 0.0
-0.017896 -0.006575 0.0
-0.017256 -0.007409 0.0
-0.016537 -0.008217 0.0
-0.015741 -0.008996 0.0
-0.014870 -0.009741 0.0
-0.013927 -0.010449 0.0
-0.012915 -0.011114 0.0
-0.011837 -0.011733 0.0
-0.010698 -0.012301 0.0
-0.009503 -0.012812 0.0
-0.008258 -0.013257 0.0
-0.006970 -0.013616 0.0
-0.005650 -0.013835 0.0
-0.004317 -0.013789 0.0
-0.003010 -0.013229 0.0
-0.001797 -0.011735 0.0
-0.000797 -0.008749 0.0
-0.000184 -0.003712 0.0
-0.000189 0.004013 0.0
-0.000818 0.009456 0.0
-0.001844 0.012677 0.0
-0.003088 0.014284 0.0
-0.004429 0.014888 0.0
-0.005795 0.014943 0.0
-0.007150 0.014718 0.0
-0.008474 0.014346 0.0
-0.009756 0.013884 0.0
-0.010988 0.013353 0.0
-0.012166 0.012763 0.0
-0.013283 0.012118 0.0
-0.014336 0.011424 0.0
-0.015322 0.010684 0.0
-0.016236 0.009903 0.0
-0.017076 0.009085 0.0
-0.017839 0.008233 0.0
-0.018525 0.007351 0.0
-0.019130 0.006444 0.0
-0.019654 0.005515 0.0
-0.020096 0.004566 0.0
-0.020455 0.003602 0.0
-0.020730 0.002625 0.0
-0.020920 0.001639 0.0
-0.021025 0.000645 0.0
-0.021045 -0.000352 0.0
-0.020979 -0.001350 0.0
-0.020827 -0.002346 0.0
-0.020590 -0.003337 0.0
-0.020266 -0.004320 0.0
-0.019856 -0.005292 0.0
-0.019361 -0.006248 0.0
-0.018781 -0.007186 0.0
-0.018117 -0.008101 0.0
-0.017369 -0.008990 0.0
-0.016541 -0.009847 0.0
-0.015633 -0.010668 0.0
-0.014648 -0.011449 0.0
-0.013590 -0.012184 0.0
-0.012461 -0.012869 0.0
-0.011267 -0.013498 0.0
-0.010013 -0.014065 0.0
-0.008704 -0.014559 0.0
-0.007348 -0.014958 0.0
-0.005958 -0.015203 0.0
-0.004554 -0.015157 0.0
-0.003176 -0.014546 0.0
-0.001897 -0.012910 0.0
-0.000841 -0.009631 0.0
-0.000194 -0.004090 0.0
-0.000199 0.004401 0.0
-0.000863 0.010361 0.0
-0.001947 0.013882 0.0
-0.003259 0.015636 0.0
-0.004673 0.016292 0.0
-0.006114 0.016347 0.0
-0.007542 0.016096 0.0
-0.008935 0.015685 0.0
-0.010283 0.015175 0.0
-0.011578 0.014589 0.0
-0.012813 0.013939 0.0
-0.013985 0.013230 0.0
-0.015087 0.012468 0.0
-0.016118 0.011656 0.0
-0.017072 0.010800 0.0
-0.017949 0.009904 0.0
-0.018745 0.008973 0.0
-0.019459 0.008010 0.0
-0.020089 0.007021 0.0
-0.020635 0.006008 0.0
-0.021094 0.004975 0.0
-0.021468 0.003925 0.0
-0.021754 0.002863 0.0
-0.021952 0.001790 0.0
-0.022063 0.000710 0.0
-0.022086 -0.000374 0.0
-0.022019 -0.001460 0.0
-0.021864 -0.002543 0.0
-0.021620 -0.003622 0.0
-0.021286 -0.004693 0.0
-0.020863 -0.005752 0.0
-0.020351 -0.006796 0.0
-0.019750 -0.007820 0.0
-0.019060 -0.008821 0.0
-0.018283 -0.009794 0.0
-0.017420 -0.010734 0.0
-0.016472 -0.011636 0.0
-0.015443 -0.012495 0.0
-0.014335 -0.013305 0.0
-0.013151 -0.014060 0.0
-0.011897 -0.014755 0.0
-0.010577 -0.015382 0.0
-0.009198 -0.015930 0.0
-0.007769 -0.016373 0.0
-0.006301 -0.016647 0.0
-0.004817 -0.016602 0.0
-0.003360 -0.015938 0.0
-0.002007 -0.014150 0.0
-0.000890 -0.010562 0.0
-0.000206 -0.004490 0.0
-0.000211 0.004811 0.0
-0.000914 0.011317 0.0
-0.002060 0.015155 0.0
-0.003449 0.017063 0.0
-0.004944 0.017773 0.0
-0.006467 0.017828 0.0
-0.007974 0.017549 0.0
-0.009444 0.017095 0.0
-0.010864 0.016533 0.0
-0.012227 0.015889 0.0
-0.013525 0.015174 0.0
-0.014755 0.014396 0.0
-0.015911 0.013560 0.0
-0.016989 0.012672 0.0
-0.017988 0.011737 0.0
-0.018903 0.010759 0.0
-0.019733 0.009744 0.0
-0.020477 0.008697 0.0
-0.021133 0.007621 0.0
-0.021700 0.006520 0.0
-0.022179 0.005400 0.0
-0.022567 0.004262 0.0
-0.022865 0.003110 0.0
-0.023073 0.001948 0.0
-0.023189 0.000779 0.0
-0.023215 -0.000395 0.0
-0.023148 -0.001571 0.0
-0.022990 -0.002745 0.0
-0.022739 -0.003915 0.0
-0.022396 -0.005077 0.0
-0.021959 -0.006227 0.0
-0.021429 -0.007362 0.0
-0.020807 -0.008478 0.0
-0.020091 -0.009569 0.0
-0.019282 -0.010632 0.0
-0.018383 -0.011660 0.0
-0.017394 -0.012648 0.0
-0.016317 -0.013590 0.0
-0.015155 -0.014480 0.0
-0.013912 -0.015311 0.0
-0.012592 -0.016077 0.0
-0.011201 -0.016770 0.0
-0.009746 -0.017376 0.0
-0.008235 -0.017867 0.0
-0.006681 -0.018173 0.0
-0.005110 -0.018131 0.0
-0.003565 -0.017411 0.0
-0.002130 -0.015465 0.0
-0.000945 -0.011550 0.0
-0.000218 -0.004914 0.0
-0.000224 0.005247 0.0
-0.000970 0.012331 0.0
-0.002186 0.016504 0.0
-0.003659 0.018575 0.0
-0.005243 0.019342 0.0
-0.006856 0.019395 0.0
-0.008450 0.019084 0.0
-0.010004 0.018583 0.0
-0.011503 0.017964 0.0
-0.012939 0.017256 0.0
-0.014306 0.016472 0.0
-0.015599 0.015620 0.0
-0.016811 0.014706 0.0
-0.017941 0.013736 0.0
-0.018986 0.012716 0.0
-0.019941 0.011651 0.0
-0.020808 0.010548 0.0
-0.021582 0.009411 0.0
-0.022265 0.008245 0.0
-0.022856 0.007054 0.0
-0.023353 0.005842 0.0
-0.023757 0.004612 0.0
-0.024067 0.003369 0.0
-0.024284 0.002114 0.0
-0.024407 0.000852 0.0
-0.024435 -0.000415 0.0
-0.024369 -0.001684 0.0
-0.024208 -0.002952 0.0
-0.023951 -0.004216 0.0
-0.023598 -0.005472 0.0
-0.023149 -0.006718 0.0
-0.022601 -0.007948 0.0
-0.021957 -0.009159 0.0
-0.021214 -0.010346 0.0
-0.020373 -0.011503 0.0
-0.019436 -0.012625 0.0
-0.018403 -0.013705 0.0
-0.017275 -0.014737 0.0
-0.016056 -0.015714 0.0
-0.014749 -0.016628 0.0
-0.013359 -0.017471 0.0
-0.011890 -0.018235 0.0
-0.010351 -0.018905 0.0
-0.008750 -0.019450 0.0
-0.007103 -0.019791 0.0
-0.005434 -0.019753 0.0
-0.003792 -0.018976 0.0
-0.002266 -0.016861 0.0
-0.001006 -0.012599 0.0
-0.000232 -0.005365 0.0
-0.000238 0.005709 0.0
-0.001032 0.013408 0.0
-0.002325 0.017937 0.0
-0.003891 0.020180 0.0
-0.005574 0.021005 0.0
-0.007285 0.021055 0.0
-0.008975 0.020709 0.0
-0.010620 0.020156 0.0
-0.012205 0.019475 0.0
-0.013722 0.018698 0.0
-0.015162 0.017838 0.0
-0.016521 0.016905 0.0
-0.017795 0.015907 0.0
-0.018979 0.014849 0.0
-0.020072 0.013739 0.0
-0.021070 0.012583 0.0
-0.021973 0.011386 0.0
-0.022780 0.010155 0.0
-0.023490 0.008894 0.0
-0.024104 0.007608 0.0
-0.024620 0.006301 0.0
-0.025040 0.004976 0.0
-0.025363 0.003638 0.0
-0.025589 0.002288 0.0
-0.025719 0.000931 0.0
-0.025751 -0.000432 0.0
-0.025685 -0.001798 0.0
-0.025522 -0.003163 0.0
-0.025260 -0.004524 0.0
-0.024898 -0.005879 0.0
-0.024435 -0.007224 0.0
-0.023871 -0.008554 0.0
-0.023204 -0.009865 0.0
-0.022435 -0.011153 0.0
-0.021561 -0.012410 0.0
-0.020585 -0.013632 0.0
-0.019506 -0.014811 0.0
-0.018325 -0.015940 0.0
-0.017046 -0.017010 0.0
-0.015670 -0.018014 0.0
-0.014203 -0.018942 0.0
-0.012651 -0.019785 0.0
-0.011020 -0.020525 0.0
-0.009322 -0.021129 0.0
-0.007570 -0.021511 0.0
-0.005794 -0.021478 0.0
-0.004045 -0.020642 0.0
-0.002418 -0.018348 0.0
-0.001073 -0.013717 0.0
-0.000248 -0.005845 0.0
-0.000254 0.006202 0.0
-0.001101 0.014555 0.0
-0.002480 0.019463 0.0
-0.004147 0.021887 0.0
-0.005939 0.022773 0.0
-0.007759 0.022817 0.0
-0.009554 0.022433 0.0
-0.011299 0.021822 0.0
-0.012977 0.021073 0.0
-0.014580 0.020219 0.0
-0.016099 0.019277 0.0
-0.017530 0.018257 0.0
-0.018868 0.017167 0.0
-0.020109 0.016015 0.0
-0.021252 0.014808 0.0
-0.022294 0.013554 0.0
-0.023235 0.012259 0.0
-0.024074 0.010929 0.0
-0.024812 0.009569 0.0
-0.025449 0.008184 0.0
-0.025985 0.006778 0.0
-0.026420 0.005355 0.0
-0.026755 0.003918 0.0
-0.026991 0.002470 0.0
-0.027127 0.001014 0.0
-0.027164 -0.000447 0.0
-0.027100 -0.001912 0.0
-0.026935 -0.003377 0.0
-0.026668 -0.004839 0.0
-0.026298 -0.006296 0.0
-0.025823 -0.007744 0.0
-0.025243 -0.009178 0.0
-0.024555 -0.010595 0.0
-0.023759 -0.011989 0.0
-0.022853 -0.013353 0.0
-0.021837 -0.014682 0.0
-0.020710 -0.015967 0.0
-0.019474 -0.017200 0.0
-0.018131 -0.018373 0.0
-0.016682 -0.019475 0.0
-0.015134 -0.020497 0.0
-0.013491 -0.021426 0.0
-0.011760 -0.022245 0.0
-0.009954 -0.022914 0.0
-0.008089 -0.023342 0.0
-0.006194 -0.023318 0.0
-0.004326 -0.022419 0.0
-0.002586 -0.019937 0.0
-0.001148 -0.014911 0.0
-0.000266 -0.006359 0.0
-0.000272 0.006728 0.0
-0.001177 0.015780 0.0
-0.002650 0.021090 0.0
-0.004431 0.023707 0.0
-0.006343 0.024656 0.0
-0.008282 0.024693 0.0
-0.010193 0.024264 0.0
-0.012046 0.023589 0.0
-0.013826 0.022764 0.0
-0.015521 0.021826 0.0
-0.017125 0.020793 0.0
-0.018632 0.019678 0.0
-0.020037 0.018488 0.0
-0.021338 0.017235 0.0
-0.022532 0.015925 0.0
-0.023619 0.014566 0.0
-0.024598 0.013167 0.0
-0.025470 0.011732 0.0
-0.026235 0.010268 0.0
-0.026895 0.008780 0.0
-0.027449 0.007272 0.0
-0.027900 0.005747 0.0
-0.028248 0.004209 0.0
-0.028493 0.002660 0.0
-0.028636 0.001103 0.0
-0.028677 -0.000459 0.0
-0.028615 -0.002026 0.0
-0.028449 -0.003593 0.0
-0.028179 -0.005160 0.0
-0.027802 -0.006722 0.0
-0.027317 -0.008277 0.0
-0.026722 -0.009821 0.0
-0.026015 -0.011348 0.0
-0.025193 -0.012854 0.0
-0.024254 -0.014332 0.0
-0.023198 -0.015775 0.0
-0.022024 -0.017175 0.0
-0.020731 -0.018521 0.0
-0.019320 -0.019805 0.0
-0.017795 -0.021016 0.0
-0.016159 -0.022141 0.0
-0.014418 -0.023167 0.0
-0.012579 -0.024073 0.0
-0.010655 -0.024816 0.0
-0.008664 -0.025297 0.0
-0.006638 -0.025285 0.0
-0.004638 -0.024321 0.0
-0.002774 -0.021637 0.0
-0.001232 -0.016191 0.0
-0.000285 -0.006909 0.0
-0.000292 0.007291 0.0
-0.001261 0.017091 0.0
-0.002840 0.022831 0.0
-0.004746 0.025653 0.0
-0.006790 0.026667 0.0
-0.008861 0.026692 0.0
-0.010898 0.026212 0.0
-0.012870 0.025466 0.0
-0.014759 0.024556 0.0
-0.016555 0.023525 0.0
-0.018248 0.022392 0.0
-0.019835 0.021172 0.0
-0.021311 0.019875 0.0
-0.022673 0.018511 0.0
-0.023920 0.017090 0.0
-0.025052 0.015620 0.0
-0.026069 0.014110 0.0
-0.026973 0.012565 0.0
-0.027764 0.010992 0.0
-0.028445 0.009397 0.0
-0.029018 0.007782 0.0
-0.029483 0.006152 0.0
-0.029842 0.004510 0.0
-0.030097 0.002858 0.0
-0.030247 0.001198 0.0
-0.030293 -0.000468 0.0
-0.030234 -0.002138 0.0
-0.030069 -0.003811 0.0
-0.029797 -0.005484 0.0
-0.029415 -0.007156 0.0
-0.028922 -0.008822 0.0
-0.028314 -0.010479 0.0
-0.027589 -0.012123 0.0
-0.026743 -0.013748 0.0
-0.025774 -0.015347 0.0
-0.024679 -0.016912 0.0
-0.023456 -0.018435 0.0
-0.022105 -0.019905 0.0
-0.020625 -0.021311 0.0
-0.019019 -0.022641 0.0
-0.017290 -0.023881 0.0
-0.015443 -0.025015 0.0
-0.013487 -0.026019 0.0
-0.011434 -0.026847 0.0
-0.009305 -0.027387 0.0
-0.007133 -0.027391 0.0
-0.004986 -0.026362 0.0
-0.002984 -0.023463 0.0
-0.001326 -0.017565 0.0
-0.000307 -0.007501 0.0
-0.000313 0.007896 0.0
-0.001356 0.018498 0.0
-0.003051 0.024699 0.0
-0.005096 0.027737 0.0
-0.007287 0.028818 0.0
-0.009503 0.028828 0.0
-0.011678 0.028289 0.0
-0.013779 0.027462 0.0
-0.015787 0.026457 0.0
-0.017689 0.025322 0.0
-0.019479 0.024079 0.0
-0.021150 0.022743 0.0
-0.022698 0.021328 0.0
-0.024123 0.019845 0.0
-0.025423 0.018304 0.0
-0.026599 0.016715 0.0
-0.027654 0.015086 0.0
-0.028587 0.013426 0.0
-0.029404 0.011739 0.0
-0.030105 0.010032 0.0
-0.030693 0.008308 0.0
-0.031172 0.006570 0.0
-0.031542 0.004822 0.0
-0.031805 0.003064 0.0
-0.031962 0.001299 0.0
-0.032013 -0.000472 0.0
-0.031958 -0.002248 0.0
-0.031796 -0.004028 0.0
-0.031524 -0.005811 0.0
-0.031140 -0.007594 0.0
-0.030641 -0.009375 0.0
-0.030023 -0.011151 0.0
-0.029283 -0.012916 0.0
-0.028416 -0.014667 0.0
-0.027419 -0.016394 0.0
-0.026287 -0.018091 0.0
-0.025017 -0.019748 0.0
-0.023607 -0.021353 0.0
-0.022057 -0.022894 0.0
-0.020366 -0.024356 0.0
-0.018538 -0.025724 0.0
-0.016578 -0.026979 0.0
-0.014495 -0.028094 0.0
-0.012301 -0.029018 0.0
-0.010019 -0.029628 0.0
-0.007686 -0.029654 0.0
-0.005376 -0.028556 0.0
-0.003219 -0.025429 0.0
-0.001430 -0.019046 0.0
-0.000331 -0.008139 0.0
-0.000338 0.008548 0.0
-0.001461 0.020011 0.0
-0.003286 0.026706 0.0
-0.005486 0.029975 0.0
-0.007840 0.031125 0.0
-0.010216 0.031113 0.0
-0.012543 0.030507 0.0
-0.014785 0.029587 0.0
-0.016921 0.028475 0.0
-0.018938 0.027223 0.0
-0.020828 0.025857 0.0
-0.022586 0.024394 0.0
-0.024210 0.022849 0.0
-0.025697 0.021236 0.0
-0.027050 0.019565 0.0
-0.028269 0.017849 0.0
-0.029358 0.016095 0.0
-0.030320 0.014313 0.0
-0.031158 0.012507 0.0
-0.031877 0.010684 0.0
-0.032479 0.008847 0.0
-0.032969 0.006999 0.0
-0.033348 0.005142 0.0
-0.033619 0.003278 0.0
-0.033783 0.001407 0.0
-0.033840 -0.000471 0.0
-0.033790 -0.002354 0.0
-0.033632 -0.004243 0.0
-0.033363 -0.006137 0.0