# vtk DataFile Version 3.0
Scalar Field
ASCII
DATASET RECTILINEAR_GRID
DIMENSIONS 50 50 1
X_COORDINATES 50 double
0.100000 0.300000 0.500000 0.700000 0.900000 1.100000 1.300000 1.500000 1.700000 1.900000 2.100000 2.300000 2.500000 2.700000 2.900000 3.100000 3.300000 3.500000 3.700000 3.900000 4.100000 4.300000 4.500000 4.700000 4.900000 5.100000 5.300000 5.500000 5.700000 5.900000 6.100000 6.300000 6.500000 6.700000 6.900000 7.100000 7.300000 7.500000 7.700000 7.900000 8.100000 8.300000 8.500000 8.700000 8.900000 9.100000 9.300000 9.500000 9.700000 9.900000 
Y_COORDINATES 50 double
0.100000 0.300000 0.500000 0.700000 0.900000 1.100000 1.300000 1.500000 1.700000 1.900000 2.100000 2.300000 2.500000 2.700000 2.900000 3.100000 3.300000 3.500000 3.700000 3.900000 4.100000 4.300000 4.500000 4.700000 4.900000 5.100000 5.300000 5.500000 5.700000 5.900000 6.100000 6.300000 6.500000 6.700000 6.900000 7.100000 7.300000 7.500000 7.700000 7.900000 8.100000 8.300000 8.500000 8.700000 8.900000 9.100000 9.300000 9.500000 9.700000 9.900000 
Z_COORDINATES 1 double
0.0
POINT_DATA 2500
SCALARS Skalarfeld double 1
LOOKUP_TABLE default
-0.010380
-0.010390
-0.010334
-0.010201
-0.009989
-0.009697
-0.009326
-0.008876
-0.008345
-0.007734
-0.007041
-0.006266
-0.005407
-0.004465
-0.003438
-0.002326
-0.001128
0.000154
0.001521
0.002973
0.004507
0.006122
0.007816
0.009587
0.011429
0.013338
0.015310
0.017337
0.019411
0.021525
0.023667
0.025828
0.027995
0.030154
0.032291
0.034392
0.036439
0.038417
0.040309
0.042097
0.043765
0.045296
0.046673
0.047884
0.048913
0.049751
0.050385
0.050811
0.051030
0.051062
-0.010371
-0.010380
-0.010319
-0.010183
-0.009969
-0.009678
-0.009308
-0.008859
-0.008330
-0.007720
-0.007029
-0.006256
-0.005400
-0.004460
-0.003435
-0.002326
-0.001131
0.000148
0.001513
0.002961
0.004493
0.006106
0.007797
0.009565
0.011405
0.013313
0.015283
0.017309
0.019383
0.021496
0.023639
0.025800
0.027968
0.030129
0.032269
0.034372
0.036422
0.038404
0.040299
0.042091
0.043763
0.045297
0.046678
0.047892
0.048925
0.049765
0.050403
0.050835
0.051061
0.051093
-0.010430
-0.010446
-0.010385
-0.010248
-0.010035
-0.009744
-0.009376
-0.008928
-0.008402
-0.007794
-0.007106
-0.006336
-0.005482
-0.004545
-0.003523
-0.002417
-0.001225
0.000053
0.001415
0.002863
0.004393
0.006006
0.007699
0.009468
0.011311
0.013223
0.015198
0.017230
0.019312
0.021434
0.023588
0.025762
0.027943
0.030119
0.032276
0.034397
0.036466
0.038467
0.040382
0.042193
0.043883
0.045436
0.046834
0.048063
0.049109
0.049961
0.050608
0.051046
0.051274
0.051298
-0.010574
-0.010595
-0.010535
-0.010399
-0.010187
-0.009898
-0.009532
-0.009087
-0.008563
-0.007959
-0.007274
-0.006507
-0.005656
-0.004722
-0.003704
-0.002600
-0.001410
-0.000134
0.001228
0.002675
0.004207
0.005822
0.007519
0.009294
0.011144
0.013065
0.015052
0.017098
0.019196
0.021338
0.023513
0.025711
0.027919
0.030124
0.032311
0.034465
0.036568
0.038604
0.040554
0.042400
0.044124
0.045709
0.047138
0.048394
0.049463
0.050334
0.050997
0.051444
0.051675
0.051695
-0.010808
-0.010830
-0.010773
-0.010639
-0.010429
-0.010142
-0.009778
-0.009337
-0.008816
-0.008216
-0.007534
-0.006771
-0.005924
-0.004993
-0.003978
-0.002876
-0.001688
-0.000413
0.000949
0.002398
0.003933
0.005553
0.007257
0.009041
0.010904
0.012840
0.014845
0.016912
0.019036
0.021206
0.023413
0.025647
0.027894
0.030141
0.032374
0.034575
0.036728
0.038815
0.040816
0.042713
0.044486
0.046118
0.047590
0.048885
0.049989
0.050888
0.051571
0.052033
0.052270
0.052289
-0.011130
-0.011154
-0.011099
-0.010967
-0.010759
-0.010475
-0.010115
-0.009677
-0.009160
-0.008564
-0.007887
-0.007128
-0.006286
-0.005359
-0.004346
-0.003247
-0.002061
-0.000786
0.000577
0.002029
0.003569
0.005196
0.006910
0.008708
0.010587
0.012544
0.014573
0.016669
0.018826
0.021034
0.023284
0.025565
0.027865
0.030168
0.032461
0.034726
0.036944
0.039098
0.041167
0.043131
0.044970
0.046664
0.048194
0.049541
0.050690
0.051626
0.052337
0.052818
0.053064
0.053083
-0.011541
-0.011566
-0.011512
-0.011383
-0.011178
-0.010898
-0.010542
-0.010108
-0.009596
-0.009005
-0.008333
-0.007579
-0.006741
-0.005819
-0.004810
-0.003714
-0.002529
-0.001255
0.000110
0.001566
0.003112
0.004749
0.006476
0.008290
0.010190
0.012172
0.014232
0.016364
0.018562
0.020818
0.023122
0.025462
0.027826
0.030201
0.032568
0.034912
0.037214
0.039452
0.041607
0.043656
0.045578
0.047350
0.048953
0.050366
0.051571
0.052554
0.053302
0.053806
0.054065
0.054085
-0.012039
-0.012066
-0.012014
-0.011887
-0.011686
-0.011410
-0.011058
-0.010630
-0.010124
-0.009539
-0.008873
-0.008124
-0.007293
-0.006375
-0.005371
-0.004278
-0.003096
-0.001821
-0.000455
0.001005
0.002559
0.004207
0.005949
0.007783
0.009707
0.011720
0.013816
0.015991
0.018238
0.020550
0.022918
0.025330
0.027772
0.030232
0.032691
0.035131
0.037533
0.039875
0.042134
0.044287
0.046310
0.048179
0.049872
0.051366
0.052642
0.053682
0.054474
0.055008
0.055282
0.055304
-0.012624
-0.012652
-0.012603
-0.012480
-0.012282
-0.012011
-0.011665
-0.011243
-0.010743
-0.010165
-0.009506
-0.008765
-0.007940
-0.007029
-0.006030
-0.004942
-0.003762
-0.002489
-0.001120
0.000344
0.001907
0.003567
0.005325
0.007180
0.009133
0.011179
0.013316
0.015540
0.017845
0.020223
0.022665
0.025160
0.027694
0.030254
0.032820
0.035375
0.037897
0.040362
0.042747
0.045024
0.047169
0.049155
0.050956
0.052548
0.053909
0.055019
0.055864
0.056434
0.056727
0.056752
-0.013295
-0.013325
-0.013279
-0.013159
-0.012967
-0.012701
-0.012361
-0.011946
-0.011454
-0.010884
-0.010234
-0.009501
-0.008685
-0.007781
-0.006790
-0.005707
-0.004531
-0.003259
-0.001890
-0.000422
0.001148
0.002821
0.004596
0.006476
0.008458
0.010542
0.012725
0.015003
0.017372
0.019824
0.022351
0.024941
0.027582
0.030257
0.032949
0.035637
0.038299
0.040910
0.043442
0.045867
0.048157
0.050282
0.052212
0.053921
0.055383
0.056577
0.057486
0.058099
0.058414
0.058441
-0.014052
-0.014084
-0.014041
-0.013925
-0.013738
-0.013479
-0.013147
-0.012740
-0.012257
-0.011697
-0.011057
-0.010334
-0.009528
-0.008634
-0.007651
-0.006576
-0.005405
-0.004137
-0.002769
-0.001297
0.000279
0.001964
0.003757
0.005661
0.007675
0.009799
0.012031
0.014369
0.016809
0.019343
0.021965
0.024662
0.027422
0.030229
0.033065
0.035907
0.038731
0.041511
0.044216
0.046815
0.049275
0.051563
0.053647
0.055494
0.057077
0.058371
0.059355
0.060018
0.060359
0.060390
-0.014894
-0.014928
-0.014888
-0.014778
-0.014597
-0.014345
-0.014021
-0.013624
-0.013152
-0.012603
-0.011975
-0.011265
-0.010470
-0.009589
-0.008616
-0.007551
-0.006389
-0.005126
-0.003761
-0.002288
-0.000706
0.000989
0.002799
0.004726
0.006773
0.008938
0.011223
0.013625
0.016141
0.018765
0.021490
0.024307
0.027200
0.030156
0.033154
0.036172
0.039182
0.042157
0.045063
0.047864
0.050524
0.053004
0.055268
0.057279
0.059005
0.060415
0.061488
0.062211
0.062583
0.062617
-0.015819
-0.015856
-0.015821
-0.015715
-0.015541
-0.015298
-0.014984
-0.014599
-0.014139
-0.013603
-0.012989
-0.012294
-0.011514
-0.010646
-0.009688
-0.008635
-0.007484
-0.006230
-0.004870
-0.003400
-0.001815
-0.000112
0.001713
0.003663
0.005741
0.007949
0.010287
0.012756
0.015352
0.018072
0.020911
0.023857
0.026899
0.030020
0.033200
0.036416
0.039640
0.042838
0.045975
0.049010
0.051903
0.054609
0.057085
0.059288
0.061181
0.062729
0.063907
0.064700
0.065106
0.065145
-0.016827
-0.016867
-0.016836
-0.016737
-0.016571
-0.016338
-0.016035
-0.015663
-0.015217
-0.014697
-0.014099
-0.013421
-0.012659
-0.011809
-0.010868
-0.009831
-0.008695
-0.007454
-0.006103
-0.004639
-0.003055
-0.001347
0.000490
0.002460
0.004568
0.006817
0.009208
0.011744
0.014424
0.017246
0.020205
0.023292
0.026495
0.029798
0.033182
0.036621
0.040085
0.043539
0.046941
0.050249
0.053412
0.056381
0.059105
0.061535
0.063625
0.065335
0.066636
0.067509
0.067956
0.067999
-0.017917
-0.017960
-0.017934
-0.017842
-0.017685
-0.017462
-0.017173
-0.016815
-0.016387
-0.015885
-0.015306
-0.014648
-0.013907
-0.013078
-0.012158
-0.011141
-0.010024
-0.008800
-0.007464
-0.006010
-0.004432
-0.002724
-0.000880
0.001106
0.003239
0.005526
0.007969
0.010573
0.013338
0.016264
0.019349
0.022586
0.025963
0.029466
0.033074
0.036762
0.040497
0.044240
0.047948
0.051568
0.055046
0.058323
0.061339
0.064035
0.066356
0.068257
0.069701
0.070668
0.071162
0.071210
-0.019087
-0.019134
-0.019113
-0.019028
-0.018882
-0.018672
-0.018397
-0.018056
-0.017647
-0.017165
-0.016609
-0.015974
-0.015258
-0.014454
-0.013560
-0.012568
-0.011475
-0.010274
-0.008958
-0.007520
-0.005955
-0.004253
-0.002408
-0.000413
0.001741
0.004061
0.006552
0.009220
0.012069
0.015101
0.018315
0.021709
0.025272
0.028990
0.032844
0.036807
0.040846
0.044918
0.048974
0.052955
0.056799
0.060435
0.063793
0.066802
0.069398
0.071522
0.073134
0.074211
0.074758
0.074809
-0.020335
-0.020385
-0.020371
-0.020295
-0.020160
-0.019964
-0.019706
-0.019384
-0.018996
-0.018538
-0.018007
-0.017400
-0.016712
-0.015939
-0.015075
-0.014114
-0.013051
-0.011879
-0.010590
-0.009176
-0.007630
-0.005943
-0.004105
-0.002108
0.000059
0.002403
0.004935
0.007662
0.010591
0.013727
0.017072
0.020628
0.024386
0.028334
0.032454
0.036720
0.041097
0.045539
0.049992
0.054389
0.058657
0.062714
0.066475
0.069855
0.072773
0.075163
0.076971
0.078174
0.078780
0.078835
-0.021659
-0.021714
-0.021706
-0.021640
-0.021517
-0.021337
-0.021098
-0.020798
-0.020433
-0.020002
-0.019501
-0.018925
-0.018271
-0.017532
-0.016704
-0.015781
-0.014755
-0.013618
-0.012364
-0.010983
-0.009466
-0.007802
-0.005982
-0.003993
-0.001824
0.000535
0.003098
0.005875
0.008877
0.012111
0.015585
0.019303
0.023262
0.027452
0.031857
0.036453
0.041204
0.046061
0.050965
0.055841
0.060603
0.065153
0.069390
0.073208
0.076511
0.079213
0.081252
0.082600
0.083273
0.083328
-0.023058
-0.023117
-0.023117
-0.023061
-0.022952
-0.022790
-0.022571
-0.022295
-0.021957
-0.021557
-0.021088
-0.020549
-0.019932
-0.019234
-0.018449
-0.017569
-0.016587
-0.015496
-0.014285
-0.012947
-0.011469
-0.009840
-0.008049
-0.006081
-0.003924
-0.001562
0.001018
0.003833
0.006895
0.010218
0.013813
0.017688
0.021849
0.026289
0.030996
0.035947
0.041108
0.046429
0.051844
0.057269
0.062605
0.067735
0.072536
0.076877
0.080638
0.083711
0.086021
0.087536
0.088281
0.088334
-0.024529
-0.024593
-0.024600
-0.024556
-0.024463
-0.024319
-0.024123
-0.023873
-0.023566
-0.023199
-0.022768
-0.022269
-0.021696
-0.021045
-0.020308
-0.019479
-0.018550
-0.017513
-0.016357
-0.015071
-0.013645
-0.012065
-0.010317
-0.008386
-0.006256
-0.003910
-0.001329
0.001506
0.004612
0.008007
0.011710
0.015732
0.020090
0.024782
0.029801
0.035129
0.040735
0.046569
0.052560
0.058616
0.064619
0.070433
0.075905
0.080874
0.085184
0.088700
0.091329
0.093035
0.093856
0.093899
-0.026068
-0.026137
-0.026154
-0.026122
-0.026045
-0.025922
-0.025752
-0.025531
-0.025257
-0.024927
-0.024538
-0.024084
-0.023560
-0.022961
-0.022281
-0.021511
-0.020644
-0.019671
-0.018580
-0.017361
-0.016000
-0.014484
-0.012796
-0.010920
-0.008836
-0.006526
-0.003966
-0.001134
0.001992
0.005439
0.009227
0.013381
0.017918
0.022856
0.028190
0.033911
0.039992
0.046387
0.053023
0.059798
0.066579
0.073201
0.079476
0.085201
0.090176
0.094226
0.097231
0.099152
0.100049
0.100072
-0.027674
-0.027749
-0.027774
-0.027757
-0.027698
-0.027597
-0.027453
-0.027264
-0.027027
-0.026738
-0.026394
-0.025991
-0.025522
-0.024983
-0.024366
-0.023664
-0.022869
-0.021970
-0.020957
-0.019817
-0.018537
-0.017101
-0.015493
-0.013692
-0.011679
-0.009429
-0.006917
-0.004117
-0.000999
0.002467
0.006313
0.010568
0.015260
0.020423
0.026064
0.032181
0.038760
0.045761
0.053111
0.060703
0.068386
0.075965
0.083206
0.089851
0.095638
0.100336
0.103786
0.105946
0.106912
0.106895
-0.029343
-0.029424
-0.029459
-0.029456
-0.029416
-0.029340
-0.029225
-0.029070
-0.028873
-0.028629
-0.028335
-0.027986
-0.027578
-0.027105
-0.026560
-0.025934
-0.025221
-0.024408
-0.023486
-0.022441
-0.021258
-0.019922
-0.018414
-0.016713
-0.014795
-0.012635
-0.010204
-0.007470
-0.004398
-0.000951
0.002910
0.007226
0.012037
0.017384
0.023306
0.029809
0.036893
0.044531
0.052660
0.061170
0.069895
0.078606
0.087016
0.094790
0.101581
0.107074
0.111055
0.113477
0.114489
0.114399
-0.031071
-0.031159
-0.031205
-0.031217
-0.031197
-0.031147
-0.031063
-0.030945
-0.030790
-0.030594
-0.030354
-0.030066
-0.029725
-0.029325
-0.028858
-0.028319
-0.027697
-0.026983
-0.026165
-0.025230
-0.024163
-0.022947
-0.021562
-0.019987
-0.018195
-0.016158
-0.013845
-0.011218
-0.008238
-0.004861
-0.001038
0.003283
0.008155
0.013632
0.019783
0.026634
0.034206
0.042493
0.051451
0.060976
0.070893
0.080940
0.090766
0.099940
0.107989
0.114476
0.119098
0.121797
0.122808
0.122590
-0.032856
-0.032950
-0.033007
-0.033035
-0.033037
-0.033014
-0.032963
-0.032884
-0.032774
-0.032630
-0.032449
-0.032226
-0.031957
-0.031636
-0.031257
-0.030812
-0.030293
-0.029689
-0.028990
-0.028181
-0.027249
-0.026175
-0.024938
-0.023517
-0.021883
-0.020008
-0.017854
-0.015384
-0.012551
-0.009304
-0.005585
-0.001332
0.003524
0.009056
0.015339
0.022469
0.030476
0.039389
0.049193
0.059809
0.071067
0.082679
0.094222
0.105141
0.114794
0.122550
0.127961
0.130941
0.131861
0.131420
-0.034693
-0.034794
-0.034863
-0.034908
-0.034932
-0.034937
-0.034921
-0.034883
-0.034821
-0.034731
-0.034612
-0.034459
-0.034267
-0.034032
-0.033747
-0.033406
-0.033000
-0.032519
-0.031953
-0.031288
-0.030509
-0.029599
-0.028537
-0.027300
-0.025861
-0.024187
-0.022242
-0.019982
-0.017359
-0.014314
-0.010782
-0.006690
-0.001952
0.003523
0.009835
0.017102
0.025437
0.034892
0.045504
0.057241
0.069960
0.083369
0.096980
0.110088
0.121813
0.131236
0.137652
0.140905
0.141573
0.140748
-0.036579
-0.036687
-0.036768
-0.036830
-0.036877
-0.036911
-0.036931
-0.036936
-0.036923
-0.036891
-0.036837
-0.036758
-0.036649
-0.036505
-0.036322
-0.036093
-0.035810
-0.035464
-0.035044
-0.034539
-0.033933
-0.033210
-0.032350
-0.031330
-0.030121
-0.028693
-0.027007
-0.025019
-0.022676
-0.019917
-0.016670
-0.012850
-0.008360
-0.003088
0.003092
0.010318
0.018779
0.028608
0.039894
0.052684
0.066907
0.082307
0.098356
0.114196
0.128635
0.140311
0.148079
0.151598
0.151741
0.150256
-0.038510
-0.038626
-0.038719
-0.038798
-0.038869
-0.038933
-0.038989
-0.039038
-0.039077
-0.039104
-0.039118
-0.039115
-0.039093
-0.039047
-0.038972
-0.038862
-0.038712
-0.038511
-0.038252
-0.037922
-0.037508
-0.036995
-0.036363
-0.035591
-0.034652
-0.033515
-0.032143
-0.030491
-0.028506
-0.026126
-0.023273
-0.019858
-0.015772
-0.010888
-0.005055
0.001902
0.010178
0.020067
0.031745
0.045357
0.060960
0.078405
0.097202
0.116371
0.134361
0.149173
0.158895
0.162730
0.161935
0.159337
-0.040482
-0.040607
-0.040712
-0.040809
-0.040903
-0.040996
-0.041090
-0.041182
-0.041273
-0.041362
-0.041445
-0.041522
-0.041590
-0.041645
-0.041684
-0.041701
-0.041691
-0.041647
-0.041560
-0.041420
-0.041217
-0.040934
-0.040557
-0.040064
-0.039432
-0.038631
-0.037627
-0.036379
-0.034834
-0.032931
-0.030596
-0.027735
-0.024236
-0.019962
-0.014746
-0.008386
-0.000640
0.008775
0.020319
0.034249
0.050793
0.070018
0.091603
0.114580
0.137084
0.156314
0.169102
0.173571
0.171337
0.166991
-0.042493
-0.042627
-0.042744
-0.042857
-0.042974
-0.043097
-0.043227
-0.043364
-0.043507
-0.043657
-0.043811
-0.043970
-0.044130
-0.044290
-0.044446
-0.044596
-0.044733
-0.044853
-0.044950
-0.045014
-0.045036
-0.045004
-0.044904
-0.044720
-0.044430
-0.044010
-0.043428
-0.042649
-0.041627
-0.040305
-0.038614
-0.036469
-0.033760
-0.030354
-0.026079
-0.020722
-0.014017
-0.005631
0.004840
0.018123
0.034638
0.054732
0.078451
0.105105
0.132813
0.158069
0.175955
0.182336
0.178535
0.172060
-0.044541
-0.044683
-0.044812
-0.044942
-0.045080
-0.045231
-0.045396
-0.045576
-0.045771
-0.045981
-0.046206
-0.046447
-0.046701
-0.046967
-0.047244
-0.047530
-0.047820
-0.048112
-0.048400
-0.048678
-0.048940
-0.049175
-0.049375
-0.049524
-0.049609
-0.049608
-0.049499
-0.049251
-0.048830
-0.048189
-0.047271
-0.046006
-0.044301
-0.042040
-0.039072
-0.035199
-0.030167
-0.023642
-0.015189
-0.004254
0.010280
0.029193
0.052925
0.081446
0.113592
0.146024
0.172251
0.184514
0.181470
0.174530
-0.046623
-0.046775
-0.046915
-0.047059
-0.047217
-0.047393
-0.047591
-0.047812
-0.048056
-0.048326
-0.048621
-0.048942
-0.049289
-0.049663
-0.050062
-0.050486
-0.050933
-0.051400
-0.051886
-0.052387
-0.052898
-0.053415
-0.053929
-0.054434
-0.054919
-0.055372
-0.055777
-0.056116
-0.056366
-0.056496
-0.056471
-0.056242
-0.055751
-0.054917
-0.053638
-0.051775
-0.049143
-0.045489
-0.040467
-0.033603
-0.024251
-0.010878
0.008182
0.033372
0.065604
0.104053
0.142548
0.169561
0.177096
0.176022
-0.048740
-0.048902
-0.049051
-0.049207
-0.049382
-0.049581
-0.049808
-0.050066
-0.050357
-0.050682
-0.051044
-0.051444
-0.051883
-0.052362
-0.052883
-0.053445
-0.054050
-0.054696
-0.055383
-0.056111
-0.056879
-0.057685
-0.058526
-0.059401
-0.060306
-0.061238
-0.062190
-0.063158
-0.064134
-0.065110
-0.066076
-0.067020
-0.067927
-0.068779
-0.069553
-0.070222
-0.070748
-0.071084
-0.071161
-0.070882
-0.070075
-0.068357
-0.063812
-0.051706
-0.028767
0.010957
0.064952
0.119311
0.155894
0.170684
-0.050892
-0.051064
-0.051222
-0.051387
-0.051573
-0.051790
-0.052042
-0.052332
-0.052664
-0.053041
-0.053465
-0.053939
-0.054467
-0.055049
-0.055689
-0.056388
-0.057148
-0.057972
-0.058861
-0.059818
-0.060845
-0.061944
-0.063118
-0.064372
-0.065708
-0.067132
-0.068652
-0.070275
-0.072015
-0.073887
-0.075914
-0.078127
-0.080572
-0.083312
-0.086439
-0.090090
-0.094466
-0.099877
-0.106800
-0.115973
-0.128422
-0.145042
-0.164886
-0.181330
-0.179896
-0.145551
-0.075466
0.015023
0.095823
0.134333
-0.053083
-0.053267
-0.053430
-0.053599
-0.053792
-0.054020
-0.054290
-0.054605
-0.054972
-0.055393
-0.055873
-0.056417
-0.057027
-0.057707
-0.058461
-0.059293
-0.060206
-0.061204
-0.062292
-0.063475
-0.064759
-0.066149
-0.067656
-0.069287
-0.071056
-0.072977
-0.075069
-0.077357
-0.079873
-0.082661
-0.085779
-0.089309
-0.093364
-0.098104
-0.103764
-0.110689
-0.119404
-0.130731
-0.145989
-0.167297
-0.197723
-0.240216
-0.293666
-0.347231
-0.376856
-0.353411
-0.271166
-0.147169
-0.021733
0.042415
-0.055321
-0.055516
-0.055681
-0.055847
-0.056039
-0.056270
-0.056548
-0.056880
-0.057271
-0.057729
-0.058257
-0.058862
-0.059548
-0.060319
-0.061181
-0.062139
-0.063198
-0.064364
-0.065645
-0.067048
-0.068581
-0.070257
-0.072088
-0.074090
-0.076282
-0.078690
-0.081343
-0.084284
-0.087564
-0.091253
-0.095448
-0.100279
-0.105931
-0.112667
-0.120872
-0.131125
-0.144319
-0.161885
-0.186182
-0.221061
-0.272040
-0.344135
-0.434998
-0.526479
-0.586892
-0.576339
-0.489591
-0.345610
-0.188818
-0.103269
-0.057617
-0.057824
-0.057985
-0.058140
-0.058319
-0.058541
-0.058815
-0.059151
-0.059557
-0.060040
-0.060606
-0.061262
-0.062014
-0.062868
-0.063829
-0.064904
-0.066101
-0.067426
-0.068890
-0.070502
-0.072275
-0.074223
-0.076364
-0.078720
-0.081318
-0.084190
-0.087379
-0.090940
-0.094944
-0.099486
-0.104695
-0.110747
-0.117892
-0.126486
-0.137055
-0.150392
-0.167737
-0.191097
-0.223813
-0.271313
-0.341170
-0.439719
-0.562679
-0.685113
-0.767457
-0.768060
-0.684849
-0.539034
-0.371377
-0.273753
-0.059987
-0.060206
-0.060356
-0.060487
-0.060639
-0.060835
-0.061090
-0.061415
-0.061821
-0.062315
-0.062907
-0.063603
-0.064410
-0.065335
-0.066386
-0.067568
-0.068891
-0.070364
-0.071998
-0.073805
-0.075802
-0.078005
-0.080436
-0.083123
-0.086098
-0.089401
-0.093085
-0.097216
-0.101880
-0.107193
-0.113309
-0.120441
-0.128889
-0.139080
-0.151642
-0.167524
-0.188209
-0.216090
-0.255114
-0.311581
-0.393976
-0.508844
-0.650347
-0.789728
-0.881812
-0.889420
-0.815484
-0.684176
-0.526817
-0.429114
-0.062457
-0.062688
-0.062815
-0.062905
-0.063009
-0.063158
-0.063373
-0.063668
-0.064056
-0.064546
-0.065149
-0.065871
-0.066721
-0.067705
-0.068832
-0.070109
-0.071546
-0.073152
-0.074941
-0.076927
-0.079128
-0.081564
-0.084260
-0.087247
-0.090563
-0.094254
-0.098380
-0.103014
-0.108255
-0.114232
-0.121115
-0.129140
-0.138634
-0.150063
-0.164105
-0.181775
-0.204636
-0.235167
-0.277353
-0.337348
-0.423045
-0.540017
-0.682031
-0.820883
-0.910668
-0.920928
-0.859563
-0.753232
-0.622448
-0.536085
-0.065066
-0.065308
-0.065395
-0.065417
-0.065444
-0.065518
-0.065666
-0.065906
-0.066254
-0.066721
-0.067318
-0.068051
-0.068930
-0.069960
-0.071150
-0.072508
-0.074043
-0.075768
-0.077695
-0.079840
-0.082222
-0.084866
-0.087797
-0.091049
-0.094664
-0.098692
-0.103197
-0.108258
-0.113980
-0.120495
-0.127983
-0.136685
-0.146934
-0.159196
-0.174142
-0.192754
-0.216510
-0.247677
-0.289722
-0.347757
-0.427637
-0.532557
-0.656977
-0.777981
-0.855743
-0.868222
-0.821542
-0.742685
-0.646034
-0.578877
-0.067867
-0.068119
-0.068140
-0.068055
-0.067964
-0.067923
-0.067969
-0.068125
-0.068407
-0.068830
-0.069401
-0.070129
-0.071021
-0.072083
-0.073322
-0.074746
-0.076365
-0.078190
-0.080235
-0.082518
-0.085058
-0.087880
-0.091013
-0.094492
-0.098360
-0.102670
-0.107487
-0.112892
-0.118990
-0.125914
-0.133839
-0.142998
-0.153708
-0.166403
-0.181696
-0.200458
-0.223962
-0.254084
-0.293374
-0.345142
-0.413528
-0.500266
-0.599616
-0.692338
-0.747106
-0.751964
-0.715850
-0.666650
-0.605028
-0.560246
-0.070946
-0.071201
-0.071111
-0.070861
-0.070592
-0.070384
-0.070283
-0.070317
-0.070504
-0.070857
-0.071383
-0.072089
-0.072979
-0.074058
-0.075331
-0.076806
-0.078492
-0.080400
-0.082544
-0.084942
-0.087614
-0.090585
-0.093884
-0.097549
-0.101622
-0.106156
-0.111216
-0.116882
-0.123255
-0.130460
-0.138662
-0.148074
-0.158979
-0.171758
-0.186931
-0.205213
-0.227595
-0.255175
-0.289860
-0.333780
-0.389008
-0.455625
-0.527966
-0.590934
-0.622886
-0.618523
-0.588041
-0.555507
-0.521207
-0.495758
-0.074429
-0.074673
-0.074400
-0.073893
-0.073359
-0.072910
-0.072603
-0.072470
-0.072528
-0.072785
-0.073247
-0.073913
-0.074786
-0.075868
-0.077162
-0.078673
-0.080410
-0.082383
-0.084606
-0.087095
-0.089872
-0.092961
-0.096391
-0.100200
-0.104430
-0.109132
-0.114369
-0.120216
-0.126768
-0.134140
-0.142479
-0.151971
-0.162857
-0.175451
-0.190168
-0.207506
-0.228001
-0.252596
-0.282308
-0.318188
-0.360867
-0.409239
-0.458104
-0.496325
-0.510143
-0.497418
-0.468370
-0.442729
-0.421371
-0.403951
-0.078520
-0.078719
-0.078133
-0.077219
-0.076292
-0.075503
-0.074918
-0.074566
-0.074458
-0.074595
-0.074971
-0.075583
-0.076426
-0.077499
-0.078800
-0.080335
-0.082107
-0.084128
-0.086408
-0.088966
-0.091821
-0.094997
-0.098524
-0.102437
-0.106776
-0.111592
-0.116943
-0.122900
-0.129548
-0.136990
-0.145351
-0.154791
-0.165505
-0.177738
-0.191786
-0.207852
-0.226449
-0.248042
-0.273093
-0.301889
-0.334154
-0.368177
-0.399475
-0.420081
-0.421343
-0.402259
-0.372050
-0.345834
-0.320579
-0.293345
-0.083561
-0.083635
-0.082490
-0.080921
-0.079409
-0.078149
-0.077199
-0.076574
-0.076265
-0.076257
-0.076533
-0.077078
-0.077881
-0.078934
-0.080234
-0.081778
-0.083572
-0.085623
-0.087942
-0.090546
-0.093453
-0.096688
-0.100277
-0.104255
-0.108661
-0.113542
-0.118952
-0.124956
-0.131631
-0.139065
-0.147367
-0.156666
-0.167120
-0.178911
-0.192143
-0.207046
-0.223881
-0.242843
-0.264023
-0.287253
-0.311787
-0.335747
-0.355389
-0.364942
-0.358738
-0.335708
-0.302964
-0.267955
-0.216311
-0.151324
-0.090181
-0.089915
-0.087714
-0.085068
-0.082696
-0.080803
-0.079396
-0.078443
-0.077903
-0.077734
-0.077901
-0.078373
-0.079129
-0.080156
-0.081444
-0.082989
-0.084791
-0.086856
-0.089196
-0.091825
-0.094761
-0.098026
-0.101648
-0.105657
-0.110091
-0.114994
-0.120417
-0.126419
-0.133070
-0.140446
-0.148635
-0.157751
-0.167919
-0.179217
-0.191747
-0.205663
-0.221064
-0.237979
-0.256290
-0.275594
-0.294967
-0.312598
-0.325373
-0.328897
-0.319075
-0.294255
-0.256879
-0.197649
-0.079031
0.071585
-0.099666
-0.098429
-0.094097
-0.089657
-0.086054
-0.083362
-0.081412
-0.080089
-0.079298
-0.078961
-0.079014
-0.079411
-0.080117
-0.081112
-0.082382
-0.083921
-0.085716
-0.087781
-0.090125
-0.092761
-0.095705
-0.098979
-0.102608
-0.106622
-0.111056
-0.115952
-0.121358
-0.127329
-0.133932
-0.141232
-0.149291
-0.158215
-0.168093
-0.179000
-0.191011
-0.204199
-0.218588
-0.234115
-0.250557
-0.267414
-0.283728
-0.297821
-0.307023
-0.307665
-0.296165
-0.269931
-0.219342
-0.100732
0.168991
0.496449
-0.115300
-0.110907
-0.101832
-0.094452
-0.089175
-0.085567
-0.082991
-0.081255
-0.080195
-0.079688
-0.079628
-0.079947
-0.080600
-0.081559
-0.082808
-0.084344
-0.086113
-0.088168
-0.090508
-0.093144
-0.096092
-0.099367
-0.102993
-0.107002
-0.111427
-0.116308
-0.121692
-0.127630
-0.134182
-0.141409
-0.149379
-0.158173
-0.167868
-0.178531
-0.190222
-0.202975
-0.216776
-0.231514
-0.246913
-0.262428
-0.277092
-0.289295
-0.296554
-0.295305
-0.281675
-0.247141
-0.153579
0.102576
0.672835
1.376550
-0.145655
-0.129282
-0.110613
-0.097992
-0.090287
-0.085733
-0.082397
-0.080369
-0.079188
-0.078588
-0.078478
-0.078778
-0.079433
-0.080406
-0.081677
-0.083228
-0.085039
-0.087129
-0.089504
-0.092174
-0.095154
-0.098461
-0.102119
-0.106157
-0.110608
-0.115513
-0.120916
-0.126868
-0.133425
-0.140650
-0.148608
-0.157372
-0.167014
-0.177596
-0.189165
-0.201739
-0.215280
-0.229642
-0.244508
-0.259282
-0.272923
-0.283732
-0.288932
-0.284205
-0.262773
-0.188879
0.018431
0.547258
1.638115
3.051285
-0.248685
-0.111280
-0.082449
-0.074192
-0.071028
-0.069675
-0.068975
-0.068833
-0.069081
-0.069612
-0.070412
-0.071460
-0.072743
-0.074251
-0.075982
-0.077932
-0.080100
-0.082505
-0.085160
-0.088083
-0.091290
-0.094806
-0.098654
-0.102867
-0.107481
-0.112535
-0.118077
-0.124159
-0.130836
-0.138172
-0.146231
-0.155086
-0.164803
-0.175442
-0.187044
-0.199614
-0.213093
-0.227307
-0.241892
-0.256180
-0.268976
-0.278222
-0.279801
-0.265005
-0.207092
-0.049578
0.342306
1.228422
2.908868
5.151858
