# vtk DataFile Version 3.0
Scalar Field
ASCII
DATASET RECTILINEAR_GRID
DIMENSIONS 50 50 1
X_COORDINATES 50 double
0.100000 0.300000 0.500000 0.700000 0.900000 1.100000 1.300000 1.500000 1.700000 1.900000 2.100000 2.300000 2.500000 2.700000 2.900000 3.100000 3.300000 3.500000 3.700000 3.900000 4.100000 4.300000 4.500000 4.700000 4.900000 5.100000 5.300000 5.500000 5.700000 5.900000 6.100000 6.300000 6.500000 6.700000 6.900000 7.100000 7.300000 7.500000 7.700000 7.900000 8.100000 8.300000 8.500000 8.700000 8.900000 9.100000 9.300000 9.500000 9.700000 9.900000 
Y_COORDINATES 50 double
0.100000 0.300000 0.500000 0.700000 0.900000 1.100000 1.300000 1.500000 1.700000 1.900000 2.100000 2.300000 2.500000 2.700000 2.900000 3.100000 3.300000 3.500000 3.700000 3.900000 4.100000 4.300000 4.500000 4.700000 4.900000 5.100000 5.300000 5.500000 5.700000 5.900000 6.100000 6.300000 6.500000 6.700000 6.900000 7.100000 7.300000 7.500000 7.700000 7.900000 8.100000 8.300000 8.500000 8.700000 8.900000 9.100000 9.300000 9.500000 9.700000 9.900000 
Z_COORDINATES 1 double
0.0
POINT_DATA 2500
SCALARS Skalarfeld double 1
LOOKUP_TABLE default
-0.056088
-0.056027
-0.055835
-0.055512
-0.055058
-0.054475
-0.053767
-0.052934
-0.051980
-0.050910
-0.049726
-0.048433
-0.047036
-0.045541
-0.043952
-0.042276
-0.040519
-0.038688
-0.036789
-0.034831
-0.032821
-0.030766
-0.028676
-0.026557
-0.024418
-0.022269
-0.020117
-0.017972
-0.015843
-0.013738
-0.011666
-0.009636
-0.007657
-0.005737
-0.003885
-0.002109
-0.000417
0.001184
0.002686
0.004082
0.005366
0.006531
0.007573
0.008486
0.009266
0.009909
0.010412
0.010773
0.010989
0.011061
-0.056149
-0.056089
-0.055896
-0.055572
-0.055118
-0.054534
-0.053825
-0.052991
-0.052036
-0.050964
-0.049778
-0.048483
-0.047084
-0.045586
-0.043995
-0.042316
-0.040556
-0.038722
-0.036820
-0.034859
-0.032845
-0.030786
-0.028692
-0.026569
-0.024426
-0.022273
-0.020117
-0.017968
-0.015834
-0.013724
-0.011648
-0.009614
-0.007630
-0.005706
-0.003850
-0.002070
-0.000374
0.001231
0.002736
0.004135
0.005422
0.006591
0.007635
0.008550
0.009332
0.009977
0.010481
0.010843
0.011060
0.011132
-0.056344
-0.056283
-0.056090
-0.055764
-0.055308
-0.054721
-0.054008
-0.053170
-0.052210
-0.051132
-0.049940
-0.048639
-0.047232
-0.045726
-0.044126
-0.042438
-0.040668
-0.038823
-0.036911
-0.034939
-0.032913
-0.030843
-0.028736
-0.026601
-0.024445
-0.022279
-0.020110
-0.017947
-0.015800
-0.013678
-0.011588
-0.009541
-0.007544
-0.005608
-0.003739
-0.001947
-0.000240
0.001376
0.002891
0.004301
0.005597
0.006773
0.007825
0.008747
0.009534
0.010184
0.010692
0.011056
0.011275
0.011347
-0.056673
-0.056612
-0.056417
-0.056089
-0.055628
-0.055037
-0.054317
-0.053472
-0.052503
-0.051416
-0.050213
-0.048900
-0.047480
-0.045960
-0.044345
-0.042641
-0.040855
-0.038993
-0.037063
-0.035072
-0.033027
-0.030936
-0.028809
-0.026652
-0.024476
-0.022287
-0.020097
-0.017912
-0.015743
-0.013598
-0.011486
-0.009417
-0.007400
-0.005442
-0.003553
-0.001741
-0.000014
0.001620
0.003153
0.004578
0.005889
0.007079
0.008144
0.009076
0.009873
0.010530
0.011045
0.011413
0.011634
0.011707
-0.057138
-0.057077
-0.056880
-0.056548
-0.056081
-0.055483
-0.054754
-0.053898
-0.052917
-0.051816
-0.050598
-0.049267
-0.047830
-0.046290
-0.044654
-0.042928
-0.041119
-0.039232
-0.037276
-0.035258
-0.033186
-0.031067
-0.028911
-0.026725
-0.024518
-0.022299
-0.020077
-0.017861
-0.015661
-0.013485
-0.011343
-0.009243
-0.007195
-0.005208
-0.003290
-0.001450
0.000304
0.001963
0.003520
0.004969
0.006301
0.007511
0.008592
0.009540
0.010350
0.011019
0.011541
0.011916
0.012141
0.012215
-0.057741
-0.057679
-0.057479
-0.057142
-0.056668
-0.056060
-0.055319
-0.054449
-0.053453
-0.052334
-0.051096
-0.049743
-0.048282
-0.046717
-0.045054
-0.043299
-0.041459
-0.039541
-0.037552
-0.035499
-0.033391
-0.031236
-0.029042
-0.026818
-0.024572
-0.022313
-0.020052
-0.017796
-0.015555
-0.013339
-0.011156
-0.009017
-0.006930
-0.004904
-0.002949
-0.001073
0.000715
0.002408
0.003996
0.005474
0.006834
0.008069
0.009173
0.010141
0.010968
0.011650
0.012184
0.012567
0.012797
0.012873
-0.058484
-0.058421
-0.058217
-0.057873
-0.057391
-0.056771
-0.056016
-0.055129
-0.054113
-0.052971
-0.051709
-0.050330
-0.048839
-0.047243
-0.045546
-0.043756
-0.041879
-0.039921
-0.037891
-0.035796
-0.033645
-0.031444
-0.029204
-0.026932
-0.024638
-0.022331
-0.020020
-0.017715
-0.015425
-0.013159
-0.010927
-0.008739
-0.006604
-0.004531
-0.002530
-0.000610
0.001221
0.002955
0.004583
0.006097
0.007490
0.008756
0.009888
0.010881
0.011729
0.012429
0.012977
0.013370
0.013605
0.013683
-0.059370
-0.059306
-0.059097
-0.058746
-0.058252
-0.057618
-0.056846
-0.055938
-0.054899
-0.053731
-0.052440
-0.051028
-0.049503
-0.047869
-0.046133
-0.044300
-0.042379
-0.040375
-0.038296
-0.036151
-0.033947
-0.031693
-0.029397
-0.027070
-0.024719
-0.022354
-0.019984
-0.017620
-0.015270
-0.012945
-0.010655
-0.008409
-0.006216
-0.004088
-0.002032
-0.000058
0.001824
0.003607
0.005281
0.006839
0.008273
0.009575
0.010741
0.011763
0.012637
0.013358
0.013922
0.014327
0.014570
0.014650
-0.060402
-0.060336
-0.060122
-0.059762
-0.059255
-0.058605
-0.057813
-0.056882
-0.055815
-0.054617
-0.053291
-0.051843
-0.050277
-0.048600
-0.046817
-0.044935
-0.042961
-0.040903
-0.038768
-0.036564
-0.034299
-0.031983
-0.029624
-0.027231
-0.024813
-0.022380
-0.019943
-0.017510
-0.015092
-0.012698
-0.010339
-0.008025
-0.005766
-0.003572
-0.001452
0.000584
0.002527
0.004366
0.006095
0.007703
0.009185
0.010531
0.011736
0.012793
0.013696
0.014442
0.015026
0.015444
0.015696
0.015779
-0.061583
-0.061516
-0.061296
-0.060926
-0.060405
-0.059736
-0.058920
-0.057962
-0.056865
-0.055631
-0.054266
-0.052775
-0.051163
-0.049436
-0.047600
-0.045662
-0.043630
-0.041509
-0.039310
-0.037038
-0.034705
-0.032317
-0.029884
-0.027416
-0.024923
-0.022413
-0.019897
-0.017386
-0.014889
-0.012416
-0.009979
-0.007588
-0.005252
-0.002982
-0.000788
0.001319
0.003330
0.005236
0.007027
0.008694
0.010230
0.011626
0.012876
0.013973
0.014911
0.015686
0.016292
0.016727
0.016988
0.017075
-0.062919
-0.062850
-0.062624
-0.062242
-0.061704
-0.061014
-0.060173
-0.059184
-0.058051
-0.056778
-0.055370
-0.053831
-0.052166
-0.050383
-0.048487
-0.046486
-0.044386
-0.042196
-0.039923
-0.037576
-0.035164
-0.032696
-0.030181
-0.027629
-0.025049
-0.022452
-0.019848
-0.017248
-0.014662
-0.012100
-0.009575
-0.007095
-0.004672
-0.002317
-0.000040
0.002148
0.004238
0.006218
0.008080
0.009815
0.011413
0.012867
0.014168
0.015311
0.016288
0.017095
0.017727
0.018181
0.018454
0.018544
-0.064415
-0.064344
-0.064110
-0.063715
-0.063159
-0.062445
-0.061575
-0.060552
-0.059380
-0.058063
-0.056605
-0.055012
-0.053290
-0.051444
-0.049481
-0.047409
-0.045234
-0.042966
-0.040612
-0.038180
-0.035681
-0.033123
-0.030515
-0.027869
-0.025193
-0.022499
-0.019797
-0.017097
-0.014411
-0.011750
-0.009125
-0.006546
-0.004026
-0.001575
0.000796
0.003075
0.005253
0.007318
0.009260
0.011070
0.012739
0.014257
0.015617
0.016811
0.017833
0.018677
0.019338
0.019813
0.020099
0.020194
-0.066075
-0.066002
-0.065760
-0.065350
-0.064775
-0.064034
-0.063132
-0.062072
-0.060856
-0.059490
-0.057978
-0.056325
-0.054538
-0.052623
-0.050586
-0.048435
-0.046178
-0.043823
-0.041379
-0.038853
-0.036257
-0.033599
-0.030890
-0.028139
-0.025357
-0.022554
-0.019743
-0.016933
-0.014137
-0.011365
-0.008629
-0.005940
-0.003312
-0.000754
0.001722
0.004103
0.006379
0.008538
0.010570
0.012465
0.014213
0.015803
0.017229
0.018481
0.019554
0.020439
0.021134
0.021632
0.021932
0.022033
-0.067907
-0.067831
-0.067580
-0.067155
-0.066557
-0.065788
-0.064851
-0.063748
-0.062485
-0.061065
-0.059493
-0.057775
-0.055916
-0.053924
-0.051806
-0.049569
-0.047221
-0.044771
-0.042227
-0.039599
-0.036896
-0.034129
-0.031307
-0.028441
-0.025542
-0.022620
-0.019689
-0.016757
-0.013839
-0.010944
-0.008086
-0.005277
-0.002528
0.000148
0.002740
0.005234
0.007619
0.009884
0.012016
0.014005
0.015841
0.017513
0.019012
0.020329
0.021458
0.022390
0.023122
0.023647
0.023964
0.024069
-0.069916
-0.069838
-0.069578
-0.069135
-0.068513
-0.067712
-0.066736
-0.065589
-0.064273
-0.062794
-0.061156
-0.059366
-0.057430
-0.055355
-0.053147
-0.050816
-0.048368
-0.045814
-0.043161
-0.040421
-0.037602
-0.034714
-0.031769
-0.028777
-0.025750
-0.022699
-0.019635
-0.016570
-0.013518
-0.010489
-0.007497
-0.004554
-0.001673
0.001134
0.003853
0.006472
0.008978
0.011359
0.013602
0.015697
0.017630
0.019392
0.020973
0.022363
0.023555
0.024540
0.025312
0.025868
0.026203
0.026315
-0.072112
-0.072031
-0.071760
-0.071299
-0.070650
-0.069815
-0.068797
-0.067600
-0.066227
-0.064683
-0.062975
-0.061107
-0.059086
-0.056919
-0.054614
-0.052180
-0.049624
-0.046956
-0.044186
-0.041322
-0.038376
-0.035359
-0.032280
-0.029151
-0.025984
-0.022791
-0.019583
-0.016373
-0.013175
-0.009999
-0.006860
-0.003771
-0.000745
0.002205
0.005064
0.007821
0.010460
0.012969
0.015336
0.017546
0.019588
0.021450
0.023122
0.024593
0.025855
0.026898
0.027717
0.028306
0.028661
0.028781
-0.074502
-0.074418
-0.074135
-0.073654
-0.072976
-0.072104
-0.071041
-0.069789
-0.068355
-0.066741
-0.064955
-0.063002
-0.060889
-0.058624
-0.056214
-0.053668
-0.050995
-0.048204
-0.045305
-0.042309
-0.039225
-0.036066
-0.032842
-0.029564
-0.026246
-0.022899
-0.019535
-0.016167
-0.012810
-0.009475
-0.006176
-0.002928
0.000257
0.003363
0.006377
0.009284
0.012070
0.014720
0.017222
0.019560
0.021722
0.023696
0.025468
0.027029
0.028368
0.029477
0.030347
0.030974
0.031352
0.031480
-0.077094
-0.077007
-0.076712
-0.076209
-0.075500
-0.074588
-0.073475
-0.072166
-0.070664
-0.068976
-0.067106
-0.065061
-0.062848
-0.060476
-0.057952
-0.055285
-0.052485
-0.049561
-0.046524
-0.043384
-0.040152
-0.036840
-0.033459
-0.030021
-0.026539
-0.023025
-0.019492
-0.015954
-0.012424
-0.008916
-0.005444
-0.002022
0.001334
0.004611
0.007793
0.010865
0.013811
0.016617
0.019267
0.021747
0.024042
0.026138
0.028023
0.029683
0.031109
0.032290
0.033218
0.033886
0.034290
0.034426
-0.079899
-0.079809
-0.079500
-0.078974
-0.078232
-0.077277
-0.076111
-0.074739
-0.073165
-0.071395
-0.069434
-0.067290
-0.064971
-0.062483
-0.059836
-0.057039
-0.054102
-0.051035
-0.047849
-0.044554
-0.041162
-0.037685
-0.034135
-0.030525
-0.026866
-0.023173
-0.019458
-0.015736
-0.012019
-0.008324
-0.004664
-0.001055
0.002489
0.005951
0.009316
0.012568
0.015690
0.018666
0.021479
0.024115
0.026556
0.028788
0.030796
0.032568
0.034089
0.035351
0.036343
0.037058
0.037490
0.037637
-0.082927
-0.082834
-0.082511
-0.081960
-0.081182
-0.080180
-0.078957
-0.077517
-0.075866
-0.074008
-0.071950
-0.069700
-0.067264
-0.064652
-0.061873
-0.058937
-0.055852
-0.052631
-0.049285
-0.045824
-0.042260
-0.038606
-0.034875
-0.031079
-0.027231
-0.023344
-0.019434
-0.015513
-0.011597
-0.007700
-0.003837
-0.000025
0.003722
0.007385
0.010949
0.014397
0.017711
0.020873
0.023866
0.026672
0.029275
0.031657
0.033802
0.035696
0.037325
0.038676
0.039740
0.040506
0.040971
0.041129
-0.086190
-0.086094
-0.085756
-0.085178
-0.084361
-0.083309
-0.082025
-0.080513
-0.078778
-0.076825
-0.074663
-0.072298
-0.069738
-0.066993
-0.064072
-0.060985
-0.057743
-0.054357
-0.050838
-0.047199
-0.043451
-0.039608
-0.035683
-0.031688
-0.027637
-0.023544
-0.019423
-0.015290
-0.011159
-0.007044
-0.002964
0.001068
0.005033
0.008915
0.012695
0.016356
0.019879
0.023244
0.026434
0.029428
0.032209
0.034757
0.037054
0.039085
0.040832
0.042284
0.043427
0.044252
0.044752
0.044923
-0.089700
-0.089600
-0.089246
-0.088640
-0.087782
-0.086677
-0.085327
-0.083737
-0.081912
-0.079859
-0.077584
-0.075096
-0.072403
-0.069515
-0.066441
-0.063193
-0.059782
-0.056219
-0.052516
-0.048686
-0.044742
-0.040697
-0.036563
-0.032356
-0.028088
-0.023775
-0.019430
-0.015069
-0.010707
-0.006360
-0.002044
0.002223
0.006424
0.010541
0.014556
0.018448
0.022198
0.025787
0.029192
0.032393
0.035369
0.038101
0.040567
0.042749
0.044629
0.046193
0.047425
0.048315
0.048855
0.049041
-0.093471
-0.093367
-0.092996
-0.092359
-0.091458
-0.090295
-0.088875
-0.087201
-0.085281
-0.083119
-0.080724
-0.078104
-0.075268
-0.072226
-0.068990
-0.065569
-0.061977
-0.058225
-0.054326
-0.050292
-0.046138
-0.041877
-0.037522
-0.033088
-0.028590
-0.024041
-0.019456
-0.014852
-0.010244
-0.005648
-0.001082
0.003438
0.007894
0.012265
0.016533
0.020676
0.024675
0.028506
0.032147
0.035576
0.038768
0.041703
0.044356
0.046707
0.048736
0.050424
0.051757
0.052721
0.053306
0.053509
-0.097515
-0.097408
-0.097020
-0.096350
-0.095402
-0.094179
-0.092683
-0.090921
-0.088897
-0.086619
-0.084095
-0.081333
-0.078345
-0.075139
-0.071728
-0.068123
-0.064337
-0.060383
-0.056274
-0.052024
-0.047646
-0.043155
-0.038565
-0.033890
-0.029146
-0.024347
-0.019508
-0.014645
-0.009774
-0.004913
-0.000077
0.004714
0.009442
0.014087
0.018628
0.023044
0.027312
0.031408
0.035308
0.038987
0.042418
0.045578
0.048439
0.050979
0.053174
0.055003
0.056448
0.057495
0.058132
0.058353
-0.101850
-0.101740
-0.101332
-0.100629
-0.099631
-0.098343
-0.096767
-0.094909
-0.092775
-0.090373
-0.087710
-0.084798
-0.081645
-0.078264
-0.074666
-0.070864
-0.066871
-0.062702
-0.058369
-0.053888
-0.049273
-0.044538
-0.039698
-0.034767
-0.029762
-0.024697
-0.019588
-0.014450
-0.009301
-0.004157
0.000965
0.006046
0.011066
0.016005
0.020842
0.025553
0.030113
0.034499
0.038682
0.042636
0.046332
0.049741
0.052835
0.055586
0.057967
0.059955
0.061528
0.062669
0.063364
0.063607
-0.106491
-0.106378
-0.105951
-0.105211
-0.104161
-0.102803
-0.101142
-0.099182
-0.096930
-0.094395
-0.091585
-0.088510
-0.085182
-0.081612
-0.077814
-0.073802
-0.069589
-0.065190
-0.060620
-0.055893
-0.051025
-0.046031
-0.040926
-0.035725
-0.030444
-0.025098
-0.019703
-0.014274
-0.008829
-0.003384
0.002042
0.007432
0.012765
0.018020
0.023174
0.028203
0.033082
0.037783
0.042277
0.046534
0.050522
0.054209
0.057563
0.060551
0.063142
0.065310
0.067028
0.068276
0.069037
0.069305
-0.111456
-0.111340
-0.110893
-0.110115
-0.109010
-0.107578
-0.105825
-0.103757
-0.101380
-0.098702
-0.095733
-0.092484
-0.088968
-0.085197
-0.081186
-0.076948
-0.072500
-0.067857
-0.063033
-0.058046
-0.052910
-0.047642
-0.042257
-0.036770
-0.031198
-0.025555
-0.019857
-0.014121
-0.008363
-0.002601
0.003149
0.008867
0.014534
0.020126
0.025622
0.030995
0.036219
0.041264
0.046098
0.050690
0.055002
0.058999
0.062643
0.065898
0.068728
0.071100
0.072984
0.074354
0.075192
0.075488
-0.116764
-0.116647
-0.116178
-0.115361
-0.114196
-0.112687
-0.110837
-0.108653
-0.106141
-0.103310
-0.100171
-0.096737
-0.093019
-0.089032
-0.084792
-0.080314
-0.075615
-0.070711
-0.065618
-0.060354
-0.054935
-0.049377
-0.043696
-0.037908
-0.032028
-0.026073
-0.020058
-0.013998
-0.007911
-0.001812
0.004280
0.010346
0.016367
0.022320
0.028182
0.033926
0.039523
0.044943
0.050151
0.055111
0.059783
0.064126
0.068098
0.071655
0.074757
0.077362
0.079436
0.080947
0.081873
0.082203
-0.122437
-0.122318
-0.121828
-0.120970
-0.119743
-0.118151
-0.116198
-0.113889
-0.111233
-0.108239
-0.104918
-0.101284
-0.097349
-0.093132
-0.088646
-0.083911
-0.078944
-0.073762
-0.068384
-0.062826
-0.057107
-0.051243
-0.045250
-0.039145
-0.032943
-0.026659
-0.020310
-0.013911
-0.007477
-0.001026
0.005427
0.011862
0.018259
0.024596
0.030849
0.036992
0.042994
0.048822
0.054439
0.059806
0.064878
0.069609
0.073950
0.077851
0.081262
0.084136
0.086429
0.088105
0.089135
0.089503
-0.128495
-0.128376
-0.127865
-0.126964
-0.125672
-0.123993
-0.121930
-0.119489
-0.116679
-0.113509
-0.109993
-0.106143
-0.101976
-0.097510
-0.092762
-0.087752
-0.082498
-0.077020
-0.071338
-0.065470
-0.059433
-0.053246
-0.046925
-0.040487
-0.033947
-0.027320
-0.020622
-0.013867
-0.007071
-0.000249
0.006582
0.013404
0.020199
0.026944
0.033615
0.040185
0.046624
0.052896
0.058962
0.064778
0.070296
0.075462
0.080222
0.084515
0.088282
0.091468
0.094017
0.095885
0.097036
0.097451
-0.134963
-0.134846
-0.134314
-0.133369
-0.132009
-0.130238
-0.128059
-0.125477
-0.122502
-0.119143
-0.115415
-0.111334
-0.106917
-0.102183
-0.097152
-0.091847
-0.086287
-0.080494
-0.074489
-0.068291
-0.061919
-0.055392
-0.048727
-0.041940
-0.035047
-0.028062
-0.021000
-0.013875
-0.006701
0.000507
0.007734
0.014963
0.022176
0.029352
0.036468
0.043496
0.050405
0.057159
0.063717
0.070029
0.076044
0.081701
0.086936
0.091679
0.095859
0.099407
0.102257
0.104352
0.105647
0.106118
-0.141867
-0.141753
-0.141201
-0.140211
-0.138782
-0.136915
-0.134612
-0.131880
-0.128727
-0.125165
-0.121209
-0.116878
-0.112190
-0.107167
-0.101832
-0.096210
-0.090322
-0.084193
-0.077844
-0.071297
-0.064571
-0.057687
-0.050661
-0.043510
-0.036249
-0.028891
-0.021451
-0.013942
-0.006376
0.001234
0.008873
0.016526
0.024178
0.031808
0.039394
0.046910
0.054324
0.061600
0.068695
0.075556
0.082126
0.088337
0.094113
0.099375
0.104036
0.108011
0.111218
0.113584
0.115052
0.115591
-0.149233
-0.149126
-0.148556
-0.147522
-0.146022
-0.144054
-0.141621
-0.138728
-0.135384
-0.131603
-0.127400
-0.122797
-0.117815
-0.112480
-0.106817
-0.100852
-0.094613
-0.088124
-0.081409
-0.074492
-0.067394
-0.060135
-0.052732
-0.045201
-0.037557
-0.029813
-0.021983
-0.014076
-0.006105
0.001919
0.009984
0.018078
0.026186
0.034291
0.042373
0.050406
0.058361
0.066202
0.073882
0.081349
0.088539
0.095375
0.101772
0.107635
0.112861
0.117342
0.120977
0.123671
0.125349
0.125972
-0.157091
-0.156996
-0.156411
-0.155334
-0.153762
-0.151691
-0.149120
-0.146056
-0.142506
-0.138487
-0.134015
-0.129116
-0.123814
-0.118139
-0.112120
-0.105786
-0.099168
-0.092294
-0.085191
-0.077882
-0.070391
-0.062738
-0.054941
-0.047016
-0.038976
-0.030834
-0.022601
-0.014287
-0.005901
0.002549
0.011053
0.019601
0.028182
0.036781
0.045381
0.053961
0.062491
0.070938
0.079256
0.087390
0.095271
0.102816
0.109926
0.116490
0.122382
0.127470
0.131623
0.134718
0.136657
0.137383
-0.165473
-0.165394
-0.164800
-0.163685
-0.162042
-0.159864
-0.157150
-0.153902
-0.150130
-0.145851
-0.141086
-0.135862
-0.130210
-0.124163
-0.117756
-0.111023
-0.103997
-0.096710
-0.089191
-0.081468
-0.073563
-0.065498
-0.057291
-0.048957
-0.040509
-0.031958
-0.023314
-0.014583
-0.005772
0.003112
0.012064
0.021076
0.030142
0.039251
0.048390
0.057541
0.066680
0.075775
0.084784
0.093649
0.102301
0.110648
0.118579
0.125963
0.132649
0.138471
0.143260
0.146853
0.149118
0.149977
-0.174411
-0.174357
-0.173761
-0.172615
-0.170905
-0.168621
-0.165756
-0.162312
-0.158299
-0.153735
-0.148646
-0.143065
-0.137027
-0.130572
-0.123740
-0.116571
-0.109104
-0.101374
-0.093413
-0.085249
-0.076909
-0.068414
-0.059780
-0.051024
-0.042157
-0.033189
-0.024125
-0.014971
-0.005731
0.003593
0.012998
0.022482
0.032042
0.041672
0.051365
0.061109
0.070886
0.080668
0.090418
0.100082
0.109589
0.118843
0.127721
0.136070
0.143707
0.150427
0.156006
0.160229
0.162911
0.163941
-0.183940
-0.183923
-0.183338
-0.182172
-0.180403
-0.178014
-0.174993
-0.171339
-0.167062
-0.162184
-0.156736
-0.150756
-0.144289
-0.137383
-0.130084
-0.122440
-0.114494
-0.106287
-0.097853
-0.089223
-0.080425
-0.071480
-0.062406
-0.053216
-0.043920
-0.034526
-0.025038
-0.015458
-0.005787
0.003978
0.013837
0.023794
0.033851
0.044008
0.054266
0.064618
0.075054
0.085558
0.096097
0.106626
0.117076
0.127352
0.137320
0.146806
0.155594
0.163421
0.169998
0.175031
0.178257
0.179515
-0.194098
-0.194134
-0.193578
-0.192409
-0.190596
-0.188108
-0.184926
-0.181046
-0.176479
-0.171250
-0.165398
-0.158971
-0.152025
-0.144616
-0.136801
-0.128635
-0.120168
-0.111445
-0.102505
-0.093382
-0.084103
-0.074690
-0.065160
-0.055525
-0.045794
-0.035971
-0.026057
-0.016051
-0.005949
0.004253
0.014563
0.024990
0.035540
0.046223
0.057045
0.068012
0.079123
0.090371
0.101739
0.113193
0.124675
0.136093
0.147312
0.158141
0.168323
0.177533
0.185390
0.191484
0.195437
0.197007
-0.204921
-0.205033
-0.204534
-0.203392
-0.201556
-0.198981
-0.195636
-0.191511
-0.186619
-0.180993
-0.174682
-0.167749
-0.160260
-0.152287
-0.143897
-0.135156
-0.126120
-0.116840
-0.107359
-0.097713
-0.087929
-0.078031
-0.068032
-0.057944
-0.047772
-0.037518
-0.027180
-0.016752
-0.006227
0.004405
0.015157
0.026042
0.037076
0.048274
0.059654
0.071230
0.083016
0.095020
0.107243
0.119669
0.132260
0.144941
0.157585
0.169993
0.181873
0.192825
0.202347
0.209864
0.214818
0.216827
-0.216448
-0.216670
-0.216270
-0.215197
-0.213374
-0.210731
-0.207220
-0.202828
-0.197568
-0.191486
-0.184646
-0.177130
-0.169022
-0.160411
-0.151378
-0.141998
-0.132339
-0.122457
-0.112397
-0.102198
-0.091887
-0.081485
-0.071007
-0.060459
-0.049844
-0.039162
-0.028404
-0.017563
-0.006626
0.004423
0.015601
0.026928
0.038426
0.050120
0.062036
0.074203
0.086649
0.099401
0.112483
0.125907
0.139665
0.153715
0.167958
0.182207
0.196150
0.209310
0.221032
0.230505
0.236878
0.239533
-0.228714
-0.229096
-0.228859
-0.227922
-0.226165
-0.223484
-0.219808
-0.215115
-0.209430
-0.202813
-0.195354
-0.187158
-0.178336
-0.168996
-0.159238
-0.149150
-0.138808
-0.128273
-0.117594
-0.106811
-0.095950
-0.085030
-0.074063
-0.063052
-0.051997
-0.040891
-0.029724
-0.018482
-0.007148
0.004298
0.015880
0.027624
0.039559
0.051718
0.064139
0.076861
0.089931
0.103398
0.117313
0.131724
0.146669
0.162160
0.178154
0.194513
0.210940
0.226904
0.241574
0.253801
0.262263
0.265912
-0.241752
-0.242368
-0.242391
-0.241691
-0.240083
-0.237407
-0.233564
-0.228526
-0.222332
-0.215073
-0.206874
-0.197876
-0.188222
-0.178045
-0.167467
-0.156588
-0.145495
-0.134254
-0.122916
-0.111518
-0.100087
-0.088637
-0.077175
-0.065702
-0.054211
-0.042692
-0.031130
-0.019505
-0.007796
0.004024
0.015982
0.028111
0.040447
0.053030
0.065908
0.079133
0.092769
0.106887
0.121569
0.136908
0.153000
0.169934
0.187766
0.206465
0.225824
0.245325
0.263973
0.280174
0.291841
0.297114
-0.255592
-0.256556
-0.256987
-0.256678
-0.255339
-0.252729
-0.248711
-0.243256
-0.236434
-0.228385
-0.219285
-0.209325
-0.198690
-0.187546
-0.176035
-0.164275
-0.152359
-0.140356
-0.128317
-0.116277
-0.104256
-0.092267
-0.080309
-0.068378
-0.056463
-0.044546
-0.032607
-0.020622
-0.008564
0.003599
0.015899
0.028375
0.041066
0.054022
0.067297
0.080955
0.095074
0.109745
0.125083
0.141225
0.158336
0.176607
0.196235
0.217381
0.240053
0.263908
0.287916
0.309970
0.326771
0.334899
-0.270258
-0.271744
-0.272814
-0.273131
-0.272235
-0.269769
-0.265547
-0.259558
-0.251930
-0.242880
-0.232663
-0.221535
-0.209735
-0.197467
-0.184897
-0.172154
-0.159338
-0.146516
-0.133738
-0.121031
-0.108409
-0.095876
-0.083427
-0.071049
-0.058724
-0.046430
-0.034139
-0.021822
-0.009446
0.003025
0.015628
0.028405
0.041402
0.054670
0.068270
0.082275
0.096771
0.111866
0.127699
0.144445
0.162336
0.181673
0.202837
0.226266
0.252375
0.281299
0.312351
0.343101
0.368485
0.382065
-0.285785
-0.288063
-0.290126
-0.291423
-0.291220
-0.288984
-0.284483
-0.277761
-0.269055
-0.258704
-0.247075
-0.234516
-0.221327
-0.207751
-0.193978
-0.180145
-0.166351
-0.152658
-0.139107
-0.125714
-0.112485
-0.099413
-0.086483
-0.073674
-0.060962
-0.048316
-0.035704
-0.023088
-0.010431
0.002309
0.015171
0.028201
0.041447
0.054961
0.068808
0.083062
0.097813
0.113175
0.129297
0.146375
0.164685
0.184618
0.206731
0.231804
0.260849
0.294950
0.334604
0.378025
0.418239
0.443036
-0.302264
-0.305748
-0.309346
-0.312157
-0.312981
-0.311039
-0.306081
-0.298285
-0.288082
-0.276001
-0.262568
-0.248240
-0.233391
-0.218299
-0.203169
-0.188137
-0.173292
-0.158683
-0.144334
-0.130249
-0.116416
-0.102816
-0.089424
-0.076210
-0.063139
-0.050175
-0.037277
-0.024402
-0.011504
0.001461
0.014537
0.027769
0.041204
0.054897
0.068908
0.083309
0.098186
0.113646
0.129826
0.146914
0.165179
0.185033
0.207124
0.232498
0.262809
0.300521
0.348664
0.408856
0.474752
0.523242
-0.320042
-0.325299
-0.331221
-0.336326
-0.338596
-0.336914
-0.331110
-0.321652
-0.309305
-0.294887
-0.279127
-0.262617
-0.245792
-0.228959
-0.212316
-0.195984
-0.180027
-0.164472
-0.149317
-0.134543
-0.120123
-0.106019
-0.092194
-0.078606
-0.065214
-0.051971
-0.038831
-0.025741
-0.012650
0.000494
0.013738
0.027121
0.040689
0.054492
0.068587
0.083038
0.097919
0.113316
0.129333
0.146107
0.163833
0.182818
0.203599
0.227165
0.255400
0.291861
0.342941
0.418522
0.524542
0.621565
-0.340443
-0.347898
-0.357125
-0.365610
-0.369725
-0.367975
-0.360519
-0.348403
-0.332942
-0.315351
-0.296603
-0.277421
-0.258283
-0.239484
-0.221190
-0.203481
-0.186379
-0.169872
-0.153924
-0.138488
-0.123513
-0.108943
-0.094725
-0.080805
-0.067134
-0.053662
-0.040331
-0.027078
-0.013842
-0.000566
0.012801
0.026289
0.039936
0.053788
0.067896
0.082316
0.097102
0.112312
0.128000
0.144218
0.161018
0.178466
0.196698
0.216089
0.237700
0.264412
0.304078
0.379057
0.537188
0.742337
-0.370239
-0.375694
-0.388489
-0.400693
-0.406525
-0.403883
-0.393537
-0.377474
-0.357793
-0.336191
-0.313859
-0.291643
-0.269991
-0.249136
-0.229173
-0.210114
-0.191920
-0.174527
-0.157858
-0.141833
-0.126374
-0.111405
-0.096857
-0.082664
-0.068772
-0.055130
-0.041674
-0.028319
-0.014969
-0.001594
0.011869
0.025430
0.039116
0.052973
0.067051
0.081395
0.096046
0.111031
0.126355
0.141980
0.157790
0.173541
0.188788
0.202881
0.215374
0.228188
0.253891
0.339775
0.604446
1.062409
-0.446682
-0.346598
-0.367422
-0.396432
-0.413352
-0.416159
-0.407507
-0.391033
-0.369952
-0.346631
-0.322627
-0.298900
-0.275961
-0.254042
-0.233213
-0.213455
-0.194697
-0.176850
-0.159814
-0.143493
-0.127792
-0.112626
-0.097916
-0.083592
-0.069598
-0.055884
-0.042381
-0.028987
-0.015576
-0.002048
0.011512
0.025112
0.038812
0.052667
0.066726
0.081029
0.095607
0.110472
0.125601
0.140913
0.156227
0.171237
0.185540
0.199032
0.213534
0.238203
0.304671
0.499697
0.993866
1.860464
