# vtk DataFile Version 3.0
Vector Field
ASCII
DATASET RECTILINEAR_GRID
DIMENSIONS 50 50 1
X_COORDINATES 50 double
0.100000 0.300000 0.500000 0.700000 0.900000 1.100000 1.300000 1.500000 1.700000 1.900000 2.100000 2.300000 2.500000 2.700000 2.900000 3.100000 3.300000 3.500000 3.700000 3.900000 4.100000 4.300000 4.500000 4.700000 4.900000 5.100000 5.300000 5.500000 5.700000 5.900000 6.100000 6.300000 6.500000 6.700000 6.900000 7.100000 7.300000 7.500000 7.700000 7.900000 8.100000 8.300000 8.500000 8.700000 8.900000 9.100000 9.300000 9.500000 9.700000 9.900000 
Y_COORDINATES 50 double
0.100000 0.300000 0.500000 0.700000 0.900000 1.100000 1.300000 1.500000 1.700000 1.900000 2.100000 2.300000 2.500000 2.700000 2.900000 3.100000 3.300000 3.500000 3.700000 3.900000 4.100000 4.300000 4.500000 4.700000 4.900000 5.100000 5.300000 5.500000 5.700000 5.900000 6.100000 6.300000 6.500000 6.700000 6.900000 7.100000 7.300000 7.500000 7.700000 7.900000 8.100000 8.300000 8.500000 8.700000 8.900000 9.100000 9.300000 9.500000 9.700000 9.900000 
Z_COORDINATES 1 double
0.0
POINT_DATA 2500
VECTORS Vektorfeld double
-0.000177 0.000177 0.0
-0.000794 0.000440 0.0
-0.001792 0.000558 0.0
-0.002947 0.000597 0.0
-0.004149 0.000606 0.0
-0.005361 0.000606 0.0
-0.006572 0.000605 0.0
-0.007780 0.000603 0.0
-0.008985 0.000602 0.0
-0.010187 0.000600 0.0
-0.011385 0.000597 0.0
-0.012576 0.000594 0.0
-0.013760 0.000590 0.0
-0.014934 0.000584 0.0
-0.016095 0.000577 0.0
-0.017240 0.000568 0.0
-0.018365 0.000557 0.0
-0.019467 0.000544 0.0
-0.020540 0.000529 0.0
-0.021579 0.000510 0.0
-0.022578 0.000489 0.0
-0.023531 0.000463 0.0
-0.024428 0.000434 0.0
-0.025262 0.000400 0.0
-0.026025 0.000362 0.0
-0.026706 0.000319 0.0
-0.027295 0.000270 0.0
-0.027781 0.000216 0.0
-0.028154 0.000157 0.0
-0.028402 0.000091 0.0
-0.028514 0.000021 0.0
-0.028479 -0.000055 0.0
-0.028286 -0.000138 0.0
-0.027924 -0.000225 0.0
-0.027383 -0.000316 0.0
-0.026656 -0.000411 0.0
-0.025736 -0.000508 0.0
-0.024621 -0.000607 0.0
-0.023309 -0.000705 0.0
-0.021803 -0.000801 0.0
-0.020107 -0.000894 0.0
-0.018230 -0.000982 0.0
-0.016185 -0.001064 0.0
-0.013985 -0.001137 0.0
-0.011649 -0.001199 0.0
-0.009205 -0.001246 0.0
-0.006695 -0.001264 0.0
-0.004216 -0.001216 0.0
-0.001987 -0.001013 0.0
-0.000487 -0.000487 0.0
-0.000452 0.000806 0.0
-0.001791 0.001766 0.0
-0.003761 0.002200 0.0
-0.006003 0.002352 0.0
-0.008339 0.002390 0.0
-0.010699 0.002393 0.0
-0.013056 0.002386 0.0
-0.015402 0.002377 0.0
-0.017733 0.002365 0.0
-0.020046 0.002351 0.0
-0.022337 0.002334 0.0
-0.024601 0.002313 0.0
-0.026835 0.002288 0.0
-0.029033 0.002257 0.0
-0.031189 0.002221 0.0
-0.033297 0.002177 0.0
-0.035349 0.002126 0.0
-0.037338 0.002066 0.0
-0.039254 0.001996 0.0
-0.041087 0.001915 0.0
-0.042826 0.001822 0.0
-0.044460 0.001716 0.0
-0.045975 0.001594 0.0
-0.047358 0.001457 0.0
-0.048593 0.001303 0.0
-0.049666 0.001131 0.0
-0.050559 0.000940 0.0
-0.051255 0.000729 0.0
-0.051738 0.000499 0.0
-0.051989 0.000248 0.0
-0.051992 -0.000021 0.0
-0.051729 -0.000311 0.0
-0.051183 -0.000620 0.0
-0.050341 -0.000946 0.0
-0.049192 -0.001286 0.0
-0.047725 -0.001636 0.0
-0.045934 -0.001994 0.0
-0.043817 -0.002354 0.0
-0.041374 -0.002712 0.0
-0.038611 -0.003063 0.0
-0.035540 -0.003400 0.0
-0.032175 -0.003718 0.0
-0.028536 -0.004012 0.0
-0.024651 -0.004274 0.0
-0.020551 -0.004496 0.0
-0.016284 -0.004660 0.0
-0.011929 -0.004715 0.0
-0.007641 -0.004532 0.0
-0.003754 -0.003813 0.0
-0.000984 -0.001957 0.0
-0.000586 0.001845 0.0
-0.002278 0.003759 0.0
-0.004710 0.004609 0.0
-0.007444 0.004917 0.0
-0.010282 0.005000 0.0
-0.013146 0.005006 0.0
-0.016003 0.004988 0.0
-0.018845 0.004962 0.0
-0.021662 0.004929 0.0
-0.024451 0.004889 0.0
-0.027207 0.004842 0.0
-0.029922 0.004786 0.0
-0.032593 0.004720 0.0
-0.035211 0.004642 0.0
-0.037770 0.004551 0.0
-0.040262 0.004446 0.0
-0.042677 0.004325 0.0
-0.045006 0.004185 0.0
-0.047239 0.004026 0.0
-0.049364 0.003844 0.0
-0.051369 0.003637 0.0
-0.053239 0.003404 0.0
-0.054960 0.003142 0.0
-0.056517 0.002849 0.0
-0.057894 0.002523 0.0
-0.059071 0.002162 0.0
-0.060033 0.001764 0.0
-0.060758 0.001328 0.0
-0.061230 0.000854 0.0
-0.061427 0.000342 0.0
-0.061331 -0.000208 0.0
-0.060924 -0.000795 0.0
-0.060191 -0.001416 0.0
-0.059116 -0.002067 0.0
-0.057687 -0.002743 0.0
-0.055895 -0.003438 0.0
-0.053734 -0.004144 0.0
-0.051202 -0.004854 0.0
-0.048301 -0.005557 0.0
-0.045038 -0.006243 0.0
-0.041427 -0.006902 0.0
-0.037486 -0.007523 0.0
-0.033237 -0.008094 0.0
-0.028712 -0.008603 0.0
-0.023948 -0.009031 0.0
-0.018999 -0.009341 0.0
-0.013952 -0.009436 0.0
-0.008978 -0.009073 0.0
-0.004441 -0.007696 0.0
-0.001173 -0.004113 0.0
-0.000637 0.003068 0.0
-0.002474 0.006063 0.0
-0.005102 0.007365 0.0
-0.008042 0.007836 0.0
-0.011085 0.007963 0.0
-0.014150 0.007971 0.0
-0.017207 0.007939 0.0
-0.020245 0.007890 0.0
-0.023255 0.007829 0.0
-0.026232 0.007756 0.0
-0.029171 0.007669 0.0
-0.032064 0.007568 0.0
-0.034906 0.007450 0.0
-0.037688 0.007313 0.0
-0.040405 0.007155 0.0
-0.043046 0.006975 0.0
-0.045602 0.006768 0.0
-0.048065 0.006533 0.0
-0.050421 0.006267 0.0
-0.052661 0.005966 0.0
-0.054770 0.005628 0.0
-0.056734 0.005249 0.0
-0.058539 0.004825 0.0
-0.060169 0.004354 0.0
-0.061606 0.003832 0.0
-0.062832 0.003257 0.0
-0.063829 0.002626 0.0
-0.064576 0.001939 0.0
-0.065055 0.001193 0.0
-0.065245 0.000390 0.0
-0.065126 -0.000471 0.0
-0.064681 -0.001385 0.0
-0.063891 -0.002349 0.0
-0.062742 -0.003358 0.0
-0.061220 -0.004403 0.0
-0.059315 -0.005475 0.0
-0.057021 -0.006563 0.0
-0.054334 -0.007654 0.0
-0.051257 -0.008734 0.0
-0.047799 -0.009787 0.0
-0.043971 -0.010797 0.0
-0.039792 -0.011748 0.0
-0.035289 -0.012621 0.0
-0.030492 -0.013398 0.0
-0.025442 -0.014050 0.0
-0.020195 -0.014519 0.0
-0.014841 -0.014660 0.0
-0.009554 -0.014110 0.0
-0.004723 -0.012027 0.0
-0.001244 -0.006530 0.0
-0.000653 0.004358 0.0
-0.002540 0.008497 0.0
-0.005245 0.010264 0.0
-0.008267 0.010898 0.0
-0.011392 0.011068 0.0
-0.014536 0.011075 0.0
-0.017671 0.011027 0.0
-0.020785 0.010953 0.0
-0.023871 0.010862 0.0
-0.026924 0.010752 0.0
-0.029936 0.010624 0.0
-0.032902 0.010473 0.0
-0.035816 0.010300 0.0
-0.038669 0.010100 0.0
-0.041455 0.009871 0.0
-0.044165 0.009610 0.0
-0.046789 0.009314 0.0
-0.049318 0.008979 0.0
-0.051740 0.008601 0.0
-0.054044 0.008176 0.0
-0.056217 0.007700 0.0
-0.058244 0.007168 0.0
-0.060111 0.006577 0.0
-0.061801 0.005921 0.0
-0.063297 0.005197 0.0
-0.064580 0.004401 0.0
-0.065630 0.003530 0.0
-0.066429 0.002582 0.0
-0.066955 0.001555 0.0
-0.067187 0.000450 0.0
-0.067105 -0.000732 0.0
-0.066689 -0.001986 0.0
-0.065919 -0.003308 0.0
-0.064779 -0.004689 0.0
-0.063253 -0.006119 0.0
-0.061329 -0.007587 0.0
-0.058999 -0.009075 0.0
-0.056259 -0.010568 0.0
-0.053110 -0.012045 0.0
-0.049559 -0.013486 0.0
-0.045618 -0.014867 0.0
-0.041306 -0.016167 0.0
-0.036650 -0.017361 0.0
-0.031682 -0.018422 0.0
-0.026445 -0.019312 0.0
-0.020996 -0.019952 0.0
-0.015429 -0.020147 0.0
-0.009929 -0.019409 0.0
-0.004900 -0.016587 0.0
-0.001287 -0.009061 0.0
-0.000657 0.005667 0.0
-0.002562 0.010981 0.0
-0.005300 0.013223 0.0
-0.008359 0.014020 0.0
-0.011521 0.014232 0.0
-0.014703 0.014237 0.0
-0.017875 0.014172 0.0
-0.021027 0.014074 0.0
-0.024151 0.013952 0.0
-0.027242 0.013806 0.0
-0.030295 0.013635 0.0
-0.033302 0.013436 0.0
-0.036258 0.013207 0.0
-0.039156 0.012944 0.0
-0.041989 0.012644 0.0
-0.044747 0.012304 0.0
-0.047422 0.011919 0.0
-0.050005 0.011485 0.0
-0.052485 0.010996 0.0
-0.054849 0.010449 0.0
-0.057085 0.009836 0.0
-0.059179 0.009154 0.0
-0.061116 0.008395 0.0
-0.062879 0.007556 0.0
-0.064451 0.006630 0.0
-0.065813 0.005613 0.0
-0.066944 0.004500 0.0
-0.067824 0.003290 0.0
-0.068431 0.001979 0.0
-0.068742 0.000569 0.0
-0.068735 -0.000939 0.0
-0.068389 -0.002541 0.0
-0.067680 -0.004230 0.0
-0.066590 -0.005996 0.0
-0.065101 -0.007827 0.0
-0.063198 -0.009706 0.0
-0.060870 -0.011614 0.0
-0.058110 -0.013529 0.0
-0.054919 -0.015425 0.0
-0.051300 -0.017276 0.0
-0.047265 -0.019053 0.0
-0.042834 -0.020724 0.0
-0.038034 -0.022261 0.0
-0.032898 -0.023626 0.0
-0.027471 -0.024772 0.0
-0.021815 -0.025597 0.0
-0.016030 -0.025854 0.0
-0.010310 -0.024923 0.0
-0.005083 -0.021329 0.0
-0.001333 -0.011682 0.0
-0.000658 0.006982 0.0
-0.002573 0.013486 0.0
-0.005329 0.016212 0.0
-0.008414 0.017175 0.0
-0.011602 0.017428 0.0
-0.014811 0.017432 0.0
-0.018011 0.017350 0.0
-0.021192 0.017228 0.0
-0.024346 0.017076 0.0
-0.027469 0.016896 0.0
-0.030555 0.016684 0.0
-0.033599 0.016438 0.0
-0.036594 0.016156 0.0
-0.039534 0.015833 0.0
-0.042412 0.015466 0.0
-0.045220 0.015049 0.0
-0.047949 0.014579 0.0
-0.050590 0.014049 0.0
-0.053134 0.013454 0.0
-0.055567 0.012788 0.0
-0.057878 0.012044 0.0
-0.060052 0.011215 0.0
-0.062075 0.010294 0.0
-0.063930 0.009275 0.0
-0.065599 0.008151 0.0
-0.067062 0.006916 0.0
-0.068298 0.005565 0.0
-0.069286 0.004093 0.0
-0.070001 0.002498 0.0
-0.070420 0.000780 0.0
-0.070517 -0.001060 0.0
-0.070269 -0.003017 0.0
-0.069649 -0.005083 0.0
-0.068636 -0.007247 0.0
-0.067208 -0.009494 0.0
-0.065346 -0.011804 0.0
-0.063036 -0.014154 0.0
-0.060268 -0.016516 0.0
-0.057038 -0.018859 0.0
-0.053350 -0.021149 0.0
-0.049214 -0.023350 0.0
-0.044648 -0.025423 0.0
-0.039680 -0.027330 0.0
-0.034347 -0.029026 0.0
-0.028695 -0.030450 0.0
-0.022794 -0.031477 0.0
-0.016749 -0.031804 0.0
-0.010768 -0.030674 0.0
-0.005305 -0.026270 0.0
-0.001390 -0.014405 0.0
-0.000659 0.008299 0.0
-0.002582 0.016006 0.0
-0.005357 0.019224 0.0
-0.008465 0.020355 0.0
-0.011679 0.020651 0.0
-0.014915 0.020654 0.0
-0.018143 0.020556 0.0
-0.021353 0.020412 0.0
-0.024539 0.020232 0.0
-0.027695 0.020019 0.0
-0.030818 0.019769 0.0
-0.033901 0.019480 0.0
-0.036938 0.019148 0.0
-0.039925 0.018768 0.0
-0.042854 0.018337 0.0
-0.045719 0.017850 0.0
-0.048510 0.017299 0.0
-0.051219 0.016680 0.0
-0.053836 0.015984 0.0
-0.056350 0.015206 0.0
-0.058749 0.014336 0.0
-0.061019 0.013367 0.0
-0.063146 0.012291 0.0
-0.065111 0.011099 0.0
-0.066897 0.009782 0.0
-0.068483 0.008334 0.0
-0.069849 0.006748 0.0
-0.070969 0.005017 0.0
-0.071819 0.003139 0.0
-0.072372 0.001111 0.0
-0.072600 -0.001065 0.0
-0.072477 -0.003384 0.0
-0.071972 -0.005839 0.0
-0.071059 -0.008417 0.0
-0.069712 -0.011100 0.0
-0.067908 -0.013864 0.0
-0.065628 -0.016684 0.0
-0.062858 -0.019524 0.0
-0.059590 -0.022348 0.0
-0.055825 -0.025114 0.0
-0.051571 -0.027776 0.0
-0.046846 -0.030288 0.0
-0.041678 -0.032601 0.0
-0.036106 -0.034660 0.0
-0.030184 -0.036390 0.0
-0.023983 -0.037639 0.0
-0.017623 -0.038047 0.0
-0.011327 -0.036707 0.0
-0.005577 -0.031451 0.0
-0.001460 -0.017255 0.0
-0.000661 0.009619 0.0
-0.002593 0.018542 0.0
-0.005387 0.022258 0.0
-0.008521 0.023562 0.0
-0.011763 0.023902 0.0
-0.015029 0.023905 0.0
-0.018289 0.023793 0.0
-0.021532 0.023628 0.0
-0.024753 0.023423 0.0
-0.027947 0.023179 0.0
-0.031110 0.022894 0.0
-0.034237 0.022565 0.0
-0.037323 0.022187 0.0
-0.040363 0.021756 0.0
-0.043350 0.021266 0.0
-0.046278 0.020713 0.0
-0.049139 0.020088 0.0
-0.051926 0.019386 0.0
-0.054628 0.018597 0.0
-0.057235 0.017714 0.0
-0.059736 0.016728 0.0
-0.062117 0.015627 0.0
-0.064364 0.014403 0.0
-0.066458 0.013046 0.0
-0.068382 0.011545 0.0
-0.070114 0.009891 0.0
-0.071632 0.008075 0.0
-0.072911 0.006089 0.0
-0.073923 0.003929 0.0
-0.074638 0.001590 0.0
-0.075027 -0.000926 0.0
-0.075056 -0.003617 0.0
-0.074694 -0.006474 0.0
-0.073907 -0.009482 0.0
-0.072666 -0.012623 0.0
-0.070939 -0.015871 0.0
-0.068704 -0.019192 0.0
-0.065940 -0.022549 0.0
-0.062635 -0.025896 0.0
-0.058785 -0.029182 0.0
-0.054395 -0.032352 0.0
-0.049483 -0.035349 0.0
-0.044079 -0.038113 0.0
-0.038223 -0.040576 0.0
-0.031974 -0.042646 0.0
-0.025414 -0.044143 0.0
-0.018675 -0.044643 0.0
-0.012000 -0.043082 0.0
-0.005904 -0.036922 0.0
-0.001545 -0.020260 0.0
-0.000663 0.010943 0.0
-0.002606 0.021093 0.0
-0.005422 0.025317 0.0
-0.008584 0.026797 0.0
-0.011858 0.027183 0.0
-0.015157 0.027188 0.0
-0.018452 0.027064 0.0
-0.021731 0.026880 0.0
-0.024991 0.026651 0.0
-0.028227 0.026380 0.0
-0.031435 0.026064 0.0
-0.034612 0.025698 0.0
-0.037751 0.025279 0.0
-0.040850 0.024801 0.0
-0.043902 0.024260 0.0
-0.046901 0.023647 0.0
-0.049841 0.022956 0.0
-0.052714 0.022178 0.0
-0.055512 0.021305 0.0
-0.058224 0.020327 0.0
-0.060841 0.019232 0.0
-0.063348 0.018010 0.0
-0.065731 0.016649 0.0
-0.067973 0.015137 0.0
-0.070056 0.013461 0.0
-0.071957 0.011609 0.0
-0.073653 0.009571 0.0
-0.075118 0.007336 0.0
-0.076320 0.004896 0.0
-0.077230 0.002247 0.0
-0.077810 -0.000614 0.0
-0.078026 -0.003684 0.0
-0.077839 -0.006956 0.0
-0.077210 -0.010415 0.0
-0.076102 -0.014040 0.0
-0.074479 -0.017803 0.0
-0.072308 -0.021666 0.0
-0.069562 -0.025585 0.0
-0.066224 -0.029504 0.0
-0.062283 -0.033365 0.0
-0.057741 -0.037100 0.0
-0.052614 -0.040640 0.0
-0.046932 -0.043909 0.0
-0.040741 -0.046827 0.0
-0.034105 -0.049280 0.0
-0.027118 -0.051056 0.0
-0.019926 -0.051661 0.0
-0.012798 -0.049867 0.0
-0.006292 -0.042739 0.0
-0.001644 -0.023449 0.0
-0.000665 0.012270 0.0
-0.002619 0.023663 0.0
-0.005460 0.028404 0.0
-0.008653 0.030065 0.0
-0.011962 0.030499 0.0
-0.015298 0.030508 0.0
-0.018631 0.030372 0.0
-0.021951 0.030171 0.0
-0.025253 0.029922 0.0
-0.028535 0.029627 0.0
-0.031793 0.029283 0.0
-0.035022 0.028885 0.0
-0.038220 0.028430 0.0
-0.041383 0.027911 0.0
-0.044505 0.027324 0.0
-0.047582 0.026659 0.0
-0.050609 0.025910 0.0
-0.053577 0.025066 0.0
-0.056480 0.024118 0.0
-0.059309 0.023055 0.0
-0.062054 0.021864 0.0
-0.064701 0.020533 0.0
-0.067238 0.019047 0.0
-0.069647 0.017391 0.0
-0.071910 0.015552 0.0
-0.074005 0.013514 0.0
-0.075906 0.011263 0.0
-0.077586 0.008787 0.0
-0.079012 0.006074 0.0
-0.080149 0.003116 0.0
-0.080959 -0.000092 0.0
-0.081399 -0.003550 0.0
-0.081425 -0.007251 0.0
-0.080992 -0.011182 0.0
-0.080054 -0.015320 0.0
-0.078566 -0.019635 0.0
-0.076486 -0.024085 0.0
-0.073778 -0.028618 0.0
-0.070415 -0.033171 0.0
-0.066381 -0.037673 0.0
-0.061672 -0.042043 0.0
-0.056301 -0.046195 0.0
-0.050298 -0.050039 0.0
-0.043714 -0.053473 0.0
-0.036622 -0.056362 0.0
-0.029128 -0.058456 0.0
-0.021399 -0.059182 0.0
-0.013736 -0.057137 0.0
-0.006745 -0.048966 0.0
-0.001761 -0.026854 0.0
-0.000667 0.013602 0.0
-0.002634 0.026254 0.0
-0.005501 0.031521 0.0
-0.008728 0.033367 0.0
-0.012075 0.033852 0.0
-0.015450 0.033866 0.0
-0.018824 0.033721 0.0
-0.022188 0.033506 0.0
-0.025536 0.033239 0.0
-0.028867 0.032923 0.0
-0.032178 0.032555 0.0
-0.035465 0.032130 0.0
-0.038725 0.031644 0.0
-0.041956 0.031091 0.0
-0.045154 0.030464 0.0
-0.048315 0.029756 0.0
-0.051434 0.028957 0.0
-0.054505 0.028058 0.0
-0.057523 0.027047 0.0
-0.060479 0.025911 0.0
-0.063363 0.024637 0.0
-0.066166 0.023210 0.0
-0.068873 0.021613 0.0
-0.071468 0.019829 0.0
-0.073933 0.017842 0.0
-0.076246 0.015632 0.0
-0.078380 0.013182 0.0
-0.080307 0.010475 0.0
-0.081992 0.007497 0.0
-0.083396 0.004234 0.0
-0.084476 0.000679 0.0
-0.085185 -0.003172 0.0
-0.085471 -0.007316 0.0
-0.085280 -0.011740 0.0
-0.084556 -0.016423 0.0
-0.083244 -0.021332 0.0
-0.081291 -0.026422 0.0
-0.078649 -0.031632 0.0
-0.075279 -0.036890 0.0
-0.071155 -0.042112 0.0
-0.066266 -0.047201 0.0
-0.060620 -0.052053 0.0
-0.054249 -0.056555 0.0
-0.047208 -0.060583 0.0
-0.039579 -0.063972 0.0
-0.031488 -0.066430 0.0
-0.023126 -0.067298 0.0
-0.014831 -0.064979 0.0
-0.007272 -0.055674 0.0
-0.001894 -0.030509 0.0
-0.000669 0.014937 0.0
-0.002649 0.028866 0.0
-0.005545 0.034672 0.0
-0.008808 0.036708 0.0
-0.012195 0.037245 0.0
-0.015612 0.037266 0.0
-0.019030 0.037114 0.0
-0.022440 0.036886 0.0
-0.025837 0.036605 0.0
-0.029220 0.036271 0.0
-0.032586 0.035883 0.0
-0.035933 0.035436 0.0
-0.039259 0.034925 0.0
-0.042563 0.034344 0.0
-0.045840 0.033687 0.0
-0.049089 0.032944 0.0
-0.052306 0.032106 0.0
-0.055487 0.031162 0.0
-0.058627 0.030100 0.0
-0.061719 0.028906 0.0
-0.064755 0.027564 0.0
-0.067726 0.026057 0.0
-0.070619 0.024366 0.0
-0.073419 0.022472 0.0
-0.076108 0.020354 0.0
-0.078665 0.017989 0.0
-0.081063 0.015357 0.0
-0.083271 0.012435 0.0
-0.085253 0.009204 0.0
-0.086967 0.005645 0.0
-0.088365 0.001746 0.0
-0.089393 -0.002502 0.0
-0.089993 -0.007100 0.0
-0.090100 -0.012040 0.0
-0.089646 -0.017301 0.0
-0.088564 -0.022850 0.0
-0.086785 -0.028637 0.0
-0.084247 -0.034597 0.0
-0.080896 -0.040646 0.0
-0.076693 -0.046684 0.0
-0.071616 -0.052595 0.0
-0.065667 -0.058253 0.0
-0.058876 -0.063517 0.0
-0.051303 -0.068235 0.0
-0.043046 -0.072206 0.0
-0.034250 -0.075084 0.0
-0.025141 -0.076115 0.0
-0.016103 -0.073494 0.0
-0.007879 -0.062941 0.0
-0.002047 -0.034451 0.0
-0.000671 0.016276 0.0
-0.002665 0.031502 0.0
-0.005590 0.037856 0.0
-0.008892 0.040088 0.0
-0.012321 0.040680 0.0
-0.015783 0.040710 0.0
-0.019247 0.040552 0.0
-0.022705 0.040315 0.0
-0.026153 0.040021 0.0
-0.029589 0.039674 0.0
-0.033013 0.039270 0.0
-0.036422 0.038806 0.0
-0.039817 0.038276 0.0
-0.043195 0.037675 0.0
-0.046555 0.036994 0.0
-0.049896 0.036226 0.0
-0.053215 0.035360 0.0
-0.056511 0.034385 0.0
-0.059779 0.033286 0.0
-0.063015 0.032048 0.0
-0.066212 0.030655 0.0
-0.069363 0.029087 0.0
-0.072457 0.027323 0.0
-0.075480 0.025339 0.0
-0.078416 0.023112 0.0
-0.081243 0.020615 0.0
-0.083935 0.017821 0.0
-0.086460 0.014704 0.0
-0.088782 0.011237 0.0
-0.090853 0.007397 0.0
-0.092623 0.003162 0.0
-0.094031 -0.001482 0.0
-0.095008 -0.006543 0.0
-0.095480 -0.012018 0.0
-0.095366 -0.017890 0.0
-0.094580 -0.024128 0.0
-0.093038 -0.030680 0.0
-0.090658 -0.037473 0.0
-0.087366 -0.044413 0.0
-0.083105 -0.051382 0.0
-0.077838 -0.058242 0.0
-0.071557 -0.064836 0.0
-0.064290 -0.070993 0.0
-0.056101 -0.076520 0.0
-0.047107 -0.081172 0.0
-0.037479 -0.084541 0.0
-0.027487 -0.085760 0.0
-0.017575 -0.082799 0.0
-0.008575 -0.070860 0.0
-0.002221 -0.038719 0.0
-0.000672 0.017619 0.0
-0.002680 0.034161 0.0
-0.005636 0.041078 0.0
-0.008978 0.043510 0.0
-0.012452 0.044160 0.0
-0.015960 0.044200 0.0
-0.019472 0.044039 0.0
-0.022980 0.043794 0.0
-0.026480 0.043491 0.0
-0.029972 0.043132 0.0
-0.033454 0.042717 0.0
-0.036927 0.042241 0.0
-0.040390 0.041698 0.0
-0.043844 0.041084 0.0
-0.047289 0.040389 0.0
-0.050723 0.039606 0.0
-0.054148 0.038724 0.0
-0.057562 0.037730 0.0
-0.060963 0.036610 0.0
-0.064350 0.035346 0.0
-0.067716 0.033921 0.0
-0.071058 0.032313 0.0
-0.074366 0.030498 0.0
-0.077630 0.028450 0.0
-0.080832 0.026139 0.0
-0.083955 0.023537 0.0
-0.086973 0.020609 0.0
-0.089855 0.017323 0.0
-0.092560 0.013645 0.0
-0.095042 0.009543 0.0
-0.097244 0.004988 0.0
-0.099099 -0.000045 0.0
-0.100529 -0.005573 0.0
-0.101447 -0.011599 0.0
-0.101756 -0.018115 0.0
-0.101353 -0.025092 0.0
-0.100130 -0.032481 0.0
-0.097980 -0.040202 0.0
-0.094805 -0.048150 0.0
-0.090523 -0.056188 0.0
-0.085075 -0.064150 0.0
-0.078437 -0.071845 0.0
-0.070632 -0.079058 0.0
-0.061730 -0.085546 0.0
-0.051867 -0.091005 0.0
-0.041254 -0.094949 0.0
-0.030215 -0.096384 0.0
-0.019272 -0.093030 0.0
-0.009368 -0.079531 0.0
-0.002415 -0.043355 0.0
-0.000674 0.018965 0.0
-0.002695 0.036845 0.0
-0.005683 0.044338 0.0
-0.009067 0.046977 0.0
-0.012587 0.047687 0.0
-0.016143 0.047738 0.0
-0.019705 0.047575 0.0
-0.023263 0.047324 0.0
-0.026816 0.047014 0.0
-0.030363 0.046648 0.0
-0.033905 0.046225 0.0
-0.037441 0.045742 0.0
-0.040974 0.045193 0.0
-0.044503 0.044573 0.0
-0.048032 0.043873 0.0
-0.051561 0.043086 0.0
-0.055092 0.042200 0.0
-0.058625 0.041202 0.0
-0.062163 0.040077 0.0
-0.065703 0.038806 0.0
-0.069246 0.037371 0.0
-0.072787 0.035747 0.0
-0.076321 0.033907 0.0
-0.079839 0.031822 0.0
-0.083329 0.029460 0.0
-0.086773 0.026784 0.0
-0.090149 0.023755 0.0
-0.093424 0.020334 0.0
-0.096562 0.016477 0.0
-0.099511 0.012143 0.0
-0.102212 0.007291 0.0
-0.104591 0.001885 0.0
-0.106561 -0.004103 0.0
-0.108022 -0.010690 0.0
-0.108859 -0.017878 0.0
-0.108946 -0.025646 0.0
-0.108148 -0.033948 0.0
-0.106327 -0.042704 0.0
-0.103352 -0.051797 0.0
-0.099107 -0.061069 0.0
-0.093501 -0.070323 0.0
-0.086489 -0.079322 0.0
-0.078079 -0.087797 0.0
-0.068349 -0.095439 0.0
-0.057460 -0.101865 0.0
-0.045672 -0.106489 0.0
-0.033385 -0.108170 0.0
-0.021221 -0.104351 0.0
-0.010263 -0.089073 0.0
-0.002629 -0.048399 0.0
-0.000674 0.020313 0.0
-0.002710 0.039554 0.0
-0.005730 0.047637 0.0
-0.009158 0.050489 0.0
-0.012725 0.051261 0.0
-0.016330 0.051325 0.0
-0.019942 0.051161 0.0
-0.023552 0.050906 0.0
-0.027158 0.050591 0.0
-0.030760 0.050220 0.0
-0.034360 0.049794 0.0
-0.037959 0.049309 0.0
-0.041560 0.048759 0.0
-0.045164 0.048141 0.0
-0.048775 0.047445 0.0
-0.052397 0.046665 0.0
-0.056032 0.045788 0.0
-0.059685 0.044801 0.0
-0.063359 0.043688 0.0
-0.067055 0.042432 0.0
-0.070776 0.041009 0.0
-0.074522 0.039395 0.0
-0.078291 0.037561 0.0
-0.082077 0.035473 0.0
-0.085871 0.033094 0.0
-0.089660 0.030383 0.0
-0.093423 0.027295 0.0
-0.097133 0.023780 0.0
-0.100751 0.019786 0.0
-0.104228 0.015260 0.0
-0.107501 0.010148 0.0
-0.110492 0.004398 0.0
-0.113104 -0.002033 0.0
-0.115222 -0.009180 0.0
-0.116713 -0.017060 0.0
-0.117424 -0.025667 0.0
-0.117188 -0.034962 0.0
-0.115829 -0.044870 0.0
-0.113171 -0.055264 0.0
-0.109051 -0.065967 0.0
-0.103336 -0.076744 0.0
-0.095944 -0.087305 0.0
-0.086860 -0.097307 0.0
-0.076167 -0.106352 0.0
-0.064056 -0.113952 0.0
-0.050856 -0.119390 0.0
-0.037068 -0.121345 0.0
-0.023452 -0.116955 0.0
-0.011262 -0.099616 0.0
-0.002861 -0.053890 0.0
-0.000675 0.021663 0.0
-0.002724 0.042288 0.0
-0.005778 0.050977 0.0
-0.009250 0.054049 0.0
-0.012866 0.054885 0.0
-0.016521 0.054962 0.0
-0.020184 0.054798 0.0
-0.023845 0.054540 0.0
-0.027503 0.054221 0.0
-0.031160 0.053849 0.0
-0.034817 0.053422 0.0
-0.038476 0.052939 0.0
-0.042142 0.052395 0.0
-0.045817 0.051785 0.0
-0.049508 0.051103 0.0
-0.053219 0.050340 0.0
-0.056956 0.049485 0.0
-0.060725 0.048525 0.0
-0.064532 0.047444 0.0
-0.068383 0.046223 0.0
-0.072282 0.044839 0.0
-0.076235 0.043264 0.0
-0.080243 0.041468 0.0
-0.084306 0.039414 0.0
-0.088418 0.037060 0.0
-0.092572 0.034360 0.0
-0.096752 0.031261 0.0
-0.100933 0.027704 0.0
-0.105081 0.023628 0.0
-0.109149 0.018963 0.0
-0.113073 0.013642 0.0
-0.116772 0.007593 0.0
-0.120140 0.000753 0.0
-0.123050 -0.006937 0.0
-0.125346 -0.015516 0.0
-0.126848 -0.024998 0.0
-0.127351 -0.035364 0.0
-0.126629 -0.046548 0.0
-0.124451 -0.058422 0.0
-0.120590 -0.070790 0.0
-0.114851 -0.083376 0.0
-0.107095 -0.095823 0.0
-0.097271 -0.107695 0.0
-0.085455 -0.118473 0.0
-0.071879 -0.127518 0.0
-0.056961 -0.133940 0.0
-0.041348 -0.136196 0.0
-0.025988 -0.131081 0.0
-0.012360 -0.111307 0.0
-0.003104 -0.059856 0.0
-0.000675 0.023013 0.0
-0.002737 0.045049 0.0
-0.005826 0.054360 0.0
-0.009344 0.057657 0.0
-0.013009 0.058558 0.0
-0.016716 0.058650 0.0
-0.020429 0.058486 0.0
-0.024141 0.058225 0.0
-0.027850 0.057904 0.0
-0.031559 0.057532 0.0
-0.035270 0.057107 0.0
-0.038987 0.056630 0.0
-0.042713 0.056096 0.0
-0.046456 0.055502 0.0
-0.050220 0.054841 0.0
-0.054015 0.054107 0.0
-0.057847 0.053287 0.0
-0.061726 0.052371 0.0
-0.065661 0.051341 0.0
-0.069661 0.050178 0.0
-0.073736 0.048859 0.0
-0.077893 0.047355 0.0
-0.082141 0.045633 0.0
-0.086484 0.043654 0.0
-0.090925 0.041373 0.0
-0.095459 0.038736 0.0
-0.100079 0.035684 0.0
-0.104766 0.032149 0.0
-0.109492 0.028057 0.0
-0.114214 0.023324 0.0
-0.118871 0.017862 0.0
-0.123381 0.011580 0.0
-0.127633 0.004386 0.0
-0.131489 -0.003805 0.0
-0.134773 -0.013067 0.0
-0.137272 -0.023445 0.0
-0.138738 -0.034950 0.0
-0.138886 -0.047536 0.0
-0.137413 -0.061086 0.0
-0.134009 -0.075391 0.0
-0.128387 -0.090136 0.0
-0.120322 -0.104884 0.0
-0.109702 -0.119078 0.0
-0.096579 -0.132029 0.0
-0.081228 -0.142890 0.0
-0.064192 -0.150522 0.0
-0.046325 -0.153095 0.0
-0.028846 -0.147022 0.0
-0.013535 -0.124306 0.0
-0.003344 -0.066305 0.0
-0.000675 0.024363 0.0
-0.002750 0.047836 0.0
-0.005874 0.057785 0.0
-0.009439 0.061314 0.0
-0.013156 0.062283 0.0
-0.016913 0.062389 0.0
-0.020677 0.062224 0.0
-0.024439 0.061960 0.0
-0.028198 0.061638 0.0
-0.031957 0.061266 0.0
-0.035718 0.060846 0.0
-0.039487 0.060377 0.0
-0.043269 0.059858 0.0
-0.047072 0.059285 0.0
-0.050903 0.058654 0.0
-0.054773 0.057958 0.0
-0.058692 0.057187 0.0
-0.062671 0.056330 0.0
-0.066724 0.055370 0.0
-0.070865 0.054289 0.0
-0.075106 0.053063 0.0
-0.079461 0.051664 0.0
-0.083944 0.050055 0.0
-0.088566 0.048197 0.0
-0.093337 0.046040 0.0
-0.098261 0.043527 0.0
-0.103338 0.040590 0.0
-0.108560 0.037153 0.0
-0.113907 0.033127 0.0
-0.119344 0.028413 0.0
-0.124817 0.022903 0.0
-0.130248 0.016479 0.0
-0.135526 0.009017 0.0
-0.140503 0.000396 0.0
-0.144985 -0.009502 0.0
-0.148731 -0.020766 0.0
-0.151441 -0.033453 0.0
-0.152765 -0.047559 0.0
-0.152308 -0.062993 0.0
-0.149647 -0.079549 0.0
-0.144369 -0.096878 0.0
-0.136120 -0.114455 0.0
-0.124678 -0.131569 0.0
-0.110040 -0.147299 0.0
-0.092519 -0.160493 0.0
-0.072826 -0.169648 0.0
-0.052120 -0.172541 0.0
-0.032024 -0.165149 0.0
-0.014735 -0.138779 0.0
-0.003554 -0.073203 0.0
-0.000675 0.025713 0.0
-0.002763 0.050650 0.0
-0.005923 0.061256 0.0
-0.009537 0.065023 0.0
-0.013306 0.066060 0.0
-0.017116 0.066178 0.0
-0.020930 0.066012 0.0
-0.024740 0.065744 0.0
-0.028547 0.065419 0.0
-0.032352 0.065048 0.0
-0.036159 0.064632 0.0
-0.039975 0.064174 0.0
-0.043805 0.063673 0.0
-0.047659 0.063127 0.0
-0.051548 0.062532 0.0
-0.055482 0.061884 0.0
-0.059475 0.061173 0.0
-0.063543 0.060390 0.0
-0.067701 0.059521 0.0
-0.071968 0.058545 0.0
-0.076361 0.057442 0.0
-0.080901 0.056181 0.0
-0.085608 0.054728 0.0
-0.090500 0.053039 0.0
-0.095595 0.051064 0.0
-0.100910 0.048741 0.0
-0.106453 0.045996 0.0
-0.112229 0.042744 0.0
-0.118231 0.038884 0.0
-0.124437 0.034299 0.0
-0.130805 0.028859 0.0
-0.137267 0.022416 0.0
-0.143717 0.014809 0.0
-0.150007 0.005871 0.0
-0.155933 -0.004568 0.0
-0.161224 -0.016664 0.0
-0.165531 -0.030538 0.0
-0.168427 -0.046253 0.0
-0.169407 -0.063776 0.0
-0.167905 -0.082930 0.0
-0.163331 -0.103349 0.0
-0.155137 -0.124426 0.0
-0.142920 -0.145258 0.0
-0.126555 -0.164613 0.0
-0.106367 -0.180889 0.0
-0.083279 -0.192032 0.0
-0.058902 -0.195240 0.0
-0.035489 -0.185960 0.0
-0.015855 -0.154891 0.0
-0.003685 -0.080442 0.0
-0.000674 0.027061 0.0
-0.002776 0.053492 0.0
-0.005975 0.064773 0.0
-0.009639 0.068784 0.0
-0.013462 0.069890 0.0
-0.017324 0.070020 0.0
-0.021188 0.069850 0.0
-0.025046 0.069576 0.0
-0.028897 0.069246 0.0
-0.032744 0.068873 0.0
-0.036592 0.068462 0.0
-0.040447 0.068015 0.0
-0.044317 0.067533 0.0
-0.048213 0.067017 0.0
-0.052146 0.066464 0.0
-0.056132 0.065871 0.0
-0.060185 0.065232 0.0
-0.064324 0.064538 0.0
-0.068569 0.063776 0.0
-0.072943 0.062930 0.0
-0.077470 0.061977 0.0
-0.082175 0.060890 0.0
-0.087085 0.059635 0.0
-0.092229 0.058168 0.0
-0.097635 0.056437 0.0
-0.103329 0.054377 0.0
-0.109335 0.051911 0.0
-0.115673 0.048944 0.0
-0.122352 0.045365 0.0
-0.129369 0.041041 0.0
-0.136701 0.035817 0.0
-0.144297 0.029515 0.0
-0.152070 0.021933 0.0
-0.159880 0.012847 0.0
-0.167520 0.002022 0.0
-0.174700 -0.010782 0.0
-0.181031 -0.025782 0.0
-0.186004 -0.043140 0.0
-0.188989 -0.062923 0.0
-0.189240 -0.085033 0.0
-0.185929 -0.109131 0.0
-0.178225 -0.134542 0.0
-0.165430 -0.160155 0.0
-0.147182 -0.184328 0.0
-0.123734 -0.204810 0.0
-0.096247 -0.218687 0.0
-0.066978 -0.222231 0.0
-0.039193 -0.210168 0.0
-0.016717 -0.172792 0.0
-0.003650 -0.087777 0.0
-0.000673 0.028408 0.0
-0.002790 0.056364 0.0
-0.006030 0.068339 0.0
-0.009747 0.072601 0.0
-0.013626 0.073775 0.0
-0.017541 0.073913 0.0
-0.021456 0.073735 0.0
-0.025359 0.073451 0.0
-0.029252 0.073114 0.0
-0.033136 0.072737 0.0
-0.037018 0.072327 0.0
-0.040904 0.071890 0.0
-0.044803 0.071428 0.0
-0.048728 0.070943 0.0
-0.052693 0.070436 0.0
-0.056713 0.069905 0.0
-0.060808 0.069347 0.0
-0.064999 0.068754 0.0
-0.069309 0.068117 0.0
-0.073767 0.067421 0.0
-0.078401 0.066647 0.0
-0.083243 0.065768 0.0
-0.088330 0.064754 0.0
-0.093698 0.063561 0.0
-0.099386 0.062138 0.0
-0.105436 0.060420 0.0
-0.111886 0.058325 0.0
-0.118775 0.055756 0.0
-0.126134 0.052591 0.0
-0.133985 0.048682 0.0
-0.142331 0.043854 0.0
-0.151151 0.037895 0.0
-0.160386 0.030560 0.0
-0.169919 0.021563 0.0
-0.179563 0.010589 0.0
-0.189027 -0.002705 0.0
-0.197889 -0.018666 0.0
-0.205571 -0.037602 0.0
-0.211309 -0.059739 0.0
-0.214147 -0.085130 0.0
-0.212953 -0.113539 0.0
-0.206500 -0.144289 0.0
-0.193633 -0.176070 0.0
-0.173558 -0.206736 0.0
-0.146270 -0.233137 0.0
-0.113086 -0.251032 0.0
-0.077109 -0.255132 0.0
-0.043226 -0.238936 0.0
-0.017069 -0.192657 0.0
-0.003310 -0.094738 0.0
-0.000673 0.029755 0.0
-0.002807 0.059268 0.0
-0.006090 0.071957 0.0
-0.009864 0.076475 0.0
-0.013801 0.077716 0.0
-0.017772 0.077858 0.0
-0.021736 0.077668 0.0
-0.025684 0.077369 0.0
-0.029614 0.077018 0.0
-0.033531 0.076633 0.0
-0.037439 0.076221 0.0
-0.041346 0.075790 0.0
-0.045264 0.075345 0.0
-0.049205 0.074891 0.0
-0.053184 0.074431 0.0
-0.057221 0.073966 0.0
-0.061336 0.073495 0.0
-0.065554 0.073014 0.0
-0.069903 0.072516 0.0
-0.074414 0.071990 0.0
-0.079123 0.071420 0.0
-0.084068 0.070783 0.0
-0.089293 0.070051 0.0
-0.094845 0.069184 0.0
-0.100776 0.068134 0.0
-0.107142 0.066838 0.0
-0.113999 0.065215 0.0
-0.121408 0.063164 0.0
-0.129426 0.060559 0.0
-0.138105 0.057243 0.0
-0.147487 0.053021 0.0
-0.157591 0.047653 0.0
-0.168402 0.040848 0.0
-0.179850 0.032258 0.0
-0.191788 0.021475 0.0
-0.203950 0.008035 0.0
-0.215924 -0.008570 0.0
-0.227082 -0.028858 0.0
-0.236538 -0.053287 0.0
-0.243112 -0.082169 0.0
-0.245314 -0.115493 0.0
-0.241404 -0.152698 0.0
-0.229577 -0.192355 0.0
-0.208316 -0.231788 0.0
-0.176987 -0.266701 0.0
-0.136717 -0.290922 0.0
-0.091436 -0.296499 0.0
-0.048449 -0.274439 0.0
-0.016806 -0.214953 0.0
-0.002479 -0.100527 0.0
-0.000674 0.031102 0.0
-0.002827 0.062208 0.0
-0.006159 0.075631 0.0
-0.009994 0.080411 0.0
-0.013993 0.081716 0.0
-0.018021 0.081857 0.0
-0.022036 0.081649 0.0
-0.026026 0.081327 0.0
-0.029991 0.080956 0.0
-0.033934 0.080555 0.0
-0.037860 0.080134 0.0
-0.041779 0.079704 0.0
-0.045702 0.079272 0.0
-0.049642 0.078846 0.0
-0.053618 0.078432 0.0
-0.057649 0.078034 0.0
-0.061760 0.077654 0.0
-0.065978 0.077291 0.0
-0.070334 0.076944 0.0
-0.074863 0.076604 0.0
-0.079608 0.076259 0.0
-0.084612 0.075893 0.0
-0.089929 0.075482 0.0
-0.095614 0.074991 0.0
-0.101733 0.074377 0.0
-0.108355 0.073583 0.0
-0.115560 0.072532 0.0
-0.123431 0.071126 0.0
-0.132055 0.069240 0.0
-0.141523 0.066711 0.0
-0.151922 0.063334 0.0
-0.163325 0.058847 0.0
-0.175781 0.052920 0.0
-0.189292 0.045145 0.0
-0.203787 0.035019 0.0
-0.219073 0.021939 0.0