# vtk DataFile Version 3.0
Vector Field
ASCII
DATASET RECTILINEAR_GRID
DIMENSIONS 50 50 1
X_COORDINATES 50 double
0.100000 0.300000 0.500000 0.700000 0.900000 1.100000 1.300000 1.500000 1.700000 1.900000 2.100000 2.300000 2.500000 2.700000 2.900000 3.100000 3.300000 3.500000 3.700000 3.900000 4.100000 4.300000 4.500000 4.700000 4.900000 5.100000 5.300000 5.500000 5.700000 5.900000 6.100000 6.300000 6.500000 6.700000 6.900000 7.100000 7.300000 7.500000 7.700000 7.900000 8.100000 8.300000 8.500000 8.700000 8.900000 9.100000 9.300000 9.500000 9.700000 9.900000 
Y_COORDINATES 50 double
0.100000 0.300000 0.500000 0.700000 0.900000 1.100000 1.300000 1.500000 1.700000 1.900000 2.100000 2.300000 2.500000 2.700000 2.900000 3.100000 3.300000 3.500000 3.700000 3.900000 4.100000 4.300000 4.500000 4.700000 4.900000 5.100000 5.300000 5.500000 5.700000 5.900000 6.100000 6.300000 6.500000 6.700000 6.900000 7.100000 7.300000 7.500000 7.700000 7.900000 8.100000 8.300000 8.500000 8.700000 8.900000 9.100000 9.300000 9.500000 9.700000 9.900000 
Z_COORDINATES 1 double
0.0
POINT_DATA 2500
VECTORS Vektorfeld double
-0.000211 0.000211 0.0
-0.000954 0.000533 0.0
-0.002170 0.000683 0.0
-0.003590 0.000737 0.0
-0.005080 0.000753 0.0
-0.006589 0.000757 0.0
-0.008104 0.000759 0.0
-0.009623 0.000761 0.0
-0.011148 0.000764 0.0
-0.012678 0.000767 0.0
-0.014215 0.000770 0.0
-0.015757 0.000772 0.0
-0.017303 0.000774 0.0
-0.018853 0.000775 0.0
-0.020403 0.000775 0.0
-0.021951 0.000773 0.0
-0.023492 0.000769 0.0
-0.025022 0.000762 0.0
-0.026536 0.000751 0.0
-0.028025 0.000738 0.0
-0.029481 0.000719 0.0
-0.030896 0.000696 0.0
-0.032257 0.000666 0.0
-0.033553 0.000630 0.0
-0.034770 0.000586 0.0
-0.035890 0.000535 0.0
-0.036899 0.000474 0.0
-0.037776 0.000404 0.0
-0.038503 0.000324 0.0
-0.039060 0.000233 0.0
-0.039426 0.000133 0.0
-0.039581 0.000022 0.0
-0.039505 -0.000098 0.0
-0.039176 -0.000230 0.0
-0.038576 -0.000371 0.0
-0.037686 -0.000519 0.0
-0.036495 -0.000672 0.0
-0.034995 -0.000828 0.0
-0.033182 -0.000985 0.0
-0.031059 -0.001138 0.0
-0.028635 -0.001286 0.0
-0.025926 -0.001424 0.0
-0.022952 -0.001550 0.0
-0.019742 -0.001660 0.0
-0.016333 -0.001749 0.0
-0.012776 -0.001808 0.0
-0.009157 -0.001812 0.0
-0.005639 -0.001706 0.0
-0.002563 -0.001370 0.0
-0.000596 -0.000596 0.0
-0.000553 0.000974 0.0
-0.002199 0.002159 0.0
-0.004640 0.002714 0.0
-0.007443 0.002929 0.0
-0.010391 0.002998 0.0
-0.013388 0.003017 0.0
-0.016399 0.003024 0.0
-0.019413 0.003029 0.0
-0.022426 0.003034 0.0
-0.025438 0.003038 0.0
-0.028445 0.003042 0.0
-0.031445 0.003043 0.0
-0.034434 0.003040 0.0
-0.037408 0.003033 0.0
-0.040360 0.003019 0.0
-0.043283 0.002999 0.0
-0.046168 0.002969 0.0
-0.049006 0.002929 0.0
-0.051784 0.002875 0.0
-0.054488 0.002807 0.0
-0.057103 0.002721 0.0
-0.059611 0.002616 0.0
-0.061991 0.002488 0.0
-0.064221 0.002334 0.0
-0.066277 0.002153 0.0
-0.068131 0.001942 0.0
-0.069754 0.001698 0.0
-0.071115 0.001419 0.0
-0.072183 0.001103 0.0
-0.072924 0.000751 0.0
-0.073305 0.000362 0.0
-0.073294 -0.000064 0.0
-0.072855 -0.000527 0.0
-0.071960 -0.001025 0.0
-0.070583 -0.001554 0.0
-0.068703 -0.002106 0.0
-0.066305 -0.002674 0.0
-0.063382 -0.003250 0.0
-0.059934 -0.003824 0.0
-0.055970 -0.004385 0.0
-0.051509 -0.004923 0.0
-0.046577 -0.005427 0.0
-0.041214 -0.005884 0.0
-0.035468 -0.006282 0.0
-0.029403 -0.006601 0.0
-0.023110 -0.006805 0.0
-0.016737 -0.006807 0.0
-0.010552 -0.006415 0.0
-0.005067 -0.005221 0.0
-0.001293 -0.002485 0.0
-0.000730 0.002256 0.0
-0.002844 0.004637 0.0
-0.005904 0.005738 0.0
-0.009375 0.006179 0.0
-0.013011 0.006331 0.0
-0.016704 0.006375 0.0
-0.020412 0.006386 0.0
-0.024120 0.006389 0.0
-0.027821 0.006388 0.0
-0.031511 0.006385 0.0
-0.035185 0.006377 0.0
-0.038839 0.006362 0.0
-0.042467 0.006338 0.0
-0.046063 0.006304 0.0
-0.049619 0.006256 0.0
-0.053125 0.006191 0.0
-0.056570 0.006107 0.0
-0.059942 0.006000 0.0
-0.063226 0.005866 0.0
-0.066406 0.005701 0.0
-0.069462 0.005499 0.0
-0.072374 0.005258 0.0
-0.075119 0.004970 0.0
-0.077669 0.004632 0.0
-0.079997 0.004239 0.0
-0.082072 0.003785 0.0
-0.083861 0.003267 0.0
-0.085329 0.002680 0.0
-0.086441 0.002022 0.0
-0.087158 0.001291 0.0
-0.087444 0.000488 0.0
-0.087261 -0.000386 0.0
-0.086573 -0.001330 0.0
-0.085353 -0.002338 0.0
-0.083573 -0.003398 0.0
-0.081212 -0.004501 0.0
-0.078257 -0.005631 0.0
-0.074701 -0.006772 0.0
-0.070546 -0.007905 0.0
-0.065806 -0.009009 0.0
-0.060503 -0.010065 0.0
-0.054670 -0.011050 0.0
-0.048353 -0.011942 0.0
-0.041609 -0.012715 0.0
-0.034511 -0.013331 0.0
-0.027164 -0.013714 0.0
-0.019732 -0.013701 0.0
-0.012508 -0.012931 0.0
-0.006058 -0.010640 0.0
-0.001561 -0.005339 0.0
-0.000805 0.003791 0.0
-0.003131 0.007543 0.0
-0.006481 0.009241 0.0
-0.010259 0.009925 0.0
-0.014203 0.010165 0.0
-0.018204 0.010235 0.0
-0.022218 0.010249 0.0
-0.026228 0.010245 0.0
-0.030227 0.010233 0.0
-0.034210 0.010213 0.0
-0.038171 0.010184 0.0
-0.042105 0.010143 0.0
-0.046006 0.010086 0.0
-0.049865 0.010011 0.0
-0.053675 0.009914 0.0
-0.057425 0.009789 0.0
-0.061104 0.009633 0.0
-0.064698 0.009440 0.0
-0.068191 0.009204 0.0
-0.071567 0.008918 0.0
-0.074805 0.008576 0.0
-0.077884 0.008171 0.0
-0.080778 0.007695 0.0
-0.083462 0.007141 0.0
-0.085905 0.006501 0.0
-0.088075 0.005768 0.0
-0.089939 0.004936 0.0
-0.091459 0.003999 0.0
-0.092598 0.002953 0.0
-0.093317 0.001797 0.0
-0.093577 0.000529 0.0
-0.093339 -0.000848 0.0
-0.092567 -0.002327 0.0
-0.091231 -0.003898 0.0
-0.089301 -0.005548 0.0
-0.086755 -0.007258 0.0
-0.083578 -0.009007 0.0
-0.079762 -0.010768 0.0
-0.075310 -0.012514 0.0
-0.070236 -0.014214 0.0
-0.064564 -0.015835 0.0
-0.058330 -0.017345 0.0
-0.051583 -0.018710 0.0
-0.044383 -0.019890 0.0
-0.036812 -0.020825 0.0
-0.028978 -0.021401 0.0
-0.021053 -0.021371 0.0
-0.013343 -0.020196 0.0
-0.006451 -0.016716 0.0
-0.001656 -0.008555 0.0
-0.000831 0.005426 0.0
-0.003240 0.010643 0.0
-0.006712 0.012963 0.0
-0.010623 0.013893 0.0
-0.014699 0.014218 0.0
-0.018828 0.014311 0.0
-0.022968 0.014326 0.0
-0.027104 0.014313 0.0
-0.031227 0.014287 0.0
-0.035333 0.014247 0.0
-0.039415 0.014193 0.0
-0.043469 0.014121 0.0
-0.047488 0.014027 0.0
-0.051464 0.013906 0.0
-0.055389 0.013754 0.0
-0.059253 0.013563 0.0
-0.063043 0.013329 0.0
-0.066747 0.013042 0.0
-0.070350 0.012697 0.0
-0.073833 0.012284 0.0
-0.077179 0.011794 0.0
-0.080363 0.011217 0.0
-0.083362 0.010544 0.0
-0.086149 0.009763 0.0
-0.088693 0.008866 0.0
-0.090962 0.007843 0.0
-0.092921 0.006684 0.0
-0.094532 0.005383 0.0
-0.095756 0.003933 0.0
-0.096552 0.002332 0.0
-0.096878 0.000580 0.0
-0.096695 -0.001320 0.0
-0.095963 -0.003358 0.0
-0.094646 -0.005521 0.0
-0.092711 -0.007790 0.0
-0.090133 -0.010140 0.0
-0.086892 -0.012543 0.0
-0.082978 -0.014962 0.0
-0.078392 -0.017358 0.0
-0.073146 -0.019690 0.0
-0.067264 -0.021913 0.0
-0.060785 -0.023981 0.0
-0.053760 -0.025848 0.0
-0.046254 -0.027458 0.0
-0.038354 -0.028729 0.0
-0.030177 -0.029508 0.0
-0.021903 -0.029462 0.0
-0.013856 -0.027862 0.0
-0.006674 -0.023123 0.0
-0.001704 -0.011915 0.0
-0.000837 0.007094 0.0
-0.003273 0.013819 0.0
-0.006792 0.016778 0.0
-0.010757 0.017954 0.0
-0.014888 0.018363 0.0
-0.019071 0.018479 0.0
-0.023265 0.018493 0.0
-0.027454 0.018471 0.0
-0.031632 0.018430 0.0
-0.035793 0.018371 0.0
-0.039933 0.018292 0.0
-0.044046 0.018190 0.0
-0.048127 0.018058 0.0
-0.052167 0.017892 0.0
-0.056160 0.017685 0.0
-0.060095 0.017430 0.0
-0.063962 0.017119 0.0
-0.067748 0.016742 0.0
-0.071437 0.016290 0.0
-0.075014 0.015752 0.0
-0.078459 0.015116 0.0
-0.081751 0.014371 0.0
-0.084865 0.013503 0.0
-0.087774 0.012500 0.0
-0.090448 0.011348 0.0
-0.092853 0.010035 0.0
-0.094953 0.008551 0.0
-0.096710 0.006884 0.0
-0.098082 0.005027 0.0
-0.099025 0.002976 0.0
-0.099495 0.000731 0.0
-0.099446 -0.001704 0.0
-0.098835 -0.004318 0.0
-0.097620 -0.007094 0.0
-0.095762 -0.010009 0.0
-0.093229 -0.013032 0.0
-0.089996 -0.016125 0.0
-0.086047 -0.019241 0.0
-0.081381 -0.022331 0.0
-0.076005 -0.025339 0.0
-0.069946 -0.028206 0.0
-0.063241 -0.030872 0.0
-0.055946 -0.033277 0.0
-0.048134 -0.035347 0.0
-0.039898 -0.036977 0.0
-0.031366 -0.037970 0.0
-0.022734 -0.037905 0.0
-0.014348 -0.035853 0.0
-0.006886 -0.029776 0.0
-0.001750 -0.015369 0.0
-0.000837 0.008768 0.0
-0.003278 0.017022 0.0
-0.006814 0.020630 0.0
-0.010802 0.022055 0.0
-0.014958 0.022548 0.0
-0.019167 0.022686 0.0
-0.023388 0.022701 0.0
-0.027606 0.022671 0.0
-0.031814 0.022616 0.0
-0.036008 0.022540 0.0
-0.040185 0.022440 0.0
-0.044339 0.022310 0.0
-0.048465 0.022145 0.0
-0.052557 0.021938 0.0
-0.056608 0.021682 0.0
-0.060608 0.021368 0.0
-0.064548 0.020987 0.0
-0.068416 0.020527 0.0
-0.072197 0.019976 0.0
-0.075878 0.019322 0.0
-0.079438 0.018551 0.0
-0.082857 0.017647 0.0
-0.086111 0.016595 0.0
-0.089173 0.015379 0.0
-0.092013 0.013982 0.0
-0.094597 0.012390 0.0
-0.096886 0.010587 0.0
-0.098842 0.008560 0.0
-0.100418 0.006299 0.0
-0.101568 0.003798 0.0
-0.102243 0.001055 0.0
-0.102391 -0.001927 0.0
-0.101963 -0.005134 0.0
-0.100908 -0.008548 0.0
-0.099179 -0.012141 0.0
-0.096738 -0.015875 0.0
-0.093549 -0.019703 0.0
-0.089592 -0.023568 0.0
-0.084858 -0.027406 0.0
-0.079351 -0.031146 0.0
-0.073096 -0.034713 0.0
-0.066134 -0.038032 0.0
-0.058524 -0.041021 0.0
-0.050349 -0.043590 0.0
-0.041712 -0.045606 0.0
-0.032758 -0.046827 0.0
-0.023703 -0.046735 0.0
-0.014922 -0.044190 0.0
-0.007134 -0.036688 0.0
-0.001804 -0.018922 0.0
-0.000834 0.010438 0.0
-0.003274 0.020233 0.0
-0.006816 0.024498 0.0
-0.010816 0.026176 0.0
-0.014988 0.026754 0.0
-0.019214 0.026915 0.0
-0.023454 0.026932 0.0
-0.027693 0.026896 0.0
-0.031925 0.026832 0.0
-0.036148 0.026742 0.0
-0.040358 0.026624 0.0
-0.044550 0.026472 0.0
-0.048721 0.026280 0.0
-0.052864 0.026039 0.0
-0.056975 0.025742 0.0
-0.061045 0.025379 0.0
-0.065065 0.024937 0.0
-0.069025 0.024405 0.0
-0.072912 0.023768 0.0
-0.076712 0.023011 0.0
-0.080407 0.022118 0.0
-0.083978 0.021070 0.0
-0.087400 0.019849 0.0
-0.090648 0.018435 0.0
-0.093691 0.016809 0.0
-0.096494 0.014950 0.0
-0.099019 0.012841 0.0
-0.101222 0.010464 0.0
-0.103055 0.007805 0.0
-0.104468 0.004855 0.0
-0.105405 0.001609 0.0
-0.105808 -0.001929 0.0
-0.105618 -0.005749 0.0
-0.104777 -0.009830 0.0
-0.103226 -0.014138 0.0
-0.100915 -0.018631 0.0
-0.097801 -0.023250 0.0
-0.093852 -0.027928 0.0
-0.089049 -0.032583 0.0
-0.083395 -0.037129 0.0
-0.076910 -0.041470 0.0
-0.069638 -0.045509 0.0
-0.061646 -0.049145 0.0
-0.053026 -0.052262 0.0
-0.043898 -0.054698 0.0
-0.034429 -0.056159 0.0
-0.024861 -0.056026 0.0
-0.015604 -0.052938 0.0
-0.007428 -0.043905 0.0
-0.001869 -0.022595 0.0
-0.000830 0.012103 0.0
-0.003266 0.023444 0.0
-0.006811 0.028374 0.0
-0.010821 0.030310 0.0
-0.015005 0.030975 0.0
-0.019246 0.031161 0.0
-0.023504 0.031183 0.0
-0.027763 0.031144 0.0
-0.032020 0.031073 0.0
-0.036271 0.030974 0.0
-0.040514 0.030844 0.0
-0.044747 0.030677 0.0
-0.048965 0.030464 0.0
-0.053165 0.030199 0.0
-0.057342 0.029870 0.0
-0.061489 0.029468 0.0
-0.065599 0.028978 0.0
-0.069663 0.028387 0.0
-0.073670 0.027679 0.0
-0.077606 0.026836 0.0
-0.081456 0.025838 0.0
-0.085202 0.024665 0.0
-0.088820 0.023295 0.0
-0.092285 0.021703 0.0
-0.095567 0.019866 0.0
-0.098630 0.017760 0.0
-0.101435 0.015361 0.0
-0.103935 0.012647 0.0
-0.106080 0.009600 0.0
-0.107813 0.006205 0.0
-0.109072 0.002455 0.0
-0.109792 -0.001652 0.0
-0.109902 -0.006106 0.0
-0.109332 -0.010885 0.0
-0.108012 -0.015953 0.0
-0.105878 -0.021261 0.0
-0.102872 -0.026741 0.0
-0.098948 -0.032310 0.0
-0.094080 -0.037872 0.0
-0.088259 -0.043316 0.0
-0.081503 -0.048524 0.0
-0.073859 -0.053372 0.0
-0.065401 -0.057732 0.0
-0.056238 -0.061459 0.0
-0.046512 -0.064355 0.0
-0.036415 -0.066068 0.0
-0.026227 -0.065872 0.0
-0.016401 -0.062174 0.0
-0.007767 -0.051479 0.0
-0.001942 -0.026406 0.0
-0.000826 0.013759 0.0
-0.003257 0.026654 0.0
-0.006804 0.032257 0.0
-0.010822 0.034455 0.0
-0.015018 0.035211 0.0
-0.019274 0.035424 0.0
-0.023549 0.035452 0.0
-0.027830 0.035414 0.0
-0.032112 0.035341 0.0
-0.036393 0.035239 0.0
-0.040672 0.035102 0.0
-0.044948 0.034926 0.0
-0.049217 0.034702 0.0
-0.053478 0.034421 0.0
-0.057726 0.034073 0.0
-0.061958 0.033644 0.0
-0.066167 0.033121 0.0
-0.070345 0.032487 0.0
-0.074485 0.031725 0.0
-0.078574 0.030815 0.0
-0.082598 0.029734 0.0
-0.086541 0.028458 0.0
-0.090382 0.026961 0.0
-0.094095 0.025215 0.0
-0.097651 0.023192 0.0
-0.101015 0.020861 0.0
-0.104146 0.018194 0.0
-0.106996 0.015163 0.0
-0.109509 0.011742 0.0
-0.111625 0.007911 0.0
-0.113273 0.003656 0.0
-0.114378 -0.001029 0.0
-0.114859 -0.006138 0.0
-0.114631 -0.011651 0.0
-0.113609 -0.017529 0.0
-0.111709 -0.023719 0.0
-0.108856 -0.030142 0.0
-0.104987 -0.036701 0.0
-0.100060 -0.043277 0.0
-0.094055 -0.049736 0.0
-0.086984 -0.055929 0.0
-0.078896 -0.061699 0.0
-0.069877 -0.066882 0.0
-0.060054 -0.071296 0.0
-0.049599 -0.074699 0.0
-0.038743 -0.076677 0.0
-0.027811 -0.076385 0.0
-0.017311 -0.071987 0.0
-0.008144 -0.059467 0.0
-0.002020 -0.030368 0.0
-0.000822 0.015407 0.0
-0.003246 0.029861 0.0
-0.006794 0.036144 0.0
-0.010820 0.038610 0.0
-0.015028 0.039460 0.0
-0.019299 0.039704 0.0
-0.023592 0.039742 0.0
-0.027895 0.039707 0.0
-0.032202 0.039637 0.0
-0.036515 0.039536 0.0
-0.040831 0.039401 0.0
-0.045152 0.039224 0.0
-0.049475 0.038997 0.0
-0.053800 0.038712 0.0
-0.058125 0.038355 0.0
-0.062446 0.037914 0.0
-0.066761 0.037374 0.0
-0.071064 0.036716 0.0
-0.075347 0.035920 0.0
-0.079603 0.034965 0.0
-0.083819 0.033824 0.0
-0.087980 0.032471 0.0
-0.092067 0.030876 0.0
-0.096059 0.029005 0.0
-0.099925 0.026824 0.0
-0.103632 0.024299 0.0
-0.107136 0.021392 0.0
-0.110390 0.018068 0.0
-0.113335 0.014295 0.0
-0.115902 0.010042 0.0
-0.118015 0.005287 0.0
-0.119588 0.000018 0.0
-0.120525 -0.005767 0.0
-0.120725 -0.012050 0.0
-0.120082 -0.018795 0.0
-0.118492 -0.025943 0.0
-0.115855 -0.033407 0.0
-0.112085 -0.041074 0.0
-0.107117 -0.048800 0.0
-0.100917 -0.056420 0.0
-0.093485 -0.063747 0.0
-0.084873 -0.070582 0.0
-0.075177 -0.076713 0.0
-0.064553 -0.081911 0.0
-0.053213 -0.085879 0.0
-0.041439 -0.088127 0.0
-0.029616 -0.087689 0.0
-0.018325 -0.082473 0.0
-0.008549 -0.067923 0.0
-0.002098 -0.034486 0.0
-0.000816 0.017045 0.0
-0.003233 0.033065 0.0
-0.006781 0.040037 0.0
-0.010813 0.042775 0.0
-0.015033 0.043722 0.0
-0.019319 0.043999 0.0
-0.023631 0.044050 0.0
-0.027954 0.044024 0.0
-0.032288 0.043962 0.0
-0.036631 0.043868 0.0
-0.040986 0.043740 0.0
-0.045352 0.043571 0.0
-0.049730 0.043352 0.0
-0.054121 0.043073 0.0
-0.058525 0.042722 0.0
-0.062941 0.042285 0.0
-0.067367 0.041744 0.0
-0.071800 0.041081 0.0
-0.076237 0.040275 0.0
-0.080671 0.039299 0.0
-0.085093 0.038127 0.0
-0.089491 0.036728 0.0
-0.093849 0.035066 0.0
-0.098147 0.033104 0.0
-0.102358 0.030802 0.0
-0.106449 0.028118 0.0
-0.110377 0.025007 0.0
-0.114094 0.021424 0.0
-0.117537 0.017326 0.0
-0.120633 0.012674 0.0
-0.123297 0.007433 0.0
-0.125432 0.001580 0.0
-0.126927 -0.004897 0.0
-0.127660 -0.011987 0.0
-0.127502 -0.019659 0.0
-0.126321 -0.027851 0.0
-0.123987 -0.036471 0.0
-0.120381 -0.045386 0.0
-0.115409 -0.054428 0.0
-0.109010 -0.063392 0.0
-0.101172 -0.072044 0.0
-0.091941 -0.080128 0.0
-0.081432 -0.087371 0.0
-0.069834 -0.093475 0.0
-0.057415 -0.098074 0.0
-0.044527 -0.100594 0.0
-0.031640 -0.099932 0.0
-0.019425 -0.093737 0.0
-0.008963 -0.076897 0.0
-0.002170 -0.038755 0.0
-0.000810 0.018671 0.0
-0.003217 0.036264 0.0
-0.006763 0.043933 0.0
-0.010802 0.046949 0.0
-0.015032 0.047998 0.0
-0.019332 0.048311 0.0
-0.023661 0.048378 0.0
-0.028005 0.048364 0.0
-0.032363 0.048314 0.0
-0.036737 0.048234 0.0
-0.041129 0.048120 0.0
-0.045540 0.047968 0.0
-0.049973 0.047767 0.0
-0.054430 0.047507 0.0
-0.058914 0.047175 0.0
-0.063425 0.046758 0.0
-0.067964 0.046236 0.0
-0.072533 0.045591 0.0
-0.077129 0.044798 0.0
-0.081750 0.043831 0.0
-0.086391 0.042658 0.0
-0.091042 0.041246 0.0
-0.095691 0.039555 0.0
-0.100322 0.037543 0.0
-0.104911 0.035163 0.0
-0.109427 0.032364 0.0
-0.113831 0.029093 0.0
-0.118071 0.025294 0.0
-0.122085 0.020913 0.0
-0.125795 0.015894 0.0
-0.129109 0.010191 0.0
-0.131915 0.003763 0.0
-0.134089 -0.003412 0.0
-0.135486 -0.011342 0.0
-0.135947 -0.020001 0.0
-0.135304 -0.029333 0.0
-0.133389 -0.039238 0.0
-0.130043 -0.049570 0.0
-0.125127 -0.060131 0.0
-0.118545 -0.070670 0.0
-0.110257 -0.080892 0.0
-0.100302 -0.090466 0.0
-0.088812 -0.099032 0.0
-0.076022 -0.106202 0.0
-0.062275 -0.111514 0.0
-0.048028 -0.114290 0.0
-0.033864 -0.113286 0.0
-0.020575 -0.105888 0.0
-0.009356 -0.086426 0.0
-0.002225 -0.043150 0.0
-0.000802 0.020283 0.0
-0.003198 0.039455 0.0
-0.006740 0.047831 0.0
-0.010783 0.051132 0.0
-0.015023 0.052285 0.0
-0.019335 0.052637 0.0
-0.023679 0.052724 0.0
-0.028042 0.052726 0.0
-0.032423 0.052692 0.0
-0.036826 0.052631 0.0
-0.041252 0.052540 0.0
-0.045706 0.052413 0.0
-0.050191 0.052240 0.0
-0.054713 0.052012 0.0
-0.059274 0.051715 0.0
-0.063880 0.051335 0.0
-0.068533 0.050853 0.0
-0.073239 0.050248 0.0
-0.077997 0.049496 0.0
-0.082811 0.048567 0.0
-0.087678 0.047429 0.0
-0.092594 0.046043 0.0
-0.097552 0.044366 0.0
-0.102539 0.042351 0.0
-0.107537 0.039942 0.0
-0.112519 0.037082 0.0
-0.117447 0.033707 0.0
-0.122274 0.029748 0.0
-0.126937 0.025136 0.0
-0.131355 0.019799 0.0
-0.135428 0.013673 0.0
-0.139037 0.006696 0.0
-0.142033 -0.001174 0.0
-0.144249 -0.009967 0.0
-0.145494 -0.019671 0.0
-0.145559 -0.030241 0.0
-0.144224 -0.041579 0.0
-0.141275 -0.053526 0.0
-0.136513 -0.065852 0.0
-0.129787 -0.078256 0.0
-0.121016 -0.090365 0.0
-0.110218 -0.101746 0.0
-0.097541 -0.111920 0.0
-0.083279 -0.120367 0.0
-0.067883 -0.126491 0.0
-0.051955 -0.129487 0.0
-0.036248 -0.127959 0.0
-0.021712 -0.119041 0.0
-0.009678 -0.096525 0.0
-0.002243 -0.047618 0.0
-0.000793 0.021878 0.0
-0.003174 0.042636 0.0
-0.006711 0.051729 0.0
-0.010756 0.055321 0.0
-0.015003 0.056582 0.0
-0.019326 0.056975 0.0
-0.023683 0.057085 0.0
-0.028062 0.057107 0.0
-0.032463 0.057094 0.0
-0.036890 0.057059 0.0
-0.041347 0.056997 0.0
-0.045840 0.056903 0.0
-0.050374 0.056769 0.0
-0.054955 0.056585 0.0
-0.059590 0.056338 0.0
-0.064287 0.056014 0.0
-0.069051 0.055592 0.0
-0.073890 0.055053 0.0
-0.078811 0.054370 0.0
-0.083818 0.053513 0.0
-0.088915 0.052447 0.0
-0.094104 0.051130 0.0
-0.099383 0.049516 0.0
-0.104746 0.047551 0.0
-0.110179 0.045173 0.0
-0.115663 0.042316 0.0
-0.121165 0.038904 0.0
-0.126642 0.034855 0.0
-0.132033 0.030082 0.0
-0.137258 0.024496 0.0
-0.142213 0.018005 0.0
-0.146765 0.010525 0.0
-0.150753 0.001981 0.0
-0.153981 -0.007679 0.0
-0.156221 -0.018474 0.0
-0.157212 -0.030381 0.0
-0.156675 -0.043311 0.0
-0.154318 -0.057101 0.0
-0.149865 -0.071493 0.0
-0.143080 -0.086126 0.0
-0.133814 -0.100533 0.0
-0.122045 -0.114146 0.0
-0.107926 -0.126316 0.0
-0.091827 -0.136332 0.0
-0.074347 -0.143402 0.0
-0.056308 -0.146544 0.0
-0.038711 -0.144206 0.0
-0.022729 -0.133311 0.0
-0.009849 -0.107170 0.0
-0.002198 -0.052059 0.0
-0.000783 0.023454 0.0
-0.003147 0.045805 0.0
-0.006675 0.055626 0.0
-0.010720 0.059515 0.0
-0.014972 0.060887 0.0
-0.019302 0.061324 0.0
-0.023669 0.061459 0.0
-0.028060 0.061503 0.0
-0.032477 0.061517 0.0
-0.036924 0.061511 0.0
-0.041408 0.061485 0.0
-0.045933 0.061433 0.0
-0.050509 0.061349 0.0
-0.055144 0.061222 0.0
-0.059846 0.061040 0.0
-0.064626 0.060788 0.0
-0.069494 0.060450 0.0
-0.074461 0.060002 0.0
-0.079537 0.059419 0.0
-0.084734 0.058669 0.0
-0.090061 0.057715 0.0
-0.095525 0.056515 0.0
-0.101131 0.055017 0.0
-0.106882 0.053163 0.0
-0.112771 0.050884 0.0
-0.118788 0.048105 0.0
-0.124908 0.044738 0.0
-0.131096 0.040686 0.0
-0.137296 0.035843 0.0
-0.143432 0.030096 0.0
-0.149399 0.023326 0.0
-0.155058 0.015415 0.0
-0.160232 0.006252 0.0
-0.164701 -0.004253 0.0
-0.168195 -0.016167 0.0
-0.170396 -0.029496 0.0
-0.170946 -0.044183 0.0
-0.169460 -0.060072 0.0
-0.165550 -0.076886 0.0
-0.158863 -0.094204 0.0
-0.149137 -0.111446 0.0
-0.136271 -0.127868 0.0
-0.120403 -0.142581 0.0
-0.101985 -0.154584 0.0
-0.081826 -0.162787 0.0
-0.061071 -0.165952 0.0
-0.041107 -0.162360 0.0
-0.023442 -0.148803 0.0
-0.009736 -0.118264 0.0
-0.002047 -0.056305 0.0
-0.000771 0.025009 0.0
-0.003115 0.048958 0.0
-0.006631 0.059517 0.0
-0.010673 0.063710 0.0
-0.014927 0.065197 0.0
-0.019262 0.065680 0.0
-0.023634 0.065842 0.0
-0.028034 0.065911 0.0
-0.032461 0.065954 0.0
-0.036923 0.065983 0.0
-0.041425 0.065998 0.0
-0.045976 0.065997 0.0
-0.050586 0.065971 0.0
-0.055264 0.065912 0.0
-0.060024 0.065810 0.0
-0.064877 0.065651 0.0
-0.069838 0.065416 0.0
-0.074921 0.065086 0.0
-0.080144 0.064634 0.0
-0.085521 0.064028 0.0
-0.091069 0.063231 0.0
-0.096802 0.062197 0.0
-0.102736 0.060874 0.0
-0.108878 0.059199 0.0
-0.115237 0.057097 0.0
-0.121809 0.054482 0.0
-0.128584 0.051257 0.0
-0.135537 0.047308 0.0
-0.142624 0.042508 0.0
-0.149776 0.036719 0.0
-0.156894 0.029788 0.0
-0.163839 0.021557 0.0
-0.170424 0.011869 0.0
-0.176402 0.000578 0.0
-0.181463 -0.012442 0.0
-0.185229 -0.027253 0.0
-0.187253 -0.043851 0.0
-0.187028 -0.062113 0.0
-0.184018 -0.081765 0.0
-0.177699 -0.102332 0.0
-0.167636 -0.123108 0.0
-0.153584 -0.143125 0.0
-0.135614 -0.161161 0.0
-0.114254 -0.175782 0.0
-0.090584 -0.185419 0.0
-0.066236 -0.188424 0.0
-0.043213 -0.182876 0.0
-0.023558 -0.165607 0.0
-0.009132 -0.129592 0.0
-0.001723 -0.060075 0.0
-0.000758 0.026539 0.0
-0.003079 0.052091 0.0
-0.006580 0.063401 0.0
-0.010616 0.067905 0.0
-0.014868 0.069508 0.0
-0.019204 0.070039 0.0
-0.023578 0.070229 0.0
-0.027980 0.070326 0.0
-0.032412 0.070399 0.0
-0.036881 0.070467 0.0
-0.041394 0.070529 0.0
-0.045961 0.070584 0.0
-0.050593 0.070625 0.0
-0.055304 0.070647 0.0
-0.060107 0.070639 0.0
-0.065020 0.070588 0.0
-0.070059 0.070479 0.0
-0.075244 0.070292 0.0
-0.080596 0.070002 0.0
-0.086137 0.069578 0.0
-0.091891 0.068982 0.0
-0.097881 0.068169 0.0
-0.104130 0.067084 0.0
-0.110660 0.065661 0.0
-0.117488 0.063821 0.0
-0.124628 0.061470 0.0
-0.132083 0.058499 0.0
-0.139844 0.054780 0.0
-0.147885 0.050164 0.0
-0.156153 0.044483 0.0
-0.164561 0.037549 0.0
-0.172978 0.029157 0.0
-0.181213 0.019090 0.0
-0.189007 0.007129 0.0
-0.196020 -0.006920 0.0
-0.201805 -0.023224 0.0
-0.205809 -0.041853 0.0
-0.207386 -0.062760 0.0
-0.205805 -0.085709 0.0
-0.200309 -0.110203 0.0
-0.190200 -0.135409 0.0
-0.174984 -0.160092 0.0
-0.154571 -0.182578 0.0
-0.129505 -0.200791 0.0
-0.101188 -0.212396 0.0
-0.071948 -0.215035 0.0
-0.044782 -0.206454 0.0
-0.022657 -0.183809 0.0
-0.007730 -0.140742 0.0
-0.001133 -0.062931 0.0
-0.000744 0.028041 0.0
-0.003038 0.055202 0.0
-0.006520 0.067274 0.0
-0.010547 0.072095 0.0
-0.014795 0.073818 0.0
-0.019127 0.074398 0.0
-0.023498 0.074616 0.0
-0.027897 0.074740 0.0
-0.032327 0.074847 0.0
-0.036794 0.074955 0.0
-0.041308 0.075068 0.0
-0.045880 0.075184 0.0
-0.050523 0.075300 0.0
-0.055251 0.075411 0.0
-0.060082 0.075509 0.0
-0.065036 0.075583 0.0
-0.070133 0.075620 0.0
-0.075399 0.075601 0.0
-0.080858 0.075504 0.0
-0.086541 0.075299 0.0
-0.092477 0.074951 0.0
-0.098700 0.074414 0.0
-0.105244 0.073633 0.0
-0.112142 0.072541 0.0
-0.119428 0.071055 0.0
-0.127131 0.069078 0.0
-0.135275 0.066490 0.0
-0.143872 0.063148 0.0
-0.152920 0.058884 0.0
-0.162390 0.053501 0.0
-0.172220 0.046769 0.0
-0.182298 0.038432 0.0
-0.192450 0.028202 0.0
-0.202415 0.015776 0.0
-0.211819 0.000850 0.0
-0.220162 -0.016865 0.0
-0.226797 -0.037572 0.0
-0.230909 -0.061353 0.0
-0.231533 -0.088073 0.0
-0.227601 -0.117267 0.0
-0.218042 -0.148012 0.0
-0.201969 -0.178776 0.0
-0.178960 -0.207316 0.0
-0.149429 -0.230650 0.0
-0.115045 -0.245239 0.0
-0.079020 -0.247457 0.0
-0.045896 -0.234322 0.0
-0.020332 -0.203630 0.0
-0.005151 -0.151029 0.0
-0.000164 -0.064228 0.0
-0.000728 0.029514 0.0
-0.002992 0.058287 0.0
-0.006454 0.071133 0.0
-0.010469 0.076277 0.0
-0.014708 0.078123 0.0
-0.019033 0.078750 0.0
-0.023396 0.078997 0.0
-0.027785 0.079148 0.0
-0.032205 0.079288 0.0
-0.036661 0.079438 0.0
-0.041165 0.079603 0.0
-0.045728 0.079784 0.0
-0.050366 0.079981 0.0
-0.055095 0.080188 0.0
-0.059935 0.080403 0.0
-0.064908 0.080616 0.0
-0.070040 0.080817 0.0
-0.075359 0.080989 0.0
-0.080898 0.081114 0.0
-0.086690 0.081165 0.0
-0.092777 0.081108 0.0
-0.099199 0.080902 0.0
-0.106003 0.080492 0.0
-0.113237 0.079813 0.0
-0.120950 0.078782 0.0
-0.129193 0.077298 0.0
-0.138013 0.075234 0.0
-0.147450 0.072438 0.0
-0.157533 0.068724 0.0
-0.168268 0.063866 0.0
-0.179630 0.057596 0.0
-0.191545 0.049599 0.0
-0.203870 0.039512 0.0
-0.216364 0.026925 0.0
-0.228659 0.011400 0.0
-0.240225 -0.007506 0.0
-0.250314 -0.030208 0.0
-0.257941 -0.056978 0.0
-0.261885 -0.087880 0.0
-0.260700 -0.122577 0.0
-0.252835 -0.160125 0.0
-0.236842 -0.198728 0.0
-0.211719 -0.235496 0.0
-0.177429 -0.266290 0.0
-0.135606 -0.285806 0.0
-0.090289 -0.288232 0.0
-0.048128 -0.268832 0.0
-0.016844 -0.225968 0.0
-0.001164 -0.159553 0.0
0.001269 -0.063123 0.0
-0.000711 0.030953 0.0
-0.002943 0.061344 0.0
-0.006381 0.074976 0.0
-0.010381 0.080450 0.0
-0.014610 0.082418 0.0
-0.018923 0.083093 0.0
-0.023271 0.083365 0.0
-0.027645 0.083542 0.0
-0.032045 0.083713 0.0
-0.036480 0.083904 0.0
-0.040962 0.084122 0.0
-0.045503 0.084370 0.0
-0.050119 0.084649 0.0
-0.054829 0.084959 0.0
-0.059655 0.085298 0.0
-0.064622 0.085661 0.0
-0.069760 0.086041 0.0
-0.075101 0.086425 0.0
-0.080683 0.086798 0.0
-0.086547 0.087138 0.0
-0.092740 0.087415 0.0
-0.099316 0.087593 0.0
-0.106332 0.087621 0.0
-0.113852 0.087437 0.0
-0.121943 0.086963 0.0
-0.130679 0.086096 0.0
-0.140134 0.084711 0.0
-0.150383 0.082647 0.0
-0.161493 0.079707 0.0
-0.173518 0.075642 0.0
-0.186486 0.070150 0.0
-0.200382 0.062857 0.0
-0.215123 0.053319 0.0
-0.230524 0.041012 0.0
-0.246252 0.025336 0.0
-0.261769 0.005641 0.0
-0.276297 -0.018738 0.0
-0.288721 -0.048397 0.0
-0.297548 -0.083691 0.0
-0.300958 -0.124541 0.0
-0.296866 -0.170118 0.0
-0.283108 -0.218487 0.0
-0.257771 -0.266198 0.0
-0.219810 -0.307839 0.0
-0.170111 -0.335778 0.0
-0.112919 -0.340767 0.0
-0.057011 -0.314367 0.0
-0.014897 -0.253831 0.0
0.003675 -0.165941 0.0
0.003181 -0.058674 0.0
-0.000693 0.032358 0.0
-0.002891 0.064369 0.0
-0.006303 0.078799 0.0
-0.010286 0.084609 0.0
-0.014501 0.086702 0.0
-0.018799 0.087420 0.0
-0.023128 0.087716 0.0
-0.027478 0.087914 0.0
-0.031851 0.088114 0.0
-0.036254 0.088342 0.0
-0.040700 0.088610 0.0
-0.045201 0.088924 0.0
-0.049777 0.089286 0.0
-0.054446 0.089701 0.0
-0.059233 0.090169 0.0
-0.064166 0.090690 0.0
-0.069277 0.091260 0.0
-0.074602 0.091872 0.0
-0.080185 0.092515 0.0
-0.086073 0.093173 0.0
-0.092322 0.093823 0.0
-0.098994 0.094433 0.0
-0.106158 0.094961 0.0
-0.113895 0.095353 0.0
-0.122292 0.095535 0.0
-0.131445 0.095413 0.0
-0.141462 0.094865 0.0
-0.152454 0.093733 0.0
-0.164538 0.091814 0.0
-0.177825 0.088848 0.0
-0.192415 0.084503 0.0
-0.208375 0.078360 0.0
-0.225716 0.069897 0.0
-0.244350 0.058469 0.0
-0.264045 0.043301 0.0
-0.284345 0.023494 0.0
-0.304474 -0.001935 0.0
-0.323267 -0.033983 0.0
-0.339111 -0.073433 0.0
-0.349891 -0.120608 0.0
-0.353028 -0.175007 0.0
-0.345495 -0.234891 0.0
-0.323992 -0.296634 0.0
-0.285679 -0.353677 0.0
-0.229729 -0.395590 0.0
-0.159436 -0.408439 0.0
-0.084455 -0.377583 0.0
-0.022414 -0.294769 0.0
0.006593 -0.172583 0.0
0.005274 -0.050219 0.0
-0.000675 0.033726 0.0
-0.002838 0.067362 0.0
-0.006222 0.082603 0.0
-0.010188 0.088754 0.0
-0.014386 0.090969 0.0
-0.018665 0.091729 0.0
-0.022970 0.092043 0.0
-0.027290 0.092257 0.0
-0.031626 0.092479 0.0
-0.035985 0.092740 0.0
-0.040381 0.093054 0.0
-0.044827 0.093428 0.0
-0.049341 0.093872 0.0
-0.053946 0.094390 0.0
-0.058666 0.094988 0.0
-0.063532 0.095670 0.0
-0.068578 0.096437 0.0
-0.073846 0.097288 0.0
-0.079382 0.098218 0.0
-0.085239 0.099217 0.0
-0.091481 0.100270 0.0
-0.098178 0.101355 0.0
-0.105412 0.102439 0.0
-0.113278 0.103478 0.0
-0.121883 0.104411 0.0
-0.131349 0.105157 0.0
-0.141814 0.105604 0.0
-0.153434 0.105607 0.0
-0.166379 0.104969 0.0
-0.180829 0.103431 0.0
-0.196974 0.100653 0.0
-0.214988 0.096185 0.0
-0.235015 0.089441 0.0
-0.257124 0.079669 0.0
-0.281248 0.065919 0.0
-0.307101 0.047030 0.0
-0.334090 0.021646 0.0
-0.361194 -0.011667 0.0
-0.386843 -0.054256 0.0
-0.408828 -0.107019 0.0
-0.424091 -0.170196 0.0
-0.428387 -0.242939 0.0
-0.416332 -0.322143 0.0
-0.382592 -0.400220 0.0
-0.324120 -0.463469 0.0
-0.242392 -0.492582 0.0
-0.145721 -0.465092 0.0
-0.053428 -0.361595 0.0
0.001050 -0.189242 0.0
0.006877 -0.038068 0.0
-0.000656 0.035057 0.0
-0.002783 0.070322 0.0
-0.006141 0.086386 0.0
-0.010089 0.092884 0.0
-0.014270 0.095220 0.0
-0.018527 0.096015 0.0
-0.022804 0.096339 0.0
-0.027087 0.096563 0.0
-0.031377 0.096799 0.0
-0.035681 0.097085 0.0
-0.040012 0.097436 0.0
-0.044384 0.097864 0.0
-0.048815 0.098382 0.0
-0.053329 0.098998 0.0
-0.057953 0.099723 0.0
-0.062717 0.100565 0.0
-0.067659 0.101531 0.0
-0.072822 0.102626 0.0
-0.078256 0.103851 0.0
-0.084021 0.105206 0.0
-0.090184 0.106685 0.0
-0.096825 0.108277 0.0
-0.104035 0.109961 0.0
-0.111922 0.111709 0.0
-0.120613 0.113476 0.0
-0.130253 0.115198 0.0
-0.141012 0.116788 0.0
-0.153090 0.118120 0.0
-0.166713 0.119022 0.0
-0.182141 0.119256 0.0
-0.199662 0.118494 0.0
-0.219588 0.116284 0.0
-0.242235 0.112015 0.0
-0.267891 0.104859 0.0
-0.296759 0.093721 0.0
-0.328876 0.077199 0.0
-0.364006 0.053596 0.0
-0.401517 0.020998 0.0
-0.440200 -0.022589 0.0
-0.477782 -0.079121 0.0
-0.510260 -0.150354 0.0
-0.531364 -0.237380 0.0
-0.532989 -0.338133 0.0
-0.507544 -0.443415 0.0
-0.450614 -0.535675 0.0
-0.362024 -0.590694 0.0
-0.246938 -0.578737 0.0
-0.120731 -0.466451 0.0
-0.021900 -0.237694 0.0
0.006924 -0.024267 0.0
-0.000637 0.036350 0.0
-0.002731 0.073249 0.0
-0.006064 0.090150 0.0
-0.009995 0.096998 0.0
-0.014159 0.099451 0.0
-0.018394 0.100275 0.0
-0.022639 0.100601 0.0
-0.026878 0.100823 0.0
-0.031113 0.101063 0.0
-0.035351 0.101362 0.0
-0.039601 0.101740 0.0
-0.043881 0.102212 0.0
-0.048207 0.102793 0.0
-0.052604 0.103498 0.0
-0.057099 0.104341 0.0
-0.061724 0.105336 0.0
-0.066518 0.106496 0.0
-0.071526 0.107832 0.0
-0.076801 0.109354 0.0
-0.082405 0.111071 0.0
-0.088410 0.112988 0.0
-0.094902 0.115106 0.0
-0.101980 0.117421 0.0
-0.109764 0.119921 0.0
-0.118393 0.122584 0.0
-0.128037 0.125373 0.0
-0.138893 0.128229 0.0
-0.151200 0.131064 0.0
-0.165242 0.133744 0.0
-0.181358 0.136078 0.0
-0.199946 0.137781 0.0
-0.221468 0.138446 0.0
-0.246452 0.137485 0.0
-0.275470 0.134064 0.0
-0.309111 0.127025 0.0
-0.347922 0.114823 0.0
-0.392305 0.095485 0.0
-0.442271 0.066587 0.0