# vtk DataFile Version 3.0
Scalar Field
ASCII
DATASET RECTILINEAR_GRID
DIMENSIONS 50 50 1
X_COORDINATES 50 double
0.100000 0.300000 0.500000 0.700000 0.900000 1.100000 1.300000 1.500000 1.700000 1.900000 2.100000 2.300000 2.500000 2.700000 2.900000 3.100000 3.300000 3.500000 3.700000 3.900000 4.100000 4.300000 4.500000 4.700000 4.900000 5.100000 5.300000 5.500000 5.700000 5.900000 6.100000 6.300000 6.500000 6.700000 6.900000 7.100000 7.300000 7.500000 7.700000 7.900000 8.100000 8.300000 8.500000 8.700000 8.900000 9.100000 9.300000 9.500000 9.700000 9.900000 
Y_COORDINATES 50 double
0.100000 0.300000 0.500000 0.700000 0.900000 1.100000 1.300000 1.500000 1.700000 1.900000 2.100000 2.300000 2.500000 2.700000 2.900000 3.100000 3.300000 3.500000 3.700000 3.900000 4.100000 4.300000 4.500000 4.700000 4.900000 5.100000 5.300000 5.500000 5.700000 5.900000 6.100000 6.300000 6.500000 6.700000 6.900000 7.100000 7.300000 7.500000 7.700000 7.900000 8.100000 8.300000 8.500000 8.700000 8.900000 9.100000 9.300000 9.500000 9.700000 9.900000 
Z_COORDINATES 1 double
0.0
POINT_DATA 2500
SCALARS Skalarfeld double 1
LOOKUP_TABLE default
0.000324
0.000306
0.000374
0.000544
0.000821
0.001203
0.001692
0.002286
0.002989
0.003801
0.004726
0.005764
0.006919
0.008194
0.009591
0.011113
0.012762
0.014541
0.016452
0.018497
0.020677
0.022993
0.025444
0.028030
0.030747
0.033591
0.036558
0.039639
0.042824
0.046102
0.049457
0.052874
0.056330
0.059802
0.063264
0.066688
0.070042
0.073296
0.076414
0.079363
0.082109
0.084619
0.086864
0.088815
0.090449
0.091747
0.092697
0.093295
0.093560
0.093552
0.000341
0.000323
0.000400
0.000577
0.000857
0.001240
0.001728
0.002322
0.003023
0.003834
0.004756
0.005792
0.006945
0.008217
0.009611
0.011129
0.012775
0.014550
0.016458
0.018498
0.020674
0.022985
0.025432
0.028013
0.030725
0.033565
0.036528
0.039605
0.042786
0.046061
0.049415
0.052829
0.056283
0.059755
0.063217
0.066642
0.069998
0.073253
0.076374
0.079325
0.082072
0.084584
0.086829
0.088781
0.090415
0.091714
0.092666
0.093272
0.093550
0.093540
0.000265
0.000238
0.000315
0.000494
0.000775
0.001157
0.001643
0.002234
0.002932
0.003739
0.004657
0.005689
0.006837
0.008103
0.009492
0.011004
0.012644
0.014414
0.016315
0.018351
0.020522
0.022829
0.025273
0.027852
0.030564
0.033405
0.036371
0.039453
0.042643
0.045929
0.049297
0.052727
0.056202
0.059696
0.063184
0.066637
0.070024
0.073310
0.076461
0.079442
0.082218
0.084755
0.087023
0.088993
0.090641
0.091949
0.092908
0.093516
0.093788
0.093757
0.000069
0.000034
0.000110
0.000288
0.000566
0.000947
0.001429
0.002016
0.002709
0.003510
0.004421
0.005446
0.006586
0.007845
0.009225
0.010730
0.012362
0.014125
0.016019
0.018049
0.020215
0.022519
0.024962
0.027541
0.030257
0.033106
0.036083
0.039181
0.042391
0.045702
0.049100
0.052567
0.056083
0.059624
0.063163
0.066670
0.070114
0.073458
0.076667
0.079705
0.082534
0.085119
0.087428
0.089432
0.091107
0.092434
0.093402
0.094012
0.094276
0.094229
-0.000257
-0.000295
-0.000223
-0.000047
0.000228
0.000604
0.001082
0.001662
0.002348
0.003141
0.004044
0.005059
0.006190
0.007438
0.008809
0.010303
0.011926
0.013679
0.015566
0.017589
0.019750
0.022052
0.024495
0.027079
0.029804
0.032666
0.035662
0.038785
0.042028
0.045378
0.048824
0.052346
0.055924
0.059535
0.063150
0.066739
0.070267
0.073697
0.076992
0.080112
0.083018
0.085673
0.088043
0.090096
0.091809
0.093161
0.094143
0.094755
0.095013
0.094954
-0.000713
-0.000754
-0.000684
-0.000513
-0.000242
0.000129
0.000599
0.001172
0.001849
0.002632
0.003524
0.004527
0.005646
0.006882
0.008240
0.009722
0.011333
0.013075
0.014952
0.016968
0.019125
0.021425
0.023870
0.026462
0.029199
0.032080
0.035102
0.038261
0.041547
0.044951
0.048460
0.052057
0.055719
0.059423
0.063140
0.066837
0.070478
0.074024
0.077433
0.080663
0.083672
0.086420
0.088869
0.090987
0.092748
0.094133
0.095132
0.095747
0.095999
0.095929
-0.001300
-0.001342
-0.001275
-0.001108
-0.000843
-0.000480
-0.000017
0.000545
0.001211
0.001982
0.002860
0.003850
0.004953
0.006175
0.007517
0.008984
0.010581
0.012310
0.014176
0.016183
0.018334
0.020633
0.023081
0.025682
0.028435
0.031340
0.034396
0.037597
0.040938
0.044409
0.047998
0.051687
0.055456
0.059278
0.063123
0.066957
0.070741
0.074433
0.077987
0.081357
0.084496
0.087361
0.089910
0.092109
0.093929
0.095353
0.096371
0.096990
0.097234
0.097151
-0.002015
-0.002059
-0.001996
-0.001833
-0.001575
-0.001220
-0.000768
-0.000217
0.000435
0.001191
0.002054
0.003027
0.004113
0.005316
0.006640
0.008089
0.009668
0.011382
0.013234
0.015230
0.017373
0.019669
0.022121
0.024731
0.027502
0.030434
0.033528
0.036780
0.040186
0.043736
0.047419
0.051220
0.055116
0.059080
0.063082
0.067084
0.071044
0.074916
0.078649
0.082191
0.085492
0.088500
0.091171
0.093467
0.095358
0.096825
0.097864
0.098484
0.098716
0.098618
-0.002857
-0.002903
-0.002843
-0.002686
-0.002436
-0.002091
-0.001651
-0.001114
-0.000477
0.000261
0.001105
0.002058
0.003123
0.004304
0.005606
0.007034
0.008592
0.010286
0.012121
0.014102
0.016235
0.018526
0.020978
0.023597
0.026386
0.029348
0.032484
0.035792
0.039270
0.042910
0.046702
0.050632
0.054677
0.058810
0.062997
0.067200
0.071372
0.075460
0.079410
0.083163
0.086658
0.089840
0.092658
0.095068
0.097040
0.098556
0.099613
0.100230
0.100446
0.100327
-0.003824
-0.003871
-0.003816
-0.003666
-0.003424
-0.003091
-0.002665
-0.002144
-0.001525
-0.000807
0.000015
0.000944
0.001984
0.003139
0.004415
0.005817
0.007349
0.009019
0.010832
0.012794
0.014912
0.017193
0.019643
0.022268
0.025074
0.028064
0.031243
0.034611
0.038166
0.041905
0.045819
0.049894
0.054109
0.058437
0.062841
0.067279
0.071702
0.076050
0.080260
0.084265
0.087995
0.091385
0.094377
0.096921
0.098984
0.100550
0.101622
0.102227
0.102417
0.102272
-0.004913
-0.004962
-0.004912
-0.004769
-0.004538
-0.004218
-0.003808
-0.003305
-0.002708
-0.002013
-0.001217
-0.000315
0.000696
0.001821
0.003066
0.004436
0.005937
0.007577
0.009361
0.011298
0.013396
0.015661
0.018103
0.020729
0.023547
0.026563
0.029783
0.033211
0.036847
0.040691
0.044736
0.048970
0.053377
0.057925
0.062578
0.067290
0.072006
0.076661
0.081181
0.085487
0.089499
0.093138
0.096335
0.099033
0.101197
0.102811
0.103888
0.104469
0.104621
0.104441
-0.006122
-0.006173
-0.006128
-0.005994
-0.005775
-0.005470
-0.005077
-0.004596
-0.004023
-0.003355
-0.002588
-0.001718
-0.000741
0.000349
0.001556
0.002889
0.004352
0.005955
0.007704
0.009608
0.011677
0.013919
0.016345
0.018964
0.021786
0.024822
0.028078
0.031563
0.035280
0.039231
0.043414
0.047819
0.052435
0.057228
0.062162
0.067189
0.072247
0.077262
0.082149
0.086815
0.091163
0.095099
0.098539
0.101415
0.103687
0.105344
0.106411
0.106946
0.107041
0.106815
-0.007448
-0.007501
-0.007462
-0.007337
-0.007131
-0.006843
-0.006471
-0.006014
-0.005468
-0.004830
-0.004097
-0.003264
-0.002326
-0.001278
-0.000113
0.001174
0.002592
0.004149
0.005854
0.007716
0.009746
0.011954
0.014353
0.016955
0.019772
0.022816
0.026099
0.029633
0.033425
0.037482
0.041805
0.046389
0.051226
0.056289
0.061537
0.066921
0.072372
0.077808
0.083129
0.088225
0.092977
0.097270
0.100997
0.104077
0.106463
0.108150
0.109180
0.109639
0.109651
0.109364
-0.008886
-0.008942
-0.008909
-0.008796
-0.008604
-0.008335
-0.007986
-0.007556
-0.007040
-0.006437
-0.005742
-0.004951
-0.004058
-0.003058
-0.001944
-0.000709
0.000655
0.002157
0.003807
0.005616
0.007594
0.009756
0.012115
0.014684
0.017481
0.020519
0.023816
0.027385
0.031241
0.035394
0.039853
0.044617
0.049683
0.055034
0.060627
0.066410
0.072311
0.078237
0.084071
0.089680
0.094920
0.099642
0.103713
0.107029
0.109533
0.111227
0.112180
0.112517
0.112408
0.112040
-0.010433
-0.010492
-0.010467
-0.010365
-0.010190
-0.009942
-0.009618
-0.009218
-0.008737
-0.008173
-0.007521
-0.006777
-0.005935
-0.004990
-0.003935
-0.002761
-0.001461
-0.000024
0.001559
0.003300
0.005214
0.007313
0.009614
0.012134
0.014891
0.017904
0.021193
0.024778
0.028678
0.032912
0.037493
0.042430
0.047723
0.053374
0.059337
0.065561
0.071970
0.078460
0.084898
0.091123
0.096953
0.102200
0.106688
0.110280
0.112903
0.114569
0.115384
0.115532
0.115246
0.114769
-0.012085
-0.012148
-0.012130
-0.012042
-0.011885
-0.011659
-0.011364
-0.010997
-0.010554
-0.010033
-0.009430
-0.008739
-0.007955
-0.007072
-0.006084
-0.004981
-0.003756
-0.002397
-0.000895
0.000765
0.002597
0.004615
0.006838
0.009286
0.011979
0.014941
0.018195
0.021768
0.025685
0.029972
0.034651
0.039741
0.045252
0.051195
0.057544
0.064244
0.071218
0.078354
0.085500
0.092462
0.099012
0.104908
0.109911
0.113834
0.116576
0.118159
0.118745
0.118604
0.118064
0.117440
-0.013838
-0.013903
-0.013894
-0.013820
-0.013683
-0.013482
-0.013218
-0.012887
-0.012487
-0.012014
-0.011463
-0.010832
-0.010113
-0.009301
-0.008388
-0.007367
-0.006229
-0.004961
-0.003554
-0.001993
-0.000263
0.001653
0.003775
0.006124
0.008724
0.011602
0.014788
0.018311
0.022206
0.026506
0.031244
0.036451
0.042150
0.048358
0.055093
0.062289
0.069878
0.077742
0.085710
0.093553
0.100988
0.107693
0.113348
0.117681
0.120544
0.121967
0.122189
0.121614
0.120707
0.119885
-0.015684
-0.015753
-0.015754
-0.015695
-0.015579
-0.015406
-0.015175
-0.014884
-0.014530
-0.014109
-0.013618
-0.013051
-0.012405
-0.011672
-0.010845
-0.009916
-0.008877
-0.007715
-0.006419
-0.004976
-0.003368
-0.001578
0.000414
0.002634
0.005106
0.007862
0.010935
0.014361
0.018182
0.022440
0.027180
0.032447
0.038280
0.044711
0.051789
0.059478
0.067710
0.076371
0.085279
0.094168
0.102687
0.110416
0.116910
0.121774
0.124771
0.125929
0.125596
0.124375
0.122940
0.121853
-0.017620
-0.017693
-0.017704
-0.017661
-0.017568
-0.017424
-0.017229
-0.016981
-0.016677
-0.016313
-0.015886
-0.015392
-0.014824
-0.014179
-0.013447
-0.012623
-0.011695
-0.010654
-0.009488
-0.008181
-0.006720
-0.005083
-0.003250
-0.001195
0.001109
0.003696
0.006604
0.009875
0.013555
0.017699
0.022362
0.027604
0.033486
0.040064
0.047386
0.055524
0.064389
0.073888
0.083839
0.093944
0.103783
0.112809
0.120406
0.125985
0.129157
0.129915
0.128757
0.126588
0.124403
0.122976
-0.019639
-0.019715
-0.019737
-0.019711
-0.019642
-0.019530
-0.019374
-0.019172
-0.018921
-0.018618
-0.018261
-0.017845
-0.017364
-0.016814
-0.016188
-0.015479
-0.014677
-0.013772
-0.012753
-0.011605
-0.010314
-0.008859
-0.007219
-0.005368
-0.003278
-0.000912
0.001770
0.004813
0.008272
0.012208
0.016690
0.021792
0.027596
0.034185
0.041636
0.050068
0.059486
0.069797
0.080841
0.092310
0.103716
0.114369
0.123422
0.129998
0.133443
0.133650
0.131304
0.127771
0.124534
0.122725
-0.021733
-0.021814
-0.021846
-0.021839
-0.021796
-0.021717
-0.021602
-0.021448
-0.021254
-0.021018
-0.020735
-0.020402
-0.020015
-0.019570
-0.019058
-0.018475
-0.017812
-0.017059
-0.016206
-0.015239
-0.014143
-0.012900
-0.011489
-0.009885
-0.008057
-0.005972
-0.003587
-0.000853
0.002287
0.005901
0.010068
0.014877
0.020428
0.026834
0.034210
0.042670
0.052440
0.063414
0.075486
0.088373
0.101544
0.114167
0.125115
0.133103
0.137036
0.136563
0.132586
0.127170
0.122548
0.120313
-0.023896
-0.023981
-0.024025
-0.024037
-0.024021
-0.023977
-0.023904
-0.023802
-0.023668
-0.023501
-0.023297
-0.023054
-0.022767
-0.022433
-0.022046
-0.021601
-0.021089
-0.020504
-0.019834
-0.019069
-0.018195
-0.017194
-0.016049
-0.014735
-0.013224
-0.011483
-0.009472
-0.007140
-0.004432
-0.001275
0.002414
0.006734
0.011802
0.017753
0.024740
0.032928
0.042534
0.053823
0.066631
0.080759
0.095698
0.110517
0.123806
0.133771
0.138652
0.137572
0.131554
0.123695
0.117399
0.114734
-0.026121
-0.026210
-0.026266
-0.026298
-0.026309
-0.026301
-0.026273
-0.026224
-0.026154
-0.026059
-0.025938
-0.025789
-0.025608
-0.025393
-0.025138
-0.024840
-0.024493
-0.024089
-0.023620
-0.023078
-0.022450
-0.021723
-0.020880
-0.019901
-0.018761
-0.017432
-0.015875
-0.014048
-0.011896
-0.009350
-0.006331
-0.002736
0.001556
0.006693
0.012852
0.020239
0.029083
0.039840
0.052691
0.067421
0.083635
0.100432
0.116256
0.128844
0.135608
0.134723
0.126831
0.116159
0.108060
0.104927
-0.028399
-0.028493
-0.028561
-0.028613
-0.028653
-0.028682
-0.028699
-0.028706
-0.028700
-0.028680
-0.028645
-0.028594
-0.028524
-0.028434
-0.028319
-0.028177
-0.028004
-0.027794
-0.027543
-0.027242
-0.026884
-0.026459
-0.025954
-0.025353
-0.024638
-0.023787
-0.022770
-0.021552
-0.020088
-0.018324
-0.016188
-0.013593
-0.010428
-0.006554
-0.001796
0.004062
0.011278
0.020155
0.031554
0.045414
0.061410
0.078919
0.096644
0.112262
0.122517
0.124268
0.116685
0.103952
0.094365
0.089880
-0.030724
-0.030822
-0.030903
-0.030975
-0.031043
-0.031109
-0.031173
-0.031235
-0.031295
-0.031353
-0.031407
-0.031456
-0.031501
-0.031540
-0.031571
-0.031592
-0.031602
-0.031598
-0.031577
-0.031535
-0.031468
-0.031369
-0.031233
-0.031051
-0.030811
-0.030501
-0.030105
-0.029600
-0.028960
-0.028150
-0.027127
-0.025833
-0.024194
-0.022115
-0.019470
-0.016095
-0.011779
-0.006264
0.000753
0.010806
0.023468
0.038597
0.056043
0.074347
0.090239
0.099223
0.097711
0.087000
0.076535
0.068784
-0.033086
-0.033189
-0.033282
-0.033374
-0.033471
-0.033574
-0.033685
-0.033803
-0.033929
-0.034064
-0.034208
-0.034360
-0.034522
-0.034693
-0.034873
-0.035063
-0.035263
-0.035473
-0.035693
-0.035923
-0.036162
-0.036412
-0.036672
-0.036942
-0.037221
-0.037509
-0.037805
-0.038109
-0.038419
-0.038733
-0.039049
-0.039365
-0.039678
-0.039985
-0.040280
-0.040558
-0.040809
-0.041005
-0.041043
-0.040573
-0.036511
-0.028920
-0.015566
0.004164
0.027809
0.049845
0.063191
0.063043
0.053377
0.044765
-0.035479
-0.035587
-0.035691
-0.035803
-0.035927
-0.036067
-0.036223
-0.036397
-0.036590
-0.036802
-0.037035
-0.037291
-0.037570
-0.037874
-0.038206
-0.038568
-0.038961
-0.039390
-0.039858
-0.040368
-0.040927
-0.041540
-0.042215
-0.042963
-0.043794
-0.044724
-0.045772
-0.046964
-0.048331
-0.049917
-0.051778
-0.053994
-0.056673
-0.059967
-0.064092
-0.069359
-0.076201
-0.085136
-0.096499
-0.109767
-0.122704
-0.128641
-0.123589
-0.104091
-0.071459
-0.031674
0.005362
0.027964
0.030220
0.027965
-0.037894
-0.038006
-0.038123
-0.038253
-0.038404
-0.038578
-0.038779
-0.039006
-0.039263
-0.039551
-0.039873
-0.040230
-0.040626
-0.041064
-0.041547
-0.042080
-0.042668
-0.043318
-0.044036
-0.044831
-0.045714
-0.046698
-0.047800
-0.049040
-0.050444
-0.052045
-0.053884
-0.056019
-0.058520
-0.061488
-0.065054
-0.069404
-0.074800
-0.081620
-0.090422
-0.102036
-0.117646
-0.138662
-0.165996
-0.198506
-0.231515
-0.256665
-0.262913
-0.245013
-0.203749
-0.144990
-0.079246
-0.022035
0.010831
0.023108
-0.040324
-0.040441
-0.040568
-0.040716
-0.040891
-0.041099
-0.041341
-0.041620
-0.041938
-0.042299
-0.042706
-0.043162
-0.043672
-0.044239
-0.044871
-0.045574
-0.046354
-0.047222
-0.048188
-0.049267
-0.050474
-0.051829
-0.053359
-0.055094
-0.057076
-0.059355
-0.062000
-0.065100
-0.068771
-0.073176
-0.078534
-0.085158
-0.093499
-0.104221
-0.118337
-0.137386
-0.163554
-0.199334
-0.246036
-0.301163
-0.356566
-0.400194
-0.417792
-0.401874
-0.353832
-0.279319
-0.187168
-0.092521
-0.019823
0.010146
-0.042763
-0.042885
-0.043022
-0.043185
-0.043382
-0.043619
-0.043899
-0.044226
-0.044602
-0.045031
-0.045519
-0.046069
-0.046687
-0.047380
-0.048155
-0.049021
-0.049988
-0.051069
-0.052277
-0.053631
-0.055154
-0.056872
-0.058819
-0.061039
-0.063586
-0.066532
-0.069968
-0.074017
-0.078844
-0.084672
-0.091815
-0.100721
-0.112042
-0.126765
-0.146412
-0.173309
-0.210708
-0.262086
-0.328756
-0.406249
-0.482545
-0.541410
-0.567508
-0.552811
-0.500455
-0.416662
-0.307785
-0.185414
-0.079075
-0.032616
-0.045204
-0.045332
-0.045477
-0.045653
-0.045869
-0.046131
-0.046444
-0.046813
-0.047241
-0.047733
-0.048295
-0.048933
-0.049653
-0.050464
-0.051375
-0.052396
-0.053541
-0.054823
-0.056262
-0.057880
-0.059703
-0.061766
-0.064111
-0.066791
-0.069874
-0.073450
-0.077632
-0.082576
-0.088487
-0.095649
-0.104463
-0.115498
-0.129600
-0.148053
-0.172844
-0.206999
-0.254648
-0.319944
-0.403877
-0.499959
-0.592718
-0.662455
-0.693383
-0.678661
-0.624034
-0.537805
-0.424751
-0.291039
-0.165451
-0.106958
-0.047644
-0.047777
-0.047929
-0.048114
-0.048344
-0.048626
-0.048967
-0.049371
-0.049844
-0.050392
-0.051020
-0.051737
-0.052551
-0.053470
-0.054507
-0.055672
-0.056981
-0.058452
-0.060106
-0.061968
-0.064071
-0.066453
-0.069165
-0.072267
-0.075841
-0.079988
-0.084844
-0.090588
-0.097460
-0.105794
-0.116055
-0.128911
-0.145351
-0.166872
-0.195783
-0.235550
-0.290795
-0.365960
-0.461668
-0.570075
-0.673464
-0.749718
-0.782834
-0.767246
-0.711616
-0.627817
-0.520982
-0.391686
-0.262632
-0.198560
-0.050080
-0.050218
-0.050374
-0.050565
-0.050803
-0.051098
-0.051459
-0.051890
-0.052399
-0.052993
-0.053679
-0.054465
-0.055361
-0.056378
-0.057527
-0.058822
-0.060281
-0.061923
-0.063772
-0.065856
-0.068211
-0.070880
-0.073919
-0.077396
-0.081399
-0.086042
-0.091474
-0.097891
-0.105557
-0.114836
-0.126233
-0.140470
-0.158605
-0.182225
-0.213739
-0.256686
-0.315688
-0.395063
-0.495219
-0.608142
-0.715738
-0.794853
-0.828846
-0.812610
-0.757135
-0.678490
-0.583940
-0.470033
-0.350596
-0.287589
-0.052510
-0.052654
-0.052812
-0.053002
-0.053241
-0.053542
-0.053912
-0.054361
-0.054896
-0.055525
-0.056256
-0.057100
-0.058066
-0.059166
-0.060413
-0.061824
-0.063415
-0.065208
-0.067228
-0.069507
-0.072083
-0.075001
-0.078321
-0.082115
-0.086476
-0.091526
-0.097418
-0.104358
-0.112620
-0.122577
-0.134743
-0.149843
-0.168924
-0.193522
-0.225918
-0.269342
-0.327886
-0.405320
-0.501824
-0.610500
-0.715110
-0.793385
-0.827762
-0.812623
-0.759302
-0.687824
-0.607949
-0.514858
-0.413600
-0.357112
-0.054936
-0.055086
-0.055242
-0.055425
-0.055656
-0.055951
-0.056321
-0.056776
-0.057324
-0.057975
-0.058739
-0.059626
-0.060648
-0.061817
-0.063147
-0.064654
-0.066358
-0.068280
-0.070447
-0.072892
-0.075652
-0.078778
-0.082327
-0.086376
-0.091019
-0.096376
-0.102605
-0.109907
-0.118554
-0.128907
-0.141459
-0.156892
-0.176170
-0.200654
-0.232351
-0.273866
-0.328265
-0.398480
-0.484954
-0.581897
-0.675470
-0.746047
-0.777480
-0.765978
-0.720923
-0.659049
-0.593869
-0.522740
-0.443786
-0.397463
-0.057364
-0.057521
-0.057670
-0.057837
-0.058048
-0.058325
-0.058680
-0.059126
-0.059673
-0.060332
-0.061114
-0.062030
-0.063093
-0.064314
-0.065709
-0.067295
-0.069090
-0.071118
-0.073405
-0.075984
-0.078893
-0.082182
-0.085909
-0.090148
-0.094993
-0.100560
-0.106999
-0.114505
-0.123330
-0.133808
-0.146386
-0.161665
-0.180493
-0.203917
-0.233406
-0.271045
-0.319143
-0.379720
-0.452754
-0.533433
-0.610472
-0.667837
-0.692391
-0.682604
-0.645450
-0.595686
-0.547346
-0.497065
-0.441153
-0.406783
-0.059804
-0.059968
-0.060103
-0.060242
-0.060420
-0.060662
-0.060986
-0.061406
-0.061936
-0.062586
-0.063370
-0.064299
-0.065385
-0.066642
-0.068085
-0.069729
-0.071595
-0.073704
-0.076084
-0.078765
-0.081787
-0.085196
-0.089049
-0.093416
-0.098386
-0.104068
-0.110602
-0.118163
-0.126978
-0.137341
-0.149643
-0.164329
-0.182030
-0.203631
-0.230198
-0.263109
-0.303876
-0.353652
-0.411978
-0.474858
-0.533533
-0.575856
-0.592250
-0.582673
-0.552599
-0.513695
-0.477935
-0.446371
-0.411693
-0.389336
-0.062271
-0.062443
-0.062556
-0.062652
-0.062776
-0.062963
-0.063235
-0.063610
-0.064103
-0.064727
-0.065495
-0.066419
-0.067512
-0.068787
-0.070259
-0.071943
-0.073858
-0.076026
-0.078472
-0.081226
-0.084324
-0.087812
-0.091742
-0.096179
-0.101204
-0.106917
-0.113442
-0.120932
-0.129583
-0.139628
-0.151326
-0.165097
-0.181399
-0.200824
-0.224081
-0.251991
-0.285364
-0.324626
-0.368984
-0.415180
-0.456742
-0.485100
-0.493803
-0.483397
-0.458349
-0.427636
-0.400843
-0.382493
-0.364895
-0.352956
-0.064790
-0.064971
-0.065048
-0.065080
-0.065126
-0.065233
-0.065428
-0.065734
-0.066168
-0.066744
-0.067478
-0.068380
-0.069462
-0.070739
-0.072222
-0.073927
-0.075871
-0.078075
-0.080561
-0.083359
-0.086503
-0.090032
-0.093995
-0.098451
-0.103471
-0.109144
-0.115574
-0.122892
-0.131233
-0.140775
-0.151760
-0.164460
-0.179194
-0.196327
-0.216262
-0.239395
-0.266009
-0.296016
-0.328430
-0.360649
-0.388078
-0.405004
-0.407313
-0.395651
-0.373731
-0.348526
-0.327848
-0.316614
-0.310705
-0.306379
-0.067398
-0.067586
-0.067610
-0.067548
-0.067484
-0.067476
-0.067563
-0.067772
-0.068122
-0.068630
-0.069309
-0.070171
-0.071226
-0.072486
-0.073964
-0.075672
-0.077627
-0.079846
-0.082351
-0.085168
-0.088327
-0.091864
-0.095823
-0.100255
-0.105222
-0.110798
-0.117071
-0.124122
-0.132063
-0.141050
-0.151241
-0.162815
-0.175964
-0.190882
-0.207741
-0.226638
-0.247512
-0.269964
-0.292957
-0.314441
-0.331229
-0.339654
-0.337179
-0.324383
-0.304364
-0.282614
-0.265527
-0.257637
-0.257443
-0.257151
-0.070148
-0.070343
-0.070285
-0.070087
-0.069865
-0.069700
-0.069640
-0.069719
-0.069958
-0.070374
-0.070978
-0.071782
-0.072794
-0.074023
-0.075480
-0.077175
-0.079123
-0.081339
-0.083843
-0.086657
-0.089807
-0.093326
-0.097251
-0.101625
-0.106502
-0.111941
-0.118002
-0.124737
-0.132258
-0.140660
-0.150046
-0.160522
-0.172181
-0.185092
-0.199267
-0.214619
-0.230887
-0.247527
-0.263547
-0.277346
-0.286721
-0.289353
-0.283710
-0.270271
-0.251622
-0.232165
-0.217139
-0.210154
-0.210265
-0.210113
-0.073122
-0.073319
-0.073135
-0.072737
-0.072293
-0.071913
-0.071659
-0.071569
-0.071666
-0.071964
-0.072475
-0.073204
-0.074158
-0.075342
-0.076765
-0.078434
-0.080360
-0.082558
-0.085044
-0.087836
-0.090959
-0.094438
-0.098306
-0.102599
-0.107360
-0.112638
-0.118450
-0.124870
-0.131964
-0.139794
-0.148419
-0.157886
-0.168220
-0.179404
-0.191352
-0.203873
-0.216612
-0.228988
-0.240112
-0.248730
-0.253297
-0.252331
-0.244943
-0.231479
-0.214121
-0.196466
-0.182799
-0.175268
-0.170757
-0.166378
-0.076445
-0.076632
-0.076245
-0.075551
-0.074793
-0.074121
-0.073613
-0.073310
-0.073232
-0.073390
-0.073788
-0.074428
-0.075312
-0.076440
-0.077817
-0.079449
-0.081343
-0.083510
-0.085964
-0.088721
-0.091800
-0.095224
-0.099019
-0.103216
-0.107848
-0.112945
-0.118516
-0.124627
-0.131317
-0.138620
-0.146561
-0.155149
-0.164360
-0.174125
-0.184305
-0.194657
-0.204801
-0.214180
-0.222022
-0.227340
-0.229018
-0.226065
-0.218052
-0.205106
-0.189126
-0.173067
-0.160367
-0.151214
-0.136615
-0.122024
-0.080316
-0.080462
-0.079741
-0.078594
-0.077389
-0.076324
-0.075491
-0.074925
-0.074639
-0.074634
-0.074905
-0.075445
-0.076249
-0.077314
-0.078638
-0.080223
-0.082075
-0.084202
-0.086615
-0.089326
-0.092351
-0.095710
-0.099423
-0.103516
-0.108016
-0.112930
-0.118277
-0.124104
-0.130431
-0.137274
-0.144633
-0.152491
-0.160796
-0.169449
-0.178284
-0.187046
-0.195362
-0.202725
-0.208476
-0.211826
-0.211941
-0.208131
-0.200173
-0.188146
-0.173590
-0.158855
-0.146342
-0.133486
-0.100526
-0.065177
-0.085074
-0.085103
-0.083797
-0.081943
-0.080096
-0.078508
-0.077266
-0.076387
-0.075864
-0.075679
-0.075812
-0.076246
-0.076966
-0.077963
-0.079228
-0.080762
-0.082566
-0.084645
-0.087010
-0.089668
-0.092634
-0.095923
-0.099550
-0.103539
-0.107909
-0.112653
-0.117802
-0.123381
-0.129401
-0.135863
-0.142754
-0.150040
-0.157652
-0.165479
-0.173347
-0.181003
-0.188100
-0.194184
-0.198692
-0.200980
-0.200393
-0.196407
-0.188847
-0.177976
-0.164721
-0.150743
-0.136298
-0.112615
-0.047104
0.030899
-0.091346
-0.091050
-0.088657
-0.085662
-0.082894
-0.080628
-0.078892
-0.077655
-0.076872
-0.076498
-0.076490
-0.076817
-0.077454
-0.078383
-0.079588
-0.081066
-0.082818
-0.084847
-0.087160
-0.089763
-0.092669
-0.095887
-0.099430
-0.103321
-0.107567
-0.112167
-0.117150
-0.122527
-0.128303
-0.134472
-0.141011
-0.147879
-0.155000
-0.162257
-0.169478
-0.176424
-0.182772
-0.188117
-0.191970
-0.193787
-0.193026
-0.189244
-0.182251
-0.172268
-0.159935
-0.145686
-0.124538
-0.070796
0.058485
0.223500
-0.100426
-0.099190
-0.094616
-0.089747
-0.085689
-0.082590
-0.080286
-0.078657
-0.077606
-0.077044
-0.076900
-0.077125
-0.077683
-0.078550
-0.079693
-0.081115
-0.082813
-0.084792
-0.087053
-0.089604
-0.092456
-0.095611
-0.099075
-0.102875
-0.107017
-0.111509
-0.116364
-0.121591
-0.127191
-0.133154
-0.139455
-0.146046
-0.152851
-0.159754
-0.166588
-0.173123
-0.179063
-0.184036
-0.187605
-0.189288
-0.188606
-0.185142
-0.178630
-0.168980
-0.156255
-0.139221
-0.099829
0.019143
0.299467
0.634677
-0.115637
-0.111316
-0.101897
-0.093974
-0.088192
-0.084168
-0.081231
-0.079180
-0.077859
-0.077120
-0.076851
-0.076982
-0.077470
-0.078296
-0.079368
-0.080741
-0.082403
-0.084342
-0.086561
-0.089068
-0.091869
-0.094972
-0.098385
-0.102125
-0.106200
-0.110621
-0.115395
-0.120530
-0.126025
-0.131866
-0.138029
-0.144463
-0.151092
-0.157799
-0.164423
-0.170743
-0.176475
-0.181270
-0.184718
-0.186373
-0.185771
-0.182464
-0.176006
-0.165697
-0.150388
-0.120661
-0.030808
0.230883
0.808441
1.511893
-0.145741
-0.129545
-0.110289
-0.096967
-0.088732
-0.083802
-0.080114
-0.077817
-0.076365
-0.075533
-0.075212
-0.075320
-0.075800
-0.076610
-0.077707
-0.079098
-0.080776
-0.082733
-0.084969
-0.087489
-0.090302
-0.093414
-0.096834
-0.100576
-0.104650
-0.109065
-0.113829
-0.118947
-0.124416
-0.130222
-0.136338
-0.142712
-0.149266
-0.155884
-0.162402
-0.168604
-0.174211
-0.178885
-0.182227
-0.183796
-0.183092
-0.179527
-0.172097
-0.158682
-0.133908
-0.060090
0.149354
0.684560
1.775475
3.177475
-0.249275
-0.111925
-0.082215
-0.073062
-0.069282
-0.067511
-0.066482
-0.066073
-0.066061
-0.066363
-0.066954
-0.067811
-0.068917
-0.070256
-0.071816
-0.073606
-0.075633
-0.077898
-0.080409
-0.083175
-0.086208
-0.089519
-0.093120
-0.097025
-0.101246
-0.105795
-0.110680
-0.115905
-0.121468
-0.127354
-0.133534
-0.139956
-0.146539
-0.153164
-0.159668
-0.165834
-0.171385
-0.175986
-0.179237
-0.180675
-0.179684
-0.175286
-0.164934
-0.141583
-0.079175
0.080496
0.475163
1.362974
3.034529
5.256791
