# vtk DataFile Version 3.0
Scalar Field
ASCII
DATASET RECTILINEAR_GRID
DIMENSIONS 50 50 1
X_COORDINATES 50 double
0.100000 0.300000 0.500000 0.700000 0.900000 1.100000 1.300000 1.500000 1.700000 1.900000 2.100000 2.300000 2.500000 2.700000 2.900000 3.100000 3.300000 3.500000 3.700000 3.900000 4.100000 4.300000 4.500000 4.700000 4.900000 5.100000 5.300000 5.500000 5.700000 5.900000 6.100000 6.300000 6.500000 6.700000 6.900000 7.100000 7.300000 7.500000 7.700000 7.900000 8.100000 8.300000 8.500000 8.700000 8.900000 9.100000 9.300000 9.500000 9.700000 9.900000 
Y_COORDINATES 50 double
0.100000 0.300000 0.500000 0.700000 0.900000 1.100000 1.300000 1.500000 1.700000 1.900000 2.100000 2.300000 2.500000 2.700000 2.900000 3.100000 3.300000 3.500000 3.700000 3.900000 4.100000 4.300000 4.500000 4.700000 4.900000 5.100000 5.300000 5.500000 5.700000 5.900000 6.100000 6.300000 6.500000 6.700000 6.900000 7.100000 7.300000 7.500000 7.700000 7.900000 8.100000 8.300000 8.500000 8.700000 8.900000 9.100000 9.300000 9.500000 9.700000 9.900000 
Z_COORDINATES 1 double
0.0
POINT_DATA 2500
SCALARS Skalarfeld double 1
LOOKUP_TABLE default
0.000106
0.000089
0.000156
0.000326
0.000602
0.000984
0.001470
0.002063
0.002764
0.003573
0.004494
0.005529
0.006680
0.007950
0.009341
0.010856
0.012499
0.014270
0.016172
0.018208
0.020377
0.022681
0.025119
0.027691
0.030392
0.033220
0.036168
0.039229
0.042394
0.045649
0.048982
0.052374
0.055805
0.059251
0.062688
0.066086
0.069415
0.072644
0.075739
0.078666
0.081392
0.083886
0.086116
0.088055
0.089681
0.090973
0.091920
0.092518
0.092784
0.092778
0.000123
0.000105
0.000182
0.000359
0.000638
0.001020
0.001506
0.002098
0.002797
0.003605
0.004524
0.005556
0.006705
0.007972
0.009360
0.010872
0.012511
0.014279
0.016177
0.018208
0.020373
0.022673
0.025107
0.027673
0.030370
0.033194
0.036138
0.039195
0.042356
0.045609
0.048939
0.052330
0.055759
0.059205
0.062641
0.066041
0.069372
0.072602
0.075700
0.078629
0.081357
0.083852
0.086083
0.088023
0.089648
0.090942
0.091891
0.092497
0.092776
0.092768
0.000047
0.000020
0.000098
0.000276
0.000556
0.000937
0.001422
0.002011
0.002706
0.003510
0.004425
0.005453
0.006597
0.007858
0.009241
0.010748
0.012381
0.014143
0.016036
0.018062
0.020222
0.022518
0.024949
0.027513
0.030210
0.033035
0.035982
0.039046
0.042215
0.045479
0.048823
0.052230
0.055679
0.059148
0.062610
0.066037
0.069398
0.072659
0.075787
0.078746
0.081503
0.084023
0.086277
0.088235
0.089875
0.091178
0.092134
0.092742
0.093017
0.092988
-0.000149
-0.000182
-0.000107
0.000070
0.000348
0.000727
0.001208
0.001793
0.002484
0.003282
0.004190
0.005211
0.006347
0.007602
0.008977
0.010475
0.012101
0.013855
0.015742
0.017762
0.019918
0.022210
0.024640
0.027206
0.029907
0.032739
0.035698
0.038777
0.041966
0.045255
0.048630
0.052072
0.055562
0.059077
0.062590
0.066071
0.069489
0.072808
0.075993
0.079009
0.081818
0.084386
0.086682
0.088675
0.090341
0.091663
0.092630
0.093240
0.093507
0.093462
-0.000473
-0.000510
-0.000438
-0.000263
0.000012
0.000387
0.000863
0.001441
0.002125
0.002915
0.003815
0.004827
0.005953
0.007198
0.008563
0.010052
0.011667
0.013413
0.015292
0.017306
0.019457
0.021748
0.024178
0.026749
0.029458
0.032304
0.035282
0.038386
0.041608
0.044936
0.048358
0.051855
0.055407
0.058992
0.062580
0.066141
0.069642
0.073047
0.076317
0.079415
0.082301
0.084939
0.087295
0.089338
0.091043
0.092391
0.093372
0.093986
0.094247
0.094190
-0.000927
-0.000967
-0.000897
-0.000726
-0.000456
-0.000086
0.000383
0.000954
0.001628
0.002409
0.003298
0.004298
0.005413
0.006645
0.007998
0.009474
0.011079
0.012814
0.014684
0.016690
0.018837
0.021127
0.023560
0.026138
0.028860
0.031725
0.034730
0.037868
0.041134
0.044515
0.048000
0.051571
0.055207
0.058884
0.062573
0.066242
0.069855
0.073374
0.076757
0.079965
0.082953
0.085684
0.088119
0.090228
0.091982
0.093364
0.094363
0.094981
0.095236
0.095170
-0.001510
-0.001552
-0.001485
-0.001318
-0.001053
-0.000691
-0.000230
0.000331
0.000995
0.001763
0.002639
0.003625
0.004725
0.005942
0.007280
0.008742
0.010333
0.012056
0.013914
0.015913
0.018054
0.020342
0.022779
0.025366
0.028105
0.030994
0.034032
0.037214
0.040534
0.043982
0.047546
0.051209
0.054950
0.058743
0.062559
0.066364
0.070119
0.073783
0.077310
0.080656
0.083775
0.086622
0.089158
0.091348
0.093163
0.094585
0.095605
0.096228
0.096476
0.096398
-0.002221
-0.002264
-0.002201
-0.002039
-0.001781
-0.001427
-0.000976
-0.000427
0.000224
0.000978
0.001838
0.002808
0.003890
0.005090
0.006409
0.007854
0.009428
0.011135
0.012980
0.014968
0.017103
0.019388
0.021828
0.024425
0.027182
0.030099
0.033175
0.036408
0.039792
0.043319
0.046977
0.050751
0.054618
0.058552
0.062523
0.066494
0.070423
0.074265
0.077971
0.081488
0.084767
0.087758
0.090416
0.092704
0.094592
0.096060
0.097102
0.097728
0.097967
0.097873
-0.003059
-0.003103
-0.003043
-0.002887
-0.002637
-0.002293
-0.001854
-0.001318
-0.000683
0.000054
0.000896
0.001846
0.002908
0.004085
0.005384
0.006807
0.008360
0.010048
0.011877
0.013851
0.015975
0.018256
0.020698
0.023304
0.026080
0.029026
0.032144
0.035433
0.038889
0.042506
0.046272
0.050174
0.054189
0.058290
0.062445
0.066614
0.070753
0.074810
0.078730
0.082456
0.085930
0.089094
0.091900
0.094304
0.096275
0.097794
0.098858
0.099482
0.099706
0.099593
-0.004020
-0.004066
-0.004011
-0.003861
-0.003620
-0.003287
-0.002862
-0.002342
-0.001725
-0.001008
-0.000188
0.000739
0.001777
0.002929
0.004202
0.005600
0.007128
0.008792
0.010599
0.012554
0.014665
0.016937
0.019377
0.021990
0.024783
0.027758
0.030920
0.034268
0.037802
0.041517
0.045404
0.049450
0.053634
0.057927
0.062297
0.066700
0.071086
0.075400
0.079578
0.083555
0.087262
0.090634
0.093615
0.096154
0.098219
0.099792
0.100875
0.101491
0.101692
0.101554
-0.005102
-0.005151
-0.005100
-0.004958
-0.004727
-0.004407
-0.003997
-0.003496
-0.002899
-0.002206
-0.001411
-0.000511
0.000498
0.001621
0.002863
0.004229
0.005727
0.007362
0.009141
0.011073
0.013163
0.015421
0.017853
0.020469
0.023274
0.026275
0.029479
0.032888
0.036503
0.040322
0.044340
0.048544
0.052918
0.057430
0.062045
0.066719
0.071396
0.076013
0.080498
0.084773
0.088760
0.092381
0.095568
0.098265
0.100434
0.102061
0.103154
0.103750
0.103916
0.103744
-0.006304
-0.006355
-0.006309
-0.006175
-0.005956
-0.005651
-0.005259
-0.004778
-0.004206
-0.003539
-0.002773
-0.001904
-0.000929
0.000159
0.001365
0.002695
0.004155
0.005754
0.007499
0.009398
0.011461
0.013696
0.016114
0.018723
0.021534
0.024556
0.027797
0.031263
0.034959
0.038886
0.043041
0.047415
0.051996
0.056752
0.061646
0.066630
0.071645
0.076618
0.081466
0.086098
0.090419
0.094337
0.097767
0.100645
0.102928
0.104604
0.105693
0.106250
0.106363
0.106148
-0.007622
-0.007674
-0.007635
-0.007511
-0.007304
-0.007016
-0.006645
-0.006187
-0.005642
-0.005005
-0.004272
-0.003440
-0.002503
-0.001456
-0.000293
0.000993
0.002410
0.003964
0.005666
0.007524
0.009549
0.011751
0.014144
0.016737
0.019543
0.022576
0.025844
0.029361
0.033132
0.037165
0.041460
0.046013
0.050815
0.055837
0.061042
0.066379
0.071782
0.077171
0.082448
0.087506
0.092227
0.096500
0.100219
0.103306
0.105710
0.107424
0.108486
0.108975
0.109011
0.108737
-0.009051
-0.009107
-0.009074
-0.008960
-0.008769
-0.008499
-0.008150
-0.007720
-0.007205
-0.006601
-0.005907
-0.005115
-0.004223
-0.003223
-0.002109
-0.000875
0.000488
0.001989
0.003637
0.005442
0.007418
0.009576
0.011929
0.014492
0.017280
0.020308
0.023591
0.027145
0.030982
0.035112
0.039544
0.044277
0.049305
0.054614
0.060160
0.065893
0.071741
0.077613
0.083396
0.088960
0.094164
0.098865
0.102930
0.106257
0.108788
0.110521
0.111518
0.111897
0.111820
0.111468
-0.010590
-0.010648
-0.010623
-0.010521
-0.010345
-0.010097
-0.009773
-0.009372
-0.008891
-0.008326
-0.007674
-0.006929
-0.006087
-0.005141
-0.004085
-0.002912
-0.001611
-0.000175
0.001407
0.003148
0.005060
0.007157
0.009455
0.011970
0.014721
0.017726
0.021004
0.024576
0.028459
0.032672
0.037227
0.042133
0.047389
0.052996
0.058909
0.065078
0.071428
0.077857
0.084236
0.090407
0.096195
0.101416
0.105899
0.109508
0.112170
0.113891
0.114767
0.114971
0.114728
0.114271
-0.012233
-0.012294
-0.012277
-0.012188
-0.012030
-0.011804
-0.011508
-0.011140
-0.010697
-0.010175
-0.009570
-0.008878
-0.008093
-0.007209
-0.006219
-0.005115
-0.003888
-0.002529
-0.001025
0.000636
0.002468
0.004486
0.006709
0.009154
0.011844
0.014801
0.018048
0.021610
0.025514
0.029782
0.034438
0.039498
0.044973
0.050873
0.057170
0.063809
0.070718
0.077784
0.084860
0.091758
0.098257
0.104120
0.109118
0.113065
0.115860
0.117519
0.118189
0.118126
0.117641
0.117042
-0.013975
-0.014040
-0.014031
-0.013956
-0.013818
-0.013617
-0.013352
-0.013020
-0.012618
-0.012143
-0.011591
-0.010958
-0.010237
-0.009423
-0.008508
-0.007484
-0.006342
-0.005072
-0.003662
-0.002098
-0.000365
0.001553
0.003677
0.006027
0.008628
0.011504
0.014686
0.018204
0.022089
0.026375
0.031094
0.036276
0.041942
0.048108
0.054790
0.061924
0.069440
0.077225
0.085111
0.092876
0.100245
0.106908
0.112554
0.116918
0.119853
0.121380
0.121718
0.121249
0.120415
0.119624
-0.015812
-0.015881
-0.015881
-0.015821
-0.015704
-0.015530
-0.015298
-0.015005
-0.014649
-0.014226
-0.013733
-0.013164
-0.012514
-0.011778
-0.010947
-0.010015
-0.008970
-0.007804
-0.006504
-0.005055
-0.003442
-0.001647
0.000351
0.002575
0.005052
0.007811
0.010885
0.014311
0.018129
0.022379
0.027107
0.032354
0.038160
0.044554
0.051584
0.059208
0.067363
0.075937
0.084750
0.093544
0.101979
0.109650
0.116127
0.121028
0.124119
0.125417
0.125243
0.124166
0.122829
0.121780
-0.017738
-0.017810
-0.017820
-0.017777
-0.017682
-0.017537
-0.017341
-0.017091
-0.016784
-0.016418
-0.015988
-0.015490
-0.014919
-0.014269
-0.013532
-0.012702
-0.011769
-0.010721
-0.009548
-0.008234
-0.006764
-0.005118
-0.003276
-0.001213
0.001101
0.003697
0.006613
0.009890
0.013575
0.017720
0.022379
0.027612
0.033476
0.040026
0.047309
0.055388
0.064176
0.073581
0.083425
0.093417
0.103149
0.112096
0.119661
0.125279
0.128570
0.129516
0.128574
0.126599
0.124542
0.123159
-0.019746
-0.019822
-0.019843
-0.019816
-0.019746
-0.019633
-0.019474
-0.019270
-0.019016
-0.018711
-0.018349
-0.017929
-0.017444
-0.016888
-0.016256
-0.015539
-0.014730
-0.013816
-0.012788
-0.011630
-0.010327
-0.008860
-0.007207
-0.005342
-0.003237
-0.000855
0.001842
0.004901
0.008374
0.012323
0.016813
0.021920
0.027722
0.034298
0.041723
0.050116
0.059464
0.069684
0.080614
0.091956
0.103231
0.113777
0.122777
0.129388
0.132978
0.133430
0.131375
0.128100
0.125027
0.123252
-0.021830
-0.021910
-0.021942
-0.021934
-0.021889
-0.021809
-0.021691
-0.021535
-0.021338
-0.021097
-0.020810
-0.020472
-0.020080
-0.019627
-0.019109
-0.018517
-0.017845
-0.017081
-0.016216
-0.015236
-0.014125
-0.012866
-0.011437
-0.009813
-0.007964
-0.005856
-0.003446
-0.000687
0.002480
0.006122
0.010314
0.015146
0.020717
0.027135
0.034512
0.042958
0.052687
0.063590
0.075558
0.088314
0.101340
0.113831
0.124699
0.132709
0.136807
0.136643
0.133045
0.127954
0.123517
0.121313
-0.023983
-0.024068
-0.024111
-0.024122
-0.024104
-0.024058
-0.023983
-0.023877
-0.023740
-0.023568
-0.023359
-0.023110
-0.022817
-0.022475
-0.022079
-0.021624
-0.021101
-0.020503
-0.019819
-0.019038
-0.018145
-0.017125
-0.015956
-0.014617
-0.013078
-0.011305
-0.009259
-0.006889
-0.004139
-0.000937
0.002799
0.007168
0.012285
0.018284
0.025312
0.033531
0.043160
0.054422
0.067169
0.081197
0.096006
0.110689
0.123880
0.133844
0.138885
0.138150
0.132586
0.125111
0.118996
0.116335
-0.026198
-0.026287
-0.026342
-0.026373
-0.026382
-0.026372
-0.026341
-0.026289
-0.026214
-0.026114
-0.025987
-0.025832
-0.025643
-0.025419
-0.025155
-0.024845
-0.024484
-0.024066
-0.023580
-0.023019
-0.022369
-0.021618
-0.020747
-0.019736
-0.018560
-0.017190
-0.015587
-0.013708
-0.011497
-0.008886
-0.005793
-0.002117
0.002264
0.007498
0.013758
0.021248
0.030191
0.041046
0.053935
0.068666
0.084843
0.101576
0.117329
0.129890
0.136739
0.136111
0.128632
0.118346
0.110375
0.107220
-0.028467
-0.028560
-0.028628
-0.028678
-0.028716
-0.028742
-0.028757
-0.028759
-0.028748
-0.028723
-0.028683
-0.028624
-0.028546
-0.028445
-0.028320
-0.028165
-0.027977
-0.027751
-0.027480
-0.027157
-0.026774
-0.026320
-0.025781
-0.025142
-0.024384
-0.023482
-0.022406
-0.021121
-0.019580
-0.017725
-0.015485
-0.012770
-0.009466
-0.005432
-0.000491
0.005574
0.013023
0.022155
0.033844
0.047931
0.064135
0.081805
0.099604
0.115190
0.125341
0.127001
0.119451
0.106885
0.097298
0.092895
-0.030782
-0.030880
-0.030960
-0.031030
-0.031097
-0.031160
-0.031221
-0.031279
-0.031334
-0.031385
-0.031432
-0.031474
-0.031510
-0.031538
-0.031556
-0.031564
-0.031558
-0.031535
-0.031492
-0.031426
-0.031330
-0.031198
-0.031024
-0.030797
-0.030506
-0.030135
-0.029668
-0.029080
-0.028341
-0.027415
-0.026254
-0.024794
-0.022957
-0.020639
-0.017704
-0.013979
-0.009239
-0.003210
0.004425
0.015231
0.028565
0.044308
0.062123
0.080418
0.095889
0.104136
0.101821
0.090591
0.080001
0.072444
-0.033135
-0.033238
-0.033330
-0.033421
-0.033515
-0.033616
-0.033723
-0.033837
-0.033958
-0.034087
-0.034223
-0.034367
-0.034519
-0.034679
-0.034846
-0.035021
-0.035203
-0.035393
-0.035589
-0.035791
-0.036000
-0.036213
-0.036429
-0.036649
-0.036868
-0.037086
-0.037300
-0.037504
-0.037695
-0.037865
-0.038007
-0.038108
-0.038155
-0.038129
-0.038005
-0.037749
-0.037311
-0.036621
-0.035536
-0.033721
-0.028162
-0.019342
-0.005294
0.014397
0.037226
0.057771
0.069261
0.067514
0.057304
0.048570
-0.035519
-0.035627
-0.035731
-0.035841
-0.035964
-0.036100
-0.036253
-0.036422
-0.036609
-0.036815
-0.037041
-0.037288
-0.037557
-0.037849
-0.038167
-0.038513
-0.038888
-0.039295
-0.039737
-0.040218
-0.040743
-0.041316
-0.041944
-0.042636
-0.043401
-0.044252
-0.045206
-0.046284
-0.047512
-0.048928
-0.050578
-0.052528
-0.054870
-0.057729
-0.061284
-0.065792
-0.071609
-0.079164
-0.088751
-0.099938
-0.110735
-0.114939
-0.109106
-0.089836
-0.058374
-0.020607
0.013758
0.033583
0.033933
0.030773
-0.037926
-0.038039
-0.038154
-0.038284
-0.038432
-0.038604
-0.038801
-0.039024
-0.039275
-0.039557
-0.039871
-0.040219
-0.040604
-0.041029
-0.041498
-0.042015
-0.042584
-0.043210
-0.043902
-0.044666
-0.045513
-0.046454
-0.047506
-0.048686
-0.050018
-0.051533
-0.053269
-0.055277
-0.057622
-0.060396
-0.063717
-0.067755
-0.072745
-0.079027
-0.087101
-0.097708
-0.111909
-0.131003
-0.155908
-0.185757
-0.216417
-0.239901
-0.245731
-0.228427
-0.188529
-0.131841
-0.068934
-0.015178
0.014445
0.025346
-0.040349
-0.040467
-0.040593
-0.040740
-0.040913
-0.041118
-0.041356
-0.041630
-0.041943
-0.042298
-0.042697
-0.043144
-0.043643
-0.044198
-0.044815
-0.045500
-0.046261
-0.047106
-0.048045
-0.049091
-0.050260
-0.051571
-0.053048
-0.054721
-0.056627
-0.058816
-0.061350
-0.064313
-0.067816
-0.072008
-0.077095
-0.083369
-0.091245
-0.101340
-0.114584
-0.132396
-0.156814
-0.190235
-0.234104
-0.286422
-0.339744
-0.382487
-0.400467
-0.385633
-0.338974
-0.266091
-0.176098
-0.084389
-0.014818
0.013845
-0.042782
-0.042904
-0.043041
-0.043202
-0.043398
-0.043632
-0.043909
-0.044230
-0.044601
-0.045024
-0.045504
-0.046045
-0.046653
-0.047334
-0.048094
-0.048943
-0.049890
-0.050947
-0.052128
-0.053450
-0.054934
-0.056607
-0.058501
-0.060656
-0.063126
-0.065978
-0.069300
-0.073207
-0.077857
-0.083462
-0.090319
-0.098849
-0.109669
-0.123705
-0.142384
-0.167897
-0.203351
-0.252200
-0.316052
-0.391119
-0.466130
-0.525175
-0.552608
-0.539485
-0.488426
-0.405557
-0.297606
-0.176691
-0.072219
-0.026662
-0.045218
-0.045345
-0.045490
-0.045665
-0.045879
-0.046139
-0.046449
-0.046813
-0.047236
-0.047722
-0.048277
-0.048906
-0.049616
-0.050415
-0.051311
-0.052315
-0.053440
-0.054699
-0.056111
-0.057697
-0.059482
-0.061500
-0.063792
-0.066408
-0.069414
-0.072896
-0.076964
-0.081765
-0.087499
-0.094437
-0.102961
-0.113617
-0.127210
-0.144961
-0.168765
-0.201519
-0.247248
-0.310171
-0.391709
-0.486125
-0.578613
-0.649558
-0.682631
-0.669862
-0.616435
-0.530490
-0.417140
-0.283229
-0.157936
-0.099726
-0.047653
-0.047786
-0.047937
-0.048122
-0.048350
-0.048630
-0.048968
-0.049368
-0.049836
-0.050378
-0.051000
-0.051708
-0.052512
-0.053420
-0.054442
-0.055591
-0.056882
-0.058330
-0.059957
-0.061789
-0.063855
-0.066194
-0.068854
-0.071894
-0.075393
-0.079450
-0.084194
-0.089801
-0.096502
-0.104619
-0.114602
-0.127095
-0.143051
-0.163911
-0.191903
-0.230397
-0.283967
-0.357201
-0.451210
-0.558860
-0.662942
-0.741204
-0.776931
-0.763475
-0.708962
-0.625039
-0.517084
-0.386339
-0.256222
-0.191782
-0.050084
-0.050223
-0.050379
-0.050569
-0.050806
-0.051099
-0.051457
-0.051885
-0.052390
-0.052978
-0.053657
-0.054436
-0.055323
-0.056328
-0.057464
-0.058745
-0.060186
-0.061807
-0.063630
-0.065685
-0.068006
-0.070634
-0.073624
-0.077042
-0.080975
-0.085533
-0.090861
-0.097150
-0.104658
-0.113738
-0.124882
-0.138792
-0.156498
-0.179544
-0.210283
-0.252206
-0.309941
-0.388008
-0.487291
-0.600348
-0.709409
-0.791049
-0.827801
-0.813624
-0.759160
-0.680160
-0.584107
-0.468092
-0.346709
-0.282810
-0.052511
-0.052656
-0.052813
-0.053003
-0.053241
-0.053540
-0.053909
-0.054355
-0.054886
-0.055510
-0.056236
-0.057072
-0.058030
-0.059120
-0.060356
-0.061752
-0.063327
-0.065100
-0.067098
-0.069350
-0.071893
-0.074774
-0.078048
-0.081789
-0.086086
-0.091058
-0.096857
-0.103683
-0.111805
-0.121588
-0.133536
-0.148361
-0.167090
-0.191233
-0.223042
-0.265754
-0.323520
-0.400325
-0.496815
-0.606427
-0.713095
-0.794208
-0.831256
-0.817678
-0.765328
-0.693317
-0.611824
-0.516462
-0.412873
-0.355178
-0.054935
-0.055086
-0.055242
-0.055424
-0.055655
-0.055949
-0.056318
-0.056770
-0.057315
-0.057962
-0.058721
-0.059602
-0.060617
-0.061777
-0.063096
-0.064591
-0.066280
-0.068184
-0.070331
-0.072751
-0.075483
-0.078575
-0.082084
-0.086086
-0.090672
-0.095962
-0.102109
-0.109314
-0.117843
-0.128052
-0.140428
-0.155644
-0.174656
-0.198819
-0.230110
-0.271231
-0.325330
-0.395462
-0.482370
-0.580714
-0.676758
-0.750511
-0.784804
-0.775265
-0.730137
-0.667430
-0.600599
-0.527359
-0.446073
-0.398435
-0.057362
-0.057519
-0.057668
-0.057835
-0.058047
-0.058323
-0.058677
-0.059122
-0.059667
-0.060323
-0.061101
-0.062012
-0.063068
-0.064282
-0.065668
-0.067242
-0.069025
-0.071037
-0.073306
-0.075864
-0.078748
-0.082008
-0.085701
-0.089899
-0.094696
-0.100206
-0.106579
-0.114005
-0.122736
-0.133102
-0.145547
-0.160669
-0.179314
-0.202569
-0.231889
-0.269360
-0.317440
-0.378290
-0.452142
-0.534484
-0.614090
-0.674552
-0.701688
-0.693449
-0.656362
-0.605739
-0.555952
-0.503765
-0.445756
-0.410136
-0.059800
-0.059966
-0.060101
-0.060241
-0.060419
-0.060661
-0.060985
-0.061404
-0.061932
-0.062581
-0.063362
-0.064287
-0.065368
-0.066619
-0.068054
-0.069689
-0.071544
-0.073641
-0.076005
-0.078669
-0.081670
-0.085054
-0.088879
-0.093213
-0.098144
-0.103781
-0.110262
-0.117762
-0.126507
-0.136791
-0.148999
-0.163607
-0.181218
-0.202740
-0.229268
-0.262210
-0.303172
-0.353440
-0.412752
-0.477304
-0.538329
-0.583319
-0.601811
-0.593445
-0.563458
-0.523841
-0.487013
-0.453969
-0.417635
-0.394233
-0.062268
-0.062441
-0.062554
-0.062651
-0.062777
-0.062965
-0.063238
-0.063613
-0.064105
-0.064727
-0.065493
-0.066415
-0.067505
-0.068775
-0.070241
-0.071918
-0.073824
-0.075982
-0.078415
-0.081155
-0.084237
-0.087705
-0.091613
-0.096024
-0.101020
-0.106698
-0.113184
-0.120630
-0.129232
-0.139237
-0.150893
-0.164621
-0.180897
-0.200326
-0.223641
-0.251704
-0.285394
-0.325240
-0.370584
-0.418273
-0.461786
-0.492237
-0.502532
-0.493029
-0.468061
-0.436820
-0.409232
-0.389982
-0.371222
-0.358520
-0.064788
-0.064969
-0.065048
-0.065081
-0.065130
-0.065238
-0.065434
-0.065741
-0.066175
-0.066752
-0.067485
-0.068385
-0.069466
-0.070739
-0.072218
-0.073917
-0.075855
-0.078051
-0.080529
-0.083316
-0.086447
-0.089961
-0.093908
-0.098345
-0.103344
-0.108993
-0.115398
-0.122689
-0.131013
-0.140532
-0.151502
-0.164201
-0.178955
-0.196148
-0.216204
-0.239553
-0.266532
-0.297121
-0.330415
-0.363860
-0.392794
-0.411256
-0.414712
-0.403681
-0.381809
-0.356224
-0.334999
-0.323217
-0.316658
-0.311880
-0.067398
-0.067587
-0.067612
-0.067552
-0.067490
-0.067485
-0.067575
-0.067785
-0.068137
-0.068646
-0.069325
-0.070187
-0.071241
-0.072500
-0.073975
-0.075680
-0.077630
-0.079844
-0.082343
-0.085152
-0.088303
-0.091830
-0.095778
-0.100198
-0.105151
-0.110713
-0.116972
-0.124019
-0.131953
-0.140938
-0.151138
-0.162738
-0.175940
-0.190951
-0.207962
-0.227098
-0.248333
-0.271311
-0.295036
-0.317471
-0.335360
-0.344855
-0.343168
-0.330776
-0.310749
-0.288700
-0.271224
-0.263011
-0.262569
-0.262098
-0.070150
-0.070347
-0.070291
-0.070095
-0.069876
-0.069715
-0.069658
-0.069740
-0.069982
-0.070399
-0.071005
-0.071810
-0.072822
-0.074051
-0.075507
-0.077200
-0.079146
-0.081359
-0.083859
-0.086669
-0.089814
-0.093328
-0.097246
-0.101614
-0.106484
-0.111918
-0.117981
-0.124717
-0.132244
-0.140660
-0.150073
-0.160593
-0.172324
-0.185344
-0.199683
-0.215270
-0.231867
-0.248954
-0.265558
-0.280067
-0.290219
-0.293570
-0.288444
-0.275230
-0.256510
-0.236781
-0.221444
-0.214263
-0.214395
-0.214263
-0.073128
-0.073326
-0.073144
-0.072750
-0.072310
-0.071934
-0.071684
-0.071598
-0.071699
-0.072001
-0.072514
-0.073245
-0.074200
-0.075385
-0.076808
-0.078477
-0.080403
-0.082601
-0.085085
-0.087876
-0.090996
-0.094473
-0.098339
-0.102631
-0.107392
-0.112672
-0.118495
-0.124924
-0.132034
-0.139889
-0.148551
-0.158073
-0.168488
-0.179787
-0.191895
-0.204632
-0.217658
-0.230403
-0.241981
-0.251120
-0.256226
-0.255728
-0.248674
-0.235301
-0.217817
-0.199893
-0.185948
-0.178282
-0.173933
-0.169693
-0.076455
-0.076643
-0.076259
-0.075569
-0.074816
-0.074150
-0.073647
-0.073349
-0.073275
-0.073437
-0.073839
-0.074482
-0.075368
-0.076498
-0.077877
-0.079510
-0.081405
-0.083574
-0.086028
-0.088786
-0.091866
-0.095291
-0.099088
-0.103288
-0.107924
-0.113033
-0.118616
-0.124743
-0.131456
-0.138790
-0.146776
-0.155424
-0.164719
-0.174596
-0.184925
-0.195470
-0.205860
-0.215539
-0.223732
-0.229434
-0.231488
-0.228847
-0.221018
-0.208086
-0.191948
-0.175621
-0.162663
-0.153402
-0.139009
-0.124604
-0.080331
-0.080478
-0.079760
-0.078619
-0.077420
-0.076362
-0.075535
-0.074975
-0.074694
-0.074694
-0.074969
-0.075513
-0.076320
-0.077388
-0.078714
-0.080302
-0.082157
-0.084286
-0.086701
-0.089415
-0.092444
-0.095807
-0.099525
-0.103623
-0.108131
-0.113062
-0.118425
-0.124272
-0.130626
-0.137504
-0.144911
-0.152831
-0.161217
-0.169977
-0.178947
-0.187879
-0.196404
-0.204011
-0.210037
-0.213676
-0.214060
-0.210459
-0.202602
-0.190543
-0.175816
-0.160823
-0.148074
-0.135126
-0.102363
-0.067199
-0.085095
-0.085125
-0.083823
-0.081975
-0.080135
-0.078556
-0.077321
-0.076448
-0.075931
-0.075751
-0.075889
-0.076327
-0.077051
-0.078052
-0.079321
-0.080858
-0.082665
-0.084749
-0.087117
-0.089780
-0.092751
-0.096045
-0.099680
-0.103677
-0.108058
-0.112821
-0.117988
-0.123589
-0.129638
-0.136138
-0.143077
-0.150424
-0.158115
-0.166041
-0.174031
-0.181837
-0.189112
-0.195400
-0.200129
-0.202642
-0.202257
-0.198417
-0.190914
-0.179994
-0.166574
-0.152357
-0.137706
-0.113949
-0.048616
0.029236
-0.091374
-0.091080
-0.088691
-0.085703
-0.082944
-0.080687
-0.078958
-0.077728
-0.076951
-0.076583
-0.076580
-0.076912
-0.077554
-0.078486
-0.079696
-0.081179
-0.082935
-0.084969
-0.087286
-0.089895
-0.092807
-0.096032
-0.099583
-0.103484
-0.107745
-0.112362
-0.117365
-0.122766
-0.128572
-0.134779
-0.141366
-0.148293
-0.155488
-0.162837
-0.170170
-0.177249
-0.183753
-0.189272
-0.193311
-0.195313
-0.194713
-0.191046
-0.184093
-0.174060
-0.161582
-0.147124
-0.125813
-0.072055
0.057119
0.222015
-0.100462
-0.099226
-0.094658
-0.089799
-0.085751
-0.082660
-0.080364
-0.078742
-0.077697
-0.077141
-0.077003
-0.077233
-0.077796
-0.078667
-0.079815
-0.081242
-0.082946
-0.084929
-0.087195
-0.089752
-0.092610
-0.095776
-0.099248
-0.103059
-0.107216
-0.111725
-0.116601
-0.121853
-0.127483
-0.133483
-0.139830
-0.146479
-0.153354
-0.160343
-0.167280
-0.173938
-0.180019
-0.185147
-0.188880
-0.190724
-0.190183
-0.186818
-0.180342
-0.170652
-0.157810
-0.140609
-0.101111
0.017832
0.298069
0.633229
-0.115681
-0.111360
-0.101948
-0.094037
-0.088265
-0.084250
-0.081321
-0.079277
-0.077963
-0.077229
-0.076965
-0.077101
-0.077594
-0.078424
-0.079503
-0.080880
-0.082547
-0.084492
-0.086717
-0.089230
-0.092039
-0.095151
-0.098574
-0.102325
-0.106415
-0.110852
-0.115647
-0.120807
-0.126331
-0.132210
-0.138417
-0.144907
-0.151604
-0.158394
-0.165117
-0.171552
-0.177416
-0.182355
-0.185955
-0.187758
-0.187285
-0.184071
-0.177650
-0.167312
-0.151913
-0.122079
-0.032186
0.229447
0.806957
1.510426
-0.145790
-0.129593
-0.110348
-0.097039
-0.088816
-0.083894
-0.080214
-0.077923
-0.076477
-0.075650
-0.075335
-0.075447
-0.075932
-0.076747
-0.077849
-0.079245
-0.080928
-0.082891
-0.085132
-0.087660
-0.090480
-0.093601
-0.097031
-0.100785
-0.104873
-0.109305
-0.114090
-0.119232
-0.124731
-0.130574
-0.136735
-0.143165
-0.149786
-0.156484
-0.163099
-0.169413
-0.175147
-0.179960
-0.183447
-0.185155
-0.184573
-0.181095
-0.173704
-0.160271
-0.135437
-0.061562
0.147883
0.683043
1.773973
3.176075
-0.249317
-0.111967
-0.082273
-0.073137
-0.069369
-0.067607
-0.066585
-0.066183
-0.066176
-0.066484
-0.067079
-0.067941
-0.069052
-0.070396
-0.071961
-0.073756
-0.075788
-0.078059
-0.080575
-0.083348
-0.086389
-0.089708
-0.093320
-0.097237
-0.101472
-0.106039
-0.110944
-0.116194
-0.121787
-0.127711
-0.133936
-0.140413
-0.147063
-0.153769
-0.160369
-0.166646
-0.172322
-0.177058
-0.180449
-0.182020
-0.181145
-0.176830
-0.166516
-0.143157
-0.080706
0.078998
0.473669
1.361483
3.033125
5.255562
