# vtk DataFile Version 3.0
Scalar Field
ASCII
DATASET RECTILINEAR_GRID
DIMENSIONS 50 50 1
X_COORDINATES 50 double
0.100000 0.300000 0.500000 0.700000 0.900000 1.100000 1.300000 1.500000 1.700000 1.900000 2.100000 2.300000 2.500000 2.700000 2.900000 3.100000 3.300000 3.500000 3.700000 3.900000 4.100000 4.300000 4.500000 4.700000 4.900000 5.100000 5.300000 5.500000 5.700000 5.900000 6.100000 6.300000 6.500000 6.700000 6.900000 7.100000 7.300000 7.500000 7.700000 7.900000 8.100000 8.300000 8.500000 8.700000 8.900000 9.100000 9.300000 9.500000 9.700000 9.900000 
Y_COORDINATES 50 double
0.100000 0.300000 0.500000 0.700000 0.900000 1.100000 1.300000 1.500000 1.700000 1.900000 2.100000 2.300000 2.500000 2.700000 2.900000 3.100000 3.300000 3.500000 3.700000 3.900000 4.100000 4.300000 4.500000 4.700000 4.900000 5.100000 5.300000 5.500000 5.700000 5.900000 6.100000 6.300000 6.500000 6.700000 6.900000 7.100000 7.300000 7.500000 7.700000 7.900000 8.100000 8.300000 8.500000 8.700000 8.900000 9.100000 9.300000 9.500000 9.700000 9.900000 
Z_COORDINATES 1 double
0.0
POINT_DATA 2500
SCALARS Skalarfeld double 1
LOOKUP_TABLE default
-0.010352
-0.010408
-0.010546
-0.010732
-0.010936
-0.011134
-0.011309
-0.011449
-0.011546
-0.011595
-0.011593
-0.011537
-0.011429
-0.011267
-0.011052
-0.010786
-0.010470
-0.010105
-0.009694
-0.009239
-0.008744
-0.008211
-0.007647
-0.007054
-0.006441
-0.005813
-0.005180
-0.004548
-0.003929
-0.003330
-0.002762
-0.002235
-0.001758
-0.001338
-0.000985
-0.000703
-0.000496
-0.000367
-0.000316
-0.000339
-0.000430
-0.000583
-0.000785
-0.001023
-0.001280
-0.001538
-0.001773
-0.001962
-0.002080
-0.002110
-0.010296
-0.010352
-0.010468
-0.010619
-0.010784
-0.010944
-0.011085
-0.011196
-0.011271
-0.011303
-0.011289
-0.011228
-0.011118
-0.010959
-0.010753
-0.010498
-0.010197
-0.009851
-0.009462
-0.009033
-0.008566
-0.008065
-0.007534
-0.006978
-0.006404
-0.005817
-0.005224
-0.004635
-0.004057
-0.003500
-0.002971
-0.002480
-0.002035
-0.001644
-0.001313
-0.001047
-0.000849
-0.000722
-0.000664
-0.000672
-0.000742
-0.000865
-0.001032
-0.001230
-0.001443
-0.001657
-0.001852
-0.002009
-0.002111
-0.002141
-0.010157
-0.010237
-0.010354
-0.010492
-0.010636
-0.010773
-0.010891
-0.010982
-0.011038
-0.011057
-0.011034
-0.010968
-0.010858
-0.010703
-0.010502
-0.010258
-0.009971
-0.009642
-0.009273
-0.008866
-0.008423
-0.007950
-0.007448
-0.006923
-0.006381
-0.005827
-0.005268
-0.004713
-0.004169
-0.003643
-0.003145
-0.002682
-0.002263
-0.001893
-0.001579
-0.001325
-0.001135
-0.001009
-0.000948
-0.000947
-0.001002
-0.001106
-0.001249
-0.001420
-0.001607
-0.001795
-0.001968
-0.002113
-0.002214
-0.002257
-0.009967
-0.010086
-0.010220
-0.010360
-0.010497
-0.010622
-0.010726
-0.010803
-0.010848
-0.010857
-0.010827
-0.010758
-0.010647
-0.010495
-0.010301
-0.010067
-0.009792
-0.009477
-0.009125
-0.008738
-0.008317
-0.007866
-0.007389
-0.006890
-0.006374
-0.005847
-0.005315
-0.004786
-0.004267
-0.003766
-0.003291
-0.002849
-0.002448
-0.002094
-0.001792
-0.001548
-0.001363
-0.001240
-0.001177
-0.001171
-0.001218
-0.001311
-0.001441
-0.001598
-0.001770
-0.001947
-0.002114
-0.002260
-0.002374
-0.002445
-0.009755
-0.009918
-0.010079
-0.010232
-0.010373
-0.010494
-0.010592
-0.010661
-0.010698
-0.010701
-0.010667
-0.010596
-0.010486
-0.010337
-0.010150
-0.009924
-0.009660
-0.009359
-0.009022
-0.008651
-0.008249
-0.007817
-0.007360
-0.006882
-0.006386
-0.005879
-0.005368
-0.004858
-0.004358
-0.003874
-0.003414
-0.002987
-0.002598
-0.002254
-0.001961
-0.001723
-0.001543
-0.001421
-0.001358
-0.001351
-0.001395
-0.001483
-0.001609
-0.001762
-0.001932
-0.002109
-0.002282
-0.002441
-0.002577
-0.002683
-0.009543
-0.009754
-0.009947
-0.010119
-0.010269
-0.010394
-0.010491
-0.010557
-0.010591
-0.010591
-0.010555
-0.010484
-0.010376
-0.010231
-0.010049
-0.009831
-0.009577
-0.009288
-0.008964
-0.008608
-0.008220
-0.007805
-0.007364
-0.006901
-0.006421
-0.005929
-0.005431
-0.004935
-0.004446
-0.003973
-0.003522
-0.003102
-0.002720
-0.002381
-0.002092
-0.001858
-0.001680
-0.001560
-0.001499
-0.001492
-0.001537
-0.001628
-0.001756
-0.001913
-0.002089
-0.002276
-0.002464
-0.002644
-0.002809
-0.002955
-0.009352
-0.009610
-0.009836
-0.010031
-0.010195
-0.010329
-0.010429
-0.010497
-0.010530
-0.010530
-0.010494
-0.010424
-0.010319
-0.010178
-0.010003
-0.009792
-0.009547
-0.009268
-0.008956
-0.008611
-0.008236
-0.007833
-0.007404
-0.006953
-0.006484
-0.006001
-0.005512
-0.005022
-0.004538
-0.004069
-0.003622
-0.003204
-0.002822
-0.002483
-0.002194
-0.001959
-0.001782
-0.001663
-0.001603
-0.001600
-0.001649
-0.001746
-0.001882
-0.002050
-0.002241
-0.002446
-0.002655
-0.002862
-0.003061
-0.003247
-0.009195
-0.009497
-0.009758
-0.009978
-0.010159
-0.010304
-0.010411
-0.010483
-0.010519
-0.010521
-0.010487
-0.010420
-0.010318
-0.010183
-0.010013
-0.009810
-0.009573
-0.009303
-0.009000
-0.008666
-0.008301
-0.007907
-0.007487
-0.007043
-0.006580
-0.006102
-0.005615
-0.005126
-0.004642
-0.004171
-0.003720
-0.003297
-0.002911
-0.002567
-0.002273
-0.002034
-0.001854
-0.001735
-0.001676
-0.001677
-0.001734
-0.001840
-0.001990
-0.002174
-0.002385
-0.002614
-0.002851
-0.003091
-0.003326
-0.003553
-0.009083
-0.009429
-0.009723
-0.009969
-0.010169
-0.010327
-0.010444
-0.010522
-0.010563
-0.010568
-0.010539
-0.010475
-0.010378
-0.010248
-0.010085
-0.009889
-0.009660
-0.009398
-0.009103
-0.008777
-0.008419
-0.008032
-0.007617
-0.007177
-0.006716
-0.006238
-0.005748
-0.005255
-0.004765
-0.004285
-0.003825
-0.003392
-0.002994
-0.002640
-0.002336
-0.002089
-0.001903
-0.001781
-0.001723
-0.001728
-0.001792
-0.001911
-0.002078
-0.002284
-0.002520
-0.002778
-0.003049
-0.003325
-0.003599
-0.003868
-0.009028
-0.009414
-0.009742
-0.010013
-0.010233
-0.010405
-0.010533
-0.010619
-0.010666
-0.010677
-0.010653
-0.010594
-0.010503
-0.010379
-0.010222
-0.010033
-0.009812
-0.009557
-0.009270
-0.008950
-0.008598
-0.008215
-0.007803
-0.007363
-0.006900
-0.006418
-0.005921
-0.005417
-0.004915
-0.004421
-0.003945
-0.003495
-0.003080
-0.002710
-0.002391
-0.002130
-0.001934
-0.001806
-0.001746
-0.001754
-0.001828
-0.001962
-0.002148
-0.002379
-0.002646
-0.002938
-0.003246
-0.003562
-0.003879
-0.004191
-0.009036
-0.009462
-0.009822
-0.010119
-0.010358
-0.010546
-0.010685
-0.010781
-0.010836
-0.010853
-0.010835
-0.010783
-0.010698
-0.010581
-0.010432
-0.010250
-0.010036
-0.009788
-0.009507
-0.009193
-0.008845
-0.008464
-0.008052
-0.007610
-0.007142
-0.006651
-0.006142
-0.005624
-0.005104
-0.004590
-0.004092
-0.003618
-0.003179
-0.002785
-0.002444
-0.002165
-0.001954
-0.001815
-0.001750
-0.001761
-0.001843
-0.001992
-0.002200
-0.002460
-0.002760
-0.003091
-0.003442
-0.003803
-0.004165
-0.004522
-0.009117
-0.009581
-0.009971
-0.010293
-0.010552
-0.010756
-0.010908
-0.011014
-0.011078
-0.011103
-0.011092
-0.011048
-0.010970
-0.010861
-0.010719
-0.010545
-0.010338
-0.010098
-0.009823
-0.009514
-0.009169
-0.008789
-0.008376
-0.007929
-0.007453
-0.006950
-0.006425
-0.005887
-0.005344
-0.004803
-0.004276
-0.003772
-0.003302
-0.002877
-0.002507
-0.002202
-0.001969
-0.001814
-0.001741
-0.001750
-0.001839
-0.002003
-0.002235
-0.002525
-0.002863
-0.003237
-0.003635
-0.004046
-0.004459
-0.004865
-0.009277
-0.009777
-0.010197
-0.010544
-0.010823
-0.011042
-0.011207
-0.011324
-0.011398
-0.011432
-0.011430
-0.011394
-0.011325
-0.011224
-0.011091
-0.010926
-0.010728
-0.010495
-0.010227
-0.009922
-0.009580
-0.009201
-0.008784
-0.008332
-0.007845
-0.007328
-0.006783
-0.006221
-0.005649
-0.005077
-0.004514
-0.003972
-0.003462
-0.002998
-0.002590
-0.002251
-0.001988
-0.001811
-0.001722
-0.001725
-0.001818
-0.001996
-0.002252
-0.002576
-0.002955
-0.003376
-0.003826
-0.004292
-0.004760
-0.005221
-0.009523
-0.010058
-0.010508
-0.010878
-0.011177
-0.011412
-0.011590
-0.011719
-0.011803
-0.011848
-0.011855
-0.011829
-0.011770
-0.011679
-0.011557
-0.011401
-0.011212
-0.010988
-0.010727
-0.010428
-0.010090
-0.009711
-0.009292
-0.008832
-0.008334
-0.007801
-0.007234
-0.006643
-0.006038
-0.005427
-0.004821
-0.004233
-0.003676
-0.003163
-0.002708
-0.002324
-0.002022
-0.001813
-0.001702
-0.001692
-0.001784
-0.001974
-0.002253
-0.002610
-0.003033
-0.003507
-0.004015
-0.004542
-0.005073
-0.005594
-0.009861
-0.010431
-0.010909
-0.011302
-0.011620
-0.011872
-0.012064
-0.012205
-0.012301
-0.012356
-0.012375
-0.012360
-0.012313
-0.012234
-0.012123
-0.011979
-0.011802
-0.011588
-0.011336
-0.011045
-0.010711
-0.010334
-0.009913
-0.009447
-0.008937
-0.008386
-0.007796
-0.007174
-0.006531
-0.005876
-0.005221
-0.004578
-0.003963
-0.003391
-0.002877
-0.002437
-0.002084
-0.001831
-0.001687
-0.001657
-0.001742
-0.001938
-0.002237
-0.002630
-0.003099
-0.003628
-0.004200
-0.004795
-0.005397
-0.005988
-0.010299
-0.010902
-0.011407
-0.011824
-0.012161
-0.012429
-0.012635
-0.012789
-0.012898
-0.012965
-0.012997
-0.012995
-0.012961
-0.012896
-0.012799
-0.012670
-0.012506
-0.012306
-0.012066
-0.011784
-0.011458
-0.011086
-0.010664
-0.010194
-0.009673
-0.009105
-0.008491
-0.007836
-0.007151
-0.006447
-0.005736
-0.005030
-0.004347
-0.003704
-0.003118
-0.002608
-0.002190
-0.001881
-0.001690
-0.001627
-0.001695
-0.001891
-0.002207
-0.002633
-0.003150
-0.003740
-0.004381
-0.005053
-0.005734
-0.006406
-0.010842
-0.011477
-0.012010
-0.012449
-0.012805
-0.013089
-0.013310
-0.013478
-0.013600
-0.013682
-0.013728
-0.013740
-0.013722
-0.013674
-0.013594
-0.013482
-0.013336
-0.013152
-0.012929
-0.012661
-0.012347
-0.011982
-0.011565
-0.011092
-0.010565
-0.009981
-0.009345
-0.008655
-0.007927
-0.007170
-0.006396
-0.005619
-0.004857
-0.004130
-0.003457
-0.002861
-0.002361
-0.001977
-0.001725
-0.001614
-0.001652
-0.001838
-0.002164
-0.002620
-0.003185
-0.003839
-0.004557
-0.005314
-0.006085
-0.006849
-0.011496
-0.012163
-0.012722
-0.013184
-0.013559
-0.013859
-0.014096
-0.014279
-0.014416
-0.014513
-0.014575
-0.014605
-0.014606
-0.014577
-0.014518
-0.014427
-0.014303
-0.014141
-0.013938
-0.013690
-0.013392
-0.013041
-0.012633
-0.012165
-0.011634
-0.011040
-0.010383
-0.009661
-0.008889
-0.008076
-0.007234
-0.006378
-0.005527
-0.004701
-0.003926
-0.003225
-0.002623
-0.002144
-0.001808
-0.001631
-0.001622
-0.001784
-0.002111
-0.002590
-0.003203
-0.003923
-0.004724
-0.005575
-0.006449
-0.007319
-0.012268
-0.012966
-0.013551
-0.014034
-0.014428
-0.014746
-0.014999
-0.015197
-0.015350
-0.015464
-0.015545
-0.015596
-0.015618
-0.015613
-0.015579
-0.015515
-0.015417
-0.015282
-0.015107
-0.014885
-0.014611
-0.014281
-0.013890
-0.013433
-0.012906
-0.012307
-0.011636
-0.010886
-0.010072
-0.009202
-0.008288
-0.007345
-0.006394
-0.005456
-0.004560
-0.003733
-0.003006
-0.002408
-0.001964
-0.001696
-0.001618
-0.001737
-0.002051
-0.002545
-0.003201
-0.003990
-0.004879
-0.005834
-0.006823
-0.007816
-0.013163
-0.013891
-0.014501
-0.015006
-0.015419
-0.015754
-0.016024
-0.016240
-0.016410
-0.016544
-0.016646
-0.016720
-0.016768
-0.016790
-0.016786
-0.016753
-0.016689
-0.016589
-0.016448
-0.016260
-0.016020
-0.015721
-0.015356
-0.014919
-0.014406
-0.013811
-0.013132
-0.012365
-0.011512
-0.010587
-0.009599
-0.008564
-0.007502
-0.006438
-0.005402
-0.004427
-0.003548
-0.002801
-0.002219
-0.001830
-0.001656
-0.001709
-0.001989
-0.002486
-0.003177
-0.004033
-0.005016
-0.006086
-0.007204
-0.008335
-0.014187
-0.014944
-0.015579
-0.016106
-0.016538
-0.016891
-0.017178
-0.017412
-0.017602
-0.017757
-0.017883
-0.017983
-0.018061
-0.018115
-0.018146
-0.018152
-0.018128
-0.018070
-0.017973
-0.017830
-0.017633
-0.017376
-0.017049
-0.016646
-0.016158
-0.015579
-0.014904
-0.014129
-0.013246
-0.012270
-0.011210
-0.010079
-0.008899
-0.007695
-0.006500
-0.005352
-0.004292
-0.003363
-0.002607
-0.002062
-0.001757
-0.001712
-0.001933
-0.002412
-0.003128
-0.004047
-0.005127
-0.006321
-0.007583
-0.008873
-0.015344
-0.016130
-0.016790
-0.017338
-0.017790
-0.018161
-0.018466
-0.018719
-0.018931
-0.019109
-0.019262
-0.019392
-0.019503
-0.019595
-0.019667
-0.019717
-0.019742
-0.019735
-0.019692
-0.019604
-0.019463
-0.019261
-0.018987
-0.018632
-0.018185
-0.017637
-0.016981
-0.016210
-0.015309
-0.014292
-0.013165
-0.011939
-0.010635
-0.009279
-0.007906
-0.006560
-0.005287
-0.004139
-0.003169
-0.002424
-0.001946
-0.001764
-0.001893
-0.002328
-0.003051
-0.004025
-0.005202
-0.006529
-0.007951
-0.009420
-0.016640
-0.017454
-0.018139
-0.018708
-0.019179
-0.019569
-0.019893
-0.020167
-0.020401
-0.020605
-0.020786
-0.020949
-0.021098
-0.021232
-0.021351
-0.021453
-0.021535
-0.021589
-0.021611
-0.021591
-0.021520
-0.021388
-0.021183
-0.020892
-0.020504
-0.020006
-0.019386
-0.018636
-0.017735
-0.016691
-0.015506
-0.014189
-0.012759
-0.011242
-0.009676
-0.008105
-0.006586
-0.005179
-0.003948
-0.002954
-0.002253
-0.001886
-0.001878
-0.002236
-0.002941
-0.003956
-0.005228
-0.006695
-0.008292
-0.009962
-0.018079
-0.018921
-0.019630
-0.020221
-0.020711
-0.021120
-0.021464
-0.021758
-0.022016
-0.022247
-0.022459
-0.022658
-0.022848
-0.023029
-0.023201
-0.023362
-0.023508
-0.023634
-0.023732
-0.023793
-0.023807
-0.023762
-0.023644
-0.023438
-0.023129
-0.022702
-0.022139
-0.021429
-0.020553
-0.019499
-0.018270
-0.016872
-0.015319
-0.013636
-0.011861
-0.010044
-0.008246
-0.006537
-0.004994
-0.003695
-0.002711
-0.002101
-0.001905
-0.002139
-0.002793
-0.003829
-0.005188
-0.006799
-0.008585
-0.010480
-0.019666
-0.020536
-0.021268
-0.021880
-0.022391
-0.022818
-0.023181
-0.023497
-0.023778
-0.024037
-0.024281
-0.024519
-0.024752
-0.024984
-0.025215
-0.025441
-0.025661
-0.025867
-0.026053
-0.026209
-0.026323
-0.026382
-0.026370
-0.026271
-0.026064
-0.025731
-0.025251
-0.024606
-0.023778
-0.022738
-0.021486
-0.020022
-0.018354
-0.016506
-0.014513
-0.012428
-0.010319
-0.008265
-0.006358
-0.004691
-0.003357
-0.002436
-0.001987
-0.002042
-0.002600
-0.003627
-0.005059
-0.006815
-0.008805
-0.010948
-0.021403
-0.022301
-0.023059
-0.023693
-0.024222
-0.024668
-0.025050
-0.025385
-0.025690
-0.025975
-0.026253
-0.026528
-0.026808
-0.027094
-0.027386
-0.027684
-0.027984
-0.028280
-0.028565
-0.028828
-0.029058
-0.029239
-0.029354
-0.029382
-0.029303
-0.029090
-0.028720
-0.028169
-0.027414
-0.026416
-0.025168
-0.023659
-0.021892
-0.019885
-0.017671
-0.015304
-0.012855
-0.010415
-0.008088
-0.005988
-0.004229
-0.002919
-0.002140
-0.001946
-0.002352
-0.003330
-0.004813
-0.006709
-0.008913
-0.011330
-0.023295
-0.024223
-0.025006
-0.025662
-0.026210
-0.026673
-0.027071
-0.027425
-0.027750
-0.028061
-0.028369
-0.028683
-0.029008
-0.029348
-0.029705
-0.030078
-0.030464
-0.030857
-0.031251
-0.031634
-0.031994
-0.032314
-0.032575
-0.032755
-0.032826
-0.032761
-0.032530
-0.032102
-0.031446
-0.030526
-0.029312
-0.027786
-0.025941
-0.023789
-0.021359
-0.018701
-0.015891
-0.013026
-0.010226
-0.007624
-0.005362
-0.003574
-0.002377
-0.001852
-0.002035
-0.002911
-0.004413
-0.006438
-0.008866
-0.011581
-0.025346
-0.026305
-0.027116
-0.027793
-0.028359
-0.028837
-0.029249
-0.029617
-0.029959
-0.030291
-0.030625
-0.030973
-0.031342
-0.031735
-0.032157
-0.032606
-0.033082
-0.033578
-0.034088
-0.034601
-0.035104
-0.035579
-0.036004
-0.036355
-0.036602
-0.036711
-0.036648
-0.036373
-0.035850
-0.035040
-0.033895
-0.032383
-0.030490
-0.028215
-0.025579
-0.022631
-0.019445
-0.016124
-0.012801
-0.009631
-0.006781
-0.004423
-0.002708
-0.001754
-0.001629
-0.002335
-0.003812
-0.005948
-0.008602
-0.011640
-0.027559
-0.028554
-0.029393
-0.030093
-0.030675
-0.031165
-0.031585
-0.031961
-0.032313
-0.032658
-0.033013
-0.033389
-0.033795
-0.034237
-0.034720
-0.035245
-0.035810
-0.036412
-0.037043
-0.037694
-0.038349
-0.038991
-0.039597
-0.040138
-0.040582
-0.040892
-0.041024
-0.040934
-0.040576
-0.039905
-0.038866
-0.037406
-0.035497
-0.033126
-0.030307
-0.027078
-0.023510
-0.019711
-0.015823
-0.012021
-0.008502
-0.005473
-0.003131
-0.001640
-0.001105
-0.001558
-0.002952
-0.005169
-0.008047
-0.011429
-0.029939
-0.030975
-0.031847
-0.032570
-0.033165
-0.033661
-0.034082
-0.034457
-0.034807
-0.035156
-0.035520
-0.035913
-0.036347
-0.036831
-0.037369
-0.037964
-0.038616
-0.039323
-0.040077
-0.040868
-0.041683
-0.042501
-0.043299
-0.044046
-0.044706
-0.045236
-0.045588
-0.045711
-0.045548
-0.045046
-0.044150
-0.042779
-0.040890
-0.038459
-0.035483
-0.031991
-0.028047
-0.023758
-0.019273
-0.014784
-0.010516
-0.006717
-0.003633
-0.001481
-0.000419
-0.000520
-0.001757
-0.004012
-0.007106
-0.010852
-0.032493
-0.033579
-0.034488
-0.035233
-0.035838
-0.036331
-0.036743
-0.037102
-0.037438
-0.037774
-0.038131
-0.038528
-0.038977
-0.039488
-0.040071
-0.040727
-0.041460
-0.042266
-0.043139
-0.044071
-0.045047
-0.046047
-0.047044
-0.048006
-0.048895
-0.049662
-0.050255
-0.050613
-0.050673
-0.050365
-0.049642
-0.048397
-0.046567
-0.044111
-0.041011
-0.037283
-0.032979
-0.028200
-0.023097
-0.017876
-0.012788
-0.008122
-0.004177
-0.001233
0.000487
0.000858
-0.000131
-0.002368
-0.005659
-0.009785
-0.035231
-0.036377
-0.037329
-0.038096
-0.038705
-0.039184
-0.039570
-0.039896
-0.040196
-0.040499
-0.040829
-0.041209
-0.041653
-0.042177
-0.042788
-0.043492
-0.044293
-0.045190
-0.046176
-0.047244
-0.048378
-0.049557
-0.050756
-0.051939
-0.053063
-0.054078
-0.054924
-0.055535
-0.055837
-0.055754
-0.055210
-0.054128
-0.052393
-0.049948
-0.046761
-0.042827
-0.038186
-0.032928
-0.027200
-0.021215
-0.015248
-0.009624
-0.004700
-0.000827
0.001698
0.002676
0.002046
-0.000101
-0.003558
-0.008076
-0.038165
-0.039388
-0.040389
-0.041179
-0.041781
-0.042231
-0.042569
-0.042837
-0.043074
-0.043316
-0.043592
-0.043928
-0.044345
-0.044857
-0.045477
-0.046212
-0.047066
-0.048039
-0.049126
-0.050319
-0.051604
-0.052958
-0.054354
-0.055754
-0.057115
-0.058380
-0.059484
-0.060355
-0.060911
-0.061064
-0.060725
-0.059823
-0.058208
-0.055806
-0.052563
-0.048457
-0.043508
-0.037789
-0.031440
-0.024674
-0.017780
-0.011119
-0.005103
-0.000159
0.003326
0.005065
0.004925
0.002959
-0.000622
-0.005536
-0.041315
-0.042636
-0.043698
-0.044506
-0.045088
-0.045485
-0.045747
-0.045923
-0.046062
-0.046206
-0.046394
-0.046654
-0.047012
-0.047486
-0.048090
-0.048833
-0.049720
-0.050752
-0.051925
-0.053230
-0.054652
-0.056169
-0.057752
-0.059362
-0.060951
-0.062460
-0.063819
-0.064949
-0.065759
-0.066150
-0.066021
-0.065310
-0.063832
-0.061495
-0.058224
-0.053975
-0.048746
-0.042591
-0.035633
-0.028078
-0.020224
-0.012458
-0.005245
0.000911
0.005521
0.008190
0.008693
0.007021
0.003375
-0.001935
-0.044711
-0.046159
-0.047291
-0.048112
-0.048654
-0.048967
-0.049111
-0.049151
-0.049145
-0.049148
-0.049204
-0.049349
-0.049613
-0.050016
-0.050575
-0.051300
-0.052197
-0.053267
-0.054507
-0.055906
-0.057449
-0.059113
-0.060868
-0.062672
-0.064475
-0.066214
-0.067815
-0.069191
-0.070245
-0.070868
-0.070944
-0.070411
-0.069075
-0.066812
-0.063528
-0.059155
-0.053670
-0.047100
-0.039548
-0.031206
-0.022369
-0.013442
-0.004935
0.002570
0.008477
0.012264
0.013583
0.012341
0.008706
0.003010
-0.048395
-0.050007
-0.051224
-0.052048
-0.052518
-0.052701
-0.052674
-0.052518
-0.052310
-0.052115
-0.051988
-0.051972
-0.052099
-0.052395
-0.052877
-0.053556
-0.054437
-0.055522
-0.056806
-0.058279
-0.059924
-0.061716
-0.063622
-0.065600
-0.067596
-0.069543
-0.071363
-0.072964
-0.074241
-0.075079
-0.075355
-0.074947
-0.073748
-0.071554
-0.068256
-0.063765
-0.058033
-0.051062
-0.042928
-0.033800
-0.023962
-0.013825
-0.003934
0.005056
0.012438
0.017546
0.019883
0.019234
0.015706
0.009643
-0.052432
-0.054256
-0.055572
-0.056379
-0.056732
-0.056720
-0.056448
-0.056021
-0.055537
-0.055076
-0.054704
-0.054473
-0.054418
-0.054567
-0.054937
-0.055540
-0.056380
-0.057456
-0.058763
-0.060288
-0.062013
-0.063910
-0.065946
-0.068073
-0.070235
-0.072362
-0.074371
-0.076164
-0.077631
-0.078649
-0.079083
-0.078793
-0.077688
-0.075534
-0.072200
-0.067575
-0.061587
-0.054212
-0.045495
-0.035576
-0.024715
-0.013320
-0.001957
0.008658
0.017704
0.024358
0.027944
0.028083
0.024787
0.018385
-0.056915
-0.059018
-0.060444
-0.061199
-0.061364
-0.061066
-0.060449
-0.059652
-0.058799
-0.057991
-0.057305
-0.056798
-0.056511
-0.056472
-0.056697
-0.057194
-0.057967
-0.059012
-0.060320
-0.061877
-0.063661
-0.065642
-0.067780
-0.070029
-0.072328
-0.074602
-0.076764
-0.078710
-0.080325
-0.081477
-0.082023
-0.081810
-0.080749
-0.078587
-0.075176
-0.070379
-0.064103
-0.056299
-0.046979
-0.036243
-0.024325
-0.011612
0.001322
0.013713
0.024631
0.033088
0.038192
0.039360
0.036452
0.029749
-0.061986
-0.064451
-0.065993
-0.066634
-0.066504
-0.065789
-0.064691
-0.063396
-0.062062
-0.060809
-0.059729
-0.058884
-0.058315
-0.058047
-0.058094
-0.058461
-0.059145
-0.060140
-0.061431
-0.063000
-0.064825
-0.066867
-0.069084
-0.071424
-0.073828
-0.076214
-0.078488
-0.080542
-0.082255
-0.083489
-0.084092
-0.083900
-0.082819
-0.080590
-0.077045
-0.072012
-0.065389
-0.057108
-0.047141
-0.035534
-0.022500
-0.008386
0.006243
0.020590
0.033629
0.044192
0.051147
0.053644
0.051328
0.044377
-0.067861
-0.070797
-0.072439
-0.072855
-0.072263
-0.070944
-0.069183
-0.067226
-0.065272
-0.063466
-0.061906
-0.060657
-0.059757
-0.059225
-0.059069
-0.059285
-0.059864
-0.060796
-0.062057
-0.063621
-0.065475
-0.067558
-0.069839
-0.072259
-0.074742
-0.077205
-0.079552
-0.081668
-0.083424
-0.084674
-0.085260
-0.085007
-0.083804
-0.081398
-0.077616
-0.072311
-0.065308
-0.056486
-0.045815
-0.033233
-0.018997
-0.003357
0.013131
0.029665
0.045137
0.058196
0.067429
0.071651
0.070205
0.063077
-0.074877
-0.078416
-0.080098
-0.080097
-0.078782
-0.076588
-0.073915
-0.071090
-0.068353
-0.065869
-0.063741
-0.062027
-0.060755
-0.059934
-0.059556
-0.059613
-0.060077
-0.060947
-0.062170
-0.063740
-0.065608
-0.067730
-0.070057
-0.072526
-0.075060
-0.077571
-0.079954
-0.082089
-0.083840
-0.085054
-0.085565
-0.085190
-0.083778
-0.081113
-0.076989
-0.071230
-0.063667
-0.054174
-0.042691
-0.029186
-0.013679
0.003680
0.022239
0.041274
0.059597
0.075677
0.087775
0.094278
0.094102
0.086908
-0.083569
-0.087863
-0.089428
-0.088664
-0.086217
-0.082756
-0.078841
-0.074890
-0.071184
-0.067894
-0.065114
-0.062886
-0.061214
-0.060093
-0.059489
-0.059400
-0.059761
-0.060567
-0.061768
-0.063332
-0.065215
-0.067365
-0.069727
-0.072230
-0.074795
-0.077325
-0.079711
-0.081826
-0.083528
-0.084657
-0.085036
-0.084479
-0.082788
-0.079784
-0.075233
-0.068941
-0.060722
-0.050421
-0.037925
-0.023170
-0.006181
0.012836
0.033670
0.055639
0.077380
0.097217
0.113034
0.122655
0.124376
0.117311
-0.094821
-0.100004
-0.101084
-0.098942
-0.094716
-0.089426
-0.083837
-0.078454
-0.073577
-0.069363
-0.065865
-0.063099
-0.061020
-0.059622
-0.058818
-0.058588
-0.058873
-0.059634
-0.060823
-0.062394
-0.064298
-0.066477
-0.068867
-0.071395
-0.073973
-0.076500
-0.078862
-0.080925
-0.082539
-0.083539
-0.083739
-0.082941
-0.080933
-0.077523
-0.072480
-0.065588
-0.056635
-0.045432
-0.031819
-0.015679
0.003029
0.024222
0.047641
0.072778
0.098670
0.123306
0.144133
0.158211
0.162890
0.156354
-0.110160
-0.116226
-0.115988
-0.111366
-0.104343
-0.096440
-0.088633
-0.081484
-0.075245
-0.070023
-0.065777
-0.062503
-0.060062
-0.058410
-0.057455
-0.057132
-0.057375
-0.058127
-0.059331
-0.060932
-0.062872
-0.065087
-0.067509
-0.070056
-0.072638
-0.075148
-0.077465
-0.079452
-0.080952
-0.081793
-0.081782
-0.080710
-0.078353
-0.074503
-0.068936
-0.061412
-0.051690
-0.039542
-0.024753
-0.007137
0.013446
0.037047
0.063567
0.092632
0.123329
0.154141
0.181948
0.202718
0.212292
0.207200
-0.132359
-0.138765
-0.135365
-0.126290
-0.114908
-0.103348
-0.092703
-0.083483
-0.075747
-0.069540
-0.064611
-0.060876
-0.058164
-0.056350
-0.055319
-0.054977
-0.055240
-0.056036
-0.057297
-0.058960
-0.060961
-0.063230
-0.065692
-0.068264
-0.070849
-0.073336
-0.075602
-0.077503
-0.078878
-0.079549
-0.079318
-0.077967
-0.075255
-0.070972
-0.064896
-0.056761
-0.046298
-0.033232
-0.017290
0.001800
0.024299
0.050433
0.080342
0.113958
0.150763
0.189368
0.226973
0.258212
0.276416
0.274979
-0.166785
-0.171206
-0.160579
-0.143606
-0.125594
-0.109157
-0.095085
-0.083694
-0.074536
-0.067423
-0.061992
-0.057980
-0.055152
-0.053323
-0.052340
-0.052083
-0.052452
-0.053361
-0.054735
-0.056505
-0.058600
-0.060949
-0.063473
-0.066083
-0.068682
-0.071156
-0.073377
-0.075201
-0.076462
-0.076979
-0.076550
-0.074955
-0.071907
-0.067260
-0.060751
-0.052094
-0.040994
-0.027134
-0.010175
0.010247
0.034533
0.063122
0.096474
0.134999
0.178859
0.227482
0.278562
0.326490
0.360730
0.368422
-0.224482
-0.218917
-0.192278
-0.161787
-0.134246
-0.111984
-0.094387
-0.080940
-0.070742
-0.063129
-0.057542
-0.053563
-0.050874
-0.049237
-0.048469
-0.048430
-0.049010
-0.050118
-0.051673
-0.053604
-0.055838
-0.058302
-0.060917
-0.063594
-0.066232
-0.068719
-0.070925
-0.072704
-0.073891
-0.074301
-0.073729
-0.071952
-0.068684
-0.063788
-0.056981
-0.047967
-0.036424
-0.021998
-0.004295
0.017142
0.042855
0.073512
0.109948
0.153192
0.204426
0.264669
0.333724
0.407382
0.472294
0.502910
-0.329433
-0.287934
-0.227424
-0.175878
-0.136730
-0.108494
-0.088266
-0.073814
-0.063477
-0.056118
-0.050957
-0.047457
-0.045247
-0.044059
-0.043704
-0.044036
-0.044947
-0.046346
-0.048157
-0.050309
-0.052733
-0.055358
-0.058106
-0.060891
-0.063613
-0.066160
-0.068405
-0.070202
-0.071388
-0.071777
-0.071165
-0.069322
-0.066000
-0.061030
-0.054130
-0.044995
-0.033288
-0.018632
-0.000591
0.021361
0.047881
0.079835
0.118412
0.165298
0.222912
0.294628
0.384530
0.494982
0.616949
0.706367
-0.533482
-0.375419
-0.252298
-0.173687
-0.124908
-0.094191
-0.074287
-0.061070
-0.052157
-0.046142
-0.042164
-0.039677
-0.038323
-0.037861
-0.038118
-0.038973
-0.040328
-0.042109
-0.044248
-0.046684
-0.049354
-0.052194
-0.055129
-0.058079
-0.060948
-0.063628
-0.065995
-0.067906
-0.069202
-0.069699
-0.069197
-0.067455
-0.064291
-0.059476
-0.052739
-0.043777
-0.032254
-0.017784
0.000085
0.021903
0.048380
0.080485
0.119616
0.167922
0.228890
0.308425
0.416666
0.569949
0.785738
1.031353
-0.934548
-0.424658
-0.222499
-0.133845
-0.089846
-0.065705
-0.051442
-0.042604
-0.037012
-0.033517
-0.031472
-0.030490
-0.030327
-0.030820
-0.031857
-0.033355
-0.035249
-0.037487
-0.040018
-0.042796
-0.045770
-0.048883
-0.052071
-0.055258
-0.058358
-0.061267
-0.063866
-0.066018
-0.067569
-0.068339
-0.068128
-0.066730
-0.063942
-0.059534
-0.053246
-0.044785
-0.033824
-0.019991
-0.002853
0.018115
0.043581
0.074453
0.112053
0.158470
0.217332
0.295642
0.408354
0.589497
0.915431
1.548483
