# vtk DataFile Version 3.0
Vector Field
ASCII
DATASET RECTILINEAR_GRID
DIMENSIONS 50 50 1
X_COORDINATES 50 double
0.100000 0.300000 0.500000 0.700000 0.900000 1.100000 1.300000 1.500000 1.700000 1.900000 2.100000 2.300000 2.500000 2.700000 2.900000 3.100000 3.300000 3.500000 3.700000 3.900000 4.100000 4.300000 4.500000 4.700000 4.900000 5.100000 5.300000 5.500000 5.700000 5.900000 6.100000 6.300000 6.500000 6.700000 6.900000 7.100000 7.300000 7.500000 7.700000 7.900000 8.100000 8.300000 8.500000 8.700000 8.900000 9.100000 9.300000 9.500000 9.700000 9.900000 
Y_COORDINATES 50 double
0.100000 0.300000 0.500000 0.700000 0.900000 1.100000 1.300000 1.500000 1.700000 1.900000 2.100000 2.300000 2.500000 2.700000 2.900000 3.100000 3.300000 3.500000 3.700000 3.900000 4.100000 4.300000 4.500000 4.700000 4.900000 5.100000 5.300000 5.500000 5.700000 5.900000 6.100000 6.300000 6.500000 6.700000 6.900000 7.100000 7.300000 7.500000 7.700000 7.900000 8.100000 8.300000 8.500000 8.700000 8.900000 9.100000 9.300000 9.500000 9.700000 9.900000 
Z_COORDINATES 1 double
0.0
POINT_DATA 2500
VECTORS Vektorfeld double
-0.000196 0.000196 0.0
-0.000880 0.000489 0.0
-0.001992 0.000623 0.0
-0.003285 0.000670 0.0
-0.004637 0.000682 0.0
-0.006003 0.000684 0.0
-0.007372 0.000685 0.0
-0.008742 0.000685 0.0
-0.010113 0.000686 0.0
-0.011485 0.000686 0.0
-0.012858 0.000687 0.0
-0.014231 0.000686 0.0
-0.015601 0.000685 0.0
-0.016968 0.000682 0.0
-0.018329 0.000678 0.0
-0.019681 0.000673 0.0
-0.021018 0.000665 0.0
-0.022339 0.000655 0.0
-0.023635 0.000642 0.0
-0.024902 0.000625 0.0
-0.026132 0.000605 0.0
-0.027317 0.000580 0.0
-0.028448 0.000550 0.0
-0.029513 0.000515 0.0
-0.030502 0.000474 0.0
-0.031401 0.000426 0.0
-0.032198 0.000371 0.0
-0.032877 0.000309 0.0
-0.033424 0.000239 0.0
-0.033824 0.000161 0.0
-0.034060 0.000075 0.0
-0.034118 -0.000017 0.0
-0.033981 -0.000119 0.0
-0.033635 -0.000228 0.0
-0.033064 -0.000343 0.0
-0.032256 -0.000464 0.0
-0.031203 -0.000589 0.0
-0.029899 -0.000716 0.0
-0.028341 -0.000842 0.0
-0.026532 -0.000967 0.0
-0.024477 -0.001087 0.0
-0.022189 -0.001201 0.0
-0.019683 -0.001305 0.0
-0.016979 -0.001398 0.0
-0.014105 -0.001476 0.0
-0.011097 -0.001531 0.0
-0.008021 -0.001546 0.0
-0.005002 -0.001473 0.0
-0.002321 -0.001208 0.0
-0.000556 -0.000556 0.0
-0.000504 0.000896 0.0
-0.002001 0.001969 0.0
-0.004211 0.002464 0.0
-0.006739 0.002649 0.0
-0.009388 0.002703 0.0
-0.012073 0.002714 0.0
-0.014764 0.002714 0.0
-0.017450 0.002712 0.0
-0.020129 0.002709 0.0
-0.022797 0.002704 0.0
-0.025451 0.002696 0.0
-0.028089 0.002686 0.0
-0.030705 0.002672 0.0
-0.033294 0.002652 0.0
-0.035852 0.002627 0.0
-0.038369 0.002594 0.0
-0.040840 0.002553 0.0
-0.043253 0.002501 0.0
-0.045600 0.002439 0.0
-0.047867 0.002363 0.0
-0.050041 0.002272 0.0
-0.052108 0.002165 0.0
-0.054051 0.002039 0.0
-0.055852 0.001892 0.0
-0.057490 0.001724 0.0
-0.058946 0.001531 0.0
-0.060196 0.001313 0.0
-0.061217 0.001067 0.0
-0.061985 0.000795 0.0
-0.062474 0.000494 0.0
-0.062661 0.000165 0.0
-0.062519 -0.000191 0.0
-0.062024 -0.000576 0.0
-0.061156 -0.000985 0.0
-0.059896 -0.001417 0.0
-0.058228 -0.001865 0.0
-0.056143 -0.002326 0.0
-0.053635 -0.002792 0.0
-0.050703 -0.003256 0.0
-0.047355 -0.003711 0.0
-0.043605 -0.004149 0.0
-0.039472 -0.004561 0.0
-0.034985 -0.004939 0.0
-0.030179 -0.005274 0.0
-0.025103 -0.005551 0.0
-0.019822 -0.005744 0.0
-0.014447 -0.005784 0.0
-0.009189 -0.005511 0.0
-0.004470 -0.004570 0.0
-0.001158 -0.002270 0.0
-0.000660 0.002060 0.0
-0.002567 0.004209 0.0
-0.005317 0.005186 0.0
-0.008425 0.005563 0.0
-0.011669 0.005681 0.0
-0.014954 0.005706 0.0
-0.018243 0.005703 0.0
-0.021523 0.005690 0.0
-0.024788 0.005673 0.0
-0.028032 0.005651 0.0
-0.031251 0.005622 0.0
-0.034439 0.005586 0.0
-0.037591 0.005540 0.0
-0.040700 0.005482 0.0
-0.043758 0.005412 0.0
-0.046757 0.005325 0.0
-0.049685 0.005220 0.0
-0.052533 0.005095 0.0
-0.055287 0.004946 0.0
-0.057934 0.004770 0.0
-0.060458 0.004563 0.0
-0.062841 0.004323 0.0
-0.065065 0.004047 0.0
-0.067108 0.003729 0.0
-0.068950 0.003367 0.0
-0.070565 0.002958 0.0
-0.071929 0.002499 0.0
-0.073016 0.001988 0.0
-0.073797 0.001423 0.0
-0.074246 0.000804 0.0
-0.074335 0.000130 0.0
-0.074035 -0.000597 0.0
-0.073324 -0.001375 0.0
-0.072179 -0.002199 0.0
-0.070582 -0.003061 0.0
-0.068516 -0.003954 0.0
-0.065972 -0.004866 0.0
-0.062946 -0.005786 0.0
-0.059438 -0.006700 0.0
-0.055459 -0.007594 0.0
-0.051024 -0.008451 0.0
-0.046159 -0.009256 0.0
-0.040896 -0.009994 0.0
-0.035277 -0.010644 0.0
-0.029357 -0.011179 0.0
-0.023210 -0.011543 0.0
-0.016963 -0.011607 0.0
-0.010842 -0.011068 0.0
-0.005313 -0.009262 0.0
-0.001388 -0.004816 0.0
-0.000723 0.003443 0.0
-0.002808 0.006818 0.0
-0.005801 0.008321 0.0
-0.009166 0.008902 0.0
-0.012666 0.009086 0.0
-0.016204 0.009125 0.0
-0.019746 0.009115 0.0
-0.023275 0.009088 0.0
-0.026784 0.009050 0.0
-0.030268 0.009002 0.0
-0.033721 0.008943 0.0
-0.037137 0.008870 0.0
-0.040509 0.008780 0.0
-0.043831 0.008672 0.0
-0.047093 0.008542 0.0
-0.050286 0.008386 0.0
-0.053400 0.008202 0.0
-0.056423 0.007984 0.0
-0.059342 0.007729 0.0
-0.062142 0.007433 0.0
-0.064807 0.007089 0.0
-0.067319 0.006693 0.0
-0.069658 0.006240 0.0
-0.071802 0.005724 0.0
-0.073730 0.005141 0.0
-0.075416 0.004486 0.0
-0.076834 0.003754 0.0
-0.077956 0.002942 0.0
-0.078755 0.002049 0.0
-0.079200 0.001073 0.0
-0.079265 0.000014 0.0
-0.078920 -0.001125 0.0
-0.078140 -0.002338 0.0
-0.076902 -0.003619 0.0
-0.075185 -0.004956 0.0
-0.072973 -0.006337 0.0
-0.070255 -0.007745 0.0
-0.067026 -0.009163 0.0
-0.063287 -0.010570 0.0
-0.059048 -0.011943 0.0
-0.054325 -0.013258 0.0
-0.049146 -0.014493 0.0
-0.043545 -0.015621 0.0
-0.037566 -0.016614 0.0
-0.031267 -0.017428 0.0
-0.024730 -0.017978 0.0
-0.018081 -0.018069 0.0
-0.011559 -0.017249 0.0
-0.005658 -0.014511 0.0
-0.001473 -0.007677 0.0
-0.000743 0.004909 0.0
-0.002895 0.009588 0.0
-0.005987 0.011636 0.0
-0.009458 0.012422 0.0
-0.013064 0.012671 0.0
-0.016706 0.012721 0.0
-0.020348 0.012703 0.0
-0.023978 0.012658 0.0
-0.027586 0.012597 0.0
-0.031168 0.012521 0.0
-0.034718 0.012427 0.0
-0.038229 0.012313 0.0
-0.041695 0.012176 0.0
-0.045110 0.012012 0.0
-0.048463 0.011817 0.0
-0.051746 0.011588 0.0
-0.054949 0.011318 0.0
-0.058060 0.011002 0.0
-0.061065 0.010636 0.0
-0.063951 0.010212 0.0
-0.066700 0.009724 0.0
-0.069295 0.009165 0.0
-0.071716 0.008528 0.0
-0.073942 0.007806 0.0
-0.075949 0.006993 0.0
-0.077711 0.006082 0.0
-0.079203 0.005067 0.0
-0.080396 0.003944 0.0
-0.081260 0.002710 0.0
-0.081765 0.001363 0.0
-0.081881 -0.000096 0.0
-0.081578 -0.001663 0.0
-0.080829 -0.003330 0.0
-0.079605 -0.005088 0.0
-0.077886 -0.006923 0.0
-0.075651 -0.008817 0.0
-0.072886 -0.010748 0.0
-0.069585 -0.012691 0.0
-0.065746 -0.014619 0.0
-0.061380 -0.016500 0.0
-0.056501 -0.018302 0.0
-0.051138 -0.019992 0.0
-0.045326 -0.021535 0.0
-0.039113 -0.022892 0.0
-0.032560 -0.024002 0.0
-0.025750 -0.024751 0.0
-0.018820 -0.024875 0.0
-0.012018 -0.023766 0.0
-0.005868 -0.020046 0.0
-0.001522 -0.010672 0.0
-0.000748 0.006400 0.0
-0.002921 0.012421 0.0
-0.006053 0.015027 0.0
-0.009569 0.016019 0.0
-0.013220 0.016331 0.0
-0.016907 0.016390 0.0
-0.020595 0.016363 0.0
-0.024269 0.016301 0.0
-0.027923 0.016217 0.0
-0.031551 0.016112 0.0
-0.035149 0.015984 0.0
-0.038710 0.015829 0.0
-0.042228 0.015645 0.0
-0.045697 0.015426 0.0
-0.049107 0.015167 0.0
-0.052450 0.014864 0.0
-0.055716 0.014510 0.0
-0.058894 0.014098 0.0
-0.061971 0.013622 0.0
-0.064933 0.013073 0.0
-0.067764 0.012442 0.0
-0.070445 0.011723 0.0
-0.072958 0.010904 0.0
-0.075281 0.009979 0.0
-0.077390 0.008937 0.0
-0.079259 0.007770 0.0
-0.080861 0.006472 0.0
-0.082166 0.005036 0.0
-0.083142 0.003458 0.0
-0.083759 0.001736 0.0
-0.083983 -0.000129 0.0
-0.083782 -0.002134 0.0
-0.083123 -0.004268 0.0
-0.081975 -0.006520 0.0
-0.080313 -0.008873 0.0
-0.078112 -0.011303 0.0
-0.075355 -0.013783 0.0
-0.072030 -0.016282 0.0
-0.068135 -0.018762 0.0
-0.063676 -0.021183 0.0
-0.058668 -0.023504 0.0
-0.053140 -0.025682 0.0
-0.047128 -0.027669 0.0
-0.040683 -0.029416 0.0
-0.033871 -0.030844 0.0
-0.026783 -0.031807 0.0
-0.019563 -0.031970 0.0
-0.012477 -0.030558 0.0
-0.006078 -0.025803 0.0
-0.001572 -0.013767 0.0
-0.000748 0.007897 0.0
-0.002929 0.015278 0.0
-0.006078 0.018452 0.0
-0.009618 0.019652 0.0
-0.013295 0.020026 0.0
-0.017008 0.020095 0.0
-0.020723 0.020059 0.0
-0.024425 0.019981 0.0
-0.028109 0.019875 0.0
-0.031770 0.019743 0.0
-0.035403 0.019583 0.0
-0.039003 0.019391 0.0
-0.042563 0.019162 0.0
-0.046078 0.018892 0.0
-0.049540 0.018574 0.0
-0.052940 0.018202 0.0
-0.056270 0.017769 0.0
-0.059519 0.017266 0.0
-0.062674 0.016686 0.0
-0.065721 0.016018 0.0
-0.068646 0.015253 0.0
-0.071431 0.014379 0.0
-0.074057 0.013386 0.0
-0.076501 0.012264 0.0
-0.078740 0.011000 0.0
-0.080748 0.009584 0.0
-0.082495 0.008007 0.0
-0.083950 0.006262 0.0
-0.085081 0.004341 0.0
-0.085853 0.002242 0.0
-0.086229 -0.000035 0.0
-0.086172 -0.002486 0.0
-0.085647 -0.005101 0.0
-0.084617 -0.007865 0.0
-0.083049 -0.010758 0.0
-0.080915 -0.013753 0.0
-0.078191 -0.016815 0.0
-0.074862 -0.019904 0.0
-0.070920 -0.022976 0.0
-0.066368 -0.025980 0.0
-0.061221 -0.028862 0.0
-0.055505 -0.031568 0.0
-0.049262 -0.034039 0.0
-0.042545 -0.036208 0.0
-0.035426 -0.037982 0.0
-0.028006 -0.039177 0.0
-0.020442 -0.039384 0.0
-0.013022 -0.037650 0.0
-0.006331 -0.031801 0.0
-0.001633 -0.016972 0.0
-0.000748 0.009393 0.0
-0.002931 0.018145 0.0
-0.006092 0.021895 0.0
-0.009650 0.023307 0.0
-0.013348 0.023745 0.0
-0.017084 0.023825 0.0
-0.020822 0.023782 0.0
-0.024550 0.023689 0.0
-0.028262 0.023563 0.0
-0.031954 0.023408 0.0
-0.035622 0.023219 0.0
-0.039261 0.022993 0.0
-0.042865 0.022725 0.0
-0.046430 0.022408 0.0
-0.049948 0.022037 0.0
-0.053412 0.021603 0.0
-0.056813 0.021099 0.0
-0.060142 0.020514 0.0
-0.063386 0.019838 0.0
-0.066534 0.019061 0.0
-0.069571 0.018171 0.0
-0.072479 0.017154 0.0
-0.075239 0.015997 0.0
-0.077830 0.014688 0.0
-0.080227 0.013212 0.0
-0.082404 0.011556 0.0
-0.084330 0.009709 0.0
-0.085973 0.007659 0.0
-0.087297 0.005398 0.0
-0.088263 0.002922 0.0
-0.088832 0.000229 0.0
-0.088961 -0.002678 0.0
-0.088608 -0.005788 0.0
-0.087732 -0.009085 0.0
-0.086292 -0.012546 0.0
-0.084253 -0.016138 0.0
-0.081584 -0.019822 0.0
-0.078262 -0.023549 0.0
-0.074274 -0.027262 0.0
-0.069619 -0.030901 0.0
-0.064309 -0.034398 0.0
-0.058372 -0.037685 0.0
-0.051850 -0.040688 0.0
-0.044802 -0.043324 0.0
-0.037310 -0.045477 0.0
-0.029487 -0.046926 0.0
-0.021506 -0.047179 0.0
-0.013681 -0.045100 0.0
-0.006637 -0.038086 0.0
-0.001708 -0.020314 0.0
-0.000747 0.010887 0.0
-0.002933 0.021021 0.0
-0.006106 0.025353 0.0
-0.009681 0.026982 0.0
-0.013400 0.027486 0.0
-0.017158 0.027579 0.0
-0.020922 0.027530 0.0
-0.024677 0.027424 0.0
-0.028419 0.027282 0.0
-0.032145 0.027106 0.0
-0.035851 0.026893 0.0
-0.039532 0.026639 0.0
-0.043185 0.026337 0.0
-0.046805 0.025981 0.0
-0.050386 0.025563 0.0
-0.053921 0.025076 0.0
-0.057402 0.024509 0.0
-0.060822 0.023852 0.0
-0.064169 0.023093 0.0
-0.067432 0.022218 0.0
-0.070597 0.021215 0.0
-0.073647 0.020068 0.0
-0.076564 0.018761 0.0
-0.079327 0.017278 0.0
-0.081911 0.015603 0.0
-0.084288 0.013719 0.0
-0.086427 0.011611 0.0
-0.088294 0.009265 0.0
-0.089849 0.006671 0.0
-0.091051 0.003819 0.0
-0.091856 0.000706 0.0
-0.092214 -0.002666 0.0
-0.092078 -0.006288 0.0
-0.091396 -0.010142 0.0
-0.090122 -0.014203 0.0
-0.088209 -0.018434 0.0
-0.085618 -0.022787 0.0
-0.082317 -0.027206 0.0
-0.078285 -0.031624 0.0
-0.073516 -0.035963 0.0
-0.068019 -0.040143 0.0
-0.061819 -0.044077 0.0
-0.054963 -0.047674 0.0
-0.047518 -0.050831 0.0
-0.039575 -0.053405 0.0
-0.031263 -0.055133 0.0
-0.022779 -0.055436 0.0
-0.014468 -0.052980 0.0
-0.007002 -0.044716 0.0
-0.001797 -0.023819 0.0
-0.000746 0.012380 0.0
-0.002935 0.023904 0.0
-0.006120 0.028828 0.0
-0.009714 0.030677 0.0
-0.013455 0.031250 0.0
-0.017239 0.031357 0.0
-0.021029 0.031305 0.0
-0.024814 0.031190 0.0
-0.028589 0.031035 0.0
-0.032351 0.030843 0.0
-0.036098 0.030610 0.0
-0.039826 0.030332 0.0
-0.043533 0.030003 0.0
-0.047213 0.029615 0.0
-0.050863 0.029159 0.0
-0.054476 0.028628 0.0
-0.058047 0.028009 0.0
-0.061568 0.027292 0.0
-0.065030 0.026462 0.0
-0.068422 0.025504 0.0
-0.071731 0.024403 0.0
-0.074943 0.023141 0.0
-0.078038 0.021700 0.0
-0.080997 0.020060 0.0
-0.083795 0.018202 0.0
-0.086404 0.016105 0.0
-0.088792 0.013751 0.0
-0.090921 0.011121 0.0
-0.092750 0.008200 0.0
-0.094234 0.004976 0.0
-0.095322 0.001441 0.0
-0.095959 -0.002406 0.0
-0.096089 -0.006556 0.0
-0.095651 -0.010993 0.0
-0.094587 -0.015690 0.0
-0.092841 -0.020606 0.0
-0.090360 -0.025687 0.0
-0.087101 -0.030866 0.0
-0.083033 -0.036063 0.0
-0.078142 -0.041185 0.0
-0.072430 -0.046131 0.0
-0.065923 -0.050795 0.0
-0.058672 -0.055063 0.0
-0.050751 -0.058808 0.0
-0.042266 -0.061855 0.0
-0.033369 -0.063893 0.0
-0.024283 -0.064246 0.0
-0.015391 -0.061373 0.0
-0.007426 -0.051753 0.0
-0.001898 -0.027514 0.0
-0.000744 0.013870 0.0
-0.002937 0.026796 0.0
-0.006135 0.032320 0.0
-0.009749 0.034394 0.0
-0.013514 0.035038 0.0
-0.017324 0.035162 0.0
-0.021143 0.035109 0.0
-0.024960 0.034987 0.0
-0.028770 0.034823 0.0
-0.032572 0.034619 0.0
-0.036363 0.034372 0.0
-0.040142 0.034077 0.0
-0.043905 0.033727 0.0
-0.047650 0.033315 0.0
-0.051374 0.032832 0.0
-0.055073 0.032267 0.0
-0.058741 0.031609 0.0
-0.062372 0.030844 0.0
-0.065960 0.029958 0.0
-0.069493 0.028933 0.0
-0.072962 0.027752 0.0
-0.076352 0.026394 0.0
-0.079647 0.024838 0.0
-0.082827 0.023061 0.0
-0.085868 0.021040 0.0
-0.088741 0.018750 0.0
-0.091413 0.016167 0.0
-0.093846 0.013268 0.0
-0.095996 0.010032 0.0
-0.097812 0.006443 0.0
-0.099237 0.002487 0.0
-0.100211 -0.001840 0.0
-0.100666 -0.006536 0.0
-0.100532 -0.011585 0.0
-0.099735 -0.016958 0.0
-0.098207 -0.022613 0.0
-0.095879 -0.028489 0.0
-0.092693 -0.034509 0.0
-0.088605 -0.040576 0.0
-0.083587 -0.046580 0.0
-0.077636 -0.052398 0.0
-0.070775 -0.057896 0.0
-0.063058 -0.062931 0.0
-0.054571 -0.067347 0.0
-0.045441 -0.070931 0.0
-0.035842 -0.073313 0.0
-0.026038 -0.073716 0.0
-0.016460 -0.070372 0.0
-0.007911 -0.059268 0.0
-0.002013 -0.031425 0.0
-0.000743 0.015357 0.0
-0.002938 0.029696 0.0
-0.006150 0.035830 0.0
-0.009785 0.038134 0.0
-0.013575 0.038853 0.0
-0.017413 0.038995 0.0
-0.021263 0.038944 0.0
-0.025113 0.038819 0.0
-0.028960 0.038649 0.0
-0.032803 0.038437 0.0
-0.036640 0.038182 0.0
-0.040471 0.037877 0.0
-0.044295 0.037514 0.0
-0.048109 0.037088 0.0
-0.051911 0.036587 0.0
-0.055700 0.036000 0.0
-0.059471 0.035316 0.0
-0.063220 0.034519 0.0
-0.066942 0.033593 0.0
-0.070629 0.032519 0.0
-0.074271 0.031277 0.0
-0.077857 0.029845 0.0
-0.081371 0.028197 0.0
-0.084796 0.026307 0.0
-0.088107 0.024146 0.0
-0.091278 0.021687 0.0
-0.094274 0.018898 0.0
-0.097055 0.015751 0.0
-0.099575 0.012219 0.0
-0.101780 0.008276 0.0
-0.103605 0.003905 0.0
-0.104982 -0.000908 0.0
-0.105833 -0.006163 0.0
-0.106073 -0.011851 0.0
-0.105616 -0.017945 0.0
-0.104372 -0.024399 0.0
-0.102255 -0.031148 0.0
-0.099188 -0.038103 0.0
-0.095105 -0.045152 0.0
-0.089966 -0.052161 0.0
-0.083754 -0.058980 0.0
-0.076487 -0.065441 0.0
-0.068225 -0.071366 0.0
-0.059067 -0.076557 0.0
-0.049164 -0.080754 0.0
-0.038729 -0.083523 0.0
-0.028071 -0.083968 0.0
-0.017685 -0.080085 0.0
-0.008458 -0.067332 0.0
-0.002139 -0.035577 0.0
-0.000741 0.016840 0.0
-0.002938 0.032605 0.0
-0.006164 0.039358 0.0
-0.009821 0.041899 0.0
-0.013637 0.042694 0.0
-0.017504 0.042858 0.0
-0.021385 0.042812 0.0
-0.025269 0.042686 0.0
-0.029154 0.042514 0.0
-0.033039 0.042300 0.0
-0.036924 0.042042 0.0
-0.040809 0.041733 0.0
-0.044694 0.041366 0.0
-0.048578 0.040934 0.0
-0.052462 0.040426 0.0
-0.056344 0.039831 0.0
-0.060222 0.039135 0.0
-0.064095 0.038322 0.0
-0.067959 0.037375 0.0
-0.071809 0.036273 0.0
-0.075636 0.034994 0.0
-0.079433 0.033511 0.0
-0.083186 0.031798 0.0
-0.086878 0.029822 0.0
-0.090488 0.027552 0.0
-0.093989 0.024953 0.0
-0.097349 0.021988 0.0
-0.100526 0.018620 0.0
-0.103471 0.014815 0.0
-0.106126 0.010539 0.0
-0.108422 0.005764 0.0
-0.110280 0.000468 0.0
-0.111610 -0.005359 0.0
-0.112313 -0.011712 0.0
-0.112283 -0.018571 0.0
-0.111410 -0.025891 0.0
-0.109582 -0.033601 0.0
-0.106697 -0.041603 0.0
-0.102664 -0.049767 0.0
-0.097418 -0.057932 0.0
-0.090927 -0.065913 0.0
-0.083201 -0.073500 0.0
-0.074300 -0.080469 0.0
-0.064345 -0.086567 0.0
-0.053519 -0.091474 0.0
-0.042082 -0.094675 0.0
-0.030408 -0.095146 0.0
-0.019071 -0.090629 0.0
-0.009062 -0.076025 0.0
-0.002274 -0.039991 0.0
-0.000738 0.018319 0.0
-0.002936 0.035522 0.0
-0.006175 0.042906 0.0
-0.009855 0.045688 0.0
-0.013698 0.046564 0.0
-0.017594 0.046752 0.0
-0.021506 0.046712 0.0
-0.025425 0.046589 0.0
-0.029348 0.046419 0.0
-0.033275 0.046208 0.0
-0.037208 0.045952 0.0
-0.041147 0.045646 0.0
-0.045093 0.045284 0.0
-0.049049 0.044856 0.0
-0.053014 0.044353 0.0
-0.056991 0.043763 0.0
-0.060980 0.043070 0.0
-0.064980 0.042260 0.0
-0.068991 0.041312 0.0
-0.073010 0.040205 0.0
-0.077033 0.038913 0.0
-0.081053 0.037409 0.0
-0.085060 0.035660 0.0
-0.089041 0.033632 0.0
-0.092977 0.031288 0.0
-0.096842 0.028584 0.0
-0.100606 0.025479 0.0
-0.104228 0.021927 0.0
-0.107657 0.017882 0.0
-0.110831 0.013301 0.0
-0.113676 0.008143 0.0
-0.116104 0.002375 0.0
-0.118012 -0.004027 0.0
-0.119286 -0.011068 0.0
-0.119795 -0.018736 0.0
-0.119402 -0.026991 0.0
-0.117968 -0.035763 0.0
-0.115353 -0.044942 0.0
-0.111435 -0.054379 0.0
-0.106116 -0.063885 0.0
-0.099337 -0.073230 0.0
-0.091094 -0.082152 0.0
-0.081450 -0.090362 0.0
-0.070544 -0.097535 0.0
-0.058606 -0.103271 0.0
-0.045963 -0.106958 0.0
-0.033075 -0.107425 0.0
-0.020621 -0.102142 0.0
-0.009715 -0.085427 0.0
-0.002413 -0.044678 0.0
-0.000734 0.019791 0.0
-0.002933 0.038446 0.0
-0.006185 0.046473 0.0
-0.009886 0.049503 0.0
-0.013756 0.050462 0.0
-0.017681 0.050675 0.0
-0.021625 0.050645 0.0
-0.025578 0.050527 0.0
-0.029538 0.050363 0.0
-0.033507 0.050159 0.0
-0.037486 0.049912 0.0
-0.041477 0.049617 0.0
-0.045484 0.049267 0.0
-0.049509 0.048854 0.0
-0.053556 0.048368 0.0
-0.057627 0.047796 0.0
-0.061725 0.047124 0.0
-0.065854 0.046335 0.0
-0.070014 0.045408 0.0
-0.074208 0.044320 0.0
-0.078432 0.043045 0.0
-0.082686 0.041550 0.0
-0.086962 0.039802 0.0
-0.091250 0.037760 0.0
-0.095536 0.035381 0.0
-0.099797 0.032618 0.0
-0.104006 0.029418 0.0
-0.108123 0.025726 0.0
-0.112097 0.021486 0.0
-0.115865 0.016640 0.0
-0.119348 0.011132 0.0
-0.122449 0.004914 0.0
-0.125052 -0.002054 0.0
-0.127022 -0.009797 0.0
-0.128207 -0.018314 0.0
-0.128437 -0.027576 0.0
-0.127533 -0.037517 0.0
-0.125313 -0.048021 0.0
-0.121609 -0.058922 0.0
-0.116275 -0.069995 0.0
-0.109215 -0.080959 0.0
-0.100398 -0.091483 0.0
-0.089885 -0.101189 0.0
-0.077840 -0.109657 0.0
-0.064553 -0.116375 0.0
-0.050444 -0.120606 0.0
-0.036095 -0.121013 0.0
-0.022324 -0.114779 0.0
-0.010399 -0.095620 0.0
-0.002547 -0.049639 0.0
-0.000730 0.021255 0.0
-0.002927 0.041377 0.0
-0.006191 0.050058 0.0
-0.009914 0.053342 0.0
-0.013810 0.054388 0.0
-0.017764 0.054629 0.0
-0.021739 0.054609 0.0
-0.025724 0.054501 0.0
-0.029720 0.054346 0.0
-0.033728 0.054153 0.0
-0.037750 0.053920 0.0
-0.041792 0.053642 0.0
-0.045856 0.053313 0.0
-0.049948 0.052925 0.0
-0.054072 0.052468 0.0
-0.058235 0.051929 0.0
-0.062441 0.051295 0.0
-0.066696 0.050548 0.0
-0.071005 0.049665 0.0
-0.075373 0.048624 0.0
-0.079803 0.047395 0.0
-0.084296 0.045946 0.0
-0.088851 0.044236 0.0
-0.093461 0.042224 0.0
-0.098119 0.039860 0.0
-0.102806 0.037088 0.0
-0.107498 0.033849 0.0
-0.112160 0.030075 0.0
-0.116743 0.025696 0.0
-0.121185 0.020640 0.0
-0.125402 0.014832 0.0
-0.129292 0.008204 0.0
-0.132724 0.000692 0.0
-0.135545 -0.007751 0.0
-0.137574 -0.017146 0.0
-0.138606 -0.027483 0.0
-0.138413 -0.038707 0.0
-0.136759 -0.050704 0.0
-0.133411 -0.063292 0.0
-0.128161 -0.076209 0.0
-0.120853 -0.089114 0.0
-0.111413 -0.101584 0.0
-0.099886 -0.113128 0.0
-0.086467 -0.123182 0.0
-0.071523 -0.131081 0.0
-0.055610 -0.135922 0.0
-0.039483 -0.136173 0.0
-0.024152 -0.128722 0.0
-0.011077 -0.106677 0.0
-0.002662 -0.054848 0.0
-0.000725 0.022710 0.0
-0.002918 0.044313 0.0
-0.006193 0.053662 0.0
-0.009938 0.057206 0.0
-0.013859 0.058341 0.0
-0.017841 0.058611 0.0
-0.021844 0.058605 0.0
-0.025861 0.058507 0.0
-0.029889 0.058364 0.0
-0.033933 0.058186 0.0
-0.037997 0.057972 0.0
-0.042084 0.057718 0.0
-0.046201 0.057418 0.0
-0.050354 0.057065 0.0
-0.054551 0.056649 0.0
-0.058799 0.056159 0.0
-0.063107 0.055580 0.0
-0.067484 0.054895 0.0
-0.071938 0.054082 0.0
-0.076478 0.053116 0.0
-0.081111 0.051967 0.0
-0.085845 0.050600 0.0
-0.090683 0.048974 0.0
-0.095626 0.047041 0.0
-0.100672 0.044746 0.0
-0.105809 0.042027 0.0
-0.111020 0.038813 0.0
-0.116275 0.035027 0.0
-0.121532 0.030584 0.0
-0.126729 0.025391 0.0
-0.131784 0.019354 0.0
-0.136589 0.012376 0.0
-0.141004 0.004367 0.0
-0.144857 -0.004751 0.0
-0.147939 -0.015035 0.0
-0.149998 -0.026503 0.0
-0.150754 -0.039124 0.0
-0.149899 -0.052796 0.0
-0.147117 -0.067330 0.0
-0.142109 -0.082429 0.0
-0.134630 -0.097682 0.0
-0.124534 -0.112552 0.0
-0.111831 -0.126389 0.0
-0.096741 -0.138430 0.0
-0.079736 -0.147782 0.0
-0.061562 -0.153308 0.0
-0.043235 -0.153242 0.0
-0.026042 -0.144177 0.0
-0.011687 -0.118651 0.0
-0.002733 -0.060243 0.0
-0.000718 0.024153 0.0
-0.002907 0.047253 0.0
-0.006192 0.057282 0.0
-0.009956 0.061094 0.0
-0.013902 0.062320 0.0
-0.017910 0.062621 0.0
-0.021941 0.062629 0.0
-0.025985 0.062543 0.0
-0.030044 0.062415 0.0
-0.034120 0.062256 0.0
-0.038219 0.062065 0.0
-0.042346 0.061840 0.0
-0.046509 0.061577 0.0
-0.050717 0.061268 0.0
-0.054978 0.060905 0.0
-0.059304 0.060477 0.0
-0.063705 0.059971 0.0
-0.068194 0.059369 0.0
-0.072784 0.058651 0.0
-0.077488 0.057790 0.0
-0.082319 0.056757 0.0
-0.087289 0.055514 0.0
-0.092410 0.054019 0.0
-0.097690 0.052219 0.0
-0.103133 0.050056 0.0
-0.108738 0.047459 0.0
-0.114497 0.044350 0.0
-0.120389 0.040638 0.0
-0.126380 0.036221 0.0
-0.132415 0.030987 0.0
-0.138417 0.024815 0.0
-0.144278 0.017579 0.0
-0.149852 0.009152 0.0
-0.154948 -0.000586 0.0
-0.159326 -0.011740 0.0
-0.162694 -0.024370 0.0
-0.164706 -0.038489 0.0
-0.164966 -0.054025 0.0
-0.163050 -0.070798 0.0
-0.158533 -0.088486 0.0
-0.151036 -0.106602 0.0
-0.140294 -0.124470 0.0
-0.126244 -0.141225 0.0
-0.109111 -0.155817 0.0
-0.089500 -0.167011 0.0
-0.068434 -0.173319 0.0
-0.047321 -0.172670 0.0
-0.027874 -0.161389 0.0
-0.012114 -0.131554 0.0
-0.002717 -0.065693 0.0
-0.000711 0.025583 0.0
-0.002893 0.050194 0.0
-0.006187 0.060919 0.0
-0.009970 0.065005 0.0
-0.013939 0.066325 0.0
-0.017972 0.066657 0.0
-0.022027 0.066680 0.0
-0.026097 0.066606 0.0
-0.030181 0.066494 0.0
-0.034284 0.066355 0.0
-0.038412 0.066192 0.0
-0.042572 0.066001 0.0
-0.046774 0.065780 0.0
-0.051026 0.065524 0.0
-0.055342 0.065225 0.0
-0.059733 0.064874 0.0
-0.064215 0.064458 0.0
-0.068804 0.063960 0.0
-0.073517 0.063362 0.0
-0.078371 0.062638 0.0
-0.083387 0.061756 0.0
-0.088583 0.060681 0.0
-0.093978 0.059368 0.0
-0.099589 0.057761 0.0
-0.105432 0.055799 0.0
-0.111515 0.053405 0.0
-0.117841 0.050490 0.0
-0.124405 0.046953 0.0
-0.131183 0.042674 0.0
-0.138134 0.037520 0.0
-0.145192 0.031342 0.0
-0.152253 0.023975 0.0
-0.159172 0.015249 0.0
-0.165747 0.004989 0.0
-0.171719 -0.006965 0.0
-0.176747 -0.020749 0.0
-0.180410 -0.036437 0.0
-0.182211 -0.054017 0.0
-0.181588 -0.073346 0.0
-0.177944 -0.094100 0.0
-0.170707 -0.115722 0.0
-0.159421 -0.137377 0.0
-0.143872 -0.157918 0.0
-0.124249 -0.175880 0.0
-0.101302 -0.189506 0.0
-0.076441 -0.196751 0.0
-0.051691 -0.195101 0.0
-0.029440 -0.180656 0.0
-0.012172 -0.145314 0.0
-0.002547 -0.070956 0.0
-0.000703 0.026997 0.0
-0.002877 0.053136 0.0
-0.006178 0.064571 0.0
-0.009979 0.068937 0.0
-0.013971 0.070353 0.0
-0.018026 0.070717 0.0
-0.022104 0.070754 0.0
-0.026194 0.070693 0.0
-0.030299 0.070597 0.0
-0.034423 0.070480 0.0
-0.038573 0.070345 0.0
-0.042757 0.070192 0.0
-0.046986 0.070019 0.0
-0.051272 0.069823 0.0
-0.055629 0.069598 0.0
-0.060071 0.069335 0.0
-0.064619 0.069025 0.0
-0.069290 0.068653 0.0
-0.074107 0.068199 0.0
-0.079094 0.067642 0.0
-0.084275 0.066950 0.0
-0.089678 0.066087 0.0
-0.095330 0.065009 0.0
-0.101258 0.063660 0.0
-0.107490 0.061974 0.0
-0.114047 0.059870 0.0
-0.120949 0.057253 0.0
-0.128205 0.054009 0.0
-0.135812 0.050003 0.0
-0.143748 0.045079 0.0
-0.151963 0.039056 0.0
-0.160371 0.031730 0.0
-0.168837 0.022878 0.0
-0.177163 0.012260 0.0
-0.185066 -0.000362 0.0
-0.192166 -0.015223 0.0
-0.197975 -0.032491 0.0
-0.201881 -0.052256 0.0
-0.203151 -0.074459 0.0
-0.200964 -0.098817 0.0
-0.194472 -0.124733 0.0
-0.182920 -0.151204 0.0
-0.165825 -0.176734 0.0
-0.143232 -0.199280 0.0
-0.116005 -0.216281 0.0
-0.086060 -0.224782 0.0
-0.056362 -0.221519 0.0
-0.030450 -0.202401 0.0
-0.011564 -0.159724 0.0
-0.002117 -0.075619 0.0
-0.000694 0.028395 0.0
-0.002859 0.056077 0.0
-0.006166 0.068238 0.0
-0.009985 0.072891 0.0
-0.013997 0.074403 0.0
-0.018073 0.074798 0.0
-0.022170 0.074847 0.0
-0.026278 0.074798 0.0
-0.030398 0.074717 0.0
-0.034536 0.074622 0.0
-0.038700 0.074517 0.0
-0.042898 0.074403 0.0
-0.047143 0.074282 0.0
-0.051448 0.074151 0.0
-0.055829 0.074007 0.0
-0.060306 0.073845 0.0
-0.064898 0.073655 0.0
-0.069630 0.073426 0.0
-0.074528 0.073141 0.0
-0.079621 0.072780 0.0
-0.084941 0.072314 0.0
-0.090524 0.071709 0.0
-0.096405 0.070921 0.0
-0.102624 0.069896 0.0
-0.109221 0.068566 0.0
-0.116235 0.066849 0.0
-0.123702 0.064644 0.0
-0.131655 0.061827 0.0
-0.140113 0.058250 0.0
-0.149082 0.053736 0.0
-0.158540 0.048072 0.0
-0.168430 0.041012 0.0
-0.178642 0.032274 0.0
-0.188991 0.021540 0.0
-0.199199 0.008469 0.0
-0.208870 -0.007283 0.0
-0.217446 -0.026045 0.0
-0.224190 -0.048052 0.0
-0.228183 -0.073401 0.0
-0.228323 -0.101922 0.0
-0.223395 -0.133047 0.0
-0.212201 -0.165636 0.0
-0.193809 -0.197791 0.0
-0.167917 -0.226708 0.0
-0.135347 -0.248651 0.0
-0.098548 -0.259156 0.0
-0.061833 -0.253557 0.0
-0.030716 -0.227391 0.0
-0.009922 -0.174414 0.0
-0.001281 -0.079017 0.0
-0.000685 0.029774 0.0
-0.002839 0.059016 0.0
-0.006152 0.071918 0.0
-0.009988 0.076865 0.0
-0.014021 0.078475 0.0
-0.018117 0.078897 0.0
-0.022230 0.078957 0.0
-0.026350 0.078916 0.0
-0.030480 0.078848 0.0
-0.034624 0.078773 0.0
-0.038792 0.078696 0.0
-0.042992 0.078623 0.0
-0.047239 0.078554 0.0
-0.051547 0.078492 0.0
-0.055935 0.078436 0.0
-0.060424 0.078382 0.0
-0.065037 0.078324 0.0
-0.069804 0.078255 0.0
-0.074753 0.078160 0.0
-0.079921 0.078022 0.0
-0.085346 0.077817 0.0
-0.091071 0.077513 0.0
-0.097143 0.077070 0.0
-0.103613 0.076436 0.0
-0.110536 0.075546 0.0
-0.117969 0.074317 0.0
-0.125971 0.072646 0.0
-0.134599 0.070405 0.0
-0.143904 0.067436 0.0
-0.153927 0.063542 0.0
-0.164686 0.058484 0.0
-0.176169 0.051973 0.0
-0.188309 0.043664 0.0
-0.200965 0.033155 0.0
-0.213889 0.019986 0.0
-0.226678 0.003659 0.0
-0.238745 -0.016344 0.0
-0.249260 -0.040495 0.0
-0.257096 -0.069129 0.0
-0.260840 -0.102308 0.0
-0.258822 -0.139606 0.0
-0.249257 -0.179835 0.0
-0.230526 -0.220715 0.0
-0.201643 -0.258558 0.0
-0.162979 -0.288035 0.0
-0.117236 -0.302314 0.0
-0.070317 -0.294033 0.0
-0.030935 -0.257414 0.0
-0.007074 -0.189046 0.0
0.000099 -0.080199 0.0
-0.000675 0.031134 0.0
-0.002819 0.061954 0.0
-0.006139 0.075614 0.0
-0.009993 0.080860 0.0
-0.014046 0.082566 0.0
-0.018159 0.083014 0.0
-0.022285 0.083080 0.0
-0.026414 0.083043 0.0
-0.030547 0.082984 0.0
-0.034690 0.082924 0.0
-0.038850 0.082873 0.0
-0.043040 0.082836 0.0
-0.047273 0.082820 0.0
-0.051566 0.082828 0.0
-0.055940 0.082862 0.0
-0.060417 0.082922 0.0
-0.065025 0.083006 0.0
-0.069794 0.083109 0.0
-0.074760 0.083222 0.0
-0.079964 0.083332 0.0
-0.085451 0.083419 0.0
-0.091271 0.083456 0.0
-0.097482 0.083410 0.0
-0.104149 0.083232 0.0
-0.111340 0.082864 0.0
-0.119135 0.082226 0.0
-0.127614 0.081218 0.0
-0.136865 0.079713 0.0
-0.146977 0.077546 0.0
-0.158034 0.074511 0.0
-0.170109 0.070348 0.0
-0.183250 0.064731 0.0
-0.197459 0.057256 0.0
-0.212670 0.047430 0.0
-0.228700 0.034665 0.0
-0.245209 0.018278 0.0
-0.261616 -0.002488 0.0
-0.277031 -0.028422 0.0
-0.290181 -0.060216 0.0
-0.299352 -0.098306 0.0
-0.302402 -0.142577 0.0
-0.296859 -0.191971 0.0
-0.280163 -0.244007 0.0
-0.250124 -0.294188 0.0
-0.205879 -0.335313 0.0
-0.149538 -0.357121 0.0
-0.088180 -0.347504 0.0
-0.034747 -0.296759 0.0
-0.003951 -0.204358 0.0
0.002045 -0.078055 0.0
-0.000665 0.032475 0.0
-0.002799 0.064891 0.0
-0.006127 0.079325 0.0
-0.010000 0.084876 0.0
-0.014074 0.086677 0.0
-0.018205 0.087146 0.0
-0.022342 0.087212 0.0
-0.026475 0.087174 0.0
-0.030605 0.087116 0.0
-0.034737 0.087066 0.0
-0.038879 0.087034 0.0
-0.043044 0.087030 0.0
-0.047247 0.087062 0.0
-0.051506 0.087138 0.0
-0.055841 0.087261 0.0
-0.060280 0.087437 0.0
-0.064850 0.087668 0.0
-0.069587 0.087953 0.0
-0.074530 0.088287 0.0
-0.079724 0.088664 0.0
-0.085221 0.089069 0.0
-0.091080 0.089484 0.0
-0.097367 0.089881 0.0
-0.104159 0.090220 0.0
-0.111543 0.090451 0.0
-0.119615 0.090504 0.0
-0.128484 0.090288 0.0
-0.138271 0.089681 0.0
-0.149105 0.088524 0.0
-0.161124 0.086610 0.0
-0.174467 0.083668 0.0
-0.189262 0.079347 0.0
-0.205610 0.073197 0.0
-0.223555 0.064644 0.0
-0.243040 0.052967 0.0
-0.263839 0.037284 0.0
-0.285477 0.016551 0.0
-0.307124 -0.010399 0.0
-0.327456 -0.044757 0.0
-0.344578 -0.087473 0.0
-0.355981 -0.138958 0.0
-0.358502 -0.198612 0.0
-0.348319 -0.264244 0.0
-0.321289 -0.331019 0.0
-0.274243 -0.389773 0.0
-0.207484 -0.425761 0.0
-0.127876 -0.419830 0.0
-0.051784 -0.353958 0.0
-0.004393 -0.225347 0.0
0.004278 -0.071732 0.0
-0.000656 0.033796 0.0
-0.002782 0.067829 0.0
-0.006121 0.083054 0.0
-0.010017 0.088915 0.0
-0.014113 0.090809 0.0
-0.018261 0.091292 0.0
-0.022408 0.091351 0.0
-0.026541 0.091302 0.0
-0.030661 0.091238 0.0
-0.034773 0.091188 0.0
-0.038885 0.091167 0.0
-0.043011 0.091188 0.0
-0.047166 0.091262 0.0
-0.051368 0.091399 0.0
-0.055640 0.091608 0.0
-0.060010 0.091899 0.0
-0.064509 0.092277 0.0
-0.069175 0.092747 0.0
-0.074049 0.093311 0.0
-0.079182 0.093967 0.0
-0.084630 0.094711 0.0
-0.090460 0.095531 0.0
-0.096746 0.096408 0.0
-0.103578 0.097317 0.0
-0.111056 0.098217 0.0
-0.119298 0.099053 0.0
-0.128437 0.099748 0.0
-0.138629 0.100198 0.0
-0.150048 0.100259 0.0
-0.162890 0.099736 0.0
-0.177372 0.098365 0.0
-0.193720 0.095793 0.0
-0.212163 0.091543 0.0
-0.232902 0.084982 0.0
-0.256067 0.075278 0.0
-0.281652 0.061356 0.0
-0.309405 0.041871 0.0