# vtk DataFile Version 3.0
Vector Field
ASCII
DATASET RECTILINEAR_GRID
DIMENSIONS 50 50 1
X_COORDINATES 50 double
0.100000 0.300000 0.500000 0.700000 0.900000 1.100000 1.300000 1.500000 1.700000 1.900000 2.100000 2.300000 2.500000 2.700000 2.900000 3.100000 3.300000 3.500000 3.700000 3.900000 4.100000 4.300000 4.500000 4.700000 4.900000 5.100000 5.300000 5.500000 5.700000 5.900000 6.100000 6.300000 6.500000 6.700000 6.900000 7.100000 7.300000 7.500000 7.700000 7.900000 8.100000 8.300000 8.500000 8.700000 8.900000 9.100000 9.300000 9.500000 9.700000 9.900000 
Y_COORDINATES 50 double
0.100000 0.300000 0.500000 0.700000 0.900000 1.100000 1.300000 1.500000 1.700000 1.900000 2.100000 2.300000 2.500000 2.700000 2.900000 3.100000 3.300000 3.500000 3.700000 3.900000 4.100000 4.300000 4.500000 4.700000 4.900000 5.100000 5.300000 5.500000 5.700000 5.900000 6.100000 6.300000 6.500000 6.700000 6.900000 7.100000 7.300000 7.500000 7.700000 7.900000 8.100000 8.300000 8.500000 8.700000 8.900000 9.100000 9.300000 9.500000 9.700000 9.900000 
Z_COORDINATES 1 double
0.0
POINT_DATA 2500
VECTORS Vektorfeld double
-0.000296 0.000296 0.0
-0.000990 0.000398 0.0
-0.001794 0.000405 0.0
-0.002600 0.000401 0.0
-0.003396 0.000395 0.0
-0.004179 0.000388 0.0
-0.004946 0.000379 0.0
-0.005693 0.000368 0.0
-0.006418 0.000357 0.0
-0.007118 0.000343 0.0
-0.007791 0.000329 0.0
-0.008432 0.000313 0.0
-0.009041 0.000296 0.0
-0.009615 0.000278 0.0
-0.010151 0.000258 0.0
-0.010648 0.000238 0.0
-0.011103 0.000217 0.0
-0.011515 0.000195 0.0
-0.011881 0.000172 0.0
-0.012202 0.000148 0.0
-0.012474 0.000124 0.0
-0.012698 0.000099 0.0
-0.012872 0.000074 0.0
-0.012995 0.000049 0.0
-0.013066 0.000023 0.0
-0.013086 -0.000003 0.0
-0.013053 -0.000029 0.0
-0.012968 -0.000056 0.0
-0.012831 -0.000082 0.0
-0.012642 -0.000108 0.0
-0.012401 -0.000133 0.0
-0.012109 -0.000158 0.0
-0.011768 -0.000183 0.0
-0.011377 -0.000207 0.0
-0.010939 -0.000231 0.0
-0.010454 -0.000254 0.0
-0.009926 -0.000275 0.0
-0.009354 -0.000296 0.0
-0.008743 -0.000316 0.0
-0.008094 -0.000334 0.0
-0.007409 -0.000351 0.0
-0.006692 -0.000366 0.0
-0.005945 -0.000380 0.0
-0.005172 -0.000393 0.0
-0.004376 -0.000403 0.0
-0.003560 -0.000412 0.0
-0.002729 -0.000419 0.0
-0.001885 -0.000424 0.0
-0.001043 -0.000418 0.0
-0.000313 -0.000313 0.0
-0.000401 0.000993 0.0
-0.001323 0.001318 0.0
-0.002373 0.001338 0.0
-0.003424 0.001325 0.0
-0.004463 0.001306 0.0
-0.005484 0.001281 0.0
-0.006483 0.001251 0.0
-0.007457 0.001217 0.0
-0.008401 0.001178 0.0
-0.009312 0.001134 0.0
-0.010187 0.001085 0.0
-0.011022 0.001033 0.0
-0.011813 0.000976 0.0
-0.012558 0.000916 0.0
-0.013254 0.000852 0.0
-0.013898 0.000785 0.0
-0.014488 0.000715 0.0
-0.015021 0.000642 0.0
-0.015495 0.000566 0.0
-0.015909 0.000488 0.0
-0.016260 0.000408 0.0
-0.016547 0.000327 0.0
-0.016770 0.000243 0.0
-0.016926 0.000159 0.0
-0.017016 0.000074 0.0
-0.017037 -0.000012 0.0
-0.016991 -0.000099 0.0
-0.016878 -0.000185 0.0
-0.016696 -0.000271 0.0
-0.016447 -0.000356 0.0
-0.016131 -0.000441 0.0
-0.015749 -0.000524 0.0
-0.015303 -0.000606 0.0
-0.014794 -0.000685 0.0
-0.014223 -0.000762 0.0
-0.013592 -0.000837 0.0
-0.012905 -0.000908 0.0
-0.012162 -0.000976 0.0
-0.011368 -0.001041 0.0
-0.010525 -0.001101 0.0
-0.009636 -0.001157 0.0
-0.008706 -0.001208 0.0
-0.007738 -0.001254 0.0
-0.006735 -0.001295 0.0
-0.005703 -0.001330 0.0
-0.004646 -0.001359 0.0
-0.003568 -0.001382 0.0
-0.002475 -0.001398 0.0
-0.001382 -0.001378 0.0
-0.000420 -0.001045 0.0
-0.000413 0.001808 0.0
-0.001363 0.002374 0.0
-0.002441 0.002409 0.0
-0.003521 0.002386 0.0
-0.004588 0.002351 0.0
-0.005636 0.002306 0.0
-0.006663 0.002252 0.0
-0.007663 0.002190 0.0
-0.008633 0.002119 0.0
-0.009569 0.002040 0.0
-0.010467 0.001952 0.0
-0.011324 0.001858 0.0
-0.012136 0.001756 0.0
-0.012901 0.001647 0.0
-0.013615 0.001532 0.0
-0.014277 0.001411 0.0
-0.014882 0.001284 0.0
-0.015429 0.001152 0.0
-0.015915 0.001016 0.0
-0.016340 0.000876 0.0
-0.016700 0.000732 0.0
-0.016995 0.000585 0.0
-0.017223 0.000435 0.0
-0.017383 0.000283 0.0
-0.017475 0.000130 0.0
-0.017497 -0.000025 0.0
-0.017450 -0.000180 0.0
-0.017333 -0.000335 0.0
-0.017147 -0.000489 0.0
-0.016891 -0.000643 0.0
-0.016567 -0.000794 0.0
-0.016176 -0.000944 0.0
-0.015718 -0.001090 0.0
-0.015195 -0.001233 0.0
-0.014609 -0.001371 0.0
-0.013962 -0.001505 0.0
-0.013256 -0.001634 0.0
-0.012494 -0.001756 0.0
-0.011679 -0.001871 0.0
-0.010813 -0.001979 0.0
-0.009901 -0.002079 0.0
-0.008946 -0.002171 0.0
-0.007951 -0.002254 0.0
-0.006922 -0.002327 0.0
-0.005862 -0.002390 0.0
-0.004776 -0.002442 0.0
-0.003668 -0.002484 0.0
-0.002545 -0.002512 0.0
-0.001423 -0.002479 0.0
-0.000433 -0.001898 0.0
-0.000418 0.002640 0.0
-0.001379 0.003452 0.0
-0.002470 0.003501 0.0
-0.003563 0.003467 0.0
-0.004642 0.003416 0.0
-0.005704 0.003351 0.0
-0.006742 0.003273 0.0
-0.007754 0.003182 0.0
-0.008735 0.003078 0.0
-0.009682 0.002963 0.0
-0.010591 0.002836 0.0
-0.011458 0.002698 0.0
-0.012280 0.002550 0.0
-0.013053 0.002392 0.0
-0.013776 0.002224 0.0
-0.014445 0.002048 0.0
-0.015057 0.001864 0.0
-0.015611 0.001673 0.0
-0.016103 0.001475 0.0
-0.016533 0.001271 0.0
-0.016897 0.001062 0.0
-0.017196 0.000848 0.0
-0.017427 0.000631 0.0
-0.017590 0.000411 0.0
-0.017683 0.000188 0.0
-0.017706 -0.000037 0.0
-0.017659 -0.000262 0.0
-0.017542 -0.000487 0.0
-0.017354 -0.000711 0.0
-0.017097 -0.000934 0.0
-0.016770 -0.001154 0.0
-0.016375 -0.001371 0.0
-0.015912 -0.001583 0.0
-0.015384 -0.001791 0.0
-0.014792 -0.001992 0.0
-0.014138 -0.002186 0.0
-0.013424 -0.002372 0.0
-0.012654 -0.002550 0.0
-0.011829 -0.002717 0.0
-0.010953 -0.002875 0.0
-0.010029 -0.003020 0.0
-0.009062 -0.003153 0.0
-0.008055 -0.003273 0.0
-0.007013 -0.003379 0.0
-0.005939 -0.003471 0.0
-0.004839 -0.003547 0.0
-0.003717 -0.003608 0.0
-0.002579 -0.003648 0.0
-0.001442 -0.003602 0.0
-0.000438 -0.002769 0.0
-0.000424 0.003483 0.0
-0.001399 0.004544 0.0
-0.002506 0.004607 0.0
-0.003615 0.004563 0.0
-0.004710 0.004495 0.0
-0.005787 0.004409 0.0
-0.006840 0.004306 0.0
-0.007867 0.004186 0.0
-0.008862 0.004050 0.0
-0.009823 0.003898 0.0
-0.010744 0.003731 0.0
-0.011624 0.003549 0.0
-0.012458 0.003354 0.0
-0.013242 0.003146 0.0
-0.013975 0.002926 0.0
-0.014654 0.002694 0.0
-0.015275 0.002452 0.0
-0.015836 0.002200 0.0
-0.016336 0.001940 0.0
-0.016772 0.001672 0.0
-0.017143 0.001397 0.0
-0.017446 0.001116 0.0
-0.017681 0.000830 0.0
-0.017847 0.000540 0.0
-0.017942 0.000247 0.0
-0.017967 -0.000048 0.0
-0.017921 -0.000344 0.0
-0.017803 -0.000640 0.0
-0.017614 -0.000935 0.0
-0.017354 -0.001228 0.0
-0.017023 -0.001517 0.0
-0.016624 -0.001802 0.0
-0.016156 -0.002082 0.0
-0.015621 -0.002355 0.0
-0.015022 -0.002619 0.0
-0.014359 -0.002875 0.0
-0.013635 -0.003120 0.0
-0.012854 -0.003354 0.0
-0.012017 -0.003575 0.0
-0.011128 -0.003782 0.0
-0.010191 -0.003973 0.0
-0.009209 -0.004149 0.0
-0.008186 -0.004307 0.0
-0.007127 -0.004447 0.0
-0.006036 -0.004568 0.0
-0.004919 -0.004669 0.0
-0.003778 -0.004749 0.0
-0.002622 -0.004802 0.0
-0.001466 -0.004742 0.0
-0.000446 -0.003653 0.0
-0.000432 0.004339 0.0
-0.001424 0.005654 0.0
-0.002552 0.005732 0.0
-0.003681 0.005676 0.0
-0.004796 0.005592 0.0
-0.005893 0.005485 0.0
-0.006965 0.005357 0.0
-0.008011 0.005207 0.0
-0.009024 0.005038 0.0
-0.010002 0.004848 0.0
-0.010940 0.004640 0.0
-0.011835 0.004414 0.0
-0.012684 0.004171 0.0
-0.013483 0.003912 0.0
-0.014229 0.003638 0.0
-0.014919 0.003350 0.0
-0.015552 0.003049 0.0
-0.016123 0.002736 0.0
-0.016632 0.002412 0.0
-0.017076 0.002079 0.0
-0.017454 0.001737 0.0
-0.017764 0.001388 0.0
-0.018004 0.001033 0.0
-0.018173 0.000673 0.0
-0.018272 0.000308 0.0
-0.018298 -0.000058 0.0
-0.018252 -0.000426 0.0
-0.018134 -0.000794 0.0
-0.017943 -0.001161 0.0
-0.017680 -0.001525 0.0
-0.017345 -0.001885 0.0
-0.016940 -0.002239 0.0
-0.016466 -0.002587 0.0
-0.015923 -0.002927 0.0
-0.015313 -0.003256 0.0
-0.014640 -0.003575 0.0
-0.013904 -0.003880 0.0
-0.013109 -0.004171 0.0
-0.012257 -0.004446 0.0
-0.011352 -0.004704 0.0
-0.010397 -0.004943 0.0
-0.009396 -0.005162 0.0
-0.008354 -0.005359 0.0
-0.007274 -0.005534 0.0
-0.006161 -0.005684 0.0
-0.005020 -0.005810 0.0
-0.003857 -0.005910 0.0
-0.002676 -0.005977 0.0
-0.001496 -0.005903 0.0
-0.000455 -0.004553 0.0
-0.000441 0.005212 0.0
-0.001455 0.006787 0.0
-0.002608 0.006879 0.0
-0.003762 0.006812 0.0
-0.004902 0.006711 0.0
-0.006022 0.006583 0.0
-0.007118 0.006428 0.0
-0.008186 0.006249 0.0
-0.009221 0.006045 0.0
-0.010220 0.005818 0.0
-0.011179 0.005568 0.0
-0.012093 0.005296 0.0
-0.012960 0.005005 0.0
-0.013776 0.004694 0.0
-0.014538 0.004365 0.0
-0.015243 0.004019 0.0
-0.015889 0.003658 0.0
-0.016473 0.003283 0.0
-0.016993 0.002895 0.0
-0.017447 0.002495 0.0
-0.017834 0.002085 0.0
-0.018150 0.001667 0.0
-0.018397 0.001241 0.0
-0.018571 0.000809 0.0
-0.018673 0.000372 0.0
-0.018702 -0.000067 0.0
-0.018657 -0.000508 0.0
-0.018537 -0.000949 0.0
-0.018344 -0.001389 0.0
-0.018078 -0.001826 0.0
-0.017738 -0.002258 0.0
-0.017326 -0.002684 0.0
-0.016843 -0.003101 0.0
-0.016290 -0.003509 0.0
-0.015670 -0.003905 0.0
-0.014983 -0.004287 0.0
-0.014232 -0.004654 0.0
-0.013420 -0.005004 0.0
-0.012550 -0.005335 0.0
-0.011625 -0.005645 0.0
-0.010649 -0.005933 0.0
-0.009625 -0.006197 0.0
-0.008558 -0.006434 0.0
-0.007453 -0.006644 0.0
-0.006313 -0.006826 0.0
-0.005145 -0.006978 0.0
-0.003953 -0.007098 0.0
-0.002743 -0.007179 0.0
-0.001534 -0.007091 0.0
-0.000466 -0.005474 0.0
-0.000453 0.006107 0.0
-0.001492 0.007946 0.0
-0.002674 0.008054 0.0
-0.003858 0.007975 0.0
-0.005027 0.007856 0.0
-0.006175 0.007706 0.0
-0.007299 0.007525 0.0
-0.008394 0.007315 0.0
-0.009455 0.007076 0.0
-0.010479 0.006809 0.0
-0.011461 0.006517 0.0
-0.012398 0.006199 0.0
-0.013286 0.005857 0.0
-0.014123 0.005493 0.0
-0.014903 0.005108 0.0
-0.015626 0.004704 0.0
-0.016288 0.004281 0.0
-0.016887 0.003842 0.0
-0.017420 0.003388 0.0
-0.017886 0.002921 0.0
-0.018282 0.002442 0.0
-0.018608 0.001953 0.0
-0.018862 0.001455 0.0
-0.019042 0.000950 0.0
-0.019148 0.000439 0.0
-0.019179 -0.000074 0.0
-0.019135 -0.000590 0.0
-0.019015 -0.001106 0.0
-0.018819 -0.001621 0.0
-0.018549 -0.002132 0.0
-0.018203 -0.002637 0.0
-0.017783 -0.003136 0.0
-0.017291 -0.003625 0.0
-0.016726 -0.004102 0.0
-0.016092 -0.004566 0.0
-0.015389 -0.005015 0.0
-0.014621 -0.005445 0.0
-0.013790 -0.005856 0.0
-0.012898 -0.006245 0.0
-0.011950 -0.006609 0.0
-0.010948 -0.006947 0.0
-0.009897 -0.007257 0.0
-0.008801 -0.007536 0.0
-0.007666 -0.007784 0.0
-0.006494 -0.007997 0.0
-0.005293 -0.008176 0.0
-0.004067 -0.008318 0.0
-0.002823 -0.008413 0.0
-0.001578 -0.008311 0.0
-0.000480 -0.006420 0.0
-0.000466 0.007025 0.0
-0.001535 0.009137 0.0
-0.002751 0.009260 0.0
-0.003969 0.009170 0.0
-0.005172 0.009033 0.0
-0.006353 0.008860 0.0
-0.007509 0.008651 0.0
-0.008635 0.008409 0.0
-0.009727 0.008134 0.0
-0.010779 0.007828 0.0
-0.011789 0.007491 0.0
-0.012752 0.007125 0.0
-0.013665 0.006732 0.0
-0.014525 0.006314 0.0
-0.015327 0.005871 0.0
-0.016070 0.005407 0.0
-0.016750 0.004921 0.0
-0.017366 0.004417 0.0
-0.017914 0.003896 0.0
-0.018394 0.003359 0.0
-0.018802 0.002809 0.0
-0.019138 0.002247 0.0
-0.019400 0.001676 0.0
-0.019587 0.001096 0.0
-0.019697 0.000510 0.0
-0.019732 -0.000080 0.0
-0.019688 -0.000672 0.0
-0.019568 -0.001265 0.0
-0.019370 -0.001856 0.0
-0.019094 -0.002443 0.0
-0.018742 -0.003024 0.0
-0.018313 -0.003597 0.0
-0.017810 -0.004160 0.0
-0.017232 -0.004709 0.0
-0.016582 -0.005244 0.0
-0.015862 -0.005760 0.0
-0.015073 -0.006257 0.0
-0.014219 -0.006730 0.0
-0.013303 -0.007179 0.0
-0.012327 -0.007599 0.0
-0.011296 -0.007990 0.0
-0.010214 -0.008348 0.0
-0.009085 -0.008671 0.0
-0.007914 -0.008957 0.0
-0.006706 -0.009204 0.0
-0.005466 -0.009411 0.0
-0.004200 -0.009575 0.0
-0.002915 -0.009685 0.0
-0.001630 -0.009568 0.0
-0.000496 -0.007396 0.0
-0.000481 0.007971 0.0
-0.001585 0.010365 0.0
-0.002840 0.010504 0.0
-0.004096 0.010401 0.0
-0.005337 0.010245 0.0
-0.006557 0.010048 0.0
-0.007750 0.009812 0.0
-0.008911 0.009536 0.0
-0.010037 0.009224 0.0
-0.011122 0.008876 0.0
-0.012164 0.008494 0.0
-0.013157 0.008079 0.0
-0.014098 0.007633 0.0
-0.014984 0.007158 0.0
-0.015811 0.006657 0.0
-0.016576 0.006130 0.0
-0.017278 0.005580 0.0
-0.017912 0.005008 0.0
-0.018478 0.004418 0.0
-0.018972 0.003810 0.0
-0.019394 0.003188 0.0
-0.019741 0.002552 0.0
-0.020013 0.001904 0.0
-0.020207 0.001248 0.0
-0.020324 0.000585 0.0
-0.020361 -0.000083 0.0
-0.020320 -0.000754 0.0
-0.020198 -0.001425 0.0
-0.019998 -0.002095 0.0
-0.019717 -0.002760 0.0
-0.019357 -0.003419 0.0
-0.018919 -0.004069 0.0
-0.018403 -0.004707 0.0
-0.017810 -0.005332 0.0
-0.017143 -0.005939 0.0
-0.016402 -0.006526 0.0
-0.015591 -0.007091 0.0
-0.014712 -0.007630 0.0
-0.013767 -0.008140 0.0
-0.012761 -0.008620 0.0
-0.011696 -0.009065 0.0
-0.010578 -0.009473 0.0
-0.009411 -0.009842 0.0
-0.008199 -0.010168 0.0
-0.006948 -0.010451 0.0
-0.005665 -0.010687 0.0
-0.004353 -0.010875 0.0
-0.003022 -0.011001 0.0
-0.001690 -0.010869 0.0
-0.000514 -0.008406 0.0
-0.000497 0.008949 0.0
-0.001640 0.011634 0.0
-0.002939 0.011789 0.0
-0.004241 0.011674 0.0
-0.005525 0.011498 0.0
-0.006787 0.011277 0.0
-0.008021 0.011010 0.0
-0.009223 0.010701 0.0
-0.010387 0.010350 0.0
-0.011510 0.009958 0.0
-0.012586 0.009529 0.0
-0.013613 0.009063 0.0
-0.014586 0.008562 0.0
-0.015501 0.008030 0.0
-0.016356 0.007467 0.0
-0.017147 0.006876 0.0
-0.017872 0.006259 0.0
-0.018528 0.005619 0.0
-0.019112 0.004958 0.0
-0.019624 0.004277 0.0
-0.020061 0.003579 0.0
-0.020421 0.002867 0.0
-0.020703 0.002142 0.0
-0.020906 0.001408 0.0
-0.021029 0.000665 0.0
-0.021070 -0.000083 0.0
-0.021031 -0.000835 0.0
-0.020909 -0.001587 0.0
-0.020705 -0.002338 0.0
-0.020419 -0.003084 0.0
-0.020051 -0.003823 0.0
-0.019602 -0.004553 0.0
-0.019072 -0.005270 0.0
-0.018463 -0.005971 0.0
-0.017777 -0.006654 0.0
-0.017014 -0.007314 0.0
-0.016177 -0.007950 0.0
-0.015269 -0.008558 0.0
-0.014293 -0.009133 0.0
-0.013252 -0.009674 0.0
-0.012150 -0.010177 0.0
-0.010991 -0.010638 0.0
-0.009780 -0.011055 0.0
-0.008523 -0.011424 0.0
-0.007224 -0.011744 0.0
-0.005891 -0.012012 0.0
-0.004528 -0.012225 0.0
-0.003144 -0.012367 0.0
-0.001758 -0.012220 0.0
-0.000535 -0.009454 0.0
-0.000516 0.009962 0.0
-0.001702 0.012950 0.0
-0.003051 0.013122 0.0
-0.004402 0.012993 0.0
-0.005735 0.012797 0.0
-0.007045 0.012549 0.0
-0.008325 0.012252 0.0
-0.009572 0.011907 0.0
-0.010779 0.011515 0.0
-0.011943 0.011079 0.0
-0.013059 0.010601 0.0
-0.014123 0.010081 0.0
-0.015131 0.009524 0.0
-0.016079 0.008932 0.0
-0.016964 0.008305 0.0
-0.017784 0.007648 0.0
-0.018535 0.006963 0.0
-0.019214 0.006251 0.0
-0.019820 0.005516 0.0
-0.020351 0.004760 0.0
-0.020804 0.003986 0.0
-0.021178 0.003195 0.0
-0.021472 0.002391 0.0
-0.021685 0.001575 0.0
-0.021815 0.000750 0.0
-0.021861 -0.000081 0.0
-0.021823 -0.000915 0.0
-0.021701 -0.001751 0.0
-0.021494 -0.002585 0.0
-0.021202 -0.003415 0.0
-0.020826 -0.004237 0.0
-0.020365 -0.005049 0.0
-0.019821 -0.005847 0.0
-0.019194 -0.006629 0.0
-0.018486 -0.007390 0.0
-0.017699 -0.008128 0.0
-0.016834 -0.008838 0.0
-0.015895 -0.009517 0.0
-0.014884 -0.010161 0.0
-0.013804 -0.010767 0.0
-0.012660 -0.011330 0.0
-0.011456 -0.011847 0.0
-0.010197 -0.012315 0.0
-0.008888 -0.012730 0.0
-0.007536 -0.013090 0.0
-0.006146 -0.013390 0.0
-0.004725 -0.013630 0.0
-0.003281 -0.013791 0.0
-0.001835 -0.013628 0.0
-0.000558 -0.010547 0.0
-0.000537 0.011016 0.0
-0.001772 0.014317 0.0
-0.003176 0.014507 0.0
-0.004582 0.014364 0.0
-0.005969 0.014146 0.0
-0.007331 0.013872 0.0
-0.008663 0.013542 0.0
-0.009960 0.013160 0.0
-0.011215 0.012726 0.0
-0.012425 0.012243 0.0
-0.013584 0.011713 0.0
-0.014689 0.011138 0.0
-0.015736 0.010522 0.0
-0.016720 0.009867 0.0
-0.017639 0.009175 0.0
-0.018489 0.008449 0.0
-0.019269 0.007692 0.0
-0.019974 0.006907 0.0
-0.020603 0.006096 0.0
-0.021155 0.005263 0.0
-0.021626 0.004408 0.0
-0.022016 0.003537 0.0
-0.022323 0.002650 0.0
-0.022546 0.001751 0.0
-0.022684 0.000842 0.0
-0.022736 -0.000074 0.0
-0.022701 -0.000994 0.0
-0.022579 -0.001916 0.0
-0.022369 -0.002836 0.0
-0.022071 -0.003752 0.0
-0.021685 -0.004661 0.0
-0.021212 -0.005558 0.0
-0.020652 -0.006442 0.0
-0.020006 -0.007307 0.0
-0.019276 -0.008151 0.0
-0.018462 -0.008969 0.0
-0.017566 -0.009757 0.0
-0.016592 -0.010511 0.0
-0.015543 -0.011228 0.0
-0.014421 -0.011902 0.0
-0.013230 -0.012529 0.0
-0.011976 -0.013106 0.0
-0.010663 -0.013628 0.0
-0.009297 -0.014092 0.0
-0.007885 -0.014493 0.0
-0.006432 -0.014830 0.0
-0.004945 -0.015098 0.0
-0.003434 -0.015278 0.0
-0.001921 -0.015099 0.0
-0.000585 -0.011690 0.0
-0.000560 0.012113 0.0
-0.001849 0.015743 0.0
-0.003314 0.015951 0.0
-0.004780 0.015792 0.0
-0.006228 0.015552 0.0
-0.007649 0.015249 0.0
-0.009037 0.014886 0.0
-0.010388 0.014464 0.0
-0.011696 0.013985 0.0
-0.012956 0.013453 0.0
-0.014164 0.012869 0.0
-0.015314 0.012237 0.0
-0.016402 0.011559 0.0
-0.017426 0.010838 0.0
-0.018382 0.010078 0.0
-0.019266 0.009281 0.0
-0.020076 0.008450 0.0
-0.020810 0.007588 0.0
-0.021465 0.006699 0.0
-0.022039 0.005785 0.0
-0.022530 0.004849 0.0
-0.022937 0.003893 0.0
-0.023258 0.002922 0.0
-0.023493 0.001937 0.0
-0.023640 0.000941 0.0
-0.023697 -0.000063 0.0
-0.023666 -0.001072 0.0
-0.023543 -0.002083 0.0
-0.023331 -0.003093 0.0
-0.023027 -0.004098 0.0
-0.022632 -0.005096 0.0
-0.022146 -0.006082 0.0
-0.021570 -0.007054 0.0
-0.020903 -0.008007 0.0
-0.020148 -0.008937 0.0
-0.019305 -0.009839 0.0
-0.018377 -0.010710 0.0
-0.017366 -0.011544 0.0
-0.016274 -0.012337 0.0
-0.015106 -0.013083 0.0
-0.013864 -0.013779 0.0
-0.012555 -0.014420 0.0
-0.011183 -0.015000 0.0
-0.009753 -0.015515 0.0
-0.008274 -0.015962 0.0
-0.006751 -0.016337 0.0
-0.005192 -0.016635 0.0
-0.003606 -0.016837 0.0
-0.002018 -0.016642 0.0
-0.000614 -0.012888 0.0
-0.000586 0.013260 0.0
-0.001933 0.017232 0.0
-0.003466 0.017459 0.0
-0.005000 0.017285 0.0
-0.006513 0.017021 0.0
-0.007998 0.016687 0.0
-0.009449 0.016288 0.0
-0.010860 0.015824 0.0
-0.012226 0.015299 0.0
-0.013541 0.014714 0.0
-0.014800 0.014074 0.0
-0.015999 0.013381 0.0
-0.017134 0.012638 0.0
-0.018201 0.011849 0.0
-0.019196 0.011017 0.0
-0.020117 0.010146 0.0
-0.020961 0.009238 0.0
-0.021725 0.008297 0.0
-0.022407 0.007327 0.0
-0.023005 0.006329 0.0
-0.023518 0.005308 0.0
-0.023943 0.004267 0.0
-0.024280 0.003207 0.0
-0.024527 0.002133 0.0
-0.024684 0.001047 0.0
-0.024748 -0.000047 0.0
-0.024721 -0.001148 0.0
-0.024599 -0.002251 0.0
-0.024384 -0.003353 0.0
-0.024074 -0.004451 0.0
-0.023670 -0.005542 0.0
-0.023170 -0.006621 0.0
-0.022577 -0.007685 0.0
-0.021889 -0.008730 0.0
-0.021108 -0.009750 0.0
-0.020235 -0.010742 0.0
-0.019271 -0.011699 0.0
-0.018219 -0.012618 0.0
-0.017082 -0.013492 0.0
-0.015863 -0.014316 0.0
-0.014567 -0.015085 0.0
-0.013197 -0.015793 0.0
-0.011759 -0.016436 0.0
-0.010260 -0.017007 0.0
-0.008706 -0.017503 0.0
-0.007106 -0.017919 0.0
-0.005466 -0.018251 0.0
-0.003798 -0.018475 0.0
-0.002125 -0.018263 0.0
-0.000647 -0.014149 0.0
-0.000614 0.014460 0.0
-0.002026 0.018792 0.0
-0.003633 0.019038 0.0
-0.005240 0.018847 0.0
-0.006826 0.018557 0.0
-0.008381 0.018192 0.0
-0.009901 0.017754 0.0
-0.011378 0.017246 0.0
-0.012806 0.016671 0.0
-0.014181 0.016032 0.0
-0.015497 0.015332 0.0
-0.016749 0.014575 0.0
-0.017934 0.013764 0.0
-0.019047 0.012904 0.0
-0.020085 0.011997 0.0
-0.021046 0.011048 0.0
-0.021925 0.010060 0.0
-0.022722 0.009036 0.0
-0.023433 0.007981 0.0
-0.024057 0.006897 0.0
-0.024593 0.005788 0.0
-0.025038 0.004657 0.0
-0.025392 0.003507 0.0
-0.025653 0.002341 0.0
-0.025820 0.001163 0.0
-0.025892 -0.000026 0.0
-0.025869 -0.001221 0.0
-0.025749 -0.002419 0.0
-0.025531 -0.003617 0.0
-0.025216 -0.004812 0.0
-0.024802 -0.006000 0.0
-0.024289 -0.007176 0.0
-0.023678 -0.008336 0.0
-0.022968 -0.009477 0.0
-0.022160 -0.010592 0.0
-0.021254 -0.011678 0.0
-0.020253 -0.012727 0.0
-0.019158 -0.013736 0.0
-0.017973 -0.014696 0.0
-0.016699 -0.015604 0.0
-0.015342 -0.016451 0.0
-0.013906 -0.017233 0.0
-0.012397 -0.017943 0.0
-0.010821 -0.018575 0.0
-0.009186 -0.019124 0.0
-0.007499 -0.019585 0.0
-0.005771 -0.019953 0.0
-0.004010 -0.020202 0.0
-0.002245 -0.019973 0.0
-0.000683 -0.015479 0.0
-0.000645 0.015719 0.0
-0.002128 0.020428 0.0
-0.003816 0.020695 0.0
-0.005504 0.020485 0.0
-0.007168 0.020168 0.0
-0.008801 0.019769 0.0
-0.010395 0.019290 0.0
-0.011943 0.018735 0.0
-0.013440 0.018107 0.0
-0.014880 0.017410 0.0
-0.016257 0.016647 0.0
-0.017567 0.015822 0.0
-0.018805 0.014940 0.0
-0.019968 0.014004 0.0
-0.021052 0.013019 0.0
-0.022054 0.011988 0.0
-0.022972 0.010916 0.0
-0.023803 0.009807 0.0
-0.024546 0.008664 0.0
-0.025198 0.007491 0.0
-0.025758 0.006290 0.0
-0.026224 0.005067 0.0
-0.026596 0.003823 0.0
-0.026872 0.002562 0.0
-0.027051 0.001288 0.0
-0.027132 0.000003 0.0
-0.027114 -0.001290 0.0
-0.026996 -0.002587 0.0
-0.026777 -0.003885 0.0
-0.026456 -0.005180 0.0
-0.026033 -0.006468 0.0
-0.025507 -0.007746 0.0
-0.024878 -0.009008 0.0
-0.024145 -0.010249 0.0
-0.023309 -0.011465 0.0
-0.022369 -0.012650 0.0
-0.021329 -0.013797 0.0
-0.020188 -0.014901 0.0
-0.018951 -0.015955 0.0
-0.017618 -0.016951 0.0
-0.016196 -0.017884 0.0
-0.014688 -0.018745 0.0
-0.013101 -0.019528 0.0
-0.011441 -0.020226 0.0
-0.009717 -0.020833 0.0
-0.007936 -0.021344 0.0
-0.006108 -0.021751 0.0
-0.004246 -0.022028 0.0
-0.002377 -0.021782 0.0
-0.000724 -0.016886 0.0
-0.000679 0.017042 0.0
-0.002240 0.022149 0.0
-0.004016 0.022438 0.0
-0.005792 0.022208 0.0
-0.007543 0.021862 0.0
-0.009260 0.021425 0.0
-0.010935 0.020903 0.0
-0.012561 0.020297 0.0
-0.014132 0.019613 0.0
-0.015642 0.018853 0.0
-0.017085 0.018023 0.0
-0.018456 0.017127 0.0
-0.019752 0.016169 0.0
-0.020968 0.015154 0.0
-0.022101 0.014086 0.0
-0.023148 0.012970 0.0
-0.024106 0.011811 0.0
-0.024974 0.010612 0.0
-0.025749 0.009377 0.0
-0.026431 0.008111 0.0
-0.027016 0.006816 0.0
-0.027505 0.005497 0.0
-0.027896 0.004156 0.0
-0.028188 0.002797 0.0
-0.028380 0.001424 0.0
-0.028470 0.000038 0.0
-0.028459 -0.001356 0.0
-0.028344 -0.002755 0.0
-0.028124 -0.004156 0.0
-0.027799 -0.005555 0.0
-0.027368 -0.006948 0.0
-0.026829 -0.008331 0.0
-0.026181 -0.009699 0.0
-0.025425 -0.011047 0.0
-0.024560 -0.012369 0.0
-0.023586 -0.013659 0.0
-0.022504 -0.014910 0.0
-0.021316 -0.016117 0.0
-0.020023 -0.017270 0.0
-0.018628 -0.018363 0.0
-0.017135 -0.019387 0.0
-0.015550 -0.020334 0.0
-0.013878 -0.021197 0.0
-0.012126 -0.021968 0.0
-0.010304 -0.022639 0.0
-0.008419 -0.023204 0.0
-0.006482 -0.023655 0.0
-0.004507 -0.023962 0.0
-0.002524 -0.023698 0.0
-0.000769 -0.018379 0.0
-0.000715 0.018436 0.0
-0.002361 0.023963 0.0
-0.004234 0.024273 0.0
-0.006107 0.024022 0.0
-0.007952 0.023644 0.0
-0.009760 0.023168 0.0
-0.011523 0.022598 0.0
-0.013233 0.021939 0.0
-0.014884 0.021194 0.0
-0.016470 0.020368 0.0
-0.017984 0.019466 0.0
-0.019421 0.018493 0.0
-0.020778 0.017455 0.0
-0.022051 0.016356 0.0
-0.023236 0.015201 0.0
-0.024330 0.013996 0.0
-0.025331 0.012745 0.0
-0.026237 0.011452 0.0
-0.027047 0.010122 0.0
-0.027759 0.008759 0.0
-0.028372 0.007366 0.0
-0.028884 0.005948 0.0
-0.029295 0.004507 0.0
-0.029604 0.003047 0.0
-0.029810 0.001571 0.0
-0.029911 0.000083 0.0
-0.029907 -0.001416 0.0
-0.029796 -0.002921 0.0
-0.029577 -0.004429 0.0
-0.029249 -0.005936 0.0
-0.028809 -0.007438 0.0
-0.028258 -0.008931 0.0
-0.027594 -0.010410 0.0
-0.026815 -0.011870 0.0
-0.025921 -0.013304 0.0
-0.024911 -0.014706 0.0
-0.023787 -0.016069 0.0
-0.022548 -0.017385 0.0
-0.021197 -0.018646 0.0
-0.019735 -0.019843 0.0
-0.018168 -0.020967 0.0
-0.016499 -0.022009 0.0
-0.014735 -0.022959 0.0
-0.012883 -0.023809 0.0
-0.010952 -0.024551 0.0
-0.008953 -0.025176 0.0
-0.006897 -0.025676 0.0
-0.004797 -0.026017 0.0
-0.002687 -0.025736 0.0
-0.000819 -0.019966 0.0
-0.000756 0.019907 0.0
-0.002494 0.025877 0.0
-0.004473 0.026210 0.0
-0.006450 0.025935 0.0
-0.008398 0.025523 0.0
-0.010305 0.025004 0.0
-0.012164 0.024383 0.0
-0.013965 0.023665 0.0
-0.015703 0.022855 0.0
-0.017369 0.021958 0.0
-0.018959 0.020980 0.0
-0.020467 0.019926 0.0
-0.021889 0.018802 0.0
-0.023222 0.017614 0.0
-0.024461 0.016367 0.0
-0.025604 0.015068 0.0
-0.026650 0.013720 0.0
-0.027597 0.012329 0.0
-0.028442 0.010900 0.0
-0.029186 0.009436 0.0
-0.029827 0.007942 0.0
-0.030364 0.006422 0.0
-0.030797 0.004877 0.0
-0.031124 0.003313 0.0
-0.031344 0.001732 0.0
-0.031458 0.000137 0.0
-0.031462 -0.001470 0.0
-0.031356 -0.003084 0.0
-0.031139 -0.004702 0.0
-0.030809 -0.006321 0.0
-0.030363 -0.007937 0.0
-0.029801 -0.009546 0.0
-0.029120 -0.011142 0.0
-0.028319 -0.012719 0.0
-0.027396 -0.014272 0.0
-0.026351 -0.015793 0.0
-0.025183 -0.017275 0.0
-0.023893 -0.018709 0.0
-0.022480 -0.020086 0.0
-0.020949 -0.021396 0.0
-0.019301 -0.022629 0.0
-0.017542 -0.023774 0.0
-0.015679 -0.024821 0.0
-0.013718 -0.025760 0.0
-0.011670 -0.026580 0.0
-0.009545 -0.027271 0.0
-0.007356 -0.027826 0.0
-0.005118 -0.028205 0.0
-0.002868 -0.027906 0.0
-0.000874 -0.021659 0.0
-0.000799 0.021462 0.0
-0.002639 0.027901 0.0
-0.004733 0.028258 0.0
-0.006825 0.027957 0.0
-0.008885 0.027507 0.0
-0.010900 0.026942 0.0
-0.012861 0.026266 0.0
-0.014761 0.025484 0.0
-0.016592 0.024604 0.0
-0.018345 0.023630 0.0
-0.020016 0.022569 0.0
-0.021599 0.021428 0.0
-0.023090 0.020213 0.0
-0.024485 0.018930 0.0
-0.025782 0.017586 0.0
-0.026977 0.016187 0.0
-0.028069 0.014738 0.0
-0.029057 0.013245 0.0
-0.029940 0.011712 0.0
-0.030716 0.010144 0.0
-0.031386 0.008545 0.0
-0.031949 0.006918 0.0
-0.032404 0.005268 0.0
-0.032750 0.003596 0.0
-0.032986 0.001906 0.0
-0.033113 0.000202 0.0
-0.033127 -0.001516 0.0
-0.033028 -0.003242 0.0
-0.032815 -0.004975 0.0
-0.032484 -0.006710 0.0
-0.032034 -0.008444 0.0
-0.031462 -0.010173 0.0
-0.030767 -0.011891 0.0
-0.029945 -0.013592 0.0
-0.028995 -0.015271 0.0
-0.027914 -0.016919 0.0
-0.026703 -0.018529 0.0
-0.025359 -0.020090 0.0
-0.023884 -0.021593 0.0
-0.022278 -0.023026 0.0
-0.020546 -0.024379 0.0
-0.018691 -0.025638 0.0
-0.016720 -0.026792 0.0
-0.014641 -0.027829 0.0
-0.012464 -0.028736 0.0
-0.010201 -0.029503 0.0
-0.007866 -0.030118 0.0
-0.005475 -0.030540 0.0
-0.003070 -0.030225 0.0
-0.000936 -0.023468 0.0
-0.000847 0.023108 0.0
-0.002798 0.030045 0.0
-0.005017 0.030426 0.0
-0.007234 0.030098 0.0
-0.009415 0.029607 0.0
-0.011547 0.028990 0.0
-0.013621 0.028253 0.0
-0.015627 0.027403 0.0
-0.017557 0.026446 0.0
-0.019404 0.025388 0.0
-0.021161 0.024239 0.0
-0.022824 0.023004 0.0
-0.024387 0.021691 0.0
-0.025848 0.020308 0.0
-0.027204 0.018861 0.0
-0.028452 0.017357 0.0
-0.029592 0.015801 0.0
-0.030623 0.014201 0.0
-0.031543 0.012560 0.0
-0.032353 0.010883 0.0
-0.033053 0.009175 0.0
-0.033642 0.007439 0.0
-0.034119 0.005679 0.0
-0.034485 0.003897 0.0
-0.034739 0.002096 0.0
-0.034880 0.000279 0.0
-0.034906 -0.001552 0.0
-0.034816 -0.003394 0.0
-0.034607 -0.005244 0.0
-0.034278 -0.007100 0.0
-0.033826 -0.008957 0.0
-0.033248 -0.010810 0.0
-0.032540 -0.012657 0.0
-0.031699 -0.014489 0.0
-0.030723 -0.016301 0.0
-0.029609 -0.018084 0.0
-0.028354 -0.019831 0.0
-0.026957 -0.021529 0.0
-0.025417 -0.023169 0.0
-0.023735 -0.024737 0.0
-0.021913 -0.026221 0.0
-0.019956 -0.027607 0.0
-0.017869 -0.028880 0.0
-0.015662 -0.030027 0.0
-0.013344 -0.031033 0.0
-0.010929 -0.031884 0.0
-0.008432 -0.032569 0.0
-0.005872 -0.033040 0.0
-0.003294 -0.032709 0.0
-0.001004 -0.025408 0.0
-0.000899 0.024855 0.0
-0.002971 0.032321 0.0
-0.005328 0.032727 0.0
-0.007681 0.032367 0.0
-0.009994 0.031831 0.0
-0.012254 0.031157 0.0
-0.014448 0.030354 0.0
-0.016569 0.029428 0.0
-0.018606 0.028387 0.0
-0.020552 0.027240 0.0
-0.022401 0.025994 0.0
-0.024147 0.024658 0.0
-0.025786 0.023240 0.0
-0.027316 0.021749 0.0
-0.028733 0.020192 0.0
-0.030036 0.018577 0.0
-0.031225 0.016910 0.0
-0.032299 0.015197 0.0
-0.033257 0.013443 0.0
-0.034101 0.011654 0.0
-0.034830 0.009833 0.0
-0.035445 0.007985 0.0
-0.035946 0.006112 0.0
-0.036333 0.004217 0.0
-0.036605 0.002302 0.0
-0.036761 0.000370 0.0
-0.036800 -0.001578 0.0
-0.036721 -0.003538 0.0
-0.036520 -0.005509 0.0
-0.036196 -0.007488 0.0
-0.035745 -0.009472 0.0
-0.035162 -0.011456 0.0
-0.034445 -0.013436 0.0
-0.033589 -0.015406 0.0
-0.032590 -0.017359 0.0
-0.031444 -0.019287 0.0
-0.030147 -0.021180 0.0
-0.028697 -0.023027 0.0
-0.027092 -0.024816 0.0
-0.025331 -0.026533 0.0
-0.023416 -0.028162 0.0
-0.021350 -0.029689 0.0
-0.019140 -0.031096 0.0
-0.016793 -0.032366 0.0
-0.014322 -0.033483 0.0
-0.011740 -0.034431 0.0
-0.009064 -0.035195 0.0
-0.006316 -0.035723 0.0
-0.003544 -0.035376 0.0
-0.001081 -0.027493 0.0
-0.000957 0.026710 0.0
-0.003160 0.034740 0.0
-0.005668 0.035172 0.0
-0.008170 0.034778 0.0
-0.010627 0.034191 0.0
-0.013024 0.033454 0.0
-0.015350 0.032578 0.0
-0.017594 0.031568 0.0
-0.019745 0.030436 0.0
-0.021797 0.029189 0.0
-0.023743 0.027838 0.0
-0.025577 0.026393 0.0
-0.027296 0.024863 0.0
-0.028896 0.023256 0.0
-0.030376 0.021582 0.0
-0.031735 0.019849 0.0
-0.032973 0.018064 0.0
-0.034089 0.016233 0.0
-0.035086 0.014362 0.0
-0.035963 0.012456 0.0
-0.036722 0.010519 0.0
-0.037363 0.008555 0.0
-0.037888 0.006567 0.0
-0.038295 0.004556 0.0
-0.038586 0.002525 0.0
-0.038759 0.000476 0.0
-0.038813 -0.001590 0.0
-0.038747 -0.003671 0.0
-0.038557 -0.005766 0.0
-0.038241 -0.007872 0.0
-0.037794 -0.009986 0.0
-0.037212 -0.012106 0.0
-0.036490 -0.014225 0.0
-0.035622 -0.016340 0.0
-0.034604 -0.018442 0.0
-0.033430 -0.020524 0.0
-0.032094 -0.022575 0.0
-0.030593 -0.024584 0.0
-0.028922 -0.026536 0.0
-0.027081 -0.028416 0.0
-0.025069 -0.030207 0.0
-0.022889 -0.031890 0.0
-0.020546 -0.033447 0.0
-0.018049 -0.034858 0.0
-0.015410 -0.036102 0.0
-0.012644 -0.037161 0.0
-0.009770 -0.038016 0.0
-0.006812 -0.038609 0.0
-0.003825 -0.038249 0.0
-0.001167 -0.029742 0.0
-0.001019 0.028686 0.0
-0.003368 0.037317 0.0
-0.006040 0.037775 0.0
-0.008705 0.037341 0.0
-0.011319 0.036698 0.0
-0.013867 0.035892 0.0
-0.016334 0.034933 0.0
-0.018710 0.033832 0.0
-0.020985 0.032598 0.0
-0.023149 0.031243 0.0
-0.025197 0.029778 0.0
-0.027123 0.028214 0.0
-0.028923 0.026561 0.0
-0.030596 0.024831 0.0
-0.032140 0.023032 0.0
-0.033555 0.021174 0.0
-0.034841 0.019264 0.0
-0.036000 0.017309 0.0
-0.037034 0.015316 0.0
-0.037944 0.013289 0.0
-0.038731 0.011233 0.0
-0.039398 0.009150 0.0
-0.039946 0.007044 0.0
-0.040374 0.004915 0.0
-0.040685 0.002767 0.0
-0.040876 0.000599 0.0
-0.040948 -0.001588 0.0
-0.040897 -0.003791 0.0
-0.040721 -0.006012 0.0
-0.040416 -0.008247 0.0