# vtk DataFile Version 3.0
Scalar Field
ASCII
DATASET RECTILINEAR_GRID
DIMENSIONS 50 50 1
X_COORDINATES 50 double
0.100000 0.300000 0.500000 0.700000 0.900000 1.100000 1.300000 1.500000 1.700000 1.900000 2.100000 2.300000 2.500000 2.700000 2.900000 3.100000 3.300000 3.500000 3.700000 3.900000 4.100000 4.300000 4.500000 4.700000 4.900000 5.100000 5.300000 5.500000 5.700000 5.900000 6.100000 6.300000 6.500000 6.700000 6.900000 7.100000 7.300000 7.500000 7.700000 7.900000 8.100000 8.300000 8.500000 8.700000 8.900000 9.100000 9.300000 9.500000 9.700000 9.900000 
Y_COORDINATES 50 double
0.100000 0.300000 0.500000 0.700000 0.900000 1.100000 1.300000 1.500000 1.700000 1.900000 2.100000 2.300000 2.500000 2.700000 2.900000 3.100000 3.300000 3.500000 3.700000 3.900000 4.100000 4.300000 4.500000 4.700000 4.900000 5.100000 5.300000 5.500000 5.700000 5.900000 6.100000 6.300000 6.500000 6.700000 6.900000 7.100000 7.300000 7.500000 7.700000 7.900000 8.100000 8.300000 8.500000 8.700000 8.900000 9.100000 9.300000 9.500000 9.700000 9.900000 
Z_COORDINATES 1 double
0.0
POINT_DATA 2500
SCALARS Skalarfeld double 1
LOOKUP_TABLE default
-0.018005
-0.018071
-0.018193
-0.018330
-0.018454
-0.018546
-0.018594
-0.018593
-0.018540
-0.018432
-0.018273
-0.018062
-0.017802
-0.017495
-0.017144
-0.016750
-0.016317
-0.015847
-0.015342
-0.014806
-0.014242
-0.013652
-0.013041
-0.012412
-0.011769
-0.011116
-0.010458
-0.009799
-0.009144
-0.008499
-0.007868
-0.007256
-0.006669
-0.006112
-0.005591
-0.005110
-0.004675
-0.004291
-0.003961
-0.003691
-0.003482
-0.003338
-0.003258
-0.003242
-0.003284
-0.003378
-0.003508
-0.003654
-0.003783
-0.003854
-0.017939
-0.018006
-0.018104
-0.018209
-0.018303
-0.018369
-0.018398
-0.018384
-0.018323
-0.018213
-0.018055
-0.017849
-0.017596
-0.017298
-0.016958
-0.016576
-0.016156
-0.015701
-0.015211
-0.014692
-0.014144
-0.013572
-0.012979
-0.012369
-0.011745
-0.011112
-0.010474
-0.009836
-0.009201
-0.008576
-0.007965
-0.007374
-0.006806
-0.006268
-0.005764
-0.005300
-0.004880
-0.004508
-0.004189
-0.003925
-0.003719
-0.003573
-0.003485
-0.003455
-0.003476
-0.003541
-0.003638
-0.003750
-0.003854
-0.003924
-0.017818
-0.017908
-0.018007
-0.018101
-0.018179
-0.018230
-0.018246
-0.018223
-0.018155
-0.018043
-0.017886
-0.017683
-0.017435
-0.017145
-0.016813
-0.016442
-0.016033
-0.015589
-0.015112
-0.014605
-0.014072
-0.013514
-0.012936
-0.012341
-0.011732
-0.011114
-0.010492
-0.009869
-0.009250
-0.008640
-0.008045
-0.007468
-0.006915
-0.006390
-0.005900
-0.005447
-0.005038
-0.004675
-0.004363
-0.004103
-0.003899
-0.003750
-0.003657
-0.003616
-0.003624
-0.003673
-0.003754
-0.003853
-0.003958
-0.004054
-0.017678
-0.017802
-0.017915
-0.018011
-0.018084
-0.018127
-0.018136
-0.018106
-0.018035
-0.017921
-0.017764
-0.017563
-0.017320
-0.017035
-0.016710
-0.016346
-0.015946
-0.015511
-0.015045
-0.014548
-0.014025
-0.013478
-0.012911
-0.012327
-0.011729
-0.011123
-0.010511
-0.009899
-0.009292
-0.008693
-0.008107
-0.007540
-0.006997
-0.006482
-0.006000
-0.005555
-0.005152
-0.004795
-0.004486
-0.004229
-0.004025
-0.003875
-0.003778
-0.003732
-0.003732
-0.003774
-0.003851
-0.003952
-0.004071
-0.004202
-0.017549
-0.017708
-0.017839
-0.017944
-0.018019
-0.018061
-0.018067
-0.018034
-0.017961
-0.017846
-0.017689
-0.017490
-0.017250
-0.016969
-0.016649
-0.016291
-0.015897
-0.015469
-0.015009
-0.014520
-0.014004
-0.013465
-0.012905
-0.012328
-0.011738
-0.011138
-0.010534
-0.009929
-0.009327
-0.008734
-0.008155
-0.007593
-0.007055
-0.006544
-0.006066
-0.005625
-0.005225
-0.004870
-0.004563
-0.004307
-0.004103
-0.003951
-0.003852
-0.003803
-0.003802
-0.003844
-0.003923
-0.004035
-0.004174
-0.004339
-0.017450
-0.017640
-0.017792
-0.017909
-0.017990
-0.018035
-0.018041
-0.018007
-0.017933
-0.017818
-0.017662
-0.017464
-0.017226
-0.016948
-0.016631
-0.016277
-0.015887
-0.015463
-0.015007
-0.014522
-0.014010
-0.013475
-0.012919
-0.012346
-0.011759
-0.011162
-0.010560
-0.009957
-0.009357
-0.008766
-0.008188
-0.007627
-0.007089
-0.006579
-0.006101
-0.005660
-0.005259
-0.004904
-0.004596
-0.004339
-0.004134
-0.003981
-0.003881
-0.003832
-0.003832
-0.003878
-0.003965
-0.004090
-0.004252
-0.004448
-0.017393
-0.017610
-0.017782
-0.017912
-0.018002
-0.018051
-0.018059
-0.018027
-0.017953
-0.017839
-0.017682
-0.017486
-0.017248
-0.016971
-0.016656
-0.016303
-0.015915
-0.015493
-0.015039
-0.014555
-0.014045
-0.013510
-0.012954
-0.012380
-0.011793
-0.011195
-0.010591
-0.009986
-0.009384
-0.008789
-0.008207
-0.007643
-0.007102
-0.006587
-0.006106
-0.005660
-0.005257
-0.004898
-0.004587
-0.004327
-0.004120
-0.003966
-0.003866
-0.003819
-0.003822
-0.003874
-0.003971
-0.004112
-0.004294
-0.004518
-0.017385
-0.017625
-0.017815
-0.017959
-0.018057
-0.018113
-0.018125
-0.018094
-0.018022
-0.017908
-0.017752
-0.017555
-0.017318
-0.017041
-0.016726
-0.016373
-0.015984
-0.015561
-0.015106
-0.014620
-0.014107
-0.013570
-0.013011
-0.012433
-0.011841
-0.011238
-0.010628
-0.010016
-0.009407
-0.008805
-0.008215
-0.007643
-0.007093
-0.006571
-0.006081
-0.005629
-0.005218
-0.004853
-0.004537
-0.004272
-0.004062
-0.003907
-0.003807
-0.003761
-0.003770
-0.003829
-0.003938
-0.004094
-0.004295
-0.004543
-0.017431
-0.017691
-0.017898
-0.018054
-0.018162
-0.018224
-0.018240
-0.018213
-0.018142
-0.018028
-0.017872
-0.017675
-0.017437
-0.017158
-0.016841
-0.016486
-0.016094
-0.015668
-0.015209
-0.014719
-0.014200
-0.013657
-0.013090
-0.012505
-0.011904
-0.011292
-0.010672
-0.010049
-0.009428
-0.008814
-0.008212
-0.007628
-0.007065
-0.006531
-0.006029
-0.005565
-0.005144
-0.004770
-0.004446
-0.004175
-0.003960
-0.003802
-0.003702
-0.003659
-0.003673
-0.003741
-0.003861
-0.004032
-0.004251
-0.004520
-0.017535
-0.017812
-0.018034
-0.018202
-0.018319
-0.018388
-0.018409
-0.018384
-0.018315
-0.018201
-0.018045
-0.017846
-0.017605
-0.017324
-0.017003
-0.016644
-0.016247
-0.015815
-0.015349
-0.014852
-0.014325
-0.013772
-0.013195
-0.012598
-0.011984
-0.011358
-0.010723
-0.010085
-0.009448
-0.008818
-0.008199
-0.007597
-0.007018
-0.006467
-0.005949
-0.005470
-0.005035
-0.004648
-0.004314
-0.004035
-0.003814
-0.003652
-0.003552
-0.003511
-0.003530
-0.003606
-0.003738
-0.003924
-0.004160
-0.004447
-0.017697
-0.017991
-0.018226
-0.018406
-0.018532
-0.018607
-0.018633
-0.018611
-0.018543
-0.018429
-0.018271
-0.018070
-0.017826
-0.017541
-0.017215
-0.016849
-0.016445
-0.016004
-0.015529
-0.015021
-0.014482
-0.013916
-0.013325
-0.012712
-0.012082
-0.011438
-0.010784
-0.010126
-0.009469
-0.008817
-0.008177
-0.007553
-0.006952
-0.006380
-0.005842
-0.005344
-0.004891
-0.004489
-0.004141
-0.003851
-0.003622
-0.003456
-0.003354
-0.003315
-0.003339
-0.003424
-0.003568
-0.003767
-0.004020
-0.004325
-0.017920
-0.018230
-0.018479
-0.018669
-0.018804
-0.018886
-0.018916
-0.018897
-0.018829
-0.018715
-0.018555
-0.018350
-0.018101
-0.017810
-0.017477
-0.017103
-0.016689
-0.016238
-0.015750
-0.015229
-0.014675
-0.014092
-0.013483
-0.012851
-0.012200
-0.011534
-0.010857
-0.010174
-0.009491
-0.008814
-0.008146
-0.007496
-0.006869
-0.006270
-0.005707
-0.005186
-0.004712
-0.004290
-0.003925
-0.003622
-0.003383
-0.003211
-0.003106
-0.003069
-0.003098
-0.003192
-0.003347
-0.003561
-0.003831
-0.004153
-0.018206
-0.018531
-0.018793
-0.018995
-0.019139
-0.019227
-0.019261
-0.019243
-0.019176
-0.019060
-0.018897
-0.018688
-0.018433
-0.018135
-0.017792
-0.017408
-0.016983
-0.016518
-0.016016
-0.015477
-0.014906
-0.014303
-0.013672
-0.013017
-0.012341
-0.011648
-0.010943
-0.010231
-0.009518
-0.008809
-0.008110
-0.007428
-0.006768
-0.006139
-0.005546
-0.004997
-0.004496
-0.004051
-0.003667
-0.003347
-0.003096
-0.002915
-0.002807
-0.002770
-0.002804
-0.002906
-0.003074
-0.003303
-0.003590
-0.003931
-0.018555
-0.018897
-0.019173
-0.019386
-0.019538
-0.019632
-0.019671
-0.019655
-0.019587
-0.019469
-0.019302
-0.019087
-0.018825
-0.018517
-0.018164
-0.017768
-0.017328
-0.016848
-0.016328
-0.015770
-0.015177
-0.014551
-0.013895
-0.013213
-0.012507
-0.011784
-0.011046
-0.010300
-0.009551
-0.008805
-0.008069
-0.007350
-0.006653
-0.005987
-0.005359
-0.004776
-0.004245
-0.003772
-0.003364
-0.003024
-0.002758
-0.002567
-0.002453
-0.002417
-0.002455
-0.002566
-0.002747
-0.002992
-0.003298
-0.003658
-0.018971
-0.019330
-0.019620
-0.019845
-0.020007
-0.020107
-0.020149
-0.020134
-0.020066
-0.019945
-0.019773
-0.019551
-0.019280
-0.018961
-0.018596
-0.018185
-0.017729
-0.017230
-0.016690
-0.016110
-0.015492
-0.014840
-0.014155
-0.013442
-0.012703
-0.011944
-0.011169
-0.010383
-0.009594
-0.008806
-0.008027
-0.007264
-0.006524
-0.005816
-0.005146
-0.004524
-0.003957
-0.003452
-0.003015
-0.002652
-0.002367
-0.002164
-0.002043
-0.002005
-0.002048
-0.002169
-0.002363
-0.002626
-0.002951
-0.003334
-0.019456
-0.019833
-0.020139
-0.020376
-0.020547
-0.020654
-0.020699
-0.020686
-0.020616
-0.020491
-0.020313
-0.020083
-0.019802
-0.019471
-0.019091
-0.018664
-0.018190
-0.017670
-0.017107
-0.016501
-0.015856
-0.015174
-0.014456
-0.013708
-0.012932
-0.012133
-0.011315
-0.010486
-0.009650
-0.008814
-0.007986
-0.007173
-0.006384
-0.005626
-0.004909
-0.004242
-0.003632
-0.003088
-0.002618
-0.002227
-0.001920
-0.001702
-0.001572
-0.001532
-0.001579
-0.001710
-0.001919
-0.002201
-0.002550
-0.002958
-0.020011
-0.020409
-0.020732
-0.020983
-0.021164
-0.021277
-0.021326
-0.021313
-0.021241
-0.021111
-0.020926
-0.020687
-0.020394
-0.020050
-0.019654
-0.019208
-0.018714
-0.018171
-0.017583
-0.016949
-0.016274
-0.015558
-0.014805
-0.014017
-0.013200
-0.012356
-0.011491
-0.010612
-0.009723
-0.008834
-0.007950
-0.007081
-0.006235
-0.005421
-0.004649
-0.003929
-0.003270
-0.002682
-0.002172
-0.001748
-0.001415
-0.001178
-0.001037
-0.000994
-0.001045
-0.001187
-0.001413
-0.001716
-0.002090
-0.002527
-0.020642
-0.021063
-0.021405
-0.021670
-0.021861
-0.021981
-0.022033
-0.022021
-0.021946
-0.021811
-0.021618
-0.021368
-0.021062
-0.020703
-0.020289
-0.019824
-0.019306
-0.018739
-0.018123
-0.017459
-0.016750
-0.015997
-0.015205
-0.014375
-0.013511
-0.012619
-0.011702
-0.010767
-0.009821
-0.008871
-0.007925
-0.006992
-0.006081
-0.005203
-0.004368
-0.003588
-0.002872
-0.002231
-0.001675
-0.001212
-0.000848
-0.000588
-0.000434
-0.000386
-0.000442
-0.000595
-0.000839
-0.001167
-0.001570
-0.002039
-0.021353
-0.021798
-0.022160
-0.022441
-0.022644
-0.022771
-0.022827
-0.022814
-0.022736
-0.022595
-0.022393
-0.022131
-0.021812
-0.021435
-0.021003
-0.020515
-0.019974
-0.019379
-0.018733
-0.018036
-0.017291
-0.016499
-0.015663
-0.014787
-0.013874
-0.012928
-0.011953
-0.010958
-0.009948
-0.008930
-0.007915
-0.006910
-0.005927
-0.004977
-0.004070
-0.003220
-0.002438
-0.001737
-0.001126
-0.000617
-0.000216
0.000071
0.000242
0.000296
0.000237
0.000071
-0.000195
-0.000550
-0.000986
-0.001493
-0.022146
-0.022620
-0.023005
-0.023303
-0.023518
-0.023653
-0.023712
-0.023699
-0.023617
-0.023469
-0.023257
-0.022983
-0.022648
-0.022253
-0.021800
-0.021289
-0.020721
-0.020098
-0.019419
-0.018687
-0.017903
-0.017069
-0.016188
-0.015262
-0.014295
-0.013291
-0.012255
-0.011193
-0.010112
-0.009021
-0.007929
-0.006844
-0.005780
-0.004746
-0.003758
-0.002828
-0.001970
-0.001198
-0.000525
0.000039
0.000485
0.000805
0.000996
0.001059
0.000997
0.000816
0.000527
0.000139
-0.000335
-0.000884
-0.023029
-0.023534
-0.023944
-0.024261
-0.024489
-0.024633
-0.024696
-0.024682
-0.024596
-0.024440
-0.024217
-0.023929
-0.023577
-0.023163
-0.022688
-0.022152
-0.021556
-0.020902
-0.020189
-0.019420
-0.018595
-0.017716
-0.016786
-0.015807
-0.014783
-0.013717
-0.012614
-0.011480
-0.010324
-0.009152
-0.007974
-0.006801
-0.005645
-0.004520
-0.003439
-0.002417
-0.001472
-0.000617
0.000131
0.000760
0.001258
0.001618
0.001835
0.001909
0.001844
0.001648
0.001331
0.000907
0.000388
-0.000211
-0.024008
-0.024546
-0.024984
-0.025322
-0.025565
-0.025718
-0.025784
-0.025770
-0.025679
-0.025514
-0.025279
-0.024976
-0.024607
-0.024172
-0.023673
-0.023111
-0.022485
-0.021798
-0.021050
-0.020241
-0.019374
-0.018448
-0.017467
-0.016433
-0.015348
-0.014216
-0.013042
-0.011832
-0.010592
-0.009333
-0.008062
-0.006792
-0.005535
-0.004305
-0.003119
-0.001993
-0.000946
0.000004
0.000840
0.001545
0.002107
0.002515
0.002764
0.002854
0.002787
0.002574
0.002226
0.001758
0.001188
0.000530
-0.025088
-0.025665
-0.026133
-0.026494
-0.026753
-0.026915
-0.026986
-0.026971
-0.026874
-0.026700
-0.026452
-0.026132
-0.025744
-0.025287
-0.024763
-0.024173
-0.023517
-0.022796
-0.022011
-0.021161
-0.020249
-0.019275
-0.018240
-0.017148
-0.016000
-0.014799
-0.013550
-0.012258
-0.010931
-0.009577
-0.008205
-0.006828
-0.005459
-0.004113
-0.002809
-0.001564
-0.000401
0.000661
0.001600
0.002397
0.003035
0.003503
0.003793
0.003902
0.003836
0.003603
0.003219
0.002702
0.002070
0.001344
-0.026277
-0.026897
-0.027399
-0.027786
-0.028063
-0.028235
-0.028310
-0.028293
-0.028189
-0.028005
-0.027743
-0.027406
-0.026997
-0.026516
-0.025966
-0.025347
-0.024659
-0.023903
-0.023079
-0.022188
-0.021229
-0.020205
-0.019116
-0.017964
-0.016750
-0.015479
-0.014152
-0.012774
-0.011354
-0.009899
-0.008419
-0.006926
-0.005434
-0.003959
-0.002522
-0.001142
0.000155
0.001347
0.002407
0.003313
0.004045
0.004587
0.004927
0.005064
0.005001
0.004748
0.004323
0.003746
0.003042
0.002234
-0.027585
-0.028253
-0.028793
-0.029208
-0.029504
-0.029688
-0.029766
-0.029747
-0.029636
-0.029439
-0.029161
-0.028806
-0.028374
-0.027869
-0.027292
-0.026642
-0.025921
-0.025129
-0.024265
-0.023331
-0.022326
-0.021250
-0.020106
-0.018893
-0.017612
-0.016267
-0.014861
-0.013394
-0.011877
-0.010316
-0.008720
-0.007103
-0.005477
-0.003860
-0.002274
-0.000742
0.000709
0.002051
0.003255
0.004293
0.005138
0.005771
0.006177
0.006351
0.006295
0.006022
0.005550
0.004904
0.004113
0.003205
-0.029021
-0.029743
-0.030325
-0.030772
-0.031089
-0.031284
-0.031365
-0.031343
-0.031223
-0.031013
-0.030718
-0.030341
-0.029886
-0.029355
-0.028748
-0.028067
-0.027311
-0.026482
-0.025578
-0.024600
-0.023548
-0.022421
-0.021220
-0.019946
-0.018599
-0.017180
-0.015692
-0.014135
-0.012518
-0.010847
-0.009131
-0.007380
-0.005611
-0.003839
-0.002089
-0.000385
0.001242
0.002759
0.004133
0.005328
0.006313
0.007061
0.007552
0.007776
0.007735
0.007441
0.006916
0.006189
0.005293
0.004265
-0.030596
-0.031379
-0.032009
-0.032490
-0.032829
-0.033036
-0.033121
-0.033094
-0.032964
-0.032738
-0.032423
-0.032024
-0.031543
-0.030983
-0.030345
-0.029631
-0.028840
-0.027972
-0.027027
-0.026005
-0.024906
-0.023728
-0.022472
-0.021137
-0.019723
-0.018232
-0.016663
-0.015016
-0.013298
-0.011515
-0.009673
-0.007784
-0.005862
-0.003924
-0.001993
-0.000098
0.001729
0.003449
0.005023
0.006408
0.007565
0.008458
0.009059
0.009354
0.009340
0.009028
0.008444
0.007620
0.006598
0.005421
-0.032323
-0.033175
-0.033859
-0.034379
-0.034742
-0.034961
-0.035048
-0.035014
-0.034871
-0.034627
-0.034289
-0.033864
-0.033354
-0.032764
-0.032093
-0.031344
-0.030516
-0.029609
-0.028623
-0.027557
-0.026410
-0.025182
-0.023872
-0.022478
-0.021000
-0.019437
-0.017789
-0.016057
-0.014239
-0.012343
-0.010375
-0.008344
-0.006262
-0.004146
-0.002021
0.000086
0.002138
0.004092
0.005901
0.007515
0.008883
0.009960
0.010707
0.011100
0.011130
0.010808
0.010159
0.009223
0.008048
0.006688
-0.034218
-0.035149
-0.035893
-0.036455
-0.036845
-0.037076
-0.037162
-0.037119
-0.036959
-0.036692
-0.036328
-0.035874
-0.035332
-0.034708
-0.034002
-0.033215
-0.032349
-0.031401
-0.030373
-0.029263
-0.028071
-0.026793
-0.025431
-0.023981
-0.022442
-0.020812
-0.019090
-0.017275
-0.015361
-0.013357
-0.011265
-0.009091
-0.006846
-0.004546
-0.002213
0.000124
0.002426
0.004646
0.006731
0.008619
0.010249
0.011559
0.012498
0.013028
0.013132
0.012812
0.012096
0.011030
0.009670
0.008083
-0.036297
-0.037319
-0.038132
-0.038741
-0.039158
-0.039399
-0.039483
-0.039426
-0.039244
-0.038950
-0.038555
-0.038066
-0.037489
-0.036826
-0.036081
-0.035255
-0.034347
-0.033358
-0.032287
-0.031134
-0.029895
-0.028571
-0.027158
-0.025656
-0.024060
-0.022369
-0.020579
-0.018688
-0.016687
-0.014582
-0.012372
-0.010061
-0.007655
-0.005168
-0.002620
-0.000037
0.002539
0.005060
0.007464
0.009681
0.011632
0.013239
0.014432
0.015154
0.015371
0.015078
0.014299
0.013085
0.011504
0.009637
-0.038583
-0.039711
-0.040602
-0.041262
-0.041707
-0.041956
-0.042032
-0.041955
-0.041745
-0.041417
-0.040984
-0.040454
-0.039835
-0.039130
-0.038341
-0.037471
-0.036520
-0.035487
-0.034372
-0.033174
-0.031891
-0.030521
-0.029062
-0.027511
-0.025865
-0.024119
-0.022270
-0.020313
-0.018237
-0.016042
-0.013727
-0.011289
-0.008731
-0.006062
-0.003296
-0.000458
0.002413
0.005267
0.008037
0.010641
0.012984
0.014969
0.016497
0.017485
0.017877
0.017650
0.016821
0.015445
0.013602
0.011391
-0.041103
-0.042353
-0.043332
-0.044049
-0.044521
-0.044773
-0.044834
-0.044729
-0.044482
-0.044111
-0.043630
-0.043052
-0.042383
-0.041628
-0.040790
-0.039871
-0.038872
-0.037792
-0.036631
-0.035388
-0.034061
-0.032647
-0.031145
-0.029551
-0.027860
-0.026069
-0.024170
-0.022159
-0.020026
-0.017758
-0.015354
-0.012807
-0.010114
-0.007275
-0.004300
-0.001206
0.001973
0.005187
0.008368
0.011423
0.014242
0.016700
0.018667
0.020024
0.020678
0.020579
0.019730
0.018184
0.016037
0.013407
-0.043888
-0.045281
-0.046361
-0.047138
-0.047634
-0.047883
-0.047919
-0.047774
-0.047476
-0.047049
-0.046510
-0.045872
-0.045143
-0.044329
-0.043434
-0.042460
-0.041407
-0.040276
-0.039066
-0.037776
-0.036404
-0.034949
-0.033407
-0.031774
-0.030047
-0.028219
-0.026284
-0.024234
-0.022060
-0.019742
-0.017273
-0.014643
-0.011839
-0.008855
-0.005689
-0.002351
0.001137
0.004730
0.008361
0.011933
0.015318
0.018364
0.020900
0.022759
0.023798
0.023923
0.023108
0.021400
0.018908
0.015775
-0.046980
-0.048542
-0.049736
-0.050575
-0.051090
-0.051324
-0.051319
-0.051116
-0.050751
-0.050251
-0.049638
-0.048925
-0.048124
-0.047240
-0.046277
-0.045239
-0.044125
-0.042936
-0.041672
-0.040332
-0.038915
-0.037418
-0.035838
-0.034172
-0.032416
-0.030562
-0.028603
-0.026531
-0.024333
-0.021992
-0.019489
-0.016808
-0.013929
-0.010835
-0.007512
-0.003955
-0.000173
0.003803
0.007913
0.012061
0.016107
0.019869
0.023131
0.025664
0.027255
0.027743
0.027054
0.025215
0.022346
0.018622
-0.050432
-0.052194
-0.053516
-0.054417
-0.054941
-0.055140
-0.055072
-0.054788
-0.054331
-0.053736
-0.053026
-0.052220
-0.051329
-0.050360
-0.049317
-0.048202
-0.047018
-0.045763
-0.044439
-0.043044
-0.041578
-0.040038
-0.038423
-0.036727
-0.034948
-0.033078
-0.031109
-0.029031
-0.026831
-0.024493
-0.021990
-0.019297
-0.016387
-0.013229
-0.009795
-0.006062
-0.002019
0.002324
0.006925
0.011697
0.016494
0.021111
0.025281
0.028700
0.031062
0.032109
0.031690
0.029789
0.026530
0.022123
-0.054314
-0.056312
-0.057777
-0.058736
-0.059248
-0.059384
-0.059220
-0.058820
-0.058239
-0.057517
-0.056684
-0.055760
-0.054757
-0.053683
-0.052543
-0.051338
-0.050070
-0.048739
-0.047346
-0.045890
-0.044370
-0.042785
-0.041132
-0.039410
-0.037612
-0.035734
-0.033767
-0.031700
-0.029519
-0.027208
-0.024739
-0.022077
-0.019184
-0.016017
-0.012531
-0.008680
-0.004427
0.000246
0.005326
0.010747
0.016374
0.021983
0.027261
0.031817
0.035227
0.037101
0.037164
0.035326
0.031694
0.026518
-0.058718
-0.060996
-0.062617
-0.063620
-0.064087
-0.064117
-0.063808
-0.063244
-0.062493
-0.061603
-0.060611
-0.059536
-0.058394
-0.057191
-0.055932
-0.054619
-0.053252
-0.051832
-0.050359
-0.048832
-0.047252
-0.045617
-0.043926
-0.042176
-0.040363
-0.038483
-0.036527
-0.034484
-0.032341
-0.030078
-0.027673
-0.025084
-0.022258
-0.019139
-0.015665
-0.011765
-0.007370
-0.002425
0.003098
0.009170
0.015682
0.022411
0.029003
0.034979
0.039773
0.042820
0.043666
0.042091
0.038153
0.032138
-0.063765
-0.066379
-0.068165
-0.069183
-0.069552
-0.069408
-0.068882
-0.068085
-0.067101
-0.065990
-0.064790
-0.063525
-0.062209
-0.060848
-0.059446
-0.058003
-0.056519
-0.054994
-0.053428
-0.051821
-0.050172
-0.048481
-0.046746
-0.044967
-0.043139
-0.041260
-0.039321
-0.037312
-0.035221
-0.033026
-0.030702
-0.028219
-0.025503
-0.022485
-0.019084
-0.015205
-0.010743
-0.005597
0.000311
0.007009
0.014433
0.022383
0.030489
0.038187
0.044757
0.049410
0.051447
0.050435
0.046329
0.039430
-0.069625
-0.072643
-0.074592
-0.075570
-0.075750
-0.075329
-0.074483
-0.073356
-0.072055
-0.070648
-0.069181
-0.067675
-0.066144
-0.064592
-0.063018
-0.061422
-0.059802
-0.058157
-0.056485
-0.054786
-0.053059
-0.051304
-0.049520
-0.047708
-0.045863
-0.043984
-0.042064
-0.040095
-0.038061
-0.035945
-0.033716
-0.031351
-0.028776
-0.025897
-0.022617
-0.018815
-0.014352
-0.009077
-0.002851
0.004426
0.012760
0.022006
0.031803
0.041531
0.050310
0.057091
0.060847
0.060830
0.056793
0.049004
-0.076536
-0.080040
-0.082129
-0.082964
-0.082811
-0.081952
-0.080633
-0.079042
-0.077310
-0.075516
-0.073706
-0.071901
-0.070109
-0.068328
-0.066554
-0.064782
-0.063007
-0.061226
-0.059435
-0.057635
-0.055822
-0.053997
-0.052160
-0.050310
-0.048445
-0.046564
-0.044661
-0.042728
-0.040753
-0.038716
-0.036588
-0.034331
-0.031905
-0.029178
-0.026039
-0.022345
-0.017922
-0.012569
-0.006080
0.001727
0.010952
0.021537
0.033175
0.045226
0.056678
0.066197
0.072342
0.073914
0.070320
0.061698
-0.084842
-0.088934
-0.091093
-0.091600
-0.090874
-0.089334
-0.087321
-0.085081
-0.082769
-0.080473
-0.078234
-0.076065
-0.073962
-0.071917
-0.069917
-0.067950
-0.066006
-0.064078
-0.062163
-0.060256
-0.058354
-0.056456
-0.054562
-0.052672
-0.050784
-0.048897
-0.047007
-0.045105
-0.043180
-0.041212
-0.039171
-0.037010
-0.034706
-0.032111
-0.029097
-0.025500
-0.021115
-0.015693
-0.008964
-0.000654
0.009449
0.021403
0.035004
0.049659
0.064268
0.077223
0.086594
0.090561
0.087976
0.078670
-0.095068
-0.099860
-0.101922
-0.101764
-0.100075
-0.097483
-0.094463
-0.091328
-0.088252
-0.085321
-0.082559
-0.079960
-0.077505
-0.075169
-0.072927
-0.070756
-0.068639
-0.066565
-0.064527
-0.062518
-0.060532
-0.058565
-0.056618
-0.054689
-0.052779
-0.050884
-0.049001
-0.047121
-0.045232
-0.043315
-0.041337
-0.039249
-0.037001
-0.034489
-0.031544
-0.027985
-0.023580
-0.018039
-0.011036
-0.002205
0.008797
0.022167
0.037847
0.055374
0.073653
0.090849
0.104497
0.111965
0.111242
0.101549
-0.108053
-0.113642
-0.115224
-0.113793
-0.110504
-0.106310
-0.101855
-0.097513
-0.093459
-0.089752
-0.086383
-0.083306
-0.080471
-0.077839
-0.075362
-0.072997
-0.070722
-0.068517
-0.066375
-0.064281
-0.062229
-0.060206
-0.058216
-0.056259
-0.054332
-0.052432
-0.050553
-0.048688
-0.046821
-0.044928
-0.042976
-0.040912
-0.038663
-0.036152
-0.033180
-0.029555
-0.025019
-0.019242
-0.011869
-0.002440
0.009552
0.024433
0.042316
0.063003
0.085516
0.107912
0.127200
0.139731
0.142201
0.132693
-0.125234
-0.131576
-0.131835
-0.128025
-0.122120
-0.115531
-0.109084
-0.103178
-0.097927
-0.093328
-0.089307
-0.085738
-0.082531
-0.079641
-0.076974
-0.074450
-0.072066
-0.069784
-0.067573
-0.065425
-0.063329
-0.061279
-0.059272
-0.057305
-0.055375
-0.053478
-0.051607
-0.049752
-0.047894
-0.046008
-0.044051
-0.041965
-0.039661
-0.037051
-0.033937
-0.030104
-0.025269
-0.019075
-0.011098
-0.000840
0.012211
0.028683
0.048890
0.073082
0.100478
0.129252
0.156028
0.175958
0.183817
0.175652
-0.149235
-0.155763
-0.152840
-0.144666
-0.134563
-0.124512
-0.115418
-0.107611
-0.100996
-0.095461
-0.090843
-0.086844
-0.083397
-0.080319
-0.077521
-0.074928
-0.072496
-0.070184
-0.067963
-0.065815
-0.063728
-0.061693
-0.059705
-0.057760
-0.055853
-0.053978
-0.052127
-0.050286
-0.048434
-0.046539
-0.044553
-0.042406
-0.039999
-0.037218
-0.033874
-0.029727
-0.024469
-0.017708
-0.008964
0.002334
0.016835
0.035243
0.058164
0.085972
0.118754
0.155356
0.192175
0.223184
0.240342
0.236023
-0.185209
-0.189597
-0.179410
-0.163401
-0.146798
-0.132028
-0.119651
-0.109812
-0.101872
-0.095581
-0.090475
-0.086241
-0.082661
-0.079545
-0.076763
-0.074219
-0.071851
-0.069611
-0.067466
-0.065394
-0.063382
-0.061418
-0.059498
-0.057615
-0.055764
-0.053938
-0.052127
-0.050312
-0.048470
-0.046562
-0.044534
-0.042304
-0.039763
-0.036766
-0.033136
-0.028611
-0.022854
-0.015437
-0.005829
0.006614
0.022656
0.043166
0.069065
0.101237
0.140296
0.185892
0.235913
0.283897
0.317764
0.323057
-0.243959
-0.238227
-0.211976
-0.182483
-0.156452
-0.135979
-0.120248
-0.108480
-0.099613
-0.092883
-0.087662
-0.083497
-0.080072
-0.077156
-0.074590
-0.072265
-0.070105
-0.068059
-0.066094
-0.064188
-0.062325
-0.060498
-0.058699
-0.056924
-0.055167
-0.053420
-0.051672
-0.049903
-0.048085
-0.046173
-0.044107
-0.041797
-0.039119
-0.035913
-0.032002
-0.027106
-0.020863
-0.012816
-0.002390
0.011128
0.028610
0.051111
0.079886
0.116393
0.162210
0.218646
0.285638
0.358851
0.423744
0.452631
-0.349283
-0.307534
-0.247363
-0.196833
-0.159329
-0.133021
-0.114777
-0.102120
-0.093217
-0.086827
-0.082107
-0.078491
-0.075604
-0.073191
-0.071084
-0.069170
-0.067376
-0.065655
-0.063977
-0.062323
-0.060683
-0.059051
-0.057424
-0.055799
-0.054172
-0.052536
-0.050878
-0.049178
-0.047406
-0.045516
-0.043439
-0.041081
-0.038310
-0.034961
-0.030852
-0.025690
-0.019101
-0.010607
0.000394
0.014663
0.033158
0.057094
0.088038
0.128051
0.179889
0.247185
0.334178
0.443201
0.564700
0.653037
-0.553085
-0.394756
-0.271949
-0.194415
-0.147372
-0.118721
-0.100932
-0.089640
-0.082294
-0.077376
-0.073962
-0.071474
-0.069549
-0.067956
-0.066545
-0.065225
-0.063939
-0.062653
-0.061348
-0.060015
-0.058653
-0.057262
-0.055844
-0.054401
-0.052930
-0.051430
-0.049887
-0.048285
-0.046592
-0.044761
-0.042725
-0.040388
-0.037613
-0.034254
-0.030111
-0.024895
-0.018233
-0.009648
0.001463
0.015873
0.034569
0.058844
0.090450
0.131882
0.186932
0.261726
0.366513
0.517607
0.732247
0.976935
-0.953723
-0.443529
-0.241637
-0.154102
-0.111928
-0.089991
-0.078011
-0.071285
-0.067451
-0.065241
-0.063934
-0.063108
-0.062510
-0.061989
-0.061454
-0.060855
-0.060168
-0.059383
-0.058499
-0.057524
-0.056467
-0.055337
-0.054144
-0.052897
-0.051598
-0.050249
-0.048843
-0.047365
-0.045789
-0.044070
-0.042147
-0.039928
-0.037292
-0.034100
-0.030152
-0.025179
-0.018830
-0.010652
-0.000072
0.013638
0.031415
0.054483
0.084513
0.123950
0.176744
0.250141
0.359208
0.537914
0.862376
1.494545
