# vtk DataFile Version 3.0
Scalar Field
ASCII
DATASET RECTILINEAR_GRID
DIMENSIONS 50 50 1
X_COORDINATES 50 double
0.100000 0.300000 0.500000 0.700000 0.900000 1.100000 1.300000 1.500000 1.700000 1.900000 2.100000 2.300000 2.500000 2.700000 2.900000 3.100000 3.300000 3.500000 3.700000 3.900000 4.100000 4.300000 4.500000 4.700000 4.900000 5.100000 5.300000 5.500000 5.700000 5.900000 6.100000 6.300000 6.500000 6.700000 6.900000 7.100000 7.300000 7.500000 7.700000 7.900000 8.100000 8.300000 8.500000 8.700000 8.900000 9.100000 9.300000 9.500000 9.700000 9.900000 
Y_COORDINATES 50 double
0.100000 0.300000 0.500000 0.700000 0.900000 1.100000 1.300000 1.500000 1.700000 1.900000 2.100000 2.300000 2.500000 2.700000 2.900000 3.100000 3.300000 3.500000 3.700000 3.900000 4.100000 4.300000 4.500000 4.700000 4.900000 5.100000 5.300000 5.500000 5.700000 5.900000 6.100000 6.300000 6.500000 6.700000 6.900000 7.100000 7.300000 7.500000 7.700000 7.900000 8.100000 8.300000 8.500000 8.700000 8.900000 9.100000 9.300000 9.500000 9.700000 9.900000 
Z_COORDINATES 1 double
0.0
POINT_DATA 2500
SCALARS Skalarfeld double 1
LOOKUP_TABLE default
-0.050152
-0.050120
-0.049978
-0.049726
-0.049365
-0.048895
-0.048318
-0.047636
-0.046852
-0.045968
-0.044987
-0.043913
-0.042748
-0.041498
-0.040166
-0.038758
-0.037279
-0.035733
-0.034127
-0.032466
-0.030757
-0.029007
-0.027222
-0.025409
-0.023576
-0.021730
-0.019878
-0.018028
-0.016189
-0.014367
-0.012572
-0.010810
-0.009090
-0.007419
-0.005806
-0.004257
-0.002780
-0.001382
-0.000070
0.001149
0.002270
0.003287
0.004195
0.004989
0.005664
0.006219
0.006648
0.006951
0.007126
0.007172
-0.050185
-0.050153
-0.050011
-0.049759
-0.049397
-0.048927
-0.048350
-0.047668
-0.046884
-0.045999
-0.045018
-0.043942
-0.042777
-0.041526
-0.040193
-0.038784
-0.037303
-0.035756
-0.034148
-0.032486
-0.030775
-0.029023
-0.027236
-0.025421
-0.023585
-0.021736
-0.019882
-0.018030
-0.016187
-0.014363
-0.012565
-0.010800
-0.009077
-0.007403
-0.005786
-0.004235
-0.002755
-0.001355
-0.000040
0.001181
0.002305
0.003324
0.004233
0.005029
0.005706
0.006262
0.006692
0.006996
0.007171
0.007218
-0.050329
-0.050298
-0.050156
-0.049903
-0.049540
-0.049068
-0.048489
-0.047804
-0.047017
-0.046129
-0.045143
-0.044063
-0.042893
-0.041637
-0.040298
-0.038882
-0.037395
-0.035840
-0.034225
-0.032554
-0.030835
-0.029074
-0.027278
-0.025453
-0.023608
-0.021749
-0.019884
-0.018021
-0.016168
-0.014333
-0.012524
-0.010748
-0.009015
-0.007330
-0.005703
-0.004142
-0.002652
-0.001242
0.000081
0.001311
0.002442
0.003468
0.004385
0.005186
0.005868
0.006427
0.006861
0.007167
0.007344
0.007390
-0.050587
-0.050556
-0.050413
-0.050158
-0.049793
-0.049318
-0.048735
-0.048045
-0.047252
-0.046357
-0.045364
-0.044276
-0.043097
-0.041830
-0.040481
-0.039054
-0.037553
-0.035986
-0.034357
-0.032672
-0.030937
-0.029161
-0.027348
-0.025506
-0.023644
-0.021767
-0.019884
-0.018003
-0.016132
-0.014278
-0.012450
-0.010656
-0.008903
-0.007201
-0.005556
-0.003977
-0.002471
-0.001045
0.000294
0.001538
0.002683
0.003721
0.004649
0.005460
0.006150
0.006717
0.007156
0.007466
0.007644
0.007691
-0.050959
-0.050928
-0.050784
-0.050527
-0.050158
-0.049678
-0.049088
-0.048392
-0.047590
-0.046685
-0.045681
-0.044581
-0.043388
-0.042107
-0.040742
-0.039298
-0.037780
-0.036194
-0.034545
-0.032839
-0.031083
-0.029283
-0.027447
-0.025581
-0.023694
-0.021791
-0.019883
-0.017975
-0.016077
-0.014197
-0.012342
-0.010521
-0.008743
-0.007014
-0.005344
-0.003740
-0.002210
-0.000761
0.000599
0.001864
0.003028
0.004084
0.005027
0.005852
0.006554
0.007131
0.007578
0.007893
0.008074
0.008122
-0.051447
-0.051416
-0.051270
-0.051010
-0.050636
-0.050149
-0.049552
-0.048845
-0.048032
-0.047115
-0.046096
-0.044980
-0.043770
-0.042470
-0.041084
-0.039618
-0.038077
-0.036465
-0.034790
-0.033056
-0.031272
-0.029442
-0.027576
-0.025678
-0.023758
-0.021823
-0.019880
-0.017939
-0.016006
-0.014091
-0.012201
-0.010346
-0.008533
-0.006770
-0.005067
-0.003431
-0.001869
-0.000390
0.000998
0.002291
0.003479
0.004558
0.005521
0.006364
0.007082
0.007672
0.008129
0.008451
0.008637
0.008685
-0.052052
-0.052021
-0.051873
-0.051609
-0.051228
-0.050734
-0.050126
-0.049408
-0.048580
-0.047647
-0.046611
-0.045474
-0.044242
-0.042919
-0.041507
-0.040014
-0.038443
-0.036801
-0.035093
-0.033326
-0.031506
-0.029640
-0.027735
-0.025798
-0.023838
-0.021861
-0.019877
-0.017893
-0.015918
-0.013959
-0.012027
-0.010128
-0.008272
-0.006468
-0.004724
-0.003047
-0.001447
0.000069
0.001493
0.002818
0.004038
0.005145
0.006134
0.007000
0.007737
0.008342
0.008812
0.009143
0.009334
0.009384
-0.052777
-0.052745
-0.052595
-0.052325
-0.051938
-0.051434
-0.050814
-0.050081
-0.049237
-0.048284
-0.047226
-0.046066
-0.044808
-0.043456
-0.042014
-0.040488
-0.038883
-0.037204
-0.035457
-0.033649
-0.031787
-0.029877
-0.027926
-0.025943
-0.023934
-0.021909
-0.019874
-0.017839
-0.015812
-0.013803
-0.011818
-0.009868
-0.007962
-0.006107
-0.004313
-0.002589
-0.000942
0.000618
0.002085
0.003450
0.004707
0.005848
0.006868
0.007761
0.008522
0.009146
0.009631
0.009973
0.010170
0.010222
-0.053623
-0.053591
-0.053438
-0.053162
-0.052766
-0.052251
-0.051617
-0.050867
-0.050004
-0.049029
-0.047946
-0.046758
-0.045469
-0.044084
-0.042607
-0.041043
-0.039397
-0.037675
-0.035883
-0.034028
-0.032116
-0.030154
-0.028151
-0.026113
-0.024048
-0.021965
-0.019872
-0.017778
-0.015691
-0.013621
-0.011576
-0.009566
-0.007600
-0.005686
-0.003835
-0.002054
-0.000353
0.001260
0.002777
0.004189
0.005489
0.006671
0.007727
0.008652
0.009440
0.010087
0.010590
0.010944
0.011149
0.011203
-0.054594
-0.054562
-0.054405
-0.054123
-0.053717
-0.053189
-0.052539
-0.051770
-0.050884
-0.049884
-0.048772
-0.047552
-0.046229
-0.044806
-0.043288
-0.041680
-0.039988
-0.038217
-0.036373
-0.034464
-0.032495
-0.030475
-0.028410
-0.026310
-0.024181
-0.022032
-0.019872
-0.017710
-0.015554
-0.013415
-0.011301
-0.009221
-0.007186
-0.005205
-0.003287
-0.001441
0.000323
0.001996
0.003570
0.005037
0.006388
0.007616
0.008714
0.009676
0.010496
0.011170
0.011693
0.012063
0.012276
0.012333
-0.055692
-0.055660
-0.055499
-0.055210
-0.054794
-0.054251
-0.053583
-0.052792
-0.051881
-0.050852
-0.049708
-0.048453
-0.047090
-0.045624
-0.044061
-0.042403
-0.040659
-0.038832
-0.036930
-0.034960
-0.032927
-0.030841
-0.028707
-0.026536
-0.024334
-0.022111
-0.019875
-0.017636
-0.015402
-0.013184
-0.010991
-0.008834
-0.006720
-0.004662
-0.002668
-0.000748
0.001087
0.002830
0.004470
0.005998
0.007407
0.008688
0.009835
0.010839
0.011696
0.012400
0.012947
0.013334
0.013557
0.013617
-0.056923
-0.056891
-0.056725
-0.056428
-0.055999
-0.055440
-0.054753
-0.053938
-0.052999
-0.051938
-0.050758
-0.049463
-0.048056
-0.046543
-0.044928
-0.043216
-0.041413
-0.039524
-0.037557
-0.035518
-0.033415
-0.031254
-0.029044
-0.026793
-0.024510
-0.022203
-0.019882
-0.017557
-0.015236
-0.012930
-0.010649
-0.008402
-0.006201
-0.004056
-0.001977
0.000027
0.001943
0.003764
0.005478
0.007077
0.008551
0.009893
0.011094
0.012147
0.013045
0.013784
0.014358
0.014764
0.014999
0.015063
-0.058289
-0.058257
-0.058087
-0.057781
-0.057339
-0.056762
-0.056052
-0.055211
-0.054241
-0.053145
-0.051925
-0.050586
-0.049132
-0.047566
-0.045894
-0.044122
-0.042254
-0.040297
-0.038258
-0.036143
-0.033961
-0.031718
-0.029423
-0.027084
-0.024710
-0.022311
-0.019896
-0.017474
-0.015056
-0.012652
-0.010272
-0.007928
-0.005629
-0.003386
-0.001211
0.000885
0.002893
0.004801
0.006599
0.008277
0.009825
0.011235
0.012498
0.013605
0.014551
0.015329
0.015934
0.016362
0.016610
0.016677
-0.059796
-0.059763
-0.059588
-0.059272
-0.058816
-0.058220
-0.057486
-0.056616
-0.055612
-0.054478
-0.053215
-0.051828
-0.050321
-0.048698
-0.046964
-0.045125
-0.043186
-0.041154
-0.039036
-0.036838
-0.034569
-0.032235
-0.029847
-0.027411
-0.024938
-0.022437
-0.019917
-0.017390
-0.014864
-0.012352
-0.009863
-0.007409
-0.005001
-0.002651
-0.000370
0.001831
0.003940
0.005946
0.007837
0.009604
0.011235
0.012721
0.014053
0.015222
0.016221
0.017043
0.017682
0.018135
0.018398
0.018469
-0.061448
-0.061415
-0.061235
-0.060909
-0.060437
-0.059820
-0.059060
-0.058159
-0.057118
-0.055942
-0.054632
-0.053193
-0.051628
-0.049943
-0.048142
-0.046230
-0.044214
-0.042100
-0.039895
-0.037607
-0.035242
-0.032810
-0.030319
-0.027778
-0.025196
-0.022583
-0.019949
-0.017305
-0.014661
-0.012029
-0.009421
-0.006846
-0.004319
-0.001849
0.000549
0.002865
0.005087
0.007201
0.009197
0.011062
0.012785
0.014357
0.015766
0.017004
0.018063
0.018934
0.019613
0.020093
0.020373
0.020450
-0.063251
-0.063218
-0.063032
-0.062695
-0.062206
-0.061567
-0.060779
-0.059844
-0.058765
-0.057543
-0.056182
-0.054687
-0.053060
-0.051307
-0.049432
-0.047442
-0.045342
-0.043140
-0.040841
-0.038454
-0.035986
-0.033446
-0.030844
-0.028187
-0.025486
-0.022751
-0.019993
-0.017222
-0.014449
-0.011687
-0.008946
-0.006240
-0.003581
-0.000980
0.001548
0.003992
0.006337
0.008572
0.010683
0.012657
0.014484
0.016151
0.017647
0.018962
0.020087
0.021014
0.021736
0.022248
0.022546
0.022629
-0.065211
-0.065178
-0.064986
-0.064637
-0.064131
-0.063468
-0.062650
-0.061679
-0.060557
-0.059287
-0.057872
-0.056315
-0.054622
-0.052795
-0.050842
-0.048767
-0.046577
-0.044278
-0.041878
-0.039384
-0.036804
-0.034148
-0.031425
-0.028643
-0.025813
-0.022946
-0.020052
-0.017143
-0.014230
-0.011325
-0.008441
-0.005590
-0.002786
-0.000042
0.002628
0.005212
0.007694
0.010062
0.012300
0.014397
0.016338
0.018110
0.019703
0.021104
0.022303
0.023293
0.024064
0.024611
0.024930
0.025019
-0.067334
-0.067301
-0.067104
-0.066742
-0.066216
-0.065528
-0.064679
-0.063669
-0.062502
-0.061180
-0.059707
-0.058085
-0.056320
-0.054415
-0.052377
-0.050211
-0.047923
-0.045521
-0.043011
-0.040402
-0.037703
-0.034921
-0.032067
-0.029150
-0.026181
-0.023171
-0.020130
-0.017071
-0.014005
-0.010946
-0.007906
-0.004898
-0.001936
0.000965
0.003792
0.006529
0.009162
0.011676
0.014055
0.016286
0.018354
0.020244
0.021944
0.023441
0.024724
0.025783
0.026609
0.027196
0.027539
0.027635
-0.069627
-0.069595
-0.069391
-0.069016
-0.068471
-0.067756
-0.066872
-0.065822
-0.064607
-0.063230
-0.061695
-0.060004
-0.058161
-0.056173
-0.054044
-0.051780
-0.049388
-0.046875
-0.044248
-0.041515
-0.038686
-0.035769
-0.032775
-0.029713
-0.026594
-0.023429
-0.020230
-0.017009
-0.013778
-0.010551
-0.007342
-0.004163
-0.001030
0.002043
0.005040
0.007945
0.010744
0.013418
0.015954
0.018333
0.020542
0.022563
0.024382
0.025987
0.027363
0.028499
0.029387
0.030018
0.030387
0.030492
-0.072097
-0.072065
-0.071855
-0.071467
-0.070901
-0.070158
-0.069239
-0.068146
-0.066881
-0.065445
-0.063843
-0.062078
-0.060155
-0.058077
-0.055851
-0.053483
-0.050979
-0.048347
-0.045594
-0.042729
-0.039761
-0.036700
-0.033555
-0.030337
-0.027056
-0.023725
-0.020356
-0.016960
-0.013552
-0.010144
-0.006751
-0.003387
-0.000068
0.003191
0.006374
0.009463
0.012443
0.015295
0.018001
0.020545
0.022909
0.025076
0.027028
0.028752
0.030232
0.031456
0.032413
0.033094
0.033493
0.033608
-0.074752
-0.074722
-0.074505
-0.074103
-0.073516
-0.072743
-0.071787
-0.070649
-0.069330
-0.067833
-0.066161
-0.064318
-0.062307
-0.060135
-0.057806
-0.055326
-0.052703
-0.049944
-0.047057
-0.044051
-0.040935
-0.037718
-0.034412
-0.031027
-0.027574
-0.024065
-0.020512
-0.016930
-0.013330
-0.009727
-0.006136
-0.002572
0.000949
0.004410
0.007795
0.011085
0.014263
0.017309
0.020205
0.022930
0.025466
0.027794
0.029895
0.031752
0.033349
0.034671
0.035706
0.036443
0.036876
0.037002
-0.077600
-0.077572
-0.077349
-0.076933
-0.076323
-0.075520
-0.074526
-0.073340
-0.071965
-0.070403
-0.068657
-0.066731
-0.064629
-0.062355
-0.059917
-0.057319
-0.054569
-0.051675
-0.048645
-0.045488
-0.042214
-0.038832
-0.035354
-0.031790
-0.028152
-0.024453
-0.020705
-0.016921
-0.013116
-0.009304
-0.005501
-0.001721
0.002018
0.005699
0.009304
0.012813
0.016207
0.019467
0.022570
0.025495
0.028223
0.030730
0.032997
0.035003
0.036731
0.038163
0.039285
0.040086
0.040557
0.040695
-0.080650
-0.080624
-0.080395
-0.079964
-0.079332
-0.078498
-0.077463
-0.076228
-0.074795
-0.073165
-0.071341
-0.069328
-0.067129
-0.064749
-0.062194
-0.059470
-0.056586
-0.053548
-0.050366
-0.047049
-0.043606
-0.040048
-0.036387
-0.032633
-0.028798
-0.024896
-0.020939
-0.016941
-0.012916
-0.008880
-0.004848
-0.000836
0.003138
0.007057
0.010899
0.014647
0.018278
0.021771
0.025103
0.028250
0.031189
0.033896
0.036347
0.038521
0.040396
0.041952
0.043174
0.044047
0.044561
0.044714
-0.083911
-0.083887
-0.083653
-0.083208
-0.082553
-0.081687
-0.080611
-0.079325
-0.077830
-0.076129
-0.074224
-0.072119
-0.069818
-0.067325
-0.064647
-0.061791
-0.058763
-0.055573
-0.052229
-0.048742
-0.045120
-0.041375
-0.037519
-0.033563
-0.029519
-0.025400
-0.021221
-0.016994
-0.012735
-0.008459
-0.004182
0.000079
0.004307
0.008481
0.012582
0.016588
0.020478
0.024226
0.027809
0.031201
0.034375
0.037304
0.039963
0.042325
0.044366
0.046063
0.047397
0.048352
0.048916
0.049085
-0.087392
-0.087372
-0.087133
-0.086674
-0.085996
-0.085098
-0.083979
-0.082641
-0.081083
-0.079308
-0.077318
-0.075116
-0.072707
-0.070095
-0.067287
-0.064290
-0.061111
-0.057760
-0.054245
-0.050576
-0.046765
-0.042821
-0.038758
-0.034587
-0.030322
-0.025974
-0.021558
-0.017088
-0.012579
-0.008047
-0.003508
0.001020
0.005519
0.009969
0.014349
0.018636
0.022807
0.026836
0.030695
0.034357
0.037792
0.040970
0.043861
0.046435
0.048664
0.050521
0.051983
0.053032
0.053653
0.053841
-0.091104
-0.091089
-0.090845
-0.090373
-0.089673
-0.088742
-0.087580
-0.086188
-0.084565
-0.082713
-0.080634
-0.078332
-0.075809
-0.073072
-0.070127
-0.066981
-0.063642
-0.060119
-0.056422
-0.052562
-0.048549
-0.044396
-0.040114
-0.035716
-0.031215
-0.026624
-0.021957
-0.017229
-0.012456
-0.007652
-0.002834
0.001979
0.006769
0.011515
0.016196
0.020788
0.025266
0.029601
0.033765
0.037726
0.041451
0.044907
0.048059
0.050873
0.053315
0.055354
0.056964
0.058120
0.058807
0.059018
-0.095056
-0.095047
-0.094801
-0.094317
-0.093594
-0.092631
-0.091427
-0.089980
-0.088290
-0.086359
-0.084188
-0.081779
-0.079138
-0.076269
-0.073179
-0.069875
-0.066367
-0.062663
-0.058773
-0.054710
-0.050484
-0.046108
-0.041595
-0.036956
-0.032206
-0.027359
-0.022427
-0.017427
-0.012372
-0.007280
-0.002167
0.002950
0.008051
0.013115
0.018120
0.023042
0.027852
0.032522
0.037021
0.041313
0.045362
0.049129
0.052576
0.055662
0.058347
0.060596
0.062375
0.063656
0.064419
0.064656
-0.099260
-0.099259
-0.099011
-0.098516
-0.097773
-0.096779
-0.095532
-0.094030
-0.092272
-0.090259
-0.087992
-0.085474
-0.082708
-0.079700
-0.076457
-0.072987
-0.069299
-0.065403
-0.061310
-0.057032
-0.052580
-0.047969
-0.043211
-0.038319
-0.033307
-0.028188
-0.022977
-0.017689
-0.012339
-0.006942
-0.001515
0.003924
0.009357
0.014761
0.020114
0.025390
0.030562
0.035599
0.040465
0.045123
0.049533
0.053651
0.057431
0.060827
0.063792
0.066282
0.068258
0.069684
0.070536
0.070804
-0.103726
-0.103734
-0.103487
-0.102984
-0.102223
-0.101199
-0.099910
-0.098353
-0.096527
-0.094430
-0.092064
-0.089431
-0.086535
-0.083381
-0.079976
-0.076330
-0.072452
-0.068352
-0.064043
-0.059538
-0.054848
-0.049989
-0.044972
-0.039813
-0.034524
-0.029121
-0.023616
-0.018026
-0.012364
-0.006646
-0.000888
0.004892
0.010675
0.016441
0.022167
0.027826
0.033390
0.038825
0.044096
0.049160
0.053973
0.058485
0.062644
0.066394
0.069682
0.072453
0.074658
0.076255
0.077212
0.077517
-0.108466
-0.108486
-0.108242
-0.107734
-0.106957
-0.105907
-0.104578
-0.102968
-0.101072
-0.098891
-0.096422
-0.093670
-0.090636
-0.087328
-0.083753
-0.079920
-0.075840
-0.071525
-0.066987
-0.062241
-0.057300
-0.052177
-0.046889
-0.041448
-0.035870
-0.030167
-0.024355
-0.018447
-0.012458
-0.006404
-0.000298
0.005841
0.011995
0.018145
0.024268
0.030338
0.036325
0.042195
0.047909
0.053423
0.058686
0.063643
0.068233
0.072392
0.076053
0.079152
0.081628
0.083427
0.084510
0.084860
-0.113490
-0.113525
-0.113289
-0.112780
-0.111991
-0.110918
-0.109553
-0.107891
-0.105927
-0.103659
-0.101086
-0.098209
-0.095032
-0.091561
-0.087806
-0.083775
-0.079480
-0.074936
-0.070155
-0.065154
-0.059946
-0.054546
-0.048971
-0.043235
-0.037352
-0.031337
-0.025203
-0.018964
-0.012634
-0.006228
0.000241
0.006757
0.013302
0.019857
0.026402
0.032910
0.039352
0.045694
0.051894
0.057906
0.063673
0.069133
0.074216
0.078847
0.082946
0.086431
0.089229
0.091270
0.092504
0.092908
-0.118810
-0.118865
-0.118641
-0.118135
-0.117342
-0.116251
-0.114854
-0.113144
-0.111113
-0.108758
-0.106077
-0.103071
-0.099743
-0.096100
-0.092153
-0.087911
-0.083388
-0.078600
-0.073561
-0.068288
-0.062798
-0.057107
-0.051230
-0.045183
-0.038982
-0.032640
-0.026170
-0.019587
-0.012903
-0.006130
0.000717
0.007624
0.014578
0.021560
0.028549
0.035524
0.042454
0.049306
0.056037
0.062598
0.068929
0.074959
0.080608
0.085787
0.090399
0.094346
0.097529
0.099864
0.101282
0.101754
-0.124438
-0.124516
-0.124310
-0.123816
-0.123025
-0.121924
-0.120502
-0.118749
-0.116654
-0.114213
-0.111421
-0.108280
-0.104793
-0.100968
-0.096815
-0.092348
-0.087582
-0.082533
-0.077219
-0.071658
-0.065869
-0.059868
-0.053674
-0.047302
-0.040768
-0.034086
-0.027268
-0.020328
-0.013277
-0.006126
0.001112
0.008427
0.015804
0.023230
0.030687
0.038154
0.045604
0.053005
0.060314
0.067481
0.074441
0.081117
0.087417
0.093237
0.098457
0.102956
0.106609
0.109304
0.110950
0.111508
-0.130383
-0.130492
-0.130312
-0.129839
-0.129060
-0.127959
-0.126521
-0.124731
-0.122577
-0.120050
-0.117146
-0.113864
-0.110209
-0.106189
-0.101817
-0.097108
-0.092079
-0.086751
-0.081142
-0.075275
-0.069168
-0.062841
-0.056313
-0.049600
-0.042719
-0.035683
-0.028505
-0.021197
-0.013768
-0.006229
0.001411
0.009144
0.016959
0.024844
0.032787
0.040770
0.048770
0.056757
0.064692
0.072523
0.080185
0.087593
0.094644
0.101214
0.107162
0.112330
0.116561
0.119704
0.121637
0.122303
-0.136655
-0.136802
-0.136659
-0.136220
-0.135468
-0.134381
-0.132939
-0.131122
-0.128914
-0.126304
-0.123285
-0.119855
-0.116021
-0.111792
-0.107183
-0.102212
-0.096901
-0.091271
-0.085347
-0.079151
-0.072706
-0.066034
-0.059154
-0.052085
-0.044842
-0.037440
-0.029891
-0.022205
-0.014390
-0.006454
0.001597
0.009756
0.018017
0.026374
0.034817
0.043335
0.051911
0.060519
0.069125
0.077681
0.086121
0.094357
0.102274
0.109729
0.116549
0.122539
0.127490
0.131200
0.133501
0.134309
-0.143264
-0.143459
-0.143367
-0.142978
-0.142270
-0.141215
-0.139785
-0.137955
-0.135702
-0.133011
-0.129874
-0.126290
-0.122263
-0.117808
-0.112941
-0.107686
-0.102066
-0.096110
-0.089845
-0.083297
-0.076492
-0.069453
-0.062204
-0.054761
-0.047143
-0.039363
-0.031433
-0.023360
-0.015152
-0.006814
0.001651
0.010240
0.018953
0.027787
0.036740
0.045806
0.054976
0.064234
0.073553
0.082892
0.092190
0.101358
0.110272
0.118771
0.126648
0.133655
0.139517
0.143958
0.146740
0.147738
-0.150215
-0.150472
-0.150448
-0.150131
-0.149492
-0.148493
-0.147097
-0.145270
-0.142983
-0.140217
-0.136959
-0.133209
-0.128974
-0.124270
-0.119121
-0.113553
-0.107597
-0.101285
-0.094650
-0.087722
-0.080532
-0.073105
-0.065465
-0.057633
-0.049625
-0.041456
-0.033135
-0.024670
-0.016065
-0.007323
0.001557
0.010576
0.019739
0.029050
0.038513
0.048132
0.057907
0.067834
0.077898
0.088071
0.098303
0.108511
0.118571
0.128303
0.137463
0.145743
0.152777
0.158180
0.161604
0.162863
-0.157515
-0.157849
-0.157916
-0.157701
-0.157163
-0.156252
-0.154918
-0.153117
-0.150811
-0.147974
-0.144591
-0.140662
-0.136198
-0.131220
-0.125756
-0.119841
-0.113513
-0.106811
-0.099773
-0.092435
-0.084830
-0.076990
-0.068939
-0.060699
-0.052287
-0.043718
-0.035000
-0.026139
-0.017136
-0.007992
0.001299
0.010742
0.020348
0.030127
0.040092
0.050257
0.060635
0.071236
0.082063
0.093107
0.104338
0.115691
0.127053
0.138236
0.148962
0.158849
0.167413
0.174109
0.178420
0.180048
-0.165164
-0.165598
-0.165787
-0.165712
-0.165316
-0.164534
-0.163301
-0.161555
-0.159248
-0.156346
-0.152833
-0.148708
-0.143988
-0.138700
-0.132883
-0.126579
-0.119837
-0.112703
-0.105222
-0.097438
-0.089388
-0.081107
-0.072621
-0.063955
-0.055127
-0.046148
-0.037028
-0.027768
-0.018370
-0.008829
0.000864
0.010719
0.020753
0.030983
0.041431
0.052123
0.063084
0.074344
0.085929
0.097857
0.110129
0.122717
0.135534
0.148407
0.161040
0.172971
0.183564
0.192041
0.197613
0.199785
-0.173163
-0.173724
-0.174075
-0.174189
-0.173992
-0.173396
-0.172311
-0.170658
-0.168373
-0.165413
-0.161759
-0.157414
-0.152402
-0.146761
-0.140540
-0.133796
-0.126588
-0.118972
-0.111003
-0.102732
-0.094201
-0.085449
-0.076505
-0.067394
-0.058135
-0.048738
-0.039212
-0.029556
-0.019768
-0.009839
0.000241
0.010491
0.020930
0.031585
0.042485
0.053667
0.065174
0.077053
0.089360
0.102147
0.115464
0.129334
0.143733
0.158538
0.173468
0.188004
0.201326
0.212320
0.219751
0.222766
-0.181507
-0.182232
-0.182796
-0.183165
-0.183240
-0.182902
-0.182031
-0.180520
-0.178284
-0.175271
-0.171461
-0.166862
-0.161510
-0.155457
-0.148770
-0.141521
-0.133783
-0.125626
-0.117116
-0.108311
-0.099259
-0.090003
-0.080575
-0.071000
-0.061297
-0.051476
-0.041542
-0.031494
-0.021325
-0.011023
-0.000573
0.010046
0.020861
0.031904
0.043213
0.054834
0.066825
0.079255
0.092206
0.105777
0.120075
0.135204
0.151241
0.168175
0.185813
0.203643
0.220666
0.235308
0.245596
0.250002
-0.190193
-0.191127
-0.191969
-0.192678
-0.193123
-0.193141
-0.192567
-0.191259
-0.189106
-0.186043
-0.182051
-0.177150
-0.171391
-0.164851
-0.157616
-0.149781
-0.141436
-0.132669
-0.123555
-0.114162
-0.104545
-0.094750
-0.084811
-0.074753
-0.064594
-0.054343
-0.044003
-0.033569
-0.023032
-0.012375
-0.001579
0.009380
0.020535
0.031921
0.043583
0.055576
0.067967
0.080845
0.094319
0.108531
0.123655
0.139901
0.157493
0.176617
0.197303
0.219198
0.241234
0.261271
0.276148
0.283026
-0.199223
-0.200423
-0.201621
-0.202779
-0.203722
-0.204224
-0.204060
-0.203032
-0.201000
-0.197883
-0.193668
-0.188393
-0.182138
-0.175008
-0.167122
-0.158599
-0.149555
-0.140093
-0.130304
-0.120263
-0.110033
-0.099661
-0.089183
-0.078623
-0.067999
-0.057315
-0.046573
-0.035764
-0.024874
-0.013884
-0.002771
0.008495
0.019947
0.031626
0.043578
0.055862
0.068551
0.081744
0.095570
0.110204
0.125884
0.142930
0.161757
0.182846
0.206643
0.233271
0.261935
0.290033
0.312597
0.324260
-0.208623
-0.210153
-0.211792
-0.213534
-0.215143
-0.216303
-0.216694
-0.216047
-0.214175
-0.210987
-0.206482
-0.200732
-0.193855
-0.186001
-0.177329
-0.167993
-0.158136
-0.147882
-0.137335
-0.126580
-0.115684
-0.104697
-0.093652
-0.082574
-0.071475
-0.060359
-0.049221
-0.038051
-0.026829
-0.015533
-0.004134
0.007400
0.019106
0.031022
0.043196
0.055684
0.068558
0.081912
0.095878
0.110643
0.126482
0.143799
0.163191
0.185502
0.211814
0.243219
0.280025
0.319962
0.355844
0.377400
-0.218488
-0.220394
-0.222545
-0.225029
-0.227527
-0.229580
-0.230724
-0.230581
-0.228907
-0.225606
-0.220705
-0.214328
-0.206656
-0.197900
-0.188271
-0.177966
-0.167161
-0.156001
-0.144605
-0.133065
-0.121449
-0.109807
-0.098170
-0.086559
-0.074981
-0.063435
-0.051914
-0.040400
-0.028872
-0.017299
-0.005649
0.006114
0.018027
0.030128
0.042458
0.055065
0.068007
0.081364
0.095244
0.109808
0.125306
0.142148
0.161012
0.183028
0.209987
0.244463
0.289297
0.345099
0.404102
0.446075
-0.229096
-0.231336
-0.233974
-0.237368
-0.241058
-0.244334
-0.246499
-0.247015
-0.245566
-0.242063
-0.236596
-0.229372
-0.220666
-0.210770
-0.199966
-0.188502
-0.176590
-0.164396
-0.152050
-0.139649
-0.127260
-0.114927
-0.102676
-0.090521
-0.078463
-0.066496
-0.054607
-0.042773
-0.030968
-0.019153
-0.007291
0.004660
0.016737
0.028974
0.041402
0.054053
0.066967
0.080189
0.093779
0.107825
0.122469
0.137975
0.154864
0.174184
0.198006
0.230201
0.277317
0.348024
0.443016
0.523497
-0.241226
-0.243388
-0.246190
-0.250651
-0.255969
-0.260952
-0.264512
-0.265873
-0.264639
-0.260770
-0.254465
-0.246072
-0.236000
-0.224654
-0.212402
-0.199552
-0.186349
-0.172980
-0.159580
-0.146244
-0.133031
-0.119977
-0.107097
-0.094394
-0.081861
-0.069486
-0.057248
-0.045124
-0.033077
-0.021063
-0.009032
0.003064
0.015268
0.027603
0.040086
0.052730
0.065548
0.078547
0.091719
0.105037
0.118452
0.131905
0.145392
0.159165
0.174284
0.193806
0.225968
0.293700
0.431790
0.584165
-0.257172
-0.257439
-0.259195
-0.264868
-0.272481
-0.279888
-0.285357
-0.287774
-0.286663
-0.282127
-0.274568
-0.264549
-0.252669
-0.239481
-0.225454
-0.210960
-0.196272
-0.181587
-0.167036
-0.152702
-0.138629
-0.124837
-0.111325
-0.098081
-0.085086
-0.072321
-0.059763
-0.047384
-0.035140
-0.022973
-0.010817
0.001381
0.013682
0.026095
0.038613
0.051229
0.063932
0.076693
0.089440
0.102025
0.114169
0.125379
0.134816
0.141115
0.142629
0.138359
0.133183
0.173502
0.376208
0.687659
-0.284470
-0.274329
-0.271943
-0.278058
-0.288576
-0.299340
-0.307440
-0.311246
-0.310175
-0.304694
-0.295495
-0.283448
-0.269403
-0.254092
-0.238085
-0.221804
-0.205547
-0.189508
-0.173802
-0.158489
-0.143592
-0.129106
-0.115011
-0.101276
-0.087867
-0.074756
-0.061921
-0.049340
-0.036963
-0.024711
-0.012475
-0.000155
0.012236
0.024732
0.037296
0.049895
0.062511
0.075094
0.087523
0.099543
0.110656
0.119909
0.125560
0.124710
0.113226
0.089586
0.074296
0.151965
0.517461
1.164411
-0.371164
-0.244554
-0.238538
-0.255255
-0.275948
-0.294780
-0.308786
-0.316535
-0.317823
-0.313391
-0.304346
-0.291894
-0.277138
-0.260983
-0.244113
-0.227018
-0.210024
-0.193336
-0.177072
-0.161283
-0.145985
-0.131161
-0.116783
-0.102811
-0.089203
-0.075927
-0.062964
-0.050296
-0.037872
-0.025600
-0.013348
-0.000978
0.011590
0.024205
0.036790
0.049362
0.061903
0.074344
0.086519
0.098096
0.108446
0.116459
0.120376
0.118107
0.109641
0.106610
0.159491
0.407450
1.096506
2.260037
