# vtk DataFile Version 3.0
Scalar Field
ASCII
DATASET RECTILINEAR_GRID
DIMENSIONS 50 50 1
X_COORDINATES 50 double
0.100000 0.300000 0.500000 0.700000 0.900000 1.100000 1.300000 1.500000 1.700000 1.900000 2.100000 2.300000 2.500000 2.700000 2.900000 3.100000 3.300000 3.500000 3.700000 3.900000 4.100000 4.300000 4.500000 4.700000 4.900000 5.100000 5.300000 5.500000 5.700000 5.900000 6.100000 6.300000 6.500000 6.700000 6.900000 7.100000 7.300000 7.500000 7.700000 7.900000 8.100000 8.300000 8.500000 8.700000 8.900000 9.100000 9.300000 9.500000 9.700000 9.900000 
Y_COORDINATES 50 double
0.100000 0.300000 0.500000 0.700000 0.900000 1.100000 1.300000 1.500000 1.700000 1.900000 2.100000 2.300000 2.500000 2.700000 2.900000 3.100000 3.300000 3.500000 3.700000 3.900000 4.100000 4.300000 4.500000 4.700000 4.900000 5.100000 5.300000 5.500000 5.700000 5.900000 6.100000 6.300000 6.500000 6.700000 6.900000 7.100000 7.300000 7.500000 7.700000 7.900000 8.100000 8.300000 8.500000 8.700000 8.900000 9.100000 9.300000 9.500000 9.700000 9.900000 
Z_COORDINATES 1 double
0.0
POINT_DATA 2500
SCALARS Skalarfeld double 1
LOOKUP_TABLE default
-0.004472
-0.004483
-0.004417
-0.004258
-0.004003
-0.003652
-0.003206
-0.002664
-0.002024
-0.001286
-0.000448
0.000491
0.001534
0.002682
0.003936
0.005298
0.006770
0.008352
0.010047
0.011853
0.013770
0.015799
0.017937
0.020183
0.022532
0.024980
0.027522
0.030149
0.032853
0.035623
0.038447
0.041310
0.044195
0.047084
0.049957
0.052792
0.055566
0.058254
0.060831
0.063272
0.065549
0.067640
0.069519
0.071165
0.072559
0.073683
0.074524
0.075075
0.075344
0.075368
-0.004461
-0.004473
-0.004399
-0.004234
-0.003977
-0.003626
-0.003181
-0.002640
-0.002002
-0.001265
-0.000430
0.000508
0.001548
0.002693
0.003944
0.005304
0.006772
0.008352
0.010042
0.011845
0.013759
0.015784
0.017919
0.020162
0.022508
0.024953
0.027492
0.030117
0.032819
0.035588
0.038411
0.041273
0.044159
0.047049
0.049924
0.052761
0.055538
0.058229
0.060810
0.063253
0.065535
0.067629
0.069511
0.071160
0.072556
0.073682
0.074528
0.075086
0.075365
0.075388
-0.004533
-0.004553
-0.004479
-0.004313
-0.004056
-0.003706
-0.003262
-0.002723
-0.002088
-0.001355
-0.000522
0.000411
0.001447
0.002588
0.003836
0.005191
0.006655
0.008231
0.009918
0.011717
0.013629
0.015653
0.017787
0.020029
0.022377
0.024825
0.027369
0.030000
0.032711
0.035491
0.038327
0.041204
0.044107
0.047017
0.049914
0.052775
0.055577
0.058294
0.060901
0.063371
0.065678
0.067795
0.069700
0.071368
0.072781
0.073921
0.074776
0.075341
0.075620
0.075629
-0.004711
-0.004736
-0.004664
-0.004499
-0.004243
-0.003895
-0.003454
-0.002919
-0.002288
-0.001559
-0.000732
0.000197
0.001228
0.002363
0.003605
0.004955
0.006415
0.007986
0.009669
0.011466
0.013377
0.015400
0.017536
0.019783
0.022137
0.024595
0.027150
0.029798
0.032528
0.035330
0.038193
0.041101
0.044039
0.046987
0.049926
0.052831
0.055680
0.058445
0.061101
0.063619
0.065972
0.068133
0.070077
0.071781
0.073223
0.074386
0.075258
0.075832
0.076112
0.076111
-0.004999
-0.005027
-0.004958
-0.004796
-0.004542
-0.004198
-0.003761
-0.003230
-0.002604
-0.001881
-0.001060
-0.000138
0.000886
0.002015
0.003250
0.004594
0.006048
0.007615
0.009295
0.011090
0.013000
0.015026
0.017167
0.019421
0.021787
0.024259
0.026835
0.029507
0.032266
0.035104
0.038008
0.040962
0.043952
0.046958
0.049958
0.052929
0.055846
0.058682
0.061408
0.063996
0.066417
0.068642
0.070644
0.072398
0.073883
0.075079
0.075975
0.076562
0.076845
0.076840
-0.005400
-0.005430
-0.005363
-0.005204
-0.004954
-0.004613
-0.004182
-0.003657
-0.003037
-0.002322
-0.001508
-0.000594
0.000422
0.001542
0.002770
0.004107
0.005555
0.007116
0.008793
0.010586
0.012497
0.014527
0.016675
0.018941
0.021322
0.023816
0.026418
0.029123
0.031923
0.034808
0.037766
0.040783
0.043842
0.046923
0.050005
0.053064
0.056072
0.059002
0.061823
0.064504
0.067014
0.069323
0.071401
0.073223
0.074764
0.076004
0.076931
0.077537
0.077825
0.077816
-0.005912
-0.005943
-0.005879
-0.005723
-0.005477
-0.005142
-0.004717
-0.004199
-0.003588
-0.002881
-0.002076
-0.001172
-0.000166
0.000945
0.002164
0.003492
0.004932
0.006488
0.008160
0.009952
0.011864
0.013899
0.016056
0.018336
0.020737
0.023258
0.025894
0.028640
0.031489
0.034433
0.037459
0.040553
0.043699
0.046876
0.050061
0.053230
0.056353
0.059401
0.062341
0.065140
0.067764
0.070179
0.072355
0.074261
0.075872
0.077168
0.078134
0.078762
0.079059
0.079047
-0.006534
-0.006567
-0.006505
-0.006353
-0.006112
-0.005784
-0.005366
-0.004856
-0.004255
-0.003558
-0.002765
-0.001872
-0.000877
0.000223
0.001430
0.002748
0.004179
0.005727
0.007394
0.009183
0.011097
0.013137
0.015305
0.017601
0.020025
0.022576
0.025251
0.028046
0.030955
0.033968
0.037076
0.040263
0.043513
0.046805
0.050115
0.053418
0.056682
0.059874
0.062961
0.065904
0.068668
0.071214
0.073508
0.075518
0.077216
0.078579
0.079592
0.080248
0.080555
0.080539
-0.007265
-0.007299
-0.007240
-0.007092
-0.006858
-0.006537
-0.006128
-0.005628
-0.005038
-0.004354
-0.003573
-0.002694
-0.001713
-0.000627
0.000567
0.001872
0.003292
0.004830
0.006491
0.008276
0.010190
0.012235
0.014413
0.016726
0.019176
0.021761
0.024480
0.027330
0.030306
0.033399
0.036601
0.039896
0.043268
0.046696
0.050154
0.053616
0.057048
0.060414
0.063676
0.066794
0.069726
0.072430
0.074868
0.077004
0.078805
0.080248
0.081316
0.082005
0.082323
0.082302
-0.008103
-0.008139
-0.008083
-0.007941
-0.007714
-0.007401
-0.007002
-0.006514
-0.005937
-0.005267
-0.004502
-0.003638
-0.002674
-0.001605
-0.000427
0.000863
0.002268
0.003794
0.005445
0.007224
0.009136
0.011184
0.013372
0.015703
0.018178
0.020799
0.023566
0.026476
0.029526
0.032709
0.036016
0.039435
0.042947
0.046531
0.050162
0.053809
0.057438
0.061010
0.064481
0.067806
0.070939
0.073832
0.076441
0.078726
0.080650
0.082187
0.083319
0.084044
0.084375
0.084347
-0.009047
-0.009085
-0.009033
-0.008897
-0.008677
-0.008375
-0.007987
-0.007513
-0.006951
-0.006298
-0.005550
-0.004706
-0.003761
-0.002711
-0.001554
-0.000283
0.001105
0.002615
0.004253
0.006022
0.007929
0.009977
0.012172
0.014519
0.017019
0.019676
0.022492
0.025466
0.028596
0.031877
0.035300
0.038856
0.042526
0.046288
0.050116
0.053978
0.057836
0.061648
0.065365
0.068935
0.072306
0.075423
0.078235
0.080695
0.082763
0.084409
0.085615
0.086379
0.086722
0.086685
-0.010095
-0.010135
-0.010088
-0.009958
-0.009748
-0.009457
-0.009083
-0.008624
-0.008080
-0.007445
-0.006719
-0.005896
-0.004974
-0.003949
-0.002814
-0.001567
-0.000201
0.001289
0.002908
0.004663
0.006560
0.008605
0.010803
0.013161
0.015684
0.018377
0.021241
0.024281
0.027494
0.030878
0.034428
0.038134
0.041978
0.045939
0.049991
0.054098
0.058221
0.062311
0.066314
0.070172
0.073823
0.077205
0.080256
0.082923
0.085159
0.086930
0.088218
0.089025
0.089377
0.089327
-0.011245
-0.011288
-0.011246
-0.011124
-0.010924
-0.010645
-0.010287
-0.009846
-0.009321
-0.008709
-0.008007
-0.007210
-0.006315
-0.005317
-0.004211
-0.002992
-0.001653
-0.000190
0.001406
0.003141
0.005022
0.007057
0.009253
0.011618
0.014158
0.016881
0.019793
0.022896
0.026194
0.029686
0.033369
0.037234
0.041269
0.045451
0.049752
0.054138
0.058562
0.062974
0.067311
0.071506
0.075487
0.079180
0.082513
0.085422
0.087853
0.089766
0.091145
0.091995
0.092354
0.092286
-0.012495
-0.012541
-0.012505
-0.012391
-0.012202
-0.011938
-0.011597
-0.011177
-0.010675
-0.010088
-0.009413
-0.008646
-0.007782
-0.006817
-0.005745
-0.004559
-0.003255
-0.001824
-0.000258
0.001449
0.003306
0.005323
0.007509
0.009873
0.012424
0.015171
0.018123
0.021286
0.024667
0.028267
0.032086
0.036120
0.040360
0.044782
0.049360
0.054056
0.058824
0.063605
0.068329
0.072918
0.077287
0.081348
0.085014
0.088207
0.090862
0.092937
0.094413
0.095305
0.095663
0.095571
-0.013843
-0.013892
-0.013862
-0.013757
-0.013582
-0.013334
-0.013012
-0.012614
-0.012138
-0.011580
-0.010937
-0.010204
-0.009376
-0.008449
-0.007416
-0.006272
-0.005008
-0.003617
-0.002091
-0.000420
0.001405
0.003394
0.005559
0.007911
0.010462
0.013224
0.016207
0.019422
0.022879
0.026584
0.030540
0.034747
0.039201
0.043881
0.048761
0.053803
0.058958
0.064160
0.069332
0.074381
0.079208
0.083703
0.087763
0.091289
0.094206
0.096461
0.098039
0.098966
0.099313
0.099186
-0.015285
-0.015337
-0.015314
-0.015220
-0.015059
-0.014829
-0.014529
-0.014157
-0.013709
-0.013184
-0.012576
-0.011882
-0.011096
-0.010213
-0.009226
-0.008130
-0.006915
-0.005573
-0.004096
-0.002472
-0.000691
0.001259
0.003390
0.005718
0.008255
0.011017
0.014018
0.017273
0.020795
0.024595
0.028683
0.033062
0.037733
0.042685
0.047890
0.053313
0.058900
0.064582
0.070270
0.075858
0.081223
0.086235
0.090763
0.094684
0.097903
0.100359
0.102039
0.102988
0.103305
0.103129
-0.016818
-0.016874
-0.016858
-0.016776
-0.016630
-0.016420
-0.016145
-0.015801
-0.015386
-0.014897
-0.014329
-0.013679
-0.012940
-0.012108
-0.011175
-0.010134
-0.008977
-0.007694
-0.006277
-0.004712
-0.002989
-0.001093
0.000991
0.003277
0.005783
0.008527
0.011528
0.014804
0.018373
0.022254
0.026460
0.031003
0.035888
0.041119
0.046668
0.052501
0.058567
0.064791
0.071073
0.077289
0.083293
0.088923
0.094011
0.098403
0.101974
0.104651
0.106427
0.107373
0.107630
0.107385
-0.018439
-0.018499
-0.018491
-0.018422
-0.018293
-0.018105
-0.017856
-0.017543
-0.017164
-0.016715
-0.016192
-0.015591
-0.014906
-0.014131
-0.013260
-0.012284
-0.011194
-0.009982
-0.008636
-0.007145
-0.005494
-0.003668
-0.001652
0.000573
0.003027
0.005731
0.008707
0.011980
0.015572
0.019509
0.023812
0.028501
0.033588
0.039093
0.044994
0.051263
0.057851
0.064680
0.071642
0.078592
0.085354
0.091726
0.097493
0.102452
0.106437
0.109356
0.111210
0.112111
0.112263
0.111918
-0.020144
-0.020208
-0.020209
-0.020153
-0.020043
-0.019879
-0.019658
-0.019380
-0.019040
-0.018636
-0.018163
-0.017616
-0.016991
-0.016281
-0.015479
-0.014577
-0.013567
-0.012437
-0.011177
-0.009773
-0.008211
-0.006475
-0.004547
-0.002406
-0.000030
0.002605
0.005527
0.008764
0.012346
0.016305
0.020672
0.025476
0.030743
0.036493
0.042745
0.049464
0.056609
0.064106
0.071837
0.079641
0.087305
0.094575
0.101173
0.106826
0.111306
0.114488
0.116387
0.117174
0.117149
0.116660
-0.021927
-0.021996
-0.022006
-0.021965
-0.021876
-0.021737
-0.021548
-0.021307
-0.021010
-0.020654
-0.020236
-0.019750
-0.019191
-0.018554
-0.017830
-0.017012
-0.016091
-0.015057
-0.013897
-0.012598
-0.011144
-0.009519
-0.007703
-0.005673
-0.003405
-0.000872
0.001959
0.005120
0.008648
0.012584
0.016967
0.021840
0.027240
0.033202
0.039772
0.046934
0.054655
0.062871
0.071464
0.080252
0.088986
0.097351
0.104979
0.111496
0.116582
0.120054
0.121938
0.122501
0.122187
0.121490
-0.023786
-0.023859
-0.023879
-0.023854
-0.023786
-0.023675
-0.023520
-0.023319
-0.023068
-0.022765
-0.022406
-0.021987
-0.021501
-0.020943
-0.020307
-0.019584
-0.018764
-0.017838
-0.016794
-0.015617
-0.014292
-0.012801
-0.011124
-0.009236
-0.007110
-0.004717
-0.002022
0.001014
0.004435
0.008288
0.012624
0.017498
0.022966
0.029081
0.035892
0.043461
0.051750
0.060713
0.070243
0.080150
0.090148
0.099846
0.108765
0.116385
0.122236
0.126036
0.127815
0.127980
0.127205
0.126201
-0.025713
-0.025791
-0.025822
-0.025814
-0.025769
-0.025687
-0.025568
-0.025409
-0.025209
-0.024963
-0.024668
-0.024320
-0.023914
-0.023444
-0.022904
-0.022285
-0.021579
-0.020776
-0.019863
-0.018828
-0.017653
-0.016321
-0.014811
-0.013098
-0.011153
-0.008945
-0.006436
-0.003582
-0.000335
0.003360
0.007567
0.012353
0.017790
0.023956
0.030922
0.038790
0.047586
0.057277
0.067785
0.078928
0.090392
0.101709
0.112256
0.121308
0.128165
0.132362
0.133907
0.133408
0.131907
0.130457
-0.027705
-0.027788
-0.027830
-0.027839
-0.027818
-0.027768
-0.027687
-0.027573
-0.027425
-0.027240
-0.027014
-0.026743
-0.026423
-0.026048
-0.025612
-0.025109
-0.024528
-0.023862
-0.023097
-0.022221
-0.021219
-0.020073
-0.018760
-0.017258
-0.015537
-0.013563
-0.011297
-0.008693
-0.005697
-0.002248
0.001726
0.006306
0.011583
0.017656
0.024632
0.032614
0.041777
0.052098
0.063548
0.075983
0.089090
0.102332
0.114924
0.125863
0.134094
0.138829
0.139976
0.138423
0.135800
0.133708
-0.029754
-0.029843
-0.029897
-0.029924
-0.029928
-0.029910
-0.029869
-0.029803
-0.029710
-0.029589
-0.029435
-0.029247
-0.029018
-0.028746
-0.028423
-0.028044
-0.027601
-0.027084
-0.026484
-0.025787
-0.024980
-0.024045
-0.022963
-0.021709
-0.020255
-0.018567
-0.016608
-0.014328
-0.011673
-0.008576
-0.004960
-0.000732
0.004214
0.010001
0.016765
0.024658
0.033851
0.044574
0.056790
0.070438
0.085257
0.100686
0.115780
0.129197
0.139363
0.144926
0.145513
0.142377
0.138076
0.135091
-0.031856
-0.031951
-0.032017
-0.032063
-0.032093
-0.032108
-0.032108
-0.032091
-0.032056
-0.032002
-0.031924
-0.031822
-0.031690
-0.031526
-0.031324
-0.031079
-0.030783
-0.030430
-0.030009
-0.029510
-0.028920
-0.028223
-0.027402
-0.026434
-0.025293
-0.023948
-0.022361
-0.020487
-0.018270
-0.015645
-0.012531
-0.008831
-0.004428
0.000818
0.007069
0.014517
0.023373
0.033957
0.046523
0.061042
0.077379
0.095037
0.112983
0.129537
0.142445
0.149442
0.149478
0.144162
0.137499
0.133323
-0.034005
-0.034105
-0.034183
-0.034248
-0.034304
-0.034354
-0.034395
-0.034429
-0.034454
-0.034468
-0.034470
-0.034457
-0.034427
-0.034377
-0.034302
-0.034198
-0.034060
-0.033882
-0.033655
-0.033370
-0.033018
-0.032584
-0.032054
-0.031409
-0.030627
-0.029679
-0.028533
-0.027149
-0.025475
-0.023452
-0.021002
-0.018031
-0.014423
-0.010033
-0.004685
0.001839
0.009796
0.019490
0.031489
0.046067
0.063183
0.082539
0.103194
0.123297
0.139936
0.149588
0.149839
0.142146
0.132660
0.126547
-0.036193
-0.036300
-0.036390
-0.036474
-0.036557
-0.036640
-0.036724
-0.036810
-0.036895
-0.036980
-0.037062
-0.037142
-0.037217
-0.037284
-0.037342
-0.037386
-0.037414
-0.037420
-0.037399
-0.037345
-0.037248
-0.037101
-0.036890
-0.036602
-0.036220
-0.035723
-0.035085
-0.034273
-0.033249
-0.031961
-0.030347
-0.028327
-0.025799
-0.022634
-0.018667
-0.013687
-0.007426
0.000450
0.010349
0.023248
0.039417
0.058729
0.080644
0.103680
0.124780
0.139253
0.142545
0.134264
0.122032
0.113568
-0.038416
-0.038529
-0.038631
-0.038734
-0.038843
-0.038960
-0.039086
-0.039223
-0.039369
-0.039524
-0.039689
-0.039863
-0.040044
-0.040232
-0.040426
-0.040624
-0.040824
-0.041023
-0.041218
-0.041405
-0.041580
-0.041737
-0.041870
-0.041970
-0.042026
-0.042027
-0.041957
-0.041797
-0.041522
-0.041101
-0.040495
-0.039653
-0.038509
-0.036976
-0.034940
-0.032251
-0.028705
-0.024035
-0.017888
-0.009817
0.001757
0.017222
0.036511
0.059663
0.084864
0.107211
0.119758
0.117666
0.105455
0.096284
-0.040667
-0.040787
-0.040901
-0.041022
-0.041156
-0.041306
-0.041473
-0.041660
-0.041866
-0.042091
-0.042338
-0.042605
-0.042894
-0.043205
-0.043537
-0.043891
-0.044267
-0.044664
-0.045082
-0.045520
-0.045978
-0.046455
-0.046950
-0.047461
-0.047986
-0.048525
-0.049074
-0.049632
-0.050194
-0.050758
-0.051319
-0.051872
-0.052409
-0.052924
-0.053405
-0.053841
-0.054217
-0.054507
-0.054666
-0.054563
-0.053785
-0.049401
-0.039619
-0.021811
0.005614
0.039059
0.069764
0.086910
0.086100
0.083001
-0.042942
-0.043068
-0.043194
-0.043332
-0.043489
-0.043670
-0.043877
-0.044111
-0.044375
-0.044670
-0.044996
-0.045356
-0.045752
-0.046184
-0.046654
-0.047165
-0.047719
-0.048316
-0.048961
-0.049655
-0.050403
-0.051209
-0.052077
-0.053015
-0.054031
-0.055134
-0.056340
-0.057665
-0.059134
-0.060776
-0.062633
-0.064763
-0.067243
-0.070184
-0.073743
-0.078151
-0.083744
-0.091021
-0.100660
-0.113323
-0.128901
-0.145122
-0.153998
-0.148085
-0.121113
-0.074608
-0.017966
0.033348
0.063811
0.076146
-0.045236
-0.045369
-0.045505
-0.045658
-0.045836
-0.046045
-0.046288
-0.046568
-0.046887
-0.047247
-0.047650
-0.048100
-0.048600
-0.049151
-0.049758
-0.050424
-0.051153
-0.051951
-0.052822
-0.053773
-0.054812
-0.055949
-0.057196
-0.058567
-0.060082
-0.061765
-0.063646
-0.065767
-0.068180
-0.070956
-0.074194
-0.078024
-0.082634
-0.088289
-0.095378
-0.104482
-0.116496
-0.132781
-0.155241
-0.185786
-0.224475
-0.266587
-0.301390
-0.312048
-0.287821
-0.229098
-0.145027
-0.052698
0.021920
0.055088
-0.047545
-0.047686
-0.047831
-0.047996
-0.048192
-0.048426
-0.048701
-0.049021
-0.049390
-0.049811
-0.050287
-0.050822
-0.051421
-0.052087
-0.052826
-0.053643
-0.054544
-0.055537
-0.056631
-0.057834
-0.059161
-0.060626
-0.062247
-0.064048
-0.066059
-0.068318
-0.070873
-0.073789
-0.077151
-0.081074
-0.085713
-0.091286
-0.098100
-0.106602
-0.117459
-0.131695
-0.150925
-0.177657
-0.215346
-0.267246
-0.333005
-0.404282
-0.464405
-0.491667
-0.471123
-0.404028
-0.299448
-0.173255
-0.058111
-0.004255
-0.049867
-0.050016
-0.050168
-0.050343
-0.050552
-0.050805
-0.051107
-0.051462
-0.051875
-0.052350
-0.052892
-0.053506
-0.054198
-0.054972
-0.055837
-0.056798
-0.057864
-0.059045
-0.060353
-0.061801
-0.063405
-0.065186
-0.067169
-0.069386
-0.071876
-0.074690
-0.077896
-0.081580
-0.085858
-0.090885
-0.096877
-0.104134
-0.113085
-0.124361
-0.138914
-0.158234
-0.184696
-0.221982
-0.275032
-0.348098
-0.439771
-0.537522
-0.618524
-0.658240
-0.640834
-0.570475
-0.457421
-0.314278
-0.173691
-0.103883
-0.052203
-0.052359
-0.052517
-0.052696
-0.052913
-0.053179
-0.053499
-0.053882
-0.054331
-0.054852
-0.055452
-0.056137
-0.056913
-0.057788
-0.058768
-0.059864
-0.061086
-0.062445
-0.063955
-0.065633
-0.067499
-0.069579
-0.071904
-0.074511
-0.077450
-0.080785
-0.084596
-0.088990
-0.094111
-0.100150
-0.107373
-0.116151
-0.127019
-0.140762
-0.158576
-0.182334
-0.215022
-0.261209
-0.326839
-0.416620
-0.527950
-0.644882
-0.739871
-0.786507
-0.770837
-0.701409
-0.591545
-0.449982
-0.302755
-0.224893
-0.054553
-0.054719
-0.054878
-0.055056
-0.055273
-0.055542
-0.055873
-0.056273
-0.056748
-0.057306
-0.057954
-0.058700
-0.059550
-0.060514
-0.061600
-0.062819
-0.064183
-0.065706
-0.067403
-0.069294
-0.071403
-0.073758
-0.076396
-0.079360
-0.082707
-0.086510
-0.090862
-0.095885
-0.101742
-0.108652
-0.116918
-0.126962
-0.139387
-0.155080
-0.175383
-0.202382
-0.239351
-0.291205
-0.364140
-0.462778
-0.583819
-0.709903
-0.811276
-0.860210
-0.845161
-0.779336
-0.680491
-0.554616
-0.417549
-0.340420
-0.056925
-0.057099
-0.057256
-0.057425
-0.057632
-0.057895
-0.058223
-0.058628
-0.059118
-0.059701
-0.060385
-0.061179
-0.062091
-0.063132
-0.064311
-0.065640
-0.067132
-0.068802
-0.070667
-0.072751
-0.075078
-0.077680
-0.080596
-0.083876
-0.087581
-0.091788
-0.096601
-0.102150
-0.108611
-0.116218
-0.125292
-0.136277
-0.149803
-0.166787
-0.188592
-0.217294
-0.256071
-0.309543
-0.383299
-0.481335
-0.600288
-0.724066
-0.824226
-0.872498
-0.858311
-0.798477
-0.714487
-0.611754
-0.496352
-0.427517
-0.059328
-0.059512
-0.059660
-0.059809
-0.059994
-0.060234
-0.060547
-0.060942
-0.061431
-0.062024
-0.062731
-0.063560
-0.064521
-0.065625
-0.066882
-0.068306
-0.069908
-0.071707
-0.073721
-0.075973
-0.078491
-0.081307
-0.084464
-0.088013
-0.092017
-0.096559
-0.101743
-0.107705
-0.114622
-0.122732
-0.132353
-0.143925
-0.158059
-0.175629
-0.197901
-0.226744
-0.264899
-0.316191
-0.384724
-0.473296
-0.579395
-0.689647
-0.779268
-0.823145
-0.814345
-0.763774
-0.695611
-0.617372
-0.529164
-0.473742
-0.061778
-0.061971
-0.062103
-0.062219
-0.062363
-0.062563
-0.062840
-0.063208
-0.063680
-0.064267
-0.064980
-0.065828
-0.066824
-0.067975
-0.069296
-0.070797
-0.072493
-0.074401
-0.076541
-0.078936
-0.081614
-0.084611
-0.087967
-0.091735
-0.095979
-0.100781
-0.106244
-0.112501
-0.119724
-0.128140
-0.138050
-0.149862
-0.164132
-0.181634
-0.203457
-0.231138
-0.266607
-0.312650
-0.372386
-0.447557
-0.535495
-0.625099
-0.696429
-0.729715
-0.721504
-0.681556
-0.630991
-0.577655
-0.517591
-0.478007
-0.064299
-0.064503
-0.064606
-0.064668
-0.064748
-0.064885
-0.065104
-0.065423
-0.065856
-0.066418
-0.067120
-0.067972
-0.068984
-0.070168
-0.071535
-0.073096
-0.074867
-0.076864
-0.079107
-0.081619
-0.084428
-0.087569
-0.091083
-0.095020
-0.099444
-0.104433
-0.110084
-0.116523
-0.123909
-0.132450
-0.142415
-0.154161
-0.168162
-0.185065
-0.205592
-0.230918
-0.262500
-0.302119
-0.351601
-0.411639
-0.479504
-0.546353
-0.597263
-0.618470
-0.609116
-0.577301
-0.539306
-0.506664
-0.471883
-0.447860
-0.066929
-0.067143
-0.067198
-0.067179
-0.067165
-0.067207
-0.067337
-0.067579
-0.067951
-0.068467
-0.069138
-0.069976
-0.070989
-0.072189
-0.073585
-0.075190
-0.077016
-0.079082
-0.081404
-0.084007
-0.086918
-0.090169
-0.093799
-0.097859
-0.102405
-0.107511
-0.113268
-0.119787
-0.127212
-0.135722
-0.145548
-0.156987
-0.170377
-0.186156
-0.204956
-0.227519
-0.254740
-0.287605
-0.326915
-0.372501
-0.421719
-0.467845
-0.500477
-0.510802
-0.499183
-0.472452
-0.443347
-0.422646
-0.406614
-0.395276
-0.069722
-0.069944
-0.069925
-0.069783
-0.069630
-0.069534
-0.069539
-0.069673
-0.069956
-0.070402
-0.071023
-0.071828
-0.072825
-0.074024
-0.075434
-0.077065
-0.078929
-0.081043
-0.083423
-0.086092
-0.089075
-0.092403
-0.096113
-0.100249
-0.104867
-0.110031
-0.115821
-0.122336
-0.129698
-0.138057
-0.147600
-0.158509
-0.171050
-0.185571
-0.202457
-0.222142
-0.245081
-0.271659
-0.301966
-0.335283
-0.369194
-0.398766
-0.417110
-0.418836
-0.404712
-0.380543
-0.356532
-0.341950
-0.336208
-0.332316
-0.072759
-0.072984
-0.072846
-0.072521
-0.072166
-0.071878
-0.071710
-0.071697
-0.071859
-0.072210
-0.072760
-0.073514
-0.074480
-0.075663
-0.077071
-0.078712
-0.080597
-0.082740
-0.085157
-0.087868
-0.090897
-0.094272
-0.098027
-0.102203
-0.106847
-0.112018
-0.117784
-0.124229
-0.131454
-0.139579
-0.148712
-0.158994
-0.170640
-0.183852
-0.198845
-0.215822
-0.234924
-0.256139
-0.279131
-0.302918
-0.325398
-0.343008
-0.351286
-0.346970
-0.330877
-0.307940
-0.286514
-0.274033
-0.270233
-0.267194
-0.076166
-0.076381
-0.076050
-0.075447
-0.074800
-0.074243
-0.073844
-0.073638
-0.073646
-0.073877
-0.074335
-0.075023
-0.075942
-0.077096
-0.078488
-0.080124
-0.082014
-0.084169
-0.086603
-0.089335
-0.092387
-0.095783
-0.099554
-0.103736
-0.108371
-0.113509
-0.119208
-0.125538
-0.132577
-0.140409
-0.149081
-0.158740
-0.169500
-0.181473
-0.194747
-0.209363
-0.225261
-0.242203
-0.259642
-0.276538
-0.291117
-0.300790
-0.302643
-0.294667
-0.277575
-0.255526
-0.235469
-0.222557
-0.211993
-0.201537
-0.080144
-0.080318
-0.079663
-0.078628
-0.077559
-0.076632
-0.075928
-0.075480
-0.075298
-0.075383
-0.075732
-0.076339
-0.077200
-0.078313
-0.079677
-0.081297
-0.083178
-0.085330
-0.087765
-0.090499
-0.093552
-0.096947
-0.100709
-0.104872
-0.109470
-0.114546
-0.120149
-0.126336
-0.133168
-0.140672
-0.148914
-0.157983
-0.167938
-0.178822
-0.190638
-0.203326
-0.216712
-0.230447
-0.243916
-0.256128
-0.265615
-0.270449
-0.268640
-0.258973
-0.241872
-0.220780
-0.201248
-0.185286
-0.157346
-0.127065
-0.085034
-0.085089
-0.083862
-0.082143
-0.080456
-0.079030
-0.077936
-0.077191
-0.076786
-0.076705
-0.076931
-0.077447
-0.078242
-0.079306
-0.080635
-0.082228
-0.084088
-0.086223
-0.088645
-0.091366
-0.094403
-0.097777
-0.101512
-0.105635
-0.110177
-0.115173
-0.120665
-0.126698
-0.133316
-0.140512
-0.148369
-0.156924
-0.166200
-0.176194
-0.186858
-0.198073
-0.209610
-0.221083
-0.231881
-0.241113
-0.247562
-0.249741
-0.246200
-0.236184
-0.219826
-0.199634
-0.178847
-0.152376
-0.092299
-0.018814
-0.091461
-0.091188
-0.088889
-0.086057
-0.083477
-0.081392
-0.079819
-0.078727
-0.078072
-0.077812
-0.077908
-0.078330
-0.079054
-0.080065
-0.081353
-0.082911
-0.084741
-0.086849
-0.089245
-0.091939
-0.094948
-0.098289
-0.101983
-0.106055
-0.110529
-0.115435
-0.120813
-0.126702
-0.133100
-0.140049
-0.147586
-0.155729
-0.164478
-0.173802
-0.183626
-0.193803
-0.204084
-0.214081
-0.223222
-0.230716
-0.235539
-0.236490
-0.232410
-0.222634
-0.207362
-0.187518
-0.161257
-0.106561
0.019433
0.180535
-0.100717
-0.099495
-0.095039
-0.090368
-0.086523
-0.083618
-0.081486
-0.080009
-0.079090
-0.078648
-0.078614
-0.078941
-0.079594
-0.080552
-0.081797
-0.083312
-0.085105
-0.087179
-0.089540
-0.092201
-0.095173
-0.098473
-0.102122
-0.106144
-0.110550
-0.115369
-0.120640
-0.126387
-0.132628
-0.139387
-0.146686
-0.154532
-0.162913
-0.171786
-0.181061
-0.190581
-0.200094
-0.209225
-0.217442
-0.224035
-0.228110
-0.228629
-0.224550
-0.215067
-0.199965
-0.178404
-0.135592
-0.017161
0.260431
0.593873
-0.116110
-0.111779
-0.102521
-0.094844
-0.089296
-0.085468
-0.082703
-0.080804
-0.079612
-0.078992
-0.078833
-0.079069
-0.079654
-0.080564
-0.081775
-0.083235
-0.084992
-0.087038
-0.089374
-0.092005
-0.094944
-0.098208
-0.101816
-0.105788
-0.110142
-0.114903
-0.120101
-0.125759
-0.131898
-0.138537
-0.145690
-0.153359
-0.161525
-0.170139
-0.179103
-0.188257
-0.197349
-0.206015
-0.213750
-0.219888
-0.223596
-0.223894
-0.219689
-0.209709
-0.192636
-0.160099
-0.068881
0.191248
0.767219
1.471062
-0.146325
-0.130082
-0.111082
-0.098071
-0.090081
-0.085329
-0.081807
-0.079638
-0.078316
-0.077599
-0.077387
-0.077597
-0.078175
-0.079086
-0.080298
-0.081786
-0.083564
-0.085630
-0.087986
-0.090636
-0.093593
-0.096873
-0.100492
-0.104472
-0.108831
-0.113593
-0.118784
-0.124428
-0.130546
-0.137153
-0.144262
-0.151869
-0.159952
-0.168455
-0.177276
-0.186247
-0.195115
-0.203516
-0.210947
-0.216752
-0.220086
-0.219881
-0.214599
-0.201718
-0.175972
-0.100811
0.108650
0.642488
1.733792
3.138891
-0.249679
-0.112324
-0.082978
-0.074213
-0.070713
-0.069137
-0.068262
-0.067980
-0.068092
-0.068507
-0.069203
-0.070161
-0.071365
-0.072807
-0.074475
-0.076366
-0.078494
-0.080869
-0.083500
-0.086397
-0.089578
-0.093059
-0.096861
-0.101007
-0.105518
-0.110419
-0.115736
-0.121493
-0.127712
-0.134409
-0.141593
-0.149259
-0.157380
-0.165897
-0.174701
-0.183619
-0.192389
-0.200641
-0.207863
-0.213375
-0.216227
-0.215009
-0.206721
-0.184057
-0.121133
0.039157
0.433837
1.321698
2.995923
5.223634
