# vtk DataFile Version 3.0
Scalar Field
ASCII
DATASET RECTILINEAR_GRID
DIMENSIONS 50 50 1
X_COORDINATES 50 double
0.100000 0.300000 0.500000 0.700000 0.900000 1.100000 1.300000 1.500000 1.700000 1.900000 2.100000 2.300000 2.500000 2.700000 2.900000 3.100000 3.300000 3.500000 3.700000 3.900000 4.100000 4.300000 4.500000 4.700000 4.900000 5.100000 5.300000 5.500000 5.700000 5.900000 6.100000 6.300000 6.500000 6.700000 6.900000 7.100000 7.300000 7.500000 7.700000 7.900000 8.100000 8.300000 8.500000 8.700000 8.900000 9.100000 9.300000 9.500000 9.700000 9.900000 
Y_COORDINATES 50 double
0.100000 0.300000 0.500000 0.700000 0.900000 1.100000 1.300000 1.500000 1.700000 1.900000 2.100000 2.300000 2.500000 2.700000 2.900000 3.100000 3.300000 3.500000 3.700000 3.900000 4.100000 4.300000 4.500000 4.700000 4.900000 5.100000 5.300000 5.500000 5.700000 5.900000 6.100000 6.300000 6.500000 6.700000 6.900000 7.100000 7.300000 7.500000 7.700000 7.900000 8.100000 8.300000 8.500000 8.700000 8.900000 9.100000 9.300000 9.500000 9.700000 9.900000 
Z_COORDINATES 1 double
0.0
POINT_DATA 2500
SCALARS Skalarfeld double 1
LOOKUP_TABLE default
-0.016183
-0.016243
-0.016363
-0.016507
-0.016648
-0.016765
-0.016847
-0.016885
-0.016875
-0.016814
-0.016704
-0.016543
-0.016334
-0.016079
-0.015778
-0.015435
-0.015052
-0.014631
-0.014174
-0.013685
-0.013166
-0.012621
-0.012052
-0.011464
-0.010861
-0.010247
-0.009626
-0.009004
-0.008386
-0.007777
-0.007182
-0.006609
-0.006062
-0.005548
-0.005073
-0.004641
-0.004259
-0.003930
-0.003660
-0.003451
-0.003305
-0.003223
-0.003203
-0.003241
-0.003330
-0.003461
-0.003615
-0.003772
-0.003901
-0.003963
-0.016124
-0.016184
-0.016282
-0.016395
-0.016504
-0.016593
-0.016652
-0.016673
-0.016651
-0.016585
-0.016472
-0.016314
-0.016110
-0.015862
-0.015572
-0.015241
-0.014871
-0.014465
-0.014025
-0.013553
-0.013053
-0.012527
-0.011980
-0.011413
-0.010832
-0.010240
-0.009643
-0.009044
-0.008449
-0.007864
-0.007294
-0.006743
-0.006219
-0.005726
-0.005270
-0.004856
-0.004489
-0.004172
-0.003910
-0.003705
-0.003558
-0.003469
-0.003436
-0.003454
-0.003518
-0.003616
-0.003736
-0.003859
-0.003963
-0.004025
-0.016003
-0.016086
-0.016185
-0.016287
-0.016379
-0.016451
-0.016495
-0.016504
-0.016474
-0.016402
-0.016288
-0.016131
-0.015931
-0.015690
-0.015408
-0.015087
-0.014728
-0.014335
-0.013908
-0.013451
-0.012967
-0.012457
-0.011926
-0.011377
-0.010814
-0.010240
-0.009661
-0.009081
-0.008505
-0.007938
-0.007386
-0.006853
-0.006346
-0.005868
-0.005427
-0.005026
-0.004670
-0.004362
-0.004106
-0.003903
-0.003755
-0.003661
-0.003619
-0.003624
-0.003671
-0.003751
-0.003853
-0.003963
-0.004068
-0.004154
-0.015857
-0.015973
-0.016085
-0.016189
-0.016276
-0.016340
-0.016375
-0.016375
-0.016339
-0.016264
-0.016149
-0.015993
-0.015796
-0.015560
-0.015285
-0.014972
-0.014623
-0.014240
-0.013824
-0.013379
-0.012907
-0.012410
-0.011893
-0.011357
-0.010807
-0.010248
-0.009682
-0.009116
-0.008554
-0.008000
-0.007461
-0.006940
-0.006445
-0.005979
-0.005547
-0.005155
-0.004806
-0.004503
-0.004251
-0.004050
-0.003901
-0.003804
-0.003756
-0.003754
-0.003793
-0.003864
-0.003961
-0.004074
-0.004193
-0.004312
-0.015711
-0.015862
-0.015995
-0.016108
-0.016198
-0.016260
-0.016290
-0.016287
-0.016248
-0.016171
-0.016055
-0.015900
-0.015706
-0.015473
-0.015203
-0.014897
-0.014555
-0.014180
-0.013774
-0.013338
-0.012875
-0.012388
-0.011880
-0.011354
-0.010814
-0.010264
-0.009708
-0.009151
-0.008597
-0.008052
-0.007520
-0.007008
-0.006519
-0.006059
-0.005633
-0.005246
-0.004900
-0.004601
-0.004351
-0.004150
-0.004001
-0.003902
-0.003852
-0.003847
-0.003883
-0.003955
-0.004055
-0.004178
-0.004319
-0.004474
-0.015586
-0.015771
-0.015926
-0.016053
-0.016149
-0.016213
-0.016244
-0.016240
-0.016200
-0.016122
-0.016006
-0.015852
-0.015660
-0.015431
-0.015165
-0.014863
-0.014527
-0.014157
-0.013757
-0.013327
-0.012871
-0.012390
-0.011889
-0.011369
-0.010835
-0.010290
-0.009739
-0.009186
-0.008637
-0.008095
-0.007567
-0.007057
-0.006571
-0.006113
-0.005688
-0.005302
-0.004957
-0.004659
-0.004408
-0.004207
-0.004058
-0.003958
-0.003908
-0.003904
-0.003942
-0.004018
-0.004128
-0.004266
-0.004431
-0.004619
-0.015494
-0.015710
-0.015888
-0.016029
-0.016135
-0.016205
-0.016239
-0.016236
-0.016196
-0.016118
-0.016003
-0.015850
-0.015660
-0.015433
-0.015170
-0.014871
-0.014538
-0.014173
-0.013776
-0.013350
-0.012897
-0.012420
-0.011921
-0.011403
-0.010871
-0.010327
-0.009777
-0.009224
-0.008674
-0.008132
-0.007602
-0.007090
-0.006602
-0.006141
-0.005714
-0.005325
-0.004979
-0.004678
-0.004425
-0.004224
-0.004073
-0.003974
-0.003925
-0.003924
-0.003967
-0.004052
-0.004174
-0.004330
-0.004518
-0.004737
-0.015445
-0.015689
-0.015888
-0.016045
-0.016161
-0.016238
-0.016277
-0.016276
-0.016238
-0.016162
-0.016047
-0.015896
-0.015707
-0.015481
-0.015219
-0.014922
-0.014591
-0.014227
-0.013831
-0.013407
-0.012954
-0.012477
-0.011977
-0.011458
-0.010924
-0.010377
-0.009823
-0.009267
-0.008712
-0.008163
-0.007628
-0.007109
-0.006614
-0.006147
-0.005714
-0.005319
-0.004967
-0.004661
-0.004405
-0.004200
-0.004049
-0.003950
-0.003904
-0.003907
-0.003958
-0.004053
-0.004190
-0.004364
-0.004575
-0.004821
-0.015445
-0.015714
-0.015933
-0.016105
-0.016232
-0.016317
-0.016361
-0.016365
-0.016329
-0.016254
-0.016141
-0.015990
-0.015802
-0.015576
-0.015315
-0.015018
-0.014687
-0.014322
-0.013926
-0.013499
-0.013044
-0.012563
-0.012060
-0.011536
-0.010995
-0.010442
-0.009880
-0.009314
-0.008750
-0.008192
-0.007645
-0.007116
-0.006609
-0.006131
-0.005688
-0.005283
-0.004922
-0.004609
-0.004347
-0.004139
-0.003985
-0.003887
-0.003844
-0.003853
-0.003912
-0.004020
-0.004171
-0.004364
-0.004596
-0.004867
-0.015499
-0.015790
-0.016027
-0.016214
-0.016353
-0.016446
-0.016496
-0.016504
-0.016471
-0.016398
-0.016286
-0.016135
-0.015947
-0.015721
-0.015459
-0.015160
-0.014827
-0.014460
-0.014060
-0.013629
-0.013169
-0.012682
-0.012171
-0.011638
-0.011088
-0.010523
-0.009949
-0.009370
-0.008791
-0.008218
-0.007656
-0.007111
-0.006589
-0.006096
-0.005637
-0.005219
-0.004846
-0.004523
-0.004253
-0.004039
-0.003883
-0.003785
-0.003744
-0.003759
-0.003829
-0.003948
-0.004116
-0.004327
-0.004580
-0.004873
-0.015609
-0.015920
-0.016175
-0.016376
-0.016526
-0.016629
-0.016685
-0.016698
-0.016667
-0.016596
-0.016485
-0.016334
-0.016145
-0.015918
-0.015653
-0.015352
-0.015014
-0.014642
-0.014236
-0.013799
-0.013330
-0.012834
-0.012312
-0.011767
-0.011203
-0.010623
-0.010032
-0.009436
-0.008838
-0.008245
-0.007662
-0.007097
-0.006554
-0.006041
-0.005564
-0.005128
-0.004740
-0.004403
-0.004122
-0.003901
-0.003740
-0.003641
-0.003604
-0.003626
-0.003705
-0.003838
-0.004022
-0.004252
-0.004526
-0.004840
-0.015779
-0.016110
-0.016381
-0.016596
-0.016757
-0.016868
-0.016931
-0.016948
-0.016921
-0.016851
-0.016740
-0.016589
-0.016398
-0.016168
-0.015900
-0.015594
-0.015251
-0.014872
-0.014458
-0.014011
-0.013532
-0.013023
-0.012486
-0.011925
-0.011344
-0.010745
-0.010133
-0.009514
-0.008892
-0.008274
-0.007667
-0.007075
-0.006508
-0.005970
-0.005469
-0.005011
-0.004603
-0.004249
-0.003955
-0.003724
-0.003557
-0.003456
-0.003421
-0.003450
-0.003540
-0.003687
-0.003887
-0.004137
-0.004431
-0.004767
-0.016011
-0.016360
-0.016648
-0.016876
-0.017049
-0.017168
-0.017238
-0.017259
-0.017235
-0.017166
-0.017055
-0.016903
-0.016709
-0.016476
-0.016202
-0.015890
-0.015540
-0.015152
-0.014728
-0.014269
-0.013776
-0.013251
-0.012697
-0.012117
-0.011514
-0.010891
-0.010254
-0.009607
-0.008957
-0.008310
-0.007671
-0.007049
-0.006450
-0.005882
-0.005353
-0.004868
-0.004436
-0.004061
-0.003750
-0.003506
-0.003332
-0.003228
-0.003195
-0.003230
-0.003331
-0.003493
-0.003712
-0.003981
-0.004298
-0.004656
-0.016306
-0.016674
-0.016979
-0.017221
-0.017405
-0.017533
-0.017608
-0.017634
-0.017612
-0.017545
-0.017433
-0.017278
-0.017082
-0.016843
-0.016564
-0.016244
-0.015885
-0.015486
-0.015050
-0.014576
-0.014067
-0.013523
-0.012949
-0.012346
-0.011717
-0.011067
-0.010399
-0.009721
-0.009037
-0.008354
-0.007680
-0.007021
-0.006385
-0.005781
-0.005217
-0.004701
-0.004239
-0.003840
-0.003508
-0.003248
-0.003063
-0.002955
-0.002922
-0.002964
-0.003076
-0.003254
-0.003492
-0.003784
-0.004124
-0.004506
-0.016668
-0.017056
-0.017377
-0.017633
-0.017828
-0.017965
-0.018047
-0.018077
-0.018058
-0.017991
-0.017878
-0.017720
-0.017519
-0.017275
-0.016988
-0.016660
-0.016290
-0.015879
-0.015427
-0.014937
-0.014409
-0.013844
-0.013246
-0.012616
-0.011958
-0.011276
-0.010575
-0.009859
-0.009136
-0.008413
-0.007696
-0.006994
-0.006316
-0.005669
-0.005065
-0.004510
-0.004013
-0.003583
-0.003226
-0.002947
-0.002749
-0.002634
-0.002602
-0.002650
-0.002774
-0.002969
-0.003229
-0.003545
-0.003910
-0.004318
-0.017098
-0.017507
-0.017846
-0.018117
-0.018324
-0.018470
-0.018558
-0.018592
-0.018574
-0.018507
-0.018393
-0.018232
-0.018026
-0.017775
-0.017480
-0.017141
-0.016759
-0.016333
-0.015866
-0.015357
-0.014807
-0.014219
-0.013594
-0.012935
-0.012244
-0.011526
-0.010785
-0.010028
-0.009261
-0.008490
-0.007725
-0.006974
-0.006245
-0.005550
-0.004897
-0.004297
-0.003760
-0.003293
-0.002905
-0.002602
-0.002387
-0.002263
-0.002230
-0.002284
-0.002421
-0.002635
-0.002918
-0.003261
-0.003656
-0.004094
-0.017600
-0.018032
-0.018390
-0.018676
-0.018895
-0.019050
-0.019145
-0.019183
-0.019167
-0.019100
-0.018983
-0.018818
-0.018606
-0.018347
-0.018043
-0.017693
-0.017297
-0.016856
-0.016371
-0.015841
-0.015269
-0.014654
-0.014000
-0.013307
-0.012581
-0.011823
-0.011039
-0.010234
-0.009417
-0.008594
-0.007774
-0.006966
-0.006180
-0.005427
-0.004719
-0.004066
-0.003479
-0.002969
-0.002544
-0.002212
-0.001976
-0.001840
-0.001804
-0.001864
-0.002015
-0.002249
-0.002559
-0.002932
-0.003360
-0.003833
-0.018177
-0.018633
-0.019012
-0.019315
-0.019547
-0.019712
-0.019813
-0.019855
-0.019841
-0.019773
-0.019653
-0.019483
-0.019265
-0.018998
-0.018683
-0.018321
-0.017911
-0.017454
-0.016949
-0.016397
-0.015800
-0.015157
-0.014470
-0.013743
-0.012976
-0.012175
-0.011343
-0.010487
-0.009614
-0.008732
-0.007849
-0.006977
-0.006126
-0.005307
-0.004534
-0.003820
-0.003175
-0.002613
-0.002144
-0.001775
-0.001513
-0.001361
-0.001319
-0.001384
-0.001550
-0.001808
-0.002147
-0.002556
-0.003023
-0.003535
-0.018834
-0.019316
-0.019717
-0.020038
-0.020284
-0.020459
-0.020567
-0.020613
-0.020600
-0.020531
-0.020408
-0.020234
-0.020008
-0.019733
-0.019407
-0.019032
-0.018607
-0.018132
-0.017607
-0.017032
-0.016408
-0.015735
-0.015015
-0.014249
-0.013441
-0.012592
-0.011709
-0.010796
-0.009861
-0.008914
-0.007962
-0.007017
-0.006092
-0.005198
-0.004350
-0.003563
-0.002851
-0.002227
-0.001703
-0.001291
-0.000996
-0.000823
-0.000773
-0.000842
-0.001024
-0.001307
-0.001681
-0.002130
-0.002642
-0.003202
-0.019573
-0.020085
-0.020510
-0.020851
-0.021112
-0.021298
-0.021413
-0.021463
-0.021451
-0.021381
-0.021255
-0.021075
-0.020842
-0.020557
-0.020221
-0.019832
-0.019391
-0.018898
-0.018352
-0.017753
-0.017102
-0.016398
-0.015642
-0.014837
-0.013984
-0.013086
-0.012147
-0.011173
-0.010172
-0.009152
-0.008124
-0.007098
-0.006089
-0.005109
-0.004176
-0.003304
-0.002512
-0.001814
-0.001226
-0.000759
-0.000422
-0.000223
-0.000160
-0.000231
-0.000429
-0.000741
-0.001154
-0.001651
-0.002216
-0.002832
-0.020401
-0.020945
-0.021397
-0.021759
-0.022036
-0.022234
-0.022357
-0.022411
-0.022400
-0.022329
-0.022199
-0.022014
-0.021773
-0.021479
-0.021131
-0.020729
-0.020272
-0.019761
-0.019194
-0.018571
-0.017891
-0.017156
-0.016364
-0.015518
-0.014618
-0.013669
-0.012672
-0.011632
-0.010559
-0.009462
-0.008349
-0.007234
-0.006130
-0.005054
-0.004022
-0.003053
-0.002166
-0.001380
-0.000713
-0.000180
0.000209
0.000444
0.000525
0.000454
0.000240
-0.000104
-0.000562
-0.001115
-0.001743
-0.002426
-0.021323
-0.021903
-0.022384
-0.022769
-0.023064
-0.023274
-0.023405
-0.023464
-0.023455
-0.023382
-0.023248
-0.023057
-0.022809
-0.022505
-0.022145
-0.021730
-0.021258
-0.020728
-0.020141
-0.019494
-0.018787
-0.018019
-0.017192
-0.016304
-0.015357
-0.014354
-0.013297
-0.012189
-0.011041
-0.009860
-0.008656
-0.007442
-0.006234
-0.005048
-0.003904
-0.002822
-0.001825
-0.000934
-0.000172
0.000444
0.000898
0.001181
0.001288
0.001222
0.000992
0.000613
0.000103
-0.000515
-0.001218
-0.001982
-0.022345
-0.022965
-0.023478
-0.023889
-0.024203
-0.024426
-0.024566
-0.024629
-0.024621
-0.024547
-0.024409
-0.024212
-0.023956
-0.023643
-0.023272
-0.022844
-0.022357
-0.021810
-0.021202
-0.020532
-0.019798
-0.019000
-0.018137
-0.017209
-0.016216
-0.015159
-0.014041
-0.012863
-0.011635
-0.010366
-0.009065
-0.007745
-0.006421
-0.005113
-0.003841
-0.002629
-0.001503
-0.000488
0.000389
0.001107
0.001645
0.001990
0.002135
0.002081
0.001837
0.001419
0.000850
0.000155
-0.000638
-0.001500
-0.023475
-0.024139
-0.024688
-0.025126
-0.025461
-0.025699
-0.025848
-0.025915
-0.025908
-0.025832
-0.025691
-0.025487
-0.025224
-0.024902
-0.024520
-0.024080
-0.023578
-0.023015
-0.022389
-0.021697
-0.020938
-0.020111
-0.019215
-0.018247
-0.017209
-0.016099
-0.014921
-0.013674
-0.012365
-0.011004
-0.009600
-0.008166
-0.006718
-0.005274
-0.003859
-0.002499
-0.001222
-0.000060
0.000957
0.001801
0.002445
0.002872
0.003070
0.003039
0.002785
0.002328
0.001692
0.000907
0.000007
-0.000975
-0.024721
-0.025433
-0.026022
-0.026491
-0.026848
-0.027101
-0.027260
-0.027332
-0.027326
-0.027247
-0.027101
-0.026892
-0.026621
-0.026289
-0.025898
-0.025445
-0.024931
-0.024353
-0.023710
-0.022999
-0.022218
-0.021365
-0.020437
-0.019434
-0.018353
-0.017194
-0.015958
-0.014644
-0.013255
-0.011801
-0.010291
-0.008737
-0.007155
-0.005564
-0.003990
-0.002461
-0.001010
0.000327
0.001513
0.002512
0.003292
0.003827
0.004101
0.004107
0.003852
0.003355
0.002644
0.001754
0.000726
-0.000401
-0.026092
-0.026859
-0.027491
-0.027994
-0.028375
-0.028644
-0.028812
-0.028889
-0.028882
-0.028801
-0.028650
-0.028434
-0.028155
-0.027815
-0.027413
-0.026951
-0.026425
-0.025834
-0.025176
-0.024449
-0.023649
-0.022773
-0.021819
-0.020784
-0.019666
-0.018463
-0.017173
-0.015797
-0.014330
-0.012786
-0.011170
-0.009493
-0.007770
-0.006021
-0.004272
-0.002554
-0.000903
0.000639
0.002029
0.003220
0.004173
0.004850
0.005228
0.005294
0.005052
0.004518
0.003726
0.002715
0.001534
0.000230
-0.027599
-0.028427
-0.029108
-0.029648
-0.030055
-0.030341
-0.030518
-0.030597
-0.030590
-0.030504
-0.030347
-0.030123
-0.029836
-0.029487
-0.029077
-0.028604
-0.028068
-0.027467
-0.026797
-0.026057
-0.025242
-0.024348
-0.023373
-0.022313
-0.021164
-0.019923
-0.018587
-0.017156
-0.015619
-0.013990
-0.012271
-0.010472
-0.008605
-0.006690
-0.004753
-0.002825
-0.000947
0.000834
0.002466
0.003894
0.005065
0.005931
0.006453
0.006612
0.006403
0.005842
0.004963
0.003815
0.002452
0.000935
-0.029254
-0.030152
-0.030887
-0.031467
-0.031901
-0.032204
-0.032389
-0.032470
-0.032460
-0.032368
-0.032203
-0.031970
-0.031673
-0.031315
-0.030895
-0.030414
-0.029869
-0.029260
-0.028581
-0.027831
-0.027006
-0.026101
-0.025111
-0.024033
-0.022862
-0.021593
-0.020221
-0.018743
-0.017150
-0.015445
-0.013632
-0.011716
-0.009708
-0.007623
-0.005487
-0.003331
-0.001199
0.000857
0.002776
0.004493
0.005939
0.007049
0.007770
0.008066
0.007923
0.007351
0.006387
0.005084
0.003510
0.001735
-0.031073
-0.032048
-0.032845
-0.033468
-0.033931
-0.034250
-0.034442
-0.034522
-0.034506
-0.034404
-0.034228
-0.033984
-0.033676
-0.033307
-0.032877
-0.032387
-0.031835
-0.031219
-0.030535
-0.029779
-0.028949
-0.028038
-0.027042
-0.025956
-0.024772
-0.023486
-0.022091
-0.020581
-0.018949
-0.017182
-0.015288
-0.013268
-0.011126
-0.008875
-0.006536
-0.004139
-0.001729
0.000639
0.002894
0.004960
0.006748
0.008176
0.009166
0.009662
0.009632
0.009079
0.008036
0.006566
0.004748
0.002666
-0.033071
-0.034136
-0.035000
-0.035671
-0.036164
-0.036497
-0.036692
-0.036767
-0.036740
-0.036626
-0.036434
-0.036174
-0.035852
-0.035470
-0.035029
-0.034530
-0.033971
-0.033349
-0.032662
-0.031905
-0.031075
-0.030165
-0.029171
-0.028086
-0.026903
-0.025614
-0.024211
-0.022687
-0.021033
-0.019227
-0.017274
-0.015168
-0.012909
-0.010503
-0.007964
-0.005320
-0.002612
0.000101
0.002744
0.005223
0.007435
0.009267
0.010616
0.011395
0.011548
0.011059
0.009959
0.008313
0.006217
0.003773
-0.035272
-0.036439
-0.037378
-0.038100
-0.038622
-0.038967
-0.039160
-0.039224
-0.039180
-0.039044
-0.038831
-0.038551
-0.038209
-0.037810
-0.037355
-0.036845
-0.036278
-0.035651
-0.034963
-0.034208
-0.033383
-0.032482
-0.031498
-0.030425
-0.029255
-0.027979
-0.026587
-0.025069
-0.023413
-0.021598
-0.019613
-0.017450
-0.015100
-0.012560
-0.009836
-0.006948
-0.003931
-0.000843
0.002235
0.005200
0.007923
0.010266
0.012086
0.013257
0.013687
0.013333
0.012211
0.010392
0.007988
0.005123
-0.037700
-0.038983
-0.040007
-0.040783
-0.041333
-0.041684
-0.041867
-0.041910
-0.041839
-0.041674
-0.041430
-0.041121
-0.040752
-0.040330
-0.039857
-0.039332
-0.038755
-0.038123
-0.037434
-0.036684
-0.035867
-0.034980
-0.034015
-0.032965
-0.031822
-0.030575
-0.029214
-0.027725
-0.026092
-0.024300
-0.022317
-0.020133
-0.017727
-0.015085
-0.012203
-0.009087
-0.005762
-0.002281
0.001276
0.004795
0.008128
0.011101
0.013528
0.015230
0.016064
0.015944
0.014863
0.012890
0.010153
0.006807
-0.040386
-0.041805
-0.042923
-0.043755
-0.044328
-0.044677
-0.044838
-0.044848
-0.044735
-0.044527
-0.044240
-0.043890
-0.043485
-0.043031
-0.042531
-0.041986
-0.041395
-0.040755
-0.040064
-0.039319
-0.038514
-0.037645
-0.036706
-0.035690
-0.034586
-0.033385
-0.032074
-0.030638
-0.029059
-0.027318
-0.025378
-0.023215
-0.020798
-0.018099
-0.015097
-0.011783
-0.008167
-0.004288
-0.000220
0.003918
0.007960
0.011695
0.014887
0.017290
0.018692
0.018946
0.018002
0.015916
0.012834
0.008944
-0.043372
-0.044947
-0.046171
-0.047059
-0.047647
-0.047979
-0.048101
-0.048057
-0.047885
-0.047613
-0.047266
-0.046860
-0.046404
-0.045907
-0.045371
-0.044796
-0.044184
-0.043531
-0.042835
-0.042093
-0.041300
-0.040453
-0.039545
-0.038569
-0.037517
-0.036376
-0.035135
-0.033776
-0.032278
-0.030617
-0.028762
-0.026668
-0.024291
-0.021587
-0.018517
-0.015050
-0.011175
-0.006909
-0.002314
0.002495
0.007340
0.011976
0.016108
0.019415
0.021591
0.022402
0.021732
0.019609
0.016189
0.011697
-0.046707
-0.048465
-0.049805
-0.050747
-0.051336
-0.051630
-0.051687
-0.051562
-0.051302
-0.050942
-0.050511
-0.050027
-0.049502
-0.048945
-0.048358
-0.047743
-0.047099
-0.046425
-0.045717
-0.044974
-0.044192
-0.043366
-0.042492
-0.041562
-0.040569
-0.039501
-0.038345
-0.037084
-0.035693
-0.034146
-0.032408
-0.030430
-0.028146
-0.025495
-0.022415
-0.018851
-0.014763
-0.010141
-0.005022
0.000493
0.006222
0.011894
0.017155
0.021594
0.024793
0.026398
0.026193
0.024149
0.020423
0.015281
-0.050456
-0.052431
-0.053897
-0.054885
-0.055453
-0.055676
-0.055630
-0.055384
-0.054998
-0.054515
-0.053967
-0.053378
-0.052760
-0.052122
-0.051466
-0.050795
-0.050107
-0.049400
-0.048673
-0.047922
-0.047144
-0.046337
-0.045495
-0.044612
-0.043683
-0.042695
-0.041637
-0.040488
-0.039226
-0.037817
-0.036222
-0.034400
-0.032259
-0.029717
-0.026688
-0.023088
-0.018845
-0.013912
-0.008292
-0.002057
0.004619
0.011451
0.018030
0.023850
0.028360
0.031051
0.031563
0.029771
0.025807
0.019980
-0.054705
-0.056937
-0.058541
-0.059556
-0.060065
-0.060167
-0.059963
-0.059542
-0.058978
-0.058324
-0.057619
-0.056888
-0.056146
-0.055401
-0.054655
-0.053908
-0.053160
-0.052407
-0.051648
-0.050879
-0.050098
-0.049303
-0.048489
-0.047652
-0.046785
-0.045880
-0.044923
-0.043897
-0.042775
-0.041523
-0.040097
-0.038442
-0.036486
-0.034097
-0.031171
-0.027593
-0.023253
-0.018063
-0.011978
-0.005032
0.002631
0.010725
0.018802
0.026262
0.032406
0.036532
0.038084
0.036783
0.032699
0.026168
-0.059569
-0.062110
-0.063857
-0.064867
-0.065257
-0.065162
-0.064720
-0.064046
-0.063233
-0.062347
-0.061431
-0.060514
-0.059611
-0.058727
-0.057864
-0.057020
-0.056193
-0.055379
-0.054574
-0.053776
-0.052982
-0.052190
-0.051397
-0.050598
-0.049790
-0.048964
-0.048107
-0.047202
-0.046222
-0.045132
-0.043881
-0.042405
-0.040646
-0.038435
-0.035645
-0.032130
-0.027741
-0.022342
-0.015836
-0.008201
0.000466
0.009901
0.019638
0.028997
0.037122
0.043088
0.046079
0.045590
0.041565
0.034340
-0.065206
-0.068122
-0.070009
-0.070954
-0.071127
-0.070723
-0.069927
-0.068893
-0.067737
-0.066537
-0.065345
-0.064188
-0.063079
-0.062021
-0.061012
-0.060049
-0.059124
-0.058232
-0.057368
-0.056529
-0.055711
-0.054913
-0.054131
-0.053363
-0.052604
-0.051847
-0.051081
-0.050287
-0.049440
-0.048501
-0.047416
-0.046110
-0.044533
-0.042498
-0.039848
-0.036408
-0.031993
-0.026416
-0.019522
-0.011221
-0.001547
0.009286
0.020824
0.032331
0.042804
0.051069
0.055985
0.056729
0.053023
0.045149
-0.071841
-0.075217
-0.077219
-0.077992
-0.077792
-0.076907
-0.075592
-0.074051
-0.072427
-0.070815
-0.069266
-0.067806
-0.066444
-0.065176
-0.063994
-0.062888
-0.061848
-0.060865
-0.059931
-0.059041
-0.058191
-0.057377
-0.056598
-0.055850
-0.055130
-0.054429
-0.053738
-0.053038
-0.052303
-0.051491
-0.050547
-0.049392
-0.047931
-0.046044
-0.043503
-0.040113
-0.035655
-0.029898
-0.022621
-0.013661
-0.002972
0.009305
0.022768
0.036666
0.049872
0.060955
0.068388
0.070910
0.067893
0.059462
-0.079806
-0.083749
-0.085796
-0.086204
-0.085382
-0.083757
-0.081689
-0.079444
-0.077196
-0.075049
-0.073054
-0.071225
-0.069562
-0.068050
-0.066671
-0.065406
-0.064241
-0.063160
-0.062150
-0.061204
-0.060316
-0.059483
-0.058701
-0.057965
-0.057272
-0.056613
-0.055978
-0.055348
-0.054694
-0.053973
-0.053125
-0.052063
-0.050676
-0.048857
-0.046352
-0.042943
-0.038380
-0.032394
-0.024700
-0.015048
-0.003314
0.010463
0.025977
0.042513
0.058871
0.073372
0.084050
0.089070
0.087268
0.078443
-0.089614
-0.094248
-0.096173
-0.095872
-0.094025
-0.091278
-0.088131
-0.084925
-0.081862
-0.079045
-0.076508
-0.074248
-0.072246
-0.070467
-0.068877
-0.067449
-0.066160
-0.064984
-0.063903
-0.062905
-0.061981
-0.061131
-0.060346
-0.059621
-0.058946
-0.058314
-0.057716
-0.057129
-0.056522
-0.055846
-0.055037
-0.054000
-0.052615
-0.050765
-0.048190
-0.044655
-0.039877
-0.033572
-0.025385
-0.014948
-0.002090
0.013263
0.030984
0.050438
0.070428
0.089076
0.103936
0.112442
0.112632
0.103696
-0.102101
-0.107535
-0.108959
-0.107334
-0.103816
-0.099382
-0.094718
-0.090236
-0.086142
-0.082517
-0.079356
-0.076619
-0.074262
-0.072215
-0.070420
-0.068841
-0.067452
-0.066203
-0.065065
-0.064038
-0.063105
-0.062249
-0.061466
-0.060751
-0.060094
-0.059485
-0.058910
-0.058344
-0.057752
-0.057080
-0.056254
-0.055174
-0.053704
-0.051704
-0.048924
-0.045107
-0.039951
-0.033122
-0.024254
-0.013011
0.001057
0.018073
0.038226
0.060937
0.085145
0.108871
0.129196
0.142628
0.146027
0.137503
-0.118714
-0.124923
-0.125005
-0.120945
-0.114729
-0.107813
-0.101072
-0.094957
-0.089617
-0.085078
-0.081249
-0.078019
-0.075341
-0.073063
-0.071117
-0.069449
-0.067988
-0.066697
-0.065546
-0.064514
-0.063586
-0.062747
-0.061986
-0.061295
-0.060664
-0.060079
-0.059522
-0.058963
-0.058362
-0.057659
-0.056772
-0.055590
-0.053964
-0.051724
-0.048635
-0.044419
-0.038750
-0.031253
-0.021515
-0.009100
0.006438
0.025423
0.048008
0.074232
0.103393
0.133421
0.161048
0.181653
0.190331
0.183286
-0.142110
-0.148541
-0.145426
-0.136946
-0.126452
-0.115987
-0.106523
-0.098446
-0.091696
-0.086230
-0.081776
-0.078173
-0.075233
-0.072804
-0.070780
-0.069073
-0.067612
-0.066343
-0.065230
-0.064245
-0.063368
-0.062582
-0.061874
-0.061232
-0.060645
-0.060094
-0.059557
-0.059000
-0.058377
-0.057620
-0.056638
-0.055310
-0.053476
-0.050929
-0.047457
-0.042759
-0.036482
-0.028213
-0.017489
-0.003799
0.013394
0.034601
0.060249
0.090557
0.125139
0.162849
0.200447
0.231890
0.249648
0.246461
-0.177504
-0.181842
-0.171454
-0.155088
-0.138024
-0.122765
-0.109959
-0.099803
-0.091711
-0.085434
-0.080521
-0.076671
-0.073629
-0.071196
-0.069222
-0.067598
-0.066239
-0.065082
-0.064084
-0.063212
-0.062443
-0.061758
-0.061144
-0.060584
-0.060066
-0.059568
-0.059064
-0.058515
-0.057869
-0.057051
-0.055962
-0.054470
-0.052404
-0.049532
-0.045655
-0.040453
-0.033545
-0.024488
-0.012766
0.002208
0.021087
0.044581
0.073419
0.108266
0.149473
0.196584
0.247313
0.295554
0.329752
0.336049
-0.235792
-0.230057
-0.203604
-0.173717
-0.147170
-0.126147
-0.109928
-0.097796
-0.088743
-0.082016
-0.076992
-0.073212
-0.070338
-0.068121
-0.066385
-0.065000
-0.063873
-0.062936
-0.062144
-0.061462
-0.060866
-0.060338
-0.059861
-0.059423
-0.059005
-0.058586
-0.058135
-0.057613
-0.056959
-0.056095
-0.054914
-0.053275
-0.050998
-0.047843
-0.043613
-0.037970
-0.030516
-0.020779
-0.008198
0.007883
0.028239
0.053782
0.085591
0.124919
0.173127
0.231354
0.299422
0.372992
0.438028
0.467676
-0.340864
-0.299150
-0.238783
-0.187834
-0.149751
-0.122837
-0.104056
-0.090999
-0.081878
-0.075469
-0.070929
-0.067685
-0.065341
-0.063625
-0.062349
-0.061380
-0.060628
-0.060027
-0.059535
-0.059119
-0.058760
-0.058440
-0.058147
-0.057866
-0.057581
-0.057271
-0.056904
-0.056437
-0.055809
-0.054938
-0.053712
-0.051987
-0.049573
-0.046251
-0.041800
-0.035882
-0.028089
-0.017932
-0.004822
0.011950
0.033254
0.060180
0.094138
0.137008
0.191364
0.260675
0.349057
0.458809
0.580584
0.669414
-0.544661
-0.386382
-0.263377
-0.185389
-0.137722
-0.108412
-0.090033
-0.078292
-0.070680
-0.065700
-0.062428
-0.060279
-0.058872
-0.057956
-0.057364
-0.056982
-0.056736
-0.056572
-0.056459
-0.056374
-0.056302
-0.056233
-0.056157
-0.056066
-0.055946
-0.055775
-0.055526
-0.055155
-0.054603
-0.053788
-0.052600
-0.050895
-0.048478
-0.045168
-0.040714
-0.034786
-0.026982
-0.016814
-0.003690
0.013115
0.034509
0.061673
0.096213
0.140466
0.198060
0.274978
0.381366
0.533500
0.748693
0.993808
-0.945426
-0.435295
-0.233208
-0.145185
-0.102336
-0.079674
-0.067031
-0.059781
-0.055611
-0.053274
-0.052055
-0.051524
-0.051411
-0.051545
-0.051814
-0.052148
-0.052500
-0.052842
-0.053159
-0.053442
-0.053687
-0.053893
-0.054058
-0.054178
-0.054245
-0.054243
-0.054149
-0.053923
-0.053511
-0.052837
-0.051797
-0.050251
-0.048032
-0.044955
-0.040774
-0.035177
-0.027781
-0.018120
-0.005630
0.010382
0.030777
0.056674
0.089609
0.131868
0.187236
0.262814
0.373564
0.553432
0.878605
1.511194
