# vtk DataFile Version 3.0
Scalar Field
ASCII
DATASET RECTILINEAR_GRID
DIMENSIONS 50 50 1
X_COORDINATES 50 double
0.100000 0.300000 0.500000 0.700000 0.900000 1.100000 1.300000 1.500000 1.700000 1.900000 2.100000 2.300000 2.500000 2.700000 2.900000 3.100000 3.300000 3.500000 3.700000 3.900000 4.100000 4.300000 4.500000 4.700000 4.900000 5.100000 5.300000 5.500000 5.700000 5.900000 6.100000 6.300000 6.500000 6.700000 6.900000 7.100000 7.300000 7.500000 7.700000 7.900000 8.100000 8.300000 8.500000 8.700000 8.900000 9.100000 9.300000 9.500000 9.700000 9.900000 
Y_COORDINATES 50 double
0.100000 0.300000 0.500000 0.700000 0.900000 1.100000 1.300000 1.500000 1.700000 1.900000 2.100000 2.300000 2.500000 2.700000 2.900000 3.100000 3.300000 3.500000 3.700000 3.900000 4.100000 4.300000 4.500000 4.700000 4.900000 5.100000 5.300000 5.500000 5.700000 5.900000 6.100000 6.300000 6.500000 6.700000 6.900000 7.100000 7.300000 7.500000 7.700000 7.900000 8.100000 8.300000 8.500000 8.700000 8.900000 9.100000 9.300000 9.500000 9.700000 9.900000 
Z_COORDINATES 1 double
0.0
POINT_DATA 2500
SCALARS Skalarfeld double 1
LOOKUP_TABLE default
-0.012568
-0.012622
-0.012746
-0.012910
-0.013083
-0.013246
-0.013382
-0.013481
-0.013538
-0.013547
-0.013507
-0.013417
-0.013276
-0.013085
-0.012846
-0.012560
-0.012228
-0.011853
-0.011436
-0.010981
-0.010491
-0.009968
-0.009417
-0.008842
-0.008249
-0.007642
-0.007029
-0.006416
-0.005811
-0.005221
-0.004654
-0.004119
-0.003622
-0.003172
-0.002775
-0.002437
-0.002163
-0.001956
-0.001818
-0.001748
-0.001744
-0.001802
-0.001914
-0.002070
-0.002259
-0.002464
-0.002665
-0.002840
-0.002961
-0.003004
-0.012514
-0.012568
-0.012671
-0.012803
-0.012941
-0.013070
-0.013177
-0.013253
-0.013291
-0.013287
-0.013239
-0.013145
-0.013005
-0.012819
-0.012588
-0.012313
-0.011995
-0.011637
-0.011239
-0.010806
-0.010339
-0.009842
-0.009319
-0.008774
-0.008211
-0.007637
-0.007058
-0.006479
-0.005907
-0.005351
-0.004817
-0.004313
-0.003845
-0.003420
-0.003045
-0.002724
-0.002462
-0.002261
-0.002123
-0.002047
-0.002030
-0.002068
-0.002154
-0.002278
-0.002431
-0.002597
-0.002760
-0.002903
-0.003005
-0.003047
-0.012388
-0.012464
-0.012569
-0.012688
-0.012808
-0.012917
-0.013004
-0.013062
-0.013086
-0.013072
-0.013018
-0.012921
-0.012782
-0.012600
-0.012375
-0.012110
-0.011804
-0.011460
-0.011080
-0.010665
-0.010219
-0.009744
-0.009244
-0.008724
-0.008187
-0.007640
-0.007087
-0.006535
-0.005991
-0.005461
-0.004953
-0.004472
-0.004026
-0.003621
-0.003262
-0.002955
-0.002702
-0.002507
-0.002369
-0.002289
-0.002263
-0.002287
-0.002356
-0.002460
-0.002589
-0.002733
-0.002876
-0.003006
-0.003108
-0.003167
-0.012222
-0.012333
-0.012453
-0.012574
-0.012688
-0.012786
-0.012861
-0.012908
-0.012922
-0.012901
-0.012841
-0.012743
-0.012604
-0.012426
-0.012208
-0.011950
-0.011656
-0.011324
-0.010958
-0.010559
-0.010130
-0.009674
-0.009193
-0.008693
-0.008177
-0.007651
-0.007119
-0.006588
-0.006065
-0.005555
-0.005065
-0.004602
-0.004172
-0.003781
-0.003434
-0.003136
-0.002890
-0.002699
-0.002562
-0.002480
-0.002449
-0.002466
-0.002525
-0.002617
-0.002735
-0.002868
-0.003006
-0.003138
-0.003252
-0.003342
-0.012041
-0.012193
-0.012336
-0.012468
-0.012584
-0.012680
-0.012750
-0.012790
-0.012799
-0.012772
-0.012710
-0.012610
-0.012473
-0.012298
-0.012085
-0.011835
-0.011549
-0.011229
-0.010874
-0.010489
-0.010074
-0.009632
-0.009168
-0.008683
-0.008183
-0.007672
-0.007156
-0.006641
-0.006132
-0.005635
-0.005158
-0.004707
-0.004287
-0.003905
-0.003566
-0.003275
-0.003033
-0.002845
-0.002709
-0.002627
-0.002594
-0.002608
-0.002663
-0.002752
-0.002868
-0.003001
-0.003143
-0.003286
-0.003422
-0.003547
-0.011869
-0.012060
-0.012231
-0.012379
-0.012504
-0.012602
-0.012672
-0.012711
-0.012716
-0.012688
-0.012624
-0.012524
-0.012389
-0.012217
-0.012009
-0.011765
-0.011487
-0.011175
-0.010831
-0.010456
-0.010052
-0.009622
-0.009169
-0.008696
-0.008207
-0.007708
-0.007202
-0.006695
-0.006195
-0.005707
-0.005237
-0.004791
-0.004377
-0.004000
-0.003664
-0.003375
-0.003136
-0.002949
-0.002815
-0.002733
-0.002702
-0.002717
-0.002773
-0.002865
-0.002985
-0.003126
-0.003281
-0.003442
-0.003604
-0.003765
-0.011719
-0.011950
-0.012149
-0.012317
-0.012454
-0.012559
-0.012632
-0.012671
-0.012677
-0.012649
-0.012585
-0.012487
-0.012353
-0.012184
-0.011981
-0.011743
-0.011471
-0.011166
-0.010830
-0.010463
-0.010067
-0.009646
-0.009200
-0.008735
-0.008253
-0.007759
-0.007258
-0.006756
-0.006259
-0.005773
-0.005305
-0.004860
-0.004446
-0.004068
-0.003732
-0.003443
-0.003204
-0.003017
-0.002884
-0.002804
-0.002775
-0.002794
-0.002857
-0.002956
-0.003087
-0.003241
-0.003413
-0.003597
-0.003788
-0.003984
-0.011605
-0.011873
-0.012100
-0.012288
-0.012440
-0.012554
-0.012633
-0.012677
-0.012685
-0.012658
-0.012596
-0.012499
-0.012368
-0.012202
-0.012003
-0.011769
-0.011503
-0.011204
-0.010873
-0.010512
-0.010122
-0.009706
-0.009265
-0.008803
-0.008324
-0.007831
-0.007330
-0.006827
-0.006328
-0.005839
-0.005366
-0.004917
-0.004498
-0.004116
-0.003775
-0.003482
-0.003240
-0.003051
-0.002919
-0.002841
-0.002816
-0.002842
-0.002913
-0.003025
-0.003170
-0.003343
-0.003537
-0.003746
-0.003967
-0.004197
-0.011535
-0.011838
-0.012093
-0.012302
-0.012469
-0.012595
-0.012682
-0.012730
-0.012742
-0.012718
-0.012659
-0.012565
-0.012436
-0.012274
-0.012078
-0.011848
-0.011586
-0.011291
-0.010964
-0.010607
-0.010220
-0.009806
-0.009366
-0.008904
-0.008423
-0.007928
-0.007422
-0.006913
-0.006406
-0.005909
-0.005427
-0.004968
-0.004539
-0.004146
-0.003797
-0.003496
-0.003248
-0.003056
-0.002922
-0.002846
-0.002827
-0.002861
-0.002944
-0.003071
-0.003234
-0.003429
-0.003648
-0.003885
-0.004137
-0.004400
-0.011516
-0.011852
-0.012134
-0.012365
-0.012548
-0.012686
-0.012781
-0.012837
-0.012854
-0.012834
-0.012778
-0.012687
-0.012561
-0.012402
-0.012209
-0.011983
-0.011724
-0.011432
-0.011107
-0.010751
-0.010365
-0.009950
-0.009509
-0.009043
-0.008557
-0.008054
-0.007539
-0.007018
-0.006499
-0.005988
-0.005491
-0.005016
-0.004572
-0.004165
-0.003802
-0.003489
-0.003232
-0.003034
-0.002897
-0.002822
-0.002808
-0.002851
-0.002948
-0.003093
-0.003279
-0.003498
-0.003745
-0.004013
-0.004297
-0.004592
-0.011556
-0.011924
-0.012231
-0.012483
-0.012682
-0.012833
-0.012938
-0.013001
-0.013024
-0.013008
-0.012956
-0.012869
-0.012747
-0.012591
-0.012401
-0.012178
-0.011921
-0.011630
-0.011306
-0.010950
-0.010562
-0.010144
-0.009698
-0.009225
-0.008729
-0.008215
-0.007686
-0.007150
-0.006612
-0.006081
-0.005564
-0.005068
-0.004603
-0.004175
-0.003794
-0.003464
-0.003194
-0.002986
-0.002844
-0.002769
-0.002760
-0.002814
-0.002926
-0.003091
-0.003301
-0.003549
-0.003827
-0.004128
-0.004445
-0.004774
-0.011660
-0.012057
-0.012389
-0.012661
-0.012877
-0.013041
-0.013156
-0.013227
-0.013257
-0.013247
-0.013199
-0.013116
-0.012998
-0.012845
-0.012658
-0.012436
-0.012181
-0.011891
-0.011567
-0.011209
-0.010817
-0.010394
-0.009939
-0.009457
-0.008948
-0.008418
-0.007871
-0.007314
-0.006753
-0.006197
-0.005654
-0.005131
-0.004638
-0.004184
-0.003778
-0.003427
-0.003138
-0.002917
-0.002767
-0.002690
-0.002685
-0.002749
-0.002878
-0.003065
-0.003302
-0.003581
-0.003894
-0.004231
-0.004584
-0.004947
-0.011832
-0.012258
-0.012615
-0.012907
-0.013139
-0.013316
-0.013442
-0.013522
-0.013558
-0.013554
-0.013512
-0.013433
-0.013318
-0.013168
-0.012984
-0.012764
-0.012510
-0.012220
-0.011894
-0.011533
-0.011137
-0.010705
-0.010241
-0.009746
-0.009221
-0.008672
-0.008102
-0.007520
-0.006931
-0.006344
-0.005768
-0.005211
-0.004684
-0.004198
-0.003760
-0.003381
-0.003069
-0.002829
-0.002667
-0.002584
-0.002581
-0.002655
-0.002801
-0.003012
-0.003280
-0.003594
-0.003944
-0.004321
-0.004714
-0.005116
-0.012078
-0.012532
-0.012912
-0.013224
-0.013473
-0.013663
-0.013800
-0.013888
-0.013932
-0.013934
-0.013898
-0.013823
-0.013713
-0.013567
-0.013385
-0.013167
-0.012914
-0.012623
-0.012296
-0.011930
-0.011528
-0.011088
-0.010612
-0.010101
-0.009558
-0.008987
-0.008390
-0.007777
-0.007155
-0.006531
-0.005916
-0.005319
-0.004751
-0.004224
-0.003748
-0.003333
-0.002990
-0.002726
-0.002546
-0.002454
-0.002451
-0.002533
-0.002697
-0.002933
-0.003233
-0.003586
-0.003979
-0.004400
-0.004838
-0.005283
-0.012400
-0.012883
-0.013287
-0.013619
-0.013884
-0.014087
-0.014235
-0.014333
-0.014385
-0.014394
-0.014363
-0.014294
-0.014188
-0.014046
-0.013867
-0.013652
-0.013399
-0.013108
-0.012779
-0.012409
-0.011999
-0.011550
-0.011061
-0.010533
-0.009970
-0.009373
-0.008747
-0.008100
-0.007438
-0.006772
-0.006112
-0.005467
-0.004850
-0.004273
-0.003750
-0.003291
-0.002909
-0.002612
-0.002408
-0.002302
-0.002294
-0.002382
-0.002563
-0.002826
-0.003161
-0.003556
-0.003997
-0.004469
-0.004958
-0.005453
-0.012805
-0.013316
-0.013744
-0.014096
-0.014377
-0.014594
-0.014754
-0.014862
-0.014922
-0.014938
-0.014914
-0.014851
-0.014750
-0.014612
-0.014437
-0.014225
-0.013974
-0.013683
-0.013352
-0.012978
-0.012562
-0.012103
-0.011600
-0.011055
-0.010469
-0.009845
-0.009188
-0.008501
-0.007797
-0.007083
-0.006369
-0.005669
-0.004994
-0.004359
-0.003778
-0.003265
-0.002834
-0.002495
-0.002258
-0.002129
-0.002111
-0.002203
-0.002398
-0.002688
-0.003062
-0.003503
-0.003997
-0.004527
-0.005076
-0.005629
-0.013297
-0.013836
-0.014288
-0.014660
-0.014958
-0.015190
-0.015361
-0.015479
-0.015548
-0.015572
-0.015555
-0.015499
-0.015404
-0.015272
-0.015103
-0.014894
-0.014646
-0.014357
-0.014025
-0.013649
-0.013227
-0.012758
-0.012242
-0.011680
-0.011072
-0.010420
-0.009728
-0.009000
-0.008248
-0.007480
-0.006708
-0.005944
-0.005202
-0.004498
-0.003848
-0.003269
-0.002776
-0.002383
-0.002102
-0.001942
-0.001906
-0.001994
-0.002202
-0.002519
-0.002932
-0.003425
-0.003979
-0.004574
-0.005192
-0.005814
-0.013879
-0.014448
-0.014925
-0.015318
-0.015633
-0.015879
-0.016063
-0.016191
-0.016270
-0.016303
-0.016294
-0.016245
-0.016159
-0.016034
-0.015870
-0.015668
-0.015425
-0.015139
-0.014808
-0.014431
-0.014006
-0.013530
-0.013003
-0.012424
-0.011795
-0.011115
-0.010389
-0.009618
-0.008814
-0.007988
-0.007151
-0.006315
-0.005496
-0.004711
-0.003980
-0.003320
-0.002751
-0.002289
-0.001951
-0.001746
-0.001681
-0.001758
-0.001973
-0.002315
-0.002770
-0.003319
-0.003940
-0.004610
-0.005308
-0.006012
-0.014558
-0.015156
-0.015659
-0.016073
-0.016406
-0.016667
-0.016864
-0.017004
-0.017093
-0.017136
-0.017136
-0.017097
-0.017019
-0.016903
-0.016749
-0.016554
-0.016318
-0.016039
-0.015713
-0.015338
-0.014912
-0.014433
-0.013898
-0.013306
-0.012657
-0.011951
-0.011192
-0.010377
-0.009521
-0.008633
-0.007724
-0.006809
-0.005902
-0.005025
-0.004197
-0.003440
-0.002777
-0.002229
-0.001815
-0.001549
-0.001442
-0.001497
-0.001711
-0.002075
-0.002571
-0.003180
-0.003875
-0.004632
-0.005422
-0.006223
-0.015338
-0.015967
-0.016496
-0.016932
-0.017284
-0.017561
-0.017771
-0.017923
-0.018023
-0.018077
-0.018089
-0.018060
-0.017994
-0.017889
-0.017746
-0.017563
-0.017338
-0.017068
-0.016751
-0.016383
-0.015961
-0.015482
-0.014944
-0.014343
-0.013679
-0.012952
-0.012161
-0.011306
-0.010397
-0.009445
-0.008461
-0.007458
-0.006454
-0.005471
-0.004530
-0.003659
-0.002882
-0.002225
-0.001714
-0.001366
-0.001198
-0.001215
-0.001417
-0.001795
-0.002331
-0.003003
-0.003781
-0.004634
-0.005533
-0.006447
-0.016224
-0.016886
-0.017442
-0.017901
-0.018272
-0.018565
-0.018790
-0.018955
-0.019068
-0.019134
-0.019158
-0.019142
-0.019089
-0.018998
-0.018870
-0.018702
-0.018491
-0.018236
-0.017933
-0.017578
-0.017166
-0.016695
-0.016160
-0.015557
-0.014885
-0.014141
-0.013324
-0.012435
-0.011475
-0.010459
-0.009396
-0.008301
-0.007191
-0.006088
-0.005018
-0.004010
-0.003096
-0.002305
-0.001669
-0.001214
-0.000959
-0.000918
-0.001092
-0.001473
-0.002045
-0.002781
-0.003649
-0.004612
-0.005635
-0.006683
-0.017221
-0.017917
-0.018503
-0.018986
-0.019377
-0.019687
-0.019927
-0.020106
-0.020232
-0.020312
-0.020350
-0.020349
-0.020312
-0.020239
-0.020128
-0.019980
-0.019789
-0.019555
-0.019272
-0.018936
-0.018542
-0.018087
-0.017563
-0.016968
-0.016296
-0.015545
-0.014711
-0.013795
-0.012790
-0.011713
-0.010572
-0.009380
-0.008156
-0.006921
-0.005704
-0.004538
-0.003459
-0.002505
-0.001712
-0.001116
-0.000745
-0.000616
-0.000739
-0.001109
-0.001708
-0.002507
-0.003471
-0.004556
-0.005721
-0.006924
-0.018336
-0.019068
-0.019684
-0.020192
-0.020604
-0.020933
-0.021189
-0.021382
-0.021523
-0.021618
-0.021671
-0.021688
-0.021670
-0.021617
-0.021529
-0.021404
-0.021240
-0.021032
-0.020777
-0.020469
-0.020103
-0.019673
-0.019172
-0.018595
-0.017936
-0.017189
-0.016351
-0.015418
-0.014378
-0.013247
-0.012032
-0.010744
-0.009399
-0.008022
-0.006641
-0.005294
-0.004021
-0.002868
-0.001881
-0.001104
-0.000576
-0.000325
-0.000367
-0.000701
-0.001313
-0.002171
-0.003235
-0.004454
-0.005779
-0.007163
-0.019575
-0.020345
-0.020992
-0.021527
-0.021962
-0.022309
-0.022581
-0.022790
-0.022946
-0.023057
-0.023128
-0.023164
-0.023167
-0.023139
-0.023078
-0.022982
-0.022850
-0.022677
-0.022458
-0.022187
-0.021859
-0.021467
-0.021002
-0.020458
-0.019826
-0.019099
-0.018270
-0.017334
-0.016276
-0.015104
-0.013823
-0.012442
-0.010975
-0.009447
-0.007887
-0.006334
-0.004836
-0.003447
-0.002221
-0.001217
-0.000484
-0.000065
0.000016
-0.000252
-0.000854
-0.001761
-0.002925
-0.004290
-0.005796
-0.007386
-0.020943
-0.021754
-0.022435
-0.022998
-0.023456
-0.023822
-0.024111
-0.024336
-0.024508
-0.024636
-0.024726
-0.024783
-0.024810
-0.024809
-0.024779
-0.024718
-0.024625
-0.024493
-0.024320
-0.024098
-0.023820
-0.023479
-0.023065
-0.022570
-0.021983
-0.021295
-0.020494
-0.019572
-0.018520
-0.017321
-0.015988
-0.014523
-0.012939
-0.011255
-0.009503
-0.007723
-0.005969
-0.004301
-0.002788
-0.001500
-0.000505
0.000140
0.000394
0.000237
-0.000326
-0.001263
-0.002524
-0.004043
-0.005748
-0.007574
-0.022449
-0.023304
-0.024021
-0.024613
-0.025094
-0.025480
-0.025786
-0.026027
-0.026215
-0.026359
-0.026468
-0.026547
-0.026601
-0.026630
-0.026635
-0.026615
-0.026566
-0.026485
-0.026366
-0.026204
-0.025989
-0.025714
-0.025369
-0.024942
-0.024420
-0.023792
-0.023043
-0.022160
-0.021133
-0.019932
-0.018567
-0.017035
-0.015342
-0.013505
-0.011553
-0.009527
-0.007485
-0.005497
-0.003642
-0.002009
-0.000684
0.000256
0.000749
0.000759
0.000280
-0.000660
-0.002007
-0.003685
-0.005610
-0.007701
-0.024100
-0.025002
-0.025758
-0.026381
-0.026886
-0.027291
-0.027614
-0.027869
-0.028071
-0.028231
-0.028359
-0.028460
-0.028541
-0.028602
-0.028646
-0.028670
-0.028672
-0.028649
-0.028595
-0.028503
-0.028366
-0.028173
-0.027914
-0.027575
-0.027141
-0.026597
-0.025926
-0.025109
-0.024131
-0.022961
-0.021592
-0.020015
-0.018230
-0.016249
-0.014094
-0.011809
-0.009452
-0.007101
-0.004849
-0.002802
-0.001069
0.000247
0.001059
0.001308
0.000971
0.000068
-0.001345
-0.003182
-0.005342
-0.007731
-0.025905
-0.026858
-0.027656
-0.028311
-0.028841
-0.029264
-0.029601
-0.029868
-0.030082
-0.030255
-0.030400
-0.030522
-0.030629
-0.030724
-0.030807
-0.030879
-0.030937
-0.030979
-0.030998
-0.030988
-0.030941
-0.030846
-0.030691
-0.030462
-0.030140
-0.029708
-0.029142
-0.028422
-0.027523
-0.026420
-0.025078
-0.023487
-0.021635
-0.019525
-0.017175
-0.014624
-0.011930
-0.009178
-0.006473
-0.003939
-0.001713
0.000073
0.001300
0.001876
0.001757
0.000946
-0.000501
-0.002488
-0.004898
-0.007616
-0.027873
-0.028883
-0.029726
-0.030415
-0.030969
-0.031409
-0.031756
-0.032031
-0.032252
-0.032434
-0.032591
-0.032731
-0.032862
-0.032988
-0.033111
-0.033232
-0.033350
-0.033461
-0.033561
-0.033642
-0.033698
-0.033716
-0.033684
-0.033585
-0.033399
-0.033105
-0.032677
-0.032086
-0.031303
-0.030298
-0.029023
-0.027453
-0.025566
-0.023354
-0.020824
-0.018009
-0.014965
-0.011779
-0.008568
-0.005475
-0.002664
-0.000303
0.001448
0.002460
0.002652
0.002007
0.000573
-0.001547
-0.004215
-0.007293
-0.030015
-0.031090
-0.031983
-0.032707
-0.033284
-0.033736
-0.034088
-0.034364
-0.034585
-0.034769
-0.034931
-0.035082
-0.035232
-0.035385
-0.035545
-0.035715
-0.035892
-0.036076
-0.036261
-0.036442
-0.036610
-0.036755
-0.036861
-0.036912
-0.036886
-0.036757
-0.036495
-0.036067
-0.035435
-0.034560
-0.033396
-0.031890
-0.030008
-0.027727
-0.025043
-0.021976
-0.018577
-0.014934
-0.011171
-0.007450
-0.003961
-0.000914
0.001485
0.003058
0.003678
0.003294
0.001937
-0.000284
-0.003211
-0.006680
-0.032347
-0.033495
-0.034443
-0.035203
-0.035799
-0.036258
-0.036607
-0.036874
-0.037084
-0.037259
-0.037415
-0.037568
-0.037727
-0.037900
-0.038092
-0.038305
-0.038540
-0.038796
-0.039069
-0.039354
-0.039642
-0.039923
-0.040182
-0.040399
-0.040553
-0.040613
-0.040546
-0.040311
-0.039865
-0.039158
-0.038141
-0.036745
-0.034911
-0.032601
-0.029795
-0.026500
-0.022756
-0.018644
-0.014294
-0.009880
-0.005624
-0.001775
0.001408
0.003684
0.004870
0.004863
0.003669
0.001394
-0.001784
-0.005670
-0.034884
-0.036118
-0.037126
-0.037924
-0.038535
-0.038990
-0.039324
-0.039567
-0.039751
-0.039900
-0.040036
-0.040175
-0.040331
-0.040512
-0.040726
-0.040975
-0.041262
-0.041587
-0.041946
-0.042336
-0.042748
-0.043171
-0.043591
-0.043988
-0.044336
-0.044605
-0.044756
-0.044743
-0.044514
-0.044011
-0.043174
-0.041930
-0.040188
-0.037893
-0.035006
-0.031514
-0.027442
-0.022863
-0.017903
-0.012748
-0.007641
-0.002876
0.001230
0.004368
0.006277
0.006791
0.005870
0.003607
0.000198
-0.004128
-0.037650
-0.038983
-0.040060
-0.040894
-0.041512
-0.041951
-0.042251
-0.042451
-0.042586
-0.042688
-0.042782
-0.042888
-0.043023
-0.043196
-0.043417
-0.043691
-0.044020
-0.044405
-0.044845
-0.045336
-0.045870
-0.046438
-0.047023
-0.047606
-0.048160
-0.048652
-0.049037
-0.049266
-0.049279
-0.049007
-0.048378
-0.047323
-0.045715
-0.043477
-0.040550
-0.036899
-0.032529
-0.027496
-0.021918
-0.015984
-0.009958
-0.004170
0.001002
0.005167
0.007977
0.009179
0.008667
0.006506
0.002901
-0.001882
-0.040671
-0.042125
-0.043278
-0.044146
-0.044759
-0.045162
-0.045403
-0.045531
-0.045589
-0.045614
-0.045639
-0.045686
-0.045775
-0.045919
-0.046129
-0.046410
-0.046767
-0.047201
-0.047712
-0.048296
-0.048947
-0.049655
-0.050404
-0.051174
-0.051937
-0.052656
-0.053285
-0.053768
-0.054037
-0.054015
-0.053614
-0.052770
-0.051329
-0.049187
-0.046258
-0.042487
-0.037853
-0.032390
-0.026200
-0.019467
-0.012466
-0.005560
0.000812
0.006178
0.010082
0.012164
0.012227
0.010283
0.006536
0.001287
-0.043986
-0.045585
-0.046826
-0.047721
-0.048311
-0.048649
-0.048797
-0.048814
-0.048755
-0.048665
-0.048584
-0.048539
-0.048553
-0.048641
-0.048816
-0.049084
-0.049451
-0.049918
-0.050486
-0.051151
-0.051909
-0.052747
-0.053653
-0.054603
-0.055570
-0.056513
-0.057384
-0.058122
-0.058652
-0.058889
-0.058734
-0.058088
-0.056841
-0.054820
-0.051921
-0.048063
-0.043197
-0.037333
-0.030547
-0.023009
-0.014996
-0.006893
0.000808
0.007545
0.012749
0.015926
0.016759
0.015177
0.011363
0.005650
-0.047646
-0.049425
-0.050763
-0.051676
-0.052213
-0.052445
-0.052449
-0.052304
-0.052075
-0.051823
-0.051590
-0.051412
-0.051315
-0.051316
-0.051428
-0.051658
-0.052013
-0.052494
-0.053101
-0.053833
-0.054681
-0.055637
-0.056686
-0.057804
-0.058961
-0.060117
-0.061219
-0.062200
-0.062981
-0.063466
-0.063549
-0.063108
-0.062049
-0.060154
-0.057299
-0.053374
-0.048303
-0.042061
-0.034699
-0.026360
-0.017311
-0.007947
0.001196
0.009474
0.016191
0.020702
0.022532
0.021492
0.017713
0.011548
-0.051722
-0.053724
-0.055171
-0.056082
-0.056522
-0.056587
-0.056381
-0.056002
-0.055538
-0.055059
-0.054620
-0.054261
-0.054010
-0.053887
-0.053905
-0.054071
-0.054389
-0.054863
-0.055490
-0.056269
-0.057192
-0.058248
-0.059421
-0.060688
-0.062017
-0.063364
-0.064674
-0.065876
-0.066884
-0.067594
-0.067889
-0.067633
-0.066739
-0.064957
-0.062138
-0.058148
-0.052880
-0.046276
-0.038350
-0.029216
-0.019114
-0.008438
0.002251
0.012234
0.020688
0.026793
0.029884
0.029604
0.025992
0.019401
-0.056313
-0.058598
-0.060163
-0.061035
-0.061311
-0.061122
-0.060610
-0.059905
-0.059118
-0.058337
-0.057625
-0.057028
-0.056577
-0.056290
-0.056180
-0.056253
-0.056512
-0.056956
-0.057584
-0.058391
-0.059369
-0.060505
-0.061782
-0.063175
-0.064649
-0.066160
-0.067647
-0.069036
-0.070234
-0.071132
-0.071601
-0.071492
-0.070714
-0.069005
-0.066193
-0.062115
-0.056636
-0.049661
-0.041171
-0.031237
-0.020063
-0.008023
0.004311
0.016163
0.026588
0.034578
0.039236
0.039983
0.036712
0.029736
-0.061566
-0.064209
-0.065892
-0.066664
-0.066669
-0.066100
-0.065152
-0.063998
-0.062779
-0.061602
-0.060540
-0.059643
-0.058940
-0.058450
-0.058180
-0.058133
-0.058309
-0.058705
-0.059315
-0.060132
-0.061147
-0.062343
-0.063701
-0.065194
-0.066786
-0.068427
-0.070053
-0.071585
-0.072927
-0.073962
-0.074552
-0.074544
-0.073795
-0.072106
-0.069245
-0.065032
-0.059300
-0.051918
-0.042835
-0.032078
-0.019796
-0.006331
0.007758
0.021659
0.034315
0.044522
0.051111
0.053219
0.050512
0.043212
-0.067696
-0.070797
-0.072579
-0.073139
-0.072710
-0.071576
-0.070012
-0.068248
-0.066462
-0.064779
-0.063280
-0.062016
-0.061012
-0.060280
-0.059821
-0.059633
-0.059709
-0.060041
-0.060618
-0.061431
-0.062469
-0.063707
-0.065125
-0.066690
-0.068368
-0.070104
-0.071829
-0.073455
-0.074885
-0.075994
-0.076641
-0.076660
-0.075872
-0.074115
-0.071128
-0.066710
-0.060659
-0.052792
-0.043059
-0.031432
-0.017972
-0.002993
0.012989
0.029150
0.044347
0.057173
0.066149
0.070046
0.068208
0.060668
-0.075033
-0.078716
-0.080533
-0.080688
-0.079566
-0.077598
-0.075172
-0.072591
-0.070073
-0.067759
-0.065732
-0.064035
-0.062684
-0.061680
-0.061013
-0.060668
-0.060637
-0.060898
-0.061434
-0.062235
-0.063290
-0.064554
-0.066017
-0.067646
-0.069387
-0.071185
-0.072967
-0.074644
-0.076106
-0.077225
-0.077846
-0.077797
-0.076881
-0.074935
-0.071688
-0.066927
-0.060457
-0.052104
-0.041642
-0.029094
-0.014320
0.002298
0.020358
0.039055
0.057188
0.073153
0.085119
0.091391
0.090850
0.083200
-0.084101
-0.088509
-0.090201
-0.089605
-0.087380
-0.084187
-0.080566
-0.076909
-0.073468
-0.070390
-0.067745
-0.065561
-0.063830
-0.062537
-0.061657
-0.061153
-0.061020
-0.061219
-0.061722
-0.062521
-0.063582
-0.064876
-0.066375
-0.068041
-0.069821
-0.071653
-0.073459
-0.075142
-0.076588
-0.077657
-0.078188
-0.077998
-0.076880
-0.074648
-0.071039
-0.065820
-0.058765
-0.049662
-0.038321
-0.024652
-0.008656
0.009703
0.030101
0.051695
0.073295
0.093114
0.108922
0.118424
0.119837
0.112295
-0.095765
-0.101026
-0.102221
-0.100257
-0.096280
-0.091297
-0.086045
-0.081000
-0.076427
-0.072457
-0.069121
-0.066420
-0.064296
-0.062721
-0.061653
-0.061019
-0.060803
-0.060955
-0.061444
-0.062243
-0.063320
-0.064642
-0.066174
-0.067869
-0.069673
-0.071517
-0.073317
-0.074971
-0.076355
-0.077324
-0.077708
-0.077314
-0.075924
-0.073325
-0.069267
-0.063497
-0.055762
-0.045817
-0.033441
-0.018468
-0.000799
0.019567
0.042351
0.067170
0.092960
0.117637
0.138554
0.152628
0.157080
0.150075
-0.111518
-0.117623
-0.117486
-0.113049
-0.106298
-0.098734
-0.091301
-0.084523
-0.078619
-0.073669
-0.069599
-0.066407
-0.063926
-0.062123
-0.060895
-0.060175
-0.059910
-0.060049
-0.060551
-0.061377
-0.062490
-0.063853
-0.065421
-0.067146
-0.068966
-0.070807
-0.072581
-0.074178
-0.075468
-0.076299
-0.076493
-0.075847
-0.074134
-0.071114
-0.066552
-0.060173
-0.051697
-0.040842
-0.027339
-0.010947
0.008532
0.031205
0.057005
0.085583
0.116127
0.147039
0.174973
0.195835
0.205280
0.199757
-0.134097
-0.140501
-0.137185
-0.128297
-0.117203
-0.106006
-0.095762
-0.086940
-0.079558
-0.073650
-0.068909
-0.065273
-0.062534
-0.060571
-0.059267
-0.058529
-0.058283
-0.058467
-0.059027
-0.059919
-0.061100
-0.062524
-0.064145
-0.065907
-0.067745
-0.069580
-0.071318
-0.072844
-0.074024
-0.074698
-0.074681
-0.073762
-0.071704
-0.068248
-0.063172
-0.056180
-0.046962
-0.035196
-0.020558
-0.002720
0.018632
0.043774
0.072886
0.105939
0.142447
0.181000
0.218758
0.250150
0.268324
0.266525
-0.168816
-0.173200
-0.162639
-0.145849
-0.128135
-0.112078
-0.098427
-0.087456
-0.078677
-0.071877
-0.066657
-0.062748
-0.059902
-0.057928
-0.056676
-0.056029
-0.055893
-0.056197
-0.056879
-0.057888
-0.059175
-0.060694
-0.062391
-0.064208
-0.066076
-0.067914
-0.069622
-0.071083
-0.072157
-0.072679
-0.072461
-0.071284
-0.068900
-0.065050
-0.059513
-0.051973
-0.042092
-0.029511
-0.013843
0.005328
0.028452
0.056015
0.088516
0.126397
0.169844
0.218286
0.269390
0.317443
0.351738
0.359158
-0.226679
-0.221051
-0.194457
-0.164142
-0.136906
-0.115036
-0.097890
-0.084884
-0.075085
-0.067797
-0.062437
-0.058572
-0.055875
-0.054104
-0.053077
-0.052659
-0.052748
-0.053263
-0.054141
-0.055327
-0.056771
-0.058422
-0.060228
-0.062129
-0.064053
-0.065916
-0.067619
-0.069041
-0.070040
-0.070450
-0.070078
-0.068705
-0.066060
-0.061927
-0.056053
-0.048111
-0.037744
-0.024557
-0.008110
0.012100
0.036661
0.066284
0.101838
0.144381
0.195109
0.255046
0.323985
0.397656
0.462635
0.493072
-0.331647
-0.290074
-0.229592
-0.178216
-0.139390
-0.111568
-0.091806
-0.077818
-0.067899
-0.060883
-0.055966
-0.052599
-0.050397
-0.049094
-0.048497
-0.048469
-0.048907
-0.049732
-0.050885
-0.052311
-0.053963
-0.055792
-0.057747
-0.059769
-0.061787
-0.063717
-0.065460
-0.066896
-0.067884
-0.068257
-0.067823
-0.066362
-0.063596
-0.059352
-0.053338
-0.045225
-0.034644
-0.021179
-0.004352
0.016405
0.041794
0.072720
0.110405
0.156556
0.213604
0.284923
0.374586
0.484935
0.606886
0.696198
-0.535604
-0.377468
-0.254367
-0.175930
-0.127485
-0.097204
-0.077787
-0.065056
-0.056585
-0.050937
-0.047229
-0.044898
-0.043579
-0.043025
-0.043066
-0.043582
-0.044487
-0.045714
-0.047212
-0.048938
-0.050849
-0.052903
-0.055052
-0.057241
-0.059404
-0.061460
-0.063313
-0.064845
-0.065918
-0.066369
-0.066009
-0.064612
-0.061951
-0.057816
-0.051919
-0.043934
-0.033493
-0.020176
-0.003492
0.017154
0.042512
0.073589
0.111817
0.159366
0.219734
0.298824
0.406759
0.559854
0.775545
1.021071
-0.936576
-0.426606
-0.224451
-0.135971
-0.092312
-0.068625
-0.054874
-0.046553
-0.041437
-0.038346
-0.036607
-0.035817
-0.035721
-0.036153
-0.037000
-0.038182
-0.039644
-0.041342
-0.043243
-0.045316
-0.047530
-0.049852
-0.052243
-0.054654
-0.057025
-0.059282
-0.061334
-0.063070
-0.064358
-0.065039
-0.064929
-0.063816
-0.061493
-0.057727
-0.052244
-0.044731
-0.034832
-0.022140
-0.006183
0.013605
0.037935
0.067756
0.104423
0.150052
0.208287
0.286129
0.398520
0.579458
0.905270
1.538242
