# vtk DataFile Version 3.0
Scalar Field
ASCII
DATASET RECTILINEAR_GRID
DIMENSIONS 200 50 1
X_COORDINATES 200 double
0.050000 0.150000 0.250000 0.350000 0.450000 0.550000 0.650000 0.750000 0.850000 0.950000 1.050000 1.150000 1.250000 1.350000 1.450000 1.550000 1.650000 1.750000 1.850000 1.950000 2.050000 2.150000 2.250000 2.350000 2.450000 2.550000 2.650000 2.750000 2.850000 2.950000 3.050000 3.150000 3.250000 3.350000 3.450000 3.550000 3.650000 3.750000 3.850000 3.950000 4.050000 4.150000 4.250000 4.350000 4.450000 4.550000 4.650000 4.750000 4.850000 4.950000 5.050000 5.150000 5.250000 5.350000 5.450000 5.550000 5.650000 5.750000 5.850000 5.950000 6.050000 6.150000 6.250000 6.350000 6.450000 6.550000 6.650000 6.750000 6.850000 6.950000 7.050000 7.150000 7.250000 7.350000 7.450000 7.550000 7.650000 7.750000 7.850000 7.950000 8.050000 8.150000 8.250000 8.350000 8.450000 8.550000 8.650000 8.750000 8.850000 8.950000 9.050000 9.150000 9.250000 9.350000 9.450000 9.550000 9.650000 9.750000 9.850000 9.950000 10.050000 10.150000 10.250000 10.350000 10.450000 10.550000 10.650000 10.750000 10.850000 10.950000 11.050000 11.150000 11.250000 11.350000 11.450000 11.550000 11.650000 11.750000 11.850000 11.950000 12.050000 12.150000 12.250000 12.350000 12.450000 12.550000 12.650000 12.750000 12.850000 12.950000 13.050000 13.150000 13.250000 13.350000 13.450000 13.550000 13.650000 13.750000 13.850000 13.950000 14.050000 14.150000 14.250000 14.350000 14.450000 14.550000 14.650000 14.750000 14.850000 14.950000 15.050000 15.150000 15.250000 15.350000 15.450000 15.550000 15.650000 15.750000 15.850000 15.950000 16.050000 16.150000 16.250000 16.350000 16.450000 16.550000 16.650000 16.750000 16.850000 16.950000 17.050000 17.150000 17.250000 17.350000 17.450000 17.550000 17.650000 17.750000 17.850000 17.950000 18.050000 18.150000 18.250000 18.350000 18.450000 18.550000 18.650000 18.750000 18.850000 18.950000 19.050000 19.150000 19.250000 19.350000 19.450000 19.550000 19.650000 19.750000 19.850000 19.950000 
Y_COORDINATES 50 double
0.050000 0.150000 0.250000 0.350000 0.450000 0.550000 0.650000 0.750000 0.850000 0.950000 1.050000 1.150000 1.250000 1.350000 1.450000 1.550000 1.650000 1.750000 1.850000 1.950000 2.050000 2.150000 2.250000 2.350000 2.450000 2.550000 2.650000 2.750000 2.850000 2.950000 3.050000 3.150000 3.250000 3.350000 3.450000 3.550000 3.650000 3.750000 3.850000 3.950000 4.050000 4.150000 4.250000 4.350000 4.450000 4.550000 4.650000 4.750000 4.850000 4.950000 
Z_COORDINATES 1 double
0.0
POINT_DATA 10000
SCALARS Skalarfeld double 1
LOOKUP_TABLE default
9.583897
9.571482
9.564440
9.559798
9.556416
9.553790
9.551668
9.549909
9.548429
9.547177
9.546116
9.545226
9.544491
9.543903
9.543457
9.543152
9.542990
9.542976
9.543116
9.543421
9.543902
9.544575
9.545461
9.546581
9.547964
9.549644
9.551661
9.554065
9.556915
9.560283
9.564256
9.568943
9.574470
9.580985
9.588652
9.597628
9.608022
9.619801
9.632640
9.645681
9.657279
9.663327
9.665533
9.683563
9.683562
0.000000
0.000000
0.000000
0.000000
0.000000
-2.945166
-2.945165
-2.950519
-2.958690
-2.965366
-2.970026
-2.973343
-2.976797
-2.982268
-2.990637
-3.000617
-3.011989
-3.024460
-3.038403
-3.054770
-3.074255
-3.097270
-3.123922
-3.154046
-3.187210
-3.223984
-3.263442
-3.304019
-3.344444
-3.383395
-3.419702
-3.452514
-3.481403
-3.506388
-3.527893
-3.546652
-3.563603
-3.579771
-3.596177
-3.613759
-3.633314
-3.655465
-3.680625
-3.708984
-3.740490
-3.774841
-3.811486
-3.849631
-3.888262
-3.926180
-3.962060
-3.994514
-4.022168
-4.043745
-4.058132
-4.064436
-4.062007
-4.050430
-4.029485
-3.999609
-3.961626
-3.916287
-3.864521
-3.807326
-3.745705
-3.680616
-3.612943
-3.543475
-3.472904
-3.401821
-3.330731
-3.260066
-3.190202
-3.121480
-3.054216
-2.988716
-2.925278
-2.864187
-2.805713
-2.750102
-2.697572
-2.648311
-2.602461
-2.560112
-2.521285
-2.485932
-2.453935
-2.425118
-2.399253
-2.376071
-2.355264
-2.336492
-2.319396
-2.303618
-2.288814
-2.274677
-2.260929
-2.247326
-2.233668
-2.219809
-2.205677
-2.191239
-2.176488
-2.161468
-2.146293
-2.131005
-2.115741
-2.100745
-2.086098
-2.071748
-2.058086
-2.045161
-2.033027
-2.021723
-2.011263
-2.001634
-1.992796
-1.984686
-1.977218
-1.970290
-1.963786
-1.957583
-1.951558
-1.945590
-1.939569
-1.933400
-1.927008
-1.920340
-1.913365
-1.906078
-1.898499
-1.890666
-1.882640
-1.874497
-1.866323
-1.858218
-1.850282
-1.842617
-1.835317
-1.828461
-1.822113
-1.816324
-1.811011
-1.806136
-1.801577
-1.796868
-1.791923
-1.786907
-1.782008
-1.777312
-1.772783
-1.768291
-1.763751
-1.759188
-1.754877
9.569801
9.566139
9.562000
9.558466
9.555570
9.553188
9.551203
9.549527
9.548101
9.546885
9.545850
9.544976
9.544253
9.543671
9.543228
9.542922
9.542756
9.542734
9.542863
9.543151
9.543612
9.544259
9.545111
9.546190
9.547523
9.549139
9.551076
9.553378
9.556099
9.559301
9.563061
9.567469
9.572636
9.578685
9.585757
9.593988
9.603485
9.614258
9.626105
9.638415
9.649773
9.658269
9.670415
9.695582
9.695581
0.000000
0.000000
0.000000
0.000000
0.000000
-2.948306
-2.948305
-2.953866
-2.961512
-2.967220
-2.971188
-2.973225
-2.975695
-2.980880
-2.989425
-2.999022
-3.009865
-3.021956
-3.035375
-3.050915
-3.069668
-3.092308
-3.119153
-3.150202
-3.185195
-3.223876
-3.265240
-3.307784
-3.349944
-3.390199
-3.427268
-3.460270
-3.488825
-3.513054
-3.533515
-3.551084
-3.566825
-3.581868
-3.597310
-3.614134
-3.633167
-3.655039
-3.680162
-3.708717
-3.740635
-3.775596
-3.813022
-3.852086
-3.891736
-3.930729
-3.967687
-4.001168
-4.029746
-4.052101
-4.067095
-4.073827
-4.071675
-4.060268
-4.039339
-4.009233
-3.970665
-3.924630
-3.872145
-3.814252
-3.751979
-3.686300
-3.618108
-3.548195
-3.477245
-3.405842
-3.334476
-3.263563
-3.193462
-3.124499
-3.056980
-2.991207
-2.927479
-2.866087
-2.807308
-2.751397
-2.698580
-2.649053
-2.602975
-2.560450
-2.521510
-2.486109
-2.454129
-2.425387
-2.399651
-2.376649
-2.356065
-2.337549
-2.320729
-2.305227
-2.290685
-2.276789
-2.263256
-2.249836
-2.236314
-2.222525
-2.208415
-2.193967
-2.179157
-2.164000
-2.148728
-2.133249
-2.117673
-2.102387
-2.087461
-2.072988
-2.059151
-2.046052
-2.033764
-2.022330
-2.011770
-2.002070
-1.993192
-1.985069
-1.977613
-1.970716
-1.964258
-1.958110
-1.952141
-1.946226
-1.940250
-1.934113
-1.927736
-1.921063
-1.914064
-1.906734
-1.899095
-1.891189
-1.883079
-1.874846
-1.866580
-1.858382
-1.850357
-1.842607
-1.835229
-1.828302
-1.821883
-1.815983
-1.810658
-1.805799
-1.801112
-1.796410
-1.791597
-1.786749
-1.781988
-1.777373
-1.772879
-1.768344
-1.763769
-1.759321
-1.755688
9.562455
9.561102
9.558769
9.556312
9.554040
9.552027
9.550269
9.548741
9.547414
9.546264
9.545274
9.544430
9.543724
9.543149
9.542704
9.542387
9.542202
9.542152
9.542244
9.542485
9.542886
9.543459
9.544220
9.545187
9.546378
9.547818
9.549534
9.551553
9.553911
9.556641
9.559782
9.563374
9.567455
9.572061
9.577215
9.582924
9.589170
9.595907
9.603109
9.610942
9.620398
9.635539
9.667501
9.723713
9.723713
0.000000
0.000000
0.000000
0.000000
0.000000
-2.947903
-2.947902
-2.955404
-2.963310
-2.967167
-2.971285
-2.973128
-2.976342
-2.982067
-2.989177
-2.996540
-3.006144
-3.017253
-3.028809
-3.041727
-3.058252
-3.079843
-3.107298
-3.140826
-3.179993
-3.223795
-3.270593
-3.318315
-3.364814
-3.408144
-3.446813
-3.479953
-3.507373
-3.529501
-3.547251
-3.561847
-3.574654
-3.587036
-3.600247
-3.615364
-3.633255
-3.654553
-3.679647
-3.708678
-3.741529
-3.777822
-3.816913
-3.857900
-3.899648
-3.940817
-3.979925
-4.015424
-4.045790
-4.069621
-4.085729
-4.093216
-4.091525
-4.079809
-4.057916
-4.026706
-3.986943
-3.939616
-3.885804
-3.826612
-3.763118
-3.696331
-3.627160
-3.556404
-3.484741
-3.412736
-3.340854
-3.269478
-3.198936
-3.129524
-3.061528
-2.995240
-2.930966
-2.869011
-2.809666
-2.753199
-2.699851
-2.649835
-2.603343
-2.560507
-2.521378
-2.485915
-2.453996
-2.425424
-2.399961
-2.377327
-2.357196
-2.339194
-2.322923
-2.307969
-2.293944
-2.280529
-2.267426
-2.254373
-2.241137
-2.227489
-2.213437
-2.198992
-2.184110
-2.168596
-2.152907
-2.137053
-2.121176
-2.105495
-2.090163
-2.075327
-2.061139
-2.047717
-2.035148
-2.023485
-2.012752
-2.002938
-1.994003
-1.985877
-1.978466
-1.971654
-1.965310
-1.959293
-1.953463
-1.947680
-1.941820
-1.935774
-1.929455
-1.922804
-1.915789
-1.908404
-1.900675
-1.892648
-1.884394
-1.875998
-1.867560
-1.859186
-1.850987
-1.843070
-1.835533
-1.828458
-1.821904
-1.815894
-1.810423
-1.805397
-1.800646
-1.796020
-1.791430
-1.786867
-1.782343
-1.777830
-1.773245
-1.768592
-1.763726
-1.758577
-1.752703
9.557687
9.557052
9.555666
9.553977
9.552249
9.550608
9.549103
9.547747
9.546540
9.545472
9.544538
9.543730
9.543043
9.542474
9.542022
9.541688
9.541473
9.541382
9.541419
9.541591
9.541907
9.542375
9.543006
9.543812
9.544806
9.545999
9.547404
9.549029
9.550878
9.552948
9.555220
9.557654
9.560177
9.562667
9.564933
9.566689
9.567535
9.566974
9.564548
9.560361
9.556667
9.561812
9.595528
9.678766
9.678765
0.000000
0.000000
0.000000
0.000000
0.000000
-2.938914
-2.938914
-2.947909
-2.956907
-2.963900
-2.969579
-2.975522
-2.983270
-2.991960
-2.995413
-2.993546
-3.000753
-3.011679
-3.019745
-3.026445
-3.038231
-3.057744
-3.086318
-3.124302
-3.170709
-3.223424
-3.279569
-3.335921
-3.389365
-3.437315
-3.478036
-3.510797
-3.535829
-3.554138
-3.567254
-3.576968
-3.585101
-3.593345
-3.603153
-3.615704
-3.631885
-3.652303
-3.677294
-3.706928
-3.741012
-3.779085
-3.820420
-3.864018
-3.908634
-3.952806
-3.994914
-4.033262
-4.066181
-4.092149
-4.109899
-4.118497
-4.117367
-4.104942
-4.082155
-4.049673
-4.008390
-3.959385
-3.903833
-3.842927
-3.777818
-3.709564
-3.639104
-3.567244
-3.494654
-3.421877
-3.349337
-3.277375
-3.206270
-3.136275
-3.067646
-3.000658
-2.935630
-2.872888
-2.812747
-2.755499
-2.701401
-2.650689
-2.603606
-2.560334
-2.520942
-2.485398
-2.453570
-2.425242
-2.400175
-2.378085
-2.358620
-2.341370
-2.325907
-2.311735
-2.298463
-2.285764
-2.273305
-2.260805
-2.248029
-2.234520
-2.220550
-2.205999
-2.190841
-2.175110
-2.159006
-2.142669
-2.126276
-2.110031
-2.094124
-2.078732
-2.064020
-2.050122
-2.037139
-2.025140
-2.014152
-2.004171
-1.995154
-1.987027
-1.979687
-1.973007
-1.966842
-1.961035
-1.955426
-1.949862
-1.944200
-1.938318
-1.932119
-1.925535
-1.918532
-1.911105
-1.903280
-1.895113
-1.886680
-1.878080
-1.869421
-1.860819
-1.852394
-1.844259
-1.836515
-1.829247
-1.822513
-1.816339
-1.810712
-1.805564
-1.800783
-1.796256
-1.791888
-1.787613
-1.783368
-1.779062
-1.774562
-1.769691
-1.764211
-1.757728
-1.748579
9.554112
9.553752
9.552869
9.551684
9.550375
9.549056
9.547790
9.546610
9.545528
9.544551
9.543679
9.542911
9.542246
9.541683
9.541224
9.540869
9.540620
9.540480
9.540454
9.540546
9.540763
9.541110
9.541593
9.542218
9.542990
9.543909
9.544972
9.546168
9.547472
9.548837
9.550188
9.551399
9.552272
9.552501
9.551617
9.548913
9.543333
9.533331
9.516723
9.490688
9.452490
9.402833
9.356573
9.363762
9.363761
0.000000
0.000000
0.000000
0.000000
0.000000
-2.920787
-2.920786
-2.933213
-2.946273
-2.957610
-2.968926
-2.982488
-3.000679
-3.021260
-3.016682
-2.983083
-2.991251
-3.009270
-3.011620
-3.004104
-3.007748
-3.024062
-3.054417
-3.099360
-3.156779
-3.222729
-3.292419
-3.360906
-3.423718
-3.477436
-3.520126
-3.551433
-3.572342
-3.584771
-3.591154
-3.594058
-3.595889
-3.598710
-3.604168
-3.613496
-3.627555
-3.646876
-3.671700
-3.702004
-3.737504
-3.777655
-3.821642
-3.868374
-3.916491
-3.964395
-4.010300
-4.052318
-4.088582
-4.117394
-4.137370
-4.147528
-4.146789
-4.134006
-4.110320
-4.076463
-4.033455
-3.982500
-3.924905
-3.861981
-3.794973
-3.725005
-3.653052
-3.579929
-3.506300
-3.432674
-3.359427
-3.286837
-3.215125
-3.144488
-3.075134
-3.007313
-2.941362
-2.877643
-2.816500
-2.758263
-2.703211
-2.651602
-2.603760
-2.559934
-2.520209
-2.484564
-2.452837
-2.424794
-2.400231
-2.378853
-2.360253
-2.343985
-2.329615
-2.316388
-2.304063
-2.292298
-2.280671
-2.268833
-2.256492
-2.243415
-2.229599
-2.214990
-2.199602
-2.183523
-2.166921
-2.149978
-2.132908
-2.115936
-2.099285
-2.083165
-2.067762
-2.053237
-2.039708
-2.027260
-2.015931
-2.005719
-1.996584
-1.988445
-1.981190
-1.974678
-1.968744
-1.963213
-1.957901
-1.952633
-1.947244
-1.941595
-1.935575
-1.929106
-1.922146
-1.914692
-1.906772
-1.898450
-1.889814
-1.880972
-1.872048
-1.863171
-1.854471
-1.846070
-1.838078
-1.830582
-1.823647
-1.817302
-1.811541
-1.806318
-1.801553
-1.797151
-1.793014
-1.789043
-1.785125
-1.781116
-1.776817
-1.771958
-1.766147
-1.758768
-1.747816
9.551209
9.550977
9.550375
9.549516
9.548514
9.547454
9.546395
9.545375
9.544415
9.543527
9.542718
9.541991
9.541349
9.540793
9.540325
9.539946
9.539660
9.539468
9.539373
9.539380
9.539491
9.539710
9.540038
9.540476
9.541021
9.541666
9.542394
9.543177
9.543966
9.544684
9.545207
9.545339
9.544780
9.543060
9.539453
9.532818
9.521344
9.502088
9.470081
9.416487
9.324373
9.158260
8.838112
8.465222
3.200896
-3.738862
-3.571500
-3.546704
-3.523980
-3.447554
-3.093204
-2.905914
-2.917022
-2.934245
-2.951836
-2.970582
-2.993795
-3.029478
-3.095043
-3.080355
-2.946289
-2.971642
-3.024191
-3.013776
-2.970059
-2.963958
-2.976549
-3.009374
-3.064601
-3.137846
-3.222169
-3.310122
-3.394489
-3.469022
-3.529272
-3.573242
-3.601347
-3.615800
-3.619849
-3.617150
-3.611259
-3.605259
-3.601574
-3.601969
-3.607646
-3.619350
-3.637469
-3.662105
-3.693116
-3.730126
-3.772514
-3.819398
-3.869610
-3.921691
-3.973906
-4.024290
-4.070729
-4.111092
-4.143427
-4.166178
-4.178358
-4.177967
-4.165208
-4.140749
-4.105513
-4.060677
-4.007600
-3.947755
-3.882604
-3.813511
-3.741684
-3.668138
-3.593695
-3.519014
-3.444567
-3.370659
-3.297491
-3.225212
-3.153950
-3.083860
-3.015129
-2.948133
-2.883283
-2.820960
-2.761546
-2.705344
-2.652622
-2.603856
-2.559372
-2.519239
-2.483507
-2.451865
-2.424080
-2.400119
-2.379555
-2.361969
-2.346857
-2.333658
-2.321764
-2.310709
-2.300091
-2.289467
-2.278452
-2.266739
-2.254117
-2.240503
-2.225863
-2.210236
-2.193737
-2.176548
-2.158887
-2.141003
-2.123157
-2.105609
-2.088603
-2.072359
-2.057064
-2.042862
-2.029855
-2.018093
-2.007583
-1.998283
-1.990109
-1.982938
-1.976610
-1.970944
-1.965736
-1.960777
-1.955862
-1.950804
-1.945441
-1.939643
-1.933321
-1.926426
-1.918953
-1.910935
-1.902444
-1.893579
-1.884465
-1.875240
-1.866049
-1.857035
-1.848334
-1.840063
-1.832319
-1.825171
-1.818660
-1.812789
-1.807530
-1.802823
-1.798585
-1.794718
-1.791104
-1.787601
-1.784023
-1.780130
-1.775597
-1.769979
-1.762654
-1.751878
9.548735
9.548572
9.548138
9.547494
9.546711
9.545851
9.544964
9.544083
9.543232
9.542427
9.541677
9.540990
9.540369
9.539818
9.539339
9.538935
9.538608
9.538361
9.538195
9.538113
9.538116
9.538204
9.538377
9.538630
9.538957
9.539342
9.539761
9.540176
9.540525
9.540711
9.540586
9.539919
9.538352
9.535328
9.529966
9.520853
9.505654
9.480358
9.437675
9.363204
9.224951
8.939050
8.239402
5.805058
-2.063428
-3.738861
-3.571499
-3.546704
-3.523979
-3.447553
-3.280494
-3.075782
-3.023112
-3.010819
-3.005830
-3.006191
-3.015482
-3.044399
-3.113630
-3.082541
-2.840560
-2.942816
-3.112254
-3.050966
-2.909197
-2.905469
-2.913773
-2.948150
-3.018431
-3.113953
-3.222901
-3.334626
-3.439132
-3.527864
-3.595018
-3.638793
-3.661059
-3.665936
-3.658511
-3.644017
-3.627224
-3.611952
-3.600888
-3.595764
-3.597599
-3.606899
-3.623820
-3.648271
-3.679971
-3.718455
-3.763052
-3.812842
-3.866618
-3.922860
-3.979728
-4.035088
-4.086579
-4.131744
-4.168271
-4.194321
-4.208782
-4.209437
-4.196875
-4.171805
-4.135277
-4.088610
-4.033328
-3.971110
-3.903610
-3.832333
-3.758591
-3.683449
-3.607723
-3.532082
-3.456948
-3.382537
-3.308946
-3.236237
-3.164459
-3.093712
-3.024045
-2.955941
-2.889850
-2.826209
-2.765489
-2.707978
-2.653830
-2.603969
-2.558571
-2.517866
-2.481844
-2.450331
-2.423100
-2.399914
-2.380374
-2.364000
-2.350230
-2.338455
-2.328054
-2.318467
-2.309187
-2.299736
-2.289694
-2.278730
-2.266619
-2.253244
-2.238578
-2.222680
-2.205692
-2.187823
-2.169330
-2.150502
-2.131643
-2.113054
-2.095020
-2.077796
-2.061602
-2.046608
-2.032936
-2.020654
-2.009774
-2.000258
-1.992017
-1.984917
-1.978782
-1.973404
-1.968553
-1.963986
-1.959466
-1.954776
-1.949728
-1.944173
-1.938008
-1.931177
-1.923673
-1.915534
-1.906843
-1.897714
-1.888288
-1.878724
-1.869183
-1.859827
-1.850803
-1.842240
-1.834245
-1.826895
-1.820238
-1.814292
-1.809042
-1.804444
-1.800427
-1.796895
-1.793725
-1.790758
-1.787789
-1.784555
-1.780714
-1.775831
-1.769352
-1.759883
9.546560
9.546439
9.546111
9.545611
9.544985
9.544278
9.543527
9.542762
9.542005
9.541272
9.540576
9.539923
9.539320
9.538772
9.538280
9.537849
9.537481
9.537176
9.536937
9.536765
9.536659
9.536618
9.536638
9.536715
9.536836
9.536984
9.537133
9.537240
9.537242
9.537042
9.536493
9.535369
9.533324
9.529816
9.523987
9.514439
9.498833
9.473086
9.429684
9.353816
9.213484
8.928301
8.275012
6.517606
0.053138
-2.793952
-3.404238
-3.545076
-3.590788
-3.605876
-3.595714
-3.576521
-3.530239
-3.464808
-3.395965
-3.333739
-3.282016
-3.244078
-3.207139
-3.087035
-2.930982
-3.017423
-3.154675
-3.046422
-2.805744
-2.850462
-2.837315
-2.865438
-2.959804
-3.086391
-3.227187
-3.369121
-3.498865
-3.604664
-3.678574
-3.719507
-3.732038
-3.723188
-3.700420
-3.670918
-3.640948
-3.615091
-3.596052
-3.585251
-3.583312
-3.590344
-3.606164
-3.630430
-3.662706
-3.702450
-3.748974
-3.801372
-3.858458
-3.918710
-3.980252
-4.040834
-4.097858
-4.148474
-4.189862
-4.219766
-4.236920
-4.239051
-4.227026
-4.201637
-4.164026
-4.115652
-4.058186
-3.993566
-3.923685
-3.850212
-3.774585
-3.697931
-3.621036
-3.544625
-3.469044
-3.394391
-3.320638
-3.247749
-3.175680
-3.104535
-3.033863
-2.964660
-2.897226
-2.832038
-2.769627
-2.710466
-2.655043
-2.603998
-2.557696
-2.516379
-2.480097
-2.448736
-2.422067
-2.399769
-2.381399
-2.366413
-2.354191
-2.344065
-2.335361
-2.327434
-2.319693
-2.311598
-2.302686
-2.292593
-2.281066
-2.267972
-2.253284
-2.237080
-2.219530
-2.200879
-2.181427
-2.161512
-2.141488
-2.121702
-2.102487
-2.084138
-2.066908
-2.050998
-2.036552
-2.023652
-2.012323
-2.002529
-1.994177
-1.987123
-1.981176
-1.976101
-1.971633
-1.967491
-1.963399
-1.959105
-1.954392
-1.949088
-1.943074
-1.936285
-1.928714
-1.920405
-1.911455
-1.901997
-1.892195
-1.882231
-1.872290
-1.862553
-1.853183
-1.844322
-1.836086
-1.828559
-1.821798
-1.815829
-1.810650
-1.806230
-1.802510
-1.799404
-1.796789
-1.794507
-1.792348
-1.790046
-1.787267
-1.783601
-1.778561
-1.771009
9.544608
9.544513
9.544255
9.543854
9.543342
9.542749
9.542105
9.541433
9.540754
9.540083
9.539432
9.538808
9.538219
9.537670
9.537163
9.536703
9.536290
9.535927
9.535615
9.535352
9.535138
9.534972
9.534847
9.534756
9.534689
9.534628
9.534547
9.534409
9.534159
9.533716
9.532962
9.531719
9.529718
9.526543
9.521540
9.513650
9.501098
9.480795
9.447084
9.386717
9.268568
9.010598
8.343809
5.926573
-1.979302
-3.728656
-3.601092
-3.632872
-3.711810
-3.851146
-4.046962
-4.307210
-4.296276
-4.186752
-4.063635
-3.948889
-3.835448
-3.711078
-3.561427
-3.373103
-3.205470
-3.143113
-3.098801
-2.945755
-2.818065
-2.806232
-2.741050
-2.753654
-2.893515
-3.059996
-3.238895
-3.418446
-3.579721
-3.706255
-3.785855
-3.819450
-3.816695
-3.788746
-3.745787
-3.697353
-3.651706
-3.614205
-3.586974
-3.570675
-3.565294
-3.570354
-3.585223
-3.609259
-3.641860
-3.682435
-3.730325
-3.784699
-3.844457
-3.908158
-3.973975
-4.039646
-4.102413
-4.159004
-4.205866
-4.240115
-4.260285
-4.264355
-4.253407
-4.228191
-4.189890
-4.140099
-4.080616
-4.013682
-3.941498
-3.865906
-3.788517
-3.710544
-3.632591
-3.555676
-3.479965
-3.405427
-3.331887
-3.259107
-3.186924
-3.115242
-3.044037
-2.973817
-2.905035
-2.838258
-2.774126
-2.713285
-2.656385
-2.604060
-2.556773
-2.514816
-2.478292
-2.447120
-2.421064
-2.399753
-2.382688
-2.369262
-2.358786
-2.350525
-2.343729
-2.337674
-2.331683
-2.325148
-2.317549
-2.308479
-2.297655
-2.284924
-2.270260
-2.253755
-2.235608
-2.216102
-2.195588
-2.174454
-2.153109
-2.131959
-2.111386
-2.091734
-2.073298
-2.056313
-2.040945
-2.027298
-2.015404
-2.005232
-1.996688
-1.989622
-1.983826
-1.979040
-1.974961
-1.971259
-1.967616
-1.963738
-1.959377
-1.954334
-1.948466
-1.941696
-1.934016
-1.925476
-1.916189
-1.906313
-1.896039
-1.885581
-1.875156
-1.864969
-1.855208
-1.846028
-1.837555
-1.829880
-1.823063
-1.817137
-1.812106
-1.807950
-1.804624
-1.802053
-1.800126
-1.798693
-1.797556
-1.796462
-1.795096
-1.793078
-1.789968
-1.784830
9.542828
9.542751
9.542540
9.542210
9.541780
9.541273
9.540711
9.540113
9.539497
9.538876
9.538261
9.537660
9.537080
9.536526
9.536002
9.535510
9.535052
9.534630
9.534243
9.533892
9.533573
9.533285
9.533021
9.532775
9.532537
9.532290
9.532016
9.531687
9.531264
9.530696
9.529913
9.528814
9.527259
9.525041
9.521847
9.517182
9.510226
9.499539
9.481774
9.450103
9.389425
9.262770
8.978671
8.601459
3.311078
-3.728657
-3.601093
-3.632873
-3.711811
-3.851147
-4.506655
-4.966346
-4.736500
-4.649288
-4.568240
-4.506089
-4.429059
-4.302132
-4.107712
-3.856240
-3.596647
-3.374490
-3.176495
-2.980732
-2.837831
-2.756064
-2.704606
-2.738782
-2.864537
-3.047010
-3.262634
-3.489290
-3.688676
-3.840387
-3.922758
-3.942231
-3.917178
-3.864076
-3.795486
-3.723293
-3.659159
-3.609445
-3.574293
-3.552957
-3.544663
-3.548115
-3.562157
-3.585801
-3.618292
-3.659033
-3.707453
-3.762862
-3.824314
-3.890510
-3.959734
-4.029804
-4.097970
-4.160694
-4.213536
-4.252629
-4.276133
-4.283004
-4.274018
-4.249756
-4.211388
-4.160649
-4.099693
-4.030794
-3.956344
-3.878599
-3.799392
-3.720085
-3.641555
-3.564476
-3.488983
-3.414911
-3.341916
-3.269598
-3.197626
-3.125806
-3.054160
-2.983045
-2.912980
-2.844639
-2.778795
-2.716254
-2.657805
-2.604160
-2.555869
-2.513287
-2.476562
-2.445635
-2.420261
-2.400030
-2.384389
-2.372665
-2.364100
-2.357881
-2.353179
-2.349186
-2.345142
-2.340363
-2.334267
-2.326397
-2.316431
-2.304196
-2.289662
-2.272933
-2.254235
-2.233889
-2.212292
-2.189887
-2.167139
-2.144509
-2.122437
-2.101317
-2.081492
-2.063236
-2.046751
-2.032162
-2.019519
-2.008798
-1.999908
-1.992693
-1.986939
-1.982363
-1.978612
-1.975308
-1.972081
-1.968599
-1.964583
-1.959803
-1.954079
-1.947318
-1.939502
-1.930686
-1.920992
-1.910606
-1.899754
-1.888689
-1.877667
-1.866933
-1.856702
-1.847152
-1.838421
-1.830606
-1.823771
-1.817948
-1.813145
-1.809349
-1.806524
-1.804610
-1.803512
-1.803101
-1.803200
-1.803579
-1.803954
-1.803981
-1.803257
-1.801069
9.541188
9.541123
9.540946
9.540665
9.540295
9.539852
9.539352
9.538812
9.538245
9.537663
9.537076
9.536491
9.535915
9.535353
9.534808
9.534283
9.533779
9.533298
9.532838
9.532399
9.531979
9.531574
9.531179
9.530788
9.530392
9.529980
9.529540
9.529056
9.528511
9.527888
9.527173
9.526357
9.525449
9.524481
9.523532
9.522745
9.522344
9.522598
9.523751
9.525762
9.527402
9.525539
9.518003
9.523762
9.523762
0.000000
0.000000
0.000000
0.000000
0.000000
-4.876431
-4.876430
-4.830411
-4.819009
-4.757393
-4.786168
-4.837570
-4.806105
-4.649816
-4.374246
-4.033845
-3.688728
-3.373617
-3.108258
-2.915615
-2.797255
-2.750247
-2.789931
-2.913236
-3.101666
-3.334046
-3.581715
-3.813986
-3.992262
-4.078597
-4.080983
-4.028894
-3.947290
-3.846850
-3.749275
-3.665749
-3.601073
-3.558295
-3.533701
-3.523264
-3.525536
-3.538823
-3.561791
-3.593578
-3.633658
-3.681628
-3.737000
-3.799027
-3.866581
-3.938078
-4.011442
-4.084043
-4.152183
-4.210712
-4.254920
-4.282406
-4.293582
-4.287788
-4.265461
-4.227755
-4.176530
-4.114188
-4.043403
-3.966916
-3.887258
-3.806514
-3.726227
-3.647385
-3.570517
-3.495655
-3.422479
-3.350458
-3.279008
-3.207625
-3.136002
-3.064114
-2.992266
-2.921034
-2.851205
-2.783700
-2.719487
-2.659499
-2.604558
-2.555305
-2.512158
-2.475304
-2.444696
-2.420077
-2.401001
-2.386861
-2.376925
-2.370362
-2.366285
-2.363787
-2.361974
-2.360006
-2.357124
-2.352678
-2.346157
-2.337200
-2.325609
-2.311348
-2.294531
-2.275406
-2.254331
-2.231746
-2.208142
-2.184035
-2.159940
-2.136346
-2.113700
-2.092388
-2.072725
-2.054947
-2.039210
-2.025586
-2.014069
-2.004582
-1.996979
-1.991049
-1.986494
-1.982893
-1.979815
-1.976848
-1.973635
-1.969879
-1.965318
-1.959709
-1.952941
-1.944979
-1.935863
-1.925725
-1.914768
-1.903254
-1.891479
-1.879750
-1.868358
-1.857559
-1.847562
-1.838524
-1.830552
-1.823712
-1.818034
-1.813526
-1.810176
-1.807957
-1.806820
-1.806693
-1.807471
-1.809006
-1.811104
-1.813522
-1.815959
-1.818057
-1.819397
9.539664
9.539609
9.539455
9.539210
9.538883
9.538487
9.538035
9.537538
9.537008
9.536456
9.535889
9.535314
9.534738
9.534164
9.533596
9.533036
9.532485
9.531944
9.531412
9.530888
9.530370
9.529852
9.529333
9.528804
9.528261
9.527697
9.527105
9.526483
9.525833
9.525170
9.524530
9.523991
9.523692
9.523885
9.524994
9.527721
9.533176
9.543024
9.560042
9.588445
9.632893
9.698478
9.786755
9.887627
9.887626
0.000000
0.000000
0.000000
0.000000
0.000000
-4.862576
-4.862576
-4.857882
-4.860006
-4.876344
-4.952518
-5.084674
-5.167812
-5.090553
-4.820683
-4.427936
-3.997855
-3.595801
-3.263152
-3.022580
-2.878366
-2.827852
-2.868679
-2.991919
-3.182459
-3.419626
-3.675282
-3.915879
-4.099178
-4.187618
-4.183090
-4.110790
-3.999038
-3.876371
-3.762155
-3.667224
-3.595568
-3.546699
-3.517455
-3.504679
-3.505548
-3.517559
-3.539016
-3.569026
-3.607232
-3.653481
-3.707546
-3.768915
-3.836651
-3.909316
-3.984937
-4.060859
-4.133193
-4.196672
-4.246324
-4.279082
-4.295870
-4.294408
-4.274990
-4.238738
-4.187641
-4.124375
-4.052006
-3.973676
-3.892271
-3.810172
-3.729119
-3.650186
-3.573830
-3.499966
-3.428100
-3.357498
-3.287362
-3.216998
-3.145959
-3.074139
-3.001821
-2.929636
-2.858491
-2.789463
-2.723690
-2.662256
-2.606106
-2.555974
-2.512343
-2.475430
-2.445194
-2.421360
-2.403446
-2.390798
-2.382624
-2.378031
-2.376064
-2.375742
-2.376097
-2.376212
-2.375256
-2.372514
-2.367419
-2.359570
-2.348744
-2.334895
-2.318145
-2.298764
-2.277141
-2.253753
-2.229135
-2.203846
-2.178444
-2.153461
-2.129382
-2.106635
-2.085567
-2.066449
-2.049458
-2.034690
-2.022157
-2.011799
-2.003498
-1.997078
-1.992263
-1.988464
-1.985239
-1.982168
-1.978897
-1.975165
-1.970698
-1.965081
-1.958242
-1.950109
-1.940684
-1.930090
-1.918541
-1.906326
-1.893783
-1.881270
-1.869133
-1.857678
-1.847156
-1.837752
-1.829588
-1.822734
-1.817219
-1.813049
-1.810211
-1.808683
-1.808428
-1.809397
-1.811510
-1.814659
-1.818693
-1.823415
-1.828582
-1.833900
-1.839318
9.538242
9.538192
9.538055
9.537836
9.537541
9.537180
9.536762
9.536297
9.535795
9.535263
9.534709
9.534139
9.533557
9.532969
9.532375
9.531779
9.531181
9.530582
9.529979
9.529372
9.528758
9.528134
9.527494
9.526835
9.526151
9.525439
9.524699
9.523935
9.523164
9.522424
9.521786
9.521383
9.521444
9.522364
9.524796
9.529804
9.539068
9.555135
9.581597
9.623729
9.688134
9.778468
9.888551
9.990907
9.990907
0.000000
0.000000
0.000000
0.000000
0.000000
-4.876899
-4.876898
-4.887424
-4.908187
-4.968580
-5.078771
-5.254568
-5.439074
-5.427344
-5.146888
-4.708575
-4.217509
-3.753418
-3.368473
-3.090908
-2.927963
-2.873644
-2.916056
-3.040228
-3.229086
-3.461610
-3.710356
-3.940884
-4.113154
-4.196463
-4.189273
-4.112263
-3.993395
-3.869430
-3.754133
-3.658745
-3.587192
-3.537674
-3.505848
-3.491608
-3.490900
-3.500693
-3.519226
-3.545841
-3.580529
-3.623484
-3.674776
-3.734132
-3.800803
-3.873491
-3.950304
-4.028557
-4.104350
-4.172594
-4.228178
-4.267210
-4.290524
-4.294462
-4.278973
-4.245051
-4.194756
-4.131030
-4.057349
-3.977309
-3.894223
-3.810820
-3.729077
-3.650169
-3.574529
-3.501956
-3.431775
-3.363033
-3.294695
-3.225849
-3.155878
-3.084573
-3.012193
-2.939427
-2.867302
-2.797060
-2.730006
-2.667378
-2.610243
-2.559420
-2.515441
-2.478545
-2.448690
-2.425582
-2.408710
-2.397379
-2.390755
-2.387895
-2.387792
-2.389407
-2.391713
-2.393728
-2.394559
-2.393431
-2.389724
-2.382997
-2.372999
-2.359673
-2.343146
-2.323703
-2.301759
-2.277824
-2.252465
-2.226274
-2.199841
-2.173728
-2.148451
-2.124463
-2.102141
-2.081776
-2.063571
-2.047633
-2.033989
-2.022593
-2.013352
-2.006155
-2.000884
-1.996276
-1.992177
-1.988413
-1.984642
-1.980468
-1.975900
-1.969926
-1.962862
-1.954489
-1.944711
-1.933653
-1.921519
-1.908608
-1.895292
-1.881974
-1.869055
-1.856898
-1.845800
-1.835984
-1.827594
-1.820709
-1.815362
-1.811552
-1.809268
-1.808489
-1.809193
-1.811350
-1.814914
-1.819815
-1.825951
-1.833185
-1.841341
-1.850203
-1.860156
9.536908
9.536863
9.536738
9.536537
9.536265
9.535929
9.535536
9.535094
9.534611
9.534093
9.533546
9.532975
9.532384
9.531778
9.531157
9.530524
9.529879
9.529221
9.528550
9.527863
9.527157
9.526429
9.525674
9.524888
9.524066
9.523208
9.522313
9.521390
9.520462
9.519573
9.518805
9.518308
9.518337
9.519324
9.521984
9.527479
9.537656
9.555345
9.584644
9.630891
9.699311
9.791845
9.899889
9.995119
9.995118
0.000000
0.000000
0.000000
0.000000
0.000000
-4.920434
-4.920433
-4.936809
-4.964412
-5.033117
-5.151634
-5.331014
-5.578981
-5.666346
-5.297428
-4.815378
-4.286937
-3.786825
-3.368567
-3.067416
-2.895213
-2.843478
-2.892611
-3.020538
-3.206191
-3.427696
-3.659089
-3.869114
-4.024837
-4.103331
-4.102545
-4.038744
-3.936743
-3.824776
-3.723869
-3.639301
-3.574948
-3.527777
-3.499077
-3.485230
-3.482671
-3.488942
-3.502876
-3.524348
-3.553820
-3.591891
-3.638950
-3.694964
-3.759358
-3.830970
-3.907988
-3.987775
-4.066563
-4.139471
-4.201215
-4.246986
-4.276846
-4.287463
-4.277087
-4.246512
-4.197821
-4.134210
-4.059576
-3.978012
-3.893317
-3.808630
-3.726212
-3.647389
-3.572604
-3.501560
-3.433405
-3.366952
-3.300912
-3.234130
-3.165787
-3.095554
-3.023654
-2.950829
-2.878232
-2.807268
-2.739411
-2.676052
-2.618366
-2.567240
-2.523229
-2.486564
-2.457176
-2.434735
-2.418699
-2.408351
-2.402839
-2.401205
-2.402425
-2.405437
-2.409182
-2.412641
-2.414874
-2.415060
-2.412536
-2.406818
-2.397628
-2.384892
-2.368732
-2.349442
-2.327452
-2.303291
-2.277546
-2.250827
-2.223742
-2.196867
-2.170734
-2.145812
-2.122494
-2.101088
-2.081813
-2.064788
-2.050047
-2.037550
-2.027200
-2.018891
-2.011897
-2.005894
-2.000705
-1.995980
-1.991351
-1.986383
-1.980406
-1.973981
-1.966548
-1.957786
-1.947504
-1.935938
-1.923220
-1.909640
-1.895591
-1.881505
-1.867829
-1.854980
-1.843304
-1.833066
-1.824438
-1.817516
-1.812335
-1.808896
-1.807185
-1.807187
-1.808892
-1.812291
-1.817372
-1.824109
-1.832454
-1.842334
-1.853650
-1.866278
-1.881080
9.535655
9.535613
9.535497
9.535309
9.535053
9.534735
9.534359
9.533933
9.533462