# vtk DataFile Version 3.0
Vector Field
ASCII
DATASET RECTILINEAR_GRID
DIMENSIONS 200 50 1
X_COORDINATES 200 double
0.050000 0.150000 0.250000 0.350000 0.450000 0.550000 0.650000 0.750000 0.850000 0.950000 1.050000 1.150000 1.250000 1.350000 1.450000 1.550000 1.650000 1.750000 1.850000 1.950000 2.050000 2.150000 2.250000 2.350000 2.450000 2.550000 2.650000 2.750000 2.850000 2.950000 3.050000 3.150000 3.250000 3.350000 3.450000 3.550000 3.650000 3.750000 3.850000 3.950000 4.050000 4.150000 4.250000 4.350000 4.450000 4.550000 4.650000 4.750000 4.850000 4.950000 5.050000 5.150000 5.250000 5.350000 5.450000 5.550000 5.650000 5.750000 5.850000 5.950000 6.050000 6.150000 6.250000 6.350000 6.450000 6.550000 6.650000 6.750000 6.850000 6.950000 7.050000 7.150000 7.250000 7.350000 7.450000 7.550000 7.650000 7.750000 7.850000 7.950000 8.050000 8.150000 8.250000 8.350000 8.450000 8.550000 8.650000 8.750000 8.850000 8.950000 9.050000 9.150000 9.250000 9.350000 9.450000 9.550000 9.650000 9.750000 9.850000 9.950000 10.050000 10.150000 10.250000 10.350000 10.450000 10.550000 10.650000 10.750000 10.850000 10.950000 11.050000 11.150000 11.250000 11.350000 11.450000 11.550000 11.650000 11.750000 11.850000 11.950000 12.050000 12.150000 12.250000 12.350000 12.450000 12.550000 12.650000 12.750000 12.850000 12.950000 13.050000 13.150000 13.250000 13.350000 13.450000 13.550000 13.650000 13.750000 13.850000 13.950000 14.050000 14.150000 14.250000 14.350000 14.450000 14.550000 14.650000 14.750000 14.850000 14.950000 15.050000 15.150000 15.250000 15.350000 15.450000 15.550000 15.650000 15.750000 15.850000 15.950000 16.050000 16.150000 16.250000 16.350000 16.450000 16.550000 16.650000 16.750000 16.850000 16.950000 17.050000 17.150000 17.250000 17.350000 17.450000 17.550000 17.650000 17.750000 17.850000 17.950000 18.050000 18.150000 18.250000 18.350000 18.450000 18.550000 18.650000 18.750000 18.850000 18.950000 19.050000 19.150000 19.250000 19.350000 19.450000 19.550000 19.650000 19.750000 19.850000 19.950000 
Y_COORDINATES 50 double
0.050000 0.150000 0.250000 0.350000 0.450000 0.550000 0.650000 0.750000 0.850000 0.950000 1.050000 1.150000 1.250000 1.350000 1.450000 1.550000 1.650000 1.750000 1.850000 1.950000 2.050000 2.150000 2.250000 2.350000 2.450000 2.550000 2.650000 2.750000 2.850000 2.950000 3.050000 3.150000 3.250000 3.350000 3.450000 3.550000 3.650000 3.750000 3.850000 3.950000 4.050000 4.150000 4.250000 4.350000 4.450000 4.550000 4.650000 4.750000 4.850000 4.950000 
Z_COORDINATES 1 double
0.0
POINT_DATA 10000
VECTORS Vektorfeld double
0.996418 0.003582 0.0
0.986639 0.006198 0.0
0.973138 0.007303 0.0
0.958005 0.007830 0.0
0.942074 0.008102 0.0
0.925726 0.008246 0.0
0.909162 0.008319 0.0
0.892492 0.008351 0.0
0.875784 0.008357 0.0
0.859080 0.008348 0.0
0.842403 0.008329 0.0
0.825768 0.008305 0.0
0.809183 0.008279 0.0
0.792652 0.008252 0.0
0.776175 0.008225 0.0
0.759750 0.008200 0.0
0.743372 0.008177 0.0
0.727036 0.008159 0.0
0.710731 0.008146 0.0
0.694444 0.008141 0.0
0.678155 0.008147 0.0
0.661839 0.008168 0.0
0.645464 0.008208 0.0
0.628983 0.008272 0.0
0.612342 0.008369 0.0
0.595466 0.008507 0.0
0.578263 0.008697 0.0
0.560611 0.008955 0.0
0.542355 0.009301 0.0
0.523290 0.009763 0.0
0.503150 0.010377 0.0
0.481577 0.011195 0.0
0.458096 0.012286 0.0
0.432070 0.013740 0.0
0.402650 0.015680 0.0
0.368717 0.018253 0.0
0.328831 0.021632 0.0
0.281226 0.025974 0.0
0.223909 0.031343 0.0
0.155029 0.037536 0.0
0.073579 0.043914 0.0
-0.016719 0.046384 0.0
-0.082182 0.019078 0.0
-0.050630 -0.050630 0.0
0.500000 0.050615 0.0
1.000000 0.000000 0.0
1.000000 0.000000 0.0
1.000000 0.000000 0.0
1.000000 0.000000 0.0
1.000000 0.000000 0.0
0.500000 0.038556 0.0
0.038599 -0.038599 0.0
0.097787 -0.020590 0.0
0.124347 -0.005969 0.0
0.125900 0.004416 0.0
0.112684 0.008800 0.0
0.102868 0.001016 0.0
0.108495 -0.006643 0.0
0.103222 0.011916 0.0
0.052480 0.038826 0.0
-0.039320 0.052973 0.0
-0.151984 0.059691 0.0
-0.274446 0.062771 0.0
-0.399643 0.062425 0.0
-0.521208 0.059139 0.0
-0.633770 0.053423 0.0
-0.732988 0.045795 0.0
-0.815634 0.036851 0.0
-0.879765 0.027280 0.0
-0.924872 0.017826 0.0
-0.951899 0.009201 0.0
-0.963026 0.001926 0.0
-0.961042 -0.003910 0.0
-0.948717 -0.008416 0.0
-0.929089 -0.011212 0.0
-0.905433 -0.012445 0.0
-0.880535 -0.012453 0.0
-0.856471 -0.011611 0.0
-0.834600 -0.010260 0.0
-0.815662 -0.008679 0.0
-0.799901 -0.007082 0.0
-0.787200 -0.005619 0.0
-0.777196 -0.004385 0.0
-0.769386 -0.003424 0.0
-0.763223 -0.002739 0.0
-0.758178 -0.002306 0.0
-0.753788 -0.002084 0.0
-0.749679 -0.002026 0.0
-0.745565 -0.002088 0.0
-0.741247 -0.002230 0.0
-0.736593 -0.002424 0.0
-0.731519 -0.002650 0.0
-0.725973 -0.002896 0.0
-0.719914 -0.003163 0.0
-0.713299 -0.003453 0.0
-0.706071 -0.003775 0.0
-0.698161 -0.004136 0.0
-0.689486 -0.004539 0.0
-0.679965 -0.004982 0.0
-0.669526 -0.005456 0.0
-0.658126 -0.005944 0.0
-0.645753 -0.006429 0.0
-0.632433 -0.006891 0.0
-0.618230 -0.007311 0.0
-0.603246 -0.007672 0.0
-0.587619 -0.007955 0.0
-0.571519 -0.008144 0.0
-0.555149 -0.008226 0.0
-0.538730 -0.008193 0.0
-0.522495 -0.008042 0.0
-0.506676 -0.007776 0.0
-0.491498 -0.007402 0.0
-0.477164 -0.006931 0.0
-0.463852 -0.006380 0.0
-0.451704 -0.005768 0.0
-0.440824 -0.005112 0.0
-0.431275 -0.004436 0.0
-0.423077 -0.003762 0.0
-0.416203 -0.003112 0.0
-0.410583 -0.002508 0.0
-0.406103 -0.001972 0.0
-0.402609 -0.001521 0.0
-0.399917 -0.001171 0.0
-0.397813 -0.000932 0.0
-0.396069 -0.000812 0.0
-0.394446 -0.000812 0.0
-0.392701 -0.000933 0.0
-0.390599 -0.001169 0.0
-0.387920 -0.001510 0.0
-0.384466 -0.001943 0.0
-0.380074 -0.002449 0.0
-0.374619 -0.003006 0.0
-0.368026 -0.003587 0.0
-0.360267 -0.004171 0.0
-0.351360 -0.004736 0.0
-0.341363 -0.005260 0.0
-0.330379 -0.005724 0.0
-0.318546 -0.006109 0.0
-0.306034 -0.006403 0.0
-0.293029 -0.006602 0.0
-0.279723 -0.006703 0.0
-0.266315 -0.006704 0.0
-0.253009 -0.006602 0.0
-0.240007 -0.006400 0.0
-0.227502 -0.006105 0.0
-0.215666 -0.005731 0.0
-0.204628 -0.005306 0.0
-0.194484 -0.004838 0.0
-0.185308 -0.004338 0.0
-0.177146 -0.003823 0.0
-0.170010 -0.003313 0.0
-0.163858 -0.002839 0.0
-0.158596 -0.002424 0.0
-0.154093 -0.002079 0.0
-0.150199 -0.001816 0.0
-0.146735 -0.001648 0.0
-0.143514 -0.001573 0.0
-0.140344 -0.001598 0.0
-0.137013 -0.001732 0.0
-0.133304 -0.001977 0.0
-0.129005 -0.002322 0.0
-0.123929 -0.002754 0.0
-0.117895 -0.003279 0.0
-0.110762 -0.003853 0.0
-0.102473 -0.004436 0.0
-0.093015 -0.005021 0.0
-0.082411 -0.005584 0.0
-0.070731 -0.006096 0.0
-0.058103 -0.006532 0.0
-0.044690 -0.006881 0.0
-0.030680 -0.007129 0.0
-0.016286 -0.007265 0.0
-0.001751 -0.007270 0.0
0.012674 -0.007154 0.0
0.026772 -0.006944 0.0
0.040351 -0.006636 0.0
0.053224 -0.006237 0.0
0.065218 -0.005757 0.0
0.076185 -0.005211 0.0
0.086007 -0.004612 0.0
0.094595 -0.003976 0.0
0.101890 -0.003319 0.0
0.107870 -0.002661 0.0
0.112556 -0.002025 0.0
0.116010 -0.001429 0.0
0.118310 -0.000871 0.0
0.119524 -0.000344 0.0
0.119704 0.000164 0.0
0.118882 0.000659 0.0
0.117114 0.001110 0.0
0.114513 0.001491 0.0
0.111210 0.001812 0.0
0.107324 0.002074 0.0
0.102970 0.002280 0.0
0.098260 0.002429 0.0
0.093314 0.002517 0.0
0.088270 0.002527 0.0
0.083324 0.002419 0.0
0.078820 0.002085 0.0
0.076187 0.000549 0.0
1.001714 0.005449 0.0
1.005196 0.010628 0.0
1.008211 0.013359 0.0
1.010170 0.014948 0.0
1.011134 0.015951 0.0
1.011250 0.016627 0.0
1.010644 0.017108 0.0
1.009409 0.017466 0.0
1.007612 0.017746 0.0
1.005302 0.017973 0.0
1.002516 0.018167 0.0
0.999279 0.018339 0.0
0.995611 0.018498 0.0
0.991529 0.018647 0.0
0.987042 0.018793 0.0
0.982161 0.018938 0.0
0.976890 0.019087 0.0
0.971232 0.019243 0.0
0.965186 0.019413 0.0
0.958745 0.019603 0.0
0.951898 0.019822 0.0
0.944626 0.020081 0.0
0.936901 0.020396 0.0
0.928684 0.020782 0.0
0.919922 0.021262 0.0
0.910547 0.021864 0.0
0.900467 0.022623 0.0
0.889563 0.023585 0.0
0.877677 0.024813 0.0
0.864603 0.026390 0.0
0.850063 0.028430 0.0
0.833688 0.031091 0.0
0.814975 0.034584 0.0
0.793243 0.039199 0.0
0.767566 0.045318 0.0
0.736690 0.053424 0.0
0.698942 0.064095 0.0
0.652139 0.077918 0.0
0.593590 0.095265 0.0
0.520370 0.115715 0.0
0.430745 0.136810 0.0
0.326857 0.147675 0.0
0.204686 0.105422 0.0
0.068711 -0.032550 0.0
0.500000 0.032493 0.0
1.000000 0.000000 0.0
1.000000 0.000000 0.0
1.000000 0.000000 0.0
1.000000 0.000000 0.0
1.000000 0.000000 0.0
0.500000 0.108201 0.0
0.031131 -0.108329 0.0
0.079457 -0.058375 0.0
0.104376 -0.019663 0.0
0.105595 0.015337 0.0
0.077878 0.038811 0.0
0.018723 0.039975 0.0
-0.070043 0.037538 0.0
-0.167016 0.069980 0.0
-0.256350 0.120839 0.0
-0.349963 0.156374 0.0
-0.458110 0.177101 0.0
-0.577338 0.187051 0.0
-0.700666 0.186670 0.0
-0.821280 0.177073 0.0
-0.932954 0.159726 0.0
-1.030565 0.136321 0.0
-1.110379 0.108785 0.0
-1.170143 0.079242 0.0
-1.209080 0.049907 0.0
-1.227761 0.022829 0.0
-1.227847 -0.000489 0.0
-1.212612 -0.018713 0.0
-1.187360 -0.031190 0.0
-1.157211 -0.038215 0.0
-1.125609 -0.040700 0.0
-1.094937 -0.039769 0.0
-1.066763 -0.036533 0.0
-1.041986 -0.031985 0.0
-1.020938 -0.026941 0.0
-1.003501 -0.022018 0.0
-0.989255 -0.017630 0.0
-0.977614 -0.014019 0.0
-0.967935 -0.011280 0.0
-0.959583 -0.009399 0.0
-0.951986 -0.008288 0.0
-0.944662 -0.007816 0.0
-0.937230 -0.007835 0.0
-0.929417 -0.008206 0.0
-0.921039 -0.008809 0.0
-0.911986 -0.009553 0.0
-0.902202 -0.010378 0.0
-0.891665 -0.011250 0.0
-0.880371 -0.012162 0.0
-0.868317 -0.013123 0.0
-0.855495 -0.014154 0.0
-0.841891 -0.015271 0.0
-0.827490 -0.016480 0.0
-0.812281 -0.017772 0.0
-0.796266 -0.019120 0.0
-0.779463 -0.020484 0.0
-0.761909 -0.021818 0.0
-0.743657 -0.023074 0.0
-0.724784 -0.024204 0.0
-0.705389 -0.025159 0.0
-0.685601 -0.025885 0.0
-0.665578 -0.026337 0.0
-0.645501 -0.026479 0.0
-0.625568 -0.026292 0.0
-0.605976 -0.025770 0.0
-0.586922 -0.024922 0.0
-0.568588 -0.023769 0.0
-0.551141 -0.022346 0.0
-0.534719 -0.020700 0.0
-0.519430 -0.018884 0.0
-0.505352 -0.016954 0.0
-0.492524 -0.014971 0.0
-0.480949 -0.013000 0.0
-0.470589 -0.011107 0.0
-0.461367 -0.009355 0.0
-0.453168 -0.007805 0.0
-0.445844 -0.006507 0.0
-0.439218 -0.005504 0.0
-0.433094 -0.004827 0.0
-0.427260 -0.004495 0.0
-0.421496 -0.004517 0.0
-0.415580 -0.004889 0.0
-0.409297 -0.005598 0.0
-0.402442 -0.006615 0.0
-0.394835 -0.007900 0.0
-0.386321 -0.009399 0.0
-0.376789 -0.011043 0.0
-0.366173 -0.012759 0.0
-0.354450 -0.014481 0.0
-0.341638 -0.016146 0.0
-0.327793 -0.017691 0.0
-0.313013 -0.019057 0.0
-0.297426 -0.020195 0.0
-0.281192 -0.021063 0.0
-0.264487 -0.021653 0.0
-0.247493 -0.021953 0.0
-0.230399 -0.021956 0.0
-0.213402 -0.021654 0.0
-0.196697 -0.021055 0.0
-0.180469 -0.020183 0.0
-0.164881 -0.019077 0.0
-0.150047 -0.017833 0.0
-0.136041 -0.016461 0.0
-0.122937 -0.014995 0.0
-0.110778 -0.013487 0.0
-0.099570 -0.011994 0.0
-0.089274 -0.010606 0.0
-0.079808 -0.009384 0.0
-0.071075 -0.008354 0.0
-0.062943 -0.007567 0.0
-0.055235 -0.007068 0.0
-0.047760 -0.006848 0.0
-0.040312 -0.006941 0.0
-0.032665 -0.007367 0.0
-0.024595 -0.008121 0.0
-0.015890 -0.009182 0.0
-0.006355 -0.010506 0.0
0.004117 -0.012033 0.0
0.015588 -0.013703 0.0
0.028161 -0.015449 0.0
0.041897 -0.017202 0.0
0.056780 -0.018889 0.0
0.072739 -0.020430 0.0
0.089666 -0.021754 0.0
0.107409 -0.022815 0.0
0.125776 -0.023573 0.0
0.144554 -0.023994 0.0
0.163526 -0.024048 0.0
0.182473 -0.023748 0.0
0.201159 -0.023134 0.0
0.219352 -0.022218 0.0
0.236849 -0.021023 0.0
0.253470 -0.019586 0.0
0.269067 -0.017946 0.0
0.283517 -0.016148 0.0
0.296731 -0.014240 0.0
0.308651 -0.012270 0.0
0.319246 -0.010286 0.0
0.328501 -0.008341 0.0
0.336407 -0.006473 0.0
0.342979 -0.004698 0.0
0.348283 -0.003034 0.0
0.352457 -0.001500 0.0
0.355723 -0.000121 0.0
0.358305 0.001075 0.0
0.360313 0.002119 0.0
0.361780 0.003020 0.0
0.362775 0.003758 0.0
0.363387 0.004338 0.0
0.363699 0.004768 0.0
0.363783 0.005040 0.0
0.363713 0.005117 0.0
0.363596 0.004893 0.0
0.363611 0.004100 0.0
0.363325 0.001453 0.0
1.000668 0.003067 0.0
1.002526 0.007670 0.0
1.004978 0.010849 0.0
1.007412 0.013065 0.0
1.009616 0.014665 0.0
1.011541 0.015871 0.0
1.013192 0.016819 0.0
1.014586 0.017596 0.0
1.015739 0.018260 0.0
1.016662 0.018846 0.0
1.017359 0.019383 0.0
1.017833 0.019887 0.0
1.018080 0.020370 0.0
1.018097 0.020841 0.0
1.017877 0.021306 0.0
1.017414 0.021770 0.0
1.016699 0.022241 0.0
1.015722 0.022724 0.0
1.014472 0.023228 0.0
1.012935 0.023765 0.0
1.011094 0.024347 0.0
1.008930 0.024992 0.0
1.006417 0.025723 0.0
1.003525 0.026565 0.0
1.000212 0.027553 0.0
0.996431 0.028730 0.0
0.992118 0.030150 0.0
0.987193 0.031887 0.0
0.981553 0.034037 0.0
0.975063 0.036730 0.0
0.967547 0.040145 0.0
0.958768 0.044530 0.0
0.948400 0.050226 0.0
0.935988 0.057702 0.0
0.920880 0.067600 0.0
0.902124 0.080772 0.0
0.878308 0.098311 0.0
0.847301 0.121511 0.0
0.805873 0.151650 0.0
0.749145 0.189279 0.0
0.669814 0.232200 0.0
0.556388 0.269599 0.0
0.389667 0.272390 0.0
0.144982 0.181143 0.0
0.500000 -0.181252 0.0
1.000000 0.000000 0.0
1.000000 0.000000 0.0
1.000000 0.000000 0.0
1.000000 0.000000 0.0
1.000000 0.000000 0.0
0.500000 0.154010 0.0
0.014739 -0.154199 0.0
0.032560 -0.078651 0.0
0.004752 0.003502 0.0
-0.059640 0.055345 0.0
-0.126839 0.093719 0.0
-0.197008 0.114391 0.0
-0.272618 0.127500 0.0
-0.350622 0.154994 0.0
-0.427783 0.202321 0.0
-0.508356 0.249077 0.0
-0.598154 0.282343 0.0
-0.696380 0.299264 0.0
-0.797822 0.299228 0.0
-0.896004 0.283311 0.0
-0.984664 0.253823 0.0
-1.058663 0.213834 0.0
-1.114338 0.166760 0.0
-1.149493 0.116186 0.0
-1.163411 0.065816 0.0
-1.157039 0.019230 0.0
-1.133590 -0.020254 0.0
-1.099206 -0.048567 0.0
-1.059899 -0.065896 0.0
-1.019505 -0.074052 0.0
-0.980867 -0.075102 0.0
-0.945820 -0.071086 0.0
-0.915358 -0.063853 0.0
-0.889796 -0.055004 0.0
-0.868935 -0.045831 0.0
-0.852235 -0.037264 0.0
-0.838971 -0.029894 0.0
-0.828339 -0.024028 0.0
-0.819538 -0.019751 0.0
-0.811836 -0.016982 0.0
-0.804606 -0.015532 0.0
-0.797350 -0.015152 0.0
-0.789706 -0.015575 0.0
-0.781431 -0.016553 0.0
-0.772389 -0.017881 0.0
-0.762522 -0.019402 0.0
-0.751825 -0.021011 0.0
-0.740329 -0.022650 0.0
-0.728078 -0.024306 0.0
-0.715114 -0.025997 0.0
-0.701466 -0.027750 0.0
-0.687151 -0.029593 0.0
-0.672176 -0.031534 0.0
-0.656542 -0.033561 0.0
-0.640249 -0.035639 0.0
-0.623301 -0.037715 0.0
-0.605711 -0.039729 0.0
-0.587512 -0.041613 0.0
-0.568757 -0.043294 0.0
-0.549528 -0.044693 0.0
-0.529945 -0.045723 0.0
-0.510161 -0.046306 0.0
-0.490358 -0.046389 0.0
-0.470730 -0.045945 0.0
-0.451471 -0.044968 0.0
-0.432776 -0.043473 0.0
-0.414829 -0.041498 0.0
-0.397794 -0.039099 0.0
-0.381810 -0.036354 0.0
-0.366980 -0.033348 0.0
-0.353380 -0.030169 0.0
-0.341049 -0.026915 0.0
-0.329990 -0.023691 0.0
-0.320161 -0.020605 0.0
-0.311481 -0.017759 0.0
-0.303831 -0.015250 0.0
-0.297056 -0.013160 0.0
-0.290975 -0.011557 0.0
-0.285380 -0.010492 0.0
-0.280055 -0.009990 0.0
-0.274774 -0.010067 0.0
-0.269307 -0.010721 0.0
-0.263427 -0.011929 0.0
-0.256918 -0.013646 0.0
-0.249588 -0.015806 0.0
-0.241273 -0.018321 0.0
-0.231852 -0.021073 0.0
-0.221264 -0.023933 0.0
-0.209493 -0.026801 0.0
-0.196559 -0.029573 0.0
-0.182523 -0.032144 0.0
-0.167492 -0.034416 0.0
-0.151592 -0.036322 0.0
-0.134991 -0.037771 0.0
-0.117884 -0.038758 0.0
-0.100463 -0.039263 0.0
-0.082928 -0.039275 0.0
-0.065478 -0.038782 0.0
-0.048308 -0.037801 0.0
-0.031587 -0.036387 0.0
-0.015435 -0.034613 0.0
-0.000036 -0.032530 0.0
0.014407 -0.030213 0.0
0.027818 -0.027758 0.0
0.040177 -0.025241 0.0
0.051496 -0.022767 0.0
0.061827 -0.020460 0.0
0.071244 -0.018411 0.0
0.079865 -0.016681 0.0
0.087847 -0.015354 0.0
0.095360 -0.014502 0.0
0.102614 -0.014142 0.0
0.109843 -0.014324 0.0
0.117277 -0.015065 0.0
0.125142 -0.016357 0.0
0.133652 -0.018161 0.0
0.143000 -0.020409 0.0
0.153373 -0.022975 0.0
0.164924 -0.025785 0.0
0.177731 -0.028746 0.0
0.191815 -0.031725 0.0
0.207155 -0.034589 0.0
0.223679 -0.037213 0.0
0.241266 -0.039484 0.0
0.259752 -0.041313 0.0
0.278937 -0.042627 0.0
0.298595 -0.043376 0.0
0.318488 -0.043531 0.0
0.338373 -0.043097 0.0
0.358002 -0.042101 0.0
0.377139 -0.040581 0.0
0.395568 -0.038585 0.0
0.413100 -0.036177 0.0
0.429576 -0.033427 0.0
0.444869 -0.030411 0.0
0.458888 -0.027210 0.0
0.471571 -0.023903 0.0
0.482892 -0.020569 0.0
0.492856 -0.017278 0.0
0.501503 -0.014089 0.0
0.508906 -0.011057 0.0
0.515164 -0.008239 0.0
0.520387 -0.005692 0.0
0.524661 -0.003468 0.0
0.528068 -0.001567 0.0
0.530778 0.000045 0.0
0.533038 0.001366 0.0
0.535022 0.002433 0.0
0.536812 0.003261 0.0
0.538482 0.003865 0.0
0.540085 0.004257 0.0
0.541637 0.004418 0.0
0.543080 0.004266 0.0
0.544182 0.003609 0.0
0.544245 0.002168 0.0
1.000305 0.002094 0.0
1.001311 0.005780 0.0
1.002882 0.008715 0.0
1.004662 0.010986 0.0
1.006452 0.012750 0.0
1.008163 0.014149 0.0
1.009762 0.015291 0.0
1.011241 0.016252 0.0
1.012600 0.017091 0.0
1.013843 0.017849 0.0
1.014971 0.018555 0.0
1.015985 0.019228 0.0
1.016883 0.019884 0.0
1.017662 0.020532 0.0
1.018317 0.021179 0.0
1.018843 0.021834 0.0
1.019234 0.022502 0.0
1.019482 0.023192 0.0
1.019580 0.023913 0.0
1.019517 0.024680 0.0
1.019283 0.025506 0.0
1.018865 0.026414 0.0
1.018250 0.027428 0.0
1.017421 0.028581 0.0
1.016356 0.029913 0.0
1.015034 0.031473 0.0
1.013427 0.033327 0.0
1.011503 0.035560 0.0
1.009225 0.038283 0.0
1.006551 0.041648 0.0
1.003431 0.045864 0.0
0.999801 0.051220 0.0
0.995579 0.058126 0.0
0.990639 0.067155 0.0
0.984771 0.079123 0.0
0.977593 0.095182 0.0
0.968366 0.116944 0.0
0.955624 0.146627 0.0
0.936425 0.187161 0.0
0.904838 0.242083 0.0
0.848924 0.314641 0.0
0.745036 0.404472 0.0
0.550310 0.498962 0.0
0.211720 0.537845 0.0
0.500000 -0.538028 0.0
1.000000 0.000000 0.0
1.000000 0.000000 0.0
1.000000 0.000000 0.0
1.000000 0.000000 0.0
1.000000 0.000000 0.0
0.500000 0.151408 0.0
-0.017313 -0.151624 0.0
-0.073619 -0.042741 0.0
-0.144073 0.065854 0.0
-0.210852 0.124166 0.0
-0.280771 0.162015 0.0
-0.346304 0.181796 0.0
-0.403019 0.192420 0.0
-0.451106 0.216164 0.0
-0.498205 0.265411 0.0
-0.554470 0.322825 0.0
-0.623477 0.367401 0.0
-0.702294 0.391248 0.0
-0.785319 0.391711 0.0
-0.865684 0.369375 0.0
-0.936667 0.327402 0.0
-0.992856 0.270444 0.0
-1.030333 0.203302 0.0
-1.046259 0.130726 0.0
-1.039168 0.058102 0.0
-1.010048 -0.008548 0.0
-0.965919 -0.060055 0.0
-0.915094 -0.093974 0.0
-0.862505 -0.112386 0.0
-0.812117 -0.118342 0.0
-0.766450 -0.115117 0.0
-0.726860 -0.105708 0.0
-0.693834 -0.092719 0.0
-0.667203 -0.078331 0.0
-0.646342 -0.064228 0.0
-0.630351 -0.051557 0.0
-0.618206 -0.041009 0.0
-0.608853 -0.032897 0.0
-0.601304 -0.027231 0.0
-0.594702 -0.023807 0.0
-0.588352 -0.022287 0.0
-0.581741 -0.022264 0.0
-0.574528 -0.023321 0.0
-0.566528 -0.025083 0.0
-0.557673 -0.027248 0.0
-0.547976 -0.029599 0.0
-0.537497 -0.031989 0.0
-0.526327 -0.034338 0.0
-0.514558 -0.036638 0.0
-0.502259 -0.038928 0.0
-0.489470 -0.041257 0.0
-0.476199 -0.043672 0.0
-0.462430 -0.046199 0.0
-0.448125 -0.048835 0.0
-0.433238 -0.051545 0.0
-0.417728 -0.054268 0.0
-0.401569 -0.056925 0.0
-0.384772 -0.059414 0.0
-0.367383 -0.061637 0.0
-0.349477 -0.063484 0.0
-0.331174 -0.064819 0.0
-0.312639 -0.065528 0.0
-0.294068 -0.065541 0.0
-0.275664 -0.064825 0.0
-0.257633 -0.063376 0.0
-0.240181 -0.061212 0.0
-0.223505 -0.058383 0.0
-0.207788 -0.054965 0.0
-0.193182 -0.051077 0.0
-0.179792 -0.046844 0.0
-0.167698 -0.042368 0.0
-0.156948 -0.037796 0.0
-0.147542 -0.033276 0.0
-0.139435 -0.028956 0.0
-0.132538 -0.024984 0.0
-0.126722 -0.021492 0.0
-0.121817 -0.018597 0.0
-0.117624 -0.016395 0.0
-0.113914 -0.014959 0.0
-0.110449 -0.014314 0.0
-0.106986 -0.014488 0.0
-0.103269 -0.015484 0.0
-0.099045 -0.017271 0.0
-0.094071 -0.019786 0.0
-0.088131 -0.022937 0.0
-0.081037 -0.026600 0.0
-0.072647 -0.030605 0.0
-0.062895 -0.034742 0.0
-0.051767 -0.038891 0.0
-0.039285 -0.042899 0.0
-0.025529 -0.046610 0.0
-0.010638 -0.049873 0.0
0.005170 -0.052573 0.0
0.021688 -0.054640 0.0
0.038744 -0.056051 0.0
0.056124 -0.056770 0.0
0.073601 -0.056780 0.0
0.090957 -0.056082 0.0
0.107992 -0.054707 0.0
0.124517 -0.052728 0.0
0.140335 -0.050242 0.0
0.155306 -0.047270 0.0
0.169344 -0.043954 0.0
0.182359 -0.040444 0.0
0.194300 -0.036855 0.0
0.205163 -0.033335 0.0
0.214971 -0.030032 0.0
0.223790 -0.027075 0.0
0.231732 -0.024581 0.0
0.238956 -0.022661 0.0
0.245656 -0.021409 0.0
0.252060 -0.020893 0.0
0.258420 -0.021163 0.0
0.264999 -0.022239 0.0
0.272055 -0.024105 0.0
0.279841 -0.026709 0.0
0.288584 -0.029954 0.0
0.298490 -0.033709 0.0
0.309717 -0.037830 0.0
0.322364 -0.042155 0.0
0.336463 -0.046501 0.0
0.351991 -0.050681 0.0
0.368861 -0.054515 0.0
0.386934 -0.057842 0.0
0.406020 -0.060528 0.0
0.425893 -0.062469 0.0
0.446296 -0.063595 0.0
0.466960 -0.063869 0.0
0.487610 -0.063293 0.0
0.507976 -0.061900 0.0
0.527802 -0.059744 0.0
0.546853 -0.056902 0.0
0.564927 -0.053466 0.0
0.581854 -0.049540 0.0
0.597498 -0.045236 0.0
0.611762 -0.040668 0.0
0.624585 -0.035952 0.0
0.635943 -0.031199 0.0
0.645846 -0.026515 0.0
0.654342 -0.021994 0.0
0.661508 -0.017721 0.0
0.667449 -0.013774 0.0
0.672289 -0.010218 0.0
0.676168 -0.007095 0.0
0.679245 -0.004425 0.0
0.681673 -0.002236 0.0
0.683577 -0.000518 0.0
0.685117 0.000793 0.0
0.686471 0.001756 0.0
0.687742 0.002429 0.0
0.688965 0.002866 0.0
0.690115 0.003108 0.0
0.691077 0.003171 0.0
0.691614 0.003064 0.0
0.691353 0.002912 0.0
1.000170 0.001619 0.0
1.000783 0.004637 0.0
1.001834 0.007236 0.0
1.003128 0.009392 0.0
1.004521 0.011161 0.0
1.005927 0.012622 0.0
1.007298 0.013848 0.0
1.008610 0.014903 0.0
1.009853 0.015838 0.0
1.011022 0.016691 0.0
1.012112 0.017493 0.0
1.013123 0.018265 0.0
1.014050 0.019021 0.0
1.014893 0.019773 0.0
1.015648 0.020528 0.0
1.016312 0.021295 0.0
1.016882 0.022080 0.0
1.017356 0.022892 0.0
1.017729 0.023742 0.0
1.017999 0.024644 0.0
1.018161 0.025614 0.0
1.018211 0.026673 0.0
1.018146 0.027849 0.0
1.017962 0.029175 0.0
1.017655 0.030690 0.0
1.017226 0.032447 0.0
1.016675 0.034510 0.0
1.016014 0.036962 0.0
1.015260 0.039912 0.0
1.014450 0.043503 0.0
1.013643 0.047935 0.0
1.012938 0.053484 0.0
1.012480 0.060542 0.0
1.012481 0.069678 0.0
1.013223 0.081726 0.0
1.015046 0.097935 0.0
1.018256 0.120209 0.0
1.022862 0.151498 0.0
1.027883 0.196468 0.0
1.029608 0.262639 0.0
1.017314 0.362294 0.0
0.962746 0.515275 0.0
0.794801 0.750829 0.0
0.334902 1.084467 0.0
0.500000 -1.084792 0.0
1.000000 0.000000 0.0
1.000000 0.000000 0.0
1.000000 0.000000 0.0
1.000000 0.000000 0.0
1.000000 0.000000 0.0
0.500000 0.086906 0.0
-0.047123 -0.087188 0.0
-0.142101 0.044106 0.0
-0.230371 0.137731 0.0
-0.309662 0.198360 0.0
-0.383841 0.231918 0.0
-0.444867 0.238453 0.0
-0.479362 0.226974 0.0
-0.484871 0.235206 0.0
-0.487158 0.295755 0.0
-0.514143 0.375731 0.0
-0.566227 0.435587 0.0
-0.633287 0.468938 0.0
-0.707869 0.471628 0.0
-0.781340 0.443294 0.0
-0.845180 0.388305 0.0
-0.893183 0.313734 0.0
-0.920982 0.225288 0.0
-0.924059 0.127744 0.0
-0.899111 0.029045 0.0
-0.850430 -0.057291 0.0
-0.788012 -0.117860 0.0
-0.721071 -0.153934 0.0
-0.656507 -0.169580 0.0
-0.598104 -0.169939 0.0
-0.547591 -0.159701 0.0
-0.505526 -0.142778 0.0
-0.471769 -0.122432 0.0
-0.445671 -0.101346 0.0
-0.426195 -0.081549 0.0
-0.412052 -0.064369 0.0
-0.401856 -0.050539 0.0
-0.394262 -0.040314 0.0
-0.388074 -0.033551 0.0
-0.382316 -0.029847 0.0
-0.376257 -0.028656 0.0
-0.369407 -0.029357 0.0
-0.361515 -0.031333 0.0
-0.352530 -0.034055 0.0
-0.342537 -0.037123 0.0
-0.331683 -0.040275 0.0
-0.320143 -0.043333 0.0
-0.308121 -0.046186 0.0
-0.295808 -0.048873 0.0
-0.283318 -0.051481 0.0
-0.270703 -0.054108 0.0
-0.257959 -0.056837 0.0
-0.245031 -0.059731 0.0
-0.231828 -0.062811 0.0
-0.218238 -0.066045 0.0
-0.204150 -0.069366 0.0
-0.189471 -0.072664 0.0
-0.174172 -0.075771 0.0
-0.158283 -0.078558 0.0
-0.141869 -0.080884 0.0
-0.125043 -0.082549 0.0
-0.107984 -0.083393 0.0
-0.090898 -0.083333 0.0
-0.074002 -0.082333 0.0
-0.057512 -0.080388 0.0
-0.041646 -0.077519 0.0
-0.026613 -0.073785 0.0
-0.012603 -0.069290 0.0
0.000206 -0.064168 0.0
0.011647 -0.058583 0.0
0.021635 -0.052711 0.0
0.030159 -0.046728 0.0
0.037233 -0.040825 0.0
0.042916 -0.035198 0.0
0.047314 -0.030038 0.0
0.050580 -0.025520 0.0
0.052904 -0.021797 0.0
0.054510 -0.018993 0.0
0.055624 -0.017184 0.0
0.056494 -0.016424 0.0
0.057412 -0.016760 0.0
0.058679 -0.018195 0.0
0.060583 -0.020688 0.0
0.063394 -0.024153 0.0
0.067345 -0.028462 0.0
0.072625 -0.033448 0.0
0.079371 -0.038893 0.0
0.087696 -0.044531 0.0
0.097643 -0.050177 0.0
0.109166 -0.055617 0.0
0.122160 -0.060642 0.0
0.136485 -0.065056 0.0
0.151980 -0.068693 0.0
0.168440 -0.071498 0.0
0.185603 -0.073411 0.0
0.203196 -0.074383 0.0
0.220953 -0.074401 0.0
0.238615 -0.073480 0.0
0.255943 -0.071672 0.0
0.272712 -0.069056 0.0
0.288717 -0.065737 0.0
0.303794 -0.061823 0.0
0.317817 -0.057462 0.0
0.330691 -0.052825 0.0
0.342358 -0.048082 0.0
0.352805 -0.043418 0.0
0.362064 -0.039017 0.0
0.370212 -0.035056 0.0
0.377374 -0.031704 0.0
0.383724 -0.029112 0.0
0.389479 -0.027413 0.0
0.394893 -0.026708 0.0
0.400250 -0.027065 0.0
0.405849 -0.028513 0.0
0.411993 -0.031032 0.0
0.418978 -0.034552 0.0
0.427074 -0.038950 0.0
0.436515 -0.044060 0.0
0.447486 -0.049676 0.0
0.460101 -0.055570 0.0
0.474404 -0.061489 0.0
0.490364 -0.067180 0.0
0.507878 -0.072399 0.0
0.526775 -0.076928 0.0
0.546830 -0.080584 0.0
0.567774 -0.083229 0.0
0.589308 -0.084772 0.0
0.611120 -0.085168 0.0
0.632896 -0.084421 0.0
0.654334 -0.082576 0.0
0.675151 -0.079710 0.0
0.695094 -0.075930 0.0
0.713943 -0.071362 0.0
0.731519 -0.066146 0.0
0.747679 -0.060434 0.0
0.762324 -0.054378 0.0
0.775392 -0.048133 0.0
0.786863 -0.041847 0.0
0.796755 -0.035663 0.0
0.805122 -0.029708 0.0
0.812050 -0.024101 0.0
0.817659 -0.018944 0.0
0.822088 -0.014318 0.0
0.825498 -0.010285 0.0
0.828066 -0.006880 0.0
0.829974 -0.004117 0.0
0.831407 -0.001973 0.0
0.832526 -0.000411 0.0
0.833466 0.000666 0.0
0.834335 0.001380 0.0
0.835172 0.001856 0.0
0.835924 0.002216 0.0
0.836448 0.002577 0.0
0.836527 0.003042 0.0
0.836021 0.003700 0.0
1.000108 0.001341 0.0
1.000517 0.003893 0.0
1.001258 0.006187 0.0
1.002225 0.008180 0.0
1.003321 0.009883 0.0
1.004476 0.011339 0.0
1.005644 0.012593 0.0
1.006795 0.013695 0.0
1.007911 0.014687 0.0
1.008981 0.015604 0.0
1.009996 0.016475 0.0
1.010951 0.017318 0.0
1.011841 0.018150 0.0
1.012663 0.018980 0.0
1.013412 0.019817 0.0
1.014087 0.020667 0.0
1.014686 0.021538 0.0
1.015208 0.022439 0.0
1.015651 0.023379 0.0
1.016016 0.024373 0.0
1.016302 0.025436 0.0
1.016512 0.026591 0.0
1.016648 0.027861 0.0
1.016714 0.029280 0.0
1.016720 0.030886 0.0
1.016677 0.032724 0.0
1.016610 0.034852 0.0
1.016553 0.037340 0.0
1.016565 0.040277 0.0
1.016733 0.043779 0.0
1.017198 0.048000 0.0
1.018172 0.053151 0.0
1.019976 0.059528 0.0
1.023098 0.067569 0.0
1.028256 0.077933 0.0
1.036504 0.091656 0.0
1.049352 0.110430 0.0
1.068887 0.137136 0.0
1.097802 0.176894 0.0
1.139031 0.239259 0.0
1.193965 0.343033 0.0
1.255139 0.527929 0.0
1.288829 0.872431 0.0
0.646112 1.807683 0.0
-1.859436 -0.709894 0.0
-3.687358 0.000000 0.0
-3.645045 0.000000 0.0
-3.623151 0.000000 0.0
-3.591588 0.000000 0.0
-3.528504 0.000000 0.0
-1.742944 0.019863 0.0
-0.093626 0.042600 0.0
-0.242935 0.147645 0.0
-0.341314 0.220842 0.0
-0.419954 0.273181 0.0
-0.487834 0.299156 0.0
-0.539190 0.283596 0.0
-0.540758 0.217893 0.0
-0.471827 0.180863 0.0
-0.398651 0.279209 0.0
-0.395298 0.415908 0.0
-0.442847 0.495043 0.0
-0.509082 0.542776 0.0
-0.587721 0.551011 0.0
-0.666301 0.515962 0.0
-0.731211 0.444387 0.0
-0.775418 0.349861 0.0
-0.796572 0.238112 0.0
-0.788645 0.110071 0.0
-0.743295 -0.023581 0.0
-0.668399 -0.128242 0.0
-0.583789 -0.193937 0.0
-0.502526 -0.226059 0.0
-0.430847 -0.233697 0.0
-0.370321 -0.224751 0.0
-0.320747 -0.204976 0.0
-0.281586 -0.178729 0.0
-0.252088 -0.149737 0.0
-0.231120 -0.121107 0.0
-0.217295 -0.095089 0.0
-0.208986 -0.073282 0.0
-0.204372 -0.056436 0.0
-0.201689 -0.044694 0.0
-0.199429 -0.037620 0.0
-0.196468 -0.034495 0.0
-0.192036 -0.034499 0.0
-0.185685 -0.036714 0.0
-0.177311 -0.040242 0.0
-0.167087 -0.044354 0.0
-0.155343 -0.048561 0.0
-0.142435 -0.052599 0.0
-0.128688 -0.056296 0.0
-0.114458 -0.059474 0.0
-0.100070 -0.062287 0.0
-0.085724 -0.064903 0.0
-0.071529 -0.067496 0.0
-0.057517 -0.070205 0.0
-0.043644 -0.073164 0.0
-0.029797 -0.076429 0.0
-0.015832 -0.079982 0.0
-0.001621 -0.083728 0.0
0.012919 -0.087522 0.0
0.027878 -0.091171 0.0
0.043302 -0.094471 0.0
0.059127 -0.097209 0.0
0.075212 -0.099133 0.0
0.091390 -0.100047 0.0
0.107470 -0.099845 0.0
0.123237 -0.098483 0.0
0.138463 -0.095954 0.0
0.152923 -0.092279 0.0
0.166396 -0.087531 0.0
0.178675 -0.081833 0.0
0.189580 -0.075340 0.0
0.198980 -0.068252 0.0
0.206770 -0.060821 0.0
0.212896 -0.053268 0.0
0.217372 -0.045834 0.0
0.220267 -0.038766 0.0
0.221703 -0.032304 0.0
0.221853 -0.026669 0.0
0.220932 -0.022053 0.0
0.219196 -0.018608 0.0
0.216945 -0.016431 0.0
0.214508 -0.015610 0.0
0.212217 -0.016201 0.0
0.210402 -0.018206 0.0
0.209394 -0.021574 0.0
0.209512 -0.026195 0.0
0.211044 -0.031903 0.0
0.214228 -0.038471 0.0
0.219239 -0.045627 0.0
0.226185 -0.053068 0.0
0.235100 -0.060502 0.0
0.245930 -0.067645 0.0
0.258553 -0.074231 0.0
0.272790 -0.080028 0.0
0.288424 -0.084849 0.0
0.305193 -0.088572 0.0
0.322805 -0.091112 0.0
0.340951 -0.092422 0.0
0.359326 -0.092493 0.0
0.377631 -0.091356 0.0
0.395586 -0.089079 0.0
0.412931 -0.085763 0.0
0.429435 -0.081539 0.0
0.444902 -0.076564 0.0
0.459176 -0.071018 0.0
0.472144 -0.065109 0.0
0.483736 -0.059056 0.0
0.493932 -0.053089 0.0
0.502767 -0.047439 0.0
0.510325 -0.042339 0.0
0.516749 -0.038007 0.0
0.522235 -0.034645 0.0
0.527029 -0.032429 0.0
0.531421 -0.031498 0.0
0.535736 -0.031946 0.0
0.540321 -0.033816 0.0
0.545534 -0.037086 0.0
0.551722 -0.041670 0.0
0.559210 -0.047415 0.0
0.568277 -0.054104 0.0
0.579142 -0.061468 0.0
0.591948 -0.069199 0.0
0.606747 -0.076963 0.0
0.623502 -0.084422 0.0
0.642087 -0.091254 0.0
0.662290 -0.097172 0.0
0.683832 -0.101937 0.0
0.706382 -0.105371 0.0
0.729576 -0.107358 0.0
0.753034 -0.107852 0.0
0.776385 -0.106864 0.0
0.799275 -0.104460 0.0
0.821384 -0.100751 0.0
0.842433 -0.095881 0.0
0.862189 -0.090017 0.0
0.880468 -0.083345 0.0
0.897130 -0.076058 0.0
0.912083 -0.068352 0.0
0.925277 -0.060422 0.0
0.936704 -0.052457 0.0
0.946394 -0.044635 0.0
0.954415 -0.037123 0.0
0.960872 -0.030071 0.0
0.965899 -0.023609 0.0
0.969660 -0.017843 0.0
0.972342 -0.012852 0.0
0.974151 -0.008689 0.0