# vtk DataFile Version 3.0
Vector Field
ASCII
DATASET RECTILINEAR_GRID
DIMENSIONS 200 50 1
X_COORDINATES 200 double
0.050000 0.150000 0.250000 0.350000 0.450000 0.550000 0.650000 0.750000 0.850000 0.950000 1.050000 1.150000 1.250000 1.350000 1.450000 1.550000 1.650000 1.750000 1.850000 1.950000 2.050000 2.150000 2.250000 2.350000 2.450000 2.550000 2.650000 2.750000 2.850000 2.950000 3.050000 3.150000 3.250000 3.350000 3.450000 3.550000 3.650000 3.750000 3.850000 3.950000 4.050000 4.150000 4.250000 4.350000 4.450000 4.550000 4.650000 4.750000 4.850000 4.950000 5.050000 5.150000 5.250000 5.350000 5.450000 5.550000 5.650000 5.750000 5.850000 5.950000 6.050000 6.150000 6.250000 6.350000 6.450000 6.550000 6.650000 6.750000 6.850000 6.950000 7.050000 7.150000 7.250000 7.350000 7.450000 7.550000 7.650000 7.750000 7.850000 7.950000 8.050000 8.150000 8.250000 8.350000 8.450000 8.550000 8.650000 8.750000 8.850000 8.950000 9.050000 9.150000 9.250000 9.350000 9.450000 9.550000 9.650000 9.750000 9.850000 9.950000 10.050000 10.150000 10.250000 10.350000 10.450000 10.550000 10.650000 10.750000 10.850000 10.950000 11.050000 11.150000 11.250000 11.350000 11.450000 11.550000 11.650000 11.750000 11.850000 11.950000 12.050000 12.150000 12.250000 12.350000 12.450000 12.550000 12.650000 12.750000 12.850000 12.950000 13.050000 13.150000 13.250000 13.350000 13.450000 13.550000 13.650000 13.750000 13.850000 13.950000 14.050000 14.150000 14.250000 14.350000 14.450000 14.550000 14.650000 14.750000 14.850000 14.950000 15.050000 15.150000 15.250000 15.350000 15.450000 15.550000 15.650000 15.750000 15.850000 15.950000 16.050000 16.150000 16.250000 16.350000 16.450000 16.550000 16.650000 16.750000 16.850000 16.950000 17.050000 17.150000 17.250000 17.350000 17.450000 17.550000 17.650000 17.750000 17.850000 17.950000 18.050000 18.150000 18.250000 18.350000 18.450000 18.550000 18.650000 18.750000 18.850000 18.950000 19.050000 19.150000 19.250000 19.350000 19.450000 19.550000 19.650000 19.750000 19.850000 19.950000 
Y_COORDINATES 50 double
0.050000 0.150000 0.250000 0.350000 0.450000 0.550000 0.650000 0.750000 0.850000 0.950000 1.050000 1.150000 1.250000 1.350000 1.450000 1.550000 1.650000 1.750000 1.850000 1.950000 2.050000 2.150000 2.250000 2.350000 2.450000 2.550000 2.650000 2.750000 2.850000 2.950000 3.050000 3.150000 3.250000 3.350000 3.450000 3.550000 3.650000 3.750000 3.850000 3.950000 4.050000 4.150000 4.250000 4.350000 4.450000 4.550000 4.650000 4.750000 4.850000 4.950000 
Z_COORDINATES 1 double
0.0
POINT_DATA 10000
VECTORS Vektorfeld double
0.996427 0.003573 0.0
0.986679 0.006175 0.0
0.973233 0.007270 0.0
0.958170 0.007793 0.0
0.942310 0.008066 0.0
0.926027 0.008217 0.0
0.909509 0.008301 0.0
0.892862 0.008346 0.0
0.876151 0.008365 0.0
0.859418 0.008368 0.0
0.842691 0.008359 0.0
0.825990 0.008342 0.0
0.809330 0.008318 0.0
0.792721 0.008291 0.0
0.776169 0.008261 0.0
0.759677 0.008231 0.0
0.743245 0.008201 0.0
0.726868 0.008176 0.0
0.710536 0.008156 0.0
0.694235 0.008145 0.0
0.677943 0.008147 0.0
0.661632 0.008164 0.0
0.645266 0.008202 0.0
0.628798 0.008266 0.0
0.612171 0.008361 0.0
0.595312 0.008497 0.0
0.578131 0.008684 0.0
0.560510 0.008936 0.0
0.542300 0.009274 0.0
0.523302 0.009724 0.0
0.503254 0.010324 0.0
0.481806 0.011125 0.0
0.458485 0.012196 0.0
0.432656 0.013632 0.0
0.403469 0.015554 0.0
0.369802 0.018114 0.0
0.330202 0.021485 0.0
0.282884 0.025833 0.0
0.225822 0.031229 0.0
0.157106 0.037487 0.0
0.075582 0.044037 0.0
-0.014783 0.046328 0.0
-0.079738 0.018626 0.0
-0.049182 -0.049182 0.0
0.500000 0.049190 0.0
1.000000 0.000000 0.0
1.000000 0.000000 0.0
1.000000 0.000000 0.0
1.000000 0.000000 0.0
1.000000 0.000000 0.0
0.500000 0.029400 0.0
0.029383 -0.029383 0.0
0.071622 -0.012856 0.0
0.081556 0.002923 0.0
0.066430 0.012203 0.0
0.037446 0.016781 0.0
0.003739 0.016926 0.0
-0.026777 0.013590 0.0
-0.048964 0.008596 0.0
-0.061082 0.003522 0.0
-0.063577 -0.001027 0.0
-0.058669 -0.003882 0.0
-0.048417 -0.006370 0.0
-0.033285 -0.008762 0.0
-0.014851 -0.009672 0.0
0.002385 -0.007564 0.0
0.012618 -0.002669 0.0
0.011807 0.003480 0.0
-0.001358 0.009686 0.0
-0.026280 0.015236 0.0
-0.060975 0.019460 0.0
-0.103271 0.022836 0.0
-0.151090 0.024983 0.0
-0.201930 0.025857 0.0
-0.253368 0.025581 0.0
-0.303332 0.024383 0.0
-0.350267 0.022552 0.0
-0.393239 0.020420 0.0
-0.431976 0.018318 0.0
-0.466825 0.016531 0.0
-0.498599 0.015244 0.0
-0.528373 0.014529 0.0
-0.557269 0.014367 0.0
-0.586299 0.014664 0.0
-0.616248 0.015285 0.0
-0.647614 0.016081 0.0
-0.680604 0.016910 0.0
-0.715170 0.017655 0.0
-0.751057 0.018232 0.0
-0.787874 0.018585 0.0
-0.825147 0.018688 0.0
-0.862371 0.018537 0.0
-0.899053 0.018145 0.0
-0.934737 0.017538 0.0
-0.969019 0.016745 0.0
-1.001561 0.015798 0.0
-1.032086 0.014727 0.0
-1.060373 0.013560 0.0
-1.086249 0.012317 0.0
-1.109581 0.011015 0.0
-1.130262 0.009666 0.0
-1.148207 0.008279 0.0
-1.163351 0.006865 0.0
-1.175653 0.005437 0.0
-1.185105 0.004016 0.0
-1.191753 0.002632 0.0
-1.195659 0.001273 0.0
-1.196918 -0.000014 0.0
-1.195649 -0.001255 0.0
-1.191925 -0.002468 0.0
-1.185829 -0.003628 0.0
-1.177461 -0.004740 0.0
-1.166910 -0.005811 0.0
-1.154253 -0.006846 0.0
-1.139556 -0.007850 0.0
-1.122881 -0.008825 0.0
-1.104286 -0.009770 0.0
-1.083828 -0.010688 0.0
-1.061566 -0.011575 0.0
-1.037559 -0.012432 0.0
-1.011871 -0.013257 0.0
-0.984563 -0.014051 0.0
-0.955696 -0.014817 0.0
-0.925320 -0.015558 0.0
-0.893479 -0.016283 0.0
-0.860199 -0.016998 0.0
-0.825495 -0.017706 0.0
-0.789383 -0.018407 0.0
-0.751886 -0.019090 0.0
-0.713053 -0.019742 0.0
-0.672963 -0.020348 0.0
-0.631720 -0.020896 0.0
-0.589431 -0.021393 0.0
-0.546189 -0.021849 0.0
-0.502109 -0.022231 0.0
-0.457418 -0.022459 0.0
-0.412498 -0.022461 0.0
-0.367697 -0.022339 0.0
-0.323149 -0.022210 0.0
-0.278777 -0.022162 0.0
-0.234906 -0.021709 0.0
-0.192207 -0.020990 0.0
-0.151123 -0.020094 0.0
-0.111089 -0.019940 0.0
-0.071752 -0.019397 0.0
-0.033797 -0.018557 0.0
0.002652 -0.017891 0.0
0.037382 -0.016839 0.0
0.069782 -0.015562 0.0
0.099814 -0.014470 0.0
0.127895 -0.013610 0.0
0.154436 -0.012932 0.0
0.179769 -0.012401 0.0
0.204169 -0.011999 0.0
0.227888 -0.011719 0.0
0.251160 -0.011553 0.0
0.274204 -0.011492 0.0
0.297220 -0.011524 0.0
0.320381 -0.011636 0.0
0.343827 -0.011810 0.0
0.367663 -0.012026 0.0
0.391951 -0.012262 0.0
0.416708 -0.012495 0.0
0.441905 -0.012702 0.0
0.467465 -0.012859 0.0
0.493268 -0.012944 0.0
0.519151 -0.012939 0.0
0.544916 -0.012827 0.0
0.570338 -0.012595 0.0
0.595171 -0.012238 0.0
0.619161 -0.011752 0.0
0.642053 -0.011140 0.0
0.663604 -0.010411 0.0
0.683593 -0.009578 0.0
0.701828 -0.008657 0.0
0.718155 -0.007669 0.0
0.732460 -0.006637 0.0
0.744680 -0.005583 0.0
0.754793 -0.004531 0.0
0.762828 -0.003505 0.0
0.768862 -0.002529 0.0
0.773029 -0.001637 0.0
0.775534 -0.000868 0.0
0.776638 -0.000236 0.0
0.776526 0.000349 0.0
0.775212 0.000965 0.0
0.772673 0.001574 0.0
0.768975 0.002125 0.0
0.764252 0.002599 0.0
0.758659 0.002994 0.0
0.752350 0.003315 0.0
0.745468 0.003567 0.0
0.738147 0.003755 0.0
0.730511 0.003882 0.0
0.722683 0.003947 0.0
0.714796 0.003940 0.0
0.707020 0.003835 0.0
0.699632 0.003554 0.0
0.693186 0.002892 0.0
0.689554 0.000740 0.0
1.001723 0.005423 0.0
1.005237 0.010559 0.0
1.008307 0.013262 0.0
1.010335 0.014838 0.0
1.011370 0.015846 0.0
1.011549 0.016542 0.0
1.010987 0.017056 0.0
1.009772 0.017453 0.0
1.007969 0.017772 0.0
1.005627 0.018036 0.0
1.002787 0.018259 0.0
0.999479 0.018450 0.0
0.995731 0.018618 0.0
0.991563 0.018768 0.0
0.986994 0.018905 0.0
0.982037 0.019036 0.0
0.976700 0.019166 0.0
0.970988 0.019301 0.0
0.964899 0.019451 0.0
0.958427 0.019623 0.0
0.951558 0.019829 0.0
0.944270 0.020081 0.0
0.936533 0.020390 0.0
0.928304 0.020774 0.0
0.919533 0.021252 0.0
0.910148 0.021850 0.0
0.900061 0.022600 0.0
0.889156 0.023546 0.0
0.877280 0.024750 0.0
0.864231 0.026295 0.0
0.849737 0.028295 0.0
0.833432 0.030907 0.0
0.814821 0.034347 0.0
0.793224 0.038907 0.0
0.767717 0.044973 0.0
0.737045 0.053035 0.0
0.699527 0.063681 0.0
0.652968 0.077514 0.0
0.594650 0.094928 0.0
0.521615 0.115540 0.0
0.432157 0.136966 0.0
0.328162 0.147759 0.0
0.204739 0.105573 0.0
0.068210 -0.030154 0.0
0.500000 0.030224 0.0
1.000000 0.000000 0.0
1.000000 0.000000 0.0
1.000000 0.000000 0.0
1.000000 0.000000 0.0
1.000000 0.000000 0.0
0.500000 0.083271 0.0
0.024483 -0.083249 0.0
0.060789 -0.037537 0.0
0.070463 0.007997 0.0
0.056533 0.036185 0.0
0.025801 0.052514 0.0
-0.016062 0.056763 0.0
-0.063577 0.051785 0.0
-0.111581 0.040592 0.0
-0.153734 0.025796 0.0
-0.186676 0.012137 0.0
-0.213220 0.004590 0.0
-0.238273 -0.000041 0.0
-0.263925 -0.004571 0.0
-0.288311 -0.007911 0.0
-0.308660 -0.006212 0.0
-0.325698 0.002783 0.0
-0.343969 0.017110 0.0
-0.368280 0.033533 0.0
-0.401152 0.049181 0.0
-0.442892 0.061951 0.0
-0.491937 0.071685 0.0
-0.545560 0.077576 0.0
-0.600962 0.079505 0.0
-0.655466 0.077875 0.0
-0.706850 0.073436 0.0
-0.753561 0.067146 0.0
-0.794806 0.060043 0.0
-0.830507 0.053133 0.0
-0.861194 0.047251 0.0
-0.887844 0.042947 0.0
-0.911693 0.040448 0.0
-0.934036 0.039687 0.0
-0.956033 0.040371 0.0
-0.978581 0.042074 0.0
-1.002250 0.044327 0.0
-1.027287 0.046690 0.0
-1.053648 0.048802 0.0
-1.081076 0.050400 0.0
-1.109158 0.051317 0.0
-1.137403 0.051474 0.0
-1.165290 0.050862 0.0
-1.192311 0.049523 0.0
-1.218002 0.047534 0.0
-1.241959 0.044988 0.0
-1.263846 0.041983 0.0
-1.283390 0.038611 0.0
-1.300381 0.034953 0.0
-1.314654 0.031073 0.0
-1.326080 0.027016 0.0
-1.334551 0.022816 0.0
-1.339971 0.018494 0.0
-1.342254 0.014076 0.0
-1.341322 0.009597 0.0
-1.337116 0.005102 0.0
-1.329693 0.000771 0.0
-1.319485 -0.003168 0.0
-1.306982 -0.006817 0.0
-1.292442 -0.010262 0.0
-1.276074 -0.013552 0.0
-1.258015 -0.016699 0.0
-1.238325 -0.019727 0.0
-1.217040 -0.022660 0.0
-1.194184 -0.025511 0.0
-1.169778 -0.028289 0.0
-1.143842 -0.030997 0.0
-1.116398 -0.033637 0.0
-1.087468 -0.036208 0.0
-1.057082 -0.038704 0.0
-1.025273 -0.041118 0.0
-0.992083 -0.043449 0.0
-0.957549 -0.045700 0.0
-0.921710 -0.047875 0.0
-0.884601 -0.049985 0.0
-0.846243 -0.052054 0.0
-0.806643 -0.054106 0.0
-0.765800 -0.056145 0.0
-0.723710 -0.058170 0.0
-0.680380 -0.060154 0.0
-0.635838 -0.062053 0.0
-0.590136 -0.063829 0.0
-0.543366 -0.065428 0.0
-0.495642 -0.066873 0.0
-0.447051 -0.068202 0.0
-0.397686 -0.069323 0.0
-0.347696 -0.070049 0.0
-0.297437 -0.070050 0.0
-0.247286 -0.069702 0.0
-0.197480 -0.069202 0.0
-0.147941 -0.069080 0.0
-0.098932 -0.067671 0.0
-0.050825 -0.065834 0.0
-0.003023 -0.064137 0.0
0.043229 -0.062182 0.0
0.086448 -0.059711 0.0
0.127192 -0.056942 0.0
0.165662 -0.054425 0.0
0.202113 -0.051486 0.0
0.237135 -0.048337 0.0
0.270928 -0.045519 0.0
0.303432 -0.043145 0.0
0.334685 -0.041192 0.0
0.364839 -0.039628 0.0
0.394102 -0.038436 0.0
0.422705 -0.037604 0.0
0.450880 -0.037115 0.0
0.478855 -0.036949 0.0
0.506843 -0.037071 0.0
0.535035 -0.037442 0.0
0.563595 -0.038010 0.0
0.592652 -0.038718 0.0
0.622296 -0.039501 0.0
0.652572 -0.040289 0.0
0.683479 -0.041011 0.0
0.714967 -0.041598 0.0
0.746941 -0.041981 0.0
0.779260 -0.042102 0.0
0.811740 -0.041909 0.0
0.844167 -0.041362 0.0
0.876296 -0.040435 0.0
0.907868 -0.039116 0.0
0.938611 -0.037411 0.0
0.968257 -0.035338 0.0
0.996546 -0.032930 0.0
1.023241 -0.030235 0.0
1.048131 -0.027307 0.0
1.071040 -0.024213 0.0
1.091833 -0.021019 0.0
1.110421 -0.017796 0.0
1.126759 -0.014614 0.0
1.140846 -0.011541 0.0
1.152703 -0.008648 0.0
1.162340 -0.005999 0.0
1.169740 -0.003610 0.0
1.174999 -0.001425 0.0
1.178475 0.000577 0.0
1.180576 0.002399 0.0
1.181553 0.004021 0.0
1.181595 0.005384 0.0
1.180912 0.006485 0.0
1.179707 0.007339 0.0
1.178164 0.007968 0.0
1.176443 0.008395 0.0
1.174685 0.008636 0.0
1.173005 0.008701 0.0
1.171501 0.008577 0.0
1.170267 0.008208 0.0
1.169403 0.007433 0.0
1.168999 0.005863 0.0
1.168265 0.002135 0.0
1.000677 0.003024 0.0
1.002565 0.007556 0.0
1.005072 0.010688 0.0
1.007574 0.012882 0.0
1.009851 0.014489 0.0
1.011844 0.015727 0.0
1.013550 0.016727 0.0
1.014979 0.017568 0.0
1.016145 0.018296 0.0
1.017058 0.018942 0.0
1.017725 0.019526 0.0
1.018151 0.020063 0.0
1.018340 0.020564 0.0
1.018292 0.021037 0.0
1.018006 0.021491 0.0
1.017480 0.021934 0.0
1.016709 0.022375 0.0
1.015686 0.022826 0.0
1.014403 0.023297 0.0
1.012847 0.023804 0.0
1.011002 0.024363 0.0
1.008846 0.024991 0.0
1.006354 0.025710 0.0
1.003491 0.026545 0.0
1.000216 0.027527 0.0
0.996480 0.028696 0.0
0.992217 0.030103 0.0
0.987349 0.031817 0.0
0.981773 0.033932 0.0
0.975359 0.036577 0.0
0.967933 0.039932 0.0
0.959261 0.044245 0.0
0.949022 0.049860 0.0
0.936763 0.057251 0.0
0.921834 0.067065 0.0
0.903283 0.080165 0.0
0.879693 0.097659 0.0
0.848923 0.120865 0.0
0.807725 0.151093 0.0
0.751190 0.188945 0.0
0.671961 0.232249 0.0
0.558332 0.270100 0.0
0.391042 0.273944 0.0
0.145495 0.183551 0.0
0.500000 -0.183383 0.0
1.000000 0.000000 0.0
1.000000 0.000000 0.0
1.000000 0.000000 0.0
1.000000 0.000000 0.0
1.000000 0.000000 0.0
0.500000 0.119671 0.0
0.011992 -0.119724 0.0
0.024945 -0.050322 0.0
0.004708 0.031344 0.0
-0.050047 0.081521 0.0
-0.120417 0.108281 0.0
-0.197165 0.119606 0.0
-0.276873 0.116164 0.0
-0.350752 0.098097 0.0
-0.409094 0.068786 0.0
-0.449245 0.042240 0.0
-0.479882 0.031668 0.0
-0.509483 0.027534 0.0
-0.536339 0.020362 0.0
-0.554906 0.010109 0.0
-0.563324 0.004534 0.0
-0.566563 0.012314 0.0
-0.572427 0.031713 0.0
-0.585865 0.056679 0.0
-0.608666 0.081707 0.0
-0.640674 0.103174 0.0
-0.680253 0.119086 0.0
-0.724721 0.128267 0.0
-0.771019 0.130513 0.0
-0.816185 0.126537 0.0
-0.857746 0.117719 0.0
-0.893993 0.105820 0.0
-0.924087 0.092707 0.0
-0.948025 0.080109 0.0
-0.966481 0.069418 0.0
-0.980591 0.061539 0.0
-0.991717 0.056833 0.0
-1.001233 0.055162 0.0
-1.010338 0.055997 0.0
-1.019929 0.058587 0.0
-1.030557 0.062112 0.0
-1.042440 0.065824 0.0
-1.055529 0.069119 0.0
-1.069580 0.071562 0.0
-1.084229 0.072886 0.0
-1.099052 0.072972 0.0
-1.113616 0.071813 0.0
-1.127507 0.069485 0.0
-1.140359 0.066117 0.0
-1.151861 0.061864 0.0
-1.161756 0.056888 0.0
-1.169844 0.051337 0.0
-1.175963 0.045337 0.0
-1.179986 0.038984 0.0
-1.181801 0.032345 0.0
-1.181300 0.025457 0.0
-1.178365 0.018339 0.0
-1.172863 0.011012 0.0
-1.164687 0.003552 0.0
-1.154175 -0.003571 0.0
-1.142103 -0.010049 0.0
-1.128707 -0.015953 0.0
-1.113805 -0.021437 0.0
-1.097405 -0.026582 0.0
-1.079551 -0.031454 0.0
-1.060282 -0.036125 0.0
-1.039623 -0.040650 0.0
-1.017583 -0.045063 0.0
-0.994160 -0.049386 0.0
-0.969355 -0.053625 0.0
-0.943170 -0.057782 0.0
-0.915611 -0.061857 0.0
-0.886683 -0.065846 0.0
-0.856400 -0.069735 0.0
-0.824792 -0.073504 0.0
-0.791894 -0.077152 0.0
-0.757735 -0.080689 0.0
-0.722343 -0.084116 0.0
-0.685750 -0.087447 0.0
-0.647973 -0.090727 0.0
-0.608997 -0.094009 0.0
-0.568808 -0.097276 0.0
-0.527395 -0.100541 0.0
-0.484742 -0.103766 0.0
-0.440856 -0.106869 0.0
-0.395741 -0.109830 0.0
-0.349426 -0.112512 0.0
-0.302034 -0.114905 0.0
-0.253710 -0.117086 0.0
-0.204737 -0.118777 0.0
-0.155192 -0.120131 0.0
-0.105171 -0.120247 0.0
-0.054764 -0.120062 0.0
-0.003912 -0.119499 0.0
0.045715 -0.117948 0.0
0.093203 -0.115301 0.0
0.139198 -0.112305 0.0
0.183200 -0.109470 0.0
0.225330 -0.105230 0.0
0.266094 -0.100646 0.0
0.305316 -0.095973 0.0
0.342826 -0.091375 0.0
0.378612 -0.086773 0.0
0.412832 -0.082292 0.0
0.445621 -0.078146 0.0
0.477075 -0.074476 0.0
0.507313 -0.071352 0.0
0.536498 -0.068806 0.0
0.564832 -0.066855 0.0
0.592543 -0.065497 0.0
0.619866 -0.064720 0.0
0.647038 -0.064492 0.0
0.674286 -0.064764 0.0
0.701817 -0.065472 0.0
0.729812 -0.066534 0.0
0.758414 -0.067854 0.0
0.787730 -0.069324 0.0
0.817816 -0.070828 0.0
0.848680 -0.072244 0.0
0.880277 -0.073451 0.0
0.912510 -0.074335 0.0
0.945233 -0.074789 0.0
0.978254 -0.074723 0.0
1.011343 -0.074063 0.0
1.044240 -0.072760 0.0
1.076665 -0.070788 0.0
1.108329 -0.068147 0.0
1.138946 -0.064864 0.0
1.168241 -0.060989 0.0
1.195964 -0.056593 0.0
1.221893 -0.051767 0.0
1.245844 -0.046613 0.0
1.267676 -0.041243 0.0
1.287290 -0.035773 0.0
1.304634 -0.030318 0.0
1.319698 -0.024987 0.0
1.332512 -0.019874 0.0
1.343152 -0.015050 0.0
1.351746 -0.010553 0.0
1.358453 -0.006449 0.0
1.363399 -0.002821 0.0
1.366768 0.000327 0.0
1.368864 0.003020 0.0
1.369981 0.005225 0.0
1.370359 0.006948 0.0
1.370223 0.008218 0.0
1.369778 0.009077 0.0
1.369211 0.009573 0.0
1.368678 0.009750 0.0
1.368300 0.009647 0.0
1.368151 0.009284 0.0
1.368244 0.008642 0.0
1.368483 0.007624 0.0
1.368551 0.006007 0.0
1.367754 0.003522 0.0
1.000313 0.002034 0.0
1.001349 0.005622 0.0
1.002975 0.008490 0.0
1.004822 0.010730 0.0
1.006685 0.012501 0.0
1.008465 0.013942 0.0
1.010120 0.015152 0.0
1.011636 0.016198 0.0
1.013011 0.017124 0.0
1.014249 0.017963 0.0
1.015354 0.018734 0.0
1.016329 0.019454 0.0
1.017177 0.020136 0.0
1.017899 0.020791 0.0
1.018496 0.021426 0.0
1.018968 0.022054 0.0
1.019311 0.022684 0.0
1.019523 0.023328 0.0
1.019598 0.024003 0.0
1.019528 0.024724 0.0
1.019304 0.025512 0.0
1.018914 0.026388 0.0
1.018343 0.027378 0.0
1.017571 0.028512 0.0
1.016579 0.029828 0.0
1.015339 0.031372 0.0
1.013825 0.033204 0.0
1.012004 0.035405 0.0
1.009839 0.038083 0.0
1.007291 0.041388 0.0
1.004310 0.045528 0.0
1.000839 0.050793 0.0
0.996797 0.057593 0.0
0.992063 0.066510 0.0
0.986430 0.078367 0.0
0.979518 0.094326 0.0
0.970585 0.116021 0.0
0.958162 0.145697 0.0
0.939293 0.186329 0.0
0.908019 0.241518 0.0
0.852328 0.314596 0.0
0.748394 0.405316 0.0
0.553087 0.501325 0.0
0.212879 0.541925 0.0
0.500000 -0.541632 0.0
1.000000 0.000000 0.0
1.000000 0.000000 0.0
1.000000 0.000000 0.0
1.000000 0.000000 0.0
1.000000 0.000000 0.0
0.500000 0.118991 0.0
-0.012559 -0.119157 0.0
-0.059990 -0.016411 0.0
-0.132135 0.089816 0.0
-0.208754 0.154423 0.0
-0.293253 0.190249 0.0
-0.386617 0.207751 0.0
-0.482285 0.203395 0.0
-0.569332 0.171792 0.0
-0.631178 0.115278 0.0
-0.659201 0.063921 0.0
-0.672970 0.054394 0.0
-0.694019 0.055459 0.0
-0.717022 0.042297 0.0
-0.726596 0.016314 0.0
-0.714889 -0.004960 0.0
-0.691977 0.002136 0.0
-0.674475 0.030254 0.0
-0.669220 0.066322 0.0
-0.676636 0.102280 0.0
-0.695439 0.133411 0.0
-0.723489 0.156476 0.0
-0.757714 0.169571 0.0
-0.794533 0.172326 0.0
-0.830447 0.165804 0.0
-0.862537 0.152103 0.0
-0.888749 0.133895 0.0
-0.908018 0.113995 0.0
-0.920252 0.094994 0.0
-0.926229 0.078967 0.0
-0.927389 0.067259 0.0
-0.925520 0.060368 0.0
-0.922370 0.057993 0.0
-0.919355 0.059256 0.0
-0.917435 0.063000 0.0
-0.917129 0.068021 0.0
-0.918593 0.073262 0.0
-0.921719 0.077896 0.0
-0.926237 0.081352 0.0
-0.931782 0.083290 0.0
-0.937957 0.083567 0.0
-0.944367 0.082191 0.0
-0.950643 0.079273 0.0
-0.956454 0.074991 0.0
-0.961514 0.069551 0.0
-0.965578 0.063162 0.0
-0.968439 0.056012 0.0
-0.969917 0.048260 0.0
-0.969857 0.040023 0.0
-0.968107 0.031372 0.0
-0.964502 0.022326 0.0
-0.958842 0.012874 0.0
-0.950892 0.003025 0.0
-0.940941 -0.006589 0.0
-0.929701 -0.015183 0.0
-0.917223 -0.022987 0.0
-0.903308 -0.030327 0.0
-0.888048 -0.037224 0.0
-0.871514 -0.043729 0.0
-0.853753 -0.049921 0.0
-0.834792 -0.055888 0.0
-0.814632 -0.061706 0.0
-0.793252 -0.067427 0.0
-0.770623 -0.073073 0.0
-0.746723 -0.078643 0.0
-0.721540 -0.084132 0.0
-0.695064 -0.089542 0.0
-0.667282 -0.094872 0.0
-0.638190 -0.100084 0.0
-0.607827 -0.105126 0.0
-0.576246 -0.110009 0.0
-0.543468 -0.114769 0.0
-0.509507 -0.119388 0.0
-0.474402 -0.123873 0.0
-0.438176 -0.128304 0.0
-0.400765 -0.132819 0.0
-0.362120 -0.137301 0.0
-0.322224 -0.141823 0.0
-0.281019 -0.146341 0.0
-0.238526 -0.150673 0.0
-0.194844 -0.154823 0.0
-0.149916 -0.158762 0.0
-0.103660 -0.162303 0.0
-0.055992 -0.165679 0.0
-0.007075 -0.168073 0.0
0.041821 -0.169277 0.0
0.090148 -0.169449 0.0
0.138065 -0.169185 0.0
0.185011 -0.168174 0.0
0.231240 -0.165129 0.0
0.276968 -0.161336 0.0
0.321639 -0.156935 0.0
0.364803 -0.152008 0.0
0.406302 -0.146320 0.0
0.446146 -0.140165 0.0
0.484256 -0.133787 0.0
0.520565 -0.127380 0.0
0.555082 -0.121071 0.0
0.587895 -0.115027 0.0
0.619123 -0.109428 0.0
0.648901 -0.104426 0.0
0.677392 -0.100131 0.0
0.704794 -0.096615 0.0
0.731335 -0.093922 0.0
0.757264 -0.092070 0.0
0.782843 -0.091050 0.0
0.808334 -0.090826 0.0
0.833992 -0.091336 0.0
0.860053 -0.092493 0.0
0.886727 -0.094182 0.0
0.914188 -0.096270 0.0
0.942567 -0.098603 0.0
0.971943 -0.101011 0.0
1.002340 -0.103320 0.0
1.033721 -0.105353 0.0
1.065989 -0.106935 0.0
1.098986 -0.107909 0.0
1.132496 -0.108134 0.0
1.166255 -0.107499 0.0
1.199955 -0.105921 0.0
1.233261 -0.103357 0.0
1.265823 -0.099803 0.0
1.297288 -0.095291 0.0
1.327325 -0.089894 0.0
1.355631 -0.083717 0.0
1.381950 -0.076891 0.0
1.406077 -0.069568 0.0
1.427868 -0.061912 0.0
1.447238 -0.054090 0.0
1.464160 -0.046267 0.0
1.478654 -0.038597 0.0
1.490792 -0.031216 0.0
1.500682 -0.024238 0.0
1.508477 -0.017754 0.0
1.514360 -0.011838 0.0
1.518528 -0.006546 0.0
1.521166 -0.001955 0.0
1.522507 0.001865 0.0
1.522843 0.004927 0.0
1.522446 0.007264 0.0
1.521562 0.008922 0.0
1.520418 0.009961 0.0
1.519223 0.010452 0.0
1.518153 0.010473 0.0
1.517345 0.010109 0.0
1.516875 0.009440 0.0
1.516730 0.008538 0.0
1.516765 0.007454 0.0
1.516640 0.006234 0.0
1.515741 0.004991 0.0
1.000178 0.001543 0.0
1.000820 0.004435 0.0
1.001924 0.006948 0.0
1.003285 0.009063 0.0
1.004750 0.010840 0.0
1.006223 0.012351 0.0
1.007648 0.013663 0.0
1.008996 0.014822 0.0
1.010254 0.015866 0.0
1.011417 0.016821 0.0
1.012483 0.017706 0.0
1.013454 0.018537 0.0
1.014331 0.019328 0.0
1.015118 0.020089 0.0
1.015817 0.020832 0.0
1.016428 0.021565 0.0
1.016954 0.022303 0.0
1.017395 0.023057 0.0
1.017749 0.023845 0.0
1.018017 0.024685 0.0
1.018194 0.025598 0.0
1.018277 0.026609 0.0
1.018261 0.027744 0.0
1.018142 0.029036 0.0
1.017915 0.030523 0.0
1.017579 0.032252 0.0
1.017134 0.034282 0.0
1.016590 0.036692 0.0
1.015968 0.039584 0.0
1.015305 0.043100 0.0
1.014665 0.047437 0.0
1.014150 0.052870 0.0
1.013912 0.059796 0.0
1.014168 0.068786 0.0
1.015207 0.080684 0.0
1.017375 0.096754 0.0
1.020982 0.118919 0.0
1.026044 0.150161 0.0
1.031579 0.195198 0.0
1.033873 0.261629 0.0
1.022166 0.361882 0.0
0.968073 0.516057 0.0
0.800019 0.753944 0.0
0.337365 1.092169 0.0
0.500000 -1.091621 0.0
1.000000 0.000000 0.0
1.000000 0.000000 0.0
1.000000 0.000000 0.0
1.000000 0.000000 0.0
1.000000 0.000000 0.0
0.500000 0.057388 0.0
-0.048984 -0.057614 0.0
-0.148091 0.068583 0.0
-0.242052 0.170929 0.0
-0.332218 0.240095 0.0
-0.427967 0.284825 0.0
-0.529765 0.308337 0.0
-0.636391 0.305103 0.0
-0.738659 0.259400 0.0
-0.803470 0.154328 0.0
-0.799750 0.049174 0.0
-0.779113 0.062273 0.0
-0.796676 0.086191 0.0
-0.827784 0.065676 0.0
-0.832267 0.006993 0.0
-0.787076 -0.052536 0.0
-0.719799 -0.040478 0.0
-0.670815 0.006381 0.0
-0.645048 0.059172 0.0
-0.637375 0.109174 0.0
-0.644586 0.152532 0.0
-0.664076 0.184895 0.0
-0.691948 0.203251 0.0
-0.723453 0.206970 0.0
-0.754005 0.197627 0.0
-0.779929 0.178293 0.0
-0.798806 0.152796 0.0
-0.809555 0.125111 0.0
-0.812273 0.098830 0.0
-0.807929 0.076764 0.0
-0.798067 0.060761 0.0
-0.784679 0.051609 0.0
-0.770090 0.049013 0.0
-0.756457 0.051587 0.0
-0.745128 0.057419 0.0
-0.736587 0.064756 0.0
-0.730819 0.072224 0.0
-0.727563 0.078804 0.0
-0.726421 0.083820 0.0
-0.726944 0.086889 0.0
-0.728668 0.087867 0.0
-0.731148 0.086782 0.0
-0.733974 0.083784 0.0
-0.736773 0.079091 0.0
-0.739211 0.072951 0.0
-0.740996 0.065611 0.0
-0.741870 0.057297 0.0
-0.741613 0.048196 0.0
-0.740030 0.038444 0.0
-0.736943 0.028114 0.0
-0.732146 0.017182 0.0
-0.725341 0.005553 0.0
-0.716404 -0.006540 0.0
-0.705985 -0.017394 0.0
-0.694420 -0.027184 0.0
-0.681500 -0.036384 0.0
-0.667340 -0.045004 0.0
-0.652059 -0.053088 0.0
-0.635743 -0.060716 0.0
-0.618446 -0.067992 0.0
-0.600183 -0.075041 0.0
-0.580923 -0.081973 0.0
-0.560600 -0.088862 0.0
-0.539146 -0.095722 0.0
-0.516514 -0.102527 0.0
-0.492683 -0.109261 0.0
-0.467638 -0.115933 0.0
-0.441330 -0.122570 0.0
-0.413730 -0.129077 0.0
-0.384910 -0.135316 0.0
-0.354971 -0.141338 0.0
-0.323916 -0.147273 0.0
-0.291727 -0.153035 0.0
-0.258450 -0.158609 0.0
-0.224135 -0.164109 0.0
-0.188741 -0.169819 0.0
-0.152231 -0.175458 0.0
-0.114551 -0.181242 0.0
-0.075469 -0.187211 0.0
-0.034667 -0.193098 0.0
0.007702 -0.198449 0.0
0.050937 -0.203300 0.0
0.094800 -0.207883 0.0
0.139213 -0.212179 0.0
0.184028 -0.215305 0.0
0.229661 -0.216576 0.0
0.276084 -0.216900 0.0
0.322636 -0.216204 0.0
0.368813 -0.214279 0.0
0.414394 -0.210834 0.0
0.459195 -0.206160 0.0
0.502870 -0.200456 0.0
0.545086 -0.193868 0.0
0.585622 -0.186495 0.0
0.624349 -0.178561 0.0
0.661168 -0.170320 0.0
0.696024 -0.162011 0.0
0.728922 -0.153854 0.0
0.759931 -0.146066 0.0
0.789170 -0.138856 0.0
0.816795 -0.132402 0.0
0.843001 -0.126852 0.0
0.868018 -0.122312 0.0
0.892105 -0.118853 0.0
0.915546 -0.116509 0.0
0.938638 -0.115280 0.0
0.961681 -0.115128 0.0
0.984969 -0.115979 0.0
1.008782 -0.117723 0.0
1.033373 -0.120217 0.0
1.058961 -0.123285 0.0
1.085719 -0.126725 0.0
1.113771 -0.130316 0.0
1.143179 -0.133820 0.0
1.173942 -0.136997 0.0
1.205991 -0.139608 0.0
1.239185 -0.141428 0.0
1.273316 -0.142257 0.0
1.308108 -0.141926 0.0
1.343222 -0.140308 0.0
1.378270 -0.137324 0.0
1.412822 -0.132949 0.0
1.446427 -0.127215 0.0
1.478630 -0.120210 0.0
1.508997 -0.112074 0.0
1.537139 -0.102993 0.0
1.562733 -0.093186 0.0
1.585541 -0.082893 0.0
1.605425 -0.072362 0.0
1.622341 -0.061833 0.0
1.636342 -0.051526 0.0
1.647557 -0.041638 0.0
1.656178 -0.032328 0.0
1.662442 -0.023724 0.0
1.666612 -0.015920 0.0
1.668956 -0.008975 0.0
1.669744 -0.002951 0.0
1.669257 0.002007 0.0
1.667776 0.005931 0.0
1.665565 0.008868 0.0
1.662888 0.010879 0.0
1.659999 0.012037 0.0
1.657134 0.012437 0.0
1.654502 0.012191 0.0
1.652271 0.011431 0.0
1.650550 0.010310 0.0
1.649361 0.009002 0.0
1.648601 0.007716 0.0
1.647990 0.006709 0.0
1.646896 0.006509 0.0
1.000116 0.001249 0.0
1.000554 0.003649 0.0
1.001346 0.005838 0.0
1.002377 0.007781 0.0
1.003542 0.009492 0.0
1.004762 0.011007 0.0
1.005981 0.012362 0.0
1.007166 0.013589 0.0
1.008296 0.014712 0.0
1.009358 0.015750 0.0
1.010347 0.016721 0.0
1.011261 0.017637 0.0
1.012100 0.018511 0.0
1.012865 0.019354 0.0
1.013557 0.020176 0.0
1.014179 0.020988 0.0
1.014733 0.021801 0.0
1.015221 0.022630 0.0
1.015645 0.023493 0.0
1.016007 0.024408 0.0
1.016307 0.025398 0.0
1.016546 0.026486 0.0
1.016727 0.027701 0.0
1.016854 0.029072 0.0
1.016932 0.030635 0.0
1.016976 0.032433 0.0
1.017007 0.034515 0.0
1.017062 0.036947 0.0
1.017200 0.039812 0.0
1.017514 0.043221 0.0
1.018146 0.047323 0.0
1.019316 0.052329 0.0
1.021355 0.058537 0.0
1.024756 0.066388 0.0
1.030250 0.076548 0.0
1.038904 0.090068 0.0
1.052243 0.108658 0.0
1.072373 0.135230 0.0
1.102013 0.174953 0.0
1.144136 0.237457 0.0
1.200206 0.341691 0.0
1.262921 0.527625 0.0
1.299115 0.874235 0.0
0.652057 1.816356 0.0
-1.874886 -0.714407 0.0
-3.718089 0.000000 0.0
-3.675133 0.000000 0.0
-3.651545 0.000000 0.0
-3.616046 0.000000 0.0
-3.544220 0.000000 0.0
-1.747789 0.004196 0.0
-0.089168 0.067864 0.0
-0.237724 0.178094 0.0
-0.343914 0.261569 0.0
-0.426920 0.322625 0.0
-0.491101 0.362226 0.0
-0.544745 0.386378 0.0
-0.609476 0.398418 0.0
-0.718543 0.377418 0.0
-0.821427 0.204005 0.0
-0.796305 -0.029344 0.0
-0.753493 0.077342 0.0
-0.808211 0.143403 0.0
-0.874300 0.105662 0.0
-0.872896 -0.029914 0.0
-0.768712 -0.165006 0.0
-0.642347 -0.121651 0.0
-0.567612 -0.036164 0.0
-0.529339 0.037677 0.0
-0.510747 0.104404 0.0
-0.510367 0.164134 0.0
-0.527126 0.209542 0.0
-0.555863 0.235213 0.0
-0.589506 0.240155 0.0
-0.621416 0.226903 0.0
-0.646523 0.200047 0.0
-0.661670 0.165068 0.0
-0.665687 0.127603 0.0
-0.659265 0.092634 0.0
-0.644521 0.063872 0.0
-0.624354 0.043623 0.0
-0.601574 0.032578 0.0
-0.578164 0.030046 0.0
-0.555755 0.034513 0.0
-0.536573 0.043982 0.0
-0.521843 0.054921 0.0
-0.511204 0.065652 0.0
-0.504102 0.075017 0.0
-0.499922 0.082285 0.0
-0.498041 0.087066 0.0
-0.497864 0.089236 0.0
-0.498836 0.088865 0.0
-0.500455 0.086146 0.0
-0.502271 0.081344 0.0
-0.503888 0.074753 0.0
-0.504961 0.066666 0.0
-0.505194 0.057349 0.0
-0.504332 0.047024 0.0
-0.502155 0.035856 0.0
-0.498463 0.023923 0.0
-0.493034 0.011147 0.0
-0.485366 -0.002886 0.0
-0.475820 -0.016583 0.0
-0.465054 -0.028537 0.0
-0.452967 -0.039692 0.0
-0.439664 -0.050099 0.0
-0.425334 -0.059778 0.0
-0.410121 -0.068809 0.0
-0.394123 -0.077309 0.0
-0.377390 -0.085428 0.0
-0.359913 -0.093346 0.0
-0.341616 -0.101227 0.0
-0.322379 -0.109167 0.0
-0.302082 -0.117168 0.0
-0.280644 -0.125151 0.0
-0.258036 -0.133075 0.0
-0.234252 -0.140949 0.0
-0.209232 -0.148881 0.0
-0.182971 -0.156628 0.0
-0.155618 -0.163940 0.0
-0.127325 -0.170945 0.0
-0.098084 -0.177961 0.0
-0.067857 -0.184763 0.0
-0.036609 -0.191405 0.0
-0.004066 -0.198170 0.0
0.029511 -0.204729 0.0
0.063726 -0.211273 0.0
0.098762 -0.218142 0.0
0.134721 -0.225352 0.0
0.171602 -0.232639 0.0
0.209679 -0.239354 0.0
0.249400 -0.245351 0.0
0.290707 -0.251003 0.0
0.333203 -0.255969 0.0
0.376646 -0.259772 0.0
0.420936 -0.262033 0.0
0.465866 -0.262796 0.0
0.511019 -0.262013 0.0
0.555965 -0.259593 0.0
0.600349 -0.255484 0.0
0.643853 -0.249815 0.0
0.686146 -0.242769 0.0
0.726922 -0.234548 0.0
0.765944 -0.225372 0.0
0.803041 -0.215508 0.0
0.838096 -0.205248 0.0
0.871045 -0.194888 0.0
0.901885 -0.184715 0.0
0.930671 -0.175002 0.0
0.957515 -0.166003 0.0
0.982576 -0.157941 0.0
1.006061 -0.151004 0.0
1.028218 -0.145334 0.0
1.049333 -0.141032 0.0
1.069715 -0.138153 0.0
1.089694 -0.136707 0.0
1.109606 -0.136656 0.0
1.129784 -0.137918 0.0
1.150548 -0.140362 0.0
1.172194 -0.143816 0.0
1.194986 -0.148065 0.0
1.219143 -0.152861 0.0
1.244837 -0.157925 0.0
1.272178 -0.162961 0.0
1.301218 -0.167659 0.0
1.331937 -0.171713 0.0
1.364249 -0.174828 0.0
1.397994 -0.176733 0.0
1.432943 -0.177191 0.0
1.468797 -0.176011 0.0
1.505187 -0.173059 0.0
1.541685 -0.168265 0.0
1.577809 -0.161629 0.0
1.613038 -0.153228 0.0
1.646824 -0.143210 0.0
1.678624 -0.131798 0.0
1.707918 -0.119270 0.0
1.734252 -0.105952 0.0
1.757260 -0.092195 0.0
1.776702 -0.078358 0.0
1.792477 -0.064778 0.0
1.804636 -0.051760 0.0
1.813366 -0.039557 0.0
1.818970 -0.028363 0.0
1.821832 -0.018312 0.0
1.822381 -0.009476 0.0
1.821074 -0.001932 0.0
1.818308 0.004240 0.0
1.814400 0.009087 0.0
1.809666 0.012656 0.0
1.804418 0.015016 0.0
1.798948 0.016258 0.0
1.793531 0.016498 0.0
1.788412 0.015881 0.0
1.783799 0.014584 0.0
1.779852 0.012825 0.0
1.776658 0.010869 0.0
1.774204 0.009062 0.0
1.772342 0.007836 0.0
1.770611 0.008207 0.0