# vtk DataFile Version 3.0
Vector Field
ASCII
DATASET RECTILINEAR_GRID
DIMENSIONS 200 50 1
X_COORDINATES 200 double
0.050000 0.150000 0.250000 0.350000 0.450000 0.550000 0.650000 0.750000 0.850000 0.950000 1.050000 1.150000 1.250000 1.350000 1.450000 1.550000 1.650000 1.750000 1.850000 1.950000 2.050000 2.150000 2.250000 2.350000 2.450000 2.550000 2.650000 2.750000 2.850000 2.950000 3.050000 3.150000 3.250000 3.350000 3.450000 3.550000 3.650000 3.750000 3.850000 3.950000 4.050000 4.150000 4.250000 4.350000 4.450000 4.550000 4.650000 4.750000 4.850000 4.950000 5.050000 5.150000 5.250000 5.350000 5.450000 5.550000 5.650000 5.750000 5.850000 5.950000 6.050000 6.150000 6.250000 6.350000 6.450000 6.550000 6.650000 6.750000 6.850000 6.950000 7.050000 7.150000 7.250000 7.350000 7.450000 7.550000 7.650000 7.750000 7.850000 7.950000 8.050000 8.150000 8.250000 8.350000 8.450000 8.550000 8.650000 8.750000 8.850000 8.950000 9.050000 9.150000 9.250000 9.350000 9.450000 9.550000 9.650000 9.750000 9.850000 9.950000 10.050000 10.150000 10.250000 10.350000 10.450000 10.550000 10.650000 10.750000 10.850000 10.950000 11.050000 11.150000 11.250000 11.350000 11.450000 11.550000 11.650000 11.750000 11.850000 11.950000 12.050000 12.150000 12.250000 12.350000 12.450000 12.550000 12.650000 12.750000 12.850000 12.950000 13.050000 13.150000 13.250000 13.350000 13.450000 13.550000 13.650000 13.750000 13.850000 13.950000 14.050000 14.150000 14.250000 14.350000 14.450000 14.550000 14.650000 14.750000 14.850000 14.950000 15.050000 15.150000 15.250000 15.350000 15.450000 15.550000 15.650000 15.750000 15.850000 15.950000 16.050000 16.150000 16.250000 16.350000 16.450000 16.550000 16.650000 16.750000 16.850000 16.950000 17.050000 17.150000 17.250000 17.350000 17.450000 17.550000 17.650000 17.750000 17.850000 17.950000 18.050000 18.150000 18.250000 18.350000 18.450000 18.550000 18.650000 18.750000 18.850000 18.950000 19.050000 19.150000 19.250000 19.350000 19.450000 19.550000 19.650000 19.750000 19.850000 19.950000 
Y_COORDINATES 50 double
0.050000 0.150000 0.250000 0.350000 0.450000 0.550000 0.650000 0.750000 0.850000 0.950000 1.050000 1.150000 1.250000 1.350000 1.450000 1.550000 1.650000 1.750000 1.850000 1.950000 2.050000 2.150000 2.250000 2.350000 2.450000 2.550000 2.650000 2.750000 2.850000 2.950000 3.050000 3.150000 3.250000 3.350000 3.450000 3.550000 3.650000 3.750000 3.850000 3.950000 4.050000 4.150000 4.250000 4.350000 4.450000 4.550000 4.650000 4.750000 4.850000 4.950000 
Z_COORDINATES 1 double
0.0
POINT_DATA 10000
VECTORS Vektorfeld double
0.996420 0.003580 0.0
0.986643 0.006196 0.0
0.973146 0.007301 0.0
0.958014 0.007830 0.0
0.942078 0.008106 0.0
0.925719 0.008254 0.0
0.909131 0.008333 0.0
0.892428 0.008371 0.0
0.875674 0.008382 0.0
0.858915 0.008377 0.0
0.842176 0.008361 0.0
0.825479 0.008336 0.0
0.808837 0.008306 0.0
0.792259 0.008271 0.0
0.775754 0.008234 0.0
0.759324 0.008196 0.0
0.742969 0.008159 0.0
0.726686 0.008124 0.0
0.710467 0.008095 0.0
0.694297 0.008074 0.0
0.678160 0.008064 0.0
0.662029 0.008067 0.0
0.645872 0.008089 0.0
0.629648 0.008135 0.0
0.613304 0.008209 0.0
0.596774 0.008321 0.0
0.579972 0.008481 0.0
0.562786 0.008705 0.0
0.545068 0.009012 0.0
0.526625 0.009431 0.0
0.507195 0.009999 0.0
0.486427 0.010769 0.0
0.463845 0.011813 0.0
0.438803 0.013229 0.0
0.410433 0.015142 0.0
0.377579 0.017712 0.0
0.338745 0.021123 0.0
0.292076 0.025546 0.0
0.235477 0.031053 0.0
0.167017 0.037407 0.0
0.085956 0.043654 0.0
-0.004885 0.047187 0.0
-0.078404 0.026332 0.0
-0.052368 -0.052368 0.0
0.500000 0.052329 0.0
1.000000 0.000000 0.0
1.000000 0.000000 0.0
1.000000 0.000000 0.0
1.000000 0.000000 0.0
1.000000 0.000000 0.0
0.500000 -0.127331 0.0
-0.126212 0.126212 0.0
-0.349941 0.097517 0.0
-0.524391 0.076932 0.0
-0.669119 0.067797 0.0
-0.802342 0.065426 0.0
-0.934311 0.066543 0.0
-1.070098 0.069244 0.0
-1.211662 0.072320 0.0
-1.358802 0.074820 0.0
-1.509526 0.075903 0.0
-1.660301 0.074872 0.0
-1.806352 0.071178 0.0
-1.941917 0.064387 0.0
-2.060442 0.054138 0.0
-2.154773 0.040193 0.0
-2.217561 0.022594 0.0
-2.241932 0.001777 0.0
-2.222011 -0.021698 0.0
-2.156004 -0.044309 0.0
-2.048203 -0.063491 0.0
-1.906598 -0.078114 0.0
-1.740182 -0.088302 0.0
-1.556970 -0.094910 0.0
-1.362985 -0.099074 0.0
-1.161982 -0.101929 0.0
-0.955752 -0.104302 0.0
-0.744996 -0.106454 0.0
-0.530776 -0.107765 0.0
-0.316885 -0.106126 0.0
-0.113806 -0.096953 0.0
0.062521 -0.079374 0.0
0.207873 -0.065979 0.0
0.322783 -0.048932 0.0
0.401092 -0.029377 0.0
0.441057 -0.010588 0.0
0.447585 0.004060 0.0
0.428241 0.015284 0.0
0.390189 0.022768 0.0
0.341330 0.026091 0.0
0.289079 0.026160 0.0
0.238105 0.024814 0.0
0.190280 0.023012 0.0
0.147425 0.019843 0.0
0.113272 0.014310 0.0
0.091312 0.007649 0.0
0.081067 0.002596 0.0
0.078226 0.000245 0.0
0.078945 -0.000964 0.0
0.083005 -0.003095 0.0
0.092410 -0.006310 0.0
0.107113 -0.008393 0.0
0.123036 -0.007530 0.0
0.134449 -0.003884 0.0
0.137041 0.001292 0.0
0.129278 0.006472 0.0
0.112348 0.010459 0.0
0.089484 0.012405 0.0
0.065034 0.012045 0.0
0.043464 0.009526 0.0
0.028795 0.005142 0.0
0.024179 -0.000527 0.0
0.031802 -0.007096 0.0
0.052838 -0.013939 0.0
0.086781 -0.020005 0.0
0.131098 -0.024312 0.0
0.181653 -0.026244 0.0
0.233603 -0.025706 0.0
0.282399 -0.023091 0.0
0.324609 -0.019119 0.0
0.358347 -0.014618 0.0
0.383282 -0.010317 0.0
0.400309 -0.006710 0.0
0.411037 -0.004018 0.0
0.417278 -0.002222 0.0
0.420657 -0.001158 0.0
0.422427 -0.000612 0.0
0.423430 -0.000391 0.0
0.424172 -0.000351 0.0
0.424923 -0.000400 0.0
0.425806 -0.000484 0.0
0.426864 -0.000575 0.0
0.428102 -0.000662 0.0
0.429504 -0.000740 0.0
0.431048 -0.000805 0.0
0.432713 -0.000859 0.0
0.434474 -0.000902 0.0
0.436309 -0.000934 0.0
0.438198 -0.000955 0.0
0.440121 -0.000968 0.0
0.442061 -0.000972 0.0
0.444000 -0.000968 0.0
0.445926 -0.000958 0.0
0.447826 -0.000941 0.0
0.449687 -0.000920 0.0
0.451502 -0.000895 0.0
0.453262 -0.000866 0.0
0.454961 -0.000834 0.0
0.456595 -0.000800 0.0
0.458159 -0.000764 0.0
0.459651 -0.000728 0.0
0.461071 -0.000691 0.0
0.462417 -0.000655 0.0
0.463690 -0.000618 0.0
0.464891 -0.000583 0.0
0.466021 -0.000548 0.0
0.467083 -0.000514 0.0
0.468078 -0.000482 0.0
0.469010 -0.000450 0.0
0.469881 -0.000421 0.0
0.470694 -0.000392 0.0
0.471452 -0.000365 0.0
0.472157 -0.000340 0.0
0.472813 -0.000316 0.0
0.473423 -0.000293 0.0
0.473988 -0.000272 0.0
0.474512 -0.000252 0.0
0.474997 -0.000233 0.0
0.475445 -0.000215 0.0
0.475860 -0.000199 0.0
0.476242 -0.000183 0.0
0.476594 -0.000169 0.0
0.476918 -0.000155 0.0
0.477215 -0.000142 0.0
0.477488 -0.000130 0.0
0.477737 -0.000119 0.0
0.477965 -0.000109 0.0
0.478173 -0.000099 0.0
0.478362 -0.000090 0.0
0.478533 -0.000081 0.0
0.478688 -0.000074 0.0
0.478828 -0.000066 0.0
0.478954 -0.000060 0.0
0.479068 -0.000054 0.0
0.479170 -0.000049 0.0
0.479263 -0.000044 0.0
0.479347 -0.000040 0.0
0.479425 -0.000037 0.0
0.479498 -0.000036 0.0
0.479569 -0.000035 0.0
0.479641 -0.000036 0.0
0.479716 -0.000039 0.0
0.479800 -0.000045 0.0
0.479899 -0.000054 0.0
0.480019 -0.000067 0.0
0.480172 -0.000085 0.0
0.480369 -0.000112 0.0
0.480628 -0.000148 0.0
0.480969 -0.000194 0.0
0.481409 -0.000246 0.0
1.001715 0.005446 0.0
1.005201 0.010621 0.0
1.008220 0.013355 0.0
1.010179 0.014950 0.0
1.011138 0.015963 0.0
1.011241 0.016653 0.0
1.010612 0.017151 0.0
1.009341 0.017527 0.0
1.007497 0.017823 0.0
1.005131 0.018063 0.0
1.002282 0.018263 0.0
0.998981 0.018432 0.0
0.995256 0.018578 0.0
0.991126 0.018706 0.0
0.986612 0.018820 0.0
0.981726 0.018926 0.0
0.976480 0.019030 0.0
0.970878 0.019138 0.0
0.964922 0.019258 0.0
0.958607 0.019396 0.0
0.951923 0.019564 0.0
0.944852 0.019770 0.0
0.937370 0.020026 0.0
0.929442 0.020349 0.0
0.921022 0.020758 0.0
0.912048 0.021276 0.0
0.902440 0.021937 0.0
0.892091 0.022786 0.0
0.880857 0.023883 0.0
0.868546 0.025314 0.0
0.854896 0.027194 0.0
0.839553 0.029686 0.0
0.822023 0.033009 0.0
0.801628 0.037469 0.0
0.777434 0.043466 0.0
0.748154 0.051520 0.0
0.712053 0.062249 0.0
0.666849 0.076292 0.0
0.609699 0.094057 0.0
0.537454 0.115108 0.0
0.447753 0.136715 0.0
0.342646 0.150074 0.0
0.223941 0.115669 0.0
0.080468 -0.024268 0.0
0.500000 0.024030 0.0
1.000000 0.000000 0.0
1.000000 0.000000 0.0
1.000000 0.000000 0.0
1.000000 0.000000 0.0
1.000000 0.000000 0.0
0.500000 -0.353359 0.0
-0.098563 0.350986 0.0
-0.295083 0.292992 0.0
-0.481932 0.242755 0.0
-0.651122 0.215892 0.0
-0.806348 0.205778 0.0
-0.954069 0.205881 0.0
-1.099591 0.211216 0.0
-1.245925 0.218245 0.0
-1.393890 0.223999 0.0
-1.542215 0.225773 0.0
-1.687813 0.221376 0.0
-1.826251 0.209163 0.0
-1.952094 0.187812 0.0
-2.058948 0.156092 0.0
-2.139372 0.112993 0.0
-2.185191 0.058401 0.0
-2.188767 -0.006083 0.0
-2.145770 -0.076756 0.0
-2.058350 -0.142679 0.0
-1.934350 -0.196922 0.0
-1.783930 -0.236707 0.0
-1.616919 -0.263136 0.0
-1.441051 -0.279157 0.0
-1.261559 -0.288304 0.0
-1.081220 -0.294041 0.0
-0.900788 -0.298852 0.0
-0.719829 -0.303619 0.0
-0.537616 -0.307034 0.0
-0.353702 -0.304663 0.0
-0.167096 -0.288101 0.0
0.018870 -0.250520 0.0
0.196742 -0.218057 0.0
0.364702 -0.179724 0.0
0.521471 -0.133662 0.0
0.657191 -0.081988 0.0
0.755372 -0.029249 0.0
0.804327 0.018982 0.0
0.805938 0.055510 0.0
0.768284 0.079862 0.0
0.698976 0.093949 0.0
0.606947 0.100027 0.0
0.504374 0.098196 0.0
0.406164 0.085723 0.0
0.326987 0.061760 0.0
0.275752 0.033393 0.0
0.250222 0.012627 0.0
0.239254 0.004023 0.0
0.233258 0.000535 0.0
0.230881 -0.006278 0.0
0.236171 -0.017823 0.0
0.250634 -0.026046 0.0
0.268846 -0.024012 0.0
0.282440 -0.012409 0.0
0.285333 0.004331 0.0
0.275576 0.020953 0.0
0.254937 0.033546 0.0
0.227490 0.039629 0.0
0.198199 0.038562 0.0
0.171937 0.030841 0.0
0.153025 0.017409 0.0
0.145033 -0.000186 0.0
0.150608 -0.020636 0.0
0.171664 -0.042491 0.0
0.208827 -0.062560 0.0
0.260418 -0.077664 0.0
0.322631 -0.085661 0.0
0.390389 -0.085997 0.0
0.458476 -0.079681 0.0
0.522511 -0.068774 0.0
0.579492 -0.055684 0.0
0.627854 -0.042549 0.0
0.667225 -0.030875 0.0
0.698086 -0.021443 0.0
0.721464 -0.014416 0.0
0.738668 -0.009547 0.0
0.751072 -0.006396 0.0
0.759957 -0.004495 0.0
0.766407 -0.003440 0.0
0.771271 -0.002927 0.0
0.775176 -0.002744 0.0
0.778557 -0.002754 0.0
0.781705 -0.002869 0.0
0.784804 -0.003034 0.0
0.787965 -0.003216 0.0
0.791244 -0.003392 0.0
0.794665 -0.003551 0.0
0.798229 -0.003684 0.0
0.801923 -0.003787 0.0
0.805724 -0.003860 0.0
0.809605 -0.003901 0.0
0.813540 -0.003913 0.0
0.817499 -0.003898 0.0
0.821457 -0.003859 0.0
0.825390 -0.003797 0.0
0.829276 -0.003718 0.0
0.833095 -0.003622 0.0
0.836831 -0.003513 0.0
0.840470 -0.003393 0.0
0.844000 -0.003266 0.0
0.847413 -0.003132 0.0
0.850701 -0.002995 0.0
0.853859 -0.002855 0.0
0.856884 -0.002715 0.0
0.859774 -0.002576 0.0
0.862528 -0.002439 0.0
0.865148 -0.002304 0.0
0.867635 -0.002174 0.0
0.869991 -0.002047 0.0
0.872221 -0.001925 0.0
0.874327 -0.001807 0.0
0.876314 -0.001695 0.0
0.878187 -0.001588 0.0
0.879949 -0.001486 0.0
0.881606 -0.001389 0.0
0.883163 -0.001298 0.0
0.884624 -0.001211 0.0
0.885994 -0.001129 0.0
0.887278 -0.001052 0.0
0.888480 -0.000979 0.0
0.889604 -0.000910 0.0
0.890656 -0.000845 0.0
0.891638 -0.000784 0.0
0.892555 -0.000727 0.0
0.893410 -0.000673 0.0
0.894207 -0.000623 0.0
0.894950 -0.000575 0.0
0.895641 -0.000531 0.0
0.896283 -0.000489 0.0
0.896879 -0.000450 0.0
0.897433 -0.000413 0.0
0.897946 -0.000379 0.0
0.898420 -0.000348 0.0
0.898860 -0.000319 0.0
0.899265 -0.000292 0.0
0.899639 -0.000268 0.0
0.899985 -0.000246 0.0
0.900302 -0.000227 0.0
0.900595 -0.000212 0.0
0.900865 -0.000200 0.0
0.901114 -0.000192 0.0
0.901345 -0.000190 0.0
0.901559 -0.000193 0.0
0.901761 -0.000205 0.0
0.901952 -0.000227 0.0
0.902136 -0.000262 0.0
0.902320 -0.000316 0.0
0.902510 -0.000394 0.0
0.902731 -0.000509 0.0
0.903000 -0.000640 0.0
1.000669 0.003061 0.0
1.002531 0.007659 0.0
1.004988 0.010842 0.0
1.007423 0.013068 0.0
1.009625 0.014685 0.0
1.011540 0.015913 0.0
1.013173 0.016888 0.0
1.014539 0.017695 0.0
1.015652 0.018386 0.0
1.016525 0.018994 0.0
1.017163 0.019543 0.0
1.017571 0.020045 0.0
1.017752 0.020510 0.0
1.017706 0.020948 0.0
1.017432 0.021366 0.0
1.016928 0.021770 0.0
1.016188 0.022172 0.0
1.015207 0.022579 0.0
1.013976 0.023004 0.0
1.012483 0.023458 0.0
1.010711 0.023957 0.0
1.008642 0.024516 0.0
1.006251 0.025154 0.0
1.003506 0.025895 0.0
1.000369 0.026769 0.0
0.996794 0.027813 0.0
0.992721 0.029080 0.0
0.988075 0.030638 0.0
0.982760 0.032580 0.0
0.976650 0.035038 0.0
0.969579 0.038191 0.0
0.961318 0.042293 0.0
0.951553 0.047697 0.0
0.939834 0.054894 0.0
0.925514 0.064556 0.0
0.907634 0.077589 0.0
0.884759 0.095156 0.0
0.854707 0.118641 0.0
0.814142 0.149424 0.0
0.757973 0.188156 0.0
0.678525 0.232815 0.0
0.564116 0.273489 0.0
0.394628 0.280447 0.0
0.146427 0.202628 0.0
0.500000 -0.203069 0.0
1.000000 0.000000 0.0
1.000000 0.000000 0.0
1.000000 0.000000 0.0
1.000000 0.000000 0.0
1.000000 0.000000 0.0
0.500000 -0.497161 0.0
-0.045488 0.495037 0.0
-0.154383 0.454358 0.0
-0.288539 0.402394 0.0
-0.432764 0.369669 0.0
-0.579944 0.354408 0.0
-0.726692 0.351718 0.0
-0.872063 0.356271 0.0
-1.016546 0.364008 0.0
-1.160697 0.370353 0.0
-1.303286 0.370334 0.0
-1.441038 0.360165 0.0
-1.569530 0.337304 0.0
-1.683825 0.299808 0.0
-1.778313 0.245437 0.0
-1.845871 0.171630 0.0
-1.877218 0.076931 0.0
-1.861616 -0.036640 0.0
-1.796313 -0.154499 0.0
-1.688962 -0.259708 0.0
-1.551869 -0.340986 0.0
-1.399432 -0.395501 0.0
-1.243149 -0.427636 0.0
-1.090224 -0.443450 0.0
-0.944498 -0.449231 0.0
-0.806839 -0.451113 0.0
-0.675810 -0.453240 0.0
-0.548862 -0.457138 0.0
-0.423270 -0.461321 0.0
-0.296775 -0.460785 0.0
-0.167660 -0.447698 0.0
-0.031180 -0.413370 0.0
0.110606 -0.374865 0.0
0.253041 -0.333312 0.0
0.398916 -0.282717 0.0
0.549337 -0.219073 0.0
0.700459 -0.141468 0.0
0.838640 -0.055938 0.0
0.940880 0.026580 0.0
0.994357 0.092970 0.0
1.005543 0.138963 0.0
0.986630 0.165956 0.0
0.948371 0.173098 0.0
0.898161 0.159242 0.0
0.837265 0.128314 0.0
0.762601 0.092739 0.0
0.675255 0.066158 0.0
0.586481 0.050235 0.0
0.513044 0.033755 0.0
0.469054 0.006868 0.0
0.455718 -0.022923 0.0
0.459470 -0.039159 0.0
0.467842 -0.037483 0.0
0.476135 -0.020824 0.0
0.480302 0.005686 0.0
0.473794 0.035863 0.0
0.452513 0.060556 0.0
0.418584 0.073994 0.0
0.377342 0.074729 0.0
0.335033 0.063244 0.0
0.298156 0.040794 0.0
0.272817 0.009759 0.0
0.262888 -0.026226 0.0
0.270062 -0.065130 0.0
0.295410 -0.102432 0.0
0.338323 -0.132296 0.0
0.395412 -0.150332 0.0
0.461143 -0.154815 0.0
0.529103 -0.146909 0.0
0.593480 -0.129957 0.0
0.650213 -0.108215 0.0
0.697425 -0.085591 0.0
0.735093 -0.064871 0.0
0.764334 -0.047549 0.0
0.786705 -0.034059 0.0
0.803752 -0.024154 0.0
0.816803 -0.017244 0.0
0.826915 -0.012644 0.0
0.834901 -0.009726 0.0
0.841374 -0.007977 0.0
0.846794 -0.007019 0.0
0.851512 -0.006579 0.0
0.855793 -0.006473 0.0
0.859834 -0.006571 0.0
0.863781 -0.006786 0.0
0.867735 -0.007055 0.0
0.871760 -0.007334 0.0
0.875889 -0.007595 0.0
0.880135 -0.007816 0.0
0.884493 -0.007989 0.0
0.888946 -0.008107 0.0
0.893473 -0.008168 0.0
0.898046 -0.008176 0.0
0.902640 -0.008133 0.0
0.907227 -0.008043 0.0
0.911782 -0.007913 0.0
0.916283 -0.007746 0.0
0.920708 -0.007549 0.0
0.925040 -0.007327 0.0
0.929263 -0.007085 0.0
0.933365 -0.006827 0.0
0.937335 -0.006558 0.0
0.941166 -0.006281 0.0
0.944852 -0.006000 0.0
0.948388 -0.005718 0.0
0.951773 -0.005437 0.0
0.955006 -0.005159 0.0
0.958087 -0.004887 0.0
0.961019 -0.004621 0.0
0.963802 -0.004363 0.0
0.966442 -0.004114 0.0
0.968941 -0.003875 0.0
0.971304 -0.003645 0.0
0.973537 -0.003424 0.0
0.975643 -0.003214 0.0
0.977628 -0.003014 0.0
0.979497 -0.002824 0.0
0.981255 -0.002644 0.0
0.982908 -0.002473 0.0
0.984460 -0.002312 0.0
0.985917 -0.002159 0.0
0.987283 -0.002014 0.0
0.988564 -0.001878 0.0
0.989763 -0.001750 0.0
0.990885 -0.001629 0.0
0.991935 -0.001514 0.0
0.992915 -0.001407 0.0
0.993831 -0.001306 0.0
0.994686 -0.001211 0.0
0.995482 -0.001121 0.0
0.996224 -0.001037 0.0
0.996914 -0.000959 0.0
0.997556 -0.000885 0.0
0.998151 -0.000816 0.0
0.998704 -0.000752 0.0
0.999215 -0.000693 0.0
0.999688 -0.000639 0.0
1.000126 -0.000590 0.0
1.000529 -0.000546 0.0
1.000900 -0.000507 0.0
1.001241 -0.000475 0.0
1.001554 -0.000450 0.0
1.001840 -0.000434 0.0
1.002102 -0.000427 0.0
1.002340 -0.000434 0.0
1.002556 -0.000456 0.0
1.002750 -0.000499 0.0
1.002920 -0.000571 0.0
1.003058 -0.000690 0.0
1.003156 -0.000827 0.0
1.000307 0.002085 0.0
1.001316 0.005764 0.0
1.002892 0.008703 0.0
1.004674 0.010988 0.0
1.006462 0.012775 0.0
1.008165 0.014204 0.0
1.009747 0.015382 0.0
1.011198 0.016384 0.0
1.012518 0.017263 0.0
1.013711 0.018053 0.0
1.014780 0.018778 0.0
1.015727 0.019454 0.0
1.016554 0.020093 0.0
1.017261 0.020704 0.0
1.017849 0.021296 0.0
1.018316 0.021878 0.0
1.018657 0.022462 0.0
1.018870 0.023058 0.0
1.018946 0.023680 0.0
1.018876 0.024345 0.0
1.018650 0.025068 0.0
1.018253 0.025871 0.0
1.017669 0.026775 0.0
1.016876 0.027811 0.0
1.015853 0.029013 0.0
1.014571 0.030426 0.0
1.013002 0.032110 0.0
1.011111 0.034145 0.0
1.008859 0.036640 0.0
1.006201 0.039745 0.0
1.003085 0.043670 0.0
0.999450 0.048710 0.0
0.995210 0.055285 0.0
0.990243 0.063991 0.0
0.984344 0.075679 0.0
0.977135 0.091555 0.0
0.967886 0.113314 0.0
0.955135 0.143287 0.0
0.935920 0.184559 0.0
0.904242 0.240867 0.0
0.848045 0.315749 0.0
0.743649 0.409360 0.0
0.548221 0.509492 0.0
0.210475 0.559530 0.0
0.500000 -0.560054 0.0
1.000000 0.000000 0.0
1.000000 0.000000 0.0
1.000000 0.000000 0.0
1.000000 0.000000 0.0
1.000000 0.000000 0.0
0.500000 -0.530933 0.0
0.010903 0.529621 0.0
0.011524 0.528049 0.0
-0.029951 0.504333 0.0
-0.109177 0.491180 0.0
-0.217569 0.488470 0.0
-0.345354 0.492189 0.0
-0.481986 0.497804 0.0
-0.621362 0.506334 0.0
-0.762087 0.512901 0.0
-0.900526 0.508813 0.0
-1.030636 0.489548 0.0
-1.147086 0.452864 0.0
-1.245902 0.397360 0.0
-1.323332 0.319803 0.0
-1.372981 0.214471 0.0
-1.383766 0.076223 0.0
-1.342411 -0.092889 0.0
-1.247471 -0.258492 0.0
-1.111797 -0.398739 0.0
-0.954503 -0.496342 0.0
-0.796072 -0.551013 0.0
-0.650354 -0.574125 0.0
-0.524478 -0.575761 0.0
-0.421165 -0.565959 0.0
-0.338686 -0.554522 0.0
-0.272056 -0.547490 0.0
-0.214899 -0.546994 0.0
-0.160766 -0.551190 0.0
-0.104123 -0.554052 0.0
-0.041000 -0.546669 0.0
0.031444 -0.523324 0.0
0.113485 -0.488737 0.0
0.203117 -0.451507 0.0
0.301001 -0.408281 0.0
0.410805 -0.353733 0.0
0.535925 -0.283050 0.0
0.677572 -0.194184 0.0
0.830769 -0.090610 0.0
0.973659 0.013792 0.0
1.079498 0.101116 0.0
1.144455 0.157760 0.0
1.178677 0.185330 0.0
1.189105 0.186792 0.0
1.180670 0.170094 0.0
1.159976 0.146317 0.0
1.137835 0.122066 0.0
1.125878 0.095059 0.0
1.128180 0.060066 0.0
1.133519 0.019210 0.0
1.123538 -0.011949 0.0
1.090938 -0.021285 0.0
1.038109 -0.010901 0.0
0.968809 0.013601 0.0
0.889592 0.046310 0.0
0.811526 0.079811 0.0
0.743765 0.105651 0.0
0.686230 0.120363 0.0
0.632419 0.123413 0.0
0.576249 0.113041 0.0
0.517828 0.086295 0.0
0.464759 0.042666 0.0
0.427923 -0.012367 0.0
0.412032 -0.070273 0.0
0.416488 -0.127093 0.0
0.441057 -0.175116 0.0
0.483660 -0.207203 0.0
0.539520 -0.219534 0.0
0.601857 -0.212489 0.0
0.663303 -0.190200 0.0
0.717609 -0.159012 0.0
0.761040 -0.125437 0.0
0.792800 -0.094454 0.0
0.814393 -0.068800 0.0
0.828426 -0.049213 0.0
0.837534 -0.035156 0.0
0.843784 -0.025543 0.0
0.848539 -0.019213 0.0
0.852582 -0.015186 0.0
0.856313 -0.012721 0.0
0.859921 -0.011303 0.0
0.863496 -0.010588 0.0
0.867095 -0.010343 0.0
0.870762 -0.010409 0.0
0.874536 -0.010669 0.0
0.878445 -0.011036 0.0
0.882509 -0.011442 0.0
0.886731 -0.011839 0.0
0.891105 -0.012192 0.0
0.895612 -0.012479 0.0
0.900228 -0.012687 0.0
0.904927 -0.012813 0.0
0.909679 -0.012856 0.0
0.914453 -0.012820 0.0
0.919221 -0.012711 0.0
0.923958 -0.012536 0.0
0.928638 -0.012303 0.0
0.933241 -0.012020 0.0
0.937747 -0.011695 0.0
0.942141 -0.011335 0.0
0.946410 -0.010948 0.0
0.950543 -0.010541 0.0
0.954531 -0.010118 0.0
0.958370 -0.009687 0.0
0.962054 -0.009251 0.0
0.965582 -0.008816 0.0
0.968952 -0.008383 0.0
0.972165 -0.007957 0.0
0.975223 -0.007540 0.0
0.978129 -0.007134 0.0
0.980886 -0.006740 0.0
0.983497 -0.006360 0.0
0.985968 -0.005994 0.0
0.988302 -0.005642 0.0
0.990506 -0.005306 0.0
0.992585 -0.004986 0.0
0.994543 -0.004680 0.0
0.996386 -0.004390 0.0
0.998119 -0.004114 0.0
0.999748 -0.003852 0.0
1.001278 -0.003605 0.0
1.002714 -0.003370 0.0
1.004060 -0.003149 0.0
1.005322 -0.002940 0.0
1.006504 -0.002742 0.0
1.007609 -0.002556 0.0
1.008643 -0.002380 0.0
1.009609 -0.002214 0.0
1.010511 -0.002058 0.0
1.011352 -0.001911 0.0
1.012136 -0.001773 0.0
1.012866 -0.001643 0.0
1.013545 -0.001521 0.0
1.014175 -0.001407 0.0
1.014761 -0.001299 0.0
1.015303 -0.001200 0.0
1.015804 -0.001107 0.0
1.016267 -0.001022 0.0
1.016694 -0.000943 0.0
1.017086 -0.000873 0.0
1.017446 -0.000810 0.0
1.017774 -0.000757 0.0
1.018073 -0.000713 0.0
1.018342 -0.000680 0.0
1.018584 -0.000661 0.0
1.018796 -0.000657 0.0
1.018978 -0.000673 0.0
1.019126 -0.000714 0.0
1.019227 -0.000786 0.0
1.019272 -0.000874 0.0
1.000171 0.001608 0.0
1.000788 0.004616 0.0
1.001843 0.007220 0.0
1.003140 0.009393 0.0
1.004532 0.011190 0.0
1.005930 0.012689 0.0
1.007283 0.013962 0.0
1.008568 0.015069 0.0
1.009771 0.016054 0.0
1.010889 0.016951 0.0
1.011918 0.017781 0.0
1.012860 0.018562 0.0
1.013714 0.019304 0.0
1.014483 0.020017 0.0
1.015167 0.020711 0.0
1.015766 0.021397 0.0
1.016280 0.022087 0.0
1.016708 0.022793 0.0
1.017047 0.023531 0.0
1.017292 0.024318 0.0
1.017438 0.025175 0.0
1.017478 0.026121 0.0
1.017403 0.027184 0.0
1.017205 0.028393 0.0
1.016875 0.029784 0.0
1.016406 0.031404 0.0
1.015793 0.033313 0.0
1.015039 0.035588 0.0
1.014154 0.038335 0.0
1.013165 0.041698 0.0
1.012122 0.045875 0.0
1.011113 0.051150 0.0
1.010271 0.057926 0.0
1.009799 0.066790 0.0
1.009971 0.078608 0.0
1.011127 0.094680 0.0
1.013583 0.116982 0.0
1.017377 0.148576 0.0
1.021574 0.194288 0.0
1.022531 0.261859 0.0
1.009634 0.363853 0.0
0.954880 0.520407 0.0
0.787964 0.760789 0.0
0.331969 1.101974 0.0
0.500000 -1.102618 0.0
1.000000 0.000000 0.0
1.000000 0.000000 0.0
1.000000 0.000000 0.0
1.000000 0.000000 0.0
1.000000 0.000000 0.0
0.500000 -0.460139 0.0
0.059162 0.459555 0.0
0.160008 0.496648 0.0
0.217413 0.519804 0.0
0.226044 0.546305 0.0
0.192541 0.575241 0.0
0.123147 0.602596 0.0
0.022638 0.624538 0.0
-0.100395 0.642009 0.0
-0.233321 0.650877 0.0
-0.364730 0.640684 0.0
-0.485184 0.608241 0.0
-0.587949 0.553386 0.0
-0.670118 0.477823 0.0
-0.731888 0.378540 0.0
-0.769395 0.242889 0.0
-0.764844 0.054039 0.0
-0.699412 -0.177493 0.0
-0.575954 -0.392286 0.0
-0.413130 -0.563443 0.0
-0.234089 -0.667974 0.0
-0.061163 -0.710738 0.0
0.088458 -0.709741 0.0
0.202640 -0.680201 0.0
0.276202 -0.638395 0.0
0.310397 -0.598761 0.0
0.311611 -0.571094 0.0
0.290486 -0.559421 0.0
0.259405 -0.561815 0.0
0.230046 -0.570712 0.0
0.211785 -0.574872 0.0
0.209960 -0.565740 0.0
0.224665 -0.543066 0.0
0.251990 -0.514135 0.0
0.289614 -0.481162 0.0
0.340137 -0.441178 0.0
0.408469 -0.389058 0.0
0.499448 -0.320801 0.0
0.616894 -0.234637 0.0
0.762867 -0.131044 0.0
0.925792 -0.022811 0.0
1.072392 0.070129 0.0
1.180170 0.130961 0.0
1.253506 0.157397 0.0
1.302676 0.158754 0.0
1.337774 0.143253 0.0
1.369528 0.115517 0.0
1.405947 0.077146 0.0
1.448091 0.033531 0.0
1.490534 -0.002038 0.0
1.525831 -0.016017 0.0
1.546039 -0.004824 0.0
1.544372 0.027133 0.0
1.517645 0.071594 0.0
1.466121 0.119058 0.0
1.391936 0.159315 0.0
1.298557 0.187287 0.0
1.191958 0.202860 0.0
1.080040 0.206645 0.0
0.969744 0.196274 0.0
0.864611 0.166616 0.0
0.766678 0.113347 0.0
0.682871 0.037596 0.0
0.625773 -0.047247 0.0
0.597386 -0.126188 0.0
0.591732 -0.194937 0.0
0.606830 -0.245084 0.0
0.639696 -0.270378 0.0
0.685041 -0.269327 0.0
0.735748 -0.245514 0.0
0.784224 -0.206481 0.0
0.824219 -0.161394 0.0
0.852341 -0.118378 0.0
0.868516 -0.082645 0.0
0.875191 -0.056076 0.0
0.875840 -0.038050 0.0
0.873650 -0.026709 0.0
0.870848 -0.020001 0.0
0.868656 -0.016248 0.0
0.867551 -0.014285 0.0
0.867588 -0.013384 0.0
0.868632 -0.013126 0.0
0.870501 -0.013273 0.0
0.873032 -0.013677 0.0
0.876096 -0.014238 0.0
0.879594 -0.014875 0.0
0.883449 -0.015522 0.0
0.887596 -0.016128 0.0
0.891978 -0.016658 0.0
0.896546 -0.017087 0.0
0.901251 -0.017402 0.0
0.906052 -0.017599 0.0
0.910910 -0.017680 0.0
0.915789 -0.017650 0.0
0.920657 -0.017518 0.0
0.925486 -0.017295 0.0
0.930251 -0.016990 0.0
0.934930 -0.016615 0.0
0.939504 -0.016181 0.0
0.943958 -0.015697 0.0
0.948279 -0.015175 0.0
0.952456 -0.014624 0.0
0.956483 -0.014051 0.0
0.960353 -0.013464 0.0
0.964064 -0.012870 0.0
0.967613 -0.012274 0.0
0.971001 -0.011683 0.0
0.974228 -0.011099 0.0
0.977297 -0.010526 0.0
0.980210 -0.009967 0.0
0.982973 -0.009425 0.0
0.985588 -0.008901 0.0
0.988061 -0.008396 0.0
0.990397 -0.007911 0.0
0.992601 -0.007446 0.0
0.994679 -0.007002 0.0
0.996636 -0.006579 0.0
0.998478 -0.006176 0.0
1.000210 -0.005793 0.0
1.001837 -0.005430 0.0
1.003365 -0.005085 0.0
1.004799 -0.004759 0.0
1.006143 -0.004451 0.0
1.007403 -0.004159 0.0
1.008583 -0.003884 0.0
1.009686 -0.003623 0.0
1.010718 -0.003378 0.0
1.011682 -0.003146 0.0
1.012582 -0.002928 0.0
1.013422 -0.002722 0.0
1.014204 -0.002528 0.0
1.014933 -0.002346 0.0
1.015610 -0.002174 0.0
1.016239 -0.002013 0.0
1.016822 -0.001862 0.0
1.017362 -0.001720 0.0
1.017861 -0.001588 0.0
1.018322 -0.001465 0.0
1.018745 -0.001351 0.0
1.019134 -0.001246 0.0
1.019489 -0.001151 0.0
1.019811 -0.001067 0.0
1.020103 -0.000993 0.0
1.020363 -0.000931 0.0
1.020594 -0.000882 0.0
1.020792 -0.000848 0.0
1.020957 -0.000830 0.0
1.021085 -0.000832 0.0
1.021167 -0.000852 0.0
1.021198 -0.000883 0.0
1.000110 0.001327 0.0
1.000522 0.003867 0.0
1.001268 0.006167 0.0
1.002237 0.008180 0.0
1.003332 0.009917 0.0
1.004479 0.011418 0.0
1.005629 0.012729 0.0
1.006752 0.013894 0.0
1.007829 0.014949 0.0
1.008847 0.015920 0.0
1.009801 0.016829 0.0
1.010687 0.017687 0.0
1.011503 0.018507 0.0
1.012249 0.019298 0.0
1.012927 0.020069 0.0
1.013536 0.020831 0.0
1.014077 0.021597 0.0
1.014551 0.022381 0.0
1.014956 0.023199 0.0
1.015291 0.024070 0.0
1.015553 0.025014 0.0
1.015741 0.026054 0.0
1.015852 0.027215 0.0
1.015886 0.028527 0.0
1.015843 0.030023 0.0
1.015731 0.031747 0.0
1.015564 0.033750 0.0
1.015368 0.036101 0.0
1.015192 0.038884 0.0
1.015112 0.042217 0.0
1.015254 0.046256 0.0
1.015816 0.051218 0.0
1.017103 0.057413 0.0
1.019582 0.065296 0.0
1.023956 0.075555 0.0
1.031264 0.089268 0.0
1.043015 0.108187 0.0
1.061313 0.135279 0.0
1.088907 0.175794 0.0
1.128836 0.239466 0.0
1.182672 0.345308 0.0
1.243191 0.533186 0.0
1.276663 0.881454 0.0
0.640012 1.819534 0.0
-1.844563 -0.717333 0.0
-3.656002 0.000000 0.0
-3.610657 0.000000 0.0
-3.585238 0.000000 0.0
-3.547497 0.000000 0.0
-3.471675 0.000000 0.0
-1.710197 -0.200339 0.0
0.101750 0.286826 0.0
0.281211 0.377253 0.0
0.408743 0.454263 0.0
0.486731 0.525228 0.0
0.524402 0.592149 0.0
0.525393 0.654092 0.0
0.491031 0.707913 0.0
0.424699 0.747998 0.0
0.334396 0.768118 0.0
0.230485 0.758764 0.0
0.123648 0.717453 0.0
0.024803 0.645783 0.0
-0.054513 0.546911 0.0
-0.105180 0.421890 0.0
-0.129316 0.261182 0.0
-0.111396 0.013275 0.0
-0.029240 -0.284317 0.0
0.106944 -0.545104 0.0
0.270463 -0.736970 0.0
0.441395 -0.844419 0.0
0.610774 -0.876597 0.0
0.768946 -0.851675 0.0
0.902947 -0.786451 0.0
0.997090 -0.699851 0.0
1.037023 -0.611434 0.0
1.017124 -0.539737 0.0
0.944482 -0.497012 0.0
0.836717 -0.485376 0.0
0.715786 -0.496861 0.0
0.602120 -0.516796 0.0
0.510144 -0.530016 0.0
0.444754 -0.528105 0.0
0.401598 -0.513264 0.0
0.373999 -0.492058 0.0
0.360001 -0.466807 0.0
0.362738 -0.434500 0.0
0.387396 -0.390995 0.0
0.439071 -0.333566 0.0
0.521814 -0.260831 0.0
0.638634 -0.172770 0.0
0.788320 -0.076198 0.0
0.949398 0.008432 0.0
1.088574 0.067414 0.0
1.194111 0.094030 0.0
1.275230 0.091759 0.0
1.342549 0.067937 0.0
1.400387 0.030469 0.0
1.450582 -0.012130 0.0
1.499439 -0.047677 0.0
1.556143 -0.062379 0.0
1.623566 -0.046094 0.0
1.690215 0.003421 0.0
1.737579 0.074670 0.0
1.755609 0.149477 0.0
1.742132 0.216558 0.0
1.697174 0.268381 0.0
1.623967 0.301572 0.0
1.528987 0.314832 0.0
1.420504 0.306865 0.0
1.306154 0.275508 0.0
1.190215 0.218327 0.0
1.072277 0.134360 0.0
0.957299 0.028065 0.0
0.866574 -0.082388 0.0
0.810594 -0.177103 0.0
0.781952 -0.249373 0.0
0.775933 -0.292935 0.0
0.788443 -0.304625 0.0
0.813952 -0.286433 0.0
0.845504 -0.245591 0.0
0.875914 -0.192689 0.0
0.899380 -0.138671 0.0
0.912827 -0.091975 0.0
0.916333 -0.056927 0.0
0.912368 -0.033883 0.0
0.904321 -0.020639 0.0
0.895191 -0.014139 0.0
0.886962 -0.011689 0.0
0.880621 -0.011399 0.0
0.876439 -0.012125 0.0
0.874279 -0.013270 0.0
0.873839 -0.014559 0.0
0.874790 -0.015873 0.0
0.876836 -0.017151 0.0
0.879727 -0.018350 0.0
0.883261 -0.019435 0.0
0.887279 -0.020379 0.0
0.891652 -0.021163 0.0
0.896282 -0.021778 0.0
0.901089 -0.022222 0.0
0.906008 -0.022499 0.0
0.910988 -0.022617 0.0
0.915986 -0.022589 0.0
0.920965 -0.022426 0.0
0.925894 -0.022145 0.0
0.930747 -0.021758 0.0
0.935502 -0.021281 0.0
0.940140 -0.020727 0.0
0.944647 -0.020111 0.0
0.949009 -0.019445 0.0
0.953219 -0.018741 0.0
0.957269 -0.018010 0.0
0.961154 -0.017260 0.0
0.964872 -0.016502 0.0
0.968423 -0.015742 0.0
0.971807 -0.014987 0.0
0.975026 -0.014241 0.0
0.978084 -0.013510 0.0
0.980983 -0.012797 0.0
0.983728 -0.012104 0.0
0.986325 -0.011434 0.0
0.988779 -0.010789 0.0
0.991094 -0.010169 0.0
0.993277 -0.009575 0.0
0.995334 -0.009008 0.0
0.997270 -0.008466 0.0
0.999091 -0.007951 0.0
1.000802 -0.007461 0.0
1.002409 -0.006996 0.0
1.003918 -0.006555 0.0
1.005333 -0.006138 0.0
1.006659 -0.005743 0.0
1.007902 -0.005369 0.0
1.009065 -0.005016 0.0
1.010153 -0.004683 0.0
1.011170 -0.004368 0.0
1.012120 -0.004071 0.0
1.013007 -0.003790 0.0
1.013833 -0.003526 0.0
1.014604 -0.003277 0.0
1.015320 -0.003042 0.0
1.015987 -0.002821 0.0
1.016605 -0.002613 0.0
1.017178 -0.002418 0.0
1.017708 -0.002234 0.0
1.018198 -0.002062 0.0
1.018649 -0.001901 0.0
1.019063 -0.001752 0.0
1.019442 -0.001613 0.0
1.019787 -0.001485 0.0
1.020099 -0.001368 0.0
1.020379 -0.001263 0.0
1.020628 -0.001170 0.0
1.020845 -0.001090 0.0
1.021029 -0.001023 0.0
1.021179 -0.000970 0.0
1.021292 -0.000931 0.0
1.021363 -0.000905 0.0
1.021388 -0.000885 0.0
1.000077 0.001141 0.0
1.000373 0.003345 0.0
1.000925 0.005391 0.0
1.001671 0.007240 0.0
1.002547 0.008887 0.0
1.003497 0.010351 0.0
1.004480 0.011663 0.0
1.005464 0.012853 0.0