# vtk DataFile Version 3.0
Scalar Field
ASCII
DATASET RECTILINEAR_GRID
DIMENSIONS 200 50 1
X_COORDINATES 200 double
0.050000 0.150000 0.250000 0.350000 0.450000 0.550000 0.650000 0.750000 0.850000 0.950000 1.050000 1.150000 1.250000 1.350000 1.450000 1.550000 1.650000 1.750000 1.850000 1.950000 2.050000 2.150000 2.250000 2.350000 2.450000 2.550000 2.650000 2.750000 2.850000 2.950000 3.050000 3.150000 3.250000 3.350000 3.450000 3.550000 3.650000 3.750000 3.850000 3.950000 4.050000 4.150000 4.250000 4.350000 4.450000 4.550000 4.650000 4.750000 4.850000 4.950000 5.050000 5.150000 5.250000 5.350000 5.450000 5.550000 5.650000 5.750000 5.850000 5.950000 6.050000 6.150000 6.250000 6.350000 6.450000 6.550000 6.650000 6.750000 6.850000 6.950000 7.050000 7.150000 7.250000 7.350000 7.450000 7.550000 7.650000 7.750000 7.850000 7.950000 8.050000 8.150000 8.250000 8.350000 8.450000 8.550000 8.650000 8.750000 8.850000 8.950000 9.050000 9.150000 9.250000 9.350000 9.450000 9.550000 9.650000 9.750000 9.850000 9.950000 10.050000 10.150000 10.250000 10.350000 10.450000 10.550000 10.650000 10.750000 10.850000 10.950000 11.050000 11.150000 11.250000 11.350000 11.450000 11.550000 11.650000 11.750000 11.850000 11.950000 12.050000 12.150000 12.250000 12.350000 12.450000 12.550000 12.650000 12.750000 12.850000 12.950000 13.050000 13.150000 13.250000 13.350000 13.450000 13.550000 13.650000 13.750000 13.850000 13.950000 14.050000 14.150000 14.250000 14.350000 14.450000 14.550000 14.650000 14.750000 14.850000 14.950000 15.050000 15.150000 15.250000 15.350000 15.450000 15.550000 15.650000 15.750000 15.850000 15.950000 16.050000 16.150000 16.250000 16.350000 16.450000 16.550000 16.650000 16.750000 16.850000 16.950000 17.050000 17.150000 17.250000 17.350000 17.450000 17.550000 17.650000 17.750000 17.850000 17.950000 18.050000 18.150000 18.250000 18.350000 18.450000 18.550000 18.650000 18.750000 18.850000 18.950000 19.050000 19.150000 19.250000 19.350000 19.450000 19.550000 19.650000 19.750000 19.850000 19.950000 
Y_COORDINATES 50 double
0.050000 0.150000 0.250000 0.350000 0.450000 0.550000 0.650000 0.750000 0.850000 0.950000 1.050000 1.150000 1.250000 1.350000 1.450000 1.550000 1.650000 1.750000 1.850000 1.950000 2.050000 2.150000 2.250000 2.350000 2.450000 2.550000 2.650000 2.750000 2.850000 2.950000 3.050000 3.150000 3.250000 3.350000 3.450000 3.550000 3.650000 3.750000 3.850000 3.950000 4.050000 4.150000 4.250000 4.350000 4.450000 4.550000 4.650000 4.750000 4.850000 4.950000 
Z_COORDINATES 1 double
0.0
POINT_DATA 10000
SCALARS Skalarfeld double 1
LOOKUP_TABLE default
9.953760
9.941346
9.934303
9.929660
9.926276
9.923647
9.921522
9.919761
9.918281
9.917030
9.915971
9.915082
9.914348
9.913758
9.913308
9.912997
9.912825
9.912797
9.912922
9.913209
9.913670
9.914324
9.915188
9.916287
9.917648
9.919305
9.921300
9.923679
9.926505
9.929851
9.933809
9.938490
9.944030
9.950588
9.958343
9.967472
9.978103
9.990229
10.003534
10.017153
10.029386
10.036382
10.038086
10.056080
10.056079
0.000000
0.000000
0.000000
0.000000
0.000000
-2.891677
-2.891676
-2.898496
-2.907597
-2.914883
-2.920801
-2.927695
-2.941040
-2.960759
-2.977182
-2.995148
-3.027903
-3.073858
-3.130632
-3.192276
-3.250638
-3.297124
-3.324406
-3.327783
-3.305945
-3.261001
-3.197728
-3.122668
-3.044160
-2.968413
-2.900356
-2.843278
-2.798903
-2.767640
-2.748880
-2.741300
-2.743117
-2.752316
-2.766826
-2.784665
-2.804040
-2.823422
-2.841577
-2.857571
-2.870751
-2.880710
-2.887232
-2.890245
-2.889776
-2.885905
-2.878742
-2.868409
-2.855035
-2.838760
-2.819741
-2.798169
-2.774274
-2.748339
-2.720703
-2.691764
-2.661973
-2.631822
-2.601833
-2.572534
-2.544441
-2.518043
-2.493778
-2.472025
-2.453085
-2.437174
-2.424421
-2.414854
-2.408409
-2.404923
-2.404145
-2.405741
-2.409308
-2.414380
-2.420449
-2.426981
-2.433428
-2.439252
-2.443941
-2.447031
-2.448124
-2.446904
-2.443155
-2.436768
-2.427737
-2.416164
-2.402242
-2.386251
-2.368536
-2.349497
-2.329569
-2.309202
-2.288844
-2.268931
-2.249867
-2.232019
-2.215699
-2.201157
-2.188582
-2.178110
-2.169801
-2.163640
-2.159533
-2.157315
-2.156752
-2.157551
-2.159367
-2.161817
-2.164488
-2.166953
-2.168789
-2.169598
-2.169023
-2.166761
-2.162587
-2.156385
-2.148126
-2.137873
-2.125782
-2.112101
-2.097143
-2.081270
-2.064883
-2.048406
-2.032107
-2.016513
-2.001967
-1.988776
-1.977200
-1.967446
-1.959668
-1.953963
-1.950374
-1.948894
-1.949468
-1.951995
-1.956338
-1.962340
-1.969844
-1.978559
-1.988291
-1.998810
-2.009880
-2.021287
-2.032836
-2.044359
-2.055716
-2.066796
-2.077519
-2.087841
-2.097790
9.939665
9.936004
9.931866
9.928331
9.925434
9.923050
9.921062
9.919386
9.917961
9.916746
9.915713
9.914842
9.914120
9.913537
9.913091
9.912779
9.912604
9.912569
9.912683
9.912954
9.913397
9.914025
9.914857
9.915916
9.917227
9.918820
9.920734
9.923012
9.925706
9.928883
9.932620
9.937013
9.942178
9.948249
9.955379
9.963722
9.973404
9.984457
9.996697
10.009525
10.021549
10.030698
10.042718
10.068603
10.068602
0.000000
0.000000
0.000000
0.000000
0.000000
-2.895386
-2.895386
-2.902085
-2.909978
-2.916009
-2.919816
-2.922533
-2.935079
-2.956562
-2.975622
-2.997985
-3.033873
-3.084776
-3.147528
-3.215291
-3.278889
-3.328786
-3.357010
-3.358609
-3.332495
-3.281504
-3.211601
-3.130176
-3.044960
-2.963692
-2.891681
-2.832193
-2.786773
-2.755591
-2.737782
-2.731762
-2.735505
-2.746780
-2.763338
-2.783058
-2.804058
-2.824758
-2.843915
-2.860616
-2.874250
-2.884460
-2.891086
-2.894108
-2.893596
-2.889659
-2.882426
-2.872024
-2.858577
-2.842213
-2.823077
-2.801343
-2.777231
-2.751014
-2.723030
-2.693675
-2.663407
-2.632734
-2.602192
-2.572329
-2.543682
-2.516759
-2.492020
-2.469861
-2.450598
-2.434458
-2.421578
-2.411994
-2.405639
-2.402349
-2.401864
-2.403838
-2.407853
-2.413426
-2.420032
-2.427117
-2.434114
-2.440465
-2.445641
-2.449157
-2.450599
-2.449641
-2.446055
-2.439732
-2.430669
-2.418971
-2.404843
-2.388573
-2.370519
-2.351094
-2.330751
-2.309955
-2.289168
-2.268838
-2.249384
-2.231184
-2.214564
-2.199780
-2.187011
-2.176420
-2.168069
-2.161945
-2.157951
-2.155915
-2.155601
-2.156704
-2.158870
-2.161701
-2.164772
-2.167639
-2.169862
-2.171027
-2.170769
-2.168762
-2.164758
-2.158658
-2.150420
-2.140106
-2.127881
-2.113992
-2.098763
-2.082571
-2.065827
-2.048951
-2.032337
-2.016418
-2.001562
-1.988090
-1.976272
-1.966320
-1.958391
-1.952582
-1.948936
-1.947445
-1.948049
-1.950643
-1.955086
-1.961201
-1.968767
-1.977640
-1.987580
-1.998308
-2.009572
-2.021155
-2.032856
-2.044503
-2.055953
-2.067089
-2.077821
-2.088055
-2.097557
9.932322
9.930972
9.928640
9.926184
9.923912
9.921900
9.920143
9.918615
9.917290
9.916143
9.915155
9.914314
9.913610
9.913036
9.912589
9.912270
9.912078
9.912020
9.912101
9.912330
9.912716
9.913274
9.914019
9.914967
9.916138
9.917557
9.919247
9.921239
9.923565
9.926259
9.929363
9.932916
9.936960
9.941535
9.946672
9.952385
9.958667
9.965487
9.972834
9.980901
9.990715
10.006311
10.039030
10.096962
10.096962
0.000000
0.000000
0.000000
0.000000
0.000000
-2.894632
-2.894632
-2.903804
-2.910096
-2.915320
-2.917676
-2.919677
-2.927399
-2.943260
-2.965793
-2.998745
-3.047660
-3.113448
-3.191680
-3.273634
-3.348165
-3.404150
-3.432672
-3.428579
-3.391458
-3.325846
-3.239137
-3.141126
-3.042582
-2.951331
-2.872607
-2.809347
-2.762647
-2.732186
-2.716603
-2.713838
-2.721426
-2.736746
-2.757230
-2.780518
-2.804570
-2.827725
-2.848729
-2.866715
-2.881151
-2.891782
-2.898553
-2.901543
-2.900902
-2.896798
-2.889391
-2.878818
-2.865197
-2.848634
-2.829250
-2.807190
-2.782650
-2.755890
-2.727238
-2.697095
-2.665931
-2.634280
-2.602711
-2.571807
-2.542142
-2.514262
-2.488662
-2.465772
-2.445931
-2.429388
-2.416295
-2.406697
-2.400527
-2.397611
-2.397677
-2.400357
-2.405204
-2.411707
-2.419305
-2.427412
-2.435426
-2.442752
-2.448825
-2.453128
-2.455214
-2.454732
-2.451440
-2.445225
-2.436088
-2.424147
-2.409622
-2.392827
-2.374136
-2.353984
-2.332866
-2.311274
-2.289694
-2.268600
-2.248433
-2.229591
-2.212420
-2.197207
-2.184064
-2.173259
-2.164837
-2.158779
-2.154988
-2.153286
-2.153423
-2.155088
-2.157904
-2.161447
-2.165265
-2.168882
-2.171830
-2.173658
-2.173967
-2.172414
-2.168751
-2.162836
-2.154626
-2.144189
-2.131695
-2.117412
-2.101684
-2.084913
-2.067536
-2.050005
-2.032760
-2.016233
-2.000814
-1.986840
-1.974592
-1.964292
-1.956100
-1.950116
-1.946382
-1.944883
-1.945557
-1.948292
-1.952940
-1.959316
-1.967209
-1.976399
-1.986620
-1.997648
-2.009268
-2.021171
-2.033142
-2.044999
-2.056589
-2.067781
-2.078447
-2.088408
-2.097478
9.927557
9.926925
9.925542
9.923855
9.922130
9.920491
9.918989
9.917637
9.916432
9.915369
9.914439
9.913635
9.912951
9.912386
9.911936
9.911601
9.911385
9.911291
9.911323
9.911488
9.911795
9.912253
9.912873
9.913665
9.914642
9.915816
9.917196
9.918791
9.920604
9.922629
9.924846
9.927214
9.929657
9.932051
9.934200
9.935813
9.936483
9.935697
9.932984
9.928437
9.924325
9.929110
9.963055
10.047903
10.047903
0.000000
0.000000
0.000000
0.000000
0.000000
-2.882569
-2.882569
-2.892925
-2.902572
-2.909487
-2.914457
-2.916891
-2.917924
-2.923774
-2.946120
-2.991811
-3.061176
-3.151472
-3.255012
-3.359527
-3.450609
-3.514931
-3.542537
-3.528221
-3.472719
-3.383097
-3.269640
-3.149007
-3.032745
-2.928889
-2.842225
-2.775001
-2.727588
-2.698961
-2.687091
-2.689291
-2.702520
-2.723648
-2.749689
-2.777969
-2.806245
-2.832757
-2.856247
-2.875919
-2.891363
-2.902469
-2.909334
-2.912180
-2.911273
-2.906860
-2.899147
-2.888288
-2.874390
-2.857532
-2.837794
-2.815283
-2.790153
-2.762644
-2.733076
-2.701850
-2.669456
-2.636462
-2.603483
-2.571149
-2.540087
-2.510890
-2.484106
-2.460206
-2.439571
-2.422463
-2.409071
-2.399448
-2.393527
-2.391122
-2.391941
-2.395586
-2.401576
-2.409357
-2.418324
-2.427843
-2.437267
-2.445950
-2.453276
-2.458680
-2.461673
-2.461866
-2.458989
-2.452930
-2.443695
-2.431413
-2.416334
-2.398819
-2.379250
-2.358070
-2.335872
-2.313170
-2.290484
-2.268314
-2.247137
-2.227381
-2.209415
-2.193534
-2.179956
-2.168866
-2.160339
-2.154365
-2.150847
-2.149601
-2.150365
-2.152806
-2.156520
-2.161054
-2.165913
-2.170584
-2.174549
-2.177316
-2.178440
-2.177548
-2.174362
-2.168714
-2.160554
-2.149951
-2.137091
-2.122265
-2.105849
-2.088282
-2.070040
-2.051614
-2.033487
-2.016118
-1.999920
-1.985254
-1.972416
-1.961639
-1.953088
-1.946865
-1.943010
-1.941505
-1.942279
-1.945213
-1.950149
-1.956890
-1.965210
-1.974862
-1.985577
-1.997086
-2.009104
-2.021427
-2.033779
-2.045933
-2.057725
-2.069012
-2.079648
-2.089455
-2.098466
9.923986
9.923629
9.922749
9.921568
9.920263
9.918948
9.917687
9.916511
9.915435
9.914464
9.913597
9.912836
9.912177
9.911620
9.911166
9.910815
9.910569
9.910431
9.910406
9.910498
9.910713
9.911056
9.911534
9.912151
9.912911
9.913815
9.914857
9.916024
9.917288
9.918602
9.919885
9.921006
9.921759
9.921829
9.920730
9.917731
9.911741
9.901157
9.883709
9.856440
9.816417
9.764146
9.714649
9.719436
9.719436
0.000000
0.000000
0.000000
0.000000
0.000000
-2.859553
-2.859553
-2.874354
-2.889674
-2.903375
-2.915326
-2.918946
-2.905500
-2.888459
-2.906690
-2.970087
-3.067161
-3.191373
-3.330691
-3.467266
-3.581525
-3.657228
-3.683314
-3.654334
-3.572507
-3.446737
-3.299193
-3.150107
-3.012712
-2.894710
-2.799802
-2.729099
-2.681981
-2.656567
-2.650054
-2.659020
-2.679728
-2.708422
-2.741604
-2.776223
-2.809789
-2.840431
-2.866900
-2.888510
-2.905023
-2.916525
-2.923318
-2.925815
-2.924432
-2.919518
-2.911337
-2.900062
-2.885785
-2.868548
-2.848380
-2.825329
-2.799482
-2.771063
-2.740377
-2.707824
-2.673917
-2.639267
-2.604545
-2.570441
-2.537642
-2.506806
-2.478540
-2.453376
-2.431745
-2.413902
-2.400123
-2.390456
-2.384828
-2.383045
-2.384788
-2.389625
-2.397030
-2.406398
-2.417070
-2.428356
-2.439550
-2.449944
-2.458856
-2.465660
-2.469811
-2.470878
-2.468569
-2.462734
-2.453383
-2.440671
-2.424875
-2.406385
-2.385659
-2.363224
-2.339664
-2.315557
-2.291472
-2.267956
-2.245521
-2.224628
-2.205674
-2.188988
-2.174823
-2.163360
-2.154687
-2.148803
-2.145609
-2.144917
-2.146450
-2.149851
-2.154686
-2.160461
-2.166634
-2.172637
-2.177898
-2.181867
-2.184046
-2.184012
-2.181448
-2.176158
-2.168079
-2.157286
-2.143981
-2.128488
-2.111223
-2.092672
-2.073362
-2.053835
-2.034618
-2.016210
-1.999057
-1.983542
-1.969983
-1.958624
-1.949635
-1.943122
-1.939121
-1.937608
-1.938505
-1.941683
-1.946969
-1.954153
-1.962990
-1.973213
-1.984532
-1.996646
-2.009253
-2.022066
-2.034861
-2.047395
-2.059470
-2.070936
-2.081653
-2.091475
-2.100616
9.921086
9.920857
9.920258
9.919404
9.918407
9.917353
9.916301
9.915287
9.914335
9.913454
9.912653
9.911935
9.911302
9.910755
9.910296
9.909926
9.909647
9.909463
9.909376
9.909389
9.909505
9.909727
9.910057
9.910494
9.911035
9.911670
9.912382
9.913139
9.913891
9.914555
9.915002
9.915028
9.914320
9.912391
9.908488
9.901429
9.889340
9.869170
9.835769
9.779965
9.684155
9.511429
9.178447
8.789895
3.347513
-3.845637
-3.673386
-3.645513
-3.613360
-3.512659
-3.067232
-2.835856
-2.855043
-2.876769
-2.901583
-2.929748
-2.942621
-2.897068
-2.820315
-2.831689
-2.928336
-3.060767
-3.228883
-3.416763
-3.597748
-3.743512
-3.834473
-3.858996
-3.810453
-3.690178
-3.515089
-3.323416
-3.140242
-2.979476
-2.847030
-2.744485
-2.671314
-2.625766
-2.605074
-2.605658
-2.623310
-2.653485
-2.691653
-2.733690
-2.776086
-2.816050
-2.851580
-2.881455
-2.905147
-2.922655
-2.934326
-2.940747
-2.942577
-2.940417
-2.934741
-2.925879
-2.914028
-2.899255
-2.881548
-2.860872
-2.837224
-2.810536
-2.781068
-2.749084
-2.714985
-2.679310
-2.642710
-2.605912
-2.569686
-2.534799
-2.501991
-2.471944
-2.445253
-2.422403
-2.403743
-2.389516
-2.379800
-2.374526
-2.373484
-2.376329
-2.382587
-2.391676
-2.402932
-2.415633
-2.429024
-2.442331
-2.454774
-2.465597
-2.474093
-2.479643
-2.481756
-2.480099
-2.474507
-2.464996
-2.451745
-2.435074
-2.415425
-2.393323
-2.369364
-2.344176
-2.318398
-2.292654
-2.267540
-2.243612
-2.221369
-2.201245
-2.183601
-2.168717
-2.156790
-2.147924
-2.142122
-2.139289
-2.139233
-2.141659
-2.146185
-2.152342
-2.159590
-2.167331
-2.174936
-2.181764
-2.187196
-2.190665
-2.191690
-2.189903
-2.185074
-2.177125
-2.166133
-2.152325
-2.136063
-2.117812
-2.098119
-2.077570
-2.056766
-2.036290
-2.016684
-1.998432
-1.981947
-1.967564
-1.955541
-1.946055
-1.939210
-1.935040
-1.933516
-1.934548
-1.937996
-1.943674
-1.951354
-1.960774
-1.971646
-1.983656
-1.996474
-2.009763
-2.023202
-2.036512
-2.049489
-2.061936
-2.073693
-2.084636
-2.094631
-2.103867
9.918613
9.918454
9.918024
9.917385
9.916608
9.915756
9.914876
9.914004
9.913162
9.912367
9.911628
9.910952
9.910343
9.909804
9.909338
9.908948
9.908634
9.908401
9.908248
9.908179
9.908194
9.908294
9.908476
9.908737
9.909066
9.909450
9.909861
9.910258
9.910575
9.910712
9.910511
9.909732
9.908001
9.904740
9.899034
9.889416
9.873466
9.847031
9.802564
9.725166
9.581707
9.285477
8.561592
6.046471
-2.094867
-3.845637
-3.673386
-3.645512
-3.613359
-3.512658
-3.298607
-3.045068
-2.981878
-2.967902
-2.966593
-2.971954
-2.956464
-2.858911
-2.714878
-2.713083
-2.877073
-3.040377
-3.262067
-3.515596
-3.757906
-3.943792
-4.052764
-4.075368
-4.001448
-3.819813
-3.578129
-3.332889
-3.112650
-2.929037
-2.783930
-2.675580
-2.601452
-2.558847
-2.544360
-2.553785
-2.582144
-2.623969
-2.673737
-2.726562
-2.778369
-2.825973
-2.867210
-2.900899
-2.926731
-2.945030
-2.956459
-2.962058
-2.962786
-2.959463
-2.952717
-2.942957
-2.930377
-2.915009
-2.896766
-2.875512
-2.851124
-2.823539
-2.792871
-2.759367
-2.723442
-2.685672
-2.646768
-2.607538
-2.568836
-2.531525
-2.496435
-2.464332
-2.435888
-2.411651
-2.392031
-2.377287
-2.367516
-2.362652
-2.362472
-2.366596
-2.374501
-2.385542
-2.398979
-2.414026
-2.429849
-2.445609
-2.460439
-2.473502
-2.483988
-2.491181
-2.494515
-2.493606
-2.488276
-2.478549
-2.464639
-2.446925
-2.425912
-2.402202
-2.376462
-2.349388
-2.321682
-2.294029
-2.267079
-2.241435
-2.217640
-2.196167
-2.177411
-2.161682
-2.149198
-2.140079
-2.134341
-2.131893
-2.132534
-2.135958
-2.141753
-2.149414
-2.158348
-2.167899
-2.177364
-2.186023
-2.193177
-2.198178
-2.200472
-2.199631
-2.195384
-2.187633
-2.176460
-2.162118
-2.145014
-2.125677
-2.104718
-2.082798
-2.060584
-2.038721
-2.017800
-1.998347
-1.980804
-1.965526
-1.952782
-1.942754
-1.935545
-1.931184
-1.929633
-1.930794
-1.934514
-1.940593
-1.948787
-1.958817
-1.970376
-1.983128
-1.996715
-2.010753
-2.024875
-2.038800
-2.052296
-2.065203
-2.077382
-2.088748
-2.099193
-2.108923
9.916439
9.916321
9.915997
9.915504
9.914885
9.914186
9.913444
9.912690
9.911944
9.911224
9.910540
9.909902
9.909314
9.908782
9.908307
9.907894
9.907544
9.907259
9.907040
9.906888
9.906802
9.906781
9.906820
9.906913
9.907047
9.907205
9.907356
9.907456
9.907437
9.907197
9.906581
9.905353
9.903149
9.899405
9.893224
9.883154
9.866765
9.839821
9.794538
9.715625
9.569855
9.274212
8.598000
6.781637
0.087291
-2.869242
-3.504187
-3.651788
-3.699056
-3.712230
-3.696002
-3.674743
-3.624013
-3.559513
-3.483872
-3.378578
-3.225206
-3.019202
-2.833187
-2.783043
-2.858965
-3.021623
-3.294051
-3.626104
-3.947637
-4.180704
-4.306786
-4.313866
-4.195463
-3.919771
-3.605670
-3.311261
-3.059178
-2.857263
-2.703770
-2.592813
-2.519823
-2.481770
-2.474926
-2.494916
-2.536094
-2.591791
-2.655308
-2.720997
-2.784091
-2.840774
-2.888667
-2.926573
-2.954430
-2.973025
-2.983624
-2.987714
-2.986690
-2.981674
-2.973474
-2.962568
-2.949138
-2.933138
-2.914367
-2.892555
-2.867447
-2.838887
-2.806888
-2.771661
-2.733628
-2.693411
-2.651802
-2.609707
-2.568095
-2.527942
-2.490190
-2.455704
-2.425238
-2.399412
-2.378686
-2.363350
-2.353518
-2.349126
-2.349934
-2.355529
-2.365330
-2.378612
-2.394529
-2.412253
-2.430827
-2.449398
-2.466963
-2.482627
-2.495430
-2.504531
-2.509269
-2.509203
-2.504137
-2.494117
-2.479407
-2.460457
-2.437856
-2.412293
-2.384517
-2.355302
-2.325421
-2.295622
-2.266611
-2.239042
-2.213504
-2.190511
-2.170493
-2.153792
-2.140653
-2.131216
-2.125509
-2.123446
-2.124826
-2.129325
-2.136506
-2.145824
-2.156633
-2.168210
-2.179774
-2.190518
-2.199649
-2.206427
-2.210212
-2.210508
-2.206991
-2.199539
-2.188239
-2.173376
-2.155408
-2.134934
-2.112646
-2.089283
-2.065587
-2.042270
-2.019978
-1.999278
-1.980639
-1.964436
-1.950945
-1.940352
-1.932755
-1.928178
-1.926574
-1.927833
-1.931790
-1.938233
-1.946903
-1.957508
-1.969725
-1.983209
-1.997576
-2.012378
-2.027152
-2.041666
-2.055744
-2.069212
-2.081979
-2.094005
-2.105334
-2.116641
9.914486
9.914395
9.914141
9.913747
9.913243
9.912660
9.912026
9.911366
9.910701
9.910044
9.909408
9.908802
9.908231
9.907702
9.907217
9.906779
9.906391
9.906053
9.905767
9.905532
9.905347
9.905209
9.905112
9.905049
9.905006
9.904966
9.904901
9.904770
9.904515
9.904050
9.903249
9.901923
9.899788
9.896407
9.891092
9.882733
9.869477
9.848103
9.812694
9.749255
9.625832
9.357303
8.665497
6.164608
-2.019690
-3.843733
-3.715692
-3.755250
-3.850012
-4.022011
-4.266843
-4.613529
-4.623348
-4.561050
-4.474921
-4.290374
-3.994578
-3.635766
-3.312030
-3.118892
-3.083261
-3.198435
-3.448387
-3.782075
-4.122564
-4.382615
-4.514356
-4.494458
-4.255362
-3.912692
-3.559730
-3.242855
-2.979264
-2.772170
-2.616770
-2.505837
-2.435077
-2.401961
-2.402134
-2.432677
-2.487811
-2.559133
-2.638048
-2.718391
-2.794733
-2.861999
-2.917571
-2.960079
-2.989783
-3.008065
-3.016935
-3.018551
-3.014859
-3.007378
-2.997138
-2.984696
-2.970202
-2.953497
-2.934220
-2.911923
-2.886179
-2.856684
-2.823333
-2.786276
-2.745927
-2.702958
-2.658250
-2.612833
-2.567817
-2.524329
-2.483449
-2.446168
-2.413345
-2.385677
-2.363677
-2.347666
-2.337769
-2.333918
-2.335855
-2.343137
-2.355104
-2.370955
-2.389561
-2.410198
-2.431961
-2.453692
-2.474377
-2.493069
-2.508555
-2.519855
-2.526186
-2.527046
-2.522225
-2.511806
-2.496125
-2.475723
-2.451291
-2.423621
-2.393556
-2.361956
-2.329668
-2.297504
-2.266231
-2.236551
-2.209099
-2.184430
-2.163012
-2.145219
-2.131326
-2.121492
-2.115765
-2.114066
-2.116190
-2.121803
-2.130442
-2.141523
-2.154346
-2.168118
-2.181977
-2.195022
-2.206357
-2.215140
-2.220637
-2.222268
-2.219653
-2.212641
-2.201321
-2.186012
-2.167232
-2.145657
-2.122065
-2.097282
-2.072132
-2.047393
-2.023767
-2.001859
-1.982165
-1.965072
-1.950863
-1.939718
-1.931733
-1.926919
-1.925220
-1.926516
-1.930631
-1.937341
-1.946377
-1.957435
-1.970191
-1.984302
-1.999385
-2.014649
-2.029970
-2.045087
-2.059757
-2.073822
-2.087240
-2.100111
-2.112713
-2.126628
9.912704
9.912630
9.912424
9.912101
9.911680
9.911183
9.910633
9.910049
9.909448
9.908844
9.908247
9.907666
9.907108
9.906578
9.906080
9.905615
9.905188
9.904797
9.904444
9.904128
9.903846
9.903596
9.903371
9.903164
9.902963
9.902753
9.902510
9.902206
9.901799
9.901233
9.900430
9.899283
9.897638
9.895271
9.891846
9.886830
9.879350
9.867879
9.848716
9.814991
9.750775
9.617574
9.320210
8.925441
3.452875
-3.843733
-3.715693
-3.755251
-3.850013
-4.022011
-4.877699
-5.488554
-5.213266
-5.286715
-5.427684
-5.359751
-5.044948
-4.569668
-4.076719
-3.694056
-3.491377
-3.484694
-3.647234
-3.915408
-4.203568
-4.420185
-4.494558
-4.384171
-4.101965
-3.766301
-3.437881
-3.146898
-2.902698
-2.705834
-2.553427
-2.442452
-2.372631
-2.343191
-2.345457
-2.379209
-2.441789
-2.526104
-2.622322
-2.719845
-2.810626
-2.890272
-2.954660
-3.002239
-3.033696
-3.051076
-3.057311
-3.055428
-3.048073
-3.037269
-3.024326
-3.009887
-2.994039
-2.976463
-2.956593
-2.933761
-2.907339
-2.876851
-2.842064
-2.803051
-2.760209
-2.714245
-2.666126
-2.617007
-2.568154
-2.520860
-2.476376
-2.435854
-2.400287
-2.370476
-2.347000
-2.330213
-2.320246
-2.317016
-2.320237
-2.329462
-2.343708
-2.361849
-2.383592
-2.407817
-2.433350
-2.458913
-2.483221
-2.504964
-2.523489
-2.537301
-2.545416
-2.547265
-2.542641
-2.531686
-2.514835
-2.492749
-2.466242
-2.436224
-2.403642
-2.369445
-2.334556
-2.299854
-2.266156
-2.234217
-2.204714
-2.178242
-2.155307
-2.136317
-2.121573
-2.111260
-2.105442
-2.104049
-2.106877
-2.113582
-2.123677
-2.136540
-2.151422
-2.167461
-2.183713
-2.199181
-2.212865
-2.223816
-2.231194
-2.234334
-2.232791
-2.226382
-2.215197
-2.199590
-2.180143
-2.157612
-2.132867
-2.106822
-2.080382
-2.054392
-2.029603
-2.006655
-1.986063
-1.968221
-1.953410
-1.941802
-1.933479
-1.928441
-1.926618
-1.927878
-1.932035
-1.938856
-1.948065
-1.959355
-1.972400
-1.986890
-2.002166
-2.017793
-2.033534
-2.049083
-2.064202
-2.078756
-2.092765
-2.106468
-2.120419
-2.137315
9.911059
9.910998
9.910826
9.910552
9.910192
9.909760
9.909274
9.908749
9.908199
9.907636
9.907069
9.906508
9.905957
9.905423
9.904908
9.904416
9.903948
9.903504
9.903085
9.902689
9.902315
9.901958
9.901613
9.901273
9.900929
9.900569
9.900179
9.899742
9.899237
9.898645
9.897947
9.897128
9.896188
9.895151
9.894082
9.893105
9.892420
9.892260
9.892807
9.893932
9.894260
9.890389
9.879919
9.882547
9.882546
0.000000
0.000000
0.000000
0.000000
0.000000
-5.574284
-5.574284
-5.567264
-5.787124
-6.085653
-6.239254
-6.014938
-5.495014
-4.866428
-4.302700
-3.913007
-3.735796
-3.749511
-3.888952
-4.065371
-4.188006
-4.187568
-4.033780
-3.781838
-3.514109
-3.261169
-3.033942
-2.833693
-2.661569
-2.520265
-2.412981
-2.342044
-2.300455
-2.299366
-2.336997
-2.407986
-2.503664
-2.613657
-2.727488
-2.834474
-2.925641
-2.998209
-3.051268
-3.084504
-3.100562
-3.103514
-3.097401
-3.085673
-3.070965
-3.054937
-3.038337
-3.021159
-3.002857
-2.982567
-2.959317
-2.932206
-2.900553
-2.864002
-2.822582
-2.776722
-2.727220
-2.675176
-2.621894
-2.568790
-2.517306
-2.468840
-2.424692
-2.386010
-2.353730
-2.328536
-2.310841
-2.300791
-2.298276
-2.302937
-2.314200
-2.330516
-2.351803
-2.377140
-2.405350
-2.435095
-2.464927
-2.493355
-2.518924
-2.540358
-2.556995
-2.567060
-2.569920
-2.565399
-2.553734
-2.535496
-2.511496
-2.482696
-2.450136
-2.414872
-2.377943
-2.340341
-2.303002
-2.266794
-2.232513
-2.200878
-2.172523
-2.147989
-2.127716
-2.112034
-2.101152
-2.095147
-2.093960
-2.097387
-2.105072
-2.116509
-2.131043
-2.147879
-2.166093
-2.184667
-2.202513
-2.218532
-2.231670
-2.240985
-2.245721
-2.245369
-2.239713
-2.228842
-2.213147
-2.193272
-2.170053
-2.144448
-2.117455
-2.090054
-2.063148
-2.037530
-2.013863
-1.992673
-1.974353
-1.959172
-1.947290
-1.938771
-1.933597
-1.931678
-1.932867
-1.936964
-1.943726
-1.952869
-1.964080
-1.977013
-1.991307
-2.006541
-2.022237
-2.038060
-2.053714
-2.068971
-2.083722
-2.098036
-2.112253
-2.127139
-2.146426
9.909529
9.909477
9.909329
9.909091
9.908775
9.908391
9.907953
9.907473
9.906962
9.906431
9.905887
9.905338
9.904791
9.904248
9.903715
9.903192
9.902683
9.902186
9.901702
9.901230
9.900766
9.900307
9.899849
9.899385
9.898910
9.898414
9.897893
9.897340
9.896758
9.896159
9.895578
9.895087
9.894825
9.895040
9.896156
9.898875
9.904312
9.914144
9.931390
9.960000
10.004977
10.071500
10.161252
10.264112
10.264112
0.000000
0.000000
0.000000
0.000000
0.000000
-5.716263
-5.716263
-5.813154
-6.096081
-6.553770
-6.950449
-6.769459
-6.213600
-5.479559
-4.767448
-4.209704
-3.860448
-3.707379
-3.692247
-3.734726
-3.757153
-3.707596
-3.572467
-3.387751
-3.213061
-3.052557
-2.899462
-2.750510
-2.610529
-2.487887
-2.389389
-2.319915
-2.285423
-2.288336
-2.328421
-2.402049
-2.502493
-2.620731
-2.745283
-2.863318
-2.965023
-3.044784
-3.101350
-3.137494
-3.152220
-3.151788
-3.141321
-3.125013
-3.106270
-3.087192
-3.068713
-3.050743
-3.032462
-3.012608
-2.989762
-2.962603
-2.930124
-2.891773
-2.847529
-2.797911
-2.743906
-2.686867
-2.628374
-2.570107
-2.513730
-2.460800
-2.412703
-2.370650
-2.335656
-2.308503
-2.289698
-2.279465
-2.277719
-2.284022
-2.297029
-2.316148
-2.340894
-2.370240
-2.402881
-2.437310
-2.471878
-2.504866
-2.534596
-2.559537
-2.578930
-2.591052
-2.594863
-2.590275
-2.577679
-2.557828
-2.531719
-2.500481
-2.465288
-2.427305
-2.387645
-2.347358
-2.307422
-2.268741
-2.232147
-2.198392
-2.168146
-2.141983
-2.120376
-2.103681
-2.092127
-2.085806
-2.084665
-2.088498
-2.096938
-2.109461
-2.125382
-2.143868
-2.163948
-2.184539
-2.204482
-2.222592
-2.237723
-2.248843
-2.255116
-2.255972
-2.251164
-2.240785
-2.225256
-2.205278
-2.181759
-2.155732
-2.128267
-2.100402
-2.073083
-2.047130
-2.023217
-2.001868
-1.983466
-1.968264
-1.956400
-1.947918
-1.942776
-1.940865
-1.942018
-1.946017
-1.952603
-1.961481
-1.972324
-1.984764
-1.998366
-2.013112
-2.028433
-2.043874
-2.059155
-2.074070
-2.088523
-2.102598
-2.116650
-2.131478
-2.151270
9.908097
9.908051
9.907920
9.907709
9.907425
9.907077
9.906675
9.906228
9.905746
9.905237
9.904709
9.904168
9.903618
9.903064
9.902510
9.901956
9.901405
9.900856
9.900308
9.899761
9.899211
9.898655
9.898089
9.897508
9.896908
9.896283
9.895634
9.894965
9.894292
9.893651
9.893115
9.892814
9.892983
9.894019
9.896584
9.901761
9.911266
9.927702
9.954769
9.998175
10.064395
10.157253
10.270554
10.375999
10.375998
0.000000
0.000000
0.000000
0.000000
0.000000
-5.773410
-5.773409
-5.929498
-6.268015
-6.790700
-7.300569
-7.194134
-6.610271
-5.803184
-4.994114
-4.322204
-3.846598
-3.561125
-3.416682
-3.347051
-3.293409
-3.223478
-3.137246
-3.044636
-2.955025
-2.869278
-2.768905
-2.652829
-2.535631
-2.432900
-2.353634
-2.301210
-2.282673
-2.295615
-2.340732
-2.416270
-2.517583
-2.637084
-2.764531
-2.888804
-2.999714
-3.087860
-3.147456
-3.180820
-3.198738
-3.196295
-3.182729
-3.162480
-3.140210
-3.118517
-3.098700
-3.080683
-3.063430
-3.045271
-3.024253
-2.998492
-2.966471
-2.927263
-2.880658
-2.827185
-2.768042
-2.704946
-2.639937
-2.575153
-2.512636
-2.454200
-2.401394
-2.355513
-2.317590
-2.288354
-2.268281
-2.257678
-2.256610
-2.264366
-2.278878
-2.300845
-2.329316
-2.363049
-2.400550
-2.440107
-2.479834
-2.517751
-2.551917
-2.580608
-2.602545
-2.616686
-2.621230
-2.616301
-2.602515
-2.580855
-2.552534
-2.518857
-2.481130
-2.440606
-2.398452
-2.355746
-2.313483
-2.272584
-2.233897
-2.198199
-2.166189
-2.138472
-2.115548
-2.097798
-2.085470
-2.078668
-2.077343
-2.081285
-2.090117
-2.103299
-2.120124
-2.139730
-2.161113
-2.183149
-2.204628
-2.224306
-2.240971
-2.253526
-2.261075
-2.263007
-2.259053
-2.249310
-2.234226
-2.214545
-2.191228
-2.165357
-2.138049
-2.110375
-2.083302
-2.057654
-2.034100
-2.013151
-1.995168
-1.980382
-1.968907
-1.960763
-1.955887
-1.954148
-1.955360
-1.959286
-1.965652
-1.974150
-1.984445
-1.996175
-2.008957
-2.022398
-2.036856
-2.051384
-2.065729
-2.079703
-2.093212
-2.106305
-2.119239
-2.132593
-2.149765
9.906752
9.906711
9.906592
9.906400
9.906139
9.905817
9.905440
9.905018
9.904556
9.904063
9.903544
9.903004
9.902449
9.901881
9.901303
9.900717
9.900124
9.899523
9.898913
9.898294
9.897661
9.897012
9.896343
9.895649
9.894926
9.894174
9.893391
9.892589
9.891788
9.891034
9.890411
9.890071
9.890274
9.891463
9.894368
9.900184
9.910807
9.929150
9.959433
10.007133
10.077722
10.173310
10.285031
10.383736
10.383736
0.000000
0.000000
0.000000
0.000000
0.000000
-5.715187
-5.715186
-5.895625
-6.246097
-6.750521
-7.217322
-7.192582
-6.625155
-5.787503
-4.952110
-4.244727
-3.721289
-3.376339
-3.166245
-3.037248
-2.947761
-2.882181
-2.850649
-2.863140
-2.856688
-2.798518
-2.696555
-2.577388
-2.464497
-2.373488
-2.311633
-2.280020
-2.281704
-2.310136
-2.363625
-2.441714
-2.541739
-2.658152
-2.782731
-2.905728
-3.017283
-3.109173
-3.176539
-3.216707
-3.229200
-3.227429
-3.216173
-3.193858
-3.169704
-3.146358
-3.125989
-3.108630
-3.093247
-3.077889
-3.060090
-3.037343
-3.007503
-2.969106
-2.921579
-2.865309
-2.801587
-2.732431
-2.660344
-2.588026
-2.518109
-2.452942
-2.394456
-2.344096
-2.302833
-2.271251
-2.249723
-2.238616
-2.238519
-2.245331
-2.261241
-2.285924
-2.318087
-2.356263
-2.398745
-2.443582
-2.488607
-2.531529
-2.570084
-2.602249
-2.626508
-2.642173
-2.646997
-2.641345
-2.626102
-2.602518
-2.572032
-2.536124
-2.496213
-2.453609
-2.409498
-2.364952
-2.320949
-2.278393
-2.238126
-2.200932
-2.167523
-2.138530
-2.114475
-2.095757
-2.082634
-2.075212
-2.073442
-2.077109
-2.085834
-2.099069
-2.116101
-2.136056
-2.157915
-2.180538
-2.202695
-2.223118
-2.240570
-2.253925
-2.262266
-2.264969
-2.261761
-2.252748
-2.238394
-2.219463
-2.196935
-2.171911
-2.145515
-2.118814
-2.092765
-2.068176
-2.045688
-2.025786
-2.008801
-1.994935
-1.984277
-1.976824
-1.972492
-1.971131
-1.972536
-1.976459
-1.982611
-1.990677
-2.000320
-2.011190
-2.022936
-2.035222
-2.047865
-2.060988
-2.073848
-2.086278
-2.098175
-2.109518
-2.120382
-2.130943
-2.142620
9.905486
9.905448
9.905337
9.905158
9.904914