# vtk DataFile Version 3.0
Scalar Field
ASCII
DATASET RECTILINEAR_GRID
DIMENSIONS 200 50 1
X_COORDINATES 200 double
0.050000 0.150000 0.250000 0.350000 0.450000 0.550000 0.650000 0.750000 0.850000 0.950000 1.050000 1.150000 1.250000 1.350000 1.450000 1.550000 1.650000 1.750000 1.850000 1.950000 2.050000 2.150000 2.250000 2.350000 2.450000 2.550000 2.650000 2.750000 2.850000 2.950000 3.050000 3.150000 3.250000 3.350000 3.450000 3.550000 3.650000 3.750000 3.850000 3.950000 4.050000 4.150000 4.250000 4.350000 4.450000 4.550000 4.650000 4.750000 4.850000 4.950000 5.050000 5.150000 5.250000 5.350000 5.450000 5.550000 5.650000 5.750000 5.850000 5.950000 6.050000 6.150000 6.250000 6.350000 6.450000 6.550000 6.650000 6.750000 6.850000 6.950000 7.050000 7.150000 7.250000 7.350000 7.450000 7.550000 7.650000 7.750000 7.850000 7.950000 8.050000 8.150000 8.250000 8.350000 8.450000 8.550000 8.650000 8.750000 8.850000 8.950000 9.050000 9.150000 9.250000 9.350000 9.450000 9.550000 9.650000 9.750000 9.850000 9.950000 10.050000 10.150000 10.250000 10.350000 10.450000 10.550000 10.650000 10.750000 10.850000 10.950000 11.050000 11.150000 11.250000 11.350000 11.450000 11.550000 11.650000 11.750000 11.850000 11.950000 12.050000 12.150000 12.250000 12.350000 12.450000 12.550000 12.650000 12.750000 12.850000 12.950000 13.050000 13.150000 13.250000 13.350000 13.450000 13.550000 13.650000 13.750000 13.850000 13.950000 14.050000 14.150000 14.250000 14.350000 14.450000 14.550000 14.650000 14.750000 14.850000 14.950000 15.050000 15.150000 15.250000 15.350000 15.450000 15.550000 15.650000 15.750000 15.850000 15.950000 16.050000 16.150000 16.250000 16.350000 16.450000 16.550000 16.650000 16.750000 16.850000 16.950000 17.050000 17.150000 17.250000 17.350000 17.450000 17.550000 17.650000 17.750000 17.850000 17.950000 18.050000 18.150000 18.250000 18.350000 18.450000 18.550000 18.650000 18.750000 18.850000 18.950000 19.050000 19.150000 19.250000 19.350000 19.450000 19.550000 19.650000 19.750000 19.850000 19.950000 
Y_COORDINATES 50 double
0.050000 0.150000 0.250000 0.350000 0.450000 0.550000 0.650000 0.750000 0.850000 0.950000 1.050000 1.150000 1.250000 1.350000 1.450000 1.550000 1.650000 1.750000 1.850000 1.950000 2.050000 2.150000 2.250000 2.350000 2.450000 2.550000 2.650000 2.750000 2.850000 2.950000 3.050000 3.150000 3.250000 3.350000 3.450000 3.550000 3.650000 3.750000 3.850000 3.950000 4.050000 4.150000 4.250000 4.350000 4.450000 4.550000 4.650000 4.750000 4.850000 4.950000 
Z_COORDINATES 1 double
0.0
POINT_DATA 10000
SCALARS Skalarfeld double 1
LOOKUP_TABLE default
9.959658
9.947224
9.940125
9.935391
9.931881
9.929090
9.926767
9.924769
9.923011
9.921438
9.920013
9.918710
9.917513
9.916409
9.915390
9.914453
9.913596
9.912821
9.912129
9.911528
9.911024
9.910627
9.910351
9.910210
9.910225
9.910422
9.910833
9.911499
9.912472
9.913819
9.915625
9.917997
9.921069
9.925000
9.929978
9.936195
9.943811
9.952865
9.963114
9.973791
9.983314
9.988114
9.988318
10.005093
10.005093
0.000000
0.000000
0.000000
0.000000
0.000000
-3.154909
-3.154908
-3.158298
-3.161454
-3.161753
-3.159655
-3.155946
-3.151227
-3.142876
-3.128103
-3.104102
-3.069264
-3.023364
-2.968289
-2.907365
-2.844000
-2.781737
-2.724162
-2.676419
-2.641649
-2.622096
-2.618332
-2.629566
-2.653691
-2.687571
-2.727516
-2.769824
-2.811244
-2.849306
-2.882487
-2.910203
-2.932689
-2.950767
-2.965600
-2.978450
-2.990490
-3.002678
-3.015695
-3.029922
-3.045459
-3.062169
-3.079727
-3.097681
-3.115507
-3.132659
-3.148606
-3.162860
-3.174999
-3.184670
-3.191596
-3.195576
-3.196487
-3.194281
-3.188991
-3.180725
-3.169667
-3.155974
-3.139899
-3.121716
-3.101633
-3.079732
-3.056071
-3.030680
-3.003575
-2.974765
-2.944262
-2.912090
-2.878285
-2.842899
-2.805996
-2.767647
-2.727924
-2.686890
-2.644605
-2.601116
-2.556469
-2.510719
-2.463946
-2.416266
-2.367846
-2.318910
-2.269748
-2.220710
-2.172192
-2.124646
-2.078585
-2.034606
-1.993212
-1.954794
-1.919629
-1.888295
-1.861146
-1.838294
-1.819372
-1.804778
-1.794552
-1.788443
-1.785434
-1.786120
-1.790000
-1.796506
-1.805094
-1.815249
-1.826482
-1.838325
-1.850345
-1.862149
-1.873392
-1.883792
-1.893132
-1.901266
-1.908128
-1.913724
-1.918136
-1.921514
-1.924066
-1.926048
-1.927751
-1.929485
-1.931567
-1.934303
-1.937975
-1.942834
-1.949087
-1.956893
-1.966359
-1.977543
-1.990453
-2.005050
-2.021257
-2.038965
-2.058031
-2.078285
-2.099539
-2.121601
-2.144188
-2.167204
-2.190466
-2.213804
-2.237069
-2.260139
-2.282913
-2.305313
-2.327284
-2.348797
-2.369849
-2.390472
-2.410756
-2.430909
-2.451985
9.945598
9.941917
9.937723
9.934097
9.931075
9.928531
9.926345
9.924432
9.922730
9.921196
9.919798
9.918515
9.917332
9.916238
9.915227
9.914293
9.913437
9.912659
9.911962
9.911351
9.910834
9.910419
9.910118
9.909945
9.909918
9.910060
9.910399
9.910972
9.911822
9.913008
9.914602
9.916692
9.919390
9.922831
9.927172
9.932579
9.939203
9.947116
9.956197
9.965935
9.975039
9.981689
9.992059
10.016710
10.016710
0.000000
0.000000
0.000000
0.000000
0.000000
-3.157695
-3.157694
-3.161437
-3.164252
-3.164228
-3.162045
-3.158837
-3.155657
-3.149762
-3.137837
-3.116267
-3.082101
-3.034843
-2.976289
-2.909843
-2.839959
-2.772116
-2.711668
-2.661668
-2.625903
-2.606855
-2.605070
-2.619393
-2.647265
-2.685046
-2.728570
-2.773763
-2.817150
-2.856196
-2.889449
-2.916510
-2.937857
-2.954581
-2.968081
-2.979795
-2.990998
-3.002681
-3.015510
-3.029815
-3.045634
-3.062759
-3.080803
-3.099260
-3.117565
-3.135141
-3.151442
-3.165974
-3.178314
-3.188115
-3.195106
-3.199088
-3.199941
-3.197617
-3.192157
-3.183660
-3.172429
-3.158514
-3.142346
-3.124135
-3.104029
-3.082155
-3.058570
-3.033293
-3.006327
-2.977669
-2.947325
-2.915311
-2.881660
-2.846425
-2.809676
-2.771487
-2.731934
-2.691082
-2.648993
-2.605707
-2.561260
-2.515695
-2.469078
-2.421507
-2.373137
-2.324176
-2.274910
-2.225703
-2.176946
-2.129084
-2.082578
-2.038128
-1.996296
-1.957507
-1.921795
-1.889985
-1.862499
-1.839579
-1.820032
-1.805190
-1.794788
-1.788502
-1.785822
-1.786655
-1.790661
-1.797340
-1.806153
-1.816572
-1.828091
-1.840228
-1.852536
-1.864610
-1.876096
-1.886701
-1.896201
-1.904446
-1.911363
-1.916958
-1.921311
-1.924575
-1.926961
-1.928732
-1.930187
-1.931645
-1.933433
-1.935867
-1.939242
-1.943817
-1.949810
-1.957386
-1.966659
-1.977688
-1.990482
-2.005000
-2.021161
-2.038846
-2.057904
-2.078149
-2.099358
-2.121321
-2.143994
-2.167172
-2.190570
-2.214016
-2.237370
-2.260508
-2.283331
-2.305759
-2.327735
-2.349222
-2.370205
-2.390687
-2.410663
-2.430035
-2.448741
9.938324
9.936954
9.934567
9.932022
9.929626
9.927453
9.925499
9.923736
9.922136
9.920672
9.919324
9.918076
9.916918
9.915839
9.914835
9.913902
9.913040
9.912247
9.911528
9.910885
9.910324
9.909851
9.909476
9.909207
9.909058
9.909042
9.909178
9.909486
9.909988
9.910714
9.911692
9.912957
9.914543
9.916486
9.918814
9.921548
9.924689
9.928230
9.932197
9.936844
9.943305
9.955874
9.986212
10.042684
10.042684
0.000000
0.000000
0.000000
0.000000
0.000000
-3.157838
-3.157838
-3.164251
-3.167517
-3.167470
-3.166716
-3.166971
-3.168800
-3.169411
-3.163092
-3.144105
-3.109822
-3.059370
-2.993737
-2.915737
-2.831424
-2.750546
-2.680571
-2.625843
-2.589479
-2.573400
-2.577637
-2.600157
-2.637230
-2.684027
-2.735371
-2.786459
-2.833439
-2.873753
-2.906241
-2.931017
-2.949191
-2.962490
-2.972840
-2.982033
-2.991514
-3.002286
-3.014920
-3.029598
-3.046186
-3.064315
-3.083455
-3.102988
-3.122271
-3.140677
-3.157638
-3.172656
-3.185321
-3.195302
-3.202346
-3.206268
-3.206946
-3.204337
-3.198510
-3.189373
-3.177192
-3.162761
-3.146264
-3.127888
-3.107771
-3.086002
-3.062612
-3.037591
-3.010916
-2.982566
-2.952532
-2.920821
-2.887459
-2.852502
-2.816031
-2.778134
-2.738888
-2.698367
-2.656630
-2.613714
-2.569621
-2.524386
-2.478047
-2.430674
-2.382402
-2.333403
-2.283928
-2.234381
-2.185166
-2.136775
-2.089469
-2.044176
-2.001551
-1.962226
-1.925268
-1.892577
-1.864292
-1.840482
-1.820835
-1.805758
-1.795179
-1.788842
-1.786384
-1.787514
-1.791853
-1.798920
-1.808182
-1.819102
-1.831150
-1.843825
-1.856657
-1.869220
-1.881145
-1.892123
-1.901916
-1.910364
-1.917388
-1.922990
-1.927252
-1.930328
-1.932439
-1.933857
-1.934896
-1.935890
-1.937183
-1.939110
-1.941985
-1.946082
-1.951633
-1.958817
-1.967755
-1.978511
-1.991095
-2.005464
-2.021530
-2.039166
-2.058212
-2.078478
-2.099761
-2.121864
-2.144612
-2.167851
-2.191456
-2.215035
-2.238480
-2.261675
-2.284522
-2.306937
-2.328855
-2.350226
-2.371009
-2.391148
-2.410517
-2.428788
-2.446178
9.933663
9.933010
9.931573
9.929799
9.927950
9.926153
9.924456
9.922871
9.921396
9.920020
9.918736
9.917533
9.916404
9.915343
9.914347
9.913412
9.912537
9.911723
9.910969
9.910280
9.909656
9.909103
9.908623
9.908221
9.907902
9.907669
9.907524
9.907465
9.907487
9.907573
9.907694
9.907797
9.907798
9.907560
9.906880
9.905456
9.902873
9.898615
9.892207
9.883746
9.875541
9.876206
9.906373
9.988821
9.988821
0.000000
0.000000
0.000000
0.000000
0.000000
-3.149942
-3.149942
-3.158878
-3.166984
-3.170858
-3.175508
-3.184511
-3.198945
-3.214002
-3.216094
-3.195364
-3.157848
-3.102706
-3.027184
-2.929516
-2.816925
-2.711987
-2.626798
-2.565137
-2.528682
-2.518550
-2.533674
-2.570314
-2.622688
-2.684029
-2.747610
-2.807603
-2.859703
-2.901444
-2.932212
-2.952987
-2.965908
-2.973710
-2.979136
-2.984485
-2.991391
-3.000816
-3.013148
-3.028321
-3.045945
-3.065411
-3.085996
-3.106932
-3.127473
-3.146932
-3.164713
-3.180323
-3.193367
-3.203543
-3.210622
-3.214432
-3.214847
-3.211799
-3.204795
-3.194545
-3.181799
-3.166906
-3.150127
-3.131663
-3.111644
-3.090126
-3.067104
-3.042528
-3.016337
-2.988484
-2.958941
-2.927703
-2.894784
-2.860245
-2.824193
-2.786736
-2.747954
-2.707925
-2.666720
-2.624362
-2.580800
-2.536064
-2.490166
-2.443125
-2.395062
-2.346107
-2.296373
-2.246390
-2.196590
-2.147690
-2.099089
-2.052569
-2.008653
-1.967725
-1.929947
-1.896239
-1.866969
-1.842290
-1.822196
-1.806809
-1.796064
-1.789739
-1.787510
-1.789016
-1.793830
-1.801456
-1.811353
-1.822962
-1.835735
-1.849140
-1.862684
-1.875915
-1.888441
-1.899932
-1.910135
-1.918876
-1.926066
-1.931703
-1.935868
-1.938721
-1.940491
-1.941466
-1.941975
-1.942373
-1.943027
-1.944295
-1.946512
-1.949977
-1.954940
-1.961595
-1.970075
-1.980451
-1.992735
-2.006881
-2.022796
-2.040344
-2.059357
-2.079643
-2.100996
-2.123214
-2.146103
-2.169463
-2.193165
-2.216836
-2.240338
-2.263557
-2.286391
-2.308750
-2.330563
-2.351771
-2.372317
-2.392118
-2.411014
-2.428676
-2.445649
9.930228
9.929852
9.928919
9.927651
9.926225
9.924755
9.923303
9.921899
9.920557
9.919280
9.918068
9.916916
9.915823
9.914784
9.913797
9.912860
9.911973
9.911133
9.910343
9.909601
9.908909
9.908266
9.907672
9.907125
9.906622
9.906155
9.905709
9.905263
9.904778
9.904196
9.903422
9.902314
9.900651
9.898100
9.894156
9.888066
9.878707
9.864439
9.842933
9.811141
9.765990
9.707788
9.651424
9.649455
9.649455
0.000000
0.000000
0.000000
0.000000
0.000000
-3.130836
-3.130835
-3.145499
-3.160576
-3.173449
-3.188893
-3.213437
-3.252650
-3.299711
-3.313845
-3.271413
-3.225767
-3.170137
-3.088583
-2.962745
-2.798612
-2.652565
-2.546087
-2.476727
-2.440789
-2.439494
-2.470646
-2.527826
-2.602100
-2.683885
-2.764366
-2.836415
-2.895226
-2.938581
-2.966685
-2.981733
-2.987291
-2.987537
-2.986338
-2.986631
-2.990204
-2.997879
-3.009759
-3.025447
-3.044225
-3.065202
-3.087422
-3.109947
-3.131910
-3.152556
-3.171258
-3.187522
-3.200978
-3.211355
-3.218453
-3.222110
-3.222189
-3.217903
-3.209670
-3.198653
-3.185290
-3.169959
-3.152964
-3.134519
-3.114741
-3.093654
-3.071203
-3.047283
-3.021784
-2.994624
-2.965761
-2.935171
-2.902844
-2.868857
-2.833357
-2.796487
-2.758320
-2.718953
-2.678465
-2.636875
-2.594011
-2.549965
-2.504709
-2.458189
-2.410541
-2.361832
-2.311667
-2.261219
-2.210683
-2.160432
-2.110867
-2.063023
-2.017583
-1.975094
-1.936054
-1.901117
-1.870720
-1.845109
-1.824389
-1.808610
-1.797688
-1.791403
-1.789429
-1.791368
-1.796754
-1.805063
-1.815729
-1.828173
-1.841814
-1.856097
-1.870496
-1.884533
-1.897790
-1.909914
-1.920631
-1.929752
-1.937178
-1.942901
-1.947001
-1.949642
-1.951065
-1.951571
-1.951507
-1.951254
-1.951200
-1.951729
-1.953204
-1.955947
-1.960231
-1.966266
-1.974200
-1.984113
-1.996019
-2.009870
-2.025569
-2.042971
-2.061898
-2.082151
-2.103518
-2.125788
-2.148759
-2.172234
-2.195937
-2.219585
-2.243058
-2.266225
-2.288974
-2.311209
-2.332859
-2.353865
-2.374177
-2.393731
-2.412416
-2.430008
-2.447420
9.927497
9.927249
9.926599
9.925661
9.924546
9.923340
9.922102
9.920867
9.919655
9.918478
9.917341
9.916245
9.915190
9.914175
9.913200
9.912262
9.911362
9.910499
9.909670
9.908876
9.908114
9.907381
9.906674
9.905985
9.905304
9.904613
9.903885
9.903080
9.902136
9.900958
9.899402
9.897250
9.894168
9.889648
9.882907
9.872727
9.857183
9.833150
9.795366
9.734461
9.632435
9.451463
9.105533
8.700566
3.197929
-4.153978
-4.002014
-3.992927
-3.973213
-3.871764
-3.373009
-3.110066
-3.129717
-3.154037
-3.178546
-3.206226
-3.248405
-3.324985
-3.447874
-3.491796
-3.365429
-3.304463
-3.266784
-3.202090
-3.045294
-2.781921
-2.568565
-2.438353
-2.360721
-2.324421
-2.333955
-2.386524
-2.471388
-2.574842
-2.683476
-2.785869
-2.873319
-2.940472
-2.985564
-3.009947
-3.017374
-3.013231
-3.003664
-2.994054
-2.988140
-2.987734
-2.993343
-3.004660
-3.020871
-3.040879
-3.063473
-3.087441
-3.111658
-3.135127
-3.157015
-3.176657
-3.193562
-3.207385
-3.217896
-3.224932
-3.228313
-3.227646
-3.221810
-3.212647
-3.200802
-3.186784
-3.171038
-3.153907
-3.135611
-3.116247
-3.095788
-3.074126
-3.051085
-3.026493
-3.000229
-2.972231
-2.942461
-2.910852
-2.877538
-2.842714
-2.806557
-2.769135
-2.730597
-2.691025
-2.650494
-2.608401
-2.565215
-2.520853
-2.475141
-2.427939
-2.379251
-2.329183
-2.278271
-2.226885
-2.175492
-2.124709
-2.075392
-2.028318
-1.984185
-1.943643
-1.907318
-1.875693
-1.849080
-1.827640
-1.811410
-1.800291
-1.794053
-1.792353
-1.794760
-1.800774
-1.809836
-1.821353
-1.834715
-1.849315
-1.864565
-1.879910
-1.894845
-1.908923
-1.921767
-1.933085
-1.942670
-1.950410
-1.956291
-1.960394
-1.962886
-1.964016
-1.964102
-1.963508
-1.962636
-1.961900
-1.961708
-1.962449
-1.964468
-1.968061
-1.973457
-1.980817
-1.990227
-2.001706
-2.015203
-2.030615
-2.047789
-2.066538
-2.086654
-2.107916
-2.130106
-2.153023
-2.176499
-2.200000
-2.223490
-2.246797
-2.269780
-2.292319
-2.314319
-2.335710
-2.356449
-2.376513
-2.395901
-2.414611
-2.432619
-2.451531
9.925226
9.925048
9.924568
9.923848
9.922957
9.921958
9.920898
9.919811
9.918720
9.917638
9.916574
9.915533
9.914518
9.913529
9.912566
9.911630
9.910719
9.909831
9.908966
9.908121
9.907293
9.906475
9.905662
9.904842
9.903999
9.903109
9.902139
9.901035
9.899722
9.898085
9.895952
9.893064
9.889026
9.883231
9.874729
9.862004
9.842572
9.812180
9.763131
9.680285
9.530004
9.224594
8.486812
5.944782
-2.304707
-4.153978
-4.002014
-3.992927
-3.973212
-3.871764
-3.635950
-3.355045
-3.286781
-3.269888
-3.258727
-3.257975
-3.290327
-3.386760
-3.561585
-3.662719
-3.428660
-3.385468
-3.396290
-3.397509
-3.197990
-2.740019
-2.450823
-2.317187
-2.225006
-2.180448
-2.200357
-2.280248
-2.400958
-2.541615
-2.683971
-2.813735
-2.920271
-2.997457
-3.044251
-3.063532
-3.060933
-3.044041
-3.022000
-3.002168
-2.988929
-2.984016
-2.987345
-2.998047
-3.014813
-3.036114
-3.060386
-3.086149
-3.112081
-3.137045
-3.160120
-3.180604
-3.198011
-3.212035
-3.222504
-3.229312
-3.232365
-3.229973
-3.223114
-3.212926
-3.200167
-3.185463
-3.169337
-3.152171
-3.134180
-3.115422
-3.095794
-3.075142
-3.053204
-3.029737
-3.004574
-2.977636
-2.948874
-2.918044
-2.885525
-2.851502
-2.816175
-2.779709
-2.742137
-2.703562
-2.663975
-2.623147
-2.581141
-2.537828
-2.492994
-2.446459
-2.398163
-2.348224
-2.296982
-2.244858
-2.192404
-2.140331
-2.089489
-2.040742
-1.994912
-1.952761
-1.914966
-1.882061
-1.854411
-1.832214
-1.815510
-1.804188
-1.798000
-1.796580
-1.799464
-1.806117
-1.815947
-1.828330
-1.842625
-1.858196
-1.874426
-1.890734
-1.906585
-1.921509
-1.935108
-1.947067
-1.957167
-1.965283
-1.971397
-1.975586
-1.978025
-1.978970
-1.978751
-1.977750
-1.976386
-1.975093
-1.974304
-1.974427
-1.975831
-1.978828
-1.983665
-1.990513
-1.999464
-2.010534
-2.023671
-2.038759
-2.055637
-2.074104
-2.093943
-2.114925
-2.136824
-2.159431
-2.182582
-2.205710
-2.228834
-2.251766
-2.274358
-2.296490
-2.318071
-2.339042
-2.359379
-2.379108
-2.398309
-2.417137
-2.435840
-2.457068
9.923285
9.923149
9.922777
9.922205
9.921477
9.920637
9.919722
9.918761
9.917776
9.916781
9.915786
9.914798
9.913821
9.912858
9.911909
9.910974
9.910053
9.909144
9.908245
9.907353
9.906463
9.905568
9.904659
9.903724
9.902742
9.901689
9.900527
9.899200
9.897629
9.895700
9.893241
9.889995
9.885578
9.879391
9.870500
9.857396
9.837575
9.806688
9.756772
9.672335
9.519497
9.214302
8.523550
6.678509
-0.123973
-3.165070
-3.834767
-4.006858
-4.075122
-4.106806
-4.104758
-4.098963
-4.064357
-3.978487
-3.846645
-3.704118
-3.605324
-3.590823
-3.646873
-3.641039
-3.492560
-3.452279
-3.442425
-3.409382
-3.104062
-2.640458
-2.337421
-2.216261
-2.089232
-2.011428
-2.039003
-2.153841
-2.319058
-2.504511
-2.686877
-2.849756
-2.979783
-3.069132
-3.117904
-3.131061
-3.114467
-3.081867
-3.044934
-3.012308
-2.989170
-2.979399
-2.980318
-2.990390
-3.007748
-3.030376
-3.056326
-3.083847
-3.111414
-3.137747
-3.161828
-3.182912
-3.200523
-3.214412
-3.224495
-3.230717
-3.232825
-3.229091
-3.221043
-3.209712
-3.195970
-3.180569
-3.164121
-3.147045
-3.129542
-3.111618
-3.093125
-3.073736
-3.053132
-3.031009
-3.007129
-2.981349
-2.953597
-2.923841
-2.892281
-2.859166
-2.824736
-2.789191
-2.752655
-2.715211
-2.676840
-2.637407
-2.596792
-2.554780
-2.511099
-2.465507
-2.417877
-2.368257
-2.316901
-2.264234
-2.210862
-2.157566
-2.105253
-2.054880
-2.007381
-1.963622
-1.924358
-1.890183
-1.861511
-1.838567
-1.821397
-1.809878
-1.803739
-1.802585
-1.805919
-1.813171
-1.823716
-1.836898
-1.852050
-1.868508
-1.885630
-1.902812
-1.919498
-1.935197
-1.949493
-1.962057
-1.972657
-1.981162
-1.987549
-1.991898
-1.994385
-1.995278
-1.994913
-1.993688
-1.992034
-1.990402
-1.989237
-1.988966
-1.989970
-1.992577
-1.997042
-2.003542
-2.012172
-2.022943
-2.035793
-2.050594
-2.067166
-2.085295
-2.104744
-2.125272
-2.146638
-2.168609
-2.190965
-2.213516
-2.235996
-2.258251
-2.280148
-2.301577
-2.322457
-2.342743
-2.362440
-2.381617
-2.400441
-2.419225
-2.438505
-2.462151
9.921594
9.921485
9.921186
9.920717
9.920108
9.919390
9.918591
9.917736
9.916841
9.915923
9.914991
9.914053
9.913113
9.912174
9.911238
9.910306
9.909376
9.908448
9.907519
9.906584
9.905639
9.904676
9.903685
9.902652
9.901559
9.900380
9.899079
9.897606
9.895892
9.893838
9.891301
9.888074
9.883848
9.878154
9.870263
9.859007
9.842455
9.817276
9.777260
9.707888
9.576760
9.297089
8.587036
6.048486
-2.258672
-4.169205
-4.059456
-4.123513
-4.250608
-4.471538
-4.778869
-5.218400
-5.324232
-5.218294
-4.939855
-4.546997
-4.155964
-3.856933
-3.664894
-3.518875
-3.385894
-3.308147
-3.244057
-3.120954
-2.842658
-2.508240
-2.263957
-2.099410
-1.930205
-1.828606
-1.883468
-2.037556
-2.241610
-2.467613
-2.692559
-2.894158
-3.053553
-3.157842
-3.209699
-3.213921
-3.182389
-3.130373
-3.074082
-3.025627
-2.991700
-2.974195
-2.973050
-2.982687
-3.000773
-3.024733
-3.052238
-3.081302
-3.110237
-3.137628
-3.162356
-3.183628
-3.200974
-3.214217
-3.223418
-3.228676
-3.228838
-3.223787
-3.214553
-3.202089
-3.187395
-3.171377
-3.154745
-3.137954
-3.121178
-3.104341
-3.087176
-3.069281
-3.050233
-3.029644
-3.007216
-2.982762
-2.956211
-2.927600
-2.897113
-2.865013
-2.831581
-2.797070
-2.761665
-2.725473
-2.688487
-2.650582
-2.611550
-2.571090
-2.528854
-2.484517
-2.437866
-2.388865
-2.337699
-2.284780
-2.230748
-2.176441
-2.122844
-2.071011
-2.021986
-1.976741
-1.936112
-1.900759
-1.871141
-1.847505
-1.829898
-1.818183
-1.812065
-1.811116
-1.814807
-1.822534
-1.833643
-1.847449
-1.863262
-1.880397
-1.898194
-1.916033
-1.933345
-1.949625
-1.964447
-1.977476
-1.988472
-1.997305
-2.003952
-2.008494
-2.011117
-2.012091
-2.011764
-2.010538
-2.008854
-2.007166
-2.005929
-2.005573
-2.006488
-2.009002
-2.013375
-2.019784
-2.028316
-2.038976
-2.051686
-2.066302
-2.082622
-2.100413
-2.119417
-2.139372
-2.160018
-2.181094
-2.202317
-2.223921
-2.245385
-2.266574
-2.287376
-2.307702
-2.327489
-2.346710
-2.365393
-2.383643
-2.401688
-2.419947
-2.439158
-2.464209
9.920103
9.920013
9.919763
9.919369
9.918848
9.918224
9.917518
9.916749
9.915932
9.915080
9.914204
9.913310
9.912403
9.911488
9.910565
9.909636
9.908700
9.907755
9.906798
9.905827
9.904834
9.903813
9.902753
9.901643
9.900463
9.899192
9.897801
9.896251
9.894491
9.892451
9.890041
9.887133
9.883551
9.879040
9.873222
9.865509
9.854945
9.839879
9.816296
9.777121
9.705668
9.562002
9.247354
8.828563
3.284946
-4.169206
-4.059456
-4.123513
-4.250609
-4.471538
-5.539212
-6.299554
-6.216830
-6.324217
-6.079247
-5.485734
-4.765764
-4.113792
-3.622967
-3.293976
-3.089617
-2.971262
-2.882948
-2.763333
-2.571819
-2.344804
-2.140950
-1.968607
-1.827964
-1.771160
-1.828510
-1.980821
-2.198047
-2.449199
-2.706363
-2.942028
-3.132406
-3.260167
-3.319171
-3.318413
-3.268385
-3.192346
-3.112460
-3.044842
-2.997710
-2.972357
-2.967983
-2.976997
-2.995673
-3.020677
-3.049326
-3.079466
-3.109275
-3.137201
-3.162014
-3.182871
-3.199320
-3.211262
-3.218850
-3.222262
-3.219919
-3.213155
-3.202545
-3.188977
-3.173488
-3.157073
-3.140521
-3.124305
-3.108562
-3.093124
-3.077603
-3.061490
-3.044255
-3.025428
-3.004651
-2.981706
-2.956521
-2.929166
-2.899840
-2.868836
-2.836478
-2.803071
-2.768863
-2.733998
-2.698494
-2.662225
-2.624935
-2.586251
-2.545739
-2.502982
-2.457662
-2.409651
-2.359063
-2.306282
-2.251962
-2.196994
-2.142441
-2.089457
-2.039195
-1.992727
-1.950975
-1.914660
-1.884276
-1.860085
-1.842124
-1.830234
-1.824089
-1.823231
-1.827099
-1.835063
-1.846446
-1.860547
-1.876663
-1.894100
-1.912192
-1.930312
-1.947887
-1.964412
-1.979461
-1.992698
-2.003889
-2.012907
-2.019735
-2.024463
-2.027281
-2.028466
-2.028369
-2.027393
-2.025976
-2.024572
-2.023627
-2.023567
-2.024774
-2.027572
-2.032209
-2.038852
-2.047579
-2.058374
-2.071144
-2.085722
-2.101885
-2.119377
-2.137921
-2.157236
-2.177049
-2.197096
-2.217114
-2.237220
-2.257287
-2.276988
-2.296248
-2.315009
-2.333232
-2.350911
-2.368092
-2.384894
-2.401558
-2.418512
-2.436500
-2.460504
9.918776
9.918700
9.918486
9.918146
9.917692
9.917141
9.916508
9.915809
9.915056
9.914262
9.913434
9.912579
9.911703
9.910809
9.909899
9.908973
9.908032
9.907073
9.906094
9.905091
9.904058
9.902989
9.901874
9.900701
9.899457
9.898124
9.896681
9.895104
9.893365
9.891431
9.889271
9.886854
9.884160
9.881183
9.877953
9.874544
9.871079
9.867685
9.864382
9.860789
9.855156
9.843536
9.823099
9.814710
9.814710
0.000000
0.000000
0.000000
0.000000
0.000000
-6.320935
-6.320934
-6.599232
-7.051654
-6.941972
-6.235069
-5.264837
-4.317884
-3.563572
-3.052331
-2.749912
-2.595047
-2.515667
-2.445377
-2.343859
-2.209252
-2.064261
-1.928951
-1.827290
-1.794826
-1.852518
-1.995268
-2.204859
-2.458203
-2.728894
-2.987948
-3.205960
-3.355741
-3.423291
-3.422290
-3.359970
-3.263779
-3.161571
-3.074226
-3.012855
-2.978946
-2.967467
-2.975756
-2.994330
-3.019481
-3.048413
-3.078858
-3.108815
-3.136550
-3.160712
-3.180406
-3.195203
-3.205086
-3.210335
-3.210780
-3.205746
-3.196798
-3.184551
-3.169871
-3.153776
-3.137268
-3.121148
-3.105881
-3.091548
-3.077883
-3.064375
-3.050391
-3.035290
-3.018509
-2.999630
-2.978401
-2.954747
-2.928757
-2.900662
-2.870790
-2.839519
-2.807218
-2.774194
-2.740649
-2.706636
-2.672041
-2.636580
-2.599826
-2.561263
-2.520370
-2.476724
-2.430091
-2.380506
-2.328310
-2.274160
-2.218987
-2.163929
-2.110233
-2.059158
-2.011873
-1.969380
-1.932456
-1.901620
-1.877134
-1.859012
-1.847058
-1.840903
-1.840044
-1.843887
-1.851779
-1.863032
-1.876948
-1.892832
-1.910002
-1.927808
-1.945638
-1.962934
-1.979202
-1.994029
-2.007094
-2.018172
-2.027149
-2.034019
-2.038880
-2.041928
-2.043443
-2.043773
-2.043314
-2.042492
-2.041744
-2.041501
-2.042167
-2.044104
-2.047615
-2.052928
-2.060189
-2.069451
-2.080677
-2.093747
-2.108468
-2.124595
-2.141851
-2.159940
-2.178572
-2.197471
-2.216387
-2.235103
-2.253464
-2.271752
-2.289578
-2.306884
-2.323637
-2.339824
-2.355462
-2.370604
-2.385366
-2.399948
-2.414684
-2.430104
-2.449974
9.917590
9.917523
9.917336
9.917036
9.916633
9.916138
9.915564
9.914922
9.914223
9.913477
9.912690
9.911871
9.911022
9.910147
9.909248
9.908327
9.907382
9.906411
9.905414
9.904385
9.903319
9.902210
9.901050
9.899830
9.898539
9.897164
9.895694
9.894117
9.892429
9.890632
9.888752
9.886847
9.885039
9.883552
9.882782
9.883387
9.886426
9.893496
9.907608
9.932411
9.972896
10.034148
10.118305
10.216950
10.216950
0.000000
0.000000
0.000000
0.000000
0.000000
-6.102265
-6.102264
-6.496378
-7.090113
-7.259193
-6.569910
-5.528245
-4.443928
-3.540181
-2.903443
-2.507777
-2.305338
-2.225004
-2.192126
-2.160044
-2.100324
-2.017390
-1.930008
-1.864796
-1.851189
-1.908866
-2.040823
-2.237007
-2.479882
-2.746697
-3.010087
-3.239956
-3.407388
-3.490207
-3.483831
-3.425329
-3.321487
-3.206215
-3.105165
-3.032883
-2.991937
-2.976712
-2.980806
-2.997892
-3.022088
-3.050237
-3.079881
-3.108872
-3.135356
-3.157884
-3.175504
-3.187785
-3.194768
-3.196898
-3.193312
-3.185403
-3.174037
-3.160034
-3.144310
-3.127857
-3.111628
-3.096377
-3.082517
-3.070055
-3.058621
-3.047579
-3.036165
-3.023610
-3.009252
-2.992592
-2.973339
-2.951405
-2.926894
-2.900072
-2.871318
-2.841075
-2.809786
-2.777836
-2.745494
-2.712868
-2.679869
-2.646208
-2.611416
-2.574905
-2.536059
-2.494343
-2.449419
-2.401233
-2.350076
-2.296590
-2.241736
-2.186713
-2.132853
-2.081509
-2.033937
-1.991211
-1.954150
-1.923290
-1.898880
-1.880897
-1.869096
-1.863046
-1.862190
-1.865887
-1.873454
-1.884193
-1.897414
-1.912449
-1.928659
-1.945439
-1.962229
-1.978514
-1.993844
-2.007839
-2.020205
-2.030744
-2.039359
-2.046057
-2.050946
-2.054224
-2.056168
-2.057113
-2.057438
-2.057546
-2.057843
-2.058729
-2.060573
-2.063702
-2.068385
-2.074818
-2.083110
-2.093281
-2.105261
-2.118898
-2.133969
-2.150204
-2.167304
-2.184963
-2.202885
-2.220800
-2.238476
-2.255724
-2.272412
-2.288536
-2.304195
-2.319224
-2.333618
-2.347389
-2.360565
-2.373204
-2.385395
-2.397272
-2.409017
-2.420851
-2.434739
9.916525
9.916465
9.916298
9.916029
9.915665
9.915215
9.914687
9.914092
9.913437
9.912731
9.911981
9.911191
9.910366
9.909508
9.908621
9.907703
9.906756
9.905777
9.904764
9.903714
9.902622
9.901482
9.900287
9.899029
9.897702
9.896297
9.894810
9.893240
9.891598
9.889915
9.888255
9.886741
9.885592
9.885191
9.886179
9.889607
9.897143
9.911320
9.935858
9.976569
10.039704
10.129127
10.239147
10.342323
10.342323
0.000000
0.000000
0.000000
0.000000
0.000000
-5.555271
-5.555270
-5.966457
-6.508056
-6.817297
-6.373151
-5.486821
-4.513834
-3.658620
-2.994482
-2.517308
-2.213888
-2.064038
-2.002331
-1.999406
-1.987747
-1.956933
-1.916268
-1.886310
-1.891878
-1.952662
-2.076509
-2.259028
-2.486771
-2.739889
-2.993355
-3.218653
-3.388031
-3.481228
-3.488996
-3.431159
-3.337571
-3.223917
-3.119690
-3.043462
-3.000082
-2.984462
-2.987930
-3.004007
-3.027063
-3.053741
-3.081660
-3.108679
-3.132877
-3.152731
-3.167248
-3.176011
-3.179088
-3.176911
-3.168927
-3.157684
-3.143783
-3.128082
-3.111525
-3.095062
-3.079557
-3.065672
-3.053734
-3.043658
-3.034968
-3.026905
-3.018573
-3.009071
-2.997610
-2.983598
-2.966679
-2.946739
-2.923887
-2.898422
-2.870782
-2.841486
-2.811067
-2.780005
-2.748657
-2.717199
-2.685589
-2.653551
-2.620593
-2.586072
-2.549291
-2.509619
-2.466616
-2.420146
-2.370440
-2.318116
-2.264146
-2.209772
-2.156392
-2.105432
-2.058217
-2.015874
-1.979252
-1.948886
-1.924998
-1.907522
-1.896148
-1.890384
-1.889607
-1.893124
-1.900214
-1.910162
-1.922287
-1.935950
-1.950563
-1.965591
-1.980552
-1.995016
-2.008612
-2.021032
-2.032040
-2.041484
-2.049299
-2.055513
-2.060242
-2.063682
-2.066097
-2.067801
-2.069141
-2.070481
-2.072186
-2.074605
-2.078061
-2.082832
-2.089137
-2.097124
-2.106857
-2.118310
-2.131372
-2.145849
-2.161485
-2.177984
-2.195026
-2.212297
-2.229502
-2.246383
-2.262731
-2.278387
-2.293246
-2.307252
-2.320504
-2.333025
-2.344825
-2.355926
-2.366362
-2.376185
-2.385452
-2.394230
-2.402565
-2.410432
-2.418357
9.915569
9.915514
9.915363
9.915118
9.914784
9.914368
9.913878
9.913320
9.912702
9.912030
9.911310
9.910546
9.909741
9.908900
9.908022
9.907110
9.906162
9.905176
9.904152
9.903085
9.901972
9.900807
9.899584
9.898297
9.896941
9.895511
9.894005
9.892430
9.890805
9.889172
9.887610
9.886267
9.885398
9.885434
9.887098
9.891564
9.900704
9.917392
9.945803
9.991272
10.059272
10.152050
10.260881
10.357263
10.357263
0.000000
0.000000
0.000000
0.000000
0.000000
-5.130877
-5.130876
-5.406112
-5.755110
-6.002818
-5.854274
-5.358523
-4.711604
-4.067031
-3.488485
-2.990683
-2.574109
-2.264249
-1.997941
-1.874500
-1.851273
-1.855097
-1.856042
-1.860936
-1.887616
-1.955425
-2.075599
-2.247518
-2.460470
-2.696734
-2.933716
-3.145970
-3.309088
-3.405582
-3.429592
-3.387191
-3.303964
-3.205405
-3.109526
-3.037727
-2.996984
-2.984151
-2.990796
-3.008796
-3.032889
-3.059099
-3.085515
-3.110179
-3.131221
-3.147179
-3.157149
-3.160928
-3.158776
-3.150390
-3.138215
-3.123247
-3.106454
-3.088826
-3.071340
-3.054915
-3.040336
-3.028153
-3.018554
-3.011308
-3.005807
-3.001179
-2.996406
-2.990457
-2.982409
-2.971556
-2.957455
-2.939938
-2.919096
-2.895242
-2.868862
-2.840552
-2.810943
-2.780620
-2.750045
-2.719485
-2.688964
-2.658242
-2.626834
-2.594071
-2.559201
-2.521523
-2.480521
-2.435983
-2.388081
-2.337400
-2.284903
-2.231850
-2.179676
-2.129853
-2.083746
-2.042508
-2.006991
-1.977712
-1.954853
-1.938288
-1.927643
-1.922359
-1.921752
-1.925082
-1.931594
-1.940562
-1.951309
-1.963226
-1.975777
-1.988500
-2.001001
-2.012953
-2.024092
-2.034212
-2.043174
-2.050901
-2.057389
-2.062702
-2.066973
-2.070397
-2.073220
-2.075725
-2.078214
-2.081000
-2.084389
-2.088670
-2.094099
-2.100893
-2.109209
-2.119132
-2.130669
-2.143738
-2.158175
-2.173740
-2.190142
-2.207052
-2.224136
-2.241073
-2.257577
-2.273407
-2.288381
-2.302375
-2.315320
-2.327196
-2.338023
-2.347914
-2.357002
-2.365310
-2.372875
-2.379739
-2.385936
-2.391481
-2.396343
-2.400388
-2.403354
9.914711
9.914661
9.914521
9.914294
9.913984
9.913596
9.913136