# vtk DataFile Version 3.0
Vector Field
ASCII
DATASET RECTILINEAR_GRID
DIMENSIONS 200 50 1
X_COORDINATES 200 double
0.050000 0.150000 0.250000 0.350000 0.450000 0.550000 0.650000 0.750000 0.850000 0.950000 1.050000 1.150000 1.250000 1.350000 1.450000 1.550000 1.650000 1.750000 1.850000 1.950000 2.050000 2.150000 2.250000 2.350000 2.450000 2.550000 2.650000 2.750000 2.850000 2.950000 3.050000 3.150000 3.250000 3.350000 3.450000 3.550000 3.650000 3.750000 3.850000 3.950000 4.050000 4.150000 4.250000 4.350000 4.450000 4.550000 4.650000 4.750000 4.850000 4.950000 5.050000 5.150000 5.250000 5.350000 5.450000 5.550000 5.650000 5.750000 5.850000 5.950000 6.050000 6.150000 6.250000 6.350000 6.450000 6.550000 6.650000 6.750000 6.850000 6.950000 7.050000 7.150000 7.250000 7.350000 7.450000 7.550000 7.650000 7.750000 7.850000 7.950000 8.050000 8.150000 8.250000 8.350000 8.450000 8.550000 8.650000 8.750000 8.850000 8.950000 9.050000 9.150000 9.250000 9.350000 9.450000 9.550000 9.650000 9.750000 9.850000 9.950000 10.050000 10.150000 10.250000 10.350000 10.450000 10.550000 10.650000 10.750000 10.850000 10.950000 11.050000 11.150000 11.250000 11.350000 11.450000 11.550000 11.650000 11.750000 11.850000 11.950000 12.050000 12.150000 12.250000 12.350000 12.450000 12.550000 12.650000 12.750000 12.850000 12.950000 13.050000 13.150000 13.250000 13.350000 13.450000 13.550000 13.650000 13.750000 13.850000 13.950000 14.050000 14.150000 14.250000 14.350000 14.450000 14.550000 14.650000 14.750000 14.850000 14.950000 15.050000 15.150000 15.250000 15.350000 15.450000 15.550000 15.650000 15.750000 15.850000 15.950000 16.050000 16.150000 16.250000 16.350000 16.450000 16.550000 16.650000 16.750000 16.850000 16.950000 17.050000 17.150000 17.250000 17.350000 17.450000 17.550000 17.650000 17.750000 17.850000 17.950000 18.050000 18.150000 18.250000 18.350000 18.450000 18.550000 18.650000 18.750000 18.850000 18.950000 19.050000 19.150000 19.250000 19.350000 19.450000 19.550000 19.650000 19.750000 19.850000 19.950000 
Y_COORDINATES 50 double
0.050000 0.150000 0.250000 0.350000 0.450000 0.550000 0.650000 0.750000 0.850000 0.950000 1.050000 1.150000 1.250000 1.350000 1.450000 1.550000 1.650000 1.750000 1.850000 1.950000 2.050000 2.150000 2.250000 2.350000 2.450000 2.550000 2.650000 2.750000 2.850000 2.950000 3.050000 3.150000 3.250000 3.350000 3.450000 3.550000 3.650000 3.750000 3.850000 3.950000 4.050000 4.150000 4.250000 4.350000 4.450000 4.550000 4.650000 4.750000 4.850000 4.950000 
Z_COORDINATES 1 double
0.0
POINT_DATA 10000
VECTORS Vektorfeld double
0.996423 0.003577 0.0
0.986655 0.006192 0.0
0.973161 0.007302 0.0
0.958019 0.007840 0.0
0.942054 0.008126 0.0
0.925644 0.008286 0.0
0.908983 0.008375 0.0
0.892187 0.008422 0.0
0.875326 0.008440 0.0
0.858447 0.008439 0.0
0.841584 0.008424 0.0
0.824761 0.008400 0.0
0.807993 0.008369 0.0
0.791291 0.008334 0.0
0.774657 0.008299 0.0
0.758093 0.008266 0.0
0.741590 0.008237 0.0
0.725138 0.008215 0.0
0.708720 0.008203 0.0
0.692316 0.008202 0.0
0.675898 0.008216 0.0
0.659436 0.008246 0.0
0.642892 0.008298 0.0
0.626219 0.008375 0.0
0.609361 0.008483 0.0
0.592248 0.008630 0.0
0.574790 0.008828 0.0
0.556871 0.009091 0.0
0.538341 0.009439 0.0
0.519003 0.009900 0.0
0.498592 0.010511 0.0
0.476757 0.011323 0.0
0.453029 0.012405 0.0
0.426777 0.013847 0.0
0.397163 0.015768 0.0
0.363082 0.018313 0.0
0.323120 0.021649 0.0
0.275540 0.025931 0.0
0.218389 0.031220 0.0
0.149851 0.037319 0.0
0.068892 0.043641 0.0
-0.020271 0.045522 0.0
-0.083513 0.017720 0.0
-0.050617 -0.050617 0.0
0.500000 0.050640 0.0
1.000000 0.000000 0.0
1.000000 0.000000 0.0
1.000000 0.000000 0.0
1.000000 0.000000 0.0
1.000000 0.000000 0.0
0.500000 0.040265 0.0
0.040130 -0.040130 0.0
0.102598 -0.022339 0.0
0.132695 -0.007758 0.0
0.138617 0.001835 0.0
0.130032 0.006750 0.0
0.120131 0.003151 0.0
0.127217 -0.010237 0.0
0.147605 -0.010150 0.0
0.144572 0.013183 0.0
0.103537 0.027852 0.0
0.038950 0.036734 0.0
-0.041533 0.043749 0.0
-0.136362 0.051080 0.0
-0.244776 0.057334 0.0
-0.363204 0.061094 0.0
-0.486309 0.062010 0.0
-0.608506 0.060187 0.0
-0.724603 0.055910 0.0
-0.830074 0.049561 0.0
-0.921257 0.041623 0.0
-0.995553 0.032673 0.0
-1.051559 0.023334 0.0
-1.089081 0.014188 0.0
-1.108960 0.005691 0.0
-1.112729 -0.001922 0.0
-1.102195 -0.008612 0.0
-1.079688 -0.013895 0.0
-1.047992 -0.017801 0.0
-1.009694 -0.020497 0.0
-0.967031 -0.022166 0.0
-0.921893 -0.022972 0.0
-0.875872 -0.023049 0.0
-0.830308 -0.022515 0.0
-0.786318 -0.021475 0.0
-0.744818 -0.020025 0.0
-0.706529 -0.018263 0.0
-0.671988 -0.016278 0.0
-0.641555 -0.014154 0.0
-0.615433 -0.011968 0.0
-0.593680 -0.009785 0.0
-0.576226 -0.007669 0.0
-0.562885 -0.005673 0.0
-0.553367 -0.003845 0.0
-0.547300 -0.002222 0.0
-0.544247 -0.000831 0.0
-0.543726 0.000310 0.0
-0.545242 0.001205 0.0
-0.548339 0.001892 0.0
-0.552618 0.002387 0.0
-0.557716 0.002711 0.0
-0.563305 0.002878 0.0
-0.569086 0.002903 0.0
-0.574785 0.002796 0.0
-0.580146 0.002565 0.0
-0.584927 0.002216 0.0
-0.588913 0.001769 0.0
-0.591905 0.001223 0.0
-0.593729 0.000600 0.0
-0.594240 -0.000088 0.0
-0.593312 -0.000840 0.0
-0.590842 -0.001630 0.0
-0.586774 -0.002439 0.0
-0.581081 -0.003254 0.0
-0.573768 -0.004060 0.0
-0.564866 -0.004842 0.0
-0.554436 -0.005587 0.0
-0.542569 -0.006280 0.0
-0.529384 -0.006905 0.0
-0.515032 -0.007447 0.0
-0.499692 -0.007893 0.0
-0.483565 -0.008233 0.0
-0.466874 -0.008458 0.0
-0.449853 -0.008562 0.0
-0.432749 -0.008542 0.0
-0.415809 -0.008398 0.0
-0.399275 -0.008135 0.0
-0.383379 -0.007761 0.0
-0.368329 -0.007288 0.0
-0.354309 -0.006731 0.0
-0.341469 -0.006108 0.0
-0.329922 -0.005439 0.0
-0.319741 -0.004742 0.0
-0.310963 -0.004037 0.0
-0.303581 -0.003345 0.0
-0.297549 -0.002688 0.0
-0.292770 -0.002090 0.0
-0.289107 -0.001573 0.0
-0.286377 -0.001157 0.0
-0.284363 -0.000857 0.0
-0.282825 -0.000681 0.0
-0.281509 -0.000635 0.0
-0.280155 -0.000719 0.0
-0.278506 -0.000931 0.0
-0.276309 -0.001266 0.0
-0.273331 -0.001712 0.0
-0.269369 -0.002250 0.0
-0.264261 -0.002858 0.0
-0.257890 -0.003513 0.0
-0.250189 -0.004187 0.0
-0.241155 -0.004847 0.0
-0.230844 -0.005464 0.0
-0.219360 -0.006019 0.0
-0.206860 -0.006481 0.0
-0.193538 -0.006841 0.0
-0.179607 -0.007091 0.0
-0.165293 -0.007224 0.0
-0.150824 -0.007245 0.0
-0.136400 -0.007178 0.0
-0.122215 -0.007007 0.0
-0.108446 -0.006762 0.0
-0.095267 -0.006417 0.0
-0.082887 -0.005962 0.0
-0.071477 -0.005447 0.0
-0.061122 -0.004908 0.0
-0.051852 -0.004362 0.0
-0.043666 -0.003824 0.0
-0.036539 -0.003303 0.0
-0.030418 -0.002818 0.0
-0.025215 -0.002384 0.0
-0.020817 -0.002015 0.0
-0.017083 -0.001719 0.0
-0.013857 -0.001506 0.0
-0.010973 -0.001379 0.0
-0.008255 -0.001339 0.0
-0.005532 -0.001385 0.0
-0.002636 -0.001512 0.0
0.000588 -0.001712 0.0
0.004279 -0.001979 0.0
0.008555 -0.002297 0.0
0.013499 -0.002647 0.0
0.019153 -0.003007 0.0
0.025513 -0.003354 0.0
0.032535 -0.003668 0.0
0.040130 -0.003927 0.0
0.048171 -0.004114 0.0
0.056499 -0.004214 0.0
0.064927 -0.004215 0.0
0.073257 -0.004114 0.0
0.081281 -0.003911 0.0
0.088809 -0.003616 0.0
0.095672 -0.003247 0.0
0.101740 -0.002821 0.0
0.106919 -0.002358 0.0
0.111152 -0.001875 0.0
0.114422 -0.001395 0.0
0.116766 -0.000949 0.0
0.118311 -0.000597 0.0
0.119360 -0.000452 0.0
0.121249 -0.001438 0.0
1.001719 0.005435 0.0
1.005212 0.010609 0.0
1.008234 0.013357 0.0
1.010183 0.014978 0.0
1.011112 0.016024 0.0
1.011162 0.016748 0.0
1.010458 0.017278 0.0
1.009093 0.017681 0.0
1.007139 0.017996 0.0
1.004652 0.018248 0.0
1.001676 0.018453 0.0
0.998247 0.018623 0.0
0.994392 0.018768 0.0
0.990132 0.018897 0.0
0.985484 0.019018 0.0
0.980455 0.019140 0.0
0.975051 0.019270 0.0
0.969268 0.019417 0.0
0.963099 0.019587 0.0
0.956532 0.019789 0.0
0.949547 0.020031 0.0
0.942120 0.020321 0.0
0.934218 0.020670 0.0
0.925801 0.021093 0.0
0.916815 0.021608 0.0
0.907192 0.022241 0.0
0.896845 0.023023 0.0
0.885658 0.024002 0.0
0.873478 0.025238 0.0
0.860103 0.026815 0.0
0.845261 0.028849 0.0
0.828585 0.031495 0.0
0.809581 0.034965 0.0
0.787576 0.039545 0.0
0.761653 0.045607 0.0
0.730577 0.053630 0.0
0.692697 0.064174 0.0
0.645869 0.077815 0.0
0.587449 0.094907 0.0
0.514588 0.115029 0.0
0.425728 0.135750 0.0
0.322785 0.145519 0.0
0.201114 0.102636 0.0
0.066959 -0.034275 0.0
0.500000 0.034334 0.0
1.000000 0.000000 0.0
1.000000 0.000000 0.0
1.000000 0.000000 0.0
1.000000 0.000000 0.0
1.000000 0.000000 0.0
0.500000 0.112123 0.0
0.031449 -0.111709 0.0
0.081549 -0.063329 0.0
0.107857 -0.023173 0.0
0.115989 0.003195 0.0
0.103904 0.026060 0.0
0.067187 0.030459 0.0
0.001171 0.021383 0.0
-0.084979 0.023992 0.0
-0.160031 0.057126 0.0
-0.221627 0.086539 0.0
-0.288788 0.109795 0.0
-0.368146 0.130530 0.0
-0.459728 0.150711 0.0
-0.560998 0.167387 0.0
-0.669088 0.177560 0.0
-0.780440 0.180000 0.0
-0.890641 0.174594 0.0
-0.994925 0.161884 0.0
-1.088749 0.142881 0.0
-1.168273 0.119010 0.0
-1.230727 0.092034 0.0
-1.274636 0.063888 0.0
-1.299915 0.036435 0.0
-1.307804 0.011212 0.0
-1.300542 -0.010936 0.0
-1.281587 -0.029087 0.0
-1.254458 -0.043056 0.0
-1.221584 -0.053210 0.0
-1.184884 -0.060086 0.0
-1.145914 -0.064210 0.0
-1.105940 -0.066041 0.0
-1.065978 -0.065962 0.0
-1.026842 -0.064303 0.0
-0.989168 -0.061352 0.0
-0.953438 -0.057378 0.0
-0.920005 -0.052632 0.0
-0.889108 -0.047348 0.0
-0.860891 -0.041734 0.0
-0.835429 -0.035973 0.0
-0.812734 -0.030227 0.0
-0.792772 -0.024642 0.0
-0.775467 -0.019347 0.0
-0.760697 -0.014458 0.0
-0.748302 -0.010070 0.0
-0.738088 -0.006250 0.0
-0.729844 -0.003036 0.0
-0.723345 -0.000431 0.0
-0.718326 0.001606 0.0
-0.714489 0.003116 0.0
-0.711538 0.004128 0.0
-0.709166 0.004677 0.0
-0.707081 0.004799 0.0
-0.705011 0.004529 0.0
-0.702706 0.003887 0.0
-0.699914 0.002883 0.0
-0.696418 0.001593 0.0
-0.692111 0.000085 0.0
-0.686924 -0.001626 0.0
-0.680754 -0.003520 0.0
-0.673519 -0.005571 0.0
-0.665154 -0.007733 0.0
-0.655595 -0.009963 0.0
-0.644798 -0.012220 0.0
-0.632743 -0.014462 0.0
-0.619438 -0.016647 0.0
-0.604920 -0.018731 0.0
-0.589254 -0.020670 0.0
-0.572536 -0.022418 0.0
-0.554890 -0.023932 0.0
-0.536466 -0.025173 0.0
-0.517436 -0.026110 0.0
-0.497987 -0.026722 0.0
-0.478318 -0.026988 0.0
-0.458638 -0.026900 0.0
-0.439160 -0.026459 0.0
-0.420090 -0.025678 0.0
-0.401623 -0.024582 0.0
-0.383936 -0.023204 0.0
-0.367184 -0.021588 0.0
-0.351491 -0.019784 0.0
-0.336955 -0.017847 0.0
-0.323636 -0.015833 0.0
-0.311564 -0.013797 0.0
-0.300730 -0.011800 0.0
-0.291088 -0.009908 0.0
-0.282550 -0.008187 0.0
-0.274990 -0.006701 0.0
-0.268240 -0.005509 0.0
-0.262103 -0.004656 0.0
-0.256360 -0.004165 0.0
-0.250775 -0.004052 0.0
-0.245102 -0.004327 0.0
-0.239088 -0.004985 0.0
-0.232488 -0.006009 0.0
-0.225076 -0.007359 0.0
-0.216663 -0.008978 0.0
-0.207105 -0.010796 0.0
-0.196303 -0.012749 0.0
-0.184206 -0.014748 0.0
-0.170828 -0.016699 0.0
-0.156229 -0.018523 0.0
-0.140492 -0.020181 0.0
-0.123749 -0.021563 0.0
-0.106186 -0.022644 0.0
-0.087996 -0.023408 0.0
-0.069378 -0.023838 0.0
-0.050530 -0.023948 0.0
-0.031704 -0.023725 0.0
-0.013178 -0.023171 0.0
0.004778 -0.022325 0.0
0.021953 -0.021209 0.0
0.038254 -0.019851 0.0
0.053620 -0.018335 0.0
0.067978 -0.016734 0.0
0.081275 -0.015103 0.0
0.093493 -0.013486 0.0
0.104653 -0.011927 0.0
0.114811 -0.010474 0.0
0.124053 -0.009173 0.0
0.132491 -0.008063 0.0
0.140264 -0.007178 0.0
0.147532 -0.006541 0.0
0.154474 -0.006170 0.0
0.161282 -0.006072 0.0
0.168149 -0.006242 0.0
0.175267 -0.006669 0.0
0.182819 -0.007330 0.0
0.190962 -0.008196 0.0
0.199828 -0.009222 0.0
0.209513 -0.010352 0.0
0.220080 -0.011522 0.0
0.231548 -0.012667 0.0
0.243891 -0.013720 0.0
0.257039 -0.014618 0.0
0.270879 -0.015304 0.0
0.285260 -0.015732 0.0
0.300001 -0.015867 0.0
0.314898 -0.015688 0.0
0.329729 -0.015193 0.0
0.344262 -0.014396 0.0
0.358263 -0.013331 0.0
0.371496 -0.012038 0.0
0.383737 -0.010562 0.0
0.394787 -0.008955 0.0
0.404488 -0.007285 0.0
0.412741 -0.005655 0.0
0.419541 -0.004237 0.0
0.425018 -0.003337 0.0
0.429060 -0.004483 0.0
1.000673 0.003044 0.0
1.002543 0.007638 0.0
1.005005 0.010845 0.0
1.007434 0.013113 0.0
1.009611 0.014782 0.0
1.011483 0.016067 0.0
1.013052 0.017095 0.0
1.014335 0.017945 0.0
1.015351 0.018669 0.0
1.016115 0.019298 0.0
1.016638 0.019856 0.0
1.016929 0.020359 0.0
1.016993 0.020824 0.0
1.016831 0.021263 0.0
1.016442 0.021690 0.0
1.015822 0.022117 0.0
1.014964 0.022557 0.0
1.013855 0.023022 0.0
1.012483 0.023524 0.0
1.010828 0.024075 0.0
1.008869 0.024689 0.0
1.006579 0.025379 0.0
1.003928 0.026164 0.0
1.000880 0.027065 0.0
0.997392 0.028111 0.0
0.993411 0.029341 0.0
0.988874 0.030807 0.0
0.983702 0.032578 0.0
0.977793 0.034750 0.0
0.971018 0.037453 0.0
0.963203 0.040867 0.0
0.954117 0.045238 0.0
0.943441 0.050903 0.0
0.930725 0.058328 0.0
0.915328 0.068144 0.0
0.896311 0.081187 0.0
0.872279 0.098528 0.0
0.841132 0.121436 0.0
0.799688 0.151151 0.0
0.743147 0.188187 0.0
0.664315 0.230284 0.0
0.551728 0.266515 0.0
0.386493 0.268546 0.0
0.143889 0.176574 0.0
0.500000 -0.176478 0.0
1.000000 0.000000 0.0
1.000000 0.000000 0.0
1.000000 0.000000 0.0
1.000000 0.000000 0.0
1.000000 0.000000 0.0
0.500000 0.156732 0.0
0.012884 -0.156042 0.0
0.028938 -0.085149 0.0
0.010960 -0.009683 0.0
-0.043968 0.036502 0.0
-0.108732 0.069601 0.0
-0.172232 0.087135 0.0
-0.237283 0.095775 0.0
-0.300972 0.099440 0.0
-0.357286 0.113045 0.0
-0.404185 0.139113 0.0
-0.451195 0.171392 0.0
-0.507408 0.204503 0.0
-0.574049 0.234959 0.0
-0.649040 0.259400 0.0
-0.730081 0.274678 0.0
-0.814466 0.278618 0.0
-0.898642 0.270353 0.0
-0.978452 0.250220 0.0
-1.049663 0.219581 0.0
-1.108522 0.180694 0.0
-1.152276 0.136559 0.0
-1.179589 0.090586 0.0
-1.190611 0.046038 0.0
-1.186727 0.005613 0.0
-1.170736 -0.028590 0.0
-1.145815 -0.055309 0.0
-1.114512 -0.075266 0.0
-1.079003 -0.089384 0.0
-1.041002 -0.098613 0.0
-1.001851 -0.103803 0.0
-0.962599 -0.105675 0.0
-0.924052 -0.104836 0.0
-0.886812 -0.101805 0.0
-0.851301 -0.097034 0.0
-0.817794 -0.090931 0.0
-0.786448 -0.083858 0.0
-0.757331 -0.076137 0.0
-0.730455 -0.068037 0.0
-0.705807 -0.059781 0.0
-0.683361 -0.051560 0.0
-0.663089 -0.043542 0.0
-0.644954 -0.035887 0.0
-0.628897 -0.028744 0.0
-0.614835 -0.022241 0.0
-0.602654 -0.016474 0.0
-0.592208 -0.011503 0.0
-0.583320 -0.007350 0.0
-0.575794 -0.004020 0.0
-0.569404 -0.001484 0.0
-0.563916 0.000289 0.0
-0.559111 0.001339 0.0
-0.554770 0.001711 0.0
-0.550665 0.001444 0.0
-0.546570 0.000572 0.0
-0.542392 -0.000771 0.0
-0.538075 -0.002565 0.0
-0.533397 -0.004742 0.0
-0.528109 -0.007274 0.0
-0.522037 -0.010115 0.0
-0.515039 -0.013208 0.0
-0.507002 -0.016498 0.0
-0.497838 -0.019921 0.0
-0.487487 -0.023410 0.0
-0.475916 -0.026898 0.0
-0.463117 -0.030314 0.0
-0.449114 -0.033584 0.0
-0.433963 -0.036634 0.0
-0.417749 -0.039387 0.0
-0.400590 -0.041768 0.0
-0.382633 -0.043717 0.0
-0.364045 -0.045185 0.0
-0.345005 -0.046137 0.0
-0.325710 -0.046537 0.0
-0.306372 -0.046369 0.0
-0.287207 -0.045633 0.0
-0.268427 -0.044354 0.0
-0.250230 -0.042570 0.0
-0.232798 -0.040335 0.0
-0.216293 -0.037715 0.0
-0.200847 -0.034795 0.0
-0.186558 -0.031662 0.0
-0.173491 -0.028403 0.0
-0.161679 -0.025110 0.0
-0.151118 -0.021882 0.0
-0.141768 -0.018819 0.0
-0.133545 -0.016035 0.0
-0.126323 -0.013635 0.0
-0.119934 -0.011713 0.0
-0.114171 -0.010351 0.0
-0.108808 -0.009576 0.0
-0.103600 -0.009433 0.0
-0.098274 -0.009946 0.0
-0.092548 -0.011106 0.0
-0.086156 -0.012880 0.0
-0.078862 -0.015193 0.0
-0.070465 -0.017954 0.0
-0.060820 -0.021023 0.0
-0.049836 -0.024308 0.0
-0.037464 -0.027658 0.0
-0.023711 -0.030921 0.0
-0.008649 -0.033962 0.0
0.007552 -0.036680 0.0
0.024722 -0.038977 0.0
0.042721 -0.040793 0.0
0.061350 -0.042079 0.0
0.080373 -0.042808 0.0
0.099533 -0.042985 0.0
0.118591 -0.042572 0.0
0.137343 -0.041601 0.0
0.155602 -0.040109 0.0
0.173197 -0.038194 0.0
0.189970 -0.035940 0.0
0.205791 -0.033433 0.0
0.220564 -0.030766 0.0
0.234224 -0.028028 0.0
0.246746 -0.025302 0.0
0.258146 -0.022672 0.0
0.268476 -0.020218 0.0
0.277823 -0.018017 0.0
0.286302 -0.016137 0.0
0.294061 -0.014636 0.0
0.301270 -0.013560 0.0
0.308118 -0.012942 0.0
0.314810 -0.012799 0.0
0.321556 -0.013128 0.0
0.328566 -0.013912 0.0
0.336041 -0.015113 0.0
0.344160 -0.016675 0.0
0.353075 -0.018524 0.0
0.362906 -0.020567 0.0
0.373731 -0.022700 0.0
0.385585 -0.024811 0.0
0.398454 -0.026788 0.0
0.412279 -0.028522 0.0
0.426952 -0.029913 0.0
0.442326 -0.030879 0.0
0.458220 -0.031356 0.0
0.474426 -0.031301 0.0
0.490714 -0.030699 0.0
0.506848 -0.029558 0.0
0.522587 -0.027909 0.0
0.537697 -0.025803 0.0
0.551963 -0.023304 0.0
0.565196 -0.020496 0.0
0.577238 -0.017486 0.0
0.587947 -0.014416 0.0
0.597159 -0.011488 0.0
0.604588 -0.008992 0.0
0.609471 -0.007753 0.0
1.000310 0.002060 0.0
1.001328 0.005734 0.0
1.002909 0.008705 0.0
1.004685 0.011047 0.0
1.006451 0.012906 0.0
1.008111 0.014411 0.0
1.009631 0.015661 0.0
1.011003 0.016724 0.0
1.012230 0.017648 0.0
1.013320 0.018466 0.0
1.014280 0.019204 0.0
1.015117 0.019883 0.0
1.015836 0.020518 0.0
1.016439 0.021127 0.0
1.016928 0.021725 0.0
1.017299 0.022329 0.0
1.017549 0.022953 0.0
1.017669 0.023613 0.0
1.017650 0.024324 0.0
1.017479 0.025102 0.0
1.017139 0.025961 0.0
1.016614 0.026921 0.0
1.015884 0.028003 0.0
1.014925 0.029233 0.0
1.013713 0.030644 0.0
1.012221 0.032282 0.0
1.010419 0.034206 0.0
1.008274 0.036496 0.0
1.005750 0.039264 0.0
1.002807 0.042658 0.0
0.999399 0.046886 0.0
0.995465 0.052238 0.0
0.990928 0.059117 0.0
0.985666 0.068092 0.0
0.979475 0.079968 0.0
0.971976 0.095877 0.0
0.962441 0.117405 0.0
0.949417 0.146729 0.0
0.929995 0.186723 0.0
0.898305 0.240847 0.0
0.842515 0.312246 0.0
0.739173 0.400483 0.0
0.545839 0.493147 0.0
0.209976 0.530440 0.0
0.500000 -0.530281 0.0
1.000000 0.000000 0.0
1.000000 0.000000 0.0
1.000000 0.000000 0.0
1.000000 0.000000 0.0
1.000000 0.000000 0.0
0.500000 0.151697 0.0
-0.018151 -0.150775 0.0
-0.071243 -0.053377 0.0
-0.140574 0.045853 0.0
-0.206695 0.102016 0.0
-0.270848 0.133003 0.0
-0.333925 0.150311 0.0
-0.391644 0.155369 0.0
-0.439280 0.151172 0.0
-0.468982 0.147330 0.0
-0.481058 0.163803 0.0
-0.493043 0.205697 0.0
-0.518536 0.251904 0.0
-0.556635 0.292297 0.0
-0.604250 0.324669 0.0
-0.660174 0.346375 0.0
-0.722950 0.354081 0.0
-0.789586 0.345702 0.0
-0.855800 0.320896 0.0
-0.916644 0.280960 0.0
-0.967196 0.228725 0.0
-1.003367 0.168453 0.0
-1.022807 0.105444 0.0
-1.025501 0.044897 0.0
-1.013212 -0.009419 0.0
-0.989161 -0.053601 0.0
-0.956887 -0.087494 0.0
-0.919056 -0.112214 0.0
-0.877763 -0.129238 0.0
-0.834589 -0.139934 0.0
-0.790794 -0.145429 0.0
-0.747440 -0.146655 0.0
-0.705416 -0.144427 0.0
-0.665413 -0.139459 0.0
-0.627908 -0.132396 0.0
-0.593166 -0.123818 0.0
-0.561253 -0.114229 0.0
-0.532093 -0.104044 0.0
-0.505535 -0.093563 0.0
-0.481425 -0.083014 0.0
-0.459637 -0.072561 0.0
-0.440096 -0.062354 0.0
-0.422748 -0.052559 0.0
-0.407534 -0.043343 0.0
-0.394379 -0.034859 0.0
-0.383182 -0.027235 0.0
-0.373808 -0.020563 0.0
-0.366091 -0.014895 0.0
-0.359841 -0.010253 0.0
-0.354848 -0.006635 0.0
-0.350885 -0.004011 0.0
-0.347707 -0.002344 0.0
-0.345065 -0.001588 0.0
-0.342757 -0.001670 0.0
-0.340723 -0.002444 0.0
-0.338777 -0.003880 0.0
-0.336591 -0.005959 0.0
-0.333957 -0.008660 0.0
-0.330699 -0.011902 0.0
-0.326647 -0.015612 0.0
-0.321644 -0.019711 0.0
-0.315562 -0.024115 0.0
-0.308294 -0.028734 0.0
-0.299766 -0.033476 0.0
-0.289928 -0.038242 0.0
-0.278762 -0.042934 0.0
-0.266286 -0.047442 0.0
-0.252554 -0.051659 0.0
-0.237654 -0.055475 0.0
-0.221711 -0.058782 0.0
-0.204878 -0.061493 0.0
-0.187332 -0.063543 0.0
-0.169250 -0.064900 0.0
-0.150832 -0.065486 0.0
-0.132305 -0.065285 0.0
-0.113905 -0.064282 0.0
-0.095866 -0.062524 0.0
-0.078403 -0.060060 0.0
-0.061713 -0.056966 0.0
-0.045976 -0.053327 0.0
-0.031345 -0.049260 0.0
-0.017936 -0.044894 0.0
-0.005811 -0.040363 0.0
0.004991 -0.035765 0.0
0.014446 -0.031243 0.0
0.022602 -0.026964 0.0
0.029576 -0.023086 0.0
0.035518 -0.019749 0.0
0.040610 -0.017080 0.0
0.045026 -0.015164 0.0
0.048984 -0.014084 0.0
0.052774 -0.013923 0.0
0.056703 -0.014711 0.0
0.061068 -0.016431 0.0
0.066152 -0.019032 0.0
0.072222 -0.022405 0.0
0.079507 -0.026424 0.0
0.088201 -0.030892 0.0
0.098431 -0.035653 0.0
0.110245 -0.040499 0.0
0.123633 -0.045220 0.0
0.138526 -0.049618 0.0
0.154814 -0.053513 0.0
0.172317 -0.056818 0.0
0.190793 -0.059427 0.0
0.209980 -0.061260 0.0
0.229607 -0.062277 0.0
0.249397 -0.062467 0.0
0.269086 -0.061838 0.0
0.288434 -0.060435 0.0
0.307226 -0.058326 0.0
0.325268 -0.055615 0.0
0.342392 -0.052416 0.0
0.358462 -0.048849 0.0
0.373376 -0.045039 0.0
0.387073 -0.041112 0.0
0.399526 -0.037194 0.0
0.410753 -0.033407 0.0
0.420807 -0.029867 0.0
0.429779 -0.026686 0.0
0.437795 -0.023963 0.0
0.445010 -0.021783 0.0
0.451606 -0.020217 0.0
0.457788 -0.019315 0.0
0.463775 -0.019104 0.0
0.469795 -0.019589 0.0
0.476076 -0.020744 0.0
0.482838 -0.022518 0.0
0.490280 -0.024831 0.0
0.498572 -0.027576 0.0
0.507849 -0.030622 0.0
0.518199 -0.033820 0.0
0.529662 -0.037008 0.0
0.542226 -0.040024 0.0
0.555824 -0.042708 0.0
0.570342 -0.044917 0.0
0.585620 -0.046528 0.0
0.601464 -0.047446 0.0
0.617655 -0.047606 0.0
0.633954 -0.046982 0.0
0.650120 -0.045575 0.0
0.665912 -0.043423 0.0
0.681101 -0.040588 0.0
0.695476 -0.037160 0.0
0.708850 -0.033247 0.0
0.721054 -0.028981 0.0
0.731926 -0.024503 0.0
0.741269 -0.019957 0.0
0.748770 -0.015454 0.0
0.753693 -0.011095 0.0
1.000175 0.001576 0.0
1.000800 0.004577 0.0
1.001860 0.007220 0.0
1.003151 0.009465 0.0
1.004520 0.011353 0.0
1.005876 0.012948 0.0
1.007168 0.014312 0.0
1.008375 0.015495 0.0
1.009486 0.016538 0.0
1.010503 0.017470 0.0
1.011427 0.018316 0.0
1.012263 0.019097 0.0
1.013016 0.019832 0.0
1.013688 0.020538 0.0
1.014281 0.021233 0.0
1.014797 0.021935 0.0
1.015232 0.022662 0.0
1.015584 0.023432 0.0
1.015847 0.024262 0.0
1.016015 0.025169 0.0
1.016078 0.026171 0.0
1.016027 0.027287 0.0
1.015854 0.028541 0.0
1.015548 0.029959 0.0
1.015103 0.031575 0.0
1.014513 0.033433 0.0
1.013779 0.035591 0.0
1.012908 0.038127 0.0
1.011920 0.041145 0.0
1.010850 0.044788 0.0
1.009763 0.049252 0.0
1.008756 0.054812 0.0
1.007979 0.061857 0.0
1.007642 0.070950 0.0
1.008029 0.082915 0.0
1.009474 0.098984 0.0
1.012278 0.121031 0.0
1.016445 0.151960 0.0
1.020994 0.196366 0.0
1.022232 0.261657 0.0
1.009515 0.359942 0.0
0.954829 0.510816 0.0
0.787758 0.743218 0.0
0.331787 1.072203 0.0
0.500000 -1.071933 0.0
1.000000 0.000000 0.0
1.000000 0.000000 0.0
1.000000 0.000000 0.0
1.000000 0.000000 0.0
1.000000 0.000000 0.0
0.500000 0.085249 0.0
-0.048489 -0.084136 0.0
-0.148665 0.033252 0.0
-0.238103 0.117991 0.0
-0.310969 0.168866 0.0
-0.378491 0.197828 0.0
-0.439511 0.209585 0.0
-0.491524 0.205826 0.0
-0.527876 0.184702 0.0
-0.526785 0.142411 0.0
-0.483807 0.137818 0.0
-0.445683 0.205543 0.0
-0.440369 0.272237 0.0
-0.452910 0.322605 0.0
-0.475700 0.364765 0.0
-0.511204 0.397707 0.0
-0.560553 0.414874 0.0
-0.620734 0.411727 0.0
-0.686086 0.386437 0.0
-0.749427 0.339603 0.0
-0.803129 0.274336 0.0
-0.840571 0.196456 0.0
-0.857925 0.114234 0.0
-0.855259 0.036136 0.0
-0.836268 -0.031937 0.0
-0.805833 -0.085568 0.0
-0.767946 -0.125688 0.0
-0.725455 -0.154341 0.0
-0.680094 -0.173766 0.0
-0.632920 -0.185754 0.0
-0.584746 -0.191578 0.0
-0.536413 -0.192193 0.0
-0.488844 -0.188482 0.0
-0.442978 -0.181273 0.0
-0.399675 -0.171388 0.0
-0.359619 -0.159625 0.0
-0.323239 -0.146716 0.0
-0.290642 -0.133314 0.0
-0.261675 -0.119818 0.0
-0.236064 -0.106481 0.0
-0.213532 -0.093414 0.0
-0.193888 -0.080687 0.0
-0.176990 -0.068472 0.0
-0.162699 -0.056935 0.0
-0.150873 -0.046247 0.0
-0.141353 -0.036564 0.0
-0.133957 -0.028003 0.0
-0.128486 -0.020642 0.0
-0.124720 -0.014522 0.0
-0.122425 -0.009654 0.0
-0.121351 -0.006028 0.0
-0.121241 -0.003614 0.0
-0.121850 -0.002351 0.0
-0.122918 -0.002148 0.0
-0.124079 -0.002838 0.0
-0.125117 -0.004393 0.0
-0.125929 -0.006820 0.0
-0.126301 -0.010060 0.0
-0.126033 -0.014028 0.0
-0.124931 -0.018641 0.0
-0.122819 -0.023796 0.0
-0.119545 -0.029387 0.0
-0.114981 -0.035294 0.0
-0.109030 -0.041396 0.0
-0.101624 -0.047566 0.0
-0.092722 -0.053679 0.0
-0.082325 -0.059571 0.0
-0.070491 -0.065097 0.0
-0.057316 -0.070112 0.0
-0.042927 -0.074478 0.0
-0.027476 -0.078080 0.0
-0.011160 -0.080818 0.0
0.005752 -0.082618 0.0
0.023003 -0.083437 0.0
0.040394 -0.083252 0.0
0.057716 -0.082036 0.0
0.074738 -0.079831 0.0
0.091216 -0.076695 0.0
0.106921 -0.072725 0.0
0.121647 -0.068032 0.0
0.135224 -0.062763 0.0
0.147506 -0.057082 0.0
0.158373 -0.051167 0.0
0.167772 -0.045161 0.0
0.175723 -0.039253 0.0
0.182282 -0.033670 0.0
0.187539 -0.028611 0.0
0.191635 -0.024263 0.0
0.194764 -0.020787 0.0
0.197187 -0.018295 0.0
0.199204 -0.016928 0.0
0.201120 -0.016786 0.0
0.203252 -0.017908 0.0
0.205933 -0.020279 0.0
0.209494 -0.023829 0.0
0.214249 -0.028432 0.0
0.220471 -0.033905 0.0
0.228382 -0.040016 0.0
0.238130 -0.046508 0.0
0.249781 -0.053108 0.0
0.263318 -0.059535 0.0
0.278650 -0.065529 0.0
0.295620 -0.070860 0.0
0.314005 -0.075358 0.0
0.333528 -0.078885 0.0
0.353886 -0.081346 0.0
0.374760 -0.082692 0.0
0.395833 -0.082915 0.0
0.416801 -0.082047 0.0
0.437381 -0.080155 0.0
0.457323 -0.077339 0.0
0.476404 -0.073726 0.0
0.494437 -0.069463 0.0
0.511272 -0.064707 0.0
0.526799 -0.059622 0.0
0.540951 -0.054376 0.0
0.553703 -0.049135 0.0
0.565074 -0.044062 0.0
0.575122 -0.039313 0.0
0.583945 -0.035036 0.0
0.591679 -0.031363 0.0
0.598493 -0.028412 0.0
0.604587 -0.026279 0.0
0.610186 -0.025033 0.0
0.615531 -0.024719 0.0
0.620880 -0.025343 0.0
0.626487 -0.026878 0.0
0.632602 -0.029260 0.0
0.639453 -0.032382 0.0
0.647240 -0.036103 0.0
0.656116 -0.040247 0.0
0.666185 -0.044613 0.0
0.677488 -0.048982 0.0
0.690004 -0.053130 0.0
0.703644 -0.056841 0.0
0.718260 -0.059918 0.0
0.733650 -0.062195 0.0
0.749568 -0.063542 0.0
0.765743 -0.063876 0.0
0.781891 -0.063160 0.0
0.797732 -0.061403 0.0
0.812999 -0.058654 0.0
0.827457 -0.055003 0.0
0.840903 -0.050567 0.0
0.853176 -0.045487 0.0
0.864148 -0.039918 0.0
0.873723 -0.034012 0.0
0.881811 -0.027877 0.0
0.888287 -0.021511 0.0
0.892738 -0.014412 0.0
1.000113 0.001288 0.0
1.000534 0.003820 0.0
1.001284 0.006166 0.0
1.002247 0.008266 0.0
1.003319 0.010112 0.0
1.004424 0.011729 0.0
1.005514 0.013149 0.0
1.006560 0.014406 0.0
1.007546 0.015529 0.0
1.008466 0.016542 0.0
1.009318 0.017468 0.0
1.010102 0.018325 0.0
1.010821 0.019133 0.0
1.011477 0.019909 0.0
1.012070 0.020674 0.0
1.012603 0.021446 0.0
1.013073 0.022245 0.0
1.013479 0.023091 0.0
1.013817 0.024001 0.0
1.014084 0.024995 0.0
1.014275 0.026090 0.0
1.014386 0.027307 0.0
1.014415 0.028666 0.0
1.014362 0.030193 0.0
1.014229 0.031918 0.0
1.014028 0.033880 0.0
1.013779 0.036127 0.0
1.013515 0.038725 0.0
1.013295 0.041756 0.0
1.013208 0.045334 0.0
1.013394 0.049609 0.0
1.014065 0.054791 0.0
1.015544 0.061177 0.0
1.018312 0.069198 0.0
1.023083 0.079508 0.0
1.030899 0.093130 0.0
1.043250 0.111731 0.0
1.062192 0.138151 0.0
1.090377 0.177442 0.0
1.130678 0.239040 0.0
1.184431 0.341521 0.0
1.244192 0.524162 0.0
1.276330 0.864805 0.0
0.639464 1.788592 0.0
-1.837987 -0.701824 0.0
-3.644738 0.000000 0.0
-3.603066 0.000000 0.0
-3.582325 0.000000 0.0
-3.553183 0.000000 0.0
-3.495032 0.000000 0.0
-1.727860 0.018427 0.0
-0.088658 0.042525 0.0
-0.231808 0.139431 0.0
-0.330000 0.199443 0.0
-0.407876 0.238157 0.0
-0.468867 0.257049 0.0
-0.516744 0.259262 0.0
-0.556176 0.247594 0.0
-0.590889 0.213998 0.0
-0.556990 0.078126 0.0
-0.420451 0.022586 0.0
-0.314412 0.176614 0.0
-0.295047 0.276487 0.0
-0.290575 0.326425 0.0
-0.286353 0.379513 0.0
-0.301030 0.433141 0.0
-0.341235 0.468993 0.0
-0.401803 0.478357 0.0
-0.473944 0.457298 0.0
-0.547059 0.405199 0.0
-0.609884 0.325266 0.0
-0.652508 0.225593 0.0
-0.670135 0.120079 0.0
-0.664588 0.022077 0.0
-0.641919 -0.059539 0.0
-0.608195 -0.122125 0.0
-0.567843 -0.167370 0.0
-0.524179 -0.198814 0.0
-0.478961 -0.219872 0.0
-0.432862 -0.232921 0.0
-0.386070 -0.239376 0.0
-0.338750 -0.240048 0.0
-0.291208 -0.235738 0.0
-0.243895 -0.227196 0.0
-0.197416 -0.215246 0.0
-0.152497 -0.200741 0.0
-0.110033 -0.184443 0.0
-0.070842 -0.167375 0.0
-0.035409 -0.150158 0.0
-0.004048 -0.133113 0.0
0.023101 -0.116462 0.0
0.046169 -0.100351 0.0
0.065383 -0.084919 0.0
0.080950 -0.070346 0.0
0.093125 -0.056837 0.0
0.102205 -0.044574 0.0
0.108503 -0.033687 0.0
0.112332 -0.024258 0.0
0.113988 -0.016328 0.0
0.113761 -0.009916 0.0
0.111947 -0.005027 0.0
0.108840 -0.001619 0.0
0.104703 0.000399 0.0
0.099811 0.001061 0.0
0.094530 0.000396 0.0
0.089390 -0.001449 0.0
0.084764 -0.004326 0.0
0.080714 -0.008132 0.0
0.077362 -0.012873 0.0
0.074923 -0.018459 0.0
0.073603 -0.024769 0.0
0.073581 -0.031666 0.0
0.075009 -0.039006 0.0
0.078006 -0.046632 0.0
0.082648 -0.054378 0.0
0.088960 -0.062081 0.0
0.096925 -0.069531 0.0
0.106492 -0.076539 0.0
0.117569 -0.082922 0.0
0.130025 -0.088513 0.0
0.143689 -0.093160 0.0
0.158364 -0.096729 0.0
0.173844 -0.099099 0.0
0.189887 -0.100251 0.0
0.206209 -0.100151 0.0
0.222529 -0.098779 0.0
0.238580 -0.096161 0.0
0.254098 -0.092363 0.0
0.268836 -0.087499 0.0
0.282559 -0.081709 0.0
0.295062 -0.075167 0.0
0.306173 -0.068070 0.0
0.315762 -0.060636 0.0
0.323758 -0.053087 0.0
0.330150 -0.045670 0.0
0.334985 -0.038647 0.0
0.338367 -0.032272 0.0
0.340460 -0.026791 0.0
0.341490 -0.022418 0.0
0.341742 -0.019338 0.0
0.341546 -0.017707 0.0
0.341262 -0.017639 0.0
0.341268 -0.019194 0.0
0.341960 -0.022367 0.0
0.343737 -0.027081 0.0
0.346981 -0.033179 0.0
0.352024 -0.040425 0.0
0.359132 -0.048516 0.0
0.368481 -0.057106 0.0
0.380145 -0.065825 0.0
0.394097 -0.074306 0.0
0.410214 -0.082207 0.0
0.428289 -0.089228 0.0
0.448046 -0.095132 0.0
0.469154 -0.099743 0.0
0.491251 -0.102943 0.0
0.513961 -0.104679 0.0
0.536913 -0.104953 0.0
0.559752 -0.103816 0.0
0.582150 -0.101365 0.0
0.603812 -0.097733 0.0
0.624483 -0.093084 0.0
0.643947 -0.087602 0.0
0.662034 -0.081489 0.0
0.678617 -0.074951 0.0
0.693618 -0.068201 0.0
0.707005 -0.061451 0.0
0.718796 -0.054907 0.0
0.729050 -0.048770 0.0
0.737875 -0.043227 0.0
0.745417 -0.038449 0.0
0.751865 -0.034589 0.0
0.757442 -0.031772 0.0
0.762400 -0.030096 0.0
0.767019 -0.029621 0.0
0.771594 -0.030364 0.0
0.776430 -0.032299 0.0
0.781824 -0.035348 0.0
0.788058 -0.039380 0.0
0.795383 -0.044216 0.0
0.804001 -0.049629 0.0
0.814057 -0.055355 0.0
0.825621 -0.061106 0.0
0.838683 -0.066583 0.0
0.853150 -0.071495 0.0
0.868845 -0.075575 0.0
0.885513 -0.078595 0.0
0.902835 -0.080381 0.0
0.920443 -0.080819 0.0
0.937940 -0.079862 0.0