# vtk DataFile Version 3.0
Scalar Field
ASCII
DATASET RECTILINEAR_GRID
DIMENSIONS 200 50 1
X_COORDINATES 200 double
0.050000 0.150000 0.250000 0.350000 0.450000 0.550000 0.650000 0.750000 0.850000 0.950000 1.050000 1.150000 1.250000 1.350000 1.450000 1.550000 1.650000 1.750000 1.850000 1.950000 2.050000 2.150000 2.250000 2.350000 2.450000 2.550000 2.650000 2.750000 2.850000 2.950000 3.050000 3.150000 3.250000 3.350000 3.450000 3.550000 3.650000 3.750000 3.850000 3.950000 4.050000 4.150000 4.250000 4.350000 4.450000 4.550000 4.650000 4.750000 4.850000 4.950000 5.050000 5.150000 5.250000 5.350000 5.450000 5.550000 5.650000 5.750000 5.850000 5.950000 6.050000 6.150000 6.250000 6.350000 6.450000 6.550000 6.650000 6.750000 6.850000 6.950000 7.050000 7.150000 7.250000 7.350000 7.450000 7.550000 7.650000 7.750000 7.850000 7.950000 8.050000 8.150000 8.250000 8.350000 8.450000 8.550000 8.650000 8.750000 8.850000 8.950000 9.050000 9.150000 9.250000 9.350000 9.450000 9.550000 9.650000 9.750000 9.850000 9.950000 10.050000 10.150000 10.250000 10.350000 10.450000 10.550000 10.650000 10.750000 10.850000 10.950000 11.050000 11.150000 11.250000 11.350000 11.450000 11.550000 11.650000 11.750000 11.850000 11.950000 12.050000 12.150000 12.250000 12.350000 12.450000 12.550000 12.650000 12.750000 12.850000 12.950000 13.050000 13.150000 13.250000 13.350000 13.450000 13.550000 13.650000 13.750000 13.850000 13.950000 14.050000 14.150000 14.250000 14.350000 14.450000 14.550000 14.650000 14.750000 14.850000 14.950000 15.050000 15.150000 15.250000 15.350000 15.450000 15.550000 15.650000 15.750000 15.850000 15.950000 16.050000 16.150000 16.250000 16.350000 16.450000 16.550000 16.650000 16.750000 16.850000 16.950000 17.050000 17.150000 17.250000 17.350000 17.450000 17.550000 17.650000 17.750000 17.850000 17.950000 18.050000 18.150000 18.250000 18.350000 18.450000 18.550000 18.650000 18.750000 18.850000 18.950000 19.050000 19.150000 19.250000 19.350000 19.450000 19.550000 19.650000 19.750000 19.850000 19.950000 
Y_COORDINATES 50 double
0.050000 0.150000 0.250000 0.350000 0.450000 0.550000 0.650000 0.750000 0.850000 0.950000 1.050000 1.150000 1.250000 1.350000 1.450000 1.550000 1.650000 1.750000 1.850000 1.950000 2.050000 2.150000 2.250000 2.350000 2.450000 2.550000 2.650000 2.750000 2.850000 2.950000 3.050000 3.150000 3.250000 3.350000 3.450000 3.550000 3.650000 3.750000 3.850000 3.950000 4.050000 4.150000 4.250000 4.350000 4.450000 4.550000 4.650000 4.750000 4.850000 4.950000 
Z_COORDINATES 1 double
0.0
POINT_DATA 10000
SCALARS Skalarfeld double 1
LOOKUP_TABLE default
10.115068
10.102660
10.095632
10.091013
10.087662
10.085075
10.083000
10.081297
10.079881
10.078700
10.077717
10.076909
10.076260
10.075758
10.075398
10.075175
10.075091
10.075146
10.075345
10.075696
10.076209
10.076894
10.077769
10.078851
10.080162
10.081730
10.083589
10.085779
10.088351
10.091371
10.094916
10.099087
10.104004
10.109813
10.116674
10.124750
10.134159
10.144891
10.156652
10.168630
10.179232
10.184507
10.185974
10.203515
10.203515
0.000000
0.000000
0.000000
0.000000
0.000000
-2.601454
-2.601454
-2.606874
-2.614509
-2.619620
-2.622341
-2.623590
-2.624773
-2.627411
-2.633244
-2.643149
-2.656811
-2.673980
-2.694090
-2.716269
-2.739303
-2.761548
-2.781163
-2.796617
-2.806489
-2.810086
-2.807584
-2.799796
-2.788049
-2.773958
-2.759208
-2.745469
-2.734301
-2.727055
-2.724808
-2.728333
-2.738072
-2.754135
-2.776309
-2.804081
-2.836686
-2.873150
-2.912359
-2.953123
-2.994240
-3.034558
-3.073023
-3.108713
-3.140863
-3.168866
-3.192269
-3.210753
-3.224115
-3.232237
-3.235066
-3.232596
-3.224845
-3.211853
-3.193671
-3.170364
-3.142011
-3.108984
-3.071781
-3.030689
-2.986097
-2.938459
-2.888283
-2.836113
-2.782519
-2.728078
-2.673361
-2.618918
-2.565264
-2.512867
-2.462136
-2.413414
-2.366977
-2.323022
-2.281677
-2.243001
-2.206985
-2.173570
-2.142644
-2.114059
-2.087641
-2.063196
-2.040524
-2.019424
-1.999710
-1.981211
-1.963781
-1.947302
-1.931688
-1.916887
-1.902876
-1.889663
-1.877282
-1.865783
-1.855231
-1.845698
-1.837255
-1.829967
-1.823889
-1.819061
-1.815508
-1.813239
-1.812246
-1.812511
-1.813983
-1.816571
-1.820289
-1.825051
-1.830766
-1.837333
-1.844643
-1.852578
-1.861006
-1.869798
-1.878819
-1.887932
-1.897001
-1.905896
-1.914501
-1.922717
-1.930472
-1.937720
-1.944439
-1.950642
-1.956385
-1.961780
-1.966975
-1.972152
-1.977504
-1.983229
-1.989504
-1.996450
-2.004065
-2.012180
-2.020423
-2.028239
-2.035012
-2.040184
-2.043377
-2.044986
-2.045534
-2.045575
-2.045512
-2.045551
-2.045747
-2.046084
-2.046531
-2.046716
-2.046921
-2.047207
-2.047328
10.100965
10.097308
10.093185
10.089673
10.086810
10.084467
10.082530
10.080911
10.079550
10.078406
10.077449
10.076659
10.076023
10.075529
10.075173
10.074952
10.074865
10.074915
10.075106
10.075444
10.075940
10.076604
10.077451
10.078498
10.079764
10.081275
10.083061
10.085157
10.087609
10.090470
10.093809
10.097709
10.102270
10.107613
10.113874
10.121192
10.129681
10.139368
10.150079
10.161249
10.171526
10.179076
10.190458
10.215225
10.215225
0.000000
0.000000
0.000000
0.000000
0.000000
-2.605453
-2.605454
-2.611024
-2.618021
-2.621798
-2.623666
-2.623704
-2.623494
-2.624984
-2.629908
-2.639028
-2.652472
-2.670056
-2.691163
-2.714974
-2.740091
-2.764549
-2.786151
-2.802906
-2.813269
-2.816556
-2.813021
-2.803665
-2.790051
-2.774041
-2.757516
-2.742286
-2.730008
-2.722077
-2.719577
-2.723251
-2.733495
-2.750357
-2.773555
-2.802505
-2.836370
-2.874107
-2.914542
-2.956432
-2.998534
-3.039669
-3.078768
-3.114911
-3.147343
-3.175481
-3.198898
-3.217308
-3.230536
-3.238494
-3.241150
-3.238513
-3.230614
-3.217499
-3.199219
-3.175833
-3.147519
-3.114553
-3.077175
-3.035830
-2.990948
-2.942995
-2.892481
-2.839955
-2.785990
-2.731171
-2.676079
-2.621270
-2.567268
-2.514549
-2.463531
-2.414563
-2.367924
-2.323818
-2.282373
-2.243644
-2.207625
-2.174247
-2.143395
-2.114914
-2.088622
-2.064314
-2.041783
-2.020820
-2.001227
-1.982827
-1.965467
-1.949024
-1.933406
-1.918560
-1.904463
-1.891126
-1.878583
-1.866894
-1.856130
-1.846372
-1.837701
-1.830189
-1.823899
-1.818880
-1.815158
-1.812747
-1.811639
-1.811812
-1.813222
-1.815810
-1.819533
-1.824319
-1.830083
-1.836725
-1.844133
-1.852184
-1.860740
-1.869678
-1.878855
-1.888131
-1.897369
-1.906434
-1.915205
-1.923584
-1.931496
-1.938897
-1.945763
-1.952101
-1.957958
-1.963456
-1.968739
-1.973986
-1.979386
-1.985130
-1.991394
-1.998306
-2.005877
-2.013963
-2.022230
-2.030164
-2.037091
-2.042265
-2.045188
-2.046398
-2.046385
-2.045863
-2.045344
-2.045073
-2.045104
-2.045321
-2.045635
-2.046260
-2.047108
-2.048181
-2.049098
10.093602
10.092256
10.089938
10.087506
10.085266
10.083295
10.081587
10.080117
10.078856
10.077779
10.076869
10.076110
10.075492
10.075008
10.074654
10.074426
10.074325
10.074354
10.074515
10.074815
10.075260
10.075860
10.076626
10.077571
10.078709
10.080058
10.081635
10.083464
10.085567
10.087973
10.090708
10.093804
10.097289
10.101190
10.105524
10.110294
10.115480
10.121045
10.126978
10.133485
10.141621
10.155555
10.186612
10.242446
10.242445
0.000000
0.000000
0.000000
0.000000
0.000000
-2.606139
-2.606140
-2.613821
-2.621278
-2.622968
-2.624569
-2.623817
-2.623073
-2.623213
-2.625100
-2.630968
-2.643225
-2.661654
-2.685437
-2.713494
-2.743843
-2.773625
-2.799688
-2.819260
-2.830425
-2.832465
-2.825924
-2.812359
-2.793957
-2.773165
-2.752388
-2.733801
-2.719240
-2.710141
-2.707530
-2.712030
-2.723877
-2.742944
-2.768767
-2.800587
-2.837400
-2.878018
-2.921137
-2.965413
-3.009531
-3.052267
-3.092542
-3.129451
-3.162280
-3.190502
-3.213761
-3.231844
-3.244645
-3.252133
-3.254323
-3.251258
-3.242991
-3.229584
-3.211080
-3.187194
-3.158389
-3.124920
-3.087073
-3.045218
-2.999770
-2.951192
-2.900001
-2.846751
-2.792031
-2.736441
-2.680580
-2.625025
-2.570315
-2.516945
-2.465346
-2.415884
-2.368848
-2.324446
-2.282808
-2.243989
-2.207972
-2.174683
-2.143993
-2.115733
-2.089704
-2.065685
-2.043449
-2.022770
-2.003434
-1.985246
-1.968040
-1.951681
-1.936072
-1.921152
-1.906899
-1.893328
-1.880482
-1.868432
-1.857265
-1.847079
-1.837972
-1.830037
-1.823352
-1.817977
-1.813950
-1.811287
-1.809984
-1.810017
-1.811346
-1.813919
-1.817677
-1.822549
-1.828446
-1.835269
-1.842902
-1.851218
-1.860078
-1.869344
-1.878869
-1.888504
-1.898106
-1.907535
-1.916666
-1.925391
-1.933630
-1.941329
-1.948473
-1.955068
-1.961111
-1.966756
-1.972129
-1.977425
-1.982821
-1.988498
-1.994613
-2.001325
-2.008660
-2.016508
-2.024584
-2.032433
-2.039456
-2.045022
-2.048557
-2.049103
-2.047895
-2.046086
-2.044495
-2.043481
-2.043140
-2.043400
-2.044218
-2.045474
-2.047052
-2.049043
-2.052187
10.088808
10.088180
10.086811
10.085147
10.083454
10.081856
10.080403
10.079108
10.077968
10.076977
10.076124
10.075404
10.074809
10.074335
10.073979
10.073739
10.073617
10.073613
10.073731
10.073974
10.074347
10.074856
10.075508
10.076310
10.077268
10.078389
10.079678
10.081134
10.082754
10.084524
10.086414
10.088373
10.090317
10.092110
10.093548
10.094331
10.094047
10.092187
10.088289
10.082467
10.077017
10.080405
10.112649
10.195197
10.195197
0.000000
0.000000
0.000000
0.000000
0.000000
-2.597909
-2.597909
-2.607606
-2.616359
-2.621850
-2.625009
-2.627503
-2.628985
-2.627251
-2.620129
-2.616128
-2.626336
-2.647171
-2.675922
-2.711711
-2.751778
-2.791294
-2.825155
-2.849343
-2.861373
-2.860537
-2.848063
-2.826692
-2.799808
-2.770868
-2.743084
-2.719155
-2.701129
-2.690418
-2.687878
-2.693881
-2.708380
-2.730952
-2.760848
-2.797039
-2.838277
-2.883158
-2.930201
-2.977918
-3.024898
-3.069864
-3.111727
-3.149616
-3.182885
-3.211102
-3.234020
-3.251536
-3.263650
-3.270418
-3.271921
-3.268244
-3.259471
-3.245699
-3.226357
-3.201862
-3.172479
-3.138431
-3.099981
-3.057462
-3.011265
-2.961849
-2.909729
-2.855476
-2.799698
-2.743022
-2.686074
-2.629461
-2.573749
-2.519455
-2.467037
-2.416881
-2.369290
-2.324481
-2.282588
-2.243659
-2.207670
-2.174533
-2.144101
-2.116186
-2.090563
-2.066989
-2.045209
-2.024971
-2.006036
-1.988185
-1.971232
-1.955026
-1.939455
-1.924452
-1.909994
-1.896099
-1.882823
-1.870253
-1.858500
-1.847686
-1.837940
-1.829383
-1.822116
-1.816222
-1.811752
-1.808729
-1.807152
-1.806997
-1.808223
-1.810778
-1.814599
-1.819613
-1.825732
-1.832852
-1.840854
-1.849603
-1.858953
-1.868749
-1.878836
-1.889052
-1.899244
-1.909260
-1.918964
-1.928236
-1.936982
-1.945137
-1.952667
-1.959575
-1.965890
-1.971720
-1.977216
-1.982519
-1.987819
-1.993296
-1.999012
-2.005218
-2.011945
-2.019119
-2.026507
-2.033732
-2.040285
-2.045592
-2.049117
-2.050412
-2.049099
-2.046305
-2.043865
-2.042244
-2.041590
-2.041909
-2.042847
-2.044305
-2.046219
-2.048629
-2.051854
10.085199
10.084847
10.083980
10.082822
10.081549
10.080275
10.079063
10.077946
10.076935
10.076037
10.075250
10.074574
10.074006
10.073544
10.073187
10.072935
10.072789
10.072748
10.072816
10.072994
10.073285
10.073691
10.074216
10.074860
10.075621
10.076495
10.077472
10.078531
10.079639
10.080739
10.081743
10.082512
10.082835
10.082385
10.080675
10.076971
10.070190
10.058749
10.040421
10.012333
9.971703
9.919237
9.869994
9.874891
9.874891
0.000000
0.000000
0.000000
0.000000
0.000000
-2.579025
-2.579025
-2.593232
-2.607362
-2.618350
-2.628353
-2.639150
-2.648834
-2.647474
-2.616653
-2.585837
-2.597004
-2.624508
-2.660456
-2.708138
-2.764257
-2.819613
-2.865496
-2.896424
-2.909248
-2.903197
-2.880803
-2.847130
-2.807479
-2.766687
-2.729037
-2.697854
-2.675317
-2.662655
-2.660393
-2.668513
-2.686567
-2.713741
-2.748922
-2.790744
-2.837654
-2.887982
-2.940020
-2.992103
-3.042691
-3.090442
-3.134256
-3.173307
-3.207043
-3.235161
-3.257560
-3.274292
-3.285493
-3.291334
-3.291978
-3.287556
-3.278171
-3.263646
-3.243467
-3.218341
-3.188376
-3.153735
-3.114639
-3.071380
-3.024327
-2.973926
-2.920695
-2.865223
-2.808146
-2.750129
-2.691837
-2.633914
-2.576960
-2.521523
-2.468093
-2.417084
-2.368820
-2.323528
-2.281342
-2.242307
-2.206386
-2.173474
-2.143404
-2.115959
-2.090889
-2.067917
-2.046756
-2.027121
-2.008738
-1.991362
-1.974777
-1.958809
-1.943330
-1.928261
-1.913574
-1.899292
-1.885485
-1.872259
-1.859755
-1.848131
-1.837553
-1.828181
-1.820156
-1.813587
-1.808545
-1.805065
-1.803144
-1.802757
-1.803859
-1.806396
-1.810306
-1.815514
-1.821934
-1.829460
-1.837967
-1.847310
-1.857327
-1.867850
-1.878703
-1.889715
-1.900712
-1.911531
-1.922019
-1.932036
-1.941470
-1.950236
-1.958286
-1.965609
-1.972236
-1.978251
-1.983780
-1.988967
-1.993984
-1.998998
-2.004148
-2.009586
-2.015360
-2.021414
-2.027598
-2.033638
-2.039147
-2.043596
-2.046628
-2.047887
-2.047319
-2.045395
-2.042948
-2.041235
-2.040436
-2.040558
-2.041453
-2.042976
-2.045037
-2.047630
-2.050929
10.082252
10.082027
10.081443
10.080612
10.079647
10.078634
10.077632
10.076678
10.075792
10.074987
10.074268
10.073638
10.073099
10.072651
10.072294
10.072030
10.071857
10.071778
10.071793
10.071904
10.072110
10.072411
10.072806
10.073291
10.073857
10.074491
10.075170
10.075857
10.076494
10.076993
10.077217
10.076956
10.075891
10.073531
10.069120
10.061484
10.048764
10.027953
9.993990
9.937896
9.842506
9.671927
9.345320
8.965037
3.649247
-3.373133
-3.218413
-3.206478
-3.194724
-3.124842
-2.759966
-2.563539
-2.577807
-2.597496
-2.616493
-2.636558
-2.662422
-2.694542
-2.714252
-2.619555
-2.514564
-2.550516
-2.594370
-2.634990
-2.698952
-2.781496
-2.861739
-2.924634
-2.964749
-2.978330
-2.963643
-2.925556
-2.873930
-2.816647
-2.759963
-2.709533
-2.669398
-2.641600
-2.626874
-2.625201
-2.636041
-2.658453
-2.691172
-2.732670
-2.781205
-2.834875
-2.891699
-2.949694
-3.006976
-3.061843
-3.112859
-3.158911
-3.199226
-3.233371
-3.261209
-3.282834
-3.298494
-3.308506
-3.313185
-3.312787
-3.307493
-3.297451
-3.281681
-3.260891
-3.235224
-3.204755
-3.169587
-3.129884
-3.085894
-3.037954
-2.986496
-2.932044
-2.875204
-2.816655
-2.757110
-2.697281
-2.637861
-2.579490
-2.522748
-2.468168
-2.416199
-2.367188
-2.321373
-2.278890
-2.239775
-2.203978
-2.171372
-2.141768
-2.114919
-2.090540
-2.068318
-2.047929
-2.029048
-2.011365
-1.994598
-1.978500
-1.962867
-1.947549
-1.932450
-1.917538
-1.902837
-1.888428
-1.874442
-1.861052
-1.848456
-1.836872
-1.826509
-1.817558
-1.810169
-1.804440
-1.800415
-1.798091
-1.797434
-1.798392
-1.800907
-1.804918
-1.810357
-1.817139
-1.825161
-1.834291
-1.844369
-1.855212
-1.866631
-1.878433
-1.890424
-1.902417
-1.914228
-1.925685
-1.936621
-1.946898
-1.956407
-1.965079
-1.972888
-1.979850
-1.986029
-1.991530
-1.996490
-2.001066
-2.005421
-2.009707
-2.014054
-2.018532
-2.023132
-2.027759
-2.032224
-2.036250
-2.039503
-2.041696
-2.042625
-2.042326
-2.041260
-2.039888
-2.038737
-2.038294
-2.038653
-2.039775
-2.041577
-2.043984
-2.046964
-2.050522
10.079723
10.079568
10.079152
10.078537
10.077793
10.076983
10.076155
10.075343
10.074571
10.073853
10.073199
10.072615
10.072104
10.071670
10.071313
10.071035
10.070836
10.070718
10.070680
10.070722
10.070843
10.071041
10.071311
10.071644
10.072028
10.072444
10.072860
10.073229
10.073481
10.073508
10.073147
10.072152
10.070145
10.066543
10.060434
10.050360
10.033925
10.007033
9.962257
9.884974
9.742756
9.450791
8.740331
6.278957
-1.666542
-3.373133
-3.218413
-3.206478
-3.194724
-3.124842
-2.956394
-2.745651
-2.694320
-2.684089
-2.680481
-2.682926
-2.697552
-2.723606
-2.730261
-2.584673
-2.372878
-2.506840
-2.571535
-2.588739
-2.675290
-2.805560
-2.924459
-3.008076
-3.060124
-3.075455
-3.046865
-2.983737
-2.907687
-2.827450
-2.749943
-2.683599
-2.633245
-2.599943
-2.583369
-2.582750
-2.596927
-2.624421
-2.663498
-2.712202
-2.768393
-2.829794
-2.894065
-2.958900
-3.022138
-3.081871
-3.136541
-3.185003
-3.226552
-3.260904
-3.288134
-3.308586
-3.322762
-3.331210
-3.334425
-3.332770
-3.326435
-3.315370
-3.298632
-3.277262
-3.251187
-3.220372
-3.184828
-3.144648
-3.100022
-3.051249
-2.998746
-2.943040
-2.884760
-2.824639
-2.763450
-2.701965
-2.640933
-2.581040
-2.522896
-2.467091
-2.414115
-2.364338
-2.318010
-2.275263
-2.236124
-2.200527
-2.168325
-2.139299
-2.113172
-2.089616
-2.068279
-2.048800
-2.030811
-2.013958
-1.997920
-1.982414
-1.967204
-1.952112
-1.937026
-1.921904
-1.906769
-1.891716
-1.876895
-1.862513
-1.848815
-1.836072
-1.824559
-1.814528
-1.806182
-1.799658
-1.795012
-1.792235
-1.791274
-1.792064
-1.794541
-1.798648
-1.804328
-1.811508
-1.820089
-1.829934
-1.840864
-1.852663
-1.865117
-1.878011
-1.891131
-1.904267
-1.917221
-1.929803
-1.941801
-1.953048
-1.963403
-1.972774
-1.981112
-1.988416
-1.994728
-2.000137
-2.004765
-2.008764
-2.012295
-2.015514
-2.018557
-2.021519
-2.024436
-2.027282
-2.029963
-2.032328
-2.034202
-2.035434
-2.035954
-2.035841
-2.035372
-2.034914
-2.034705
-2.035011
-2.035997
-2.037682
-2.040016
-2.042933
-2.046368
-2.050181
10.077483
10.077370
10.077061
10.076591
10.076007
10.075351
10.074662
10.073970
10.073296
10.072656
10.072061
10.071519
10.071035
10.070613
10.070255
10.069963
10.069737
10.069580
10.069489
10.069465
10.069504
10.069602
10.069754
10.069949
10.070171
10.070398
10.070597
10.070719
10.070689
10.070402
10.069695
10.068329
10.065934
10.061944
10.055463
10.045049
10.028296
10.001025
9.955572
9.876884
9.732475
9.440977
8.776668
6.995811
0.464553
-2.421461
-3.050936
-3.207090
-3.266876
-3.295085
-3.295878
-3.285710
-3.242113
-3.176310
-3.106101
-3.040839
-2.982483
-2.918710
-2.812629
-2.616860
-2.465042
-2.503474
-2.515068
-2.494178
-2.628921
-2.850705
-3.023539
-3.120443
-3.188876
-3.212224
-3.160876
-3.056769
-2.949159
-2.841852
-2.738848
-2.651699
-2.589004
-2.550787
-2.532922
-2.533914
-2.551999
-2.585176
-2.631261
-2.687901
-2.752559
-2.822557
-2.895153
-2.967651
-3.037546
-3.102663
-3.161277
-3.212194
-3.254788
-3.288967
-3.315075
-3.333771
-3.345883
-3.352251
-3.353595
-3.350425
-3.343006
-3.330251
-3.312882
-3.291145
-3.264901
-3.233998
-3.198332
-3.157902
-3.112830
-3.063370
-3.009919
-2.953015
-2.893304
-2.831588
-2.768723
-2.705543
-2.642862
-2.581421
-2.521837
-2.464805
-2.410846
-2.360343
-2.313568
-2.270635
-2.231562
-2.196270
-2.164588
-2.136269
-2.111005
-2.088412
-2.068090
-2.049660
-2.032698
-2.016801
-2.001604
-1.986786
-1.972073
-1.957263
-1.942223
-1.926899
-1.911318
-1.895581
-1.879864
-1.864406
-1.849497
-1.835467
-1.822659
-1.811400
-1.801964
-1.794536
-1.789194
-1.785915
-1.784615
-1.785202
-1.787606
-1.791775
-1.797676
-1.805259
-1.814427
-1.825052
-1.836932
-1.849778
-1.863347
-1.877428
-1.891781
-1.906177
-1.920386
-1.934228
-1.947393
-1.959709
-1.970983
-1.981105
-1.990002
-1.997647
-2.004065
-2.009325
-2.013542
-2.016867
-2.019467
-2.021511
-2.023155
-2.024525
-2.025712
-2.026760
-2.027670
-2.028409
-2.028929
-2.029199
-2.029235
-2.029130
-2.029059
-2.029228
-2.029805
-2.030935
-2.032709
-2.035115
-2.038103
-2.041607
-2.045560
-2.049809
10.075455
10.075368
10.075130
10.074761
10.074291
10.073753
10.073174
10.072579
10.071987
10.071414
10.070871
10.070366
10.069905
10.069493
10.069132
10.068825
10.068573
10.068377
10.068235
10.068146
10.068107
10.068113
10.068157
10.068228
10.068310
10.068382
10.068413
10.068357
10.068152
10.067708
10.066892
10.065511
10.063276
10.059746
10.054233
10.045633
10.032109
10.010482
9.974954
9.911979
9.790048
9.526076
8.848211
6.402736
-1.584557
-3.365980
-3.251848
-3.299031
-3.396098
-3.559106
-3.783271
-4.079746
-4.072961
-3.960434
-3.835244
-3.712734
-3.586893
-3.430789
-3.220090
-2.965175
-2.753190
-2.639527
-2.575937
-2.574924
-2.708672
-2.930505
-3.135482
-3.251878
-3.352651
-3.404088
-3.306508
-3.131469
-2.997407
-2.860060
-2.725186
-2.615367
-2.538683
-2.495764
-2.477145
-2.480157
-2.502505
-2.541713
-2.595197
-2.660288
-2.734061
-2.813423
-2.895169
-2.976126
-3.053352
-3.124329
-3.187095
-3.240385
-3.283666
-3.317085
-3.341333
-3.357461
-3.366717
-3.370307
-3.369239
-3.364163
-3.355099
-3.340855
-3.322936
-3.301103
-3.275040
-3.244431
-3.209020
-3.168684
-3.123462
-3.073554
-3.019340
-2.961376
-2.900331
-2.837074
-2.772586
-2.707758
-2.643486
-2.580580
-2.519541
-2.461357
-2.406505
-2.355368
-2.308200
-2.265163
-2.226275
-2.191425
-2.160417
-2.132965
-2.108718
-2.087262
-2.068154
-2.050941
-2.035158
-2.020355
-2.006120
-1.992086
-1.977946
-1.963466
-1.948494
-1.932967
-1.916910
-1.900440
-1.883756
-1.867133
-1.850912
-1.835485
-1.821267
-1.808667
-1.798035
-1.789613
-1.783502
-1.779662
-1.777969
-1.778295
-1.780559
-1.784714
-1.790773
-1.798740
-1.808507
-1.819930
-1.832616
-1.846491
-1.861289
-1.876686
-1.892407
-1.908184
-1.923745
-1.938841
-1.953223
-1.966693
-1.978920
-1.989826
-1.999299
-2.007289
-2.013798
-2.018874
-2.022632
-2.025230
-2.026853
-2.027691
-2.027928
-2.027733
-2.027252
-2.026599
-2.025859
-2.025094
-2.024356
-2.023698
-2.023193
-2.022937
-2.023048
-2.023647
-2.024826
-2.026640
-2.029096
-2.032169
-2.035795
-2.039905
-2.044458
-2.049402
10.073587
10.073519
10.073329
10.073031
10.072646
10.072195
10.071702
10.071185
10.070661
10.070144
10.069644
10.069170
10.068728
10.068322
10.067957
10.067635
10.067356
10.067121
10.066929
10.066778
10.066666
10.066587
10.066533
10.066496
10.066460
10.066407
10.066313
10.066143
10.065852
10.065380
10.064644
10.063532
10.061883
10.059470
10.055950
10.050791
10.043120
10.031429
10.012221
9.978575
9.915081
9.784273
9.493666
9.108369
3.761906
-3.365980
-3.251848
-3.299031
-3.396098
-3.559106
-4.295481
-4.807692
-4.569363
-4.483937
-4.412717
-4.343647
-4.269426
-4.129189
-3.885578
-3.563709
-3.241665
-2.985636
-2.822490
-2.776032
-2.861427
-3.039984
-3.231586
-3.373536
-3.487186
-3.547789
-3.404519
-3.188819
-3.055081
-2.877732
-2.704440
-2.572773
-2.487044
-2.437821
-2.418644
-2.423581
-2.450104
-2.495263
-2.556113
-2.629869
-2.713200
-2.802585
-2.894288
-2.984528
-3.069791
-3.147123
-3.214218
-3.269693
-3.313128
-3.344984
-3.366386
-3.378852
-3.384196
-3.384058
-3.379825
-3.372433
-3.360807
-3.345452
-3.327267
-3.305765
-3.280388
-3.250606
-3.215961
-3.176173
-3.131202
-3.081173
-3.026454
-2.967634
-2.905484
-2.840900
-2.774850
-2.708385
-2.642492
-2.578058
-2.515850
-2.456665
-2.401069
-2.349473
-2.302148
-2.259233
-2.220729
-2.186514
-2.156360
-2.129950
-2.106890
-2.086729
-2.068977
-2.053125
-2.038658
-2.025078
-2.011922
-1.998777
-1.985297
-1.971217
-1.956361
-1.940654
-1.924125
-1.906901
-1.889209
-1.871364
-1.853760
-1.836851
-1.821130
-1.807088
-1.795155
-1.785635
-1.778651
-1.774144
-1.771946
-1.771889
-1.773886
-1.777884
-1.783994
-1.792343
-1.802450
-1.814374
-1.828084
-1.843180
-1.859282
-1.876031
-1.893127
-1.910305
-1.927286
-1.943751
-1.959338
-1.973726
-1.986964
-1.998674
-2.008737
-2.017081
-2.023690
-2.028574
-2.031858
-2.033714
-2.034364
-2.034023
-2.032907
-2.031230
-2.029192
-2.026976
-2.024735
-2.022606
-2.020709
-2.019162
-2.018069
-2.017527
-2.017627
-2.018437
-2.019997
-2.022306
-2.025320
-2.028985
-2.033229
-2.037978
-2.043226
-2.048966
10.071847
10.071792
10.071635
10.071389
10.071065
10.070681
10.070254
10.069798
10.069328
10.068856
10.068391
10.067942
10.067514
10.067113
10.066741
10.066401
10.066095
10.065822
10.065583
10.065374
10.065193
10.065036
10.064895
10.064762
10.064626
10.064473
10.064287
10.064046
10.063729
10.063311
10.062767
10.062079
10.061240
10.060265
10.059211
10.058192
10.057396
10.057047
10.057330
10.058136
10.058157
10.054191
10.044136
10.047586
10.047586
0.000000
0.000000
0.000000
0.000000
0.000000
-4.718204
-4.718205
-4.683853
-4.703942
-4.656669
-4.681493
-4.773220
-4.772946
-4.585102
-4.229535
-3.807271
-3.422047
-3.141970
-3.000852
-2.999468
-3.101748
-3.244983
-3.374588
-3.466531
-3.475006
-3.352832
-3.190423
-3.015111
-2.832665
-2.663117
-2.530897
-2.441161
-2.386188
-2.362437
-2.368246
-2.398299
-2.448699
-2.516319
-2.598155
-2.690798
-2.790349
-2.892509
-2.992849
-3.087080
-3.171413
-3.243082
-3.300526
-3.343462
-3.372748
-3.390088
-3.397675
-3.397757
-3.392594
-3.384026
-3.373218
-3.358710
-3.342649
-3.324699
-3.304119
-3.280073
-3.251752
-3.218475
-3.179789
-3.135497
-3.085673
-3.030683
-2.971159
-2.907954
-2.842072
-2.774612
-2.706707
-2.639438
-2.573791
-2.510636
-2.450742
-2.394704
-2.342948
-2.295743
-2.253214
-2.215343
-2.181986
-2.152889
-2.127701
-2.105993
-2.087273
-2.071009
-2.056641
-2.043607
-2.031360
-2.019388
-2.007231
-1.994503
-1.980903
-1.966233
-1.950403
-1.933440
-1.915485
-1.896792
-1.877719
-1.858713
-1.840298
-1.823044
-1.807517
-1.794216
-1.783489
-1.775478
-1.770124
-1.767245
-1.766641
-1.768293
-1.771989
-1.777745
-1.785716
-1.796297
-1.809145
-1.823933
-1.840238
-1.857620
-1.875680
-1.894103
-1.912637
-1.931007
-1.948842
-1.965703
-1.981186
-1.995001
-2.007250
-2.017913
-2.026606
-2.033289
-2.038002
-2.040857
-2.042072
-2.041837
-2.040397
-2.038023
-2.034978
-2.031518
-2.027887
-2.024290
-2.020924
-2.017959
-2.015553
-2.013838
-2.012905
-2.012834
-2.013665
-2.015401
-2.018020
-2.021475
-2.025677
-2.030542
-2.036008
-2.042059
-2.048728
10.070211
10.070165
10.070033
10.069823
10.069545
10.069211
10.068834
10.068425
10.067998
10.067561
10.067124
10.066693
10.066275
10.065874
10.065493
10.065135
10.064801
10.064491
10.064206
10.063942
10.063698
10.063468
10.063248
10.063031
10.062808
10.062572
10.062312
10.062024
10.061704
10.061363
10.061031
10.060775
10.060726
10.061122
10.062374
10.065166
10.070589
10.080285
10.097059
10.125046
10.168971
10.233974
10.321766
10.422538
10.422537
0.000000
0.000000
0.000000
0.000000
0.000000
-4.687466
-4.687467
-4.697326
-4.729745
-4.774784
-4.900421
-5.094836
-5.294892
-5.202601
-4.825329
-4.310833
-3.807433
-3.410425
-3.161206
-3.058842
-3.070856
-3.145718
-3.232211
-3.289873
-3.281532
-3.193979
-3.061340
-2.906709
-2.748940
-2.602720
-2.484462
-2.396080
-2.337047
-2.313181
-2.319725
-2.351466
-2.404961
-2.477547
-2.566355
-2.667851
-2.777699
-2.890910
-3.002148
-3.106118
-3.198109
-3.274629
-3.333808
-3.375486
-3.401016
-3.412812
-3.413755
-3.406902
-3.395212
-3.381021
-3.364541
-3.348047
-3.331524
-3.314257
-3.295175
-3.273092
-3.246867
-3.215541
-3.178439
-3.135223
-3.085913
-3.030893
-2.970865
-2.906793
-2.839815
-2.771165
-2.702090
-2.633774
-2.567287
-2.503559
-2.443367
-2.387307
-2.335802
-2.289105
-2.247319
-2.210400
-2.178182
-2.150380
-2.126618
-2.106432
-2.089298
-2.074642
-2.061866
-2.050363
-2.039539
-2.028837
-2.017753
-2.005859
-1.992819
-1.978408
-1.962521
-1.945180
-1.926541
-1.906881
-1.886600
-1.866200
-1.846266
-1.827436
-1.810344
-1.795550
-1.783451
-1.774236
-1.767877
-1.764220
-1.762953
-1.763367
-1.766248
-1.771939
-1.780397
-1.791582
-1.805214
-1.820917
-1.838242
-1.856716
-1.875917
-1.895522
-1.915292
-1.934945
-1.954056
-1.972086
-1.988553
-2.003170
-2.015819
-2.026472
-2.035518
-2.042239
-2.046791
-2.049209
-2.049822
-2.048790
-2.046385
-2.042917
-2.038686
-2.033986
-2.029104
-2.024308
-2.019834
-2.015885
-2.012647
-2.010277
-2.008888
-2.008553
-2.009300
-2.011118
-2.013966
-2.017781
-2.022478
-2.027979
-2.034228
-2.041206
-2.048988
10.068663
10.068623
10.068509
10.068325
10.068081
10.067784
10.067444
10.067072
10.066677
10.066267
10.065849
10.065432
10.065018
10.064614
10.064222
10.063844
10.063483
10.063137
10.062807
10.062491
10.062187
10.061890
10.061598
10.061304
10.061003
10.060691
10.060365
10.060029
10.059698
10.059404
10.059216
10.059262
10.059765
10.061114
10.063955
10.069345
10.078961
10.095349
10.122112
10.164613
10.229422
10.320239
10.430912
10.533866
10.533866
0.000000
0.000000
0.000000
0.000000
0.000000
-4.660819
-4.660819
-4.696315
-4.758243
-4.868061
-5.072521
-5.404128
-5.772641
-5.717600
-5.273885
-4.652898
-4.043275
-3.549988
-3.211062
-3.021926
-2.952545
-2.959378
-2.996975
-3.025912
-3.017058
-2.960820
-2.868497
-2.755175
-2.635656
-2.522695
-2.426846
-2.353096
-2.304186
-2.282250
-2.286389
-2.315393
-2.367973
-2.442308
-2.535772
-2.644711
-2.764337
-2.888873
-3.011848
-3.126610
-3.227145
-3.308982
-3.369779
-3.409481
-3.430079
-3.434959
-3.427675
-3.412108
-3.391349
-3.369435
-3.348705
-3.329879
-3.312698
-3.296150
-3.278786
-3.259001
-3.235262
-3.206279
-3.171127
-3.129314
-3.080802
-3.025996
-2.965689
-2.900975
-2.833147
-2.763592
-2.693689
-2.624731
-2.557864
-2.494060
-2.434096
-2.378557
-2.327835
-2.282151
-2.241569
-2.206014
-2.175284
-2.149071
-2.126970
-2.108493
-2.093088
-2.080153
-2.069058
-2.059160
-2.049830
-2.040470
-2.030536
-2.019559
-2.007165
-1.993097
-1.977229
-1.959576
-1.940303
-1.919713
-1.898246
-1.876453
-1.854978
-1.834514
-1.815754
-1.799314
-1.785660
-1.775052
-1.767517
-1.762840
-1.759884
-1.759683
-1.762409
-1.768199
-1.777016
-1.788707
-1.802972
-1.819411
-1.837559
-1.856940
-1.877129
-1.897794
-1.918653
-1.939367
-1.959433
-1.978253
-1.995338
-2.010477
-2.023649
-2.034743
-2.043375
-2.049888
-2.054397
-2.056308
-2.056478
-2.054756
-2.051516
-2.047127
-2.041899
-2.036151
-2.030214
-2.024402
-2.018980
-2.014174
-2.010188
-2.007203
-2.005357
-2.004729
-2.005345
-2.007188
-2.010216
-2.014369
-2.019572
-2.025760
-2.032883
-2.040917
-2.049966
10.067190
10.067155
10.067053
10.066889
10.066669
10.066400
10.066088
10.065742
10.065370
10.064979
10.064576
10.064165
10.063753
10.063342
10.062937
10.062538
10.062148
10.061767
10.061394
10.061028
10.060667
10.060308
10.059948
10.059582
10.059207
10.058821
10.058425
10.058027
10.057650
10.057335
10.057166
10.057289
10.057959
10.059607
10.062949
10.069150
10.080065
10.098538
10.128693
10.175895
10.245415
10.339201
10.448506
10.544687
10.544687
0.000000
0.000000
0.000000
0.000000
0.000000
-4.639997
-4.639998
-4.699147
-4.782946
-4.923020
-5.180247
-5.577102
-6.063918
-6.112823
-5.487584
-4.751876
-4.068445
-3.525419
-3.141856
-2.903211
-2.780024
-2.735930
-2.733958
-2.741995
-2.737040
-2.708578
-2.657432
-2.589943
-2.514381
-2.439013
-2.371122
-2.316098
-2.278007
-2.259867
-2.263333
-2.289570
-2.339400
-2.412741
-2.508044
-2.622040
-2.749757
-2.884704
-3.019233
-3.145220
-3.255127
-3.343130
-3.405992
-3.443495
-3.458379
-3.455675
-3.438195
-3.410896
-3.381261
-3.352630
-3.327169
-3.305582
-3.287403
-3.271309
-3.255468
-3.237872
-3.216607
-3.190055
-3.157032
-3.116872
-3.069455
-3.015189
-2.954941
-2.889935
-2.821624
-2.751554
-2.681250
-2.612116
-2.545375
-2.482033
-2.422866
-2.368429
-2.319071
-2.274959
-2.236104
-2.202380
-2.173545
-2.149254
-2.129077
-2.112503
-2.098963
-2.087834
-2.078466
-2.070198
-2.062377
-2.054384
-2.045642
-2.035649
-2.023990
-2.010371
-1.994634
-1.976778
-1.956962
-1.935505
-1.912879
-1.889684
-1.866617
-1.844433
-1.823884
-1.805650