# vtk DataFile Version 3.0
Scalar Field
ASCII
DATASET RECTILINEAR_GRID
DIMENSIONS 200 50 1
X_COORDINATES 200 double
0.050000 0.150000 0.250000 0.350000 0.450000 0.550000 0.650000 0.750000 0.850000 0.950000 1.050000 1.150000 1.250000 1.350000 1.450000 1.550000 1.650000 1.750000 1.850000 1.950000 2.050000 2.150000 2.250000 2.350000 2.450000 2.550000 2.650000 2.750000 2.850000 2.950000 3.050000 3.150000 3.250000 3.350000 3.450000 3.550000 3.650000 3.750000 3.850000 3.950000 4.050000 4.150000 4.250000 4.350000 4.450000 4.550000 4.650000 4.750000 4.850000 4.950000 5.050000 5.150000 5.250000 5.350000 5.450000 5.550000 5.650000 5.750000 5.850000 5.950000 6.050000 6.150000 6.250000 6.350000 6.450000 6.550000 6.650000 6.750000 6.850000 6.950000 7.050000 7.150000 7.250000 7.350000 7.450000 7.550000 7.650000 7.750000 7.850000 7.950000 8.050000 8.150000 8.250000 8.350000 8.450000 8.550000 8.650000 8.750000 8.850000 8.950000 9.050000 9.150000 9.250000 9.350000 9.450000 9.550000 9.650000 9.750000 9.850000 9.950000 10.050000 10.150000 10.250000 10.350000 10.450000 10.550000 10.650000 10.750000 10.850000 10.950000 11.050000 11.150000 11.250000 11.350000 11.450000 11.550000 11.650000 11.750000 11.850000 11.950000 12.050000 12.150000 12.250000 12.350000 12.450000 12.550000 12.650000 12.750000 12.850000 12.950000 13.050000 13.150000 13.250000 13.350000 13.450000 13.550000 13.650000 13.750000 13.850000 13.950000 14.050000 14.150000 14.250000 14.350000 14.450000 14.550000 14.650000 14.750000 14.850000 14.950000 15.050000 15.150000 15.250000 15.350000 15.450000 15.550000 15.650000 15.750000 15.850000 15.950000 16.050000 16.150000 16.250000 16.350000 16.450000 16.550000 16.650000 16.750000 16.850000 16.950000 17.050000 17.150000 17.250000 17.350000 17.450000 17.550000 17.650000 17.750000 17.850000 17.950000 18.050000 18.150000 18.250000 18.350000 18.450000 18.550000 18.650000 18.750000 18.850000 18.950000 19.050000 19.150000 19.250000 19.350000 19.450000 19.550000 19.650000 19.750000 19.850000 19.950000 
Y_COORDINATES 50 double
0.050000 0.150000 0.250000 0.350000 0.450000 0.550000 0.650000 0.750000 0.850000 0.950000 1.050000 1.150000 1.250000 1.350000 1.450000 1.550000 1.650000 1.750000 1.850000 1.950000 2.050000 2.150000 2.250000 2.350000 2.450000 2.550000 2.650000 2.750000 2.850000 2.950000 3.050000 3.150000 3.250000 3.350000 3.450000 3.550000 3.650000 3.750000 3.850000 3.950000 4.050000 4.150000 4.250000 4.350000 4.450000 4.550000 4.650000 4.750000 4.850000 4.950000 
Z_COORDINATES 1 double
0.0
POINT_DATA 10000
SCALARS Skalarfeld double 1
LOOKUP_TABLE default
9.995241
9.982806
9.975705
9.970966
9.967448
9.964646
9.962307
9.960290
9.958509
9.956907
9.955449
9.954107
9.952864
9.951708
9.950630
9.949625
9.948691
9.947828
9.947036
9.946320
9.945685
9.945138
9.944690
9.944354
9.944146
9.944091
9.944216
9.944561
9.945174
9.946119
9.947480
9.949360
9.951893
9.955243
9.959598
9.965162
9.972110
9.980499
9.990115
10.000221
10.009259
10.013736
10.013480
10.030144
10.030144
0.000000
0.000000
0.000000
0.000000
0.000000
-3.239356
-3.239356
-3.241246
-3.241779
-3.238168
-3.230750
-3.222739
-3.209405
-3.187520
-3.162355
-3.134249
-3.103789
-3.073169
-3.045588
-3.024417
-3.012715
-3.012856
-3.026133
-3.052429
-3.090150
-3.136442
-3.187644
-3.239811
-3.289183
-3.332493
-3.367091
-3.390897
-3.402491
-3.401601
-3.388506
-3.364126
-3.329819
-3.287209
-3.238008
-3.183880
-3.126334
-3.066675
-3.005983
-2.945130
-2.884816
-2.825612
-2.768004
-2.712435
-2.659328
-2.609102
-2.562176
-2.518955
-2.479812
-2.445066
-2.414969
-2.389689
-2.369307
-2.353818
-2.343128
-2.337055
-2.335334
-2.337620
-2.343494
-2.352484
-2.364123
-2.377868
-2.393203
-2.409616
-2.426601
-2.443669
-2.460357
-2.476235
-2.490918
-2.504071
-2.515410
-2.524713
-2.531813
-2.536600
-2.539019
-2.539053
-2.536725
-2.532165
-2.525537
-2.517043
-2.506921
-2.495442
-2.482896
-2.469581
-2.455801
-2.441854
-2.428023
-2.414573
-2.401738
-2.389721
-2.378682
-2.368738
-2.359972
-2.352417
-2.346036
-2.340749
-2.336431
-2.332927
-2.330056
-2.327606
-2.325351
-2.323047
-2.320449
-2.317314
-2.313409
-2.308524
-2.302473
-2.295114
-2.286343
-2.276118
-2.264456
-2.251427
-2.237136
-2.221729
-2.205381
-2.188287
-2.170653
-2.152686
-2.134585
-2.116535
-2.098697
-2.081204
-2.064156
-2.047619
-2.031622
-2.016157
-2.001179
-1.986613
-1.972353
-1.958269
-1.944214
-1.930031
-1.915559
-1.900642
-1.885136
-1.868918
-1.851886
-1.833968
-1.815125
-1.795345
-1.774646
-1.753076
-1.730700
-1.707605
-1.683887
-1.659648
-1.634983
-1.609972
-1.584669
-1.559076
-1.533883
9.981185
9.977503
9.973307
9.969676
9.966647
9.964091
9.961891
9.959959
9.958234
9.956672
9.955242
9.953921
9.952694
9.951549
9.950479
9.949479
9.948547
9.947683
9.946888
9.946165
9.945519
9.944956
9.944486
9.944120
9.943874
9.943767
9.943824
9.944079
9.944573
9.945360
9.946509
9.948107
9.950265
9.953117
9.956823
9.961558
9.967483
9.974690
9.983086
9.992196
10.000775
10.007025
10.017014
10.041714
10.041713
0.000000
0.000000
0.000000
0.000000
0.000000
-3.242727
-3.242726
-3.244975
-3.245725
-3.241856
-3.231831
-3.225879
-3.216477
-3.197491
-3.172687
-3.143921
-3.111759
-3.078501
-3.047740
-3.023287
-3.008706
-3.006898
-3.019518
-3.046521
-3.086103
-3.135020
-3.189167
-3.244231
-3.296218
-3.341767
-3.378278
-3.403918
-3.416439
-3.415707
-3.402262
-3.377142
-3.341812
-3.298001
-3.247525
-3.192128
-3.133377
-3.072605
-3.010902
-2.949130
-2.887970
-2.827968
-2.769587
-2.713248
-2.659364
-2.608356
-2.560657
-2.516693
-2.476865
-2.441519
-2.410928
-2.385276
-2.364654
-2.349059
-2.338396
-2.332478
-2.331031
-2.333704
-2.340085
-2.349718
-2.361899
-2.376166
-2.392023
-2.408952
-2.426439
-2.443983
-2.461110
-2.477384
-2.492413
-2.505857
-2.517430
-2.526907
-2.534125
-2.538980
-2.541426
-2.541451
-2.539057
-2.534360
-2.527534
-2.518800
-2.508406
-2.496631
-2.483773
-2.470140
-2.456044
-2.441791
-2.427674
-2.413964
-2.400905
-2.388704
-2.377531
-2.367514
-2.358725
-2.351195
-2.344891
-2.339722
-2.335557
-2.332237
-2.329575
-2.327356
-2.325344
-2.323290
-2.320939
-2.318039
-2.314351
-2.309656
-2.303755
-2.296508
-2.287787
-2.277561
-2.265853
-2.252728
-2.238303
-2.222732
-2.206197
-2.188905
-2.171068
-2.152904
-2.134621
-2.116408
-2.098433
-2.080834
-2.063715
-2.047143
-2.031146
-2.015717
-2.000809
-1.986341
-1.972204
-1.958261
-1.944360
-1.930334
-1.916015
-1.901242
-1.885863
-1.869749
-1.852796
-1.834928
-1.816105
-1.796315
-1.775581
-1.753952
-1.731499
-1.708315
-1.684502
-1.660169
-1.635416
-1.610336
-1.585003
-1.559445
-1.534120
9.973918
9.972547
9.970158
9.967608
9.965204
9.963021
9.961053
9.959273
9.957651
9.956162
9.954783
9.953500
9.952299
9.951173
9.950114
9.949118
9.948183
9.947308
9.946493
9.945742
9.945057
9.944442
9.943903
9.943448
9.943086
9.942829
9.942691
9.942688
9.942841
9.943173
9.943710
9.944483
9.945522
9.946861
9.948527
9.950543
9.952916
9.955654
9.958807
9.962673
9.968452
9.980523
10.010682
10.067480
10.067479
0.000000
0.000000
0.000000
0.000000
0.000000
-3.244048
-3.244048
-3.248297
-3.250042
-3.249103
-3.243065
-3.238091
-3.232454
-3.219612
-3.197753
-3.167176
-3.130295
-3.091145
-3.053826
-3.022538
-3.001789
-2.995742
-3.006913
-3.035372
-3.078779
-3.133001
-3.192993
-3.253707
-3.310718
-3.360499
-3.400480
-3.428071
-3.441749
-3.441280
-3.427176
-3.400612
-3.363268
-3.317108
-3.264160
-3.206338
-3.145317
-3.082484
-3.018933
-2.955503
-2.892832
-2.831413
-2.771658
-2.713950
-2.658683
-2.606279
-2.557200
-2.511920
-2.470888
-2.434500
-2.403071
-2.376808
-2.355814
-2.340090
-2.329537
-2.323957
-2.323059
-2.326465
-2.333726
-2.344310
-2.357484
-2.372799
-2.389724
-2.407715
-2.426228
-2.444740
-2.462757
-2.479828
-2.495548
-2.509568
-2.521598
-2.531412
-2.538850
-2.543816
-2.546293
-2.546189
-2.543570
-2.538560
-2.531343
-2.522145
-2.511231
-2.498894
-2.485445
-2.471211
-2.456520
-2.441692
-2.427037
-2.412842
-2.399362
-2.386819
-2.375389
-2.365204
-2.356339
-2.348813
-2.342619
-2.337701
-2.333848
-2.330899
-2.328659
-2.326903
-2.325381
-2.323824
-2.321963
-2.319528
-2.316268
-2.311951
-2.306339
-2.299224
-2.290564
-2.280319
-2.268504
-2.255193
-2.240511
-2.224626
-2.207738
-2.190069
-2.171852
-2.153317
-2.134689
-2.116171
-2.097940
-2.080144
-2.062891
-2.046253
-2.030260
-2.014900
-2.000123
-1.985842
-1.971938
-1.958264
-1.944653
-1.930927
-1.916903
-1.902407
-1.887277
-1.871371
-1.854577
-1.836816
-1.818042
-1.798249
-1.777461
-1.755734
-1.733149
-1.709809
-1.685825
-1.661315
-1.636394
-1.611164
-1.585726
-1.560165
-1.534554
9.969265
9.968613
9.967174
9.965395
9.963540
9.961733
9.960024
9.958423
9.956928
9.955529
9.954217
9.952981
9.951814
9.950709
9.949661
9.948667
9.947725
9.946833
9.945991
9.945199
9.944458
9.943770
9.943135
9.942557
9.942036
9.941573
9.941165
9.940809
9.940492
9.940196
9.939883
9.939498
9.938948
9.938091
9.936717
9.934517
9.931074
9.925872
9.918445
9.908926
9.899700
9.899548
9.929406
10.012288
10.012287
0.000000
0.000000
0.000000
0.000000
0.000000
-3.238189
-3.238188
-3.246130
-3.252758
-3.257155
-3.260168
-3.263007
-3.264451
-3.258897
-3.239609
-3.203239
-3.156327
-3.106784
-3.058504
-3.015541
-2.984037
-2.970683
-2.979502
-3.010508
-3.060275
-3.123118
-3.192449
-3.262096
-3.327039
-3.383495
-3.428805
-3.460158
-3.476149
-3.476444
-3.461633
-3.433143
-3.393007
-3.343569
-3.287189
-3.226026
-3.161911
-3.096290
-3.030251
-2.964593
-2.899887
-2.836548
-2.774915
-2.715322
-2.658133
-2.603771
-2.552755
-2.505628
-2.462915
-2.425074
-2.392479
-2.365373
-2.343872
-2.327980
-2.317588
-2.312481
-2.312340
-2.316754
-2.325243
-2.336982
-2.351521
-2.368298
-2.386725
-2.406208
-2.426164
-2.446036
-2.465303
-2.483489
-2.500174
-2.514995
-2.527657
-2.537932
-2.545658
-2.550746
-2.553178
-2.552904
-2.549974
-2.544526
-2.536756
-2.526908
-2.515265
-2.502139
-2.487865
-2.472789
-2.457262
-2.441628
-2.426217
-2.411336
-2.397262
-2.384231
-2.372434
-2.362010
-2.353044
-2.345559
-2.339525
-2.334866
-2.331441
-2.329006
-2.327360
-2.326258
-2.325428
-2.324578
-2.323411
-2.321635
-2.318981
-2.315167
-2.309889
-2.303036
-2.294500
-2.284242
-2.272284
-2.258710
-2.243664
-2.227334
-2.209945
-2.191742
-2.172983
-2.153922
-2.134804
-2.115850
-2.097256
-2.079177
-2.061733
-2.044999
-2.029006
-2.013742
-1.999151
-1.985135
-1.971564
-1.958276
-1.945089
-1.931799
-1.918207
-1.904123
-1.889364
-1.873776
-1.857232
-1.839647
-1.820971
-1.801197
-1.780355
-1.758511
-1.735757
-1.712207
-1.687987
-1.663228
-1.638056
-1.612587
-1.586926
-1.561161
-1.535191
9.965843
9.965467
9.964532
9.963260
9.961829
9.960350
9.958887
9.957469
9.956110
9.954812
9.953575
9.952394
9.951267
9.950188
9.949155
9.948165
9.947215
9.946305
9.945433
9.944597
9.943797
9.943029
9.942293
9.941583
9.940892
9.940209
9.939518
9.938791
9.937985
9.937036
9.935844
9.934258
9.932048
9.928870
9.924207
9.917288
9.906972
9.891597
9.868811
9.835554
9.788781
9.728956
9.671445
9.669674
9.669674
0.000000
0.000000
0.000000
0.000000
0.000000
-3.229272
-3.229272
-3.240428
-3.254819
-3.269516
-3.284355
-3.299275
-3.312959
-3.319456
-3.303357
-3.251901
-3.186228
-3.122172
-3.058476
-2.997349
-2.948320
-2.923465
-2.929181
-2.964693
-3.024506
-3.100472
-3.183627
-3.266235
-3.342615
-3.408701
-3.461634
-3.498918
-3.518645
-3.520387
-3.504912
-3.474061
-3.430415
-3.376865
-3.316223
-3.250966
-3.183116
-3.114168
-3.045167
-2.976842
-2.909681
-2.844000
-2.780040
-2.718081
-2.658455
-2.601562
-2.548038
-2.498522
-2.453640
-2.413909
-2.379800
-2.351604
-2.329451
-2.313345
-2.303148
-2.298620
-2.299412
-2.305058
-2.314986
-2.328209
-2.344451
-2.363047
-2.383338
-2.404674
-2.426421
-2.447979
-2.468790
-2.488353
-2.506224
-2.522030
-2.535463
-2.546293
-2.554360
-2.559574
-2.561914
-2.561436
-2.558116
-2.552114
-2.543648
-2.532981
-2.520420
-2.506300
-2.490985
-2.474847
-2.458264
-2.441608
-2.425236
-2.409482
-2.394646
-2.380986
-2.368713
-2.357978
-2.348874
-2.341430
-2.335609
-2.331314
-2.328379
-2.326574
-2.325671
-2.325398
-2.325449
-2.325500
-2.325220
-2.324285
-2.322396
-2.319191
-2.314427
-2.307920
-2.299553
-2.289284
-2.277150
-2.263240
-2.247724
-2.230822
-2.212787
-2.193898
-2.174442
-2.154704
-2.134955
-2.115439
-2.096371
-2.077925
-2.060230
-2.043370
-2.027378
-2.012237
-1.997884
-1.984212
-1.971074
-1.958289
-1.945650
-1.932936
-1.919921
-1.906385
-1.892126
-1.876968
-1.860770
-1.843433
-1.824906
-1.805181
-1.784296
-1.762325
-1.739377
-1.715581
-1.691080
-1.666019
-1.640539
-1.614763
-1.588799
-1.562734
-1.536278
9.963126
9.962878
9.962227
9.961286
9.960166
9.958953
9.957705
9.956458
9.955232
9.954038
9.952879
9.951758
9.950673
9.949624
9.948608
9.947624
9.946670
9.945743
9.944842
9.943964
9.943105
9.942261
9.941425
9.940588
9.939737
9.938850
9.937897
9.936833
9.935592
9.934071
9.932119
9.929509
9.925896
9.920755
9.913285
9.902241
9.885661
9.860370
9.821033
9.758171
9.653634
9.469437
9.119702
8.712906
3.147586
-4.278520
-4.134666
-4.133510
-4.119484
-4.018587
-3.497007
-3.219561
-3.235860
-3.260744
-3.288577
-3.316983
-3.345996
-3.376950
-3.408765
-3.405557
-3.315533
-3.216543
-3.137795
-3.055200
-2.966466
-2.889106
-2.846959
-2.849265
-2.892151
-2.966630
-3.061204
-3.163401
-3.263492
-3.355387
-3.434682
-3.497990
-3.543620
-3.568686
-3.572580
-3.556408
-3.522673
-3.474737
-3.416249
-3.350595
-3.280609
-3.208563
-3.135976
-3.063751
-2.992507
-2.922627
-2.854301
-2.787633
-2.722863
-2.660318
-2.600237
-2.543596
-2.491048
-2.443337
-2.401220
-2.365230
-2.335709
-2.312794
-2.296459
-2.286530
-2.282723
-2.284644
-2.291795
-2.303244
-2.318358
-2.336643
-2.357387
-2.379867
-2.403367
-2.427198
-2.450712
-2.473312
-2.494465
-2.513706
-2.530645
-2.544969
-2.556437
-2.564887
-2.570232
-2.572453
-2.571705
-2.567909
-2.561241
-2.551939
-2.540292
-2.526633
-2.511327
-2.494763
-2.477346
-2.459489
-2.441596
-2.424060
-2.407245
-2.391481
-2.377054
-2.364196
-2.353078
-2.343802
-2.336401
-2.330835
-2.326994
-2.324633
-2.323580
-2.323573
-2.324301
-2.325422
-2.326571
-2.327372
-2.327459
-2.326487
-2.324092
-2.319964
-2.313887
-2.305730
-2.295447
-2.283082
-2.268754
-2.252659
-2.235049
-2.216218
-2.196483
-2.176172
-2.155606
-2.135087
-2.114891
-2.095253
-2.076367
-2.058373
-2.041364
-2.025374
-2.010385
-1.996325
-1.983075
-1.970467
-1.958300
-1.946341
-1.934339
-1.922038
-1.909188
-1.895558
-1.880948
-1.865196
-1.848192
-1.829877
-1.810244
-1.789338
-1.767248
-1.744098
-1.720038
-1.695228
-1.669834
-1.644007
-1.617882
-1.591571
-1.565159
-1.538165
9.960871
9.960694
9.960213
9.959490
9.958596
9.957591
9.956524
9.955428
9.954324
9.953228
9.952147
9.951086
9.950046
9.949028
9.948032
9.947056
9.946099
9.945158
9.944231
9.943314
9.942401
9.941487
9.940562
9.939613
9.938620
9.937558
9.936388
9.935053
9.933471
9.931522
9.929026
9.925712
9.921173
9.914782
9.905566
9.891975
9.871471
9.839728
9.788920
9.703687
9.549934
9.238914
8.490268
5.917339
-2.417733
-4.278519
-4.134665
-4.133509
-4.119483
-4.018587
-3.774452
-3.481697
-3.409491
-3.392328
-3.383539
-3.382774
-3.397611
-3.432310
-3.482929
-3.505729
-3.393185
-3.248076
-3.161261
-3.057064
-2.925961
-2.802859
-2.736405
-2.736263
-2.789625
-2.882996
-3.002060
-3.129024
-3.251538
-3.364030
-3.461280
-3.538779
-3.595432
-3.627540
-3.634083
-3.616839
-3.579359
-3.526077
-3.461637
-3.390135
-3.314656
-3.237914
-3.161427
-3.085782
-3.011487
-2.938788
-2.867554
-2.797829
-2.729768
-2.663685
-2.600073
-2.539744
-2.483581
-2.432541
-2.387538
-2.349274
-2.318168
-2.294353
-2.277746
-2.268115
-2.265121
-2.268330
-2.277192
-2.290409
-2.307709
-2.328367
-2.351595
-2.376591
-2.402568
-2.428771
-2.454499
-2.479111
-2.502041
-2.522799
-2.540980
-2.556260
-2.568399
-2.577239
-2.582700
-2.584771
-2.583645
-2.579270
-2.571810
-2.561524
-2.548727
-2.533784
-2.517091
-2.499074
-2.480172
-2.460835
-2.441505
-2.422612
-2.404558
-2.387710
-2.372385
-2.358840
-2.347269
-2.337789
-2.330438
-2.325170
-2.321837
-2.320155
-2.319990
-2.321040
-2.322954
-2.325344
-2.327795
-2.329881
-2.331181
-2.331301
-2.329879
-2.326507
-2.320938
-2.313022
-2.302713
-2.290065
-2.275227
-2.258431
-2.239972
-2.220192
-2.199455
-2.178136
-2.156598
-2.135181
-2.114191
-2.093891
-2.074493
-2.056154
-2.038973
-2.022988
-2.008178
-1.994463
-1.981708
-1.969727
-1.958290
-1.947138
-1.935985
-1.924541
-1.912519
-1.899654
-1.885717
-1.870524
-1.853947
-1.835920
-1.816437
-1.795552
-1.773368
-1.750029
-1.725707
-1.700587
-1.674851
-1.648669
-1.622185
-1.595515
-1.568747
-1.541208
9.958947
9.958812
9.958440
9.957867
9.957136
9.956292
9.955372
9.954405
9.953411
9.952405
9.951397
9.950394
9.949398
9.948412
9.947437
9.946471
9.945513
9.944561
9.943612
9.942661
9.941702
9.940728
9.939726
9.938683
9.937576
9.936377
9.935044
9.933518
9.931716
9.929514
9.926734
9.923108
9.918237
9.911503
9.901945
9.888018
9.867157
9.834929
9.783218
9.696289
9.539686
9.228283
8.525941
6.656627
-0.214801
-3.284606
-3.967679
-4.150115
-4.227657
-4.267690
-4.271976
-4.270281
-4.225289
-4.117798
-3.960739
-3.792328
-3.657688
-3.579384
-3.545923
-3.502580
-3.387370
-3.253134
-3.142640
-3.014760
-2.847424
-2.683100
-2.601478
-2.605180
-2.668270
-2.779618
-2.922737
-3.077629
-3.229821
-3.369732
-3.491241
-3.587586
-3.657242
-3.698513
-3.707848
-3.688662
-3.646162
-3.586155
-3.514551
-3.436405
-3.354286
-3.271911
-3.190733
-3.111346
-3.033869
-2.958128
-2.883834
-2.810835
-2.739200
-2.669251
-2.601572
-2.537027
-2.476680
-2.421721
-2.373312
-2.332380
-2.299445
-2.274611
-2.257700
-2.248387
-2.246275
-2.250905
-2.261504
-2.276789
-2.296549
-2.319896
-2.345932
-2.373762
-2.402514
-2.431362
-2.459544
-2.486371
-2.511240
-2.533637
-2.553142
-2.569426
-2.582249
-2.591461
-2.596998
-2.598876
-2.597208
-2.592163
-2.583777
-2.572349
-2.558232
-2.541821
-2.523549
-2.503878
-2.483286
-2.462263
-2.441294
-2.420852
-2.401381
-2.383289
-2.366929
-2.352593
-2.340497
-2.330778
-2.323483
-2.318575
-2.315726
-2.314859
-2.315727
-2.318003
-2.321293
-2.325159
-2.329129
-2.332714
-2.335433
-2.336829
-2.336545
-2.334056
-2.329076
-2.321435
-2.311083
-2.298092
-2.282645
-2.265021
-2.245568
-2.224683
-2.202790
-2.180313
-2.157663
-2.135224
-2.113335
-2.092286
-2.072311
-2.053583
-2.036208
-2.020230
-2.005623
-1.992299
-1.980108
-1.968842
-1.958245
-1.948022
-1.937854
-1.927408
-1.916358
-1.904401
-1.891273
-1.876762
-1.860722
-1.843078
-1.823823
-1.803022
-1.780794
-1.757307
-1.732756
-1.707353
-1.681300
-1.654786
-1.627962
-1.600950
-1.573841
-1.545800
9.957275
9.957168
9.956869
9.956400
9.955790
9.955070
9.954268
9.953408
9.952509
9.951584
9.950644
9.949695
9.948742
9.947788
9.946833
9.945879
9.944923
9.943963
9.942996
9.942017
9.941020
9.939997
9.938934
9.937817
9.936626
9.935330
9.933893
9.932259
9.930356
9.928077
9.925272
9.921724
9.917110
9.910943
9.902468
9.890483
9.873002
9.846620
9.804966
9.733241
9.598647
9.313236
8.591893
6.021241
-2.374530
-4.296592
-4.196078
-4.271343
-4.412609
-4.654275
-4.989117
-5.469710
-5.552334
-5.378467
-5.013236
-4.541692
-4.091463
-3.744367
-3.512075
-3.351500
-3.211634
-3.084386
-2.966479
-2.835904
-2.687851
-2.557397
-2.486231
-2.482550
-2.547476
-2.673079
-2.837228
-3.018755
-3.201208
-3.371145
-3.522048
-3.645583
-3.731566
-3.782750
-3.794312
-3.771916
-3.723082
-3.655077
-3.575260
-3.488922
-3.400269
-3.312386
-3.226708
-3.143541
-3.062546
-2.983148
-2.904863
-2.827523
-2.751307
-2.676674
-2.604293
-2.535062
-2.470117
-2.410811
-2.358586
-2.314677
-2.279764
-2.253887
-2.236711
-2.227783
-2.226647
-2.232815
-2.245034
-2.262814
-2.285343
-2.311671
-2.340802
-2.371742
-2.403527
-2.435253
-2.466089
-2.495296
-2.522232
-2.546356
-2.567235
-2.584535
-2.598023
-2.607560
-2.613096
-2.614666
-2.612388
-2.606527
-2.597067
-2.584342
-2.568738
-2.550685
-2.530650
-2.509133
-2.486653
-2.463743
-2.440936
-2.418752
-2.397684
-2.378184
-2.360650
-2.345410
-2.332712
-2.322713
-2.315467
-2.310903
-2.308643
-2.308678
-2.310715
-2.314383
-2.319243
-2.324798
-2.330511
-2.335823
-2.340179
-2.343048
-2.344061
-2.342590
-2.338288
-2.330954
-2.320539
-2.307138
-2.290979
-2.272396
-2.251801
-2.229660
-2.206459
-2.182682
-2.158794
-2.135220
-2.112336
-2.090462
-2.069852
-2.050695
-2.033107
-2.017133
-2.002747
-1.989853
-1.978283
-1.967810
-1.958149
-1.948971
-1.939915
-1.930607
-1.920676
-1.909776
-1.897602
-1.883914
-1.868543
-1.851401
-1.832484
-1.811863
-1.789680
-1.766124
-1.741421
-1.715805
-1.689505
-1.662720
-1.635608
-1.608276
-1.580801
-1.552126
9.955804
9.955716
9.955467
9.955073
9.954554
9.953930
9.953223
9.952452
9.951633
9.950779
9.949899
9.949000
9.948088
9.947164
9.946231
9.945289
9.944337
9.943373
9.942393
9.941393
9.940367
9.939305
9.938197
9.937028
9.935779
9.934426
9.932936
9.931269
9.929367
9.927158
9.924543
9.921386
9.917500
9.912613
9.906328
9.898027
9.886713
9.870676
9.845783
9.804876
9.731056
9.584150
9.265353
8.843894
3.234681
-4.296593
-4.196078
-4.271344
-4.412609
-4.654276
-5.815916
-6.642714
-6.540026
-6.536707
-6.121960
-5.370909
-4.558341
-3.875438
-3.393044
-3.092167
-2.910751
-2.796325
-2.708839
-2.620917
-2.526284
-2.443835
-2.399711
-2.409379
-2.479006
-2.604455
-2.772859
-2.967738
-3.172040
-3.371370
-3.553333
-3.702697
-3.808797
-3.868731
-3.884637
-3.859171
-3.802984
-3.726247
-3.637771
-3.544158
-3.450027
-3.358155
-3.269576
-3.184007
-3.100431
-3.017694
-2.934994
-2.852145
-2.769578
-2.688189
-2.609165
-2.533825
-2.463465
-2.399381
-2.343048
-2.295958
-2.258968
-2.232012
-2.214578
-2.206083
-2.206042
-2.213863
-2.228429
-2.248985
-2.274610
-2.304229
-2.336730
-2.371014
-2.406028
-2.440792
-2.474413
-2.506097
-2.535163
-2.561046
-2.583298
-2.601584
-2.615678
-2.625459
-2.630896
-2.632043
-2.629037
-2.622216
-2.611532
-2.597358
-2.580114
-2.560262
-2.538302
-2.514768
-2.490223
-2.465245
-2.440415
-2.416307
-2.393467
-2.372398
-2.353548
-2.337287
-2.323901
-2.313577
-2.306397
-2.302088
-2.300508
-2.301542
-2.304875
-2.310098
-2.316720
-2.324179
-2.331864
-2.339136
-2.345358
-2.349923
-2.352343
-2.352054
-2.348522
-2.341528
-2.331025
-2.317143
-2.300163
-2.280489
-2.258610
-2.235070
-2.210426
-2.185227
-2.159992
-2.135191
-2.111237
-2.088477
-2.067186
-2.047566
-2.029744
-2.013768
-1.999611
-1.987169
-1.976262
-1.966640
-1.957993
-1.949955
-1.942126
-1.934085
-1.925415
-1.915721
-1.904659
-1.891952
-1.877405
-1.860919
-1.842488
-1.822194
-1.800198
-1.776716
-1.752001
-1.726316
-1.699909
-1.672989
-1.645697
-1.618093
-1.590136
-1.560195
9.954498
9.954423
9.954212
9.953873
9.953421
9.952872
9.952241
9.951544
9.950793
9.950000
9.949174
9.948320
9.947444
9.946550
9.945638
9.944710
9.943764
9.942798
9.941811
9.940796
9.939749
9.938660
9.937521
9.936318
9.935036
9.933657
9.932157
9.930509
9.928682
9.926640
9.924347
9.921765
9.918864
9.915630
9.912077
9.908258
9.904275
9.900218
9.896083
9.891444
9.884551
9.871541
9.849929
9.841333
9.841333
0.000000
0.000000
0.000000
0.000000
0.000000
-6.600047
-6.600047
-6.927863
-7.300605
-6.965346
-6.016837
-4.920724
-3.954123
-3.247517
-2.815252
-2.583266
-2.481154
-2.440824
-2.417767
-2.390881
-2.364247
-2.355242
-2.381459
-2.454469
-2.576531
-2.741182
-2.936727
-3.149065
-3.363876
-3.566564
-3.740901
-3.868290
-3.934748
-3.957245
-3.932667
-3.871146
-3.787301
-3.692151
-3.593581
-3.496589
-3.403696
-3.315368
-3.230539
-3.147266
-3.063501
-2.977787
-2.889704
-2.799963
-2.710168
-2.622367
-2.538564
-2.460461
-2.389670
-2.328064
-2.277384
-2.238224
-2.209987
-2.192035
-2.183695
-2.184654
-2.194552
-2.211514
-2.235202
-2.264369
-2.297713
-2.333959
-2.371888
-2.410358
-2.448317
-2.484812
-2.519008
-2.550190
-2.577778
-2.601319
-2.620485
-2.635070
-2.644972
-2.650186
-2.650785
-2.646903
-2.639000
-2.626960
-2.611219
-2.592221
-2.570448
-2.546430
-2.520736
-2.493972
-2.466764
-2.439748
-2.413553
-2.388784
-2.366000
-2.345702
-2.328307
-2.314142
-2.303424
-2.296270
-2.292192
-2.291318
-2.293421
-2.298159
-2.305081
-2.313640
-2.323205
-2.333084
-2.342546
-2.350855
-2.357312
-2.361301
-2.362332
-2.359655
-2.353024
-2.342402
-2.327962
-2.310054
-2.289165
-2.265878
-2.240819
-2.214628
-2.187919
-2.161267
-2.135185
-2.110119
-2.086439
-2.064441
-2.044338
-2.026266
-2.010278
-1.996345
-1.984358
-1.974126
-1.965383
-1.957791
-1.950954
-1.944430
-1.937755
-1.930461
-1.922108
-1.912307
-1.900743
-1.887195
-1.871549
-1.853796
-1.834030
-1.812429
-1.789237
-1.764737
-1.739220
-1.712956
-1.686157
-1.658939
-1.631267
-1.602878
-1.571075
9.953332
9.953267
9.953083
9.952786
9.952386
9.951896
9.951326
9.950689
9.949996
9.949255
9.948475
9.947662
9.946820
9.945953
9.945062
9.944148
9.943210
9.942247
9.941255
9.940232
9.939171
9.938066
9.936907
9.935686
9.934390
9.933007
9.931522
9.929925
9.928207
9.926369
9.924434
9.922455
9.920550
9.918937
9.918004
9.918403
9.921184
9.927947
9.941705
9.966106
10.006219
10.067229
10.151435
10.250505
10.250504
0.000000
0.000000
0.000000
0.000000
0.000000
-6.255909
-6.255908
-6.722601
-7.259712
-7.195447
-6.247531
-5.090800
-3.997766
-3.153321
-2.622396
-2.317240
-2.200985
-2.189135
-2.224809
-2.264501
-2.296257
-2.328109
-2.375578
-2.453496
-2.570446
-2.726666
-2.915271
-3.124864
-3.341764
-3.550547
-3.734039
-3.875398
-3.961426
-3.983208
-3.966629
-3.909476
-3.824826
-3.727730
-3.628271
-3.532330
-3.442412
-3.358434
-3.278463
-3.199507
-3.118431
-3.032874
-2.941899
-2.846211
-2.747903
-2.649904
-2.555355
-2.467192
-2.388012
-2.319996
-2.264493
-2.221631
-2.190878
-2.172504
-2.164646
-2.165701
-2.175558
-2.194669
-2.221664
-2.254688
-2.292151
-2.332547
-2.374488
-2.416712
-2.458076
-2.497562
-2.534293
-2.567537
-2.596708
-2.621368
-2.641212
-2.656066
-2.665872
-2.670668
-2.670572
-2.665725
-2.656394
-2.642869
-2.625499
-2.604708
-2.580981
-2.554862
-2.526947
-2.497878
-2.468332
-2.439001
-2.410579
-2.383738
-2.359102
-2.337231
-2.318594
-2.303561
-2.292371
-2.285113
-2.281316
-2.281148
-2.284356
-2.290569
-2.299294
-2.309928
-2.321769
-2.334034
-2.345891
-2.356491
-2.365018
-2.370735
-2.373206
-2.371455
-2.365202
-2.354423
-2.339347
-2.320411
-2.298207
-2.273417
-2.246767
-2.218977
-2.190730
-2.162651
-2.135292
-2.109126
-2.084543
-2.061850
-2.041272
-2.022949
-2.006938
-1.993212
-1.981657
-1.972077
-1.964189
-1.957636
-1.951994
-1.946786
-1.941507
-1.935645
-1.928714
-1.920282
-1.909999
-1.897617
-1.883007
-1.866156
-1.847165
-1.826231
-1.803624
-1.779657
-1.754650
-1.728901
-1.702635
-1.675958
-1.648770
-1.620633
-1.587977
9.952287
9.952230
9.952066
9.951801
9.951443
9.950998
9.950478
9.949890
9.949245
9.948549
9.947810
9.947033
9.946222
9.945380
9.944509
9.943609
9.942681
9.941723
9.940732
9.939705
9.938637
9.937523
9.936356
9.935127
9.933830
9.932455
9.930999
9.929459
9.927848
9.926194
9.924560
9.923068
9.921938
9.921549
9.922544
9.925974
9.933511
9.947693
9.972308
10.013236
10.076700
10.166643
10.277367
10.381225
10.381224
0.000000
0.000000
0.000000
0.000000
0.000000
-5.630756
-5.630756
-6.093516
-6.599304
-6.726678
-6.113279
-5.137629
-4.134342
-3.302864
-2.702630
-2.234994
-2.024246
-1.974307
-2.037143
-2.128213
-2.214305
-2.290186
-2.363946
-2.450444
-2.563276
-2.709038
-2.885901
-3.085367
-3.294791
-3.498959
-3.681235
-3.825817
-3.920967
-3.960818
-3.944974
-3.900345
-3.825884
-3.735345
-3.641390
-3.551674
-3.469378
-3.394227
-3.323530
-3.253218
-3.178952
-3.097279
-3.006532
-2.907220
-2.801812
-2.694094
-2.588399
-2.488948
-2.399415
-2.322590
-2.260047
-2.212035
-2.177939
-2.157232
-2.147909
-2.149321
-2.160703
-2.181571
-2.210948
-2.247290
-2.288686
-2.333248
-2.379337
-2.425516
-2.470492
-2.513134
-2.552492
-2.587797
-2.618454
-2.644037
-2.664281
-2.679065
-2.688404
-2.692426
-2.691351
-2.685454
-2.674477
-2.659251
-2.640070
-2.617345
-2.591564
-2.563281
-2.533108
-2.501713
-2.469806
-2.438126
-2.407420
-2.378423
-2.351830
-2.328268
-2.308275
-2.292283
-2.280577
-2.273076
-2.269570
-2.270100
-2.274421
-2.282139
-2.292725
-2.305522
-2.319758
-2.334558
-2.348978
-2.362047
-2.372815
-2.380416
-2.384439
-2.383677
-2.377801
-2.366815
-2.351025
-2.330980
-2.307389
-2.281054
-2.252800
-2.223432
-2.193696
-2.164260
-2.135707
-2.108528
-2.083122
-2.059803
-2.038797
-2.020248
-2.004214
-1.990667
-1.979494
-1.970492
-1.963371
-1.957760
-1.953213
-1.949229
-1.945269
-1.940788
-1.935264
-1.928228
-1.919302
-1.908214
-1.894819
-1.879101
-1.861166
-1.841225
-1.819568
-1.796537
-1.772484
-1.747741
-1.722571
-1.697117
-1.671324
-1.644807
-1.614140
9.951350
9.951299
9.951151
9.950911
9.950584
9.950177
9.949696
9.949150
9.948544
9.947887
9.947183
9.946438
9.945654
9.944836
9.943984
9.943099
9.942182
9.941231
9.940244
9.939218
9.938149
9.937033
9.935864
9.934636
9.933344
9.931983
9.930554
9.929063
9.927529
9.925995
9.924542
9.923320
9.922584
9.922771
9.924610
9.929284
9.938680
9.955699
9.984556
10.030605
10.099404
10.193197
10.303140
10.400425
10.400424
0.000000
0.000000
0.000000
0.000000
0.000000
-5.265437
-5.265437
-5.564813
-5.900150
-6.080137
-5.877953
-5.346372
-4.642081
-3.911823
-3.255434
-2.709495
-2.289205
-1.997811
-1.908492
-1.981752
-2.108605
-2.227660
-2.330278
-2.427693
-2.537728
-2.673002
-2.836322
-3.021934
-3.218600
-3.412117
-3.587198
-3.729617
-3.828715
-3.879446
-3.882675
-3.843847
-3.786134
-3.710895
-3.629911
-3.552308
-3.482392
-3.420269
-3.362843
-3.305100
-3.241485
-3.167339
-3.080111
-2.979969
-2.869659
-2.753766
-2.637744
-2.527026
-2.426355
-2.339328
-2.268103
-2.213316
-2.174281
-2.149232
-2.140246
-2.142659
-2.155524
-2.178068
-2.209196
-2.247427
-2.291097
-2.338537
-2.388032
-2.437827
-2.486286
-2.532039
-2.574003
-2.611335
-2.643405
-2.669790
-2.690257
-2.704742
-2.713334
-2.716253
-2.713848
-2.706600
-2.694095
-2.677060
-2.655891
-2.631031
-2.602983
-2.572319
-2.539679
-2.505770
-2.471349
-2.437210
-2.404156
-2.372975
-2.344403
-2.319110
-2.297682
-2.280635
-2.268408
-2.260450
-2.257103
-2.258272
-2.263678
-2.272898
-2.285366
-2.300378
-2.317093
-2.334546
-2.351674
-2.367366
-2.380531
-2.390176
-2.395830
-2.396095
-2.390565
-2.379301
-2.362723
-2.341512
-2.316517
-2.288664
-2.258881
-2.228050
-2.196971
-2.166348
-2.136778
-2.108757
-2.082686
-2.058871
-2.037535
-2.018816
-2.002770
-1.989368
-1.978496
-1.969948
-1.963433
-1.958572
-1.954912
-1.951936
-1.949090
-1.945810
-1.941552
-1.935829
-1.928242
-1.918506
-1.906463
-1.892093
-1.875503
-1.856910
-1.836620
-1.814995
-1.792420
-1.769269
-1.745868
-1.722455
-1.699137
-1.675821
-1.650161
9.950511
9.950463
9.950328
9.950108
9.949806
9.949428