# vtk DataFile Version 3.0
Vector Field
ASCII
DATASET RECTILINEAR_GRID
DIMENSIONS 200 50 1
X_COORDINATES 200 double
0.050000 0.150000 0.250000 0.350000 0.450000 0.550000 0.650000 0.750000 0.850000 0.950000 1.050000 1.150000 1.250000 1.350000 1.450000 1.550000 1.650000 1.750000 1.850000 1.950000 2.050000 2.150000 2.250000 2.350000 2.450000 2.550000 2.650000 2.750000 2.850000 2.950000 3.050000 3.150000 3.250000 3.350000 3.450000 3.550000 3.650000 3.750000 3.850000 3.950000 4.050000 4.150000 4.250000 4.350000 4.450000 4.550000 4.650000 4.750000 4.850000 4.950000 5.050000 5.150000 5.250000 5.350000 5.450000 5.550000 5.650000 5.750000 5.850000 5.950000 6.050000 6.150000 6.250000 6.350000 6.450000 6.550000 6.650000 6.750000 6.850000 6.950000 7.050000 7.150000 7.250000 7.350000 7.450000 7.550000 7.650000 7.750000 7.850000 7.950000 8.050000 8.150000 8.250000 8.350000 8.450000 8.550000 8.650000 8.750000 8.850000 8.950000 9.050000 9.150000 9.250000 9.350000 9.450000 9.550000 9.650000 9.750000 9.850000 9.950000 10.050000 10.150000 10.250000 10.350000 10.450000 10.550000 10.650000 10.750000 10.850000 10.950000 11.050000 11.150000 11.250000 11.350000 11.450000 11.550000 11.650000 11.750000 11.850000 11.950000 12.050000 12.150000 12.250000 12.350000 12.450000 12.550000 12.650000 12.750000 12.850000 12.950000 13.050000 13.150000 13.250000 13.350000 13.450000 13.550000 13.650000 13.750000 13.850000 13.950000 14.050000 14.150000 14.250000 14.350000 14.450000 14.550000 14.650000 14.750000 14.850000 14.950000 15.050000 15.150000 15.250000 15.350000 15.450000 15.550000 15.650000 15.750000 15.850000 15.950000 16.050000 16.150000 16.250000 16.350000 16.450000 16.550000 16.650000 16.750000 16.850000 16.950000 17.050000 17.150000 17.250000 17.350000 17.450000 17.550000 17.650000 17.750000 17.850000 17.950000 18.050000 18.150000 18.250000 18.350000 18.450000 18.550000 18.650000 18.750000 18.850000 18.950000 19.050000 19.150000 19.250000 19.350000 19.450000 19.550000 19.650000 19.750000 19.850000 19.950000 
Y_COORDINATES 50 double
0.050000 0.150000 0.250000 0.350000 0.450000 0.550000 0.650000 0.750000 0.850000 0.950000 1.050000 1.150000 1.250000 1.350000 1.450000 1.550000 1.650000 1.750000 1.850000 1.950000 2.050000 2.150000 2.250000 2.350000 2.450000 2.550000 2.650000 2.750000 2.850000 2.950000 3.050000 3.150000 3.250000 3.350000 3.450000 3.550000 3.650000 3.750000 3.850000 3.950000 4.050000 4.150000 4.250000 4.350000 4.450000 4.550000 4.650000 4.750000 4.850000 4.950000 
Z_COORDINATES 1 double
0.0
POINT_DATA 10000
VECTORS Vektorfeld double
0.996424 0.003576 0.0
0.986659 0.006188 0.0
0.973176 0.007295 0.0
0.958052 0.007830 0.0
0.942108 0.008114 0.0
0.925719 0.008274 0.0
0.909079 0.008366 0.0
0.892298 0.008415 0.0
0.875446 0.008438 0.0
0.858566 0.008442 0.0
0.841689 0.008435 0.0
0.824836 0.008418 0.0
0.808023 0.008396 0.0
0.791258 0.008369 0.0
0.774546 0.008342 0.0
0.757889 0.008316 0.0
0.741280 0.008293 0.0
0.724712 0.008275 0.0
0.708170 0.008267 0.0
0.691635 0.008269 0.0
0.675081 0.008285 0.0
0.658477 0.008319 0.0
0.641786 0.008373 0.0
0.624961 0.008453 0.0
0.607944 0.008564 0.0
0.590665 0.008715 0.0
0.573034 0.008916 0.0
0.554936 0.009181 0.0
0.536224 0.009531 0.0
0.516702 0.009991 0.0
0.496111 0.010599 0.0
0.474106 0.011405 0.0
0.450226 0.012475 0.0
0.423850 0.013901 0.0
0.394152 0.015798 0.0
0.360043 0.018311 0.0
0.320126 0.021606 0.0
0.272684 0.025836 0.0
0.215786 0.031062 0.0
0.147630 0.037094 0.0
0.067151 0.043385 0.0
-0.021282 0.045048 0.0
-0.083197 0.016867 0.0
-0.050032 -0.050032 0.0
0.500000 0.050056 0.0
1.000000 0.000000 0.0
1.000000 0.000000 0.0
1.000000 0.000000 0.0
1.000000 0.000000 0.0
1.000000 0.000000 0.0
0.500000 0.031895 0.0
0.031804 -0.031804 0.0
0.080663 -0.017056 0.0
0.099708 -0.001988 0.0
0.095420 0.006276 0.0
0.078916 0.010228 0.0
0.058239 0.010449 0.0
0.040669 0.007121 0.0
0.031708 0.001840 0.0
0.031151 -0.001283 0.0
0.036002 -0.003569 0.0
0.044297 -0.004726 0.0
0.053742 -0.004719 0.0
0.063042 -0.004581 0.0
0.072210 -0.004587 0.0
0.081091 -0.004295 0.0
0.088759 -0.003374 0.0
0.093977 -0.001844 0.0
0.095727 0.000093 0.0
0.093550 0.002083 0.0
0.087586 0.003881 0.0
0.078429 0.005276 0.0
0.067039 0.006113 0.0
0.054596 0.006330 0.0
0.042287 0.005980 0.0
0.031035 0.005272 0.0
0.021010 0.004753 0.0
0.010609 0.005649 0.0
-0.004381 0.009341 0.0
-0.028601 0.014878 0.0
-0.062881 0.019402 0.0
-0.105162 0.022879 0.0
-0.154276 0.026234 0.0
-0.210018 0.029508 0.0
-0.272034 0.032508 0.0
-0.339615 0.035073 0.0
-0.411793 0.037106 0.0
-0.487430 0.038531 0.0
-0.565273 0.039312 0.0
-0.644032 0.039447 0.0
-0.722451 0.038972 0.0
-0.799373 0.037950 0.0
-0.873785 0.036462 0.0
-0.944850 0.034603 0.0
-1.011923 0.032470 0.0
-1.074546 0.030154 0.0
-1.132436 0.027736 0.0
-1.185456 0.025285 0.0
-1.233593 0.022852 0.0
-1.276919 0.020475 0.0
-1.315572 0.018177 0.0
-1.349722 0.015973 0.0
-1.379561 0.013866 0.0
-1.405281 0.011855 0.0
-1.427069 0.009933 0.0
-1.445093 0.008091 0.0
-1.459498 0.006314 0.0
-1.470397 0.004585 0.0
-1.477877 0.002895 0.0
-1.481979 0.001207 0.0
-1.482731 -0.000454 0.0
-1.480137 -0.002140 0.0
-1.474155 -0.003842 0.0
-1.464754 -0.005560 0.0
-1.451891 -0.007303 0.0
-1.435513 -0.009074 0.0
-1.415567 -0.010872 0.0
-1.392009 -0.012687 0.0
-1.364815 -0.014507 0.0
-1.333996 -0.016313 0.0
-1.299598 -0.018086 0.0
-1.261709 -0.019803 0.0
-1.220459 -0.021446 0.0
-1.176020 -0.022994 0.0
-1.128594 -0.024431 0.0
-1.078423 -0.025740 0.0
-1.025773 -0.026909 0.0
-0.970939 -0.027926 0.0
-0.914230 -0.028783 0.0
-0.855984 -0.029464 0.0
-0.796560 -0.029960 0.0
-0.736304 -0.030295 0.0
-0.675531 -0.030479 0.0
-0.614596 -0.030456 0.0
-0.553904 -0.030236 0.0
-0.493717 -0.029952 0.0
-0.434158 -0.029607 0.0
-0.375591 -0.028961 0.0
-0.318446 -0.028183 0.0
-0.262482 -0.027782 0.0
-0.207520 -0.027180 0.0
-0.154330 -0.026010 0.0
-0.102741 -0.025580 0.0
-0.051480 -0.025682 0.0
-0.000273 -0.025525 0.0
0.050264 -0.025012 0.0
0.098625 -0.023350 0.0
0.144018 -0.022043 0.0
0.187198 -0.021137 0.0
0.228824 -0.020488 0.0
0.269313 -0.020001 0.0
0.308939 -0.019625 0.0
0.347891 -0.019327 0.0
0.386303 -0.019085 0.0
0.424265 -0.018877 0.0
0.461820 -0.018678 0.0
0.498964 -0.018467 0.0
0.535650 -0.018219 0.0
0.571781 -0.017913 0.0
0.607221 -0.017527 0.0
0.641793 -0.017045 0.0
0.675291 -0.016452 0.0
0.707482 -0.015740 0.0
0.738125 -0.014904 0.0
0.766976 -0.013947 0.0
0.793801 -0.012878 0.0
0.818389 -0.011710 0.0
0.840560 -0.010461 0.0
0.860177 -0.009155 0.0
0.877148 -0.007816 0.0
0.891434 -0.006471 0.0
0.903051 -0.005146 0.0
0.912066 -0.003869 0.0
0.918598 -0.002664 0.0
0.922821 -0.001560 0.0
0.924988 -0.000607 0.0
0.925428 0.000166 0.0
0.924373 0.000889 0.0
0.921903 0.001581 0.0
0.918133 0.002189 0.0
0.913253 0.002692 0.0
0.907475 0.003086 0.0
0.901015 0.003374 0.0
0.894080 0.003561 0.0
0.886865 0.003654 0.0
0.879549 0.003662 0.0
0.872296 0.003592 0.0
0.865248 0.003455 0.0
0.858532 0.003260 0.0
0.852256 0.003016 0.0
0.846507 0.002734 0.0
0.841349 0.002424 0.0
0.836828 0.002098 0.0
0.832962 0.001768 0.0
0.829747 0.001447 0.0
0.827152 0.001148 0.0
0.825123 0.000881 0.0
0.823594 0.000648 0.0
0.822553 0.000393 0.0
0.822170 -0.000010 0.0
1.001719 0.005433 0.0
1.005217 0.010598 0.0
1.008250 0.013335 0.0
1.010216 0.014948 0.0
1.011166 0.015990 0.0
1.011239 0.016715 0.0
1.010555 0.017249 0.0
1.009205 0.017661 0.0
1.007259 0.017990 0.0
1.004769 0.018260 0.0
1.001777 0.018486 0.0
0.998316 0.018680 0.0
0.994413 0.018851 0.0
0.990087 0.019005 0.0
0.985356 0.019150 0.0
0.980229 0.019293 0.0
0.974712 0.019441 0.0
0.968804 0.019602 0.0
0.962501 0.019785 0.0
0.955789 0.019997 0.0
0.948653 0.020248 0.0
0.941066 0.020547 0.0
0.932996 0.020906 0.0
0.924402 0.021339 0.0
0.915230 0.021866 0.0
0.905412 0.022510 0.0
0.894859 0.023305 0.0
0.883455 0.024293 0.0
0.871051 0.025536 0.0
0.857445 0.027115 0.0
0.842370 0.029142 0.0
0.825465 0.031772 0.0
0.806241 0.035213 0.0
0.784034 0.039746 0.0
0.757941 0.045743 0.0
0.726739 0.053676 0.0
0.688795 0.064102 0.0
0.641984 0.077593 0.0
0.583685 0.094503 0.0
0.511076 0.114418 0.0
0.422662 0.134953 0.0
0.320279 0.144296 0.0
0.198752 0.101061 0.0
0.065713 -0.034351 0.0
0.500000 0.034424 0.0
1.000000 0.000000 0.0
1.000000 0.000000 0.0
1.000000 0.000000 0.0
1.000000 0.000000 0.0
1.000000 0.000000 0.0
0.500000 0.090550 0.0
0.026683 -0.090290 0.0
0.069260 -0.050006 0.0
0.088482 -0.007304 0.0
0.086483 0.017879 0.0
0.069793 0.031819 0.0
0.043732 0.035597 0.0
0.012253 0.031021 0.0
-0.021795 0.020948 0.0
-0.051147 0.009518 0.0
-0.069540 -0.000827 0.0
-0.079626 -0.005676 0.0
-0.086516 -0.006322 0.0
-0.091972 -0.006822 0.0
-0.095350 -0.008136 0.0
-0.096610 -0.008366 0.0
-0.097451 -0.006129 0.0
-0.100033 -0.001725 0.0
-0.105777 0.003969 0.0
-0.115445 0.010051 0.0
-0.129307 0.015740 0.0
-0.147146 0.020414 0.0
-0.168515 0.023735 0.0
-0.193091 0.025727 0.0
-0.220963 0.026763 0.0
-0.252657 0.027434 0.0
-0.288628 0.028585 0.0
-0.328202 0.031792 0.0
-0.369135 0.039121 0.0
-0.409816 0.049999 0.0
-0.451958 0.060703 0.0
-0.498398 0.070300 0.0
-0.550070 0.079598 0.0
-0.606745 0.088562 0.0
-0.668026 0.096751 0.0
-0.733346 0.103730 0.0
-0.801897 0.109178 0.0
-0.872667 0.112865 0.0
-0.944517 0.114671 0.0
-1.016258 0.114588 0.0
-1.086726 0.112717 0.0
-1.154842 0.109242 0.0
-1.219668 0.104408 0.0
-1.280439 0.098494 0.0
-1.336574 0.091788 0.0
-1.387680 0.084565 0.0
-1.433531 0.077066 0.0
-1.474048 0.069492 0.0
-1.509262 0.061995 0.0
-1.539288 0.054684 0.0
-1.564294 0.047626 0.0
-1.584474 0.040855 0.0
-1.600034 0.034382 0.0
-1.611176 0.028201 0.0
-1.618092 0.022291 0.0
-1.620953 0.016619 0.0
-1.619900 0.011138 0.0
-1.615033 0.005793 0.0
-1.606503 0.000636 0.0
-1.594706 -0.004231 0.0
-1.580003 -0.008967 0.0
-1.562542 -0.013682 0.0
-1.542399 -0.018424 0.0
-1.519551 -0.023227 0.0
-1.493931 -0.028119 0.0
-1.465457 -0.033110 0.0
-1.434048 -0.038191 0.0
-1.399634 -0.043339 0.0
-1.362168 -0.048514 0.0
-1.321629 -0.053663 0.0
-1.278039 -0.058725 0.0
-1.231455 -0.063637 0.0
-1.181979 -0.068338 0.0
-1.129745 -0.072775 0.0
-1.074923 -0.076898 0.0
-1.017716 -0.080653 0.0
-0.958358 -0.084003 0.0
-0.897104 -0.086921 0.0
-0.834218 -0.089383 0.0
-0.769997 -0.091331 0.0
-0.704790 -0.092724 0.0
-0.638921 -0.093656 0.0
-0.572607 -0.094206 0.0
-0.506156 -0.094114 0.0
-0.440059 -0.093367 0.0
-0.374538 -0.092528 0.0
-0.309490 -0.091638 0.0
-0.245287 -0.089701 0.0
-0.182533 -0.087341 0.0
-0.120834 -0.086288 0.0
-0.059923 -0.084547 0.0
0.000473 -0.082229 0.0
0.059857 -0.080334 0.0
0.116109 -0.078441 0.0
0.168592 -0.076455 0.0
0.218153 -0.074180 0.0
0.266275 -0.070665 0.0
0.313841 -0.067686 0.0
0.360561 -0.065394 0.0
0.406337 -0.063633 0.0
0.451259 -0.062269 0.0
0.495482 -0.061206 0.0
0.539159 -0.060374 0.0
0.582415 -0.059708 0.0
0.625345 -0.059146 0.0
0.668001 -0.058619 0.0
0.710393 -0.058061 0.0
0.752485 -0.057403 0.0
0.794200 -0.056576 0.0
0.835415 -0.055519 0.0
0.875968 -0.054179 0.0
0.915664 -0.052511 0.0
0.954278 -0.050487 0.0
0.991572 -0.048093 0.0
1.027296 -0.045333 0.0
1.061205 -0.042226 0.0
1.093065 -0.038810 0.0
1.122668 -0.035135 0.0
1.149833 -0.031263 0.0
1.174422 -0.027267 0.0
1.196336 -0.023221 0.0
1.215527 -0.019204 0.0
1.231993 -0.015291 0.0
1.245775 -0.011556 0.0
1.256952 -0.008068 0.0
1.265589 -0.004903 0.0
1.271712 -0.002101 0.0
1.275513 0.000409 0.0
1.277375 0.002670 0.0
1.277624 0.004621 0.0
1.276539 0.006225 0.0
1.274392 0.007478 0.0
1.271444 0.008390 0.0
1.267942 0.008982 0.0
1.264113 0.009277 0.0
1.260162 0.009305 0.0
1.256271 0.009094 0.0
1.252594 0.008678 0.0
1.249258 0.008088 0.0
1.246362 0.007360 0.0
1.243973 0.006528 0.0
1.242130 0.005629 0.0
1.240841 0.004702 0.0
1.240090 0.003781 0.0
1.239837 0.002903 0.0
1.240023 0.002101 0.0
1.240575 0.001405 0.0
1.241388 0.000840 0.0
1.242238 0.000392 0.0
1.242318 0.000295 0.0
1.000673 0.003041 0.0
1.002547 0.007620 0.0
1.005019 0.010808 0.0
1.007465 0.013063 0.0
1.009664 0.014726 0.0
1.011559 0.016011 0.0
1.013150 0.017046 0.0
1.014453 0.017911 0.0
1.015484 0.018656 0.0
1.016256 0.019312 0.0
1.016777 0.019904 0.0
1.017055 0.020446 0.0
1.017092 0.020952 0.0
1.016890 0.021432 0.0
1.016446 0.021898 0.0
1.015757 0.022360 0.0
1.014816 0.022831 0.0
1.013614 0.023322 0.0
1.012138 0.023845 0.0
1.010371 0.024415 0.0
1.008292 0.025045 0.0
1.005877 0.025751 0.0
1.003095 0.026552 0.0
0.999911 0.027471 0.0
0.996280 0.028537 0.0
0.992150 0.029788 0.0
0.987458 0.031274 0.0
0.982122 0.033063 0.0
0.976043 0.035250 0.0
0.969090 0.037960 0.0
0.961090 0.041371 0.0
0.951814 0.045724 0.0
0.940944 0.051354 0.0
0.928036 0.058720 0.0
0.912454 0.068446 0.0
0.893265 0.081364 0.0
0.869086 0.098537 0.0
0.837833 0.121223 0.0
0.796347 0.150659 0.0
0.739860 0.187357 0.0
0.661233 0.229055 0.0
0.549018 0.264792 0.0
0.384492 0.266617 0.0
0.143131 0.174494 0.0
0.500000 -0.174363 0.0
1.000000 0.000000 0.0
1.000000 0.000000 0.0
1.000000 0.000000 0.0
1.000000 0.000000 0.0
1.000000 0.000000 0.0
0.500000 0.130712 0.0
0.013353 -0.130327 0.0
0.031167 -0.070360 0.0
0.024091 0.000903 0.0
-0.011800 0.047562 0.0
-0.062522 0.069547 0.0
-0.117039 0.078447 0.0
-0.173155 0.075765 0.0
-0.224914 0.062012 0.0
-0.264544 0.037436 0.0
-0.286501 0.011605 0.0
-0.295219 0.000694 0.0
-0.301839 0.000819 0.0
-0.309761 -0.000586 0.0
-0.315427 -0.005328 0.0
-0.317535 -0.007806 0.0
-0.318966 -0.004416 0.0
-0.323087 0.003264 0.0
-0.331763 0.013401 0.0
-0.346003 0.024527 0.0
-0.366074 0.035198 0.0
-0.391526 0.044246 0.0
-0.421322 0.051069 0.0
-0.454101 0.055748 0.0
-0.488439 0.058952 0.0
-0.523137 0.061638 0.0
-0.557530 0.064745 0.0
-0.591585 0.069261 0.0
-0.625466 0.076465 0.0
-0.659164 0.087034 0.0
-0.693124 0.099769 0.0
-0.728584 0.113134 0.0
-0.766674 0.126526 0.0
-0.807841 0.139476 0.0
-0.852040 0.151317 0.0
-0.898917 0.161361 0.0
-0.947865 0.169046 0.0
-0.998076 0.173979 0.0
-1.048623 0.175955 0.0
-1.098541 0.174964 0.0
-1.146900 0.171168 0.0
-1.192866 0.164874 0.0
-1.235749 0.156486 0.0
-1.275025 0.146462 0.0
-1.310339 0.135269 0.0
-1.341499 0.123349 0.0
-1.368448 0.111082 0.0
-1.391234 0.098778 0.0
-1.409979 0.086668 0.0
-1.424844 0.074903 0.0
-1.436006 0.063574 0.0
-1.443639 0.052719 0.0
-1.447903 0.042341 0.0
-1.448940 0.032421 0.0
-1.446876 0.022923 0.0
-1.441821 0.013793 0.0
-1.433860 0.004950 0.0
-1.423282 -0.003464 0.0
-1.410602 -0.011317 0.0
-1.395906 -0.018771 0.0
-1.378991 -0.026045 0.0
-1.359798 -0.033259 0.0
-1.338260 -0.040527 0.0
-1.314299 -0.047931 0.0
-1.287818 -0.055516 0.0
-1.258709 -0.063296 0.0
-1.226866 -0.071257 0.0
-1.192195 -0.079358 0.0
-1.154622 -0.087535 0.0
-1.114106 -0.095696 0.0
-1.070650 -0.103738 0.0
-1.024297 -0.111559 0.0
-0.975138 -0.119052 0.0
-0.923298 -0.126136 0.0
-0.868923 -0.132734 0.0
-0.812203 -0.138743 0.0
-0.753373 -0.144100 0.0
-0.692686 -0.148765 0.0
-0.630364 -0.152745 0.0
-0.566644 -0.155909 0.0
-0.501924 -0.158073 0.0
-0.436624 -0.159476 0.0
-0.370833 -0.160493 0.0
-0.304723 -0.160387 0.0
-0.238921 -0.158995 0.0
-0.173757 -0.157585 0.0
-0.109144 -0.156242 0.0
-0.045143 -0.153301 0.0
0.018543 -0.150181 0.0
0.080361 -0.146965 0.0
0.138733 -0.143153 0.0
0.194117 -0.139404 0.0
0.246875 -0.135301 0.0
0.297767 -0.130617 0.0
0.347194 -0.126189 0.0
0.395141 -0.121954 0.0
0.441897 -0.117769 0.0
0.487755 -0.114005 0.0
0.532783 -0.110824 0.0
0.577036 -0.108232 0.0
0.620611 -0.106169 0.0
0.663641 -0.104559 0.0
0.706261 -0.103317 0.0
0.748593 -0.102354 0.0
0.790731 -0.101568 0.0
0.832729 -0.100852 0.0
0.874601 -0.100093 0.0
0.916312 -0.099175 0.0
0.957780 -0.097986 0.0
0.998874 -0.096418 0.0
1.039420 -0.094379 0.0
1.079206 -0.091793 0.0
1.117993 -0.088606 0.0
1.155519 -0.084794 0.0
1.191518 -0.080356 0.0
1.225728 -0.075322 0.0
1.257901 -0.069748 0.0
1.287817 -0.063715 0.0
1.315289 -0.057320 0.0
1.340169 -0.050678 0.0
1.362355 -0.043910 0.0
1.381788 -0.037140 0.0
1.398457 -0.030490 0.0
1.412394 -0.024076 0.0
1.423668 -0.017998 0.0
1.432391 -0.012333 0.0
1.438722 -0.007125 0.0
1.442822 -0.002468 0.0
1.444897 0.001611 0.0
1.445229 0.005099 0.0
1.444090 0.007971 0.0
1.441735 0.010234 0.0
1.438407 0.011909 0.0
1.434340 0.013032 0.0
1.429752 0.013645 0.0
1.424843 0.013797 0.0
1.419794 0.013542 0.0
1.414764 0.012937 0.0
1.409886 0.012042 0.0
1.405270 0.010918 0.0
1.400999 0.009629 0.0
1.397131 0.008239 0.0
1.393702 0.006810 0.0
1.390724 0.005402 0.0
1.388191 0.004068 0.0
1.386083 0.002857 0.0
1.384364 0.001815 0.0
1.382977 0.001005 0.0
1.381819 0.000535 0.0
1.380696 0.001195 0.0
1.000311 0.002057 0.0
1.001332 0.005709 0.0
1.002924 0.008655 0.0
1.004717 0.010977 0.0
1.006504 0.012826 0.0
1.008188 0.014331 0.0
1.009732 0.015590 0.0
1.011126 0.016670 0.0
1.012371 0.017621 0.0
1.013472 0.018475 0.0
1.014435 0.019257 0.0
1.015266 0.019985 0.0
1.015967 0.020675 0.0
1.016540 0.021338 0.0
1.016986 0.021989 0.0
1.017303 0.022641 0.0
1.017487 0.023307 0.0
1.017532 0.024003 0.0
1.017429 0.024743 0.0
1.017168 0.025546 0.0
1.016734 0.026427 0.0
1.016111 0.027407 0.0
1.015280 0.028509 0.0
1.014219 0.029760 0.0
1.012903 0.031195 0.0
1.011305 0.032857 0.0
1.009395 0.034807 0.0
1.007138 0.037122 0.0
1.004499 0.039910 0.0
1.001435 0.043318 0.0
0.997898 0.047550 0.0
0.993830 0.052890 0.0
0.989150 0.059738 0.0
0.983738 0.068656 0.0
0.977388 0.080442 0.0
0.969725 0.096220 0.0
0.960020 0.117564 0.0
0.946831 0.146638 0.0
0.927260 0.186302 0.0
0.895464 0.239996 0.0
0.839664 0.310844 0.0
0.736493 0.398389 0.0
0.543735 0.490303 0.0
0.209139 0.526764 0.0
0.500000 -0.526549 0.0
1.000000 0.000000 0.0
1.000000 0.000000 0.0
1.000000 0.000000 0.0
1.000000 0.000000 0.0
1.000000 0.000000 0.0
0.500000 0.133947 0.0
-0.010179 -0.133501 0.0
-0.045439 -0.049739 0.0
-0.102585 0.044503 0.0
-0.163578 0.100846 0.0
-0.225207 0.128615 0.0
-0.292323 0.141013 0.0
-0.360590 0.137581 0.0
-0.423650 0.115015 0.0
-0.469846 0.070259 0.0
-0.484470 0.015362 0.0
-0.477286 -0.001529 0.0
-0.476757 0.009133 0.0
-0.486515 0.008779 0.0
-0.491987 -0.003555 0.0
-0.488321 -0.011138 0.0
-0.482892 -0.005082 0.0
-0.482563 0.007723 0.0
-0.489013 0.024069 0.0
-0.502911 0.041997 0.0
-0.524272 0.059161 0.0
-0.552031 0.073493 0.0
-0.584250 0.083838 0.0
-0.618619 0.090127 0.0
-0.652941 0.093233 0.0
-0.685528 0.094642 0.0
-0.715435 0.096041 0.0
-0.742443 0.099029 0.0
-0.766795 0.104931 0.0
-0.788929 0.114401 0.0
-0.809563 0.126996 0.0
-0.829802 0.141607 0.0
-0.850811 0.157152 0.0
-0.873406 0.172613 0.0
-0.897964 0.186937 0.0
-0.924480 0.199133 0.0
-0.952647 0.208388 0.0
-0.981938 0.214139 0.0
-1.011693 0.216097 0.0
-1.041204 0.214250 0.0
-1.069787 0.208824 0.0
-1.096845 0.200241 0.0
-1.121895 0.189051 0.0
-1.144590 0.175867 0.0
-1.164715 0.161303 0.0
-1.182165 0.145925 0.0
-1.196923 0.130212 0.0
-1.209026 0.114538 0.0
-1.218540 0.099166 0.0
-1.225531 0.084261 0.0
-1.230053 0.069901 0.0
-1.232135 0.056108 0.0
-1.231788 0.042868 0.0
-1.229008 0.030150 0.0
-1.223792 0.017914 0.0
-1.216155 0.006110 0.0
-1.206286 -0.005197 0.0
-1.194627 -0.015553 0.0
-1.181221 -0.025313 0.0
-1.165855 -0.034837 0.0
-1.148525 -0.044225 0.0
-1.129186 -0.053612 0.0
-1.107767 -0.063130 0.0
-1.084170 -0.072887 0.0
-1.058268 -0.082945 0.0
-1.029926 -0.093320 0.0
-0.999011 -0.103991 0.0
-0.965397 -0.114909 0.0
-0.928974 -0.125981 0.0
-0.889673 -0.137067 0.0
-0.847482 -0.148015 0.0
-0.802433 -0.158685 0.0
-0.754621 -0.168897 0.0
-0.704177 -0.178575 0.0
-0.651204 -0.187644 0.0
-0.595863 -0.195895 0.0
-0.538392 -0.203248 0.0
-0.479096 -0.209601 0.0
-0.418201 -0.215127 0.0
-0.355798 -0.219650 0.0
-0.292217 -0.222633 0.0
-0.227999 -0.224432 0.0
-0.163392 -0.225935 0.0
-0.098544 -0.225902 0.0
-0.033405 -0.224421 0.0
0.031635 -0.222363 0.0
0.094707 -0.219149 0.0
0.155135 -0.214823 0.0
0.213202 -0.210411 0.0
0.269211 -0.204562 0.0
0.323691 -0.198409 0.0
0.376431 -0.192271 0.0
0.427327 -0.186088 0.0
0.476507 -0.179902 0.0
0.524123 -0.173947 0.0
0.570302 -0.168322 0.0
0.615244 -0.163101 0.0
0.659156 -0.158443 0.0
0.702198 -0.154456 0.0
0.744514 -0.151168 0.0
0.786258 -0.148552 0.0
0.827594 -0.146541 0.0
0.868682 -0.145043 0.0
0.909664 -0.143943 0.0
0.950654 -0.143106 0.0
0.991727 -0.142384 0.0
1.032908 -0.141614 0.0
1.074171 -0.140628 0.0
1.115431 -0.139260 0.0
1.156542 -0.137350 0.0
1.197306 -0.134757 0.0
1.237469 -0.131365 0.0
1.276740 -0.127092 0.0
1.314800 -0.121895 0.0
1.351319 -0.115773 0.0
1.385973 -0.108769 0.0
1.418464 -0.100966 0.0
1.448534 -0.092483 0.0
1.475978 -0.083467 0.0
1.500647 -0.074082 0.0
1.522457 -0.064502 0.0
1.541377 -0.054902 0.0
1.557431 -0.045452 0.0
1.570687 -0.036307 0.0
1.581250 -0.027604 0.0
1.589258 -0.019457 0.0
1.594877 -0.011951 0.0
1.598292 -0.005158 0.0
1.599700 0.000817 0.0
1.599346 0.005914 0.0
1.597502 0.010139 0.0
1.594415 0.013507 0.0
1.590328 0.016050 0.0
1.585470 0.017815 0.0
1.580058 0.018861 0.0
1.574290 0.019257 0.0
1.568342 0.019079 0.0
1.562366 0.018408 0.0
1.556484 0.017330 0.0
1.550795 0.015935 0.0
1.545368 0.014311 0.0
1.540247 0.012547 0.0
1.535452 0.010727 0.0
1.530984 0.008931 0.0
1.526827 0.007227 0.0
1.522958 0.005674 0.0
1.519356 0.004319 0.0
1.516028 0.003216 0.0
1.513057 0.002452 0.0
1.510931 0.002529 0.0
1.000175 0.001571 0.0
1.000804 0.004545 0.0
1.001875 0.007156 0.0
1.003183 0.009376 0.0
1.004574 0.011250 0.0
1.005954 0.012844 0.0
1.007271 0.014217 0.0
1.008500 0.015421 0.0
1.009630 0.016495 0.0
1.010660 0.017470 0.0
1.011588 0.018369 0.0
1.012419 0.019211 0.0
1.013155 0.020012 0.0
1.013798 0.020784 0.0
1.014351 0.021544 0.0
1.014815 0.022305 0.0
1.015190 0.023084 0.0
1.015472 0.023898 0.0
1.015659 0.024764 0.0
1.015745 0.025700 0.0
1.015724 0.026727 0.0
1.015587 0.027866 0.0
1.015327 0.029141 0.0
1.014934 0.030581 0.0
1.014403 0.032221 0.0
1.013727 0.034105 0.0
1.012907 0.036290 0.0
1.011949 0.038853 0.0
1.010871 0.041895 0.0
1.009711 0.045557 0.0
1.008527 0.050030 0.0
1.007420 0.055586 0.0
1.006534 0.062607 0.0
1.006080 0.071652 0.0
1.006339 0.083537 0.0
1.007641 0.099486 0.0
1.010284 0.121359 0.0
1.014268 0.152048 0.0
1.018609 0.196122 0.0
1.019620 0.260960 0.0
1.006682 0.358620 0.0
0.951851 0.508614 0.0
0.784955 0.739732 0.0
0.330492 1.066395 0.0
0.500000 -1.066034 0.0
1.000000 0.000000 0.0
1.000000 0.000000 0.0
1.000000 0.000000 0.0
1.000000 0.000000 0.0
1.000000 0.000000 0.0
0.500000 0.079040 0.0
-0.044741 -0.078581 0.0
-0.136731 0.022591 0.0
-0.218221 0.110811 0.0
-0.287808 0.165118 0.0
-0.359934 0.198098 0.0
-0.434862 0.213574 0.0
-0.512404 0.210829 0.0
-0.589994 0.182418 0.0
-0.650170 0.109229 0.0
-0.644969 -0.014185 0.0
-0.594023 -0.030112 0.0
-0.580394 0.023557 0.0
-0.602716 0.026437 0.0
-0.610508 -0.007949 0.0
-0.592108 -0.028809 0.0
-0.571286 -0.013661 0.0
-0.562892 0.007578 0.0
-0.564341 0.032112 0.0
-0.575571 0.059081 0.0
-0.596759 0.084625 0.0
-0.626155 0.105182 0.0
-0.660668 0.118881 0.0
-0.696807 0.125592 0.0
-0.731350 0.126634 0.0
-0.761837 0.124315 0.0
-0.786849 0.121286 0.0
-0.806012 0.119954 0.0
-0.819747 0.122093 0.0
-0.828973 0.128599 0.0
-0.834925 0.139384 0.0
-0.839059 0.153591 0.0
-0.842834 0.169951 0.0
-0.847441 0.187016 0.0
-0.853651 0.203301 0.0
-0.861808 0.217443 0.0
-0.871899 0.228338 0.0
-0.883647 0.235228 0.0
-0.896604 0.237721 0.0
-0.910247 0.235779 0.0
-0.924044 0.229676 0.0
-0.937516 0.219919 0.0
-0.950267 0.207174 0.0
-0.961994 0.192167 0.0
-0.972483 0.175617 0.0
-0.981590 0.158169 0.0
-0.989223 0.140358 0.0
-0.995312 0.122585 0.0
-0.999798 0.105120 0.0
-1.002615 0.088115 0.0
-1.003678 0.071630 0.0
-1.002880 0.055664 0.0
-1.000102 0.040187 0.0
-0.995224 0.025173 0.0
-0.988148 0.010600 0.0
-0.978818 -0.003543 0.0
-0.967850 -0.016381 0.0
-0.955499 -0.028379 0.0
-0.941411 -0.039982 0.0
-0.925621 -0.051324 0.0
-0.908138 -0.062549 0.0
-0.888941 -0.073823 0.0
-0.867960 -0.085318 0.0
-0.845073 -0.097183 0.0
-0.820113 -0.109510 0.0
-0.792905 -0.122304 0.0
-0.763289 -0.135537 0.0
-0.731102 -0.149164 0.0
-0.696177 -0.163074 0.0
-0.658406 -0.177046 0.0
-0.617775 -0.190858 0.0
-0.574287 -0.204379 0.0
-0.528066 -0.217236 0.0
-0.479333 -0.229413 0.0
-0.428152 -0.240958 0.0
-0.374630 -0.251445 0.0
-0.318932 -0.260866 0.0
-0.261366 -0.268845 0.0
-0.202316 -0.275829 0.0
-0.141974 -0.281693 0.0
-0.080436 -0.285710 0.0
-0.017459 -0.288551 0.0
0.045771 -0.289653 0.0
0.107715 -0.288975 0.0
0.168321 -0.287092 0.0
0.227516 -0.283926 0.0
0.285613 -0.278756 0.0
0.342739 -0.272771 0.0
0.398373 -0.266164 0.0
0.452328 -0.258772 0.0
0.504598 -0.250950 0.0
0.555092 -0.242965 0.0
0.603773 -0.234970 0.0
0.650700 -0.227127 0.0
0.695988 -0.219625 0.0
0.739780 -0.212615 0.0
0.782263 -0.206232 0.0
0.823638 -0.200600 0.0
0.864109 -0.195811 0.0
0.903877 -0.191897 0.0
0.943150 -0.188840 0.0
0.982137 -0.186576 0.0
1.021044 -0.185002 0.0
1.060057 -0.183979 0.0
1.099335 -0.183339 0.0
1.138999 -0.182888 0.0
1.179119 -0.182411 0.0
1.219706 -0.181681 0.0
1.260706 -0.180466 0.0
1.301991 -0.178540 0.0
1.343360 -0.175698 0.0
1.384539 -0.171766 0.0
1.425188 -0.166611 0.0
1.464912 -0.160158 0.0
1.503276 -0.152392 0.0
1.539833 -0.143360 0.0
1.574145 -0.133178 0.0
1.605816 -0.122013 0.0
1.634513 -0.110079 0.0
1.659994 -0.097621 0.0
1.682118 -0.084896 0.0
1.700851 -0.072161 0.0
1.716258 -0.059654 0.0
1.728487 -0.047589 0.0
1.737745 -0.036144 0.0
1.744282 -0.025462 0.0
1.748363 -0.015646 0.0
1.750247 -0.006762 0.0
1.750204 0.001056 0.0
1.748506 0.007726 0.0
1.745409 0.013269 0.0
1.741167 0.017706 0.0
1.736031 0.021076 0.0
1.730239 0.023439 0.0
1.724018 0.024871 0.0
1.717574 0.025460 0.0
1.711089 0.025308 0.0
1.704720 0.024525 0.0
1.698589 0.023226 0.0
1.692789 0.021529 0.0
1.687379 0.019554 0.0
1.682385 0.017418 0.0
1.677804 0.015231 0.0
1.673608 0.013092 0.0
1.669747 0.011084 0.0
1.666162 0.009271 0.0
1.662797 0.007689 0.0
1.659633 0.006340 0.0
1.656751 0.005180 0.0
1.654663 0.004015 0.0
1.000113 0.001282 0.0
1.000538 0.003780 0.0
1.001299 0.006088 0.0
1.002279 0.008156 0.0
1.003373 0.009985 0.0
1.004503 0.011599 0.0
1.005618 0.013030 0.0
1.006687 0.014310 0.0
1.007692 0.015470 0.0
1.008625 0.016533 0.0
1.009481 0.017521 0.0
1.010260 0.018450 0.0
1.010962 0.019335 0.0
1.011589 0.020191 0.0
1.012142 0.021031 0.0
1.012623 0.021873 0.0
1.013033 0.022733 0.0
1.013370 0.023629 0.0
1.013634 0.024581 0.0
1.013823 0.025608 0.0
1.013932 0.026731 0.0
1.013961 0.027971 0.0
1.013907 0.029351 0.0
1.013771 0.030900 0.0
1.013556 0.032649 0.0
1.013273 0.034636 0.0
1.012942 0.036911 0.0
1.012596 0.039536 0.0
1.012292 0.042594 0.0
1.012119 0.046193 0.0
1.012215 0.050481 0.0
1.012792 0.055665 0.0
1.014171 0.062035 0.0
1.016832 0.070018 0.0
1.021483 0.080261 0.0
1.029164 0.093779 0.0
1.041356 0.112231 0.0
1.060105 0.138443 0.0
1.088044 0.177447 0.0
1.128023 0.238645 0.0
1.181340 0.340557 0.0
1.240487 0.522360 0.0
1.271565 0.861804 0.0
0.636732 1.781559 0.0
-1.831293 -0.698216 0.0
-3.631685 0.000000 0.0
-3.590678 0.000000 0.0
-3.570904 0.000000 0.0
-3.543755 0.000000 0.0
-3.489932 0.000000 0.0
-1.726795 0.017149 0.0
-0.080696 0.037601 0.0
-0.216119 0.124565 0.0
-0.313868 0.188076 0.0
-0.390215 0.233786 0.0
-0.450353 0.261693 0.0
-0.500482 0.275035 0.0
-0.549005 0.275433 0.0
-0.613664 0.260062 0.0
-0.698505 0.176602 0.0
-0.660693 -0.124571 0.0
-0.558808 -0.072558 0.0
-0.585063 0.078629 0.0
-0.665548 0.074173 0.0
-0.682493 -0.030948 0.0
-0.626848 -0.079856 0.0
-0.580477 -0.029807 0.0
-0.567157 0.002009 0.0
-0.563426 0.035398 0.0
-0.571318 0.074917 0.0
-0.593370 0.112029 0.0
-0.626659 0.140462 0.0
-0.666168 0.157624 0.0
-0.706732 0.163551 0.0
-0.743774 0.160260 0.0
-0.773848 0.151250 0.0
-0.794998 0.140514 0.0
-0.806739 0.131630 0.0
-0.809804 0.127219 0.0
-0.805790 0.128685 0.0
-0.796753 0.136213 0.0
-0.784854 0.148997 0.0
-0.772096 0.165562 0.0
-0.760127 0.184042 0.0
-0.750103 0.202460 0.0
-0.742660 0.218998 0.0
-0.737993 0.232207 0.0
-0.735974 0.241087 0.0
-0.736257 0.245103 0.0
-0.738375 0.244158 0.0
-0.741816 0.238535 0.0
-0.746085 0.228802 0.0
-0.750749 0.215705 0.0
-0.755442 0.200056 0.0
-0.759871 0.182645 0.0
-0.763796 0.164174 0.0
-0.767022 0.145211 0.0
-0.769381 0.126179 0.0
-0.770718 0.107350 0.0
-0.770882 0.088866 0.0
-0.769700 0.070761 0.0
-0.766969 0.053005 0.0
-0.762463 0.035562 0.0
-0.755988 0.018444 0.0
-0.747437 0.001701 0.0
-0.737370 -0.014041 0.0
-0.725937 -0.028284 0.0
-0.712800 -0.041964 0.0
-0.698099 -0.055187 0.0
-0.681896 -0.068112 0.0
-0.664236 -0.080904 0.0
-0.645130 -0.093773 0.0
-0.624518 -0.106962 0.0
-0.602242 -0.120702 0.0
-0.578059 -0.135135 0.0
-0.551743 -0.150203 0.0
-0.523131 -0.165867 0.0
-0.492042 -0.182110 0.0
-0.458256 -0.198840 0.0
-0.421639 -0.215668 0.0
-0.382236 -0.232269 0.0
-0.339969 -0.248723 0.0
-0.294934 -0.264148 0.0
-0.247489 -0.278679 0.0
-0.197802 -0.292560 0.0
-0.146089 -0.305079 0.0
-0.092407 -0.316612 0.0
-0.036618 -0.326454 0.0
0.020960 -0.334849 0.0
0.079106 -0.341160 0.0
0.137139 -0.345813 0.0
0.194884 -0.349171 0.0
0.252408 -0.349787 0.0
0.310042 -0.348418 0.0
0.367327 -0.345541 0.0
0.423746 -0.341091 0.0
0.479084 -0.335026 0.0
0.533179 -0.327722 0.0
0.585778 -0.319446 0.0
0.636714 -0.310380 0.0
0.685903 -0.300802 0.0
0.733287 -0.290991 0.0
0.778854 -0.281191 0.0
0.822652 -0.271633 0.0
0.864781 -0.262536 0.0
0.905379 -0.254095 0.0
0.944622 -0.246478 0.0
0.982712 -0.239820 0.0
1.019867 -0.234217 0.0
1.056321 -0.229711 0.0
1.092313 -0.226291 0.0
1.128092 -0.223892 0.0
1.163903 -0.222403 0.0
1.199978 -0.221666 0.0
1.236528 -0.221480 0.0
1.273729 -0.221611 0.0
1.311713 -0.221791 0.0
1.350555 -0.221730 0.0
1.390266 -0.221127 0.0
1.430783 -0.219680 0.0
1.471960 -0.217105 0.0
1.513569 -0.213148 0.0
1.555295 -0.207604 0.0
1.596742 -0.200336 0.0
1.637443 -0.191279 0.0
1.676872 -0.180459 0.0
1.714469 -0.167989 0.0
1.749666 -0.154068 0.0
1.781919 -0.138972 0.0
1.810745 -0.123034 0.0
1.835764 -0.106626 0.0
1.856728 -0.090129 0.0
1.873546 -0.073912 0.0
1.886291 -0.058304 0.0
1.895186 -0.043583 0.0
1.900581 -0.029955 0.0
1.902902 -0.017555 0.0
1.902618 -0.006452 0.0
1.900195 0.003213 0.0
1.896026 0.011436 0.0
1.890449 0.018233 0.0
1.883794 0.023639 0.0
1.876364 0.027709 0.0
1.868445 0.030518 0.0
1.860296 0.032162 0.0
1.852157 0.032752 0.0
1.844240 0.032418 0.0
1.836728 0.031297 0.0
1.829771 0.029541 0.0
1.823482 0.027303 0.0
1.817932 0.024740 0.0
1.813152 0.022006 0.0
1.809130 0.019246 0.0
1.805810 0.016592 0.0
1.803100 0.014154 0.0
1.800876 0.012010 0.0
1.798994 0.010197 0.0
1.797314 0.008677 0.0
1.795734 0.007305 0.0
1.794370 0.005342 0.0
1.000080 0.001088 0.0
1.000388 0.003242 0.0
1.000955 0.005297 0.0