# vtk DataFile Version 3.0
Scalar Field
ASCII
DATASET RECTILINEAR_GRID
DIMENSIONS 200 50 1
X_COORDINATES 200 double
0.050000 0.150000 0.250000 0.350000 0.450000 0.550000 0.650000 0.750000 0.850000 0.950000 1.050000 1.150000 1.250000 1.350000 1.450000 1.550000 1.650000 1.750000 1.850000 1.950000 2.050000 2.150000 2.250000 2.350000 2.450000 2.550000 2.650000 2.750000 2.850000 2.950000 3.050000 3.150000 3.250000 3.350000 3.450000 3.550000 3.650000 3.750000 3.850000 3.950000 4.050000 4.150000 4.250000 4.350000 4.450000 4.550000 4.650000 4.750000 4.850000 4.950000 5.050000 5.150000 5.250000 5.350000 5.450000 5.550000 5.650000 5.750000 5.850000 5.950000 6.050000 6.150000 6.250000 6.350000 6.450000 6.550000 6.650000 6.750000 6.850000 6.950000 7.050000 7.150000 7.250000 7.350000 7.450000 7.550000 7.650000 7.750000 7.850000 7.950000 8.050000 8.150000 8.250000 8.350000 8.450000 8.550000 8.650000 8.750000 8.850000 8.950000 9.050000 9.150000 9.250000 9.350000 9.450000 9.550000 9.650000 9.750000 9.850000 9.950000 10.050000 10.150000 10.250000 10.350000 10.450000 10.550000 10.650000 10.750000 10.850000 10.950000 11.050000 11.150000 11.250000 11.350000 11.450000 11.550000 11.650000 11.750000 11.850000 11.950000 12.050000 12.150000 12.250000 12.350000 12.450000 12.550000 12.650000 12.750000 12.850000 12.950000 13.050000 13.150000 13.250000 13.350000 13.450000 13.550000 13.650000 13.750000 13.850000 13.950000 14.050000 14.150000 14.250000 14.350000 14.450000 14.550000 14.650000 14.750000 14.850000 14.950000 15.050000 15.150000 15.250000 15.350000 15.450000 15.550000 15.650000 15.750000 15.850000 15.950000 16.050000 16.150000 16.250000 16.350000 16.450000 16.550000 16.650000 16.750000 16.850000 16.950000 17.050000 17.150000 17.250000 17.350000 17.450000 17.550000 17.650000 17.750000 17.850000 17.950000 18.050000 18.150000 18.250000 18.350000 18.450000 18.550000 18.650000 18.750000 18.850000 18.950000 19.050000 19.150000 19.250000 19.350000 19.450000 19.550000 19.650000 19.750000 19.850000 19.950000 
Y_COORDINATES 50 double
0.050000 0.150000 0.250000 0.350000 0.450000 0.550000 0.650000 0.750000 0.850000 0.950000 1.050000 1.150000 1.250000 1.350000 1.450000 1.550000 1.650000 1.750000 1.850000 1.950000 2.050000 2.150000 2.250000 2.350000 2.450000 2.550000 2.650000 2.750000 2.850000 2.950000 3.050000 3.150000 3.250000 3.350000 3.450000 3.550000 3.650000 3.750000 3.850000 3.950000 4.050000 4.150000 4.250000 4.350000 4.450000 4.550000 4.650000 4.750000 4.850000 4.950000 
Z_COORDINATES 1 double
0.0
POINT_DATA 10000
SCALARS Skalarfeld double 1
LOOKUP_TABLE default
10.226512
10.214081
10.206998
10.202289
10.198813
10.196066
10.193796
10.191860
10.190175
10.188686
10.187357
10.186163
10.185090
10.184126
10.183265
10.182504
10.181843
10.181284
10.180831
10.180490
10.180269
10.180180
10.180238
10.180459
10.180867
10.181489
10.182362
10.183527
10.185038
10.186964
10.189387
10.192411
10.196163
10.200793
10.206473
10.213373
10.221625
10.231233
10.241919
10.252887
10.262564
10.267056
10.267651
10.284990
10.284990
0.000000
0.000000
0.000000
0.000000
0.000000
-2.501125
-2.501124
-2.504784
-2.507546
-2.504715
-2.496396
-2.483959
-2.470465
-2.462785
-2.454492
-2.442072
-2.432579
-2.435376
-2.456219
-2.496412
-2.558375
-2.641913
-2.743686
-2.857483
-2.975095
-3.087553
-3.186460
-3.265147
-3.319369
-3.347384
-3.349353
-3.328419
-3.288253
-3.232891
-3.166337
-3.092210
-3.013612
-2.933119
-2.852817
-2.774357
-2.699021
-2.627791
-2.561411
-2.500439
-2.445294
-2.396284
-2.353615
-2.317399
-2.287645
-2.264249
-2.246993
-2.235524
-2.229592
-2.228612
-2.231950
-2.238939
-2.248901
-2.261136
-2.274943
-2.289635
-2.304545
-2.319042
-2.332509
-2.344387
-2.354181
-2.361514
-2.366051
-2.367532
-2.365789
-2.360750
-2.352433
-2.340948
-2.326491
-2.309336
-2.289827
-2.268366
-2.245400
-2.221410
-2.196896
-2.172362
-2.148307
-2.125200
-2.103475
-2.083516
-2.065649
-2.050132
-2.037151
-2.026812
-2.019140
-2.014079
-2.011487
-2.011137
-2.012725
-2.015871
-2.020138
-2.025039
-2.030057
-2.034658
-2.038319
-2.040544
-2.040889
-2.038990
-2.034576
-2.027484
-2.017663
-2.005182
-1.990216
-1.973030
-1.953980
-1.933488
-1.912011
-1.890021
-1.867987
-1.846352
-1.825525
-1.805848
-1.787624
-1.771141
-1.756587
-1.744069
-1.733620
-1.725209
-1.718746
-1.714078
-1.710992
-1.709225
-1.708467
-1.708368
-1.708551
-1.708619
-1.708168
-1.706799
-1.704136
-1.699824
-1.693569
-1.685130
-1.674334
-1.661083
-1.645356
-1.627208
-1.606757
-1.584184
-1.559711
-1.533591
-1.506092
-1.477481
-1.448010
-1.417906
-1.387362
-1.356541
-1.325572
-1.294556
-1.263559
-1.232611
-1.201295
10.212442
10.208764
10.204585
10.200984
10.197996
10.195494
10.193361
10.191510
10.189881
10.188429
10.187127
10.185953
10.184893
10.183938
10.183082
10.182324
10.181662
10.181099
10.180638
10.180285
10.180048
10.179938
10.179968
10.180153
10.180516
10.181080
10.181878
10.182947
10.184334
10.186098
10.188309
10.191054
10.194441
10.198593
10.203655
10.209775
10.217076
10.225598
10.235184
10.245285
10.254581
10.261273
10.271828
10.296476
10.296476
0.000000
0.000000
0.000000
0.000000
0.000000
-2.508831
-2.508829
-2.512369
-2.513973
-2.509881
-2.500364
-2.485788
-2.469292
-2.460456
-2.451218
-2.436123
-2.425822
-2.428892
-2.450168
-2.492342
-2.557489
-2.645299
-2.752183
-2.871480
-2.994389
-3.111317
-3.213360
-3.293594
-3.347875
-3.375018
-3.375960
-3.352166
-3.308547
-3.249775
-3.180026
-3.102942
-3.021618
-2.938618
-2.856022
-2.775482
-2.698291
-2.625438
-2.557671
-2.495552
-2.439498
-2.389817
-2.346719
-2.310307
-2.280579
-2.257416
-2.240589
-2.229796
-2.224470
-2.224150
-2.228183
-2.235879
-2.246560
-2.259515
-2.274027
-2.289397
-2.304953
-2.320083
-2.334126
-2.346530
-2.356826
-2.364569
-2.369420
-2.371131
-2.369534
-2.364558
-2.356222
-2.344635
-2.329997
-2.312586
-2.292753
-2.270909
-2.247509
-2.223044
-2.198026
-2.172974
-2.148402
-2.124796
-2.102605
-2.082227
-2.064001
-2.048198
-2.035012
-2.024557
-2.016862
-2.011872
-2.009447
-2.009356
-2.011284
-2.014841
-2.019572
-2.024974
-2.030511
-2.035631
-2.039787
-2.042461
-2.043192
-2.041597
-2.037394
-2.030414
-2.020604
-2.008039
-1.992904
-1.975462
-1.956082
-1.935216
-1.913335
-1.890927
-1.868476
-1.846443
-1.825265
-1.805265
-1.786723
-1.770007
-1.755282
-1.742654
-1.732163
-1.723780
-1.717408
-1.712889
-1.710009
-1.708496
-1.708032
-1.708262
-1.708795
-1.709225
-1.709135
-1.708116
-1.705776
-1.701756
-1.695747
-1.687500
-1.676838
-1.663658
-1.647941
-1.629742
-1.609189
-1.586469
-1.561814
-1.535489
-1.507773
-1.478943
-1.449259
-1.418956
-1.388231
-1.357248
-1.326131
-1.294968
-1.263804
-1.232629
-1.200561
10.205148
10.203781
10.201408
10.198885
10.196521
10.194391
10.192489
10.190788
10.189259
10.187878
10.186624
10.185484
10.184447
10.183505
10.182655
10.181893
10.181220
10.180636
10.180147
10.179755
10.179468
10.179293
10.179241
10.179324
10.179557
10.179957
10.180544
10.181341
10.182375
10.183674
10.185270
10.187195
10.189482
10.192162
10.195256
10.198772
10.202698
10.207004
10.211693
10.216990
10.223991
10.236929
10.267288
10.323145
10.323145
0.000000
0.000000
0.000000
0.000000
0.000000
-2.515177
-2.515176
-2.521029
-2.522052
-2.516199
-2.506171
-2.490915
-2.473684
-2.458018
-2.440509
-2.420304
-2.407832
-2.411579
-2.436113
-2.484428
-2.558272
-2.656684
-2.775203
-2.906136
-3.039559
-3.164796
-3.272107
-3.354246
-3.407336
-3.430943
-3.425183
-3.394495
-3.344109
-3.278923
-3.203239
-3.120735
-3.034496
-2.947068
-2.860513
-2.776470
-2.696214
-2.620721
-2.550721
-2.486752
-2.429216
-2.378415
-2.334564
-2.297769
-2.268016
-2.245159
-2.228927
-2.218928
-2.214629
-2.215429
-2.220724
-2.229826
-2.241959
-2.256360
-2.272281
-2.288994
-2.305810
-2.322041
-2.337123
-2.350490
-2.361625
-2.370084
-2.375515
-2.377655
-2.376333
-2.371473
-2.363096
-2.351314
-2.336333
-2.318442
-2.298005
-2.275449
-2.251250
-2.225912
-2.199970
-2.173973
-2.148463
-2.123956
-2.100926
-2.079796
-2.060929
-2.044617
-2.031070
-2.020415
-2.012686
-2.007833
-2.005720
-2.006107
-2.008662
-2.012972
-2.018556
-2.024882
-2.031379
-2.037458
-2.042530
-2.046039
-2.047485
-2.046448
-2.042633
-2.035853
-2.026054
-2.013319
-1.997867
-1.979940
-1.959930
-1.938361
-1.915724
-1.892535
-1.869301
-1.846511
-1.824614
-1.803993
-1.784978
-1.767864
-1.752845
-1.740041
-1.729491
-1.721167
-1.714970
-1.710736
-1.708240
-1.707201
-1.707289
-1.708130
-1.709318
-1.710426
-1.711017
-1.710657
-1.708934
-1.705467
-1.699931
-1.692058
-1.681662
-1.668635
-1.652956
-1.634689
-1.613971
-1.591004
-1.566041
-1.539365
-1.511276
-1.482068
-1.452017
-1.421371
-1.390333
-1.359067
-1.327686
-1.296252
-1.264764
-1.233124
-1.199963
10.200457
10.199808
10.198383
10.196631
10.194814
10.193057
10.191411
10.189886
10.188481
10.187187
10.185996
10.184898
10.183888
10.182961
10.182113
10.181343
10.180651
10.180038
10.179506
10.179059
10.178699
10.178433
10.178267
10.178207
10.178259
10.178430
10.178725
10.179146
10.179689
10.180342
10.181077
10.181845
10.182563
10.183097
10.183243
10.182704
10.181066
10.177822
10.172510
10.165250
10.158362
10.160384
10.191541
10.273647
10.273647
0.000000
0.000000
0.000000
0.000000
0.000000
-2.513579
-2.513578
-2.521379
-2.525424
-2.522638
-2.514037
-2.500738
-2.483546
-2.461337
-2.429207
-2.393027
-2.373681
-2.378437
-2.408062
-2.464885
-2.550937
-2.664621
-2.800121
-2.948138
-3.097078
-3.234651
-3.349835
-3.434901
-3.486387
-3.504531
-3.490102
-3.450386
-3.391138
-3.317588
-3.234180
-3.144625
-3.052008
-2.958859
-2.867217
-2.778693
-2.694523
-2.615658
-2.542781
-2.476380
-2.416829
-2.364413
-2.319383
-2.281864
-2.251840
-2.229151
-2.213484
-2.204396
-2.201321
-2.203612
-2.210570
-2.221435
-2.235396
-2.251631
-2.269354
-2.287835
-2.306367
-2.324256
-2.340863
-2.355602
-2.367942
-2.377428
-2.383691
-2.386456
-2.385544
-2.380876
-2.372469
-2.360443
-2.345014
-2.326486
-2.305241
-2.281730
-2.256456
-2.229938
-2.202737
-2.175454
-2.148665
-2.122922
-2.098746
-2.076578
-2.056820
-2.039794
-2.025737
-2.014797
-2.006999
-2.002311
-2.000613
-2.001644
-2.005048
-2.010385
-2.017140
-2.024741
-2.032572
-2.039988
-2.046346
-2.051036
-2.053503
-2.053292
-2.050048
-2.043569
-2.033793
-2.020805
-2.004830
-1.986192
-1.965333
-1.942776
-1.919071
-1.894782
-1.870462
-1.846636
-1.823785
-1.802327
-1.782619
-1.764952
-1.749532
-1.736484
-1.725855
-1.717614
-1.711659
-1.707818
-1.705856
-1.705477
-1.706333
-1.708029
-1.710137
-1.712202
-1.713756
-1.714335
-1.713497
-1.710831
-1.705982
-1.698664
-1.688673
-1.675892
-1.660301
-1.641970
-1.621052
-1.597772
-1.572407
-1.545271
-1.516688
-1.486982
-1.456450
-1.425354
-1.393911
-1.362283
-1.330572
-1.298821
-1.266998
-1.234976
-1.201128
10.196985
10.196611
10.195690
10.194443
10.193048
10.191617
10.190213
10.188868
10.187595
10.186397
10.185275
10.184226
10.183248
10.182337
10.181493
10.180715
10.180003
10.179356
10.178777
10.178266
10.177826
10.177459
10.177165
10.176946
10.176800
10.176723
10.176702
10.176721
10.176743
10.176716
10.176550
10.176108
10.175176
10.173429
10.170377
10.165283
10.157054
10.144097
10.124167
10.094361
10.051857
9.997313
9.945798
9.948500
9.948500
0.000000
0.000000
0.000000
0.000000
0.000000
-2.504509
-2.504508
-2.517743
-2.528527
-2.531779
-2.528113
-2.518656
-2.503668
-2.477758
-2.420774
-2.347744
-2.317473
-2.326295
-2.361921
-2.427208
-2.527145
-2.659730
-2.817228
-2.988174
-3.158666
-3.313988
-3.440878
-3.530783
-3.581146
-3.592239
-3.568317
-3.518090
-3.448438
-3.365096
-3.272673
-3.174881
-3.074793
-2.974927
-2.877293
-2.783457
-2.694592
-2.611649
-2.535261
-2.465829
-2.403697
-2.349092
-2.302375
-2.263701
-2.233068
-2.210309
-2.195082
-2.186889
-2.185109
-2.189035
-2.197893
-2.210845
-2.227001
-2.245451
-2.265384
-2.286037
-2.306680
-2.326604
-2.345102
-2.361564
-2.375430
-2.386221
-2.393548
-2.397123
-2.396755
-2.392361
-2.383954
-2.371658
-2.355713
-2.336432
-2.314221
-2.289559
-2.262994
-2.235047
-2.206292
-2.177432
-2.149068
-2.121789
-2.096146
-2.072660
-2.051768
-2.033827
-2.019107
-2.007778
-1.999898
-1.995436
-1.994251
-1.996077
-2.000540
-2.007162
-2.015386
-2.024591
-2.034100
-2.043207
-2.051201
-2.057395
-2.061165
-2.061987
-2.059464
-2.053359
-2.043602
-2.030289
-2.013674
-1.994139
-1.972181
-1.948373
-1.923327
-1.897665
-1.871996
-1.846890
-1.822867
-1.800380
-1.779810
-1.761459
-1.745545
-1.732200
-1.721473
-1.713335
-1.707676
-1.704318
-1.703012
-1.703446
-1.705250
-1.708007
-1.711258
-1.714516
-1.717278
-1.719043
-1.719327
-1.717684
-1.713724
-1.707133
-1.697683
-1.685249
-1.669808
-1.651439
-1.630315
-1.606687
-1.580866
-1.553199
-1.524048
-1.493768
-1.462684
-1.431080
-1.399184
-1.367160
-1.335108
-1.303060
-1.270988
-1.238816
-1.204897
10.194207
10.193962
10.193323
10.192405
10.191319
10.190151
10.188959
10.187781
10.186635
10.185535
10.184484
10.183486
10.182541
10.181650
10.180811
10.180024
10.179291
10.178610
10.177981
10.177406
10.176883
10.176412
10.175990
10.175612
10.175270
10.174950
10.174629
10.174269
10.173814
10.173174
10.172212
10.170719
10.168373
10.164681
10.158882
10.149795
10.135546
10.113105
10.077373
10.019301
9.921588
9.748050
9.417116
9.030904
3.698824
-3.357774
-3.209211
-3.203440
-3.195101
-3.121662
-2.718554
-2.499174
-2.517680
-2.537360
-2.549385
-2.552053
-2.547548
-2.540491
-2.531152
-2.431571
-2.270424
-2.233069
-2.258568
-2.298622
-2.368069
-2.482240
-2.637227
-2.821895
-3.022100
-3.221044
-3.400655
-3.543634
-3.640265
-3.689517
-3.692453
-3.658036
-3.596028
-3.514743
-3.420566
-3.318284
-3.211514
-3.103266
-2.996033
-2.891767
-2.791983
-2.697676
-2.609925
-2.529364
-2.456196
-2.390871
-2.333319
-2.284321
-2.243986
-2.212341
-2.189227
-2.174266
-2.166896
-2.166427
-2.172084
-2.183020
-2.198327
-2.217015
-2.237966
-2.260418
-2.283581
-2.306681
-2.328995
-2.349694
-2.368185
-2.383857
-2.396198
-2.404797
-2.409346
-2.409646
-2.405607
-2.397252
-2.384709
-2.368203
-2.348076
-2.324756
-2.298747
-2.270618
-2.240971
-2.210453
-2.179751
-2.149535
-2.120452
-2.093115
-2.068088
-2.045858
-2.026832
-2.011317
-1.999513
-1.991511
-1.987286
-1.986690
-1.989448
-1.995157
-2.003302
-2.013274
-2.024389
-2.035906
-2.047047
-2.057016
-2.065037
-2.070393
-2.072476
-2.070829
-2.065178
-2.055441
-2.041734
-2.024350
-2.003735
-1.980453
-1.955149
-1.928510
-1.901228
-1.873973
-1.847372
-1.821987
-1.798306
-1.776735
-1.757593
-1.741108
-1.727420
-1.716580
-1.708557
-1.703237
-1.700430
-1.699874
-1.701239
-1.704135
-1.708116
-1.712692
-1.717340
-1.721516
-1.724676
-1.726292
-1.725872
-1.722988
-1.717288
-1.708520
-1.696543
-1.681333
-1.662979
-1.641676
-1.617706
-1.591418
-1.563202
-1.533460
-1.502585
-1.470935
-1.438817
-1.406473
-1.374070
-1.341705
-1.309405
-1.277163
-1.244995
-1.211430
10.191882
10.191706
10.191237
10.190536
10.189673
10.188710
10.187694
10.186661
10.185633
10.184624
10.183643
10.182695
10.181784
10.180912
10.180078
10.179284
10.178529
10.177813
10.177136
10.176497
10.175892
10.175320
10.174774
10.174246
10.173722
10.173181
10.172593
10.171911
10.171061
10.169938
10.168377
10.166130
10.162818
10.157854
10.150319
10.138745
10.120719
10.092115
10.045457
9.966029
9.821236
9.525883
8.810298
6.339092
-1.633254
-3.357773
-3.209211
-3.203440
-3.195101
-3.121661
-2.937932
-2.709140
-2.655639
-2.640461
-2.622679
-2.599428
-2.575037
-2.556213
-2.544236
-2.419156
-2.175505
-2.121085
-2.194395
-2.225147
-2.286494
-2.416006
-2.597403
-2.813293
-3.047544
-3.280589
-3.491386
-3.654680
-3.759854
-3.808142
-3.803913
-3.758071
-3.682837
-3.588506
-3.482389
-3.369565
-3.253328
-3.136542
-3.021694
-2.910532
-2.804621
-2.704207
-2.610919
-2.525160
-2.447498
-2.378154
-2.317359
-2.265561
-2.223072
-2.190041
-2.166337
-2.151528
-2.144955
-2.145840
-2.153329
-2.166519
-2.184450
-2.205608
-2.229389
-2.254826
-2.280957
-2.306838
-2.331612
-2.354760
-2.375549
-2.393254
-2.407339
-2.417368
-2.423015
-2.424065
-2.420423
-2.412110
-2.399262
-2.382125
-2.361054
-2.336501
-2.308999
-2.279153
-2.247619
-2.215101
-2.182327
-2.150024
-2.118903
-2.089641
-2.062856
-2.039095
-2.018816
-2.002372
-1.990004
-1.981833
-1.977848
-1.977906
-1.981717
-1.988852
-1.998748
-2.010733
-2.024054
-2.037903
-2.051420
-2.063718
-2.073905
-2.081149
-2.084737
-2.084136
-2.079025
-2.069314
-2.055145
-2.036862
-2.014986
-1.990167
-1.963140
-1.934677
-1.905552
-1.876507
-1.848225
-1.821316
-1.796303
-1.773617
-1.753595
-1.736475
-1.722403
-1.711432
-1.703527
-1.698568
-1.696356
-1.696614
-1.698995
-1.703085
-1.708412
-1.714453
-1.720646
-1.726405
-1.731139
-1.734270
-1.735258
-1.733626
-1.728983
-1.721048
-1.709661
-1.694793
-1.676544
-1.655135
-1.630882
-1.604179
-1.575461
-1.545176
-1.513760
-1.481603
-1.449037
-1.416316
-1.383608
-1.350995
-1.318481
-1.286034
-1.253672
-1.219791
10.189878
10.189745
10.189383
10.188829
10.188127
10.187321
10.186448
10.185538
10.184612
10.183686
10.182769
10.181869
10.180991
10.180136
10.179308
10.178506
10.177730
10.176981
10.176257
10.175555
10.174873
10.174205
10.173543
10.172878
10.172192
10.171462
10.170654
10.169718
10.168579
10.167131
10.165210
10.162575
10.158854
10.153476
10.145541
10.133594
10.115213
10.086190
10.038813
9.957939
9.810947
9.516148
8.847049
7.057215
0.504037
-2.401206
-3.041694
-3.207247
-3.275524
-3.311132
-3.316751
-3.307221
-3.240252
-3.124122
-2.985724
-2.850752
-2.736203
-2.642841
-2.542932
-2.369191
-2.177751
-2.123333
-2.131226
-2.129403
-2.193997
-2.350414
-2.556786
-2.798069
-3.062690
-3.330367
-3.581159
-3.769315
-3.886716
-3.937617
-3.928658
-3.870428
-3.779830
-3.670408
-3.550735
-3.426607
-3.300183
-3.174114
-3.050857
-2.932063
-2.819037
-2.712605
-2.613659
-2.522719
-2.440198
-2.366387
-2.301611
-2.246342
-2.201095
-2.166220
-2.141652
-2.126873
-2.121076
-2.123367
-2.132816
-2.148459
-2.168883
-2.193074
-2.220082
-2.248823
-2.278245
-2.307344
-2.335186
-2.360923
-2.383914
-2.403857
-2.419837
-2.431410
-2.438228
-2.440068
-2.436826
-2.428529
-2.415323
-2.397470
-2.375346
-2.349427
-2.320279
-2.288546
-2.254933
-2.220198
-2.185125
-2.150505
-2.117117
-2.085704
-2.056950
-2.031467
-2.009768
-1.992261
-1.979232
-1.970836
-1.967087
-1.967851
-1.972832
-1.981568
-1.993438
-2.007689
-2.023499
-2.039989
-2.056226
-2.071221
-2.083938
-2.093395
-2.098751
-2.099378
-2.094902
-2.085228
-2.070529
-2.051220
-2.027913
-2.001361
-1.972404
-1.941917
-1.910763
-1.879759
-1.849651
-1.821094
-1.794648
-1.770766
-1.749800
-1.731997
-1.717507
-1.706382
-1.698585
-1.693989
-1.692384
-1.693482
-1.696916
-1.702253
-1.708993
-1.716580
-1.724417
-1.731874
-1.738310
-1.743096
-1.745641
-1.745417
-1.741989
-1.735042
-1.724395
-1.710014
-1.692010
-1.670628
-1.646223
-1.619235
-1.590148
-1.559460
-1.527650
-1.495144
-1.462298
-1.429374
-1.396529
-1.363812
-1.331159
-1.298403
-1.265315
-1.229107
10.188118
10.188012
10.187722
10.187270
10.186686
10.186000
10.185240
10.184432
10.183593
10.182739
10.181880
10.181023
10.180174
10.179336
10.178512
10.177702
10.176907
10.176125
10.175356
10.174596
10.173840
10.173084
10.172319
10.171532
10.170707
10.169821
10.168842
10.167724
10.166404
10.164788
10.162746
10.160080
10.156501
10.151565
10.144578
10.134428
10.119267
10.095896
10.058484
9.993476
9.869239
9.602522
8.921021
6.469637
-1.540932
-3.347896
-3.245030
-3.304304
-3.416887
-3.603846
-3.860966
-4.200801
-4.138339
-3.889998
-3.582340
-3.286748
-3.049090
-2.868195
-2.701927
-2.513389
-2.333290
-2.220590
-2.162183
-2.146088
-2.203030
-2.338323
-2.541250
-2.795035
-3.078370
-3.372711
-3.652002
-3.876288
-4.018630
-4.079201
-4.066936
-3.995093
-3.886877
-3.760657
-3.626039
-3.489480
-3.352856
-3.217851
-3.086102
-2.959116
-2.838185
-2.724353
-2.618543
-2.521409
-2.433330
-2.354518
-2.285212
-2.225884
-2.177297
-2.140157
-2.114545
-2.099788
-2.094838
-2.098681
-2.110298
-2.128558
-2.152033
-2.179681
-2.210317
-2.242754
-2.275840
-2.308484
-2.339678
-2.368516
-2.394211
-2.416066
-2.434086
-2.447288
-2.455322
-2.457955
-2.455085
-2.446747
-2.433100
-2.414427
-2.391123
-2.363691
-2.332729
-2.298919
-2.263017
-2.225836
-2.188225
-2.151044
-2.115148
-2.081351
-2.050413
-2.023011
-1.999724
-1.981014
-1.967218
-1.958532
-1.955000
-1.956508
-1.962760
-1.973268
-1.987334
-2.004086
-2.022632
-2.042043
-2.061325
-2.079401
-2.095035
-2.107053
-2.114457
-2.116504
-2.112765
-2.103143
-2.087858
-2.067411
-2.042525
-2.014077
-1.983029
-1.950369
-1.917057
-1.883989
-1.851973
-1.821707
-1.793782
-1.768670
-1.746734
-1.728227
-1.713299
-1.702001
-1.694290
-1.690032
-1.689009
-1.690918
-1.695379
-1.701938
-1.710071
-1.719195
-1.728675
-1.737842
-1.746011
-1.752502
-1.756672
-1.757944
-1.755840
-1.750008
-1.740247
-1.726516
-1.708935
-1.687775
-1.663427
-1.636377
-1.607158
-1.576317
-1.544376
-1.511796
-1.478956
-1.446124
-1.413444
-1.380918
-1.348378
-1.315448
-1.281453
-1.241560
10.186551
10.186463
10.186223
10.185844
10.185346
10.184752
10.184082
10.183356
10.182591
10.181798
10.180989
10.180170
10.179347
10.178524
10.177703
10.176885
10.176071
10.175258
10.174447
10.173632
10.172810
10.171975
10.171116
10.170224
10.169283
10.168273
10.167167
10.165931
10.164518
10.162866
10.160893
10.158483
10.155476
10.151641
10.146636
10.139924
10.130631
10.117241
10.096267
10.060762
9.995301
9.862312
9.568879
9.180265
3.819666
-3.347896
-3.245031
-3.304305
-3.416887
-3.603846
-4.447391
-5.033814
-4.755853
-4.472338
-4.068720
-3.652666
-3.336948
-3.138385
-2.981063
-2.810178
-2.626653
-2.463942
-2.343946
-2.284862
-2.307263
-2.414524
-2.595008
-2.832471
-3.110673
-3.410533
-3.703467
-3.952480
-4.125599
-4.202836
-4.195767
-4.118531
-3.994170
-3.850117
-3.701682
-3.555027
-3.410984
-3.269434
-3.130902
-2.996505
-2.867507
-2.745100
-2.630412
-2.524507
-2.428366
-2.342702
-2.267745
-2.203610
-2.151050
-2.111201
-2.084361
-2.069622
-2.065530
-2.071077
-2.085239
-2.106695
-2.133844
-2.165486
-2.200305
-2.236965
-2.274188
-2.310780
-2.345651
-2.377832
-2.406484
-2.430901
-2.450538
-2.465422
-2.474673
-2.478060
-2.475492
-2.467020
-2.452826
-2.433213
-2.408599
-2.379509
-2.346570
-2.310500
-2.272103
-2.232249
-2.191855
-2.151861
-2.113203
-2.076779
-2.043431
-2.013911
-1.988866
-1.968816
-1.954148
-1.945099
-1.941751
-1.944014
-1.951611
-1.964043
-1.980521
-1.999912
-2.021329
-2.043869
-2.066485
-2.088057
-2.107010
-2.121943
-2.131671
-2.135331
-2.132433
-2.122888
-2.106980
-2.085317
-2.058755
-2.028315
-1.995095
-1.960205
-1.924705
-1.889570
-1.855662
-1.823720
-1.794355
-1.768053
-1.745181
-1.725992
-1.710633
-1.699150
-1.691493
-1.687520
-1.687003
-1.689628
-1.695002
-1.702653
-1.712038
-1.722550
-1.733527
-1.744266
-1.754044
-1.762138
-1.767864
-1.770600
-1.769828
-1.765167
-1.756395
-1.743465
-1.726506
-1.705810
-1.681803
-1.655008
-1.626004
-1.595380
-1.563696
-1.531445
-1.499025
-1.466714
-1.434648
-1.402791
-1.370898
-1.338432
-1.304402
-1.262665
10.185142
10.185067
10.184863
10.184537
10.184104
10.183579
10.182980
10.182321
10.181615
10.180874
10.180107
10.179321
10.178521
10.177710
10.176891
10.176065
10.175233
10.174392
10.173541
10.172677
10.171794
10.170888
10.169948
10.168966
10.167928
10.166819
10.165621
10.164311
10.162867
10.161261
10.159469
10.157471
10.155260
10.152852
10.150305
10.147738
10.145347
10.143371
10.142017
10.141221
10.139732
10.134419
10.123236
10.125885
10.125885
0.000000
0.000000
0.000000
0.000000
0.000000
-4.840388
-4.840387
-4.789350
-4.740357
-4.301400
-3.797748
-3.437763
-3.295643
-3.219174
-3.111904
-2.950686
-2.769045
-2.607183
-2.500347
-2.474326
-2.538049
-2.684030
-2.895336
-3.153294
-3.438644
-3.725506
-3.981008
-4.172739
-4.273466
-4.270892
-4.201591
-4.072887
-3.919710
-3.763545
-3.612582
-3.466806
-3.324112
-3.183484
-3.045278
-2.910478
-2.780270
-2.656100
-2.539751
-2.433091
-2.337518
-2.253690
-2.182181
-2.124260
-2.081169
-2.052746
-2.037639
-2.033732
-2.040659
-2.057557
-2.082751
-2.113995
-2.150334
-2.190090
-2.231694
-2.273696
-2.314775
-2.353743
-2.389563
-2.421356
-2.448408
-2.470159
-2.486438
-2.496828
-2.500847
-2.498429
-2.489658
-2.474750
-2.454037
-2.427957
-2.397055
-2.361977
-2.323475
-2.282393
-2.239658
-2.196258
-2.153214
-2.111549
-2.072255
-2.036264
-2.004412
-1.977423
-1.955882
-1.940226
-1.930733
-1.927520
-1.930527
-1.939513
-1.954034
-1.972638
-1.994687
-2.019400
-2.045556
-2.071797
-2.096813
-2.119491
-2.137652
-2.149938
-2.155364
-2.153392
-2.143951
-2.127412
-2.104511
-2.076261
-2.043838
-2.008492
-1.971457
-1.933891
-1.896838
-1.861208
-1.827763
-1.797126
-1.769787
-1.746105
-1.726329
-1.710595
-1.698940
-1.691304
-1.687537
-1.687398
-1.690566
-1.696636
-1.705124
-1.715474
-1.727063
-1.739212
-1.751196
-1.762266
-1.771676
-1.778707
-1.782710
-1.783141
-1.779596
-1.771841
-1.759824
-1.743683
-1.723726
-1.700404
-1.674269
-1.645932
-1.616013
-1.585098
-1.553704
-1.522246
-1.491016
-1.460151
-1.429617
-1.399157
-1.368223
-1.335840
-1.296079
10.183867
10.183802
10.183623
10.183337
10.182952
10.182482
10.181938
10.181332
10.180675
10.179977
10.179245
10.178486
10.177705
10.176904
10.176086
10.175252
10.174403
10.173536
10.172649
10.171740
10.170803
10.169833
10.168822
10.167762
10.166642
10.165453
10.164182
10.162823
10.161372
10.159837
10.158246
10.156668
10.155233
10.154183
10.153934
10.155180
10.159031
10.167164
10.182424
10.209040
10.251837
10.316098
10.403626
10.504545
10.504545
0.000000
0.000000
0.000000
0.000000
0.000000
-4.779363
-4.779362
-4.775820
-4.708161
-4.384455
-3.927977
-3.536832
-3.310498
-3.348786
-3.330767
-3.207918
-3.032599
-2.852082
-2.709666
-2.639120
-2.657506
-2.763558
-2.942591
-3.174091
-3.436148
-3.704190
-3.949328
-4.141109
-4.253674
-4.270848
-4.206786
-4.095134
-3.949019
-3.796406
-3.649737
-3.509814
-3.373110
-3.236912
-3.100527
-2.964457
-2.829715
-2.697852
-2.571131
-2.452317
-2.344130
-2.248806
-2.168123
-2.103443
-2.055289
-2.023257
-2.007466
-2.003145
-2.010446
-2.028890
-2.056677
-2.092662
-2.134425
-2.179928
-2.227296
-2.274848
-2.321084
-2.364685
-2.404523
-2.439676
-2.469431
-2.493299
-2.511038
-2.522473
-2.526936
-2.524444
-2.515150
-2.499321
-2.477322
-2.449607
-2.416729
-2.379345
-2.338226
-2.294253
-2.248411
-2.201764
-2.155424
-2.110513
-2.068119
-2.029267
-1.994881
-1.965762
-1.942563
-1.925779
-1.915732
-1.912569
-1.916262
-1.926590
-1.942935
-1.963748
-1.988748
-2.016853
-2.046733
-2.076859
-2.105578
-2.131790
-2.153373
-2.168325
-2.175576
-2.174558
-2.165238
-2.148090
-2.124002
-2.094159
-2.059909
-2.022650
-1.983740
-1.944424
-1.905802
-1.868811
-1.834225
-1.802660
-1.774593
-1.750370
-1.730219
-1.714262
-1.702518
-1.694911
-1.691278
-1.691367
-1.694847
-1.701307
-1.710258
-1.721142
-1.733332
-1.746144
-1.758850
-1.770696
-1.780928
-1.788820
-1.793714
-1.795059
-1.792446
-1.785637
-1.774585
-1.759433
-1.740499
-1.718247
-1.693241
-1.666107
-1.637475
-1.607944
-1.578043
-1.548198
-1.518714
-1.489752
-1.461313
-1.433209
-1.405023
-1.376057
-1.341597
10.182709
10.182651
10.182491
10.182234
10.181887
10.181459
10.180958
10.180394
10.179777
10.179114
10.178411
10.177674
10.176908
10.176115
10.175297
10.174455
10.173590
10.172698
10.171779
10.170830
10.169844
10.168818
10.167744
10.166615
10.165424
10.164164
10.162830
10.161424
10.159958
10.158463
10.157008
10.155718
10.154821
10.154706
10.156029
10.159862
10.167908
10.182761
10.208098
10.249349
10.313230
10.403587
10.514315
10.617681
10.617681
0.000000
0.000000
0.000000
0.000000
0.000000
-4.862669
-4.862669
-4.920065
-4.931577
-4.764619
-4.397724
-3.941624
-3.624116
-3.494160
-3.459698
-3.347675
-3.189354
-3.009524
-2.847862
-2.744509
-2.725200
-2.795156
-2.942583
-3.146533
-3.383254
-3.628143
-3.855130
-4.037544
-4.152699
-4.187985
-4.143324
-4.049264
-3.925424
-3.789624
-3.657494
-3.531833
-3.408776
-3.284143
-3.155984
-3.024084
-2.889104
-2.752569
-2.617168
-2.486650
-2.365205
-2.256750
-2.164418
-2.090222
-2.034811
-1.997667
-1.977868
-1.972618
-1.981007
-2.001453
-2.032411
-2.072512
-2.119631
-2.171205
-2.224826
-2.278482
-2.330423
-2.379119
-2.423301
-2.461976
-2.494417
-2.520175
-2.539119
-2.551419
-2.556091
-2.553302
-2.543311
-2.526451
-2.503117
-2.473765
-2.438927
-2.399240
-2.355465
-2.308501
-2.259384
-2.209263
-2.159361
-2.110923
-2.065162
-2.023214
-1.986097
-1.954683
-1.929681
-1.911628
-1.900881
-1.897618
-1.901841
-1.913387
-1.931167
-1.954345
-1.982193
-2.013591
-2.047103
-2.081044
-2.113573
-2.142897
-2.167824
-2.185340
-2.194331
-2.194211
-2.185005
-2.167309
-2.142176
-2.110971
-2.075213
-2.036447
-1.996135
-1.955594
-1.915960
-1.878175
-1.843002
-1.811037
-1.782727
-1.758390
-1.738227
-1.722332
-1.710699
-1.703231
-1.699742
-1.699962
-1.703545
-1.710073
-1.719059
-1.729951
-1.742137
-1.754951
-1.767686
-1.779610
-1.789987
-1.798115
-1.803354
-1.805171
-1.803173
-1.797136
-1.787023
-1.772983
-1.755334
-1.734536
-1.711149
-1.685787
-1.659072
-1.631594
-1.603876
-1.576350
-1.549334
-1.523025
-1.497487
-1.472652
-1.448319
-1.424171
-1.397106
10.181655
10.181602
10.181457
10.181222
10.180904
10.180507
10.180040
10.179510
10.178925
10.178289
10.177610
10.176891
10.176137
10.175350
10.174531
10.173682
10.172801
10.171888
10.170940
10.169954
10.168925
10.167849
10.166719
10.165529
10.164273
10.162945
10.161546
10.160080
10.158566
10.157046
10.155600
10.154375
10.153625
10.153786
10.155581
10.160193
10.169505
10.186415
10.215128
10.261141
10.329888
10.423456
10.533142
10.630058
10.630058
0.000000
0.000000
0.000000
0.000000
0.000000
-5.089469
-5.089468
-5.235771
-5.396464
-5.431640
-5.165146
-4.624489
-4.039614
-3.628981
-3.460588
-3.335856
-3.209332
-3.048625
-2.882142
-2.758366
-2.713217
-2.757577
-2.881205
-3.062515
-3.276715
-3.499466
-3.707226
-3.877567
-3.991879
-4.039738
-4.021739
-3.949239
-3.852185
-3.742882
-3.634076
-3.530167
-3.427602
-3.321091
-3.207308
-3.085059
-2.954461
-2.816912
-2.675508
-2.534982
-2.400971
-2.279030
-2.173764
-2.088247
-2.023717
-1.979673
-1.954510
-1.949634
-1.959162
-1.981759
-2.015865
-2.059661
-2.110868
-2.167109
-2.226138
-2.285661
-2.343354
-2.397215
-2.445733
-2.487803
-2.522653
-2.549839
-2.569254
-2.581811
-2.586319
-2.582977
-2.572173
-2.554325
-2.529853
-2.499184
-2.462790
-2.421232
-2.375207
-2.325581
-2.273405
-2.219895
-2.166388
-2.114282
-2.064954
-2.019693
-1.979639
-1.945752
-1.918797
-1.899336
-1.887728
-1.884141
-1.888580
-1.900929
-1.919940
-1.945025
-1.975321
-2.009607
-2.046326
-2.083629
-2.119460
-2.151686
-2.179351
-2.199061
-2.209529
-2.210155