# vtk DataFile Version 3.0
Scalar Field
ASCII
DATASET RECTILINEAR_GRID
DIMENSIONS 200 50 1
X_COORDINATES 200 double
0.050000 0.150000 0.250000 0.350000 0.450000 0.550000 0.650000 0.750000 0.850000 0.950000 1.050000 1.150000 1.250000 1.350000 1.450000 1.550000 1.650000 1.750000 1.850000 1.950000 2.050000 2.150000 2.250000 2.350000 2.450000 2.550000 2.650000 2.750000 2.850000 2.950000 3.050000 3.150000 3.250000 3.350000 3.450000 3.550000 3.650000 3.750000 3.850000 3.950000 4.050000 4.150000 4.250000 4.350000 4.450000 4.550000 4.650000 4.750000 4.850000 4.950000 5.050000 5.150000 5.250000 5.350000 5.450000 5.550000 5.650000 5.750000 5.850000 5.950000 6.050000 6.150000 6.250000 6.350000 6.450000 6.550000 6.650000 6.750000 6.850000 6.950000 7.050000 7.150000 7.250000 7.350000 7.450000 7.550000 7.650000 7.750000 7.850000 7.950000 8.050000 8.150000 8.250000 8.350000 8.450000 8.550000 8.650000 8.750000 8.850000 8.950000 9.050000 9.150000 9.250000 9.350000 9.450000 9.550000 9.650000 9.750000 9.850000 9.950000 10.050000 10.150000 10.250000 10.350000 10.450000 10.550000 10.650000 10.750000 10.850000 10.950000 11.050000 11.150000 11.250000 11.350000 11.450000 11.550000 11.650000 11.750000 11.850000 11.950000 12.050000 12.150000 12.250000 12.350000 12.450000 12.550000 12.650000 12.750000 12.850000 12.950000 13.050000 13.150000 13.250000 13.350000 13.450000 13.550000 13.650000 13.750000 13.850000 13.950000 14.050000 14.150000 14.250000 14.350000 14.450000 14.550000 14.650000 14.750000 14.850000 14.950000 15.050000 15.150000 15.250000 15.350000 15.450000 15.550000 15.650000 15.750000 15.850000 15.950000 16.050000 16.150000 16.250000 16.350000 16.450000 16.550000 16.650000 16.750000 16.850000 16.950000 17.050000 17.150000 17.250000 17.350000 17.450000 17.550000 17.650000 17.750000 17.850000 17.950000 18.050000 18.150000 18.250000 18.350000 18.450000 18.550000 18.650000 18.750000 18.850000 18.950000 19.050000 19.150000 19.250000 19.350000 19.450000 19.550000 19.650000 19.750000 19.850000 19.950000 
Y_COORDINATES 50 double
0.050000 0.150000 0.250000 0.350000 0.450000 0.550000 0.650000 0.750000 0.850000 0.950000 1.050000 1.150000 1.250000 1.350000 1.450000 1.550000 1.650000 1.750000 1.850000 1.950000 2.050000 2.150000 2.250000 2.350000 2.450000 2.550000 2.650000 2.750000 2.850000 2.950000 3.050000 3.150000 3.250000 3.350000 3.450000 3.550000 3.650000 3.750000 3.850000 3.950000 4.050000 4.150000 4.250000 4.350000 4.450000 4.550000 4.650000 4.750000 4.850000 4.950000 
Z_COORDINATES 1 double
0.0
POINT_DATA 10000
SCALARS Skalarfeld double 1
LOOKUP_TABLE default
10.391614
10.379186
10.372104
10.367398
10.363925
10.361182
10.358916
10.356986
10.355306
10.353822
10.352498
10.351308
10.350236
10.349272
10.348407
10.347639
10.346967
10.346393
10.345918
10.345551
10.345296
10.345166
10.345173
10.345332
10.345665
10.346196
10.346959
10.347992
10.349346
10.351085
10.353289
10.356055
10.359507
10.363791
10.369071
10.375517
10.383259
10.392303
10.402384
10.412733
10.421821
10.425759
10.426307
10.443385
10.443385
0.000000
0.000000
0.000000
0.000000
0.000000
-2.377851
-2.377850
-2.380162
-2.381555
-2.378235
-2.370618
-2.359421
-2.345253
-2.328495
-2.309219
-2.287748
-2.264836
-2.241665
-2.219319
-2.199216
-2.183031
-2.172253
-2.167962
-2.170954
-2.181837
-2.200498
-2.226236
-2.257896
-2.293942
-2.332605
-2.372073
-2.410614
-2.446384
-2.477178
-2.501518
-2.519869
-2.533795
-2.544859
-2.554695
-2.565015
-2.577442
-2.593321
-2.613598
-2.638750
-2.668769
-2.703207
-2.741258
-2.781866
-2.823847
-2.865988
-2.907144
-2.946289
-2.982555
-3.015240
-3.043796
-3.067816
-3.087004
-3.101160
-3.110156
-3.113920
-3.112425
-3.105669
-3.093668
-3.076465
-3.054058
-3.026562
-2.994200
-2.957031
-2.915075
-2.868368
-2.816963
-2.760951
-2.700479
-2.635765
-2.567110
-2.494903
-2.419621
-2.341820
-2.262124
-2.181214
-2.099821
-2.018706
-1.938646
-1.860419
-1.784801
-1.712544
-1.644321
-1.580730
-1.522350
-1.469648
-1.422870
-1.382201
-1.347867
-1.319805
-1.297660
-1.281412
-1.270873
-1.265048
-1.264006
-1.267575
-1.273556
-1.283325
-1.296355
-1.311794
-1.328979
-1.347399
-1.366644
-1.386386
-1.406376
-1.426435
-1.446460
-1.466417
-1.486335
-1.506298
-1.526435
-1.546910
-1.567901
-1.589593
-1.612160
-1.635756
-1.660503
-1.686483
-1.713736
-1.742260
-1.772010
-1.802902
-1.834822
-1.867628
-1.901160
-1.935246
-1.969703
-2.004359
-2.038844
-2.072989
-2.106602
-2.139523
-2.171615
-2.202755
-2.232835
-2.261759
-2.289449
-2.315841
-2.340888
-2.364560
-2.386846
-2.407754
-2.427307
-2.445550
-2.462542
-2.478356
-2.493077
-2.506796
-2.519616
-2.531655
-2.543104
10.377545
10.373869
10.369692
10.366093
10.363108
10.360610
10.358482
10.356636
10.355011
10.353565
10.352267
10.351097
10.350039
10.349083
10.348224
10.347459
10.346786
10.346208
10.345727
10.345348
10.345079
10.344928
10.344909
10.345034
10.345323
10.345799
10.346490
10.347430
10.348664
10.350246
10.352242
10.354736
10.357829
10.361643
10.366315
10.371990
10.378790
10.386757
10.395743
10.405218
10.413887
10.420036
10.430391
10.454574
10.454574
0.000000
0.000000
0.000000
0.000000
0.000000
-2.382882
-2.382882
-2.385442
-2.386555
-2.382377
-2.374277
-2.362639
-2.348076
-2.331315
-2.312214
-2.290007
-2.265675
-2.241169
-2.217362
-2.195541
-2.177613
-2.165331
-2.159811
-2.162434
-2.173521
-2.192924
-2.219964
-2.253367
-2.291395
-2.332026
-2.373226
-2.413184
-2.450155
-2.481917
-2.506561
-2.524519
-2.537759
-2.548135
-2.557377
-2.567277
-2.579522
-2.595487
-2.616103
-2.641798
-2.672497
-2.707675
-2.746452
-2.787711
-2.830221
-2.872747
-2.914137
-2.953378
-2.989624
-3.022202
-3.050592
-3.074413
-3.093389
-3.107332
-3.116124
-3.119704
-3.118050
-3.111166
-3.099052
-3.081823
-3.059356
-3.031969
-2.999710
-2.962664
-2.920880
-2.874385
-2.823220
-2.767461
-2.707238
-2.642755
-2.574302
-2.502262
-2.427107
-2.349390
-2.269730
-2.188801
-2.107330
-2.026080
-1.945825
-1.867333
-1.791386
-1.718771
-1.650171
-1.586142
-1.527312
-1.474235
-1.427106
-1.386057
-1.351454
-1.323238
-1.300875
-1.284617
-1.274515
-1.268086
-1.266994
-1.270392
-1.277204
-1.287291
-1.300407
-1.315926
-1.333222
-1.351767
-1.371130
-1.390965
-1.411010
-1.431080
-1.451065
-1.470928
-1.490698
-1.510463
-1.530356
-1.550546
-1.571224
-1.592584
-1.614813
-1.638077
-1.662508
-1.688200
-1.715201
-1.743512
-1.773091
-1.803856
-1.835688
-1.868439
-1.901941
-1.936004
-1.970417
-2.004916
-2.039424
-2.073730
-2.107460
-2.140475
-2.172647
-2.203854
-2.233990
-2.262958
-2.290679
-2.317087
-2.342136
-2.365796
-2.388055
-2.408922
-2.428424
-2.446605
-2.463527
-2.479267
-2.493911
-2.507552
-2.520271
-2.532075
-2.543028
10.370250
10.368885
10.366514
10.363995
10.361634
10.359507
10.357609
10.355912
10.354388
10.353011
10.351761
10.350624
10.349588
10.348646
10.347792
10.347024
10.346341
10.345743
10.345235
10.344819
10.344501
10.344288
10.344189
10.344215
10.344378
10.344693
10.345179
10.345854
10.346742
10.347869
10.349261
10.350949
10.352961
10.355323
10.358052
10.361153
10.364612
10.368400
10.372526
10.377223
10.383605
10.395949
10.425709
10.480748
10.480748
0.000000
0.000000
0.000000
0.000000
0.000000
-2.386990
-2.386989
-2.391783
-2.393863
-2.389072
-2.380940
-2.369956
-2.356792
-2.341010
-2.321109
-2.295627
-2.267472
-2.240345
-2.214046
-2.188314
-2.165828
-2.149771
-2.141997
-2.143600
-2.155098
-2.176457
-2.206811
-2.244510
-2.287302
-2.332566
-2.377631
-2.420101
-2.458014
-2.489722
-2.514145
-2.531643
-2.543964
-2.553289
-2.561762
-2.571406
-2.583986
-2.600849
-2.622825
-2.650184
-2.682669
-2.719580
-2.759885
-2.802360
-2.845717
-2.888708
-2.930212
-2.969272
-3.005116
-3.037148
-3.064918
-3.088099
-3.106455
-3.119822
-3.128094
-3.131222
-3.129201
-3.122050
-3.109506
-3.091507
-3.068765
-3.041297
-3.009142
-2.972331
-2.930875
-2.884774
-2.834040
-2.778723
-2.718925
-2.654826
-2.586699
-2.514918
-2.439947
-2.362342
-2.282710
-2.201709
-2.120065
-2.038543
-1.957925
-1.878950
-1.802396
-1.729131
-1.659881
-1.595095
-1.535498
-1.481801
-1.434054
-1.392403
-1.357570
-1.329157
-1.305966
-1.289427
-1.278839
-1.273167
-1.272355
-1.275965
-1.283317
-1.293957
-1.307475
-1.323323
-1.340924
-1.359754
-1.379365
-1.399397
-1.419568
-1.439683
-1.459623
-1.479347
-1.498885
-1.518329
-1.537822
-1.557546
-1.577707
-1.598518
-1.620188
-1.642901
-1.666809
-1.692020
-1.718595
-1.746544
-1.775829
-1.806365
-1.838030
-1.870669
-1.904101
-1.938128
-1.972534
-2.007099
-2.041634
-2.076004
-2.109856
-2.142952
-2.175180
-2.206423
-2.236574
-2.265538
-2.293234
-2.319596
-2.344577
-2.368148
-2.390300
-2.411044
-2.430410
-2.448447
-2.465224
-2.480823
-2.495337
-2.508869
-2.521516
-2.533348
-2.545214
10.365558
10.364911
10.363489
10.361739
10.359925
10.358172
10.356529
10.355009
10.353608
10.352318
10.351130
10.350034
10.349025
10.348097
10.347247
10.346472
10.345771
10.345145
10.344596
10.344126
10.343739
10.343438
10.343228
10.343114
10.343102
10.343194
10.343394
10.343701
10.344110
10.344603
10.345151
10.345700
10.346164
10.346406
10.346220
10.345304
10.343246
10.339540
10.333731
10.325950
10.318535
10.320029
10.350574
10.431872
10.431872
0.000000
0.000000
0.000000
0.000000
0.000000
-2.385084
-2.385084
-2.392613
-2.397115
-2.396366
-2.391442
-2.384724
-2.376764
-2.365962
-2.345980
-2.309031
-2.268764
-2.238978
-2.211047
-2.178966
-2.146884
-2.123919
-2.111801
-2.111399
-2.123720
-2.148791
-2.185262
-2.230626
-2.281577
-2.334435
-2.385620
-2.432094
-2.471652
-2.503018
-2.525950
-2.541438
-2.551544
-2.558833
-2.565875
-2.574964
-2.587938
-2.606055
-2.629938
-2.659592
-2.694482
-2.733652
-2.775876
-2.819804
-2.864096
-2.907520
-2.949016
-2.987726
-3.022984
-3.054299
-3.081311
-3.103759
-3.121445
-3.134220
-3.141979
-3.144673
-3.142324
-3.134418
-3.120978
-3.102779
-3.079941
-3.052535
-3.020604
-2.984163
-2.943190
-2.897652
-2.847530
-2.792842
-2.733657
-2.670120
-2.602484
-2.531114
-2.456464
-2.379096
-2.299610
-2.218618
-2.136843
-2.055056
-1.974066
-1.894561
-1.817276
-1.743205
-1.673179
-1.607409
-1.546864
-1.492578
-1.443871
-1.400970
-1.365164
-1.336035
-1.313032
-1.296388
-1.285721
-1.280417
-1.280057
-1.284156
-1.292132
-1.303446
-1.317578
-1.333974
-1.352070
-1.371343
-1.391335
-1.411667
-1.432043
-1.452252
-1.472167
-1.491742
-1.511006
-1.530057
-1.549048
-1.568179
-1.587676
-1.607779
-1.628719
-1.650708
-1.673923
-1.698492
-1.724493
-1.751946
-1.780817
-1.811023
-1.842435
-1.874889
-1.908196
-1.942146
-1.976522
-2.011104
-2.045689
-2.080075
-2.113953
-2.147065
-2.179294
-2.210520
-2.240635
-2.269539
-2.297151
-2.323405
-2.348254
-2.371670
-2.393646
-2.414195
-2.433354
-2.451177
-2.467738
-2.483129
-2.497454
-2.510831
-2.523403
-2.535380
-2.548385
10.362085
10.361713
10.360795
10.359550
10.358158
10.356730
10.355331
10.353989
10.352720
10.351526
10.350407
10.349360
10.348383
10.347472
10.346626
10.345844
10.345124
10.344467
10.343873
10.343344
10.342879
10.342480
10.342148
10.341881
10.341677
10.341528
10.341422
10.341337
10.341237
10.341065
10.340729
10.340089
10.338928
10.336918
10.333566
10.328135
10.319533
10.306174
10.285827
10.255618
10.212782
10.158069
10.106639
10.109643
10.109643
0.000000
0.000000
0.000000
0.000000
0.000000
-2.373785
-2.373785
-2.386573
-2.398109
-2.404214
-2.406986
-2.409135
-2.413195
-2.418560
-2.407121
-2.334840
-2.261138
-2.235805
-2.214581
-2.171576
-2.118676
-2.084571
-2.066410
-2.062862
-2.076529
-2.107747
-2.154177
-2.211734
-2.275351
-2.339665
-2.399764
-2.451824
-2.493480
-2.523928
-2.543852
-2.555243
-2.561019
-2.564456
-2.568669
-2.576251
-2.589076
-2.608231
-2.634041
-2.666153
-2.703670
-2.745330
-2.789674
-2.835218
-2.880572
-2.924534
-2.966123
-3.004590
-3.039390
-3.070142
-3.096582
-3.118509
-3.135757
-3.148177
-3.155640
-3.158067
-3.155211
-3.146306
-3.132659
-3.114372
-3.091560
-3.064319
-3.032706
-2.996734
-2.956356
-2.911503
-2.862127
-2.808220
-2.749815
-2.687006
-2.620033
-2.549259
-2.475102
-2.398164
-2.319037
-2.238233
-2.156492
-2.074562
-1.993323
-1.913360
-1.835311
-1.760417
-1.689836
-1.622605
-1.560597
-1.504730
-1.454952
-1.411496
-1.374939
-1.345226
-1.322103
-1.305446
-1.294907
-1.289985
-1.290172
-1.294922
-1.303644
-1.315748
-1.330651
-1.347766
-1.366522
-1.386387
-1.406889
-1.427634
-1.448311
-1.468693
-1.488642
-1.508106
-1.527114
-1.545767
-1.564231
-1.582723
-1.601491
-1.620802
-1.640918
-1.662080
-1.684493
-1.708311
-1.733629
-1.760480
-1.788837
-1.818616
-1.849682
-1.881864
-1.914960
-1.948752
-1.983013
-2.017521
-2.052064
-2.086423
-2.120162
-2.153160
-2.185276
-2.216379
-2.246352
-2.275096
-2.302525
-2.328572
-2.353192
-2.376357
-2.398063
-2.418327
-2.437191
-2.454715
-2.470983
-2.486091
-2.500152
-2.513291
-2.525661
-2.537488
-2.550493
10.359306
10.359062
10.358426
10.357511
10.356428
10.355263
10.354075
10.352900
10.351759
10.350662
10.349615
10.348619
10.347677
10.346786
10.345946
10.345157
10.344418
10.343729
10.343090
10.342499
10.341956
10.341458
10.341003
10.340584
10.340192
10.339810
10.339414
10.338964
10.338402
10.337634
10.336523
10.334855
10.332306
10.328380
10.322316
10.312931
10.298355
10.275567
10.239491
10.181132
10.083320
9.910210
9.581218
9.197197
3.894827
-3.108274
-2.966842
-2.967879
-2.969057
-2.911666
-2.558930
-2.364224
-2.379041
-2.399008
-2.415671
-2.428733
-2.442324
-2.464313
-2.509354
-2.557499
-2.392152
-2.209654
-2.228694
-2.244758
-2.179167
-2.075131
-2.028272
-2.004246
-1.995137
-2.010502
-2.051248
-2.112829
-2.188509
-2.270574
-2.351180
-2.423549
-2.482901
-2.526830
-2.555262
-2.570110
-2.574762
-2.573465
-2.570590
-2.569994
-2.574610
-2.586300
-2.605890
-2.633315
-2.667777
-2.707949
-2.752203
-2.798817
-2.846151
-2.892760
-2.937467
-2.979370
-3.017830
-3.052421
-3.082877
-3.109028
-3.130737
-3.147865
-3.160243
-3.167702
-3.170111
-3.166122
-3.157169
-3.143494
-3.125240
-3.102538
-3.075514
-3.044256
-3.008787
-2.969047
-2.924921
-2.876349
-2.823310
-2.765804
-2.703851
-2.637692
-2.567719
-2.494267
-2.418011
-2.339551
-2.259163
-2.177712
-2.095879
-2.014768
-1.934554
-1.855473
-1.779636
-1.707460
-1.639247
-1.576133
-1.518943
-1.468065
-1.423840
-1.386612
-1.356432
-1.333155
-1.316559
-1.306280
-1.301829
-1.302657
-1.308170
-1.317742
-1.330737
-1.346525
-1.364487
-1.384032
-1.404611
-1.425741
-1.447011
-1.468094
-1.488751
-1.508833
-1.528279
-1.547115
-1.565446
-1.583447
-1.601349
-1.619424
-1.637964
-1.657262
-1.677589
-1.699179
-1.722212
-1.746801
-1.772994
-1.800767
-1.830035
-1.860659
-1.892457
-1.925218
-1.958713
-1.992710
-2.026983
-2.061329
-2.095465
-2.128872
-2.161579
-2.193412
-2.224228
-2.253903
-2.282334
-2.309435
-2.335138
-2.359398
-2.382189
-2.403509
-2.423379
-2.441846
-2.458978
-2.474865
-2.489612
-2.503334
-2.516144
-2.528148
-2.539439
-2.551189
10.356978
10.356805
10.356338
10.355639
10.354779
10.353820
10.352808
10.351779
10.350755
10.349750
10.348773
10.347829
10.346921
10.346050
10.345218
10.344423
10.343666
10.342945
10.342261
10.341610
10.340990
10.340398
10.339826
10.339265
10.338700
10.338109
10.337459
10.336702
10.335762
10.334532
10.332844
10.330448
10.326962
10.321798
10.314034
10.302202
10.283893
10.254990
10.208043
10.128398
9.983617
9.688926
8.975835
6.514322
-1.407544
-3.108274
-2.966842
-2.967879
-2.969057
-2.911666
-2.753636
-2.549545
-2.503231
-2.495088
-2.488727
-2.482921
-2.484556
-2.504223
-2.559159
-2.615715
-2.364186
-2.102973
-2.239720
-2.368872
-2.239422
-1.986819
-1.956387
-1.929535
-1.905174
-1.921996
-1.977276
-2.060913
-2.162225
-2.269992
-2.372809
-2.461319
-2.529657
-2.575614
-2.600276
-2.607263
-2.601830
-2.590086
-2.577918
-2.570137
-2.570049
-2.579398
-2.598636
-2.627216
-2.663813
-2.706591
-2.753497
-2.802500
-2.851776
-2.899813
-2.945448
-2.987856
-3.026505
-3.061091
-3.091466
-3.117562
-3.139321
-3.156632
-3.169302
-3.177086
-3.179100
-3.175051
-3.166227
-3.152703
-3.134602
-3.112063
-3.085254
-3.054310
-3.019285
-2.980118
-2.936656
-2.888842
-2.836666
-2.780107
-2.719053
-2.653815
-2.584837
-2.512313
-2.437104
-2.359884
-2.280039
-2.199140
-2.117944
-2.036728
-1.956099
-1.876760
-1.799998
-1.726607
-1.657313
-1.593069
-1.534699
-1.482789
-1.437774
-1.399956
-1.369422
-1.346065
-1.329632
-1.319733
-1.315858
-1.317423
-1.323789
-1.334289
-1.348247
-1.364991
-1.383875
-1.404285
-1.425657
-1.447493
-1.469371
-1.490953
-1.511986
-1.532313
-1.551865
-1.570664
-1.588814
-1.606496
-1.623953
-1.641474
-1.659375
-1.677975
-1.697574
-1.718432
-1.740753
-1.764668
-1.790233
-1.817427
-1.846160
-1.876283
-1.907602
-1.939893
-1.972916
-2.006433
-2.040224
-2.074122
-2.107587
-2.140495
-2.172684
-2.203995
-2.234288
-2.263441
-2.291350
-2.317929
-2.343110
-2.366847
-2.389114
-2.409913
-2.429267
-2.447228
-2.463872
-2.479296
-2.493616
-2.506948
-2.519391
-2.530987
-2.541644
-2.551680
10.354972
10.354840
10.354481
10.353930
10.353231
10.352429
10.351560
10.350655
10.349733
10.348812
10.347900
10.347004
10.346130
10.345279
10.344454
10.343654
10.342879
10.342128
10.341400
10.340693
10.340001
10.339320
10.338641
10.337952
10.337236
10.336468
10.335613
10.334619
10.333411
10.331878
10.329856
10.327101
10.323238
10.317696
10.309570
10.297407
10.278787
10.249509
10.201883
10.120812
9.973826
9.679559
9.012492
7.229467
0.719098
-2.161096
-2.799681
-2.968426
-3.041484
-3.083153
-3.096885
-3.098276
-3.062981
-2.985754
-2.884234
-2.783188
-2.704500
-2.657878
-2.634566
-2.559889
-2.321414
-2.183510
-2.274590
-2.391046
-2.163734
-1.852712
-1.912262
-1.860092
-1.785733
-1.807011
-1.885369
-1.999504
-2.135110
-2.277384
-2.409482
-2.518372
-2.597166
-2.644263
-2.662583
-2.658123
-2.638409
-2.612110
-2.587163
-2.569566
-2.562959
-2.568742
-2.586805
-2.616057
-2.654561
-2.699885
-2.749470
-2.800925
-2.852217
-2.901751
-2.948374
-2.991340
-3.030234
-3.064879
-3.095253
-3.121408
-3.143383
-3.161123
-3.174406
-3.182865
-3.184665
-3.181207
-3.172838
-3.159705
-3.141894
-3.119562
-3.092923
-3.062169
-3.027406
-2.988588
-2.945577
-2.898363
-2.846938
-2.791367
-2.731119
-2.666872
-2.599107
-2.528236
-2.454358
-2.378107
-2.299675
-2.219871
-2.139314
-2.058455
-1.977894
-1.898413
-1.821043
-1.746742
-1.676452
-1.611155
-1.551737
-1.498904
-1.453173
-1.414872
-1.384108
-1.360785
-1.344632
-1.335228
-1.332031
-1.334416
-1.341702
-1.353179
-1.368130
-1.385854
-1.405675
-1.426962
-1.449140
-1.471702
-1.494217
-1.516342
-1.537820
-1.558485
-1.578264
-1.597173
-1.615317
-1.632877
-1.650101
-1.667292
-1.684781
-1.702907
-1.721993
-1.742323
-1.764115
-1.787516
-1.812586
-1.839301
-1.867564
-1.897208
-1.928022
-1.959761
-1.992168
-2.024988
-2.057975
-2.090909
-2.123541
-2.155609
-2.186944
-2.217398
-2.246841
-2.275159
-2.302253
-2.328042
-2.352458
-2.375458
-2.397015
-2.417130
-2.435829
-2.453168
-2.469228
-2.484118
-2.497966
-2.510905
-2.523043
-2.534410
-2.544841
-2.554294
10.353208
10.353104
10.352816
10.352368
10.351787
10.351105
10.350350
10.349547
10.348713
10.347864
10.347011
10.346160
10.345317
10.344485
10.343666
10.342861
10.342069
10.341290
10.340522
10.339762
10.339004
10.338242
10.337468
10.336668
10.335825
10.334916
10.333906
10.332750
10.331381
10.329706
10.327590
10.324837
10.321152
10.316090
10.308955
10.298633
10.283276
10.259690
10.222063
10.156939
10.032751
9.766655
9.087459
6.645231
-1.315727
-3.097266
-2.998677
-3.059665
-3.170767
-3.348882
-3.589487
-3.903878
-3.919676
-3.765537
-3.533232
-3.288033
-3.083442
-2.931802
-2.812231
-2.669597
-2.478879
-2.339425
-2.290451
-2.221109
-1.995794
-1.857782
-1.878663
-1.756119
-1.636740
-1.670287
-1.783230
-1.933909
-2.110992
-2.297827
-2.467181
-2.600636
-2.690971
-2.737494
-2.745894
-2.725674
-2.686521
-2.640807
-2.599070
-2.568844
-2.554039
-2.555171
-2.571256
-2.600729
-2.640952
-2.688767
-2.741020
-2.794899
-2.848146
-2.899076
-2.946558
-2.989938
-3.028933
-3.063515
-3.093797
-3.119957
-3.142149
-3.160403
-3.174529
-3.183831
-3.186462
-3.183914
-3.176394
-3.163990
-3.146632
-3.124559
-3.098027
-3.067271
-3.032486
-2.993792
-2.951112
-2.904293
-2.853372
-2.798342
-2.739125
-2.676070
-2.609611
-2.540125
-2.467898
-2.393330
-2.316739
-2.238595
-2.159349
-2.079447
-1.999469
-1.920191
-1.842588
-1.767712
-1.696648
-1.630478
-1.570188
-1.516586
-1.470272
-1.431613
-1.400740
-1.377558
-1.361776
-1.352942
-1.350477
-1.353712
-1.361924
-1.374362
-1.390274
-1.408929
-1.429631
-1.451735
-1.474658
-1.497892
-1.521008
-1.543662
-1.565599
-1.586655
-1.606754
-1.625913
-1.644230
-1.661887
-1.679132
-1.696271
-1.713645
-1.731602
-1.750481
-1.770575
-1.792115
-1.815251
-1.840042
-1.866460
-1.894388
-1.923645
-1.953995
-1.985170
-2.016889
-2.048867
-2.080826
-2.112467
-2.143917
-2.174778
-2.204864
-2.234048
-2.262223
-2.289296
-2.315186
-2.339822
-2.363147
-2.385117
-2.405711
-2.424928
-2.442796
-2.459370
-2.474739
-2.489023
-2.502368
-2.514942
-2.526906
-2.538376
-2.549330
-2.560425
10.351637
10.351551
10.351313
10.350938
10.350444
10.349854
10.349189
10.348469
10.347709
10.346923
10.346120
10.345309
10.344494
10.343678
10.342865
10.342055
10.341248
10.340443
10.339638
10.338829
10.338011
10.337178
10.336321
10.335427
10.334481
10.333463
10.332344
10.331090
10.329652
10.327968
10.325953
10.323489
10.320416
10.316498
10.311390
10.304554
10.295109
10.281540
10.260409
10.224730
10.159208
10.026559
9.734808
9.348045
4.016159
-3.097266
-2.998677
-3.059665
-3.170767
-3.348882
-4.112354
-4.635222
-4.480123
-4.350099
-4.069482
-3.725747
-3.435264
-3.222451
-3.072581
-2.923911
-2.739466
-2.548041
-2.372324
-2.187399
-1.981292
-1.837665
-1.748391
-1.633403
-1.570758
-1.599691
-1.708003
-1.880829
-2.094932
-2.336907
-2.550253
-2.710808
-2.813881
-2.857916
-2.852313
-2.812817
-2.748630
-2.677987
-2.614514
-2.568555
-2.544352
-2.540072
-2.553271
-2.582547
-2.624359
-2.674621
-2.729497
-2.785707
-2.840697
-2.892713
-2.940683
-2.984088
-3.022811
-3.056996
-3.086913
-3.112864
-3.135114
-3.153790
-3.168855
-3.179131
-3.183288
-3.182343
-3.176266
-3.164974
-3.148426
-3.126786
-3.100348
-3.069432
-3.034333
-2.995252
-2.952260
-2.905350
-2.854553
-2.799914
-2.741528
-2.679679
-2.614740
-2.547069
-2.476971
-2.404729
-2.330576
-2.254760
-2.177552
-2.099298
-2.020518
-1.941960
-1.864602
-1.789576
-1.718093
-1.651359
-1.590472
-1.536348
-1.489659
-1.450818
-1.419973
-1.397024
-1.381662
-1.373401
-1.371627
-1.375633
-1.384659
-1.397921
-1.414640
-1.434063
-1.455480
-1.478238
-1.501755
-1.525528
-1.549134
-1.572240
-1.594600
-1.616057
-1.636541
-1.656067
-1.674734
-1.692717
-1.710260
-1.727666
-1.745272
-1.763428
-1.782471
-1.802696
-1.824332
-1.847524
-1.872321
-1.898677
-1.926459
-1.955461
-1.985425
-2.016059
-2.047058
-2.078121
-2.108957
-2.139286
-2.169000
-2.198335
-2.226774
-2.254252
-2.280702
-2.306067
-2.330293
-2.353334
-2.375150
-2.395714
-2.415009
-2.433041
-2.449836
-2.465453
-2.479983
-2.493556
-2.506345
-2.518562
-2.530456
-2.542308
-2.554412
-2.568918
10.350223
10.350150
10.349948
10.349626
10.349197
10.348677
10.348084
10.347431
10.346732
10.345999
10.345240
10.344462
10.343671
10.342870
10.342062
10.341247
10.340426
10.339597
10.338758
10.337906
10.337035
10.336139
10.335211
10.334239
10.333210
10.332109
10.330917
10.329611
10.328166
10.326557
10.324756
10.322743
10.320507
10.318062
10.315463
10.312823
10.310330
10.308213
10.306675
10.305638
10.303857
10.298259
10.286936
10.289722
10.289722
0.000000
0.000000
0.000000
0.000000
0.000000
-4.433896
-4.433896
-4.466363
-4.579628
-4.311316
-3.932162
-3.622272
-3.400805
-3.296364
-3.201655
-3.028610
-2.791432
-2.528631
-2.265164
-2.023802
-1.836121
-1.698601
-1.597214
-1.557542
-1.594778
-1.707083
-1.887186
-2.123248
-2.392517
-2.644821
-2.836177
-2.956741
-2.997837
-2.974421
-2.909123
-2.818849
-2.723677
-2.638381
-2.572661
-2.533346
-2.523262
-2.534319
-2.564102
-2.607930
-2.660741
-2.717969
-2.775926
-2.831911
-2.884184
-2.931806
-2.974440
-3.012175
-3.045353
-3.074423
-3.099829
-3.121941
-3.140982
-3.156919
-3.167970
-3.174281
-3.175589
-3.171553
-3.161885
-3.146464
-3.125410
-3.099041
-3.067772
-3.032022
-2.992142
-2.948377
-2.900891
-2.849827
-2.795342
-2.737642
-2.677024
-2.613833
-2.548391
-2.480947
-2.411662
-2.340613
-2.267841
-2.193421
-2.117549
-2.040649
-1.963431
-1.886889
-1.812240
-1.740818
-1.673961
-1.612889
-1.558618
-1.511889
-1.473149
-1.442550
-1.419979
-1.405096
-1.397381
-1.396186
-1.400776
-1.410366
-1.424158
-1.441363
-1.461221
-1.483026
-1.506130
-1.529962
-1.554029
-1.577926
-1.601336
-1.624028
-1.645858
-1.666763
-1.686762
-1.705950
-1.724497
-1.742635
-1.760654
-1.778878
-1.797645
-1.817277
-1.838057
-1.860196
-1.883819
-1.908954
-1.935531
-1.963388
-1.992296
-2.021970
-2.052099
-2.082362
-2.112447
-2.142065
-2.170951
-2.198875
-2.226274
-2.252686
-2.278056
-2.302353
-2.325554
-2.347647
-2.368620
-2.388467
-2.407184
-2.424775
-2.441257
-2.456664
-2.471058
-2.484534
-2.497231
-2.509341
-2.521121
-2.532913
-2.545175
-2.558547
-2.576869
10.348942
10.348880
10.348703
10.348421
10.348041
10.347576
10.347038
10.346439
10.345790
10.345100
10.344378
10.343629
10.342859
10.342070
10.341266
10.340446
10.339612
10.338761
10.337892
10.337001
10.336083
10.335133
10.334144
10.333106
10.332010
10.330844
10.329600
10.328267
10.326842
10.325333
10.323769
10.322215
10.320801
10.319765
10.319518
10.320748
10.324553
10.332593
10.347640
10.373962
10.416287
10.479869
10.566534
10.666567
10.666567
0.000000
0.000000
0.000000
0.000000
0.000000
-4.312479
-4.312479
-4.374010
-4.428943
-4.282493
-3.996330
-3.691207
-3.437409
-3.431468
-3.449025
-3.294174
-3.018889
-2.691945
-2.366471
-2.078942
-1.852698
-1.692740
-1.597951
-1.574002
-1.623860
-1.745213
-1.932529
-2.176268
-2.453817
-2.722017
-2.938473
-3.075205
-3.117122
-3.079720
-2.994780
-2.880667
-2.762991
-2.658877
-2.579212
-2.529480
-2.511510
-2.519529
-2.549302
-2.594750
-2.649627
-2.708521
-2.767309
-2.823208
-2.874593
-2.920735
-2.961549
-2.997369
-3.028761
-3.056370
-3.080798
-3.102516
-3.121785
-3.138484
-3.151017
-3.159683
-3.163616
-3.162034
-3.154354
-3.140296
-3.119923
-3.093576
-3.061768
-3.025068
-2.984010
-2.939049
-2.890561
-2.838874
-2.784301
-2.727165
-2.667812
-2.606576
-2.543726
-2.479414
-2.413658
-2.346345
-2.277297
-2.206372
-2.133590
-2.059255
-1.984026
-1.908920
-1.835239
-1.764443
-1.698005
-1.637271
-1.583349
-1.537040
-1.498808
-1.468795
-1.446854
-1.432599
-1.425467
-1.424769
-1.429744
-1.439595
-1.453525
-1.470759
-1.490563
-1.512256
-1.535225
-1.558927
-1.582901
-1.606770
-1.630239
-1.653100
-1.675222
-1.696553
-1.717112
-1.736990
-1.756343
-1.775385
-1.794384
-1.813637
-1.833456
-1.854136
-1.875927
-1.899009
-1.923474
-1.949314
-1.976421
-2.004602
-2.033596
-2.063092
-2.092762
-2.122276
-2.151323
-2.179623
-2.206939
-2.233085
-2.258177
-2.282259
-2.305196
-2.326986
-2.347643
-2.367195
-2.385672
-2.403110
-2.419541
-2.434999
-2.449526
-2.463172
-2.476008
-2.488137
-2.499702
-2.510906
-2.522033
-2.533482
-2.545831
-2.559943
-2.580850
10.347778
10.347722
10.347565
10.347312
10.346970
10.346547
10.346053
10.345497
10.344888
10.344234
10.343542
10.342818
10.342065
10.341286
10.340485
10.339661
10.338814
10.337944
10.337047
10.336122
10.335164
10.334166
10.333124
10.332030
10.330876
10.329657
10.328368
10.327011
10.325598
10.324161
10.322768
10.321545
10.320716
10.320670
10.322057
10.325941
10.334009
10.348829
10.374037
10.414947
10.478285
10.567840
10.677535
10.779923
10.779923
0.000000
0.000000
0.000000
0.000000
0.000000
-4.305288
-4.305288
-4.383132
-4.439662
-4.386674
-4.206280
-3.954808
-3.701697
-3.707742
-3.684303
-3.506559
-3.177341
-2.791758
-2.415266
-2.089037
-1.836911
-1.667370
-1.580003
-1.571797
-1.637931
-1.772107
-1.966822
-2.211193
-2.484105
-2.750252
-2.970345
-3.113027
-3.163847
-3.129032
-3.032489
-2.914847
-2.787997
-2.673739
-2.585436
-2.529327
-2.506128
-2.511826
-2.541320
-2.587707
-2.643718
-2.703120
-2.761408
-2.815791
-2.864849
-2.908143
-2.945893
-2.978716
-3.007424
-3.032870
-3.055824
-3.076872
-3.096328
-3.113991
-3.128375
-3.139568
-3.146303
-3.147373
-3.141867
-3.129310
-3.109683
-3.083347
-3.050906
-3.013080
-2.970602
-2.924158
-2.874366
-2.821786
-2.766926
-2.710252
-2.652179
-2.593042
-2.533048
-2.472236
-2.410456
-2.347390
-2.282627
-2.215794
-2.146716
-2.075562
-2.002934
-1.929873
-1.857766
-1.788200
-1.722783
-1.662981
-1.609984
-1.564635
-1.527405
-1.498405
-1.477436
-1.464055
-1.457639
-1.457451
-1.462697
-1.472571
-1.486283
-1.503090
-1.522305
-1.543306
-1.565545
-1.588543
-1.611898
-1.635286
-1.658452
-1.681220
-1.703478
-1.725183
-1.746352
-1.767064
-1.787452
-1.807702
-1.828046
-1.848743
-1.870061
-1.892250
-1.915514
-1.939986
-1.965706
-1.992618
-2.020569
-2.049325
-2.078589
-2.108028
-2.137295
-2.166058
-2.194013
-2.220902
-2.246519
-2.270719
-2.293430
-2.314925
-2.335168
-2.354180
-2.372006
-2.388710
-2.404362
-2.419040
-2.432816
-2.445765
-2.457957
-2.469469
-2.480389
-2.490827
-2.500928
-2.510894
-2.521005
-2.531663
-2.543455
-2.557262
-2.578254
10.346716
10.346666
10.346524
10.346293
10.345979
10.345589
10.345129
10.344608
10.344031
10.343407
10.342740
10.342035
10.341296
10.340526
10.339726
10.338897
10.338039
10.337152
10.336232
10.335276
10.334282
10.333243
10.332155
10.331011
10.329807
10.328537
10.327201
10.325807
10.324373
10.322942
10.321595
10.320478
10.319848
10.320136
10.322064
10.326804
10.336224
10.353195
10.381878
10.427710
10.496030
10.588850
10.697525
10.793443
10.793443
0.000000
0.000000
0.000000
0.000000
0.000000
-4.388176
-4.388176
-4.484653
-4.599580
-4.657079
-4.585802
-4.370092
-4.094156
-3.917717
-3.828583
-3.633584
-3.216250
-2.775475
-2.360353
-2.007963
-1.743081
-1.574818
-1.500925
-1.513031
-1.600150
-1.750882
-1.953997
-2.196411
-2.458455
-2.711231
-2.921659
-3.062078
-3.119454
-3.098462
-3.015138
-2.904144
-2.785970
-2.675804
-2.588737
-2.532746
-2.507895
-2.513594
-2.543412
-2.589681
-2.644866
-2.702638
-2.758445
-2.809545
-2.854692
-2.893718
-2.927142
-2.955878
-2.980995
-3.003565
-3.024544
-3.044642
-3.064374
-3.082704
-3.099185
-3.112983
-3.122542
-3.126305
-3.123063
-3.112141
-3.093425
-3.067264
-3.034331
-2.995476
-2.951615
-2.903663
-2.852493
-2.798921
-2.743680
-2.687409
-2.630617
-2.573652
-2.516664
-2.459569
-2.402043
-2.343551
-2.283445
-2.221118
-2.156194
-2.088706
-2.019202
-1.948742
-1.878802
-1.811089
-1.747333
-1.689103
-1.637656
-1.593858
-1.558163
-1.530638
-1.511020
-1.498797
-1.493280
-1.493681
-1.499172
-1.508931
-1.522184
-1.538219