# vtk DataFile Version 3.0
Scalar Field
ASCII
DATASET RECTILINEAR_GRID
DIMENSIONS 200 50 1
X_COORDINATES 200 double
0.050000 0.150000 0.250000 0.350000 0.450000 0.550000 0.650000 0.750000 0.850000 0.950000 1.050000 1.150000 1.250000 1.350000 1.450000 1.550000 1.650000 1.750000 1.850000 1.950000 2.050000 2.150000 2.250000 2.350000 2.450000 2.550000 2.650000 2.750000 2.850000 2.950000 3.050000 3.150000 3.250000 3.350000 3.450000 3.550000 3.650000 3.750000 3.850000 3.950000 4.050000 4.150000 4.250000 4.350000 4.450000 4.550000 4.650000 4.750000 4.850000 4.950000 5.050000 5.150000 5.250000 5.350000 5.450000 5.550000 5.650000 5.750000 5.850000 5.950000 6.050000 6.150000 6.250000 6.350000 6.450000 6.550000 6.650000 6.750000 6.850000 6.950000 7.050000 7.150000 7.250000 7.350000 7.450000 7.550000 7.650000 7.750000 7.850000 7.950000 8.050000 8.150000 8.250000 8.350000 8.450000 8.550000 8.650000 8.750000 8.850000 8.950000 9.050000 9.150000 9.250000 9.350000 9.450000 9.550000 9.650000 9.750000 9.850000 9.950000 10.050000 10.150000 10.250000 10.350000 10.450000 10.550000 10.650000 10.750000 10.850000 10.950000 11.050000 11.150000 11.250000 11.350000 11.450000 11.550000 11.650000 11.750000 11.850000 11.950000 12.050000 12.150000 12.250000 12.350000 12.450000 12.550000 12.650000 12.750000 12.850000 12.950000 13.050000 13.150000 13.250000 13.350000 13.450000 13.550000 13.650000 13.750000 13.850000 13.950000 14.050000 14.150000 14.250000 14.350000 14.450000 14.550000 14.650000 14.750000 14.850000 14.950000 15.050000 15.150000 15.250000 15.350000 15.450000 15.550000 15.650000 15.750000 15.850000 15.950000 16.050000 16.150000 16.250000 16.350000 16.450000 16.550000 16.650000 16.750000 16.850000 16.950000 17.050000 17.150000 17.250000 17.350000 17.450000 17.550000 17.650000 17.750000 17.850000 17.950000 18.050000 18.150000 18.250000 18.350000 18.450000 18.550000 18.650000 18.750000 18.850000 18.950000 19.050000 19.150000 19.250000 19.350000 19.450000 19.550000 19.650000 19.750000 19.850000 19.950000 
Y_COORDINATES 50 double
0.050000 0.150000 0.250000 0.350000 0.450000 0.550000 0.650000 0.750000 0.850000 0.950000 1.050000 1.150000 1.250000 1.350000 1.450000 1.550000 1.650000 1.750000 1.850000 1.950000 2.050000 2.150000 2.250000 2.350000 2.450000 2.550000 2.650000 2.750000 2.850000 2.950000 3.050000 3.150000 3.250000 3.350000 3.450000 3.550000 3.650000 3.750000 3.850000 3.950000 4.050000 4.150000 4.250000 4.350000 4.450000 4.550000 4.650000 4.750000 4.850000 4.950000 
Z_COORDINATES 1 double
0.0
POINT_DATA 10000
SCALARS Skalarfeld double 1
LOOKUP_TABLE default
9.933818
9.921405
9.914366
9.909731
9.906356
9.903739
9.901627
9.899881
9.898416
9.897180
9.896137
9.895267
9.894554
9.893990
9.893571
9.893295
9.893163
9.893181
9.893354
9.893693
9.894209
9.894918
9.895838
9.896992
9.898409
9.900122
9.902172
9.904608
9.907489
9.910889
9.914895
9.919616
9.925180
9.931738
9.939455
9.948492
9.958959
9.970828
9.983771
9.996923
10.008619
10.014806
10.016712
10.034791
10.034790
0.000000
0.000000
0.000000
0.000000
0.000000
-2.674812
-2.674811
-2.682265
-2.692454
-2.699993
-2.705407
-2.710114
-2.715616
-2.724187
-2.740859
-2.765060
-2.787663
-2.809118
-2.836904
-2.884600
-2.948615
-3.028013
-3.118916
-3.214216
-3.304684
-3.380872
-3.435088
-3.462785
-3.462911
-3.437128
-3.392265
-3.333246
-3.265066
-3.192181
-3.118172
-3.045754
-2.976907
-2.913045
-2.855158
-2.803932
-2.759817
-2.723042
-2.693778
-2.672650
-2.659106
-2.652642
-2.652704
-2.658656
-2.669782
-2.685288
-2.704327
-2.726014
-2.749451
-2.773754
-2.798070
-2.821593
-2.843580
-2.863354
-2.880303
-2.893878
-2.903585
-2.909003
-2.909749
-2.905647
-2.896762
-2.883085
-2.864727
-2.841911
-2.814959
-2.784294
-2.750435
-2.713984
-2.675615
-2.636052
-2.596046
-2.556353
-2.517708
-2.480807
-2.446284
-2.414698
-2.386528
-2.362153
-2.341828
-2.325682
-2.313709
-2.305774
-2.301617
-2.300853
-2.302972
-2.307358
-2.313294
-2.319979
-2.326556
-2.332158
-2.335953
-2.337183
-2.335203
-2.329512
-2.319768
-2.305789
-2.287570
-2.265385
-2.239685
-2.211066
-2.180193
-2.147647
-2.114222
-2.080820
-2.048224
-2.017043
-1.987373
-1.960311
-1.936145
-1.915125
-1.897414
-1.883091
-1.872147
-1.864496
-1.859980
-1.858384
-1.859437
-1.862826
-1.868199
-1.875177
-1.883355
-1.892314
-1.901623
-1.910848
-1.919560
-1.927346
-1.933815
-1.938613
-1.941432
-1.942017
-1.940181
-1.935808
-1.928855
-1.919355
-1.907409
-1.893176
-1.876866
-1.858720
-1.838996
-1.817950
-1.795830
-1.772857
-1.749221
-1.725082
-1.700562
-1.675753
-1.650722
-1.625522
-1.600210
-1.574878
-1.548627
9.919721
9.916060
9.911925
9.908396
9.905509
9.903136
9.901161
9.899499
9.898088
9.896888
9.895871
9.895019
9.894318
9.893761
9.893345
9.893068
9.892933
9.892943
9.893106
9.893429
9.893925
9.894607
9.895495
9.896609
9.897975
9.899624
9.901594
9.903928
9.906680
9.909912
9.913703
9.918144
9.923343
9.929429
9.936541
9.944819
9.954373
9.965214
9.977140
9.989536
10.000991
10.009559
10.021523
10.046933
10.046932
0.000000
0.000000
0.000000
0.000000
0.000000
-2.680466
-2.680465
-2.687601
-2.696418
-2.701937
-2.705954
-2.709291
-2.713489
-2.720564
-2.735273
-2.758691
-2.780741
-2.802625
-2.834357
-2.884036
-2.952451
-3.037882
-3.135611
-3.237555
-3.333469
-3.413061
-3.468227
-3.494591
-3.491921
-3.463602
-3.413799
-3.349356
-3.276094
-3.198666
-3.120663
-3.044776
-2.972981
-2.906705
-2.846965
-2.794471
-2.749708
-2.713040
-2.684760
-2.664335
-2.651487
-2.645797
-2.646714
-2.653585
-2.665669
-2.682147
-2.702146
-2.724760
-2.749076
-2.774198
-2.799266
-2.823470
-2.846069
-2.866392
-2.883840
-2.897875
-2.907982
-2.913788
-2.914777
-2.910940
-2.902152
-2.888483
-2.870061
-2.847103
-2.819929
-2.788958
-2.754706
-2.717779
-2.678860
-2.638685
-2.598022
-2.557643
-2.518305
-2.480724
-2.445550
-2.413358
-2.384654
-2.359842
-2.339202
-2.322873
-2.310856
-2.303019
-2.299105
-2.298723
-2.301354
-2.306367
-2.313032
-2.320519
-2.327931
-2.334365
-2.338955
-2.340906
-2.339542
-2.334350
-2.324981
-2.311250
-2.293074
-2.270791
-2.244854
-2.215898
-2.184706
-2.151648
-2.117571
-2.083538
-2.050236
-2.018306
-1.988264
-1.960751
-1.936162
-1.914776
-1.896770
-1.882223
-1.871130
-1.863400
-1.858875
-1.857332
-1.858496
-1.862048
-1.867630
-1.874854
-1.883311
-1.892571
-1.902197
-1.911747
-1.920784
-1.928886
-1.935654
-1.940725
-1.943781
-1.944563
-1.942876
-1.938600
-1.931691
-1.922182
-1.910178
-1.895845
-1.879399
-1.861092
-1.841190
-1.819961
-1.797661
-1.774518
-1.750726
-1.726443
-1.701785
-1.676832
-1.651629
-1.626192
-1.600514
-1.574552
-1.546560
9.912371
9.911020
9.908690
9.906240
9.903975
9.901972
9.900227
9.898712
9.897401
9.896269
9.895299
9.894477
9.893795
9.893246
9.892829
9.892543
9.892390
9.892373
9.892500
9.892777
9.893214
9.893824
9.894621
9.895623
9.896850
9.898324
9.900072
9.902123
9.904510
9.907267
9.910434
9.914049
9.918152
9.922775
9.927943
9.933664
9.939918
9.946660
9.953860
9.961690
9.971152
9.986305
10.018380
10.075134
10.075133
0.000000
0.000000
0.000000
0.000000
0.000000
-2.682290
-2.682290
-2.691388
-2.699801
-2.701540
-2.704732
-2.706898
-2.710360
-2.715773
-2.724508
-2.739654
-2.759853
-2.786210
-2.825464
-2.884395
-2.965382
-3.066229
-3.180332
-3.297234
-3.404414
-3.489976
-3.545300
-3.566679
-3.555434
-3.515204
-3.453307
-3.377673
-3.294552
-3.208651
-3.123444
-3.041490
-2.964676
-2.894387
-2.831617
-2.777047
-2.731110
-2.694036
-2.665883
-2.646735
-2.635442
-2.631511
-2.634345
-2.643236
-2.657386
-2.675920
-2.697916
-2.722432
-2.748525
-2.775283
-2.801834
-2.827368
-2.851149
-2.872524
-2.890926
-2.905864
-2.916687
-2.922620
-2.923890
-2.920262
-2.911622
-2.897985
-2.879463
-2.856262
-2.828690
-2.797161
-2.762192
-2.724394
-2.684468
-2.643178
-2.601323
-2.559708
-2.519126
-2.480335
-2.444015
-2.410751
-2.381111
-2.355545
-2.334363
-2.317729
-2.305649
-2.298001
-2.294536
-2.294860
-2.298425
-2.304574
-2.312553
-2.321484
-2.330407
-2.338356
-2.344406
-2.347687
-2.347459
-2.343168
-2.334451
-2.321188
-2.303013
-2.280552
-2.254209
-2.224574
-2.192366
-2.158309
-2.123278
-2.088168
-2.053765
-2.020778
-1.989827
-1.961477
-1.936148
-1.914138
-1.895634
-1.880720
-1.869388
-1.861546
-1.857027
-1.855600
-1.856981
-1.860838
-1.866804
-1.874480
-1.883441
-1.893248
-1.903450
-1.913592
-1.923221
-1.931901
-1.939219
-1.944794
-1.948296
-1.949451
-1.948055
-1.943980
-1.937180
-1.927688
-1.915615
-1.901139
-1.884488
-1.865929
-1.845746
-1.824224
-1.801633
-1.778211
-1.754159
-1.729632
-1.704737
-1.679532
-1.654026
-1.628178
-1.601886
-1.574946
-1.544889
9.907596
9.906963
9.905582
9.903899
9.902180
9.900549
9.899057
9.897717
9.896526
9.895478
9.894565
9.893781
9.893119
9.892578
9.892156
9.891854
9.891673
9.891617
9.891690
9.891900
9.892254
9.892760
9.893430
9.894274
9.895304
9.896533
9.897972
9.899628
9.901506
9.903601
9.905893
9.908341
9.910871
9.913358
9.915608
9.917330
9.918120
9.917472
9.914918
9.910555
9.906634
9.911530
9.945141
10.028705
10.028704
0.000000
0.000000
0.000000
0.000000
0.000000
-2.673367
-2.673367
-2.683964
-2.692646
-2.697932
-2.701479
-2.705534
-2.710127
-2.711412
-2.705648
-2.707789
-2.725432
-2.756498
-2.805351
-2.879163
-2.980489
-3.105643
-3.245098
-3.384743
-3.508542
-3.602195
-3.656485
-3.669048
-3.642366
-3.583546
-3.504492
-3.413839
-3.317975
-3.221382
-3.127213
-3.037763
-2.954757
-2.879489
-2.812897
-2.755614
-2.707991
-2.670127
-2.641903
-2.622987
-2.613546
-2.611768
-2.616993
-2.628441
-2.645238
-2.666437
-2.691055
-2.718095
-2.746578
-2.775559
-2.804144
-2.831512
-2.856925
-2.879746
-2.899440
-2.915519
-2.926791
-2.933478
-2.935323
-2.932128
-2.923778
-2.910265
-2.891686
-2.868232
-2.840194
-2.807979
-2.772108
-2.733190
-2.691952
-2.649200
-2.605772
-2.562519
-2.520285
-2.479881
-2.442041
-2.407321
-2.376421
-2.349834
-2.327912
-2.310844
-2.298645
-2.291217
-2.288324
-2.289583
-2.294399
-2.302059
-2.311810
-2.322688
-2.333662
-2.343704
-2.351796
-2.356983
-2.358418
-2.355440
-2.347622
-2.334743
-2.316763
-2.294044
-2.267068
-2.236486
-2.203078
-2.167700
-2.131275
-2.094716
-2.058871
-2.024509
-1.992302
-1.962819
-1.936500
-1.913661
-1.894497
-1.879098
-1.867452
-1.859461
-1.854950
-1.853675
-1.855341
-1.859602
-1.866076
-1.874348
-1.883981
-1.894519
-1.905493
-1.916432
-1.926865
-1.936336
-1.944410
-1.950688
-1.954818
-1.956509
-1.955542
-1.951778
-1.945166
-1.935741
-1.923621
-1.908997
-1.892114
-1.873261
-1.852743
-1.830868
-1.807922
-1.784160
-1.759790
-1.734966
-1.709781
-1.684270
-1.658402
-1.632084
-1.605158
-1.577396
-1.546227
9.904014
9.903656
9.902777
9.901598
9.900299
9.898991
9.897739
9.896574
9.895511
9.894555
9.893705
9.892962
9.892325
9.891792
9.891365
9.891043
9.890829
9.890727
9.890740
9.890872
9.891129
9.891517
9.892041
9.892707
9.893518
9.894476
9.895575
9.896804
9.898137
9.899526
9.900894
9.902113
9.902982
9.903190
9.902262
9.899483
9.893784
9.883599
9.866717
9.840271
9.801458
9.750892
9.703387
9.709253
9.709252
0.000000
0.000000
0.000000
0.000000
0.000000
-2.651598
-2.651598
-2.667191
-2.681248
-2.690930
-2.699296
-2.708972
-2.720472
-2.717807
-2.675092
-2.655131
-2.675246
-2.711870
-2.769373
-2.860946
-2.988942
-3.146712
-3.320624
-3.491459
-3.637957
-3.742192
-3.794192
-3.793909
-3.744362
-3.662868
-3.563312
-3.455383
-3.345306
-3.236997
-3.133047
-3.035368
-2.945483
-2.864586
-2.793548
-2.732969
-2.683122
-2.643990
-2.615318
-2.596605
-2.588048
-2.588282
-2.595879
-2.609986
-2.629639
-2.653804
-2.681416
-2.711407
-2.742733
-2.774397
-2.805464
-2.835079
-2.862489
-2.887066
-2.908349
-2.925345
-2.937779
-2.945449
-2.948101
-2.945543
-2.937646
-2.924381
-2.905833
-2.882173
-2.853669
-2.820724
-2.783870
-2.743683
-2.700937
-2.656483
-2.611208
-2.566018
-2.521824
-2.479498
-2.439884
-2.403295
-2.370865
-2.343023
-2.320124
-2.302423
-2.290022
-2.282821
-2.280590
-2.282932
-2.289259
-2.298824
-2.310766
-2.324069
-2.337618
-2.350277
-2.360912
-2.368442
-2.371915
-2.370574
-2.363909
-2.351667
-2.333866
-2.310830
-2.283098
-2.251394
-2.216584
-2.179620
-2.141500
-2.103200
-2.065639
-2.029641
-1.995925
-1.965088
-1.937592
-1.913769
-1.893825
-1.877849
-1.865828
-1.857654
-1.853141
-1.852034
-1.854019
-1.858738
-1.865792
-1.874750
-1.885157
-1.896542
-1.908418
-1.920294
-1.931679
-1.942095
-1.951083
-1.958219
-1.963129
-1.965499
-1.965090
-1.961752
-1.955425
-1.946146
-1.934040
-1.919312
-1.902229
-1.883103
-1.862266
-1.840047
-1.816757
-1.792664
-1.767984
-1.742871
-1.717405
-1.691592
-1.665363
-1.638574
-1.611031
-1.582532
-1.550581
9.901100
9.900870
9.900272
9.899421
9.898428
9.897380
9.896336
9.895333
9.894392
9.893526
9.892742
9.892042
9.891429
9.890904
9.890470
9.890127
9.889878
9.889726
9.889673
9.889722
9.889877
9.890139
9.890512
9.890994
9.891582
9.892269
9.893036
9.893855
9.894675
9.895418
9.895957
9.896094
9.895524
9.893772
9.890101
9.883360
9.871718
9.852200
9.819789
9.765556
9.672385
9.504383
9.180416
8.802755
3.504794
-3.496575
-3.328854
-3.304942
-3.281968
-3.202027
-2.829442
-2.632678
-2.650708
-2.669526
-2.685507
-2.700432
-2.718697
-2.756391
-2.775068
-2.631594
-2.565593
-2.613338
-2.655476
-2.713741
-2.823738
-2.983979
-3.182394
-3.400622
-3.612663
-3.789266
-3.906869
-3.954682
-3.935754
-3.857958
-3.749638
-3.627323
-3.501078
-3.376391
-3.256202
-3.142257
-3.035977
-2.938711
-2.851613
-2.775481
-2.710970
-2.658291
-2.617313
-2.587691
-2.568926
-2.560449
-2.562220
-2.571892
-2.588532
-2.611060
-2.638329
-2.669165
-2.702400
-2.736901
-2.771594
-2.805479
-2.837651
-2.867315
-2.893824
-2.916708
-2.935109
-2.948878
-2.957713
-2.961360
-2.959624
-2.952349
-2.939479
-2.921091
-2.897327
-2.868424
-2.834776
-2.796966
-2.755423
-2.711052
-2.664762
-2.617458
-2.570089
-2.523615
-2.478989
-2.437081
-2.398622
-2.364459
-2.335168
-2.311184
-2.292798
-2.280140
-2.273159
-2.271637
-2.275177
-2.283187
-2.294889
-2.309346
-2.325465
-2.342032
-2.357778
-2.371423
-2.381744
-2.387657
-2.388290
-2.383046
-2.371632
-2.354075
-2.330714
-2.302150
-2.269196
-2.232817
-2.194067
-2.154035
-2.113780
-2.074295
-2.036468
-2.001064
-1.968715
-1.939906
-1.914987
-1.894170
-1.877545
-1.865093
-1.856698
-1.852159
-1.851205
-1.853507
-1.858690
-1.866337
-1.876004
-1.887218
-1.899492
-1.912321
-1.925197
-1.937609
-1.949055
-1.959053
-1.967152
-1.972953
-1.976116
-1.976382
-1.973585
-1.967656
-1.958632
-1.946646
-1.931918
-1.914736
-1.895439
-1.874382
-1.851923
-1.828392
-1.804073
-1.779189
-1.753891
-1.728242
-1.702218
-1.675702
-1.648483
-1.620279
-1.590793
-1.556985
9.898612
9.898452
9.898022
9.897386
9.896613
9.895766
9.894894
9.894031
9.893201
9.892419
9.891695
9.891036
9.890446
9.889928
9.889485
9.889120
9.888833
9.888628
9.888507
9.888470
9.888520
9.888656
9.888877
9.889178
9.889552
9.889983
9.890446
9.890901
9.891285
9.891499
9.891393
9.890731
9.889151
9.886090
9.880656
9.871421
9.856026
9.830425
9.787261
9.712018
9.572456
9.284132
8.579403
6.130996
-1.793166
-3.496574
-3.328853
-3.304941
-3.281968
-3.202027
-3.026204
-2.812018
-2.759917
-2.746180
-2.736794
-2.729557
-2.729723
-2.762133
-2.781080
-2.562729
-2.420987
-2.571695
-2.600680
-2.634631
-2.765447
-2.963551
-3.208498
-3.480035
-3.743936
-3.958428
-4.091945
-4.133957
-4.086559
-3.978807
-3.841284
-3.694953
-3.550031
-3.410904
-3.279288
-3.155697
-3.040849
-2.935931
-2.842180
-2.760165
-2.690965
-2.634737
-2.591214
-2.559944
-2.540387
-2.531849
-2.534356
-2.545664
-2.564602
-2.589926
-2.620339
-2.654530
-2.691199
-2.729097
-2.767050
-2.803981
-2.838918
-2.871017
-2.899588
-2.924126
-2.944177
-2.959415
-2.969553
-2.974346
-2.973594
-2.967156
-2.954921
-2.936874
-2.913146
-2.883954
-2.849650
-2.810748
-2.767864
-2.721836
-2.673576
-2.624065
-2.574330
-2.525413
-2.478341
-2.434074
-2.393492
-2.357424
-2.326530
-2.301316
-2.282125
-2.269133
-2.262332
-2.261528
-2.266334
-2.276153
-2.290183
-2.307425
-2.326699
-2.346681
-2.365952
-2.383064
-2.396627
-2.405393
-2.408356
-2.404817
-2.394433
-2.377227
-2.353576
-2.324155
-2.289879
-2.251826
-2.211165
-2.169089
-2.126752
-2.085224
-2.045456
-2.008264
-1.974311
-1.944110
-1.918023
-1.896269
-1.878938
-1.866004
-1.857337
-1.852723
-1.851874
-1.854443
-1.860037
-1.868225
-1.878544
-1.890511
-1.903621
-1.917359
-1.931199
-1.944613
-1.957079
-1.968092
-1.977179
-1.983912
-1.987929
-1.988950
-1.986790
-1.981373
-1.972733
-1.961010
-1.946440
-1.929333
-1.910049
-1.888972
-1.866480
-1.842924
-1.818601
-1.793739
-1.768482
-1.742877
-1.716864
-1.690269
-1.662787
-1.633970
-1.603212
-1.565822
9.896422
9.896303
9.895979
9.895488
9.894872
9.894178
9.893443
9.892697
9.891962
9.891254
9.890585
9.889962
9.889392
9.888879
9.888426
9.888035
9.887709
9.887450
9.887258
9.887135
9.887080
9.887091
9.887164
9.887293
9.887467
9.887666
9.887864
9.888017
9.888059
9.887893
9.887367
9.886254
9.884201
9.880660
9.874761
9.865093
9.849293
9.823240
9.779359
9.702724
9.561116
9.273650
8.615777
6.847005
0.335755
-2.541537
-3.160148
-3.304701
-3.352840
-3.369530
-3.359454
-3.338417
-3.280761
-3.203288
-3.122102
-3.043115
-2.970961
-2.905824
-2.792662
-2.577851
-2.505782
-2.563380
-2.539030
-2.549301
-2.703078
-2.936982
-3.224317
-3.551959
-3.876298
-4.134820
-4.287119
-4.321044
-4.249010
-4.108953
-3.939888
-3.768285
-3.603617
-3.449248
-3.305909
-3.172543
-3.049154
-2.936457
-2.835601
-2.747649
-2.673462
-2.613228
-2.566610
-2.533082
-2.512146
-2.503175
-2.505643
-2.518260
-2.539235
-2.567193
-2.600683
-2.638232
-2.678389
-2.719767
-2.761077
-2.801146
-2.838935
-2.873551
-2.904262
-2.930485
-2.952288
-2.969086
-2.980632
-2.986689
-2.987045
-2.981524
-2.969996
-2.952411
-2.928835
-2.899449
-2.864578
-2.824714
-2.780512
-2.732803
-2.682540
-2.630768
-2.578593
-2.527144
-2.477533
-2.430816
-2.387970
-2.349872
-2.317256
-2.290694
-2.270594
-2.257183
-2.250501
-2.250391
-2.256485
-2.268192
-2.284690
-2.304930
-2.327644
-2.351383
-2.374568
-2.395567
-2.412790
-2.424804
-2.430439
-2.428881
-2.419728
-2.403003
-2.379128
-2.348872
-2.313266
-2.273516
-2.230919
-2.186780
-2.142351
-2.098781
-2.057083
-2.018116
-1.982575
-1.950990
-1.923736
-1.901034
-1.882973
-1.869517
-1.860524
-1.855765
-1.854933
-1.857665
-1.863551
-1.872143
-1.882966
-1.895526
-1.909308
-1.923786
-1.938426
-1.952687
-1.966033
-1.977944
-1.987926
-1.995532
-2.000377
-2.002162
-2.000688
-1.995870
-1.987741
-1.976447
-1.962238
-1.945441
-1.926437
-1.905631
-1.883420
-1.860169
-1.836183
-1.811693
-1.786834
-1.761637
-1.736011
-1.709725
-1.682380
-1.653359
-1.621715
-1.581001
9.894451
9.894359
9.894105
9.893713
9.893212
9.892633
9.892005
9.891354
9.890697
9.890052
9.889429
9.888837
9.888283
9.887771
9.887305
9.886887
9.886521
9.886206
9.885944
9.885734
9.885576
9.885465
9.885398
9.885365
9.885356
9.885352
9.885327
9.885241
9.885039
9.884638
9.883917
9.882693
9.880694
9.877498
9.872442
9.864453
9.851738
9.831179
9.797067
9.736053
9.616845
9.356938
8.686060
6.257153
-1.702736
-3.484898
-3.359865
-3.395629
-3.480315
-3.629313
-3.838208
-4.115368
-4.070934
-3.937353
-3.799251
-3.660268
-3.513029
-3.340734
-3.124742
-2.887924
-2.730440
-2.649061
-2.587298
-2.600611
-2.723149
-2.949397
-3.258281
-3.617951
-3.985913
-4.296123
-4.479497
-4.512023
-4.419779
-4.248067
-4.045815
-3.845911
-3.661474
-3.493472
-3.338641
-3.194708
-3.061547
-2.940233
-2.832060
-2.737967
-2.658549
-2.593943
-2.543695
-2.507219
-2.484232
-2.474316
-2.476377
-2.489944
-2.512678
-2.543100
-2.579586
-2.620480
-2.664158
-2.709078
-2.753815
-2.797095
-2.837808
-2.875026
-2.907988
-2.936037
-2.959506
-2.977912
-2.990932
-2.998331
-2.999883
-2.995388
-2.984682
-2.967670
-2.944360
-2.914883
-2.879530
-2.838774
-2.793274
-2.743877
-2.691579
-2.637497
-2.582822
-2.528773
-2.476557
-2.427324
-2.382135
-2.341935
-2.307524
-2.279544
-2.258460
-2.244561
-2.237937
-2.238478
-2.245847
-2.259470
-2.278514
-2.301882
-2.328221
-2.355953
-2.383329
-2.408519
-2.429714
-2.445271
-2.453839
-2.454477
-2.446720
-2.430592
-2.406580
-2.375555
-2.338683
-2.297313
-2.252876
-2.206798
-2.160425
-2.114981
-2.071531
-2.030968
-1.994007
-1.961191
-1.932895
-1.909341
-1.890609
-1.876651
-1.867311
-1.862343
-1.861423
-1.864172
-1.870163
-1.878938
-1.890014
-1.902889
-1.917046
-1.931957
-1.947085
-1.961887
-1.975824
-1.988367
-1.999012
-2.007300
-2.012834
-2.015301
-2.014491
-2.010315
-2.002804
-1.992110
-1.978492
-1.962291
-1.943903
-1.923745
-1.902224
-1.879710
-1.856512
-1.832856
-1.808871
-1.784571
-1.759845
-1.734429
-1.707874
-1.679481
-1.648181
-1.607003
9.892650
9.892575
9.892370
9.892047
9.891629
9.891136
9.890592
9.890015
9.889422
9.888828
9.888243
9.887676
9.887132
9.886618
9.886136
9.885690
9.885281
9.884910
9.884578
9.884284
9.884025
9.883798
9.883597
9.883415
9.883241
9.883060
9.882849
9.882580
9.882214
9.881698
9.880958
9.879892
9.878355
9.876136
9.872916
9.868192
9.861133
9.850282
9.832247
9.800186
9.738872
9.611037
9.324267
8.943960
3.620611
-3.484898
-3.359866
-3.395629
-3.480315
-3.629314
-4.332973
-4.827738
-4.528816
-4.411736
-4.328186
-4.238947
-4.126180
-3.945850
-3.689591
-3.396212
-3.131207
-2.927112
-2.795807
-2.767666
-2.856897
-3.054173
-3.342124
-3.695751
-4.071322
-4.403967
-4.616624
-4.659416
-4.565735
-4.370251
-4.139159
-3.916898
-3.719245
-3.542768
-3.379642
-3.226044
-3.082474
-2.951047
-2.833602
-2.731429
-2.645525
-2.575973
-2.521564
-2.481307
-2.455475
-2.444257
-2.446155
-2.460222
-2.484523
-2.517383
-2.556939
-2.601316
-2.648688
-2.697331
-2.745668
-2.792308
-2.836079
-2.876032
-2.911435
-2.941740
-2.966560
-2.986648
-3.001202
-3.010000
-3.012813
-3.009419
-2.999619
-2.983268
-2.960308
-2.930815
-2.895030
-2.853397
-2.806572
-2.755421
-2.700997
-2.644493
-2.587198
-2.530438
-2.475525
-2.423706
-2.376123
-2.333791
-2.297570
-2.268156
-2.246071
-2.231656
-2.225055
-2.226204
-2.234808
-2.250314
-2.271885
-2.298381
-2.328365
-2.360127
-2.391758
-2.421228
-2.446505
-2.465721
-2.477336
-2.480275
-2.474007
-2.458567
-2.434512
-2.402834
-2.364845
-2.322044
-2.276005
-2.228269
-2.180275
-2.133308
-2.088472
-2.046680
-2.008653
-1.974933
-1.945888
-1.921727
-1.902515
-1.888189
-1.878574
-1.873402
-1.872329
-1.874956
-1.880844
-1.889526
-1.900518
-1.913321
-1.927428
-1.942320
-1.957472
-1.972352
-1.986430
-1.999182
-2.010110
-2.018753
-2.024712
-2.027673
-2.027423
-2.023872
-2.017053
-2.007123
-1.994344
-1.979064
-1.961681
-1.942615
-1.922270
-1.901013
-1.879143
-1.856878
-1.834335
-1.811522
-1.788319
-1.764460
-1.739507
-1.712804
-1.683403
-1.644974
9.890985
9.890923
9.890751
9.890479
9.890120
9.889692
9.889211
9.888692
9.888150
9.887596
9.887040
9.886490
9.885953
9.885432
9.884933
9.884456
9.884004
9.883577
9.883176
9.882798
9.882442
9.882104
9.881778
9.881458
9.881134
9.880795
9.880426
9.880013
9.879536
9.878977
9.878319
9.877552
9.876682
9.875739
9.874800
9.874005
9.873578
9.873789
9.874885
9.876838
9.878426
9.876498
9.868813
9.874307
9.874306
0.000000
0.000000
0.000000
0.000000
0.000000
-4.770982
-4.770982
-4.690912
-4.639410
-4.560822
-4.546992
-4.566514
-4.479354
-4.255577
-3.939288
-3.602917
-3.308152
-3.099067
-3.007033
-3.043078
-3.197586
-3.448728
-3.768467
-4.117411
-4.436232
-4.651882
-4.707725
-4.612537
-4.423689
-4.187525
-3.960546
-3.763191
-3.589015
-3.425501
-3.267013
-3.114984
-2.973343
-2.845553
-2.733956
-2.639765
-2.562759
-2.501748
-2.456230
-2.426983
-2.414507
-2.414650
-2.428003
-2.453678
-2.489151
-2.532160
-2.580521
-2.632143
-2.685061
-2.737499
-2.787926
-2.835090
-2.878025
-2.916038
-2.948668
-2.975617
-2.997076
-3.013140
-3.023319
-3.027379
-3.025084
-3.016205
-3.000538
-2.977958
-2.948466
-2.912240
-2.869682
-2.821433
-2.768382
-2.711637
-2.652484
-2.592329
-2.532627
-2.474818
-2.420261
-2.370193
-2.325694
-2.287674
-2.256867
-2.233828
-2.218933
-2.212366
-2.214099
-2.223872
-2.241155
-2.265107
-2.294554
-2.327972
-2.363533
-2.399193
-2.432746
-2.461950
-2.484714
-2.499308
-2.504519
-2.499754
-2.485059
-2.461072
-2.428913
-2.390046
-2.346127
-2.298867
-2.249918
-2.200796
-2.152833
-2.107153
-2.064672
-2.026103
-1.991969
-1.962620
-1.938243
-1.918883
-1.904451
-1.894748
-1.889481
-1.888280
-1.890723
-1.896353
-1.904692
-1.915254
-1.927552
-1.941100
-1.955408
-1.969984
-1.984330
-1.997945
-2.010332
-2.021013
-2.029546
-2.035547
-2.038709
-2.038831
-2.035828
-2.029737
-2.020716
-2.009026
-1.995010
-1.979055
-1.961567
-1.942936
-1.923507
-1.903563
-1.883303
-1.862835
-1.842160
-1.821164
-1.799609
-1.777115
-1.753151
-1.727017
-1.693523
9.889434
9.889381
9.889232
9.888996
9.888682
9.888301
9.887868
9.887393
9.886889
9.886366
9.885831
9.885293
9.884757
9.884227
9.883706
9.883197
9.882701
9.882219
9.881750
9.881292
9.880842
9.880398
9.879953
9.879503
9.879040
9.878557
9.878047
9.877506
9.876936
9.876350
9.875784
9.875312
9.875074
9.875321
9.876479
9.879253
9.884764
9.894696
9.911882
9.940545
9.985448
10.051748
10.141010
10.242936
10.242935
0.000000
0.000000
0.000000
0.000000
0.000000
-4.825177
-4.825177
-4.792763
-4.755434
-4.717113
-4.746200
-4.829892
-4.857798
-4.692767
-4.383818
-4.014185
-3.661593
-3.387634
-3.232309
-3.210392
-3.313695
-3.518432
-3.792450
-4.096122
-4.376852
-4.572746
-4.636283
-4.554573
-4.386820
-4.171534
-3.962806
-3.783183
-3.624291
-3.470000
-3.313555
-3.157864
-3.008942
-2.871775
-2.749580
-2.644203
-2.556396
-2.486214
-2.433734
-2.399622
-2.381772
-2.379834
-2.392951
-2.419701
-2.457817
-2.504722
-2.557837
-2.614685
-2.672929
-2.730472
-2.785550
-2.836780
-2.883155
-2.924025
-2.959033
-2.988064
-3.011207
-3.028731
-3.040179
-3.045354
-3.044039
-3.035987
-3.020945
-2.998711
-2.969198
-2.932504
-2.888965
-2.839192
-2.784079
-2.724787
-2.662701
-2.599357
-2.536366
-2.475326
-2.417743
-2.364972
-2.318176
-2.278314
-2.246140
-2.222216
-2.206920
-2.200438
-2.202752
-2.213609
-2.232481
-2.258526
-2.290541
-2.326935
-2.365765
-2.404920
-2.442064
-2.474759
-2.500712
-2.518010
-2.525311
-2.521963
-2.508028
-2.484230
-2.451821
-2.412416
-2.367820
-2.319870
-2.270311
-2.220716
-2.172442
-2.126613
-2.084127
-2.045672
-2.011739
-1.982648
-1.958556
-1.939476
-1.925294
-1.915780
-1.910612
-1.909392
-1.911672
-1.916971
-1.924797
-1.934658
-1.946077
-1.958589
-1.971743
-1.985097
-1.998213
-2.010650
-2.021970
-2.031748
-2.039583
-2.045128
-2.048106
-2.048334
-2.045741
-2.040369
-2.032375
-2.022006
-2.009587
-1.995479
-1.980057
-1.963678
-1.946655
-1.929241
-1.911611
-1.893858
-1.875980
-1.857880
-1.839358
-1.820120
-1.799781
-1.777902
-1.750527
9.887980
9.887933
9.887802
9.887591
9.887309
9.886964
9.886565
9.886124
9.885648
9.885146
9.884626
9.884094
9.883554
9.883011
9.882467
9.881925
9.881385
9.880848
9.880312
9.879776
9.879237
9.878691
9.878133
9.877560
9.876964
9.876344
9.875696
9.875025
9.874348
9.873699
9.873151
9.872835
9.872981
9.873983
9.876502
9.881608
9.891002
9.907264
9.934041
9.976701
10.041896
10.133357
10.244844
10.348508
10.348507
0.000000
0.000000
0.000000
0.000000
0.000000
-4.925377
-4.925376
-4.918355
-4.895678
-4.856030
-4.881133
-4.979349
-5.103498
-4.960668
-4.659839
-4.279125
-3.894637
-3.575630
-3.370452
-3.298997
-3.354826
-3.513267
-3.739965
-3.995017
-4.231956
-4.400862
-4.463773
-4.408537
-4.267216
-4.094096
-3.923459
-3.776620
-3.643747
-3.506991
-3.359598
-3.206174
-3.054547
-2.910826
-2.778922
-2.661546
-2.560817
-2.478384
-2.415334
-2.371843
-2.349951
-2.345985
-2.358516
-2.385827
-2.425803
-2.476088
-2.534084
-2.596911
-2.661598
-2.725456
-2.786299
-2.842480
-2.892894
-2.936922
-2.974337
-3.005198
-3.029770
-3.048584
-3.061081
-3.067112
-3.066539
-3.059131
-3.044604
-3.022681
-2.993182
-2.956101
-2.911683
-2.860473
-2.803344
-2.741484
-2.676358
-2.609635
-2.543091
-2.478512
-2.417583
-2.361815
-2.312485
-2.270617
-2.236991
-2.212158
-2.196469
-2.190077
-2.192930
-2.204736
-2.224930
-2.252634
-2.286624
-2.325287
-2.366540
-2.408377
-2.448343
-2.483808
-2.512310
-2.531788
-2.540795
-2.538636
-2.525406
-2.501913
-2.469538
-2.430037
-2.385342
-2.337386
-2.287980
-2.238722
-2.190968
-2.145817
-2.104129
-2.066549
-2.033526
-2.005336
-1.982099
-1.963795
-1.950272
-1.941272
-1.936439
-1.935349
-1.937528
-1.942474
-1.949680
-1.958650
-1.968912
-1.980020
-1.991562
-2.003148
-2.014410
-2.024990
-2.034539
-2.042717
-2.049207
-2.053729
-2.056060
-2.056057
-2.053670
-2.048947
-2.042035
-2.033160
-2.022609
-2.010705
-1.997773
-1.984122
-1.970020
-1.955680
-1.941248
-1.926796
-1.912320
-1.897737
-1.882893
-1.867571
-1.851517
-1.834498
-1.813715
9.886612
9.886570
9.886450
9.886258
9.885999
9.885679
9.885307
9.884888
9.884432
9.883945
9.883433
9.882902
9.882355
9.881796
9.881227
9.880651
9.880067
9.879475
9.878874
9.878263
9.877637
9.876994
9.876328
9.875636
9.874912
9.874155
9.873364
9.872547
9.871727
9.870945
9.870285
9.869894
9.870030
9.871125
9.873903
9.879536
9.889893
9.907847
9.937558
9.984460
10.053898
10.147875
10.257668
10.354484
10.354483
0.000000
0.000000
0.000000
0.000000
0.000000
-5.100082
-5.100081
-5.137400
-5.156929
-5.106482
-5.025926
-5.011732
-5.050796
-5.017155
-4.723687
-4.354266
-3.960644
-3.617444
-3.382172
-3.279394
-3.302841
-3.426240
-3.614068
-3.827669
-4.026764
-4.172161
-4.235079
-4.207952
-4.108610
-3.978730
-3.854426
-3.746987
-3.645264
-3.531246
-3.398774
-3.253679
-3.104862
-2.958957
-2.820266
-2.692309
-2.578623
-2.482598
-2.406929
-2.353052
-2.321802
-2.315269
-2.326836
-2.354623
-2.396497
-2.450083
-2.512656
-2.581109
-2.652199
-2.722849
-2.790288
-2.852258
-2.907292
-2.954729
-2.994472
-3.026790
-3.052206
-3.071452
-3.084482
-3.090840
-3.090553
-3.083463
-3.069277
-3.047658
-3.018321
-2.981138
-2.936228
-2.884031
-2.825350
-2.761358
-2.693561
-2.623732
-2.553802
-2.485740
-2.421433
-2.362574
-2.310587
-2.266589
-2.231388
-2.205518
-2.189283
-2.182780
-2.185897
-2.198286
-2.219323
-2.248084
-2.283325
-2.323444
-2.365913
-2.409335
-2.451088
-2.488263
-2.518322
-2.539129
-2.549187
-2.547801
-2.535114
-2.512027
-2.480033
-2.440991
-2.396919
-2.349803
-2.301472
-2.253512
-2.207240
-2.163706
-2.123714
-2.087849
-2.056508
-2.029918
-2.008156
-1.991159
-1.978740
-1.970602
-1.966361
-1.965564
-1.967713
-1.972294
-1.978794
-1.986718
-1.995607
-2.005041
-2.014645
-2.024083
-2.033056
-2.041291
-2.048539
-2.054566
-2.059163
-2.062147
-2.063379
-2.062779
-2.060332
-2.056102
-2.050223
-2.042893
-2.034353
-2.024870
-2.014709
-2.004121
-1.993316
-1.982461
-1.971666
-1.960980
-1.950391
-1.939827
-1.929166
-1.918248
-1.906909
-1.895037
-1.880811
9.885322
9.885282
9.885172
9.884993
9.884750
9.884448