# vtk DataFile Version 3.0
Vector Field
ASCII
DATASET RECTILINEAR_GRID
DIMENSIONS 200 50 1
X_COORDINATES 200 double
0.050000 0.150000 0.250000 0.350000 0.450000 0.550000 0.650000 0.750000 0.850000 0.950000 1.050000 1.150000 1.250000 1.350000 1.450000 1.550000 1.650000 1.750000 1.850000 1.950000 2.050000 2.150000 2.250000 2.350000 2.450000 2.550000 2.650000 2.750000 2.850000 2.950000 3.050000 3.150000 3.250000 3.350000 3.450000 3.550000 3.650000 3.750000 3.850000 3.950000 4.050000 4.150000 4.250000 4.350000 4.450000 4.550000 4.650000 4.750000 4.850000 4.950000 5.050000 5.150000 5.250000 5.350000 5.450000 5.550000 5.650000 5.750000 5.850000 5.950000 6.050000 6.150000 6.250000 6.350000 6.450000 6.550000 6.650000 6.750000 6.850000 6.950000 7.050000 7.150000 7.250000 7.350000 7.450000 7.550000 7.650000 7.750000 7.850000 7.950000 8.050000 8.150000 8.250000 8.350000 8.450000 8.550000 8.650000 8.750000 8.850000 8.950000 9.050000 9.150000 9.250000 9.350000 9.450000 9.550000 9.650000 9.750000 9.850000 9.950000 10.050000 10.150000 10.250000 10.350000 10.450000 10.550000 10.650000 10.750000 10.850000 10.950000 11.050000 11.150000 11.250000 11.350000 11.450000 11.550000 11.650000 11.750000 11.850000 11.950000 12.050000 12.150000 12.250000 12.350000 12.450000 12.550000 12.650000 12.750000 12.850000 12.950000 13.050000 13.150000 13.250000 13.350000 13.450000 13.550000 13.650000 13.750000 13.850000 13.950000 14.050000 14.150000 14.250000 14.350000 14.450000 14.550000 14.650000 14.750000 14.850000 14.950000 15.050000 15.150000 15.250000 15.350000 15.450000 15.550000 15.650000 15.750000 15.850000 15.950000 16.050000 16.150000 16.250000 16.350000 16.450000 16.550000 16.650000 16.750000 16.850000 16.950000 17.050000 17.150000 17.250000 17.350000 17.450000 17.550000 17.650000 17.750000 17.850000 17.950000 18.050000 18.150000 18.250000 18.350000 18.450000 18.550000 18.650000 18.750000 18.850000 18.950000 19.050000 19.150000 19.250000 19.350000 19.450000 19.550000 19.650000 19.750000 19.850000 19.950000 
Y_COORDINATES 50 double
0.050000 0.150000 0.250000 0.350000 0.450000 0.550000 0.650000 0.750000 0.850000 0.950000 1.050000 1.150000 1.250000 1.350000 1.450000 1.550000 1.650000 1.750000 1.850000 1.950000 2.050000 2.150000 2.250000 2.350000 2.450000 2.550000 2.650000 2.750000 2.850000 2.950000 3.050000 3.150000 3.250000 3.350000 3.450000 3.550000 3.650000 3.750000 3.850000 3.950000 4.050000 4.150000 4.250000 4.350000 4.450000 4.550000 4.650000 4.750000 4.850000 4.950000 
Z_COORDINATES 1 double
0.0
POINT_DATA 10000
VECTORS Vektorfeld double
0.996422 0.003578 0.0
0.986653 0.006192 0.0
0.973161 0.007301 0.0
0.958022 0.007838 0.0
0.942059 0.008126 0.0
0.925645 0.008288 0.0
0.908974 0.008382 0.0
0.892158 0.008434 0.0
0.875266 0.008458 0.0
0.858343 0.008464 0.0
0.841421 0.008458 0.0
0.824521 0.008442 0.0
0.807659 0.008421 0.0
0.790842 0.008396 0.0
0.774076 0.008371 0.0
0.757357 0.008347 0.0
0.740681 0.008329 0.0
0.724037 0.008316 0.0
0.707407 0.008313 0.0
0.690772 0.008322 0.0
0.674105 0.008345 0.0
0.657376 0.008385 0.0
0.640546 0.008445 0.0
0.623570 0.008531 0.0
0.606392 0.008648 0.0
0.588941 0.008804 0.0
0.571128 0.009009 0.0
0.552840 0.009279 0.0
0.533929 0.009632 0.0
0.514200 0.010097 0.0
0.493396 0.010707 0.0
0.471175 0.011514 0.0
0.447078 0.012583 0.0
0.420494 0.014002 0.0
0.390607 0.015885 0.0
0.356345 0.018376 0.0
0.316334 0.021635 0.0
0.268888 0.025812 0.0
0.212111 0.030966 0.0
0.144238 0.036907 0.0
0.064211 0.043121 0.0
-0.023428 0.044518 0.0
-0.083935 0.015989 0.0
-0.049962 -0.049962 0.0
0.500000 0.049982 0.0
1.000000 0.000000 0.0
1.000000 0.000000 0.0
1.000000 0.000000 0.0
1.000000 0.000000 0.0
1.000000 0.000000 0.0
0.500000 0.028454 0.0
0.028415 -0.028415 0.0
0.077528 -0.020698 0.0
0.107634 -0.009409 0.0
0.119518 -0.002475 0.0
0.126165 -0.004172 0.0
0.131770 -0.001433 0.0
0.127182 0.006020 0.0
0.110561 0.010602 0.0
0.086109 0.013850 0.0
0.055636 0.016623 0.0
0.020442 0.018570 0.0
-0.017453 0.019325 0.0
-0.056379 0.019601 0.0
-0.096387 0.020407 0.0
-0.138587 0.021793 0.0
-0.184181 0.023800 0.0
-0.234379 0.026398 0.0
-0.290267 0.029491 0.0
-0.352679 0.032921 0.0
-0.422088 0.036488 0.0
-0.498541 0.039966 0.0
-0.581636 0.043129 0.0
-0.670538 0.045773 0.0
-0.764040 0.047728 0.0
-0.860638 0.048870 0.0
-0.958628 0.049121 0.0
-1.056205 0.048456 0.0
-1.151556 0.046896 0.0
-1.242956 0.044504 0.0
-1.328841 0.041381 0.0
-1.407873 0.037651 0.0
-1.478981 0.033457 0.0
-1.541384 0.028946 0.0
-1.594585 0.024256 0.0
-1.638352 0.019511 0.0
-1.672675 0.014812 0.0
-1.697719 0.010231 0.0
-1.713760 0.005810 0.0
-1.721125 0.001555 0.0
-1.720119 -0.002561 0.0
-1.711111 -0.006446 0.0
-1.694674 -0.009991 0.0
-1.671502 -0.013180 0.0
-1.642304 -0.016018 0.0
-1.607768 -0.018519 0.0
-1.568547 -0.020702 0.0
-1.525256 -0.022589 0.0
-1.478466 -0.024201 0.0
-1.428700 -0.025565 0.0
-1.376432 -0.026704 0.0
-1.322082 -0.027646 0.0
-1.266017 -0.028419 0.0
-1.208550 -0.029048 0.0
-1.149942 -0.029561 0.0
-1.090401 -0.029981 0.0
-1.030090 -0.030330 0.0
-0.969130 -0.030629 0.0
-0.907610 -0.030892 0.0
-0.845588 -0.031131 0.0
-0.783104 -0.031353 0.0
-0.720188 -0.031562 0.0
-0.656871 -0.031755 0.0
-0.593191 -0.031925 0.0
-0.529207 -0.032060 0.0
-0.465000 -0.032147 0.0
-0.400682 -0.032171 0.0
-0.336394 -0.032116 0.0
-0.272308 -0.031970 0.0
-0.208614 -0.031724 0.0
-0.145492 -0.031399 0.0
-0.083018 -0.031076 0.0
-0.021256 -0.030686 0.0
0.038989 -0.029559 0.0
0.097143 -0.028594 0.0
0.153434 -0.027697 0.0
0.207925 -0.026793 0.0
0.260570 -0.025852 0.0
0.311275 -0.024854 0.0
0.359911 -0.023782 0.0
0.406315 -0.022621 0.0
0.450286 -0.021351 0.0
0.491586 -0.019950 0.0
0.529933 -0.018397 0.0
0.565004 -0.016674 0.0
0.596446 -0.014768 0.0
0.623895 -0.012681 0.0
0.647009 -0.010433 0.0
0.665522 -0.008080 0.0
0.679313 -0.005712 0.0
0.688487 -0.003462 0.0
0.693425 -0.001476 0.0
0.694683 0.000218 0.0
0.692521 0.001945 0.0
0.686764 0.003812 0.0
0.677166 0.005787 0.0
0.663644 0.007735 0.0
0.646360 0.009549 0.0
0.625665 0.011145 0.0
0.602069 0.012450 0.0
0.576203 0.013417 0.0
0.548758 0.014028 0.0
0.520446 0.014284 0.0
0.491967 0.014196 0.0
0.464001 0.013770 0.0
0.437217 0.013013 0.0
0.412259 0.011945 0.0
0.389684 0.010629 0.0
0.369873 0.009182 0.0
0.352928 0.007763 0.0
0.338629 0.006536 0.0
0.326464 0.005628 0.0
0.315738 0.005098 0.0
0.305710 0.004929 0.0
0.295737 0.005044 0.0
0.285359 0.005335 0.0
0.274334 0.005689 0.0
0.262630 0.006015 0.0
0.250366 0.006249 0.0
0.237759 0.006359 0.0
0.225064 0.006336 0.0
0.212546 0.006183 0.0
0.200455 0.005908 0.0
0.189026 0.005521 0.0
0.178466 0.005039 0.0
0.168948 0.004478 0.0
0.160614 0.003856 0.0
0.153580 0.003178 0.0
0.147955 0.002447 0.0
0.143847 0.001661 0.0
0.141353 0.000832 0.0
0.140535 -0.000015 0.0
0.141391 -0.000841 0.0
0.143855 -0.001623 0.0
0.147798 -0.002320 0.0
0.153014 -0.002896 0.0
0.159238 -0.003328 0.0
0.166170 -0.003605 0.0
0.173502 -0.003728 0.0
0.180934 -0.003705 0.0
0.188188 -0.003549 0.0
0.195013 -0.003275 0.0
0.201187 -0.002899 0.0
0.206521 -0.002435 0.0
0.210857 -0.001902 0.0
0.214081 -0.001322 0.0
0.216140 -0.000737 0.0
0.217114 -0.000237 0.0
0.217362 -0.000011 0.0
0.218425 -0.001051 0.0
1.001718 0.005437 0.0
1.005211 0.010608 0.0
1.008234 0.013353 0.0
1.010186 0.014973 0.0
1.011116 0.016023 0.0
1.011164 0.016757 0.0
1.010449 0.017299 0.0
1.009064 0.017718 0.0
1.007078 0.018052 0.0
1.004545 0.018326 0.0
1.001507 0.018556 0.0
0.997999 0.018753 0.0
0.994045 0.018926 0.0
0.989667 0.019085 0.0
0.984878 0.019237 0.0
0.979688 0.019389 0.0
0.974101 0.019550 0.0
0.968113 0.019727 0.0
0.961718 0.019927 0.0
0.954903 0.020158 0.0
0.947649 0.020429 0.0
0.939931 0.020748 0.0
0.931715 0.021127 0.0
0.922962 0.021579 0.0
0.913617 0.022123 0.0
0.903613 0.022783 0.0
0.892862 0.023593 0.0
0.881248 0.024596 0.0
0.868622 0.025853 0.0
0.854782 0.027445 0.0
0.839463 0.029482 0.0
0.822305 0.032118 0.0
0.802825 0.035556 0.0
0.780363 0.040074 0.0
0.754027 0.046036 0.0
0.722608 0.053905 0.0
0.684496 0.064229 0.0
0.637593 0.077567 0.0
0.579315 0.094265 0.0
0.506891 0.113904 0.0
0.418916 0.134127 0.0
0.317178 0.142890 0.0
0.196137 0.099164 0.0
0.064475 -0.035448 0.0
0.500000 0.035508 0.0
1.000000 0.000000 0.0
1.000000 0.000000 0.0
1.000000 0.000000 0.0
1.000000 0.000000 0.0
1.000000 0.000000 0.0
0.500000 0.078058 0.0
0.021123 -0.077952 0.0
0.055935 -0.055085 0.0
0.077976 -0.027169 0.0
0.073006 0.008371 0.0
0.032552 0.018791 0.0
-0.024792 0.027343 0.0
-0.081994 0.039034 0.0
-0.134186 0.046401 0.0
-0.182485 0.050801 0.0
-0.227266 0.054927 0.0
-0.270666 0.058859 0.0
-0.314733 0.061000 0.0
-0.359911 0.062031 0.0
-0.405869 0.063943 0.0
-0.452870 0.067460 0.0
-0.501972 0.072828 0.0
-0.554379 0.079976 0.0
-0.611197 0.088619 0.0
-0.673286 0.098294 0.0
-0.741161 0.108399 0.0
-0.814915 0.118262 0.0
-0.894199 0.127211 0.0
-0.978240 0.134634 0.0
-1.065890 0.140020 0.0
-1.155705 0.142992 0.0
-1.246037 0.143321 0.0
-1.335130 0.140925 0.0
-1.421220 0.135868 0.0
-1.502626 0.128338 0.0
-1.577831 0.118636 0.0
-1.645546 0.107143 0.0
-1.704759 0.094286 0.0
-1.754751 0.080511 0.0
-1.795100 0.066240 0.0
-1.825655 0.051849 0.0
-1.846500 0.037642 0.0
-1.857898 0.023843 0.0
-1.860234 0.010576 0.0
-1.853927 -0.002153 0.0
-1.839712 -0.014075 0.0
-1.818547 -0.025105 0.0
-1.791165 -0.035153 0.0
-1.758151 -0.044204 0.0
-1.720065 -0.052277 0.0
-1.677456 -0.059405 0.0
-1.630856 -0.065636 0.0
-1.580776 -0.071025 0.0
-1.527699 -0.075633 0.0
-1.472069 -0.079528 0.0
-1.414296 -0.082782 0.0
-1.354744 -0.085471 0.0
-1.293731 -0.087672 0.0
-1.231529 -0.089463 0.0
-1.168363 -0.090921 0.0
-1.104410 -0.092114 0.0
-1.039808 -0.093109 0.0
-0.974658 -0.093960 0.0
-0.909025 -0.094713 0.0
-0.842952 -0.095404 0.0
-0.776461 -0.096055 0.0
-0.709563 -0.096674 0.0
-0.642271 -0.097254 0.0
-0.574601 -0.097775 0.0
-0.506588 -0.098207 0.0
-0.438284 -0.098511 0.0
-0.369771 -0.098639 0.0
-0.301156 -0.098551 0.0
-0.232568 -0.098209 0.0
-0.164172 -0.097574 0.0
-0.096151 -0.096691 0.0
-0.028768 -0.095641 0.0
0.037015 -0.093664 0.0
0.101031 -0.090842 0.0
0.163802 -0.088237 0.0
0.225162 -0.085706 0.0
0.285022 -0.083135 0.0
0.343333 -0.080467 0.0
0.400056 -0.077667 0.0
0.455156 -0.074705 0.0
0.508605 -0.071551 0.0
0.560384 -0.068171 0.0
0.610485 -0.064531 0.0
0.658919 -0.060596 0.0
0.705713 -0.056340 0.0
0.750910 -0.051742 0.0
0.794559 -0.046804 0.0
0.836684 -0.041549 0.0
0.877240 -0.036032 0.0
0.916026 -0.030336 0.0
0.952564 -0.024549 0.0
0.985953 -0.018716 0.0
1.014892 -0.012739 0.0
1.038291 -0.006335 0.0
1.055679 0.000461 0.0
1.067015 0.007401 0.0
1.072411 0.014247 0.0
1.071971 0.020761 0.0
1.065853 0.026746 0.0
1.054310 0.031987 0.0
1.037723 0.036333 0.0
1.016602 0.039677 0.0
0.991595 0.041953 0.0
0.963475 0.043126 0.0
0.933102 0.043179 0.0
0.901356 0.042133 0.0
0.869057 0.040082 0.0
0.836888 0.037236 0.0
0.805345 0.033930 0.0
0.774721 0.030584 0.0
0.745118 0.027616 0.0
0.716490 0.025341 0.0
0.688699 0.023903 0.0
0.661590 0.023260 0.0
0.635053 0.023223 0.0
0.609067 0.023521 0.0
0.583715 0.023879 0.0
0.559168 0.024077 0.0
0.535642 0.023976 0.0
0.513357 0.023523 0.0
0.492503 0.022720 0.0
0.473220 0.021600 0.0
0.455601 0.020201 0.0
0.439700 0.018558 0.0
0.425556 0.016706 0.0
0.413203 0.014681 0.0
0.402677 0.012513 0.0
0.394016 0.010215 0.0
0.387268 0.007784 0.0
0.382488 0.005212 0.0
0.379742 0.002521 0.0
0.379069 -0.000212 0.0
0.380483 -0.002914 0.0
0.383993 -0.005525 0.0
0.389527 -0.007894 0.0
0.396885 -0.009897 0.0
0.405796 -0.011461 0.0
0.415948 -0.012556 0.0
0.427025 -0.013185 0.0
0.438723 -0.013377 0.0
0.450763 -0.013171 0.0
0.462901 -0.012616 0.0
0.474930 -0.011760 0.0
0.486674 -0.010651 0.0
0.497987 -0.009335 0.0
0.508737 -0.007861 0.0
0.518773 -0.006293 0.0
0.527859 -0.004741 0.0
0.535518 -0.003415 0.0
0.540168 -0.003360 0.0
1.000672 0.003047 0.0
1.002541 0.007637 0.0
1.005005 0.010837 0.0
1.007438 0.013105 0.0
1.009619 0.014781 0.0
1.011491 0.016080 0.0
1.013054 0.017128 0.0
1.014325 0.018004 0.0
1.015319 0.018758 0.0
1.016051 0.019422 0.0
1.016531 0.020018 0.0
1.016764 0.020565 0.0
1.016756 0.021076 0.0
1.016506 0.021564 0.0
1.016013 0.022040 0.0
1.015271 0.022518 0.0
1.014273 0.023008 0.0
1.013007 0.023523 0.0
1.011459 0.024074 0.0
1.009611 0.024675 0.0
1.007441 0.025338 0.0
1.004921 0.026077 0.0
1.002022 0.026912 0.0
0.998707 0.027863 0.0
0.994932 0.028959 0.0
0.990644 0.030239 0.0
0.985781 0.031753 0.0
0.980262 0.033569 0.0
0.973986 0.035782 0.0
0.966825 0.038517 0.0
0.958606 0.041948 0.0
0.949099 0.046316 0.0
0.937990 0.051949 0.0
0.924835 0.059299 0.0
0.909003 0.068981 0.0
0.889569 0.081812 0.0
0.865164 0.098840 0.0
0.833724 0.121301 0.0
0.792123 0.150410 0.0
0.735651 0.186654 0.0
0.657249 0.227753 0.0
0.545541 0.262709 0.0
0.382009 0.263918 0.0
0.142221 0.171248 0.0
0.500000 -0.171144 0.0
1.000000 0.000000 0.0
1.000000 0.000000 0.0
1.000000 0.000000 0.0
1.000000 0.000000 0.0
1.000000 0.000000 0.0
0.500000 0.103438 0.0
0.004230 -0.103305 0.0
-0.001328 -0.058988 0.0
-0.042125 -0.004510 0.0
-0.097788 0.046344 0.0
-0.150892 0.074376 0.0
-0.210562 0.088771 0.0
-0.272003 0.096250 0.0
-0.328266 0.097639 0.0
-0.374838 0.094434 0.0
-0.412504 0.093741 0.0
-0.447038 0.097979 0.0
-0.482606 0.101516 0.0
-0.519038 0.103125 0.0
-0.555694 0.105461 0.0
-0.593300 0.110548 0.0
-0.633192 0.118733 0.0
-0.676511 0.129797 0.0
-0.724155 0.143259 0.0
-0.776765 0.158353 0.0
-0.834646 0.174096 0.0
-0.897734 0.189406 0.0
-0.965588 0.203205 0.0
-1.037418 0.214511 0.0
-1.112133 0.222507 0.0
-1.188406 0.226592 0.0
-1.264753 0.226399 0.0
-1.339613 0.221800 0.0
-1.411435 0.212905 0.0
-1.478758 0.200030 0.0
-1.540283 0.183675 0.0
-1.594934 0.164471 0.0
-1.641894 0.143131 0.0
-1.680624 0.120388 0.0
-1.710845 0.096934 0.0
-1.732508 0.073373 0.0
-1.745750 0.050204 0.0
-1.750871 0.027801 0.0
-1.748313 0.006396 0.0
-1.738634 -0.013960 0.0
-1.722348 -0.032770 0.0
-1.699884 -0.050037 0.0
-1.671716 -0.065770 0.0
-1.638346 -0.079971 0.0
-1.600283 -0.092659 0.0
-1.558037 -0.103878 0.0
-1.512108 -0.113692 0.0
-1.462977 -0.122178 0.0
-1.411105 -0.129429 0.0
-1.356920 -0.135546 0.0
-1.300814 -0.140643 0.0
-1.243141 -0.144836 0.0
-1.184207 -0.148253 0.0
-1.124274 -0.151017 0.0
-1.063555 -0.153252 0.0
-1.002217 -0.155073 0.0
-0.940384 -0.156585 0.0
-0.878142 -0.157877 0.0
-0.815544 -0.159026 0.0
-0.752619 -0.160089 0.0
-0.689373 -0.161106 0.0
-0.625802 -0.162091 0.0
-0.561899 -0.163032 0.0
-0.497667 -0.163899 0.0
-0.433121 -0.164643 0.0
-0.368289 -0.165211 0.0
-0.303228 -0.165513 0.0
-0.238049 -0.165470 0.0
-0.172832 -0.165094 0.0
-0.107765 -0.164153 0.0
-0.043016 -0.162882 0.0
0.020600 -0.160449 0.0
0.082751 -0.156790 0.0
0.143983 -0.152965 0.0
0.204233 -0.149135 0.0
0.263300 -0.145234 0.0
0.321038 -0.141205 0.0
0.377338 -0.137008 0.0
0.432103 -0.132614 0.0
0.485245 -0.128000 0.0
0.536681 -0.123141 0.0
0.586342 -0.118021 0.0
0.634187 -0.112627 0.0
0.680212 -0.106959 0.0
0.724469 -0.101027 0.0
0.767068 -0.094851 0.0
0.808179 -0.088455 0.0
0.848013 -0.081858 0.0
0.886798 -0.075064 0.0
0.924740 -0.068033 0.0
0.961998 -0.060648 0.0
0.998676 -0.052685 0.0
1.034832 -0.043865 0.0
1.070326 -0.034102 0.0
1.104593 -0.023428 0.0
1.136565 -0.012018 0.0
1.164927 -0.000092 0.0
1.188489 0.011978 0.0
1.206434 0.023702 0.0
1.218365 0.034643 0.0
1.224116 0.044514 0.0
1.223699 0.053035 0.0
1.217320 0.059980 0.0
1.205363 0.065176 0.0
1.188350 0.068515 0.0
1.166905 0.069988 0.0
1.141713 0.069719 0.0
1.113487 0.067994 0.0
1.082952 0.065249 0.0
1.050829 0.062012 0.0
1.017808 0.058812 0.0
0.984509 0.056073 0.0
0.951434 0.054036 0.0
0.918939 0.052731 0.0
0.887226 0.052002 0.0
0.856377 0.051576 0.0
0.826406 0.051147 0.0
0.797310 0.050453 0.0
0.769111 0.049325 0.0
0.741881 0.047689 0.0
0.715737 0.045551 0.0
0.690834 0.042956 0.0
0.667336 0.039963 0.0
0.645410 0.036624 0.0
0.625214 0.032980 0.0
0.606911 0.029063 0.0
0.590679 0.024890 0.0
0.576718 0.020460 0.0
0.565240 0.015765 0.0
0.556439 0.010811 0.0
0.550452 0.005655 0.0
0.547328 0.000453 0.0
0.546902 -0.004567 0.0
0.548851 -0.009330 0.0
0.552853 -0.013624 0.0
0.558598 -0.017271 0.0
0.565768 -0.020168 0.0
0.574046 -0.022279 0.0
0.583128 -0.023622 0.0
0.592738 -0.024248 0.0
0.602632 -0.024234 0.0
0.612603 -0.023664 0.0
0.622487 -0.022625 0.0
0.632156 -0.021200 0.0
0.641514 -0.019458 0.0
0.650480 -0.017454 0.0
0.658957 -0.015214 0.0
0.666757 -0.012707 0.0
0.673436 -0.009788 0.0
0.677595 -0.005795 0.0
1.000309 0.002065 0.0
1.001327 0.005733 0.0
1.002910 0.008694 0.0
1.004691 0.011034 0.0
1.006461 0.012901 0.0
1.008123 0.014425 0.0
1.009640 0.015702 0.0
1.011002 0.016798 0.0
1.012212 0.017760 0.0
1.013275 0.018624 0.0
1.014199 0.019413 0.0
1.014988 0.020148 0.0
1.015646 0.020844 0.0
1.016176 0.021516 0.0
1.016578 0.022180 0.0
1.016849 0.022849 0.0
1.016983 0.023539 0.0
1.016975 0.024265 0.0
1.016813 0.025041 0.0
1.016485 0.025884 0.0
1.015976 0.026809 0.0
1.015267 0.027834 0.0
1.014340 0.028982 0.0
1.013170 0.030278 0.0
1.011734 0.031756 0.0
1.010003 0.033460 0.0
1.007947 0.035450 0.0
1.005535 0.037804 0.0
1.002728 0.040629 0.0
0.999486 0.044073 0.0
0.995761 0.048337 0.0
0.991493 0.053703 0.0
0.986600 0.060564 0.0
0.980961 0.069477 0.0
0.974371 0.081226 0.0
0.966452 0.096920 0.0
0.956479 0.118110 0.0
0.943019 0.146932 0.0
0.923195 0.186204 0.0
0.891209 0.239317 0.0
0.835369 0.309333 0.0
0.732468 0.395739 0.0
0.540604 0.486285 0.0
0.207901 0.521370 0.0
0.500000 -0.521198 0.0
1.000000 0.000000 0.0
1.000000 0.000000 0.0
1.000000 0.000000 0.0
1.000000 0.000000 0.0
1.000000 0.000000 0.0
0.500000 0.084595 0.0
-0.023071 -0.084464 0.0
-0.080488 -0.014854 0.0
-0.144361 0.056027 0.0
-0.205870 0.102981 0.0
-0.271014 0.135986 0.0
-0.337569 0.153385 0.0
-0.401670 0.157180 0.0
-0.456191 0.147492 0.0
-0.492634 0.127598 0.0
-0.511804 0.117413 0.0
-0.528864 0.125900 0.0
-0.552131 0.132429 0.0
-0.576779 0.133292 0.0
-0.600095 0.135267 0.0
-0.624175 0.142429 0.0
-0.651488 0.154058 0.0
-0.683125 0.169427 0.0
-0.719732 0.187881 0.0
-0.761742 0.208351 0.0
-0.809265 0.229503 0.0
-0.862076 0.249899 0.0
-0.919645 0.268135 0.0
-0.981169 0.282935 0.0
-1.045616 0.293244 0.0
-1.111767 0.298279 0.0
-1.178270 0.297562 0.0
-1.243702 0.290929 0.0
-1.306625 0.278522 0.0
-1.365662 0.260773 0.0
-1.419562 0.238358 0.0
-1.467273 0.212149 0.0
-1.507995 0.183135 0.0
-1.541214 0.152333 0.0
-1.566698 0.120695 0.0
-1.584457 0.089034 0.0
-1.594664 0.057992 0.0
-1.597576 0.028047 0.0
-1.593529 -0.000453 0.0
-1.583014 -0.027305 0.0
-1.566438 -0.052289 0.0
-1.544089 -0.075331 0.0
-1.516352 -0.096382 0.0
-1.483667 -0.115415 0.0
-1.446504 -0.132440 0.0
-1.405347 -0.147501 0.0
-1.360677 -0.160669 0.0
-1.312968 -0.172041 0.0
-1.262673 -0.181734 0.0
-1.210219 -0.189880 0.0
-1.156005 -0.196629 0.0
-1.100389 -0.202140 0.0
-1.043688 -0.206584 0.0
-0.986171 -0.210136 0.0
-0.928057 -0.212967 0.0
-0.869514 -0.215240 0.0
-0.810664 -0.217101 0.0
-0.751588 -0.218679 0.0
-0.692332 -0.220078 0.0
-0.632915 -0.221379 0.0
-0.573343 -0.222636 0.0
-0.513603 -0.223872 0.0
-0.453687 -0.225070 0.0
-0.393595 -0.226185 0.0
-0.333359 -0.227139 0.0
-0.273018 -0.227886 0.0
-0.212571 -0.228345 0.0
-0.152182 -0.228206 0.0
-0.091945 -0.227813 0.0
-0.031887 -0.226558 0.0
0.027078 -0.224190 0.0
0.084776 -0.220454 0.0
0.141962 -0.216122 0.0
0.198663 -0.211566 0.0
0.254684 -0.206805 0.0
0.309887 -0.201833 0.0
0.364171 -0.196628 0.0
0.417445 -0.191160 0.0
0.469610 -0.185393 0.0
0.520537 -0.179289 0.0
0.570058 -0.172810 0.0
0.617978 -0.165933 0.0
0.664084 -0.158664 0.0
0.708181 -0.151044 0.0
0.750129 -0.143148 0.0
0.789881 -0.135082 0.0
0.827505 -0.126960 0.0
0.863198 -0.118881 0.0
0.897270 -0.110898 0.0
0.930117 -0.102988 0.0
0.962193 -0.095026 0.0
0.993979 -0.086772 0.0
1.025954 -0.077910 0.0
1.058526 -0.068122 0.0
1.091952 -0.057101 0.0
1.126270 -0.044634 0.0
1.161152 -0.030720 0.0
1.195746 -0.015549 0.0
1.228578 0.000452 0.0
1.257827 0.016712 0.0
1.282063 0.032457 0.0
1.300492 0.047080 0.0
1.312663 0.060142 0.0
1.318364 0.071271 0.0
1.317603 0.080195 0.0
1.310583 0.086773 0.0
1.297680 0.091029 0.0
1.279433 0.093158 0.0
1.256534 0.093520 0.0
1.229811 0.092587 0.0
1.200196 0.090873 0.0
1.168659 0.088848 0.0
1.136130 0.086864 0.0
1.103414 0.085114 0.0
1.071127 0.083620 0.0
1.039671 0.082263 0.0
1.009256 0.080845 0.0
0.979954 0.079153 0.0
0.951768 0.077010 0.0
0.924694 0.074309 0.0
0.898762 0.071007 0.0
0.874053 0.067112 0.0
0.850695 0.062661 0.0
0.828850 0.057697 0.0
0.808691 0.052261 0.0
0.790388 0.046388 0.0
0.774083 0.040102 0.0
0.759871 0.033420 0.0
0.747798 0.026357 0.0
0.737886 0.018933 0.0
0.730197 0.011207 0.0
0.724893 0.003329 0.0
0.722203 -0.004328 0.0
0.722067 -0.011381 0.0
0.724067 -0.017575 0.0
0.727744 -0.022742 0.0
0.732678 -0.026801 0.0
0.738500 -0.029746 0.0
0.744886 -0.031624 0.0
0.751554 -0.032524 0.0
0.758259 -0.032556 0.0
0.764793 -0.031847 0.0
0.770991 -0.030523 0.0
0.776723 -0.028704 0.0
0.781906 -0.026494 0.0
0.786488 -0.023966 0.0
0.790449 -0.021140 0.0
0.793788 -0.017918 0.0
0.796511 -0.013980 0.0
0.798711 -0.007962 0.0
1.000174 0.001581 0.0
1.000799 0.004574 0.0
1.001862 0.007205 0.0
1.003158 0.009447 0.0
1.004532 0.011344 0.0
1.005891 0.012962 0.0
1.007181 0.014358 0.0
1.008380 0.015581 0.0
1.009476 0.016671 0.0
1.010469 0.017658 0.0
1.011359 0.018566 0.0
1.012150 0.019415 0.0
1.012846 0.020222 0.0
1.013448 0.021004 0.0
1.013960 0.021778 0.0
1.014381 0.022559 0.0
1.014710 0.023366 0.0
1.014943 0.024214 0.0
1.015076 0.025122 0.0
1.015101 0.026106 0.0
1.015011 0.027186 0.0
1.014797 0.028380 0.0
1.014449 0.029711 0.0
1.013959 0.031208 0.0
1.013319 0.032903 0.0
1.012524 0.034840 0.0
1.011574 0.037076 0.0
1.010476 0.039688 0.0
1.009250 0.042778 0.0
1.007929 0.046486 0.0
1.006577 0.051002 0.0
1.005287 0.056595 0.0
1.004205 0.063645 0.0
1.003537 0.072702 0.0
1.003557 0.084571 0.0
1.004590 0.100460 0.0
1.006926 0.122206 0.0
1.010558 0.152664 0.0
1.014499 0.196354 0.0
1.015078 0.260574 0.0
1.001730 0.357264 0.0
0.946684 0.505755 0.0
0.780237 0.734580 0.0
0.328372 1.057643 0.0
0.500000 -1.057348 0.0
1.000000 0.000000 0.0
1.000000 0.000000 0.0
1.000000 0.000000 0.0
1.000000 0.000000 0.0
1.000000 0.000000 0.0
0.500000 0.019510 0.0
-0.042022 -0.019371 0.0
-0.119699 0.055147 0.0
-0.192075 0.122274 0.0
-0.266339 0.172507 0.0
-0.340966 0.206231 0.0
-0.413929 0.222657 0.0
-0.482583 0.220663 0.0
-0.539302 0.195247 0.0
-0.561839 0.138824 0.0
-0.545737 0.109255 0.0
-0.536115 0.141496 0.0
-0.551509 0.155495 0.0
-0.566951 0.150316 0.0
-0.574763 0.149371 0.0
-0.582960 0.160601 0.0
-0.596958 0.177197 0.0
-0.616798 0.197765 0.0
-0.642619 0.221970 0.0
-0.674745 0.248398 0.0
-0.713105 0.275339 0.0
-0.757293 0.301063 0.0
-0.806664 0.323910 0.0
-0.860367 0.342387 0.0
-0.917378 0.355250 0.0
-0.976519 0.361565 0.0
-1.036488 0.360750 0.0
-1.095901 0.352585 0.0
-1.153337 0.337225 0.0
-1.207409 0.315179 0.0
-1.256845 0.287288 0.0
-1.300576 0.254661 0.0
-1.337811 0.218580 0.0
-1.368079 0.180376 0.0
-1.391226 0.141283 0.0
-1.407350 0.102327 0.0
-1.416707 0.064262 0.0
-1.419610 0.027592 0.0
-1.416322 -0.007333 0.0
-1.407027 -0.040235 0.0
-1.391882 -0.071080 0.0
-1.371102 -0.099669 0.0
-1.345016 -0.125867 0.0
-1.314031 -0.149599 0.0
-1.278599 -0.170851 0.0
-1.239191 -0.189656 0.0
-1.196281 -0.206093 0.0
-1.150335 -0.220272 0.0
-1.101807 -0.232327 0.0
-1.051129 -0.242418 0.0
-0.998712 -0.250723 0.0
-0.944932 -0.257441 0.0
-0.890128 -0.262787 0.0
-0.834591 -0.266986 0.0
-0.778561 -0.270261 0.0
-0.722222 -0.272827 0.0
-0.665704 -0.274881 0.0
-0.609083 -0.276596 0.0
-0.552392 -0.278109 0.0
-0.495638 -0.279517 0.0
-0.438826 -0.280883 0.0
-0.381948 -0.282243 0.0
-0.325005 -0.283559 0.0
-0.268012 -0.284781 0.0
-0.211005 -0.285786 0.0
-0.154209 -0.286375 0.0
-0.097663 -0.286849 0.0
-0.041287 -0.286468 0.0
0.014089 -0.285165 0.0
0.067723 -0.282899 0.0
0.120164 -0.279256 0.0
0.171942 -0.274864 0.0
0.223014 -0.269970 0.0
0.273309 -0.264714 0.0
0.322811 -0.259181 0.0
0.371567 -0.253416 0.0
0.419662 -0.247424 0.0
0.467199 -0.241175 0.0
0.514255 -0.234599 0.0
0.560846 -0.227600 0.0
0.606894 -0.220068 0.0
0.652205 -0.211905 0.0
0.696466 -0.203060 0.0
0.739276 -0.193556 0.0
0.780199 -0.183507 0.0
0.818841 -0.173115 0.0
0.854928 -0.162638 0.0
0.888377 -0.152344 0.0
0.919325 -0.142454 0.0
0.948131 -0.133085 0.0
0.975340 -0.124214 0.0
1.001630 -0.115660 0.0
1.027743 -0.107111 0.0
1.054407 -0.098158 0.0
1.082259 -0.088343 0.0
1.111771 -0.077222 0.0
1.143184 -0.064426 0.0
1.176443 -0.049696 0.0
1.211158 -0.032948 0.0
1.246450 -0.014428 0.0
1.280607 0.005204 0.0
1.311464 0.025047 0.0
1.337417 0.044051 0.0
1.357534 0.061544 0.0
1.371216 0.077001 0.0
1.378148 0.090055 0.0
1.378287 0.100511 0.0
1.371846 0.108362 0.0
1.359287 0.113774 0.0
1.341295 0.117047 0.0
1.318750 0.118574 0.0
1.292665 0.118770 0.0
1.264112 0.118024 0.0
1.234134 0.116648 0.0
1.203662 0.114846 0.0
1.173443 0.112711 0.0
1.144017 0.110237 0.0
1.115723 0.107356 0.0
1.088744 0.103973 0.0
1.063163 0.100001 0.0
1.039026 0.095383 0.0
1.016381 0.090090 0.0
0.995300 0.084122 0.0
0.975885 0.077497 0.0
0.958258 0.070248 0.0
0.942545 0.062417 0.0
0.928867 0.054056 0.0
0.917320 0.045224 0.0
0.907965 0.035980 0.0
0.900807 0.026380 0.0
0.895757 0.016498 0.0
0.892611 0.006489 0.0
0.891114 -0.003301 0.0
0.891092 -0.012251 0.0
0.892404 -0.020018 0.0
0.894861 -0.026433 0.0
0.898250 -0.031433 0.0
0.902345 -0.035031 0.0
0.906916 -0.037297 0.0
0.911734 -0.038337 0.0
0.916574 -0.038287 0.0
0.921220 -0.037297 0.0
0.925474 -0.035523 0.0
0.929157 -0.033120 0.0
0.932126 -0.030229 0.0
0.934285 -0.026972 0.0
0.935611 -0.023422 0.0
0.936209 -0.019573 0.0
0.936429 -0.015269 0.0
0.937376 -0.009820 0.0
1.000113 0.001295 0.0
1.000533 0.003816 0.0
1.001287 0.006147 0.0
1.002255 0.008241 0.0
1.003333 0.010098 0.0
1.004442 0.011740 0.0
1.005531 0.013198 0.0
1.006571 0.014502 0.0
1.007543 0.015681 0.0
1.008441 0.016758 0.0
1.009260 0.017756 0.0
1.010000 0.018693 0.0
1.010664 0.019585 0.0
1.011252 0.020450 0.0
1.011766 0.021306 0.0
1.012207 0.022170 0.0
1.012574 0.023060 0.0
1.012864 0.023996 0.0
1.013077 0.024995 0.0
1.013207 0.026077 0.0
1.013251 0.027260 0.0
1.013206 0.028565 0.0
1.013069 0.030012 0.0
1.012840 0.031627 0.0
1.012522 0.033441 0.0
1.012127 0.035492 0.0
1.011673 0.037827 0.0
1.011196 0.040512 0.0
1.010751 0.043627 0.0
1.010427 0.047282 0.0
1.010361 0.051625 0.0
1.010763 0.056860 0.0
1.011949 0.063276 0.0
1.014393 0.071295 0.0
1.018798 0.081554 0.0
1.026187 0.095055 0.0
1.038027 0.113436 0.0
1.056340 0.139490 0.0
1.083729 0.178198 0.0
1.123000 0.238880 0.0
1.175409 0.339898 0.0
1.233437 0.520139 0.0
1.263161 0.856919 0.0
0.632158 1.768855 0.0
-1.817274 -0.692820 0.0
-3.603577 0.000000 0.0
-3.562210 0.000000 0.0
-3.541563 0.000000 0.0
-3.512611 0.000000 0.0
-3.454963 0.000000 0.0
-1.708007 -0.011250 0.0
-0.056604 0.069381 0.0
-0.163069 0.140663 0.0
-0.256299 0.202364 0.0
-0.337285 0.247668 0.0
-0.408338 0.276751 0.0
-0.473048 0.289811 0.0
-0.536404 0.285519 0.0
-0.602416 0.253123 0.0
-0.608591 0.109660 0.0
-0.516793 0.030519 0.0
-0.467917 0.161734 0.0
-0.502342 0.185076 0.0
-0.517306 0.151141 0.0
-0.501856 0.140908 0.0
-0.489451 0.164855 0.0
-0.491230 0.188719 0.0
-0.500250 0.215104 0.0
-0.516028 0.246230 0.0
-0.539372 0.279608 0.0
-0.569933 0.313049 0.0
-0.607017 0.344625 0.0
-0.649814 0.372515 0.0
-0.697396 0.395068 0.0
-0.748713 0.410898 0.0
-0.802603 0.418947 0.0
-0.857795 0.418529 0.0
-0.912938 0.409361 0.0
-0.966639 0.391586 0.0
-1.017533 0.365784 0.0
-1.064372 0.332959 0.0
-1.106133 0.294481 0.0
-1.142092 0.251954 0.0
-1.171860 0.207040 0.0
-1.195339 0.161244 0.0
-1.212609 0.115759 0.0
-1.223817 0.071396 0.0
-1.229099 0.028643 0.0
-1.228545 -0.012227 0.0
-1.222092 -0.051088 0.0
-1.209719 -0.087746 0.0
-1.191648 -0.121854 0.0
-1.168238 -0.153178 0.0
-1.139922 -0.181589 0.0
-1.107166 -0.207049 0.0
-1.070439 -0.229593 0.0
-1.030199 -0.249307 0.0
-0.986887 -0.266315 0.0
-0.940931 -0.280768 0.0
-0.892744 -0.292842 0.0
-0.842727 -0.302735 0.0
-0.791261 -0.310675 0.0
-0.738701 -0.316917 0.0
-0.685358 -0.321735 0.0
-0.631497 -0.325404 0.0
-0.577328 -0.328192 0.0
-0.522999 -0.330363 0.0
-0.468583 -0.332150 0.0
-0.414080 -0.333750 0.0
-0.359438 -0.335272 0.0
-0.304619 -0.336759 0.0
-0.249587 -0.338277 0.0
-0.194298 -0.339757 0.0
-0.138842 -0.341033 0.0
-0.083151 -0.342233 0.0
-0.027244 -0.342631 0.0
0.027860 -0.342244 0.0
0.081397 -0.340985 0.0
0.133664 -0.338291 0.0
0.184768 -0.334512 0.0
0.234437 -0.329753 0.0
0.282451 -0.324160 0.0
0.328668 -0.317964 0.0
0.373041 -0.311388 0.0
0.415654 -0.304623 0.0
0.456729 -0.297804 0.0
0.496601 -0.291003 0.0
0.535679 -0.284211 0.0
0.574393 -0.277333 0.0
0.613125 -0.270190 0.0
0.652145 -0.262546 0.0
0.691547 -0.254139 0.0
0.731202 -0.244742 0.0
0.770744 -0.234226 0.0
0.809600 -0.222617 0.0
0.847073 -0.210120 0.0
0.882463 -0.197110 0.0
0.915204 -0.184063 0.0
0.944989 -0.171469 0.0
0.971838 -0.159725 0.0
0.996109 -0.149054 0.0
1.018450 -0.139452 0.0
1.039710 -0.130692 0.0
1.060823 -0.122353 0.0
1.082701 -0.113876 0.0
1.106134 -0.104635 0.0
1.131715 -0.094007 0.0
1.159784 -0.081444 0.0
1.190396 -0.066528 0.0
1.223291 -0.049035 0.0
1.257895 -0.028949 0.0
1.293030 -0.006791 0.0
1.326546 0.016420 0.0
1.356242 0.039362 0.0
1.380723 0.061021 0.0
1.399109 0.080717 0.0
1.410863 0.097956 0.0
1.415777 0.112443 0.0
1.413961 0.124069 0.0
1.405809 0.132894 0.0
1.391974 0.139107 0.0
1.373308 0.142988 0.0
1.350806 0.144861 0.0
1.325532 0.145063 0.0
1.298537 0.143900 0.0
1.270784 0.141629 0.0
1.243094 0.138436 0.0
1.216107 0.134438 0.0
1.190282 0.129695 0.0
1.165921 0.124221 0.0
1.143207 0.118013 0.0
1.122253 0.111059 0.0
1.103133 0.103354 0.0
1.085907 0.094906 0.0
1.070633 0.085741 0.0
1.057365 0.075904 0.0
1.046149 0.065463 0.0
1.037007 0.054506 0.0
1.029927 0.043135 0.0
1.024833 0.031478 0.0
1.021569 0.019714 0.0
1.019882 0.008105 0.0
1.019455 -0.002994 0.0
1.020031 -0.013112 0.0
1.021481 -0.021918 0.0
1.023717 -0.029226 0.0
1.026649 -0.034961 0.0
1.030172 -0.039121 0.0
1.034160 -0.041766 0.0
1.038472 -0.042998 0.0
1.042955 -0.042948 0.0
1.047440 -0.041768 0.0
1.051752 -0.039619 0.0
1.055713 -0.036669 0.0
1.059151 -0.033087 0.0
1.061921 -0.029042 0.0
1.063938 -0.024695 0.0
1.065244 -0.020204 0.0
1.066118 -0.015732 0.0
1.067436 -0.011622 0.0
1.000080 0.001103 0.0
1.000383 0.003284 0.0
1.000943 0.005366 0.0
1.001688 0.007308 0.0
1.002548 0.009094 0.0
1.003462 0.010722 0.0