# vtk DataFile Version 3.0
Scalar Field
ASCII
DATASET RECTILINEAR_GRID
DIMENSIONS 200 50 1
X_COORDINATES 200 double
0.050000 0.150000 0.250000 0.350000 0.450000 0.550000 0.650000 0.750000 0.850000 0.950000 1.050000 1.150000 1.250000 1.350000 1.450000 1.550000 1.650000 1.750000 1.850000 1.950000 2.050000 2.150000 2.250000 2.350000 2.450000 2.550000 2.650000 2.750000 2.850000 2.950000 3.050000 3.150000 3.250000 3.350000 3.450000 3.550000 3.650000 3.750000 3.850000 3.950000 4.050000 4.150000 4.250000 4.350000 4.450000 4.550000 4.650000 4.750000 4.850000 4.950000 5.050000 5.150000 5.250000 5.350000 5.450000 5.550000 5.650000 5.750000 5.850000 5.950000 6.050000 6.150000 6.250000 6.350000 6.450000 6.550000 6.650000 6.750000 6.850000 6.950000 7.050000 7.150000 7.250000 7.350000 7.450000 7.550000 7.650000 7.750000 7.850000 7.950000 8.050000 8.150000 8.250000 8.350000 8.450000 8.550000 8.650000 8.750000 8.850000 8.950000 9.050000 9.150000 9.250000 9.350000 9.450000 9.550000 9.650000 9.750000 9.850000 9.950000 10.050000 10.150000 10.250000 10.350000 10.450000 10.550000 10.650000 10.750000 10.850000 10.950000 11.050000 11.150000 11.250000 11.350000 11.450000 11.550000 11.650000 11.750000 11.850000 11.950000 12.050000 12.150000 12.250000 12.350000 12.450000 12.550000 12.650000 12.750000 12.850000 12.950000 13.050000 13.150000 13.250000 13.350000 13.450000 13.550000 13.650000 13.750000 13.850000 13.950000 14.050000 14.150000 14.250000 14.350000 14.450000 14.550000 14.650000 14.750000 14.850000 14.950000 15.050000 15.150000 15.250000 15.350000 15.450000 15.550000 15.650000 15.750000 15.850000 15.950000 16.050000 16.150000 16.250000 16.350000 16.450000 16.550000 16.650000 16.750000 16.850000 16.950000 17.050000 17.150000 17.250000 17.350000 17.450000 17.550000 17.650000 17.750000 17.850000 17.950000 18.050000 18.150000 18.250000 18.350000 18.450000 18.550000 18.650000 18.750000 18.850000 18.950000 19.050000 19.150000 19.250000 19.350000 19.450000 19.550000 19.650000 19.750000 19.850000 19.950000 
Y_COORDINATES 50 double
0.050000 0.150000 0.250000 0.350000 0.450000 0.550000 0.650000 0.750000 0.850000 0.950000 1.050000 1.150000 1.250000 1.350000 1.450000 1.550000 1.650000 1.750000 1.850000 1.950000 2.050000 2.150000 2.250000 2.350000 2.450000 2.550000 2.650000 2.750000 2.850000 2.950000 3.050000 3.150000 3.250000 3.350000 3.450000 3.550000 3.650000 3.750000 3.850000 3.950000 4.050000 4.150000 4.250000 4.350000 4.450000 4.550000 4.650000 4.750000 4.850000 4.950000 
Z_COORDINATES 1 double
0.0
POINT_DATA 10000
SCALARS Skalarfeld double 1
LOOKUP_TABLE default
10.243795
10.231384
10.224351
10.219724
10.216361
10.213759
10.211666
10.209943
10.208506
10.207302
10.206295
10.205464
10.204792
10.204270
10.203891
10.203654
10.203560
10.203612
10.203816
10.204183
10.204723
10.205451
10.206387
10.207551
10.208970
10.210676
10.212708
10.215111
10.217944
10.221276
10.225195
10.229808
10.235244
10.241655
10.249213
10.258085
10.268392
10.280118
10.292950
10.306031
10.317696
10.324030
10.325569
10.343468
10.343467
0.000000
0.000000
0.000000
0.000000
0.000000
-2.462887
-2.462886
-2.467406
-2.474398
-2.480518
-2.487066
-2.496271
-2.504015
-2.511214
-2.526062
-2.551768
-2.590094
-2.642382
-2.707672
-2.782557
-2.861469
-2.937342
-3.002628
-3.050478
-3.075883
-3.076483
-3.052834
-3.008037
-2.946786
-2.875964
-2.801641
-2.729040
-2.662234
-2.603971
-2.555747
-2.517993
-2.490308
-2.471690
-2.460746
-2.455875
-2.455416
-2.457777
-2.461524
-2.465446
-2.468587
-2.470249
-2.469972
-2.467499
-2.462723
-2.455643
-2.446320
-2.434835
-2.421276
-2.405718
-2.388224
-2.368850
-2.347658
-2.324724
-2.300147
-2.274064
-2.246653
-2.218134
-2.188774
-2.158874
-2.128766
-2.098797
-2.069317
-2.040674
-2.013198
-1.987194
-1.962938
-1.940663
-1.920563
-1.902782
-1.887422
-1.874541
-1.864152
-1.856233
-1.850722
-1.847528
-1.846529
-1.847581
-1.850523
-1.855185
-1.861390
-1.868961
-1.877727
-1.887520
-1.898176
-1.909540
-1.921484
-1.933932
-1.946806
-1.959994
-1.973347
-1.986651
-1.999857
-2.013115
-2.026393
-2.039674
-2.052957
-2.066252
-2.079580
-2.092967
-2.106449
-2.120060
-2.133835
-2.147806
-2.161995
-2.176418
-2.191082
-2.205980
-2.221099
-2.236414
-2.251892
-2.267492
-2.283166
-2.298857
-2.314504
-2.330037
-2.345382
-2.360463
-2.375199
-2.389512
-2.403322
-2.416552
-2.429130
-2.440986
-2.452056
-2.462281
-2.471609
-2.479997
-2.487410
-2.493822
-2.499219
-2.503596
-2.506961
-2.509331
-2.510734
-2.511207
-2.510794
-2.509548
-2.507525
-2.504788
-2.501401
-2.497432
-2.492951
-2.488029
-2.482743
-2.477173
-2.471406
-2.465531
-2.459651
-2.453885
-2.447975
10.229695
10.226037
10.221908
10.218388
10.215512
10.213155
10.211200
10.209561
10.208178
10.207011
10.206031
10.205218
10.204558
10.204043
10.203668
10.203431
10.203334
10.203379
10.203574
10.203926
10.204447
10.205152
10.206056
10.207182
10.208552
10.210197
10.212151
10.214455
10.217160
10.220327
10.224031
10.228362
10.233430
10.239364
10.246307
10.254406
10.263778
10.274447
10.286224
10.298514
10.309932
10.318484
10.330178
10.355683
10.355682
0.000000
0.000000
0.000000
0.000000
0.000000
-2.464390
-2.464390
-2.469113
-2.475832
-2.480646
-2.484346
-2.494497
-2.501802
-2.509598
-2.524264
-2.550131
-2.590023
-2.645322
-2.714961
-2.795154
-2.879707
-2.960795
-3.030091
-3.080088
-3.105377
-3.103591
-3.075717
-3.025723
-2.959191
-2.882474
-2.802781
-2.725902
-2.656048
-2.595925
-2.546896
-2.509214
-2.482281
-2.464896
-2.455479
-2.452259
-2.453433
-2.457299
-2.462348
-2.467327
-2.471266
-2.473481
-2.473543
-2.471239
-2.466511
-2.459403
-2.450013
-2.438455
-2.424829
-2.409218
-2.391682
-2.372268
-2.351024
-2.328013
-2.303324
-2.277084
-2.249463
-2.220682
-2.191007
-2.160747
-2.130243
-2.099853
-2.069940
-2.040861
-2.012957
-1.986547
-1.961916
-1.939308
-1.918927
-1.900924
-1.885404
-1.872424
-1.861996
-1.854090
-1.848639
-1.845542
-1.844668
-1.845864
-1.848963
-1.853788
-1.860157
-1.867888
-1.876806
-1.886741
-1.897527
-1.909003
-1.921008
-1.933475
-1.946340
-1.959484
-1.972796
-1.986178
-1.999529
-2.012805
-2.026074
-2.039339
-2.052603
-2.065881
-2.079195
-2.092575
-2.106057
-2.119678
-2.133473
-2.147473
-2.161702
-2.176176
-2.190899
-2.205864
-2.221056
-2.236450
-2.252011
-2.267697
-2.283460
-2.299241
-2.314979
-2.330602
-2.346038
-2.361206
-2.376027
-2.390419
-2.404303
-2.417602
-2.430241
-2.442149
-2.453263
-2.463523
-2.472876
-2.481280
-2.488699
-2.495108
-2.500493
-2.504850
-2.508187
-2.510521
-2.511881
-2.512304
-2.511834
-2.510524
-2.508431
-2.505617
-2.502148
-2.498091
-2.493518
-2.488502
-2.483118
-2.477447
-2.471572
-2.465579
-2.459553
-2.453575
-2.447798
10.222339
10.220991
10.218669
10.216228
10.213977
10.211991
10.210266
10.208776
10.207494
10.206394
10.205460
10.204677
10.204036
10.203529
10.203155
10.202910
10.202797
10.202819
10.202982
10.203292
10.203759
10.204396
10.205215
10.206233
10.207468
10.208942
10.210678
10.212702
10.215045
10.217739
10.220820
10.224324
10.228288
10.232746
10.237722
10.243226
10.249241
10.255730
10.262673
10.270258
10.279508
10.294486
10.326525
10.383677
10.383676
0.000000
0.000000
0.000000
0.000000
0.000000
-2.461938
-2.461937
-2.467582
-2.473671
-2.478785
-2.482802
-2.490570
-2.497821
-2.505312
-2.519617
-2.547465
-2.592495
-2.655874
-2.736030
-2.828217
-2.924867
-3.016582
-3.093500
-3.146848
-3.170528
-3.162325
-3.124265
-3.061802
-2.981294
-2.892242
-2.802339
-2.717638
-2.642381
-2.579114
-2.528907
-2.491656
-2.466382
-2.451510
-2.445111
-2.445102
-2.449424
-2.456173
-2.463701
-2.470676
-2.476111
-2.479346
-2.480019
-2.478001
-2.473328
-2.466134
-2.456592
-2.444868
-2.431098
-2.415372
-2.397744
-2.378241
-2.356887
-2.333717
-2.308799
-2.282241
-2.254201
-2.224893
-2.194589
-2.163613
-2.132326
-2.101108
-2.070345
-2.040416
-2.011683
-1.984488
-1.959137
-1.935899
-1.914994
-1.896586
-1.880784
-1.867645
-1.857172
-1.849327
-1.844025
-1.841148
-1.840548
-1.842052
-1.845481
-1.850649
-1.857357
-1.865419
-1.874642
-1.884855
-1.895885
-1.907578
-1.919818
-1.932456
-1.945386
-1.958543
-1.971840
-1.985199
-1.998551
-2.011863
-2.025151
-2.038431
-2.051717
-2.065031
-2.078400
-2.091857
-2.105438
-2.119179
-2.133114
-2.147272
-2.161675
-2.176334
-2.191252
-2.206421
-2.221823
-2.237430
-2.253208
-2.269111
-2.285089
-2.301083
-2.317029
-2.332855
-2.348485
-2.363839
-2.378836
-2.393391
-2.407424
-2.420854
-2.433604
-2.445602
-2.456782
-2.467084
-2.476456
-2.484856
-2.492249
-2.498614
-2.503939
-2.508220
-2.511468
-2.513701
-2.514945
-2.515237
-2.514620
-2.513144
-2.510866
-2.507847
-2.504155
-2.499861
-2.495040
-2.489771
-2.484135
-2.478212
-2.472082
-2.465820
-2.459488
-2.453116
-2.447441
10.217556
10.216926
10.215552
10.213880
10.212175
10.210563
10.209093
10.207778
10.206617
10.205602
10.204725
10.203980
10.203360
10.202862
10.202485
10.202226
10.202089
10.202076
10.202191
10.202439
10.202829
10.203369
10.204067
10.204934
10.205979
10.207214
10.208647
10.210284
10.212124
10.214160
10.216369
10.218705
10.221091
10.223397
10.225425
10.226879
10.227349
10.226322
10.223324
10.218444
10.213941
10.218235
10.251459
10.335263
10.335262
0.000000
0.000000
0.000000
0.000000
0.000000
-2.451266
-2.451265
-2.458418
-2.466308
-2.473807
-2.481821
-2.490469
-2.495690
-2.497343
-2.507353
-2.537646
-2.590930
-2.667191
-2.763981
-2.874913
-2.990176
-3.097958
-3.186105
-3.243918
-3.264238
-3.245233
-3.190942
-3.107714
-3.007479
-2.901144
-2.797281
-2.702190
-2.620019
-2.552989
-2.501711
-2.465557
-2.443012
-2.431989
-2.430082
-2.434786
-2.443687
-2.454604
-2.465697
-2.475530
-2.483087
-2.487754
-2.489260
-2.487605
-2.482964
-2.475601
-2.465798
-2.453802
-2.439794
-2.423879
-2.406099
-2.386454
-2.364927
-2.341517
-2.316259
-2.289232
-2.260574
-2.230493
-2.199267
-2.167245
-2.134819
-2.102403
-2.070414
-2.039261
-2.009338
-1.981016
-1.954635
-1.930495
-1.908842
-1.889860
-1.873665
-1.860310
-1.849789
-1.842050
-1.836990
-1.834462
-1.834298
-1.836281
-1.840224
-1.845935
-1.853169
-1.861737
-1.871449
-1.882103
-1.893522
-1.905549
-1.918047
-1.930889
-1.943971
-1.957217
-1.970559
-1.983942
-1.997325
-2.010687
-2.024035
-2.037385
-2.050760
-2.064186
-2.077694
-2.091319
-2.105096
-2.119059
-2.133236
-2.147653
-2.162325
-2.177262
-2.192463
-2.207917
-2.223605
-2.239498
-2.255559
-2.271743
-2.287998
-2.304262
-2.320469
-2.336547
-2.352418
-2.367999
-2.383206
-2.397954
-2.412158
-2.425734
-2.438603
-2.450689
-2.461925
-2.472251
-2.481615
-2.489976
-2.497302
-2.503575
-2.508785
-2.512932
-2.516028
-2.518090
-2.519148
-2.519234
-2.518392
-2.516669
-2.514123
-2.510814
-2.506813
-2.502194
-2.497038
-2.491429
-2.485453
-2.479195
-2.472733
-2.466138
-2.459466
-2.452734
-2.446924
10.213961
10.213606
10.212735
10.211568
10.210284
10.208995
10.207766
10.206629
10.205596
10.204673
10.203861
10.203159
10.202564
10.202076
10.201695
10.201421
10.201255
10.201201
10.201260
10.201438
10.201739
10.202168
10.202729
10.203426
10.204262
10.205235
10.206338
10.207557
10.208861
10.210201
10.211492
10.212603
10.213326
10.213342
10.212165
10.209067
10.202959
10.192250
10.174686
10.147339
10.107315
10.055131
10.005663
10.009915
10.009914
0.000000
0.000000
0.000000
0.000000
0.000000
-2.436988
-2.436987
-2.445472
-2.456587
-2.469491
-2.484543
-2.498446
-2.499730
-2.482958
-2.479436
-2.513427
-2.578370
-2.671889
-2.791650
-2.928923
-3.070508
-3.201173
-3.305546
-3.369905
-3.385207
-3.350138
-3.271522
-3.160054
-3.033907
-2.905783
-2.784937
-2.677642
-2.587712
-2.516847
-2.465014
-2.430908
-2.412351
-2.406629
-2.410756
-2.421708
-2.436632
-2.452998
-2.468724
-2.482241
-2.492505
-2.498959
-2.501467
-2.500198
-2.495511
-2.487848
-2.477636
-2.465229
-2.450868
-2.434679
-2.416688
-2.396851
-2.375099
-2.351379
-2.325677
-2.298038
-2.268571
-2.237477
-2.205050
-2.171672
-2.137777
-2.103822
-2.070265
-2.037554
-2.006119
-1.976367
-1.948677
-1.923386
-1.900781
-1.881071
-1.864382
-1.850762
-1.840192
-1.832617
-1.827900
-1.825849
-1.826304
-1.828925
-1.833511
-1.839859
-1.847802
-1.857096
-1.867500
-1.878795
-1.890786
-1.903303
-1.916206
-1.929373
-1.942708
-1.956138
-1.969611
-1.983092
-1.996560
-2.010010
-2.023453
-2.036910
-2.050408
-2.063980
-2.077660
-2.091482
-2.105481
-2.119686
-2.134122
-2.148810
-2.163762
-2.178982
-2.194468
-2.210207
-2.226180
-2.242356
-2.258698
-2.275160
-2.291689
-2.308223
-2.324693
-2.341025
-2.357138
-2.372948
-2.388368
-2.403308
-2.417680
-2.431398
-2.444378
-2.456544
-2.467825
-2.478160
-2.487499
-2.495801
-2.503037
-2.509189
-2.514251
-2.518225
-2.521125
-2.522971
-2.523790
-2.523619
-2.522499
-2.520480
-2.517617
-2.513974
-2.509623
-2.504642
-2.499116
-2.493134
-2.486787
-2.480164
-2.473348
-2.466411
-2.459395
-2.452338
-2.446244
10.211030
10.210804
10.210214
10.209375
10.208398
10.207370
10.206350
10.205375
10.204466
10.203636
10.202890
10.202232
10.201663
10.201186
10.200801
10.200510
10.200314
10.200215
10.200215
10.200318
10.200524
10.200837
10.201256
10.201780
10.202404
10.203118
10.203902
10.204724
10.205530
10.206237
10.206712
10.206751
10.206040
10.204093
10.200158
10.193060
10.180936
10.160762
10.127438
10.071884
9.976693
9.805350
9.475277
9.089938
3.718832
-3.390962
-3.223764
-3.200008
-3.172676
-3.078527
-2.648669
-2.423908
-2.432781
-2.447992
-2.467876
-2.494742
-2.524615
-2.524011
-2.457472
-2.422618
-2.470101
-2.550937
-2.664387
-2.814198
-2.987219
-3.164834
-3.327165
-3.454660
-3.528654
-3.536521
-3.478091
-3.362645
-3.214297
-3.056053
-2.902450
-2.762653
-2.642299
-2.544519
-2.470292
-2.418771
-2.387880
-2.374696
-2.375802
-2.387555
-2.406325
-2.428738
-2.451846
-2.473264
-2.491268
-2.504783
-2.513333
-2.516951
-2.516029
-2.511162
-2.503013
-2.492199
-2.479209
-2.464365
-2.447820
-2.429575
-2.409532
-2.387545
-2.363485
-2.337273
-2.308903
-2.278451
-2.246120
-2.212228
-2.177197
-2.141515
-2.105693
-2.070240
-2.035653
-2.002403
-1.970937
-1.941674
-1.914997
-1.891241
-1.870653
-1.853372
-1.839448
-1.828816
-1.821465
-1.817203
-1.815665
-1.816643
-1.820019
-1.825492
-1.832800
-1.841723
-1.851997
-1.863337
-1.875492
-1.888249
-1.901432
-1.914900
-1.928531
-1.942233
-1.955945
-1.969631
-1.983275
-1.996874
-2.010438
-2.023986
-2.037546
-2.051154
-2.064847
-2.078662
-2.092637
-2.106805
-2.121193
-2.135825
-2.150718
-2.165881
-2.181319
-2.197026
-2.212991
-2.229194
-2.245604
-2.262185
-2.278890
-2.295663
-2.312442
-2.329157
-2.345729
-2.362076
-2.378110
-2.393740
-2.408872
-2.423415
-2.437277
-2.450372
-2.462620
-2.473950
-2.484298
-2.493614
-2.501856
-2.508996
-2.515020
-2.519920
-2.523703
-2.526383
-2.527984
-2.528536
-2.528076
-2.526648
-2.524303
-2.521098
-2.517099
-2.512380
-2.507021
-2.501112
-2.494746
-2.488018
-2.481023
-2.473847
-2.466565
-2.459197
-2.451836
-2.445393
10.208522
10.208365
10.207944
10.207320
10.206564
10.205738
10.204891
10.204057
10.203260
10.202515
10.201831
10.201216
10.200674
10.200206
10.199817
10.199507
10.199278
10.199133
10.199072
10.199096
10.199207
10.199403
10.199681
10.200037
10.200460
10.200933
10.201429
10.201904
10.202292
10.202489
10.202338
10.201597
10.199893
10.196648
10.190952
10.181348
10.165434
10.139098
10.094867
10.018007
9.875793
9.582596
8.867122
6.384631
-1.652272
-3.390961
-3.223763
-3.200007
-3.172676
-3.078527
-2.873429
-2.627899
-2.559384
-2.539493
-2.533269
-2.539594
-2.553359
-2.527405
-2.409085
-2.329011
-2.416831
-2.510667
-2.639251
-2.828814
-3.050059
-3.275615
-3.480032
-3.639548
-3.726821
-3.722109
-3.626458
-3.458268
-3.263082
-3.067671
-2.886708
-2.727710
-2.594750
-2.489875
-2.413250
-2.363161
-2.336743
-2.330345
-2.339835
-2.360850
-2.389067
-2.420510
-2.451716
-2.479913
-2.503188
-2.520439
-2.531306
-2.536051
-2.535343
-2.530072
-2.521179
-2.509511
-2.495726
-2.480250
-2.463270
-2.444762
-2.424551
-2.402392
-2.378041
-2.351328
-2.322178
-2.290603
-2.256848
-2.221253
-2.184287
-2.146503
-2.108484
-2.070809
-2.034032
-1.998673
-1.965220
-1.934133
-1.905844
-1.880739
-1.859120
-1.841157
-1.826915
-1.816132
-1.808679
-1.804645
-1.803791
-1.805722
-1.810153
-1.816748
-1.825236
-1.835412
-1.846953
-1.859482
-1.872722
-1.886444
-1.900464
-1.914655
-1.928882
-1.943056
-1.957129
-1.971086
-1.984930
-1.998676
-2.012348
-2.025974
-2.039593
-2.053246
-2.066980
-2.080839
-2.094864
-2.109089
-2.123545
-2.138254
-2.153234
-2.168495
-2.184042
-2.199871
-2.215973
-2.232327
-2.248903
-2.265665
-2.282565
-2.299546
-2.316544
-2.333485
-2.350289
-2.366867
-2.383128
-2.398976
-2.414311
-2.429037
-2.443059
-2.456286
-2.468635
-2.480030
-2.490407
-2.499713
-2.507906
-2.514959
-2.520855
-2.525591
-2.529174
-2.531622
-2.532960
-2.533224
-2.532454
-2.530697
-2.528008
-2.524445
-2.520078
-2.514982
-2.509241
-2.502946
-2.496194
-2.489084
-2.481717
-2.474186
-2.466536
-2.458841
-2.451180
-2.444360
10.206306
10.206191
10.205876
10.205397
10.204800
10.204127
10.203419
10.202703
10.202002
10.201333
10.200706
10.200130
10.199610
10.199151
10.198755
10.198424
10.198162
10.197969
10.197845
10.197792
10.197807
10.197889
10.198032
10.198230
10.198468
10.198727
10.198977
10.199171
10.199241
10.199082
10.198538
10.197374
10.195225
10.191529
10.185394
10.175379
10.159075
10.132287
10.087317
10.009028
9.864665
9.572237
8.904051
7.109346
0.500988
-2.424382
-3.055617
-3.205368
-3.256084
-3.273249
-3.260841
-3.239319
-3.177292
-3.101021
-3.026064
-2.944335
-2.842699
-2.698602
-2.520843
-2.413719
-2.411079
-2.459043
-2.602456
-2.837739
-3.120986
-3.407037
-3.662979
-3.863513
-3.964493
-3.936119
-3.776108
-3.540844
-3.293011
-3.059576
-2.852844
-2.677053
-2.533779
-2.423457
-2.345686
-2.298207
-2.277432
-2.279180
-2.298622
-2.330638
-2.370109
-2.412374
-2.453307
-2.489569
-2.518996
-2.540453
-2.553759
-2.559485
-2.558666
-2.552574
-2.542497
-2.529572
-2.514673
-2.498352
-2.480838
-2.462073
-2.441789
-2.419601
-2.395113
-2.368006
-2.338101
-2.305390
-2.270080
-2.232556
-2.193363
-2.153143
-2.112579
-2.072341
-2.033056
-1.995294
-1.959582
-1.926422
-1.896301
-1.869674
-1.846917
-1.828246
-1.813143
-1.801891
-1.794692
-1.791271
-1.791258
-1.794244
-1.799856
-1.807779
-1.817655
-1.829352
-1.842468
-1.856422
-1.870956
-1.885816
-1.900812
-1.915877
-1.930811
-1.945532
-1.960014
-1.974265
-1.988309
-2.002185
-2.015925
-2.029566
-2.043157
-2.056751
-2.070406
-2.084176
-2.098109
-2.112246
-2.126619
-2.141258
-2.156180
-2.171403
-2.186933
-2.202772
-2.218910
-2.235329
-2.252000
-2.268885
-2.285936
-2.303093
-2.320289
-2.337446
-2.354480
-2.371296
-2.387797
-2.403880
-2.419440
-2.434374
-2.448580
-2.461963
-2.474436
-2.485919
-2.496346
-2.505659
-2.513818
-2.520792
-2.526566
-2.531137
-2.534515
-2.536721
-2.537785
-2.537745
-2.536648
-2.534545
-2.531495
-2.527562
-2.522816
-2.517338
-2.511214
-2.504539
-2.497408
-2.489925
-2.482191
-2.474308
-2.466301
-2.458291
-2.450340
-2.443138
10.204305
10.204217
10.203972
10.203593
10.203110
10.202554
10.201954
10.201334
10.200714
10.200109
10.199531
10.198988
10.198487
10.198032
10.197628
10.197276
10.196979
10.196737
10.196551
10.196420
10.196343
10.196315
10.196332
10.196384
10.196457
10.196532
10.196580
10.196561
10.196413
10.196051
10.195346
10.194110
10.192057
10.188753
10.183514
10.175239
10.162090
10.140882
10.105785
10.043080
9.921113
9.655999
8.973454
6.507651
-1.569846
-3.385799
-3.263661
-3.306382
-3.403296
-3.575918
-3.819808
-4.158570
-4.132529
-4.028181
-3.930884
-3.788321
-3.569424
-3.280421
-2.973413
-2.733357
-2.603538
-2.587716
-2.699263
-2.924156
-3.225562
-3.551087
-3.852832
-4.084187
-4.185709
-4.117081
-3.879622
-3.582096
-3.286556
-3.021948
-2.796586
-2.610064
-2.460708
-2.347960
-2.270943
-2.227041
-2.212507
-2.223437
-2.253961
-2.298205
-2.350427
-2.405254
-2.457640
-2.503373
-2.540006
-2.566230
-2.582044
-2.588435
-2.586950
-2.579387
-2.567495
-2.552762
-2.536299
-2.518794
-2.500519
-2.481384
-2.461024
-2.438906
-2.414456
-2.387173
-2.356724
-2.323002
-2.286164
-2.246617
-2.204978
-2.162009
-2.118531
-2.075346
-2.033187
-1.992690
-1.954419
-1.918906
-1.886695
-1.858329
-1.834329
-1.814258
-1.798386
-1.787084
-1.780224
-1.777495
-1.778477
-1.782717
-1.789798
-1.799354
-1.811033
-1.824478
-1.839191
-1.854695
-1.870638
-1.886758
-1.902780
-1.918893
-1.934601
-1.949900
-1.964799
-1.979327
-1.993531
-2.007489
-2.021225
-2.034784
-2.048229
-2.061629
-2.075056
-2.088579
-2.102256
-2.116136
-2.130262
-2.144669
-2.159383
-2.174424
-2.189808
-2.205540
-2.221616
-2.238017
-2.254716
-2.271672
-2.288835
-2.306144
-2.323525
-2.340897
-2.358167
-2.375237
-2.391999
-2.408343
-2.424156
-2.439326
-2.453746
-2.467314
-2.479937
-2.491531
-2.502027
-2.511364
-2.519498
-2.526400
-2.532054
-2.536458
-2.539625
-2.541579
-2.542355
-2.541998
-2.540559
-2.538097
-2.534674
-2.530358
-2.525225
-2.519359
-2.512853
-2.505802
-2.498307
-2.490468
-2.482385
-2.474158
-2.465827
-2.457517
-2.449293
-2.441718
10.202469
10.202399
10.202202
10.201894
10.201494
10.201025
10.200509
10.199965
10.199410
10.198859
10.198320
10.197805
10.197318
10.196865
10.196449
10.196074
10.195741
10.195450
10.195203
10.194997
10.194830
10.194699
10.194597
10.194516
10.194444
10.194363
10.194251
10.194076
10.193797
10.193356
10.192675
10.191644
10.190109
10.187847
10.184523
10.179608
10.172238
10.160907
10.142034
10.108746
10.045394
9.913966
9.620283
9.230356
3.830254
-3.385800
-3.263661
-3.306382
-3.403296
-3.575919
-4.415013
-5.010216
-4.699378
-4.669301
-4.744541
-4.722306
-4.522991
-4.158213
-3.716210
-3.308872
-3.018175
-2.884761
-2.918457
-3.095881
-3.371714
-3.689685
-3.989818
-4.206656
-4.268123
-4.137537
-3.855379
-3.534859
-3.229182
-2.960829
-2.733580
-2.545147
-2.393980
-2.280169
-2.203473
-2.162096
-2.152104
-2.171141
-2.210874
-2.266391
-2.331634
-2.400112
-2.465414
-2.521735
-2.566675
-2.598300
-2.616790
-2.623641
-2.620989
-2.611300
-2.596904
-2.579742
-2.561218
-2.542163
-2.522871
-2.503186
-2.482620
-2.460490
-2.436057
-2.408651
-2.377780
-2.343205
-2.304984
-2.263488
-2.219366
-2.173480
-2.126806
-2.080327
-2.034934
-1.991359
-1.950199
-1.912022
-1.877429
-1.847042
-1.821403
-1.799878
-1.783461
-1.772135
-1.765699
-1.763787
-1.765935
-1.771645
-1.780441
-1.791884
-1.805535
-1.820911
-1.837476
-1.854734
-1.872284
-1.889821
-1.907125
-1.924098
-1.940524
-1.956358
-1.971621
-1.986365
-2.000625
-2.014602
-2.028236
-2.041585
-2.054739
-2.067789
-2.080820
-2.093920
-2.107163
-2.120610
-2.134316
-2.148331
-2.162681
-2.177399
-2.192509
-2.208025
-2.223945
-2.240251
-2.256917
-2.273900
-2.291147
-2.308590
-2.326152
-2.343743
-2.361266
-2.378611
-2.395662
-2.412297
-2.428395
-2.443834
-2.458499
-2.472281
-2.485079
-2.496807
-2.507389
-2.516763
-2.524883
-2.531716
-2.537249
-2.541480
-2.544426
-2.546114
-2.546588
-2.545896
-2.544100
-2.541263
-2.537455
-2.532747
-2.527219
-2.520961
-2.514070
-2.506651
-2.498805
-2.490633
-2.482231
-2.473680
-2.465063
-2.456486
-2.448018
-2.440089
10.200765
10.200707
10.200544
10.200287
10.199947
10.199544
10.199092
10.198607
10.198104
10.197594
10.197088
10.196593
10.196115
10.195660
10.195231
10.194830
10.194461
10.194122
10.193814
10.193535
10.193283
10.193054
10.192842
10.192640
10.192438
10.192223
10.191981
10.191693
10.191338
10.190896
10.190345
10.189670
10.188869
10.187964
10.187019
10.186158
10.185580
10.185523
10.186180
10.187448
10.187986
10.184458
10.174467
10.177374
10.177374
0.000000
0.000000
0.000000
0.000000
0.000000
-5.012932
-5.012931
-4.960494
-5.062803
-5.236910
-5.442451
-5.389597
-5.041975
-4.514341
-3.962423
-3.512498
-3.236962
-3.155756
-3.245661
-3.455646
-3.721028
-3.970597
-4.129071
-4.131161
-3.957799
-3.690007
-3.400408
-3.128955
-2.888723
-2.679438
-2.499903
-2.351804
-2.238032
-2.160698
-2.121137
-2.108570
-2.123531
-2.167521
-2.233450
-2.312926
-2.396393
-2.474776
-2.543277
-2.597618
-2.635189
-2.656568
-2.663936
-2.659866
-2.647639
-2.630266
-2.610239
-2.589328
-2.568552
-2.548225
-2.528087
-2.507474
-2.485486
-2.461165
-2.433646
-2.402268
-2.366674
-2.326860
-2.283200
-2.236407
-2.187434
-2.137376
-2.087370
-2.038479
-1.991547
-1.947196
-1.906032
-1.868762
-1.836064
-1.808324
-1.785792
-1.768898
-1.757625
-1.751709
-1.750734
-1.754193
-1.761543
-1.772243
-1.785763
-1.801560
-1.819057
-1.837661
-1.856824
-1.876088
-1.895105
-1.913638
-1.931534
-1.948671
-1.965024
-1.980625
-1.995534
-2.009831
-2.023628
-2.036974
-2.049941
-2.062626
-2.075132
-2.087581
-2.100073
-2.112695
-2.125520
-2.138629
-2.152098
-2.165936
-2.180194
-2.194909
-2.210103
-2.225778
-2.241919
-2.258499
-2.275471
-2.292778
-2.310346
-2.328091
-2.345913
-2.363711
-2.381362
-2.398735
-2.415697
-2.432115
-2.447857
-2.462798
-2.476821
-2.489819
-2.501700
-2.512383
-2.521804
-2.529914
-2.536680
-2.542088
-2.546139
-2.548853
-2.550262
-2.550416
-2.549372
-2.547199
-2.543971
-2.539766
-2.534659
-2.528731
-2.522076
-2.514802
-2.507019
-2.498834
-2.490349
-2.481662
-2.472809
-2.463944
-2.455150
-2.446490
-2.438242
10.199170
10.199121
10.198982
10.198760
10.198466
10.198110
10.197707
10.197268
10.196804
10.196327
10.195844
10.195363
10.194890
10.194429
10.193984
10.193557
10.193150
10.192763
10.192395
10.192046
10.191713
10.191391
10.191077
10.190764
10.190444
10.190110
10.189755
10.189373
10.188964
10.188540
10.188134
10.187817
10.187725
10.188101
10.189367
10.192219
10.197764
10.207671
10.224854
10.253377
10.298106
10.364195
10.453287
10.555294
10.555293
0.000000
0.000000
0.000000
0.000000
0.000000
-5.100860
-5.100859
-5.143888
-5.310387
-5.623498
-6.031210
-6.093934
-5.771671
-5.180045
-4.509837
-3.920432
-3.507303
-3.301544
-3.282974
-3.398605
-3.579251
-3.750312
-3.841692
-3.806335
-3.639354
-3.421337
-3.198386
-2.991500
-2.800831
-2.622725
-2.459711
-2.319040
-2.207730
-2.129744
-2.084124
-2.072600
-2.092739
-2.142246
-2.215582
-2.304699
-2.399129
-2.488651
-2.566015
-2.627389
-2.672983
-2.697402
-2.706028
-2.700711
-2.686035
-2.665625
-2.642631
-2.619278
-2.596869
-2.575796
-2.555702
-2.535694
-2.514570
-2.491039
-2.463929
-2.432346
-2.395784
-2.354188
-2.307951
-2.257863
-2.205025
-2.150787
-2.096635
-2.043913
-1.993481
-1.945780
-1.901365
-1.861153
-1.825863
-1.796011
-1.772314
-1.755069
-1.744059
-1.738878
-1.739033
-1.743968
-1.753097
-1.765814
-1.781509
-1.799547
-1.819269
-1.840011
-1.861156
-1.882180
-1.902689
-1.922422
-1.941230
-1.959041
-1.975854
-1.991715
-2.006696
-2.020890
-2.034400
-2.047316
-2.059741
-2.071792
-2.083592
-2.095275
-2.106966
-2.118777
-2.130806
-2.143145
-2.155871
-2.169037
-2.182696
-2.196895
-2.211661
-2.227006
-2.242917
-2.259362
-2.276293
-2.293643
-2.311335
-2.329272
-2.347336
-2.365445
-2.383440
-2.401173
-2.418500
-2.435276
-2.451358
-2.466609
-2.480900
-2.494116
-2.506165
-2.516959
-2.526432
-2.534532
-2.541227
-2.546503
-2.550363
-2.552833
-2.553949
-2.553768
-2.552354
-2.549787
-2.546152
-2.541537
-2.536027
-2.529700
-2.522654
-2.515005
-2.506869
-2.498360
-2.489582
-2.480628
-2.471505
-2.462422
-2.453453
-2.444665
-2.436166
10.197666
10.197624
10.197502
10.197306
10.197044
10.196725
10.196358
10.195952
10.195519
10.195065
10.194599
10.194126
10.193653
10.193182
10.192719
10.192264
10.191818
10.191384
10.190958
10.190541
10.190130
10.189721
10.189310
10.188892
10.188462
10.188016
10.187552
10.187075
10.186600
10.186162
10.185831
10.185737
10.186109
10.187341
10.190089
10.195425
10.205050
10.221547
10.248576
10.291670
10.357375
10.449466
10.561752
10.666220
10.666219
0.000000
0.000000
0.000000
0.000000
0.000000
-5.153163
-5.153162
-5.253764
-5.489863
-5.891811
-6.412901
-6.620137
-6.270438
-5.602374
-4.832849
-4.134221
-3.611570
-3.301270
-3.184177
-3.206630
-3.300131
-3.395638
-3.436632
-3.394302
-3.275291
-3.121715
-2.978513
-2.843217
-2.702430
-2.553060
-2.405159
-2.273783
-2.169915
-2.097572
-2.058668
-2.054426
-2.080499
-2.134236
-2.210890
-2.303319
-2.402709
-2.500365
-2.587951
-2.657007
-2.702252
-2.731032
-2.744932
-2.739016
-2.723051
-2.700310
-2.674837
-2.649328
-2.625551
-2.604097
-2.584608
-2.566020
-2.546806
-2.525266
-2.499804
-2.469136
-2.432455
-2.389530
-2.340732
-2.286997
-2.229736
-2.170687
-2.111661
-2.054186
-1.999238
-1.947418
-1.899559
-1.857002
-1.818341
-1.785382
-1.760350
-1.742743
-1.732045
-1.727721
-1.729178
-1.735774
-1.746843
-1.761707
-1.779670
-1.800014
-1.821996
-1.844877
-1.867968
-1.890690
-1.912617
-1.933481
-1.953146
-1.971569
-1.988767
-2.004795
-2.019737
-2.033692
-2.046776
-2.059110
-2.070825
-2.082064
-2.092975
-2.103713
-2.114424
-2.125245
-2.136300
-2.147698
-2.159533
-2.171883
-2.184816
-2.198386
-2.212629
-2.227561
-2.243172
-2.259431
-2.276286
-2.293665
-2.311480
-2.329624
-2.347976
-2.366409
-2.384770
-2.402896
-2.420626
-2.437798
-2.454256
-2.469852
-2.484451
-2.497925
-2.510160
-2.521072
-2.530593
-2.538674
-2.545285
-2.550413
-2.554068
-2.556276
-2.557084
-2.556552
-2.554755
-2.551780
-2.547723
-2.542685
-2.536764
-2.530046
-2.522627
-2.514624
-2.506160
-2.497355
-2.488328
-2.479073
-2.469749
-2.460494
-2.451388
-2.442500
-2.433845
10.196244
10.196205
10.196096
10.195919
10.195681
10.195387
10.195046
10.194665
10.194253
10.193815
10.193359
10.192889
10.192411
10.191929
10.191444
10.190960
10.190477
10.189994
10.189513
10.189030
10.188544
10.188051
10.187548
10.187030
10.186494
10.185936
10.185360
10.184772
10.184195
10.183672
10.183287
10.183188
10.183634
10.185059
10.188189
10.194205
10.204984
10.223412
10.253672
10.301203
10.371403
10.466315
10.577147
10.674966
10.674966
0.000000
0.000000
0.000000
0.000000
0.000000
-5.133220
-5.133219
-5.262603
-5.534539
-5.959662
-6.469567
-6.766360
-6.433793
-5.698597
-4.869184
-4.108223
-3.524386
-3.155613
-2.979888
-2.941051
-2.973435
-3.017735
-3.032369
-3.003166
-2.945998
-2.890592
-2.825015
-2.749828
-2.637822
-2.495124
-2.348273
-2.220712
-2.124960
-2.064123
-2.035854
-2.044495
-2.079328
-2.137624
-2.215737
-2.308098
-2.407537
-2.506130
-2.595969
-2.670583
-2.725936
-2.759203
-2.768041
-2.767099
-2.754247
-2.731046
-2.704655
-2.677852
-2.653294
-2.631871
-2.613409
-2.596849
-2.580417
-2.562009
-2.539553
-2.511276
-2.475934
-2.432981
-2.382644
-2.325901
-2.264360
-2.200056
-2.135155
-2.071612
-2.010921
-1.954093
-1.901842
-1.855211
-1.814304
-1.779976
-1.753287
-1.734471
-1.723351
-1.719411
-1.721923
-1.730094
-1.743120
-1.760191
-1.780486
-1.803170
-1.827404
-1.852373
-1.877333
-1.901671
-1.924941
-1.946870
-1.967326
-1.986274
-2.003743
-2.019802
-2.034547
-2.048094
-2.060581
-2.072158
-2.082984
-2.093231
-2.103075
-2.112690
-2.122250