# vtk DataFile Version 3.0
Scalar Field
ASCII
DATASET RECTILINEAR_GRID
DIMENSIONS 200 50 1
X_COORDINATES 200 double
0.050000 0.150000 0.250000 0.350000 0.450000 0.550000 0.650000 0.750000 0.850000 0.950000 1.050000 1.150000 1.250000 1.350000 1.450000 1.550000 1.650000 1.750000 1.850000 1.950000 2.050000 2.150000 2.250000 2.350000 2.450000 2.550000 2.650000 2.750000 2.850000 2.950000 3.050000 3.150000 3.250000 3.350000 3.450000 3.550000 3.650000 3.750000 3.850000 3.950000 4.050000 4.150000 4.250000 4.350000 4.450000 4.550000 4.650000 4.750000 4.850000 4.950000 5.050000 5.150000 5.250000 5.350000 5.450000 5.550000 5.650000 5.750000 5.850000 5.950000 6.050000 6.150000 6.250000 6.350000 6.450000 6.550000 6.650000 6.750000 6.850000 6.950000 7.050000 7.150000 7.250000 7.350000 7.450000 7.550000 7.650000 7.750000 7.850000 7.950000 8.050000 8.150000 8.250000 8.350000 8.450000 8.550000 8.650000 8.750000 8.850000 8.950000 9.050000 9.150000 9.250000 9.350000 9.450000 9.550000 9.650000 9.750000 9.850000 9.950000 10.050000 10.150000 10.250000 10.350000 10.450000 10.550000 10.650000 10.750000 10.850000 10.950000 11.050000 11.150000 11.250000 11.350000 11.450000 11.550000 11.650000 11.750000 11.850000 11.950000 12.050000 12.150000 12.250000 12.350000 12.450000 12.550000 12.650000 12.750000 12.850000 12.950000 13.050000 13.150000 13.250000 13.350000 13.450000 13.550000 13.650000 13.750000 13.850000 13.950000 14.050000 14.150000 14.250000 14.350000 14.450000 14.550000 14.650000 14.750000 14.850000 14.950000 15.050000 15.150000 15.250000 15.350000 15.450000 15.550000 15.650000 15.750000 15.850000 15.950000 16.050000 16.150000 16.250000 16.350000 16.450000 16.550000 16.650000 16.750000 16.850000 16.950000 17.050000 17.150000 17.250000 17.350000 17.450000 17.550000 17.650000 17.750000 17.850000 17.950000 18.050000 18.150000 18.250000 18.350000 18.450000 18.550000 18.650000 18.750000 18.850000 18.950000 19.050000 19.150000 19.250000 19.350000 19.450000 19.550000 19.650000 19.750000 19.850000 19.950000 
Y_COORDINATES 50 double
0.050000 0.150000 0.250000 0.350000 0.450000 0.550000 0.650000 0.750000 0.850000 0.950000 1.050000 1.150000 1.250000 1.350000 1.450000 1.550000 1.650000 1.750000 1.850000 1.950000 2.050000 2.150000 2.250000 2.350000 2.450000 2.550000 2.650000 2.750000 2.850000 2.950000 3.050000 3.150000 3.250000 3.350000 3.450000 3.550000 3.650000 3.750000 3.850000 3.950000 4.050000 4.150000 4.250000 4.350000 4.450000 4.550000 4.650000 4.750000 4.850000 4.950000 
Z_COORDINATES 1 double
0.0
POINT_DATA 10000
SCALARS Skalarfeld double 1
LOOKUP_TABLE default
10.181959
10.169549
10.162521
10.157901
10.154549
10.151961
10.149885
10.148181
10.146765
10.145584
10.144604
10.143803
10.143166
10.142684
10.142354
10.142174
10.142145
10.142272
10.142562
10.143024
10.143671
10.144517
10.145581
10.146886
10.148460
10.150335
10.152550
10.155154
10.158203
10.161768
10.165935
10.170807
10.176510
10.183189
10.191004
10.200111
10.210614
10.222483
10.235391
10.248483
10.260114
10.266196
10.268408
10.286416
10.286417
0.000000
0.000000
0.000000
0.000000
0.000000
-2.349419
-2.349418
-2.354976
-2.363382
-2.370579
-2.375763
-2.379814
-2.384807
-2.394052
-2.406070
-2.417262
-2.429310
-2.443228
-2.460136
-2.481106
-2.506943
-2.539593
-2.579909
-2.626957
-2.679789
-2.736610
-2.794978
-2.852134
-2.905390
-2.952499
-2.991909
-3.022881
-3.045463
-3.060346
-3.068657
-3.071736
-3.070939
-3.067483
-3.062358
-3.056281
-3.049696
-3.042804
-3.035601
-3.027932
-3.019544
-3.010122
-2.999331
-2.986836
-2.972332
-2.955564
-2.936552
-2.915345
-2.891915
-2.866313
-2.838646
-2.809064
-2.777742
-2.744872
-2.710650
-2.675269
-2.638909
-2.601734
-2.563890
-2.525507
-2.486699
-2.447573
-2.408236
-2.368800
-2.329390
-2.290149
-2.251242
-2.212855
-2.175197
-2.138488
-2.102958
-2.068835
-2.036337
-2.005663
-1.976982
-1.950431
-1.926107
-1.904070
-1.884337
-1.866892
-1.851683
-1.838628
-1.827618
-1.818520
-1.811178
-1.805418
-1.801050
-1.797870
-1.795668
-1.794228
-1.793339
-1.792793
-1.792398
-1.791975
-1.791369
-1.790454
-1.789147
-1.787413
-1.785271
-1.782800
-1.779905
-1.776745
-1.773614
-1.770691
-1.768128
-1.766298
-1.765521
-1.766112
-1.768417
-1.772797
-1.779524
-1.788770
-1.800605
-1.814975
-1.831625
-1.850067
-1.869574
-1.889237
-1.908053
-1.925096
-1.939716
-1.951604
-1.961137
-1.969036
-1.975812
-1.981859
-1.987467
-1.992829
-1.998082
-2.003369
-2.008926
-2.015159
-2.022600
-2.031413
-2.041484
-2.052378
-2.063656
-2.075206
-2.087169
-2.099804
-2.113336
-2.127909
-2.143600
-2.160375
-2.178088
-2.196631
-2.215891
-2.235762
-2.256160
-2.277036
-2.298595
10.167855
10.164197
10.160073
10.156560
10.153695
10.151352
10.149412
10.147791
10.146429
10.145284
10.144329
10.143545
10.142919
10.142444
10.142117
10.141936
10.141903
10.142022
10.142300
10.142747
10.143373
10.144194
10.145226
10.146491
10.148015
10.149827
10.151964
10.154468
10.157390
10.160792
10.164747
10.169345
10.174691
10.180907
10.188129
10.196492
10.206101
10.216962
10.228875
10.241230
10.252614
10.261126
10.273282
10.298447
10.298447
0.000000
0.000000
0.000000
0.000000
0.000000
-2.352526
-2.352525
-2.358200
-2.365926
-2.372364
-2.376713
-2.379298
-2.383349
-2.392386
-2.403641
-2.414773
-2.425947
-2.438919
-2.454964
-2.475440
-2.501732
-2.535428
-2.577232
-2.626619
-2.682287
-2.742091
-2.803237
-2.862656
-2.917438
-2.965223
-3.004469
-3.034555
-3.055720
-3.068879
-3.075381
-3.076750
-3.074472
-3.069841
-3.063868
-3.057255
-3.050409
-3.043473
-3.036388
-3.028947
-3.020851
-3.011754
-3.001297
-2.989119
-2.974901
-2.958498
-2.939771
-2.918667
-2.895261
-2.869640
-2.841926
-2.812277
-2.780879
-2.747931
-2.713637
-2.678193
-2.641784
-2.604575
-2.566710
-2.528314
-2.489494
-2.450351
-2.410980
-2.371486
-2.331984
-2.292611
-2.253528
-2.214921
-2.176997
-2.139986
-2.104123
-2.069649
-2.036794
-2.005771
-1.976761
-1.949916
-1.925340
-1.903101
-1.883220
-1.865680
-1.850426
-1.837372
-1.826405
-1.817387
-1.810159
-1.804543
-1.800345
-1.797358
-1.795366
-1.794150
-1.793493
-1.793185
-1.793028
-1.792840
-1.792460
-1.791761
-1.790655
-1.789101
-1.787098
-1.784684
-1.781892
-1.778891
-1.775950
-1.773238
-1.770646
-1.768840
-1.768112
-1.768741
-1.771022
-1.775369
-1.782045
-1.791209
-1.802929
-1.817184
-1.833740
-1.852130
-1.871655
-1.891432
-1.910465
-1.927760
-1.942448
-1.953951
-1.962812
-1.970216
-1.976569
-1.982271
-1.987616
-1.992788
-1.997883
-2.002984
-2.008264
-2.014180
-2.021253
-2.029927
-2.040116
-2.051252
-2.062737
-2.074457
-2.086552
-2.099299
-2.112927
-2.127553
-2.143322
-2.160247
-2.178005
-2.196562
-2.215815
-2.235659
-2.256009
-2.276829
-2.298212
10.160492
10.159145
10.156825
10.154391
10.152148
10.150173
10.148462
10.146989
10.145724
10.144646
10.143736
10.142982
10.142373
10.141905
10.141575
10.141383
10.141331
10.141423
10.141665
10.142065
10.142633
10.143381
10.144323
10.145478
10.146863
10.148502
10.150421
10.152646
10.155209
10.158144
10.161486
10.165273
10.169539
10.174317
10.179627
10.185473
10.191831
10.198655
10.205915
10.213777
10.223237
10.238365
10.270317
10.326552
10.326553
0.000000
0.000000
0.000000
0.000000
0.000000
-2.351772
-2.351772
-2.359362
-2.366730
-2.371669
-2.376138
-2.379014
-2.384172
-2.392663
-2.401358
-2.408850
-2.417881
-2.429155
-2.443274
-2.462430
-2.489244
-2.525570
-2.572004
-2.627717
-2.690656
-2.757773
-2.825412
-2.889814
-2.947633
-2.996367
-3.034607
-3.062088
-3.079547
-3.088445
-3.090635
-3.088042
-3.082418
-3.075186
-3.067380
-3.059642
-3.052267
-3.045270
-3.038460
-3.031510
-3.024024
-3.015593
-3.005826
-2.994265
-2.980434
-2.964288
-2.945732
-2.924740
-2.901364
-2.875699
-2.847883
-2.818091
-2.786525
-2.753400
-2.718936
-2.683341
-2.646808
-2.609504
-2.571572
-2.533126
-2.494262
-2.455064
-2.415610
-2.375984
-2.336287
-2.296642
-2.257203
-2.218152
-2.179703
-2.142094
-2.105581
-2.070425
-2.036883
-2.005194
-1.975568
-1.948177
-1.923148
-1.900557
-1.880431
-1.862750
-1.847453
-1.834444
-1.823599
-1.814773
-1.807801
-1.802497
-1.798662
-1.796080
-1.794528
-1.793776
-1.793601
-1.793783
-1.794116
-1.794410
-1.794496
-1.794239
-1.793538
-1.792342
-1.790640
-1.788463
-1.785885
-1.783054
-1.780170
-1.777408
-1.774949
-1.773204
-1.772530
-1.773173
-1.775171
-1.779255
-1.785656
-1.794509
-1.805837
-1.819685
-1.835866
-1.853954
-1.873280
-1.893019
-1.912205
-1.929836
-1.945007
-1.957068
-1.965266
-1.971998
-1.977666
-1.982775
-1.987658
-1.992527
-1.997500
-2.002718
-2.008172
-2.014245
-2.021362
-2.029777
-2.039833
-2.051307
-2.063034
-2.075122
-2.087718
-2.100980
-2.115048
-2.130013
-2.145939
-2.162782
-2.180398
-2.198700
-2.217604
-2.237044
-2.257003
-2.277592
-2.298004
10.155699
10.155070
10.153698
10.152031
10.150333
10.148730
10.147271
10.145970
10.144825
10.143830
10.142975
10.142256
10.141667
10.141204
10.140868
10.140658
10.140577
10.140628
10.140816
10.141148
10.141631
10.142276
10.143091
10.144088
10.145279
10.146676
10.148288
10.150124
10.152187
10.154468
10.156949
10.159587
10.162304
10.164976
10.167407
10.169306
10.170269
10.169793
10.167414
10.163232
10.159496
10.164555
10.198168
10.281378
10.281379
0.000000
0.000000
0.000000
0.000000
0.000000
-2.342022
-2.342021
-2.350850
-2.359801
-2.367217
-2.373869
-2.381200
-2.390857
-2.400881
-2.403430
-2.400182
-2.405131
-2.414275
-2.424563
-2.440463
-2.467469
-2.508057
-2.562407
-2.628730
-2.703592
-2.782428
-2.860194
-2.932071
-2.994111
-3.043690
-3.079717
-3.102582
-3.113869
-3.115926
-3.111388
-3.102770
-3.092183
-3.081198
-3.070827
-3.061587
-3.053589
-3.046638
-3.040342
-3.034195
-3.027661
-3.020232
-3.011481
-3.000539
-2.987288
-2.971582
-2.953342
-2.932551
-2.909261
-2.883576
-2.855650
-2.825680
-2.793891
-2.760525
-2.725823
-2.690017
-2.653311
-2.615878
-2.577857
-2.539354
-2.500444
-2.461187
-2.421633
-2.381839
-2.341882
-2.301863
-2.261923
-2.222243
-2.183043
-2.144577
-2.107126
-2.070984
-2.036447
-2.003794
-1.973276
-1.945102
-1.919425
-1.896339
-1.875877
-1.858016
-1.842681
-1.829760
-1.819116
-1.810590
-1.804007
-1.799178
-1.795892
-1.793924
-1.793037
-1.792988
-1.793539
-1.794461
-1.795538
-1.796568
-1.797368
-1.797783
-1.797697
-1.797041
-1.795794
-1.793985
-1.791693
-1.789055
-1.786251
-1.783485
-1.780996
-1.779106
-1.778141
-1.778379
-1.780099
-1.783729
-1.789530
-1.797745
-1.808167
-1.821046
-1.836258
-1.853432
-1.871923
-1.891003
-1.909772
-1.927253
-1.942496
-1.954655
-1.964159
-1.971229
-1.976944
-1.982046
-1.986858
-1.991610
-1.996480
-2.002212
-2.008191
-2.014832
-2.022578
-2.031682
-2.042224
-2.053930
-2.066291
-2.079171
-2.092582
-2.106580
-2.121222
-2.136543
-2.152546
-2.169185
-2.186372
-2.204039
-2.222133
-2.240635
-2.259576
-2.279074
-2.297739
10.152093
10.151739
10.150869
10.149706
10.148427
10.147145
10.145926
10.144799
10.143780
10.142874
10.142082
10.141402
10.140835
10.140379
10.140035
10.139804
10.139688
10.139691
10.139817
10.140071
10.140457
10.140982
10.141652
10.142472
10.143446
10.144574
10.145851
10.147266
10.148791
10.150378
10.151949
10.153376
10.154456
10.154881
10.154175
10.151626
10.146171
10.136256
10.119687
10.093628
10.055325
10.005447
9.958804
9.965474
9.965474
0.000000
0.000000
0.000000
0.000000
0.000000
-2.324440
-2.324440
-2.336210
-2.348918
-2.360579
-2.372722
-2.387580
-2.407446
-2.427412
-2.416365
-2.382681
-2.386397
-2.396881
-2.399166
-2.407199
-2.433560
-2.480212
-2.546083
-2.627688
-2.719460
-2.814632
-2.906216
-2.987964
-3.055175
-3.105167
-3.137409
-3.153310
-3.155716
-3.148245
-3.134611
-3.118086
-3.101191
-3.085604
-3.072238
-3.061387
-3.052885
-3.046256
-3.040835
-3.035883
-3.030678
-3.024584
-3.017005
-3.006987
-2.994528
-2.979457
-2.961696
-2.941234
-2.918121
-2.892471
-2.864455
-2.834294
-2.802247
-2.768590
-2.733601
-2.697539
-2.660627
-2.623051
-2.584946
-2.546402
-2.507474
-2.468187
-2.428555
-2.388597
-2.348354
-2.307902
-2.267361
-2.226908
-2.186770
-2.147223
-2.108579
-2.071177
-2.035360
-2.001465
-1.969795
-1.940608
-1.914096
-1.890380
-1.869500
-1.851426
-1.836066
-1.823284
-1.812918
-1.804794
-1.798728
-1.794525
-1.791967
-1.790815
-1.790810
-1.791688
-1.793195
-1.795089
-1.797144
-1.799144
-1.800886
-1.802186
-1.802901
-1.802940
-1.802269
-1.800908
-1.798936
-1.796483
-1.793726
-1.790878
-1.788192
-1.785963
-1.784502
-1.784112
-1.785108
-1.787827
-1.792541
-1.799441
-1.808565
-1.819988
-1.833596
-1.849034
-1.865867
-1.883432
-1.900937
-1.917527
-1.932387
-1.944875
-1.955656
-1.963897
-1.970576
-1.976404
-1.981990
-1.987616
-1.993577
-2.000185
-2.007429
-2.015510
-2.024670
-2.035049
-2.046637
-2.059239
-2.072562
-2.086428
-2.100753
-2.115503
-2.130662
-2.146212
-2.162124
-2.178353
-2.194846
-2.211563
-2.228486
-2.245623
-2.263020
-2.280753
-2.297395
10.149150
10.148923
10.148335
10.147498
10.146524
10.145502
10.144489
10.143523
10.142625
10.141808
10.141078
10.140440
10.139895
10.139445
10.139092
10.138838
10.138685
10.138636
10.138694
10.138863
10.139146
10.139546
10.140064
10.140701
10.141454
10.142314
10.143264
10.144274
10.145295
10.146248
10.147004
10.147368
10.147034
10.145528
10.142118
10.135656
10.124323
10.105164
10.073198
10.019565
9.927298
9.760825
9.439745
9.066656
3.801918
-3.159140
-2.992014
-2.967616
-2.944486
-2.865862
-2.502124
-2.310212
-2.320730
-2.337507
-2.355025
-2.373773
-2.397472
-2.436193
-2.501122
-2.459304
-2.336368
-2.360850
-2.387620
-2.368508
-2.358007
-2.383739
-2.439138
-2.520893
-2.623269
-2.737696
-2.854414
-2.963861
-3.057931
-3.131027
-3.180523
-3.206774
-3.212701
-3.202951
-3.182891
-3.157658
-3.131424
-3.107102
-3.086362
-3.069864
-3.057547
-3.048870
-3.042991
-3.038911
-3.035607
-3.032142
-3.027753
-3.021452
-3.012700
-3.001281
-2.987062
-2.969977
-2.950011
-2.927209
-2.901685
-2.873627
-2.843287
-2.810964
-2.776983
-2.741669
-2.705318
-2.668186
-2.630471
-2.592307
-2.553771
-2.514884
-2.475632
-2.435982
-2.395903
-2.355391
-2.314484
-2.273280
-2.231948
-2.190722
-2.149905
-2.109847
-2.070940
-2.033587
-1.998189
-1.965121
-1.934702
-1.907177
-1.882699
-1.861325
-1.843015
-1.827651
-1.815064
-1.805056
-1.797432
-1.792002
-1.788568
-1.786905
-1.786757
-1.787837
-1.789849
-1.792511
-1.795572
-1.798802
-1.801972
-1.804850
-1.807211
-1.808874
-1.809719
-1.809698
-1.808823
-1.807164
-1.804848
-1.802053
-1.798996
-1.795929
-1.793139
-1.790928
-1.789606
-1.789480
-1.790853
-1.793986
-1.799073
-1.806225
-1.815492
-1.826793
-1.839885
-1.854395
-1.869800
-1.885477
-1.900765
-1.915087
-1.928134
-1.939875
-1.949561
-1.957883
-1.965453
-1.972782
-1.980229
-1.988085
-1.996580
-2.005826
-2.015950
-2.027062
-2.039203
-2.052311
-2.066223
-2.080722
-2.095630
-2.110816
-2.126195
-2.141704
-2.157295
-2.172931
-2.188574
-2.204199
-2.219793
-2.235363
-2.250937
-2.266566
-2.282306
-2.296957
10.146627
10.146470
10.146049
10.145427
10.144673
10.143851
10.143008
10.142181
10.141392
10.140657
10.139986
10.139386
10.138862
10.138416
10.138052
10.137773
10.137580
10.137477
10.137465
10.137546
10.137723
10.137995
10.138361
10.138818
10.139358
10.139965
10.140615
10.141269
10.141862
10.142297
10.142424
10.142007
10.140687
10.137900
10.132761
10.123848
10.108815
10.083640
10.041015
9.966520
9.828136
9.542019
8.842444
6.411418
-1.462822
-3.159140
-2.992014
-2.967616
-2.944486
-2.865862
-2.694036
-2.484413
-2.429292
-2.415191
-2.408553
-2.407431
-2.416728
-2.450661
-2.522729
-2.462647
-2.230308
-2.345304
-2.426659
-2.333297
-2.281934
-2.314868
-2.382837
-2.485580
-2.615393
-2.759326
-2.903699
-3.035634
-3.144576
-3.223910
-3.271230
-3.288241
-3.280101
-3.253997
-3.217663
-3.178070
-3.140380
-3.107769
-3.081660
-3.062201
-3.048808
-3.040459
-3.035878
-3.033682
-3.032518
-3.031190
-3.028764
-3.024169
-3.016893
-3.006744
-2.993624
-2.977464
-2.958223
-2.935921
-2.910663
-2.882648
-2.852166
-2.819568
-2.785245
-2.749580
-2.712926
-2.675576
-2.637748
-2.599581
-2.561131
-2.522385
-2.483276
-2.443711
-2.403599
-2.362876
-2.321533
-2.279636
-2.237343
-2.194904
-2.152648
-2.110976
-2.070339
-2.031212
-1.994073
-1.959375
-1.927513
-1.898797
-1.873428
-1.851483
-1.832916
-1.817577
-1.805246
-1.795680
-1.788651
-1.783963
-1.781425
-1.780811
-1.781841
-1.784190
-1.787513
-1.791494
-1.795871
-1.800423
-1.804917
-1.809086
-1.812646
-1.815358
-1.817073
-1.817732
-1.817336
-1.815947
-1.813689
-1.810743
-1.807328
-1.803694
-1.800120
-1.796907
-1.794360
-1.792779
-1.792444
-1.793603
-1.796463
-1.801171
-1.807807
-1.816352
-1.826666
-1.838493
-1.851469
-1.865152
-1.879081
-1.892846
-1.906442
-1.918865
-1.930055
-1.940369
-1.950219
-1.959984
-1.969969
-1.980413
-1.991488
-2.003293
-2.015892
-2.029305
-2.043501
-2.058378
-2.073780
-2.089521
-2.105430
-2.121365
-2.137221
-2.152920
-2.168408
-2.183647
-2.198619
-2.213316
-2.227748
-2.241942
-2.255941
-2.269805
-2.283601
-2.296415
10.144397
10.144281
10.143966
10.143487
10.142891
10.142220
10.141514
10.140801
10.140106
10.139443
10.138824
10.138258
10.137751
10.137308
10.136931
10.136624
10.136389
10.136229
10.136145
10.136137
10.136207
10.136353
10.136571
10.136856
10.137197
10.137575
10.137965
10.138322
10.138583
10.138649
10.138370
10.137520
10.135748
10.132508
10.126934
10.117621
10.102218
10.076629
10.033320
9.957459
9.817016
9.531608
8.878157
7.121213
0.649508
-2.210702
-2.824593
-2.966975
-3.013555
-3.029073
-3.018633
-2.998785
-2.948875
-2.875774
-2.797867
-2.729009
-2.677296
-2.644662
-2.607239
-2.474083
-2.330293
-2.402722
-2.434996
-2.274856
-2.161288
-2.234068
-2.311902
-2.440484
-2.606059
-2.787520
-2.966596
-3.126343
-3.252722
-3.338091
-3.380422
-3.383387
-3.355557
-3.307649
-3.250506
-3.193516
-3.142754
-3.101360
-3.070085
-3.048145
-3.034250
-3.026832
-3.024150
-3.024403
-3.025871
-3.027071
-3.026892
-3.024298
-3.018711
-3.010087
-2.998375
-2.983471
-2.965272
-2.943737
-2.918944
-2.891104
-2.860550
-2.827699
-2.793027
-2.757003
-2.720045
-2.682499
-2.644615
-2.606536
-2.568297
-2.529843
-2.491044
-2.451733
-2.411739
-2.370925
-2.329219
-2.286640
-2.243341
-2.199581
-2.155730
-2.112247
-2.069659
-2.028525
-1.989413
-1.952862
-1.919354
-1.889272
-1.862874
-1.840268
-1.821409
-1.806113
-1.794101
-1.785060
-1.778715
-1.774856
-1.773323
-1.773883
-1.776236
-1.780011
-1.784792
-1.790209
-1.796000
-1.801972
-1.807901
-1.813478
-1.818334
-1.822147
-1.824747
-1.826078
-1.826132
-1.824947
-1.822648
-1.819428
-1.815511
-1.811137
-1.806581
-1.802149
-1.798151
-1.794876
-1.792586
-1.791521
-1.791897
-1.793903
-1.797679
-1.803292
-1.810712
-1.819816
-1.830394
-1.842172
-1.854861
-1.868220
-1.881776
-1.894915
-1.907636
-1.920087
-1.932481
-1.945043
-1.957961
-1.971381
-1.985394
-2.000036
-2.015302
-2.031146
-2.047481
-2.064180
-2.081086
-2.098031
-2.114858
-2.131434
-2.147655
-2.163448
-2.178764
-2.193576
-2.207877
-2.221676
-2.235000
-2.247888
-2.260400
-2.272611
-2.284614
-2.295763
10.142381
10.142292
10.142046
10.141667
10.141183
10.140626
10.140026
10.139406
10.138788
10.138185
10.137611
10.137073
10.136579
10.136134
10.135742
10.135405
10.135126
10.134907
10.134750
10.134653
10.134618
10.134640
10.134717
10.134840
10.134999
10.135176
10.135346
10.135471
10.135495
10.135338
10.134877
10.133935
10.132237
10.129365
10.124658
10.117048
10.104748
10.084656
10.051089
9.990752
9.872502
9.614277
8.947385
6.533014
-1.379933
-3.150383
-3.023453
-3.056706
-3.138163
-3.282169
-3.484186
-3.754138
-3.740490
-3.613161
-3.465994
-3.331577
-3.217542
-3.104791
-2.963686
-2.773540
-2.598310
-2.502282
-2.392753
-2.232584
-2.157167
-2.168985
-2.235878
-2.390078
-2.601982
-2.828561
-3.049213
-3.242641
-3.388722
-3.479261
-3.512242
-3.494169
-3.439358
-3.363051
-3.279897
-3.202378
-3.136920
-3.086702
-3.051011
-3.027290
-3.013478
-3.007517
-3.007229
-3.010394
-3.014902
-3.018945
-3.021214
-3.020788
-3.017081
-3.010310
-3.000433
-2.987248
-2.970526
-2.950127
-2.926079
-2.898599
-2.868078
-2.835012
-2.800004
-2.763621
-2.726370
-2.688669
-2.650808
-2.612943
-2.575090
-2.537142
-2.498895
-2.460089
-2.420453
-2.379757
-2.337856
-2.294675
-2.250384
-2.205246
-2.159673
-2.114199
-2.069441
-2.026066
-1.984745
-1.946122
-1.910768
-1.879149
-1.851584
-1.828216
-1.809005
-1.793739
-1.782083
-1.773644
-1.768069
-1.765097
-1.764646
-1.766450
-1.770205
-1.775501
-1.781840
-1.788772
-1.796033
-1.803478
-1.810904
-1.817965
-1.824174
-1.829090
-1.832537
-1.834507
-1.834971
-1.833920
-1.831475
-1.827867
-1.823328
-1.818077
-1.812383
-1.806572
-1.800974
-1.795873
-1.791509
-1.788104
-1.785892
-1.785117
-1.786003
-1.788715
-1.793341
-1.799885
-1.808270
-1.818359
-1.829978
-1.842823
-1.856274
-1.870177
-1.884431
-1.899027
-1.914012
-1.929449
-1.945394
-1.961874
-1.978882
-1.996376
-2.014281
-2.032495
-2.050893
-2.069332
-2.087656
-2.105714
-2.123368
-2.140503
-2.157028
-2.172881
-2.188024
-2.202439
-2.216129
-2.229113
-2.241428
-2.253126
-2.264280
-2.274983
-2.285357
-2.294998
10.140531
10.140459
10.140261
10.139951
10.139548
10.139077
10.138558
10.138011
10.137455
10.136901
10.136362
10.135846
10.135360
10.134909
10.134498
10.134129
10.133804
10.133526
10.133295
10.133110
10.132971
10.132875
10.132816
10.132789
10.132783
10.132784
10.132771
10.132718
10.132586
10.132324
10.131859
10.131090
10.129874
10.128000
10.125150
10.120821
10.114182
10.103776
10.086221
10.054675
9.993967
9.867007
9.581913
9.204242
3.912155
-3.150382
-3.023453
-3.056705
-3.138163
-3.282169
-3.961336
-4.438485
-4.208088
-4.098633
-3.976224
-3.868487
-3.792314
-3.695820
-3.531666
-3.291473
-3.020573
-2.765416
-2.528346
-2.327449
-2.214780
-2.193240
-2.258788
-2.411646
-2.633382
-2.890174
-3.152368
-3.386769
-3.555178
-3.649910
-3.667513
-3.619354
-3.531552
-3.416980
-3.304855
-3.206303
-3.126139
-3.065942
-3.025349
-3.000446
-2.986897
-2.982479
-2.984666
-2.990860
-2.998553
-3.005563
-3.010285
-3.012242
-3.010734
-3.006322
-2.998895
-2.988076
-2.973431
-2.954665
-2.931730
-2.904852
-2.874496
-2.841297
-2.805948
-2.769173
-2.731613
-2.693777
-2.656016
-2.618503
-2.581238
-2.544055
-2.506665
-2.468692
-2.429740
-2.389453
-2.347573
-2.303990
-2.258799
-2.212281
-2.164902
-2.117284
-2.070159
-2.024319
-1.980570
-1.939677
-1.902322
-1.869059
-1.840268
-1.816121
-1.796566
-1.781348
-1.770063
-1.762254
-1.757508
-1.755531
-1.756152
-1.759172
-1.764245
-1.770984
-1.778856
-1.787344
-1.796126
-1.805067
-1.813972
-1.822509
-1.830085
-1.836048
-1.840249
-1.842803
-1.843649
-1.842673
-1.839982
-1.835899
-1.830667
-1.824456
-1.817514
-1.810221
-1.802956
-1.795999
-1.789553
-1.783805
-1.779013
-1.775501
-1.773596
-1.773573
-1.775631
-1.779886
-1.786370
-1.795047
-1.805847
-1.817992
-1.831538
-1.846281
-1.862049
-1.878715
-1.896184
-1.914379
-1.933218
-1.952613
-1.972455
-1.992622
-2.012975
-2.033369
-2.053651
-2.073667
-2.093272
-2.112330
-2.130723
-2.148356
-2.165157
-2.181074
-2.196079
-2.210161
-2.223328
-2.235605
-2.247032
-2.257672
-2.267608
-2.276952
-2.285853
-2.294114
10.138812
10.138753
10.138588
10.138327
10.137984
10.137575
10.137118
10.136628
10.136118
10.135603
10.135090
10.134589
10.134106
10.133645
10.133212
10.132809
10.132437
10.132099
10.131795
10.131523
10.131283
10.131072
10.130886
10.130718
10.130560
10.130404
10.130236
10.130042
10.129805
10.129509
10.129138
10.128685
10.128154
10.127577
10.127028
10.126644
10.126636
10.127262
10.128743
10.131011
10.132796
10.130908
10.123097
10.128288
10.128289
0.000000
0.000000
0.000000
0.000000
0.000000
-4.333158
-4.333157
-4.286895
-4.276115
-4.153541
-4.109597
-4.172860
-4.207168
-4.117370
-3.875329
-3.530722
-3.156407
-2.809696
-2.535753
-2.367371
-2.310628
-2.360928
-2.506331
-2.725180
-2.990768
-3.272894
-3.529840
-3.719744
-3.820837
-3.822422
-3.742092
-3.608859
-3.459802
-3.320590
-3.203074
-3.111029
-3.043754
-2.998138
-2.971565
-2.957621
-2.953946
-2.957689
-2.965996
-2.976115
-2.985589
-2.992474
-2.996718
-2.998396
-2.997245
-2.993179
-2.985616
-2.973844
-2.957351
-2.935985
-2.909974
-2.879888
-2.846523
-2.810774
-2.773541
-2.735620
-2.697640
-2.660026
-2.622979
-2.586481
-2.550308
-2.514071
-2.477267
-2.439355
-2.399828
-2.358301
-2.314573
-2.268678
-2.220900
-2.171754
-2.121954
-2.072357
-2.023901
-1.977543
-1.934195
-1.894672
-1.859637
-1.829542
-1.804591
-1.784713
-1.769587
-1.758725
-1.751594
-1.747727
-1.746759
-1.748483
-1.752738
-1.758955
-1.766892
-1.776095
-1.786062
-1.796419
-1.806931
-1.817328
-1.827159
-1.835865
-1.842728
-1.847524
-1.850645
-1.851898
-1.850983
-1.847962
-1.843357
-1.837431
-1.830255
-1.822010
-1.813192
-1.804273
-1.795520
-1.787077
-1.779056
-1.771759
-1.765625
-1.761106
-1.758587
-1.758366
-1.760648
-1.765550
-1.773087
-1.783091
-1.794807
-1.808631
-1.824284
-1.841524
-1.860128
-1.879887
-1.900597
-1.922062
-1.944085
-1.966467
-1.989012
-2.011530
-2.033840
-2.055770
-2.077165
-2.097889
-2.117821
-2.136866
-2.154944
-2.172000
-2.187995
-2.202907
-2.216729
-2.229471
-2.241158
-2.251831
-2.261555
-2.270419
-2.278548
-2.286117
-2.293106
10.137204
10.137152
10.137011
10.136784
10.136484
10.136122
10.135711
10.135263
10.134790
10.134302
10.133807
10.133315
10.132829
10.132355
10.131897
10.131457
10.131037
10.130639
10.130262
10.129905
10.129567
10.129245
10.128936
10.128635
10.128336
10.128034
10.127725
10.127406
10.127080
10.126765
10.126497
10.126354
10.126474
10.127109
10.128680
10.131885
10.137825
10.148154
10.165648
10.194476
10.239290
10.305155
10.393617
10.494613
10.494614
0.000000
0.000000
0.000000
0.000000
0.000000
-4.309176
-4.309176
-4.302202
-4.285125
-4.248302
-4.258506
-4.393453
-4.596800
-4.631271
-4.417782
-4.024743
-3.561335
-3.122411
-2.773283
-2.548569
-2.455474
-2.484651
-2.617019
-2.827618
-3.089257
-3.370208
-3.628032
-3.818295
-3.910599
-3.894119
-3.788207
-3.633414
-3.467615
-3.315885
-3.190170
-3.093396
-3.023504
-2.976555
-2.945610
-2.929583
-2.924697
-2.927774
-2.936004
-2.946744
-2.957598
-2.966724
-2.973012
-2.978629
-2.982325
-2.982928
-2.979802
-2.971996
-2.958697
-2.939604
-2.914911
-2.885307
-2.851792
-2.815516
-2.777625
-2.739135
-2.700840
-2.663269
-2.626668
-2.591003
-2.555985
-2.521116
-2.485748
-2.449172
-2.410712
-2.369832
-2.326217
-2.279838
-2.230972
-2.180182
-2.128274
-2.076231
-2.025137
-1.976107
-1.930217
-1.888431
-1.851545
-1.820104
-1.794350
-1.774177
-1.759170
-1.748725
-1.742243
-1.739215
-1.739164
-1.741459
-1.746215
-1.753557
-1.762907
-1.773679
-1.785328
-1.797422
-1.809620
-1.821523
-1.832519
-1.841754
-1.848954
-1.854300
-1.857927
-1.859329
-1.858287
-1.854957
-1.849788
-1.843200
-1.835183
-1.825802
-1.815556
-1.805079
-1.794653
-1.784384
-1.774200
-1.764505
-1.755909
-1.749001
-1.744263
-1.742071
-1.742704
-1.746356
-1.753121
-1.762108
-1.773830
-1.788140
-1.804763
-1.823411
-1.843788
-1.865590
-1.888517
-1.912272
-1.936569
-1.961134
-1.985712
-2.010071
-2.034003
-2.057326
-2.079886
-2.101555
-2.122230
-2.141830
-2.160293
-2.177577
-2.193653
-2.208506
-2.222134
-2.234544
-2.245759
-2.255816
-2.264773
-2.272720
-2.279784
-2.286157
-2.291967
10.135688
10.135643
10.135518
10.135317
10.135047
10.134719
10.134341
10.133923
10.133476
10.133007
10.132524
10.132033
10.131540
10.131049
10.130563
10.130085
10.129617
10.129158
10.128708
10.128268
10.127834
10.127405
10.126978
10.126548
10.126113
10.125670
10.125221
10.124773
10.124343
10.123971
10.123731
10.123757
10.124280
10.125696
10.128657
10.134225
10.144078
10.160754
10.187836
10.230605
10.295619
10.386506
10.497054
10.599726
10.599727
0.000000
0.000000
0.000000
0.000000
0.000000
-4.332771
-4.332770
-4.342837
-4.340676
-4.353069
-4.441731
-4.656688
-4.969069
-5.087998
-4.869035
-4.416988
-3.873618
-3.356664
-2.943235
-2.671507
-2.547963
-2.558166
-2.676906
-2.875142
-3.122915
-3.386826
-3.626476
-3.800253
-3.878450
-3.853794
-3.744510
-3.593425
-3.433947
-3.288157
-3.167535
-3.074579
-3.006623
-2.958492
-2.925196
-2.906099
-2.897583
-2.896970
-2.902058
-2.910792
-2.921255
-2.931897
-2.941810
-2.950545
-2.958495
-2.966349
-2.969281
-2.967018
-2.958227
-2.942578
-2.920071
-2.891513
-2.858098
-2.821279
-2.782531
-2.743178
-2.704265
-2.666492
-2.630185
-2.595312
-2.561516
-2.528173
-2.494466
-2.459488
-2.422363
-2.382371
-2.339065
-2.292344
-2.242480
-2.190098
-2.136117
-2.081661
-2.027968
-1.976304
-1.927894
-1.883850
-1.845106
-1.812324
-1.785791
-1.765361
-1.750486
-1.740410
-1.734520
-1.731755
-1.731671
-1.734829
-1.740902
-1.749589
-1.760377
-1.772684
-1.785936
-1.799615
-1.813238
-1.826278
-1.838126
-1.848186
-1.856135
-1.861839
-1.864941
-1.865727
-1.864265
-1.860637
-1.854971
-1.847812
-1.838975
-1.828495
-1.817043
-1.805328
-1.793533
-1.781533
-1.769362
-1.757503
-1.746676
-1.737629
-1.730960
-1.727096
-1.726365
-1.729032
-1.734996
-1.743524
-1.755410
-1.770348
-1.787957
-1.807924
-1.829889
-1.853475
-1.878301
-1.903993
-1.930195
-1.956575
-1.982832
-2.008702
-2.033961
-2.058419
-2.081926
-2.104362
-2.125637
-2.145684
-2.164456
-2.181921
-2.198061
-2.212868
-2.226343
-2.238495
-2.249342
-2.258917
-2.267267
-2.274467
-2.280634
-2.285960
-2.290688
10.134255
10.134214
10.134100
10.133917
10.133669
10.133365
10.133010
10.132614
10.132183
10.131726
10.131248
10.130754
10.130249
10.129738
10.129222
10.128705
10.128186
10.127666
10.127146
10.126623
10.126096
10.125563
10.125021
10.124466
10.123896
10.123311
10.122715
10.122117
10.121544
10.121042
10.120697
10.120661
10.121193
10.122730
10.125987
10.132130
10.143007
10.161445
10.191538
10.238608
10.307863
10.401204
10.509936
10.605595
10.605596
0.000000
0.000000
0.000000
0.000000
0.000000
-4.416488
-4.416488
-4.433031
-4.436303
-4.459905
-4.593866
-4.860298
-5.262594
-5.491052
-5.158620
-4.625210
-4.009576
-3.433331
-2.974927
-2.673834
-2.534605
-2.536571
-2.647538
-2.833729
-3.062837
-3.301806
-3.514691
-3.666854
-3.734917
-3.715331
-3.625076
-3.492955
-3.359476
-3.236516
-3.133944
-3.053366
-2.991758
-2.943793
-2.909559
-2.886447
-2.872356
-2.865755
-2.865367
-2.869906
-2.878054
-2.888647
-2.900870
-2.914200
-2.927910
-2.939083
-2.948084
-2.955004
-2.952445
-2.942167
-2.923320
-2.897073
-2.864649
-2.827807
-2.788372
-2.748071
-2.708314
-2.670084
-2.633882
-2.599732
-2.567228
-2.535608
-2.503855
-2.470819
-2.435379
-2.396593
-2.353847
-2.306952
-2.256174
-2.202211
-2.146107
-2.089151
-2.032761
-1.978386
-1.927412
-1.881088
-1.840460
-1.806294
-1.778954
-1.758281
-1.743566
-1.733772
-1.727995
-1.725155
-1.725931
-1.730141
-1.737453
-1.747454
-1.759624
-1.773371
-1.788085
-1.803169
-1.818038
-1.832088
-1.844704
-1.855337
-1.863605
-1.869294
-1.872270