# vtk DataFile Version 3.0
Scalar Field
ASCII
DATASET RECTILINEAR_GRID
DIMENSIONS 200 50 1
X_COORDINATES 200 double
0.050000 0.150000 0.250000 0.350000 0.450000 0.550000 0.650000 0.750000 0.850000 0.950000 1.050000 1.150000 1.250000 1.350000 1.450000 1.550000 1.650000 1.750000 1.850000 1.950000 2.050000 2.150000 2.250000 2.350000 2.450000 2.550000 2.650000 2.750000 2.850000 2.950000 3.050000 3.150000 3.250000 3.350000 3.450000 3.550000 3.650000 3.750000 3.850000 3.950000 4.050000 4.150000 4.250000 4.350000 4.450000 4.550000 4.650000 4.750000 4.850000 4.950000 5.050000 5.150000 5.250000 5.350000 5.450000 5.550000 5.650000 5.750000 5.850000 5.950000 6.050000 6.150000 6.250000 6.350000 6.450000 6.550000 6.650000 6.750000 6.850000 6.950000 7.050000 7.150000 7.250000 7.350000 7.450000 7.550000 7.650000 7.750000 7.850000 7.950000 8.050000 8.150000 8.250000 8.350000 8.450000 8.550000 8.650000 8.750000 8.850000 8.950000 9.050000 9.150000 9.250000 9.350000 9.450000 9.550000 9.650000 9.750000 9.850000 9.950000 10.050000 10.150000 10.250000 10.350000 10.450000 10.550000 10.650000 10.750000 10.850000 10.950000 11.050000 11.150000 11.250000 11.350000 11.450000 11.550000 11.650000 11.750000 11.850000 11.950000 12.050000 12.150000 12.250000 12.350000 12.450000 12.550000 12.650000 12.750000 12.850000 12.950000 13.050000 13.150000 13.250000 13.350000 13.450000 13.550000 13.650000 13.750000 13.850000 13.950000 14.050000 14.150000 14.250000 14.350000 14.450000 14.550000 14.650000 14.750000 14.850000 14.950000 15.050000 15.150000 15.250000 15.350000 15.450000 15.550000 15.650000 15.750000 15.850000 15.950000 16.050000 16.150000 16.250000 16.350000 16.450000 16.550000 16.650000 16.750000 16.850000 16.950000 17.050000 17.150000 17.250000 17.350000 17.450000 17.550000 17.650000 17.750000 17.850000 17.950000 18.050000 18.150000 18.250000 18.350000 18.450000 18.550000 18.650000 18.750000 18.850000 18.950000 19.050000 19.150000 19.250000 19.350000 19.450000 19.550000 19.650000 19.750000 19.850000 19.950000 
Y_COORDINATES 50 double
0.050000 0.150000 0.250000 0.350000 0.450000 0.550000 0.650000 0.750000 0.850000 0.950000 1.050000 1.150000 1.250000 1.350000 1.450000 1.550000 1.650000 1.750000 1.850000 1.950000 2.050000 2.150000 2.250000 2.350000 2.450000 2.550000 2.650000 2.750000 2.850000 2.950000 3.050000 3.150000 3.250000 3.350000 3.450000 3.550000 3.650000 3.750000 3.850000 3.950000 4.050000 4.150000 4.250000 4.350000 4.450000 4.550000 4.650000 4.750000 4.850000 4.950000 
Z_COORDINATES 1 double
0.0
POINT_DATA 10000
SCALARS Skalarfeld double 1
LOOKUP_TABLE default
10.023220
10.010799
10.003739
9.999070
9.995648
9.992971
9.990786
9.988951
9.987384
9.986030
9.984854
9.983833
9.982953
9.982202
9.981577
9.981075
9.980696
9.980443
9.980323
9.980342
9.980511
9.980844
9.981357
9.982072
9.983013
9.984212
9.985707
9.987544
9.989780
9.992486
9.995746
9.999667
10.004376
10.010023
10.016775
10.024798
10.034210
10.044997
10.056852
10.068940
10.079640
10.084953
10.086188
10.103954
10.103953
0.000000
0.000000
0.000000
0.000000
0.000000
-2.598937
-2.598936
-2.601993
-2.605880
-2.607427
-2.607910
-2.610077
-2.610352
-2.610209
-2.618492
-2.638281
-2.670928
-2.719051
-2.784696
-2.868846
-2.970733
-3.087242
-3.212668
-3.338994
-3.456735
-3.556235
-3.629180
-3.669908
-3.676047
-3.648276
-3.591426
-3.511577
-3.415421
-3.309104
-3.197766
-3.085483
-2.975396
-2.869894
-2.770762
-2.679294
-2.596364
-2.522487
-2.457878
-2.402508
-2.356165
-2.318502
-2.289065
-2.267321
-2.252659
-2.244408
-2.241847
-2.244223
-2.250771
-2.260728
-2.273352
-2.287931
-2.303798
-2.320334
-2.336977
-2.353223
-2.368626
-2.382801
-2.395424
-2.406228
-2.415009
-2.421617
-2.425965
-2.428021
-2.427812
-2.425415
-2.420960
-2.414621
-2.406607
-2.397161
-2.386547
-2.375046
-2.362948
-2.350545
-2.338126
-2.325966
-2.314319
-2.303402
-2.293403
-2.284606
-2.277129
-2.271067
-2.266482
-2.263396
-2.261795
-2.261624
-2.262797
-2.265194
-2.268672
-2.273061
-2.278178
-2.283826
-2.289805
-2.295912
-2.301955
-2.307746
-2.313117
-2.317915
-2.322009
-2.325290
-2.327674
-2.329100
-2.329531
-2.328952
-2.327370
-2.324811
-2.321313
-2.316932
-2.311729
-2.305775
-2.299144
-2.291909
-2.284140
-2.275904
-2.267258
-2.258248
-2.248909
-2.239262
-2.229314
-2.219057
-2.208471
-2.197519
-2.186156
-2.174327
-2.161968
-2.149011
-2.135390
-2.121039
-2.105899
-2.089918
-2.073060
-2.055298
-2.036624
-2.017036
-1.996602
-1.975392
-1.953472
-1.930929
-1.907859
-1.884365
-1.860553
-1.836528
-1.812393
-1.788243
-1.764165
-1.740232
-1.716502
-1.693018
-1.669821
-1.646967
-1.625606
10.009135
10.005467
10.001312
9.997749
9.994815
9.992383
9.990334
9.988584
9.987071
9.985755
9.984605
9.983603
9.982735
9.981993
9.981372
9.980871
9.980489
9.980231
9.980101
9.980106
9.980257
9.980566
9.981049
9.981725
9.982618
9.983756
9.985173
9.986911
9.989020
9.991561
9.994607
9.998248
10.002591
10.007763
10.013905
10.021159
10.029640
10.039372
10.050171
10.061451
10.071842
10.079470
10.090710
10.115764
10.115763
0.000000
0.000000
0.000000
0.000000
0.000000
-2.602466
-2.602465
-2.605578
-2.608904
-2.609128
-2.606125
-2.608962
-2.608181
-2.608078
-2.615227
-2.633579
-2.665962
-2.715014
-2.782698
-2.869956
-2.976029
-3.097744
-3.229148
-3.361732
-3.485287
-3.589341
-3.664922
-3.706158
-3.711273
-3.680851
-3.619366
-3.534611
-3.433910
-3.323593
-3.208787
-3.093484
-2.980737
-2.872870
-2.771644
-2.678359
-2.593905
-2.518805
-2.453266
-2.397239
-2.350480
-2.312616
-2.283173
-2.261595
-2.247254
-2.239453
-2.237441
-2.240434
-2.247638
-2.258265
-2.271552
-2.286774
-2.303250
-2.320351
-2.337509
-2.354215
-2.370024
-2.384547
-2.397462
-2.408502
-2.417459
-2.424184
-2.428587
-2.430636
-2.430357
-2.427831
-2.423188
-2.416607
-2.408307
-2.398537
-2.387573
-2.375706
-2.363237
-2.350469
-2.337701
-2.325220
-2.313294
-2.302154
-2.292055
-2.283121
-2.275532
-2.269401
-2.264793
-2.261730
-2.260194
-2.260129
-2.261441
-2.264007
-2.267676
-2.272273
-2.277608
-2.283476
-2.289672
-2.295989
-2.302226
-2.308194
-2.313721
-2.318652
-2.322854
-2.326218
-2.328658
-2.330116
-2.330556
-2.329965
-2.328352
-2.325746
-2.322190
-2.317740
-2.312462
-2.306431
-2.299722
-2.292412
-2.284576
-2.276281
-2.267586
-2.258541
-2.249182
-2.239529
-2.229591
-2.219360
-2.208811
-2.197910
-2.186608
-2.174846
-2.162559
-2.149677
-2.136128
-2.121843
-2.106761
-2.090827
-2.074002
-2.056260
-2.037595
-2.018021
-1.997558
-1.976274
-1.954259
-1.931605
-1.908415
-1.884798
-1.860864
-1.836723
-1.812478
-1.788227
-1.764058
-1.740046
-1.716253
-1.692717
-1.669446
-1.646388
-1.625340
10.001811
10.000453
9.998103
9.995620
9.993309
9.991247
9.989429
9.987828
9.986416
9.985168
9.984066
9.983096
9.982249
9.981517
9.980898
9.980390
9.979994
9.979712
9.979550
9.979512
9.979609
9.979849
9.980246
9.980815
9.981572
9.982540
9.983740
9.985200
9.986948
9.989018
9.991443
9.994259
9.997504
10.001207
10.005393
10.010067
10.015214
10.020793
10.026790
10.033400
10.041668
10.055736
10.086954
10.143260
10.143259
0.000000
0.000000
0.000000
0.000000
0.000000
-2.603701
-2.603701
-2.607770
-2.609744
-2.609657
-2.606156
-2.605476
-2.604617
-2.604490
-2.609389
-2.625013
-2.656905
-2.708283
-2.780760
-2.875055
-2.990304
-3.123054
-3.266745
-3.411838
-3.546694
-3.659238
-3.739212
-3.780229
-3.780818
-3.741459
-3.670169
-3.575780
-3.466342
-3.348428
-3.227102
-3.106175
-2.988515
-2.876316
-2.771290
-2.674749
-2.587611
-2.510408
-2.443321
-2.386247
-2.338874
-2.300776
-2.271440
-2.250282
-2.236638
-2.229768
-2.228866
-2.233089
-2.241587
-2.253527
-2.268110
-2.284579
-2.302231
-2.320421
-2.338566
-2.356154
-2.372734
-2.387920
-2.401385
-2.412865
-2.422150
-2.429087
-2.433584
-2.435609
-2.435186
-2.432402
-2.427393
-2.420347
-2.411496
-2.401109
-2.389480
-2.376921
-2.363753
-2.350298
-2.336872
-2.323787
-2.311338
-2.299722
-2.289198
-2.279960
-2.272169
-2.265938
-2.261330
-2.258365
-2.257016
-2.257218
-2.258866
-2.261824
-2.265928
-2.270990
-2.276803
-2.283151
-2.289812
-2.296569
-2.303212
-2.309545
-2.315388
-2.320583
-2.324995
-2.328513
-2.331053
-2.332557
-2.332996
-2.332361
-2.330666
-2.327947
-2.324252
-2.319645
-2.314200
-2.307995
-2.301114
-2.293641
-2.285655
-2.277230
-2.268430
-2.259306
-2.249899
-2.240230
-2.230308
-2.220122
-2.209647
-2.198844
-2.187659
-2.176028
-2.163882
-2.151142
-2.137733
-2.123577
-2.108606
-2.092759
-2.075991
-2.058273
-2.039567
-2.019888
-1.999299
-1.977862
-1.955663
-1.932802
-1.909391
-1.885547
-1.861388
-1.837031
-1.812584
-1.788149
-1.763819
-1.739674
-1.715780
-1.692181
-1.668878
-1.645805
-1.624809
9.997076
9.996435
9.995034
9.993319
9.991554
9.989866
9.988302
9.986877
9.985587
9.984425
9.983382
9.982452
9.981629
9.980908
9.980288
9.979768
9.979348
9.979031
9.978821
9.978722
9.978740
9.978883
9.979159
9.979576
9.980145
9.980874
9.981773
9.982845
9.984093
9.985505
9.987061
9.988715
9.990386
9.991948
9.993201
9.993850
9.993489
9.991608
9.987745
9.982008
9.976684
9.980228
10.012678
10.095494
10.095493
0.000000
0.000000
0.000000
0.000000
0.000000
-2.598414
-2.598413
-2.603496
-2.607040
-2.607467
-2.605926
-2.604457
-2.602560
-2.599716
-2.598106
-2.607427
-2.638518
-2.693743
-2.772937
-2.876729
-3.004623
-3.153034
-3.314628
-3.478385
-3.630451
-3.756094
-3.842868
-3.883589
-3.876892
-3.824830
-3.739431
-3.631509
-3.510057
-3.381838
-3.251724
-3.123219
-2.998910
-2.880807
-2.770553
-2.669507
-2.578655
-2.498557
-2.429358
-2.370876
-2.322681
-2.284275
-2.255101
-2.234542
-2.221901
-2.216373
-2.217069
-2.223060
-2.233411
-2.247223
-2.263642
-2.281875
-2.301186
-2.320904
-2.340432
-2.359248
-2.376902
-2.392998
-2.407217
-2.419298
-2.429033
-2.436257
-2.440879
-2.442866
-2.442246
-2.439104
-2.433589
-2.425900
-2.416289
-2.405047
-2.392494
-2.378972
-2.364827
-2.350402
-2.336042
-2.322084
-2.308729
-2.296357
-2.285229
-2.275546
-2.267464
-2.261094
-2.256497
-2.253684
-2.252619
-2.253219
-2.255363
-2.258895
-2.263635
-2.269373
-2.275880
-2.282917
-2.290245
-2.297630
-2.304849
-2.311696
-2.317982
-2.323543
-2.328241
-2.331965
-2.334631
-2.336187
-2.336606
-2.335890
-2.334061
-2.331161
-2.327251
-2.322403
-2.316700
-2.310231
-2.303090
-2.295369
-2.287156
-2.278532
-2.269568
-2.260321
-2.250833
-2.241131
-2.231221
-2.221091
-2.210713
-2.200041
-2.189017
-2.177571
-2.165623
-2.153088
-2.139879
-2.125910
-2.111099
-2.095379
-2.078696
-2.060968
-2.042173
-2.022384
-2.001637
-1.979997
-1.957555
-1.934418
-1.910709
-1.886556
-1.862090
-1.837437
-1.812717
-1.788038
-1.763498
-1.739183
-1.715165
-1.691496
-1.668188
-1.645193
-1.624016
9.993544
9.993179
9.992281
9.991071
9.989727
9.988363
9.987041
9.985793
9.984632
9.983564
9.982588
9.981704
9.980908
9.980200
9.979578
9.979044
9.978597
9.978241
9.977976
9.977806
9.977736
9.977768
9.977907
9.978156
9.978515
9.978983
9.979553
9.980209
9.980921
9.981640
9.982280
9.982712
9.982727
9.982008
9.980074
9.976198
9.969303
9.957811
9.939499
9.911491
9.870989
9.818657
9.769456
9.774044
9.774044
0.000000
0.000000
0.000000
0.000000
0.000000
-2.591631
-2.591631
-2.597841
-2.603647
-2.606850
-2.607719
-2.606971
-2.604051
-2.595689
-2.578328
-2.573391
-2.604849
-2.666966
-2.754161
-2.868611
-3.011714
-3.180103
-3.365619
-3.555340
-3.732210
-3.877084
-3.973787
-4.014398
-3.995964
-3.927031
-3.823375
-3.698583
-3.562599
-3.422146
-3.281682
-3.144239
-3.012028
-2.886817
-2.770154
-2.663495
-2.567973
-2.484234
-2.412377
-2.352137
-2.302887
-2.264060
-2.235047
-2.215209
-2.203832
-2.200028
-2.202789
-2.211060
-2.223791
-2.239990
-2.258740
-2.279199
-2.300596
-2.322229
-2.343479
-2.363806
-2.382782
-2.399974
-2.415094
-2.427888
-2.438166
-2.445726
-2.450488
-2.452426
-2.451560
-2.447979
-2.441841
-2.433362
-2.422815
-2.410516
-2.396818
-2.382096
-2.366729
-2.351078
-2.335529
-2.320272
-2.305816
-2.292510
-2.280615
-2.270353
-2.261883
-2.255316
-2.250710
-2.248070
-2.247343
-2.248426
-2.251175
-2.255413
-2.260939
-2.267515
-2.274881
-2.282772
-2.290926
-2.299087
-2.307017
-2.314495
-2.321325
-2.327334
-2.332380
-2.336349
-2.339160
-2.340764
-2.341144
-2.340310
-2.338294
-2.335152
-2.330954
-2.325786
-2.319742
-2.312925
-2.305440
-2.297391
-2.288878
-2.279991
-2.270808
-2.261394
-2.251795
-2.242041
-2.232137
-2.222072
-2.211812
-2.201306
-2.190488
-2.179280
-2.167591
-2.155327
-2.142386
-2.128667
-2.114075
-2.098529
-2.081931
-2.064181
-2.045349
-2.025450
-2.004524
-1.982644
-1.959908
-1.936435
-1.912360
-1.887825
-1.862977
-1.837955
-1.812892
-1.787908
-1.763111
-1.738591
-1.714423
-1.690663
-1.667337
-1.644411
-1.622948
9.990693
9.990457
9.989840
9.988958
9.987922
9.986819
9.985707
9.984623
9.983588
9.982614
9.981706
9.980868
9.980102
9.979407
9.978784
9.978235
9.977760
9.977361
9.977039
9.976795
9.976632
9.976549
9.976547
9.976624
9.976773
9.976983
9.977234
9.977494
9.977710
9.977796
9.977622
9.976985
9.975571
9.972898
9.968219
9.960368
9.947498
9.926611
9.892658
9.836669
9.741481
9.571161
9.244708
8.863424
3.558612
-3.444262
-3.286445
-3.271737
-3.256492
-3.180787
-2.796090
-2.589396
-2.595143
-2.604259
-2.610893
-2.614188
-2.614657
-2.612908
-2.601406
-2.549249
-2.513116
-2.553160
-2.628964
-2.723221
-2.847391
-3.007566
-3.199991
-3.415479
-3.638914
-3.849193
-4.019980
-4.128855
-4.167125
-4.132349
-4.041867
-3.916451
-3.772455
-3.620455
-3.466759
-3.315173
-3.168080
-3.027262
-2.894229
-2.770343
-2.657200
-2.556165
-2.468147
-2.393123
-2.330861
-2.280295
-2.240906
-2.211991
-2.192916
-2.182976
-2.181250
-2.186572
-2.197662
-2.213305
-2.232398
-2.253953
-2.277079
-2.300964
-2.324859
-2.348128
-2.370154
-2.390561
-2.409044
-2.425243
-2.438874
-2.449698
-2.457609
-2.462506
-2.464382
-2.463220
-2.459119
-2.452250
-2.442844
-2.431196
-2.417656
-2.402609
-2.386474
-2.369659
-2.352509
-2.335292
-2.318632
-2.302920
-2.288503
-2.275682
-2.264703
-2.255734
-2.248889
-2.244232
-2.241758
-2.241392
-2.243009
-2.246439
-2.251473
-2.257906
-2.265456
-2.273819
-2.282702
-2.291814
-2.300878
-2.309635
-2.317849
-2.325310
-2.331837
-2.337284
-2.341533
-2.344502
-2.346150
-2.346468
-2.345477
-2.343223
-2.339775
-2.335217
-2.329649
-2.323182
-2.315932
-2.308022
-2.299568
-2.290683
-2.281469
-2.272014
-2.262389
-2.252649
-2.242824
-2.232924
-2.222935
-2.212818
-2.202517
-2.191954
-2.181043
-2.169682
-2.157762
-2.145165
-2.131771
-2.117465
-2.102144
-2.085611
-2.067929
-2.049079
-2.029071
-2.007952
-1.985800
-1.962724
-1.938859
-1.914355
-1.889371
-1.864070
-1.838610
-1.813139
-1.787789
-1.762678
-1.737904
-1.713545
-1.689661
-1.666282
-1.643390
-1.621595
9.988281
9.988114
9.987666
9.987000
9.986185
9.985285
9.984348
9.983406
9.982485
9.981599
9.980756
9.979964
9.979226
9.978544
9.977920
9.977355
9.976850
9.976407
9.976026
9.975707
9.975450
9.975253
9.975113
9.975023
9.974972
9.974943
9.974907
9.974822
9.974619
9.974197
9.973397
9.971981
9.969576
9.965610
9.959180
9.948839
9.932207
9.905206
9.860431
9.783293
9.641430
9.350137
8.640985
6.183492
-1.746198
-3.444261
-3.286445
-3.271737
-3.256491
-3.180786
-3.002783
-2.781821
-2.718309
-2.692458
-2.669926
-2.647810
-2.626869
-2.608534
-2.583002
-2.501260
-2.429989
-2.490685
-2.590697
-2.682694
-2.812596
-2.991816
-3.211179
-3.460540
-3.722905
-3.974478
-4.177369
-4.299148
-4.331683
-4.277956
-4.163456
-4.014194
-3.849706
-3.680934
-3.513424
-3.350320
-3.193128
-3.043244
-2.902066
-2.770502
-2.650361
-2.543027
-2.449635
-2.370970
-2.306496
-2.254965
-2.215212
-2.186457
-2.168279
-2.160120
-2.160952
-2.169340
-2.183739
-2.202751
-2.225170
-2.249947
-2.276149
-2.302903
-2.329214
-2.354540
-2.378519
-2.400657
-2.420577
-2.437946
-2.452487
-2.463980
-2.472279
-2.477281
-2.478932
-2.477332
-2.472618
-2.464906
-2.454433
-2.441523
-2.426559
-2.409966
-2.392213
-2.373590
-2.354569
-2.335688
-2.317453
-2.300290
-2.284588
-2.270685
-2.258848
-2.249258
-2.242042
-2.237251
-2.234885
-2.234874
-2.237054
-2.241219
-2.247113
-2.254571
-2.263219
-2.272700
-2.282699
-2.292892
-2.302975
-2.312668
-2.321714
-2.329888
-2.336997
-2.342898
-2.347455
-2.350593
-2.352274
-2.352502
-2.351310
-2.348761
-2.344939
-2.339944
-2.333893
-2.326916
-2.319148
-2.310728
-2.301789
-2.292460
-2.282855
-2.273073
-2.263196
-2.253283
-2.243372
-2.233473
-2.223571
-2.213625
-2.203568
-2.193316
-2.182767
-2.171809
-2.160315
-2.148149
-2.135169
-2.121237
-2.106111
-2.089779
-2.072208
-2.053364
-2.033255
-2.011929
-1.989476
-1.966018
-1.941706
-1.916710
-1.891211
-1.865391
-1.839427
-1.813486
-1.787711
-1.762231
-1.737153
-1.712554
-1.688494
-1.665004
-1.642093
-1.619948
9.986177
9.986051
9.985711
9.985190
9.984535
9.983790
9.982992
9.982171
9.981349
9.980540
9.979757
9.979007
9.978295
9.977624
9.976997
9.976416
9.975882
9.975394
9.974954
9.974561
9.974211
9.973903
9.973631
9.973385
9.973152
9.972911
9.972631
9.972265
9.971745
9.970966
9.969774
9.967932
9.965082
9.960665
9.953798
9.943052
9.926039
9.898606
9.853123
9.774578
9.630636
9.340126
8.677825
6.901053
0.386683
-2.491661
-3.118542
-3.273189
-3.331447
-3.357724
-3.355178
-3.336701
-3.263082
-3.153947
-3.037907
-2.930245
-2.835518
-2.748845
-2.655472
-2.542031
-2.472255
-2.491440
-2.546815
-2.630450
-2.778147
-2.979612
-3.221068
-3.497731
-3.795713
-4.094628
-4.336177
-4.471813
-4.499336
-4.429761
-4.291183
-4.116889
-3.931274
-3.745390
-3.563461
-3.388052
-3.219772
-3.059660
-2.909072
-2.769277
-2.641671
-2.527712
-2.428947
-2.346418
-2.279771
-2.227326
-2.187209
-2.158535
-2.141337
-2.135365
-2.139424
-2.151585
-2.169884
-2.192737
-2.218888
-2.247259
-2.276925
-2.306488
-2.335487
-2.363323
-2.389465
-2.413449
-2.434895
-2.453486
-2.468957
-2.481100
-2.489762
-2.494848
-2.496322
-2.494236
-2.488694
-2.479938
-2.468257
-2.453912
-2.437343
-2.418984
-2.399205
-2.378591
-2.357623
-2.336864
-2.316837
-2.298019
-2.280845
-2.265691
-2.252850
-2.242531
-2.234866
-2.229911
-2.227650
-2.227987
-2.230746
-2.235697
-2.242574
-2.251093
-2.260879
-2.271555
-2.282762
-2.294146
-2.305364
-2.316098
-2.326071
-2.335033
-2.342778
-2.349190
-2.354082
-2.357390
-2.359089
-2.359191
-2.357749
-2.354840
-2.350568
-2.345050
-2.338430
-2.330853
-2.322477
-2.313460
-2.303955
-2.294106
-2.284042
-2.273878
-2.263704
-2.253588
-2.243572
-2.233672
-2.223870
-2.214123
-2.204356
-2.194472
-2.184359
-2.173888
-2.162914
-2.151278
-2.138816
-2.125271
-2.110484
-2.094432
-2.077028
-2.058225
-2.038028
-2.016489
-1.993709
-1.969826
-1.945013
-1.919463
-1.893381
-1.866974
-1.840441
-1.813969
-1.787708
-1.761806
-1.736373
-1.711485
-1.687195
-1.663528
-1.640493
-1.617999
9.984303
9.984205
9.983935
9.983515
9.982976
9.982349
9.981661
9.980938
9.980199
9.979458
9.978727
9.978014
9.977324
9.976662
9.976031
9.975432
9.974867
9.974336
9.973838
9.973371
9.972934
9.972520
9.972125
9.971736
9.971341
9.970919
9.970440
9.969861
9.969124
9.968141
9.966785
9.964869
9.962111
9.958080
9.952102
9.943087
9.929222
9.907360
9.871753
9.809050
9.687825
9.425441
8.751092
6.315344
-1.649146
-3.430938
-3.318530
-3.366372
-3.464895
-3.632209
-3.864059
-4.169680
-4.097749
-3.887042
-3.663808
-3.464405
-3.297042
-3.142450
-2.979964
-2.813509
-2.684814
-2.624384
-2.623574
-2.682064
-2.807328
-2.997025
-3.244874
-3.536962
-3.858152
-4.185229
-4.464958
-4.630804
-4.661404
-4.582510
-4.421849
-4.222833
-4.014965
-3.812340
-3.618499
-3.432565
-3.253770
-3.082879
-2.921548
-2.771556
-2.634671
-2.512704
-2.407455
-2.320250
-2.250977
-2.197426
-2.156662
-2.127648
-2.111387
-2.108151
-2.116400
-2.133278
-2.156176
-2.183407
-2.213777
-2.246143
-2.279347
-2.312349
-2.344444
-2.374977
-2.403411
-2.429303
-2.452296
-2.472099
-2.488470
-2.501217
-2.510194
-2.515311
-2.516533
-2.513900
-2.507526
-2.497629
-2.484501
-2.468525
-2.450106
-2.429699
-2.407821
-2.385025
-2.361892
-2.339013
-2.316957
-2.296259
-2.277407
-2.260821
-2.246829
-2.235664
-2.227465
-2.222288
-2.220098
-2.220781
-2.224142
-2.229922
-2.237817
-2.247478
-2.258501
-2.270475
-2.282993
-2.295660
-2.308096
-2.319954
-2.330926
-2.340745
-2.349193
-2.356102
-2.361331
-2.364804
-2.366499
-2.366441
-2.364695
-2.361360
-2.356561
-2.350442
-2.343161
-2.334891
-2.325814
-2.316110
-2.305953
-2.295505
-2.284914
-2.274308
-2.263789
-2.253436
-2.243299
-2.233394
-2.223706
-2.214188
-2.204758
-2.195310
-2.185714
-2.175824
-2.165474
-2.154480
-2.142623
-2.129554
-2.115258
-2.099582
-2.082417
-2.063704
-2.043441
-2.021687
-1.998554
-1.974202
-1.948829
-1.922656
-1.895919
-1.868851
-1.841679
-1.814607
-1.787811
-1.761441
-1.735608
-1.710389
-1.685825
-1.661926
-1.638674
-1.615812
9.982610
9.982529
9.982308
9.981960
9.981506
9.980967
9.980366
9.979722
9.979051
9.978366
9.977679
9.976997
9.976326
9.975670
9.975033
9.974416
9.973820
9.973245
9.972691
9.972154
9.971633
9.971121
9.970612
9.970095
9.969558
9.968983
9.968346
9.967614
9.966745
9.965682
9.964346
9.962630
9.960382
9.957383
9.953303
9.947629
9.939515
9.927486
9.908162
9.874643
9.811727
9.682193
9.393893
9.011525
3.681189
-3.430938
-3.318530
-3.366373
-3.464895
-3.632210
-4.403103
-4.942147
-4.630464
-4.385638
-4.142754
-3.932338
-3.782842
-3.648063
-3.478268
-3.273840
-3.073648
-2.919351
-2.834763
-2.833209
-2.918115
-3.081237
-3.310018
-3.592243
-3.913326
-4.246535
-4.539848
-4.727744
-4.770686
-4.697518
-4.526621
-4.310098
-4.086809
-3.874682
-3.675283
-3.484231
-3.298684
-3.119056
-2.947585
-2.786867
-2.639267
-2.506936
-2.392160
-2.297376
-2.223479
-2.167608
-2.125042
-2.094559
-2.079088
-2.079202
-2.092710
-2.115091
-2.142909
-2.174783
-2.209829
-2.246788
-2.284177
-2.321002
-2.356475
-2.389896
-2.420727
-2.448559
-2.473072
-2.494015
-2.511185
-2.524423
-2.533610
-2.538672
-2.539577
-2.536345
-2.529072
-2.517960
-2.503312
-2.485564
-2.465107
-2.442507
-2.418312
-2.393131
-2.367596
-2.342344
-2.318003
-2.295181
-2.274431
-2.256226
-2.240930
-2.228796
-2.219972
-2.214505
-2.212347
-2.213362
-2.217331
-2.223964
-2.232916
-2.243784
-2.256126
-2.269487
-2.283410
-2.297453
-2.311196
-2.324255
-2.336292
-2.347016
-2.356187
-2.363621
-2.369182
-2.372797
-2.374448
-2.374173
-2.372053
-2.368209
-2.362789
-2.355965
-2.347923
-2.338864
-2.328991
-2.318510
-2.307617
-2.296494
-2.285309
-2.274204
-2.263298
-2.252680
-2.242407
-2.232500
-2.222947
-2.213696
-2.204659
-2.195718
-2.186729
-2.177525
-2.167917
-2.157706
-2.146460
-2.134094
-2.120403
-2.105203
-2.088356
-2.069784
-2.049482
-2.027513
-2.004007
-1.979147
-1.953162
-1.926309
-1.898854
-1.871067
-1.843199
-1.815478
-1.788099
-1.761219
-1.734950
-1.709366
-1.684495
-1.660329
-1.636828
-1.613560
9.981063
9.980995
9.980808
9.980512
9.980120
9.979649
9.979115
9.978533
9.977917
9.977278
9.976627
9.975970
9.975313
9.974660
9.974015
9.973379
9.972752
9.972135
9.971526
9.970923
9.970323
9.969719
9.969106
9.968474
9.967813
9.967108
9.966344
9.965500
9.964557
9.963490
9.962281
9.960914
9.959388
9.957729
9.956006
9.954355
9.952992
9.952185
9.952184
9.952976
9.953381
9.950341
9.941790
9.946949
9.946949
0.000000
0.000000
0.000000
0.000000
0.000000
-4.811239
-4.811239
-4.708410
-4.615367
-4.324227
-4.124332
-4.067840
-4.051844
-3.953644
-3.760353
-3.519192
-3.290454
-3.122735
-3.046174
-3.071267
-3.191381
-3.389994
-3.648492
-3.948389
-4.262539
-4.544037
-4.735167
-4.792885
-4.722314
-4.564762
-4.350752
-4.127797
-3.918532
-3.723945
-3.536568
-3.351371
-3.168376
-2.990418
-2.820900
-2.663045
-2.520029
-2.395189
-2.291454
-2.209485
-2.146367
-2.098256
-2.065448
-2.052956
-2.056748
-2.074497
-2.100612
-2.131756
-2.167672
-2.207659
-2.249580
-2.291551
-2.332687
-2.371911
-2.408467
-2.441830
-2.471632
-2.497605
-2.519556
-2.537345
-2.550873
-2.560079
-2.564927
-2.565402
-2.561494
-2.553252
-2.540873
-2.524667
-2.505049
-2.482537
-2.457606
-2.430917
-2.403142
-2.374953
-2.347053
-2.320158
-2.294963
-2.272098
-2.252090
-2.235336
-2.222107
-2.212553
-2.206715
-2.204532
-2.205847
-2.210415
-2.217912
-2.227947
-2.240072
-2.253798
-2.268617
-2.284020
-2.299514
-2.314634
-2.328956
-2.342107
-2.353769
-2.363681
-2.371644
-2.377523
-2.381245
-2.382801
-2.382242
-2.379668
-2.375225
-2.369088
-2.361459
-2.352556
-2.342606
-2.331842
-2.320493
-2.308779
-2.296905
-2.285058
-2.273400
-2.262064
-2.251152
-2.240730
-2.230827
-2.221429
-2.212485
-2.203900
-2.195543
-2.187253
-2.178840
-2.170094
-2.160719
-2.150342
-2.138817
-2.125869
-2.111264
-2.094830
-2.076469
-2.056167
-2.033996
-2.010104
-1.984708
-1.958071
-1.930487
-1.902265
-1.873707
-1.845096
-1.816686
-1.788687
-1.761264
-1.734533
-1.708557
-1.683355
-1.658899
-1.635128
-1.611432
9.979638
9.979580
9.979418
9.979160
9.978814
9.978394
9.977911
9.977377
9.976805
9.976203
9.975580
9.974943
9.974296
9.973643
9.972988
9.972332
9.971675
9.971017
9.970356
9.969690
9.969016
9.968327
9.967618
9.966882
9.966109
9.965291
9.964418
9.963483
9.962486
9.961437
9.960368
9.959350
9.958519
9.958121
9.958581
9.960602
9.965306
9.974387
9.990666
10.018449
10.062517
10.128123
10.216918
10.318642
10.318642
0.000000
0.000000
0.000000
0.000000
0.000000
-4.831012
-4.831012
-4.782086
-4.676203
-4.455466
-4.286068
-4.199487
-4.316113
-4.317935
-4.159623
-3.904438
-3.626938
-3.392382
-3.245989
-3.208521
-3.278239
-3.438216
-3.665073
-3.933987
-4.215575
-4.469104
-4.647134
-4.713446
-4.655438
-4.518887
-4.327001
-4.123238
-3.931966
-3.754290
-3.580660
-3.404288
-3.224938
-3.046092
-2.871996
-2.706751
-2.554464
-2.419239
-2.304477
-2.211625
-2.139717
-2.086994
-2.053417
-2.039282
-2.043677
-2.061611
-2.087137
-2.119407
-2.159893
-2.206449
-2.254774
-2.302308
-2.348113
-2.391301
-2.431106
-2.467057
-2.498855
-2.526290
-2.549221
-2.567559
-2.581254
-2.590293
-2.594696
-2.594510
-2.589698
-2.580248
-2.566427
-2.548545
-2.526999
-2.502345
-2.475008
-2.445710
-2.415207
-2.384181
-2.353408
-2.323695
-2.295859
-2.270639
-2.248631
-2.230262
-2.215808
-2.205416
-2.199117
-2.196837
-2.198398
-2.203530
-2.211873
-2.222996
-2.236401
-2.251548
-2.267873
-2.284809
-2.301809
-2.318357
-2.333985
-2.348282
-2.360901
-2.371557
-2.380038
-2.386203
-2.389982
-2.391376
-2.390454
-2.387338
-2.382201
-2.375248
-2.366715
-2.356850
-2.345913
-2.334165
-2.321860
-2.309246
-2.296549
-2.283978
-2.271714
-2.259907
-2.248674
-2.238092
-2.228196
-2.218976
-2.210380
-2.202306
-2.194613
-2.187118
-2.179608
-2.171849
-2.163441
-2.154143
-2.143635
-2.131589
-2.117719
-2.101812
-2.083745
-2.063496
-2.041148
-2.016874
-1.990925
-1.963608
-1.935260
-1.906234
-1.876871
-1.847488
-1.818362
-1.789721
-1.761738
-1.734527
-1.708145
-1.682595
-1.657831
-1.633776
-1.609635
9.978320
9.978269
9.978125
9.977894
9.977583
9.977201
9.976757
9.976262
9.975723
9.975149
9.974548
9.973925
9.973284
9.972629
9.971962
9.971285
9.970598
9.969901
9.969191
9.968466
9.967722
9.966954
9.966157
9.965325
9.964449
9.963525
9.962550
9.961525
9.960463
9.959399
9.958401
9.957597
9.957216
9.957650
9.959557
9.964014
9.972726
9.988291
10.014384
10.056361
10.120976
10.212024
10.323293
10.426927
10.426927
0.000000
0.000000
0.000000
0.000000
0.000000
-4.975378
-4.975377
-4.963066
-4.893633
-4.729327
-4.536550
-4.474748
-4.525356
-4.572905
-4.421982
-4.159500
-3.851772
-3.568987
-3.367038
-3.276277
-3.300038
-3.421769
-3.615012
-3.850462
-4.096894
-4.318545
-4.477535
-4.544778
-4.508976
-4.393354
-4.239298
-4.070482
-3.910550
-3.760550
-3.609830
-3.450435
-3.281926
-3.108281
-2.934408
-2.765139
-2.605451
-2.460405
-2.334424
-2.230307
-2.148840
-2.089486
-2.051292
-2.034188
-2.037820
-2.055041
-2.082870
-2.120310
-2.165805
-2.215629
-2.266780
-2.318162
-2.368402
-2.415532
-2.458413
-2.496736
-2.530346
-2.559095
-2.582906
-2.601752
-2.615627
-2.624548
-2.628584
-2.627933
-2.622237
-2.611673
-2.596376
-2.576610
-2.552760
-2.525285
-2.495042
-2.462854
-2.429590
-2.395626
-2.361841
-2.329121
-2.298420
-2.270605
-2.246353
-2.226132
-2.210241
-2.198836
-2.191940
-2.189460
-2.191191
-2.196830
-2.205981
-2.218167
-2.232843
-2.249415
-2.267260
-2.285752
-2.304283
-2.322285
-2.339243
-2.354703
-2.368283
-2.379674
-2.388645
-2.395049
-2.398819
-2.399971
-2.398591
-2.394832
-2.388896
-2.381024
-2.371486
-2.360564
-2.348551
-2.335734
-2.322397
-2.308810
-2.295226
-2.281876
-2.268960
-2.256647
-2.245071
-2.234318
-2.224434
-2.215416
-2.207209
-2.199709
-2.192762
-2.186166
-2.179673
-2.173008
-2.165820
-2.157774
-2.148466
-2.137497
-2.124517
-2.109264
-2.091586
-2.071456
-2.048969
-2.024329
-1.997829
-1.969823
-1.940699
-1.910856
-1.880679
-1.850516
-1.820671
-1.791387
-1.762843
-1.735150
-1.708354
-1.682441
-1.657349
-1.632986
-1.608383
9.977096
9.977049
9.976919
9.976708
9.976423
9.976070
9.975656
9.975189
9.974676
9.974123
9.973538
9.972924
9.972286
9.971626
9.970946
9.970248
9.969532
9.968797
9.968040
9.967259
9.966450
9.965609
9.964730
9.963807
9.962835
9.961809
9.960728
9.959598
9.958439
9.957291
9.956236
9.955419
9.955096
9.955700
9.957953
9.963035
9.972825
9.990215
10.019402
10.065879
10.135048
10.228958
10.338885
10.435921
10.435920
0.000000
0.000000
0.000000
0.000000
0.000000
-5.232015
-5.232015
-5.310173
-5.336526
-5.229616
-4.972394
-4.719893
-4.622784
-4.645198
-4.496814
-4.242746
-3.924022
-3.611313
-3.371167
-3.243621
-3.235712
-3.329723
-3.496030
-3.702528
-3.917908
-4.111124
-4.252649
-4.320595
-4.307972
-4.225639
-4.107804
-3.980764
-3.859469
-3.743780
-3.622285
-3.486159
-3.334579
-3.171652
-3.002638
-2.832942
-2.668430
-2.515323
-2.379381
-2.264901
-2.174174
-2.107672
-2.064514
-2.042483
-2.045203
-2.063232
-2.093316
-2.133344
-2.180997
-2.233474
-2.288359
-2.343416
-2.396243
-2.445294
-2.490151
-2.530452
-2.565627
-2.595399
-2.619821
-2.639002
-2.652998
-2.661844
-2.665576
-2.664259
-2.658273
-2.647122
-2.630863
-2.609661
-2.583854
-2.553944
-2.520667
-2.484834
-2.447323
-2.409688
-2.372724
-2.336993
-2.303431
-2.272900
-2.246137
-2.223716
-2.206032
-2.193294
-2.185540
-2.182660
-2.184415
-2.190457
-2.200341
-2.213536
-2.229444
-2.247410
-2.266755
-2.286793
-2.306856
-2.326320
-2.344617
-2.361247
-2.375783
-2.387887
-2.397306
-2.403886
-2.407565
-2.408375
-2.406429
-2.401911
-2.395062
-2.386162
-2.375517
-2.363448
-2.350275
-2.336317
-2.321883
-2.307266
-2.292744
-2.278570
-2.264966
-2.252121
-2.240183
-2.229256
-2.219395
-2.210602
-2.202828
-2.195966
-2.189852
-2.184265
-2.178926
-2.173506
-2.167739
-2.161145
-2.153236
-2.143530
-2.131603
-2.117137
-2.099952
-2.080015
-2.057440
-2.032468
-2.005440
-1.976764
-1.946883
-1.916246
-1.885279
-1.854366
-1.823832
-1.793933
-1.764851
-1.736689
-1.709478
-1.683181
-1.657716
-1.632980
-1.607866
9.975956
9.975913