# vtk DataFile Version 3.0
Scalar Field
ASCII
DATASET RECTILINEAR_GRID
DIMENSIONS 200 50 1
X_COORDINATES 200 double
0.050000 0.150000 0.250000 0.350000 0.450000 0.550000 0.650000 0.750000 0.850000 0.950000 1.050000 1.150000 1.250000 1.350000 1.450000 1.550000 1.650000 1.750000 1.850000 1.950000 2.050000 2.150000 2.250000 2.350000 2.450000 2.550000 2.650000 2.750000 2.850000 2.950000 3.050000 3.150000 3.250000 3.350000 3.450000 3.550000 3.650000 3.750000 3.850000 3.950000 4.050000 4.150000 4.250000 4.350000 4.450000 4.550000 4.650000 4.750000 4.850000 4.950000 5.050000 5.150000 5.250000 5.350000 5.450000 5.550000 5.650000 5.750000 5.850000 5.950000 6.050000 6.150000 6.250000 6.350000 6.450000 6.550000 6.650000 6.750000 6.850000 6.950000 7.050000 7.150000 7.250000 7.350000 7.450000 7.550000 7.650000 7.750000 7.850000 7.950000 8.050000 8.150000 8.250000 8.350000 8.450000 8.550000 8.650000 8.750000 8.850000 8.950000 9.050000 9.150000 9.250000 9.350000 9.450000 9.550000 9.650000 9.750000 9.850000 9.950000 10.050000 10.150000 10.250000 10.350000 10.450000 10.550000 10.650000 10.750000 10.850000 10.950000 11.050000 11.150000 11.250000 11.350000 11.450000 11.550000 11.650000 11.750000 11.850000 11.950000 12.050000 12.150000 12.250000 12.350000 12.450000 12.550000 12.650000 12.750000 12.850000 12.950000 13.050000 13.150000 13.250000 13.350000 13.450000 13.550000 13.650000 13.750000 13.850000 13.950000 14.050000 14.150000 14.250000 14.350000 14.450000 14.550000 14.650000 14.750000 14.850000 14.950000 15.050000 15.150000 15.250000 15.350000 15.450000 15.550000 15.650000 15.750000 15.850000 15.950000 16.050000 16.150000 16.250000 16.350000 16.450000 16.550000 16.650000 16.750000 16.850000 16.950000 17.050000 17.150000 17.250000 17.350000 17.450000 17.550000 17.650000 17.750000 17.850000 17.950000 18.050000 18.150000 18.250000 18.350000 18.450000 18.550000 18.650000 18.750000 18.850000 18.950000 19.050000 19.150000 19.250000 19.350000 19.450000 19.550000 19.650000 19.750000 19.850000 19.950000 
Y_COORDINATES 50 double
0.050000 0.150000 0.250000 0.350000 0.450000 0.550000 0.650000 0.750000 0.850000 0.950000 1.050000 1.150000 1.250000 1.350000 1.450000 1.550000 1.650000 1.750000 1.850000 1.950000 2.050000 2.150000 2.250000 2.350000 2.450000 2.550000 2.650000 2.750000 2.850000 2.950000 3.050000 3.150000 3.250000 3.350000 3.450000 3.550000 3.650000 3.750000 3.850000 3.950000 4.050000 4.150000 4.250000 4.350000 4.450000 4.550000 4.650000 4.750000 4.850000 4.950000 
Z_COORDINATES 1 double
0.0
POINT_DATA 10000
SCALARS Skalarfeld double 1
LOOKUP_TABLE default
0.000000
0.000000
0.000000
0.000000
0.000000
0.000000
0.000000
0.000000
0.000000
0.000000
0.000000
0.000000
0.000000
0.000000
0.000000
0.000000
0.000000
0.000000
0.000000
0.000000
0.000000
0.000000
0.000000
0.000000
0.000000
0.000000
0.000000
0.000000
0.000000
0.000000
0.000000
0.000000
0.000000
0.000000
0.000000
0.000000
0.000000
0.000000
0.000000
0.000000
0.000000
0.000000
0.000000
0.000000
0.000000
0.000000
0.000000
0.000000
0.000000
0.000000
0.000000
0.000000
0.000000
0.000000
0.000000
0.000000
0.000000
0.000000
0.000000
0.000000
0.000000
0.000000
0.000000
0.000000
0.000000
0.000000
0.000000
0.000000
0.000000
0.000000
0.000000
0.000000
0.000000
0.000000
0.000000
0.000000
0.000000
0.000000
0.000000
0.000000
0.000000
0.000000
0.000000
0.000000
0.000000
0.000000
0.000000
0.000000
0.000000
0.000000
0.000000
0.000000
0.000000
0.000000
0.000000
0.000000
0.000000
0.000000
0.000000
0.000000
0.000000
0.000000
0.000000
0.000000
0.000000
0.000000
0.000000
0.000000
0.000000
0.000000
0.000000
0.000000
0.000000
0.000000
0.000000
0.000000
0.000000
0.000000
0.000000
0.000000
0.000000
0.000000
0.000000
0.000000
0.000000
0.000000
0.000000
0.000000
0.000000
0.000000
0.000000
0.000000
0.000000
0.000000
0.000000
0.000000
0.000000
0.000000
0.000000
0.000000
0.000000
0.000000
0.000000
0.000000
0.000000
0.000000
0.000000
0.000000
0.000000
0.000000
0.000000
0.000000
0.000000
0.000000
0.000000
0.000000
0.000000
0.000000
0.000000
0.000000
0.000000
0.000000
0.000000
0.000000
0.000000
0.000000
0.000000
0.000000
0.000000
0.000000
0.000000
0.000000
0.000000
0.000000
0.000000
0.000000
0.000000
0.000000
0.000000
0.000000
0.000000
0.000000
0.000000
0.000000
0.000000
0.000000
0.000000
0.000000
0.000000
0.000000
0.000000
0.000000
0.000000
-1.099052
-1.098588
-1.097228
-1.095146
-1.092477
-1.089295
-1.085641
0.000000
0.000000
0.000000
0.000000
0.000000
0.000000
0.000000
0.000000
0.000000
0.000000
0.000000
0.000000
0.000000
0.000000
0.000000
0.000000
0.000000
0.000000
0.000000
0.000000
0.000000
0.000000
0.000000
0.000000
0.000000
0.000000
0.000000
0.000000
0.000000
0.000000
0.000000
0.000000
0.000000
0.000000
0.000000
0.000000
0.000000
0.000000
0.000000
0.000000
0.000000
0.000000
0.000000
0.000000
0.000000
0.000000
0.000000
0.000000
0.000000
0.000000
0.000000
0.000000
0.000000
0.000000
0.000000
0.000000
0.000000
0.000000
0.000000
0.000000
0.000000
0.000000
0.000000
0.000000
0.000000
0.000000
0.000000
0.000000
0.000000
0.000000
0.000000
0.000000
0.000000
0.000000
0.000000
0.000000
0.000000
0.000000
0.000000
0.000000
0.000000
0.000000
0.000000
0.000000
0.000000
0.000000
0.000000
0.000000
0.000000
0.000000
0.000000
0.000000
0.000000
0.000000
0.000000
0.000000
0.000000
0.000000
0.000000
0.000000
0.000000
0.000000
0.000000
0.000000
0.000000
0.000000
0.000000
0.000000
0.000000
0.000000
0.000000
0.000000
0.000000
0.000000
0.000000
0.000000
0.000000
0.000000
0.000000
0.000000
0.000000
0.000000
0.000000
0.000000
0.000000
0.000000
0.000000
0.000000
0.000000
0.000000
0.000000
0.000000
0.000000
0.000000
0.000000
0.000000
0.000000
0.000000
0.000000
0.000000
0.000000
0.000000
0.000000
0.000000
0.000000
0.000000
0.000000
0.000000
0.000000
0.000000
0.000000
0.000000
0.000000
0.000000
0.000000
0.000000
0.000000
0.000000
0.000000
0.000000
0.000000
0.000000
0.000000
0.000000
0.000000
0.000000
0.000000
0.000000
0.000000
0.000000
0.000000
-1.060174
-1.060591
-1.064436
-1.069672
-1.075522
-1.081418
-1.086940
-1.091871
-1.096196
-1.099972
-1.103242
-1.106021
-1.108291
-1.110025
-1.111199
-1.111785
-1.111768
-1.111156
-1.109976
-1.108275
-1.106141
-1.101368
-1.099053
-1.098589
-1.097229
-1.095148
-1.092478
-1.089297
-1.085642
0.000000
0.000000
0.000000
0.000000
0.000000
0.000000
0.000000
0.000000
0.000000
0.000000
0.000000
0.000000
0.000000
0.000000
0.000000
0.000000
0.000000
0.000000
0.000000
0.000000
0.000000
0.000000
0.000000
0.000000
0.000000
0.000000
0.000000
0.000000
0.000000
0.000000
0.000000
0.000000
0.000000
0.000000
0.000000
0.000000
0.000000
0.000000
0.000000
0.000000
0.000000
0.000000
0.000000
0.000000
0.000000
0.000000
0.000000
0.000000
0.000000
0.000000
0.000000
0.000000
0.000000
0.000000
0.000000
0.000000
0.000000
0.000000
0.000000
0.000000
0.000000
0.000000
0.000000
0.000000
0.000000
0.000000
0.000000
0.000000
0.000000
0.000000
0.000000
0.000000
0.000000
0.000000
0.000000
0.000000
0.000000
0.000000
0.000000
0.000000
0.000000
0.000000
0.000000
0.000000
0.000000
0.000000
0.000000
0.000000
0.000000
0.000000
0.000000
0.000000
0.000000
0.000000
0.000000
0.000000
0.000000
0.000000
0.000000
0.000000
0.000000
0.000000
0.000000
0.000000
0.000000
0.000000
0.000000
0.000000
0.000000
0.000000
0.000000
0.000000
0.000000
0.000000
0.000000
0.000000
0.000000
0.000000
0.000000
0.000000
0.000000
0.000000
0.000000
0.000000
0.000000
0.000000
-0.973316
-0.973121
-0.975101
-0.978450
-0.982901
-0.988444
-0.995167
-1.003069
-1.012190
-1.022059
-1.031811
-1.040332
-1.046545
-1.049824
-1.050168
-1.048165
-1.044662
-1.040256
-1.035352
-1.030230
-1.025090
-1.020076
-1.015293
-1.010790
-1.006760
-1.003233
-1.000243
-0.997820
-0.995987
-0.994766
-0.994170
-0.994209
-0.994887
-0.996207
-0.998163
-1.000751
-1.003960
-1.007775
-1.012181
-1.017160
-1.022698
-1.028777
-1.035353
-1.042370
-1.054960
-1.060175
-1.060592
-1.064437
-1.069673
-1.075523
-1.081419
-1.086941
-1.091872
-1.096198
-1.099973
-1.103243
-1.106022
-1.108292
-1.110026
-1.111200
-1.111786
-1.111769
-1.111157
-1.109977
-1.108276
-1.106142
-1.103685
-1.100652
-1.099302
-1.097745
-1.095556
-1.092808
-1.089564
-1.085750
0.000000
0.000000
0.000000
0.000000
0.000000
0.000000
0.000000
0.000000
0.000000
0.000000
0.000000
0.000000
0.000000
0.000000
0.000000
0.000000
0.000000
0.000000
0.000000
0.000000
0.000000
0.000000
0.000000
0.000000
0.000000
0.000000
0.000000
0.000000
0.000000
0.000000
0.000000
0.000000
0.000000
0.000000
0.000000
0.000000
0.000000
0.000000
0.000000
0.000000
0.000000
0.000000
0.000000
0.000000
0.000000
0.000000
0.000000
0.000000
0.000000
0.000000
0.000000
0.000000
0.000000
0.000000
0.000000
0.000000
0.000000
0.000000
0.000000
0.000000
0.000000
0.000000
0.000000
0.000000
0.000000
0.000000
0.000000
0.000000
0.000000
0.000000
0.000000
0.000000
0.000000
0.000000
0.000000
0.000000
0.000000
0.000000
0.000000
0.000000
0.000000
0.000000
0.000000
0.000000
0.000000
0.000000
0.000000
0.000000
0.000000
0.000000
0.000000
0.000000
0.000000
0.000000
0.000000
0.000000
0.000000
0.000000
0.000000
0.000000
0.000000
0.000000
0.000000
0.000000
0.000000
0.000000
0.000000
0.000000
0.000000
0.000000
0.000000
0.000000
0.000000
0.000000
0.000000
0.000000
0.000000
0.000000
0.000000
0.000000
0.000000
-0.969959
-0.967673
-0.967016
-0.967618
-0.971274
-0.973316
-0.973121
-0.975100
-0.978450
-0.982901
-0.988444
-0.995167
-1.003069
-1.012190
-1.022059
-1.031811
-1.040332
-1.046545
-1.049824
-1.050168
-1.048165
-1.044663
-1.040256
-1.035352
-1.030231
-1.025090
-1.020077
-1.015293
-1.010790
-1.006760
-1.003234
-1.000244
-0.997820
-0.995988
-0.994767
-0.994171
-0.994209
-0.994888
-0.996207
-0.998164
-1.000752
-1.003960
-1.007776
-1.012182
-1.017161
-1.022699
-1.028778
-1.035354
-1.042371
-1.049746
-1.056068
-1.059258
-1.063659
-1.069232
-1.075435
-1.081624
-1.087313
-1.092310
-1.096648
-1.100420
-1.103696
-1.106503
-1.108802
-1.110564
-1.111753
-1.112345
-1.112332
-1.111717
-1.110520
-1.108780
-1.106547
-1.103897
-1.101391
-1.100011
-1.098343
-1.096058
-1.093212
-1.089827
-1.085610
0.000000
0.000000
0.000000
0.000000
0.000000
0.000000
0.000000
0.000000
0.000000
0.000000
0.000000
0.000000
0.000000
0.000000
0.000000
0.000000
0.000000
0.000000
0.000000
0.000000
0.000000
0.000000
0.000000
0.000000
0.000000
0.000000
0.000000
0.000000
0.000000
0.000000
0.000000
0.000000
0.000000
0.000000
0.000000
0.000000
0.000000
0.000000
0.000000
0.000000
0.000000
0.000000
0.000000
0.000000
0.000000
0.000000
0.000000
0.000000
0.000000
0.000000
0.000000
0.000000
0.000000
0.000000
0.000000
0.000000
0.000000
0.000000
0.000000
0.000000
0.000000
0.000000
0.000000
0.000000
0.000000
0.000000
0.000000
0.000000
0.000000
0.000000
0.000000
0.000000
0.000000
0.000000
0.000000
0.000000
0.000000
0.000000
0.000000
0.000000
0.000000
0.000000
0.000000
0.000000
0.000000
0.000000
0.000000
0.000000
0.000000
0.000000
0.000000
0.000000
0.000000
0.000000
0.000000
0.000000
0.000000
0.000000
0.000000
0.000000
0.000000
0.000000
0.000000
0.000000
0.000000
0.000000
0.000000
0.000000
0.000000
0.000000
0.000000
0.000000
0.000000
-0.977174
-0.974175
-0.971331
-0.969098
-0.967621
-0.966953
-0.967099
-0.968975
-0.969959
-0.967673
-0.967016
-0.967618
-0.969232
-0.971382
-0.972320
-0.974348
-0.977507
-0.981840
-0.987299
-0.994077
-1.002247
-1.011787
-1.022303
-1.032924
-1.042270
-1.048973
-1.052288
-1.051912
-1.049445
-1.045651
-1.041054
-1.036017
-1.030799
-1.025582
-1.020498
-1.015645
-1.011122
-1.007047
-1.003471
-1.000432
-0.997961
-0.996082
-0.994815
-0.994175
-0.994172
-0.994811
-0.996093
-0.998016
-1.000572
-1.003751
-1.007539
-1.011921
-1.016884
-1.022413
-1.028466
-1.034957
-1.041676
-1.048256
-1.054028
-1.058564
-1.063341
-1.069128
-1.075523
-1.081906
-1.087773
-1.092907
-1.097337
-1.101176
-1.104505
-1.107334
-1.109680
-1.111494
-1.112729
-1.113356
-1.113366
-1.112769
-1.111591
-1.109885
-1.107737
-1.105302
-1.102949
-1.101105
-1.099097
-1.096601
-1.093554
-1.090020
-1.085709
3.115807
0.000000
0.000000
0.000000
0.000000
0.000000
0.000000
0.000000
0.000000
0.000000
0.000000
0.000000
0.000000
0.000000
0.000000
0.000000
0.000000
0.000000
0.000000
0.000000
0.000000
0.000000
0.000000
0.000000
0.000000
0.000000
0.000000
0.000000
0.000000
0.000000
0.000000
0.000000
0.000000
0.000000
0.000000
0.000000
0.000000
0.000000
0.000000
0.000000
0.000000
0.000000
0.000000
0.000000
0.000000
0.000000
0.000000
0.000000
0.000000
0.000000
0.000000
0.000000
0.000000
0.000000
0.000000
0.000000
0.000000
0.000000
0.000000
0.000000
0.000000
0.000000
0.000000
0.000000
0.000000
0.000000
0.000000
0.000000
0.000000
0.000000
0.000000
0.000000
0.000000
0.000000
0.000000
0.000000
0.000000
0.000000
0.000000
0.000000
0.000000
0.000000
0.000000
0.000000
0.000000
0.000000
0.000000
0.000000
0.000000
0.000000
0.000000
0.000000
0.000000
0.000000
0.000000
0.000000
0.000000
0.000000
0.000000
0.000000
0.000000
0.000000
0.000000
0.000000
0.000000
0.000000
0.000000
-1.000492
-0.995282
-0.989940
-0.985344
-0.981812
-0.978286
-0.977173
-0.974174
-0.971331
-0.969097
-0.967620
-0.966953
-0.967098
-0.967990
-0.968654
-0.967464
-0.966894
-0.967295
-0.968469
-0.969961
-0.971300
-0.973332
-0.976297
-0.980233
-0.985571
-0.992522
-1.001115
-1.011389
-1.022984
-1.034889
-1.045211
-1.052299
-1.054345
-1.053444
-1.050632
-1.046618
-1.041881
-1.036751
-1.031463
-1.026189
-1.021055
-1.016164
-1.011615
-1.007499
-1.003874
-1.000784
-0.998260
-0.996328
-0.995009
-0.994318
-0.994265
-0.994857
-0.996095
-0.997975
-1.000492
-1.003635
-1.007389
-1.011743
-1.016688
-1.022211
-1.028244
-1.034627
-1.041073
-1.047306
-1.053004
-1.058197
-1.063599
-1.069603
-1.076007
-1.082366
-1.088274
-1.093527
-1.098115
-1.102111
-1.105570
-1.108501
-1.110882
-1.112707
-1.114007
-1.114678
-1.114730
-1.114173
-1.113045
-1.111410
-1.109373
-1.107088
-1.104767
-1.102537
-1.100160
-1.097447
-1.094329
-1.090805
-1.086565
3.115807
1.922422
0.642597
1.021582
0.000000
0.000000
0.000000
0.000000
0.000000
0.000000
0.000000
0.000000
0.000000
0.000000
0.000000
0.000000
0.000000
0.000000
0.000000
0.000000
0.000000
0.000000
0.000000
0.000000
0.000000
0.000000
0.000000
0.000000
0.000000
0.000000
0.000000
0.000000
0.000000
0.000000
0.000000
0.000000
0.000000
0.000000
0.000000
0.000000
0.000000
0.000000
0.000000
0.000000
0.000000
0.000000
0.000000
0.000000
0.000000
0.000000
0.000000
0.000000
0.000000
0.000000
0.000000
0.000000
0.000000
0.000000
0.000000
0.000000
0.000000
0.000000
0.000000
0.000000
0.000000
0.000000
0.000000
0.000000
0.000000
0.000000
0.000000
0.000000
0.000000
0.000000
0.000000
0.000000
0.000000
0.000000
0.000000
0.000000
0.000000
0.000000
0.000000
0.000000
0.000000
0.000000
0.000000
0.000000
0.000000
0.000000
0.000000
0.000000
0.000000
0.000000
0.000000
0.000000
0.000000
0.000000
0.000000
0.000000
0.000000
0.000000
-1.039109
-1.026204
-1.015599
-1.008215
-1.002082
-1.000492
-0.995282
-0.989940
-0.985343
-0.981811
-0.979399
-0.977068
-0.974222
-0.971475
-0.969254
-0.967735
-0.966968
-0.966890
-0.967248
-0.967402
-0.966815
-0.966459
-0.966753
-0.967666
-0.968960
-0.970495
-0.972625
-0.975587
-0.979545
-0.984720
-0.991584
-1.000628
-1.011441
-1.023723
-1.036444
-1.046724
-1.052349
-1.054215
-1.053420
-1.050765
-1.046894
-1.042274
-1.037236
-1.032017
-1.026794
-1.021699
-1.016843
-1.012321
-1.008215
-1.004587
-1.001482
-0.998936
-0.996977
-0.995627
-0.994901
-0.994812
-0.995366
-0.996566
-0.998410
-1.000891
-1.003999
-1.007723
-1.012056
-1.016996
-1.022531
-1.028546
-1.034726
-1.040927
-1.047009
-1.052825
-1.058469
-1.064277
-1.070431
-1.076800
-1.083081
-1.088977
-1.094314
-1.099047
-1.103201
-1.106802
-1.109850
-1.112326
-1.114201
-1.115436
-1.116149
-1.116248
-1.115743
-1.114672
-1.113110
-1.111156
-1.108938
-1.106586
-1.104161
-1.101591
-1.098791
-1.095726
-1.092393
-1.088469
1.635708
0.729037
0.642597
1.021582
0.443695
0.014980
0.227732
0.416322
0.000000
0.000000
0.000000
0.000000
0.000000
0.000000
0.000000
0.000000
0.000000
0.000000
0.000000
0.000000
0.000000
0.000000
0.000000
0.000000
0.000000
0.000000
0.000000
0.000000
0.000000
0.000000
0.000000
0.000000
0.000000
0.000000
0.000000
0.000000
0.000000
0.000000
0.000000
0.000000
0.000000
0.000000
0.000000
0.000000
0.000000
0.000000
0.000000
0.000000
0.000000
0.000000
0.000000
0.000000
0.000000
0.000000
0.000000
0.000000
0.000000
0.000000
0.000000
0.000000
0.000000
0.000000
0.000000
0.000000
0.000000
0.000000
0.000000
0.000000
0.000000
0.000000
0.000000
0.000000
0.000000
0.000000
0.000000
0.000000
0.000000
0.000000
0.000000
0.000000
0.000000
0.000000
0.000000
0.000000
0.000000
0.000000
0.000000
0.000000
0.000000
0.000000
0.000000
0.000000
0.000000
0.000000
0.000000
0.000000
-1.090166
-1.070157
-1.054083
-1.043493
-1.037662
-1.037479
-1.039108
-1.026204
-1.015599
-1.008215
-1.003670
-1.000035
-0.995261
-0.990285
-0.985847
-0.982256
-0.979432
-0.976837
-0.974138
-0.971586
-0.969470
-0.967952
-0.967068
-0.966731
-0.966709
-0.966645
-0.966366
-0.966263
-0.966620
-0.967490
-0.968805
-0.970554
-0.972926
-0.976123
-0.980348
-0.985848
-0.992891
-1.001730
-1.012616
-1.024647
-1.035790
-1.044610
-1.050006
-1.052209
-1.051893
-1.049733
-1.046305
-1.042058
-1.037326
-1.032359
-1.027345
-1.022428
-1.017725
-1.013334
-1.009334
-1.005789
-1.002748
-1.000251
-0.998327
-0.996999
-0.996286
-0.996200
-0.996749
-0.997937
-0.999762
-1.002220
-1.005303
-1.009005
-1.013325
-1.018273
-1.023834
-1.029631
-1.035543
-1.041582
-1.047601
-1.053530
-1.059432
-1.065460
-1.071677
-1.077982
-1.084164
-1.090008
-1.095367
-1.100180
-1.104434
-1.108131
-1.111261
-1.113804
-1.115730
-1.117010
-1.117627
-1.117698
-1.117253
-1.116235
-1.114737
-1.112851
-1.110686
-1.108338
-1.105872
-1.103292
-1.100592
-1.097781
-1.094884
-1.091605
0.939034
0.686657
0.605456
0.501387
-0.134191
0.014980
0.227732
0.416322
0.069130
-0.132601
0.029468
0.178775
0.000000
0.000000
0.000000
0.000000
0.000000
0.000000
0.000000
0.000000
0.000000
0.000000
0.000000
0.000000
0.000000
0.000000
0.000000
0.000000
0.000000
0.000000
0.000000
0.000000
0.000000
0.000000
0.000000
0.000000
0.000000
0.000000
0.000000
0.000000
0.000000
0.000000
0.000000
0.000000
0.000000
0.000000
0.000000
0.000000
0.000000
0.000000
0.000000
0.000000
0.000000
0.000000
0.000000
0.000000
0.000000
0.000000
0.000000
0.000000
0.000000
0.000000
0.000000
0.000000
0.000000
0.000000
0.000000
0.000000
0.000000
0.000000
0.000000
0.000000
0.000000
0.000000
0.000000
0.000000
0.000000
0.000000
0.000000
0.000000
0.000000
0.000000
0.000000
0.000000
0.000000
0.000000
0.000000
0.000000
0.000000
0.000000
0.000000
-1.165918
-1.129022
-1.103342
-1.089590
-1.087490
-1.090166
-1.070157
-1.054083
-1.043493
-1.037662
-1.035849
-1.034893
-1.026181
-1.017066
-1.009823
-1.004506
-1.000044
-0.995400
-0.990770
-0.986549
-0.982942
-0.979898
-0.977157
-0.974556
-0.972185
-0.970204
-0.968723
-0.967761
-0.967246
-0.967018
-0.966893
-0.966814
-0.966947
-0.967465
-0.968445
-0.969909
-0.971906
-0.974570
-0.978070
-0.982593
-0.988336
-0.995475
-1.004091
-1.014001
-1.024390
-1.033956
-1.041605
-1.046646
-1.049074
-1.049268
-1.047719
-1.044900
-1.041212
-1.036978
-1.032449
-1.027820
-1.023243
-1.018843
-1.014720
-1.010955
-1.007616
-1.004754
-1.002412
-1.000621
-0.999406
-0.998788
-0.998779
-0.999388
-1.000618
-1.002470
-1.004939
-1.008021
-1.011709
-1.016006
-1.020924
-1.026274
-1.031772
-1.037524
-1.043424
-1.049376
-1.055335
-1.061327
-1.067405
-1.073573
-1.079743
-1.085763
-1.091474
-1.096753
-1.101532
-1.105777
-1.109471
-1.112597
-1.115132
-1.117054
-1.118342
-1.118982
-1.118976
-1.118388
-1.117439
-1.116011
-1.114204
-1.112125
-1.109859
-1.107500
-1.105101
-1.102719
-1.100420
-1.098277
-1.096181
0.623628
0.547722
0.468871
0.349023
0.117208
0.113910
0.171551
0.108523
-0.278062
-0.132601
0.029468
0.178775
-0.122796
-0.293817
-0.149124
-0.009219
0.000000
0.000000
0.000000
0.000000
0.000000
0.000000
0.000000
0.000000
0.000000
0.000000
0.000000
0.000000
0.000000
0.000000
0.000000
0.000000
0.000000
0.000000
0.000000
0.000000
0.000000
0.000000
0.000000
0.000000
0.000000
0.000000
0.000000
0.000000
0.000000
0.000000
0.000000
0.000000
0.000000
0.000000
0.000000
0.000000
0.000000
0.000000
0.000000
0.000000
0.000000
0.000000
0.000000
0.000000
0.000000
0.000000
0.000000
0.000000
0.000000
0.000000
0.000000
0.000000
0.000000
0.000000
0.000000
0.000000
0.000000
0.000000
0.000000
0.000000
0.000000
0.000000
0.000000
0.000000
0.000000
0.000000
0.000000
0.000000
0.000000
-1.243692
-1.194154
-1.160436
-1.143246
-1.138252
-1.154190
-1.165917
-1.129021
-1.103342
-1.089590
-1.084812
-1.083647
-1.070494
-1.056976
-1.046805
-1.040266
-1.036337
-1.032547
-1.025768
-1.018237
-1.011505
-1.005911
-1.001038
-0.996409
-0.991999
-0.987962
-0.984402
-0.981294
-0.978522
-0.976009
-0.973784
-0.971927
-0.970499
-0.969508
-0.968902
-0.968588
-0.968475
-0.968543
-0.968874
-0.969572
-0.970713
-0.972354
-0.974564
-0.977451
-0.981147
-0.985789
-0.991499
-0.998345
-1.006263
-1.014950
-1.023762
-1.031832
-1.038394
-1.042963
-1.045448
-1.046045
-1.045080
-1.042915
-1.039885
-1.036278
-1.032331
-1.028236
-1.024149
-1.020196
-1.016481
-1.013088
-1.010085
-1.007528
-1.005462
-1.003920
-1.002931
-1.002513
-1.002680
-1.003442
-1.004800
-1.006752
-1.009294
-1.012415
-1.016103
-1.020343
-1.025117
-1.030150
-1.035498
-1.041088
-1.046836
-1.052671
-1.058553
-1.064475
-1.070440
-1.076419
-1.082336
-1.088077
-1.093521
-1.098569
-1.103150
-1.107224
-1.110761
-1.113740
-1.116139
-1.117941
-1.119135
-1.119722
-1.119711
-1.119128
-1.117982
-1.116508
-1.114872
-1.112959
-1.110872
-1.108776
-1.106748
-1.104911
-1.103401
-1.102377
-1.102244
0.451555
0.422095
0.366849
0.288959
0.182058
0.134226
0.109590
0.035171
-0.101285
-0.076359
-0.023233
-0.084857
-0.424368
-0.293816
-0.149123
-0.009219
-0.322380
-0.528998
-0.403950
-0.308131
-0.195523
0.000000
0.000000
0.000000
0.000000
0.000000
0.000000
0.000000
0.000000
0.000000
0.000000
0.000000
0.000000
0.000000
0.000000
0.000000
0.000000
0.000000
0.000000
0.000000
0.000000
0.000000
0.000000
0.000000
0.000000
0.000000
0.000000
0.000000
0.000000
0.000000
0.000000
0.000000
0.000000
0.000000
0.000000
0.000000
0.000000
0.000000
0.000000
0.000000
0.000000
0.000000
0.000000
0.000000
0.000000
0.000000
0.000000
0.000000
0.000000
0.000000
0.000000
0.000000
0.000000
0.000000
0.000000
0.000000
0.000000
0.000000
0.000000
-1.343565
-1.276444
-1.231374
-1.209195
-1.203636
-1.226972
-1.243692
-1.194153
-1.160435
-1.143245
-1.138252
-1.142462
-1.149396
-1.129246
-1.108894
-1.095109
-1.087082
-1.080779
-1.070505
-1.059514
-1.050200
-1.043148
-1.037742
-1.032585
-1.026429
-1.019873
-1.013681
-1.008157
-1.003200
-0.998619
-0.994364
-0.990477
-0.986999
-0.983917
-0.981181
-0.978753
-0.976643
-0.974886
-0.973510
-0.972517
-0.971876
-0.971536
-0.971454
-0.971626
-0.972098
-0.972938
-0.974210
-0.975975
-0.978303
-0.981277
-0.984988
-0.989522
-0.994932
-1.001205
-1.008211
-1.015650
-1.023037
-1.029782
-1.035354
-1.039404
-1.041821
-1.042691
-1.042225
-1.040681
-1.038323
-1.035394
-1.032108
-1.028642
-1.025147
-1.021749
-1.018550
-1.015638
-1.013082
-1.010941
-1.009261
-1.008079
-1.007423
-1.007313
-1.007763
-1.008780
-1.010364
-1.012509
-1.015204
-1.018431
-1.022161
-1.026353
-1.030936
-1.035831
-1.041037
-1.046469
-1.052050
-1.057714
-1.063418
-1.069134
-1.074835
-1.080481
-1.086005
-1.091317
-1.096327
-1.100953
-1.105136
-1.108833
-1.112013
-1.114654
-1.116739
-1.118258
-1.119206
-1.119594
-1.119446
-1.118806
-1.117734
-1.116313
-1.114539
-1.112677
-1.110922
-1.109306
-1.107829
-1.106748
-1.106269
-1.106673
-1.109350
0.342156
0.326979
0.290237
0.238132
0.173764
0.123054
0.079043
0.021944
-0.043938
-0.065267
-0.079140
-0.146318
-0.268972
-0.246617
-0.201640
-0.273668
-0.635540
-0.528997
-0.403950
-0.308130
-0.195523
-0.508738
-0.744329
-0.638058
-0.561722
-0.489137
-0.382647
0.000000
0.000000
0.000000
0.000000
0.000000
0.000000
0.000000
0.000000
0.000000
0.000000
0.000000
0.000000
0.000000
0.000000
0.000000
0.000000
0.000000
0.000000
0.000000
0.000000
0.000000
0.000000
0.000000
0.000000
0.000000
0.000000
0.000000
0.000000
0.000000
0.000000
0.000000
0.000000
0.000000
0.000000
0.000000
0.000000
0.000000
0.000000
0.000000
0.000000
0.000000
0.000000
0.000000
0.000000
0.000000
0.000000
-1.487223
-1.388872
-1.324089
-1.293497
-1.286761
-1.320012
-1.343564
-1.276444
-1.231373
-1.209195
-1.203636
-1.210250
-1.220703
-1.194497
-1.168390
-1.151764
-1.144106
-1.142148
-1.139540
-1.126794
-1.111767
-1.099171
-1.089555
-1.081119
-1.071754
-1.062232
-1.053654
-1.046433
-1.040279
-1.034500
-1.028541
-1.022516
-1.016747
-1.011424
-1.006553
-1.002073
-0.997951
-0.994193
-0.990809
-0.987792
-0.985116
-0.982764
-0.980738
-0.979050
-0.977713
-0.976725
-0.976068
-0.975716
-0.975650
-0.975875
-0.976421
-0.977333
-0.978663
-0.980463
-0.982789
-0.985701
-0.989257
-0.993496
-0.998423
-1.003981
-1.010026
-1.016300
-1.022444
-1.028050
-1.032750
-1.036288
-1.038559
-1.039594
-1.039518
-1.038514
-1.036780
-1.034513
-1.031895
-1.029086
-1.026225
-1.023433
-1.020811
-1.018445
-1.016407
-1.014757
-1.013543
-1.012804
-1.012568
-1.012857
-1.013683
-1.015050
-1.016955
-1.019389
-1.022330
-1.025750
-1.029608
-1.033841
-1.038355
-1.043202
-1.048321
-1.053629
-1.059048
-1.064513
-1.069973
-1.075385
-1.080710
-1.085902
-1.090900
-1.095637
-1.100043
-1.104059
-1.107634
-1.110734
-1.113336
-1.115424
-1.116990
-1.118033
-1.118562
-1.118598
-1.118174
-1.117341
-1.116165
-1.114728
-1.113125
-1.111508
-1.109960
-1.108619
-1.107788
-1.107640
-1.108331
-1.110261
-1.116136
0.263115
0.253608
0.228501
0.191722
0.146921
0.103139
0.060341
0.014264
-0.032665
-0.067892
-0.102417
-0.154040
-0.214919
-0.236169
-0.254445
-0.330231
-0.468311
-0.456688
-0.403812
-0.367423
-0.450780
-0.821954
-0.744329
-0.638058
-0.561722
-0.489137
-0.382647
-0.742675
-1.065460
-0.979215
-0.931638
-0.901063
-0.878942
-0.861005
-0.844552
-0.827379
-0.807116
-0.780370
-0.740826
-0.658062
0.000000
0.000000
0.000000
0.000000
0.000000
0.000000
0.000000
0.000000
0.000000
0.000000
0.000000
0.000000
0.000000
0.000000
0.000000
0.000000
0.000000
0.000000
0.000000
0.000000
0.000000
0.000000
0.000000
0.000000
0.000000
0.000000
-1.701631
-1.548033
-1.445475
-1.395832
-1.380925
-1.388658
-1.449313
-1.487222
-1.388871
-1.324089
-1.293497
-1.286760
-1.296458
-1.311246
-1.276394
-1.241908
-1.220505
-1.211249
-1.209577
-1.207095
-1.191215
-1.172707
-1.158135
-1.148644
-1.142377
-1.135718
-1.125305
-1.113322
-1.102063
-1.092202
-1.083171
-1.074221
-1.065502
-1.057448
-1.050267
-1.043831
-1.037815
-1.031952
-1.026230
-1.020767
-1.015660
-1.010937
-1.006583
-1.002585
-0.998940
-0.995647
-0.992698
-0.990083
-0.987789
-0.985817
-0.984169
-0.982849
-0.981854
-0.981174
-0.980799
-0.980720
-0.980946
-0.981496
-0.982405
-0.983708
-0.985448
-0.987664
-0.990395
-0.993669
-0.997496
-1.001853
-1.006666
-1.011797
-1.017041
-1.022132
-1.026783
-1.030736
-1.033803
-1.035892
-1.037005
-1.037217
-1.036651
-1.035454
-1.033782
-1.031784
-1.029601
-1.027358
-1.025168
-1.023129
-1.021325
-1.019830
-1.018703
-1.017996
-1.017748
-1.017989
-1.018739
-1.020010
-1.021805
-1.024114
-1.026923
-1.030203
-1.033917
-1.038013
-1.042419
-1.047041
-1.051933
-1.057048
-1.062294
-1.067589
-1.072864
-1.078059
-1.083122
-1.088006
-1.092662
-1.097040
-1.101087
-1.104753
-1.107994
-1.110778
-1.113085
-1.114902
-1.116228
-1.117069
-1.117439
-1.117361
-1.116871
-1.116015
-1.114853
-1.113461
-1.111930
-1.110369
-1.108906
-1.107675
-1.106846
-1.106628
-1.107187
-1.108899
-1.112129
-1.120174
0.202175
0.195570
0.177582
0.150477
0.116920
0.080781
0.043331
0.004244
-0.035374
-0.072481
-0.110216
-0.153235
-0.198150
-0.233583
-0.270956
-0.327733
-0.394711
-0.415079
-0.414113
-0.429028
-0.510130
-0.660306
-0.664421
-0.621140
-0.578198
-0.556585
-0.663317
-1.102703
-1.065460
-0.979215
-0.931638
-0.901062
-0.878942
-0.861005
-0.844551
-0.827379
-0.807116
-0.780370
-0.740825
-0.658061
-1.034668
-1.413539
-1.344138
-1.311388
-1.294956
-1.287212
-1.284727
-1.285731
-1.289218
-1.294583
-1.301454
-1.309604
-1.318908
-1.329294
-1.340789
-1.353420
-1.366725
-1.380906
-1.396174
-1.412807
-1.431194
-1.451902
-1.475802
-1.504349
-1.540238
-1.641412
-1.701631
-1.548032
-1.445475
-1.395832
-1.380925
-1.388658
-1.411402
-1.435349
-1.386229
-1.337799
-1.308523
-1.296410
-1.294613
-1.291690
-1.270938
-1.246909
-1.228331
-1.216604
-1.209195
-1.201381
-1.188832
-1.174602
-1.161881
-1.151703
-1.143283
-1.134901
-1.125219
-1.114786
-1.104573
-1.095036
-1.086085
-1.077490
-1.069280
-1.061611
-1.054573
-1.048104
-1.042052
-1.036283
-1.030761
-1.025521
-1.020605
-1.016034
-1.011808
-1.007923
-1.004374
-1.001159
-0.998271
-0.995703
-0.993448
-0.991503
-0.989868
-0.988542
-0.987524
-0.986807
-0.986387
-0.986263
-0.986441
-0.986938
-0.987777
-0.988985
-0.990589
-0.992615
-0.995085
-0.998009
-1.001377
-1.005151
-1.009256
-1.013574
-1.017941
-1.022162
-1.026029
-1.029358
-1.032010
-1.033909
-1.035042
-1.035451
-1.035220
-1.034458
-1.033284
-1.031823
-1.030194
-1.028510
-1.026875
-1.025382
-1.024115
-1.023146
-1.022538
-1.022341
-1.022599
-1.023341
-1.024588
-1.026350
-1.028626
-1.031405
-1.034664
-1.038369
-1.042474
-1.046919
-1.051633
-1.056530
-1.061578
-1.066797
-1.072070
-1.077309
-1.082438
-1.087389
-1.092104
-1.096530
-1.100619
-1.104328
-1.107615
-1.110447
-1.112798
-1.114655
-1.116012
-1.116877
-1.117264
-1.117200
-1.116715
-1.115853
-1.114666
-1.113215
-1.111574
-1.109831
-1.108085
-1.106452
-1.105063
-1.104063
-1.103620
-1.103928
-1.105204
-1.107737
-1.111853
-1.120812
0.153614
0.148729
0.135240
0.114474
0.088167
0.058340
0.026208
-0.007687
-0.042674
-0.077869
-0.114072
-0.152439
-0.191902
-0.229877
-0.269628
-0.315233
-0.361494
-0.393050
-0.417085
-0.450577
-0.509623
-0.583084
-0.609633
-0.608291
-0.606086
-0.630686
-0.733122
-0.925075
-0.961348
-0.939800
-0.913878
-0.892315
-0.874972
-0.860337
-0.846928
-0.833538
-0.819569
-0.806894
-0.808931
-0.937816
-1.411274
-1.413538
-1.344137
-1.311387
-1.294955
-1.287212
-1.284727
-1.285730
-1.289218
-1.294583
-1.301454
-1.309604
-1.318908
-1.329293
-1.340789
-1.353419
-1.366725
-1.380905
-1.396173
-1.412807
-1.431194
-1.451901
-1.475802
-1.504348
-1.540237
-1.581193
-1.611347
-1.535534
-1.461162
-1.415914
-1.396342
-1.394222
-1.400292
-1.400269
-1.373322
-1.341247
-1.316641
-1.301371