# vtk DataFile Version 3.0
Scalar Field
ASCII
DATASET RECTILINEAR_GRID
DIMENSIONS 200 50 1
X_COORDINATES 200 double
0.050000 0.150000 0.250000 0.350000 0.450000 0.550000 0.650000 0.750000 0.850000 0.950000 1.050000 1.150000 1.250000 1.350000 1.450000 1.550000 1.650000 1.750000 1.850000 1.950000 2.050000 2.150000 2.250000 2.350000 2.450000 2.550000 2.650000 2.750000 2.850000 2.950000 3.050000 3.150000 3.250000 3.350000 3.450000 3.550000 3.650000 3.750000 3.850000 3.950000 4.050000 4.150000 4.250000 4.350000 4.450000 4.550000 4.650000 4.750000 4.850000 4.950000 5.050000 5.150000 5.250000 5.350000 5.450000 5.550000 5.650000 5.750000 5.850000 5.950000 6.050000 6.150000 6.250000 6.350000 6.450000 6.550000 6.650000 6.750000 6.850000 6.950000 7.050000 7.150000 7.250000 7.350000 7.450000 7.550000 7.650000 7.750000 7.850000 7.950000 8.050000 8.150000 8.250000 8.350000 8.450000 8.550000 8.650000 8.750000 8.850000 8.950000 9.050000 9.150000 9.250000 9.350000 9.450000 9.550000 9.650000 9.750000 9.850000 9.950000 10.050000 10.150000 10.250000 10.350000 10.450000 10.550000 10.650000 10.750000 10.850000 10.950000 11.050000 11.150000 11.250000 11.350000 11.450000 11.550000 11.650000 11.750000 11.850000 11.950000 12.050000 12.150000 12.250000 12.350000 12.450000 12.550000 12.650000 12.750000 12.850000 12.950000 13.050000 13.150000 13.250000 13.350000 13.450000 13.550000 13.650000 13.750000 13.850000 13.950000 14.050000 14.150000 14.250000 14.350000 14.450000 14.550000 14.650000 14.750000 14.850000 14.950000 15.050000 15.150000 15.250000 15.350000 15.450000 15.550000 15.650000 15.750000 15.850000 15.950000 16.050000 16.150000 16.250000 16.350000 16.450000 16.550000 16.650000 16.750000 16.850000 16.950000 17.050000 17.150000 17.250000 17.350000 17.450000 17.550000 17.650000 17.750000 17.850000 17.950000 18.050000 18.150000 18.250000 18.350000 18.450000 18.550000 18.650000 18.750000 18.850000 18.950000 19.050000 19.150000 19.250000 19.350000 19.450000 19.550000 19.650000 19.750000 19.850000 19.950000 
Y_COORDINATES 50 double
0.050000 0.150000 0.250000 0.350000 0.450000 0.550000 0.650000 0.750000 0.850000 0.950000 1.050000 1.150000 1.250000 1.350000 1.450000 1.550000 1.650000 1.750000 1.850000 1.950000 2.050000 2.150000 2.250000 2.350000 2.450000 2.550000 2.650000 2.750000 2.850000 2.950000 3.050000 3.150000 3.250000 3.350000 3.450000 3.550000 3.650000 3.750000 3.850000 3.950000 4.050000 4.150000 4.250000 4.350000 4.450000 4.550000 4.650000 4.750000 4.850000 4.950000 
Z_COORDINATES 1 double
0.0
POINT_DATA 10000
SCALARS Skalarfeld double 1
LOOKUP_TABLE default
0.000000
0.000000
0.000000
0.000000
0.000000
0.000000
0.000000
0.000000
0.000000
0.000000
0.000000
0.000000
0.000000
0.000000
0.000000
0.000000
0.000000
0.000000
0.000000
0.000000
0.000000
0.000000
0.000000
0.000000
0.000000
0.000000
0.000000
0.000000
0.000000
0.000000
0.000000
0.000000
0.000000
0.000000
0.000000
0.000000
0.000000
0.000000
0.000000
0.000000
0.000000
0.000000
0.000000
0.000000
0.000000
0.000000
0.000000
0.000000
0.000000
0.000000
0.000000
0.000000
0.000000
0.000000
0.000000
0.000000
0.000000
0.000000
0.000000
0.000000
0.000000
0.000000
0.000000
0.000000
0.000000
0.000000
0.000000
0.000000
0.000000
0.000000
0.000000
0.000000
0.000000
0.000000
0.000000
0.000000
0.000000
0.000000
0.000000
0.000000
0.000000
0.000000
0.000000
0.000000
0.000000
0.000000
0.000000
0.000000
0.000000
0.000000
0.000000
0.000000
0.000000
0.000000
0.000000
0.000000
0.000000
0.000000
0.000000
0.000000
0.000000
0.000000
0.000000
0.000000
0.000000
0.000000
0.000000
0.000000
0.000000
0.000000
0.000000
0.000000
0.000000
0.000000
0.000000
0.000000
0.000000
0.000000
0.000000
0.000000
0.000000
0.000000
0.000000
0.000000
0.000000
0.000000
0.000000
0.000000
0.000000
0.000000
0.000000
0.000000
0.000000
0.000000
0.000000
0.000000
0.000000
0.000000
0.000000
0.000000
0.000000
0.000000
0.000000
0.000000
0.000000
0.000000
0.000000
0.000000
0.000000
0.000000
0.000000
0.000000
0.000000
0.000000
0.000000
0.000000
0.000000
0.000000
0.000000
0.000000
0.000000
0.000000
0.000000
0.000000
0.000000
0.000000
0.000000
0.000000
0.000000
0.000000
0.000000
0.000000
0.000000
0.000000
0.000000
0.000000
0.000000
0.000000
0.000000
0.000000
0.000000
0.000000
0.000000
0.000000
0.000000
0.000000
0.000000
0.000000
0.000000
0.000000
0.000000
0.000000
0.000000
-0.638480
-0.629660
-0.620833
-0.613089
-0.606658
-0.601505
-0.597528
0.000000
0.000000
0.000000
0.000000
0.000000
0.000000
0.000000
0.000000
0.000000
0.000000
0.000000
0.000000
0.000000
0.000000
0.000000
0.000000
0.000000
0.000000
0.000000
0.000000
0.000000
0.000000
0.000000
0.000000
0.000000
0.000000
0.000000
0.000000
0.000000
0.000000
0.000000
0.000000
0.000000
0.000000
0.000000
0.000000
0.000000
0.000000
0.000000
0.000000
0.000000
0.000000
0.000000
0.000000
0.000000
0.000000
0.000000
0.000000
0.000000
0.000000
0.000000
0.000000
0.000000
0.000000
0.000000
0.000000
0.000000
0.000000
0.000000
0.000000
0.000000
0.000000
0.000000
0.000000
0.000000
0.000000
0.000000
0.000000
0.000000
0.000000
0.000000
0.000000
0.000000
0.000000
0.000000
0.000000
0.000000
0.000000
0.000000
0.000000
0.000000
0.000000
0.000000
0.000000
0.000000
0.000000
0.000000
0.000000
0.000000
0.000000
0.000000
0.000000
0.000000
0.000000
0.000000
0.000000
0.000000
0.000000
0.000000
0.000000
0.000000
0.000000
0.000000
0.000000
0.000000
0.000000
0.000000
0.000000
0.000000
0.000000
0.000000
0.000000
0.000000
0.000000
0.000000
0.000000
0.000000
0.000000
0.000000
0.000000
0.000000
0.000000
0.000000
0.000000
0.000000
0.000000
0.000000
0.000000
0.000000
0.000000
0.000000
0.000000
0.000000
0.000000
0.000000
0.000000
0.000000
0.000000
0.000000
0.000000
0.000000
0.000000
0.000000
0.000000
0.000000
0.000000
0.000000
0.000000
0.000000
0.000000
0.000000
0.000000
0.000000
0.000000
0.000000
0.000000
0.000000
0.000000
0.000000
0.000000
0.000000
0.000000
0.000000
0.000000
0.000000
0.000000
0.000000
0.000000
0.000000
0.000000
0.000000
-0.721534
-0.702532
-0.686114
-0.673896
-0.665071
-0.658649
-0.653899
-0.650334
-0.647631
-0.645571
-0.644000
-0.642808
-0.641914
-0.641257
-0.640788
-0.640469
-0.640268
-0.640157
-0.640107
-0.640089
-0.640061
-0.639219
-0.638480
-0.629660
-0.620833
-0.613089
-0.606658
-0.601505
-0.597528
0.000000
0.000000
0.000000
0.000000
0.000000
0.000000
0.000000
0.000000
0.000000
0.000000
0.000000
0.000000
0.000000
0.000000
0.000000
0.000000
0.000000
0.000000
0.000000
0.000000
0.000000
0.000000
0.000000
0.000000
0.000000
0.000000
0.000000
0.000000
0.000000
0.000000
0.000000
0.000000
0.000000
0.000000
0.000000
0.000000
0.000000
0.000000
0.000000
0.000000
0.000000
0.000000
0.000000
0.000000
0.000000
0.000000
0.000000
0.000000
0.000000
0.000000
0.000000
0.000000
0.000000
0.000000
0.000000
0.000000
0.000000
0.000000
0.000000
0.000000
0.000000
0.000000
0.000000
0.000000
0.000000
0.000000
0.000000
0.000000
0.000000
0.000000
0.000000
0.000000
0.000000
0.000000
0.000000
0.000000
0.000000
0.000000
0.000000
0.000000
0.000000
0.000000
0.000000
0.000000
0.000000
0.000000
0.000000
0.000000
0.000000
0.000000
0.000000
0.000000
0.000000
0.000000
0.000000
0.000000
0.000000
0.000000
0.000000
0.000000
0.000000
0.000000
0.000000
0.000000
0.000000
0.000000
0.000000
0.000000
0.000000
0.000000
0.000000
0.000000
0.000000
0.000000
0.000000
0.000000
0.000000
0.000000
0.000000
0.000000
0.000000
0.000000
0.000000
0.000000
0.000000
0.000000
-0.846768
-0.843993
-0.838795
-0.830908
-0.822209
-0.813421
-0.805139
-0.797455
-0.790381
-0.783903
-0.777990
-0.772603
-0.767700
-0.763237
-0.759170
-0.755457
-0.752057
-0.748932
-0.746049
-0.743376
-0.740885
-0.738552
-0.736355
-0.734277
-0.732302
-0.730420
-0.728622
-0.726902
-0.725258
-0.723688
-0.722194
-0.720779
-0.719449
-0.718211
-0.717073
-0.716047
-0.715146
-0.714386
-0.713787
-0.713375
-0.713186
-0.713271
-0.713708
-0.714637
-0.718869
-0.721535
-0.702532
-0.686114
-0.673896
-0.665071
-0.658649
-0.653899
-0.650334
-0.647631
-0.645571
-0.644000
-0.642808
-0.641914
-0.641257
-0.640788
-0.640469
-0.640268
-0.640156
-0.640107
-0.640089
-0.640060
-0.639957
-0.636577
-0.629323
-0.621307
-0.613912
-0.607614
-0.602542
-0.598588
0.000000
0.000000
0.000000
0.000000
0.000000
0.000000
0.000000
0.000000
0.000000
0.000000
0.000000
0.000000
0.000000
0.000000
0.000000
0.000000
0.000000
0.000000
0.000000
0.000000
0.000000
0.000000
0.000000
0.000000
0.000000
0.000000
0.000000
0.000000
0.000000
0.000000
0.000000
0.000000
0.000000
0.000000
0.000000
0.000000
0.000000
0.000000
0.000000
0.000000
0.000000
0.000000
0.000000
0.000000
0.000000
0.000000
0.000000
0.000000
0.000000
0.000000
0.000000
0.000000
0.000000
0.000000
0.000000
0.000000
0.000000
0.000000
0.000000
0.000000
0.000000
0.000000
0.000000
0.000000
0.000000
0.000000
0.000000
0.000000
0.000000
0.000000
0.000000
0.000000
0.000000
0.000000
0.000000
0.000000
0.000000
0.000000
0.000000
0.000000
0.000000
0.000000
0.000000
0.000000
0.000000
0.000000
0.000000
0.000000
0.000000
0.000000
0.000000
0.000000
0.000000
0.000000
0.000000
0.000000
0.000000
0.000000
0.000000
0.000000
0.000000
0.000000
0.000000
0.000000
0.000000
0.000000
0.000000
0.000000
0.000000
0.000000
0.000000
0.000000
0.000000
0.000000
0.000000
0.000000
0.000000
0.000000
0.000000
0.000000
0.000000
-0.889193
-0.885190
-0.877575
-0.868279
-0.852782
-0.846769
-0.843994
-0.838796
-0.830909
-0.822210
-0.813422
-0.805140
-0.797455
-0.790382
-0.783904
-0.777990
-0.772604
-0.767701
-0.763238
-0.759171
-0.755457
-0.752057
-0.748933
-0.746050
-0.743377
-0.740886
-0.738552
-0.736355
-0.734277
-0.732303
-0.730421
-0.728623
-0.726903
-0.725258
-0.723688
-0.722194
-0.720779
-0.719449
-0.718211
-0.717073
-0.716048
-0.715147
-0.714386
-0.713787
-0.713375
-0.713186
-0.713271
-0.713709
-0.714637
-0.716203
-0.714541
-0.701564
-0.687685
-0.676172
-0.667322
-0.660653
-0.655625
-0.651811
-0.648896
-0.646658
-0.644938
-0.643618
-0.642613
-0.641855
-0.641290
-0.640875
-0.640568
-0.640325
-0.640091
-0.639772
-0.639172
-0.637806
-0.634378
-0.628726
-0.622203
-0.615849
-0.610226
-0.605607
-0.601776
0.000000
0.000000
0.000000
0.000000
0.000000
0.000000
0.000000
0.000000
0.000000
0.000000
0.000000
0.000000
0.000000
0.000000
0.000000
0.000000
0.000000
0.000000
0.000000
0.000000
0.000000
0.000000
0.000000
0.000000
0.000000
0.000000
0.000000
0.000000
0.000000
0.000000
0.000000
0.000000
0.000000
0.000000
0.000000
0.000000
0.000000
0.000000
0.000000
0.000000
0.000000
0.000000
0.000000
0.000000
0.000000
0.000000
0.000000
0.000000
0.000000
0.000000
0.000000
0.000000
0.000000
0.000000
0.000000
0.000000
0.000000
0.000000
0.000000
0.000000
0.000000
0.000000
0.000000
0.000000
0.000000
0.000000
0.000000
0.000000
0.000000
0.000000
0.000000
0.000000
0.000000
0.000000
0.000000
0.000000
0.000000
0.000000
0.000000
0.000000
0.000000
0.000000
0.000000
0.000000
0.000000
0.000000
0.000000
0.000000
0.000000
0.000000
0.000000
0.000000
0.000000
0.000000
0.000000
0.000000
0.000000
0.000000
0.000000
0.000000
0.000000
0.000000
0.000000
0.000000
0.000000
0.000000
0.000000
0.000000
0.000000
0.000000
0.000000
0.000000
0.000000
-0.966674
-0.962903
-0.955441
-0.944970
-0.933408
-0.922155
-0.911620
-0.895554
-0.889194
-0.885191
-0.877575
-0.868280
-0.858797
-0.849843
-0.845350
-0.839145
-0.831342
-0.822770
-0.814149
-0.805924
-0.798249
-0.791165
-0.784667
-0.778729
-0.773316
-0.768385
-0.763894
-0.759799
-0.756058
-0.752631
-0.749479
-0.746570
-0.743870
-0.741353
-0.738994
-0.736771
-0.734666
-0.732665
-0.730756
-0.728930
-0.727183
-0.725509
-0.723909
-0.722384
-0.720937
-0.719573
-0.718298
-0.717121
-0.716049
-0.715094
-0.714266
-0.713579
-0.713045
-0.712674
-0.712460
-0.712356
-0.712170
-0.711225
-0.707374
-0.698448
-0.687957
-0.678229
-0.670075
-0.663533
-0.658378
-0.654337
-0.651170
-0.648687
-0.646737
-0.645207
-0.644005
-0.643061
-0.642314
-0.641710
-0.641196
-0.640710
-0.640169
-0.639445
-0.638319
-0.636423
-0.633256
-0.628813
-0.623703
-0.618571
-0.613874
-0.609877
-0.606206
3.032955
0.000000
0.000000
0.000000
0.000000
0.000000
0.000000
0.000000
0.000000
0.000000
0.000000
0.000000
0.000000
0.000000
0.000000
0.000000
0.000000
0.000000
0.000000
0.000000
0.000000
0.000000
0.000000
0.000000
0.000000
0.000000
0.000000
0.000000
0.000000
0.000000
0.000000
0.000000
0.000000
0.000000
0.000000
0.000000
0.000000
0.000000
0.000000
0.000000
0.000000
0.000000
0.000000
0.000000
0.000000
0.000000
0.000000
0.000000
0.000000
0.000000
0.000000
0.000000
0.000000
0.000000
0.000000
0.000000
0.000000
0.000000
0.000000
0.000000
0.000000
0.000000
0.000000
0.000000
0.000000
0.000000
0.000000
0.000000
0.000000
0.000000
0.000000
0.000000
0.000000
0.000000
0.000000
0.000000
0.000000
0.000000
0.000000
0.000000
0.000000
0.000000
0.000000
0.000000
0.000000
0.000000
0.000000
0.000000
0.000000
0.000000
0.000000
0.000000
0.000000
0.000000
0.000000
0.000000
0.000000
0.000000
0.000000
0.000000
0.000000
0.000000
0.000000
0.000000
0.000000
0.000000
0.000000
-1.032438
-1.028621
-1.020644
-1.008873
-0.995676
-0.974682
-0.966675
-0.962904
-0.955442
-0.944971
-0.933409
-0.922156
-0.911621
-0.901915
-0.892582
-0.885991
-0.878191
-0.869312
-0.860364
-0.852210
-0.845975
-0.839258
-0.831623
-0.823416
-0.815125
-0.807106
-0.799546
-0.792518
-0.786041
-0.780102
-0.774673
-0.769716
-0.765192
-0.761060
-0.757277
-0.753805
-0.750608
-0.747650
-0.744901
-0.742333
-0.739921
-0.737644
-0.735485
-0.733427
-0.731460
-0.729575
-0.727766
-0.726030
-0.724365
-0.722772
-0.721253
-0.719813
-0.718455
-0.717186
-0.716011
-0.714934
-0.713959
-0.713084
-0.712301
-0.711583
-0.710869
-0.710020
-0.708741
-0.706438
-0.702147
-0.695346
-0.687320
-0.679374
-0.672237
-0.666160
-0.661133
-0.657037
-0.653723
-0.651050
-0.648896
-0.647158
-0.645751
-0.644603
-0.643651
-0.642835
-0.642093
-0.641355
-0.640532
-0.639499
-0.638087
-0.636076
-0.633273
-0.629717
-0.625721
-0.621667
-0.617878
-0.614558
-0.611319
3.032957
1.837009
0.556674
0.935392
0.000000
0.000000
0.000000
0.000000
0.000000
0.000000
0.000000
0.000000
0.000000
0.000000
0.000000
0.000000
0.000000
0.000000
0.000000
0.000000
0.000000
0.000000
0.000000
0.000000
0.000000
0.000000
0.000000
0.000000
0.000000
0.000000
0.000000
0.000000
0.000000
0.000000
0.000000
0.000000
0.000000
0.000000
0.000000
0.000000
0.000000
0.000000
0.000000
0.000000
0.000000
0.000000
0.000000
0.000000
0.000000
0.000000
0.000000
0.000000
0.000000
0.000000
0.000000
0.000000
0.000000
0.000000
0.000000
0.000000
0.000000
0.000000
0.000000
0.000000
0.000000
0.000000
0.000000
0.000000
0.000000
0.000000
0.000000
0.000000
0.000000
0.000000
0.000000
0.000000
0.000000
0.000000
0.000000
0.000000
0.000000
0.000000
0.000000
0.000000
0.000000
0.000000
0.000000
0.000000
0.000000
0.000000
0.000000
0.000000
0.000000
0.000000
0.000000
0.000000
0.000000
0.000000
0.000000
0.000000
0.000000
0.000000
-1.089473
-1.085289
-1.076076
-1.063255
-1.041010
-1.032439
-1.028622
-1.020645
-1.008874
-0.995677
-0.982691
-0.970739
-0.964486
-0.956051
-0.945708
-0.934524
-0.923515
-0.913134
-0.903524
-0.894659
-0.886938
-0.878930
-0.870465
-0.862022
-0.854121
-0.847019
-0.839858
-0.832277
-0.824375
-0.816424
-0.808679
-0.801309
-0.794401
-0.787992
-0.782083
-0.776656
-0.771681
-0.767123
-0.762945
-0.759108
-0.755576
-0.752311
-0.749283
-0.746459
-0.743814
-0.741321
-0.738962
-0.736717
-0.734573
-0.732517
-0.730541
-0.728639
-0.726806
-0.725043
-0.723348
-0.721723
-0.720170
-0.718693
-0.717293
-0.715971
-0.714727
-0.713553
-0.712438
-0.711354
-0.710251
-0.709041
-0.707567
-0.705574
-0.702683
-0.698480
-0.692873
-0.686430
-0.679865
-0.673701
-0.668210
-0.663477
-0.659478
-0.656139
-0.653370
-0.651078
-0.649180
-0.647602
-0.646275
-0.645137
-0.644129
-0.643188
-0.642245
-0.641217
-0.640005
-0.638490
-0.636553
-0.634122
-0.631244
-0.628101
-0.624930
-0.621950
-0.619318
-0.616751
1.549188
0.641064
0.556676
0.935394
0.356829
-0.071466
0.141259
0.329813
0.000000
0.000000
0.000000
0.000000
0.000000
0.000000
0.000000
0.000000
0.000000
0.000000
0.000000
0.000000
0.000000
0.000000
0.000000
0.000000
0.000000
0.000000
0.000000
0.000000
0.000000
0.000000
0.000000
0.000000
0.000000
0.000000
0.000000
0.000000
0.000000
0.000000
0.000000
0.000000
0.000000
0.000000
0.000000
0.000000
0.000000
0.000000
0.000000
0.000000
0.000000
0.000000
0.000000
0.000000
0.000000
0.000000
0.000000
0.000000
0.000000
0.000000
0.000000
0.000000
0.000000
0.000000
0.000000
0.000000
0.000000
0.000000
0.000000
0.000000
0.000000
0.000000
0.000000
0.000000
0.000000
0.000000
0.000000
0.000000
0.000000
0.000000
0.000000
0.000000
0.000000
0.000000
0.000000
0.000000
0.000000
0.000000
0.000000
0.000000
0.000000
0.000000
0.000000
0.000000
0.000000
0.000000
0.000000
0.000000
-1.160273
-1.156626
-1.147737
-1.134573
-1.120264
-1.097974
-1.089474
-1.085290
-1.076076
-1.063256
-1.049582
-1.036774
-1.030427
-1.021362
-1.009856
-0.997252
-0.984944
-0.973948
-0.965437
-0.956402
-0.946320
-0.935661
-0.925061
-0.914923
-0.905419
-0.896567
-0.888325
-0.880151
-0.871891
-0.863729
-0.855898
-0.848445
-0.841048
-0.833503
-0.825829
-0.818173
-0.810701
-0.803547
-0.796793
-0.790482
-0.784625
-0.779213
-0.774225
-0.769632
-0.765400
-0.761496
-0.757884
-0.754533
-0.751409
-0.748485
-0.745735
-0.743134
-0.740662
-0.738303
-0.736041
-0.733865
-0.731767
-0.729740
-0.727781
-0.725888
-0.724060
-0.722298
-0.720602
-0.718974
-0.717411
-0.715913
-0.714471
-0.713074
-0.711698
-0.710308
-0.708845
-0.707218
-0.705293
-0.702885
-0.699776
-0.695792
-0.690952
-0.685554
-0.680007
-0.674662
-0.669747
-0.665371
-0.661561
-0.658289
-0.655503
-0.653142
-0.651140
-0.649436
-0.647969
-0.646683
-0.645522
-0.644429
-0.643340
-0.642187
-0.640896
-0.639390
-0.637606
-0.635523
-0.633185
-0.630712
-0.628259
-0.625983
-0.624010
-0.622206
0.852459
0.599944
0.518934
0.414373
-0.221732
-0.071464
0.141261
0.329815
-0.017929
-0.219622
-0.057498
0.091893
0.000000
0.000000
0.000000
0.000000
0.000000
0.000000
0.000000
0.000000
0.000000
0.000000
0.000000
0.000000
0.000000
0.000000
0.000000
0.000000
0.000000
0.000000
0.000000
0.000000
0.000000
0.000000
0.000000
0.000000
0.000000
0.000000
0.000000
0.000000
0.000000
0.000000
0.000000
0.000000
0.000000
0.000000
0.000000
0.000000
0.000000
0.000000
0.000000
0.000000
0.000000
0.000000
0.000000
0.000000
0.000000
0.000000
0.000000
0.000000
0.000000
0.000000
0.000000
0.000000
0.000000
0.000000
0.000000
0.000000
0.000000
0.000000
0.000000
0.000000
0.000000
0.000000
0.000000
0.000000
0.000000
0.000000
0.000000
0.000000
0.000000
0.000000
0.000000
0.000000
0.000000
0.000000
0.000000
0.000000
0.000000
0.000000
0.000000
-1.220213
-1.213066
-1.201766
-1.188726
-1.168081
-1.160274
-1.156626
-1.147737
-1.134574
-1.120265
-1.106475
-1.093913
-1.086657
-1.076817
-1.064676
-1.051967
-1.040348
-1.031427
-1.021710
-1.010617
-0.998795
-0.987165
-0.976421
-0.966811
-0.957230
-0.947231
-0.936953
-0.926736
-0.916861
-0.907475
-0.898596
-0.890143
-0.881884
-0.873718
-0.865697
-0.857904
-0.850335
-0.842859
-0.835376
-0.827889
-0.820480
-0.813254
-0.806310
-0.799716
-0.793512
-0.787714
-0.782321
-0.777316
-0.772679
-0.768379
-0.764389
-0.760677
-0.757213
-0.753968
-0.750915
-0.748029
-0.745289
-0.742675
-0.740170
-0.737761
-0.735435
-0.733186
-0.731006
-0.728892
-0.726841
-0.724853
-0.722928
-0.721064
-0.719260
-0.717514
-0.715819
-0.714165
-0.712535
-0.710902
-0.709228
-0.707455
-0.705505
-0.703274
-0.700640
-0.697483
-0.693734
-0.689436
-0.684766
-0.679973
-0.675288
-0.670888
-0.666875
-0.663293
-0.660144
-0.657403
-0.655028
-0.652973
-0.651189
-0.649626
-0.648234
-0.646965
-0.645767
-0.644589
-0.643376
-0.642076
-0.640641
-0.639039
-0.637270
-0.635376
-0.633442
-0.631577
-0.629902
-0.628526
-0.627454
0.537016
0.461070
0.382228
0.262264
0.030412
0.027263
0.084857
0.021462
-0.365669
-0.219620
-0.057496
0.091895
-0.210468
-0.381782
-0.236920
-0.096748
0.000000
0.000000
0.000000
0.000000
0.000000
0.000000
0.000000
0.000000
0.000000
0.000000
0.000000
0.000000
0.000000
0.000000
0.000000
0.000000
0.000000
0.000000
0.000000
0.000000
0.000000
0.000000
0.000000
0.000000
0.000000
0.000000
0.000000
0.000000
0.000000
0.000000
0.000000
0.000000
0.000000
0.000000
0.000000
0.000000
0.000000
0.000000
0.000000
0.000000
0.000000
0.000000
0.000000
0.000000
0.000000
0.000000
0.000000
0.000000
0.000000
0.000000
0.000000
0.000000
0.000000
0.000000
0.000000
0.000000
0.000000
0.000000
0.000000
0.000000
0.000000
0.000000
0.000000
0.000000
0.000000
0.000000
0.000000
0.000000
0.000000
-1.292603
-1.279716
-1.265473
-1.252050
-1.240375
-1.225534
-1.220213
-1.213066
-1.201766
-1.188727
-1.175890
-1.164262
-1.157708
-1.148191
-1.135763
-1.122252
-1.109131
-1.097339
-1.087763
-1.077430
-1.065924
-1.054079
-1.042861
-1.032714
-1.022417
-1.011504
-1.000220
-0.989065
-0.978433
-0.968387
-0.958514
-0.948560
-0.938546
-0.928640
-0.919013
-0.909766
-0.900917
-0.892412
-0.884141
-0.876040
-0.868108
-0.860363
-0.852791
-0.845332
-0.837941
-0.830622
-0.823422
-0.816410
-0.809654
-0.803206
-0.797102
-0.791358
-0.785974
-0.780942
-0.776244
-0.771857
-0.767757
-0.763916
-0.760310
-0.756911
-0.753696
-0.750642
-0.747730
-0.744940
-0.742257
-0.739669
-0.737164
-0.734734
-0.732374
-0.730079
-0.727847
-0.725677
-0.723567
-0.721516
-0.719521
-0.717578
-0.715678
-0.713808
-0.711951
-0.710079
-0.708155
-0.706130
-0.703939
-0.701509
-0.698763
-0.695636
-0.692104
-0.688213
-0.684075
-0.679849
-0.675693
-0.671733
-0.668059
-0.664716
-0.661720
-0.659061
-0.656715
-0.654651
-0.652829
-0.651210
-0.649753
-0.648417
-0.647160
-0.645940
-0.644716
-0.643452
-0.642120
-0.640705
-0.639216
-0.637692
-0.636197
-0.634815
-0.633643
-0.632777
-0.632334
0.364945
0.335473
0.280217
0.202290
0.095356
0.047515
0.022800
-0.051796
-0.188426
-0.163470
-0.110413
-0.172443
-0.512827
-0.381781
-0.236918
-0.096746
-0.411284
-0.618840
-0.493555
-0.397434
-0.284240
0.000000
0.000000
0.000000
0.000000
0.000000
0.000000
0.000000
0.000000
0.000000
0.000000
0.000000
0.000000
0.000000
0.000000
0.000000
0.000000
0.000000
0.000000
0.000000
0.000000
0.000000
0.000000
0.000000
0.000000
0.000000
0.000000
0.000000
0.000000
0.000000
0.000000
0.000000
0.000000
0.000000
0.000000
0.000000
0.000000
0.000000
0.000000
0.000000
0.000000
0.000000
0.000000
0.000000
0.000000
0.000000
0.000000
0.000000
0.000000
0.000000
0.000000
0.000000
0.000000
0.000000
0.000000
0.000000
0.000000
0.000000
0.000000
-1.381530
-1.354625
-1.331446
-1.314467
-1.303004
-1.294388
-1.292603
-1.279716
-1.265473
-1.252051
-1.240375
-1.230856
-1.221897
-1.213414
-1.202652
-1.190483
-1.178376
-1.167412
-1.158425
-1.148299
-1.136501
-1.123882
-1.111423
-1.099780
-1.089100
-1.078307
-1.067059
-1.055671
-1.044594
-1.033969
-1.023369
-1.012555
-1.001611
-0.990784
-0.980280
-0.970132
-0.960184
-0.950314
-0.940518
-0.930875
-0.921479
-0.912395
-0.903635
-0.895171
-0.886945
-0.878917
-0.871068
-0.863394
-0.855878
-0.848491
-0.841213
-0.834049
-0.827029
-0.820197
-0.813601
-0.807279
-0.801258
-0.795553
-0.790165
-0.785089
-0.780311
-0.775815
-0.771579
-0.767582
-0.763801
-0.760215
-0.756802
-0.753543
-0.750421
-0.747419
-0.744524
-0.741723
-0.739006
-0.736367
-0.733800
-0.731300
-0.728865
-0.726493
-0.724183
-0.721931
-0.719736
-0.717589
-0.715484
-0.713405
-0.711336
-0.709249
-0.707114
-0.704888
-0.702523
-0.699969
-0.697178
-0.694115
-0.690777
-0.687202
-0.683469
-0.679680
-0.675946
-0.672358
-0.668987
-0.665876
-0.663044
-0.660491
-0.658205
-0.656163
-0.654339
-0.652700
-0.651214
-0.649849
-0.648570
-0.647345
-0.646145
-0.644945
-0.643729
-0.642493
-0.641252
-0.640037
-0.638903
-0.637915
-0.637153
-0.636702
-0.636756
0.255574
0.240392
0.203639
0.151508
0.087103
0.036347
-0.007746
-0.064965
-0.130981
-0.152413
-0.166440
-0.233899
-0.356920
-0.334613
-0.289725
-0.362328
-0.725819
-0.618838
-0.493553
-0.397432
-0.284238
-0.599964
-0.837813
-0.731160
-0.654491
-0.581389
-0.473661
0.000000
0.000000
0.000000
0.000000
0.000000
0.000000
0.000000
0.000000
0.000000
0.000000
0.000000
0.000000
0.000000
0.000000
0.000000
0.000000
0.000000
0.000000
0.000000
0.000000
0.000000
0.000000
0.000000
0.000000
0.000000
0.000000
0.000000
0.000000
0.000000
0.000000
0.000000
0.000000
0.000000
0.000000
0.000000
0.000000
0.000000
0.000000
0.000000
0.000000
0.000000
0.000000
0.000000
0.000000
0.000000
0.000000
-1.518505
-1.460067
-1.416376
-1.390186
-1.377080
-1.377425
-1.381530
-1.354625
-1.331447
-1.314468
-1.303005
-1.296173
-1.290502
-1.279580
-1.266727
-1.254076
-1.242632
-1.232572
-1.223148
-1.213715
-1.203147
-1.191713
-1.180225
-1.169323
-1.159112
-1.148440
-1.136914
-1.124879
-1.112880
-1.101303
-1.090187
-1.079147
-1.067997
-1.056839
-1.045857
-1.035101
-1.024427
-1.013730
-1.003042
-0.992481
-0.982152
-0.972078
-0.962205
-0.952480
-0.942899
-0.933498
-0.924329
-0.915426
-0.906800
-0.898434
-0.890298
-0.882362
-0.874609
-0.867025
-0.859597
-0.852308
-0.845150
-0.838128
-0.831262
-0.824580
-0.818114
-0.811892
-0.805933
-0.800248
-0.794840
-0.789704
-0.784831
-0.780207
-0.775815
-0.771638
-0.767657
-0.763854
-0.760213
-0.756716
-0.753350
-0.750100
-0.746957
-0.743909
-0.740948
-0.738069
-0.735266
-0.732536
-0.729876
-0.727285
-0.724760
-0.722299
-0.719896
-0.717547
-0.715240
-0.712964
-0.710700
-0.708426
-0.706115
-0.703734
-0.701247
-0.698619
-0.695820
-0.692835
-0.689667
-0.686346
-0.682929
-0.679485
-0.676092
-0.672816
-0.669712
-0.666816
-0.664149
-0.661714
-0.659508
-0.657514
-0.655715
-0.654085
-0.652601
-0.651236
-0.649964
-0.648763
-0.647609
-0.646489
-0.645394
-0.644325
-0.643299
-0.642345
-0.641505
-0.640836
-0.640402
-0.640274
-0.640691
0.176573
0.167062
0.141943
0.105139
0.060300
0.016464
-0.026413
-0.072597
-0.119654
-0.155022
-0.189723
-0.241577
-0.302727
-0.324187
-0.342721
-0.418983
-0.557796
-0.546340
-0.493500
-0.457204
-0.541450
-0.915686
-0.837811
-0.731158
-0.654489
-0.581388
-0.473660
-0.838738
-1.166991
-1.080312
-1.032736
-1.002327
-0.980426
-0.962693
-0.946370
-0.929194
-0.908706
-0.881378
-0.840633
-0.754688
0.000000
0.000000
0.000000
0.000000
0.000000
0.000000
0.000000
0.000000
0.000000
0.000000
0.000000
0.000000
0.000000
0.000000
0.000000
0.000000
0.000000
0.000000
0.000000
0.000000
0.000000
0.000000
0.000000
0.000000
0.000000
0.000000
-1.752836
-1.629642
-1.542605
-1.495617
-1.475747
-1.473267
-1.500256
-1.518505
-1.460068
-1.416376
-1.390186
-1.377081
-1.373320
-1.371928
-1.353822
-1.334157
-1.318048
-1.306113
-1.297331
-1.289202
-1.278891
-1.267219
-1.255411
-1.244224
-1.233820
-1.223839
-1.213801
-1.203211
-1.192137
-1.180960
-1.169996
-1.159236
-1.148255
-1.136856
-1.125178
-1.113500
-1.102035
-1.090820
-1.079727
-1.068671
-1.057681
-1.046825
-1.036125
-1.025530
-1.015004
-1.004562
-0.994260
-0.984152
-0.974254
-0.964553
-0.955026
-0.945674
-0.936513
-0.927571
-0.918865
-0.910401
-0.902169
-0.894152
-0.886328
-0.878684
-0.871204
-0.863879
-0.856698
-0.849657
-0.842760
-0.836021
-0.829459
-0.823093
-0.816944
-0.811023
-0.805339
-0.799895
-0.794686
-0.789705
-0.784941
-0.780380
-0.776009
-0.771812
-0.767776
-0.763885
-0.760128
-0.756493
-0.752970
-0.749550
-0.746226
-0.742992
-0.739844
-0.736779
-0.733795
-0.730889
-0.728061
-0.725308
-0.722627
-0.720014
-0.717462
-0.714961
-0.712498
-0.710059
-0.707623
-0.705167
-0.702666
-0.700093
-0.697425
-0.694642
-0.691737
-0.688716
-0.685604
-0.682440
-0.679274
-0.676159
-0.673145
-0.670274
-0.667575
-0.665066
-0.662755
-0.660640
-0.658712
-0.656958
-0.655361
-0.653901
-0.652561
-0.651319
-0.650160
-0.649068
-0.648036
-0.647058
-0.646142
-0.645303
-0.644565
-0.643967
-0.643552
-0.643374
-0.643491
-0.644157
0.115679
0.109071
0.091069
0.063939
0.030344
-0.005851
-0.043378
-0.082567
-0.122310
-0.159567
-0.197480
-0.240715
-0.285879
-0.321574
-0.359252
-0.416427
-0.483889
-0.504594
-0.503913
-0.519221
-0.601151
-0.752774
-0.757344
-0.714146
-0.671213
-0.649746
-0.758098
-1.203814
-1.166989
-1.080310
-1.032734
-1.002326
-0.980424
-0.962692
-0.946369
-0.929192
-0.908705
-0.881376
-0.840632
-0.754687
-1.143247
-1.535357
-1.463915
-1.430268
-1.413383
-1.405365
-1.402661
-1.403434
-1.406636
-1.411628
-1.418011
-1.425534
-1.434049
-1.443482
-1.453824
-1.465088
-1.477404
-1.490885
-1.505150
-1.520452
-1.537085
-1.555452
-1.576160
-1.600195
-1.629352
-1.707283
-1.752836
-1.629642
-1.542605
-1.495617
-1.475747
-1.473267
-1.482007
-1.490688
-1.457265
-1.422412
-1.397556
-1.382489
-1.373837
-1.365833
-1.351502
-1.335336
-1.320665
-1.308472
-1.298244
-1.288579
-1.278155
-1.267027
-1.255733
-1.244708
-1.234080
-1.223689
-1.213264
-1.202576
-1.191629
-1.180582
-1.169577
-1.158606
-1.147519
-1.136234
-1.124815
-1.113404
-1.102116
-1.090989
-1.079989
-1.069085
-1.058285
-1.047614
-1.037080
-1.026670
-1.016371
-1.006194
-0.996166
-0.986316
-0.976655
-0.967182
-0.957890
-0.948781
-0.939864
-0.931150
-0.922650
-0.914365
-0.906288
-0.898409
-0.890712
-0.883185
-0.875817
-0.868600
-0.861526
-0.854593
-0.847804
-0.841168
-0.834697
-0.828403
-0.822299
-0.816394
-0.810692
-0.805196
-0.799902
-0.794803
-0.789890
-0.785154
-0.780582
-0.776164
-0.771886
-0.767739
-0.763713
-0.759798
-0.755988
-0.752277
-0.748661
-0.745135
-0.741700
-0.738353
-0.735095
-0.731926
-0.728845
-0.725852
-0.722943
-0.720114
-0.717359
-0.714669
-0.712031
-0.709432
-0.706853
-0.704277
-0.701682
-0.699049
-0.696361
-0.693604
-0.690777
-0.687885
-0.684946
-0.681989
-0.679050
-0.676166
-0.673374
-0.670706
-0.668184
-0.665826
-0.663637
-0.661620
-0.659769
-0.658075
-0.656527
-0.655110
-0.653811
-0.652615
-0.651511
-0.650490
-0.649547
-0.648683
-0.647903
-0.647224
-0.646668
-0.646266
-0.646053
-0.646072
-0.646370
-0.647202
0.067172
0.062284
0.048780
0.027989
0.001642
-0.028241
-0.060449
-0.094443
-0.129553
-0.164896
-0.201276
-0.239852
-0.279557
-0.317803
-0.357865
-0.403834
-0.450507
-0.482460
-0.506900
-0.540887
-0.600624
-0.674977
-0.702145
-0.701231
-0.699448
-0.724741
-0.828794
-1.023833
-1.061383
-1.040287
-1.014687
-0.993441
-0.976413
-0.962062
-0.948874
-0.935605
-0.921629
-0.908852
-0.911037
-1.043403
-1.531805
-1.535356
-1.463914
-1.430267
-1.413382
-1.405364
-1.402660
-1.403433
-1.406635
-1.411628
-1.418011
-1.425534
-1.434049
-1.443481
-1.453823
-1.465088
-1.477404
-1.490885
-1.505150
-1.520451
-1.537084
-1.555452
-1.576159
-1.600195
-1.629351
-1.661730
-1.682599
-1.618118
-1.552918
-1.509927
-1.487207
-1.478393
-1.476384
-1.470987
-1.449257
-1.423718