# vtk DataFile Version 3.0
Vector Field
ASCII
DATASET RECTILINEAR_GRID
DIMENSIONS 200 50 1
X_COORDINATES 200 double
0.050000 0.150000 0.250000 0.350000 0.450000 0.550000 0.650000 0.750000 0.850000 0.950000 1.050000 1.150000 1.250000 1.350000 1.450000 1.550000 1.650000 1.750000 1.850000 1.950000 2.050000 2.150000 2.250000 2.350000 2.450000 2.550000 2.650000 2.750000 2.850000 2.950000 3.050000 3.150000 3.250000 3.350000 3.450000 3.550000 3.650000 3.750000 3.850000 3.950000 4.050000 4.150000 4.250000 4.350000 4.450000 4.550000 4.650000 4.750000 4.850000 4.950000 5.050000 5.150000 5.250000 5.350000 5.450000 5.550000 5.650000 5.750000 5.850000 5.950000 6.050000 6.150000 6.250000 6.350000 6.450000 6.550000 6.650000 6.750000 6.850000 6.950000 7.050000 7.150000 7.250000 7.350000 7.450000 7.550000 7.650000 7.750000 7.850000 7.950000 8.050000 8.150000 8.250000 8.350000 8.450000 8.550000 8.650000 8.750000 8.850000 8.950000 9.050000 9.150000 9.250000 9.350000 9.450000 9.550000 9.650000 9.750000 9.850000 9.950000 10.050000 10.150000 10.250000 10.350000 10.450000 10.550000 10.650000 10.750000 10.850000 10.950000 11.050000 11.150000 11.250000 11.350000 11.450000 11.550000 11.650000 11.750000 11.850000 11.950000 12.050000 12.150000 12.250000 12.350000 12.450000 12.550000 12.650000 12.750000 12.850000 12.950000 13.050000 13.150000 13.250000 13.350000 13.450000 13.550000 13.650000 13.750000 13.850000 13.950000 14.050000 14.150000 14.250000 14.350000 14.450000 14.550000 14.650000 14.750000 14.850000 14.950000 15.050000 15.150000 15.250000 15.350000 15.450000 15.550000 15.650000 15.750000 15.850000 15.950000 16.050000 16.150000 16.250000 16.350000 16.450000 16.550000 16.650000 16.750000 16.850000 16.950000 17.050000 17.150000 17.250000 17.350000 17.450000 17.550000 17.650000 17.750000 17.850000 17.950000 18.050000 18.150000 18.250000 18.350000 18.450000 18.550000 18.650000 18.750000 18.850000 18.950000 19.050000 19.150000 19.250000 19.350000 19.450000 19.550000 19.650000 19.750000 19.850000 19.950000 
Y_COORDINATES 50 double
0.050000 0.150000 0.250000 0.350000 0.450000 0.550000 0.650000 0.750000 0.850000 0.950000 1.050000 1.150000 1.250000 1.350000 1.450000 1.550000 1.650000 1.750000 1.850000 1.950000 2.050000 2.150000 2.250000 2.350000 2.450000 2.550000 2.650000 2.750000 2.850000 2.950000 3.050000 3.150000 3.250000 3.350000 3.450000 3.550000 3.650000 3.750000 3.850000 3.950000 4.050000 4.150000 4.250000 4.350000 4.450000 4.550000 4.650000 4.750000 4.850000 4.950000 
Z_COORDINATES 1 double
0.0
POINT_DATA 10000
VECTORS Vektorfeld double
1.000000 0.000000 0.0
1.000000 0.000000 0.0
1.000000 0.000000 0.0
1.000000 0.000000 0.0
1.000000 0.000000 0.0
1.000000 0.000000 0.0
1.000000 0.000000 0.0
1.000000 0.000000 0.0
1.000000 0.000000 0.0
1.000000 0.000000 0.0
1.000000 0.000000 0.0
1.000000 0.000000 0.0
1.000000 0.000000 0.0
1.000000 0.000000 0.0
1.000000 0.000000 0.0
1.000000 0.000000 0.0
1.000000 0.000000 0.0
1.000000 0.000000 0.0
1.000000 0.000000 0.0
1.000000 0.000000 0.0
1.000000 0.000000 0.0
1.000000 0.000000 0.0
1.000000 0.000000 0.0
1.000000 0.000000 0.0
1.000000 0.000000 0.0
1.000000 0.000000 0.0
1.000000 0.000000 0.0
1.000000 0.000000 0.0
1.000000 0.000000 0.0
1.000000 0.000000 0.0
1.000000 0.000000 0.0
1.000000 0.000000 0.0
1.000000 0.000000 0.0
1.000000 0.000000 0.0
1.000000 0.000000 0.0
1.000000 0.000000 0.0
1.000000 0.000000 0.0
1.000000 0.000000 0.0
1.000000 0.000000 0.0
1.000000 0.000000 0.0
1.000000 0.000000 0.0
1.000000 0.000000 0.0
1.000000 0.000000 0.0
1.000000 0.000000 0.0
1.000000 0.000000 0.0
1.000000 0.000000 0.0
1.000000 0.000000 0.0
1.000000 0.000000 0.0
1.000000 0.000000 0.0
1.000000 0.000000 0.0
1.000000 0.000000 0.0
1.000000 0.000000 0.0
1.000000 0.000000 0.0
1.000000 0.000000 0.0
1.000000 0.000000 0.0
1.000000 0.000000 0.0
1.000000 0.000000 0.0
1.000000 0.000000 0.0
1.000000 0.000000 0.0
1.000000 0.000000 0.0
1.000000 0.000000 0.0
1.000000 0.000000 0.0
1.000000 0.000000 0.0
1.000000 0.000000 0.0
1.000000 0.000000 0.0
1.000000 0.000000 0.0
1.000000 0.000000 0.0
1.000000 0.000000 0.0
1.000000 0.000000 0.0
1.000000 0.000000 0.0
1.000000 0.000000 0.0
1.000000 0.000000 0.0
1.000000 0.000000 0.0
1.000000 0.000000 0.0
1.000000 0.000000 0.0
1.000000 0.000000 0.0
1.000000 0.000000 0.0
1.000000 0.000000 0.0
1.000000 0.000000 0.0
1.000000 0.000000 0.0
1.000000 0.000000 0.0
1.000000 0.000000 0.0
1.000000 0.000000 0.0
1.000000 0.000000 0.0
1.000000 0.000000 0.0
1.000000 0.000000 0.0
1.000000 0.000000 0.0
1.000000 0.000000 0.0
1.000000 0.000000 0.0
1.000000 0.000000 0.0
1.000000 0.000000 0.0
1.000000 0.000000 0.0
1.000000 0.000000 0.0
1.000000 0.000000 0.0
1.000000 0.000000 0.0
1.000000 0.000000 0.0
1.000000 0.000000 0.0
1.000000 0.000000 0.0
1.000000 0.000000 0.0
1.000000 0.000000 0.0
1.000000 0.000000 0.0
1.000000 0.000000 0.0
1.000000 0.000000 0.0
1.000000 0.000000 0.0
1.000000 0.000000 0.0
1.000000 0.000000 0.0
1.000000 0.000000 0.0
1.000000 0.000000 0.0
1.000000 0.000000 0.0
1.000000 0.000000 0.0
1.000000 0.000000 0.0
1.000000 0.000000 0.0
1.000000 0.000000 0.0
1.000000 0.000000 0.0
1.000000 0.000000 0.0
1.000000 0.000000 0.0
1.000000 0.000000 0.0
1.000000 0.000000 0.0
1.000000 0.000000 0.0
1.000000 0.000000 0.0
1.000000 0.000000 0.0
1.000000 0.000000 0.0
1.000000 0.000000 0.0
1.000000 0.000000 0.0
1.000000 0.000000 0.0
1.000000 0.000000 0.0
1.000000 0.000000 0.0
1.000000 0.000000 0.0
1.000000 0.000000 0.0
1.000000 0.000000 0.0
1.000000 0.000000 0.0
1.000000 0.000000 0.0
1.000000 0.000000 0.0
1.000000 0.000000 0.0
1.000000 0.000000 0.0
1.000000 0.000000 0.0
1.000000 0.000000 0.0
1.000000 0.000000 0.0
1.000000 0.000000 0.0
1.000000 0.000000 0.0
1.000000 0.000000 0.0
1.000000 0.000000 0.0
1.000000 0.000000 0.0
1.000000 0.000000 0.0
1.000000 0.000000 0.0
1.000000 0.000000 0.0
1.000000 0.000000 0.0
1.000000 0.000000 0.0
1.000000 0.000000 0.0
1.000000 0.000000 0.0
1.000000 0.000000 0.0
1.000000 0.000000 0.0
1.000000 0.000000 0.0
1.000000 0.000000 0.0
1.000000 0.000000 0.0
1.000000 0.000000 0.0
1.000000 0.000000 0.0
1.000000 0.000000 0.0
1.000000 0.000000 0.0
1.000000 0.000000 0.0
1.000000 0.000000 0.0
1.000000 0.000000 0.0
1.000000 0.000000 0.0
1.000000 0.000000 0.0
1.000000 0.000000 0.0
1.000000 0.000000 0.0
1.000000 0.000000 0.0
1.000000 0.000000 0.0
1.000000 0.000000 0.0
1.000000 0.000000 0.0
1.000000 0.000000 0.0
1.000000 0.000000 0.0
1.000000 0.000000 0.0
1.000000 0.000000 0.0
1.000000 0.000000 0.0
1.000000 0.000000 0.0
1.000000 0.000000 0.0
1.000000 0.000000 0.0
1.000000 0.000000 0.0
1.000000 0.000000 0.0
1.000000 0.000000 0.0
1.000000 0.000000 0.0
1.000000 0.000000 0.0
1.000000 0.000000 0.0
1.000000 0.000000 0.0
1.000000 0.000000 0.0
1.000000 0.000000 0.0
1.000000 0.000000 0.0
1.000000 0.000000 0.0
1.000000 0.000000 0.0
1.000000 0.000000 0.0
1.000000 0.000000 0.0
0.500000 0.000000 0.0
-0.007263 0.000000 0.0
-0.021894 0.000000 0.0
-0.035152 0.000000 0.0
-0.045539 0.000000 0.0
-0.053382 0.000000 0.0
-0.058814 0.000000 0.0
-0.060901 0.000000 0.0
1.000000 0.000000 0.0
1.000000 0.000000 0.0
1.000000 0.000000 0.0
1.000000 0.000000 0.0
1.000000 0.000000 0.0
1.000000 0.000000 0.0
1.000000 0.000000 0.0
1.000000 0.000000 0.0
1.000000 0.000000 0.0
1.000000 0.000000 0.0
1.000000 0.000000 0.0
1.000000 0.000000 0.0
1.000000 0.000000 0.0
1.000000 0.000000 0.0
1.000000 0.000000 0.0
1.000000 0.000000 0.0
1.000000 0.000000 0.0
1.000000 0.000000 0.0
1.000000 0.000000 0.0
1.000000 0.000000 0.0
1.000000 0.000000 0.0
1.000000 0.000000 0.0
1.000000 0.000000 0.0
1.000000 0.000000 0.0
1.000000 0.000000 0.0
1.000000 0.000000 0.0
1.000000 0.000000 0.0
1.000000 0.000000 0.0
1.000000 0.000000 0.0
1.000000 0.000000 0.0
1.000000 0.000000 0.0
1.000000 0.000000 0.0
1.000000 0.000000 0.0
1.000000 0.000000 0.0
1.000000 0.000000 0.0
1.000000 0.000000 0.0
1.000000 0.000000 0.0
1.000000 0.000000 0.0
1.000000 0.000000 0.0
1.000000 0.000000 0.0
1.000000 0.000000 0.0
1.000000 0.000000 0.0
1.000000 0.000000 0.0
1.000000 0.000000 0.0
1.000000 0.000000 0.0
1.000000 0.000000 0.0
1.000000 0.000000 0.0
1.000000 0.000000 0.0
1.000000 0.000000 0.0
1.000000 0.000000 0.0
1.000000 0.000000 0.0
1.000000 0.000000 0.0
1.000000 0.000000 0.0
1.000000 0.000000 0.0
1.000000 0.000000 0.0
1.000000 0.000000 0.0
1.000000 0.000000 0.0
1.000000 0.000000 0.0
1.000000 0.000000 0.0
1.000000 0.000000 0.0
1.000000 0.000000 0.0
1.000000 0.000000 0.0
1.000000 0.000000 0.0
1.000000 0.000000 0.0
1.000000 0.000000 0.0
1.000000 0.000000 0.0
1.000000 0.000000 0.0
1.000000 0.000000 0.0
1.000000 0.000000 0.0
1.000000 0.000000 0.0
1.000000 0.000000 0.0
1.000000 0.000000 0.0
1.000000 0.000000 0.0
1.000000 0.000000 0.0
1.000000 0.000000 0.0
1.000000 0.000000 0.0
1.000000 0.000000 0.0
1.000000 0.000000 0.0
1.000000 0.000000 0.0
1.000000 0.000000 0.0
1.000000 0.000000 0.0
1.000000 0.000000 0.0
1.000000 0.000000 0.0
1.000000 0.000000 0.0
1.000000 0.000000 0.0
1.000000 0.000000 0.0
1.000000 0.000000 0.0
1.000000 0.000000 0.0
1.000000 0.000000 0.0
1.000000 0.000000 0.0
1.000000 0.000000 0.0
1.000000 0.000000 0.0
1.000000 0.000000 0.0
1.000000 0.000000 0.0
1.000000 0.000000 0.0
1.000000 0.000000 0.0
1.000000 0.000000 0.0
1.000000 0.000000 0.0
1.000000 0.000000 0.0
1.000000 0.000000 0.0
1.000000 0.000000 0.0
1.000000 0.000000 0.0
1.000000 0.000000 0.0
1.000000 0.000000 0.0
1.000000 0.000000 0.0
1.000000 0.000000 0.0
1.000000 0.000000 0.0
1.000000 0.000000 0.0
1.000000 0.000000 0.0
1.000000 0.000000 0.0
1.000000 0.000000 0.0
1.000000 0.000000 0.0
1.000000 0.000000 0.0
1.000000 0.000000 0.0
1.000000 0.000000 0.0
1.000000 0.000000 0.0
1.000000 0.000000 0.0
1.000000 0.000000 0.0
1.000000 0.000000 0.0
1.000000 0.000000 0.0
1.000000 0.000000 0.0
1.000000 0.000000 0.0
1.000000 0.000000 0.0
1.000000 0.000000 0.0
1.000000 0.000000 0.0
1.000000 0.000000 0.0
1.000000 0.000000 0.0
1.000000 0.000000 0.0
1.000000 0.000000 0.0
1.000000 0.000000 0.0
1.000000 0.000000 0.0
1.000000 0.000000 0.0
1.000000 0.000000 0.0
1.000000 0.000000 0.0
1.000000 0.000000 0.0
1.000000 0.000000 0.0
1.000000 0.000000 0.0
1.000000 0.000000 0.0
1.000000 0.000000 0.0
1.000000 0.000000 0.0
1.000000 0.000000 0.0
1.000000 0.000000 0.0
1.000000 0.000000 0.0
1.000000 0.000000 0.0
1.000000 0.000000 0.0
1.000000 0.000000 0.0
1.000000 0.000000 0.0
1.000000 0.000000 0.0
1.000000 0.000000 0.0
1.000000 0.000000 0.0
1.000000 0.000000 0.0
1.000000 0.000000 0.0
1.000000 0.000000 0.0
1.000000 0.000000 0.0
1.000000 0.000000 0.0
1.000000 0.000000 0.0
1.000000 0.000000 0.0
1.000000 0.000000 0.0
1.000000 0.000000 0.0
1.000000 0.000000 0.0
1.000000 0.000000 0.0
1.000000 0.000000 0.0
1.000000 0.000000 0.0
1.000000 0.000000 0.0
1.000000 0.000000 0.0
1.000000 0.000000 0.0
1.000000 0.000000 0.0
1.000000 0.000000 0.0
1.000000 0.000000 0.0
1.000000 0.000000 0.0
0.500000 0.000000 0.0
-0.014503 0.000000 0.0
-0.045389 0.000000 0.0
-0.076485 0.000000 0.0
-0.103558 0.000000 0.0
-0.126185 0.000000 0.0
-0.145038 0.000000 0.0
-0.160887 0.000000 0.0
-0.174353 0.000000 0.0
-0.185903 0.000000 0.0
-0.195881 0.000000 0.0
-0.204542 0.000000 0.0
-0.212088 0.000000 0.0
-0.218676 0.000000 0.0
-0.224444 0.000000 0.0
-0.229515 0.000000 0.0
-0.234012 0.000000 0.0
-0.238069 0.000000 0.0
-0.241858 0.000000 0.0
-0.245624 0.000000 0.0
-0.249779 0.000000 0.0
-0.255091 0.000000 0.0
-0.129081 0.000000 0.0
0.007239 -0.007173 0.0
0.021866 -0.007388 0.0
0.035174 -0.005921 0.0
0.045617 -0.004523 0.0
0.053502 -0.003363 0.0
0.058963 -0.002099 0.0
0.060981 0.000081 0.0
1.000000 0.000000 0.0
1.000000 0.000000 0.0
1.000000 0.000000 0.0
1.000000 0.000000 0.0
1.000000 0.000000 0.0
1.000000 0.000000 0.0
1.000000 0.000000 0.0
1.000000 0.000000 0.0
1.000000 0.000000 0.0
1.000000 0.000000 0.0
1.000000 0.000000 0.0
1.000000 0.000000 0.0
1.000000 0.000000 0.0
1.000000 0.000000 0.0
1.000000 0.000000 0.0
1.000000 0.000000 0.0
1.000000 0.000000 0.0
1.000000 0.000000 0.0
1.000000 0.000000 0.0
1.000000 0.000000 0.0
1.000000 0.000000 0.0
1.000000 0.000000 0.0
1.000000 0.000000 0.0
1.000000 0.000000 0.0
1.000000 0.000000 0.0
1.000000 0.000000 0.0
1.000000 0.000000 0.0
1.000000 0.000000 0.0
1.000000 0.000000 0.0
1.000000 0.000000 0.0
1.000000 0.000000 0.0
1.000000 0.000000 0.0
1.000000 0.000000 0.0
1.000000 0.000000 0.0
1.000000 0.000000 0.0
1.000000 0.000000 0.0
1.000000 0.000000 0.0
1.000000 0.000000 0.0
1.000000 0.000000 0.0
1.000000 0.000000 0.0
1.000000 0.000000 0.0
1.000000 0.000000 0.0
1.000000 0.000000 0.0
1.000000 0.000000 0.0
1.000000 0.000000 0.0
1.000000 0.000000 0.0
1.000000 0.000000 0.0
1.000000 0.000000 0.0
1.000000 0.000000 0.0
1.000000 0.000000 0.0
1.000000 0.000000 0.0
1.000000 0.000000 0.0
1.000000 0.000000 0.0
1.000000 0.000000 0.0
1.000000 0.000000 0.0
1.000000 0.000000 0.0
1.000000 0.000000 0.0
1.000000 0.000000 0.0
1.000000 0.000000 0.0
1.000000 0.000000 0.0
1.000000 0.000000 0.0
1.000000 0.000000 0.0
1.000000 0.000000 0.0
1.000000 0.000000 0.0
1.000000 0.000000 0.0
1.000000 0.000000 0.0
1.000000 0.000000 0.0
1.000000 0.000000 0.0
1.000000 0.000000 0.0
1.000000 0.000000 0.0
1.000000 0.000000 0.0
1.000000 0.000000 0.0
1.000000 0.000000 0.0
1.000000 0.000000 0.0
1.000000 0.000000 0.0
1.000000 0.000000 0.0
1.000000 0.000000 0.0
1.000000 0.000000 0.0
1.000000 0.000000 0.0
1.000000 0.000000 0.0
1.000000 0.000000 0.0
1.000000 0.000000 0.0
1.000000 0.000000 0.0
1.000000 0.000000 0.0
1.000000 0.000000 0.0
1.000000 0.000000 0.0
1.000000 0.000000 0.0
1.000000 0.000000 0.0
1.000000 0.000000 0.0
1.000000 0.000000 0.0
1.000000 0.000000 0.0
1.000000 0.000000 0.0
1.000000 0.000000 0.0
1.000000 0.000000 0.0
1.000000 0.000000 0.0
1.000000 0.000000 0.0
1.000000 0.000000 0.0
1.000000 0.000000 0.0
1.000000 0.000000 0.0
1.000000 0.000000 0.0
1.000000 0.000000 0.0
1.000000 0.000000 0.0
1.000000 0.000000 0.0
1.000000 0.000000 0.0
1.000000 0.000000 0.0
1.000000 0.000000 0.0
1.000000 0.000000 0.0
1.000000 0.000000 0.0
1.000000 0.000000 0.0
1.000000 0.000000 0.0
1.000000 0.000000 0.0
1.000000 0.000000 0.0
1.000000 0.000000 0.0
1.000000 0.000000 0.0
1.000000 0.000000 0.0
1.000000 0.000000 0.0
1.000000 0.000000 0.0
1.000000 0.000000 0.0
1.000000 0.000000 0.0
1.000000 0.000000 0.0
1.000000 0.000000 0.0
1.000000 0.000000 0.0
1.000000 0.000000 0.0
1.000000 0.000000 0.0
1.000000 0.000000 0.0
0.500000 0.000000 0.0
-0.009967 0.000000 0.0
-0.032863 0.000000 0.0
-0.058956 0.000000 0.0
-0.084733 0.000000 0.0
-0.109224 0.000000 0.0
-0.132231 0.000000 0.0
-0.153770 0.000000 0.0
-0.173903 0.000000 0.0
-0.192698 0.000000 0.0
-0.210218 0.000000 0.0
-0.226523 0.000000 0.0
-0.241669 0.000000 0.0
-0.255708 0.000000 0.0
-0.268693 0.000000 0.0
-0.280673 0.000000 0.0
-0.291698 0.000000 0.0
-0.301816 0.000000 0.0
-0.311075 0.000000 0.0
-0.319522 0.000000 0.0
-0.327206 0.000000 0.0
-0.334173 0.000000 0.0
-0.340471 0.000000 0.0
-0.346148 0.000000 0.0
-0.351251 0.000000 0.0
-0.355829 0.000000 0.0
-0.359931 0.000000 0.0
-0.363604 0.000000 0.0
-0.366901 0.000000 0.0
-0.369870 0.000000 0.0
-0.372565 0.000000 0.0
-0.375037 0.000000 0.0
-0.377343 0.000000 0.0
-0.379539 0.000000 0.0
-0.381688 0.000000 0.0
-0.383856 0.000000 0.0
-0.386117 0.000000 0.0
-0.388558 0.000000 0.0
-0.391284 0.000000 0.0
-0.394426 0.000000 0.0
-0.398163 0.000000 0.0
-0.402753 0.000000 0.0
-0.408596 0.000000 0.0
-0.416373 0.000000 0.0
-0.427358 0.000000 0.0
-0.216932 0.000000 0.0
0.014463 -0.014116 0.0
0.045285 -0.016360 0.0
0.076349 -0.014704 0.0
0.103412 -0.012359 0.0
0.126041 -0.010271 0.0
0.144904 -0.008593 0.0
0.160764 -0.007268 0.0
0.174245 -0.006212 0.0
0.185811 -0.005354 0.0
0.195805 -0.004641 0.0
0.204486 -0.004040 0.0
0.212050 -0.003526 0.0
0.218660 -0.003084 0.0
0.224450 -0.002706 0.0
0.229543 -0.002388 0.0
0.234063 -0.002132 0.0
0.238144 -0.001949 0.0
0.241956 -0.001863 0.0
0.245747 -0.001927 0.0
0.249926 -0.002252 0.0
0.255260 -0.003083 0.0
0.263281 -0.005005 0.0
0.268225 -0.014352 0.0
0.268504 -0.015047 0.0
0.269868 -0.012934 0.0
0.272278 -0.010363 0.0
0.274594 -0.007724 0.0
0.275991 -0.004596 0.0
0.276239 0.000311 0.0
1.000000 0.000000 0.0
1.000000 0.000000 0.0
1.000000 0.000000 0.0
1.000000 0.000000 0.0
1.000000 0.000000 0.0
1.000000 0.000000 0.0
1.000000 0.000000 0.0
1.000000 0.000000 0.0
1.000000 0.000000 0.0
1.000000 0.000000 0.0
1.000000 0.000000 0.0
1.000000 0.000000 0.0
1.000000 0.000000 0.0
1.000000 0.000000 0.0
1.000000 0.000000 0.0
1.000000 0.000000 0.0
1.000000 0.000000 0.0
1.000000 0.000000 0.0
1.000000 0.000000 0.0
1.000000 0.000000 0.0
1.000000 0.000000 0.0
1.000000 0.000000 0.0
1.000000 0.000000 0.0
1.000000 0.000000 0.0
1.000000 0.000000 0.0
1.000000 0.000000 0.0
1.000000 0.000000 0.0
1.000000 0.000000 0.0
1.000000 0.000000 0.0
1.000000 0.000000 0.0
1.000000 0.000000 0.0
1.000000 0.000000 0.0
1.000000 0.000000 0.0
1.000000 0.000000 0.0
1.000000 0.000000 0.0
1.000000 0.000000 0.0
1.000000 0.000000 0.0
1.000000 0.000000 0.0
1.000000 0.000000 0.0
1.000000 0.000000 0.0
1.000000 0.000000 0.0
1.000000 0.000000 0.0
1.000000 0.000000 0.0
1.000000 0.000000 0.0
1.000000 0.000000 0.0
1.000000 0.000000 0.0
1.000000 0.000000 0.0
1.000000 0.000000 0.0
1.000000 0.000000 0.0
1.000000 0.000000 0.0
1.000000 0.000000 0.0
1.000000 0.000000 0.0
1.000000 0.000000 0.0
1.000000 0.000000 0.0
1.000000 0.000000 0.0
1.000000 0.000000 0.0
1.000000 0.000000 0.0
1.000000 0.000000 0.0
1.000000 0.000000 0.0
1.000000 0.000000 0.0
1.000000 0.000000 0.0
1.000000 0.000000 0.0
1.000000 0.000000 0.0
1.000000 0.000000 0.0
1.000000 0.000000 0.0
1.000000 0.000000 0.0
1.000000 0.000000 0.0
1.000000 0.000000 0.0
1.000000 0.000000 0.0
1.000000 0.000000 0.0
1.000000 0.000000 0.0
1.000000 0.000000 0.0
1.000000 0.000000 0.0
1.000000 0.000000 0.0
1.000000 0.000000 0.0
1.000000 0.000000 0.0
1.000000 0.000000 0.0
1.000000 0.000000 0.0
1.000000 0.000000 0.0
1.000000 0.000000 0.0
1.000000 0.000000 0.0
1.000000 0.000000 0.0
1.000000 0.000000 0.0
1.000000 0.000000 0.0
1.000000 0.000000 0.0
1.000000 0.000000 0.0
1.000000 0.000000 0.0
1.000000 0.000000 0.0
1.000000 0.000000 0.0
1.000000 0.000000 0.0
1.000000 0.000000 0.0
1.000000 0.000000 0.0
1.000000 0.000000 0.0
1.000000 0.000000 0.0
1.000000 0.000000 0.0
1.000000 0.000000 0.0
1.000000 0.000000 0.0
1.000000 0.000000 0.0
1.000000 0.000000 0.0
1.000000 0.000000 0.0
1.000000 0.000000 0.0
1.000000 0.000000 0.0
1.000000 0.000000 0.0
1.000000 0.000000 0.0
1.000000 0.000000 0.0
1.000000 0.000000 0.0
1.000000 0.000000 0.0
1.000000 0.000000 0.0
1.000000 0.000000 0.0
1.000000 0.000000 0.0
1.000000 0.000000 0.0
1.000000 0.000000 0.0
1.000000 0.000000 0.0
1.000000 0.000000 0.0
1.000000 0.000000 0.0
1.000000 0.000000 0.0
1.000000 0.000000 0.0
1.000000 0.000000 0.0
1.000000 0.000000 0.0
1.000000 0.000000 0.0
0.500000 0.000000 0.0
-0.024410 0.000000 0.0
-0.075131 0.000000 0.0
-0.125757 0.000000 0.0
-0.172738 0.000000 0.0
-0.097702 0.000000 0.0
0.009966 -0.010062 0.0
0.032864 -0.012932 0.0
0.058964 -0.013168 0.0
0.084749 -0.012617 0.0
0.109247 -0.011882 0.0
0.132262 -0.011133 0.0
0.153808 -0.010413 0.0
0.173947 -0.009727 0.0
0.192748 -0.009074 0.0
0.210274 -0.008452 0.0
0.226585 -0.007859 0.0
0.241737 -0.007293 0.0
0.255781 -0.006752 0.0
0.268771 -0.006238 0.0
0.280756 -0.005748 0.0
0.291785 -0.005282 0.0
0.301907 -0.004840 0.0
0.311169 -0.004422 0.0
0.319618 -0.004028 0.0
0.327303 -0.003657 0.0
0.334271 -0.003310 0.0
0.340568 -0.002987 0.0
0.346242 -0.002688 0.0
0.351341 -0.002412 0.0
0.355914 -0.002161 0.0
0.360009 -0.001934 0.0
0.363674 -0.001732 0.0
0.366961 -0.001555 0.0
0.369920 -0.001404 0.0
0.372602 -0.001279 0.0
0.375062 -0.001181 0.0
0.377354 -0.001111 0.0
0.379536 -0.001071 0.0
0.381669 -0.001063 0.0
0.383822 -0.001090 0.0
0.386068 -0.001156 0.0
0.388494 -0.001270 0.0
0.391205 -0.001441 0.0
0.394333 -0.001687 0.0
0.398057 -0.002037 0.0
0.402635 -0.002541 0.0
0.408467 -0.003291 0.0
0.416233 -0.004475 0.0
0.427207 -0.006499 0.0
0.443680 -0.010321 0.0
0.455029 -0.029608 0.0
0.457795 -0.034110 0.0
0.462226 -0.032447 0.0
0.469533 -0.028987 0.0
0.478661 -0.025400 0.0
0.488525 -0.022190 0.0
0.498430 -0.019437 0.0
0.507999 -0.017094 0.0
0.517051 -0.015090 0.0
0.525512 -0.013361 0.0
0.533367 -0.011856 0.0
0.540630 -0.010537 0.0
0.547329 -0.009381 0.0
0.553503 -0.008373 0.0
0.559195 -0.007508 0.0
0.564456 -0.006794 0.0
0.569345 -0.006257 0.0
0.573922 -0.005945 0.0
0.578242 -0.005956 0.0
0.582304 -0.006465 0.0
0.585894 -0.007795 0.0
0.588065 -0.010551 0.0
0.587720 -0.013472 0.0
0.585553 -0.014039 0.0
0.583074 -0.012828 0.0
0.580818 -0.010623 0.0
0.578798 -0.007760 0.0
0.577040 -0.004198 0.0
0.576038 0.000667 0.0
1.000000 0.000000 0.0
1.000000 0.000000 0.0
1.000000 0.000000 0.0
1.000000 0.000000 0.0
1.000000 0.000000 0.0
1.000000 0.000000 0.0
1.000000 0.000000 0.0
1.000000 0.000000 0.0
1.000000 0.000000 0.0
1.000000 0.000000 0.0
1.000000 0.000000 0.0
1.000000 0.000000 0.0
1.000000 0.000000 0.0
1.000000 0.000000 0.0
1.000000 0.000000 0.0
1.000000 0.000000 0.0
1.000000 0.000000 0.0
1.000000 0.000000 0.0
1.000000 0.000000 0.0
1.000000 0.000000 0.0
1.000000 0.000000 0.0
1.000000 0.000000 0.0
1.000000 0.000000 0.0
1.000000 0.000000 0.0
1.000000 0.000000 0.0
1.000000 0.000000 0.0
1.000000 0.000000 0.0
1.000000 0.000000 0.0
1.000000 0.000000 0.0
1.000000 0.000000 0.0
1.000000 0.000000 0.0
1.000000 0.000000 0.0
1.000000 0.000000 0.0
1.000000 0.000000 0.0
1.000000 0.000000 0.0
1.000000 0.000000 0.0
1.000000 0.000000 0.0
1.000000 0.000000 0.0
1.000000 0.000000 0.0
1.000000 0.000000 0.0
1.000000 0.000000 0.0
1.000000 0.000000 0.0
1.000000 0.000000 0.0
1.000000 0.000000 0.0
1.000000 0.000000 0.0
1.000000 0.000000 0.0
1.000000 0.000000 0.0
1.000000 0.000000 0.0
1.000000 0.000000 0.0
1.000000 0.000000 0.0
1.000000 0.000000 0.0
1.000000 0.000000 0.0
1.000000 0.000000 0.0
1.000000 0.000000 0.0
1.000000 0.000000 0.0
1.000000 0.000000 0.0
1.000000 0.000000 0.0
1.000000 0.000000 0.0
1.000000 0.000000 0.0
1.000000 0.000000 0.0
1.000000 0.000000 0.0
1.000000 0.000000 0.0
1.000000 0.000000 0.0
1.000000 0.000000 0.0
1.000000 0.000000 0.0
1.000000 0.000000 0.0
1.000000 0.000000 0.0
1.000000 0.000000 0.0
1.000000 0.000000 0.0
1.000000 0.000000 0.0
1.000000 0.000000 0.0
1.000000 0.000000 0.0
1.000000 0.000000 0.0
1.000000 0.000000 0.0
1.000000 0.000000 0.0
1.000000 0.000000 0.0
1.000000 0.000000 0.0
1.000000 0.000000 0.0
1.000000 0.000000 0.0
1.000000 0.000000 0.0
1.000000 0.000000 0.0
1.000000 0.000000 0.0
1.000000 0.000000 0.0
1.000000 0.000000 0.0
1.000000 0.000000 0.0
1.000000 0.000000 0.0
1.000000 0.000000 0.0
1.000000 0.000000 0.0
1.000000 0.000000 0.0
1.000000 0.000000 0.0
1.000000 0.000000 0.0
1.000000 0.000000 0.0
1.000000 0.000000 0.0
1.000000 0.000000 0.0
1.000000 0.000000 0.0
1.000000 0.000000 0.0
1.000000 0.000000 0.0
1.000000 0.000000 0.0
1.000000 0.000000 0.0
1.000000 0.000000 0.0
1.000000 0.000000 0.0
1.000000 0.000000 0.0
1.000000 0.000000 0.0
1.000000 0.000000 0.0
1.000000 0.000000 0.0
1.000000 0.000000 0.0
1.000000 0.000000 0.0
1.000000 0.000000 0.0
1.000000 0.000000 0.0
1.000000 0.000000 0.0
1.000000 0.000000 0.0
1.000000 0.000000 0.0
0.500000 0.000000 0.0
-0.024154 0.000000 0.0
-0.075198 0.000000 0.0
-0.127432 0.000000 0.0
-0.176267 0.000000 0.0
-0.222071 0.000000 0.0
-0.266477 0.000000 0.0
-0.311866 0.000000 0.0
-0.167581 0.000000 0.0
0.024409 -0.023694 0.0
0.075132 -0.026313 0.0
0.125762 -0.024317 0.0
0.172748 -0.022669 0.0
0.218490 -0.022976 0.0
0.256599 -0.035162 0.0
0.284821 -0.039047 0.0
0.310863 -0.039195 0.0
0.336406 -0.037918 0.0
0.361480 -0.036153 0.0
0.385857 -0.034253 0.0
0.409366 -0.032347 0.0
0.431914 -0.030480 0.0
0.453464 -0.028672 0.0
0.474010 -0.026927 0.0
0.493564 -0.025249 0.0
0.512148 -0.023638 0.0
0.529790 -0.022094 0.0
0.546521 -0.020617 0.0
0.562374 -0.019206 0.0
0.577384 -0.017862 0.0
0.591585 -0.016583 0.0
0.605013 -0.015369 0.0
0.617704 -0.014221 0.0
0.629693 -0.013138 0.0
0.641017 -0.012121 0.0
0.651712 -0.011169 0.0
0.661814 -0.010283 0.0
0.671360 -0.009463 0.0
0.680388 -0.008710 0.0
0.688934 -0.008026 0.0
0.697038 -0.007409 0.0
0.704736 -0.006863 0.0
0.712069 -0.006388 0.0
0.719076 -0.005985 0.0
0.725799 -0.005657 0.0
0.732280 -0.005407 0.0
0.738562 -0.005239 0.0
0.744693 -0.005159 0.0
0.750719 -0.005173 0.0
0.756693 -0.005294 0.0
0.762673 -0.005538 0.0
0.768720 -0.005931 0.0
0.774906 -0.006512 0.0
0.781312 -0.007343 0.0
0.788026 -0.008526 0.0
0.795125 -0.010237 0.0
0.802616 -0.012787 0.0
0.810205 -0.016749 0.0
0.816502 -0.023188 0.0
0.819183 -0.031119 0.0
0.818847 -0.035029 0.0
0.818342 -0.035454 0.0
0.818975 -0.033921 0.0
0.820916 -0.031534 0.0
0.823898 -0.028902 0.0
0.827581 -0.026313 0.0
0.831676 -0.023882 0.0
0.835966 -0.021645 0.0
0.840300 -0.019602 0.0
0.844571 -0.017741 0.0
0.848707 -0.016051 0.0
0.852659 -0.014520 0.0
0.856396 -0.013144 0.0
0.859896 -0.011928 0.0
0.863146 -0.010885 0.0
0.866134 -0.010043 0.0
0.868841 -0.009444 0.0
0.871221 -0.009157 0.0
0.873162 -0.009267 0.0
0.874435 -0.009855 0.0
0.874644 -0.010871 0.0
0.873527 -0.011690 0.0
0.871387 -0.011515 0.0
0.868820 -0.010307 0.0
0.866234 -0.008301 0.0
0.863861 -0.005690 0.0
0.861928 -0.002578 0.0
0.860869 0.001108 0.0
0.500000 0.000000 0.0
0.500000 0.000000 0.0
1.000000 0.000000 0.0
1.000000 0.000000 0.0
1.000000 0.000000 0.0
1.000000 0.000000 0.0
1.000000 0.000000 0.0
1.000000 0.000000 0.0
1.000000 0.000000 0.0
1.000000 0.000000 0.0
1.000000 0.000000 0.0
1.000000 0.000000 0.0
1.000000 0.000000 0.0
1.000000 0.000000 0.0
1.000000 0.000000 0.0
1.000000 0.000000 0.0
1.000000 0.000000 0.0
1.000000 0.000000 0.0
1.000000 0.000000 0.0
1.000000 0.000000 0.0
1.000000 0.000000 0.0
1.000000 0.000000 0.0
1.000000 0.000000 0.0
1.000000 0.000000 0.0
1.000000 0.000000 0.0
1.000000 0.000000 0.0
1.000000 0.000000 0.0
1.000000 0.000000 0.0
1.000000 0.000000 0.0
1.000000 0.000000 0.0
1.000000 0.000000 0.0
1.000000 0.000000 0.0
1.000000 0.000000 0.0
1.000000 0.000000 0.0
1.000000 0.000000 0.0
1.000000 0.000000 0.0
1.000000 0.000000 0.0
1.000000 0.000000 0.0
1.000000 0.000000 0.0
1.000000 0.000000 0.0
1.000000 0.000000 0.0
1.000000 0.000000 0.0
1.000000 0.000000 0.0
1.000000 0.000000 0.0
1.000000 0.000000 0.0
1.000000 0.000000 0.0
1.000000 0.000000 0.0
1.000000 0.000000 0.0
1.000000 0.000000 0.0
1.000000 0.000000 0.0
1.000000 0.000000 0.0
1.000000 0.000000 0.0
1.000000 0.000000 0.0
1.000000 0.000000 0.0
1.000000 0.000000 0.0
1.000000 0.000000 0.0
1.000000 0.000000 0.0
1.000000 0.000000 0.0
1.000000 0.000000 0.0
1.000000 0.000000 0.0
1.000000 0.000000 0.0
1.000000 0.000000 0.0
1.000000 0.000000 0.0
1.000000 0.000000 0.0
1.000000 0.000000 0.0
1.000000 0.000000 0.0
1.000000 0.000000 0.0
1.000000 0.000000 0.0
1.000000 0.000000 0.0
1.000000 0.000000 0.0
1.000000 0.000000 0.0
1.000000 0.000000 0.0
1.000000 0.000000 0.0
1.000000 0.000000 0.0
1.000000 0.000000 0.0
1.000000 0.000000 0.0
1.000000 0.000000 0.0
1.000000 0.000000 0.0
1.000000 0.000000 0.0
1.000000 0.000000 0.0
1.000000 0.000000 0.0
1.000000 0.000000 0.0
1.000000 0.000000 0.0
1.000000 0.000000 0.0
1.000000 0.000000 0.0
1.000000 0.000000 0.0
1.000000 0.000000 0.0
1.000000 0.000000 0.0
1.000000 0.000000 0.0
1.000000 0.000000 0.0
1.000000 0.000000 0.0
1.000000 0.000000 0.0
1.000000 0.000000 0.0
1.000000 0.000000 0.0
1.000000 0.000000 0.0
1.000000 0.000000 0.0
1.000000 0.000000 0.0
1.000000 0.000000 0.0
1.000000 0.000000 0.0
1.000000 0.000000 0.0
1.000000 0.000000 0.0
1.000000 0.000000 0.0
1.000000 0.000000 0.0
1.000000 0.000000 0.0
1.000000 0.000000 0.0
1.000000 0.000000 0.0
0.500000 0.000000 0.0
-0.029084 0.000000 0.0
-0.090770 0.000000 0.0
-0.154610 0.000000 0.0
-0.215681 0.000000 0.0
-0.275482 0.000000 0.0
-0.152725 0.000000 0.0
0.024153 -0.023627 0.0
0.075196 -0.026890 0.0
0.127429 -0.025344 0.0
0.176265 -0.023491 0.0
0.222071 -0.022316 0.0
0.266480 -0.022093 0.0
0.311871 -0.023299 0.0
0.361681 -0.027227 0.0
0.399055 -0.058251 0.0
0.421244 -0.063952 0.0
0.446294 -0.062359 0.0
0.475047 -0.060367 0.0
0.504731 -0.060609 0.0
0.532199 -0.063012 0.0
0.556745 -0.063963 0.0
0.579708 -0.063286 0.0
0.601884 -0.061546 0.0
0.623516 -0.059231 0.0
0.644605 -0.056642 0.0
0.665083 -0.053945 0.0
0.684882 -0.051230 0.0
0.703957 -0.048547 0.0
0.722280 -0.045921 0.0
0.739840 -0.043369 0.0
0.756638 -0.040900 0.0
0.772683 -0.038520 0.0
0.787992 -0.036231 0.0
0.802582 -0.034036 0.0
0.816476 -0.031936 0.0
0.829700 -0.029933 0.0
0.842279 -0.028026 0.0
0.854241 -0.026217 0.0
0.865614 -0.024505 0.0
0.876428 -0.022892 0.0
0.886713 -0.021377 0.0
0.896498 -0.019962 0.0
0.905815 -0.018647 0.0
0.914695 -0.017434 0.0
0.923170 -0.016324 0.0
0.931272 -0.015317 0.0
0.939035 -0.014416 0.0
0.946490 -0.013623 0.0
0.953673 -0.012940 0.0
0.960618 -0.012370 0.0
0.967359 -0.011917 0.0
0.973932 -0.011586 0.0
0.980373 -0.011384 0.0
0.986720 -0.011321 0.0
0.993010 -0.011410 0.0
0.999280 -0.011672 0.0
1.005568 -0.012133 0.0
1.011908 -0.012836 0.0
1.018324 -0.013841 0.0
1.024818 -0.015236 0.0
1.031343 -0.017152 0.0
1.037741 -0.019763 0.0
1.043641 -0.023262 0.0
1.048346 -0.027677 0.0
1.051189 -0.032154 0.0
1.052501 -0.034969 0.0
1.053360 -0.035868 0.0
1.054543 -0.035323 0.0
1.056361 -0.033891 0.0
1.058829 -0.031995 0.0
1.061830 -0.029904 0.0
1.065213 -0.027769 0.0
1.068839 -0.025674 0.0
1.072590 -0.023657 0.0
1.076373 -0.021740 0.0
1.080115 -0.019930 0.0
1.083757 -0.018235 0.0
1.087253 -0.016662 0.0
1.090564 -0.015222 0.0
1.093653 -0.013931 0.0
1.096480 -0.012813 0.0
1.098998 -0.011898 0.0
1.101134 -0.011218 0.0
1.102783 -0.010796 0.0
1.103795 -0.010612 0.0
1.104010 -0.010538 0.0
1.103370 -0.010266 0.0
1.102042 -0.009471 0.0
1.100324 -0.008066 0.0
1.098496 -0.006128 0.0
1.096788 -0.003783 0.0
1.095421 -0.001184 0.0
1.094624 0.001569 0.0
0.500000 0.353999 0.0
-0.591343 0.000000 0.0
-1.011083 0.000000 0.0
-0.419740 0.000000 0.0
0.500000 0.000000 0.0
1.000000 0.000000 0.0
1.000000 0.000000 0.0
1.000000 0.000000 0.0
1.000000 0.000000 0.0
1.000000 0.000000 0.0
1.000000 0.000000 0.0
1.000000 0.000000 0.0
1.000000 0.000000 0.0
1.000000 0.000000 0.0
1.000000 0.000000 0.0
1.000000 0.000000 0.0
1.000000 0.000000 0.0
1.000000 0.000000 0.0
1.000000 0.000000 0.0
1.000000 0.000000 0.0
1.000000 0.000000 0.0
1.000000 0.000000 0.0
1.000000 0.000000 0.0
1.000000 0.000000 0.0
1.000000 0.000000 0.0
1.000000 0.000000 0.0
1.000000 0.000000 0.0
1.000000 0.000000 0.0
1.000000 0.000000 0.0
1.000000 0.000000 0.0