# vtk DataFile Version 3.0
Scalar Field
ASCII
DATASET RECTILINEAR_GRID
DIMENSIONS 200 50 1
X_COORDINATES 200 double
0.050000 0.150000 0.250000 0.350000 0.450000 0.550000 0.650000 0.750000 0.850000 0.950000 1.050000 1.150000 1.250000 1.350000 1.450000 1.550000 1.650000 1.750000 1.850000 1.950000 2.050000 2.150000 2.250000 2.350000 2.450000 2.550000 2.650000 2.750000 2.850000 2.950000 3.050000 3.150000 3.250000 3.350000 3.450000 3.550000 3.650000 3.750000 3.850000 3.950000 4.050000 4.150000 4.250000 4.350000 4.450000 4.550000 4.650000 4.750000 4.850000 4.950000 5.050000 5.150000 5.250000 5.350000 5.450000 5.550000 5.650000 5.750000 5.850000 5.950000 6.050000 6.150000 6.250000 6.350000 6.450000 6.550000 6.650000 6.750000 6.850000 6.950000 7.050000 7.150000 7.250000 7.350000 7.450000 7.550000 7.650000 7.750000 7.850000 7.950000 8.050000 8.150000 8.250000 8.350000 8.450000 8.550000 8.650000 8.750000 8.850000 8.950000 9.050000 9.150000 9.250000 9.350000 9.450000 9.550000 9.650000 9.750000 9.850000 9.950000 10.050000 10.150000 10.250000 10.350000 10.450000 10.550000 10.650000 10.750000 10.850000 10.950000 11.050000 11.150000 11.250000 11.350000 11.450000 11.550000 11.650000 11.750000 11.850000 11.950000 12.050000 12.150000 12.250000 12.350000 12.450000 12.550000 12.650000 12.750000 12.850000 12.950000 13.050000 13.150000 13.250000 13.350000 13.450000 13.550000 13.650000 13.750000 13.850000 13.950000 14.050000 14.150000 14.250000 14.350000 14.450000 14.550000 14.650000 14.750000 14.850000 14.950000 15.050000 15.150000 15.250000 15.350000 15.450000 15.550000 15.650000 15.750000 15.850000 15.950000 16.050000 16.150000 16.250000 16.350000 16.450000 16.550000 16.650000 16.750000 16.850000 16.950000 17.050000 17.150000 17.250000 17.350000 17.450000 17.550000 17.650000 17.750000 17.850000 17.950000 18.050000 18.150000 18.250000 18.350000 18.450000 18.550000 18.650000 18.750000 18.850000 18.950000 19.050000 19.150000 19.250000 19.350000 19.450000 19.550000 19.650000 19.750000 19.850000 19.950000 
Y_COORDINATES 50 double
0.050000 0.150000 0.250000 0.350000 0.450000 0.550000 0.650000 0.750000 0.850000 0.950000 1.050000 1.150000 1.250000 1.350000 1.450000 1.550000 1.650000 1.750000 1.850000 1.950000 2.050000 2.150000 2.250000 2.350000 2.450000 2.550000 2.650000 2.750000 2.850000 2.950000 3.050000 3.150000 3.250000 3.350000 3.450000 3.550000 3.650000 3.750000 3.850000 3.950000 4.050000 4.150000 4.250000 4.350000 4.450000 4.550000 4.650000 4.750000 4.850000 4.950000 
Z_COORDINATES 1 double
0.0
POINT_DATA 10000
SCALARS Skalarfeld double 1
LOOKUP_TABLE default
0.000000
0.000000
0.000000
0.000000
0.000000
0.000000
0.000000
0.000000
0.000000
0.000000
0.000000
0.000000
0.000000
0.000000
0.000000
0.000000
0.000000
0.000000
0.000000
0.000000
0.000000
0.000000
0.000000
0.000000
0.000000
0.000000
0.000000
0.000000
0.000000
0.000000
0.000000
0.000000
0.000000
0.000000
0.000000
0.000000
0.000000
0.000000
0.000000
0.000000
0.000000
0.000000
0.000000
0.000000
0.000000
0.000000
0.000000
0.000000
0.000000
0.000000
0.000000
0.000000
0.000000
0.000000
0.000000
0.000000
0.000000
0.000000
0.000000
0.000000
0.000000
0.000000
0.000000
0.000000
0.000000
0.000000
0.000000
0.000000
0.000000
0.000000
0.000000
0.000000
0.000000
0.000000
0.000000
0.000000
0.000000
0.000000
0.000000
0.000000
0.000000
0.000000
0.000000
0.000000
0.000000
0.000000
0.000000
0.000000
0.000000
0.000000
0.000000
0.000000
0.000000
0.000000
0.000000
0.000000
0.000000
0.000000
0.000000
0.000000
0.000000
0.000000
0.000000
0.000000
0.000000
0.000000
0.000000
0.000000
0.000000
0.000000
0.000000
0.000000
0.000000
0.000000
0.000000
0.000000
0.000000
0.000000
0.000000
0.000000
0.000000
0.000000
0.000000
0.000000
0.000000
0.000000
0.000000
0.000000
0.000000
0.000000
0.000000
0.000000
0.000000
0.000000
0.000000
0.000000
0.000000
0.000000
0.000000
0.000000
0.000000
0.000000
0.000000
0.000000
0.000000
0.000000
0.000000
0.000000
0.000000
0.000000
0.000000
0.000000
0.000000
0.000000
0.000000
0.000000
0.000000
0.000000
0.000000
0.000000
0.000000
0.000000
0.000000
0.000000
0.000000
0.000000
0.000000
0.000000
0.000000
0.000000
0.000000
0.000000
0.000000
0.000000
0.000000
0.000000
0.000000
0.000000
0.000000
0.000000
0.000000
0.000000
0.000000
0.000000
0.000000
0.000000
0.000000
0.000000
0.000000
0.000000
0.000000
0.000000
0.000000
-1.090140
-1.089392
-1.090250
-1.091458
-1.092526
-1.093628
-1.095133
0.000000
0.000000
0.000000
0.000000
0.000000
0.000000
0.000000
0.000000
0.000000
0.000000
0.000000
0.000000
0.000000
0.000000
0.000000
0.000000
0.000000
0.000000
0.000000
0.000000
0.000000
0.000000
0.000000
0.000000
0.000000
0.000000
0.000000
0.000000
0.000000
0.000000
0.000000
0.000000
0.000000
0.000000
0.000000
0.000000
0.000000
0.000000
0.000000
0.000000
0.000000
0.000000
0.000000
0.000000
0.000000
0.000000
0.000000
0.000000
0.000000
0.000000
0.000000
0.000000
0.000000
0.000000
0.000000
0.000000
0.000000
0.000000
0.000000
0.000000
0.000000
0.000000
0.000000
0.000000
0.000000
0.000000
0.000000
0.000000
0.000000
0.000000
0.000000
0.000000
0.000000
0.000000
0.000000
0.000000
0.000000
0.000000
0.000000
0.000000
0.000000
0.000000
0.000000
0.000000
0.000000
0.000000
0.000000
0.000000
0.000000
0.000000
0.000000
0.000000
0.000000
0.000000
0.000000
0.000000
0.000000
0.000000
0.000000
0.000000
0.000000
0.000000
0.000000
0.000000
0.000000
0.000000
0.000000
0.000000
0.000000
0.000000
0.000000
0.000000
0.000000
0.000000
0.000000
0.000000
0.000000
0.000000
0.000000
0.000000
0.000000
0.000000
0.000000
0.000000
0.000000
0.000000
0.000000
0.000000
0.000000
0.000000
0.000000
0.000000
0.000000
0.000000
0.000000
0.000000
0.000000
0.000000
0.000000
0.000000
0.000000
0.000000
0.000000
0.000000
0.000000
0.000000
0.000000
0.000000
0.000000
0.000000
0.000000
0.000000
0.000000
0.000000
0.000000
0.000000
0.000000
0.000000
0.000000
0.000000
0.000000
0.000000
0.000000
0.000000
0.000000
0.000000
0.000000
0.000000
0.000000
0.000000
0.000000
-1.054960
-1.044011
-1.036523
-1.032378
-1.030527
-1.030191
-1.030896
-1.032365
-1.034430
-1.036979
-1.039934
-1.043229
-1.046810
-1.050628
-1.054641
-1.058809
-1.063096
-1.067470
-1.071900
-1.076358
-1.080811
-1.087653
-1.090141
-1.089393
-1.090252
-1.091459
-1.092527
-1.093629
-1.095135
0.000000
0.000000
0.000000
0.000000
0.000000
0.000000
0.000000
0.000000
0.000000
0.000000
0.000000
0.000000
0.000000
0.000000
0.000000
0.000000
0.000000
0.000000
0.000000
0.000000
0.000000
0.000000
0.000000
0.000000
0.000000
0.000000
0.000000
0.000000
0.000000
0.000000
0.000000
0.000000
0.000000
0.000000
0.000000
0.000000
0.000000
0.000000
0.000000
0.000000
0.000000
0.000000
0.000000
0.000000
0.000000
0.000000
0.000000
0.000000
0.000000
0.000000
0.000000
0.000000
0.000000
0.000000
0.000000
0.000000
0.000000
0.000000
0.000000
0.000000
0.000000
0.000000
0.000000
0.000000
0.000000
0.000000
0.000000
0.000000
0.000000
0.000000
0.000000
0.000000
0.000000
0.000000
0.000000
0.000000
0.000000
0.000000
0.000000
0.000000
0.000000
0.000000
0.000000
0.000000
0.000000
0.000000
0.000000
0.000000
0.000000
0.000000
0.000000
0.000000
0.000000
0.000000
0.000000
0.000000
0.000000
0.000000
0.000000
0.000000
0.000000
0.000000
0.000000
0.000000
0.000000
0.000000
0.000000
0.000000
0.000000
0.000000
0.000000
0.000000
0.000000
0.000000
0.000000
0.000000
0.000000
0.000000
0.000000
0.000000
0.000000
0.000000
0.000000
0.000000
0.000000
0.000000
-0.925089
-0.919010
-0.913086
-0.908114
-0.904252
-0.901453
-0.899617
-0.898643
-0.898433
-0.898897
-0.899956
-0.901538
-0.903575
-0.906010
-0.908790
-0.911868
-0.915202
-0.918756
-0.922497
-0.926397
-0.930431
-0.934578
-0.938821
-0.943142
-0.947532
-0.951978
-0.956473
-0.961012
-0.965590
-0.970206
-0.974860
-0.979552
-0.984286
-0.989066
-0.993899
-0.998790
-1.003749
-1.008787
-1.013913
-1.019141
-1.024484
-1.029955
-1.035564
-1.041310
-1.050986
-1.054961
-1.044012
-1.036524
-1.032379
-1.030528
-1.030192
-1.030897
-1.032366
-1.034431
-1.036981
-1.039935
-1.043230
-1.046811
-1.050629
-1.054642
-1.058810
-1.063097
-1.067471
-1.071902
-1.076359
-1.080812
-1.085168
-1.087846
-1.088690
-1.089947
-1.091324
-1.092547
-1.093810
-1.095629
0.000000
0.000000
0.000000
0.000000
0.000000
0.000000
0.000000
0.000000
0.000000
0.000000
0.000000
0.000000
0.000000
0.000000
0.000000
0.000000
0.000000
0.000000
0.000000
0.000000
0.000000
0.000000
0.000000
0.000000
0.000000
0.000000
0.000000
0.000000
0.000000
0.000000
0.000000
0.000000
0.000000
0.000000
0.000000
0.000000
0.000000
0.000000
0.000000
0.000000
0.000000
0.000000
0.000000
0.000000
0.000000
0.000000
0.000000
0.000000
0.000000
0.000000
0.000000
0.000000
0.000000
0.000000
0.000000
0.000000
0.000000
0.000000
0.000000
0.000000
0.000000
0.000000
0.000000
0.000000
0.000000
0.000000
0.000000
0.000000
0.000000
0.000000
0.000000
0.000000
0.000000
0.000000
0.000000
0.000000
0.000000
0.000000
0.000000
0.000000
0.000000
0.000000
0.000000
0.000000
0.000000
0.000000
0.000000
0.000000
0.000000
0.000000
0.000000
0.000000
0.000000
0.000000
0.000000
0.000000
0.000000
0.000000
0.000000
0.000000
0.000000
0.000000
0.000000
0.000000
0.000000
0.000000
0.000000
0.000000
0.000000
0.000000
0.000000
0.000000
0.000000
0.000000
0.000000
0.000000
0.000000
0.000000
0.000000
0.000000
0.000000
-0.965761
-0.949696
-0.938058
-0.930999
-0.926169
-0.925090
-0.919011
-0.913086
-0.908115
-0.904253
-0.901453
-0.899618
-0.898643
-0.898433
-0.898898
-0.899957
-0.901538
-0.903575
-0.906010
-0.908790
-0.911868
-0.915202
-0.918756
-0.922498
-0.926398
-0.930432
-0.934579
-0.938821
-0.943143
-0.947532
-0.951979
-0.956474
-0.961013
-0.965591
-0.970207
-0.974861
-0.979553
-0.984287
-0.989067
-0.993899
-0.998791
-1.003750
-1.008787
-1.013914
-1.019142
-1.024485
-1.029956
-1.035565
-1.041311
-1.047014
-1.049027
-1.042833
-1.036872
-1.033017
-1.031107
-1.030656
-1.031265
-1.032665
-1.034681
-1.037194
-1.040119
-1.043390
-1.046951
-1.050751
-1.054747
-1.058896
-1.063160
-1.067496
-1.071857
-1.076175
-1.080323
-1.084012
-1.086618
-1.088268
-1.089842
-1.091416
-1.092961
-1.094685
-1.097126
0.000000
0.000000
0.000000
0.000000
0.000000
0.000000
0.000000
0.000000
0.000000
0.000000
0.000000
0.000000
0.000000
0.000000
0.000000
0.000000
0.000000
0.000000
0.000000
0.000000
0.000000
0.000000
0.000000
0.000000
0.000000
0.000000
0.000000
0.000000
0.000000
0.000000
0.000000
0.000000
0.000000
0.000000
0.000000
0.000000
0.000000
0.000000
0.000000
0.000000
0.000000
0.000000
0.000000
0.000000
0.000000
0.000000
0.000000
0.000000
0.000000
0.000000
0.000000
0.000000
0.000000
0.000000
0.000000
0.000000
0.000000
0.000000
0.000000
0.000000
0.000000
0.000000
0.000000
0.000000
0.000000
0.000000
0.000000
0.000000
0.000000
0.000000
0.000000
0.000000
0.000000
0.000000
0.000000
0.000000
0.000000
0.000000
0.000000
0.000000
0.000000
0.000000
0.000000
0.000000
0.000000
0.000000
0.000000
0.000000
0.000000
0.000000
0.000000
0.000000
0.000000
0.000000
0.000000
0.000000
0.000000
0.000000
0.000000
0.000000
0.000000
0.000000
0.000000
0.000000
0.000000
0.000000
0.000000
0.000000
0.000000
0.000000
0.000000
0.000000
0.000000
-0.993801
-0.977308
-0.964783
-0.956911
-0.952732
-0.951470
-0.952700
-0.960984
-0.965761
-0.949696
-0.938058
-0.930999
-0.927248
-0.924186
-0.919080
-0.913701
-0.908964
-0.905177
-0.902383
-0.900525
-0.899517
-0.899268
-0.899694
-0.900714
-0.902256
-0.904256
-0.906655
-0.909399
-0.912443
-0.915745
-0.919267
-0.922977
-0.926847
-0.930852
-0.934971
-0.939186
-0.943480
-0.947843
-0.952262
-0.956730
-0.961242
-0.965793
-0.970381
-0.975006
-0.979668
-0.984370
-0.989116
-0.993910
-0.998758
-1.003667
-1.008643
-1.013689
-1.018808
-1.023987
-1.029192
-1.034324
-1.039116
-1.042843
-1.043683
-1.040592
-1.036727
-1.033759
-1.032097
-1.031636
-1.032157
-1.033458
-1.035384
-1.037820
-1.040679
-1.043890
-1.047396
-1.051144
-1.055086
-1.059177
-1.063370
-1.067612
-1.071838
-1.075958
-1.079833
-1.083251
-1.085983
-1.088138
-1.090087
-1.091999
-1.093985
-1.096256
-1.099335
3.116496
0.000000
0.000000
0.000000
0.000000
0.000000
0.000000
0.000000
0.000000
0.000000
0.000000
0.000000
0.000000
0.000000
0.000000
0.000000
0.000000
0.000000
0.000000
0.000000
0.000000
0.000000
0.000000
0.000000
0.000000
0.000000
0.000000
0.000000
0.000000
0.000000
0.000000
0.000000
0.000000
0.000000
0.000000
0.000000
0.000000
0.000000
0.000000
0.000000
0.000000
0.000000
0.000000
0.000000
0.000000
0.000000
0.000000
0.000000
0.000000
0.000000
0.000000
0.000000
0.000000
0.000000
0.000000
0.000000
0.000000
0.000000
0.000000
0.000000
0.000000
0.000000
0.000000
0.000000
0.000000
0.000000
0.000000
0.000000
0.000000
0.000000
0.000000
0.000000
0.000000
0.000000
0.000000
0.000000
0.000000
0.000000
0.000000
0.000000
0.000000
0.000000
0.000000
0.000000
0.000000
0.000000
0.000000
0.000000
0.000000
0.000000
0.000000
0.000000
0.000000
0.000000
0.000000
0.000000
0.000000
0.000000
0.000000
0.000000
0.000000
0.000000
0.000000
0.000000
0.000000
0.000000
0.000000
-1.038210
-1.016531
-1.000468
-0.990957
-0.986720
-0.990307
-0.993801
-0.977309
-0.964783
-0.956911
-0.952732
-0.951471
-0.952700
-0.956208
-0.958789
-0.949628
-0.940167
-0.933181
-0.928375
-0.924279
-0.919601
-0.914818
-0.910492
-0.906929
-0.904234
-0.902401
-0.901378
-0.901092
-0.901466
-0.902427
-0.903907
-0.905842
-0.908174
-0.910852
-0.913829
-0.917064
-0.920520
-0.924166
-0.927971
-0.931913
-0.935969
-0.940121
-0.944354
-0.948654
-0.953011
-0.957417
-0.961866
-0.966353
-0.970875
-0.975432
-0.980023
-0.984650
-0.989314
-0.994020
-0.998768
-1.003561
-1.008397
-1.013269
-1.018158
-1.023022
-1.027776
-1.032252
-1.036126
-1.038824
-1.039569
-1.038222
-1.036067
-1.034171
-1.033034
-1.032771
-1.033325
-1.034586
-1.036445
-1.038804
-1.041584
-1.044716
-1.048143
-1.051810
-1.055668
-1.059667
-1.063755
-1.067870
-1.071943
-1.075887
-1.079590
-1.082928
-1.085820
-1.088342
-1.090683
-1.093005
-1.095468
-1.098204
-1.101990
3.116496
1.922552
0.642619
1.021544
0.000000
0.000000
0.000000
0.000000
0.000000
0.000000
0.000000
0.000000
0.000000
0.000000
0.000000
0.000000
0.000000
0.000000
0.000000
0.000000
0.000000
0.000000
0.000000
0.000000
0.000000
0.000000
0.000000
0.000000
0.000000
0.000000
0.000000
0.000000
0.000000
0.000000
0.000000
0.000000
0.000000
0.000000
0.000000
0.000000
0.000000
0.000000
0.000000
0.000000
0.000000
0.000000
0.000000
0.000000
0.000000
0.000000
0.000000
0.000000
0.000000
0.000000
0.000000
0.000000
0.000000
0.000000
0.000000
0.000000
0.000000
0.000000
0.000000
0.000000
0.000000
0.000000
0.000000
0.000000
0.000000
0.000000
0.000000
0.000000
0.000000
0.000000
0.000000
0.000000
0.000000
0.000000
0.000000
0.000000
0.000000
0.000000
0.000000
0.000000
0.000000
0.000000
0.000000
0.000000
0.000000
0.000000
0.000000
0.000000
0.000000
0.000000
0.000000
0.000000
0.000000
0.000000
0.000000
0.000000
0.000000
0.000000
-1.098002
-1.064230
-1.042006
-1.031299
-1.033671
-1.038210
-1.016531
-1.000468
-0.990957
-0.986720
-0.986814
-0.987775
-0.977732
-0.967448
-0.959982
-0.955562
-0.953735
-0.953857
-0.954853
-0.954191
-0.948535
-0.941515
-0.935262
-0.930150
-0.925640
-0.921182
-0.916863
-0.912961
-0.909695
-0.907174
-0.905424
-0.904418
-0.904107
-0.904428
-0.905317
-0.906711
-0.908552
-0.910785
-0.913360
-0.916232
-0.919361
-0.922710
-0.926249
-0.929948
-0.933783
-0.937733
-0.941780
-0.945908
-0.950103
-0.954356
-0.958656
-0.962999
-0.967378
-0.971790
-0.976234
-0.980708
-0.985212
-0.989746
-0.994311
-0.998903
-1.003520
-1.008152
-1.012779
-1.017366
-1.021854
-1.026135
-1.030037
-1.033294
-1.035554
-1.036502
-1.036199
-1.035258
-1.034320
-1.033798
-1.033875
-1.034587
-1.035898
-1.037745
-1.040058
-1.042771
-1.045825
-1.049163
-1.052734
-1.056488
-1.060375
-1.064340
-1.068315
-1.072238
-1.076040
-1.079642
-1.082978
-1.086023
-1.088842
-1.091546
-1.094266
-1.097126
-1.100309
-1.104860
1.635595
0.728608
0.642619
1.021544
0.443521
0.014917
0.227663
0.416234
0.000000
0.000000
0.000000
0.000000
0.000000
0.000000
0.000000
0.000000
0.000000
0.000000
0.000000
0.000000
0.000000
0.000000
0.000000
0.000000
0.000000
0.000000
0.000000
0.000000
0.000000
0.000000
0.000000
0.000000
0.000000
0.000000
0.000000
0.000000
0.000000
0.000000
0.000000
0.000000
0.000000
0.000000
0.000000
0.000000
0.000000
0.000000
0.000000
0.000000
0.000000
0.000000
0.000000
0.000000
0.000000
0.000000
0.000000
0.000000
0.000000
0.000000
0.000000
0.000000
0.000000
0.000000
0.000000
0.000000
0.000000
0.000000
0.000000
0.000000
0.000000
0.000000
0.000000
0.000000
0.000000
0.000000
0.000000
0.000000
0.000000
0.000000
0.000000
0.000000
0.000000
0.000000
0.000000
0.000000
0.000000
0.000000
0.000000
0.000000
0.000000
0.000000
0.000000
0.000000
0.000000
0.000000
0.000000
0.000000
-1.147210
-1.109458
-1.084071
-1.071615
-1.069050
-1.086213
-1.098002
-1.064231
-1.042006
-1.031299
-1.029132
-1.030375
-1.017355
-1.004258
-0.995074
-0.989860
-0.987341
-0.984619
-0.977705
-0.969903
-0.963450
-0.959043
-0.956550
-0.955391
-0.954559
-0.952569
-0.948275
-0.942858
-0.937486
-0.932612
-0.928163
-0.923963
-0.920039
-0.916531
-0.913578
-0.911270
-0.909640
-0.908682
-0.908361
-0.908631
-0.909440
-0.910732
-0.912455
-0.914559
-0.916997
-0.919726
-0.922709
-0.925910
-0.929298
-0.932847
-0.936531
-0.940330
-0.944227
-0.948204
-0.952249
-0.956350
-0.960500
-0.964690
-0.968915
-0.973172
-0.977456
-0.981766
-0.986100
-0.990455
-0.994830
-0.999217
-1.003608
-1.007988
-1.012328
-1.016587
-1.020697
-1.024558
-1.028023
-1.030909
-1.033018
-1.034229
-1.034634
-1.034567
-1.034418
-1.034492
-1.034967
-1.035918
-1.037353
-1.039245
-1.041551
-1.044221
-1.047205
-1.050455
-1.053924
-1.057566
-1.061330
-1.065169
-1.068991
-1.072764
-1.076440
-1.079969
-1.083317
-1.086484
-1.089509
-1.092490
-1.095541
-1.098794
-1.102427
-1.107717
0.938907
0.686501
0.605345
0.501174
-0.134502
0.014918
0.227663
0.416234
0.068968
-0.132697
0.029369
0.178659
0.000000
0.000000
0.000000
0.000000
0.000000
0.000000
0.000000
0.000000
0.000000
0.000000
0.000000
0.000000
0.000000
0.000000
0.000000
0.000000
0.000000
0.000000
0.000000
0.000000
0.000000
0.000000
0.000000
0.000000
0.000000
0.000000
0.000000
0.000000
0.000000
0.000000
0.000000
0.000000
0.000000
0.000000
0.000000
0.000000
0.000000
0.000000
0.000000
0.000000
0.000000
0.000000
0.000000
0.000000
0.000000
0.000000
0.000000
0.000000
0.000000
0.000000
0.000000
0.000000
0.000000
0.000000
0.000000
0.000000
0.000000
0.000000
0.000000
0.000000
0.000000
0.000000
0.000000
0.000000
0.000000
0.000000
0.000000
0.000000
0.000000
0.000000
0.000000
0.000000
0.000000
0.000000
0.000000
0.000000
0.000000
0.000000
0.000000
-1.227201
-1.172285
-1.138205
-1.124162
-1.135841
-1.147210
-1.109458
-1.084072
-1.071615
-1.069050
-1.074424
-1.082460
-1.065007
-1.047779
-1.036834
-1.031206
-1.026810
-1.017542
-1.007414
-0.999118
-0.993213
-0.988929
-0.984637
-0.978877
-0.972642
-0.967111
-0.962851
-0.959863
-0.957742
-0.955791
-0.953188
-0.949456
-0.944991
-0.940372
-0.935945
-0.931800
-0.927932
-0.924381
-0.921234
-0.918583
-0.916495
-0.915001
-0.914104
-0.913784
-0.914005
-0.914727
-0.915904
-0.917489
-0.919438
-0.921709
-0.924263
-0.927064
-0.930079
-0.933278
-0.936635
-0.940128
-0.943734
-0.947437
-0.951220
-0.955072
-0.958979
-0.962934
-0.966928
-0.970956
-0.975013
-0.979094
-0.983197
-0.987317
-0.991452
-0.995595
-0.999738
-1.003870
-1.007969
-1.012007
-1.015940
-1.019706
-1.023219
-1.026373
-1.029048
-1.031139
-1.032607
-1.033533
-1.034118
-1.034609
-1.035220
-1.036100
-1.037329
-1.038938
-1.040923
-1.043260
-1.045913
-1.048845
-1.052014
-1.055381
-1.058911
-1.062532
-1.066168
-1.069834
-1.073472
-1.077042
-1.080512
-1.083867
-1.087117
-1.090306
-1.093510
-1.096830
-1.100391
-1.104348
-1.110198
0.623490
0.547576
0.468730
0.348863
0.117053
0.113798
0.171438
0.108345
-0.278297
-0.132697
0.029369
0.178659
-0.122968
-0.293930
-0.149243
-0.009360
0.000000
0.000000
0.000000
0.000000
0.000000
0.000000
0.000000
0.000000
0.000000
0.000000
0.000000
0.000000
0.000000
0.000000
0.000000
0.000000
0.000000
0.000000
0.000000
0.000000
0.000000
0.000000
0.000000
0.000000
0.000000
0.000000
0.000000
0.000000
0.000000
0.000000
0.000000
0.000000
0.000000
0.000000
0.000000
0.000000
0.000000
0.000000
0.000000
0.000000
0.000000
0.000000
0.000000
0.000000
0.000000
0.000000
0.000000
0.000000
0.000000
0.000000
0.000000
0.000000
0.000000
0.000000
0.000000
0.000000
0.000000
0.000000
0.000000
0.000000
0.000000
0.000000
0.000000
0.000000
0.000000
0.000000
0.000000
0.000000
0.000000
-1.293430
-1.229811
-1.189738
-1.172585
-1.171885
-1.205357
-1.227201
-1.172285
-1.138205
-1.124162
-1.124472
-1.131177
-1.110875
-1.091137
-1.079019
-1.074208
-1.074155
-1.073395
-1.063167
-1.050888
-1.040866
-1.033478
-1.026854
-1.018826
-1.010429
-1.002943
-0.996810
-0.991681
-0.986767
-0.981478
-0.976109
-0.971201
-0.967093
-0.963804
-0.961081
-0.958492
-0.955587
-0.952126
-0.948237
-0.944201
-0.940243
-0.936482
-0.932977
-0.929782
-0.926965
-0.924591
-0.922710
-0.921349
-0.920514
-0.920195
-0.920366
-0.920995
-0.922046
-0.923478
-0.925254
-0.927337
-0.929690
-0.932281
-0.935080
-0.938059
-0.941192
-0.944458
-0.947837
-0.951310
-0.954864
-0.958485
-0.962161
-0.965884
-0.969645
-0.973438
-0.977258
-0.981100
-0.984959
-0.988832
-0.992713
-0.996595
-1.000469
-1.004320
-1.008129
-1.011867
-1.015494
-1.018959
-1.022197
-1.025133
-1.027694
-1.029826
-1.031525
-1.032855
-1.033946
-1.034956
-1.036035
-1.037298
-1.038818
-1.040630
-1.042743
-1.045144
-1.047809
-1.050709
-1.053809
-1.057076
-1.060466
-1.063905
-1.067399
-1.070913
-1.074412
-1.077867
-1.081261
-1.084593
-1.087881
-1.091167
-1.094517
-1.098017
-1.101773
-1.105911
-1.112013
0.451413
0.421951
0.366705
0.288814
0.181916
0.134095
0.109457
0.035020
-0.101437
-0.076485
-0.023364
-0.085042
-0.424596
-0.293930
-0.149243
-0.009360
-0.322574
-0.529127
-0.404095
-0.308282
-0.195700
0.000000
0.000000
0.000000
0.000000
0.000000
0.000000
0.000000
0.000000
0.000000
0.000000
0.000000
0.000000
0.000000
0.000000
0.000000
0.000000
0.000000
0.000000
0.000000
0.000000
0.000000
0.000000
0.000000
0.000000
0.000000
0.000000
0.000000
0.000000
0.000000
0.000000
0.000000
0.000000
0.000000
0.000000
0.000000
0.000000
0.000000
0.000000
0.000000
0.000000
0.000000
0.000000
0.000000
0.000000
0.000000
0.000000
0.000000
0.000000
0.000000
0.000000
0.000000
0.000000
0.000000
0.000000
0.000000
0.000000
0.000000
0.000000
-1.382922
-1.304835
-1.254961
-1.233063
-1.231146
-1.268613
-1.293430
-1.229811
-1.189738
-1.172585
-1.171885
-1.183514
-1.199558
-1.173110
-1.147610
-1.132936
-1.127105
-1.123176
-1.110225
-1.095940
-1.085128
-1.078567
-1.074660
-1.070234
-1.062232
-1.052717
-1.043795
-1.036017
-1.028762
-1.021277
-1.013821
-1.006927
-1.000842
-0.995427
-0.990327
-0.985290
-0.980393
-0.975868
-0.971879
-0.968431
-0.965370
-0.962443
-0.959398
-0.956100
-0.952585
-0.948986
-0.945444
-0.942061
-0.938905
-0.936037
-0.933513
-0.931381
-0.929682
-0.928439
-0.927658
-0.927335
-0.927452
-0.927983
-0.928901
-0.930172
-0.931764
-0.933644
-0.935781
-0.938145
-0.940708
-0.943445
-0.946331
-0.949347
-0.952473
-0.955693
-0.958990
-0.962353
-0.965771
-0.969234
-0.972734
-0.976265
-0.979820
-0.983395
-0.986985
-0.990585
-0.994190
-0.997793
-1.001382
-1.004946
-1.008466
-1.011917
-1.015266
-1.018473
-1.021493
-1.024275
-1.026777
-1.028975
-1.030875
-1.032527
-1.034018
-1.035454
-1.036937
-1.038553
-1.040359
-1.042390
-1.044655
-1.047148
-1.049852
-1.052741
-1.055788
-1.058961
-1.062201
-1.065509
-1.068856
-1.072216
-1.075565
-1.078889
-1.082181
-1.085451
-1.088721
-1.092033
-1.095445
-1.099028
-1.102865
-1.107047
-1.113199
0.342014
0.326837
0.290095
0.237990
0.173623
0.122917
0.078904
0.021800
-0.044081
-0.065405
-0.079284
-0.146479
-0.269135
-0.246758
-0.201789
-0.273874
-0.635787
-0.529127
-0.404095
-0.308282
-0.195700
-0.508961
-0.744482
-0.638236
-0.561915
-0.489341
-0.382887
0.000000
0.000000
0.000000
0.000000
0.000000
0.000000
0.000000
0.000000
0.000000
0.000000
0.000000
0.000000
0.000000
0.000000
0.000000
0.000000
0.000000
0.000000
0.000000
0.000000
0.000000
0.000000
0.000000
0.000000
0.000000
0.000000
0.000000
0.000000
0.000000
0.000000
0.000000
0.000000
0.000000
0.000000
0.000000
0.000000
0.000000
0.000000
0.000000
0.000000
0.000000
0.000000
0.000000
0.000000
0.000000
0.000000
-1.518099
-1.411151
-1.342665
-1.312409
-1.308632
-1.352997
-1.382921
-1.304835
-1.254961
-1.233063
-1.231146
-1.243797
-1.261540
-1.230647
-1.200885
-1.184156
-1.179328
-1.181863
-1.183044
-1.168814
-1.151532
-1.138144
-1.129058
-1.121056
-1.110407
-1.099117
-1.089437
-1.082018
-1.076074
-1.070036
-1.062680
-1.054526
-1.046465
-1.038890
-1.031673
-1.024586
-1.017709
-1.011255
-1.005344
-0.999924
-0.994843
-0.989987
-0.985370
-0.981079
-0.977181
-0.973666
-0.970438
-0.967350
-0.964260
-0.961085
-0.957830
-0.954561
-0.951361
-0.948307
-0.945462
-0.942878
-0.940602
-0.938675
-0.937129
-0.935982
-0.935242
-0.934907
-0.934965
-0.935397
-0.936180
-0.937288
-0.938692
-0.940366
-0.942281
-0.944410
-0.946730
-0.949215
-0.951844
-0.954598
-0.957458
-0.960408
-0.963434
-0.966524
-0.969666
-0.972852
-0.976073
-0.979323
-0.982596
-0.985887
-0.989192
-0.992505
-0.995822
-0.999135
-1.002436
-1.005714
-1.008953
-1.012134
-1.015232
-1.018218
-1.021061
-1.023731
-1.026204
-1.028469
-1.030541
-1.032455
-1.034271
-1.036059
-1.037892
-1.039828
-1.041910
-1.044164
-1.046598
-1.049207
-1.051975
-1.054880
-1.057894
-1.060986
-1.064124
-1.067307
-1.070508
-1.073710
-1.076898
-1.080068
-1.083227
-1.086389
-1.089585
-1.092854
-1.096248
-1.099825
-1.103647
-1.107772
-1.113845
0.262975
0.253468
0.228361
0.191582
0.146781
0.103000
0.060201
0.014122
-0.032808
-0.068035
-0.102565
-0.154194
-0.215074
-0.236321
-0.254605
-0.330410
-0.468490
-0.456843
-0.403971
-0.367599
-0.451013
-0.822222
-0.744482
-0.638236
-0.561915
-0.489341
-0.382887
-0.742963
-1.065664
-0.979460
-0.931916
-0.901371
-0.879281
-0.861378
-0.844960
-0.827824
-0.807600
-0.780892
-0.741378
-0.658649
0.000000
0.000000
0.000000
0.000000
0.000000
0.000000
0.000000
0.000000
0.000000
0.000000
0.000000
0.000000
0.000000
0.000000
0.000000
0.000000
0.000000
0.000000
0.000000
0.000000
0.000000
0.000000
0.000000
0.000000
0.000000
0.000000
-1.722609
-1.563040
-1.457830
-1.408276
-1.395082
-1.405721
-1.475173
-1.518099
-1.411151
-1.342665
-1.312409
-1.308632
-1.323073
-1.343502
-1.305108
-1.267957
-1.246714
-1.239915
-1.241985
-1.242690
-1.225999
-1.206258
-1.191877
-1.184103
-1.180303
-1.175505
-1.164976
-1.152149
-1.140365
-1.130403
-1.121163
-1.111384
-1.101571
-1.092634
-1.084916
-1.078061
-1.071338
-1.064201
-1.056737
-1.049294
-1.042093
-1.035155
-1.028440
-1.021988
-1.015889
-1.010200
-1.004902
-0.999931
-0.995234
-0.990806
-0.986672
-0.982852
-0.979327
-0.976036
-0.972892
-0.969811
-0.966743
-0.963683
-0.960664
-0.957737
-0.954956
-0.952369
-0.950021
-0.947951
-0.946191
-0.944768
-0.943696
-0.942984
-0.942630
-0.942628
-0.942961
-0.943613
-0.944562
-0.945784
-0.947255
-0.948952
-0.950851
-0.952928
-0.955162
-0.957534
-0.960024
-0.962615
-0.965293
-0.968043
-0.970853
-0.973713
-0.976613
-0.979547
-0.982508
-0.985490
-0.988489
-0.991501
-0.994521
-0.997545
-1.000567
-1.003582
-1.006579
-1.009549
-1.012477
-1.015346
-1.018138
-1.020833
-1.023414
-1.025869
-1.028198
-1.030412
-1.032542
-1.034626
-1.036713
-1.038851
-1.041078
-1.043423
-1.045903
-1.048520
-1.051265
-1.054123
-1.057070
-1.060079
-1.063121
-1.066182
-1.069251
-1.072310
-1.075349
-1.078363
-1.081358
-1.084349
-1.087360
-1.090426
-1.093589
-1.096895
-1.100395
-1.104134
-1.108143
-1.114075
0.202037
0.195432
0.177443
0.150338
0.116781
0.080642
0.043190
0.004102
-0.035517
-0.072627
-0.110364
-0.153387
-0.198304
-0.233739
-0.271118
-0.327903
-0.394881
-0.415244
-0.414282
-0.429211
-0.510334
-0.660510
-0.664603
-0.621328
-0.578400
-0.556813
-0.663616
-1.103039
-1.065664
-0.979460
-0.931916
-0.901370
-0.879281
-0.861378
-0.844960
-0.827824
-0.807600
-0.780892
-0.741378
-0.658649
-1.035434
-1.414445
-1.345159
-1.312533
-1.296239
-1.288650
-1.286338
-1.287535
-1.291240
-1.296849
-1.303994
-1.312451
-1.322101
-1.332867
-1.344818
-1.357764
-1.371451
-1.386075
-1.401855
-1.419087
-1.438182
-1.459744
-1.484701
-1.514604
-1.552340
-1.659063
-1.722608
-1.563039
-1.457830
-1.408276
-1.395082
-1.405721
-1.432248
-1.460358
-1.408541
-1.358149
-1.329121
-1.319009
-1.320154
-1.319716
-1.298440
-1.273638
-1.255436
-1.245287
-1.240052
-1.233989
-1.221775
-1.207491
-1.195209
-1.186130
-1.179099
-1.171756
-1.162286
-1.151585
-1.141048
-1.131238
-1.121903
-1.112659
-1.103647
-1.095207
-1.087486
-1.080320
-1.073374
-1.066384
-1.059332
-1.052341
-1.045525
-1.038928
-1.032565
-1.026466
-1.020675
-1.015219
-1.010093
-1.005271
-1.000725
-0.996446
-0.992436
-0.988693
-0.985195
-0.981903
-0.978763
-0.975725
-0.972757
-0.969853
-0.967029
-0.964318
-0.961755
-0.959378
-0.957223
-0.955319
-0.953693
-0.952366
-0.951352
-0.950656
-0.950281
-0.950219
-0.950459
-0.950988
-0.951788
-0.952839
-0.954120
-0.955610
-0.957288
-0.959134
-0.961127
-0.963249
-0.965482
-0.967810
-0.970219
-0.972696
-0.975229
-0.977807
-0.980423
-0.983070
-0.985740
-0.988429
-0.991134
-0.993851
-0.996577
-0.999308
-1.002042
-1.004774
-1.007499
-1.010210
-1.012900
-1.015557
-1.018172
-1.020735
-1.023239
-1.025679
-1.028060
-1.030394
-1.032702
-1.035013
-1.037358
-1.039766
-1.042262
-1.044862
-1.047570
-1.050382
-1.053284
-1.056256
-1.059273
-1.062307
-1.065331
-1.068333
-1.071300
-1.074221
-1.077092
-1.079917
-1.082713
-1.085502
-1.088319
-1.091204
-1.094204
-1.097366
-1.100736
-1.104350
-1.108224
-1.114018
0.153477
0.148593
0.135103
0.114337
0.088029
0.058202
0.026069
-0.007828
-0.042817
-0.078014
-0.114220
-0.152590
-0.192056
-0.230035
-0.269790
-0.315399
-0.361662
-0.393220
-0.417259
-0.450760
-0.509816
-0.583279
-0.609824
-0.608488
-0.606296
-0.630917
-0.733381
-0.925338
-0.961587
-0.940054
-0.914157
-0.892622
-0.875309
-0.860707
-0.847333
-0.833981
-0.820054
-0.807423
-0.809521
-0.938540
-1.412218
-1.414445
-1.345159
-1.312533
-1.296239
-1.288650
-1.286338
-1.287535
-1.291240
-1.296849
-1.303993
-1.312451
-1.322101
-1.332867
-1.344818
-1.357764
-1.371451
-1.386075
-1.401855
-1.419087
-1.438182
-1.459744
-1.484701
-1.514604
-1.552340
-1.595517
-1.627979
-1.550270
-1.474552
-1.429444
-1.411177
-1.411158
-1.419679
-1.421574
-1.394325
-1.361795
-1.337611
-1.323655