# vtk DataFile Version 3.0
Scalar Field
ASCII
DATASET RECTILINEAR_GRID
DIMENSIONS 200 75 1
X_COORDINATES 200 double
0.050000 0.150000 0.250000 0.350000 0.450000 0.550000 0.650000 0.750000 0.850000 0.950000 1.050000 1.150000 1.250000 1.350000 1.450000 1.550000 1.650000 1.750000 1.850000 1.950000 2.050000 2.150000 2.250000 2.350000 2.450000 2.550000 2.650000 2.750000 2.850000 2.950000 3.050000 3.150000 3.250000 3.350000 3.450000 3.550000 3.650000 3.750000 3.850000 3.950000 4.050000 4.150000 4.250000 4.350000 4.450000 4.550000 4.650000 4.750000 4.850000 4.950000 5.050000 5.150000 5.250000 5.350000 5.450000 5.550000 5.650000 5.750000 5.850000 5.950000 6.050000 6.150000 6.250000 6.350000 6.450000 6.550000 6.650000 6.750000 6.850000 6.950000 7.050000 7.150000 7.250000 7.350000 7.450000 7.550000 7.650000 7.750000 7.850000 7.950000 8.050000 8.150000 8.250000 8.350000 8.450000 8.550000 8.650000 8.750000 8.850000 8.950000 9.050000 9.150000 9.250000 9.350000 9.450000 9.550000 9.650000 9.750000 9.850000 9.950000 10.050000 10.150000 10.250000 10.350000 10.450000 10.550000 10.650000 10.750000 10.850000 10.950000 11.050000 11.150000 11.250000 11.350000 11.450000 11.550000 11.650000 11.750000 11.850000 11.950000 12.050000 12.150000 12.250000 12.350000 12.450000 12.550000 12.650000 12.750000 12.850000 12.950000 13.050000 13.150000 13.250000 13.350000 13.450000 13.550000 13.650000 13.750000 13.850000 13.950000 14.050000 14.150000 14.250000 14.350000 14.450000 14.550000 14.650000 14.750000 14.850000 14.950000 15.050000 15.150000 15.250000 15.350000 15.450000 15.550000 15.650000 15.750000 15.850000 15.950000 16.050000 16.150000 16.250000 16.350000 16.450000 16.550000 16.650000 16.750000 16.850000 16.950000 17.050000 17.150000 17.250000 17.350000 17.450000 17.550000 17.650000 17.750000 17.850000 17.950000 18.050000 18.150000 18.250000 18.350000 18.450000 18.550000 18.650000 18.750000 18.850000 18.950000 19.050000 19.150000 19.250000 19.350000 19.450000 19.550000 19.650000 19.750000 19.850000 19.950000 
Y_COORDINATES 75 double
0.050000 0.150000 0.250000 0.350000 0.450000 0.550000 0.650000 0.750000 0.850000 0.950000 1.050000 1.150000 1.250000 1.350000 1.450000 1.550000 1.650000 1.750000 1.850000 1.950000 2.050000 2.150000 2.250000 2.350000 2.450000 2.550000 2.650000 2.750000 2.850000 2.950000 3.050000 3.150000 3.250000 3.350000 3.450000 3.550000 3.650000 3.750000 3.850000 3.950000 4.050000 4.150000 4.250000 4.350000 4.450000 4.550000 4.650000 4.750000 4.850000 4.950000 5.050000 5.150000 5.250000 5.350000 5.450000 5.550000 5.650000 5.750000 5.850000 5.950000 6.050000 6.150000 6.250000 6.350000 6.450000 6.550000 6.650000 6.750000 6.850000 6.950000 7.050000 7.150000 7.250000 7.350000 7.450000 
Z_COORDINATES 1 double
0.0
POINT_DATA 15000
SCALARS Skalarfeld double 1
LOOKUP_TABLE default
1.295772
1.294352
1.293144
1.291853
1.290361
1.288611
1.286570
1.284212
1.281518
1.278466
1.275037
1.271209
1.266958
1.262259
1.257085
1.251406
1.245188
1.238396
1.230991
1.222929
1.214166
1.204650
1.194329
1.183143
1.171031
1.157925
1.143755
1.128444
1.111912
1.094074
1.074842
1.054124
1.031824
1.007845
0.982090
0.954460
0.924860
0.893198
0.859388
0.823356
0.785036
0.744383
0.701367
0.655986
0.608262
0.558252
0.506046
0.451775
0.395610
0.337762
0.278486
0.218078
0.156865
0.095207
0.033485
-0.027908
-0.088580
-0.148149
-0.206255
-0.262576
-0.316832
-0.368796
-0.418298
-0.465225
-0.509523
-0.551193
-0.590281
-0.626878
-0.661108
-0.693122
-0.723088
-0.751193
-0.777626
-0.802587
-0.826271
-0.848876
-0.870597
-0.891624
-0.912141
-0.932329
-0.952359
-0.972390
-0.992572
-1.013033
-1.033885
-1.055211
-1.077065
-1.099467
-1.122400
-1.145807
-1.169588
-1.193605
-1.217677
-1.241587
-1.265087
-1.287897
-1.309716
-1.330228
-1.349109
-1.366033
-1.380692
-1.392743
-1.401867
-1.407803
-1.410309
-1.409180
-1.404247
-1.395381
-1.382502
-1.365574
-1.344608
-1.319664
-1.290849
-1.258314
-1.222255
-1.182904
-1.140534
-1.095445
-1.047966
-0.998446
-0.947250
-0.894752
-0.841329
-0.787357
-0.733203
-0.679222
-0.625749
-0.573100
-0.521563
-0.471401
-0.422845
-0.376096
-0.331320
-0.288656
-0.248209
-0.210052
-0.174231
-0.140763
-0.109638
-0.080821
-0.054253
-0.029851
-0.007514
0.012877
0.031456
0.048369
0.063768
0.077807
0.090640
0.102418
0.113283
0.123372
0.132808
0.141706
0.150164
0.158268
0.166085
0.173668
0.181052
0.188261
0.195305
0.202174
0.209033
0.215878
0.222598
0.229111
0.235357
0.241296
0.246904
0.252172
0.257099
0.261693
0.265966
0.269933
0.273611
0.277018
0.280173
0.283095
0.285801
0.288309
0.290637
0.292799
0.294812
0.296689
0.298444
0.300090
0.301638
0.303102
0.304491
0.305818
0.307093
0.308327
0.309534
0.310726
0.311917
0.313127
0.314376
0.315690
0.317101
0.318929
1.294682
1.294140
1.293228
1.292055
1.290620
1.288904
1.286887
1.284550
1.281874
1.278841
1.275430
1.271621
1.267390
1.262712
1.257560
1.251904
1.245710
1.238943
1.231563
1.223528
1.214791
1.205303
1.195008
1.183849
1.171762
1.158681
1.144533
1.129242
1.112726
1.094901
1.075677
1.054960
1.032655
1.008662
0.982884
0.955219
0.925572
0.893848
0.859961
0.823834
0.785401
0.744614
0.701443
0.655885
0.607962
0.557730
0.505281
0.450747
0.394301
0.336159
0.276579
0.215861
0.154341
0.092386
0.030383
-0.031267
-0.092164
-0.151917
-0.210164
-0.266576
-0.320871
-0.372822
-0.422260
-0.469077
-0.513226
-0.554711
-0.593588
-0.629954
-0.663940
-0.695702
-0.725415
-0.753268
-0.779455
-0.804174
-0.827625
-0.850006
-0.871511
-0.892331
-0.912652
-0.932655
-0.952513
-0.972389
-0.992435
-1.012785
-1.033553
-1.054828
-1.076667
-1.099094
-1.122093
-1.145607
-1.169536
-1.193740
-1.218035
-1.242201
-1.265981
-1.289094
-1.311231
-1.332070
-1.351279
-1.368520
-1.383448
-1.395763
-1.405166
-1.411367
-1.414117
-1.413205
-1.408461
-1.399754
-1.387002
-1.370169
-1.349267
-1.324355
-1.295541
-1.262976
-1.226858
-1.187423
-1.144943
-1.099722
-1.052091
-1.002402
-0.951024
-0.898331
-0.844707
-0.790528
-0.736165
-0.681975
-0.628297
-0.575448
-0.523718
-0.473372
-0.424641
-0.377726
-0.332797
-0.289989
-0.249407
-0.211126
-0.175190
-0.141615
-0.110391
-0.081481
-0.054825
-0.030340
-0.007926
0.012540
0.031190
0.048170
0.063633
0.077733
0.090623
0.102455
0.113370
0.123505
0.132985
0.141923
0.150418
0.158555
0.166403
0.174013
0.181420
0.188654
0.195749
0.202779
0.209674
0.216475
0.223124
0.229558
0.235726
0.241594
0.247141
0.252356
0.257239
0.261797
0.266041
0.269983
0.273642
0.277034
0.280178
0.283090
0.285790
0.288293
0.290617
0.292776
0.294786
0.296662
0.298415
0.300059
0.301607
0.303068
0.304456
0.305779
0.307050
0.308279
0.309478
0.310659
0.311836
0.313025
0.314248
0.315531
0.316919
0.318770
1.294605
1.294295
1.293571
1.292516
1.291156
1.289492
1.287517
1.285215
1.282574
1.279574
1.276198
1.272426
1.268233
1.263596
1.258487
1.252877
1.246731
1.240014
1.232686
1.224706
1.216025
1.206594
1.196358
1.185258
1.173230
1.160206
1.146114
1.130875
1.114407
1.096624
1.077433
1.056741
1.034448
1.010453
0.984655
0.956951
0.927240
0.895426
0.861419
0.825138
0.786513
0.745494
0.702047
0.656166
0.607873
0.557223
0.504309
0.449264
0.392265
0.333536
0.273343
0.211996
0.149844
0.087268
0.024672
-0.037526
-0.098908
-0.159071
-0.217637
-0.274267
-0.328675
-0.380630
-0.429970
-0.476593
-0.520462
-0.561596
-0.600066
-0.635984
-0.669494
-0.700765
-0.729982
-0.757341
-0.783042
-0.807289
-0.830282
-0.852220
-0.873299
-0.893711
-0.913643
-0.933279
-0.952796
-0.972363
-0.992137
-1.012262
-1.032861
-1.054030
-1.075836
-1.098308
-1.121434
-1.145160
-1.169383
-1.193959
-1.218697
-1.243369
-1.267709
-1.291423
-1.314192
-1.335681
-1.355547
-1.373441
-1.389022
-1.401965
-1.411963
-1.418719
-1.421979
-1.421526
-1.417185
-1.408825
-1.396359
-1.379752
-1.359013
-1.334204
-1.305433
-1.272853
-1.236663
-1.197103
-1.154448
-1.109006
-1.061113
-1.011126
-0.959417
-0.906368
-0.852366
-0.797795
-0.743029
-0.688432
-0.634346
-0.581092
-0.528967
-0.478234
-0.429130
-0.381856
-0.336582
-0.293444
-0.252547
-0.213964
-0.177738
-0.143883
-0.112387
-0.083213
-0.056299
-0.031561
-0.008899
0.011808
0.030693
0.047899
0.063578
0.077882
0.090964
0.102974
0.114053
0.124338
0.133951
0.143007
0.151602
0.159822
0.167734
0.175392
0.182838
0.190107
0.197237
0.204276
0.211189
0.217863
0.224363
0.230640
0.236655
0.242381
0.247800
0.252902
0.257688
0.262163
0.266336
0.270219
0.273828
0.277179
0.280288
0.283173
0.285849
0.288333
0.290642
0.292788
0.294788
0.296655
0.298401
0.300039
0.301580
0.303035
0.304416
0.305731
0.306992
0.308209
0.309391
0.310551
0.311700
0.312851
0.314020
0.315228
0.316502
0.318070
1.295099
1.294864
1.294243
1.293278
1.291989
1.290385
1.288460
1.286207
1.283612
1.280661
1.277335
1.273615
1.269479
1.264901
1.259856
1.254312
1.248237
1.241595
1.234346
1.226448
1.217852
1.208508
1.198362
1.187352
1.175415
1.162482
1.148477
1.133323
1.116933
1.099221
1.080091
1.059445
1.037183
1.013198
0.987386
0.959638
0.929850
0.897919
0.863751
0.827257
0.788364
0.747014
0.703170
0.656822
0.607987
0.556720
0.503113
0.447304
0.389475
0.329858
0.268733
0.206426
0.143305
0.079774
0.016263
-0.046784
-0.108923
-0.169724
-0.228789
-0.285763
-0.340350
-0.392318
-0.441510
-0.487836
-0.531279
-0.571879
-0.609730
-0.644967
-0.677757
-0.708286
-0.736756
-0.763375
-0.788351
-0.811892
-0.834202
-0.855482
-0.875927
-0.895731
-0.915083
-0.934169
-0.953171
-0.972269
-0.991630
-1.011410
-1.031747
-1.052751
-1.074500
-1.097034
-1.120349
-1.144390
-1.169055
-1.194190
-1.219597
-1.245033
-1.270216
-1.294835
-1.318555
-1.341022
-1.361876
-1.380753
-1.397297
-1.411169
-1.422054
-1.429634
-1.433648
-1.433873
-1.430129
-1.422281
-1.410239
-1.393965
-1.373469
-1.348813
-1.320106
-1.287505
-1.251211
-1.211468
-1.168556
-1.122789
-1.074508
-1.024078
-0.971878
-0.918299
-0.863734
-0.808576
-0.753206
-0.697996
-0.643295
-0.589431
-0.536704
-0.485384
-0.435709
-0.387884
-0.342080
-0.298434
-0.257048
-0.217995
-0.181316
-0.147023
-0.115100
-0.085509
-0.058187
-0.033050
-0.009995
0.011095
0.030352
0.047916
0.063936
0.078562
0.091945
0.104230
0.115560
0.126068
0.135876
0.145096
0.153823
0.162143
0.170125
0.177823
0.185282
0.192540
0.199625
0.206560
0.213339
0.219926
0.226237
0.232312
0.238128
0.243665
0.248910
0.253857
0.258504
0.262856
0.266923
0.270714
0.274245
0.277528
0.280580
0.283416
0.286051
0.288500
0.290779
0.292900
0.294879
0.296727
0.298456
0.300079
0.301606
0.303047
0.304413
0.305714
0.306957
0.308153
0.309311
0.310439
0.311548
0.312645
0.313742
0.314848
0.315969
0.317237
1.296022
1.295819
1.295258
1.294359
1.293134
1.291590
1.289723
1.287527
1.284990
1.282100
1.278838
1.275187
1.271124
1.266625
1.261663
1.256208
1.250227
1.243684
1.236540
1.228751
1.220269
1.211043
1.201018
1.190131
1.178318
1.165509
1.151626
1.136589
1.120311
1.102700
1.083659
1.063086
1.040874
1.016915
0.991095
0.963303
0.933426
0.901354
0.866984
0.830222
0.790984
0.749205
0.704842
0.657877
0.608323
0.556232
0.501696
0.444857
0.385904
0.325081
0.262684
0.199062
0.134610
0.069764
0.004990
-0.059232
-0.122417
-0.184101
-0.243854
-0.301298
-0.356124
-0.408098
-0.457070
-0.502973
-0.545813
-0.585665
-0.622656
-0.656954
-0.688757
-0.718276
-0.745736
-0.771357
-0.795360
-0.817958
-0.839359
-0.859763
-0.879366
-0.898359
-0.916933
-0.935280
-0.953588
-0.972047
-0.990840
-1.010143
-1.030112
-1.050878
-1.072540
-1.095150
-1.118713
-1.143180
-1.168443
-1.194340
-1.220657
-1.247132
-1.273462
-1.299313
-1.324323
-1.348116
-1.370306
-1.390510
-1.408350
-1.423468
-1.435537
-1.444218
-1.449238
-1.450366
-1.447412
-1.440238
-1.428752
-1.412911
-1.392727
-1.368260
-1.339622
-1.306973
-1.270519
-1.230509
-1.187229
-1.141002
-1.092177
-1.041127
-0.988242
-0.933924
-0.878576
-0.822601
-0.766393
-0.710333
-0.654780
-0.600071
-0.546513
-0.494384
-0.443925
-0.395345
-0.348816
-0.304477
-0.262430
-0.222744
-0.185459
-0.150583
-0.118098
-0.087963
-0.060112
-0.034460
-0.010905
0.010670
0.030395
0.048408
0.064853
0.079878
0.093629
0.106250
0.117881
0.128652
0.138683
0.148084
0.156952
0.165369
0.173406
0.181120
0.188557
0.195753
0.202736
0.209521
0.216107
0.222478
0.228619
0.234484
0.240072
0.245394
0.250436
0.255196
0.259674
0.263875
0.267808
0.271481
0.274908
0.278102
0.281075
0.283843
0.286419
0.288817
0.291051
0.293134
0.295079
0.296897
0.298599
0.300197
0.301701
0.303121
0.304465
0.305742
0.306960
0.308128
0.309253
0.310341
0.311400
0.312436
0.313451
0.314448
0.315419
0.316451
1.297317
1.297131
1.296610
1.295762
1.294595
1.293110
1.291305
1.289173
1.286705
1.283888
1.280704
1.277137
1.273164
1.268762
1.263903
1.258558
1.252695
1.246277
1.239264
1.231612
1.223274
1.214197
1.204324
1.193594
1.181940
1.169290
1.155564
1.140680
1.124548
1.107072
1.088151
1.067678
1.045542
1.021626
0.995811
0.967977
0.938002
0.905768
0.871161
0.834075
0.794417
0.752112
0.707105
0.659370
0.608913
0.555782
0.500068
0.441916
0.381524
0.319150
0.255112
0.189787
0.123607
0.057048
-0.009375
-0.075129
-0.139680
-0.202513
-0.263155
-0.321198
-0.376311
-0.428262
-0.476913
-0.522225
-0.564245
-0.603092
-0.638942
-0.672007
-0.702525
-0.730743
-0.756908
-0.781263
-0.804038
-0.825452
-0.845715
-0.865025
-0.883575
-0.901553
-0.919150
-0.936560
-0.953981
-0.971616
-0.989670
-1.008343
-1.027821
-1.048262
-1.069792
-1.092485
-1.116359
-1.141367
-1.167399
-1.194278
-1.221769
-1.249585
-1.277394
-1.304829
-1.331498
-1.356992
-1.380895
-1.402795
-1.422287
-1.438989
-1.452554
-1.462630
-1.468921
-1.471184
-1.469225
-1.462896
-1.452101
-1.436798
-1.416994
-1.392752
-1.364185
-1.331456
-1.294778
-1.254406
-1.210635
-1.163795
-1.114249
-1.062379
-1.008590
-0.953296
-0.896915
-0.839864
-0.782552
-0.725372
-0.668698
-0.612878
-0.558230
-0.505040
-0.453557
-0.403995
-0.356529
-0.311299
-0.268406
-0.227919
-0.189874
-0.154277
-0.121105
-0.090313
-0.061833
-0.035578
-0.011443
0.010688
0.030943
0.049458
0.066376
0.081839
0.095993
0.108977
0.120927
0.131972
0.142231
0.151811
0.160808
0.169306
0.177377
0.185079
0.192460
0.199559
0.206402
0.213006
0.219378
0.225513
0.231402
0.237034
0.242403
0.247495
0.252317
0.256871
0.261161
0.265191
0.268969
0.272504
0.275808
0.278893
0.281770
0.284453
0.286954
0.289287
0.291463
0.293495
0.295394
0.297171
0.298837
0.300401
0.301873
0.303262
0.304576
0.305822
0.307009
0.308141
0.309227
0.310269
0.311274
0.312243
0.313176
0.314069
0.314913
0.315767
1.298951
1.298777
1.298286
1.297482
1.296368
1.294943
1.293204
1.291144
1.288754
1.286020
1.282928
1.279460
1.275593
1.271306
1.266571
1.261359
1.255636
1.249368
1.242512
1.235027
1.226862
1.217966
1.208280
1.197741
1.186282
1.173827
1.160296
1.145603
1.129654
1.112349
1.093583
1.073242
1.051209
1.027360
1.001566
0.973697
0.943622
0.911209
0.876332
0.838872
0.798723
0.755793
0.710016
0.661354
0.609803
0.555404
0.498247
0.438477
0.376303
0.312002
0.245915
0.178457
0.110102
0.041384
-0.027122
-0.094815
-0.161092
-0.225372
-0.287123
-0.345892
-0.401328
-0.453195
-0.501378
-0.545879
-0.586803
-0.624331
-0.658703
-0.690193
-0.719089
-0.745681
-0.770248
-0.793052
-0.814336
-0.834323
-0.853220
-0.871220
-0.888507
-0.905265
-0.921681
-0.937948
-0.954275
-0.970882
-0.988001
-1.005865
-1.024700
-1.044705
-1.066043
-1.088816
-1.113061
-1.138738
-1.165727
-1.193834
-1.222795
-1.252288
-1.281944
-1.311354
-1.340087
-1.367693
-1.393719
-1.417715
-1.439246
-1.457897
-1.473290
-1.485072
-1.492914
-1.496561
-1.495809
-1.490506
-1.480549
-1.465892
-1.446543
-1.422562
-1.394068
-1.361227
-1.324257
-1.283422
-1.239026
-1.191412
-1.140953
-1.088049
-1.033117
-0.976589
-0.918902
-0.860489
-0.801779
-0.743182
-0.685088
-0.627863
-0.571837
-0.517308
-0.464536
-0.413742
-0.365105
-0.318768
-0.274833
-0.233368
-0.194404
-0.157945
-0.123964
-0.092410
-0.063212
-0.036279
-0.011504
0.011231
0.032054
0.051101
0.068511
0.084427
0.098989
0.112336
0.124602
0.135912
0.146384
0.156126
0.165232
0.173789
0.181868
0.189531
0.196829
0.203803
0.210482
0.216888
0.223033
0.228922
0.234555
0.239929
0.245045
0.249898
0.254493
0.258832
0.262921
0.266766
0.270375
0.273758
0.276924
0.279885
0.282652
0.285236
0.287649
0.289904
0.292010
0.293979
0.295822
0.297549
0.299168
0.300690
0.302122
0.303473
0.304750
0.305959
0.307107
0.308199
0.309240
0.310233
0.311181
0.312084
0.312939
0.313740
0.314477
0.315197
1.300904
1.300739
1.300275
1.299511
1.298448
1.297084
1.295414
1.293433
1.291129
1.288491
1.285503
1.282148
1.278405
1.274251
1.269659
1.264601
1.259043
1.252949
1.246279
1.238989
1.231029
1.222346
1.212881
1.202570
1.191342
1.179122
1.165826
1.151364
1.135638
1.118545
1.099972
1.079801
1.057904
1.034149
1.008399
0.980510
0.950337
0.917735
0.882562
0.844683
0.803972
0.760323
0.713650
0.663899
0.611055
0.555147
0.496259
0.434541
0.370211
0.303563
0.234972
0.164892
0.093857
0.022467
-0.048624
-0.118726
-0.187145
-0.253211
-0.316314
-0.375943
-0.431713
-0.483390
-0.530894
-0.574289
-0.613758
-0.649574
-0.682061
-0.711573
-0.738462
-0.763069
-0.785708
-0.806663
-0.826186
-0.844502
-0.861809
-0.878288
-0.894111
-0.909447
-0.924473
-0.939383
-0.954391
-0.969740
-0.985694
-1.002533
-1.020535
-1.039960
-1.061018
-1.083857
-1.108535
-1.135020
-1.163180
-1.192794
-1.223561
-1.255112
-1.287028
-1.318850
-1.350097
-1.380270
-1.408870
-1.435404
-1.459394
-1.480390
-1.497975
-1.511795
-1.521483
-1.526777
-1.527462
-1.523376
-1.514413
-1.500520
-1.481704
-1.458027
-1.429608
-1.396620
-1.359288
-1.317884
-1.272724
-1.224163
-1.172589
-1.118418
-1.062088
-1.004049
-0.944759
-0.884675
-0.824247
-0.763908
-0.704070
-0.645116
-0.587398
-0.531228
-0.476878
-0.424579
-0.374518
-0.326842
-0.281654
-0.239021
-0.198973
-0.161507
-0.126593
-0.094176
-0.064176
-0.036499
-0.011034
0.012339
0.033753
0.053342
0.071248
0.087611
0.102571
0.116266
0.128827
0.140379
0.151040
0.160916
0.170105
0.178693
0.186755
0.194355
0.201547
0.208375
0.214873
0.221069
0.226980
0.232618
0.237992
0.243106
0.247963
0.252567
0.256923
0.261036
0.264913
0.268564
0.271995
0.275215
0.278233
0.281059
0.283704
0.286178
0.288493
0.290659
0.292685
0.294582
0.296360
0.298027
0.299592
0.301064
0.302449
0.303755
0.304988
0.306155
0.307259
0.308307
0.309300
0.310241
0.311132
0.311971
0.312754
0.313475
0.314123
0.314741
1.303157
1.303001
1.302561
1.301836
1.300825
1.299524
1.297928
1.296031
1.293823
1.291291
1.288420
1.285193
1.281589
1.277587
1.273159
1.268276
1.262906
1.257013
1.250556
1.243490
1.235766
1.227330
1.218122
1.208076
1.197120
1.185176
1.172157
1.157969
1.142512
1.125674
1.107339
1.087378
1.065657
1.042033
1.016354
0.988466
0.958207
0.925414
0.889927
0.851589
0.810254
0.765792
0.718097
0.667093
0.612747
0.555073
0.494148
0.430120
0.363217
0.293754
0.222140
0.148883
0.074581
-0.000080
-0.074345
-0.147411
-0.218463
-0.286714
-0.351447
-0.412070
-0.468155
-0.519471
-0.565993
-0.607879
-0.645426
-0.679031
-0.709134
-0.736187
-0.760625
-0.782846
-0.803201
-0.821997
-0.839489
-0.855896
-0.871400
-0.886162
-0.900330
-0.914050
-0.927482
-0.940810
-0.954255
-0.968080
-0.982595
-0.998139
-1.015069
-1.033719
-1.054378
-1.077247
-1.102420
-1.129871
-1.159449
-1.190895
-1.223855
-1.257899
-1.292546
-1.327272
-1.361536
-1.394781
-1.426456
-1.456014
-1.482930
-1.506706
-1.526880
-1.543087
-1.554939
-1.562159
-1.564523
-1.561862
-1.554059
-1.541059
-1.522864
-1.499537
-1.471201
-1.438033
-1.400266
-1.358182
-1.312110
-1.262419
-1.209515
-1.153831
-1.095828
-1.035979
-0.974767
-0.912676
-0.850183
-0.787749
-0.725812
-0.664780
-0.605027
-0.546885
-0.490643
-0.436545
-0.384788
-0.335523
-0.288857
-0.244857
-0.203549
-0.164928
-0.128956
-0.095571
-0.064688
-0.036207
-0.010009
0.014031
0.036048
0.056182
0.074575
0.091369
0.106704
0.120719
0.133545
0.145308
0.156126
0.166105
0.175347
0.183937
0.191955
0.199468
0.206533
0.213199
0.219504
0.225481
0.231154
0.236540
0.241653
0.246505
0.251103
0.255456
0.259571
0.263455
0.267116
0.270562
0.273804
0.276851
0.279712
0.282395
0.284910
0.287266
0.289473
0.291541
0.293479
0.295296
0.297000
0.298600
0.300104
0.301518
0.302850
0.304106
0.305290
0.306409
0.307467
0.308466
0.309410
0.310299
0.311134
0.311912
0.312631
0.313282
0.313858
0.314394
1.305695
1.305548
1.305132
1.304445
1.303487
1.302252
1.300736
1.298931
1.296826
1.294410
1.291668
1.288584
1.285136
1.281303
1.277058
1.272373
1.267215
1.261548
1.255332
1.248521
1.241066
1.232912
1.223998
1.214256
1.203613
1.191988
1.179291
1.165425
1.150284
1.133751
1.115702
1.096000
1.074502
1.051051
1.025483
0.997626
0.967302
0.934326
0.898516
0.859689
0.817674
0.772313
0.723471
0.671046
0.614980
0.555267
0.491972
0.425236
0.355296
0.282488
0.207261
0.130180
0.051924
-0.026716
-0.104858
-0.181555
-0.255835
-0.326751
-0.393441
-0.455196
-0.511527
-0.562216
-0.607322
-0.647144
-0.682150
-0.712906
-0.740007
-0.764031
-0.785506
-0.804895
-0.822589
-0.838907
-0.854103
-0.868378
-0.881887
-0.894758
-0.907103
-0.919033
-0.930675
-0.942193
-0.953806
-0.965803
-0.978545
-0.992456
-1.007995
-1.025612
-1.045699
-1.068539
-1.094270
-1.122869
-1.154158
-1.187818
-1.223423
-1.260463
-1.298374
-1.336558
-1.374400
-1.411278
-1.446578
-1.479697
-1.510053
-1.537093
-1.560299
-1.579262
-1.593609
-1.603053
-1.607359
-1.606345
-1.599886
-1.587919
-1.570443
-1.547522
-1.519281
-1.485903
-1.447630
-1.404755
-1.357619
-1.306608
-1.252146
-1.194689
-1.134719
-1.072738
-1.009260
-0.944799
-0.879864
-0.814950
-0.750527
-0.687034
-0.624873
-0.564400
-0.505925
-0.449710
-0.395962
-0.344840
-0.296457
-0.250878
-0.208128
-0.168195
-0.131035
-0.096579
-0.064733
-0.035387
-0.008416
0.016313
0.038942
0.059616
0.078481
0.095682
0.111364
0.125666
0.138722
0.150659
0.161597
0.171645
0.180905
0.189468
0.197416
0.204818
0.211737
0.218226
0.224328
0.230079
0.235509
0.240641
0.245495
0.250085
0.254425
0.258527
0.262399
0.266052
0.269494
0.272736
0.275785
0.278652
0.281346
0.283877
0.286254
0.288485
0.290578
0.292541
0.294383
0.296112
0.297737
0.299263
0.300699
0.302051
0.303324
0.304524
0.305656
0.306724
0.307731
0.308680
0.309573
0.310411
0.311191
0.311914
0.312574
0.313165
0.313679
0.314150
1.308501
1.308362
1.307971
1.307325
1.306422
1.305257
1.303825
1.302118
1.300126
1.297837
1.295237
1.292308
1.289032
1.285386
1.281345
1.276879
1.271957
1.266543
1.260596
1.254070
1.246917
1.239080
1.230498
1.221101
1.210815
1.199555
1.187229
1.173736
1.158963
1.142790
1.125082
1.105695
1.084473
1.061247
1.035838
1.008055
0.977698
0.944560
0.908430
0.869097
0.826357
0.780017
0.729908
0.675893
0.617881
0.555840
0.489812
0.419931
0.346433
0.269678
0.190156
0.108496
0.025474
-0.057994
-0.140868
-0.222014
-0.300254
-0.374429
-0.443471
-0.506503
-0.562942
-0.612591
-0.655648
-0.692635
-0.724270
-0.751358
-0.774693
-0.795007
-0.812935
-0.829006
-0.843643
-0.857170
-0.869824
-0.881773
-0.893131
-0.903976
-0.914370
-0.924367
-0.934046
-0.943531
-0.953026
-0.962839
-0.973399
-0.985241
-0.998969
-1.015198
-1.034472
-1.057188
-1.083542
-1.113510
-1.146861
-1.183190
-1.221967
-1.262578
-1.304357
-1.346612
-1.388647
-1.429765
-1.469286
-1.506545
-1.540900
-1.571737
-1.598473
-1.620589
-1.637781
-1.649766
-1.656295
-1.657171
-1.652258
-1.641484
-1.624843
-1.602398
-1.574276
-1.540670
-1.501828
-1.458054
-1.409706
-1.357183
-1.300931
-1.241427
-1.179183
-1.114730
-1.048616
-0.981392
-0.913606
-0.845793
-0.778462
-0.712089
-0.647111
-0.583916
-0.522838
-0.464159
-0.408103
-0.354838
-0.304482
-0.257100
-0.212714
-0.171307
-0.132827
-0.097193
-0.064302
-0.034033
-0.006251
0.019188
0.042434
0.063640
0.082958
0.100541
0.116537
0.131090
0.144336
0.156408
0.167427
0.177506
0.186751
0.195256
0.203106
0.210375
0.217130
0.223426
0.229313
0.234832
0.240015
0.244892
0.249486
0.253816
0.257899
0.261749
0.265379
0.268799
0.272022
0.275056
0.277911
0.280597
0.283122
0.285496
0.287727
0.289823
0.291794
0.293647
0.295388
0.297024
0.298562
0.300010
0.301373
0.302657
0.303866
0.305007
0.306082
0.307096
0.308051
0.308949
0.309791
0.310577
0.311307
0.311977
0.312585
0.313124
0.313587
0.314004
1.311559
1.311430
1.311064
1.310460
1.309615
1.308524
1.307182
1.305580
1.303709
1.301558
1.299111
1.296353
1.293264
1.289822
1.286004
1.281779
1.277117
1.271981
1.266332
1.260123
1.253306
1.245823
1.237612
1.228603
1.218719
1.207873
1.195969
1.182903
1.168557
1.152802
1.135498
1.116489
1.095607
1.072669
1.047478
1.019823
0.989480
0.956214
0.919783
0.879941
0.836444
0.789058
0.737570
0.681798
0.621609
0.556932
0.487780
0.414267
0.336628
0.255238
0.170629
0.083502
-0.005257
-0.094581
-0.183232
-0.269840
-0.352958
-0.431141
-0.503035
-0.567500
-0.623794
-0.671761
-0.711837
-0.744901
-0.772050
-0.794416
-0.813049
-0.828855
-0.842581
-0.854815
-0.866000
-0.876446
-0.886351
-0.895830
-0.904937
-0.913683
-0.922057
-0.930039
-0.937628
-0.944882
-0.951961
-0.959186
-0.967060
-0.976267
-0.987622
-1.001976
-1.020098
-1.042550
-1.069602
-1.101210
-1.137051
-1.176589
-1.219150
-1.263978
-1.310283
-1.357266
-1.404139
-1.450129
-1.494485
-1.536481
-1.575416
-1.610613
-1.641417
-1.667190
-1.687571
-1.702425
-1.711478
-1.714514
-1.711377
-1.701981
-1.686316
-1.664442
-1.636492
-1.602663
-1.563213
-1.518458
-1.468767
-1.414557
-1.356292
-1.294475
-1.229645
-1.162368
-1.093229
-1.022826
-0.951750
-0.880585
-0.809887
-0.740180
-0.671940
-0.605594
-0.541509
-0.479992
-0.421284
-0.365567
-0.312964
-0.263541
-0.217317
-0.174266
-0.134326
-0.097406
-0.063388
-0.032137
-0.003507
0.022660
0.046526
0.068253
0.088004
0.105939
0.122214
0.136979
0.150376
0.162541
0.173602
0.183675
0.192870
0.201285
0.209009
0.216122
0.222692
0.228782
0.234443
0.239721
0.244653
0.249272
0.253604
0.257674
0.261501
0.265100
0.268488
0.271677
0.274678
0.277504
0.280162
0.282664
0.285018
0.287232
0.289315
0.291274
0.293117
0.294852
0.296485
0.298022
0.299471
0.300835
0.302120
0.303332
0.304475
0.305552
0.306568
0.307526
0.308427
0.309272
0.310064
0.310801
0.311481
0.312104
0.312664
0.313157
0.313578
0.313952
1.314853
1.314733
1.314394
1.313835
1.313051
1.312038
1.310791
1.309302
1.307560
1.305556
1.303275
1.300700
1.297814
1.294595
1.291018
1.287056
1.282677
1.277846
1.272523
1.266663
1.260216
1.253124
1.245325
1.236748
1.227313
1.216932
1.205506
1.192925
1.179068
1.163798
1.146966
1.128407
1.107938
1.085362
1.060462
1.033004
1.002738
0.969397
0.932703
0.892367
0.848101
0.799618
0.746650
0.688960
0.626357
0.558721
0.486020
0.408339
0.325900
0.239089
0.148474
0.054834
-0.040827
-0.137258
-0.232978
-0.326307
-0.415455
-0.498604
-0.574002
-0.640085
-0.695805
-0.741075
-0.776770
-0.804365
-0.825528
-0.841837
-0.854642
-0.865032
-0.873852
-0.881728
-0.889097
-0.896227
-0.903248
-0.910193
-0.917030
-0.923689
-0.930069
-0.936047
-0.941509
-0.946394
-0.950780
-0.954967
-0.959541
-0.965384
-0.973610
-0.985421
-1.001922
-1.023916
-1.051761
-1.085354
-1.124210
-1.167590
-1.214617
-1.264353
-1.315862
-1.368225
-1.420559
-1.472015
-1.521778
-1.569067
-1.613129
-1.653236
-1.688672
-1.718712
-1.742665
-1.760728
-1.772627
-1.778119
-1.777021
-1.769229
-1.754724
-1.733566
-1.705890
-1.671900
-1.631861
-1.586097
-1.534988
-1.478965
-1.418509
-1.354145
-1.286442
-1.216002
-1.143456
-1.069448
-0.994627
-0.919631
-0.845077
-0.771544
-0.699561
-0.629602
-0.562072
-0.497308
-0.435579
-0.377078
-0.321935
-0.270219
-0.221943
-0.177071
-0.135529
-0.097210
-0.061982
-0.029692
-0.000178
0.026734
0.051220
0.073457
0.093618
0.111876
0.128394
0.143330
0.156836
0.169054
0.180115
0.190143
0.199253
0.207546
0.215117
0.222049
0.228416
0.234283
0.239706
0.244734
0.249409
0.253766
0.257836
0.261645
0.265214
0.268564
0.271710
0.274666
0.277447
0.280062
0.282523
0.284838
0.287018
0.289070
0.291002
0.292821
0.294534
0.296148
0.297669
0.299102
0.300455
0.301731
0.302935
0.304071
0.305144
0.306156
0.307110
0.308010
0.308856
0.309649
0.310391
0.311079
0.311714
0.312292
0.312810
0.313264
0.313649
0.313987
1.318365
1.318256
1.317945
1.317431
1.316712
1.315782
1.314635
1.313265
1.311662
1.309815
1.307710
1.305333
1.302664
1.299684
1.296368
1.292690
1.288618
1.284118
1.279151
1.273671
1.267628
1.260965
1.253620
1.245520
1.236583
1.226721
1.215830
1.203798
1.190496
1.175783
1.159500
1.141470
1.121499
1.099371
1.074849
1.047674
1.017566
0.984224
0.947327
0.906538
0.861512
0.811902
0.757372
0.697614
0.632364
0.561431
0.484725
0.402284
0.314304
0.221171
0.123485
0.022095
-0.081860
-0.186918
-0.291284
-0.392881
-0.489478
-0.578808
-0.658616
-0.726596
-0.781020
-0.821955
-0.851129
-0.871053
-0.884249
-0.892861
-0.898552
-0.902558
-0.905771
-0.908816
-0.912089
-0.915777
-0.919895
-0.924355
-0.929018
-0.933718
-0.938256
-0.942385
-0.945828
-0.948338
-0.949826
-0.950516
-0.951070
-0.952626
-0.956720
-0.965077
-0.979316
-1.000600
-1.029382
-1.065410
-1.107917
-1.155853
-1.208059
-1.263378
-1.320704
-1.379001
-1.437294
-1.494672
-1.550267
-1.603257
-1.652852
-1.698296
-1.738853
-1.773788
-1.801966
-1.823537
-1.838611
-1.846886
-1.848134
-1.842227
-1.829135
-1.808918
-1.781713
-1.747727
-1.707231
-1.660550
-1.608067
-1.550220
-1.487501
-1.420452
-1.349670
-1.275794
-1.199501
-1.121492
-1.042480
-0.963175
-0.884262
-0.806390
-0.730155
-0.656088
-0.584645
-0.516201
-0.451052
-0.389413
-0.331421
-0.277145
-0.226592
-0.179715
-0.136424
-0.096594
-0.060072
-0.026687
0.003746
0.031419
0.056524
0.079256
0.099803
0.118350
0.135074
0.150142
0.163715
0.175942
0.186963
0.196908
0.205896
0.214035
0.221425
0.228152
0.234295
0.239923
0.245095
0.249863
0.254274
0.258365
0.262169
0.265715
0.269027
0.272126
0.275030
0.277754
0.280312
0.282717
0.284979
0.287107
0.289111
0.290998
0.292776
0.294451
0.296032
0.297522
0.298928
0.300256
0.301509
0.302694
0.303812
0.304870
0.305870
0.306814
0.307706
0.308546
0.309336
0.310077
0.310769
0.311411
0.312002
0.312539
0.313020
0.313440
0.313794
0.314105
1.322078
1.321979
1.321697
1.321232
1.320580
1.319737
1.318697
1.317453
1.315996
1.314316
1.312399
1.310231
1.307795
1.305070
1.302034
1.298660
1.294918
1.290775
1.286191
1.281122
1.275518
1.269324
1.262474
1.254897
1.246510
1.237222
1.226928
1.215510
1.202836
1.188758
1.173107
1.155697
1.136318
1.114737
1.090696
1.063909
1.034063
1.000816
0.963802
0.922628
0.876884
0.826147
0.770000
0.708042
0.639916
0.565340
0.484139
0.396285
0.301932
0.201453
0.095468
-0.015108
-0.129001
-0.244498
-0.359405
-0.471093
-0.576781
-0.673747
-0.759313
-0.829818
-0.881750
-0.915613
-0.934962
-0.944129
-0.946852
-0.945894
-0.943142
-0.939850
-0.936860
-0.934733
-0.933790
-0.934090
-0.935463
-0.937643
-0.940361
-0.943363
-0.946367
-0.948998
-0.950762