# vtk DataFile Version 3.0
Scalar Field
ASCII
DATASET RECTILINEAR_GRID
DIMENSIONS 200 75 1
X_COORDINATES 200 double
0.050000 0.150000 0.250000 0.350000 0.450000 0.550000 0.650000 0.750000 0.850000 0.950000 1.050000 1.150000 1.250000 1.350000 1.450000 1.550000 1.650000 1.750000 1.850000 1.950000 2.050000 2.150000 2.250000 2.350000 2.450000 2.550000 2.650000 2.750000 2.850000 2.950000 3.050000 3.150000 3.250000 3.350000 3.450000 3.550000 3.650000 3.750000 3.850000 3.950000 4.050000 4.150000 4.250000 4.350000 4.450000 4.550000 4.650000 4.750000 4.850000 4.950000 5.050000 5.150000 5.250000 5.350000 5.450000 5.550000 5.650000 5.750000 5.850000 5.950000 6.050000 6.150000 6.250000 6.350000 6.450000 6.550000 6.650000 6.750000 6.850000 6.950000 7.050000 7.150000 7.250000 7.350000 7.450000 7.550000 7.650000 7.750000 7.850000 7.950000 8.050000 8.150000 8.250000 8.350000 8.450000 8.550000 8.650000 8.750000 8.850000 8.950000 9.050000 9.150000 9.250000 9.350000 9.450000 9.550000 9.650000 9.750000 9.850000 9.950000 10.050000 10.150000 10.250000 10.350000 10.450000 10.550000 10.650000 10.750000 10.850000 10.950000 11.050000 11.150000 11.250000 11.350000 11.450000 11.550000 11.650000 11.750000 11.850000 11.950000 12.050000 12.150000 12.250000 12.350000 12.450000 12.550000 12.650000 12.750000 12.850000 12.950000 13.050000 13.150000 13.250000 13.350000 13.450000 13.550000 13.650000 13.750000 13.850000 13.950000 14.050000 14.150000 14.250000 14.350000 14.450000 14.550000 14.650000 14.750000 14.850000 14.950000 15.050000 15.150000 15.250000 15.350000 15.450000 15.550000 15.650000 15.750000 15.850000 15.950000 16.050000 16.150000 16.250000 16.350000 16.450000 16.550000 16.650000 16.750000 16.850000 16.950000 17.050000 17.150000 17.250000 17.350000 17.450000 17.550000 17.650000 17.750000 17.850000 17.950000 18.050000 18.150000 18.250000 18.350000 18.450000 18.550000 18.650000 18.750000 18.850000 18.950000 19.050000 19.150000 19.250000 19.350000 19.450000 19.550000 19.650000 19.750000 19.850000 19.950000 
Y_COORDINATES 75 double
0.050000 0.150000 0.250000 0.350000 0.450000 0.550000 0.650000 0.750000 0.850000 0.950000 1.050000 1.150000 1.250000 1.350000 1.450000 1.550000 1.650000 1.750000 1.850000 1.950000 2.050000 2.150000 2.250000 2.350000 2.450000 2.550000 2.650000 2.750000 2.850000 2.950000 3.050000 3.150000 3.250000 3.350000 3.450000 3.550000 3.650000 3.750000 3.850000 3.950000 4.050000 4.150000 4.250000 4.350000 4.450000 4.550000 4.650000 4.750000 4.850000 4.950000 5.050000 5.150000 5.250000 5.350000 5.450000 5.550000 5.650000 5.750000 5.850000 5.950000 6.050000 6.150000 6.250000 6.350000 6.450000 6.550000 6.650000 6.750000 6.850000 6.950000 7.050000 7.150000 7.250000 7.350000 7.450000 
Z_COORDINATES 1 double
0.0
POINT_DATA 15000
SCALARS Skalarfeld double 1
LOOKUP_TABLE default
1.713931
1.712490
1.711227
1.709846
1.708227
1.706314
1.704073
1.701479
1.698510
1.695146
1.691364
1.687143
1.682458
1.677283
1.671590
1.665347
1.658522
1.651077
1.642972
1.634164
1.624606
1.614248
1.603035
1.590909
1.577808
1.563665
1.548408
1.531963
1.514249
1.495184
1.474680
1.452646
1.428990
1.403617
1.376430
1.347337
1.316243
1.283061
1.247710
1.210118
1.170227
1.127992
1.083392
1.036427
0.987126
0.935549
0.881793
0.825993
0.768325
0.709006
0.648296
0.586494
0.523937
0.460991
0.398043
0.335494
0.273749
0.213201
0.154222
0.097152
0.042289
-0.010120
-0.059880
-0.106854
-0.150958
-0.192160
-0.230475
-0.265955
-0.298686
-0.328776
-0.356353
-0.381553
-0.404520
-0.425399
-0.444333
-0.461464
-0.476926
-0.490848
-0.503354
-0.514563
-0.524586
-0.533532
-0.541493
-0.548558
-0.554816
-0.560343
-0.565207
-0.569465
-0.573165
-0.576344
-0.579028
-0.581236
-0.582979
-0.584263
-0.585090
-0.585462
-0.585380
-0.584849
-0.583878
-0.582481
-0.580678
-0.578496
-0.575969
-0.573139
-0.570053
-0.566765
-0.563337
-0.559836
-0.556334
-0.552918
-0.549633
-0.546576
-0.543840
-0.541522
-0.539720
-0.538537
-0.538075
-0.538442
-0.539744
-0.542085
-0.545570
-0.550298
-0.556363
-0.563851
-0.572838
-0.583391
-0.595562
-0.609390
-0.624896
-0.642088
-0.660953
-0.681459
-0.703554
-0.727167
-0.752205
-0.778552
-0.806074
-0.834612
-0.863989
-0.894008
-0.924451
-0.955084
-0.985659
-1.015914
-1.045577
-1.074369
-1.102008
-1.128213
-1.152710
-1.175231
-1.195529
-1.213374
-1.228568
-1.240963
-1.250293
-1.256450
-1.259362
-1.258980
-1.255284
-1.248287
-1.238037
-1.224612
-1.208123
-1.188713
-1.166556
-1.141854
-1.114839
-1.085770
-1.054930
-1.022625
-0.989183
-0.954949
-0.920285
-0.885565
-0.851177
-0.817511
-0.784966
-0.753942
-0.724838
-0.698050
-0.673972
-0.652989
-0.635481
-0.621820
-0.612369
-0.607479
-0.607491
-0.612735
-0.623522
-0.640145
-0.662877
-0.691962
-0.727621
-0.770045
-0.819387
-0.875737
-0.939053
-1.009123
-1.085686
-1.177145
1.712876
1.712314
1.711347
1.710083
1.708522
1.706644
1.704428
1.701854
1.698904
1.695558
1.691795
1.687594
1.682929
1.677776
1.672106
1.665888
1.659087
1.651668
1.643590
1.634810
1.625281
1.614952
1.603768
1.591672
1.578599
1.564483
1.549253
1.532831
1.515138
1.496090
1.475598
1.453571
1.429915
1.404533
1.377329
1.348207
1.317072
1.283836
1.248414
1.210734
1.170735
1.128374
1.083625
1.036489
0.986995
0.935202
0.881208
0.825149
0.767203
0.707591
0.646577
0.584466
0.521599
0.458349
0.395112
0.332297
0.270314
0.209565
0.150426
0.093243
0.038315
-0.014110
-0.063839
-0.110738
-0.154730
-0.195790
-0.233937
-0.269233
-0.301769
-0.331660
-0.359038
-0.384043
-0.406822
-0.427522
-0.446288
-0.463259
-0.478572
-0.492355
-0.504730
-0.515816
-0.525722
-0.534550
-0.542405
-0.549381
-0.555560
-0.561018
-0.565824
-0.570034
-0.573697
-0.576848
-0.579514
-0.581711
-0.583448
-0.584730
-0.585556
-0.585925
-0.585838
-0.585297
-0.584311
-0.582891
-0.581058
-0.578839
-0.576267
-0.573384
-0.570239
-0.566886
-0.563385
-0.559803
-0.556208
-0.552662
-0.549271
-0.546114
-0.543280
-0.540865
-0.538968
-0.537694
-0.537148
-0.537438
-0.538672
-0.540958
-0.544400
-0.549100
-0.555154
-0.562646
-0.571656
-0.582248
-0.594475
-0.608375
-0.623970
-0.641264
-0.660245
-0.680879
-0.703114
-0.726878
-0.752075
-0.778590
-0.806288
-0.835008
-0.864574
-0.894786
-0.925426
-0.956260
-0.987039
-1.017499
-1.047368
-1.076365
-1.104208
-1.130615
-1.155308
-1.178021
-1.198498
-1.216506
-1.231825
-1.244232
-1.253645
-1.259902
-1.262906
-1.262600
-1.258966
-1.252016
-1.241797
-1.228387
-1.211898
-1.192473
-1.170286
-1.145540
-1.118468
-1.089328
-1.058403
-1.026001
-0.992449
-0.958094
-0.923298
-0.888436
-0.853896
-0.820071
-0.787358
-0.756159
-0.726872
-0.699896
-0.675621
-0.654433
-0.636711
-0.622824
-0.613133
-0.607988
-0.607728
-0.612678
-0.623147
-0.639427
-0.661786
-0.690468
-0.725689
-0.767639
-0.816467
-0.872233
-0.934819
-1.003844
-1.078694
-1.170094
1.712869
1.712540
1.711760
1.710615
1.709129
1.707304
1.705130
1.702593
1.699678
1.696367
1.692640
1.688476
1.683852
1.678741
1.673116
1.666945
1.660195
1.652828
1.644806
1.636083
1.626614
1.616346
1.605226
1.593193
1.580184
1.566131
1.550962
1.534599
1.516961
1.497962
1.477512
1.455517
1.431882
1.406508
1.379294
1.350142
1.318955
1.285639
1.250108
1.212286
1.172107
1.129524
1.084511
1.037063
0.987209
0.935008
0.880556
0.823993
0.765500
0.705305
0.643678
0.580935
0.517429
0.453549
0.389704
0.326321
0.263827
0.202637
0.143142
0.085696
0.030605
-0.021881
-0.071575
-0.118349
-0.162137
-0.202927
-0.240754
-0.275693
-0.307849
-0.337350
-0.364336
-0.388957
-0.411366
-0.431713
-0.450145
-0.466803
-0.481822
-0.495329
-0.507447
-0.518290
-0.527969
-0.536589
-0.544249
-0.551045
-0.557062
-0.562380
-0.567066
-0.571179
-0.574766
-0.577862
-0.580491
-0.582667
-0.584394
-0.585672
-0.586496
-0.586861
-0.586763
-0.586201
-0.585181
-0.583713
-0.581817
-0.579518
-0.576851
-0.573858
-0.570586
-0.567093
-0.563439
-0.559692
-0.555921
-0.552204
-0.548627
-0.545280
-0.542254
-0.539647
-0.537562
-0.536103
-0.535382
-0.535508
-0.536594
-0.538753
-0.542092
-0.546715
-0.552721
-0.560198
-0.569225
-0.579868
-0.592179
-0.606196
-0.621940
-0.639414
-0.658604
-0.679475
-0.701973
-0.726023
-0.751528
-0.778373
-0.806418
-0.835504
-0.865449
-0.896053
-0.927098
-0.958345
-0.989544
-1.020429
-1.050724
-1.080146
-1.108410
-1.135230
-1.160325
-1.183423
-1.204267
-1.222614
-1.238246
-1.250968
-1.260647
-1.267135
-1.270340
-1.270208
-1.266719
-1.259887
-1.249759
-1.236414
-1.219964
-1.200553
-1.178353
-1.153570
-1.126435
-1.097207
-1.066170
-1.033630
-0.999917
-0.965377
-0.930373
-0.895282
-0.860492
-0.826397
-0.793396
-0.761889
-0.732278
-0.704957
-0.680317
-0.658742
-0.640605
-0.626272
-0.616096
-0.610421
-0.609576
-0.613878
-0.623626
-0.639101
-0.660560
-0.688231
-0.722312
-0.762955
-0.810241
-0.864126
-0.924356
-0.990433
-1.061694
-1.149608
1.713468
1.713214
1.712538
1.711483
1.710069
1.708304
1.706182
1.703695
1.700828
1.697566
1.693891
1.689782
1.685216
1.680168
1.674608
1.668508
1.661832
1.654545
1.646605
1.637969
1.628589
1.618415
1.607390
1.595454
1.582543
1.568588
1.553516
1.537246
1.519696
1.500778
1.480400
1.458464
1.434872
1.409521
1.382307
1.353126
1.321876
1.288459
1.252782
1.214763
1.174333
1.131436
1.086042
1.038143
0.987762
0.934957
0.879826
0.822510
0.763195
0.702117
0.639560
0.575853
0.511370
0.446520
0.381739
0.317478
0.254189
0.192314
0.132264
0.074409
0.019063
-0.033522
-0.083162
-0.129745
-0.173219
-0.213595
-0.250931
-0.285326
-0.316904
-0.345813
-0.372208
-0.396253
-0.418106
-0.437926
-0.455860
-0.472051
-0.486633
-0.499732
-0.511467
-0.521951
-0.531293
-0.539598
-0.546967
-0.553495
-0.559271
-0.564377
-0.568884
-0.572852
-0.576328
-0.579345
-0.581924
-0.584073
-0.585790
-0.587069
-0.587897
-0.588262
-0.588153
-0.587565
-0.586500
-0.584966
-0.582979
-0.580566
-0.577761
-0.574607
-0.571153
-0.567458
-0.563584
-0.559600
-0.555580
-0.551604
-0.547759
-0.544134
-0.540826
-0.537935
-0.535567
-0.533832
-0.532844
-0.532720
-0.533578
-0.535536
-0.538708
-0.543203
-0.549123
-0.556561
-0.565597
-0.576299
-0.588719
-0.602895
-0.618846
-0.636574
-0.656062
-0.677273
-0.700151
-0.724619
-0.750578
-0.777907
-0.806467
-0.836093
-0.866604
-0.897796
-0.929445
-0.961313
-0.993143
-1.024666
-1.055602
-1.085664
-1.114561
-1.142002
-1.167699
-1.191375
-1.212764
-1.231621
-1.247723
-1.260876
-1.270930
-1.277749
-1.281240
-1.281352
-1.278067
-1.271400
-1.261398
-1.248142
-1.231743
-1.212346
-1.190124
-1.165282
-1.138051
-1.108691
-1.077485
-1.044741
-1.010787
-0.975971
-0.940656
-0.905222
-0.870055
-0.835553
-0.802115
-0.770143
-0.740036
-0.712191
-0.686993
-0.664823
-0.646049
-0.631028
-0.620102
-0.613602
-0.611843
-0.615125
-0.623726
-0.637907
-0.657898
-0.683896
-0.716057
-0.754468
-0.799124
-0.849872
-0.906359
-0.968010
-1.034085
-1.115768
1.714531
1.714308
1.713693
1.712705
1.711356
1.709652
1.707589
1.705160
1.702354
1.699155
1.695547
1.691509
1.687020
1.682053
1.676581
1.670573
1.663996
1.656813
1.648983
1.640463
1.631204
1.621155
1.610259
1.598455
1.585678
1.571857
1.556917
1.540777
1.523350
1.504548
1.484272
1.462424
1.438899
1.413590
1.386387
1.357180
1.325861
1.292322
1.256466
1.218199
1.177446
1.134143
1.088251
1.039756
0.988677
0.935068
0.879027
0.820696
0.760269
0.697993
0.634167
0.569142
0.503318
0.437134
0.371062
0.305588
0.241203
0.178383
0.117569
0.059155
0.003468
-0.049238
-0.098788
-0.145086
-0.188110
-0.227900
-0.264549
-0.298186
-0.328967
-0.357065
-0.382657
-0.405920
-0.427027
-0.446139
-0.463410
-0.478982
-0.492985
-0.505544
-0.516772
-0.526781
-0.535676
-0.543561
-0.550538
-0.556706
-0.562157
-0.566978
-0.571246
-0.575021
-0.578351
-0.581269
-0.583789
-0.585912
-0.587628
-0.588920
-0.589764
-0.590138
-0.590025
-0.589411
-0.588291
-0.586672
-0.584569
-0.582007
-0.579021
-0.575655
-0.571961
-0.568000
-0.563836
-0.559542
-0.555194
-0.550875
-0.546672
-0.542680
-0.538996
-0.535726
-0.532978
-0.530870
-0.529521
-0.529055
-0.529600
-0.531280
-0.534218
-0.538530
-0.544325
-0.551700
-0.560738
-0.571509
-0.584066
-0.598445
-0.614664
-0.632724
-0.652603
-0.674263
-0.697644
-0.722665
-0.749224
-0.777199
-0.806444
-0.836794
-0.868061
-0.900039
-0.932500
-0.965200
-0.997878
-1.030260
-1.062059
-1.092983
-1.122732
-1.151007
-1.177515
-1.201968
-1.224093
-1.243634
-1.260361
-1.274072
-1.284608
-1.291847
-1.295697
-1.296113
-1.293078
-1.286608
-1.276750
-1.263586
-1.247227
-1.227819
-1.205535
-1.180580
-1.153186
-1.123611
-1.092138
-1.059076
-1.024753
-0.989517
-0.953733
-0.917781
-0.882052
-0.846943
-0.812856
-0.780195
-0.749360
-0.720745
-0.694736
-0.671706
-0.652016
-0.636013
-0.624027
-0.616371
-0.613339
-0.615207
-0.622226
-0.634624
-0.652596
-0.676294
-0.705818
-0.741189
-0.782322
-0.828982
-0.880748
-0.936992
-0.996891
-1.070931
1.716000
1.715795
1.715220
1.714284
1.712993
1.711350
1.709351
1.706989
1.704253
1.701130
1.697603
1.693653
1.689257
1.684391
1.679028
1.673136
1.666682
1.659630
1.651938
1.643563
1.634456
1.624564
1.613831
1.602195
1.589588
1.575938
1.561169
1.545196
1.527931
1.509280
1.489142
1.467413
1.443983
1.418738
1.391562
1.362336
1.330944
1.297269
1.261201
1.222638
1.181492
1.137691
1.091183
1.041947
0.989993
0.935370
0.878174
0.818551
0.756703
0.692888
0.627427
0.560698
0.493134
0.425217
0.357461
0.290407
0.224593
0.160545
0.098746
0.039621
-0.016485
-0.069314
-0.118706
-0.164594
-0.206991
-0.245983
-0.281708
-0.314340
-0.344076
-0.371119
-0.395676
-0.417941
-0.438100
-0.456323
-0.472764
-0.487563
-0.500849
-0.512738
-0.523339
-0.532757
-0.541094
-0.548452
-0.554935
-0.560646
-0.565684
-0.570143
-0.574105
-0.577639
-0.580792
-0.583594
-0.586054
-0.588162
-0.589895
-0.591221
-0.592104
-0.592507
-0.592401
-0.591764
-0.590585
-0.588866
-0.586620
-0.583873
-0.580660
-0.577029
-0.573035
-0.568741
-0.564215
-0.559533
-0.554775
-0.550027
-0.545377
-0.540924
-0.536768
-0.533018
-0.529790
-0.527205
-0.525394
-0.524489
-0.524627
-0.525946
-0.528578
-0.532650
-0.538278
-0.545565
-0.554600
-0.565452
-0.578177
-0.592808
-0.609362
-0.627835
-0.648205
-0.670427
-0.694438
-0.720154
-0.747468
-0.776253
-0.806360
-0.837619
-0.869838
-0.902806
-0.936290
-0.970040
-1.003790
-1.037257
-1.070148
-1.102161
-1.132990
-1.162325
-1.189860
-1.215300
-1.238358
-1.258767
-1.276284
-1.290692
-1.301818
-1.309558
-1.313840
-1.314619
-1.311880
-1.305639
-1.295942
-1.282871
-1.266539
-1.247089
-1.224698
-1.199568
-1.171930
-1.142042
-1.110187
-1.076672
-1.041825
-1.005994
-0.969547
-0.932865
-0.896340
-0.860374
-0.825372
-0.791741
-0.759882
-0.730190
-0.703049
-0.678830
-0.657885
-0.640552
-0.627145
-0.617957
-0.613261
-0.613304
-0.618305
-0.628454
-0.643903
-0.664759
-0.691063
-0.722781
-0.759765
-0.801729
-0.848216
-0.898576
-0.951952
-1.018008
1.717843
1.717649
1.717105
1.716214
1.714978
1.713396
1.711464
1.709177
1.706522
1.703486
1.700054
1.696207
1.691923
1.687177
1.681943
1.676190
1.669884
1.662989
1.655463
1.647263
1.638340
1.628640
1.618105
1.606672
1.594274
1.580835
1.566276
1.550511
1.533447
1.514987
1.495025
1.473450
1.450147
1.424993
1.397865
1.368633
1.337169
1.303346
1.267040
1.228137
1.186534
1.142143
1.094901
1.044774
0.991760
0.935903
0.877295
0.816083
0.752477
0.686753
0.619254
0.550392
0.480644
0.410543
0.340666
0.271615
0.204000
0.138409
0.075384
0.015392
-0.041198
-0.094126
-0.143253
-0.188550
-0.230089
-0.268015
-0.302529
-0.333863
-0.362265
-0.387981
-0.411247
-0.432282
-0.451284
-0.468430
-0.483874
-0.497753
-0.510186
-0.521282
-0.531139
-0.539854
-0.547522
-0.554244
-0.560125
-0.565275
-0.569802
-0.573814
-0.577403
-0.580644
-0.583590
-0.586268
-0.588676
-0.590792
-0.592575
-0.593972
-0.594928
-0.595391
-0.595313
-0.594664
-0.593424
-0.591591
-0.589176
-0.586205
-0.582719
-0.578766
-0.574407
-0.569710
-0.564746
-0.559597
-0.554344
-0.549077
-0.543888
-0.538877
-0.534149
-0.529815
-0.525999
-0.522828
-0.520444
-0.518992
-0.518623
-0.519489
-0.521737
-0.525506
-0.530922
-0.538097
-0.547123
-0.558074
-0.571001
-0.585939
-0.602899
-0.621875
-0.642838
-0.665741
-0.690515
-0.717070
-0.745296
-0.775059
-0.806207
-0.838565
-0.871934
-0.906098
-0.940819
-0.975840
-1.010886
-1.045668
-1.079883
-1.113220
-1.145360
-1.175983
-1.204772
-1.231415
-1.255615
-1.277087
-1.295571
-1.310832
-1.322666
-1.330984
-1.335770
-1.336976
-1.334584
-1.328606
-1.319090
-1.306117
-1.289800
-1.270283
-1.247741
-1.222376
-1.194417
-1.164120
-1.131766
-1.097658
-1.062125
-1.025515
-0.988195
-0.950548
-0.912971
-0.875868
-0.839649
-0.804726
-0.771504
-0.740381
-0.711742
-0.685955
-0.663370
-0.644311
-0.629081
-0.617956
-0.611184
-0.608983
-0.611541
-0.619010
-0.631500
-0.649071
-0.671723
-0.699373
-0.731836
-0.768803
-0.809813
-0.854229
-0.901223
-0.959665
1.720038
1.719854
1.719337
1.718487
1.717303
1.715784
1.713925
1.711718
1.709153
1.706216
1.702893
1.699164
1.695009
1.690402
1.685318
1.679726
1.673593
1.666882
1.659551
1.651557
1.642850
1.633375
1.623075
1.611885
1.599734
1.586547
1.572240
1.556726
1.539907
1.521681
1.501937
1.480557
1.457418
1.432389
1.405334
1.376115
1.344588
1.310613
1.274050
1.234767
1.192644
1.147577
1.099483
1.048311
0.994048
0.936725
0.876429
0.813306
0.747576
0.679531
0.609544
0.538068
0.465631
0.392833
0.320327
0.248802
0.178956
0.111464
0.046945
-0.014076
-0.071195
-0.124155
-0.172849
-0.217307
-0.257679
-0.294195
-0.327140
-0.356824
-0.383557
-0.407635
-0.429332
-0.448888
-0.466516
-0.482395
-0.496678
-0.509493
-0.520948
-0.531135
-0.540140
-0.548045
-0.554936
-0.560909
-0.566072
-0.570545
-0.574454
-0.577921
-0.581057
-0.583953
-0.586665
-0.589217
-0.591597
-0.593761
-0.595645
-0.597170
-0.598254
-0.598820
-0.598805
-0.598161
-0.596863
-0.594902
-0.592291
-0.589057
-0.585244
-0.580909
-0.576117
-0.570941
-0.565460
-0.559759
-0.553924
-0.548047
-0.542225
-0.536557
-0.531152
-0.526126
-0.521606
-0.517732
-0.514655
-0.512538
-0.511548
-0.511859
-0.513635
-0.517032
-0.522190
-0.529228
-0.538243
-0.549311
-0.562481
-0.577785
-0.595229
-0.614801
-0.636467
-0.660172
-0.685843
-0.713383
-0.742676
-0.773584
-0.805948
-0.839587
-0.874298
-0.909858
-0.946021
-0.982525
-1.019085
-1.055404
-1.091169
-1.126056
-1.159735
-1.191873
-1.222137
-1.250203
-1.275756
-1.298496
-1.318141
-1.334431
-1.347124
-1.356102
-1.361474
-1.363178
-1.361190
-1.355520
-1.346214
-1.333353
-1.317050
-1.297451
-1.274727
-1.249079
-1.220735
-1.189944
-1.156985
-1.122157
-1.085784
-1.048214
-1.009812
-0.970964
-0.932068
-0.893536
-0.855782
-0.819224
-0.784275
-0.751339
-0.720804
-0.693041
-0.668396
-0.647189
-0.629713
-0.616226
-0.606957
-0.602100
-0.601811
-0.606210
-0.615371
-0.629319
-0.648016
-0.671352
-0.699128
-0.731032
-0.766629
-0.805331
-0.846388
-0.897978
1.722567
1.722392
1.721900
1.721090
1.719959
1.718506
1.716724
1.714605
1.712138
1.709312
1.706111
1.702515
1.698506
1.694058
1.689145
1.683737
1.677801
1.671300
1.664194
1.656436
1.647978
1.638765
1.628737
1.617828
1.605966
1.593074
1.579066
1.563849
1.547322
1.529377
1.509897
1.488758
1.465826
1.440961
1.414015
1.384835
1.353262
1.319139
1.282307
1.242614
1.199916
1.154088
1.105025
1.052654
0.996944
0.937909
0.875628
0.810245
0.741986
0.671163
0.598180
0.523539
0.447832
0.371739
0.296013
0.221450
0.148867
0.079054
0.012737
-0.049479
-0.107148
-0.160013
-0.208020
-0.251288
-0.290078
-0.324740
-0.355672
-0.383280
-0.407951
-0.430040
-0.449858
-0.467671
-0.483701
-0.498125
-0.511091
-0.522710
-0.533072
-0.542251
-0.550307
-0.557304
-0.563311
-0.568419
-0.572738
-0.576403
-0.579564
-0.582372
-0.584964
-0.587454
-0.589908
-0.592346
-0.594740
-0.597019
-0.599083
-0.600818
-0.602106
-0.602840
-0.602933
-0.602322
-0.600972
-0.598871
-0.596034
-0.592492
-0.588296
-0.583510
-0.578209
-0.572475
-0.566393
-0.560054
-0.553547
-0.546968
-0.540415
-0.533990
-0.527802
-0.521970
-0.516626
-0.511921
-0.508019
-0.505103
-0.503367
-0.503006
-0.504213
-0.507163
-0.512012
-0.518888
-0.527894
-0.539103
-0.552563
-0.568297
-0.586307
-0.606570
-0.629046
-0.653673
-0.680368
-0.709030
-0.739534
-0.771737
-0.805474
-0.840558
-0.876779
-0.913909
-0.951695
-0.989867
-1.028132
-1.066183
-1.103695
-1.140334
-1.175756
-1.209613
-1.241557
-1.271248
-1.298355
-1.322561
-1.343567
-1.361090
-1.374852
-1.384607
-1.390661
-1.392949
-1.391439
-1.386137
-1.377086
-1.364370
-1.348102
-1.328427
-1.305518
-1.279569
-1.250804
-1.219467
-1.185828
-1.150180
-1.112842
-1.074155
-1.034484
-0.994214
-0.953746
-0.913497
-0.873891
-0.835352
-0.798305
-0.763162
-0.730321
-0.700156
-0.673019
-0.649228
-0.629069
-0.612792
-0.600610
-0.592697
-0.589186
-0.590170
-0.595695
-0.605760
-0.620306
-0.639212
-0.662276
-0.689211
-0.719625
-0.753008
-0.788716
-0.834368
1.725413
1.725247
1.724780
1.724010
1.722935
1.721550
1.719850
1.717826
1.715468
1.712763
1.709696
1.706249
1.702402
1.698131
1.693410
1.688209
1.682496
1.676233
1.669379
1.661890
1.653715
1.644799
1.635082
1.624496
1.612967
1.600416
1.586753
1.571882
1.555699
1.538088
1.518925
1.498079
1.475405
1.450751
1.423957
1.394851
1.363260
1.329004
1.291901
1.251775
1.208456
1.161790
1.111645
1.057919
1.000557
0.939552
0.874966
0.806940
0.735702
0.661585
0.585027
0.506585
0.426929
0.346838
0.267185
0.188909
0.112980
0.040345
-0.028129
-0.091717
-0.149913
-0.202468
-0.249409
-0.290991
-0.327640
-0.359871
-0.388231
-0.413246
-0.435396
-0.455098
-0.472704
-0.488496
-0.502701
-0.515491
-0.526994
-0.537303
-0.546481
-0.554571
-0.561603
-0.567608
-0.572633
-0.576754
-0.580088
-0.582790
-0.585045
-0.587049
-0.588986
-0.591000
-0.593175
-0.595527
-0.598005
-0.600498
-0.602860
-0.604923
-0.606522
-0.607511
-0.607775
-0.607234
-0.605842
-0.603588
-0.600489
-0.596588
-0.591944
-0.586632
-0.580740
-0.574359
-0.567587
-0.560520
-0.553254
-0.545879
-0.538501
-0.531220
-0.524143
-0.517391
-0.511097
-0.505423
-0.500550
-0.496688
-0.494060
-0.492898
-0.493425
-0.495846
-0.500333
-0.507027
-0.516029
-0.527411
-0.541211
-0.557444
-0.576099
-0.597144
-0.620529
-0.646180
-0.674008
-0.703902
-0.735731
-0.769345
-0.804572
-0.841219
-0.879073
-0.917897
-0.957434
-0.997406
-1.037512
-1.077436
-1.116842
-1.155383
-1.192701
-1.228433
-1.262216
-1.293693
-1.322518
-1.348360
-1.370907
-1.389863
-1.404944
-1.415727
-1.422570
-1.425546
-1.424607
-1.419754
-1.411031
-1.398523
-1.382347
-1.362648
-1.339594
-1.313379
-1.284214
-1.252335
-1.218001
-1.181493
-1.143120
-1.103215
-1.062137
-1.020269
-0.978015
-0.935796
-0.894045
-0.853200
-0.813696
-0.775961
-0.740405
-0.707417
-0.677355
-0.650544
-0.627271
-0.607783
-0.592284
-0.580935
-0.573854
-0.571116
-0.572750
-0.578739
-0.589015
-0.603455
-0.621875
-0.644023
-0.669566
-0.698085
-0.729060
-0.769674
1.728560
1.728403
1.727962
1.727233
1.726216
1.724903
1.723291
1.721369
1.719128
1.716556
1.713637
1.710353
1.706685
1.702610
1.698101
1.693130
1.687664
1.681665
1.675095
1.667906
1.660049
1.651468
1.642101
1.631880
1.620730
1.608568
1.595302
1.580831
1.565046
1.547826
1.529040
1.508545
1.486188
1.461802
1.435212
1.406230
1.374659
1.340297
1.302935
1.262367
1.218392
1.170820
1.119484
1.064249
1.005023
0.941774
0.874540
0.803448
0.728731
0.650735
0.569938
0.486956
0.402549
0.317616
0.233184
0.150371
0.070346
-0.005732
-0.076793
-0.141945
-0.200583
-0.252477
-0.297785
-0.336978
-0.370724
-0.399772
-0.424859
-0.446659
-0.465756
-0.482630
-0.497665
-0.511155
-0.523317
-0.534306
-0.544225
-0.553137
-0.561070
-0.568025
-0.573988
-0.578943
-0.582898
-0.585909
-0.588094
-0.589641
-0.590789
-0.591804
-0.592939
-0.594391
-0.596270
-0.598588
-0.601259
-0.604116
-0.606942
-0.609499
-0.611556
-0.612918
-0.613435
-0.613008
-0.611586
-0.609161
-0.605761
-0.601440
-0.596272
-0.590349
-0.583772
-0.576649
-0.569092
-0.561206
-0.553094
-0.544842
-0.536549
-0.528320
-0.520257
-0.512473
-0.505105
-0.498318
-0.492317
-0.487342
-0.483660
-0.481549
-0.481276
-0.483080
-0.487156
-0.493650
-0.502662
-0.514252
-0.528446
-0.545241
-0.564612
-0.586513
-0.610878
-0.637626
-0.666654
-0.697844
-0.731056
-0.766135
-0.802904
-0.841164
-0.880699
-0.921267
-0.962607
-1.004433
-1.046440
-1.088302
-1.129672
-1.170192
-1.209488
-1.247184
-1.282898
-1.316259
-1.346903
-1.374488
-1.398693
-1.419223
-1.435793
-1.448086
-1.455816
-1.459600
-1.459346
-1.455047
-1.446753
-1.434555
-1.418575
-1.398959
-1.375872
-1.349498
-1.320039
-1.287714
-1.252764
-1.215453
-1.176074
-1.134944
-1.092412
-1.048855
-1.004677
-0.960303
-0.916176
-0.872747
-0.830471
-0.789794
-0.751147
-0.714936
-0.681536
-0.651287
-0.624485
-0.601381
-0.582180
-0.567040
-0.556072
-0.549341
-0.546869
-0.548633
-0.554565
-0.564555
-0.578443
-0.596019
-0.617019
-0.641119
-0.667927
-0.704283
1.731991
1.731844
1.731429
1.730744
1.729787
1.728551
1.727032
1.725220
1.723106
1.720676
1.717917
1.714811
1.711339
1.707478
1.703202
1.698483
1.693289
1.687583
1.681325
1.674469
1.666965
1.658757
1.649782
1.639971
1.629246
1.617524
1.604708
1.590694
1.575368
1.558602
1.540257
1.520181
1.498208
1.474158
1.447837
1.419039
1.387541
1.353116
1.315522
1.274520
1.229867
1.181335
1.128710
1.071813
1.010510
0.944728
0.874474
0.799856
0.721097
0.638558
0.552752
0.464363
0.374251
0.283460
0.193204
0.104833
0.019777
-0.060525
-0.134718
-0.201647
-0.260544
-0.311209
-0.354030
-0.389826
-0.419631
-0.444514
-0.465458
-0.483307
-0.498748
-0.512316
-0.524413
-0.535327
-0.545249
-0.554301
-0.562548
-0.570015
-0.576684
-0.582507
-0.587406
-0.591296
-0.594121
-0.595897
-0.596743
-0.596891
-0.596668
-0.596443
-0.596579
-0.597356
-0.598928
-0.601297
-0.604326
-0.607765
-0.611295
-0.614575
-0.617289
-0.619175
-0.620045
-0.619784
-0.618342
-0.615723
-0.611970
-0.607157
-0.601379
-0.594746
-0.587382
-0.579414
-0.570969
-0.562172
-0.553132
-0.543947
-0.534667
-0.525419
-0.516290
-0.507381
-0.498821
-0.490783
-0.483490
-0.477223
-0.472305
-0.469081
-0.467877
-0.468978
-0.472598
-0.478886
-0.487930
-0.499768
-0.514402
-0.531809
-0.551941
-0.574736
-0.600111
-0.627972
-0.658205
-0.690685
-0.725265
-0.761785
-0.800064
-0.839904
-0.881083
-0.923360
-0.966470
-1.010124
-1.054012
-1.097798
-1.141129
-1.183631
-1.224918
-1.264595
-1.302265
-1.337537
-1.370031
-1.399391
-1.425290
-1.447441
-1.465601
-1.479578
-1.488481
-1.493217
-1.493755
-1.490114
-1.482360
-1.470598
-1.454958
-1.435586
-1.412645
-1.386307
-1.356756
-1.324189
-1.288823
-1.250894
-1.210668
-1.168441
-1.124541
-1.079333
-1.033216
-0.986615
-0.939984
-0.893790
-0.848508
-0.804608
-0.762550
-0.722766
-0.685660
-0.651592
-0.620878
-0.593785
-0.570529
-0.551272
-0.536128
-0.525165
-0.518403
-0.515824
-0.517368
-0.522943
-0.532419
-0.545635
-0.562393
-0.582461
-0.605569
-0.638279
1.735689
1.735551
1.735164
1.734526
1.733632
1.732478
1.731058
1.729363
1.727384
1.725108
1.722522
1.719608
1.716347
1.712718
1.708695
1.704251
1.699354
1.693967
1.688051
1.681561
1.674445
1.666649
1.658108
1.648752
1.638503
1.627274
1.614965
1.601470
1.586668
1.570425
1.552593
1.533011
1.511500
1.487864
1.461890
1.433350
1.401997
1.367568
1.329790
1.288378
1.243048
1.193516
1.139518
1.080817
1.017221
0.948605
0.874933
0.796278
0.712848
0.625009
0.533306
0.438488
0.341529
0.243643
0.146278
0.051081
-0.040183
-0.125710
-0.203749
-0.272714
-0.331524
-0.380040
-0.419068
-0.450010
-0.474458
-0.493917
-0.509662
-0.522712
-0.533841
-0.543614
-0.552424
-0.560523
-0.568052
-0.575078
-0.581615
-0.587639
-0.593087
-0.597851
-0.601768
-0.604648
-0.606329
-0.606757
-0.606043
-0.604491
-0.602535
-0.600714
-0.599571
-0.599523
-0.600784
-0.603340
-0.606973
-0.611310
-0.615880
-0.620198
-0.623827
-0.626427
-0.627768
-0.627728
-0.626271
-0.623423
-0.619254
-0.613865
-0.607378
-0.599929
-0.591665
-0.582739
-0.573303
-0.563502
-0.553461
-0.543287
-0.533035
-0.522726
-0.512491
-0.502402
-0.492570
-0.483161
-0.474420
-0.466677
-0.460331
-0.455818
-0.453550
-0.453866
-0.456999
-0.463087
-0.472189
-0.484309
-0.499415
-0.517453
-0.538350
-0.562022
-0.588373
-0.617294
-0.648665
-0.682351
-0.718206
-0.756066
-0.795751
-0.837064
-0.879784
-0.923671
-0.968459
-1.013859
-1.059554
-1.105204
-1.150444
-1.194888
-1.238135
-1.279771
-1.319379
-1.356545
-1.390870
-1.421979
-1.449534
-1.473243
-1.492889
-1.508352
-1.518829
-1.524531
-1.525887
-1.522943
-1.515791
-1.504557
-1.489384
-1.470423
-1.447832
-1.421769
-1.392397
-1.359883
-1.324407
-1.286171
-1.245399
-1.202351
-1.157326
-1.110664
-1.062749
-1.014003
-0.964884
-0.915874
-0.867471
-0.820178
-0.774485
-0.730863
-0.689752
-0.651546
-0.616593
-0.585186
-0.557561
-0.533899
-0.514326
-0.498920
-0.487711
-0.480690
-0.477815
-0.479013
-0.484187
-0.493223
-0.505986
-0.522328
-0.542089
-0.571574
1.739635
1.739509
1.739151
1.738560
1.737734
1.736666
1.735351
1.733780
1.731945
1.729834
1.727431
1.724723
1.721690
1.718310
1.714561
1.710413
1.705837
1.700797
1.695253
1.689161
1.682470
1.675125
1.667061
1.658208
1.648485
1.637803
1.626063
1.613151
1.598942
1.583297
1.566058
1.547054
1.526092
1.502961
1.477428
1.449238
1.418117
1.383766
1.345872
1.304103
1.258118
1.207574
1.152137
1.091501
1.025400
0.953642
0.876124
0.792874
0.704068
0.610067
0.511437
0.408991
0.303820
0.197339
0.091289
-0.012296
-0.111226
-0.203253
-0.286122
-0.357504
-0.415618
-0.460459
-0.493663
-0.517645
-0.534838
-0.547305
-0.556629
-0.563965
-0.570124
-0.575651
-0.580888
-0.586011
-0.591074
-0.596056
-0.600906
-0.605554
-0.609897
-0.613768
-0.616903
-0.618949
-0.619563
-0.618564
-0.616076
-0.612425
-0.608218
-0.604285
-0.601464
-0.600388
-0.601352
-0.604301
-0.608897
-0.614579
-0.620657
-0.626432
-0.631308
-0.634847
-0.636788
-0.637018
-0.635537
-0.632412
-0.627755
-0.621699
-0.614399
-0.606020
-0.596741
-0.586744
-0.576213
-0.565321
-0.554218
-0.543025
-0.531824
-0.520571
-0.509261
-0.498007
-0.486892
-0.476049
-0.465745
-0.456360
-0.448392
-0.442411
-0.438947
-0.438409
-0.441041
-0.446946
-0.456133
-0.468552
-0.484129
-0.502771
-0.524381
-0.548854
-0.576082
-0.605947
-0.638323
-0.673077
-0.710060
-0.749113
-0.790058
-0.832702
-0.876828
-0.922199
-0.968550
-1.015591
-1.063004
-1.110440
-1.157526
-1.203862
-1.249029
-1.292592
-1.334111
-1.373147
-1.409275
-1.442095
-1.471243
-1.496411
-1.517355
-1.533910
-1.545931
-1.552496
-1.554561
-1.552215
-1.545592
-1.534851
-1.520158
-1.501676
-1.479562
-1.453962
-1.425014
-1.392850
-1.357607
-1.319435
-1.278508
-1.235032
-1.189259
-1.141490
-1.092079
-1.041432
-0.990004
-0.938287
-0.886802
-0.836081
-0.786658
-0.739047
-0.693733
-0.651159
-0.611715
-0.575734
-0.543485
-0.515178
-0.490964
-0.470938
-0.455149
-0.443606
-0.436283
-0.433134
-0.434094
-0.439088
-0.448039
-0.460871
-0.477514
-0.504013
1.743812