# vtk DataFile Version 3.0
Scalar Field
ASCII
DATASET RECTILINEAR_GRID
DIMENSIONS 200 75 1
X_COORDINATES 200 double
0.050000 0.150000 0.250000 0.350000 0.450000 0.550000 0.650000 0.750000 0.850000 0.950000 1.050000 1.150000 1.250000 1.350000 1.450000 1.550000 1.650000 1.750000 1.850000 1.950000 2.050000 2.150000 2.250000 2.350000 2.450000 2.550000 2.650000 2.750000 2.850000 2.950000 3.050000 3.150000 3.250000 3.350000 3.450000 3.550000 3.650000 3.750000 3.850000 3.950000 4.050000 4.150000 4.250000 4.350000 4.450000 4.550000 4.650000 4.750000 4.850000 4.950000 5.050000 5.150000 5.250000 5.350000 5.450000 5.550000 5.650000 5.750000 5.850000 5.950000 6.050000 6.150000 6.250000 6.350000 6.450000 6.550000 6.650000 6.750000 6.850000 6.950000 7.050000 7.150000 7.250000 7.350000 7.450000 7.550000 7.650000 7.750000 7.850000 7.950000 8.050000 8.150000 8.250000 8.350000 8.450000 8.550000 8.650000 8.750000 8.850000 8.950000 9.050000 9.150000 9.250000 9.350000 9.450000 9.550000 9.650000 9.750000 9.850000 9.950000 10.050000 10.150000 10.250000 10.350000 10.450000 10.550000 10.650000 10.750000 10.850000 10.950000 11.050000 11.150000 11.250000 11.350000 11.450000 11.550000 11.650000 11.750000 11.850000 11.950000 12.050000 12.150000 12.250000 12.350000 12.450000 12.550000 12.650000 12.750000 12.850000 12.950000 13.050000 13.150000 13.250000 13.350000 13.450000 13.550000 13.650000 13.750000 13.850000 13.950000 14.050000 14.150000 14.250000 14.350000 14.450000 14.550000 14.650000 14.750000 14.850000 14.950000 15.050000 15.150000 15.250000 15.350000 15.450000 15.550000 15.650000 15.750000 15.850000 15.950000 16.050000 16.150000 16.250000 16.350000 16.450000 16.550000 16.650000 16.750000 16.850000 16.950000 17.050000 17.150000 17.250000 17.350000 17.450000 17.550000 17.650000 17.750000 17.850000 17.950000 18.050000 18.150000 18.250000 18.350000 18.450000 18.550000 18.650000 18.750000 18.850000 18.950000 19.050000 19.150000 19.250000 19.350000 19.450000 19.550000 19.650000 19.750000 19.850000 19.950000 
Y_COORDINATES 75 double
0.050000 0.150000 0.250000 0.350000 0.450000 0.550000 0.650000 0.750000 0.850000 0.950000 1.050000 1.150000 1.250000 1.350000 1.450000 1.550000 1.650000 1.750000 1.850000 1.950000 2.050000 2.150000 2.250000 2.350000 2.450000 2.550000 2.650000 2.750000 2.850000 2.950000 3.050000 3.150000 3.250000 3.350000 3.450000 3.550000 3.650000 3.750000 3.850000 3.950000 4.050000 4.150000 4.250000 4.350000 4.450000 4.550000 4.650000 4.750000 4.850000 4.950000 5.050000 5.150000 5.250000 5.350000 5.450000 5.550000 5.650000 5.750000 5.850000 5.950000 6.050000 6.150000 6.250000 6.350000 6.450000 6.550000 6.650000 6.750000 6.850000 6.950000 7.050000 7.150000 7.250000 7.350000 7.450000 
Z_COORDINATES 1 double
0.0
POINT_DATA 15000
SCALARS Skalarfeld double 1
LOOKUP_TABLE default
1.567705
1.566309
1.565169
1.563991
1.562656
1.561109
1.559315
1.557252
1.554899
1.552238
1.549248
1.545911
1.542205
1.538106
1.533589
1.528626
1.523187
1.517240
1.510749
1.503675
1.495976
1.487606
1.478518
1.468657
1.457968
1.446390
1.433858
1.420303
1.405653
1.389831
1.372757
1.354347
1.334514
1.313172
1.290229
1.265598
1.239192
1.210925
1.180721
1.148509
1.114231
1.077842
1.039315
0.998646
0.955853
0.910986
0.864125
0.815387
0.764924
0.712929
0.659630
0.605294
0.550221
0.494736
0.439187
0.383932
0.329331
0.275734
0.223471
0.172841
0.124105
0.077474
0.033113
-0.008870
-0.048415
-0.085513
-0.120197
-0.152538
-0.182636
-0.210617
-0.236625
-0.260814
-0.283347
-0.304394
-0.324123
-0.342706
-0.360312
-0.377111
-0.393271
-0.408960
-0.424345
-0.439592
-0.454868
-0.470336
-0.486160
-0.502498
-0.519504
-0.537326
-0.556102
-0.575958
-0.597008
-0.619350
-0.643062
-0.668206
-0.694821
-0.722925
-0.752516
-0.783566
-0.816027
-0.849827
-0.884872
-0.921045
-0.958209
-0.996205
-1.034852
-1.073953
-1.113290
-1.152629
-1.191721
-1.230304
-1.268102
-1.304835
-1.340211
-1.373939
-1.405725
-1.435280
-1.462321
-1.486573
-1.507779
-1.525698
-1.540117
-1.550862
-1.557661
-1.560391
-1.558938
-1.553214
-1.543160
-1.528744
-1.509966
-1.486858
-1.459479
-1.427923
-1.392312
-1.352798
-1.309562
-1.262812
-1.212785
-1.159740
-1.103961
-1.045753
-0.985439
-0.923356
-0.859856
-0.795298
-0.730047
-0.664468
-0.598924
-0.533773
-0.469360
-0.406018
-0.344063
-0.283790
-0.225473
-0.169361
-0.115679
-0.064625
-0.016370
0.028942
0.071195
0.110301
0.146200
0.178861
0.208287
0.234508
0.257592
0.277640
0.294794
0.309234
0.321182
0.330899
0.338690
0.344891
0.349870
0.354015
0.357719
0.361363
0.365306
0.369879
0.375386
0.382075
0.389981
0.399261
0.409507
0.420252
0.431191
0.442117
0.452888
0.463413
0.473634
0.483524
0.493078
0.502311
0.511255
0.519962
0.528498
0.536953
0.545438
0.554090
0.563079
0.573188
1.566571
1.566053
1.565209
1.564148
1.562870
1.561356
1.559587
1.557544
1.555209
1.552566
1.549595
1.546277
1.542591
1.538513
1.534018
1.529078
1.523664
1.517743
1.511278
1.504232
1.496561
1.488220
1.479161
1.469329
1.458668
1.447118
1.434611
1.421080
1.406452
1.390647
1.373586
1.355183
1.335352
1.314002
1.291044
1.266387
1.239942
1.211624
1.181354
1.149059
1.114681
1.078172
1.039506
0.998676
0.955701
0.910631
0.863547
0.814566
0.763843
0.711574
0.657992
0.603368
0.548008
0.492243
0.436429
0.380930
0.326114
0.272337
0.219936
0.169212
0.120429
0.073799
0.029483
-0.012412
-0.051832
-0.088775
-0.123279
-0.155421
-0.185310
-0.213075
-0.238864
-0.262835
-0.285155
-0.305992
-0.325517
-0.343902
-0.361315
-0.377925
-0.393901
-0.409409
-0.424617
-0.439690
-0.454796
-0.470100
-0.485766
-0.501955
-0.518823
-0.536520
-0.555187
-0.574953
-0.595933
-0.618227
-0.641916
-0.667062
-0.693703
-0.721860
-0.751526
-0.782676
-0.815257
-0.849199
-0.884404
-0.920754
-0.958110
-0.996312
-1.035176
-1.074504
-1.114076
-1.153657
-1.192995
-1.231826
-1.269875
-1.306857
-1.342482
-1.376455
-1.408483
-1.438274
-1.465544
-1.490017
-1.511432
-1.529543
-1.544120
-1.554935
-1.561868
-1.564734
-1.563407
-1.557795
-1.547837
-1.533502
-1.514792
-1.491735
-1.464394
-1.432862
-1.397260
-1.357742
-1.314487
-1.267706
-1.217634
-1.164533
-1.108685
-1.050396
-0.989991
-0.927808
-0.864199
-0.799525
-0.734152
-0.668447
-0.602777
-0.537498
-0.472959
-0.409494
-0.347419
-0.287032
-0.228606
-0.172391
-0.118613
-0.067468
-0.019127
0.026267
0.068598
0.107781
0.143756
0.176494
0.205997
0.232297
0.255463
0.275595
0.292836
0.307365
0.319405
0.329218
0.337105
0.343407
0.348491
0.352746
0.356564
0.360325
0.364386
0.369082
0.374746
0.381693
0.390140
0.399551
0.409694
0.420363
0.431243
0.442122
0.452853
0.463342
0.473529
0.483384
0.492900
0.502090
0.510983
0.519625
0.528080
0.536427
0.544771
0.553242
0.562019
0.572117
1.566406
1.566120
1.565464
1.564520
1.563317
1.561855
1.560126
1.558119
1.555818
1.553208
1.550272
1.546991
1.543343
1.539305
1.534854
1.529960
1.524595
1.518725
1.512314
1.505323
1.497710
1.489429
1.480431
1.470661
1.460062
1.448573
1.436127
1.422653
1.408078
1.392322
1.375302
1.356932
1.337122
1.315781
1.292816
1.268133
1.241640
1.213249
1.182878
1.150450
1.115903
1.079188
1.040274
0.999153
0.955842
0.910390
0.862879
0.813428
0.762196
0.709383
0.655232
0.600023
0.544073
0.487727
0.431356
0.375340
0.320062
0.265892
0.213179
0.162235
0.113326
0.066669
0.022420
-0.019321
-0.058511
-0.095159
-0.129318
-0.161077
-0.190558
-0.217900
-0.243261
-0.266807
-0.288706
-0.309133
-0.328259
-0.346254
-0.363288
-0.379528
-0.395142
-0.410294
-0.425152
-0.439883
-0.454653
-0.469631
-0.484983
-0.500874
-0.517464
-0.534910
-0.553355
-0.572936
-0.593772
-0.615965
-0.639601
-0.664741
-0.691427
-0.719676
-0.749483
-0.780819
-0.813632
-0.847844
-0.883358
-0.920053
-0.957785
-0.996389
-1.035682
-1.075460
-1.115499
-1.155560
-1.195390
-1.234721
-1.273273
-1.310760
-1.346886
-1.381356
-1.413871
-1.444138
-1.471867
-1.496782
-1.518617
-1.537125
-1.552075
-1.563260
-1.570521
-1.573683
-1.572623
-1.567252
-1.557508
-1.543362
-1.524814
-1.501895
-1.474667
-1.443223
-1.407686
-1.368207
-1.324969
-1.278180
-1.228077
-1.174920
-1.118994
-1.060605
-1.000078
-0.937753
-0.873983
-0.809132
-0.743569
-0.677663
-0.611783
-0.546289
-0.481532
-0.417850
-0.355561
-0.294963
-0.236332
-0.179918
-0.125945
-0.074609
-0.026079
0.019505
0.062031
0.101415
0.137603
0.170570
0.200319
0.226888
0.250346
0.270796
0.288382
0.303283
0.315720
0.325954
0.334285
0.341046
0.346602
0.351333
0.355625
0.359855
0.364383
0.369549
0.375660
0.382930
0.391414
0.400969
0.411094
0.421465
0.432101
0.442778
0.453336
0.463671
0.473718
0.483440
0.492825
0.501878
0.510623
0.519096
0.527349
0.535447
0.543474
0.551529
0.559744
0.568993
1.566768
1.566557
1.566003
1.565150
1.564018
1.562614
1.560937
1.558977
1.556723
1.554160
1.551274
1.548045
1.544453
1.540475
1.536087
1.531261
1.525967
1.520173
1.513841
1.506934
1.499407
1.491216
1.482310
1.472634
1.462130
1.450735
1.438383
1.425000
1.410510
1.394833
1.377883
1.359572
1.339805
1.318489
1.295525
1.270818
1.244269
1.215785
1.185279
1.152669
1.117888
1.080880
1.041612
1.000069
0.956267
0.910252
0.862107
0.811954
0.759957
0.706325
0.651311
0.595210
0.538357
0.481119
0.423890
0.367073
0.311078
0.256297
0.203097
0.151808
0.102703
0.056000
0.011852
-0.029655
-0.068494
-0.104692
-0.138324
-0.169502
-0.198365
-0.225070
-0.249789
-0.272696
-0.293970
-0.313785
-0.332317
-0.349735
-0.366208
-0.381900
-0.396976
-0.411601
-0.425940
-0.440160
-0.454430
-0.468920
-0.483802
-0.499245
-0.515418
-0.532483
-0.550595
-0.569895
-0.590510
-0.612550
-0.636101
-0.661231
-0.687980
-0.716365
-0.746380
-0.777992
-0.811146
-0.845761
-0.881735
-0.918941
-0.957231
-0.996437
-1.036368
-1.076816
-1.117553
-1.158334
-1.198900
-1.238979
-1.278286
-1.316528
-1.353407
-1.388620
-1.421865
-1.452842
-1.481260
-1.506835
-1.529297
-1.548396
-1.563900
-1.575604
-1.583342
-1.586935
-1.586264
-1.581241
-1.571807
-1.557934
-1.539622
-1.516903
-1.489841
-1.458527
-1.423085
-1.383667
-1.340456
-1.293659
-1.243513
-1.190280
-1.134243
-1.075711
-1.015007
-0.952475
-0.888470
-0.823359
-0.757512
-0.691305
-0.625110
-0.559291
-0.494204
-0.430189
-0.367570
-0.306646
-0.247694
-0.190966
-0.136685
-0.085044
-0.036209
0.009684
0.052529
0.092247
0.128792
0.162143
0.192312
0.219340
0.243302
0.264305
0.282493
0.298045
0.311180
0.322155
0.331259
0.338819
0.345183
0.350716
0.355789
0.360762
0.365978
0.371746
0.378316
0.385840
0.394329
0.403649
0.413587
0.423884
0.434119
0.444441
0.454671
0.464708
0.474481
0.483946
0.493082
0.501885
0.510368
0.518555
0.526480
0.534189
0.541732
0.549168
0.556554
0.564552
1.567515
1.567336
1.566842
1.566054
1.564986
1.563642
1.562022
1.560118
1.557922
1.555421
1.552598
1.549437
1.545918
1.542018
1.537714
1.532977
1.527778
1.522083
1.515857
1.509061
1.501650
1.493579
1.484797
1.475248
1.464873
1.453607
1.441382
1.428124
1.413754
1.398189
1.381340
1.363114
1.343414
1.322141
1.299191
1.274462
1.247851
1.219257
1.188585
1.155746
1.120665
1.083279
1.043547
1.001449
0.956996
0.910231
0.861238
0.810140
0.757109
0.702363
0.646172
0.588851
0.530759
0.472294
0.413880
0.355959
0.298972
0.243347
0.189480
0.137718
0.088352
0.041599
-0.002397
-0.043565
-0.081903
-0.117470
-0.150369
-0.180743
-0.208759
-0.234597
-0.258446
-0.280494
-0.300929
-0.319930
-0.337673
-0.354326
-0.370056
-0.385022
-0.399388
-0.413314
-0.426963
-0.440504
-0.454106
-0.467942
-0.482191
-0.497031
-0.512638
-0.529188
-0.546844
-0.565762
-0.586077
-0.607907
-0.631345
-0.656459
-0.683292
-0.711861
-0.742155
-0.774139
-0.807751
-0.842907
-0.879497
-0.917389
-0.956429
-0.996441
-1.037228
-1.078575
-1.120248
-1.161994
-1.203549
-1.244631
-1.284951
-1.324207
-1.362096
-1.398307
-1.432531
-1.464463
-1.493804
-1.520263
-1.543565
-1.563453
-1.579693
-1.592076
-1.600432
-1.604587
-1.604421
-1.599849
-1.590814
-1.577290
-1.559278
-1.536811
-1.509953
-1.478795
-1.443462
-1.404106
-1.360909
-1.314079
-1.263853
-1.210490
-1.154277
-1.095521
-1.034548
-0.971702
-0.907344
-0.841841
-0.775571
-0.708914
-0.642246
-0.575941
-0.510358
-0.445845
-0.382729
-0.321314
-0.261881
-0.204681
-0.149936
-0.097840
-0.048554
-0.002207
0.041100
0.081298
0.118347
0.152237
0.182988
0.210649
0.235301
0.257055
0.276057
0.292486
0.306556
0.318515
0.328642
0.337244
0.344651
0.351205
0.357248
0.363114
0.369112
0.375510
0.382511
0.390230
0.398679
0.407767
0.417338
0.427218
0.437283
0.447180
0.456961
0.466577
0.475954
0.485044
0.493815
0.502255
0.510365
0.518153
0.525636
0.532833
0.539764
0.546440
0.552855
0.559466
1.568591
1.568428
1.567974
1.567238
1.566226
1.564941
1.563382
1.561543
1.559415
1.556986
1.554241
1.551163
1.547734
1.543931
1.539729
1.535103
1.530022
1.524452
1.518358
1.511701
1.504436
1.496516
1.487890
1.478501
1.468289
1.457188
1.445128
1.432031
1.417817
1.402398
1.385682
1.367572
1.347966
1.326757
1.303838
1.279096
1.252420
1.223702
1.192835
1.159723
1.124278
1.086428
1.046122
1.003333
0.958064
0.910354
0.860285
0.807983
0.753629
0.697453
0.639745
0.580844
0.521145
0.461083
0.401127
0.341764
0.283485
0.226763
0.172032
0.119672
0.069987
0.023199
-0.020563
-0.061253
-0.098906
-0.133620
-0.165544
-0.194860
-0.221771
-0.246489
-0.269225
-0.290183
-0.309560
-0.327540
-0.344299
-0.360002
-0.374809
-0.388876
-0.402359
-0.415414
-0.428204
-0.440893
-0.453654
-0.466666
-0.480111
-0.494181
-0.509064
-0.524951
-0.542023
-0.560449
-0.580378
-0.601938
-0.625231
-0.650327
-0.677270
-0.706075
-0.736727
-0.769186
-0.803383
-0.839226
-0.876598
-0.915360
-0.955350
-0.996382
-1.038253
-1.080737
-1.123593
-1.166561
-1.209365
-1.251716
-1.293316
-1.333856
-1.373021
-1.410494
-1.445957
-1.479095
-1.509601
-1.537178
-1.561540
-1.582424
-1.599586
-1.612814
-1.621928
-1.626773
-1.627226
-1.623208
-1.614663
-1.601565
-1.583918
-1.561754
-1.535137
-1.504161
-1.468949
-1.429652
-1.386453
-1.339560
-1.289206
-1.235652
-1.179184
-1.120108
-1.058752
-0.995464
-0.930604
-0.864548
-0.797678
-0.730380
-0.663041
-0.596040
-0.529747
-0.464517
-0.400684
-0.338561
-0.278431
-0.220549
-0.165140
-0.112393
-0.062467
-0.015487
0.028456
0.069301
0.107017
0.141605
0.173095
0.201545
0.227043
0.249707
0.269683
0.287151
0.302317
0.315420
0.326722
0.336511
0.345092
0.352776
0.359875
0.366688
0.373487
0.380501
0.387904
0.395793
0.404189
0.413040
0.422246
0.431683
0.441230
0.450762
0.460130
0.469245
0.478144
0.486767
0.495082
0.503068
0.510713
0.518012
0.524964
0.531564
0.537801
0.543650
0.549055
0.554296
1.569962
1.569811
1.569388
1.568695
1.567735
1.566510
1.565016
1.563248
1.561197
1.558851
1.556196
1.553217
1.549894
1.546205
1.542127
1.537633
1.532693
1.527273
1.521338
1.514848
1.507758
1.500021
1.491585
1.482391
1.472379
1.461480
1.449622
1.436725
1.422704
1.407470
1.390924
1.372964
1.353483
1.332365
1.309495
1.284753
1.258015
1.229163
1.198079
1.164651
1.128781
1.090384
1.049394
1.005774
0.959517
0.910656
0.859270
0.805487
0.749496
0.691544
0.631942
0.571065
0.509346
0.447271
0.385366
0.324182
0.264271
0.206169
0.150364
0.097275
0.047229
0.000448
-0.042957
-0.082981
-0.119709
-0.153297
-0.183953
-0.211914
-0.237429
-0.260747
-0.282106
-0.301731
-0.319825
-0.336577
-0.352158
-0.366727
-0.380437
-0.393434
-0.405866
-0.417883
-0.429641
-0.441305
-0.453048
-0.465054
-0.477515
-0.490635
-0.504622
-0.519686
-0.536029
-0.553842
-0.573291
-0.594519
-0.617633
-0.642711
-0.669796
-0.698897
-0.729996
-0.763042
-0.797960
-0.834649
-0.872981
-0.912809
-0.953958
-0.996237
-1.039429
-1.083301
-1.127599
-1.172054
-1.216379
-1.260276
-1.303435
-1.345536
-1.386255
-1.425263
-1.462234
-1.496841
-1.528767
-1.557704
-1.583358
-1.605451
-1.623732
-1.637974
-1.647990
-1.653648
-1.654834
-1.651471
-1.643507
-1.630915
-1.613699
-1.591892
-1.565558
-1.534791
-1.499714
-1.460478
-1.417263
-1.370276
-1.319750
-1.265944
-1.209139
-1.149644
-1.087786
-1.023914
-0.958393
-0.891603
-0.823934
-0.755780
-0.687537
-0.619597
-0.552341
-0.486135
-0.421324
-0.358229
-0.297143
-0.238326
-0.182004
-0.128369
-0.077577
-0.029747
0.015034
0.056715
0.095276
0.130728
0.163111
0.192494
0.218973
0.242672
0.263739
0.282352
0.298711
0.313042
0.325593
0.336629
0.346427
0.355270
0.363436
0.371189
0.378766
0.386369
0.394147
0.402195
0.410544
0.419175
0.428028
0.437019
0.446060
0.455055
0.463921
0.472601
0.480981
0.489084
0.496883
0.504352
0.511471
0.518223
0.524589
0.530546
0.536059
0.541074
0.545504
0.549483
1.571608
1.571467
1.571069
1.570416
1.569507
1.568342
1.566918
1.565227
1.563261
1.561009
1.558458
1.555592
1.552391
1.548835
1.544900
1.540559
1.535783
1.530538
1.524789
1.518495
1.511611
1.504090
1.495878
1.486916
1.477141
1.466483
1.454867
1.442210
1.428425
1.413416
1.397081
1.379310
1.359988
1.338994
1.316200
1.291475
1.264685
1.235696
1.204375
1.170598
1.134246
1.095219
1.053435
1.008841
0.961418
0.911188
0.858226
0.802662
0.744691
0.684578
0.622663
0.559359
0.495151
0.430587
0.366266
0.302820
0.240887
0.181083
0.123969
0.070019
0.019589
-0.027101
-0.069970
-0.109070
-0.144561
-0.176678
-0.205710
-0.231963
-0.255745
-0.277351
-0.297051
-0.315085
-0.331667
-0.346983
-0.361198
-0.374459
-0.386905
-0.398669
-0.409887
-0.420699
-0.431256
-0.441718
-0.452260
-0.463070
-0.474354
-0.486329
-0.499227
-0.513286
-0.528738
-0.545801
-0.564667
-0.585493
-0.608399
-0.633464
-0.660728
-0.690197
-0.721841
-0.755601
-0.791390
-0.829094
-0.868577
-0.909677
-0.952211
-0.995973
-1.040737
-1.086257
-1.132267
-1.178486
-1.224615
-1.270344
-1.315349
-1.359299
-1.401858
-1.442685
-1.481441
-1.517788
-1.551397
-1.581948
-1.609133
-1.632662
-1.652267
-1.667705
-1.678768
-1.685356
-1.687387
-1.684785
-1.677496
-1.665493
-1.648779
-1.627387
-1.601381
-1.570855
-1.535932
-1.496763
-1.453526
-1.406424
-1.355688
-1.301572
-1.244356
-1.184345
-1.121866
-1.057268
-0.990920
-0.923207
-0.854526
-0.785283
-0.715885
-0.646738
-0.578237
-0.510764
-0.444679
-0.380314
-0.317975
-0.257930
-0.200413
-0.145618
-0.093701
-0.044778
0.001068
0.043796
0.083394
0.119883
0.153314
0.183767
0.211345
0.236178
0.258418
0.278240
0.295839
0.311430
0.325245
0.337526
0.348527
0.358501
0.367696
0.376344
0.384657
0.392810
0.400941
0.409141
0.417457
0.425892
0.434419
0.442989
0.451541
0.460010
0.468334
0.476461
0.484347
0.491929
0.499182
0.506105
0.512668
0.518845
0.524606
0.529913
0.534713
0.538934
0.542474
0.545346
1.573512
1.573379
1.573006
1.572391
1.571533
1.570431
1.569079
1.567472
1.565600
1.563453
1.561018
1.558278
1.555216
1.551810
1.548037
1.543871
1.539283
1.534239
1.528702
1.522633
1.515987
1.508715
1.500762
1.492069
1.482571
1.472195
1.460864
1.448492
1.434987
1.420249
1.404168
1.386630
1.367510
1.346677
1.323991
1.299310
1.272484
1.243363
1.211797
1.177640
1.140756
1.101021
1.058333
1.012620
0.963845
0.912017
0.857201
0.799526
0.739195
0.676492
0.611788
0.545543
0.478303
0.410695
0.343410
0.277184
0.212767
0.150884
0.092194
0.037246
-0.013563
-0.060017
-0.102087
-0.139909
-0.173748
-0.203955
-0.230922
-0.255046
-0.276708
-0.296253
-0.313986
-0.330164
-0.345003
-0.358683
-0.371353
-0.383143
-0.394171
-0.404550
-0.414399
-0.423847
-0.433033
-0.442116
-0.451269
-0.460685
-0.470579
-0.481191
-0.492783
-0.505628
-0.520003
-0.536161
-0.554327
-0.574679
-0.597347
-0.622410
-0.649905
-0.679826
-0.712129
-0.746744
-0.783567
-0.822472
-0.863308
-0.905901
-0.950054
-0.995547
-1.042142
-1.089579
-1.137579
-1.185845
-1.234066
-1.281916
-1.329058
-1.375149
-1.419835
-1.462765
-1.503585
-1.541945
-1.577502
-1.609922
-1.638885
-1.664085
-1.685234
-1.702065
-1.714335
-1.721964
-1.724953
-1.723220
-1.716706
-1.705381
-1.689246
-1.668334
-1.642709
-1.612466
-1.577729
-1.538646
-1.495392
-1.448167
-1.397197
-1.342730
-1.285041
-1.224430
-1.161221
-1.095762
-1.028424
-0.959597
-0.889686
-0.819110
-0.748291
-0.677649
-0.607601
-0.538545
-0.470860
-0.404899
-0.340980
-0.279386
-0.220360
-0.164104
-0.110777
-0.060495
-0.013335
0.030665
0.071502
0.109208
0.143843
0.175496
0.204280
0.230329
0.253800
0.274867
0.293720
0.310565
0.325619
0.339107
0.351259
0.362303
0.372461
0.381942
0.390932
0.399593
0.408051
0.416400
0.424695
0.432962
0.441198
0.449381
0.457477
0.465443
0.473238
0.480821
0.488153
0.495197
0.501929
0.508305
0.514311
0.519916
0.525082
0.529762
0.533893
0.537393
0.540153
0.542098
1.575656
1.575532
1.575183
1.574606
1.573801
1.572764
1.571490
1.569973
1.568204
1.566172
1.563865
1.561265
1.558357
1.555119
1.551528
1.547559
1.543181
1.538362
1.533066
1.527253
1.520876
1.513887
1.506230
1.497845
1.488664
1.478613
1.467612
1.455573
1.442396
1.427978
1.412203
1.394947
1.376077
1.355450
1.332915
1.308313
1.281477
1.252239
1.220427
1.185871
1.148410
1.107895
1.064198
1.017220
0.966900
0.913229
0.856258
0.796112
0.732998
0.667220
0.599184
0.529402
0.458495
0.387186
0.316282
0.246654
0.179195
0.114779
0.054201
-0.001885
-0.053024
-0.099013
-0.139898
-0.175948
-0.207585
-0.235314
-0.259667
-0.281158
-0.300251
-0.317350
-0.332789
-0.346839
-0.359712
-0.371568
-0.382534
-0.392710
-0.402184
-0.411043
-0.419383
-0.427314
-0.434968
-0.442495
-0.450068
-0.457880
-0.466157
-0.475161
-0.485194
-0.496583
-0.509660
-0.524734
-0.542071
-0.561872
-0.584278
-0.609365
-0.637156
-0.667630
-0.700725
-0.736351
-0.774387
-0.814690
-0.857093
-0.901406
-0.947418
-0.994895
-1.043581
-1.093203
-1.143466
-1.194057
-1.244649
-1.294902
-1.344461
-1.392968
-1.440055
-1.485356
-1.528504
-1.569133
-1.606889
-1.641423
-1.672403
-1.699506
-1.722426
-1.740869
-1.754544
-1.763323
-1.767390
-1.766644
-1.761016
-1.750468
-1.734999
-1.714643
-1.689467
-1.659566
-1.625063
-1.586107
-1.542868
-1.495541
-1.444343
-1.389514
-1.331319
-1.270051
-1.206028
-1.139593
-1.071119
-1.000998
-0.929647
-0.857494
-0.784980
-0.712547
-0.640631
-0.569657
-0.500027
-0.432116
-0.366265
-0.302775
-0.241903
-0.183862
-0.128818
-0.076890
-0.028154
0.017356
0.059644
0.098751
0.134746
0.167726
0.197814
0.225151
0.249897
0.272227
0.292328
0.310399
0.326646
0.341278
0.354508
0.366544
0.377588
0.387827
0.397433
0.406554
0.415312
0.423801
0.432088
0.440212
0.448192
0.456027
0.463705
0.471205
0.478500
0.485562
0.492364
0.498877
0.505073
0.510924
0.516396
0.521453
0.526057
0.530157
0.533684
0.536554
0.538658
0.539859
1.578026
1.577911
1.577586
1.577049
1.576298
1.575330
1.574139
1.572719
1.571061
1.569154
1.566986
1.564541
1.561802
1.558749
1.555359
1.551607
1.547464
1.542896
1.537868
1.532340
1.526265
1.519594
1.512271
1.504233
1.495413
1.485733
1.475111
1.463453
1.450658
1.436615
1.421201
1.404284
1.385720
1.365354
1.343020
1.318542
1.291734
1.262406
1.230359
1.195397
1.157327
1.115969
1.071160
1.022770
0.970708
0.914935
0.855484
0.792468
0.726098
0.656695
0.584700
0.510687
0.435363
0.359565
0.284249
0.210455
0.139269
0.071761
0.008915
-0.048456
-0.099812
-0.144968
-0.184104
-0.217690
-0.246379
-0.270897
-0.291958
-0.310214
-0.326225
-0.340452
-0.353258
-0.364915
-0.375614
-0.385487
-0.394619
-0.403069
-0.410884
-0.418114
-0.424822
-0.431100
-0.437067
-0.442868
-0.448671
-0.454666
-0.461081
-0.468202
-0.476380
-0.486021
-0.497540
-0.511323
-0.527686
-0.546863
-0.568996
-0.594151
-0.622328
-0.653479
-0.687517
-0.724326
-0.763765
-0.805670
-0.849856
-0.896115
-0.944220
-0.993919
-1.044942
-1.096997
-1.149772
-1.202937
-1.256147
-1.309045
-1.361260
-1.412417
-1.462134
-1.510029
-1.555720
-1.598830
-1.638991
-1.675843
-1.709041
-1.738252
-1.763157
-1.783443
-1.798788
-1.808861
-1.814139
-1.814510
-1.809888
-1.800229
-1.785529
-1.765825
-1.741188
-1.711716
-1.677533
-1.638786
-1.595640
-1.548281
-1.496915
-1.441768
-1.383093
-1.321167
-1.256298
-1.188822
-1.119108
-1.047550
-0.974573
-0.900620
-0.826150
-0.751629
-0.677523
-0.604285
-0.532349
-0.462119
-0.393964
-0.328209
-0.265133
-0.204963
-0.147878
-0.094002
-0.043414
0.003854
0.047813
0.088508
0.126018
0.160452
0.191938
0.220626
0.246682
0.270282
0.291614
0.310872
0.328253
0.343959
0.358186
0.371129
0.382975
0.393896
0.404053
0.413585
0.422613
0.431231
0.439516
0.447519
0.455275
0.462801
0.470104
0.477177
0.484012
0.490591
0.496895
0.502904
0.508594
0.513937
0.518902
0.523456
0.527550
0.531131
0.534133
0.536473
0.538046
0.538678
1.580606
1.580500
1.580200
1.579704
1.579010
1.578115
1.577012
1.575695
1.574156
1.572385
1.570367
1.568090
1.565536
1.562685
1.559515
1.556001
1.552115
1.547824
1.543092
1.537879
1.532139
1.525822
1.518871
1.511223
1.502807
1.493547
1.483354
1.472132
1.459776
1.446167
1.431176
1.414661
1.396467
1.376426
1.354355
1.330059
1.303331
1.273953
1.241698
1.206336
1.167639
1.125386
1.079374
1.029429
0.975420
0.917274
0.854992
0.788669
0.718512
0.644855
0.568176
0.489115
0.408476
0.327238
0.246536
0.167632
0.091860
0.020554
-0.045034
-0.103850
-0.155206
-0.198956
-0.235499
-0.265638
-0.290373
-0.310732
-0.327662
-0.341973
-0.354327
-0.365233
-0.375069
-0.384088
-0.392446
-0.400219
-0.407437
-0.414099
-0.420194
-0.425721
-0.430704
-0.435210
-0.439350
-0.443270
-0.447132
-0.451108
-0.455408
-0.460335
-0.466311
-0.473851
-0.483499
-0.495749
-0.510990
-0.529481
-0.551358
-0.576657
-0.605338
-0.637316
-0.672466
-0.710641
-0.751675
-0.795379
-0.841548
-0.889957
-0.940358
-0.992483
-1.046042
-1.100725
-1.156201
-1.212123
-1.268127
-1.323837
-1.378867
-1.432824
-1.485313
-1.535936
-1.584301
-1.630018
-1.672707
-1.712000
-1.747543
-1.778996
-1.806040
-1.828363
-1.845657
-1.857343
-1.863961
-1.865584
-1.862099
-1.853452
-1.839641
-1.820709
-1.796735
-1.767823
-1.734100
-1.695709
-1.652809
-1.605572
-1.554188
-1.498865
-1.439833
-1.377349
-1.311700
-1.243210
-1.172236
-1.099173
-1.024450
-0.948526
-0.871880
-0.795008
-0.718407
-0.642570
-0.567968
-0.495044
-0.424202
-0.355801
-0.290148
-0.227491
-0.168026
-0.111889
-0.059163
-0.009881
0.035970
0.078444
0.117628
0.153638
0.186613
0.216713
0.244108
0.268981
0.291522
0.311923
0.330379
0.347083
0.362225
0.375991
0.388556
0.400084
0.410728
0.420623
0.429887
0.438620
0.446905
0.454803
0.462363
0.469616
0.476584
0.483274
0.489691
0.495828
0.501677
0.507222
0.512445
0.517323
0.521826
0.525920
0.529560
0.532694
0.535254
0.537163
0.538328
0.538549
1.583379
1.583282
1.583009
1.582556
1.581922
1.581103
1.580094
1.578887
1.577476
1.575848
1.573993
1.571897
1.569542
1.566910
1.563979
1.560724
1.557118
1.553128
1.548720
1.543853
1.538481
1.532554
1.526014
1.518798
1.510834
1.502042
1.492332
1.481605
1.469748
1.456639
1.442139
1.426098
1.408348
1.388706
1.366973
1.342931
1.316349
1.286979
1.254561
1.218825
1.179500
1.136317
1.089021
1.037385
0.981226
0.920420
0.854929
0.784816
0.710275
0.631646
0.549443
0.464370
0.377342
0.289503
0.202216
0.117026
0.035587
-0.040419
-0.109371
-0.169819
-0.220794
-0.262217
-0.294893
-0.320178
-0.339598
-0.354591
-0.366379
-0.375940
-0.384017
-0.391152
-0.397710
-0.403903
-0.409817
-0.415449
-0.420745
-0.425625
-0.430004
-0.433811
-0.437017
-0.439660
-0.441854
-0.443765
-0.445557
-0.447356
-0.449308
-0.451704
-0.455058
-0.460066
-0.467467
-0.477918
-0.491893
-0.509672
-0.531355
-0.556920
-0.586264
-0.619242
-0.655685
-0.695406
-0.738209
-0.783880
-0.832191
-0.882897
-0.935732
-0.990408
-1.046617
-1.104029
-1.162295
-1.221047
-1.279905
-1.338475
-1.396356
-1.453142
-1.508422
-1.561789
-1.612839
-1.661171
-1.706398
-1.748144
-1.786047
-1.819768
-1.848991
-1.873421
-1.892775
-1.906703
-1.914750
-1.917755
-1.915532
-1.908018
-1.895221
-1.877202
-1.854050
-1.825881
-1.792825
-1.755022
-1.712621
-1.665778
-1.614659
-1.559442
-1.500327
-1.437538
-1.371332
-1.302006
-1.229900
-1.155399
-1.078933
-1.000972
-0.922020
-0.842604
-0.763263
-0.684532
-0.606933
-0.530957
-0.457056
-0.385630
-0.317024
-0.251518
-0.189329
-0.130610
-0.075455
-0.023899
0.024071
0.068515
0.109529
0.147237
0.181791
0.213359
0.242122
0.268269
0.291995
0.313495
0.332965
0.350597
0.366576
0.381083
0.394288
0.406351
0.417420
0.427629
0.437098
0.445929
0.454212
0.462017
0.469403
0.476415
0.483084
0.489434
0.495476
0.501217
0.506654
0.511781
0.516585
0.521045
0.525137
0.528827
0.532075
0.534831
0.537035
0.538612
0.539478
0.539432
1.586329
1.586242
1.585995
1.585588
1.585017
1.584279
1.583368
1.582278
1.581002
1.579528
1.577847
1.575943
1.573802
1.571404
1.568730
1.565755
1.562451
1.558788
1.554731
1.550240
1.545269
1.539769
1.533681
1.526941
1.519476
1.511205
1.502035
1.491862
1.480571
1.468032
1.454099
1.438611
1.421388
1.402232
1.380923
1.357224
1.330872
1.301588
1.269072
1.233011
1.193080
1.148954
1.100312
1.046863
0.988352
0.924591
0.855483
0.781049
0.701454
0.617036
0.528333
0.436111
0.341407
0.245558
0.150214
0.057291
-0.031147
-0.113001
-0.186176
-0.248533
-0.298475
-0.336070
-0.362921
-0.381338
-0.393637
-0.401776
-0.407264
-0.411210
-0.414398
-0.417358
-0.420411
-0.423688
-0.427165
-0.430723
-0.434194
-0.437399
-0.440157
-0.442308
-0.443743
-0.444464
-0.444613
-0.444429
-0.444113
-0.443697
-0.443142
-0.442655
-0.442886
-0.444826
-0.449536
-0.457905
-0.470512
-0.487621
-0.509249
-0.535267
-0.565472
-0.599642
-0.637550
-0.678968
-0.723666
-0.771405
-0.821935
-0.874992
-0.930291
-0.987526
-1.046372
-1.106481
-1.167486
-1.229004
-1.290640
-1.351984
-1.412624
-1.472139
-1.530111
-1.586122
-1.639757
-1.690610
-1.738283
-1.782391
-1.822569
-1.858473
-1.889792
-1.916260
-1.937670
-1.953905
-1.963730
-1.968252
-1.967366
-1.961054
-1.949361
-1.932373
-1.910203
-1.882981
-1.850845
-1.813934
-1.772382
-1.726326
-1.675899
-1.621239
-1.562501
-1.499861
-1.433529
-1.363760
-1.290859
-1.215189
-1.137172
-1.057284
-0.976050
-0.894031
-0.811812
-0.729983
-0.649126
-0.569794
-0.492498
-0.417695
-0.345778
-0.277069
-0.211818
-0.150202
-0.092328
-0.038240
0.012074
0.058678
0.101675
0.141202
0.177421
0.210512
0.240669
0.268090
0.292979
0.315538
0.335966
0.354458
0.371201
0.386373
0.400145
0.412676
0.424112
0.434590
0.444230
0.453140
0.461415
0.469134
0.476365
0.483161
0.489567
0.495613
0.501323
0.506711
0.511784
0.516541
0.520973
0.525068
0.528803
0.532149
0.535070
0.537520
0.539445
0.540780
0.541449
0.541259
1.589437
1.589360
1.589142
1.588782
1.588277
1.587623
1.586816
1.585850
1.584716
1.583405
1.581907
1.580209
1.578295
1.576148
1.573748
1.571071
1.568092
1.564781
1.561101
1.557016
1.552480
1.547443
1.541847
1.535628
1.528711
1.521015
1.512443
1.502890
1.492234
1.480341
1.467056
1.452209
1.435607
1.417035
1.396254
1.373000
1.346983
1.317886
1.285365
1.249054
1.208569
1.163514
1.113492
1.058125
0.997070
0.930053
0.856896
0.777556
0.692157
0.601018
0.504693
0.404001
0.300099
0.194553
0.089380
-0.012990
-0.109981
-0.199064
-0.277742
-0.342605
-0.390412
-0.421659
-0.439645
-0.448360
-0.451242
-0.450818
-0.448805