# vtk DataFile Version 3.0
Vector Field
ASCII
DATASET RECTILINEAR_GRID
DIMENSIONS 200 75 1
X_COORDINATES 200 double
0.050000 0.150000 0.250000 0.350000 0.450000 0.550000 0.650000 0.750000 0.850000 0.950000 1.050000 1.150000 1.250000 1.350000 1.450000 1.550000 1.650000 1.750000 1.850000 1.950000 2.050000 2.150000 2.250000 2.350000 2.450000 2.550000 2.650000 2.750000 2.850000 2.950000 3.050000 3.150000 3.250000 3.350000 3.450000 3.550000 3.650000 3.750000 3.850000 3.950000 4.050000 4.150000 4.250000 4.350000 4.450000 4.550000 4.650000 4.750000 4.850000 4.950000 5.050000 5.150000 5.250000 5.350000 5.450000 5.550000 5.650000 5.750000 5.850000 5.950000 6.050000 6.150000 6.250000 6.350000 6.450000 6.550000 6.650000 6.750000 6.850000 6.950000 7.050000 7.150000 7.250000 7.350000 7.450000 7.550000 7.650000 7.750000 7.850000 7.950000 8.050000 8.150000 8.250000 8.350000 8.450000 8.550000 8.650000 8.750000 8.850000 8.950000 9.050000 9.150000 9.250000 9.350000 9.450000 9.550000 9.650000 9.750000 9.850000 9.950000 10.050000 10.150000 10.250000 10.350000 10.450000 10.550000 10.650000 10.750000 10.850000 10.950000 11.050000 11.150000 11.250000 11.350000 11.450000 11.550000 11.650000 11.750000 11.850000 11.950000 12.050000 12.150000 12.250000 12.350000 12.450000 12.550000 12.650000 12.750000 12.850000 12.950000 13.050000 13.150000 13.250000 13.350000 13.450000 13.550000 13.650000 13.750000 13.850000 13.950000 14.050000 14.150000 14.250000 14.350000 14.450000 14.550000 14.650000 14.750000 14.850000 14.950000 15.050000 15.150000 15.250000 15.350000 15.450000 15.550000 15.650000 15.750000 15.850000 15.950000 16.050000 16.150000 16.250000 16.350000 16.450000 16.550000 16.650000 16.750000 16.850000 16.950000 17.050000 17.150000 17.250000 17.350000 17.450000 17.550000 17.650000 17.750000 17.850000 17.950000 18.050000 18.150000 18.250000 18.350000 18.450000 18.550000 18.650000 18.750000 18.850000 18.950000 19.050000 19.150000 19.250000 19.350000 19.450000 19.550000 19.650000 19.750000 19.850000 19.950000 
Y_COORDINATES 75 double
0.050000 0.150000 0.250000 0.350000 0.450000 0.550000 0.650000 0.750000 0.850000 0.950000 1.050000 1.150000 1.250000 1.350000 1.450000 1.550000 1.650000 1.750000 1.850000 1.950000 2.050000 2.150000 2.250000 2.350000 2.450000 2.550000 2.650000 2.750000 2.850000 2.950000 3.050000 3.150000 3.250000 3.350000 3.450000 3.550000 3.650000 3.750000 3.850000 3.950000 4.050000 4.150000 4.250000 4.350000 4.450000 4.550000 4.650000 4.750000 4.850000 4.950000 5.050000 5.150000 5.250000 5.350000 5.450000 5.550000 5.650000 5.750000 5.850000 5.950000 6.050000 6.150000 6.250000 6.350000 6.450000 6.550000 6.650000 6.750000 6.850000 6.950000 7.050000 7.150000 7.250000 7.350000 7.450000 
Z_COORDINATES 1 double
0.0
POINT_DATA 15000
VECTORS Vektorfeld double
0.999709 0.000291 0.0
0.999000 0.000418 0.0
0.998188 0.000394 0.0
0.997482 0.000311 0.0
0.996973 0.000199 0.0
0.996703 0.000071 0.0
0.996702 -0.000070 0.0
0.996992 -0.000220 0.0
0.997593 -0.000380 0.0
0.998523 -0.000550 0.0
0.999804 -0.000731 0.0
1.001463 -0.000928 0.0
1.003536 -0.001145 0.0
1.006074 -0.001392 0.0
1.009141 -0.001676 0.0
1.012825 -0.002007 0.0
1.017222 -0.002390 0.0
1.022436 -0.002824 0.0
1.028563 -0.003303 0.0
1.035679 -0.003813 0.0
1.043831 -0.004338 0.0
1.053031 -0.004862 0.0
1.063262 -0.005370 0.0
1.074487 -0.005855 0.0
1.086654 -0.006313 0.0
1.099713 -0.006746 0.0
1.113620 -0.007161 0.0
1.128345 -0.007564 0.0
1.143872 -0.007963 0.0
1.160200 -0.008365 0.0
1.177341 -0.008775 0.0
1.195312 -0.009196 0.0
1.214139 -0.009630 0.0
1.233846 -0.010077 0.0
1.254457 -0.010535 0.0
1.275993 -0.011001 0.0
1.298468 -0.011474 0.0
1.321888 -0.011946 0.0
1.346250 -0.012415 0.0
1.371538 -0.012873 0.0
1.397726 -0.013314 0.0
1.424771 -0.013731 0.0
1.452618 -0.014116 0.0
1.481193 -0.014459 0.0
1.510403 -0.014752 0.0
1.540142 -0.014986 0.0
1.570279 -0.015151 0.0
1.600669 -0.015239 0.0
1.631148 -0.015240 0.0
1.661533 -0.015146 0.0
1.691629 -0.014950 0.0
1.721227 -0.014647 0.0
1.750108 -0.014233 0.0
1.778047 -0.013706 0.0
1.804820 -0.013066 0.0
1.830201 -0.012315 0.0
1.853976 -0.011460 0.0
1.875941 -0.010505 0.0
1.895909 -0.009463 0.0
1.913713 -0.008342 0.0
1.929211 -0.007156 0.0
1.942284 -0.005917 0.0
1.952842 -0.004640 0.0
1.960820 -0.003338 0.0
1.966182 -0.002024 0.0
1.968920 -0.000714 0.0
1.969066 0.000568 0.0
1.966674 0.001824 0.0
1.961803 0.003047 0.0
1.954525 0.004230 0.0
1.944929 0.005366 0.0
1.933116 0.006447 0.0
1.919201 0.007468 0.0
1.903309 0.008424 0.0
1.885576 0.009310 0.0
1.866144 0.010122 0.0
1.845163 0.010858 0.0
1.822789 0.011516 0.0
1.799178 0.012094 0.0
1.774493 0.012591 0.0
1.748895 0.013007 0.0
1.722544 0.013343 0.0
1.695602 0.013599 0.0
1.668225 0.013778 0.0
1.640566 0.013881 0.0
1.612775 0.013910 0.0
1.584995 0.013870 0.0
1.557360 0.013765 0.0
1.529997 0.013598 0.0
1.503025 0.013375 0.0
1.476548 0.013102 0.0
1.450662 0.012784 0.0
1.425450 0.012428 0.0
1.400982 0.012040 0.0
1.377315 0.011627 0.0
1.354494 0.011194 0.0
1.332552 0.010748 0.0
1.311512 0.010293 0.0
1.291385 0.009834 0.0
1.272175 0.009376 0.0
1.253876 0.008923 0.0
1.236477 0.008477 0.0
1.219959 0.008041 0.0
1.204302 0.007617 0.0
1.189479 0.007206 0.0
1.175462 0.006811 0.0
1.162221 0.006431 0.0
1.149723 0.006067 0.0
1.137938 0.005719 0.0
1.126833 0.005387 0.0
1.116376 0.005070 0.0
1.106536 0.004769 0.0
1.097283 0.004484 0.0
1.088587 0.004212 0.0
1.080420 0.003955 0.0
1.072754 0.003711 0.0
1.065563 0.003480 0.0
1.058820 0.003262 0.0
1.052502 0.003056 0.0
1.046585 0.002861 0.0
1.041047 0.002678 0.0
1.035864 0.002505 0.0
1.031017 0.002342 0.0
1.026486 0.002189 0.0
1.022252 0.002045 0.0
1.018297 0.001910 0.0
1.014603 0.001784 0.0
1.011154 0.001665 0.0
1.007935 0.001554 0.0
1.004931 0.001450 0.0
1.002128 0.001353 0.0
0.999513 0.001262 0.0
0.997074 0.001177 0.0
0.994799 0.001098 0.0
0.992677 0.001024 0.0
0.990699 0.000955 0.0
0.988853 0.000891 0.0
0.987132 0.000831 0.0
0.985527 0.000775 0.0
0.984030 0.000723 0.0
0.982633 0.000674 0.0
0.981330 0.000629 0.0
0.980114 0.000587 0.0
0.978980 0.000548 0.0
0.977921 0.000511 0.0
0.976933 0.000477 0.0
0.976010 0.000446 0.0
0.975148 0.000416 0.0
0.974344 0.000389 0.0
0.973592 0.000363 0.0
0.972890 0.000339 0.0
0.972233 0.000317 0.0
0.971619 0.000297 0.0
0.971045 0.000277 0.0
0.970509 0.000259 0.0
0.970007 0.000243 0.0
0.969537 0.000227 0.0
0.969098 0.000212 0.0
0.968686 0.000199 0.0
0.968301 0.000186 0.0
0.967940 0.000174 0.0
0.967603 0.000163 0.0
0.967286 0.000153 0.0
0.966990 0.000143 0.0
0.966713 0.000134 0.0
0.966453 0.000126 0.0
0.966209 0.000118 0.0
0.965981 0.000110 0.0
0.965767 0.000103 0.0
0.965567 0.000097 0.0
0.965380 0.000091 0.0
0.965205 0.000085 0.0
0.965041 0.000079 0.0
0.964888 0.000074 0.0
0.964745 0.000069 0.0
0.964611 0.000064 0.0
0.964487 0.000060 0.0
0.964371 0.000056 0.0
0.964263 0.000052 0.0
0.964164 0.000048 0.0
0.964071 0.000044 0.0
0.963987 0.000041 0.0
0.963909 0.000037 0.0
0.963838 0.000034 0.0
0.963773 0.000031 0.0
0.963715 0.000027 0.0
0.963664 0.000024 0.0
0.963619 0.000021 0.0
0.963580 0.000018 0.0
0.963548 0.000014 0.0
0.963524 0.000011 0.0
0.963507 0.000007 0.0
0.963498 0.000002 0.0
0.963499 -0.000003 0.0
0.963513 -0.000010 0.0
0.963543 -0.000020 0.0
0.963596 -0.000034 0.0
0.963690 -0.000060 0.0
0.963873 -0.000122 0.0
0.964186 -0.000191 0.0
1.000254 0.000327 0.0
1.000932 0.000413 0.0
1.001892 0.000252 0.0
1.003076 -0.000026 0.0
1.004493 -0.000370 0.0
1.006158 -0.000756 0.0
1.008088 -0.001173 0.0
1.010298 -0.001617 0.0
1.012801 -0.002087 0.0
1.015614 -0.002585 0.0
1.018753 -0.003115 0.0
1.022237 -0.003687 0.0
1.026092 -0.004315 0.0
1.030352 -0.005020 0.0
1.035064 -0.005827 0.0
1.040284 -0.006760 0.0
1.046083 -0.007834 0.0
1.052538 -0.009050 0.0
1.059726 -0.010392 0.0
1.067714 -0.011828 0.0
1.076552 -0.013313 0.0
1.086269 -0.014804 0.0
1.096871 -0.016262 0.0
1.108346 -0.017662 0.0
1.120669 -0.018996 0.0
1.133814 -0.020267 0.0
1.147757 -0.021490 0.0
1.162481 -0.022685 0.0
1.177983 -0.023872 0.0
1.194270 -0.025071 0.0
1.211356 -0.026296 0.0
1.229266 -0.027556 0.0
1.248026 -0.028857 0.0
1.267665 -0.030196 0.0
1.288210 -0.031571 0.0
1.309683 -0.032975 0.0
1.332103 -0.034395 0.0
1.355479 -0.035820 0.0
1.379811 -0.037234 0.0
1.405087 -0.038619 0.0
1.431286 -0.039955 0.0
1.458369 -0.041220 0.0
1.486285 -0.042389 0.0
1.514963 -0.043438 0.0
1.544316 -0.044338 0.0
1.574240 -0.045062 0.0
1.604610 -0.045582 0.0
1.635282 -0.045871 0.0
1.666096 -0.045900 0.0
1.696872 -0.045646 0.0
1.727415 -0.045089 0.0
1.757517 -0.044209 0.0
1.786960 -0.042996 0.0
1.815521 -0.041443 0.0
1.842972 -0.039552 0.0
1.869089 -0.037329 0.0
1.893657 -0.034789 0.0
1.916471 -0.031955 0.0
1.937344 -0.028854 0.0
1.956111 -0.025521 0.0
1.972629 -0.021993 0.0
1.986784 -0.018308 0.0
1.998486 -0.014509 0.0
2.007677 -0.010637 0.0
2.014319 -0.006730 0.0
2.018401 -0.002829 0.0
2.019914 0.001025 0.0
2.018867 0.004807 0.0
2.015309 0.008493 0.0
2.009312 0.012060 0.0
2.000960 0.015484 0.0
1.990356 0.018746 0.0
1.977611 0.021829 0.0
1.962850 0.024716 0.0
1.946204 0.027396 0.0
1.927815 0.029857 0.0
1.907829 0.032091 0.0
1.886396 0.034091 0.0
1.863670 0.035855 0.0
1.839807 0.037379 0.0
1.814963 0.038663 0.0
1.789292 0.039709 0.0
1.762949 0.040519 0.0
1.736084 0.041100 0.0
1.708844 0.041457 0.0
1.681371 0.041598 0.0
1.653800 0.041533 0.0
1.626263 0.041274 0.0
1.598881 0.040833 0.0
1.571768 0.040225 0.0
1.545032 0.039465 0.0
1.518767 0.038571 0.0
1.493061 0.037559 0.0
1.467990 0.036448 0.0
1.443620 0.035256 0.0
1.420006 0.034000 0.0
1.397193 0.032696 0.0
1.375217 0.031361 0.0
1.354102 0.030008 0.0
1.333864 0.028651 0.0
1.314510 0.027301 0.0
1.296041 0.025967 0.0
1.278450 0.024658 0.0
1.261724 0.023381 0.0
1.245848 0.022141 0.0
1.230799 0.020942 0.0
1.216554 0.019786 0.0
1.203088 0.018675 0.0
1.190373 0.017611 0.0
1.178379 0.016593 0.0
1.167078 0.015622 0.0
1.156438 0.014697 0.0
1.146432 0.013816 0.0
1.137028 0.012979 0.0
1.128197 0.012185 0.0
1.119911 0.011432 0.0
1.112142 0.010720 0.0
1.104861 0.010045 0.0
1.098043 0.009408 0.0
1.091662 0.008807 0.0
1.085693 0.008240 0.0
1.080111 0.007706 0.0
1.074895 0.007204 0.0
1.070022 0.006731 0.0
1.065472 0.006288 0.0
1.061224 0.005871 0.0
1.057259 0.005481 0.0
1.053560 0.005116 0.0
1.050109 0.004773 0.0
1.046891 0.004453 0.0
1.043890 0.004154 0.0
1.041092 0.003874 0.0
1.038483 0.003613 0.0
1.036051 0.003369 0.0
1.033784 0.003142 0.0
1.031671 0.002929 0.0
1.029700 0.002732 0.0
1.027864 0.002547 0.0
1.026151 0.002376 0.0
1.024555 0.002216 0.0
1.023066 0.002067 0.0
1.021677 0.001928 0.0
1.020382 0.001799 0.0
1.019174 0.001678 0.0
1.018046 0.001566 0.0
1.016994 0.001462 0.0
1.016012 0.001365 0.0
1.015096 0.001275 0.0
1.014240 0.001191 0.0
1.013440 0.001112 0.0
1.012693 0.001039 0.0
1.011995 0.000971 0.0
1.011343 0.000908 0.0
1.010733 0.000849 0.0
1.010163 0.000794 0.0
1.009630 0.000743 0.0
1.009131 0.000695 0.0
1.008664 0.000651 0.0
1.008228 0.000609 0.0
1.007819 0.000570 0.0
1.007436 0.000534 0.0
1.007077 0.000500 0.0
1.006741 0.000468 0.0
1.006427 0.000439 0.0
1.006132 0.000411 0.0
1.005857 0.000385 0.0
1.005598 0.000361 0.0
1.005356 0.000338 0.0
1.005129 0.000316 0.0
1.004917 0.000296 0.0
1.004718 0.000277 0.0
1.004532 0.000259 0.0
1.004358 0.000243 0.0
1.004195 0.000227 0.0
1.004043 0.000212 0.0
1.003901 0.000197 0.0
1.003769 0.000184 0.0
1.003645 0.000171 0.0
1.003531 0.000159 0.0
1.003425 0.000147 0.0
1.003326 0.000136 0.0
1.003235 0.000125 0.0
1.003152 0.000114 0.0
1.003076 0.000104 0.0
1.003006 0.000094 0.0
1.002944 0.000084 0.0
1.002888 0.000075 0.0
1.002839 0.000065 0.0
1.002796 0.000055 0.0
1.002761 0.000044 0.0
1.002732 0.000033 0.0
1.002711 0.000022 0.0
1.002699 0.000008 0.0
1.002695 -0.000007 0.0
1.002701 -0.000026 0.0
1.002718 -0.000051 0.0
1.002750 -0.000087 0.0
1.002793 -0.000145 0.0
1.002826 -0.000253 0.0
1.002830 -0.000377 0.0
1.000138 -0.000064 0.0
1.000607 -0.000343 0.0
1.001419 -0.000765 0.0
1.002517 -0.001290 0.0
1.003881 -0.001886 0.0
1.005512 -0.002536 0.0
1.007418 -0.003229 0.0
1.009609 -0.003962 0.0
1.012096 -0.004734 0.0
1.014893 -0.005549 0.0
1.018016 -0.006413 0.0
1.021484 -0.007341 0.0
1.025321 -0.008354 0.0
1.029564 -0.009484 0.0
1.034259 -0.010769 0.0
1.039465 -0.012245 0.0
1.045255 -0.013937 0.0
1.051704 -0.015851 0.0
1.058890 -0.017965 0.0
1.066876 -0.020230 0.0
1.075710 -0.022583 0.0
1.085415 -0.024956 0.0
1.095994 -0.027290 0.0
1.107432 -0.029546 0.0
1.119704 -0.031708 0.0
1.132785 -0.033780 0.0
1.146651 -0.035785 0.0
1.161290 -0.037753 0.0
1.176702 -0.039717 0.0
1.192895 -0.041706 0.0
1.209889 -0.043742 0.0
1.227711 -0.045842 0.0
1.246390 -0.048010 0.0
1.265956 -0.050248 0.0
1.286441 -0.052549 0.0
1.307869 -0.054899 0.0
1.330260 -0.057282 0.0
1.353627 -0.059676 0.0
1.377972 -0.062056 0.0
1.403289 -0.064391 0.0
1.429555 -0.066649 0.0
1.456738 -0.068792 0.0
1.484785 -0.070780 0.0
1.513631 -0.072570 0.0
1.543190 -0.074117 0.0
1.573357 -0.075374 0.0
1.604009 -0.076292 0.0
1.635000 -0.076825 0.0
1.666167 -0.076927 0.0
1.697327 -0.076556 0.0
1.728282 -0.075677 0.0
1.758817 -0.074258 0.0
1.788706 -0.072280 0.0
1.817717 -0.069731 0.0
1.845614 -0.066612 0.0
1.872165 -0.062936 0.0
1.897142 -0.058727 0.0
1.920333 -0.054023 0.0
1.941545 -0.048871 0.0
1.960604 -0.043330 0.0
1.977365 -0.037463 0.0
1.991711 -0.031338 0.0
2.003552 -0.025024 0.0
2.012831 -0.018591 0.0
2.019515 -0.012103 0.0
2.023598 -0.005621 0.0
2.025100 0.000802 0.0
2.024063 0.007113 0.0
2.020545 0.013264 0.0
2.014618 0.019213 0.0
2.006374 0.024926 0.0
1.995915 0.030368 0.0
1.983355 0.035511 0.0
1.968820 0.040331 0.0
1.952440 0.044806 0.0
1.934355 0.048920 0.0
1.914711 0.052659 0.0
1.893654 0.056014 0.0
1.871334 0.058978 0.0
1.847902 0.061550 0.0
1.823508 0.063730 0.0
1.798301 0.065520 0.0
1.772425 0.066927 0.0
1.746024 0.067959 0.0
1.719234 0.068628 0.0
1.692190 0.068945 0.0
1.665017 0.068929 0.0
1.637839 0.068595 0.0
1.610768 0.067965 0.0
1.583912 0.067061 0.0
1.557371 0.065907 0.0
1.531238 0.064528 0.0
1.505595 0.062951 0.0
1.480517 0.061205 0.0
1.456070 0.059316 0.0
1.432313 0.057311 0.0
1.409293 0.055217 0.0
1.387050 0.053059 0.0
1.365614 0.050860 0.0
1.345009 0.048642 0.0
1.325249 0.046423 0.0
1.306341 0.044221 0.0
1.288288 0.042049 0.0
1.271084 0.039920 0.0
1.254719 0.037844 0.0
1.239180 0.035827 0.0
1.224449 0.033876 0.0
1.210504 0.031995 0.0
1.197323 0.030187 0.0
1.184880 0.028454 0.0
1.173148 0.026795 0.0
1.162099 0.025212 0.0
1.151705 0.023702 0.0
1.141936 0.022266 0.0
1.132763 0.020902 0.0
1.124158 0.019607 0.0
1.116091 0.018381 0.0
1.108535 0.017221 0.0
1.101462 0.016124 0.0
1.094844 0.015090 0.0
1.088657 0.014114 0.0
1.082875 0.013195 0.0
1.077474 0.012331 0.0
1.072431 0.011519 0.0
1.067724 0.010757 0.0
1.063332 0.010042 0.0
1.059235 0.009372 0.0
1.055415 0.008744 0.0
1.051852 0.008157 0.0
1.048532 0.007608 0.0
1.045436 0.007095 0.0
1.042552 0.006616 0.0
1.039863 0.006168 0.0
1.037358 0.005751 0.0
1.035023 0.005362 0.0
1.032847 0.004999 0.0
1.030820 0.004660 0.0
1.028930 0.004345 0.0
1.027169 0.004051 0.0
1.025528 0.003778 0.0
1.023998 0.003523 0.0
1.022571 0.003286 0.0
1.021240 0.003066 0.0
1.020000 0.002860 0.0
1.018842 0.002669 0.0
1.017762 0.002491 0.0
1.016755 0.002326 0.0
1.015814 0.002172 0.0
1.014936 0.002028 0.0
1.014116 0.001894 0.0
1.013350 0.001770 0.0
1.012635 0.001654 0.0
1.011966 0.001546 0.0
1.011341 0.001446 0.0
1.010757 0.001352 0.0
1.010211 0.001265 0.0
1.009700 0.001183 0.0
1.009221 0.001107 0.0
1.008774 0.001037 0.0
1.008355 0.000970 0.0
1.007963 0.000909 0.0
1.007596 0.000851 0.0
1.007253 0.000797 0.0
1.006931 0.000746 0.0
1.006629 0.000699 0.0
1.006347 0.000655 0.0
1.006082 0.000614 0.0
1.005834 0.000575 0.0
1.005602 0.000538 0.0
1.005385 0.000504 0.0
1.005181 0.000472 0.0
1.004991 0.000441 0.0
1.004813 0.000413 0.0
1.004646 0.000386 0.0
1.004490 0.000360 0.0
1.004345 0.000336 0.0
1.004209 0.000313 0.0
1.004083 0.000291 0.0
1.003965 0.000271 0.0
1.003856 0.000251 0.0
1.003755 0.000232 0.0
1.003661 0.000213 0.0
1.003575 0.000195 0.0
1.003496 0.000178 0.0
1.003424 0.000161 0.0
1.003359 0.000145 0.0
1.003301 0.000128 0.0
1.003249 0.000112 0.0
1.003204 0.000095 0.0
1.003165 0.000078 0.0
1.003133 0.000060 0.0
1.003109 0.000041 0.0
1.003091 0.000020 0.0
1.003082 -0.000005 0.0
1.003080 -0.000033 0.0
1.003086 -0.000069 0.0
1.003100 -0.000115 0.0
1.003117 -0.000177 0.0
1.003126 -0.000263 0.0
1.003117 -0.000362 0.0
1.000101 -0.000302 0.0
1.000481 -0.000954 0.0
1.001198 -0.001683 0.0
1.002214 -0.002486 0.0
1.003514 -0.003354 0.0
1.005092 -0.004277 0.0
1.006950 -0.005252 0.0
1.009096 -0.006276 0.0
1.011539 -0.007351 0.0
1.014291 -0.008482 0.0
1.017366 -0.009679 0.0
1.020784 -0.010961 0.0
1.024570 -0.012358 0.0
1.028758 -0.013912 0.0
1.033397 -0.015675 0.0
1.038547 -0.017695 0.0
1.044280 -0.020009 0.0
1.050674 -0.022623 0.0
1.057802 -0.025507 0.0
1.065727 -0.028599 0.0
1.074494 -0.031814 0.0
1.084124 -0.035060 0.0
1.094617 -0.038258 0.0
1.105957 -0.041356 0.0
1.118120 -0.044332 0.0
1.131079 -0.047195 0.0
1.144816 -0.049973 0.0
1.159321 -0.052709 0.0
1.174595 -0.055447 0.0
1.190652 -0.058227 0.0
1.207515 -0.061079 0.0
1.225214 -0.064025 0.0
1.243780 -0.067073 0.0
1.263250 -0.070222 0.0
1.283655 -0.073465 0.0
1.305026 -0.076782 0.0
1.327386 -0.080150 0.0
1.350752 -0.083540 0.0
1.375130 -0.086915 0.0
1.400517 -0.090235 0.0
1.426897 -0.093451 0.0
1.454239 -0.096513 0.0
1.482497 -0.099364 0.0
1.511606 -0.101942 0.0
1.541484 -0.104183 0.0
1.572028 -0.106019 0.0
1.603113 -0.107383 0.0
1.634594 -0.108206 0.0
1.666304 -0.108422 0.0
1.698055 -0.107972 0.0
1.729641 -0.106801 0.0
1.760838 -0.104865 0.0
1.791409 -0.102134 0.0
1.821108 -0.098589 0.0
1.849686 -0.094230 0.0
1.876894 -0.089076 0.0
1.902492 -0.083161 0.0
1.926252 -0.076540 0.0
1.947967 -0.069281 0.0
1.967457 -0.061469 0.0
1.984569 -0.053197 0.0
1.999182 -0.044563 0.0
2.011208 -0.035667 0.0
2.020590 -0.026608 0.0
2.027301 -0.017480 0.0
2.031341 -0.008368 0.0
2.032738 0.000651 0.0
2.031536 0.009503 0.0
2.027802 0.018126 0.0
2.021617 0.026462 0.0
2.013077 0.034460 0.0
2.002293 0.042076 0.0
1.989386 0.049270 0.0
1.974487 0.056008 0.0
1.957735 0.062261 0.0
1.939277 0.068007 0.0
1.919264 0.073229 0.0
1.897849 0.077915 0.0
1.875187 0.082058 0.0
1.851434 0.085656 0.0
1.826742 0.088710 0.0
1.801263 0.091227 0.0
1.775143 0.093216 0.0
1.748524 0.094690 0.0
1.721544 0.095666 0.0
1.694334 0.096162 0.0
1.667018 0.096200 0.0
1.639716 0.095805 0.0
1.612537 0.095005 0.0
1.585585 0.093828 0.0
1.558957 0.092308 0.0
1.532741 0.090477 0.0
1.507016 0.088371 0.0
1.481854 0.086025 0.0
1.457319 0.083476 0.0
1.433467 0.080760 0.0
1.410345 0.077911 0.0
1.387991 0.074963 0.0
1.366437 0.071946 0.0
1.345707 0.068892 0.0
1.325817 0.065824 0.0
1.306777 0.062768 0.0
1.288590 0.059743 0.0
1.271253 0.056767 0.0
1.254760 0.053854 0.0
1.239099 0.051017 0.0
1.224253 0.048264 0.0
1.210203 0.045602 0.0
1.196926 0.043038 0.0
1.184399 0.040574 0.0
1.172595 0.038212 0.0
1.161485 0.035954 0.0
1.151041 0.033799 0.0
1.141233 0.031746 0.0
1.132032 0.029795 0.0
1.123408 0.027944 0.0
1.115330 0.026189 0.0
1.107771 0.024529 0.0
1.100700 0.022960 0.0
1.094092 0.021480 0.0
1.087918 0.020085 0.0
1.082154 0.018771 0.0
1.076774 0.017537 0.0
1.071754 0.016377 0.0
1.067072 0.015288 0.0
1.062707 0.014268 0.0
1.058637 0.013312 0.0
1.054844 0.012418 0.0
1.051310 0.011581 0.0
1.048017 0.010799 0.0
1.044949 0.010068 0.0
1.042091 0.009386 0.0
1.039428 0.008749 0.0
1.036948 0.008155 0.0
1.034638 0.007602 0.0
1.032485 0.007086 0.0
1.030480 0.006605 0.0
1.028612 0.006158 0.0
1.026871 0.005741 0.0
1.025248 0.005353 0.0
1.023736 0.004991 0.0
1.022326 0.004655 0.0
1.021012 0.004342 0.0
1.019786 0.004051 0.0
1.018643 0.003780 0.0
1.017576 0.003527 0.0
1.016581 0.003293 0.0
1.015652 0.003074 0.0
1.014785 0.002871 0.0
1.013975 0.002681 0.0
1.013219 0.002505 0.0
1.012512 0.002341 0.0
1.011852 0.002188 0.0
1.011235 0.002046 0.0
1.010658 0.001913 0.0
1.010118 0.001790 0.0
1.009614 0.001674 0.0
1.009141 0.001567 0.0
1.008699 0.001466 0.0
1.008286 0.001373 0.0
1.007898 0.001285 0.0
1.007536 0.001204 0.0
1.007196 0.001127 0.0
1.006878 0.001056 0.0
1.006580 0.000989 0.0
1.006301 0.000927 0.0
1.006039 0.000868 0.0
1.005794 0.000813 0.0
1.005565 0.000762 0.0
1.005350 0.000713 0.0
1.005148 0.000668 0.0
1.004960 0.000625 0.0
1.004784 0.000584 0.0
1.004619 0.000546 0.0
1.004464 0.000510 0.0
1.004320 0.000476 0.0
1.004186 0.000443 0.0
1.004061 0.000413 0.0
1.003944 0.000383 0.0
1.003836 0.000355 0.0
1.003736 0.000328 0.0
1.003643 0.000303 0.0
1.003558 0.000278 0.0
1.003479 0.000253 0.0
1.003408 0.000230 0.0
1.003343 0.000206 0.0
1.003284 0.000184 0.0
1.003232 0.000161 0.0
1.003187 0.000137 0.0
1.003147 0.000114 0.0
1.003114 0.000089 0.0
1.003088 0.000063 0.0
1.003068 0.000035 0.0
1.003054 0.000004 0.0
1.003047 -0.000032 0.0
1.003045 -0.000074 0.0
1.003047 -0.000125 0.0
1.003050 -0.000186 0.0
1.003047 -0.000260 0.0
1.003034 -0.000343 0.0
1.000086 -0.000489 0.0
1.000422 -0.001484 0.0
1.001076 -0.002523 0.0
1.002028 -0.003616 0.0
1.003268 -0.004764 0.0
1.004789 -0.005967 0.0
1.006593 -0.007225 0.0
1.008684 -0.008540 0.0
1.011071 -0.009916 0.0
1.013765 -0.011361 0.0
1.016779 -0.012888 0.0
1.020131 -0.014521 0.0
1.023848 -0.016299 0.0
1.027964 -0.018275 0.0
1.032526 -0.020513 0.0
1.037595 -0.023076 0.0
1.043242 -0.026008 0.0
1.049544 -0.029318 0.0
1.056573 -0.032969 0.0
1.064392 -0.036881 0.0
1.073041 -0.040948 0.0
1.082541 -0.045055 0.0
1.092890 -0.049105 0.0
1.104073 -0.053032 0.0
1.116066 -0.056812 0.0
1.128846 -0.060455 0.0
1.142396 -0.064000 0.0
1.156709 -0.067500 0.0
1.171791 -0.071012 0.0
1.187659 -0.074587 0.0
1.204341 -0.078263 0.0
1.221868 -0.082066 0.0
1.240280 -0.086009 0.0
1.259614 -0.090090 0.0
1.279909 -0.094297 0.0
1.301197 -0.098609 0.0
1.323509 -0.102995 0.0
1.346865 -0.107418 0.0
1.371279 -0.111830 0.0
1.396754 -0.116181 0.0
1.423277 -0.120408 0.0
1.450825 -0.124446 0.0
1.479357 -0.128220 0.0
1.508812 -0.131651 0.0
1.539113 -0.134653 0.0
1.570157 -0.137138 0.0
1.601822 -0.139015 0.0
1.633960 -0.140193 0.0
1.666401 -0.140585 0.0
1.698949 -0.140108 0.0
1.731389 -0.138690 0.0
1.763484 -0.136268 0.0
1.794983 -0.132800 0.0
1.825621 -0.128260 0.0
1.855128 -0.122644 0.0
1.883234 -0.115976 0.0
1.909678 -0.108302 0.0
1.934213 -0.099693 0.0
1.956615 -0.090245 0.0
1.976689 -0.080069 0.0
1.994272 -0.069293 0.0
2.009241 -0.058049 0.0
2.021507 -0.046473 0.0
2.031019 -0.034696 0.0
2.037756 -0.022841 0.0
2.041729 -0.011020 0.0
2.042972 0.000665 0.0
2.041540 0.012123 0.0
2.037506 0.023274 0.0
2.030961 0.034045 0.0
2.022007 0.044371 0.0
2.010760 0.054196 0.0
1.997350 0.063468 0.0
1.981913 0.072145 0.0
1.964597 0.080191 0.0
1.945554 0.087578 0.0
1.924943 0.094283 0.0
1.902924 0.100295 0.0
1.879659 0.105605 0.0
1.855308 0.110212 0.0
1.830031 0.114122 0.0
1.803983 0.117342 0.0
1.777316 0.119888 0.0
1.750174 0.121778 0.0
1.722699 0.123033 0.0
1.695025 0.123680 0.0
1.667277 0.123746 0.0
1.639575 0.123264 0.0
1.612031 0.122269 0.0
1.584748 0.120798 0.0
1.557823 0.118891 0.0
1.531341 0.116591 0.0
1.505383 0.113940 0.0
1.480017 0.110983 0.0
1.455306 0.107764 0.0
1.431304 0.104327 0.0
1.408055 0.100715 0.0
1.385597 0.096970 0.0
1.363960 0.093131 0.0
1.343164 0.089233 0.0
1.323226 0.085311 0.0
1.304154 0.081394 0.0
1.285949 0.077508 0.0
1.268610 0.073677 0.0
1.252126 0.069920 0.0
1.236487 0.066252 0.0
1.221674 0.062687 0.0
1.207667 0.059236 0.0
1.194443 0.055905 0.0
1.181977 0.052700 0.0
1.170241 0.049626 0.0
1.159205 0.046685 0.0
1.148840 0.043876 0.0
1.139115 0.041201 0.0
1.129999 0.038657 0.0
1.121462 0.036243 0.0
1.113473 0.033956 0.0
1.106003 0.031792 0.0
1.099021 0.029748 0.0
1.092500 0.027821 0.0
1.086412 0.026005 0.0
1.080731 0.024297 0.0
1.075431 0.022691 0.0
1.070490 0.021184 0.0
1.065883 0.019770 0.0
1.061590 0.018445 0.0
1.057590 0.017205 0.0
1.053863 0.016045 0.0
1.050391 0.014960 0.0
1.047157 0.013946 0.0
1.044145 0.013000 0.0
1.041340 0.012117 0.0
1.038727 0.011293 0.0
1.036294 0.010525 0.0
1.034027 0.009809 0.0
1.031916 0.009142 0.0
1.029950 0.008521 0.0
1.028118 0.007943 0.0
1.026411 0.007404 0.0
1.024820 0.006903 0.0
1.023337 0.006436 0.0
1.021955 0.006002 0.0
1.020666 0.005598 0.0
1.019464 0.005222 0.0
1.018343 0.004872 0.0
1.017298 0.004547 0.0
1.016322 0.004244 0.0
1.015411 0.003962 0.0
1.014560 0.003700 0.0
1.013766 0.003456 0.0
1.013024 0.003229 0.0
1.012331 0.003017 0.0
1.011683 0.002820 0.0
1.011078 0.002637 0.0
1.010511 0.002466 0.0
1.009982 0.002306 0.0
1.009486 0.002158 0.0
1.009022 0.002019 0.0
1.008588 0.001890 0.0
1.008182 0.001769 0.0
1.007802 0.001657 0.0
1.007445 0.001551 0.0
1.007112 0.001453 0.0
1.006799 0.001361 0.0
1.006506 0.001275 0.0
1.006231 0.001195 0.0
1.005974 0.001119 0.0
1.005733 0.001048 0.0
1.005507 0.000982 0.0
1.005296 0.000919 0.0
1.005098 0.000861 0.0
1.004912 0.000805 0.0
1.004739 0.000753 0.0
1.004576 0.000704 0.0
1.004424 0.000658 0.0
1.004282 0.000614 0.0
1.004150 0.000572 0.0
1.004026 0.000533 0.0
1.003911 0.000495 0.0
1.003805 0.000459 0.0
1.003706 0.000424 0.0
1.003614 0.000391 0.0
1.003529 0.000359 0.0
1.003452 0.000328 0.0
1.003381 0.000298 0.0
1.003316 0.000268 0.0
1.003258 0.000239 0.0
1.003206 0.000209 0.0
1.003160 0.000180 0.0
1.003120 0.000150 0.0
1.003086 0.000120 0.0
1.003057 0.000087 0.0
1.003035 0.000053 0.0
1.003017 0.000016 0.0
1.003005 -0.000025 0.0
1.002997 -0.000071 0.0
1.002991 -0.000124 0.0
1.002985 -0.000184 0.0
1.002975 -0.000250 0.0
1.002960 -0.000324 0.0
1.000078 -0.000653 0.0
1.000387 -0.001965 0.0
1.000996 -0.003305 0.0
1.001896 -0.004686 0.0
1.003079 -0.006115 0.0
1.004542 -0.007599 0.0
1.006285 -0.009140 0.0
1.008314 -0.010745 0.0
1.010635 -0.012420 0.0
1.013258 -0.014175 0.0
1.016197 -0.016028 0.0
1.019470 -0.018007 0.0
1.023101 -0.020161 0.0
1.027126 -0.022553 0.0
1.031590 -0.025261 0.0
1.036554 -0.028361 0.0
1.042088 -0.031905 0.0
1.048267 -0.035903 0.0
1.055163 -0.040310 0.0
1.062833 -0.045030 0.0
1.071320 -0.049935 0.0
1.080640 -0.054889 0.0
1.090794 -0.059775 0.0
1.101765 -0.064517 0.0
1.113533 -0.069088 0.0
1.126076 -0.073502 0.0
1.139380 -0.077807 0.0
1.153445 -0.082070 0.0
1.168278 -0.086358 0.0
1.183903 -0.090734 0.0
1.200350 -0.095244 0.0
1.217658 -0.099920 0.0
1.235868 -0.104777 0.0
1.255024 -0.109813 0.0
1.275170 -0.115014 0.0
1.296346 -0.120356 0.0
1.318587 -0.125801 0.0
1.341921 -0.131303 0.0
1.366369 -0.136807 0.0
1.391940 -0.142249 0.0
1.418632 -0.147555 0.0
1.446428 -0.152643 0.0
1.475292 -0.157420 0.0
1.505174 -0.161788 0.0
1.535997 -0.165640 0.0
1.567666 -0.168864 0.0
1.600058 -0.171345 0.0
1.633024 -0.172967 0.0
1.666389 -0.173617 0.0
1.699951 -0.173187 0.0
1.733481 -0.171581 0.0
1.766727 -0.168719 0.0
1.799418 -0.164539 0.0
1.831264 -0.159005 0.0
1.861970 -0.152111 0.0
1.891237 -0.143882 0.0
1.918774 -0.134377 0.0
1.944308 -0.123687 0.0
1.967591 -0.111936 0.0
1.988410 -0.099270 0.0
2.006590 -0.085856 0.0
2.022002 -0.071867 0.0
2.034561 -0.057480 0.0
2.044222 -0.042861 0.0
2.050976 -0.028167 0.0
2.054847 -0.013537 0.0
2.055880 0.000905 0.0
2.054144 0.015051 0.0
2.049722 0.028802 0.0
2.042713 0.042072 0.0
2.033227 0.054784 0.0
2.021390 0.066867 0.0
2.007337 0.078261 0.0
1.991214 0.088912 0.0
1.973177 0.098778 0.0
1.953386 0.107824 0.0
1.932008 0.116026 0.0
1.909211 0.123368 0.0
1.885166 0.129843 0.0
1.860039 0.135452 0.0
1.833996 0.140202 0.0
1.807198 0.144108 0.0
1.779802 0.147187 0.0
1.751957 0.149465 0.0
1.723808 0.150970 0.0
1.695493 0.151733 0.0
1.667141 0.151792 0.0
1.638875 0.151186 0.0
1.610808 0.149957 0.0
1.583047 0.148153 0.0
1.555688 0.145821 0.0
1.528820 0.143012 0.0
1.502520 0.139778 0.0
1.476859 0.136172 0.0
1.451897 0.132247 0.0
1.427687 0.128056 0.0
1.404271 0.123650 0.0
1.381685 0.119079 0.0
1.359955 0.114389 0.0
1.339101 0.109624 0.0
1.319135 0.104824 0.0
1.300063 0.100026 0.0
1.281883 0.095261 0.0
1.264590 0.090557 0.0
1.248173 0.085940 0.0
1.232616 0.081429 0.0
1.217900 0.077040 0.0
1.204002 0.072788 0.0
1.190897 0.068682 0.0
1.178556 0.064730 0.0
1.166951 0.060938 0.0
1.156051 0.057309 0.0
1.145824 0.053844 0.0
1.136238 0.050544 0.0
1.127261 0.047407 0.0
1.118861 0.044430 0.0
1.111007 0.041611 0.0
1.103669 0.038946 0.0
1.096816 0.036429 0.0
1.090420 0.034057 0.0
1.084453 0.031824 0.0
1.078888 0.029724 0.0
1.073700 0.027751 0.0
1.068865 0.025900 0.0
1.064360 0.024165 0.0
1.060163 0.022540 0.0
1.056254 0.021020 0.0
1.052614 0.019598 0.0
1.049223 0.018269 0.0
1.046067 0.017028 0.0
1.043127 0.015870 0.0
1.040390 0.014789 0.0
1.037842 0.013782 0.0
1.035469 0.012843 0.0
1.033258 0.011968 0.0
1.031200 0.011153 0.0
1.029283 0.010394 0.0
1.027497 0.009688 0.0
1.025833 0.009030 0.0
1.024282 0.008418 0.0
1.022836 0.007849 0.0
1.021489 0.007319 0.0
1.020233 0.006826 0.0
1.019061 0.006367 0.0
1.017968 0.005941 0.0
1.016949 0.005544 0.0
1.015997 0.005175 0.0
1.015109 0.004831 0.0
1.014279 0.004511 0.0
1.013504 0.004214 0.0
1.012780 0.003937 0.0
1.012104 0.003679 0.0
1.011472 0.003439 0.0
1.010881 0.003215 0.0
1.010328 0.003007 0.0
1.009811 0.002812 0.0
1.009327 0.002631 0.0
1.008874 0.002462 0.0
1.008450 0.002305 0.0
1.008053 0.002158 0.0
1.007681 0.002021 0.0
1.007332 0.001892 0.0
1.007006 0.001772 0.0
1.006700 0.001660 0.0
1.006413 0.001555 0.0
1.006145 0.001457 0.0
1.005893 0.001365 0.0
1.005657 0.001279 0.0
1.005436 0.001198 0.0
1.005229 0.001122 0.0
1.005034 0.001050 0.0
1.004853 0.000983 0.0
1.004682 0.000920 0.0
1.004523 0.000860 0.0
1.004374 0.000803 0.0
1.004235 0.000750 0.0
1.004105 0.000699 0.0
1.003983 0.000651 0.0
1.003870 0.000605 0.0
1.003765 0.000561 0.0
1.003668 0.000519 0.0
1.003578 0.000478 0.0
1.003494 0.000439 0.0
1.003418 0.000402 0.0
1.003348 0.000365 0.0
1.003284 0.000329 0.0
1.003226 0.000294 0.0
1.003174 0.000259 0.0
1.003128 0.000223 0.0
1.003087 0.000188 0.0
1.003051 0.000152 0.0
1.003021 0.000114 0.0
1.002996 0.000074 0.0
1.002976 0.000033 0.0
1.002959 -0.000013 0.0
1.002946 -0.000062 0.0
1.002935 -0.000116 0.0
1.002923 -0.000174 0.0
1.002910 -0.000237 0.0
1.002893 -0.000305 0.0
1.000073 -0.000804 0.0
1.000362 -0.002412 0.0
1.000935 -0.004041 0.0
1.001789 -0.005703 0.0
1.002917 -0.007410 0.0
1.004320 -0.009170 0.0
1.005999 -0.010991 0.0
1.007957 -0.012881 0.0
1.010203 -0.014850 0.0
1.012745 -0.016910 0.0
1.015596 -0.019083 0.0
1.018774 -0.021403 0.0
1.022303 -0.023926 0.0
1.026218 -0.026727 0.0
1.030564 -0.029898 0.0
1.035400 -0.033525 0.0