# vtk DataFile Version 3.0
Vector Field
ASCII
DATASET RECTILINEAR_GRID
DIMENSIONS 200 75 1
X_COORDINATES 200 double
0.050000 0.150000 0.250000 0.350000 0.450000 0.550000 0.650000 0.750000 0.850000 0.950000 1.050000 1.150000 1.250000 1.350000 1.450000 1.550000 1.650000 1.750000 1.850000 1.950000 2.050000 2.150000 2.250000 2.350000 2.450000 2.550000 2.650000 2.750000 2.850000 2.950000 3.050000 3.150000 3.250000 3.350000 3.450000 3.550000 3.650000 3.750000 3.850000 3.950000 4.050000 4.150000 4.250000 4.350000 4.450000 4.550000 4.650000 4.750000 4.850000 4.950000 5.050000 5.150000 5.250000 5.350000 5.450000 5.550000 5.650000 5.750000 5.850000 5.950000 6.050000 6.150000 6.250000 6.350000 6.450000 6.550000 6.650000 6.750000 6.850000 6.950000 7.050000 7.150000 7.250000 7.350000 7.450000 7.550000 7.650000 7.750000 7.850000 7.950000 8.050000 8.150000 8.250000 8.350000 8.450000 8.550000 8.650000 8.750000 8.850000 8.950000 9.050000 9.150000 9.250000 9.350000 9.450000 9.550000 9.650000 9.750000 9.850000 9.950000 10.050000 10.150000 10.250000 10.350000 10.450000 10.550000 10.650000 10.750000 10.850000 10.950000 11.050000 11.150000 11.250000 11.350000 11.450000 11.550000 11.650000 11.750000 11.850000 11.950000 12.050000 12.150000 12.250000 12.350000 12.450000 12.550000 12.650000 12.750000 12.850000 12.950000 13.050000 13.150000 13.250000 13.350000 13.450000 13.550000 13.650000 13.750000 13.850000 13.950000 14.050000 14.150000 14.250000 14.350000 14.450000 14.550000 14.650000 14.750000 14.850000 14.950000 15.050000 15.150000 15.250000 15.350000 15.450000 15.550000 15.650000 15.750000 15.850000 15.950000 16.050000 16.150000 16.250000 16.350000 16.450000 16.550000 16.650000 16.750000 16.850000 16.950000 17.050000 17.150000 17.250000 17.350000 17.450000 17.550000 17.650000 17.750000 17.850000 17.950000 18.050000 18.150000 18.250000 18.350000 18.450000 18.550000 18.650000 18.750000 18.850000 18.950000 19.050000 19.150000 19.250000 19.350000 19.450000 19.550000 19.650000 19.750000 19.850000 19.950000 
Y_COORDINATES 75 double
0.050000 0.150000 0.250000 0.350000 0.450000 0.550000 0.650000 0.750000 0.850000 0.950000 1.050000 1.150000 1.250000 1.350000 1.450000 1.550000 1.650000 1.750000 1.850000 1.950000 2.050000 2.150000 2.250000 2.350000 2.450000 2.550000 2.650000 2.750000 2.850000 2.950000 3.050000 3.150000 3.250000 3.350000 3.450000 3.550000 3.650000 3.750000 3.850000 3.950000 4.050000 4.150000 4.250000 4.350000 4.450000 4.550000 4.650000 4.750000 4.850000 4.950000 5.050000 5.150000 5.250000 5.350000 5.450000 5.550000 5.650000 5.750000 5.850000 5.950000 6.050000 6.150000 6.250000 6.350000 6.450000 6.550000 6.650000 6.750000 6.850000 6.950000 7.050000 7.150000 7.250000 7.350000 7.450000 
Z_COORDINATES 1 double
0.0
POINT_DATA 15000
VECTORS Vektorfeld double
0.999712 0.000288 0.0
0.999015 0.000410 0.0
0.998225 0.000380 0.0
0.997554 0.000291 0.0
0.997088 0.000175 0.0
0.996872 0.000041 0.0
0.996934 -0.000104 0.0
0.997297 -0.000259 0.0
0.997979 -0.000423 0.0
0.998999 -0.000597 0.0
1.000375 -0.000779 0.0
1.002125 -0.000972 0.0
1.004272 -0.001175 0.0
1.006835 -0.001389 0.0
1.009839 -0.001615 0.0
1.013309 -0.001855 0.0
1.017273 -0.002108 0.0
1.021757 -0.002376 0.0
1.026794 -0.002660 0.0
1.032415 -0.002961 0.0
1.038654 -0.003278 0.0
1.045546 -0.003614 0.0
1.053128 -0.003968 0.0
1.061439 -0.004342 0.0
1.070517 -0.004736 0.0
1.080403 -0.005150 0.0
1.091136 -0.005584 0.0
1.102757 -0.006038 0.0
1.115307 -0.006512 0.0
1.128824 -0.007005 0.0
1.143346 -0.007517 0.0
1.158909 -0.008046 0.0
1.175545 -0.008590 0.0
1.193283 -0.009148 0.0
1.212147 -0.009716 0.0
1.232156 -0.010292 0.0
1.253321 -0.010872 0.0
1.275645 -0.011452 0.0
1.299124 -0.012027 0.0
1.323741 -0.012591 0.0
1.349470 -0.013138 0.0
1.376269 -0.013661 0.0
1.404085 -0.014155 0.0
1.432850 -0.014610 0.0
1.462478 -0.015019 0.0
1.492872 -0.015374 0.0
1.523914 -0.015668 0.0
1.555475 -0.015893 0.0
1.587409 -0.016041 0.0
1.619557 -0.016107 0.0
1.651750 -0.016086 0.0
1.683812 -0.015975 0.0
1.715560 -0.015773 0.0
1.746812 -0.015479 0.0
1.777386 -0.015096 0.0
1.807112 -0.014630 0.0
1.835830 -0.014087 0.0
1.863395 -0.013478 0.0
1.889684 -0.012812 0.0
1.914597 -0.012101 0.0
1.938058 -0.011360 0.0
1.960017 -0.010599 0.0
1.980450 -0.009833 0.0
1.999356 -0.009073 0.0
2.016757 -0.008328 0.0
2.032694 -0.007608 0.0
2.047222 -0.006920 0.0
2.060411 -0.006269 0.0
2.072338 -0.005658 0.0
2.083085 -0.005090 0.0
2.092741 -0.004565 0.0
2.101391 -0.004085 0.0
2.109124 -0.003648 0.0
2.116026 -0.003253 0.0
2.122179 -0.002900 0.0
2.127664 -0.002586 0.0
2.132560 -0.002310 0.0
2.136941 -0.002071 0.0
2.140879 -0.001867 0.0
2.144445 -0.001698 0.0
2.147706 -0.001563 0.0
2.150729 -0.001460 0.0
2.153578 -0.001389 0.0
2.156317 -0.001349 0.0
2.159007 -0.001341 0.0
2.161711 -0.001363 0.0
2.164489 -0.001415 0.0
2.167402 -0.001498 0.0
2.170509 -0.001610 0.0
2.173871 -0.001752 0.0
2.177545 -0.001922 0.0
2.181589 -0.002122 0.0
2.186059 -0.002348 0.0
2.191009 -0.002602 0.0
2.196491 -0.002880 0.0
2.202554 -0.003183 0.0
2.209243 -0.003506 0.0
2.216599 -0.003850 0.0
2.224658 -0.004209 0.0
2.233451 -0.004583 0.0
2.243001 -0.004967 0.0
2.253326 -0.005358 0.0
2.264436 -0.005752 0.0
2.276333 -0.006145 0.0
2.289012 -0.006533 0.0
2.302457 -0.006912 0.0
2.316646 -0.007277 0.0
2.331548 -0.007624 0.0
2.347120 -0.007949 0.0
2.363315 -0.008246 0.0
2.380075 -0.008513 0.0
2.397333 -0.008745 0.0
2.415017 -0.008938 0.0
2.433045 -0.009089 0.0
2.451329 -0.009195 0.0
2.469776 -0.009252 0.0
2.488285 -0.009257 0.0
2.506752 -0.009209 0.0
2.525066 -0.009105 0.0
2.543115 -0.008944 0.0
2.560783 -0.008724 0.0
2.577949 -0.008443 0.0
2.594495 -0.008102 0.0
2.610297 -0.007700 0.0
2.625234 -0.007237 0.0
2.639183 -0.006713 0.0
2.652024 -0.006128 0.0
2.663636 -0.005484 0.0
2.673904 -0.004783 0.0
2.682713 -0.004026 0.0
2.689953 -0.003215 0.0
2.695521 -0.002353 0.0
2.699321 -0.001447 0.0
2.701275 -0.000507 0.0
2.701333 0.000448 0.0
2.699455 0.001431 0.0
2.695582 0.002442 0.0
2.689658 0.003481 0.0
2.681631 0.004545 0.0
2.671455 0.005631 0.0
2.659088 0.006736 0.0
2.644496 0.007856 0.0
2.627651 0.008989 0.0
2.608530 0.010131 0.0
2.587118 0.011281 0.0
2.563404 0.012434 0.0
2.537383 0.013587 0.0
2.509057 0.014739 0.0
2.478434 0.015885 0.0
2.445527 0.017022 0.0
2.410357 0.018149 0.0
2.372948 0.019260 0.0
2.333332 0.020355 0.0
2.291548 0.021429 0.0
2.247640 0.022480 0.0
2.201656 0.023504 0.0
2.153652 0.024500 0.0
2.103687 0.025465 0.0
2.051826 0.026396 0.0
1.998136 0.027293 0.0
1.942690 0.028154 0.0
1.885560 0.028977 0.0
1.826822 0.029761 0.0
1.766553 0.030507 0.0
1.704833 0.031213 0.0
1.641740 0.031880 0.0
1.577355 0.032505 0.0
1.511763 0.033087 0.0
1.445050 0.033625 0.0
1.377311 0.034114 0.0
1.308648 0.034549 0.0
1.239175 0.034924 0.0
1.169021 0.035230 0.0
1.098336 0.035455 0.0
1.027294 0.035587 0.0
0.956097 0.035610 0.0
0.884981 0.035506 0.0
0.814219 0.035256 0.0
0.744130 0.034833 0.0
0.675090 0.034206 0.0
0.607558 0.033326 0.0
0.542104 0.032128 0.0
0.479451 0.030525 0.0
0.420523 0.028402 0.0
0.366536 0.025586 0.0
0.319097 0.021854 0.0
0.280153 0.017090 0.0
0.251494 0.011568 0.0
0.233874 0.006053 0.0
0.226336 0.001485 0.0
0.226276 -0.001425 0.0
0.230682 -0.002981 0.0
0.237709 -0.004047 0.0
0.246520 -0.004764 0.0
0.256415 -0.005131 0.0
0.266678 -0.005132 0.0
0.276541 -0.004731 0.0
0.285140 -0.003867 0.0
0.291467 -0.002460 0.0
0.294347 -0.000421 0.0
1.000257 0.000318 0.0
1.000946 0.000387 0.0
1.001929 0.000210 0.0
1.003147 -0.000084 0.0
1.004606 -0.000443 0.0
1.006324 -0.000843 0.0
1.008316 -0.001274 0.0
1.010597 -0.001732 0.0
1.013180 -0.002216 0.0
1.016081 -0.002725 0.0
1.019315 -0.003260 0.0
1.022896 -0.003823 0.0
1.026844 -0.004417 0.0
1.031176 -0.005042 0.0
1.035913 -0.005703 0.0
1.041076 -0.006401 0.0
1.046690 -0.007139 0.0
1.052779 -0.007919 0.0
1.059370 -0.008745 0.0
1.066492 -0.009619 0.0
1.074176 -0.010542 0.0
1.082452 -0.011518 0.0
1.091355 -0.012549 0.0
1.100919 -0.013637 0.0
1.111181 -0.014782 0.0
1.122179 -0.015986 0.0
1.133949 -0.017250 0.0
1.146531 -0.018575 0.0
1.159964 -0.019958 0.0
1.174286 -0.021399 0.0
1.189535 -0.022895 0.0
1.205748 -0.024443 0.0
1.222958 -0.026039 0.0
1.241197 -0.027676 0.0
1.260492 -0.029347 0.0
1.280866 -0.031044 0.0
1.302335 -0.032755 0.0
1.324910 -0.034468 0.0
1.348590 -0.036170 0.0
1.373368 -0.037843 0.0
1.399225 -0.039470 0.0
1.426127 -0.041031 0.0
1.454030 -0.042505 0.0
1.482875 -0.043869 0.0
1.512585 -0.045099 0.0
1.543070 -0.046172 0.0
1.574221 -0.047064 0.0
1.605917 -0.047752 0.0
1.638017 -0.048215 0.0
1.670369 -0.048434 0.0
1.702810 -0.048394 0.0
1.735165 -0.048085 0.0
1.767256 -0.047502 0.0
1.798901 -0.046646 0.0
1.829921 -0.045524 0.0
1.860144 -0.044151 0.0
1.889410 -0.042549 0.0
1.917575 -0.040745 0.0
1.944513 -0.038772 0.0
1.970124 -0.036665 0.0
1.994332 -0.034464 0.0
2.017087 -0.032208 0.0
2.038363 -0.029934 0.0
2.058163 -0.027678 0.0
2.076507 -0.025469 0.0
2.093437 -0.023334 0.0
2.109009 -0.021295 0.0
2.123292 -0.019366 0.0
2.136362 -0.017557 0.0
2.148300 -0.015877 0.0
2.159193 -0.014326 0.0
2.169124 -0.012906 0.0
2.178179 -0.011615 0.0
2.186440 -0.010449 0.0
2.193987 -0.009404 0.0
2.200897 -0.008476 0.0
2.207243 -0.007661 0.0
2.213097 -0.006954 0.0
2.218526 -0.006352 0.0
2.223597 -0.005851 0.0
2.228372 -0.005448 0.0
2.232914 -0.005140 0.0
2.237283 -0.004926 0.0
2.241536 -0.004804 0.0
2.245731 -0.004772 0.0
2.249925 -0.004830 0.0
2.254174 -0.004975 0.0
2.258532 -0.005209 0.0
2.263055 -0.005529 0.0
2.267796 -0.005935 0.0
2.272808 -0.006425 0.0
2.278144 -0.006999 0.0
2.283856 -0.007653 0.0
2.289992 -0.008384 0.0
2.296600 -0.009189 0.0
2.303726 -0.010063 0.0
2.311411 -0.011000 0.0
2.319694 -0.011995 0.0
2.328610 -0.013039 0.0
2.338187 -0.014124 0.0
2.348451 -0.015240 0.0
2.359419 -0.016378 0.0
2.371104 -0.017527 0.0
2.383512 -0.018675 0.0
2.396639 -0.019809 0.0
2.410476 -0.020919 0.0
2.425007 -0.021990 0.0
2.440205 -0.023011 0.0
2.456038 -0.023967 0.0
2.472463 -0.024848 0.0
2.489431 -0.025640 0.0
2.506885 -0.026331 0.0
2.524760 -0.026911 0.0
2.542984 -0.027369 0.0
2.561478 -0.027694 0.0
2.580157 -0.027878 0.0
2.598929 -0.027913 0.0
2.617700 -0.027791 0.0
2.636368 -0.027506 0.0
2.654829 -0.027053 0.0
2.672974 -0.026427 0.0
2.690695 -0.025626 0.0
2.707878 -0.024647 0.0
2.724410 -0.023489 0.0
2.740178 -0.022152 0.0
2.755068 -0.020637 0.0
2.768968 -0.018945 0.0
2.781769 -0.017080 0.0
2.793361 -0.015047 0.0
2.803642 -0.012851 0.0
2.812512 -0.010499 0.0
2.819875 -0.008000 0.0
2.825642 -0.005367 0.0
2.829717 -0.002615 0.0
2.831983 0.000232 0.0
2.832332 0.003176 0.0
2.830690 0.006212 0.0
2.826994 0.009331 0.0
2.821194 0.012523 0.0
2.813243 0.015781 0.0
2.803101 0.019095 0.0
2.790736 0.022455 0.0
2.776119 0.025852 0.0
2.759230 0.029278 0.0
2.740052 0.032724 0.0
2.718576 0.036181 0.0
2.694798 0.039639 0.0
2.668721 0.043090 0.0
2.640353 0.046525 0.0
2.609707 0.049934 0.0
2.576804 0.053310 0.0
2.541671 0.056642 0.0
2.504339 0.059921 0.0
2.464847 0.063139 0.0
2.423240 0.066286 0.0
2.379568 0.069354 0.0
2.333885 0.072336 0.0
2.286254 0.075225 0.0
2.236739 0.078013 0.0
2.185409 0.080696 0.0
2.132335 0.083270 0.0
2.077594 0.085731 0.0
2.021261 0.088077 0.0
1.963415 0.090306 0.0
1.904134 0.092416 0.0
1.843500 0.094405 0.0
1.781593 0.096271 0.0
1.718499 0.098008 0.0
1.654306 0.099610 0.0
1.589109 0.101065 0.0
1.523012 0.102359 0.0
1.456131 0.103469 0.0
1.388601 0.104369 0.0
1.320577 0.105025 0.0
1.252241 0.105395 0.0
1.183810 0.105430 0.0
1.115540 0.105073 0.0
1.047735 0.104256 0.0
0.980757 0.102900 0.0
0.915036 0.100900 0.0
0.851078 0.098122 0.0
0.789475 0.094389 0.0
0.730913 0.089481 0.0
0.676163 0.083123 0.0
0.626043 0.074973 0.0
0.581247 0.064701 0.0
0.542102 0.052332 0.0
0.508393 0.038693 0.0
0.479581 0.025360 0.0
0.455498 0.013799 0.0
0.437247 0.004572 0.0
0.426512 -0.002649 0.0
0.422878 -0.007773 0.0
0.423984 -0.010955 0.0
0.427924 -0.012775 0.0
0.433564 -0.013391 0.0
0.440016 -0.012787 0.0
0.446427 -0.010820 0.0
0.451835 -0.007243 0.0
0.454537 -0.001220 0.0
1.000141 -0.000079 0.0
1.000621 -0.000386 0.0
1.001456 -0.000836 0.0
1.002586 -0.001386 0.0
1.003992 -0.002007 0.0
1.005675 -0.002680 0.0
1.007641 -0.003396 0.0
1.009902 -0.004152 0.0
1.012468 -0.004946 0.0
1.015352 -0.005780 0.0
1.018568 -0.006655 0.0
1.022132 -0.007574 0.0
1.026061 -0.008542 0.0
1.030373 -0.009561 0.0
1.035087 -0.010636 0.0
1.040225 -0.011770 0.0
1.045811 -0.012969 0.0
1.051869 -0.014237 0.0
1.058426 -0.015577 0.0
1.065512 -0.016994 0.0
1.073155 -0.018493 0.0
1.081387 -0.020077 0.0
1.090244 -0.021750 0.0
1.099759 -0.023515 0.0
1.109969 -0.025375 0.0
1.120912 -0.027333 0.0
1.132626 -0.029389 0.0
1.145151 -0.031544 0.0
1.158527 -0.033797 0.0
1.172793 -0.036147 0.0
1.187989 -0.038591 0.0
1.204151 -0.041122 0.0
1.221317 -0.043735 0.0
1.239518 -0.046420 0.0
1.258786 -0.049166 0.0
1.279144 -0.051958 0.0
1.300613 -0.054779 0.0
1.323203 -0.057609 0.0
1.346919 -0.060426 0.0
1.371755 -0.063202 0.0
1.397695 -0.065907 0.0
1.424709 -0.068510 0.0
1.452753 -0.070974 0.0
1.481770 -0.073261 0.0
1.511685 -0.075332 0.0
1.542408 -0.077147 0.0
1.573831 -0.078664 0.0
1.605827 -0.079845 0.0
1.638257 -0.080652 0.0
1.670963 -0.081055 0.0
1.703775 -0.081026 0.0
1.736514 -0.080547 0.0
1.768992 -0.079609 0.0
1.801020 -0.078211 0.0
1.832409 -0.076367 0.0
1.862978 -0.074100 0.0
1.892558 -0.071446 0.0
1.920997 -0.068452 0.0
1.948164 -0.065171 0.0
1.973954 -0.061667 0.0
1.998288 -0.058005 0.0
2.021119 -0.054252 0.0
2.042423 -0.050472 0.0
2.062207 -0.046723 0.0
2.080497 -0.043058 0.0
2.097343 -0.039521 0.0
2.112807 -0.036145 0.0
2.126965 -0.032956 0.0
2.139899 -0.029971 0.0
2.151696 -0.027199 0.0
2.162446 -0.024646 0.0
2.172237 -0.022309 0.0
2.181155 -0.020186 0.0
2.189285 -0.018269 0.0
2.196708 -0.016553 0.0
2.203499 -0.015029 0.0
2.209734 -0.013690 0.0
2.215482 -0.012528 0.0
2.220811 -0.011537 0.0
2.225787 -0.010712 0.0
2.230471 -0.010047 0.0
2.234926 -0.009538 0.0
2.239210 -0.009181 0.0
2.243381 -0.008974 0.0
2.247497 -0.008913 0.0
2.251612 -0.008998 0.0
2.255784 -0.009227 0.0
2.260066 -0.009598 0.0
2.264513 -0.010110 0.0
2.269179 -0.010761 0.0
2.274118 -0.011551 0.0
2.279383 -0.012475 0.0
2.285025 -0.013530 0.0
2.291096 -0.014713 0.0
2.297643 -0.016015 0.0
2.304712 -0.017432 0.0
2.312347 -0.018952 0.0
2.320588 -0.020567 0.0
2.329470 -0.022264 0.0
2.339023 -0.024029 0.0
2.349273 -0.025848 0.0
2.360239 -0.027705 0.0
2.371936 -0.029582 0.0
2.384368 -0.031459 0.0
2.397534 -0.033318 0.0
2.411426 -0.035139 0.0
2.426026 -0.036901 0.0
2.441310 -0.038582 0.0
2.457243 -0.040162 0.0
2.473785 -0.041620 0.0
2.490885 -0.042936 0.0
2.508486 -0.044090 0.0
2.526523 -0.045064 0.0
2.544922 -0.045839 0.0
2.563604 -0.046399 0.0
2.582482 -0.046730 0.0
2.601466 -0.046817 0.0
2.620457 -0.046648 0.0
2.639354 -0.046213 0.0
2.658051 -0.045503 0.0
2.676439 -0.044511 0.0
2.694407 -0.043231 0.0
2.711842 -0.041660 0.0
2.728628 -0.039795 0.0
2.744651 -0.037637 0.0
2.759797 -0.035187 0.0
2.773951 -0.032449 0.0
2.787003 -0.029428 0.0
2.798844 -0.026132 0.0
2.809367 -0.022570 0.0
2.818472 -0.018755 0.0
2.826063 -0.014699 0.0
2.832049 -0.010421 0.0
2.836346 -0.005934 0.0
2.838883 -0.001252 0.0
2.839594 0.003600 0.0
2.838419 0.008605 0.0
2.835306 0.013746 0.0
2.830208 0.019007 0.0
2.823085 0.024372 0.0
2.813903 0.029827 0.0
2.802634 0.035356 0.0
2.789255 0.040946 0.0
2.773751 0.046579 0.0
2.756109 0.052243 0.0
2.736324 0.057922 0.0
2.714397 0.063602 0.0
2.690334 0.069267 0.0
2.664147 0.074904 0.0
2.635852 0.080496 0.0
2.605472 0.086030 0.0
2.573037 0.091490 0.0
2.538581 0.096861 0.0
2.502145 0.102127 0.0
2.463774 0.107275 0.0
2.423521 0.112291 0.0
2.381442 0.117161 0.0
2.337600 0.121873 0.0
2.292061 0.126419 0.0
2.244895 0.130787 0.0
2.196174 0.134973 0.0
2.145974 0.138970 0.0
2.094371 0.142774 0.0
2.041442 0.146384 0.0
1.987264 0.149796 0.0
1.931917 0.153008 0.0
1.875477 0.156015 0.0
1.818024 0.158811 0.0
1.759639 0.161384 0.0
1.700410 0.163717 0.0
1.640429 0.165785 0.0
1.579800 0.167552 0.0
1.518641 0.168975 0.0
1.457091 0.169994 0.0
1.395313 0.170540 0.0
1.333502 0.170527 0.0
1.271891 0.169857 0.0
1.210757 0.168411 0.0
1.150431 0.166049 0.0
1.091298 0.162606 0.0
1.033795 0.157877 0.0
0.978408 0.151624 0.0
0.925646 0.143570 0.0
0.876007 0.133422 0.0
0.829890 0.120912 0.0
0.787488 0.105959 0.0
0.748754 0.088954 0.0
0.713574 0.070960 0.0
0.682075 0.053404 0.0
0.654598 0.037316 0.0
0.631020 0.022885 0.0
0.610567 0.010227 0.0
0.593584 -0.000031 0.0
0.581588 -0.007808 0.0
0.574658 -0.012932 0.0
0.571466 -0.015681 0.0
0.570766 -0.016250 0.0
0.571541 -0.014544 0.0
0.572873 -0.010260 0.0
0.573693 -0.001724 0.0
1.000104 -0.000323 0.0
1.000495 -0.001014 0.0
1.001233 -0.001780 0.0
1.002282 -0.002619 0.0
1.003622 -0.003520 0.0
1.005250 -0.004477 0.0
1.007168 -0.005483 0.0
1.009382 -0.006539 0.0
1.011901 -0.007644 0.0
1.014737 -0.008802 0.0
1.017903 -0.010015 0.0
1.021414 -0.011289 0.0
1.025285 -0.012628 0.0
1.029536 -0.014037 0.0
1.034185 -0.015523 0.0
1.039254 -0.017091 0.0
1.044767 -0.018747 0.0
1.050748 -0.020498 0.0
1.057223 -0.022349 0.0
1.064223 -0.024307 0.0
1.071776 -0.026377 0.0
1.079916 -0.028566 0.0
1.088677 -0.030878 0.0
1.098093 -0.033319 0.0
1.108203 -0.035892 0.0
1.119044 -0.038601 0.0
1.130658 -0.041448 0.0
1.143083 -0.044435 0.0
1.156362 -0.047561 0.0
1.170535 -0.050823 0.0
1.185644 -0.054219 0.0
1.201728 -0.057741 0.0
1.218827 -0.061380 0.0
1.236975 -0.065125 0.0
1.256206 -0.068959 0.0
1.276548 -0.072864 0.0
1.298023 -0.076816 0.0
1.320648 -0.080787 0.0
1.344430 -0.084746 0.0
1.369367 -0.088655 0.0
1.395447 -0.092473 0.0
1.422643 -0.096154 0.0
1.450915 -0.099647 0.0
1.480208 -0.102898 0.0
1.510448 -0.105852 0.0
1.541547 -0.108449 0.0
1.573393 -0.110631 0.0
1.605861 -0.112342 0.0
1.638803 -0.113527 0.0
1.672058 -0.114140 0.0
1.705447 -0.114142 0.0
1.738779 -0.113503 0.0
1.771856 -0.112208 0.0
1.804474 -0.110257 0.0
1.836430 -0.107667 0.0
1.867530 -0.104470 0.0
1.897589 -0.100717 0.0
1.926445 -0.096475 0.0
1.953955 -0.091825 0.0
1.980009 -0.086857 0.0
2.004525 -0.081667 0.0
2.027456 -0.076352 0.0
2.048785 -0.071005 0.0
2.068523 -0.065712 0.0
2.086710 -0.060547 0.0
2.103403 -0.055571 0.0
2.118678 -0.050833 0.0
2.132620 -0.046367 0.0
2.145321 -0.042194 0.0
2.156876 -0.038328 0.0
2.167382 -0.034772 0.0
2.176930 -0.031522 0.0
2.185612 -0.028573 0.0
2.193514 -0.025914 0.0
2.200716 -0.023533 0.0
2.207296 -0.021421 0.0
2.213327 -0.019564 0.0
2.218880 -0.017954 0.0
2.224021 -0.016581 0.0
2.228815 -0.015437 0.0
2.233323 -0.014514 0.0
2.237605 -0.013807 0.0
2.241721 -0.013311 0.0
2.245728 -0.013021 0.0
2.249681 -0.012935 0.0
2.253637 -0.013048 0.0
2.257650 -0.013361 0.0
2.261776 -0.013871 0.0
2.266068 -0.014576 0.0
2.270582 -0.015475 0.0
2.275373 -0.016566 0.0
2.280493 -0.017845 0.0
2.285996 -0.019306 0.0
2.291934 -0.020945 0.0
2.298357 -0.022753 0.0
2.305313 -0.024720 0.0
2.312847 -0.026833 0.0
2.321001 -0.029080 0.0
2.329811 -0.031443 0.0
2.339311 -0.033903 0.0
2.349527 -0.036441 0.0
2.360480 -0.039033 0.0
2.372186 -0.041655 0.0
2.384651 -0.044282 0.0
2.397874 -0.046886 0.0
2.411848 -0.049438 0.0
2.426557 -0.051910 0.0
2.441974 -0.054273 0.0
2.458066 -0.056497 0.0
2.474791 -0.058553 0.0
2.492099 -0.060412 0.0
2.509931 -0.062047 0.0
2.528220 -0.063432 0.0
2.546892 -0.064541 0.0
2.565864 -0.065352 0.0
2.585051 -0.065843 0.0
2.604357 -0.065994 0.0
2.623683 -0.065789 0.0
2.642926 -0.065213 0.0
2.661977 -0.064253 0.0
2.680725 -0.062899 0.0
2.699058 -0.061144 0.0
2.716858 -0.058982 0.0
2.734011 -0.056411 0.0
2.750397 -0.053431 0.0
2.765902 -0.050044 0.0
2.780408 -0.046254 0.0
2.793803 -0.042070 0.0
2.805974 -0.037502 0.0
2.816814 -0.032564 0.0
2.826219 -0.027272 0.0
2.834091 -0.021645 0.0
2.840337 -0.015707 0.0
2.844873 -0.009481 0.0
2.847624 -0.002993 0.0
2.848526 0.003728 0.0
2.847524 0.010655 0.0
2.844567 0.017766 0.0
2.839613 0.025038 0.0
2.832626 0.032450 0.0
2.823577 0.039980 0.0
2.812444 0.047606 0.0
2.799209 0.055309 0.0
2.783865 0.063065 0.0
2.766409 0.070855 0.0
2.746844 0.078659 0.0
2.725182 0.086454 0.0
2.701440 0.094221 0.0
2.675640 0.101938 0.0
2.647813 0.109584 0.0
2.617996 0.117139 0.0
2.586231 0.124581 0.0
2.552569 0.131888 0.0
2.517066 0.139039 0.0
2.479784 0.146015 0.0
2.440794 0.152795 0.0
2.400169 0.159360 0.0
2.357989 0.165695 0.0
2.314339 0.171786 0.0
2.269306 0.177619 0.0
2.222982 0.183186 0.0
2.175457 0.188481 0.0
2.126826 0.193498 0.0
2.077178 0.198236 0.0
2.026606 0.202693 0.0
1.975197 0.206867 0.0
1.923036 0.210756 0.0
1.870208 0.214351 0.0
1.816795 0.217641 0.0
1.762879 0.220605 0.0
1.708545 0.223212 0.0
1.653881 0.225417 0.0
1.598987 0.227162 0.0
1.543974 0.228369 0.0
1.488972 0.228944 0.0
1.434135 0.228772 0.0
1.379645 0.227714 0.0
1.325720 0.225612 0.0
1.272614 0.222279 0.0
1.220619 0.217505 0.0
1.170052 0.211047 0.0
1.121248 0.202645 0.0
1.074523 0.192034 0.0
1.030142 0.178978 0.0
0.988260 0.163355 0.0
0.948891 0.145286 0.0
0.911959 0.125293 0.0
0.877437 0.104322 0.0
0.845483 0.083495 0.0
0.816402 0.063783 0.0
0.790519 0.045880 0.0
0.768030 0.030173 0.0
0.748564 0.016473 0.0
0.731378 0.004870 0.0
0.716835 -0.004136 0.0
0.705821 -0.010271 0.0
0.698189 -0.013328 0.0
0.693248 -0.013299 0.0
0.690387 -0.009976 0.0
0.689173 -0.001614 0.0
1.000089 -0.000516 0.0
1.000436 -0.001561 0.0
1.001111 -0.002647 0.0
1.002094 -0.003784 0.0
1.003373 -0.004975 0.0
1.004942 -0.006220 0.0
1.006802 -0.007518 0.0
1.008959 -0.008874 0.0
1.011419 -0.010288 0.0
1.014193 -0.011767 0.0
1.017293 -0.013315 0.0
1.020733 -0.014939 0.0
1.024529 -0.016645 0.0
1.028698 -0.018440 0.0
1.033261 -0.020332 0.0
1.038238 -0.022328 0.0
1.043652 -0.024437 0.0
1.049529 -0.026665 0.0
1.055894 -0.029023 0.0
1.062778 -0.031516 0.0
1.070210 -0.034154 0.0
1.078224 -0.036943 0.0
1.086854 -0.039891 0.0
1.096136 -0.043004 0.0
1.106108 -0.046288 0.0
1.116810 -0.049748 0.0
1.128283 -0.053387 0.0
1.140569 -0.057207 0.0
1.153712 -0.061209 0.0
1.167754 -0.065390 0.0
1.182739 -0.069746 0.0
1.198710 -0.074269 0.0
1.215708 -0.078949 0.0
1.233774 -0.083771 0.0
1.252944 -0.088715 0.0
1.273251 -0.093757 0.0
1.294721 -0.098869 0.0
1.317378 -0.104015 0.0
1.341232 -0.109155 0.0
1.366288 -0.114240 0.0
1.392539 -0.119218 0.0
1.419963 -0.124028 0.0
1.448524 -0.128605 0.0
1.478171 -0.132879 0.0
1.508834 -0.136774 0.0
1.540422 -0.140213 0.0
1.572827 -0.143118 0.0
1.605917 -0.145412 0.0
1.639542 -0.147023 0.0
1.673529 -0.147886 0.0
1.707691 -0.147946 0.0
1.741822 -0.147162 0.0
1.775707 -0.145511 0.0
1.809123 -0.142989 0.0
1.841848 -0.139617 0.0
1.873667 -0.135437 0.0
1.904375 -0.130517 0.0
1.933791 -0.124946 0.0
1.961761 -0.118834 0.0
1.988163 -0.112304 0.0
2.012914 -0.105486 0.0
2.035965 -0.098514 0.0
2.057308 -0.091514 0.0
2.076967 -0.084600 0.0
2.094993 -0.077872 0.0
2.111462 -0.071409 0.0
2.126464 -0.065272 0.0
2.140099 -0.059505 0.0
2.152474 -0.054132 0.0
2.163695 -0.049166 0.0
2.173865 -0.044609 0.0
2.183083 -0.040453 0.0
2.191445 -0.036686 0.0
2.199037 -0.033294 0.0
2.205944 -0.030261 0.0
2.212240 -0.027570 0.0
2.218001 -0.025207 0.0
2.223293 -0.023157 0.0
2.228183 -0.021409 0.0
2.232734 -0.019953 0.0
2.237007 -0.018779 0.0
2.241060 -0.017879 0.0
2.244953 -0.017247 0.0
2.248740 -0.016878 0.0
2.252477 -0.016768 0.0
2.256219 -0.016913 0.0
2.260021 -0.017311 0.0
2.263936 -0.017962 0.0
2.268021 -0.018863 0.0
2.272330 -0.020012 0.0
2.276919 -0.021408 0.0
2.281843 -0.023046 0.0
2.287156 -0.024921 0.0
2.292914 -0.027025 0.0
2.299166 -0.029349 0.0
2.305965 -0.031879 0.0
2.313358 -0.034601 0.0
2.321388 -0.037496 0.0
2.330095 -0.040544 0.0
2.339515 -0.043721 0.0
2.349677 -0.047001 0.0
2.360604 -0.050354 0.0
2.372312 -0.053748 0.0
2.384810 -0.057152 0.0
2.398099 -0.060529 0.0
2.412171 -0.063842 0.0
2.427011 -0.067055 0.0
2.442594 -0.070128 0.0
2.458885 -0.073025 0.0
2.475841 -0.075707 0.0
2.493412 -0.078137 0.0
2.511536 -0.080279 0.0
2.530146 -0.082099 0.0
2.549164 -0.083564 0.0
2.568508 -0.084645 0.0
2.588086 -0.085314 0.0
2.607802 -0.085545 0.0
2.627555 -0.085317 0.0
2.647237 -0.084610 0.0
2.666738 -0.083408 0.0
2.685945 -0.081699 0.0
2.704740 -0.079472 0.0
2.723005 -0.076721 0.0
2.740622 -0.073442 0.0
2.757471 -0.069636 0.0
2.773432 -0.065304 0.0
2.788387 -0.060455 0.0
2.802220 -0.055096 0.0
2.814816 -0.049243 0.0
2.826065 -0.042912 0.0
2.835859 -0.036123 0.0
2.844098 -0.028904 0.0
2.850685 -0.021282 0.0
2.855534 -0.013291 0.0
2.858568 -0.004968 0.0
2.859723 0.003646 0.0
2.858943 0.012519 0.0
2.856182 0.021621 0.0
2.851397 0.030922 0.0
2.844554 0.040396 0.0
2.835623 0.050014 0.0
2.824583 0.059747 0.0
2.811418 0.069567 0.0
2.796122 0.079447 0.0
2.778694 0.089358 0.0
2.759140 0.099274 0.0
2.737475 0.109166 0.0
2.713719 0.119007 0.0
2.687901 0.128769 0.0
2.660057 0.138424 0.0
2.630232 0.147942 0.0
2.598477 0.157297 0.0
2.564853 0.166458 0.0
2.529430 0.175396 0.0
2.492284 0.184085 0.0
2.453502 0.192497 0.0
2.413178 0.200607 0.0
2.371413 0.208393 0.0
2.328315 0.215836 0.0
2.283997 0.222919 0.0
2.238576 0.229631 0.0
2.192173 0.235964 0.0
2.144909 0.241912 0.0
2.096903 0.247475 0.0
2.048275 0.252655 0.0
1.999138 0.257452 0.0
1.949603 0.261867 0.0
1.899774 0.265897 0.0
1.849750 0.269533 0.0
1.799625 0.272755 0.0
1.749487 0.275534 0.0
1.699424 0.277821 0.0
1.649524 0.279552 0.0
1.599879 0.280638 0.0
1.550587 0.280969 0.0
1.501761 0.280410 0.0
1.453530 0.278797 0.0
1.406039 0.275944 0.0
1.359457 0.271635 0.0
1.313968 0.265634 0.0
1.269763 0.257689 0.0
1.227027 0.247544 0.0
1.185915 0.234971 0.0
1.146524 0.219813 0.0
1.108872 0.202055 0.0
1.072908 0.181920 0.0
1.038559 0.159940 0.0
1.005831 0.136925 0.0
0.974863 0.113814 0.0
0.945917 0.091491 0.0
0.919302 0.070671 0.0
0.895297 0.051875 0.0
0.874092 0.035442 0.0
0.855679 0.021499 0.0
0.839581 0.009875 0.0
0.825432 0.000881 0.0
0.813702 -0.005118 0.0
0.804897 -0.007763 0.0
0.799026 -0.006780 0.0
0.796194 -0.000763 0.0
1.000081 -0.000685 0.0
1.000400 -0.002057 0.0
1.001029 -0.003454 0.0
1.001958 -0.004889 0.0
1.003179 -0.006370 0.0
1.004688 -0.007903 0.0
1.006485 -0.009493 0.0
1.008575 -0.011146 0.0
1.010965 -0.012866 0.0
1.013663 -0.014662 0.0
1.016682 -0.016540 0.0
1.020035 -0.018508 0.0
1.023738 -0.020575 0.0
1.027806 -0.022749 0.0
1.032261 -0.025040 0.0
1.037122 -0.027458 0.0
1.042413 -0.030012 0.0
1.048159 -0.032712 0.0
1.054386 -0.035569 0.0
1.061124 -0.038591 0.0
1.068403 -0.041790 0.0
1.076257 -0.045174 0.0
1.084721 -0.048753 0.0
1.093832 -0.052535 0.0
1.103628 -0.056527 0.0
1.114152 -0.060735 0.0
1.125445 -0.065166 0.0
1.137551 -0.069821 0.0
1.150516 -0.074703 0.0
1.164385 -0.079808 0.0
1.179206 -0.085134 0.0
1.195025 -0.090671 0.0
1.211888 -0.096408 0.0
1.229838 -0.102328 0.0
1.248917 -0.108407 0.0
1.269165 -0.114619 0.0
1.290615 -0.120928 0.0
1.313294 -0.127292 0.0
1.337222 -0.133661 0.0
1.362410 -0.139978 0.0
1.388857 -0.146177 0.0
1.416549 -0.152185 0.0
1.445457 -0.157918 0.0
1.475534 -0.163290 0.0
1.506713 -0.168205 0.0
1.538908 -0.172565 0.0
1.572007 -0.176270 0.0
1.605877 -0.179221 0.0
1.640360 -0.181323 0.0
1.675275 -0.182490 0.0
1.710419 -0.182648 0.0
1.745569 -0.181741 0.0
1.780488 -0.179736 0.0
1.814930 -0.176623 0.0
1.848645 -0.172424 0.0
1.881388 -0.167192 0.0
1.912930 -0.161012 0.0
1.943064 -0.154002 0.0
1.971618 -0.146302 0.0
1.998455 -0.138076 0.0
2.023488 -0.129497 0.0
2.046671 -0.120739 0.0
2.068006 -0.111967 0.0
2.087533 -0.103332 0.0
2.105325 -0.094958 0.0
2.121480 -0.086946 0.0
2.136109 -0.079367 0.0
2.149334 -0.072271 0.0
2.161277 -0.065684 0.0
2.172059 -0.059617 0.0
2.181794 -0.054063 0.0
2.190589 -0.049012 0.0
2.198543 -0.044442 0.0
2.205745 -0.040333 0.0
2.212279 -0.036662 0.0
2.218220 -0.033407 0.0
2.223641 -0.030550 0.0
2.228608 -0.028073 0.0
2.233184 -0.025960 0.0
2.237432 -0.024201 0.0
2.241411 -0.022783 0.0
2.245179 -0.021697 0.0
2.248792 -0.020935 0.0
2.252304 -0.020491 0.0
2.255771 -0.020360 0.0
2.259246 -0.020538 0.0
2.262781 -0.021024 0.0
2.266433 -0.021816 0.0
2.270255 -0.022915 0.0
2.274303 -0.024318 0.0
2.278635 -0.026023 0.0
2.283308 -0.028027 0.0
2.288377 -0.030324 0.0
2.293900 -0.032903 0.0
2.299932 -0.035755 0.0
2.306525 -0.038864 0.0
2.313730 -0.042213 0.0
2.321595 -0.045778 0.0
2.330162 -0.049536 0.0
2.339470 -0.053457 0.0
2.349550 -0.057507 0.0
2.360429 -0.061653 0.0
2.372125 -0.065854 0.0
2.384649 -0.070069 0.0
2.398003 -0.074255 0.0
2.412181 -0.078366 0.0
2.427166 -0.082356 0.0
2.442935 -0.086178 0.0
2.459452 -0.089783 0.0
2.476674 -0.093126 0.0
2.494546 -0.096160 0.0
2.513008 -0.098841 0.0
2.531987 -0.101125 0.0
2.551405 -0.102974 0.0
2.571174 -0.104349 0.0
2.591202 -0.105216 0.0
2.611388 -0.105545 0.0
2.631627 -0.105308 0.0
2.651809 -0.104482 0.0
2.671820 -0.103048 0.0
2.691543 -0.100989 0.0
2.710860 -0.098293 0.0
2.729649 -0.094954 0.0
2.747788 -0.090966 0.0
2.765158 -0.086330 0.0
2.781634 -0.081048 0.0
2.797099 -0.075130 0.0
2.811433 -0.068587 0.0
2.824519 -0.061435 0.0
2.836244 -0.053694 0.0
2.846499 -0.045391 0.0
2.855179 -0.036555 0.0
2.862185 -0.027224 0.0
2.867425 -0.017438 0.0
2.870819 -0.007248 0.0
2.872299 0.003291 0.0
2.871813 0.014139 0.0
2.869315 0.025260 0.0
2.864764 0.036619 0.0
2.858124 0.048183 0.0
2.849365 0.059916 0.0
2.838466 0.071783 0.0
2.825411 0.083749 0.0
2.810193 0.095779 0.0
2.792812 0.107836 0.0
2.773274 0.119888 0.0
2.751593 0.131899 0.0
2.727790 0.143833 0.0
2.701896 0.155656 0.0
2.673946 0.167330 0.0
2.643988 0.178820 0.0
2.612076 0.190086 0.0
2.578275 0.201092 0.0
2.542661 0.211799 0.0
2.505318 0.222170 0.0
2.466344 0.232168 0.0
2.425845 0.241759 0.0
2.383939 0.250913 0.0
2.340753 0.259601 0.0
2.296422 0.267803 0.0
2.251088 0.275502 0.0
2.204899 0.282685 0.0
2.158006 0.289348 0.0
2.110560 0.295490 0.0
2.062713 0.301115 0.0
2.014612 0.306229 0.0
1.966399 0.310837 0.0
1.918210 0.314945 0.0
1.870170 0.318549 0.0
1.822398 0.321638 0.0
1.775000 0.324188 0.0
1.728074 0.326156 0.0
1.681711 0.327480 0.0
1.635996 0.328071 0.0
1.591009 0.327815 0.0
1.546829 0.326569 0.0
1.503540 0.324159 0.0
1.461226 0.320386 0.0
1.419976 0.315025 0.0
1.379877 0.307833 0.0
1.341009 0.298563 0.0
1.303435 0.286981 0.0
1.267182 0.272900 0.0
1.232235 0.256223 0.0
1.198530 0.237001 0.0
1.165975 0.215493 0.0
1.134498 0.192193 0.0
1.104100 0.167799 0.0
1.074891 0.143116 0.0
1.047086 0.118939 0.0
1.020958 0.095965 0.0
0.996788 0.074756 0.0
0.974822 0.055732 0.0
0.955250 0.039194 0.0
0.938191 0.025337 0.0
0.923581 0.014177 0.0
0.911145 0.005752 0.0
0.900914 0.000403 0.0