# vtk DataFile Version 3.0
Vector Field
ASCII
DATASET RECTILINEAR_GRID
DIMENSIONS 200 75 1
X_COORDINATES 200 double
0.050000 0.150000 0.250000 0.350000 0.450000 0.550000 0.650000 0.750000 0.850000 0.950000 1.050000 1.150000 1.250000 1.350000 1.450000 1.550000 1.650000 1.750000 1.850000 1.950000 2.050000 2.150000 2.250000 2.350000 2.450000 2.550000 2.650000 2.750000 2.850000 2.950000 3.050000 3.150000 3.250000 3.350000 3.450000 3.550000 3.650000 3.750000 3.850000 3.950000 4.050000 4.150000 4.250000 4.350000 4.450000 4.550000 4.650000 4.750000 4.850000 4.950000 5.050000 5.150000 5.250000 5.350000 5.450000 5.550000 5.650000 5.750000 5.850000 5.950000 6.050000 6.150000 6.250000 6.350000 6.450000 6.550000 6.650000 6.750000 6.850000 6.950000 7.050000 7.150000 7.250000 7.350000 7.450000 7.550000 7.650000 7.750000 7.850000 7.950000 8.050000 8.150000 8.250000 8.350000 8.450000 8.550000 8.650000 8.750000 8.850000 8.950000 9.050000 9.150000 9.250000 9.350000 9.450000 9.550000 9.650000 9.750000 9.850000 9.950000 10.050000 10.150000 10.250000 10.350000 10.450000 10.550000 10.650000 10.750000 10.850000 10.950000 11.050000 11.150000 11.250000 11.350000 11.450000 11.550000 11.650000 11.750000 11.850000 11.950000 12.050000 12.150000 12.250000 12.350000 12.450000 12.550000 12.650000 12.750000 12.850000 12.950000 13.050000 13.150000 13.250000 13.350000 13.450000 13.550000 13.650000 13.750000 13.850000 13.950000 14.050000 14.150000 14.250000 14.350000 14.450000 14.550000 14.650000 14.750000 14.850000 14.950000 15.050000 15.150000 15.250000 15.350000 15.450000 15.550000 15.650000 15.750000 15.850000 15.950000 16.050000 16.150000 16.250000 16.350000 16.450000 16.550000 16.650000 16.750000 16.850000 16.950000 17.050000 17.150000 17.250000 17.350000 17.450000 17.550000 17.650000 17.750000 17.850000 17.950000 18.050000 18.150000 18.250000 18.350000 18.450000 18.550000 18.650000 18.750000 18.850000 18.950000 19.050000 19.150000 19.250000 19.350000 19.450000 19.550000 19.650000 19.750000 19.850000 19.950000 
Y_COORDINATES 75 double
0.050000 0.150000 0.250000 0.350000 0.450000 0.550000 0.650000 0.750000 0.850000 0.950000 1.050000 1.150000 1.250000 1.350000 1.450000 1.550000 1.650000 1.750000 1.850000 1.950000 2.050000 2.150000 2.250000 2.350000 2.450000 2.550000 2.650000 2.750000 2.850000 2.950000 3.050000 3.150000 3.250000 3.350000 3.450000 3.550000 3.650000 3.750000 3.850000 3.950000 4.050000 4.150000 4.250000 4.350000 4.450000 4.550000 4.650000 4.750000 4.850000 4.950000 5.050000 5.150000 5.250000 5.350000 5.450000 5.550000 5.650000 5.750000 5.850000 5.950000 6.050000 6.150000 6.250000 6.350000 6.450000 6.550000 6.650000 6.750000 6.850000 6.950000 7.050000 7.150000 7.250000 7.350000 7.450000 
Z_COORDINATES 1 double
0.0
POINT_DATA 15000
VECTORS Vektorfeld double
0.999730 0.000270 0.0
0.999104 0.000356 0.0
0.998461 0.000288 0.0
0.998013 0.000160 0.0
0.997852 0.000001 0.0
0.998027 -0.000175 0.0
0.998567 -0.000365 0.0
0.999499 -0.000566 0.0
1.000841 -0.000777 0.0
1.002616 -0.000998 0.0
1.004843 -0.001229 0.0
1.007544 -0.001471 0.0
1.010739 -0.001724 0.0
1.014453 -0.001989 0.0
1.018710 -0.002267 0.0
1.023535 -0.002558 0.0
1.028956 -0.002863 0.0
1.035001 -0.003183 0.0
1.041702 -0.003518 0.0
1.049089 -0.003869 0.0
1.057196 -0.004238 0.0
1.066057 -0.004624 0.0
1.075708 -0.005028 0.0
1.086186 -0.005450 0.0
1.097527 -0.005892 0.0
1.109771 -0.006352 0.0
1.122955 -0.006832 0.0
1.137117 -0.007330 0.0
1.152294 -0.007847 0.0
1.168524 -0.008382 0.0
1.185840 -0.008934 0.0
1.204275 -0.009501 0.0
1.223858 -0.010082 0.0
1.244613 -0.010674 0.0
1.266561 -0.011274 0.0
1.289716 -0.011880 0.0
1.314083 -0.012487 0.0
1.339662 -0.013091 0.0
1.366441 -0.013687 0.0
1.394397 -0.014269 0.0
1.423496 -0.014830 0.0
1.453691 -0.015364 0.0
1.484919 -0.015863 0.0
1.517102 -0.016320 0.0
1.550147 -0.016725 0.0
1.583943 -0.017071 0.0
1.618364 -0.017350 0.0
1.653267 -0.017554 0.0
1.688496 -0.017675 0.0
1.723878 -0.017708 0.0
1.759233 -0.017647 0.0
1.794371 -0.017491 0.0
1.829098 -0.017236 0.0
1.863218 -0.016885 0.0
1.896542 -0.016440 0.0
1.928888 -0.015906 0.0
1.960088 -0.015293 0.0
1.989992 -0.014610 0.0
2.018471 -0.013869 0.0
2.045422 -0.013083 0.0
2.070770 -0.012265 0.0
2.094465 -0.011430 0.0
2.116486 -0.010592 0.0
2.136840 -0.009762 0.0
2.155553 -0.008951 0.0
2.172673 -0.008169 0.0
2.188266 -0.007424 0.0
2.202409 -0.006719 0.0
2.215186 -0.006059 0.0
2.226689 -0.005445 0.0
2.237012 -0.004878 0.0
2.246246 -0.004356 0.0
2.254480 -0.003879 0.0
2.261802 -0.003442 0.0
2.268288 -0.003044 0.0
2.274014 -0.002681 0.0
2.279044 -0.002349 0.0
2.283435 -0.002043 0.0
2.287237 -0.001760 0.0
2.290492 -0.001495 0.0
2.293233 -0.001245 0.0
2.295484 -0.001006 0.0
2.297263 -0.000773 0.0
2.298581 -0.000544 0.0
2.299441 -0.000316 0.0
2.299846 -0.000089 0.0
2.299797 0.000138 0.0
2.299288 0.000370 0.0
2.298310 0.000609 0.0
2.296845 0.000856 0.0
2.294879 0.001111 0.0
2.292395 0.001373 0.0
2.289377 0.001644 0.0
2.285810 0.001923 0.0
2.281679 0.002209 0.0
2.276968 0.002502 0.0
2.271661 0.002805 0.0
2.265741 0.003116 0.0
2.259186 0.003439 0.0
2.251974 0.003773 0.0
2.244078 0.004122 0.0
2.235469 0.004487 0.0
2.226115 0.004868 0.0
2.215980 0.005267 0.0
2.205029 0.005683 0.0
2.193229 0.006116 0.0
2.180549 0.006564 0.0
2.166964 0.007022 0.0
2.152456 0.007486 0.0
2.137020 0.007951 0.0
2.120661 0.008408 0.0
2.103402 0.008851 0.0
2.085281 0.009270 0.0
2.066357 0.009655 0.0
2.046705 0.009997 0.0
2.026420 0.010288 0.0
2.005615 0.010517 0.0
1.984419 0.010678 0.0
1.962976 0.010764 0.0
1.941443 0.010769 0.0
1.919986 0.010689 0.0
1.898776 0.010521 0.0
1.877991 0.010264 0.0
1.857807 0.009919 0.0
1.838401 0.009487 0.0
1.819942 0.008971 0.0
1.802597 0.008374 0.0
1.786522 0.007701 0.0
1.771864 0.006957 0.0
1.758761 0.006147 0.0
1.747338 0.005276 0.0
1.737713 0.004349 0.0
1.729993 0.003371 0.0
1.724283 0.002339 0.0
1.720713 0.001232 0.0
1.719474 0.000007 0.0
1.720757 -0.001290 0.0
1.724658 -0.002610 0.0
1.731201 -0.003933 0.0
1.740380 -0.005247 0.0
1.752171 -0.006545 0.0
1.766539 -0.007823 0.0
1.783437 -0.009075 0.0
1.802809 -0.010297 0.0
1.824590 -0.011485 0.0
1.848709 -0.012634 0.0
1.875080 -0.013738 0.0
1.903612 -0.014793 0.0
1.934197 -0.015792 0.0
1.966719 -0.016729 0.0
2.001046 -0.017598 0.0
2.037036 -0.018392 0.0
2.074531 -0.019104 0.0
2.113366 -0.019730 0.0
2.153361 -0.020265 0.0
2.194330 -0.020704 0.0
2.236080 -0.021046 0.0
2.278413 -0.021287 0.0
2.321127 -0.021427 0.0
2.364023 -0.021468 0.0
2.406899 -0.021409 0.0
2.449560 -0.021253 0.0
2.491815 -0.021002 0.0
2.533478 -0.020661 0.0
2.574370 -0.020231 0.0
2.614320 -0.019719 0.0
2.653165 -0.019126 0.0
2.690748 -0.018458 0.0
2.726925 -0.017718 0.0
2.761555 -0.016912 0.0
2.794509 -0.016042 0.0
2.825666 -0.015115 0.0
2.854914 -0.014133 0.0
2.882151 -0.013104 0.0
2.907285 -0.012030 0.0
2.930236 -0.010920 0.0
2.950932 -0.009777 0.0
2.969319 -0.008610 0.0
2.985352 -0.007424 0.0
2.999003 -0.006227 0.0
3.010258 -0.005028 0.0
3.019121 -0.003835 0.0
3.025615 -0.002659 0.0
3.029794 -0.001519 0.0
3.031761 -0.000448 0.0
3.031667 0.000542 0.0
3.029659 0.001466 0.0
3.025868 0.002325 0.0
3.020432 0.003112 0.0
3.013498 0.003822 0.0
3.005226 0.004450 0.0
2.995787 0.004989 0.0
2.985365 0.005433 0.0
2.974156 0.005776 0.0
2.962370 0.006010 0.0
2.950234 0.006125 0.0
2.938006 0.006103 0.0
2.925995 0.005908 0.0
2.914628 0.005459 0.0
2.904954 0.004215 0.0
1.000274 0.000266 0.0
1.001035 0.000224 0.0
1.002164 -0.000066 0.0
1.003606 -0.000480 0.0
1.005368 -0.000961 0.0
1.007470 -0.001489 0.0
1.009930 -0.002052 0.0
1.012764 -0.002644 0.0
1.015988 -0.003266 0.0
1.019618 -0.003915 0.0
1.023672 -0.004593 0.0
1.028167 -0.005302 0.0
1.033120 -0.006043 0.0
1.038553 -0.006817 0.0
1.044485 -0.007628 0.0
1.050940 -0.008477 0.0
1.057941 -0.009366 0.0
1.065515 -0.010298 0.0
1.073687 -0.011275 0.0
1.082488 -0.012300 0.0
1.091947 -0.013373 0.0
1.102096 -0.014498 0.0
1.112968 -0.015676 0.0
1.124598 -0.016909 0.0
1.137021 -0.018197 0.0
1.150274 -0.019543 0.0
1.164393 -0.020945 0.0
1.179418 -0.022403 0.0
1.195384 -0.023918 0.0
1.212328 -0.025486 0.0
1.230288 -0.027105 0.0
1.249295 -0.028772 0.0
1.269383 -0.030481 0.0
1.290579 -0.032226 0.0
1.312906 -0.033998 0.0
1.336385 -0.035789 0.0
1.361025 -0.037587 0.0
1.386833 -0.039378 0.0
1.413803 -0.041149 0.0
1.441920 -0.042881 0.0
1.471157 -0.044555 0.0
1.501474 -0.046151 0.0
1.532817 -0.047647 0.0
1.565117 -0.049019 0.0
1.598287 -0.050241 0.0
1.632226 -0.051290 0.0
1.666812 -0.052139 0.0
1.701912 -0.052767 0.0
1.737373 -0.053150 0.0
1.773028 -0.053271 0.0
1.808702 -0.053113 0.0
1.844206 -0.052667 0.0
1.879348 -0.051929 0.0
1.913936 -0.050900 0.0
1.947778 -0.049590 0.0
1.980692 -0.048016 0.0
2.012510 -0.046201 0.0
2.043080 -0.044176 0.0
2.072273 -0.041976 0.0
2.099986 -0.039640 0.0
2.126142 -0.037211 0.0
2.150692 -0.034730 0.0
2.173616 -0.032238 0.0
2.194920 -0.029773 0.0
2.214634 -0.027367 0.0
2.232806 -0.025047 0.0
2.249502 -0.022835 0.0
2.264800 -0.020747 0.0
2.278785 -0.018793 0.0
2.291549 -0.016977 0.0
2.303183 -0.015301 0.0
2.313779 -0.013762 0.0
2.323426 -0.012354 0.0
2.332206 -0.011069 0.0
2.340198 -0.009897 0.0
2.347473 -0.008829 0.0
2.354095 -0.007852 0.0
2.360120 -0.006955 0.0
2.365597 -0.006126 0.0
2.370566 -0.005353 0.0
2.375060 -0.004623 0.0
2.379105 -0.003924 0.0
2.382717 -0.003246 0.0
2.385906 -0.002578 0.0
2.388676 -0.001912 0.0
2.391020 -0.001242 0.0
2.392922 -0.000561 0.0
2.394363 0.000137 0.0
2.395329 0.000856 0.0
2.395802 0.001600 0.0
2.395767 0.002368 0.0
2.395207 0.003160 0.0
2.394107 0.003975 0.0
2.392452 0.004813 0.0
2.390228 0.005674 0.0
2.387419 0.006557 0.0
2.384011 0.007465 0.0
2.379987 0.008401 0.0
2.375327 0.009369 0.0
2.370007 0.010374 0.0
2.364002 0.011422 0.0
2.357282 0.012516 0.0
2.349813 0.013662 0.0
2.341560 0.014861 0.0
2.332487 0.016113 0.0
2.322557 0.017416 0.0
2.311738 0.018763 0.0
2.300002 0.020143 0.0
2.287330 0.021544 0.0
2.273715 0.022945 0.0
2.259160 0.024327 0.0
2.243687 0.025664 0.0
2.227334 0.026930 0.0
2.210158 0.028095 0.0
2.192235 0.029132 0.0
2.173661 0.030012 0.0
2.154550 0.030709 0.0
2.135032 0.031200 0.0
2.115254 0.031464 0.0
2.095372 0.031484 0.0
2.075556 0.031248 0.0
2.055978 0.030749 0.0
2.036816 0.029983 0.0
2.018249 0.028951 0.0
2.000452 0.027658 0.0
1.983598 0.026113 0.0
1.967850 0.024325 0.0
1.953366 0.022309 0.0
1.940291 0.020081 0.0
1.928762 0.017655 0.0
1.918903 0.015048 0.0
1.910829 0.012276 0.0
1.904642 0.009351 0.0
1.900431 0.006279 0.0
1.898246 0.003047 0.0
1.898044 -0.000366 0.0
1.899742 -0.003899 0.0
1.903331 -0.007492 0.0
1.908850 -0.011112 0.0
1.916343 -0.014739 0.0
1.925856 -0.018357 0.0
1.937428 -0.021952 0.0
1.951096 -0.025511 0.0
1.966887 -0.029024 0.0
1.984821 -0.032474 0.0
2.004906 -0.035847 0.0
2.027134 -0.039125 0.0
2.051483 -0.042287 0.0
2.077912 -0.045313 0.0
2.106359 -0.048178 0.0
2.136744 -0.050860 0.0
2.168961 -0.053336 0.0
2.202889 -0.055583 0.0
2.238384 -0.057581 0.0
2.275287 -0.059312 0.0
2.313422 -0.060762 0.0
2.352604 -0.061919 0.0
2.392635 -0.062777 0.0
2.433316 -0.063332 0.0
2.474441 -0.063583 0.0
2.515806 -0.063534 0.0
2.557209 -0.063191 0.0
2.598451 -0.062561 0.0
2.639341 -0.061655 0.0
2.679694 -0.060483 0.0
2.719334 -0.059057 0.0
2.758092 -0.057390 0.0
2.795810 -0.055495 0.0
2.832338 -0.053386 0.0
2.867538 -0.051074 0.0
2.901278 -0.048575 0.0
2.933440 -0.045901 0.0
2.963913 -0.043069 0.0
2.992600 -0.040093 0.0
3.019414 -0.036989 0.0
3.044280 -0.033777 0.0
3.067136 -0.030473 0.0
3.087935 -0.027099 0.0
3.106644 -0.023676 0.0
3.123246 -0.020227 0.0
3.137740 -0.016777 0.0
3.150142 -0.013351 0.0
3.160484 -0.009980 0.0
3.168806 -0.006700 0.0
3.175128 -0.003557 0.0
3.179457 -0.000584 0.0
3.181847 0.002211 0.0
3.182405 0.004813 0.0
3.181263 0.007202 0.0
3.178569 0.009361 0.0
3.174481 0.011272 0.0
3.169169 0.012917 0.0
3.162816 0.014279 0.0
3.155616 0.015339 0.0
3.147773 0.016076 0.0
3.139506 0.016462 0.0
3.131046 0.016456 0.0
3.122632 0.015979 0.0
3.114480 0.014907 0.0
3.106749 0.012172 0.0
1.000158 -0.000166 0.0
1.000710 -0.000656 0.0
1.001690 -0.001296 0.0
1.003041 -0.002043 0.0
1.004748 -0.002868 0.0
1.006814 -0.003751 0.0
1.009247 -0.004683 0.0
1.012059 -0.005660 0.0
1.015265 -0.006680 0.0
1.018877 -0.007744 0.0
1.022913 -0.008854 0.0
1.027388 -0.010011 0.0
1.032321 -0.011220 0.0
1.037731 -0.012482 0.0
1.043638 -0.013803 0.0
1.050066 -0.015184 0.0
1.057036 -0.016631 0.0
1.064576 -0.018147 0.0
1.072712 -0.019735 0.0
1.081473 -0.021401 0.0
1.090888 -0.023147 0.0
1.100991 -0.024976 0.0
1.111813 -0.026893 0.0
1.123391 -0.028899 0.0
1.135759 -0.030998 0.0
1.148955 -0.033191 0.0
1.163017 -0.035478 0.0
1.177982 -0.037860 0.0
1.193890 -0.040335 0.0
1.210778 -0.042902 0.0
1.228684 -0.045555 0.0
1.247642 -0.048289 0.0
1.267687 -0.051097 0.0
1.288849 -0.053967 0.0
1.311153 -0.056888 0.0
1.334620 -0.059845 0.0
1.359266 -0.062818 0.0
1.385097 -0.065786 0.0
1.412112 -0.068725 0.0
1.440297 -0.071606 0.0
1.469630 -0.074399 0.0
1.500071 -0.077067 0.0
1.531570 -0.079574 0.0
1.564058 -0.081880 0.0
1.597451 -0.083943 0.0
1.631646 -0.085721 0.0
1.666523 -0.087172 0.0
1.701944 -0.088255 0.0
1.737754 -0.088933 0.0
1.773783 -0.089173 0.0
1.809847 -0.088948 0.0
1.845753 -0.088241 0.0
1.881299 -0.087043 0.0
1.916283 -0.085357 0.0
1.950505 -0.083197 0.0
1.983773 -0.080591 0.0
2.015909 -0.077579 0.0
2.046753 -0.074212 0.0
2.076171 -0.070550 0.0
2.104053 -0.066660 0.0
2.130322 -0.062615 0.0
2.154930 -0.058484 0.0
2.177861 -0.054339 0.0
2.199125 -0.050241 0.0
2.218758 -0.046246 0.0
2.236818 -0.042400 0.0
2.253377 -0.038738 0.0
2.268522 -0.035287 0.0
2.282345 -0.032062 0.0
2.294943 -0.029071 0.0
2.306414 -0.026314 0.0
2.316853 -0.023786 0.0
2.326353 -0.021476 0.0
2.334999 -0.019372 0.0
2.342871 -0.017457 0.0
2.350041 -0.015714 0.0
2.356575 -0.014123 0.0
2.362529 -0.012664 0.0
2.367953 -0.011318 0.0
2.372886 -0.010064 0.0
2.377361 -0.008882 0.0
2.381403 -0.007752 0.0
2.385029 -0.006656 0.0
2.388246 -0.005576 0.0
2.391057 -0.004496 0.0
2.393459 -0.003403 0.0
2.395442 -0.002285 0.0
2.396994 -0.001134 0.0
2.398100 0.000055 0.0
2.398742 0.001285 0.0
2.398903 0.002556 0.0
2.398566 0.003868 0.0
2.397716 0.005218 0.0
2.396339 0.006604 0.0
2.394421 0.008026 0.0
2.391949 0.009485 0.0
2.388910 0.010983 0.0
2.385290 0.012527 0.0
2.381070 0.014123 0.0
2.376229 0.015780 0.0
2.370742 0.017508 0.0
2.364579 0.019313 0.0
2.357708 0.021205 0.0
2.350092 0.023187 0.0
2.341693 0.025260 0.0
2.332473 0.027419 0.0
2.322397 0.029655 0.0
2.311432 0.031951 0.0
2.299556 0.034284 0.0
2.286755 0.036622 0.0
2.273027 0.038932 0.0
2.258389 0.041171 0.0
2.242872 0.043293 0.0
2.226527 0.045253 0.0
2.209422 0.047001 0.0
2.191647 0.048492 0.0
2.173309 0.049680 0.0
2.154529 0.050527 0.0
2.135446 0.050998 0.0
2.116209 0.051068 0.0
2.096975 0.050715 0.0
2.077909 0.049927 0.0
2.059177 0.048699 0.0
2.040946 0.047034 0.0
2.023381 0.044938 0.0
2.006640 0.042428 0.0
1.990876 0.039521 0.0
1.976233 0.036241 0.0
1.962844 0.032612 0.0
1.950834 0.028663 0.0
1.940313 0.024420 0.0
1.931382 0.019910 0.0
1.924127 0.015159 0.0
1.918619 0.010190 0.0
1.914911 0.005028 0.0
1.913049 -0.000282 0.0
1.913082 -0.005715 0.0
1.915068 -0.011251 0.0
1.919061 -0.016865 0.0
1.925118 -0.022537 0.0
1.933295 -0.028248 0.0
1.943639 -0.033978 0.0
1.956195 -0.039709 0.0
1.970996 -0.045418 0.0
1.988064 -0.051082 0.0
2.007409 -0.056669 0.0
2.029025 -0.062146 0.0
2.052885 -0.067475 0.0
2.078944 -0.072613 0.0
2.107134 -0.077516 0.0
2.137365 -0.082139 0.0
2.169526 -0.086436 0.0
2.203482 -0.090366 0.0
2.239079 -0.093890 0.0
2.276146 -0.096973 0.0
2.314495 -0.099587 0.0
2.353930 -0.101711 0.0
2.394244 -0.103331 0.0
2.435225 -0.104440 0.0
2.476661 -0.105036 0.0
2.518339 -0.105125 0.0
2.560052 -0.104716 0.0
2.601597 -0.103824 0.0
2.642779 -0.102465 0.0
2.683413 -0.100659 0.0
2.723320 -0.098427 0.0
2.762332 -0.095791 0.0
2.800292 -0.092773 0.0
2.837050 -0.089395 0.0
2.872469 -0.085682 0.0
2.906418 -0.081657 0.0
2.938780 -0.077343 0.0
2.969444 -0.072765 0.0
2.998313 -0.067952 0.0
3.025298 -0.062929 0.0
3.050325 -0.057729 0.0
3.073331 -0.052382 0.0
3.094266 -0.046924 0.0
3.113097 -0.041391 0.0
3.129805 -0.035822 0.0
3.144385 -0.030257 0.0
3.156853 -0.024740 0.0
3.167237 -0.019317 0.0
3.175584 -0.014031 0.0
3.181959 -0.008923 0.0
3.186452 -0.004041 0.0
3.189171 0.000561 0.0
3.190236 0.004841 0.0
3.189783 0.008768 0.0
3.187960 0.012312 0.0
3.184922 0.015446 0.0
3.180834 0.018142 0.0
3.175872 0.020370 0.0
3.170217 0.022104 0.0
3.164060 0.023311 0.0
3.157595 0.023958 0.0
3.151014 0.024000 0.0
3.144489 0.023373 0.0
3.138140 0.022014 0.0
3.131750 0.019186 0.0
1.000121 -0.000445 0.0
1.000584 -0.001391 0.0
1.001467 -0.002423 0.0
1.002736 -0.003537 0.0
1.004377 -0.004722 0.0
1.006388 -0.005971 0.0
1.008771 -0.007278 0.0
1.011536 -0.008642 0.0
1.014694 -0.010061 0.0
1.018258 -0.011539 0.0
1.022242 -0.013079 0.0
1.026664 -0.014683 0.0
1.031539 -0.016356 0.0
1.036887 -0.018104 0.0
1.042729 -0.019930 0.0
1.049087 -0.021841 0.0
1.055984 -0.023842 0.0
1.063446 -0.025938 0.0
1.071500 -0.028134 0.0
1.080174 -0.030437 0.0
1.089500 -0.032852 0.0
1.099510 -0.035383 0.0
1.110237 -0.038036 0.0
1.121716 -0.040814 0.0
1.133985 -0.043721 0.0
1.147081 -0.046760 0.0
1.161043 -0.049932 0.0
1.175910 -0.053239 0.0
1.191723 -0.056677 0.0
1.208521 -0.060246 0.0
1.226344 -0.063939 0.0
1.245228 -0.067748 0.0
1.265211 -0.071665 0.0
1.286325 -0.075674 0.0
1.308600 -0.079760 0.0
1.332059 -0.083900 0.0
1.356722 -0.088071 0.0
1.382598 -0.092241 0.0
1.409691 -0.096378 0.0
1.437992 -0.100440 0.0
1.467480 -0.104385 0.0
1.498121 -0.108164 0.0
1.529868 -0.111722 0.0
1.562653 -0.115005 0.0
1.596394 -0.117952 0.0
1.630989 -0.120502 0.0
1.666317 -0.122595 0.0
1.702236 -0.124172 0.0
1.738586 -0.125177 0.0
1.775191 -0.125563 0.0
1.811859 -0.125290 0.0
1.848383 -0.124330 0.0
1.884551 -0.122669 0.0
1.920145 -0.120310 0.0
1.954951 -0.117272 0.0
1.988760 -0.113594 0.0
2.021381 -0.109333 0.0
2.052641 -0.104563 0.0
2.082394 -0.099370 0.0
2.110526 -0.093855 0.0
2.136957 -0.088120 0.0
2.161639 -0.082270 0.0
2.184561 -0.076406 0.0
2.205744 -0.070619 0.0
2.225233 -0.064989 0.0
2.243098 -0.059581 0.0
2.259425 -0.054444 0.0
2.274311 -0.049613 0.0
2.287861 -0.045109 0.0
2.300180 -0.040941 0.0
2.311375 -0.037109 0.0
2.321548 -0.033602 0.0
2.330794 -0.030405 0.0
2.339204 -0.027499 0.0
2.346860 -0.024859 0.0
2.353837 -0.022460 0.0
2.360200 -0.020274 0.0
2.366007 -0.018274 0.0
2.371307 -0.016432 0.0
2.376141 -0.014717 0.0
2.380541 -0.013103 0.0
2.384530 -0.011561 0.0
2.388124 -0.010065 0.0
2.391330 -0.008589 0.0
2.394148 -0.007112 0.0
2.396571 -0.005612 0.0
2.398587 -0.004075 0.0
2.400180 -0.002489 0.0
2.401331 -0.000846 0.0
2.402020 0.000856 0.0
2.402228 0.002617 0.0
2.401936 0.004435 0.0
2.401130 0.006306 0.0
2.399797 0.008226 0.0
2.397925 0.010194 0.0
2.395504 0.012209 0.0
2.392523 0.014278 0.0
2.388971 0.016406 0.0
2.384832 0.018604 0.0
2.380087 0.020886 0.0
2.374712 0.023265 0.0
2.368676 0.025754 0.0
2.361945 0.028366 0.0
2.354480 0.031107 0.0
2.346237 0.033981 0.0
2.337175 0.036981 0.0
2.327250 0.040095 0.0
2.316425 0.043301 0.0
2.304668 0.046566 0.0
2.291961 0.049848 0.0
2.278297 0.053097 0.0
2.263685 0.056255 0.0
2.248155 0.059257 0.0
2.231755 0.062036 0.0
2.214554 0.064524 0.0
2.196642 0.066656 0.0
2.178128 0.068369 0.0
2.159138 0.069608 0.0
2.139812 0.070326 0.0
2.120304 0.070485 0.0
2.100775 0.070059 0.0
2.081392 0.069032 0.0
2.062323 0.067395 0.0
2.043737 0.065154 0.0
2.025798 0.062322 0.0
2.008666 0.058917 0.0
1.992494 0.054968 0.0
1.977424 0.050507 0.0
1.963590 0.045569 0.0
1.951115 0.040192 0.0
1.940111 0.034415 0.0
1.930680 0.028278 0.0
1.922911 0.021816 0.0
1.916884 0.015068 0.0
1.912670 0.008071 0.0
1.910341 0.000867 0.0
1.909963 -0.006519 0.0
1.911596 -0.014065 0.0
1.915297 -0.021745 0.0
1.921120 -0.029538 0.0
1.929118 -0.037420 0.0
1.939338 -0.045369 0.0
1.951822 -0.053357 0.0
1.966605 -0.061354 0.0
1.983711 -0.069321 0.0
2.003152 -0.077216 0.0
2.024923 -0.084986 0.0
2.049000 -0.092572 0.0
2.075337 -0.099911 0.0
2.103865 -0.106936 0.0
2.134491 -0.113576 0.0
2.167097 -0.119765 0.0
2.201542 -0.125438 0.0
2.237661 -0.130535 0.0
2.275273 -0.135006 0.0
2.314179 -0.138810 0.0
2.354171 -0.141915 0.0
2.395031 -0.144301 0.0
2.436539 -0.145958 0.0
2.478472 -0.146887 0.0
2.520614 -0.147095 0.0
2.562753 -0.146598 0.0
2.604686 -0.145419 0.0
2.646216 -0.143583 0.0
2.687161 -0.141119 0.0
2.727347 -0.138059 0.0
2.766609 -0.134434 0.0
2.804796 -0.130276 0.0
2.841764 -0.125618 0.0
2.877378 -0.120493 0.0
2.911516 -0.114933 0.0
2.944060 -0.108972 0.0
2.974904 -0.102645 0.0
3.003951 -0.095988 0.0
3.031115 -0.089042 0.0
3.056318 -0.081846 0.0
3.079495 -0.074448 0.0
3.100594 -0.066894 0.0
3.119578 -0.059236 0.0
3.136421 -0.051528 0.0
3.151116 -0.043827 0.0
3.163670 -0.036193 0.0
3.174107 -0.028685 0.0
3.182467 -0.021368 0.0
3.188810 -0.014304 0.0
3.193216 -0.007560 0.0
3.195790 -0.001212 0.0
3.196659 0.004679 0.0
3.195970 0.010071 0.0
3.193879 0.014924 0.0
3.190551 0.019200 0.0
3.186163 0.022863 0.0
3.180899 0.025876 0.0
3.174949 0.028202 0.0
3.168513 0.029807 0.0
3.161788 0.030652 0.0
3.154970 0.030706 0.0
3.148228 0.029935 0.0
3.141682 0.028346 0.0
3.135289 0.025636 0.0
1.000106 -0.000672 0.0
1.000524 -0.002045 0.0
1.001343 -0.003472 0.0
1.002547 -0.004962 0.0
1.004126 -0.006517 0.0
1.006077 -0.008137 0.0
1.008402 -0.009821 0.0
1.011109 -0.011571 0.0
1.014207 -0.013388 0.0
1.017707 -0.015277 0.0
1.021625 -0.017243 0.0
1.025974 -0.019289 0.0
1.030772 -0.021423 0.0
1.036038 -0.023651 0.0
1.041792 -0.025979 0.0
1.048055 -0.028414 0.0
1.054853 -0.030963 0.0
1.062209 -0.033634 0.0
1.070152 -0.036434 0.0
1.078709 -0.039370 0.0
1.087913 -0.042449 0.0
1.097796 -0.045678 0.0
1.108391 -0.049063 0.0
1.119736 -0.052610 0.0
1.131867 -0.056324 0.0
1.144824 -0.060209 0.0
1.158646 -0.064268 0.0
1.173376 -0.068500 0.0
1.189054 -0.072907 0.0
1.205723 -0.077484 0.0
1.223425 -0.082225 0.0
1.242201 -0.087122 0.0
1.262089 -0.092162 0.0
1.283128 -0.097329 0.0
1.305349 -0.102601 0.0
1.328783 -0.107952 0.0
1.353453 -0.113351 0.0
1.379375 -0.118759 0.0
1.406556 -0.124134 0.0
1.434994 -0.129423 0.0
1.464674 -0.134571 0.0
1.495567 -0.139513 0.0
1.527629 -0.144181 0.0
1.560798 -0.148500 0.0
1.594992 -0.152392 0.0
1.630111 -0.155776 0.0
1.666032 -0.158570 0.0
1.702611 -0.160695 0.0
1.739682 -0.162076 0.0
1.777058 -0.162646 0.0
1.814536 -0.162351 0.0
1.851894 -0.161151 0.0
1.888903 -0.159024 0.0
1.925324 -0.155970 0.0
1.960921 -0.152014 0.0
1.995465 -0.147206 0.0
2.028744 -0.141620 0.0
2.060565 -0.135357 0.0
2.090769 -0.128534 0.0
2.119232 -0.121286 0.0
2.145869 -0.113755 0.0
2.170637 -0.106084 0.0
2.193531 -0.098408 0.0
2.214584 -0.090852 0.0
2.233858 -0.083520 0.0
2.251442 -0.076498 0.0
2.267438 -0.069849 0.0
2.281961 -0.063616 0.0
2.295130 -0.057824 0.0
2.307064 -0.052480 0.0
2.317880 -0.047581 0.0
2.327688 -0.043110 0.0
2.336591 -0.039046 0.0
2.344682 -0.035360 0.0
2.352048 -0.032020 0.0
2.358764 -0.028991 0.0
2.364898 -0.026239 0.0
2.370508 -0.023726 0.0
2.375644 -0.021416 0.0
2.380346 -0.019270 0.0
2.384646 -0.017251 0.0
2.388567 -0.015324 0.0
2.392122 -0.013452 0.0
2.395317 -0.011603 0.0
2.398148 -0.009746 0.0
2.400603 -0.007856 0.0
2.402668 -0.005912 0.0
2.404320 -0.003897 0.0
2.405535 -0.001804 0.0
2.406290 0.000370 0.0
2.406560 0.002624 0.0
2.406327 0.004952 0.0
2.405575 0.007347 0.0
2.404291 0.009802 0.0
2.402467 0.012313 0.0
2.400097 0.014881 0.0
2.397175 0.017509 0.0
2.393691 0.020209 0.0
2.389635 0.022995 0.0
2.384988 0.025886 0.0
2.379728 0.028901 0.0
2.373822 0.032060 0.0
2.367234 0.035380 0.0
2.359918 0.038875 0.0
2.351825 0.042549 0.0
2.342902 0.046398 0.0
2.333099 0.050407 0.0
2.322365 0.054548 0.0
2.310660 0.058780 0.0
2.297953 0.063049 0.0
2.284228 0.067286 0.0
2.269488 0.071417 0.0
2.253758 0.075355 0.0
2.237083 0.079012 0.0
2.219534 0.082297 0.0
2.201205 0.085124 0.0
2.182210 0.087409 0.0
2.162684 0.089083 0.0
2.142778 0.090082 0.0
2.122655 0.090360 0.0
2.102487 0.089882 0.0
2.082452 0.088628 0.0
2.062728 0.086591 0.0
2.043494 0.083779 0.0
2.024922 0.080208 0.0
2.007177 0.075907 0.0
1.990418 0.070911 0.0
1.974792 0.065261 0.0
1.960434 0.059006 0.0
1.947472 0.052193 0.0
1.936017 0.044873 0.0
1.926172 0.037096 0.0
1.918028 0.028910 0.0
1.911667 0.020362 0.0
1.907162 0.011495 0.0
1.904583 0.002351 0.0
1.903994 -0.007037 0.0
1.905454 -0.016640 0.0
1.909018 -0.026434 0.0
1.914738 -0.036393 0.0
1.922665 -0.046491 0.0
1.932849 -0.056702 0.0
1.945336 -0.066994 0.0
1.960165 -0.077328 0.0
1.977367 -0.087655 0.0
1.996960 -0.097916 0.0
2.018945 -0.108041 0.0
2.043301 -0.117950 0.0
2.069985 -0.127554 0.0
2.098924 -0.136761 0.0
2.130020 -0.145473 0.0
2.163143 -0.153598 0.0
2.198140 -0.161046 0.0
2.234829 -0.167736 0.0
2.273012 -0.173600 0.0
2.312473 -0.178583 0.0
2.352984 -0.182645 0.0
2.394313 -0.185761 0.0
2.436229 -0.187921 0.0
2.478501 -0.189130 0.0
2.520908 -0.189401 0.0
2.563240 -0.188762 0.0
2.605296 -0.187243 0.0
2.646888 -0.184882 0.0
2.687844 -0.181720 0.0
2.728000 -0.177799 0.0
2.767206 -0.173162 0.0
2.805323 -0.167851 0.0
2.842221 -0.161908 0.0
2.877778 -0.155374 0.0
2.911880 -0.148291 0.0
2.944420 -0.140699 0.0
2.975300 -0.132642 0.0
3.004426 -0.124165 0.0
3.031715 -0.115317 0.0
3.057088 -0.106148 0.0
3.080481 -0.096716 0.0
3.101836 -0.087080 0.0
3.121109 -0.077306 0.0
3.138269 -0.067461 0.0
3.153298 -0.057618 0.0
3.166194 -0.047851 0.0
3.176968 -0.038238 0.0
3.185647 -0.028856 0.0
3.192276 -0.019788 0.0
3.196915 -0.011122 0.0
3.199647 -0.002956 0.0
3.200586 0.004615 0.0
3.199877 0.011533 0.0
3.197680 0.017750 0.0
3.194163 0.023218 0.0
3.189505 0.027891 0.0
3.183895 0.031723 0.0
3.177530 0.034670 0.0
3.170614 0.036691 0.0
3.163358 0.037749 0.0
3.155971 0.037815 0.0
3.148658 0.036881 0.0
3.141599 0.035005 0.0
3.134990 0.031980 0.0
1.000098 -0.000876 0.0
1.000488 -0.002649 0.0
1.001262 -0.004461 0.0
1.002411 -0.006326 0.0
1.003931 -0.008252 0.0
1.005820 -0.010242 0.0
1.008081 -0.012302 0.0
1.010720 -0.014435 0.0
1.013746 -0.016647 0.0
1.017170 -0.018943 0.0
1.021004 -0.021329 0.0
1.025264 -0.023812 0.0
1.029967 -0.026401 0.0
1.035130 -0.029102 0.0
1.040773 -0.031925 0.0
1.046919 -0.034877 0.0
1.053590 -0.037969 0.0
1.060813 -0.041208 0.0
1.068615 -0.044605 0.0
1.077025 -0.048167 0.0
1.086073 -0.051904 0.0
1.095794 -0.055826 0.0
1.106222 -0.059939 0.0
1.117393 -0.064251 0.0
1.129347 -0.068769 0.0
1.142125 -0.073498 0.0
1.155767 -0.078443 0.0
1.170317 -0.083605 0.0
1.185819 -0.088983 0.0
1.202318 -0.094576 0.0
1.219859 -0.100376 0.0
1.238487 -0.106374 0.0
1.258245 -0.112556 0.0
1.279175 -0.118903 0.0
1.301315 -0.125390 0.0
1.324702 -0.131985 0.0
1.349365 -0.138651 0.0
1.375325 -0.145343 0.0
1.402600 -0.152006 0.0
1.431192 -0.158581 0.0
1.461094 -0.164995 0.0
1.492285 -0.171172 0.0
1.524726 -0.177025 0.0
1.558360 -0.182460 0.0
1.593111 -0.187378 0.0
1.628878 -0.191676 0.0
1.665539 -0.195251 0.0
1.702945 -0.197998 0.0
1.740923 -0.199821 0.0
1.779276 -0.200631 0.0
1.817785 -0.200353 0.0
1.856209 -0.198933 0.0
1.894295 -0.196337 0.0
1.931780 -0.192563 0.0
1.968398 -0.187636 0.0
2.003890 -0.181620 0.0
2.038015 -0.174609 0.0
2.070557 -0.166731 0.0
2.101335 -0.158142 0.0
2.130211 -0.149018 0.0
2.157097 -0.139546 0.0
2.181951 -0.129915 0.0
2.204782 -0.120303 0.0
2.225640 -0.110869 0.0
2.244612 -0.101749 0.0
2.261807 -0.093048 0.0
2.277356 -0.084843 0.0
2.291394 -0.077183 0.0
2.304061 -0.070093 0.0
2.315492 -0.063577 0.0
2.325817 -0.057625 0.0
2.335156 -0.052213 0.0
2.343619 -0.047309 0.0
2.351305 -0.042874 0.0
2.358302 -0.038868 0.0
2.364689 -0.035246 0.0
2.370534 -0.031964 0.0
2.375897 -0.028975 0.0
2.380828 -0.026233 0.0
2.385366 -0.023693 0.0
2.389544 -0.021306 0.0
2.393382 -0.019028 0.0
2.396893 -0.016814 0.0
2.400079 -0.014622 0.0
2.402933 -0.012412 0.0
2.405439 -0.010152 0.0
2.407574 -0.007815 0.0
2.409309 -0.005381 0.0
2.410613 -0.002840 0.0
2.411456 -0.000191 0.0
2.411810 0.002561 0.0
2.411651 0.005407 0.0
2.410964 0.008332 0.0
2.409739 0.011326 0.0
2.407971 0.014381 0.0
2.405659 0.017495 0.0
2.402802 0.020674 0.0
2.399399 0.023931 0.0
2.395442 0.027287 0.0
2.390918 0.030766 0.0
2.385803 0.034396 0.0
2.380064 0.038207 0.0
2.373661 0.042224 0.0
2.366541 0.046467 0.0
2.358647 0.050945 0.0
2.349913 0.055658 0.0
2.340274 0.060589 0.0
2.329667 0.065707 0.0
2.318035 0.070959 0.0
2.305333 0.076279 0.0
2.291533 0.081581 0.0
2.276626 0.086768 0.0
2.260631 0.091730 0.0
2.243590 0.096353 0.0
2.225576 0.100520 0.0
2.206688 0.104120 0.0
2.187048 0.107048 0.0
2.166804 0.109214 0.0
2.146120 0.110541 0.0
2.125176 0.110969 0.0
2.104158 0.110458 0.0
2.083260 0.108984 0.0
2.062676 0.106542 0.0
2.042596 0.103142 0.0
2.023205 0.098809 0.0
2.004678 0.093578 0.0
1.987181 0.087496 0.0
1.970867 0.080617 0.0
1.955876 0.072999 0.0
1.942335 0.064703 0.0
1.930359 0.055793 0.0
1.920050 0.046330 0.0
1.911496 0.036374 0.0
1.904777 0.025979 0.0
1.899962 0.015197 0.0
1.897117 0.004074 0.0
1.896299 -0.007353 0.0
1.897564 -0.019049 0.0
1.900963 -0.030988 0.0
1.906547 -0.043143 0.0
1.914368 -0.055489 0.0
1.924478 -0.067998 0.0
1.936929 -0.080635 0.0
1.951766 -0.093354 0.0
1.969031 -0.106096 0.0
1.988747 -0.118785 0.0
2.010922 -0.131332 0.0
2.035537 -0.143630 0.0
2.062544 -0.155564 0.0
2.091862 -0.167008 0.0
2.123375 -0.177835 0.0
2.156936 -0.187920 0.0
2.192363 -0.197147 0.0
2.229449 -0.205411 0.0
2.267966 -0.212626 0.0
2.307674 -0.218725 0.0
2.348323 -0.223663 0.0
2.389667 -0.227416 0.0
2.431465 -0.229979 0.0
2.473486 -0.231365 0.0
2.515516 -0.231603 0.0
2.557354 -0.230730 0.0
2.598819 -0.228795 0.0
2.639745 -0.225849 0.0
2.679981 -0.221945 0.0
2.719390 -0.217140 0.0
2.757849 -0.211487 0.0
2.795242 -0.205037 0.0
2.831464 -0.197841 0.0
2.866412 -0.189947 0.0
2.899993 -0.181401 0.0
2.932114 -0.172251 0.0
2.962689 -0.162544 0.0
2.991633 -0.152333 0.0
3.018867 -0.141671 0.0
3.044316 -0.130617 0.0
3.067913 -0.119237 0.0
3.089598 -0.107599 0.0
3.109320 -0.095782 0.0
3.127039 -0.083864 0.0
3.142725 -0.071931 0.0
3.156364 -0.060072 0.0
3.167950 -0.048377 0.0
3.177491 -0.036938 0.0
3.185008 -0.025851 0.0
3.190526 -0.015216 0.0
3.194086 -0.005152 0.0
3.195756 0.004201 0.0
3.195659 0.012752 0.0
3.193950 0.020438 0.0
3.190795 0.027202 0.0
3.186373 0.032987 0.0
3.180872 0.037738 0.0
3.174493 0.041400 0.0
3.167445 0.043925 0.0
3.159950 0.045266 0.0
3.152242 0.045391 0.0
3.144569 0.044291 0.0
3.137189 0.042034 0.0