# vtk DataFile Version 3.0
Vector Field
ASCII
DATASET RECTILINEAR_GRID
DIMENSIONS 200 75 1
X_COORDINATES 200 double
0.050000 0.150000 0.250000 0.350000 0.450000 0.550000 0.650000 0.750000 0.850000 0.950000 1.050000 1.150000 1.250000 1.350000 1.450000 1.550000 1.650000 1.750000 1.850000 1.950000 2.050000 2.150000 2.250000 2.350000 2.450000 2.550000 2.650000 2.750000 2.850000 2.950000 3.050000 3.150000 3.250000 3.350000 3.450000 3.550000 3.650000 3.750000 3.850000 3.950000 4.050000 4.150000 4.250000 4.350000 4.450000 4.550000 4.650000 4.750000 4.850000 4.950000 5.050000 5.150000 5.250000 5.350000 5.450000 5.550000 5.650000 5.750000 5.850000 5.950000 6.050000 6.150000 6.250000 6.350000 6.450000 6.550000 6.650000 6.750000 6.850000 6.950000 7.050000 7.150000 7.250000 7.350000 7.450000 7.550000 7.650000 7.750000 7.850000 7.950000 8.050000 8.150000 8.250000 8.350000 8.450000 8.550000 8.650000 8.750000 8.850000 8.950000 9.050000 9.150000 9.250000 9.350000 9.450000 9.550000 9.650000 9.750000 9.850000 9.950000 10.050000 10.150000 10.250000 10.350000 10.450000 10.550000 10.650000 10.750000 10.850000 10.950000 11.050000 11.150000 11.250000 11.350000 11.450000 11.550000 11.650000 11.750000 11.850000 11.950000 12.050000 12.150000 12.250000 12.350000 12.450000 12.550000 12.650000 12.750000 12.850000 12.950000 13.050000 13.150000 13.250000 13.350000 13.450000 13.550000 13.650000 13.750000 13.850000 13.950000 14.050000 14.150000 14.250000 14.350000 14.450000 14.550000 14.650000 14.750000 14.850000 14.950000 15.050000 15.150000 15.250000 15.350000 15.450000 15.550000 15.650000 15.750000 15.850000 15.950000 16.050000 16.150000 16.250000 16.350000 16.450000 16.550000 16.650000 16.750000 16.850000 16.950000 17.050000 17.150000 17.250000 17.350000 17.450000 17.550000 17.650000 17.750000 17.850000 17.950000 18.050000 18.150000 18.250000 18.350000 18.450000 18.550000 18.650000 18.750000 18.850000 18.950000 19.050000 19.150000 19.250000 19.350000 19.450000 19.550000 19.650000 19.750000 19.850000 19.950000 
Y_COORDINATES 75 double
0.050000 0.150000 0.250000 0.350000 0.450000 0.550000 0.650000 0.750000 0.850000 0.950000 1.050000 1.150000 1.250000 1.350000 1.450000 1.550000 1.650000 1.750000 1.850000 1.950000 2.050000 2.150000 2.250000 2.350000 2.450000 2.550000 2.650000 2.750000 2.850000 2.950000 3.050000 3.150000 3.250000 3.350000 3.450000 3.550000 3.650000 3.750000 3.850000 3.950000 4.050000 4.150000 4.250000 4.350000 4.450000 4.550000 4.650000 4.750000 4.850000 4.950000 5.050000 5.150000 5.250000 5.350000 5.450000 5.550000 5.650000 5.750000 5.850000 5.950000 6.050000 6.150000 6.250000 6.350000 6.450000 6.550000 6.650000 6.750000 6.850000 6.950000 7.050000 7.150000 7.250000 7.350000 7.450000 
Z_COORDINATES 1 double
0.0
POINT_DATA 15000
VECTORS Vektorfeld double
0.999719 0.000281 0.0
0.999048 0.000390 0.0
0.998310 0.000348 0.0
0.997716 0.000246 0.0
0.997355 0.000116 0.0
0.997271 -0.000031 0.0
0.997492 -0.000190 0.0
0.998041 -0.000358 0.0
0.998935 -0.000536 0.0
1.000193 -0.000722 0.0
1.001832 -0.000917 0.0
1.003871 -0.001122 0.0
1.006330 -0.001337 0.0
1.009231 -0.001563 0.0
1.012594 -0.001801 0.0
1.016446 -0.002051 0.0
1.020811 -0.002314 0.0
1.025717 -0.002592 0.0
1.031192 -0.002884 0.0
1.037268 -0.003192 0.0
1.043976 -0.003516 0.0
1.051349 -0.003857 0.0
1.059423 -0.004216 0.0
1.068231 -0.004593 0.0
1.077812 -0.004988 0.0
1.088203 -0.005403 0.0
1.099442 -0.005836 0.0
1.111568 -0.006290 0.0
1.124623 -0.006764 0.0
1.138646 -0.007259 0.0
1.153679 -0.007775 0.0
1.169765 -0.008312 0.0
1.186947 -0.008870 0.0
1.205266 -0.009449 0.0
1.224762 -0.010047 0.0
1.245472 -0.010662 0.0
1.267425 -0.011291 0.0
1.290644 -0.011929 0.0
1.315142 -0.012569 0.0
1.340915 -0.013204 0.0
1.367945 -0.013826 0.0
1.396195 -0.014424 0.0
1.425607 -0.014988 0.0
1.456100 -0.015506 0.0
1.487572 -0.015966 0.0
1.519895 -0.016357 0.0
1.552922 -0.016669 0.0
1.586482 -0.016891 0.0
1.620386 -0.017014 0.0
1.654431 -0.017031 0.0
1.688397 -0.016936 0.0
1.722058 -0.016726 0.0
1.755182 -0.016399 0.0
1.787538 -0.015957 0.0
1.818898 -0.015403 0.0
1.849043 -0.014743 0.0
1.877771 -0.013985 0.0
1.904895 -0.013139 0.0
1.930252 -0.012218 0.0
1.953703 -0.011233 0.0
1.975136 -0.010200 0.0
1.994466 -0.009130 0.0
2.011635 -0.008039 0.0
2.026612 -0.006938 0.0
2.039387 -0.005837 0.0
2.049972 -0.004747 0.0
2.058395 -0.003675 0.0
2.064698 -0.002627 0.0
2.068934 -0.001608 0.0
2.071165 -0.000623 0.0
2.071473 0.000315 0.0
2.069942 0.001216 0.0
2.066642 0.002084 0.0
2.061635 0.002923 0.0
2.054978 0.003734 0.0
2.046724 0.004520 0.0
2.036921 0.005282 0.0
2.025615 0.006024 0.0
2.012844 0.006747 0.0
1.998647 0.007451 0.0
1.983056 0.008139 0.0
1.966108 0.008810 0.0
1.947835 0.009463 0.0
1.928276 0.010097 0.0
1.907469 0.010710 0.0
1.885460 0.011299 0.0
1.862299 0.011862 0.0
1.838044 0.012394 0.0
1.812758 0.012892 0.0
1.786515 0.013351 0.0
1.759396 0.013768 0.0
1.731488 0.014139 0.0
1.702887 0.014461 0.0
1.673696 0.014730 0.0
1.644022 0.014944 0.0
1.613977 0.015101 0.0
1.583676 0.015200 0.0
1.553237 0.015240 0.0
1.522777 0.015220 0.0
1.492416 0.015141 0.0
1.462271 0.015003 0.0
1.432460 0.014808 0.0
1.403096 0.014556 0.0
1.374291 0.014249 0.0
1.346153 0.013889 0.0
1.318786 0.013478 0.0
1.292290 0.013018 0.0
1.266758 0.012514 0.0
1.242277 0.011967 0.0
1.218925 0.011384 0.0
1.196770 0.010770 0.0
1.175868 0.010132 0.0
1.156260 0.009476 0.0
1.137971 0.008813 0.0
1.121008 0.008150 0.0
1.105362 0.007497 0.0
1.091002 0.006863 0.0
1.077884 0.006255 0.0
1.065947 0.005682 0.0
1.055119 0.005147 0.0
1.045318 0.004654 0.0
1.036458 0.004206 0.0
1.028451 0.003802 0.0
1.021208 0.003441 0.0
1.014645 0.003121 0.0
1.008684 0.002840 0.0
1.003251 0.002593 0.0
0.998283 0.002376 0.0
0.993720 0.002187 0.0
0.989513 0.002020 0.0
0.985619 0.001874 0.0
0.982001 0.001744 0.0
0.978629 0.001628 0.0
0.975476 0.001524 0.0
0.972521 0.001430 0.0
0.969747 0.001344 0.0
0.967139 0.001264 0.0
0.964684 0.001190 0.0
0.962372 0.001121 0.0
0.960194 0.001057 0.0
0.958143 0.000995 0.0
0.956210 0.000937 0.0
0.954390 0.000883 0.0
0.952676 0.000831 0.0
0.951065 0.000781 0.0
0.949549 0.000734 0.0
0.948125 0.000690 0.0
0.946787 0.000648 0.0
0.945531 0.000608 0.0
0.944353 0.000570 0.0
0.943248 0.000535 0.0
0.942212 0.000501 0.0
0.941242 0.000469 0.0
0.940334 0.000439 0.0
0.939483 0.000411 0.0
0.938687 0.000385 0.0
0.937942 0.000360 0.0
0.937246 0.000337 0.0
0.936595 0.000315 0.0
0.935986 0.000294 0.0
0.935418 0.000275 0.0
0.934886 0.000257 0.0
0.934390 0.000240 0.0
0.933926 0.000224 0.0
0.933493 0.000209 0.0
0.933089 0.000195 0.0
0.932712 0.000182 0.0
0.932360 0.000170 0.0
0.932032 0.000158 0.0
0.931726 0.000148 0.0
0.931441 0.000137 0.0
0.931176 0.000128 0.0
0.930929 0.000119 0.0
0.930699 0.000111 0.0
0.930486 0.000103 0.0
0.930288 0.000095 0.0
0.930104 0.000088 0.0
0.929934 0.000082 0.0
0.929777 0.000075 0.0
0.929633 0.000069 0.0
0.929500 0.000064 0.0
0.929378 0.000058 0.0
0.929267 0.000053 0.0
0.929166 0.000048 0.0
0.929075 0.000043 0.0
0.928994 0.000038 0.0
0.928922 0.000034 0.0
0.928860 0.000029 0.0
0.928807 0.000024 0.0
0.928763 0.000020 0.0
0.928729 0.000015 0.0
0.928704 0.000010 0.0
0.928691 0.000004 0.0
0.928690 -0.000003 0.0
0.928703 -0.000011 0.0
0.928735 -0.000021 0.0
0.928793 -0.000037 0.0
0.928893 -0.000063 0.0
0.929078 -0.000122 0.0
0.929383 -0.000184 0.0
1.000263 0.000299 0.0
1.000978 0.000328 0.0
1.002014 0.000112 0.0
1.003310 -0.000222 0.0
1.004873 -0.000620 0.0
1.006721 -0.001060 0.0
1.008869 -0.001531 0.0
1.011331 -0.002028 0.0
1.014121 -0.002550 0.0
1.017252 -0.003097 0.0
1.020741 -0.003670 0.0
1.024602 -0.004269 0.0
1.028851 -0.004898 0.0
1.033508 -0.005559 0.0
1.038591 -0.006252 0.0
1.044121 -0.006981 0.0
1.050122 -0.007749 0.0
1.056616 -0.008557 0.0
1.063630 -0.009408 0.0
1.071191 -0.010304 0.0
1.079328 -0.011248 0.0
1.088070 -0.012241 0.0
1.097450 -0.013285 0.0
1.107500 -0.014382 0.0
1.118254 -0.015534 0.0
1.129747 -0.016741 0.0
1.142014 -0.018004 0.0
1.155092 -0.019326 0.0
1.169017 -0.020708 0.0
1.183829 -0.022149 0.0
1.199564 -0.023653 0.0
1.216262 -0.025218 0.0
1.233962 -0.026846 0.0
1.252704 -0.028534 0.0
1.272527 -0.030281 0.0
1.293468 -0.032079 0.0
1.315562 -0.033921 0.0
1.338836 -0.035793 0.0
1.363313 -0.037678 0.0
1.388999 -0.039555 0.0
1.415892 -0.041398 0.0
1.443969 -0.043179 0.0
1.473187 -0.044864 0.0
1.503484 -0.046419 0.0
1.534770 -0.047810 0.0
1.566935 -0.049002 0.0
1.599843 -0.049959 0.0
1.633335 -0.050652 0.0
1.667231 -0.051053 0.0
1.701335 -0.051139 0.0
1.735434 -0.050892 0.0
1.769305 -0.050301 0.0
1.802717 -0.049361 0.0
1.835441 -0.048074 0.0
1.867248 -0.046452 0.0
1.897920 -0.044511 0.0
1.927251 -0.042276 0.0
1.955055 -0.039777 0.0
1.981167 -0.037049 0.0
2.005448 -0.034133 0.0
2.027785 -0.031069 0.0
2.048095 -0.027900 0.0
2.066321 -0.024665 0.0
2.082435 -0.021402 0.0
2.096431 -0.018144 0.0
2.108323 -0.014918 0.0
2.118144 -0.011749 0.0
2.125939 -0.008652 0.0
2.131763 -0.005643 0.0
2.135673 -0.002730 0.0
2.137713 0.000074 0.0
2.137924 0.002776 0.0
2.136364 0.005384 0.0
2.133093 0.007902 0.0
2.128168 0.010337 0.0
2.121643 0.012697 0.0
2.113564 0.014987 0.0
2.103975 0.017215 0.0
2.092915 0.019386 0.0
2.080420 0.021504 0.0
2.066524 0.023572 0.0
2.051260 0.025589 0.0
2.034661 0.027555 0.0
2.016761 0.029464 0.0
1.997599 0.031311 0.0
1.977216 0.033089 0.0
1.955663 0.034786 0.0
1.932996 0.036393 0.0
1.909276 0.037898 0.0
1.884577 0.039288 0.0
1.858977 0.040551 0.0
1.832565 0.041677 0.0
1.805433 0.042655 0.0
1.777684 0.043476 0.0
1.749424 0.044133 0.0
1.720762 0.044620 0.0
1.691811 0.044933 0.0
1.662687 0.045070 0.0
1.633505 0.045031 0.0
1.604380 0.044817 0.0
1.575423 0.044429 0.0
1.546747 0.043871 0.0
1.518457 0.043147 0.0
1.490657 0.042263 0.0
1.463445 0.041225 0.0
1.436914 0.040040 0.0
1.411149 0.038717 0.0
1.386231 0.037265 0.0
1.362231 0.035697 0.0
1.339209 0.034027 0.0
1.317219 0.032272 0.0
1.296301 0.030450 0.0
1.276483 0.028584 0.0
1.257782 0.026696 0.0
1.240200 0.024811 0.0
1.223727 0.022954 0.0
1.208343 0.021149 0.0
1.194015 0.019415 0.0
1.180702 0.017772 0.0
1.168353 0.016233 0.0
1.156916 0.014806 0.0
1.146330 0.013498 0.0
1.136538 0.012309 0.0
1.127477 0.011237 0.0
1.119089 0.010276 0.0
1.111318 0.009418 0.0
1.104110 0.008655 0.0
1.097417 0.007977 0.0
1.091191 0.007374 0.0
1.085394 0.006837 0.0
1.079987 0.006357 0.0
1.074939 0.005926 0.0
1.070221 0.005537 0.0
1.065807 0.005183 0.0
1.061675 0.004859 0.0
1.057804 0.004560 0.0
1.054177 0.004283 0.0
1.050778 0.004025 0.0
1.047593 0.003784 0.0
1.044608 0.003557 0.0
1.041810 0.003344 0.0
1.039190 0.003142 0.0
1.036736 0.002952 0.0
1.034438 0.002772 0.0
1.032288 0.002602 0.0
1.030276 0.002441 0.0
1.028394 0.002289 0.0
1.026635 0.002146 0.0
1.024991 0.002010 0.0
1.023454 0.001883 0.0
1.022019 0.001762 0.0
1.020678 0.001649 0.0
1.019426 0.001543 0.0
1.018258 0.001443 0.0
1.017167 0.001349 0.0
1.016149 0.001261 0.0
1.015199 0.001178 0.0
1.014312 0.001101 0.0
1.013485 0.001028 0.0
1.012714 0.000960 0.0
1.011994 0.000897 0.0
1.011323 0.000837 0.0
1.010697 0.000782 0.0
1.010113 0.000729 0.0
1.009568 0.000681 0.0
1.009061 0.000635 0.0
1.008587 0.000592 0.0
1.008146 0.000552 0.0
1.007735 0.000515 0.0
1.007352 0.000480 0.0
1.006995 0.000447 0.0
1.006663 0.000416 0.0
1.006353 0.000387 0.0
1.006066 0.000360 0.0
1.005798 0.000334 0.0
1.005550 0.000310 0.0
1.005319 0.000288 0.0
1.005105 0.000266 0.0
1.004908 0.000246 0.0
1.004725 0.000226 0.0
1.004556 0.000208 0.0
1.004401 0.000190 0.0
1.004259 0.000174 0.0
1.004129 0.000158 0.0
1.004011 0.000142 0.0
1.003905 0.000127 0.0
1.003809 0.000112 0.0
1.003725 0.000097 0.0
1.003651 0.000083 0.0
1.003587 0.000068 0.0
1.003534 0.000053 0.0
1.003492 0.000037 0.0
1.003462 0.000020 0.0
1.003443 0.000001 0.0
1.003437 -0.000022 0.0
1.003444 -0.000050 0.0
1.003467 -0.000089 0.0
1.003503 -0.000147 0.0
1.003533 -0.000252 0.0
1.003540 -0.000366 0.0
1.000147 -0.000111 0.0
1.000653 -0.000483 0.0
1.001540 -0.000998 0.0
1.002747 -0.001614 0.0
1.004257 -0.002301 0.0
1.006070 -0.003039 0.0
1.008192 -0.003821 0.0
1.010633 -0.004641 0.0
1.013405 -0.005499 0.0
1.016520 -0.006395 0.0
1.019992 -0.007332 0.0
1.023835 -0.008311 0.0
1.028066 -0.009337 0.0
1.032702 -0.010413 0.0
1.037763 -0.011542 0.0
1.043268 -0.012728 0.0
1.049241 -0.013976 0.0
1.055706 -0.015289 0.0
1.062687 -0.016672 0.0
1.070212 -0.018127 0.0
1.078310 -0.019660 0.0
1.087011 -0.021273 0.0
1.096347 -0.022969 0.0
1.106350 -0.024752 0.0
1.117056 -0.026623 0.0
1.128498 -0.028586 0.0
1.140714 -0.030642 0.0
1.153741 -0.032794 0.0
1.167617 -0.035042 0.0
1.182381 -0.037390 0.0
1.198074 -0.039839 0.0
1.214736 -0.042391 0.0
1.232409 -0.045046 0.0
1.251136 -0.047803 0.0
1.270958 -0.050658 0.0
1.291916 -0.053602 0.0
1.314046 -0.056622 0.0
1.337380 -0.059699 0.0
1.361939 -0.062806 0.0
1.387734 -0.065909 0.0
1.414762 -0.068965 0.0
1.443001 -0.071927 0.0
1.472409 -0.074742 0.0
1.502922 -0.077351 0.0
1.534451 -0.079695 0.0
1.566883 -0.081714 0.0
1.600081 -0.083352 0.0
1.633884 -0.084555 0.0
1.668110 -0.085274 0.0
1.702557 -0.085470 0.0
1.737010 -0.085112 0.0
1.771239 -0.084180 0.0
1.805008 -0.082664 0.0
1.838081 -0.080568 0.0
1.870222 -0.077907 0.0
1.901206 -0.074711 0.0
1.930819 -0.071020 0.0
1.958868 -0.066886 0.0
1.985185 -0.062368 0.0
2.009625 -0.057535 0.0
2.032076 -0.052456 0.0
2.052455 -0.047202 0.0
2.070708 -0.041843 0.0
2.086811 -0.036441 0.0
2.100763 -0.031052 0.0
2.112586 -0.025724 0.0
2.122319 -0.020496 0.0
2.130013 -0.015394 0.0
2.135730 -0.010441 0.0
2.139535 -0.005648 0.0
2.141501 -0.001015 0.0
2.141699 0.003456 0.0
2.140196 0.007768 0.0
2.137056 0.011930 0.0
2.132337 0.015953 0.0
2.126094 0.019850 0.0
2.118374 0.023632 0.0
2.109221 0.027311 0.0
2.098674 0.030897 0.0
2.086767 0.034396 0.0
2.073531 0.037812 0.0
2.058996 0.041147 0.0
2.043194 0.044398 0.0
2.026156 0.047559 0.0
2.007916 0.050619 0.0
1.988515 0.053564 0.0
1.967998 0.056380 0.0
1.946417 0.059048 0.0
1.923833 0.061547 0.0
1.900313 0.063857 0.0
1.875934 0.065960 0.0
1.850779 0.067836 0.0
1.824940 0.069467 0.0
1.798512 0.070840 0.0
1.771598 0.071943 0.0
1.744301 0.072768 0.0
1.716730 0.073307 0.0
1.688991 0.073559 0.0
1.661192 0.073524 0.0
1.633438 0.073204 0.0
1.605831 0.072604 0.0
1.578471 0.071732 0.0
1.551451 0.070596 0.0
1.524860 0.069206 0.0
1.498780 0.067574 0.0
1.473287 0.065715 0.0
1.448451 0.063643 0.0
1.424333 0.061376 0.0
1.400986 0.058935 0.0
1.378455 0.056342 0.0
1.356778 0.053624 0.0
1.335983 0.050811 0.0
1.316090 0.047934 0.0
1.297110 0.045027 0.0
1.279048 0.042124 0.0
1.261901 0.039261 0.0
1.245658 0.036469 0.0
1.230304 0.033777 0.0
1.215818 0.031210 0.0
1.202173 0.028787 0.0
1.189341 0.026522 0.0
1.177289 0.024421 0.0
1.165981 0.022488 0.0
1.155382 0.020719 0.0
1.145452 0.019110 0.0
1.136156 0.017651 0.0
1.127455 0.016331 0.0
1.119312 0.015137 0.0
1.111694 0.014058 0.0
1.104566 0.013079 0.0
1.097896 0.012191 0.0
1.091656 0.011381 0.0
1.085818 0.010639 0.0
1.080356 0.009957 0.0
1.075245 0.009327 0.0
1.070465 0.008743 0.0
1.065994 0.008199 0.0
1.061812 0.007690 0.0
1.057903 0.007214 0.0
1.054249 0.006767 0.0
1.050834 0.006346 0.0
1.047643 0.005951 0.0
1.044664 0.005578 0.0
1.041881 0.005226 0.0
1.039284 0.004895 0.0
1.036860 0.004584 0.0
1.034598 0.004290 0.0
1.032489 0.004014 0.0
1.030521 0.003754 0.0
1.028687 0.003510 0.0
1.026976 0.003281 0.0
1.025382 0.003066 0.0
1.023896 0.002864 0.0
1.022511 0.002675 0.0
1.021221 0.002498 0.0
1.020018 0.002332 0.0
1.018898 0.002177 0.0
1.017854 0.002032 0.0
1.016881 0.001897 0.0
1.015974 0.001770 0.0
1.015130 0.001651 0.0
1.014343 0.001541 0.0
1.013610 0.001437 0.0
1.012927 0.001341 0.0
1.012291 0.001250 0.0
1.011698 0.001166 0.0
1.011146 0.001087 0.0
1.010632 0.001013 0.0
1.010152 0.000944 0.0
1.009706 0.000880 0.0
1.009291 0.000819 0.0
1.008904 0.000763 0.0
1.008544 0.000710 0.0
1.008209 0.000660 0.0
1.007897 0.000613 0.0
1.007608 0.000569 0.0
1.007339 0.000528 0.0
1.007090 0.000489 0.0
1.006859 0.000452 0.0
1.006645 0.000417 0.0
1.006447 0.000384 0.0
1.006265 0.000352 0.0
1.006097 0.000322 0.0
1.005943 0.000293 0.0
1.005802 0.000265 0.0
1.005674 0.000238 0.0
1.005558 0.000212 0.0
1.005454 0.000186 0.0
1.005361 0.000161 0.0
1.005280 0.000135 0.0
1.005209 0.000109 0.0
1.005150 0.000082 0.0
1.005102 0.000054 0.0
1.005065 0.000023 0.0
1.005039 -0.000012 0.0
1.005025 -0.000053 0.0
1.005020 -0.000104 0.0
1.005022 -0.000170 0.0
1.005019 -0.000257 0.0
1.005005 -0.000353 0.0
1.000110 -0.000368 0.0
1.000528 -0.001150 0.0
1.001317 -0.002008 0.0
1.002443 -0.002938 0.0
1.003887 -0.003931 0.0
1.005645 -0.004979 0.0
1.007718 -0.006076 0.0
1.010112 -0.007222 0.0
1.012838 -0.008416 0.0
1.015905 -0.009661 0.0
1.019327 -0.010960 0.0
1.023117 -0.012317 0.0
1.027291 -0.013737 0.0
1.031867 -0.015225 0.0
1.036864 -0.016786 0.0
1.042302 -0.018427 0.0
1.048203 -0.020152 0.0
1.054592 -0.021966 0.0
1.061494 -0.023877 0.0
1.068936 -0.025889 0.0
1.076948 -0.028008 0.0
1.085560 -0.030238 0.0
1.094804 -0.032584 0.0
1.104714 -0.035050 0.0
1.115325 -0.037641 0.0
1.126673 -0.040359 0.0
1.138796 -0.043208 0.0
1.151732 -0.046191 0.0
1.165523 -0.049311 0.0
1.180208 -0.052571 0.0
1.195831 -0.055974 0.0
1.212436 -0.059523 0.0
1.230068 -0.063219 0.0
1.248773 -0.067061 0.0
1.268595 -0.071044 0.0
1.289579 -0.075157 0.0
1.311765 -0.079383 0.0
1.335186 -0.083694 0.0
1.359869 -0.088053 0.0
1.385826 -0.092414 0.0
1.413055 -0.096717 0.0
1.441535 -0.100895 0.0
1.471226 -0.104873 0.0
1.502063 -0.108569 0.0
1.533957 -0.111899 0.0
1.566793 -0.114779 0.0
1.600433 -0.117125 0.0
1.634711 -0.118863 0.0
1.669442 -0.119922 0.0
1.704419 -0.120246 0.0
1.739418 -0.119788 0.0
1.774203 -0.118518 0.0
1.808529 -0.116421 0.0
1.842146 -0.113500 0.0
1.874808 -0.109778 0.0
1.906277 -0.105293 0.0
1.936328 -0.100103 0.0
1.964758 -0.094283 0.0
1.991388 -0.087918 0.0
2.016070 -0.081108 0.0
2.038688 -0.073953 0.0
2.059161 -0.066557 0.0
2.077438 -0.059019 0.0
2.093502 -0.051431 0.0
2.107361 -0.043873 0.0
2.119047 -0.036413 0.0
2.128610 -0.029102 0.0
2.136111 -0.021983 0.0
2.141621 -0.015080 0.0
2.145216 -0.008409 0.0
2.146972 -0.001975 0.0
2.146967 0.004224 0.0
2.145273 0.010196 0.0
2.141958 0.015956 0.0
2.137083 0.021520 0.0
2.130704 0.026905 0.0
2.122872 0.032129 0.0
2.113628 0.037210 0.0
2.103013 0.042161 0.0
2.091059 0.046993 0.0
2.077797 0.051713 0.0
2.063256 0.056322 0.0
2.047465 0.060817 0.0
2.030456 0.065188 0.0
2.012261 0.069423 0.0
1.992922 0.073501 0.0
1.972483 0.077400 0.0
1.950998 0.081093 0.0
1.928530 0.084554 0.0
1.905148 0.087752 0.0
1.880932 0.090660 0.0
1.855969 0.093253 0.0
1.830353 0.095505 0.0
1.804185 0.097399 0.0
1.777568 0.098917 0.0
1.750609 0.100049 0.0
1.723416 0.100789 0.0
1.696097 0.101135 0.0
1.668756 0.101088 0.0
1.641495 0.100654 0.0
1.614413 0.099843 0.0
1.587600 0.098666 0.0
1.561143 0.097139 0.0
1.535119 0.095277 0.0
1.509602 0.093100 0.0
1.484653 0.090630 0.0
1.460329 0.087888 0.0
1.436679 0.084900 0.0
1.413741 0.081695 0.0
1.391549 0.078304 0.0
1.370129 0.074760 0.0
1.349500 0.071100 0.0
1.329675 0.067364 0.0
1.310662 0.063590 0.0
1.292463 0.059821 0.0
1.275078 0.056096 0.0
1.258502 0.052452 0.0
1.242728 0.048923 0.0
1.227743 0.045536 0.0
1.213535 0.042315 0.0
1.200085 0.039276 0.0
1.187375 0.036429 0.0
1.175384 0.033779 0.0
1.164086 0.031325 0.0
1.153457 0.029063 0.0
1.143470 0.026983 0.0
1.134096 0.025074 0.0
1.125306 0.023325 0.0
1.117073 0.021722 0.0
1.109366 0.020250 0.0
1.102158 0.018898 0.0
1.095420 0.017651 0.0
1.089127 0.016500 0.0
1.083251 0.015434 0.0
1.077768 0.014443 0.0
1.072653 0.013521 0.0
1.067885 0.012660 0.0
1.063440 0.011855 0.0
1.059299 0.011100 0.0
1.055442 0.010392 0.0
1.051850 0.009728 0.0
1.048506 0.009104 0.0
1.045393 0.008517 0.0
1.042496 0.007966 0.0
1.039800 0.007449 0.0
1.037291 0.006963 0.0
1.034958 0.006506 0.0
1.032787 0.006078 0.0
1.030767 0.005677 0.0
1.028889 0.005301 0.0
1.027141 0.004948 0.0
1.025516 0.004618 0.0
1.024004 0.004310 0.0
1.022597 0.004021 0.0
1.021289 0.003751 0.0
1.020071 0.003499 0.0
1.018938 0.003264 0.0
1.017884 0.003044 0.0
1.016903 0.002839 0.0
1.015990 0.002647 0.0
1.015141 0.002468 0.0
1.014350 0.002301 0.0
1.013614 0.002146 0.0
1.012928 0.002000 0.0
1.012290 0.001865 0.0
1.011696 0.001738 0.0
1.011143 0.001620 0.0
1.010628 0.001510 0.0
1.010149 0.001407 0.0
1.009703 0.001310 0.0
1.009287 0.001220 0.0
1.008901 0.001136 0.0
1.008541 0.001057 0.0
1.008207 0.000983 0.0
1.007896 0.000913 0.0
1.007607 0.000848 0.0
1.007338 0.000786 0.0
1.007089 0.000729 0.0
1.006859 0.000674 0.0
1.006645 0.000622 0.0
1.006448 0.000573 0.0
1.006266 0.000527 0.0
1.006098 0.000483 0.0
1.005944 0.000440 0.0
1.005803 0.000400 0.0
1.005675 0.000360 0.0
1.005559 0.000322 0.0
1.005454 0.000285 0.0
1.005361 0.000248 0.0
1.005278 0.000212 0.0
1.005206 0.000175 0.0
1.005145 0.000138 0.0
1.005094 0.000098 0.0
1.005053 0.000057 0.0
1.005021 0.000011 0.0
1.004999 -0.000039 0.0
1.004984 -0.000098 0.0
1.004972 -0.000166 0.0
1.004960 -0.000245 0.0
1.004941 -0.000332 0.0
1.000095 -0.000573 0.0
1.000468 -0.001735 0.0
1.001194 -0.002938 0.0
1.002255 -0.004194 0.0
1.003637 -0.005502 0.0
1.005336 -0.006864 0.0
1.007352 -0.008280 0.0
1.009689 -0.009750 0.0
1.012356 -0.011279 0.0
1.015361 -0.012870 0.0
1.018717 -0.014528 0.0
1.022437 -0.016259 0.0
1.026536 -0.018069 0.0
1.031032 -0.019965 0.0
1.035943 -0.021954 0.0
1.041290 -0.024044 0.0
1.047095 -0.026241 0.0
1.053382 -0.028553 0.0
1.060176 -0.030987 0.0
1.067506 -0.033551 0.0
1.075400 -0.036252 0.0
1.083891 -0.039096 0.0
1.093009 -0.042089 0.0
1.102791 -0.045237 0.0
1.113272 -0.048546 0.0
1.124490 -0.052020 0.0
1.136484 -0.055664 0.0
1.149294 -0.059482 0.0
1.162963 -0.063480 0.0
1.177536 -0.067660 0.0
1.193057 -0.072030 0.0
1.209575 -0.076591 0.0
1.227138 -0.081347 0.0
1.245796 -0.086297 0.0
1.265600 -0.091435 0.0
1.286598 -0.096748 0.0
1.308834 -0.102214 0.0
1.332347 -0.107797 0.0
1.357166 -0.113451 0.0
1.383308 -0.119114 0.0
1.410774 -0.124711 0.0
1.439546 -0.130154 0.0
1.469585 -0.135344 0.0
1.500827 -0.140177 0.0
1.533183 -0.144541 0.0
1.566537 -0.148328 0.0
1.600750 -0.151428 0.0
1.635652 -0.153741 0.0
1.671052 -0.155176 0.0
1.706737 -0.155655 0.0
1.742474 -0.155116 0.0
1.778015 -0.153516 0.0
1.813100 -0.150834 0.0
1.847465 -0.147070 0.0
1.880846 -0.142251 0.0
1.912987 -0.136429 0.0
1.943647 -0.129678 0.0
1.972606 -0.122096 0.0
1.999672 -0.113801 0.0
2.024689 -0.104924 0.0
2.047536 -0.095602 0.0
2.068134 -0.085977 0.0
2.086439 -0.076181 0.0
2.102443 -0.066337 0.0
2.116168 -0.056552 0.0
2.127661 -0.046913 0.0
2.136985 -0.037489 0.0
2.144217 -0.028329 0.0
2.149441 -0.019467 0.0
2.152744 -0.010919 0.0
2.154212 -0.002690 0.0
2.153928 0.005226 0.0
2.151972 0.012844 0.0
2.148415 0.020182 0.0
2.143320 0.027264 0.0
2.136744 0.034115 0.0
2.128736 0.040760 0.0
2.119337 0.047222 0.0
2.108581 0.053520 0.0
2.096499 0.059670 0.0
2.083116 0.065681 0.0
2.068456 0.071555 0.0
2.052544 0.077287 0.0
2.035404 0.082867 0.0
2.017068 0.088275 0.0
1.997570 0.093486 0.0
1.976955 0.098469 0.0
1.955275 0.103189 0.0
1.932593 0.107609 0.0
1.908981 0.111690 0.0
1.884525 0.115395 0.0
1.859314 0.118691 0.0
1.833451 0.121546 0.0
1.807042 0.123936 0.0
1.780198 0.125841 0.0
1.753032 0.127250 0.0
1.725658 0.128155 0.0
1.698190 0.128557 0.0
1.670736 0.128461 0.0
1.643402 0.127877 0.0
1.616284 0.126820 0.0
1.589475 0.125310 0.0
1.563059 0.123368 0.0
1.537110 0.121020 0.0
1.511694 0.118291 0.0
1.486870 0.115212 0.0
1.462685 0.111814 0.0
1.439180 0.108130 0.0
1.416388 0.104196 0.0
1.394332 0.100050 0.0
1.373031 0.095734 0.0
1.352498 0.091288 0.0
1.332740 0.086758 0.0
1.313761 0.082188 0.0
1.295561 0.077622 0.0
1.278138 0.073103 0.0
1.261488 0.068671 0.0
1.245603 0.064363 0.0
1.230477 0.060207 0.0
1.216097 0.056231 0.0
1.202453 0.052452 0.0
1.189531 0.048884 0.0
1.177314 0.045533 0.0
1.165783 0.042399 0.0
1.154920 0.039481 0.0
1.144700 0.036771 0.0
1.135102 0.034259 0.0
1.126100 0.031933 0.0
1.117668 0.029780 0.0
1.109780 0.027787 0.0
1.102409 0.025940 0.0
1.095527 0.024228 0.0
1.089108 0.022637 0.0
1.083125 0.021156 0.0
1.077553 0.019777 0.0
1.072366 0.018489 0.0
1.067539 0.017287 0.0
1.063050 0.016161 0.0
1.058876 0.015108 0.0
1.054997 0.014121 0.0
1.051391 0.013196 0.0
1.048041 0.012330 0.0
1.044928 0.011517 0.0
1.042036 0.010756 0.0
1.039349 0.010042 0.0
1.036852 0.009374 0.0
1.034533 0.008748 0.0
1.032378 0.008162 0.0
1.030376 0.007614 0.0
1.028515 0.007102 0.0
1.026786 0.006623 0.0
1.025179 0.006176 0.0
1.023685 0.005758 0.0
1.022296 0.005368 0.0
1.021005 0.005004 0.0
1.019804 0.004665 0.0
1.018687 0.004348 0.0
1.017649 0.004053 0.0
1.016682 0.003777 0.0
1.015783 0.003520 0.0
1.014947 0.003281 0.0
1.014168 0.003058 0.0
1.013444 0.002850 0.0
1.012770 0.002656 0.0
1.012142 0.002475 0.0
1.011557 0.002306 0.0
1.011013 0.002149 0.0
1.010507 0.002002 0.0
1.010035 0.001865 0.0
1.009596 0.001737 0.0
1.009188 0.001617 0.0
1.008807 0.001505 0.0
1.008454 0.001400 0.0
1.008125 0.001302 0.0
1.007819 0.001210 0.0
1.007534 0.001124 0.0
1.007270 0.001043 0.0
1.007025 0.000966 0.0
1.006798 0.000894 0.0
1.006588 0.000826 0.0
1.006393 0.000762 0.0
1.006214 0.000700 0.0
1.006049 0.000642 0.0
1.005897 0.000587 0.0
1.005758 0.000533 0.0
1.005631 0.000482 0.0
1.005516 0.000432 0.0
1.005412 0.000384 0.0
1.005319 0.000336 0.0
1.005237 0.000289 0.0
1.005164 0.000242 0.0
1.005102 0.000194 0.0
1.005049 0.000146 0.0
1.005005 0.000095 0.0
1.004969 0.000040 0.0
1.004941 -0.000018 0.0
1.004919 -0.000082 0.0
1.004900 -0.000152 0.0
1.004882 -0.000228 0.0
1.004862 -0.000311 0.0
1.000087 -0.000755 0.0
1.000432 -0.002270 0.0
1.001113 -0.003810 0.0
1.002119 -0.005389 0.0
1.003443 -0.007014 0.0
1.005081 -0.008690 0.0
1.007034 -0.010423 0.0
1.009305 -0.012216 0.0
1.011901 -0.014076 0.0
1.014831 -0.016008 0.0
1.018106 -0.018020 0.0
1.021740 -0.020120 0.0
1.025746 -0.022314 0.0
1.030142 -0.024612 0.0
1.034946 -0.027023 0.0
1.040179 -0.029555 0.0
1.045863 -0.032218 0.0
1.052021 -0.035021 0.0
1.058680 -0.037973 0.0
1.065868 -0.041083 0.0
1.073614 -0.044360 0.0
1.081950 -0.047813 0.0
1.090909 -0.051449 0.0
1.100528 -0.055277 0.0
1.110842 -0.059302 0.0
1.121892 -0.063532 0.0
1.133719 -0.067972 0.0
1.146365 -0.072630 0.0
1.159875 -0.077511 0.0
1.174297 -0.082623 0.0
1.189680 -0.087971 0.0
1.206076 -0.093563 0.0
1.223539 -0.099401 0.0
1.242124 -0.105486 0.0
1.261887 -0.111812 0.0
1.282880 -0.118362 0.0
1.305156 -0.125111 0.0
1.328758 -0.132015 0.0
1.353720 -0.139016 0.0
1.380066 -0.146038 0.0
1.407800 -0.152988 0.0
1.436909 -0.159758 0.0
1.467356 -0.166226 0.0
1.499080 -0.172261 0.0
1.531994 -0.177727 0.0
1.565982 -0.182485 0.0
1.600901 -0.186401 0.0
1.636580 -0.189349 0.0
1.672822 -0.191211 0.0
1.709405 -0.191888 0.0
1.746084 -0.191299 0.0
1.782597 -0.189386 0.0
1.818665 -0.186117 0.0
1.854004 -0.181490 0.0
1.888326 -0.175534 0.0
1.921351 -0.168311 0.0
1.952811 -0.159915 0.0
1.982465 -0.150472 0.0
2.010104 -0.140131 0.0
2.035557 -0.129064 0.0
2.058700 -0.117452 0.0
2.079453 -0.105478 0.0
2.097783 -0.093315 0.0
2.113697 -0.081121 0.0
2.127235 -0.069032 0.0
2.138464 -0.057155 0.0
2.147468 -0.045575 0.0
2.154344 -0.034351 0.0
2.159192 -0.023518 0.0
2.162113 -0.013093 0.0
2.163207 -0.003078 0.0
2.162566 0.006538 0.0
2.160276 0.015778 0.0
2.156411 0.024669 0.0
2.151039 0.033243 0.0
2.144217 0.041534 0.0
2.135991 0.049576 0.0
2.126399 0.057398 0.0
2.115471 0.065028 0.0
2.103231 0.072485 0.0
2.089698 0.079782 0.0
2.074888 0.086923 0.0
2.058816 0.093902 0.0
2.041502 0.100706 0.0
2.022966 0.107308 0.0
2.003239 0.113677 0.0
1.982359 0.119773 0.0
1.960376 0.125549 0.0
1.937351 0.130956 0.0
1.913360 0.135945 0.0
1.888489 0.140468 0.0
1.862836 0.144481 0.0
1.836508 0.147946 0.0
1.809620 0.150832 0.0
1.782292 0.153117 0.0
1.754646 0.154786 0.0
1.726806 0.155833 0.0
1.698891 0.156262 0.0
1.671017 0.156082 0.0
1.643296 0.155311 0.0
1.615830 0.153970 0.0
1.588713 0.152086 0.0
1.562032 0.149691 0.0
1.535860 0.146818 0.0
1.510265 0.143504 0.0
1.485300 0.139788 0.0
1.461012 0.135710 0.0
1.437436 0.131313 0.0
1.414602 0.126639 0.0
1.392529 0.121736 0.0
1.371231 0.116648 0.0
1.350716 0.111423 0.0
1.330986 0.106111 0.0
1.312043 0.100758 0.0
1.293882 0.095413 0.0
1.276498 0.090119 0.0
1.259885 0.084919 0.0
1.244034 0.079850 0.0
1.228936 0.074945 0.0
1.214580 0.070229 0.0
1.200955 0.065724 0.0
1.188046 0.061444 0.0
1.175839 0.057397 0.0
1.164316 0.053588 0.0
1.153459 0.050014 0.0
1.143246 0.046670 0.0
1.133656 0.043548 0.0
1.124665 0.040637 0.0
1.116247 0.037925 0.0
1.108378 0.035399 0.0
1.101030 0.033047 0.0
1.094176 0.030856 0.0
1.087790 0.028813 0.0
1.081844 0.026908 0.0
1.076312 0.025129 0.0
1.071168 0.023468 0.0
1.066388 0.021915 0.0
1.061947 0.020463 0.0
1.057823 0.019105 0.0
1.053993 0.017834 0.0
1.050437 0.016645 0.0
1.047137 0.015532 0.0
1.044073 0.014491 0.0
1.041228 0.013518 0.0
1.038588 0.012607 0.0
1.036136 0.011756 0.0
1.033860 0.010961 0.0
1.031747 0.010218 0.0
1.029784 0.009524 0.0
1.027961 0.008876 0.0
1.026267 0.008272 0.0
1.024694 0.007708 0.0
1.023232 0.007182 0.0
1.021873 0.006692 0.0
1.020610 0.006235 0.0
1.019435 0.005809 0.0
1.018343 0.005412 0.0
1.017328 0.005042 0.0
1.016383 0.004698 0.0
1.015505 0.004377 0.0
1.014687 0.004078 0.0
1.013926 0.003800 0.0
1.013218 0.003541 0.0
1.012559 0.003299 0.0
1.011946 0.003074 0.0
1.011374 0.002864 0.0
1.010843 0.002668 0.0
1.010347 0.002485 0.0
1.009886 0.002315 0.0
1.009457 0.002156 0.0
1.009058 0.002007 0.0
1.008686 0.001868 0.0
1.008340 0.001738 0.0
1.008018 0.001616 0.0
1.007719 0.001502 0.0
1.007440 0.001395 0.0
1.007182 0.001294 0.0
1.006942 0.001200 0.0
1.006720 0.001110 0.0
1.006513 0.001026 0.0
1.006323 0.000946 0.0
1.006147 0.000871 0.0
1.005985 0.000799 0.0
1.005836 0.000730 0.0
1.005699 0.000665 0.0
1.005575 0.000602 0.0
1.005461 0.000541 0.0
1.005359 0.000481 0.0
1.005267 0.000424 0.0
1.005184 0.000366 0.0
1.005112 0.000310 0.0
1.005049 0.000253 0.0
1.004994 0.000195 0.0
1.004948 0.000136 0.0
1.004909 0.000074 0.0
1.004877 0.000009 0.0
1.004850 -0.000060 0.0
1.004826 -0.000132 0.0
1.004805 -0.000208 0.0
1.004784 -0.000290 0.0
1.000082 -0.000924 0.0
1.000406 -0.002771 0.0
1.001050 -0.004634 0.0
1.002008 -0.006529 0.0
1.003276 -0.008465 0.0
1.004851 -0.010452 0.0
1.006735 -0.012497 0.0
1.008932 -0.014609 0.0
1.011447 -0.016794 0.0
1.014289 -0.019062 0.0
1.017469 -0.021422 0.0
1.021000 -0.023882 0.0
1.024895 -0.026453 0.0
1.029172 -0.029146 0.0
1.033848 -0.031970 0.0