# vtk DataFile Version 3.0
Scalar Field
ASCII
DATASET RECTILINEAR_GRID
DIMENSIONS 200 75 1
X_COORDINATES 200 double
0.050000 0.150000 0.250000 0.350000 0.450000 0.550000 0.650000 0.750000 0.850000 0.950000 1.050000 1.150000 1.250000 1.350000 1.450000 1.550000 1.650000 1.750000 1.850000 1.950000 2.050000 2.150000 2.250000 2.350000 2.450000 2.550000 2.650000 2.750000 2.850000 2.950000 3.050000 3.150000 3.250000 3.350000 3.450000 3.550000 3.650000 3.750000 3.850000 3.950000 4.050000 4.150000 4.250000 4.350000 4.450000 4.550000 4.650000 4.750000 4.850000 4.950000 5.050000 5.150000 5.250000 5.350000 5.450000 5.550000 5.650000 5.750000 5.850000 5.950000 6.050000 6.150000 6.250000 6.350000 6.450000 6.550000 6.650000 6.750000 6.850000 6.950000 7.050000 7.150000 7.250000 7.350000 7.450000 7.550000 7.650000 7.750000 7.850000 7.950000 8.050000 8.150000 8.250000 8.350000 8.450000 8.550000 8.650000 8.750000 8.850000 8.950000 9.050000 9.150000 9.250000 9.350000 9.450000 9.550000 9.650000 9.750000 9.850000 9.950000 10.050000 10.150000 10.250000 10.350000 10.450000 10.550000 10.650000 10.750000 10.850000 10.950000 11.050000 11.150000 11.250000 11.350000 11.450000 11.550000 11.650000 11.750000 11.850000 11.950000 12.050000 12.150000 12.250000 12.350000 12.450000 12.550000 12.650000 12.750000 12.850000 12.950000 13.050000 13.150000 13.250000 13.350000 13.450000 13.550000 13.650000 13.750000 13.850000 13.950000 14.050000 14.150000 14.250000 14.350000 14.450000 14.550000 14.650000 14.750000 14.850000 14.950000 15.050000 15.150000 15.250000 15.350000 15.450000 15.550000 15.650000 15.750000 15.850000 15.950000 16.050000 16.150000 16.250000 16.350000 16.450000 16.550000 16.650000 16.750000 16.850000 16.950000 17.050000 17.150000 17.250000 17.350000 17.450000 17.550000 17.650000 17.750000 17.850000 17.950000 18.050000 18.150000 18.250000 18.350000 18.450000 18.550000 18.650000 18.750000 18.850000 18.950000 19.050000 19.150000 19.250000 19.350000 19.450000 19.550000 19.650000 19.750000 19.850000 19.950000 
Y_COORDINATES 75 double
0.050000 0.150000 0.250000 0.350000 0.450000 0.550000 0.650000 0.750000 0.850000 0.950000 1.050000 1.150000 1.250000 1.350000 1.450000 1.550000 1.650000 1.750000 1.850000 1.950000 2.050000 2.150000 2.250000 2.350000 2.450000 2.550000 2.650000 2.750000 2.850000 2.950000 3.050000 3.150000 3.250000 3.350000 3.450000 3.550000 3.650000 3.750000 3.850000 3.950000 4.050000 4.150000 4.250000 4.350000 4.450000 4.550000 4.650000 4.750000 4.850000 4.950000 5.050000 5.150000 5.250000 5.350000 5.450000 5.550000 5.650000 5.750000 5.850000 5.950000 6.050000 6.150000 6.250000 6.350000 6.450000 6.550000 6.650000 6.750000 6.850000 6.950000 7.050000 7.150000 7.250000 7.350000 7.450000 
Z_COORDINATES 1 double
0.0
POINT_DATA 15000
SCALARS Skalarfeld double 1
LOOKUP_TABLE default
0.608995
0.607590
0.606427
0.605209
0.603821
0.602204
0.600326
0.598164
0.595698
0.592909
0.589778
0.586286
0.582412
0.578132
0.573423
0.568257
0.562604
0.556430
0.549695
0.542354
0.534355
0.525641
0.516148
0.505811
0.494559
0.482322
0.469028
0.454604
0.438976
0.422070
0.403808
0.384112
0.362902
0.340099
0.315620
0.289388
0.261326
0.231365
0.199441
0.165503
0.129513
0.091452
0.051321
0.009149
-0.035006
-0.081051
-0.128854
-0.178241
-0.228994
-0.280846
-0.333485
-0.386554
-0.439654
-0.492349
-0.544174
-0.594646
-0.643275
-0.689574
-0.733077
-0.773347
-0.809990
-0.842666
-0.871096
-0.895067
-0.914437
-0.929136
-0.939172
-0.944547
-0.945388
-0.941870
-0.934208
-0.922659
-0.907513
-0.889085
-0.867713
-0.843745
-0.817536
-0.789442
-0.759811
-0.728982
-0.697280
-0.665006
-0.632445
-0.599854
-0.567466
-0.535490
-0.504105
-0.473468
-0.443708
-0.414934
-0.387229
-0.360659
-0.335269
-0.311086
-0.288126
-0.266389
-0.245864
-0.226531
-0.208363
-0.191323
-0.175374
-0.160472
-0.146570
-0.133620
-0.121573
-0.110381
-0.099992
-0.090360
-0.081437
-0.073176
-0.065534
-0.058468
-0.051938
-0.045905
-0.040333
-0.035188
-0.030438
-0.026053
-0.022005
-0.018269
-0.014820
-0.011636
-0.008696
-0.005981
-0.003474
-0.001158
0.000982
0.002959
0.004786
0.006476
0.008038
0.009483
0.010819
0.012055
0.013199
0.014258
0.015237
0.016144
0.016984
0.017761
0.018481
0.019147
0.019764
0.020335
0.020864
0.021353
0.021806
0.022225
0.022613
0.022971
0.023302
0.023608
0.023890
0.024151
0.024391
0.024611
0.024815
0.025001
0.025172
0.025329
0.025472
0.025602
0.025720
0.025828
0.025924
0.026011
0.026089
0.026157
0.026218
0.026270
0.026315
0.026353
0.026385
0.026410
0.026429
0.026442
0.026449
0.026451
0.026448
0.026439
0.026426
0.026408
0.026384
0.026357
0.026324
0.026287
0.026244
0.026197
0.026145
0.026087
0.026024
0.025954
0.025877
0.025792
0.025697
0.025590
0.025465
0.025312
0.025108
0.024991
0.607876
0.607349
0.606482
0.605382
0.604049
0.602466
0.600612
0.598470
0.596022
0.593251
0.590138
0.586664
0.582810
0.578551
0.573863
0.568719
0.563089
0.556936
0.550221
0.542898
0.534916
0.526217
0.516739
0.506416
0.495178
0.482956
0.469677
0.455268
0.439654
0.422761
0.404509
0.384820
0.363611
0.340803
0.316311
0.290056
0.261960
0.231951
0.199965
0.165948
0.129860
0.091681
0.051410
0.009075
-0.035266
-0.081522
-0.129561
-0.179207
-0.230240
-0.282393
-0.335349
-0.388747
-0.442183
-0.495214
-0.547370
-0.598161
-0.647088
-0.693660
-0.737403
-0.777876
-0.814682
-0.847478
-0.875986
-0.899992
-0.919356
-0.934001
-0.943908
-0.949160
-0.949855
-0.946164
-0.938303
-0.926535
-0.911152
-0.892475
-0.870843
-0.846611
-0.820136
-0.791777
-0.761886
-0.730806
-0.698860
-0.666355
-0.633574
-0.600776
-0.568196
-0.536040
-0.504491
-0.473702
-0.443806
-0.414908
-0.387094
-0.360427
-0.334952
-0.310698
-0.287677
-0.265890
-0.245326
-0.225964
-0.207774
-0.190722
-0.174767
-0.159865
-0.145968
-0.133029
-0.120996
-0.109821
-0.099452
-0.089841
-0.080941
-0.072703
-0.065085
-0.058043
-0.051536
-0.045526
-0.039977
-0.034854
-0.030125
-0.025760
-0.021732
-0.018014
-0.014582
-0.011414
-0.008489
-0.005789
-0.003295
-0.000991
0.001137
0.003103
0.004920
0.006600
0.008154
0.009590
0.010919
0.012148
0.013285
0.014337
0.015311
0.016213
0.017048
0.017821
0.018536
0.019199
0.019812
0.020380
0.020905
0.021392
0.021842
0.022259
0.022644
0.023000
0.023329
0.023633
0.023914
0.024173
0.024411
0.024631
0.024832
0.025018
0.025188
0.025343
0.025485
0.025615
0.025732
0.025839
0.025935
0.026021
0.026098
0.026166
0.026226
0.026278
0.026323
0.026361
0.026392
0.026416
0.026435
0.026448
0.026455
0.026457
0.026453
0.026445
0.026431
0.026413
0.026390
0.026362
0.026329
0.026292
0.026250
0.026203
0.026151
0.026093
0.026030
0.025961
0.025886
0.025802
0.025711
0.025608
0.025494
0.025367
0.025231
0.025121
0.607742
0.607447
0.606767
0.605784
0.604526
0.602994
0.601181
0.599073
0.596658
0.593920
0.590840
0.587402
0.583585
0.579365
0.574720
0.569620
0.564034
0.557927
0.551258
0.543981
0.536044
0.527389
0.517955
0.507675
0.496481
0.484303
0.471068
0.456704
0.441133
0.424280
0.406064
0.386404
0.365215
0.342414
0.317916
0.291636
0.263493
0.233412
0.201324
0.167171
0.130912
0.092519
0.051990
0.009348
-0.035351
-0.082016
-0.130517
-0.180678
-0.232276
-0.285038
-0.338643
-0.392720
-0.446854
-0.500591
-0.553447
-0.604914
-0.654480
-0.701639
-0.745901
-0.786816
-0.823977
-0.857039
-0.885720
-0.909810
-0.929171
-0.943737
-0.953508
-0.958544
-0.958957
-0.954927
-0.946680
-0.934486
-0.918644
-0.899483
-0.877351
-0.852607
-0.825618
-0.796748
-0.766355
-0.734784
-0.702364
-0.669405
-0.636192
-0.602986
-0.570022
-0.537508
-0.505625
-0.474529
-0.444351
-0.415197
-0.387151
-0.360277
-0.334619
-0.310205
-0.287048
-0.265146
-0.244487
-0.225048
-0.206801
-0.189707
-0.173725
-0.158808
-0.144909
-0.131977
-0.119960
-0.108807
-0.098467
-0.088889
-0.080024
-0.071825
-0.064247
-0.057245
-0.050780
-0.044811
-0.039301
-0.034217
-0.029527
-0.025198
-0.021205
-0.017521
-0.014121
-0.010983
-0.008087
-0.005414
-0.002945
-0.000666
0.001440
0.003385
0.005183
0.006845
0.008381
0.009801
0.011115
0.012330
0.013455
0.014495
0.015458
0.016350
0.017175
0.017939
0.018646
0.019301
0.019907
0.020468
0.020988
0.021468
0.021913
0.022325
0.022706
0.023058
0.023383
0.023683
0.023960
0.024216
0.024452
0.024669
0.024868
0.025051
0.025219
0.025373
0.025513
0.025641
0.025757
0.025862
0.025956
0.026041
0.026117
0.026184
0.026243
0.026294
0.026338
0.026375
0.026406
0.026430
0.026448
0.026460
0.026467
0.026468
0.026464
0.026455
0.026441
0.026423
0.026400
0.026372
0.026339
0.026302
0.026260
0.026213
0.026162
0.026105
0.026043
0.025976
0.025902
0.025822
0.025735
0.025640
0.025538
0.025431
0.025325
0.025225
0.608149
0.607930
0.607352
0.606458
0.605271
0.603797
0.602034
0.599973
0.597604
0.594911
0.591880
0.588493
0.584729
0.580567
0.575981
0.570945
0.565425
0.559387
0.552788
0.545582
0.537717
0.529135
0.519774
0.509568
0.498449
0.486347
0.473189
0.458899
0.443402
0.426618
0.408465
0.388857
0.367709
0.344930
0.320432
0.294127
0.265926
0.235750
0.203523
0.169181
0.132676
0.093975
0.053070
0.009978
-0.035249
-0.082525
-0.131719
-0.182654
-0.235106
-0.288794
-0.343388
-0.398504
-0.453711
-0.508536
-0.562470
-0.614984
-0.665540
-0.713606
-0.758674
-0.800272
-0.837982
-0.871450
-0.900393
-0.924606
-0.943958
-0.958395
-0.967932
-0.972629
-0.972608
-0.968062
-0.959231
-0.946394
-0.929864
-0.909980
-0.887100
-0.861596
-0.833843
-0.804215
-0.773078
-0.740783
-0.707667
-0.674041
-0.640195
-0.606391
-0.572867
-0.539829
-0.507461
-0.475917
-0.445328
-0.415800
-0.387416
-0.360239
-0.334312
-0.309663
-0.286302
-0.264227
-0.243424
-0.223868
-0.205529
-0.188366
-0.172337
-0.157392
-0.143480
-0.130550
-0.118548
-0.107420
-0.097113
-0.087575
-0.078756
-0.070606
-0.063080
-0.056132
-0.049721
-0.043807
-0.038352
-0.033322
-0.028683
-0.024405
-0.020460
-0.016822
-0.013467
-0.010371
-0.007515
-0.004880
-0.002447
-0.000201
0.001873
0.003789
0.005559
0.007195
0.008707
0.010105
0.011397
0.012593
0.013699
0.014722
0.015669
0.016546
0.017357
0.018109
0.018804
0.019448
0.020044
0.020595
0.021106
0.021579
0.022016
0.022421
0.022795
0.023141
0.023460
0.023756
0.024028
0.024279
0.024511
0.024724
0.024920
0.025099
0.025264
0.025415
0.025553
0.025678
0.025792
0.025895
0.025987
0.026070
0.026145
0.026210
0.026268
0.026318
0.026360
0.026396
0.026426
0.026449
0.026466
0.026478
0.026484
0.026484
0.026480
0.026471
0.026457
0.026438
0.026414
0.026387
0.026354
0.026317
0.026275
0.026229
0.026178
0.026123
0.026062
0.025996
0.025925
0.025848
0.025766
0.025679
0.025587
0.025493
0.025402
0.025310
0.608958
0.608770
0.608252
0.607424
0.606299
0.604884
0.603177
0.601172
0.598858
0.596224
0.593255
0.589933
0.586239
0.582151
0.577645
0.572692
0.567260
0.561312
0.554808
0.547699
0.539934
0.531453
0.522195
0.512095
0.501084
0.489090
0.476041
0.461859
0.446468
0.429784
0.411722
0.392194
0.371107
0.348369
0.323883
0.297553
0.269287
0.238995
0.206594
0.172012
0.135190
0.096088
0.054688
0.011001
-0.034930
-0.083022
-0.133146
-0.185127
-0.238734
-0.293680
-0.349623
-0.406161
-0.462839
-0.519157
-0.574577
-0.628534
-0.680454
-0.729772
-0.775947
-0.818481
-0.856937
-0.890951
-0.920240
-0.944603
-0.963925
-0.978167
-0.987363
-0.991582
-0.990957
-0.985702
-0.976071
-0.962359
-0.944894
-0.924030
-0.900141
-0.873611
-0.844829
-0.814183
-0.782049
-0.748788
-0.714743
-0.680232
-0.645547
-0.610955
-0.576693
-0.542969
-0.509966
-0.477837
-0.446713
-0.416699
-0.387875
-0.360305
-0.334030
-0.309074
-0.285448
-0.263147
-0.242155
-0.222445
-0.203983
-0.186727
-0.170631
-0.155643
-0.141710
-0.128777
-0.116788
-0.105686
-0.095416
-0.085925
-0.077159
-0.069068
-0.061605
-0.054723
-0.048379
-0.042532
-0.037144
-0.032180
-0.027605
-0.023391
-0.019507
-0.015927
-0.012627
-0.009585
-0.006780
-0.004192
-0.001805
0.000399
0.002432
0.004310
0.006045
0.007647
0.009128
0.010497
0.011762
0.012933
0.014015
0.015016
0.015943
0.016801
0.017594
0.018329
0.019009
0.019638
0.020221
0.020761
0.021260
0.021722
0.022150
0.022545
0.022911
0.023249
0.023561
0.023850
0.024116
0.024361
0.024587
0.024795
0.024987
0.025162
0.025323
0.025470
0.025604
0.025726
0.025837
0.025937
0.026028
0.026108
0.026180
0.026244
0.026300
0.026348
0.026389
0.026424
0.026452
0.026474
0.026490
0.026501
0.026506
0.026506
0.026501
0.026491
0.026477
0.026457
0.026434
0.026406
0.026373
0.026336
0.026295
0.026249
0.026199
0.026145
0.026086
0.026022
0.025953
0.025880
0.025803
0.025722
0.025638
0.025553
0.025471
0.025383
0.610110
0.609939
0.609460
0.608683
0.607614
0.606257
0.604610
0.602667
0.600420
0.597856
0.594961
0.591720
0.588112
0.584116
0.579707
0.574857
0.569534
0.563701
0.557316
0.550331
0.542693
0.534343
0.525220
0.515257
0.504386
0.492534
0.479628
0.465590
0.450338
0.433788
0.415850
0.396431
0.375432
0.352755
0.328295
0.301948
0.273613
0.243189
0.210584
0.175713
0.138505
0.098910
0.056897
0.012467
-0.034346
-0.083465
-0.134768
-0.188078
-0.243161
-0.299720
-0.357397
-0.415768
-0.474350
-0.532606
-0.589955
-0.645788
-0.699483
-0.750426
-0.798034
-0.841772
-0.881179
-0.915878
-0.945584
-0.970110
-0.989359
-1.003318
-1.012047
-1.015625
-1.014209
-1.008032
-0.997369
-0.982532
-0.963869
-0.941751
-0.916571
-0.888732
-0.858641
-0.826702
-0.793305
-0.758824
-0.723609
-0.687986
-0.652253
-0.616676
-0.581495
-0.546919
-0.513129
-0.480278
-0.448494
-0.417880
-0.388517
-0.360464
-0.333761
-0.308430
-0.284479
-0.261901
-0.240676
-0.220775
-0.202161
-0.184789
-0.168608
-0.153565
-0.139602
-0.126662
-0.114684
-0.103610
-0.093382
-0.083944
-0.075240
-0.067218
-0.059828
-0.053022
-0.046757
-0.040990
-0.035682
-0.030796
-0.026299
-0.022160
-0.018349
-0.014839
-0.011607
-0.008629
-0.005885
-0.003355
-0.001022
0.001129
0.003114
0.004946
0.006638
0.008200
0.009643
0.010976
0.012208
0.013348
0.014402
0.015376
0.016278
0.017112
0.017884
0.018599
0.019260
0.019872
0.020439
0.020963
0.021449
0.021898
0.022313
0.022698
0.023053
0.023381
0.023685
0.023965
0.024223
0.024462
0.024681
0.024883
0.025069
0.025239
0.025395
0.025538
0.025668
0.025786
0.025893
0.025990
0.026077
0.026155
0.026225
0.026286
0.026339
0.026386
0.026425
0.026458
0.026484
0.026505
0.026520
0.026529
0.026533
0.026532
0.026527
0.026516
0.026501
0.026482
0.026458
0.026429
0.026397
0.026360
0.026319
0.026274
0.026225
0.026172
0.026114
0.026052
0.025986
0.025917
0.025843
0.025767
0.025689
0.025611
0.025534
0.025450
0.611574
0.611415
0.610966
0.610231
0.609214
0.607916
0.606332
0.604458
0.602285
0.599802
0.596995
0.593847
0.590341
0.586454
0.582162
0.577436
0.572244
0.566549
0.560309
0.553474
0.545991
0.537802
0.528845
0.519053
0.508356
0.496683
0.483957
0.470098
0.455024
0.438644
0.420866
0.401589
0.380709
0.358118
0.333703
0.307352
0.278949
0.248383
0.215547
0.180343
0.142686
0.102508
0.059766
0.014445
-0.033433
-0.083801
-0.136542
-0.191482
-0.248383
-0.306938
-0.366769
-0.427425
-0.488387
-0.549073
-0.608847
-0.667041
-0.722969
-0.775954
-0.825353
-0.870585
-0.911155
-0.946670
-0.976850
-1.001526
-1.020631
-1.034188
-1.042294
-1.045043
-1.042623
-1.035289
-1.023340
-1.007108
-0.986960
-0.963292
-0.936518
-0.907066
-0.875367
-0.841842
-0.806901
-0.770932
-0.734296
-0.697326
-0.660325
-0.623562
-0.587278
-0.551680
-0.516949
-0.483235
-0.450664
-0.419337
-0.389331
-0.360704
-0.333493
-0.307717
-0.283381
-0.260474
-0.238973
-0.218846
-0.200052
-0.182541
-0.166259
-0.151149
-0.137149
-0.124198
-0.112232
-0.101190
-0.091009
-0.081631
-0.072997
-0.065054
-0.057749
-0.051032
-0.044858
-0.039184
-0.033968
-0.029174
-0.024768
-0.020716
-0.016990
-0.013562
-0.010409
-0.007506
-0.004833
-0.002371
-0.000103
0.001988
0.003915
0.005694
0.007335
0.008849
0.010248
0.011540
0.012733
0.013837
0.014856
0.015800
0.016672
0.017479
0.018225
0.018916
0.019556
0.020147
0.020695
0.021202
0.021671
0.022105
0.022506
0.022877
0.023220
0.023538
0.023831
0.024101
0.024350
0.024580
0.024792
0.024987
0.025166
0.025330
0.025480
0.025617
0.025742
0.025856
0.025959
0.026052
0.026136
0.026210
0.026277
0.026335
0.026386
0.026430
0.026467
0.026498
0.026522
0.026541
0.026555
0.026563
0.026566
0.026564
0.026557
0.026546
0.026530
0.026510
0.026486
0.026457
0.026425
0.026388
0.026348
0.026303
0.026255
0.026203
0.026146
0.026087
0.026023
0.025957
0.025887
0.025815
0.025741
0.025667
0.025594
0.025512
0.613330
0.613179
0.612756
0.612060
0.611093
0.609853
0.608337
0.606538
0.604448
0.602056
0.599349
0.596309
0.592920
0.589159
0.585003
0.580422
0.575383
0.569850
0.563780
0.557122
0.549825
0.541828
0.533069
0.523482
0.512997
0.501539
0.489032
0.475394
0.460537
0.444368
0.426789
0.407692
0.386966
0.364493
0.340150
0.313812
0.285350
0.254638
0.221553
0.185979
0.147813
0.106967
0.063380
0.017019
-0.032111
-0.083956
-0.138410
-0.195302
-0.254391
-0.315359
-0.377807
-0.441251
-0.505128
-0.568800
-0.631563
-0.692671
-0.751355
-0.806853
-0.858447
-0.905489
-0.947442
-0.983895
-1.014578
-1.039352
-1.058200
-1.071194
-1.078482
-1.080181
-1.076512
-1.067762
-1.054248
-1.036324
-1.014381
-0.988838
-0.960141
-0.928746
-0.895112
-0.859686
-0.822900
-0.785159
-0.746838
-0.708276
-0.669782
-0.631627
-0.594050
-0.557257
-0.521427
-0.486707
-0.453219
-0.421062
-0.390310
-0.361016
-0.333214
-0.306922
-0.282139
-0.258851
-0.237031
-0.216643
-0.197639
-0.179968
-0.163570
-0.148383
-0.134341
-0.121377
-0.109425
-0.098418
-0.088291
-0.078982
-0.070429
-0.062576
-0.055368
-0.048754
-0.042685
-0.037116
-0.032007
-0.027318
-0.023014
-0.019063
-0.015434
-0.012101
-0.009037
-0.006220
-0.003629
-0.001245
0.000949
0.002971
0.004833
0.006550
0.008133
0.009593
0.010941
0.012185
0.013334
0.014396
0.015377
0.016284
0.017123
0.017899
0.018616
0.019280
0.019894
0.020463
0.020988
0.021475
0.021925
0.022342
0.022727
0.023083
0.023413
0.023717
0.023998
0.024257
0.024496
0.024717
0.024919
0.025106
0.025277
0.025434
0.025578
0.025709
0.025828
0.025937
0.026035
0.026124
0.026203
0.026274
0.026337
0.026392
0.026440
0.026481
0.026515
0.026544
0.026566
0.026583
0.026595
0.026601
0.026603
0.026600
0.026592
0.026580
0.026563
0.026543
0.026518
0.026489
0.026457
0.026420
0.026380
0.026336
0.026289
0.026237
0.026183
0.026125
0.026063
0.025999
0.025933
0.025864
0.025794
0.025723
0.025653
0.025572
0.615358
0.615216
0.614817
0.614159
0.613241
0.612063
0.610618
0.608900
0.606902
0.604611
0.602015
0.599097
0.595841
0.592224
0.588221
0.583806
0.578943
0.573597
0.567722
0.561271
0.554189
0.546416
0.537890
0.528544
0.518307
0.507105
0.494859
0.481484
0.466888
0.450976
0.433639
0.414767
0.394236
0.371919
0.347681
0.321382
0.292879
0.262026
0.228682
0.192709
0.153982
0.112389
0.067845
0.020294
-0.030279
-0.083840
-0.140297
-0.199487
-0.261166
-0.325008
-0.390588
-0.457388
-0.524789
-0.592085
-0.658488
-0.723152
-0.785202
-0.843764
-0.898014
-0.947219
-0.990782
-1.028273
-1.059443
-1.084208
-1.102621
-1.114832
-1.121058
-1.121440
-1.116249
-1.105795
-1.090412
-1.070473
-1.046391
-1.018617
-0.987631
-0.953928
-0.918001
-0.880332
-0.841377
-0.801563
-0.761276
-0.720867
-0.680646
-0.640885
-0.601822
-0.563658
-0.526568
-0.490696
-0.456159
-0.423052
-0.391445
-0.361389
-0.332913
-0.306031
-0.280738
-0.257015
-0.234832
-0.214147
-0.194907
-0.177055
-0.160526
-0.145252
-0.131163
-0.118187
-0.106252
-0.095287
-0.085223
-0.075993
-0.067533
-0.059784
-0.052686
-0.046187
-0.040237
-0.034789
-0.029799
-0.025229
-0.021042
-0.017205
-0.013686
-0.010458
-0.007496
-0.004776
-0.002278
0.000019
0.002131
0.004074
0.005863
0.007510
0.009028
0.010428
0.011718
0.012909
0.014009
0.015024
0.015962
0.016828
0.017629
0.018370
0.019055
0.019688
0.020274
0.020816
0.021318
0.021782
0.022211
0.022608
0.022975
0.023314
0.023628
0.023918
0.024185
0.024432
0.024660
0.024869
0.025062
0.025240
0.025402
0.025551
0.025688
0.025812
0.025925
0.026028
0.026120
0.026204
0.026279
0.026345
0.026404
0.026455
0.026500
0.026538
0.026570
0.026596
0.026616
0.026630
0.026640
0.026645
0.026645
0.026640
0.026631
0.026618
0.026601
0.026579
0.026554
0.026525
0.026492
0.026456
0.026416
0.026373
0.026326
0.026276
0.026222
0.026166
0.026107
0.026045
0.025981
0.025915
0.025847
0.025779
0.025710
0.025632
0.617645
0.617511
0.617135
0.616515
0.615649
0.614533
0.613164
0.611535
0.609636
0.607456
0.604983
0.602202
0.599093
0.595637
0.591808
0.587578
0.582915
0.577779
0.572128
0.565912
0.559076
0.551560
0.543303
0.534236
0.524288
0.513384
0.501442
0.488376
0.474091
0.458483
0.441441
0.422841
0.402554
0.380440
0.356348
0.330125
0.301607
0.270629
0.237026
0.200636
0.161305
0.118894
0.073287
0.024399
-0.027812
-0.083340
-0.142108
-0.203968
-0.268681
-0.335907
-0.405201
-0.476001
-0.547628
-0.619292
-0.690100
-0.759083
-0.825222
-0.887501
-0.944951
-0.996716
-1.042118
-1.080708
-1.112279
-1.136838
-1.154549
-1.165674
-1.170524
-1.169278
-1.162259
-1.149790
-1.132210
-1.109903
-1.083303
-1.052899
-1.019215
-0.982794
-0.944179
-0.903889
-0.862413
-0.820201
-0.777655
-0.735131
-0.692942
-0.651357
-0.610609
-0.570895
-0.532382
-0.495208
-0.459486
-0.425306
-0.392734
-0.361816
-0.332578
-0.305029
-0.279161
-0.254949
-0.232358
-0.211339
-0.191836
-0.173783
-0.157110
-0.141742
-0.127604
-0.114617
-0.102704
-0.091789
-0.081798
-0.072659
-0.064306
-0.056674
-0.049702
-0.043334
-0.037518
-0.032205
-0.027351
-0.022914
-0.018857
-0.015146
-0.011750
-0.008641
-0.005791
-0.003179
-0.000783
0.001416
0.003436
0.005293
0.007000
0.008571
0.010017
0.011349
0.012577
0.013709
0.014753
0.015717
0.016607
0.017429
0.018188
0.018890
0.019539
0.020139
0.020694
0.021207
0.021681
0.022120
0.022526
0.022902
0.023249
0.023570
0.023866
0.024140
0.024393
0.024626
0.024840
0.025038
0.025220
0.025387
0.025540
0.025681
0.025809
0.025926
0.026032
0.026128
0.026215
0.026293
0.026362
0.026424
0.026479
0.026526
0.026567
0.026601
0.026630
0.026653
0.026670
0.026683
0.026690
0.026693
0.026691
0.026685
0.026675
0.026660
0.026642
0.026620
0.026594
0.026565
0.026532
0.026495
0.026456
0.026413
0.026366
0.026317
0.026265
0.026210
0.026152
0.026092
0.026030
0.025966
0.025901
0.025835
0.025768
0.025691
0.620174
0.620049
0.619696
0.619115
0.618302
0.617254
0.615966
0.614430
0.612639
0.610581
0.608243
0.605611
0.602665
0.599387
0.595750
0.591728
0.587286
0.582387
0.576986
0.571034
0.564476
0.557253
0.549300
0.540552
0.530935
0.520374
0.508785
0.496079
0.482156
0.466907
0.450214
0.431944
0.411957
0.390100
0.366207
0.340105
0.311611
0.280537
0.246689
0.209876
0.169912
0.126622
0.079854
0.029486
-0.024562
-0.082314
-0.143722
-0.208657
-0.276888
-0.348072
-0.421737
-0.497279
-0.573950
-0.650859
-0.726986
-0.801203
-0.872313
-0.939101
-1.000404
-1.055188
-1.102655
-1.142335
-1.174101
-1.198117
-1.214724
-1.224348
-1.227425
-1.224189
-1.215015
-1.200209
-1.180089
-1.155031
-1.125491
-1.092004
-1.055156
-1.015556
-0.973805
-0.930475
-0.886095
-0.841137
-0.796019
-0.751102
-0.706696
-0.663065
-0.620432
-0.578985
-0.538883
-0.500255
-0.463208
-0.427828
-0.394174
-0.362291
-0.332200
-0.303905
-0.277393
-0.252635
-0.229589
-0.208201
-0.188406
-0.170132
-0.153302
-0.137835
-0.123647
-0.110653
-0.098769
-0.087915
-0.078009
-0.068977
-0.060745
-0.053246
-0.046416
-0.040196
-0.034530
-0.029368
-0.024664
-0.020376
-0.016464
-0.012893
-0.009633
-0.006653
-0.003928
-0.001435
0.000849
0.002941
0.004861
0.006622
0.008240
0.009727
0.011095
0.012353
0.013512
0.014579
0.015564
0.016471
0.017309
0.018082
0.018796
0.019456
0.020066
0.020629
0.021150
0.021632
0.022077
0.022489
0.022870
0.023222
0.023547
0.023848
0.024125
0.024382
0.024618
0.024836
0.025037
0.025222
0.025392
0.025548
0.025691
0.025822
0.025941
0.026050
0.026148
0.026237
0.026318
0.026390
0.026454
0.026510
0.026560
0.026603
0.026640
0.026671
0.026696
0.026716
0.026730
0.026740
0.026745
0.026746
0.026742
0.026734
0.026722
0.026707
0.026687
0.026664
0.026638
0.026608
0.026575
0.026538
0.026498
0.026456
0.026410
0.026362
0.026310
0.026257
0.026200
0.026142
0.026082
0.026020
0.025956
0.025892
0.025826
0.025750
0.622930
0.622814
0.622486
0.621945
0.621188
0.620211
0.619008
0.617574
0.615898
0.613972
0.611780
0.609310
0.606543
0.603459
0.600034
0.596240
0.592043
0.587405
0.582282
0.576625
0.570378
0.563482
0.555873
0.547485
0.538244
0.528074
0.516888
0.504595
0.491091
0.476262
0.459979
0.442104
0.422482
0.400945
0.377314
0.351393
0.322977
0.291849
0.257787
0.220562
0.179950
0.135735
0.087719
0.035733
-0.020348
-0.080591
-0.144988
-0.213437
-0.285724
-0.361507
-0.440295
-0.521438
-0.604112
-0.687312
-0.769860
-0.850430
-0.927593
-0.999877
-1.065844
-1.124192
-1.173926
-1.214552
-1.246107
-1.269022
-1.283928
-1.291484
-1.292283
-1.286667
-1.275017
-1.257568
-1.234566
-1.206350
-1.173398
-1.136307
-1.095755
-1.052441
-1.007047
-0.960211
-0.912504
-0.864428
-0.816410
-0.768814
-0.721939
-0.676038
-0.631319
-0.587956
-0.546095
-0.505857
-0.467341
-0.430627
-0.395771
-0.362813
-0.331771
-0.302645
-0.275418
-0.250054
-0.226505
-0.204710
-0.184595
-0.166083
-0.149086
-0.133515
-0.119278
-0.106283
-0.094439
-0.083657
-0.073851
-0.064941
-0.056848
-0.049500
-0.042830
-0.036774
-0.031276
-0.026283
-0.021745
-0.017620
-0.013868
-0.010452
-0.007340
-0.004503
-0.001914
0.000450
0.002611
0.004588
0.006398
0.008056
0.009577
0.010973
0.012256
0.013435
0.014519
0.015517
0.016436
0.017284
0.018065
0.018786
0.019451
0.020065
0.020633
0.021157
0.021641
0.022089
0.022503
0.022886
0.023239
0.023566
0.023868
0.024147
0.024404
0.024642
0.024861
0.025063
0.025249
0.025420
0.025577
0.025722
0.025853
0.025974
0.026084
0.026184
0.026274
0.026356
0.026429
0.026494
0.026552
0.026603
0.026648
0.026686
0.026719
0.026745
0.026767
0.026783
0.026795
0.026802
0.026804
0.026803
0.026797
0.026787
0.026774
0.026757
0.026736
0.026712
0.026685
0.026654
0.026621
0.026584
0.026544
0.026502
0.026457
0.026409
0.026358
0.026306
0.026251
0.026194
0.026135
0.026074
0.026012
0.025949
0.025885
0.025810
0.625898
0.625791
0.625488
0.624989
0.624291
0.623389
0.622278
0.620951
0.619400
0.617614
0.615580
0.613286
0.610712
0.607839
0.604644
0.601098
0.597169
0.592818
0.588002
0.582669
0.576767
0.570235
0.563010
0.555024
0.546206
0.536476
0.525749
0.513927
0.500904
0.486558
0.470756
0.453346
0.434162
0.413023
0.389728
0.364062
0.335793
0.304673
0.270444
0.232839
0.191586
0.146418
0.097083
0.043353
-0.014955
-0.077965
-0.145719
-0.218158
-0.295096
-0.376199
-0.460968
-0.548712
-0.638524
-0.729268
-0.819576
-0.907872
-0.992433
-1.071456
-1.143128
-1.205713
-1.257855
-1.299036
-1.329616
-1.350519
-1.362838
-1.367569
-1.365476
-1.357107
-1.342733
-1.322411
-1.296224
-1.264426
-1.227521
-1.186217
-1.141324
-1.093675
-1.044059
-0.993194
-0.941702
-0.890112
-0.838858
-0.788293
-0.738700
-0.690309
-0.643306
-0.597845
-0.554056
-0.512048
-0.471913
-0.433725
-0.397537
-0.363387
-0.331290
-0.301243
-0.273222
-0.247189
-0.223086
-0.200844
-0.180384
-0.161614
-0.144440
-0.128762
-0.114480
-0.101493
-0.089700
-0.079006
-0.069318
-0.060548
-0.052613
-0.045436
-0.038945
-0.033074
-0.027762
-0.022954
-0.018601
-0.014655
-0.011077
-0.007830
-0.004880
-0.002198
0.000244
0.002468
0.004497
0.006348
0.008040
0.009588
0.011005
0.012304
0.013495
0.014588
0.015593
0.016517
0.017367
0.018150
0.018871
0.019536
0.020149
0.020715
0.021237
0.021719
0.022165
0.022577
0.022957
0.023308
0.023633
0.023933
0.024210
0.024466
0.024702
0.024920
0.025121
0.025305
0.025475
0.025632
0.025775
0.025907
0.026027
0.026136
0.026236
0.026326
0.026408
0.026482
0.026548
0.026606
0.026658
0.026703
0.026742
0.026775
0.026803
0.026826
0.026843
0.026856
0.026864
0.026868
0.026868
0.026864
0.026856
0.026844
0.026829
0.026810
0.026788
0.026763
0.026735
0.026704
0.026670
0.026633
0.026593
0.026551
0.026506
0.026458
0.026409
0.026357
0.026303
0.026247
0.026190
0.026130
0.026070
0.026008
0.025945
0.025871
0.629059
0.628962
0.628687
0.628232
0.627595
0.626772
0.625758
0.624545
0.623126
0.621490
0.619626
0.617519
0.615153
0.612509
0.609562
0.606285
0.602647
0.598608
0.594126
0.589149
0.583625
0.577494
0.570694
0.563156
0.554808
0.545572
0.535359
0.524070
0.511594
0.497804
0.482557
0.465692
0.447032
0.426377
0.403508
0.378186
0.350150
0.319120
0.284796
0.246865
0.205001
0.158877
0.108173
0.052591
-0.008129
-0.074185
-0.145685
-0.222629
-0.304874
-0.392112
-0.483844
-0.579347
-0.677637
-0.777430
-0.877122
-0.974816
-1.068423
-1.155747
-1.234507
-1.302231
-1.356784
-1.397633
-1.425846
-1.443256
-1.451706
-1.452636
-1.446988
-1.435618
-1.418462
-1.395225
-1.365659
-1.329850
-1.288365
-1.242111
-1.192121
-1.139411
-1.084917
-1.029449
-0.973687
-0.918178
-0.863354
-0.809543
-0.756999
-0.705913
-0.656439
-0.608705
-0.562819
-0.518878
-0.476967
-0.437154
-0.399495
-0.364025
-0.330759
-0.299690
-0.270793
-0.244021
-0.219311
-0.196583
-0.175747
-0.156703
-0.139344
-0.123560
-0.109239
-0.096270
-0.084544
-0.073956
-0.064405
-0.055796
-0.048041
-0.041056
-0.034765
-0.029099
-0.023993
-0.019390
-0.015237
-0.011488
-0.008100
-0.005035
-0.002260
0.000255
0.002538
0.004612
0.006498
0.008216
0.009782
0.011211
0.012517
0.013712
0.014806
0.015809
0.016729
0.017574
0.018351
0.019065
0.019722
0.020328
0.020886
0.021400
0.021875
0.022313
0.022718
0.023091
0.023436
0.023755
0.024049
0.024321
0.024571
0.024803
0.025016
0.025213
0.025394
0.025561
0.025715
0.025855
0.025984
0.026102
0.026210
0.026308
0.026397
0.026478
0.026550
0.026615
0.026673
0.026725
0.026769
0.026808
0.026842
0.026870
0.026893
0.026910
0.026924
0.026933
0.026938
0.026938
0.026935
0.026928
0.026918
0.026904
0.026887
0.026867
0.026844
0.026817
0.026788
0.026756
0.026721
0.026684
0.026644
0.026602
0.026557
0.026510
0.026461
0.026410
0.026357
0.026302
0.026246
0.026188
0.026128
0.026068
0.026006
0.025933
0.632398
0.632311
0.632064
0.631656
0.631084
0.630344
0.629431
0.628339
0.627060
0.625583
0.623899
0.621993
0.619848
0.617447
0.614767
0.611780
0.608455
0.604754
0.600633
0.596044
0.590932
0.585240
0.578905
0.571861
0.564034
0.555347
0.545708
0.535017
0.523159
0.510000
0.495391
0.479160
0.461117
0.441045
0.418706
0.393835
0.366140
0.335304
0.300983
0.262809
0.220396
0.173344
0.121252
0.063731
0.000428
-0.068950
-0.144605
-0.226612
-0.314891
-0.409175
-0.508981
-0.613577
-0.721909
-0.832531
-0.943542
-1.052603
-1.157175
-1.254667
-1.342441
-1.416724
-1.473390
-1.512036
-1.535358
-1.546918
-1.549701
-1.545645
-1.535973
-1.521650
-1.502059
-1.476255
-1.443358
-1.403109
-1.356272
-1.304168
-1.248179
-1.189582
-1.129487
-1.068815
-1.008296
-0.948486
-0.889794
-0.832504
-0.776816
-0.722868
-0.670766
-0.620600
-0.572456
-0.526417
-0.482564
-0.440966
-0.401682
-0.364750