# vtk DataFile Version 3.0
Scalar Field
ASCII
DATASET RECTILINEAR_GRID
DIMENSIONS 200 20 1
X_COORDINATES 200 double
0.050000 0.150000 0.250000 0.350000 0.450000 0.550000 0.650000 0.750000 0.850000 0.950000 1.050000 1.150000 1.250000 1.350000 1.450000 1.550000 1.650000 1.750000 1.850000 1.950000 2.050000 2.150000 2.250000 2.350000 2.450000 2.550000 2.650000 2.750000 2.850000 2.950000 3.050000 3.150000 3.250000 3.350000 3.450000 3.550000 3.650000 3.750000 3.850000 3.950000 4.050000 4.150000 4.250000 4.350000 4.450000 4.550000 4.650000 4.750000 4.850000 4.950000 5.050000 5.150000 5.250000 5.350000 5.450000 5.550000 5.650000 5.750000 5.850000 5.950000 6.050000 6.150000 6.250000 6.350000 6.450000 6.550000 6.650000 6.750000 6.850000 6.950000 7.050000 7.150000 7.250000 7.350000 7.450000 7.550000 7.650000 7.750000 7.850000 7.950000 8.050000 8.150000 8.250000 8.350000 8.450000 8.550000 8.650000 8.750000 8.850000 8.950000 9.050000 9.150000 9.250000 9.350000 9.450000 9.550000 9.650000 9.750000 9.850000 9.950000 10.050000 10.150000 10.250000 10.350000 10.450000 10.550000 10.650000 10.750000 10.850000 10.950000 11.050000 11.150000 11.250000 11.350000 11.450000 11.550000 11.650000 11.750000 11.850000 11.950000 12.050000 12.150000 12.250000 12.350000 12.450000 12.550000 12.650000 12.750000 12.850000 12.950000 13.050000 13.150000 13.250000 13.350000 13.450000 13.550000 13.650000 13.750000 13.850000 13.950000 14.050000 14.150000 14.250000 14.350000 14.450000 14.550000 14.650000 14.750000 14.850000 14.950000 15.050000 15.150000 15.250000 15.350000 15.450000 15.550000 15.650000 15.750000 15.850000 15.950000 16.050000 16.150000 16.250000 16.350000 16.450000 16.550000 16.650000 16.750000 16.850000 16.950000 17.050000 17.150000 17.250000 17.350000 17.450000 17.550000 17.650000 17.750000 17.850000 17.950000 18.050000 18.150000 18.250000 18.350000 18.450000 18.550000 18.650000 18.750000 18.850000 18.950000 19.050000 19.150000 19.250000 19.350000 19.450000 19.550000 19.650000 19.750000 19.850000 19.950000 
Y_COORDINATES 20 double
0.050000 0.150000 0.250000 0.350000 0.450000 0.550000 0.650000 0.750000 0.850000 0.950000 1.050000 1.150000 1.250000 1.350000 1.450000 1.550000 1.650000 1.750000 1.850000 1.950000 
Z_COORDINATES 1 double
0.0
POINT_DATA 4000
SCALARS Skalarfeld double 1
LOOKUP_TABLE default
0.000000
0.000000
0.000000
0.000000
0.000000
0.000000
0.000000
0.000000
0.000000
0.000000
0.000000
0.000000
0.000000
0.000000
0.000000
0.000000
0.000000
0.000000
0.000000
0.000000
0.000000
0.000000
0.000000
0.000000
0.000000
0.000000
0.000000
0.000000
0.000000
0.000000
0.000000
0.000000
0.000000
0.000000
0.000000
0.000000
0.000000
0.000000
0.000000
0.000000
0.000000
0.000000
0.000000
0.000000
0.000000
0.000000
0.000000
0.000000
0.000000
0.000000
0.000000
0.000000
0.000000
0.000000
0.000000
0.000000
0.000000
0.000000
0.000000
0.000000
0.000000
0.000000
0.000000
0.000000
0.000000
0.000000
0.000000
0.000000
0.000000
0.000000
0.000000
0.000000
0.000000
0.000000
0.000000
0.000000
0.000000
0.000000
0.000000
0.000000
0.000000
0.000000
0.000000
0.000000
0.000000
0.000000
0.000000
0.000000
0.000000
0.000000
0.000000
0.000000
0.000000
0.000000
0.000000
0.000000
0.000000
0.000000
0.000000
0.000000
0.000000
0.000000
0.000000
0.000000
0.000000
0.000000
0.000000
0.000000
0.000000
0.000000
0.000000
0.000000
0.000000
0.000000
0.000000
0.000000
0.000000
0.000000
0.000000
0.000000
0.000000
0.000000
0.000000
0.000000
0.000000
0.000000
0.000000
0.000000
0.000000
0.000000
0.000000
0.000000
0.000000
0.000000
0.000000
0.000000
0.000000
0.000000
0.000000
0.000000
0.000000
0.000000
0.000000
0.000000
0.000000
0.000000
0.000000
0.000000
0.000000
0.000000
0.000000
0.000000
0.000000
0.000000
0.000000
0.000000
0.000000
0.000000
0.000000
0.000000
0.000000
0.000000
0.000000
0.000000
0.000000
0.000000
0.000000
0.000000
0.000000
0.000000
0.000000
0.000000
0.000000
0.000000
0.000000
0.000000
0.000000
0.000000
0.000000
0.000000
0.000000
0.000000
0.000000
0.000000
0.000000
0.000000
0.000000
0.000000
0.000000
0.000000
0.000000
0.000000
0.000000
0.000000
0.000000
0.000000
0.000000
0.000000
0.000000
0.000000
0.000000
0.000000
0.000000
0.000000
0.000000
0.000000
0.000000
0.000000
0.000000
0.000000
0.000000
0.000000
0.000000
0.000000
0.000000
0.000000
0.000000
0.000000
0.000000
0.000000
0.000000
0.000000
0.000000
0.000000
0.000000
0.000000
0.000000
0.000000
0.000000
0.000000
0.000000
0.000000
0.000000
0.000000
0.000000
0.000000
0.000000
0.000000
0.000000
0.000000
0.000000
0.000000
0.000000
0.000000
0.000000
0.000000
0.000000
0.000000
0.000000
0.000000
0.000000
0.000000
0.000000
0.000000
0.000000
0.000000
0.000000
0.000000
0.000000
0.000000
0.000000
0.000000
0.000000
0.000000
0.000000
0.000000
0.000000
0.000000
0.000000
0.000000
0.000000
0.000000
0.000000
0.000000
0.000000
0.000000
0.000000
0.000000
0.000000
0.000000
0.000000
0.000000
0.000000
0.000000
0.000000
0.000000
0.000000
0.000000
0.000000
0.000000
0.000000
0.000000
0.000000
0.000000
0.000000
0.000000
0.000000
0.000000
0.000000
0.000000
0.000000
0.000000
0.000000
0.000000
0.000000
0.000000
0.000000
0.000000
0.000000
0.000000
0.000000
0.000000
0.000000
0.000000
0.000000
0.000000
0.000000
0.000000
0.000000
0.000000
0.000000
0.000000
0.000000
0.000000
0.000000
0.000000
0.000000
0.000000
0.000000
0.000000
0.000000
0.000000
0.000000
0.000000
0.000000
0.000000
0.000000
0.000000
0.000000
0.000000
0.000000
0.000000
0.000000
0.000000
0.000000
0.000000
0.000000
0.000000
0.000000
0.000000
0.000000
0.000000
0.000000
0.000000
0.000000
0.000000
0.000000
0.000000
0.000000
0.000000
0.000000
0.000000
0.000000
0.000000
0.000000
0.000000
0.000000
0.000000
0.000000
0.000000
0.000000
0.000000
0.000000
0.000000
0.000000
0.000000
0.000000
0.000000
0.000000
0.000000
0.000000
0.000000
0.000000
0.000000
0.000000
0.000000
0.000000
0.000000
0.000000
0.000000
0.000000
0.000000
0.000000
0.000000
0.000000
0.000000
0.000000
0.000000
0.000000
0.000000
0.000000
0.000000
0.000000
0.000000
0.000000
0.000000
0.000000
0.000000
0.000000
0.000000
0.000000
0.000000
0.000000
0.000000
0.000000
0.000000
0.000000
0.000000
0.000000
0.000000
0.000000
0.000000
0.000000
0.000000
0.000000
0.000000
0.000000
0.000000
0.000000
0.000000
0.000000
0.000000
0.000000
0.000000
0.000000
0.000000
0.000000
0.000000
0.000000
0.000000
0.000000
0.000000
0.000000
0.000000
0.000000
0.000000
0.000000
0.000000
0.000000
0.000000
0.000000
0.000000
0.000000
0.000000
0.000000
0.000000
0.000000
0.000000
0.000000
0.000000
0.000000
0.000000
0.000000
0.000000
0.000000
0.000000
0.000000
0.000000
0.000000
0.000000
0.000000
0.000000
0.000000
0.000000
0.000000
0.000000
0.000000
0.000000
0.000000
0.000000
0.000000
0.000000
0.000000
0.000000
0.000000
0.000000
0.000000
0.000000
0.000000
0.000000
0.000000
0.000000
0.000000
0.000000
0.000000
0.000000
0.000000
0.000000
0.000000
0.000000
0.000000
0.000000
0.000000
0.000000
0.000000
0.000000
0.000000
0.000000
0.000000
0.000000
0.000000
0.000000
0.000000
0.000000
0.000000
0.000000
0.000000
0.000000
0.000000
0.000000
0.000000
0.000000
0.000000
0.000000
0.000000
0.000000
0.000000
0.000000
0.000000
0.000000
0.000000
0.000000
0.000000
0.000000
0.000000
0.000000
0.000000
0.000000
0.000000
0.000000
0.000000
0.000000
0.000000
0.000000
0.000000
0.000000
0.000000
0.000000
0.000000
0.000000
0.000000
0.000000
0.000000
0.000000
0.000000
0.000000
0.000000
0.000000
0.000000
0.000000
0.000000
0.000000
0.000000
0.000000
0.000000
0.000000
0.000000
0.000000
0.000000
0.000000
0.000000
0.000000
0.000000
0.000000
0.000000
0.000000
0.000000
0.000000
0.000000
0.000000
0.000000
0.000000
0.000000
0.000000
0.000000
0.000000
0.000000
0.000000
0.000000
0.000000
0.000000
0.000000
0.000000
0.000000
0.000000
0.000000
0.000000
0.000000
0.000000
0.000000
0.000000
0.000000
0.000000
0.000000
0.000000
0.000000
0.000000
0.000000
0.000000
0.000000
0.000000
0.000000
0.000000
0.000000
0.000000
0.000000
0.000000
0.000000
0.000000
0.000000
0.000000
0.000000
0.000000
0.000000
0.000000
0.000000
0.000000
0.000000
0.000000
0.000000
0.000000
0.000000
0.000000
0.000000
0.000000
0.000000
0.000000
0.000000
0.000000
0.000000
0.000000
0.000000
0.000000
0.000000
0.000000
0.000000
0.000000
0.000000
0.000000
0.000000
0.000000
0.000000
0.000000
0.000000
0.000000
0.000000
0.000000
0.000000
0.000000
0.000000
0.000000
0.000000
0.000000
0.000000
0.000000
0.000000
0.000000
0.000000
0.000000
0.000000
0.000000
0.000000
0.000000
0.000000
0.000000
0.000000
0.000000
0.000000
0.000000
0.000000
0.000000
0.000000
0.000000
0.000000
0.000000
0.000000
0.000000
0.000000
0.000000
0.000000
0.000000
0.000000
0.000000
0.000000
0.000000
0.000000
0.000000
0.000000
0.000000
0.000000
0.000000
0.000000
0.000000
0.000000
0.000000
0.000000
0.000000
0.000000
0.000000
0.000000
0.000000
0.000000
0.000000
0.000000
0.000000
0.000000
0.000000
0.000000
0.000000
0.000000
0.000000
0.000000
0.000000
0.000000
0.000000
0.000000
0.000000
0.000000
0.000000
0.000000
0.000000
0.000000
0.000000
0.000000
0.000000
0.000000
0.000000
0.000000
0.000000
0.000000
0.000000
0.000000
0.000000
0.000000
0.000000
0.000000
0.000000
0.000000
0.000000
0.000000
0.000000
0.000000
0.000000
0.000000
0.000000
0.000000
0.000000
0.000000
0.000000
0.000000
0.000000
0.000000
0.000000
0.000000
0.000000
0.000000
0.000000
0.000000
0.000000
0.000000
0.000000
0.000000
0.000000
0.000000
0.000000
0.000000
0.000000
0.000000
0.000000
0.000000
0.000000
0.000000
0.000000
0.000000
0.000000
0.000000
0.000000
0.000000
0.000000
0.000000
0.000000
0.000000
0.000000
0.000000
0.000000
0.000000
0.000000
0.000000
0.000000
0.000000
0.043835
0.042566
0.041786
0.041206
0.040714
0.040265
0.039837
0.039421
0.039010
0.038601
0.038194
0.037787
0.037380
0.036973
0.036565
0.036157
0.035748
0.035339
0.034929
0.034519
0.034108
0.033697
0.033285
0.032873
0.032460
0.032047
0.031633
0.031219
0.030804
0.030389
0.029973
0.029557
0.029140
0.028723
0.028305
0.027887
0.027469
0.027050
0.026630
0.026210
0.025790
0.025370
0.024948
0.024527
0.024105
0.023683
0.023260
0.022837
0.022413
0.021989
0.021565
0.021141
0.020716
0.020290
0.019864
0.019438
0.019012
0.018585
0.018158
0.017730
0.017303
0.016874
0.016446
0.016017
0.015588
0.015158
0.014729
0.014299
0.013868
0.013438
0.013007
0.012575
0.012144
0.011712
0.011280
0.010848
0.010415
0.009982
0.009549
0.009115
0.008682
0.008248
0.007814
0.007379
0.006945
0.006510
0.006075
0.005639
0.005204
0.004768
0.004332
0.003896
0.003460
0.003023
0.002586
0.002149
0.001712
0.001275
0.000837
0.000399
-0.000039
-0.000477
-0.000915
-0.001353
-0.001792
-0.002231
-0.002670
-0.003109
-0.003548
-0.003987
-0.004427
-0.004866
-0.005306
-0.005746
-0.006186
-0.006626
-0.007066
-0.007506
-0.007947
-0.008387
-0.008828
-0.009269
-0.009710
-0.010151
-0.010592
-0.011033
-0.011474
-0.011915
-0.012356
-0.012798
-0.013239
-0.013680
-0.014121
-0.014562
-0.015002
-0.015442
-0.015882
-0.016320
-0.016758
-0.017194
-0.017628
-0.018061
-0.018490
-0.018917
-0.019340
-0.019758
-0.020172
-0.020580
-0.020982
-0.021377
-0.021766
-0.022147
-0.022520
-0.022887
-0.023245
-0.023597
-0.023942
-0.024280
-0.024613
-0.024941
-0.025265
-0.025586
-0.025904
-0.026220
-0.026535
-0.026849
-0.027162
-0.027475
-0.027788
-0.028101
-0.028415
-0.028730
-0.029045
-0.029361
-0.029677
-0.029993
-0.030310
-0.030627
-0.030944
-0.031261
-0.031578
-0.031895
-0.032212
-0.032529
-0.032847
-0.033164
-0.033482
-0.033799
-0.034117
-0.034435
-0.034753
-0.035072
-0.035393
-0.035715
-0.036041
-0.036373
-0.036717
-0.037080
-0.037479
-0.037762
0.043835
0.042566
0.041786
0.041206
0.040714
0.040265
0.039837
0.039421
0.039010
0.038601
0.038194
0.037787
0.037380
0.036973
0.036565
0.036157
0.035748
0.035339
0.034929
0.034519
0.034108
0.033697
0.033285
0.032873
0.032460
0.032047
0.031633
0.031219
0.030804
0.030389
0.029973
0.029557
0.029140
0.028723
0.028305
0.027887
0.027469
0.027050
0.026630
0.026210
0.025790
0.025370
0.024948
0.024527
0.024105
0.023683
0.023260
0.022837
0.022413
0.021989
0.021565
0.021141
0.020716
0.020290
0.019864
0.019438
0.019012
0.018585
0.018158
0.017730
0.017303
0.016874
0.016446
0.016017
0.015588
0.015158
0.014729
0.014299
0.013868
0.013438
0.013007
0.012575
0.012144
0.011712
0.011280
0.010848
0.010415
0.009982
0.009549
0.009115
0.008682
0.008248
0.007814
0.007379
0.006945
0.006510
0.006075
0.005639
0.005204
0.004768
0.004332
0.003896
0.003460
0.003023
0.002586
0.002149
0.001712
0.001275
0.000837
0.000399
-0.000039
-0.000477
-0.000915
-0.001353
-0.001792
-0.002231
-0.002670
-0.003109
-0.003548
-0.003987
-0.004427
-0.004866
-0.005306
-0.005746
-0.006186
-0.006626
-0.007066
-0.007506
-0.007947
-0.008387
-0.008828
-0.009269
-0.009710
-0.010151
-0.010592
-0.011033
-0.011474
-0.011915
-0.012356
-0.012798
-0.013239
-0.013680
-0.014121
-0.014562
-0.015002
-0.015442
-0.015882
-0.016320
-0.016758
-0.017194
-0.017628
-0.018061
-0.018490
-0.018917
-0.019340
-0.019758
-0.020172
-0.020580
-0.020982
-0.021377
-0.021766
-0.022147
-0.022520
-0.022887
-0.023246
-0.023597
-0.023942
-0.024280
-0.024613
-0.024941
-0.025265
-0.025586
-0.025904
-0.026220
-0.026535
-0.026849
-0.027162
-0.027475
-0.027788
-0.028101
-0.028415
-0.028730
-0.029045
-0.029361
-0.029677
-0.029993
-0.030310
-0.030627
-0.030944
-0.031261
-0.031578
-0.031895
-0.032212
-0.032529
-0.032847
-0.033164
-0.033482
-0.033799
-0.034117
-0.034435
-0.034753
-0.035072
-0.035393
-0.035715
-0.036041
-0.036373
-0.036717
-0.037080
-0.037479
-0.037762
0.042470
0.042077
0.041587
0.041116
0.040670
0.040243
0.039826
0.039415
0.039006
0.038599
0.038193
0.037786
0.037380
0.036973
0.036565
0.036157
0.035748
0.035339
0.034929
0.034519
0.034108
0.033697
0.033285
0.032873
0.032460
0.032047
0.031633
0.031219
0.030804
0.030389
0.029973
0.029557
0.029140
0.028723
0.028305
0.027887
0.027469
0.027050
0.026630
0.026211
0.025790
0.025370
0.024949
0.024527
0.024105
0.023683
0.023260
0.022837
0.022414
0.021990
0.021565
0.021141
0.020716
0.020290
0.019865
0.019439
0.019012
0.018585
0.018158
0.017731
0.017303
0.016875
0.016446
0.016017
0.015588
0.015159
0.014729
0.014299
0.013869
0.013438
0.013007
0.012576
0.012144
0.011712
0.011280
0.010848
0.010415
0.009982
0.009549
0.009116
0.008682
0.008248
0.007814
0.007380
0.006945
0.006510
0.006075
0.005640
0.005204
0.004768
0.004333
0.003896
0.003460
0.003023
0.002587
0.002150
0.001712
0.001275
0.000837
0.000400
-0.000038
-0.000476
-0.000914
-0.001353
-0.001791
-0.002230
-0.002669
-0.003108
-0.003547
-0.003987
-0.004426
-0.004866
-0.005305
-0.005745
-0.006185
-0.006625
-0.007066
-0.007506
-0.007946
-0.008387
-0.008828
-0.009268
-0.009709
-0.010150
-0.010591
-0.011032
-0.011473
-0.011915
-0.012356
-0.012797
-0.013238
-0.013679
-0.014120
-0.014561
-0.015002
-0.015442
-0.015881
-0.016320
-0.016757
-0.017193
-0.017628
-0.018060
-0.018490
-0.018916
-0.019339
-0.019757
-0.020171
-0.020579
-0.020981
-0.021376
-0.021764
-0.022145
-0.022519
-0.022886
-0.023244
-0.023596
-0.023940
-0.024279
-0.024611
-0.024940
-0.025264
-0.025584
-0.025903
-0.026219
-0.026534
-0.026848
-0.027161
-0.027474
-0.027787
-0.028101
-0.028415
-0.028730
-0.029045
-0.029361
-0.029677
-0.029993
-0.030310
-0.030627
-0.030944
-0.031261
-0.031578
-0.031895
-0.032212
-0.032529
-0.032847
-0.033164
-0.033481
-0.033799
-0.034116
-0.034434
-0.034752
-0.035070
-0.035389
-0.035708
-0.036029
-0.036353
-0.036679
-0.037007
-0.037328
-0.037630
0.041847
0.041682
0.041369
0.040998
0.040607
0.040209
0.039807
0.039404
0.039000
0.038596
0.038191
0.037785
0.037378
0.036972
0.036564
0.036156
0.035748
0.035338
0.034929
0.034519
0.034108
0.033697
0.033285
0.032873
0.032460
0.032046
0.031633
0.031218
0.030804
0.030388
0.029973
0.029556
0.029140
0.028723
0.028305
0.027887
0.027469
0.027050
0.026630
0.026210
0.025790
0.025370
0.024948
0.024527
0.024105
0.023683
0.023260
0.022837
0.022413
0.021990
0.021565
0.021141
0.020716
0.020290
0.019865
0.019439
0.019012
0.018585
0.018158
0.017731
0.017303
0.016875
0.016446
0.016017
0.015588
0.015159
0.014729
0.014299
0.013869
0.013438
0.013007
0.012576
0.012144
0.011713
0.011281
0.010848
0.010416
0.009983
0.009550
0.009116
0.008682
0.008249
0.007814
0.007380
0.006945
0.006511
0.006075
0.005640
0.005205
0.004769
0.004333
0.003897
0.003460
0.003024
0.002587
0.002150
0.001713
0.001275
0.000838
0.000400
-0.000038
-0.000476
-0.000914
-0.001352
-0.001791
-0.002230
-0.002669
-0.003108
-0.003547
-0.003986
-0.004425
-0.004865
-0.005305
-0.005745
-0.006185
-0.006625
-0.007065
-0.007505
-0.007946
-0.008386
-0.008827
-0.009268
-0.009709
-0.010149
-0.010590
-0.011032
-0.011473
-0.011914
-0.012355
-0.012796
-0.013237
-0.013678
-0.014119
-0.014559
-0.015000
-0.015439
-0.015878
-0.016316
-0.016753
-0.017188
-0.017622
-0.018053
-0.018482
-0.018907
-0.019329
-0.019746
-0.020158
-0.020565
-0.020966
-0.021361
-0.021748
-0.022129
-0.022502
-0.022867
-0.023226
-0.023578
-0.023924
-0.024264
-0.024598
-0.024928
-0.025254
-0.025576
-0.025896
-0.026214
-0.026530
-0.026845
-0.027159
-0.027473
-0.027787
-0.028101
-0.028415
-0.028730
-0.029046
-0.029361
-0.029677
-0.029994
-0.030310
-0.030627
-0.030944
-0.031261
-0.031578
-0.031895
-0.032212
-0.032529
-0.032847
-0.033164
-0.033481
-0.033798
-0.034116
-0.034433
-0.034750
-0.035067
-0.035383
-0.035699
-0.036013
-0.036325
-0.036631
-0.036926
-0.037197
-0.037495
0.041531
0.041434
0.041207
0.040901
0.040551
0.040177
0.039789
0.039394
0.038995
0.038592
0.038189
0.037784
0.037378
0.036971
0.036564
0.036156
0.035747
0.035338
0.034928
0.034518
0.034108
0.033696
0.033285
0.032872
0.032460
0.032046
0.031632
0.031218
0.030803
0.030388
0.029972
0.029556
0.029140
0.028722
0.028305
0.027887
0.027468
0.027049
0.026630
0.026210
0.025790
0.025369
0.024948
0.024527
0.024105
0.023683
0.023260
0.022837
0.022413
0.021990
0.021565
0.021141
0.020716
0.020290
0.019865
0.019439
0.019012
0.018585
0.018158
0.017731
0.017303
0.016875
0.016446
0.016018
0.015588
0.015159
0.014729
0.014299
0.013869
0.013438
0.013007
0.012576
0.012145
0.011713
0.011281
0.010848
0.010416
0.009983
0.009550
0.009116
0.008683
0.008249
0.007815
0.007380
0.006946
0.006511
0.006076
0.005640
0.005205
0.004769
0.004333
0.003897
0.003461
0.003024
0.002587
0.002150
0.001713
0.001276
0.000838
0.000401
-0.000037
-0.000475
-0.000914
-0.001352
-0.001790
-0.002229
-0.002668
-0.003107
-0.003546
-0.003986
-0.004425
-0.004865
-0.005304
-0.005744
-0.006184
-0.006624
-0.007064
-0.007505
-0.007945
-0.008386
-0.008826
-0.009267
-0.009708
-0.010149
-0.010590
-0.011031
-0.011472
-0.011913
-0.012354
-0.012795
-0.013236
-0.013677
-0.014118
-0.014558
-0.014998
-0.015437
-0.015875
-0.016313
-0.016749
-0.017184
-0.017617
-0.018047
-0.018475
-0.018899
-0.019320
-0.019736
-0.020148
-0.020554
-0.020954
-0.021348
-0.021735
-0.022115
-0.022488
-0.022854
-0.023213
-0.023566
-0.023913
-0.024253
-0.024589
-0.024920
-0.025247
-0.025571
-0.025891
-0.026210
-0.026527
-0.026843
-0.027158
-0.027472
-0.027787
-0.028101
-0.028416
-0.028731
-0.029046
-0.029362
-0.029678
-0.029994
-0.030311
-0.030627
-0.030944
-0.031261
-0.031578
-0.031895
-0.032212
-0.032529
-0.032847
-0.033164
-0.033481
-0.033798
-0.034115
-0.034432
-0.034748
-0.035064
-0.035378
-0.035691
-0.035999
-0.036302
-0.036595
-0.036870
-0.037117
-0.037409
0.041392
0.041317
0.041124
0.040849
0.040520
0.040159
0.039779
0.039388
0.038991
0.038590
0.038187
0.037783
0.037377
0.036971
0.036563
0.036155
0.035747
0.035338
0.034928
0.034518
0.034107
0.033696
0.033284
0.032872
0.032459
0.032046
0.031632
0.031218
0.030803
0.030388
0.029972
0.029556
0.029140
0.028722
0.028305
0.027887
0.027468
0.027049
0.026630
0.026210
0.025790
0.025369
0.024948
0.024527
0.024105
0.023683
0.023260
0.022837
0.022413
0.021990
0.021565
0.021141
0.020716
0.020290
0.019865
0.019439
0.019012
0.018585
0.018158
0.017731
0.017303
0.016875
0.016446
0.016018
0.015589
0.015159
0.014729
0.014299
0.013869
0.013438
0.013007
0.012576
0.012145
0.011713
0.011281
0.010849
0.010416
0.009983
0.009550
0.009117
0.008683
0.008249
0.007815
0.007381
0.006946
0.006511
0.006076
0.005641
0.005205
0.004769
0.004333
0.003897
0.003461
0.003024
0.002588
0.002151
0.001713
0.001276
0.000839
0.000401
-0.000037
-0.000475
-0.000913
-0.001352
-0.001790
-0.002229
-0.002668
-0.003107
-0.003546
-0.003985
-0.004425
-0.004864
-0.005304
-0.005744
-0.006184
-0.006624
-0.007064
-0.007504
-0.007945
-0.008385
-0.008826
-0.009267
-0.009708
-0.010148
-0.010589
-0.011030
-0.011472
-0.011913
-0.012354
-0.012795
-0.013236
-0.013676
-0.014117
-0.014557
-0.014997
-0.015436
-0.015874
-0.016311
-0.016747
-0.017182
-0.017614
-0.018044
-0.018471
-0.018895
-0.019316
-0.019731
-0.020142
-0.020548
-0.020948
-0.021341
-0.021728
-0.022108
-0.022481
-0.022847
-0.023207
-0.023560
-0.023907
-0.024248
-0.024584
-0.024916
-0.025243
-0.025568
-0.025889
-0.026208
-0.026526
-0.026842
-0.027157
-0.027472
-0.027787
-0.028101
-0.028416
-0.028731
-0.029047
-0.029362
-0.029678
-0.029994
-0.030311
-0.030627
-0.030944
-0.031261
-0.031578
-0.031895
-0.032212
-0.032529
-0.032847
-0.033164
-0.033481
-0.033798
-0.034115
-0.034431
-0.034747
-0.035062
-0.035375
-0.035686
-0.035992
-0.036290
-0.036575
-0.036842
-0.037080
-0.037367
0.041392
0.041317
0.041124
0.040849
0.040520
0.040159
0.039779
0.039388
0.038991
0.038590
0.038187
0.037783
0.037377
0.036971
0.036563
0.036155
0.035747
0.035338
0.034928
0.034518
0.034107
0.033696
0.033284
0.032872
0.032459
0.032046
0.031632
0.031218
0.030803
0.030388
0.029972
0.029556
0.029140
0.028722
0.028305
0.027887
0.027468
0.027049
0.026630
0.026210
0.025790
0.025369
0.024948
0.024527
0.024105
0.023683
0.023260
0.022837
0.022413
0.021990
0.021565
0.021141
0.020716
0.020290
0.019865
0.019439
0.019012
0.018585
0.018158
0.017731
0.017303
0.016875
0.016446
0.016018
0.015589
0.015159
0.014729
0.014299
0.013869
0.013438
0.013007
0.012576
0.012145
0.011713
0.011281
0.010849
0.010416
0.009983
0.009550
0.009117
0.008683
0.008249
0.007815
0.007381
0.006946
0.006511
0.006076
0.005641
0.005205
0.004769
0.004333
0.003897
0.003461
0.003024
0.002588
0.002151
0.001713
0.001276
0.000839
0.000401
-0.000037
-0.000475
-0.000913
-0.001352
-0.001790
-0.002229
-0.002668
-0.003107
-0.003546
-0.003985
-0.004425
-0.004864
-0.005304
-0.005744
-0.006184
-0.006624
-0.007064
-0.007504
-0.007945
-0.008385
-0.008826
-0.009267
-0.009708
-0.010148
-0.010589
-0.011030
-0.011472
-0.011913
-0.012354
-0.012795
-0.013236
-0.013676
-0.014117
-0.014557
-0.014997
-0.015436
-0.015874
-0.016311
-0.016747
-0.017182
-0.017614
-0.018044
-0.018471
-0.018895
-0.019316
-0.019731
-0.020142
-0.020548
-0.020948
-0.021341
-0.021728
-0.022108
-0.022481
-0.022847
-0.023207
-0.023560
-0.023907
-0.024248
-0.024584
-0.024916
-0.025243
-0.025568
-0.025889
-0.026208
-0.026526
-0.026842
-0.027157
-0.027472
-0.027787
-0.028101
-0.028416
-0.028731
-0.029047
-0.029362
-0.029678
-0.029994
-0.030311
-0.030627
-0.030944
-0.031261
-0.031578
-0.031895
-0.032212
-0.032529
-0.032847
-0.033164
-0.033481
-0.033798
-0.034115
-0.034431
-0.034747
-0.035062
-0.035375
-0.035686
-0.035992
-0.036290
-0.036575
-0.036842
-0.037080
-0.037367
0.041531
0.041434
0.041207
0.040901
0.040551
0.040177
0.039789
0.039394
0.038995
0.038592
0.038189
0.037784
0.037378
0.036971
0.036564
0.036156
0.035747
0.035338
0.034928
0.034518
0.034108
0.033696
0.033285
0.032872
0.032460
0.032046
0.031632
0.031218
0.030803
0.030388
0.029972
0.029556
0.029140
0.028722
0.028305
0.027887
0.027468
0.027049
0.026630
0.026210
0.025790
0.025369
0.024948
0.024527
0.024105
0.023683
0.023260
0.022837
0.022413
0.021990
0.021565
0.021141
0.020716
0.020290
0.019865
0.019439
0.019012
0.018585
0.018158
0.017731
0.017303
0.016875
0.016446
0.016018
0.015588
0.015159
0.014729
0.014299
0.013869
0.013438
0.013007
0.012576
0.012145
0.011713
0.011281
0.010848
0.010416
0.009983
0.009550
0.009116
0.008683
0.008249
0.007815
0.007380
0.006946
0.006511
0.006076
0.005640
0.005205
0.004769
0.004333
0.003897
0.003461
0.003024
0.002587
0.002150
0.001713
0.001276
0.000838
0.000401
-0.000037
-0.000475
-0.000914
-0.001352
-0.001790
-0.002229
-0.002668
-0.003107
-0.003546
-0.003986
-0.004425
-0.004865
-0.005304
-0.005744
-0.006184
-0.006624
-0.007064
-0.007505
-0.007945
-0.008386
-0.008826
-0.009267
-0.009708
-0.010149
-0.010590
-0.011031
-0.011472
-0.011913
-0.012354
-0.012795
-0.013236
-0.013677
-0.014118
-0.014558
-0.014998
-0.015437
-0.015875
-0.016313
-0.016749
-0.017184
-0.017617
-0.018047
-0.018475
-0.018899
-0.019320
-0.019736
-0.020148
-0.020554
-0.020954
-0.021348
-0.021735
-0.022115
-0.022488
-0.022854
-0.023213
-0.023566
-0.023913
-0.024253
-0.024589
-0.024920
-0.025247
-0.025571
-0.025891
-0.026210
-0.026527
-0.026843
-0.027158
-0.027472
-0.027787
-0.028101
-0.028416
-0.028731
-0.029046
-0.029362
-0.029678
-0.029994
-0.030311
-0.030627
-0.030944
-0.031261
-0.031578
-0.031895
-0.032212
-0.032529
-0.032847
-0.033164
-0.033481
-0.033798
-0.034115
-0.034432
-0.034748
-0.035064
-0.035378
-0.035691
-0.035999
-0.036302
-0.036595
-0.036870
-0.037117
-0.037409
0.041847
0.041682
0.041369
0.040998
0.040607
0.040209
0.039807
0.039404
0.039000
0.038596
0.038191
0.037785
0.037378
0.036972
0.036564
0.036156
0.035748
0.035338
0.034929
0.034519
0.034108
0.033697
0.033285
0.032873
0.032460
0.032046
0.031633
0.031218
0.030804
0.030388
0.029973
0.029556
0.029140
0.028723
0.028305
0.027887
0.027469
0.027050
0.026630
0.026210
0.025790
0.025370
0.024948
0.024527
0.024105
0.023683
0.023260
0.022837
0.022413
0.021990
0.021565
0.021141
0.020716
0.020290
0.019865
0.019439
0.019012
0.018585
0.018158
0.017731
0.017303
0.016875
0.016446
0.016017
0.015588
0.015159
0.014729
0.014299
0.013869
0.013438
0.013007
0.012576
0.012144
0.011713
0.011281
0.010848
0.010416
0.009983
0.009550
0.009116
0.008682
0.008249
0.007814
0.007380
0.006945
0.006511
0.006075
0.005640
0.005205
0.004769
0.004333
0.003897
0.003460
0.003024
0.002587
0.002150
0.001713
0.001275
0.000838
0.000400
-0.000038
-0.000476
-0.000914
-0.001352
-0.001791
-0.002230
-0.002669
-0.003108
-0.003547
-0.003986
-0.004425
-0.004865
-0.005305
-0.005745
-0.006185
-0.006625
-0.007065
-0.007505
-0.007946
-0.008386
-0.008827
-0.009268
-0.009709
-0.010149
-0.010590
-0.011032
-0.011473
-0.011914
-0.012355
-0.012796
-0.013237
-0.013678
-0.014119
-0.014559
-0.015000
-0.015439
-0.015878
-0.016316
-0.016753
-0.017188
-0.017622
-0.018053
-0.018482
-0.018907
-0.019329
-0.019746
-0.020158
-0.020565
-0.020966
-0.021361
-0.021748
-0.022129
-0.022502
-0.022867
-0.023226
-0.023578
-0.023924
-0.024264
-0.024598
-0.024928
-0.025254
-0.025576
-0.025896
-0.026214
-0.026530
-0.026845
-0.027159
-0.027473
-0.027787
-0.028101
-0.028415
-0.028730
-0.029046
-0.029361
-0.029677
-0.029994
-0.030310
-0.030627
-0.030944
-0.031261
-0.031578
-0.031895
-0.032212
-0.032529
-0.032847
-0.033164
-0.033481
-0.033798
-0.034116
-0.034433
-0.034750
-0.035067
-0.035383
-0.035699
-0.036013
-0.036325
-0.036631
-0.036926
-0.037197
-0.037495
0.042470
0.042077
0.041587
0.041116
0.040670
0.040243
0.039826
0.039415
0.039006
0.038599
0.038193
0.037786
0.037380
0.036973
0.036565
0.036157
0.035748
0.035339
0.034929
0.034519
0.034108
0.033697
0.033285
0.032873
0.032460
0.032047
0.031633
0.031219
0.030804
0.030389
0.029973
0.029557
0.029140
0.028723
0.028305
0.027887
0.027469
0.027050
0.026630
0.026211
0.025790
0.025370
0.024949
0.024527
0.024105
0.023683
0.023260
0.022837
0.022414
0.021990
0.021565
0.021141
0.020716
0.020290
0.019865
0.019439
0.019012
0.018585
0.018158
0.017731
0.017303
0.016875
0.016446
0.016017
0.015588
0.015159
0.014729
0.014299
0.013869
0.013438
0.013007
0.012576
0.012144
0.011712
0.011280
0.010848
0.010415
0.009982
0.009549
0.009116
0.008682
0.008248
0.007814
0.007380
0.006945
0.006510
0.006075
0.005640
0.005204
0.004768
0.004333
0.003896
0.003460
0.003023
0.002587
0.002150
0.001712
0.001275
0.000837
0.000400
-0.000038
-0.000476
-0.000914
-0.001353
-0.001791
-0.002230
-0.002669
-0.003108
-0.003547
-0.003987
-0.004426
-0.004866
-0.005305
-0.005745
-0.006185
-0.006625
-0.007066
-0.007506
-0.007946
-0.008387
-0.008828
-0.009268
-0.009709
-0.010150
-0.010591
-0.011032
-0.011473
-0.011915
-0.012356
-0.012797
-0.013238
-0.013679
-0.014120
-0.014561
-0.015002
-0.015442
-0.015881
-0.016320
-0.016757
-0.017193
-0.017628
-0.018060
-0.018490
-0.018916
-0.019339
-0.019757
-0.020171
-0.020579
-0.020981
-0.021376
-0.021764
-0.022145
-0.022519
-0.022886
-0.023244
-0.023596
-0.023940
-0.024279
-0.024611
-0.024940
-0.025264
-0.025584
-0.025903
-0.026219
-0.026534
-0.026848
-0.027161
-0.027474
-0.027787
-0.028101
-0.028415
-0.028730
-0.029045
-0.029361
-0.029677
-0.029993
-0.030310
-0.030627
-0.030944
-0.031261
-0.031578
-0.031895
-0.032212
-0.032529
-0.032847
-0.033164
-0.033481
-0.033799
-0.034116
-0.034434
-0.034752
-0.035070
-0.035389
-0.035708
-0.036029
-0.036353
-0.036679
-0.037007
-0.037328
-0.037630
0.043835
0.042566
0.041787
0.041206
0.040714
0.040265
0.039837
0.039421
0.039010
0.038601
0.038194
0.037787
0.037380
0.036973
0.036565
0.036157
0.035748
0.035339
0.034929
0.034519
0.034108
0.033697
0.033285
0.032873
0.032460
0.032047
0.031633
0.031219
0.030804
0.030389
0.029973
0.029557
0.029140
0.028723
0.028305
0.027887
0.027469
0.027050
0.026630
0.026210
0.025790
0.025370
0.024948
0.024527
0.024105
0.023683
0.023260
0.022837
0.022413
0.021989
0.021565
0.021141
0.020716
0.020290
0.019864
0.019438
0.019012
0.018585
0.018158
0.017730
0.017303
0.016874
0.016446
0.016017
0.015588
0.015158
0.014729
0.014299
0.013868
0.013438
0.013007
0.012575
0.012144
0.011712
0.011280
0.010848
0.010415
0.009982
0.009549
0.009115
0.008682
0.008248
0.007814
0.007379
0.006945
0.006510
0.006075
0.005639
0.005204
0.004768
0.004332
0.003896
0.003460
0.003023
0.002586
0.002149
0.001712
0.001275
0.000837
0.000399
-0.000039
-0.000477
-0.000915
-0.001353
-0.001792
-0.002231
-0.002670
-0.003109
-0.003548
-0.003987
-0.004427
-0.004866
-0.005306
-0.005746
-0.006186
-0.006626
-0.007066
-0.007506
-0.007947
-0.008387
-0.008828
-0.009269
-0.009710
-0.010151
-0.010592
-0.011033
-0.011474
-0.011915
-0.012356
-0.012798
-0.013239
-0.013680
-0.014121
-0.014562
-0.015002
-0.015442
-0.015882
-0.016320
-0.016758
-0.017194
-0.017628
-0.018061
-0.018490
-0.018917
-0.019340
-0.019758
-0.020172
-0.020580
-0.020982
-0.021377
-0.021766
-0.022147
-0.022520
-0.022887
-0.023246
-0.023597
-0.023942
-0.024280