# vtk DataFile Version 3.0
Vector Field
ASCII
DATASET RECTILINEAR_GRID
DIMENSIONS 200 20 1
X_COORDINATES 200 double
0.050000 0.150000 0.250000 0.350000 0.450000 0.550000 0.650000 0.750000 0.850000 0.950000 1.050000 1.150000 1.250000 1.350000 1.450000 1.550000 1.650000 1.750000 1.850000 1.950000 2.050000 2.150000 2.250000 2.350000 2.450000 2.550000 2.650000 2.750000 2.850000 2.950000 3.050000 3.150000 3.250000 3.350000 3.450000 3.550000 3.650000 3.750000 3.850000 3.950000 4.050000 4.150000 4.250000 4.350000 4.450000 4.550000 4.650000 4.750000 4.850000 4.950000 5.050000 5.150000 5.250000 5.350000 5.450000 5.550000 5.650000 5.750000 5.850000 5.950000 6.050000 6.150000 6.250000 6.350000 6.450000 6.550000 6.650000 6.750000 6.850000 6.950000 7.050000 7.150000 7.250000 7.350000 7.450000 7.550000 7.650000 7.750000 7.850000 7.950000 8.050000 8.150000 8.250000 8.350000 8.450000 8.550000 8.650000 8.750000 8.850000 8.950000 9.050000 9.150000 9.250000 9.350000 9.450000 9.550000 9.650000 9.750000 9.850000 9.950000 10.050000 10.150000 10.250000 10.350000 10.450000 10.550000 10.650000 10.750000 10.850000 10.950000 11.050000 11.150000 11.250000 11.350000 11.450000 11.550000 11.650000 11.750000 11.850000 11.950000 12.050000 12.150000 12.250000 12.350000 12.450000 12.550000 12.650000 12.750000 12.850000 12.950000 13.050000 13.150000 13.250000 13.350000 13.450000 13.550000 13.650000 13.750000 13.850000 13.950000 14.050000 14.150000 14.250000 14.350000 14.450000 14.550000 14.650000 14.750000 14.850000 14.950000 15.050000 15.150000 15.250000 15.350000 15.450000 15.550000 15.650000 15.750000 15.850000 15.950000 16.050000 16.150000 16.250000 16.350000 16.450000 16.550000 16.650000 16.750000 16.850000 16.950000 17.050000 17.150000 17.250000 17.350000 17.450000 17.550000 17.650000 17.750000 17.850000 17.950000 18.050000 18.150000 18.250000 18.350000 18.450000 18.550000 18.650000 18.750000 18.850000 18.950000 19.050000 19.150000 19.250000 19.350000 19.450000 19.550000 19.650000 19.750000 19.850000 19.950000 
Y_COORDINATES 20 double
0.050000 0.150000 0.250000 0.350000 0.450000 0.550000 0.650000 0.750000 0.850000 0.950000 1.050000 1.150000 1.250000 1.350000 1.450000 1.550000 1.650000 1.750000 1.850000 1.950000 
Z_COORDINATES 1 double
0.0
POINT_DATA 4000
VECTORS Vektorfeld double
1.000000 0.000000 0.0
1.000000 0.000000 0.0
1.000000 0.000000 0.0
1.000000 0.000000 0.0
1.000000 0.000000 0.0
1.000000 0.000000 0.0
1.000000 0.000000 0.0
1.000000 0.000000 0.0
1.000000 0.000000 0.0
1.000000 0.000000 0.0
1.000000 0.000000 0.0
1.000000 0.000000 0.0
1.000000 0.000000 0.0
1.000000 0.000000 0.0
1.000000 0.000000 0.0
1.000000 0.000000 0.0
1.000000 0.000000 0.0
1.000000 0.000000 0.0
1.000000 0.000000 0.0
1.000000 0.000000 0.0
1.000000 0.000000 0.0
1.000000 0.000000 0.0
1.000000 0.000000 0.0
1.000000 0.000000 0.0
1.000000 0.000000 0.0
1.000000 0.000000 0.0
1.000000 0.000000 0.0
1.000000 0.000000 0.0
1.000000 0.000000 0.0
1.000000 0.000000 0.0
1.000000 0.000000 0.0
1.000000 0.000000 0.0
1.000000 0.000000 0.0
1.000000 0.000000 0.0
1.000000 0.000000 0.0
1.000000 0.000000 0.0
1.000000 0.000000 0.0
1.000000 0.000000 0.0
1.000000 0.000000 0.0
1.000000 0.000000 0.0
1.000000 0.000000 0.0
1.000000 0.000000 0.0
1.000000 0.000000 0.0
1.000000 0.000000 0.0
1.000000 0.000000 0.0
1.000000 0.000000 0.0
1.000000 0.000000 0.0
1.000000 0.000000 0.0
1.000000 0.000000 0.0
1.000000 0.000000 0.0
1.000000 0.000000 0.0
1.000000 0.000000 0.0
1.000000 0.000000 0.0
1.000000 0.000000 0.0
1.000000 0.000000 0.0
1.000000 0.000000 0.0
1.000000 0.000000 0.0
1.000000 0.000000 0.0
1.000000 0.000000 0.0
1.000000 0.000000 0.0
1.000000 0.000000 0.0
1.000000 0.000000 0.0
1.000000 0.000000 0.0
1.000000 0.000000 0.0
1.000000 0.000000 0.0
1.000000 0.000000 0.0
1.000000 0.000000 0.0
1.000000 0.000000 0.0
1.000000 0.000000 0.0
1.000000 0.000000 0.0
1.000000 0.000000 0.0
1.000000 0.000000 0.0
1.000000 0.000000 0.0
1.000000 0.000000 0.0
1.000000 0.000000 0.0
1.000000 0.000000 0.0
1.000000 0.000000 0.0
1.000000 0.000000 0.0
1.000000 0.000000 0.0
1.000000 0.000000 0.0
1.000000 0.000000 0.0
1.000000 0.000000 0.0
1.000000 0.000000 0.0
1.000000 0.000000 0.0
1.000000 0.000000 0.0
1.000000 0.000000 0.0
1.000000 0.000000 0.0
1.000000 0.000000 0.0
1.000000 0.000000 0.0
1.000000 0.000000 0.0
1.000000 0.000000 0.0
1.000000 0.000000 0.0
1.000000 0.000000 0.0
1.000000 0.000000 0.0
1.000000 0.000000 0.0
1.000000 0.000000 0.0
1.000000 0.000000 0.0
1.000000 0.000000 0.0
1.000000 0.000000 0.0
1.000000 0.000000 0.0
1.000000 0.000000 0.0
1.000000 0.000000 0.0
1.000000 0.000000 0.0
1.000000 0.000000 0.0
1.000000 0.000000 0.0
1.000000 0.000000 0.0
1.000000 0.000000 0.0
1.000000 0.000000 0.0
1.000000 0.000000 0.0
1.000000 0.000000 0.0
1.000000 0.000000 0.0
1.000000 0.000000 0.0
1.000000 0.000000 0.0
1.000000 0.000000 0.0
1.000000 0.000000 0.0
1.000000 0.000000 0.0
1.000000 0.000000 0.0
1.000000 0.000000 0.0
1.000000 0.000000 0.0
1.000000 0.000000 0.0
1.000000 0.000000 0.0
1.000000 0.000000 0.0
1.000000 0.000000 0.0
1.000000 0.000000 0.0
1.000000 0.000000 0.0
1.000000 0.000000 0.0
1.000000 0.000000 0.0
1.000000 0.000000 0.0
1.000000 0.000000 0.0
1.000000 0.000000 0.0
1.000000 0.000000 0.0
1.000000 0.000000 0.0
1.000000 0.000000 0.0
1.000000 0.000000 0.0
1.000000 0.000000 0.0
1.000000 0.000000 0.0
1.000000 0.000000 0.0
1.000000 0.000000 0.0
1.000000 0.000000 0.0
1.000000 0.000000 0.0
1.000000 0.000000 0.0
1.000000 0.000000 0.0
1.000000 0.000000 0.0
1.000000 0.000000 0.0
1.000000 0.000000 0.0
1.000000 0.000000 0.0
1.000000 0.000000 0.0
1.000000 0.000000 0.0
1.000000 0.000000 0.0
1.000000 0.000000 0.0
1.000000 0.000000 0.0
1.000000 0.000000 0.0
1.000000 0.000000 0.0
1.000000 0.000000 0.0
1.000000 0.000000 0.0
1.000000 0.000000 0.0
1.000000 0.000000 0.0
1.000000 0.000000 0.0
1.000000 0.000000 0.0
1.000000 0.000000 0.0
1.000000 0.000000 0.0
1.000000 0.000000 0.0
1.000000 0.000000 0.0
1.000000 0.000000 0.0
1.000000 0.000000 0.0
1.000000 0.000000 0.0
1.000000 0.000000 0.0
1.000000 0.000000 0.0
1.000000 0.000000 0.0
1.000000 0.000000 0.0
1.000000 0.000000 0.0
1.000000 0.000000 0.0
1.000000 0.000000 0.0
1.000000 0.000000 0.0
1.000000 0.000000 0.0
1.000000 0.000000 0.0
1.000000 0.000000 0.0
1.000000 0.000000 0.0
1.000000 0.000000 0.0
1.000000 0.000000 0.0
1.000000 0.000000 0.0
1.000000 0.000000 0.0
1.000000 0.000000 0.0
1.000000 0.000000 0.0
1.000000 0.000000 0.0
1.000000 0.000000 0.0
1.000000 0.000000 0.0
1.000000 0.000000 0.0
1.000000 0.000000 0.0
1.000000 0.000000 0.0
1.000000 0.000000 0.0
1.000000 0.000000 0.0
1.000000 0.000000 0.0
1.000000 0.000000 0.0
1.000000 0.000000 0.0
1.000000 0.000000 0.0
1.000000 0.000000 0.0
1.000000 0.000000 0.0
1.000000 0.000000 0.0
1.000000 0.000000 0.0
1.000000 0.000000 0.0
1.000000 0.000000 0.0
1.000000 0.000000 0.0
1.000000 0.000000 0.0
1.000000 0.000000 0.0
1.000000 0.000000 0.0
1.000000 0.000000 0.0
1.000000 0.000000 0.0
1.000000 0.000000 0.0
1.000000 0.000000 0.0
1.000000 0.000000 0.0
1.000000 0.000000 0.0
1.000000 0.000000 0.0
1.000000 0.000000 0.0
1.000000 0.000000 0.0
1.000000 0.000000 0.0
1.000000 0.000000 0.0
1.000000 0.000000 0.0
1.000000 0.000000 0.0
1.000000 0.000000 0.0
1.000000 0.000000 0.0
1.000000 0.000000 0.0
1.000000 0.000000 0.0
1.000000 0.000000 0.0
1.000000 0.000000 0.0
1.000000 0.000000 0.0
1.000000 0.000000 0.0
1.000000 0.000000 0.0
1.000000 0.000000 0.0
1.000000 0.000000 0.0
1.000000 0.000000 0.0
1.000000 0.000000 0.0
1.000000 0.000000 0.0
1.000000 0.000000 0.0
1.000000 0.000000 0.0
1.000000 0.000000 0.0
1.000000 0.000000 0.0
1.000000 0.000000 0.0
1.000000 0.000000 0.0
1.000000 0.000000 0.0
1.000000 0.000000 0.0
1.000000 0.000000 0.0
1.000000 0.000000 0.0
1.000000 0.000000 0.0
1.000000 0.000000 0.0
1.000000 0.000000 0.0
1.000000 0.000000 0.0
1.000000 0.000000 0.0
1.000000 0.000000 0.0
1.000000 0.000000 0.0
1.000000 0.000000 0.0
1.000000 0.000000 0.0
1.000000 0.000000 0.0
1.000000 0.000000 0.0
1.000000 0.000000 0.0
1.000000 0.000000 0.0
1.000000 0.000000 0.0
1.000000 0.000000 0.0
1.000000 0.000000 0.0
1.000000 0.000000 0.0
1.000000 0.000000 0.0
1.000000 0.000000 0.0
1.000000 0.000000 0.0
1.000000 0.000000 0.0
1.000000 0.000000 0.0
1.000000 0.000000 0.0
1.000000 0.000000 0.0
1.000000 0.000000 0.0
1.000000 0.000000 0.0
1.000000 0.000000 0.0
1.000000 0.000000 0.0
1.000000 0.000000 0.0
1.000000 0.000000 0.0
1.000000 0.000000 0.0
1.000000 0.000000 0.0
1.000000 0.000000 0.0
1.000000 0.000000 0.0
1.000000 0.000000 0.0
1.000000 0.000000 0.0
1.000000 0.000000 0.0
1.000000 0.000000 0.0
1.000000 0.000000 0.0
1.000000 0.000000 0.0
1.000000 0.000000 0.0
1.000000 0.000000 0.0
1.000000 0.000000 0.0
1.000000 0.000000 0.0
1.000000 0.000000 0.0
1.000000 0.000000 0.0
1.000000 0.000000 0.0
1.000000 0.000000 0.0
1.000000 0.000000 0.0
1.000000 0.000000 0.0
1.000000 0.000000 0.0
1.000000 0.000000 0.0
1.000000 0.000000 0.0
1.000000 0.000000 0.0
1.000000 0.000000 0.0
1.000000 0.000000 0.0
1.000000 0.000000 0.0
1.000000 0.000000 0.0
1.000000 0.000000 0.0
1.000000 0.000000 0.0
1.000000 0.000000 0.0
1.000000 0.000000 0.0
1.000000 0.000000 0.0
1.000000 0.000000 0.0
1.000000 0.000000 0.0
1.000000 0.000000 0.0
1.000000 0.000000 0.0
1.000000 0.000000 0.0
1.000000 0.000000 0.0
1.000000 0.000000 0.0
1.000000 0.000000 0.0
1.000000 0.000000 0.0
1.000000 0.000000 0.0
1.000000 0.000000 0.0
1.000000 0.000000 0.0
1.000000 0.000000 0.0
1.000000 0.000000 0.0
1.000000 0.000000 0.0
1.000000 0.000000 0.0
1.000000 0.000000 0.0
1.000000 0.000000 0.0
1.000000 0.000000 0.0
1.000000 0.000000 0.0
1.000000 0.000000 0.0
1.000000 0.000000 0.0
1.000000 0.000000 0.0
1.000000 0.000000 0.0
1.000000 0.000000 0.0
1.000000 0.000000 0.0
1.000000 0.000000 0.0
1.000000 0.000000 0.0
1.000000 0.000000 0.0
1.000000 0.000000 0.0
1.000000 0.000000 0.0
1.000000 0.000000 0.0
1.000000 0.000000 0.0
1.000000 0.000000 0.0
1.000000 0.000000 0.0
1.000000 0.000000 0.0
1.000000 0.000000 0.0
1.000000 0.000000 0.0
1.000000 0.000000 0.0
1.000000 0.000000 0.0
1.000000 0.000000 0.0
1.000000 0.000000 0.0
1.000000 0.000000 0.0
1.000000 0.000000 0.0
1.000000 0.000000 0.0
1.000000 0.000000 0.0
1.000000 0.000000 0.0
1.000000 0.000000 0.0
1.000000 0.000000 0.0
1.000000 0.000000 0.0
1.000000 0.000000 0.0
1.000000 0.000000 0.0
1.000000 0.000000 0.0
1.000000 0.000000 0.0
1.000000 0.000000 0.0
1.000000 0.000000 0.0
1.000000 0.000000 0.0
1.000000 0.000000 0.0
1.000000 0.000000 0.0
1.000000 0.000000 0.0
1.000000 0.000000 0.0
1.000000 0.000000 0.0
1.000000 0.000000 0.0
1.000000 0.000000 0.0
1.000000 0.000000 0.0
1.000000 0.000000 0.0
1.000000 0.000000 0.0
1.000000 0.000000 0.0
1.000000 0.000000 0.0
1.000000 0.000000 0.0
1.000000 0.000000 0.0
1.000000 0.000000 0.0
1.000000 0.000000 0.0
1.000000 0.000000 0.0
1.000000 0.000000 0.0
1.000000 0.000000 0.0
1.000000 0.000000 0.0
1.000000 0.000000 0.0
1.000000 0.000000 0.0
1.000000 0.000000 0.0
1.000000 0.000000 0.0
1.000000 0.000000 0.0
1.000000 0.000000 0.0
1.000000 0.000000 0.0
1.000000 0.000000 0.0
1.000000 0.000000 0.0
1.000000 0.000000 0.0
1.000000 0.000000 0.0
1.000000 0.000000 0.0
1.000000 0.000000 0.0
1.000000 0.000000 0.0
1.000000 0.000000 0.0
1.000000 0.000000 0.0
1.000000 0.000000 0.0
1.000000 0.000000 0.0
1.000000 0.000000 0.0
1.000000 0.000000 0.0
1.000000 0.000000 0.0
1.000000 0.000000 0.0
1.000000 0.000000 0.0
1.000000 0.000000 0.0
1.000000 0.000000 0.0
1.000000 0.000000 0.0
1.000000 0.000000 0.0
1.000000 0.000000 0.0
1.000000 0.000000 0.0
1.000000 0.000000 0.0
1.000000 0.000000 0.0
1.000000 0.000000 0.0
1.000000 0.000000 0.0
1.000000 0.000000 0.0
1.000000 0.000000 0.0
1.000000 0.000000 0.0
1.000000 0.000000 0.0
1.000000 0.000000 0.0
1.000000 0.000000 0.0
1.000000 0.000000 0.0
1.000000 0.000000 0.0
1.000000 0.000000 0.0
1.000000 0.000000 0.0
1.000000 0.000000 0.0
1.000000 0.000000 0.0
1.000000 0.000000 0.0
1.000000 0.000000 0.0
1.000000 0.000000 0.0
1.000000 0.000000 0.0
1.000000 0.000000 0.0
1.000000 0.000000 0.0
1.000000 0.000000 0.0
1.000000 0.000000 0.0
1.000000 0.000000 0.0
1.000000 0.000000 0.0
1.000000 0.000000 0.0
1.000000 0.000000 0.0
1.000000 0.000000 0.0
1.000000 0.000000 0.0
1.000000 0.000000 0.0
1.000000 0.000000 0.0
1.000000 0.000000 0.0
1.000000 0.000000 0.0
1.000000 0.000000 0.0
1.000000 0.000000 0.0
1.000000 0.000000 0.0
1.000000 0.000000 0.0
1.000000 0.000000 0.0
1.000000 0.000000 0.0
1.000000 0.000000 0.0
1.000000 0.000000 0.0
1.000000 0.000000 0.0
1.000000 0.000000 0.0
1.000000 0.000000 0.0
1.000000 0.000000 0.0
1.000000 0.000000 0.0
1.000000 0.000000 0.0
1.000000 0.000000 0.0
1.000000 0.000000 0.0
1.000000 0.000000 0.0
1.000000 0.000000 0.0
1.000000 0.000000 0.0
1.000000 0.000000 0.0
1.000000 0.000000 0.0
1.000000 0.000000 0.0
1.000000 0.000000 0.0
1.000000 0.000000 0.0
1.000000 0.000000 0.0
1.000000 0.000000 0.0
1.000000 0.000000 0.0
1.000000 0.000000 0.0
1.000000 0.000000 0.0
1.000000 0.000000 0.0
1.000000 0.000000 0.0
1.000000 0.000000 0.0
1.000000 0.000000 0.0
1.000000 0.000000 0.0
1.000000 0.000000 0.0
1.000000 0.000000 0.0
1.000000 0.000000 0.0
1.000000 0.000000 0.0
1.000000 0.000000 0.0
1.000000 0.000000 0.0
1.000000 0.000000 0.0
1.000000 0.000000 0.0
1.000000 0.000000 0.0
1.000000 0.000000 0.0
1.000000 0.000000 0.0
1.000000 0.000000 0.0
1.000000 0.000000 0.0
1.000000 0.000000 0.0
1.000000 0.000000 0.0
1.000000 0.000000 0.0
1.000000 0.000000 0.0
1.000000 0.000000 0.0
1.000000 0.000000 0.0
1.000000 0.000000 0.0
1.000000 0.000000 0.0
1.000000 0.000000 0.0
1.000000 0.000000 0.0
1.000000 0.000000 0.0
1.000000 0.000000 0.0
1.000000 0.000000 0.0
1.000000 0.000000 0.0
1.000000 0.000000 0.0
1.000000 0.000000 0.0
1.000000 0.000000 0.0
1.000000 0.000000 0.0
1.000000 0.000000 0.0
1.000000 0.000000 0.0
1.000000 0.000000 0.0
1.000000 0.000000 0.0
1.000000 0.000000 0.0
1.000000 0.000000 0.0
1.000000 0.000000 0.0
1.000000 0.000000 0.0
1.000000 0.000000 0.0
1.000000 0.000000 0.0
1.000000 0.000000 0.0
1.000000 0.000000 0.0
1.000000 0.000000 0.0
1.000000 0.000000 0.0
1.000000 0.000000 0.0
1.000000 0.000000 0.0
1.000000 0.000000 0.0
1.000000 0.000000 0.0
1.000000 0.000000 0.0
1.000000 0.000000 0.0
1.000000 0.000000 0.0
1.000000 0.000000 0.0
1.000000 0.000000 0.0
1.000000 0.000000 0.0
1.000000 0.000000 0.0
1.000000 0.000000 0.0
1.000000 0.000000 0.0
1.000000 0.000000 0.0
1.000000 0.000000 0.0
1.000000 0.000000 0.0
1.000000 0.000000 0.0
1.000000 0.000000 0.0
1.000000 0.000000 0.0
1.000000 0.000000 0.0
1.000000 0.000000 0.0
1.000000 0.000000 0.0
1.000000 0.000000 0.0
1.000000 0.000000 0.0
1.000000 0.000000 0.0
1.000000 0.000000 0.0
1.000000 0.000000 0.0
1.000000 0.000000 0.0
1.000000 0.000000 0.0
1.000000 0.000000 0.0
1.000000 0.000000 0.0
1.000000 0.000000 0.0
1.000000 0.000000 0.0
1.000000 0.000000 0.0
1.000000 0.000000 0.0
1.000000 0.000000 0.0
1.000000 0.000000 0.0
1.000000 0.000000 0.0
1.000000 0.000000 0.0
1.000000 0.000000 0.0
1.000000 0.000000 0.0
1.000000 0.000000 0.0
1.000000 0.000000 0.0
1.000000 0.000000 0.0
1.000000 0.000000 0.0
1.000000 0.000000 0.0
1.000000 0.000000 0.0
1.000000 0.000000 0.0
1.000000 0.000000 0.0
1.000000 0.000000 0.0
1.000000 0.000000 0.0
1.000000 0.000000 0.0
1.000000 0.000000 0.0
1.000000 0.000000 0.0
1.000000 0.000000 0.0
1.000000 0.000000 0.0
1.000000 0.000000 0.0
1.000000 0.000000 0.0
1.000000 0.000000 0.0
1.000000 0.000000 0.0
1.000000 0.000000 0.0
1.000000 0.000000 0.0
1.000000 0.000000 0.0
1.000000 0.000000 0.0
1.000000 0.000000 0.0
1.000000 0.000000 0.0
1.000000 0.000000 0.0
1.000000 0.000000 0.0
1.000000 0.000000 0.0
1.000000 0.000000 0.0
1.000000 0.000000 0.0
1.000000 0.000000 0.0
1.000000 0.000000 0.0
1.000000 0.000000 0.0
1.000000 0.000000 0.0
1.000000 0.000000 0.0
1.000000 0.000000 0.0
1.000000 0.000000 0.0
1.000000 0.000000 0.0
1.000000 0.000000 0.0
1.000000 0.000000 0.0
1.000000 0.000000 0.0
1.000000 0.000000 0.0
1.000000 0.000000 0.0
1.000000 0.000000 0.0
1.000000 0.000000 0.0
1.000000 0.000000 0.0
1.000000 0.000000 0.0
1.000000 0.000000 0.0
1.000000 0.000000 0.0
1.000000 0.000000 0.0
1.000000 0.000000 0.0
1.000000 0.000000 0.0
1.000000 0.000000 0.0
1.000000 0.000000 0.0
1.000000 0.000000 0.0
1.000000 0.000000 0.0
1.000000 0.000000 0.0
1.000000 0.000000 0.0
1.000000 0.000000 0.0
1.000000 0.000000 0.0
1.000000 0.000000 0.0
1.000000 0.000000 0.0
1.000000 0.000000 0.0
1.000000 0.000000 0.0
1.000000 0.000000 0.0
1.000000 0.000000 0.0
1.000000 0.000000 0.0
1.000000 0.000000 0.0
1.000000 0.000000 0.0
1.000000 0.000000 0.0
1.000000 0.000000 0.0
1.000000 0.000000 0.0
1.000000 0.000000 0.0
1.000000 0.000000 0.0
1.000000 0.000000 0.0
1.000000 0.000000 0.0
1.000000 0.000000 0.0
1.000000 0.000000 0.0
1.000000 0.000000 0.0
1.000000 0.000000 0.0
1.000000 0.000000 0.0
1.000000 0.000000 0.0
1.000000 0.000000 0.0
1.000000 0.000000 0.0
1.000000 0.000000 0.0
1.000000 0.000000 0.0
1.000000 0.000000 0.0
1.000000 0.000000 0.0
1.000000 0.000000 0.0
1.000000 0.000000 0.0
1.000000 0.000000 0.0
1.000000 0.000000 0.0
1.000000 0.000000 0.0
1.000000 0.000000 0.0
1.000000 0.000000 0.0
1.000000 0.000000 0.0
1.000000 0.000000 0.0
1.000000 0.000000 0.0
1.000000 0.000000 0.0
1.000000 0.000000 0.0
1.000000 0.000000 0.0
1.000000 0.000000 0.0
1.000000 0.000000 0.0
1.000000 0.000000 0.0
1.000000 0.000000 0.0
1.000000 0.000000 0.0
1.000000 0.000000 0.0
1.000000 0.000000 0.0
1.000000 0.000000 0.0
1.000000 0.000000 0.0
1.000000 0.000000 0.0
1.000000 0.000000 0.0
1.000000 0.000000 0.0
1.000000 0.000000 0.0
1.000000 0.000000 0.0
1.000000 0.000000 0.0
1.000000 0.000000 0.0
1.000000 0.000000 0.0
1.000000 0.000000 0.0
1.000000 0.000000 0.0
1.000000 0.000000 0.0
1.000000 0.000000 0.0
1.000000 0.000000 0.0
1.000000 0.000000 0.0
1.000000 0.000000 0.0
1.000000 0.000000 0.0
1.000000 0.000000 0.0
1.000000 0.000000 0.0
1.000000 0.000000 0.0
1.000000 0.000000 0.0
1.000000 0.000000 0.0
1.000000 0.000000 0.0
1.000000 0.000000 0.0
1.000000 0.000000 0.0
1.000000 0.000000 0.0
1.000000 0.000000 0.0
1.000000 0.000000 0.0
1.000000 0.000000 0.0
1.000000 0.000000 0.0
1.000000 0.000000 0.0
1.000000 0.000000 0.0
1.000000 0.000000 0.0
1.000000 0.000000 0.0
1.000000 0.000000 0.0
1.000000 0.000000 0.0
1.000000 0.000000 0.0
1.000000 0.000000 0.0
1.000000 0.000000 0.0
1.000000 0.000000 0.0
1.000000 0.000000 0.0
1.000000 0.000000 0.0
1.000000 0.000000 0.0
1.000000 0.000000 0.0
1.000000 0.000000 0.0
1.000000 0.000000 0.0
1.000000 0.000000 0.0
1.000000 0.000000 0.0
1.000000 0.000000 0.0
1.000000 0.000000 0.0
1.000000 0.000000 0.0
1.000000 0.000000 0.0
1.000000 0.000000 0.0
1.000000 0.000000 0.0
1.000000 0.000000 0.0
1.000000 0.000000 0.0
1.000000 0.000000 0.0
1.000000 0.000000 0.0
1.000000 0.000000 0.0
1.000000 0.000000 0.0
1.000000 0.000000 0.0
1.000000 0.000000 0.0
1.000000 0.000000 0.0
1.000000 0.000000 0.0
1.000000 0.000000 0.0
1.000000 0.000000 0.0
1.000000 0.000000 0.0
1.000000 0.000000 0.0
1.000000 0.000000 0.0
1.000000 0.000000 0.0
1.000000 0.000000 0.0
1.000000 0.000000 0.0
1.000000 0.000000 0.0
1.000000 0.000000 0.0
1.000000 0.000000 0.0
1.000000 0.000000 0.0
1.000000 0.000000 0.0
1.000000 0.000000 0.0
1.000000 0.000000 0.0
1.000000 0.000000 0.0
1.000000 0.000000 0.0
1.000000 0.000000 0.0
1.000000 0.000000 0.0
1.000000 0.000000 0.0
1.000000 0.000000 0.0
1.000000 0.000000 0.0
1.000000 0.000000 0.0
1.000000 0.000000 0.0
1.000000 0.000000 0.0
1.000000 0.000000 0.0
1.000000 0.000000 0.0
1.000000 0.000000 0.0
1.000000 0.000000 0.0
1.000000 0.000000 0.0
1.000000 0.000000 0.0
1.000000 0.000000 0.0
1.000000 0.000000 0.0
1.000000 0.000000 0.0
1.000000 0.000000 0.0
1.000000 0.000000 0.0
1.000000 0.000000 0.0
1.000000 0.000000 0.0
1.000000 0.000000 0.0
1.000000 0.000000 0.0
1.000000 0.000000 0.0
1.000000 0.000000 0.0
1.000000 0.000000 0.0
1.000000 0.000000 0.0
1.000000 0.000000 0.0
1.000000 0.000000 0.0
1.000000 0.000000 0.0
1.000000 0.000000 0.0
1.000000 0.000000 0.0
1.000000 0.000000 0.0
1.000000 0.000000 0.0
1.000000 0.000000 0.0
1.000000 0.000000 0.0
1.000000 0.000000 0.0
1.000000 0.000000 0.0
1.000000 0.000000 0.0
1.000000 0.000000 0.0
1.000000 0.000000 0.0
1.000000 0.000000 0.0
1.000000 0.000000 0.0
1.000000 0.000000 0.0
0.000352 0.000000 0.0
-0.998693 0.000000 0.0
-0.997386 0.000000 0.0
-0.995934 0.000000 0.0
-0.994417 0.000000 0.0
-0.992869 0.000000 0.0
-0.991307 0.000000 0.0
-0.989738 0.000000 0.0
-0.988169 0.000000 0.0
-0.986599 0.000000 0.0
-0.985031 0.000000 0.0
-0.983466 0.000000 0.0
-0.981903 0.000000 0.0
-0.980343 0.000000 0.0
-0.978786 0.000000 0.0
-0.977232 0.000000 0.0
-0.975681 0.000000 0.0
-0.974133 0.000000 0.0
-0.972588 0.000000 0.0
-0.971046 0.000000 0.0
-0.969507 0.000000 0.0
-0.967972 0.000000 0.0
-0.966439 0.000000 0.0
-0.964909 0.000000 0.0
-0.963382 0.000000 0.0
-0.961858 0.000000 0.0
-0.960338 0.000000 0.0
-0.958820 0.000000 0.0
-0.957305 0.000000 0.0
-0.955794 0.000000 0.0
-0.954285 0.000000 0.0
-0.952779 0.000000 0.0
-0.951276 0.000000 0.0
-0.949777 0.000000 0.0
-0.948280 0.000000 0.0
-0.946786 0.000000 0.0
-0.945296 0.000000 0.0
-0.943808 0.000000 0.0
-0.942323 0.000000 0.0
-0.940841 0.000000 0.0
-0.939363 0.000000 0.0
-0.937887 0.000000 0.0
-0.936414 0.000000 0.0
-0.934944 0.000000 0.0
-0.933477 0.000000 0.0
-0.932013 0.000000 0.0
-0.930552 0.000000 0.0
-0.929094 0.000000 0.0
-0.927639 0.000000 0.0
-0.926187 0.000000 0.0
-0.924737 0.000000 0.0
-0.923291 0.000000 0.0
-0.921848 0.000000 0.0
-0.920407 0.000000 0.0
-0.918970 0.000000 0.0
-0.917535 0.000000 0.0
-0.916104 0.000000 0.0
-0.914675 0.000000 0.0
-0.913249 0.000000 0.0
-0.911826 0.000000 0.0
-0.910406 0.000000 0.0
-0.908989 0.000000 0.0
-0.907575 0.000000 0.0
-0.906164 0.000000 0.0
-0.904755 0.000000 0.0
-0.903350 0.000000 0.0
-0.901947 0.000000 0.0
-0.900548 0.000000 0.0
-0.899151 0.000000 0.0
-0.897757 0.000000 0.0
-0.896366 0.000000 0.0
-0.894978 0.000000 0.0
-0.893593 0.000000 0.0
-0.892210 0.000000 0.0
-0.890831 0.000000 0.0
-0.889454 0.000000 0.0
-0.888081 0.000000 0.0
-0.886710 0.000000 0.0
-0.885342 0.000000 0.0
-0.883976 0.000000 0.0
-0.882614 0.000000 0.0
-0.881255 0.000000 0.0
-0.879898 0.000000 0.0
-0.878544 0.000000 0.0
-0.877193 0.000000 0.0
-0.875845 0.000000 0.0
-0.874500 0.000000 0.0
-0.873158 0.000000 0.0
-0.871818 0.000000 0.0
-0.870481 0.000000 0.0
-0.869147 0.000000 0.0
-0.867816 0.000000 0.0
-0.866488 0.000000 0.0
-0.865162 0.000000 0.0
-0.863840 0.000000 0.0
-0.862520 0.000000 0.0
-0.861203 0.000000 0.0
-0.859889 0.000000 0.0
-0.858577 0.000000 0.0
-0.857269 0.000000 0.0
-0.855963 0.000000 0.0
-0.854660 0.000000 0.0
-0.853359 0.000000 0.0
-0.852062 0.000000 0.0
-0.850767 0.000000 0.0
-0.849475 0.000000 0.0
-0.848186 0.000000 0.0
-0.846900 0.000000 0.0
-0.845616 0.000000 0.0
-0.844335 0.000000 0.0
-0.843057 0.000000 0.0
-0.841782 0.000000 0.0
-0.840509 0.000000 0.0
-0.839240 0.000000 0.0
-0.837973 0.000000 0.0
-0.836708 0.000000 0.0
-0.835447 0.000000 0.0
-0.834188 0.000000 0.0
-0.832932 0.000000 0.0
-0.831679 0.000000 0.0
-0.830428 0.000000 0.0
-0.829180 0.000000 0.0
-0.827935 0.000000 0.0
-0.826693 0.000000 0.0
-0.825453 0.000000 0.0
-0.824216 0.000000 0.0
-0.822982 0.000000 0.0
-0.821750 0.000000 0.0
-0.820522 0.000000 0.0
-0.819296 0.000000 0.0
-0.818072 0.000000 0.0
-0.816852 0.000000 0.0
-0.815634 0.000000 0.0
-0.814418 0.000000 0.0
-0.813206 0.000000 0.0
-0.811996 0.000000 0.0
-0.810788 0.000000 0.0
-0.809584 0.000000 0.0
-0.808382 0.000000 0.0
-0.807183 0.000000 0.0
-0.805986 0.000000 0.0
-0.804792 0.000000 0.0
-0.803601 0.000000 0.0
-0.802413 0.000000 0.0
-0.801227 0.000000 0.0
-0.800044 0.000000 0.0
-0.798863 0.000000 0.0
-0.797685 0.000000 0.0
-0.796510 0.000000 0.0
-0.795338 0.000000 0.0
-0.794168 0.000000 0.0
-0.793000 0.000000 0.0
-0.791836 0.000000 0.0
-0.790674 0.000000 0.0
-0.789515 0.000000 0.0
-0.788358 0.000000 0.0
-0.787205 0.000000 0.0
-0.786054 0.000000 0.0
-0.784906 0.000000 0.0
-0.783761 0.000000 0.0
-0.782619 0.000000 0.0
-0.781481 0.000000 0.0
-0.780346 0.000000 0.0
-0.779215 0.000000 0.0
-0.778088 0.000000 0.0
-0.776966 0.000000 0.0
-0.775849 0.000000 0.0
-0.774738 0.000000 0.0
-0.773634 0.000000 0.0
-0.772539 0.000000 0.0
-0.771452 0.000000 0.0
-0.770376 0.000000 0.0
-0.769314 0.000000 0.0
-0.768266 0.000000 0.0
-0.767236 0.000000 0.0
-0.766226 0.000000 0.0
-0.765239 0.000000 0.0
-0.764280 0.000000 0.0
-0.763350 0.000000 0.0
-0.762454 0.000000 0.0
-0.761596 0.000000 0.0
-0.760780 0.000000 0.0
-0.760009 0.000000 0.0
-0.759286 0.000000 0.0
-0.758615 0.000000 0.0
-0.757997 0.000000 0.0
-0.757433 0.000000 0.0
-0.756925 0.000000 0.0
-0.756473 0.000000 0.0
-0.756077 0.000000 0.0
-0.755738 0.000000 0.0
-0.755454 0.000000 0.0
-0.755224 0.000000 0.0
-0.755044 0.000000 0.0
-0.754915 0.000000 0.0
-0.754840 0.000000 0.0
-0.754829 0.000000 0.0
-0.754898 0.000000 0.0
-0.755074 0.000000 0.0
-0.755195 0.000000 0.0
0.999648 0.000352 0.0
0.998693 0.000603 0.0
0.997386 0.000704 0.0
0.995934 0.000748 0.0
0.994417 0.000769 0.0
0.992869 0.000779 0.0
0.991307 0.000783 0.0
0.989738 0.000785 0.0
0.988169 0.000785 0.0
0.986599 0.000784 0.0
0.985031 0.000783 0.0
0.983466 0.000782 0.0
0.981903 0.000781 0.0
0.980343 0.000779 0.0
0.978786 0.000778 0.0
0.977232 0.000776 0.0
0.975681 0.000775 0.0
0.974133 0.000773 0.0
0.972588 0.000772 0.0
0.971046 0.000770 0.0
0.969507 0.000769 0.0
0.967972 0.000767 0.0
0.966439 0.000766 0.0
0.964909 0.000764 0.0
0.963382 0.000763 0.0
0.961858 0.000761 0.0
0.960338 0.000760 0.0
0.958820 0.000758 0.0
0.957305 0.000757 0.0
0.955794 0.000755 0.0
0.954285 0.000754 0.0
0.952779 0.000752 0.0
0.951276 0.000751 0.0
0.949777 0.000749 0.0
0.948280 0.000748 0.0
0.946786 0.000746 0.0
0.945296 0.000745 0.0
0.943808 0.000743 0.0
0.942323 0.000742 0.0
0.940841 0.000740 0.0
0.939363 0.000739 0.0
0.937887 0.000737 0.0
0.936414 0.000736 0.0
0.934944 0.000734 0.0
0.933477 0.000733 0.0
0.932013 0.000731 0.0
0.930552 0.000730 0.0
0.929094 0.000728 0.0
0.927639 0.000727 0.0
0.926187 0.000725 0.0
0.924737 0.000724 0.0
0.923291 0.000722 0.0
0.921848 0.000721 0.0
0.920407 0.000719 0.0
0.918970 0.000718 0.0
0.917535 0.000717 0.0
0.916104 0.000715 0.0
0.914675 0.000714 0.0
0.913249 0.000712 0.0
0.911826 0.000711 0.0
0.910406 0.000709 0.0
0.908989 0.000708 0.0
0.907575 0.000706 0.0
0.906164 0.000705 0.0
0.904755 0.000703 0.0
0.903350 0.000702 0.0
0.901947 0.000701 0.0
0.900548 0.000699 0.0
0.899151 0.000698 0.0
0.897757 0.000696 0.0
0.896366 0.000695 0.0
0.894978 0.000693 0.0
0.893593 0.000692 0.0
0.892210 0.000690 0.0
0.890831 0.000689 0.0
0.889454 0.000688 0.0
0.888081 0.000686 0.0
0.886710 0.000685 0.0
0.885342 0.000683 0.0
0.883976 0.000682 0.0
0.882614 0.000680 0.0
0.881255 0.000679 0.0
0.879898 0.000678 0.0
0.878544 0.000676 0.0
0.877193 0.000675 0.0
0.875845 0.000673 0.0
0.874500 0.000672 0.0
0.873158 0.000671 0.0
0.871818 0.000669 0.0
0.870481 0.000668 0.0
0.869147 0.000666 0.0
0.867816 0.000665 0.0
0.866488 0.000663 0.0
0.865162 0.000662 0.0
0.863840 0.000661 0.0
0.862520 0.000659 0.0
0.861203 0.000658 0.0
0.859889 0.000656 0.0
0.858577 0.000655 0.0
0.857269 0.000654 0.0
0.855963 0.000652 0.0
0.854660 0.000651 0.0
0.853359 0.000649 0.0
0.852062 0.000648 0.0
0.850767 0.000647 0.0
0.849475 0.000645 0.0
0.848186 0.000644 0.0
0.846900 0.000642 0.0
0.845616 0.000641 0.0
0.844335 0.000640 0.0
0.843057 0.000638 0.0
0.841782 0.000637 0.0
0.840509 0.000636 0.0
0.839240 0.000634 0.0
0.837973 0.000633 0.0
0.836708 0.000631 0.0
0.835447 0.000630 0.0
0.834188 0.000629 0.0
0.832932 0.000627 0.0
0.831679 0.000626 0.0
0.830428 0.000625 0.0
0.829180 0.000623 0.0
0.827935 0.000622 0.0
0.826693 0.000621 0.0
0.825453 0.000619 0.0
0.824216 0.000618 0.0
0.822982 0.000616 0.0
0.821751 0.000615 0.0
0.820522 0.000614 0.0
0.819296 0.000612 0.0
0.818072 0.000611 0.0
0.816852 0.000610 0.0
0.815634 0.000608 0.0
0.814418 0.000607 0.0
0.813206 0.000606 0.0
0.811996 0.000604 0.0
0.810788 0.000603 0.0
0.809584 0.000602 0.0
0.808382 0.000600 0.0
0.807183 0.000599 0.0
0.805986 0.000598 0.0
0.804792 0.000596 0.0
0.803601 0.000595 0.0
0.802413 0.000594 0.0
0.801227 0.000592 0.0
0.800044 0.000591 0.0
0.798863 0.000590 0.0
0.797685 0.000588 0.0
0.796510 0.000587 0.0
0.795338 0.000586 0.0
0.794168 0.000584 0.0
0.793000 0.000583 0.0
0.791836 0.000582 0.0
0.790674 0.000580 0.0
0.789515 0.000579 0.0
0.788358 0.000578 0.0
0.787205 0.000576 0.0
0.786054 0.000575 0.0
0.784906 0.000573 0.0
0.783761 0.000572 0.0
0.782619 0.000570 0.0
0.781480 0.000569 0.0
0.780345 0.000567 0.0
0.779213 0.000565 0.0
0.778086 0.000563 0.0
0.776963 0.000560 0.0
0.775844 0.000558 0.0
0.774732 0.000555 0.0
0.773626 0.000551 0.0
0.772528 0.000547 0.0
0.771439 0.000542 0.0
0.770360 0.000537 0.0
0.769293 0.000530 0.0
0.768240 0.000523 0.0
0.767203 0.000514 0.0
0.766186 0.000504 0.0
0.765191 0.000492 0.0
0.764220 0.000478 0.0
0.763279 0.000463 0.0
0.762370 0.000446 0.0
0.761498 0.000427 0.0
0.760665 0.000406 0.0
0.759876 0.000383 0.0
0.759134 0.000359 0.0
0.758442 0.000333 0.0
0.757803 0.000306 0.0
0.757218 0.000279 0.0
0.756687 0.000251 0.0
0.756212 0.000223 0.0
0.755794 0.000195 0.0
0.755432 0.000167 0.0
0.755127 0.000139 0.0
0.754876 0.000112 0.0
0.754677 0.000086 0.0
0.754530 0.000061 0.0
0.754436 0.000033 0.0
0.754408 -0.000005 0.0
0.754463 -0.000050 0.0
0.754629 -0.000116 0.0
0.754970 -0.000225 0.0
1.000193 0.000511 0.0
1.000628 0.000964 0.0
1.001100 0.001177 0.0
1.001546 0.001282 0.0
1.001963 0.001335 0.0
1.002361 0.001363 0.0
1.002746 0.001377 0.0
1.003121 0.001384 0.0
1.003490 0.001388 0.0
1.003852 0.001389 0.0
1.004209 0.001389 0.0
1.004562 0.001389 0.0
1.004910 0.001388 0.0
1.005253 0.001388 0.0
1.005593 0.001387 0.0
1.005929 0.001386 0.0
1.006260 0.001385 0.0
1.006588 0.001384 0.0
1.006911 0.001383 0.0
1.007231 0.001382 0.0
1.007546 0.001381 0.0
1.007858 0.001379 0.0
1.008166 0.001378 0.0
1.008470 0.001377 0.0
1.008770 0.001376 0.0
1.009066 0.001375 0.0
1.009359 0.001374 0.0
1.009648 0.001373 0.0
1.009933 0.001371 0.0
1.010215 0.001370 0.0
1.010493 0.001369 0.0
1.010767 0.001368 0.0
1.011038 0.001367 0.0
1.011305 0.001365 0.0
1.011569 0.001364 0.0
1.011829 0.001363 0.0
1.012086 0.001362 0.0
1.012339 0.001360 0.0
1.012589 0.001359 0.0
1.012836 0.001358 0.0
1.013079 0.001357 0.0
1.013319 0.001355 0.0
1.013555 0.001354 0.0
1.013788 0.001353 0.0
1.014018 0.001351 0.0
1.014245 0.001350 0.0
1.014468 0.001349 0.0
1.014688 0.001347 0.0
1.014905 0.001346 0.0
1.015119 0.001345 0.0