# vtk DataFile Version 3.0
Vector Field
ASCII
DATASET RECTILINEAR_GRID
DIMENSIONS 26 100 1
X_COORDINATES 26 double
0.050000 0.150000 0.250000 0.350000 0.450000 0.550000 0.650000 0.750000 0.850000 0.950000 1.050000 1.150000 1.250000 1.350000 1.450000 1.550000 1.650000 1.750000 1.850000 1.950000 2.050000 2.150000 2.250000 2.350000 2.450000 2.550000 
Y_COORDINATES 100 double
0.050000 0.150000 0.250000 0.350000 0.450000 0.550000 0.650000 0.750000 0.850000 0.950000 1.050000 1.150000 1.250000 1.350000 1.450000 1.550000 1.650000 1.750000 1.850000 1.950000 2.050000 2.150000 2.250000 2.350000 2.450000 2.550000 2.650000 2.750000 2.850000 2.950000 3.050000 3.150000 3.250000 3.350000 3.450000 3.550000 3.650000 3.750000 3.850000 3.950000 4.050000 4.150000 4.250000 4.350000 4.450000 4.550000 4.650000 4.750000 4.850000 4.950000 5.050000 5.150000 5.250000 5.350000 5.450000 5.550000 5.650000 5.750000 5.850000 5.950000 6.050000 6.150000 6.250000 6.350000 6.450000 6.550000 6.650000 6.750000 6.850000 6.950000 7.050000 7.150000 7.250000 7.350000 7.450000 7.550000 7.650000 7.750000 7.850000 7.950000 8.050000 8.150000 8.250000 8.350000 8.450000 8.550000 8.650000 8.750000 8.850000 8.950000 9.050000 9.150000 9.250000 9.350000 9.450000 9.550000 9.650000 9.750000 9.850000 9.950000 
Z_COORDINATES 1 double
0.0
POINT_DATA 2600
VECTORS Vektorfeld double
0.002014 -1.247525 0.0
0.003397 -1.294120 0.0
-0.000504 -1.263852 0.0
-0.008691 -1.212005 0.0
-0.019230 -1.153722 0.0
-0.030592 -1.096152 0.0
-0.041800 -1.043312 0.0
-0.052228 -0.997788 0.0
-0.061492 -0.960880 0.0
-0.069363 -0.932961 0.0
-0.075711 -0.913677 0.0
-0.080455 -0.902231 0.0
-0.083528 -0.897598 0.0
-0.084866 -0.898669 0.0
-0.084405 -0.904300 0.0
-0.082091 -0.913316 0.0
-0.077901 -0.924488 0.0
-0.071867 -0.936514 0.0
-0.064104 -0.948016 0.0
-0.054842 -0.957552 0.0
-0.044455 -0.963677 0.0
-0.033484 -0.964992 0.0
-0.022660 -0.960176 0.0
-0.012898 -0.947774 0.0
-0.005301 -0.924589 0.0
-0.001098 -0.840115 0.0
0.003698 -1.253236 0.0
0.005147 -1.291241 0.0
-0.004001 -1.253683 0.0
-0.019727 -1.198261 0.0
-0.037743 -1.138911 0.0
-0.055725 -1.081620 0.0
-0.072518 -1.029842 0.0
-0.087534 -0.985813 0.0
-0.100492 -0.950633 0.0
-0.111277 -0.924552 0.0
-0.119850 -0.907165 0.0
-0.126178 -0.897672 0.0
-0.130192 -0.895070 0.0
-0.131778 -0.898273 0.0
-0.130788 -0.906147 0.0
-0.127068 -0.917503 0.0
-0.120496 -0.931063 0.0
-0.111026 -0.945443 0.0
-0.098736 -0.959140 0.0
-0.083878 -0.970547 0.0
-0.066943 -0.978005 0.0
-0.048736 -0.979842 0.0
-0.030493 -0.974393 0.0
-0.014032 -0.959779 0.0
-0.002192 -0.932019 0.0
0.001067 -0.840146 0.0
0.001197 -1.258131 0.0
-0.002896 -1.283701 0.0
-0.018081 -1.236889 0.0
-0.039368 -1.178042 0.0
-0.062168 -1.118315 0.0
-0.084276 -1.062126 0.0
-0.104592 -1.012228 0.0
-0.122556 -0.970448 0.0
-0.137920 -0.937676 0.0
-0.150599 -0.914045 0.0
-0.160567 -0.899130 0.0
-0.167782 -0.892163 0.0
-0.172148 -0.892199 0.0
-0.173509 -0.898198 0.0
-0.171673 -0.909049 0.0
-0.166450 -0.923544 0.0
-0.157699 -0.940346 0.0
-0.145367 -0.957962 0.0
-0.129546 -0.974732 0.0
-0.110521 -0.988837 0.0
-0.088850 -0.998321 0.0
-0.065478 -1.001104 0.0
-0.041911 -0.994941 0.0
-0.020505 -0.977099 0.0
-0.004964 -0.942081 0.0
0.000386 -0.838693 0.0
-0.002428 -1.256901 0.0
-0.013954 -1.269313 0.0
-0.035652 -1.214395 0.0
-0.061690 -1.153211 0.0
-0.088201 -1.093836 0.0
-0.113354 -1.039342 0.0
-0.136198 -0.991853 0.0
-0.156242 -0.952815 0.0
-0.173278 -0.922908 0.0
-0.187242 -0.902170 0.0
-0.198111 -0.890168 0.0
-0.205832 -0.886188 0.0
-0.210294 -0.889346 0.0
-0.211329 -0.898655 0.0
-0.208740 -0.913016 0.0
-0.202343 -0.931196 0.0
-0.192001 -0.951789 0.0
-0.177662 -0.973190 0.0
-0.159407 -0.993581 0.0
-0.137495 -1.010924 0.0
-0.112455 -1.022945 0.0
-0.085210 -1.027096 0.0
-0.057312 -1.020414 0.0
-0.031309 -0.999035 0.0
-0.011469 -0.955526 0.0
-0.001880 -0.840187 0.0
-0.006683 -1.247790 0.0
-0.026087 -1.247492 0.0
-0.053662 -1.186942 0.0
-0.083544 -1.124743 0.0
-0.112857 -1.066481 0.0
-0.140180 -1.014221 0.0
-0.164740 -0.969571 0.0
-0.186143 -0.933649 0.0
-0.204235 -0.906946 0.0
-0.218979 -0.889424 0.0
-0.230365 -0.880659 0.0
-0.238353 -0.879989 0.0
-0.242845 -0.886592 0.0
-0.243699 -0.899522 0.0
-0.240745 -0.917692 0.0
-0.233817 -0.939845 0.0
-0.222782 -0.964518 0.0
-0.207565 -0.990016 0.0
-0.188190 -1.014386 0.0
-0.164830 -1.035391 0.0
-0.137891 -1.050459 0.0
-0.108146 -1.056571 0.0
-0.076983 -1.050000 0.0
-0.046839 -1.025596 0.0
-0.022030 -0.973614 0.0
-0.005825 -0.847892 0.0
-0.010916 -1.230191 0.0
-0.037464 -1.219140 0.0
-0.069693 -1.155491 0.0
-0.102490 -1.093516 0.0
-0.133802 -1.037083 0.0
-0.162554 -0.987543 0.0
-0.188152 -0.946091 0.0
-0.210313 -0.913565 0.0
-0.228952 -0.890299 0.0
-0.244083 -0.876196 0.0
-0.255737 -0.870846 0.0
-0.263916 -0.873636 0.0
-0.268569 -0.883799 0.0
-0.269599 -0.900431 0.0
-0.266868 -0.922468 0.0
-0.260214 -0.948650 0.0
-0.249477 -0.977485 0.0
-0.234527 -1.007216 0.0
-0.215300 -1.035787 0.0
-0.191851 -1.060798 0.0
-0.164420 -1.079422 0.0
-0.133549 -1.088224 0.0
-0.100305 -1.082755 0.0
-0.066705 -1.056586 0.0
-0.036379 -0.997758 0.0
-0.011307 -0.865024 0.0
-0.014549 -1.204726 0.0
-0.046781 -1.185826 0.0
-0.082250 -1.121107 0.0
-0.116974 -1.060379 0.0
-0.149482 -1.006400 0.0
-0.178959 -0.959998 0.0
-0.204971 -0.922026 0.0
-0.227353 -0.893087 0.0
-0.246110 -0.873381 0.0
-0.261330 -0.862763 0.0
-0.273114 -0.860840 0.0
-0.281531 -0.867046 0.0
-0.286590 -0.880676 0.0
-0.288229 -0.900885 0.0
-0.286314 -0.926660 0.0
-0.280657 -0.956769 0.0
-0.271042 -0.989717 0.0
-0.257271 -1.023706 0.0
-0.239198 -1.056597 0.0
-0.216771 -1.085863 0.0
-0.190069 -1.108490 0.0
-0.159366 -1.120729 0.0
-0.125294 -1.117566 0.0
-0.089147 -1.091523 0.0
-0.053194 -1.029100 0.0
-0.017809 -0.894140 0.0
-0.017227 -1.172950 0.0
-0.053331 -1.149266 0.0
-0.090584 -1.084944 0.0
-0.126175 -1.026227 0.0
-0.159027 -0.975191 0.0
-0.188508 -0.932249 0.0
-0.214322 -0.897949 0.0
-0.236420 -0.872684 0.0
-0.254910 -0.856537 0.0
-0.269974 -0.849323 0.0
-0.281799 -0.850671 0.0
-0.290521 -0.860075 0.0
-0.296192 -0.876917 0.0
-0.298753 -0.900445 0.0
-0.298038 -0.929729 0.0
-0.293805 -0.963589 0.0
-0.285781 -1.000535 0.0
-0.273718 -1.038723 0.0
-0.257430 -1.075941 0.0
-0.236801 -1.109574 0.0
-0.211777 -1.136506 0.0
-0.182356 -1.152836 0.0
-0.148646 -1.153242 0.0
-0.110992 -1.129649 0.0
-0.069956 -1.067963 0.0
-0.024334 -0.936283 0.0
-0.018834 -1.136889 0.0
-0.056909 -1.111149 0.0
-0.094493 -1.048223 0.0
-0.129825 -0.992024 0.0
-0.162113 -0.944254 0.0
-0.190848 -0.904970 0.0
-0.215841 -0.874422 0.0
-0.237152 -0.852803 0.0
-0.254993 -0.840086 0.0
-0.269643 -0.836060 0.0
-0.281364 -0.840389 0.0
-0.290342 -0.852658 0.0
-0.296631 -0.872373 0.0
-0.300144 -0.898915 0.0
-0.300662 -0.931457 0.0
-0.297888 -0.968869 0.0
-0.291521 -1.009647 0.0
-0.281309 -1.051886 0.0
-0.267076 -1.093300 0.0
-0.248691 -1.131229 0.0
-0.225997 -1.162569 0.0
-0.198722 -1.183469 0.0
-0.166407 -1.188633 0.0
-0.128372 -1.169947 0.0
-0.083549 -1.113524 0.0
-0.029637 -0.990255 0.0
-0.019413 -1.098642 0.0
-0.057650 -1.073084 0.0
-0.094144 -1.012210 0.0
-0.128058 -0.958789 0.0
-0.158833 -0.914426 0.0
-0.186042 -0.878854 0.0
-0.209570 -0.852017 0.0
-0.229564 -0.833903 0.0
-0.246324 -0.824383 0.0
-0.260205 -0.823231 0.0
-0.271522 -0.830179 0.0
-0.280474 -0.844939 0.0
-0.287095 -0.867181 0.0
-0.291251 -0.896439 0.0
-0.292676 -0.931990 0.0
-0.291055 -0.972730 0.0
-0.286098 -1.017109 0.0
-0.277601 -1.063133 0.0
-0.265440 -1.108447 0.0
-0.249502 -1.150404 0.0
-0.229556 -1.186033 0.0
-0.205078 -1.211758 0.0
-0.175079 -1.222659 0.0
-0.137953 -1.211082 0.0
-0.091386 -1.163779 0.0
-0.032703 -1.052596 0.0
-0.019102 -1.060127 0.0
-0.055897 -1.036568 0.0
-0.089960 -0.978171 0.0
-0.121297 -0.927577 0.0
-0.149590 -0.886572 0.0
-0.174471 -0.854618 0.0
-0.195858 -0.831338 0.0
-0.213946 -0.816501 0.0
-0.229093 -0.809879 0.0
-0.241698 -0.811250 0.0
-0.252098 -0.820444 0.0
-0.260483 -0.837337 0.0
-0.266861 -0.861784 0.0
-0.271067 -0.893474 0.0
-0.272830 -0.931766 0.0
-0.271857 -0.975548 0.0
-0.267920 -1.023185 0.0
-0.260893 -1.072581 0.0
-0.250725 -1.121328 0.0
-0.237338 -1.166848 0.0
-0.220450 -1.206422 0.0
-0.199345 -1.236952 0.0
-0.172614 -1.254196 0.0
-0.137966 -1.251319 0.0
-0.092286 -1.215788 0.0
-0.033128 -1.118427 0.0
-0.018081 -1.022944 0.0
-0.052116 -1.002920 0.0
-0.082551 -0.947320 0.0
-0.110195 -0.899445 0.0
-0.135033 -0.861573 0.0
-0.156763 -0.833005 0.0
-0.175291 -0.813035 0.0
-0.190813 -0.801195 0.0
-0.203697 -0.797153 0.0
-0.214358 -0.800709 0.0
-0.223131 -0.811811 0.0
-0.230201 -0.830515 0.0
-0.235571 -0.856859 0.0
-0.239093 -0.890671 0.0
-0.240538 -0.931361 0.0
-0.239689 -0.977775 0.0
-0.236406 -1.028177 0.0
-0.230657 -1.080367 0.0
-0.222460 -1.131908 0.0
-0.211771 -1.180345 0.0
-0.198286 -1.223298 0.0
-0.181180 -1.258287 0.0
-0.158801 -1.281970 0.0
-0.128450 -1.288544 0.0
-0.086557 -1.266136 0.0
-0.031120 -1.182674 0.0
-0.016557 -0.988306 0.0
-0.046864 -0.973216 0.0
-0.072688 -0.920767 0.0
-0.095610 -0.875433 0.0
-0.116032 -0.840325 0.0
-0.133768 -0.814787 0.0
-0.148681 -0.797811 0.0
-0.160910 -0.788669 0.0
-0.170794 -0.786911 0.0
-0.178730 -0.792355 0.0
-0.185055 -0.805067 0.0
-0.189969 -0.825275 0.0
-0.193518 -0.853181 0.0
-0.195624 -0.888721 0.0
-0.196160 -0.931330 0.0
-0.195021 -0.979796 0.0
-0.192175 -1.032283 0.0
-0.187673 -1.086512 0.0
-0.181582 -1.140050 0.0
-0.173873 -1.190602 0.0
-0.164237 -1.236163 0.0
-0.151835 -1.274930 0.0
-0.134959 -1.304582 0.0
-0.110760 -1.320482 0.0
-0.075421 -1.311431 0.0
-0.027222 -1.241016 0.0
-0.014746 -0.957003 0.0
-0.040755 -0.948202 0.0
-0.061284 -0.899429 0.0
-0.078611 -0.856521 0.0
-0.093698 -0.823728 0.0
-0.106586 -0.800761 0.0
-0.117100 -0.786410 0.0
-0.125278 -0.779663 0.0
-0.131390 -0.779921 0.0
-0.135805 -0.786994 0.0
-0.138867 -0.801041 0.0
-0.140828 -0.822426 0.0
-0.141825 -0.851484 0.0
-0.141909 -0.888227 0.0
-0.141101 -0.932096 0.0
-0.139438 -0.981832 0.0
-0.137004 -1.035527 0.0
-0.133911 -1.090864 0.0
-0.130237 -1.145461 0.0
-0.125928 -1.197209 0.0
-0.120664 -1.244456 0.0
-0.113663 -1.286038 0.0
-0.103324 -1.320690 0.0
-0.086872 -1.345025 0.0
-0.060372 -1.348725 0.0
-0.022027 -1.290265 0.0
-0.012855 -0.929402 0.0
-0.034417 -0.928232 0.0
-0.049353 -0.883934 0.0
-0.060472 -0.843568 0.0
-0.069408 -0.812659 0.0
-0.076612 -0.791738 0.0
-0.081939 -0.779594 0.0
-0.085318 -0.774923 0.0
-0.086931 -0.776934 0.0
-0.087112 -0.785384 0.0
-0.086224 -0.800477 0.0
-0.084595 -0.822659 0.0
-0.082499 -0.852351 0.0
-0.080156 -0.889619 0.0
-0.077766 -0.933903 0.0
-0.075534 -0.983919 0.0
-0.073657 -1.037751 0.0
-0.072278 -1.093113 0.0
-0.071441 -1.147724 0.0
-0.071010 -1.199686 0.0
-0.070627 -1.247626 0.0
-0.069592 -1.290904 0.0
-0.066519 -1.329237 0.0
-0.058898 -1.360551 0.0
-0.042817 -1.375780 0.0
-0.016040 -1.328332 0.0
-0.011066 -0.905481 0.0
-0.028424 -0.913235 0.0
-0.037910 -0.874510 0.0
-0.042599 -0.837183 0.0
-0.044801 -0.807907 0.0
-0.045575 -0.788512 0.0
-0.044955 -0.778113 0.0
-0.042829 -0.775150 0.0
-0.039315 -0.778607 0.0
-0.034714 -0.788131 0.0
-0.029410 -0.803922 0.0
-0.023815 -0.826436 0.0
-0.018351 -0.856133 0.0
-0.013430 -0.893102 0.0
-0.009444 -0.936796 0.0
-0.006767 -0.985934 0.0
-0.005696 -1.038685 0.0
-0.006374 -1.092880 0.0
-0.008764 -1.146404 0.0
-0.012606 -1.197594 0.0
-0.017467 -1.245240 0.0
-0.022708 -1.289084 0.0
-0.027206 -1.329631 0.0
-0.028864 -1.366119 0.0
-0.023996 -1.391162 0.0
-0.009676 -1.354048 0.0
-0.009508 -0.884907 0.0
-0.023200 -0.902760 0.0
-0.027795 -0.870903 0.0
-0.026336 -0.837559 0.0
-0.021636 -0.810028 0.0
-0.015450 -0.791802 0.0
-0.008209 -0.782684 0.0
0.000055 -0.780969 0.0
0.009198 -0.785445 0.0
0.018928 -0.795624 0.0
0.028839 -0.811644 0.0
0.038446 -0.833917 0.0
0.047206 -0.862876 0.0
0.054538 -0.898611 0.0
0.059856 -0.940593 0.0
0.062669 -0.987627 0.0
0.062650 -1.038043 0.0
0.059686 -1.089881 0.0
0.053921 -1.141248 0.0
0.045689 -1.190676 0.0
0.035503 -1.237110 0.0
0.024023 -1.280493 0.0
0.012122 -1.321824 0.0
0.001393 -1.361540 0.0
-0.004970 -1.394247 0.0
-0.003265 -1.366988 0.0
-0.008233 -0.867166 0.0
-0.018931 -0.896112 0.0
-0.019462 -0.872424 0.0
-0.012625 -0.844335 0.0
-0.001405 -0.819172 0.0
0.011894 -0.802142 0.0
0.026227 -0.793919 0.0
0.041105 -0.792878 0.0
0.056179 -0.797754 0.0
0.071106 -0.807972 0.0
0.085469 -0.823570 0.0
0.098753 -0.844881 0.0
0.110345 -0.872265 0.0
0.119567 -0.905775 0.0
0.125753 -0.944933 0.0
0.128364 -0.988710 0.0
0.127065 -1.035641 0.0
0.121787 -1.084040 0.0
0.112732 -1.132268 0.0
0.100314 -1.179006 0.0
0.085106 -1.223386 0.0
0.067787 -1.265418 0.0
0.049116 -1.306327 0.0
0.030220 -1.347411 0.0
0.013409 -1.385202 0.0
0.002961 -1.367292 0.0
-0.007215 -0.851717 0.0
-0.015524 -0.892554 0.0
-0.012835 -0.878139 0.0
-0.001671 -0.856621 0.0
0.015197 -0.834973 0.0
0.035190 -0.819633 0.0
0.056479 -0.812051 0.0
0.077908 -0.811052 0.0
0.098804 -0.815550 0.0
0.118692 -0.824991 0.0
0.137113 -0.839337 0.0
0.153544 -0.858829 0.0
0.167367 -0.883734 0.0
0.177906 -0.914068 0.0
0.184509 -0.949430 0.0
0.186653 -0.988968 0.0
0.184031 -1.031462 0.0
0.176599 -1.075509 0.0
0.164578 -1.119725 0.0
0.148409 -1.162963 0.0
0.128690 -1.204503 0.0
0.106122 -1.244412 0.0
0.081456 -1.283995 0.0
0.055607 -1.324998 0.0
0.030092 -1.365289 0.0
0.008833 -1.355498 0.0
-0.006346 -0.838156 0.0
-0.012632 -0.891520 0.0
-0.007342 -0.887151 0.0
0.007149 -0.873265 0.0
0.028456 -0.856504 0.0
0.053969 -0.843608 0.0
0.081240 -0.836637 0.0
0.108497 -0.835153 0.0
0.134635 -0.838483 0.0
0.158931 -0.846241 0.0
0.180826 -0.858402 0.0
0.199784 -0.875151 0.0
0.215230 -0.896682 0.0
0.226565 -0.922993 0.0
0.233220 -0.953762 0.0
0.234742 -0.988303 0.0
0.230873 -1.025635 0.0
0.221585 -1.064616 0.0
0.207090 -1.104103 0.0
0.187809 -1.143135 0.0
0.164332 -1.181135 0.0
0.137371 -1.218252 0.0
0.107714 -1.255833 0.0
0.076214 -1.295811 0.0
0.043954 -1.336701 0.0
0.013896 -1.332769 0.0
-0.005448 -0.826362 0.0
-0.009708 -0.892767 0.0
-0.002044 -0.898857 0.0
0.015085 -0.893180 0.0
0.039557 -0.882367 0.0
0.068951 -0.872652 0.0
0.100581 -0.866493 0.0
0.132257 -0.864230 0.0
0.162463 -0.865749 0.0
0.190182 -0.870990 0.0
0.214699 -0.880065 0.0
0.235442 -0.893189 0.0
0.251892 -0.910540 0.0
0.263551 -0.932128 0.0
0.269968 -0.957699 0.0
0.270792 -0.986712 0.0
0.265823 -1.018387 0.0
0.255051 -1.051803 0.0
0.238663 -1.086033 0.0
0.217040 -1.120301 0.0
0.190739 -1.154190 0.0
0.160477 -1.187974 0.0
0.127089 -1.223065 0.0
0.091439 -1.261428 0.0
0.054365 -1.301750 0.0
0.017788 -1.301085 0.0
-0.004283 -0.816632 0.0
-0.006081 -0.896439 0.0
0.004142 -0.913072 0.0
0.023614 -0.915567 0.0
0.050252 -0.911089 0.0
0.081927 -0.905000 0.0
0.116040 -0.899888 0.0
0.150264 -0.896735 0.0
0.182833 -0.896019 0.0
0.212503 -0.898109 0.0
0.238417 -0.903376 0.0
0.259959 -0.912164 0.0
0.276652 -0.924709 0.0
0.288099 -0.941065 0.0
0.293967 -0.961047 0.0
0.294005 -0.984227 0.0
0.288077 -1.009976 0.0
0.276186 -1.037551 0.0
0.258494 -1.066206 0.0
0.235336 -1.095347 0.0
0.207231 -1.124738 0.0
0.174899 -1.154832 0.0
0.139228 -1.187147 0.0
0.101103 -1.223572 0.0
0.061166 -1.262595 0.0
0.020400 -1.262897 0.0
-0.002563 -0.809787 0.0
-0.001024 -0.903025 0.0
0.012157 -0.929889 0.0
0.033958 -0.940023 0.0
0.062229 -0.941541 0.0
0.095005 -0.938999 0.0
0.129932 -0.934929 0.0
0.164783 -0.930770 0.0
0.197768 -0.927539 0.0
0.227575 -0.926067 0.0
0.253299 -0.927056 0.0
0.274329 -0.931056 0.0
0.290245 -0.938425 0.0
0.300740 -0.949291 0.0
0.305587 -0.963535 0.0
0.304623 -0.980813 0.0
0.297766 -1.000605 0.0
0.285027 -1.022293 0.0
0.266542 -1.045286 0.0
0.242603 -1.069169 0.0
0.213706 -1.093914 0.0
0.180585 -1.120204 0.0
0.144172 -1.149691 0.0
0.105340 -1.184071 0.0
0.064496 -1.221314 0.0
0.021790 -1.220707 0.0
0.000019 -0.807243 0.0
0.006008 -0.913095 0.0
0.022519 -0.949512 0.0
0.046794 -0.966477 0.0
0.076514 -0.973079 0.0
0.109698 -0.973423 0.0
0.144226 -0.969960 0.0
0.178096 -0.964460 0.0
0.209673 -0.958410 0.0
0.237758 -0.953088 0.0
0.261546 -0.949547 0.0
0.280530 -0.948579 0.0
0.294400 -0.950688 0.0
0.302964 -0.956088 0.0
0.306097 -0.964718 0.0
0.303717 -0.976286 0.0
0.295780 -0.990338 0.0
0.282303 -1.006345 0.0
0.263396 -1.023843 0.0
0.239324 -1.042601 0.0
0.210580 -1.062841 0.0
0.177932 -1.085508 0.0
0.142334 -1.112377 0.0
0.104561 -1.144780 0.0
0.064692 -1.179891 0.0
0.022092 -1.176825 0.0
0.003588 -0.810850 0.0
0.015135 -0.927024 0.0
0.035228 -0.972188 0.0
0.062110 -0.994958 0.0
0.093175 -1.005382 0.0
0.126359 -1.007488 0.0
0.159685 -1.003747 0.0
0.191384 -0.996243 0.0
0.220080 -0.986900 0.0
0.244826 -0.977429 0.0
0.265055 -0.969223 0.0
0.280476 -0.963307 0.0
0.290971 -0.960324 0.0
0.296511 -0.960556 0.0
0.297096 -0.963969 0.0
0.292728 -0.970287 0.0
0.283407 -0.979079 0.0
0.269152 -0.989871 0.0
0.250059 -1.002316 0.0
0.226394 -1.016391 0.0
0.198681 -1.032596 0.0
0.167733 -1.052156 0.0
0.134472 -1.076870 0.0
0.099435 -1.107478 0.0
0.062239 -1.140128 0.0
0.021491 -1.133241 0.0
0.007747 -0.822185 0.0
0.025800 -0.945290 0.0
0.049826 -0.998040 0.0
0.079213 -1.025375 0.0
0.111378 -1.038195 0.0
0.144171 -1.040653 0.0
0.175667 -1.035404 0.0
0.204305 -1.024924 0.0
0.229003 -1.011613 0.0
0.249151 -0.997610 0.0
0.264514 -0.984633 0.0
0.275107 -0.973911 0.0
0.281077 -0.966186 0.0
0.282607 -0.961764 0.0
0.279857 -0.960596 0.0
0.272935 -0.962370 0.0
0.261895 -0.966635 0.0
0.246776 -0.972941 0.0
0.227688 -0.981066 0.0
0.204943 -0.991230 0.0
0.179139 -1.004240 0.0
0.151117 -1.021542 0.0
0.121654 -1.044760 0.0
0.090853 -1.073750 0.0
0.057733 -1.103538 0.0
0.020200 -1.091550 0.0
0.012035 -0.841966 0.0
0.037038 -0.968565 0.0
0.065227 -1.026979 0.0
0.096835 -1.057431 0.0
0.129655 -1.071125 0.0
0.161509 -1.072370 0.0
0.190503 -1.064177 0.0
0.215277 -1.049562 0.0
0.235076 -1.031473 0.0
0.249674 -1.012496 0.0
0.259220 -0.994656 0.0
0.264085 -0.979345 0.0
0.264719 -0.967355 0.0
0.261552 -0.958958 0.0
0.254928 -0.954028 0.0
0.245080 -0.952167 0.0
0.232138 -0.952857 0.0
0.216191 -0.955653 0.0
0.197415 -0.960490 0.0
0.176227 -0.967873 0.0
0.153327 -0.978892 0.0
0.129511 -0.995053 0.0
0.105207 -1.017481 0.0
0.079863 -1.044883 0.0
0.051832 -1.071255 0.0
0.018441 -1.052909 0.0
0.016014 -0.870015 0.0
0.047695 -0.997202 0.0
0.079940 -1.058776 0.0
0.113350 -1.090652 0.0
0.146201 -1.103575 0.0
0.176359 -1.101932 0.0
0.202018 -1.089268 0.0
0.222070 -1.069298 0.0
0.236141 -1.045607 0.0
0.244427 -1.021246 0.0
0.247495 -0.998520 0.0
0.246086 -0.978937 0.0
0.240962 -0.963274 0.0
0.232802 -0.951712 0.0
0.222138 -0.943986 0.0
0.209336 -0.939559 0.0
0.194629 -0.937816 0.0
0.178197 -0.938314 0.0
0.160344 -0.941199 0.0
0.141651 -0.947282 0.0
0.122880 -0.957812 0.0
0.104603 -0.974041 0.0
0.086619 -0.996205 0.0
0.067557 -1.021753 0.0
0.045181 -1.043978 0.0
0.016427 -1.018041 0.0
0.019320 -0.905349 0.0
0.056700 -1.030930 0.0
0.092434 -1.093027 0.0
0.127035 -1.124412 0.0
0.159114 -1.134744 0.0
0.186623 -1.128431 0.0
0.207934 -1.109739 0.0
0.222304 -1.083248 0.0
0.229817 -1.053240 0.0
0.231147 -1.023229 0.0
0.227295 -0.995752 0.0
0.219369 -0.972369 0.0
0.208430 -0.953779 0.0
0.195385 -0.940002 0.0
0.180939 -0.930585 0.0
0.165595 -0.924815 0.0
0.149708 -0.921967 0.0
0.133599 -0.921623 0.0
0.117763 -0.924202 0.0
0.102930 -0.930753 0.0
0.089755 -0.942394 0.0
0.078265 -0.959691 0.0
0.067377 -0.981684 0.0
0.054922 -1.004758 0.0
0.038313 -1.021989 0.0
0.014325 -0.987289 0.0
0.021710 -0.946379 0.0
0.063256 -1.068824 0.0
0.101425 -1.129035 0.0
0.136307 -1.157886 0.0
0.166583 -1.163624 0.0
0.190284 -1.150760 0.0
0.206084 -1.124521 0.0
0.213735 -1.090487 0.0
0.213884 -1.053664 0.0
0.207729 -1.017981 0.0
0.196718 -0.986137 0.0
0.182318 -0.959659 0.0
0.165857 -0.939090 0.0
0.148441 -0.924230 0.0
0.130924 -0.914394 0.0
0.113947 -0.908683 0.0
0.098014 -0.906278 0.0
0.083633 -0.906822 0.0
0.071484 -0.911018 0.0
0.062275 -0.919895 0.0
0.056179 -0.933982 0.0
0.052331 -0.952765 0.0
0.048709 -0.974100 0.0
0.042648 -0.993825 0.0
0.031567 -1.005231 0.0
0.012236 -0.960728 0.0
0.023056 -0.991146 0.0
0.066881 -1.109428 0.0
0.105993 -1.165713 0.0
0.139868 -1.189965 0.0
0.167015 -1.188968 0.0
0.185533 -1.167636 0.0
0.194539 -1.132451 0.0
0.194428 -1.090098 0.0
0.186499 -1.046273 0.0
0.172514 -1.005232 0.0
0.154370 -0.969730 0.0
0.133866 -0.941161 0.0
0.112568 -0.919829 0.0
0.091745 -0.905252 0.0
0.072383 -0.896494 0.0
0.055260 -0.892482 0.0
0.041052 -0.892338 0.0
0.030437 -0.895767 0.0
0.024105 -0.903593 0.0
0.022317 -0.916322 0.0
0.024304 -0.933445 0.0
0.028166 -0.953316 0.0
0.031280 -0.973041 0.0
0.031000 -0.988544 0.0
0.025026 -0.993457 0.0
0.010173 -0.938319 0.0
0.023306 -1.037508 0.0
0.067321 -1.150906 0.0
0.105540 -1.201566 0.0
0.136740 -1.219187 0.0
0.159108 -1.209261 0.0
0.170865 -1.177619 0.0
0.171732 -1.132341 0.0
0.162896 -1.081261 0.0
0.146377 -1.030663 0.0
0.124517 -0.984998 0.0
0.099645 -0.946949 0.0
0.073858 -0.917651 0.0
0.048922 -0.897105 0.0
0.026237 -0.884470 0.0
0.006891 -0.878568 0.0
-0.008214 -0.878179 0.0
-0.018303 -0.882345 0.0
-0.022721 -0.890728 0.0
-0.021213 -0.903807 0.0
-0.014505 -0.921028 0.0
-0.004499 -0.940732 0.0
0.006215 -0.960605 0.0
0.015034 -0.977685 0.0
0.019790 -0.988376 0.0
0.018523 -0.986383 0.0
0.008064 -0.920081 0.0
0.022442 -1.083256 0.0
0.064450 -1.191182 0.0
0.099688 -1.234746 0.0
0.126227 -1.243747 0.0
0.141899 -1.222740 0.0
0.145179 -1.179177 0.0
0.136605 -1.123076 0.0
0.118289 -1.063374 0.0
0.093020 -1.006763 0.0
0.063704 -0.957721 0.0
0.033081 -0.918731 0.0
0.003488 -0.890490 0.0
-0.023176 -0.872665 0.0
-0.045393 -0.864009 0.0
-0.062054 -0.863021 0.0
-0.072368 -0.868306 0.0
-0.075756 -0.878741 0.0
-0.072030 -0.893641 0.0
-0.061855 -0.912576 0.0
-0.047070 -0.933753 0.0
-0.030288 -0.954795 0.0
-0.014131 -0.973413 0.0
-0.000679 -0.987149 0.0
0.008520 -0.992866 0.0
0.011700 -0.983804 0.0
0.005758 -0.906259 0.0
0.020467 -1.126165 0.0
0.058223 -1.228038 0.0
0.088240 -1.263145 0.0
0.107922 -1.261569 0.0
0.114820 -1.227486 0.0
0.107910 -1.170802 0.0
0.088799 -1.103765 0.0
0.060645 -1.036214 0.0
0.027027 -0.975036 0.0
-0.008619 -0.924485 0.0
-0.043124 -0.886837 0.0
-0.073838 -0.862077 0.0
-0.099046 -0.849205 0.0
-0.117692 -0.846607 0.0
-0.128950 -0.852503 0.0
-0.132236 -0.865224 0.0
-0.127433 -0.883238 0.0
-0.115187 -0.905116 0.0
-0.097202 -0.929260 0.0
-0.076020 -0.953037 0.0
-0.054253 -0.974059 0.0
-0.033995 -0.990564 0.0
-0.016676 -1.000769 0.0
-0.003392 -1.001730 0.0
0.004113 -0.985624 0.0
0.003058 -0.897443 0.0
0.017413 -1.164045 0.0
0.048695 -1.259196 0.0
0.071200 -1.284509 0.0
0.081752 -1.270439 0.0
0.077813 -1.221574 0.0
0.059209 -1.151200 0.0
0.028925 -1.073971 0.0
-0.008764 -1.000165 0.0
-0.049245 -0.936986 0.0
-0.088145 -0.887989 0.0
-0.122579 -0.854394 0.0
-0.150930 -0.835455 0.0
-0.172017 -0.829532 0.0
-0.184924 -0.834727 0.0
-0.189068 -0.848981 0.0
-0.184395 -0.870133 0.0
-0.171592 -0.895935 0.0
-0.152203 -0.924054 0.0
-0.128527 -0.951983 0.0
-0.103065 -0.976959 0.0
-0.077871 -0.997098 0.0
-0.054374 -1.011282 0.0
-0.033553 -1.018191 0.0
-0.016372 -1.014774 0.0
-0.004639 -0.991818 0.0
-0.000224 -0.894609 0.0
0.013362 -1.194819 0.0
0.036067 -1.282408 0.0
0.048837 -1.296572 0.0
0.048078 -1.268169 0.0
0.031493 -1.203320 0.0
0.000217 -1.119575 0.0
-0.040832 -1.034263 0.0
-0.085199 -0.957817 0.0
-0.127827 -0.896226 0.0
-0.165863 -0.851815 0.0
-0.197482 -0.824515 0.0
-0.221386 -0.813079 0.0
-0.236623 -0.815584 0.0
-0.242626 -0.829764 0.0
-0.239407 -0.853018 0.0
-0.227685 -0.882491 0.0
-0.208877 -0.915189 0.0
-0.184928 -0.948138 0.0
-0.157988 -0.978515 0.0
-0.129955 -1.003922 0.0
-0.102235 -1.023049 0.0
-0.075841 -1.035221 0.0
-0.051610 -1.039303 0.0
-0.030555 -1.031898 0.0
-0.014576 -1.002407 0.0
-0.004088 -0.898921 0.0
0.008451 -1.216632 0.0
0.020722 -1.295571 0.0
0.021764 -1.297222 0.0
0.007827 -1.252823 0.0
-0.022538 -1.171715 0.0
-0.065079 -1.077364 0.0
-0.112215 -0.988290 0.0
-0.158210 -0.913429 0.0
-0.199736 -0.856460 0.0
-0.234734 -0.818547 0.0
-0.261820 -0.799079 0.0
-0.280033 -0.796399 0.0
-0.288873 -0.808187 0.0
-0.288439 -0.831592 0.0
-0.279488 -0.863360 0.0
-0.263315 -0.900044 0.0
-0.241506 -0.938253 0.0
-0.215684 -0.974845 0.0
-0.187321 -1.007110 0.0
-0.157641 -1.033039 0.0
-0.127682 -1.051611 0.0
-0.098417 -1.062319 0.0
-0.070777 -1.064076 0.0
-0.045840 -1.053117 0.0
-0.025234 -1.017773 0.0
-0.008134 -0.911143 0.0
0.002878 -1.227962 0.0
0.003231 -1.296865 0.0
-0.009045 -1.284693 0.0
-0.036795 -1.223665 0.0
-0.078254 -1.129048 0.0
-0.126677 -1.029066 0.0
-0.175414 -0.940715 0.0
-0.220253 -0.870168 0.0
-0.258746 -0.819701 0.0
-0.289359 -0.789694 0.0
-0.311143 -0.779062 0.0
-0.323690 -0.785657 0.0
-0.327215 -0.806563 0.0
-0.322547 -0.838318 0.0
-0.310903 -0.877230 0.0
-0.293554 -0.919696 0.0
-0.271581 -0.962383 0.0
-0.245830 -1.002288 0.0
-0.217042 -1.036818 0.0
-0.186035 -1.064019 0.0
-0.153837 -1.082787 0.0
-0.121636 -1.092609 0.0
-0.090573 -1.092488 0.0
-0.061694 -1.078522 0.0
-0.036041 -1.038628 0.0
-0.012077 -0.931354 0.0
-0.003139 -1.227701 0.0
-0.015603 -1.285016 0.0
-0.041070 -1.258800 0.0
-0.079489 -1.183390 0.0
-0.126911 -1.080443 0.0
-0.176934 -0.979224 0.0
-0.224439 -0.894316 0.0
-0.266283 -0.829885 0.0
-0.300624 -0.787150 0.0
-0.326430 -0.765827 0.0
-0.343340 -0.764235 0.0
-0.351684 -0.779593 0.0
-0.352391 -0.808394 0.0
-0.346685 -0.846861 0.0
-0.335646 -0.891369 0.0
-0.319924 -0.938628 0.0
-0.299744 -0.985605 0.0
-0.275168 -1.029392 0.0
-0.246441 -1.067229 0.0
-0.214256 -1.096801 0.0
-0.179831 -1.116628 0.0
-0.144684 -1.126116 0.0
-0.110196 -1.124532 0.0
-0.077307 -1.108245 0.0
-0.046402 -1.065462 0.0
-0.015728 -0.959159 0.0
-0.009321 -1.215241 0.0
-0.033958 -1.260375 0.0
-0.069738 -1.222195 0.0
-0.114213 -1.137101 0.0
-0.163088 -1.030436 0.0
-0.211499 -0.930797 0.0
-0.255786 -0.850951 0.0
-0.293551 -0.793642 0.0
-0.323449 -0.759153 0.0
-0.345015 -0.746452 0.0
-0.358588 -0.753126 0.0
-0.365175 -0.775772 0.0
-0.366077 -0.810607 0.0
-0.362361 -0.854071 0.0
-0.354471 -0.903089 0.0
-0.342191 -0.954910 0.0
-0.324945 -1.006748 0.0
-0.302230 -1.055539 0.0
-0.274008 -1.098032 0.0
-0.240956 -1.131234 0.0
-0.204502 -1.153072 0.0
-0.166514 -1.162807 0.0
-0.128657 -1.160186 0.0
-0.091796 -1.142341 0.0
-0.055779 -1.098288 0.0
-0.018950 -0.993836 0.0
-0.014941 -1.190979 0.0
-0.049444 -1.225495 0.0
-0.091506 -1.179232 0.0
-0.137607 -1.089488 0.0
-0.184253 -0.982527 0.0
-0.228581 -0.885967 0.0
-0.268276 -0.811799 0.0
-0.301516 -0.761789 0.0
-0.327397 -0.735227 0.0
-0.346023 -0.730186 0.0
-0.358329 -0.743513 0.0
-0.365679 -0.771448 0.0
-0.369272 -0.810436 0.0
-0.369613 -0.857616 0.0
-0.366350 -0.910697 0.0
-0.358515 -0.967418 0.0
-0.344965 -1.025037 0.0
-0.324813 -1.080116 0.0
-0.297789 -1.128702 0.0
-0.264492 -1.166913 0.0
-0.226474 -1.191865 0.0
-0.185936 -1.202541 0.0
-0.144916 -1.199330 0.0
-0.104346 -1.180628 0.0
-0.063737 -1.136627 0.0
-0.021639 -1.034425 0.0
-0.019226 -1.156813 0.0
-0.060330 -1.184053 0.0
-0.104733 -1.134210 0.0
-0.148773 -1.044369 0.0
-0.190269 -0.939503 0.0
-0.228505 -0.846427 0.0
-0.262601 -0.777548 0.0
-0.291276 -0.734124 0.0
-0.313942 -0.714345 0.0
-0.331087 -0.715296 0.0
-0.343942 -0.733243 0.0
-0.353836 -0.764474 0.0
-0.361541 -0.806111 0.0
-0.366902 -0.856239 0.0
-0.368921 -0.913319 0.0
-0.366126 -0.975425 0.0
-0.356994 -1.039713 0.0
-0.340311 -1.102276 0.0
-0.315504 -1.158374 0.0
-0.282949 -1.203091 0.0
-0.244179 -1.232476 0.0
-0.201678 -1.244969 0.0
-0.157965 -1.241635 0.0
-0.114254 -1.222603 0.0
-0.069924 -1.179592 0.0
-0.023709 -1.079773 0.0
-0.021803 -1.115784 0.0
-0.066033 -1.139747 0.0
-0.109484 -1.090663 0.0
-0.148724 -1.004636 0.0
-0.182801 -0.903664 0.0
-0.213153 -0.813677 0.0
-0.240673 -0.748684 0.0
-0.264758 -0.710229 0.0
-0.284890 -0.695442 0.0
-0.301570 -0.700372 0.0
-0.315963 -0.720920 0.0
-0.329097 -0.753769 0.0
-0.341248 -0.796959 0.0
-0.351754 -0.849522 0.0
-0.359226 -0.910545 0.0
-0.361897 -0.978323 0.0
-0.357952 -1.049892 0.0
-0.345831 -1.120901 0.0
-0.324558 -1.185829 0.0
-0.294124 -1.238624 0.0
-0.255852 -1.273986 0.0
-0.212399 -1.289411 0.0
-0.166836 -1.286470 0.0
-0.120899 -1.267417 0.0
-0.074031 -1.225975 0.0
-0.025077 -1.128558 0.0
-0.022686 -1.071296 0.0
-0.066918 -1.095773 0.0
-0.106995 -1.051108 0.0
-0.139704 -0.972241 0.0
-0.164764 -0.876922 0.0
-0.185493 -0.789337 0.0
-0.205087 -0.725910 0.0
-0.224084 -0.689920 0.0
-0.241782 -0.677922 0.0
-0.258194 -0.684800 0.0
-0.274110 -0.706183 0.0
-0.290168 -0.739314 0.0
-0.306272 -0.783160 0.0
-0.321495 -0.837593 0.0
-0.334276 -0.902222 0.0
-0.342686 -0.975566 0.0
-0.344662 -1.054617 0.0
-0.338284 -1.134676 0.0
-0.322102 -1.209510 0.0
-0.295564 -1.271913 0.0
-0.259552 -1.314982 0.0
-0.216687 -1.334732 0.0
-0.170581 -1.332819 0.0
-0.123698 -1.313888 0.0
-0.075758 -1.274311 0.0
-0.025650 -1.179285 0.0
-0.022119 -1.026492 0.0
-0.063858 -1.054606 0.0
-0.099012 -1.017044 0.0
-0.124484 -0.948124 0.0
-0.139815 -0.860648 0.0
-0.149360 -0.775336 0.0
-0.159009 -0.710669 0.0
-0.171462 -0.673711 0.0
-0.185909 -0.661986 0.0
-0.201320 -0.668912 0.0
-0.217836 -0.689640 0.0
-0.235732 -0.721904 0.0
-0.254717 -0.765479 0.0
-0.273812 -0.820956 0.0
-0.291446 -0.888443 0.0
-0.305621 -0.966760 0.0
-0.314088 -1.052978 0.0
-0.314597 -1.142183 0.0
-0.305205 -1.227577 0.0
-0.284692 -1.300897 0.0
-0.253222 -1.353480 0.0
-0.213075 -1.379245 0.0
-0.168252 -1.379236 0.0
-0.122089 -1.360517 0.0
-0.074805 -1.322905 0.0
-0.025335 -1.230270 0.0
-0.020421 -0.983952 0.0
-0.057826 -1.018002 0.0
-0.087217 -0.989102 0.0
-0.105661 -0.932149 0.0
-0.111751 -0.855203 0.0
-0.109364 -0.773622 0.0
-0.106590 -0.705508 0.0
-0.109745 -0.663264 0.0
-0.118885 -0.648846 0.0
-0.131584 -0.653943 0.0
-0.147031 -0.672645 0.0
-0.165116 -0.702918 0.0
-0.185472 -0.745125 0.0
-0.207206 -0.800482 0.0
-0.228861 -0.869627 0.0
-0.248475 -0.951786 0.0
-0.263711 -1.044250 0.0
-0.272073 -1.142041 0.0
-0.271175 -1.238009 0.0
-0.259044 -1.323109 0.0
-0.234850 -1.386931 0.0
-0.200118 -1.420675 0.0
-0.158943 -1.423804 0.0
-0.115552 -1.405504 0.0
-0.070902 -1.369851 0.0
-0.024045 -1.279650 0.0
-0.017886 -0.945645 0.0
-0.049643 -0.987147 0.0
-0.072855 -0.967354 0.0
-0.085041 -0.923267 0.0
-0.083618 -0.859419 0.0
-0.070374 -0.785037 0.0
-0.053532 -0.713710 0.0
-0.043600 -0.661839 0.0
-0.043703 -0.641027 0.0
-0.050757 -0.642010 0.0
-0.062743 -0.657146 0.0
-0.078913 -0.684161 0.0
-0.098750 -0.723689 0.0
-0.121499 -0.777434 0.0
-0.145911 -0.846608 0.0
-0.170193 -0.930910 0.0