# vtk DataFile Version 3.0
Vector Field
ASCII
DATASET RECTILINEAR_GRID
DIMENSIONS 26 100 1
X_COORDINATES 26 double
0.050000 0.150000 0.250000 0.350000 0.450000 0.550000 0.650000 0.750000 0.850000 0.950000 1.050000 1.150000 1.250000 1.350000 1.450000 1.550000 1.650000 1.750000 1.850000 1.950000 2.050000 2.150000 2.250000 2.350000 2.450000 2.550000 
Y_COORDINATES 100 double
0.050000 0.150000 0.250000 0.350000 0.450000 0.550000 0.650000 0.750000 0.850000 0.950000 1.050000 1.150000 1.250000 1.350000 1.450000 1.550000 1.650000 1.750000 1.850000 1.950000 2.050000 2.150000 2.250000 2.350000 2.450000 2.550000 2.650000 2.750000 2.850000 2.950000 3.050000 3.150000 3.250000 3.350000 3.450000 3.550000 3.650000 3.750000 3.850000 3.950000 4.050000 4.150000 4.250000 4.350000 4.450000 4.550000 4.650000 4.750000 4.850000 4.950000 5.050000 5.150000 5.250000 5.350000 5.450000 5.550000 5.650000 5.750000 5.850000 5.950000 6.050000 6.150000 6.250000 6.350000 6.450000 6.550000 6.650000 6.750000 6.850000 6.950000 7.050000 7.150000 7.250000 7.350000 7.450000 7.550000 7.650000 7.750000 7.850000 7.950000 8.050000 8.150000 8.250000 8.350000 8.450000 8.550000 8.650000 8.750000 8.850000 8.950000 9.050000 9.150000 9.250000 9.350000 9.450000 9.550000 9.650000 9.750000 9.850000 9.950000 
Z_COORDINATES 1 double
0.0
POINT_DATA 2600
VECTORS Vektorfeld double
-0.000278 -0.929568 0.0
-0.000576 -1.003198 0.0
-0.000605 -1.004549 0.0
-0.000621 -1.004529 0.0
-0.000634 -1.004539 0.0
-0.000644 -1.004588 0.0
-0.000648 -1.004670 0.0
-0.000647 -1.004781 0.0
-0.000640 -1.004916 0.0
-0.000626 -1.005071 0.0
-0.000605 -1.005244 0.0
-0.000576 -1.005430 0.0
-0.000539 -1.005626 0.0
-0.000494 -1.005829 0.0
-0.000441 -1.006036 0.0
-0.000380 -1.006244 0.0
-0.000311 -1.006450 0.0
-0.000236 -1.006651 0.0
-0.000153 -1.006846 0.0
-0.000065 -1.007032 0.0
0.000029 -1.007210 0.0
0.000128 -1.007379 0.0
0.000230 -1.007541 0.0
0.000334 -1.007676 0.0
0.000424 -1.006250 0.0
0.000231 -0.932146 0.0
-0.000190 -0.929100 0.0
-0.000437 -1.003122 0.0
-0.000535 -1.004499 0.0
-0.000609 -1.004489 0.0
-0.000668 -1.004507 0.0
-0.000717 -1.004563 0.0
-0.000754 -1.004653 0.0
-0.000782 -1.004772 0.0
-0.000798 -1.004915 0.0
-0.000805 -1.005080 0.0
-0.000800 -1.005262 0.0
-0.000783 -1.005457 0.0
-0.000756 -1.005663 0.0
-0.000716 -1.005876 0.0
-0.000666 -1.006093 0.0
-0.000604 -1.006310 0.0
-0.000532 -1.006525 0.0
-0.000450 -1.006734 0.0
-0.000359 -1.006936 0.0
-0.000261 -1.007129 0.0
-0.000157 -1.007311 0.0
-0.000050 -1.007483 0.0
0.000058 -1.007646 0.0
0.000163 -1.007779 0.0
0.000241 -1.006315 0.0
0.000134 -0.931781 0.0
-0.000117 -0.928793 0.0
-0.000325 -1.002973 0.0
-0.000486 -1.004389 0.0
-0.000610 -1.004401 0.0
-0.000711 -1.004434 0.0
-0.000795 -1.004504 0.0
-0.000863 -1.004606 0.0
-0.000917 -1.004737 0.0
-0.000957 -1.004893 0.0
-0.000983 -1.005070 0.0
-0.000994 -1.005265 0.0
-0.000989 -1.005474 0.0
-0.000970 -1.005694 0.0
-0.000936 -1.005920 0.0
-0.000887 -1.006149 0.0
-0.000824 -1.006379 0.0
-0.000748 -1.006605 0.0
-0.000659 -1.006825 0.0
-0.000559 -1.007036 0.0
-0.000451 -1.007236 0.0
-0.000336 -1.007423 0.0
-0.000217 -1.007597 0.0
-0.000101 -1.007757 0.0
0.000005 -1.007879 0.0
0.000069 -1.006357 0.0
0.000042 -0.931604 0.0
-0.000093 -0.928584 0.0
-0.000287 -1.002780 0.0
-0.000474 -1.004234 0.0
-0.000635 -1.004272 0.0
-0.000772 -1.004325 0.0
-0.000888 -1.004412 0.0
-0.000987 -1.004531 0.0
-0.001068 -1.004678 0.0
-0.001131 -1.004849 0.0
-0.001176 -1.005043 0.0
-0.001203 -1.005255 0.0
-0.001211 -1.005481 0.0
-0.001201 -1.005717 0.0
-0.001171 -1.005960 0.0
-0.001124 -1.006206 0.0
-0.001059 -1.006451 0.0
-0.000977 -1.006691 0.0
-0.000880 -1.006924 0.0
-0.000769 -1.007146 0.0
-0.000648 -1.007355 0.0
-0.000518 -1.007548 0.0
-0.000384 -1.007724 0.0
-0.000251 -1.007880 0.0
-0.000126 -1.007987 0.0
-0.000037 -1.006402 0.0
-0.000004 -0.931567 0.0
-0.000086 -0.928405 0.0
-0.000282 -1.002569 0.0
-0.000492 -1.004047 0.0
-0.000683 -1.004108 0.0
-0.000852 -1.004183 0.0
-0.001000 -1.004289 0.0
-0.001129 -1.004427 0.0
-0.001236 -1.004593 0.0
-0.001323 -1.004784 0.0
-0.001388 -1.004998 0.0
-0.001431 -1.005230 0.0
-0.001452 -1.005477 0.0
-0.001450 -1.005734 0.0
-0.001425 -1.005997 0.0
-0.001378 -1.006263 0.0
-0.001310 -1.006527 0.0
-0.001221 -1.006785 0.0
-0.001114 -1.007034 0.0
-0.000991 -1.007270 0.0
-0.000853 -1.007490 0.0
-0.000705 -1.007691 0.0
-0.000550 -1.007870 0.0
-0.000393 -1.008024 0.0
-0.000240 -1.008120 0.0
-0.000116 -1.006480 0.0
-0.000034 -0.931604 0.0
-0.000088 -0.928231 0.0
-0.000296 -1.002339 0.0
-0.000531 -1.003831 0.0
-0.000752 -1.003913 0.0
-0.000953 -1.004008 0.0
-0.001133 -1.004136 0.0
-0.001291 -1.004294 0.0
-0.001425 -1.004483 0.0
-0.001536 -1.004697 0.0
-0.001622 -1.004934 0.0
-0.001682 -1.005191 0.0
-0.001715 -1.005462 0.0
-0.001721 -1.005744 0.0
-0.001701 -1.006032 0.0
-0.001654 -1.006322 0.0
-0.001581 -1.006609 0.0
-0.001484 -1.006888 0.0
-0.001365 -1.007157 0.0
-0.001226 -1.007410 0.0
-0.001069 -1.007644 0.0
-0.000898 -1.007856 0.0
-0.000717 -1.008042 0.0
-0.000531 -1.008197 0.0
-0.000345 -1.008287 0.0
-0.000183 -1.006599 0.0
-0.000057 -0.931694 0.0
-0.000094 -0.928049 0.0
-0.000323 -1.002084 0.0
-0.000588 -1.003586 0.0
-0.000840 -1.003685 0.0
-0.001074 -1.003801 0.0
-0.001287 -1.003950 0.0
-0.001476 -1.004133 0.0
-0.001639 -1.004346 0.0
-0.001775 -1.004587 0.0
-0.001882 -1.004852 0.0
-0.001959 -1.005137 0.0
-0.002005 -1.005437 0.0
-0.002019 -1.005748 0.0
-0.002003 -1.006065 0.0
-0.001955 -1.006383 0.0
-0.001877 -1.006698 0.0
-0.001770 -1.007003 0.0
-0.001636 -1.007295 0.0
-0.001478 -1.007569 0.0
-0.001299 -1.007821 0.0
-0.001102 -1.008047 0.0
-0.000891 -1.008242 0.0
-0.000671 -1.008403 0.0
-0.000446 -1.008492 0.0
-0.000244 -1.006758 0.0
-0.000077 -0.931828 0.0
-0.000104 -0.927851 0.0
-0.000360 -1.001798 0.0
-0.000660 -1.003307 0.0
-0.000948 -1.003423 0.0
-0.001217 -1.003559 0.0
-0.001465 -1.003732 0.0
-0.001686 -1.003941 0.0
-0.001880 -1.004182 0.0
-0.002042 -1.004453 0.0
-0.002172 -1.004749 0.0
-0.002267 -1.005067 0.0
-0.002326 -1.005401 0.0
-0.002349 -1.005746 0.0
-0.002336 -1.006097 0.0
-0.002286 -1.006449 0.0
-0.002201 -1.006795 0.0
-0.002082 -1.007131 0.0
-0.001931 -1.007451 0.0
-0.001752 -1.007751 0.0
-0.001546 -1.008024 0.0
-0.001319 -1.008268 0.0
-0.001074 -1.008477 0.0
-0.000816 -1.008647 0.0
-0.000550 -1.008738 0.0
-0.000305 -1.006959 0.0
-0.000097 -0.932002 0.0
-0.000117 -0.927629 0.0
-0.000406 -1.001475 0.0
-0.000745 -1.002991 0.0
-0.001074 -1.003123 0.0
-0.001383 -1.003280 0.0
-0.001668 -1.003478 0.0
-0.001925 -1.003715 0.0
-0.002151 -1.003988 0.0
-0.002342 -1.004293 0.0
-0.002496 -1.004626 0.0
-0.002611 -1.004981 0.0
-0.002684 -1.005354 0.0
-0.002716 -1.005739 0.0
-0.002705 -1.006129 0.0
-0.002653 -1.006520 0.0
-0.002559 -1.006904 0.0
-0.002426 -1.007275 0.0
-0.002256 -1.007628 0.0
-0.002051 -1.007958 0.0
-0.001816 -1.008258 0.0
-0.001554 -1.008523 0.0
-0.001271 -1.008750 0.0
-0.000970 -1.008933 0.0
-0.000658 -1.009030 0.0
-0.000368 -1.007202 0.0
-0.000118 -0.932217 0.0
-0.000133 -0.927379 0.0
-0.000460 -1.001110 0.0
-0.000845 -1.002631 0.0
-0.001219 -1.002781 0.0
-0.001572 -1.002961 0.0
-0.001899 -1.003186 0.0
-0.002196 -1.003454 0.0
-0.002457 -1.003762 0.0
-0.002679 -1.004105 0.0
-0.002860 -1.004479 0.0
-0.002995 -1.004878 0.0
-0.003084 -1.005295 0.0
-0.003125 -1.005725 0.0
-0.003117 -1.006161 0.0
-0.003060 -1.006596 0.0
-0.002956 -1.007024 0.0
-0.002807 -1.007437 0.0
-0.002614 -1.007829 0.0
-0.002381 -1.008194 0.0
-0.002112 -1.008525 0.0
-0.001812 -1.008818 0.0
-0.001484 -1.009067 0.0
-0.001136 -1.009266 0.0
-0.000774 -1.009371 0.0
-0.000435 -1.007490 0.0
-0.000139 -0.932474 0.0
-0.000151 -0.927094 0.0
-0.000522 -1.000697 0.0
-0.000960 -1.002222 0.0
-0.001385 -1.002391 0.0
-0.001788 -1.002595 0.0
-0.002162 -1.002850 0.0
-0.002502 -1.003154 0.0
-0.002802 -1.003501 0.0
-0.003059 -1.003887 0.0
-0.003268 -1.004308 0.0
-0.003427 -1.004755 0.0
-0.003532 -1.005224 0.0
-0.003582 -1.005706 0.0
-0.003577 -1.006194 0.0
-0.003515 -1.006681 0.0
-0.003400 -1.007159 0.0
-0.003231 -1.007620 0.0
-0.003012 -1.008058 0.0
-0.002747 -1.008464 0.0
-0.002440 -1.008832 0.0
-0.002095 -1.009156 0.0
-0.001720 -1.009431 0.0
-0.001318 -1.009651 0.0
-0.000900 -1.009766 0.0
-0.000507 -1.007828 0.0
-0.000163 -0.932776 0.0
-0.000172 -0.926771 0.0
-0.000594 -1.000227 0.0
-0.001090 -1.001758 0.0
-0.001573 -1.001947 0.0
-0.002032 -1.002178 0.0
-0.002458 -1.002467 0.0
-0.002847 -1.002809 0.0
-0.003191 -1.003201 0.0
-0.003486 -1.003636 0.0
-0.003727 -1.004109 0.0
-0.003911 -1.004612 0.0
-0.004034 -1.005138 0.0
-0.004095 -1.005680 0.0
-0.004092 -1.006228 0.0
-0.004025 -1.006775 0.0
-0.003896 -1.007311 0.0
-0.003705 -1.007828 0.0
-0.003457 -1.008317 0.0
-0.003155 -1.008771 0.0
-0.002805 -1.009183 0.0
-0.002411 -1.009544 0.0
-0.001980 -1.009850 0.0
-0.001520 -1.010094 0.0
-0.001039 -1.010222 0.0
-0.000586 -1.008218 0.0
-0.000188 -0.933127 0.0
-0.000196 -0.926402 0.0
-0.000675 -0.999695 0.0
-0.001238 -1.001231 0.0
-0.001786 -1.001442 0.0
-0.002307 -1.001703 0.0
-0.002793 -1.002029 0.0
-0.003236 -1.002415 0.0
-0.003629 -1.002856 0.0
-0.003967 -1.003347 0.0
-0.004244 -1.003879 0.0
-0.004456 -1.004446 0.0
-0.004600 -1.005038 0.0
-0.004672 -1.005647 0.0
-0.004671 -1.006264 0.0
-0.004598 -1.006879 0.0
-0.004453 -1.007482 0.0
-0.004237 -1.008062 0.0
-0.003956 -1.008612 0.0
-0.003613 -1.009122 0.0
-0.003213 -1.009583 0.0
-0.002763 -1.009988 0.0
-0.002270 -1.010330 0.0
-0.001743 -1.010602 0.0
-0.001193 -1.010745 0.0
-0.000674 -1.008668 0.0
-0.000217 -0.933532 0.0
-0.000224 -0.925982 0.0
-0.000768 -0.999092 0.0
-0.001406 -1.000634 0.0
-0.002027 -1.000870 0.0
-0.002618 -1.001164 0.0
-0.003170 -1.001531 0.0
-0.003674 -1.001966 0.0
-0.004122 -1.002463 0.0
-0.004509 -1.003016 0.0
-0.004826 -1.003615 0.0
-0.005070 -1.004253 0.0
-0.005236 -1.004921 0.0
-0.005321 -1.005608 0.0
-0.005324 -1.006303 0.0
-0.005243 -1.006995 0.0
-0.005079 -1.007674 0.0
-0.004836 -1.008328 0.0
-0.004517 -1.008947 0.0
-0.004126 -1.009521 0.0
-0.003671 -1.010039 0.0
-0.003158 -1.010494 0.0
-0.002596 -1.010878 0.0
-0.001994 -1.011183 0.0
-0.001365 -1.011343 0.0
-0.000771 -1.009184 0.0
-0.000248 -0.933997 0.0
-0.000255 -0.925504 0.0
-0.000873 -0.998408 0.0
-0.001595 -0.999958 0.0
-0.002299 -1.000220 0.0
-0.002969 -1.000552 0.0
-0.003595 -1.000966 0.0
-0.004168 -1.001455 0.0
-0.004678 -1.002015 0.0
-0.005119 -1.002637 0.0
-0.005482 -1.003313 0.0
-0.005762 -1.004032 0.0
-0.005954 -1.004785 0.0
-0.006054 -1.005559 0.0
-0.006059 -1.006343 0.0
-0.005969 -1.007125 0.0
-0.005786 -1.007891 0.0
-0.005511 -1.008629 0.0
-0.005148 -1.009328 0.0
-0.004704 -1.009975 0.0
-0.004186 -1.010559 0.0
-0.003602 -1.011071 0.0
-0.002961 -1.011503 0.0
-0.002274 -1.011846 0.0
-0.001557 -1.012025 0.0
-0.000880 -1.009773 0.0
-0.000283 -0.934528 0.0
-0.000290 -0.924959 0.0
-0.000991 -0.997635 0.0
-0.001808 -0.999192 0.0
-0.002605 -0.999485 0.0
-0.003363 -0.999858 0.0
-0.004073 -1.000323 0.0
-0.004723 -1.000875 0.0
-0.005304 -1.001505 0.0
-0.005806 -1.002205 0.0
-0.006221 -1.002966 0.0
-0.006542 -1.003777 0.0
-0.006763 -1.004627 0.0
-0.006880 -1.005501 0.0
-0.006889 -1.006387 0.0
-0.006790 -1.007270 0.0
-0.006584 -1.008136 0.0
-0.006273 -1.008971 0.0
-0.005862 -1.009760 0.0
-0.005357 -1.010491 0.0
-0.004767 -1.011151 0.0
-0.004102 -1.011729 0.0
-0.003372 -1.012216 0.0
-0.002590 -1.012601 0.0
-0.001773 -1.012802 0.0
-0.001002 -1.010445 0.0
-0.000322 -0.935133 0.0
-0.000330 -0.924338 0.0
-0.001124 -0.996760 0.0
-0.002048 -0.998326 0.0
-0.002948 -0.998653 0.0
-0.003807 -0.999073 0.0
-0.004611 -0.999595 0.0
-0.005349 -1.000215 0.0
-0.006009 -1.000923 0.0
-0.006581 -1.001712 0.0
-0.007055 -1.002570 0.0
-0.007423 -1.003485 0.0
-0.007677 -1.004443 0.0
-0.007814 -1.005431 0.0
-0.007828 -1.006433 0.0
-0.007719 -1.007432 0.0
-0.007486 -1.008412 0.0
-0.007135 -1.009357 0.0
-0.006668 -1.010251 0.0
-0.006095 -1.011078 0.0
-0.005424 -1.011824 0.0
-0.004667 -1.012478 0.0
-0.003836 -1.013028 0.0
-0.002945 -1.013462 0.0
-0.002016 -1.013687 0.0
-0.001138 -1.011209 0.0
-0.000366 -0.935821 0.0
-0.000375 -0.923633 0.0
-0.001275 -0.995773 0.0
-0.002317 -0.997348 0.0
-0.003334 -0.997713 0.0
-0.004305 -0.998184 0.0
-0.005215 -0.998770 0.0
-0.006052 -0.999466 0.0
-0.006801 -1.000263 0.0
-0.007453 -1.001150 0.0
-0.007994 -1.002116 0.0
-0.008416 -1.003148 0.0
-0.008710 -1.004231 0.0
-0.008870 -1.005348 0.0
-0.008890 -1.006482 0.0
-0.008770 -1.007613 0.0
-0.008509 -1.008724 0.0
-0.008111 -1.009795 0.0
-0.007582 -1.010808 0.0
-0.006931 -1.011745 0.0
-0.006168 -1.012591 0.0
-0.005306 -1.013331 0.0
-0.004360 -1.013953 0.0
-0.003346 -1.014443 0.0
-0.002289 -1.014693 0.0
-0.001292 -1.012077 0.0
-0.000415 -0.936601 0.0
-0.000427 -0.922830 0.0
-0.001444 -0.994658 0.0
-0.002620 -0.996245 0.0
-0.003767 -0.996651 0.0
-0.004864 -0.997178 0.0
-0.005893 -0.997836 0.0
-0.006841 -0.998616 0.0
-0.007693 -0.999511 0.0
-0.008434 -1.000509 0.0
-0.009053 -1.001597 0.0
-0.009537 -1.002761 0.0
-0.009877 -1.003984 0.0
-0.010064 -1.005248 0.0
-0.010093 -1.006532 0.0
-0.009961 -1.007815 0.0
-0.009668 -1.009076 0.0
-0.009218 -1.010291 0.0
-0.008618 -1.011441 0.0
-0.007878 -1.012504 0.0
-0.007010 -1.013463 0.0
-0.006029 -1.014301 0.0
-0.004952 -1.015005 0.0
-0.003798 -1.015558 0.0
-0.002596 -1.015837 0.0
-0.001464 -1.013063 0.0
-0.000470 -0.937487 0.0
-0.000485 -0.921919 0.0
-0.001634 -0.993403 0.0
-0.002958 -0.995001 0.0
-0.004252 -0.995454 0.0
-0.005489 -0.996043 0.0
-0.006653 -0.996778 0.0
-0.007727 -0.997652 0.0
-0.008694 -0.998656 0.0
-0.009539 -0.999777 0.0
-0.010247 -1.001002 0.0
-0.010803 -1.002315 0.0
-0.011197 -1.003697 0.0
-0.011417 -1.005128 0.0
-0.011457 -1.006583 0.0
-0.011313 -1.008040 0.0
-0.010985 -1.009472 0.0
-0.010476 -1.010854 0.0
-0.009795 -1.012160 0.0
-0.008953 -1.013367 0.0
-0.007965 -1.014456 0.0
-0.006848 -1.015406 0.0
-0.005622 -1.016203 0.0
-0.004309 -1.016827 0.0
-0.002943 -1.017135 0.0
-0.001658 -1.014181 0.0
-0.000532 -0.938489 0.0
-0.000550 -0.920884 0.0
-0.001848 -0.991989 0.0
-0.003337 -0.993601 0.0
-0.004794 -0.994104 0.0
-0.006188 -0.994761 0.0
-0.007503 -0.995582 0.0
-0.008719 -0.996559 0.0
-0.009817 -0.997683 0.0
-0.010781 -0.998942 0.0
-0.011591 -1.000320 0.0
-0.012232 -1.001800 0.0
-0.012689 -1.003362 0.0
-0.012950 -1.004982 0.0
-0.013005 -1.006634 0.0
-0.012849 -1.008290 0.0
-0.012481 -1.009919 0.0
-0.011905 -1.011491 0.0
-0.011132 -1.012977 0.0
-0.010174 -1.014350 0.0
-0.009049 -1.015586 0.0
-0.007777 -1.016665 0.0
-0.006381 -1.017567 0.0
-0.004886 -1.018271 0.0
-0.003333 -1.018610 0.0
-0.001876 -1.015448 0.0
-0.000602 -0.939623 0.0
-0.000623 -0.919711 0.0
-0.002087 -0.990401 0.0
-0.003760 -0.992027 0.0
-0.005397 -0.992584 0.0
-0.006968 -0.993315 0.0
-0.008451 -0.994229 0.0
-0.009828 -0.995319 0.0
-0.011076 -0.996576 0.0
-0.012175 -0.997986 0.0
-0.013105 -0.999535 0.0
-0.013845 -1.001203 0.0
-0.014378 -1.002969 0.0
-0.014688 -1.004805 0.0
-0.014763 -1.006682 0.0
-0.014596 -1.008566 0.0
-0.014184 -1.010422 0.0
-0.013533 -1.012214 0.0
-0.012653 -1.013906 0.0
-0.011562 -1.015469 0.0
-0.010280 -1.016874 0.0
-0.008830 -1.018098 0.0
-0.007239 -1.019121 0.0
-0.005538 -1.019914 0.0
-0.003773 -1.020284 0.0
-0.002121 -1.016883 0.0
-0.000679 -0.940904 0.0
-0.000706 -0.918382 0.0
-0.002354 -0.988618 0.0
-0.004229 -0.990261 0.0
-0.006067 -0.990876 0.0
-0.007834 -0.991686 0.0
-0.009507 -0.992701 0.0
-0.011065 -0.993914 0.0
-0.012484 -0.995315 0.0
-0.013740 -0.996892 0.0
-0.014808 -0.998631 0.0
-0.015666 -1.000510 0.0
-0.016290 -1.002505 0.0
-0.016661 -1.004587 0.0
-0.016763 -1.006722 0.0
-0.016586 -1.008871 0.0
-0.016125 -1.010990 0.0
-0.015387 -1.013035 0.0
-0.014386 -1.014965 0.0
-0.013142 -1.016745 0.0
-0.011679 -1.018343 0.0
-0.010025 -1.019733 0.0
-0.008211 -1.020891 0.0
-0.006273 -1.021784 0.0
-0.004268 -1.022184 0.0
-0.002395 -1.018508 0.0
-0.000766 -0.942349 0.0
-0.000798 -0.916878 0.0
-0.002650 -0.986623 0.0
-0.004749 -0.988282 0.0
-0.006808 -0.988958 0.0
-0.008793 -0.989853 0.0
-0.010679 -0.990975 0.0
-0.012442 -0.992319 0.0
-0.014055 -0.993877 0.0
-0.015491 -0.995638 0.0
-0.016722 -0.997586 0.0
-0.017719 -0.999700 0.0
-0.018454 -1.001955 0.0
-0.018902 -1.004318 0.0
-0.019040 -1.006750 0.0
-0.018855 -1.009205 0.0
-0.018340 -1.011630 0.0
-0.017503 -1.013970 0.0
-0.016361 -1.016174 0.0
-0.014940 -1.018203 0.0
-0.013268 -1.020021 0.0
-0.011379 -1.021598 0.0
-0.009310 -1.022909 0.0
-0.007102 -1.023913 0.0
-0.004824 -1.024339 0.0
-0.002703 -1.020346 0.0
-0.000864 -0.943980 0.0
-0.000901 -0.915179 0.0
-0.002978 -0.984392 0.0
-0.005322 -0.986069 0.0
-0.007625 -0.986809 0.0
-0.009850 -0.987792 0.0
-0.011974 -0.989027 0.0
-0.013968 -0.990510 0.0
-0.015803 -0.992237 0.0
-0.017448 -0.994196 0.0
-0.018870 -0.996375 0.0
-0.020034 -0.998751 0.0
-0.020904 -1.001299 0.0
-0.021448 -1.003983 0.0
-0.021636 -1.006759 0.0
-0.021446 -1.009571 0.0
-0.020872 -1.012354 0.0
-0.019920 -1.015035 0.0
-0.018615 -1.017556 0.0
-0.016987 -1.019870 0.0
-0.015074 -1.021939 0.0
-0.012915 -1.023728 0.0
-0.010553 -1.025210 0.0
-0.008037 -1.026336 0.0
-0.005448 -1.026784 0.0
-0.003047 -1.022424 0.0
-0.000972 -0.945815 0.0
-0.001015 -0.913263 0.0
-0.003339 -0.981907 0.0
-0.005950 -0.983600 0.0
-0.008519 -0.984406 0.0
-0.011010 -0.985478 0.0
-0.013397 -0.986830 0.0
-0.015652 -0.988459 0.0
-0.017741 -0.990363 0.0
-0.019629 -0.992536 0.0
-0.021276 -0.994966 0.0
-0.022640 -0.997632 0.0
-0.023677 -1.000510 0.0
-0.024343 -1.003562 0.0
-0.024597 -1.006738 0.0
-0.024410 -1.009969 0.0
-0.023768 -1.013171 0.0
-0.022684 -1.016253 0.0
-0.021187 -1.019140 0.0
-0.019319 -1.021782 0.0
-0.017126 -1.024134 0.0
-0.014655 -1.026163 0.0
-0.011957 -1.027835 0.0
-0.009089 -1.029094 0.0
-0.006149 -1.029554 0.0
-0.003432 -1.024772 0.0
-0.001093 -0.947881 0.0
-0.001141 -0.911108 0.0
-0.003734 -0.979145 0.0
-0.006632 -0.980853 0.0
-0.009491 -0.981724 0.0
-0.012274 -0.982886 0.0
-0.014954 -0.984354 0.0
-0.017501 -0.986132 0.0
-0.019880 -0.988222 0.0
-0.022050 -0.990620 0.0
-0.023964 -0.993320 0.0
-0.025571 -0.996307 0.0
-0.026814 -0.999556 0.0
-0.027635 -1.003030 0.0
-0.027978 -1.006673 0.0
-0.027801 -1.010399 0.0
-0.027085 -1.014099 0.0
-0.025845 -1.017651 0.0
-0.024123 -1.020961 0.0
-0.021974 -1.023978 0.0
-0.019454 -1.026651 0.0
-0.016623 -1.028948 0.0
-0.013539 -1.030832 0.0
-0.010271 -1.032233 0.0
-0.006933 -1.032693 0.0
-0.003861 -1.027422 0.0
-0.001228 -0.950202 0.0
-0.001278 -0.908689 0.0
-0.004163 -0.976086 0.0
-0.007369 -0.977808 0.0
-0.010540 -0.978740 0.0
-0.013640 -0.979987 0.0
-0.016644 -0.981569 0.0
-0.019519 -0.983495 0.0
-0.022229 -0.985771 0.0
-0.024726 -0.988404 0.0
-0.026957 -0.991392 0.0
-0.028859 -0.994727 0.0
-0.030359 -0.998392 0.0
-0.031379 -1.002353 0.0
-0.031840 -1.006545 0.0
-0.031684 -1.010861 0.0
-0.030884 -1.015152 0.0
-0.029462 -1.019259 0.0
-0.027474 -1.023063 0.0
-0.024993 -1.026507 0.0
-0.022094 -1.029541 0.0
-0.018846 -1.032136 0.0
-0.015320 -1.034253 0.0
-0.011596 -1.035805 0.0
-0.007809 -1.036245 0.0
-0.004340 -1.030411 0.0
-0.001378 -0.952808 0.0
-0.001427 -0.905984 0.0
-0.004623 -0.972711 0.0
-0.008156 -0.974443 0.0
-0.011660 -0.975430 0.0
-0.015103 -0.976754 0.0
-0.018462 -0.978441 0.0
-0.021704 -0.980506 0.0
-0.024789 -0.982965 0.0
-0.027668 -0.985834 0.0
-0.030276 -0.989122 0.0
-0.032537 -0.992834 0.0
-0.034357 -0.996965 0.0
-0.035629 -1.001488 0.0
-0.036246 -1.006331 0.0
-0.036125 -1.011353 0.0
-0.035232 -1.016353 0.0
-0.033595 -1.021117 0.0
-0.031292 -1.025495 0.0
-0.028422 -1.029426 0.0
-0.025079 -1.032864 0.0
-0.021351 -1.035788 0.0
-0.017320 -1.038158 0.0
-0.013079 -1.039866 0.0
-0.008788 -1.040261 0.0
-0.004873 -1.033780 0.0
-0.001545 -0.955730 0.0
-0.001587 -0.902970 0.0
-0.005111 -0.969005 0.0
-0.008986 -0.970741 0.0
-0.012841 -0.971772 0.0
-0.016651 -0.973159 0.0
-0.020396 -0.974934 0.0
-0.024044 -0.977122 0.0
-0.027556 -0.979751 0.0
-0.030877 -0.982849 0.0
-0.033934 -0.986442 0.0
-0.036632 -0.990555 0.0
-0.038849 -0.995207 0.0
-0.040442 -1.000382 0.0
-0.041262 -1.005999 0.0
-0.041196 -1.011872 0.0
-0.040197 -1.017726 0.0
-0.038308 -1.023271 0.0
-0.035633 -1.028318 0.0
-0.032304 -1.032803 0.0
-0.028446 -1.036688 0.0
-0.024166 -1.039971 0.0
-0.019559 -1.042613 0.0
-0.014734 -1.044479 0.0
-0.009880 -1.044794 0.0
-0.005469 -1.037572 0.0
-0.001730 -0.959005 0.0
-0.001756 -0.899627 0.0
-0.005622 -0.964957 0.0
-0.009848 -0.966689 0.0
-0.014068 -0.967747 0.0
-0.018266 -0.969176 0.0
-0.022425 -0.971014 0.0
-0.026521 -0.973298 0.0
-0.030514 -0.976071 0.0
-0.034346 -0.979377 0.0
-0.037935 -0.983268 0.0
-0.041163 -0.987802 0.0
-0.043872 -0.993033 0.0
-0.045868 -0.998968 0.0
-0.046949 -1.005512 0.0
-0.046960 -1.012414 0.0
-0.045845 -1.019298 0.0
-0.043661 -1.025774 0.0
-0.040549 -1.031602 0.0
-0.036683 -1.036714 0.0
-0.032227 -1.041091 0.0
-0.027315 -1.044760 0.0
-0.022056 -1.047688 0.0
-0.016577 -1.049707 0.0
-0.011095 -1.049902 0.0
-0.006133 -1.041838 0.0
-0.001938 -0.962673 0.0
-0.001932 -0.895939 0.0
-0.006148 -0.960562 0.0
-0.010726 -0.962280 0.0
-0.015318 -0.963344 0.0
-0.019918 -0.964783 0.0
-0.024518 -0.966647 0.0
-0.029101 -0.968986 0.0
-0.033631 -0.971859 0.0
-0.038050 -0.975337 0.0
-0.042266 -0.979505 0.0
-0.046133 -0.984470 0.0
-0.049445 -0.990343 0.0
-0.051941 -0.997167 0.0
-0.053351 -1.004822 0.0
-0.053471 -1.012971 0.0
-0.052231 -1.021096 0.0
-0.049707 -1.028684 0.0
-0.046086 -1.035426 0.0
-0.041597 -1.041245 0.0
-0.036453 -1.046159 0.0
-0.030820 -1.050238 0.0
-0.024829 -1.053459 0.0
-0.018623 -1.055621 0.0
-0.012449 -1.055645 0.0
-0.006876 -1.046630 0.0
-0.002171 -0.966782 0.0
-0.002111 -0.891896 0.0
-0.006676 -0.955824 0.0
-0.011600 -0.957516 0.0
-0.016561 -0.958555 0.0
-0.021568 -0.959965 0.0
-0.026628 -0.961804 0.0
-0.031733 -0.964140 0.0
-0.036857 -0.967051 0.0
-0.041944 -0.970639 0.0
-0.046890 -0.975040 0.0
-0.051520 -0.980437 0.0
-0.055562 -0.987022 0.0
-0.058669 -0.994885 0.0
-0.060488 -1.003876 0.0
-0.060757 -1.013528 0.0
-0.059388 -1.023148 0.0
-0.056482 -1.032063 0.0
-0.052277 -1.039873 0.0
-0.047073 -1.046491 0.0
-0.041144 -1.051986 0.0
-0.034699 -1.056489 0.0
-0.027892 -1.060005 0.0
-0.020885 -1.062289 0.0
-0.013954 -1.062083 0.0
-0.007710 -1.052008 0.0
-0.002433 -0.971386 0.0
-0.002290 -0.887496 0.0
-0.007192 -0.950757 0.0
-0.012443 -0.952408 0.0
-0.017757 -0.953388 0.0
-0.023166 -0.954716 0.0
-0.028694 -0.956466 0.0
-0.034347 -0.958719 0.0
-0.040115 -0.961580 0.0
-0.045949 -0.965189 0.0
-0.051738 -0.969755 0.0
-0.057264 -0.975568 0.0
-0.062175 -0.982939 0.0
-0.066018 -0.992018 0.0
-0.068338 -1.002604 0.0
-0.068807 -1.014061 0.0
-0.067317 -1.025473 0.0
-0.063993 -1.035968 0.0
-0.059136 -1.045030 0.0
-0.053124 -1.052550 0.0
-0.046311 -1.058668 0.0
-0.038959 -1.063604 0.0
-0.031254 -1.067402 0.0
-0.023376 -1.069778 0.0
-0.015626 -1.069276 0.0
-0.008647 -1.058037 0.0
-0.002731 -0.976550 0.0
-0.002462 -0.882745 0.0
-0.007678 -0.945389 0.0
-0.013220 -0.946985 0.0
-0.018857 -0.947860 0.0
-0.024646 -0.949044 0.0
-0.030633 -0.950623 0.0
-0.036847 -0.952694 0.0
-0.043298 -0.955387 0.0
-0.049953 -0.958893 0.0
-0.056694 -0.963521 0.0
-0.063253 -0.969716 0.0
-0.069181 -0.977951 0.0
-0.073894 -0.988449 0.0
-0.076820 -1.000927 0.0
-0.077557 -1.014533 0.0
-0.075973 -1.028076 0.0
-0.072215 -1.040447 0.0
-0.066647 -1.050977 0.0
-0.059740 -1.059522 0.0
-0.051946 -1.066304 0.0
-0.043596 -1.071669 0.0
-0.034916 -1.075722 0.0
-0.026103 -1.078148 0.0
-0.017478 -1.077281 0.0
-0.009702 -1.064786 0.0
-0.003070 -0.982350 0.0
-0.002620 -0.877662 0.0
-0.008112 -0.939762 0.0
-0.013893 -0.941289 0.0
-0.019802 -0.942011 0.0
-0.025929 -0.942978 0.0
-0.032345 -0.944287 0.0
-0.039109 -0.946051 0.0
-0.046262 -0.948426 0.0
-0.053794 -0.951666 0.0
-0.061585 -0.956216 0.0
-0.069310 -0.962736 0.0
-0.076401 -0.971913 0.0
-0.082125 -0.984049 0.0
-0.085779 -0.998746 0.0
-0.086876 -1.014879 0.0
-0.085254 -1.030936 0.0
-0.081073 -1.045525 0.0
-0.074760 -1.057782 0.0
-0.066887 -1.067497 0.0
-0.058021 -1.074989 0.0
-0.048589 -1.080765 0.0
-0.038866 -1.085031 0.0
-0.029068 -1.087450 0.0
-0.019522 -1.086150 0.0
-0.010888 -1.072327 0.0
-0.003455 -0.988875 0.0
-0.002759 -0.872283 0.0
-0.008470 -0.933938 0.0
-0.014418 -0.935384 0.0
-0.020526 -0.935899 0.0
-0.026922 -0.936567 0.0
-0.033709 -0.937495 0.0
-0.040983 -0.938805 0.0
-0.048823 -0.940679 0.0
-0.057259 -0.943445 0.0
-0.066173 -0.947733 0.0
-0.075177 -0.954491 0.0
-0.083568 -0.964677 0.0
-0.090449 -0.978681 0.0
-0.094970 -0.995940 0.0
-0.096552 -1.015006 0.0
-0.094988 -1.033996 0.0
-0.090439 -1.051194 0.0
-0.083381 -1.065485 0.0
-0.074494 -1.076553 0.0
-0.064484 -1.084808 0.0
-0.053898 -1.090963 0.0
-0.043077 -1.095377 0.0
-0.032258 -1.097720 0.0
-0.021761 -1.095922 0.0
-0.012214 -1.080735 0.0
-0.003892 -0.996222 0.0
-0.002868 -0.866656 0.0
-0.008726 -0.927995 0.0
-0.014748 -0.929358 0.0
-0.020956 -0.929610 0.0
-0.027522 -0.929893 0.0
-0.034587 -0.930317 0.0
-0.042288 -0.931008 0.0
-0.050758 -0.932165 0.0
-0.060076 -0.934206 0.0
-0.070140 -0.937995 0.0
-0.080502 -0.944862 0.0
-0.090313 -0.956103 0.0
-0.098496 -0.972192 0.0
-0.104047 -0.992356 0.0
-0.106284 -1.014771 0.0
-0.104931 -1.037148 0.0
-0.100124 -1.057398 0.0
-0.092370 -1.074094 0.0
-0.082454 -1.086746 0.0
-0.071249 -1.095831 0.0
-0.059457 -1.102319 0.0
-0.047504 -1.106794 0.0
-0.035648 -1.108978 0.0
-0.024184 -1.106626 0.0
-0.013682 -1.090081 0.0
-0.004383 -1.004498 0.0
-0.002940 -0.860848 0.0
-0.008855 -0.922031 0.0
-0.014836 -0.923319 0.0
-0.021017 -0.923259 0.0
-0.027623 -0.923071 0.0
-0.034831 -0.922867 0.0
-0.042826 -0.922762 0.0
-0.051805 -0.922962 0.0
-0.061915 -0.923980 0.0
-0.073092 -0.926979 0.0
-0.084838 -0.933769 0.0
-0.096159 -0.946064 0.0
-0.105790 -0.964418 0.0
-0.112566 -0.987803 0.0
-0.115677 -1.013976 0.0
-0.114756 -1.040216 0.0
-0.109874 -1.064019 0.0
-0.101534 -1.083568 0.0
-0.090623 -1.098099 0.0
-0.078203 -1.108103 0.0
-0.065173 -1.114868 0.0
-0.052075 -1.119296 0.0
-0.039187 -1.121220 0.0
-0.026764 -1.118270 0.0
-0.015279 -1.100425 0.0
-0.004925 -1.013806 0.0
-0.002968 -0.854940 0.0
-0.008831 -0.916162 0.0
-0.014637 -0.917402 0.0
-0.020640 -0.916991 0.0
-0.027118 -0.916255 0.0
-0.034287 -0.915306 0.0
-0.042384 -0.914232 0.0
-0.051675 -0.913223 0.0
-0.062400 -0.912885 0.0
-0.074562 -0.914736 0.0
-0.087646 -0.921182 0.0
-0.100526 -0.934450 0.0
-0.111749 -0.955177 0.0
-0.119975 -0.982042 0.0
-0.124246 -1.012354 0.0
-0.124058 -1.042947 0.0
-0.119367 -1.070862 0.0
-0.110630 -1.093801 0.0
-0.098814 -1.110593 0.0
-0.085197 -1.121646 0.0
-0.070927 -1.128626 0.0
-0.056693 -1.132871 0.0
-0.042803 -1.134422 0.0
-0.029451 -1.130843 0.0
-0.016977 -1.111812 0.0
-0.005509 -1.024240 0.0
-0.002943 -0.849029 0.0
-0.008635 -0.910517 0.0
-0.014115 -0.911763 0.0
-0.019763 -0.910978 0.0
-0.025913 -0.909640 0.0
-0.032816 -0.907849 0.0
-0.040756 -0.905652 0.0
-0.050075 -0.903191 0.0
-0.061126 -0.901141 0.0
-0.074029 -0.901415 0.0
-0.088307 -0.907142 0.0
-0.102740 -0.921178 0.0
-0.115691 -0.944274 0.0
-0.125627 -0.974784 0.0
-0.131409 -1.009560 0.0
-0.132345 -1.044992 0.0
-0.128214 -1.077638 0.0
-0.119361 -1.104614 0.0
-0.106802 -1.124156 0.0
-0.092056 -1.136445 0.0
-0.076573 -1.143579 0.0
-0.061236 -1.147489 0.0
-0.046395 -1.148536 0.0
-0.032168 -1.144307 0.0
-0.018729 -1.124261 0.0
-0.006120 -1.035869 0.0
-0.002861 -0.843225 0.0
-0.008253 -0.905235 0.0
-0.013245 -0.906572 0.0
-0.018344 -0.905421 0.0
-0.023937 -0.903454 0.0
-0.030304 -0.900766 0.0
-0.037764 -0.897336 0.0
-0.046735 -0.893218 0.0
-0.057699 -0.889099 0.0
-0.070956 -0.887296 0.0
-0.086158 -0.891782 0.0
-0.102057 -0.906207 0.0
-0.116849 -0.931501 0.0
-0.128783 -0.965687 0.0
-0.136493 -1.005166 0.0
-0.139041 -1.045901 0.0
-0.135950 -1.083951 0.0
-0.127376 -1.115728 0.0
-0.114328 -1.138650 0.0
-0.098576 -1.152449 0.0
-0.081941 -1.159693 0.0
-0.065558 -1.163096 0.0
-0.049837 -1.163491 0.0
-0.034815 -1.158599 0.0
-0.020467 -1.137754 0.0
-0.006732 -1.048721 0.0
-0.002717 -0.837648 0.0
-0.007676 -0.900461 0.0
-0.012018 -0.902013 0.0
-0.016363 -0.900536 0.0
-0.021153 -0.897956 0.0
-0.026681 -0.894368 0.0
-0.033288 -0.889666 0.0
-0.041445 -0.883761 0.0
-0.051779 -0.877258 0.0
-0.064837 -0.872821 0.0
-0.080529 -0.875364 0.0
-0.097694 -0.889561 0.0
-0.114391 -0.916658 0.0
-0.128618 -0.954369 0.0
-0.138730 -0.998663 0.0
-0.143473 -1.045113 0.0
-0.142028 -1.089275 0.0
-0.134261 -1.126745 0.0
-0.121090 -1.153851 0.0
-0.104529 -1.169561 0.0
-0.086841 -1.176904 0.0
-0.069490 -1.179620 0.0
-0.052980 -1.179199 0.0
-0.037267 -1.173627 0.0
-0.022106 -1.152235 0.0
-0.007315 -1.062767 0.0
-0.002508 -0.832423 0.0
-0.006905 -0.896330 0.0
-0.010440 -0.898267 0.0
-0.013830 -0.896546 0.0
-0.017564 -0.893423 0.0
-0.021937 -0.889000 0.0
-0.027286 -0.883078 0.0
-0.034107 -0.875371 0.0
-0.043152 -0.866269 0.0
-0.055278 -0.858626 0.0
-0.070815 -0.858329 0.0
-0.088872 -0.871374 0.0
-0.107438 -0.899582 0.0
-0.124229 -0.940426 0.0
-0.137251 -0.989472 0.0
-0.144862 -1.041951 0.0
-0.145803 -1.092941 0.0
-0.139527 -1.137123 0.0
-0.126740 -1.169431 0.0
-0.109656 -1.187626 0.0
-0.091060 -1.195122 0.0
-0.072845 -1.196968 0.0
-0.055658 -1.195546 0.0
-0.039385 -1.189267 0.0
-0.023548 -1.167593 0.0
-0.007833 -1.077915 0.0
-0.002233 -0.827681 0.0
-0.005941 -0.892968 0.0
-0.008529 -0.895506 0.0
-0.010777 -0.893670 0.0
-0.013217 -0.890126 0.0
-0.016128 -0.885012 0.0
-0.019816 -0.878030 0.0
-0.024761 -0.868654 0.0
-0.031793 -0.856907 0.0
-0.042088 -0.845568 0.0
-0.056571 -0.841368 0.0
-0.074885 -0.851965 0.0
-0.095106 -0.880203 0.0
-0.114646 -0.923473 0.0
-0.131085 -0.976965 0.0
-0.142304 -1.035628 0.0
-0.146506 -1.094120 0.0
-0.142580 -1.146146 0.0
-0.130856 -1.184919 0.0
-0.113657 -1.206420 0.0
-0.094356 -1.214225 0.0
-0.075411 -1.215026 0.0
-0.057685 -1.212399 0.0
-0.041013 -1.205359 0.0
-0.024687 -1.183664 0.0
-0.008249 -1.093997 0.0
-0.001888 -0.823559 0.0
-0.004790 -0.890481 0.0
-0.006314 -0.893880 0.0
-0.007258 -0.892104 0.0
-0.008192 -0.888319 0.0
-0.009367 -0.882732 0.0
-0.011032 -0.874957 0.0
-0.013608 -0.864207 0.0
-0.017924 -0.850005 0.0
-0.025397 -0.834702 0.0
-0.037649 -0.825498 0.0
-0.055213 -0.831958 0.0
-0.076563 -0.858640 0.0
-0.098858 -0.903200 0.0
-0.119153 -0.960504 0.0
-0.134753 -1.025270 0.0
-0.143207 -1.091823 0.0
-0.142681 -1.152896 0.0
-0.132903 -1.199671 0.0
-0.116153 -1.225617 0.0
-0.096440 -1.234041 0.0
-0.076945 -1.233649 0.0
-0.058854 -1.229593 0.0
-0.041989 -1.221703 0.0