# vtk DataFile Version 3.0
Vector Field
ASCII
DATASET RECTILINEAR_GRID
DIMENSIONS 26 100 1
X_COORDINATES 26 double
0.050000 0.150000 0.250000 0.350000 0.450000 0.550000 0.650000 0.750000 0.850000 0.950000 1.050000 1.150000 1.250000 1.350000 1.450000 1.550000 1.650000 1.750000 1.850000 1.950000 2.050000 2.150000 2.250000 2.350000 2.450000 2.550000 
Y_COORDINATES 100 double
0.050000 0.150000 0.250000 0.350000 0.450000 0.550000 0.650000 0.750000 0.850000 0.950000 1.050000 1.150000 1.250000 1.350000 1.450000 1.550000 1.650000 1.750000 1.850000 1.950000 2.050000 2.150000 2.250000 2.350000 2.450000 2.550000 2.650000 2.750000 2.850000 2.950000 3.050000 3.150000 3.250000 3.350000 3.450000 3.550000 3.650000 3.750000 3.850000 3.950000 4.050000 4.150000 4.250000 4.350000 4.450000 4.550000 4.650000 4.750000 4.850000 4.950000 5.050000 5.150000 5.250000 5.350000 5.450000 5.550000 5.650000 5.750000 5.850000 5.950000 6.050000 6.150000 6.250000 6.350000 6.450000 6.550000 6.650000 6.750000 6.850000 6.950000 7.050000 7.150000 7.250000 7.350000 7.450000 7.550000 7.650000 7.750000 7.850000 7.950000 8.050000 8.150000 8.250000 8.350000 8.450000 8.550000 8.650000 8.750000 8.850000 8.950000 9.050000 9.150000 9.250000 9.350000 9.450000 9.550000 9.650000 9.750000 9.850000 9.950000 
Z_COORDINATES 1 double
0.0
POINT_DATA 2600
VECTORS Vektorfeld double
0.001173 -0.856007 0.0
0.005344 -0.921868 0.0
0.012996 -0.925971 0.0
0.023491 -0.925194 0.0
0.035891 -0.924478 0.0
0.049296 -0.925130 0.0
0.062913 -0.927257 0.0
0.076099 -0.930811 0.0
0.088360 -0.935844 0.0
0.099317 -0.942495 0.0
0.108684 -0.950906 0.0
0.116238 -0.961152 0.0
0.121807 -0.973179 0.0
0.125261 -0.986782 0.0
0.126513 -1.001601 0.0
0.125516 -1.017155 0.0
0.122270 -1.032894 0.0
0.116815 -1.048253 0.0
0.109230 -1.062726 0.0
0.099626 -1.075929 0.0
0.088147 -1.087700 0.0
0.074963 -1.098251 0.0
0.060272 -1.108461 0.0
0.044288 -1.120297 0.0
0.027203 -1.136714 0.0
0.009203 -1.122944 0.0
-0.002437 -0.854744 0.0
-0.002735 -0.927005 0.0
0.005376 -0.936597 0.0
0.019623 -0.939309 0.0
0.037377 -0.940518 0.0
0.056670 -0.941789 0.0
0.075999 -0.943544 0.0
0.094304 -0.946016 0.0
0.110880 -0.949476 0.0
0.125274 -0.954214 0.0
0.137199 -0.960478 0.0
0.146476 -0.968411 0.0
0.152998 -0.978011 0.0
0.156706 -0.989113 0.0
0.157584 -1.001400 0.0
0.155658 -1.014434 0.0
0.150994 -1.027705 0.0
0.143693 -1.040686 0.0
0.133885 -1.052900 0.0
0.121727 -1.063993 0.0
0.107400 -1.073830 0.0
0.091122 -1.082658 0.0
0.073152 -1.091394 0.0
0.053764 -1.101993 0.0
0.033064 -1.117232 0.0
0.011190 -1.102551 0.0
-0.003576 -0.848731 0.0
-0.005222 -0.931074 0.0
0.003501 -0.949361 0.0
0.020055 -0.957345 0.0
0.041067 -0.961249 0.0
0.063906 -0.963189 0.0
0.086603 -0.964169 0.0
0.107820 -0.964913 0.0
0.126714 -0.966049 0.0
0.142792 -0.968112 0.0
0.155793 -0.971506 0.0
0.165604 -0.976471 0.0
0.172195 -0.983064 0.0
0.175592 -0.991165 0.0
0.175855 -1.000490 0.0
0.173072 -1.010635 0.0
0.167352 -1.021119 0.0
0.158821 -1.031440 0.0
0.147625 -1.041143 0.0
0.133927 -1.049895 0.0
0.117922 -1.057596 0.0
0.099854 -1.064545 0.0
0.080031 -1.071715 0.0
0.058792 -1.081045 0.0
0.036311 -1.094999 0.0
0.012381 -1.078980 0.0
-0.003753 -0.841402 0.0
-0.004965 -0.935544 0.0
0.005419 -0.963999 0.0
0.024257 -0.978100 0.0
0.047705 -0.984955 0.0
0.072778 -0.987395 0.0
0.097296 -0.987178 0.0
0.119823 -0.985648 0.0
0.139498 -0.983882 0.0
0.155860 -0.982720 0.0
0.168717 -0.982757 0.0
0.178038 -0.984350 0.0
0.183885 -0.987622 0.0
0.186370 -0.992489 0.0
0.185629 -0.998689 0.0
0.181807 -1.005831 0.0
0.175049 -1.013445 0.0
0.165506 -1.021039 0.0
0.153330 -1.028170 0.0
0.138687 -1.034528 0.0
0.121784 -1.040055 0.0
0.102889 -1.045122 0.0
0.082354 -1.050779 0.0
0.060551 -1.058939 0.0
0.037615 -1.071690 0.0
0.012927 -1.053671 0.0
-0.002792 -0.834858 0.0
-0.001655 -0.942012 0.0
0.011411 -0.980980 0.0
0.032582 -1.001129 0.0
0.057742 -1.010534 0.0
0.083787 -1.012935 0.0
0.108583 -1.010952 0.0
0.130791 -1.006609 0.0
0.149665 -1.001469 0.0
0.164864 -0.996695 0.0
0.176312 -0.993087 0.0
0.184089 -0.991118 0.0
0.188359 -0.990972 0.0
0.189321 -0.992587 0.0
0.187180 -0.995709 0.0
0.182132 -0.999940 0.0
0.174356 -1.004803 0.0
0.164015 -1.009798 0.0
0.151265 -1.014486 0.0
0.136277 -1.018582 0.0
0.119263 -1.022084 0.0
0.100515 -1.025450 0.0
0.080405 -1.029805 0.0
0.059282 -1.036987 0.0
0.037146 -1.048571 0.0
0.012894 -1.027850 0.0
-0.000433 -0.831633 0.0
0.005022 -0.951828 0.0
0.021487 -1.000695 0.0
0.044888 -1.025986 0.0
0.070970 -1.036919 0.0
0.096755 -1.038380 0.0
0.120366 -1.033913 0.0
0.140724 -1.026216 0.0
0.157313 -1.017325 0.0
0.169988 -1.008712 0.0
0.178835 -1.001365 0.0
0.184075 -0.995856 0.0
0.185982 -0.992411 0.0
0.184847 -0.990975 0.0
0.180941 -0.991275 0.0
0.174505 -0.992890 0.0
0.165744 -0.995315 0.0
0.154831 -0.998031 0.0
0.141927 -1.000598 0.0
0.127204 -1.002758 0.0
0.110882 -1.004574 0.0
0.093260 -1.006591 0.0
0.074690 -1.009983 0.0
0.055420 -1.016415 0.0
0.035198 -1.026785 0.0
0.012386 -1.002571 0.0
0.003453 -0.834654 0.0
0.015028 -0.965837 0.0
0.035124 -1.023247 0.0
0.060306 -1.052016 0.0
0.086322 -1.062987 0.0
0.110588 -1.062363 0.0
0.131648 -1.054600 0.0
0.148792 -1.043031 0.0
0.161806 -1.030112 0.0
0.170790 -1.017583 0.0
0.176028 -1.006580 0.0
0.177896 -0.997749 0.0
0.176796 -0.991326 0.0
0.173108 -0.987237 0.0
0.167170 -0.985169 0.0
0.159266 -0.984656 0.0
0.149625 -0.985148 0.0
0.138435 -0.986096 0.0
0.125859 -0.987054 0.0
0.112073 -0.987793 0.0
0.097297 -0.988441 0.0
0.081806 -0.989611 0.0
0.065869 -0.992456 0.0
0.049520 -0.998324 0.0
0.032141 -1.007276 0.0
0.011530 -0.978655 0.0
0.008366 -0.846473 0.0
0.027440 -0.984667 0.0
0.051161 -1.048234 0.0
0.077196 -1.078246 0.0
0.101938 -1.087516 0.0
0.123410 -1.083572 0.0
0.140675 -1.071716 0.0
0.153448 -1.055832 0.0
0.161850 -1.038726 0.0
0.166245 -1.022347 0.0
0.167128 -1.007938 0.0
0.165042 -0.996173 0.0
0.160512 -0.987271 0.0
0.154015 -0.981106 0.0
0.145955 -0.977302 0.0
0.136662 -0.975325 0.0
0.126391 -0.974568 0.0
0.115348 -0.974442 0.0
0.103704 -0.974488 0.0
0.091636 -0.974504 0.0
0.079341 -0.974658 0.0
0.067019 -0.975581 0.0
0.054753 -0.978283 0.0
0.042239 -0.983633 0.0
0.028387 -0.990736 0.0
0.010464 -0.956662 0.0
0.013620 -0.868459 0.0
0.040618 -1.008753 0.0
0.067533 -1.074784 0.0
0.093260 -1.103457 0.0
0.115442 -1.109229 0.0
0.132901 -1.100789 0.0
0.145291 -1.084155 0.0
0.152772 -1.063648 0.0
0.155804 -1.042344 0.0
0.155016 -1.022336 0.0
0.151108 -1.004924 0.0
0.144780 -0.990772 0.0
0.136682 -0.980045 0.0
0.127383 -0.972536 0.0
0.117352 -0.967782 0.0
0.106966 -0.965165 0.0
0.096516 -0.964009 0.0
0.086229 -0.963671 0.0
0.076289 -0.963675 0.0
0.066856 -0.963816 0.0
0.058060 -0.964255 0.0
0.049935 -0.965538 0.0
0.042259 -0.968385 0.0
0.034267 -0.973024 0.0
0.024345 -0.977571 0.0
0.009319 -0.936878 0.0
0.018410 -0.900489 0.0
0.052484 -1.037796 0.0
0.081644 -1.101817 0.0
0.105876 -1.126382 0.0
0.124306 -1.126917 0.0
0.136702 -1.112955 0.0
0.143358 -1.091034 0.0
0.144890 -1.065781 0.0
0.142089 -1.040443 0.0
0.135833 -1.017192 0.0
0.127011 -0.997338 0.0
0.116473 -0.981493 0.0
0.104978 -0.969733 0.0
0.093177 -0.961748 0.0
0.081604 -0.956966 0.0
0.070681 -0.954672 0.0
0.060740 -0.954111 0.0
0.052031 -0.954573 0.0
0.044737 -0.955539 0.0
0.038966 -0.956748 0.0
0.034698 -0.958259 0.0
0.031689 -0.960401 0.0
0.029292 -0.963450 0.0
0.026216 -0.966891 0.0
0.020347 -0.967913 0.0
0.008198 -0.919361 0.0
0.021935 -0.940833 0.0
0.061016 -1.070608 0.0
0.091006 -1.128155 0.0
0.112587 -1.145856 0.0
0.126265 -1.139552 0.0
0.132789 -1.119240 0.0
0.133123 -1.091739 0.0
0.128335 -1.061821 0.0
0.119538 -1.032806 0.0
0.107840 -1.006875 0.0
0.094305 -0.985298 0.0
0.079909 -0.968598 0.0
0.065506 -0.956731 0.0
0.051814 -0.949256 0.0
0.039416 -0.945486 0.0
0.028782 -0.944596 0.0
0.020270 -0.945734 0.0
0.014135 -0.948106 0.0
0.010524 -0.951101 0.0
0.009422 -0.954312 0.0
0.010561 -0.957566 0.0
0.013314 -0.960838 0.0
0.016549 -0.963852 0.0
0.018477 -0.965341 0.0
0.016569 -0.961686 0.0
0.007147 -0.904017 0.0
0.023654 -0.986422 0.0
0.064824 -1.105271 0.0
0.093841 -1.152499 0.0
0.111596 -1.160849 0.0
0.119692 -1.146333 0.0
0.119789 -1.119080 0.0
0.113496 -1.085939 0.0
0.102318 -1.051656 0.0
0.087671 -1.019527 0.0
0.070878 -0.991664 0.0
0.053153 -0.969250 0.0
0.035584 -0.952680 0.0
0.019090 -0.941752 0.0
0.004427 -0.935879 0.0
-0.007791 -0.934248 0.0
-0.017083 -0.935907 0.0
-0.023097 -0.939896 0.0
-0.025618 -0.945288 0.0
-0.024615 -0.951311 0.0
-0.020310 -0.957304 0.0
-0.013282 -0.962741 0.0
-0.004561 -0.967136 0.0
0.004281 -0.969631 0.0
0.011068 -0.968277 0.0
0.012956 -0.958730 0.0
0.006138 -0.890731 0.0
0.023418 -1.033493 0.0
0.063432 -1.139383 0.0
0.089405 -1.173378 0.0
0.102083 -1.170404 0.0
0.103871 -1.146661 0.0
0.097195 -1.112175 0.0
0.084239 -1.073595 0.0
0.066901 -1.035483 0.0
0.046869 -1.001019 0.0
0.025663 -0.972174 0.0
0.004626 -0.949979 0.0
-0.015089 -0.934666 0.0
-0.032514 -0.925847 0.0
-0.046899 -0.922737 0.0
-0.057698 -0.924374 0.0
-0.064503 -0.929684 0.0
-0.067034 -0.937574 0.0
-0.065181 -0.946941 0.0
-0.059073 -0.956769 0.0
-0.049174 -0.966051 0.0
-0.036360 -0.973837 0.0
-0.021980 -0.979140 0.0
-0.007878 -0.980569 0.0
0.003548 -0.975551 0.0
0.009176 -0.958972 0.0
0.005049 -0.879544 0.0
0.021405 -1.078316 0.0
0.057169 -1.170338 0.0
0.077942 -1.189169 0.0
0.084238 -1.173586 0.0
0.079064 -1.140092 0.0
0.065454 -1.098459 0.0
0.046051 -1.054953 0.0
0.023086 -1.013823 0.0
-0.001534 -0.978025 0.0
-0.026092 -0.949404 0.0
-0.049061 -0.928743 0.0
-0.069326 -0.915921 0.0
-0.086157 -0.910336 0.0
-0.098985 -0.911033 0.0
-0.107346 -0.916917 0.0
-0.110892 -0.926789 0.0
-0.109443 -0.939388 0.0
-0.103027 -0.953396 0.0
-0.091961 -0.967488 0.0
-0.076910 -0.980282 0.0
-0.058943 -0.990387 0.0
-0.039571 -0.996342 0.0
-0.020755 -0.996285 0.0
-0.004912 -0.987105 0.0
0.004612 -0.962570 0.0
0.003644 -0.870852 0.0
0.017966 -1.117687 0.0
0.046834 -1.195598 0.0
0.060381 -1.198229 0.0
0.059070 -1.169513 0.0
0.046414 -1.126335 0.0
0.025916 -1.078107 0.0
0.000541 -1.030527 0.0
-0.027160 -0.987583 0.0
-0.054842 -0.951963 0.0
-0.080737 -0.925013 0.0
-0.103764 -0.907136 0.0
-0.123165 -0.897862 0.0
-0.138334 -0.896397 0.0
-0.148789 -0.901690 0.0
-0.154160 -0.912530 0.0
-0.154221 -0.927569 0.0
-0.148927 -0.945352 0.0
-0.138451 -0.964323 0.0
-0.123232 -0.982846 0.0
-0.104014 -0.999191 0.0
-0.081888 -1.011571 0.0
-0.058344 -1.018075 0.0
-0.035329 -1.016384 0.0
-0.015269 -1.002908 0.0
-0.001580 -0.969979 0.0
0.001576 -0.865631 0.0
0.013486 -1.149139 0.0
0.033398 -1.212926 0.0
0.038032 -1.199082 0.0
0.028154 -1.157470 0.0
0.007749 -1.105316 0.0
-0.019280 -1.051599 0.0
-0.049334 -1.001607 0.0
-0.079510 -0.958625 0.0
-0.107990 -0.924759 0.0
-0.133604 -0.900709 0.0
-0.155526 -0.886491 0.0
-0.173154 -0.881478 0.0
-0.186020 -0.884745 0.0
-0.193777 -0.895129 0.0
-0.196208 -0.911289 0.0
-0.193233 -0.931723 0.0
-0.184925 -0.954801 0.0
-0.171518 -0.978758 0.0
-0.153438 -1.001710 0.0
-0.131342 -1.021641 0.0
-0.106183 -1.036407 0.0
-0.079304 -1.043662 0.0
-0.052535 -1.040582 0.0
-0.028326 -1.022979 0.0
-0.010194 -0.981730 0.0
-0.001588 -0.865644 0.0
0.008328 -1.170953 0.0
0.017841 -1.220538 0.0
0.012366 -1.190629 0.0
-0.006599 -1.137080 0.0
-0.034240 -1.077661 0.0
-0.065807 -1.020659 0.0
-0.097958 -0.970342 0.0
-0.128681 -0.928991 0.0
-0.156644 -0.897950 0.0
-0.180962 -0.877585 0.0
-0.201026 -0.867629 0.0
-0.216422 -0.867316 0.0
-0.226872 -0.875593 0.0
-0.232218 -0.891178 0.0
-0.232409 -0.912618 0.0
-0.227471 -0.938307 0.0
-0.217492 -0.966505 0.0
-0.202629 -0.995324 0.0
-0.183145 -1.022707 0.0
-0.159487 -1.046398 0.0
-0.132381 -1.063914 0.0
-0.102959 -1.072456 0.0
-0.072890 -1.068625 0.0
-0.044573 -1.047461 0.0
-0.021572 -0.998379 0.0
-0.005970 -0.873202 0.0
0.002811 -1.182092 0.0
0.001090 -1.217191 0.0
-0.015005 -1.172405 0.0
-0.042039 -1.109304 0.0
-0.074405 -1.045428 0.0
-0.108121 -0.987609 0.0
-0.140783 -0.938580 0.0
-0.170885 -0.899929 0.0
-0.197446 -0.872487 0.0
-0.219857 -0.856321 0.0
-0.237757 -0.850929 0.0
-0.250971 -0.855405 0.0
-0.259452 -0.868573 0.0
-0.263233 -0.889071 0.0
-0.262365 -0.915403 0.0
-0.256867 -0.945958 0.0
-0.246707 -0.978992 0.0
-0.231835 -1.012571 0.0
-0.212270 -1.044510 0.0
-0.188202 -1.072323 0.0
-0.160117 -1.093179 0.0
-0.128926 -1.103804 0.0
-0.096094 -1.100177 0.0
-0.063836 -1.076484 0.0
-0.035324 -1.020869 0.0
-0.011233 -0.890405 0.0
-0.002821 -1.182083 0.0
-0.015798 -1.202501 0.0
-0.041086 -1.145712 0.0
-0.073489 -1.076561 0.0
-0.108330 -1.010963 0.0
-0.142670 -0.954019 0.0
-0.174726 -0.907451 0.0
-0.203400 -0.872283 0.0
-0.228041 -0.848930 0.0
-0.248332 -0.837176 0.0
-0.264199 -0.836307 0.0
-0.275734 -0.845279 0.0
-0.283106 -0.862847 0.0
-0.286461 -0.887661 0.0
-0.285836 -0.918306 0.0
-0.281109 -0.953280 0.0
-0.272026 -0.990914 0.0
-0.258285 -1.029262 0.0
-0.239657 -1.066012 0.0
-0.216108 -1.098437 0.0
-0.187910 -1.123348 0.0
-0.155738 -1.136999 0.0
-0.120788 -1.134764 0.0
-0.084892 -1.110051 0.0
-0.050390 -1.050316 0.0
-0.016901 -0.918539 0.0
-0.008251 -1.171011 0.0
-0.030928 -1.177918 0.0
-0.062602 -1.113333 0.0
-0.097902 -1.041237 0.0
-0.133504 -0.975844 0.0
-0.167277 -0.921027 0.0
-0.197905 -0.877758 0.0
-0.224638 -0.846568 0.0
-0.247148 -0.827494 0.0
-0.265432 -0.820038 0.0
-0.279710 -0.823300 0.0
-0.290310 -0.836150 0.0
-0.297533 -0.857380 0.0
-0.301520 -0.885785 0.0
-0.302171 -0.920156 0.0
-0.299145 -0.959182 0.0
-0.291949 -1.001291 0.0
-0.280063 -1.044511 0.0
-0.263077 -1.086377 0.0
-0.240787 -1.123910 0.0
-0.213272 -1.153589 0.0
-0.180948 -1.171254 0.0
-0.144640 -1.171766 0.0
-0.105600 -1.147985 0.0
-0.065156 -1.087328 0.0
-0.022367 -0.957806 0.0
-0.012835 -1.149925 0.0
-0.042664 -1.146498 0.0
-0.077774 -1.077971 0.0
-0.113858 -1.005215 0.0
-0.148761 -0.941361 0.0
-0.180978 -0.889521 0.0
-0.209550 -0.850064 0.0
-0.234033 -0.823046 0.0
-0.254407 -0.808132 0.0
-0.270965 -0.804559 0.0
-0.284176 -0.811291 0.0
-0.294518 -0.827216 0.0
-0.302310 -0.851299 0.0
-0.307579 -0.882610 0.0
-0.310028 -0.920231 0.0
-0.309105 -0.963056 0.0
-0.304135 -1.009584 0.0
-0.294467 -1.057772 0.0
-0.279585 -1.104984 0.0
-0.259168 -1.148010 0.0
-0.233107 -1.183066 0.0
-0.201518 -1.205691 0.0
-0.164759 -1.210397 0.0
-0.123393 -1.189761 0.0
-0.077818 -1.131570 0.0
-0.026999 -1.007172 0.0
-0.016073 -1.121017 0.0
-0.050206 -1.111443 0.0
-0.086155 -1.041968 0.0
-0.121138 -0.970150 0.0
-0.154010 -0.908651 0.0
-0.183783 -0.860241 0.0
-0.209778 -0.824778 0.0
-0.231797 -0.801830 0.0
-0.250077 -0.790693 0.0
-0.265144 -0.790373 0.0
-0.277626 -0.799784 0.0
-0.288045 -0.817961 0.0
-0.296642 -0.844166 0.0
-0.303288 -0.877829 0.0
-0.307512 -0.918339 0.0
-0.308621 -0.964762 0.0
-0.305854 -1.015615 0.0
-0.298517 -1.068747 0.0
-0.286054 -1.121354 0.0
-0.268062 -1.170050 0.0
-0.244245 -1.210903 0.0
-0.214380 -1.239309 0.0
-0.178305 -1.249613 0.0
-0.135893 -1.234322 0.0
-0.086816 -1.181662 0.0
-0.030272 -1.064443 0.0
-0.017848 -1.087097 0.0
-0.053595 -1.075483 0.0
-0.088197 -1.007377 0.0
-0.120379 -0.937576 0.0
-0.149941 -0.878790 0.0
-0.176404 -0.833867 0.0
-0.199307 -0.802255 0.0
-0.218614 -0.783026 0.0
-0.234724 -0.775105 0.0
-0.248296 -0.777322 0.0
-0.260010 -0.788639 0.0
-0.270352 -0.808346 0.0
-0.279453 -0.836083 0.0
-0.287060 -0.871660 0.0
-0.292605 -0.914739 0.0
-0.295354 -0.964504 0.0
-0.294550 -1.019443 0.0
-0.289525 -1.077282 0.0
-0.279733 -1.135073 0.0
-0.264713 -1.189343 0.0
-0.243994 -1.236146 0.0
-0.217001 -1.270923 0.0
-0.183048 -1.288027 0.0
-0.141375 -1.279992 0.0
-0.091120 -1.235324 0.0
-0.031864 -1.126580 0.0
-0.018330 -1.050918 0.0
-0.053436 -1.040809 0.0
-0.084926 -0.975959 0.0
-0.112791 -0.908948 0.0
-0.137785 -0.852862 0.0
-0.160014 -0.811104 0.0
-0.179219 -0.782910 0.0
-0.195417 -0.766867 0.0
-0.209040 -0.761531 0.0
-0.220761 -0.765603 0.0
-0.231236 -0.778168 0.0
-0.240880 -0.798831 0.0
-0.249749 -0.827627 0.0
-0.257540 -0.864717 0.0
-0.263691 -0.909984 0.0
-0.267521 -0.962681 0.0
-0.268349 -1.021241 0.0
-0.265579 -1.083278 0.0
-0.258708 -1.145740 0.0
-0.247244 -1.205161 0.0
-0.230563 -1.257729 0.0
-0.207767 -1.299128 0.0
-0.177666 -1.323877 0.0
-0.138936 -1.324545 0.0
-0.090285 -1.289677 0.0
-0.031662 -1.190106 0.0
-0.017825 -1.014762 0.0
-0.050619 -1.009065 0.0
-0.077694 -0.949137 0.0
-0.099980 -0.885620 0.0
-0.119167 -0.832008 0.0
-0.136123 -0.792772 0.0
-0.150849 -0.767310 0.0
-0.163312 -0.753806 0.0
-0.173839 -0.750442 0.0
-0.183015 -0.755795 0.0
-0.191420 -0.769096 0.0
-0.199416 -0.790263 0.0
-0.207048 -0.819694 0.0
-0.214066 -0.857843 0.0
-0.220008 -0.904764 0.0
-0.224321 -0.959758 0.0
-0.226452 -1.021205 0.0
-0.225904 -1.086633 0.0
-0.222236 -1.152924 0.0
-0.214950 -1.216728 0.0
-0.203308 -1.274485 0.0
-0.186140 -1.322336 0.0
-0.161797 -1.355114 0.0
-0.128434 -1.365401 0.0
-0.084353 -1.341552 0.0
-0.029720 -1.251487 0.0
-0.016669 -0.980268 0.0
-0.046101 -0.981334 0.0
-0.067996 -0.927898 0.0
-0.083815 -0.868753 0.0
-0.096068 -0.817434 0.0
-0.106586 -0.779873 0.0
-0.115823 -0.756246 0.0
-0.123670 -0.744561 0.0
-0.130230 -0.742600 0.0
-0.135917 -0.748773 0.0
-0.141216 -0.762414 0.0
-0.146468 -0.783698 0.0
-0.151784 -0.813312 0.0
-0.157048 -0.851943 0.0
-0.161983 -0.899786 0.0
-0.166226 -0.956181 0.0
-0.169387 -1.019489 0.0
-0.171082 -1.087202 0.0
-0.170937 -1.156168 0.0
-0.168450 -1.223258 0.0
-0.162811 -1.285236 0.0
-0.152659 -1.338905 0.0
-0.135950 -1.379596 0.0
-0.110349 -1.399884 0.0
-0.073719 -1.387780 0.0
-0.026203 -1.307409 0.0
-0.015163 -0.948436 0.0
-0.040754 -0.958142 0.0
-0.057263 -0.912687 0.0
-0.066279 -0.859127 0.0
-0.070794 -0.810292 0.0
-0.073706 -0.773586 0.0
-0.076238 -0.750764 0.0
-0.078333 -0.740100 0.0
-0.079851 -0.738984 0.0
-0.080989 -0.745565 0.0
-0.082118 -0.759195 0.0
-0.083576 -0.780206 0.0
-0.085585 -0.809480 0.0
-0.088226 -0.847871 0.0
-0.091465 -0.895684 0.0
-0.095181 -0.952324 0.0
-0.099176 -1.016189 0.0
-0.103179 -1.084805 0.0
-0.106868 -1.155021 0.0
-0.109718 -1.224042 0.0
-0.110871 -1.288937 0.0
-0.108872 -1.347355 0.0
-0.101396 -1.395330 0.0
-0.085658 -1.425488 0.0
-0.059035 -1.425430 0.0
-0.021350 -1.354961 0.0
-0.013532 -0.919741 0.0
-0.035231 -0.939547 0.0
-0.046643 -0.903362 0.0
-0.049186 -0.856892 0.0
-0.045814 -0.811384 0.0
-0.040279 -0.775116 0.0
-0.034843 -0.752139 0.0
-0.029855 -0.741618 0.0
-0.025111 -0.740692 0.0
-0.020631 -0.747199 0.0
-0.016652 -0.760411 0.0
-0.013483 -0.780699 0.0
-0.011444 -0.809018 0.0
-0.010827 -0.846309 0.0
-0.011873 -0.892961 0.0
-0.014736 -0.948468 0.0
-0.019425 -1.011361 0.0
-0.025785 -1.079270 0.0
-0.033514 -1.149137 0.0
-0.042025 -1.218564 0.0
-0.050422 -1.284865 0.0
-0.057247 -1.346601 0.0
-0.060066 -1.400742 0.0
-0.055743 -1.440137 0.0
-0.041142 -1.452006 0.0
-0.015451 -1.391761 0.0
-0.011901 -0.894309 0.0
-0.029883 -0.925299 0.0
-0.036779 -0.899302 0.0
-0.033771 -0.861417 0.0
-0.023275 -0.820728 0.0
-0.009262 -0.785320 0.0
0.005063 -0.761696 0.0
0.018467 -0.750451 0.0
0.030720 -0.748855 0.0
0.041789 -0.754585 0.0
0.051579 -0.766794 0.0
0.059863 -0.785767 0.0
0.066281 -0.812407 0.0
0.070389 -0.847644 0.0
0.071722 -0.891912 0.0
0.069885 -0.944816 0.0
0.064632 -1.005072 0.0
0.055983 -1.070550 0.0
0.044301 -1.138445 0.0
0.030209 -1.206653 0.0
0.014635 -1.272805 0.0
-0.001026 -1.336174 0.0
-0.014442 -1.394934 0.0
-0.022305 -1.442405 0.0
-0.021030 -1.465614 0.0
-0.008831 -1.416043 0.0
-0.010291 -0.872117 0.0
-0.024741 -0.915058 0.0
-0.027708 -0.899680 0.0
-0.020323 -0.871432 0.0
-0.004251 -0.837281 0.0
0.017194 -0.804225 0.0
0.040436 -0.780360 0.0
0.062969 -0.767725 0.0
0.083578 -0.764444 0.0
0.101944 -0.768431 0.0
0.117986 -0.778782 0.0
0.131550 -0.795627 0.0
0.142295 -0.819711 0.0
0.149709 -0.851863 0.0
0.153198 -0.892515 0.0
0.152218 -0.941396 0.0
0.146407 -0.997429 0.0
0.135705 -1.058843 0.0
0.120486 -1.123252 0.0
0.101416 -1.188685 0.0
0.079456 -1.253239 0.0
0.055897 -1.316521 0.0
0.032611 -1.377885 0.0
0.012737 -1.431717 0.0
0.000248 -1.465087 0.0
-0.001822 -1.426697 0.0
-0.008633 -0.853193 0.0
-0.019577 -0.908588 0.0
-0.018976 -0.903786 0.0
-0.008224 -0.885463 0.0
0.011656 -0.859201 0.0
0.038583 -0.830677 0.0
0.069235 -0.807802 0.0
0.100131 -0.793711 0.0
0.129020 -0.787955 0.0
0.154894 -0.789159 0.0
0.177371 -0.796575 0.0
0.196213 -0.810239 0.0
0.211083 -0.830714 0.0
0.221482 -0.858674 0.0
0.226806 -0.894518 0.0
0.226482 -0.938089 0.0
0.220115 -0.988559 0.0
0.207621 -1.044516 0.0
0.189333 -1.104071 0.0
0.165960 -1.165422 0.0
0.138518 -1.227100 0.0
0.108286 -1.288870 0.0
0.076901 -1.350864 0.0
0.046864 -1.408827 0.0
0.021600 -1.450226 0.0
0.005316 -1.423204 0.0
-0.006791 -0.837769 0.0
-0.014009 -0.905849 0.0
-0.009904 -0.911231 0.0
0.003660 -0.902334 0.0
0.025980 -0.884529 0.0
0.056061 -0.862357 0.0
0.091367 -0.842080 0.0
0.128344 -0.827305 0.0
0.164028 -0.818935 0.0
0.196588 -0.816613 0.0
0.225044 -0.820055 0.0
0.248839 -0.829395 0.0
0.267521 -0.845110 0.0
0.280601 -0.867756 0.0
0.287531 -0.897691 0.0
0.287794 -0.934854 0.0
0.281029 -0.978663 0.0
0.267161 -1.028050 0.0
0.246491 -1.081579 0.0
0.219714 -1.137764 0.0
0.187875 -1.195479 0.0
0.152294 -1.254678 0.0
0.114532 -1.315909 0.0
0.076612 -1.375824 0.0
0.041145 -1.422498 0.0
0.012193 -1.405696 0.0
-0.004582 -0.826396 0.0
-0.007598 -0.906988 0.0
0.000176 -0.921972 0.0
0.016478 -0.921458 0.0
0.040510 -0.911757 0.0
0.071889 -0.896590 0.0
0.108993 -0.880258 0.0
0.148907 -0.866018 0.0
0.188586 -0.855586 0.0
0.225658 -0.849593 0.0
0.258543 -0.848416 0.0
0.286230 -0.852516 0.0
0.308019 -0.862461 0.0
0.323339 -0.878803 0.0
0.331668 -0.901902 0.0
0.332554 -0.931791 0.0
0.325690 -0.968099 0.0
0.311019 -1.010074 0.0
0.288816 -1.056680 0.0
0.259740 -1.106809 0.0
0.224836 -1.159691 0.0
0.185477 -1.215525 0.0
0.143240 -1.275062 0.0
0.099808 -1.335319 0.0
0.057042 -1.384770 0.0
0.018037 -1.375466 0.0
-0.001811 -0.820002 0.0
0.000060 -0.912237 0.0
0.011678 -0.936117 0.0
0.030842 -0.942779 0.0
0.056479 -0.940105 0.0
0.088283 -0.931426 0.0
0.125246 -0.919487 0.0
0.165262 -0.906718 0.0
0.205720 -0.895023 0.0
0.244213 -0.885720 0.0
0.278878 -0.879837 0.0
0.308382 -0.878285 0.0
0.331782 -0.881881 0.0
0.348371 -0.891292 0.0
0.357583 -0.906956 0.0
0.358975 -0.929014 0.0
0.352252 -0.957289 0.0
0.337347 -0.991308 0.0
0.314495 -1.030392 0.0
0.284311 -1.073838 0.0
0.247833 -1.121281 0.0
0.206496 -1.173239 0.0
0.161902 -1.230516 0.0
0.115449 -1.289980 0.0
0.068283 -1.340177 0.0
0.022329 -1.335100 0.0
0.001662 -0.819853 0.0
0.009118 -0.921713 0.0
0.024580 -0.953721 0.0
0.046726 -0.966485 0.0
0.074172 -0.969481 0.0
0.106356 -0.966038 0.0
0.142440 -0.957921 0.0
0.180861 -0.946721 0.0
0.219558 -0.934176 0.0
0.256466 -0.921969 0.0
0.289852 -0.911638 0.0
0.318390 -0.904527 0.0
0.341098 -0.901747 0.0
0.357225 -0.904142 0.0
0.366173 -0.912267 0.0
0.367465 -0.926386 0.0
0.360764 -0.946495 0.0
0.345939 -0.972372 0.0
0.323151 -1.003687 0.0
0.292960 -1.040167 0.0
0.256411 -1.081925 0.0
0.215000 -1.129848 0.0
0.170311 -1.184625 0.0
0.123384 -1.242492 0.0
0.074645 -1.291760 0.0
0.024927 -1.287844 0.0
0.005597 -0.827112 0.0
0.019167 -0.935480 0.0
0.038526 -0.974775 0.0
0.063658 -0.992709 0.0
0.093052 -1.000097 0.0
0.125872 -1.000424 0.0
0.161122 -0.994869 0.0
0.197365 -0.984437 0.0
0.232902 -0.970694 0.0
0.266102 -0.955560 0.0
0.295631 -0.940962 0.0
0.320487 -0.928599 0.0
0.339931 -0.919828 0.0
0.353383 -0.915639 0.0
0.360338 -0.916673 0.0
0.360342 -0.923276 0.0
0.353015 -0.935578 0.0
0.338134 -0.953583 0.0
0.315763 -0.977317 0.0
0.286418 -1.007000 0.0
0.251179 -1.043302 0.0
0.211587 -1.087468 0.0
0.169073 -1.139802 0.0
0.124142 -1.195457 0.0
0.076459 -1.242374 0.0
0.025932 -1.236985 0.0
0.009506 -0.842215 0.0
0.029430 -0.953871 0.0
0.052877 -0.999191 0.0
0.080835 -1.021383 0.0
0.112126 -1.032108 0.0
0.145737 -1.034844 0.0
0.180354 -1.030316 0.0
0.214359 -1.019238 0.0
0.246164 -1.003236 0.0
0.274496 -0.984551 0.0
0.298492 -0.965495 0.0
0.317645 -0.948075 0.0
0.331672 -0.933823 0.0
0.340363 -0.923787 0.0
0.343481 -0.918599 0.0
0.340721 -0.918593 0.0
0.331737 -0.923950 0.0
0.316256 -0.934849 0.0
0.294288 -0.951711 0.0
0.266370 -0.975343 0.0
0.233671 -1.007021 0.0
0.197712 -1.048198 0.0
0.159516 -1.098362 0.0
0.118787 -1.151236 0.0
0.074413 -1.194538 0.0
0.025586 -1.185466 0.0
0.013067 -0.864788 0.0
0.039116 -0.977271 0.0
0.066696 -1.026817 0.0
0.097286 -1.052305 0.0
0.130288 -1.065479 0.0
0.164612 -1.069409 0.0
0.198558 -1.064314 0.0
0.230194 -1.050881 0.0
0.257915 -1.031120 0.0
0.280727 -1.007810 0.0
0.298234 -0.983738 0.0
0.310468 -0.961220 0.0
0.317678 -0.941914 0.0
0.320131 -0.926840 0.0
0.317975 -0.916509 0.0
0.311169 -0.911117 0.0
0.299511 -0.910783 0.0
0.282780 -0.915804 0.0
0.261057 -0.927066 0.0
0.235062 -0.946076 0.0
0.206118 -0.974646 0.0
0.175535 -1.014032 0.0
0.143534 -1.062332 0.0
0.108750 -1.111754 0.0
0.069394 -1.150290 0.0
0.024193 -1.135687 0.0
0.016073 -0.893928 0.0
0.047554 -1.005661 0.0
0.079023 -1.057476 0.0
0.112019 -1.085232 0.0
0.146483 -1.100018 0.0
0.181232 -1.103943 0.0
0.214126 -1.096620 0.0
0.242903 -1.078987 0.0
0.265966 -1.053798 0.0
0.282634 -1.024612 0.0
0.292993 -0.994803 0.0
0.297618 -0.967015 0.0
0.297285 -0.942996 0.0
0.292741 -0.923667 0.0
0.284540 -0.909324 0.0
0.272957 -0.899913 0.0
0.258018 -0.895389 0.0
0.239675 -0.896124 0.0
0.218292 -0.903640 0.0
0.194993 -0.920208 0.0
0.171236 -0.947811 0.0
0.147710 -0.986758 0.0
0.123339 -1.033233 0.0
0.095605 -1.078336 0.0
0.062337 -1.111082 0.0
0.022068 -1.089425 0.0
0.018413 -0.928414 0.0
0.054285 -1.038528 0.0
0.089077 -1.090871 0.0
0.124137 -1.119893 0.0
0.159731 -1.135415 0.0
0.194424 -1.137987 0.0
0.225554 -1.126600 0.0
0.250587 -1.102817 0.0
0.268071 -1.070515 0.0
0.277763 -1.034255 0.0
0.280314 -0.998070 0.0
0.276860 -0.964918 0.0
0.268679 -0.936579 0.0
0.256950 -0.913810 0.0
0.242585 -0.896616 0.0
0.226166 -0.884620 0.0
0.207988 -0.877565 0.0
0.188314 -0.875933 0.0
0.168047 -0.882180 0.0
0.148891 -0.899213 0.0
0.132121 -0.928279 0.0
0.117114 -0.967757 0.0
0.101129 -1.011877 0.0
0.080802 -1.051632 0.0
0.054072 -1.077787 0.0
0.019488 -1.047869 0.0
0.020045 -0.966872 0.0
0.059056 -1.074953 0.0
0.096309 -1.126490 0.0
0.132892 -1.155917 0.0
0.169109 -1.171203 0.0
0.203015 -1.170797 0.0
0.231339 -1.153244 0.0
0.251393 -1.121260 0.0
0.262077 -1.080240 0.0
0.263768 -1.035914 0.0
0.257789 -0.992983 0.0
0.245878 -0.954639 0.0
0.229798 -0.922597 0.0
0.211098 -0.897362 0.0
0.190990 -0.878592 0.0
0.170329 -0.865564 0.0
0.149737 -0.857850 0.0
0.129954 -0.856191 0.0
0.112656 -0.864356 0.0
0.099962 -0.885188 0.0
0.092119 -0.917692 0.0
0.086435 -0.957653 0.0
0.078679 -0.998240 0.0
0.065420 -1.031683 0.0
0.045207 -1.050792 0.0
0.016654 -1.011727 0.0
0.020958 -1.007875 0.0
0.061739 -1.113741 0.0
0.100352 -1.163569 0.0
0.137660 -1.192730 0.0
0.173707 -1.206655 0.0
0.205744 -1.201287 0.0
0.229857 -1.175192 0.0
0.243402 -1.132912 0.0
0.245877 -1.081748 0.0
0.238470 -1.028690 0.0
0.223278 -0.979035 0.0
0.202674 -0.936071 0.0
0.178887 -0.901299 0.0
0.153795 -0.874867 0.0
0.128869 -0.856053 0.0
0.105260 -0.843834 0.0
0.084039 -0.837767 0.0
0.066635 -0.839087 0.0
0.055435 -0.852961 0.0
0.052024 -0.880478 0.0
0.054365 -0.916899 0.0
0.057582 -0.955979 0.0
0.056990 -0.991567 0.0
0.050033 -1.018141 0.0
0.036075 -1.030163 0.0
0.013673 -0.981400 0.0
0.021138 -1.049971 0.0
0.062230 -1.153518 0.0
0.100914 -1.201090 0.0
0.137865 -1.229467 0.0
0.172567 -1.240667 0.0
0.201221 -1.227965 0.0
0.219339 -1.190745 0.0
0.224604 -1.136168 0.0
0.217396 -1.073759 0.0
0.199879 -1.011755 0.0
0.174995 -0.955894 0.0
0.145754 -0.909367 0.0
0.114835 -0.873297 0.0
0.084419 -0.847360 0.0
0.056276 -0.830491 0.0
0.031965 -0.821477 0.0
0.013190 -0.820128 0.0
0.002132 -0.828264 0.0
0.000944 -0.851397 0.0
0.008823 -0.886511 0.0
0.020812 -0.925196 0.0
0.031157 -0.961243 0.0
0.036202 -0.990756 0.0
0.034759 -1.010552 0.0
0.026766 -1.015800 0.0
0.010567 -0.957161 0.0
0.020550 -1.091659 0.0
0.060405 -1.192777 0.0
0.097695 -1.237806 0.0
0.132900 -1.264907 0.0
0.164644 -1.271673 0.0
0.187931 -1.248901 0.0
0.197919 -1.197916 0.0
0.192989 -1.129333 0.0
0.174695 -1.055093 0.0
0.146314 -0.984523 0.0
0.111656 -0.923583 0.0
0.074354 -0.875135 0.0
0.037531 -0.839786 0.0
0.003721 -0.816645 0.0
-0.024901 -0.804442 0.0
-0.046159 -0.801956 0.0
-0.057806 -0.809227 0.0
-0.057837 -0.828076 0.0
-0.046346 -0.861888 0.0
-0.027780 -0.902465 0.0
-0.008664 -0.940348 0.0
0.006493 -0.971592 0.0
0.015903 -0.994863 0.0
0.019473 -1.008572 0.0
0.017215 -1.007530 0.0
0.007289 -0.939305 0.0
0.019152 -1.131361 0.0
0.056114 -1.229891 0.0
0.090371 -1.272239 0.0
0.122114 -1.297422 0.0
0.148818 -1.297605 0.0
0.164307 -1.261746 0.0
0.163760 -1.194511 0.0
0.146713 -1.110760 0.0
0.116188 -1.024847 0.0
0.076652 -0.946851 0.0
0.032789 -0.882735 0.0
-0.011141 -0.834752 0.0
-0.051393 -0.803094 0.0
-0.084808 -0.786113 0.0
-0.109004 -0.782156 0.0
-0.121914 -0.790072 0.0
-0.121769 -0.809609 0.0
-0.108334 -0.841097 0.0
-0.085168 -0.883524 0.0
-0.059120 -0.925443 0.0
-0.035825 -0.959781 0.0
-0.017503 -0.985638 0.0
-0.004337 -1.003395 0.0
0.004047 -1.011994 0.0
0.007304 -1.005107 0.0
0.003760 -0.928257 0.0
0.016900 -1.167412 0.0
0.049220 -1.263122 0.0
0.078634 -1.302679 0.0
0.104862 -1.324953 0.0
0.123998 -1.315914 0.0
0.128893 -1.263821 0.0
0.115287 -1.178284 0.0
0.084379 -1.079031 0.0
0.040960 -0.982632 0.0
-0.009290 -0.899280 0.0
-0.060379 -0.835353 0.0
-0.106737 -0.791845 0.0
-0.144861 -0.767624 0.0
-0.172497 -0.760533 0.0
-0.187470 -0.768567 0.0
-0.188085 -0.790137 0.0
-0.174243 -0.823531 0.0
-0.148750 -0.866103 0.0
-0.117836 -0.912600 0.0
-0.088053 -0.952199 0.0
-0.062515 -0.981857 0.0
-0.041527 -1.002871 0.0
-0.024618 -1.016236 0.0
-0.011521 -1.020634 0.0
-0.003039 -1.008207 0.0
-0.000077 -0.924575 0.0
0.013781 -1.198093 0.0
0.039657 -1.290638 0.0
0.062274 -1.327194 0.0
0.080636 -1.345028 0.0
0.089313 -1.323652 0.0
0.080603 -1.252269 0.0
0.051530 -1.147157 0.0
0.005474 -1.033194 0.0
-0.050361 -0.929217 0.0
-0.107300 -0.845507 0.0
-0.158835 -0.786502 0.0
-0.201621 -0.751553 0.0
-0.233122 -0.738290 0.0
-0.250993 -0.744360 0.0
-0.253552 -0.767207 0.0
-0.240798 -0.803635 0.0
-0.215328 -0.849346 0.0
-0.182324 -0.898785 0.0
-0.148127 -0.945028 0.0
-0.116924 -0.980757 0.0
-0.089565 -1.006194 0.0
-0.065642 -1.023446 0.0
-0.044790 -1.033423 0.0
-0.027089 -1.034244 0.0
-0.013654 -1.016513 0.0
-0.004116 -0.928768 0.0
0.009825 -1.221699 0.0
0.027491 -1.310574 0.0
0.041294 -1.343679 0.0