# vtk DataFile Version 3.0
Vector Field
ASCII
DATASET RECTILINEAR_GRID
DIMENSIONS 26 100 1
X_COORDINATES 26 double
0.050000 0.150000 0.250000 0.350000 0.450000 0.550000 0.650000 0.750000 0.850000 0.950000 1.050000 1.150000 1.250000 1.350000 1.450000 1.550000 1.650000 1.750000 1.850000 1.950000 2.050000 2.150000 2.250000 2.350000 2.450000 2.550000 
Y_COORDINATES 100 double
0.050000 0.150000 0.250000 0.350000 0.450000 0.550000 0.650000 0.750000 0.850000 0.950000 1.050000 1.150000 1.250000 1.350000 1.450000 1.550000 1.650000 1.750000 1.850000 1.950000 2.050000 2.150000 2.250000 2.350000 2.450000 2.550000 2.650000 2.750000 2.850000 2.950000 3.050000 3.150000 3.250000 3.350000 3.450000 3.550000 3.650000 3.750000 3.850000 3.950000 4.050000 4.150000 4.250000 4.350000 4.450000 4.550000 4.650000 4.750000 4.850000 4.950000 5.050000 5.150000 5.250000 5.350000 5.450000 5.550000 5.650000 5.750000 5.850000 5.950000 6.050000 6.150000 6.250000 6.350000 6.450000 6.550000 6.650000 6.750000 6.850000 6.950000 7.050000 7.150000 7.250000 7.350000 7.450000 7.550000 7.650000 7.750000 7.850000 7.950000 8.050000 8.150000 8.250000 8.350000 8.450000 8.550000 8.650000 8.750000 8.850000 8.950000 9.050000 9.150000 9.250000 9.350000 9.450000 9.550000 9.650000 9.750000 9.850000 9.950000 
Z_COORDINATES 1 double
0.0
POINT_DATA 2600
VECTORS Vektorfeld double
-0.000496 -0.885435 0.0
-0.001389 -0.985572 0.0
-0.002173 -0.988463 0.0
-0.002934 -0.989108 0.0
-0.003666 -0.990060 0.0
-0.004356 -0.991333 0.0
-0.004993 -0.992904 0.0
-0.005566 -0.994751 0.0
-0.006064 -0.996852 0.0
-0.006475 -0.999179 0.0
-0.006787 -1.001702 0.0
-0.006992 -1.004383 0.0
-0.007079 -1.007180 0.0
-0.007043 -1.010040 0.0
-0.006878 -1.012902 0.0
-0.006587 -1.015698 0.0
-0.006175 -1.018362 0.0
-0.005652 -1.020837 0.0
-0.005030 -1.023079 0.0
-0.004324 -1.025048 0.0
-0.003549 -1.026712 0.0
-0.002722 -1.028036 0.0
-0.001864 -1.028947 0.0
-0.001011 -1.028953 0.0
-0.000293 -1.022007 0.0
0.000004 -0.912457 0.0
-0.000360 -0.884579 0.0
-0.001361 -0.984534 0.0
-0.002606 -0.987473 0.0
-0.003773 -0.988169 0.0
-0.004868 -0.989172 0.0
-0.005894 -0.990505 0.0
-0.006843 -0.992146 0.0
-0.007703 -0.994076 0.0
-0.008462 -0.996272 0.0
-0.009102 -0.998709 0.0
-0.009606 -1.001355 0.0
-0.009957 -1.004174 0.0
-0.010137 -1.007121 0.0
-0.010131 -1.010141 0.0
-0.009930 -1.013166 0.0
-0.009535 -1.016120 0.0
-0.008956 -1.018932 0.0
-0.008208 -1.021538 0.0
-0.007314 -1.023894 0.0
-0.006295 -1.025958 0.0
-0.005173 -1.027699 0.0
-0.003968 -1.029082 0.0
-0.002701 -1.030027 0.0
-0.001431 -1.029996 0.0
-0.000474 -1.022639 0.0
-0.000071 -0.912525 0.0
-0.000368 -0.883851 0.0
-0.001538 -0.983091 0.0
-0.003119 -0.986090 0.0
-0.004636 -0.986867 0.0
-0.006068 -0.987947 0.0
-0.007414 -0.989359 0.0
-0.008667 -0.991090 0.0
-0.009811 -0.993126 0.0
-0.010829 -0.995445 0.0
-0.011699 -0.998025 0.0
-0.012397 -1.000836 0.0
-0.012896 -1.003843 0.0
-0.013170 -1.006999 0.0
-0.013195 -1.010244 0.0
-0.012959 -1.013500 0.0
-0.012460 -1.016680 0.0
-0.011712 -1.019699 0.0
-0.010740 -1.022490 0.0
-0.009574 -1.025002 0.0
-0.008244 -1.027197 0.0
-0.006781 -1.029044 0.0
-0.005215 -1.030508 0.0
-0.003585 -1.031498 0.0
-0.001992 -1.031388 0.0
-0.000816 -1.023379 0.0
-0.000204 -0.912800 0.0
-0.000440 -0.883042 0.0
-0.001833 -0.981339 0.0
-0.003731 -0.984363 0.0
-0.005586 -0.985223 0.0
-0.007356 -0.986388 0.0
-0.009034 -0.987893 0.0
-0.010605 -0.989732 0.0
-0.012052 -0.991893 0.0
-0.013350 -0.994361 0.0
-0.014473 -0.997117 0.0
-0.015385 -1.000134 0.0
-0.016052 -1.003380 0.0
-0.016434 -1.006807 0.0
-0.016498 -1.010346 0.0
-0.016224 -1.013907 0.0
-0.015612 -1.017384 0.0
-0.014680 -1.020675 0.0
-0.013462 -1.023704 0.0
-0.011999 -1.026418 0.0
-0.010332 -1.028778 0.0
-0.008502 -1.030756 0.0
-0.006552 -1.032313 0.0
-0.004537 -1.033336 0.0
-0.002591 -1.033088 0.0
-0.001136 -1.024310 0.0
-0.000306 -0.913311 0.0
-0.000544 -0.882058 0.0
-0.002199 -0.979277 0.0
-0.004425 -0.982299 0.0
-0.006621 -0.983236 0.0
-0.008737 -0.984488 0.0
-0.010759 -0.986094 0.0
-0.012667 -0.988052 0.0
-0.014439 -0.990355 0.0
-0.016044 -0.992995 0.0
-0.017447 -0.995957 0.0
-0.018603 -0.999224 0.0
-0.019462 -1.002765 0.0
-0.019971 -1.006532 0.0
-0.020083 -1.010445 0.0
-0.019773 -1.014393 0.0
-0.019037 -1.018246 0.0
-0.017901 -1.021881 0.0
-0.016411 -1.025207 0.0
-0.014619 -1.028170 0.0
-0.012582 -1.030731 0.0
-0.010352 -1.032864 0.0
-0.007984 -1.034524 0.0
-0.005553 -1.035570 0.0
-0.003222 -1.035132 0.0
-0.001460 -1.025484 0.0
-0.000405 -0.914022 0.0
-0.000669 -0.880845 0.0
-0.002616 -0.976888 0.0
-0.005186 -0.979892 0.0
-0.007737 -0.980897 0.0
-0.010213 -0.982234 0.0
-0.012597 -0.983943 0.0
-0.014865 -0.986026 0.0
-0.016990 -0.988484 0.0
-0.018935 -0.991315 0.0
-0.020655 -0.994515 0.0
-0.022090 -0.998075 0.0
-0.023173 -1.001972 0.0
-0.023833 -1.006156 0.0
-0.024008 -1.010533 0.0
-0.023660 -1.014963 0.0
-0.022789 -1.019283 0.0
-0.021426 -1.023342 0.0
-0.019630 -1.027032 0.0
-0.017472 -1.030294 0.0
-0.015023 -1.033093 0.0
-0.012350 -1.035404 0.0
-0.009524 -1.037178 0.0
-0.006637 -1.038233 0.0
-0.003887 -1.037551 0.0
-0.001794 -1.026920 0.0
-0.000504 -0.914930 0.0
-0.000808 -0.879368 0.0
-0.003074 -0.974152 0.0
-0.006006 -0.977125 0.0
-0.008928 -0.978191 0.0
-0.011783 -0.979608 0.0
-0.014551 -0.981417 0.0
-0.017207 -0.983627 0.0
-0.019719 -0.986247 0.0
-0.022043 -0.989284 0.0
-0.024122 -0.992748 0.0
-0.025881 -0.996647 0.0
-0.027228 -1.000969 0.0
-0.028069 -1.005659 0.0
-0.028323 -1.010602 0.0
-0.027941 -1.015623 0.0
-0.026920 -1.020515 0.0
-0.025303 -1.025089 0.0
-0.023166 -1.029218 0.0
-0.020596 -1.032836 0.0
-0.017687 -1.035911 0.0
-0.014521 -1.038425 0.0
-0.011187 -1.040319 0.0
-0.007799 -1.041366 0.0
-0.004591 -1.040377 0.0
-0.002142 -1.028636 0.0
-0.000606 -0.916040 0.0
-0.000962 -0.877597 0.0
-0.003568 -0.971051 0.0
-0.006878 -0.973985 0.0
-0.010186 -0.975102 0.0
-0.013439 -0.976590 0.0
-0.016616 -0.978491 0.0
-0.019691 -0.980822 0.0
-0.022630 -0.983602 0.0
-0.025380 -0.986854 0.0
-0.027871 -0.990608 0.0
-0.030005 -0.994895 0.0
-0.031664 -0.999715 0.0
-0.032723 -1.005012 0.0
-0.033076 -1.010641 0.0
-0.032663 -1.016379 0.0
-0.031481 -1.021963 0.0
-0.029582 -1.027157 0.0
-0.027060 -1.031809 0.0
-0.024029 -1.035845 0.0
-0.020603 -1.039238 0.0
-0.016888 -1.041978 0.0
-0.012990 -1.043998 0.0
-0.009050 -1.045014 0.0
-0.005344 -1.043643 0.0
-0.002512 -1.030650 0.0
-0.000714 -0.917361 0.0
-0.001128 -0.875508 0.0
-0.004092 -0.967569 0.0
-0.007793 -0.970456 0.0
-0.011502 -0.971614 0.0
-0.015171 -0.973157 0.0
-0.018782 -0.975135 0.0
-0.022310 -0.977573 0.0
-0.025719 -0.980504 0.0
-0.028949 -0.983972 0.0
-0.031911 -0.988037 0.0
-0.034482 -0.992761 0.0
-0.036508 -0.998165 0.0
-0.037827 -1.004184 0.0
-0.038307 -1.010636 0.0
-0.037871 -1.017234 0.0
-0.036515 -1.023647 0.0
-0.034305 -1.029583 0.0
-0.031355 -1.034855 0.0
-0.027807 -1.039378 0.0
-0.023803 -1.043134 0.0
-0.019476 -1.046124 0.0
-0.014954 -1.048271 0.0
-0.010409 -1.049226 0.0
-0.006159 -1.047387 0.0
-0.002912 -1.032984 0.0
-0.000831 -0.918906 0.0
-0.001304 -0.873077 0.0
-0.004641 -0.963698 0.0
-0.008739 -0.966529 0.0
-0.012859 -0.967711 0.0
-0.016960 -0.969290 0.0
-0.021029 -0.971321 0.0
-0.025046 -0.973841 0.0
-0.028971 -0.976901 0.0
-0.032739 -0.980577 0.0
-0.036240 -0.984969 0.0
-0.039316 -0.990182 0.0
-0.041770 -0.996263 0.0
-0.043401 -1.003135 0.0
-0.044040 -1.010565 0.0
-0.043594 -1.018187 0.0
-0.042059 -1.025585 0.0
-0.039511 -1.032403 0.0
-0.036089 -1.038407 0.0
-0.031966 -1.043498 0.0
-0.027319 -1.047665 0.0
-0.022313 -1.050927 0.0
-0.017105 -1.053199 0.0
-0.011895 -1.054054 0.0
-0.007054 -1.051650 0.0
-0.003355 -1.035668 0.0
-0.000961 -0.920697 0.0
-0.001488 -0.870285 0.0
-0.005206 -0.959435 0.0
-0.009701 -0.962199 0.0
-0.014236 -0.963385 0.0
-0.018780 -0.964972 0.0
-0.023328 -0.967022 0.0
-0.027866 -0.969586 0.0
-0.032356 -0.972741 0.0
-0.036723 -0.976603 0.0
-0.040833 -0.981331 0.0
-0.044489 -0.987088 0.0
-0.047443 -0.993949 0.0
-0.049441 -1.001821 0.0
-0.050280 -1.010401 0.0
-0.049847 -1.019229 0.0
-0.048134 -1.027792 0.0
-0.045229 -1.035650 0.0
-0.041295 -1.042516 0.0
-0.036540 -1.048266 0.0
-0.031185 -1.052898 0.0
-0.025431 -1.056453 0.0
-0.019470 -1.058842 0.0
-0.013538 -1.059552 0.0
-0.008055 -1.056476 0.0
-0.003858 -1.038738 0.0
-0.001111 -0.922769 0.0
-0.001678 -0.867119 0.0
-0.005777 -0.954785 0.0
-0.010660 -0.957471 0.0
-0.015605 -0.958634 0.0
-0.020595 -0.960191 0.0
-0.025636 -0.962213 0.0
-0.030723 -0.964770 0.0
-0.035822 -0.967969 0.0
-0.040850 -0.971982 0.0
-0.045644 -0.977047 0.0
-0.049958 -0.983402 0.0
-0.053484 -0.991156 0.0
-0.055915 -1.000186 0.0
-0.057006 -1.010106 0.0
-0.056621 -1.020342 0.0
-0.054745 -1.030268 0.0
-0.051474 -1.039350 0.0
-0.046996 -1.047229 0.0
-0.041559 -1.053745 0.0
-0.035431 -1.058903 0.0
-0.028862 -1.062771 0.0
-0.022085 -1.065262 0.0
-0.015373 -1.065775 0.0
-0.009194 -1.061915 0.0
-0.004447 -1.042242 0.0
-0.001290 -0.925170 0.0
-0.001870 -0.863570 0.0
-0.006341 -0.949764 0.0
-0.011592 -0.952357 0.0
-0.016930 -0.953464 0.0
-0.022357 -0.954944 0.0
-0.027894 -0.956880 0.0
-0.033550 -0.959360 0.0
-0.039297 -0.962533 0.0
-0.045042 -0.966645 0.0
-0.050591 -0.972039 0.0
-0.055642 -0.979045 0.0
-0.059819 -0.987809 0.0
-0.062755 -0.998166 0.0
-0.064162 -1.009628 0.0
-0.063877 -1.021490 0.0
-0.061872 -1.033001 0.0
-0.058246 -1.043513 0.0
-0.053209 -1.052581 0.0
-0.047048 -1.059991 0.0
-0.040090 -1.065744 0.0
-0.032644 -1.069944 0.0
-0.024990 -1.072519 0.0
-0.017442 -1.072778 0.0
-0.010512 -1.068021 0.0
-0.005152 -1.046242 0.0
-0.001509 -0.927969 0.0
-0.002059 -0.859642 0.0
-0.006881 -0.944399 0.0
-0.012466 -0.946886 0.0
-0.018166 -0.947897 0.0
-0.024007 -0.949244 0.0
-0.030029 -0.951020 0.0
-0.036258 -0.953336 0.0
-0.042677 -0.956392 0.0
-0.049185 -0.960533 0.0
-0.055554 -0.966233 0.0
-0.061416 -0.973938 0.0
-0.066326 -0.983830 0.0
-0.069850 -0.995686 0.0
-0.071653 -1.008897 0.0
-0.071542 -1.022617 0.0
-0.069468 -1.035953 0.0
-0.065524 -1.048131 0.0
-0.059932 -1.058593 0.0
-0.053026 -1.067046 0.0
-0.045194 -1.073479 0.0
-0.036816 -1.078033 0.0
-0.028233 -1.080669 0.0
-0.019797 -1.080613 0.0
-0.012059 -1.074855 0.0
-0.006010 -1.050818 0.0
-0.001783 -0.931261 0.0
-0.002238 -0.855345 0.0
-0.007378 -0.938733 0.0
-0.013246 -0.941099 0.0
-0.019260 -0.941969 0.0
-0.025473 -0.943118 0.0
-0.031949 -0.944648 0.0
-0.038735 -0.946694 0.0
-0.045830 -0.949519 0.0
-0.053130 -0.953596 0.0
-0.060367 -0.959565 0.0
-0.067107 -0.968004 0.0
-0.072829 -0.979133 0.0
-0.077033 -0.992654 0.0
-0.079336 -1.007823 0.0
-0.079501 -1.023637 0.0
-0.077450 -1.039057 0.0
-0.073258 -1.053164 0.0
-0.067152 -1.065257 0.0
-0.059503 -1.074937 0.0
-0.050772 -1.082152 0.0
-0.041423 -1.087086 0.0
-0.031864 -1.089757 0.0
-0.022495 -1.089329 0.0
-0.013891 -1.082480 0.0
-0.007064 -1.056070 0.0
-0.002128 -0.935172 0.0
-0.002401 -0.850706 0.0
-0.007809 -0.932824 0.0
-0.013893 -0.935056 0.0
-0.020153 -0.935738 0.0
-0.026673 -0.936617 0.0
-0.033545 -0.937802 0.0
-0.040844 -0.939455 0.0
-0.048592 -0.941915 0.0
-0.056683 -0.945809 0.0
-0.064814 -0.951983 0.0
-0.072485 -0.961174 0.0
-0.079097 -0.973630 0.0
-0.084085 -0.988965 0.0
-0.087009 -1.006286 0.0
-0.087587 -1.024431 0.0
-0.085693 -1.042208 0.0
-0.081367 -1.058532 0.0
-0.074828 -1.072533 0.0
-0.066478 -1.083660 0.0
-0.056849 -1.091789 0.0
-0.046505 -1.097143 0.0
-0.035938 -1.099826 0.0
-0.025595 -1.098973 0.0
-0.016067 -1.090967 0.0
-0.008358 -1.062118 0.0
-0.002559 -0.939859 0.0
-0.002541 -0.845763 0.0
-0.008153 -0.926747 0.0
-0.014366 -0.928837 0.0
-0.020781 -0.929282 0.0
-0.027517 -0.929816 0.0
-0.034697 -0.930551 0.0
-0.042430 -0.931674 0.0
-0.050765 -0.933612 0.0
-0.059609 -0.937178 0.0
-0.068628 -0.943464 0.0
-0.077261 -0.953389 0.0
-0.084835 -0.967228 0.0
-0.090718 -0.984495 0.0
-0.094412 -1.004138 0.0
-0.095575 -1.024839 0.0
-0.094018 -1.045250 0.0
-0.089727 -1.064108 0.0
-0.082891 -1.080332 0.0
-0.073926 -1.093175 0.0
-0.063438 -1.102391 0.0
-0.052097 -1.108226 0.0
-0.040501 -1.110905 0.0
-0.029150 -1.109588 0.0
-0.018639 -1.100392 0.0
-0.009934 -1.069107 0.0
-0.003093 -0.945511 0.0
-0.002651 -0.840571 0.0
-0.008386 -0.920593 0.0
-0.014622 -0.922542 0.0
-0.021078 -0.922707 0.0
-0.027911 -0.922822 0.0
-0.035275 -0.923001 0.0
-0.043316 -0.923451 0.0
-0.052126 -0.924690 0.0
-0.061632 -0.927751 0.0
-0.071490 -0.934015 0.0
-0.081087 -0.944609 0.0
-0.089682 -0.959839 0.0
-0.096578 -0.979105 0.0
-0.101213 -1.001199 0.0
-0.103172 -1.024657 0.0
-0.102185 -1.047976 0.0
-0.098157 -1.069701 0.0
-0.091224 -1.088509 0.0
-0.081794 -1.103393 0.0
-0.070528 -1.113927 0.0
-0.058216 -1.120343 0.0
-0.045583 -1.123017 0.0
-0.033199 -1.121209 0.0
-0.021648 -1.110833 0.0
-0.011822 -1.077197 0.0
-0.003740 -0.952344 0.0
-0.002724 -0.835196 0.0
-0.008487 -0.914470 0.0
-0.014626 -0.916291 0.0
-0.020986 -0.916141 0.0
-0.027764 -0.915775 0.0
-0.035147 -0.915301 0.0
-0.043323 -0.914934 0.0
-0.052433 -0.915286 0.0
-0.062450 -0.917631 0.0
-0.073040 -0.923686 0.0
-0.083560 -0.934821 0.0
-0.093214 -0.951378 0.0
-0.101238 -0.972645 0.0
-0.107000 -0.997262 0.0
-0.110001 -1.023635 0.0
-0.109869 -1.050117 0.0
-0.106402 -1.075054 0.0
-0.099647 -1.096844 0.0
-0.089971 -1.114164 0.0
-0.078068 -1.126324 0.0
-0.064847 -1.133479 0.0
-0.051186 -1.136176 0.0
-0.037750 -1.133870 0.0
-0.025106 -1.122366 0.0
-0.014036 -1.086560 0.0
-0.004507 -0.960591 0.0
-0.002754 -0.829718 0.0
-0.008442 -0.908495 0.0
-0.014346 -0.910223 0.0
-0.020454 -0.909742 0.0
-0.026999 -0.908851 0.0
-0.034196 -0.907646 0.0
-0.042276 -0.906334 0.0
-0.051443 -0.905609 0.0
-0.061741 -0.906995 0.0
-0.072885 -0.912588 0.0
-0.084233 -0.924051 0.0
-0.094944 -0.941783 0.0
-0.104196 -0.964964 0.0
-0.111277 -0.992100 0.0
-0.115591 -1.021483 0.0
-0.116647 -1.051345 0.0
-0.114106 -1.079832 0.0
-0.107886 -1.105041 0.0
-0.098265 -1.125265 0.0
-0.085937 -1.139454 0.0
-0.071915 -1.147591 0.0
-0.057259 -1.150383 0.0
-0.042765 -1.147594 0.0
-0.028989 -1.135062 0.0
-0.016560 -1.097364 0.0
-0.005389 -0.970487 0.0
-0.002739 -0.824225 0.0
-0.008242 -0.902798 0.0
-0.013768 -0.904490 0.0
-0.019450 -0.903685 0.0
-0.025558 -0.902255 0.0
-0.032328 -0.900275 0.0
-0.040029 -0.897924 0.0
-0.048935 -0.895945 0.0
-0.059195 -0.896101 0.0
-0.070624 -0.900908 0.0
-0.082624 -0.912383 0.0
-0.094336 -0.931028 0.0
-0.104876 -0.955929 0.0
-0.113453 -0.985477 0.0
-0.119362 -1.017882 0.0
-0.121974 -1.051278 0.0
-0.120785 -1.083628 0.0
-0.115539 -1.112711 0.0
-0.106370 -1.136384 0.0
-0.093913 -1.153121 0.0
-0.079263 -1.162595 0.0
-0.063681 -1.165618 0.0
-0.048144 -1.162389 0.0
-0.033216 -1.148970 0.0
-0.019345 -1.109756 0.0
-0.006368 -0.982244 0.0
-0.002679 -0.818807 0.0
-0.007888 -0.897504 0.0
-0.012892 -0.899253 0.0
-0.017970 -0.898163 0.0
-0.023422 -0.896217 0.0
-0.029495 -0.893469 0.0
-0.036485 -0.890039 0.0
-0.044741 -0.886668 0.0
-0.054547 -0.885313 0.0
-0.065881 -0.888932 0.0
-0.078253 -0.899986 0.0
-0.090819 -0.919147 0.0
-0.102642 -0.945446 0.0
-0.112848 -0.977178 0.0
-0.120616 -1.012503 0.0
-0.125166 -1.049496 0.0
-0.125801 -1.085965 0.0
-0.122044 -1.119378 0.0
-0.113821 -1.147110 0.0
-0.101636 -1.167038 0.0
-0.086617 -1.178347 0.0
-0.070235 -1.181832 0.0
-0.053708 -1.178239 0.0
-0.037648 -1.164109 0.0
-0.022298 -1.123838 0.0
-0.007413 -0.996024 0.0
-0.002576 -0.813552 0.0
-0.007391 -0.892734 0.0
-0.011738 -0.894671 0.0
-0.016035 -0.893372 0.0
-0.020608 -0.890983 0.0
-0.025704 -0.887534 0.0
-0.031624 -0.883063 0.0
-0.038781 -0.878232 0.0
-0.047618 -0.875106 0.0
-0.058348 -0.877075 0.0
-0.070675 -0.887145 0.0
-0.083821 -0.906277 0.0
-0.096816 -0.933497 0.0
-0.108701 -0.967037 0.0
-0.118539 -1.005037 0.0
-0.125389 -1.045562 0.0
-0.128341 -1.086313 0.0
-0.126651 -1.124476 0.0
-0.119967 -1.156919 0.0
-0.108575 -1.180805 0.0
-0.093561 -1.194612 0.0
-0.076592 -1.198918 0.0
-0.059188 -1.195083 0.0
-0.042070 -1.180442 0.0
-0.025284 -1.139640 0.0
-0.008477 -1.011914 0.0
-0.002436 -0.808541 0.0
-0.006773 -0.888593 0.0
-0.010346 -0.890891 0.0
-0.013699 -0.889502 0.0
-0.017185 -0.886794 0.0
-0.021030 -0.882783 0.0
-0.025521 -0.877402 0.0
-0.031101 -0.871156 0.0
-0.038377 -0.866070 0.0
-0.047856 -0.865901 0.0
-0.059546 -0.874304 0.0
-0.072825 -0.892693 0.0
-0.086724 -0.920186 0.0
-0.100207 -0.954980 0.0
-0.112225 -0.995237 0.0
-0.121676 -1.039062 0.0
-0.127420 -1.084118 0.0
-0.128413 -1.127367 0.0
-0.123952 -1.165173 0.0
-0.114007 -1.193888 0.0
-0.099516 -1.211034 0.0
-0.082295 -1.216686 0.0
-0.064216 -1.212799 0.0
-0.046202 -1.197857 0.0
-0.028120 -1.157094 0.0
-0.009498 -1.029890 0.0
-0.002268 -0.803837 0.0
-0.006064 -0.885163 0.0
-0.008772 -0.888041 0.0
-0.011046 -0.886725 0.0
-0.013261 -0.883870 0.0
-0.015616 -0.879506 0.0
-0.018352 -0.873453 0.0
-0.021901 -0.865975 0.0
-0.026991 -0.858886 0.0
-0.034455 -0.856142 0.0
-0.044718 -0.862110 0.0
-0.057454 -0.878872 0.0
-0.071772 -0.905790 0.0
-0.086582 -0.941084 0.0
-0.100731 -0.982967 0.0
-0.112963 -1.029649 0.0
-0.121911 -1.078840 0.0
-0.126203 -1.127360 0.0
-0.124724 -1.171119 0.0
-0.117018 -1.205592 0.0
-0.103742 -1.227097 0.0
-0.086765 -1.234821 0.0
-0.068339 -1.231170 0.0
-0.049697 -1.216143 0.0
-0.030587 -1.176000 0.0
-0.010402 -1.049790 0.0
-0.002080 -0.799489 0.0
-0.005300 -0.882495 0.0
-0.007080 -0.886221 0.0
-0.008172 -0.885179 0.0
-0.008975 -0.882396 0.0
-0.009655 -0.877946 0.0
-0.010384 -0.871548 0.0
-0.011533 -0.863182 0.0
-0.013866 -0.854257 0.0
-0.018496 -0.848676 0.0
-0.026360 -0.851448 0.0
-0.037607 -0.865551 0.0
-0.051571 -0.890829 0.0
-0.067173 -0.925633 0.0
-0.083174 -0.968267 0.0
-0.098184 -1.017106 0.0
-0.110619 -1.070001 0.0
-0.118775 -1.123751 0.0
-0.121078 -1.173905 0.0
-0.116534 -1.215056 0.0
-0.105352 -1.242091 0.0
-0.089313 -1.252842 0.0
-0.071030 -1.249857 0.0
-0.052163 -1.234966 0.0
-0.032436 -1.196014 0.0
-0.011103 -1.071294 0.0
-0.001882 -0.795527 0.0
-0.004510 -0.880611 0.0
-0.005336 -0.885499 0.0
-0.005176 -0.884970 0.0
-0.004472 -0.882506 0.0
-0.003355 -0.878273 0.0
-0.001928 -0.871919 0.0
-0.000455 -0.863135 0.0
0.000374 -0.852800 0.0
-0.000695 -0.844435 0.0
-0.005091 -0.843429 0.0
-0.013635 -0.853779 0.0
-0.026129 -0.876142 0.0
-0.041643 -0.909205 0.0
-0.058902 -0.951434 0.0
-0.076414 -1.001416 0.0
-0.092410 -1.057260 0.0
-0.104873 -1.115873 0.0
-0.111743 -1.172610 0.0
-0.111382 -1.221255 0.0
-0.103365 -1.255090 0.0
-0.089179 -1.270068 0.0
-0.071723 -1.268370 0.0
-0.053187 -1.253857 0.0
-0.033409 -1.216627 0.0
-0.011513 -1.093911 0.0
-0.001678 -0.791967 0.0
-0.003717 -0.879504 0.0
-0.003584 -0.885912 0.0
-0.002138 -0.886162 0.0
0.000128 -0.884284 0.0
0.003097 -0.880581 0.0
0.006732 -0.874673 0.0
0.010882 -0.866005 0.0
0.015015 -0.854890 0.0
0.017937 -0.844198 0.0
0.017922 -0.839255 0.0
0.013431 -0.844918 0.0
0.003877 -0.862954 0.0
-0.010239 -0.892764 0.0
-0.027740 -0.933115 0.0
-0.047097 -0.982867 0.0
-0.066409 -1.040501 0.0
-0.083394 -1.103184 0.0
-0.095515 -1.166308 0.0
-0.100399 -1.223033 0.0
-0.096776 -1.264952 0.0
-0.085583 -1.285586 0.0
-0.069852 -1.286040 0.0
-0.052370 -1.272205 0.0
-0.033258 -1.237169 0.0
-0.011549 -1.116973 0.0
-0.001463 -0.788826 0.0
-0.002920 -0.879149 0.0
-0.001842 -0.887476 0.0
0.000906 -0.888792 0.0
0.004754 -0.887767 0.0
0.009581 -0.884895 0.0
0.015395 -0.879807 0.0
0.022147 -0.871773 0.0
0.029489 -0.860595 0.0
0.036416 -0.848342 0.0
0.041154 -0.839835 0.0
0.041696 -0.840390 0.0
0.036684 -0.852916 0.0
0.025801 -0.877802 0.0
0.009656 -0.914431 0.0
-0.010364 -0.962175 0.0
-0.032280 -1.019965 0.0
-0.053629 -1.085387 0.0
-0.071445 -1.154167 0.0
-0.082566 -1.219169 0.0
-0.084661 -1.270344 0.0
-0.077800 -1.298247 0.0
-0.064902 -1.302008 0.0
-0.049365 -1.289255 0.0
-0.031772 -1.256823 0.0
-0.011139 -1.139662 0.0
-0.001225 -0.786138 0.0
-0.002089 -0.879517 0.0
-0.000078 -0.890197 0.0
0.003977 -0.892875 0.0
0.009406 -0.892961 0.0
0.016064 -0.891186 0.0
0.023972 -0.887237 0.0
0.033153 -0.880277 0.0
0.043427 -0.869706 0.0
0.054047 -0.856778 0.0
0.063395 -0.845485 0.0
0.069243 -0.841130 0.0
0.069622 -0.847542 0.0
0.063520 -0.866192 0.0
0.050907 -0.897284 0.0
0.032406 -0.940800 0.0
0.009397 -0.996414 0.0
-0.015582 -1.062611 0.0
-0.039096 -1.135613 0.0
-0.057202 -1.208496 0.0
-0.066306 -1.269819 0.0
-0.065242 -1.306698 0.0
-0.056472 -1.315225 0.0
-0.043915 -1.304134 0.0
-0.028801 -1.274651 0.0
-0.010234 -1.161034 0.0
-0.000932 -0.783981 0.0
-0.001154 -0.880588 0.0
0.001790 -0.894080 0.0
0.007161 -0.898419 0.0
0.014171 -0.899857 0.0
0.022621 -0.899399 0.0
0.032509 -0.896821 0.0
0.043882 -0.891248 0.0
0.056682 -0.881808 0.0
0.070424 -0.869038 0.0
0.083790 -0.855939 0.0
0.094612 -0.847346 0.0
0.100543 -0.847636 0.0
0.099911 -0.859365 0.0
0.092046 -0.883632 0.0
0.077094 -0.920998 0.0
0.055764 -0.971876 0.0
0.029441 -1.035848 0.0
0.001139 -1.110560 0.0
-0.024196 -1.190108 0.0
-0.041363 -1.261937 0.0
-0.047564 -1.309442 0.0
-0.044333 -1.324481 0.0
-0.035897 -1.315871 0.0
-0.024284 -1.289640 0.0
-0.008814 -1.180082 0.0
-0.000539 -0.782509 0.0
-0.000005 -0.882374 0.0
0.003894 -0.899137 0.0
0.010608 -0.905446 0.0
0.019218 -0.908449 0.0
0.029428 -0.909467 0.0
0.041179 -0.908393 0.0
0.054493 -0.904363 0.0
0.069359 -0.896358 0.0
0.085497 -0.884368 0.0
0.101949 -0.870427 0.0
0.116843 -0.858573 0.0
0.127770 -0.853267 0.0
0.132585 -0.857917 0.0
0.129973 -0.874603 0.0
0.119510 -0.904613 0.0
0.101438 -0.948859 0.0
0.076592 -1.007697 0.0
0.046719 -1.080537 0.0
0.015641 -1.163718 0.0
-0.010042 -1.245478 0.0
-0.024772 -1.304970 0.0
-0.028488 -1.328468 0.0
-0.025352 -1.323455 0.0
-0.018264 -1.300757 0.0
-0.006901 -1.195797 0.0
0.000017 -0.781987 0.0
0.001493 -0.884907 0.0
0.006407 -0.905417 0.0
0.014532 -0.914005 0.0
0.024778 -0.918746 0.0
0.036733 -0.921334 0.0
0.050250 -0.921794 0.0
0.065274 -0.919299 0.0
0.081762 -0.912777 0.0
0.099546 -0.901872 0.0
0.117991 -0.887820 0.0
0.135657 -0.873740 0.0
0.150379 -0.863750 0.0
0.159842 -0.861712 0.0
0.162228 -0.870581 0.0
0.156518 -0.892463 0.0
0.142450 -0.928869 0.0
0.120402 -0.980791 0.0
0.091502 -1.048670 0.0
0.058357 -1.131361 0.0
0.026336 -1.220130 0.0
0.002684 -1.291935 0.0
-0.009224 -1.325880 0.0
-0.012511 -1.325892 0.0
-0.010900 -1.307019 0.0
-0.004550 -1.207248 0.0
0.000775 -0.782778 0.0
0.003466 -0.888283 0.0
0.009532 -0.913021 0.0
0.019167 -0.924161 0.0
0.031102 -0.930771 0.0
0.044802 -0.934962 0.0
0.060011 -0.936892 0.0
0.076554 -0.935768 0.0
0.094289 -0.930531 0.0
0.113047 -0.920659 0.0
0.132415 -0.906846 0.0
0.151406 -0.891371 0.0
0.168308 -0.877742 0.0
0.180968 -0.869843 0.0
0.187336 -0.871204 0.0
0.185911 -0.884705 0.0
0.175916 -0.912564 0.0
0.157284 -0.956415 0.0
0.130678 -1.017540 0.0
0.097953 -1.096620 0.0
0.063213 -1.188110 0.0
0.033030 -1.270120 0.0
0.012826 -1.315583 0.0
0.002207 -1.322284 0.0
-0.002464 -1.307566 0.0
-0.001858 -1.213657 0.0
0.001717 -0.785270 0.0
0.005997 -0.892764 0.0
0.013475 -0.922084 0.0
0.024729 -0.935987 0.0
0.038402 -0.944553 0.0
0.053848 -0.950325 0.0
0.070688 -0.953578 0.0
0.088598 -0.953536 0.0
0.107277 -0.949177 0.0
0.126464 -0.939958 0.0
0.145849 -0.926301 0.0
0.164813 -0.909872 0.0
0.182178 -0.893509 0.0
0.196216 -0.880774 0.0
0.204965 -0.875391 0.0
0.206678 -0.880806 0.0
0.200155 -0.899946 0.0
0.184902 -0.935148 0.0
0.161210 -0.988510 0.0
0.130452 -1.062166 0.0
0.095750 -1.153123 0.0
0.062358 -1.241533 0.0
0.035858 -1.297467 0.0
0.018086 -1.312009 0.0
0.006679 -1.301763 0.0
0.001064 -1.214451 0.0
0.002853 -0.789840 0.0
0.009154 -0.898775 0.0
0.018364 -0.932761 0.0
0.031353 -0.949552 0.0
0.046798 -0.960108 0.0
0.063971 -0.967390 0.0
0.082373 -0.971756 0.0
0.101508 -0.972404 0.0
0.120876 -0.968356 0.0
0.140065 -0.959155 0.0
0.158761 -0.945184 0.0
0.176595 -0.927786 0.0
0.192883 -0.909248 0.0
0.206452 -0.892641 0.0
0.215707 -0.881529 0.0
0.218944 -0.879617 0.0
0.214735 -0.890402 0.0
0.202247 -0.916951 0.0
0.181481 -0.962249 0.0
0.153539 -1.029726 0.0
0.120863 -1.118185 0.0
0.087240 -1.209456 0.0
0.057224 -1.273027 0.0
0.033724 -1.295177 0.0
0.016011 -1.289475 0.0
0.004137 -1.209250 0.0
0.004198 -0.796891 0.0
0.012960 -0.906786 0.0
0.024226 -0.945228 0.0
0.039056 -0.964903 0.0
0.056273 -0.977418 0.0
0.075117 -0.986096 0.0
0.094978 -0.991311 0.0
0.115174 -0.992179 0.0
0.134985 -0.987761 0.0
0.153811 -0.977766 0.0
0.171273 -0.962731 0.0
0.187147 -0.943947 0.0
0.201142 -0.923370 0.0
0.212646 -0.903591 0.0
0.220594 -0.887784 0.0
0.223584 -0.879589 0.0
0.220202 -0.882839 0.0
0.209448 -0.901272 0.0
0.191166 -0.938881 0.0
0.166384 -1.000372 0.0
0.137072 -1.085551 0.0
0.105555 -1.176950 0.0
0.074727 -1.244688 0.0
0.047537 -1.272826 0.0
0.024765 -1.271340 0.0
0.007183 -1.197930 0.0
0.005741 -0.806829 0.0
0.017364 -0.917232 0.0
0.030966 -0.959651 0.0
0.047712 -0.982055 0.0
0.066657 -0.996428 0.0
0.087070 -1.006344 0.0
0.108240 -1.012094 0.0
0.129287 -1.012640 0.0
0.149253 -1.007077 0.0
0.167346 -0.995368 0.0
0.183107 -0.978352 0.0
0.196395 -0.957488 0.0
0.207213 -0.934642 0.0
0.215437 -0.912046 0.0
0.220571 -0.892410 0.0
0.221681 -0.879061 0.0
0.217595 -0.875900 0.0
0.207359 -0.887221 0.0
0.190885 -0.918177 0.0
0.169341 -0.974750 0.0
0.144294 -1.056813 0.0
0.116533 -1.146410 0.0
0.087075 -1.214942 0.0
0.058312 -1.246620 0.0
0.032107 -1.248570 0.0
0.009868 -1.180879 0.0
0.007436 -0.820006 0.0
0.022223 -0.930465 0.0
0.038360 -0.976158 0.0
0.057047 -1.000981 0.0
0.077635 -1.017036 0.0
0.099472 -1.027987 0.0
0.121754 -1.033903 0.0
0.143378 -1.033502 0.0
0.163139 -1.025942 0.0
0.180070 -1.011528 0.0
0.193655 -0.991537 0.0
0.203829 -0.967765 0.0
0.210828 -0.942182 0.0
0.214925 -0.916828 0.0
0.216146 -0.893985 0.0
0.214083 -0.876534 0.0
0.207961 -0.868220 0.0
0.197095 -0.873798 0.0
0.181782 -0.899814 0.0
0.163563 -0.953351 0.0
0.143462 -1.033064 0.0
0.120517 -1.119454 0.0
0.093919 -1.185842 0.0
0.065384 -1.218421 0.0
0.037443 -1.222623 0.0
0.011933 -1.159078 0.0
0.009207 -0.836650 0.0
0.027306 -0.946706 0.0
0.046065 -0.994814 0.0
0.066665 -1.021611 0.0
0.088778 -1.039106 0.0
0.111870 -1.050846 0.0
0.135029 -1.056484 0.0
0.156893 -1.054411 0.0
0.176000 -1.043901 0.0
0.191241 -1.025740 0.0
0.202102 -1.001770 0.0
0.208640 -0.974244 0.0
0.211305 -0.945367 0.0
0.210700 -0.917134 0.0
0.207292 -0.891492 0.0
0.201174 -0.870845 0.0
0.192038 -0.858651 0.0
0.179682 -0.860144 0.0
0.165198 -0.883671 0.0
0.150670 -0.936747 0.0
0.136131 -1.015027 0.0
0.118553 -1.096968 0.0
0.095624 -1.158801 0.0
0.068633 -1.189935 0.0
0.040507 -1.195041 0.0
0.013251 -1.133894 0.0
0.010953 -0.856810 0.0
0.032327 -0.966018 0.0
0.053669 -1.015603 0.0
0.076092 -1.043845 0.0
0.099599 -1.062493 0.0
0.123769 -1.074722 0.0
0.147541 -1.079538 0.0
0.169243 -1.074924 0.0
0.187144 -1.060395 0.0
0.200051 -1.037394 0.0
0.207540 -1.008467 0.0
0.209862 -0.976406 0.0
0.207715 -0.943723 0.0
0.201998 -0.912456 0.0
0.193543 -0.884307 0.0
0.182876 -0.861244 0.0
0.170173 -0.846412 0.0
0.155928 -0.845781 0.0
0.142535 -0.870156 0.0
0.132539 -0.925739 0.0
0.124114 -1.003070 0.0
0.111966 -1.079199 0.0
0.092935 -1.134610 0.0
0.068332 -1.162532 0.0
0.041326 -1.167312 0.0
0.013801 -1.106842 0.0
0.012566 -0.880329 0.0
0.036988 -0.988295 0.0
0.060740 -1.038420 0.0
0.084841 -1.067553 0.0
0.109599 -1.087049 0.0
0.134672 -1.099410 0.0
0.158769 -1.102718 0.0
0.179833 -1.094509 0.0
0.195867 -1.074744 0.0
0.205674 -1.045760 0.0
0.209032 -1.010950 0.0
0.206485 -0.973698 0.0
0.199038 -0.936837 0.0
0.187887 -0.902474 0.0
0.174176 -0.872125 0.0
0.158805 -0.847389 0.0
0.142432 -0.831192 0.0
0.126534 -0.830859 0.0
0.115335 -0.860486 0.0
0.111181 -0.921259 0.0
0.109154 -0.997097 0.0
0.101994 -1.065865 0.0
0.086670 -1.113589 0.0
0.064955 -1.137235 0.0
0.040108 -1.140757 0.0
0.013638 -1.079402 0.0
0.013954 -0.906849 0.0
0.041022 -1.013264 0.0
0.066888 -1.063069 0.0
0.092464 -1.092582 0.0
0.118318 -1.112631 0.0
0.144113 -1.124696 0.0
0.168206 -1.125622 0.0
0.188064 -1.112528 0.0
0.201447 -1.086142 0.0
0.207263 -1.049986 0.0
0.205630 -1.008447 0.0
0.197497 -0.965520 0.0
0.184247 -0.924319 0.0
0.167396 -0.886990 0.0
0.148385 -0.854887 0.0
0.128464 -0.829333 0.0
0.108859 -0.813271 0.0
0.092435 -0.816459 0.0
0.085485 -0.856738 0.0
0.088578 -0.923947 0.0
0.092603 -0.996406 0.0
0.089529 -1.056322 0.0
0.077519 -1.095797 0.0
0.059010 -1.114802 0.0
0.037149 -1.116481 0.0
0.012853 -1.052912 0.0
0.015048 -0.935851 0.0
0.044225 -1.040507 0.0
0.071797 -1.089264 0.0
0.098581 -1.118746 0.0
0.125353 -1.139092 0.0
0.151660 -1.150337 0.0
0.175345 -1.147758 0.0
0.193307 -1.128212 0.0
0.203114 -1.093647 0.0
0.203931 -1.049115 0.0
0.196366 -1.000120 0.0
0.181894 -0.951243 0.0
0.162346 -0.905798 0.0
0.139592 -0.865906 0.0
0.115398 -0.832767 0.0
0.091450 -0.807584 0.0
0.069829 -0.793793 0.0
0.055289 -0.804972 0.0
0.055317 -0.861302 0.0
0.066326 -0.933483 0.0
0.075153 -0.999722 0.0
0.075032 -1.049813 0.0
0.065980 -1.081243 0.0
0.050968 -1.095837 0.0
0.032751 -1.095368 0.0
0.011541 -1.028518 0.0
0.015800 -0.966698 0.0
0.046451 -1.069488 0.0
0.075229 -1.116633 0.0
0.102887 -1.145819 0.0
0.130351 -1.166255 0.0
0.156891 -1.176022 0.0
0.179643 -1.168510 0.0
0.194859 -1.140639 0.0
0.200013 -1.096181 0.0
0.194712 -1.042096 0.0
0.180227 -0.985087 0.0
0.158666 -0.930243 0.0
0.132369 -0.880954 0.0
0.103613 -0.839241 0.0
0.074588 -0.806213 0.0
0.047704 -0.783305 0.0
0.026550 -0.775297 0.0
0.017894 -0.800272 0.0
0.027287 -0.875423 0.0
0.045094 -0.948178 0.0
0.056761 -1.005520 0.0
0.058625 -1.045759 0.0
0.052425 -1.070045 0.0
0.041250 -1.080848 0.0
0.027193 -1.078083 0.0
0.009788 -1.007189 0.0
0.016181 -0.998679 0.0
0.047597 -1.099574 0.0
0.076991 -1.144720 0.0
0.105113 -1.173514 0.0
0.132964 -1.193875 0.0
0.159340 -1.201318 0.0
0.180460 -1.187085 0.0
0.191883 -1.148704 0.0
0.191150 -1.092538 0.0
0.178531 -1.027821 0.0
0.156127 -0.962473 0.0
0.126775 -0.901943 0.0
0.093378 -0.849560 0.0
0.058711 -0.807212 0.0
0.025669 -0.776174 0.0
-0.001991 -0.758801 0.0
-0.018348 -0.762291 0.0
-0.016179 -0.806792 0.0
0.002943 -0.897419 0.0
0.024336 -0.965382 0.0
0.036931 -1.012577 0.0
0.040345 -1.043981 0.0
0.037211 -1.062488 0.0
0.030246 -1.070265 0.0
0.020709 -1.065073 0.0
0.007658 -0.989742 0.0
0.016167 -1.031027 0.0
0.047570 -1.130044 0.0
0.076907 -1.172980 0.0
0.104991 -1.201460 0.0
0.132801 -1.221591 0.0
0.158434 -1.225611 0.0
0.176990 -1.202466 0.0
0.183352 -1.151109 0.0
0.175348 -1.081395 0.0
0.154160 -1.005157 0.0
0.122872 -0.931445 0.0
0.085110 -0.865857 0.0
0.044430 -0.811568 0.0
0.004378 -0.770485 0.0
-0.030647 -0.744834 0.0
-0.054647 -0.738482 0.0