# vtk DataFile Version 3.0
Scalar Field
ASCII
DATASET RECTILINEAR_GRID
DIMENSIONS 100 26 1
X_COORDINATES 100 double
0.050000 0.150000 0.250000 0.350000 0.450000 0.550000 0.650000 0.750000 0.850000 0.950000 1.050000 1.150000 1.250000 1.350000 1.450000 1.550000 1.650000 1.750000 1.850000 1.950000 2.050000 2.150000 2.250000 2.350000 2.450000 2.550000 2.650000 2.750000 2.850000 2.950000 3.050000 3.150000 3.250000 3.350000 3.450000 3.550000 3.650000 3.750000 3.850000 3.950000 4.050000 4.150000 4.250000 4.350000 4.450000 4.550000 4.650000 4.750000 4.850000 4.950000 5.050000 5.150000 5.250000 5.350000 5.450000 5.550000 5.650000 5.750000 5.850000 5.950000 6.050000 6.150000 6.250000 6.350000 6.450000 6.550000 6.650000 6.750000 6.850000 6.950000 7.050000 7.150000 7.250000 7.350000 7.450000 7.550000 7.650000 7.750000 7.850000 7.950000 8.050000 8.150000 8.250000 8.350000 8.450000 8.550000 8.650000 8.750000 8.850000 8.950000 9.050000 9.150000 9.250000 9.350000 9.450000 9.550000 9.650000 9.750000 9.850000 9.950000 
Y_COORDINATES 26 double
0.050000 0.150000 0.250000 0.350000 0.450000 0.550000 0.650000 0.750000 0.850000 0.950000 1.050000 1.150000 1.250000 1.350000 1.450000 1.550000 1.650000 1.750000 1.850000 1.950000 2.050000 2.150000 2.250000 2.350000 2.450000 2.550000 
Z_COORDINATES 1 double
0.0
POINT_DATA 2600
SCALARS Skalarfeld double 1
LOOKUP_TABLE default
0.071643
0.067295
0.063829
0.060526
0.057449
0.054635
0.052105
0.049864
0.047897
0.046178
0.044669
0.043322
0.042086
0.040914
0.039773
0.038661
0.037610
0.036628
0.035782
0.035142
0.034762
0.034654
0.034769
0.034982
0.035109
0.034931
0.034251
0.032941
0.030989
0.028533
0.025871
0.023450
0.021811
0.021512
0.023018
0.026598
0.031997
0.038471
0.045165
0.051134
0.055611
0.058161
0.058702
0.057439
0.054763
0.051153
0.047081
0.042949
0.039068
0.035275
0.031381
0.027169
0.022357
0.016684
0.009959
0.002106
-0.006808
-0.016545
-0.026691
-0.036670
-0.045787
-0.053306
-0.058572
-0.061162
-0.061039
-0.058764
-0.055598
-0.052919
-0.052188
-0.054581
-0.060754
-0.070814
-0.084443
-0.101051
-0.119970
-0.140516
-0.161835
-0.183005
-0.203023
-0.220804
-0.235217
-0.245132
-0.249498
-0.247423
-0.238260
-0.221796
-0.198195
-0.168042
-0.132447
-0.093028
-0.051804
-0.010954
0.027527
0.062114
0.091844
0.116253
0.135242
0.148934
0.157588
0.161623
0.071796
0.067260
0.063690
0.060322
0.057202
0.054364
0.051826
0.049589
0.047640
0.045949
0.044478
0.043179
0.042001
0.040894
0.039819
0.038744
0.037671
0.036661
0.035760
0.035034
0.034535
0.034285
0.034240
0.034284
0.034233
0.033873
0.033004
0.031495
0.029334
0.026661
0.023784
0.021164
0.019366
0.018975
0.020470
0.024067
0.029570
0.036317
0.043262
0.049432
0.054104
0.056895
0.057750
0.056861
0.054584
0.051345
0.047563
0.043566
0.039515
0.035517
0.031472
0.027097
0.022096
0.016204
0.009224
0.001075
-0.008177
-0.018293
-0.028849
-0.039243
-0.048737
-0.056529
-0.061879
-0.064272
-0.063614
-0.060519
-0.056173
-0.052198
-0.050270
-0.051737
-0.057360
-0.067290
-0.081191
-0.098448
-0.118281
-0.139823
-0.162223
-0.184532
-0.205710
-0.224630
-0.240112
-0.250979
-0.256134
-0.254642
-0.245823
-0.229438
-0.205592
-0.174814
-0.138150
-0.097210
-0.054128
-0.011330
0.028904
0.064883
0.095597
0.120618
0.139919
0.153677
0.162109
0.165285
0.071758
0.067076
0.063362
0.059882
0.056683
0.053799
0.051247
0.049025
0.047115
0.045487
0.044097
0.042897
0.041832
0.040849
0.039905
0.038966
0.038021
0.037091
0.036211
0.035427
0.034779
0.034281
0.033891
0.033502
0.032950
0.032037
0.030583
0.028473
0.025709
0.022449
0.019023
0.015928
0.013776
0.013196
0.014711
0.018720
0.024964
0.032461
0.040079
0.046830
0.052039
0.055386
0.056841
0.056575
0.054884
0.052131
0.048690
0.044853
0.040800
0.036649
0.032257
0.027399
0.021818
0.015268
0.007565
-0.001369
-0.011468
-0.022484
-0.033975
-0.045297
-0.055628
-0.064042
-0.069623
-0.071655
-0.069832
-0.064732
-0.057745
-0.050881
-0.046302
-0.045762
-0.050259
-0.059985
-0.074507
-0.093028
-0.114588
-0.138192
-0.162876
-0.187602
-0.211236
-0.232552
-0.250271
-0.263122
-0.269921
-0.269654
-0.261544
-0.245328
-0.221040
-0.189032
-0.150170
-0.105997
-0.058874
-0.011833
0.032120
0.070943
0.103567
0.129706
0.149541
0.163446
0.171780
0.174742
0.071650
0.066714
0.062799
0.059159
0.055847
0.052900
0.050331
0.048134
0.046287
0.044753
0.043485
0.042426
0.041519
0.040705
0.039936
0.039170
0.038385
0.037578
0.036760
0.035950
0.035161
0.034385
0.033572
0.032621
0.031387
0.029701
0.027412
0.024435
0.020802
0.016705
0.012519
0.008799
0.006223
0.005471
0.007353
0.012474
0.019797
0.028222
0.036589
0.043967
0.049777
0.053770
0.055938
0.056408
0.055382
0.053143
0.050025
0.046312
0.042322
0.037991
0.033184
0.027701
0.021314
0.013808
0.005018
-0.005124
-0.016547
-0.028998
-0.042016
-0.054899
-0.066715
-0.076339
-0.082572
-0.084350
-0.081043
-0.072837
-0.061383
-0.049533
-0.040370
-0.036384
-0.038981
-0.048401
-0.063980
-0.084578
-0.108877
-0.135662
-0.163871
-0.192344
-0.219804
-0.244869
-0.266104
-0.282089
-0.291512
-0.293261
-0.286474
-0.270766
-0.246084
-0.212483
-0.170420
-0.121112
-0.067136
-0.012704
0.037496
0.080867
0.116343
0.143992
0.164447
0.178471
0.186715
0.189587
0.071496
0.066151
0.061956
0.058100
0.054641
0.051613
0.049024
0.046864
0.045101
0.043693
0.042581
0.041701
0.040986
0.040371
0.039798
0.039218
0.038597
0.037911
0.037151
0.036308
0.035370
0.034303
0.033048
0.031503
0.029540
0.027018
0.023822
0.019909
0.015355
0.010405
0.005499
0.001268
-0.001512
-0.002035
0.001356
0.007539
0.015638
0.024529
0.033170
0.040798
0.046976
0.051532
0.054442
0.055732
0.055451
0.053774
0.051008
0.047635
0.043695
0.039125
0.033824
0.027610
0.020267
0.011590
0.001421
-0.010310
-0.023539
-0.038024
-0.053294
-0.068593
-0.082846
-0.094652
-0.102366
-0.104350
-0.099431
-0.086567
-0.068142
-0.048526
-0.032282
-0.023027
-0.022776
-0.031814
-0.049039
-0.072720
-0.100850
-0.132050
-0.165185
-0.198933
-0.231814
-0.262223
-0.288495
-0.308990
-0.322214
-0.326948
-0.322327
-0.307787
-0.283166
-0.248153
-0.202363
-0.145935
-0.081143
-0.014266
0.045779
0.095788
0.134970
0.164240
0.185089
0.198950
0.206915
0.209651
0.071260
0.065329
0.060761
0.056629
0.052987
0.049861
0.047254
0.045143
0.043490
0.042238
0.041317
0.040650
0.040158
0.039764
0.039399
0.039006
0.038539
0.037960
0.037239
0.036349
0.035254
0.033904
0.032228
0.030131
0.027499
0.024227
0.020241
0.015554
0.010301
0.004794
-0.000459
-0.004761
-0.007285
-0.006093
-0.001865
0.004645
0.012547
0.020878
0.028852
0.035979
0.042038
0.046963
0.050681
0.053017
0.053719
0.052826
0.051032
0.048334
0.044501
0.039669
0.033813
0.026782
0.018362
0.008339
-0.003461
-0.017127
-0.032624
-0.049740
-0.068011
-0.086636
-0.104380
-0.119480
-0.129663
-0.132388
-0.125024
-0.104805
-0.076491
-0.046469
-0.021027
-0.005032
-0.001266
-0.010132
-0.029830
-0.057644
-0.090491
-0.127357
-0.166969
-0.207751
-0.247924
-0.285569
-0.318695
-0.345340
-0.363732
-0.372507
-0.370952
-0.358575
-0.335005
-0.299897
-0.251402
-0.186748
-0.105589
-0.016885
0.058548
0.117721
0.161086
0.191477
0.211955
0.224978
0.232232
0.234683
0.070838
0.064139
0.059108
0.054645
0.050788
0.047552
0.044928
0.042885
0.041369
0.040309
0.039617
0.039200
0.038960
0.038809
0.038665
0.038461
0.038140
0.037655
0.036964
0.036023
0.034784
0.033188
0.031161
0.028621
0.025482
0.021678
0.017193
0.012098
0.006595
0.001052
-0.003982
-0.007796
-0.008775
-0.006815
-0.002679
0.003018
0.009501
0.016074
0.022272
0.027919
0.033063
0.037831
0.042217
0.045848
0.047856
0.049484
0.049549
0.047675
0.044111
0.039089
0.032688
0.024812
0.015255
0.003787
-0.009787
-0.025585
-0.043599
-0.063642
-0.085257
-0.107593
-0.129235
-0.148014
-0.160884
-0.164030
-0.149762
-0.119910
-0.080888
-0.040553
-0.006195
0.016394
0.023454
0.014019
-0.009135
-0.040871
-0.078688
-0.122304
-0.169975
-0.219665
-0.269161
-0.316121
-0.358112
-0.392703
-0.417652
-0.431272
-0.433057
-0.423418
-0.401977
-0.370003
-0.323856
-0.254408
-0.150898
-0.020899
0.079198
0.150188
0.197079
0.226914
0.245404
0.256397
0.262233
0.264155
0.070044
0.062430
0.056864
0.052023
0.047927
0.044572
0.041938
0.039981
0.038635
0.037808
0.037391
0.037267
0.037319
0.037441
0.037538
0.037534
0.037365
0.036979
0.036325
0.035355
0.034015
0.032249
0.029993
0.027186
0.023781
0.019761
0.015168
0.010134
0.004909
-0.000121
-0.004424
-0.006853
-0.006914
-0.005199
-0.002132
0.001701
0.005726
0.009541
0.013007
0.016238
0.019528
0.023218
0.027523
0.032299
0.037657
0.041975
0.044316
0.044114
0.041410
0.036548
0.029800
0.021207
0.010618
-0.002187
-0.017400
-0.035128
-0.055349
-0.077844
-0.102106
-0.127185
-0.151463
-0.172358
-0.186140
-0.184523
-0.161604
-0.124522
-0.079608
-0.034222
0.004976
0.032046
0.041627
0.030874
0.005492
-0.026077
-0.068529
-0.119563
-0.176461
-0.236507
-0.296935
-0.354868
-0.407321
-0.451235
-0.483610
-0.501933
-0.505366
-0.495603
-0.475488
-0.451819
-0.420657
-0.364342
-0.241122
-0.026609
0.115339
0.199108
0.245986
0.271557
0.285320
0.292543
0.296015
0.297095
0.068600
0.060021
0.053890
0.048642
0.044287
0.040806
0.038166
0.036316
0.035173
0.034625
0.034537
0.034762
0.035159
0.035599
0.035975
0.036201
0.036212
0.035951
0.035371
0.034424
0.033064
0.031243
0.028921
0.026068
0.022680
0.018790
0.014495
0.009970
0.005480
0.001370
-0.001647
-0.002984
-0.003108
-0.002309
-0.001042
0.000220
0.001134
0.001584
0.001707
0.001856
0.002532
0.004291
0.007643
0.012957
0.019937
0.026843
0.032310
0.035050
0.034484
0.030760
0.024323
0.015486
0.004294
-0.009367
-0.025613
-0.044468
-0.065809
-0.089298
-0.114293
-0.139692
-0.163669
-0.183230
-0.193524
-0.183461
-0.158381
-0.122302
-0.081244
-0.041234
-0.007187
0.016976
0.027799
0.021595
0.007411
-0.022770
-0.068423
-0.125912
-0.191351
-0.261315
-0.332346
-0.400886
-0.463323
-0.515924
-0.554744
-0.575680
-0.575607
-0.554223
-0.530977
-0.520478
-0.522043
-0.527503
-0.434997
-0.028984
0.184624
0.273206
0.310400
0.325235
0.330518
0.331931
0.332039
0.331958
0.066200
0.056740
0.050071
0.044420
0.039788
0.036177
0.033531
0.031798
0.030886
0.030662
0.030961
0.031604
0.032414
0.033239
0.033954
0.034466
0.034708
0.034630
0.034190
0.033350
0.032079
0.030349
0.028146
0.025478
0.022383
0.018940
0.015280
0.011598
0.008152
0.005282
0.003442
0.002343
0.001709
0.001141
0.000214
-0.001400
-0.003830
-0.006965
-0.010460
-0.013783
-0.016261
-0.017140
-0.015665
-0.011184
-0.003989
0.004566
0.012917
0.019143
0.021809
0.020475
0.015483
0.007369
-0.003532
-0.017098
-0.033266
-0.051890
-0.072666
-0.095072
-0.118305
-0.141158
-0.161783
-0.177242
-0.178713
-0.168065
-0.147376
-0.120642
-0.092641
-0.067325
-0.047111
-0.033163
-0.025791
-0.023594
-0.032796
-0.056950
-0.097526
-0.153475
-0.221317
-0.296266
-0.373260
-0.447568
-0.514837
-0.570798
-0.610858
-0.629401
-0.614934
-0.570790
-0.544241
-0.546164
-0.576353
-0.711776
-0.795252
0.070885
0.323432
0.379619
0.388898
0.384849
0.378028
0.372017
0.368072
0.366629
0.062582
0.052449
0.045343
0.039339
0.034435
0.030688
0.028032
0.026417
0.025751
0.025885
0.026624
0.027752
0.029056
0.030348
0.031485
0.032364
0.032919
0.033106
0.032898
0.032274
0.031219
0.029733
0.027833
0.025560
0.022988
0.020229
0.017427
0.014756
0.012400
0.010727
0.009512
0.008375
0.006957
0.004836
0.001649
-0.002799
-0.008483
-0.015146
-0.022321
-0.029350
-0.035406
-0.039533
-0.040736
-0.038136
-0.031680
-0.022511
-0.012094
-0.002617
0.003760
0.005804
0.003447
-0.002731
-0.012118
-0.024300
-0.038965
-0.055743
-0.074118
-0.093390
-0.112646
-0.130706
-0.145958
-0.153630
-0.152745
-0.145466
-0.134054
-0.121889
-0.112020
-0.106102
-0.104311
-0.105819
-0.109054
-0.111306
-0.117973
-0.134055
-0.163031
-0.208439
-0.267897
-0.336997
-0.409865
-0.480349
-0.543211
-0.593771
-0.627302
-0.637660
-0.606151
-0.566815
-0.547492
-0.547713
-0.552416
-0.632096
-0.090133
0.614985
0.540307
0.504119
0.469896
0.442798
0.422877
0.409322
0.401394
0.398631
0.057558
0.047053
0.039686
0.033442
0.028330
0.024427
0.021774
0.020275
0.019856
0.020364
0.021581
0.023255
0.025130
0.026981
0.028637
0.029981
0.030947
0.031503
0.031634
0.031340
0.030632
0.029533
0.028090
0.026374
0.024487
0.022555
0.020717
0.019090
0.017900
0.017014
0.016074
0.014681
0.012383
0.008753
0.003490
-0.003519
-0.012174
-0.022168
-0.032982
-0.043872
-0.053856
-0.061756
-0.066301
-0.066326
-0.061225
-0.052137
-0.040340
-0.028048
-0.017867
-0.011782
-0.010470
-0.013516
-0.020128
-0.029599
-0.041353
-0.054801
-0.069250
-0.083880
-0.097770
-0.109938
-0.118244
-0.121508
-0.121566
-0.120306
-0.120321
-0.124025
-0.132694
-0.146189
-0.163330
-0.182286
-0.200724
-0.216044
-0.226293
-0.235934
-0.251318
-0.276205
-0.315093
-0.365952
-0.424075
-0.481726
-0.533214
-0.573851
-0.599511
-0.599006
-0.580344
-0.559351
-0.548445
-0.552107
-0.552261
0.000000
0.863080
0.825006
0.691034
0.595799
0.532072
0.488721
0.459318
0.440210
0.429320
0.425571
0.050988
0.040496
0.033114
0.026812
0.021612
0.017598
0.014954
0.013575
0.013401
0.014286
0.016003
0.018266
0.020777
0.023271
0.025542
0.027455
0.028939
0.029968
0.030545
0.030691
0.030440
0.029841
0.028965
0.027908
0.026787
0.025733
0.024870
0.024311
0.023957
0.023570
0.022753
0.021027
0.017903
0.012969
0.005958
-0.003219
-0.014474
-0.027524
-0.041849
-0.056642
-0.070777
-0.082836
-0.091230
-0.094440
-0.091107
-0.082457
-0.069618
-0.054759
-0.040730
-0.030117
-0.024275
-0.023147
-0.025895
-0.031565
-0.039329
-0.048417
-0.058023
-0.067294
-0.075375
-0.081358
-0.084510
-0.086371
-0.088835
-0.094358
-0.105225
-0.122743
-0.146964
-0.176948
-0.211051
-0.246973
-0.281722
-0.311753
-0.333258
-0.341325
-0.342038
-0.344597
-0.353563
-0.373949
-0.405644
-0.443687
-0.481880
-0.514268
-0.534752
-0.539786
-0.537925
-0.537490
-0.545106
-0.548607
0.000000
0.822103
0.901154
0.809846
0.712579
0.627729
0.562708
0.515904
0.483396
0.462065
0.449865
0.445662
0.042752
0.032749
0.025667
0.019550
0.014437
0.010435
0.007800
0.006578
0.006657
0.007921
0.010145
0.013022
0.016218
0.019422
0.022392
0.024967
0.027065
0.028663
0.029778
0.030450
0.030735
0.030705
0.030453
0.030090
0.029741
0.029526
0.029521
0.029787
0.030103
0.030084
0.029301
0.027249
0.023439
0.017482
0.009113
-0.001790
-0.015209
-0.030932
-0.048479
-0.067012
-0.085282
-0.101642
-0.114170
-0.120935
-0.119854
-0.111770
-0.097953
-0.080543
-0.062541
-0.046996
-0.035923
-0.029775
-0.027836
-0.028990
-0.032182
-0.036486
-0.041043
-0.045054
-0.047953
-0.048898
-0.049084
-0.050742
-0.056181
-0.067781
-0.087153
-0.114823
-0.150444
-0.193031
-0.240909
-0.291517
-0.341293
-0.385852
-0.420572
-0.433348
-0.424334
-0.402585
-0.379852
-0.366000
-0.366260
-0.380227
-0.403665
-0.431013
-0.455801
-0.473744
-0.487800
-0.508752
-0.526929
0.000000
0.630580
0.743052
0.777710
0.752312
0.685204
0.619511
0.565886
0.524550
0.494400
0.474026
0.462184
0.458079
0.032748
0.023814
0.017411
0.011787
0.007003
0.003209
0.000617
-0.000418
-0.000068
0.001580
0.004312
0.007814
0.011720
0.015680
0.019411
0.022720
0.025507
0.027746
0.029463
0.030714
0.031574
0.032136
0.032508
0.032813
0.033179
0.033719
0.034506
0.035377
0.036108
0.036301
0.035475
0.033127
0.028798
0.022118
0.012805
0.000666
-0.014382
-0.032231
-0.052473
-0.074282
-0.096337
-0.116799
-0.133420
-0.143784
-0.145696
-0.138180
-0.123391
-0.103391
-0.081311
-0.060571
-0.043789
-0.032020
-0.024854
-0.021145
-0.019661
-0.019329
-0.019234
-0.018586
-0.016776
-0.014712
-0.013799
-0.016386
-0.024934
-0.041339
-0.066553
-0.100780
-0.143749
-0.194695
-0.252081
-0.313285
-0.374388
-0.430168
-0.474186
-0.497928
-0.484515
-0.445280
-0.393559
-0.347207
-0.319110
-0.310865
-0.321537
-0.347966
-0.384303
-0.418257
-0.432021
-0.470386
0.000000
0.355598
0.518107
0.600942
0.660780
0.665931
0.634064
0.591906
0.551942
0.519019
0.494096
0.476807
0.466574
0.462997
0.020925
0.013736
0.008442
0.003666
-0.000506
-0.003891
-0.006257
-0.007114
-0.006455
-0.004417
-0.001181
0.002939
0.007559
0.012294
0.016818
0.020903
0.024424
0.027346
0.029696
0.031541
0.032974
0.034103
0.035051
0.035945
0.036912
0.038051
0.039383
0.040691
0.041665
0.041904
0.040941
0.038322
0.033641
0.026550
0.016736
0.003917
-0.012102
-0.031336
-0.053479
-0.077771
-0.102880
-0.126850
-0.147187
-0.161104
-0.165986
-0.159426
-0.143885
-0.121451
-0.095425
-0.069539
-0.046936
-0.029296
-0.016670
-0.008054
-0.002135
0.002276
0.006136
0.010189
0.014779
0.018285
0.018799
0.014121
0.002307
-0.017767
-0.046529
-0.084102
-0.130431
-0.185055
-0.246718
-0.312995
-0.379991
-0.442192
-0.492518
-0.522688
-0.514307
-0.465829
-0.396972
-0.327722
-0.275376
-0.248451
-0.250107
-0.278143
-0.330622
-0.388857
-0.415069
-0.467206
-0.218752
0.193089
0.337478
0.474090
0.550769
0.577268
0.571325
0.550732
0.526357
0.503813
0.485508
0.472248
0.464215
0.461379
0.007330
0.002629
-0.001103
-0.004646
-0.007882
-0.010586
-0.012463
-0.013176
-0.012181
-0.009752
-0.006034
-0.001324
0.003984
0.009477
0.014791
0.019660
0.023927
0.027539
0.030518
0.032939
0.034905
0.036539
0.037973
0.039339
0.040756
0.042311
0.043972
0.045433
0.046395
0.046473
0.045271
0.042418
0.037576
0.030413
0.020571
0.007685
-0.008552
-0.028277
-0.051309
-0.076996
-0.104062
-0.130530
-0.153769
-0.170748
-0.178548
-0.173340
-0.157499
-0.133138
-0.103721
-0.073234
-0.045236
-0.021979
-0.004060
0.009214
0.019093
0.026798
0.033275
0.039249
0.044543
0.047000
0.045063
0.037078
0.022020
-0.000469
-0.030540
-0.068434
-0.114354
-0.168110
-0.228750
-0.294190
-0.360881
-0.423563
-0.475171
-0.506986
-0.508998
-0.463893
-0.392868
-0.316375
-0.253151
-0.215127
-0.208226
-0.238619
-0.293855
-0.353978
-0.410864
-0.519343
-0.630593
-0.064638
0.211597
0.368743
0.456142
0.497320
0.509448
0.505685
0.494854
0.482283
0.470876
0.462077
0.456551
0.454568
-0.007820
-0.009297
-0.011034
-0.012966
-0.014935
-0.016682
-0.017880
-0.018192
-0.016956
-0.014140
-0.009983
-0.004744
0.001189
0.007384
0.013445
0.019064
0.024050
0.028324
0.031896
0.034840
0.037268
0.039314
0.041115
0.042801
0.044467
0.046162
0.047832
0.049138
0.049811
0.049552
0.048069
0.045088
0.040322
0.033437
0.024035
0.011685
-0.004005
-0.023273
-0.046067
-0.071869
-0.099526
-0.127135
-0.152061
-0.171179
-0.181455
-0.178235
-0.162764
-0.137376
-0.105632
-0.071676
-0.039353
-0.011379
0.011110
0.028381
0.041468
0.051476
0.059113
0.064632
0.067841
0.066867
0.061014
0.049575
0.032332
0.009218
-0.020040
-0.055864
-0.098563
-0.148047
-0.203537
-0.263275
-0.324223
-0.381851
-0.430082
-0.461617
-0.469027
-0.443134
-0.383216
-0.314120
-0.253388
-0.214208
-0.203288
-0.220820
-0.258249
-0.300735
-0.337647
-0.363332
-0.319465
-0.052143
0.159870
0.298273
0.383321
0.431266
0.454556
0.462644
0.462328
0.458152
0.452942
0.448342
0.445252
0.444114
-0.024082
-0.021714
-0.021105
-0.021101
-0.021498
-0.022006
-0.022270
-0.021896
-0.020479
-0.017344
-0.012826
-0.007157
-0.000708
0.006087
0.012802
0.019095
0.024732
0.029603
0.033697
0.037081
0.039867
0.042195
0.044204
0.046010
0.047671
0.049152
0.050401
0.051298
0.051527
0.050899
0.049222
0.046290
0.041839
0.035530
0.026950
0.015641
0.001172
-0.016766
-0.038230
-0.062846
-0.089633
-0.116858
-0.142009
-0.161980
-0.173491
-0.173637
-0.159088
-0.133876
-0.101307
-0.065535
-0.030567
0.000548
0.026200
0.046172
0.061137
0.071948
0.078968
0.081557
0.079499
0.074734
0.065738
0.052555
0.035021
0.012867
-0.014283
-0.046809
-0.084925
-0.128479
-0.176743
-0.228184
-0.280257
-0.329276
-0.370465
-0.398345
-0.407682
-0.395226
-0.357423
-0.306594
-0.258313
-0.223623
-0.207775
-0.210259
-0.224641
-0.240057
-0.244428
-0.222822
-0.147111
0.006043
0.148119
0.256429
0.331545
0.380052
0.409027
0.424649
0.431811
0.434091
0.433932
0.432902
0.431943
0.431552
-0.040741
-0.034165
-0.031011
-0.028855
-0.027445
-0.026475
-0.025584
-0.024375
-0.022468
-0.019239
-0.014437
-0.008477
-0.001666
0.005573
0.012803
0.019643
0.025820
0.031184
0.035694
0.039400
0.042408
0.044853
0.046868
0.048557
0.049956
0.051022
0.051613
0.051958
0.051744
0.050819
0.049062
0.046303
0.042303
0.036740
0.029218
0.019295
0.006539
-0.009393
-0.028635
-0.050949
-0.075547
-0.100939
-0.124881
-0.144505
-0.156716
-0.158873
-0.146727
-0.123207
-0.091564
-0.055927
-0.020372
0.011831
0.038682
0.059489
0.074472
0.084148
0.088820
0.088515
0.083297
0.075321
0.064710
0.050944
0.033842
0.013092
-0.011655
-0.040682
-0.074086
-0.111634
-0.152608
-0.195648
-0.238639
-0.278669
-0.312158
-0.335248
-0.344546
-0.338262
-0.317011
-0.283909
-0.249194
-0.220730
-0.202398
-0.193710
-0.190061
-0.183806
-0.165797
-0.125950
-0.054344
0.047855
0.148014
0.231962
0.296054
0.341902
0.372926
0.392828
0.404908
0.411806
0.415474
0.417260
0.418025
0.418246
-0.056832
-0.046098
-0.040406
-0.036035
-0.032695
-0.030080
-0.027848
-0.025616
-0.022990
-0.019604
-0.014744
-0.008674
-0.001705
0.005777
0.013330
0.020547
0.027111
0.032827
0.037619
0.041510
0.044591
0.046987
0.048829
0.050217
0.051207
0.051797
0.051939
0.051586
0.050961
0.049790
0.047996
0.045444
0.041927
0.037163
0.030799
0.022433
0.011656
-0.001879
-0.018352
-0.037628
-0.059101
-0.081546
-0.103057
-0.121145
-0.133071
-0.136499
-0.127328
-0.106696
-0.077584
-0.043957
-0.009849
0.021366
0.047423
0.067273
0.080820
0.088495
0.090897
0.088612
0.082244
0.072661
0.061207
0.047376
0.030960
0.011666
-0.010800
-0.036638
-0.065861
-0.098186
-0.132923
-0.168883
-0.204319
-0.236956
-0.264147
-0.283208
-0.291955
-0.289388
-0.276322
-0.254934
-0.230225
-0.206965
-0.187628
-0.171860
-0.156664
-0.137159
-0.107715
-0.063179
-0.000928
0.074837
0.150386
0.217303
0.271979
0.314133
0.345179
0.367184
0.382261
0.392263
0.398664
0.402542
0.404621
0.405315
-0.071258
-0.056924
-0.048926
-0.042452
-0.037199
-0.032886
-0.029208
-0.025823
-0.022361
-0.018451
-0.013773
-0.007764
-0.000855
0.006635
0.014287
0.021675
0.028443
0.034352
0.039284
0.043230
0.046263
0.048500
0.050073
0.051097
0.051651
0.051775
0.051475
0.050754
0.049635
0.048222
0.046371
0.043992
0.040925
0.036937
0.031725
0.024932
0.016177
0.005117
-0.008450
-0.024463
-0.042452
-0.061418
-0.079776
-0.095421
-0.105974
-0.109194
-0.103347
-0.086088
-0.060585
-0.030361
0.000749
0.029401
0.053231
0.071024
0.082568
0.088314
0.089010
0.085449
0.078391
0.068552
0.056754
0.043151
0.027517
0.009590
-0.010870
-0.034008
-0.059789
-0.087921
-0.117768
-0.148301
-0.178075
-0.205295
-0.227962
-0.244147
-0.252356
-0.251937
-0.243373
-0.228343
-0.209469
-0.189371
-0.169462
-0.149502
-0.127691
-0.101191
-0.066961
-0.022787
0.031412
0.092170
0.152814
0.208251
0.255674
0.294244
0.324389
0.347191
0.363953
0.375927
0.384181
0.389541
0.392578
0.393621
-0.083031
-0.066121
-0.056223
-0.047909
-0.040909
-0.034982
-0.029881
-0.025319
-0.020968
-0.016484
-0.011557
-0.005858
0.000822
0.008108
0.015638
0.022990
0.029781
0.035730
0.040679
0.044590
0.047514
0.049558
0.050856
0.051530
0.051679
0.051373
0.050658
0.049572
0.048148
0.046449
0.044487
0.042217
0.039533
0.036254
0.032121
0.026801
0.019925
0.011144
0.000235
-0.012788
-0.027548
-0.043206
-0.058422
-0.071414
-0.080162
-0.082758
-0.077901
-0.063969
-0.042310
-0.016019
0.011399
0.036764
0.057750
0.073104
0.082565
0.086562
0.085873
0.081359
0.073823
0.063933
0.052188
0.038971
0.024107
0.007385
-0.011397
-0.032350
-0.055429
-0.080356
-0.106563
-0.133153
-0.158916
-0.182386
-0.201989
-0.216245
-0.224029
-0.224817
-0.218831
-0.207160
-0.191369
-0.172887
-0.152520
-0.130150
-0.104790
-0.074940
-0.039156
0.003265
0.051608
0.103355
0.154749
0.202559
0.244706
0.280281
0.309264
0.332175
0.349794
0.362953
0.372413
0.378785
0.382504
0.383806
-0.091563
-0.073307
-0.061977
-0.052186
-0.043729
-0.036424
-0.030080
-0.024466
-0.019298
-0.014252
-0.009010
-0.003305
0.003047
0.010012
0.017283
0.024457
0.031141
0.037027
0.041923
0.045761
0.048566
0.050434
0.051489
0.051858
0.051651
0.050959
0.049858
0.048417
0.046700
0.044764
0.042641
0.040423
0.038062
0.035412
0.032230
0.028184
0.022887
0.015974
0.007198
-0.003461
-0.015686
-0.028740
-0.041446
-0.052243
-0.059371
-0.061161
-0.056423
-0.044403
-0.025721
-0.002832
0.021215
0.043495
0.061789
0.074855
0.082402
0.084836
0.082943
0.077612
0.069656
0.059702
0.048124
0.035280
0.021088
0.005358
-0.012094
-0.031373
-0.052440
-0.075043
-0.098671
-0.122534
-0.145582
-0.166567
-0.184175
-0.197182
-0.204654
-0.206102
-0.201573
-0.191705
-0.177490
-0.159767
-0.139048
-0.115335
-0.088161
-0.056836
-0.020822
0.019848
0.064247
0.110492
0.156156
0.199029
0.237543
0.270864
0.298779
0.321504
0.339505
0.353338
0.363550
0.370602
0.374820
0.376343
-0.096844
-0.078207
-0.065839
-0.054995
-0.045508
-0.037228
-0.030000
-0.023630
-0.017863
-0.012395
-0.006905
-0.001113
0.005159
0.011846
0.018866
0.025847
0.032397
0.038197
0.043034
0.046809
0.049527
0.051264
0.052136
0.052268
0.051778
0.050769
0.049335
0.047566
0.045560
0.043423
0.041209
0.039052
0.037000
0.034882
0.032436
0.029311
0.025108
0.019450
0.012081
0.002965
-0.007612
-0.018973
-0.030033
-0.039369
-0.045380
-0.046548
-0.041758
-0.030630
-0.013735
0.006933
0.028677
0.048791
0.065142
0.076505
0.082578
0.083770
0.080890
0.074857
0.066503
0.056440
0.045004
0.032475
0.018815
0.003814
-0.012711
-0.030861
-0.050600
-0.071693
-0.093671
-0.115810
-0.137161
-0.156611
-0.172993
-0.185230
-0.192480
-0.194263
-0.190519
-0.181617
-0.168185
-0.150800
-0.129850
-0.105429
-0.077379
-0.045460
-0.009613
0.029788
0.071776
0.114825
0.157133
0.197032
0.233265
0.265083
0.292200
0.314682
0.332817
0.347003
0.357659
0.365164
0.369801
0.371643
-0.099540
-0.080472
-0.067450
-0.056098
-0.046173
-0.037506
-0.029943
-0.023293
-0.017304
-0.011676
-0.006091
-0.000269
0.005990
0.012774
0.019760
0.026665
0.033172
0.038968
0.043820
0.047604
0.050306
0.051992
0.052773
0.052774
0.052117
0.050912
0.049260
0.047265
0.045054
0.042795
0.040732
0.038818
0.036977
0.035106
0.032956
0.030176
0.026371
0.021175
0.014339
0.005834
-0.004055
-0.014673
-0.024976
-0.033607
-0.039052
-0.039878
-0.035015
-0.023989
-0.007739
0.012028
0.032838
0.052059
0.067557
0.078086
0.083342
0.083759
0.080192
0.073616
0.064906
0.054729
0.043519
0.031274
0.017862
0.003159
-0.012990
-0.030670
-0.049839
-0.070265
-0.091492
-0.112829
-0.133374
-0.152080
-0.167854
-0.179688
-0.186787
-0.188673
-0.185230
-0.176657
-0.163516
-0.146243
-0.125164
-0.100422
-0.071998
-0.039857
-0.004143
0.034630
0.075490
0.117066
0.157809
0.196287
0.231390
0.262426
0.289092
0.311393
0.329544
0.343869
0.354735
0.362506
0.367545
0.370306
