# vtk DataFile Version 3.0
Scalar Field
ASCII
DATASET RECTILINEAR_GRID
DIMENSIONS 100 26 1
X_COORDINATES 100 double
0.050000 0.150000 0.250000 0.350000 0.450000 0.550000 0.650000 0.750000 0.850000 0.950000 1.050000 1.150000 1.250000 1.350000 1.450000 1.550000 1.650000 1.750000 1.850000 1.950000 2.050000 2.150000 2.250000 2.350000 2.450000 2.550000 2.650000 2.750000 2.850000 2.950000 3.050000 3.150000 3.250000 3.350000 3.450000 3.550000 3.650000 3.750000 3.850000 3.950000 4.050000 4.150000 4.250000 4.350000 4.450000 4.550000 4.650000 4.750000 4.850000 4.950000 5.050000 5.150000 5.250000 5.350000 5.450000 5.550000 5.650000 5.750000 5.850000 5.950000 6.050000 6.150000 6.250000 6.350000 6.450000 6.550000 6.650000 6.750000 6.850000 6.950000 7.050000 7.150000 7.250000 7.350000 7.450000 7.550000 7.650000 7.750000 7.850000 7.950000 8.050000 8.150000 8.250000 8.350000 8.450000 8.550000 8.650000 8.750000 8.850000 8.950000 9.050000 9.150000 9.250000 9.350000 9.450000 9.550000 9.650000 9.750000 9.850000 9.950000 
Y_COORDINATES 26 double
0.050000 0.150000 0.250000 0.350000 0.450000 0.550000 0.650000 0.750000 0.850000 0.950000 1.050000 1.150000 1.250000 1.350000 1.450000 1.550000 1.650000 1.750000 1.850000 1.950000 2.050000 2.150000 2.250000 2.350000 2.450000 2.550000 
Z_COORDINATES 1 double
0.0
POINT_DATA 2600
SCALARS Skalarfeld double 1
LOOKUP_TABLE default
0.088538
0.095748
0.096085
0.095762
0.095823
0.096582
0.097805
0.098947
0.099412
0.098754
0.096772
0.093520
0.089261
0.084376
0.079282
0.074344
0.069824
0.065849
0.062420
0.059443
0.056783
0.054317
0.052005
0.049957
0.048389
0.047277
0.046668
0.046371
0.046003
0.045113
0.043334
0.040512
0.036786
0.032610
0.028706
0.025956
0.025241
0.027255
0.032337
0.039890
0.048799
0.057632
0.064988
0.069898
0.071982
0.071386
0.068593
0.064236
0.058957
0.053323
0.047773
0.042606
0.037725
0.032842
0.027701
0.021974
0.015349
0.007584
-0.001458
-0.011779
-0.023230
-0.035498
-0.048120
-0.060509
-0.072015
-0.082012
-0.090021
-0.095838
-0.099645
-0.102062
-0.104271
-0.107368
-0.112357
-0.119892
-0.130167
-0.142929
-0.157578
-0.173327
-0.189221
-0.204158
-0.216977
-0.226496
-0.231574
-0.231172
-0.224437
-0.210915
-0.190462
-0.163416
-0.130680
-0.093731
-0.054513
-0.015193
0.022190
0.056036
0.085293
0.109420
0.128251
0.141862
0.150480
0.154511
0.099217
0.098467
0.096628
0.095078
0.094498
0.094888
0.095841
0.096764
0.097074
0.096342
0.094374
0.091214
0.087102
0.082402
0.077513
0.072795
0.068507
0.064779
0.061610
0.058903
0.056513
0.054301
0.052194
0.050183
0.048345
0.046971
0.046051
0.045409
0.044688
0.043449
0.041324
0.038154
0.034081
0.029574
0.025381
0.022423
0.021618
0.023663
0.028800
0.036659
0.045943
0.055046
0.062582
0.067666
0.069997
0.069755
0.067410
0.063544
0.058736
0.053488
0.048165
0.042941
0.037887
0.032901
0.027649
0.021785
0.014995
0.007030
-0.002248
-0.012846
-0.024611
-0.037224
-0.050204
-0.062931
-0.074702
-0.084823
-0.092734
-0.098160
-0.101254
-0.102777
-0.103888
-0.105939
-0.110140
-0.117283
-0.127611
-0.140851
-0.156340
-0.173146
-0.190202
-0.206352
-0.220377
-0.231040
-0.237142
-0.237587
-0.231474
-0.218271
-0.197768
-0.170231
-0.136504
-0.098068
-0.056995
-0.015714
0.023445
0.058707
0.088971
0.113728
0.132885
0.146571
0.154974
0.158148
0.112208
0.102044
0.097041
0.093793
0.092216
0.091968
0.092470
0.093062
0.093147
0.092306
0.090345
0.087298
0.083388
0.078960
0.074400
0.070060
0.066196
0.062927
0.060236
0.058015
0.056092
0.054328
0.052576
0.050781
0.049001
0.047352
0.045851
0.044380
0.042670
0.040370
0.037180
0.032990
0.027984
0.022669
0.017850
0.014506
0.013604
0.015880
0.021849
0.030764
0.041000
0.050849
0.058955
0.064538
0.067399
0.067774
0.066121
0.062957
0.058773
0.054000
0.048967
0.043861
0.038785
0.033572
0.027952
0.021622
0.014294
0.005732
-0.004198
-0.015502
-0.028022
-0.041428
-0.055203
-0.068669
-0.081021
-0.091426
-0.099154
-0.103762
-0.105292
-0.104620
-0.103246
-0.102954
-0.105404
-0.111691
-0.122148
-0.136403
-0.153585
-0.172546
-0.192033
-0.210732
-0.227294
-0.240360
-0.248618
-0.250861
-0.246044
-0.233551
-0.213030
-0.184552
-0.148793
-0.107195
-0.062091
-0.016539
0.026391
0.064554
0.096780
0.122697
0.142419
0.156275
0.164593
0.167558
0.121941
0.104831
0.096916
0.091879
0.089155
0.088093
0.087964
0.088055
0.087765
0.086686
0.084632
0.081635
0.077910
0.073786
0.069640
0.065815
0.062554
0.059948
0.057923
0.056428
0.055263
0.054113
0.052800
0.051253
0.049480
0.047515
0.045347
0.042870
0.039887
0.036151
0.031473
0.025845
0.019539
0.013152
0.007576
0.003866
0.002999
0.006214
0.013777
0.024067
0.035342
0.045919
0.054570
0.060671
0.064137
0.065246
0.064425
0.062095
0.058624
0.054366
0.049624
0.044770
0.039698
0.034246
0.028178
0.021225
0.013129
0.003679
-0.007248
-0.019652
-0.033370
-0.048056
-0.063156
-0.077903
-0.091344
-0.102414
-0.110085
-0.113601
-0.112772
-0.108490
-0.102749
-0.098268
-0.097580
-0.102331
-0.112986
-0.128942
-0.148926
-0.171352
-0.194673
-0.217378
-0.237926
-0.254785
-0.266479
-0.271653
-0.269108
-0.257990
-0.237768
-0.208158
-0.169442
-0.122805
-0.070861
-0.017879
0.031378
0.074173
0.109327
0.136817
0.157206
0.171213
0.179460
0.182343
0.126713
0.105567
0.095537
0.089041
0.085245
0.083317
0.082442
0.081887
0.081064
0.079590
0.077299
0.074235
0.070612
0.066756
0.063036
0.059787
0.057241
0.055452
0.054410
0.053921
0.053589
0.053116
0.052280
0.050969
0.049153
0.046828
0.043960
0.040454
0.036163
0.030937
0.024707
0.017599
0.010013
0.002672
-0.003421
-0.007115
-0.007269
-0.002118
0.006808
0.017987
0.029671
0.040353
0.049054
0.055365
0.059330
0.061238
0.061422
0.060131
0.057538
0.053921
0.049804
0.045278
0.040207
0.034489
0.027919
0.020249
0.011234
0.000674
-0.011552
-0.025445
-0.040849
-0.057413
-0.074543
-0.091375
-0.106751
-0.119257
-0.127372
-0.129770
-0.125824
-0.115869
-0.102963
-0.091548
-0.085672
-0.087911
-0.098897
-0.117519
-0.141760
-0.169197
-0.197997
-0.226415
-0.252658
-0.274954
-0.291619
-0.301128
-0.302166
-0.293530
-0.274435
-0.244067
-0.201911
-0.148225
-0.085462
-0.020003
0.039199
0.088733
0.127686
0.156872
0.177713
0.191597
0.199588
0.202344
0.126497
0.103843
0.092614
0.085134
0.080468
0.077716
0.076043
0.074731
0.073232
0.071205
0.068519
0.065243
0.061602
0.057925
0.054582
0.051905
0.050121
0.049277
0.049338
0.049865
0.050471
0.050768
0.050471
0.049429
0.047589
0.044937
0.041440
0.037023
0.031596
0.025103
0.017607
0.009375
0.000955
-0.006809
-0.012844
-0.016059
-0.014182
-0.007770
0.001695
0.012692
0.023666
0.033420
0.041302
0.047183
0.051286
0.053946
0.055369
0.055503
0.054119
0.051891
0.048966
0.044923
0.039912
0.033926
0.026820
0.018362
0.008304
-0.003561
-0.017369
-0.033141
-0.050745
-0.069845
-0.089829
-0.109737
-0.128170
-0.143247
-0.152694
-0.154212
-0.146081
-0.127252
-0.103428
-0.081678
-0.068236
-0.067005
-0.078825
-0.101571
-0.131818
-0.165907
-0.202046
-0.238157
-0.272095
-0.301759
-0.325185
-0.340660
-0.346840
-0.342399
-0.326025
-0.296408
-0.251729
-0.189697
-0.110451
-0.023179
0.051506
0.110302
0.153532
0.183919
0.204450
0.217538
0.224844
0.227323
0.122063
0.099719
0.088124
0.080150
0.074868
0.071391
0.068915
0.066775
0.064486
0.061764
0.058531
0.054891
0.051094
0.047483
0.044434
0.042283
0.041253
0.041390
0.042449
0.044018
0.045611
0.046746
0.047067
0.046381
0.044621
0.041781
0.037846
0.032788
0.026586
0.019287
0.011082
0.002376
-0.006159
-0.013600
-0.018851
-0.020597
-0.017266
-0.010603
-0.001772
0.007806
0.016865
0.024578
0.030644
0.035217
0.038729
0.041658
0.044236
0.046147
0.047299
0.047651
0.046183
0.042972
0.038225
0.032069
0.024454
0.015186
0.004015
-0.009285
-0.024872
-0.042796
-0.062960
-0.085055
-0.108477
-0.132196
-0.154576
-0.173195
-0.184794
-0.185722
-0.169573
-0.138315
-0.100731
-0.066647
-0.044467
-0.039723
-0.053830
-0.082854
-0.119821
-0.162074
-0.207453
-0.253358
-0.297138
-0.336241
-0.368312
-0.391349
-0.403970
-0.405617
-0.394150
-0.368550
-0.325854
-0.258232
-0.156053
-0.027547
0.071807
0.142470
0.189295
0.219197
0.237798
0.248898
0.254810
0.256769
0.114293
0.093465
0.082183
0.074155
0.068519
0.064447
0.061208
0.058212
0.055054
0.051524
0.047606
0.043454
0.039356
0.035683
0.032829
0.031134
0.030812
0.031834
0.033856
0.036448
0.039039
0.041064
0.042093
0.041891
0.040386
0.037586
0.033518
0.028213
0.021732
0.014227
0.006006
-0.002421
-0.010320
-0.016780
-0.020847
-0.020568
-0.017024
-0.011088
-0.003958
0.003153
0.009319
0.014082
0.017463
0.019855
0.021867
0.024149
0.027180
0.031031
0.035435
0.038600
0.039620
0.038103
0.034192
0.028198
0.020266
0.010308
-0.001890
-0.016552
-0.033836
-0.053796
-0.076338
-0.101157
-0.127644
-0.154712
-0.180527
-0.202127
-0.215107
-0.211992
-0.183951
-0.140906
-0.092348
-0.048783
-0.019802
-0.012982
-0.031867
-0.066574
-0.109238
-0.160382
-0.216360
-0.273657
-0.328926
-0.379039
-0.421110
-0.452626
-0.471901
-0.479149
-0.473598
-0.456293
-0.426721
-0.369927
-0.246096
-0.033042
0.107859
0.191233
0.238062
0.263747
0.277668
0.285032
0.288601
0.289725
0.103920
0.085387
0.074943
0.067242
0.061508
0.057001
0.053077
0.049242
0.045178
0.040757
0.036037
0.031233
0.026688
0.022818
0.020047
0.018726
0.019058
0.020889
0.023847
0.027447
0.031051
0.034019
0.035862
0.036307
0.035276
0.032806
0.028972
0.023874
0.017658
0.010571
0.003006
-0.004468
-0.011124
-0.016143
-0.018480
-0.017407
-0.014232
-0.009778
-0.005101
-0.001140
0.001527
0.002773
0.002877
0.002409
0.002120
0.002824
0.005278
0.010033
0.016326
0.022473
0.026869
0.028281
0.026341
0.021331
0.013640
0.003425
-0.009387
-0.024938
-0.043321
-0.064518
-0.088359
-0.114465
-0.142161
-0.170289
-0.196871
-0.218494
-0.229371
-0.215165
-0.182583
-0.137850
-0.089874
-0.047503
-0.018539
-0.010597
-0.030931
-0.061471
-0.108827
-0.167919
-0.233699
-0.301765
-0.367948
-0.428470
-0.479817
-0.518673
-0.542248
-0.549743
-0.544292
-0.535982
-0.535206
-0.536431
-0.438568
-0.034149
0.177434
0.265361
0.302457
0.317424
0.322894
0.324473
0.324692
0.324659
0.091492
0.075751
0.066555
0.059511
0.053934
0.049176
0.044690
0.040077
0.035112
0.029755
0.024140
0.018560
0.013428
0.009225
0.006422
0.005393
0.006329
0.008940
0.012828
0.017450
0.022104
0.026094
0.028876
0.030150
0.029838
0.028003
0.024776
0.020323
0.014868
0.008730
0.002352
-0.003695
-0.008750
-0.012169
-0.012924
-0.011841
-0.009612
-0.007129
-0.005290
-0.004757
-0.005807
-0.008312
-0.011821
-0.015634
-0.018882
-0.020587
-0.019772
-0.015648
-0.008684
-0.000393
0.007300
0.012340
0.013491
0.010615
0.004163
-0.005433
-0.017985
-0.033442
-0.051735
-0.072685
-0.095958
-0.121033
-0.147133
-0.173068
-0.196885
-0.215121
-0.216499
-0.201799
-0.174806
-0.141068
-0.107305
-0.079347
-0.061622
-0.057522
-0.066342
-0.095161
-0.139857
-0.198164
-0.266175
-0.338899
-0.410311
-0.475690
-0.530938
-0.572041
-0.594669
-0.592235
-0.573939
-0.569415
-0.595536
-0.724689
-0.793800
0.067661
0.316724
0.371927
0.381053
0.377141
0.370523
0.364689
0.360861
0.359466
0.077379
0.064770
0.057157
0.051070
0.045908
0.041111
0.036226
0.030946
0.025134
0.018834
0.012266
0.005811
-0.000030
-0.004690
-0.007630
-0.008438
-0.006917
-0.003549
0.001289
0.006977
0.012752
0.017861
0.021722
0.024010
0.024647
0.023726
0.021424
0.017972
0.013652
0.008830
0.003960
-0.000428
-0.003786
-0.005599
-0.005642
-0.004819
-0.003819
-0.003469
-0.004490
-0.007306
-0.011978
-0.018228
-0.025508
-0.033035
-0.039812
-0.044674
-0.046407
-0.043970
-0.037371
-0.027981
-0.017687
-0.009022
-0.004094
-0.003767
-0.007800
-0.015581
-0.026626
-0.040614
-0.057243
-0.076119
-0.096711
-0.118352
-0.140214
-0.161199
-0.179590
-0.189284
-0.189265
-0.181330
-0.168433
-0.154863
-0.144535
-0.139887
-0.141947
-0.150825
-0.160247
-0.180365
-0.212806
-0.258256
-0.314921
-0.379640
-0.444071
-0.503444
-0.553053
-0.588517
-0.605904
-0.589906
-0.571941
-0.568738
-0.573577
-0.649133
-0.091637
0.610527
0.533428
0.496520
0.462233
0.435302
0.415590
0.402210
0.394395
0.391676
0.061833
0.052625
0.046886
0.042041
0.037561
0.032966
0.027887
0.022096
0.015538
0.008338
0.000805
-0.006582
-0.013215
-0.018424
-0.021586
-0.022236
-0.020169
-0.016034
-0.010208
-0.003390
0.003586
0.009917
0.014984
0.018443
0.020216
0.020418
0.019267
0.017044
0.014073
0.010739
0.007478
0.004739
0.002888
0.002401
0.002632
0.002972
0.002683
0.001013
-0.002604
-0.008433
-0.016422
-0.026246
-0.037329
-0.048825
-0.059602
-0.068277
-0.073347
-0.073445
-0.067904
-0.058155
-0.045909
-0.033871
-0.024814
-0.020411
-0.020878
-0.025581
-0.033765
-0.044823
-0.058206
-0.073311
-0.089446
-0.105869
-0.121827
-0.136506
-0.147101
-0.153429
-0.157103
-0.160087
-0.165156
-0.174758
-0.190015
-0.210537
-0.234730
-0.259186
-0.279228
-0.295923
-0.315043
-0.338658
-0.369431
-0.408834
-0.453878
-0.498089
-0.535961
-0.562334
-0.571311
-0.565922
-0.560332
-0.566850
-0.570213
0.000000
0.856557
0.817296
0.683604
0.588290
0.524695
0.481551
0.452349
0.433399
0.422607
0.418894
0.045055
0.039494
0.035894
0.032565
0.029042
0.024914
0.019880
0.013781
0.006632
-0.001367
-0.009816
-0.018128
-0.025574
-0.031372
-0.034800
-0.035338
-0.032774
-0.027870
-0.021025
-0.013032
-0.004795
0.002830
0.009190
0.013920
0.016940
0.018378
0.018485
0.017573
0.015997
0.014141
0.012409
0.011177
0.010744
0.010905
0.011221
0.011028
0.009580
0.006203
0.000436
-0.007911
-0.018775
-0.031865
-0.046623
-0.062164
-0.077224
-0.090189
-0.099230
-0.102590
-0.098654
-0.088979
-0.075132
-0.059866
-0.046402
-0.037181
-0.033041
-0.033510
-0.037645
-0.044556
-0.053467
-0.063617
-0.074231
-0.084585
-0.094171
-0.101827
-0.107970
-0.114735
-0.124304
-0.139168
-0.161304
-0.191447
-0.228933
-0.271881
-0.317189
-0.360102
-0.394056
-0.415087
-0.423632
-0.424144
-0.422374
-0.427503
-0.441902
-0.463210
-0.486259
-0.505082
-0.514885
-0.524668
-0.538867
-0.552858
0.000000
0.816187
0.895819
0.802574
0.704939
0.620491
0.555785
0.509185
0.476843
0.455634
0.443506
0.439327
0.027255
0.025578
0.024356
0.022805
0.020515
0.017133
0.012413
0.006251
-0.001282
-0.009913
-0.019150
-0.028295
-0.036494
-0.042846
-0.046535
-0.046981
-0.044005
-0.038345
-0.030491
-0.021324
-0.011823
-0.002895
0.004772
0.010792
0.015074
0.017753
0.019099
0.019446
0.019163
0.018626
0.018195
0.018149
0.018602
0.019305
0.019650
0.018997
0.016640
0.011973
0.004594
-0.005689
-0.018876
-0.034758
-0.052837
-0.072220
-0.091545
-0.108980
-0.122355
-0.129468
-0.127897
-0.118530
-0.103220
-0.084713
-0.066551
-0.051855
-0.042192
-0.037458
-0.036651
-0.038640
-0.042435
-0.047162
-0.052014
-0.056324
-0.059644
-0.062588
-0.067170
-0.075960
-0.091696
-0.116556
-0.151609
-0.196741
-0.250770
-0.311343
-0.374604
-0.434906
-0.485318
-0.519130
-0.518631
-0.497441
-0.464269
-0.435508
-0.418493
-0.416167
-0.425073
-0.439191
-0.455049
-0.480193
-0.509530
0.000000
0.625601
0.736556
0.771718
0.745947
0.679397
0.613476
0.559682
0.518396
0.488344
0.468039
0.456233
0.452136
0.008704
0.011126
0.012487
0.012946
0.012148
0.009791
0.005671
-0.000275
-0.007929
-0.016952
-0.026765
-0.036557
-0.045357
-0.052154
-0.056045
-0.056397
-0.053119
-0.046751
-0.037958
-0.027694
-0.017008
-0.006853
0.002046
0.009279
0.014739
0.018558
0.021012
0.022451
0.023252
0.023782
0.024363
0.025202
0.026308
0.027287
0.027608
0.026612
0.023633
0.018120
0.009688
-0.001902
-0.016748
-0.034756
-0.055520
-0.078191
-0.101366
-0.123049
-0.140748
-0.151741
-0.153519
-0.144652
-0.128029
-0.106307
-0.083270
-0.062631
-0.046734
-0.036048
-0.029715
-0.026454
-0.025080
-0.024615
-0.024262
-0.023535
-0.022307
-0.022631
-0.027216
-0.038771
-0.059690
-0.091462
-0.134660
-0.189063
-0.253572
-0.325828
-0.401717
-0.475062
-0.537832
-0.580860
-0.586518
-0.549221
-0.490435
-0.431977
-0.390066
-0.370287
-0.369879
-0.381912
-0.394675
-0.437434
0.000000
0.355464
0.514647
0.596280
0.655722
0.660651
0.628847
0.586655
0.546657
0.513644
0.488640
0.471306
0.461060
0.457473
-0.010226
-0.003552
0.000537
0.003188
0.004103
0.003028
-0.000206
-0.005633
-0.013097
-0.022204
-0.032294
-0.042459
-0.051627
-0.058693
-0.062696
-0.062976
-0.059420
-0.052475
-0.042892
-0.031696
-0.019989
-0.008773
0.001195
0.009473
0.015936
0.020701
0.024049
0.026337
0.027947
0.029245
0.030529
0.031974
0.033435
0.034571
0.034844
0.033617
0.030280
0.024333
0.015391
0.003152
-0.012591
-0.031869
-0.054404
-0.079443
-0.105619
-0.130865
-0.152474
-0.167346
-0.172494
-0.164867
-0.147389
-0.122774
-0.095048
-0.068420
-0.045981
-0.028920
-0.016766
-0.008257
-0.002084
0.002825
0.007338
0.012217
0.015404
0.015109
0.008682
-0.006260
-0.031305
-0.067270
-0.114464
-0.172776
-0.241389
-0.318236
-0.399413
-0.478724
-0.547553
-0.595170
-0.609402
-0.569541
-0.498590
-0.422581
-0.362227
-0.328340
-0.323342
-0.340780
-0.360000
-0.417865
-0.204743
0.196281
0.337210
0.471521
0.547300
0.573309
0.567074
0.546260
0.521702
0.498998
0.480566
0.467223
0.459136
0.456275
-0.029036
-0.018069
-0.011204
-0.006266
-0.003482
-0.003061
-0.005143
-0.009737
-0.016665
-0.025491
-0.035494
-0.045692
-0.054935
-0.062057
-0.066054
-0.066264
-0.062502
-0.055140
-0.044975
-0.033076
-0.020588
-0.008549
0.002251
0.011338
0.018560
0.024019
0.027992
0.030843
0.032962
0.034719
0.036403
0.038164
0.039779
0.040939
0.041116
0.039729
0.036248
0.030227
0.021278
0.009042
-0.006783
-0.026353
-0.049530
-0.075707
-0.103629
-0.131274
-0.155860
-0.174090
-0.182737
-0.176975
-0.159341
-0.132608
-0.100964
-0.068978
-0.040361
-0.017058
0.000823
0.014288
0.024607
0.032804
0.039606
0.045743
0.048262
0.045439
0.035312
0.016542
-0.011462
-0.048962
-0.096233
-0.153403
-0.219981
-0.294293
-0.372950
-0.450385
-0.518660
-0.567831
-0.587411
-0.561116
-0.492277
-0.414506
-0.348293
-0.306286
-0.294530
-0.313871
-0.360437
-0.475729
-0.605766
-0.056415
0.213547
0.367986
0.454111
0.494508
0.506095
0.501934
0.490795
0.477985
0.466399
0.457478
0.451875
0.449859
-0.047088
-0.031972
-0.022418
-0.015214
-0.010504
-0.008443
-0.009142
-0.012599
-0.018625
-0.026769
-0.036282
-0.046141
-0.055152
-0.062109
-0.065989
-0.066130
-0.062262
-0.054666
-0.044157
-0.031825
-0.018836
-0.006254
0.005098
0.014716
0.022418
0.028289
0.032599
0.035721
0.038058
0.039983
0.041779
0.043564
0.045149
0.046175
0.046177
0.044669
0.041213
0.035417
0.026897
0.015259
0.000131
-0.018741
-0.041354
-0.067266
-0.095402
-0.123895
-0.150041
-0.170486
-0.181743
-0.179406
-0.162449
-0.134877
-0.100772
-0.064874
-0.031332
-0.002748
0.020101
0.037766
0.051253
0.061249
0.067851
0.071118
0.069774
0.062407
0.048085
0.026583
-0.002125
-0.038349
-0.082531
-0.134889
-0.195019
-0.261500
-0.331477
-0.400329
-0.461547
-0.507096
-0.528566
-0.519414
-0.470760
-0.405912
-0.346358
-0.305440
-0.287996
-0.292288
-0.312160
-0.337606
-0.302828
-0.045156
0.162318
0.298439
0.382177
0.429229
0.451864
0.459456
0.458759
0.454292
0.448867
0.444119
0.440938
0.439760
-0.063620
-0.044752
-0.032776
-0.023479
-0.016907
-0.013154
-0.012299
-0.014337
-0.019094
-0.026144
-0.034755
-0.043909
-0.052401
-0.059010
-0.062693
-0.062779
-0.058934
-0.051291
-0.040680
-0.028186
-0.014980
-0.002144
0.009473
0.019337
0.027235
0.033236
0.037606
0.040726
0.043013
0.044845
0.046492
0.048047
0.049358
0.050081
0.049835
0.048239
0.044942
0.039603
0.031849
0.021278
0.007491
-0.009825
-0.030767
-0.055052
-0.081820
-0.109452
-0.135483
-0.156709
-0.169585
-0.170853
-0.156043
-0.129423
-0.094907
-0.057280
-0.020953
0.010961
0.037025
0.057192
0.072028
0.081813
0.085768
0.082272
0.075994
0.064910
0.048642
0.026978
-0.000333
-0.033638
-0.073254
-0.119231
-0.171084
-0.227500
-0.286067
-0.343069
-0.393507
-0.431489
-0.451220
-0.448728
-0.423998
-0.379613
-0.333113
-0.295311
-0.270134
-0.255280
-0.242429
-0.215076
-0.140562
0.009488
0.149595
0.256538
0.330645
0.378362
0.406708
0.421829
0.428596
0.430569
0.430182
0.428994
0.427937
0.427505
-0.077791
-0.055889
-0.041961
-0.030916
-0.022689
-0.017298
-0.014788
-0.015165
-0.018304
-0.023855
-0.031168
-0.039286
-0.047033
-0.053176
-0.056637
-0.056687
-0.053068
-0.045533
-0.035038
-0.022627
-0.009462
0.003367
0.014986
0.024831
0.032665
0.038540
0.042721
0.045599
0.047599
0.049102
0.050359
0.051427
0.052277
0.052579
0.052051
0.050407
0.047366
0.042628
0.035847
0.026641
0.014622
-0.000536
-0.018987
-0.040572
-0.064634
-0.089847
-0.114109
-0.134606
-0.148147
-0.151889
-0.140664
-0.116874
-0.084238
-0.047452
-0.011035
0.021547
0.048284
0.068473
0.082117
0.089317
0.090080
0.084573
0.073997
0.061010
0.044122
0.023139
-0.002235
-0.032291
-0.067198
-0.106852
-0.150686
-0.197480
-0.245192
-0.290889
-0.330846
-0.360937
-0.377400
-0.377988
-0.363353
-0.335007
-0.300522
-0.266981
-0.237126
-0.209064
-0.176481
-0.129055
-0.054702
0.047948
0.147890
0.231357
0.294890
0.340189
0.370716
0.390188
0.401909
0.408521
0.411970
0.413602
0.414271
0.414452
-0.088754
-0.064900
-0.049704
-0.037429
-0.027890
-0.021024
-0.016841
-0.015367
-0.016568
-0.020238
-0.025890
-0.032697
-0.039546
-0.045194
-0.048498
-0.048643
-0.045303
-0.038082
-0.027904
-0.015780
-0.002864
0.009744
0.021149
0.030758
0.038312
0.043850
0.047638
0.050076
0.051598
0.052582
0.053267
0.053697
0.053949
0.053774
0.052960
0.051297
0.048557
0.044480
0.038756
0.031039
0.020971
0.008244
-0.007316
-0.025621
-0.046172
-0.067906
-0.089105
-0.107426
-0.120136
-0.124617
-0.118013
-0.098287
-0.069519
-0.035969
-0.002054
0.028602
0.053627
0.071906
0.083250
0.087991
0.086673
0.079979
0.068857
0.054761
0.037903
0.017916
-0.005474
-0.032480
-0.063168
-0.097337
-0.134395
-0.173234
-0.212144
-0.248815
-0.280472
-0.304206
-0.317505
-0.318937
-0.308758
-0.288410
-0.261241
-0.230958
-0.199102
-0.164534
-0.123728
-0.071897
-0.005599
0.072150
0.148540
0.215677
0.270250
0.312148
0.342881
0.364572
0.379364
0.389124
0.395332
0.399071
0.401063
0.401719
-0.095784
-0.071429
-0.055825
-0.042966
-0.032566
-0.024486
-0.018692
-0.015239
-0.014228
-0.015679
-0.019361
-0.024652
-0.030532
-0.035734
-0.039012
-0.039416
-0.036480
-0.029752
-0.020050
-0.008362
0.004160
0.016398
0.027435
0.036651
0.043770
0.048822
0.052077
0.053941
0.054857
0.055206
0.055236
0.055027
0.054569
0.053917
0.052821
0.051140
0.048697
0.045272
0.040595
0.034353
0.026213
0.015881
0.003180
-0.011838
-0.028769
-0.046743
-0.064352
-0.079682
-0.090493
-0.094587
-0.090332
-0.075319
-0.051552
-0.022804
0.006830
0.033815
0.055699
0.071242
0.080210
0.083005
0.080331
0.073017
0.061932
0.047835
0.031483
0.012630
-0.008905
-0.033258
-0.060420
-0.090147
-0.121867
-0.154595
-0.186900
-0.216934
-0.242572
-0.261666
-0.272406
-0.273717
-0.265535
-0.248825
-0.225387
-0.197049
-0.164675
-0.127810
-0.084948
-0.034441
0.023962
0.087292
0.149387
0.205555
0.253264
0.291859
0.321888
0.344509
0.361073
0.372862
0.380961
0.386204
0.389165
0.390175
-0.098461
-0.075344
-0.060263
-0.047499
-0.036731
-0.027754
-0.020479
-0.014995
-0.011581
-0.010572
-0.012083
-0.015754
-0.020671
-0.025527
-0.028939
-0.029776
-0.027406
-0.021342
-0.012239
-0.001078
0.010970
0.022761
0.033347
0.042088
0.048692
0.053186
0.055844
0.057084
0.057352
0.057039
0.056407
0.055573
0.054533
0.053364
0.051965
0.050233
0.048044
0.045222
0.041527
0.036658
0.030281
0.022089
0.011891
-0.000287
-0.014096
-0.028782
-0.043148
-0.055593
-0.064275
-0.067410
-0.063697
-0.051944
-0.032712
-0.008917
0.015964
0.038731
0.057055
0.069694
0.076375
0.077484
0.073746
0.065991
0.054996
0.041346
0.025642
0.007883
-0.012041
-0.034204
-0.058556
-0.084847
-0.112544
-0.140779
-0.168335
-0.193690
-0.215139
-0.230988
-0.239813
-0.240696
-0.233383
-0.218385
-0.196801
-0.169604
-0.137401
-0.100243
-0.057823
-0.010024
0.042314
0.096825
0.150012
0.198903
0.241637
0.277475
0.306517
0.329373
0.346881
0.359915
0.369257
0.375536
0.379193
0.380466
-0.096926
-0.076865
-0.063100
-0.050981
-0.040252
-0.030672
-0.022090
-0.014633
-0.008808
-0.005328
-0.004705
-0.006843
-0.010910
-0.015533
-0.019183
-0.020556
-0.018865
-0.013592
-0.005154
0.005452
0.017017
0.028357
0.038490
0.046754
0.052846
0.056796
0.058886
0.059539
0.059209
0.058288
0.057051
0.055648
0.054129
0.052497
0.050773
0.048943
0.046958
0.044674
0.041857
0.038186
0.033292
0.026836
0.018600
0.008588
-0.002891
-0.015154
-0.027133
-0.037426
-0.044447
-0.046677
-0.042974
-0.032839
-0.016740
0.003189
0.024101
0.043212
0.058398
0.068477
0.073168
0.072839
0.068203
0.060063
0.049124
0.035885
0.020789
0.003960
-0.014664
-0.035125
-0.057360
-0.081127
-0.105938
-0.131019
-0.155306
-0.177492
-0.196131
-0.209798
-0.217272
-0.217714
-0.210765
-0.196633
-0.176011
-0.149527
-0.117732
-0.081009
-0.039697
0.005615
0.053748
0.102796
0.150434
0.194613
0.233928
0.267689
0.295802
0.318576
0.336540
0.350298
0.360427
0.367408
0.371576
0.373075
-0.092259
-0.076699
-0.064553
-0.053276
-0.042723
-0.032679
-0.022976
-0.013829
-0.005999
-0.000558
0.001674
0.000637
-0.002844
-0.007320
-0.011158
-0.012938
-0.011741
-0.007261
0.000549
0.010665
0.021826
0.032801
0.042570
0.050445
0.056118
0.059624
0.061254
0.061438
0.060628
0.059215
0.057480
0.055590
0.053632
0.051658
0.049702
0.047768
0.045986
0.044173
0.042055
0.039269
0.035411
0.030120
0.023169
0.014550
0.004555
-0.006179
-0.016661
-0.025610
-0.031595
-0.033262
-0.029616
-0.020326
-0.006058
0.011480
0.029832
0.046508
0.059543
0.067812
0.071051
0.069634
0.064282
0.055787
0.044830
0.031864
0.017236
0.001114
-0.016576
-0.035863
-0.056679
-0.078787
-0.101731
-0.124799
-0.147021
-0.167222
-0.184108
-0.196406
-0.203006
-0.203109
-0.196305
-0.182644
-0.162532
-0.136487
-0.105072
-0.068864
-0.028528
0.015036
0.060556
0.106394
0.150767
0.192103
0.229269
0.261644
0.289053
0.311655
0.329805
0.343953
0.354551
0.362001
0.366597
0.368419
-0.087428
-0.076045
-0.064984
-0.053991
-0.043330
-0.032839
-0.022435
-0.012467
-0.003847
0.002239
0.004941
0.004224
0.000951
-0.003418
-0.007252
-0.009130
-0.008084
-0.003684
0.003886
0.013774
0.024780
0.035633
0.045265
0.052962
0.058411
0.061657
0.063001
0.062883
0.061760
0.060023
0.057953
0.055727
0.053457
0.051245
0.049243
0.047537
0.045938
0.044351
0.042510
0.040045
0.036554
0.031681
0.025211
0.017143
0.007767
-0.002297
-0.012095
-0.020408
-0.025890
-0.027273
-0.023623
-0.014561
-0.000967
0.015576
0.032858
0.048500
0.060572
0.067956
0.070399
0.068306
0.062440
0.053631
0.042598
0.029866
0.015630
-0.000141
-0.017419
-0.036199
-0.056392
-0.077759
-0.099853
-0.121985
-0.143232
-0.162480
-0.178510
-0.190122
-0.196264
-0.196158
-0.189368
-0.175811
-0.155894
-0.130038
-0.098812
-0.062881
-0.023049
0.019661
0.063953
0.108303
0.151148
0.191118
0.227215
0.258861
0.285862
0.308317
0.326507
0.340812
0.351632
0.359356
0.364359
0.367101
