# vtk DataFile Version 3.0
Scalar Field
ASCII
DATASET RECTILINEAR_GRID
DIMENSIONS 100 26 1
X_COORDINATES 100 double
0.050000 0.150000 0.250000 0.350000 0.450000 0.550000 0.650000 0.750000 0.850000 0.950000 1.050000 1.150000 1.250000 1.350000 1.450000 1.550000 1.650000 1.750000 1.850000 1.950000 2.050000 2.150000 2.250000 2.350000 2.450000 2.550000 2.650000 2.750000 2.850000 2.950000 3.050000 3.150000 3.250000 3.350000 3.450000 3.550000 3.650000 3.750000 3.850000 3.950000 4.050000 4.150000 4.250000 4.350000 4.450000 4.550000 4.650000 4.750000 4.850000 4.950000 5.050000 5.150000 5.250000 5.350000 5.450000 5.550000 5.650000 5.750000 5.850000 5.950000 6.050000 6.150000 6.250000 6.350000 6.450000 6.550000 6.650000 6.750000 6.850000 6.950000 7.050000 7.150000 7.250000 7.350000 7.450000 7.550000 7.650000 7.750000 7.850000 7.950000 8.050000 8.150000 8.250000 8.350000 8.450000 8.550000 8.650000 8.750000 8.850000 8.950000 9.050000 9.150000 9.250000 9.350000 9.450000 9.550000 9.650000 9.750000 9.850000 9.950000 
Y_COORDINATES 26 double
0.050000 0.150000 0.250000 0.350000 0.450000 0.550000 0.650000 0.750000 0.850000 0.950000 1.050000 1.150000 1.250000 1.350000 1.450000 1.550000 1.650000 1.750000 1.850000 1.950000 2.050000 2.150000 2.250000 2.350000 2.450000 2.550000 
Z_COORDINATES 1 double
0.0
POINT_DATA 2600
SCALARS Skalarfeld double 1
LOOKUP_TABLE default
0.253949
0.222397
0.201144
0.182520
0.166121
0.151660
0.138950
0.127859
0.118262
0.110013
0.102924
0.096776
0.091332
0.086372
0.081756
0.077476
0.073765
0.070691
0.068409
0.066878
0.065753
0.064475
0.062466
0.059366
0.055184
0.050348
0.045622
0.041947
0.040223
0.041105
0.044870
0.050839
0.057951
0.064893
0.070517
0.074134
0.075576
0.075078
0.073080
0.070067
0.066468
0.062631
0.058837
0.055320
0.052289
0.049689
0.047276
0.044839
0.042068
0.038649
0.034321
0.028929
0.022454
0.015039
0.006998
-0.001182
-0.008872
-0.015354
-0.019920
-0.022004
-0.021341
-0.018108
-0.013441
-0.008575
-0.005018
-0.004146
-0.006871
-0.013522
-0.023936
-0.037658
-0.054123
-0.072892
-0.093571
-0.115670
-0.138660
-0.161913
-0.184669
-0.206024
-0.224956
-0.240375
-0.251200
-0.256449
-0.255325
-0.247295
-0.232177
-0.210212
-0.181851
-0.147916
-0.109614
-0.068529
-0.026545
0.014364
0.052426
0.086325
0.115270
0.138921
0.157263
0.170466
0.178812
0.182731
0.250362
0.218659
0.197698
0.179403
0.163323
0.149163
0.136740
0.125924
0.116597
0.108613
0.101793
0.095917
0.090746
0.086042
0.081658
0.077522
0.073625
0.070281
0.067655
0.065712
0.064156
0.062467
0.060087
0.056659
0.052193
0.047124
0.042238
0.038501
0.036829
0.037831
0.041715
0.048030
0.055421
0.062498
0.068174
0.071849
0.073418
0.073142
0.071462
0.068840
0.065670
0.062256
0.058829
0.055557
0.052517
0.049737
0.047197
0.044618
0.041681
0.038072
0.033529
0.027891
0.021135
0.013399
0.005001
-0.003559
-0.011623
-0.018425
-0.023185
-0.025251
-0.024281
-0.020541
-0.014929
-0.008905
-0.004172
-0.002261
-0.004195
-0.010365
-0.020627
-0.034517
-0.051484
-0.070934
-0.092333
-0.115234
-0.139110
-0.163322
-0.187085
-0.209459
-0.229377
-0.245700
-0.257296
-0.263142
-0.262419
-0.254584
-0.239499
-0.217374
-0.188646
-0.154062
-0.114738
-0.072224
-0.028497
0.014239
0.053941
0.089136
0.118987
0.143191
0.161801
0.175040
0.183147
0.186201
0.241562
0.211367
0.191106
0.173458
0.157970
0.144363
0.132471
0.122181
0.113379
0.105920
0.099624
0.094276
0.089633
0.085437
0.081464
0.077615
0.073897
0.070440
0.067347
0.064597
0.061977
0.059102
0.055555
0.051087
0.045786
0.040134
0.034946
0.031195
0.029780
0.031312
0.036264
0.043410
0.051362
0.058773
0.064661
0.068536
0.070375
0.070484
0.069309
0.067285
0.064744
0.061921
0.058985
0.056051
0.053210
0.050464
0.047700
0.044713
0.041247
0.037031
0.031829
0.025487
0.017982
0.009450
0.000214
-0.009207
-0.018105
-0.025625
-0.030850
-0.032951
-0.031382
-0.026228
-0.018485
-0.009868
-0.002497
0.001700
0.001428
-0.003824
-0.013888
-0.028187
-0.046020
-0.066679
-0.089568
-0.114193
-0.139994
-0.166281
-0.192202
-0.216737
-0.238723
-0.256918
-0.270093
-0.277150
-0.277223
-0.269755
-0.254650
-0.232212
-0.202775
-0.166902
-0.125481
-0.079940
-0.032430
0.014277
0.057447
0.095276
0.126872
0.152070
0.171128
0.184458
0.192435
0.195264
0.228665
0.200728
0.181505
0.164718
0.149992
0.137104
0.125926
0.116367
0.108317
0.101603
0.096168
0.091691
0.087823
0.084278
0.080824
0.077329
0.073760
0.070156
0.066548
0.062889
0.059021
0.054695
0.049676
0.043895
0.037577
0.031294
0.025897
0.022342
0.021467
0.024496
0.030519
0.038366
0.046658
0.054180
0.060110
0.064102
0.066222
0.066804
0.066280
0.065023
0.063271
0.061157
0.058788
0.056357
0.053830
0.051119
0.048115
0.044644
0.040492
0.035432
0.029264
0.021856
0.013191
0.003403
-0.007187
-0.018036
-0.028374
-0.037213
-0.043424
-0.045887
-0.043749
-0.036620
-0.025360
-0.012345
-0.000492
0.007565
0.010050
0.006259
-0.003564
-0.018586
-0.037834
-0.060340
-0.085456
-0.112688
-0.141434
-0.170929
-0.200214
-0.228138
-0.253385
-0.274544
-0.290220
-0.299183
-0.300514
-0.293685
-0.278664
-0.255887
-0.225609
-0.188072
-0.143648
-0.093333
-0.039413
0.014232
0.063242
0.105287
0.139480
0.166006
0.185557
0.198926
0.206769
0.209493
0.212581
0.187128
0.169110
0.153285
0.139399
0.127312
0.116952
0.108261
0.101131
0.095530
0.091153
0.087673
0.084726
0.081963
0.079106
0.075984
0.072532
0.068744
0.064613
0.060087
0.055058
0.049403
0.043062
0.036151
0.029051
0.022429
0.017153
0.014090
0.014528
0.018776
0.025454
0.033430
0.041468
0.048559
0.054095
0.057899
0.060143
0.061195
0.061448
0.061168
0.060424
0.059192
0.057799
0.056116
0.053926
0.051231
0.047958
0.043962
0.039048
0.033014
0.025680
0.016925
0.006726
-0.004799
-0.017340
-0.030342
-0.042959
-0.054025
-0.062080
-0.065532
-0.063058
-0.052978
-0.036287
-0.016627
0.001838
0.015488
0.021915
0.020143
0.010539
-0.005596
-0.026864
-0.051816
-0.079911
-0.110696
-0.143519
-0.177507
-0.211556
-0.244330
-0.274289
-0.299761
-0.319076
-0.330774
-0.333847
-0.327902
-0.313092
-0.290055
-0.259171
-0.220206
-0.172444
-0.115622
-0.051605
0.013776
0.072033
0.120246
0.157802
0.185711
0.205500
0.218609
0.226121
0.228692
0.194048
0.171014
0.154217
0.139354
0.126310
0.115042
0.105546
0.097808
0.091761
0.087300
0.084071
0.081717
0.079810
0.077932
0.075748
0.073054
0.069762
0.065851
0.061311
0.056113
0.050216
0.043613
0.036399
0.028851
0.021477
0.015006
0.010298
0.008236
0.010064
0.014735
0.021293
0.028616
0.035650
0.041631
0.046184
0.049318
0.051323
0.052633
0.053638
0.054502
0.055014
0.055512
0.055579
0.054749
0.053002
0.050371
0.046842
0.042309
0.036601
0.029518
0.020880
0.010555
-0.001503
-0.015203
-0.030256
-0.046100
-0.061798
-0.075942
-0.086606
-0.091443
-0.088080
-0.072554
-0.048254
-0.020305
0.005923
0.026001
0.036951
0.037401
0.027750
0.010069
-0.013568
-0.041240
-0.072973
-0.108310
-0.146481
-0.186449
-0.226913
-0.266298
-0.302756
-0.334229
-0.358597
-0.373973
-0.379141
-0.374002
-0.359218
-0.335862
-0.305178
-0.266381
-0.216709
-0.152718
-0.073532
0.012528
0.085321
0.142074
0.183388
0.212141
0.231388
0.243560
0.250310
0.252579
0.173658
0.152810
0.137145
0.123174
0.110922
0.100448
0.091820
0.085068
0.080148
0.076818
0.074777
0.073609
0.072814
0.071904
0.070489
0.068332
0.065333
0.061476
0.056774
0.051244
0.044919
0.037901
0.030411
0.022843
0.015777
0.009932
0.006017
0.005350
0.007781
0.012277
0.017972
0.023891
0.029217
0.033440
0.036419
0.038335
0.039601
0.040732
0.042185
0.044173
0.046583
0.049167
0.050903
0.051356
0.050375
0.048014
0.044347
0.039347
0.032878
0.024749
0.014770
0.002797
-0.011232
-0.027239
-0.044937
-0.063720
-0.082519
-0.099634
-0.112604
-0.118226
-0.109300
-0.086714
-0.055094
-0.020286
0.012108
0.037517
0.052519
0.054951
0.044702
0.025283
0.000590
-0.029492
-0.065311
-0.106170
-0.151015
-0.198554
-0.247232
-0.295183
-0.340175
-0.379616
-0.410676
-0.430653
-0.437760
-0.432282
-0.415693
-0.390996
-0.361999
-0.327556
-0.281785
-0.214702
-0.115192
0.010115
0.106359
0.174134
0.218491
0.246409
0.263513
0.273574
0.278868
0.280596
0.151856
0.132887
0.118208
0.105020
0.093480
0.083752
0.075975
0.070221
0.066386
0.064212
0.063386
0.063439
0.063812
0.063954
0.063427
0.061966
0.059467
0.055930
0.051406
0.045966
0.039724
0.032868
0.025713
0.018719
0.012480
0.007673
0.004991
0.005237
0.007551
0.011227
0.015423
0.019343
0.022411
0.024369
0.025282
0.025486
0.025498
0.025923
0.027325
0.030077
0.034228
0.038694
0.042521
0.044834
0.045177
0.043520
0.040019
0.034768
0.027716
0.018711
0.007585
-0.005785
-0.021428
-0.039221
-0.058802
-0.079449
-0.099899
-0.118132
-0.131237
-0.132699
-0.117294
-0.090449
-0.056422
-0.020428
0.013031
0.040467
0.058489
0.063041
0.051815
0.034604
0.012298
-0.019256
-0.059296
-0.106351
-0.158871
-0.215215
-0.273527
-0.331616
-0.386823
-0.435910
-0.475039
-0.500080
-0.507728
-0.498245
-0.473445
-0.444339
-0.419207
-0.396582
-0.368039
-0.315941
-0.199670
0.006176
0.142452
0.222070
0.265957
0.289400
0.301688
0.307946
0.310867
0.311751
0.128962
0.111555
0.097704
0.085177
0.074262
0.065226
0.058275
0.053524
0.050759
0.049768
0.050195
0.051522
0.053135
0.054434
0.054943
0.054374
0.052624
0.049716
0.045742
0.040831
0.035163
0.028997
0.022698
0.016741
0.011670
0.007996
0.006560
0.007137
0.008943
0.011338
0.013604
0.015143
0.015613
0.014973
0.013465
0.011549
0.009845
0.009052
0.009855
0.012779
0.017807
0.023881
0.029855
0.034424
0.036672
0.036316
0.033498
0.028433
0.021205
0.011766
0.000029
-0.014043
-0.030372
-0.048706
-0.068535
-0.088966
-0.108535
-0.124909
-0.134460
-0.129178
-0.112701
-0.087795
-0.058594
-0.029186
-0.002610
0.019097
0.034142
0.040806
0.038617
0.031706
0.013783
-0.017652
-0.060969
-0.113601
-0.173403
-0.238288
-0.306002
-0.373977
-0.439130
-0.497583
-0.544373
-0.573319
-0.577893
-0.555342
-0.511131
-0.475107
-0.456969
-0.453304
-0.458259
-0.467422
-0.384179
0.005459
0.210557
0.294161
0.328135
0.340820
0.344669
0.345166
0.344758
0.344497
0.105197
0.089081
0.075915
0.063946
0.053583
0.045192
0.039055
0.035309
0.033635
0.033880
0.035630
0.038315
0.041272
0.043861
0.045575
0.046111
0.045369
0.043394
0.040317
0.036320
0.031636
0.026565
0.021492
0.016868
0.013168
0.010828
0.010167
0.010596
0.011550
0.012388
0.012514
0.011516
0.009249
0.005843
0.001669
-0.002704
-0.006553
-0.009056
-0.009398
-0.006926
-0.001620
0.005561
0.013399
0.020281
0.024820
0.026337
0.024827
0.020575
0.013816
0.004661
-0.006833
-0.020552
-0.036254
-0.053512
-0.071647
-0.089646
-0.106023
-0.118535
-0.121055
-0.114808
-0.101500
-0.083909
-0.065323
-0.048349
-0.034346
-0.023668
-0.016155
-0.011081
-0.006211
-0.007434
-0.018205
-0.042736
-0.082240
-0.135205
-0.198397
-0.268330
-0.341807
-0.415659
-0.486340
-0.549450
-0.599165
-0.627422
-0.623590
-0.571766
-0.515563
-0.476491
-0.465792
-0.476631
-0.506370
-0.640621
-0.733222
0.103056
0.345602
0.396989
0.403395
0.397499
0.389472
0.382700
0.378331
0.376742
0.080698
0.065691
0.053121
0.041648
0.031796
0.024039
0.018743
0.015960
0.015463
0.017033
0.020210
0.024367
0.028796
0.032822
0.035914
0.037758
0.038255
0.037470
0.035569
0.032772
0.029350
0.025624
0.021968
0.018774
0.016401
0.015133
0.014917
0.015043
0.014997
0.014206
0.012196
0.008707
0.003734
-0.002481
-0.009481
-0.016603
-0.023000
-0.027697
-0.029703
-0.028205
-0.023043
-0.015171
-0.005797
0.003294
0.010328
0.014190
0.014622
0.011896
0.006392
-0.001599
-0.011838
-0.024033
-0.037763
-0.052433
-0.067250
-0.081198
-0.093035
-0.099346
-0.099358
-0.094941
-0.087844
-0.080524
-0.075130
-0.072731
-0.073248
-0.075844
-0.079228
-0.081579
-0.080266
-0.079717
-0.084262
-0.099293
-0.129158
-0.174860
-0.233634
-0.301055
-0.372774
-0.444789
-0.513099
-0.573044
-0.618708
-0.641686
-0.617479
-0.566706
-0.516390
-0.484026
-0.474953
-0.479822
-0.482137
-0.561379
-0.049988
0.633246
0.555267
0.516188
0.480184
0.451902
0.431191
0.417133
0.408923
0.406064
0.055538
0.041588
0.029606
0.018634
0.009312
0.002216
-0.002202
-0.003958
-0.003195
-0.000195
0.004526
0.010279
0.016310
0.021909
0.026528
0.029841
0.031750
0.032334
0.031784
0.030350
0.028325
0.026034
0.023821
0.022008
0.020823
0.020456
0.020354
0.020052
0.019003
0.016685
0.012719
0.006944
-0.000572
-0.009539
-0.019444
-0.029540
-0.038839
-0.046172
-0.050320
-0.050246
-0.045526
-0.037221
-0.026511
-0.015283
-0.005602
0.001007
0.003971
0.003478
0.000013
-0.005951
-0.013990
-0.023643
-0.034341
-0.045380
-0.055934
-0.065045
-0.071510
-0.073968
-0.073992
-0.073127
-0.073408
-0.076706
-0.084037
-0.095343
-0.109757
-0.125896
-0.141956
-0.155693
-0.164652
-0.167497
-0.169284
-0.175083
-0.191140
-0.222146
-0.267825
-0.323867
-0.385230
-0.447366
-0.506264
-0.557430
-0.595633
-0.606703
-0.587564
-0.553558
-0.519848
-0.495512
-0.485921
-0.486045
-0.484091
0.000000
0.861331
0.830323
0.696858
0.601617
0.537590
0.493906
0.464232
0.444937
0.433940
0.430155
0.029753
0.016968
0.005668
-0.004703
-0.013399
-0.019740
-0.023197
-0.023819
-0.021694
-0.017153
-0.010779
-0.003324
0.004407
0.011676
0.017915
0.022789
0.026200
0.028235
0.029098
0.029061
0.028430
0.027522
0.026649
0.026073
0.025964
0.026062
0.026005
0.025288
0.023367
0.019761
0.014150
0.006408
-0.003385
-0.014938
-0.027718
-0.040895
-0.053334
-0.063642
-0.070331
-0.072080
-0.068046
-0.059450
-0.047465
-0.034067
-0.021561
-0.011839
-0.005816
-0.003456
-0.004220
-0.007472
-0.012618
-0.019061
-0.026139
-0.033122
-0.039262
-0.043892
-0.045862
-0.046712
-0.047772
-0.050945
-0.058089
-0.070389
-0.088097
-0.110698
-0.137142
-0.165898
-0.194878
-0.221460
-0.242785
-0.255358
-0.257351
-0.255345
-0.255221
-0.264290
-0.287117
-0.322424
-0.365568
-0.411742
-0.457544
-0.498217
-0.529942
-0.545221
-0.543474
-0.530061
-0.513913
-0.501155
-0.497445
-0.491745
0.000000
0.808753
0.892338
0.805640
0.710947
0.627697
0.563521
0.517125
0.484842
0.463639
0.451508
0.447332
0.003369
-0.007970
-0.018371
-0.027933
-0.035805
-0.041218
-0.043577
-0.042930
-0.039328
-0.033151
-0.025049
-0.015836
-0.006363
0.002602
0.010478
0.016921
0.021828
0.025288
0.027516
0.028796
0.029438
0.029754
0.030019
0.030428
0.031030
0.031549
0.031539
0.030510
0.027937
0.023370
0.016503
0.007199
-0.004503
-0.018350
-0.033808
-0.049987
-0.065606
-0.079047
-0.088532
-0.092428
-0.089349
-0.080564
-0.067298
-0.051646
-0.036131
-0.022982
-0.013472
-0.007781
-0.005380
-0.005508
-0.007423
-0.010421
-0.013795
-0.016845
-0.018963
-0.019618
-0.019260
-0.019512
-0.022103
-0.028938
-0.041472
-0.060373
-0.085627
-0.116750
-0.152809
-0.192283
-0.232926
-0.271777
-0.305396
-0.330278
-0.336366
-0.328762
-0.312395
-0.295612
-0.287841
-0.294007
-0.312790
-0.341090
-0.374148
-0.408235
-0.440966
-0.472406
-0.495662
-0.504549
-0.503921
-0.505797
-0.501621
0.000000
0.607953
0.725168
0.763844
0.742753
0.678796
0.614951
0.562484
0.522017
0.492492
0.472516
0.460899
0.456874
-0.023561
-0.033009
-0.042175
-0.050601
-0.057349
-0.061577
-0.062649
-0.060579
-0.055391
-0.047519
-0.037671
-0.026714
-0.015537
-0.004929
0.004513
0.012439
0.018739
0.023503
0.026952
0.029375
0.031090
0.032403
0.033567
0.034734
0.035877
0.036679
0.036733
0.035534
0.032571
0.027403
0.019713
0.009314
-0.003825
-0.019515
-0.037249
-0.056103
-0.074678
-0.091153
-0.103463
-0.109639
-0.107977
-0.099068
-0.084553
-0.066621
-0.048004
-0.031243
-0.017977
-0.008664
-0.002863
0.000255
0.001556
0.001832
0.001810
0.002146
0.003313
0.005275
0.006781
0.006287
0.001933
-0.007915
-0.024254
-0.047477
-0.077601
-0.114353
-0.157018
-0.204219
-0.253732
-0.302421
-0.346301
-0.380565
-0.398098
-0.386876
-0.356630
-0.315542
-0.275919
-0.249847
-0.243144
-0.251273
-0.271868
-0.302337
-0.348657
-0.405448
-0.460293
-0.493322
-0.492669
-0.499233
0.000000
0.321362
0.490739
0.578134
0.642517
0.651644
0.623000
0.583242
0.545055
0.513344
0.489214
0.472440
0.462513
0.459050
-0.050938
-0.057919
-0.065405
-0.072267
-0.077501
-0.080225
-0.079791
-0.076129
-0.069270
-0.059692
-0.048146
-0.035534
-0.022770
-0.010658
0.000196
0.009435
0.016947
0.022816
0.027267
0.030599
0.033138
0.035192
0.037006
0.038716
0.040221
0.041257
0.041414
0.040192
0.037094
0.031683
0.023613
0.012635
-0.001366
-0.018286
-0.037671
-0.058599
-0.079608
-0.098721
-0.113629
-0.122038
-0.122167
-0.113320
-0.097743
-0.077694
-0.056092
-0.035765
-0.018709
-0.005710
0.003498
0.009740
0.013966
0.017042
0.019713
0.022595
0.026094
0.029179
0.030728
0.029107
0.022703
0.010392
-0.008393
-0.033920
-0.066349
-0.105653
-0.151390
-0.202443
-0.256798
-0.311386
-0.362011
-0.403350
-0.429020
-0.421588
-0.383079
-0.324857
-0.260642
-0.206239
-0.172710
-0.163803
-0.179209
-0.212009
-0.271566
-0.351044
-0.436978
-0.502434
-0.522586
-0.569852
-0.280266
0.151985
0.303414
0.447022
0.528769
0.559310
0.556644
0.538623
0.516213
0.495108
0.477813
0.465231
0.457586
0.454887
-0.078611
-0.082471
-0.087757
-0.092552
-0.095827
-0.096693
-0.094521
-0.089109
-0.080531
-0.069288
-0.056153
-0.042041
-0.027875
-0.014464
-0.002417
0.007905
0.016386
0.023109
0.028304
0.032280
0.035375
0.037911
0.040136
0.042180
0.043927
0.045145
0.045428
0.044298
0.041283
0.035953
0.027937
0.016923
0.002709
-0.014690
-0.034902
-0.057058
-0.079693
-0.100754
-0.117773
-0.128235
-0.130139
-0.121772
-0.105559
-0.083826
-0.059655
-0.036119
-0.015545
0.000933
0.013330
0.022383
0.029069
0.034301
0.038813
0.043150
0.047510
0.050347
0.050553
0.046824
0.038152
0.023999
0.004087
-0.021878
-0.054230
-0.093156
-0.138451
-0.189278
-0.243924
-0.299583
-0.352163
-0.396121
-0.424272
-0.427276
-0.389230
-0.325238
-0.249558
-0.178850
-0.127826
-0.106382
-0.118757
-0.160699
-0.223738
-0.303561
-0.388990
-0.459285
-0.513526
-0.617119
-0.712516
-0.115175
0.173965
0.338741
0.431406
0.476641
0.492024
0.490857
0.482053
0.471014
0.460717
0.452672
0.447586
0.445761
-0.106424
-0.106469
-0.108991
-0.111187
-0.112045
-0.110702
-0.106567
-0.099285
-0.088982
-0.076161
-0.061590
-0.046176
-0.030835
-0.016370
-0.003386
0.007754
0.016932
0.024236
0.029901
0.034252
0.037647
0.040423
0.042842
0.045031
0.046904
0.048226
0.048620
0.047650
0.044882
0.039908
0.032341
0.021821
0.008074
-0.008978
-0.029069
-0.051429
-0.074664
-0.096740
-0.115137
-0.127217
-0.130798
-0.123397
-0.107157
-0.084441
-0.058438
-0.032398
-0.008924
0.010514
0.025634
0.037005
0.045560
0.052204
0.057585
0.062040
0.065468
0.066296
0.063885
0.057599
0.047056
0.032055
0.012324
-0.012556
-0.043022
-0.079342
-0.121426
-0.168625
-0.219509
-0.271651
-0.321419
-0.363832
-0.392608
-0.400821
-0.376075
-0.318716
-0.246765
-0.175508
-0.119776
-0.092250
-0.101300
-0.145885
-0.201325
-0.264475
-0.328341
-0.383711
-0.422203
-0.442404
-0.386124
-0.100719
0.121935
0.267102
0.357025
0.408789
0.435168
0.445753
0.447420
0.444773
0.440691
0.436867
0.434236
0.433263
-0.134268
-0.129774
-0.128950
-0.128023
-0.126041
-0.122185
-0.115897
-0.106678
-0.094690
-0.080411
-0.064581
-0.048080
-0.031803
-0.016538
-0.002883
0.008806
0.018411
0.026026
0.031901
0.036380
0.039843
0.042647
0.045062
0.047216
0.049075
0.050395
0.050848
0.050056
0.047644
0.043236
0.036448
0.026895
0.014250
-0.001649
-0.020653
-0.042132
-0.064839
-0.086862
-0.105747
-0.118853
-0.123954
-0.117968
-0.102395
-0.079593
-0.052757
-0.025228
0.000191
0.021735
0.038809
0.051743
0.061334
0.068402
0.073420
0.076242
0.076445
0.074560
0.069604
0.061553
0.050266
0.035494
0.016860
-0.006077
-0.033709
-0.066256
-0.103613
-0.145203
-0.189790
-0.235305
-0.278696
-0.315864
-0.341796
-0.351110
-0.339161
-0.299602
-0.243632
-0.185809
-0.139472
-0.114624
-0.116216
-0.142217
-0.181509
-0.225400
-0.266016
-0.295611
-0.304725
-0.281103
-0.198546
-0.036392
0.112243
0.225593
0.304750
0.356595
0.388349
0.406265
0.415282
0.419016
0.419947
0.419676
0.419169
0.418942
-0.162135
-0.152303
-0.147544
-0.143013
-0.137842
-0.131249
-0.122685
-0.111536
-0.097947
-0.082352
-0.065444
-0.048064
-0.031078
-0.015252
-0.001171
0.010817
0.020602
0.028289
0.034147
0.038541
0.041874
0.044522
0.046760
0.048710
0.050395
0.051590
0.052025
0.051397
0.049393
0.045683
0.039908
0.031685
0.020660
0.006600
-0.010461
-0.030062
-0.051160
-0.072057
-0.090477
-0.103858
-0.109863
-0.106190
-0.091890
-0.069972
-0.043444
-0.015637
0.010524
0.033036
0.051002
0.064463
0.074002
0.080278
0.083667
0.084142
0.081410
0.077084
0.070537
0.061652
0.050289
0.036160
0.018889
-0.001907
-0.026536
-0.055126
-0.087518
-0.123145
-0.160899
-0.199014
-0.234997
-0.265651
-0.287291
-0.296279
-0.290058
-0.267056
-0.229845
-0.189174
-0.155108
-0.134974
-0.131993
-0.144499
-0.166297
-0.190424
-0.209970
-0.217994
-0.206961
-0.168653
-0.094949
0.011069
0.114926
0.202308
0.269497
0.318087
0.351494
0.373419
0.387171
0.395404
0.400087
0.402587
0.403781
0.404158
-0.190110
-0.173979
-0.164694
-0.156144
-0.147545
-0.138112
-0.127250
-0.114257
-0.099198
-0.082444
-0.064635
-0.046566
-0.029068
-0.012886
0.001413
0.013490
0.023251
0.030816
0.036474
0.040615
0.043665
0.046009
0.047927
0.049538
0.050886
0.051840
0.052174
0.051662
0.050061
0.047102
0.042466
0.035795
0.026728
0.014981
0.000478
-0.016492
-0.035117
-0.053968
-0.071041
-0.083977
-0.090484
-0.088859
-0.076709
-0.056678
-0.031601
-0.004752
0.020886
0.043133
0.060834
0.073763
0.082296
0.087022
0.088470
0.087010
0.082910
0.076630
0.069138
0.059884
0.048710
0.035333
0.019410
0.000620
-0.021267
-0.046307
-0.074298
-0.104686
-0.136479
-0.168181
-0.197789
-0.222871
-0.240804
-0.249208
-0.246592
-0.233039
-0.210173
-0.183814
-0.160502
-0.145107
-0.139705
-0.143196
-0.151813
-0.160643
-0.164456
-0.158046
-0.136447
-0.095598
-0.034080
0.042716
0.120083
0.189160
0.246069
0.290369
0.323379
0.347112
0.363655
0.374851
0.382171
0.386704
0.389179
0.390016
-0.218258
-0.194615
-0.180226
-0.167349
-0.155230
-0.143007
-0.129962
-0.115308
-0.098962
-0.081227
-0.062686
-0.044091
-0.026243
-0.009865
0.004491
0.016502
0.026090
0.033394
0.038727
0.042503
0.045162
0.047100
0.048599
0.049793
0.050663
0.051292
0.051445
0.050978
0.049728
0.047496
0.044020
0.038978
0.032005
0.022772
0.011102
-0.002869
-0.018545
-0.034768
-0.049836
-0.061674
-0.068204
-0.067877
-0.058377
-0.040971
-0.018266
0.006591
0.030627
0.051560
0.068061
0.079718
0.086800
0.089920
0.089756
0.086891
0.081787
0.074841
0.066692
0.057292
0.046419
0.033788
0.019090
0.002049
-0.017515
-0.039621
-0.064054
-0.090296
-0.117468
-0.144314
-0.169222
-0.190336
-0.205774
-0.213956
-0.214019
-0.206225
-0.192250
-0.175330
-0.159350
-0.147284
-0.140393
-0.137957
-0.137585
-0.135946
-0.129386
-0.114377
-0.087968
-0.048463
0.003517
0.063772
0.124991
0.181630
0.230568
0.270753
0.302472
0.326719
0.344742
0.357764
0.366840
0.372791
0.376187
0.377361
-0.246336
-0.213734
-0.193764
-0.176437
-0.160901
-0.146110
-0.131130
-0.115145
-0.097750
-0.079235
-0.060127
-0.041148
-0.023074
-0.006615
0.007692
0.019538
0.028864
0.035834
0.040782
0.044140
0.046362
0.047846
0.048878
0.049608
0.050053
0.050236
0.050124
0.049609
0.048622
0.047040
0.044666
0.041200
0.036263
0.029463
0.020529
0.009469
-0.003291
-0.016808
-0.029639
-0.039975
-0.045941
-0.046010
-0.038976
-0.024325
-0.004427
0.017852
0.039646
0.058656
0.073461
0.083553
0.089140
0.090839
0.089388
0.085469
0.079638
0.072320
0.063851
0.054458
0.043920
0.031976
0.018340
0.002760
-0.014924
-0.034725
-0.056437
-0.079591
-0.103418
-0.126846
-0.148556
-0.167088
-0.181032
-0.189273
-0.191267
-0.187267
-0.178566
-0.167253
-0.155608
-0.145410
-0.137392
-0.131051
-0.124816
-0.116447
-0.103484
-0.083655
-0.055311
-0.017913
0.027455
0.077817
0.128966
0.177284
0.220388
0.257145
0.287371
0.311479
0.330177
0.344254
0.354443
0.361346
0.365390
0.366811
-0.273293
-0.230362
-0.204678
-0.183118
-0.164540
-0.147593
-0.131071
-0.114112
-0.095999
-0.076939
-0.057432
-0.038188
-0.019980
-0.003509
0.010694
0.022337
0.031378
0.038005
0.042574
0.045530
0.047334
0.048380
0.048958
0.049232
0.049260
0.049050
0.048611
0.047954
0.047134
0.046110
0.044725
0.042674
0.039523
0.034805
0.028164
0.019511
0.009161
-0.002087
-0.012966
-0.021868
-0.027088
-0.027170
-0.021261
-0.008914
0.008418
0.028195
0.047732
0.064777
0.077876
0.086458
0.090678
0.091136
0.088599
0.083806
0.077371
0.069732
0.061126
0.051777
0.041556
0.030206
0.017447
0.003027
-0.013217
-0.031301
-0.051043
-0.072021
-0.093550
-0.114699
-0.134343
-0.151281
-0.164383
-0.172792
-0.176109
-0.174533
-0.168961
-0.160837
-0.151577
-0.142284
-0.133389
-0.124521
-0.114601
-0.102097
-0.085353
-0.062926
-0.033933
0.001633
0.042675
0.087022
0.131913
0.174817
0.213886
0.248064
0.276968
0.300696
0.319629
0.334273
0.345139
0.352672
0.357186
0.358818
-0.296581
-0.242955
-0.212261
-0.187295
-0.166397
-0.147870
-0.130267
-0.112582
-0.094121
-0.074753
-0.055006
-0.035596
-0.017306
-0.000846
0.013255
0.024713
0.033507
0.039843
0.044097
0.046726
0.048189
0.048877
0.049072
0.048946
0.048581
0.048028
0.047351
0.046550
0.045874
0.045345
0.044776
0.043809
0.041950
0.038671
0.033569
0.026512
0.017762
0.008039
-0.001494
-0.009353
-0.013955
-0.013928
-0.008437
0.002603
0.018229
0.036223
0.054104
0.069685
0.081489
0.088895
0.092024
0.091470
0.088032
0.082501
0.075537
0.067602
0.058924
0.049650
0.039718
0.028835
0.016708
0.003086
-0.012193
-0.029153
-0.047625
-0.067219
-0.087306
-0.107046
-0.125441
-0.141439
-0.154074
-0.162624
-0.166754
-0.166610
-0.162823
-0.156427
-0.148401
-0.139502
-0.130005
-0.119618
-0.107545
-0.092678
-0.073843
-0.050087
-0.020939
0.013371
0.051816
0.092683
0.133907
0.173542
0.210073
0.242535
0.270472
0.293824
0.312791
0.327712
0.338970
0.346920
0.351832
0.353776
-0.311532
-0.249890
-0.216367
-0.189632
-0.167525
-0.148139
-0.129913
-0.111722
-0.092865
-0.073308
-0.053406
-0.033851
-0.015449
0.001064
0.015147
0.026517
0.035166
0.041320
0.045368
0.047779
0.049015
0.049464
0.049405
0.049007
0.048366
0.047564
0.046740
0.046157
0.045758
0.045538
0.045344
0.044805
0.043413
0.040642
0.036093
0.029640
0.021536
0.012476
0.003577
-0.003745
-0.007985
-0.007822
-0.002393
0.008429
0.023391
0.040666
0.057896
0.072889
0.084118
0.090921
0.093406
0.092191
0.088117
0.082031
0.074646
0.066485
0.057883
0.048813
0.039025
0.028315
0.016420
0.003103
-0.011793
-0.028284
-0.046205
-0.065176
-0.084599
-0.103675
-0.121469
-0.137004
-0.149394
-0.157981
-0.162456
-0.162922
-0.159869
-0.154182
-0.146665
-0.137902
-0.128096
-0.116991
-0.103922
-0.087972
-0.068197
-0.043864
-0.014684
0.019019
0.056266
0.095539
0.135062
0.173143
0.208427
0.240007
0.267411
0.290518
0.309450
0.324472
0.335911
0.344108
0.349412
0.352270
