# vtk DataFile Version 3.0
Scalar Field
ASCII
DATASET RECTILINEAR_GRID
DIMENSIONS 100 26 1
X_COORDINATES 100 double
0.050000 0.150000 0.250000 0.350000 0.450000 0.550000 0.650000 0.750000 0.850000 0.950000 1.050000 1.150000 1.250000 1.350000 1.450000 1.550000 1.650000 1.750000 1.850000 1.950000 2.050000 2.150000 2.250000 2.350000 2.450000 2.550000 2.650000 2.750000 2.850000 2.950000 3.050000 3.150000 3.250000 3.350000 3.450000 3.550000 3.650000 3.750000 3.850000 3.950000 4.050000 4.150000 4.250000 4.350000 4.450000 4.550000 4.650000 4.750000 4.850000 4.950000 5.050000 5.150000 5.250000 5.350000 5.450000 5.550000 5.650000 5.750000 5.850000 5.950000 6.050000 6.150000 6.250000 6.350000 6.450000 6.550000 6.650000 6.750000 6.850000 6.950000 7.050000 7.150000 7.250000 7.350000 7.450000 7.550000 7.650000 7.750000 7.850000 7.950000 8.050000 8.150000 8.250000 8.350000 8.450000 8.550000 8.650000 8.750000 8.850000 8.950000 9.050000 9.150000 9.250000 9.350000 9.450000 9.550000 9.650000 9.750000 9.850000 9.950000 
Y_COORDINATES 26 double
0.050000 0.150000 0.250000 0.350000 0.450000 0.550000 0.650000 0.750000 0.850000 0.950000 1.050000 1.150000 1.250000 1.350000 1.450000 1.550000 1.650000 1.750000 1.850000 1.950000 2.050000 2.150000 2.250000 2.350000 2.450000 2.550000 
Z_COORDINATES 1 double
0.0
POINT_DATA 2600
SCALARS Skalarfeld double 1
LOOKUP_TABLE default
0.025772
0.025815
0.026010
0.026156
0.026281
0.026396
0.026509
0.026621
0.026734
0.026849
0.026966
0.027086
0.027207
0.027330
0.027454
0.027579
0.027703
0.027827
0.027948
0.028065
0.028177
0.028283
0.028379
0.028462
0.028530
0.028579
0.028604
0.028598
0.028557
0.028473
0.028337
0.028142
0.027877
0.027534
0.027104
0.026577
0.025949
0.025215
0.024374
0.023429
0.022389
0.021265
0.020069
0.018820
0.017531
0.016215
0.014878
0.013524
0.012147
0.010747
0.009264
0.007659
0.005887
0.003893
0.001606
-0.001067
-0.004250
-0.008105
-0.012822
-0.018606
-0.025651
-0.034108
-0.044055
-0.055470
-0.068217
-0.082035
-0.096537
-0.111236
-0.125577
-0.139007
-0.151057
-0.161437
-0.170113
-0.177343
-0.183625
-0.189621
-0.195807
-0.202379
-0.209184
-0.215732
-0.221263
-0.224837
-0.225434
-0.222038
-0.213741
-0.199847
-0.179995
-0.154281
-0.123357
-0.088461
-0.051331
-0.013974
0.021674
0.054061
0.082143
0.105361
0.123523
0.136678
0.145032
0.148975
0.025936
0.025962
0.026068
0.026180
0.026290
0.026398
0.026507
0.026617
0.026728
0.026843
0.026959
0.027078
0.027199
0.027322
0.027445
0.027569
0.027693
0.027816
0.027936
0.028053
0.028165
0.028270
0.028365
0.028448
0.028516
0.028565
0.028589
0.028585
0.028544
0.028461
0.028326
0.028132
0.027869
0.027527
0.027098
0.026573
0.025945
0.025211
0.024371
0.023427
0.022387
0.021265
0.020075
0.018835
0.017561
0.016268
0.014963
0.013646
0.012307
0.010913
0.009455
0.007887
0.006152
0.004185
0.001912
-0.000764
-0.003968
-0.007861
-0.012635
-0.018496
-0.025643
-0.034231
-0.044344
-0.055967
-0.068966
-0.083074
-0.097896
-0.112916
-0.127540
-0.141160
-0.153247
-0.163458
-0.171743
-0.178400
-0.184083
-0.189582
-0.195511
-0.202172
-0.209425
-0.216721
-0.223206
-0.227841
-0.229507
-0.227099
-0.219618
-0.206272
-0.186599
-0.160596
-0.128848
-0.092599
-0.053722
-0.014487
0.022877
0.056638
0.085697
0.109526
0.128000
0.141222
0.149356
0.152442
0.026046
0.026057
0.026121
0.026206
0.026300
0.026399
0.026502
0.026609
0.026719
0.026832
0.026948
0.027066
0.027186
0.027309
0.027432
0.027555
0.027679
0.027801
0.027921
0.028038
0.028149
0.028254
0.028349
0.028433
0.028501
0.028551
0.028577
0.028574
0.028536
0.028456
0.028326
0.028136
0.027877
0.027541
0.027116
0.026595
0.025970
0.025238
0.024397
0.023453
0.022412
0.021291
0.020105
0.018876
0.017623
0.016363
0.015106
0.013853
0.012591
0.011300
0.009950
0.008488
0.006852
0.004965
0.002740
0.000064
-0.003197
-0.007210
-0.012169
-0.018279
-0.025736
-0.034697
-0.045248
-0.057381
-0.070963
-0.085722
-0.101237
-0.116944
-0.132171
-0.146193
-0.158349
-0.168175
-0.175561
-0.180866
-0.185076
-0.189331
-0.194613
-0.201419
-0.209612
-0.218490
-0.226985
-0.233844
-0.237756
-0.237436
-0.231708
-0.219584
-0.200378
-0.173862
-0.140435
-0.101314
-0.058641
-0.015316
0.025692
0.062269
0.093236
0.118190
0.137210
0.150590
0.158634
0.161510
0.026103
0.026108
0.026154
0.026222
0.026305
0.026396
0.026495
0.026598
0.026706
0.026818
0.026933
0.027051
0.027171
0.027293
0.027416
0.027540
0.027664
0.027786
0.027906
0.028023
0.028135
0.028241
0.028338
0.028423
0.028494
0.028546
0.028576
0.028577
0.028545
0.028471
0.028347
0.028165
0.027914
0.027584
0.027166
0.026651
0.026029
0.025297
0.024454
0.023504
0.022457
0.021328
0.020139
0.018913
0.017676
0.016448
0.015243
0.014064
0.012909
0.011752
0.010550
0.009243
0.007754
0.005989
0.003842
0.001183
-0.002139
-0.006305
-0.011514
-0.017975
-0.025886
-0.035407
-0.046633
-0.059564
-0.074073
-0.089883
-0.106544
-0.123422
-0.139719
-0.154523
-0.166929
-0.176227
-0.182155
-0.185122
-0.186614
-0.188466
-0.192411
-0.199337
-0.209062
-0.220555
-0.232342
-0.242818
-0.250385
-0.253503
-0.250745
-0.240831
-0.222715
-0.195747
-0.159919
-0.116214
-0.067088
-0.016644
0.030484
0.071556
0.105365
0.131842
0.151500
0.165017
0.172983
0.175775
0.026119
0.026126
0.026165
0.026225
0.026300
0.026386
0.026481
0.026583
0.026689
0.026801
0.026915
0.027033
0.027154
0.027276
0.027399
0.027524
0.027648
0.027771
0.027892
0.028010
0.028124
0.028231
0.028330
0.028418
0.028493
0.028550
0.028585
0.028593
0.028568
0.028503
0.028389
0.028217
0.027976
0.027657
0.027248
0.026738
0.026119
0.025385
0.024535
0.023572
0.022508
0.021360
0.020153
0.018917
0.017684
0.016479
0.015323
0.014222
0.013185
0.012180
0.011154
0.010032
0.008718
0.007103
0.005056
0.002428
-0.000954
-0.005284
-0.010779
-0.017658
-0.026132
-0.036377
-0.048508
-0.062544
-0.078377
-0.095733
-0.114137
-0.132874
-0.150978
-0.167248
-0.180364
-0.189146
-0.192964
-0.192182
-0.188799
-0.186226
-0.187626
-0.194563
-0.206660
-0.222180
-0.238915
-0.254735
-0.267715
-0.275977
-0.277836
-0.271644
-0.255837
-0.229098
-0.190589
-0.140456
-0.081087
-0.018682
0.038070
0.085670
0.123151
0.151255
0.171330
0.184707
0.192412
0.195076
0.026103
0.026116
0.026154
0.026212
0.026284
0.026368
0.026461
0.026562
0.026668
0.026779
0.026894
0.027013
0.027133
0.027256
0.027381
0.027506
0.027631
0.027755
0.027878
0.027998
0.028113
0.028223
0.028325
0.028418
0.028497
0.028560
0.028603
0.028619
0.028604
0.028550
0.028448
0.028289
0.028062
0.027755
0.027356
0.026853
0.026235
0.025495
0.024631
0.023644
0.022548
0.021362
0.020117
0.018849
0.017597
0.016398
0.015279
0.014252
0.013338
0.012499
0.011670
0.010759
0.009649
0.008208
0.006281
0.003698
0.000263
-0.004239
-0.010045
-0.017400
-0.026539
-0.037669
-0.050935
-0.066397
-0.083980
-0.103438
-0.124288
-0.145750
-0.166665
-0.185448
-0.200139
-0.208710
-0.209789
-0.202909
-0.191152
-0.181033
-0.178178
-0.185211
-0.201127
-0.222704
-0.246431
-0.269572
-0.289982
-0.305570
-0.314186
-0.313915
-0.302567
-0.277931
-0.237783
-0.179983
-0.104911
-0.021589
0.050137
0.106676
0.148255
0.177470
0.197197
0.209767
0.216783
0.219171
0.026061
0.026083
0.026125
0.026184
0.026256
0.026341
0.026434
0.026535
0.026642
0.026753
0.026869
0.026989
0.027111
0.027235
0.027360
0.027487
0.027613
0.027739
0.027863
0.027985
0.028104
0.028217
0.028323
0.028421
0.028506
0.028576
0.028627
0.028654
0.028651
0.028610
0.028522
0.028379
0.028167
0.027874
0.027486
0.026989
0.026370
0.025618
0.024729
0.023703
0.022552
0.021301
0.019984
0.018648
0.017344
0.016121
0.015014
0.014047
0.013255
0.012594
0.011985
0.011313
0.010439
0.009201
0.007420
0.004900
0.001423
-0.003253
-0.009391
-0.017266
-0.027149
-0.039283
-0.053860
-0.070984
-0.090636
-0.112616
-0.136478
-0.161424
-0.186150
-0.208660
-0.226134
-0.235146
-0.232678
-0.215628
-0.191112
-0.170085
-0.161679
-0.169961
-0.192341
-0.222475
-0.254925
-0.287492
-0.317500
-0.342510
-0.360309
-0.368695
-0.364953
-0.346112
-0.308610
-0.245473
-0.148228
-0.025291
0.070230
0.138141
0.183071
0.211701
0.229468
0.240048
0.245677
0.247548
0.025996
0.026030
0.026078
0.026142
0.026217
0.026304
0.026399
0.026501
0.026610
0.026723
0.026841
0.026961
0.027085
0.027211
0.027338
0.027466
0.027594
0.027722
0.027849
0.027973
0.028095
0.028212
0.028323
0.028425
0.028517
0.028596
0.028657
0.028695
0.028704
0.028678
0.028607
0.028481
0.028286
0.028009
0.027633
0.027140
0.026515
0.025743
0.024813
0.023725
0.022489
0.021131
0.019691
0.018230
0.016816
0.015516
0.014384
0.013444
0.012763
0.012287
0.011920
0.011522
0.010921
0.009925
0.008323
0.005895
0.002398
-0.002435
-0.008891
-0.017276
-0.027890
-0.041011
-0.056865
-0.075594
-0.097222
-0.121604
-0.148360
-0.176750
-0.205449
-0.232178
-0.253229
-0.263336
-0.253752
-0.222775
-0.183978
-0.151861
-0.139149
-0.152126
-0.184535
-0.222589
-0.265491
-0.309144
-0.350420
-0.386550
-0.414759
-0.433294
-0.440211
-0.431843
-0.406959
-0.353123
-0.233869
-0.029292
0.106079
0.185968
0.230616
0.254947
0.268036
0.274904
0.278212
0.279256
0.025911
0.025960
0.026017
0.026087
0.026168
0.026258
0.026357
0.026462
0.026573
0.026689
0.026808
0.026931
0.027057
0.027184
0.027313
0.027443
0.027573
0.027704
0.027833
0.027960
0.028085
0.028206
0.028322
0.028431
0.028530
0.028617
0.028688
0.028738
0.028762
0.028752
0.028699
0.028591
0.028414
0.028153
0.027788
0.027298
0.026660
0.025856
0.024866
0.023685
0.022318
0.020790
0.019150
0.017471
0.015846
0.014377
0.013148
0.012187
0.011586
0.011290
0.011182
0.011094
0.010814
0.010111
0.008743
0.006461
0.003004
-0.001911
-0.008586
-0.017338
-0.028479
-0.042290
-0.058995
-0.078731
-0.101516
-0.127219
-0.155502
-0.185722
-0.216662
-0.245977
-0.269183
-0.277294
-0.256694
-0.218795
-0.174510
-0.138552
-0.126266
-0.148172
-0.181801
-0.228665
-0.281798
-0.335912
-0.387883
-0.434921
-0.473209
-0.498683
-0.514050
-0.516099
-0.516651
-0.515640
-0.417761
-0.027702
0.175130
0.258692
0.293393
0.307018
0.311724
0.312874
0.312876
0.312779
0.025811
0.025876
0.025943
0.026021
0.026108
0.026204
0.026307
0.026417
0.026531
0.026650
0.026772
0.026898
0.027025
0.027155
0.027286
0.027419
0.027551
0.027684
0.027816
0.027946
0.028075
0.028200
0.028321
0.028435
0.028542
0.028638
0.028719
0.028782
0.028820
0.028826
0.028791
0.028702
0.028544
0.028299
0.027943
0.027452
0.026794
0.025942
0.024869
0.023556
0.022000
0.020221
0.018271
0.016237
0.014243
0.012435
0.010959
0.009905
0.009307
0.009157
0.009318
0.009580
0.009688
0.009363
0.008326
0.006304
0.003026
-0.001789
-0.008435
-0.017211
-0.028402
-0.042254
-0.058940
-0.078531
-0.100977
-0.126095
-0.153549
-0.182783
-0.212775
-0.241263
-0.261975
-0.262495
-0.246441
-0.218141
-0.186402
-0.162042
-0.155783
-0.170226
-0.205480
-0.254253
-0.310253
-0.367713
-0.424510
-0.477784
-0.522134
-0.550567
-0.558015
-0.559940
-0.581374
-0.701296
-0.759570
0.074279
0.312377
0.362952
0.369838
0.364798
0.357592
0.351451
0.347477
0.346042
0.025697
0.025780
0.025858
0.025945
0.026040
0.026143
0.026252
0.026366
0.026484
0.026607
0.026733
0.026861
0.026992
0.027124
0.027258
0.027392
0.027527
0.027662
0.027797
0.027930
0.028062
0.028191
0.028317
0.028437
0.028551
0.028655
0.028746
0.028821
0.028873
0.028895
0.028878
0.028808
0.028668
0.028437
0.028089
0.027591
0.026905
0.025992
0.024810
0.023327
0.021525
0.019411
0.017031
0.014480
0.011906
0.009506
0.007514
0.006163
0.005418
0.005326
0.005738
0.006403
0.007003
0.007202
0.006676
0.005129
0.002292
-0.002091
-0.008277
-0.016516
-0.027034
-0.040004
-0.055511
-0.073532
-0.093920
-0.116425
-0.140717
-0.166375
-0.192610
-0.215856
-0.231725
-0.239439
-0.239419
-0.234641
-0.230762
-0.229667
-0.235873
-0.247756
-0.273245
-0.310425
-0.354845
-0.401985
-0.452734
-0.501419
-0.541411
-0.563741
-0.564717
-0.558918
-0.562229
-0.631762
-0.076311
0.606949
0.524169
0.484014
0.448305
0.420733
0.400728
0.387218
0.379351
0.376621
0.025572
0.025673
0.025763
0.025861
0.025965
0.026075
0.026190
0.026310
0.026434
0.026561
0.026690
0.026822
0.026955
0.027091
0.027227
0.027364
0.027501
0.027638
0.027776
0.027912
0.028047
0.028180
0.028310
0.028435
0.028555
0.028667
0.028767
0.028853
0.028917
0.028954
0.028953
0.028899
0.028776
0.028558
0.028214
0.027706
0.026986
0.026002
0.024698
0.023023
0.020938
0.018434
0.015539
0.012341
0.008995
0.005734
0.002863
0.000738
-0.000427
-0.000672
-0.000104
0.000993
0.002231
0.003187
0.003470
0.002753
0.000774
-0.002684
-0.007816
-0.014799
-0.023779
-0.034848
-0.048003
-0.063132
-0.080015
-0.098382
-0.117988
-0.138667
-0.158783
-0.179127
-0.199436
-0.220059
-0.242188
-0.265541
-0.291190
-0.318307
-0.344268
-0.363326
-0.379084
-0.396506
-0.415740
-0.438538
-0.466940
-0.498552
-0.525673
-0.538636
-0.543578
-0.550649
-0.556439
0.000000
0.836014
0.799334
0.666930
0.571424
0.507757
0.464634
0.435496
0.416615
0.405874
0.402181
0.025439
0.025558
0.025662
0.025770
0.025884
0.026002
0.026125
0.026251
0.026380
0.026511
0.026645
0.026780
0.026917
0.027055
0.027194
0.027333
0.027473
0.027613
0.027752
0.027891
0.028029
0.028165
0.028298
0.028428
0.028553
0.028671
0.028779
0.028873
0.028949
0.028997
0.029009
0.028969
0.028858
0.028649
0.028307
0.027787
0.027032
0.025980
0.024558
0.022697
0.020339
0.017448
0.014029
0.010148
0.005946
0.001655
-0.002391
-0.005769
-0.007985
-0.008794
-0.008342
-0.006899
-0.004911
-0.002910
-0.001401
-0.000783
-0.001334
-0.003236
-0.006615
-0.011567
-0.018160
-0.026416
-0.036275
-0.047573
-0.060072
-0.073553
-0.087989
-0.102934
-0.120612
-0.142435
-0.170193
-0.205391
-0.248724
-0.298731
-0.352894
-0.407491
-0.456734
-0.490802
-0.500697
-0.496528
-0.484529
-0.473588
-0.470626
-0.476460
-0.486575
-0.498380
-0.515047
-0.532848
0.000000
0.788132
0.872693
0.780500
0.683033
0.599796
0.536111
0.490054
0.458076
0.437111
0.425124
0.420992
0.025299
0.025438
0.025554
0.025674
0.025798
0.025925
0.026055
0.026188
0.026323
0.026459
0.026597
0.026737
0.026877
0.027018
0.027159
0.027301
0.027443
0.027585
0.027726
0.027867
0.028007
0.028145
0.028281
0.028415
0.028543
0.028665
0.028779
0.028879
0.028962
0.029019
0.029040
0.029010
0.028907
0.028703
0.028360
0.027828
0.027045
0.025937
0.024424
0.022418
0.019842
0.016635
0.012775
0.008292
0.003292
-0.002021
-0.007332
-0.012209
-0.016135
-0.018220
-0.018352
-0.016876
-0.014187
-0.010914
-0.007725
-0.005169
-0.003608
-0.003235
-0.004132
-0.006325
-0.009825
-0.014618
-0.020628
-0.027681
-0.035560
-0.044177
-0.053560
-0.065612
-0.082624
-0.107461
-0.142811
-0.190484
-0.250849
-0.322146
-0.400319
-0.478699
-0.547035
-0.596100
-0.611102
-0.588006
-0.545805
-0.500458
-0.466526
-0.449261
-0.446710
-0.461847
-0.488447
0.000000
0.591227
0.703571
0.742898
0.719163
0.656029
0.591349
0.538006
0.497362
0.467846
0.447904
0.436304
0.432272
0.025155
0.025313
0.025442
0.025574
0.025708
0.025845
0.025983
0.026123
0.026264
0.026405
0.026548
0.026692
0.026835
0.026979
0.027123
0.027267
0.027411
0.027554
0.027697
0.027840
0.027981
0.028121
0.028259
0.028394
0.028524
0.028649
0.028765
0.028869
0.028955
0.029016
0.029041
0.029014
0.028914
0.028711
0.028365
0.027824
0.027023
0.025885
0.024319
0.022232
0.019529
0.016129
0.011981
0.007076
0.001474
-0.004676
-0.011108
-0.017423
-0.023076
-0.027374
-0.028815
-0.027867
-0.024782
-0.020209
-0.014989
-0.009904
-0.005518
-0.002132
0.000150
0.001322
0.001399
0.000384
-0.001679
-0.004613
-0.008229
-0.012676
-0.019045
-0.029397
-0.046863
-0.074759
-0.115813
-0.171707
-0.242686
-0.326979
-0.420260
-0.515087
-0.600493
-0.663065
-0.686752
-0.651112
-0.582549
-0.509514
-0.454134
-0.423961
-0.418168
-0.440008
0.000000
0.319220
0.478884
0.562245
0.624719
0.632199
0.602903
0.562420
0.523655
0.491365
0.466823
0.449796
0.439732
0.436211
0.025009
0.025186
0.025328
0.025472
0.025617
0.025762
0.025909
0.026056
0.026203
0.026351
0.026498
0.026645
0.026793
0.026939
0.027086
0.027232
0.027377
0.027522
0.027666
0.027809
0.027951
0.028092
0.028230
0.028365
0.028496
0.028621
0.028737
0.028840
0.028926
0.028986
0.029010
0.028981
0.028878
0.028671
0.028320
0.027774
0.026967
0.025823
0.024251
0.022152
0.019425
0.015977
0.011730
0.006644
0.000727
-0.005933
-0.013147
-0.020589
-0.027761
-0.033955
-0.038156
-0.038378
-0.035452
-0.029861
-0.022541
-0.014543
-0.006747
0.000294
0.006334
0.011311
0.015205
0.017939
0.019441
0.019959
0.019364
0.016815
0.011660
0.001264
-0.017757
-0.048407
-0.092853
-0.152297
-0.226858
-0.315065
-0.413046
-0.513641
-0.605801
-0.675020
-0.705772
-0.670279
-0.591294
-0.502760
-0.430841
-0.387828
-0.377426
-0.436154
-0.242133
0.159556
0.300900
0.437279
0.515695
0.544030
0.539809
0.520568
0.497180
0.475286
0.457402
0.444422
0.436543
0.433747
0.024862
0.025058
0.025213
0.025369
0.025524
0.025679
0.025834
0.025988
0.026142
0.026295
0.026448
0.026599
0.026749
0.026899
0.027048
0.027195
0.027342
0.027488
0.027633
0.027776
0.027918
0.028058
0.028195
0.028329
0.028458
0.028580
0.028694
0.028794
0.028875
0.028930
0.028947
0.028910
0.028799
0.028584
0.028226
0.027678
0.026876
0.025747
0.024205
0.022156
0.019499
0.016136
0.011979
0.006963
0.001058
-0.005706
-0.013218
-0.021250
-0.029412
-0.037099
-0.043453
-0.046578
-0.044580
-0.038667
-0.029685
-0.018887
-0.007528
0.003452
0.013515
0.022434
0.030079
0.036178
0.040240
0.042646
0.041405
0.037777
0.031131
0.018617
-0.002947
-0.035490
-0.080186
-0.137925
-0.208964
-0.292234
-0.384499
-0.479529
-0.567517
-0.635322
-0.668227
-0.653081
-0.580008
-0.493306
-0.418422
-0.372564
-0.377788
-0.494883
-0.643822
-0.094030
0.177436
0.334046
0.422444
0.464800
0.478044
0.475232
0.465144
0.453114
0.442083
0.433533
0.428144
0.426196
0.024717
0.024930
0.025098
0.025265
0.025431
0.025596
0.025759
0.025921
0.026082
0.026240
0.026397
0.026553
0.026706
0.026859
0.027009
0.027159
0.027306
0.027452
0.027597
0.027740
0.027881
0.028019
0.028154
0.028285
0.028411
0.028529
0.028637
0.028730
0.028803
0.028849
0.028855
0.028806
0.028682
0.028455
0.028089
0.027539
0.026747
0.025647
0.024160
0.022201
0.019678
0.016499
0.012579
0.007844
0.002248
-0.004216
-0.011495
-0.019448
-0.027796
-0.036067
-0.043515
-0.049032
-0.050004
-0.044877
-0.035401
-0.022786
-0.008599
0.005746
0.019255
0.031341
0.041615
0.049564
0.054006
0.052686
0.048718
0.042195
0.032009
0.016837
-0.005488
-0.036657
-0.077810
-0.129675
-0.192329
-0.264704
-0.343992
-0.425056
-0.500119
-0.559148
-0.591579
-0.590227
-0.544494
-0.476543
-0.412915
-0.370014
-0.357157
-0.372515
-0.340726
-0.082789
0.126683
0.264908
0.350568
0.399253
0.423271
0.432012
0.432237
0.428481
0.423579
0.419188
0.416214
0.415103
0.024574
0.024803
0.024984
0.025163
0.025339
0.025514
0.025686
0.025856
0.026023
0.026187
0.026348
0.026508
0.026664
0.026819
0.026971
0.027122
0.027270
0.027416
0.027560
0.027702
0.027841
0.027976
0.028108
0.028235
0.028356
0.028467
0.028567
0.028651
0.028713
0.028746
0.028737
0.028673
0.028532
0.028290
0.027914
0.027360
0.026580
0.025513
0.024091
0.022240
0.019882
0.016937
0.013333
0.009008
0.003919
-0.001949
-0.008563
-0.015826
-0.023537
-0.031340
-0.038654
-0.044598
-0.047978
-0.045832
-0.037645
-0.025212
-0.010156
0.005703
0.020852
0.034177
0.044794
0.051850
0.054506
0.052103
0.045105
0.035942
0.023692
0.007257
-0.014756
-0.043619
-0.080242
-0.125083
-0.177951
-0.237699
-0.301839
-0.366229
-0.425018
-0.471112
-0.497505
-0.499538
-0.476581
-0.430936
-0.380417
-0.336168
-0.300193
-0.260581
-0.181439
-0.028415
0.114199
0.223196
0.299003
0.348136
0.377675
0.393794
0.401373
0.403986
0.404079
0.403224
0.402361
0.401991
0.024434
0.024679
0.024871
0.025062
0.025250
0.025434
0.025615
0.025793
0.025966
0.026135
0.026302
0.026464
0.026624
0.026780
0.026934
0.027085
0.027233
0.027379
0.027522
0.027662
0.027798
0.027931
0.028058
0.028180
0.028293
0.028397
0.028487
0.028559
0.028608
0.028624
0.028598
0.028515
0.028355
0.028095
0.027705
0.027146
0.026375
0.025339
0.023981
0.022238
0.020045
0.017342
0.014071
0.010191
0.005676
0.000528
-0.005213
-0.011450
-0.018008
-0.024595
-0.030755
-0.035823
-0.038907
-0.038949
-0.033658
-0.023565
-0.010191
0.004523
0.018745
0.031012
0.040258
0.045731
0.046936
0.043711
0.036448
0.025864
0.012706
-0.003987
-0.025114
-0.051503
-0.083729
-0.121969
-0.165830
-0.214143
-0.264744
-0.314352
-0.358658
-0.392779
-0.412196
-0.414091
-0.398716
-0.366756
-0.325818
-0.281707
-0.234492
-0.177004
-0.096674
0.009841
0.112473
0.197957
0.263080
0.309677
0.341283
0.361651
0.374105
0.381297
0.385186
0.387124
0.387974
0.388213
0.024297
0.024556
0.024761
0.024964
0.025163
0.025358
0.025548
0.025733
0.025913
0.026087
0.026258
0.026423
0.026585
0.026744
0.026898
0.027050
0.027198
0.027342
0.027484
0.027621
0.027754
0.027883
0.028005
0.028120
0.028226
0.028320
0.028398
0.028457
0.028490
0.028488
0.028442
0.028336
0.028154
0.027873
0.027466
0.026899
0.026132
0.025123
0.023821
0.022175
0.020136
0.017655
0.014695
0.011232
0.007259
0.002802
-0.002081
-0.007279
-0.012614
-0.017821
-0.022519
-0.026201
-0.028240
-0.027967
-0.024528
-0.017135
-0.006783
0.005011
0.016579
0.026464
0.033585
0.037253
0.037133
0.033213
0.025764
0.015128
0.001833
-0.014492
-0.034394
-0.058358
-0.086674
-0.119299
-0.155726
-0.194833
-0.234780
-0.272980
-0.306239
-0.331129
-0.344602
-0.344745
-0.331372
-0.305280
-0.269637
-0.227078
-0.177677
-0.118783
-0.047385
0.033984
0.112975
0.182072
0.238182
0.281320
0.313071
0.335598
0.351069
0.361366
0.367982
0.372006
0.374166
0.374876
0.024163
0.024435
0.024653
0.024869
0.025081
0.025287
0.025486
0.025678
0.025864
0.026043
0.026217
0.026386
0.026550
0.026709
0.026865
0.027016
0.027163
0.027307
0.027446
0.027581
0.027710
0.027834
0.027950
0.028058
0.028155
0.028238
0.028304
0.028348
0.028363
0.028341
0.028272
0.028142
0.027934
0.027629
0.027200
0.026619
0.025852
0.024862
0.023606
0.022046
0.020142
0.017859
0.015173
0.012075
0.008575
0.004712
0.000559
-0.003762
-0.008074
-0.012129
-0.015603
-0.018094
-0.019150
-0.018321
-0.015241
-0.009570
-0.001833
0.006932
0.015474
0.022599
0.027379
0.029222
0.027863
0.023300
0.015700
0.005258
-0.007732
-0.023378
-0.041962
-0.063723
-0.088744
-0.116845
-0.147468
-0.179585
-0.211638
-0.241560
-0.266915
-0.285175
-0.294126
-0.292291
-0.279206
-0.255555
-0.222838
-0.182398
-0.134716
-0.079548
-0.017248
0.049163
0.113649
0.171698
0.220907
0.260715
0.291732
0.315157
0.332368
0.344666
0.353149
0.358660
0.361780
0.362841
0.024028
0.024313
0.024547
0.024779
0.025005
0.025222
0.025431
0.025630
0.025821
0.026005
0.026182
0.026353
0.026518
0.026679
0.026834
0.026985
0.027131
0.027273
0.027410
0.027541
0.027666
0.027785
0.027895
0.027995
0.028082
0.028154
0.028206
0.028234
0.028230
0.028187
0.028093
0.027936
0.027701
0.027367
0.026913
0.026313
0.025539
0.024559
0.023340
0.021851
0.020062
0.017950
0.015500
0.012712
0.009607
0.006231
0.002663
-0.000975
-0.004514
-0.007729
-0.010341
-0.012031
-0.012465
-0.011343
-0.008467
-0.003872
0.002037
0.008507
0.014606
0.019422
0.022223
0.022536
0.020143
0.015028
0.007287
-0.002960
-0.015535
-0.030446
-0.047807
-0.067700
-0.090078
-0.114683
-0.140952
-0.167956
-0.194361
-0.218473
-0.238347
-0.252007
-0.257715
-0.254243
-0.241035
-0.218576
-0.187713
-0.149376
-0.104383
-0.053558
0.001698
0.058779
0.114130
0.164810
0.209011
0.246046
0.276063
0.299706
0.317844
0.331369
0.341081
0.347617
0.351424
0.352747
0.023889
0.024186
0.024442
0.024695
0.024937
0.025167
0.025384
0.025590
0.025786
0.025973
0.026152
0.026325
0.026491
0.026652
0.026807
0.026957
0.027102
0.027241
0.027375
0.027503
0.027624
0.027737
0.027841
0.027933
0.028011
0.028071
0.028110
0.028121
0.028098
0.028033
0.027914
0.027730
0.027465
0.027101
0.026620
0.025997
0.025210
0.024232
0.023038
0.021605
0.019910
0.017938
0.015682
0.013148
0.010360
0.007366
0.004246
0.001115
-0.001869
-0.004505
-0.006556
-0.007761
-0.007867
-0.006674
-0.004091
-0.000289
0.004369
0.009269
0.013674
0.016860
0.018242
0.017439
0.014271
0.008718
0.000846
-0.009263
-0.021469
-0.035736
-0.052091
-0.070519
-0.090905
-0.112950
-0.136110
-0.159538
-0.182067
-0.202250
-0.218458
-0.229044
-0.232551
-0.227909
-0.214561
-0.192800
-0.163210
-0.126621
-0.084051
-0.036749
0.013618
0.064843
0.114451
0.160334
0.201085
0.236033
0.265114
0.288668
0.307252
0.321491
0.331980
0.339209
0.343524
0.345071
0.023739
0.024042
0.024340
0.024622
0.024883
0.025124
0.025349
0.025560
0.025759
0.025948
0.026129
0.026303
0.026469
0.026630
0.026784
0.026933
0.027077
0.027214
0.027345
0.027470
0.027587
0.027695
0.027793
0.027878
0.027947
0.027998
0.028024
0.028022
0.027983
0.027898
0.027758
0.027550
0.027259
0.026870
0.026363
0.025719
0.024917
0.023937
0.022759
0.021363
0.019735
0.017864
0.015748
0.013396
0.010833
0.008108
0.005298
0.002511
-0.000104
-0.002367
-0.004068
-0.004989
-0.004929
-0.003751
-0.001441
0.001806
0.005668
0.009586
0.012928
0.015080
0.015546
0.014001
0.010297
0.004424
-0.003557
-0.013587
-0.025510
-0.039296
-0.054929
-0.072349
-0.091399
-0.111765
-0.132917
-0.154067
-0.174156
-0.191888
-0.205822
-0.214505
-0.216642
-0.211263
-0.197852
-0.176524
-0.147759
-0.112385
-0.071521
-0.026570
0.020761
0.068520
0.114727
0.157705
0.196282
0.229834
0.258207
0.281584
0.300349
0.314972
0.325924
0.333618
0.338358
0.340226
0.023568
0.023870
0.024258
0.024576
0.024853
0.025102
0.025331
0.025545
0.025746
0.025937
0.026119
0.026293
0.026460
0.026620
0.026775
0.026923
0.027066
0.027203
0.027333
0.027456
0.027571
0.027677
0.027772
0.027854
0.027920
0.027965
0.027986
0.027977
0.027930
0.027836
0.027686
0.027466
0.027163
0.026761
0.026242
0.025589
0.024781
0.023802
0.022631
0.021254
0.019657
0.017832
0.015779
0.013507
0.011044
0.008436
0.005761
0.003126
0.000672
-0.001429
-0.002980
-0.003784
-0.003665
-0.002508
-0.000297
0.002775
0.006275
0.009731
0.012570
0.014225
0.014235
0.012303
0.008304
0.002245
-0.005781
-0.015643
-0.027372
-0.040916
-0.056214
-0.073172
-0.091611
-0.111205
-0.131427
-0.151513
-0.170451
-0.187018
-0.199860
-0.207618
-0.209079
-0.203320
-0.189816
-0.168639
-0.140252
-0.105459
-0.065419
-0.021591
0.024321
0.070474
0.115089
0.156671
0.194166
0.226983
0.254945
0.278171
0.296971
0.311746
0.322917
0.330882
0.336027
0.338815
