# vtk DataFile Version 3.0
Scalar Field
ASCII
DATASET RECTILINEAR_GRID
DIMENSIONS 100 26 1
X_COORDINATES 100 double
0.050000 0.150000 0.250000 0.350000 0.450000 0.550000 0.650000 0.750000 0.850000 0.950000 1.050000 1.150000 1.250000 1.350000 1.450000 1.550000 1.650000 1.750000 1.850000 1.950000 2.050000 2.150000 2.250000 2.350000 2.450000 2.550000 2.650000 2.750000 2.850000 2.950000 3.050000 3.150000 3.250000 3.350000 3.450000 3.550000 3.650000 3.750000 3.850000 3.950000 4.050000 4.150000 4.250000 4.350000 4.450000 4.550000 4.650000 4.750000 4.850000 4.950000 5.050000 5.150000 5.250000 5.350000 5.450000 5.550000 5.650000 5.750000 5.850000 5.950000 6.050000 6.150000 6.250000 6.350000 6.450000 6.550000 6.650000 6.750000 6.850000 6.950000 7.050000 7.150000 7.250000 7.350000 7.450000 7.550000 7.650000 7.750000 7.850000 7.950000 8.050000 8.150000 8.250000 8.350000 8.450000 8.550000 8.650000 8.750000 8.850000 8.950000 9.050000 9.150000 9.250000 9.350000 9.450000 9.550000 9.650000 9.750000 9.850000 9.950000 
Y_COORDINATES 26 double
0.050000 0.150000 0.250000 0.350000 0.450000 0.550000 0.650000 0.750000 0.850000 0.950000 1.050000 1.150000 1.250000 1.350000 1.450000 1.550000 1.650000 1.750000 1.850000 1.950000 2.050000 2.150000 2.250000 2.350000 2.450000 2.550000 
Z_COORDINATES 1 double
0.0
POINT_DATA 2600
SCALARS Skalarfeld double 1
LOOKUP_TABLE default
-0.126198
-0.095317
-0.075434
-0.059056
-0.045839
-0.035310
-0.026747
-0.019276
-0.012064
-0.004483
0.003785
0.012450
0.021001
0.028757
0.035126
0.039780
0.042692
0.044093
0.044356
0.043893
0.043053
0.042075
0.041073
0.040064
0.039019
0.037916
0.036816
0.035908
0.035373
0.035157
0.035239
0.035381
0.035209
0.034336
0.032485
0.029583
0.025819
0.021665
0.017835
0.015208
0.014680
0.016983
0.022520
0.030802
0.040685
0.050672
0.059178
0.065004
0.067582
0.066963
0.063650
0.058374
0.051905
0.044909
0.037866
0.031059
0.024161
0.016982
0.009223
0.000564
-0.009271
-0.020471
-0.033099
-0.047072
-0.062140
-0.077893
-0.093776
-0.109140
-0.123312
-0.135702
-0.145916
-0.153863
-0.159819
-0.164397
-0.168523
-0.172992
-0.178319
-0.184633
-0.191633
-0.198653
-0.204775
-0.208938
-0.210038
-0.207024
-0.198984
-0.185248
-0.165497
-0.139872
-0.109061
-0.074321
-0.037393
-0.000273
0.035124
0.067265
0.095125
0.118154
0.136166
0.149214
0.157503
0.161423
-0.119902
-0.091355
-0.073082
-0.057763
-0.045279
-0.035271
-0.027080
-0.019866
-0.012823
-0.005384
0.002782
0.011445
0.019932
0.027562
0.033798
0.038360
0.041245
0.042680
0.043034
0.042705
0.042040
0.041273
0.040511
0.039762
0.038981
0.038126
0.037207
0.036274
0.035444
0.034962
0.034745
0.034565
0.034062
0.032853
0.030653
0.027384
0.023239
0.018702
0.014517
0.011603
0.010903
0.013174
0.018757
0.027311
0.037642
0.048022
0.056839
0.062960
0.065890
0.065712
0.062904
0.058137
0.052112
0.045431
0.038505
0.031464
0.024439
0.017153
0.009268
0.000453
-0.009576
-0.021012
-0.033921
-0.048220
-0.063654
-0.079796
-0.096066
-0.111769
-0.126172
-0.138614
-0.148636
-0.156113
-0.161349
-0.165096
-0.168440
-0.172335
-0.177458
-0.183994
-0.191603
-0.199526
-0.206726
-0.212033
-0.214246
-0.212230
-0.204991
-0.191774
-0.172168
-0.146223
-0.114564
-0.078458
-0.039780
-0.000785
0.036321
0.069828
0.098656
0.122289
0.140609
0.153720
0.161787
0.164849
-0.107352
-0.082842
-0.067451
-0.054486
-0.043817
-0.035112
-0.027781
-0.021086
-0.014323
-0.006781
0.001497
0.010089
0.018391
0.025782
0.031794
0.036199
0.039024
0.040502
0.040995
0.040894
0.040537
0.040143
0.039798
0.039481
0.039125
0.038644
0.038023
0.037237
0.036383
0.035548
0.034702
0.033686
0.032222
0.029992
0.026755
0.022460
0.017322
0.011861
0.006878
0.003369
0.002356
0.004634
0.010818
0.020501
0.032032
0.043488
0.053205
0.060112
0.063804
0.064411
0.062387
0.058331
0.052861
0.046533
0.039742
0.032725
0.025537
0.017941
0.009635
0.000312
-0.010300
-0.022389
-0.036020
-0.051105
-0.067377
-0.084382
-0.101486
-0.117910
-0.132798
-0.145341
-0.154933
-0.161359
-0.164940
-0.166718
-0.168178
-0.170722
-0.175348
-0.182340
-0.191252
-0.201089
-0.210558
-0.218258
-0.222801
-0.222885
-0.217360
-0.205293
-0.186075
-0.159546
-0.126160
-0.087157
-0.044680
-0.001606
0.039125
0.075429
0.106148
0.130892
0.149747
0.163009
0.170982
0.173833
-0.089787
-0.070936
-0.059102
-0.049100
-0.040760
-0.033748
-0.027544
-0.021532
-0.014933
-0.007445
0.000608
0.008823
0.016639
0.023519
0.029076
0.033145
0.035789
0.037256
0.037904
0.038112
0.038195
0.038338
0.038569
0.038810
0.039059
0.039151
0.038898
0.038280
0.037332
0.036081
0.034487
0.032418
0.029667
0.025999
0.021252
0.015438
0.008836
0.002040
-0.004050
-0.008318
-0.009610
-0.006977
0.000800
0.012247
0.025382
0.038143
0.048909
0.056736
0.061333
0.062878
0.061790
0.058559
0.053697
0.047723
0.041063
0.034122
0.026782
0.018824
0.009971
-0.000064
-0.011532
-0.024610
-0.039356
-0.055674
-0.073284
-0.091694
-0.110197
-0.127883
-0.143698
-0.156569
-0.165611
-0.170392
-0.171213
-0.169530
-0.167515
-0.167501
-0.171119
-0.178825
-0.189913
-0.202923
-0.216098
-0.227671
-0.235982
-0.239502
-0.236862
-0.226873
-0.208599
-0.181498
-0.145630
-0.102007
-0.053077
-0.002910
0.043907
0.084672
0.118203
0.144448
0.163926
0.177315
0.185205
0.187970
-0.069466
-0.056938
-0.048919
-0.042036
-0.036130
-0.030894
-0.025904
-0.020537
-0.014234
-0.007235
0.000219
0.007693
0.014681
0.020731
0.025549
0.029042
0.031318
0.032646
0.033387
0.033910
0.034506
0.035307
0.036237
0.037458
0.038536
0.039202
0.039310
0.038804
0.037687
0.035953
0.033549
0.030358
0.026215
0.020960
0.014517
0.006993
-0.001226
-0.009425
-0.016560
-0.021378
-0.022646
-0.018038
-0.008283
0.004795
0.019075
0.032585
0.043922
0.052365
0.057763
0.060305
0.060304
0.058066
0.053928
0.048372
0.042081
0.035267
0.027766
0.019400
0.009911
-0.000978
-0.013516
-0.027876
-0.044120
-0.062152
-0.081684
-0.102191
-0.122878
-0.142659
-0.160183
-0.173943
-0.182532
-0.185062
-0.181679
-0.174117
-0.166012
-0.161455
-0.163231
-0.172033
-0.186560
-0.204441
-0.223147
-0.240402
-0.254232
-0.262849
-0.264660
-0.258155
-0.241947
-0.214881
-0.176214
-0.126120
-0.066965
-0.004891
0.051488
0.098725
0.135885
0.163726
0.183600
0.196837
0.204459
0.207093
-0.048421
-0.042022
-0.037696
-0.033786
-0.030177
-0.026619
-0.022763
-0.017970
-0.012405
-0.006207
0.000305
0.006696
0.012525
0.017434
0.021225
0.023881
0.025565
0.026570
0.027269
0.028028
0.029124
0.030654
0.032689
0.034864
0.036788
0.038125
0.038653
0.038280
0.036991
0.034781
0.031598
0.027345
0.021898
0.015171
0.007188
-0.001820
-0.011327
-0.020461
-0.028031
-0.032670
-0.032449
-0.025685
-0.014642
-0.001059
0.013064
0.026063
0.036913
0.045232
0.051079
0.054655
0.056060
0.055230
0.052160
0.047547
0.042249
0.035724
0.028104
0.019308
0.009113
-0.002758
-0.016563
-0.032493
-0.050624
-0.070884
-0.092992
-0.116408
-0.140256
-0.163248
-0.183636
-0.199260
-0.207826
-0.207542
-0.197844
-0.180465
-0.162339
-0.150458
-0.149452
-0.160257
-0.180232
-0.205303
-0.231703
-0.256649
-0.278011
-0.293760
-0.302001
-0.301006
-0.288842
-0.263584
-0.223129
-0.165343
-0.090557
-0.007687
0.063560
0.119649
0.160845
0.189757
0.209260
0.221676
0.228603
0.230959
-0.028093
-0.027088
-0.026050
-0.024767
-0.023188
-0.021150
-0.018138
-0.014236
-0.009599
-0.004460
0.000821
0.005839
0.010225
0.013720
0.016221
0.017793
0.018654
0.019135
0.019623
0.020492
0.022021
0.024311
0.027291
0.030440
0.033298
0.035411
0.036467
0.036328
0.034971
0.032403
0.028602
0.023505
0.017051
0.009240
0.000216
-0.009651
-0.019688
-0.028896
-0.035991
-0.039502
-0.036750
-0.029218
-0.018306
-0.005816
0.006527
0.017489
0.026490
0.033539
0.038988
0.043214
0.046224
0.047359
0.046546
0.044766
0.040730
0.034793
0.027214
0.018042
0.007120
-0.005817
-0.021041
-0.038767
-0.059100
-0.081997
-0.107212
-0.134214
-0.162080
-0.189345
-0.213820
-0.232487
-0.241702
-0.238135
-0.217611
-0.185540
-0.153358
-0.131805
-0.127952
-0.143029
-0.171578
-0.206272
-0.242119
-0.276826
-0.307728
-0.332517
-0.349339
-0.356327
-0.351067
-0.331183
-0.293223
-0.230143
-0.133385
-0.011189
0.083665
0.150994
0.195461
0.223743
0.241262
0.251678
0.257213
0.259052
-0.009359
-0.012741
-0.014422
-0.015305
-0.015415
-0.014473
-0.012430
-0.009530
-0.005983
-0.002106
0.001727
0.005148
0.007870
0.009729
0.010719
0.010985
0.010807
0.010560
0.010659
0.011492
0.013340
0.016294
0.020044
0.024116
0.027927
0.030895
0.032603
0.032855
0.031619
0.028926
0.024798
0.019235
0.012256
0.003966
-0.005367
-0.015244
-0.024886
-0.033255
-0.039185
-0.040450
-0.036596
-0.029318
-0.019925
-0.009993
-0.000848
0.006743
0.012633
0.017168
0.020961
0.024635
0.028518
0.032305
0.035940
0.037258
0.035642
0.031125
0.024081
0.014794
0.003279
-0.010659
-0.027278
-0.046793
-0.069323
-0.094838
-0.123111
-0.153635
-0.185480
-0.217069
-0.245839
-0.267844
-0.277669
-0.267545
-0.231158
-0.182997
-0.136904
-0.106508
-0.101948
-0.125688
-0.164983
-0.208866
-0.255805
-0.301802
-0.343709
-0.378820
-0.404802
-0.421163
-0.425336
-0.415459
-0.390053
-0.336383
-0.218004
-0.014852
0.119502
0.198621
0.242716
0.266662
0.279489
0.286190
0.289404
0.290416
0.007334
0.000652
-0.003113
-0.005651
-0.007004
-0.006997
-0.005951
-0.004094
-0.001737
0.000749
0.002992
0.004673
0.005579
0.005642
0.004944
0.003710
0.002289
0.001114
0.000642
0.001286
0.003327
0.006770
0.011204
0.016138
0.020892
0.024772
0.027259
0.028092
0.027226
0.024721
0.020655
0.015107
0.008189
0.000115
-0.008739
-0.017780
-0.026190
-0.032944
-0.036834
-0.036400
-0.032694
-0.026782
-0.020004
-0.013655
-0.008634
-0.005270
-0.003355
-0.002295
-0.001288
0.000520
0.003891
0.009395
0.015769
0.020989
0.023432
0.022108
0.016937
0.008365
-0.003219
-0.017738
-0.035321
-0.056115
-0.080180
-0.107433
-0.137605
-0.170160
-0.204166
-0.238017
-0.268944
-0.292199
-0.300098
-0.275872
-0.231135
-0.176827
-0.126110
-0.092967
-0.090765
-0.123124
-0.165560
-0.218950
-0.276324
-0.332729
-0.384863
-0.429664
-0.463857
-0.485104
-0.496960
-0.497484
-0.497690
-0.496716
-0.399929
-0.012741
0.188396
0.270975
0.305066
0.318300
0.322754
0.323748
0.323664
0.323538
0.021828
0.012894
0.007660
0.003919
0.001772
0.000889
0.001021
0.001846
0.002980
0.004025
0.004619
0.004493
0.003507
0.001670
-0.000853
-0.003755
-0.006608
-0.008907
-0.010131
-0.009828
-0.007707
-0.003892
0.001173
0.006938
0.012643
0.017501
0.020903
0.022525
0.022307
0.020337
0.016756
0.011725
0.005449
-0.001765
-0.009462
-0.017017
-0.023662
-0.028601
-0.030415
-0.029250
-0.026249
-0.022387
-0.018827
-0.016529
-0.015995
-0.017200
-0.019691
-0.022721
-0.025348
-0.026524
-0.025192
-0.020444
-0.013032
-0.004811
0.001994
0.005168
0.003564
-0.002747
-0.013155
-0.027188
-0.044663
-0.065517
-0.089639
-0.116793
-0.146575
-0.178367
-0.211236
-0.243672
-0.273014
-0.294204
-0.291384
-0.267193
-0.228632
-0.185149
-0.147081
-0.124923
-0.125725
-0.149651
-0.193803
-0.248683
-0.308399
-0.367956
-0.424460
-0.474171
-0.512190
-0.533659
-0.538581
-0.540086
-0.561425
-0.680447
-0.738568
0.089392
0.324993
0.374559
0.380897
0.375526
0.368114
0.361848
0.357807
0.356348
0.034148
0.023899
0.017764
0.013336
0.010516
0.008926
0.008250
0.008099
0.008045
0.007674
0.006644
0.004725
0.001835
-0.001949
-0.006389
-0.011097
-0.015554
-0.019160
-0.021308
-0.021484
-0.019379
-0.015245
-0.009561
-0.002949
0.003755
0.009685
0.014152
0.016777
0.017480
0.016378
0.013670
0.009593
0.004434
-0.001433
-0.007515
-0.013201
-0.017799
-0.020581
-0.021093
-0.020010
-0.018201
-0.016696
-0.016472
-0.018184
-0.022022
-0.027746
-0.034780
-0.042288
-0.049209
-0.054299
-0.056222
-0.053759
-0.046921
-0.037303
-0.027112
-0.019302
-0.016242
-0.018745
-0.026361
-0.038314
-0.054033
-0.073138
-0.095256
-0.119928
-0.146576
-0.174505
-0.202849
-0.230361
-0.254740
-0.266673
-0.265060
-0.252373
-0.233716
-0.215933
-0.205403
-0.205178
-0.214790
-0.232113
-0.264095
-0.306028
-0.353686
-0.402693
-0.452600
-0.497254
-0.530254
-0.545590
-0.543423
-0.539750
-0.542294
-0.611371
-0.059929
0.618710
0.535213
0.494577
0.458566
0.430800
0.410671
0.397086
0.389178
0.386434
0.044425
0.033644
0.027086
0.022325
0.019037
0.016903
0.015544
0.014521
0.013377
0.011691
0.009133
0.005506
0.000768
-0.004952
-0.011353
-0.017961
-0.024154
-0.029215
-0.032431
-0.033205
-0.031192
-0.026758
-0.020434
-0.012919
-0.005134
0.001980
0.007663
0.011485
0.013346
0.013382
0.011844
0.009031
0.005292
0.001041
-0.003230
-0.006979
-0.009692
-0.010834
-0.010537
-0.009743
-0.009269
-0.010060
-0.012898
-0.018201
-0.025987
-0.035938
-0.047456
-0.059665
-0.071387
-0.081159
-0.087346
-0.088376
-0.083147
-0.073321
-0.060807
-0.048778
-0.040525
-0.037956
-0.041173
-0.049306
-0.061425
-0.076797
-0.094777
-0.114690
-0.135828
-0.157502
-0.179058
-0.199676
-0.215268
-0.225941
-0.232945
-0.238752
-0.247207
-0.261397
-0.280697
-0.304748
-0.329844
-0.349991
-0.368843
-0.389193
-0.410983
-0.435482
-0.463609
-0.492263
-0.514533
-0.522747
-0.525458
-0.532035
-0.537165
0.000000
0.843833
0.808425
0.676265
0.580815
0.517134
0.473984
0.444821
0.425923
0.415173
0.411478
0.052841
0.042149
0.035571
0.030685
0.027157
0.024654
0.022762
0.021013
0.018931
0.016091
0.012171
0.006988
0.000524
-0.007058
-0.015397
-0.023932
-0.031925
-0.038531
-0.042906
-0.044360
-0.042491
-0.037782
-0.030788
-0.022311
-0.013362
-0.004965
0.002056
0.007220
0.010404
0.011752
0.011552
0.010154
0.007948
0.005364
0.002867
0.000920
-0.000105
-0.000026
0.000539
0.000867
0.000075
-0.002696
-0.008070
-0.016336
-0.027470
-0.041187
-0.056939
-0.073842
-0.090616
-0.105582
-0.116769
-0.122203
-0.119502
-0.110177
-0.095978
-0.080047
-0.066241
-0.057526
-0.054855
-0.057553
-0.064421
-0.074384
-0.086544
-0.100079
-0.114244
-0.128492
-0.142596
-0.155031
-0.167275
-0.181642
-0.200534
-0.226611
-0.261612
-0.304979
-0.353341
-0.402697
-0.446962
-0.478205
-0.487207
-0.483571
-0.473694
-0.465417
-0.464131
-0.469680
-0.477825
-0.487570
-0.502242
-0.517138
0.000000
0.793944
0.879242
0.788064
0.691040
0.608104
0.544632
0.498693
0.466780
0.445854
0.433891
0.429767
0.059599
0.049445
0.043143
0.038342
0.034762
0.032058
0.029800
0.027502
0.024678
0.020897
0.015835
0.009309
0.001307
-0.007985
-0.018153
-0.028546
-0.038307
-0.046453
-0.052011
-0.054188
-0.052530
-0.047563
-0.039892
-0.030424
-0.020274
-0.010547
-0.002132
0.004437
0.009009
0.011724
0.012892
0.012898
0.012158
0.011104
0.010164
0.009715
0.010005
0.010771
0.011464
0.011322
0.009485
0.005186
-0.002093
-0.012602
-0.026370
-0.043219
-0.062691
-0.083942
-0.105634
-0.125902
-0.142423
-0.152634
-0.153999
-0.145441
-0.129842
-0.110085
-0.090342
-0.074497
-0.064558
-0.060390
-0.060728
-0.064186
-0.069620
-0.076099
-0.082902
-0.089734
-0.096280
-0.104271
-0.116752
-0.136831
-0.167499
-0.210701
-0.266600
-0.333130
-0.405776
-0.478026
-0.540462
-0.583010
-0.593849
-0.569283
-0.529075
-0.488074
-0.458668
-0.444421
-0.442786
-0.456540
-0.479391
0.000000
0.595503
0.708647
0.748619
0.725653
0.663213
0.598954
0.545831
0.505350
0.475958
0.456104
0.444553
0.440539
0.064920
0.055630
0.049785
0.045247
0.041777
0.039033
0.036580
0.033928
0.030583
0.026109
0.020171
0.012570
0.003288
-0.007475
-0.019257
-0.031324
-0.042701
-0.052276
-0.058955
-0.061851
-0.060471
-0.055291
-0.046989
-0.036577
-0.025268
-0.014251
-0.004482
0.003453
0.009364
0.013377
0.015811
0.017072
0.017591
0.017798
0.018084
0.018738
0.019858
0.021085
0.021799
0.021248
0.018630
0.013278
0.004736
-0.007266
-0.022859
-0.042000
-0.064365
-0.089201
-0.115192
-0.140376
-0.162160
-0.177503
-0.183280
-0.176344
-0.159742
-0.136278
-0.110370
-0.086667
-0.068308
-0.056053
-0.048906
-0.045311
-0.043884
-0.043560
-0.043561
-0.043558
-0.045451
-0.052109
-0.066760
-0.092660
-0.132248
-0.186664
-0.255502
-0.336462
-0.424905
-0.513582
-0.592237
-0.648285
-0.667510
-0.629842
-0.563173
-0.495778
-0.447053
-0.421880
-0.417596
-0.437068
0.000000
0.321593
0.482358
0.566471
0.629703
0.637910
0.609264
0.569274
0.530863
0.498817
0.474435
0.457508
0.447503
0.444001
0.069023
0.060797
0.055531
0.051390
0.048161
0.045517
0.043030
0.040216
0.036581
0.031680
0.025160
0.016803
0.006572
-0.005329
-0.018401
-0.031835
-0.044555
-0.055340
-0.062994
-0.066561
-0.065527
-0.060219
-0.051404
-0.040184
-0.027861
-0.015700
-0.004722
0.004430
0.011522
0.016656
0.020146
0.022410
0.023892
0.025022
0.026168
0.027570
0.029182
0.030593
0.031208
0.030289
0.027124
0.021147
0.011945
-0.000798
-0.017323
-0.037734
-0.061865
-0.089112
-0.118269
-0.147387
-0.173746
-0.194001
-0.204650
-0.200093
-0.183063
-0.156377
-0.124618
-0.093001
-0.065693
-0.044572
-0.029316
-0.018506
-0.010645
-0.004565
0.000599
0.004891
0.004384
-0.003631
-0.021953
-0.052916
-0.098058
-0.157974
-0.232119
-0.318456
-0.412839
-0.508347
-0.594754
-0.658827
-0.686390
-0.650660
-0.572914
-0.489999
-0.426018
-0.390167
-0.382353
-0.442862
-0.244154
0.160827
0.303240
0.440797
0.520081
0.549158
0.545573
0.526839
0.503834
0.482218
0.464528
0.451675
0.443868
0.441097
0.072133
0.065064
0.060456
0.056792
0.053891
0.051452
0.049067
0.046262
0.042553
0.037491
0.030704
0.021949
0.011162
-0.001457
-0.015390
-0.029777
-0.043468
-0.055158
-0.063582
-0.067740
-0.067109
-0.061799
-0.052659
-0.040856
-0.027759
-0.014697
-0.002753
0.007374
0.015401
0.021394
0.025658
0.028614
0.030721
0.032413
0.034049
0.035843
0.037616
0.038980
0.039348
0.038060
0.034531
0.028299
0.018982
0.006218
-0.010329
-0.030894
-0.055471
-0.083642
-0.114379
-0.145864
-0.175391
-0.199441
-0.214054
-0.214029
-0.197278
-0.168500
-0.132108
-0.093631
-0.058011
-0.028216
-0.004895
0.012838
0.026264
0.036401
0.044224
0.048432
0.045249
0.032842
0.009667
-0.025393
-0.072878
-0.132908
-0.205098
-0.287951
-0.378098
-0.469609
-0.553495
-0.617839
-0.649198
-0.635217
-0.564646
-0.482883
-0.415257
-0.376827
-0.385849
-0.503370
-0.649136
-0.094102
0.179287
0.337128
0.426428
0.469521
0.483379
0.481062
0.471359
0.459616
0.448792
0.440380
0.435071
0.433151
0.074492
0.068591
0.064656
0.061490
0.058954
0.056776
0.054580
0.051916
0.048317
0.043339
0.036602
0.027832
0.016937
0.004088
-0.010201
-0.025051
-0.039277
-0.051527
-0.060491
-0.065145
-0.064964
-0.059809
-0.050584
-0.038484
-0.024920
-0.011269
0.001332
0.012129
0.020785
0.027329
0.032047
0.035366
0.037757
0.039660
0.041426
0.043235
0.044867
0.045917
0.045870
0.044202
0.040470
0.034302
0.025335
0.013179
-0.002566
-0.022225
-0.045921
-0.073415
-0.103894
-0.135773
-0.166530
-0.192708
-0.210176
-0.214691
-0.200140
-0.171320
-0.132571
-0.089584
-0.047791
-0.011026
0.019046
0.042456
0.059779
0.071116
0.075857
0.075345
0.066705
0.048874
0.021759
-0.014478
-0.060132
-0.115510
-0.180392
-0.253512
-0.332048
-0.411159
-0.483726
-0.540658
-0.572295
-0.571720
-0.530996
-0.467644
-0.409736
-0.372025
-0.362003
-0.377618
-0.343810
-0.082725
0.128504
0.267853
0.354357
0.403730
0.428318
0.437521
0.438113
0.434637
0.429940
0.425688
0.422796
0.421713
0.076352
0.071549
0.068237
0.065530
0.063331
0.061410
0.059429
0.056979
0.053625
0.048944
0.042555
0.034163
0.023634
0.011090
-0.003002
-0.017793
-0.032106
-0.044575
-0.053869
-0.058937
-0.059238
-0.054416
-0.045364
-0.033277
-0.019579
-0.005678
0.007243
0.018377
0.027334
0.034104
0.038955
0.042315
0.044665
0.046449
0.047992
0.049415
0.050586
0.051083
0.050519
0.048517
0.044750
0.038907
0.030640
0.019552
0.005233
-0.012676
-0.034373
-0.059749
-0.088204
-0.118433
-0.148253
-0.174557
-0.193553
-0.201511
-0.190927
-0.164488
-0.126387
-0.082285
-0.037835
0.002531
0.036255
0.062440
0.080877
0.090789
0.090624
0.080429
0.067340
0.047181
0.020019
-0.014201
-0.055663
-0.104434
-0.160101
-0.221407
-0.285905
-0.349708
-0.407442
-0.452667
-0.479000
-0.482156
-0.462181
-0.421201
-0.375232
-0.334752
-0.300983
-0.261837
-0.181781
-0.027274
0.116422
0.226267
0.302777
0.352507
0.382549
0.399083
0.406997
0.409870
0.410157
0.409434
0.408651
0.408308
0.077973
0.074111
0.071305
0.068949
0.066996
0.065261
0.063455
0.061224
0.058187
0.053963
0.048188
0.040554
0.030872
0.019182
0.005851
-0.008364
-0.022343
-0.034740
-0.044203
-0.049643
-0.050464
-0.046161
-0.037532
-0.025749
-0.012232
0.001592
0.014507
0.025654
0.034594
0.041279
0.045958
0.049058
0.051067
0.052425
0.053424
0.054135
0.054585
0.054407
0.053329
0.051089
0.047433
0.042085
0.034716
0.024955
0.012418
-0.003236
-0.022216
-0.044483
-0.069587
-0.096489
-0.123391
-0.147672
-0.166015
-0.174807
-0.170549
-0.148390
-0.114030
-0.072559
-0.029575
0.010167
0.043409
0.068374
0.084251
0.090730
0.087919
0.076734
0.059776
0.038979
0.012963
-0.018403
-0.055201
-0.097301
-0.144138
-0.194476
-0.246210
-0.296254
-0.340634
-0.374894
-0.394923
-0.398185
-0.385028
-0.356529
-0.319014
-0.277724
-0.232318
-0.175544
-0.095073
0.012007
0.115232
0.201295
0.266958
0.314041
0.346071
0.366799
0.379547
0.386973
0.391038
0.393099
0.394022
0.394286
0.079621
0.076442
0.073951
0.071778
0.069919
0.068239
0.066507
0.064436
0.061721
0.058048
0.053098
0.046560
0.038185
0.027884
0.015856
0.002699
-0.010585
-0.022690
-0.032241
-0.038074
-0.039502
-0.035875
-0.027885
-0.016653
-0.003582
0.009891
0.022516
0.033392
0.042036
0.048363
0.052605
0.055188
0.056604
0.057289
0.057529
0.057400
0.056963
0.056112
0.054586
0.052199
0.048741
0.043961
0.037560
0.029200
0.018542
0.005288
-0.010748
-0.029536
-0.050708
-0.073412
-0.096188
-0.116918
-0.132927
-0.141334
-0.139769
-0.123830
-0.095656
-0.059903
-0.021870
0.013694
0.043288
0.064860
0.077611
0.081605
0.077464
0.066296
0.049552
0.029064
0.004684
-0.023726
-0.056156
-0.092360
-0.131707
-0.173044
-0.214581
-0.253877
-0.287965
-0.313690
-0.328261
-0.329939
-0.318581
-0.295053
-0.261970
-0.221582
-0.173709
-0.115646
-0.044501
0.036980
0.116256
0.185720
0.242221
0.285737
0.317834
0.340662
0.356386
0.366888
0.373660
0.377794
0.380019
0.380752
0.081558
0.078679
0.076247
0.074038
0.072086
0.070297
0.068495
0.066473
0.064019
0.060920
0.056933
0.051768
0.045102
0.036668
0.026425
0.014732
0.002429
-0.009240
-0.018856
-0.025145
-0.027276
-0.024532
-0.017362
-0.006867
0.005564
0.018481
0.030606
0.040996
0.049129
0.054892
0.058505
0.060391
0.061049
0.060925
0.060325
0.059380
0.058059
0.056589
0.054677
0.052191
0.048956
0.044748
0.039294
0.032290
0.023426
0.012433
-0.000846
-0.016375
-0.033813
-0.052420
-0.070973
-0.087753
-0.100644
-0.107413
-0.106198
-0.094930
-0.073106
-0.044292
-0.012953
0.016631
0.041158
0.058636
0.068303
0.070299
0.065337
0.054455
0.038762
0.019395
-0.003117
-0.028755
-0.057401
-0.088734
-0.122116
-0.156501
-0.190374
-0.221772
-0.248409
-0.267933
-0.278286
-0.278098
-0.266932
-0.245364
-0.214692
-0.176022
-0.129676
-0.075364
-0.013494
0.052805
0.117383
0.175643
0.225120
0.265213
0.296504
0.320177
0.337601
0.350075
0.358695
0.364303
0.367481
0.368563
0.084025
0.080917
0.078234
0.075764
0.073537
0.071479
0.069462
0.067354
0.065056
0.062484
0.059514
0.055902
0.051237
0.045025
0.036910
0.026955
0.015805
0.004648
-0.005041
-0.011840
-0.014719
-0.013141
-0.006904
0.002736
0.014413
0.026660
0.038163
0.047940
0.055440
0.060529
0.063420
0.064541
0.064398
0.063452
0.062040
0.060340
0.058400
0.056279
0.054001
0.051414
0.048380
0.044705
0.040135
0.034375
0.027117
0.018090
0.007139
-0.005698
-0.020100
-0.035392
-0.050500
-0.063973
-0.074085
-0.079064
-0.077416
-0.068257
-0.051179
-0.028454
-0.003514
0.020108
0.039544
0.053005
0.059785
0.060022
0.054378
0.043748
0.029021
0.010974
-0.009756
-0.033002
-0.058557
-0.086058
-0.114890
-0.144112
-0.172428
-0.198211
-0.219620
-0.234787
-0.242071
-0.240306
-0.228943
-0.208326
-0.179230
-0.142435
-0.098659
-0.048685
0.006061
0.062909
0.118228
0.169008
0.213384
0.250629
0.280861
0.304707
0.323024
0.336700
0.346530
0.353152
0.357011
0.358351
0.087177
0.083148
0.079923
0.077014
0.074394
0.071974
0.069647
0.067339
0.065088
0.062963
0.060989
0.058978
0.056409
0.052508
0.046569
0.038359
0.028354
0.017701
0.007943
0.000631
-0.003041
-0.002502
0.002644
0.011371
0.022273
0.033837
0.044704
0.053856
0.060713
0.065135
0.067330
0.067734
0.066859
0.065178
0.063047
0.060684
0.058190
0.055601
0.052953
0.050235
0.047369
0.044172
0.040391
0.035709
0.029789
0.022337
0.013184
0.002357
-0.009842
-0.022786
-0.035503
-0.046710
-0.054928
-0.058685
-0.056784
-0.048609
-0.034475
-0.016007
0.004144
0.023111
0.038477
0.048692
0.053138
0.051950
0.045727
0.035241
0.021233
0.004289
-0.014978
-0.036335
-0.059527
-0.084182
-0.109716
-0.135280
-0.159733
-0.181676
-0.199547
-0.211770
-0.216945
-0.214034
-0.202472
-0.182435
-0.154466
-0.119297
-0.077874
-0.031416
0.018399
0.069322
0.118820
0.164728
0.205588
0.240690
0.269942
0.293663
0.312400
0.326770
0.337363
0.344669
0.349029
0.350592
0.090874
0.085172
0.081252
0.077866
0.074863
0.072103
0.069487
0.066949
0.064731
0.063031
0.061988
0.061414
0.060635
0.058607
0.054350
0.047441
0.038279
0.028017
0.018245
0.010590
0.006340
0.006170
0.010320
0.018249
0.028495
0.039499
0.049853
0.058498
0.064833
0.068709
0.070343
0.070172
0.068714
0.066443
0.063725
0.060802
0.057818
0.054856
0.051961
0.049129
0.046440
0.043665
0.040508
0.036615
0.031623
0.025225
0.017245
0.007710
-0.003093
-0.014569
-0.025812
-0.035649
-0.042754
-0.045837
-0.043893
-0.036488
-0.024128
-0.008223
0.008977
0.025006
0.037745
0.045812
0.048668
0.046466
0.039777
0.029319
0.015755
-0.000425
-0.018647
-0.038677
-0.060259
-0.083018
-0.106398
-0.129606
-0.151604
-0.171130
-0.186787
-0.197169
-0.201017
-0.197375
-0.185706
-0.166049
-0.138834
-0.104818
-0.065065
-0.020954
0.025804
0.073222
0.119273
0.162230
0.200875
0.234545
0.263060
0.286581
0.305480
0.320220
0.331266
0.339029
0.343811
0.345694
0.094169
0.086488
0.082048
0.078348
0.075108
0.072150
0.069405
0.067011
0.065040
0.063779
0.063361
0.063524
0.063482
0.062099
0.058357
0.051839
0.042964
0.032890
0.023195
0.015488
0.011073
0.010729
0.014686
0.022251
0.032202
0.042991
0.053153
0.061581
0.067654
0.071224
0.072516
0.071981
0.070142
0.067478
0.064361
0.061049
0.057711
0.054487
0.051536
0.048909
0.046370
0.043782
0.040860
0.037247
0.032582
0.026565
0.019032
0.010014
-0.000199
-0.011026
-0.021595
-0.030791
-0.037367
-0.040131
-0.038164
-0.031052
-0.019356
-0.004559
0.011358
0.026101
0.037648
0.044679
0.046695
0.043882
0.036839
0.026300
0.012945
-0.002663
-0.020320
-0.039723
-0.060566
-0.082458
-0.104843
-0.126955
-0.147796
-0.166171
-0.180763
-0.190247
-0.193436
-0.189415
-0.177642
-0.158105
-0.131239
-0.097780
-0.058838
-0.015847
0.029482
0.075279
0.119719
0.161261
0.198804
0.231723
0.259811
0.283170
0.302095
0.316980
0.328239
0.336270
0.341454
0.344257
