# vtk DataFile Version 3.0
Vector Field
ASCII
DATASET RECTILINEAR_GRID
DIMENSIONS 100 26 1
X_COORDINATES 100 double
0.050000 0.150000 0.250000 0.350000 0.450000 0.550000 0.650000 0.750000 0.850000 0.950000 1.050000 1.150000 1.250000 1.350000 1.450000 1.550000 1.650000 1.750000 1.850000 1.950000 2.050000 2.150000 2.250000 2.350000 2.450000 2.550000 2.650000 2.750000 2.850000 2.950000 3.050000 3.150000 3.250000 3.350000 3.450000 3.550000 3.650000 3.750000 3.850000 3.950000 4.050000 4.150000 4.250000 4.350000 4.450000 4.550000 4.650000 4.750000 4.850000 4.950000 5.050000 5.150000 5.250000 5.350000 5.450000 5.550000 5.650000 5.750000 5.850000 5.950000 6.050000 6.150000 6.250000 6.350000 6.450000 6.550000 6.650000 6.750000 6.850000 6.950000 7.050000 7.150000 7.250000 7.350000 7.450000 7.550000 7.650000 7.750000 7.850000 7.950000 8.050000 8.150000 8.250000 8.350000 8.450000 8.550000 8.650000 8.750000 8.850000 8.950000 9.050000 9.150000 9.250000 9.350000 9.450000 9.550000 9.650000 9.750000 9.850000 9.950000 
Y_COORDINATES 26 double
0.050000 0.150000 0.250000 0.350000 0.450000 0.550000 0.650000 0.750000 0.850000 0.950000 1.050000 1.150000 1.250000 1.350000 1.450000 1.550000 1.650000 1.750000 1.850000 1.950000 2.050000 2.150000 2.250000 2.350000 2.450000 2.550000 
Z_COORDINATES 1 double
0.0
POINT_DATA 2600
VECTORS Vektorfeld double
-0.762000 -0.000906 0.0
-0.760486 -0.000608 0.0
-0.759401 -0.000476 0.0
-0.758549 -0.000376 0.0
-0.757879 -0.000295 0.0
-0.757353 -0.000231 0.0
-0.756936 -0.000186 0.0
-0.756581 -0.000169 0.0
-0.756230 -0.000182 0.0
-0.755818 -0.000230 0.0
-0.755283 -0.000305 0.0
-0.754582 -0.000396 0.0
-0.753715 -0.000471 0.0
-0.752761 -0.000483 0.0
-0.751924 -0.000354 0.0
-0.751589 0.000018 0.0
-0.752329 0.000722 0.0
-0.754820 0.001769 0.0
-0.759750 0.003162 0.0
-0.767802 0.004890 0.0
-0.779599 0.006906 0.0
-0.795629 0.009123 0.0
-0.816166 0.011414 0.0
-0.841209 0.013628 0.0
-0.870450 0.015613 0.0
-0.903295 0.017232 0.0
-0.938900 0.018373 0.0
-0.976220 0.018947 0.0
-1.014049 0.018881 0.0
-1.051044 0.018114 0.0
-1.085761 0.016603 0.0
-1.116696 0.014332 0.0
-1.142352 0.011324 0.0
-1.161328 0.007651 0.0
-1.172416 0.003436 0.0
-1.174692 -0.001160 0.0
-1.167560 -0.005973 0.0
-1.150978 -0.010609 0.0
-1.125920 -0.014450 0.0
-1.094382 -0.017089 0.0
-1.058890 -0.018403 0.0
-1.022021 -0.018466 0.0
-0.986104 -0.017451 0.0
-0.953103 -0.015549 0.0
-0.924618 -0.012937 0.0
-0.901911 -0.009770 0.0
-0.885968 -0.006172 0.0
-0.877558 -0.002238 0.0
-0.877232 0.001913 0.0
-0.885088 0.005943 0.0
-0.900523 0.009493 0.0
-0.922497 0.012481 0.0
-0.949890 0.014912 0.0
-0.981602 0.016801 0.0
-1.016553 0.018150 0.0
-1.053652 0.018948 0.0
-1.091776 0.019176 0.0
-1.129758 0.018806 0.0
-1.166377 0.017813 0.0
-1.200366 0.016176 0.0
-1.230436 0.013894 0.0
-1.255326 0.010996 0.0
-1.273890 0.007567 0.0
-1.285218 0.003761 0.0
-1.288791 -0.000188 0.0
-1.284620 -0.003984 0.0
-1.273355 -0.007281 0.0
-1.256470 -0.009604 0.0
-1.236259 -0.010607 0.0
-1.215448 -0.010203 0.0
-1.196688 -0.008558 0.0
-1.182116 -0.006014 0.0
-1.173128 -0.002974 0.0
-1.170332 0.000178 0.0
-1.173621 0.003111 0.0
-1.182309 0.005577 0.0
-1.195356 0.007470 0.0
-1.211546 0.008720 0.0
-1.229553 0.009287 0.0
-1.247999 0.009159 0.0
-1.265513 0.008355 0.0
-1.280786 0.006918 0.0
-1.292621 0.004917 0.0
-1.299982 0.002444 0.0
-1.302034 -0.000393 0.0
-1.298175 -0.003466 0.0
-1.288092 -0.006617 0.0
-1.271821 -0.009654 0.0
-1.249801 -0.012366 0.0
-1.222914 -0.014521 0.0
-1.192488 -0.015905 0.0
-1.160211 -0.016373 0.0
-1.127922 -0.015916 0.0
-1.097340 -0.014665 0.0
-1.069855 -0.012820 0.0
-1.046444 -0.010591 0.0
-1.027693 -0.008159 0.0
-1.013874 -0.005660 0.0
-1.005014 -0.003200 0.0
-1.000907 -0.000907 0.0
-0.859050 -0.002598 0.0
-0.857630 -0.001851 0.0
-0.856628 -0.001320 0.0
-0.856175 -0.000838 0.0
-0.856283 -0.000396 0.0
-0.856935 -0.000003 0.0
-0.858086 0.000320 0.0
-0.859664 0.000548 0.0
-0.861579 0.000665 0.0
-0.863736 0.000668 0.0
-0.866052 0.000578 0.0
-0.868475 0.000443 0.0
-0.871005 0.000353 0.0
-0.873706 0.000440 0.0
-0.876706 0.000886 0.0
-0.880181 0.001918 0.0
-0.884378 0.003759 0.0
-0.889713 0.006556 0.0
-0.896791 0.010383 0.0
-0.906287 0.015217 0.0
-0.918824 0.020912 0.0
-0.934871 0.027194 0.0
-0.954676 0.033686 0.0
-0.978224 0.039948 0.0
-1.005230 0.045541 0.0
-1.035150 0.050069 0.0
-1.067209 0.053200 0.0
-1.100431 0.054662 0.0
-1.133661 0.054224 0.0
-1.165590 0.051694 0.0
-1.194776 0.046926 0.0
-1.219678 0.039846 0.0
-1.238707 0.030495 0.0
-1.250306 0.019055 0.0
-1.253057 0.005871 0.0
-1.245834 -0.008540 0.0
-1.228467 -0.023093 0.0
-1.202419 -0.036118 0.0
-1.170290 -0.046127 0.0
-1.134892 -0.052348 0.0
-1.098808 -0.054719 0.0
-1.064199 -0.053628 0.0
-1.032784 -0.049623 0.0
-1.005913 -0.043248 0.0
-0.984637 -0.035000 0.0
-0.969689 -0.025361 0.0
-0.961419 -0.014795 0.0
-0.959734 -0.003711 0.0
-0.964207 0.007532 0.0
-0.974401 0.018373 0.0
-0.990148 0.028245 0.0
-1.011288 0.036843 0.0
-1.037355 0.044010 0.0
-1.067598 0.049660 0.0
-1.101089 0.053733 0.0
-1.136796 0.056170 0.0
-1.173618 0.056900 0.0
-1.210392 0.055838 0.0
-1.245887 0.052895 0.0
-1.278803 0.047999 0.0
-1.307784 0.041123 0.0
-1.331463 0.032336 0.0
-1.348536 0.021865 0.0
-1.357896 0.010151 0.0
-1.358807 -0.002094 0.0
-1.351173 -0.013882 0.0
-1.335870 -0.023950 0.0
-1.314813 -0.030877 0.0
-1.290703 -0.033655 0.0
-1.266603 -0.032066 0.0
-1.245353 -0.026707 0.0
-1.229071 -0.018718 0.0
-1.218932 -0.009397 0.0
-1.215226 0.000099 0.0
-1.217632 0.008885 0.0
-1.225481 0.016340 0.0
-1.237810 0.022082 0.0
-1.253388 0.025875 0.0
-1.270841 0.027592 0.0
-1.288738 0.027198 0.0
-1.305658 0.024750 0.0
-1.320242 0.020379 0.0
-1.331245 0.014295 0.0
-1.337587 0.006770 0.0
-1.338394 -0.001861 0.0
-1.333050 -0.011200 0.0
-1.321233 -0.020783 0.0
-1.302931 -0.030062 0.0
-1.278514 -0.038395 0.0
-1.248828 -0.045065 0.0
-1.215249 -0.049365 0.0
-1.179639 -0.050801 0.0
-1.144079 -0.049337 0.0
-1.110476 -0.045429 0.0
-1.080285 -0.039733 0.0
-1.054458 -0.032917 0.0
-1.033516 -0.025526 0.0
-1.017675 -0.017953 0.0
-1.006979 -0.010462 0.0
-1.001459 -0.003273 0.0
-0.861290 -0.004152 0.0
-0.860030 -0.002977 0.0
-0.859351 -0.001874 0.0
-0.859326 -0.000761 0.0
-0.860025 0.000335 0.0
-0.861481 0.001376 0.0
-0.863700 0.002311 0.0
-0.866660 0.003094 0.0
-0.870321 0.003694 0.0
-0.874635 0.004110 0.0
-0.879564 0.004380 0.0
-0.885092 0.004592 0.0
-0.891244 0.004887 0.0
-0.898100 0.005462 0.0
-0.905797 0.006560 0.0
-0.914532 0.008455 0.0
-0.924541 0.011430 0.0
-0.936065 0.015744 0.0
-0.949326 0.021535 0.0
-0.964533 0.028769 0.0
-0.981863 0.037227 0.0
-1.001437 0.046500 0.0
-1.023285 0.056033 0.0
-1.047318 0.065181 0.0
-1.073291 0.073286 0.0
-1.100784 0.079737 0.0
-1.129181 0.083990 0.0
-1.157661 0.085575 0.0
-1.185197 0.084078 0.0
-1.210563 0.079136 0.0
-1.232352 0.070460 0.0
-1.249019 0.057880 0.0
-1.258930 0.041403 0.0
-1.260468 0.021285 0.0
-1.252152 -0.001925 0.0
-1.233359 -0.026759 0.0
-1.205599 -0.050001 0.0
-1.172099 -0.068757 0.0
-1.136281 -0.081435 0.0
-1.101013 -0.087705 0.0
-1.068325 -0.088135 0.0
-1.039444 -0.083702 0.0
-1.015030 -0.075377 0.0
-0.995478 -0.063916 0.0
-0.981173 -0.049914 0.0
-0.972575 -0.033994 0.0
-0.970089 -0.016919 0.0
-0.973861 0.000502 0.0
-0.983647 0.017578 0.0
-0.998893 0.033769 0.0
-1.018972 0.048675 0.0
-1.043327 0.061907 0.0
-1.071452 0.073137 0.0
-1.102796 0.082119 0.0
-1.136698 0.088667 0.0
-1.172376 0.092622 0.0
-1.208934 0.093829 0.0
-1.245372 0.092120 0.0
-1.280577 0.087314 0.0
-1.313323 0.079243 0.0
-1.342268 0.067805 0.0
-1.365979 0.053044 0.0
-1.383003 0.035254 0.0
-1.391988 0.015106 0.0
-1.391871 -0.006256 0.0
-1.382093 -0.027132 0.0
-1.363094 -0.045002 0.0
-1.336892 -0.057086 0.0
-1.306943 -0.061505 0.0
-1.277282 -0.057976 0.0
-1.251554 -0.047774 0.0
-1.232340 -0.033145 0.0
-1.220915 -0.016534 0.0
-1.217402 0.000017 0.0
-1.221126 0.015099 0.0
-1.230968 0.027816 0.0
-1.245607 0.037574 0.0
-1.263640 0.043995 0.0
-1.283597 0.046881 0.0
-1.303971 0.046181 0.0
-1.323269 0.041985 0.0
-1.340061 0.034520 0.0
-1.353035 0.024132 0.0
-1.361040 0.011280 0.0
-1.363123 -0.003482 0.0
-1.358537 -0.019508 0.0
-1.346788 -0.036043 0.0
-1.327695 -0.052197 0.0
-1.301481 -0.066890 0.0
-1.268917 -0.078822 0.0
-1.231519 -0.086584 0.0
-1.191626 -0.089084 0.0
-1.152032 -0.086208 0.0
-1.115164 -0.079028 0.0
-1.082639 -0.068851 0.0
-1.055340 -0.056926 0.0
-1.033600 -0.044200 0.0
-1.017430 -0.031290 0.0
-1.006713 -0.018536 0.0
-1.001351 -0.006082 0.0
-0.860208 -0.005721 0.0
-0.858920 -0.003955 0.0
-0.858290 -0.002206 0.0
-0.858400 -0.000345 0.0
-0.859354 0.001571 0.0
-0.861229 0.003471 0.0
-0.864070 0.005275 0.0
-0.867890 0.006909 0.0
-0.872676 0.008327 0.0
-0.878406 0.009523 0.0
-0.885061 0.010551 0.0
-0.892643 0.011531 0.0
-0.901194 0.012651 0.0
-0.910798 0.014158 0.0
-0.921582 0.016345 0.0
-0.933698 0.019521 0.0
-0.947298 0.023973 0.0
-0.962498 0.029925 0.0
-0.979359 0.037477 0.0
-0.997877 0.046552 0.0
-1.017983 0.056881 0.0
-1.039556 0.067993 0.0
-1.062418 0.079252 0.0
-1.086331 0.089908 0.0
-1.110966 0.099167 0.0
-1.135864 0.106247 0.0
-1.160394 0.110407 0.0
-1.183720 0.110964 0.0
-1.204777 0.107283 0.0
-1.222278 0.098797 0.0
-1.234732 0.085042 0.0
-1.240487 0.065720 0.0
-1.237806 0.040794 0.0
-1.224996 0.010622 0.0
-1.201036 -0.023538 0.0
-1.167819 -0.057156 0.0
-1.129769 -0.085415 0.0
-1.091142 -0.105469 0.0
-1.055271 -0.116412 0.0
-1.024406 -0.118860 0.0
-0.999724 -0.114349 0.0
-0.981418 -0.104674 0.0
-0.968920 -0.091318 0.0
-0.961318 -0.075130 0.0
-0.957875 -0.056447 0.0
-0.958369 -0.035565 0.0
-0.963068 -0.013135 0.0
-0.972429 0.009850 0.0
-0.986735 0.032322 0.0
-1.005915 0.053451 0.0
-1.029565 0.072723 0.0
-1.057126 0.089774 0.0
-1.088033 0.104302 0.0
-1.121751 0.116017 0.0
-1.157728 0.124648 0.0
-1.195346 0.129936 0.0
-1.233887 0.131613 0.0
-1.272497 0.129383 0.0
-1.310159 0.122918 0.0
-1.345651 0.111877 0.0
-1.377510 0.095975 0.0
-1.404017 0.075093 0.0
-1.423239 0.049451 0.0
-1.433159 0.019813 0.0
-1.431910 -0.012330 0.0
-1.418231 -0.044514 0.0
-1.392684 -0.072165 0.0
-1.358476 -0.090332 0.0
-1.320568 -0.096115 0.0
-1.284149 -0.089446 0.0
-1.253519 -0.072663 0.0
-1.231505 -0.049485 0.0
-1.219294 -0.023829 0.0
-1.216669 0.001174 0.0
-1.222518 0.023515 0.0
-1.235346 0.042070 0.0
-1.253581 0.056194 0.0
-1.275623 0.065450 0.0
-1.299820 0.069580 0.0
-1.324490 0.068525 0.0
-1.347966 0.062415 0.0
-1.368654 0.051570 0.0
-1.385086 0.036487 0.0
-1.395974 0.017818 0.0
-1.400247 -0.003665 0.0
-1.397036 -0.027121 0.0
-1.385665 -0.051550 0.0
-1.365710 -0.075737 0.0
-1.337078 -0.098195 0.0
-1.300224 -0.116935 0.0
-1.256689 -0.129404 0.0
-1.209643 -0.133203 0.0
-1.163431 -0.127896 0.0
-1.121521 -0.116118 0.0
-1.085633 -0.100174 0.0
-1.056402 -0.082133 0.0
-1.033745 -0.063390 0.0
-1.017278 -0.044737 0.0
-1.006574 -0.026510 0.0
-1.001306 -0.008739 0.0
-0.858516 -0.007399 0.0
-0.857091 -0.004991 0.0
-0.856361 -0.002530 0.0
-0.856454 0.000182 0.0
-0.857521 0.003066 0.0
-0.859686 0.006016 0.0
-0.863027 0.008912 0.0
-0.867581 0.011646 0.0
-0.873350 0.014145 0.0
-0.880310 0.016395 0.0
-0.888436 0.018459 0.0
-0.897718 0.020486 0.0
-0.908173 0.022701 0.0
-0.919855 0.025395 0.0
-0.932849 0.028886 0.0
-0.947243 0.033490 0.0
-0.963109 0.039468 0.0
-0.980465 0.046986 0.0
-0.999254 0.056067 0.0
-1.019336 0.066562 0.0
-1.040490 0.078131 0.0
-1.062423 0.090248 0.0
-1.084780 0.102217 0.0
-1.107141 0.113217 0.0
-1.128996 0.122348 0.0
-1.149715 0.128682 0.0
-1.168506 0.131294 0.0
-1.184389 0.129286 0.0
-1.196183 0.121811 0.0
-1.202518 0.108104 0.0
-1.201875 0.087545 0.0
-1.192652 0.059747 0.0
-1.173265 0.024699 0.0
-1.142537 -0.016821 0.0
-1.102625 -0.059968 0.0
-1.058718 -0.097850 0.0
-1.015354 -0.126135 0.0
-0.975874 -0.142857 0.0
-0.942754 -0.148016 0.0
-0.917771 -0.143105 0.0
-0.901975 -0.130581 0.0
-0.895471 -0.113252 0.0
-0.897180 -0.093530 0.0
-0.904994 -0.072705 0.0
-0.916538 -0.050771 0.0
-0.930111 -0.027175 0.0
-0.945137 -0.001799 0.0
-0.962045 0.024783 0.0
-0.981774 0.051423 0.0
-1.005098 0.076853 0.0
-1.032257 0.100130 0.0
-1.063028 0.120698 0.0
-1.096964 0.138222 0.0
-1.133567 0.152417 0.0
-1.172323 0.162981 0.0
-1.212678 0.169577 0.0
-1.253979 0.171813 0.0
-1.295410 0.169225 0.0
-1.335931 0.161260 0.0
-1.374197 0.147293 0.0
-1.408478 0.126698 0.0
-1.436599 0.098997 0.0
-1.455941 0.064113 0.0
-1.463571 0.022701 0.0
-1.456578 -0.023460 0.0
-1.433625 -0.070015 0.0
-1.397372 -0.108464 0.0
-1.353895 -0.131718 0.0
-1.309700 -0.136833 0.0
-1.270047 -0.124800 0.0
-1.238640 -0.099346 0.0
-1.217736 -0.065721 0.0
-1.208098 -0.029441 0.0
-1.209090 0.005152 0.0
-1.219226 0.035521 0.0
-1.236877 0.060542 0.0
-1.260455 0.079535 0.0
-1.288255 0.091951 0.0
-1.318440 0.097460 0.0
-1.349110 0.095984 0.0
-1.378375 0.087697 0.0
-1.404421 0.073022 0.0
-1.425574 0.052621 0.0
-1.440383 0.027381 0.0
-1.447673 -0.001665 0.0
-1.446530 -0.033476 0.0
-1.436172 -0.066925 0.0
-1.415925 -0.100565 0.0
-1.385117 -0.132807 0.0
-1.343210 -0.161084 0.0
-1.291003 -0.180996 0.0
-1.232730 -0.186930 0.0
-1.176353 -0.176757 0.0
-1.127534 -0.157986 0.0
-1.087557 -0.134170 0.0
-1.056383 -0.108542 0.0
-1.033116 -0.082905 0.0
-1.016715 -0.058090 0.0
-1.006294 -0.034282 0.0
-1.001242 -0.011287 0.0
-0.856424 -0.009265 0.0
-0.854738 -0.006235 0.0
-0.853738 -0.003017 0.0
-0.853634 0.000658 0.0
-0.854656 0.004680 0.0
-0.856984 0.008895 0.0
-0.860740 0.013130 0.0
-0.865979 0.017222 0.0
-0.872698 0.021056 0.0
-0.880852 0.024598 0.0
-0.890377 0.027908 0.0
-0.901214 0.031155 0.0
-0.913326 0.034599 0.0
-0.926707 0.038561 0.0
-0.941372 0.043378 0.0
-0.957337 0.049357 0.0
-0.974586 0.056717 0.0
-0.993044 0.065551 0.0
-1.012547 0.075794 0.0
-1.032836 0.087205 0.0
-1.053554 0.099360 0.0
-1.074258 0.111656 0.0
-1.094422 0.123330 0.0
-1.113439 0.133481 0.0
-1.130610 0.141109 0.0
-1.145125 0.145155 0.0
-1.156047 0.144535 0.0
-1.162306 0.138186 0.0
-1.162703 0.125102 0.0
-1.155950 0.104395 0.0
-1.140720 0.075382 0.0
-1.115739 0.037706 0.0
-1.080000 -0.008384 0.0
-1.035566 -0.058900 0.0
-0.987706 -0.105662 0.0
-0.940840 -0.142929 0.0
-0.897705 -0.167556 0.0
-0.860259 -0.178364 0.0
-0.830042 -0.175845 0.0
-0.808496 -0.161804 0.0
-0.797106 -0.139067 0.0
-0.797157 -0.111220 0.0
-0.808916 -0.082094 0.0
-0.830638 -0.054605 0.0
-0.858519 -0.029445 0.0
-0.888094 -0.005352 0.0
-0.916391 0.019702 0.0
-0.943112 0.046911 0.0
-0.969715 0.075627 0.0
-0.997898 0.104157 0.0
-1.028755 0.130842 0.0
-1.062603 0.154605 0.0
-1.099226 0.174875 0.0
-1.138162 0.191301 0.0
-1.178852 0.203544 0.0
-1.220665 0.211183 0.0
-1.262843 0.213685 0.0
-1.304433 0.210374 0.0
-1.344207 0.200406 0.0
-1.380564 0.182771 0.0
-1.411424 0.156361 0.0
-1.434112 0.120142 0.0
-1.445306 0.073503 0.0
-1.441130 0.016765 0.0
-1.417921 -0.047724 0.0
-1.377454 -0.109171 0.0
-1.328326 -0.154690 0.0
-1.279779 -0.177518 0.0
-1.238049 -0.176959 0.0
-1.206142 -0.156234 0.0
-1.185001 -0.120459 0.0
-1.174768 -0.075746 0.0
-1.175078 -0.028744 0.0
-1.184758 0.015127 0.0
-1.202493 0.053417 0.0
-1.227444 0.085247 0.0
-1.258543 0.109507 0.0
-1.294094 0.125331 0.0
-1.332078 0.132249 0.0
-1.370366 0.130153 0.0
-1.406824 0.119253 0.0
-1.439387 0.100075 0.0
-1.466143 0.073477 0.0
-1.485458 0.040650 0.0
-1.496133 0.003032 0.0
-1.497484 -0.037966 0.0
-1.489120 -0.081156 0.0
-1.470587 -0.125113 0.0
-1.440470 -0.169184 0.0
-1.395795 -0.211289 0.0
-1.333923 -0.244869 0.0
-1.258712 -0.256542 0.0
-1.186863 -0.235371 0.0
-1.129593 -0.205461 0.0
-1.085669 -0.170596 0.0
-1.053470 -0.135489 0.0
-1.030647 -0.102046 0.0
-1.015195 -0.070802 0.0
-1.005655 -0.041531 0.0
-1.001108 -0.013637 0.0
-0.854494 -0.011411 0.0
-0.852390 -0.007879 0.0
-0.850869 -0.003896 0.0
-0.850286 0.000850 0.0
-0.850982 0.006205 0.0
-0.853230 0.011946 0.0
-0.857211 0.017816 0.0
-0.863007 0.023570 0.0
-0.870604 0.029023 0.0
-0.879912 0.034093 0.0
-0.890798 0.038824 0.0
-0.903114 0.043393 0.0
-0.916731 0.048090 0.0
-0.931544 0.053264 0.0
-0.947477 0.059272 0.0
-0.964454 0.066405 0.0
-0.982368 0.074833 0.0
-1.001047 0.084572 0.0
-1.020230 0.095458 0.0
-1.039548 0.107147 0.0
-1.058529 0.119117 0.0
-1.076603 0.130676 0.0
-1.093108 0.140979 0.0
-1.107303 0.149043 0.0
-1.118364 0.153780 0.0
-1.125395 0.154030 0.0
-1.127425 0.148613 0.0
-1.123433 0.136375 0.0
-1.112378 0.116255 0.0
-1.093250 0.087361 0.0
-1.065143 0.049079 0.0
-1.027354 0.001238 0.0
-0.981502 -0.053507 0.0
-0.932557 -0.107155 0.0
-0.884961 -0.152863 0.0
-0.840971 -0.186584 0.0
-0.801986 -0.206020 0.0
-0.768822 -0.210511 0.0
-0.742019 -0.200718 0.0
-0.722226 -0.178272 0.0
-0.710612 -0.145603 0.0
-0.709174 -0.106072 0.0
-0.720437 -0.064220 0.0
-0.745847 -0.025348 0.0
-0.783299 0.006630 0.0
-0.827148 0.031996 0.0
-0.871178 0.054680 0.0
-0.911500 0.078975 0.0
-0.947822 0.106490 0.0
-0.982256 0.135912 0.0
-1.017049 0.164736 0.0
-1.053390 0.190900 0.0
-1.091428 0.213240 0.0
-1.130710 0.231153 0.0
-1.170504 0.244177 0.0
-1.209912 0.251770 0.0
-1.247858 0.253221 0.0
-1.283040 0.247610 0.0
-1.313871 0.233774 0.0
-1.338408 0.210297 0.0
-1.354252 0.175539 0.0
-1.358391 0.127792 0.0
-1.347018 0.065674 0.0
-1.315355 -0.011246 0.0
-1.263298 -0.094979 0.0
-1.201032 -0.164649 0.0
-1.141992 -0.207378 0.0
-1.095614 -0.219754 0.0
-1.067024 -0.205043 0.0
-1.056928 -0.170154 0.0
-1.062075 -0.122532 0.0
-1.077540 -0.068441 0.0
-1.099066 -0.014213 0.0
-1.124051 0.035260 0.0
-1.153325 0.080292 0.0
-1.188803 0.118802 0.0
-1.230039 0.148287 0.0
-1.275262 0.167326 0.0
-1.322298 0.175274 0.0
-1.368865 0.171982 0.0
-1.412670 0.157686 0.0
-1.451469 0.133003 0.0
-1.483151 0.098987 0.0
-1.505926 0.057231 0.0
-1.518682 0.009883 0.0
-1.521465 -0.040683 0.0
-1.515784 -0.092484 0.0
-1.503227 -0.144876 0.0
-1.482170 -0.200596 0.0
-1.445422 -0.261299 0.0
-1.380718 -0.321435 0.0
-1.282694 -0.353211 0.0
-1.187356 -0.305888 0.0
-1.121612 -0.257958 0.0
-1.075891 -0.207744 0.0
-1.045241 -0.161190 0.0
-1.025046 -0.119363 0.0
-1.012118 -0.081865 0.0
-1.004441 -0.047684 0.0
-1.000864 -0.015609 0.0
-0.854084 -0.013923 0.0
-0.851397 -0.010157 0.0
-0.849050 -0.005486 0.0
-0.847586 0.000393 0.0
-0.847498 0.007272 0.0
-0.849197 0.014828 0.0
-0.852969 0.022687 0.0
-0.858952 0.030479 0.0
-0.867143 0.037902 0.0
-0.877404 0.044784 0.0
-0.889506 0.051121 0.0
-0.903175 0.057082 0.0
-0.918138 0.062980 0.0
-0.934151 0.069202 0.0
-0.951010 0.076127 0.0
-0.968525 0.084042 0.0
-0.986492 0.093076 0.0
-1.004651 0.103167 0.0
-1.022658 0.114052 0.0
-1.040065 0.125279 0.0
-1.056321 0.136222 0.0
-1.070777 0.146100 0.0
-1.082702 0.153986 0.0
-1.091300 0.158829 0.0
-1.095724 0.159480 0.0
-1.095100 0.154736 0.0
-1.088549 0.143387 0.0
-1.075228 0.124288 0.0
-1.054376 0.096434 0.0
-1.025386 0.059065 0.0
-0.987877 0.011759 0.0
-0.942976 -0.044131 0.0
-0.895087 -0.101878 0.0
-0.848683 -0.154133 0.0
-0.805907 -0.196257 0.0
-0.767995 -0.225093 0.0
-0.735454 -0.239037 0.0
-0.708238 -0.237873 0.0
-0.686032 -0.222364 0.0
-0.668608 -0.193843 0.0
-0.656222 -0.154032 0.0
-0.650000 -0.105303 0.0
-0.652312 -0.051414 0.0
-0.666783 0.001727 0.0
-0.697071 0.047295 0.0
-0.743412 0.081521 0.0
-0.799965 0.105738 0.0
-0.857499 0.125772 0.0
-0.909224 0.147738 0.0
-0.953859 0.173733 0.0
-0.993886 0.201735 0.0
-1.032056 0.228412 0.0
-1.069586 0.251297 0.0
-1.106292 0.269083 0.0
-1.141254 0.281002 0.0
-1.173217 0.286315 0.0
-1.200696 0.284102 0.0
-1.221986 0.273201 0.0
-1.235145 0.252174 0.0
-1.237991 0.219279 0.0
-1.228027 0.172437 0.0
-1.202241 0.109247 0.0
-1.156666 0.027271 0.0
-1.088904 -0.072269 0.0
-1.008162 -0.166755 0.0
-0.929131 -0.234171 0.0
-0.861010 -0.265018 0.0
-0.811237 -0.258266 0.0
-0.786985 -0.219372 0.0
-0.793912 -0.158995 0.0
-0.831156 -0.091299 0.0
-0.886027 -0.029338 0.0
-0.939937 0.022120 0.0
-0.987580 0.071555 0.0
-1.035498 0.121189 0.0
-1.086971 0.164857 0.0
-1.141491 0.197988 0.0
-1.197322 0.218679 0.0
-1.252508 0.226142 0.0
-1.304984 0.220156 0.0
-1.352637 0.200971 0.0
-1.393395 0.169276 0.0
-1.425293 0.126294 0.0
-1.446608 0.074014 0.0
-1.456317 0.015565 0.0
-1.455693 -0.044207 0.0
-1.451621 -0.098712 0.0
-1.451542 -0.151285 0.0
-1.454944 -0.211843 0.0
-1.451172 -0.290572 0.0
-1.411173 -0.396865 0.0
-1.292328 -0.494651 0.0
-1.164215 -0.387900 0.0
-1.094454 -0.311452 0.0
-1.053095 -0.241330 0.0
-1.029100 -0.182249 0.0
-1.015106 -0.132492 0.0
-1.006982 -0.089789 0.0
-1.002487 -0.051932 0.0
-1.000476 -0.016949 0.0
-0.857328 -0.016857 0.0
-0.853967 -0.013271 0.0
-0.850565 -0.008121 0.0
-0.847828 -0.001174 0.0
-0.846408 0.007331 0.0
-0.846892 0.016953 0.0
-0.849726 0.027167 0.0
-0.855172 0.037429 0.0
-0.863291 0.047261 0.0
-0.873940 0.056334 0.0
-0.886806 0.064539 0.0
-0.901472 0.071999 0.0
-0.917482 0.079036 0.0
-0.934402 0.086080 0.0
-0.951852 0.093557 0.0
-0.969499 0.101774 0.0
-0.987028 0.110841 0.0
-1.004101 0.120635 0.0
-1.020315 0.130806 0.0
-1.035184 0.140801 0.0
-1.048128 0.149899 0.0
-1.058483 0.157235 0.0
-1.065523 0.161817 0.0
-1.068478 0.162551 0.0
-1.066569 0.158272 0.0
-1.059037 0.147787 0.0
-1.045185 0.129934 0.0
-1.024433 0.103667 0.0
-0.996372 0.068142 0.0
-0.960867 0.022862 0.0
-0.918646 -0.031769 0.0
-0.873349 -0.090800 0.0
-0.829341 -0.147105 0.0
-0.788921 -0.195731 0.0
-0.753401 -0.232954 0.0
-0.723282 -0.256427 0.0
-0.698295 -0.265231 0.0
-0.677634 -0.259555 0.0
-0.660339 -0.240184 0.0
-0.645712 -0.208074 0.0
-0.633646 -0.164253 0.0
-0.624848 -0.110103 0.0
-0.621103 -0.048046 0.0
-0.625715 0.017442 0.0
-0.643259 0.079412 0.0
-0.677556 0.130043 0.0
-0.728434 0.164647 0.0
-0.789826 0.185790 0.0
-0.852232 0.201852 0.0
-0.908284 0.220305 0.0
-0.955900 0.242806 0.0
-0.996711 0.266322 0.0
-1.032746 0.286953 0.0
-1.064682 0.302068 0.0
-1.091896 0.310194 0.0
-1.113060 0.310250 0.0
-1.126508 0.301094 0.0
-1.130389 0.281379 0.0
-1.122746 0.249512 0.0
-1.101560 0.203601 0.0
-1.064712 0.141304 0.0
-1.009653 0.059534 0.0
-0.933109 -0.045135 0.0
-0.842423 -0.158311 0.0
-0.751582 -0.252296 0.0
-0.667424 -0.311818 0.0
-0.593158 -0.329757 0.0
-0.530734 -0.305724 0.0
-0.481891 -0.245007 0.0
-0.450514 -0.157810 0.0
-0.446191 -0.059563 0.0
-0.482089 0.029694 0.0
-0.563462 0.098372 0.0
-0.673373 0.152857 0.0
-0.782247 0.196680 0.0
-0.874130 0.232722 0.0
-0.950247 0.260759 0.0
-1.016074 0.277567 0.0
-1.073994 0.280361 0.0
-1.123670 0.268089 0.0
-1.163899 0.240921 0.0
-1.193503 0.199689 0.0
-1.211416 0.145692 0.0
-1.216458 0.080973 0.0
-1.207557 0.009414 0.0
-1.190734 -0.055504 0.0
-1.185428 -0.096792 0.0
-1.205653 -0.133059 0.0
-1.250331 -0.181989 0.0
-1.315277 -0.259252 0.0
-1.360834 -0.422627 0.0
-1.252057 -0.696511 0.0
-1.094439 -0.471771 0.0
-1.036897 -0.354884 0.0
-1.012815 -0.263338 0.0
-1.003523 -0.193528 0.0
-1.000407 -0.138324 0.0
-0.999708 -0.092781 0.0
-0.999786 -0.053355 0.0
-0.999948 -0.017374 0.0
-0.866330 -0.020198 0.0
-0.862342 -0.017279 0.0
-0.857864 -0.011994 0.0
-0.853683 -0.004220 0.0
-0.850546 0.005820 0.0
-0.849203 0.017604 0.0
-0.850289 0.030435 0.0
-0.854247 0.043565 0.0
-0.861278 0.056276 0.0
-0.871319 0.068008 0.0
-0.884045 0.078458 0.0
-0.898937 0.087637 0.0
-0.915364 0.095833 0.0
-0.932676 0.103515 0.0
-0.950278 0.111174 0.0
-0.967653 0.119178 0.0
-0.984349 0.127662 0.0
-0.999944 0.136481 0.0
-1.013998 0.145227 0.0
-1.026019 0.153269 0.0
-1.035451 0.159807 0.0
-1.041676 0.163908 0.0
-1.044035 0.164542 0.0
-1.041856 0.160603 0.0
-1.034495 0.150950 0.0
-1.021372 0.134454 0.0
-1.002028 0.110072 0.0
-0.976191 0.076940 0.0
-0.943873 0.034490 0.0
-0.905581 -0.017282 0.0
-0.864124 -0.075302 0.0
-0.823506 -0.133181 0.0
-0.786295 -0.185943 0.0
-0.754006 -0.229604 0.0
-0.727292 -0.261315 0.0
-0.705857 -0.279622 0.0
-0.688590 -0.284289 0.0
-0.673993 -0.275754 0.0
-0.660716 -0.254557 0.0
-0.647995 -0.221048 0.0
-0.635861 -0.175478 0.0
-0.625154 -0.118383 0.0
-0.617512 -0.051152 0.0
-0.615475 0.023123 0.0
-0.622547 0.098348 0.0
-0.642905 0.165762 0.0
-0.679762 0.216663 0.0
-0.732149 0.247553 0.0
-0.793310 0.263656 0.0
-0.853783 0.275026 0.0
-0.906649 0.288566 0.0
-0.949771 0.304496 0.0
-0.983996 0.319040 0.0
-1.010376 0.328298 0.0
-1.028896 0.329700 0.0
-1.038581 0.321594 0.0
-1.037967 0.302584 0.0
-1.025424 0.271228 0.0
-0.999339 0.225935 0.0
-0.958188 0.164842 0.0
-0.900385 0.085412 0.0
-0.823432 -0.016586 0.0
-0.732125 -0.136864 0.0
-0.639083 -0.250310 0.0
-0.552424 -0.337797 0.0
-0.475106 -0.387793 0.0
-0.408153 -0.395002 0.0
-0.350566 -0.360491 0.0
-0.299940 -0.289709 0.0
-0.254266 -0.190159 0.0
-0.214790 -0.071012 0.0
-0.191959 0.054210 0.0
-0.204673 0.167944 0.0
-0.266492 0.255015 0.0
-0.370465 0.307370 0.0
-0.490632 0.334081 0.0
-0.600796 0.345680 0.0
-0.687729 0.345407 0.0
-0.749448 0.332161 0.0
-0.787858 0.304373 0.0
-0.804646 0.261653 0.0
-0.800824 0.204739 0.0
-0.777246 0.134976 0.0
-0.734266 0.053751 0.0
-0.671054 -0.035477 0.0
-0.612012 -0.086477 0.0
-0.595657 -0.087479 0.0
-0.630608 -0.087197 0.0
-0.707399 -0.106381 0.0
-0.853832 -0.123479 0.0
-1.050226 -0.316449 0.0
-1.050512 -0.911179 0.0
-0.944592 -0.520641 0.0
-0.941833 -0.366316 0.0
-0.955511 -0.262312 0.0
-0.970233 -0.189123 0.0
-0.982278 -0.133800 0.0
-0.991019 -0.089265 0.0
-0.996616 -0.051196 0.0
-0.999332 -0.016654 0.0
-0.882210 -0.023867 0.0
-0.877740 -0.022069 0.0
-0.872352 -0.017068 0.0
-0.866822 -0.008859 0.0
-0.861903 0.002403 0.0
-0.858431 0.016207 0.0
-0.857204 0.031692 0.0
-0.858843 0.047905 0.0
-0.863738 0.063862 0.0
-0.871979 0.078704 0.0
-0.883340 0.091849 0.0
-0.897298 0.103096 0.0
-0.913124 0.112626 0.0
-0.929991 0.120902 0.0
-0.947088 0.128486 0.0
-0.963688 0.135841 0.0
-0.979174 0.143182 0.0
-0.993019 0.150402 0.0
-1.004742 0.157083 0.0
-1.013865 0.162557 0.0
-1.019887 0.165973 0.0
-1.022282 0.166361 0.0
-1.020509 0.162674 0.0
-1.014043 0.153827 0.0
-1.002419 0.138740 0.0
-0.985277 0.116398 0.0
-0.962432 0.085938 0.0
-0.933964 0.046769 0.0
-0.900363 -0.001259 0.0
-0.863621 -0.056568 0.0
-0.827172 -0.113922 0.0
-0.793872 -0.168479 0.0
-0.765458 -0.216271 0.0
-0.742818 -0.254205 0.0
-0.725745 -0.280500 0.0
-0.712953 -0.294664 0.0
-0.702504 -0.296963 0.0
-0.692466 -0.287716 0.0
-0.681500 -0.266838 0.0
-0.669153 -0.233833 0.0
-0.655850 -0.188130 0.0
-0.642719 -0.129569 0.0
-0.631412 -0.058915 0.0
-0.624015 0.021451 0.0
-0.623136 0.106212 0.0
-0.632092 0.187212 0.0
-0.654600 0.254579 0.0
-0.692746 0.300170 0.0
-0.743927 0.323381 0.0
-0.800448 0.332295 0.0
-0.853332 0.337047 0.0
-0.896706 0.342511 0.0
-0.928776 0.347319 0.0
-0.949873 0.347496 0.0
-0.960363 0.339511 0.0
-0.959872 0.320977 0.0
-0.947466 0.290180 0.0
-0.922013 0.245638 0.0
-0.882435 0.185862 0.0
-0.827750 0.109080 0.0
-0.756575 0.012195 0.0
-0.670797 -0.106101 0.0
-0.580699 -0.228753 0.0
-0.496383 -0.335779 0.0
-0.422234 -0.413136 0.0
-0.360439 -0.451567 0.0
-0.309922 -0.448697 0.0
-0.266389 -0.407917 0.0
-0.224386 -0.334913 0.0
-0.179886 -0.235130 0.0
-0.131998 -0.113405 0.0
-0.083818 0.025592 0.0
-0.045507 0.170964 0.0
-0.036610 0.304917 0.0
-0.071490 0.396321 0.0
-0.143480 0.437287 0.0
-0.231955 0.441113 0.0
-0.314674 0.419625 0.0
-0.375722 0.380711 0.0
-0.408654 0.327165 0.0
-0.412938 0.259933 0.0
-0.390336 0.180035 0.0
-0.342657 0.088424 0.0
-0.267528 -0.017806 0.0
-0.175703 -0.118957 0.0
-0.078997 -0.158745 0.0
0.014050 -0.124615 0.0
0.070202 -0.071263 0.0
0.041690 -0.029375 0.0
0.477046 -0.110437 0.0
0.477046 -0.257303 0.0
-0.324606 -0.793331 0.0
-0.717082 -0.461337 0.0
-0.826217 -0.319243 0.0
-0.893386 -0.228538 0.0
-0.936236 -0.165324 0.0
-0.964336 -0.117454 0.0
-0.982557 -0.078648 0.0
-0.993551 -0.045221 0.0
-0.998739 -0.014726 0.0
-0.904923 -0.027740 0.0
-0.900142 -0.027447 0.0
-0.894071 -0.023148 0.0
-0.887423 -0.014958 0.0
-0.880904 -0.002936 0.0
-0.875333 0.012503 0.0
-0.871590 0.030426 0.0
-0.870450 0.049671 0.0
-0.872462 0.069003 0.0
-0.877900 0.087243 0.0
-0.886702 0.103471 0.0
-0.898454 0.117185 0.0
-0.912448 0.128358 0.0
-0.927783 0.137372 0.0
-0.943493 0.144822 0.0
-0.958664 0.151276 0.0
-0.972504 0.157074 0.0
-0.984360 0.162211 0.0
-0.993690 0.166327 0.0
-1.000026 0.168772 0.0
-1.002934 0.168689 0.0
-1.001998 0.165104 0.0
-0.996824 0.156984 0.0
-0.987066 0.143293 0.0
-0.972466 0.123049 0.0
-0.952914 0.095396 0.0
-0.928537 0.059719 0.0
-0.899841 0.015824 0.0
-0.868186 -0.035570 0.0
-0.836420 -0.090764 0.0
-0.807526 -0.145069 0.0
-0.783448 -0.194711 0.0
-0.765329 -0.236572 0.0
-0.753124 -0.268748 0.0
-0.745484 -0.290671 0.0
-0.740144 -0.302625 0.0
-0.734676 -0.304918 0.0
-0.727224 -0.297251 0.0
-0.716892 -0.278602 0.0
-0.703745 -0.247563 0.0
-0.688600 -0.202849 0.0
-0.672784 -0.143798 0.0
-0.657946 -0.070831 0.0
-0.645948 0.013974 0.0
-0.638896 0.105758 0.0
-0.639154 0.196879 0.0
-0.649594 0.277860 0.0
-0.673089 0.338529 0.0
-0.710067 0.373181 0.0
-0.756194 0.385143 0.0
-0.803381 0.384270 0.0
-0.843789 0.379069 0.0
-0.872889 0.371931 0.0
-0.889378 0.360471 0.0
-0.893377 0.341025 0.0
-0.885019 0.310614 0.0
-0.864046 0.267164 0.0
-0.829982 0.209137 0.0
-0.782352 0.135153 0.0
-0.720667 0.043419 0.0
-0.645152 -0.068835 0.0
-0.563204 -0.192797 0.0
-0.485302 -0.310057 0.0
-0.418024 -0.406068 0.0
-0.365874 -0.469146 0.0
-0.328951 -0.494274 0.0
-0.302013 -0.483445 0.0
-0.276959 -0.441756 0.0
-0.246560 -0.373475 0.0
-0.206613 -0.281014 0.0
-0.156098 -0.165923 0.0
-0.096272 -0.029896 0.0
-0.032200 0.124069 0.0
0.026523 0.284191 0.0
0.055999 0.422450 0.0
0.047599 0.491547 0.0
0.015710 0.507217 0.0
-0.026969 0.478919 0.0
-0.064616 0.420112 0.0
-0.084970 0.341049 0.0
-0.082633 0.247997 0.0
-0.058045 0.144780 0.0
-0.015095 0.033049 0.0
0.033765 -0.086419 0.0
0.070688 -0.179093 0.0
0.089445 -0.214071 0.0
0.089050 -0.161941 0.0
0.041701 -0.042764 0.0
0.000000 -0.085711 0.0
-0.000000 -0.225630 0.0
0.000000 -0.153806 0.0
-0.229142 -0.343080 0.0
-0.573555 -0.278197 0.0
-0.751176 -0.215629 0.0
-0.850984 -0.165176 0.0
-0.912222 -0.124597 0.0
-0.951361 -0.090943 0.0
-0.976342 -0.061957 0.0
-0.991278 -0.035982 0.0
-0.998296 -0.011760 0.0
-0.933745 -0.031675 0.0
-0.928831 -0.033206 0.0
-0.922303 -0.029988 0.0
-0.914799 -0.022269 0.0
-0.906946 -0.009996 0.0
-0.899487 0.006532 0.0
-0.893307 0.026473 0.0
-0.889275 0.048452 0.0
-0.888056 0.071015 0.0
-0.890072 0.092685 0.0
-0.895434 0.112193 0.0
-0.903903 0.128684 0.0
-0.914895 0.141845 0.0
-0.927555 0.151881 0.0
-0.940877 0.159345 0.0
-0.953836 0.164883 0.0
-0.965500 0.168971 0.0
-0.975087 0.171757 0.0
-0.981981 0.173006 0.0
-0.985702 0.172150 0.0
-0.985871 0.168387 0.0
-0.982181 0.160780 0.0
-0.974394 0.148347 0.0