# vtk DataFile Version 3.0
Vector Field
ASCII
DATASET RECTILINEAR_GRID
DIMENSIONS 100 26 1
X_COORDINATES 100 double
0.050000 0.150000 0.250000 0.350000 0.450000 0.550000 0.650000 0.750000 0.850000 0.950000 1.050000 1.150000 1.250000 1.350000 1.450000 1.550000 1.650000 1.750000 1.850000 1.950000 2.050000 2.150000 2.250000 2.350000 2.450000 2.550000 2.650000 2.750000 2.850000 2.950000 3.050000 3.150000 3.250000 3.350000 3.450000 3.550000 3.650000 3.750000 3.850000 3.950000 4.050000 4.150000 4.250000 4.350000 4.450000 4.550000 4.650000 4.750000 4.850000 4.950000 5.050000 5.150000 5.250000 5.350000 5.450000 5.550000 5.650000 5.750000 5.850000 5.950000 6.050000 6.150000 6.250000 6.350000 6.450000 6.550000 6.650000 6.750000 6.850000 6.950000 7.050000 7.150000 7.250000 7.350000 7.450000 7.550000 7.650000 7.750000 7.850000 7.950000 8.050000 8.150000 8.250000 8.350000 8.450000 8.550000 8.650000 8.750000 8.850000 8.950000 9.050000 9.150000 9.250000 9.350000 9.450000 9.550000 9.650000 9.750000 9.850000 9.950000 
Y_COORDINATES 26 double
0.050000 0.150000 0.250000 0.350000 0.450000 0.550000 0.650000 0.750000 0.850000 0.950000 1.050000 1.150000 1.250000 1.350000 1.450000 1.550000 1.650000 1.750000 1.850000 1.950000 2.050000 2.150000 2.250000 2.350000 2.450000 2.550000 
Z_COORDINATES 1 double
0.0
POINT_DATA 2600
VECTORS Vektorfeld double
0.997828 0.002172 0.0
0.993681 0.001974 0.0
0.991451 0.000256 0.0
0.993205 -0.002011 0.0
0.999569 -0.004353 0.0
1.010360 -0.006437 0.0
1.024758 -0.007962 0.0
1.041383 -0.008663 0.0
1.058394 -0.008348 0.0
1.073688 -0.006946 0.0
1.085206 -0.004571 0.0
1.091288 -0.001511 0.0
1.091047 0.001752 0.0
1.084196 0.005099 0.0
1.070809 0.008287 0.0
1.051412 0.011110 0.0
1.026911 0.013392 0.0
0.998529 0.014990 0.0
0.967727 0.015812 0.0
0.936082 0.015833 0.0
0.905135 0.015114 0.0
0.876225 0.013795 0.0
0.850365 0.012066 0.0
0.828171 0.010129 0.0
0.809878 0.008164 0.0
0.795407 0.006307 0.0
0.784456 0.004644 0.0
0.776597 0.003215 0.0
0.771352 0.002030 0.0
0.768249 0.001073 0.0
0.766862 0.000314 0.0
0.766848 -0.000300 0.0
0.767890 -0.000742 0.0
0.769667 -0.001035 0.0
0.771911 -0.001209 0.0
0.774416 -0.001295 0.0
0.777028 -0.001317 0.0
0.779637 -0.001293 0.0
0.782169 -0.001239 0.0
0.784575 -0.001167 0.0
0.786825 -0.001084 0.0
0.788906 -0.000997 0.0
0.790812 -0.000909 0.0
0.792545 -0.000824 0.0
0.794112 -0.000743 0.0
0.795523 -0.000668 0.0
0.796789 -0.000598 0.0
0.797921 -0.000534 0.0
0.798931 -0.000476 0.0
0.799831 -0.000424 0.0
0.800631 -0.000376 0.0
0.801341 -0.000334 0.0
0.801971 -0.000296 0.0
0.802529 -0.000262 0.0
0.803023 -0.000232 0.0
0.803461 -0.000205 0.0
0.803848 -0.000182 0.0
0.804190 -0.000160 0.0
0.804492 -0.000142 0.0
0.804759 -0.000125 0.0
0.804995 -0.000111 0.0
0.805203 -0.000098 0.0
0.805387 -0.000086 0.0
0.805550 -0.000076 0.0
0.805693 -0.000067 0.0
0.805820 -0.000059 0.0
0.805932 -0.000052 0.0
0.806031 -0.000046 0.0
0.806118 -0.000041 0.0
0.806196 -0.000036 0.0
0.806264 -0.000032 0.0
0.806325 -0.000029 0.0
0.806379 -0.000025 0.0
0.806427 -0.000023 0.0
0.806471 -0.000020 0.0
0.806510 -0.000019 0.0
0.806545 -0.000017 0.0
0.806578 -0.000016 0.0
0.806609 -0.000015 0.0
0.806639 -0.000015 0.0
0.806668 -0.000015 0.0
0.806697 -0.000015 0.0
0.806728 -0.000016 0.0
0.806762 -0.000018 0.0
0.806799 -0.000020 0.0
0.806843 -0.000023 0.0
0.806894 -0.000028 0.0
0.806957 -0.000034 0.0
0.807034 -0.000043 0.0
0.807132 -0.000054 0.0
0.807256 -0.000070 0.0
0.807417 -0.000091 0.0
0.807628 -0.000121 0.0
0.807911 -0.000163 0.0
0.808299 -0.000225 0.0
0.808845 -0.000322 0.0
0.809649 -0.000482 0.0
0.810903 -0.000773 0.0
0.813078 -0.001402 0.0
0.816540 -0.002060 0.0
1.003132 0.001213 0.0
1.012322 -0.002109 0.0
1.026768 -0.007877 0.0
1.045751 -0.014616 0.0
1.069024 -0.021385 0.0
1.096189 -0.027360 0.0
1.126465 -0.031713 0.0
1.158568 -0.033641 0.0
1.190695 -0.032508 0.0
1.220637 -0.028021 0.0
1.246144 -0.020521 0.0
1.265386 -0.010886 0.0
1.277015 -0.000261 0.0
1.280394 0.010584 0.0
1.275696 0.020888 0.0
1.263543 0.030060 0.0
1.244875 0.037611 0.0
1.220890 0.043136 0.0
1.193005 0.046353 0.0
1.162779 0.047163 0.0
1.131803 0.045708 0.0
1.101560 0.042353 0.0
1.073302 0.037626 0.0
1.047955 0.032109 0.0
1.026089 0.026342 0.0
1.007936 0.020753 0.0
0.993448 0.015637 0.0
0.982374 0.011155 0.0
0.974339 0.007370 0.0
0.968905 0.004270 0.0
0.965612 0.001797 0.0
0.963980 -0.000137 0.0
0.963601 -0.001569 0.0
0.964186 -0.002570 0.0
0.965490 -0.003223 0.0
0.967306 -0.003603 0.0
0.969462 -0.003777 0.0
0.971820 -0.003800 0.0
0.974272 -0.003715 0.0
0.976734 -0.003558 0.0
0.979146 -0.003355 0.0
0.981465 -0.003125 0.0
0.983662 -0.002883 0.0
0.985719 -0.002640 0.0
0.987628 -0.002403 0.0
0.989385 -0.002176 0.0
0.990992 -0.001962 0.0
0.992454 -0.001764 0.0
0.993779 -0.001581 0.0
0.994974 -0.001414 0.0
0.996049 -0.001261 0.0
0.997014 -0.001124 0.0
0.997878 -0.001000 0.0
0.998649 -0.000888 0.0
0.999338 -0.000789 0.0
0.999951 -0.000699 0.0
1.000497 -0.000620 0.0
1.000981 -0.000549 0.0
1.001412 -0.000486 0.0
1.001794 -0.000430 0.0
1.002133 -0.000381 0.0
1.002433 -0.000337 0.0
1.002699 -0.000298 0.0
1.002935 -0.000263 0.0
1.003143 -0.000233 0.0
1.003328 -0.000206 0.0
1.003491 -0.000182 0.0
1.003636 -0.000161 0.0
1.003764 -0.000142 0.0
1.003877 -0.000126 0.0
1.003978 -0.000112 0.0
1.004067 -0.000099 0.0
1.004145 -0.000088 0.0
1.004216 -0.000079 0.0
1.004278 -0.000071 0.0
1.004334 -0.000064 0.0
1.004384 -0.000058 0.0
1.004430 -0.000053 0.0
1.004472 -0.000050 0.0
1.004511 -0.000048 0.0
1.004547 -0.000047 0.0
1.004582 -0.000047 0.0
1.004617 -0.000049 0.0
1.004653 -0.000053 0.0
1.004691 -0.000060 0.0
1.004732 -0.000068 0.0
1.004778 -0.000081 0.0
1.004832 -0.000098 0.0
1.004897 -0.000121 0.0
1.004975 -0.000152 0.0
1.005073 -0.000194 0.0
1.005195 -0.000251 0.0
1.005351 -0.000329 0.0
1.005553 -0.000439 0.0
1.005815 -0.000598 0.0
1.006157 -0.000837 0.0
1.006597 -0.001211 0.0
1.007131 -0.001832 0.0
1.007590 -0.002977 0.0
1.007860 -0.004217 0.0
1.002060 -0.003979 0.0
1.009502 -0.013549 0.0
1.023166 -0.024547 0.0
1.042473 -0.036235 0.0
1.067160 -0.047724 0.0
1.096900 -0.057927 0.0
1.131013 -0.065536 0.0
1.168192 -0.069101 0.0
1.206311 -0.067295 0.0
1.242369 -0.059232 0.0
1.273072 -0.045520 0.0
1.295888 -0.027945 0.0
1.309569 -0.008512 0.0
1.313997 0.011027 0.0
1.309757 0.029383 0.0
1.297813 0.045662 0.0
1.279313 0.059177 0.0
1.255511 0.069357 0.0
1.227745 0.075783 0.0
1.197428 0.078277 0.0
1.165999 0.077001 0.0
1.134838 0.072464 0.0
1.105168 0.065444 0.0
1.077966 0.056841 0.0
1.053912 0.047529 0.0
1.033387 0.038244 0.0
1.016496 0.029525 0.0
1.003123 0.021713 0.0
0.992994 0.014977 0.0
0.985729 0.009362 0.0
0.980902 0.004826 0.0
0.978083 0.001286 0.0
0.976863 -0.001393 0.0
0.976873 -0.003340 0.0
0.977797 -0.004681 0.0
0.979373 -0.005537 0.0
0.981387 -0.006013 0.0
0.983668 -0.006203 0.0
0.986084 -0.006180 0.0
0.988536 -0.006008 0.0
0.990953 -0.005734 0.0
0.993284 -0.005396 0.0
0.995495 -0.005021 0.0
0.997568 -0.004632 0.0
0.999490 -0.004242 0.0
1.001260 -0.003863 0.0
1.002878 -0.003501 0.0
1.004350 -0.003160 0.0
1.005682 -0.002842 0.0
1.006885 -0.002550 0.0
1.007966 -0.002282 0.0
1.008937 -0.002038 0.0
1.009805 -0.001818 0.0
1.010581 -0.001618 0.0
1.011273 -0.001439 0.0
1.011890 -0.001279 0.0
1.012438 -0.001135 0.0
1.012926 -0.001007 0.0
1.013359 -0.000892 0.0
1.013743 -0.000790 0.0
1.014084 -0.000700 0.0
1.014386 -0.000620 0.0
1.014654 -0.000548 0.0
1.014891 -0.000485 0.0
1.015101 -0.000429 0.0
1.015287 -0.000379 0.0
1.015451 -0.000336 0.0
1.015596 -0.000297 0.0
1.015725 -0.000263 0.0
1.015839 -0.000233 0.0
1.015940 -0.000206 0.0
1.016030 -0.000183 0.0
1.016109 -0.000162 0.0
1.016179 -0.000145 0.0
1.016242 -0.000130 0.0
1.016298 -0.000117 0.0
1.016348 -0.000106 0.0
1.016394 -0.000097 0.0
1.016435 -0.000090 0.0
1.016473 -0.000085 0.0
1.016508 -0.000082 0.0
1.016542 -0.000081 0.0
1.016575 -0.000083 0.0
1.016608 -0.000088 0.0
1.016643 -0.000097 0.0
1.016679 -0.000109 0.0
1.016720 -0.000127 0.0
1.016767 -0.000152 0.0
1.016821 -0.000186 0.0
1.016886 -0.000231 0.0
1.016964 -0.000291 0.0
1.017060 -0.000372 0.0
1.017179 -0.000482 0.0
1.017325 -0.000633 0.0
1.017504 -0.000844 0.0
1.017714 -0.001143 0.0
1.017945 -0.001575 0.0
1.018148 -0.002204 0.0
1.018194 -0.003111 0.0
1.017983 -0.004142 0.0
1.001710 -0.007749 0.0
1.008390 -0.023902 0.0
1.021486 -0.040955 0.0
1.040925 -0.058574 0.0
1.066828 -0.075976 0.0
1.099297 -0.091885 0.0
1.138074 -0.104467 0.0
1.182046 -0.111319 0.0
1.228788 -0.109939 0.0
1.273773 -0.097629 0.0
1.311484 -0.075538 0.0
1.338080 -0.047339 0.0
1.352173 -0.016893 0.0
1.354235 0.012917 0.0
1.345686 0.040282 0.0
1.328266 0.064126 0.0
1.303783 0.083696 0.0
1.274022 0.098402 0.0
1.240710 0.107815 0.0
1.205501 0.111770 0.0
1.169952 0.110486 0.0
1.135475 0.104617 0.0
1.103267 0.095168 0.0
1.074253 0.083333 0.0
1.049041 0.070303 0.0
1.027923 0.057114 0.0
1.010908 0.044562 0.0
0.997776 0.033180 0.0
0.988146 0.023269 0.0
0.981541 0.014939 0.0
0.977452 0.008165 0.0
0.975382 0.002836 0.0
0.974875 -0.001216 0.0
0.975530 -0.004182 0.0
0.977013 -0.006247 0.0
0.979053 -0.007587 0.0
0.981436 -0.008360 0.0
0.984002 -0.008702 0.0
0.986630 -0.008724 0.0
0.989233 -0.008519 0.0
0.991751 -0.008158 0.0
0.994146 -0.007697 0.0
0.996392 -0.007178 0.0
0.998478 -0.006633 0.0
1.000398 -0.006084 0.0
1.002155 -0.005547 0.0
1.003753 -0.005032 0.0
1.005200 -0.004547 0.0
1.006506 -0.004094 0.0
1.007680 -0.003675 0.0
1.008734 -0.003292 0.0
1.009677 -0.002942 0.0
1.010520 -0.002625 0.0
1.011272 -0.002339 0.0
1.011942 -0.002081 0.0
1.012538 -0.001850 0.0
1.013068 -0.001642 0.0
1.013538 -0.001457 0.0
1.013956 -0.001292 0.0
1.014327 -0.001145 0.0
1.014655 -0.001014 0.0
1.014946 -0.000898 0.0
1.015204 -0.000795 0.0
1.015432 -0.000703 0.0
1.015634 -0.000622 0.0
1.015812 -0.000551 0.0
1.015970 -0.000487 0.0
1.016110 -0.000431 0.0
1.016234 -0.000381 0.0
1.016343 -0.000337 0.0
1.016440 -0.000299 0.0
1.016526 -0.000265 0.0
1.016602 -0.000236 0.0
1.016670 -0.000210 0.0
1.016730 -0.000187 0.0
1.016783 -0.000168 0.0
1.016831 -0.000152 0.0
1.016874 -0.000139 0.0
1.016913 -0.000128 0.0
1.016948 -0.000120 0.0
1.016981 -0.000115 0.0
1.017012 -0.000113 0.0
1.017042 -0.000114 0.0
1.017072 -0.000120 0.0
1.017101 -0.000129 0.0
1.017133 -0.000145 0.0
1.017166 -0.000167 0.0
1.017204 -0.000197 0.0
1.017247 -0.000238 0.0
1.017296 -0.000293 0.0
1.017354 -0.000366 0.0
1.017423 -0.000463 0.0
1.017504 -0.000592 0.0
1.017597 -0.000764 0.0
1.017701 -0.000996 0.0
1.017807 -0.001308 0.0
1.017894 -0.001728 0.0
1.017922 -0.002282 0.0
1.017823 -0.002981 0.0
1.017541 -0.003779 0.0
1.001556 -0.011015 0.0
1.007807 -0.033567 0.0
1.020475 -0.057052 0.0
1.039993 -0.081433 0.0
1.067092 -0.106119 0.0
1.102661 -0.129779 0.0
1.147374 -0.150063 0.0
1.200850 -0.163172 0.0
1.260998 -0.164977 0.0
1.320328 -0.146905 0.0
1.368502 -0.112148 0.0
1.399812 -0.068634 0.0
1.413409 -0.023288 0.0
1.411145 0.019513 0.0
1.395646 0.057735 0.0
1.369547 0.090192 0.0
1.335513 0.116148 0.0
1.296108 0.135116 0.0
1.253708 0.146813 0.0
1.210446 0.151243 0.0
1.168184 0.148824 0.0
1.128483 0.140457 0.0
1.092563 0.127455 0.0
1.061263 0.111360 0.0
1.035025 0.093726 0.0
1.013918 0.075917 0.0
0.997693 0.058998 0.0
0.985874 0.043694 0.0
0.977849 0.030411 0.0
0.972952 0.019299 0.0
0.970532 0.010314 0.0
0.969998 0.003291 0.0
0.970840 -0.002007 0.0
0.972639 -0.005845 0.0
0.975058 -0.008486 0.0
0.977844 -0.010173 0.0
0.980804 -0.011119 0.0
0.983804 -0.011508 0.0
0.986747 -0.011489 0.0
0.989572 -0.011182 0.0
0.992237 -0.010679 0.0
0.994722 -0.010055 0.0
0.997017 -0.009361 0.0
0.999120 -0.008639 0.0
1.001036 -0.007915 0.0
1.002773 -0.007210 0.0
1.004341 -0.006536 0.0
1.005753 -0.005902 0.0
1.007020 -0.005312 0.0
1.008154 -0.004767 0.0
1.009169 -0.004268 0.0
1.010074 -0.003814 0.0
1.010880 -0.003403 0.0
1.011598 -0.003031 0.0
1.012236 -0.002697 0.0
1.012803 -0.002397 0.0
1.013307 -0.002128 0.0
1.013753 -0.001889 0.0
1.014149 -0.001675 0.0
1.014500 -0.001484 0.0
1.014811 -0.001315 0.0
1.015086 -0.001164 0.0
1.015329 -0.001030 0.0
1.015544 -0.000912 0.0
1.015735 -0.000807 0.0
1.015904 -0.000713 0.0
1.016053 -0.000631 0.0
1.016184 -0.000558 0.0
1.016301 -0.000494 0.0
1.016404 -0.000437 0.0
1.016495 -0.000387 0.0
1.016576 -0.000343 0.0
1.016648 -0.000305 0.0
1.016711 -0.000271 0.0
1.016767 -0.000242 0.0
1.016817 -0.000217 0.0
1.016862 -0.000196 0.0
1.016901 -0.000178 0.0
1.016937 -0.000163 0.0
1.016970 -0.000153 0.0
1.016999 -0.000145 0.0
1.017027 -0.000141 0.0
1.017052 -0.000142 0.0
1.017077 -0.000147 0.0
1.017102 -0.000157 0.0
1.017126 -0.000173 0.0
1.017152 -0.000197 0.0
1.017179 -0.000231 0.0
1.017209 -0.000276 0.0
1.017241 -0.000337 0.0
1.017278 -0.000416 0.0
1.017318 -0.000521 0.0
1.017360 -0.000657 0.0
1.017404 -0.000835 0.0
1.017442 -0.001066 0.0
1.017463 -0.001365 0.0
1.017450 -0.001745 0.0
1.017372 -0.002215 0.0
1.017192 -0.002769 0.0
1.016877 -0.003394 0.0
1.001401 -0.013972 0.0
1.007117 -0.042577 0.0
1.018975 -0.072569 0.0
1.037881 -0.104341 0.0
1.065322 -0.137750 0.0
1.103367 -0.171762 0.0
1.154414 -0.203840 0.0
1.219960 -0.228416 0.0
1.300790 -0.240711 0.0
1.382694 -0.212406 0.0
1.444528 -0.156655 0.0
1.479919 -0.090827 0.0
1.491098 -0.025871 0.0
1.482352 0.033106 0.0
1.457553 0.084441 0.0
1.420221 0.126916 0.0
1.373882 0.159797 0.0
1.322000 0.182752 0.0
1.267787 0.195790 0.0
1.214039 0.199276 0.0
1.163067 0.194025 0.0
1.116669 0.181356 0.0
1.076115 0.163031 0.0
1.042136 0.141063 0.0
1.014938 0.117458 0.0
0.994261 0.093970 0.0
0.979482 0.071950 0.0
0.969751 0.052292 0.0
0.964127 0.035462 0.0
0.961687 0.021585 0.0
0.961598 0.010537 0.0
0.963156 0.002043 0.0
0.965798 -0.004244 0.0
0.969090 -0.008698 0.0
0.972713 -0.011675 0.0
0.976440 -0.013495 0.0
0.980117 -0.014435 0.0
0.983647 -0.014722 0.0
0.986971 -0.014542 0.0
0.990056 -0.014038 0.0
0.992891 -0.013324 0.0
0.995477 -0.012481 0.0
0.997821 -0.011574 0.0
0.999937 -0.010645 0.0
1.001840 -0.009727 0.0
1.003547 -0.008841 0.0
1.005074 -0.008000 0.0
1.006437 -0.007213 0.0
1.007654 -0.006483 0.0
1.008737 -0.005813 0.0
1.009700 -0.005200 0.0
1.010556 -0.004643 0.0
1.011316 -0.004140 0.0
1.011991 -0.003686 0.0
1.012589 -0.003278 0.0
1.013120 -0.002913 0.0
1.013590 -0.002586 0.0
1.014006 -0.002294 0.0
1.014374 -0.002034 0.0
1.014700 -0.001802 0.0
1.014989 -0.001596 0.0
1.015244 -0.001413 0.0
1.015469 -0.001250 0.0
1.015669 -0.001106 0.0
1.015845 -0.000979 0.0
1.016001 -0.000866 0.0
1.016139 -0.000766 0.0
1.016261 -0.000677 0.0
1.016369 -0.000599 0.0
1.016464 -0.000530 0.0
1.016548 -0.000470 0.0
1.016622 -0.000416 0.0
1.016688 -0.000369 0.0
1.016746 -0.000328 0.0
1.016798 -0.000293 0.0
1.016843 -0.000262 0.0
1.016884 -0.000236 0.0
1.016920 -0.000214 0.0
1.016952 -0.000196 0.0
1.016980 -0.000182 0.0
1.017006 -0.000172 0.0
1.017029 -0.000166 0.0
1.017051 -0.000165 0.0
1.017070 -0.000168 0.0
1.017089 -0.000178 0.0
1.017106 -0.000194 0.0
1.017123 -0.000219 0.0
1.017139 -0.000253 0.0
1.017155 -0.000299 0.0
1.017170 -0.000361 0.0
1.017184 -0.000442 0.0
1.017196 -0.000547 0.0
1.017203 -0.000681 0.0
1.017202 -0.000853 0.0
1.017185 -0.001070 0.0
1.017142 -0.001340 0.0
1.017057 -0.001671 0.0
1.016910 -0.002064 0.0
1.016679 -0.002509 0.0
1.016343 -0.003004 0.0
1.001157 -0.016530 0.0
1.005927 -0.050505 0.0
1.016048 -0.086620 0.0
1.032788 -0.125936 0.0
1.058373 -0.169180 0.0
1.096334 -0.216339 0.0
1.151772 -0.265748 0.0
1.230222 -0.310504 0.0
1.342249 -0.351480 0.0
1.456044 -0.297336 0.0
1.528173 -0.205688 0.0
1.561110 -0.110122 0.0
1.565692 -0.022336 0.0
1.548765 0.055245 0.0
1.514123 0.121743 0.0
1.465348 0.175720 0.0
1.406465 0.216216 0.0
1.341710 0.242969 0.0
1.275147 0.256349 0.0
1.210349 0.257263 0.0
1.150212 0.247147 0.0
1.096879 0.227965 0.0
1.051727 0.202127 0.0
1.015399 0.172275 0.0
0.987848 0.140995 0.0
0.968434 0.110524 0.0
0.956072 0.082537 0.0
0.949439 0.058068 0.0
0.947179 0.037570 0.0
0.948049 0.021048 0.0
0.951004 0.008207 0.0
0.955225 -0.001406 0.0
0.960102 -0.008313 0.0
0.965209 -0.013028 0.0
0.970262 -0.016021 0.0
0.975084 -0.017699 0.0
0.979578 -0.018403 0.0
0.983697 -0.018404 0.0
0.987431 -0.017917 0.0
0.990790 -0.017107 0.0
0.993794 -0.016095 0.0
0.996472 -0.014973 0.0
0.998853 -0.013807 0.0
1.000967 -0.012641 0.0
1.002840 -0.011508 0.0
1.004500 -0.010427 0.0
1.005969 -0.009411 0.0
1.007270 -0.008467 0.0
1.008420 -0.007597 0.0
1.009438 -0.006800 0.0
1.010338 -0.006076 0.0
1.011134 -0.005420 0.0
1.011838 -0.004828 0.0
1.012460 -0.004295 0.0
1.013010 -0.003818 0.0
1.013496 -0.003390 0.0
1.013926 -0.003008 0.0
1.014306 -0.002667 0.0
1.014641 -0.002364 0.0
1.014938 -0.002094 0.0
1.015200 -0.001854 0.0
1.015431 -0.001641 0.0
1.015636 -0.001452 0.0
1.015816 -0.001285 0.0
1.015976 -0.001136 0.0
1.016117 -0.001005 0.0
1.016241 -0.000889 0.0
1.016351 -0.000786 0.0
1.016448 -0.000695 0.0
1.016534 -0.000615 0.0
1.016610 -0.000545 0.0
1.016677 -0.000482 0.0
1.016736 -0.000428 0.0
1.016788 -0.000380 0.0
1.016834 -0.000338 0.0
1.016874 -0.000302 0.0
1.016910 -0.000271 0.0
1.016942 -0.000245 0.0
1.016969 -0.000224 0.0
1.016994 -0.000207 0.0
1.017015 -0.000194 0.0
1.017034 -0.000186 0.0
1.017050 -0.000182 0.0
1.017064 -0.000184 0.0
1.017076 -0.000192 0.0
1.017086 -0.000207 0.0
1.017093 -0.000230 0.0
1.017099 -0.000263 0.0
1.017101 -0.000308 0.0
1.017099 -0.000367 0.0
1.017093 -0.000444 0.0
1.017079 -0.000543 0.0
1.017055 -0.000668 0.0
1.017016 -0.000825 0.0
1.016955 -0.001019 0.0
1.016862 -0.001255 0.0
1.016727 -0.001535 0.0
1.016533 -0.001859 0.0
1.016268 -0.002217 0.0
1.015918 -0.002611 0.0
1.000767 -0.018453 0.0
1.003968 -0.056554 0.0
1.010948 -0.097672 0.0
1.023051 -0.143728 0.0
1.042873 -0.196794 0.0
1.075149 -0.258961 0.0
1.128225 -0.331640 0.0
1.214848 -0.409686 0.0
1.368660 -0.518137 0.0
1.514012 -0.389825 0.0
1.571437 -0.242752 0.0
1.583679 -0.118237 0.0
1.575959 -0.011084 0.0
1.552456 0.084422 0.0
1.512745 0.166919 0.0
1.458537 0.233527 0.0
1.393442 0.282387 0.0
1.322008 0.312986 0.0
1.248919 0.325985 0.0
1.178392 0.322952 0.0
1.113827 0.306159 0.0
1.057668 0.278445 0.0
1.011421 0.243046 0.0
0.975721 0.203384 0.0
0.950376 0.162779 0.0
0.934450 0.124081 0.0
0.926438 0.089355 0.0
0.924555 0.059764 0.0
0.927028 0.035661 0.0
0.932301 0.016814 0.0
0.939139 0.002649 0.0
0.946634 -0.007564 0.0
0.954177 -0.014575 0.0
0.961383 -0.019079 0.0
0.968042 -0.021680 0.0
0.974058 -0.022878 0.0
0.979413 -0.023072 0.0
0.984133 -0.022574 0.0
0.988268 -0.021617 0.0
0.991878 -0.020376 0.0
0.995024 -0.018977 0.0
0.997765 -0.017510 0.0
1.000153 -0.016039 0.0
1.002236 -0.014605 0.0
1.004054 -0.013236 0.0
1.005643 -0.011948 0.0
1.007034 -0.010750 0.0
1.008252 -0.009646 0.0
1.009320 -0.008636 0.0
1.010257 -0.007716 0.0
1.011081 -0.006884 0.0
1.011804 -0.006132 0.0
1.012441 -0.005456 0.0
1.013001 -0.004850 0.0
1.013495 -0.004307 0.0
1.013929 -0.003822 0.0
1.014312 -0.003389 0.0
1.014650 -0.003004 0.0
1.014948 -0.002661 0.0
1.015210 -0.002356 0.0
1.015441 -0.002086 0.0
1.015646 -0.001845 0.0
1.015826 -0.001633 0.0
1.015985 -0.001444 0.0
1.016125 -0.001277 0.0
1.016249 -0.001129 0.0
1.016358 -0.000998 0.0
1.016455 -0.000883 0.0
1.016540 -0.000781 0.0
1.016615 -0.000691 0.0
1.016681 -0.000611 0.0
1.016739 -0.000541 0.0
1.016790 -0.000480 0.0
1.016836 -0.000426 0.0
1.016875 -0.000379 0.0
1.016910 -0.000338 0.0
1.016941 -0.000302 0.0
1.016967 -0.000272 0.0
1.016990 -0.000247 0.0
1.017010 -0.000227 0.0
1.017027 -0.000211 0.0
1.017041 -0.000201 0.0
1.017052 -0.000195 0.0
1.017060 -0.000194 0.0
1.017066 -0.000199 0.0
1.017068 -0.000212 0.0
1.017067 -0.000232 0.0
1.017061 -0.000261 0.0
1.017051 -0.000301 0.0
1.017033 -0.000355 0.0
1.017008 -0.000424 0.0
1.016972 -0.000513 0.0
1.016921 -0.000624 0.0
1.016851 -0.000761 0.0
1.016755 -0.000927 0.0
1.016626 -0.001126 0.0
1.016454 -0.001357 0.0
1.016228 -0.001618 0.0
1.015940 -0.001904 0.0
1.015580 -0.002215 0.0
1.000217 -0.019436 0.0
1.001161 -0.059716 0.0
1.003404 -0.103732 0.0
1.007865 -0.154231 0.0
1.016585 -0.214832 0.0
1.034028 -0.290642 0.0
1.070049 -0.389056 0.0
1.145871 -0.514715 0.0
1.334115 -0.755165 0.0
1.474212 -0.438246 0.0
1.452397 -0.229941 0.0
1.413910 -0.104803 0.0
1.393555 0.003557 0.0
1.375975 0.110864 0.0
1.348336 0.207828 0.0
1.308236 0.286927 0.0
1.257611 0.344708 0.0
1.199775 0.379935 0.0
1.138752 0.393148 0.0
1.078735 0.386333 0.0
1.023512 0.362566 0.0
0.976077 0.325633 0.0
0.938437 0.279746 0.0
0.911508 0.229314 0.0
0.895092 0.178609 0.0
0.888016 0.131253 0.0
0.888454 0.089757 0.0
0.894335 0.055364 0.0
0.903687 0.028236 0.0
0.914850 0.007802 0.0
0.926568 -0.006895 0.0
0.937985 -0.016934 0.0
0.948584 -0.023347 0.0
0.958105 -0.027035 0.0
0.966464 -0.028743 0.0
0.973693 -0.029060 0.0
0.979883 -0.028435 0.0
0.985154 -0.027202 0.0
0.989630 -0.025600 0.0
0.993430 -0.023802 0.0
0.996660 -0.021926 0.0
0.999410 -0.020052 0.0
1.001759 -0.018234 0.0
1.003770 -0.016504 0.0
1.005498 -0.014882 0.0
1.006986 -0.013378 0.0
1.008271 -0.011995 0.0
1.009384 -0.010732 0.0
1.010350 -0.009584 0.0
1.011190 -0.008546 0.0
1.011923 -0.007610 0.0
1.012562 -0.006769 0.0
1.013120 -0.006015 0.0
1.013610 -0.005340 0.0
1.014038 -0.004738 0.0
1.014414 -0.004201 0.0
1.014744 -0.003723 0.0
1.015034 -0.003297 0.0
1.015289 -0.002920 0.0
1.015513 -0.002584 0.0
1.015710 -0.002286 0.0
1.015884 -0.002023 0.0
1.016037 -0.001789 0.0
1.016172 -0.001582 0.0
1.016291 -0.001398 0.0
1.016395 -0.001236 0.0
1.016488 -0.001093 0.0
1.016569 -0.000966 0.0
1.016641 -0.000854 0.0
1.016704 -0.000755 0.0
1.016759 -0.000668 0.0
1.016808 -0.000591 0.0
1.016851 -0.000524 0.0
1.016889 -0.000464 0.0
1.016922 -0.000412 0.0
1.016951 -0.000367 0.0
1.016975 -0.000328 0.0
1.016997 -0.000295 0.0
1.017015 -0.000266 0.0
1.017030 -0.000243 0.0
1.017042 -0.000224 0.0
1.017051 -0.000211 0.0
1.017057 -0.000202 0.0
1.017059 -0.000198 0.0
1.017059 -0.000200 0.0
1.017054 -0.000208 0.0
1.017044 -0.000224 0.0
1.017029 -0.000248 0.0
1.017007 -0.000281 0.0
1.016976 -0.000327 0.0
1.016935 -0.000385 0.0
1.016879 -0.000460 0.0
1.016807 -0.000553 0.0
1.016712 -0.000667 0.0
1.016589 -0.000803 0.0
1.016433 -0.000964 0.0
1.016234 -0.001148 0.0
1.015986 -0.001354 0.0
1.015682 -0.001576 0.0
1.015315 -0.001817 0.0
0.999553 -0.019206 0.0
0.997743 -0.059082 0.0
0.994048 -0.102915 0.0
0.988379 -0.153841 0.0
0.980891 -0.216455 0.0
0.972763 -0.298334 0.0
0.968655 -0.413277 0.0
0.985480 -0.583141 0.0
1.111924 -1.001427 0.0
1.130047 -0.220784 0.0
0.950518 -0.102402 0.0
0.832745 -0.061848 0.0
0.819694 -0.005992 0.0
0.859985 0.097702 0.0
0.902299 0.206316 0.0
0.930749 0.300089 0.0
0.941068 0.371851 0.0
0.934212 0.417485 0.0
0.914705 0.436127 0.0
0.888498 0.429578 0.0
0.861480 0.401563 0.0
0.838549 0.357002 0.0
0.823036 0.301530 0.0
0.816412 0.241084 0.0
0.818410 0.181257 0.0
0.827562 0.126530 0.0
0.841859 0.079746 0.0
0.859267 0.042086 0.0
0.878002 0.013427 0.0
0.896655 -0.007205 0.0
0.914236 -0.021186 0.0
0.930135 -0.029960 0.0
0.944065 -0.034851 0.0
0.955986 -0.036971 0.0
0.966017 -0.037197 0.0
0.974366 -0.036184 0.0
0.981272 -0.034407 0.0
0.986968 -0.032197 0.0
0.991668 -0.029780 0.0
0.995552 -0.027307 0.0
0.998774 -0.024873 0.0
1.001457 -0.022539 0.0
1.003702 -0.020340 0.0
1.005588 -0.018295 0.0
1.007180 -0.016411 0.0
1.008530 -0.014688 0.0
1.009680 -0.013121 0.0
1.010663 -0.011702 0.0
1.011506 -0.010423 0.0
1.012231 -0.009273 0.0
1.012858 -0.008241 0.0
1.013399 -0.007318 0.0
1.013870 -0.006494 0.0
1.014278 -0.005759 0.0
1.014634 -0.005104 0.0
1.014945 -0.004521 0.0
1.015216 -0.004004 0.0
1.015453 -0.003544 0.0
1.015661 -0.003136 0.0
1.015843 -0.002774 0.0
1.016003 -0.002454 0.0
1.016143 -0.002170 0.0
1.016267 -0.001918 0.0
1.016375 -0.001696 0.0
1.016471 -0.001499 0.0
1.016554 -0.001325 0.0
1.016628 -0.001171 0.0
1.016693 -0.001035 0.0
1.016750 -0.000914 0.0
1.016801 -0.000808 0.0
1.016845 -0.000715 0.0
1.016883 -0.000632 0.0
1.016917 -0.000560 0.0
1.016947 -0.000496 0.0
1.016972 -0.000440 0.0
1.016995 -0.000391 0.0
1.017013 -0.000348 0.0
1.017029 -0.000312 0.0
1.017042 -0.000280 0.0
1.017052 -0.000254 0.0
1.017059 -0.000232 0.0
1.017064 -0.000216 0.0
1.017065 -0.000204 0.0
1.017062 -0.000196 0.0
1.017056 -0.000194 0.0
1.017044 -0.000198 0.0
1.017027 -0.000208 0.0
1.017004 -0.000225 0.0
1.016972 -0.000250 0.0
1.016930 -0.000285 0.0
1.016875 -0.000331 0.0
1.016804 -0.000389 0.0
1.016714 -0.000461 0.0
1.016601 -0.000550 0.0
1.016458 -0.000655 0.0
1.016281 -0.000778 0.0
1.016064 -0.000917 0.0
1.015800 -0.001072 0.0
1.015484 -0.001238 0.0
1.015113 -0.001418 0.0
0.998887 -0.017646 0.0
0.994308 -0.054254 0.0
0.984573 -0.094312 0.0
0.968336 -0.140537 0.0
0.943073 -0.197008 0.0
0.904153 -0.270733 0.0
0.842601 -0.375219 0.0
0.741982 -0.537406 0.0
0.339645 -0.900689 0.0
-0.521545 0.345709 0.0
-0.521545 0.000000 0.0
-0.025849 -0.016121 0.0
0.037487 -0.111731 0.0
0.237738 -0.037102 0.0
0.410897 0.125646 0.0
0.514245 0.248961 0.0
0.581594 0.345311 0.0
0.622154 0.410321 0.0
0.643432 0.441520 0.0
0.653407 0.440417 0.0
0.659527 0.411623 0.0
0.667602 0.361796 0.0
0.681074 0.298777 0.0
0.700953 0.230582 0.0
0.726492 0.164222 0.0
0.756061 0.104844 0.0
0.787751 0.055445 0.0
0.819708 0.017022 0.0
0.850311 -0.010846 0.0
0.878312 -0.029587 0.0
0.902957 -0.041029 0.0
0.923964 -0.047022 0.0
0.941436 -0.049190 0.0
0.955712 -0.048828 0.0
0.967237 -0.046898 0.0
0.976479 -0.044075 0.0
0.983869 -0.040812 0.0
0.989780 -0.037399 0.0
0.994520 -0.034017 0.0
0.998337 -0.030772 0.0
1.001427 -0.027720 0.0
1.003943 -0.024891 0.0
1.006003 -0.022293 0.0
1.007699 -0.019925 0.0
1.009105 -0.017779 0.0
1.010276 -0.015841 0.0
1.011257 -0.014098 0.0
1.012082 -0.012533 0.0
1.012779 -0.011133 0.0
1.013372 -0.009881 0.0
1.013877 -0.008764 0.0
1.014309 -0.007769 0.0
1.014680 -0.006884 0.0
1.015000 -0.006097 0.0
1.015275 -0.005398 0.0
1.015514 -0.004777 0.0
1.015721 -0.004226 0.0
1.015902 -0.003738 0.0
1.016059 -0.003306 0.0
1.016195 -0.002923 0.0
1.016315 -0.002584 0.0
1.016420 -0.002284 0.0
1.016511 -0.002019 0.0
1.016591 -0.001784 0.0
1.016662 -0.001576 0.0
1.016724 -0.001393 0.0
1.016778 -0.001230 0.0
1.016825 -0.001087 0.0
1.016867 -0.000961 0.0
1.016903 -0.000849 0.0
1.016935 -0.000750 0.0
1.016963 -0.000663 0.0
1.016988 -0.000587 0.0
1.017009 -0.000519 0.0
1.017027 -0.000460 0.0
1.017042 -0.000408 0.0
1.017055 -0.000363 0.0
1.017065 -0.000323 0.0
1.017072 -0.000289 0.0
1.017078 -0.000260 0.0
1.017080 -0.000236 0.0
1.017080 -0.000216 0.0
1.017076 -0.000201 0.0
1.017069 -0.000190 0.0
1.017057 -0.000183 0.0
1.017040 -0.000181 0.0
1.017017 -0.000185 0.0
1.016987 -0.000194 0.0
1.016947 -0.000209 0.0
1.016896 -0.000232 0.0
1.016831 -0.000263 0.0
1.016748 -0.000304 0.0
1.016646 -0.000354 0.0
1.016518 -0.000416 0.0
1.016361 -0.000490 0.0
1.016170 -0.000575 0.0
1.015940 -0.000672 0.0
1.015665 -0.000779 0.0
1.015342 -0.000893 0.0
1.014967 -0.001017 0.0
0.998360 -0.014893 0.0
0.991606 -0.045673 0.0
0.977186 -0.078738 0.0
0.952923 -0.115611 0.0
0.914584 -0.158332 0.0
0.853953 -0.209859 0.0
0.753913 -0.274501 0.0
0.574347 -0.357939 0.0
0.228786 -0.452798 0.0
0.000000 0.345709 0.0
-0.000000 -0.000000 0.0
0.000000 0.000000 0.0
-0.097269 -0.100458 0.0
-0.145368 -0.197338 0.0
0.013165 -0.045810 0.0
0.176544 0.153689 0.0
0.269768 0.280011 0.0
0.336291 0.368538 0.0
0.383766 0.414549 0.0
0.421231 0.419948 0.0
0.456169 0.391034 0.0
0.493504 0.336975 0.0
0.535386 0.268245 0.0
0.581771 0.194848 0.0
0.631427 0.124761 0.0
0.682643 0.063520 0.0
0.733495 0.014227 0.0
0.781799 -0.022022 0.0
0.825562 -0.046167 0.0
0.863578 -0.060283 0.0
0.895434 -0.066834 0.0
0.921364 -0.068156 0.0
0.942005 -0.066170 0.0
0.958180 -0.062298 0.0
0.970735 -0.057508 0.0
0.980441 -0.052412 0.0
0.987944 -0.047368 0.0
0.993762 -0.042572 0.0
0.998295 -0.038119 0.0
1.001850 -0.034042 0.0
1.004655 -0.030345 0.0
1.006884 -0.027010 0.0
1.008667 -0.024016 0.0
1.010102 -0.021334 0.0
1.011264 -0.018938 0.0
1.012212 -0.016800 0.0
1.012988 -0.014896 0.0
1.013628 -0.013200 0.0
1.014158 -0.011693 0.0
1.014600 -0.010354 0.0
1.014969 -0.009165 0.0
1.015280 -0.008111 0.0
1.015542 -0.007176 0.0
1.015765 -0.006347 0.0
1.015954 -0.005613 0.0
1.016116 -0.004962 0.0
1.016254 -0.004387 0.0
1.016373 -0.003877 0.0
1.016476 -0.003427 0.0
1.016565 -0.003028 0.0
1.016642 -0.002676 0.0
1.016709 -0.002364 0.0
1.016767 -0.002088 0.0
1.016818 -0.001845 0.0
1.016862 -0.001630 0.0
1.016900 -0.001439 0.0
1.016934 -0.001271 0.0
1.016963 -0.001123 0.0
1.016989 -0.000992 0.0
1.017011 -0.000876 0.0
1.017030 -0.000774 0.0
1.017047 -0.000684 0.0
1.017061 -0.000605 0.0
1.017074 -0.000534 0.0
1.017084 -0.000473 0.0
1.017092 -0.000419 0.0
1.017098 -0.000371 0.0
1.017103 -0.000329 0.0
1.017105 -0.000293 0.0
1.017106 -0.000262 0.0
1.017104 -0.000235 0.0
1.017099 -0.000212 0.0
1.017091 -0.000193 0.0
1.017080 -0.000178 0.0
1.017064 -0.000167 0.0
1.017043 -0.000159 0.0
1.017015 -0.000156 0.0
1.016979 -0.000156 0.0
1.016933 -0.000161 0.0
1.016876 -0.000171 0.0
1.016803 -0.000187 0.0
1.016713 -0.000208 0.0
1.016602 -0.000236 0.0
1.016465 -0.000270 0.0
1.016299 -0.000312 0.0
1.016099 -0.000361 0.0
1.015860 -0.000417 0.0
1.015578 -0.000478 0.0
1.015251 -0.000544 0.0
1.014874 -0.000615 0.0
0.998077 -0.011330 0.0
0.990179 -0.034584 0.0
0.973441 -0.058668 0.0
0.945676 -0.083653 0.0
0.902914 -0.109188 0.0
0.838397 -0.133855 0.0
0.741036 -0.153104 0.0
0.595348 -0.154082 0.0
0.391129 -0.097994 0.0
0.136996 0.118116 0.0
0.000000 0.000000 0.0
-0.000000 -0.000000 0.0
0.000000 0.000000 0.0
-0.119638 -0.123254 0.0
-0.198833 -0.195615 0.0
-0.079777 0.021058 0.0
0.040667 0.198975 0.0
0.113067 0.310651 0.0
0.170522 0.367505 0.0
0.224121 0.375928 0.0
0.279442 0.344795 0.0
0.339347 0.285974 0.0
0.404556 0.212156 0.0
0.474408 0.134700 0.0
0.548038 0.061623 0.0
0.622759 0.000721 0.0
0.693737 -0.044804 0.0
0.757451 -0.075009 0.0
0.812421 -0.091913 0.0
0.858300 -0.098432 0.0
0.895457 -0.097698 0.0
0.924738 -0.092502 0.0
0.947280 -0.085006 0.0
0.964332 -0.076689 0.0
0.977093 -0.068435 0.0
0.986603 -0.060702 0.0
0.993701 -0.053679 0.0
0.999026 -0.047404 0.0
1.003049 -0.041843 0.0
1.006111 -0.036934 0.0
1.008459 -0.032606 0.0
1.010271 -0.028790 0.0
1.011678 -0.025426 0.0
1.012777 -0.022458 0.0
1.013639 -0.019839 0.0
1.014319 -0.017526 0.0
1.014856 -0.015484 0.0
1.015284 -0.013680 0.0
1.015626 -0.012086 0.0
1.015900 -0.010677 0.0
1.016120 -0.009433 0.0
1.016299 -0.008333 0.0
1.016444 -0.007361 0.0
1.016563 -0.006502 0.0
1.016660 -0.005744 0.0