# vtk DataFile Version 3.0
Vector Field
ASCII
DATASET RECTILINEAR_GRID
DIMENSIONS 100 26 1
X_COORDINATES 100 double
0.050000 0.150000 0.250000 0.350000 0.450000 0.550000 0.650000 0.750000 0.850000 0.950000 1.050000 1.150000 1.250000 1.350000 1.450000 1.550000 1.650000 1.750000 1.850000 1.950000 2.050000 2.150000 2.250000 2.350000 2.450000 2.550000 2.650000 2.750000 2.850000 2.950000 3.050000 3.150000 3.250000 3.350000 3.450000 3.550000 3.650000 3.750000 3.850000 3.950000 4.050000 4.150000 4.250000 4.350000 4.450000 4.550000 4.650000 4.750000 4.850000 4.950000 5.050000 5.150000 5.250000 5.350000 5.450000 5.550000 5.650000 5.750000 5.850000 5.950000 6.050000 6.150000 6.250000 6.350000 6.450000 6.550000 6.650000 6.750000 6.850000 6.950000 7.050000 7.150000 7.250000 7.350000 7.450000 7.550000 7.650000 7.750000 7.850000 7.950000 8.050000 8.150000 8.250000 8.350000 8.450000 8.550000 8.650000 8.750000 8.850000 8.950000 9.050000 9.150000 9.250000 9.350000 9.450000 9.550000 9.650000 9.750000 9.850000 9.950000 
Y_COORDINATES 26 double
0.050000 0.150000 0.250000 0.350000 0.450000 0.550000 0.650000 0.750000 0.850000 0.950000 1.050000 1.150000 1.250000 1.350000 1.450000 1.550000 1.650000 1.750000 1.850000 1.950000 2.050000 2.150000 2.250000 2.350000 2.450000 2.550000 
Z_COORDINATES 1 double
0.0
POINT_DATA 2600
VECTORS Vektorfeld double
0.997781 0.002219 0.0
0.993458 0.002104 0.0
0.990920 0.000435 0.0
0.992351 -0.001866 0.0
0.998590 -0.004374 0.0
1.009762 -0.006798 0.0
1.025417 -0.008858 0.0
1.044544 -0.010269 0.0
1.065591 -0.010778 0.0
1.086603 -0.010234 0.0
1.105493 -0.008655 0.0
1.120375 -0.006227 0.0
1.129841 -0.003239 0.0
1.133160 -0.000081 0.0
1.130251 0.002990 0.0
1.121366 0.005895 0.0
1.106976 0.008494 0.0
1.087818 0.010664 0.0
1.064849 0.012305 0.0
1.039199 0.013345 0.0
1.012108 0.013745 0.0
0.984865 0.013498 0.0
0.958725 0.012642 0.0
0.934828 0.011255 0.0
0.914108 0.009466 0.0
0.897189 0.007452 0.0
0.884292 0.005445 0.0
0.875128 0.003719 0.0
0.868843 0.002565 0.0
0.864026 0.002252 0.0
0.858811 0.002962 0.0
0.851123 0.004726 0.0
0.838999 0.007399 0.0
0.820894 0.010706 0.0
0.795879 0.014310 0.0
0.763701 0.017868 0.0
0.724762 0.021071 0.0
0.680038 0.023653 0.0
0.630980 0.025405 0.0
0.579413 0.026163 0.0
0.527433 0.025817 0.0
0.477340 0.024276 0.0
0.431733 0.021330 0.0
0.393903 0.016500 0.0
0.368010 0.009393 0.0
0.357499 0.001119 0.0
0.360977 -0.004597 0.0
0.372862 -0.007288 0.0
0.388482 -0.008332 0.0
0.405227 -0.008413 0.0
0.421535 -0.007895 0.0
0.436426 -0.006995 0.0
0.449275 -0.005854 0.0
0.459702 -0.004573 0.0
0.467520 -0.003245 0.0
0.472740 -0.001975 0.0
0.475565 -0.000850 0.0
0.476153 0.000262 0.0
0.474007 0.001884 0.0
0.468103 0.004020 0.0
0.457686 0.006397 0.0
0.442596 0.008694 0.0
0.423484 0.010418 0.0
0.402037 0.011029 0.0
0.380751 0.010258 0.0
0.362095 0.008398 0.0
0.347458 0.006239 0.0
0.336645 0.004574 0.0
0.328378 0.003693 0.0
0.321363 0.003322 0.0
0.315061 0.002980 0.0
0.309710 0.002371 0.0
0.305800 0.001538 0.0
0.303545 0.000716 0.0
0.302750 0.000079 0.0
0.302934 -0.000264 0.0
0.303579 -0.000381 0.0
0.304330 -0.000370 0.0
0.304950 -0.000250 0.0
0.305209 -0.000010 0.0
0.304764 0.000455 0.0
0.303231 0.001078 0.0
0.300487 0.001666 0.0
0.296807 0.002014 0.0
0.292764 0.002029 0.0
0.288970 0.001765 0.0
0.285804 0.001401 0.0
0.283264 0.001138 0.0
0.281068 0.001058 0.0
0.278903 0.001107 0.0
0.276608 0.001188 0.0
0.274190 0.001230 0.0
0.271758 0.001202 0.0
0.269471 0.001084 0.0
0.267538 0.000849 0.0
0.266216 0.000474 0.0
0.265766 -0.000023 0.0
0.266330 -0.000542 0.0
0.267957 -0.001085 0.0
0.271088 -0.002046 0.0
1.003076 0.001361 0.0
1.012049 -0.001688 0.0
1.026101 -0.007286 0.0
1.044604 -0.014079 0.0
1.067470 -0.021266 0.0
1.094548 -0.028155 0.0
1.125390 -0.033999 0.0
1.159119 -0.037984 0.0
1.194361 -0.039353 0.0
1.229305 -0.037616 0.0
1.261985 -0.032843 0.0
1.290675 -0.025612 0.0
1.314121 -0.016764 0.0
1.331456 -0.007209 0.0
1.342164 0.002319 0.0
1.346266 0.011349 0.0
1.344269 0.019428 0.0
1.336970 0.026187 0.0
1.325386 0.031334 0.0
1.310701 0.034652 0.0
1.294209 0.036021 0.0
1.277251 0.035423 0.0
1.261142 0.032966 0.0
1.247081 0.028889 0.0
1.236056 0.023578 0.0
1.228743 0.017572 0.0
1.225403 0.011563 0.0
1.225782 0.006386 0.0
1.229040 0.002924 0.0
1.233744 0.002007 0.0
1.237956 0.004211 0.0
1.239472 0.009649 0.0
1.236194 0.017877 0.0
1.226486 0.028039 0.0
1.209374 0.039103 0.0
1.184590 0.050037 0.0
1.152522 0.059910 0.0
1.114120 0.067940 0.0
1.070796 0.073500 0.0
1.024323 0.076107 0.0
0.976779 0.075398 0.0
0.930506 0.071061 0.0
0.887984 0.062673 0.0
0.851232 0.049741 0.0
0.820569 0.032707 0.0
0.794415 0.014470 0.0
0.773519 -0.000530 0.0
0.761377 -0.011098 0.0
0.758729 -0.017495 0.0
0.763609 -0.020875 0.0
0.774066 -0.022198 0.0
0.788624 -0.022141 0.0
0.806216 -0.021150 0.0
0.825985 -0.019473 0.0
0.847033 -0.017212 0.0
0.868161 -0.014356 0.0
0.887653 -0.010785 0.0
0.903490 -0.006229 0.0
0.914480 -0.000469 0.0
0.920573 0.006184 0.0
0.921929 0.013293 0.0
0.918662 0.020153 0.0
0.910991 0.025741 0.0
0.899059 0.029085 0.0
0.882717 0.029830 0.0
0.861663 0.028533 0.0
0.835983 0.026421 0.0
0.806684 0.024505 0.0
0.775825 0.022887 0.0
0.746135 0.020833 0.0
0.720386 0.017520 0.0
0.700777 0.012791 0.0
0.688440 0.007365 0.0
0.683193 0.002392 0.0
0.683559 -0.001167 0.0
0.687545 -0.003187 0.0
0.693647 -0.004204 0.0
0.700933 -0.004584 0.0
0.708563 -0.004286 0.0
0.715649 -0.003319 0.0
0.721637 -0.001778 0.0
0.726489 -0.000009 0.0
0.730412 0.001574 0.0
0.733476 0.002722 0.0
0.735487 0.003353 0.0
0.736144 0.003577 0.0
0.735211 0.003688 0.0
0.732655 0.003947 0.0
0.728700 0.004401 0.0
0.723737 0.004893 0.0
0.718185 0.005249 0.0
0.712389 0.005381 0.0
0.706589 0.005284 0.0
0.700922 0.004957 0.0
0.695456 0.004375 0.0
0.690250 0.003475 0.0
0.685552 0.002124 0.0
0.682164 0.000134 0.0
0.681226 -0.002450 0.0
0.683501 -0.006087 0.0
1.001986 -0.003701 0.0
1.009134 -0.012746 0.0
1.022227 -0.023373 0.0
1.040748 -0.035018 0.0
1.064568 -0.047013 0.0
1.093582 -0.058499 0.0
1.127428 -0.068344 0.0
1.165226 -0.075166 0.0
1.205379 -0.077565 0.0
1.245499 -0.074467 0.0
1.282882 -0.066054 0.0
1.315322 -0.053531 0.0
1.341470 -0.038439 0.0
1.360766 -0.022167 0.0
1.373216 -0.005880 0.0
1.379188 0.009475 0.0
1.379292 0.023195 0.0
1.374307 0.034703 0.0
1.365175 0.043533 0.0
1.352974 0.049340 0.0
1.338884 0.051916 0.0
1.324144 0.051225 0.0
1.309996 0.047421 0.0
1.297618 0.040872 0.0
1.288068 0.032170 0.0
1.282224 0.022137 0.0
1.280721 0.011840 0.0
1.283864 0.002588 0.0
1.291411 -0.004082 0.0
1.302334 -0.006616 0.0
1.314849 -0.003893 0.0
1.326712 0.004374 0.0
1.335609 0.017533 0.0
1.339577 0.034123 0.0
1.337327 0.052382 0.0
1.328274 0.070595 0.0
1.312451 0.087243 0.0
1.290390 0.101069 0.0
1.263012 0.111075 0.0
1.231526 0.116492 0.0
1.197343 0.116741 0.0
1.161946 0.111388 0.0
1.126635 0.100178 0.0
1.092187 0.083435 0.0
1.058936 0.062925 0.0
1.027542 0.041800 0.0
0.998606 0.021972 0.0
0.972459 0.004690 0.0
0.950844 -0.009020 0.0
0.935664 -0.019049 0.0
0.927106 -0.025923 0.0
0.924626 -0.030494 0.0
0.927615 -0.033378 0.0
0.935495 -0.034894 0.0
0.947726 -0.035070 0.0
0.963793 -0.033692 0.0
0.983231 -0.030378 0.0
1.005561 -0.024803 0.0
1.029826 -0.017150 0.0
1.054375 -0.007777 0.0
1.077449 0.002825 0.0
1.097586 0.013751 0.0
1.113507 0.023894 0.0
1.123984 0.032387 0.0
1.127835 0.039019 0.0
1.124289 0.043944 0.0
1.113400 0.047579 0.0
1.096079 0.049967 0.0
1.073806 0.050558 0.0
1.048133 0.048525 0.0
1.020286 0.043424 0.0
0.991061 0.035720 0.0
0.961155 0.026679 0.0
0.931818 0.017663 0.0
0.905522 0.009491 0.0
0.885396 0.002294 0.0
0.873284 -0.003674 0.0
0.868616 -0.007731 0.0
0.869576 -0.009729 0.0
0.874647 -0.010031 0.0
0.882679 -0.009085 0.0
0.892454 -0.007329 0.0
0.902611 -0.005186 0.0
0.911961 -0.002933 0.0
0.919723 -0.000763 0.0
0.925512 0.001247 0.0
0.929343 0.003120 0.0
0.931562 0.004852 0.0
0.932706 0.006307 0.0
0.933351 0.007304 0.0
0.933996 0.007745 0.0
0.935008 0.007668 0.0
0.936604 0.007201 0.0
0.938849 0.006462 0.0
0.941671 0.005516 0.0
0.944880 0.004331 0.0
0.948150 0.002695 0.0
0.950889 0.000212 0.0
0.952577 -0.003278 0.0
0.955420 -0.010376 0.0
1.001611 -0.007298 0.0
1.007882 -0.022568 0.0
1.020150 -0.038911 0.0
1.038369 -0.056220 0.0
1.062739 -0.074002 0.0
1.093521 -0.091306 0.0
1.130731 -0.106592 0.0
1.173692 -0.117677 0.0
1.220625 -0.122140 0.0
1.268016 -0.117404 0.0
1.311550 -0.104035 0.0
1.348161 -0.084601 0.0
1.376483 -0.061838 0.0
1.396312 -0.037893 0.0
1.408053 -0.014345 0.0
1.412425 0.007597 0.0
1.410307 0.027088 0.0
1.402680 0.043422 0.0
1.390629 0.055996 0.0
1.375364 0.064343 0.0
1.358196 0.068171 0.0
1.340497 0.067409 0.0
1.323645 0.062237 0.0
1.308975 0.053104 0.0
1.297729 0.040734 0.0
1.291031 0.026115 0.0
1.289890 0.010506 0.0
1.295054 -0.004386 0.0
1.306594 -0.016195 0.0
1.323491 -0.022324 0.0
1.343507 -0.020715 0.0
1.363506 -0.010666 0.0
1.380405 0.006778 0.0
1.392032 0.029282 0.0
1.397289 0.054216 0.0
1.395916 0.079187 0.0
1.388208 0.102182 0.0
1.374786 0.121612 0.0
1.356424 0.136272 0.0
1.333938 0.145266 0.0
1.308123 0.147964 0.0
1.279678 0.144007 0.0
1.249115 0.133434 0.0
1.216745 0.116997 0.0
1.182918 0.096441 0.0
1.148414 0.074183 0.0
1.114523 0.052415 0.0
1.082560 0.032357 0.0
1.053189 0.014299 0.0
1.027216 -0.001215 0.0
1.006097 -0.014080 0.0
0.990669 -0.024428 0.0
0.980913 -0.032676 0.0
0.976529 -0.039093 0.0
0.977161 -0.043735 0.0
0.982573 -0.046507 0.0
0.992812 -0.047240 0.0
1.008270 -0.045730 0.0
1.029545 -0.041764 0.0
1.057007 -0.035174 0.0
1.090139 -0.025983 0.0
1.126977 -0.014417 0.0
1.164087 -0.000969 0.0
1.197341 0.013520 0.0
1.223544 0.027833 0.0
1.241282 0.040939 0.0
1.250232 0.052524 0.0
1.250672 0.061904 0.0
1.243319 0.068247 0.0
1.229019 0.070808 0.0
1.208641 0.069367 0.0
1.183222 0.064421 0.0
1.154199 0.056907 0.0
1.123345 0.047625 0.0
1.092206 0.036963 0.0
1.061681 0.025472 0.0
1.032669 0.014272 0.0
1.007175 0.004484 0.0
0.987651 -0.003381 0.0
0.975089 -0.008888 0.0
0.968669 -0.011840 0.0
0.966817 -0.012498 0.0
0.967942 -0.011299 0.0
0.970543 -0.008770 0.0
0.973306 -0.005450 0.0
0.975284 -0.001834 0.0
0.976044 0.001610 0.0
0.975742 0.004445 0.0
0.975022 0.006290 0.0
0.974780 0.006917 0.0
0.975953 0.006315 0.0
0.979347 0.004692 0.0
0.985514 0.002413 0.0
0.994654 -0.000136 0.0
1.006535 -0.002589 0.0
1.020464 -0.004703 0.0
1.035349 -0.006427 0.0
1.049897 -0.007952 0.0
1.062909 -0.009814 0.0
1.073608 -0.017381 0.0
1.001424 -0.010333 0.0
1.007127 -0.031507 0.0
1.018655 -0.053769 0.0
1.036409 -0.077335 0.0
1.061113 -0.101961 0.0
1.093705 -0.126721 0.0
1.135009 -0.149691 0.0
1.185019 -0.167549 0.0
1.242276 -0.176458 0.0
1.300940 -0.169140 0.0
1.353043 -0.147935 0.0
1.394424 -0.118694 0.0
1.424439 -0.086082 0.0
1.443898 -0.052937 0.0
1.453888 -0.021033 0.0
1.455527 0.008274 0.0
1.449905 0.034150 0.0
1.438093 0.055799 0.0
1.421303 0.072460 0.0
1.400925 0.083522 0.0
1.378491 0.088593 0.0
1.355624 0.087554 0.0
1.333966 0.080601 0.0
1.315118 0.068259 0.0
1.300569 0.051375 0.0
1.291686 0.031056 0.0
1.289781 0.008612 0.0
1.296038 -0.013912 0.0
1.310965 -0.033135 0.0
1.333695 -0.045011 0.0
1.361646 -0.045995 0.0
1.390688 -0.034427 0.0
1.415977 -0.011648 0.0
1.433838 0.018220 0.0
1.443087 0.050773 0.0
1.444238 0.082854 0.0
1.438393 0.112068 0.0
1.426803 0.136737 0.0
1.410583 0.155730 0.0
1.390580 0.168297 0.0
1.367359 0.173970 0.0
1.341230 0.172575 0.0
1.312314 0.164343 0.0
1.280685 0.150087 0.0
1.246595 0.131268 0.0
1.210701 0.109753 0.0
1.174100 0.087338 0.0
1.138123 0.065375 0.0
1.104080 0.044695 0.0
1.072921 0.025520 0.0
1.045181 0.008045 0.0
1.021431 -0.007375 0.0
1.001982 -0.020524 0.0
0.986509 -0.031388 0.0
0.974604 -0.040168 0.0
0.966294 -0.047176 0.0
0.962296 -0.052811 0.0
0.964015 -0.057336 0.0
0.973237 -0.060653 0.0
0.991562 -0.062073 0.0
1.019816 -0.060469 0.0
1.057696 -0.054648 0.0
1.103623 -0.043776 0.0
1.154479 -0.027783 0.0
1.205094 -0.007683 0.0
1.249106 0.014704 0.0
1.282384 0.036529 0.0
1.304322 0.055521 0.0
1.315584 0.070722 0.0
1.316917 0.081302 0.0
1.309225 0.086943 0.0
1.293644 0.087846 0.0
1.271593 0.084556 0.0
1.244689 0.077735 0.0
1.214562 0.068119 0.0
1.182807 0.056595 0.0
1.150948 0.044021 0.0
1.120140 0.031037 0.0
1.091135 0.018596 0.0
1.064894 0.007938 0.0
1.042679 -0.000031 0.0
1.025088 -0.004863 0.0
1.011482 -0.006454 0.0
1.000413 -0.005148 0.0
0.990298 -0.001720 0.0
0.979991 0.002765 0.0
0.969119 0.007122 0.0
0.958099 0.010255 0.0
0.947917 0.011382 0.0
0.939833 0.010152 0.0
0.935076 0.006665 0.0
0.934635 0.001389 0.0
0.939134 -0.004950 0.0
0.948676 -0.011454 0.0
0.962796 -0.017273 0.0
0.980614 -0.021766 0.0
1.000953 -0.024587 0.0
1.022401 -0.025787 0.0
1.043312 -0.025902 0.0
1.060174 -0.028853 0.0
1.001236 -0.012993 0.0
1.006254 -0.039569 0.0
1.016637 -0.067618 0.0
1.033183 -0.097785 0.0
1.057253 -0.130284 0.0
1.090789 -0.164526 0.0
1.136096 -0.198498 0.0
1.194816 -0.227472 0.0
1.267784 -0.246762 0.0
1.343431 -0.233147 0.0
1.405136 -0.197736 0.0
1.449029 -0.154167 0.0
1.477780 -0.109374 0.0
1.494568 -0.065893 0.0
1.501356 -0.024855 0.0
1.499335 0.012479 0.0
1.489406 0.045496 0.0
1.472486 0.073184 0.0
1.449829 0.094522 0.0
1.422990 0.108678 0.0
1.393745 0.115116 0.0
1.364001 0.113643 0.0
1.335709 0.104461 0.0
1.310762 0.088194 0.0
1.290879 0.065871 0.0
1.277494 0.038828 0.0
1.271782 0.008458 0.0
1.275091 -0.023325 0.0
1.288680 -0.052239 0.0
1.312581 -0.072539 0.0
1.345094 -0.078931 0.0
1.382607 -0.068045 0.0
1.419321 -0.040033 0.0
1.448167 -0.000104 0.0
1.465021 0.042993 0.0
1.470446 0.084058 0.0
1.466732 0.120422 0.0
1.456111 0.150594 0.0
1.440358 0.173846 0.0
1.420680 0.189861 0.0
1.397759 0.198547 0.0
1.371879 0.200007 0.0
1.343087 0.194619 0.0
1.311388 0.183140 0.0
1.276954 0.166738 0.0
1.240294 0.146837 0.0
1.202284 0.124864 0.0
1.164081 0.102029 0.0
1.126930 0.079235 0.0
1.091920 0.057150 0.0
1.059681 0.036394 0.0
1.030080 0.017627 0.0
1.002329 0.001675 0.0
0.975445 -0.011229 0.0
0.948923 -0.021900 0.0
0.923634 -0.031844 0.0
0.902107 -0.042618 0.0
0.887809 -0.054951 0.0
0.883995 -0.068445 0.0
0.892690 -0.081302 0.0
0.914287 -0.091092 0.0
0.947936 -0.095552 0.0
0.992088 -0.092951 0.0
1.044796 -0.082172 0.0
1.103708 -0.062821 0.0
1.165447 -0.035910 0.0
1.223968 -0.004656 0.0
1.271997 0.026738 0.0
1.306256 0.053984 0.0
1.327359 0.075604 0.0
1.336515 0.091176 0.0
1.335037 0.100672 0.0
1.324399 0.104417 0.0
1.306199 0.102978 0.0
1.282090 0.097112 0.0
1.253726 0.087721 0.0
1.222697 0.075784 0.0
1.190453 0.062326 0.0
1.158276 0.048489 0.0
1.127161 0.035400 0.0
1.097617 0.024266 0.0
1.069686 0.016362 0.0
1.043099 0.012514 0.0
1.017383 0.012670 0.0
0.992113 0.015848 0.0
0.967265 0.020353 0.0
0.943429 0.024241 0.0
0.921754 0.025832 0.0
0.903658 0.024082 0.0
0.890471 0.018723 0.0
0.883142 0.010181 0.0
0.882096 -0.000640 0.0
0.887188 -0.012512 0.0
0.897764 -0.024010 0.0
0.912864 -0.033937 0.0
0.931383 -0.041438 0.0
0.952127 -0.045999 0.0
0.973762 -0.047458 0.0
0.994658 -0.046039 0.0
1.011609 -0.042529 0.0
1.000961 -0.015190 0.0
1.004906 -0.046335 0.0
1.013256 -0.079585 0.0
1.027097 -0.116206 0.0
1.048393 -0.157230 0.0
1.080321 -0.203044 0.0
1.127512 -0.252479 0.0
1.195132 -0.299830 0.0
1.291889 -0.344129 0.0
1.390473 -0.310010 0.0
1.455355 -0.247461 0.0
1.491545 -0.184525 0.0
1.511028 -0.127249 0.0
1.520831 -0.074608 0.0
1.523083 -0.025180 0.0
1.517482 0.020426 0.0
1.503592 0.061367 0.0
1.481811 0.096014 0.0
1.453284 0.122875 0.0
1.419645 0.140803 0.0
1.382834 0.149048 0.0
1.344984 0.147305 0.0
1.308310 0.135765 0.0
1.274966 0.115181 0.0
1.246841 0.086892 0.0
1.225236 0.052795 0.0
1.210420 0.015019 0.0
1.202624 -0.025399 0.0
1.203735 -0.064863 0.0
1.216089 -0.096170 0.0
1.241117 -0.112841 0.0
1.278821 -0.109352 0.0
1.325923 -0.082541 0.0
1.374109 -0.034628 0.0
1.411483 0.023289 0.0
1.432697 0.077122 0.0
1.440655 0.123114 0.0
1.438828 0.160349 0.0
1.429806 0.188865 0.0
1.415292 0.209035 0.0
1.396291 0.221296 0.0
1.373327 0.226102 0.0
1.346650 0.223992 0.0
1.316432 0.215685 0.0
1.282939 0.202120 0.0
1.246669 0.184386 0.0
1.208399 0.163595 0.0
1.169138 0.140763 0.0
1.129971 0.116819 0.0
1.091760 0.092788 0.0
1.054706 0.070047 0.0
1.018004 0.050277 0.0
0.980034 0.034746 0.0
0.939469 0.023149 0.0
0.896815 0.012899 0.0
0.855397 0.000064 0.0
0.820754 -0.018357 0.0
0.798540 -0.042700 0.0
0.791787 -0.070128 0.0
0.800073 -0.096598 0.0
0.821268 -0.118589 0.0
0.853156 -0.133593 0.0
0.894018 -0.139925 0.0
0.942563 -0.136451 0.0
0.997626 -0.122515 0.0
1.057805 -0.098135 0.0
1.121127 -0.064273 0.0
1.183743 -0.024290 0.0
1.238461 0.016035 0.0
1.279668 0.051242 0.0
1.306873 0.079177 0.0
1.321351 0.099671 0.0
1.324515 0.112893 0.0
1.317897 0.119320 0.0
1.303098 0.119677 0.0
1.281728 0.114890 0.0
1.255341 0.106031 0.0
1.225366 0.094297 0.0
1.193032 0.081029 0.0
1.159270 0.067736 0.0
1.124670 0.056075 0.0
1.089532 0.047621 0.0
1.054018 0.043356 0.0
1.018366 0.043196 0.0
0.983135 0.045823 0.0
0.949366 0.048996 0.0
0.918533 0.050266 0.0
0.892288 0.047728 0.0
0.872081 0.040490 0.0
0.858836 0.028746 0.0
0.852805 0.013519 0.0
0.853594 -0.003721 0.0
0.860299 -0.021228 0.0
0.871767 -0.037338 0.0
0.886841 -0.050783 0.0
0.904417 -0.060687 0.0
0.923409 -0.066488 0.0
0.942659 -0.067854 0.0
0.960785 -0.064665 0.0
0.975582 -0.055651 0.0
1.000554 -0.016706 0.0
1.002857 -0.051066 0.0
1.007896 -0.088242 0.0
1.016777 -0.130270 0.0
1.031721 -0.179406 0.0
1.056891 -0.237965 0.0
1.099744 -0.307602 0.0
1.171831 -0.384414 0.0
1.301532 -0.486003 0.0
1.421354 -0.386543 0.0
1.462880 -0.277337 0.0
1.467425 -0.195385 0.0
1.463566 -0.132013 0.0
1.460972 -0.077053 0.0
1.459134 -0.023150 0.0
1.452899 0.030232 0.0
1.438553 0.079797 0.0
1.415443 0.122474 0.0
1.384325 0.156060 0.0
1.346595 0.178987 0.0
1.304050 0.190219 0.0
1.258766 0.189268 0.0
1.212951 0.176291 0.0
1.168723 0.152227 0.0
1.127819 0.118875 0.0
1.091299 0.078937 0.0
1.059100 0.035893 0.0
1.029079 -0.008458 0.0
1.002547 -0.056383 0.0
0.987594 -0.102052 0.0
0.992741 -0.137133 0.0
1.022049 -0.152073 0.0
1.074147 -0.139019 0.0
1.142928 -0.095117 0.0
1.216107 -0.026775 0.0
1.275922 0.046158 0.0
1.315251 0.106792 0.0
1.338909 0.154840 0.0
1.350684 0.191620 0.0
1.353008 0.218471 0.0
1.347423 0.236447 0.0
1.334960 0.246378 0.0
1.316364 0.248988 0.0
1.292253 0.245018 0.0
1.263250 0.235283 0.0
1.230074 0.220669 0.0
1.193578 0.202079 0.0
1.154690 0.180428 0.0
1.114180 0.156831 0.0
1.072156 0.133010 0.0
1.027535 0.111500 0.0
0.978255 0.094807 0.0
0.923079 0.083361 0.0
0.864254 0.073924 0.0
0.808389 0.060643 0.0
0.763737 0.038389 0.0
0.735842 0.005856 0.0
0.725348 -0.034206 0.0
0.729455 -0.075976 0.0
0.744614 -0.114196 0.0
0.768061 -0.145633 0.0
0.798146 -0.168521 0.0
0.834073 -0.181786 0.0
0.875532 -0.184594 0.0
0.922358 -0.176261 0.0
0.974220 -0.156431 0.0
1.030348 -0.125427 0.0
1.089279 -0.084684 0.0
1.148312 -0.037322 0.0
1.201535 0.010170 0.0
1.243085 0.051494 0.0
1.271587 0.084373 0.0
1.287902 0.108713 0.0
1.293203 0.124818 0.0
1.288841 0.133339 0.0
1.276239 0.135201 0.0
1.256801 0.131546 0.0
1.231834 0.123724 0.0
1.202470 0.113301 0.0
1.169618 0.102077 0.0
1.133975 0.091977 0.0
1.096127 0.084705 0.0
1.056733 0.081179 0.0
1.016737 0.081022 0.0
0.977506 0.082459 0.0
0.940802 0.082833 0.0
0.908534 0.079530 0.0
0.882383 0.070861 0.0
0.863453 0.056494 0.0
0.852106 0.037333 0.0
0.848002 0.015067 0.0
0.850266 -0.008322 0.0
0.857712 -0.030777 0.0
0.869090 -0.050634 0.0
0.883234 -0.066706 0.0
0.899085 -0.078190 0.0
0.915656 -0.084547 0.0
0.931970 -0.085358 0.0
0.946970 -0.080286 0.0
0.959253 -0.067108 0.0
1.000009 -0.017269 0.0
1.000076 -0.052872 0.0
1.000422 -0.091822 0.0
1.001714 -0.136863 0.0
1.005581 -0.191623 0.0
1.015819 -0.261156 0.0
1.041182 -0.352627 0.0
1.101014 -0.471308 0.0
1.259875 -0.687670 0.0
1.370587 -0.415409 0.0
1.329132 -0.248541 0.0
1.267307 -0.166901 0.0
1.225446 -0.114777 0.0
1.206780 -0.073030 0.0
1.206747 -0.025301 0.0
1.210701 0.034665 0.0
1.207200 0.093212 0.0
1.194363 0.145005 0.0
1.171821 0.187190 0.0
1.139746 0.217663 0.0
1.098904 0.234930 0.0
1.050525 0.238221 0.0
0.995916 0.227763 0.0
0.935725 0.205174 0.0
0.869315 0.173240 0.0
0.796217 0.134190 0.0
0.720879 0.088179 0.0
0.655645 0.034510 0.0
0.612714 -0.029888 0.0
0.600229 -0.101109 0.0
0.620025 -0.163018 0.0
0.666483 -0.201955 0.0
0.733877 -0.208628 0.0
0.818224 -0.178637 0.0
0.915693 -0.113904 0.0
1.016483 -0.027317 0.0
1.101562 0.055860 0.0
1.162726 0.120950 0.0
1.205561 0.170900 0.0
1.233792 0.208637 0.0
1.249652 0.236006 0.0
1.254699 0.254234 0.0
1.250186 0.264242 0.0
1.237215 0.266846 0.0
1.216824 0.262849 0.0
1.190021 0.253082 0.0
1.157755 0.238427 0.0
1.120743 0.219979 0.0
1.079077 0.199457 0.0
1.031850 0.179636 0.0
0.977546 0.163798 0.0
0.915926 0.153408 0.0
0.850478 0.145383 0.0
0.788840 0.132365 0.0
0.739746 0.107162 0.0
0.708727 0.067541 0.0
0.696234 0.017092 0.0
0.698774 -0.037488 0.0
0.711511 -0.089537 0.0
0.730641 -0.134924 0.0
0.754009 -0.171720 0.0
0.780625 -0.199136 0.0
0.810277 -0.216749 0.0
0.843262 -0.224074 0.0
0.880113 -0.220458 0.0
0.921280 -0.205263 0.0
0.966827 -0.178269 0.0
1.016195 -0.140141 0.0
1.068078 -0.092783 0.0
1.120167 -0.039681 0.0
1.167468 0.012494 0.0
1.204951 0.057388 0.0
1.231165 0.093169 0.0
1.246484 0.119742 0.0
1.251723 0.137537 0.0
1.247932 0.147396 0.0
1.236238 0.150483 0.0
1.217741 0.148252 0.0
1.193437 0.142441 0.0
1.164197 0.135029 0.0
1.130819 0.128047 0.0
1.094159 0.123142 0.0
1.055318 0.120976 0.0
1.015782 0.120758 0.0
0.977425 0.120310 0.0
0.942319 0.116792 0.0
0.912375 0.107782 0.0
0.888990 0.092145 0.0
0.872839 0.070291 0.0
0.863885 0.043838 0.0
0.861529 0.015022 0.0
0.864793 -0.013806 0.0
0.872495 -0.040442 0.0
0.883423 -0.063275 0.0
0.896434 -0.081221 0.0
0.910498 -0.093590 0.0
0.924704 -0.099925 0.0
0.938244 -0.099834 0.0
0.950372 -0.092940 0.0
0.960228 -0.076593 0.0
0.999377 -0.016656 0.0
0.996828 -0.051003 0.0
0.991540 -0.088748 0.0
0.983217 -0.132907 0.0
0.971671 -0.187899 0.0
0.957512 -0.260959 0.0
0.944519 -0.365194 0.0
0.948322 -0.522376 0.0
1.054201 -0.901342 0.0
1.056043 -0.204552 0.0
0.866295 -0.106696 0.0
0.725005 -0.093871 0.0
0.654508 -0.075450 0.0
0.628468 -0.067651 0.0
0.647106 -0.049284 0.0
0.691968 0.009831 0.0
0.732794 0.080721 0.0
0.758231 0.144897 0.0
0.767417 0.200655 0.0
0.758428 0.245262 0.0
0.729965 0.276635 0.0
0.681125 0.293735 0.0
0.611555 0.296427 0.0
0.523326 0.284930 0.0
0.424527 0.258694 0.0
0.331197 0.215164 0.0
0.263510 0.150229 0.0
0.235850 0.065353 0.0
0.248486 -0.030436 0.0
0.287417 -0.127006 0.0
0.339002 -0.208501 0.0
0.399667 -0.263597 0.0
0.470330 -0.285043 0.0
0.552732 -0.268970 0.0
0.647699 -0.216006 0.0
0.754114 -0.132420 0.0
0.864207 -0.034208 0.0
0.959784 0.054275 0.0
1.031858 0.122666 0.0
1.085120 0.175378 0.0
1.122758 0.215767 0.0
1.146604 0.245581 0.0
1.158072 0.265942 0.0
1.158437 0.277752 0.0
1.148900 0.281870 0.0
1.130559 0.279205 0.0
1.104272 0.270856 0.0
1.070393 0.258442 0.0
1.028513 0.244540 0.0
0.977800 0.232493 0.0
0.918546 0.224498 0.0
0.854363 0.218512 0.0
0.792818 0.207271 0.0
0.742820 0.182113 0.0
0.710329 0.138998 0.0
0.696128 0.080925 0.0
0.697064 0.015265 0.0
0.708466 -0.049604 0.0
0.726061 -0.107752 0.0
0.746903 -0.156681 0.0
0.769235 -0.195663 0.0
0.792192 -0.224767 0.0
0.815660 -0.244238 0.0
0.840164 -0.254075 0.0
0.866686 -0.253830 0.0
0.896340 -0.242712 0.0
0.929974 -0.220000 0.0
0.967829 -0.185632 0.0
1.009360 -0.140706 0.0
1.053230 -0.087717 0.0
1.097166 -0.030707 0.0
1.136808 0.023465 0.0
1.168219 0.069467 0.0
1.190256 0.106089 0.0
1.202925 0.133282 0.0
1.206720 0.151648 0.0
1.202367 0.162277 0.0
1.190673 0.166648 0.0
1.172447 0.166576 0.0
1.148486 0.164095 0.0
1.119654 0.161190 0.0
1.087020 0.159291 0.0
1.052004 0.158684 0.0
1.016417 0.158174 0.0
0.982329 0.155337 0.0
0.951775 0.147425 0.0
0.926396 0.132472 0.0
0.907209 0.110029 0.0
0.894556 0.081210 0.0
0.888229 0.048200 0.0
0.887629 0.013616 0.0
0.891864 -0.019899 0.0
0.899840 -0.050027 0.0
0.910401 -0.075178 0.0
0.922432 -0.094359 0.0
0.934929 -0.107013 0.0
0.947051 -0.112830 0.0
0.958134 -0.111552 0.0
0.967695 -0.102911 0.0
0.975254 -0.084037 0.0
0.998769 -0.014802 0.0
0.993695 -0.045234 0.0
0.982906 -0.078439 0.0
0.964943 -0.116930 0.0
0.937094 -0.164480 0.0
0.894380 -0.227508 0.0
0.827086 -0.318357 0.0
0.716358 -0.462288 0.0
0.323522 -0.784213 0.0
-0.481163 0.284649 0.0
-0.481163 0.000000 0.0
-0.034449 -0.023758 0.0
-0.051247 -0.068959 0.0
0.005972 -0.105321 0.0
0.093006 -0.117287 0.0
0.188379 -0.062401 0.0
0.270429 0.030077 0.0
0.324429 0.116104 0.0
0.351682 0.193009 0.0
0.353938 0.259641 0.0
0.330937 0.313720 0.0
0.283517 0.352911 0.0
0.216538 0.373799 0.0
0.141379 0.370946 0.0
0.074509 0.338347 0.0
0.031003 0.272347 0.0
0.021836 0.169900 0.0
0.047677 0.047502 0.0
0.093925 -0.071469 0.0
0.146135 -0.177115 0.0
0.199465 -0.263306 0.0
0.254160 -0.324152 0.0
0.313403 -0.354394 0.0
0.381441 -0.350059 0.0
0.461624 -0.310068 0.0
0.554897 -0.238048 0.0
0.659130 -0.142906 0.0
0.766466 -0.039940 0.0
0.860766 0.050508 0.0
0.933717 0.121324 0.0
0.988805 0.177095 0.0
1.028498 0.220715 0.0
1.054233 0.253605 0.0
1.067198 0.276759 0.0
1.068475 0.291122 0.0
1.058981 0.297788 0.0
1.039282 0.298258 0.0
1.009418 0.294783 0.0
0.969117 0.290379 0.0
0.918925 0.287559 0.0
0.862045 0.285566 0.0
0.805303 0.278370 0.0
0.757406 0.256855 0.0
0.725066 0.214869 0.0
0.710211 0.153587 0.0
0.710531 0.080217 0.0
0.721884 0.003683 0.0
0.739970 -0.067509 0.0
0.761304 -0.128776 0.0
0.783546 -0.178742 0.0
0.805127 -0.217514 0.0
0.825138 -0.245884 0.0
0.843351 -0.264802 0.0
0.860262 -0.274925 0.0
0.877035 -0.276275 0.0
0.895271 -0.268157 0.0
0.916566 -0.249486 0.0
0.942018 -0.219453 0.0
0.971874 -0.178271 0.0
1.005463 -0.127611 0.0
1.041330 -0.070615 0.0
1.077010 -0.011948 0.0
1.108779 0.041699 0.0
1.133781 0.086818 0.0
1.151094 0.122570 0.0
1.160537 0.149122 0.0
1.162347 0.167347 0.0
1.156976 0.178643 0.0
1.144995 0.184788 0.0
1.127094 0.187746 0.0
1.104156 0.189310 0.0
1.077385 0.190576 0.0
1.048373 0.191428 0.0
1.019036 0.190354 0.0
0.991385 0.184895 0.0
0.967189 0.172617 0.0
0.947708 0.152139 0.0
0.933597 0.123661 0.0
0.924993 0.088835 0.0
0.921665 0.050229 0.0
0.923119 0.010732 0.0
0.928584 -0.026716 0.0
0.937054 -0.059656 0.0
0.947433 -0.086489 0.0
0.958656 -0.106303 0.0
0.969777 -0.118689 0.0
0.980036 -0.123534 0.0
0.988903 -0.120797 0.0
0.996105 -0.110429 0.0
1.001449 -0.089421 0.0
0.998315 -0.011886 0.0
0.991371 -0.036133 0.0
0.976567 -0.061947 0.0
0.951737 -0.090630 0.0
0.912696 -0.123889 0.0
0.851361 -0.164050 0.0
0.750941 -0.214099 0.0
0.571402 -0.276281 0.0
0.227354 -0.337363 0.0
0.000000 0.284649 0.0
-0.000000 -0.000000 0.0
0.000000 0.000000 0.0
-0.043017 -0.043305 0.0
-0.088278 -0.142644 0.0
-0.083360 -0.171916 0.0
-0.063840 -0.122664 0.0
-0.030809 -0.024741 0.0
0.005366 0.080746 0.0
0.027912 0.178568 0.0
0.032448 0.267291 0.0
0.018415 0.343104 0.0
-0.010631 0.399994 0.0
-0.046426 0.429489 0.0
-0.077548 0.421537 0.0
-0.092024 0.369102 0.0
-0.082187 0.275262 0.0
-0.041514 0.135478 0.0
0.019700 -0.005132 0.0
0.080939 -0.126321 0.0
0.135880 -0.229413 0.0
0.183700 -0.312157 0.0
0.225690 -0.371986 0.0
0.265929 -0.406042 0.0
0.310573 -0.411092 0.0
0.365925 -0.384570 0.0
0.435895 -0.326789 0.0
0.520316 -0.242817 0.0
0.615111 -0.142160 0.0
0.711866 -0.038328 0.0
0.796961 0.052113 0.0
0.863715 0.124464 0.0
0.914527 0.182841 0.0
0.950964 0.229305 0.0
0.974023 0.265035 0.0
0.984481 0.291110 0.0
0.982893 0.308882 0.0
0.969498 0.320258 0.0
0.944365 0.327781 0.0
0.908149 0.333899 0.0
0.863499 0.338881 0.0
0.816153 0.338469 0.0
0.774096 0.324266 0.0
0.744475 0.288476 0.0
0.730548 0.229516 0.0
0.731298 0.153044 0.0
0.743447 0.068292 0.0
0.763152 -0.015451 0.0
0.786689 -0.089997 0.0
0.811156 -0.152091 0.0
0.834588 -0.201102 0.0
0.855571 -0.237718 0.0
0.873192 -0.263312 0.0
0.887096 -0.279491 0.0
0.897598 -0.287649 0.0
0.905780 -0.288506 0.0
0.913423 -0.281804 0.0
0.922674 -0.266386 0.0
0.935479 -0.240810 0.0
0.953005 -0.204296 0.0
0.975343 -0.157513 0.0
1.001582 -0.102819 0.0
1.030093 -0.043935 0.0
1.058175 0.013835 0.0
1.082768 0.065085 0.0
1.101963 0.107795 0.0
1.114918 0.141500 0.0
1.121360 0.166717 0.0
1.121364 0.184640 0.0
1.115244 0.196891 0.0
1.103555 0.205233 0.0
1.087162 0.211153 0.0
1.067311 0.215354 0.0
1.045623 0.217349 0.0
1.023938 0.215455 0.0
1.004021 0.207363 0.0
0.987268 0.191098 0.0
0.974540 0.165867 0.0
0.966196 0.132388 0.0
0.962242 0.092667 0.0
0.962467 0.049500 0.0
0.966464 0.006011 0.0
0.973525 -0.034522 0.0
0.982700 -0.069495 0.0
0.992978 -0.097306 0.0
1.003398 -0.117128 0.0
1.013127 -0.128713 0.0
1.021530 -0.132171 0.0
1.028222 -0.127720 0.0
1.033115 -0.115601 0.0
1.036242 -0.092720 0.0
0.998103 -0.008304 0.0
0.990316 -0.024986 0.0
0.973842 -0.041815 0.0
0.946607 -0.058696 0.0
0.904881 -0.075056 0.0
0.842427 -0.089094 0.0
0.749761 -0.095968 0.0
0.615501 -0.080613 0.0
0.435913 -0.003680 0.0
0.167649 0.149697 0.0
0.000000 0.000000 0.0
-0.000000 -0.000000 0.0
0.000000 0.000000 0.0
-0.067938 -0.070200 0.0
-0.147946 -0.167008 0.0
-0.166369 -0.128670 0.0
-0.173106 -0.045029 0.0
-0.166795 0.058548 0.0
-0.153164 0.164588 0.0
-0.142305 0.265875 0.0
-0.137786 0.354035 0.0
-0.137976 0.418299 0.0
-0.137423 0.446426 0.0
-0.128736 0.427035 0.0
-0.098619 0.347962 0.0
-0.035045 0.222991 0.0
0.045111 0.066919 0.0
0.118230 -0.070907 0.0
0.181271 -0.184826 0.0
0.233874 -0.278452 0.0
0.274199 -0.351265 0.0
0.302648 -0.403316 0.0
0.322301 -0.434604 0.0
0.339230 -0.444104 0.0
0.361711 -0.429391 0.0
0.397692 -0.387918 0.0
0.451425 -0.319842 0.0
0.521606 -0.230112 0.0
0.602388 -0.127914 0.0
0.684473 -0.025482 0.0
0.756459 0.063319 0.0
0.813338 0.136295 0.0
0.856409 0.196343 0.0
0.886382 0.244966 0.0
0.903659 0.283444 0.0
0.908442 0.313354 0.0
0.900888 0.336735 0.0
0.881625 0.355700 0.0
0.852753 0.371069 0.0
0.818828 0.380285 0.0
0.786675 0.376565 0.0
0.763264 0.351639 0.0
0.752849 0.301139 0.0
0.755791 0.227839 0.0
0.769831 0.139930 0.0
0.792009 0.047080 0.0
0.818821 -0.040755 0.0
0.846791 -0.116199 0.0
0.873521 -0.177086 0.0
0.897359 -0.223376 0.0
0.917147 -0.256215 0.0
0.932138 -0.277426 0.0
0.941993 -0.289136 0.0
0.946882 -0.293396 0.0
0.947649 -0.291707 0.0
0.945931 -0.284528 0.0
0.944057 -0.271040 0.0
0.944588 -0.249492 0.0
0.949616 -0.218168 0.0
0.960171 -0.176534 0.0
0.976042 -0.125907 0.0
0.996010 -0.069326 0.0
1.018140 -0.010985 0.0
1.039792 0.043660 0.0
1.058571 0.091246 0.0