# vtk DataFile Version 3.0
Scalar Field
ASCII
DATASET RECTILINEAR_GRID
DIMENSIONS 100 26 1
X_COORDINATES 100 double
0.050000 0.150000 0.250000 0.350000 0.450000 0.550000 0.650000 0.750000 0.850000 0.950000 1.050000 1.150000 1.250000 1.350000 1.450000 1.550000 1.650000 1.750000 1.850000 1.950000 2.050000 2.150000 2.250000 2.350000 2.450000 2.550000 2.650000 2.750000 2.850000 2.950000 3.050000 3.150000 3.250000 3.350000 3.450000 3.550000 3.650000 3.750000 3.850000 3.950000 4.050000 4.150000 4.250000 4.350000 4.450000 4.550000 4.650000 4.750000 4.850000 4.950000 5.050000 5.150000 5.250000 5.350000 5.450000 5.550000 5.650000 5.750000 5.850000 5.950000 6.050000 6.150000 6.250000 6.350000 6.450000 6.550000 6.650000 6.750000 6.850000 6.950000 7.050000 7.150000 7.250000 7.350000 7.450000 7.550000 7.650000 7.750000 7.850000 7.950000 8.050000 8.150000 8.250000 8.350000 8.450000 8.550000 8.650000 8.750000 8.850000 8.950000 9.050000 9.150000 9.250000 9.350000 9.450000 9.550000 9.650000 9.750000 9.850000 9.950000 
Y_COORDINATES 26 double
0.050000 0.150000 0.250000 0.350000 0.450000 0.550000 0.650000 0.750000 0.850000 0.950000 1.050000 1.150000 1.250000 1.350000 1.450000 1.550000 1.650000 1.750000 1.850000 1.950000 2.050000 2.150000 2.250000 2.350000 2.450000 2.550000 
Z_COORDINATES 1 double
0.0
POINT_DATA 2600
SCALARS Skalarfeld double 1
LOOKUP_TABLE default
0.300436
0.285357
0.270698
0.253405
0.232346
0.207004
0.177246
0.143303
0.105817
0.065872
0.024911
-0.015488
-0.053873
-0.089095
-0.120366
-0.147256
-0.169176
-0.185720
-0.196876
-0.202753
-0.203636
-0.200015
-0.192571
-0.182124
-0.169548
-0.155677
-0.141209
-0.126641
-0.112243
-0.098066
-0.084000
-0.069855
-0.055463
-0.040762
-0.025927
-0.010004
0.006005
0.020623
0.032817
0.041978
0.047896
0.050393
0.050642
0.048646
0.044343
0.037669
0.028553
0.017032
0.003453
-0.011209
-0.025069
-0.035621
-0.041019
-0.041584
-0.038109
-0.032970
-0.026745
-0.019856
-0.012921
-0.006427
-0.000702
0.004069
0.007822
0.010590
0.012432
0.013529
0.013934
0.013613
0.012672
0.011241
0.009500
0.007678
0.006004
0.004593
0.003330
0.001843
-0.000385
-0.003792
-0.008530
-0.014398
-0.020922
-0.027540
-0.033802
-0.039488
-0.044606
-0.049293
-0.053722
-0.058012
-0.062302
-0.066702
-0.071349
-0.076330
-0.081883
-0.088263
-0.095708
-0.104406
-0.114210
-0.125010
-0.136587
-0.149241
0.291259
0.284993
0.273333
0.257266
0.236612
0.211120
0.180688
0.145551
0.106431
0.064611
0.021842
-0.020032
-0.059450
-0.095284
-0.126803
-0.153485
-0.175209
-0.191862
-0.203116
-0.209011
-0.209782
-0.205886
-0.197999
-0.186961
-0.173685
-0.159047
-0.143789
-0.128444
-0.113310
-0.098459
-0.083793
-0.069124
-0.054270
-0.039053
-0.023167
-0.007056
0.008347
0.022196
0.033693
0.042309
0.047932
0.051023
0.051010
0.048643
0.043978
0.036982
0.027575
0.015738
0.001766
-0.013326
-0.027429
-0.037741
-0.042328
-0.041497
-0.038274
-0.033658
-0.027446
-0.020409
-0.013368
-0.006790
-0.000998
0.003834
0.007644
0.010480
0.012514
0.013768
0.014134
0.013712
0.012731
0.011294
0.009581
0.007834
0.006296
0.005089
0.004076
0.002826
0.000738
-0.002702
-0.007660
-0.013881
-0.020780
-0.027679
-0.034064
-0.039733
-0.044760
-0.049350
-0.053718
-0.057908
-0.062102
-0.066333
-0.070750
-0.075579
-0.081030
-0.087359
-0.094788
-0.103470
-0.113386
-0.124371
-0.136087
-0.149705
0.293686
0.289790
0.280063
0.265087
0.244789
0.218864
0.187076
0.149565
0.107136
0.061450
0.014993
-0.029792
-0.071135
-0.108036
-0.140062
-0.167067
-0.189028
-0.205978
-0.217592
-0.223673
-0.224319
-0.219885
-0.211005
-0.198544
-0.183481
-0.166782
-0.149284
-0.131624
-0.114203
-0.097196
-0.080604
-0.064322
-0.048208
-0.032120
-0.015936
-0.000494
0.013724
0.026103
0.036016
0.043020
0.047021
0.048341
0.047077
0.043168
0.037472
0.030046
0.020815
0.009770
-0.002755
-0.015758
-0.027454
-0.035853
-0.039909
-0.040055
-0.037426
-0.032342
-0.026079
-0.019591
-0.012981
-0.006701
-0.001140
0.003502
0.007135
0.009769
0.011494
0.012413
0.012678
0.012420
0.011698
0.010708
0.009618
0.008556
0.007598
0.006733
0.005765
0.004328
0.001914
-0.001884
-0.007128
-0.013534
-0.020498
-0.027361
-0.033659
-0.039257
-0.044271
-0.048866
-0.053137
-0.057279
-0.061390
-0.065350
-0.069544
-0.074173
-0.079506
-0.085819
-0.093321
-0.102088
-0.112291
-0.123679
-0.135807
-0.149510
0.303362
0.300254
0.291621
0.277462
0.257372
0.230691
0.196783
0.155460
0.107548
0.055293
0.002811
-0.046317
-0.090142
-0.128098
-0.160382
-0.187425
-0.209544
-0.226766
-0.238873
-0.245233
-0.245696
-0.240432
-0.230021
-0.215381
-0.197615
-0.177831
-0.157018
-0.135963
-0.115218
-0.095118
-0.075816
-0.057348
-0.039682
-0.022772
-0.006621
0.008339
0.021529
0.032392
0.040314
0.044887
0.046098
0.044347
0.040285
0.034271
0.026925
0.018881
0.010105
0.000593
-0.009402
-0.019168
-0.027567
-0.033442
-0.036199
-0.035976
-0.033310
-0.028767
-0.023106
-0.016793
-0.010577
-0.004911
0.000078
0.004204
0.007326
0.009424
0.010563
0.010907
0.010701
0.010211
0.009645
0.009153
0.008779
0.008488
0.008193
0.007735
0.006888
0.005298
0.002618
-0.001395
-0.006597
-0.012791
-0.019445
-0.026051
-0.032246
-0.037901
-0.043046
-0.047743
-0.052034
-0.055974
-0.059609
-0.063431
-0.067546
-0.072002
-0.077220
-0.083543
-0.091217
-0.100381
-0.111041
-0.123070
-0.136030
-0.151240
0.318798
0.316111
0.308332
0.295013
0.275252
0.247734
0.210997
0.164044
0.107434
0.044132
-0.017725
-0.072585
-0.118805
-0.157018
-0.188657
-0.215095
-0.237150
-0.254828
-0.267609
-0.274463
-0.274702
-0.268189
-0.255481
-0.237676
-0.216124
-0.192189
-0.167075
-0.141756
-0.116954
-0.093164
-0.070691
-0.049702
-0.030261
-0.012363
0.004036
0.018864
0.031376
0.040890
0.046623
0.048157
0.045631
0.039724
0.031527
0.022373
0.013127
0.004438
-0.003669
-0.011288
-0.018387
-0.024660
-0.029552
-0.032500
-0.033211
-0.031763
-0.028495
-0.023867
-0.018409
-0.012610
-0.006966
-0.001778
0.002640
0.006126
0.008560
0.009927
0.010268
0.009809
0.008900
0.007938
0.007214
0.006860
0.006883
0.007139
0.007391
0.007355
0.006733
0.005234
0.002610
-0.001278
-0.006406
-0.012502
-0.018877
-0.025192
-0.031126
-0.036546
-0.041446
-0.045874
-0.049893
-0.053592
-0.057096
-0.060612
-0.064258
-0.068532
-0.073692
-0.080079
-0.087956
-0.097559
-0.108921
-0.121966
-0.136489
-0.155840
0.339205
0.336944
0.330227
0.318240
0.299474
0.271623
0.231718
0.176911
0.106532
0.023767
-0.052152
-0.113108
-0.159853
-0.195917
-0.224886
-0.249536
-0.271379
-0.290283
-0.304584
-0.312735
-0.313039
-0.304863
-0.288872
-0.266595
-0.239875
-0.210487
-0.179942
-0.149428
-0.119831
-0.091779
-0.065696
-0.041846
-0.020370
-0.001290
0.015495
0.030371
0.042549
0.051053
0.054700
0.053084
0.046585
0.036152
0.023180
0.009426
-0.003185
-0.012702
-0.020078
-0.025654
-0.029766
-0.032566
-0.033986
-0.033880
-0.032185
-0.029012
-0.024625
-0.019390
-0.013718
-0.008013
-0.002642
0.002108
0.005989
0.008808
0.010464
0.010874
0.010163
0.008616
0.006701
0.004969
0.003771
0.003174
0.003259
0.003853
0.004624
0.005166
0.005077
0.003999
0.001671
-0.002017
-0.007043
-0.012922
-0.019146
-0.025325
-0.030988
-0.036015
-0.040407
-0.044241
-0.047633
-0.050726
-0.053684
-0.056705
-0.060019
-0.063977
-0.068921
-0.075213
-0.083232
-0.093195
-0.105267
-0.119509
-0.135960
-0.160120
0.363782
0.362123
0.357036
0.347424
0.331154
0.304612
0.262319
0.197379
0.104667
-0.015074
-0.109979
-0.173120
-0.214501
-0.243333
-0.265994
-0.286888
-0.308420
-0.330390
-0.349121
-0.360544
-0.361938
-0.351857
-0.331442
-0.303147
-0.269667
-0.233387
-0.196196
-0.159509
-0.124349
-0.091437
-0.061273
-0.034199
-0.010438
0.009891
0.026833
0.040750
0.052639
0.060608
0.062562
0.058329
0.048748
0.035020
0.018545
0.000996
-0.015647
-0.029368
-0.036651
-0.040792
-0.042411
-0.042186
-0.040501
-0.037544
-0.033450
-0.028391
-0.022618
-0.016441
-0.010201
-0.004231
0.001171
0.005759
0.009319
0.011650
0.012573
0.011982
0.009980
0.006937
0.003447
0.000174
-0.002141
-0.003245
-0.003200
-0.002242
-0.000824
0.000524
0.001292
0.001038
-0.000561
-0.003661
-0.008206
-0.013834
-0.020154
-0.026213
-0.031698
-0.036380
-0.040238
-0.043369
-0.045946
-0.048178
-0.050298
-0.052557
-0.055233
-0.058658
-0.063205
-0.069270
-0.077244
-0.087423
-0.100030
-0.115239
-0.133297
-0.160861
0.391408
0.390615
0.387986
0.382329
0.371119
0.349461
0.308347
0.232733
0.102015
-0.093822
-0.205187
-0.254215
-0.278159
-0.292355
-0.303989
-0.318337
-0.338776
-0.365883
-0.395173
-0.414544
-0.419442
-0.407725
-0.381962
-0.346350
-0.304873
-0.260667
-0.216015
-0.172524
-0.131314
-0.093167
-0.058636
-0.028131
-0.001997
0.019422
0.035814
0.047170
0.055229
0.062974
0.063327
0.057052
0.046089
0.031891
0.015344
-0.002590
-0.020466
-0.036397
-0.048499
-0.052782
-0.053383
-0.051397
-0.047627
-0.042563
-0.036535
-0.029825
-0.022719
-0.015525
-0.008561
-0.002130
0.003500
0.008095
0.011425
0.013232
0.013251
0.011331
0.007618
0.002647
-0.002723
-0.007561
-0.011151
-0.012825
-0.012635
-0.011073
-0.008764
-0.006360
-0.004465
-0.003588
-0.004108
-0.006234
-0.009961
-0.015032
-0.020988
-0.027152
-0.032658
-0.037126
-0.040595
-0.043136
-0.044943
-0.046287
-0.047475
-0.048829
-0.050685
-0.053401
-0.057366
-0.062990
-0.070670
-0.080742
-0.093473
-0.109105
-0.127959
-0.156920
0.420471
0.420814
0.421519
0.421651
0.418970
0.408317
0.377750
0.299601
0.104502
-0.265573
-0.349664
-0.342609
-0.335655
-0.331066
-0.329206
-0.334897
-0.351993
-0.382344
-0.424262
-0.462964
-0.475463
-0.463573
-0.432886
-0.390285
-0.341292
-0.289748
-0.238234
-0.188493
-0.141732
-0.098812
-0.060378
-0.026962
0.000898
0.022537
0.037189
0.044770
0.047198
0.046189
0.044008
0.038447
0.030276
0.019975
0.007683
-0.006383
-0.021500
-0.036287
-0.048918
-0.057672
-0.059332
-0.057366
-0.053093
-0.047199
-0.040194
-0.032496
-0.024482
-0.016518
-0.008954
-0.002114
0.003714
0.008259
0.011226
0.012271
0.011054
0.007429
0.001667
-0.005428
-0.012671
-0.018859
-0.023171
-0.024902
-0.024175
-0.021692
-0.018236
-0.014568
-0.011366
-0.009182
-0.008429
-0.009354
-0.012005
-0.016198
-0.021520
-0.027353
-0.032996
-0.037539
-0.040803
-0.042980
-0.044227
-0.044842
-0.045194
-0.045672
-0.046670
-0.048583
-0.051819
-0.056788
-0.063887
-0.073462
-0.085794
-0.101123
-0.119731
-0.148120
0.448862
0.450496
0.455088
0.462376
0.471429
0.479250
0.476388
0.431413
0.203508
-0.589173
-0.518258
-0.394924
-0.365645
-0.351376
-0.341077
-0.341727
-0.356415
-0.385277
-0.428947
-0.479687
-0.510760
-0.501779
-0.469152
-0.422971
-0.370043
-0.314558
-0.259206
-0.205850
-0.155856
-0.110293
-0.070093
-0.036240
-0.009902
0.007836
0.016823
0.018544
0.015896
0.011314
0.007827
0.005421
0.002834
-0.000693
-0.005830
-0.013055
-0.022357
-0.033016
-0.043639
-0.052509
-0.058133
-0.057969
-0.054805
-0.049527
-0.042758
-0.035035
-0.026848
-0.018660
-0.010903
-0.003969
0.001783
0.006004
0.008309
0.008265
0.005499
-0.000061
-0.007919
-0.016950
-0.025660
-0.032672
-0.037135
-0.038324
-0.036639
-0.032923
-0.028091
-0.023004
-0.018392
-0.014834
-0.012751
-0.012401
-0.013865
-0.017018
-0.021509
-0.026781
-0.032144
-0.036884
-0.040196
-0.042243
-0.043183
-0.043313
-0.043030
-0.042772
-0.042980
-0.044082
-0.046497
-0.050635
-0.056878
-0.065557
-0.076929
-0.091182
-0.108498
-0.134591
0.474195
0.477038
0.485321
0.499632
0.520949
0.550507
0.589087
0.633350
0.717280
0.064054
-0.447835
-0.377412
-0.370836
-0.363413
-0.358182
-0.359344
-0.371199
-0.393844
-0.429152
-0.472362
-0.506547
-0.509432
-0.477794
-0.432688
-0.381204
-0.327104
-0.272883
-0.220478
-0.171503
-0.127403
-0.089636
-0.059782
-0.039296
-0.028700
-0.026629
-0.029799
-0.034433
-0.037784
-0.036992
-0.033492
-0.028954
-0.024706
-0.021865
-0.021331
-0.023615
-0.028614
-0.035492
-0.042825
-0.048985
-0.052608
-0.051645
-0.048145
-0.042728
-0.035979
-0.028472
-0.020769
-0.013404
-0.006870
-0.001621
0.001892
0.003185
0.001756
-0.002755
-0.010277
-0.020044
-0.030625
-0.040311
-0.047641
-0.051768
-0.051948
-0.048943
-0.043722
-0.037325
-0.030702
-0.024633
-0.019708
-0.016332
-0.014752
-0.015052
-0.017141
-0.020725
-0.025312
-0.030259
-0.034895
-0.038435
-0.040438
-0.041265
-0.041134
-0.040431
-0.039613
-0.039144
-0.039475
-0.041027
-0.044198
-0.049346
-0.056764
-0.066655
-0.079122
-0.094216
-0.116574
0.494238
0.497931
0.508800
0.527975
0.557616
0.601455
0.665957
0.761942
0.894960
0.915960
0.000000
-0.375426
-0.373441
-0.375212
-0.378185
-0.385022
-0.395710
-0.411271
-0.432710
-0.457629
-0.474986
-0.477016
-0.453631
-0.413180
-0.367625
-0.319815
-0.271775
-0.225408
-0.182523
-0.144933
-0.114566
-0.093310
-0.082225
-0.080331
-0.084213
-0.089337
-0.092003
-0.089259
-0.081417
-0.070463
-0.058255
-0.046357
-0.036049
-0.028356
-0.024006
-0.023280
-0.025841
-0.030675
-0.036301
-0.041184
-0.043660
-0.042516
-0.039192
-0.034200
-0.028122
-0.021586
-0.015216
-0.009605
-0.005311
-0.002891
-0.002924
-0.005960
-0.012307
-0.021707
-0.033134
-0.044917
-0.055213
-0.062532
-0.065884
-0.064737
-0.060150
-0.053231
-0.045146
-0.036934
-0.029419
-0.023189
-0.018625
-0.015936
-0.015188
-0.016295
-0.019003
-0.022868
-0.027295
-0.031611
-0.035170
-0.037302
-0.038150
-0.037911
-0.036950
-0.035716
-0.034678
-0.034286
-0.034956
-0.037062
-0.040925
-0.046782
-0.054759
-0.064853
-0.076973
-0.094414
0.507419
0.511430
0.523217
0.543903
0.575490
0.620893
0.683461
0.764563
0.857581
0.936960
0.844154
0.000000
-0.380253
-0.387065
-0.397859
-0.413406
-0.428606
-0.439431
-0.444023
-0.443112
-0.435071
-0.417632
-0.395360
-0.363465
-0.325333
-0.286479
-0.248061
-0.211827
-0.179681
-0.153709
-0.136070
-0.128275
-0.129785
-0.137213
-0.145423
-0.149886
-0.147060
-0.135575
-0.119417
-0.100514
-0.080813
-0.061966
-0.045271
-0.031703
-0.021949
-0.016393
-0.014985
-0.017094
-0.021502
-0.026642
-0.030978
-0.032849
-0.031910
-0.029117
-0.024959
-0.020082
-0.015171
-0.010899
-0.007923
-0.006902
-0.008503
-0.013299
-0.021516
-0.032705
-0.045606
-0.058370
-0.069067
-0.076227
-0.078309
-0.075693
-0.069403
-0.060725
-0.050955
-0.041211
-0.032348
-0.024946
-0.019350
-0.015722
-0.014091
-0.014360
-0.016291
-0.019481
-0.023374
-0.027333
-0.030757
-0.032933
-0.033791
-0.033492
-0.032349
-0.030781
-0.029238
-0.028157
-0.027932
-0.028905
-0.031344
-0.035418
-0.041158
-0.048443
-0.057026
-0.068609
0.513148
0.516943
0.528020
0.547132
0.575482
0.614596
0.665563
0.726489
0.783869
0.798187
0.751347
0.627270
0.000000
-0.402463
-0.417860
-0.454616
-0.480003
-0.486511
-0.468529
-0.434716
-0.394506
-0.354256
-0.317106
-0.283124
-0.253612
-0.224236
-0.196881
-0.173597
-0.156418
-0.147433
-0.148229
-0.158518
-0.174914
-0.191521
-0.202362
-0.203473
-0.191465
-0.171838
-0.147659
-0.121382
-0.095092
-0.070451
-0.048689
-0.030652
-0.016881
-0.007675
-0.003065
-0.002676
-0.005599
-0.010429
-0.015560
-0.019545
-0.021166
-0.020685
-0.018620
-0.015619
-0.012400
-0.009697
-0.008252
-0.008818
-0.012138
-0.018786
-0.028882
-0.041789
-0.056046
-0.069653
-0.080584
-0.087296
-0.088045
-0.083862
-0.075908
-0.065603
-0.054337
-0.043277
-0.033291
-0.024938
-0.018520
-0.014152
-0.011822
-0.011413
-0.012691
-0.015281
-0.018663
-0.022220
-0.025344
-0.027523
-0.028323
-0.027936
-0.026610
-0.024722
-0.022692
-0.020928
-0.019792
-0.019585
-0.020516
-0.022670
-0.025972
-0.030167
-0.034843
-0.039866
0.511824
0.515049
0.524382
0.540189
0.562911
0.592582
0.627789
0.663407
0.686009
0.669774
0.597426
0.503192
0.324820
0.000000
-0.467911
-0.517961
-0.546810
-0.543466
-0.497065
-0.428860
-0.355672
-0.288532
-0.233191
-0.190774
-0.161239
-0.139344
-0.122734
-0.114224
-0.115609
-0.128099
-0.151294
-0.181831
-0.213189
-0.237694
-0.249666
-0.243311
-0.222760
-0.195495
-0.164539
-0.132441
-0.101250
-0.072507
-0.047279
-0.026234
-0.009739
0.002047
0.009121
0.011707
0.010422
0.006375
0.001032
-0.004188
-0.007798
-0.009293
-0.009165
-0.007977
-0.006444
-0.005340
-0.005479
-0.007701
-0.012799
-0.021321
-0.033259
-0.047793
-0.063288
-0.077613
-0.088641
-0.094668
-0.093983
-0.088363
-0.079029
-0.067471
-0.055119
-0.043148
-0.032406
-0.023418
-0.016440
-0.011547
-0.008691
-0.007741
-0.008469
-0.010524
-0.013417
-0.016558
-0.019352
-0.021311
-0.021990
-0.021443
-0.019881
-0.017639
-0.015100
-0.012639
-0.010580
-0.009175
-0.008566
-0.008750
-0.009536
-0.010522
-0.011115
-0.009130
0.504502
0.506924
0.513841
0.525216
0.540751
0.559407
0.578489
0.592081
0.588918
0.551117
0.460493
0.306715
0.146448
-0.309836
-0.625413
-0.567913
-0.591139
-0.567029
-0.501198
-0.411468
-0.315995
-0.228858
-0.158082
-0.105554
-0.068141
-0.049739
-0.042414
-0.048641
-0.069618
-0.104317
-0.149218
-0.197719
-0.240901
-0.270084
-0.278796
-0.263506
-0.237259
-0.204782
-0.169530
-0.134091
-0.100364
-0.069670
-0.042850
-0.020367
-0.002414
0.010991
0.019911
0.024489
0.025081
0.022433
0.017730
0.012365
0.007570
0.004467
0.003010
0.002656
0.002695
0.002324
0.000671
-0.003168
-0.010004
-0.020322
-0.033967
-0.049945
-0.066473
-0.081326
-0.092396
-0.096964
-0.095240
-0.088642
-0.078489
-0.066297
-0.053479
-0.041168
-0.030160
-0.020925
-0.013681
-0.008469
-0.005227
-0.003825
-0.004051
-0.005585
-0.007971
-0.010651
-0.013046
-0.014668
-0.015105
-0.014298
-0.012420
-0.009765
-0.006682
-0.003506
-0.000524
0.002063
0.004180
0.005923
0.007603
0.009780
0.013245
0.022404
0.492659
0.494183
0.498449
0.505132
0.513470
0.521861
0.527199
0.523911
0.502854
0.450422
0.348436
0.171376
-0.135212
-0.766120
-0.682913
-0.582511
-0.562292
-0.524364
-0.455438
-0.366068
-0.270463
-0.181096
-0.106118
-0.048379
-0.006876
0.017835
0.020922
0.003320
-0.033913
-0.085964
-0.146134
-0.205582
-0.254229
-0.283077
-0.281646
-0.263075
-0.234168
-0.199840
-0.163581
-0.127831
-0.094244
-0.063882
-0.037366
-0.014987
0.003199
0.017280
0.027401
0.033700
0.036355
0.035759
0.032678
0.028204
0.023445
0.019536
0.017090
0.015620
0.014471
0.012847
0.009841
0.004524
-0.003890
-0.015783
-0.030848
-0.047933
-0.065136
-0.080128
-0.090572
-0.093927
-0.091678
-0.084773
-0.074574
-0.062550
-0.050026
-0.038042
-0.027309
-0.018237
-0.011006
-0.005648
-0.002106
-0.000274
0.000023
-0.000934
-0.002736
-0.004859
-0.006748
-0.007925
-0.007992
-0.006820
-0.004544
-0.001423
0.002234
0.006125
0.010001
0.013710
0.017238
0.020765
0.024725
0.029839
0.037116
0.053307
0.477956
0.478614
0.480362
0.482725
0.484738
0.484654
0.479503
0.464550
0.432724
0.374104
0.275297
0.118176
-0.121440
-0.430096
-0.501633
-0.494781
-0.474286
-0.438528
-0.382342
-0.310368
-0.231744
-0.155520
-0.088273
-0.033367
0.007757
0.038145
0.045094
0.022655
-0.021746
-0.080212
-0.144282
-0.204196
-0.250006
-0.268597
-0.263072
-0.243699
-0.215650
-0.183162
-0.149317
-0.116220
-0.085236
-0.057199
-0.032567
-0.011538
0.005879
0.019803
0.030426
0.037933
0.042469
0.044214
0.043549
0.041121
0.037668
0.034283
0.031686
0.029654
0.027713
0.025136
0.021035
0.014505
0.004832
-0.008239
-0.024258
-0.041959
-0.059386
-0.074241
-0.083422
-0.086216
-0.083992
-0.077572
-0.068205
-0.057216
-0.045769
-0.034762
-0.024802
-0.016238
-0.009232
-0.003828
-0.000006
0.002294
0.003196
0.002925
0.001843
0.000422
-0.000816
-0.001415
-0.000983
0.000651
0.003387
0.007007
0.011239
0.015814
0.020519
0.025237
0.030007
0.035080
0.040991
0.048618
0.059201
0.081927
0.461996
0.461895
0.461464
0.460198
0.457128
0.450627
0.438162
0.416023
0.379121
0.320961
0.233917
0.110516
-0.051039
-0.228981
-0.325652
-0.361917
-0.364699
-0.344246
-0.306828
-0.256152
-0.198420
-0.140015
-0.086051
-0.039811
-0.002314
0.023940
0.028046
0.008343
-0.031155
-0.083411
-0.139544
-0.189494
-0.222894
-0.232972
-0.227494
-0.210759
-0.186912
-0.159353
-0.130596
-0.102357
-0.075736
-0.051390
-0.029683
-0.010786
0.005262
0.018521
0.029131
0.037275
0.043128
0.046846
0.048619
0.048750
0.047694
0.046476
0.044722
0.042839
0.040648
0.037563
0.032777
0.025471
0.015044
0.001376
-0.014970
-0.032670
-0.049748
-0.063685
-0.071767
-0.074941
-0.073566
-0.068495
-0.060824
-0.051657
-0.041946
-0.032417
-0.023569
-0.015709
-0.009010
-0.003561
0.000592
0.003446
0.005057
0.005599
0.005377
0.004815
0.004385
0.004513
0.005576
0.007748
0.010978
0.015095
0.019867
0.025060
0.030486
0.036057
0.041838
0.048123
0.055515
0.065010
0.078076
0.106336
0.446188
0.445459
0.443257
0.439128
0.432225
0.421191
0.404030
0.378034
0.339798
0.285477
0.211458
0.115917
0.002418
-0.114492
-0.198704
-0.246360
-0.265004
-0.261403
-0.241127
-0.208951
-0.169506
-0.127480
-0.086889
-0.050704
-0.020670
-0.002124
0.000367
-0.014527
-0.044393
-0.083865
-0.125491
-0.160772
-0.181473
-0.189157
-0.185435
-0.173087
-0.155037
-0.133810
-0.111339
-0.088967
-0.067547
-0.047571
-0.029305
-0.012894
0.001574
0.014057
0.024571
0.033196
0.040055
0.045271
0.048943
0.051577
0.053648
0.054377
0.054141
0.053189
0.051436
0.048443
0.043547
0.036072
0.025563
0.012013
-0.003953
-0.021019
-0.037215
-0.049631
-0.058014
-0.062134
-0.062350
-0.059384
-0.054093
-0.047299
-0.039708
-0.031877
-0.024220
-0.017041
-0.010564
-0.004963
-0.000374
0.003135
0.005541
0.006978
0.007708
0.008100
0.008578
0.009566
0.011340
0.014084
0.017804
0.022378
0.027622
0.033333
0.039345
0.045577
0.052096
0.059191
0.067469
0.077966
0.092289
0.124200
0.431697
0.430460
0.426851
0.420539
0.410866
0.396790
0.376844
0.349162
0.311608
0.262105
0.199269
0.123513
0.038789
-0.045726
-0.114530
-0.161496
-0.187279
-0.194867
-0.187886
-0.169902
-0.144738
-0.115995
-0.086905
-0.060079
-0.038305
-0.024962
-0.022663
-0.032225
-0.052066
-0.078392
-0.105834
-0.128516
-0.142874
-0.148703
-0.146639
-0.138308
-0.125641
-0.110423
-0.094075
-0.077582
-0.061518
-0.046141
-0.031529
-0.017716
-0.004795
0.007069
0.017701
0.026995
0.034939
0.041569
0.047321
0.052072
0.055707
0.058178
0.059596
0.059996
0.059216
0.056882
0.052482
0.045506
0.035635
0.022931
0.008013
-0.007980
-0.022772
-0.035174
-0.044352
-0.050010
-0.052396
-0.052027
-0.049455
-0.045195
-0.039713
-0.033435
-0.026738
-0.019978
-0.013475
-0.007534
-0.002414
0.001834
0.005052
0.007386
0.009067
0.010432
0.011843
0.013619
0.016046
0.019311
0.023455
0.028404
0.034020
0.040131
0.046581
0.053278
0.060253
0.067732
0.076232
0.086683
0.100627
0.132645
0.419470
0.417790
0.413025
0.405029
0.393371
0.377312
0.355830
0.327699
0.291659
0.246707
0.192570
0.130370
0.063399
-0.002468
-0.059388
-0.102559
-0.130692
-0.144680
-0.146574
-0.138772
-0.124156
-0.105547
-0.085577
-0.066593
-0.051033
-0.041116
-0.038477
-0.043589
-0.055416
-0.071487
-0.088360
-0.102811
-0.112349
-0.116312
-0.115000
-0.109406
-0.100829
-0.090538
-0.079553
-0.068526
-0.057711
-0.047024
-0.036197
-0.025001
-0.013451
-0.001859
0.009303
0.019629
0.028935
0.037308
0.044579
0.050756
0.055840
0.059812
0.062677
0.064372
0.064700
0.063337
0.059884
0.053968
0.045341
0.034029
0.020499
0.005649
-0.009104
-0.022304
-0.032933
-0.040561
-0.045335
-0.047604
-0.047616
-0.045569
-0.041742
-0.036515
-0.030275
-0.023539
-0.016688
-0.010146
-0.004344
0.000553
0.004585
0.007745
0.010220
0.012313
0.014374
0.016720
0.019612
0.023228
0.027637
0.032814
0.038672
0.045063
0.051823
0.058818
0.066004
0.073478
0.081565
0.090896
0.102668
0.129011
0.410330
0.408158
0.402291
0.392884
0.379741
0.362371
0.340078
0.312086
0.277696
0.236519
0.188798
0.135784
0.080061
0.025558
-0.023096
-0.062440
-0.090849
-0.108268
-0.115738
-0.114905
-0.107786
-0.096581
-0.083426
-0.070313
-0.059128
-0.051476
-0.048459
-0.050394
-0.056640
-0.065667
-0.075481
-0.084032
-0.089571
-0.091569
-0.090204
-0.086179
-0.080459
-0.074006
-0.067558
-0.061485
-0.055716
-0.049759
-0.042842
-0.034247
-0.023763
-0.011913
0.000333
0.012183
0.023135
0.032998
0.041715
0.049291
0.055734
0.061029
0.065136
0.067958
0.069327
0.069010
0.066732
0.062218
0.055183
0.045315
0.032464
0.017677
0.002005
-0.012899
-0.025483
-0.035043
-0.041798
-0.046153
-0.048107
-0.047496
-0.044498
-0.039679
-0.033250
-0.026054
-0.018942
-0.012069
-0.005670
-0.000125
0.004507
0.008275
0.011348
0.013981
0.016477
0.019119
0.022166
0.025827
0.030231
0.035420
0.041377
0.047963
0.054965
0.062166
0.069408
0.076593
0.083815
0.091173
0.099330
0.114919
0.405200
0.402160
0.394927
0.384141
0.369779
0.351479
0.328741
0.301067
0.268097
0.229777
0.186568
0.139663
0.091107
0.043704
0.000558
-0.035769
-0.063744
-0.082926
-0.093832
-0.097571
-0.095577
-0.089558
-0.081232
-0.072216
-0.063992
-0.057796
-0.054441
-0.054200
-0.056703
-0.061037
-0.066095
-0.070285
-0.072660
-0.072861
-0.071075
-0.067902
-0.064148
-0.060594
-0.057788
-0.055894
-0.054604
-0.053097
-0.050061
-0.044036
-0.034244
-0.021436
-0.007799
0.005620
0.018267
0.029734
0.039904
0.048792
0.056432
0.062825
0.067923
0.071627
0.073828
0.074449
0.073327
0.070319
0.064290
0.055096
0.042697
0.027134
0.009481
-0.007969
-0.022690
-0.033501
-0.040994
-0.046198
-0.049150
-0.049126
-0.045763
-0.040615
-0.034510
-0.027425
-0.019859
-0.012544
-0.005825
0.000061
0.005057
0.009230
0.012707
0.015662
0.018355
0.020988
0.023832
0.027175
0.031271
0.036226
0.042189
0.048979
0.056259
0.063674
0.070968
0.077754
0.083661
0.088909
0.093628
0.098684
0.405718
0.400246
0.390899
0.378593
0.363159
0.344156
0.321125
0.293725
0.261778
0.225401
0.185137
0.142082
0.097923
0.054831
0.015137
-0.019133
-0.046594
-0.066598
-0.079600
-0.086177
-0.087453
-0.084797
-0.079617
-0.073260
-0.066913
-0.061544
-0.057831
-0.056073
-0.056169
-0.057628
-0.059485
-0.060870
-0.061161
-0.060142
-0.058024
-0.055349
-0.052818
-0.051090
-0.050584
-0.051339
-0.052951
-0.054551
-0.054685
-0.051164
-0.041690
-0.028659
-0.013735
0.001458
0.015721
0.028560
0.039873
0.049721
0.058181
0.065274
0.070948
0.075095
0.077655
0.078849
0.078424
0.075475
0.070200
0.061835
0.049637
0.033235
0.013567
-0.006496
-0.023195
-0.034449
-0.041113
-0.045216
-0.047546
-0.047844
-0.045589
-0.040600
-0.034058
-0.026786
-0.019255
-0.011960
-0.005246
0.000684
0.005783
0.010168
0.013904
0.017010
0.019650
0.022130
0.024716
0.027632
0.031124
0.035630
0.041601
0.048686
0.056312
0.063917
0.070954
0.077196
0.082492
0.086651
0.089486
0.089324
0.416350
0.402047
0.389611
0.375965
0.359748
0.340250
0.317036
0.289793
0.258416
0.223079
0.184339
0.143217
0.101212
0.060201
0.022177
-0.011094
-0.038397
-0.059187
-0.073092
-0.080857
-0.083524
-0.082319
-0.078523
-0.073359
-0.067912
-0.063061
-0.059436
-0.057333
-0.056682
-0.057057
-0.057770
-0.058128
-0.057632
-0.056125
-0.053814
-0.051201
-0.048925
-0.047580
-0.047526
-0.048752
-0.050807
-0.052800
-0.053385
-0.050843
-0.044006
-0.031207
-0.015301
0.000838
0.015846
0.029244
0.040972
0.051124
0.059796
0.067019
0.072736
0.076818
0.079137
0.079529
0.078302
0.075392
0.070218
0.062104
0.050376
0.034706
0.015824
-0.003884
-0.020991
-0.033117
-0.040396
-0.044477
-0.046595
-0.046500
-0.044100
-0.039410
-0.033125
-0.026029
-0.018682
-0.011545
-0.004954
0.000892
0.005930
0.010177
0.013814
0.016991
0.019781
0.022384
0.025047
0.028018
0.031550
0.035931
0.041329
0.048226
0.055967
0.063662
0.070699
0.076763
0.081685
0.085321
0.087633
0.088391
