# vtk DataFile Version 3.0
Scalar Field
ASCII
DATASET RECTILINEAR_GRID
DIMENSIONS 100 26 1
X_COORDINATES 100 double
0.050000 0.150000 0.250000 0.350000 0.450000 0.550000 0.650000 0.750000 0.850000 0.950000 1.050000 1.150000 1.250000 1.350000 1.450000 1.550000 1.650000 1.750000 1.850000 1.950000 2.050000 2.150000 2.250000 2.350000 2.450000 2.550000 2.650000 2.750000 2.850000 2.950000 3.050000 3.150000 3.250000 3.350000 3.450000 3.550000 3.650000 3.750000 3.850000 3.950000 4.050000 4.150000 4.250000 4.350000 4.450000 4.550000 4.650000 4.750000 4.850000 4.950000 5.050000 5.150000 5.250000 5.350000 5.450000 5.550000 5.650000 5.750000 5.850000 5.950000 6.050000 6.150000 6.250000 6.350000 6.450000 6.550000 6.650000 6.750000 6.850000 6.950000 7.050000 7.150000 7.250000 7.350000 7.450000 7.550000 7.650000 7.750000 7.850000 7.950000 8.050000 8.150000 8.250000 8.350000 8.450000 8.550000 8.650000 8.750000 8.850000 8.950000 9.050000 9.150000 9.250000 9.350000 9.450000 9.550000 9.650000 9.750000 9.850000 9.950000 
Y_COORDINATES 26 double
0.050000 0.150000 0.250000 0.350000 0.450000 0.550000 0.650000 0.750000 0.850000 0.950000 1.050000 1.150000 1.250000 1.350000 1.450000 1.550000 1.650000 1.750000 1.850000 1.950000 2.050000 2.150000 2.250000 2.350000 2.450000 2.550000 
Z_COORDINATES 1 double
0.0
POINT_DATA 2600
SCALARS Skalarfeld double 1
LOOKUP_TABLE default
0.300596
0.285555
0.271034
0.253991
0.233310
0.208522
0.179552
0.146699
0.110675
0.072616
0.033979
-0.003695
-0.039053
-0.071101
-0.099264
-0.123347
-0.143462
-0.159577
-0.171736
-0.180111
-0.184798
-0.185883
-0.183519
-0.177999
-0.169795
-0.159541
-0.147977
-0.135850
-0.123814
-0.112338
-0.101649
-0.091710
-0.082253
-0.072845
-0.062997
-0.052260
-0.040307
-0.026837
-0.010869
0.005521
0.020907
0.034395
0.045408
0.053593
0.058829
0.060991
0.060847
0.058444
0.053516
0.045860
0.035362
0.022178
0.007076
-0.008236
-0.021335
-0.030213
-0.034543
-0.035620
-0.034213
-0.031438
-0.027326
-0.022262
-0.016877
-0.011644
-0.006912
-0.002913
0.000211
0.002380
0.003473
0.003708
0.002990
0.001495
-0.000527
-0.002756
-0.004849
-0.006511
-0.007599
-0.008209
-0.008686
-0.009539
-0.011292
-0.014327
-0.018778
-0.024495
-0.031108
-0.038160
-0.045255
-0.052160
-0.058814
-0.065250
-0.071449
-0.077272
-0.082709
-0.087797
-0.092627
-0.097331
-0.102055
-0.106912
-0.111918
-0.117163
0.291328
0.285096
0.273560
0.257721
0.237437
0.212491
0.182843
0.148800
0.111156
0.071253
0.030866
-0.008189
-0.044428
-0.076874
-0.105049
-0.128861
-0.148397
-0.164010
-0.176052
-0.184481
-0.189324
-0.190590
-0.188351
-0.182831
-0.174468
-0.163899
-0.151889
-0.139224
-0.126600
-0.114521
-0.103244
-0.092752
-0.082787
-0.072924
-0.062673
-0.051520
-0.038762
-0.024092
-0.008544
0.007021
0.021636
0.034550
0.045193
0.053188
0.058463
0.061417
0.061338
0.058780
0.053638
0.045721
0.034875
0.021210
0.005549
-0.010171
-0.023255
-0.031684
-0.035403
-0.035837
-0.034835
-0.032369
-0.028120
-0.022834
-0.017304
-0.011940
-0.007090
-0.002987
0.000226
0.002500
0.003906
0.004160
0.003274
0.001643
-0.000498
-0.002810
-0.004921
-0.006512
-0.007435
-0.007803
-0.008011
-0.008620
-0.010213
-0.013218
-0.017792
-0.023751
-0.030650
-0.037948
-0.045193
-0.052153
-0.058815
-0.065290
-0.071368
-0.077162
-0.082679
-0.087845
-0.092768
-0.097574
-0.102404
-0.107343
-0.112333
-0.117448
0.293578
0.289710
0.280094
0.265330
0.245376
0.219974
0.188953
0.152528
0.111589
0.067874
0.023902
-0.017889
-0.055766
-0.088832
-0.116870
-0.140117
-0.159038
-0.174184
-0.185966
-0.194724
-0.200167
-0.202104
-0.200381
-0.195040
-0.186411
-0.175109
-0.161937
-0.147753
-0.133337
-0.119280
-0.105925
-0.093347
-0.081382
-0.069691
-0.057849
-0.045405
-0.031954
-0.017333
-0.002819
0.011306
0.024442
0.035992
0.045413
0.052314
0.056561
0.058306
0.057818
0.054162
0.048241
0.040019
0.029438
0.016713
0.002692
-0.010981
-0.022330
-0.030082
-0.034289
-0.035741
-0.034952
-0.031789
-0.027332
-0.022440
-0.017211
-0.011972
-0.007216
-0.003186
-0.000067
0.002049
0.003143
0.003211
0.002452
0.000925
-0.000984
-0.002904
-0.004526
-0.005640
-0.006200
-0.006375
-0.006579
-0.007287
-0.009011
-0.012125
-0.016793
-0.022822
-0.029757
-0.037070
-0.044325
-0.051315
-0.058010
-0.064388
-0.070639
-0.076688
-0.082456
-0.087778
-0.092958
-0.098094
-0.103337
-0.108744
-0.114126
-0.118752
0.303001
0.299916
0.291381
0.277412
0.257639
0.231454
0.198288
0.158042
0.111639
0.061436
0.011573
-0.034348
-0.074338
-0.107822
-0.135124
-0.157057
-0.174620
-0.188775
-0.200214
-0.209249
-0.215658
-0.218707
-0.217854
-0.212819
-0.203772
-0.191320
-0.176354
-0.159860
-0.142746
-0.125732
-0.109291
-0.093635
-0.078758
-0.064487
-0.050570
-0.036749
-0.022842
-0.008837
0.004817
0.017691
0.029381
0.039355
0.047059
0.052089
0.054319
0.053905
0.051171
0.046456
0.039281
0.030637
0.020620
0.009496
-0.002054
-0.012924
-0.021915
-0.028264
-0.031882
-0.033054
-0.032084
-0.029294
-0.025278
-0.020394
-0.015262
-0.010464
-0.006159
-0.002497
0.000235
0.001930
0.002555
0.002192
0.001076
-0.000503
-0.002177
-0.003646
-0.004721
-0.005334
-0.005547
-0.005558
-0.005656
-0.006294
-0.007925
-0.010936
-0.015459
-0.021270
-0.027949
-0.035105
-0.042337
-0.049442
-0.056346
-0.063026
-0.069470
-0.075550
-0.081259
-0.086962
-0.092735
-0.098482
-0.104517
-0.110988
-0.117792
-0.124878
0.318117
0.315447
0.307750
0.294599
0.275128
0.248078
0.212068
0.166202
0.111150
0.050053
-0.009029
-0.060494
-0.102502
-0.135451
-0.160703
-0.179962
-0.194991
-0.207380
-0.218242
-0.227873
-0.235841
-0.240728
-0.241258
-0.236620
-0.226807
-0.212528
-0.194916
-0.175213
-0.154549
-0.133817
-0.113641
-0.094382
-0.076192
-0.059072
-0.042942
-0.027697
-0.013248
0.000444
0.013351
0.025358
0.035898
0.044400
0.050223
0.052965
0.052593
0.049368
0.043759
0.036376
0.027962
0.018701
0.009213
-0.000293
-0.009354
-0.017359
-0.023688
-0.027940
-0.030048
-0.030165
-0.028547
-0.025526
-0.021519
-0.016939
-0.012236
-0.007745
-0.003753
-0.000586
0.001593
0.002720
0.002718
0.001715
0.000023
-0.001942
-0.003761
-0.005135
-0.005960
-0.006233
-0.006091
-0.005789
-0.005663
-0.006119
-0.007551
-0.010253
-0.014339
-0.019786
-0.026244
-0.033309
-0.040458
-0.047514
-0.054370
-0.060991
-0.067370
-0.073510
-0.079487
-0.085442
-0.091410
-0.097883
-0.105080
-0.113226
-0.122536
-0.136123
0.338145
0.335895
0.329243
0.317399
0.298896
0.271496
0.232332
0.178681
0.109999
0.029763
-0.043270
-0.100868
-0.143255
-0.173289
-0.194038
-0.208382
-0.219042
-0.228488
-0.238550
-0.249747
-0.260694
-0.268946
-0.271952
-0.267991
-0.256925
-0.239842
-0.218410
-0.194351
-0.169141
-0.143903
-0.119414
-0.096160
-0.074411
-0.054292
-0.035838
-0.019038
-0.003848
0.009807
0.022041
0.033311
0.042976
0.050259
0.054342
0.054861
0.051991
0.046134
0.037803
0.027645
0.016496
0.005498
-0.003768
-0.012099
-0.019029
-0.024412
-0.028084
-0.029959
-0.030091
-0.028655
-0.025905
-0.022155
-0.017758
-0.013078
-0.008463
-0.004217
-0.000614
0.002090
0.003759
0.004183
0.003388
0.001539
-0.001012
-0.003784
-0.006243
-0.007896
-0.008851
-0.009034
-0.008610
-0.007898
-0.007307
-0.007278
-0.008224
-0.010456
-0.014120
-0.019162
-0.025355
-0.032182
-0.039236
-0.046176
-0.052816
-0.059132
-0.065172
-0.071027
-0.076840
-0.082802
-0.089144
-0.096243
-0.104466
-0.114350
-0.126508
-0.147662
0.362296
0.360640
0.355599
0.346102
0.330069
0.303979
0.262494
0.198905
0.108272
-0.008271
-0.100554
-0.161131
-0.198803
-0.221396
-0.233916
-0.240213
-0.243873
-0.248460
-0.257064
-0.271053
-0.288402
-0.303045
-0.310643
-0.308011
-0.295130
-0.274027
-0.247390
-0.217703
-0.186912
-0.156395
-0.127061
-0.099471
-0.073953
-0.050687
-0.029770
-0.011249
0.004861
0.018584
0.030026
0.039418
0.048161
0.054345
0.056886
0.055455
0.050689
0.043236
0.033554
0.022045
0.009318
-0.003638
-0.015643
-0.023704
-0.029439
-0.032943
-0.034442
-0.034151
-0.032306
-0.029174
-0.025052
-0.020264
-0.015142
-0.010015
-0.005184
-0.000916
0.002551
0.004988
0.006176
0.005918
0.004179
0.001162
-0.002673
-0.006698
-0.010287
-0.012973
-0.014331
-0.014501
-0.013731
-0.012449
-0.011157
-0.010363
-0.010520
-0.011977
-0.014926
-0.019364
-0.025082
-0.031654
-0.038635
-0.045413
-0.051804
-0.057731
-0.063277
-0.068603
-0.073940
-0.079575
-0.085855
-0.093214
-0.102177
-0.113427
-0.127849
-0.154572
0.389460
0.388661
0.386054
0.380479
0.369476
0.348282
0.308111
0.234263
0.106634
-0.084771
-0.195119
-0.244040
-0.266483
-0.275763
-0.276342
-0.271663
-0.265501
-0.262432
-0.267411
-0.283865
-0.310867
-0.338928
-0.354614
-0.354520
-0.339414
-0.313252
-0.280356
-0.244221
-0.207298
-0.171174
-0.136826
-0.104835
-0.075536
-0.049121
-0.025707
-0.005393
0.011695
0.025367
0.035498
0.042333
0.046539
0.050491
0.051497
0.048219
0.042616
0.035506
0.026902
0.016638
0.004812
-0.007969
-0.020560
-0.031460
-0.037715
-0.040609
-0.040993
-0.039318
-0.036013
-0.031479
-0.026100
-0.020252
-0.014292
-0.008550
-0.003319
0.001143
0.004598
0.006789
0.007442
0.006322
0.003377
-0.001128
-0.006588
-0.012175
-0.017065
-0.020686
-0.022496
-0.022517
-0.021210
-0.019147
-0.016936
-0.015150
-0.014287
-0.014728
-0.016705
-0.020266
-0.025260
-0.031337
-0.038021
-0.044782
-0.050977
-0.056521
-0.061561
-0.066277
-0.070963
-0.075999
-0.081833
-0.088992
-0.098100
-0.109925
-0.125445
-0.154546
0.418040
0.418368
0.419067
0.419235
0.416712
0.406509
0.377037
0.301301
0.111575
-0.251222
-0.339585
-0.336955
-0.332025
-0.326086
-0.314770
-0.299441
-0.282962
-0.270214
-0.268241
-0.283150
-0.316471
-0.360685
-0.393144
-0.397780
-0.381013
-0.350096
-0.311485
-0.269698
-0.227552
-0.186719
-0.148179
-0.112506
-0.080046
-0.051012
-0.025566
-0.003892
0.013668
0.026509
0.034009
0.036487
0.035728
0.033208
0.030378
0.027169
0.023596
0.019580
0.014639
0.008168
-0.000204
-0.010330
-0.021412
-0.032086
-0.040763
-0.044957
-0.045504
-0.043590
-0.039764
-0.034537
-0.028396
-0.021804
-0.015183
-0.008913
-0.003321
0.001303
0.004681
0.006506
0.006447
0.004236
-0.000153
-0.006345
-0.013530
-0.020634
-0.026631
-0.030844
-0.032695
-0.032268
-0.030174
-0.027121
-0.023811
-0.020880
-0.018858
-0.018148
-0.019003
-0.021514
-0.025580
-0.030914
-0.037069
-0.043499
-0.049677
-0.054965
-0.059560
-0.063688
-0.067671
-0.071944
-0.077032
-0.083529
-0.092108
-0.103551
-0.118790
-0.147291
0.445950
0.447559
0.452109
0.459369
0.468488
0.476652
0.474844
0.432666
0.212690
-0.563753
-0.509368
-0.394903
-0.369389
-0.358081
-0.341884
-0.322533
-0.301990
-0.283867
-0.276873
-0.286581
-0.316298
-0.361123
-0.405048
-0.422317
-0.405694
-0.372391
-0.331020
-0.286736
-0.242381
-0.199529
-0.159118
-0.121754
-0.087869
-0.057819
-0.031981
-0.010915
0.004506
0.013341
0.015431
0.012272
0.006732
0.001244
-0.002449
-0.003425
-0.003015
-0.002200
-0.001937
-0.003145
-0.006526
-0.012334
-0.020194
-0.029073
-0.037493
-0.043944
-0.046247
-0.045187
-0.041906
-0.036907
-0.030754
-0.024001
-0.017163
-0.010698
-0.005007
-0.000446
0.002642
0.003884
0.002902
-0.000578
-0.006512
-0.014360
-0.023082
-0.031382
-0.038094
-0.042495
-0.043951
-0.042752
-0.039624
-0.035388
-0.030838
-0.026664
-0.023420
-0.021512
-0.021202
-0.022596
-0.025634
-0.030077
-0.035521
-0.041437
-0.047268
-0.052540
-0.056748
-0.060343
-0.063631
-0.067059
-0.071182
-0.076623
-0.084059
-0.094231
-0.107953
-0.133540
0.470827
0.473635
0.481839
0.496044
0.517281
0.546921
0.586050
0.631985
0.719592
0.077920
-0.444801
-0.380234
-0.374467
-0.369742
-0.361100
-0.345301
-0.328377
-0.314393
-0.306105
-0.309712
-0.328205
-0.359860
-0.393507
-0.412679
-0.403847
-0.370993
-0.330684
-0.288173
-0.245819
-0.204845
-0.166077
-0.130185
-0.097781
-0.069502
-0.046133
-0.028729
-0.018469
-0.015909
-0.019934
-0.027514
-0.035003
-0.039923
-0.040270
-0.036844
-0.031280
-0.024968
-0.019124
-0.014813
-0.012890
-0.013864
-0.017724
-0.023820
-0.030927
-0.037526
-0.042183
-0.043021
-0.041188
-0.037277
-0.031896
-0.025665
-0.019183
-0.013002
-0.007609
-0.003443
-0.000929
-0.000504
-0.002585
-0.007422
-0.014864
-0.024187
-0.034143
-0.043277
-0.050337
-0.054581
-0.055295
-0.053045
-0.048663
-0.043082
-0.037184
-0.031711
-0.027233
-0.024151
-0.022710
-0.023014
-0.025019
-0.028523
-0.033161
-0.038434
-0.043792
-0.048746
-0.052752
-0.055835
-0.058443
-0.060983
-0.063992
-0.068081
-0.073893
-0.082093
-0.093362
-0.114469
0.490464
0.494118
0.504876
0.523872
0.553273
0.596854
0.661163
0.757100
0.888664
0.909716
0.000000
-0.376720
-0.373207
-0.374100
-0.373810
-0.371820
-0.368009
-0.362177
-0.357368
-0.355610
-0.359077
-0.366899
-0.376401
-0.378027
-0.368569
-0.343183
-0.306931
-0.269699
-0.233120
-0.197825
-0.164404
-0.133549
-0.106056
-0.082878
-0.065228
-0.054513
-0.051730
-0.056314
-0.065469
-0.075089
-0.081692
-0.082414
-0.077154
-0.067974
-0.056629
-0.044700
-0.033511
-0.024141
-0.017434
-0.013961
-0.013919
-0.016978
-0.022227
-0.028308
-0.033754
-0.037160
-0.037110
-0.034836
-0.030836
-0.025721
-0.020140
-0.014721
-0.010033
-0.006603
-0.004935
-0.005532
-0.008836
-0.015051
-0.023906
-0.034503
-0.045435
-0.055137
-0.062295
-0.066095
-0.065812
-0.062306
-0.056517
-0.049489
-0.042191
-0.035417
-0.029746
-0.025562
-0.023082
-0.022388
-0.023433
-0.026030
-0.029845
-0.034409
-0.039176
-0.043622
-0.047333
-0.049947
-0.051884
-0.053502
-0.055296
-0.057829
-0.061686
-0.067440
-0.075639
-0.091347
0.503312
0.507282
0.518946
0.539416
0.570649
0.615522
0.677302
0.757775
0.851023
0.930767
0.835724
0.000000
-0.376509
-0.379812
-0.388551
-0.401738
-0.416395
-0.429038
-0.433389
-0.424323
-0.405730
-0.383201
-0.360343
-0.336555
-0.313840
-0.288717
-0.260292
-0.229814
-0.201201
-0.174186
-0.148966
-0.126168
-0.106724
-0.091898
-0.083263
-0.082223
-0.088848
-0.100816
-0.113815
-0.123382
-0.126427
-0.120759
-0.109093
-0.093649
-0.076434
-0.059150
-0.043155
-0.029472
-0.018839
-0.011747
-0.008426
-0.008734
-0.012037
-0.017203
-0.022813
-0.027517
-0.029754
-0.029343
-0.027064
-0.023448
-0.019153
-0.014851
-0.011182
-0.008749
-0.008134
-0.009899
-0.014501
-0.022088
-0.032264
-0.043990
-0.055735
-0.065857
-0.073021
-0.075964
-0.074582
-0.069735
-0.062499
-0.054034
-0.045389
-0.037395
-0.030637
-0.025475
-0.022090
-0.020531
-0.020730
-0.022506
-0.025540
-0.029387
-0.033515
-0.037395
-0.040614
-0.042718
-0.043949
-0.044604
-0.045112
-0.045966
-0.047672
-0.050707
-0.055498
-0.065379
0.508789
0.512549
0.523515
0.542449
0.570624
0.609550
0.660272
0.720401
0.775704
0.789530
0.740681
0.617385
0.000000
-0.393098
-0.406383
-0.439420
-0.476637
-0.509599
-0.524621
-0.503477
-0.458575
-0.402750
-0.346013
-0.294684
-0.251893
-0.218825
-0.191251
-0.168837
-0.148648
-0.130933
-0.115439
-0.102797
-0.094123
-0.090957
-0.094909
-0.106591
-0.124273
-0.143662
-0.159504
-0.167863
-0.164993
-0.152063
-0.133690
-0.112170
-0.089591
-0.067665
-0.047692
-0.030587
-0.016947
-0.007126
-0.001280
0.000666
-0.000853
-0.004943
-0.010326
-0.015598
-0.019532
-0.021031
-0.020541
-0.018549
-0.015696
-0.012679
-0.010187
-0.008887
-0.009435
-0.012445
-0.018374
-0.027304
-0.038727
-0.051476
-0.063917
-0.074332
-0.081340
-0.083274
-0.080737
-0.074593
-0.066032
-0.056301
-0.046501
-0.037486
-0.029834
-0.023875
-0.019752
-0.017478
-0.016963
-0.018020
-0.020342
-0.023498
-0.026968
-0.030217
-0.032799
-0.034362
-0.034815
-0.034458
-0.033632
-0.032747
-0.032219
-0.032426
-0.033684
-0.037645
0.507294
0.510504
0.519777
0.535476
0.558004
0.587373
0.622141
0.656940
0.678324
0.661176
0.587949
0.494088
0.318277
0.000000
-0.454236
-0.502089
-0.541654
-0.589896
-0.603078
-0.564788
-0.495445
-0.411729
-0.326812
-0.250291
-0.188604
-0.143468
-0.111185
-0.090343
-0.078041
-0.069255
-0.063803
-0.062711
-0.067286
-0.078985
-0.098648
-0.125131
-0.154457
-0.180680
-0.198099
-0.203130
-0.192453
-0.173306
-0.149130
-0.122611
-0.095881
-0.070562
-0.047807
-0.028369
-0.012686
-0.000966
0.006732
0.010484
0.010585
0.007688
0.002857
-0.002603
-0.007493
-0.010521
-0.011591
-0.011093
-0.009619
-0.007861
-0.006540
-0.006382
-0.008103
-0.012357
-0.019585
-0.029796
-0.042369
-0.056025
-0.069036
-0.079593
-0.086187
-0.087125
-0.083524
-0.076313
-0.066744
-0.056103
-0.045506
-0.035799
-0.027535
-0.021012
-0.016340
-0.013501
-0.012391
-0.012818
-0.014486
-0.016977
-0.019781
-0.022362
-0.024251
-0.025131
-0.024766
-0.023363
-0.021184
-0.018554
-0.015797
-0.013191
-0.010945
-0.009108
0.499845
0.502259
0.509132
0.520417
0.535800
0.554222
0.572947
0.585991
0.582141
0.543722
0.452746
0.299954
0.142466
-0.305130
-0.583882
-0.523930
-0.571291
-0.633796
-0.629103
-0.576078
-0.492174
-0.393919
-0.294586
-0.204185
-0.129522
-0.073726
-0.035686
-0.012204
-0.000533
0.001286
-0.002246
-0.013122
-0.032363
-0.060471
-0.096600
-0.137388
-0.176895
-0.208206
-0.225847
-0.223350
-0.206832
-0.182699
-0.154458
-0.124818
-0.095789
-0.068791
-0.044762
-0.024265
-0.007573
0.005235
0.014197
0.019408
0.021061
0.019581
0.015754
0.010698
0.005620
0.001509
-0.000728
-0.001423
-0.001096
-0.000424
-0.000147
-0.001034
-0.003853
-0.009274
-0.017705
-0.029069
-0.042633
-0.057021
-0.070431
-0.080999
-0.086862
-0.086885
-0.082518
-0.074675
-0.064610
-0.053590
-0.042697
-0.032735
-0.024213
-0.017395
-0.012363
-0.009088
-0.007464
-0.007309
-0.008342
-0.010165
-0.012281
-0.014153
-0.015304
-0.015398
-0.014171
-0.011702
-0.008180
-0.003849
0.001058
0.006365
0.011975
0.019354
0.487913
0.489437
0.493677
0.500304
0.508549
0.516797
0.521926
0.518354
0.496986
0.444322
0.342413
0.166674
-0.135246
-0.752726
-0.643834
-0.542143
-0.573904
-0.607151
-0.587210
-0.529848
-0.446781
-0.350919
-0.253396
-0.162951
-0.085966
-0.026112
0.016620
0.045077
0.061372
0.062717
0.053565
0.032245
-0.000361
-0.042835
-0.092273
-0.143397
-0.189025
-0.221912
-0.235022
-0.226058
-0.206104
-0.179558
-0.149894
-0.119647
-0.090575
-0.063837
-0.040143
-0.019880
-0.003196
0.009922
0.019581
0.025910
0.029051
0.029238
0.026960
0.023031
0.018480
0.014252
0.011326
0.009858
0.009366
0.009211
0.008648
0.006878
0.003107
-0.003330
-0.012785
-0.025083
-0.039389
-0.054246
-0.067798
-0.078149
-0.082727
-0.082421
-0.077832
-0.069973
-0.060072
-0.049322
-0.038720
-0.028989
-0.020584
-0.013730
-0.008502
-0.004876
-0.002768
-0.002023
-0.002388
-0.003493
-0.004858
-0.005958
-0.006311
-0.005561
-0.003433
0.000102
0.004921
0.010859
0.017773
0.025591
0.034336
0.046917
0.473146
0.473811
0.475552
0.477892
0.479866
0.479721
0.474485
0.459431
0.427519
0.368896
0.270297
0.114049
-0.123040
-0.424966
-0.489636
-0.494680
-0.515020
-0.518546
-0.496991
-0.448567
-0.379946
-0.300066
-0.217409
-0.138945
-0.069753
-0.012745
0.031466
0.063545
0.083083
0.094441
0.084484
0.057668
0.017490
-0.032732
-0.088334
-0.142764
-0.188263
-0.217542
-0.221899
-0.211266
-0.190974
-0.165243
-0.137209
-0.109052
-0.082201
-0.057548
-0.035614
-0.016672
-0.000822
0.011969
0.021821
0.028885
0.033301
0.035211
0.034872
0.032773
0.029628
0.026176
0.023449
0.021786
0.020884
0.020208
0.019052
0.016613
0.012100
0.004879
-0.005328
-0.018251
-0.032964
-0.047945
-0.061331
-0.070856
-0.074843
-0.074496
-0.070260
-0.063075
-0.054051
-0.044240
-0.034503
-0.025459
-0.017492
-0.010806
-0.005483
-0.001533
0.001084
0.002479
0.002861
0.002569
0.002053
0.001818
0.002338
0.003978
0.007032
0.011607
0.017640
0.025042
0.033759
0.043824
0.055397
0.072771
0.457139
0.457049
0.456625
0.455361
0.452288
0.445779
0.433300
0.411143
0.374233
0.316088
0.229093
0.105805
-0.055581
-0.233266
-0.332720
-0.381664
-0.408902
-0.413329
-0.398258
-0.363628
-0.313153
-0.252669
-0.188256
-0.125223
-0.067600
-0.017916
0.022728
0.053974
0.078950
0.089494
0.081799
0.056873
0.017747
-0.031111
-0.083887
-0.133495
-0.172494
-0.191406
-0.192700
-0.182716
-0.165135
-0.143252
-0.119559
-0.095761
-0.072945
-0.051765
-0.032610
-0.015709
-0.001185
0.010926
0.020673
0.028168
0.033545
0.036934
0.038494
0.038484
0.037349
0.035628
0.034170
0.032989
0.032160
0.031336
0.029892
0.027064
0.022096
0.014410
0.003807
-0.009359
-0.024091
-0.038804
-0.051562
-0.059940
-0.064147
-0.064352
-0.061119
-0.055294
-0.047806
-0.039506
-0.031087
-0.023047
-0.015713
-0.009284
-0.003879
0.000432
0.003626
0.005755
0.006980
0.007603
0.008040
0.008768
0.010239
0.012813
0.016806
0.022368
0.029497
0.038176
0.048432
0.060408
0.074412
0.096088
0.441289
0.440574
0.438385
0.434271
0.427382
0.416358
0.399200
0.373190
0.334909
0.280483
0.206228
0.110168
-0.004448
-0.123728
-0.213138
-0.271066
-0.305028
-0.317674
-0.312137
-0.290654
-0.256104
-0.212558
-0.164397
-0.115622
-0.069442
-0.028075
0.007249
0.036135
0.057442
0.066441
0.061002
0.041247
0.009316
-0.030827
-0.073589
-0.112209
-0.139802
-0.152405
-0.154054
-0.147177
-0.134471
-0.118334
-0.100598
-0.082497
-0.064785
-0.047888
-0.032070
-0.017537
-0.004485
0.006922
0.016587
0.024498
0.030718
0.035341
0.038499
0.040328
0.041358
0.042099
0.042163
0.042008
0.041774
0.041238
0.039880
0.037015
0.031956
0.024199
0.013611
0.000608
-0.013788
-0.027956
-0.039593
-0.047767
-0.052425
-0.053689
-0.052044
-0.048140
-0.042658
-0.036217
-0.029326
-0.022380
-0.015677
-0.009445
-0.003872
0.000885
0.004734
0.007667
0.009796
0.011391
0.012837
0.014577
0.017036
0.020568
0.025485
0.031951
0.040028
0.049758
0.061237
0.074704
0.090625
0.115988
0.426756
0.425532
0.421939
0.415642
0.405982
0.391908
0.371941
0.344193
0.306495
0.256710
0.193345
0.116625
0.030172
-0.057388
-0.131312
-0.186167
-0.222261
-0.240811
-0.243520
-0.232521
-0.210311
-0.179953
-0.144712
-0.107656
-0.071370
-0.037810
-0.008311
0.016337
0.033865
0.042009
0.039329
0.025785
0.002948
-0.026011
-0.056583
-0.083559
-0.102258
-0.112669
-0.115495
-0.112252
-0.104740
-0.094614
-0.083136
-0.071103
-0.058900
-0.046646
-0.034389
-0.022267
-0.010559
0.000388
0.010255
0.018830
0.026047
0.031899
0.036591
0.040444
0.043399
0.045571
0.047109
0.048220
0.048937
0.049053
0.048131
0.045590
0.040829
0.033408
0.023234
0.010763
-0.003058
-0.016263
-0.027489
-0.035950
-0.041475
-0.044248
-0.044605
-0.042925
-0.039600
-0.035018
-0.029540
-0.023492
-0.017197
-0.010953
-0.005050
0.000227
0.004763
0.008517
0.011533
0.014068
0.016475
0.019163
0.022545
0.026979
0.032722
0.039969
0.048821
0.059351
0.071692
0.086141
0.103292
0.131459
0.414486
0.412818
0.408065
0.400076
0.388416
0.372332
0.350781
0.322509
0.286204
0.240790
0.185880
0.122423
0.053461
-0.015473
-0.076872
-0.126090
-0.161470
-0.182951
-0.191301
-0.187870
-0.174684
-0.154115
-0.128674
-0.100767
-0.072504
-0.045596
-0.021371
-0.000939
0.013946
0.021899
0.022016
0.014297
-0.000122
-0.018961
-0.039080
-0.057054
-0.070708
-0.079142
-0.082645
-0.082164
-0.078911
-0.074027
-0.068339
-0.062227
-0.055629
-0.048188
-0.039554
-0.029689
-0.018968
-0.008019
0.002517
0.012128
0.020649
0.028042
0.034326
0.039537
0.043818
0.047300
0.050116
0.052372
0.054043
0.054926
0.054644
0.052699
0.048555
0.041797
0.032292
0.020421
0.007159
-0.005886
-0.017233
-0.026260
-0.032920
-0.037412
-0.039863
-0.040313
-0.038867
-0.035744
-0.031224
-0.025619
-0.019380
-0.012859
-0.006389
-0.000533
0.004657
0.009087
0.012856
0.016160
0.019330
0.022762
0.026847
0.031927
0.038296
0.046147
0.055579
0.066651
0.079470
0.094310
0.111768
0.141186
0.405303
0.403141
0.397278
0.387865
0.374699
0.357268
0.334853
0.306639
0.271870
0.230080
0.181406
0.126960
0.069161
0.011762
-0.040724
-0.084780
-0.118441
-0.141043
-0.152823
-0.154533
-0.147717
-0.134225
-0.116033
-0.095064
-0.073054
-0.051478
-0.031560
-0.014393
-0.001258
0.006858
0.009355
0.006249
-0.001676
-0.012874
-0.025298
-0.037209
-0.046629
-0.052955
-0.056363
-0.057540
-0.057398
-0.056778
-0.056200
-0.055680
-0.054662
-0.052134
-0.047083
-0.039123
-0.028802
-0.017212
-0.005418
0.005660
0.015651
0.024465
0.032071
0.038553
0.044041
0.048661
0.052528
0.055705
0.058165
0.059750
0.060154
0.058962
0.055618
0.049672
0.040531
0.028486
0.015008
0.001565
-0.010353
-0.020064
-0.027724
-0.033682
-0.037875
-0.039917
-0.039624
-0.037215
-0.033068
-0.027285
-0.020655
-0.013920
-0.007279
-0.000853
0.004917
0.009938
0.014277
0.018133
0.021783
0.025614
0.030030
0.035423
0.042135
0.050374
0.060202
0.071587
0.084532
0.099160
0.115831
0.143419
0.400135
0.397100
0.389861
0.379055
0.364647
0.346252
0.323342
0.295378
0.261939
0.222894
0.178615
0.130189
0.079562
0.029466
-0.016987
-0.057087
-0.088976
-0.111805
-0.125534
-0.130583
-0.128117
-0.119602
-0.106633
-0.090777
-0.073469
-0.055957
-0.039306
-0.024422
-0.012318
-0.003834
0.000567
0.000849
-0.002458
-0.008250
-0.015393
-0.022641
-0.028623
-0.032981
-0.035913
-0.038023
-0.040081
-0.042757
-0.046375
-0.050719
-0.054857
-0.057093
-0.055442
-0.048845
-0.038162
-0.025183
-0.012215
0.000341
0.011851
0.022045
0.030893
0.038494
0.044987
0.050508
0.055158
0.058990
0.062005
0.064149
0.065182
0.064829
0.062123
0.056237
0.047019
0.034579
0.019956
0.005148
-0.007752
-0.017849
-0.025704
-0.032200
-0.037334
-0.040231
-0.040183
-0.037344
-0.033027
-0.027640
-0.021155
-0.014058
-0.007034
-0.000360
0.005728
0.011132
0.015851
0.020076
0.023932
0.027819
0.032181
0.037490
0.044238
0.052695
0.062830
0.074407
0.087248
0.101244
0.116353
0.137784
0.400621
0.395151
0.385790
0.373448
0.357950
0.338821
0.315581
0.287843
0.255369
0.218201
0.176804
0.132196
0.086007
0.040399
-0.002229
-0.039656
-0.070099
-0.092897
-0.107687
-0.114782
-0.115095
-0.109841
-0.100355
-0.087964
-0.073888
-0.059202
-0.044837
-0.031599
-0.019939
-0.010943
-0.005026
-0.002350
-0.002575
-0.004790
-0.008640
-0.012765
-0.016470
-0.019508
-0.022084
-0.024737
-0.028132
-0.032814
-0.038988
-0.046361
-0.053977
-0.059944
-0.061352
-0.055403
-0.044133
-0.030805
-0.016334
-0.002356
0.010375
0.021596
0.031313
0.039657
0.046790
0.052847
0.057914
0.062026
0.065217
0.067666
0.069101
0.068652
0.066044
0.060570
0.051418
0.038307
0.022187
0.005571
-0.008522
-0.018609
-0.025547
-0.031014
-0.035599
-0.038539
-0.038867
-0.036789
-0.032439
-0.026735
-0.020198
-0.013217
-0.006246
0.000410
0.006595
0.012238
0.017159
0.021392
0.025312
0.029208
0.033457
0.038528
0.044976
0.053373
0.063877
0.075647
0.088369
0.101763
0.115539
0.131466
0.411235
0.396932
0.384475
0.370783
0.354472
0.334840
0.311404
0.283804
0.251875
0.215722
0.175826
0.133143
0.089139
0.045706
0.004924
-0.031293
-0.061550
-0.084478
-0.099701
-0.107633
-0.109099
-0.105201
-0.097166
-0.086219
-0.073499
-0.060021
-0.046681
-0.034281
-0.023569
-0.014447
-0.007712
-0.003869
-0.002957
-0.004617
-0.007303
-0.010344
-0.013208
-0.015703
-0.018025
-0.020667
-0.024229
-0.029187
-0.035677
-0.043338
-0.051191
-0.057505
-0.059892
-0.056542
-0.046219
-0.031870
-0.016687
-0.002206
0.010903
0.022425
0.032391
0.040939
0.048228
0.054384
0.059475
0.063511
0.066465
0.068220
0.068921
0.068273
0.065592
0.060176
0.051353
0.038865
0.023446
0.007181
-0.007185
-0.017925
-0.025293
-0.030582
-0.034549
-0.036974
-0.037381
-0.035427
-0.031361
-0.025847
-0.019467
-0.012669
-0.005862
0.000649
0.006662
0.012101
0.017049
0.021481
0.025601
0.029708
0.034173
0.039435
0.045992
0.054277
0.064316
0.076051
0.088702
0.101927
0.115596
0.130818
