# vtk DataFile Version 3.0
Vector Field
ASCII
DATASET RECTILINEAR_GRID
DIMENSIONS 100 26 1
X_COORDINATES 100 double
0.050000 0.150000 0.250000 0.350000 0.450000 0.550000 0.650000 0.750000 0.850000 0.950000 1.050000 1.150000 1.250000 1.350000 1.450000 1.550000 1.650000 1.750000 1.850000 1.950000 2.050000 2.150000 2.250000 2.350000 2.450000 2.550000 2.650000 2.750000 2.850000 2.950000 3.050000 3.150000 3.250000 3.350000 3.450000 3.550000 3.650000 3.750000 3.850000 3.950000 4.050000 4.150000 4.250000 4.350000 4.450000 4.550000 4.650000 4.750000 4.850000 4.950000 5.050000 5.150000 5.250000 5.350000 5.450000 5.550000 5.650000 5.750000 5.850000 5.950000 6.050000 6.150000 6.250000 6.350000 6.450000 6.550000 6.650000 6.750000 6.850000 6.950000 7.050000 7.150000 7.250000 7.350000 7.450000 7.550000 7.650000 7.750000 7.850000 7.950000 8.050000 8.150000 8.250000 8.350000 8.450000 8.550000 8.650000 8.750000 8.850000 8.950000 9.050000 9.150000 9.250000 9.350000 9.450000 9.550000 9.650000 9.750000 9.850000 9.950000 
Y_COORDINATES 26 double
0.050000 0.150000 0.250000 0.350000 0.450000 0.550000 0.650000 0.750000 0.850000 0.950000 1.050000 1.150000 1.250000 1.350000 1.450000 1.550000 1.650000 1.750000 1.850000 1.950000 2.050000 2.150000 2.250000 2.350000 2.450000 2.550000 
Z_COORDINATES 1 double
0.0
POINT_DATA 2600
VECTORS Vektorfeld double
0.997719 0.002281 0.0
0.993118 0.002320 0.0
0.989961 0.000838 0.0
0.990384 -0.001260 0.0
0.995208 -0.003564 0.0
1.004573 -0.005801 0.0
1.018090 -0.007716 0.0
1.034859 -0.009053 0.0
1.053503 -0.009591 0.0
1.072307 -0.009214 0.0
1.089488 -0.007967 0.0
1.103504 -0.006049 0.0
1.113293 -0.003740 0.0
1.118369 -0.001336 0.0
1.118857 0.000848 0.0
1.115297 0.002713 0.0
1.108398 0.004187 0.0
1.098991 0.005220 0.0
1.087958 0.005813 0.0
1.076136 0.006010 0.0
1.064218 0.005907 0.0
1.052654 0.005656 0.0
1.041538 0.005459 0.0
1.030531 0.005548 0.0
1.018846 0.006137 0.0
1.005337 0.007372 0.0
0.988684 0.009280 0.0
0.967637 0.011767 0.0
0.941226 0.014644 0.0
0.908912 0.017670 0.0
0.870647 0.020595 0.0
0.826865 0.023186 0.0
0.778436 0.025243 0.0
0.726591 0.026601 0.0
0.672859 0.027131 0.0
0.618989 0.026738 0.0
0.566888 0.025363 0.0
0.518530 0.022995 0.0
0.475905 0.019630 0.0
0.441156 0.015118 0.0
0.416988 0.009050 0.0
0.406353 0.001584 0.0
0.409173 -0.004404 0.0
0.421334 -0.007756 0.0
0.438304 -0.009214 0.0
0.456996 -0.009478 0.0
0.475479 -0.009005 0.0
0.492526 -0.008042 0.0
0.507281 -0.006714 0.0
0.519112 -0.005117 0.0
0.527614 -0.003385 0.0
0.532676 -0.001677 0.0
0.534281 0.000072 0.0
0.531659 0.002550 0.0
0.523404 0.005706 0.0
0.508499 0.009199 0.0
0.486701 0.012600 0.0
0.458835 0.015266 0.0
0.427201 0.016367 0.0
0.395551 0.015284 0.0
0.368043 0.012224 0.0
0.347474 0.008345 0.0
0.334114 0.005015 0.0
0.326224 0.002876 0.0
0.321691 0.001658 0.0
0.319265 0.000767 0.0
0.318575 -0.000077 0.0
0.319457 -0.000805 0.0
0.321648 -0.001386 0.0
0.324705 -0.001670 0.0
0.328097 -0.001723 0.0
0.331408 -0.001588 0.0
0.334289 -0.001292 0.0
0.336445 -0.000863 0.0
0.337625 -0.000317 0.0
0.337481 0.000460 0.0
0.335586 0.001435 0.0
0.331838 0.002314 0.0
0.326682 0.002843 0.0
0.320929 0.002909 0.0
0.315555 0.002465 0.0
0.311560 0.001530 0.0
0.309708 0.000323 0.0
0.309941 -0.000556 0.0
0.311405 -0.000907 0.0
0.313258 -0.000946 0.0
0.315042 -0.000839 0.0
0.316545 -0.000665 0.0
0.317671 -0.000460 0.0
0.318383 -0.000252 0.0
0.318712 -0.000077 0.0
0.318774 0.000015 0.0
0.318866 -0.000107 0.0
0.319374 -0.000401 0.0
0.320526 -0.000752 0.0
0.322341 -0.001064 0.0
0.324594 -0.001189 0.0
0.326860 -0.001077 0.0
0.328692 -0.000756 0.0
0.329532 -0.000084 0.0
1.003015 0.001547 0.0
1.011712 -0.001043 0.0
1.025174 -0.006104 0.0
1.042745 -0.012312 0.0
1.064311 -0.018903 0.0
1.089721 -0.025237 0.0
1.118555 -0.030631 0.0
1.150000 -0.034351 0.0
1.182798 -0.035735 0.0
1.215318 -0.034395 0.0
1.245834 -0.030482 0.0
1.272906 -0.024623 0.0
1.295612 -0.017661 0.0
1.313560 -0.010437 0.0
1.326710 -0.003689 0.0
1.335387 0.002133 0.0
1.340316 0.006736 0.0
1.342414 0.009980 0.0
1.342648 0.011851 0.0
1.341958 0.012484 0.0
1.341136 0.012173 0.0
1.340707 0.011384 0.0
1.340817 0.010739 0.0
1.341132 0.010960 0.0
1.340809 0.012733 0.0
1.338575 0.016520 0.0
1.332951 0.022410 0.0
1.322537 0.030100 0.0
1.306262 0.038997 0.0
1.283533 0.048360 0.0
1.254279 0.057424 0.0
1.218929 0.065488 0.0
1.178347 0.071954 0.0
1.133749 0.076333 0.0
1.086640 0.078241 0.0
1.038742 0.077395 0.0
0.991935 0.073614 0.0
0.948210 0.066827 0.0
0.909605 0.057029 0.0
0.877914 0.044159 0.0
0.853760 0.028331 0.0
0.835699 0.010998 0.0
0.823141 -0.004080 0.0
0.817503 -0.014602 0.0
0.819183 -0.021019 0.0
0.827342 -0.024525 0.0
0.840959 -0.026058 0.0
0.859093 -0.026169 0.0
0.880816 -0.025064 0.0
0.904951 -0.022732 0.0
0.929750 -0.019072 0.0
0.952653 -0.013955 0.0
0.970595 -0.007196 0.0
0.981639 0.001396 0.0
0.985300 0.011454 0.0
0.981400 0.022256 0.0
0.970146 0.032595 0.0
0.952342 0.040942 0.0
0.929043 0.045623 0.0
0.901112 0.045610 0.0
0.869097 0.041421 0.0
0.833744 0.035069 0.0
0.796709 0.028685 0.0
0.760745 0.023059 0.0
0.729177 0.017575 0.0
0.705033 0.011419 0.0
0.690247 0.004748 0.0
0.684944 -0.001209 0.0
0.687006 -0.005236 0.0
0.693624 -0.007496 0.0
0.703046 -0.008711 0.0
0.714195 -0.009061 0.0
0.726038 -0.008544 0.0
0.737455 -0.007185 0.0
0.747342 -0.005062 0.0
0.755038 -0.002347 0.0
0.760680 0.000494 0.0
0.764775 0.002907 0.0
0.767655 0.004526 0.0
0.769548 0.005086 0.0
0.770683 0.004527 0.0
0.771084 0.003062 0.0
0.770444 0.001283 0.0
0.768674 0.000021 0.0
0.766230 -0.000504 0.0
0.763533 -0.000505 0.0
0.760634 -0.000164 0.0
0.757380 0.000411 0.0
0.753610 0.001109 0.0
0.749306 0.001770 0.0
0.744688 0.002190 0.0
0.740218 0.002157 0.0
0.736395 0.001483 0.0
0.733707 0.000189 0.0
0.732651 -0.001438 0.0
0.733306 -0.002848 0.0
0.735311 -0.003662 0.0
0.738208 -0.003767 0.0
0.741463 -0.003152 0.0
0.743286 -0.000350 0.0
1.001927 -0.003394 0.0
1.008805 -0.011678 0.0
1.021300 -0.021427 0.0
1.038852 -0.032112 0.0
1.061302 -0.043119 0.0
1.088530 -0.053659 0.0
1.120186 -0.062699 0.0
1.155437 -0.068981 0.0
1.192789 -0.071255 0.0
1.230041 -0.068645 0.0
1.264764 -0.061470 0.0
1.295066 -0.051010 0.0
1.319929 -0.038844 0.0
1.339124 -0.026397 0.0
1.353003 -0.014759 0.0
1.362275 -0.004746 0.0
1.367833 0.003129 0.0
1.370695 0.008628 0.0
1.371941 0.011723 0.0
1.372628 0.012615 0.0
1.373728 0.011765 0.0
1.376032 0.009916 0.0
1.380012 0.008116 0.0
1.385637 0.007642 0.0
1.392229 0.009782 0.0
1.398476 0.015457 0.0
1.402705 0.024868 0.0
1.403282 0.037479 0.0
1.398930 0.052244 0.0
1.388888 0.067885 0.0
1.372919 0.083122 0.0
1.351250 0.096809 0.0
1.324475 0.107991 0.0
1.293463 0.115904 0.0
1.259291 0.119951 0.0
1.223179 0.119695 0.0
1.186440 0.114860 0.0
1.150394 0.105352 0.0
1.116220 0.091284 0.0
1.084692 0.073123 0.0
1.056030 0.052184 0.0
1.030279 0.030958 0.0
1.007399 0.011398 0.0
0.988119 -0.005162 0.0
0.974082 -0.018102 0.0
0.966313 -0.027833 0.0
0.965097 -0.035151 0.0
0.970439 -0.040554 0.0
0.982116 -0.044080 0.0
0.999625 -0.045361 0.0
1.022154 -0.043771 0.0
1.048584 -0.038588 0.0
1.077375 -0.029296 0.0
1.106073 -0.016247 0.0
1.131732 -0.000223 0.0
1.152181 0.017384 0.0
1.166258 0.034643 0.0
1.173247 0.049709 0.0
1.172559 0.060841 0.0
1.163754 0.067128 0.0
1.146815 0.068857 0.0
1.122608 0.067192 0.0
1.093028 0.063178 0.0
1.060523 0.057034 0.0
1.027240 0.048451 0.0
0.994360 0.037568 0.0
0.962224 0.025522 0.0
0.931613 0.013932 0.0
0.905301 0.003874 0.0
0.886686 -0.004609 0.0
0.876680 -0.011013 0.0
0.873759 -0.014987 0.0
0.876088 -0.016789 0.0
0.882376 -0.016644 0.0
0.891624 -0.014737 0.0
0.902823 -0.011568 0.0
0.914778 -0.007883 0.0
0.926322 -0.004355 0.0
0.936766 -0.001536 0.0
0.945885 0.000136 0.0
0.953686 0.000541 0.0
0.960354 -0.000021 0.0
0.966290 -0.000931 0.0
0.972028 -0.001732 0.0
0.977965 -0.002244 0.0
0.984246 -0.002350 0.0
0.990819 -0.001994 0.0
0.997508 -0.001194 0.0
1.004068 -0.000077 0.0
1.010194 0.001133 0.0
1.015467 0.002172 0.0
1.019288 0.002823 0.0
1.020963 0.002965 0.0
1.019790 0.002568 0.0
1.015214 0.001815 0.0
1.007422 0.001037 0.0
0.997546 0.000324 0.0
0.987298 -0.000404 0.0
0.978714 -0.001185 0.0
0.973645 0.000928 0.0
1.001550 -0.006871 0.0
1.007543 -0.021072 0.0
1.019188 -0.036173 0.0
1.036381 -0.052112 0.0
1.059275 -0.068463 0.0
1.088096 -0.084364 0.0
1.122844 -0.098398 0.0
1.162865 -0.108554 0.0
1.206441 -0.112610 0.0
1.250267 -0.108368 0.0
1.290392 -0.096595 0.0
1.324117 -0.079913 0.0
1.350415 -0.061102 0.0
1.369439 -0.042358 0.0
1.381990 -0.025227 0.0
1.389178 -0.010739 0.0
1.392252 0.000490 0.0
1.392516 0.008141 0.0
1.391298 0.012183 0.0
1.389914 0.012851 0.0
1.389647 0.010696 0.0
1.391658 0.006669 0.0
1.396803 0.002239 0.0
1.405263 -0.000565 0.0
1.416212 0.000449 0.0
1.427849 0.006905 0.0
1.437848 0.019192 0.0
1.444052 0.036374 0.0
1.444999 0.056753 0.0
1.440032 0.078386 0.0
1.429172 0.099451 0.0
1.412895 0.118425 0.0
1.391925 0.134120 0.0
1.367078 0.145634 0.0
1.339182 0.152290 0.0
1.309037 0.153612 0.0
1.277398 0.149322 0.0
1.244941 0.139394 0.0
1.212206 0.124150 0.0
1.179563 0.104428 0.0
1.147320 0.081784 0.0
1.116058 0.058372 0.0
1.086806 0.036116 0.0
1.060520 0.015686 0.0
1.038181 -0.002572 0.0
1.021111 -0.018525 0.0
1.010290 -0.032421 0.0
1.006129 -0.044465 0.0
1.008711 -0.054427 0.0
1.017891 -0.061703 0.0
1.033458 -0.065524 0.0
1.055290 -0.065097 0.0
1.083336 -0.059624 0.0
1.117223 -0.048505 0.0
1.155456 -0.031856 0.0
1.194748 -0.010725 0.0
1.230576 0.012846 0.0
1.259333 0.035760 0.0
1.279326 0.055485 0.0
1.289740 0.070875 0.0
1.290302 0.081488 0.0
1.281564 0.087506 0.0
1.264815 0.089194 0.0
1.241691 0.086647 0.0
1.213759 0.080054 0.0
1.182451 0.070154 0.0
1.149342 0.058180 0.0
1.116130 0.045096 0.0
1.083886 0.031266 0.0
1.052951 0.017549 0.0
1.024520 0.005266 0.0
1.001064 -0.004890 0.0
0.984293 -0.012445 0.0
0.974043 -0.017025 0.0
0.969195 -0.018756 0.0
0.968516 -0.018070 0.0
0.970760 -0.015579 0.0
0.974687 -0.012130 0.0
0.979185 -0.008702 0.0
0.983471 -0.006103 0.0
0.987265 -0.004815 0.0
0.990856 -0.004923 0.0
0.995052 -0.006162 0.0
1.000954 -0.008140 0.0
1.009626 -0.010445 0.0
1.021825 -0.012628 0.0
1.037798 -0.014262 0.0
1.057192 -0.015009 0.0
1.079061 -0.014690 0.0
1.101966 -0.013285 0.0
1.124190 -0.010907 0.0
1.144042 -0.007770 0.0
1.160114 -0.004189 0.0
1.171502 -0.000493 0.0
1.177960 0.002995 0.0
1.179742 0.005867 0.0
1.177425 0.007687 0.0
1.171873 0.008033 0.0
1.164162 0.006675 0.0
1.157942 0.004357 0.0
1.001362 -0.009783 0.0
1.006779 -0.029570 0.0
1.017658 -0.050200 0.0
1.034328 -0.071947 0.0
1.057445 -0.094639 0.0
1.087887 -0.117450 0.0
1.126424 -0.138597 0.0
1.173024 -0.154976 0.0
1.226175 -0.162914 0.0
1.280303 -0.156019 0.0
1.328020 -0.136786 0.0
1.365539 -0.110967 0.0
1.392456 -0.083264 0.0
1.409923 -0.056687 0.0
1.419545 -0.033070 0.0
1.422990 -0.013529 0.0
1.421886 0.001310 0.0
1.417797 0.011144 0.0
1.412285 0.015911 0.0
1.406962 0.015830 0.0
1.403470 0.011477 0.0
1.403461 0.003886 0.0
1.408434 -0.005097 0.0
1.419177 -0.012430 0.0
1.434946 -0.014404 0.0
1.453062 -0.007995 0.0
1.469591 0.007565 0.0
1.481057 0.030331 0.0
1.485524 0.057382 0.0
1.482478 0.085770 0.0
1.472410 0.112996 0.0
1.456352 0.137214 0.0
1.435490 0.157164 0.0
1.410912 0.172015 0.0
1.383505 0.181212 0.0
1.353942 0.184398 0.0
1.322707 0.181409 0.0
1.290140 0.172331 0.0
1.256488 0.157600 0.0
1.221994 0.138115 0.0
1.187055 0.115277 0.0
1.152410 0.090785 0.0
1.119178 0.066186 0.0
1.088632 0.042448 0.0
1.061773 0.019865 0.0
1.039290 -0.001408 0.0
1.021693 -0.021119 0.0
1.009142 -0.039055 0.0
1.001564 -0.054840 0.0
0.999061 -0.067966 0.0
1.002192 -0.077959 0.0
1.012119 -0.084421 0.0
1.030402 -0.086628 0.0
1.058388 -0.083373 0.0
1.096488 -0.073321 0.0
1.143586 -0.055650 0.0
1.196373 -0.030844 0.0
1.248467 -0.001399 0.0
1.292392 0.028726 0.0
1.324338 0.055274 0.0
1.344103 0.076762 0.0
1.352365 0.092707 0.0
1.350225 0.102884 0.0
1.339026 0.107280 0.0
1.320189 0.106189 0.0
1.295197 0.100320 0.0
1.265647 0.090674 0.0
1.233180 0.078281 0.0
1.199351 0.064155 0.0
1.165623 0.049322 0.0
1.133146 0.034401 0.0
1.102494 0.020082 0.0
1.074325 0.007523 0.0
1.049895 -0.002312 0.0
1.030162 -0.008887 0.0
1.014896 -0.011994 0.0
1.002973 -0.011977 0.0
0.993038 -0.009723 0.0
0.983922 -0.006491 0.0
0.974957 -0.003635 0.0
0.966210 -0.002329 0.0
0.958507 -0.003297 0.0
0.953249 -0.006728 0.0
0.952035 -0.012263 0.0
0.956220 -0.019180 0.0
0.966628 -0.026499 0.0
0.983443 -0.033179 0.0
1.006271 -0.038316 0.0
1.034273 -0.041254 0.0
1.066262 -0.041615 0.0
1.100753 -0.039292 0.0
1.135958 -0.034443 0.0
1.169831 -0.027461 0.0
1.200220 -0.018998 0.0
1.225215 -0.009952 0.0
1.243648 -0.001401 0.0
1.255397 0.005523 0.0
1.261259 0.009886 0.0
1.262619 0.011173 0.0
1.262166 0.006532 0.0
1.001174 -0.012320 0.0
1.005903 -0.037179 0.0
1.015621 -0.063188 0.0
1.031042 -0.091050 0.0
1.053442 -0.121053 0.0
1.084673 -0.152709 0.0
1.126940 -0.184142 0.0
1.181797 -0.210888 0.0
1.249737 -0.228092 0.0
1.319712 -0.214946 0.0
1.376159 -0.182022 0.0
1.415286 -0.142375 0.0
1.439546 -0.103034 0.0
1.452283 -0.067121 0.0
1.456227 -0.036202 0.0
1.453570 -0.011185 0.0
1.446086 0.007554 0.0
1.435367 0.019707 0.0
1.423130 0.025097 0.0
1.411229 0.023867 0.0
1.401594 0.016568 0.0
1.396222 0.004177 0.0
1.397463 -0.011604 0.0
1.407515 -0.026718 0.0
1.426723 -0.035093 0.0
1.452368 -0.031067 0.0
1.478677 -0.012202 0.0
1.498914 0.018394 0.0
1.509247 0.054519 0.0
1.509347 0.091578 0.0
1.500409 0.126195 0.0
1.484219 0.156262 0.0
1.462551 0.180646 0.0
1.436862 0.198800 0.0
1.408222 0.210474 0.0
1.377346 0.215575 0.0
1.344674 0.214139 0.0
1.310468 0.206375 0.0
1.274918 0.192758 0.0
1.238275 0.174094 0.0
1.200997 0.151515 0.0
1.163861 0.126328 0.0
1.127954 0.099782 0.0
1.094445 0.072907 0.0
1.064177 0.046533 0.0
1.037209 0.021376 0.0
1.012755 -0.001852 0.0
0.989772 -0.022788 0.0
0.967881 -0.041638 0.0
0.948082 -0.058866 0.0
0.932803 -0.074911 0.0
0.925453 -0.090047 0.0
0.929438 -0.103272 0.0
0.946980 -0.112257 0.0
0.978667 -0.114225 0.0
1.023667 -0.106844 0.0
1.080008 -0.088779 0.0
1.144531 -0.060080 0.0
1.211485 -0.023474 0.0
1.271367 0.015647 0.0
1.316839 0.051154 0.0
1.347039 0.079852 0.0
1.363583 0.101335 0.0
1.368081 0.115530 0.0
1.362140 0.122716 0.0
1.347390 0.123534 0.0
1.325500 0.118900 0.0
1.298152 0.109869 0.0
1.266993 0.097556 0.0
1.233583 0.083059 0.0
1.199326 0.067399 0.0
1.165446 0.051617 0.0
1.132917 0.036687 0.0
1.102244 0.023626 0.0
1.073475 0.013678 0.0
1.046393 0.007790 0.0
1.020523 0.006032 0.0
0.995272 0.007455 0.0
0.970443 0.010275 0.0
0.946649 0.012357 0.0
0.925253 0.011822 0.0
0.907962 0.007547 0.0
0.896349 -0.000701 0.0
0.891647 -0.012374 0.0
0.894570 -0.026177 0.0
0.905088 -0.040428 0.0
0.922579 -0.053556 0.0
0.946149 -0.064336 0.0
0.974835 -0.071920 0.0
1.007679 -0.075781 0.0
1.043706 -0.075644 0.0
1.081868 -0.071459 0.0
1.120974 -0.063424 0.0
1.159627 -0.052078 0.0
1.196183 -0.038423 0.0
1.228772 -0.023953 0.0
1.255562 -0.010464 0.0
1.275335 0.000238 0.0
1.288122 0.006675 0.0
1.295104 0.004501 0.0
1.000902 -0.014396 0.0
1.004564 -0.043493 0.0
1.012258 -0.074286 0.0
1.024980 -0.108096 0.0
1.044595 -0.146023 0.0
1.074167 -0.188543 0.0
1.118189 -0.234596 0.0
1.181675 -0.278776 0.0
1.272489 -0.318957 0.0
1.364721 -0.286287 0.0
1.424674 -0.227081 0.0
1.456208 -0.167977 0.0
1.469939 -0.115425 0.0
1.472484 -0.070011 0.0
1.467195 -0.031968 0.0
1.455875 -0.001442 0.0
1.439595 0.021575 0.0
1.419581 0.036419 0.0
1.397587 0.042616 0.0
1.375696 0.040139 0.0
1.356083 0.029544 0.0
1.340756 0.011901 0.0
1.331996 -0.011808 0.0
1.333631 -0.038201 0.0
1.348888 -0.058074 0.0
1.377305 -0.062148 0.0
1.414150 -0.044273 0.0
1.449594 -0.005215 0.0
1.473681 0.043709 0.0
1.483642 0.092327 0.0
1.481810 0.136216 0.0
1.470960 0.173279 0.0
1.453436 0.202821 0.0
1.430948 0.224803 0.0
1.404649 0.239410 0.0
1.375288 0.246876 0.0
1.343346 0.247452 0.0
1.309155 0.241460 0.0
1.273004 0.229373 0.0
1.235261 0.211865 0.0
1.196485 0.189800 0.0
1.157502 0.164162 0.0
1.119352 0.136004 0.0
1.082999 0.106546 0.0
1.048774 0.077386 0.0
1.015815 0.050448 0.0
0.982083 0.027261 0.0
0.945326 0.007840 0.0
0.905012 -0.010060 0.0
0.864537 -0.030170 0.0
0.831025 -0.054816 0.0
0.811401 -0.083168 0.0
0.808922 -0.111656 0.0
0.823289 -0.135782 0.0
0.852577 -0.151676 0.0
0.894738 -0.156554 0.0
0.947998 -0.148671 0.0
1.010589 -0.127302 0.0
1.080293 -0.092910 0.0
1.153509 -0.048014 0.0
1.222199 0.000652 0.0
1.277079 0.045272 0.0
1.315321 0.081129 0.0
1.338608 0.107953 0.0
1.348781 0.126062 0.0
1.347622 0.136096 0.0
1.336895 0.138955 0.0
1.318337 0.135720 0.0
1.293633 0.127568 0.0
1.264375 0.115714 0.0
1.232008 0.101368 0.0
1.197762 0.085773 0.0
1.162555 0.070267 0.0
1.126900 0.056373 0.0
1.090929 0.045670 0.0
1.054538 0.039269 0.0
1.017703 0.037256 0.0
0.980896 0.038290 0.0
0.945332 0.039834 0.0
0.912904 0.039020 0.0
0.885796 0.033663 0.0
0.865934 0.022859 0.0
0.854529 0.007006 0.0
0.851809 -0.012659 0.0
0.857159 -0.034165 0.0
0.869538 -0.055338 0.0
0.887824 -0.074423 0.0
0.910995 -0.090210 0.0
0.938194 -0.101931 0.0
0.968709 -0.109128 0.0
1.001923 -0.111539 0.0
1.037252 -0.109055 0.0
1.074062 -0.101744 0.0
1.111591 -0.089941 0.0
1.148860 -0.074384 0.0
1.184600 -0.056322 0.0
1.217255 -0.037540 0.0
1.245090 -0.020293 0.0
1.266471 -0.006961 0.0
1.279857 -0.002232 0.0
1.000501 -0.015798 0.0
1.002545 -0.047797 0.0
1.006980 -0.082112 0.0
1.014823 -0.120833 0.0
1.028196 -0.166274 0.0
1.051147 -0.220815 0.0
1.090975 -0.286174 0.0
1.159041 -0.358749 0.0
1.282438 -0.453196 0.0
1.397126 -0.358968 0.0
1.437113 -0.254340 0.0
1.439784 -0.174922 0.0
1.430618 -0.113046 0.0
1.417231 -0.061547 0.0
1.400682 -0.018595 0.0
1.379521 0.017666 0.0
1.352552 0.045717 0.0
1.320775 0.064068 0.0
1.285933 0.071802 0.0
1.250106 0.068671 0.0
1.215595 0.055136 0.0
1.184762 0.032469 0.0
1.159117 0.002029 0.0
1.141848 -0.036405 0.0
1.139709 -0.072988 0.0
1.158403 -0.094346 0.0
1.198520 -0.089037 0.0
1.253708 -0.051083 0.0
1.307363 0.011835 0.0
1.344867 0.076735 0.0
1.365708 0.132798 0.0
1.374368 0.178888 0.0
1.373783 0.215321 0.0
1.365764 0.242810 0.0
1.351454 0.262011 0.0
1.331654 0.273437 0.0
1.306994 0.277492 0.0
1.278039 0.274566 0.0
1.245347 0.265109 0.0
1.209539 0.249680 0.0
1.171357 0.228942 0.0
1.131686 0.203674 0.0
1.091387 0.174942 0.0
1.050745 0.144603 0.0
1.008565 0.115735 0.0
0.961857 0.091766 0.0
0.907772 0.073759 0.0
0.847659 0.058212 0.0
0.789152 0.038388 0.0
0.742344 0.008664 0.0
0.714054 -0.031849 0.0
0.705520 -0.077977 0.0
0.713619 -0.122466 0.0
0.734218 -0.159939 0.0
0.764536 -0.187124 0.0
0.803268 -0.201999 0.0
0.849963 -0.203180 0.0
0.904352 -0.189773 0.0
0.965833 -0.161624 0.0
1.033082 -0.119765 0.0
1.103700 -0.066905 0.0
1.171665 -0.010016 0.0
1.228065 0.041776 0.0
1.268816 0.083267 0.0
1.295019 0.114373 0.0
1.308256 0.135706 0.0
1.310165 0.148163 0.0
1.302391 0.152844 0.0
1.286546 0.150993 0.0
1.264157 0.143936 0.0
1.236608 0.133063 0.0
1.205058 0.119873 0.0
1.170372 0.106060 0.0
1.133096 0.093512 0.0
1.093566 0.084033 0.0
1.052169 0.078695 0.0
1.009709 0.077125 0.0
0.967699 0.077238 0.0
0.928347 0.075802 0.0
0.894167 0.069660 0.0
0.867378 0.056921 0.0
0.849382 0.037459 0.0
0.840551 0.012643 0.0
0.840317 -0.015342 0.0
0.847472 -0.043986 0.0
0.860614 -0.071040 0.0
0.878497 -0.094889 0.0
0.900105 -0.114523 0.0
0.924658 -0.129369 0.0
0.951578 -0.139125 0.0
0.980450 -0.143629 0.0
1.010954 -0.142797 0.0
1.042781 -0.136639 0.0
1.075549 -0.125342 0.0
1.108699 -0.109403 0.0
1.141424 -0.089768 0.0
1.172602 -0.067926 0.0
1.200781 -0.045921 0.0
1.224240 -0.026173 0.0
1.240294 -0.012460 0.0
0.999966 -0.016265 0.0
0.999822 -0.049230 0.0
0.999673 -0.084964 0.0
1.000107 -0.126259 0.0
1.002671 -0.176786 0.0
1.011060 -0.241642 0.0
1.033900 -0.328014 0.0
1.090354 -0.441430 0.0
1.243899 -0.647457 0.0
1.354125 -0.389621 0.0
1.318792 -0.228341 0.0
1.261859 -0.146658 0.0
1.220094 -0.090379 0.0
1.191402 -0.042134 0.0
1.165659 0.004284 0.0
1.135213 0.046393 0.0
1.098644 0.080529 0.0
1.055473 0.104205 0.0
1.006035 0.115946 0.0
0.951192 0.115197 0.0
0.892624 0.101689 0.0
0.834094 0.075278 0.0
0.782659 0.036300 0.0
0.745423 -0.016171 0.0
0.732543 -0.078204 0.0
0.753187 -0.128469 0.0
0.805645 -0.147489 0.0
0.882986 -0.125160 0.0
0.976357 -0.061115 0.0
1.065168 0.023370 0.0
1.131901 0.098589 0.0
1.178274 0.158066 0.0
1.209951 0.205052 0.0
1.229501 0.241548 0.0
1.238350 0.268733 0.0
1.237557 0.287310 0.0
1.228084 0.297752 0.0
1.210880 0.300466 0.0
1.186888 0.295893 0.0
1.157041 0.284552 0.0
1.122212 0.267082 0.0
1.082993 0.244424 0.0
1.039127 0.218357 0.0
0.988810 0.192147 0.0
0.929205 0.169976 0.0
0.859601 0.153838 0.0
0.785457 0.139917 0.0
0.718288 0.119338 0.0
0.669693 0.084363 0.0
0.645038 0.034152 0.0
0.641793 -0.025802 0.0
0.652910 -0.086607 0.0
0.672229 -0.141253 0.0
0.696629 -0.186152 0.0
0.725047 -0.219646 0.0
0.757582 -0.240744 0.0
0.794950 -0.248498 0.0
0.838026 -0.241919 0.0
0.887374 -0.220308 0.0
0.942872 -0.183829 0.0
1.003481 -0.134069 0.0
1.067094 -0.074431 0.0
1.128751 -0.011867 0.0
1.180843 0.044067 0.0
1.219394 0.088820 0.0
1.244914 0.122503 0.0
1.258504 0.145867 0.0
1.261459 0.159959 0.0
1.255140 0.166043 0.0
1.240881 0.165533 0.0
1.219911 0.159985 0.0
1.193274 0.151138 0.0
1.161789 0.140966 0.0
1.126098 0.131573 0.0
1.086849 0.124751 0.0
1.045004 0.121219 0.0
1.002131 0.119933 0.0
0.960482 0.118088 0.0
0.922711 0.112075 0.0
0.891303 0.098975 0.0
0.868003 0.077695 0.0
0.853528 0.049156 0.0
0.847640 0.015664 0.0
0.849422 -0.019912 0.0
0.857571 -0.054719 0.0
0.870710 -0.086587 0.0
0.887599 -0.114113 0.0
0.907213 -0.136522 0.0
0.928770 -0.153480 0.0
0.951734 -0.164899 0.0
0.975794 -0.170787 0.0
1.000804 -0.171152 0.0
1.026692 -0.166000 0.0
1.053353 -0.155409 0.0
1.080535 -0.139669 0.0
1.107749 -0.119442 0.0
1.134201 -0.095883 0.0
1.158749 -0.070691 0.0
1.179899 -0.046013 0.0
1.195133 -0.023908 0.0
0.999350 -0.015581 0.0
0.996665 -0.047085 0.0
0.991047 -0.081343 0.0
0.982150 -0.121418 0.0
0.969726 -0.171766 0.0
0.954316 -0.239641 0.0
0.939614 -0.338153 0.0
0.941188 -0.489320 0.0
1.044512 -0.856436 0.0
1.053187 -0.193109 0.0
0.878766 -0.098206 0.0
0.749466 -0.080103 0.0
0.689241 -0.054945 0.0
0.658953 -0.018588 0.0
0.635457 0.029976 0.0
0.608231 0.078373 0.0
0.571616 0.121734 0.0
0.522395 0.155392 0.0
0.460589 0.176002 0.0
0.389346 0.181226 0.0
0.316634 0.166941 0.0
0.256235 0.128954 0.0
0.223605 0.066690 0.0
0.229723 -0.015443 0.0
0.271516 -0.107847 0.0
0.336249 -0.184202 0.0
0.415588 -0.223553 0.0
0.507839 -0.218689 0.0
0.614156 -0.167274 0.0
0.732650 -0.077775 0.0
0.845307 0.020343 0.0
0.933899 0.101346 0.0
1.000151 0.163843 0.0
1.049766 0.213593 0.0
1.084788 0.252816 0.0
1.106393 0.282414 0.0
1.115657 0.302856 0.0
1.113694 0.314529 0.0
1.101622 0.317893 0.0
1.080458 0.313562 0.0
1.050891 0.302468 0.0
1.012842 0.286307 0.0
0.965050 0.268132 0.0
0.905783 0.251956 0.0
0.835702 0.239851 0.0
0.761310 0.227960 0.0
0.694545 0.206704 0.0
0.646949 0.167315 0.0
0.623386 0.108544 0.0
0.621124 0.036888 0.0
0.633382 -0.037550 0.0
0.653370 -0.105964 0.0
0.676615 -0.164462 0.0
0.700934 -0.211662 0.0
0.725617 -0.247237 0.0
0.751004 -0.271074 0.0
0.778224 -0.282756 0.0
0.808865 -0.281378 0.0
0.844479 -0.265812 0.0
0.886031 -0.235374 0.0
0.933503 -0.190605 0.0
0.985790 -0.133794 0.0
1.040740 -0.069111 0.0
1.093745 -0.003784 0.0
1.138616 0.053248 0.0
1.172274 0.098896 0.0
1.194776 0.133380 0.0
1.206768 0.157498 0.0
1.209168 0.172424 0.0
1.202983 0.179595 0.0
1.189197 0.180679 0.0
1.168689 0.177589 0.0
1.142225 0.172463 0.0
1.110564 0.167428 0.0
1.074684 0.164026 0.0
1.036050 0.162422 0.0
0.996767 0.160885 0.0
0.959424 0.156128 0.0
0.926631 0.144600 0.0
0.900451 0.124038 0.0
0.882029 0.094353 0.0
0.871577 0.057426 0.0
0.868609 0.016251 0.0
0.872195 -0.025867 0.0
0.881136 -0.065855 0.0
0.894139 -0.101593 0.0
0.909982 -0.131839 0.0
0.927610 -0.156038 0.0
0.946202 -0.174113 0.0
0.965216 -0.186244 0.0
0.984393 -0.192678 0.0
1.003712 -0.193590 0.0
1.023303 -0.189042 0.0
1.043312 -0.179038 0.0
1.063768 -0.163679 0.0
1.084469 -0.143347 0.0
1.104904 -0.118865 0.0
1.124215 -0.091568 0.0
1.141202 -0.063274 0.0
1.153898 -0.034577 0.0
0.998762 -0.013694 0.0
0.993645 -0.041169 0.0
0.982739 -0.070735 0.0
0.964563 -0.104952 0.0
0.936382 -0.147626 0.0
0.893184 -0.205174 0.0
0.825131 -0.289865 0.0
0.713121 -0.427171 0.0
0.321499 -0.736721 0.0
-0.482876 0.259453 0.0
-0.482876 0.000000 0.0
-0.028164 -0.019276 0.0
-0.039123 -0.053476 0.0
0.013805 -0.042696 0.0
0.085802 0.005583 0.0
0.131681 0.084113 0.0
0.132675 0.151614 0.0
0.103290 0.204117 0.0
0.055589 0.236784 0.0
0.002500 0.244775 0.0
-0.042627 0.221230 0.0
-0.069132 0.161569 0.0
-0.070398 0.067971 0.0
-0.044215 -0.049025 0.0
0.004099 -0.164372 0.0
0.067321 -0.255630 0.0
0.141635 -0.305778 0.0
0.227000 -0.314080 0.0
0.326166 -0.277366 0.0
0.440184 -0.200194 0.0
0.566328 -0.096037 0.0
0.687586 0.007876 0.0
0.785710 0.092937 0.0
0.860866 0.159729 0.0
0.918378 0.214146 0.0
0.960007 0.257850 0.0
0.986808 0.291354 0.0
0.999788 0.315014 0.0
0.999918 0.329351 0.0
0.987942 0.335244 0.0
0.964059 0.334236 0.0
0.927690 0.328957 0.0
0.878100 0.322863 0.0
0.816645 0.317948 0.0
0.749627 0.310958 0.0
0.688312 0.292560 0.0
0.644141 0.253041 0.0
0.622720 0.189994 0.0
0.622265 0.109883 0.0
0.636846 0.023230 0.0
0.659678 -0.058981 0.0
0.685455 -0.130299 0.0
0.711140 -0.189057 0.0
0.735039 -0.235284 0.0
0.756428 -0.269688 0.0
0.775489 -0.293071 0.0
0.793319 -0.305808 0.0
0.811821 -0.307469 0.0
0.833319 -0.296832 0.0
0.859889 -0.272476 0.0
0.892690 -0.233774 0.0
0.931582 -0.181804 0.0
0.975193 -0.119663 0.0
1.021146 -0.052189 0.0
1.064908 0.013019 0.0
1.101650 0.068726 0.0
1.129336 0.113363 0.0
1.147699 0.147161 0.0
1.157038 0.171023 0.0
1.157922 0.186297 0.0
1.151009 0.194676 0.0
1.136969 0.198141 0.0
1.116502 0.198842 0.0
1.090475 0.198736 0.0
1.060143 0.198931 0.0
1.027326 0.198968 0.0
0.994379 0.196568 0.0
0.963863 0.188305 0.0
0.938017 0.171062 0.0
0.918334 0.143439 0.0
0.905440 0.106268 0.0
0.899278 0.062126 0.0
0.899366 0.014429 0.0
0.904892 -0.033158 0.0
0.914749 -0.077362 0.0
0.927709 -0.116050 0.0
0.942570 -0.148086 0.0
0.958263 -0.173112 0.0
0.973946 -0.191314 0.0
0.989063 -0.203175 0.0
1.003384 -0.209245 0.0
1.016983 -0.209942 0.0
1.030157 -0.205455 0.0
1.043293 -0.195769 0.0
1.056702 -0.180813 0.0
1.070480 -0.160690 0.0
1.084408 -0.135884 0.0
1.097920 -0.107372 0.0
1.110121 -0.076658 0.0
1.119595 -0.043363 0.0
0.998330 -0.010786 0.0
0.991442 -0.032073 0.0
0.976748 -0.054232 0.0
0.952094 -0.078625 0.0
0.913325 -0.107004 0.0
0.852421 -0.141694 0.0
0.752530 -0.185400 0.0
0.573509 -0.240605 0.0
0.228533 -0.287935 0.0
0.000000 0.259453 0.0
-0.000000 -0.000000 0.0
0.000000 0.000000 0.0
-0.034639 -0.035340 0.0
-0.074937 -0.072760 0.0
-0.082289 -0.028998 0.0
-0.085386 0.075911 0.0
-0.096719 0.170155 0.0
-0.122347 0.240590 0.0
-0.155787 0.281453 0.0
-0.188582 0.285991 0.0
-0.211401 0.247961 0.0
-0.216106 0.166049 0.0
-0.197352 0.046004 0.0
-0.158902 -0.091690 0.0
-0.110912 -0.218010 0.0
-0.058799 -0.317327 0.0
-0.000611 -0.376584 0.0
0.066938 -0.396188 0.0
0.146929 -0.374415 0.0
0.242815 -0.313051 0.0
0.353945 -0.220454 0.0
0.475122 -0.110142 0.0
0.591328 -0.003376 0.0
0.686816 0.085400 0.0
0.760590 0.157190 0.0
0.816981 0.216786 0.0
0.857339 0.265259 0.0
0.882429 0.303039 0.0
0.892817 0.330808 0.0
0.888749 0.349830 0.0
0.870073 0.362210 0.0
0.836728 0.370697 0.0
0.790377 0.377063 0.0
0.736639 0.378941 0.0
0.685532 0.368091 0.0
0.648031 0.334243 0.0
0.630676 0.272885 0.0
0.633221 0.189026 0.0
0.650939 0.093588 0.0
0.677883 -0.002001 0.0
0.708397 -0.087097 0.0
0.738494 -0.158056 0.0
0.766014 -0.214504 0.0
0.789585 -0.257307 0.0
0.808456 -0.287927 0.0
0.822558 -0.307996 0.0
0.832660 -0.318815 0.0
0.840509 -0.320814 0.0
0.848729 -0.313204 0.0
0.860283 -0.294229 0.0
0.877608 -0.262146 0.0
0.901827 -0.216544 0.0
0.932479 -0.159186 0.0
0.967809 -0.093948 0.0
1.005078 -0.026254 0.0
1.040050 0.036285 0.0
1.069104 0.089064 0.0
1.090881 0.131320 0.0
1.104956 0.163448 0.0
1.111383 0.186561 0.0
1.110455 0.202254 0.0
1.102609 0.212448 0.0
1.088472 0.219140 0.0
1.068991 0.223945 0.0
1.045613 0.227433 0.0
1.020324 0.228572 0.0
0.995464 0.224771 0.0
0.973288 0.212794 0.0
0.955509 0.190197 0.0
0.943065 0.156432 0.0
0.936204 0.113029 0.0
0.934745 0.062987 0.0
0.938264 0.009961 0.0
0.946028 -0.041979 0.0
0.956973 -0.089343 0.0
0.969918 -0.129973 0.0
0.983708 -0.162814 0.0
0.997320 -0.187690 0.0
1.009945 -0.205043 0.0
1.021056 -0.215674 0.0
1.030460 -0.220470 0.0
1.038302 -0.220157 0.0
1.045016 -0.215128 0.0
1.051200 -0.205415 0.0
1.057445 -0.190820 0.0
1.064155 -0.171172 0.0
1.071427 -0.146603 0.0
1.078999 -0.117736 0.0
1.086281 -0.085777 0.0
1.092309 -0.049745 0.0
0.998136 -0.007251 0.0
0.990494 -0.021076 0.0
0.974332 -0.034373 0.0
0.947617 -0.047115 0.0
0.906695 -0.058824 0.0
0.845589 -0.067865 0.0
0.755100 -0.068850 0.0
0.624051 -0.047086 0.0
0.454950 0.037813 0.0
0.181463 0.163019 0.0
0.000000 0.000000 0.0
-0.000000 -0.000000 0.0
0.000000 0.000000 0.0
-0.032612 -0.033550 0.0
-0.080090 -0.012438 0.0
-0.114827 0.097185 0.0
-0.149886 0.195275 0.0
-0.177680 0.268892 0.0
-0.200849 0.309759 0.0
-0.217688 0.307318 0.0
-0.221578 0.253341 0.0
-0.204689 0.148485 0.0
-0.164228 0.004352 0.0
-0.112424 -0.140292 0.0
-0.064211 -0.265610 0.0
-0.024177 -0.361874 0.0
0.010079 -0.424481 0.0
0.045995 -0.451756 0.0
0.091246 -0.444088 0.0
0.152653 -0.400672 0.0
0.233325 -0.324634 0.0
0.330525 -0.224339 0.0
0.436866 -0.111727 0.0
0.538675 -0.003545 0.0
0.623118 0.087917 0.0
0.688597 0.164188 0.0
0.737686 0.228409 0.0
0.771047 0.281438 0.0
0.788852 0.324217 0.0
0.791078 0.358262 0.0
0.777980 0.385552 0.0
0.751230 0.407451 0.0
0.715527 0.422362 0.0
0.679249 0.423658 0.0
0.652300 0.401429 0.0
0.641747 0.348959 0.0
0.648948 0.268323 0.0
0.670706 0.169285 0.0
0.702421 0.063896 0.0
0.738708 -0.035540 0.0
0.774681 -0.120045 0.0
0.807596 -0.188119 0.0
0.835846 -0.240211 0.0
0.858414 -0.277738 0.0
0.874718 -0.302672 0.0
0.884611 -0.317246 0.0
0.888520 -0.323575 0.0
0.887715 -0.323098 0.0
0.884530 -0.315954 0.0
0.882212 -0.300715 0.0
0.884200 -0.274974 0.0
0.893051 -0.236786 0.0
0.909621 -0.186166 0.0
0.932994 -0.125670 0.0
0.961016 -0.059823 0.0
0.990458 0.005439 0.0
1.017667 0.063647 0.0
1.040152 0.112475 0.0
1.056790 0.151580 0.0
1.067114 0.181678 0.0
1.071047 0.204132 0.0