# vtk DataFile Version 3.0
Scalar Field
ASCII
DATASET RECTILINEAR_GRID
DIMENSIONS 100 26 1
X_COORDINATES 100 double
0.050000 0.150000 0.250000 0.350000 0.450000 0.550000 0.650000 0.750000 0.850000 0.950000 1.050000 1.150000 1.250000 1.350000 1.450000 1.550000 1.650000 1.750000 1.850000 1.950000 2.050000 2.150000 2.250000 2.350000 2.450000 2.550000 2.650000 2.750000 2.850000 2.950000 3.050000 3.150000 3.250000 3.350000 3.450000 3.550000 3.650000 3.750000 3.850000 3.950000 4.050000 4.150000 4.250000 4.350000 4.450000 4.550000 4.650000 4.750000 4.850000 4.950000 5.050000 5.150000 5.250000 5.350000 5.450000 5.550000 5.650000 5.750000 5.850000 5.950000 6.050000 6.150000 6.250000 6.350000 6.450000 6.550000 6.650000 6.750000 6.850000 6.950000 7.050000 7.150000 7.250000 7.350000 7.450000 7.550000 7.650000 7.750000 7.850000 7.950000 8.050000 8.150000 8.250000 8.350000 8.450000 8.550000 8.650000 8.750000 8.850000 8.950000 9.050000 9.150000 9.250000 9.350000 9.450000 9.550000 9.650000 9.750000 9.850000 9.950000 
Y_COORDINATES 26 double
0.050000 0.150000 0.250000 0.350000 0.450000 0.550000 0.650000 0.750000 0.850000 0.950000 1.050000 1.150000 1.250000 1.350000 1.450000 1.550000 1.650000 1.750000 1.850000 1.950000 2.050000 2.150000 2.250000 2.350000 2.450000 2.550000 
Z_COORDINATES 1 double
0.0
POINT_DATA 2600
SCALARS Skalarfeld double 1
LOOKUP_TABLE default
0.256914
0.241705
0.226731
0.208966
0.187337
0.161426
0.131261
0.097293
0.060450
0.022125
-0.015944
-0.051968
-0.084414
-0.112215
-0.134861
-0.152171
-0.164277
-0.171800
-0.175446
-0.175933
-0.173923
-0.169953
-0.164405
-0.157514
-0.149418
-0.140250
-0.130221
-0.119679
-0.109111
-0.099096
-0.090222
-0.082989
-0.077707
-0.074411
-0.072812
-0.072297
-0.072013
-0.071038
-0.068548
-0.063959
-0.057356
-0.048052
-0.038193
-0.029015
-0.021047
-0.014417
-0.009054
-0.004790
-0.001432
0.001212
0.003312
0.005006
0.006401
0.007571
0.008563
0.009406
0.010111
0.010680
0.011113
0.011407
0.011561
0.011578
0.011463
0.011226
0.010876
0.010425
0.009887
0.009274
0.008597
0.007868
0.007097
0.006292
0.005460
0.004608
0.003739
0.002860
0.001971
0.001077
0.000179
-0.000722
-0.001625
-0.002528
-0.003432
-0.004336
-0.005241
-0.006147
-0.007054
-0.007964
-0.008876
-0.009794
-0.010718
-0.011651
-0.012595
-0.013555
-0.014534
-0.015539
-0.016577
-0.017657
-0.018789
-0.019412
0.247931
0.241524
0.229512
0.212911
0.191600
0.165428
0.134454
0.099143
0.060508
0.020167
-0.019808
-0.057325
-0.090688
-0.118793
-0.141109
-0.157712
-0.169103
-0.175864
-0.178752
-0.178579
-0.176083
-0.171851
-0.166270
-0.159522
-0.151658
-0.142712
-0.132823
-0.122302
-0.111636
-0.101425
-0.092292
-0.084772
-0.079203
-0.075643
-0.073808
-0.073073
-0.072573
-0.071374
-0.068599
-0.063409
-0.055240
-0.046376
-0.037060
-0.028339
-0.020698
-0.014297
-0.009089
-0.004931
-0.001641
0.000963
0.003044
0.004735
0.006138
0.007324
0.008339
0.009205
0.009934
0.010527
0.010980
0.011292
0.011462
0.011493
0.011389
0.011161
0.010819
0.010375
0.009842
0.009233
0.008561
0.007836
0.007068
0.006266
0.005437
0.004587
0.003721
0.002844
0.001957
0.001065
0.000168
-0.000731
-0.001631
-0.002533
-0.003435
-0.004337
-0.005240
-0.006143
-0.007047
-0.007953
-0.008861
-0.009773
-0.010689
-0.011613
-0.012544
-0.013487
-0.014443
-0.015416
-0.016408
-0.017421
-0.018461
-0.019180
0.250767
0.246709
0.236570
0.220956
0.199843
0.173025
0.140427
0.102423
0.060138
0.015615
-0.028278
-0.068774
-0.103878
-0.132520
-0.154416
-0.169884
-0.179632
-0.184582
-0.185778
-0.184199
-0.180779
-0.176230
-0.170943
-0.164954
-0.158054
-0.150004
-0.140735
-0.130450
-0.119612
-0.108855
-0.098856
-0.090202
-0.083282
-0.078198
-0.074728
-0.072331
-0.070242
-0.067610
-0.063657
-0.057876
-0.050303
-0.041718
-0.033418
-0.025770
-0.018973
-0.013223
-0.008493
-0.004680
-0.001630
0.000812
0.002792
0.004428
0.005810
0.006998
0.008029
0.008921
0.009679
0.010301
0.010782
0.011117
0.011307
0.011354
0.011264
0.011047
0.010714
0.010278
0.009753
0.009151
0.008485
0.007766
0.007004
0.006208
0.005384
0.004539
0.003678
0.002805
0.001923
0.001035
0.000142
-0.000753
-0.001650
-0.002547
-0.003445
-0.004344
-0.005242
-0.006140
-0.007038
-0.007937
-0.008836
-0.009738
-0.010642
-0.011549
-0.012459
-0.013374
-0.014293
-0.015215
-0.016134
-0.017041
-0.017905
-0.018676
0.261103
0.257806
0.248684
0.233748
0.212635
0.184769
0.149666
0.107378
0.059078
0.007478
-0.042849
-0.087892
-0.125324
-0.154331
-0.175102
-0.188431
-0.195448
-0.197453
-0.195800
-0.191860
-0.186851
-0.181716
-0.176899
-0.172194
-0.166915
-0.160333
-0.152038
-0.142080
-0.130922
-0.119273
-0.107903
-0.097480
-0.088463
-0.081029
-0.075058
-0.070159
-0.065756
-0.061216
-0.056001
-0.049833
-0.042812
-0.035411
-0.028234
-0.021624
-0.015870
-0.011012
-0.006982
-0.003717
-0.001082
0.001057
0.002824
0.004320
0.005618
0.006766
0.007786
0.008687
0.009465
0.010110
0.010614
0.010971
0.011178
0.011238
0.011158
0.010948
0.010621
0.010189
0.009667
0.009069
0.008406
0.007691
0.006933
0.006141
0.005321
0.004481
0.003625
0.002756
0.001879
0.000996
0.000108
-0.000783
-0.001675
-0.002568
-0.003461
-0.004354
-0.005247
-0.006139
-0.007030
-0.007921
-0.008811
-0.009700
-0.010590
-0.011479
-0.012366
-0.013252
-0.014133
-0.015005
-0.015859
-0.016680
-0.017440
-0.018207
0.277497
0.274590
0.266233
0.251980
0.230947
0.201884
0.163461
0.114916
0.057170
-0.006226
-0.066635
-0.117902
-0.157750
-0.186257
-0.204541
-0.214151
-0.216811
-0.214292
-0.208364
-0.200794
-0.193274
-0.187217
-0.183266
-0.180786
-0.178157
-0.173782
-0.166739
-0.156951
-0.145014
-0.131867
-0.118493
-0.105712
-0.094085
-0.083881
-0.075093
-0.067483
-0.060667
-0.054226
-0.047814
-0.041263
-0.034621
-0.028119
-0.022044
-0.016602
-0.011929
-0.008001
-0.004797
-0.002190
-0.000076
0.001659
0.003128
0.004415
0.005577
0.006647
0.007632
0.008527
0.009316
0.009980
0.010505
0.010881
0.011103
0.011173
0.011098
0.010890
0.010563
0.010130
0.009607
0.009007
0.008344
0.007629
0.006871
0.006081
0.005263
0.004426
0.003573
0.002708
0.001835
0.000955
0.000071
-0.000815
-0.001703
-0.002591
-0.003480
-0.004367
-0.005254
-0.006139
-0.007023
-0.007906
-0.008786
-0.009664
-0.010538
-0.011409
-0.012275
-0.013134
-0.013981
-0.014811
-0.015615
-0.016380
-0.017084
-0.017839
0.299214
0.296703
0.289321
0.276236
0.255935
0.226140
0.183979
0.126805
0.054299
-0.029687
-0.105484
-0.164015
-0.204954
-0.230777
-0.244193
-0.247750
-0.243853
-0.234766
-0.222649
-0.209741
-0.198446
-0.191115
-0.188890
-0.190409
-0.192334
-0.191389
-0.185942
-0.175932
-0.162406
-0.146829
-0.130590
-0.114762
-0.100047
-0.086805
-0.075117
-0.064856
-0.055780
-0.047609
-0.040108
-0.033145
-0.026700
-0.020839
-0.015657
-0.011215
-0.007528
-0.004543
-0.002183
-0.000323
0.001178
0.002458
0.003584
0.004623
0.005621
0.006593
0.007534
0.008419
0.009219
0.009905
0.010452
0.010847
0.011081
0.011158
0.011086
0.010876
0.010543
0.010104
0.009574
0.008969
0.008300
0.007581
0.006822
0.006030
0.005212
0.004376
0.003524
0.002662
0.001791
0.000915
0.000035
-0.000848
-0.001732
-0.002616
-0.003499
-0.004382
-0.005263
-0.006142
-0.007019
-0.007893
-0.008764
-0.009630
-0.010491
-0.011346
-0.012192
-0.013026
-0.013845
-0.014643
-0.015412
-0.016140
-0.016814
-0.017561
0.325505
0.323573
0.317749
0.306902
0.288861
0.259994
0.214853
0.146666
0.050592
-0.072340
-0.169885
-0.233175
-0.270513
-0.289440
-0.294508
-0.289085
-0.276145
-0.258253
-0.237861
-0.217504
-0.200258
-0.190431
-0.190969
-0.199810
-0.209576
-0.213826
-0.210317
-0.199379
-0.183116
-0.163963
-0.143930
-0.124404
-0.106218
-0.089786
-0.075232
-0.062485
-0.051370
-0.041678
-0.033216
-0.025843
-0.019475
-0.014065
-0.009579
-0.005968
-0.003159
-0.001045
0.000503
0.001637
0.002509
0.003258
0.004026
0.004811
0.005642
0.006523
0.007429
0.008318
0.009143
0.009862
0.010440
0.010859
0.011108
0.011192
0.011118
0.010901
0.010559
0.010108
0.009567
0.008951
0.008274
0.007548
0.006783
0.005987
0.005167
0.004330
0.003479
0.002617
0.001748
0.000875
-0.000003
-0.000882
-0.001762
-0.002642
-0.003521
-0.004399
-0.005275
-0.006148
-0.007018
-0.007884
-0.008746
-0.009601
-0.010450
-0.011290
-0.012119
-0.012934
-0.013731
-0.014505
-0.015248
-0.015953
-0.016611
-0.017355
0.355290
0.354215
0.350816
0.343850
0.330724
0.306472
0.262029
0.182312
0.046796
-0.156330
-0.275915
-0.329582
-0.352843
-0.359263
-0.352577
-0.335756
-0.312486
-0.284097
-0.253464
-0.224066
-0.198923
-0.183177
-0.185382
-0.203426
-0.226931
-0.238904
-0.237517
-0.224684
-0.204536
-0.180962
-0.156693
-0.133342
-0.111769
-0.092365
-0.075238
-0.060328
-0.047485
-0.036523
-0.027256
-0.019520
-0.013173
-0.008092
-0.004157
-0.001240
0.000798
0.002119
0.002899
0.003328
0.003590
0.003848
0.004228
0.004791
0.005486
0.006311
0.007223
0.008155
0.009040
0.009818
0.010447
0.010902
0.011173
0.011264
0.011187
0.010961
0.010604
0.010138
0.009582
0.008951
0.008261
0.007525
0.006752
0.005950
0.005127
0.004287
0.003435
0.002574
0.001706
0.000834
-0.000041
-0.000917
-0.001794
-0.002670
-0.003545
-0.004419
-0.005290
-0.006157
-0.007021
-0.007880
-0.008734
-0.009580
-0.010418
-0.011246
-0.012061
-0.012861
-0.013641
-0.014397
-0.015123
-0.015814
-0.016463
-0.017209
0.386974
0.387047
0.387010
0.385868
0.381295
0.368029
0.334001
0.251284
0.049798
-0.335445
-0.437007
-0.439124
-0.435103
-0.427306
-0.408778
-0.384337
-0.350987
-0.311804
-0.270590
-0.231561
-0.199496
-0.176377
-0.175408
-0.197837
-0.231000
-0.258203
-0.258792
-0.243713
-0.219617
-0.192151
-0.164618
-0.138556
-0.114674
-0.093262
-0.074385
-0.057988
-0.043947
-0.032102
-0.022280
-0.014306
-0.008005
-0.003207
0.000259
0.002572
0.003921
0.004515
0.004578
0.004344
0.004036
0.003845
0.003907
0.004290
0.004921
0.005776
0.006779
0.007832
0.008840
0.009728
0.010441
0.010954
0.011259
0.011363
0.011284
0.011046
0.010673
0.010187
0.009611
0.008963
0.008258
0.007509
0.006726
0.005917
0.005089
0.004245
0.003392
0.002530
0.001663
0.000792
-0.000080
-0.000954
-0.001828
-0.002701
-0.003572
-0.004442
-0.005308
-0.006171
-0.007029
-0.007882
-0.008729
-0.009567
-0.010397
-0.011214
-0.012019
-0.012806
-0.013574
-0.014318
-0.015033
-0.015716
-0.016362
-0.017112
0.418433
0.419836
0.423786
0.429969
0.437383
0.442954
0.437149
0.388340
0.154374
-0.663659
-0.623155
-0.508223
-0.482035
-0.469771
-0.454166
-0.425140
-0.385762
-0.340443
-0.293773
-0.250204
-0.214016
-0.189889
-0.186349
-0.202243
-0.229111
-0.253094
-0.262009
-0.246307
-0.219976
-0.190859
-0.162663
-0.136314
-0.112233
-0.090574
-0.071374
-0.054612
-0.040229
-0.028130
-0.018188
-0.010250
-0.004147
0.000302
0.003288
0.005015
0.005707
0.005611
0.005000
0.004155
0.003342
0.002785
0.002640
0.002937
0.003649
0.004693
0.005936
0.007237
0.008469
0.009539
0.010388
0.010991
0.011348
0.011474
0.011397
0.011147
0.010755
0.010247
0.009649
0.008981
0.008259
0.007496
0.006702
0.005885
0.005050
0.004204
0.003348
0.002485
0.001618
0.000749
-0.000122
-0.000993
-0.001865
-0.002735
-0.003603
-0.004468
-0.005331
-0.006189
-0.007043
-0.007891
-0.008731
-0.009564
-0.010386
-0.011197
-0.011993
-0.012772
-0.013531
-0.014267
-0.014977
-0.015655
-0.016301
-0.017058
0.447221
0.449896
0.457708
0.471214
0.491363
0.519397
0.556177
0.598492
0.682434
0.009388
-0.558451
-0.493748
-0.483793
-0.483401
-0.470058
-0.445828
-0.411137
-0.370441
-0.329351
-0.292939
-0.263123
-0.244391
-0.235816
-0.236068
-0.240856
-0.245230
-0.241221
-0.226263
-0.202500
-0.174247
-0.148471
-0.124454
-0.102506
-0.082632
-0.064824
-0.049105
-0.035503
-0.024022
-0.014617
-0.007194
-0.001623
0.002251
0.004610
0.005657
0.005635
0.004827
0.003551
0.002143
0.000918
0.000130
-0.000047
0.000373
0.001423
0.002902
0.004594
0.006305
0.007881
0.009219
0.010260
0.010990
0.011420
0.011580
0.011510
0.011250
0.010838
0.010308
0.009687
0.008998
0.008258
0.007481
0.006675
0.005850
0.005010
0.004159
0.003301
0.002438
0.001572
0.000703
-0.000166
-0.001035
-0.001904
-0.002771
-0.003636
-0.004499
-0.005358
-0.006213
-0.007063
-0.007906
-0.008743
-0.009571
-0.010388
-0.011193
-0.011984
-0.012758
-0.013512
-0.014244
-0.014950
-0.015628
-0.016276
-0.017042
0.471007
0.474614
0.485233
0.503989
0.533061
0.576269
0.640322
0.736585
0.869659
0.900662
0.000000
-0.483521
-0.473295
-0.465604
-0.457523
-0.444780
-0.424799
-0.402763
-0.382225
-0.364357
-0.348468
-0.335822
-0.316824
-0.294656
-0.271405
-0.248286
-0.223155
-0.196150
-0.169372
-0.145969
-0.123431
-0.103218
-0.085066
-0.068644
-0.053780
-0.040482
-0.028851
-0.018990
-0.010945
-0.004702
-0.000190
0.002697
0.004105
0.004224
0.003305
0.001669
-0.000308
-0.002226
-0.003715
-0.004506
-0.004445
-0.003443
-0.001691
0.000498
0.002839
0.005100
0.007116
0.008784
0.010059
0.010942
0.011461
0.011664
0.011606
0.011338
0.010908
0.010357
0.009714
0.009005
0.008249
0.007458
0.006642
0.005809
0.004964
0.004110
0.003251
0.002387
0.001522
0.000654
-0.000213
-0.001080
-0.001947
-0.002811
-0.003674
-0.004534
-0.005390
-0.006242
-0.007089
-0.007930
-0.008763
-0.009588
-0.010402
-0.011204
-0.011992
-0.012763
-0.013515
-0.014246
-0.014952
-0.015632
-0.016284
-0.017059
0.488092
0.492105
0.503880
0.524557
0.556189
0.601784
0.664872
0.747475
0.844214
0.931665
0.842833
0.000000
-0.459643
-0.445992
-0.434146
-0.430777
-0.431932
-0.437582
-0.447621
-0.457327
-0.459568
-0.446962
-0.412071
-0.364252
-0.311398
-0.259585
-0.212629
-0.170361
-0.136160
-0.109970
-0.089869
-0.074340
-0.060729
-0.048755
-0.037915
-0.028111
-0.019474
-0.012186
-0.006373
-0.002084
0.000688
0.001997
0.001948
0.000720
-0.001410
-0.004061
-0.006769
-0.009058
-0.010515
-0.010874
-0.009963
-0.007927
-0.005184
-0.002112
0.000972
0.003832
0.006307
0.008312
0.009821
0.010855
0.011463
0.011711
0.011666
0.011394
0.010950
0.010380
0.009719
0.008994
0.008223
0.007421
0.006598
0.005759
0.004911
0.004055
0.003195
0.002332
0.001468
0.000602
-0.000263
-0.001128
-0.001992
-0.002855
-0.003715
-0.004572
-0.005427
-0.006277
-0.007122
-0.007961
-0.008792
-0.009616
-0.010429
-0.011230
-0.012017
-0.012788
-0.013540
-0.014272
-0.014981
-0.015664
-0.016321
-0.017106
0.497741
0.501624
0.512920
0.532411
0.561372
0.601474
0.654079
0.717341
0.777495
0.797378
0.754001
0.637591
0.000000
-0.430806
-0.415620
-0.419320
-0.437858
-0.470334
-0.512696
-0.551599
-0.568918
-0.547979
-0.495323
-0.424277
-0.346498
-0.271075
-0.203619
-0.147576
-0.104608
-0.073967
-0.053358
-0.039901
-0.031110
-0.023820
-0.017497
-0.011788
-0.006822
-0.002853
-0.000057
0.001484
0.001746
0.000751
-0.001406
-0.004516
-0.008221
-0.012024
-0.015353
-0.017676
-0.018627
-0.017807
-0.015426
-0.012126
-0.008319
-0.004382
-0.000616
0.002764
0.005623
0.007900
0.009595
0.010747
0.011424
0.011706
0.011673
0.011399
0.010946
0.010363
0.009690
0.008954
0.008174
0.007366
0.006538
0.005697
0.004848
0.003992
0.003133
0.002272
0.001409
0.000546
-0.000317
-0.001180
-0.002042
-0.002902
-0.003760
-0.004615
-0.005468
-0.006317
-0.007161
-0.007999
-0.008830
-0.009654
-0.010467
-0.011269
-0.012058
-0.012831
-0.013586
-0.014321
-0.015034
-0.015723
-0.016387
-0.017182
0.500208
0.503571
0.513285
0.529771
0.553554
0.584776
0.622132
0.660548
0.686716
0.675278
0.608491
0.521182
0.355446
0.000000
-0.420892
-0.426165
-0.441785
-0.489063
-0.555091
-0.619060
-0.648860
-0.616191
-0.546677
-0.457224
-0.361792
-0.270620
-0.190300
-0.124608
-0.074746
-0.039795
-0.017488
-0.004768
0.001679
0.004696
0.006580
0.008133
0.009213
0.009431
0.008597
0.006662
0.003629
-0.000446
-0.005400
-0.010899
-0.016417
-0.021289
-0.024849
-0.026622
-0.026087
-0.023401
-0.019609
-0.015165
-0.010475
-0.005877
-0.001631
0.002089
0.005181
0.007615
0.009410
0.010625
0.011337
0.011637
0.011611
0.011337
0.010881
0.010295
0.009617
0.008878
0.008097
0.007288
0.006460
0.005620
0.004773
0.003920
0.003064
0.002205
0.001346
0.000485
-0.000375
-0.001235
-0.002094
-0.002952
-0.003808
-0.004662
-0.005514
-0.006362
-0.007206
-0.008044
-0.008877
-0.009702
-0.010517
-0.011322
-0.012114
-0.012891
-0.013652
-0.014392
-0.015112
-0.015808
-0.016478
-0.017284
0.496461
0.499077
0.506522
0.518806
0.535707
0.556276
0.577910
0.594779
0.595762
0.563214
0.479545
0.336957
0.189711
-0.228102
-0.454619
-0.397457
-0.421171
-0.485269
-0.569140
-0.645812
-0.667803
-0.627526
-0.550474
-0.454143
-0.352970
-0.257104
-0.172825
-0.103448
-0.050020
-0.011921
0.012614
0.026172
0.031947
0.033250
0.032114
0.030112
0.027711
0.024149
0.019319
0.013338
0.006350
-0.001445
-0.009687
-0.017798
-0.025003
-0.030470
-0.033551
-0.033559
-0.030757
-0.026658
-0.021785
-0.016568
-0.011356
-0.006426
-0.001981
0.001848
0.004995
0.007452
0.009255
0.010472
0.011186
0.011487
0.011465
0.011196
0.010745
0.010165
0.009494
0.008761
0.007986
0.007183
0.006362
0.005528
0.004686
0.003838
0.002986
0.002133
0.001277
0.000421
-0.000436
-0.001293
-0.002150
-0.003005
-0.003860
-0.004713
-0.005564
-0.006412
-0.007256
-0.008096
-0.008931
-0.009759
-0.010578
-0.011388
-0.012186
-0.012970
-0.013737
-0.014486
-0.015213
-0.015917
-0.016596
-0.017412
0.487881
0.489633
0.494518
0.502252
0.512140
0.522659
0.530790
0.531064
0.514495
0.467759
0.373489
0.208842
-0.074390
-0.645914
-0.511781
-0.398314
-0.412990
-0.478516
-0.560219
-0.625469
-0.628193
-0.585723
-0.511641
-0.421016
-0.326419
-0.236700
-0.157253
-0.090786
-0.038100
0.001182
0.028011
0.043823
0.051102
0.053255
0.052920
0.049963
0.045568
0.038782
0.030034
0.019882
0.008763
-0.002834
-0.014219
-0.024477
-0.032605
-0.037729
-0.038617
-0.036118
-0.032091
-0.027163
-0.021792
-0.016328
-0.011044
-0.006149
-0.001795
0.001924
0.004966
0.007336
0.009075
0.010250
0.010943
0.011239
0.011223
0.010967
0.010533
0.009971
0.009318
0.008602
0.007842
0.007053
0.006243
0.005419
0.004586
0.003746
0.002902
0.002054
0.001204
0.000352
-0.000500
-0.001354
-0.002208
-0.003061
-0.003914
-0.004766
-0.005617
-0.006466
-0.007312
-0.008154
-0.008992
-0.009824
-0.010650
-0.011466
-0.012271
-0.013064
-0.013841
-0.014600
-0.015338
-0.016052
-0.016740
-0.017566
0.476067
0.476969
0.479378
0.482854
0.486489
0.488600
0.486296
0.474935
0.447581
0.394562
0.303084
0.156752
-0.064502
-0.338789
-0.382887
-0.377688
-0.404398
-0.458334
-0.518214
-0.551145
-0.545496
-0.507602
-0.445710
-0.370373
-0.291060
-0.214827
-0.146213
-0.087663
-0.040090
-0.003411
0.023052
0.040491
0.050779
0.056076
0.058806
0.060100
0.055800
0.047289
0.035991
0.022905
0.008826
-0.005345
-0.018477
-0.029338
-0.036950
-0.039166
-0.037761
-0.034520
-0.030179
-0.025242
-0.020059
-0.014896
-0.009959
-0.005409
-0.001367
0.002089
0.004927
0.007148
0.008789
0.009909
0.010579
0.010878
0.010879
0.010650
0.010247
0.009716
0.009093
0.008403
0.007667
0.006898
0.006105
0.005296
0.004476
0.003646
0.002811
0.001971
0.001127
0.000281
-0.000567
-0.001417
-0.002267
-0.003119
-0.003971
-0.004822
-0.005673
-0.006523
-0.007371
-0.008217
-0.009060
-0.009898
-0.010730
-0.011555
-0.012370
-0.013174
-0.013964
-0.014736
-0.015486
-0.016213
-0.016912
-0.017747
0.462596
0.462739
0.462971
0.462813
0.461339
0.456972
0.447232
0.428467
0.395661
0.342430
0.261353
0.145438
-0.006289
-0.170537
-0.259998
-0.308494
-0.351904
-0.397865
-0.437082
-0.454383
-0.448815
-0.420491
-0.374254
-0.316930
-0.255181
-0.194386
-0.138312
-0.089230
-0.048218
-0.015483
0.009385
0.027300
0.039612
0.047881
0.053695
0.055445
0.052392
0.045001
0.034175
0.020988
0.006658
-0.007429
-0.019767
-0.029034
-0.033194
-0.033964
-0.032580
-0.029781
-0.026100
-0.021910
-0.017480
-0.013020
-0.008704
-0.004677
-0.001054
0.002085
0.004695
0.006766
0.008321
0.009404
0.010073
0.010395
0.010433
0.010249
0.009892
0.009406
0.008823
0.008170
0.007465
0.006722
0.005951
0.005161
0.004356
0.003539
0.002715
0.001884
0.001048
0.000208
-0.000635
-0.001481
-0.002328
-0.003178
-0.004028
-0.004879
-0.005731
-0.006583
-0.007434
-0.008283
-0.009131
-0.009976
-0.010818
-0.011653
-0.012481
-0.013299
-0.014104
-0.014892
-0.015660
-0.016401
-0.017113
-0.017958
0.448872
0.448377
0.446808
0.443731
0.438328
0.429266
0.414576
0.391558
0.356801
0.306421
0.236708
0.145634
0.036297
-0.077751
-0.165167
-0.228258
-0.278403
-0.320289
-0.350931
-0.365220
-0.362874
-0.344001
-0.311508
-0.269776
-0.223403
-0.176393
-0.131788
-0.091614
-0.057002
-0.028367
-0.005569
0.011957
0.025094
0.034885
0.041410
0.044072
0.042614
0.037265
0.028673
0.017817
0.005950
-0.005483
-0.015024
-0.021329
-0.024721
-0.025975
-0.025569
-0.023953
-0.021483
-0.018433
-0.015018
-0.011424
-0.007817
-0.004345
-0.001135
0.001716
0.004140
0.006109
0.007624
0.008712
0.009416
0.009792
0.009893
0.009774
0.009480
0.009051
0.008520
0.007910
0.007242
0.006531
0.005786
0.005017
0.004230
0.003428
0.002615
0.001794
0.000966
0.000133
-0.000704
-0.001545
-0.002390
-0.003237
-0.004086
-0.004937
-0.005789
-0.006643
-0.007497
-0.008352
-0.009206
-0.010060
-0.010911
-0.011759
-0.012602
-0.013437
-0.014261
-0.015070
-0.015859
-0.016620
-0.017348
-0.018203
0.436076
0.435055
0.432031
0.426682
0.418365
0.406041
0.388236
0.363046
0.328259
0.281651
0.221576
0.147990
0.064063
-0.022361
-0.098218
-0.160143
-0.210178
-0.249746
-0.277879
-0.292897
-0.294492
-0.283259
-0.261237
-0.231403
-0.197002
-0.161022
-0.125875
-0.093296
-0.064363
-0.039592
-0.019046
-0.002455
0.010665
0.020849
0.027949
0.031751
0.032174
0.029380
0.023847
0.016352
0.007912
-0.000351
-0.007386
-0.012669
-0.016249
-0.018293
-0.019030
-0.018698
-0.017507
-0.015640
-0.013260
-0.010525
-0.007593
-0.004620
-0.001750
0.000892
0.003212
0.005153
0.006693
0.007840
0.008624
0.009088
0.009278
0.009244
0.009027
0.008667
0.008194
0.007635
0.007009
0.006332
0.005615
0.004869
0.004100
0.003314
0.002514
0.001704
0.000885
0.000059
-0.000773
-0.001609
-0.002450
-0.003295
-0.004143
-0.004994
-0.005847
-0.006703
-0.007561
-0.008421
-0.009283
-0.010145
-0.011008
-0.011870
-0.012730
-0.013586
-0.014434
-0.015269
-0.016085
-0.016873
-0.017622
-0.018489
0.425182
0.423699
0.419460
0.412324
0.401859
0.387310
0.367617
0.341483
0.307518
0.264511
0.211858
0.150177
0.082014
0.012185
-0.052808
-0.109382
-0.156586
-0.194115
-0.221333
-0.237547
-0.242470
-0.236894
-0.222419
-0.201228
-0.175725
-0.148181
-0.120510
-0.094150
-0.070058
-0.048757
-0.030426
-0.014994
-0.002250
0.008030
0.015733
0.020728
0.022996
0.022657
0.020033
0.015652
0.010203
0.004443
-0.001020
-0.005685
-0.009368
-0.012045
-0.013758
-0.014574
-0.014568
-0.013817
-0.012415
-0.010476
-0.008142
-0.005574
-0.002938
-0.000394
0.001926
0.003930
0.005570
0.006835
0.007741
0.008324
0.008625
0.008690
0.008561
0.008275
0.007865
0.007358
0.006775
0.006133
0.005445
0.004722
0.003973
0.003202
0.002415
0.001615
0.000805
-0.000013
-0.000839
-0.001671
-0.002508
-0.003351
-0.004197
-0.005048
-0.005903
-0.006762
-0.007624
-0.008489
-0.009358
-0.010231
-0.011106
-0.011984
-0.012863
-0.013742
-0.014619
-0.015487
-0.016340
-0.017166
-0.017946
-0.018826
0.417051
0.415055
0.409655
0.401004
0.388895
0.372803
0.351973
0.325528
0.292611
0.252595
0.205380
0.151741
0.093648
0.034285
-0.022466
-0.073643
-0.117510
-0.153034
-0.179522
-0.196511
-0.203800
-0.202179
-0.192981
-0.177932
-0.158911
-0.137706
-0.115843
-0.094489
-0.074441
-0.056164
-0.039870
-0.025597
-0.013297
-0.002919
0.005443
0.011594
0.015509
0.017245
0.016993
0.015084
0.011954
0.008051
0.003789
-0.000304
-0.004013
-0.007195
-0.009754
-0.011615
-0.012716
-0.013019
-0.012528
-0.011305
-0.009468
-0.007182
-0.004643
-0.002057
0.000385
0.002550
0.004362
0.005795
0.006856
0.007576
0.007998
0.008165
0.008122
0.007909
0.007559
0.007101
0.006558
0.005948
0.005286
0.004584
0.003852
0.003096
0.002321
0.001532
0.000730
-0.000082
-0.000902
-0.001729
-0.002563
-0.003403
-0.004249
-0.005100
-0.005956
-0.006817
-0.007683
-0.008554
-0.009431
-0.010313
-0.011201
-0.012096
-0.012996
-0.013902
-0.014812
-0.015721
-0.016623
-0.017503
-0.018336
-0.019226
0.412640
0.409757
0.402939
0.392818
0.379351
0.362130
0.340581
0.314089
0.282119
0.244368
0.200967
0.152684
0.101074
0.048435
-0.002538
-0.049418
-0.090362
-0.124050
-0.149780
-0.167055
-0.175827
-0.176816
-0.171191
-0.160406
-0.146013
-0.129474
-0.112020
-0.094587
-0.077806
-0.062051
-0.047511
-0.034267
-0.022363
-0.011860
-0.002817
0.004428
0.009782
0.013220
0.014841
0.014847
0.013448
0.010821
0.007510
0.003840
0.000068
-0.003586
-0.006921
-0.009739
-0.011853
-0.013110
-0.013424
-0.012797
-0.011330
-0.009196
-0.006610
-0.003835
-0.001161
0.001240
0.003269
0.004889
0.006108
0.006959
0.007487
0.007742
0.007771
0.007616
0.007314
0.006895
0.006383
0.005797
0.005155
0.004469
0.003750
0.003006
0.002241
0.001459
0.000665
-0.000141
-0.000956
-0.001780
-0.002611
-0.003449
-0.004293
-0.005145
-0.006002
-0.006866
-0.007736
-0.008612
-0.009496
-0.010388
-0.011289
-0.012201
-0.013123
-0.014057
-0.015003
-0.015961
-0.016925
-0.017887
-0.018819
-0.019699
0.413616
0.408287
0.399316
0.387607
0.372961
0.354887
0.332843
0.306363
0.275090
0.238889
0.197987
0.153103
0.105527
0.057072
0.009858
-0.034046
-0.072854
-0.105004
-0.130155
-0.147473
-0.157107
-0.159724
-0.156380
-0.148360
-0.137013
-0.123588
-0.109123
-0.094391
-0.079903
-0.065958
-0.052713
-0.040262
-0.028693
-0.018142
-0.008823
-0.000647
0.005863
0.010583
0.013574
0.014841
0.014376
0.012640
0.009918
0.006502
0.002666
-0.001325
-0.005203
-0.008689
-0.011513
-0.013438
-0.014312
-0.014098
-0.012887
-0.010861
-0.008205
-0.005176
-0.002273
0.000341
0.002546
0.004303
0.005627
0.006561
0.007157
0.007467
0.007542
0.007425
0.007156
0.006767
0.006275
0.005703
0.005072
0.004396
0.003685
0.002947
0.002187
0.001411
0.000621
-0.000181
-0.000993
-0.001814
-0.002643
-0.003480
-0.004325
-0.005177
-0.006036
-0.006902
-0.007776
-0.008658
-0.009549
-0.010450
-0.011363
-0.012289
-0.013231
-0.014192
-0.015174
-0.016181
-0.017215
-0.018278
-0.019376
-0.020177
0.424473
0.410307
0.398228
0.385139
0.369644
0.350989
0.328655
0.302201
0.271337
0.235991
0.196409
0.153257
0.107683
0.061279
0.015918
-0.026522
-0.064426
-0.096684
-0.121609
-0.138967
-0.148980
-0.152297
-0.149913
-0.143032
-0.132909
-0.120707
-0.107392
-0.093684
-0.080064
-0.066817
-0.054102
-0.042026
-0.030697
-0.020266
-0.010932
-0.002889
0.003942
0.009167
0.012473
0.013923
0.013840
0.012452
0.010028
0.006842
0.003166
-0.000733
-0.004579
-0.008090
-0.010984
-0.013021
-0.014034
-0.013975
-0.012918
-0.011046
-0.008610
-0.005824
-0.002817
-0.000061
0.002252
0.004081
0.005452
0.006417
0.007035
0.007362
0.007451
0.007346
0.007083
0.006693
0.006210
0.005649
0.005027
0.004358
0.003652
0.002919
0.002163
0.001390
0.000602
-0.000198
-0.001008
-0.001828
-0.002656
-0.003493
-0.004337
-0.005190
-0.006052
-0.006922
-0.007799
-0.008684
-0.009578
-0.010484
-0.011403
-0.012339
-0.013293
-0.014270
-0.015274
-0.016311
-0.017389
-0.018516
-0.019699
-0.020383
