# vtk DataFile Version 3.0
Vector Field
ASCII
DATASET RECTILINEAR_GRID
DIMENSIONS 100 26 1
X_COORDINATES 100 double
0.050000 0.150000 0.250000 0.350000 0.450000 0.550000 0.650000 0.750000 0.850000 0.950000 1.050000 1.150000 1.250000 1.350000 1.450000 1.550000 1.650000 1.750000 1.850000 1.950000 2.050000 2.150000 2.250000 2.350000 2.450000 2.550000 2.650000 2.750000 2.850000 2.950000 3.050000 3.150000 3.250000 3.350000 3.450000 3.550000 3.650000 3.750000 3.850000 3.950000 4.050000 4.150000 4.250000 4.350000 4.450000 4.550000 4.650000 4.750000 4.850000 4.950000 5.050000 5.150000 5.250000 5.350000 5.450000 5.550000 5.650000 5.750000 5.850000 5.950000 6.050000 6.150000 6.250000 6.350000 6.450000 6.550000 6.650000 6.750000 6.850000 6.950000 7.050000 7.150000 7.250000 7.350000 7.450000 7.550000 7.650000 7.750000 7.850000 7.950000 8.050000 8.150000 8.250000 8.350000 8.450000 8.550000 8.650000 8.750000 8.850000 8.950000 9.050000 9.150000 9.250000 9.350000 9.450000 9.550000 9.650000 9.750000 9.850000 9.950000 
Y_COORDINATES 26 double
0.050000 0.150000 0.250000 0.350000 0.450000 0.550000 0.650000 0.750000 0.850000 0.950000 1.050000 1.150000 1.250000 1.350000 1.450000 1.550000 1.650000 1.750000 1.850000 1.950000 2.050000 2.150000 2.250000 2.350000 2.450000 2.550000 
Z_COORDINATES 1 double
0.0
POINT_DATA 2600
VECTORS Vektorfeld double
0.997596 0.002404 0.0
0.992554 0.002639 0.0
0.988630 0.001286 0.0
0.988119 -0.000774 0.0
0.992055 -0.003162 0.0
1.000839 -0.005622 0.0
1.014370 -0.007908 0.0
1.032044 -0.009766 0.0
1.052767 -0.010957 0.0
1.075045 -0.011321 0.0
1.097193 -0.010827 0.0
1.117586 -0.009565 0.0
1.134827 -0.007676 0.0
1.147796 -0.005292 0.0
1.155623 -0.002535 0.0
1.157799 0.000359 0.0
1.153997 0.003443 0.0
1.143755 0.006799 0.0
1.126599 0.010358 0.0
1.102249 0.013992 0.0
1.070724 0.017533 0.0
1.032395 0.020797 0.0
0.987993 0.023605 0.0
0.938590 0.025797 0.0
0.885554 0.027239 0.0
0.830488 0.027826 0.0
0.775176 0.027486 0.0
0.721494 0.026195 0.0
0.671305 0.023995 0.0
0.626292 0.021018 0.0
0.587797 0.017478 0.0
0.556676 0.013643 0.0
0.533243 0.009791 0.0
0.517318 0.006134 0.0
0.508513 0.002670 0.0
0.506493 -0.000650 0.0
0.510109 -0.002967 0.0
0.517361 -0.004285 0.0
0.526525 -0.004879 0.0
0.536413 -0.005009 0.0
0.546297 -0.004874 0.0
0.555773 -0.004602 0.0
0.564646 -0.004271 0.0
0.572840 -0.003923 0.0
0.580345 -0.003582 0.0
0.587182 -0.003256 0.0
0.593385 -0.002947 0.0
0.598989 -0.002657 0.0
0.604029 -0.002383 0.0
0.608537 -0.002126 0.0
0.612549 -0.001886 0.0
0.616097 -0.001663 0.0
0.619217 -0.001457 0.0
0.621945 -0.001270 0.0
0.624317 -0.001102 0.0
0.626371 -0.000951 0.0
0.628140 -0.000818 0.0
0.629660 -0.000702 0.0
0.630962 -0.000600 0.0
0.632073 -0.000512 0.0
0.633022 -0.000436 0.0
0.633829 -0.000371 0.0
0.634516 -0.000316 0.0
0.635101 -0.000269 0.0
0.635598 -0.000229 0.0
0.636021 -0.000194 0.0
0.636381 -0.000165 0.0
0.636687 -0.000141 0.0
0.636948 -0.000120 0.0
0.637171 -0.000102 0.0
0.637360 -0.000087 0.0
0.637523 -0.000075 0.0
0.637662 -0.000064 0.0
0.637781 -0.000055 0.0
0.637884 -0.000048 0.0
0.637973 -0.000041 0.0
0.638051 -0.000036 0.0
0.638120 -0.000032 0.0
0.638181 -0.000029 0.0
0.638237 -0.000027 0.0
0.638289 -0.000025 0.0
0.638339 -0.000025 0.0
0.638389 -0.000025 0.0
0.638441 -0.000027 0.0
0.638497 -0.000029 0.0
0.638559 -0.000033 0.0
0.638630 -0.000038 0.0
0.638715 -0.000046 0.0
0.638817 -0.000056 0.0
0.638943 -0.000070 0.0
0.639102 -0.000088 0.0
0.639302 -0.000113 0.0
0.639560 -0.000145 0.0
0.639896 -0.000190 0.0
0.640339 -0.000253 0.0
0.640934 -0.000342 0.0
0.641751 -0.000475 0.0
0.642907 -0.000681 0.0
0.644619 -0.001032 0.0
0.646991 -0.001340 0.0
1.002885 0.001922 0.0
1.011118 -0.000071 0.0
1.023776 -0.004739 0.0
1.040359 -0.010822 0.0
1.060930 -0.017623 0.0
1.085539 -0.024555 0.0
1.114010 -0.030976 0.0
1.145807 -0.036169 0.0
1.179970 -0.039440 0.0
1.215144 -0.040291 0.0
1.249800 -0.038662 0.0
1.282554 -0.034877 0.0
1.312349 -0.029400 0.0
1.338442 -0.022630 0.0
1.360246 -0.014829 0.0
1.376944 -0.006222 0.0
1.387559 0.003211 0.0
1.391314 0.013517 0.0
1.387637 0.024473 0.0
1.376178 0.035686 0.0
1.356907 0.046635 0.0
1.330182 0.056749 0.0
1.296759 0.065479 0.0
1.257740 0.072345 0.0
1.214505 0.076963 0.0
1.168630 0.079044 0.0
1.121798 0.078413 0.0
1.075712 0.075035 0.0
1.031988 0.069068 0.0
0.992054 0.060892 0.0
0.957048 0.051106 0.0
0.927729 0.040453 0.0
0.904440 0.029703 0.0
0.887087 0.019500 0.0
0.874983 0.010213 0.0
0.866659 0.002152 0.0
0.861163 -0.003889 0.0
0.858385 -0.007837 0.0
0.858011 -0.010116 0.0
0.859595 -0.011244 0.0
0.862704 -0.011633 0.0
0.866961 -0.011577 0.0
0.872061 -0.011269 0.0
0.877769 -0.010826 0.0
0.883895 -0.010311 0.0
0.890288 -0.009758 0.0
0.896820 -0.009180 0.0
0.903378 -0.008585 0.0
0.909863 -0.007978 0.0
0.916187 -0.007364 0.0
0.922279 -0.006750 0.0
0.928077 -0.006144 0.0
0.933536 -0.005555 0.0
0.938627 -0.004991 0.0
0.943331 -0.004458 0.0
0.947643 -0.003961 0.0
0.951568 -0.003503 0.0
0.955119 -0.003087 0.0
0.958313 -0.002710 0.0
0.961173 -0.002373 0.0
0.963723 -0.002073 0.0
0.965989 -0.001808 0.0
0.967998 -0.001575 0.0
0.969773 -0.001370 0.0
0.971339 -0.001191 0.0
0.972718 -0.001034 0.0
0.973931 -0.000898 0.0
0.974996 -0.000780 0.0
0.975931 -0.000677 0.0
0.976751 -0.000588 0.0
0.977470 -0.000511 0.0
0.978099 -0.000444 0.0
0.978651 -0.000386 0.0
0.979134 -0.000336 0.0
0.979558 -0.000293 0.0
0.979929 -0.000256 0.0
0.980254 -0.000225 0.0
0.980540 -0.000198 0.0
0.980791 -0.000176 0.0
0.981012 -0.000157 0.0
0.981208 -0.000143 0.0
0.981382 -0.000132 0.0
0.981538 -0.000124 0.0
0.981680 -0.000120 0.0
0.981809 -0.000120 0.0
0.981929 -0.000124 0.0
0.982044 -0.000133 0.0
0.982156 -0.000148 0.0
0.982269 -0.000170 0.0
0.982387 -0.000201 0.0
0.982515 -0.000243 0.0
0.982657 -0.000301 0.0
0.982821 -0.000379 0.0
0.983015 -0.000486 0.0
0.983249 -0.000634 0.0
0.983534 -0.000842 0.0
0.983884 -0.001143 0.0
0.984308 -0.001592 0.0
0.984787 -0.002312 0.0
0.985351 -0.002996 0.0
1.001789 -0.002752 0.0
1.008165 -0.010006 0.0
1.019773 -0.019068 0.0
1.036197 -0.029500 0.0
1.057455 -0.040774 0.0
1.083641 -0.052200 0.0
1.114668 -0.062829 0.0
1.150020 -0.071465 0.0
1.188567 -0.076855 0.0
1.228492 -0.077974 0.0
1.267664 -0.074807 0.0
1.304330 -0.068152 0.0
1.337405 -0.058996 0.0
1.366351 -0.048073 0.0
1.390873 -0.035712 0.0
1.410686 -0.021850 0.0
1.425319 -0.006408 0.0
1.434153 0.010547 0.0
1.436563 0.028710 0.0
1.432079 0.047392 0.0
1.420582 0.065696 0.0
1.402348 0.082647 0.0
1.378021 0.097331 0.0
1.348544 0.108988 0.0
1.315055 0.117043 0.0
1.278786 0.121108 0.0
1.240978 0.120988 0.0
1.202820 0.116704 0.0
1.165403 0.108539 0.0
1.129685 0.097072 0.0
1.096456 0.083162 0.0
1.066307 0.067865 0.0
1.039595 0.052293 0.0
1.016408 0.037450 0.0
0.996591 0.024183 0.0
0.979917 0.013180 0.0
0.966026 0.004471 0.0
0.954629 -0.002023 0.0
0.945709 -0.006636 0.0
0.939188 -0.009787 0.0
0.934878 -0.011888 0.0
0.932566 -0.013266 0.0
0.932031 -0.014147 0.0
0.933049 -0.014673 0.0
0.935388 -0.014929 0.0
0.938815 -0.014960 0.0
0.943097 -0.014792 0.0
0.948013 -0.014447 0.0
0.953355 -0.013944 0.0
0.958937 -0.013306 0.0
0.964599 -0.012561 0.0
0.970207 -0.011739 0.0
0.975656 -0.010869 0.0
0.980866 -0.009978 0.0
0.985782 -0.009091 0.0
0.990367 -0.008226 0.0
0.994604 -0.007400 0.0
0.998486 -0.006623 0.0
1.002019 -0.005901 0.0
1.005214 -0.005238 0.0
1.008090 -0.004635 0.0
1.010668 -0.004090 0.0
1.012969 -0.003602 0.0
1.015017 -0.003166 0.0
1.016835 -0.002779 0.0
1.018446 -0.002436 0.0
1.019870 -0.002133 0.0
1.021127 -0.001867 0.0
1.022236 -0.001633 0.0
1.023212 -0.001428 0.0
1.024071 -0.001248 0.0
1.024826 -0.001091 0.0
1.025490 -0.000954 0.0
1.026073 -0.000834 0.0
1.026585 -0.000730 0.0
1.027035 -0.000640 0.0
1.027430 -0.000562 0.0
1.027777 -0.000494 0.0
1.028082 -0.000436 0.0
1.028350 -0.000387 0.0
1.028587 -0.000346 0.0
1.028797 -0.000312 0.0
1.028983 -0.000286 0.0
1.029149 -0.000266 0.0
1.029298 -0.000253 0.0
1.029434 -0.000247 0.0
1.029559 -0.000250 0.0
1.029677 -0.000261 0.0
1.029789 -0.000283 0.0
1.029899 -0.000317 0.0
1.030011 -0.000366 0.0
1.030126 -0.000436 0.0
1.030249 -0.000531 0.0
1.030383 -0.000661 0.0
1.030529 -0.000838 0.0
1.030686 -0.001080 0.0
1.030846 -0.001415 0.0
1.030982 -0.001880 0.0
1.031016 -0.002537 0.0
1.030910 -0.003229 0.0
1.001397 -0.005937 0.0
1.006828 -0.018629 0.0
1.017466 -0.032691 0.0
1.033346 -0.048181 0.0
1.054794 -0.064798 0.0
1.082251 -0.081819 0.0
1.115992 -0.097978 0.0
1.155724 -0.111399 0.0
1.200213 -0.119957 0.0
1.246708 -0.121291 0.0
1.291708 -0.115661 0.0
1.332750 -0.105006 0.0
1.368845 -0.091312 0.0
1.399966 -0.075823 0.0
1.426388 -0.058907 0.0
1.448170 -0.040250 0.0
1.464870 -0.019341 0.0
1.475606 0.003910 0.0
1.479500 0.029043 0.0
1.475989 0.055055 0.0
1.464956 0.080563 0.0
1.446870 0.104100 0.0
1.422690 0.124385 0.0
1.393654 0.140448 0.0
1.361074 0.151652 0.0
1.326188 0.157654 0.0
1.290073 0.158365 0.0
1.253621 0.153937 0.0
1.217555 0.144789 0.0
1.182469 0.131627 0.0
1.148869 0.115436 0.0
1.117196 0.097414 0.0
1.087809 0.078842 0.0
1.060970 0.060926 0.0
1.036836 0.044658 0.0
1.015507 0.030709 0.0
0.997049 0.019292 0.0
0.981432 0.010171 0.0
0.968533 0.002989 0.0
0.958273 -0.002633 0.0
0.950603 -0.007062 0.0
0.945406 -0.010584 0.0
0.942505 -0.013393 0.0
0.941667 -0.015607 0.0
0.942619 -0.017286 0.0
0.945059 -0.018468 0.0
0.948676 -0.019183 0.0
0.953170 -0.019466 0.0
0.958264 -0.019360 0.0
0.963713 -0.018921 0.0
0.969313 -0.018208 0.0
0.974899 -0.017286 0.0
0.980345 -0.016216 0.0
0.985557 -0.015053 0.0
0.990473 -0.013847 0.0
0.995054 -0.012636 0.0
0.999281 -0.011453 0.0
1.003148 -0.010319 0.0
1.006662 -0.009251 0.0
1.009836 -0.008258 0.0
1.012690 -0.007345 0.0
1.015245 -0.006513 0.0
1.017525 -0.005760 0.0
1.019554 -0.005084 0.0
1.021354 -0.004479 0.0
1.022948 -0.003941 0.0
1.024358 -0.003463 0.0
1.025603 -0.003040 0.0
1.026700 -0.002666 0.0
1.027667 -0.002338 0.0
1.028518 -0.002048 0.0
1.029266 -0.001795 0.0
1.029924 -0.001572 0.0
1.030502 -0.001377 0.0
1.031009 -0.001207 0.0
1.031455 -0.001059 0.0
1.031847 -0.000929 0.0
1.032191 -0.000817 0.0
1.032493 -0.000720 0.0
1.032759 -0.000637 0.0
1.032993 -0.000567 0.0
1.033199 -0.000508 0.0
1.033382 -0.000459 0.0
1.033544 -0.000421 0.0
1.033688 -0.000392 0.0
1.033818 -0.000374 0.0
1.033936 -0.000366 0.0
1.034045 -0.000370 0.0
1.034146 -0.000387 0.0
1.034241 -0.000418 0.0
1.034334 -0.000468 0.0
1.034425 -0.000540 0.0
1.034515 -0.000640 0.0
1.034604 -0.000775 0.0
1.034691 -0.000956 0.0
1.034769 -0.001197 0.0
1.034823 -0.001513 0.0
1.034828 -0.001923 0.0
1.034736 -0.002435 0.0
1.034513 -0.003002 0.0
1.001192 -0.008527 0.0
1.005982 -0.026260 0.0
1.015719 -0.045434 0.0
1.030863 -0.066462 0.0
1.052226 -0.089328 0.0
1.080878 -0.113397 0.0
1.117854 -0.137117 0.0
1.163502 -0.157640 0.0
1.216929 -0.171633 0.0
1.273352 -0.172534 0.0
1.325981 -0.162047 0.0
1.371341 -0.145024 0.0
1.409230 -0.125278 0.0
1.440972 -0.104719 0.0
1.468085 -0.083546 0.0
1.491419 -0.060727 0.0
1.510635 -0.034779 0.0
1.524168 -0.004922 0.0
1.530120 0.028028 0.0
1.527225 0.062476 0.0
1.515157 0.096241 0.0
1.494568 0.127097 0.0
1.466862 0.153275 0.0
1.433818 0.173637 0.0
1.397237 0.187624 0.0
1.358693 0.195112 0.0
1.319429 0.196286 0.0
1.280343 0.191554 0.0
1.242055 0.181528 0.0
1.204993 0.167036 0.0
1.169493 0.149127 0.0
1.135854 0.129036 0.0
1.104365 0.108096 0.0
1.075285 0.087590 0.0
1.048829 0.068584 0.0
1.025162 0.051779 0.0
1.004404 0.037436 0.0
0.986624 0.025423 0.0
0.971852 0.015408 0.0
0.960074 0.006986 0.0
0.951231 -0.000166 0.0
0.945215 -0.006266 0.0
0.941837 -0.011432 0.0
0.940822 -0.015716 0.0
0.941835 -0.019140 0.0
0.944502 -0.021721 0.0
0.948448 -0.023493 0.0
0.953313 -0.024515 0.0
0.958774 -0.024866 0.0
0.964555 -0.024646 0.0
0.970432 -0.023961 0.0
0.976233 -0.022920 0.0
0.981828 -0.021623 0.0
0.987131 -0.020162 0.0
0.992087 -0.018611 0.0
0.996665 -0.017033 0.0
1.000857 -0.015475 0.0
1.004666 -0.013973 0.0
1.008107 -0.012551 0.0
1.011198 -0.011224 0.0
1.013965 -0.010000 0.0
1.016432 -0.008881 0.0
1.018627 -0.007867 0.0
1.020574 -0.006953 0.0
1.022297 -0.006134 0.0
1.023821 -0.005404 0.0
1.025167 -0.004754 0.0
1.026353 -0.004179 0.0
1.027398 -0.003670 0.0
1.028317 -0.003221 0.0
1.029126 -0.002825 0.0
1.029837 -0.002477 0.0
1.030462 -0.002172 0.0
1.031010 -0.001904 0.0
1.031492 -0.001670 0.0
1.031915 -0.001465 0.0
1.032286 -0.001286 0.0
1.032611 -0.001130 0.0
1.032897 -0.000996 0.0
1.033149 -0.000879 0.0
1.033369 -0.000780 0.0
1.033563 -0.000695 0.0
1.033734 -0.000625 0.0
1.033885 -0.000568 0.0
1.034019 -0.000523 0.0
1.034138 -0.000492 0.0
1.034244 -0.000473 0.0
1.034339 -0.000467 0.0
1.034425 -0.000477 0.0
1.034503 -0.000503 0.0
1.034575 -0.000548 0.0
1.034640 -0.000616 0.0
1.034699 -0.000712 0.0
1.034748 -0.000842 0.0
1.034785 -0.001013 0.0
1.034802 -0.001234 0.0
1.034785 -0.001513 0.0
1.034715 -0.001857 0.0
1.034565 -0.002259 0.0
1.034315 -0.002707 0.0
1.000989 -0.010708 0.0
1.005030 -0.032909 0.0
1.013479 -0.056972 0.0
1.027163 -0.083752 0.0
1.047477 -0.113714 0.0
1.076410 -0.146597 0.0
1.116361 -0.180844 0.0
1.169197 -0.212398 0.0
1.236090 -0.237195 0.0
1.307007 -0.234311 0.0
1.367091 -0.212982 0.0
1.412833 -0.185190 0.0
1.447111 -0.157279 0.0
1.474149 -0.131497 0.0
1.497677 -0.107408 0.0
1.520074 -0.082597 0.0
1.541582 -0.053632 0.0
1.559755 -0.017774 0.0
1.570476 0.024206 0.0
1.570591 0.069078 0.0
1.559113 0.113186 0.0
1.536828 0.153026 0.0
1.505740 0.186140 0.0
1.468321 0.211235 0.0
1.426968 0.227961 0.0
1.383698 0.236588 0.0
1.340040 0.237733 0.0
1.297045 0.232187 0.0
1.255381 0.220846 0.0
1.215453 0.204707 0.0
1.177519 0.184890 0.0
1.141779 0.162652 0.0
1.108414 0.139334 0.0
1.077600 0.116245 0.0
1.049501 0.094484 0.0
1.024271 0.074777 0.0
1.002059 0.057409 0.0
0.983006 0.042283 0.0
0.967230 0.029097 0.0
0.954798 0.017507 0.0
0.945694 0.007260 0.0
0.939787 -0.001769 0.0
0.936831 -0.009595 0.0
0.936478 -0.016185 0.0
0.938305 -0.021511 0.0
0.941860 -0.025574 0.0
0.946694 -0.028421 0.0
0.952391 -0.030149 0.0
0.958588 -0.030890 0.0
0.964987 -0.030802 0.0
0.971354 -0.030050 0.0
0.977520 -0.028797 0.0
0.983368 -0.027189 0.0
0.988824 -0.025355 0.0
0.993852 -0.023400 0.0
0.998439 -0.021408 0.0
1.002590 -0.019443 0.0
1.006325 -0.017549 0.0
1.009668 -0.015758 0.0
1.012649 -0.014089 0.0
1.015299 -0.012551 0.0
1.017649 -0.011147 0.0
1.019728 -0.009875 0.0
1.021565 -0.008729 0.0
1.023186 -0.007703 0.0
1.024615 -0.006788 0.0
1.025873 -0.005974 0.0
1.026981 -0.005253 0.0
1.027954 -0.004614 0.0
1.028810 -0.004051 0.0
1.029562 -0.003555 0.0
1.030222 -0.003118 0.0
1.030802 -0.002735 0.0
1.031310 -0.002398 0.0
1.031757 -0.002103 0.0
1.032148 -0.001845 0.0
1.032491 -0.001620 0.0
1.032792 -0.001423 0.0
1.033056 -0.001252 0.0
1.033288 -0.001105 0.0
1.033491 -0.000978 0.0
1.033668 -0.000869 0.0
1.033824 -0.000778 0.0
1.033961 -0.000703 0.0
1.034081 -0.000642 0.0
1.034186 -0.000597 0.0
1.034278 -0.000566 0.0
1.034358 -0.000550 0.0
1.034428 -0.000550 0.0
1.034487 -0.000568 0.0
1.034538 -0.000605 0.0
1.034578 -0.000665 0.0
1.034606 -0.000751 0.0
1.034621 -0.000868 0.0
1.034616 -0.001020 0.0
1.034585 -0.001213 0.0
1.034517 -0.001450 0.0
1.034398 -0.001731 0.0
1.034213 -0.002049 0.0
1.033949 -0.002402 0.0
1.000707 -0.012405 0.0
1.003643 -0.038189 0.0
1.009982 -0.066481 0.0
1.020803 -0.098749 0.0
1.038038 -0.136265 0.0
1.064790 -0.179732 0.0
1.105582 -0.228450 0.0
1.165509 -0.277555 0.0
1.252761 -0.326183 0.0
1.342643 -0.306122 0.0
1.402444 -0.261056 0.0
1.435985 -0.216400 0.0
1.454285 -0.178647 0.0
1.465782 -0.148663 0.0
1.476745 -0.124733 0.0
1.491641 -0.102564 0.0
1.512390 -0.075922 0.0
1.536868 -0.038136 0.0
1.557469 0.013245 0.0
1.566281 0.071112 0.0
1.560537 0.128374 0.0
1.541236 0.179423 0.0
1.511149 0.220918 0.0
1.473511 0.251513 0.0
1.431278 0.271269 0.0
1.386799 0.281028 0.0
1.341785 0.281964 0.0
1.297403 0.275333 0.0
1.254399 0.262370 0.0
1.213224 0.244286 0.0
1.174153 0.222316 0.0
1.137361 0.197758 0.0
1.102986 0.171968 0.0
1.071153 0.146258 0.0
1.042007 0.121716 0.0
1.015734 0.099048 0.0
0.992566 0.078517 0.0
0.972764 0.060031 0.0
0.956562 0.043328 0.0
0.944108 0.028162 0.0
0.935407 0.014410 0.0
0.930300 0.002095 0.0
0.928461 -0.008665 0.0
0.929441 -0.017741 0.0
0.932713 -0.025054 0.0
0.937725 -0.030597 0.0
0.943942 -0.034448 0.0
0.950884 -0.036760 0.0
0.958147 -0.037738 0.0
0.965415 -0.037619 0.0
0.972454 -0.036640 0.0
0.979108 -0.035028 0.0
0.985284 -0.032981 0.0
0.990933 -0.030669 0.0
0.996046 -0.028227 0.0
1.000635 -0.025758 0.0
1.004729 -0.023339 0.0
1.008364 -0.021023 0.0
1.011580 -0.018844 0.0
1.014419 -0.016823 0.0
1.016921 -0.014968 0.0
1.019122 -0.013281 0.0
1.021058 -0.011756 0.0
1.022759 -0.010386 0.0
1.024254 -0.009161 0.0
1.025565 -0.008070 0.0
1.026717 -0.007101 0.0
1.027728 -0.006243 0.0
1.028614 -0.005484 0.0
1.029392 -0.004815 0.0
1.030075 -0.004225 0.0
1.030673 -0.003707 0.0
1.031198 -0.003251 0.0
1.031658 -0.002851 0.0
1.032061 -0.002500 0.0
1.032415 -0.002193 0.0
1.032724 -0.001925 0.0
1.032995 -0.001690 0.0
1.033233 -0.001487 0.0
1.033440 -0.001310 0.0
1.033622 -0.001157 0.0
1.033780 -0.001026 0.0
1.033918 -0.000915 0.0
1.034038 -0.000822 0.0
1.034142 -0.000746 0.0
1.034231 -0.000687 0.0
1.034308 -0.000644 0.0
1.034372 -0.000616 0.0
1.034424 -0.000606 0.0
1.034465 -0.000613 0.0
1.034495 -0.000639 0.0
1.034511 -0.000687 0.0
1.034513 -0.000759 0.0
1.034496 -0.000858 0.0
1.034457 -0.000986 0.0
1.034389 -0.001147 0.0
1.034284 -0.001342 0.0
1.034131 -0.001568 0.0
1.033923 -0.001819 0.0
1.033649 -0.002095 0.0
1.000308 -0.013420 0.0
1.001628 -0.041429 0.0
1.004700 -0.072651 0.0
1.010591 -0.109292 0.0
1.021426 -0.153792 0.0
1.041166 -0.208699 0.0
1.076898 -0.276007 0.0
1.139609 -0.352636 0.0
1.255412 -0.454158 0.0
1.362107 -0.374724 0.0
1.395675 -0.285822 0.0
1.392130 -0.221631 0.0
1.376189 -0.175775 0.0
1.357766 -0.144610 0.0
1.343493 -0.125475 0.0
1.339470 -0.112696 0.0
1.350535 -0.097605 0.0
1.378253 -0.068648 0.0
1.415335 -0.013925 0.0
1.444980 0.059826 0.0
1.456731 0.133653 0.0
1.451773 0.198403 0.0
1.433943 0.249855 0.0
1.407173 0.286984 0.0
1.374626 0.310578 0.0
1.338621 0.322204 0.0
1.300803 0.323621 0.0
1.262332 0.316529 0.0
1.224032 0.302478 0.0
1.186492 0.282892 0.0
1.150137 0.259136 0.0
1.115282 0.232584 0.0
1.082177 0.204622 0.0
1.051064 0.176550 0.0
1.022226 0.149406 0.0
0.996034 0.123823 0.0
0.972933 0.100010 0.0
0.953393 0.077882 0.0
0.937802 0.057269 0.0
0.926388 0.038089 0.0
0.919155 0.020417 0.0
0.915875 0.004475 0.0
0.916124 -0.009456 0.0
0.919340 -0.021146 0.0
0.924878 -0.030460 0.0
0.932068 -0.037393 0.0
0.940273 -0.042075 0.0
0.948943 -0.044745 0.0
0.957638 -0.045711 0.0
0.966036 -0.045310 0.0
0.973920 -0.043872 0.0
0.981167 -0.041697 0.0
0.987721 -0.039041 0.0
0.993577 -0.036115 0.0
0.998763 -0.033080 0.0
1.003327 -0.030057 0.0
1.007326 -0.027132 0.0
1.010820 -0.024359 0.0
1.013868 -0.021773 0.0
1.016526 -0.019391 0.0
1.018842 -0.017218 0.0
1.020861 -0.015252 0.0
1.022623 -0.013482 0.0
1.024160 -0.011898 0.0
1.025503 -0.010486 0.0
1.026676 -0.009231 0.0
1.027701 -0.008118 0.0
1.028598 -0.007134 0.0
1.029383 -0.006265 0.0
1.030070 -0.005499 0.0
1.030671 -0.004825 0.0
1.031197 -0.004232 0.0
1.031658 -0.003711 0.0
1.032062 -0.003254 0.0
1.032415 -0.002853 0.0
1.032724 -0.002502 0.0
1.032995 -0.002195 0.0
1.033231 -0.001927 0.0
1.033438 -0.001694 0.0
1.033618 -0.001490 0.0
1.033775 -0.001315 0.0
1.033911 -0.001163 0.0
1.034029 -0.001034 0.0
1.034130 -0.000925 0.0
1.034217 -0.000834 0.0
1.034289 -0.000761 0.0
1.034349 -0.000705 0.0
1.034397 -0.000666 0.0
1.034432 -0.000644 0.0
1.034455 -0.000639 0.0
1.034464 -0.000652 0.0
1.034459 -0.000685 0.0
1.034436 -0.000740 0.0
1.034394 -0.000818 0.0
1.034327 -0.000920 0.0
1.034230 -0.001048 0.0
1.034097 -0.001202 0.0
1.033921 -0.001379 0.0
1.033695 -0.001573 0.0
1.033414 -0.001787 0.0
0.999790 -0.013517 0.0
0.998985 -0.041847 0.0
0.997578 -0.073900 0.0
0.996185 -0.112541 0.0
0.996301 -0.161493 0.0
1.001445 -0.225883 0.0
1.019811 -0.312920 0.0
1.069637 -0.428260 0.0
1.211243 -0.635944 0.0
1.307666 -0.396056 0.0
1.260067 -0.250459 0.0
1.188274 -0.181656 0.0
1.125106 -0.136640 0.0
1.068171 -0.108388 0.0
1.019304 -0.098556 0.0
0.986683 -0.102971 0.0
0.980083 -0.111794 0.0
1.006292 -0.108386 0.0
1.063776 -0.068754 0.0
1.131370 0.017417 0.0
1.182766 0.112916 0.0
1.212579 0.194284 0.0
1.226761 0.257623 0.0
1.229626 0.303122 0.0
1.223980 0.332633 0.0
1.211706 0.348429 0.0
1.194215 0.352706 0.0
1.172691 0.347439 0.0
1.148183 0.334376 0.0
1.121619 0.315097 0.0
1.093809 0.291096 0.0
1.065445 0.263843 0.0
1.037148 0.234765 0.0
1.009533 0.205136 0.0
0.983281 0.175909 0.0
0.959170 0.147625 0.0
0.938021 0.120458 0.0
0.920592 0.094403 0.0
0.907446 0.069483 0.0
0.898859 0.045875 0.0
0.894793 0.023930 0.0
0.894929 0.004107 0.0
0.898735 -0.013143 0.0
0.905527 -0.027466 0.0
0.914507 -0.038657 0.0
0.924852 -0.046731 0.0
0.935817 -0.051908 0.0
0.946791 -0.054556 0.0
0.957321 -0.055126 0.0
0.967110 -0.054082 0.0
0.975991 -0.051866 0.0
0.983900 -0.048859 0.0
0.990846 -0.045379 0.0
0.996885 -0.041673 0.0
1.002100 -0.037923 0.0
1.006582 -0.034261 0.0
1.010427 -0.030772 0.0
1.013722 -0.027508 0.0
1.016548 -0.024497 0.0
1.018974 -0.021750 0.0
1.021060 -0.019262 0.0
1.022858 -0.017025 0.0
1.024412 -0.015023 0.0
1.025756 -0.013239 0.0
1.026921 -0.011653 0.0
1.027933 -0.010249 0.0
1.028814 -0.009006 0.0
1.029581 -0.007910 0.0
1.030249 -0.006943 0.0
1.030833 -0.006092 0.0
1.031342 -0.005343 0.0
1.031787 -0.004685 0.0
1.032176 -0.004108 0.0
1.032516 -0.003601 0.0
1.032813 -0.003157 0.0
1.033073 -0.002768 0.0
1.033299 -0.002427 0.0
1.033497 -0.002130 0.0
1.033669 -0.001870 0.0
1.033819 -0.001644 0.0
1.033949 -0.001448 0.0
1.034061 -0.001278 0.0
1.034157 -0.001132 0.0
1.034238 -0.001008 0.0
1.034305 -0.000904 0.0
1.034360 -0.000819 0.0
1.034403 -0.000750 0.0
1.034433 -0.000699 0.0
1.034452 -0.000664 0.0
1.034457 -0.000646 0.0
1.034448 -0.000645 0.0
1.034423 -0.000662 0.0
1.034380 -0.000698 0.0
1.034316 -0.000753 0.0
1.034227 -0.000828 0.0
1.034107 -0.000924 0.0
1.033954 -0.001039 0.0
1.033760 -0.001172 0.0
1.033522 -0.001317 0.0
1.033236 -0.001476 0.0
0.999210 -0.012517 0.0
0.995992 -0.038824 0.0
0.989356 -0.068880 0.0
0.978961 -0.105772 0.0
0.964504 -0.153921 0.0
0.946356 -0.220451 0.0
0.927806 -0.318168 0.0
0.923464 -0.468497 0.0
1.015344 -0.829193 0.0
1.010450 -0.193389 0.0
0.822543 -0.106069 0.0
0.677176 -0.098282 0.0
0.588954 -0.068624 0.0
0.509898 -0.040414 0.0
0.444383 -0.052148 0.0
0.423581 -0.095957 0.0
0.450792 -0.139419 0.0
0.510429 -0.166608 0.0
0.593592 -0.151179 0.0
0.694730 -0.068891 0.0
0.790930 0.051629 0.0
0.863922 0.152765 0.0
0.919448 0.229434 0.0
0.962383 0.285509 0.0
0.994155 0.324119 0.0
1.015496 0.347876 0.0
1.027253 0.358993 0.0
1.030521 0.359407 0.0
1.026565 0.350872 0.0
1.016697 0.335033 0.0
1.002189 0.313481 0.0
0.984241 0.287770 0.0
0.964025 0.259352 0.0
0.942743 0.229446 0.0
0.921683 0.198911 0.0
0.902182 0.168236 0.0
0.885504 0.137673 0.0
0.872678 0.107442 0.0
0.864375 0.077894 0.0
0.860859 0.049567 0.0
0.862039 0.023124 0.0
0.867538 -0.000722 0.0
0.876734 -0.021317 0.0
0.888734 -0.038085 0.0
0.902486 -0.050770 0.0
0.916992 -0.059470 0.0
0.931424 -0.064565 0.0
0.945164 -0.066613 0.0
0.957808 -0.066242 0.0
0.969129 -0.064076 0.0
0.979051 -0.060675 0.0
0.987602 -0.056510 0.0
0.994879 -0.051952 0.0
1.001018 -0.047278 0.0
1.006167 -0.042682 0.0
1.010475 -0.038293 0.0
1.014077 -0.034187 0.0
1.017093 -0.030405 0.0
1.019626 -0.026959 0.0
1.021761 -0.023848 0.0
1.023566 -0.021056 0.0
1.025101 -0.018564 0.0
1.026409 -0.016346 0.0
1.027530 -0.014380 0.0
1.028493 -0.012640 0.0
1.029323 -0.011104 0.0
1.030040 -0.009749 0.0
1.030661 -0.008555 0.0
1.031201 -0.007505 0.0
1.031669 -0.006582 0.0
1.032077 -0.005771 0.0
1.032433 -0.005058 0.0
1.032743 -0.004433 0.0
1.033013 -0.003885 0.0
1.033249 -0.003405 0.0
1.033454 -0.002984 0.0
1.033633 -0.002616 0.0
1.033789 -0.002294 0.0
1.033924 -0.002013 0.0
1.034040 -0.001768 0.0
1.034141 -0.001554 0.0
1.034226 -0.001369 0.0
1.034299 -0.001209 0.0
1.034358 -0.001072 0.0
1.034407 -0.000956 0.0
1.034443 -0.000858 0.0
1.034469 -0.000779 0.0
1.034483 -0.000715 0.0
1.034485 -0.000668 0.0
1.034474 -0.000636 0.0
1.034448 -0.000620 0.0
1.034406 -0.000620 0.0
1.034346 -0.000636 0.0
1.034263 -0.000668 0.0
1.034156 -0.000716 0.0
1.034019 -0.000781 0.0
1.033850 -0.000859 0.0
1.033643 -0.000951 0.0
1.033396 -0.001052 0.0
1.033106 -0.001163 0.0
0.998673 -0.010399 0.0
0.993212 -0.032264 0.0
0.981642 -0.057234 0.0
0.962480 -0.087863 0.0
0.932969 -0.127862 0.0
0.888029 -0.183421 0.0
0.817706 -0.266324 0.0
0.702607 -0.400899 0.0
0.315339 -0.702349 0.0
-0.458671 0.245582 0.0
-0.458671 0.000000 0.0
-0.034624 -0.024190 0.0
-0.066940 -0.032612 0.0
-0.040219 -0.024091 0.0
0.023711 -0.066886 0.0
0.090064 -0.126770 0.0
0.132279 -0.178032 0.0
0.166094 -0.221446 0.0
0.215596 -0.229007 0.0
0.293403 -0.170009 0.0
0.397430 -0.047480 0.0
0.501578 0.074734 0.0
0.590181 0.163337 0.0
0.668287 0.230565 0.0
0.734756 0.280823 0.0
0.788406 0.316182 0.0
0.829118 0.338218 0.0
0.857621 0.348411 0.0
0.875168 0.348278 0.0
0.883269 0.339394 0.0
0.883534 0.323362 0.0
0.877632 0.301738 0.0
0.867310 0.275923 0.0
0.854421 0.247046 0.0
0.840878 0.215914 0.0
0.828514 0.183098 0.0
0.818899 0.149105 0.0
0.813192 0.114542 0.0
0.812099 0.080191 0.0
0.815927 0.046958 0.0
0.824678 0.015802 0.0
0.837946 -0.012166 0.0
0.854664 -0.035786 0.0
0.873380 -0.054331 0.0
0.892766 -0.067662 0.0
0.911786 -0.076103 0.0
0.929702 -0.080280 0.0
0.946041 -0.080978 0.0
0.960542 -0.079022 0.0
0.973118 -0.075194 0.0
0.983811 -0.070172 0.0
0.992754 -0.064507 0.0
1.000139 -0.058616 0.0
1.006180 -0.052793 0.0
1.011093 -0.047229 0.0
1.015079 -0.042039 0.0
1.018315 -0.037278 0.0
1.020949 -0.032964 0.0
1.023104 -0.029088 0.0
1.024876 -0.025627 0.0
1.026344 -0.022551 0.0
1.027568 -0.019827 0.0
1.028595 -0.017419 0.0
1.029462 -0.015295 0.0
1.030197 -0.013424 0.0
1.030825 -0.011777 0.0
1.031362 -0.010330 0.0
1.031824 -0.009058 0.0
1.032223 -0.007940 0.0
1.032567 -0.006960 0.0
1.032865 -0.006099 0.0
1.033124 -0.005344 0.0
1.033349 -0.004682 0.0
1.033544 -0.004102 0.0
1.033714 -0.003594 0.0
1.033862 -0.003149 0.0
1.033990 -0.002759 0.0
1.034100 -0.002418 0.0
1.034196 -0.002120 0.0
1.034278 -0.001859 0.0
1.034347 -0.001632 0.0
1.034406 -0.001435 0.0
1.034453 -0.001264 0.0
1.034491 -0.001116 0.0
1.034519 -0.000989 0.0
1.034538 -0.000881 0.0
1.034546 -0.000790 0.0
1.034544 -0.000716 0.0
1.034531 -0.000656 0.0
1.034505 -0.000611 0.0
1.034464 -0.000580 0.0
1.034408 -0.000562 0.0
1.034333 -0.000558 0.0
1.034236 -0.000567 0.0
1.034114 -0.000589 0.0
1.033964 -0.000622 0.0
1.033783 -0.000667 0.0
1.033567 -0.000721 0.0
1.033313 -0.000782 0.0
1.033019 -0.000850 0.0
0.998301 -0.007373 0.0
0.991294 -0.022823 0.0
0.976356 -0.040165 0.0
0.951332 -0.060746 0.0
0.912082 -0.086219 0.0
0.850630 -0.118672 0.0
0.750336 -0.160456 0.0
0.572090 -0.213423 0.0
0.228271 -0.256982 0.0
0.000000 0.245582 0.0
-0.000000 -0.000000 0.0
0.000000 0.000000 0.0
-0.019157 -0.017460 0.0
-0.042095 -0.044722 0.0
-0.046225 -0.106055 0.0
-0.061694 -0.138485 0.0
-0.095624 -0.174604 0.0
-0.123806 -0.230506 0.0
-0.123642 -0.269613 0.0
-0.075976 -0.254875 0.0
0.028236 -0.170854 0.0
0.164049 -0.041853 0.0
0.290245 0.065124 0.0
0.396120 0.144796 0.0
0.488277 0.207965 0.0
0.566416 0.257252 0.0
0.629753 0.293099 0.0
0.678635 0.316145 0.0
0.714185 0.327447 0.0
0.737952 0.328357 0.0
0.751746 0.320339 0.0
0.757598 0.304811 0.0
0.757744 0.283025 0.0
0.754556 0.256020 0.0
0.750376 0.224662 0.0
0.747322 0.189768 0.0
0.747138 0.152233 0.0
0.751155 0.113104 0.0
0.760305 0.073574 0.0
0.775124 0.034927 0.0
0.795348 -0.001143 0.0
0.819301 -0.032441 0.0
0.844713 -0.057642 0.0
0.869902 -0.076380 0.0
0.893817 -0.088914 0.0
0.915843 -0.095898 0.0
0.935650 -0.098209 0.0
0.953089 -0.096826 0.0
0.968141 -0.092727 0.0
0.980886 -0.086810 0.0
0.991481 -0.079844 0.0
1.000140 -0.072439 0.0
1.007114 -0.065043 0.0
1.012664 -0.057956 0.0
1.017042 -0.051357 0.0
1.020479 -0.045334 0.0
1.023174 -0.039914 0.0
1.025292 -0.035081 0.0
1.026966 -0.030799 0.0
1.028298 -0.027020 0.0
1.029367 -0.023695 0.0
1.030233 -0.020773 0.0
1.030941 -0.018208 0.0
1.031525 -0.015957 0.0
1.032010 -0.013983 0.0
1.032417 -0.012252 0.0
1.032760 -0.010735 0.0
1.033051 -0.009405 0.0
1.033299 -0.008239 0.0
1.033511 -0.007217 0.0
1.033693 -0.006322 0.0
1.033850 -0.005537 0.0
1.033985 -0.004849 0.0
1.034101 -0.004247 0.0
1.034202 -0.003719 0.0
1.034289 -0.003257 0.0
1.034364 -0.002853 0.0
1.034428 -0.002499 0.0
1.034482 -0.002189 0.0
1.034528 -0.001918 0.0
1.034565 -0.001681 0.0
1.034595 -0.001474 0.0
1.034618 -0.001294 0.0
1.034633 -0.001138 0.0
1.034641 -0.001003 0.0
1.034642 -0.000886 0.0
1.034634 -0.000786 0.0
1.034617 -0.000701 0.0
1.034589 -0.000630 0.0
1.034550 -0.000572 0.0
1.034497 -0.000526 0.0
1.034428 -0.000491 0.0
1.034341 -0.000467 0.0
1.034233 -0.000453 0.0
1.034101 -0.000449 0.0
1.033941 -0.000453 0.0
1.033751 -0.000465 0.0
1.033528 -0.000483 0.0
1.033269 -0.000507 0.0
1.032973 -0.000534 0.0
0.998169 -0.003843 0.0
0.990636 -0.011813 0.0
0.974655 -0.020257 0.0
0.948187 -0.029162 0.0
0.907618 -0.037983 0.0
0.847017 -0.044854 0.0
0.757533 -0.044496 0.0
0.628502 -0.022106 0.0
0.464357 0.062368 0.0
0.187991 0.169916 0.0
0.000000 0.000000 0.0
-0.000000 -0.000000 0.0
0.000000 0.000000 0.0
-0.022714 -0.020470 0.0
-0.076738 -0.074397 0.0
-0.157163 -0.074246 0.0
-0.246105 -0.115971 0.0
-0.305323 -0.201740 0.0
-0.323789 -0.280077 0.0
-0.302646 -0.313219 0.0
-0.237216 -0.282151 0.0
-0.115592 -0.187992 0.0
0.036441 -0.066964 0.0
0.170854 0.036597 0.0
0.280045 0.114815 0.0
0.373228 0.179080 0.0
0.450966 0.230195 0.0
0.513450 0.267682 0.0
0.561777 0.292032 0.0
0.597499 0.304282 0.0
0.622511 0.305608 0.0
0.639065 0.297136 0.0
0.649729 0.279890 0.0
0.657240 0.254833 0.0
0.664306 0.222962 0.0
0.673426 0.185403 0.0
0.686730 0.143477 0.0
0.705815 0.098757 0.0
0.731489 0.053097 0.0
0.763031 0.009043 0.0
0.797235 -0.029689 0.0
0.830611 -0.061223 0.0
0.861514 -0.085175 0.0
0.889343 -0.101866 0.0
0.913974 -0.111973 0.0
0.935494 -0.116385 0.0
0.954079 -0.116114 0.0
0.969937 -0.112219 0.0
0.983289 -0.105738 0.0
0.994364 -0.097618 0.0
1.003401 -0.088667 0.0
1.010649 -0.079524 0.0
1.016362 -0.070647 0.0
1.020795 -0.062334 0.0
1.024184 -0.054747 0.0
1.026748 -0.047945 0.0
1.028671 -0.041922 0.0