# vtk DataFile Version 3.0
Scalar Field
ASCII
DATASET RECTILINEAR_GRID
DIMENSIONS 100 26 1
X_COORDINATES 100 double
0.050000 0.150000 0.250000 0.350000 0.450000 0.550000 0.650000 0.750000 0.850000 0.950000 1.050000 1.150000 1.250000 1.350000 1.450000 1.550000 1.650000 1.750000 1.850000 1.950000 2.050000 2.150000 2.250000 2.350000 2.450000 2.550000 2.650000 2.750000 2.850000 2.950000 3.050000 3.150000 3.250000 3.350000 3.450000 3.550000 3.650000 3.750000 3.850000 3.950000 4.050000 4.150000 4.250000 4.350000 4.450000 4.550000 4.650000 4.750000 4.850000 4.950000 5.050000 5.150000 5.250000 5.350000 5.450000 5.550000 5.650000 5.750000 5.850000 5.950000 6.050000 6.150000 6.250000 6.350000 6.450000 6.550000 6.650000 6.750000 6.850000 6.950000 7.050000 7.150000 7.250000 7.350000 7.450000 7.550000 7.650000 7.750000 7.850000 7.950000 8.050000 8.150000 8.250000 8.350000 8.450000 8.550000 8.650000 8.750000 8.850000 8.950000 9.050000 9.150000 9.250000 9.350000 9.450000 9.550000 9.650000 9.750000 9.850000 9.950000 
Y_COORDINATES 26 double
0.050000 0.150000 0.250000 0.350000 0.450000 0.550000 0.650000 0.750000 0.850000 0.950000 1.050000 1.150000 1.250000 1.350000 1.450000 1.550000 1.650000 1.750000 1.850000 1.950000 2.050000 2.150000 2.250000 2.350000 2.450000 2.550000 
Z_COORDINATES 1 double
0.0
POINT_DATA 2600
SCALARS Skalarfeld double 1
LOOKUP_TABLE default
0.283725
0.268745
0.254397
0.237641
0.217345
0.193043
0.164643
0.132421
0.097052
0.059623
0.021538
-0.015710
-0.050791
-0.082695
-0.110779
-0.134732
-0.154316
-0.169030
-0.178859
-0.183839
-0.184171
-0.180288
-0.172883
-0.162872
-0.151300
-0.139207
-0.127497
-0.116816
-0.107473
-0.099426
-0.092337
-0.085697
-0.078995
-0.071859
-0.064147
-0.055922
-0.047495
-0.038275
-0.029334
-0.021300
-0.014400
-0.008631
-0.003877
0.000013
0.003186
0.005771
0.007870
0.009562
0.010904
0.011939
0.012700
0.013216
0.013508
0.013600
0.013514
0.013269
0.012886
0.012386
0.011784
0.011099
0.010345
0.009534
0.008678
0.007787
0.006867
0.005925
0.004967
0.003996
0.003017
0.002031
0.001041
0.000049
-0.000945
-0.001939
-0.002933
-0.003927
-0.004920
-0.005912
-0.006904
-0.007894
-0.008884
-0.009874
-0.010865
-0.011856
-0.012848
-0.013843
-0.014842
-0.015845
-0.016855
-0.017874
-0.018904
-0.019948
-0.021013
-0.022102
-0.023226
-0.024393
-0.025619
-0.026926
-0.028339
-0.029115
0.274345
0.268176
0.256818
0.241269
0.221393
0.196961
0.167921
0.134553
0.097613
0.058384
0.018576
-0.020058
-0.056078
-0.088502
-0.116775
-0.140589
-0.159801
-0.174606
-0.184604
-0.189716
-0.190063
-0.186024
-0.178274
-0.167752
-0.155548
-0.142763
-0.130350
-0.118993
-0.109023
-0.100405
-0.092799
-0.085697
-0.078588
-0.071113
-0.063122
-0.054551
-0.045240
-0.036350
-0.027902
-0.020334
-0.013803
-0.008304
-0.003737
0.000028
0.003123
0.005663
0.007739
0.009422
0.010765
0.011806
0.012575
0.013099
0.013401
0.013501
0.013422
0.013185
0.012809
0.012314
0.011719
0.011040
0.010291
0.009485
0.008634
0.007746
0.006830
0.005892
0.004937
0.003970
0.002993
0.002010
0.001023
0.000033
-0.000959
-0.001952
-0.002944
-0.003937
-0.004928
-0.005919
-0.006909
-0.007898
-0.008887
-0.009876
-0.010864
-0.011854
-0.012844
-0.013837
-0.014832
-0.015832
-0.016837
-0.017849
-0.018871
-0.019906
-0.020955
-0.022025
-0.023119
-0.024243
-0.025403
-0.026601
-0.027828
-0.028717
0.276370
0.272568
0.263140
0.248689
0.229178
0.204341
0.173998
0.138337
0.098201
0.055257
0.011930
-0.029435
-0.067188
-0.100476
-0.129049
-0.152981
-0.172429
-0.187473
-0.198110
-0.203780
-0.204415
-0.200233
-0.191839
-0.180188
-0.166454
-0.151839
-0.137397
-0.123905
-0.111781
-0.101085
-0.091586
-0.082881
-0.074544
-0.066246
-0.057810
-0.049198
-0.040502
-0.032125
-0.024562
-0.017857
-0.012043
-0.007104
-0.002957
0.000506
0.003389
0.005786
0.007769
0.009393
0.010700
0.011720
0.012479
0.012997
0.013296
0.013396
0.013317
0.013081
0.012708
0.012217
0.011626
0.010951
0.010207
0.009406
0.008560
0.007678
0.006768
0.005835
0.004885
0.003923
0.002951
0.001972
0.000989
0.000002
-0.000986
-0.001976
-0.002965
-0.003955
-0.004944
-0.005932
-0.006920
-0.007907
-0.008893
-0.009879
-0.010865
-0.011851
-0.012837
-0.013825
-0.014816
-0.015809
-0.016805
-0.017807
-0.018815
-0.019832
-0.020857
-0.021894
-0.022943
-0.024003
-0.025069
-0.026124
-0.027127
-0.028053
0.285448
0.282434
0.274104
0.260480
0.241198
0.215653
0.183271
0.143925
0.098485
0.049218
0.000127
-0.045330
-0.085301
-0.119336
-0.147831
-0.171502
-0.190970
-0.206463
-0.217918
-0.224463
-0.225552
-0.221113
-0.211640
-0.198154
-0.181990
-0.164537
-0.147020
-0.130356
-0.115096
-0.101436
-0.089292
-0.078404
-0.068456
-0.059169
-0.050359
-0.041955
-0.033997
-0.026641
-0.020058
-0.014281
-0.009301
-0.005054
-0.001460
0.001576
0.004141
0.006304
0.008121
0.009628
0.010853
0.011816
0.012533
0.013021
0.013296
0.013377
0.013284
0.013036
0.012653
0.012155
0.011559
0.010882
0.010137
0.009337
0.008492
0.007613
0.006705
0.005776
0.004830
0.003871
0.002903
0.001929
0.000949
-0.000034
-0.001019
-0.002005
-0.002991
-0.003978
-0.004964
-0.005949
-0.006934
-0.007918
-0.008901
-0.009883
-0.010866
-0.011848
-0.012830
-0.013812
-0.014796
-0.015781
-0.016768
-0.017757
-0.018750
-0.019746
-0.020745
-0.021747
-0.022750
-0.023749
-0.024733
-0.025683
-0.026563
-0.027472
0.300090
0.297497
0.290024
0.277255
0.258335
0.232022
0.196936
0.152165
0.098318
0.038422
-0.019671
-0.070563
-0.112616
-0.146484
-0.173804
-0.196377
-0.215565
-0.231837
-0.244569
-0.252588
-0.254419
-0.249483
-0.238164
-0.221711
-0.201838
-0.180306
-0.158628
-0.137919
-0.118870
-0.101796
-0.086722
-0.073487
-0.061845
-0.051540
-0.042360
-0.034154
-0.026840
-0.020393
-0.014794
-0.009990
-0.005904
-0.002421
0.000566
0.003114
0.005296
0.007169
0.008768
0.010116
0.011224
0.012099
0.012750
0.013185
0.013418
0.013463
0.013339
0.013065
0.012661
0.012145
0.011535
0.010847
0.010094
0.009289
0.008441
0.007560
0.006652
0.005724
0.004780
0.003823
0.002858
0.001886
0.000910
-0.000070
-0.001052
-0.002035
-0.003018
-0.004002
-0.004985
-0.005967
-0.006949
-0.007930
-0.008910
-0.009889
-0.010867
-0.011845
-0.012822
-0.013799
-0.014775
-0.015752
-0.016728
-0.017704
-0.018681
-0.019656
-0.020629
-0.021599
-0.022561
-0.023508
-0.024430
-0.025310
-0.026125
-0.027013
0.319503
0.317336
0.310925
0.299498
0.281612
0.255060
0.216999
0.164710
0.097588
0.018988
-0.052698
-0.109483
-0.151816
-0.182981
-0.206752
-0.226596
-0.245015
-0.262835
-0.278632
-0.289516
-0.292942
-0.287378
-0.273154
-0.252111
-0.226745
-0.199490
-0.172311
-0.146583
-0.123121
-0.102295
-0.084158
-0.068564
-0.055263
-0.043970
-0.034412
-0.026344
-0.019564
-0.013904
-0.009212
-0.005333
-0.002113
0.000593
0.002914
0.004955
0.006728
0.008280
0.009636
0.010801
0.011771
0.012541
0.013108
0.013475
0.013649
0.013644
0.013476
0.013165
0.012728
0.012185
0.011552
0.010846
0.010078
0.009262
0.008407
0.007520
0.006609
0.005679
0.004735
0.003779
0.002815
0.001845
0.000871
-0.000106
-0.001086
-0.002066
-0.003046
-0.004027
-0.005007
-0.005986
-0.006965
-0.007943
-0.008919
-0.009895
-0.010869
-0.011842
-0.012814
-0.013785
-0.014754
-0.015722
-0.016688
-0.017652
-0.018612
-0.019568
-0.020518
-0.021459
-0.022385
-0.023292
-0.024169
-0.025003
-0.025780
-0.026652
0.342888
0.341318
0.336528
0.327472
0.312112
0.286981
0.246810
0.184939
0.096401
-0.017750
-0.108133
-0.167486
-0.204638
-0.227955
-0.243968
-0.258229
-0.274840
-0.295423
-0.317884
-0.335291
-0.342260
-0.336275
-0.317838
-0.290123
-0.257068
-0.222173
-0.188022
-0.156263
-0.127778
-0.102901
-0.081615
-0.063694
-0.048809
-0.036594
-0.026681
-0.018727
-0.012418
-0.007470
-0.003619
-0.000617
0.001762
0.003715
0.005393
0.006921
0.008283
0.009514
0.010626
0.011607
0.012437
0.013097
0.013575
0.013864
0.013971
0.013906
0.013684
0.013324
0.012845
0.012266
0.011604
0.010872
0.010085
0.009254
0.008387
0.007492
0.006575
0.005641
0.004694
0.003738
0.002774
0.001805
0.000833
-0.000143
-0.001120
-0.002097
-0.003075
-0.004053
-0.005030
-0.006007
-0.006983
-0.007957
-0.008930
-0.009902
-0.010873
-0.011841
-0.012808
-0.013773
-0.014735
-0.015695
-0.016651
-0.017602
-0.018548
-0.019487
-0.020416
-0.021332
-0.022231
-0.023106
-0.023950
-0.024754
-0.025507
-0.026370
0.369131
0.368416
0.366055
0.360921
0.350612
0.330457
0.291807
0.220136
0.095469
-0.092119
-0.199958
-0.247340
-0.268396
-0.276661
-0.279551
-0.284303
-0.296815
-0.320105
-0.352634
-0.384603
-0.399275
-0.393737
-0.369805
-0.333369
-0.290676
-0.246644
-0.204522
-0.166155
-0.132380
-0.103395
-0.079028
-0.058904
-0.042568
-0.029535
-0.019333
-0.011515
-0.005665
-0.001396
0.001655
0.003822
0.005403
0.006644
0.007730
0.008781
0.009767
0.010711
0.011610
0.012436
0.013148
0.013714
0.014109
0.014323
0.014359
0.014228
0.013945
0.013530
0.013002
0.012380
0.011681
0.010920
0.010109
0.009259
0.008377
0.007471
0.006546
0.005607
0.004657
0.003699
0.002735
0.001766
0.000794
-0.000179
-0.001154
-0.002130
-0.003105
-0.004080
-0.005055
-0.006029
-0.007002
-0.007973
-0.008943
-0.009912
-0.010878
-0.011842
-0.012804
-0.013763
-0.014719
-0.015671
-0.016618
-0.017558
-0.018491
-0.019415
-0.020327
-0.021223
-0.022099
-0.022951
-0.023772
-0.024555
-0.025294
-0.026152
0.396642
0.397043
0.397960
0.398528
0.396655
0.387479
0.359635
0.286561
0.101354
-0.254737
-0.340876
-0.337499
-0.330783
-0.320509
-0.307629
-0.300388
-0.306218
-0.329132
-0.369716
-0.419090
-0.451835
-0.448317
-0.418550
-0.372889
-0.320498
-0.267717
-0.218274
-0.174027
-0.135656
-0.103168
-0.076215
-0.054278
-0.036779
-0.023131
-0.012767
-0.005152
0.000219
0.003823
0.006112
0.007500
0.008353
0.008965
0.009548
0.010218
0.010901
0.011644
0.012417
0.013160
0.013811
0.014322
0.014660
0.014814
0.014785
0.014588
0.014241
0.013766
0.013184
0.012515
0.011776
0.010982
0.010144
0.009272
0.008374
0.007455
0.006521
0.005576
0.004622
0.003661
0.002696
0.001727
0.000756
-0.000216
-0.001190
-0.002163
-0.003136
-0.004109
-0.005081
-0.006052
-0.007022
-0.007991
-0.008958
-0.009923
-0.010885
-0.011846
-0.012803
-0.013757
-0.014707
-0.015652
-0.016590
-0.017522
-0.018444
-0.019355
-0.020253
-0.021133
-0.021993
-0.022828
-0.023632
-0.024401
-0.025130
-0.025986
0.423350
0.425014
0.429729
0.437295
0.446926
0.455933
0.455559
0.416076
0.202599
-0.560232
-0.507458
-0.394467
-0.369076
-0.350818
-0.328495
-0.314110
-0.317770
-0.338173
-0.377301
-0.429508
-0.475552
-0.481423
-0.446969
-0.394400
-0.335493
-0.277359
-0.223741
-0.176277
-0.135430
-0.101054
-0.072707
-0.049812
-0.031746
-0.017880
-0.007605
-0.000334
0.004498
0.007440
0.009016
0.009713
0.009955
0.010083
0.010340
0.010732
0.011287
0.012012
0.012823
0.013620
0.014315
0.014844
0.015173
0.015294
0.015216
0.014959
0.014550
0.014014
0.013376
0.012658
0.011877
0.011048
0.010181
0.009287
0.008371
0.007440
0.006497
0.005545
0.004586
0.003623
0.002656
0.001687
0.000717
-0.000254
-0.001226
-0.002198
-0.003169
-0.004139
-0.005109
-0.006077
-0.007044
-0.008010
-0.008974
-0.009936
-0.010896
-0.011852
-0.012806
-0.013755
-0.014700
-0.015639
-0.016571
-0.017494
-0.018408
-0.019309
-0.020196
-0.021064
-0.021912
-0.022734
-0.023527
-0.024287
-0.025010
-0.025866
0.446928
0.449765
0.458056
0.472427
0.493946
0.524052
0.563955
0.611203
0.701087
0.070427
-0.443504
-0.379550
-0.374712
-0.366493
-0.351705
-0.343706
-0.347496
-0.362845
-0.392262
-0.431652
-0.466454
-0.475934
-0.443223
-0.387783
-0.327473
-0.269200
-0.216147
-0.169463
-0.129342
-0.095554
-0.067677
-0.045196
-0.027549
-0.014157
-0.004433
0.002205
0.006343
0.008573
0.009471
0.009582
0.009377
0.009236
0.009416
0.009744
0.010490
0.011501
0.012610
0.013664
0.014551
0.015201
0.015589
0.015719
0.015615
0.015312
0.014847
0.014254
0.013562
0.012795
0.011972
0.011108
0.010214
0.009298
0.008366
0.007422
0.006469
0.005511
0.004548
0.003582
0.002614
0.001645
0.000676
-0.000294
-0.001264
-0.002234
-0.003202
-0.004171
-0.005138
-0.006104
-0.007068
-0.008032
-0.008993
-0.009952
-0.010909
-0.011862
-0.012812
-0.013758
-0.014698
-0.015633
-0.016559
-0.017477
-0.018384
-0.019278
-0.020157
-0.021017
-0.021856
-0.022670
-0.023455
-0.024210
-0.024930
-0.025787
0.465216
0.468868
0.479626
0.498624
0.528035
0.571637
0.635968
0.731822
0.862851
0.880731
0.000000
-0.377572
-0.375593
-0.377561
-0.378301
-0.382411
-0.391502
-0.405875
-0.423908
-0.440122
-0.446499
-0.436422
-0.403685
-0.352559
-0.295547
-0.241737
-0.193697
-0.151748
-0.115704
-0.085247
-0.060039
-0.039708
-0.023827
-0.011928
-0.003507
0.001970
0.005077
0.006420
0.006612
0.006237
0.005799
0.005697
0.005998
0.006886
0.008313
0.010001
0.011704
0.013234
0.014467
0.015346
0.015863
0.016047
0.015947
0.015616
0.015107
0.014463
0.013721
0.012910
0.012049
0.011154
0.010234
0.009298
0.008351
0.007396
0.006435
0.005472
0.004506
0.003538
0.002570
0.001601
0.000633
-0.000336
-0.001304
-0.002271
-0.003238
-0.004204
-0.005168
-0.006132
-0.007094
-0.008055
-0.009014
-0.009971
-0.010925
-0.011876
-0.012823
-0.013766
-0.014703
-0.015634
-0.016557
-0.017471
-0.018373
-0.019263
-0.020136
-0.020991
-0.021824
-0.022634
-0.023415
-0.024167
-0.024886
-0.025745
0.476714
0.480657
0.492237
0.512552
0.543543
0.588038
0.649267
0.728933
0.821146
0.898612
0.800956
0.000000
-0.382651
-0.389708
-0.404869
-0.428788
-0.454669
-0.475252
-0.479727
-0.466052
-0.437383
-0.396563
-0.346571
-0.295951
-0.245104
-0.197743
-0.157541
-0.123146
-0.093832
-0.069092
-0.048663
-0.032324
-0.019792
-0.010713
-0.004667
-0.001170
0.000340
0.000485
-0.000091
-0.000784
-0.001107
-0.000743
0.000516
0.002599
0.005141
0.007801
0.010300
0.012441
0.014115
0.015286
0.015979
0.016252
0.016179
0.015839
0.015299
0.014616
0.013835
0.012987
0.012094
0.011173
0.010233
0.009281
0.008322
0.007359
0.006393
0.005425
0.004457
0.003489
0.002521
0.001554
0.000587
-0.000380
-0.001346
-0.002311
-0.003275
-0.004238
-0.005201
-0.006162
-0.007122
-0.008081
-0.009037
-0.009992
-0.010944
-0.011893
-0.012838
-0.013779
-0.014714
-0.015643
-0.016564
-0.017476
-0.018376
-0.019263
-0.020134
-0.020986
-0.021818
-0.022625
-0.023405
-0.024156
-0.024876
-0.025737
0.480894
0.484605
0.495434
0.514156
0.541999
0.580434
0.630399
0.689353
0.742727
0.754470
0.703301
0.577400
0.000000
-0.411463
-0.433217
-0.484807
-0.536652
-0.569947
-0.557211
-0.508789
-0.441347
-0.367734
-0.296916
-0.234696
-0.184454
-0.142658
-0.110605
-0.085043
-0.064040
-0.046659
-0.032702
-0.022075
-0.014569
-0.009854
-0.007508
-0.007017
-0.007768
-0.009079
-0.010285
-0.010845
-0.010456
-0.008493
-0.005550
-0.001983
0.001817
0.005500
0.008796
0.011532
0.013628
0.015083
0.015951
0.016318
0.016286
0.015951
0.015396
0.014690
0.013883
0.013010
0.012096
0.011157
0.010203
0.009242
0.008276
0.007308
0.006339
0.005370
0.004402
0.003435
0.002468
0.001503
0.000538
-0.000426
-0.001390
-0.002352
-0.003314
-0.004275
-0.005235
-0.006194
-0.007152
-0.008108
-0.009063
-0.010016
-0.010966
-0.011914
-0.012858
-0.013798
-0.014732
-0.015660
-0.016581
-0.017492
-0.018392
-0.019279
-0.020150
-0.021003
-0.021835
-0.022643
-0.023425
-0.024177
-0.024899
-0.025763
0.478196
0.481347
0.490443
0.505822
0.527865
0.556539
0.590318
0.623728
0.643238
0.623859
0.547949
0.451498
0.271802
0.000000
-0.505079
-0.576940
-0.631182
-0.662546
-0.625550
-0.545151
-0.445524
-0.344249
-0.253401
-0.179874
-0.123892
-0.083571
-0.056879
-0.040169
-0.028032
-0.018709
-0.012264
-0.008736
-0.007834
-0.009043
-0.011724
-0.015151
-0.018549
-0.021139
-0.022333
-0.021956
-0.019128
-0.015230
-0.010620
-0.005691
-0.000821
0.003678
0.007577
0.010747
0.013145
0.014802
0.015797
0.016240
0.016247
0.015928
0.015375
0.014663
0.013847
0.012965
0.012043
0.011098
0.010140
0.009175
0.008208
0.007239
0.006272
0.005305
0.004339
0.003374
0.002410
0.001447
0.000486
-0.000476
-0.001436
-0.002395
-0.003354
-0.004313
-0.005270
-0.006227
-0.007183
-0.008137
-0.009091
-0.010042
-0.010992
-0.011939
-0.012882
-0.013822
-0.014757
-0.015685
-0.016607
-0.017519
-0.018421
-0.019310
-0.020184
-0.021041
-0.021876
-0.022688
-0.023473
-0.024229
-0.024954
-0.025822
0.469650
0.471991
0.478650
0.489562
0.504387
0.522018
0.539662
0.551261
0.545539
0.504768
0.410714
0.253523
0.092107
-0.368834
-0.677279
-0.619717
-0.681392
-0.696590
-0.640807
-0.544279
-0.430059
-0.315985
-0.214412
-0.132406
-0.071964
-0.031695
-0.007644
0.005442
0.009357
0.011381
0.010306
0.006001
-0.000816
-0.009058
-0.017533
-0.025069
-0.030696
-0.033589
-0.033253
-0.029748
-0.025024
-0.019537
-0.013686
-0.007839
-0.002316
0.002630
0.006827
0.010194
0.012722
0.014466
0.015523
0.016010
0.016050
0.015755
0.015220
0.014523
0.013717
0.012844
0.011929
0.010990
0.010038
0.009078
0.008116
0.007153
0.006190
0.005228
0.004266
0.003306
0.002347
0.001388
0.000430
-0.000527
-0.001484
-0.002441
-0.003397
-0.004352
-0.005307
-0.006262
-0.007216
-0.008169
-0.009120
-0.010071
-0.011020
-0.011966
-0.012910
-0.013851
-0.014787
-0.015717
-0.016642
-0.017557
-0.018463
-0.019357
-0.020237
-0.021099
-0.021941
-0.022759
-0.023551
-0.024313
-0.025043
-0.025914
0.456754
0.458199
0.462212
0.468446
0.476108
0.483548
0.487596
0.482613
0.459437
0.404455
0.299432
0.119114
-0.190438
-0.829776
-0.734842
-0.637099
-0.661666
-0.648220
-0.588391
-0.496371
-0.389259
-0.281739
-0.184443
-0.103903
-0.043144
-0.002327
0.021450
0.033397
0.037123
0.035501
0.028735
0.017248
0.002958
-0.011926
-0.025329
-0.035505
-0.041734
-0.041643
-0.038173
-0.033146
-0.027242
-0.020911
-0.014510
-0.008348
-0.002680
0.002305
0.006488
0.009821
0.012320
0.014051
0.015112
0.015619
0.015689
0.015429
0.014930
0.014266
0.013492
0.012645
0.011753
0.010833
0.009897
0.008952
0.008001
0.007048
0.006094
0.005140
0.004186
0.003232
0.002278
0.001324
0.000371
-0.000582
-0.001535
-0.002487
-0.003440
-0.004393
-0.005345
-0.006297
-0.007249
-0.008201
-0.009152
-0.010102
-0.011050
-0.011997
-0.012942
-0.013884
-0.014823
-0.015756
-0.016685
-0.017605
-0.018518
-0.019419
-0.020306
-0.021178
-0.022029
-0.022857
-0.023659
-0.024429
-0.025165
-0.026041
0.441167
0.441754
0.443269
0.445225
0.446634
0.445717
0.439468
0.423115
0.389563
0.328858
0.227519
0.067347
-0.176248
-0.490405
-0.562885
-0.565930
-0.567327
-0.545418
-0.495674
-0.422856
-0.337419
-0.249923
-0.168748
-0.099485
-0.045081
-0.006134
0.018982
0.033374
0.042157
0.042136
0.033010
0.017618
-0.000624
-0.018434
-0.033080
-0.042301
-0.043522
-0.041605
-0.037455
-0.032070
-0.026040
-0.019764
-0.013553
-0.007663
-0.002297
0.002396
0.006329
0.009469
0.011838
0.013498
0.014537
0.015057
0.015164
0.014955
0.014512
0.013902
0.013176
0.012373
0.011518
0.010630
0.009720
0.008796
0.007864
0.006926
0.005985
0.005041
0.004097
0.003151
0.002204
0.001257
0.000310
-0.000638
-0.001586
-0.002535
-0.003484
-0.004434
-0.005384
-0.006334
-0.007284
-0.008234
-0.009184
-0.010134
-0.011083
-0.012030
-0.012977
-0.013921
-0.014863
-0.015801
-0.016735
-0.017662
-0.018583
-0.019494
-0.020392
-0.021276
-0.022141
-0.022983
-0.023797
-0.024579
-0.025324
-0.026206
0.424481
0.424318
0.423684
0.422063
0.418472
0.411266
0.397888
0.374607
0.336313
0.276484
0.187424
0.061546
-0.103207
-0.285576
-0.386935
-0.431079
-0.444290
-0.432385
-0.399339
-0.348623
-0.286926
-0.221558
-0.158827
-0.103313
-0.057705
-0.022892
0.001852
0.018467
0.028154
0.028834
0.021467
0.008346
-0.007336
-0.022067
-0.032759
-0.037319
-0.038108
-0.036293
-0.032713
-0.028043
-0.022766
-0.017242
-0.011749
-0.006516
-0.001721
0.002502
0.006073
0.008958
0.011167
0.012748
0.013770
0.014319
0.014483
0.014345
0.013978
0.013441
0.012783
0.012038
0.011233
0.010386
0.009511
0.008616
0.007707
0.006789
0.005864
0.004934
0.004001
0.003065
0.002127
0.001187
0.000246
-0.000696
-0.001639
-0.002584
-0.003529
-0.004475
-0.005423
-0.006370
-0.007319
-0.008268
-0.009217
-0.010166
-0.011116
-0.012065
-0.013014
-0.013961
-0.014907
-0.015850
-0.016791
-0.017727
-0.018658
-0.019580
-0.020493
-0.021393
-0.022276
-0.023136
-0.023968
-0.024766
-0.025523
-0.026412
0.408087
0.407307
0.404930
0.400499
0.393157
0.381532
0.363617
0.336687
0.297322
0.241656
0.166032
0.068548
-0.047388
-0.167598
-0.255883
-0.308865
-0.333461
-0.334614
-0.317233
-0.285051
-0.242954
-0.196172
-0.149419
-0.106346
-0.069336
-0.039497
-0.016836
-0.000600
0.009132
0.011690
0.007976
-0.000207
-0.010361
-0.019823
-0.026379
-0.029834
-0.030706
-0.029564
-0.026956
-0.023354
-0.019139
-0.014613
-0.010022
-0.005568
-0.001417
0.002304
0.005510
0.008155
0.010231
0.011763
0.012801
0.013410
0.013658
0.013616
0.013346
0.012901
0.012325
0.011652
0.010907
0.010111
0.009277
0.008416
0.007536
0.006640
0.005734
0.004820
0.003900
0.002976
0.002047
0.001116
0.000182
-0.000755
-0.001693
-0.002633
-0.003574
-0.004517
-0.005461
-0.006407
-0.007353
-0.008301
-0.009250
-0.010199
-0.011150
-0.012100
-0.013051
-0.014002
-0.014953
-0.015903
-0.016851
-0.017797
-0.018740
-0.019677
-0.020608
-0.021528
-0.022433
-0.023317
-0.024174
-0.024994
-0.025769
-0.026666
0.393130
0.391850
0.388094
0.381526
0.371483
0.356913
0.336337
0.307878
0.269387
0.218771
0.154618
0.077295
-0.009332
-0.096257
-0.167990
-0.218398
-0.247727
-0.258174
-0.252477
-0.234036
-0.206563
-0.173928
-0.139701
-0.106788
-0.077255
-0.052298
-0.032371
-0.017447
-0.007595
-0.003117
-0.003269
-0.006803
-0.012065
-0.017336
-0.021388
-0.023758
-0.024479
-0.023783
-0.021967
-0.019325
-0.016116
-0.012561
-0.008852
-0.005156
-0.001616
0.001646
0.004538
0.006997
0.008995
0.010532
0.011633
0.012341
0.012708
0.012789
0.012638
0.012302
0.011821
0.011230
0.010554
0.009814
0.009027
0.008204
0.007354
0.006484
0.005599
0.004702
0.003796
0.002884
0.001966
0.001043
0.000116
-0.000813
-0.001746
-0.002681
-0.003618
-0.004558
-0.005499
-0.006442
-0.007387
-0.008334
-0.009282
-0.010232
-0.011183
-0.012136
-0.013089
-0.014044
-0.015000
-0.015957
-0.016914
-0.017871
-0.018827
-0.019782
-0.020733
-0.021677
-0.022610
-0.023527
-0.024417
-0.025269
-0.026068
-0.026977
0.380539
0.378824
0.373934
0.365720
0.353747
0.337267
0.315247
0.286453
0.249611
0.203704
0.148445
0.084933
0.016428
-0.051238
-0.110192
-0.155526
-0.185681
-0.201176
-0.203280
-0.194413
-0.177372
-0.155074
-0.130267
-0.105275
-0.081861
-0.061194
-0.043921
-0.030326
-0.020523
-0.014595
-0.012103
-0.012237
-0.013966
-0.016292
-0.018289
-0.019534
-0.019886
-0.019377
-0.018121
-0.016260
-0.013930
-0.011261
-0.008372
-0.005377
-0.002391
0.000476
0.003123
0.005469
0.007460
0.009066
0.010286
0.011140
0.011662
0.011894
0.011882
0.011669
0.011294
0.010791
0.010189
0.009509
0.008770
0.007987
0.007169
0.006325
0.005462
0.004583
0.003692
0.002792
0.001884
0.000971
0.000052
-0.000871
-0.001798
-0.002728
-0.003661
-0.004597
-0.005536
-0.006477
-0.007420
-0.008365
-0.009313
-0.010263
-0.011215
-0.012170
-0.013126
-0.014085
-0.015047
-0.016010
-0.016977
-0.017946
-0.018917
-0.019890
-0.020864
-0.021837
-0.022805
-0.023762
-0.024698
-0.025596
-0.026434
-0.027360
0.371124
0.368922
0.362946
0.353349
0.339932
0.322194
0.299430
0.270854
0.235754
0.193733
0.145025
0.090881
0.033893
-0.021980
-0.072033
-0.112671
-0.142074
-0.159979
-0.166926
-0.164462
-0.154658
-0.139738
-0.121845
-0.102852
-0.084247
-0.067102
-0.052111
-0.039675
-0.029993
-0.023092
-0.018765
-0.016556
-0.015855
-0.015968
-0.016332
-0.016582
-0.016524
-0.016085
-0.015260
-0.014070
-0.012540
-0.010699
-0.008581
-0.006237
-0.003743
-0.001198
0.001289
0.003610
0.005677
0.007426
0.008826
0.009872
0.010581
0.010986
0.011126
0.011043
0.010777
0.010363
0.009833
0.009212
0.008521
0.007775
0.006989
0.006170
0.005328
0.004466
0.003590
0.002702
0.001805
0.000901
-0.000011
-0.000927
-0.001848
-0.002773
-0.003702
-0.004635
-0.005570
-0.006509
-0.007450
-0.008395
-0.009342
-0.010292
-0.011245
-0.012202
-0.013161
-0.014124
-0.015091
-0.016061
-0.017037
-0.018018
-0.019004
-0.019997
-0.020997
-0.022002
-0.023011
-0.024019
-0.025016
-0.025984
-0.026887
-0.027835
0.365794
0.362726
0.355395
0.344438
0.329831
0.311199
0.288035
0.259833
0.226220
0.187133
0.143038
0.095140
0.045523
-0.002941
-0.047039
-0.084047
-0.112272
-0.131228
-0.141014
-0.142674
-0.137742
-0.127944
-0.114984
-0.100387
-0.085403
-0.070983
-0.057794
-0.046276
-0.036687
-0.029129
-0.023536
-0.019683
-0.017224
-0.015754
-0.014900
-0.014380
-0.013999
-0.013635
-0.013204
-0.012634
-0.011852
-0.010785
-0.009379
-0.007615
-0.005530
-0.003213
-0.000789
0.001600
0.003824
0.005781
0.007406
0.008673
0.009585
0.010166
0.010454
0.010492
0.010325
0.009990
0.009522
0.008951
0.008300
0.007587
0.006827
0.006031
0.005206
0.004360
0.003497
0.002620
0.001733
0.000836
-0.000068
-0.000978
-0.001894
-0.002814
-0.003739
-0.004668
-0.005601
-0.006537
-0.007477
-0.008421
-0.009367
-0.010318
-0.011272
-0.012230
-0.013192
-0.014158
-0.015130
-0.016107
-0.017092
-0.018084
-0.019085
-0.020098
-0.021123
-0.022162
-0.023217
-0.024286
-0.025364
-0.026436
-0.027460
-0.028421
0.366180
0.360682
0.351241
0.338772
0.323112
0.303796
0.280372
0.252483
0.219942
0.182858
0.141784
0.097840
0.052771
0.008833
-0.031514
-0.066037
-0.093207
-0.112588
-0.123978
-0.128144
-0.126282
-0.119789
-0.110076
-0.098422
-0.085904
-0.073366
-0.061436
-0.050560
-0.041036
-0.033036
-0.026610
-0.021686
-0.018096
-0.015603
-0.013959
-0.012940
-0.012362
-0.012078
-0.011954
-0.011857
-0.011640
-0.011157
-0.010281
-0.008943
-0.007143
-0.004964
-0.002546
-0.000061
0.002326
0.004480
0.006310
0.007768
0.008848
0.009571
0.009975
0.010105
0.010009
0.009730
0.009306
0.008769
0.008144
0.007453
0.006711
0.005929
0.005117
0.004282
0.003428
0.002559
0.001678
0.000788
-0.000111
-0.001017
-0.001928
-0.002845
-0.003767
-0.004694
-0.005624
-0.006559
-0.007498
-0.008440
-0.009386
-0.010337
-0.011292
-0.012252
-0.013216
-0.014185
-0.015162
-0.016145
-0.017136
-0.018138
-0.019153
-0.020182
-0.021231
-0.022302
-0.023402
-0.024534
-0.025706
-0.026918
-0.028163
-0.029080
0.376746
0.362416
0.349886
0.336079
0.319624
0.299836
0.276251
0.248547
0.216605
0.180597
0.141088
0.099131
0.056290
0.014530
-0.024057
-0.057651
-0.084815
-0.104347
-0.116379
-0.121580
-0.121003
-0.115901
-0.107558
-0.097154
-0.085698
-0.073999
-0.062670
-0.052164
-0.042794
-0.034756
-0.028132
-0.022901
-0.018949
-0.016098
-0.014144
-0.012887
-0.012153
-0.011787
-0.011647
-0.011585
-0.011444
-0.011066
-0.010314
-0.009105
-0.007428
-0.005353
-0.003011
-0.000570
0.001805
0.003974
0.005838
0.007344
0.008478
0.009255
0.009710
0.009885
0.009828
0.009581
0.009184
0.008669
0.008062
0.007385
0.006653
0.005880
0.005076
0.004246
0.003397
0.002532
0.001655
0.000767
-0.000129
-0.001033
-0.001942
-0.002858
-0.003779
-0.004704
-0.005634
-0.006568
-0.007506
-0.008448
-0.009394
-0.010345
-0.011300
-0.012261
-0.013228
-0.014201
-0.015180
-0.016166
-0.017162
-0.018169
-0.019191
-0.020231
-0.021294
-0.022385
-0.023513
-0.024688
-0.025925
-0.027245
-0.028674
-0.029470
