# vtk DataFile Version 3.0
Vector Field
ASCII
DATASET RECTILINEAR_GRID
DIMENSIONS 100 26 1
X_COORDINATES 100 double
0.050000 0.150000 0.250000 0.350000 0.450000 0.550000 0.650000 0.750000 0.850000 0.950000 1.050000 1.150000 1.250000 1.350000 1.450000 1.550000 1.650000 1.750000 1.850000 1.950000 2.050000 2.150000 2.250000 2.350000 2.450000 2.550000 2.650000 2.750000 2.850000 2.950000 3.050000 3.150000 3.250000 3.350000 3.450000 3.550000 3.650000 3.750000 3.850000 3.950000 4.050000 4.150000 4.250000 4.350000 4.450000 4.550000 4.650000 4.750000 4.850000 4.950000 5.050000 5.150000 5.250000 5.350000 5.450000 5.550000 5.650000 5.750000 5.850000 5.950000 6.050000 6.150000 6.250000 6.350000 6.450000 6.550000 6.650000 6.750000 6.850000 6.950000 7.050000 7.150000 7.250000 7.350000 7.450000 7.550000 7.650000 7.750000 7.850000 7.950000 8.050000 8.150000 8.250000 8.350000 8.450000 8.550000 8.650000 8.750000 8.850000 8.950000 9.050000 9.150000 9.250000 9.350000 9.450000 9.550000 9.650000 9.750000 9.850000 9.950000 
Y_COORDINATES 26 double
0.050000 0.150000 0.250000 0.350000 0.450000 0.550000 0.650000 0.750000 0.850000 0.950000 1.050000 1.150000 1.250000 1.350000 1.450000 1.550000 1.650000 1.750000 1.850000 1.950000 2.050000 2.150000 2.250000 2.350000 2.450000 2.550000 
Z_COORDINATES 1 double
0.0
POINT_DATA 2600
VECTORS Vektorfeld double
0.997631 0.002369 0.0
0.992732 0.002529 0.0
0.989106 0.001097 0.0
0.989057 -0.001048 0.0
0.993617 -0.003512 0.0
1.003164 -0.006035 0.0
1.017570 -0.008370 0.0
1.036198 -0.010258 0.0
1.057917 -0.011461 0.0
1.081202 -0.011824 0.0
1.104356 -0.011330 0.0
1.125776 -0.010090 0.0
1.144141 -0.008275 0.0
1.158460 -0.006045 0.0
1.168036 -0.003530 0.0
1.172454 -0.000888 0.0
1.171586 0.001756 0.0
1.165279 0.004550 0.0
1.153224 0.007506 0.0
1.135141 0.010577 0.0
1.110890 0.013675 0.0
1.080543 0.016673 0.0
1.044447 0.019423 0.0
1.003248 0.021777 0.0
0.957871 0.023600 0.0
0.909491 0.024780 0.0
0.859477 0.025234 0.0
0.809337 0.024907 0.0
0.760652 0.023778 0.0
0.715014 0.021861 0.0
0.673941 0.019212 0.0
0.638797 0.015932 0.0
0.610711 0.012154 0.0
0.590581 0.007977 0.0
0.579316 0.003288 0.0
0.577664 -0.001636 0.0
0.584550 -0.005250 0.0
0.597022 -0.007222 0.0
0.611935 -0.007691 0.0
0.626535 -0.006908 0.0
0.638626 -0.005183 0.0
0.646716 -0.002906 0.0
0.649937 -0.000315 0.0
0.647064 0.003187 0.0
0.636430 0.007447 0.0
0.617012 0.011971 0.0
0.588774 0.016266 0.0
0.552597 0.019910 0.0
0.510156 0.022530 0.0
0.463981 0.023645 0.0
0.417811 0.022525 0.0
0.376771 0.018514 0.0
0.346288 0.011969 0.0
0.329540 0.004778 0.0
0.325310 -0.000549 0.0
0.328735 -0.002876 0.0
0.335369 -0.003758 0.0
0.343462 -0.004336 0.0
0.352386 -0.004589 0.0
0.361413 -0.004438 0.0
0.369813 -0.003963 0.0
0.377049 -0.003272 0.0
0.382795 -0.002474 0.0
0.386927 -0.001658 0.0
0.389474 -0.000889 0.0
0.390509 -0.000147 0.0
0.389829 0.000827 0.0
0.386941 0.002062 0.0
0.381566 0.003313 0.0
0.373914 0.004339 0.0
0.364611 0.004963 0.0
0.354592 0.005055 0.0
0.344962 0.004575 0.0
0.336752 0.003634 0.0
0.330618 0.002500 0.0
0.326594 0.001523 0.0
0.324067 0.001004 0.0
0.321997 0.001065 0.0
0.319327 0.001605 0.0
0.315380 0.002343 0.0
0.310079 0.002958 0.0
0.303902 0.003219 0.0
0.297621 0.003062 0.0
0.291973 0.002586 0.0
0.287412 0.001975 0.0
0.284034 0.001402 0.0
0.281668 0.000964 0.0
0.280056 0.000648 0.0
0.279038 0.000370 0.0
0.278610 0.000059 0.0
0.278887 -0.000337 0.0
0.279929 -0.000705 0.0
0.281606 -0.000972 0.0
0.283659 -0.001080 0.0
0.285735 -0.000997 0.0
0.287465 -0.000733 0.0
0.288526 -0.000328 0.0
0.288699 0.000156 0.0
0.287992 0.000551 0.0
0.285940 0.001502 0.0
1.002920 0.001818 0.0
1.011299 -0.000399 0.0
1.024251 -0.005301 0.0
1.041269 -0.011620 0.0
1.062407 -0.018638 0.0
1.087709 -0.025758 0.0
1.116979 -0.032324 0.0
1.149654 -0.037607 0.0
1.184734 -0.040911 0.0
1.220822 -0.041747 0.0
1.256355 -0.040092 0.0
1.289935 -0.036328 0.0
1.320534 -0.031001 0.0
1.347496 -0.024600 0.0
1.370414 -0.017469 0.0
1.388879 -0.009833 0.0
1.402247 -0.001798 0.0
1.409913 0.006745 0.0
1.411448 0.015832 0.0
1.406475 0.025306 0.0
1.394786 0.034885 0.0
1.376421 0.044174 0.0
1.351716 0.052722 0.0
1.321315 0.060077 0.0
1.286161 0.065830 0.0
1.247447 0.069643 0.0
1.206569 0.071263 0.0
1.165061 0.070526 0.0
1.124536 0.067368 0.0
1.086609 0.061836 0.0
1.052819 0.054100 0.0
1.024548 0.044460 0.0
1.002931 0.033328 0.0
0.988734 0.021129 0.0
0.981929 0.008206 0.0
0.981391 -0.004364 0.0
0.986330 -0.014348 0.0
0.996819 -0.021085 0.0
1.012574 -0.024498 0.0
1.032477 -0.024604 0.0
1.054357 -0.021459 0.0
1.074905 -0.015268 0.0
1.090102 -0.006370 0.0
1.097085 0.005132 0.0
1.094635 0.018586 0.0
1.082273 0.032613 0.0
1.060313 0.045823 0.0
1.029859 0.056984 0.0
0.992781 0.064975 0.0
0.951582 0.068575 0.0
0.908942 0.066405 0.0
0.866889 0.057725 0.0
0.826174 0.043957 0.0
0.786807 0.028906 0.0
0.750153 0.016206 0.0
0.720670 0.006426 0.0
0.702980 -0.002003 0.0
0.697341 -0.008544 0.0
0.700486 -0.012449 0.0
0.709251 -0.014368 0.0
0.721735 -0.014917 0.0
0.736636 -0.014454 0.0
0.752834 -0.013236 0.0
0.769212 -0.011406 0.0
0.784533 -0.009010 0.0
0.797485 -0.006013 0.0
0.807245 -0.002387 0.0
0.813928 0.001481 0.0
0.818112 0.005086 0.0
0.820333 0.007997 0.0
0.821094 0.009847 0.0
0.820819 0.010466 0.0
0.819645 0.009970 0.0
0.817293 0.008801 0.0
0.813126 0.007634 0.0
0.806396 0.007143 0.0
0.796574 0.007735 0.0
0.783601 0.009378 0.0
0.767975 0.011588 0.0
0.750704 0.013577 0.0
0.733154 0.014575 0.0
0.716809 0.014124 0.0
0.702991 0.012256 0.0
0.692568 0.009464 0.0
0.685770 0.006457 0.0
0.682250 0.003818 0.0
0.681384 0.001781 0.0
0.682550 0.000277 0.0
0.685155 -0.000847 0.0
0.688720 -0.001860 0.0
0.692960 -0.002936 0.0
0.697662 -0.003850 0.0
0.702572 -0.004415 0.0
0.707340 -0.004457 0.0
0.711532 -0.003888 0.0
0.714692 -0.002731 0.0
0.716422 -0.001121 0.0
0.716412 0.000786 0.0
0.714388 0.002650 0.0
0.711263 0.004580 0.0
1.001823 -0.002926 0.0
1.008344 -0.010554 0.0
1.020246 -0.020000 0.0
1.037114 -0.030807 0.0
1.058961 -0.042435 0.0
1.085866 -0.054169 0.0
1.117717 -0.065035 0.0
1.153960 -0.073814 0.0
1.193414 -0.079238 0.0
1.234195 -0.080288 0.0
1.274106 -0.076996 0.0
1.311354 -0.070254 0.0
1.344863 -0.061182 0.0
1.374165 -0.050683 0.0
1.399143 -0.039281 0.0
1.419773 -0.027116 0.0
1.435970 -0.014081 0.0
1.447451 -0.000119 0.0
1.453792 0.014819 0.0
1.454587 0.030498 0.0
1.449515 0.046454 0.0
1.438466 0.062019 0.0
1.421627 0.076423 0.0
1.399493 0.088910 0.0
1.372834 0.098811 0.0
1.342625 0.105586 0.0
1.309985 0.108839 0.0
1.276122 0.108320 0.0
1.242280 0.103941 0.0
1.209686 0.095785 0.0
1.179494 0.084133 0.0
1.152716 0.069475 0.0
1.130153 0.052492 0.0
1.112294 0.034020 0.0
1.099275 0.015140 0.0
1.091273 -0.002757 0.0
1.088997 -0.018619 0.0
1.093391 -0.031696 0.0
1.104969 -0.041220 0.0
1.123400 -0.046215 0.0
1.147295 -0.045623 0.0
1.174261 -0.038619 0.0
1.201123 -0.025079 0.0
1.224262 -0.006281 0.0
1.240853 0.015859 0.0
1.249439 0.039116 0.0
1.249423 0.061296 0.0
1.240975 0.080414 0.0
1.224904 0.094695 0.0
1.202400 0.102558 0.0
1.174614 0.102848 0.0
1.142361 0.095588 0.0
1.106459 0.082712 0.0
1.068626 0.067352 0.0
1.031504 0.051537 0.0
0.996793 0.035289 0.0
0.964306 0.019312 0.0
0.934685 0.005401 0.0
0.910955 -0.005810 0.0
0.895382 -0.014199 0.0
0.887515 -0.019704 0.0
0.885784 -0.022837 0.0
0.888772 -0.024039 0.0
0.895311 -0.023520 0.0
0.904468 -0.021374 0.0
0.915579 -0.017711 0.0
0.928117 -0.012987 0.0
0.941461 -0.007946 0.0
0.955056 -0.003267 0.0
0.968690 0.000493 0.0
0.982311 0.002969 0.0
0.995766 0.004164 0.0
1.008701 0.004510 0.0
1.020544 0.004769 0.0
1.030590 0.005786 0.0
1.038152 0.008158 0.0
1.042715 0.011978 0.0
1.043993 0.016829 0.0
1.041836 0.021919 0.0
1.036181 0.026171 0.0
1.027034 0.028679 0.0
1.014421 0.028979 0.0
0.998468 0.027171 0.0
0.979600 0.023839 0.0
0.958765 0.019715 0.0
0.937519 0.015325 0.0
0.917810 0.010850 0.0
0.901555 0.006297 0.0
0.890348 0.001735 0.0
0.884959 -0.002618 0.0
0.884762 -0.006221 0.0
0.888306 -0.008810 0.0
0.894320 -0.010379 0.0
0.901834 -0.010774 0.0
0.909949 -0.009878 0.0
0.917779 -0.007730 0.0
0.924473 -0.004546 0.0
0.929374 -0.000679 0.0
0.932112 0.003402 0.0
0.931815 0.007250 0.0
1.001433 -0.006182 0.0
1.007014 -0.019399 0.0
1.017958 -0.034000 0.0
1.034302 -0.050020 0.0
1.056366 -0.067133 0.0
1.084576 -0.084585 0.0
1.119179 -0.101072 0.0
1.159834 -0.114675 0.0
1.205236 -0.123234 0.0
1.252527 -0.124363 0.0
1.298089 -0.118394 0.0
1.339384 -0.107401 0.0
1.375393 -0.093553 0.0
1.406127 -0.078349 0.0
1.432025 -0.062491 0.0
1.453510 -0.046021 0.0
1.470713 -0.028576 0.0
1.483352 -0.009744 0.0
1.490891 0.010562 0.0
1.492739 0.032111 0.0
1.488423 0.054230 0.0
1.477806 0.075909 0.0
1.461169 0.096010 0.0
1.439162 0.113464 0.0
1.412696 0.127381 0.0
1.382827 0.137094 0.0
1.350649 0.142148 0.0
1.317240 0.142283 0.0
1.283626 0.137435 0.0
1.250766 0.127744 0.0
1.219547 0.113585 0.0
1.190774 0.095574 0.0
1.165170 0.074562 0.0
1.143388 0.051592 0.0
1.126132 0.027843 0.0
1.114331 0.004344 0.0
1.109144 -0.018258 0.0
1.111707 -0.039014 0.0
1.122715 -0.056489 0.0
1.142063 -0.068726 0.0
1.168722 -0.073667 0.0
1.200820 -0.069640 0.0
1.235733 -0.055832 0.0
1.270057 -0.032991 0.0
1.299892 -0.003857 0.0
1.322375 0.027762 0.0
1.336577 0.058462 0.0
1.342586 0.085687 0.0
1.340803 0.107277 0.0
1.331733 0.121550 0.0
1.315815 0.127560 0.0
1.293450 0.125495 0.0
1.265345 0.116813 0.0
1.232843 0.103586 0.0
1.197709 0.087559 0.0
1.161612 0.070074 0.0
1.126098 0.052528 0.0
1.092360 0.035543 0.0
1.060668 0.019470 0.0
1.031454 0.005309 0.0
1.006449 -0.006339 0.0
0.987211 -0.015234 0.0
0.973806 -0.021226 0.0
0.965420 -0.024486 0.0
0.961126 -0.025271 0.0
0.960112 -0.023910 0.0
0.961785 -0.020999 0.0
0.965875 -0.017368 0.0
0.972428 -0.013993 0.0
0.981694 -0.011680 0.0
0.994003 -0.010787 0.0
1.009630 -0.011161 0.0
1.028638 -0.012107 0.0
1.050734 -0.012551 0.0
1.075154 -0.011360 0.0
1.100614 -0.007717 0.0
1.125339 -0.001433 0.0
1.147364 0.006937 0.0
1.165133 0.016199 0.0
1.177720 0.024958 0.0
1.184510 0.032249 0.0
1.185036 0.037495 0.0
1.179178 0.040467 0.0
1.167321 0.041269 0.0
1.150366 0.040075 0.0
1.129593 0.036983 0.0
1.106435 0.032060 0.0
1.082282 0.025495 0.0
1.058355 0.017671 0.0
1.035885 0.009306 0.0
1.016675 0.001261 0.0
1.002703 -0.005864 0.0
0.994677 -0.011314 0.0
0.991843 -0.014520 0.0
0.992904 -0.015309 0.0
0.996499 -0.013724 0.0
1.001278 -0.010025 0.0
1.005905 -0.004729 0.0
1.009091 0.001528 0.0
1.008734 0.009777 0.0
1.001230 -0.008846 0.0
1.006175 -0.027262 0.0
1.016229 -0.047136 0.0
1.031855 -0.068854 0.0
1.053862 -0.092369 0.0
1.083304 -0.117002 0.0
1.121190 -0.141144 0.0
1.167810 -0.161879 0.0
1.222187 -0.175808 0.0
1.279369 -0.176260 0.0
1.332378 -0.165068 0.0
1.377637 -0.147280 0.0
1.414869 -0.126915 0.0
1.445331 -0.106182 0.0
1.470592 -0.085816 0.0
1.491898 -0.065487 0.0
1.509806 -0.044221 0.0
1.523978 -0.020910 0.0
1.533267 0.004900 0.0
1.536384 0.032809 0.0
1.532392 0.061840 0.0
1.520891 0.090415 0.0
1.502200 0.116833 0.0
1.477225 0.139623 0.0
1.447217 0.157696 0.0
1.413531 0.170336 0.0
1.377479 0.177136 0.0
1.340254 0.177928 0.0
1.302914 0.172744 0.0
1.266400 0.161810 0.0
1.231572 0.145566 0.0
1.199256 0.124682 0.0
1.170267 0.100048 0.0
1.145429 0.072726 0.0
1.125584 0.043810 0.0
1.111592 0.014170 0.0
1.104314 -0.015620 0.0
1.104547 -0.044446 0.0
1.112825 -0.070342 0.0
1.129265 -0.090660 0.0
1.153665 -0.102792 0.0
1.185623 -0.104571 0.0
1.224209 -0.094399 0.0
1.267205 -0.071743 0.0
1.310373 -0.038108 0.0
1.347762 0.002141 0.0
1.375114 0.042529 0.0
1.392009 0.078716 0.0
1.399586 0.108454 0.0
1.398829 0.130199 0.0
1.390444 0.143213 0.0
1.374967 0.147684 0.0
1.353033 0.144662 0.0
1.325589 0.135683 0.0
1.293856 0.122328 0.0
1.259178 0.106079 0.0
1.222926 0.088289 0.0
1.186409 0.070037 0.0
1.150829 0.052248 0.0
1.117150 0.035422 0.0
1.085816 0.019888 0.0
1.057188 0.006405 0.0
1.032069 -0.004340 0.0
1.011006 -0.011923 0.0
0.993650 -0.016184 0.0
0.979147 -0.017479 0.0
0.966769 -0.016725 0.0
0.956300 -0.015263 0.0
0.948194 -0.014545 0.0
0.943502 -0.015701 0.0
0.943554 -0.019128 0.0
0.949593 -0.024487 0.0
0.962488 -0.030685 0.0
0.982551 -0.036133 0.0
1.009536 -0.039183 0.0
1.042699 -0.038518 0.0
1.080768 -0.033426 0.0
1.121692 -0.024020 0.0
1.162333 -0.011253 0.0
1.198747 0.003410 0.0
1.227629 0.018127 0.0
1.247576 0.031144 0.0
1.258553 0.041700 0.0
1.260992 0.049454 0.0
1.255676 0.054161 0.0
1.243678 0.055667 0.0
1.226255 0.053957 0.0
1.204771 0.049235 0.0
1.180686 0.041943 0.0
1.155503 0.032686 0.0
1.130518 0.022076 0.0
1.106688 0.011122 0.0
1.085178 0.001236 0.0
1.067370 -0.006429 0.0
1.053933 -0.011024 0.0
1.044445 -0.012117 0.0
1.037824 -0.009790 0.0
1.032773 -0.004539 0.0
1.028034 0.002892 0.0
1.022471 0.014333 0.0
1.001028 -0.011103 0.0
1.005227 -0.034147 0.0
1.013999 -0.059077 0.0
1.028177 -0.086716 0.0
1.049153 -0.117489 0.0
1.078910 -0.151082 0.0
1.119821 -0.185861 0.0
1.173706 -0.217667 0.0
1.241660 -0.242351 0.0
1.313378 -0.238618 0.0
1.373727 -0.216069 0.0
1.419158 -0.186968 0.0
1.452467 -0.157768 0.0
1.477592 -0.130916 0.0
1.497942 -0.106694 0.0
1.516031 -0.084004 0.0
1.533221 -0.060802 0.0
1.549340 -0.034619 0.0
1.562322 -0.003662 0.0
1.569183 0.031393 0.0
1.567658 0.068773 0.0
1.556796 0.105845 0.0
1.536919 0.139972 0.0
1.509264 0.169113 0.0
1.475509 0.191969 0.0
1.437402 0.207855 0.0
1.396555 0.216516 0.0
1.354370 0.217959 0.0
1.312051 0.212372 0.0
1.270655 0.200092 0.0
1.231158 0.181609 0.0
1.194513 0.157599 0.0
1.161683 0.128949 0.0
1.133582 0.096764 0.0
1.110876 0.062323 0.0
1.093662 0.026863 0.0
1.081397 -0.008770 0.0
1.073669 -0.043800 0.0
1.070803 -0.076400 0.0
1.073742 -0.103981 0.0
1.084139 -0.124269 0.0
1.104253 -0.135167 0.0
1.136026 -0.134162 0.0
1.179790 -0.118739 0.0
1.233211 -0.087702 0.0
1.290439 -0.042882 0.0
1.341660 0.008979 0.0
1.379268 0.057763 0.0
1.402758 0.098341 0.0
1.414315 0.129512 0.0
1.415685 0.150915 0.0
1.408214 0.162931 0.0
1.393023 0.166540 0.0
1.371196 0.163077 0.0
1.343862 0.154000 0.0
1.312206 0.140742 0.0
1.277447 0.124636 0.0
1.240809 0.106845 0.0
1.203479 0.088351 0.0
1.166544 0.069934 0.0
1.130934 0.052321 0.0
1.097316 0.036217 0.0
1.065860 0.022423 0.0
1.036238 0.011999 0.0
1.007865 0.005623 0.0
0.980105 0.002976 0.0
0.952711 0.002592 0.0
0.926397 0.002204 0.0
0.902966 -0.000476 0.0
0.884847 -0.006960 0.0
0.874467 -0.017541 0.0
0.873503 -0.031148 0.0
0.882361 -0.045777 0.0
0.900426 -0.059169 0.0
0.926626 -0.069331 0.0
0.959843 -0.074750 0.0
0.999022 -0.074442 0.0
1.043060 -0.067965 0.0
1.090558 -0.055446 0.0
1.139468 -0.037723 0.0
1.186480 -0.016635 0.0
1.227038 0.005400 0.0
1.257664 0.025840 0.0
1.277642 0.042896 0.0
1.287672 0.056005 0.0
1.288693 0.064800 0.0
1.281818 0.069122 0.0
1.268311 0.069061 0.0
1.249546 0.064968 0.0
1.226949 0.057441 0.0
1.201927 0.047329 0.0
1.175844 0.035782 0.0
1.149891 0.024040 0.0
1.124921 0.013545 0.0
1.101544 0.005817 0.0
1.080173 0.001901 0.0
1.060901 0.002085 0.0
1.043612 0.005925 0.0
1.028276 0.012502 0.0
1.015862 0.022699 0.0
1.000745 -0.012876 0.0
1.003836 -0.039664 0.0
1.010494 -0.068991 0.0
1.021802 -0.102289 0.0
1.039697 -0.140787 0.0
1.067285 -0.185129 0.0
1.109083 -0.234524 0.0
1.170163 -0.283969 0.0
1.258710 -0.332549 0.0
1.349534 -0.310964 0.0
1.409553 -0.264092 0.0
1.442883 -0.217707 0.0
1.460610 -0.178065 0.0
1.470586 -0.145719 0.0
1.478007 -0.119661 0.0
1.486610 -0.097729 0.0
1.498952 -0.076610 0.0
1.515954 -0.051932 0.0
1.535480 -0.018857 0.0
1.551366 0.023840 0.0
1.557760 0.071456 0.0
1.552504 0.119281 0.0
1.535837 0.163080 0.0
1.509461 0.200037 0.0
1.475563 0.228699 0.0
1.436249 0.248546 0.0
1.393350 0.259572 0.0
1.348409 0.262027 0.0
1.302751 0.256281 0.0
1.257551 0.242778 0.0
1.213924 0.222047 0.0
1.172981 0.194750 0.0
1.135832 0.161778 0.0
1.103441 0.124428 0.0
1.076154 0.084652 0.0
1.052894 0.045007 0.0
1.030705 0.007539 0.0
1.006481 -0.028157 0.0
0.980715 -0.063411 0.0
0.957897 -0.097092 0.0
0.944155 -0.127813 0.0
0.945338 -0.152921 0.0
0.964954 -0.167798 0.0
1.003498 -0.167410 0.0
1.059076 -0.148031 0.0
1.127865 -0.108569 0.0
1.203325 -0.052016 0.0
1.273078 0.011396 0.0
1.326075 0.068222 0.0
1.361162 0.112988 0.0
1.381328 0.145903 0.0
1.388945 0.167797 0.0
1.385929 0.179880 0.0
1.373918 0.183575 0.0
1.354386 0.180368 0.0
1.328711 0.171705 0.0
1.298211 0.158932 0.0
1.264148 0.143250 0.0
1.227720 0.125705 0.0
1.190013 0.107222 0.0
1.151912 0.088744 0.0
1.113918 0.071404 0.0
1.075961 0.056649 0.0
1.037406 0.045950 0.0
0.997484 0.039968 0.0
0.956137 0.037738 0.0
0.914845 0.036517 0.0
0.876672 0.032765 0.0
0.845362 0.023704 0.0
0.823966 0.008376 0.0
0.813887 -0.012418 0.0
0.814927 -0.036349 0.0
0.825840 -0.060347 0.0
0.844953 -0.081776 0.0
0.870770 -0.098742 0.0
0.902194 -0.109979 0.0
0.938471 -0.114669 0.0
0.979023 -0.112328 0.0
1.023229 -0.102787 0.0
1.070203 -0.086266 0.0
1.118590 -0.063489 0.0
1.166288 -0.036002 0.0
1.209703 -0.006799 0.0
1.244579 0.020682 0.0
1.268974 0.043795 0.0
1.283206 0.061757 0.0
1.288049 0.074197 0.0
1.284501 0.081042 0.0
1.273720 0.082532 0.0
1.256969 0.079225 0.0
1.235534 0.072000 0.0
1.210672 0.062056 0.0
1.183533 0.050859 0.0
1.155128 0.040101 0.0
1.126351 0.031416 0.0
1.097999 0.026025 0.0
1.070849 0.024383 0.0
1.045753 0.026013 0.0
1.023747 0.029757 0.0
1.006980 0.034624 0.0
1.000343 -0.013964 0.0
1.001807 -0.043131 0.0
1.005172 -0.075547 0.0
1.011515 -0.113384 0.0
1.022970 -0.159041 0.0
1.043515 -0.215008 0.0
1.080263 -0.283191 0.0
1.144238 -0.360357 0.0
1.261684 -0.462153 0.0
1.369402 -0.379903 0.0
1.402940 -0.288709 0.0
1.399456 -0.222935 0.0
1.384264 -0.175371 0.0
1.366583 -0.140710 0.0
1.350889 -0.116397 0.0
1.340887 -0.099595 0.0
1.340152 -0.086351 0.0
1.352036 -0.071075 0.0
1.377993 -0.045197 0.0
1.411448 0.000838 0.0
1.438281 0.061231 0.0
1.450144 0.122900 0.0
1.447419 0.178851 0.0
1.432568 0.225492 0.0
1.408230 0.261480 0.0
1.376643 0.286665 0.0
1.339612 0.301384 0.0
1.298636 0.306132 0.0
1.255041 0.301430 0.0
1.210071 0.287799 0.0
1.164936 0.265788 0.0
1.120821 0.236067 0.0
1.078801 0.199629 0.0
1.039532 0.158236 0.0
1.002517 0.115146 0.0
0.965155 0.075136 0.0
0.923121 0.041632 0.0
0.873280 0.011816 0.0
0.818429 -0.022767 0.0
0.770882 -0.067372 0.0
0.744331 -0.117240 0.0
0.743225 -0.163571 0.0
0.764861 -0.198400 0.0
0.805203 -0.215693 0.0
0.861242 -0.211365 0.0
0.930716 -0.183497 0.0
1.011071 -0.132904 0.0
1.097894 -0.064292 0.0
1.179617 0.009189 0.0
1.243908 0.072642 0.0
1.288753 0.121236 0.0
1.317195 0.156405 0.0
1.331688 0.179795 0.0
1.334282 0.193077 0.0
1.326786 0.197894 0.0
1.310841 0.195799 0.0
1.287957 0.188222 0.0
1.259527 0.176452 0.0
1.226808 0.161650 0.0
1.190855 0.144937 0.0
1.152387 0.127599 0.0
1.111619 0.111311 0.0
1.068240 0.098079 0.0
1.021807 0.089508 0.0
0.972607 0.085533 0.0
0.922533 0.083593 0.0
0.875215 0.079273 0.0
0.835044 0.068353 0.0
0.805629 0.048840 0.0
0.788702 0.021562 0.0
0.783940 -0.010761 0.0
0.789493 -0.044599 0.0
0.803040 -0.076558 0.0
0.822650 -0.104287 0.0
0.846966 -0.126364 0.0
0.875148 -0.141962 0.0
0.906741 -0.150557 0.0
0.941527 -0.151777 0.0
0.979345 -0.145362 0.0
1.019914 -0.131235 0.0
1.062666 -0.109660 0.0
1.106599 -0.081463 0.0
1.150118 -0.048272 0.0
1.190528 -0.013132 0.0
1.223986 0.019755 0.0
1.248128 0.047423 0.0
1.262831 0.068984 0.0
1.268551 0.084084 0.0
1.266051 0.092771 0.0
1.256292 0.095497 0.0
1.240342 0.093113 0.0
1.219296 0.086850 0.0
1.194234 0.078266 0.0
1.166211 0.069121 0.0
1.136288 0.061095 0.0
1.105589 0.055397 0.0
1.075363 0.052386 0.0
1.047058 0.051410 0.0
1.022359 0.051066 0.0
1.003854 0.048588 0.0
0.999819 -0.014126 0.0
0.999133 -0.043747 0.0
0.997970 -0.077134 0.0
0.996953 -0.117122 0.0
0.997593 -0.167397 0.0
1.003436 -0.233041 0.0
1.022735 -0.321206 0.0
1.073865 -0.437447 0.0
1.217447 -0.646091 0.0
1.314483 -0.400719 0.0
1.265819 -0.252766 0.0
1.193821 -0.183396 0.0
1.132923 -0.138821 0.0
1.081053 -0.107709 0.0
1.036584 -0.089233 0.0
1.001561 -0.081734 0.0
0.980298 -0.082213 0.0
0.979382 -0.086181 0.0
1.005860 -0.082527 0.0
1.061875 -0.051302 0.0
1.129786 0.018627 0.0
1.183405 0.100022 0.0
1.215814 0.172046 0.0
1.231667 0.231295 0.0
1.234318 0.277365 0.0
1.225917 0.310768 0.0
1.208036 0.332193 0.0
1.182052 0.342283 0.0
1.149306 0.341620 0.0
1.111117 0.330767 0.0
1.068696 0.310375 0.0
1.022817 0.281475 0.0
0.972913 0.246146 0.0
0.915705 0.208196 0.0
0.845712 0.172194 0.0
0.761205 0.139957 0.0
0.672180 0.107870 0.0
0.598702 0.068898 0.0
0.557079 0.016625 0.0
0.547921 -0.050058 0.0
0.560830 -0.120911 0.0
0.586546 -0.184509 0.0
0.620959 -0.233511 0.0
0.663457 -0.263421 0.0
0.714885 -0.271103 0.0
0.776223 -0.254570 0.0
0.847699 -0.213663 0.0
0.928248 -0.150904 0.0
1.014761 -0.072435 0.0
1.097127 0.007610 0.0
1.163663 0.074886 0.0
1.211902 0.126075 0.0
1.244232 0.163302 0.0
1.262666 0.188541 0.0
1.268991 0.203601 0.0
1.264869 0.210160 0.0
1.251850 0.209764 0.0
1.231359 0.203831 0.0
1.204646 0.193703 0.0
1.172685 0.180798 0.0
1.136046 0.166845 0.0
1.094855 0.154023 0.0
1.049065 0.144535 0.0
0.999163 0.139386 0.0
0.947031 0.136986 0.0
0.896272 0.132973 0.0
0.851465 0.122018 0.0
0.816638 0.100607 0.0
0.793963 0.068677 0.0
0.783476 0.029140 0.0
0.783671 -0.013772 0.0
0.792275 -0.055745 0.0
0.806999 -0.093684 0.0
0.826041 -0.125813 0.0
0.848145 -0.151259 0.0
0.872550 -0.169655 0.0
0.898923 -0.180830 0.0
0.927252 -0.184618 0.0
0.957699 -0.180785 0.0
0.990414 -0.169095 0.0
1.025352 -0.149491 0.0
1.062130 -0.122342 0.0
1.099917 -0.088699 0.0
1.137330 -0.050528 0.0
1.172073 -0.011049 0.0
1.200949 0.025211 0.0
1.221865 0.055577 0.0
1.234460 0.079176 0.0
1.238918 0.095720 0.0
1.235773 0.105451 0.0
1.225772 0.109110 0.0
1.209787 0.107885 0.0
1.188762 0.103319 0.0
1.163716 0.097138 0.0
1.135779 0.090938 0.0
1.106251 0.085782 0.0
1.076652 0.081826 0.0
1.048737 0.078190 0.0
1.024443 0.073279 0.0
1.006290 0.063032 0.0
0.999229 -0.013175 0.0
0.996093 -0.040875 0.0
0.989624 -0.072374 0.0
0.979487 -0.110729 0.0
0.965391 -0.160334 0.0
0.947732 -0.228288 0.0
0.929860 -0.327386 0.0
0.926584 -0.479120 0.0
1.020413 -0.841829 0.0
1.014662 -0.195423 0.0
0.823758 -0.106987 0.0
0.676819 -0.099574 0.0
0.590598 -0.075524 0.0
0.523471 -0.052010 0.0
0.466673 -0.043665 0.0
0.429867 -0.055473 0.0
0.422706 -0.080049 0.0
0.447146 -0.111870 0.0
0.501526 -0.137696 0.0
0.582539 -0.133161 0.0
0.686878 -0.071765 0.0
0.792218 0.031453 0.0
0.873588 0.126836 0.0
0.931444 0.202794 0.0
0.971778 0.262882 0.0
0.996529 0.308901 0.0
1.006710 0.341760 0.0
1.003365 0.362044 0.0
0.987668 0.370304 0.0
0.960682 0.367258 0.0
0.922865 0.354121 0.0
0.873229 0.333243 0.0
0.808962 0.308549 0.0
0.727954 0.284010 0.0
0.635058 0.259268 0.0
0.545657 0.226791 0.0
0.478831 0.176887 0.0
0.445529 0.106661 0.0
0.444081 0.021933 0.0
0.463800 -0.065927 0.0
0.492955 -0.147107 0.0
0.525022 -0.216097 0.0
0.558321 -0.269636 0.0
0.593812 -0.305285 0.0
0.633808 -0.320664 0.0
0.680967 -0.313506 0.0
0.737288 -0.282523 0.0
0.803332 -0.228637 0.0
0.877917 -0.155800 0.0
0.957814 -0.071288 0.0
1.033881 0.011181 0.0
1.096190 0.079233 0.0
1.142569 0.131436 0.0
1.174541 0.170001 0.0
1.193540 0.196818 0.0
1.200974 0.213632 0.0
1.198214 0.222071 0.0
1.186545 0.223683 0.0
1.167083 0.220027 0.0
1.140661 0.212857 0.0
1.107769 0.204316 0.0
1.068699 0.196813 0.0
1.024057 0.192179 0.0
0.975521 0.190180 0.0
0.926340 0.187504 0.0
0.880946 0.178607 0.0
0.843659 0.158479 0.0
0.817259 0.125374 0.0
0.802417 0.081426 0.0
0.798144 0.031150 0.0
0.802581 -0.020414 0.0
0.813577 -0.068702 0.0
0.829107 -0.110981 0.0
0.847508 -0.145959 0.0
0.867535 -0.173244 0.0
0.888392 -0.192933 0.0
0.909743 -0.205277 0.0
0.931675 -0.210433 0.0
0.954582 -0.208325 0.0
0.978983 -0.198670 0.0
1.005292 -0.181164 0.0
1.033632 -0.155785 0.0
1.063699 -0.123110 0.0
1.094712 -0.084545 0.0
1.125379 -0.042443 0.0
1.153526 -0.000419 0.0
1.176578 0.037238 0.0
1.192974 0.068524 0.0
1.202246 0.092642 0.0
1.204422 0.109499 0.0
1.199861 0.119624 0.0
1.189145 0.124072 0.0
1.173020 0.124281 0.0
1.152396 0.121846 0.0
1.128382 0.118182 0.0
1.102330 0.114119 0.0
1.075845 0.109572 0.0
1.050743 0.103462 0.0
1.028926 0.094118 0.0
1.012580 0.076692 0.0
0.998681 -0.011085 0.0
0.993254 -0.034402 0.0
0.981751 -0.060876 0.0
0.962696 -0.093035 0.0
0.933330 -0.134567 0.0
0.888576 -0.191641 0.0
0.818456 -0.276042 0.0
0.703404 -0.412136 0.0
0.315710 -0.715791 0.0
-0.459854 0.251689 0.0
-0.459854 0.000000 0.0
-0.034827 -0.024480 0.0
-0.066147 -0.043424 0.0
-0.046302 -0.036828 0.0
-0.001840 -0.046512 0.0
0.050130 -0.067791 0.0
0.091222 -0.101661 0.0
0.126399 -0.149876 0.0
0.169425 -0.197095 0.0
0.230495 -0.215844 0.0
0.314865 -0.177790 0.0
0.422176 -0.075173 0.0
0.529569 0.044700 0.0
0.616873 0.139770 0.0
0.686422 0.216024 0.0
0.739206 0.278222 0.0
0.774477 0.326988 0.0
0.792130 0.362506 0.0
0.792395 0.385274 0.0
0.775248 0.396422 0.0
0.739932 0.398090 0.0
0.685395 0.393447 0.0
0.613064 0.384943 0.0
0.531383 0.370306 0.0
0.456756 0.340494 0.0
0.406305 0.285418 0.0
0.387974 0.203417 0.0
0.398167 0.103240 0.0
0.426775 -0.001806 0.0
0.462713 -0.097845 0.0
0.498557 -0.180187 0.0
0.531270 -0.247798 0.0
0.560158 -0.300122 0.0
0.586379 -0.336511 0.0
0.612659 -0.355713 0.0
0.642730 -0.355687 0.0
0.680303 -0.334235 0.0
0.727791 -0.290458 0.0
0.785470 -0.226243 0.0
0.851452 -0.146726 0.0
0.921866 -0.059862 0.0
0.988232 0.021602 0.0
1.042724 0.088196 0.0
1.083898 0.140095 0.0
1.112518 0.179105 0.0
1.129508 0.206921 0.0
1.135874 0.225176 0.0
1.132606 0.235514 0.0
1.120572 0.239693 0.0
1.100428 0.239757 0.0
1.072671 0.238065 0.0
1.037956 0.236849 0.0
0.997695 0.237046 0.0
0.954621 0.236923 0.0
0.912742 0.231821 0.0
0.876410 0.216016 0.0
0.848940 0.185827 0.0
0.831753 0.141612 0.0
0.824524 0.087258 0.0
0.825942 0.028173 0.0
0.834257 -0.030190 0.0
0.847546 -0.083211 0.0
0.863977 -0.128432 0.0
0.881970 -0.164901 0.0
0.900266 -0.192624 0.0
0.918005 -0.212148 0.0
0.934794 -0.224201 0.0
0.950729 -0.229375 0.0
0.966341 -0.227903 0.0
0.982440 -0.219591 0.0
0.999865 -0.203978 0.0
1.019228 -0.180674 0.0
1.040719 -0.149778 0.0
1.064020 -0.112191 0.0
1.088317 -0.069760 0.0
1.112314 -0.025246 0.0
1.133952 0.017373 0.0
1.151211 0.054734 0.0
1.162998 0.085375 0.0
1.168837 0.108751 0.0
1.168683 0.125087 0.0
1.162792 0.135216 0.0
1.151672 0.140383 0.0
1.136069 0.141970 0.0
1.116997 0.141143 0.0
1.095748 0.138459 0.0
1.073866 0.133599 0.0
1.053044 0.125359 0.0
1.034966 0.112117 0.0
1.021369 0.088635 0.0
0.998296 -0.008062 0.0
0.991270 -0.024972 0.0
0.976295 -0.043827 0.0
0.951212 -0.065945 0.0
0.911879 -0.092958 0.0
0.850311 -0.126927 0.0
0.749872 -0.170197 0.0
0.571377 -0.224433 0.0
0.227829 -0.269953 0.0
0.000000 0.251689 0.0
-0.000000 -0.000000 0.0
0.000000 0.000000 0.0
-0.024808 -0.023466 0.0
-0.054284 -0.048497 0.0
-0.057895 -0.075694 0.0
-0.062017 -0.086457 0.0
-0.076157 -0.109946 0.0
-0.089916 -0.163009 0.0
-0.089087 -0.227817 0.0
-0.063344 -0.271935 0.0
-0.003676 -0.265736 0.0
0.092788 -0.191001 0.0
0.213210 -0.067288 0.0
0.327211 0.050453 0.0
0.418284 0.144720 0.0
0.490097 0.224928 0.0
0.542654 0.292455 0.0
0.575017 0.347024 0.0
0.586426 0.389082 0.0
0.576258 0.419929 0.0
0.544787 0.441370 0.0
0.495389 0.454101 0.0
0.437412 0.454597 0.0
0.386116 0.433628 0.0
0.356679 0.381236 0.0
0.356104 0.295703 0.0
0.381063 0.186504 0.0
0.422741 0.068282 0.0
0.470297 -0.043012 0.0
0.515437 -0.137717 0.0
0.554877 -0.215598 0.0
0.587199 -0.277421 0.0
0.611957 -0.324145 0.0
0.629913 -0.356666 0.0
0.643344 -0.375268 0.0
0.656124 -0.378985 0.0
0.673156 -0.365541 0.0
0.698968 -0.332452 0.0
0.736073 -0.279032 0.0
0.784111 -0.207956 0.0
0.840258 -0.125193 0.0
0.899840 -0.039015 0.0
0.955189 0.038972 0.0
1.000527 0.102808 0.0
1.034954 0.153344 0.0
1.058661 0.191985 0.0
1.072146 0.220260 0.0
1.076007 0.239837 0.0
1.070803 0.252609 0.0
1.057030 0.260757 0.0
1.035294 0.266558 0.0
1.006722 0.271643 0.0
0.973483 0.275752 0.0
0.938968 0.275806 0.0
0.907254 0.266531 0.0
0.881937 0.242955 0.0
0.865092 0.203203 0.0
0.857073 0.149443 0.0
0.857109 0.086621 0.0
0.863987 0.020514 0.0
0.876133 -0.042992 0.0
0.891726 -0.099289 0.0
0.909061 -0.146120 0.0
0.926646 -0.182792 0.0
0.943266 -0.209650 0.0
0.958057 -0.227654 0.0
0.970587 -0.238014 0.0
0.980918 -0.241828 0.0
0.989622 -0.239766 0.0
0.997686 -0.231890 0.0
1.006293 -0.217711 0.0
1.016522 -0.196533 0.0
1.029064 -0.167952 0.0
1.044064 -0.132318 0.0
1.061108 -0.090974 0.0
1.079301 -0.046222 0.0
1.097236 -0.001223 0.0
1.113110 0.040198 0.0
1.125420 0.075814 0.0
1.133312 0.104580 0.0
1.136375 0.126349 0.0
1.134556 0.141663 0.0
1.128108 0.151503 0.0
1.117586 0.156975 0.0
1.103848 0.158949 0.0
1.088045 0.157706 0.0
1.071543 0.152737 0.0
1.055793 0.142793 0.0
1.042155 0.126398 0.0
1.031889 0.098217 0.0
0.998153 -0.004510 0.0
0.990553 -0.013898 0.0
0.974438 -0.023811 0.0
0.947754 -0.034195 0.0
0.906882 -0.044503 0.0
0.845866 -0.052799 0.0
0.755700 -0.053719 0.0
0.625717 -0.032434 0.0
0.459264 0.051191 0.0
0.184546 0.166729 0.0
0.000000 0.000000 0.0
-0.000000 -0.000000 0.0
0.000000 0.000000 0.0
-0.023499 -0.021914 0.0
-0.068076 -0.055673 0.0
-0.122966 -0.047465 0.0
-0.187082 -0.070682 0.0
-0.234889 -0.140708 0.0
-0.254723 -0.231113 0.0
-0.247047 -0.302057 0.0
-0.214627 -0.327704 0.0
-0.149631 -0.290493 0.0
-0.042312 -0.195539 0.0
0.083034 -0.060644 0.0
0.189070 0.058708 0.0
0.270523 0.157675 0.0
0.332693 0.244981 0.0
0.374489 0.320339 0.0
0.395063 0.383784 0.0
0.394946 0.435511 0.0
0.377655 0.474551 0.0
0.351426 0.496548 0.0
0.328985 0.492569 0.0
0.323270 0.452666 0.0
0.341142 0.373763 0.0
0.380917 0.263976 0.0
0.435687 0.138502 0.0
0.496551 0.013742 0.0
0.554230 -0.093707 0.0
0.603819 -0.181752 0.0
0.644495 -0.251679 0.0
0.675660 -0.304827 0.0
0.697051 -0.342888 0.0
0.708976 -0.367804 0.0
0.712742 -0.381326 0.0
0.711228 -0.384193 0.0
0.709160 -0.375297 0.0
0.712398 -0.351746 0.0
0.726075 -0.310520 0.0
0.752575 -0.251006 0.0
0.790778 -0.176492 0.0
0.836963 -0.093484 0.0
0.885568 -0.010514 0.0
0.930029 0.062495 0.0
0.966373 0.122885 0.0
0.993766 0.171345 0.0
1.012067 0.209113 0.0
1.021414 0.237776 0.0
1.022063 0.259225 0.0
1.014425 0.275551 0.0
0.999313 0.288612 0.0
0.978339 0.299134 0.0
0.954193 0.305647 0.0
0.930423 0.304197 0.0
0.910583 0.289694 0.0
0.897183 0.258509 0.0
0.891170 0.210508 0.0
0.892245 0.149082 0.0
0.899539 0.079652 0.0
0.911968 0.008176 0.0
0.927973 -0.058807 0.0
0.945727 -0.116821 0.0
0.963631 -0.163828 0.0
0.980354 -0.199392 0.0