# vtk DataFile Version 3.0
Vector Field
ASCII
DATASET RECTILINEAR_GRID
DIMENSIONS 100 26 1
X_COORDINATES 100 double
0.050000 0.150000 0.250000 0.350000 0.450000 0.550000 0.650000 0.750000 0.850000 0.950000 1.050000 1.150000 1.250000 1.350000 1.450000 1.550000 1.650000 1.750000 1.850000 1.950000 2.050000 2.150000 2.250000 2.350000 2.450000 2.550000 2.650000 2.750000 2.850000 2.950000 3.050000 3.150000 3.250000 3.350000 3.450000 3.550000 3.650000 3.750000 3.850000 3.950000 4.050000 4.150000 4.250000 4.350000 4.450000 4.550000 4.650000 4.750000 4.850000 4.950000 5.050000 5.150000 5.250000 5.350000 5.450000 5.550000 5.650000 5.750000 5.850000 5.950000 6.050000 6.150000 6.250000 6.350000 6.450000 6.550000 6.650000 6.750000 6.850000 6.950000 7.050000 7.150000 7.250000 7.350000 7.450000 7.550000 7.650000 7.750000 7.850000 7.950000 8.050000 8.150000 8.250000 8.350000 8.450000 8.550000 8.650000 8.750000 8.850000 8.950000 9.050000 9.150000 9.250000 9.350000 9.450000 9.550000 9.650000 9.750000 9.850000 9.950000 
Y_COORDINATES 26 double
0.050000 0.150000 0.250000 0.350000 0.450000 0.550000 0.650000 0.750000 0.850000 0.950000 1.050000 1.150000 1.250000 1.350000 1.450000 1.550000 1.650000 1.750000 1.850000 1.950000 2.050000 2.150000 2.250000 2.350000 2.450000 2.550000 
Z_COORDINATES 1 double
0.0
POINT_DATA 2600
VECTORS Vektorfeld double
0.997622 0.002378 0.0
0.992678 0.002565 0.0
0.988943 0.001170 0.0
0.988702 -0.000928 0.0
0.992972 -0.003342 0.0
1.002130 -0.005815 0.0
1.016049 -0.008104 0.0
1.034111 -0.009957 0.0
1.055211 -0.011143 0.0
1.077870 -0.011516 0.0
1.100452 -0.011066 0.0
1.121433 -0.009914 0.0
1.139583 -0.008235 0.0
1.154013 -0.006195 0.0
1.164122 -0.003914 0.0
1.169534 -0.001497 0.0
1.170156 0.000875 0.0
1.165913 0.003368 0.0
1.156485 0.006060 0.0
1.141485 0.008940 0.0
1.120596 0.011949 0.0
1.093660 0.014987 0.0
1.060756 0.017917 0.0
1.022253 0.020586 0.0
0.978828 0.022839 0.0
0.931447 0.024542 0.0
0.881322 0.025583 0.0
0.829859 0.025880 0.0
0.778599 0.025381 0.0
0.729152 0.024067 0.0
0.683127 0.021957 0.0
0.642058 0.019112 0.0
0.607309 0.015636 0.0
0.580018 0.011655 0.0
0.561188 0.007175 0.0
0.552011 0.002002 0.0
0.552952 -0.002943 0.0
0.562208 -0.006313 0.0
0.576529 -0.008007 0.0
0.592807 -0.008270 0.0
0.608448 -0.007372 0.0
0.621421 -0.005601 0.0
0.630342 -0.003320 0.0
0.634470 -0.000809 0.0
0.632816 0.002463 0.0
0.623791 0.006561 0.0
0.606217 0.011013 0.0
0.579876 0.015327 0.0
0.545480 0.019069 0.0
0.504606 0.021806 0.0
0.459861 0.022939 0.0
0.415298 0.021624 0.0
0.376373 0.017301 0.0
0.348411 0.010660 0.0
0.333909 0.003842 0.0
0.330869 -0.000803 0.0
0.334373 -0.002701 0.0
0.340530 -0.003455 0.0
0.347999 -0.004014 0.0
0.356301 -0.004288 0.0
0.364746 -0.004158 0.0
0.372613 -0.003709 0.0
0.379369 -0.003047 0.0
0.384695 -0.002278 0.0
0.388460 -0.001487 0.0
0.390671 -0.000724 0.0
0.391310 0.000086 0.0
0.390015 0.001209 0.0
0.386244 0.002562 0.0
0.379816 0.003866 0.0
0.371026 0.004924 0.0
0.360523 0.005579 0.0
0.349239 0.005705 0.0
0.338280 0.005254 0.0
0.328715 0.004310 0.0
0.321301 0.003105 0.0
0.316232 0.001964 0.0
0.313074 0.001193 0.0
0.310930 0.000952 0.0
0.308783 0.001195 0.0
0.305892 0.001696 0.0
0.302051 0.002145 0.0
0.297624 0.002282 0.0
0.293348 0.001995 0.0
0.290012 0.001341 0.0
0.288170 0.000501 0.0
0.287907 -0.000238 0.0
0.288858 -0.000712 0.0
0.290577 -0.001007 0.0
0.292804 -0.001220 0.0
0.295458 -0.001433 0.0
0.298532 -0.001641 0.0
0.301954 -0.001781 0.0
0.305545 -0.001811 0.0
0.309058 -0.001703 0.0
0.312204 -0.001443 0.0
0.314692 -0.001046 0.0
0.316306 -0.000568 0.0
0.317048 -0.000173 0.0
0.316774 0.000448 0.0
1.002912 0.001845 0.0
1.011246 -0.000292 0.0
1.024094 -0.005087 0.0
1.040938 -0.011274 0.0
1.061821 -0.018149 0.0
1.086775 -0.025121 0.0
1.115604 -0.031548 0.0
1.147748 -0.036719 0.0
1.182224 -0.039957 0.0
1.217664 -0.040801 0.0
1.252550 -0.039249 0.0
1.285545 -0.035708 0.0
1.315695 -0.030741 0.0
1.342433 -0.024857 0.0
1.365469 -0.018397 0.0
1.384585 -0.011542 0.0
1.399289 -0.004405 0.0
1.408977 0.003203 0.0
1.413193 0.011437 0.0
1.411475 0.020282 0.0
1.403405 0.029565 0.0
1.388745 0.038967 0.0
1.367527 0.048059 0.0
1.340109 0.056365 0.0
1.307174 0.063420 0.0
1.269705 0.068812 0.0
1.228932 0.072210 0.0
1.186281 0.073366 0.0
1.143313 0.072123 0.0
1.101659 0.068426 0.0
1.062952 0.062330 0.0
1.028745 0.054017 0.0
1.000421 0.043803 0.0
0.979109 0.032090 0.0
0.965446 0.019232 0.0
0.958957 0.005612 0.0
0.958440 -0.006976 0.0
0.963469 -0.016567 0.0
0.974241 -0.022847 0.0
0.990480 -0.025947 0.0
1.011108 -0.025963 0.0
1.034069 -0.022943 0.0
1.056206 -0.017036 0.0
1.073508 -0.008524 0.0
1.082840 0.002501 0.0
1.082798 0.015591 0.0
1.072864 0.029492 0.0
1.053244 0.042807 0.0
1.024986 0.054243 0.0
0.989949 0.062543 0.0
0.950620 0.066275 0.0
0.909539 0.063933 0.0
0.868440 0.055017 0.0
0.827844 0.041501 0.0
0.787929 0.027419 0.0
0.750665 0.015924 0.0
0.720851 0.006882 0.0
0.702917 -0.001261 0.0
0.697011 -0.007771 0.0
0.699886 -0.011707 0.0
0.708346 -0.013643 0.0
0.720492 -0.014237 0.0
0.735036 -0.013820 0.0
0.750829 -0.012624 0.0
0.766681 -0.010759 0.0
0.781258 -0.008240 0.0
0.793235 -0.005014 0.0
0.801967 -0.001129 0.0
0.807711 0.002928 0.0
0.810946 0.006693 0.0
0.812121 0.009712 0.0
0.811797 0.011617 0.0
0.810535 0.012213 0.0
0.808669 0.011571 0.0
0.806148 0.010079 0.0
0.802524 0.008375 0.0
0.797130 0.007157 0.0
0.789369 0.006919 0.0
0.778980 0.007760 0.0
0.766174 0.009340 0.0
0.751627 0.010990 0.0
0.736389 0.011930 0.0
0.721738 0.011574 0.0
0.708952 0.009764 0.0
0.699040 0.006818 0.0
0.692514 0.003392 0.0
0.689398 0.000251 0.0
0.689238 -0.001991 0.0
0.691192 -0.003401 0.0
0.694527 -0.004389 0.0
0.698902 -0.005293 0.0
0.704176 -0.006130 0.0
0.710122 -0.006659 0.0
0.716366 -0.006767 0.0
0.722476 -0.006369 0.0
0.727968 -0.005414 0.0
0.732329 -0.003925 0.0
0.735081 -0.002055 0.0
0.735817 -0.000164 0.0
0.735153 0.001377 0.0
1.001815 -0.002882 0.0
1.008295 -0.010378 0.0
1.020096 -0.019650 0.0
1.036789 -0.030248 0.0
1.058370 -0.041639 0.0
1.084910 -0.053125 0.0
1.116290 -0.063753 0.0
1.151958 -0.072326 0.0
1.190741 -0.077610 0.0
1.230783 -0.078629 0.0
1.269935 -0.075459 0.0
1.306466 -0.069025 0.0
1.339371 -0.060479 0.0
1.368276 -0.050763 0.0
1.393180 -0.040430 0.0
1.414192 -0.029639 0.0
1.431376 -0.018196 0.0
1.444569 -0.005888 0.0
1.453387 0.007493 0.0
1.457326 0.022006 0.0
1.455860 0.037376 0.0
1.448619 0.053057 0.0
1.435498 0.068308 0.0
1.416711 0.082322 0.0
1.392784 0.094325 0.0
1.364506 0.103654 0.0
1.332868 0.109780 0.0
1.298994 0.112320 0.0
1.264093 0.111038 0.0
1.229402 0.105855 0.0
1.196136 0.096872 0.0
1.165426 0.084393 0.0
1.138244 0.068934 0.0
1.115310 0.051206 0.0
1.096970 0.032119 0.0
1.083233 0.012951 0.0
1.074337 -0.004901 0.0
1.071142 -0.020476 0.0
1.074676 -0.033243 0.0
1.085528 -0.042642 0.0
1.103473 -0.047842 0.0
1.127286 -0.047839 0.0
1.154766 -0.041756 0.0
1.182917 -0.029257 0.0
1.208121 -0.011302 0.0
1.227259 0.010297 0.0
1.238600 0.033379 0.0
1.241418 0.055722 0.0
1.235750 0.075254 0.0
1.222270 0.090048 0.0
1.202002 0.098367 0.0
1.175890 0.099035 0.0
1.144607 0.092298 0.0
1.109057 0.080365 0.0
1.071253 0.066274 0.0
1.034010 0.051575 0.0
0.998988 0.036066 0.0
0.965954 0.020523 0.0
0.935494 0.006811 0.0
0.910669 -0.004340 0.0
0.894043 -0.012844 0.0
0.885379 -0.018517 0.0
0.883039 -0.021744 0.0
0.885509 -0.022962 0.0
0.891568 -0.022333 0.0
0.900247 -0.019923 0.0
0.910831 -0.015892 0.0
0.922656 -0.010809 0.0
0.934956 -0.005437 0.0
0.947229 -0.000451 0.0
0.959416 0.003496 0.0
0.971619 0.005954 0.0
0.983908 0.006849 0.0
0.996174 0.006536 0.0
1.008062 0.005746 0.0
1.019027 0.005367 0.0
1.028449 0.006137 0.0
1.035769 0.008380 0.0
1.040567 0.011890 0.0
1.042560 0.016024 0.0
1.041499 0.019913 0.0
1.037152 0.022592 0.0
1.029314 0.023401 0.0
1.017816 0.022222 0.0
1.002641 0.019447 0.0
0.984144 0.015785 0.0
0.963258 0.011860 0.0
0.941871 0.007946 0.0
0.922747 0.003832 0.0
0.908514 -0.000725 0.0
0.900473 -0.005291 0.0
0.898093 -0.009026 0.0
0.899999 -0.011614 0.0
0.905108 -0.013165 0.0
0.912625 -0.013598 0.0
0.921720 -0.012772 0.0
0.931396 -0.010604 0.0
0.940432 -0.007164 0.0
0.947402 -0.002762 0.0
0.950464 0.001578 0.0
1.001425 -0.006123 0.0
1.006966 -0.019157 0.0
1.017808 -0.033514 0.0
1.033970 -0.049238 0.0
1.055756 -0.066015 0.0
1.083576 -0.083109 0.0
1.117666 -0.099239 0.0
1.157680 -0.112520 0.0
1.202311 -0.120830 0.0
1.248726 -0.121866 0.0
1.293367 -0.116016 0.0
1.333759 -0.105391 0.0
1.368946 -0.092204 0.0
1.399018 -0.078016 0.0
1.424544 -0.063606 0.0
1.446134 -0.049066 0.0
1.464162 -0.033981 0.0
1.478583 -0.017718 0.0
1.488888 0.000201 0.0
1.494345 0.019902 0.0
1.494263 0.041029 0.0
1.488139 0.062770 0.0
1.475853 0.084002 0.0
1.457734 0.103534 0.0
1.434478 0.120295 0.0
1.407017 0.133423 0.0
1.376386 0.142281 0.0
1.343640 0.146439 0.0
1.309802 0.145658 0.0
1.275839 0.139889 0.0
1.242649 0.129294 0.0
1.211054 0.114277 0.0
1.181789 0.095497 0.0
1.155502 0.073865 0.0
1.132788 0.050515 0.0
1.114354 0.026725 0.0
1.101148 0.003426 0.0
1.094355 -0.018816 0.0
1.095168 -0.039249 0.0
1.104354 -0.056673 0.0
1.121942 -0.069344 0.0
1.147126 -0.075334 0.0
1.178358 -0.072972 0.0
1.213404 -0.061239 0.0
1.249245 -0.040364 0.0
1.281992 -0.012525 0.0
1.308118 0.018734 0.0
1.326031 0.049636 0.0
1.335580 0.077459 0.0
1.337011 0.099892 0.0
1.330676 0.115126 0.0
1.316886 0.122178 0.0
1.296010 0.121315 0.0
1.268864 0.114043 0.0
1.236962 0.102303 0.0
1.202162 0.087590 0.0
1.166126 0.071109 0.0
1.130387 0.054252 0.0
1.096215 0.037713 0.0
1.063967 0.021832 0.0
1.033960 0.007616 0.0
1.007822 -0.004175 0.0
0.987345 -0.013269 0.0
0.972841 -0.019403 0.0
0.963523 -0.022632 0.0
0.958405 -0.023185 0.0
0.956603 -0.021412 0.0
0.957436 -0.017946 0.0
0.960531 -0.013694 0.0
0.965831 -0.009768 0.0
0.973538 -0.007081 0.0
0.984020 -0.006155 0.0
0.997661 -0.006972 0.0
1.014718 -0.008966 0.0
1.035203 -0.011125 0.0
1.058747 -0.012271 0.0
1.084509 -0.011409 0.0
1.111135 -0.008020 0.0
1.136849 -0.002223 0.0
1.159754 0.005240 0.0
1.178312 0.013199 0.0
1.191514 0.020452 0.0
1.198670 0.026222 0.0
1.199333 0.030236 0.0
1.193489 0.032452 0.0
1.181744 0.033023 0.0
1.165267 0.031986 0.0
1.145437 0.029037 0.0
1.123356 0.023947 0.0
1.099733 0.017015 0.0
1.075615 0.009129 0.0
1.053367 0.001181 0.0
1.035947 -0.006307 0.0
1.024855 -0.012489 0.0
1.019724 -0.016661 0.0
1.019471 -0.018551 0.0
1.022885 -0.017915 0.0
1.028562 -0.014566 0.0
1.034772 -0.008540 0.0
1.037932 0.001134 0.0
1.001223 -0.008772 0.0
1.006127 -0.026954 0.0
1.016080 -0.046512 0.0
1.031520 -0.067843 0.0
1.053236 -0.090912 0.0
1.082265 -0.115061 0.0
1.119596 -0.138708 0.0
1.165506 -0.158975 0.0
1.218987 -0.172487 0.0
1.275121 -0.172757 0.0
1.327028 -0.161672 0.0
1.371182 -0.144282 0.0
1.407322 -0.124640 0.0
1.436729 -0.105059 0.0
1.461073 -0.086432 0.0
1.481838 -0.068594 0.0
1.499977 -0.050620 0.0
1.515643 -0.031167 0.0
1.528021 -0.009033 0.0
1.535651 0.016049 0.0
1.537094 0.043521 0.0
1.531381 0.072114 0.0
1.518248 0.100077 0.0
1.498161 0.125666 0.0
1.472124 0.147456 0.0
1.441412 0.164435 0.0
1.407351 0.175961 0.0
1.371178 0.181678 0.0
1.333988 0.181447 0.0
1.296729 0.175321 0.0
1.260237 0.163544 0.0
1.225274 0.146585 0.0
1.192577 0.125150 0.0
1.162898 0.100177 0.0
1.137034 0.072780 0.0
1.115843 0.044084 0.0
1.100200 0.014916 0.0
1.090932 -0.014246 0.0
1.088796 -0.042496 0.0
1.094322 -0.068138 0.0
1.107693 -0.088838 0.0
1.128888 -0.102220 0.0
1.157841 -0.106270 0.0
1.194193 -0.099340 0.0
1.236548 -0.080459 0.0
1.281584 -0.050213 0.0
1.323674 -0.011794 0.0
1.357024 0.028902 0.0
1.379520 0.066149 0.0
1.391957 0.097334 0.0
1.395228 0.120747 0.0
1.390024 0.135551 0.0
1.376946 0.141896 0.0
1.356769 0.140785 0.0
1.330589 0.133642 0.0
1.299732 0.121908 0.0
1.265586 0.106973 0.0
1.229548 0.090165 0.0
1.192945 0.072576 0.0
1.156996 0.055166 0.0
1.122734 0.038551 0.0
1.090695 0.023067 0.0
1.061184 0.009478 0.0
1.034923 -0.001386 0.0
1.012609 -0.009017 0.0
0.994097 -0.013169 0.0
0.978581 -0.014110 0.0
0.965231 -0.012731 0.0
0.953656 -0.010428 0.0
0.944128 -0.008804 0.0
0.937575 -0.009198 0.0
0.935340 -0.012286 0.0
0.938773 -0.017915 0.0
0.948886 -0.025194 0.0
0.966156 -0.032653 0.0
0.990505 -0.038636 0.0
1.021396 -0.041696 0.0
1.057896 -0.040859 0.0
1.098578 -0.035781 0.0
1.141290 -0.026819 0.0
1.182954 -0.014965 0.0
1.219900 -0.001530 0.0
1.248983 0.011965 0.0
1.268801 0.024012 0.0
1.279497 0.033823 0.0
1.281795 0.041099 0.0
1.276678 0.045503 0.0
1.265283 0.046743 0.0
1.248816 0.044790 0.0
1.228625 0.039985 0.0
1.206175 0.032728 0.0
1.182640 0.023365 0.0
1.158826 0.012743 0.0
1.136144 0.002235 0.0
1.116859 -0.006969 0.0
1.102576 -0.013707 0.0
1.093418 -0.017015 0.0
1.088516 -0.016242 0.0
1.086420 -0.010978 0.0
1.084382 0.002450 0.0
1.001021 -0.011016 0.0
1.005181 -0.033775 0.0
1.013853 -0.058315 0.0
1.027844 -0.085470 0.0
1.048524 -0.115681 0.0
1.077855 -0.148653 0.0
1.118184 -0.182777 0.0
1.171308 -0.213940 0.0
1.238235 -0.237932 0.0
1.308748 -0.233959 0.0
1.367908 -0.211536 0.0
1.412154 -0.182817 0.0
1.444166 -0.154258 0.0
1.467765 -0.128448 0.0
1.486345 -0.105967 0.0
1.502626 -0.086104 0.0
1.518506 -0.067129 0.0
1.534738 -0.046555 0.0
1.550398 -0.021682 0.0
1.562627 0.008839 0.0
1.568187 0.043727 0.0
1.565048 0.080760 0.0
1.552543 0.117070 0.0
1.531275 0.150029 0.0
1.502657 0.177747 0.0
1.468416 0.199097 0.0
1.430242 0.213533 0.0
1.389639 0.220881 0.0
1.347880 0.221194 0.0
1.306030 0.214682 0.0
1.265011 0.201693 0.0
1.225678 0.182732 0.0
1.188889 0.158489 0.0
1.155544 0.129862 0.0
1.126542 0.097961 0.0
1.102579 0.064057 0.0
1.083793 0.029373 0.0
1.069594 -0.005236 0.0
1.059402 -0.039177 0.0
1.053369 -0.070949 0.0
1.052409 -0.098437 0.0
1.058273 -0.119681 0.0
1.073457 -0.132946 0.0
1.100368 -0.135927 0.0
1.140077 -0.125935 0.0
1.191344 -0.101040 0.0
1.249886 -0.061599 0.0
1.307348 -0.012105 0.0
1.353761 0.038247 0.0
1.385222 0.081338 0.0
1.403408 0.115286 0.0
1.410101 0.139524 0.0
1.406784 0.154317 0.0
1.394769 0.160556 0.0
1.375331 0.159489 0.0
1.349760 0.152490 0.0
1.319350 0.140947 0.0
1.285396 0.126183 0.0
1.249170 0.109387 0.0
1.211891 0.091583 0.0
1.174674 0.073613 0.0
1.138472 0.056244 0.0
1.104017 0.040267 0.0
1.071599 0.026504 0.0
1.040974 0.016032 0.0
1.011590 0.009679 0.0
0.982835 0.007312 0.0
0.954451 0.007581 0.0
0.927073 0.008213 0.0
0.902396 0.006760 0.0
0.882730 0.001458 0.0
0.870330 -0.008307 0.0
0.866894 -0.021892 0.0
0.873090 -0.037525 0.0
0.888490 -0.052991 0.0
0.912082 -0.066238 0.0
0.942748 -0.075652 0.0
0.979468 -0.080122 0.0
1.021278 -0.079010 0.0
1.067099 -0.072124 0.0
1.115509 -0.059735 0.0
1.164475 -0.042671 0.0
1.211002 -0.022505 0.0
1.251096 -0.001429 0.0
1.281398 0.018266 0.0
1.301085 0.034672 0.0
1.311014 0.047120 0.0
1.312281 0.055254 0.0
1.306077 0.058951 0.0
1.293724 0.058368 0.0
1.276638 0.053880 0.0
1.256271 0.046115 0.0
1.234112 0.035968 0.0
1.211489 0.024315 0.0
1.189359 0.012366 0.0
1.168740 0.001860 0.0
1.150835 -0.005518 0.0
1.136304 -0.008306 0.0
1.124932 -0.005447 0.0
1.116148 0.007741 0.0
1.000740 -0.012776 0.0
1.003795 -0.039231 0.0
1.010357 -0.068094 0.0
1.021486 -0.100812 0.0
1.039095 -0.138628 0.0
1.066267 -0.182206 0.0
1.107489 -0.230775 0.0
1.167808 -0.279384 0.0
1.255238 -0.326846 0.0
1.344864 -0.305184 0.0
1.403962 -0.258569 0.0
1.436411 -0.212480 0.0
1.452959 -0.173155 0.0
1.461117 -0.141307 0.0
1.465815 -0.116386 0.0
1.470774 -0.096925 0.0
1.478967 -0.080381 0.0
1.492444 -0.063013 0.0
1.511414 -0.039854 0.0
1.532218 -0.006021 0.0
1.547821 0.037423 0.0
1.552908 0.085116 0.0
1.546064 0.132063 0.0
1.528126 0.174241 0.0
1.501061 0.209217 0.0
1.467062 0.235867 0.0
1.428128 0.253871 0.0
1.385941 0.263333 0.0
1.341888 0.264554 0.0
1.297139 0.257922 0.0
1.252730 0.243882 0.0
1.209650 0.222956 0.0
1.168913 0.195791 0.0
1.131573 0.163245 0.0
1.098589 0.126566 0.0
1.070356 0.087649 0.0
1.045906 0.049016 0.0
1.022439 0.012787 0.0
0.996571 -0.021141 0.0
0.968166 -0.054549 0.0
0.941561 -0.087271 0.0
0.923115 -0.118264 0.0
0.918987 -0.145419 0.0
0.933048 -0.164427 0.0
0.966114 -0.170210 0.0
1.016710 -0.158627 0.0
1.081807 -0.127651 0.0
1.156646 -0.078354 0.0
1.232112 -0.017382 0.0
1.295004 0.042613 0.0
1.339218 0.091611 0.0
1.366982 0.128742 0.0
1.380779 0.154618 0.0
1.382711 0.170340 0.0
1.374602 0.177252 0.0
1.358103 0.176798 0.0
1.334736 0.170415 0.0
1.305931 0.159473 0.0
1.273034 0.145220 0.0
1.237301 0.128762 0.0
1.199864 0.111088 0.0
1.161657 0.093178 0.0
1.123268 0.076177 0.0
1.084771 0.061510 0.0
1.045713 0.050708 0.0
1.005470 0.044630 0.0
0.963972 0.042614 0.0
0.922446 0.042188 0.0
0.883590 0.039839 0.0
0.850881 0.032518 0.0
0.827412 0.018835 0.0
0.814896 -0.000767 0.0
0.813418 -0.024517 0.0
0.821893 -0.049571 0.0
0.838732 -0.073184 0.0
0.862401 -0.093306 0.0
0.891704 -0.108554 0.0
0.925798 -0.118034 0.0
0.964075 -0.121184 0.0
1.005998 -0.117692 0.0
1.050918 -0.107497 0.0
1.097910 -0.090866 0.0
1.145609 -0.068537 0.0
1.192055 -0.041938 0.0
1.234228 -0.013701 0.0
1.268311 0.012869 0.0
1.292218 0.035086 0.0
1.306239 0.051999 0.0
1.311302 0.063346 0.0
1.308507 0.069121 0.0
1.299111 0.069610 0.0
1.284469 0.065394 0.0
1.265981 0.057335 0.0
1.245000 0.046551 0.0
1.222770 0.034490 0.0
1.200329 0.022795 0.0
1.178440 0.013341 0.0
1.157759 0.008046 0.0
1.139014 0.008318 0.0
1.124171 0.017604 0.0
1.000338 -0.013854 0.0
1.001773 -0.042643 0.0
1.005055 -0.074527 0.0
1.011240 -0.111693 0.0
1.022438 -0.156555 0.0
1.042610 -0.211622 0.0
1.078842 -0.278815 0.0
1.142136 -0.354958 0.0
1.258520 -0.455085 0.0
1.365492 -0.373543 0.0
1.399056 -0.282873 0.0
1.395636 -0.217204 0.0
1.380038 -0.169381 0.0
1.360938 -0.134140 0.0
1.342175 -0.109489 0.0
1.326981 -0.093587 0.0
1.318759 -0.083690 0.0
1.321304 -0.075726 0.0
1.338187 -0.062994 0.0
1.369852 -0.035350 0.0
1.406059 0.014941 0.0
1.432121 0.076449 0.0
1.442647 0.137050 0.0
1.439080 0.190758 0.0
1.424102 0.234744 0.0
1.400274 0.268166 0.0
1.369659 0.291121 0.0
1.333876 0.304053 0.0
1.294269 0.307494 0.0
1.252033 0.301968 0.0
1.208291 0.287986 0.0
1.164151 0.266072 0.0
1.120718 0.236845 0.0
1.079033 0.201215 0.0
1.039768 0.160845 0.0
1.002457 0.118914 0.0
0.964487 0.080171 0.0
0.921482 0.048104 0.0
0.870598 0.020294 0.0
0.814615 -0.011596 0.0
0.764822 -0.053825 0.0
0.734784 -0.103225 0.0
0.729726 -0.151272 0.0
0.747059 -0.189968 0.0
0.782566 -0.213242 0.0
0.833232 -0.216858 0.0
0.897105 -0.198390 0.0
0.972274 -0.157623 0.0
1.055868 -0.097173 0.0
1.140810 -0.025430 0.0
1.213630 0.042620 0.0
1.266798 0.096801 0.0
1.302357 0.137204 0.0
1.322848 0.165331 0.0
1.330440 0.182778 0.0
1.327051 0.191159 0.0
1.314431 0.192041 0.0
1.294185 0.186898 0.0
1.267790 0.177087 0.0
1.236577 0.163842 0.0
1.201679 0.148342 0.0
1.163933 0.131877 0.0
1.123736 0.116063 0.0
1.081009 0.102849 0.0
1.035475 0.093961 0.0
0.987347 0.089747 0.0
0.938113 0.088230 0.0
0.890829 0.085382 0.0
0.849481 0.076849 0.0
0.817692 0.060007 0.0
0.797587 0.034921 0.0
0.789439 0.003810 0.0
0.791957 -0.030134 0.0
0.803046 -0.063518 0.0
0.820700 -0.093729 0.0
0.843388 -0.119118 0.0
0.870070 -0.138726 0.0
0.900107 -0.151992 0.0
0.933146 -0.158543 0.0
0.968983 -0.158094 0.0
1.007409 -0.150442 0.0
1.048062 -0.135566 0.0
1.090309 -0.113783 0.0
1.133137 -0.085965 0.0
1.175043 -0.053753 0.0
1.213752 -0.019870 0.0
1.245930 0.011740 0.0
1.269248 0.038007 0.0
1.283535 0.057989 0.0
1.289384 0.071424 0.0
1.287668 0.078419 0.0
1.279450 0.079445 0.0
1.265885 0.075338 0.0
1.248125 0.067289 0.0
1.227256 0.056852 0.0
1.204263 0.045868 0.0
1.180101 0.036320 0.0
1.155880 0.029970 0.0
1.133079 0.027941 0.0
1.114836 0.031068 0.0
0.999817 -0.014009 0.0
0.999109 -0.043215 0.0
0.997885 -0.076013 0.0
0.996746 -0.115252 0.0
0.997186 -0.164635 0.0
1.002735 -0.229263 0.0
1.021635 -0.316305 0.0
1.072248 -0.431375 0.0
1.215079 -0.637883 0.0
1.312505 -0.395143 0.0
1.265606 -0.247937 0.0
1.195202 -0.178315 0.0
1.135449 -0.132919 0.0
1.083776 -0.099830 0.0
1.037372 -0.078633 0.0
0.996972 -0.068848 0.0
0.965650 -0.068884 0.0
0.949447 -0.076873 0.0
0.956884 -0.086167 0.0
0.994456 -0.081415 0.0
1.060393 -0.041139 0.0
1.131305 0.035555 0.0
1.183149 0.115575 0.0
1.214523 0.184426 0.0
1.230297 0.240280 0.0
1.233497 0.283257 0.0
1.226052 0.314091 0.0
1.209387 0.333532 0.0
1.184778 0.342231 0.0
1.153483 0.340762 0.0
1.116748 0.329669 0.0
1.075721 0.309557 0.0
1.031157 0.281357 0.0
0.982590 0.246954 0.0
0.927011 0.209950 0.0
0.859125 0.175006 0.0
0.776707 0.144466 0.0
0.688438 0.115082 0.0
0.613265 0.079373 0.0
0.568095 0.030478 0.0
0.555457 -0.033467 0.0
0.565685 -0.103774 0.0
0.588834 -0.168816 0.0
0.620140 -0.221063 0.0
0.658617 -0.256131 0.0
0.705000 -0.271018 0.0
0.760436 -0.263538 0.0
0.825581 -0.232790 0.0
0.899992 -0.180011 0.0
0.981752 -0.109294 0.0
1.065195 -0.029779 0.0
1.138161 0.043065 0.0
1.193125 0.100417 0.0
1.231464 0.143286 0.0
1.255181 0.173515 0.0
1.266100 0.192892 0.0
1.265918 0.203111 0.0
1.256230 0.205762 0.0
1.238516 0.202332 0.0
1.214098 0.194229 0.0
1.184059 0.182892 0.0
1.149137 0.169996 0.0
1.109672 0.157606 0.0
1.065778 0.147928 0.0
1.017870 0.142323 0.0
0.967415 0.139969 0.0
0.917367 0.137291 0.0
0.871789 0.129184 0.0
0.834657 0.111526 0.0
0.808590 0.083186 0.0
0.794290 0.046147 0.0
0.790866 0.004155 0.0
0.796474 -0.038605 0.0
0.808972 -0.078635 0.0
0.826464 -0.113758 0.0
0.847502 -0.142816 0.0
0.871087 -0.165296 0.0
0.896640 -0.181012 0.0
0.923935 -0.189859 0.0
0.952998 -0.191678 0.0
0.983948 -0.186233 0.0
1.016836 -0.173316 0.0
1.051500 -0.152944 0.0
1.087464 -0.125596 0.0
1.123872 -0.092437 0.0
1.159435 -0.055458 0.0
1.192239 -0.017654 0.0
1.219500 0.016822 0.0
1.239250 0.045136 0.0
1.251196 0.066483 0.0
1.255625 0.080646 0.0
1.253156 0.087905 0.0
1.244587 0.089012 0.0
1.230796 0.085166 0.0
1.212680 0.077960 0.0
1.191176 0.069255 0.0
1.167368 0.060902 0.0
1.142669 0.054308 0.0
1.119017 0.050055 0.0
1.099903 0.046311 0.0
0.999229 -0.013055 0.0
0.996084 -0.040316 0.0
0.989582 -0.071185 0.0
0.979375 -0.108734 0.0
0.965160 -0.157377 0.0
0.947321 -0.224232 0.0
0.929203 -0.322117 0.0
0.925619 -0.472593 0.0
1.019181 -0.833058 0.0
1.015393 -0.193062 0.0
0.828258 -0.105029 0.0
0.684084 -0.096232 0.0
0.600299 -0.071464 0.0
0.535306 -0.044619 0.0
0.475987 -0.028121 0.0
0.427924 -0.030898 0.0
0.403061 -0.050649 0.0
0.408409 -0.084253 0.0
0.445255 -0.123071 0.0
0.510901 -0.147729 0.0
0.601315 -0.131176 0.0
0.710987 -0.054992 0.0
0.814551 0.050714 0.0
0.891604 0.140860 0.0
0.947355 0.212321 0.0
0.986682 0.268689 0.0
1.011092 0.311693 0.0
1.021469 0.342218 0.0
1.018795 0.360828 0.0
1.004200 0.368055 0.0
0.978744 0.364567 0.0
0.942970 0.351460 0.0
0.896114 0.330876 0.0
0.835556 0.306560 0.0
0.758755 0.282725 0.0
0.669012 0.259859 0.0
0.579886 0.231157 0.0
0.510108 0.186439 0.0
0.472063 0.121235 0.0
0.465836 0.040013 0.0
0.482056 -0.046586 0.0
0.509131 -0.127958 0.0
0.539633 -0.198282 0.0
0.571100 -0.254369 0.0
0.603894 -0.294096 0.0
0.639929 -0.315471 0.0
0.681774 -0.316366 0.0
0.731734 -0.295067 0.0
0.790986 -0.251396 0.0
0.859078 -0.187762 0.0
0.933851 -0.109527 0.0
1.009913 -0.026215 0.0
1.076863 0.047784 0.0
1.128353 0.106091 0.0
1.165188 0.150159 0.0
1.188687 0.181829 0.0
1.200211 0.202832 0.0
1.201116 0.214823 0.0
1.192707 0.219393 0.0
1.176162 0.218131 0.0
1.152434 0.212758 0.0
1.122177 0.205308 0.0
1.085825 0.198111 0.0
1.043943 0.193199 0.0
0.997854 0.191048 0.0
0.950172 0.189382 0.0
0.904720 0.183377 0.0
0.865618 0.167778 0.0
0.835997 0.139684 0.0
0.817207 0.099885 0.0
0.808921 0.052033 0.0
0.809786 0.000827 0.0
0.817971 -0.049070 0.0
0.831547 -0.094244 0.0
0.848779 -0.132874 0.0
0.868251 -0.164209 0.0
0.888922 -0.188160 0.0
0.910178 -0.204957 0.0
0.931828 -0.214860 0.0
0.954045 -0.217957 0.0
0.977227 -0.214087 0.0
1.001804 -0.202928 0.0
1.028040 -0.184231 0.0
1.055887 -0.158120 0.0
1.084926 -0.125360 0.0
1.114349 -0.087520 0.0
1.142956 -0.047003 0.0
1.168981 -0.007115 0.0
1.190209 0.028094 0.0
1.205182 0.056606 0.0
1.213552 0.077724 0.0
1.215420 0.091428 0.0
1.211173 0.098305 0.0
1.201368 0.099470 0.0
1.186689 0.096450 0.0
1.167988 0.090970 0.0
1.146394 0.084590 0.0
1.123475 0.078237 0.0
1.101349 0.071904 0.0
1.083328 0.061598 0.0
0.998683 -0.010967 0.0
0.993262 -0.033836 0.0
0.981762 -0.059662 0.0
0.962699 -0.090988 0.0
0.933313 -0.131522 0.0
0.888515 -0.187451 0.0
0.818316 -0.270581 0.0
0.703147 -0.405377 0.0
0.315549 -0.706782 0.0
-0.461020 0.246825 0.0
-0.461020 0.000000 0.0
-0.033379 -0.023337 0.0
-0.063956 -0.040040 0.0
-0.048165 -0.026841 0.0
-0.010849 -0.023895 0.0
0.033655 -0.031565 0.0
0.066851 -0.058316 0.0
0.092255 -0.107337 0.0
0.123383 -0.167961 0.0
0.171500 -0.216602 0.0
0.242674 -0.223891 0.0
0.338676 -0.167951 0.0
0.453813 -0.055027 0.0
0.562467 0.060893 0.0
0.648610 0.150393 0.0
0.717354 0.222546 0.0
0.769514 0.281268 0.0
0.804611 0.327169 0.0
0.822714 0.360448 0.0
0.824184 0.381561 0.0
0.809160 0.391541 0.0
0.777036 0.392383 0.0
0.726608 0.387237 0.0
0.658325 0.379039 0.0
0.578737 0.366637 0.0
0.502612 0.341815 0.0
0.447264 0.293675 0.0
0.422587 0.218375 0.0
0.426980 0.122952 0.0
0.451571 0.019933 0.0
0.485427 -0.076581 0.0
0.520419 -0.160030 0.0
0.552882 -0.229175 0.0
0.581549 -0.283610 0.0
0.606938 -0.323038 0.0
0.631115 -0.346741 0.0
0.657350 -0.353176 0.0
0.689341 -0.340208 0.0
0.730050 -0.306216 0.0
0.780658 -0.251641 0.0
0.840193 -0.179956 0.0
0.905823 -0.097478 0.0
0.971783 -0.013863 0.0
1.029576 0.058454 0.0
1.074615 0.115923 0.0
1.107173 0.160007 0.0
1.127997 0.192306 0.0
1.138015 0.214427 0.0
1.138204 0.228009 0.0
1.129477 0.234787 0.0
1.112589 0.236718 0.0
1.088137 0.236056 0.0
1.056759 0.235093 0.0
1.019595 0.235264 0.0
0.978813 0.235854 0.0
0.937775 0.233296 0.0
0.900468 0.222222 0.0
0.870372 0.198131 0.0
0.849487 0.159836 0.0
0.838158 0.109852 0.0
0.835597 0.052913 0.0
0.840497 -0.005817 0.0
0.851211 -0.061324 0.0
0.865961 -0.110316 0.0
0.883121 -0.151195 0.0
0.901285 -0.183523 0.0
0.919366 -0.207598 0.0
0.936683 -0.224092 0.0
0.953021 -0.233712 0.0
0.968623 -0.236923 0.0
0.984092 -0.233773 0.0
1.000200 -0.223927 0.0
1.017636 -0.206904 0.0
1.036793 -0.182452 0.0
1.057648 -0.150922 0.0
1.079752 -0.113485 0.0
1.102285 -0.072178 0.0
1.124092 -0.029772 0.0
1.143467 0.010148 0.0
1.158695 0.044352 0.0
1.168799 0.071504 0.0
1.173392 0.091187 0.0
1.172448 0.103738 0.0
1.166194 0.110096 0.0
1.155087 0.111610 0.0
1.139857 0.109743 0.0
1.121606 0.105662 0.0
1.101913 0.099777 0.0
1.082849 0.091554 0.0
1.067248 0.075569 0.0
0.998301 -0.007952 0.0
0.991295 -0.024424 0.0
0.976357 -0.042637 0.0
0.951334 -0.063928 0.0
0.912087 -0.089948 0.0
0.850633 -0.122773 0.0
0.750306 -0.164734 0.0
0.571895 -0.217643 0.0
0.228105 -0.260542 0.0
0.000000 0.246825 0.0
-0.000000 -0.000000 0.0
0.000000 0.000000 0.0
-0.022704 -0.021421 0.0
-0.050211 -0.035027 0.0
-0.056131 -0.047105 0.0
-0.065816 -0.043174 0.0
-0.087014 -0.058706 0.0
-0.108802 -0.110563 0.0
-0.117180 -0.187485 0.0
-0.102884 -0.259490 0.0
-0.059586 -0.295474 0.0
0.019632 -0.271587 0.0
0.131681 -0.178577 0.0
0.258757 -0.051288 0.0
0.373085 0.062103 0.0
0.463319 0.151857 0.0
0.534886 0.228229 0.0
0.587653 0.292343 0.0
0.620873 0.343952 0.0
0.633981 0.383479 0.0
0.626403 0.412225 0.0
0.598043 0.432184 0.0
0.551172 0.444736 0.0
0.493413 0.447583 0.0
0.438726 0.432369 0.0
0.402683 0.388250 0.0
0.394272 0.310999 0.0
0.412179 0.207820 0.0
0.448565 0.092727 0.0
0.493280 -0.019149 0.0
0.537610 -0.115685 0.0
0.577221 -0.195529 0.0
0.610420 -0.259339 0.0
0.636425 -0.308119 0.0
0.655478 -0.342971 0.0
0.669128 -0.364636 0.0
0.680448 -0.372836 0.0
0.693796 -0.365888 0.0
0.713812 -0.341262 0.0
0.743855 -0.297247 0.0
0.784787 -0.234817 0.0
0.834859 -0.158318 0.0
0.890512 -0.074636 0.0
0.945530 0.006416 0.0
0.993173 0.075280 0.0
1.030550 0.130715 0.0
1.057487 0.173838 0.0
1.074314 0.206050 0.0
1.081565 0.228946 0.0
1.079809 0.244333 0.0
1.069584 0.254285 0.0
1.051472 0.261053 0.0
1.026396 0.266550 0.0
0.996056 0.271310 0.0
0.963224 0.273422 0.0
0.931496 0.268495 0.0
0.904429 0.251397 0.0
0.884520 0.218960 0.0
0.872744 0.171669 0.0
0.868849 0.113243 0.0
0.871973 0.048959 0.0
0.880930 -0.015720 0.0
0.894215 -0.075422 0.0
0.910182 -0.126934 0.0
0.927269 -0.168823 0.0
0.944119 -0.200908 0.0
0.959658 -0.223834 0.0
0.973188 -0.238703 0.0
0.984458 -0.246710 0.0
0.993721 -0.248790 0.0
1.001692 -0.245346 0.0
1.009401 -0.236170 0.0
1.017931 -0.220627 0.0
1.028131 -0.198086 0.0
1.040407 -0.168419 0.0
1.054664 -0.132349 0.0
1.070362 -0.091545 0.0
1.086627 -0.048476 0.0
1.102262 -0.006159 0.0
1.115762 0.031933 0.0
1.125824 0.063756 0.0
1.131699 0.088466 0.0
1.133014 0.106088 0.0
1.129704 0.117309 0.0
1.122003 0.123203 0.0
1.110502 0.124881 0.0
1.096211 0.123067 0.0
1.080592 0.117684 0.0
1.065496 0.107808 0.0
1.053129 0.087283 0.0
0.998159 -0.004412 0.0
0.990589 -0.013387 0.0
0.974541 -0.022687 0.0
0.947974 -0.032288 0.0
0.907288 -0.041654 0.0
0.846555 -0.048879 0.0
0.756890 -0.048636 0.0
0.627585 -0.026024 0.0
0.463066 0.059277 0.0
0.187240 0.169262 0.0
0.000000 0.000000 0.0
-0.000000 -0.000000 0.0
0.000000 0.000000 0.0
-0.016822 -0.015112 0.0
-0.055583 -0.024048 0.0
-0.114927 0.002798 0.0
-0.184880 -0.013526 0.0
-0.237690 -0.081145 0.0
-0.262642 -0.183573 0.0
-0.260161 -0.280178 0.0
-0.235979 -0.342266 0.0
-0.188737 -0.351255 0.0
-0.105073 -0.294621 0.0
0.014435 -0.181828 0.0
0.139276 -0.046525 0.0
0.243945 0.065583 0.0
0.326347 0.160534 0.0
0.389486 0.244132 0.0
0.432421 0.316008 0.0
0.454396 0.376340 0.0
0.455640 0.425698 0.0
0.438804 0.463907 0.0
0.410853 0.487835 0.0
0.383575 0.489520 0.0
0.370262 0.458432 0.0
0.379442 0.389049 0.0
0.411218 0.286836 0.0
0.459548 0.165747 0.0
0.516515 0.041447 0.0
0.572844 -0.068912 0.0
0.622441 -0.159848 0.0
0.664008 -0.232543 0.0
0.696763 -0.288280 0.0
0.720283 -0.328702 0.0
0.734605 -0.355763 0.0
0.740531 -0.371420 0.0
0.740126 -0.376965 0.0
0.737162 -0.372142 0.0
0.736887 -0.354748 0.0
0.744678 -0.321595 0.0
0.764055 -0.270778 0.0
0.795364 -0.203738 0.0
0.836016 -0.125523 0.0
0.881676 -0.043375 0.0
0.926079 0.033026 0.0
0.964050 0.097620 0.0
0.993828 0.150217 0.0
1.014943 0.191730 0.0
1.027396 0.223563 0.0
1.031392 0.247475 0.0
1.027282 0.265477 0.0
1.015706 0.279549 0.0
0.997899 0.290937 0.0
0.975998 0.299163 0.0
0.953023 0.301376 0.0
0.932318 0.292975 0.0
0.916629 0.269674 0.0
0.907422 0.229798 0.0
0.904895 0.175135 0.0
0.908513 0.110055 0.0
0.917516 0.040020 0.0
0.930797 -0.029017 0.0
0.946768 -0.091381 0.0