# vtk DataFile Version 3.0
Scalar Field
ASCII
DATASET RECTILINEAR_GRID
DIMENSIONS 100 26 1
X_COORDINATES 100 double
0.050000 0.150000 0.250000 0.350000 0.450000 0.550000 0.650000 0.750000 0.850000 0.950000 1.050000 1.150000 1.250000 1.350000 1.450000 1.550000 1.650000 1.750000 1.850000 1.950000 2.050000 2.150000 2.250000 2.350000 2.450000 2.550000 2.650000 2.750000 2.850000 2.950000 3.050000 3.150000 3.250000 3.350000 3.450000 3.550000 3.650000 3.750000 3.850000 3.950000 4.050000 4.150000 4.250000 4.350000 4.450000 4.550000 4.650000 4.750000 4.850000 4.950000 5.050000 5.150000 5.250000 5.350000 5.450000 5.550000 5.650000 5.750000 5.850000 5.950000 6.050000 6.150000 6.250000 6.350000 6.450000 6.550000 6.650000 6.750000 6.850000 6.950000 7.050000 7.150000 7.250000 7.350000 7.450000 7.550000 7.650000 7.750000 7.850000 7.950000 8.050000 8.150000 8.250000 8.350000 8.450000 8.550000 8.650000 8.750000 8.850000 8.950000 9.050000 9.150000 9.250000 9.350000 9.450000 9.550000 9.650000 9.750000 9.850000 9.950000 
Y_COORDINATES 26 double
0.050000 0.150000 0.250000 0.350000 0.450000 0.550000 0.650000 0.750000 0.850000 0.950000 1.050000 1.150000 1.250000 1.350000 1.450000 1.550000 1.650000 1.750000 1.850000 1.950000 2.050000 2.150000 2.250000 2.350000 2.450000 2.550000 
Z_COORDINATES 1 double
0.0
POINT_DATA 2600
SCALARS Skalarfeld double 1
LOOKUP_TABLE default
0.272096
0.256824
0.241666
0.223600
0.201549
0.175094
0.144266
0.109530
0.071841
0.032647
-0.006242
-0.042942
-0.075822
-0.103726
-0.126089
-0.142469
-0.153144
-0.158731
-0.160027
-0.157921
-0.153316
-0.147062
-0.139900
-0.132403
-0.124939
-0.117649
-0.110479
-0.103275
-0.095903
-0.088359
-0.080818
-0.073618
-0.067191
-0.061950
-0.058179
-0.055934
-0.054975
-0.054765
-0.054510
-0.053227
-0.049799
-0.043341
-0.032892
-0.019292
-0.005062
0.008491
0.020820
0.031731
0.041137
0.048954
0.055102
0.059555
0.062141
0.063199
0.062322
0.059072
0.053098
0.044310
0.033184
0.020954
0.009348
-0.000246
-0.007474
-0.012819
-0.016794
-0.019479
-0.020741
-0.020307
-0.018337
-0.015369
-0.011870
-0.008197
-0.004682
-0.001613
0.000746
0.002215
0.002807
0.002501
0.001557
0.000340
-0.000727
-0.001228
-0.000879
0.000460
0.002564
0.004914
0.007237
0.009357
0.011127
0.012431
0.013215
0.013526
0.013473
0.013298
0.013156
0.013106
0.012955
0.012402
0.011186
0.009086
0.263231
0.256761
0.244567
0.227658
0.205909
0.179167
0.147494
0.111365
0.071822
0.030533
-0.010349
-0.048633
-0.082512
-0.110766
-0.132724
-0.148526
-0.158500
-0.163211
-0.163534
-0.160439
-0.154914
-0.147889
-0.140184
-0.132436
-0.125038
-0.118093
-0.111447
-0.104814
-0.097943
-0.090754
-0.083394
-0.076211
-0.069669
-0.064223
-0.060195
-0.057672
-0.056439
-0.055974
-0.055495
-0.053978
-0.050066
-0.042156
-0.030877
-0.017959
-0.004495
0.008434
0.020318
0.030947
0.040210
0.048005
0.054253
0.058971
0.062400
0.063846
0.063058
0.059839
0.053750
0.044645
0.033067
0.020453
0.008729
-0.000737
-0.007835
-0.013279
-0.017570
-0.020525
-0.021667
-0.021225
-0.019011
-0.015894
-0.012272
-0.008460
-0.004806
-0.001591
0.000978
0.002709
0.003302
0.002832
0.001711
0.000301
-0.000937
-0.001514
-0.001023
0.000476
0.002510
0.004827
0.007194
0.009408
0.011286
0.012685
0.013533
0.013867
0.013848
0.013651
0.013438
0.013418
0.013301
0.012750
0.011473
0.009122
0.266302
0.262180
0.251851
0.235913
0.214336
0.186904
0.153541
0.114625
0.071306
0.025679
-0.019300
-0.060748
-0.096553
-0.125516
-0.147221
-0.161892
-0.170129
-0.172799
-0.170884
-0.165552
-0.157987
-0.149329
-0.140599
-0.132601
-0.125791
-0.120161
-0.115251
-0.110401
-0.105037
-0.098874
-0.091976
-0.084696
-0.077556
-0.071086
-0.065689
-0.061530
-0.058477
-0.056082
-0.053612
-0.050098
-0.044488
-0.036070
-0.025055
-0.013138
-0.001207
0.010298
0.020982
0.030644
0.039148
0.046361
0.052177
0.056560
0.059532
0.061013
0.060410
0.057028
0.051088
0.042528
0.031940
0.020494
0.009633
0.000338
-0.007233
-0.013383
-0.018197
-0.021308
-0.022285
-0.021134
-0.019010
-0.016199
-0.012673
-0.008834
-0.005156
-0.001911
0.000629
0.002266
0.002896
0.002628
0.001611
0.000306
-0.000805
-0.001288
-0.000882
0.000390
0.002303
0.004630
0.007129
0.009549
0.011647
0.013228
0.014183
0.014613
0.014679
0.014626
0.014660
0.014613
0.014373
0.013650
0.012009
0.007046
0.276994
0.273630
0.264306
0.249024
0.227406
0.198862
0.162894
0.119553
0.070025
0.017070
-0.034624
-0.080905
-0.119324
-0.148931
-0.169753
-0.182405
-0.187840
-0.187215
-0.181773
-0.172929
-0.162130
-0.150805
-0.140308
-0.131760
-0.125791
-0.122290
-0.120238
-0.118290
-0.115327
-0.110747
-0.104513
-0.097023
-0.088901
-0.080799
-0.073235
-0.066486
-0.060548
-0.055127
-0.049693
-0.043584
-0.036201
-0.027282
-0.017099
-0.006363
0.004217
0.014219
0.023485
0.031861
0.039195
0.045327
0.050127
0.053549
0.055588
0.056165
0.055059
0.052018
0.046408
0.038441
0.028994
0.018847
0.009062
0.000378
-0.006935
-0.012859
-0.017301
-0.020038
-0.020963
-0.020262
-0.018337
-0.015292
-0.011770
-0.008236
-0.004854
-0.001798
0.000549
0.002006
0.002489
0.002094
0.001067
-0.000181
-0.001224
-0.001688
-0.001368
-0.000234
0.001600
0.003953
0.006587
0.009234
0.011633
0.013580
0.014984
0.015801
0.016163
0.016258
0.016224
0.016169
0.016005
0.015511
0.014275
0.008253
0.293874
0.290895
0.282323
0.267695
0.246108
0.216282
0.176859
0.127056
0.067797
0.002648
-0.059545
-0.112451
-0.153688
-0.183213
-0.201940
-0.211144
-0.212265
-0.206746
-0.196190
-0.182270
-0.166743
-0.151396
-0.138097
-0.128656
-0.124025
-0.123755
-0.126188
-0.128622
-0.129022
-0.126405
-0.120734
-0.112619
-0.102953
-0.092614
-0.082297
-0.072426
-0.063146
-0.054351
-0.045760
-0.037029
-0.027892
-0.018299
-0.008454
0.001276
0.010554
0.019219
0.027186
0.034271
0.040318
0.045161
0.048663
0.050842
0.051755
0.051357
0.049461
0.045819
0.040246
0.032909
0.024239
0.014926
0.006064
-0.001753
-0.008235
-0.013275
-0.016804
-0.018763
-0.019187
-0.018250
-0.016223
-0.013385
-0.010119
-0.006687
-0.003393
-0.000649
0.001358
0.002508
0.002675
0.001940
0.000587
-0.000959
-0.002281
-0.002979
-0.002871
-0.001908
-0.000146
0.002263
0.005083
0.008024
0.010796
0.013151
0.014933
0.016092
0.016725
0.017045
0.017304
0.017562
0.017911
0.018380
0.018718
0.017267
0.316213
0.313628
0.306017
0.292531
0.271621
0.240962
0.197624
0.138904
0.064457
-0.021941
-0.100108
-0.160763
-0.203594
-0.231039
-0.245539
-0.249212
-0.244017
-0.231715
-0.214136
-0.193226
-0.171113
-0.149961
-0.132278
-0.121227
-0.118676
-0.123922
-0.133486
-0.142551
-0.147579
-0.147197
-0.141644
-0.132101
-0.120014
-0.106665
-0.093005
-0.079628
-0.066818
-0.054630
-0.042981
-0.031750
-0.020872
-0.010393
-0.000461
0.008740
0.017067
0.024443
0.030965
0.036778
0.041491
0.045010
0.047127
0.048017
0.047889
0.046745
0.044370
0.040434
0.034689
0.027187
0.018316
0.009476
0.001074
-0.006041
-0.011620
-0.015585
-0.017956
-0.018816
-0.018318
-0.016685
-0.014188
-0.011116
-0.007767
-0.004415
-0.001343
0.001165
0.002929
0.003685
0.003384
0.002128
0.000187
-0.002039
-0.004062
-0.005492
-0.005921
-0.005319
-0.003740
-0.001306
0.001717
0.004998
0.008200
0.011032
0.013295
0.014910
0.015942
0.016589
0.017136
0.017886
0.019167
0.021217
0.024227
0.030616
0.343271
0.341262
0.335205
0.323938
0.305242
0.275405
0.228869
0.158730
0.060038
-0.066459
-0.167075
-0.232859
-0.272556
-0.293942
-0.301135
-0.296757
-0.283259
-0.262296
-0.235637
-0.205621
-0.174884
-0.146129
-0.121750
-0.107335
-0.107036
-0.120119
-0.140992
-0.160687
-0.171899
-0.173885
-0.167679
-0.155625
-0.140097
-0.122950
-0.105436
-0.088299
-0.071920
-0.056452
-0.041928
-0.028353
-0.015761
-0.004239
0.006099
0.015149
0.022839
0.029119
0.033928
0.037382
0.040224
0.042326
0.042874
0.042379
0.041385
0.039994
0.037872
0.034481
0.029354
0.022324
0.013676
0.004204
-0.004474
-0.011362
-0.016424
-0.019578
-0.020926
-0.020679
-0.019110
-0.016532
-0.013266
-0.009626
-0.005904
-0.002363
0.000750
0.003186
0.004705
0.005073
0.004186
0.002132
-0.000781
-0.004073
-0.007185
-0.009615
-0.010999
-0.011021
-0.009679
-0.007187
-0.003889
-0.000185
0.003533
0.006932
0.009777
0.011959
0.013513
0.014626
0.015620
0.016935
0.019108
0.022754
0.028586
0.042802
0.373967
0.372819
0.369195
0.361814
0.348015
0.322710
0.276638
0.194419
0.055095
-0.153690
-0.276670
-0.332427
-0.358097
-0.368111
-0.365199
-0.351554
-0.329229
-0.298294
-0.260916
-0.220036
-0.178985
-0.141213
-0.109657
-0.088185
-0.088172
-0.108844
-0.142489
-0.177355
-0.198715
-0.203305
-0.195824
-0.180547
-0.161109
-0.139988
-0.118678
-0.098002
-0.078372
-0.059982
-0.042922
-0.027261
-0.013080
-0.000484
0.010416
0.019510
0.026666
0.031737
0.034651
0.035527
0.034587
0.032764
0.031457
0.029916
0.028934
0.028377
0.027624
0.025901
0.022523
0.017099
0.009692
0.000911
-0.008135
-0.016064
-0.021167
-0.024080
-0.024892
-0.023889
-0.021451
-0.017989
-0.013910
-0.009585
-0.005340
-0.001455
0.001815
0.004216
0.005483
0.005374
0.003757
0.000717
-0.003401
-0.008020
-0.012448
-0.016034
-0.018316
-0.018921
-0.017723
-0.015060
-0.011379
-0.007159
-0.002849
0.001177
0.004655
0.007451
0.009577
0.011209
0.012688
0.014526
0.017411
0.022212
0.030019
0.049357
0.406702
0.406713
0.406478
0.404963
0.399757
0.385439
0.349629
0.263802
0.056386
-0.338701
-0.441887
-0.443758
-0.441061
-0.438381
-0.426881
-0.408505
-0.378552
-0.338231
-0.290427
-0.238892
-0.187755
-0.141390
-0.104450
-0.076978
-0.073712
-0.096803
-0.136146
-0.179175
-0.213829
-0.224969
-0.217116
-0.199610
-0.177502
-0.153763
-0.129991
-0.106995
-0.085181
-0.064770
-0.045911
-0.028734
-0.013376
0.000016
0.011277
0.020161
0.026263
0.029118
0.028615
0.025384
0.020610
0.015582
0.011738
0.010281
0.010638
0.012080
0.013701
0.014556
0.013817
0.010920
0.005710
-0.001455
-0.009695
-0.017783
-0.024321
-0.027575
-0.028487
-0.027320
-0.024500
-0.020520
-0.015871
-0.011008
-0.006320
-0.002138
0.001246
0.003550
0.004485
0.003789
0.001323
-0.002818
-0.008226
-0.014203
-0.019899
-0.024518
-0.027508
-0.028430
-0.027189
-0.024209
-0.020031
-0.015213
-0.010264
-0.005595
-0.001494
0.001887
0.004545
0.006641
0.008512
0.010696
0.013940
0.019226
0.027799
0.048390
0.439331
0.440689
0.444494
0.450394
0.457307
0.461989
0.454541
0.402502
0.161071
-0.675723
-0.631371
-0.512198
-0.484526
-0.478197
-0.472239
-0.453804
-0.421059
-0.376263
-0.323238
-0.266697
-0.211448
-0.161984
-0.122724
-0.097523
-0.093235
-0.108569
-0.138914
-0.174590
-0.205861
-0.224153
-0.221395
-0.204431
-0.182556
-0.159041
-0.135403
-0.112353
-0.090276
-0.069443
-0.050102
-0.032503
-0.016904
-0.003588
0.007075
0.014530
0.018041
0.017077
0.011986
0.004318
-0.003713
-0.010239
-0.013717
-0.013485
-0.010665
-0.006401
-0.001810
0.002072
0.004362
0.004411
0.001906
-0.003019
-0.009731
-0.017162
-0.024032
-0.028851
-0.030405
-0.029691
-0.027099
-0.023140
-0.018370
-0.013322
-0.008465
-0.004200
-0.000875
0.001187
0.001665
0.000283
-0.003098
-0.008349
-0.014977
-0.022161
-0.028912
-0.034325
-0.037783
-0.038766
-0.037289
-0.033847
-0.029066
-0.023587
-0.017977
-0.012685
-0.008021
-0.004145
-0.001073
0.001340
0.003412
0.005659
0.008815
0.013843
0.021945
0.040718
0.469376
0.472030
0.479770
0.493129
0.513004
0.540520
0.576275
0.616455
0.696903
0.010590
-0.563941
-0.496511
-0.485366
-0.484330
-0.483129
-0.469900
-0.442396
-0.402815
-0.355430
-0.305819
-0.259252
-0.218088
-0.185688
-0.167366
-0.156506
-0.154233
-0.162711
-0.177165
-0.192182
-0.201769
-0.202065
-0.191289
-0.172602
-0.152264
-0.131582
-0.111075
-0.091056
-0.071844
-0.053811
-0.037374
-0.022987
-0.011167
-0.002584
0.001883
0.001365
-0.004302
-0.013858
-0.024714
-0.034060
-0.040013
-0.041139
-0.037956
-0.031883
-0.024310
-0.016494
-0.009504
-0.004210
-0.001257
-0.001023
-0.003529
-0.008358
-0.014641
-0.021191
-0.026757
-0.029839
-0.030031
-0.028215
-0.024824
-0.020434
-0.015639
-0.010980
-0.006929
-0.003897
-0.002259
-0.002365
-0.004510
-0.008818
-0.015113
-0.022817
-0.031002
-0.038579
-0.044562
-0.048288
-0.049129
-0.047253
-0.043227
-0.037764
-0.031585
-0.025322
-0.019461
-0.014329
-0.010094
-0.006778
-0.004254
-0.002238
-0.000262
0.002336
0.006420
0.013027
0.028052
0.494460
0.498072
0.508701
0.527468
0.556543
0.599733
0.663702
0.759844
0.893785
0.927251
0.000000
-0.486393
-0.476275
-0.468439
-0.463796
-0.456932
-0.438707
-0.412215
-0.383210
-0.355401
-0.330200
-0.307082
-0.286323
-0.266927
-0.243395
-0.221348
-0.203479
-0.189724
-0.181294
-0.175146
-0.168458
-0.159599
-0.147952
-0.132623
-0.116909
-0.101032
-0.085139
-0.069532
-0.054678
-0.041161
-0.029647
-0.020921
-0.015966
-0.015883
-0.021367
-0.031825
-0.044948
-0.057450
-0.066452
-0.070293
-0.067686
-0.060674
-0.050818
-0.039667
-0.028564
-0.018584
-0.010539
-0.005004
-0.002329
-0.002600
-0.005553
-0.010508
-0.016423
-0.022071
-0.026299
-0.027880
-0.027226
-0.024816
-0.021224
-0.017072
-0.012954
-0.009405
-0.006893
-0.005844
-0.006645
-0.009600
-0.014818
-0.022069
-0.030705
-0.039718
-0.047945
-0.054336
-0.058181
-0.058721
-0.056331
-0.051650
-0.045476
-0.038611
-0.031747
-0.025410
-0.019940
-0.015513
-0.012153
-0.009755
-0.008071
-0.006704
-0.005091
-0.002513
0.001861
0.012080
0.512832
0.516874
0.528736
0.549565
0.581438
0.627469
0.691226
0.774584
0.871861
0.960717
0.875252
0.000000
-0.461633
-0.446992
-0.433734
-0.425403
-0.418163
-0.411520
-0.408842
-0.411027
-0.414479
-0.413305
-0.402759
-0.374855
-0.334128
-0.289341
-0.245579
-0.205767
-0.173492
-0.149230
-0.131817
-0.119356
-0.109878
-0.101418
-0.091382
-0.081233
-0.070803
-0.060257
-0.050090
-0.040999
-0.033847
-0.029692
-0.029793
-0.035284
-0.046352
-0.061418
-0.077271
-0.090324
-0.098037
-0.097842
-0.091130
-0.079909
-0.066075
-0.051334
-0.037082
-0.024372
-0.013938
-0.006253
-0.001582
0.000005
-0.001308
-0.004996
-0.010175
-0.015722
-0.020538
-0.023514
-0.024019
-0.022769
-0.020216
-0.016960
-0.013622
-0.010778
-0.008948
-0.008605
-0.010170
-0.013956
-0.020049
-0.028176
-0.037629
-0.047343
-0.056100
-0.062786
-0.066605
-0.066735
-0.063792
-0.058469
-0.051643
-0.044185
-0.036844
-0.030175
-0.024536
-0.020104
-0.016912
-0.014871
-0.013781
-0.013319
-0.013033
-0.012362
-0.010683
-0.005747
0.523713
0.527645
0.539086
0.558824
0.588122
0.628561
0.681743
0.746159
0.808586
0.830264
0.789787
0.675133
0.000000
-0.426299
-0.405606
-0.394420
-0.395403
-0.406255
-0.429448
-0.462647
-0.494865
-0.513352
-0.503672
-0.463538
-0.407377
-0.341883
-0.275631
-0.214535
-0.162934
-0.122811
-0.094266
-0.075895
-0.065279
-0.059640
-0.055960
-0.051595
-0.047073
-0.042266
-0.037642
-0.033993
-0.032373
-0.034113
-0.040634
-0.052809
-0.069996
-0.089559
-0.107607
-0.120449
-0.125622
-0.120984
-0.109822
-0.094381
-0.076771
-0.058781
-0.041798
-0.026812
-0.014458
-0.005094
0.001114
0.004152
0.004175
0.001600
-0.002836
-0.008122
-0.013158
-0.016979
-0.018748
-0.018688
-0.017232
-0.014958
-0.012492
-0.010439
-0.009360
-0.009769
-0.012115
-0.016715
-0.023634
-0.032555
-0.042725
-0.053037
-0.062229
-0.069146
-0.072681
-0.072404
-0.068974
-0.063139
-0.055834
-0.047985
-0.040378
-0.033590
-0.027987
-0.023751
-0.020925
-0.019444
-0.019156
-0.019814
-0.021080
-0.022543
-0.023772
-0.024202
0.527316
0.530729
0.540592
0.557338
0.581529
0.613405
0.651653
0.691417
0.719481
0.710141
0.645885
0.560479
0.396648
0.000000
-0.388535
-0.371463
-0.375421
-0.396593
-0.438019
-0.496111
-0.554611
-0.587373
-0.568455
-0.516400
-0.444753
-0.363986
-0.283015
-0.208380
-0.144485
-0.093625
-0.056372
-0.031893
-0.018174
-0.012405
-0.011634
-0.012929
-0.014001
-0.014826
-0.015963
-0.018338
-0.023205
-0.032075
-0.046268
-0.066022
-0.089637
-0.113513
-0.133329
-0.145618
-0.146734
-0.137553
-0.122192
-0.103077
-0.082400
-0.061931
-0.042974
-0.026401
-0.012730
-0.002206
0.005103
0.009239
0.010352
0.008770
0.005090
0.000192
-0.004900
-0.009269
-0.011928
-0.012860
-0.012380
-0.011014
-0.009376
-0.008084
-0.007730
-0.008863
-0.011952
-0.017312
-0.024979
-0.034595
-0.045365
-0.056148
-0.065649
-0.072700
-0.075728
-0.075158
-0.071424
-0.065329
-0.057843
-0.049916
-0.042342
-0.035706
-0.030375
-0.026534
-0.024241
-0.023464
-0.024101
-0.025984
-0.028880
-0.032517
-0.036640
-0.042209
0.524611
0.527287
0.534910
0.547506
0.564886
0.586149
0.608736
0.626905
0.629574
0.599076
0.517930
0.378135
0.232817
-0.179224
-0.403749
-0.344951
-0.348298
-0.378559
-0.434704
-0.508869
-0.579590
-0.609868
-0.582485
-0.522861
-0.443726
-0.356400
-0.269721
-0.189883
-0.120809
-0.064586
-0.021902
0.007690
0.025587
0.033918
0.035167
0.031543
0.026008
0.020428
0.013834
0.005169
-0.006895
-0.023781
-0.046320
-0.073807
-0.103469
-0.130959
-0.151660
-0.161918
-0.158187
-0.145523
-0.127053
-0.105470
-0.082967
-0.061200
-0.041321
-0.024053
-0.009784
0.001342
0.009335
0.014283
0.016327
0.015716
0.012903
0.008611
0.003770
-0.000688
-0.004030
-0.005674
-0.005946
-0.005309
-0.004355
-0.003707
-0.003983
-0.005754
-0.009503
-0.015529
-0.023832
-0.034008
-0.045225
-0.056311
-0.065936
-0.072817
-0.075532
-0.074797
-0.071032
-0.065038
-0.057774
-0.050170
-0.042998
-0.036823
-0.032003
-0.028730
-0.027084
-0.027072
-0.028650
-0.031727
-0.036168
-0.041827
-0.048602
-0.058798
0.516958
0.518773
0.523848
0.531911
0.542290
0.553494
0.562541
0.564007
0.548947
0.504092
0.412226
0.250616
-0.028476
-0.591265
-0.462546
-0.347210
-0.335454
-0.368653
-0.429422
-0.503821
-0.567644
-0.577829
-0.547425
-0.487834
-0.410980
-0.327163
-0.244201
-0.167417
-0.100030
-0.043658
0.001139
0.034438
0.056877
0.069764
0.074679
0.073021
0.066406
0.058070
0.046947
0.032272
0.013025
-0.011726
-0.041987
-0.076033
-0.110245
-0.139865
-0.160464
-0.166345
-0.159097
-0.144093
-0.124168
-0.101865
-0.079185
-0.057570
-0.037978
-0.020979
-0.006852
0.004333
0.012630
0.018151
0.021027
0.021431
0.019679
0.016314
0.012109
0.007922
0.004462
0.002397
0.001648
0.001790
0.002255
0.002418
0.001648
-0.000644
-0.004938
-0.011506
-0.020300
-0.030868
-0.042343
-0.053544
-0.063173
-0.069615
-0.072174
-0.071541
-0.068115
-0.062663
-0.056088
-0.049252
-0.042869
-0.037458
-0.033360
-0.030775
-0.029812
-0.030530
-0.032947
-0.037046
-0.042781
-0.050111
-0.059074
-0.073092
0.505950
0.506914
0.509510
0.513309
0.517415
0.520169
0.518704
0.508407
0.482379
0.431008
0.341636
0.198067
-0.019340
-0.288485
-0.330564
-0.317789
-0.326853
-0.361207
-0.414178
-0.472025
-0.506839
-0.506879
-0.477548
-0.425487
-0.359306
-0.286960
-0.214724
-0.146989
-0.086474
-0.034573
0.008267
0.042209
0.067731
0.085274
0.095118
0.097785
0.096815
0.088957
0.075300
0.056109
0.031179
0.000440
-0.035164
-0.073050
-0.109058
-0.138219
-0.155961
-0.157253
-0.148832
-0.133670
-0.114499
-0.093555
-0.072511
-0.052534
-0.034386
-0.018515
-0.005143
0.005673
0.013985
0.019896
0.023516
0.024969
0.024456
0.022349
0.019229
0.015811
0.012737
0.010715
0.009827
0.009733
0.009917
0.009768
0.008648
0.005965
0.001255
-0.005713
-0.014831
-0.025595
-0.037108
-0.048182
-0.057484
-0.063401
-0.066219
-0.066066
-0.063413
-0.058976
-0.053560
-0.047917
-0.042665
-0.038262
-0.035023
-0.033162
-0.032832
-0.034148
-0.037195
-0.042022
-0.048654
-0.057133
-0.067606
-0.084331
0.493162
0.493365
0.493773
0.493917
0.492878
0.489095
0.480104
0.462271
0.430607
0.378770
0.299428
0.185725
0.036906
-0.123457
-0.208773
-0.250664
-0.284657
-0.323422
-0.366393
-0.403901
-0.422369
-0.420010
-0.396592
-0.356001
-0.303892
-0.245946
-0.186946
-0.130453
-0.078822
-0.033387
0.005298
0.037215
0.062631
0.081852
0.095036
0.105471
0.109238
0.104027
0.090589
0.069935
0.042711
0.009716
-0.027271
-0.065084
-0.099396
-0.125571
-0.136734
-0.137002
-0.129385
-0.116407
-0.100273
-0.082700
-0.064932
-0.047839
-0.032016
-0.017857
-0.005600
0.004643
0.012851
0.019071
0.023375
0.025848
0.026628
0.025959
0.024254
0.022067
0.019931
0.018501
0.017843
0.017785
0.017899
0.017607
0.016279
0.013335
0.008341
0.001122
-0.008147
-0.018903
-0.030234
-0.041001
-0.049672
-0.055538
-0.058771
-0.059451
-0.057994
-0.055007
-0.051144
-0.047013
-0.043115
-0.039840
-0.037483
-0.036283
-0.036448
-0.038159
-0.041560
-0.046749
-0.053792
-0.062776
-0.073915
-0.091920
0.480007
0.479567
0.478160
0.475357
0.470347
0.461805
0.447773
0.425561
0.391773
0.342550
0.274223
0.184837
0.077595
-0.033758
-0.118012
-0.177240
-0.223583
-0.264555
-0.301016
-0.328447
-0.342055
-0.340628
-0.323873
-0.294052
-0.254794
-0.210039
-0.163339
-0.117518
-0.074584
-0.035797
-0.001799
0.027226
0.051396
0.070989
0.086921
0.098624
0.103817
0.101270
0.090711
0.072422
0.047161
0.016360
-0.017577
-0.051190
-0.080368
-0.099656
-0.108073
-0.109101
-0.104380
-0.095678
-0.084464
-0.071811
-0.058482
-0.045061
-0.032028
-0.019792
-0.008683
0.001054
0.009266
0.015884
0.020903
0.024367
0.026383
0.027125
0.026891
0.026141
0.025506
0.024988
0.024878
0.025120
0.025371
0.025099
0.023702
0.020619
0.015462
0.008128
-0.001123
-0.011667
-0.022577
-0.032680
-0.040928
-0.047094
-0.051061
-0.052939
-0.053042
-0.051814
-0.049730
-0.047235
-0.044718
-0.042512
-0.040917
-0.040213
-0.040681
-0.042561
-0.046038
-0.051231
-0.058204
-0.067032
-0.077918
-0.095512
0.467673
0.466702
0.463825
0.458722
0.450755
0.438891
0.421659
0.397162
0.363192
0.317535
0.258555
0.186228
0.103752
0.019009
-0.055051
-0.115290
-0.164481
-0.205490
-0.238865
-0.262862
-0.275691
-0.276504
-0.265478
-0.244163
-0.215019
-0.180829
-0.144228
-0.107428
-0.072096
-0.039354
-0.009853
0.016133
0.038600
0.057708
0.073771
0.085471
0.091688
0.091409
0.084113
0.069836
0.049268
0.023941
-0.003661
-0.030218
-0.052047
-0.066555
-0.075060
-0.078541
-0.078190
-0.075066
-0.069880
-0.063013
-0.054698
-0.045222
-0.034995
-0.024513
-0.014274
-0.004721
0.003797
0.011066
0.016949
0.021441
0.024650
0.026775
0.028092
0.028867
0.029331
0.029777
0.030393
0.031124
0.031671
0.031548
0.030185
0.027056
0.021823
0.014474
0.005375
-0.004775
-0.015025
-0.024511
-0.032690
-0.039339
-0.044348
-0.047717
-0.049584
-0.050194
-0.049842
-0.048829
-0.047464
-0.046069
-0.044977
-0.044525
-0.045107
-0.046987
-0.050345
-0.055286
-0.061827
-0.069960
-0.079763
-0.095141
0.457148
0.455709
0.451602
0.444686
0.434532
0.420388
0.401196
0.375657
0.342382
0.300154
0.248362
0.187608
0.120413
0.051537
-0.012659
-0.068871
-0.116652
-0.156420
-0.188119
-0.210999
-0.224193
-0.227260
-0.220662
-0.205641
-0.184016
-0.157850
-0.129146
-0.099635
-0.070661
-0.043167
-0.017730
0.005360
0.026010
0.044212
0.059709
0.071545
0.078916
0.081012
0.077305
0.067750
0.052964
0.034346
0.014041
-0.005341
-0.021655
-0.034341
-0.043546
-0.049943
-0.054294
-0.057081
-0.058292
-0.057511
-0.054300
-0.048592
-0.040783
-0.031547
-0.021644
-0.011774
-0.002562
0.005682
0.012667
0.018400
0.022881
0.026227
0.028651
0.030445
0.031876
0.033185
0.034495
0.035733
0.036617
0.036683
0.035387
0.032229
0.026917
0.019562
0.010672
0.000928
-0.008740
-0.017736
-0.025967
-0.033340
-0.039633
-0.044601
-0.048142
-0.050330
-0.051327
-0.051343
-0.050658
-0.049673
-0.048789
-0.048297
-0.048876
-0.050695
-0.053905
-0.058546
-0.064529
-0.071701
-0.079913
-0.091509
0.449298
0.447342
0.442061
0.433609
0.421779
0.406046
0.385655
0.359727
0.327396
0.288023
0.241485
0.188522
0.131043
0.072143
0.015546
-0.036020
-0.081149
-0.119171
-0.149583
-0.171908
-0.185541
-0.190370
-0.186982
-0.176468
-0.160302
-0.140116
-0.117491
-0.093791
-0.070072
-0.047068
-0.025223
-0.004763
0.014220
0.031623
0.046816
0.059134
0.067908
0.072450
0.072261
0.067250
0.057916
0.045415
0.031386
0.017307
0.004307
-0.006903
-0.016636
-0.025525
-0.034148
-0.042598
-0.050176
-0.055478
-0.057111
-0.054567
-0.048394
-0.039605
-0.029379
-0.018612
-0.008306
0.000977
0.009124
0.015946
0.021459
0.025788
0.029142
0.031784
0.033980
0.035948
0.037787
0.039417
0.040574
0.040778
0.039485
0.036199
0.030610
0.022768
0.013613
0.004297
-0.004625
-0.013135
-0.021485
-0.029682
-0.037279
-0.043641
-0.048384
-0.051515
-0.053210
-0.053661
-0.053052
-0.051987
-0.051204
-0.050998
-0.051509
-0.053215
-0.056283
-0.060685
-0.066206
-0.072523
-0.079208
-0.086719
0.445092
0.442246
0.435538
0.425599
0.412384
0.395488
0.374331
0.348294
0.316829
0.279616
0.236753
0.188960
0.137716
0.085212
0.033997
-0.013697
-0.056247
-0.092529
-0.121772
-0.143618
-0.157460
-0.163468
-0.162270
-0.154885
-0.142600
-0.126793
-0.108766
-0.089611
-0.070145
-0.050902
-0.032172
-0.014056
0.003495
0.020471
0.035808
0.049018
0.059414
0.066296
0.069141
0.067794
0.062661
0.054770
0.045387
0.034807
0.024604
0.014779
0.004850
-0.005886
-0.017988
-0.031388
-0.044870
-0.055924
-0.061768
-0.061269
-0.055651
-0.046376
-0.035119
-0.023770
-0.012575
-0.002170
0.007001
0.014761
0.021119
0.026207
0.030239
0.033471
0.036167
0.038559
0.040750
0.042637
0.044013
0.044267
0.042656
0.038630
0.032045
0.023523
0.014091
0.004952
-0.003359
-0.011212
-0.019344
-0.027990
-0.036502
-0.043773
-0.049038
-0.052262
-0.053815
-0.054324
-0.054115
-0.053375
-0.052487
-0.052159
-0.052741
-0.054526
-0.057589
-0.061945
-0.067259
-0.073072
-0.078799
-0.083493
0.446202
0.440909
0.432041
0.420504
0.406091
0.388319
0.366633
0.340562
0.309736
0.273999
0.233538
0.189017
0.141641
0.093116
0.045422
0.000474
-0.040105
-0.074963
-0.103297
-0.124672
-0.138606
-0.145351
-0.145565
-0.140225
-0.130507
-0.117634
-0.102732
-0.086716
-0.070245
-0.053724
-0.037358
-0.021213
-0.005115
0.011466
0.027264
0.041695
0.053819
0.062774
0.067945
0.069095
0.066587
0.061705
0.054495
0.046515
0.038145
0.029232
0.019235
0.007454
-0.006657
-0.023075
-0.040571
-0.056090
-0.065342
-0.065452
-0.058706
-0.049514
-0.038396
-0.026127
-0.014078
-0.002967
0.006811
0.015108
0.021944
0.027453
0.031836
0.035332
0.038203
0.040743
0.043123
0.045112
0.046270
0.046161
0.044205
0.039740
0.032492
0.023024
0.012716
0.003191
-0.004771
-0.011723
-0.018862
-0.026831
-0.035149
-0.042643
-0.048322
-0.051931
-0.053869
-0.054447
-0.054133
-0.053475
-0.052804
-0.052559
-0.053229
-0.055151
-0.058444
-0.062857
-0.068108
-0.073729
-0.079184
-0.083675
0.457125
0.442995
0.431018
0.418096
0.402833
0.384461
0.362464
0.336393
0.305944
0.271022
0.231833
0.188982
0.143530
0.096957
0.051008
0.007442
-0.032209
-0.066803
-0.095204
-0.116429
-0.130432
-0.137520
-0.138349
-0.133865
-0.125185
-0.113460
-0.099739
-0.084876
-0.069479
-0.053920
-0.038388
-0.022980
-0.007772
0.007055
0.022997
0.038314
0.051556
0.061647
0.067891
0.070003
0.068188
0.062921
0.056283
0.049041
0.041270
0.032745
0.022947
0.011246
-0.002797
-0.019062
-0.036376
-0.052063
-0.062378
-0.064856
-0.059603
-0.049555
-0.037908
-0.025614
-0.013565
-0.002423
0.007418
0.015800
0.022732
0.028331
0.032778
0.036288
0.039089
0.041384
0.043347
0.045015
0.045938
0.045603
0.043457
0.038974
0.031943
0.022803
0.012709
0.003089
-0.005221
-0.012469
-0.019535
-0.026995
-0.034605
-0.041553
-0.047062
-0.050822
-0.052991
-0.053893
-0.053950
-0.053502
-0.053051
-0.053121
-0.054022
-0.056023
-0.059230
-0.063495
-0.068527
-0.073912
-0.079219
-0.084349
