# vtk DataFile Version 3.0
Vector Field
ASCII
DATASET RECTILINEAR_GRID
DIMENSIONS 100 26 1
X_COORDINATES 100 double
0.050000 0.150000 0.250000 0.350000 0.450000 0.550000 0.650000 0.750000 0.850000 0.950000 1.050000 1.150000 1.250000 1.350000 1.450000 1.550000 1.650000 1.750000 1.850000 1.950000 2.050000 2.150000 2.250000 2.350000 2.450000 2.550000 2.650000 2.750000 2.850000 2.950000 3.050000 3.150000 3.250000 3.350000 3.450000 3.550000 3.650000 3.750000 3.850000 3.950000 4.050000 4.150000 4.250000 4.350000 4.450000 4.550000 4.650000 4.750000 4.850000 4.950000 5.050000 5.150000 5.250000 5.350000 5.450000 5.550000 5.650000 5.750000 5.850000 5.950000 6.050000 6.150000 6.250000 6.350000 6.450000 6.550000 6.650000 6.750000 6.850000 6.950000 7.050000 7.150000 7.250000 7.350000 7.450000 7.550000 7.650000 7.750000 7.850000 7.950000 8.050000 8.150000 8.250000 8.350000 8.450000 8.550000 8.650000 8.750000 8.850000 8.950000 9.050000 9.150000 9.250000 9.350000 9.450000 9.550000 9.650000 9.750000 9.850000 9.950000 
Y_COORDINATES 26 double
0.050000 0.150000 0.250000 0.350000 0.450000 0.550000 0.650000 0.750000 0.850000 0.950000 1.050000 1.150000 1.250000 1.350000 1.450000 1.550000 1.650000 1.750000 1.850000 1.950000 2.050000 2.150000 2.250000 2.350000 2.450000 2.550000 
Z_COORDINATES 1 double
0.0
POINT_DATA 2600
VECTORS Vektorfeld double
0.997742 0.002258 0.0
0.993294 0.002189 0.0
0.990581 0.000524 0.0
0.991880 -0.001824 0.0
0.998140 -0.004437 0.0
1.009605 -0.007028 0.0
1.025954 -0.009320 0.0
1.046296 -0.011023 0.0
1.069191 -0.011872 0.0
1.092756 -0.011692 0.0
1.114913 -0.010465 0.0
1.133698 -0.008320 0.0
1.147495 -0.005477 0.0
1.155176 -0.002204 0.0
1.156285 0.001094 0.0
1.150770 0.004421 0.0
1.138644 0.007706 0.0
1.120119 0.010820 0.0
1.095666 0.013633 0.0
1.066012 0.016021 0.0
1.032122 0.017870 0.0
0.995166 0.019086 0.0
0.956480 0.019600 0.0
0.917506 0.019375 0.0
0.879725 0.018406 0.0
0.844586 0.016732 0.0
0.813423 0.014431 0.0
0.787365 0.011626 0.0
0.767258 0.008481 0.0
0.753566 0.005211 0.0
0.746329 0.002026 0.0
0.745247 -0.000943 0.0
0.749022 -0.002832 0.0
0.755219 -0.003365 0.0
0.761243 -0.002659 0.0
0.764891 -0.000989 0.0
0.764104 0.001776 0.0
0.756752 0.005576 0.0
0.741232 0.009944 0.0
0.716875 0.014412 0.0
0.683894 0.018569 0.0
0.643257 0.022068 0.0
0.596557 0.024632 0.0
0.545875 0.026050 0.0
0.493653 0.026172 0.0
0.442601 0.024879 0.0
0.395741 0.021980 0.0
0.356555 0.017206 0.0
0.328731 0.010618 0.0
0.314741 0.003372 0.0
0.313348 -0.001979 0.0
0.319621 -0.004295 0.0
0.329079 -0.005164 0.0
0.339514 -0.005271 0.0
0.349685 -0.004900 0.0
0.358823 -0.004238 0.0
0.366490 -0.003428 0.0
0.372490 -0.002572 0.0
0.376800 -0.001738 0.0
0.379494 -0.000956 0.0
0.380610 -0.000160 0.0
0.379810 0.000960 0.0
0.376521 0.002328 0.0
0.370616 0.003576 0.0
0.362649 0.004391 0.0
0.353747 0.004511 0.0
0.345367 0.003869 0.0
0.338817 0.002681 0.0
0.334751 0.001385 0.0
0.332939 0.000426 0.0
0.332481 0.000033 0.0
0.332314 0.000133 0.0
0.331738 0.000443 0.0
0.330646 0.000649 0.0
0.329426 0.000571 0.0
0.328625 0.000231 0.0
0.328574 -0.000180 0.0
0.329275 -0.000521 0.0
0.330580 -0.000783 0.0
0.332296 -0.000934 0.0
0.334246 -0.001016 0.0
0.336335 -0.001073 0.0
0.338509 -0.001102 0.0
0.340692 -0.001081 0.0
0.342785 -0.001013 0.0
0.344712 -0.000914 0.0
0.346420 -0.000795 0.0
0.347881 -0.000665 0.0
0.349073 -0.000527 0.0
0.349975 -0.000375 0.0
0.350555 -0.000205 0.0
0.350766 -0.000005 0.0
0.350539 0.000232 0.0
0.349846 0.000462 0.0
0.348735 0.000649 0.0
0.347301 0.000785 0.0
0.345648 0.000867 0.0
0.343893 0.000888 0.0
0.342156 0.000849 0.0
0.340986 0.000322 0.0
1.003034 0.001483 0.0
1.011870 -0.001424 0.0
1.025722 -0.007002 0.0
1.044043 -0.013918 0.0
1.066832 -0.021391 0.0
1.094038 -0.028745 0.0
1.125328 -0.035242 0.0
1.159945 -0.040061 0.0
1.196638 -0.042421 0.0
1.233696 -0.041767 0.0
1.269209 -0.038060 0.0
1.301436 -0.031736 0.0
1.329034 -0.023456 0.0
1.351045 -0.013916 0.0
1.366569 -0.003827 0.0
1.374970 0.006455 0.0
1.376159 0.016609 0.0
1.370358 0.026242 0.0
1.358056 0.034965 0.0
1.339999 0.042399 0.0
1.317182 0.048199 0.0
1.290815 0.052079 0.0
1.262275 0.053832 0.0
1.233052 0.053341 0.0
1.204671 0.050601 0.0
1.178624 0.045723 0.0
1.156279 0.038949 0.0
1.138793 0.030651 0.0
1.127028 0.021329 0.0
1.121490 0.011593 0.0
1.122262 0.002109 0.0
1.128535 -0.006217 0.0
1.139116 -0.011913 0.0
1.152771 -0.014135 0.0
1.167411 -0.012553 0.0
1.179938 -0.007270 0.0
1.187314 0.001468 0.0
1.187452 0.013099 0.0
1.179006 0.026388 0.0
1.161340 0.039991 0.0
1.134625 0.052687 0.0
1.099763 0.063449 0.0
1.058261 0.071453 0.0
1.012098 0.076074 0.0
0.963605 0.076864 0.0
0.915364 0.073481 0.0
0.869995 0.065607 0.0
0.829627 0.053133 0.0
0.795107 0.037034 0.0
0.765923 0.020129 0.0
0.742609 0.005972 0.0
0.728357 -0.004266 0.0
0.724534 -0.010827 0.0
0.728813 -0.014321 0.0
0.738521 -0.015729 0.0
0.751679 -0.015706 0.0
0.766760 -0.014708 0.0
0.782479 -0.013011 0.0
0.797608 -0.010739 0.0
0.810876 -0.007918 0.0
0.821103 -0.004540 0.0
0.827892 -0.000648 0.0
0.831768 0.003349 0.0
0.833249 0.006979 0.0
0.832521 0.009683 0.0
0.829614 0.011028 0.0
0.824352 0.010993 0.0
0.816374 0.010085 0.0
0.805316 0.009105 0.0
0.791122 0.008711 0.0
0.774242 0.009086 0.0
0.755639 0.009850 0.0
0.736653 0.010289 0.0
0.718809 0.009738 0.0
0.703584 0.007926 0.0
0.692136 0.005124 0.0
0.685098 0.002015 0.0
0.682343 -0.000662 0.0
0.682854 -0.002456 0.0
0.685434 -0.003557 0.0
0.689406 -0.004313 0.0
0.694478 -0.004937 0.0
0.700489 -0.005424 0.0
0.707208 -0.005660 0.0
0.714323 -0.005642 0.0
0.721533 -0.005421 0.0
0.728560 -0.005024 0.0
0.735129 -0.004467 0.0
0.740986 -0.003773 0.0
0.745922 -0.002967 0.0
0.749817 -0.002088 0.0
0.752681 -0.001197 0.0
0.754689 -0.000359 0.0
0.756077 0.000358 0.0
0.757004 0.000937 0.0
0.757576 0.001360 0.0
0.757912 0.001608 0.0
0.758153 0.001661 0.0
0.758503 0.001461 0.0
0.758682 0.000700 0.0
1.001939 -0.003490 0.0
1.008930 -0.012279 0.0
1.021780 -0.022849 0.0
1.040054 -0.034666 0.0
1.063713 -0.047091 0.0
1.092755 -0.059294 0.0
1.126941 -0.070169 0.0
1.165529 -0.078339 0.0
1.207077 -0.082383 0.0
1.249343 -0.081130 0.0
1.289718 -0.074585 0.0
1.326005 -0.063726 0.0
1.356772 -0.049830 0.0
1.381237 -0.034018 0.0
1.399073 -0.017086 0.0
1.410180 0.000206 0.0
1.414591 0.017259 0.0
1.412534 0.033450 0.0
1.404435 0.048158 0.0
1.390933 0.060765 0.0
1.372876 0.070706 0.0
1.351303 0.077513 0.0
1.327388 0.080852 0.0
1.302394 0.080539 0.0
1.277610 0.076567 0.0
1.254300 0.069114 0.0
1.233644 0.058560 0.0
1.216687 0.045483 0.0
1.204312 0.030638 0.0
1.197204 0.014928 0.0
1.195799 -0.000592 0.0
1.200424 -0.014415 0.0
1.211197 -0.025069 0.0
1.227507 -0.030945 0.0
1.247752 -0.030628 0.0
1.269379 -0.023351 0.0
1.289169 -0.009618 0.0
1.304156 0.009060 0.0
1.312340 0.030690 0.0
1.312611 0.053084 0.0
1.304650 0.074269 0.0
1.288804 0.092575 0.0
1.265957 0.106675 0.0
1.237404 0.115568 0.0
1.204711 0.118554 0.0
1.169548 0.115195 0.0
1.133423 0.105387 0.0
1.097421 0.089723 0.0
1.062298 0.070088 0.0
1.029094 0.049463 0.0
0.999007 0.030039 0.0
0.972317 0.012608 0.0
0.949964 -0.001525 0.0
0.934089 -0.012026 0.0
0.925352 -0.018994 0.0
0.922892 -0.023138 0.0
0.925648 -0.025114 0.0
0.932658 -0.025334 0.0
0.943095 -0.023981 0.0
0.956245 -0.021095 0.0
0.971415 -0.016760 0.0
0.987643 -0.011445 0.0
1.003673 -0.005761 0.0
1.018523 -0.000243 0.0
1.031623 0.004534 0.0
1.042396 0.008313 0.0
1.050115 0.011251 0.0
1.054098 0.013823 0.0
1.053955 0.016568 0.0
1.049709 0.019688 0.0
1.041762 0.022936 0.0
1.030708 0.025658 0.0
1.017142 0.027033 0.0
1.001509 0.026470 0.0
0.984020 0.023909 0.0
0.964714 0.019895 0.0
0.943722 0.015275 0.0
0.921779 0.010776 0.0
0.900718 0.006657 0.0
0.882827 0.002640 0.0
0.869695 -0.001350 0.0
0.861635 -0.004913 0.0
0.857762 -0.007586 0.0
0.856872 -0.009327 0.0
0.858097 -0.010315 0.0
0.860876 -0.010738 0.0
0.864778 -0.010635 0.0
0.869380 -0.010026 0.0
0.874282 -0.008973 0.0
0.879149 -0.007570 0.0
0.883711 -0.005942 0.0
0.887750 -0.004246 0.0
0.891084 -0.002651 0.0
0.893604 -0.001258 0.0
0.895348 -0.000118 0.0
0.896460 0.000731 0.0
0.897093 0.001268 0.0
0.897380 0.001476 0.0
0.897362 0.001314 0.0
0.896820 0.001211 0.0
1.001556 -0.006985 0.0
1.007643 -0.021862 0.0
1.019615 -0.038088 0.0
1.037505 -0.055591 0.0
1.061605 -0.073923 0.0
1.092280 -0.092178 0.0
1.129674 -0.108864 0.0
1.173274 -0.121831 0.0
1.221512 -0.128677 0.0
1.271094 -0.126684 0.0
1.317851 -0.116161 0.0
1.358771 -0.099358 0.0
1.392448 -0.078642 0.0
1.418499 -0.055722 0.0
1.436943 -0.031663 0.0
1.447891 -0.007272 0.0
1.451554 0.016664 0.0
1.448264 0.039391 0.0
1.438506 0.060073 0.0
1.423009 0.077850 0.0
1.402742 0.091945 0.0
1.378850 0.101740 0.0
1.352582 0.106808 0.0
1.325229 0.106931 0.0
1.298077 0.102111 0.0
1.272374 0.092582 0.0
1.249304 0.078819 0.0
1.229963 0.061521 0.0
1.215364 0.041575 0.0
1.206475 0.019989 0.0
1.204303 -0.002075 0.0
1.209795 -0.023050 0.0
1.223393 -0.040805 0.0
1.244560 -0.052686 0.0
1.271551 -0.056123 0.0
1.301494 -0.049425 0.0
1.330757 -0.032596 0.0
1.355618 -0.007810 0.0
1.373500 0.021494 0.0
1.383499 0.052011 0.0
1.385680 0.081122 0.0
1.380569 0.106680 0.0
1.368957 0.127029 0.0
1.351755 0.140970 0.0
1.329889 0.147712 0.0
1.304212 0.146878 0.0
1.275427 0.138615 0.0
1.244091 0.123833 0.0
1.210831 0.104360 0.0
1.176638 0.082588 0.0
1.142898 0.060742 0.0
1.111108 0.040387 0.0
1.082169 0.021988 0.0
1.056490 0.006014 0.0
1.035211 -0.007018 0.0
1.019565 -0.017008 0.0
1.009730 -0.024167 0.0
1.005331 -0.028891 0.0
1.005890 -0.031420 0.0
1.010966 -0.031882 0.0
1.020217 -0.030394 0.0
1.033382 -0.027203 0.0
1.050116 -0.022766 0.0
1.069736 -0.017708 0.0
1.091095 -0.012460 0.0
1.112732 -0.007104 0.0
1.133107 -0.001427 0.0
1.150796 0.004829 0.0
1.164783 0.011720 0.0
1.174607 0.018958 0.0
1.180158 0.026061 0.0
1.181410 0.032335 0.0
1.178354 0.036980 0.0
1.170988 0.039522 0.0
1.159402 0.039932 0.0
1.143977 0.038602 0.0
1.125518 0.036019 0.0
1.105111 0.032381 0.0
1.083661 0.027563 0.0
1.061594 0.021691 0.0
1.039053 0.015272 0.0
1.016556 0.009022 0.0
0.995496 0.003413 0.0
0.977535 -0.001475 0.0
0.963671 -0.005528 0.0
0.953851 -0.008484 0.0
0.947306 -0.010245 0.0
0.943184 -0.010896 0.0
0.940790 -0.010612 0.0
0.939567 -0.009575 0.0
0.939055 -0.007986 0.0
0.938873 -0.006059 0.0
0.938717 -0.004016 0.0
0.938368 -0.002064 0.0
0.937690 -0.000379 0.0
0.936642 0.000928 0.0
0.935284 0.001796 0.0
0.933726 0.002219 0.0
0.932047 0.002267 0.0
0.930301 0.002546 0.0
1.001361 -0.009902 0.0
1.006849 -0.030520 0.0
1.018019 -0.052572 0.0
1.035347 -0.076325 0.0
1.059642 -0.101584 0.0
1.091939 -0.127490 0.0
1.133189 -0.152197 0.0
1.183553 -0.172464 0.0
1.241867 -0.184596 0.0
1.302598 -0.181079 0.0
1.357965 -0.163890 0.0
1.403924 -0.138508 0.0
1.439929 -0.109174 0.0
1.466805 -0.078116 0.0
1.485321 -0.046229 0.0
1.495752 -0.014084 0.0
1.498183 0.017384 0.0
1.492788 0.047356 0.0
1.479965 0.074689 0.0
1.460513 0.098183 0.0
1.435587 0.116805 0.0
1.406573 0.129787 0.0
1.374955 0.136646 0.0
1.342239 0.137161 0.0
1.309903 0.131369 0.0
1.279370 0.119560 0.0
1.251994 0.102289 0.0
1.229025 0.080360 0.0
1.211596 0.054764 0.0
1.200745 0.026539 0.0
1.197549 -0.003258 0.0
1.203090 -0.032900 0.0
1.218024 -0.059486 0.0
1.242083 -0.079230 0.0
1.273904 -0.088391 0.0
1.311011 -0.084207 0.0
1.349696 -0.065763 0.0
1.385088 -0.034896 0.0
1.412325 0.003461 0.0
1.429196 0.043173 0.0
1.436405 0.080568 0.0
1.435495 0.113254 0.0
1.427971 0.139591 0.0
1.415059 0.158522 0.0
1.397632 0.169452 0.0
1.376236 0.172210 0.0
1.351179 0.167124 0.0
1.322700 0.155138 0.0
1.291197 0.137817 0.0
1.257422 0.117098 0.0
1.222511 0.094883 0.0
1.187827 0.072720 0.0
1.154736 0.051684 0.0
1.124370 0.032363 0.0
1.097365 0.014918 0.0
1.074283 -0.000216 0.0
1.055872 -0.012714 0.0
1.042353 -0.022425 0.0
1.033369 -0.029462 0.0
1.028495 -0.034042 0.0
1.027514 -0.036504 0.0
1.030531 -0.037275 0.0
1.037882 -0.036778 0.0
1.049954 -0.035388 0.0
1.067021 -0.033206 0.0
1.089016 -0.029989 0.0
1.115286 -0.025187 0.0
1.144425 -0.018240 0.0
1.174186 -0.008958 0.0
1.201703 0.002295 0.0
1.224440 0.014436 0.0
1.241198 0.025950 0.0
1.251803 0.035816 0.0
1.256272 0.043582 0.0
1.254756 0.048976 0.0
1.247702 0.052037 0.0
1.235836 0.052908 0.0
1.220028 0.051707 0.0
1.201127 0.048588 0.0
1.179944 0.043915 0.0
1.157354 0.038179 0.0
1.134241 0.031725 0.0
1.111249 0.024762 0.0
1.088705 0.017680 0.0
1.066862 0.011024 0.0
1.046299 0.005347 0.0
1.027861 0.000908 0.0
1.012152 -0.002220 0.0
0.999303 -0.004045 0.0
0.989031 -0.004647 0.0
0.980823 -0.004194 0.0
0.974098 -0.002944 0.0
0.968330 -0.001208 0.0
0.963120 0.000687 0.0
0.958226 0.002441 0.0
0.953566 0.003816 0.0
0.949169 0.004663 0.0
0.945130 0.004949 0.0
0.941573 0.004774 0.0
0.938681 0.004677 0.0
1.001166 -0.012429 0.0
1.005939 -0.038253 0.0
1.015901 -0.065970 0.0
1.031919 -0.096273 0.0
1.055421 -0.129433 0.0
1.088425 -0.164941 0.0
1.133328 -0.200897 0.0
1.191912 -0.232713 0.0
1.265365 -0.256112 0.0
1.342460 -0.247390 0.0
1.406739 -0.217226 0.0
1.454556 -0.178947 0.0
1.488990 -0.139175 0.0
1.513777 -0.099778 0.0
1.531053 -0.060359 0.0
1.540994 -0.020325 0.0
1.542791 0.019397 0.0
1.535823 0.057705 0.0
1.520126 0.092860 0.0
1.496510 0.123081 0.0
1.466368 0.146975 0.0
1.431386 0.163613 0.0
1.393349 0.172475 0.0
1.354030 0.173367 0.0
1.315156 0.166373 0.0
1.278392 0.151851 0.0
1.245314 0.130452 0.0
1.217346 0.103134 0.0
1.195634 0.071131 0.0
1.180874 0.035783 0.0
1.173327 -0.001759 0.0
1.173462 -0.040076 0.0
1.182080 -0.075862 0.0
1.199707 -0.104540 0.0
1.226575 -0.121771 0.0
1.262553 -0.123912 0.0
1.306223 -0.108413 0.0
1.353593 -0.075009 0.0
1.397467 -0.027536 0.0
1.429818 0.024948 0.0
1.448047 0.073355 0.0
1.454644 0.114780 0.0
1.452331 0.147902 0.0
1.443266 0.172189 0.0
1.428911 0.187567 0.0
1.410118 0.194285 0.0
1.387312 0.192913 0.0
1.360739 0.184402 0.0
1.330717 0.170080 0.0
1.297818 0.151509 0.0
1.262939 0.130263 0.0
1.227234 0.107729 0.0
1.191994 0.085006 0.0
1.158486 0.062914 0.0
1.127774 0.042084 0.0
1.100448 0.023027 0.0
1.076498 0.006404 0.0
1.055557 -0.007083 0.0
1.036987 -0.017250 0.0
1.020125 -0.024518 0.0
1.004904 -0.029826 0.0
0.992188 -0.034254 0.0
0.983550 -0.038512 0.0
0.980809 -0.042986 0.0
0.985611 -0.047478 0.0
0.998974 -0.051075 0.0
1.021033 -0.052429 0.0
1.051096 -0.050200 0.0
1.087790 -0.043453 0.0
1.129040 -0.031978 0.0
1.171646 -0.016634 0.0
1.211039 0.000868 0.0
1.242932 0.018398 0.0
1.265668 0.033794 0.0
1.279683 0.046266 0.0
1.285790 0.055693 0.0
1.284870 0.062039 0.0
1.277876 0.065378 0.0
1.265780 0.065914 0.0
1.249558 0.063994 0.0
1.230196 0.060053 0.0
1.208630 0.054531 0.0
1.185690 0.047890 0.0
1.162116 0.040669 0.0
1.138615 0.033380 0.0
1.115782 0.026387 0.0
1.094038 0.020050 0.0
1.073663 0.014722 0.0
1.054841 0.010684 0.0
1.037676 0.008061 0.0
1.022182 0.006800 0.0
1.008285 0.006684 0.0
0.995840 0.007377 0.0
0.984680 0.008474 0.0
0.974658 0.009570 0.0
0.965689 0.010317 0.0
0.957768 0.010481 0.0
0.950966 0.009971 0.0
0.945416 0.008859 0.0
0.941370 0.007531 0.0
1.000886 -0.014481 0.0
1.004562 -0.044652 0.0
1.012441 -0.077413 0.0
1.025663 -0.114071 0.0
1.046236 -0.155711 0.0
1.077363 -0.202795 0.0
1.123699 -0.254283 0.0
1.190444 -0.304657 0.0
1.286531 -0.353707 0.0
1.384877 -0.325236 0.0
1.450118 -0.268900 0.0
1.487597 -0.212568 0.0
1.510006 -0.162398 0.0
1.525936 -0.117271 0.0
1.539328 -0.073536 0.0
1.549705 -0.027465 0.0
1.553517 0.020928 0.0
1.547762 0.068896 0.0
1.531689 0.113439 0.0
1.506040 0.151766 0.0
1.472475 0.181997 0.0
1.432982 0.203065 0.0
1.389584 0.214458 0.0
1.344257 0.216031 0.0
1.298919 0.207922 0.0
1.255437 0.190549 0.0
1.215585 0.164684 0.0
1.180920 0.131535 0.0
1.152513 0.092848 0.0
1.130386 0.050954 0.0
1.112858 0.008146 0.0
1.098089 -0.035347 0.0
1.086934 -0.078055 0.0
1.082584 -0.115624 0.0
1.089179 -0.144149 0.0
1.110726 -0.159059 0.0
1.149068 -0.155277 0.0
1.202563 -0.129009 0.0
1.265378 -0.080225 0.0
1.326361 -0.015697 0.0
1.372923 0.049209 0.0
1.401547 0.103706 0.0
1.416104 0.146732 0.0
1.419923 0.178605 0.0
1.415385 0.200043 0.0
1.404076 0.211911 0.0
1.387008 0.215161 0.0
1.364865 0.210870 0.0
1.338238 0.200260 0.0
1.307815 0.184650 0.0
1.274471 0.165346 0.0
1.239283 0.143538 0.0
1.203478 0.120242 0.0
1.168312 0.096352 0.0
1.134857 0.072812 0.0
1.103665 0.050816 0.0
1.074440 0.031790 0.0
1.045969 0.016943 0.0
1.016623 0.006640 0.0
0.985336 -0.000259 0.0
0.952604 -0.006132 0.0
0.920976 -0.013605 0.0
0.894788 -0.024334 0.0
0.878405 -0.038040 0.0
0.874246 -0.053067 0.0
0.882490 -0.067092 0.0
0.901908 -0.077889 0.0
0.930821 -0.083717 0.0
0.967610 -0.083419 0.0
1.010773 -0.076423 0.0
1.058727 -0.062747 0.0
1.109486 -0.043170 0.0
1.159795 -0.019765 0.0
1.204493 0.004523 0.0
1.239206 0.026810 0.0
1.263147 0.045101 0.0
1.277466 0.059230 0.0
1.283374 0.069274 0.0
1.282035 0.075453 0.0
1.274588 0.078123 0.0
1.262135 0.077738 0.0
1.245727 0.074819 0.0
1.226339 0.069931 0.0
1.204867 0.063672 0.0
1.182126 0.056619 0.0
1.158813 0.049294 0.0
1.135503 0.042198 0.0
1.112664 0.035788 0.0
1.090679 0.030426 0.0
1.069831 0.026331 0.0
1.050304 0.023549 0.0
1.032184 0.021951 0.0
1.015490 0.021249 0.0
1.000208 0.021045 0.0
0.986333 0.020896 0.0
0.973901 0.020391 0.0
0.963008 0.019221 0.0
0.953810 0.017231 0.0
0.946507 0.014451 0.0
0.941455 0.011037 0.0
1.000477 -0.015844 0.0
1.002504 -0.048992 0.0
1.007048 -0.085495 0.0
1.015254 -0.127416 0.0
1.029356 -0.177040 0.0
1.053490 -0.236727 0.0
1.095022 -0.308220 0.0
1.165339 -0.387782 0.0
1.292451 -0.493781 0.0
1.408941 -0.399997 0.0
1.446918 -0.297357 0.0
1.447801 -0.222474 0.0
1.440317 -0.167418 0.0
1.436319 -0.124182 0.0
1.440994 -0.084693 0.0
1.453883 -0.039575 0.0
1.466609 0.016500 0.0
1.469851 0.075837 0.0
1.460690 0.131731 0.0
1.439987 0.179826 0.0
1.409661 0.217828 0.0
1.371754 0.244636 0.0
1.328239 0.259800 0.0
1.281029 0.263227 0.0
1.232016 0.255076 0.0
1.183082 0.235811 0.0
1.135989 0.206367 0.0
1.092124 0.168382 0.0
1.052091 0.124441 0.0
1.015168 0.078410 0.0
0.978728 0.034658 0.0
0.938167 -0.006528 0.0
0.894074 -0.051626 0.0
0.857665 -0.101295 0.0
0.841851 -0.149259 0.0
0.852391 -0.186037 0.0
0.888407 -0.202657 0.0
0.946021 -0.192737 0.0
1.020387 -0.153679 0.0
1.105277 -0.088115 0.0
1.188307 -0.007966 0.0
1.254353 0.066211 0.0
1.299500 0.124524 0.0
1.328187 0.168306 0.0
1.343734 0.199333 0.0
1.348463 0.219200 0.0
1.344067 0.229335 0.0
1.331849 0.231057 0.0
1.312913 0.225635 0.0
1.288312 0.214300 0.0
1.259135 0.198218 0.0
1.226548 0.178441 0.0
1.191766 0.155927 0.0
1.155898 0.131701 0.0
1.119597 0.107219 0.0
1.082530 0.084669 0.0
1.043086 0.066607 0.0
0.999115 0.054568 0.0
0.949926 0.047551 0.0
0.898207 0.041835 0.0
0.849846 0.032868 0.0
0.811268 0.017601 0.0
0.786372 -0.004456 0.0
0.776019 -0.031182 0.0
0.778915 -0.058662 0.0
0.792546 -0.083372 0.0
0.814505 -0.102987 0.0
0.843113 -0.116139 0.0
0.877364 -0.122037 0.0
0.916649 -0.120254 0.0
0.960455 -0.110677 0.0
1.008064 -0.093610 0.0
1.058322 -0.069892 0.0
1.109398 -0.041123 0.0
1.157708 -0.010566 0.0
1.198157 0.018087 0.0
1.228060 0.042021 0.0
1.247941 0.060694 0.0
1.258959 0.074354 0.0
1.262260 0.083370 0.0
1.258974 0.088230 0.0
1.250195 0.089514 0.0
1.236961 0.087858 0.0
1.220242 0.083935 0.0
1.200927 0.078412 0.0
1.179810 0.071931 0.0
1.157585 0.065097 0.0
1.134855 0.058458 0.0
1.112130 0.052467 0.0
1.089825 0.047443 0.0
1.068262 0.043529 0.0
1.047676 0.040678 0.0
1.028239 0.038652 0.0
1.010100 0.037063 0.0
0.993412 0.035442 0.0
0.978358 0.033330 0.0
0.965168 0.030365 0.0
0.954107 0.026347 0.0
0.945460 0.021284 0.0
0.939673 0.015043 0.0
0.999937 -0.016258 0.0
0.999741 -0.050409 0.0
0.999609 -0.088490 0.0
1.000231 -0.133249 0.0
1.003225 -0.188303 0.0
1.012316 -0.258690 0.0
1.036075 -0.351548 0.0
1.093448 -0.472145 0.0
1.247597 -0.690679 0.0
1.351413 -0.423405 0.0
1.302266 -0.262779 0.0
1.231537 -0.187207 0.0
1.177440 -0.141103 0.0
1.142543 -0.111601 0.0
1.130773 -0.090179 0.0
1.145619 -0.061824 0.0
1.179987 -0.008344 0.0
1.212286 0.065141 0.0
1.228567 0.135307 0.0
1.230016 0.195505 0.0
1.218907 0.243583 0.0
1.196956 0.278739 0.0
1.165557 0.300610 0.0
1.126113 0.309070 0.0
1.080135 0.304224 0.0
1.029078 0.286654 0.0
0.973681 0.258013 0.0
0.912626 0.221655 0.0
0.841931 0.181897 0.0
0.758784 0.141024 0.0
0.669841 0.097427 0.0
0.593655 0.047450 0.0
0.546943 -0.014800 0.0
0.533978 -0.088747 0.0
0.549306 -0.161321 0.0
0.584683 -0.219891 0.0
0.635146 -0.255282 0.0
0.698907 -0.261486 0.0
0.775258 -0.235646 0.0
0.863004 -0.178785 0.0
0.959363 -0.096685 0.0
1.053703 -0.005457 0.0
1.130972 0.073776 0.0
1.187172 0.134166 0.0
1.226280 0.178818 0.0
1.251034 0.210232 0.0
1.263412 0.230321 0.0
1.265031 0.240671 0.0
1.257313 0.242673 0.0
1.241588 0.237589 0.0
1.219126 0.226569 0.0
1.191123 0.210680 0.0
1.158557 0.191036 0.0
1.121859 0.169157 0.0
1.080489 0.147433 0.0
1.032970 0.129042 0.0
0.978103 0.116544 0.0
0.917128 0.109577 0.0
0.855033 0.103827 0.0
0.799296 0.093014 0.0
0.756679 0.072668 0.0
0.730621 0.042437 0.0
0.720822 0.005403 0.0
0.724116 -0.033983 0.0
0.736423 -0.071064 0.0
0.754680 -0.102856 0.0
0.777132 -0.127914 0.0
0.802940 -0.145628 0.0
0.831862 -0.155722 0.0
0.864016 -0.158009 0.0
0.899638 -0.152349 0.0
0.938841 -0.138751 0.0
0.981394 -0.117563 0.0
1.026553 -0.089688 0.0
1.072969 -0.056726 0.0
1.118237 -0.021470 0.0
1.158053 0.011859 0.0
1.189020 0.040008 0.0
1.210831 0.062210 0.0
1.224282 0.078761 0.0
1.230288 0.090119 0.0
1.229819 0.096873 0.0
1.223847 0.099705 0.0
1.213311 0.099343 0.0
1.199100 0.096531 0.0
1.182032 0.091998 0.0
1.162847 0.086439 0.0
1.142205 0.080488 0.0
1.120682 0.074685 0.0
1.098775 0.069436 0.0
1.076903 0.064971 0.0
1.055421 0.061304 0.0
1.034652 0.058232 0.0
1.014905 0.055369 0.0
0.996505 0.052223 0.0
0.979806 0.048301 0.0
0.965179 0.043211 0.0
0.953001 0.036741 0.0
0.943622 0.028915 0.0
0.937519 0.019302 0.0
0.999316 -0.015511 0.0
0.996544 -0.048188 0.0
0.990843 -0.084877 0.0
0.981930 -0.128571 0.0
0.969599 -0.183643 0.0
0.954392 -0.257234 0.0
0.939914 -0.362284 0.0
0.941423 -0.520291 0.0
1.042681 -0.897939 0.0
1.036457 -0.206704 0.0
0.836920 -0.111814 0.0
0.686069 -0.104646 0.0
0.601291 -0.084788 0.0
0.549252 -0.080979 0.0
0.536524 -0.096304 0.0
0.569076 -0.103097 0.0
0.640847 -0.073210 0.0
0.730501 0.008055 0.0
0.806028 0.100584 0.0
0.856553 0.178254 0.0
0.886883 0.241614 0.0
0.898753 0.290790 0.0
0.893149 0.325563 0.0
0.870883 0.345828 0.0
0.832390 0.351937 0.0
0.777158 0.345228 0.0
0.703629 0.328365 0.0
0.611725 0.304262 0.0
0.508699 0.273012 0.0
0.412136 0.229618 0.0
0.342625 0.167287 0.0
0.311663 0.084740 0.0
0.317169 -0.010885 0.0
0.345865 -0.108392 0.0
0.384492 -0.195632 0.0
0.428192 -0.264657 0.0
0.477126 -0.309914 0.0
0.533414 -0.326905 0.0
0.599387 -0.312550 0.0
0.676325 -0.266565 0.0
0.763791 -0.192729 0.0
0.859320 -0.099282 0.0
0.952940 -0.003287 0.0
1.030988 0.076981 0.0
1.089826 0.138057 0.0
1.132429 0.183636 0.0
1.160768 0.216200 0.0
1.176380 0.237562 0.0
1.180659 0.249221 0.0
1.174922 0.252503 0.0
1.160390 0.248648 0.0
1.138064 0.238929 0.0
1.108478 0.224938 0.0
1.071412 0.209020 0.0
1.025990 0.194363 0.0
0.971752 0.183869 0.0
0.910534 0.177801 0.0
0.847689 0.172141 0.0
0.790976 0.160071 0.0
0.747409 0.136073 0.0
0.720456 0.099180 0.0
0.709576 0.052863 0.0
0.711719 0.002634 0.0
0.722882 -0.045673 0.0
0.739424 -0.088223 0.0
0.758865 -0.123397 0.0
0.779788 -0.150748 0.0
0.801561 -0.170374 0.0
0.824174 -0.182511 0.0
0.848088 -0.187287 0.0
0.874038 -0.184642 0.0
0.902783 -0.174406 0.0
0.934836 -0.156514 0.0
0.970237 -0.131297 0.0
1.008429 -0.099725 0.0
1.048227 -0.063537 0.0
1.087698 -0.025361 0.0
1.123328 0.010632 0.0
1.151970 0.041132 0.0
1.172925 0.065433 0.0
1.186571 0.083794 0.0
1.193528 0.096709 0.0
1.194541 0.104829 0.0
1.190398 0.108897 0.0
1.181889 0.109698 0.0
1.169768 0.108021 0.0
1.154741 0.104629 0.0
1.137454 0.100228 0.0
1.118491 0.095430 0.0
1.098378 0.090710 0.0
1.077598 0.086350 0.0
1.056603 0.082400 0.0
1.035847 0.078662 0.0
1.015797 0.074736 0.0
0.996946 0.070106 0.0
0.979802 0.064261 0.0
0.964861 0.056818 0.0
0.952572 0.047602 0.0
0.943295 0.036710 0.0
0.937440 0.023465 0.0
0.998726 -0.013553 0.0
0.993492 -0.042140 0.0
0.982400 -0.074132 0.0
0.963996 -0.112001 0.0
0.935560 -0.159445 0.0
0.892084 -0.222748 0.0
0.823786 -0.313994 0.0
0.711592 -0.457896 0.0
0.320692 -0.777726 0.0
-0.469128 0.282880 0.0
-0.469128 0.000000 0.0
-0.038216 -0.026832 0.0
-0.065263 -0.062162 0.0
-0.020476 -0.096354 0.0
0.055948 -0.144625 0.0
0.138735 -0.170115 0.0
0.217881 -0.157110 0.0
0.305391 -0.085207 0.0
0.397331 0.026379 0.0
0.473640 0.125626 0.0
0.529023 0.208529 0.0
0.563686 0.277341 0.0
0.576341 0.331961 0.0
0.565714 0.372322 0.0
0.530771 0.398880 0.0
0.471692 0.412597 0.0
0.392904 0.413314 0.0
0.307256 0.396865 0.0
0.234262 0.356430 0.0
0.190809 0.286215 0.0
0.182767 0.188242 0.0
0.204474 0.073040 0.0
0.243475 -0.043692 0.0
0.287562 -0.148368 0.0
0.330321 -0.237043 0.0
0.370371 -0.306996 0.0
0.409281 -0.355419 0.0
0.450672 -0.379080 0.0
0.498989 -0.374665 0.0
0.557854 -0.340254 0.0
0.628658 -0.277310 0.0
0.710137 -0.191709 0.0
0.798721 -0.093065 0.0
0.884669 0.002763 0.0
0.956614 0.081492 0.0
1.011865 0.142347 0.0
1.052374 0.188641 0.0
1.079444 0.222440 0.0
1.094197 0.245312 0.0
1.097694 0.258651 0.0
1.090863 0.263863 0.0
1.074320 0.262584 0.0
1.048166 0.257022 0.0
1.012062 0.250106 0.0
0.966005 0.244755 0.0
0.911836 0.241884 0.0
0.854447 0.238393 0.0
0.801189 0.227653 0.0
0.759218 0.203243 0.0
0.732637 0.163048 0.0
0.721595 0.110199 0.0
0.723522 0.050795 0.0
0.734794 -0.008712 0.0
0.751702 -0.062398 0.0
0.771250 -0.107587 0.0
0.791432 -0.143656 0.0
0.810951 -0.170930 0.0
0.829143 -0.190158 0.0
0.845960 -0.202158 0.0
0.861942 -0.207534 0.0
0.878105 -0.206508 0.0
0.895725 -0.198906 0.0
0.916017 -0.184358 0.0
0.939805 -0.162641 0.0
0.967285 -0.134053 0.0
0.997948 -0.099670 0.0
1.030633 -0.061384 0.0
1.063527 -0.021868 0.0
1.093621 0.014897 0.0
1.118323 0.046011 0.0
1.136893 0.070999 0.0
1.149380 0.090061 0.0
1.156143 0.103703 0.0
1.157701 0.112607 0.0
1.154646 0.117551 0.0
1.147588 0.119346 0.0
1.137126 0.118793 0.0
1.123834 0.116644 0.0
1.108254 0.113557 0.0
1.090909 0.110040 0.0
1.072317 0.106393 0.0
1.053012 0.102657 0.0
1.033560 0.098613 0.0
1.014566 0.093830 0.0
0.996657 0.087773 0.0
0.980449 0.079947 0.0
0.966499 0.070023 0.0
0.955256 0.057930 0.0
0.947014 0.043901 0.0
0.942025 0.027118 0.0
0.998294 -0.010574 0.0
0.991269 -0.032861 0.0
0.976301 -0.057350 0.0
0.951224 -0.085300 0.0
0.911854 -0.118339 0.0
0.850136 -0.158662 0.0
0.749397 -0.209044 0.0
0.570111 -0.271365 0.0
0.226893 -0.332474 0.0
0.000000 0.282880 0.0
-0.000000 -0.000000 0.0
0.000000 0.000000 0.0
-0.037708 -0.036666 0.0
-0.080438 -0.124951 0.0
-0.076623 -0.196266 0.0
-0.055104 -0.222779 0.0
-0.030398 -0.208299 0.0
0.005249 -0.157175 0.0
0.069756 -0.058100 0.0
0.144774 0.058777 0.0
0.205813 0.158956 0.0
0.249798 0.248266 0.0
0.272348 0.325832 0.0
0.270843 0.390584 0.0
0.245365 0.441039 0.0
0.200543 0.474339 0.0
0.148778 0.482125 0.0
0.109450 0.453029 0.0
0.097186 0.385525 0.0
0.114969 0.282790 0.0
0.157265 0.157413 0.0
0.213532 0.025895 0.0
0.271093 -0.093109 0.0
0.322043 -0.193988 0.0
0.364595 -0.276733 0.0
0.398399 -0.341160 0.0
0.425055 -0.386821 0.0
0.448408 -0.412422 0.0
0.474180 -0.415411 0.0
0.508518 -0.392711 0.0
0.555756 -0.342895 0.0
0.616690 -0.268537 0.0
0.688577 -0.176707 0.0
0.766356 -0.077320 0.0
0.840539 0.015448 0.0
0.902372 0.091307 0.0
0.950223 0.151320 0.0
0.985030 0.197883 0.0
1.007524 0.232622 0.0
1.018352 0.257016 0.0
1.018000 0.272681 0.0
1.006671 0.281638 0.0
0.984327 0.286467 0.0
0.951206 0.289886 0.0
0.908944 0.293295 0.0
0.861664 0.294793 0.0
0.815877 0.288660 0.0
0.778530 0.267991 0.0
0.754336 0.229069 0.0
0.744427 0.173712 0.0
0.747092 0.107912 0.0
0.759423 0.038825 0.0
0.778016 -0.026607 0.0
0.799606 -0.083001 0.0
0.821780 -0.128706 0.0
0.842808 -0.163748 0.0
0.861463 -0.189010 0.0
0.876996 -0.205803 0.0
0.889200 -0.215534 0.0
0.898464 -0.219404 0.0
0.905802 -0.218139 0.0
0.912741 -0.211835 0.0
0.921053 -0.200033 0.0
0.932347 -0.182048 0.0
0.947677 -0.157457 0.0
0.967297 -0.126549 0.0
0.990642 -0.090534 0.0
1.016485 -0.051456 0.0
1.042970 -0.012096 0.0
1.067459 0.023813 0.0
1.087897 0.054191 0.0
1.103588 0.078691 0.0
1.114382 0.097516 0.0
1.120431 0.111187 0.0
1.122053 0.120405 0.0
1.119649 0.125954 0.0
1.113660 0.128636 0.0
1.104542 0.129210 0.0
1.092772 0.128341 0.0
1.078846 0.126527 0.0
1.063307 0.124038 0.0
1.046750 0.120874 0.0
1.029831 0.116767 0.0
1.013246 0.111255 0.0
0.997693 0.103809 0.0
0.983820 0.093992 0.0
0.972158 0.081590 0.0
0.963071 0.066693 0.0
0.956723 0.049727 0.0
0.953153 0.029851 0.0
0.998106 -0.006975 0.0
0.990322 -0.021651 0.0
0.973833 -0.037103 0.0
0.946552 -0.053189 0.0
0.904748 -0.069275 0.0
0.842212 -0.083472 0.0
0.749520 -0.090802 0.0
0.615468 -0.076269 0.0
0.436384 -0.000569 0.0
0.168037 0.150462 0.0
0.000000 0.000000 0.0
-0.000000 -0.000000 0.0
0.000000 0.000000 0.0
-0.059566 -0.059965 0.0
-0.137957 -0.186277 0.0
-0.163343 -0.228900 0.0
-0.177476 -0.212750 0.0
-0.183160 -0.182687 0.0
-0.163186 -0.117069 0.0
-0.110863 -0.009595 0.0
-0.046251 0.101677 0.0
0.006185 0.209123 0.0
0.040006 0.308604 0.0
0.053779 0.395544 0.0
0.050786 0.464550 0.0
0.039723 0.506712 0.0
0.036159 0.505081 0.0
0.053557 0.452003 0.0
0.095147 0.357226 0.0
0.156989 0.231464 0.0
0.231437 0.091995 0.0
0.305932 -0.039448 0.0
0.370649 -0.150044 0.0
0.423659 -0.241014 0.0
0.464357 -0.312957 0.0
0.492509 -0.366893 0.0
0.508929 -0.404164 0.0
0.516242 -0.425744 0.0
0.519548 -0.431165 0.0
0.526140 -0.417888 0.0
0.543562 -0.382377 0.0
0.576586 -0.323013 0.0
0.625218 -0.242750 0.0
0.685258 -0.149097 0.0
0.750249 -0.051950 0.0
0.811100 0.036020 0.0
0.861309 0.108547 0.0
0.899940 0.167218 0.0
0.927095 0.213638 0.0
0.942912 0.249355 0.0
0.947443 0.276163 0.0
0.940682 0.296246 0.0
0.922911 0.311975 0.0
0.895466 0.324943 0.0
0.861629 0.334338 0.0
0.826820 0.335839 0.0
0.797356 0.322865 0.0
0.778212 0.290278 0.0
0.771401 0.237787 0.0
0.776163 0.170142 0.0
0.790326 0.094654 0.0
0.811349 0.018730 0.0
0.836084 -0.049840 0.0
0.861532 -0.106807 0.0
0.885716 -0.151258 0.0
0.907190 -0.183698 0.0
0.924904 -0.205428 0.0
0.938169 -0.218184 0.0
0.946679 -0.223865 0.0
0.950597 -0.224255 0.0
0.950680 -0.220709 0.0
0.948339 -0.213865 0.0
0.945540 -0.203517 0.0
0.944466 -0.188785 0.0
0.947032 -0.168614 0.0