# vtk DataFile Version 3.0
Scalar Field
ASCII
DATASET RECTILINEAR_GRID
DIMENSIONS 100 26 1
X_COORDINATES 100 double
0.050000 0.150000 0.250000 0.350000 0.450000 0.550000 0.650000 0.750000 0.850000 0.950000 1.050000 1.150000 1.250000 1.350000 1.450000 1.550000 1.650000 1.750000 1.850000 1.950000 2.050000 2.150000 2.250000 2.350000 2.450000 2.550000 2.650000 2.750000 2.850000 2.950000 3.050000 3.150000 3.250000 3.350000 3.450000 3.550000 3.650000 3.750000 3.850000 3.950000 4.050000 4.150000 4.250000 4.350000 4.450000 4.550000 4.650000 4.750000 4.850000 4.950000 5.050000 5.150000 5.250000 5.350000 5.450000 5.550000 5.650000 5.750000 5.850000 5.950000 6.050000 6.150000 6.250000 6.350000 6.450000 6.550000 6.650000 6.750000 6.850000 6.950000 7.050000 7.150000 7.250000 7.350000 7.450000 7.550000 7.650000 7.750000 7.850000 7.950000 8.050000 8.150000 8.250000 8.350000 8.450000 8.550000 8.650000 8.750000 8.850000 8.950000 9.050000 9.150000 9.250000 9.350000 9.450000 9.550000 9.650000 9.750000 9.850000 9.950000 
Y_COORDINATES 26 double
0.050000 0.150000 0.250000 0.350000 0.450000 0.550000 0.650000 0.750000 0.850000 0.950000 1.050000 1.150000 1.250000 1.350000 1.450000 1.550000 1.650000 1.750000 1.850000 1.950000 2.050000 2.150000 2.250000 2.350000 2.450000 2.550000 
Z_COORDINATES 1 double
0.0
POINT_DATA 2600
SCALARS Skalarfeld double 1
LOOKUP_TABLE default
0.301398
0.286344
0.271764
0.254601
0.233734
0.208650
0.179228
0.145705
0.108727
0.069372
0.029062
-0.010659
-0.048390
-0.083035
-0.113866
-0.140498
-0.162627
-0.179721
-0.191781
-0.198856
-0.201127
-0.198952
-0.192885
-0.183654
-0.172090
-0.159042
-0.145271
-0.131369
-0.117702
-0.104398
-0.091373
-0.078399
-0.065203
-0.051564
-0.037388
-0.022696
-0.006424
0.009640
0.024134
0.036134
0.045096
0.050840
0.053219
0.053282
0.051090
0.046520
0.039470
0.029864
0.017759
0.003591
-0.011484
-0.025372
-0.035560
-0.040557
-0.041103
-0.038050
-0.033510
-0.027830
-0.021414
-0.014886
-0.008733
-0.003290
0.001246
0.004795
0.007370
0.008986
0.009831
0.009917
0.009259
0.008002
0.006333
0.004480
0.002702
0.001207
0.000052
-0.000957
-0.002248
-0.004359
-0.007729
-0.012511
-0.018519
-0.025301
-0.032316
-0.039126
-0.045520
-0.051512
-0.057243
-0.062867
-0.068492
-0.074148
-0.079852
-0.085691
-0.091657
-0.097936
-0.104826
-0.112572
-0.121313
-0.131054
-0.141484
-0.152894
0.292170
0.285929
0.274343
0.258408
0.237948
0.212720
0.182632
0.147928
0.109336
0.068130
0.026044
-0.015115
-0.053828
-0.089030
-0.120071
-0.146556
-0.168289
-0.185438
-0.197616
-0.204784
-0.207058
-0.204747
-0.198380
-0.188688
-0.176530
-0.162796
-0.148290
-0.133643
-0.119256
-0.105277
-0.091639
-0.078123
-0.064456
-0.050384
-0.035588
-0.019689
-0.003719
0.011595
0.025327
0.036700
0.045210
0.050750
0.053768
0.053676
0.051178
0.046281
0.038923
0.029009
0.016546
0.001927
-0.013602
-0.027679
-0.037544
-0.041733
-0.041031
-0.038355
-0.034288
-0.028563
-0.021976
-0.015327
-0.009077
-0.003551
0.001060
0.004676
0.007324
0.009156
0.010128
0.010142
0.009370
0.008051
0.006353
0.004515
0.002812
0.001467
0.000530
-0.000218
-0.001263
-0.003221
-0.006602
-0.011575
-0.017903
-0.025035
-0.032315
-0.039245
-0.045626
-0.051541
-0.057193
-0.062762
-0.068372
-0.073976
-0.079550
-0.085124
-0.090912
-0.097138
-0.104057
-0.111897
-0.120786
-0.130656
-0.141158
-0.153481
0.294497
0.290625
0.280973
0.266130
0.246029
0.220375
0.188947
0.151892
0.110025
0.065001
0.019288
-0.024703
-0.065244
-0.101387
-0.132779
-0.159385
-0.181284
-0.198545
-0.211165
-0.218710
-0.221158
-0.218674
-0.211695
-0.200938
-0.187303
-0.171756
-0.155191
-0.138337
-0.121691
-0.105502
-0.089802
-0.074466
-0.059289
-0.044046
-0.028514
-0.012719
0.002376
0.016365
0.028605
0.038461
0.045482
0.049554
0.050948
0.049843
0.045896
0.040021
0.032251
0.022522
0.010877
-0.002234
-0.015627
-0.027389
-0.035635
-0.039630
-0.040008
-0.037800
-0.033167
-0.027363
-0.021283
-0.015020
-0.009018
-0.003682
0.000775
0.004239
0.006700
0.008222
0.008882
0.008843
0.008223
0.007160
0.005901
0.004657
0.003591
0.002770
0.002121
0.001397
0.000172
-0.002058
-0.005733
-0.010934
-0.017401
-0.024572
-0.031813
-0.038670
-0.045010
-0.050949
-0.056663
-0.062240
-0.067671
-0.073104
-0.078409
-0.083784
-0.089450
-0.095674
-0.102734
-0.110850
-0.120090
-0.130360
-0.141479
-0.153992
0.304023
0.300940
0.292383
0.278359
0.258472
0.232076
0.198549
0.157717
0.110418
0.058902
0.007257
-0.040970
-0.083855
-0.120863
-0.152260
-0.178607
-0.200400
-0.217846
-0.230984
-0.239092
-0.241832
-0.239093
-0.231170
-0.218767
-0.202876
-0.184591
-0.164954
-0.144836
-0.124877
-0.105479
-0.086828
-0.068954
-0.051793
-0.035240
-0.019212
-0.003732
0.010662
0.023479
0.034152
0.042064
0.046787
0.048261
0.046818
0.043027
0.037258
0.029810
0.021451
0.012194
0.002108
-0.008449
-0.018648
-0.027295
-0.033305
-0.036235
-0.036307
-0.034027
-0.029898
-0.024638
-0.018671
-0.012736
-0.007297
-0.002492
0.001493
0.004483
0.006440
0.007405
0.007522
0.007038
0.006226
0.005340
0.004567
0.003994
0.003617
0.003355
0.003051
0.002429
0.001113
-0.001300
-0.005131
-0.010265
-0.016496
-0.023360
-0.030355
-0.037122
-0.043529
-0.049601
-0.055398
-0.060934
-0.066197
-0.071194
-0.076258
-0.081583
-0.087194
-0.093461
-0.100741
-0.109297
-0.119252
-0.130513
-0.142776
-0.157248
0.319261
0.316598
0.308896
0.295716
0.276167
0.248951
0.212628
0.166221
0.110305
0.047867
-0.013025
-0.066855
-0.111968
-0.148974
-0.179345
-0.204611
-0.225901
-0.243637
-0.257452
-0.266523
-0.269796
-0.266689
-0.257307
-0.242434
-0.223288
-0.201224
-0.177519
-0.153240
-0.129198
-0.105953
-0.083849
-0.063067
-0.043672
-0.025658
-0.008975
0.006436
0.020490
0.032481
0.041752
0.047541
0.049414
0.047445
0.042185
0.034554
0.025707
0.016548
0.007520
-0.001114
-0.009350
-0.017065
-0.023871
-0.029183
-0.032472
-0.033513
-0.032425
-0.029540
-0.025291
-0.020180
-0.014675
-0.009263
-0.004250
0.000048
0.003436
0.005778
0.007047
0.007257
0.006608
0.005451
0.004180
0.003146
0.002496
0.002279
0.002394
0.002629
0.002705
0.002302
0.001087
-0.001247
-0.004843
-0.009835
-0.015921
-0.022538
-0.029270
-0.035803
-0.041996
-0.047833
-0.053347
-0.058570
-0.063545
-0.068353
-0.073160
-0.078090
-0.083592
-0.089974
-0.097559
-0.106661
-0.117529
-0.130202
-0.144493
-0.163923
0.339418
0.337181
0.330542
0.318697
0.300153
0.272628
0.233186
0.179013
0.109461
0.027781
-0.047009
-0.106828
-0.152323
-0.186878
-0.214019
-0.236691
-0.256900
-0.275327
-0.290951
-0.301979
-0.306550
-0.303159
-0.291698
-0.273249
-0.249529
-0.222370
-0.193415
-0.163989
-0.135084
-0.107399
-0.081400
-0.057376
-0.035489
-0.015801
0.001718
0.017199
0.031070
0.042561
0.050756
0.054557
0.053546
0.048027
0.038772
0.026909
0.013878
0.001330
-0.008747
-0.016840
-0.023209
-0.028098
-0.031590
-0.033595
-0.033983
-0.032728
-0.029966
-0.025966
-0.021082
-0.015714
-0.010254
-0.005064
-0.000438
0.003367
0.006145
0.007783
0.008165
0.007388
0.005707
0.003549
0.001468
-0.000026
-0.000946
-0.001152
-0.000759
-0.000061
0.000554
0.000671
-0.000100
-0.002076
-0.005428
-0.010157
-0.015959
-0.022420
-0.029029
-0.035321
-0.041155
-0.046505
-0.051422
-0.055994
-0.060331
-0.064573
-0.068899
-0.073535
-0.078830
-0.085147
-0.092908
-0.102523
-0.114280
-0.128420
-0.145145
-0.170498
0.363696
0.362060
0.357049
0.347578
0.331538
0.305352
0.263591
0.199424
0.107780
-0.010461
-0.104104
-0.166176
-0.206346
-0.233442
-0.253557
-0.271169
-0.289355
-0.309359
-0.329598
-0.345157
-0.352895
-0.349788
-0.335622
-0.312276
-0.282431
-0.248692
-0.213210
-0.177606
-0.143042
-0.110316
-0.079966
-0.052345
-0.027681
-0.006114
0.012296
0.027631
0.040254
0.051280
0.058784
0.060953
0.057548
0.049334
0.037327
0.022622
0.006502
-0.009446
-0.023487
-0.032324
-0.037580
-0.040273
-0.040989
-0.040087
-0.037772
-0.034212
-0.029608
-0.024226
-0.018378
-0.012404
-0.006633
-0.001366
0.003146
0.006682
0.009033
0.010009
0.009475
0.007498
0.004406
0.000771
-0.002745
-0.005538
-0.007031
-0.007359
-0.006679
-0.005400
-0.004030
-0.003085
-0.003035
-0.004247
-0.006941
-0.011136
-0.016607
-0.022934
-0.029420
-0.035531
-0.041044
-0.045883
-0.050107
-0.053855
-0.057314
-0.060702
-0.064266
-0.068293
-0.073134
-0.079193
-0.086926
-0.096794
-0.109215
-0.124580
-0.143326
-0.173169
0.390973
0.390200
0.387641
0.382118
0.371138
0.349859
0.309363
0.234737
0.105571
-0.087986
-0.198261
-0.246789
-0.270030
-0.282636
-0.291102
-0.300494
-0.314821
-0.336491
-0.364821
-0.391691
-0.406151
-0.404744
-0.387544
-0.358179
-0.320960
-0.279558
-0.236700
-0.194286
-0.153600
-0.115496
-0.080544
-0.049129
-0.021539
0.001969
0.021105
0.035609
0.045555
0.052464
0.059299
0.059913
0.054532
0.045132
0.032965
0.018618
0.002681
-0.013817
-0.029326
-0.042066
-0.048596
-0.050601
-0.049855
-0.047095
-0.042835
-0.037445
-0.031243
-0.024542
-0.017666
-0.010938
-0.004668
0.000870
0.005438
0.008803
0.010707
0.010882
0.009149
0.005594
0.000682
-0.004788
-0.009897
-0.013893
-0.016144
-0.016459
-0.015275
-0.013179
-0.010811
-0.008781
-0.007623
-0.007756
-0.009445
-0.012759
-0.017537
-0.023392
-0.029738
-0.035897
-0.041183
-0.045631
-0.049262
-0.052232
-0.054784
-0.057217
-0.059857
-0.063060
-0.067215
-0.072757
-0.080162
-0.089921
-0.102517
-0.118432
-0.138224
-0.170201
0.419643
0.420001
0.420763
0.421010
0.418538
0.408260
0.378374
0.301481
0.108884
-0.257254
-0.341548
-0.335398
-0.328819
-0.323475
-0.318438
-0.317903
-0.326162
-0.346624
-0.381314
-0.425382
-0.455117
-0.458295
-0.438886
-0.403826
-0.359654
-0.311187
-0.261635
-0.213080
-0.166883
-0.123947
-0.084889
-0.050163
-0.020155
0.004682
0.023708
0.036173
0.042124
0.043570
0.042053
0.039784
0.034988
0.028219
0.019786
0.009615
-0.002361
-0.015774
-0.029595
-0.042229
-0.051908
-0.055924
-0.055419
-0.052336
-0.047387
-0.041124
-0.033999
-0.026421
-0.018776
-0.011432
-0.004721
0.001059
0.005634
0.008717
0.009974
0.009063
0.005796
0.000351
-0.006585
-0.013913
-0.020440
-0.025260
-0.027717
-0.027631
-0.025629
-0.022462
-0.018886
-0.015592
-0.013159
-0.012038
-0.012522
-0.014724
-0.018544
-0.023658
-0.029540
-0.035550
-0.040943
-0.045132
-0.048353
-0.050727
-0.052512
-0.054061
-0.055771
-0.058061
-0.061367
-0.066149
-0.072891
-0.082091
-0.094246
-0.109856
-0.129472
-0.161147
0.447606
0.449249
0.453876
0.461242
0.470451
0.478580
0.476347
0.432709
0.208123
-0.576631
-0.509320
-0.388680
-0.360629
-0.346901
-0.334093
-0.328017
-0.332934
-0.350288
-0.383372
-0.430469
-0.477676
-0.492685
-0.473506
-0.435663
-0.387910
-0.335823
-0.282776
-0.230901
-0.181642
-0.136026
-0.094846
-0.058814
-0.028744
-0.005689
0.009318
0.016128
0.016254
0.012662
0.007800
0.004340
0.002449
0.000822
-0.001372
-0.004906
-0.010418
-0.018141
-0.027655
-0.037827
-0.047057
-0.053763
-0.055753
-0.053789
-0.049522
-0.043571
-0.036483
-0.028768
-0.020911
-0.013361
-0.006526
-0.000772
0.003556
0.006087
0.006405
0.004126
-0.000893
-0.008297
-0.017119
-0.025964
-0.033438
-0.038579
-0.040659
-0.039754
-0.036621
-0.032148
-0.027197
-0.022525
-0.018744
-0.016312
-0.015530
-0.016532
-0.019264
-0.023462
-0.028660
-0.034245
-0.039561
-0.043794
-0.046769
-0.048758
-0.049982
-0.050812
-0.051686
-0.053073
-0.055442
-0.059270
-0.065036
-0.073222
-0.084299
-0.098722
-0.116952
-0.146192
0.472489
0.475332
0.483623
0.497960
0.519343
0.549059
0.588005
0.633098
0.718489
0.070929
-0.440677
-0.372033
-0.365983
-0.358986
-0.352299
-0.348573
-0.352276
-0.364709
-0.389758
-0.427575
-0.468106
-0.491933
-0.479147
-0.441961
-0.395359
-0.344768
-0.293158
-0.242517
-0.194357
-0.149920
-0.110339
-0.076809
-0.050709
-0.033383
-0.025331
-0.025227
-0.029815
-0.035326
-0.039109
-0.038525
-0.034947
-0.030034
-0.025131
-0.021386
-0.019762
-0.020895
-0.024885
-0.031131
-0.038390
-0.045085
-0.049756
-0.050418
-0.047902
-0.043339
-0.037262
-0.030251
-0.022883
-0.015710
-0.009235
-0.003920
-0.000204
0.001448
0.000550
-0.003290
-0.010110
-0.019335
-0.029718
-0.039636
-0.047587
-0.052602
-0.053869
-0.051787
-0.047248
-0.041268
-0.034813
-0.028699
-0.023560
-0.019844
-0.017838
-0.017672
-0.019311
-0.022538
-0.026940
-0.031943
-0.036892
-0.041153
-0.044055
-0.045830
-0.046678
-0.046958
-0.047123
-0.047661
-0.049057
-0.051788
-0.056315
-0.063082
-0.072504
-0.084949
-0.100746
-0.125838
0.492077
0.495763
0.506611
0.525755
0.555355
0.599153
0.663633
0.759609
0.892124
0.912340
0.000000
-0.370031
-0.368029
-0.370104
-0.372432
-0.376414
-0.382312
-0.391606
-0.406402
-0.426432
-0.447153
-0.456141
-0.449427
-0.417997
-0.376225
-0.331514
-0.285994
-0.241300
-0.198920
-0.160273
-0.126835
-0.100259
-0.082245
-0.073792
-0.073986
-0.079538
-0.086010
-0.089828
-0.087897
-0.080702
-0.070177
-0.058165
-0.046232
-0.035665
-0.027505
-0.022521
-0.021096
-0.023059
-0.027579
-0.033280
-0.038575
-0.042033
-0.042067
-0.039616
-0.035291
-0.029700
-0.023481
-0.017268
-0.011663
-0.007223
-0.004489
-0.004016
-0.006347
-0.011849
-0.020425
-0.031270
-0.042905
-0.053555
-0.061655
-0.066240
-0.066346
-0.062813
-0.056665
-0.049044
-0.041016
-0.033453
-0.027002
-0.022091
-0.018973
-0.017751
-0.018388
-0.020688
-0.024283
-0.028646
-0.033153
-0.037209
-0.040080
-0.041688
-0.042263
-0.042113
-0.041669
-0.041410
-0.041818
-0.043348
-0.046430
-0.051452
-0.058751
-0.068584
-0.081128
-0.100774
0.504818
0.508814
0.520555
0.541163
0.572626
0.617810
0.680050
0.760817
0.853661
0.932556
0.838540
0.000000
-0.374681
-0.381333
-0.393031
-0.408675
-0.423546
-0.433945
-0.436473
-0.432721
-0.424278
-0.408881
-0.389817
-0.363403
-0.329060
-0.292145
-0.255478
-0.220116
-0.187380
-0.158774
-0.136051
-0.121144
-0.115493
-0.118687
-0.127578
-0.137212
-0.143015
-0.141956
-0.131856
-0.116846
-0.098862
-0.079845
-0.061452
-0.044985
-0.031426
-0.021473
-0.015548
-0.013693
-0.015421
-0.019661
-0.024938
-0.029767
-0.032557
-0.032307
-0.030094
-0.026367
-0.021756
-0.016946
-0.012609
-0.009391
-0.007928
-0.008864
-0.012782
-0.019998
-0.030265
-0.042574
-0.055265
-0.066453
-0.074510
-0.078362
-0.077084
-0.071956
-0.064125
-0.054854
-0.045297
-0.036372
-0.028728
-0.022766
-0.018695
-0.016579
-0.016356
-0.017840
-0.020687
-0.024408
-0.028404
-0.032065
-0.034864
-0.036303
-0.036634
-0.036101
-0.035096
-0.034067
-0.033468
-0.033723
-0.035210
-0.038251
-0.043087
-0.049852
-0.058563
-0.071836
0.510136
0.513910
0.524927
0.543935
0.572147
0.611141
0.661898
0.722347
0.778723
0.792412
0.744523
0.620076
0.000000
-0.398025
-0.414718
-0.453563
-0.483782
-0.497441
-0.482868
-0.448390
-0.405071
-0.360889
-0.320702
-0.283781
-0.254696
-0.225523
-0.198360
-0.173962
-0.153600
-0.138890
-0.131695
-0.133575
-0.144470
-0.161407
-0.178893
-0.191163
-0.194262
-0.184341
-0.166525
-0.143908
-0.118946
-0.093716
-0.069884
-0.048687
-0.030980
-0.017313
-0.008002
-0.003117
-0.002382
-0.005020
-0.009764
-0.015091
-0.019573
-0.021718
-0.021696
-0.019974
-0.017165
-0.013970
-0.011111
-0.009310
-0.009292
-0.011776
-0.017367
-0.026315
-0.038218
-0.051887
-0.065518
-0.077143
-0.085152
-0.087645
-0.085037
-0.078374
-0.068981
-0.058237
-0.047360
-0.037291
-0.028669
-0.021863
-0.017034
-0.014203
-0.013283
-0.014079
-0.016268
-0.019387
-0.022864
-0.026103
-0.028589
-0.029834
-0.029890
-0.028959
-0.027386
-0.025579
-0.023950
-0.022876
-0.022675
-0.023590
-0.025755
-0.029173
-0.033695
-0.039993
0.508443
0.511651
0.520930
0.536643
0.559217
0.588641
0.623509
0.658593
0.680449
0.663476
0.590319
0.495629
0.317124
0.000000
-0.467456
-0.520194
-0.555682
-0.567257
-0.529131
-0.462916
-0.385976
-0.311928
-0.248696
-0.198961
-0.162927
-0.137796
-0.118942
-0.105725
-0.099574
-0.102154
-0.114724
-0.137218
-0.166857
-0.197770
-0.222739
-0.236219
-0.232848
-0.214594
-0.189407
-0.160276
-0.129741
-0.099848
-0.072138
-0.047689
-0.027183
-0.010998
0.000695
0.007877
0.010721
0.009745
0.005932
0.000658
-0.004627
-0.008727
-0.010539
-0.010653
-0.009567
-0.007964
-0.006597
-0.006249
-0.007723
-0.011800
-0.019083
-0.029731
-0.043188
-0.058102
-0.072536
-0.084414
-0.092024
-0.093269
-0.089366
-0.081401
-0.070789
-0.058963
-0.047162
-0.036318
-0.027041
-0.019658
-0.014291
-0.010924
-0.009447
-0.009666
-0.011272
-0.013826
-0.016783
-0.019561
-0.021653
-0.022573
-0.022268
-0.020879
-0.018698
-0.016083
-0.013399
-0.010967
-0.009041
-0.007775
-0.007191
-0.007150
-0.007332
-0.006343
0.500785
0.503189
0.510047
0.521314
0.536684
0.555094
0.573832
0.586950
0.583187
0.544714
0.453353
0.298967
0.138620
-0.317914
-0.626540
-0.567076
-0.604504
-0.595425
-0.539900
-0.454736
-0.357933
-0.264018
-0.183313
-0.120738
-0.076027
-0.045921
-0.033470
-0.029851
-0.038056
-0.059186
-0.092609
-0.135528
-0.182186
-0.224423
-0.253935
-0.265132
-0.252737
-0.228950
-0.198640
-0.165291
-0.131495
-0.099152
-0.069585
-0.043648
-0.021823
-0.004316
0.008840
0.017703
0.022399
0.023229
0.020847
0.016333
0.011026
0.006152
0.002778
0.001167
0.000807
0.001020
0.001035
0.000021
-0.002891
-0.008512
-0.017412
-0.029639
-0.044483
-0.060447
-0.075485
-0.087421
-0.094361
-0.094403
-0.089505
-0.080718
-0.069461
-0.057153
-0.044996
-0.033873
-0.024344
-0.016694
-0.011010
-0.007258
-0.005325
-0.005024
-0.006072
-0.008059
-0.010464
-0.012720
-0.014319
-0.014826
-0.014069
-0.012147
-0.009305
-0.005853
-0.002103
0.001678
0.005307
0.008718
0.012005
0.015456
0.019572
0.027896
0.488647
0.490152
0.494359
0.500935
0.509111
0.517274
0.522304
0.518616
0.497070
0.444070
0.341440
0.163766
-0.143211
-0.774447
-0.686003
-0.588065
-0.580959
-0.554507
-0.494229
-0.409251
-0.313011
-0.218150
-0.134388
-0.067180
-0.017343
0.016992
0.033571
0.032375
0.012544
-0.024431
-0.074650
-0.132473
-0.190003
-0.237969
-0.267989
-0.269578
-0.253214
-0.226491
-0.194171
-0.159708
-0.125529
-0.093284
-0.064037
-0.038418
-0.016735
0.000933
0.014657
0.024576
0.030823
0.033564
0.033142
0.030244
0.025889
0.021162
0.017164
0.014680
0.013311
0.012453
0.011351
0.009148
0.004944
-0.002070
-0.012395
-0.025949
-0.041880
-0.058575
-0.073928
-0.085819
-0.091127
-0.090697
-0.085448
-0.076554
-0.065412
-0.053365
-0.041521
-0.030678
-0.021328
-0.013715
-0.007907
-0.003874
-0.001522
-0.000695
-0.001145
-0.002500
-0.004272
-0.005917
-0.006930
-0.006918
-0.005621
-0.003100
0.000443
0.004744
0.009540
0.014617
0.019857
0.025282
0.031101
0.037755
0.045942
0.061402
0.473688
0.474329
0.476020
0.478284
0.480150
0.479862
0.474446
0.459159
0.426931
0.367840
0.268482
0.110743
-0.129546
-0.438698
-0.510067
-0.506976
-0.494621
-0.465883
-0.415423
-0.346408
-0.267287
-0.187208
-0.113678
-0.051399
-0.002278
0.032729
0.058257
0.058886
0.033689
-0.010737
-0.067869
-0.130300
-0.189088
-0.234898
-0.256246
-0.252590
-0.235122
-0.208924
-0.178172
-0.145914
-0.114235
-0.084485
-0.057491
-0.033716
-0.013369
0.003517
0.017041
0.027373
0.034694
0.039145
0.040897
0.040292
0.037940
0.034591
0.031151
0.028611
0.026786
0.025251
0.023334
0.020194
0.014942
0.006813
-0.004595
-0.019072
-0.035645
-0.052617
-0.067813
-0.078916
-0.083376
-0.082870
-0.077971
-0.069788
-0.059595
-0.048584
-0.037717
-0.027676
-0.018880
-0.011540
-0.005732
-0.001454
0.001342
0.002763
0.003008
0.002401
0.001388
0.000481
0.000167
0.000812
0.002731
0.005897
0.010153
0.015281
0.021060
0.027326
0.034018
0.041232
0.049285
0.058771
0.070599
0.092749
0.457511
0.457394
0.456913
0.455557
0.452355
0.445677
0.432984
0.410562
0.373321
0.314759
0.227234
0.103245
-0.059067
-0.238019
-0.336153
-0.375556
-0.383007
-0.366961
-0.333048
-0.284128
-0.225894
-0.164729
-0.106227
-0.054351
-0.011352
0.022929
0.044934
0.044953
0.022744
-0.017701
-0.069927
-0.125774
-0.175876
-0.210820
-0.222489
-0.218544
-0.203345
-0.181016
-0.154930
-0.127563
-0.100599
-0.075109
-0.051732
-0.030828
-0.012576
0.002964
0.015827
0.026129
0.034032
0.039704
0.043291
0.044977
0.045067
0.043888
0.042673
0.041060
0.039469
0.037781
0.035468
0.031763
0.025843
0.017031
0.005037
-0.009822
-0.026498
-0.043257
-0.057939
-0.067436
-0.072138
-0.072260
-0.068491
-0.061833
-0.053364
-0.044058
-0.034694
-0.025826
-0.017810
-0.010851
-0.005060
-0.000499
0.002819
0.004933
0.005987
0.006257
0.006142
0.006110
0.006611
0.008016
0.010624
0.014454
0.019400
0.025290
0.031947
0.039244
0.047162
0.055853
0.065717
0.077483
0.092283
0.120375
0.441521
0.440779
0.438530
0.434321
0.427302
0.416111
0.398751
0.372508
0.333974
0.279294
0.204838
0.108746
-0.005488
-0.123454
-0.209195
-0.259150
-0.280678
-0.279772
-0.261609
-0.230357
-0.190317
-0.146136
-0.102041
-0.061322
-0.026183
0.002034
0.018093
0.018030
0.001155
-0.029993
-0.070282
-0.112654
-0.149043
-0.171155
-0.179841
-0.177325
-0.166269
-0.149551
-0.129661
-0.108487
-0.087328
-0.066993
-0.047946
-0.030440
-0.014630
-0.000627
0.011492
0.021711
0.030085
0.036721
0.041734
0.045230
0.047552
0.049425
0.050218
0.050140
0.049511
0.048309
0.046146
0.042384
0.036319
0.027397
0.015434
0.000812
-0.015402
-0.031489
-0.044839
-0.054114
-0.059388
-0.060763
-0.058825
-0.054361
-0.048178
-0.040992
-0.033388
-0.025807
-0.018573
-0.011928
-0.006053
-0.001104
0.002835
0.005731
0.007675
0.008905
0.009776
0.010706
0.012117
0.014364
0.017684
0.022158
0.027733
0.034286
0.041679
0.049810
0.058681
0.068467
0.079604
0.092903
0.109688
0.142458
0.426880
0.425630
0.421981
0.415596
0.405818
0.391602
0.371477
0.343570
0.305742
0.255906
0.192659
0.116384
0.030981
-0.054460
-0.124513
-0.173099
-0.200722
-0.210028
-0.204140
-0.186510
-0.160609
-0.129988
-0.097947
-0.067250
-0.040025
-0.018731
-0.006520
-0.005640
-0.016568
-0.037589
-0.064955
-0.093428
-0.117219
-0.132635
-0.139533
-0.138629
-0.131546
-0.120187
-0.106304
-0.091271
-0.076017
-0.061060
-0.046612
-0.032728
-0.019458
-0.006936
0.004622
0.014995
0.024047
0.031751
0.038134
0.043561
0.048085
0.051544
0.053983
0.055511
0.056213
0.055977
0.054464
0.051166
0.045528
0.037120
0.025830
0.012034
-0.003263
-0.018126
-0.030953
-0.040767
-0.047197
-0.050383
-0.050768
-0.048868
-0.045174
-0.040141
-0.034189
-0.027691
-0.020991
-0.014419
-0.008254
-0.002811
0.001821
0.005533
0.008369
0.010553
0.012399
0.014296
0.016604
0.019613
0.023580
0.028616
0.034716
0.041803
0.049767
0.058520
0.068052
0.078514
0.090304
0.104208
0.121593
0.156675
0.414531
0.412841
0.408038
0.399975
0.388221
0.372033
0.350383
0.322042
0.285742
0.240471
0.185940
0.123252
0.055665
-0.010982
-0.068866
-0.113162
-0.142461
-0.157447
-0.159913
-0.152021
-0.136519
-0.116155
-0.093556
-0.071059
-0.050665
-0.034584
-0.024800
-0.022700
-0.028545
-0.041185
-0.058117
-0.075919
-0.091303
-0.101858
-0.106905
-0.106769
-0.102448
-0.095223
-0.086333
-0.076751
-0.067058
-0.057431
-0.047708
-0.037578
-0.026833
-0.015565
-0.004185
0.006773
0.016873
0.025935
0.034012
0.040998
0.046919
0.051804
0.055691
0.058618
0.060568
0.061387
0.060771
0.058310
0.053575
0.046210
0.036112
0.023512
0.009242
-0.005362
-0.018646
-0.029524
-0.037530
-0.042775
-0.045580
-0.046169
-0.044699
-0.041406
-0.036626
-0.030718
-0.024129
-0.017336
-0.010568
-0.004503
0.000797
0.005264
0.008929
0.011933
0.014566
0.017180
0.020119
0.023685
0.028113
0.033539
0.039999
0.047462
0.055836
0.065013
0.074937
0.085673
0.097490
0.110974
0.127248
0.160114
0.405296
0.403114
0.397211
0.387742
0.374509
0.357015
0.334563
0.306369
0.271728
0.230241
0.182142
0.128668
0.072391
0.017235
-0.032159
-0.072284
-0.101416
-0.119369
-0.127032
-0.125822
-0.117709
-0.104833
-0.089301
-0.073065
-0.057882
-0.045462
-0.037218
-0.034071
-0.036192
-0.042842
-0.052435
-0.062895
-0.072319
-0.078813
-0.081869
-0.081678
-0.078950
-0.074641
-0.069681
-0.064759
-0.060163
-0.055713
-0.050789
-0.044523
-0.036221
-0.025821
-0.014039
-0.001931
0.009699
0.020374
0.029935
0.038339
0.045623
0.051827
0.056983
0.061093
0.064104
0.065877
0.066188
0.064737
0.061198
0.055173
0.046342
0.034394
0.020172
0.004932
-0.009675
-0.022118
-0.031714
-0.038685
-0.043435
-0.045942
-0.045968
-0.043599
-0.039316
-0.033398
-0.026304
-0.019201
-0.012306
-0.005638
0.000295
0.005383
0.009663
0.013279
0.016483
0.019585
0.022885
0.026690
0.031261
0.036797
0.043386
0.051058
0.059714
0.069183
0.079306
0.090007
0.101332
0.113496
0.127108
0.151370
0.400096
0.397045
0.389777
0.378931
0.364482
0.346063
0.323170
0.295300
0.262085
0.223463
0.179890
0.132553
0.083498
0.035542
-0.008182
-0.045052
-0.073452
-0.092864
-0.103697
-0.106880
-0.103835
-0.096232
-0.085768
-0.074054
-0.062551
-0.052598
-0.045291
-0.041310
-0.040827
-0.043388
-0.047965
-0.053553
-0.058454
-0.061691
-0.062900
-0.062275
-0.060418
-0.058126
-0.056153
-0.054992
-0.054724
-0.054913
-0.054551
-0.052129
-0.046151
-0.036111
-0.023165
-0.009709
0.003482
0.015818
0.026930
0.036734
0.045276
0.052625
0.058821
0.063858
0.067677
0.070189
0.071309
0.070837
0.068622
0.063511
0.055137
0.043537
0.028701
0.011745
-0.005074
-0.019330
-0.029934
-0.037495
-0.043020
-0.046527
-0.047221
-0.044649
-0.039930
-0.034182
-0.027505
-0.020003
-0.012605
-0.005640
0.000617
0.006070
0.010765
0.014800
0.018355
0.021714
0.025056
0.028734
0.033065
0.038399
0.044857
0.052625
0.061538
0.071276
0.081521
0.092044
0.102679
0.113105
0.123316
0.136789
0.400566
0.395083
0.385702
0.373336
0.357817
0.338696
0.315514
0.287921
0.255735
0.219064
0.178449
0.134986
0.090372
0.046798
0.006636
-0.028027
-0.055691
-0.075780
-0.088523
-0.094431
-0.094631
-0.090473
-0.083360
-0.074643
-0.065562
-0.057184
-0.050346
-0.045652
-0.043347
-0.043180
-0.044756
-0.047000
-0.048990
-0.050078
-0.050036
-0.049069
-0.047718
-0.046675
-0.046567
-0.047759
-0.050211
-0.053411
-0.056308
-0.057138
-0.053409
-0.043114
-0.030081
-0.015176
-0.000264
0.013594
0.025987
0.036859
0.046299
0.054414
0.061262
0.066827
0.071038
0.073847
0.075448
0.075610
0.073361
0.068816
0.061199
0.049761
0.034146
0.015319
-0.003901
-0.019922
-0.030834
-0.037528
-0.041966
-0.044871
-0.045749
-0.044099
-0.039816
-0.033685
-0.026714
-0.019282
-0.011911
-0.004965
0.001323
0.006878
0.011806
0.016108
0.019830
0.023137
0.026413
0.029913
0.033919
0.038683
0.044755
0.052603
0.061849
0.071904
0.082263
0.092486
0.102281
0.111578
0.119971
0.126661
0.411174
0.396860
0.384389
0.370682
0.354375
0.334763
0.311401
0.283970
0.252358
0.216734
0.177651
0.136134
0.093696
0.052239
0.013795
-0.019830
-0.047392
-0.068079
-0.081610
-0.088654
-0.090225
-0.087538
-0.081873
-0.074475
-0.066484
-0.058882
-0.052452
-0.047720
-0.044895
-0.043966
-0.044393
-0.045439
-0.046365
-0.046641
-0.046090
-0.044912
-0.043604
-0.042793
-0.043042
-0.044656
-0.047539
-0.051131
-0.054375
-0.055683
-0.053128
-0.045837
-0.032294
-0.016399
-0.000639
0.013863
0.026739
0.037975
0.047688
0.055998
0.062964
0.068565
0.072704
0.075273
0.076113
0.075449
0.073172
0.068673
0.061260
0.050259
0.035361
0.017312
-0.001547
-0.017946
-0.029679
-0.036938
-0.041294
-0.043836
-0.044398
-0.042626
-0.038549
-0.032708
-0.025892
-0.018646
-0.011437
-0.004622
0.001573
0.007057
0.011815
0.016058
0.019879
0.023376
0.026795
0.030410
0.034504
0.039363
0.045344
0.052666
0.061732
0.071875
0.082263
0.092359
0.101863
0.110635
0.118531
0.125668
