# vtk DataFile Version 3.0
Scalar Field
ASCII
DATASET RECTILINEAR_GRID
DIMENSIONS 100 26 1
X_COORDINATES 100 double
0.050000 0.150000 0.250000 0.350000 0.450000 0.550000 0.650000 0.750000 0.850000 0.950000 1.050000 1.150000 1.250000 1.350000 1.450000 1.550000 1.650000 1.750000 1.850000 1.950000 2.050000 2.150000 2.250000 2.350000 2.450000 2.550000 2.650000 2.750000 2.850000 2.950000 3.050000 3.150000 3.250000 3.350000 3.450000 3.550000 3.650000 3.750000 3.850000 3.950000 4.050000 4.150000 4.250000 4.350000 4.450000 4.550000 4.650000 4.750000 4.850000 4.950000 5.050000 5.150000 5.250000 5.350000 5.450000 5.550000 5.650000 5.750000 5.850000 5.950000 6.050000 6.150000 6.250000 6.350000 6.450000 6.550000 6.650000 6.750000 6.850000 6.950000 7.050000 7.150000 7.250000 7.350000 7.450000 7.550000 7.650000 7.750000 7.850000 7.950000 8.050000 8.150000 8.250000 8.350000 8.450000 8.550000 8.650000 8.750000 8.850000 8.950000 9.050000 9.150000 9.250000 9.350000 9.450000 9.550000 9.650000 9.750000 9.850000 9.950000 
Y_COORDINATES 26 double
0.050000 0.150000 0.250000 0.350000 0.450000 0.550000 0.650000 0.750000 0.850000 0.950000 1.050000 1.150000 1.250000 1.350000 1.450000 1.550000 1.650000 1.750000 1.850000 1.950000 2.050000 2.150000 2.250000 2.350000 2.450000 2.550000 
Z_COORDINATES 1 double
0.0
POINT_DATA 2600
SCALARS Skalarfeld double 1
LOOKUP_TABLE default
0.203164
0.187690
0.171921
0.152877
0.129490
0.101391
0.068700
0.032051
-0.007325
-0.047578
-0.086411
-0.121499
-0.150952
-0.172829
-0.186671
-0.192740
-0.191879
-0.185316
-0.174456
-0.160705
-0.145329
-0.129363
-0.113575
-0.098484
-0.084406
-0.071516
-0.059891
-0.049549
-0.040466
-0.032587
-0.025843
-0.020166
-0.015343
-0.011308
-0.008004
-0.005361
-0.003300
-0.001747
-0.000634
0.000103
0.000519
0.000664
0.000579
0.000301
-0.000137
-0.000709
-0.001393
-0.002170
-0.003023
-0.003940
-0.004909
-0.005921
-0.006968
-0.008044
-0.009145
-0.010265
-0.011402
-0.012552
-0.013713
-0.014882
-0.016059
-0.017242
-0.018430
-0.019621
-0.020816
-0.022014
-0.023213
-0.024415
-0.025618
-0.026821
-0.028026
-0.029232
-0.030438
-0.031645
-0.032852
-0.034060
-0.035269
-0.036479
-0.037689
-0.038901
-0.040114
-0.041329
-0.042546
-0.043766
-0.044990
-0.046218
-0.047453
-0.048696
-0.049949
-0.051215
-0.052499
-0.053806
-0.055144
-0.056524
-0.057962
-0.059483
-0.061126
-0.062959
-0.065105
-0.066308
0.194698
0.188020
0.175202
0.157236
0.134027
0.105456
0.071669
0.033307
-0.008303
-0.051067
-0.092268
-0.129106
-0.159211
-0.181561
-0.195245
-0.200625
-0.198699
-0.190846
-0.178609
-0.163505
-0.146888
-0.129852
-0.113202
-0.097468
-0.082961
-0.069832
-0.058124
-0.047816
-0.038844
-0.031115
-0.024521
-0.018915
-0.014258
-0.010417
-0.007294
-0.004805
-0.002870
-0.001420
-0.000388
0.000286
0.000652
0.000757
0.000643
0.000343
-0.000112
-0.000698
-0.001391
-0.002174
-0.003032
-0.003952
-0.004923
-0.005936
-0.006983
-0.008060
-0.009160
-0.010280
-0.011416
-0.012565
-0.013725
-0.014893
-0.016069
-0.017251
-0.018438
-0.019629
-0.020824
-0.022020
-0.023219
-0.024420
-0.025622
-0.026826
-0.028030
-0.029235
-0.030441
-0.031647
-0.032854
-0.034062
-0.035270
-0.036479
-0.037689
-0.038900
-0.040113
-0.041327
-0.042543
-0.043762
-0.044984
-0.046211
-0.047443
-0.048683
-0.049931
-0.051192
-0.052468
-0.053764
-0.055086
-0.056441
-0.057842
-0.059299
-0.060829
-0.062436
-0.064075
-0.065351
0.198586
0.194235
0.183202
0.166069
0.142800
0.113191
0.077230
0.035445
-0.010726
-0.058735
-0.104915
-0.145625
-0.178200
-0.201403
-0.214588
-0.218341
-0.214014
-0.203299
-0.188005
-0.169879
-0.150453
-0.130962
-0.112307
-0.095069
-0.079559
-0.065882
-0.054002
-0.043798
-0.035112
-0.027767
-0.021593
-0.016431
-0.012158
-0.008672
-0.005868
-0.003654
-0.001951
-0.000692
0.000185
0.000732
0.000997
0.001022
0.000844
0.000493
-0.000002
-0.000618
-0.001335
-0.002137
-0.003009
-0.003939
-0.004918
-0.005937
-0.006988
-0.008068
-0.009170
-0.010291
-0.011427
-0.012576
-0.013736
-0.014905
-0.016080
-0.017262
-0.018448
-0.019638
-0.020832
-0.022028
-0.023226
-0.024426
-0.025628
-0.026831
-0.028035
-0.029239
-0.030444
-0.031650
-0.032857
-0.034064
-0.035271
-0.036480
-0.037689
-0.038899
-0.040110
-0.041323
-0.042537
-0.043754
-0.044973
-0.046196
-0.047424
-0.048658
-0.049899
-0.051149
-0.052411
-0.053688
-0.054983
-0.056300
-0.057643
-0.059013
-0.060404
-0.061790
-0.063099
-0.064340
0.210553
0.206923
0.196779
0.180088
0.156431
0.125188
0.085874
0.038650
-0.015025
-0.071961
-0.126411
-0.173133
-0.208982
-0.232910
-0.244744
-0.245569
-0.237291
-0.222066
-0.202101
-0.179466
-0.155943
-0.132941
-0.111460
-0.092118
-0.075201
-0.060735
-0.048572
-0.038460
-0.030112
-0.023247
-0.017615
-0.013005
-0.009256
-0.006236
-0.003846
-0.001991
-0.000594
0.000409
0.001072
0.001443
0.001564
0.001471
0.001198
0.000771
0.000214
-0.000451
-0.001207
-0.002040
-0.002936
-0.003886
-0.004879
-0.005910
-0.006971
-0.008057
-0.009164
-0.010289
-0.011428
-0.012580
-0.013741
-0.014910
-0.016087
-0.017268
-0.018455
-0.019645
-0.020838
-0.022034
-0.023232
-0.024432
-0.025633
-0.026835
-0.028039
-0.029243
-0.030447
-0.031653
-0.032859
-0.034065
-0.035272
-0.036479
-0.037687
-0.038896
-0.040106
-0.041317
-0.042529
-0.043743
-0.044958
-0.046177
-0.047399
-0.048625
-0.049856
-0.051094
-0.052339
-0.053593
-0.054857
-0.056132
-0.057415
-0.058702
-0.059979
-0.061217
-0.062364
-0.063552
0.229241
0.225952
0.216414
0.200102
0.176014
0.142760
0.098892
0.043630
-0.021885
-0.093918
-0.161612
-0.216823
-0.256235
-0.279806
-0.288447
-0.284251
-0.269814
-0.247888
-0.221215
-0.192303
-0.163252
-0.135654
-0.110582
-0.088635
-0.070010
-0.054600
-0.042094
-0.032079
-0.024116
-0.017800
-0.012789
-0.008814
-0.005668
-0.003204
-0.001309
0.000114
0.001141
0.001831
0.002231
0.002384
0.002324
0.002084
0.001689
0.001163
0.000526
-0.000204
-0.001012
-0.001887
-0.002817
-0.003793
-0.004809
-0.005856
-0.006930
-0.008027
-0.009143
-0.010274
-0.011419
-0.012574
-0.013738
-0.014910
-0.016088
-0.017271
-0.018458
-0.019649
-0.020842
-0.022038
-0.023236
-0.024436
-0.025637
-0.026839
-0.028042
-0.029246
-0.030450
-0.031655
-0.032860
-0.034066
-0.035272
-0.036478
-0.037685
-0.038893
-0.040101
-0.041309
-0.042519
-0.043729
-0.044941
-0.046155
-0.047370
-0.048588
-0.049808
-0.051031
-0.052258
-0.053488
-0.054721
-0.055954
-0.057184
-0.058402
-0.059593
-0.060735
-0.061795
-0.062945
0.254011
0.251070
0.242340
0.226862
0.202898
0.167861
0.118516
0.051897
-0.032315
-0.131253
-0.219807
-0.285599
-0.327248
-0.347421
-0.349730
-0.337491
-0.313877
-0.282330
-0.246288
-0.208840
-0.172474
-0.138977
-0.109444
-0.084373
-0.063779
-0.047336
-0.034503
-0.024653
-0.017167
-0.011499
-0.007207
-0.003955
-0.001496
0.000327
0.001653
0.002582
0.003185
0.003515
0.003613
0.003513
0.003244
0.002831
0.002293
0.001651
0.000919
0.000111
-0.000761
-0.001686
-0.002658
-0.003667
-0.004709
-0.005778
-0.006870
-0.007981
-0.009108
-0.010248
-0.011399
-0.012560
-0.013728
-0.014903
-0.016084
-0.017269
-0.018458
-0.019650
-0.020844
-0.022041
-0.023239
-0.024439
-0.025640
-0.026842
-0.028045
-0.029248
-0.030452
-0.031656
-0.032861
-0.034066
-0.035271
-0.036477
-0.037683
-0.038888
-0.040095
-0.041301
-0.042508
-0.043715
-0.044922
-0.046130
-0.047339
-0.048547
-0.049756
-0.050966
-0.052174
-0.053381
-0.054584
-0.055781
-0.056964
-0.058128
-0.059257
-0.060336
-0.061343
-0.062470
0.284216
0.281816
0.274513
0.260972
0.238648
0.203316
0.148682
0.066921
-0.047681
-0.198201
-0.317185
-0.391535
-0.430051
-0.440773
-0.432668
-0.408689
-0.372152
-0.327315
-0.278561
-0.229748
-0.183857
-0.142876
-0.107858
-0.079091
-0.056287
-0.038783
-0.025714
-0.016170
-0.009310
-0.004426
-0.000970
0.001459
0.003141
0.004240
0.004934
0.005318
0.005456
0.005392
0.005159
0.004782
0.004283
0.003678
0.002983
0.002211
0.001373
0.000478
-0.000464
-0.001448
-0.002466
-0.003514
-0.004587
-0.005682
-0.006794
-0.007921
-0.009061
-0.010212
-0.011371
-0.012539
-0.013713
-0.014892
-0.016076
-0.017264
-0.018455
-0.019648
-0.020844
-0.022041
-0.023240
-0.024441
-0.025642
-0.026844
-0.028047
-0.029250
-0.030454
-0.031658
-0.032862
-0.034066
-0.035271
-0.036475
-0.037680
-0.038884
-0.040088
-0.041293
-0.042496
-0.043700
-0.044903
-0.046105
-0.047307
-0.048507
-0.049705
-0.050900
-0.052092
-0.053277
-0.054455
-0.055619
-0.056766
-0.057887
-0.058972
-0.060009
-0.060983
-0.062095
0.318848
0.317297
0.312377
0.302562
0.284701
0.252838
0.196226
0.097090
-0.069569
-0.324975
-0.475011
-0.540031
-0.563375
-0.558231
-0.537339
-0.498678
-0.445586
-0.383644
-0.318607
-0.255377
-0.197560
-0.147372
-0.105771
-0.072721
-0.047495
-0.028957
-0.015802
-0.006755
-0.000701
0.003249
0.005752
0.007272
0.008059
0.008381
0.008403
0.008212
0.007861
0.007384
0.006803
0.006136
0.005394
0.004589
0.003728
0.002819
0.001868
0.000881
-0.000138
-0.001183
-0.002252
-0.003342
-0.004449
-0.005570
-0.006705
-0.007850
-0.009005
-0.010168
-0.011337
-0.012512
-0.013693
-0.014877
-0.016065
-0.017256
-0.018449
-0.019645
-0.020842
-0.022041
-0.023241
-0.024441
-0.025643
-0.026845
-0.028048
-0.029251
-0.030455
-0.031659
-0.032862
-0.034066
-0.035270
-0.036474
-0.037677
-0.038880
-0.040082
-0.041284
-0.042486
-0.043686
-0.044884
-0.046081
-0.047276
-0.048468
-0.049656
-0.050839
-0.052015
-0.053182
-0.054337
-0.055476
-0.056594
-0.057683
-0.058736
-0.059744
-0.060697
-0.061800
0.356324
0.355964
0.354517
0.350654
0.341346
0.319947
0.271649
0.162988
-0.091663
-0.576715
-0.700365
-0.699904
-0.693766
-0.679439
-0.650647
-0.598292
-0.527682
-0.446928
-0.363702
-0.284219
-0.212901
-0.152306
-0.103332
-0.065588
-0.037822
-0.018317
-0.005226
0.003165
0.008279
0.011197
0.012683
0.013190
0.013026
0.012555
0.011900
0.011133
0.010294
0.009403
0.008475
0.007516
0.006531
0.005524
0.004495
0.003447
0.002382
0.001301
0.000205
-0.000904
-0.002025
-0.003157
-0.004299
-0.005450
-0.006607
-0.007772
-0.008942
-0.010118
-0.011298
-0.012482
-0.013669
-0.014859
-0.016051
-0.017246
-0.018442
-0.019640
-0.020839
-0.022039
-0.023240
-0.024441
-0.025644
-0.026846
-0.028049
-0.029253
-0.030456
-0.031660
-0.032863
-0.034066
-0.035269
-0.036472
-0.037674
-0.038876
-0.040077
-0.041277
-0.042476
-0.043673
-0.044867
-0.046060
-0.047249
-0.048433
-0.049612
-0.050784
-0.051947
-0.053099
-0.054236
-0.055354
-0.056449
-0.057515
-0.058545
-0.059533
-0.060472
-0.061571
0.394438
0.395508
0.398355
0.402346
0.405773
0.404069
0.384448
0.307912
0.008985
-0.996337
-0.936352
-0.782609
-0.746854
-0.753656
-0.735228
-0.678246
-0.596732
-0.502212
-0.404319
-0.310777
-0.227189
-0.156836
-0.100836
-0.058612
-0.028455
-0.008080
0.004910
0.012664
0.016897
0.018859
0.019367
0.018734
0.017720
0.016522
0.015243
0.013940
0.012641
0.011360
0.010100
0.008863
0.007644
0.006442
0.005252
0.004070
0.002894
0.001721
0.000550
-0.000622
-0.001795
-0.002969
-0.004146
-0.005325
-0.006507
-0.007691
-0.008877
-0.010066
-0.011256
-0.012449
-0.013643
-0.014839
-0.016036
-0.017234
-0.018434
-0.019634
-0.020835
-0.022036
-0.023238
-0.024441
-0.025644
-0.026847
-0.028050
-0.029254
-0.030457
-0.031660
-0.032864
-0.034067
-0.035269
-0.036471
-0.037673
-0.038873
-0.040073
-0.041271
-0.042467
-0.043662
-0.044853
-0.046041
-0.047225
-0.048404
-0.049575
-0.050739
-0.051891
-0.053031
-0.054154
-0.055256
-0.056335
-0.057383
-0.058397
-0.059372
-0.060301
-0.061397
0.430542
0.433039
0.440237
0.452475
0.470210
0.493608
0.521058
0.543198
0.596118
-0.200109
-0.847662
-0.758971
-0.738630
-0.746435
-0.751933
-0.704347
-0.625565
-0.529396
-0.426686
-0.326494
-0.235916
-0.159384
-0.098643
-0.053266
-0.021360
-0.000279
0.012773
0.020238
0.023998
0.025343
0.024651
0.023354
0.021747
0.020006
0.018231
0.016481
0.014786
0.013160
0.011605
0.010116
0.008686
0.007306
0.005967
0.004661
0.003383
0.002124
0.000882
-0.000349
-0.001570
-0.002785
-0.003995
-0.005202
-0.006406
-0.007609
-0.008811
-0.010012
-0.011214
-0.012415
-0.013616
-0.014818
-0.016020
-0.017222
-0.018424
-0.019627
-0.020830
-0.022033
-0.023237
-0.024440
-0.025644
-0.026848
-0.028051
-0.029255
-0.030458
-0.031662
-0.032865
-0.034067
-0.035269
-0.036471
-0.037672
-0.038871
-0.040070
-0.041267
-0.042461
-0.043653
-0.044842
-0.046027
-0.047207
-0.048381
-0.049547
-0.050704
-0.051848
-0.052978
-0.054091
-0.055183
-0.056249
-0.057286
-0.058289
-0.059255
-0.060178
-0.061272
0.462005
0.465615
0.476200
0.494825
0.523540
0.565945
0.628411
0.722250
0.856528
0.907824
0.000000
-0.747316
-0.735660
-0.720251
-0.710183
-0.679424
-0.609621
-0.520720
-0.423162
-0.325531
-0.235703
-0.158945
-0.097590
-0.051567
-0.019114
0.002398
0.015905
0.023853
0.027680
0.028243
0.027687
0.026407
0.024684
0.022721
0.020662
0.018608
0.016616
0.014717
0.012919
0.011220
0.009610
0.008077
0.006610
0.005197
0.003828
0.002494
0.001188
-0.000095
-0.001360
-0.002612
-0.003852
-0.005085
-0.006310
-0.007531
-0.008747
-0.009961
-0.011172
-0.012382
-0.013590
-0.014797
-0.016004
-0.017210
-0.018415
-0.019621
-0.020826
-0.022030
-0.023235
-0.024440
-0.025644
-0.026848
-0.028052
-0.029256
-0.030460
-0.031663
-0.032866
-0.034068
-0.035270
-0.036472
-0.037672
-0.038871
-0.040068
-0.041264
-0.042458
-0.043648
-0.044836
-0.046018
-0.047196
-0.048366
-0.049528
-0.050680
-0.051820
-0.052944
-0.054050
-0.055134
-0.056193
-0.057223
-0.058220
-0.059179
-0.060100
-0.061193
0.486772
0.490955
0.503236
0.524822
0.557926
0.605990
0.673594
0.764361
0.868807
0.959120
0.893133
0.000000
-0.711794
-0.687927
-0.650707
-0.606231
-0.554050
-0.477505
-0.393208
-0.306960
-0.226410
-0.156628
-0.099895
-0.056430
-0.024876
-0.003206
0.011564
0.020068
0.024461
0.026886
0.027751
0.027409
0.026199
0.024431
0.022366
0.020192
0.018031
0.015952
0.013981
0.012125
0.010378
0.008726
0.007157
0.005657
0.004213
0.002817
0.001458
0.000130
-0.001173
-0.002456
-0.003724
-0.004978
-0.006223
-0.007459
-0.008689
-0.009913
-0.011134
-0.012351
-0.013565
-0.014778
-0.015989
-0.017198
-0.018407
-0.019614
-0.020821
-0.022028
-0.023234
-0.024439
-0.025644
-0.026849
-0.028054
-0.029258
-0.030462
-0.031665
-0.032868
-0.034070
-0.035272
-0.036473
-0.037673
-0.038872
-0.040069
-0.041264
-0.042457
-0.043647
-0.044833
-0.046015
-0.047191
-0.048360
-0.049520
-0.050670
-0.051806
-0.052928
-0.054030
-0.055111
-0.056167
-0.057193
-0.058187
-0.059144
-0.060063
-0.061156
0.503780
0.507955
0.520145
0.541255
0.572759
0.616439
0.673169
0.741387
0.815245
0.850511
0.827145
0.719778
0.000000
-0.633712
-0.579496
-0.519764
-0.470506
-0.409614
-0.341659
-0.274556
-0.211453
-0.155990
-0.109125
-0.071139
-0.041184
-0.019332
-0.003781
0.007580
0.015926
0.021628
0.024975
0.026347
0.026205
0.025028
0.023233
0.021139
0.018955
0.016803
0.014743
0.012794
0.010959
0.009227
0.007587
0.006024
0.004526
0.003082
0.001682
0.000319
-0.001014
-0.002324
-0.003613
-0.004886
-0.006146
-0.007396
-0.008637
-0.009871
-0.011099
-0.012323
-0.013543
-0.014761
-0.015975
-0.017188
-0.018399
-0.019609
-0.020818
-0.022026
-0.023233
-0.024439
-0.025645
-0.026850
-0.028055
-0.029260
-0.030464
-0.031667
-0.032870
-0.034073
-0.035275
-0.036475
-0.037675
-0.038874
-0.040071
-0.041266
-0.042459
-0.043649
-0.044835
-0.046017
-0.047193
-0.048362
-0.049522
-0.050672
-0.051809
-0.052930
-0.054033
-0.055114
-0.056169
-0.057196
-0.058190
-0.059147
-0.060067
-0.061160
0.513032
0.516733
0.527450
0.545623
0.571803
0.606408
0.649356
0.696871
0.735849
0.739286
0.688810
0.612411
0.452800
0.000000
-0.494122
-0.408748
-0.380810
-0.330534
-0.279739
-0.235692
-0.196495
-0.161527
-0.127983
-0.096481
-0.068249
-0.043746
-0.023775
-0.007460
0.005268
0.014515
0.020544
0.023823
0.024956
0.024577
0.023249
0.021406
0.019341
0.017232
0.015172
0.013201
0.011333
0.009565
0.007887
0.006288
0.004756
0.003281
0.001853
0.000466
-0.000890
-0.002218
-0.003524
-0.004811
-0.006084
-0.007344
-0.008594
-0.009836
-0.011071
-0.012300
-0.013525
-0.014746
-0.015964
-0.017180
-0.018393
-0.019605
-0.020815
-0.022024
-0.023232
-0.024440
-0.025646
-0.026852
-0.028057
-0.029262
-0.030466
-0.031670
-0.032873
-0.034076
-0.035278
-0.036479
-0.037679
-0.038878
-0.040075
-0.041271
-0.042465
-0.043655
-0.044842
-0.046025
-0.047202
-0.048373
-0.049535
-0.050687
-0.051826
-0.052951
-0.054057
-0.055142
-0.056201
-0.057232
-0.058229
-0.059189
-0.060111
-0.061206
0.515395
0.518340
0.526806
0.540895
0.560609
0.585351
0.612929
0.638166
0.650088
0.630821
0.562272
0.433099
0.293189
-0.113958
-0.411577
-0.375341
-0.321733
-0.257792
-0.218441
-0.198084
-0.188913
-0.176478
-0.153999
-0.123065
-0.092175
-0.064040
-0.039824
-0.019733
-0.003848
0.007926
0.015916
0.020672
0.022890
0.023287
0.022500
0.021021
0.019194
0.017233
0.015262
0.013340
0.011495
0.009733
0.008051
0.006443
0.004898
0.003410
0.001968
0.000567
-0.000801
-0.002142
-0.003458
-0.004756
-0.006037
-0.007305
-0.008562
-0.009809
-0.011049
-0.012283
-0.013512
-0.014736
-0.015957
-0.017174
-0.018389
-0.019603
-0.020814
-0.022024
-0.023233
-0.024441
-0.025648
-0.026854
-0.028060
-0.029265
-0.030469
-0.031673
-0.032877
-0.034080
-0.035282
-0.036483
-0.037684
-0.038883
-0.040082
-0.041278
-0.042473
-0.043665
-0.044853
-0.046038
-0.047218
-0.048392
-0.049558
-0.050714
-0.051859
-0.052990
-0.054103
-0.055195
-0.056262
-0.057300
-0.058305
-0.059271
-0.060197
-0.061293
0.512271
0.514373
0.520336
0.529960
0.542706
0.557278
0.570934
0.578506
0.571159
0.535708
0.454892
0.304528
0.035033
-0.521104
-0.447812
-0.351421
-0.284097
-0.222779
-0.185825
-0.185248
-0.196460
-0.189881
-0.165056
-0.134131
-0.102568
-0.073324
-0.047782
-0.026476
-0.009541
0.003153
0.011980
0.017509
0.020430
0.021442
0.021169
0.020101
0.018585
0.016851
0.015039
0.013225
0.011452
0.009736
0.008082
0.006490
0.004954
0.003468
0.002025
0.000621
-0.000751
-0.002096
-0.003418
-0.004721
-0.006007
-0.007279
-0.008540
-0.009792
-0.011035
-0.012272
-0.013503
-0.014729
-0.015952
-0.017171
-0.018388
-0.019602
-0.020815
-0.022025
-0.023235
-0.024443
-0.025651
-0.026857
-0.028063
-0.029268
-0.030473
-0.031677
-0.032881
-0.034084
-0.035287
-0.036489
-0.037690
-0.038890
-0.040089
-0.041287
-0.042483
-0.043677
-0.044868
-0.046056
-0.047240
-0.048418
-0.049590
-0.050754
-0.051906
-0.053046
-0.054170
-0.055273
-0.056353
-0.057403
-0.058418
-0.059394
-0.060326
-0.061425
0.505212
0.506456
0.509920
0.515223
0.521557
0.527380
0.529965
0.524833
0.505174
0.461466
0.381146
0.247471
0.039017
-0.229720
-0.287230
-0.268898
-0.233525
-0.198702
-0.181065
-0.183192
-0.184127
-0.173861
-0.152646
-0.125920
-0.097946
-0.071427
-0.047858
-0.027951
-0.011942
0.000251
0.008945
0.014629
0.017892
0.019335
0.019501
0.018829
0.017644
0.016173
0.014560
0.012894
0.011228
0.009589
0.007990
0.006436
0.004926
0.003458
0.002027
0.000629
-0.000739
-0.002082
-0.003404
-0.004707
-0.005994
-0.007268
-0.008531
-0.009784
-0.011029
-0.012267
-0.013500
-0.014728
-0.015951
-0.017171
-0.018389
-0.019604
-0.020817
-0.022028
-0.023238
-0.024447
-0.025654
-0.026861
-0.028067
-0.029273
-0.030478
-0.031682
-0.032886
-0.034089
-0.035292
-0.036495
-0.037697
-0.038898
-0.040098
-0.041298
-0.042496
-0.043692
-0.044887
-0.046079
-0.047267
-0.048452
-0.049631
-0.050803
-0.051967
-0.053119
-0.054257
-0.055376
-0.056472
-0.057540
-0.058572
-0.059562
-0.060504
-0.061606
0.495801
0.496264
0.497483
0.499016
0.499999
0.498942
0.493461
0.480004
0.453647
0.408119
0.336183
0.230876
0.090693
-0.063536
-0.144534
-0.171096
-0.171200
-0.163035
-0.157976
-0.157071
-0.153279
-0.143680
-0.127441
-0.106896
-0.084743
-0.063099
-0.043356
-0.026306
-0.012303
-0.001389
0.006624
0.012088
0.015443
0.017159
0.017673
0.017352
0.016486
0.015282
0.013885
0.012389
0.010853
0.009313
0.007789
0.006291
0.004822
0.003385
0.001976
0.000595
-0.000762
-0.002097
-0.003413
-0.004713
-0.005998
-0.007271
-0.008533
-0.009786
-0.011031
-0.012269
-0.013502
-0.014730
-0.015954
-0.017175
-0.018392
-0.019608
-0.020821
-0.022032
-0.023242
-0.024451
-0.025659
-0.026866
-0.028072
-0.029277
-0.030482
-0.031687
-0.032891
-0.034095
-0.035299
-0.036502
-0.037704
-0.038907
-0.040109
-0.041310
-0.042510
-0.043710
-0.044908
-0.046104
-0.047299
-0.048491
-0.049679
-0.050862
-0.052038
-0.053206
-0.054362
-0.055502
-0.056621
-0.057712
-0.058768
-0.059778
-0.060734
-0.061843
0.485485
0.485283
0.484614
0.483071
0.479875
0.473746
0.462780
0.444347
0.415115
0.371300
0.309347
0.227408
0.128670
0.026672
-0.046406
-0.088253
-0.108390
-0.116890
-0.120751
-0.121934
-0.119523
-0.112723
-0.101313
-0.086497
-0.069955
-0.053233
-0.037503
-0.023536
-0.011760
-0.002329
0.004815
0.009883
0.013177
0.015040
0.015808
0.015779
0.015197
0.014248
0.013068
0.011751
0.010359
0.008933
0.007498
0.006069
0.004654
0.003256
0.001879
0.000521
-0.000818
-0.002140
-0.003446
-0.004738
-0.006018
-0.007287
-0.008546
-0.009797
-0.011041
-0.012278
-0.013510
-0.014738
-0.015961
-0.017181
-0.018399
-0.019614
-0.020827
-0.022038
-0.023248
-0.024456
-0.025664
-0.026871
-0.028077
-0.029282
-0.030488
-0.031692
-0.032897
-0.034101
-0.035305
-0.036509
-0.037712
-0.038916
-0.040119
-0.041323
-0.042526
-0.043728
-0.044931
-0.046132
-0.047333
-0.048533
-0.049731
-0.050927
-0.052119
-0.053305
-0.054483
-0.055649
-0.056798
-0.057921
-0.059008
-0.060048
-0.061026
-0.062144
0.475498
0.474742
0.472535
0.468573
0.462240
0.452538
0.438041
0.416909
0.387008
0.346221
0.293053
0.227678
0.153540
0.078904
0.017356
-0.026554
-0.055027
-0.072520
-0.082941
-0.088277
-0.089192
-0.085896
-0.078734
-0.068597
-0.056660
-0.044085
-0.031837
-0.020626
-0.010901
-0.002889
0.003370
0.007974
0.011114
0.013029
0.013972
0.014176
0.013840
0.013127
0.012156
0.011019
0.009777
0.008473
0.007136
0.005785
0.004431
0.003082
0.001743
0.000414
-0.000902
-0.002207
-0.003499
-0.004781
-0.006053
-0.007315
-0.008570
-0.009817
-0.011058
-0.012293
-0.013523
-0.014749
-0.015972
-0.017191
-0.018408
-0.019622
-0.020834
-0.022045
-0.023255
-0.024463
-0.025670
-0.026877
-0.028083
-0.029288
-0.030493
-0.031698
-0.032903
-0.034107
-0.035312
-0.036516
-0.037721
-0.038925
-0.040130
-0.041336
-0.042541
-0.043747
-0.044954
-0.046161
-0.047369
-0.048577
-0.049786
-0.050995
-0.052204
-0.053412
-0.054616
-0.055814
-0.057000
-0.058165
-0.059298
-0.060380
-0.061391
-0.062524
0.466870
0.465627
0.462135
0.456263
0.447604
0.435438
0.418751
0.396309
0.366808
0.329149
0.282881
0.228820
0.169756
0.110796
0.058628
0.016907
-0.014101
-0.035993
-0.050737
-0.059800
-0.064037
-0.064019
-0.060370
-0.053905
-0.045564
-0.036281
-0.026870
-0.017969
-0.010020
-0.003282
0.002140
0.006268
0.009208
0.011120
0.012183
0.012575
0.012455
0.011957
0.011187
0.010226
0.009134
0.007956
0.006723
0.005455
0.004168
0.002873
0.001576
0.000281
-0.001010
-0.002293
-0.003570
-0.004839
-0.006100
-0.007355
-0.008603
-0.009845
-0.011082
-0.012314
-0.013541
-0.014765
-0.015986
-0.017204
-0.018419
-0.019633
-0.020844
-0.022054
-0.023263
-0.024470
-0.025677
-0.026883
-0.028089
-0.029294
-0.030499
-0.031704
-0.032909
-0.034113
-0.035318
-0.036523
-0.037729
-0.038934
-0.040141
-0.041348
-0.042556
-0.043766
-0.044976
-0.046189
-0.047404
-0.048621
-0.049841
-0.051064
-0.052292
-0.053523
-0.054756
-0.055991
-0.057223
-0.058443
-0.059637
-0.060783
-0.061847
-0.063003
0.460507
0.458735
0.454028
0.446551
0.436116
0.422236
0.404202
0.381205
0.352476
0.317508
0.276341
0.229911
0.180343
0.130933
0.085509
0.046737
0.015588
-0.008215
-0.025519
-0.037248
-0.044121
-0.046755
-0.045859
-0.042209
-0.036627
-0.029912
-0.022769
-0.015767
-0.009320
-0.003695
0.000973
0.004652
0.007387
0.009274
0.010431
0.010988
0.011065
0.010769
0.010191
0.009402
0.008460
0.007407
0.006278
0.005096
0.003879
0.002639
0.001386
0.000127
-0.001135
-0.002395
-0.003654
-0.004908
-0.006158
-0.007403
-0.008644
-0.009880
-0.011112
-0.012340
-0.013564
-0.014785
-0.016004
-0.017219
-0.018433
-0.019645
-0.020855
-0.022064
-0.023272
-0.024479
-0.025685
-0.026891
-0.028096
-0.029301
-0.030505
-0.031710
-0.032915
-0.034119
-0.035325
-0.036530
-0.037736
-0.038943
-0.040151
-0.041360
-0.042570
-0.043783
-0.044997
-0.046215
-0.047436
-0.048661
-0.049892
-0.051130
-0.052375
-0.053630
-0.054895
-0.056171
-0.057457
-0.058746
-0.060026
-0.061268
-0.062420
-0.063614
0.457405
0.454738
0.448582
0.439575
0.427694
0.412574
0.393685
0.370479
0.342514
0.309608
0.272021
0.230644
0.187105
0.143681
0.102873
0.066673
0.036189
0.011723
-0.006940
-0.020370
-0.029083
-0.033662
-0.034804
-0.033248
-0.029746
-0.025006
-0.019650
-0.014180
-0.008973
-0.004280
-0.000253
0.003043
0.005607
0.007481
0.008733
0.009447
0.009711
0.009608
0.009211
0.008586
0.007787
0.006856
0.005828
0.004729
0.003579
0.002394
0.001186
-0.000037
-0.001270
-0.002508
-0.003747
-0.004986
-0.006224
-0.007459
-0.008692
-0.009921
-0.011147
-0.012370
-0.013591
-0.014808
-0.016024
-0.017237
-0.018449
-0.019659
-0.020868
-0.022076
-0.023282
-0.024488
-0.025693
-0.026898
-0.028103
-0.029307
-0.030512
-0.031716
-0.032920
-0.034125
-0.035331
-0.036536
-0.037743
-0.038951
-0.040160
-0.041370
-0.042582
-0.043797
-0.045015
-0.046237
-0.047464
-0.048697
-0.049937
-0.051187
-0.052450
-0.053727
-0.055023
-0.056342
-0.057687
-0.059059
-0.060453
-0.061844
-0.063157
-0.064405
0.459254
0.454136
0.445816
0.435213
0.422098
0.406063
0.386605
0.363300
0.335902
0.304398
0.269139
0.230937
0.191102
0.151345
0.113510
0.079187
0.049458
0.024868
0.005619
-0.008852
-0.018741
-0.024624
-0.027169
-0.027079
-0.025054
-0.021736
-0.017683
-0.013340
-0.009047
-0.005041
-0.001477
0.001554
0.004014
0.005905
0.007255
0.008114
0.008542
0.008604
0.008363
0.007877
0.007199
0.006370
0.005427
0.004399
0.003307
0.002170
0.001001
-0.000192
-0.001399
-0.002615
-0.003838
-0.005063
-0.006289
-0.007515
-0.008739
-0.009962
-0.011182
-0.012401
-0.013617
-0.014832
-0.016045
-0.017256
-0.018465
-0.019673
-0.020881
-0.022087
-0.023292
-0.024497
-0.025702
-0.026906
-0.028110
-0.029313
-0.030517
-0.031721
-0.032926
-0.034130
-0.035336
-0.036542
-0.037749
-0.038957
-0.040166
-0.041378
-0.042592
-0.043809
-0.045029
-0.046254
-0.047485
-0.048724
-0.049972
-0.051232
-0.052508
-0.053805
-0.055128
-0.056485
-0.057887
-0.059348
-0.060880
-0.062491
-0.064134
-0.065417
0.470550
0.456600
0.445180
0.433194
0.419289
0.402652
0.382812
0.359447
0.332363
0.301615
0.267573
0.230988
0.192999
0.155051
0.118700
0.085353
0.056040
0.031315
0.011254
-0.003760
-0.014225
-0.020728
-0.023923
-0.024497
-0.023124
-0.020423
-0.016926
-0.013062
-0.009157
-0.005443
-0.002080
0.000835
0.003248
0.005146
0.006540
0.007465
0.007971
0.008112
0.007946
0.007529
0.006910
0.006133
0.005233
0.004239
0.003177
0.002063
0.000912
-0.000264
-0.001459
-0.002666
-0.003880
-0.005098
-0.006319
-0.007540
-0.008761
-0.009980
-0.011199
-0.012415
-0.013630
-0.014842
-0.016054
-0.017264
-0.018472
-0.019680
-0.020886
-0.022092
-0.023297
-0.024501
-0.025705
-0.026909
-0.028113
-0.029316
-0.030520
-0.031724
-0.032928
-0.034133
-0.035338
-0.036544
-0.037751
-0.038959
-0.040169
-0.041382
-0.042597
-0.043815
-0.045037
-0.046264
-0.047497
-0.048739
-0.049991
-0.051257
-0.052541
-0.053849
-0.055188
-0.056569
-0.058009
-0.059532
-0.061178
-0.063016
-0.065166
-0.066374
