# vtk DataFile Version 3.0
Vector Field
ASCII
DATASET RECTILINEAR_GRID
DIMENSIONS 100 26 1
X_COORDINATES 100 double
0.050000 0.150000 0.250000 0.350000 0.450000 0.550000 0.650000 0.750000 0.850000 0.950000 1.050000 1.150000 1.250000 1.350000 1.450000 1.550000 1.650000 1.750000 1.850000 1.950000 2.050000 2.150000 2.250000 2.350000 2.450000 2.550000 2.650000 2.750000 2.850000 2.950000 3.050000 3.150000 3.250000 3.350000 3.450000 3.550000 3.650000 3.750000 3.850000 3.950000 4.050000 4.150000 4.250000 4.350000 4.450000 4.550000 4.650000 4.750000 4.850000 4.950000 5.050000 5.150000 5.250000 5.350000 5.450000 5.550000 5.650000 5.750000 5.850000 5.950000 6.050000 6.150000 6.250000 6.350000 6.450000 6.550000 6.650000 6.750000 6.850000 6.950000 7.050000 7.150000 7.250000 7.350000 7.450000 7.550000 7.650000 7.750000 7.850000 7.950000 8.050000 8.150000 8.250000 8.350000 8.450000 8.550000 8.650000 8.750000 8.850000 8.950000 9.050000 9.150000 9.250000 9.350000 9.450000 9.550000 9.650000 9.750000 9.850000 9.950000 
Y_COORDINATES 26 double
0.050000 0.150000 0.250000 0.350000 0.450000 0.550000 0.650000 0.750000 0.850000 0.950000 1.050000 1.150000 1.250000 1.350000 1.450000 1.550000 1.650000 1.750000 1.850000 1.950000 2.050000 2.150000 2.250000 2.350000 2.450000 2.550000 
Z_COORDINATES 1 double
0.0
POINT_DATA 2600
VECTORS Vektorfeld double
0.997769 0.002231 0.0
0.993381 0.002157 0.0
0.990676 0.000548 0.0
0.991804 -0.001676 0.0
0.997575 -0.004095 0.0
1.008093 -0.006423 0.0
1.022903 -0.008387 0.0
1.041002 -0.009712 0.0
1.060873 -0.010159 0.0
1.080625 -0.009593 0.0
1.098267 -0.008049 0.0
1.112043 -0.005727 0.0
1.120698 -0.002928 0.0
1.123653 -0.000027 0.0
1.120969 0.002711 0.0
1.113060 0.005197 0.0
1.100562 0.007301 0.0
1.084339 0.008922 0.0
1.065423 0.009994 0.0
1.044940 0.010489 0.0
1.024040 0.010411 0.0
1.003818 0.009811 0.0
0.985220 0.008787 0.0
0.968943 0.007490 0.0
0.955326 0.006127 0.0
0.944251 0.004948 0.0
0.935073 0.004230 0.0
0.926615 0.004227 0.0
0.917284 0.005104 0.0
0.905293 0.006887 0.0
0.888958 0.009448 0.0
0.866967 0.012544 0.0
0.838547 0.015876 0.0
0.803529 0.019141 0.0
0.762328 0.022059 0.0
0.715874 0.024395 0.0
0.665523 0.025956 0.0
0.612972 0.026595 0.0
0.560171 0.026206 0.0
0.509241 0.024725 0.0
0.462433 0.022083 0.0
0.422309 0.018042 0.0
0.392152 0.012115 0.0
0.375728 0.004310 0.0
0.374258 -0.002840 0.0
0.383854 -0.006755 0.0
0.399128 -0.008519 0.0
0.416627 -0.008979 0.0
0.434268 -0.008662 0.0
0.450797 -0.007867 0.0
0.465430 -0.006765 0.0
0.477653 -0.005457 0.0
0.487140 -0.004030 0.0
0.493762 -0.002591 0.0
0.497605 -0.001252 0.0
0.498793 0.000064 0.0
0.496778 0.001952 0.0
0.490368 0.004458 0.0
0.478625 0.007285 0.0
0.461270 0.010069 0.0
0.438966 0.012234 0.0
0.413625 0.013106 0.0
0.388250 0.012269 0.0
0.365987 0.009994 0.0
0.348775 0.007218 0.0
0.336612 0.004944 0.0
0.328086 0.003582 0.0
0.321646 0.002857 0.0
0.316543 0.002246 0.0
0.312842 0.001454 0.0
0.310834 0.000554 0.0
0.310484 -0.000205 0.0
0.311385 -0.000696 0.0
0.312988 -0.000907 0.0
0.314832 -0.000936 0.0
0.316584 -0.000816 0.0
0.317964 -0.000565 0.0
0.318728 -0.000199 0.0
0.318549 0.000378 0.0
0.317032 0.001139 0.0
0.314036 0.001857 0.0
0.309882 0.002296 0.0
0.305261 0.002326 0.0
0.301017 0.001918 0.0
0.297884 0.001216 0.0
0.296130 0.000538 0.0
0.295436 0.000155 0.0
0.295218 0.000063 0.0
0.295062 0.000093 0.0
0.294835 0.000134 0.0
0.294543 0.000157 0.0
0.294230 0.000156 0.0
0.293966 0.000108 0.0
0.293876 -0.000019 0.0
0.294124 -0.000229 0.0
0.294857 -0.000505 0.0
0.296223 -0.000860 0.0
0.298366 -0.001283 0.0
0.301236 -0.001588 0.0
0.304585 -0.001761 0.0
1.003065 0.001397 0.0
1.011976 -0.001532 0.0
1.025876 -0.006958 0.0
1.044112 -0.013534 0.0
1.066569 -0.020465 0.0
1.093074 -0.027075 0.0
1.123165 -0.032635 0.0
1.155960 -0.036358 0.0
1.190097 -0.037523 0.0
1.223804 -0.035688 0.0
1.255182 -0.030973 0.0
1.282607 -0.024003 0.0
1.304951 -0.015652 0.0
1.321536 -0.006842 0.0
1.332064 0.001682 0.0
1.336770 0.009429 0.0
1.336342 0.015996 0.0
1.331711 0.021080 0.0
1.323976 0.024487 0.0
1.314336 0.026120 0.0
1.304018 0.025998 0.0
1.294190 0.024274 0.0
1.285866 0.021246 0.0
1.279803 0.017371 0.0
1.276396 0.013270 0.0
1.275567 0.009709 0.0
1.276676 0.007538 0.0
1.278505 0.007547 0.0
1.279353 0.010267 0.0
1.277289 0.015780 0.0
1.270491 0.023687 0.0
1.257557 0.033230 0.0
1.237672 0.043496 0.0
1.210650 0.053561 0.0
1.176897 0.062592 0.0
1.137326 0.069887 0.0
1.093263 0.074878 0.0
1.046363 0.077126 0.0
0.998535 0.076304 0.0
0.951905 0.072186 0.0
0.908766 0.064567 0.0
0.871318 0.053131 0.0
0.840761 0.037740 0.0
0.816129 0.019741 0.0
0.796310 0.003016 0.0
0.783470 -0.009367 0.0
0.779424 -0.017137 0.0
0.783016 -0.021452 0.0
0.792618 -0.023432 0.0
0.806858 -0.023866 0.0
0.824696 -0.023237 0.0
0.845266 -0.021778 0.0
0.867612 -0.019543 0.0
0.890389 -0.016477 0.0
0.911621 -0.012441 0.0
0.928874 -0.007188 0.0
0.940549 -0.000456 0.0
0.946364 0.007460 0.0
0.946340 0.016052 0.0
0.940561 0.024436 0.0
0.929415 0.031318 0.0
0.913342 0.035435 0.0
0.892536 0.036122 0.0
0.867018 0.033923 0.0
0.837171 0.030349 0.0
0.804342 0.026805 0.0
0.770956 0.023634 0.0
0.740042 0.020160 0.0
0.714499 0.015589 0.0
0.696419 0.009892 0.0
0.686575 0.003970 0.0
0.684180 -0.000877 0.0
0.687163 -0.003907 0.0
0.693412 -0.005547 0.0
0.701638 -0.006367 0.0
0.710931 -0.006430 0.0
0.720315 -0.005715 0.0
0.728795 -0.004292 0.0
0.735726 -0.002280 0.0
0.741097 -0.000057 0.0
0.745261 0.001886 0.0
0.748437 0.003244 0.0
0.750619 0.003817 0.0
0.751695 0.003595 0.0
0.751463 0.002904 0.0
0.749795 0.002271 0.0
0.746900 0.002011 0.0
0.743280 0.002044 0.0
0.739396 0.002153 0.0
0.735466 0.002232 0.0
0.731543 0.002274 0.0
0.727616 0.002281 0.0
0.723660 0.002203 0.0
0.719696 0.001940 0.0
0.715895 0.001366 0.0
0.712750 0.000312 0.0
0.711000 -0.001293 0.0
0.711134 -0.003127 0.0
0.713287 -0.004767 0.0
0.716656 -0.005300 0.0
1.001977 -0.003645 0.0
1.009069 -0.012493 0.0
1.022017 -0.022844 0.0
1.040273 -0.034140 0.0
1.063679 -0.045722 0.0
1.092103 -0.056748 0.0
1.125162 -0.066113 0.0
1.161961 -0.072474 0.0
1.200903 -0.074486 0.0
1.239632 -0.071161 0.0
1.275517 -0.062764 0.0
1.306455 -0.050575 0.0
1.331229 -0.036199 0.0
1.349439 -0.021089 0.0
1.361274 -0.006435 0.0
1.367286 0.006829 0.0
1.368253 0.018058 0.0
1.365121 0.026780 0.0
1.358963 0.032680 0.0
1.350932 0.035597 0.0
1.342221 0.035550 0.0
1.334006 0.032766 0.0
1.327380 0.027704 0.0
1.323292 0.021065 0.0
1.322453 0.013821 0.0
1.325216 0.007224 0.0
1.331395 0.002734 0.0
1.340094 0.001823 0.0
1.349693 0.005544 0.0
1.358106 0.014155 0.0
1.363239 0.026977 0.0
1.363424 0.042688 0.0
1.357618 0.059730 0.0
1.345398 0.076569 0.0
1.326889 0.091847 0.0
1.302654 0.104439 0.0
1.273590 0.113452 0.0
1.240848 0.118194 0.0
1.205755 0.118156 0.0
1.169730 0.112989 0.0
1.134131 0.102503 0.0
1.099960 0.086815 0.0
1.067643 0.066930 0.0
1.037440 0.045386 0.0
1.009778 0.024851 0.0
0.984843 0.006573 0.0
0.963965 -0.008152 0.0
0.949072 -0.019136 0.0
0.940655 -0.026934 0.0
0.938470 -0.032419 0.0
0.942146 -0.036197 0.0
0.951263 -0.038506 0.0
0.965342 -0.039240 0.0
0.983817 -0.038031 0.0
1.006044 -0.034345 0.0
1.031225 -0.027719 0.0
1.057916 -0.018293 0.0
1.083907 -0.006510 0.0
1.107069 0.006884 0.0
1.125879 0.020573 0.0
1.139217 0.032990 0.0
1.146025 0.043028 0.0
1.145329 0.050031 0.0
1.136656 0.054205 0.0
1.120391 0.056178 0.0
1.097872 0.056324 0.0
1.071003 0.054369 0.0
1.041644 0.049699 0.0
1.011110 0.042126 0.0
0.980119 0.032427 0.0
0.949329 0.022070 0.0
0.920387 0.012360 0.0
0.896428 0.003833 0.0
0.880325 -0.003433 0.0
0.872426 -0.008809 0.0
0.871079 -0.011933 0.0
0.874543 -0.013060 0.0
0.881618 -0.012503 0.0
0.891257 -0.010639 0.0
0.902239 -0.008053 0.0
0.913249 -0.005292 0.0
0.923255 -0.002760 0.0
0.931685 -0.000790 0.0
0.938295 0.000515 0.0
0.943185 0.001327 0.0
0.946814 0.001886 0.0
0.949840 0.002266 0.0
0.952843 0.002406 0.0
0.956204 0.002315 0.0
0.960122 0.002082 0.0
0.964644 0.001824 0.0
0.969675 0.001627 0.0
0.974989 0.001500 0.0
0.980232 0.001364 0.0
0.984920 0.001053 0.0
0.988356 0.000336 0.0
0.989687 -0.000898 0.0
0.988567 -0.002537 0.0
0.985684 -0.004627 0.0
0.984900 -0.008025 0.0
1.001602 -0.007224 0.0
1.007821 -0.022226 0.0
1.019949 -0.038187 0.0
1.037902 -0.055007 0.0
1.061848 -0.072206 0.0
1.092013 -0.088852 0.0
1.128380 -0.103434 0.0
1.170245 -0.113817 0.0
1.215803 -0.117643 0.0
1.261561 -0.112491 0.0
1.303294 -0.099051 0.0
1.338050 -0.079982 0.0
1.364597 -0.058112 0.0
1.382898 -0.035688 0.0
1.393574 -0.014348 0.0
1.397565 0.004738 0.0
1.395966 0.020780 0.0
1.389947 0.033208 0.0
1.380748 0.041610 0.0
1.369685 0.045760 0.0
1.358126 0.045656 0.0
1.347440 0.041562 0.0
1.338945 0.034029 0.0
1.333857 0.023917 0.0
1.333243 0.012423 0.0
1.337895 0.001209 0.0
1.347903 -0.007437 0.0
1.362216 -0.011018 0.0
1.378630 -0.007628 0.0
1.394297 0.003246 0.0
1.406552 0.020498 0.0
1.413536 0.041998 0.0
1.414346 0.065417 0.0
1.408849 0.088598 0.0
1.397432 0.109743 0.0
1.380764 0.127445 0.0
1.359636 0.140637 0.0
1.334863 0.148524 0.0
1.307239 0.150545 0.0
1.277490 0.146374 0.0
1.246210 0.135996 0.0
1.213792 0.119909 0.0
1.180515 0.099430 0.0
1.146874 0.076730 0.0
1.113879 0.054164 0.0
1.082806 0.033267 0.0
1.054457 0.014381 0.0
1.029705 -0.002023 0.0
1.009948 -0.015872 0.0
0.996035 -0.027384 0.0
0.988095 -0.036968 0.0
0.985996 -0.044753 0.0
0.989504 -0.050581 0.0
0.998453 -0.054115 0.0
1.012898 -0.054932 0.0
1.033164 -0.052578 0.0
1.059636 -0.046598 0.0
1.092194 -0.036753 0.0
1.129420 -0.023260 0.0
1.168184 -0.006856 0.0
1.204133 0.011131 0.0
1.233467 0.028745 0.0
1.254215 0.044261 0.0
1.265622 0.057242 0.0
1.267672 0.067356 0.0
1.261091 0.074247 0.0
1.247011 0.077396 0.0
1.226625 0.076417 0.0
1.201085 0.071482 0.0
1.171701 0.063447 0.0
1.140147 0.053393 0.0
1.108141 0.041984 0.0
1.076727 0.029581 0.0
1.046476 0.017173 0.0
1.018918 0.006042 0.0
0.996621 -0.003139 0.0
0.981210 -0.009907 0.0
0.972388 -0.013908 0.0
0.968834 -0.015319 0.0
0.969093 -0.014616 0.0
0.971725 -0.012371 0.0
0.975340 -0.009303 0.0
0.978771 -0.006108 0.0
0.981307 -0.003312 0.0
0.982828 -0.001257 0.0
0.983812 -0.000143 0.0
0.985161 -0.000080 0.0
0.987948 -0.001037 0.0
0.993147 -0.002802 0.0
1.001471 -0.005044 0.0
1.013252 -0.007352 0.0
1.028339 -0.009315 0.0
1.046079 -0.010613 0.0
1.065376 -0.011064 0.0
1.084804 -0.010636 0.0
1.102819 -0.009425 0.0
1.118071 -0.007721 0.0
1.129705 -0.006227 0.0
1.137581 -0.005929 0.0
1.143586 -0.011944 0.0
1.001417 -0.010243 0.0
1.007072 -0.031080 0.0
1.018465 -0.052853 0.0
1.035956 -0.075786 0.0
1.060230 -0.099648 0.0
1.092185 -0.123530 0.0
1.132600 -0.145537 0.0
1.181421 -0.162401 0.0
1.237109 -0.170305 0.0
1.293838 -0.162316 0.0
1.343792 -0.140911 0.0
1.382912 -0.111999 0.0
1.410634 -0.080364 0.0
1.427926 -0.049030 0.0
1.436161 -0.019916 0.0
1.436780 0.005696 0.0
1.431156 0.027046 0.0
1.420608 0.043509 0.0
1.406549 0.054568 0.0
1.390512 0.059902 0.0
1.374124 0.059462 0.0
1.359042 0.053524 0.0
1.346883 0.042720 0.0
1.339171 0.028024 0.0
1.337370 0.010730 0.0
1.342784 -0.007165 0.0
1.355992 -0.022281 0.0
1.376083 -0.030578 0.0
1.400261 -0.028660 0.0
1.424185 -0.015314 0.0
1.443398 0.007590 0.0
1.455206 0.036114 0.0
1.458970 0.066728 0.0
1.455201 0.096553 0.0
1.444965 0.123441 0.0
1.429468 0.145912 0.0
1.409790 0.162977 0.0
1.386771 0.173975 0.0
1.361003 0.178487 0.0
1.332854 0.176330 0.0
1.302523 0.167651 0.0
1.270127 0.153069 0.0
1.235863 0.133811 0.0
1.200241 0.111611 0.0
1.164215 0.088305 0.0
1.129066 0.065348 0.0
1.096114 0.043601 0.0
1.066333 0.023289 0.0
1.040327 0.004579 0.0
1.018652 -0.012247 0.0
1.001499 -0.027012 0.0
0.988581 -0.039692 0.0
0.979703 -0.050273 0.0
0.975159 -0.058827 0.0
0.975910 -0.065415 0.0
0.983512 -0.069962 0.0
0.999724 -0.071898 0.0
1.025847 -0.070134 0.0
1.062165 -0.063422 0.0
1.107585 -0.050879 0.0
1.159272 -0.032484 0.0
1.211924 -0.009625 0.0
1.258428 0.015378 0.0
1.293867 0.039280 0.0
1.317343 0.059791 0.0
1.329572 0.076163 0.0
1.331472 0.087660 0.0
1.324116 0.093894 0.0
1.308694 0.094967 0.0
1.286594 0.091445 0.0
1.259413 0.084129 0.0
1.228814 0.073855 0.0
1.196393 0.061545 0.0
1.163689 0.048164 0.0
1.131936 0.034360 0.0
1.101854 0.020922 0.0
1.074233 0.009062 0.0
1.050381 -0.000203 0.0
1.031254 -0.006342 0.0
1.016566 -0.009163 0.0
1.005063 -0.008953 0.0
0.995214 -0.006486 0.0
0.985706 -0.002847 0.0
0.975838 0.000760 0.0
0.965742 0.003244 0.0
0.956296 0.003819 0.0
0.948810 0.002094 0.0
0.944715 -0.001903 0.0
0.945304 -0.007724 0.0
0.951434 -0.014577 0.0
0.963342 -0.021509 0.0
0.980700 -0.027602 0.0
1.002750 -0.032117 0.0
1.028445 -0.034552 0.0
1.056528 -0.034659 0.0
1.085584 -0.032471 0.0
1.114057 -0.028401 0.0
1.140277 -0.023400 0.0
1.162550 -0.018907 0.0
1.178757 -0.021177 0.0
1.001231 -0.012890 0.0
1.006207 -0.039064 0.0
1.016463 -0.066518 0.0
1.032756 -0.095905 0.0
1.056404 -0.127451 0.0
1.089306 -0.160583 0.0
1.133711 -0.193305 0.0
1.191202 -0.220946 0.0
1.262421 -0.238666 0.0
1.335883 -0.224148 0.0
1.395269 -0.188420 0.0
1.436678 -0.145019 0.0
1.462641 -0.101028 0.0
1.476373 -0.059390 0.0
1.480248 -0.021666 0.0
1.475998 0.011077 0.0
1.464958 0.038329 0.0
1.448401 0.059330 0.0
1.427836 0.073372 0.0
1.404998 0.079973 0.0
1.381786 0.078990 0.0
1.360170 0.070695 0.0
1.342067 0.055812 0.0
1.329227 0.035484 0.0
1.323206 0.011092 0.0
1.325731 -0.015465 0.0
1.338378 -0.039836 0.0
1.361201 -0.055935 0.0
1.391883 -0.058163 0.0
1.425618 -0.043470 0.0
1.455568 -0.013416 0.0
1.475758 0.025122 0.0
1.484459 0.065255 0.0
1.483081 0.103172 0.0
1.473666 0.136472 0.0
1.458193 0.163851 0.0
1.438236 0.184674 0.0
1.414878 0.198655 0.0
1.388760 0.205693 0.0
1.360189 0.205844 0.0
1.329264 0.199392 0.0
1.296029 0.186959 0.0
1.260651 0.169564 0.0
1.223589 0.148542 0.0
1.185680 0.125309 0.0
1.148069 0.101104 0.0
1.112004 0.076862 0.0
1.078521 0.053292 0.0
1.048064 0.031040 0.0
1.020224 0.010806 0.0
0.994022 -0.006711 0.0
0.968554 -0.021606 0.0
0.943837 -0.034765 0.0
0.921524 -0.047479 0.0
0.904649 -0.060640 0.0
0.896765 -0.074456 0.0
0.900818 -0.087669 0.0
0.918245 -0.097913 0.0
0.948932 -0.102648 0.0
0.991686 -0.099826 0.0
1.044604 -0.088143 0.0
1.105153 -0.067167 0.0
1.169567 -0.038001 0.0
1.231022 -0.004234 0.0
1.281395 0.029456 0.0
1.317197 0.058468 0.0
1.339274 0.081379 0.0
1.349025 0.097780 0.0
1.347870 0.107658 0.0
1.337327 0.111397 0.0
1.319020 0.109664 0.0
1.294627 0.103311 0.0
1.265823 0.093314 0.0
1.234221 0.080702 0.0
1.201297 0.066500 0.0
1.168358 0.051805 0.0
1.136467 0.037692 0.0
1.106226 0.025260 0.0
1.077754 0.015794 0.0
1.050866 0.010276 0.0
1.025119 0.008857 0.0
0.999952 0.010720 0.0
0.975141 0.014266 0.0
0.951148 0.017508 0.0
0.929115 0.018625 0.0
0.910584 0.016416 0.0
0.897099 0.010468 0.0
0.889832 0.001086 0.0
0.889407 -0.010877 0.0
0.895864 -0.024011 0.0
0.908687 -0.036806 0.0
0.927015 -0.047990 0.0
0.949866 -0.056630 0.0
0.976244 -0.062112 0.0
1.005160 -0.064098 0.0
1.035592 -0.062519 0.0
1.066403 -0.057639 0.0
1.096215 -0.050192 0.0
1.123280 -0.041453 0.0
1.143831 -0.035388 0.0
1.000958 -0.015079 0.0
1.004868 -0.045761 0.0
1.013106 -0.078314 0.0
1.026716 -0.114012 0.0
1.047623 -0.153899 0.0
1.078959 -0.198372 0.0
1.125306 -0.246269 0.0
1.191774 -0.291940 0.0
1.286737 -0.333854 0.0
1.383278 -0.298964 0.0
1.446407 -0.236118 0.0
1.480638 -0.172960 0.0
1.497306 -0.115719 0.0
1.503044 -0.064169 0.0
1.500508 -0.018226 0.0
1.490437 0.021956 0.0
1.473178 0.055749 0.0
1.449648 0.081997 0.0
1.421293 0.099626 0.0
1.389971 0.107879 0.0
1.357814 0.106452 0.0
1.327068 0.095595 0.0
1.299907 0.076176 0.0
1.278182 0.049685 0.0
1.263064 0.018030 0.0
1.255642 -0.017504 0.0
1.258443 -0.053245 0.0
1.273890 -0.080796 0.0
1.302325 -0.092421 0.0
1.341666 -0.082288 0.0
1.385776 -0.048656 0.0
1.423722 0.002226 0.0
1.447275 0.055899 0.0
1.456612 0.104568 0.0
1.455184 0.145918 0.0
1.445863 0.179200 0.0
1.430709 0.204436 0.0
1.411054 0.221906 0.0
1.387681 0.231932 0.0
1.361010 0.234847 0.0
1.331259 0.231066 0.0
1.298593 0.221186 0.0
1.263279 0.206030 0.0
1.225807 0.186609 0.0
1.186963 0.163995 0.0
1.147779 0.139213 0.0
1.109327 0.113269 0.0
1.072326 0.087369 0.0
1.036629 0.063117 0.0
1.000965 0.042234 0.0
0.963430 0.025598 0.0
0.922850 0.012133 0.0
0.880516 -0.001453 0.0
0.841021 -0.018982 0.0
0.811101 -0.042343 0.0
0.796126 -0.069893 0.0
0.797559 -0.097717 0.0
0.813970 -0.121704 0.0
0.843088 -0.138663 0.0
0.882931 -0.146407 0.0
0.931965 -0.143513 0.0
0.988816 -0.129197 0.0
1.051873 -0.103442 0.0
1.118900 -0.067274 0.0
1.185485 -0.024463 0.0
1.243522 0.018547 0.0
1.287005 0.055741 0.0
1.315696 0.084975 0.0
1.331118 0.106197 0.0
1.334830 0.119690 0.0
1.328463 0.126046 0.0
1.313687 0.126098 0.0
1.292166 0.120852 0.0
1.265502 0.111429 0.0
1.235175 0.099024 0.0
1.202471 0.084924 0.0
1.168385 0.070549 0.0
1.133547 0.057482 0.0
1.098245 0.047345 0.0
1.062556 0.041303 0.0
1.026575 0.039559 0.0
0.990736 0.041024 0.0
0.956028 0.043482 0.0
0.923997 0.044315 0.0
0.896494 0.041353 0.0
0.875250 0.033464 0.0
0.861460 0.020695 0.0
0.855568 0.004018 0.0
0.857244 -0.015061 0.0
0.865593 -0.034632 0.0
0.879507 -0.052923 0.0
0.897913 -0.068606 0.0
0.919839 -0.080791 0.0
0.944435 -0.088924 0.0
0.970927 -0.092693 0.0
0.998553 -0.091983 0.0
1.026466 -0.086899 0.0
1.053569 -0.077847 0.0
1.078346 -0.065640 0.0
1.097657 -0.051063 0.0
1.000553 -0.016591 0.0
1.002831 -0.050437 0.0
1.007781 -0.086825 0.0
1.016470 -0.127801 0.0
1.031087 -0.175634 0.0
1.055763 -0.232649 0.0
1.097924 -0.300501 0.0
1.169097 -0.375348 0.0
1.297318 -0.473630 0.0
1.416198 -0.374608 0.0
1.457972 -0.265375 0.0
1.462581 -0.182544 0.0
1.457352 -0.117575 0.0
1.450442 -0.061141 0.0
1.441111 -0.009386 0.0
1.426279 0.038018 0.0
1.404249 0.078977 0.0
1.375098 0.111450 0.0
1.339858 0.133769 0.0
1.300145 0.144772 0.0
1.257953 0.143907 0.0
1.215488 0.131352 0.0
1.174933 0.108134 0.0
1.138201 0.076184 0.0
1.106525 0.038323 0.0
1.079432 -0.003283 0.0
1.058788 -0.049623 0.0
1.051483 -0.092560 0.0
1.064367 -0.121976 0.0
1.100122 -0.127830 0.0
1.155892 -0.102994 0.0
1.222273 -0.047764 0.0
1.281441 0.023169 0.0
1.321686 0.087715 0.0
1.345418 0.140468 0.0
1.357135 0.182255 0.0
1.359524 0.214146 0.0
1.354245 0.237130 0.0
1.342365 0.251962 0.0
1.324626 0.259226 0.0
1.301609 0.259454 0.0
1.273842 0.253230 0.0
1.241895 0.241247 0.0
1.206460 0.224297 0.0
1.168385 0.203226 0.0
1.128578 0.178975 0.0
1.087662 0.152875 0.0
1.045311 0.127115 0.0
0.999708 0.104671 0.0
0.948293 0.087759 0.0
0.890485 0.075416 0.0
0.830592 0.062788 0.0
0.777281 0.043538 0.0
0.738917 0.013886 0.0
0.719095 -0.025470 0.0
0.716481 -0.069177 0.0
0.727462 -0.110847 0.0
0.748568 -0.146090 0.0
0.777588 -0.172413 0.0
0.813447 -0.188358 0.0
0.855743 -0.192893 0.0
0.904292 -0.185218 0.0
0.958735 -0.164921 0.0
1.018237 -0.132324 0.0
1.081214 -0.088975 0.0
1.144641 -0.038406 0.0
1.201785 0.012067 0.0
1.246208 0.055535 0.0
1.276687 0.089735 0.0
1.294346 0.114781 0.0
1.300525 0.131142 0.0
1.296698 0.139605 0.0
1.284376 0.141189 0.0
1.265042 0.137092 0.0
1.240069 0.128660 0.0
1.210652 0.117409 0.0
1.177738 0.105064 0.0
1.142012 0.093531 0.0
1.103984 0.084626 0.0
1.064181 0.079513 0.0
1.023416 0.078095 0.0
0.983002 0.078741 0.0
0.944780 0.078694 0.0
0.910874 0.075039 0.0
0.883258 0.065747 0.0
0.863318 0.050254 0.0
0.851616 0.029397 0.0
0.847903 0.004921 0.0
0.851291 -0.021028 0.0
0.860551 -0.046274 0.0
0.874437 -0.069082 0.0
0.891841 -0.088257 0.0
0.911829 -0.103056 0.0
0.933624 -0.113051 0.0
0.956573 -0.118006 0.0
0.980078 -0.117801 0.0
1.003496 -0.112411 0.0
1.025996 -0.101939 0.0
1.046401 -0.086730 0.0
1.062563 -0.065446 0.0
1.000011 -0.017155 0.0
1.000065 -0.052206 0.0
1.000354 -0.090294 0.0
1.001513 -0.134180 0.0
1.005148 -0.187506 0.0
1.015038 -0.255344 0.0
1.039937 -0.344867 0.0
1.099215 -0.461433 0.0
1.257387 -0.673938 0.0
1.369487 -0.405281 0.0
1.331782 -0.238771 0.0
1.273637 -0.155612 0.0
1.234643 -0.100283 0.0
1.215106 -0.051985 0.0
1.205045 0.000851 0.0
1.193001 0.054656 0.0
1.174024 0.103347 0.0
1.146683 0.143572 0.0
1.110717 0.172853 0.0
1.066631 0.189488 0.0
1.015368 0.192645 0.0
0.957885 0.182564 0.0
0.894757 0.160604 0.0
0.826897 0.128307 0.0
0.758375 0.086398 0.0
0.698900 0.035211 0.0
0.658742 -0.027314 0.0
0.647289 -0.096111 0.0
0.669045 -0.153064 0.0
0.719693 -0.183144 0.0
0.793097 -0.176854 0.0
0.883950 -0.131139 0.0
0.984331 -0.053005 0.0
1.074817 0.033159 0.0
1.141631 0.104479 0.0
1.188439 0.159719 0.0
1.220255 0.202477 0.0
1.239560 0.234773 0.0
1.247927 0.257832 0.0
1.246564 0.272458 0.0
1.236524 0.279280 0.0
1.218790 0.278906 0.0
1.194319 0.271990 0.0
1.164047 0.259260 0.0
1.128813 0.241573 0.0
1.089053 0.220194 0.0
1.044269 0.197355 0.0
0.992761 0.176494 0.0
0.932816 0.160841 0.0
0.865633 0.150187 0.0
0.797637 0.138793 0.0
0.738866 0.118075 0.0
0.697867 0.082561 0.0
0.677654 0.033440 0.0
0.675592 -0.023141 0.0
0.686125 -0.079425 0.0
0.704296 -0.129753 0.0
0.727305 -0.171300 0.0
0.753935 -0.202853 0.0
0.783954 -0.223796 0.0
0.817736 -0.233533 0.0
0.855925 -0.231316 0.0
0.899077 -0.216418 0.0
0.947314 -0.188564 0.0
1.000062 -0.148460 0.0
1.055918 -0.098203 0.0
1.112328 -0.041689 0.0
1.163628 0.013569 0.0
1.204213 0.060637 0.0
1.232686 0.097749 0.0
1.249634 0.125046 0.0
1.256026 0.143136 0.0
1.253028 0.152977 0.0
1.241863 0.155803 0.0
1.223706 0.153077 0.0
1.199611 0.146504 0.0
1.170463 0.138031 0.0
1.137019 0.129734 0.0
1.100041 0.123430 0.0
1.060514 0.120040 0.0
1.019855 0.118992 0.0
0.979991 0.118123 0.0
0.943175 0.114351 0.0
0.911597 0.104866 0.0
0.886936 0.088198 0.0
0.870071 0.064606 0.0
0.861065 0.035752 0.0
0.859329 0.004015 0.0
0.863843 -0.028024 0.0
0.873377 -0.058073 0.0
0.886707 -0.084499 0.0
0.902730 -0.106267 0.0
0.920506 -0.122810 0.0
0.939277 -0.133864 0.0
0.958455 -0.139320 0.0
0.977572 -0.139109 0.0
0.996188 -0.133138 0.0
1.013764 -0.121288 0.0
1.029528 -0.103551 0.0
1.042133 -0.077392 0.0
0.999382 -0.016547 0.0
0.996836 -0.050323 0.0
0.991530 -0.087160 0.0
0.983150 -0.130094 0.0
0.971490 -0.183567 0.0
0.957158 -0.254840 0.0
0.943942 -0.357054 0.0
0.947526 -0.512108 0.0
1.053554 -0.887463 0.0
1.059416 -0.200380 0.0
0.876883 -0.102794 0.0
0.741740 -0.087000 0.0
0.678568 -0.066729 0.0
0.659699 -0.047134 0.0
0.670585 -0.004826 0.0
0.687296 0.055666 0.0
0.695152 0.113459 0.0
0.690420 0.165532 0.0
0.669111 0.208167 0.0
0.628730 0.238642 0.0
0.568319 0.255163 0.0
0.489588 0.256260 0.0
0.399400 0.240225 0.0
0.311927 0.204019 0.0
0.245995 0.145138 0.0
0.216536 0.065405 0.0
0.228504 -0.029320 0.0
0.271016 -0.125165 0.0
0.329133 -0.203885 0.0
0.398399 -0.252237 0.0
0.479385 -0.262152 0.0
0.573320 -0.230630 0.0
0.680286 -0.160861 0.0
0.795993 -0.065178 0.0
0.902401 0.029593 0.0
0.984823 0.105373 0.0
1.046077 0.163753 0.0
1.090834 0.209435 0.0
1.121184 0.244452 0.0
1.138532 0.269851 0.0
1.144115 0.286344 0.0
1.139113 0.294577 0.0
1.124649 0.295255 0.0
1.101689 0.289226 0.0
1.070821 0.277709 0.0
1.031875 0.262763 0.0
0.983810 0.247636 0.0
0.925761 0.235769 0.0
0.859572 0.227700 0.0
0.791917 0.218166 0.0
0.732965 0.197760 0.0
0.691503 0.159340 0.0
0.670669 0.103128 0.0
0.667947 0.035808 0.0
0.678026 -0.033527 0.0
0.695582 -0.097128 0.0
0.716849 -0.151487 0.0
0.739702 -0.195427 0.0
0.763160 -0.228815 0.0
0.787121 -0.251815 0.0
0.812207 -0.264381 0.0
0.839553 -0.266004 0.0
0.870460 -0.255790 0.0
0.905938 -0.232907 0.0
0.946315 -0.197243 0.0
0.991032 -0.149993 0.0
1.038632 -0.093910 0.0
1.086595 -0.033475 0.0
1.129993 0.023696 0.0
1.164430 0.071781 0.0
1.188777 0.109718 0.0
1.203186 0.137663 0.0
1.208267 0.156367 0.0
1.204846 0.167001 0.0
1.193806 0.171076 0.0
1.175999 0.170407 0.0
1.152224 0.167051 0.0
1.123293 0.163089 0.0
1.090194 0.160153 0.0
1.054276 0.158762 0.0
1.017369 0.157835 0.0
0.981682 0.154830 0.0
0.949492 0.146649 0.0
0.922714 0.130923 0.0
0.902578 0.106939 0.0
0.889543 0.075766 0.0
0.883425 0.039716 0.0
0.883599 0.001613 0.0
0.889119 -0.035654 0.0
0.898842 -0.069700 0.0
0.911589 -0.098950 0.0
0.926255 -0.122504 0.0
0.941882 -0.139975 0.0
0.957714 -0.151301 0.0
0.973211 -0.156558 0.0
0.988024 -0.155801 0.0
1.001921 -0.148959 0.0
1.014670 -0.135792 0.0
1.025925 -0.116066 0.0
1.034942 -0.086499 0.0
0.998776 -0.014705 0.0
0.993723 -0.044567 0.0
0.982962 -0.076848 0.0
0.965024 -0.114087 0.0
0.937195 -0.160084 0.0
0.894494 -0.221291 0.0
0.827190 -0.310083 0.0
0.716406 -0.451879 0.0
0.323525 -0.770180 0.0
-0.484395 0.276858 0.0
-0.484395 0.000000 0.0
-0.031595 -0.021675 0.0
-0.043846 -0.066552 0.0
0.014996 -0.087283 0.0
0.105669 -0.066237 0.0
0.190307 0.015728 0.0
0.238507 0.097342 0.0
0.253683 0.171206 0.0
0.241746 0.235739 0.0
0.205530 0.287667 0.0
0.149667 0.322412 0.0
0.083812 0.333597 0.0
0.022136 0.314751 0.0
-0.020981 0.260083 0.0
-0.036015 0.170039 0.0
-0.020131 0.054080 0.0
0.022161 -0.072256 0.0
0.078066 -0.180644 0.0
0.137875 -0.266332 0.0
0.201586 -0.322767 0.0
0.272568 -0.343589 0.0
0.354637 -0.325197 0.0
0.450129 -0.268751 0.0
0.558623 -0.181489 0.0
0.675199 -0.077080 0.0
0.783455 0.021368 0.0
0.869556 0.100404 0.0
0.935051 0.162532 0.0
0.983903 0.212155 0.0
1.017814 0.250888 0.0
1.037986 0.279553 0.0
1.045508 0.298847 0.0
1.041366 0.309593 0.0
1.026269 0.312945 0.0
1.000401 0.310727 0.0
0.963354 0.305739 0.0
0.914894 0.301185 0.0
0.856937 0.298226 0.0
0.795528 0.292840 0.0
0.740268 0.275942 0.0
0.700271 0.238934 0.0
0.679749 0.180150 0.0
0.677192 0.105710 0.0
0.687991 0.025149 0.0
0.706865 -0.051820 0.0
0.729459 -0.118984 0.0
0.752982 -0.174421 0.0
0.775671 -0.218034 0.0
0.796544 -0.250538 0.0
0.815368 -0.272876 0.0
0.832696 -0.285733 0.0
0.849830 -0.289133 0.0
0.868583 -0.282321 0.0
0.890802 -0.264073 0.0
0.917789 -0.233442 0.0
0.949886 -0.190607 0.0
0.986372 -0.137382 0.0
1.025633 -0.077226 0.0
1.064934 -0.015254 0.0
1.100057 0.041172 0.0
1.127805 0.088231 0.0
1.147286 0.125261 0.0
1.158396 0.152577 0.0
1.161455 0.171154 0.0
1.156977 0.182442 0.0
1.145565 0.188260 0.0
1.127897 0.190640 0.0
1.104813 0.191514 0.0
1.077460 0.192180 0.0
1.047427 0.192686 0.0
1.016722 0.191524 0.0
0.987553 0.185998 0.0
0.961941 0.173284 0.0
0.941370 0.151637 0.0
0.926637 0.121094 0.0
0.917926 0.083359 0.0
0.914990 0.041178 0.0
0.917300 -0.002334 0.0
0.924024 -0.043952 0.0
0.934084 -0.081186 0.0
0.946347 -0.112474 0.0
0.959726 -0.137025 0.0
0.973276 -0.154631 0.0
0.986259 -0.165460 0.0
0.998191 -0.169828 0.0
1.008838 -0.167992 0.0
1.018170 -0.159996 0.0
1.026257 -0.145590 0.0
1.033151 -0.124416 0.0
1.038611 -0.092627 0.0
0.998324 -0.011805 0.0
0.991416 -0.035506 0.0
0.976683 -0.060415 0.0
0.951963 -0.087864 0.0
0.913077 -0.119592 0.0
0.851959 -0.157964 0.0
0.751787 -0.205934 0.0
0.572384 -0.265842 0.0
0.227852 -0.322389 0.0
0.000000 0.276858 0.0
-0.000000 -0.000000 0.0
0.000000 0.000000 0.0
-0.042112 -0.042949 0.0
-0.086042 -0.124961 0.0
-0.085442 -0.119834 0.0
-0.070176 -0.030578 0.0
-0.049595 0.074866 0.0
-0.042659 0.171569 0.0
-0.052316 0.256971 0.0
-0.075898 0.326232 0.0
-0.107263 0.371075 0.0
-0.137708 0.381234 0.0
-0.157616 0.348699 0.0
-0.158087 0.269724 0.0
-0.132587 0.149932 0.0
-0.083773 0.009490 0.0
-0.024852 -0.128879 0.0
0.032253 -0.237031 0.0
0.084084 -0.321585 0.0
0.132875 -0.380017 0.0
0.183513 -0.407959 0.0
0.242343 -0.401727 0.0
0.314733 -0.360104 0.0
0.402594 -0.286490 0.0
0.503480 -0.189542 0.0
0.610940 -0.081886 0.0
0.710647 0.017850 0.0
0.791090 0.099148 0.0
0.852972 0.164805 0.0
0.899107 0.218192 0.0
0.930702 0.260485 0.0
0.948592 0.292503 0.0
0.953399 0.315271 0.0
0.945428 0.330335 0.0
0.924648 0.339984 0.0
0.891228 0.346949 0.0
0.846951 0.352712 0.0
0.796914 0.354693 0.0
0.749614 0.345082 0.0
0.714059 0.314515 0.0
0.695613 0.258805 0.0
0.694278 0.182137 0.0
0.706495 0.094064 0.0
0.727715 0.004776 0.0
0.753415 -0.076021 0.0
0.780043 -0.144005 0.0
0.805401 -0.198280 0.0
0.827980 -0.239443 0.0
0.846821 -0.268843 0.0
0.861547 -0.288121 0.0
0.872479 -0.298749 0.0
0.880766 -0.301539 0.0
0.888359 -0.296261 0.0
0.897679 -0.281671 0.0
0.910984 -0.256137 0.0
0.929679 -0.218703 0.0
0.953929 -0.170022 0.0
0.982729 -0.112645 0.0
1.014241 -0.050648 0.0
1.045445 0.010240 0.0
1.072889 0.063971 0.0
1.094450 0.108480 0.0
1.109286 0.143411 0.0
1.117166 0.169381 0.0
1.118202 0.187657 0.0
1.112725 0.199935 0.0
1.101274 0.208084 0.0
1.084681 0.213748 0.0
1.064180 0.217799 0.0
1.041449 0.219831 0.0
1.018474 0.218058 0.0
0.997238 0.209869 0.0
0.979362 0.192902 0.0
0.965868 0.166084 0.0
0.957187 0.130061 0.0
0.953335 0.086954 0.0
0.954081 0.039773 0.0
0.958955 -0.008114 0.0
0.967173 -0.053112 0.0
0.977708 -0.092620 0.0
0.989485 -0.125080 0.0
1.001488 -0.149801 0.0
1.012843 -0.166759 0.0
1.022887 -0.176359 0.0
1.031221 -0.179195 0.0
1.037736 -0.175788 0.0
1.042588 -0.166384 0.0
1.046120 -0.150821 0.0
1.048747 -0.128706 0.0
1.050678 -0.095729 0.0
0.998113 -0.008242 0.0
0.990372 -0.024421 0.0
0.974002 -0.040397 0.0
0.946946 -0.056105 0.0
0.905489 -0.071008 0.0
0.843463 -0.083403 0.0
0.751404 -0.088263 0.0
0.618004 -0.070711 0.0
0.441769 0.009000 0.0
0.171992 0.153807 0.0
0.000000 0.000000 0.0
-0.000000 -0.000000 0.0
0.000000 0.000000 0.0
-0.059553 -0.061571 0.0
-0.130416 -0.110944 0.0
-0.151755 -0.033394 0.0
-0.164941 0.070287 0.0
-0.169617 0.173888 0.0
-0.173521 0.268215 0.0
-0.179021 0.344070 0.0
-0.183823 0.389404 0.0
-0.182512 0.392039 0.0
-0.168777 0.344068 0.0
-0.134644 0.240692 0.0
-0.071023 0.089844 0.0
0.005867 -0.056127 0.0
0.069559 -0.185876 0.0
0.118962 -0.286542 0.0
0.158659 -0.363602 0.0
0.189109 -0.417241 0.0
0.214087 -0.446350 0.0
0.240836 -0.448915 0.0
0.277981 -0.422451 0.0
0.332070 -0.366092 0.0
0.404468 -0.283224 0.0
0.490904 -0.182100 0.0
0.583347 -0.074086 0.0
0.668816 0.025174 0.0
0.738208 0.107504 0.0
0.791765 0.175800 0.0
0.830889 0.232157 0.0
0.856144 0.277684 0.0
0.867767 0.313659 0.0
0.865831 0.341856 0.0
0.850655 0.364418 0.0
0.823789 0.382801 0.0
0.789314 0.395612 0.0
0.754287 0.396857 0.0
0.726980 0.377525 0.0
0.713432 0.331176 0.0
0.715150 0.258871 0.0
0.729918 0.168637 0.0
0.754184 0.071080 0.0
0.783877 -0.023152 0.0
0.814925 -0.104841 0.0
0.844464 -0.171353 0.0
0.870720 -0.222546 0.0
0.892496 -0.259532 0.0
0.909025 -0.284126 0.0
0.919958 -0.298495 0.0
0.925439 -0.304787 0.0
0.926303 -0.304652 0.0
0.924259 -0.298696 0.0
0.921838 -0.286136 0.0
0.921941 -0.265079 0.0
0.927029 -0.233544 0.0
0.938383 -0.190786 0.0
0.955825 -0.138125 0.0
0.977985 -0.078840 0.0
1.002687 -0.017474 0.0
1.026930 0.039997 0.0
1.048001 0.089822 0.0
1.064422 0.130811 0.0