# vtk DataFile Version 3.0
Vector Field
ASCII
DATASET RECTILINEAR_GRID
DIMENSIONS 100 26 1
X_COORDINATES 100 double
0.050000 0.150000 0.250000 0.350000 0.450000 0.550000 0.650000 0.750000 0.850000 0.950000 1.050000 1.150000 1.250000 1.350000 1.450000 1.550000 1.650000 1.750000 1.850000 1.950000 2.050000 2.150000 2.250000 2.350000 2.450000 2.550000 2.650000 2.750000 2.850000 2.950000 3.050000 3.150000 3.250000 3.350000 3.450000 3.550000 3.650000 3.750000 3.850000 3.950000 4.050000 4.150000 4.250000 4.350000 4.450000 4.550000 4.650000 4.750000 4.850000 4.950000 5.050000 5.150000 5.250000 5.350000 5.450000 5.550000 5.650000 5.750000 5.850000 5.950000 6.050000 6.150000 6.250000 6.350000 6.450000 6.550000 6.650000 6.750000 6.850000 6.950000 7.050000 7.150000 7.250000 7.350000 7.450000 7.550000 7.650000 7.750000 7.850000 7.950000 8.050000 8.150000 8.250000 8.350000 8.450000 8.550000 8.650000 8.750000 8.850000 8.950000 9.050000 9.150000 9.250000 9.350000 9.450000 9.550000 9.650000 9.750000 9.850000 9.950000 
Y_COORDINATES 26 double
0.050000 0.150000 0.250000 0.350000 0.450000 0.550000 0.650000 0.750000 0.850000 0.950000 1.050000 1.150000 1.250000 1.350000 1.450000 1.550000 1.650000 1.750000 1.850000 1.950000 2.050000 2.150000 2.250000 2.350000 2.450000 2.550000 
Z_COORDINATES 1 double
0.0
POINT_DATA 2600
VECTORS Vektorfeld double
0.997751 0.002249 0.0
0.993336 0.002166 0.0
0.990680 0.000490 0.0
0.992050 -0.001861 0.0
0.998380 -0.004469 0.0
1.009896 -0.007047 0.0
1.026258 -0.009314 0.0
1.046553 -0.010981 0.0
1.069318 -0.011784 0.0
1.092649 -0.011548 0.0
1.114455 -0.010258 0.0
1.132764 -0.008052 0.0
1.145972 -0.005156 0.0
1.152987 -0.001859 0.0
1.153414 0.001432 0.0
1.147231 0.004751 0.0
1.134488 0.007991 0.0
1.115477 0.011020 0.0
1.090744 0.013713 0.0
1.061081 0.015949 0.0
1.027509 0.017623 0.0
0.991237 0.018650 0.0
0.953614 0.018973 0.0
0.916074 0.018568 0.0
0.880059 0.017448 0.0
0.846944 0.015667 0.0
0.817951 0.013326 0.0
0.794060 0.010565 0.0
0.775922 0.007573 0.0
0.763760 0.004588 0.0
0.757279 0.001893 0.0
0.755730 -0.000344 0.0
0.757657 -0.001583 0.0
0.760856 -0.001617 0.0
0.763026 -0.000553 0.0
0.761854 0.001724 0.0
0.755092 0.005038 0.0
0.741071 0.008983 0.0
0.718937 0.013151 0.0
0.688639 0.017148 0.0
0.650863 0.020628 0.0
0.606930 0.023306 0.0
0.558659 0.024965 0.0
0.508252 0.025442 0.0
0.458280 0.024530 0.0
0.411970 0.021781 0.0
0.373625 0.016564 0.0
0.348147 0.008913 0.0
0.338445 0.000789 0.0
0.341863 -0.004207 0.0
0.352341 -0.006271 0.0
0.365723 -0.007111 0.0
0.380056 -0.007222 0.0
0.394088 -0.006810 0.0
0.406921 -0.006022 0.0
0.417931 -0.004987 0.0
0.426740 -0.003822 0.0
0.433200 -0.002638 0.0
0.437379 -0.001542 0.0
0.439539 -0.000618 0.0
0.439921 0.000236 0.0
0.438273 0.001412 0.0
0.433910 0.002951 0.0
0.426325 0.004635 0.0
0.415458 0.006232 0.0
0.401771 0.007456 0.0
0.386339 0.007976 0.0
0.370770 0.007593 0.0
0.356738 0.006440 0.0
0.345300 0.004998 0.0
0.336450 0.003851 0.0
0.329256 0.003343 0.0
0.322517 0.003397 0.0
0.315487 0.003633 0.0
0.308197 0.003656 0.0
0.301250 0.003291 0.0
0.295327 0.002632 0.0
0.290789 0.001905 0.0
0.287587 0.001298 0.0
0.285433 0.000857 0.0
0.284016 0.000560 0.0
0.283040 0.000416 0.0
0.282187 0.000437 0.0
0.281110 0.000640 0.0
0.279505 0.000966 0.0
0.277237 0.001302 0.0
0.274398 0.001536 0.0
0.271223 0.001639 0.0
0.267910 0.001675 0.0
0.264501 0.001734 0.0
0.260887 0.001880 0.0
0.256895 0.002113 0.0
0.252406 0.002376 0.0
0.247443 0.002586 0.0
0.242193 0.002664 0.0
0.236985 0.002544 0.0
0.232268 0.002173 0.0
0.228601 0.001495 0.0
0.226543 0.000563 0.0
0.226492 -0.000512 0.0
1.003043 0.001455 0.0
1.011914 -0.001496 0.0
1.025825 -0.007103 0.0
1.044219 -0.014032 0.0
1.067085 -0.021494 0.0
1.094358 -0.028812 0.0
1.125688 -0.035241 0.0
1.160298 -0.039960 0.0
1.196915 -0.042187 0.0
1.233808 -0.041369 0.0
1.269047 -0.037480 0.0
1.300879 -0.030971 0.0
1.327960 -0.022526 0.0
1.349329 -0.012874 0.0
1.364093 -0.002744 0.0
1.371697 0.007506 0.0
1.372154 0.017521 0.0
1.365754 0.026901 0.0
1.353062 0.035258 0.0
1.334900 0.042229 0.0
1.312320 0.047494 0.0
1.286574 0.050796 0.0
1.259059 0.051963 0.0
1.231254 0.050922 0.0
1.204647 0.047715 0.0
1.180653 0.042508 0.0
1.160529 0.035601 0.0
1.145283 0.027426 0.0
1.135590 0.018544 0.0
1.131732 0.009638 0.0
1.133586 0.001471 0.0
1.140262 -0.005050 0.0
1.150223 -0.008765 0.0
1.161573 -0.008983 0.0
1.171765 -0.005550 0.0
1.178228 0.001429 0.0
1.178872 0.011451 0.0
1.172024 0.023440 0.0
1.156710 0.036142 0.0
1.132803 0.048361 0.0
1.100934 0.059058 0.0
1.062364 0.067379 0.0
1.018870 0.072656 0.0
0.972681 0.074348 0.0
0.926401 0.071876 0.0
0.882706 0.064439 0.0
0.843476 0.051481 0.0
0.808702 0.034248 0.0
0.777178 0.016680 0.0
0.750851 0.002811 0.0
0.734491 -0.007406 0.0
0.729239 -0.014107 0.0
0.732484 -0.017804 0.0
0.741624 -0.019401 0.0
0.754859 -0.019499 0.0
0.770905 -0.018566 0.0
0.788784 -0.016931 0.0
0.807603 -0.014807 0.0
0.826344 -0.012294 0.0
0.843690 -0.009371 0.0
0.858138 -0.005841 0.0
0.868791 -0.001517 0.0
0.875741 0.003292 0.0
0.879378 0.008243 0.0
0.879991 0.012878 0.0
0.877804 0.016684 0.0
0.872831 0.019152 0.0
0.864744 0.020073 0.0
0.852917 0.019819 0.0
0.836750 0.019224 0.0
0.816175 0.019050 0.0
0.792019 0.019494 0.0
0.765980 0.020024 0.0
0.740298 0.019718 0.0
0.717292 0.017867 0.0
0.698879 0.014442 0.0
0.686153 0.010131 0.0
0.679172 0.005924 0.0
0.677069 0.002585 0.0
0.678394 0.000398 0.0
0.681613 -0.000783 0.0
0.685606 -0.001258 0.0
0.689765 -0.001195 0.0
0.693762 -0.000648 0.0
0.697434 0.000186 0.0
0.700742 0.001041 0.0
0.703572 0.001805 0.0
0.705570 0.002547 0.0
0.706253 0.003397 0.0
0.705226 0.004449 0.0
0.702298 0.005706 0.0
0.697518 0.007059 0.0
0.691138 0.008299 0.0
0.683570 0.009195 0.0
0.675318 0.009557 0.0
0.666917 0.009259 0.0
0.658882 0.008210 0.0
0.651678 0.006329 0.0
0.645820 0.003644 0.0
0.643571 -0.001293 0.0
1.001949 -0.003537 0.0
1.008977 -0.012402 0.0
1.021891 -0.023023 0.0
1.040249 -0.034864 0.0
1.064000 -0.047278 0.0
1.093127 -0.059428 0.0
1.127374 -0.070201 0.0
1.165979 -0.078215 0.0
1.207474 -0.082044 0.0
1.249590 -0.080520 0.0
1.289690 -0.073668 0.0
1.325565 -0.062490 0.0
1.355774 -0.048297 0.0
1.379548 -0.032246 0.0
1.396594 -0.015181 0.0
1.406852 0.002081 0.0
1.410423 0.018919 0.0
1.407623 0.034703 0.0
1.398957 0.048815 0.0
1.385130 0.060662 0.0
1.367052 0.069719 0.0
1.345802 0.075567 0.0
1.322581 0.077928 0.0
1.298658 0.076686 0.0
1.275311 0.071906 0.0
1.253773 0.063850 0.0
1.235172 0.052984 0.0
1.220491 0.039971 0.0
1.210536 0.025648 0.0
1.205920 0.011007 0.0
1.206981 -0.002812 0.0
1.213787 -0.014249 0.0
1.225991 -0.021731 0.0
1.242418 -0.023793 0.0
1.260949 -0.019463 0.0
1.278694 -0.008866 0.0
1.292832 0.006964 0.0
1.301277 0.026331 0.0
1.302696 0.047146 0.0
1.296514 0.067446 0.0
1.282829 0.085528 0.0
1.262310 0.100000 0.0
1.236076 0.109763 0.0
1.205566 0.113941 0.0
1.172321 0.111807 0.0
1.137626 0.102897 0.0
1.102199 0.087681 0.0
1.066575 0.068446 0.0
1.032055 0.048527 0.0
0.999922 0.029423 0.0
0.970273 0.011992 0.0
0.944340 -0.002320 0.0
0.924756 -0.013251 0.0
0.912465 -0.020803 0.0
0.906726 -0.025592 0.0
0.906530 -0.028324 0.0
0.910957 -0.029480 0.0
0.919206 -0.029326 0.0
0.930620 -0.027929 0.0
0.944732 -0.025194 0.0
0.961288 -0.021022 0.0
0.979966 -0.015667 0.0
1.000011 -0.009554 0.0
1.020477 -0.003014 0.0
1.040443 0.003556 0.0
1.058884 0.009751 0.0
1.074613 0.015328 0.0
1.086321 0.020276 0.0
1.092841 0.024924 0.0
1.093395 0.029732 0.0
1.087838 0.034674 0.0
1.076667 0.039197 0.0
1.060734 0.042294 0.0
1.040940 0.042925 0.0
1.018039 0.040567 0.0
0.992648 0.035546 0.0
0.965503 0.028898 0.0
0.937846 0.021794 0.0
0.911666 0.014998 0.0
0.889515 0.008812 0.0
0.873698 0.003403 0.0
0.865146 -0.000886 0.0
0.863027 -0.003607 0.0
0.865623 -0.004829 0.0
0.871318 -0.004999 0.0
0.878701 -0.004464 0.0
0.886453 -0.003271 0.0
0.893481 -0.001403 0.0
0.899063 0.001082 0.0
0.902800 0.004055 0.0
0.904545 0.007281 0.0
0.904409 0.010400 0.0
0.902738 0.013008 0.0
0.900036 0.014757 0.0
0.896864 0.015419 0.0
0.893771 0.014891 0.0
0.891243 0.013140 0.0
0.889716 0.010130 0.0
0.889653 0.005764 0.0
0.891242 -0.002754 0.0
1.001567 -0.007053 0.0
1.007694 -0.022041 0.0
1.019740 -0.038344 0.0
1.037726 -0.055888 0.0
1.061936 -0.074213 0.0
1.092721 -0.092405 0.0
1.130208 -0.108959 0.0
1.173861 -0.121715 0.0
1.222082 -0.128259 0.0
1.271538 -0.125876 0.0
1.318024 -0.114898 0.0
1.358505 -0.097615 0.0
1.391563 -0.076439 0.0
1.416817 -0.053132 0.0
1.434311 -0.028835 0.0
1.444222 -0.004434 0.0
1.446845 0.019240 0.0
1.442603 0.041422 0.0
1.432078 0.061287 0.0
1.416082 0.078014 0.0
1.395643 0.090885 0.0
1.371944 0.099349 0.0
1.346261 0.103050 0.0
1.319901 0.101848 0.0
1.294159 0.095832 0.0
1.270285 0.085335 0.0
1.249452 0.070933 0.0
1.232734 0.053421 0.0
1.221119 0.033769 0.0
1.215549 0.013070 0.0
1.216941 -0.007328 0.0
1.225929 -0.025527 0.0
1.242386 -0.039113 0.0
1.265050 -0.045503 0.0
1.291478 -0.042712 0.0
1.318328 -0.030213 0.0
1.341992 -0.009491 0.0
1.359774 0.016559 0.0
1.370472 0.044800 0.0
1.373879 0.072567 0.0
1.370323 0.097647 0.0
1.360439 0.118283 0.0
1.345013 0.133139 0.0
1.324853 0.141235 0.0
1.300662 0.141949 0.0
1.272924 0.135188 0.0
1.241961 0.121781 0.0
1.208284 0.103646 0.0
1.172944 0.083187 0.0
1.137405 0.062434 0.0
1.103198 0.042837 0.0
1.071220 0.024745 0.0
1.041794 0.008694 0.0
1.016057 -0.004720 0.0
0.995535 -0.015413 0.0
0.980673 -0.023445 0.0
0.971061 -0.029174 0.0
0.966082 -0.032902 0.0
0.965163 -0.034848 0.0
0.967979 -0.035204 0.0
0.974594 -0.034182 0.0
0.985450 -0.032041 0.0
1.001228 -0.029002 0.0
1.022471 -0.025275 0.0
1.049131 -0.020809 0.0
1.080193 -0.015388 0.0
1.113566 -0.008634 0.0
1.146269 -0.000172 0.0
1.175055 0.010067 0.0
1.197575 0.021515 0.0
1.212905 0.033117 0.0
1.220910 0.043919 0.0
1.221675 0.052740 0.0
1.215405 0.058542 0.0
1.202434 0.060821 0.0
1.183375 0.059741 0.0
1.159310 0.055914 0.0
1.131778 0.049966 0.0
1.102472 0.042311 0.0
1.072815 0.033307 0.0
1.043911 0.023629 0.0
1.017070 0.014280 0.0
0.994276 0.006141 0.0
0.977450 -0.000347 0.0
0.967126 -0.004852 0.0
0.962233 -0.007102 0.0
0.961024 -0.007176 0.0
0.961844 -0.005346 0.0
0.963257 -0.001970 0.0
0.964135 0.002492 0.0
0.963807 0.007427 0.0
0.962107 0.012091 0.0
0.959312 0.015782 0.0
0.956019 0.017978 0.0
0.952983 0.018405 0.0
0.950961 0.017021 0.0
0.950553 0.013946 0.0
0.952071 0.009333 0.0
0.955397 0.003299 0.0
0.959357 -0.005837 0.0
1.001373 -0.009994 0.0
1.006906 -0.030760 0.0
1.018158 -0.052922 0.0
1.035598 -0.076737 0.0
1.060025 -0.102001 0.0
1.092464 -0.127841 0.0
1.133850 -0.152397 0.0
1.184325 -0.172406 0.0
1.242685 -0.184150 0.0
1.303348 -0.180105 0.0
1.358484 -0.162291 0.0
1.404019 -0.136239 0.0
1.439384 -0.106238 0.0
1.465375 -0.074578 0.0
1.482754 -0.042263 0.0
1.491865 -0.010028 0.0
1.492923 0.021153 0.0
1.486242 0.050432 0.0
1.472356 0.076688 0.0
1.452173 0.098792 0.0
1.426917 0.115802 0.0
1.398009 0.127039 0.0
1.366957 0.132095 0.0
1.335289 0.130832 0.0
1.304502 0.123376 0.0
1.276039 0.110128 0.0
1.251251 0.091761 0.0
1.231370 0.069191 0.0
1.217496 0.043489 0.0
1.210677 0.015740 0.0
1.212014 -0.012728 0.0
1.222419 -0.039520 0.0
1.242024 -0.061182 0.0
1.269802 -0.073876 0.0
1.303457 -0.074422 0.0
1.339423 -0.061317 0.0
1.373041 -0.035668 0.0
1.399603 -0.001607 0.0
1.416672 0.035200 0.0
1.424574 0.070858 0.0
1.424631 0.102856 0.0
1.418202 0.129388 0.0
1.406424 0.149238 0.0
1.390088 0.161632 0.0
1.369628 0.166203 0.0
1.345201 0.163098 0.0
1.316886 0.153149 0.0
1.284975 0.137865 0.0
1.250180 0.119103 0.0
1.213610 0.098628 0.0
1.176585 0.077875 0.0
1.140421 0.057849 0.0
1.106262 0.039175 0.0
1.074798 0.022000 0.0
1.046433 0.006753 0.0
1.021789 -0.006105 0.0
1.001195 -0.016307 0.0
0.984214 -0.023810 0.0
0.970204 -0.029010 0.0
0.958951 -0.032606 0.0
0.950955 -0.035399 0.0
0.947424 -0.038149 0.0
0.950023 -0.041271 0.0
0.960380 -0.044606 0.0
0.979550 -0.047307 0.0
1.007692 -0.048096 0.0
1.044016 -0.045624 0.0
1.086870 -0.038739 0.0
1.133655 -0.026938 0.0
1.180387 -0.010732 0.0
1.221985 0.008436 0.0
1.254524 0.028055 0.0
1.276813 0.045550 0.0
1.289070 0.059746 0.0
1.291720 0.069939 0.0
1.285481 0.075920 0.0
1.271439 0.077842 0.0
1.250987 0.076021 0.0
1.225668 0.070881 0.0
1.197055 0.063008 0.0
1.166728 0.053158 0.0
1.136209 0.042111 0.0
1.106728 0.030584 0.0
1.079198 0.019564 0.0
1.054522 0.010236 0.0
1.033643 0.003583 0.0
1.016877 0.000114 0.0
1.003464 -0.000043 0.0
0.991985 0.002794 0.0
0.981042 0.007794 0.0
0.969747 0.013748 0.0
0.957892 0.019324 0.0
0.945882 0.023355 0.0
0.934534 0.025048 0.0
0.924826 0.024078 0.0
0.917638 0.020558 0.0
0.913536 0.014919 0.0
0.912632 0.007745 0.0
0.914551 -0.000358 0.0
0.918054 -0.009643 0.0
1.001179 -0.012546 0.0
1.006001 -0.038562 0.0
1.016053 -0.066425 0.0
1.032198 -0.096819 0.0
1.055856 -0.130004 0.0
1.089038 -0.165459 0.0
1.134134 -0.201261 0.0
1.192910 -0.232793 0.0
1.266523 -0.255735 0.0
1.343680 -0.246341 0.0
1.407860 -0.215372 0.0
1.455391 -0.176224 0.0
1.489320 -0.135546 0.0
1.513296 -0.095235 0.0
1.529335 -0.055024 0.0
1.537613 -0.014656 0.0
1.537535 0.024801 0.0
1.528744 0.062257 0.0
1.511492 0.096001 0.0
1.486751 0.124403 0.0
1.455987 0.146212 0.0
1.420913 0.160611 0.0
1.383328 0.167159 0.0
1.345030 0.165735 0.0
1.307780 0.156510 0.0
1.273273 0.139965 0.0
1.243086 0.116899 0.0
1.218592 0.088428 0.0
1.200822 0.055894 0.0
1.190358 0.020619 0.0
1.187657 -0.016243 0.0
1.193522 -0.052274 0.0
1.208633 -0.083145 0.0
1.233078 -0.104137 0.0
1.266406 -0.111145 0.0
1.307096 -0.101250 0.0
1.351449 -0.073706 0.0
1.392893 -0.031576 0.0
1.423854 0.017139 0.0
1.441451 0.063419 0.0
1.447757 0.103932 0.0
1.445386 0.137112 0.0
1.436431 0.162248 0.0
1.422285 0.179104 0.0
1.403705 0.187771 0.0
1.380990 0.188671 0.0
1.354254 0.182628 0.0
1.323690 0.170861 0.0
1.289772 0.154820 0.0
1.253294 0.135958 0.0
1.215302 0.115561 0.0
1.176971 0.094659 0.0
1.139468 0.074028 0.0
1.103788 0.054291 0.0
1.070547 0.036068 0.0
1.039711 0.020060 0.0
1.010657 0.007176 0.0
0.982559 -0.002215 0.0
0.954763 -0.008799 0.0
0.927492 -0.014294 0.0
0.902593 -0.020815 0.0
0.883237 -0.029846 0.0
0.872719 -0.041658 0.0
0.873336 -0.055193 0.0
0.885828 -0.068381 0.0
0.909588 -0.078924 0.0
0.943280 -0.084812 0.0
0.985342 -0.084467 0.0
1.034162 -0.076814 0.0
1.087978 -0.061403 0.0
1.144388 -0.038900 0.0
1.199019 -0.011778 0.0
1.245648 0.016465 0.0
1.280220 0.042001 0.0
1.302386 0.062868 0.0
1.313042 0.078574 0.0
1.313313 0.088960 0.0
1.304537 0.094131 0.0
1.288201 0.094426 0.0
1.265873 0.090405 0.0
1.239143 0.082818 0.0
1.209560 0.072554 0.0
1.178550 0.060631 0.0
1.147365 0.048233 0.0
1.116972 0.036636 0.0
1.087891 0.027144 0.0
1.060183 0.021026 0.0
1.033618 0.019023 0.0
1.007846 0.020979 0.0
0.982611 0.025788 0.0
0.957966 0.031694 0.0
0.934405 0.036793 0.0
0.912807 0.039494 0.0
0.894221 0.038842 0.0
0.879586 0.034626 0.0
0.869496 0.027289 0.0
0.864066 0.017721 0.0
0.862896 0.007017 0.0
0.865070 -0.003723 0.0
0.868873 -0.013583 0.0
1.000899 -0.014624 0.0
1.004627 -0.045033 0.0
1.012602 -0.077981 0.0
1.025961 -0.114766 0.0
1.046710 -0.156464 0.0
1.078052 -0.203524 0.0
1.124644 -0.254884 0.0
1.191687 -0.304989 0.0
1.288122 -0.353587 0.0
1.386777 -0.324301 0.0
1.452190 -0.267004 0.0
1.489726 -0.209659 0.0
1.512080 -0.158394 0.0
1.527701 -0.111984 0.0
1.540179 -0.066794 0.0
1.548635 -0.019620 0.0
1.549850 0.028627 0.0
1.541457 0.075615 0.0
1.523029 0.118323 0.0
1.495566 0.154285 0.0
1.460793 0.181867 0.0
1.420695 0.200128 0.0
1.377302 0.208620 0.0
1.332623 0.207251 0.0
1.288634 0.196233 0.0
1.247254 0.176130 0.0
1.210257 0.147918 0.0
1.179101 0.113060 0.0
1.154585 0.073548 0.0
1.136242 0.031771 0.0
1.122224 -0.010676 0.0
1.112140 -0.053621 0.0
1.108145 -0.092913 0.0
1.113430 -0.124099 0.0
1.131645 -0.142725 0.0
1.165236 -0.143952 0.0
1.213605 -0.123727 0.0
1.271817 -0.081211 0.0
1.329500 -0.021868 0.0
1.373973 0.040355 0.0
1.401008 0.093654 0.0
1.414284 0.136485 0.0
1.417132 0.168982 0.0
1.411903 0.191745 0.0
1.400093 0.205520 0.0
1.382595 0.211135 0.0
1.359956 0.209540 0.0
1.332630 0.201838 0.0
1.301167 0.189226 0.0
1.266293 0.172904 0.0
1.228921 0.153978 0.0
1.190089 0.133404 0.0
1.150838 0.112036 0.0
1.112005 0.090796 0.0
1.073892 0.070917 0.0
1.035966 0.053973 0.0
0.996967 0.041317 0.0
0.955751 0.032958 0.0
0.912723 0.026852 0.0
0.870730 0.019319 0.0
0.834337 0.006863 0.0
0.808134 -0.011964 0.0
0.795231 -0.036119 0.0
0.796246 -0.062364 0.0
0.809658 -0.087114 0.0
0.833274 -0.107566 0.0
0.865194 -0.121782 0.0
0.904054 -0.128418 0.0
0.948889 -0.126518 0.0
0.998874 -0.115501 0.0
1.053003 -0.095341 0.0
1.109790 -0.066756 0.0
1.166577 -0.031974 0.0
1.217945 0.004500 0.0
1.258282 0.037867 0.0
1.285871 0.065330 0.0
1.301450 0.086355 0.0
1.306130 0.100833 0.0
1.301223 0.108967 0.0
1.288167 0.111249 0.0
1.268448 0.108422 0.0
1.243531 0.101449 0.0
1.214779 0.091497 0.0
1.183375 0.079956 0.0
1.150252 0.068429 0.0
1.116059 0.058626 0.0
1.081229 0.052083 0.0
1.046095 0.049664 0.0
1.011050 0.051154 0.0
0.976695 0.055203 0.0
0.943930 0.059688 0.0
0.913920 0.062371 0.0
0.887900 0.061535 0.0
0.866905 0.056382 0.0
0.851539 0.047087 0.0
0.841857 0.034600 0.0
0.837375 0.020321 0.0
0.837157 0.005805 0.0
0.839883 -0.007411 0.0
0.843873 -0.017688 0.0
1.000491 -0.016014 0.0
1.002568 -0.049448 0.0
1.007209 -0.086181 0.0
1.015554 -0.128270 0.0
1.029842 -0.177995 0.0
1.054214 -0.237706 0.0
1.096055 -0.309134 0.0
1.166780 -0.388507 0.0
1.294506 -0.494231 0.0
1.411654 -0.399460 0.0
1.450153 -0.295758 0.0
1.451585 -0.219874 0.0
1.444829 -0.163778 0.0
1.441712 -0.119104 0.0
1.446927 -0.077366 0.0
1.458707 -0.029283 0.0
1.468009 0.027772 0.0
1.467000 0.085872 0.0
1.454188 0.139305 0.0
1.430547 0.184407 0.0
1.397904 0.219161 0.0
1.358270 0.242567 0.0
1.313636 0.254208 0.0
1.265972 0.254006 0.0
1.217256 0.242183 0.0
1.169436 0.219380 0.0
1.124253 0.186848 0.0
1.082901 0.146638 0.0
1.045597 0.101790 0.0
1.011068 0.056401 0.0
0.976049 0.013730 0.0
0.937159 -0.029054 0.0
0.899685 -0.076012 0.0
0.876493 -0.123094 0.0
0.876827 -0.162278 0.0
0.903146 -0.184310 0.0
0.953101 -0.181692 0.0
1.022103 -0.150460 0.0
1.103692 -0.091890 0.0
1.185753 -0.016157 0.0
1.252121 0.056763 0.0
1.297340 0.114882 0.0
1.325903 0.159172 0.0
1.341300 0.191387 0.0
1.345905 0.213084 0.0
1.341372 0.225602 0.0
1.328930 0.230154 0.0
1.309584 0.227895 0.0
1.284269 0.219947 0.0
1.253938 0.207387 0.0
1.219588 0.191217 0.0
1.182210 0.172376 0.0
1.142628 0.151898 0.0
1.101165 0.131230 0.0
1.057288 0.112474 0.0
1.009695 0.097934 0.0
0.957438 0.088612 0.0
0.901766 0.082551 0.0
0.847167 0.074887 0.0
0.800156 0.060288 0.0
0.766424 0.036018 0.0
0.748471 0.003037 0.0
0.745235 -0.034981 0.0
0.753742 -0.073024 0.0
0.771035 -0.107160 0.0
0.794965 -0.135066 0.0
0.824214 -0.155452 0.0
0.858100 -0.167493 0.0
0.896341 -0.170519 0.0
0.938816 -0.163960 0.0
0.985300 -0.147495 0.0
1.035224 -0.121313 0.0
1.087458 -0.086437 0.0
1.140063 -0.045010 0.0
1.188826 -0.001722 0.0
1.228404 0.037751 0.0
1.256423 0.070334 0.0
1.273160 0.095436 0.0
1.279424 0.113006 0.0
1.276299 0.123390 0.0
1.265016 0.127282 0.0
1.246841 0.125681 0.0
1.222985 0.119874 0.0
1.194532 0.111437 0.0
1.162406 0.102197 0.0
1.127392 0.094064 0.0
1.090219 0.088650 0.0
1.051691 0.086759 0.0
1.012815 0.087980 0.0
0.974863 0.090683 0.0
0.939326 0.092509 0.0
0.907722 0.091164 0.0
0.881330 0.085155 0.0
0.860943 0.074144 0.0
0.846750 0.058885 0.0
0.838357 0.040878 0.0
0.834919 0.021963 0.0
0.835282 0.004017 0.0
0.838111 -0.011177 0.0
0.842033 -0.021834 0.0
0.999949 -0.016454 0.0
0.999799 -0.050937 0.0
0.999756 -0.089290 0.0
1.000508 -0.134260 0.0
1.003679 -0.189463 0.0
1.013006 -0.259938 0.0
1.037089 -0.352826 0.0
1.094931 -0.473382 0.0
1.249932 -0.692082 0.0
1.354680 -0.423504 0.0
1.306265 -0.261798 0.0
1.236438 -0.185440 0.0
1.183777 -0.138794 0.0
1.151208 -0.108402 0.0
1.142607 -0.084682 0.0
1.160179 -0.051318 0.0
1.192318 0.008367 0.0
1.217939 0.080664 0.0
1.227957 0.147306 0.0
1.224335 0.203670 0.0
1.208951 0.247925 0.0
1.183218 0.279170 0.0
1.148485 0.296971 0.0
1.106229 0.301163 0.0
1.058039 0.291932 0.0
1.005292 0.270196 0.0
0.948237 0.238270 0.0
0.884703 0.200101 0.0
0.810851 0.159481 0.0
0.727046 0.117045 0.0
0.644777 0.070375 0.0
0.582467 0.015501 0.0
0.551704 -0.052330 0.0
0.552683 -0.124562 0.0
0.579077 -0.187537 0.0
0.624156 -0.230450 0.0
0.684483 -0.245835 0.0
0.758694 -0.229530 0.0
0.845569 -0.181284 0.0
0.942472 -0.105728 0.0
1.039671 -0.017232 0.0
1.120776 0.062554 0.0
1.179717 0.123996 0.0
1.220776 0.170108 0.0
1.247014 0.203520 0.0
1.260550 0.226162 0.0
1.263029 0.239558 0.0
1.255860 0.245008 0.0
1.240321 0.243687 0.0
1.217617 0.236682 0.0
1.188860 0.225029 0.0
1.154970 0.209832 0.0
1.116435 0.192560 0.0
1.073039 0.175425 0.0
1.023967 0.161228 0.0
0.968795 0.151944 0.0
0.909209 0.146446 0.0
0.850039 0.139558 0.0
0.798162 0.124356 0.0
0.759598 0.096394 0.0
0.737071 0.056172 0.0
0.729751 0.008156 0.0
0.734550 -0.041661 0.0
0.747827 -0.088127 0.0
0.766723 -0.128247 0.0
0.789441 -0.160627 0.0
0.815008 -0.184706 0.0
0.843074 -0.200191 0.0
0.873752 -0.206741 0.0
0.907406 -0.203868 0.0
0.944399 -0.191064 0.0
0.984822 -0.168092 0.0
1.028286 -0.135355 0.0
1.073789 -0.094201 0.0
1.119634 -0.047138 0.0
1.162262 0.000962 0.0
1.197210 0.044156 0.0
1.222297 0.079791 0.0
1.237408 0.107276 0.0
1.243015 0.126638 0.0
1.239916 0.138417 0.0
1.229059 0.143579 0.0
1.211424 0.143468 0.0
1.187950 0.139769 0.0
1.159521 0.134420 0.0
1.127006 0.129370 0.0
1.091363 0.126159 0.0
1.053752 0.125389 0.0
1.015603 0.126375 0.0
0.978586 0.127257 0.0
0.944436 0.125622 0.0
0.914695 0.119395 0.0
0.890461 0.107551 0.0
0.872232 0.090363 0.0
0.859914 0.069177 0.0
0.852930 0.045962 0.0
0.850370 0.022878 0.0
0.851122 0.001988 0.0
0.853994 -0.014848 0.0
0.857861 -0.025952 0.0
0.999326 -0.015729 0.0
0.996591 -0.048777 0.0
0.990961 -0.085776 0.0
0.982155 -0.129720 0.0
0.969970 -0.184988 0.0
0.954960 -0.258731 0.0
0.940757 -0.363911 0.0
0.942666 -0.522048 0.0
1.044648 -0.900400 0.0
1.039223 -0.206933 0.0
0.840342 -0.111510 0.0
0.690239 -0.103813 0.0
0.606803 -0.084324 0.0
0.557612 -0.081112 0.0
0.549095 -0.094853 0.0
0.586057 -0.095681 0.0
0.661100 -0.054451 0.0
0.746356 0.032605 0.0
0.812251 0.119451 0.0
0.855187 0.192211 0.0
0.878602 0.251353 0.0
0.883683 0.296394 0.0
0.871265 0.326898 0.0
0.842000 0.342758 0.0
0.795951 0.344577 0.0
0.732128 0.334120 0.0
0.649397 0.314134 0.0
0.550782 0.286387 0.0
0.448830 0.248999 0.0
0.363848 0.196314 0.0
0.313115 0.124108 0.0
0.301947 0.035246 0.0
0.321898 -0.061262 0.0
0.358158 -0.152869 0.0
0.401567 -0.229034 0.0
0.450508 -0.282972 0.0
0.506516 -0.309649 0.0
0.571988 -0.305399 0.0
0.648689 -0.268991 0.0
0.736786 -0.203022 0.0
0.834302 -0.114653 0.0
0.932533 -0.019363 0.0
1.016286 0.063218 0.0
1.079461 0.126652 0.0
1.125425 0.174774 0.0
1.156503 0.210294 0.0
1.174384 0.235065 0.0
1.180517 0.250537 0.0
1.176243 0.257970 0.0
1.162806 0.258541 0.0
1.141277 0.253456 0.0
1.112394 0.244179 0.0
1.076357 0.232786 0.0
1.032883 0.222070 0.0
0.981942 0.214597 0.0
0.925206 0.210482 0.0
0.867195 0.205505 0.0
0.814659 0.192206 0.0
0.773993 0.164252 0.0
0.748578 0.120477 0.0
0.738116 0.065078 0.0
0.739953 0.004733 0.0
0.750627 -0.053711 0.0
0.766954 -0.105680 0.0
0.786561 -0.149197 0.0
0.807855 -0.183689 0.0
0.829911 -0.209266 0.0
0.852427 -0.226213 0.0
0.875666 -0.234636 0.0
0.900318 -0.234279 0.0
0.927245 -0.224572 0.0
0.957157 -0.204920 0.0
0.990325 -0.175158 0.0
1.026406 -0.135983 0.0
1.064414 -0.089210 0.0
1.102687 -0.037867 0.0
1.137943 0.012779 0.0
1.166647 0.057377 0.0
1.187179 0.094047 0.0
1.199193 0.122246 0.0
1.202902 0.142199 0.0
1.198829 0.154727 0.0
1.187645 0.161139 0.0
1.170088 0.163129 0.0
1.146949 0.162627 0.0
1.119129 0.161497 0.0
1.087728 0.161076 0.0
1.054125 0.161686 0.0
1.019974 0.162378 0.0
0.987069 0.161177 0.0
0.957111 0.155811 0.0
0.931448 0.144609 0.0
0.910904 0.127115 0.0
0.895749 0.104183 0.0
0.885778 0.077646 0.0
0.880432 0.049822 0.0
0.878908 0.023102 0.0
0.880248 -0.000328 0.0
0.883402 -0.018558 0.0
0.887364 -0.030070 0.0
0.998732 -0.013787 0.0
0.993522 -0.042774 0.0
0.982476 -0.075104 0.0
0.964142 -0.113253 0.0
0.935801 -0.160928 0.0
0.892452 -0.224432 0.0
0.824331 -0.315886 0.0
0.712420 -0.460072 0.0
0.321197 -0.780711 0.0
-0.470689 0.284238 0.0
-0.470689 0.000000 0.0
-0.037992 -0.026618 0.0
-0.064060 -0.063389 0.0
-0.017501 -0.099415 0.0
0.060589 -0.146123 0.0
0.144574 -0.165359 0.0
0.226023 -0.141266 0.0
0.316172 -0.055985 0.0
0.404476 0.053843 0.0
0.472244 0.147116 0.0
0.519134 0.226143 0.0
0.544404 0.291251 0.0
0.546780 0.342083 0.0
0.525051 0.378567 0.0
0.478637 0.401231 0.0
0.409383 0.410544 0.0
0.325394 0.404431 0.0
0.243974 0.376124 0.0
0.185075 0.320113 0.0
0.160387 0.234870 0.0
0.169498 0.127174 0.0
0.202876 0.009969 0.0
0.247101 -0.100160 0.0
0.292404 -0.195534 0.0
0.335625 -0.272998 0.0
0.377241 -0.329564 0.0
0.420233 -0.362058 0.0
0.468938 -0.367166 0.0
0.527487 -0.342474 0.0
0.598187 -0.288336 0.0
0.680639 -0.209306 0.0
0.771761 -0.114063 0.0
0.862976 -0.017048 0.0
0.941341 0.065378 0.0
1.001718 0.129708 0.0
1.046443 0.179557 0.0
1.077138 0.217226 0.0
1.095075 0.244307 0.0
1.101413 0.262136 0.0
1.097209 0.272015 0.0
1.083311 0.275408 0.0
1.060205 0.274215 0.0
1.028017 0.270974 0.0
0.986987 0.268386 0.0
0.938584 0.267624 0.0
0.886669 0.266106 0.0
0.837435 0.257126 0.0
0.797455 0.233101 0.0
0.770994 0.190483 0.0
0.758760 0.131895 0.0
0.758802 0.064080 0.0
0.768145 -0.005450 0.0
0.783658 -0.069715 0.0
0.802612 -0.124957 0.0
0.822976 -0.169893 0.0
0.843250 -0.204560 0.0
0.862458 -0.229660 0.0
0.880214 -0.246091 0.0
0.896758 -0.254541 0.0
0.912919 -0.255187 0.0
0.929925 -0.247597 0.0
0.949067 -0.230949 0.0
0.971300 -0.204530 0.0
0.996946 -0.168338 0.0
1.025593 -0.123509 0.0
1.056168 -0.072414 0.0
1.086892 -0.018653 0.0
1.114794 0.032203 0.0
1.137185 0.076299 0.0
1.152887 0.112278 0.0
1.161474 0.139869 0.0
1.162986 0.159618 0.0
1.157734 0.172684 0.0
1.146209 0.180666 0.0
1.129069 0.185369 0.0
1.107187 0.188457 0.0
1.081721 0.190984 0.0
1.054133 0.192968 0.0
1.026113 0.193267 0.0
0.999371 0.189934 0.0
0.975390 0.180993 0.0
0.955222 0.165259 0.0
0.939419 0.142811 0.0
0.928098 0.114964 0.0
0.921045 0.083890 0.0
0.917812 0.052156 0.0
0.917763 0.022340 0.0
0.920078 -0.003222 0.0
0.923813 -0.022554 0.0
0.928017 -0.034239 0.0
0.998296 -0.010815 0.0
0.991279 -0.033518 0.0
0.976328 -0.058362 0.0
0.951275 -0.086608 0.0
0.911937 -0.119894 0.0
0.850254 -0.160434 0.0
0.749538 -0.211047 0.0
0.570215 -0.273678 0.0
0.226924 -0.335281 0.0
0.000000 0.284238 0.0
-0.000000 -0.000000 0.0
0.000000 0.000000 0.0
-0.038580 -0.037657 0.0
-0.081872 -0.129338 0.0
-0.077408 -0.198754 0.0
-0.055388 -0.218734 0.0
-0.029397 -0.195331 0.0
0.009554 -0.131019 0.0
0.073619 -0.023491 0.0
0.142077 0.088222 0.0
0.194177 0.186047 0.0
0.227606 0.272648 0.0
0.238785 0.347132 0.0
0.226146 0.407886 0.0
0.191779 0.452693 0.0
0.143202 0.476914 0.0
0.095790 0.469461 0.0
0.069563 0.418741 0.0
0.074503 0.331456 0.0
0.107447 0.215270 0.0
0.160136 0.084975 0.0
0.219727 -0.040801 0.0
0.275443 -0.149332 0.0
0.323413 -0.239635 0.0
0.362733 -0.311438 0.0
0.394276 -0.364283 0.0
0.421119 -0.397175 0.0
0.448444 -0.408080 0.0
0.482494 -0.394158 0.0
0.528519 -0.353378 0.0
0.588691 -0.286888 0.0
0.661357 -0.200269 0.0
0.741913 -0.102613 0.0
0.821503 -0.007013 0.0
0.889728 0.073497 0.0
0.942972 0.137799 0.0
0.982539 0.188722 0.0
1.009395 0.228020 0.0
1.024372 0.257108 0.0
1.028188 0.277430 0.0
1.021364 0.290714 0.0
1.004209 0.299170 0.0
0.977098 0.305319 0.0
0.941256 0.310914 0.0
0.899772 0.314981 0.0
0.857952 0.312485 0.0
0.822100 0.295833 0.0
0.797158 0.259317 0.0
0.784979 0.202907 0.0
0.784590 0.132094 0.0
0.793675 0.054754 0.0
0.809488 -0.021281 0.0
0.829234 -0.089143 0.0
0.850553 -0.145801 0.0
0.871610 -0.190471 0.0
0.891003 -0.223648 0.0
0.907764 -0.246541 0.0
0.921425 -0.260628 0.0
0.932119 -0.267241 0.0
0.940635 -0.267163 0.0
0.948359 -0.260352 0.0
0.957006 -0.245984 0.0
0.968183 -0.222905 0.0
0.982942 -0.190367 0.0
1.001514 -0.148700 0.0
1.023324 -0.099609 0.0
1.047165 -0.046024 0.0
1.071006 0.007829 0.0
1.092314 0.056975 0.0
1.109196 0.099017 0.0
1.120675 0.133064 0.0
1.126323 0.159265 0.0
1.126089 0.178524 0.0
1.120205 0.192235 0.0
1.109168 0.201976 0.0
1.093779 0.209120 0.0
1.075173 0.214394 0.0
1.054777 0.217542 0.0
1.034166 0.217325 0.0
1.014828 0.211956 0.0
0.997936 0.199843 0.0
0.984226 0.180287 0.0
0.974011 0.153801 0.0
0.967294 0.122013 0.0
0.963878 0.087309 0.0
0.963419 0.052429 0.0
0.965401 0.020135 0.0
0.969105 -0.007035 0.0
0.973677 -0.027048 0.0
0.978206 -0.038478 0.0
0.998104 -0.007215 0.0
0.990311 -0.022309 0.0
0.973809 -0.038117 0.0
0.946509 -0.054501 0.0
0.904678 -0.070832 0.0
0.842091 -0.085225 0.0
0.749305 -0.092753 0.0
0.615036 -0.078380 0.0
0.435475 -0.002840 0.0
0.167423 0.149789 0.0
0.000000 0.000000 0.0
-0.000000 -0.000000 0.0
0.000000 0.000000 0.0
-0.061642 -0.062313 0.0
-0.141431 -0.189782 0.0
-0.164938 -0.226219 0.0
-0.176652 -0.202124 0.0
-0.179898 -0.159932 0.0
-0.157007 -0.081533 0.0
-0.107656 0.028455 0.0
-0.052744 0.138803 0.0
-0.010527 0.244245 0.0
0.013665 0.340164 0.0
0.020082 0.421076 0.0
0.013911 0.480040 0.0
0.005884 0.506171 0.0
0.012549 0.480950 0.0
0.043931 0.402096 0.0
0.098234 0.288859 0.0
0.169302 0.153855 0.0
0.246784 0.016219 0.0
0.318321 -0.103172 0.0
0.377978 -0.202333 0.0
0.425501 -0.282126 0.0
0.460485 -0.343252 0.0
0.483339 -0.386866 0.0
0.496013 -0.414108 0.0
0.502720 -0.425180 0.0
0.510088 -0.418476 0.0
0.525874 -0.390871 0.0
0.556207 -0.339900 0.0
0.602954 -0.266671 0.0
0.663209 -0.177023 0.0
0.731018 -0.080001 0.0
0.797177 0.012101 0.0
0.853490 0.089638 0.0
0.897699 0.153105 0.0
0.930168 0.204312 0.0
0.951277 0.244731 0.0
0.961343 0.275926 0.0
0.960609 0.299775 0.0
0.949420 0.318453 0.0
0.928734 0.333833 0.0
0.900908 0.346069 0.0
0.870203 0.352015 0.0
0.842216 0.345258 0.0
0.822077 0.319050 0.0
0.812579 0.270542 0.0
0.813761 0.202678 0.0
0.824003 0.122470 0.0
0.841257 0.038039 0.0
0.862994 -0.042115 0.0
0.886479 -0.111541 0.0
0.909585 -0.167828 0.0
0.930718 -0.210635 0.0
0.948695 -0.240854 0.0
0.962703 -0.260104 0.0
0.972324 -0.270347 0.0
0.977615 -0.273507 0.0
0.979235 -0.271033 0.0
0.978509 -0.263480 0.0
0.977325 -0.250318 0.0
0.977768 -0.230190 0.0
0.981590 -0.201663 0.0
0.989758 -0.164144 0.0
1.002276 -0.118493 0.0
1.018325 -0.067030 0.0