# vtk DataFile Version 3.0
Scalar Field
ASCII
DATASET RECTILINEAR_GRID
DIMENSIONS 100 26 1
X_COORDINATES 100 double
0.050000 0.150000 0.250000 0.350000 0.450000 0.550000 0.650000 0.750000 0.850000 0.950000 1.050000 1.150000 1.250000 1.350000 1.450000 1.550000 1.650000 1.750000 1.850000 1.950000 2.050000 2.150000 2.250000 2.350000 2.450000 2.550000 2.650000 2.750000 2.850000 2.950000 3.050000 3.150000 3.250000 3.350000 3.450000 3.550000 3.650000 3.750000 3.850000 3.950000 4.050000 4.150000 4.250000 4.350000 4.450000 4.550000 4.650000 4.750000 4.850000 4.950000 5.050000 5.150000 5.250000 5.350000 5.450000 5.550000 5.650000 5.750000 5.850000 5.950000 6.050000 6.150000 6.250000 6.350000 6.450000 6.550000 6.650000 6.750000 6.850000 6.950000 7.050000 7.150000 7.250000 7.350000 7.450000 7.550000 7.650000 7.750000 7.850000 7.950000 8.050000 8.150000 8.250000 8.350000 8.450000 8.550000 8.650000 8.750000 8.850000 8.950000 9.050000 9.150000 9.250000 9.350000 9.450000 9.550000 9.650000 9.750000 9.850000 9.950000 
Y_COORDINATES 26 double
0.050000 0.150000 0.250000 0.350000 0.450000 0.550000 0.650000 0.750000 0.850000 0.950000 1.050000 1.150000 1.250000 1.350000 1.450000 1.550000 1.650000 1.750000 1.850000 1.950000 2.050000 2.150000 2.250000 2.350000 2.450000 2.550000 
Z_COORDINATES 1 double
0.0
POINT_DATA 2600
SCALARS Skalarfeld double 1
LOOKUP_TABLE default
0.263366
0.247993
0.232528
0.213957
0.191182
0.163770
0.131740
0.095559
0.056206
0.015189
-0.025578
-0.064082
-0.098556
-0.127749
-0.150700
-0.166904
-0.176607
-0.180358
-0.178929
-0.173224
-0.164197
-0.152793
-0.139901
-0.126329
-0.112786
-0.099865
-0.088025
-0.077552
-0.068531
-0.060851
-0.054268
-0.048527
-0.043484
-0.039170
-0.035787
-0.033638
-0.033007
-0.034038
-0.036620
-0.040324
-0.044377
-0.047667
-0.048747
-0.046151
-0.039389
-0.028106
-0.015363
-0.002829
0.008747
0.019090
0.028144
0.035925
0.042459
0.047772
0.051915
0.054801
0.056648
0.057024
0.055513
0.051742
0.045601
0.037462
0.028286
0.019328
0.011508
0.004986
-0.000602
-0.005530
-0.009641
-0.012509
-0.013839
-0.013664
-0.012004
-0.009417
-0.006274
-0.002872
0.000494
0.003543
0.006061
0.007972
0.009205
0.009940
0.010501
0.011285
0.012682
0.014927
0.018027
0.021864
0.026349
0.031455
0.037190
0.043521
0.050391
0.057757
0.065635
0.074017
0.082900
0.092315
0.102049
0.112276
0.254697
0.248127
0.235636
0.218212
0.195722
0.167994
0.135075
0.097437
0.056147
0.012933
-0.029947
-0.070158
-0.105730
-0.135221
-0.157977
-0.173903
-0.183046
-0.186008
-0.183627
-0.176866
-0.166743
-0.154261
-0.140372
-0.125942
-0.111735
-0.098401
-0.086442
-0.076159
-0.067610
-0.060589
-0.054721
-0.049626
-0.045080
-0.041086
-0.037854
-0.035720
-0.035011
-0.035909
-0.038342
-0.041909
-0.045864
-0.049066
-0.049863
-0.046277
-0.037510
-0.026958
-0.014863
-0.002840
0.008362
0.018438
0.027314
0.035002
0.041527
0.046927
0.051295
0.054860
0.057145
0.057652
0.056282
0.052512
0.046206
0.037778
0.028351
0.019321
0.011584
0.005106
-0.000660
-0.005992
-0.010544
-0.013658
-0.014915
-0.014531
-0.012644
-0.009949
-0.006701
-0.003160
0.000356
0.003616
0.006375
0.008332
0.009453
0.010024
0.010392
0.010987
0.012243
0.014407
0.017460
0.021245
0.025687
0.030805
0.036584
0.042983
0.049946
0.057429
0.065398
0.073856
0.082775
0.092348
0.102227
0.112926
0.258158
0.253937
0.243303
0.226837
0.204490
0.176021
0.141331
0.100791
0.055566
0.007805
-0.039415
-0.083060
-0.120854
-0.151436
-0.174257
-0.189409
-0.197184
-0.198275
-0.193656
-0.184423
-0.171731
-0.156738
-0.140558
-0.124224
-0.108667
-0.094692
-0.082916
-0.073665
-0.066894
-0.062088
-0.058470
-0.055302
-0.052143
-0.048909
-0.045819
-0.043267
-0.041660
-0.041268
-0.042101
-0.043831
-0.045746
-0.046741
-0.045447
-0.040763
-0.032611
-0.022056
-0.011284
-0.000612
0.009439
0.018566
0.026677
0.033758
0.039821
0.044890
0.049018
0.052262
0.054524
0.055518
0.054394
0.050927
0.045259
0.037684
0.029122
0.020595
0.012776
0.005729
-0.000754
-0.006631
-0.011413
-0.014469
-0.015497
-0.014658
-0.012979
-0.010549
-0.007347
-0.003744
-0.000181
0.003108
0.005850
0.007860
0.009164
0.009849
0.010247
0.010792
0.011872
0.013726
0.016426
0.019953
0.024286
0.029416
0.035301
0.041866
0.049023
0.056701
0.064885
0.073660
0.083213
0.093302
0.103635
0.114200
0.269437
0.265969
0.256329
0.240496
0.218064
0.188407
0.150995
0.105852
0.054171
-0.001251
-0.055561
-0.104435
-0.145275
-0.176995
-0.199468
-0.213123
-0.218581
-0.216710
-0.208654
-0.195671
-0.179104
-0.160322
-0.140665
-0.121393
-0.103661
-0.088529
-0.076907
-0.069199
-0.065111
-0.063816
-0.063838
-0.063718
-0.062697
-0.060585
-0.057633
-0.054338
-0.051231
-0.048702
-0.046884
-0.045586
-0.044284
-0.042191
-0.038461
-0.032562
-0.024600
-0.015284
-0.005548
0.003855
0.012544
0.020418
0.027401
0.033469
0.038613
0.042850
0.046226
0.048795
0.050513
0.051169
0.050409
0.047822
0.042987
0.036209
0.028457
0.020415
0.012723
0.005600
-0.000866
-0.006478
-0.010858
-0.013656
-0.014790
-0.014439
-0.012907
-0.010247
-0.007038
-0.003688
-0.000375
0.002801
0.005443
0.007385
0.008605
0.009217
0.009512
0.009866
0.010644
0.012129
0.014483
0.017782
0.022021
0.027176
0.033185
0.039950
0.047369
0.055375
0.063973
0.073270
0.083433
0.094532
0.106546
0.122506
0.287106
0.284021
0.275117
0.259909
0.237450
0.206410
0.165372
0.113504
0.051716
-0.016441
-0.081808
-0.137831
-0.182042
-0.214326
-0.235427
-0.246374
-0.248174
-0.241977
-0.229047
-0.210816
-0.188859
-0.164817
-0.140313
-0.116874
-0.095902
-0.078828
-0.067245
-0.061799
-0.061919
-0.065771
-0.071005
-0.075067
-0.076713
-0.075744
-0.072614
-0.068079
-0.062905
-0.057670
-0.052673
-0.047907
-0.043099
-0.037814
-0.031628
-0.024347
-0.016127
-0.007416
0.001237
0.009387
0.016826
0.023487
0.029266
0.034153
0.038143
0.041280
0.043636
0.045340
0.046421
0.046709
0.045851
0.043438
0.039207
0.033317
0.026091
0.018204
0.010697
0.003794
-0.002230
-0.007171
-0.010816
-0.013019
-0.013786
-0.013256
-0.011646
-0.009184
-0.006199
-0.002922
0.000409
0.003333
0.005721
0.007426
0.008381
0.008664
0.008562
0.008447
0.008695
0.009621
0.011480
0.014462
0.018488
0.023564
0.029618
0.036529
0.044172
0.052469
0.061434
0.071207
0.082064
0.094400
0.108771
0.133510
0.310446
0.307751
0.299798
0.285702
0.263857
0.231854
0.186663
0.125482
0.047915
-0.042436
-0.124570
-0.188934
-0.235351
-0.266375
-0.284235
-0.290622
-0.287159
-0.275039
-0.255532
-0.230251
-0.201067
-0.169980
-0.138982
-0.109924
-0.084405
-0.064247
-0.052373
-0.050065
-0.056445
-0.068396
-0.081255
-0.090874
-0.095548
-0.095361
-0.091310
-0.084709
-0.076741
-0.068265
-0.059772
-0.051435
-0.043194
-0.034876
-0.026329
-0.017540
-0.008679
-0.000052
0.008017
0.015278
0.021588
0.026854
0.031268
0.034851
0.037513
0.039414
0.040596
0.041337
0.041787
0.041807
0.041008
0.038895
0.035080
0.029472
0.022303
0.014540
0.007117
0.000257
-0.005367
-0.009609
-0.012396
-0.013739
-0.013748
-0.012612
-0.010567
-0.007864
-0.004766
-0.001519
0.001627
0.004389
0.006580
0.007983
0.008514
0.008274
0.007502
0.006589
0.005971
0.006045
0.007112
0.009394
0.012991
0.017840
0.023844
0.030835
0.038648
0.047177
0.056429
0.066573
0.077984
0.091306
0.107578
0.138297
0.338723
0.336606
0.330204
0.318311
0.298621
0.267294
0.218592
0.145393
0.042575
-0.089633
-0.195133
-0.264925
-0.308627
-0.334611
-0.346588
-0.346411
-0.336317
-0.316725
-0.288842
-0.254526
-0.216058
-0.175933
-0.136657
-0.100533
-0.069443
-0.044705
-0.031416
-0.032521
-0.046815
-0.069666
-0.094016
-0.111758
-0.119649
-0.119619
-0.113675
-0.104067
-0.092593
-0.080447
-0.068304
-0.056465
-0.045003
-0.033899
-0.023143
-0.012811
-0.003073
0.005851
0.013751
0.020473
0.025910
0.029960
0.032533
0.033799
0.034354
0.034869
0.034646
0.034288
0.034214
0.034304
0.034041
0.032765
0.029906
0.025168
0.018654
0.010974
0.002751
-0.004181
-0.009708
-0.013541
-0.015658
-0.016180
-0.015325
-0.013372
-0.010620
-0.007366
-0.003883
-0.000418
0.002794
0.005510
0.007497
0.008532
0.008504
0.007481
0.005729
0.003686
0.001865
0.000764
0.000779
0.002148
0.005128
0.009681
0.015605
0.022654
0.030602
0.039299
0.048729
0.059056
0.070690
0.084369
0.101308
0.132827
0.370856
0.369606
0.365654
0.357660
0.342847
0.315933
0.267334
0.181186
0.035834
-0.181969
-0.309992
-0.368618
-0.397849
-0.413757
-0.418102
-0.411596
-0.394650
-0.366775
-0.329237
-0.284305
-0.234842
-0.184018
-0.135054
-0.090931
-0.054089
-0.025544
-0.008160
-0.011104
-0.032029
-0.064781
-0.100873
-0.131030
-0.144476
-0.144583
-0.136433
-0.123618
-0.108660
-0.093066
-0.077635
-0.062736
-0.048511
-0.035023
-0.022337
-0.010572
0.000107
0.009512
0.017478
0.023849
0.028448
0.031076
0.031626
0.030297
0.027664
0.024458
0.022510
0.021470
0.021616
0.022561
0.023580
0.023856
0.022672
0.019556
0.014405
0.007554
-0.000291
-0.008022
-0.014043
-0.017886
-0.019759
-0.019804
-0.018307
-0.015632
-0.012167
-0.008278
-0.004290
-0.000484
0.002889
0.005580
0.007334
0.007921
0.007207
0.005246
0.002323
-0.001061
-0.004279
-0.006700
-0.007813
-0.007328
-0.004901
-0.000601
0.005267
0.012370
0.020407
0.029175
0.038611
0.048845
0.060251
0.073518
0.089759
0.118518
0.405232
0.405156
0.404639
0.402577
0.396423
0.380492
0.341897
0.251125
0.034123
-0.376701
-0.481240
-0.481437
-0.479839
-0.484351
-0.485682
-0.477643
-0.456237
-0.421369
-0.374896
-0.319745
-0.259509
-0.198199
-0.139969
-0.088664
-0.047440
-0.019088
0.000732
-0.001935
-0.024096
-0.058576
-0.097593
-0.132830
-0.157027
-0.160543
-0.151869
-0.137512
-0.120701
-0.103180
-0.085818
-0.069026
-0.053008
-0.037903
-0.023854
-0.011035
0.000356
0.010112
0.018009
0.023745
0.026898
0.027088
0.024339
0.019353
0.013412
0.007897
0.004239
0.003398
0.004701
0.007310
0.010278
0.012674
0.013693
0.012749
0.009576
0.004305
-0.002503
-0.009886
-0.016683
-0.021342
-0.023436
-0.023510
-0.021826
-0.018794
-0.014879
-0.010530
-0.006147
-0.002070
0.001405
0.004001
0.005444
0.005488
0.003990
0.001001
-0.003160
-0.007911
-0.012497
-0.016154
-0.018274
-0.018521
-0.016491
-0.012357
-0.006505
0.000640
0.008699
0.017399
0.026618
0.036423
0.047103
0.059216
0.073632
0.097728
0.439676
0.440973
0.444575
0.450066
0.456232
0.459550
0.449518
0.392273
0.138471
-0.728856
-0.675152
-0.547140
-0.515990
-0.515607
-0.526685
-0.525620
-0.505079
-0.468370
-0.418107
-0.357813
-0.291818
-0.225097
-0.163075
-0.110518
-0.069849
-0.041895
-0.028886
-0.029531
-0.043351
-0.067256
-0.096365
-0.124798
-0.146599
-0.157447
-0.152870
-0.139922
-0.124053
-0.107137
-0.090047
-0.073223
-0.056944
-0.041460
-0.027034
-0.013950
-0.002510
0.006958
0.014048
0.018198
0.018767
0.015423
0.008672
0.000040
-0.008410
-0.014937
-0.018109
-0.017515
-0.014206
-0.009326
-0.003985
0.000818
0.004250
0.005684
0.004761
0.001460
-0.003835
-0.010333
-0.016951
-0.022540
-0.025544
-0.026141
-0.024794
-0.021899
-0.017964
-0.013511
-0.009017
-0.004894
-0.001494
0.000863
0.001878
0.001290
-0.001051
-0.005080
-0.010430
-0.016431
-0.022220
-0.026928
-0.029873
-0.030683
-0.028908
-0.024854
-0.018988
-0.011827
-0.003837
0.004630
0.013380
0.022397
0.031863
0.042170
0.053925
0.072353
0.471655
0.474284
0.481931
0.495088
0.514562
0.541289
0.575450
0.612231
0.686893
-0.020981
-0.601986
-0.528821
-0.515779
-0.514198
-0.525992
-0.535399
-0.520406
-0.489257
-0.443981
-0.388555
-0.327984
-0.267605
-0.213266
-0.170034
-0.137623
-0.115687
-0.103734
-0.094400
-0.091868
-0.096144
-0.105752
-0.117937
-0.129084
-0.135800
-0.136205
-0.128738
-0.116303
-0.102416
-0.087857
-0.073038
-0.058288
-0.043969
-0.030491
-0.018301
-0.007871
0.000275
0.005481
0.006947
0.003989
-0.003359
-0.013816
-0.025035
-0.034512
-0.040529
-0.041796
-0.038791
-0.032827
-0.025255
-0.017306
-0.010015
-0.004203
-0.000471
0.000804
-0.000482
-0.004094
-0.009410
-0.015473
-0.021153
-0.025379
-0.026895
-0.026315
-0.024018
-0.020515
-0.016366
-0.012113
-0.008234
-0.005139
-0.003196
-0.002734
-0.004031
-0.007238
-0.012264
-0.018693
-0.025785
-0.032595
-0.038179
-0.041796
-0.043019
-0.041392
-0.037362
-0.031477
-0.024349
-0.016541
-0.008490
-0.000476
0.007400
0.015203
0.023161
0.031645
0.043818
0.498727
0.502353
0.513013
0.531815
0.560908
0.604070
0.667946
0.763963
0.899256
0.936497
0.000000
-0.519880
-0.510940
-0.502666
-0.503885
-0.506614
-0.498897
-0.475601
-0.440742
-0.398977
-0.355688
-0.316538
-0.284613
-0.259439
-0.238240
-0.220210
-0.200274
-0.177073
-0.154687
-0.136470
-0.123457
-0.115583
-0.111647
-0.109667
-0.107637
-0.104147
-0.097711
-0.088310
-0.077885
-0.066714
-0.055089
-0.043436
-0.032299
-0.022287
-0.014063
-0.008379
-0.006137
-0.008281
-0.015310
-0.026574
-0.039978
-0.052629
-0.061952
-0.066390
-0.064713
-0.058592
-0.049511
-0.038979
-0.028318
-0.018583
-0.010553
-0.004767
-0.001554
-0.001032
-0.003053
-0.007138
-0.012475
-0.018032
-0.022794
-0.025548
-0.025911
-0.024522
-0.021798
-0.018300
-0.014602
-0.011234
-0.008660
-0.007290
-0.007489
-0.009549
-0.013617
-0.019579
-0.026977
-0.035017
-0.042702
-0.049040
-0.053249
-0.054697
-0.053177
-0.049164
-0.043299
-0.036294
-0.028812
-0.021383
-0.014368
-0.007962
-0.002210
0.002967
0.007741
0.013280
0.519064
0.523155
0.535160
0.556239
0.588490
0.635106
0.699984
0.784734
0.882644
0.973738
0.893246
0.000000
-0.496580
-0.482221
-0.467616
-0.458051
-0.449335
-0.432594
-0.411229
-0.390435
-0.374867
-0.366571
-0.363834
-0.360307
-0.348394
-0.327191
-0.294442
-0.254566
-0.213023
-0.174224
-0.140844
-0.114393
-0.095310
-0.082954
-0.075798
-0.071868
-0.069219
-0.065590
-0.059918
-0.053323
-0.045892
-0.038031
-0.030363
-0.023629
-0.018672
-0.016475
-0.018150
-0.024644
-0.036061
-0.051009
-0.066717
-0.080022
-0.088543
-0.090104
-0.085089
-0.075505
-0.063110
-0.049566
-0.036264
-0.024254
-0.014260
-0.006738
-0.001934
0.000072
-0.000602
-0.003576
-0.008163
-0.013429
-0.018349
-0.021992
-0.023486
-0.023160
-0.021406
-0.018767
-0.015829
-0.013155
-0.011248
-0.010560
-0.011484
-0.014330
-0.019238
-0.026071
-0.034339
-0.043215
-0.051665
-0.058659
-0.063380
-0.064955
-0.063526
-0.059579
-0.053837
-0.047106
-0.040140
-0.033554
-0.027796
-0.023146
-0.019752
-0.017667
-0.016887
-0.018209
0.531816
0.535822
0.547491
0.567637
0.597538
0.638726
0.692520
0.758469
0.824628
0.848983
0.812754
0.700155
0.000000
-0.454798
-0.427374
-0.405594
-0.391679
-0.378902
-0.370403
-0.371540
-0.385291
-0.408673
-0.434520
-0.450678
-0.448070
-0.414522
-0.366625
-0.310672
-0.252700
-0.197660
-0.148915
-0.108517
-0.077483
-0.055889
-0.042854
-0.036600
-0.034776
-0.034985
-0.034503
-0.032706
-0.029875
-0.026352
-0.022804
-0.020077
-0.019189
-0.021345
-0.027785
-0.039279
-0.055345
-0.073840
-0.091456
-0.104887
-0.111844
-0.109928
-0.101404
-0.088350
-0.072787
-0.056492
-0.040874
-0.026945
-0.015355
-0.006466
-0.000437
0.002716
0.003114
0.001074
-0.002826
-0.007753
-0.012749
-0.016952
-0.019373
-0.020034
-0.019255
-0.017523
-0.015413
-0.013500
-0.012317
-0.012347
-0.014011
-0.017627
-0.023328
-0.030958
-0.040002
-0.049608
-0.058719
-0.066266
-0.071390
-0.073075
-0.071779
-0.068021
-0.062586
-0.056349
-0.050137
-0.044637
-0.040369
-0.037694
-0.036856
-0.038028
-0.041354
-0.049586
0.537145
0.540634
0.550715
0.567833
0.592593
0.625352
0.665064
0.706855
0.737814
0.731507
0.670676
0.587556
0.425335
0.000000
-0.390094
-0.352814
-0.341317
-0.330132
-0.330164
-0.347699
-0.385174
-0.436992
-0.488085
-0.518953
-0.508424
-0.465815
-0.406428
-0.338515
-0.269025
-0.203257
-0.144749
-0.095585
-0.056768
-0.028494
-0.010243
-0.000739
0.002044
0.000594
-0.002736
-0.005410
-0.006934
-0.007695
-0.008428
-0.010086
-0.013857
-0.021107
-0.033049
-0.050050
-0.070916
-0.092805
-0.112028
-0.125228
-0.129917
-0.124228
-0.112270
-0.096156
-0.078000
-0.059591
-0.042288
-0.027020
-0.014340
-0.004517
0.002376
0.006378
0.007623
0.006379
0.003128
-0.001403
-0.006318
-0.010735
-0.013958
-0.015420
-0.015490
-0.014583
-0.013246
-0.012056
-0.011565
-0.012280
-0.014641
-0.018971
-0.025391
-0.033723
-0.043431
-0.053649
-0.063302
-0.071289
-0.076685
-0.078501
-0.077464
-0.074105
-0.069239
-0.063782
-0.058600
-0.054427
-0.051836
-0.051259
-0.053029
-0.057436
-0.064767
-0.079700
0.536010
0.538766
0.546645
0.559691
0.577753
0.600018
0.624041
0.644133
0.649253
0.621596
0.543668
0.406917
0.263114
-0.144895
-0.380980
-0.324816
-0.304761
-0.288834
-0.293058
-0.323736
-0.379107
-0.448588
-0.512050
-0.544452
-0.524978
-0.477374
-0.412305
-0.339003
-0.264749
-0.194751
-0.132325
-0.079295
-0.036456
-0.003953
0.018530
0.031793
0.037209
0.036725
0.032513
0.026677
0.021760
0.017309
0.012504
0.006323
-0.002514
-0.015382
-0.033229
-0.055822
-0.081231
-0.106051
-0.126359
-0.138933
-0.139368
-0.131032
-0.116547
-0.098370
-0.078662
-0.059145
-0.041065
-0.025228
-0.012081
-0.001803
0.005599
0.010204
0.012149
0.011652
0.009096
0.005091
0.000439
-0.004012
-0.007580
-0.009669
-0.010396
-0.010146
-0.009444
-0.008863
-0.008968
-0.010283
-0.013259
-0.018213
-0.025247
-0.034158
-0.044392
-0.055076
-0.065134
-0.073473
-0.078915
-0.080994
-0.080431
-0.077753
-0.073779
-0.069422
-0.065551
-0.062912
-0.062106
-0.063617
-0.067863
-0.075250
-0.086217
-0.107275
0.529767
0.531669
0.537012
0.545544
0.556625
0.568817
0.579197
0.582379
0.569434
0.527094
0.438182
0.279778
0.004031
-0.552904
-0.437144
-0.324031
-0.279870
-0.262539
-0.273167
-0.311834
-0.373389
-0.445372
-0.507115
-0.522541
-0.500564
-0.452609
-0.388700
-0.317527
-0.245791
-0.178154
-0.117493
-0.065299
-0.022101
0.012125
0.037634
0.054788
0.064246
0.067147
0.065036
0.059320
0.052803
0.045784
0.037449
0.026902
0.012974
-0.005471
-0.028890
-0.056369
-0.085348
-0.112040
-0.132391
-0.142677
-0.140011
-0.129710
-0.113995
-0.095203
-0.075350
-0.055987
-0.038195
-0.022643
-0.009679
0.000584
0.008175
0.013191
0.015755
0.016033
0.014304
0.011047
0.006939
0.002755
-0.000830
-0.003230
-0.004358
-0.004550
-0.004303
-0.004182
-0.004758
-0.006564
-0.010050
-0.015517
-0.023039
-0.032382
-0.042977
-0.053952
-0.064246
-0.072766
-0.078095
-0.080734
-0.080929
-0.079257
-0.076515
-0.073572
-0.071254
-0.070278
-0.071243
-0.074667
-0.081040
-0.090883
-0.104799
-0.130916
0.519994
0.521044
0.523904
0.528159
0.532939
0.536613
0.536349
0.527559
0.503361
0.454170
0.367398
0.226885
0.013114
-0.252435
-0.294915
-0.273509
-0.256427
-0.253656
-0.270576
-0.308953
-0.364395
-0.424072
-0.462806
-0.467392
-0.444994
-0.401773
-0.345327
-0.282615
-0.219148
-0.158830
-0.104113
-0.056295
-0.015839
0.017328
0.043556
0.063234
0.076633
0.084019
0.086220
0.084233
0.079896
0.072212
0.061459
0.047347
0.029129
0.006149
-0.021435
-0.052092
-0.082845
-0.109761
-0.128823
-0.134641
-0.131096
-0.120587
-0.105444
-0.087791
-0.069365
-0.051472
-0.035005
-0.020513
-0.008281
0.001598
0.009147
0.014447
0.017592
0.018695
0.017949
0.015698
0.012476
0.008943
0.005720
0.003386
0.002151
0.001747
0.001724
0.001535
0.000613
-0.001574
-0.005465
-0.011330
-0.019201
-0.028813
-0.039585
-0.050665
-0.061043
-0.069447
-0.075060
-0.078386
-0.079606
-0.079252
-0.078048
-0.076773
-0.076159
-0.076855
-0.079429
-0.084408
-0.092335
-0.103836
-0.119674
-0.149186
0.508266
0.508549
0.509208
0.509781
0.509366
0.506420
0.498500
0.481991
0.451923
0.401982
0.324905
0.213944
0.068531
-0.087567
-0.167723
-0.199134
-0.214714
-0.230916
-0.255786
-0.291570
-0.334383
-0.373226
-0.394036
-0.394727
-0.375722
-0.340823
-0.295209
-0.243969
-0.191360
-0.140545
-0.093627
-0.051816
-0.015642
0.014836
0.039840
0.059701
0.074725
0.085165
0.091704
0.097097
0.096199
0.089661
0.078376
0.062620
0.042151
0.016902
-0.012346
-0.043587
-0.073665
-0.098825
-0.113791
-0.117743
-0.114444
-0.105542
-0.092878
-0.078103
-0.062557
-0.047254
-0.032915
-0.020014
-0.008832
0.000493
0.007923
0.013479
0.017205
0.019170
0.019497
0.018433
0.016378
0.013858
0.011403
0.009581
0.008548
0.008159
0.008040
0.007678
0.006518
0.004040
-0.000162
-0.006315
-0.014397
-0.024106
-0.034860
-0.045834
-0.056043
-0.064296
-0.070572
-0.074849
-0.077366
-0.078599
-0.079158
-0.079684
-0.080783
-0.083007
-0.086867
-0.092876
-0.101609
-0.113751
-0.130181
-0.160778
0.496005
0.495640
0.494465
0.492058
0.487617
0.479833
0.466759
0.445724
0.413349
0.365804
0.299480
0.212530
0.108360
0.001120
-0.077556
-0.128435
-0.163430
-0.192747
-0.222575
-0.254815
-0.286911
-0.312263
-0.325696
-0.325224
-0.310634
-0.284087
-0.248924
-0.208703
-0.166592
-0.125090
-0.085967
-0.050336
-0.018773
0.008544
0.031707
0.050965
0.066633
0.079040
0.089558
0.096328
0.097982
0.094164
0.084876
0.070206
0.050332
0.025811
-0.002032
-0.030886
-0.057630
-0.078344
-0.089557
-0.094008
-0.092882
-0.087472
-0.078998
-0.068510
-0.056894
-0.044885
-0.033080
-0.021942
-0.011823
-0.002966
0.004465
0.010387
0.014761
0.017614
0.019027
0.019185
0.018396
0.017073
0.015801
0.014778
0.014202
0.014035
0.013975
0.013551
0.012235
0.009535
0.005089
-0.001258
-0.009418
-0.019045
-0.029584
-0.040292
-0.050165
-0.058726
-0.065754
-0.071193
-0.075224
-0.078207
-0.080598
-0.082877
-0.085510
-0.088946
-0.093630
-0.100050
-0.108775
-0.120474
-0.136017
-0.164820
0.484412
0.483509
0.480845
0.476105
0.468659
0.457484
0.441120
0.417686
0.384991
0.340848
0.283668
0.213509
0.133710
0.052406
-0.017232
-0.071843
-0.114677
-0.150416
-0.182550
-0.212305
-0.238399
-0.257779
-0.268138
-0.267986
-0.257309
-0.237478
-0.210714
-0.179511
-0.146207
-0.112741
-0.080553
-0.050602
-0.023427
0.000756
0.021965
0.040361
0.056182
0.069878
0.081133
0.088971
0.092505
0.091141
0.084554
0.072658
0.055717
0.034568
0.010800
-0.013236
-0.034696
-0.050350
-0.061131
-0.067466
-0.070077
-0.069604
-0.066499
-0.061131
-0.053924
-0.045384
-0.036055
-0.026466
-0.017110
-0.008397
-0.000673
0.005856
0.011003
0.014795
0.017272
0.018622
0.019136
0.019142
0.018892
0.018674
0.018679
0.018866
0.018967
0.018547
0.017111
0.014211
0.009554
0.003077
-0.005038
-0.014382
-0.024488
-0.034775
-0.044626
-0.053665
-0.061643
-0.068429
-0.074073
-0.078778
-0.082838
-0.086580
-0.090354
-0.094529
-0.099500
-0.105726
-0.113765
-0.124128
-0.137457
-0.161327
0.474485
0.473109
0.469199
0.462618
0.452944
0.439434
0.421040
0.396477
0.364374
0.323534
0.273378
0.214554
0.149648
0.083504
0.022498
-0.030204
-0.074719
-0.112636
-0.145476
-0.173823
-0.197068
-0.213977
-0.223065
-0.223684
-0.216035
-0.201154
-0.180645
-0.156344
-0.130013
-0.103150
-0.076885
-0.051969
-0.028821
-0.007597
0.011716
0.029213
0.044978
0.059131
0.070962
0.079902
0.085234
0.086330
0.082768
0.074429
0.061638
0.045305
0.026956
0.008599
-0.007814
-0.021613
-0.032929
-0.042049
-0.049257
-0.054478
-0.057286
-0.057258
-0.054345
-0.048917
-0.041571
-0.032975
-0.023855
-0.014799
-0.006453
0.001006
0.007151
0.012001
0.015587
0.018017
0.019515
0.020406
0.020981
0.021481
0.022030
0.022563
0.022816
0.022373
0.020772
0.017618
0.012705
0.006115
-0.001867
-0.010823
-0.020459
-0.030323
-0.040237
-0.049943
-0.059066
-0.067265
-0.074392
-0.080510
-0.085789
-0.090451
-0.094774
-0.099158
-0.103940
-0.109484
-0.116468
-0.125094
-0.135583
-0.151827
0.467103
0.465207
0.460110
0.451971
0.440588
0.425447
0.405801
0.380785
0.349546
0.311461
0.266422
0.215181
0.159649
0.102892
0.048531
-0.000960
-0.044670
-0.082692
-0.115377
-0.142816
-0.164659
-0.180318
-0.188894
-0.190249
-0.184773
-0.173387
-0.157395
-0.138249
-0.117342
-0.095840
-0.074594
-0.054126
-0.034667
-0.016227
0.001306
0.018053
0.033930
0.048506
0.061213
0.071523
0.078795
0.082421
0.081962
0.077304
0.068797
0.057322
0.044142
0.030355
0.016800
0.004088
-0.008097
-0.020155
-0.032126
-0.043261
-0.052069
-0.057083
-0.057771
-0.054593
-0.048384
-0.039980
-0.030553
-0.020537
-0.011298
-0.003081
0.004076
0.009875
0.014342
0.017607
0.019902
0.021520
0.022746
0.023786
0.024724
0.025482
0.025772
0.025175
0.023257
0.019677
0.014335
0.007418
-0.000553
-0.009100
-0.017956
-0.027363
-0.037458
-0.047989
-0.058316
-0.067753
-0.075923
-0.082829
-0.088646
-0.093587
-0.097778
-0.101848
-0.106379
-0.111557
-0.117444
-0.124359
-0.132076
-0.140804
0.463242
0.460454
0.453923
0.444280
0.431490
0.415156
0.394705
0.369529
0.339095
0.303090
0.261612
0.215368
0.165793
0.114987
0.065332
0.018785
-0.023449
-0.060782
-0.092916
-0.119594
-0.140599
-0.155423
-0.163699
-0.165561
-0.161542
-0.152550
-0.139749
-0.124387
-0.107618
-0.090369
-0.073264
-0.056614
-0.040459
-0.024633
-0.008812
0.007397
0.023608
0.038966
0.052960
0.064933
0.074213
0.080194
0.082441
0.080845
0.075798
0.068203
0.058842
0.047928
0.036679
0.024890
0.011982
-0.002630
-0.018959
-0.035738
-0.050247
-0.059529
-0.062454
-0.060182
-0.054251
-0.044938
-0.034885
-0.024811
-0.014681
-0.005471
0.002490
0.009027
0.014153
0.018013
0.020846
0.022945
0.024603
0.025994
0.027160
0.028030
0.028239
0.027283
0.024675
0.020147
0.013822
0.006330
-0.001539
-0.009396
-0.017405
-0.026205
-0.036276
-0.047401
-0.058652
-0.068912
-0.077512
-0.084430
-0.089971
-0.094822
-0.099237
-0.103278
-0.107331
-0.111902
-0.117155
-0.123096
-0.129250
-0.134007
0.464582
0.459345
0.450650
0.439406
0.425399
0.408172
0.387164
0.361918
0.332074
0.297480
0.258316
0.215211
0.169301
0.122163
0.075589
0.031223
-0.009668
-0.046204
-0.077711
-0.103735
-0.124179
-0.138459
-0.146551
-0.148752
-0.145684
-0.138259
-0.127566
-0.114729
-0.100754
-0.086415
-0.072189
-0.058254
-0.044556
-0.030879
-0.016793
-0.001386
0.015038
0.031514
0.047107
0.060857
0.071971
0.079822
0.083974
0.084314
0.081328
0.076159
0.068433
0.059678
0.049908
0.038727
0.025445
0.009364
-0.009680
-0.030410
-0.049378
-0.061967
-0.065540
-0.061870
-0.055616
-0.047560
-0.037092
-0.026106
-0.015450
-0.005768
0.002595
0.009492
0.014940
0.019075
0.022130
0.024403
0.026259
0.027831
0.029077
0.029757
0.029575
0.028120
0.024907
0.019624
0.012466
0.004237
-0.004000
-0.011621
-0.018896
-0.026773
-0.036070
-0.046780
-0.058014
-0.068557
-0.077546
-0.084795
-0.090659
-0.095290
-0.099401
-0.103324
-0.107330
-0.111688
-0.116665
-0.122310
-0.128345
-0.133523
0.475621
0.461549
0.449746
0.437115
0.422271
0.404420
0.383079
0.357807
0.328309
0.294494
0.256554
0.215051
0.170960
0.125623
0.080582
0.037345
-0.002816
-0.038964
-0.070498
-0.096823
-0.117085
-0.131211
-0.139294
-0.141696
-0.139065
-0.132297
-0.122438
-0.110549
-0.097573
-0.084226
-0.070940
-0.057864
-0.044922
-0.031908
-0.018560
-0.004729
0.010963
0.028153
0.044865
0.059713
0.071770
0.080405
0.085210
0.086055
0.083204
0.077192
0.070098
0.061983
0.052714
0.041870
0.028818
0.012982
-0.005693
-0.026042
-0.045079
-0.058651
-0.064118
-0.062396
-0.055425
-0.046604
-0.036319
-0.025469
-0.014905
-0.005257
0.003107
0.010032
0.015518
0.019686
0.022745
0.024965
0.026595
0.027948
0.029008
0.029514
0.029126
0.027449
0.024083
0.018798
0.011765
0.003650
-0.004639
-0.012499
-0.020054
-0.028004
-0.037005
-0.047102
-0.057659
-0.067741
-0.076613
-0.084008
-0.090068
-0.095080
-0.099324
-0.103298
-0.107378
-0.111894
-0.116913
-0.122457
-0.128402
-0.134765
