# vtk DataFile Version 3.0
Scalar Field
ASCII
DATASET RECTILINEAR_GRID
DIMENSIONS 100 26 1
X_COORDINATES 100 double
0.050000 0.150000 0.250000 0.350000 0.450000 0.550000 0.650000 0.750000 0.850000 0.950000 1.050000 1.150000 1.250000 1.350000 1.450000 1.550000 1.650000 1.750000 1.850000 1.950000 2.050000 2.150000 2.250000 2.350000 2.450000 2.550000 2.650000 2.750000 2.850000 2.950000 3.050000 3.150000 3.250000 3.350000 3.450000 3.550000 3.650000 3.750000 3.850000 3.950000 4.050000 4.150000 4.250000 4.350000 4.450000 4.550000 4.650000 4.750000 4.850000 4.950000 5.050000 5.150000 5.250000 5.350000 5.450000 5.550000 5.650000 5.750000 5.850000 5.950000 6.050000 6.150000 6.250000 6.350000 6.450000 6.550000 6.650000 6.750000 6.850000 6.950000 7.050000 7.150000 7.250000 7.350000 7.450000 7.550000 7.650000 7.750000 7.850000 7.950000 8.050000 8.150000 8.250000 8.350000 8.450000 8.550000 8.650000 8.750000 8.850000 8.950000 9.050000 9.150000 9.250000 9.350000 9.450000 9.550000 9.650000 9.750000 9.850000 9.950000 
Y_COORDINATES 26 double
0.050000 0.150000 0.250000 0.350000 0.450000 0.550000 0.650000 0.750000 0.850000 0.950000 1.050000 1.150000 1.250000 1.350000 1.450000 1.550000 1.650000 1.750000 1.850000 1.950000 2.050000 2.150000 2.250000 2.350000 2.450000 2.550000 
Z_COORDINATES 1 double
0.0
POINT_DATA 2600
SCALARS Skalarfeld double 1
LOOKUP_TABLE default
0.267250
0.251862
0.236335
0.217648
0.194678
0.166961
0.134469
0.097610
0.057307
0.015019
-0.027360
-0.067794
-0.104459
-0.136008
-0.161332
-0.179705
-0.191209
-0.196257
-0.195521
-0.189844
-0.180154
-0.167393
-0.152450
-0.136130
-0.119136
-0.102079
-0.085497
-0.069875
-0.055652
-0.043190
-0.032738
-0.024389
-0.018009
-0.013324
-0.010040
-0.007978
-0.007133
-0.007658
-0.009769
-0.013618
-0.019153
-0.026009
-0.033433
-0.040194
-0.044558
-0.044704
-0.040247
-0.030741
-0.019543
-0.008214
0.002454
0.012074
0.020503
0.027730
0.033806
0.038816
0.042872
0.046070
0.048502
0.050136
0.050544
0.049416
0.046515
0.041903
0.036066
0.029822
0.023945
0.018732
0.013945
0.009216
0.004498
0.000178
-0.003169
-0.005126
-0.005624
-0.004842
-0.003056
-0.000577
0.002319
0.005371
0.008317
0.010899
0.012994
0.014658
0.016063
0.017496
0.019303
0.021764
0.025006
0.029040
0.033874
0.039573
0.046240
0.053951
0.062719
0.072500
0.083221
0.094866
0.107337
0.121368
0.258623
0.252042
0.239501
0.221972
0.199303
0.171285
0.137918
0.099615
0.057380
0.012887
-0.031631
-0.073831
-0.111685
-0.143646
-0.168913
-0.187217
-0.198381
-0.202851
-0.201342
-0.194742
-0.184026
-0.170185
-0.154160
-0.136806
-0.118870
-0.101003
-0.083779
-0.067717
-0.053292
-0.040881
-0.030730
-0.022956
-0.017308
-0.013384
-0.010773
-0.009228
-0.008727
-0.009439
-0.011619
-0.015460
-0.020956
-0.027788
-0.035237
-0.042029
-0.046194
-0.045465
-0.038803
-0.029868
-0.019301
-0.008342
0.002091
0.011537
0.019832
0.026965
0.032999
0.038029
0.042197
0.045718
0.048652
0.050502
0.051042
0.050051
0.047171
0.042454
0.036473
0.030155
0.024336
0.019221
0.014406
0.009408
0.004225
-0.000574
-0.004218
-0.006218
-0.006604
-0.005652
-0.003628
-0.001009
0.002064
0.005338
0.008447
0.011103
0.013178
0.014778
0.016056
0.017324
0.018975
0.021308
0.024437
0.028351
0.033061
0.038658
0.045269
0.052978
0.061803
0.071727
0.082702
0.094530
0.107142
0.121972
0.262163
0.257935
0.247263
0.230714
0.208214
0.179488
0.144384
0.103210
0.057059
0.008009
-0.040901
-0.086643
-0.126911
-0.160259
-0.185991
-0.204046
-0.214365
-0.217464
-0.214139
-0.205355
-0.192182
-0.175727
-0.157062
-0.137184
-0.116985
-0.097250
-0.078673
-0.061895
-0.047490
-0.035905
-0.027352
-0.021646
-0.018496
-0.017003
-0.016384
-0.016217
-0.016423
-0.017198
-0.018863
-0.021701
-0.025791
-0.030878
-0.036259
-0.040705
-0.042597
-0.040619
-0.034636
-0.025811
-0.015930
-0.006181
0.003281
0.011901
0.019511
0.026083
0.031664
0.036346
0.040253
0.043523
0.046210
0.048259
0.049300
0.048777
0.046463
0.042500
0.037331
0.031562
0.025835
0.020313
0.014805
0.009120
0.003468
-0.001515
-0.005112
-0.006954
-0.007130
-0.006087
-0.004284
-0.001824
0.001270
0.004572
0.007716
0.010527
0.012843
0.014584
0.015927
0.017157
0.018655
0.020692
0.023425
0.026946
0.031351
0.036772
0.043336
0.051109
0.060105
0.070311
0.081725
0.094401
0.108168
0.125388
0.273547
0.270079
0.260415
0.244523
0.221973
0.192102
0.154323
0.108592
0.056016
-0.000710
-0.056777
-0.107885
-0.151457
-0.186374
-0.212370
-0.229641
-0.238443
-0.239336
-0.233209
-0.221123
-0.204276
-0.183936
-0.161367
-0.137769
-0.114229
-0.091708
-0.071049
-0.053025
-0.038484
-0.028057
-0.021904
-0.019588
-0.020090
-0.022455
-0.024974
-0.026925
-0.028163
-0.028930
-0.029656
-0.030745
-0.032401
-0.034505
-0.036542
-0.037638
-0.036789
-0.033317
-0.027256
-0.019344
-0.010577
-0.001618
0.006652
0.014124
0.020695
0.026327
0.031049
0.034942
0.038129
0.040755
0.042925
0.044633
0.045672
0.045719
0.044442
0.041530
0.037156
0.031714
0.025996
0.020157
0.014324
0.008551
0.003119
-0.001489
-0.004819
-0.006683
-0.007166
-0.006459
-0.004716
-0.002057
0.000946
0.004052
0.007055
0.009869
0.012196
0.013968
0.015292
0.016414
0.017618
0.019210
0.021439
0.024499
0.028564
0.033795
0.040343
0.048244
0.057495
0.068157
0.080290
0.094011
0.109490
0.132883
0.291339
0.288260
0.279350
0.264111
0.241574
0.210368
0.169017
0.116608
0.053956
-0.015548
-0.082740
-0.141129
-0.188369
-0.224424
-0.249914
-0.265487
-0.271744
-0.269365
-0.259251
-0.242554
-0.220642
-0.195007
-0.167164
-0.138567
-0.110543
-0.084247
-0.060655
-0.040628
-0.025586
-0.016530
-0.013694
-0.016290
-0.022515
-0.029931
-0.036664
-0.041170
-0.043406
-0.043820
-0.043089
-0.041846
-0.040492
-0.039111
-0.037458
-0.035054
-0.031381
-0.026148
-0.019466
-0.011808
-0.003794
0.004038
0.011236
0.017614
0.023103
0.027660
0.031303
0.034141
0.036327
0.038066
0.039530
0.040800
0.041735
0.042005
0.041195
0.038973
0.035226
0.030325
0.024561
0.018348
0.012371
0.006739
0.001757
-0.002258
-0.005061
-0.006567
-0.006840
-0.006022
-0.004290
-0.001856
0.000994
0.004061
0.007125
0.009774
0.011939
0.013528
0.014593
0.015332
0.016014
0.016978
0.018553
0.021014
0.024593
0.029483
0.035857
0.043681
0.053044
0.064009
0.076686
0.091320
0.108406
0.136254
0.314811
0.312129
0.304188
0.290091
0.268208
0.236086
0.190627
0.128936
0.050507
-0.041306
-0.125274
-0.191996
-0.241673
-0.277203
-0.300755
-0.313223
-0.315788
-0.308959
-0.293483
-0.270613
-0.241955
-0.209312
-0.174536
-0.139415
-0.105577
-0.074404
-0.046979
-0.024070
-0.007900
-0.000348
-0.001908
-0.011340
-0.025716
-0.040944
-0.052949
-0.060134
-0.062930
-0.062241
-0.059263
-0.055030
-0.050227
-0.045166
-0.039848
-0.034088
-0.027681
-0.020554
-0.012859
-0.004934
0.002807
0.009996
0.016351
0.021710
0.025973
0.029205
0.031576
0.033136
0.034099
0.034772
0.035354
0.036067
0.036836
0.037309
0.036981
0.035379
0.032226
0.027570
0.021645
0.015283
0.009136
0.003452
-0.001220
-0.004679
-0.006827
-0.007685
-0.007376
-0.006084
-0.004017
-0.001398
0.001547
0.004600
0.007536
0.010095
0.012090
0.013395
0.014005
0.014084
0.013949
0.013993
0.014617
0.016181
0.018980
0.023238
0.029106
0.036671
0.045998
0.057107
0.070096
0.085242
0.103137
0.131768
0.343217
0.341120
0.334748
0.322883
0.303193
0.271785
0.222834
0.149096
0.045306
-0.088595
-0.195592
-0.267203
-0.313999
-0.345322
-0.365182
-0.373269
-0.371522
-0.359295
-0.337086
-0.306348
-0.269067
-0.227483
-0.183904
-0.140565
-0.099499
-0.062415
-0.030570
-0.004528
0.013936
0.020463
0.014220
-0.002997
-0.027160
-0.052614
-0.073106
-0.083472
-0.086380
-0.083784
-0.077787
-0.070017
-0.061501
-0.052759
-0.043967
-0.035117
-0.026170
-0.017164
-0.008260
0.000276
0.008149
0.015101
0.020941
0.025528
0.028740
0.030488
0.030814
0.030157
0.029220
0.028664
0.028142
0.028257
0.029007
0.029948
0.030435
0.029840
0.027706
0.023862
0.018459
0.012046
0.005179
-0.000684
-0.005356
-0.008539
-0.010187
-0.010408
-0.009405
-0.007438
-0.004782
-0.001699
0.001569
0.004799
0.007769
0.010242
0.011995
0.012868
0.012832
0.012046
0.010843
0.009676
0.009042
0.009408
0.011163
0.014574
0.019781
0.027012
0.036210
0.047319
0.060373
0.075577
0.093409
0.120629
0.375466
0.374241
0.370336
0.362397
0.347616
0.320642
0.271768
0.184936
0.038183
-0.181621
-0.309679
-0.368289
-0.399310
-0.420933
-0.436991
-0.442271
-0.437341
-0.419693
-0.389945
-0.350078
-0.302666
-0.250536
-0.196586
-0.143640
-0.094292
-0.050749
-0.014745
0.012459
0.033973
0.040757
0.031352
0.008489
-0.022939
-0.056783
-0.086413
-0.105230
-0.108830
-0.104569
-0.095790
-0.084826
-0.073051
-0.061162
-0.049450
-0.038011
-0.026897
-0.016204
-0.006104
0.003176
0.011398
0.018356
0.023866
0.027728
0.029708
0.029638
0.027640
0.024312
0.020541
0.017335
0.015799
0.015834
0.017157
0.019115
0.020920
0.021822
0.021229
0.018806
0.014530
0.008744
0.002082
-0.004510
-0.009629
-0.012887
-0.014397
-0.014271
-0.012762
-0.010204
-0.006953
-0.003341
0.000334
0.003815
0.006859
0.009219
0.010660
0.011001
0.010197
0.008394
0.005954
0.003402
0.001352
0.000400
0.001030
0.003545
0.008147
0.015027
0.024024
0.034989
0.047853
0.062693
0.079787
0.104589
0.409932
0.409886
0.409430
0.407447
0.401353
0.385374
0.346439
0.254680
0.035183
-0.378410
-0.478936
-0.475713
-0.472829
-0.480593
-0.497413
-0.509134
-0.504953
-0.483796
-0.447572
-0.399236
-0.342085
-0.279609
-0.215404
-0.153060
-0.095940
-0.046862
-0.007954
0.019428
0.034623
0.042044
0.032036
0.009634
-0.020689
-0.054188
-0.085502
-0.109458
-0.120666
-0.117066
-0.107610
-0.095364
-0.082025
-0.068445
-0.055021
-0.041954
-0.029392
-0.017504
-0.006505
0.003364
0.011857
0.018731
0.023699
0.026375
0.026360
0.023521
0.018319
0.011890
0.005698
0.000936
-0.001042
-0.000348
0.002217
0.005738
0.009292
0.012049
0.013346
0.012739
0.010071
0.005519
-0.000383
-0.006780
-0.012648
-0.016584
-0.018339
-0.018301
-0.016682
-0.013855
-0.010250
-0.006281
-0.002316
0.001327
0.004364
0.006528
0.007566
0.007286
0.005628
0.002741
-0.000979
-0.004919
-0.008350
-0.010561
-0.010991
-0.009310
-0.005242
0.001275
0.009992
0.020653
0.033068
0.047167
0.063023
0.084906
0.444430
0.445760
0.449434
0.455027
0.461281
0.464580
0.454185
0.395681
0.138018
-0.735947
-0.670163
-0.536211
-0.501835
-0.498095
-0.517950
-0.549947
-0.553931
-0.534226
-0.496472
-0.444577
-0.382359
-0.313905
-0.243606
-0.176088
-0.115919
-0.066763
-0.030438
-0.006591
0.005697
0.006900
0.000865
-0.012820
-0.032515
-0.055796
-0.079378
-0.099386
-0.112275
-0.115833
-0.108543
-0.097714
-0.085240
-0.072065
-0.058683
-0.045409
-0.032514
-0.020289
-0.009049
0.000880
0.009160
0.015416
0.019169
0.019839
0.016990
0.010765
0.002228
-0.006805
-0.014434
-0.019392
-0.020497
-0.018320
-0.013933
-0.008444
-0.002874
0.001904
0.005202
0.006539
0.005676
0.002668
-0.002089
-0.007861
-0.013676
-0.018510
-0.020993
-0.021477
-0.020196
-0.017531
-0.013954
-0.009949
-0.005958
-0.002364
0.000500
0.002331
0.002860
0.001881
-0.000672
-0.004637
-0.009575
-0.014798
-0.019481
-0.022827
-0.024216
-0.023298
-0.019734
-0.013613
-0.005278
0.004898
0.016598
0.029606
0.043818
0.062429
0.476420
0.479081
0.486808
0.500083
0.519683
0.546468
0.580436
0.616359
0.688683
-0.023632
-0.593086
-0.516010
-0.503034
-0.499748
-0.513160
-0.543422
-0.563946
-0.550267
-0.517898
-0.470328
-0.411537
-0.346125
-0.279392
-0.216941
-0.163693
-0.122583
-0.094619
-0.076497
-0.066515
-0.061143
-0.056899
-0.055968
-0.059047
-0.065934
-0.075498
-0.085664
-0.093900
-0.098147
-0.097564
-0.090238
-0.080742
-0.069967
-0.058425
-0.046510
-0.034618
-0.023180
-0.012653
-0.003507
0.003768
0.008609
0.010335
0.008261
0.002105
-0.007478
-0.018739
-0.029349
-0.037277
-0.041296
-0.040547
-0.036220
-0.029557
-0.021807
-0.014074
-0.007251
-0.002009
0.001186
0.002075
0.000644
-0.002829
-0.007740
-0.013216
-0.018271
-0.021916
-0.023102
-0.022502
-0.020390
-0.017233
-0.013551
-0.009843
-0.006554
-0.004066
-0.002718
-0.002804
-0.004543
-0.007999
-0.012994
-0.019051
-0.025426
-0.031230
-0.035603
-0.037880
-0.037691
-0.034635
-0.028977
-0.021162
-0.011683
-0.000985
0.010580
0.022766
0.037738
0.503451
0.507106
0.517845
0.536774
0.566026
0.609349
0.673325
0.769294
0.904972
0.941690
0.000000
-0.509708
-0.503406
-0.497399
-0.503212
-0.518150
-0.531226
-0.526632
-0.501484
-0.462674
-0.414244
-0.360925
-0.308711
-0.263485
-0.228658
-0.204575
-0.187323
-0.174132
-0.159889
-0.142442
-0.123749
-0.106177
-0.091492
-0.080838
-0.074650
-0.072467
-0.072958
-0.074341
-0.074981
-0.073652
-0.068246
-0.061177
-0.052835
-0.043611
-0.033969
-0.024459
-0.015682
-0.008263
-0.002869
-0.000262
-0.001286
-0.006612
-0.016182
-0.028737
-0.041950
-0.053248
-0.060733
-0.062686
-0.059557
-0.052627
-0.043369
-0.033179
-0.023231
-0.014426
-0.007396
-0.002556
-0.000128
-0.000145
-0.002400
-0.006403
-0.011389
-0.016434
-0.020648
-0.022849
-0.023147
-0.021857
-0.019415
-0.016349
-0.013193
-0.010434
-0.008501
-0.007769
-0.008556
-0.011092
-0.015440
-0.021406
-0.028487
-0.035905
-0.042732
-0.048064
-0.051195
-0.051733
-0.049220
-0.044140
-0.037034
-0.028510
-0.019140
-0.009395
0.000368
0.011248
0.523695
0.527808
0.539884
0.561082
0.593499
0.640328
0.705560
0.790755
0.888387
0.978407
0.898776
0.000000
-0.496739
-0.490073
-0.479851
-0.477448
-0.476775
-0.470203
-0.449376
-0.418858
-0.384194
-0.350977
-0.324486
-0.307812
-0.299503
-0.293595
-0.287437
-0.274170
-0.248296
-0.216746
-0.182801
-0.149435
-0.119009
-0.093248
-0.073273
-0.059527
-0.051645
-0.048436
-0.048145
-0.048892
-0.048724
-0.045775
-0.041319
-0.035620
-0.029122
-0.022438
-0.016275
-0.011399
-0.008655
-0.008993
-0.013359
-0.022278
-0.035239
-0.050395
-0.065002
-0.076372
-0.082685
-0.082178
-0.076235
-0.066437
-0.054459
-0.041819
-0.029741
-0.019116
-0.010525
-0.004311
-0.000631
0.000508
-0.000718
-0.003900
-0.008371
-0.013271
-0.017705
-0.020903
-0.022072
-0.021697
-0.020119
-0.017839
-0.015401
-0.013320
-0.012059
-0.012024
-0.013558
-0.016899
-0.022109
-0.028983
-0.037005
-0.045381
-0.053160
-0.059410
-0.063385
-0.064637
-0.062755
-0.058431
-0.052287
-0.045037
-0.037366
-0.029852
-0.022936
-0.016702
0.536306
0.540325
0.552043
0.572282
0.602319
0.643615
0.697319
0.763269
0.830273
0.854603
0.819145
0.705573
0.000000
-0.469575
-0.449078
-0.429792
-0.416439
-0.399854
-0.376858
-0.352908
-0.333868
-0.324715
-0.328286
-0.343156
-0.362885
-0.377477
-0.377601
-0.354090
-0.316290
-0.271404
-0.223849
-0.177299
-0.134537
-0.097489
-0.067372
-0.044813
-0.029857
-0.021852
-0.019383
-0.020452
-0.022922
-0.024540
-0.023981
-0.022078
-0.019125
-0.015749
-0.012729
-0.010957
-0.011448
-0.015314
-0.023516
-0.036304
-0.052652
-0.070193
-0.085892
-0.097006
-0.101698
-0.098244
-0.089326
-0.076691
-0.062158
-0.047317
-0.033401
-0.021265
-0.011427
-0.004149
0.000483
0.002505
0.002089
-0.000410
-0.004409
-0.009125
-0.013702
-0.017393
-0.019441
-0.019958
-0.019250
-0.017791
-0.016119
-0.014763
-0.014210
-0.014891
-0.017166
-0.021284
-0.027303
-0.035011
-0.043888
-0.053135
-0.061797
-0.068930
-0.073787
-0.075624
-0.074566
-0.071250
-0.066385
-0.060780
-0.055215
-0.050358
-0.046726
-0.045755
0.541459
0.544950
0.555044
0.572161
0.596915
0.629695
0.669542
0.711500
0.742798
0.736623
0.675818
0.592000
0.427418
0.000000
-0.414336
-0.379595
-0.365715
-0.335960
-0.305204
-0.284436
-0.278729
-0.291134
-0.322020
-0.366892
-0.411782
-0.439893
-0.438309
-0.404472
-0.356864
-0.301685
-0.244161
-0.188418
-0.137413
-0.093055
-0.056432
-0.028041
-0.007942
0.004247
0.009486
0.009414
0.006173
0.001924
-0.001397
-0.003104
-0.003606
-0.003585
-0.003893
-0.005535
-0.009684
-0.017546
-0.029965
-0.046801
-0.066491
-0.086231
-0.102795
-0.113559
-0.115275
-0.109207
-0.097646
-0.082624
-0.066069
-0.049588
-0.034373
-0.021210
-0.010539
-0.002547
0.002746
0.005417
0.005637
0.003715
0.000156
-0.004333
-0.008950
-0.012969
-0.015638
-0.016882
-0.016930
-0.016212
-0.015250
-0.014575
-0.014689
-0.016042
-0.019008
-0.023836
-0.030581
-0.039027
-0.048653
-0.058666
-0.068116
-0.076056
-0.081740
-0.084217
-0.084185
-0.082165
-0.078931
-0.075358
-0.072301
-0.070502
-0.070546
-0.075430
0.540133
0.542878
0.550739
0.563765
0.581796
0.604038
0.628066
0.648179
0.653321
0.625574
0.547274
0.409090
0.262837
-0.152908
-0.416067
-0.363750
-0.336936
-0.287474
-0.246094
-0.224109
-0.228680
-0.259616
-0.312868
-0.378051
-0.437129
-0.470044
-0.458241
-0.420733
-0.367980
-0.307597
-0.245392
-0.185606
-0.131092
-0.083553
-0.043837
-0.012226
0.011317
0.027035
0.035479
0.037708
0.035374
0.030437
0.024764
0.020332
0.016950
0.013917
0.010351
0.005160
-0.002914
-0.015046
-0.031812
-0.052596
-0.075331
-0.096866
-0.113792
-0.123222
-0.122187
-0.113916
-0.100439
-0.083897
-0.066223
-0.048956
-0.033198
-0.019637
-0.008631
-0.000296
0.005392
0.008536
0.009293
0.007923
0.004850
0.000694
-0.003798
-0.007896
-0.011019
-0.012778
-0.013402
-0.013275
-0.012897
-0.012798
-0.013488
-0.015426
-0.018993
-0.024435
-0.031798
-0.040861
-0.051105
-0.061754
-0.071871
-0.080516
-0.086891
-0.090230
-0.091426
-0.090994
-0.089725
-0.088533
-0.088313
-0.089866
-0.093849
-0.105015
0.533702
0.535586
0.540896
0.549378
0.560388
0.572492
0.582766
0.585810
0.572661
0.529975
0.440382
0.280239
0.000100
-0.568653
-0.468384
-0.361139
-0.306318
-0.255034
-0.209131
-0.189948
-0.203173
-0.244271
-0.306644
-0.377366
-0.437558
-0.459660
-0.443649
-0.405033
-0.352266
-0.292594
-0.231572
-0.173140
-0.119844
-0.073117
-0.033580
-0.001313
0.023878
0.042249
0.054054
0.059754
0.060293
0.057115
0.051701
0.045925
0.040654
0.035140
0.028581
0.019917
0.007937
-0.008338
-0.029092
-0.053220
-0.078256
-0.100853
-0.117702
-0.124490
-0.121488
-0.111901
-0.097668
-0.080844
-0.063231
-0.046227
-0.030798
-0.017527
-0.006692
0.001634
0.007497
0.011000
0.012272
0.011514
0.009060
0.005428
0.001285
-0.002679
-0.005925
-0.007986
-0.008981
-0.009266
-0.009320
-0.009667
-0.010819
-0.013238
-0.017302
-0.023245
-0.031100
-0.040640
-0.051354
-0.062489
-0.073147
-0.082455
-0.089297
-0.093752
-0.096416
-0.097832
-0.098795
-0.100216
-0.103004
-0.108001
-0.115947
-0.133477
0.523755
0.524783
0.527597
0.531780
0.536455
0.539991
0.539547
0.530520
0.505996
0.456333
0.368810
0.226849
0.009972
-0.262526
-0.312045
-0.289929
-0.257810
-0.223122
-0.195120
-0.186556
-0.203242
-0.244319
-0.302513
-0.364050
-0.407514
-0.416630
-0.400145
-0.364617
-0.316999
-0.263377
-0.208497
-0.155740
-0.107291
-0.064386
-0.027551
0.003175
0.028046
0.047424
0.061613
0.070799
0.075274
0.075789
0.073234
0.069267
0.063726
0.056659
0.047718
0.036082
0.020763
0.001124
-0.022571
-0.048806
-0.074853
-0.097245
-0.112509
-0.116660
-0.113170
-0.103722
-0.090239
-0.074578
-0.058315
-0.042644
-0.028379
-0.016005
-0.005758
0.002299
0.008198
0.012011
0.013829
0.013786
0.012128
0.009266
0.005761
0.002228
-0.000822
-0.002906
-0.004052
-0.004569
-0.004907
-0.005577
-0.007085
-0.009888
-0.014349
-0.020680
-0.028895
-0.038760
-0.049783
-0.061243
-0.072278
-0.082017
-0.089509
-0.095279
-0.099601
-0.103041
-0.106369
-0.110452
-0.116174
-0.124403
-0.135978
-0.159399
0.511877
0.512135
0.512741
0.513228
0.512692
0.509584
0.501456
0.484682
0.454276
0.403902
0.326259
0.214498
0.067876
-0.090213
-0.170887
-0.197118
-0.198105
-0.189392
-0.182319
-0.186292
-0.206149
-0.241439
-0.286077
-0.328124
-0.351950
-0.356149
-0.341605
-0.312284
-0.273070
-0.228553
-0.182486
-0.137645
-0.095895
-0.058344
-0.025523
0.002447
0.025721
0.044598
0.059405
0.070432
0.077960
0.082209
0.085385
0.085069
0.080855
0.073666
0.063646
0.050301
0.033007
0.011564
-0.013338
-0.039896
-0.065324
-0.086335
-0.098063
-0.101677
-0.098916
-0.091161
-0.079988
-0.066891
-0.053132
-0.039674
-0.027190
-0.016109
-0.006667
0.001026
0.006943
0.011094
0.013514
0.014282
0.013569
0.011688
0.009093
0.006307
0.003797
0.001999
0.000924
0.000341
-0.000156
-0.001052
-0.002838
-0.005953
-0.010728
-0.017343
-0.025786
-0.035822
-0.046991
-0.058626
-0.069941
-0.079919
-0.088428
-0.095582
-0.101653
-0.107166
-0.112809
-0.119358
-0.127634
-0.138502
-0.152919
-0.180993
0.499492
0.499102
0.497872
0.495377
0.490815
0.482873
0.469604
0.448336
0.415697
0.367871
0.301285
0.214163
0.110072
0.003507
-0.072631
-0.117057
-0.139992
-0.151627
-0.160635
-0.173745
-0.194524
-0.222652
-0.253692
-0.279597
-0.294281
-0.295824
-0.284130
-0.261380
-0.230735
-0.195440
-0.158319
-0.121573
-0.086757
-0.054853
-0.026389
-0.001549
0.019721
0.037623
0.052437
0.064453
0.073905
0.082069
0.087705
0.089814
0.088116
0.082671
0.073460
0.060288
0.042997
0.021855
-0.002095
-0.026917
-0.049972
-0.067324
-0.077389
-0.081850
-0.081341
-0.076807
-0.069300
-0.059854
-0.049385
-0.038642
-0.028200
-0.018484
-0.009799
-0.002356
0.003710
0.008309
0.011413
0.013055
0.013351
0.012547
0.011009
0.009174
0.007545
0.006261
0.005442
0.004929
0.004367
0.003306
0.001282
-0.002104
-0.007136
-0.013944
-0.022480
-0.032521
-0.043666
-0.055323
-0.066745
-0.077333
-0.086926
-0.095511
-0.103324
-0.110795
-0.118488
-0.127042
-0.137171
-0.149705
-0.165696
-0.196251
0.487804
0.486878
0.484163
0.479343
0.471788
0.460479
0.443962
0.420367
0.387529
0.343301
0.286173
0.216339
0.137376
0.057844
-0.008361
-0.056943
-0.090547
-0.114247
-0.133332
-0.152109
-0.172950
-0.195740
-0.217855
-0.235295
-0.245030
-0.245340
-0.236125
-0.218666
-0.195015
-0.167436
-0.138011
-0.108436
-0.079955
-0.053375
-0.029140
-0.007420
0.011803
0.028665
0.043354
0.056077
0.067232
0.076763
0.083841
0.087868
0.088413
0.085199
0.077994
0.066652
0.051286
0.032496
0.011527
-0.009748
-0.028600
-0.043076
-0.053626
-0.060366
-0.063536
-0.063439
-0.060493
-0.055250
-0.048327
-0.040313
-0.031749
-0.023130
-0.014882
-0.007388
-0.000906
0.004307
0.008182
0.010729
0.012023
0.012316
0.011910
0.011152
0.010287
0.009577
0.009108
0.008738
0.008151
0.006931
0.004660
0.000998
-0.004263
-0.011180
-0.019663
-0.029509
-0.040454
-0.052066
-0.063788
-0.075140
-0.085860
-0.095860
-0.105269
-0.114390
-0.123637
-0.133493
-0.144534
-0.157501
-0.173441
-0.203372
0.477810
0.476414
0.472459
0.465811
0.456051
0.442444
0.423953
0.399319
0.367204
0.326474
0.276640
0.218496
0.154844
0.090846
0.033278
-0.014308
-0.051929
-0.081672
-0.106327
-0.128378
-0.149283
-0.169084
-0.186462
-0.199551
-0.206417
-0.206127
-0.198704
-0.185033
-0.166554
-0.144908
-0.121654
-0.098088
-0.075151
-0.053428
-0.033195
-0.014501
0.002737
0.018638
0.033280
0.046651
0.058912
0.069462
0.077888
0.083665
0.086304
0.085411
0.080709
0.072123
0.059924
0.044845
0.028107
0.011380
-0.004205
-0.018120
-0.030223
-0.040391
-0.048250
-0.053276
-0.055158
-0.054026
-0.050316
-0.044556
-0.037316
-0.029250
-0.020929
-0.013030
-0.005792
0.000251
0.005052
0.008543
0.010812
0.012016
0.012446
0.012426
0.012220
0.012019
0.011862
0.011596
0.010923
0.009465
0.006859
0.002853
-0.002644
-0.009595
-0.017849
-0.027329
-0.038051
-0.049665
-0.061784
-0.074000
-0.085882
-0.097160
-0.107822
-0.118062
-0.128166
-0.138482
-0.149446
-0.161671
-0.175954
-0.201558
0.470384
0.468470
0.463339
0.455148
0.443706
0.428507
0.408826
0.383824
0.352696
0.314885
0.270375
0.220049
0.165986
0.111453
0.060269
0.015022
-0.023491
-0.055846
-0.083297
-0.107122
-0.128125
-0.146380
-0.161374
-0.171936
-0.177094
-0.176446
-0.170189
-0.159082
-0.144271
-0.127048
-0.108637
-0.090032
-0.071907
-0.054605
-0.038171
-0.022437
-0.007135
0.007957
0.022836
0.037117
0.050368
0.062184
0.072140
0.079739
0.084487
0.085964
0.083912
0.078348
0.069664
0.058587
0.046099
0.032384
0.018521
0.004497
-0.009787
-0.024014
-0.037087
-0.047393
-0.053719
-0.055915
-0.054530
-0.050156
-0.043406
-0.035312
-0.026266
-0.017618
-0.009818
-0.002922
0.002701
0.006974
0.009973
0.011886
0.012987
0.013567
0.013857
0.014000
0.014005
0.013691
0.012762
0.010879
0.007746
0.003241
-0.002540
-0.009461
-0.017494
-0.026606
-0.036822
-0.048351
-0.060996
-0.074177
-0.087154
-0.099381
-0.110721
-0.121357
-0.131560
-0.141589
-0.151689
-0.162496
-0.174452
-0.191662
0.466498
0.463696
0.457139
0.447462
0.434636
0.418282
0.397848
0.372761
0.342535
0.306926
0.266122
0.220936
0.172925
0.124306
0.077538
0.034554
-0.003640
-0.036898
-0.065602
-0.090277
-0.111281
-0.128664
-0.142240
-0.151235
-0.155284
-0.154342
-0.148780
-0.139359
-0.127101
-0.113117
-0.098422
-0.083794
-0.069695
-0.056248
-0.043288
-0.030417
-0.017075
-0.002697
0.012807
0.028061
0.042699
0.056133
0.067822
0.077261
0.083973
0.087555
0.087786
0.084784
0.079103
0.071401
0.061292
0.049961
0.037351
0.022995
0.006477
-0.011855
-0.030191
-0.045495
-0.055245
-0.059180
-0.058751
-0.054897
-0.047516
-0.038889
-0.029975
-0.020722
-0.012079
-0.004509
0.001718
0.006533
0.010026
0.012403
0.013943
0.014932
0.015536
0.015851
0.015883
0.015349
0.013951
0.011356
0.007361
0.002003
-0.004431
-0.011497
-0.018981
-0.027218
-0.036769
-0.048107
-0.061142
-0.075110
-0.088898
-0.101617
-0.112986
-0.123265
-0.132922
-0.142499
-0.152070
-0.161674
-0.171360
-0.181295
0.467826
0.462578
0.453865
0.442603
0.428579
0.411364
0.390412
0.365305
0.335734
0.301615
0.263210
0.221237
0.176921
0.131901
0.087976
0.046699
0.009110
-0.024306
-0.053475
-0.078459
-0.099297
-0.116267
-0.128889
-0.136927
-0.140301
-0.139188
-0.134078
-0.125749
-0.115165
-0.103327
-0.091118
-0.079179
-0.067833
-0.057077
-0.046642
-0.036076
-0.024673
-0.011197
0.004308
0.020779
0.037127
0.052343
0.065717
0.076727
0.084929
0.089949
0.091585
0.090048
0.086367
0.079781
0.071540
0.061728
0.049912
0.035391
0.017501
-0.003633
-0.025979
-0.045328
-0.057408
-0.061109
-0.059279
-0.055283
-0.049256
-0.040546
-0.030878
-0.021217
-0.012251
-0.004418
0.002044
0.007071
0.010752
0.013295
0.014999
0.016223
0.016979
0.017323
0.017092
0.016157
0.014198
0.010887
0.006061
-0.000131
-0.007185
-0.014475
-0.021717
-0.029293
-0.038035
-0.048671
-0.061276
-0.075134
-0.089081
-0.102080
-0.113665
-0.123995
-0.133525
-0.142522
-0.151445
-0.160419
-0.169478
-0.178116
0.478860
0.464779
0.452964
0.440324
0.425487
0.407659
0.386392
0.361282
0.332086
0.298780
0.261633
0.221291
0.178798
0.135532
0.093011
0.052625
0.015420
-0.017986
-0.047359
-0.072730
-0.094093
-0.110954
-0.123287
-0.131022
-0.134201
-0.133085
-0.128202
-0.120323
-0.110372
-0.099293
-0.087910
-0.076812
-0.066278
-0.056277
-0.046519
-0.036551
-0.025828
-0.013867
0.000519
0.017679
0.035195
0.051527
0.065801
0.077491
0.086200
0.091603
0.093503
0.091985
0.087143
0.080880
0.073190
0.063859
0.052426
0.038252
0.020798
0.000229
-0.021713
-0.041354
-0.054633
-0.060099
-0.059377
-0.054638
-0.048026
-0.039585
-0.030142
-0.020634
-0.011766
-0.003995
0.002433
0.007448
0.011123
0.013651
0.015298
0.016274
0.016933
0.017173
0.016836
0.015721
0.013556
0.010079
0.005165
-0.001042
-0.008106
-0.015498
-0.022966
-0.030784
-0.039611
-0.050031
-0.062119
-0.075324
-0.088731
-0.101477
-0.113097
-0.123593
-0.133252
-0.142384
-0.151313
-0.160199
-0.169069
-0.178111
