# vtk DataFile Version 3.0
Scalar Field
ASCII
DATASET RECTILINEAR_GRID
DIMENSIONS 100 26 1
X_COORDINATES 100 double
0.050000 0.150000 0.250000 0.350000 0.450000 0.550000 0.650000 0.750000 0.850000 0.950000 1.050000 1.150000 1.250000 1.350000 1.450000 1.550000 1.650000 1.750000 1.850000 1.950000 2.050000 2.150000 2.250000 2.350000 2.450000 2.550000 2.650000 2.750000 2.850000 2.950000 3.050000 3.150000 3.250000 3.350000 3.450000 3.550000 3.650000 3.750000 3.850000 3.950000 4.050000 4.150000 4.250000 4.350000 4.450000 4.550000 4.650000 4.750000 4.850000 4.950000 5.050000 5.150000 5.250000 5.350000 5.450000 5.550000 5.650000 5.750000 5.850000 5.950000 6.050000 6.150000 6.250000 6.350000 6.450000 6.550000 6.650000 6.750000 6.850000 6.950000 7.050000 7.150000 7.250000 7.350000 7.450000 7.550000 7.650000 7.750000 7.850000 7.950000 8.050000 8.150000 8.250000 8.350000 8.450000 8.550000 8.650000 8.750000 8.850000 8.950000 9.050000 9.150000 9.250000 9.350000 9.450000 9.550000 9.650000 9.750000 9.850000 9.950000 
Y_COORDINATES 26 double
0.050000 0.150000 0.250000 0.350000 0.450000 0.550000 0.650000 0.750000 0.850000 0.950000 1.050000 1.150000 1.250000 1.350000 1.450000 1.550000 1.650000 1.750000 1.850000 1.950000 2.050000 2.150000 2.250000 2.350000 2.450000 2.550000 
Z_COORDINATES 1 double
0.0
POINT_DATA 2600
SCALARS Skalarfeld double 1
LOOKUP_TABLE default
0.270239
0.254966
0.239807
0.221740
0.199688
0.173234
0.142408
0.107678
0.070001
0.030825
-0.008038
-0.044704
-0.077545
-0.105410
-0.127735
-0.144100
-0.154783
-0.160414
-0.161799
-0.159839
-0.155450
-0.149496
-0.142731
-0.135742
-0.128898
-0.122328
-0.115944
-0.109537
-0.102911
-0.096001
-0.088935
-0.082029
-0.075711
-0.070413
-0.066455
-0.063936
-0.062675
-0.062198
-0.061797
-0.060647
-0.057958
-0.053087
-0.045740
-0.035576
-0.023141
-0.010510
0.001200
0.011484
0.020147
0.027128
0.032401
0.035734
0.037339
0.036989
0.034401
0.029510
0.022572
0.014314
0.005929
-0.001307
-0.006683
-0.010393
-0.013194
-0.015405
-0.017142
-0.018027
-0.017813
-0.016486
-0.014475
-0.012101
-0.009525
-0.006908
-0.004398
-0.002107
-0.000122
0.001504
0.002746
0.003614
0.004141
0.004385
0.004415
0.004312
0.004158
0.004048
0.004065
0.004265
0.004700
0.005409
0.006423
0.007754
0.009406
0.011371
0.013636
0.016181
0.018982
0.022010
0.025229
0.028626
0.032167
0.036397
0.261374
0.254904
0.242709
0.225797
0.204047
0.177305
0.145634
0.109509
0.069978
0.028707
-0.012147
-0.050394
-0.084229
-0.112438
-0.134357
-0.150126
-0.160093
-0.164832
-0.165226
-0.162258
-0.156928
-0.150184
-0.142862
-0.135619
-0.128854
-0.122661
-0.116852
-0.111075
-0.105008
-0.098502
-0.091654
-0.084787
-0.078365
-0.072864
-0.068643
-0.065837
-0.064287
-0.063529
-0.062855
-0.061439
-0.058467
-0.053162
-0.044753
-0.033965
-0.021980
-0.009905
0.001374
0.011400
0.019966
0.026983
0.032438
0.036442
0.038230
0.037969
0.035343
0.030272
0.023011
0.014374
0.005722
-0.001545
-0.006752
-0.010274
-0.012996
-0.015603
-0.017663
-0.018683
-0.018520
-0.017002
-0.014904
-0.012510
-0.009873
-0.007187
-0.004615
-0.002269
-0.000235
0.001426
0.002689
0.003565
0.004088
0.004316
0.004324
0.004195
0.004023
0.003889
0.003864
0.004024
0.004426
0.005112
0.006112
0.007439
0.009095
0.011072
0.013355
0.015925
0.018759
0.021841
0.025163
0.028696
0.032374
0.037221
0.264447
0.260324
0.249993
0.234053
0.212473
0.185039
0.151674
0.112762
0.069453
0.023845
-0.021103
-0.062509
-0.098259
-0.127159
-0.148801
-0.163415
-0.171607
-0.174267
-0.172379
-0.167127
-0.159710
-0.151288
-0.142908
-0.135409
-0.129269
-0.124473
-0.120531
-0.116686
-0.112267
-0.106905
-0.100606
-0.093700
-0.086711
-0.080203
-0.074627
-0.070207
-0.066881
-0.064285
-0.061820
-0.058753
-0.054344
-0.047976
-0.039350
-0.028753
-0.017945
-0.007222
0.002864
0.011956
0.019844
0.026383
0.031474
0.035060
0.037083
0.036672
0.033987
0.029161
0.022493
0.014717
0.006929
0.000143
-0.005205
-0.009394
-0.012956
-0.016049
-0.018225
-0.018956
-0.018187
-0.016856
-0.015021
-0.012850
-0.010187
-0.007470
-0.004888
-0.002511
-0.000446
0.001236
0.002507
0.003377
0.003882
0.004079
0.004045
0.003868
0.003640
0.003451
0.003378
0.003496
0.003862
0.004520
0.005499
0.006814
0.008467
0.010452
0.012756
0.015366
0.018270
0.021462
0.024946
0.028726
0.032818
0.038663
0.275142
0.271776
0.262450
0.247164
0.225541
0.196992
0.161021
0.117680
0.068159
0.015222
-0.036438
-0.082668
-0.121017
-0.150537
-0.171262
-0.183817
-0.189165
-0.188476
-0.183004
-0.174175
-0.163454
-0.152301
-0.142112
-0.134064
-0.128799
-0.126208
-0.125338
-0.124634
-0.122834
-0.119233
-0.113722
-0.106676
-0.098741
-0.090617
-0.082888
-0.075911
-0.069767
-0.064266
-0.059004
-0.053466
-0.047148
-0.039699
-0.031056
-0.021526
-0.011741
-0.002450
0.006213
0.014019
0.020776
0.026300
0.030439
0.033094
0.034204
0.033655
0.031160
0.026663
0.020778
0.014042
0.007246
0.001044
-0.004223
-0.008608
-0.012273
-0.015186
-0.017092
-0.017819
-0.017480
-0.016393
-0.014596
-0.012155
-0.009655
-0.007116
-0.004725
-0.002410
-0.000394
0.001234
0.002447
0.003257
0.003695
0.003814
0.003692
0.003421
0.003098
0.002816
0.002660
0.002705
0.003011
0.003622
0.004568
0.005862
0.007507
0.009496
0.011820
0.014468
0.017438
0.020736
0.024382
0.028415
0.032904
0.039420
0.292026
0.289045
0.280469
0.265836
0.244242
0.214408
0.174977
0.125169
0.065913
0.000780
-0.061375
-0.114220
-0.155367
-0.184772
-0.203357
-0.212413
-0.213392
-0.207747
-0.197092
-0.183108
-0.167562
-0.152264
-0.139212
-0.130250
-0.126415
-0.127298
-0.131086
-0.135141
-0.137018
-0.135619
-0.130815
-0.123202
-0.113717
-0.103320
-0.092797
-0.082672
-0.073185
-0.064328
-0.055911
-0.047659
-0.039310
-0.030713
-0.021889
-0.013031
-0.004435
0.003636
0.011003
0.017508
0.022993
0.027242
0.030072
0.031414
0.031320
0.029851
0.027050
0.023021
0.017803
0.011823
0.005886
0.000311
-0.004548
-0.008622
-0.011920
-0.014386
-0.015914
-0.016457
-0.016097
-0.014988
-0.013262
-0.011098
-0.008755
-0.006331
-0.003882
-0.001735
0.000116
0.001593
0.002657
0.003344
0.003651
0.003629
0.003356
0.002928
0.002449
0.002017
0.001726
0.001655
0.001864
0.002402
0.003296
0.004560
0.006192
0.008183
0.010523
0.013203
0.016225
0.019605
0.023378
0.027603
0.032367
0.039272
0.314370
0.311783
0.304168
0.290675
0.269756
0.239085
0.195733
0.137002
0.062551
-0.023834
-0.101965
-0.162551
-0.205268
-0.232550
-0.246848
-0.250306
-0.244902
-0.232402
-0.214650
-0.193595
-0.171356
-0.150089
-0.132537
-0.121892
-0.120165
-0.126753
-0.138219
-0.149417
-0.156345
-0.157506
-0.152980
-0.143955
-0.131969
-0.118434
-0.104430
-0.090669
-0.077535
-0.065167
-0.053544
-0.042572
-0.032163
-0.022286
-0.012989
-0.004380
0.003424
0.010350
0.016474
0.021771
0.026039
0.029025
0.030524
0.030510
0.029196
0.026782
0.023370
0.019022
0.013862
0.008401
0.003180
-0.001949
-0.006306
-0.009862
-0.012601
-0.014488
-0.015495
-0.015639
-0.015001
-0.013707
-0.011903
-0.009753
-0.007431
-0.005074
-0.002809
-0.000797
0.000888
0.002212
0.003146
0.003640
0.003744
0.003515
0.003031
0.002387
0.001688
0.001044
0.000555
0.000312
0.000388
0.000826
0.001652
0.002877
0.004494
0.006487
0.008839
0.011540
0.014593
0.018020
0.021866
0.026204
0.031129
0.038280
0.341437
0.339426
0.333364
0.322089
0.303380
0.273526
0.226971
0.156812
0.058105
-0.068389
-0.168982
-0.234702
-0.274267
-0.295437
-0.302340
-0.297665
-0.283871
-0.262633
-0.235739
-0.205520
-0.174588
-0.145609
-0.121134
-0.106958
-0.107391
-0.121830
-0.144841
-0.167676
-0.181563
-0.185582
-0.180603
-0.169040
-0.153452
-0.135896
-0.117798
-0.100040
-0.083109
-0.067228
-0.052473
-0.038856
-0.026385
-0.015092
-0.005036
0.003710
0.011084
0.017047
0.021623
0.025348
0.028363
0.030189
0.030591
0.029458
0.027258
0.024318
0.020725
0.016427
0.011418
0.005897
0.000071
-0.004777
-0.008831
-0.012004
-0.014288
-0.015650
-0.016126
-0.015788
-0.014741
-0.013120
-0.011075
-0.008766
-0.006350
-0.003970
-0.001751
0.000189
0.001774
0.002956
0.003702
0.004002
0.003886
0.003410
0.002657
0.001731
0.000746
-0.000173
-0.000914
-0.001374
-0.001476
-0.001159
-0.000411
0.000775
0.002382
0.004381
0.006745
0.009456
0.012514
0.015944
0.019798
0.024160
0.029141
0.036436
0.372145
0.370995
0.367365
0.359975
0.346161
0.320836
0.274738
0.192488
0.053134
-0.155677
-0.278682
-0.334412
-0.359957
-0.369696
-0.366352
-0.352329
-0.329585
-0.298293
-0.260650
-0.219572
-0.178354
-0.140458
-0.108463
-0.087043
-0.087592
-0.109400
-0.144907
-0.182632
-0.208948
-0.216254
-0.210288
-0.195495
-0.175816
-0.154029
-0.131854
-0.110271
-0.089800
-0.070698
-0.053087
-0.037034
-0.022594
-0.009832
0.001182
0.010358
0.017567
0.022650
0.025567
0.026590
0.026592
0.026656
0.026280
0.024209
0.021664
0.019107
0.016417
0.013259
0.009360
0.004667
-0.000623
-0.005982
-0.010693
-0.013928
-0.016204
-0.017354
-0.017510
-0.016804
-0.015383
-0.013410
-0.011058
-0.008497
-0.005891
-0.003388
-0.001114
0.000828
0.002361
0.003438
0.004034
0.004146
0.003806
0.003071
0.002027
0.000786
-0.000522
-0.001759
-0.002792
-0.003502
-0.003802
-0.003629
-0.002957
-0.001796
-0.000180
0.001841
0.004223
0.006935
0.009970
0.013352
0.017138
0.021423
0.026339
0.033635
0.404895
0.404903
0.404663
0.403138
0.397917
0.383578
0.347738
0.261869
0.054397
-0.340779
-0.444079
-0.445998
-0.443231
-0.440260
-0.428203
-0.409271
-0.378737
-0.337989
-0.289946
-0.238301
-0.187098
-0.140679
-0.103771
-0.076054
-0.073336
-0.097417
-0.138304
-0.183692
-0.221748
-0.238318
-0.232466
-0.215553
-0.193119
-0.168541
-0.143687
-0.119542
-0.096621
-0.075207
-0.055471
-0.037543
-0.021533
-0.007543
0.004315
0.013866
0.020780
0.024584
0.025019
0.022679
0.019051
0.015221
0.012117
0.010040
0.008837
0.008283
0.007917
0.007178
0.005590
0.002891
-0.000891
-0.005415
-0.010121
-0.014513
-0.017302
-0.018643
-0.018863
-0.018097
-0.016522
-0.014337
-0.011749
-0.008958
-0.006148
-0.003483
-0.001100
0.000896
0.002426
0.003443
0.003924
0.003872
0.003318
0.002321
0.000972
-0.000608
-0.002272
-0.003860
-0.005213
-0.006194
-0.006698
-0.006662
-0.006045
-0.004873
-0.003211
-0.001138
0.001276
0.003982
0.006963
0.010238
0.013867
0.017954
0.022651
0.029716
0.437543
0.438899
0.442699
0.448590
0.455490
0.460153
0.452679
0.400597
0.159052
-0.677950
-0.633736
-0.514659
-0.487018
-0.480417
-0.474108
-0.454786
-0.421258
-0.375971
-0.322797
-0.266346
-0.211261
-0.161945
-0.122803
-0.097982
-0.094083
-0.110310
-0.142083
-0.179813
-0.213918
-0.235530
-0.236726
-0.220581
-0.198430
-0.174042
-0.149241
-0.124920
-0.101569
-0.079520
-0.059044
-0.040385
-0.023770
-0.009432
0.002330
0.011034
0.015981
0.016570
0.012961
0.006538
-0.000499
-0.006367
-0.010176
-0.010819
-0.009413
-0.006854
-0.003964
-0.001493
-0.000047
-0.000021
-0.001540
-0.004432
-0.008258
-0.012406
-0.016112
-0.018566
-0.019263
-0.018834
-0.017448
-0.015325
-0.012707
-0.009828
-0.006906
-0.004131
-0.001661
0.000385
0.001920
0.002891
0.003272
0.003063
0.002294
0.001023
-0.000653
-0.002600
-0.004651
-0.006616
-0.008307
-0.009558
-0.010247
-0.010311
-0.009689
-0.008442
-0.006680
-0.004518
-0.002058
0.000632
0.003519
0.006617
0.009985
0.013731
0.018017
0.024520
0.467609
0.470261
0.477998
0.491350
0.511216
0.538719
0.574462
0.614635
0.695078
0.008564
-0.566387
-0.499038
-0.487864
-0.486965
-0.485199
-0.471157
-0.442819
-0.402725
-0.355258
-0.305883
-0.259669
-0.218881
-0.186870
-0.168939
-0.158606
-0.157240
-0.167080
-0.183392
-0.200784
-0.213028
-0.215685
-0.206854
-0.188062
-0.166964
-0.145195
-0.123447
-0.102135
-0.081634
-0.062341
-0.044669
-0.029044
-0.015941
-0.005987
-0.000028
0.001072
-0.002940
-0.010991
-0.020678
-0.029265
-0.034948
-0.036548
-0.034167
-0.029249
-0.023039
-0.016582
-0.010733
-0.006147
-0.003267
-0.002299
-0.003192
-0.005628
-0.009051
-0.012739
-0.015965
-0.018011
-0.018268
-0.017424
-0.015691
-0.013325
-0.010590
-0.007737
-0.004991
-0.002534
-0.000509
0.000980
0.001867
0.002117
0.001722
0.000705
-0.000877
-0.002920
-0.005274
-0.007743
-0.010102
-0.012126
-0.013618
-0.014441
-0.014527
-0.013799
-0.012396
-0.010477
-0.008197
-0.005688
-0.003040
-0.000300
0.002536
0.005522
0.008762
0.012418
0.017951
0.492717
0.496328
0.506955
0.525718
0.554789
0.597973
0.661938
0.758083
0.892021
0.925563
0.000000
-0.488846
-0.478655
-0.470733
-0.465777
-0.458299
-0.439435
-0.412577
-0.383533
-0.355950
-0.331110
-0.308418
-0.288149
-0.269278
-0.246441
-0.225313
-0.208651
-0.196463
-0.189939
-0.185860
-0.181022
-0.173406
-0.162367
-0.146520
-0.129930
-0.112994
-0.095952
-0.079158
-0.063107
-0.048385
-0.035644
-0.025659
-0.019403
-0.017964
-0.022018
-0.030998
-0.042704
-0.053996
-0.062107
-0.065500
-0.063075
-0.056604
-0.047639
-0.037586
-0.027597
-0.018560
-0.011109
-0.005656
-0.002407
-0.001357
-0.002283
-0.004727
-0.008037
-0.011474
-0.014353
-0.015960
-0.015924
-0.014870
-0.013041
-0.010708
-0.008151
-0.005621
-0.003335
-0.001460
-0.000123
0.000593
0.000634
-0.000018
-0.001352
-0.003308
-0.005777
-0.008584
-0.011498
-0.014252
-0.016577
-0.018251
-0.019134
-0.019095
-0.018160
-0.016531
-0.014418
-0.012015
-0.009479
-0.006921
-0.004402
-0.001928
0.000543
0.003102
0.005894
0.010027
0.511115
0.515157
0.527018
0.547846
0.579718
0.625750
0.689509
0.772877
0.870183
0.959105
0.873649
0.000000
-0.463771
-0.448887
-0.435375
-0.426733
-0.419166
-0.412335
-0.409654
-0.411983
-0.415716
-0.414966
-0.405025
-0.377850
-0.337885
-0.293893
-0.251047
-0.212367
-0.181427
-0.158649
-0.142652
-0.131269
-0.122365
-0.113957
-0.103359
-0.092459
-0.081169
-0.069705
-0.058593
-0.048544
-0.040432
-0.035339
-0.034532
-0.039089
-0.049074
-0.062808
-0.077122
-0.088609
-0.094934
-0.094012
-0.086918
-0.075936
-0.062793
-0.048998
-0.035742
-0.023887
-0.014006
-0.006430
-0.001300
0.001400
0.001852
0.000424
-0.002325
-0.005698
-0.008974
-0.011547
-0.012732
-0.012549
-0.011480
-0.009776
-0.007726
-0.005610
-0.003667
-0.002095
-0.001043
-0.000619
-0.000895
-0.001907
-0.003650
-0.006067
-0.009030
-0.012334
-0.015705
-0.018828
-0.021395
-0.023162
-0.023996
-0.023690
-0.022471
-0.020582
-0.018276
-0.015778
-0.013270
-0.010877
-0.008670
-0.006669
-0.004849
-0.003142
-0.001435
0.000891
0.522022
0.525953
0.537396
0.557136
0.586438
0.626883
0.680075
0.744507
0.806948
0.828662
0.788192
0.673593
0.000000
-0.427895
-0.406903
-0.395542
-0.396458
-0.407332
-0.430602
-0.463886
-0.496363
-0.515314
-0.506485
-0.467124
-0.411646
-0.346745
-0.281040
-0.220533
-0.169626
-0.130353
-0.102756
-0.085271
-0.075299
-0.069977
-0.066248
-0.061526
-0.056530
-0.051192
-0.046030
-0.041873
-0.039824
-0.041252
-0.047543
-0.059378
-0.075816
-0.094023
-0.110176
-0.120891
-0.124086
-0.118041
-0.106233
-0.090868
-0.073866
-0.056785
-0.040784
-0.026654
-0.014868
-0.005656
0.000927
0.004945
0.006572
0.006109
0.004017
0.000911
-0.002510
-0.005587
-0.007811
-0.008679
-0.008509
-0.007581
-0.006196
-0.004648
-0.003201
-0.002073
-0.001439
-0.001431
-0.002142
-0.003625
-0.005882
-0.008846
-0.012366
-0.016199
-0.020020
-0.023468
-0.026202
-0.027966
-0.028612
-0.027946
-0.026410
-0.024275
-0.021824
-0.019303
-0.016907
-0.014772
-0.012979
-0.011563
-0.010517
-0.009807
-0.009366
-0.009184
0.525650
0.529063
0.538928
0.555679
0.579877
0.611764
0.650025
0.689808
0.717893
0.708582
0.644356
0.558993
0.395256
0.000000
-0.389648
-0.372393
-0.376333
-0.397695
-0.439345
-0.497615
-0.556338
-0.589788
-0.571809
-0.520469
-0.449311
-0.368842
-0.288030
-0.213497
-0.149734
-0.099132
-0.062316
-0.038414
-0.025278
-0.019952
-0.019452
-0.020843
-0.021868
-0.022626
-0.023775
-0.026314
-0.031565
-0.041036
-0.055871
-0.075910
-0.099008
-0.121358
-0.138805
-0.148366
-0.146755
-0.135815
-0.119657
-0.100582
-0.080544
-0.061046
-0.043142
-0.027495
-0.014455
-0.004142
0.003475
0.008515
0.011154
0.011637
0.010323
0.007713
0.004430
0.001116
-0.001706
-0.003556
-0.004240
-0.004120
-0.003468
-0.002577
-0.001723
-0.001143
-0.001033
-0.001547
-0.002801
-0.004858
-0.007721
-0.011308
-0.015433
-0.019804
-0.024048
-0.027759
-0.030580
-0.032286
-0.032469
-0.031488
-0.029684
-0.027379
-0.024878
-0.022440
-0.020265
-0.018493
-0.017213
-0.016472
-0.016292
-0.016677
-0.017619
-0.019810
0.522968
0.525645
0.533271
0.545874
0.563263
0.584540
0.607144
0.625335
0.628031
0.597567
0.516464
0.376753
0.231520
-0.180199
-0.404062
-0.345382
-0.348866
-0.379552
-0.436094
-0.510503
-0.581451
-0.612868
-0.586265
-0.527183
-0.448304
-0.360990
-0.274150
-0.194058
-0.124727
-0.068340
-0.025670
0.003694
0.021205
0.029112
0.029967
0.025856
0.020113
0.014114
0.006824
-0.002874
-0.016334
-0.034851
-0.058878
-0.087143
-0.116384
-0.142101
-0.159940
-0.166925
-0.159997
-0.145401
-0.126141
-0.104688
-0.082950
-0.062290
-0.043597
-0.027376
-0.013848
-0.003031
0.005181
0.010953
0.014466
0.015914
0.015552
0.013746
0.010994
0.007871
0.004917
0.002528
0.001050
0.000426
0.000371
0.000594
0.000820
0.000801
0.000324
-0.000787
-0.002662
-0.005372
-0.008911
-0.013168
-0.017914
-0.022805
-0.027417
-0.031308
-0.034105
-0.035564
-0.035324
-0.034068
-0.032098
-0.029749
-0.027334
-0.025110
-0.023274
-0.021963
-0.021272
-0.021263
-0.021987
-0.023491
-0.025838
-0.030480
0.515337
0.517154
0.522232
0.530303
0.540692
0.551911
0.560978
0.562469
0.547439
0.502622
0.410808
0.249284
-0.029644
-0.591918
-0.462741
-0.347375
-0.335872
-0.369574
-0.430799
-0.505588
-0.570073
-0.581170
-0.551413
-0.492179
-0.415393
-0.331408
-0.248114
-0.170908
-0.103081
-0.046330
-0.001295
0.032031
0.054291
0.066885
0.071436
0.069193
0.062138
0.052854
0.040295
0.023695
0.002109
-0.025104
-0.057415
-0.092471
-0.126210
-0.153815
-0.171109
-0.172564
-0.162636
-0.145949
-0.125445
-0.103476
-0.081754
-0.061424
-0.043178
-0.027372
-0.014119
-0.003376
0.005003
0.011204
0.015412
0.017791
0.018510
0.017803
0.016016
0.013604
0.011031
0.008647
0.006789
0.005664
0.005034
0.004659
0.004288
0.003674
0.002592
0.000852
-0.001686
-0.005089
-0.009330
-0.014260
-0.019598
-0.024945
-0.029834
-0.033807
-0.036517
-0.037367
-0.036932
-0.035556
-0.033586
-0.031365
-0.029196
-0.027323
-0.025930
-0.025152
-0.025085
-0.025808
-0.027401
-0.029961
-0.033619
-0.040590
0.504347
0.505313
0.507914
0.511720
0.515838
0.518607
0.517162
0.506891
0.480894
0.429562
0.340242
0.196753
-0.020499
-0.289309
-0.331116
-0.318293
-0.327540
-0.362267
-0.415684
-0.474050
-0.509911
-0.510477
-0.481565
-0.429703
-0.363491
-0.290927
-0.218343
-0.150192
-0.089255
-0.036985
0.006116
0.040167
0.065636
0.082986
0.092529
0.094682
0.093071
0.083753
0.068046
0.046292
0.018460
-0.015112
-0.052886
-0.091687
-0.127021
-0.154100
-0.167560
-0.165236
-0.154324
-0.137824
-0.118391
-0.098048
-0.078187
-0.059685
-0.043042
-0.028499
-0.016122
-0.005868
0.002382
0.008784
0.013502
0.016682
0.018449
0.018950
0.018398
0.017126
0.015480
0.013690
0.012158
0.010927
0.009966
0.009150
0.008286
0.007143
0.005496
0.003147
-0.000041
-0.004121
-0.009030
-0.014570
-0.020403
-0.026081
-0.031105
-0.035027
-0.037267
-0.037836
-0.037326
-0.036022
-0.034255
-0.032349
-0.030582
-0.029175
-0.028297
-0.028076
-0.028611
-0.029998
-0.032344
-0.035790
-0.040536
-0.049474
0.491576
0.491780
0.492193
0.492344
0.491317
0.487549
0.478576
0.460767
0.429132
0.377330
0.298032
0.184387
0.035656
-0.124553
-0.209746
-0.251639
-0.285801
-0.324895
-0.368338
-0.406494
-0.425516
-0.423591
-0.400476
-0.360018
-0.307873
-0.249750
-0.190475
-0.133657
-0.081698
-0.035978
0.002910
0.034920
0.060304
0.079360
0.092203
0.102795
0.104994
0.097848
0.082038
0.058601
0.028407
-0.007297
-0.046162
-0.084504
-0.117684
-0.141012
-0.148645
-0.146212
-0.136735
-0.122906
-0.106882
-0.090200
-0.073851
-0.058426
-0.044262
-0.031541
-0.020355
-0.010733
-0.002655
0.003939
0.009135
0.013032
0.015724
0.017329
0.017979
0.017954
0.017531
0.016990
0.016225
0.015282
0.014316
0.013319
0.012160
0.010638
0.008536
0.005668
0.001913
-0.002751
-0.008212
-0.014215
-0.020368
-0.026181
-0.031147
-0.034682
-0.036485
-0.037092
-0.036748
-0.035745
-0.034388
-0.032962
-0.031712
-0.030835
-0.030484
-0.030780
-0.031831
-0.033742
-0.036643
-0.040711
-0.046196
-0.056482
0.478434
0.477995
0.476592
0.473797
0.468797
0.460269
0.446254
0.424063
0.390299
0.341104
0.272808
0.183455
0.076250
-0.035057
-0.119295
-0.178587
-0.225108
-0.266378
-0.303248
-0.331174
-0.345183
-0.344100
-0.327592
-0.297896
-0.258642
-0.213786
-0.166910
-0.120872
-0.077716
-0.038737
-0.004607
0.024468
0.048587
0.068000
0.083903
0.094831
0.098583
0.094082
0.081131
0.060163
0.032221
-0.000846
-0.036164
-0.069889
-0.097753
-0.114019
-0.120172
-0.119280
-0.113325
-0.104228
-0.093461
-0.081979
-0.070324
-0.058795
-0.047590
-0.036894
-0.026893
-0.017763
-0.009645
-0.002632
0.003240
0.007991
0.011646
0.014377
0.016363
0.017642
0.018327
0.018550
0.018407
0.017980
0.017337
0.016466
0.015262
0.013559
0.011171
0.007937
0.003768
-0.001307
-0.007122
-0.013357
-0.019586
-0.025294
-0.029839
-0.032896
-0.034781
-0.035639
-0.035691
-0.035190
-0.034394
-0.033543
-0.032849
-0.032487
-0.032600
-0.033309
-0.034727
-0.036967
-0.040170
-0.044524
-0.050303
-0.061090
0.466111
0.465141
0.462268
0.457171
0.449214
0.437362
0.420144
0.395664
0.361713
0.316075
0.257112
0.184798
0.102326
0.017571
-0.056533
-0.116876
-0.166249
-0.207522
-0.241232
-0.265605
-0.278769
-0.279878
-0.269077
-0.247902
-0.218809
-0.184591
-0.147905
-0.110984
-0.075523
-0.042673
-0.013107
0.012881
0.035268
0.054207
0.069874
0.080754
0.085657
0.083615
0.074200
0.057623
0.034859
0.007804
-0.020705
-0.047128
-0.067537
-0.080352
-0.087235
-0.089390
-0.088238
-0.085008
-0.080503
-0.075070
-0.068740
-0.061464
-0.053304
-0.044491
-0.035381
-0.026376
-0.017838
-0.010054
-0.003234
0.002594
0.007454
0.011344
0.014321
0.016505
0.018002
0.018929
0.019389
0.019466
0.019201
0.018566
0.017457
0.015719
0.013190
0.009745
0.005337
0.000048
-0.005889
-0.012094
-0.018164
-0.023373
-0.027564
-0.030710
-0.032867
-0.034165
-0.034773
-0.034880
-0.034688
-0.034397
-0.034197
-0.034248
-0.034694
-0.035661
-0.037264
-0.039615
-0.042848
-0.047136
-0.052727
-0.063025
0.455594
0.454156
0.450052
0.443142
0.432996
0.418862
0.399682
0.374156
0.340893
0.298676
0.246890
0.186133
0.118920
0.050003
-0.014269
-0.070603
-0.118565
-0.158571
-0.190556
-0.213741
-0.227238
-0.230575
-0.224198
-0.209337
-0.187804
-0.161672
-0.132955
-0.103400
-0.074372
-0.046835
-0.021389
0.001655
0.022182
0.040154
0.055150
0.066189
0.072406
0.073009
0.067551
0.056151
0.039666
0.019774
-0.001134
-0.020289
-0.035910
-0.047545
-0.055621
-0.061034
-0.064761
-0.067507
-0.069482
-0.070374
-0.069563
-0.066522
-0.061141
-0.053766
-0.045016
-0.035619
-0.026215
-0.017291
-0.009261
-0.002277
0.003651
0.008525
0.012406
0.015396
0.017606
0.019152
0.020139
0.020646
0.020703
0.020274
0.019259
0.017508
0.014883
0.011299
0.006743
0.001360
-0.004574
-0.010615
-0.016301
-0.021388
-0.025607
-0.028953
-0.031488
-0.033302
-0.034494
-0.035178
-0.035499
-0.035640
-0.035783
-0.036088
-0.036695
-0.037754
-0.039368
-0.041639
-0.044670
-0.048588
-0.053561
-0.062369
0.447750
0.445795
0.440518
0.432070
0.420246
0.404521
0.384140
0.358220
0.325897
0.286528
0.239986
0.187008
0.129496
0.070538
0.013851
-0.037847
-0.083154
-0.121400
-0.152071
-0.174660
-0.188577
-0.193666
-0.190500
-0.180164
-0.164126
-0.144021
-0.121438
-0.097752
-0.074035
-0.051038
-0.029225
-0.008841
0.009990
0.027111
0.041803
0.053388
0.061164
0.064456
0.062836
0.056348
0.045679
0.032185
0.017642
0.003465
-0.009058
-0.019536
-0.028404
-0.036435
-0.044372
-0.052579
-0.060764
-0.067895
-0.072494
-0.073341
-0.070129
-0.063477
-0.054390
-0.044070
-0.033394
-0.023411
-0.014217
-0.006083
0.000874
0.006649
0.011312
0.014974
0.017763
0.019806
0.021215
0.022068
0.022384
0.022111
0.021157
0.019340
0.016559
0.012790
0.008018
0.002412
-0.003653
-0.009748
-0.015398
-0.020407
-0.024663
-0.028183
-0.031035
-0.033278
-0.034944
-0.036057
-0.036701
-0.037075
-0.037383
-0.037784
-0.038389
-0.039417
-0.040927
-0.042992
-0.045685
-0.049063
-0.053169
-0.059640
0.443548
0.440703
0.433998
0.424062
0.410853
0.393963
0.372813
0.346781
0.315320
0.278105
0.235231
0.187414
0.136129
0.083557
0.032242
-0.015588
-0.058314
-0.094810
-0.124294
-0.146399
-0.160509
-0.166770
-0.165799
-0.158607
-0.146476
-0.130787
-0.112843
-0.093747
-0.074326
-0.055126
-0.036454
-0.018426
-0.001009
0.015656
0.030527
0.043077
0.052597
0.058405
0.060039
0.057456
0.051219
0.042524
0.032549
0.021911
0.011986
0.002696
-0.006509
-0.016393
-0.027599
-0.040296
-0.053854
-0.066624
-0.076139
-0.080181
-0.078198
-0.071481
-0.061248
-0.050034
-0.038684
-0.027503
-0.017192
-0.008093
-0.000330
0.006107
0.011313
0.015420
0.018576
0.020925
0.022595
0.023675
0.024175
0.023987
0.023076
0.021102
0.017984
0.013691
0.008404
0.002417
-0.003877
-0.010050
-0.015707
-0.020643
-0.024818
-0.028315
-0.031245
-0.033681
-0.035627
-0.037015
-0.037784
-0.038200
-0.038542
-0.038955
-0.039623
-0.040564
-0.041909
-0.043729
-0.046052
-0.048869
-0.052108
-0.056055
0.444661
0.439368
0.430503
0.418969
0.404561
0.386793
0.365112
0.339045
0.308219
0.272475
0.232000
0.187449
0.140025
0.091426
0.043628
-0.001459
-0.042212
-0.077287
-0.105843
-0.127476
-0.141670
-0.148667
-0.149112
-0.143975
-0.134431
-0.121701
-0.106911
-0.090987
-0.074592
-0.058143
-0.041863
-0.025826
-0.009839
0.006475
0.021868
0.035702
0.047031
0.055018
0.059102
0.059146
0.055655
0.050080
0.042386
0.034277
0.026075
0.017580
0.008215
-0.002739
-0.015829
-0.031128
-0.047937
-0.064456
-0.077650
-0.084119
-0.082176
-0.074582
-0.064894
-0.053100
-0.040733
-0.028788
-0.017867
-0.008280
-0.000131
0.006607
0.012038
0.016308
0.019573
0.021990
0.023703
0.024850
0.025482
0.025288
0.023998
0.021708
0.018300
0.013739
0.008160
0.001879
-0.004653
-0.010942
-0.016585
-0.021384
-0.025359
-0.028652
-0.031401
-0.033706
-0.035660
-0.037182
-0.038290
-0.038931
-0.039274
-0.039639
-0.040217
-0.041093
-0.042335
-0.043981
-0.046033
-0.048449
-0.051125
-0.053656
0.455586
0.441456
0.429481
0.416562
0.401303
0.382935
0.360942
0.334873
0.304423
0.269493
0.230286
0.187403
0.141900
0.095250
0.049195
0.005490
-0.034329
-0.069115
-0.097762
-0.119241
-0.133502
-0.140838
-0.141899
-0.137622
-0.129122
-0.117548
-0.103953
-0.089194
-0.073888
-0.058417
-0.042990
-0.027728
-0.012750
0.001959
0.017565
0.032324
0.044805
0.053967
0.059173
0.060229
0.057461
0.051396
0.044447
0.037112
0.029495
0.021355
0.012147
0.001216
-0.011911
-0.027229
-0.043995
-0.060499
-0.074015
-0.081542
-0.081764
-0.075155
-0.064716
-0.052758
-0.040400
-0.028477
-0.017556
-0.007951
0.000223
0.006983
0.012427
0.016694
0.019935
0.022305
0.023938
0.024915
0.025217
0.024854
0.023546
0.021198
0.017750
0.013211
0.007720
0.001571
-0.004815
-0.010980
-0.016543
-0.021307
-0.025271
-0.028563
-0.031344
-0.033708
-0.035623
-0.037132
-0.038236
-0.038944
-0.039388
-0.039809
-0.040400
-0.041269
-0.042476
-0.044046
-0.045972
-0.048210
-0.050673
-0.053100
