# vtk DataFile Version 3.0
Scalar Field
ASCII
DATASET RECTILINEAR_GRID
DIMENSIONS 100 26 1
X_COORDINATES 100 double
0.050000 0.150000 0.250000 0.350000 0.450000 0.550000 0.650000 0.750000 0.850000 0.950000 1.050000 1.150000 1.250000 1.350000 1.450000 1.550000 1.650000 1.750000 1.850000 1.950000 2.050000 2.150000 2.250000 2.350000 2.450000 2.550000 2.650000 2.750000 2.850000 2.950000 3.050000 3.150000 3.250000 3.350000 3.450000 3.550000 3.650000 3.750000 3.850000 3.950000 4.050000 4.150000 4.250000 4.350000 4.450000 4.550000 4.650000 4.750000 4.850000 4.950000 5.050000 5.150000 5.250000 5.350000 5.450000 5.550000 5.650000 5.750000 5.850000 5.950000 6.050000 6.150000 6.250000 6.350000 6.450000 6.550000 6.650000 6.750000 6.850000 6.950000 7.050000 7.150000 7.250000 7.350000 7.450000 7.550000 7.650000 7.750000 7.850000 7.950000 8.050000 8.150000 8.250000 8.350000 8.450000 8.550000 8.650000 8.750000 8.850000 8.950000 9.050000 9.150000 9.250000 9.350000 9.450000 9.550000 9.650000 9.750000 9.850000 9.950000 
Y_COORDINATES 26 double
0.050000 0.150000 0.250000 0.350000 0.450000 0.550000 0.650000 0.750000 0.850000 0.950000 1.050000 1.150000 1.250000 1.350000 1.450000 1.550000 1.650000 1.750000 1.850000 1.950000 2.050000 2.150000 2.250000 2.350000 2.450000 2.550000 
Z_COORDINATES 1 double
0.0
POINT_DATA 2600
SCALARS Skalarfeld double 1
LOOKUP_TABLE default
0.293457
0.278274
0.263307
0.245508
0.223734
0.197461
0.166556
0.131267
0.092281
0.050762
0.008278
-0.033438
-0.072765
-0.108399
-0.139446
-0.165168
-0.184764
-0.198179
-0.205560
-0.207288
-0.203970
-0.196390
-0.185441
-0.172031
-0.156992
-0.141013
-0.124591
-0.108030
-0.091475
-0.074975
-0.058567
-0.042362
-0.026632
-0.011277
0.003629
0.016776
0.027276
0.034697
0.038733
0.040453
0.039996
0.037451
0.032852
0.026151
0.017300
0.006399
-0.006099
-0.019112
-0.030695
-0.038388
-0.040676
-0.037755
-0.031408
-0.023874
-0.015688
-0.007498
0.000186
0.007016
0.012799
0.017478
0.021102
0.023820
0.025742
0.027238
0.028184
0.028513
0.028181
0.027121
0.025312
0.022853
0.019974
0.016927
0.013795
0.010383
0.006325
0.001349
-0.004489
-0.010755
-0.016797
-0.022009
-0.026056
-0.028934
-0.030800
-0.031749
-0.032118
-0.032074
-0.031792
-0.031503
-0.031434
-0.031803
-0.032809
-0.034633
-0.037428
-0.041267
-0.046036
-0.051687
-0.058086
-0.065032
-0.072282
-0.079886
0.284478
0.278109
0.266145
0.249558
0.228166
0.201705
0.170073
0.133520
0.092811
0.049311
0.004899
-0.038422
-0.078912
-0.115250
-0.146468
-0.171993
-0.191708
-0.205151
-0.212415
-0.213857
-0.210075
-0.201867
-0.190157
-0.175894
-0.159960
-0.143082
-0.125795
-0.108434
-0.091162
-0.074039
-0.057096
-0.040409
-0.024066
-0.008129
0.006344
0.018745
0.028480
0.035321
0.039614
0.040899
0.039928
0.036917
0.031947
0.024967
0.015895
0.004768
-0.008022
-0.021352
-0.033033
-0.040245
-0.041179
-0.037267
-0.031523
-0.024442
-0.016216
-0.007989
-0.000276
0.006565
0.012356
0.017046
0.020697
0.023482
0.025710
0.027297
0.028214
0.028545
0.028291
0.027339
0.025634
0.023275
0.020513
0.017633
0.014703
0.011443
0.007386
0.002195
-0.004056
-0.010818
-0.017276
-0.022705
-0.026749
-0.029478
-0.031135
-0.032014
-0.032373
-0.032268
-0.031867
-0.031434
-0.031204
-0.031417
-0.032291
-0.034013
-0.036734
-0.040486
-0.045279
-0.051022
-0.057560
-0.064671
-0.072062
-0.080663
0.287301
0.283300
0.273256
0.257740
0.236663
0.209703
0.176620
0.137559
0.093366
0.045782
-0.002567
-0.049064
-0.091760
-0.129459
-0.161509
-0.187568
-0.207536
-0.221117
-0.228191
-0.229048
-0.224237
-0.214561
-0.200992
-0.184565
-0.166261
-0.146921
-0.127195
-0.107531
-0.088202
-0.069360
-0.051100
-0.033507
-0.016679
-0.001253
0.012157
0.023039
0.030972
0.035843
0.037964
0.037501
0.034650
0.030323
0.024679
0.017665
0.009160
-0.000823
-0.011873
-0.022885
-0.032019
-0.037378
-0.038207
-0.035317
-0.029741
-0.022365
-0.014769
-0.007227
0.000014
0.006456
0.011918
0.016325
0.019716
0.022225
0.024053
0.025338
0.026279
0.026837
0.026946
0.026569
0.025621
0.024084
0.022033
0.019590
0.016733
0.013184
0.008640
0.002939
-0.003729
-0.010743
-0.017279
-0.022662
-0.026623
-0.029267
-0.030963
-0.032087
-0.032619
-0.032477
-0.031930
-0.031350
-0.030922
-0.030928
-0.031612
-0.033173
-0.035719
-0.039360
-0.044227
-0.050071
-0.056733
-0.063978
-0.071483
-0.079542
0.297574
0.294356
0.285390
0.270657
0.249729
0.221921
0.186576
0.143502
0.093556
0.039055
-0.015703
-0.066941
-0.112544
-0.151769
-0.184569
-0.211051
-0.231203
-0.244848
-0.251572
-0.251507
-0.245110
-0.233190
-0.216810
-0.197145
-0.175334
-0.152385
-0.129116
-0.106144
-0.083900
-0.062672
-0.042647
-0.023965
-0.006782
0.008311
0.020689
0.029791
0.035229
0.037007
0.035603
0.031823
0.026226
0.019791
0.013119
0.006174
-0.001197
-0.009052
-0.017114
-0.024615
-0.030402
-0.033408
-0.033228
-0.030210
-0.025046
-0.018536
-0.011428
-0.004291
0.002204
0.007895
0.012704
0.016479
0.019243
0.021097
0.022241
0.022931
0.023426
0.023867
0.024299
0.024633
0.024679
0.024206
0.023049
0.021087
0.018269
0.014393
0.009484
0.003601
-0.003024
-0.009805
-0.016090
-0.021389
-0.025520
-0.028557
-0.030644
-0.031831
-0.032073
-0.031804
-0.031336
-0.030817
-0.030254
-0.030116
-0.030652
-0.032102
-0.034632
-0.038318
-0.043116
-0.049009
-0.055745
-0.063080
-0.070663
-0.078480
0.313822
0.311018
0.302885
0.288953
0.268281
0.239512
0.201142
0.152146
0.093099
0.026997
-0.037706
-0.095216
-0.143787
-0.183960
-0.216909
-0.243473
-0.263735
-0.277307
-0.283523
-0.282128
-0.273414
-0.258256
-0.237920
-0.213827
-0.187359
-0.159744
-0.132000
-0.104927
-0.079118
-0.054991
-0.032813
-0.012732
0.005177
0.020358
0.031933
0.039112
0.041421
0.039019
0.032769
0.024106
0.014779
0.005802
-0.001978
-0.008616
-0.014409
-0.019621
-0.024259
-0.027988
-0.030242
-0.030504
-0.028597
-0.024736
-0.019395
-0.013151
-0.006580
-0.000185
0.005638
0.010678
0.014713
0.017682
0.019606
0.020554
0.020766
0.020615
0.020481
0.020578
0.021015
0.021704
0.022376
0.022675
0.022264
0.020893
0.018359
0.014645
0.009633
0.003610
-0.003033
-0.009600
-0.015599
-0.020671
-0.024663
-0.027591
-0.029540
-0.030604
-0.030908
-0.030669
-0.030030
-0.029138
-0.028540
-0.028406
-0.028880
-0.030290
-0.032848
-0.036631
-0.041584
-0.047567
-0.054447
-0.062028
-0.070113
-0.080143
0.335265
0.332883
0.325795
0.313154
0.293397
0.264145
0.222345
0.165074
0.091642
0.005136
-0.074436
-0.138662
-0.188414
-0.227398
-0.259031
-0.285235
-0.305942
-0.319741
-0.325691
-0.322702
-0.310830
-0.291173
-0.265420
-0.235422
-0.202920
-0.169420
-0.136162
-0.104126
-0.074057
-0.046492
-0.021770
-0.000038
0.018793
0.034495
0.045626
0.050948
0.049818
0.042593
0.030561
0.015758
0.000749
-0.011754
-0.020659
-0.026651
-0.030399
-0.032582
-0.033613
-0.033578
-0.032339
-0.029732
-0.025736
-0.020539
-0.014491
-0.008025
-0.001581
0.004455
0.009773
0.014153
0.017403
0.019457
0.020262
0.019985
0.018966
0.017684
0.016712
0.016170
0.016286
0.017034
0.018112
0.019062
0.019405
0.018733
0.016747
0.013319
0.008476
0.002430
-0.004173
-0.010743
-0.016588
-0.021401
-0.025038
-0.027523
-0.028973
-0.029546
-0.029423
-0.028808
-0.027895
-0.026902
-0.026118
-0.025726
-0.026135
-0.027550
-0.030160
-0.034032
-0.039123
-0.045323
-0.052468
-0.060473
-0.069401
-0.082622
0.361114
0.359333
0.353868
0.343576
0.326246
0.298143
0.253626
0.185613
0.088845
-0.036345
-0.135873
-0.202630
-0.247401
-0.280258
-0.307827
-0.333370
-0.356273
-0.372165
-0.379121
-0.374738
-0.358876
-0.333257
-0.300388
-0.262803
-0.222731
-0.182006
-0.142097
-0.104160
-0.069084
-0.037533
-0.009966
0.013368
0.032504
0.048583
0.059733
0.063657
0.059563
0.048197
0.031241
0.010968
-0.009854
-0.028217
-0.040361
-0.046025
-0.047823
-0.047059
-0.044662
-0.041131
-0.036658
-0.031307
-0.025166
-0.018419
-0.011351
-0.004301
0.002382
0.008392
0.013479
0.017444
0.020097
0.021279
0.020907
0.019120
0.016332
0.013196
0.010426
0.008944
0.008572
0.009344
0.010871
0.012574
0.013846
0.014152
0.013082
0.010402
0.006082
0.000355
-0.006246
-0.012967
-0.018796
-0.023492
-0.026811
-0.028791
-0.029589
-0.029432
-0.028578
-0.027280
-0.025783
-0.024319
-0.023136
-0.022485
-0.022679
-0.023985
-0.026596
-0.030589
-0.035897
-0.042359
-0.049822
-0.058254
-0.067850
-0.082533
0.390250
0.389341
0.386347
0.380019
0.367724
0.344381
0.300686
0.221159
0.084579
-0.119932
-0.236372
-0.288052
-0.314590
-0.333352
-0.352813
-0.377404
-0.406196
-0.430632
-0.441604
-0.437016
-0.416718
-0.383905
-0.342499
-0.295994
-0.247179
-0.198221
-0.150810
-0.106273
-0.065662
-0.029798
0.000672
0.025226
0.043542
0.056075
0.067489
0.070447
0.064228
0.050562
0.031727
0.009743
-0.013269
-0.034767
-0.052093
-0.061148
-0.062489
-0.060057
-0.055349
-0.049273
-0.042319
-0.034748
-0.026754
-0.018555
-0.010417
-0.002640
0.004475
0.010661
0.015684
0.019320
0.021309
0.021384
0.019416
0.015613
0.010622
0.005416
0.000984
-0.001900
-0.002624
-0.001552
0.000699
0.003402
0.005840
0.007383
0.007540
0.005992
0.002637
-0.002359
-0.008533
-0.015164
-0.021501
-0.026216
-0.029394
-0.031036
-0.031292
-0.030434
-0.028791
-0.026692
-0.024442
-0.022317
-0.020584
-0.019514
-0.019407
-0.020543
-0.023122
-0.027203
-0.032692
-0.039393
-0.047114
-0.055774
-0.065506
-0.079696
0.421049
0.421292
0.421678
0.421208
0.417510
0.405178
0.371805
0.288812
0.084560
-0.300807
-0.387425
-0.379249
-0.372050
-0.370714
-0.378546
-0.400620
-0.437079
-0.479913
-0.502164
-0.500578
-0.476805
-0.437119
-0.387488
-0.332454
-0.275301
-0.218473
-0.163877
-0.113067
-0.067332
-0.027760
0.004730
0.029329
0.045414
0.053573
0.055503
0.055424
0.048966
0.037651
0.022602
0.004760
-0.014756
-0.034272
-0.051557
-0.064285
-0.069459
-0.067559
-0.062536
-0.055621
-0.047556
-0.038797
-0.029674
-0.020489
-0.011554
-0.003191
0.004291
0.010606
0.015480
0.018605
0.019608
0.018136
0.014087
0.007869
0.000486
-0.006698
-0.012424
-0.015929
-0.016474
-0.014675
-0.011359
-0.007394
-0.003590
-0.000637
0.000925
0.000730
-0.001386
-0.005336
-0.010748
-0.016984
-0.023226
-0.028563
-0.031856
-0.033439
-0.033437
-0.032128
-0.029886
-0.027109
-0.024173
-0.021412
-0.019134
-0.017637
-0.017224
-0.018173
-0.020679
-0.024789
-0.030382
-0.037208
-0.044978
-0.053478
-0.062682
-0.075140
0.451372
0.452933
0.457290
0.464121
0.472370
0.478784
0.473365
0.423410
0.183867
-0.638384
-0.561566
-0.431239
-0.398524
-0.384383
-0.383307
-0.402904
-0.441646
-0.492322
-0.540007
-0.545611
-0.521862
-0.479015
-0.425050
-0.365257
-0.303180
-0.241483
-0.182378
-0.127814
-0.079610
-0.039556
-0.009272
0.010525
0.020716
0.023535
0.021542
0.017622
0.013760
0.008554
0.001450
-0.007868
-0.019383
-0.032452
-0.045666
-0.057100
-0.064910
-0.067097
-0.063725
-0.057840
-0.050301
-0.041704
-0.032510
-0.023137
-0.013995
-0.005484
0.002016
0.008145
0.012539
0.014774
0.014371
0.010954
0.004557
-0.004087
-0.013563
-0.022188
-0.028585
-0.031871
-0.031643
-0.028682
-0.023977
-0.018522
-0.013207
-0.008757
-0.005730
-0.004508
-0.005284
-0.008033
-0.012470
-0.018041
-0.023978
-0.029419
-0.033389
-0.035129
-0.035196
-0.033787
-0.031280
-0.028120
-0.024743
-0.021545
-0.018877
-0.017066
-0.016424
-0.017227
-0.019659
-0.023748
-0.029328
-0.036065
-0.043544
-0.051395
-0.059424
-0.069357
0.478777
0.481586
0.489751
0.503822
0.524699
0.553451
0.590495
0.631645
0.710604
0.036110
-0.486534
-0.411503
-0.402763
-0.394815
-0.395033
-0.410986
-0.444166
-0.488236
-0.532524
-0.556073
-0.535922
-0.494926
-0.442665
-0.384389
-0.323399
-0.262478
-0.204254
-0.151328
-0.106310
-0.071536
-0.048365
-0.036237
-0.032390
-0.033012
-0.035065
-0.034813
-0.032042
-0.028656
-0.026022
-0.025196
-0.026916
-0.031399
-0.038113
-0.045780
-0.052721
-0.057398
-0.058081
-0.054592
-0.048970
-0.041825
-0.033684
-0.025067
-0.016495
-0.008481
-0.001512
0.003945
0.007404
0.008324
0.006152
0.000566
-0.008168
-0.018946
-0.029997
-0.039449
-0.045930
-0.048375
-0.046878
-0.042369
-0.035988
-0.028851
-0.021918
-0.015944
-0.011479
-0.008886
-0.008361
-0.009907
-0.013304
-0.018079
-0.023531
-0.028828
-0.033158
-0.035445
-0.035871
-0.034691
-0.032272
-0.029074
-0.025574
-0.022212
-0.019381
-0.017435
-0.016695
-0.017434
-0.019818
-0.023840
-0.029268
-0.035670
-0.042499
-0.049243
-0.055562
-0.062365
0.500962
0.504663
0.515547
0.534735
0.564373
0.608187
0.672623
0.768608
0.903013
0.928344
0.000000
-0.408791
-0.406080
-0.406108
-0.410994
-0.426208
-0.449855
-0.479073
-0.507617
-0.522585
-0.513809
-0.476974
-0.430818
-0.379717
-0.325912
-0.272103
-0.221283
-0.176644
-0.141324
-0.117477
-0.105101
-0.101358
-0.101627
-0.101838
-0.098093
-0.089377
-0.077614
-0.064718
-0.052343
-0.041837
-0.034252
-0.030261
-0.029970
-0.032760
-0.037343
-0.042093
-0.045500
-0.045780
-0.042864
-0.038096
-0.031923
-0.024912
-0.017676
-0.010833
-0.004986
-0.000720
0.001353
0.000583
-0.003615
-0.011450
-0.022373
-0.034937
-0.047113
-0.056931
-0.063048
-0.064238
-0.061096
-0.054740
-0.046470
-0.037520
-0.028923
-0.021450
-0.015630
-0.011791
-0.010094
-0.010546
-0.012963
-0.016938
-0.021838
-0.026874
-0.031233
-0.034218
-0.035091
-0.034354
-0.032290
-0.029345
-0.026007
-0.022743
-0.019974
-0.018076
-0.017379
-0.018147
-0.020520
-0.024440
-0.029599
-0.035461
-0.041360
-0.046652
-0.050871
-0.054018
0.516272
0.520331
0.532256
0.553183
0.585149
0.631200
0.694863
0.777338
0.871420
0.953675
0.865637
0.000000
-0.411880
-0.417679
-0.424184
-0.438145
-0.453707
-0.467014
-0.473983
-0.469429
-0.451148
-0.422552
-0.383836
-0.343101
-0.300532
-0.258957
-0.221798
-0.192597
-0.174171
-0.166913
-0.167931
-0.171869
-0.173335
-0.169023
-0.155336
-0.136793
-0.115385
-0.093195
-0.072022
-0.053292
-0.038069
-0.027095
-0.020728
-0.018794
-0.020452
-0.024271
-0.028548
-0.031720
-0.032090
-0.030175
-0.026511
-0.021679
-0.016345
-0.011207
-0.006963
-0.004313
-0.003992
-0.006743
-0.013144
-0.023247
-0.036221
-0.050328
-0.063357
-0.073266
-0.078719
-0.078314
-0.073279
-0.064920
-0.054689
-0.043928
-0.033723
-0.024857
-0.017829
-0.012916
-0.010233
-0.009762
-0.011334
-0.014589
-0.018956
-0.023700
-0.028042
-0.031310
-0.032759
-0.032573
-0.031011
-0.028496
-0.025511
-0.022533
-0.019998
-0.018294
-0.017758
-0.018638
-0.021039
-0.024844
-0.029667
-0.034873
-0.039682
-0.043325
-0.045198
-0.044207
0.524040
0.527915
0.539229
0.558747
0.587677
0.627454
0.679280
0.741997
0.803056
0.820347
0.777599
0.656244
0.000000
-0.427279
-0.436879
-0.453903
-0.465779
-0.461692
-0.440897
-0.409460
-0.373868
-0.339323
-0.305460
-0.273278
-0.243724
-0.217979
-0.200497
-0.194045
-0.199071
-0.212380
-0.227599
-0.237748
-0.238010
-0.223378
-0.200221
-0.172164
-0.141824
-0.111499
-0.083054
-0.057879
-0.036928
-0.020812
-0.009851
-0.004036
-0.002871
-0.005259
-0.009618
-0.014270
-0.017655
-0.018378
-0.017308
-0.014865
-0.011698
-0.008548
-0.006187
-0.005421
-0.007097
-0.012029
-0.020751
-0.033127
-0.048060
-0.063576
-0.077315
-0.087162
-0.091605
-0.089383
-0.082414
-0.072122
-0.060080
-0.047705
-0.036116
-0.026084
-0.018071
-0.012301
-0.008839
-0.007634
-0.008518
-0.011165
-0.015056
-0.019507
-0.023774
-0.027206
-0.029094
-0.029413
-0.028366
-0.026335
-0.023783
-0.021182
-0.018974
-0.017554
-0.017253
-0.018304
-0.020769
-0.024472
-0.028949
-0.033476
-0.037165
-0.039111
-0.038549
-0.033007
0.524599
0.527902
0.537475
0.553705
0.577085
0.607783
0.644506
0.682298
0.707904
0.694911
0.626260
0.534889
0.359430
0.000000
-0.462070
-0.487261
-0.497638
-0.470731
-0.416669
-0.353426
-0.293898
-0.244603
-0.208378
-0.184226
-0.165233
-0.157276
-0.163841
-0.184537
-0.215568
-0.249581
-0.277338
-0.291504
-0.285104
-0.261007
-0.229287
-0.193336
-0.156022
-0.119689
-0.086123
-0.056567
-0.031797
-0.012234
0.001940
0.010737
0.014445
0.013806
0.010105
0.004978
-0.000008
-0.003262
-0.004595
-0.004421
-0.003382
-0.002240
-0.001830
-0.003052
-0.006848
-0.014065
-0.025150
-0.039759
-0.056544
-0.073332
-0.087657
-0.097445
-0.099938
-0.096214
-0.087601
-0.075744
-0.062315
-0.048766
-0.036208
-0.025378
-0.016693
-0.010325
-0.006295
-0.004527
-0.004854
-0.006980
-0.010434
-0.014582
-0.018707
-0.022153
-0.024384
-0.025088
-0.024475
-0.022883
-0.020748
-0.018531
-0.016671
-0.015563
-0.015530
-0.016782
-0.019341
-0.022972
-0.027145
-0.031056
-0.033712
-0.034068
-0.031166
-0.020846
0.519010
0.521526
0.528730
0.540610
0.556920
0.576703
0.597353
0.613046
0.612547
0.577890
0.490990
0.341352
0.183971
-0.263861
-0.584265
-0.535132
-0.522352
-0.472007
-0.392159
-0.304501
-0.225722
-0.163180
-0.118336
-0.094191
-0.084853
-0.095301
-0.125636
-0.171535
-0.224865
-0.274931
-0.310541
-0.323712
-0.307479
-0.277799
-0.240522
-0.199745
-0.158526
-0.119128
-0.083136
-0.051563
-0.024965
-0.003568
0.012606
0.023632
0.029680
0.031166
0.028956
0.024390
0.018990
0.014077
0.010940
0.009263
0.008461
0.007776
0.006330
0.003148
-0.002772
-0.012259
-0.025620
-0.042289
-0.060692
-0.078487
-0.093073
-0.102114
-0.103127
-0.098100
-0.088355
-0.075582
-0.061455
-0.047395
-0.034458
-0.023321
-0.014345
-0.007662
-0.003262
-0.001061
-0.000905
-0.002536
-0.005535
-0.009321
-0.013216
-0.016577
-0.018934
-0.019889
-0.019582
-0.018325
-0.016532
-0.014647
-0.013105
-0.012294
-0.012526
-0.013986
-0.016658
-0.020261
-0.024212
-0.027643
-0.029472
-0.028517
-0.023617
-0.008679
0.508715
0.510340
0.514912
0.522127
0.531264
0.540774
0.547608
0.546246
0.527578
0.478039
0.379613
0.206954
-0.093752
-0.711694
-0.633398
-0.531693
-0.486853
-0.427930
-0.347286
-0.259459
-0.178454
-0.112120
-0.062353
-0.033059
-0.028628
-0.052150
-0.099607
-0.161993
-0.228028
-0.285379
-0.322409
-0.324458
-0.305299
-0.273328
-0.234397
-0.192710
-0.151241
-0.112037
-0.076430
-0.045199
-0.018710
0.002967
0.019940
0.032382
0.040449
0.044334
0.044472
0.041719
0.037274
0.032310
0.028141
0.025247
0.023055
0.020853
0.017757
0.012757
0.004847
-0.006716
-0.022063
-0.040407
-0.059998
-0.078390
-0.093015
-0.100637
-0.100568
-0.094863
-0.084798
-0.072004
-0.058069
-0.044308
-0.031679
-0.020778
-0.011912
-0.005181
-0.000573
0.001985
0.002615
0.001527
-0.000926
-0.004223
-0.007739
-0.010862
-0.013140
-0.014171
-0.014020
-0.012972
-0.011421
-0.009795
-0.008517
-0.007965
-0.008437
-0.010094
-0.012893
-0.016522
-0.020366
-0.023521
-0.024849
-0.023067
-0.016830
0.001903
0.495363
0.496120
0.498172
0.501058
0.503841
0.504809
0.501029
0.487802
0.458087
0.402023
0.306367
0.153257
-0.080822
-0.381732
-0.449947
-0.436428
-0.402966
-0.354891
-0.292631
-0.222986
-0.155471
-0.096915
-0.051751
-0.016055
-0.012904
-0.042200
-0.094999
-0.160022
-0.225265
-0.278525
-0.303804
-0.300959
-0.281358
-0.250823
-0.214338
-0.175642
-0.137362
-0.101251
-0.068401
-0.039424
-0.014580
0.006112
0.022804
0.035732
0.045122
0.051139
0.053966
0.054000
0.051923
0.048473
0.044923
0.041775
0.038808
0.035517
0.031099
0.024578
0.015017
0.001815
-0.014964
-0.034352
-0.054476
-0.072810
-0.086605
-0.092710
-0.092591
-0.087173
-0.077809
-0.066023
-0.053237
-0.040604
-0.028947
-0.018776
-0.010355
-0.003781
0.000940
0.003840
0.004990
0.004542
0.002781
0.000155
-0.002776
-0.005452
-0.007442
-0.008348
-0.008196
-0.007239
-0.005838
-0.004401
-0.003334
-0.002998
-0.003677
-0.005514
-0.008449
-0.012163
-0.016043
-0.019189
-0.020460
-0.018544
-0.012002
0.008674
0.480556
0.480550
0.480407
0.479633
0.477277
0.471737
0.460501
0.439883
0.404818
0.348851
0.264443
0.144271
-0.013212
-0.185896
-0.277712
-0.308055
-0.303786
-0.277383
-0.237047
-0.189284
-0.140369
-0.095576
-0.056758
-0.033275
-0.034092
-0.059668
-0.104284
-0.158511
-0.210816
-0.248893
-0.263129
-0.259771
-0.242965
-0.217174
-0.186316
-0.153436
-0.120715
-0.089614
-0.061040
-0.035505
-0.013241
0.005710
0.021446
0.034156
0.044070
0.051408
0.056358
0.059114
0.059910
0.059632
0.058450
0.056175
0.053275
0.049558
0.044380
0.036884
0.026283
0.012160
-0.005239
-0.024833
-0.044728
-0.062480
-0.074586
-0.080344
-0.080789
-0.076609
-0.068974
-0.059176
-0.048393
-0.037569
-0.027381
-0.018266
-0.010473
-0.004131
0.000697
0.003981
0.005729
0.006029
0.005104
0.003329
0.001188
-0.000822
-0.002290
-0.002876
-0.002588
-0.001627
-0.000313
0.000981
0.001876
0.002030
0.001180
-0.000810
-0.003885
-0.007748
-0.011826
-0.015273
-0.017015
-0.015826
-0.010329
0.008991
0.465714
0.465073
0.463136
0.459458
0.453206
0.443033
0.426963
0.402299
0.365648
0.313186
0.241332
0.148323
0.037805
-0.075513
-0.155928
-0.199492
-0.214115
-0.207751
-0.187247
-0.158275
-0.125990
-0.094735
-0.069283
-0.055360
-0.057749
-0.077021
-0.109422
-0.147905
-0.183471
-0.206481
-0.216378
-0.213752
-0.201012
-0.181153
-0.157010
-0.130910
-0.104583
-0.079211
-0.055531
-0.033954
-0.014676
0.002239
0.016813
0.029130
0.039330
0.047581
0.054042
0.058819
0.062662
0.065436
0.066423
0.065892
0.064054
0.060800
0.055665
0.047997
0.037224
0.023131
0.006103
-0.012745
-0.031593
-0.047669
-0.058820
-0.065330
-0.067280
-0.065282
-0.060258
-0.053196
-0.044983
-0.036341
-0.027820
-0.019814
-0.012609
-0.006408
-0.001372
0.002386
0.004817
0.005941
0.005936
0.005114
0.003887
0.002688
0.001947
0.001797
0.002301
0.003313
0.004566
0.005731
0.006468
0.006470
0.005488
0.003382
0.000174
-0.003894
-0.008333
-0.012398
-0.015152
-0.015619
-0.012595
0.001348
0.452015
0.450858
0.447491
0.441587
0.432500
0.419194
0.400213
0.373697
0.337513
0.289588
0.228541
0.154791
0.072295
-0.009750
-0.076009
-0.120517
-0.144310
-0.151053
-0.145116
-0.130832
-0.112350
-0.093563
-0.078375
-0.070616
-0.073066
-0.086074
-0.107210
-0.131756
-0.153777
-0.168713
-0.175158
-0.173052
-0.163683
-0.148942
-0.130792
-0.110939
-0.090694
-0.070949
-0.052219
-0.034742
-0.018587
-0.003767
0.009695
0.021752
0.032372
0.041573
0.049423
0.056400
0.062218
0.066652
0.069531
0.070852
0.070569
0.068464
0.064147
0.057162
0.047161
0.034106
0.018446
0.001217
-0.015719
-0.030440
-0.042151
-0.050211
-0.054507
-0.055400
-0.053520
-0.049527
-0.044014
-0.037504
-0.030465
-0.023309
-0.016417
-0.010101
-0.004677
-0.000348
0.002834
0.004794
0.005713
0.005861
0.005588
0.005261
0.005112
0.005362
0.006060
0.007096
0.008251
0.009256
0.009830
0.009703
0.008641
0.006482
0.003173
-0.001136
-0.006080
-0.011058
-0.015339
-0.018178
-0.018997
-0.013904
0.440421
0.438814
0.434269
0.426643
0.415512
0.400144
0.379519
0.352415
0.317570
0.273971
0.221330
0.160746
0.095469
0.031315
-0.024011
-0.065907
-0.093397
-0.107809
-0.111648
-0.107904
-0.099713
-0.090156
-0.082193
-0.078432
-0.080604
-0.088943
-0.101976
-0.116832
-0.130310
-0.139450
-0.142989
-0.140759
-0.133489
-0.122415
-0.108914
-0.094239
-0.079347
-0.064835
-0.050939
-0.037615
-0.024667
-0.011925
0.000610
0.012727
0.024108
0.034516
0.044055
0.052528
0.059800
0.065760
0.070272
0.073221
0.074452
0.073709
0.070664
0.065007
0.056557
0.045365
0.031813
0.016787
0.001169
-0.013793
-0.026996
-0.037455
-0.044652
-0.048673
-0.049926
-0.048795
-0.045599
-0.040718
-0.034631
-0.027803
-0.020834
-0.014056
-0.008018
-0.002949
0.000972
0.003783
0.005536
0.006458
0.006865
0.007080
0.007343
0.007819
0.008547
0.009450
0.010375
0.011132
0.011510
0.011286
0.010231
0.008129
0.004782
0.000236
-0.005358
-0.011608
-0.017771
-0.023285
-0.028145
-0.033457
0.431771
0.429666
0.424000
0.414930
0.402267
0.385521
0.363999
0.336924
0.303588
0.263589
0.217140
0.165447
0.111028
0.057714
0.009989
-0.028881
-0.057523
-0.076187
-0.086210
-0.089563
-0.088513
-0.085376
-0.082339
-0.081239
-0.083251
-0.088585
-0.096418
-0.105183
-0.112912
-0.117729
-0.118781
-0.115948
-0.109743
-0.101078
-0.091005
-0.080476
-0.070183
-0.060452
-0.051223
-0.042093
-0.032458
-0.021770
-0.009879
0.002780
0.015412
0.027418
0.038491
0.048457
0.057215
0.064661
0.070665
0.075074
0.077695
0.078300
0.076673
0.072658
0.066195
0.057294
0.045889
0.032057
0.016623
0.000338
-0.015405
-0.028912
-0.039043
-0.045710
-0.049401
-0.050382
-0.048669
-0.044557
-0.038781
-0.031599
-0.024147
-0.017069
-0.010490
-0.004785
-0.000197
0.003249
0.005641
0.007172
0.008095
0.008665
0.009074
0.009470
0.009914
0.010391
0.010849
0.011210
0.011360
0.011113
0.010211
0.008381
0.005056
0.000002
-0.006511
-0.013907
-0.021642
-0.029308
-0.037176
-0.051143
0.427000
0.424023
0.416977
0.406503
0.392583
0.374858
0.352825
0.325983
0.293960
0.256682
0.214576
0.168774
0.121239
0.074659
0.031990
-0.004387
-0.033157
-0.054104
-0.067896
-0.075809
-0.079476
-0.080603
-0.080812
-0.081451
-0.083385
-0.086831
-0.091411
-0.096246
-0.099987
-0.101634
-0.100659
-0.097068
-0.091332
-0.084229
-0.076636
-0.069323
-0.062786
-0.057145
-0.052103
-0.046961
-0.040665
-0.032058
-0.020501
-0.006657
0.007320
0.021020
0.033823
0.045415
0.055668
0.064503
0.071815
0.077452
0.081226
0.082964
0.082603
0.080163
0.075727
0.068368
0.058201
0.045231
0.029232
0.010739
-0.008361
-0.025222
-0.037687
-0.045639
-0.050284
-0.052297
-0.051201
-0.046629
-0.040539
-0.033705
-0.026085
-0.018454
-0.011418
-0.005321
-0.000341
0.003515
0.006355
0.008313
0.009566
0.010300
0.010581
0.010579
0.010395
0.010113
0.009837
0.009665
0.009618
0.009527
0.008943
0.007151
0.003866
-0.001269
-0.008248
-0.016561
-0.025473
-0.034389
-0.043350
-0.060125
0.427753
0.422341
0.413173
0.401170
0.386148
0.367689
0.345315
0.318683
0.287606
0.252175
0.212892
0.170787
0.127454
0.084942
0.045434
0.010790
-0.017803
-0.039940
-0.055918
-0.066565
-0.073155
-0.076922
-0.079108
-0.080760
-0.082585
-0.084887
-0.087473
-0.089741
-0.090975
-0.090578
-0.088262
-0.084132
-0.078654
-0.072529
-0.066524
-0.061286
-0.057182
-0.054208
-0.051962
-0.049684
-0.046203
-0.039750
-0.028319
-0.014346
0.001285
0.016840
0.031336
0.044369
0.055832
0.065700
0.073911
0.080331
0.084772
0.087092
0.087447
0.086093
0.081987
0.075669
0.066645
0.054202
0.037678
0.017272
-0.004891
-0.024797
-0.038848
-0.046518
-0.049891
-0.051061
-0.050275
-0.047033
-0.040955
-0.033595
-0.025785
-0.018107
-0.011045
-0.004915
0.000134
0.004114
0.007202
0.009426
0.010767
0.011353
0.011416
0.011022
0.010265
0.009284
0.008286
0.007497
0.007053
0.006856
0.006485
0.005048
0.002131
-0.002713
-0.009590
-0.018011
-0.027237
-0.036618
-0.045983
-0.057666
0.438503
0.424260
0.412003
0.398653
0.382853
0.363868
0.341280
0.314769
0.284217
0.249774
0.211953
0.171704
0.130428
0.089874
0.051898
0.018123
-0.010339
-0.033019
-0.050082
-0.062170
-0.070100
-0.075072
-0.078211
-0.080450
-0.082426
-0.084408
-0.086290
-0.087659
-0.087991
-0.086842
-0.084024
-0.079675
-0.074243
-0.068382
-0.062798
-0.058075
-0.054532
-0.052119
-0.050402
-0.048596
-0.045610
-0.040109
-0.031263
-0.017189
-0.000542
0.016081
0.031448
0.045132
0.057064
0.067258
0.075682
0.082218
0.086674
0.088864
0.088682
0.086244
0.082233
0.076157
0.067454
0.055455
0.039586
0.019989
-0.001597
-0.021672
-0.036653
-0.045366
-0.049355
-0.050347
-0.049014
-0.045527
-0.039818
-0.032721
-0.025106
-0.017610
-0.010704
-0.004696
0.000267
0.004174
0.007062
0.009156
0.010538
0.011218
0.011307
0.010901
0.010101
0.009052
0.007953
0.007016
0.006354
0.005847
0.005090
0.003702
0.000737
-0.004118
-0.010760
-0.018847
-0.027806
-0.037136
-0.046665
-0.057119
