# vtk DataFile Version 3.0
Vector Field
ASCII
DATASET RECTILINEAR_GRID
DIMENSIONS 100 26 1
X_COORDINATES 100 double
0.050000 0.150000 0.250000 0.350000 0.450000 0.550000 0.650000 0.750000 0.850000 0.950000 1.050000 1.150000 1.250000 1.350000 1.450000 1.550000 1.650000 1.750000 1.850000 1.950000 2.050000 2.150000 2.250000 2.350000 2.450000 2.550000 2.650000 2.750000 2.850000 2.950000 3.050000 3.150000 3.250000 3.350000 3.450000 3.550000 3.650000 3.750000 3.850000 3.950000 4.050000 4.150000 4.250000 4.350000 4.450000 4.550000 4.650000 4.750000 4.850000 4.950000 5.050000 5.150000 5.250000 5.350000 5.450000 5.550000 5.650000 5.750000 5.850000 5.950000 6.050000 6.150000 6.250000 6.350000 6.450000 6.550000 6.650000 6.750000 6.850000 6.950000 7.050000 7.150000 7.250000 7.350000 7.450000 7.550000 7.650000 7.750000 7.850000 7.950000 8.050000 8.150000 8.250000 8.350000 8.450000 8.550000 8.650000 8.750000 8.850000 8.950000 9.050000 9.150000 9.250000 9.350000 9.450000 9.550000 9.650000 9.750000 9.850000 9.950000 
Y_COORDINATES 26 double
0.050000 0.150000 0.250000 0.350000 0.450000 0.550000 0.650000 0.750000 0.850000 0.950000 1.050000 1.150000 1.250000 1.350000 1.450000 1.550000 1.650000 1.750000 1.850000 1.950000 2.050000 2.150000 2.250000 2.350000 2.450000 2.550000 
Z_COORDINATES 1 double
0.0
POINT_DATA 2600
VECTORS Vektorfeld double
0.997770 0.002230 0.0
0.993424 0.002117 0.0
0.990879 0.000427 0.0
0.992372 -0.001920 0.0
0.998794 -0.004502 0.0
1.010324 -0.007028 0.0
1.026568 -0.009216 0.0
1.046559 -0.010775 0.0
1.068777 -0.011443 0.0
1.091273 -0.011053 0.0
1.111928 -0.009602 0.0
1.128777 -0.007247 0.0
1.140270 -0.004246 0.0
1.145459 -0.000943 0.0
1.144069 0.002333 0.0
1.136177 0.005558 0.0
1.122015 0.008604 0.0
1.102076 0.011336 0.0
1.077106 0.013635 0.0
1.048075 0.015396 0.0
1.016142 0.016537 0.0
0.982605 0.017000 0.0
0.948844 0.016762 0.0
0.916246 0.015836 0.0
0.886131 0.014279 0.0
0.859659 0.012193 0.0
0.837741 0.009725 0.0
0.820948 0.007069 0.0
0.809411 0.004469 0.0
0.802719 0.002222 0.0
0.799902 0.000595 0.0
0.799446 -0.000138 0.0
0.799324 0.000260 0.0
0.797180 0.001884 0.0
0.790716 0.004580 0.0
0.778080 0.008057 0.0
0.758076 0.011947 0.0
0.730258 0.015870 0.0
0.694916 0.019472 0.0
0.652993 0.022451 0.0
0.605976 0.024566 0.0
0.555775 0.025634 0.0
0.504616 0.025525 0.0
0.455028 0.024063 0.0
0.410123 0.020842 0.0
0.374016 0.015265 0.0
0.351347 0.007403 0.0
0.344499 -0.000555 0.0
0.350148 -0.005095 0.0
0.362268 -0.007025 0.0
0.377020 -0.007727 0.0
0.392424 -0.007677 0.0
0.407217 -0.007116 0.0
0.420544 -0.006211 0.0
0.431843 -0.005089 0.0
0.440791 -0.003860 0.0
0.447280 -0.002629 0.0
0.451409 -0.001500 0.0
0.453454 -0.000546 0.0
0.453577 0.000423 0.0
0.451344 0.001809 0.0
0.445942 0.003593 0.0
0.436825 0.005525 0.0
0.423963 0.007337 0.0
0.407973 0.008653 0.0
0.390249 0.009071 0.0
0.372765 0.008413 0.0
0.357409 0.006943 0.0
0.345179 0.005287 0.0
0.335813 0.004079 0.0
0.328167 0.003567 0.0
0.321070 0.003530 0.0
0.314017 0.003523 0.0
0.307279 0.003216 0.0
0.301491 0.002573 0.0
0.297127 0.001791 0.0
0.294235 0.001101 0.0
0.292536 0.000598 0.0
0.291642 0.000296 0.0
0.291193 0.000153 0.0
0.290923 0.000117 0.0
0.290544 0.000261 0.0
0.289675 0.000608 0.0
0.287994 0.001074 0.0
0.285406 0.001514 0.0
0.282112 0.001781 0.0
0.278485 0.001846 0.0
0.274849 0.001790 0.0
0.271324 0.001735 0.0
0.267813 0.001776 0.0
0.264114 0.001923 0.0
0.260073 0.002118 0.0
0.255677 0.002278 0.0
0.251066 0.002333 0.0
0.246496 0.002237 0.0
0.242305 0.001953 0.0
0.238916 0.001436 0.0
0.236829 0.000651 0.0
0.236386 -0.000208 0.0
0.237955 -0.001361 0.0
1.003064 0.001395 0.0
1.012007 -0.001644 0.0
1.026037 -0.007298 0.0
1.044568 -0.014219 0.0
1.067556 -0.021613 0.0
1.094898 -0.028789 0.0
1.126196 -0.034998 0.0
1.160624 -0.039412 0.0
1.196852 -0.041252 0.0
1.233095 -0.039984 0.0
1.267385 -0.035615 0.0
1.297952 -0.028650 0.0
1.323458 -0.019842 0.0
1.342936 -0.010013 0.0
1.355624 0.000105 0.0
1.361207 0.010094 0.0
1.359907 0.019530 0.0
1.352247 0.028009 0.0
1.339013 0.035167 0.0
1.321217 0.040690 0.0
1.300065 0.044327 0.0
1.276904 0.045907 0.0
1.253162 0.045358 0.0
1.230276 0.042723 0.0
1.209611 0.038173 0.0
1.192369 0.032014 0.0
1.179500 0.024691 0.0
1.171609 0.016786 0.0
1.168873 0.009025 0.0
1.170998 0.002233 0.0
1.177059 -0.002659 0.0
1.185365 -0.004734 0.0
1.193722 -0.003380 0.0
1.199848 0.001543 0.0
1.201493 0.009739 0.0
1.196666 0.020361 0.0
1.184057 0.032257 0.0
1.163173 0.044262 0.0
1.134276 0.055319 0.0
1.098272 0.064531 0.0
1.056599 0.071176 0.0
1.011128 0.074696 0.0
0.964101 0.074649 0.0
0.918079 0.070549 0.0
0.875630 0.061710 0.0
0.838427 0.047707 0.0
0.806127 0.029930 0.0
0.777472 0.012422 0.0
0.754856 -0.001104 0.0
0.742396 -0.010676 0.0
0.740071 -0.016504 0.0
0.745312 -0.019545 0.0
0.755911 -0.020641 0.0
0.770295 -0.020397 0.0
0.787339 -0.019244 0.0
0.806149 -0.017463 0.0
0.825841 -0.015207 0.0
0.845312 -0.012521 0.0
0.863059 -0.009317 0.0
0.877459 -0.005328 0.0
0.887678 -0.000426 0.0
0.893852 0.005056 0.0
0.896284 0.010747 0.0
0.895169 0.016091 0.0
0.890665 0.020393 0.0
0.882735 0.022985 0.0
0.871023 0.023695 0.0
0.854969 0.023073 0.0
0.834274 0.022083 0.0
0.809436 0.021487 0.0
0.781946 0.021294 0.0
0.754065 0.020781 0.0
0.728339 0.019051 0.0
0.707056 0.015708 0.0
0.691755 0.011170 0.0
0.682889 0.006423 0.0
0.679805 0.002445 0.0
0.680984 -0.000227 0.0
0.684693 -0.001694 0.0
0.689663 -0.002378 0.0
0.695092 -0.002510 0.0
0.700370 -0.002010 0.0
0.705101 -0.000983 0.0
0.709181 0.000266 0.0
0.712657 0.001433 0.0
0.715431 0.002383 0.0
0.717153 0.003149 0.0
0.717403 0.003872 0.0
0.715888 0.004693 0.0
0.712535 0.005681 0.0
0.707498 0.006754 0.0
0.701106 0.007722 0.0
0.693785 0.008391 0.0
0.685988 0.008628 0.0
0.678135 0.008366 0.0
0.670584 0.007566 0.0
0.663623 0.006174 0.0
0.657529 0.004095 0.0
0.653024 0.001296 0.0
0.652484 -0.003894 0.0
1.001972 -0.003641 0.0
1.009079 -0.012658 0.0
1.022130 -0.023364 0.0
1.040653 -0.035206 0.0
1.064563 -0.047524 0.0
1.093805 -0.059463 0.0
1.128077 -0.069894 0.0
1.166557 -0.077424 0.0
1.207711 -0.080622 0.0
1.249199 -0.078345 0.0
1.288328 -0.070672 0.0
1.322857 -0.058689 0.0
1.351352 -0.043805 0.0
1.373103 -0.027280 0.0
1.387911 -0.010123 0.0
1.395886 0.006765 0.0
1.397354 0.022692 0.0
1.392839 0.037022 0.0
1.383053 0.049175 0.0
1.368888 0.058642 0.0
1.351402 0.065014 0.0
1.331773 0.068011 0.0
1.311255 0.067514 0.0
1.291123 0.063584 0.0
1.272612 0.056487 0.0
1.256858 0.046695 0.0
1.244851 0.034885 0.0
1.237401 0.021933 0.0
1.235108 0.008908 0.0
1.238258 -0.002926 0.0
1.246672 -0.011975 0.0
1.259546 -0.016598 0.0
1.275222 -0.015551 0.0
1.291199 -0.008389 0.0
1.304815 0.004409 0.0
1.313840 0.021493 0.0
1.316641 0.040933 0.0
1.312319 0.060791 0.0
1.300681 0.079326 0.0
1.282130 0.095080 0.0
1.257542 0.106887 0.0
1.228156 0.113843 0.0
1.195447 0.115239 0.0
1.160927 0.110501 0.0
1.125804 0.099330 0.0
1.090701 0.082391 0.0
1.056111 0.062137 0.0
1.023192 0.041788 0.0
0.992739 0.022600 0.0
0.965006 0.005813 0.0
0.941886 -0.007549 0.0
0.925509 -0.017363 0.0
0.916039 -0.023951 0.0
0.912685 -0.028116 0.0
0.914603 -0.030488 0.0
0.921033 -0.031459 0.0
0.931311 -0.031182 0.0
0.944891 -0.029597 0.0
0.961383 -0.026480 0.0
0.980505 -0.021688 0.0
1.001694 -0.015474 0.0
1.023835 -0.008211 0.0
1.045661 -0.000244 0.0
1.065986 0.007873 0.0
1.083573 0.015528 0.0
1.097122 0.022232 0.0
1.105357 0.027924 0.0
1.107260 0.032995 0.0
1.102432 0.037684 0.0
1.091268 0.041887 0.0
1.074735 0.044918 0.0
1.054005 0.045768 0.0
1.030127 0.043668 0.0
1.003883 0.038617 0.0
0.975949 0.031497 0.0
0.947308 0.023603 0.0
0.919699 0.015958 0.0
0.895747 0.009033 0.0
0.878141 0.002943 0.0
0.868149 -0.001995 0.0
0.865012 -0.005185 0.0
0.866991 -0.006592 0.0
0.872547 -0.006689 0.0
0.880373 -0.005935 0.0
0.889111 -0.004581 0.0
0.897480 -0.002746 0.0
0.904542 -0.000506 0.0
0.909768 0.002051 0.0
0.912971 0.004826 0.0
0.914243 0.007629 0.0
0.913919 0.010166 0.0
0.912493 0.012129 0.0
0.910502 0.013295 0.0
0.908452 0.013570 0.0
0.906763 0.012965 0.0
0.905741 0.011539 0.0
0.905582 0.009321 0.0
0.906419 0.006204 0.0
0.908298 0.001814 0.0
0.911633 -0.007206 0.0
1.001592 -0.007205 0.0
1.007811 -0.022420 0.0
1.020015 -0.038858 0.0
1.038202 -0.056423 0.0
1.062621 -0.074636 0.0
1.093587 -0.092559 0.0
1.131178 -0.108661 0.0
1.174795 -0.120754 0.0
1.222752 -0.126403 0.0
1.271617 -0.122917 0.0
1.317101 -0.110713 0.0
1.356120 -0.092196 0.0
1.387240 -0.069913 0.0
1.410113 -0.045796 0.0
1.424896 -0.021199 0.0
1.431978 0.002784 0.0
1.431908 0.025276 0.0
1.425369 0.045491 0.0
1.413193 0.062667 0.0
1.396390 0.076117 0.0
1.376127 0.085289 0.0
1.353682 0.089811 0.0
1.330391 0.089523 0.0
1.307598 0.084500 0.0
1.286612 0.075069 0.0
1.268668 0.061812 0.0
1.254897 0.045546 0.0
1.246331 0.027289 0.0
1.243937 0.008239 0.0
1.248520 -0.009991 0.0
1.260353 -0.025157 0.0
1.278727 -0.034663 0.0
1.301714 -0.036148 0.0
1.326305 -0.028360 0.0
1.348967 -0.011898 0.0
1.366757 0.010985 0.0
1.378066 0.037332 0.0
1.382369 0.064412 0.0
1.379802 0.089910 0.0
1.370890 0.111959 0.0
1.356367 0.129118 0.0
1.337046 0.140318 0.0
1.313724 0.144796 0.0
1.287068 0.142119 0.0
1.257526 0.132378 0.0
1.225397 0.116575 0.0
1.191194 0.096747 0.0
1.155966 0.075326 0.0
1.121174 0.054307 0.0
1.088191 0.034822 0.0
1.057625 0.017129 0.0
1.030084 0.001877 0.0
1.007044 -0.010682 0.0
0.989573 -0.020560 0.0
0.977662 -0.028051 0.0
0.970860 -0.033522 0.0
0.968651 -0.037187 0.0
0.970641 -0.039161 0.0
0.976742 -0.039507 0.0
0.987254 -0.038296 0.0
1.002794 -0.035596 0.0
1.024015 -0.031450 0.0
1.051083 -0.025900 0.0
1.083164 -0.018876 0.0
1.118166 -0.010313 0.0
1.152862 -0.000172 0.0
1.183606 0.011350 0.0
1.207687 0.023585 0.0
1.224005 0.035604 0.0
1.232410 0.046724 0.0
1.233123 0.055901 0.0
1.226562 0.062075 0.0
1.213230 0.064572 0.0
1.193787 0.063401 0.0
1.169263 0.059172 0.0
1.141168 0.052665 0.0
1.111246 0.044428 0.0
1.080960 0.034801 0.0
1.051317 0.024424 0.0
1.023472 0.014362 0.0
0.999461 0.005607 0.0
0.981470 -0.001372 0.0
0.970235 -0.006229 0.0
0.964763 -0.008749 0.0
0.963341 -0.009082 0.0
0.964303 -0.007576 0.0
0.966180 -0.004616 0.0
0.967756 -0.000640 0.0
0.968227 0.003843 0.0
0.967343 0.008224 0.0
0.965361 0.011878 0.0
0.962896 0.014309 0.0
0.960756 0.015247 0.0
0.959759 0.014665 0.0
0.960589 0.012730 0.0
0.963667 0.009718 0.0
0.969049 0.005918 0.0
0.976387 0.001430 0.0
0.984917 -0.003822 0.0
0.993001 -0.012991 0.0
1.001402 -0.010199 0.0
1.007038 -0.031280 0.0
1.018475 -0.053639 0.0
1.036157 -0.077510 0.0
1.060855 -0.102666 0.0
1.093562 -0.128201 0.0
1.135167 -0.152215 0.0
1.185749 -0.171398 0.0
1.243998 -0.181964 0.0
1.304194 -0.176416 0.0
1.358394 -0.156898 0.0
1.402451 -0.129087 0.0
1.435733 -0.097424 0.0
1.458984 -0.064410 0.0
1.473015 -0.031400 0.0
1.478451 0.000467 0.0
1.475896 0.030218 0.0
1.466032 0.056951 0.0
1.449749 0.079668 0.0
1.428201 0.097467 0.0
1.402759 0.109644 0.0
1.374925 0.115734 0.0
1.346271 0.115545 0.0
1.318375 0.109166 0.0
1.292777 0.096987 0.0
1.270921 0.079693 0.0
1.254123 0.058234 0.0
1.243566 0.033724 0.0
1.240407 0.007356 0.0
1.245771 -0.019054 0.0
1.260298 -0.042454 0.0
1.283515 -0.058958 0.0
1.313506 -0.064830 0.0
1.346900 -0.057664 0.0
1.379149 -0.037506 0.0
1.405461 -0.007510 0.0
1.422905 0.027074 0.0
1.431277 0.061994 0.0
1.431682 0.094490 0.0
1.425443 0.122530 0.0
1.413787 0.144726 0.0
1.397657 0.160161 0.0
1.377663 0.168270 0.0
1.354110 0.168853 0.0
1.327090 0.162205 0.0
1.296679 0.149289 0.0
1.263208 0.131706 0.0
1.227454 0.111349 0.0
1.190583 0.089947 0.0
1.153934 0.068814 0.0
1.118808 0.048829 0.0
1.086201 0.030325 0.0
1.056626 0.013484 0.0
1.030604 -0.001234 0.0
1.008668 -0.013530 0.0
0.990681 -0.023255 0.0
0.976059 -0.030623 0.0
0.964462 -0.036119 0.0
0.956179 -0.040367 0.0
0.952244 -0.044013 0.0
0.954271 -0.047447 0.0
0.964015 -0.050563 0.0
0.982784 -0.052626 0.0
1.011000 -0.052447 0.0
1.048032 -0.048776 0.0
1.092211 -0.040584 0.0
1.140710 -0.027481 0.0
1.189107 -0.010063 0.0
1.231857 0.010185 0.0
1.264920 0.030676 0.0
1.287303 0.048854 0.0
1.299410 0.063575 0.0
1.301776 0.074039 0.0
1.295166 0.079987 0.0
1.280671 0.081604 0.0
1.259696 0.079302 0.0
1.233819 0.073590 0.0
1.204637 0.065107 0.0
1.173738 0.054660 0.0
1.142650 0.043060 0.0
1.112577 0.030992 0.0
1.084380 0.019432 0.0
1.058998 0.009584 0.0
1.037510 0.002396 0.0
1.020358 -0.001653 0.0
1.006827 -0.002437 0.0
0.995453 -0.000257 0.0
0.984734 0.004144 0.0
0.973684 0.009638 0.0
0.962046 0.014951 0.0
0.950245 0.018934 0.0
0.939180 0.020781 0.0
0.929951 0.020145 0.0
0.923588 0.017128 0.0
0.920839 0.012186 0.0
0.922047 0.005976 0.0
0.927127 -0.000801 0.0
0.935484 -0.007546 0.0
0.945949 -0.013840 0.0
0.955843 -0.020951 0.0
1.001210 -0.012811 0.0
1.006148 -0.039242 0.0
1.016411 -0.067378 0.0
1.032840 -0.097882 0.0
1.056836 -0.130989 0.0
1.090389 -0.166138 0.0
1.135859 -0.201354 0.0
1.194965 -0.231948 0.0
1.268756 -0.253454 0.0
1.345771 -0.242137 0.0
1.409357 -0.208962 0.0
1.455758 -0.167481 0.0
1.487879 -0.124433 0.0
1.509115 -0.081887 0.0
1.521255 -0.040095 0.0
1.524729 0.000252 0.0
1.519597 0.038121 0.0
1.506178 0.072330 0.0
1.485285 0.101465 0.0
1.458205 0.124298 0.0
1.426538 0.139923 0.0
1.392055 0.147772 0.0
1.356608 0.147609 0.0
1.322064 0.139541 0.0
1.290242 0.124033 0.0
1.262831 0.101914 0.0
1.241287 0.074356 0.0
1.226708 0.042739 0.0
1.219830 0.008378 0.0
1.221531 -0.027142 0.0
1.232838 -0.060201 0.0
1.254097 -0.085686 0.0
1.284645 -0.098640 0.0
1.322676 -0.095279 0.0
1.364526 -0.073990 0.0
1.404038 -0.036851 0.0
1.433924 0.009085 0.0
1.450867 0.054667 0.0
1.456453 0.095827 0.0
1.453279 0.130606 0.0
1.443547 0.158037 0.0
1.428821 0.177707 0.0
1.410020 0.189518 0.0
1.387557 0.193621 0.0
1.361529 0.190485 0.0
1.331967 0.180983 0.0
1.299077 0.166373 0.0
1.263394 0.148119 0.0
1.225798 0.127643 0.0
1.187411 0.106154 0.0
1.149448 0.084578 0.0
1.113037 0.063595 0.0
1.079006 0.043821 0.0
1.047587 0.025870 0.0
1.018298 0.010590 0.0
0.990289 -0.001379 0.0
0.962735 -0.010323 0.0
0.935534 -0.017622 0.0
0.910161 -0.025209 0.0
0.889590 -0.034665 0.0
0.877275 -0.046507 0.0
0.875960 -0.059931 0.0
0.886897 -0.072964 0.0
0.909830 -0.083258 0.0
0.943555 -0.088723 0.0
0.986468 -0.087729 0.0
1.036798 -0.079164 0.0
1.092565 -0.062544 0.0
1.151064 -0.038584 0.0
1.207409 -0.009964 0.0
1.254960 0.019560 0.0
1.289805 0.045918 0.0
1.311900 0.067234 0.0
1.322263 0.083039 0.0
1.322088 0.093223 0.0
1.312771 0.097975 0.0
1.295846 0.097719 0.0
1.272918 0.093087 0.0
1.245609 0.084888 0.0
1.215488 0.074042 0.0
1.183999 0.061571 0.0
1.152413 0.048637 0.0
1.121717 0.036457 0.0
1.092431 0.026297 0.0
1.064601 0.019428 0.0
1.037962 0.016651 0.0
1.012105 0.017886 0.0
0.986717 0.022107 0.0
0.961839 0.027602 0.0
0.938012 0.032450 0.0
0.916231 0.035017 0.0
0.897699 0.034296 0.0
0.883519 0.030039 0.0
0.874440 0.022676 0.0
0.870723 0.013103 0.0
0.872136 0.002438 0.0
0.877949 -0.008155 0.0
0.886951 -0.017550 0.0
0.897556 -0.024906 0.0
0.907349 -0.029573 0.0
1.000933 -0.014955 0.0
1.004785 -0.045888 0.0
1.012989 -0.079199 0.0
1.026668 -0.116168 0.0
1.047816 -0.157848 0.0
1.079635 -0.204651 0.0
1.126785 -0.255460 0.0
1.194462 -0.304625 0.0
1.291585 -0.351689 0.0
1.390795 -0.320128 0.0
1.456446 -0.260209 0.0
1.493878 -0.200067 0.0
1.515653 -0.145743 0.0
1.529678 -0.095838 0.0
1.538568 -0.047174 0.0
1.541054 0.001372 0.0
1.535012 0.048174 0.0
1.519629 0.091079 0.0
1.495428 0.127811 0.0
1.463798 0.156661 0.0
1.426538 0.176486 0.0
1.385634 0.186596 0.0
1.343161 0.186704 0.0
1.301227 0.176925 0.0
1.261891 0.157808 0.0
1.227047 0.130394 0.0
1.198218 0.096249 0.0
1.176170 0.057473 0.0
1.160341 0.016351 0.0
1.149772 -0.026246 0.0
1.145497 -0.068129 0.0
1.150085 -0.103604 0.0
1.166263 -0.127449 0.0
1.196323 -0.134561 0.0
1.240239 -0.120474 0.0
1.293864 -0.083504 0.0
1.347626 -0.027908 0.0
1.389016 0.033327 0.0
1.413386 0.087211 0.0
1.424283 0.131499 0.0
1.425149 0.166010 0.0
1.418436 0.191174 0.0
1.405706 0.207581 0.0
1.387860 0.215868 0.0
1.365378 0.216748 0.0
1.338566 0.211094 0.0
1.307765 0.199953 0.0
1.273504 0.184484 0.0
1.236547 0.165832 0.0
1.197862 0.145036 0.0
1.158521 0.123000 0.0
1.119495 0.100611 0.0
1.081339 0.078992 0.0
1.043809 0.059649 0.0
1.005755 0.044154 0.0
0.965717 0.033104 0.0
0.923315 0.025150 0.0
0.880520 0.016901 0.0
0.841609 0.004552 0.0
0.811751 -0.013998 0.0
0.795102 -0.038209 0.0
0.793131 -0.064942 0.0
0.804644 -0.090402 0.0
0.827407 -0.111516 0.0
0.859368 -0.126152 0.0
0.899010 -0.132854 0.0
0.945235 -0.130594 0.0
0.997093 -0.118740 0.0
1.053453 -0.097246 0.0
1.112687 -0.066881 0.0
1.171805 -0.030192 0.0
1.224789 0.007842 0.0
1.265879 0.042125 0.0
1.293682 0.069982 0.0
1.309137 0.090999 0.0
1.313478 0.105175 0.0
1.308109 0.112813 0.0
1.294535 0.114494 0.0
1.274296 0.111029 0.0
1.248897 0.103420 0.0
1.219735 0.092844 0.0
1.188013 0.080671 0.0
1.154668 0.068464 0.0
1.120325 0.057920 0.0
1.085360 0.050600 0.0
1.050041 0.047438 0.0
1.014703 0.048295 0.0
0.979932 0.051857 0.0
0.946689 0.055974 0.0
0.916266 0.058329 0.0
0.890065 0.057120 0.0
0.869296 0.051494 0.0
0.854703 0.041615 0.0
0.846437 0.028445 0.0
0.844085 0.013403 0.0
0.846775 -0.001965 0.0
0.853285 -0.016076 0.0
0.862204 -0.027550 0.0
0.872038 -0.035345 0.0
0.881010 -0.037898 0.0
1.000525 -0.016412 0.0
1.002727 -0.050485 0.0
1.007603 -0.087681 0.0
1.016284 -0.130045 0.0
1.031009 -0.179844 0.0
1.055940 -0.239406 0.0
1.098507 -0.310422 0.0
1.170204 -0.389037 0.0
1.299376 -0.493572 0.0
1.418169 -0.396248 0.0
1.458144 -0.289714 0.0
1.461133 -0.210983 0.0
1.456250 -0.151720 0.0
1.454885 -0.102522 0.0
1.459639 -0.054134 0.0
1.465329 0.000156 0.0
1.464151 0.056611 0.0
1.452465 0.109711 0.0
1.430352 0.155492 0.0
1.399267 0.191693 0.0
1.360993 0.216988 0.0
1.317417 0.230575 0.0
1.270540 0.232075 0.0
1.222459 0.221569 0.0
1.175254 0.199705 0.0
1.130750 0.167845 0.0
1.090187 0.128190 0.0
1.053832 0.083935 0.0
1.020438 0.039111 0.0
0.986468 -0.004467 0.0
0.951808 -0.050974 0.0
0.925086 -0.098625 0.0
0.917267 -0.140787 0.0
0.934326 -0.168341 0.0
0.976307 -0.172591 0.0
1.039301 -0.148006 0.0
1.116564 -0.094431 0.0
1.195813 -0.020790 0.0
1.260145 0.052626 0.0
1.303383 0.111949 0.0
1.330267 0.157808 0.0
1.344469 0.191887 0.0
1.348407 0.215661 0.0
1.343701 0.230341 0.0
1.331487 0.236969 0.0
1.312644 0.236528 0.0
1.287956 0.230007 0.0
1.258236 0.218411 0.0
1.224379 0.202719 0.0
1.187346 0.183866 0.0
1.148038 0.162820 0.0
1.106982 0.140873 0.0
1.063872 0.119994 0.0
1.017385 0.102664 0.0
0.965999 0.090580 0.0
0.909986 0.082729 0.0
0.853164 0.074749 0.0
0.802340 0.060921 0.0
0.764292 0.037493 0.0
0.742600 0.004611 0.0
0.736717 -0.034285 0.0
0.743644 -0.073823 0.0
0.760178 -0.109569 0.0
0.783949 -0.138883 0.0
0.813519 -0.160317 0.0
0.848159 -0.172971 0.0
0.887570 -0.176114 0.0
0.931615 -0.169123 0.0
0.980039 -0.151646 0.0
1.032217 -0.123895 0.0
1.086924 -0.087004 0.0
1.142003 -0.043409 0.0
1.192695 0.001594 0.0
1.233381 0.042024 0.0
1.261915 0.074969 0.0
1.278773 0.100006 0.0
1.284907 0.117218 0.0
1.281506 0.127064 0.0
1.269880 0.130324 0.0
1.251355 0.128049 0.0
1.227183 0.121550 0.0
1.198471 0.112399 0.0
1.166138 0.102414 0.0
1.130936 0.093515 0.0
1.093539 0.087366 0.0
1.054696 0.084834 0.0
1.015389 0.085545 0.0
0.976928 0.087838 0.0
0.940910 0.089253 0.0
0.909009 0.087374 0.0
0.882671 0.080614 0.0
0.862826 0.068614 0.0
0.849750 0.052164 0.0
0.843094 0.032817 0.0
0.842028 0.012449 0.0
0.845398 -0.007071 0.0
0.851888 -0.023970 0.0
0.860173 -0.036859 0.0
0.868965 -0.044662 0.0
0.876983 -0.045571 0.0
0.999980 -0.016917 0.0
0.999947 -0.052151 0.0
1.000124 -0.091068 0.0
1.001198 -0.136413 0.0
1.004799 -0.191803 0.0
1.014702 -0.262281 0.0
1.039584 -0.354997 0.0
1.098617 -0.475191 0.0
1.255808 -0.693781 0.0
1.363235 -0.422261 0.0
1.317320 -0.257762 0.0
1.250490 -0.179093 0.0
1.202317 -0.130554 0.0
1.176606 -0.096612 0.0
1.175908 -0.064099 0.0
1.194591 -0.014253 0.0
1.213941 0.052847 0.0
1.221203 0.117899 0.0
1.216141 0.174480 0.0
1.199798 0.220134 0.0
1.173149 0.253471 0.0
1.137310 0.273508 0.0
1.093657 0.279671 0.0
1.043736 0.271975 0.0
0.988808 0.251432 0.0
0.928860 0.220570 0.0
0.861785 0.183103 0.0
0.785403 0.141758 0.0
0.703668 0.096417 0.0
0.630739 0.045126 0.0
0.581546 -0.016714 0.0
0.563917 -0.088534 0.0
0.577441 -0.156583 0.0
0.615524 -0.207686 0.0
0.672515 -0.232219 0.0
0.745410 -0.224268 0.0
0.832247 -0.182269 0.0
0.930139 -0.110093 0.0
1.029389 -0.021652 0.0
1.112541 0.059839 0.0
1.172714 0.122860 0.0
1.214756 0.170592 0.0
1.241999 0.205774 0.0
1.256630 0.230302 0.0
1.260273 0.245579 0.0
1.254272 0.252763 0.0
1.239834 0.252899 0.0
1.218096 0.246978 0.0
1.190137 0.235968 0.0
1.156906 0.220880 0.0
1.118999 0.203021 0.0
1.076309 0.184419 0.0
1.027922 0.167944 0.0
0.972926 0.156199 0.0
0.912266 0.149092 0.0
0.850372 0.142123 0.0
0.794545 0.128005 0.0
0.751883 0.101152 0.0
0.726112 0.061081 0.0
0.716805 0.012022 0.0
0.720692 -0.039700 0.0
0.733707 -0.088350 0.0
0.752655 -0.130524 0.0
0.775599 -0.164643 0.0
0.801548 -0.190076 0.0
0.830188 -0.206492 0.0
0.861688 -0.213504 0.0
0.896472 -0.210562 0.0
0.934940 -0.197100 0.0
0.977186 -0.172866 0.0
1.022779 -0.138332 0.0
1.070628 -0.095010 0.0
1.118850 -0.045719 0.0
1.163419 0.004083 0.0
1.199606 0.048190 0.0
1.225391 0.084140 0.0
1.240827 0.111515 0.0
1.246511 0.130485 0.0
1.243337 0.141702 0.0
1.232327 0.146206 0.0
1.214509 0.145384 0.0
1.190846 0.140940 0.0
1.162220 0.134831 0.0
1.129473 0.129047 0.0
1.093524 0.125180 0.0
1.055510 0.123877 0.0
1.016882 0.124438 0.0
0.979386 0.124902 0.0
0.944889 0.122705 0.0
0.915083 0.115629 0.0
0.891194 0.102585 0.0
0.873811 0.083870 0.0
0.862884 0.060911 0.0
0.857842 0.035767 0.0
0.857768 0.010639 0.0
0.861516 -0.012379 0.0
0.867839 -0.031477 0.0
0.875524 -0.045322 0.0
0.883454 -0.052921 0.0
0.890636 -0.052510 0.0
0.999352 -0.016248 0.0
0.996713 -0.050147 0.0
0.991266 -0.087802 0.0
0.982730 -0.132215 0.0
0.970911 -0.187782 0.0
0.956396 -0.261690 0.0
0.942890 -0.366964 0.0
0.945847 -0.525214 0.0
1.049786 -0.904887 0.0
1.046978 -0.206916 0.0
0.850779 -0.110138 0.0
0.703475 -0.100586 0.0
0.624557 -0.081969 0.0
0.584508 -0.079437 0.0
0.589014 -0.085082 0.0
0.639076 -0.062015 0.0
0.711574 0.008761 0.0
0.774140 0.092158 0.0
0.815289 0.164134 0.0
0.837570 0.224541 0.0
0.841176 0.272106 0.0
0.826288 0.305601 0.0
0.793080 0.324438 0.0
0.741224 0.328985 0.0
0.669839 0.320734 0.0
0.579463 0.301592 0.0
0.476995 0.271623 0.0
0.379364 0.227252 0.0
0.307400 0.164622 0.0
0.274109 0.083140 0.0
0.279646 -0.011072 0.0
0.311261 -0.108162 0.0
0.354872 -0.194090 0.0
0.405559 -0.258949 0.0
0.463752 -0.296140 0.0
0.531531 -0.301020 0.0
0.610735 -0.271558 0.0
0.701793 -0.209754 0.0
0.803086 -0.122534 0.0
0.906283 -0.025628 0.0
0.994853 0.059585 0.0
1.061613 0.125066 0.0
1.110557 0.175113 0.0
1.144283 0.212607 0.0
1.164548 0.239367 0.0
1.172799 0.256726 0.0
1.170354 0.265818 0.0
1.158446 0.267705 0.0
1.138165 0.263481 0.0
1.110303 0.254459 0.0
1.075117 0.242536 0.0
1.032242 0.230469 0.0
0.981297 0.221224 0.0
0.923422 0.215790 0.0
0.862853 0.210730 0.0
0.806732 0.198499 0.0
0.762436 0.171750 0.0
0.734282 0.128223 0.0
0.722330 0.071732 0.0
0.723733 0.009274 0.0
0.734596 -0.051702 0.0
0.751340 -0.106106 0.0
0.771382 -0.151757 0.0
0.793060 -0.188033 0.0
0.815459 -0.215034 0.0
0.838330 -0.233044 0.0
0.862020 -0.242141 0.0
0.887318 -0.242006 0.0
0.915181 -0.231986 0.0
0.946382 -0.211427 0.0
0.981194 -0.180176 0.0
1.019219 -0.139040 0.0
1.059361 -0.090053 0.0
1.099781 -0.036572 0.0
1.136835 0.015604 0.0
1.166782 0.060994 0.0
1.188107 0.097899 0.0
1.200582 0.125941 0.0
1.204521 0.145480 0.0
1.200523 0.157437 0.0
1.189311 0.163183 0.0
1.171653 0.164461 0.0
1.148344 0.163246 0.0
1.120269 0.161454 0.0
1.088518 0.160473 0.0
1.054483 0.160633 0.0
1.019876 0.160917 0.0
0.986596 0.159198 0.0
0.956476 0.153026 0.0
0.930988 0.140602 0.0
0.911048 0.121442 0.0
0.896973 0.096471 0.0
0.888575 0.067636 0.0
0.885296 0.037363 0.0
0.886312 0.008102 0.0
0.890587 -0.017864 0.0
0.896979 -0.038706 0.0
0.904360 -0.053160 0.0
0.911730 -0.060384 0.0
0.918235 -0.058735 0.0
0.998749 -0.014350 0.0
0.993605 -0.044263 0.0
0.982685 -0.077320 0.0
0.964536 -0.116012 0.0
0.936446 -0.164075 0.0
0.893427 -0.227864 0.0
0.825748 -0.319605 0.0
0.714497 -0.464280 0.0
0.322437 -0.786558 0.0
-0.475190 0.286685 0.0
-0.475190 0.000000 0.0
-0.036951 -0.025712 0.0
-0.059580 -0.066535 0.0
-0.007736 -0.106666 0.0
0.074842 -0.144936 0.0
0.162580 -0.139962 0.0
0.252967 -0.076178 0.0
0.340198 0.027301 0.0
0.407484 0.120557 0.0
0.451696 0.201625 0.0
0.472800 0.270312 0.0
0.469714 0.325370 0.0
0.441486 0.366105 0.0
0.388515 0.392145 0.0
0.315004 0.402469 0.0
0.231776 0.393462 0.0
0.157387 0.356610 0.0
0.112111 0.285173 0.0
0.103798 0.186978 0.0
0.126478 0.071396 0.0
0.168029 -0.046415 0.0
0.215895 -0.152301 0.0
0.263505 -0.241172 0.0
0.309929 -0.308979 0.0
0.357422 -0.351797 0.0
0.410084 -0.365804 0.0
0.472229 -0.348124 0.0
0.546627 -0.298644 0.0
0.633341 -0.221652 0.0
0.729584 -0.125950 0.0
0.827139 -0.026218 0.0
0.911689 0.059558 0.0
0.976862 0.126503 0.0
1.025592 0.178760 0.0
1.059750 0.218790 0.0
1.080673 0.248129 0.0
1.089539 0.267993 0.0
1.087422 0.279555 0.0
1.075202 0.284134 0.0
1.053396 0.283474 0.0
1.022079 0.280023 0.0
0.981269 0.276667 0.0
0.932068 0.275172 0.0
0.878110 0.273675 0.0
0.825880 0.265645 0.0
0.782791 0.242795 0.0
0.754014 0.200526 0.0
0.740692 0.140924 0.0
0.740728 0.070947 0.0
0.750717 -0.001334 0.0
0.767110 -0.068351 0.0
0.786916 -0.126006 0.0
0.807981 -0.172965 0.0
0.828767 -0.209289 0.0
0.848310 -0.235720 0.0
0.866268 -0.253187 0.0
0.882959 -0.262380 0.0
0.899327 -0.263433 0.0
0.916731 -0.255827 0.0
0.936581 -0.238637 0.0
0.959899 -0.211096 0.0
0.987002 -0.173247 0.0
1.017404 -0.126390 0.0
1.049902 -0.073153 0.0
1.082510 -0.017477 0.0
1.111988 0.034651 0.0
1.135530 0.079375 0.0
1.152024 0.115496 0.0
1.161119 0.142891 0.0
1.162923 0.162221 0.0
1.157799 0.174734 0.0
1.146267 0.182100 0.0
1.128997 0.186187 0.0
1.106866 0.188718 0.0
1.081047 0.190779 0.0
1.053050 0.192359 0.0
1.024650 0.192199 0.0
0.997672 0.188173 0.0
0.973716 0.178127 0.0
0.953928 0.160777 0.0
0.938919 0.136217 0.0
0.928830 0.105861 0.0
0.923460 0.072015 0.0
0.922355 0.037368 0.0
0.924835 0.004601 0.0
0.929990 -0.023794 0.0
0.936768 -0.045945 0.0
0.944129 -0.060663 0.0
0.951164 -0.067285 0.0
0.957086 -0.064262 0.0
0.998303 -0.011402 0.0
0.991314 -0.035076 0.0
0.976418 -0.060691 0.0
0.951449 -0.089524 0.0
0.912219 -0.123244 0.0
0.850654 -0.164112 0.0
0.750026 -0.215050 0.0
0.570601 -0.278158 0.0
0.227051 -0.340593 0.0
0.000000 0.286685 0.0
-0.000000 -0.000000 0.0
0.000000 0.000000 0.0
-0.040936 -0.040428 0.0
-0.085792 -0.140267 0.0
-0.080266 -0.199439 0.0
-0.058163 -0.195300 0.0
-0.028083 -0.141308 0.0
0.019931 -0.042816 0.0
0.076543 0.066775 0.0
0.120515 0.167223 0.0
0.146106 0.258018 0.0
0.150219 0.336636 0.0
0.132496 0.400790 0.0
0.096745 0.446183 0.0
0.052630 0.466056 0.0
0.014107 0.451626 0.0
-0.002160 0.389102 0.0
0.015042 0.280754 0.0
0.059954 0.154797 0.0
0.118963 0.021889 0.0
0.179450 -0.098946 0.0
0.233393 -0.201580 0.0
0.279192 -0.285302 0.0
0.317004 -0.349085 0.0
0.349385 -0.391564 0.0
0.381260 -0.410574 0.0
0.418981 -0.403221 0.0
0.468314 -0.367278 0.0
0.532133 -0.303551 0.0
0.609286 -0.217447 0.0
0.695264 -0.118254 0.0
0.781399 -0.019091 0.0
0.856021 0.065358 0.0
0.914334 0.132862 0.0
0.958140 0.186724 0.0
0.988606 0.228806 0.0
1.006620 0.260435 0.0
1.012929 0.282921 0.0
1.008068 0.297848 0.0
0.992313 0.307320 0.0
0.965905 0.313901 0.0
0.929834 0.319671 0.0
0.887022 0.324182 0.0
0.842959 0.322686 0.0
0.804611 0.307211 0.0
0.777757 0.271172 0.0
0.764773 0.213910 0.0
0.764664 0.140972 0.0
0.774762 0.060766 0.0
0.791936 -0.018317 0.0
0.813059 -0.088884 0.0
0.835556 -0.147775 0.0
0.857532 -0.194238 0.0
0.877572 -0.228841 0.0
0.894717 -0.252856 0.0
0.908530 -0.267821 0.0
0.919198 -0.275105 0.0
0.927605 -0.275483 0.0
0.935272 -0.268849 0.0
0.944072 -0.254265 0.0
0.955746 -0.230461 0.0
0.971409 -0.196648 0.0
0.991265 -0.153246 0.0
1.014635 -0.102166 0.0
1.040173 -0.046610 0.0
1.065631 0.008847 0.0
1.088279 0.058988 0.0
1.106174 0.101495 0.0
1.118367 0.135604 0.0
1.124480 0.161591 0.0
1.124502 0.180466 0.0
1.118694 0.193708 0.0
1.107574 0.202969 0.0
1.091965 0.209677 0.0
1.073040 0.214564 0.0
1.052300 0.217311 0.0
1.031419 0.216529 0.0
1.011995 0.210244 0.0
0.995299 0.196707 0.0
0.982130 0.175154 0.0
0.972835 0.146144 0.0
0.967436 0.111422 0.0
0.965742 0.073518 0.0
0.967389 0.035323 0.0
0.971827 -0.000272 0.0
0.978231 -0.030481 0.0
0.985625 -0.053431 0.0
0.993092 -0.068006 0.0
0.999841 -0.073726 0.0
1.005146 -0.069048 0.0
0.998100 -0.007805 0.0
0.990297 -0.023880 0.0
0.973777 -0.040471 0.0
0.946458 -0.057455 0.0
0.904599 -0.074225 0.0
0.841949 -0.088914 0.0
0.749022 -0.096692 0.0
0.614387 -0.082456 0.0
0.433962 -0.006984 0.0
0.166370 0.148590 0.0
0.000000 0.000000 0.0
-0.000000 -0.000000 0.0
0.000000 0.000000 0.0
-0.066712 -0.068173 0.0
-0.149352 -0.192958 0.0
-0.169175 -0.204061 0.0
-0.176271 -0.155531 0.0
-0.172036 -0.080842 0.0
-0.145899 0.022053 0.0
-0.108812 0.130887 0.0
-0.077542 0.237493 0.0
-0.059156 0.334663 0.0
-0.054138 0.415466 0.0
-0.057223 0.470343 0.0
-0.058927 0.487714 0.0
-0.044672 0.454237 0.0
-0.002357 0.360442 0.0
0.061998 0.227857 0.0
0.137865 0.086915 0.0
0.214654 -0.046026 0.0
0.281552 -0.158416 0.0
0.336496 -0.250996 0.0
0.378710 -0.323898 0.0
0.408202 -0.377795 0.0
0.426553 -0.413585 0.0
0.437675 -0.431549 0.0
0.448106 -0.430398 0.0
0.465934 -0.407263 0.0
0.498094 -0.359545 0.0
0.547380 -0.287892 0.0
0.611410 -0.197816 0.0
0.684188 -0.098442 0.0
0.756331 -0.002055 0.0
0.818450 0.079843 0.0
0.867380 0.147006 0.0
0.903808 0.201631 0.0
0.928222 0.245182 0.0
0.940972 0.279116 0.0
0.942283 0.305203 0.0
0.932417 0.325585 0.0
0.912192 0.342269 0.0
0.883853 0.355714 0.0
0.851774 0.363030 0.0
0.822030 0.357645 0.0
0.800460 0.332169 0.0
0.790417 0.283110 0.0
0.792073 0.213301 0.0
0.803579 0.130184 0.0
0.822557 0.042478 0.0
0.846131 -0.040777 0.0
0.871291 -0.112707 0.0
0.895790 -0.170947 0.0
0.917998 -0.215250 0.0
0.936731 -0.246602 0.0
0.951191 -0.266701 0.0
0.960982 -0.277581 0.0
0.966193 -0.281224 0.0
0.967539 -0.279116 0.0
0.966450 -0.271794 0.0
0.964969 -0.258638 0.0
0.965357 -0.238149 0.0
0.969505 -0.208772 0.0
0.978429 -0.169902 0.0
0.992077 -0.122528 0.0
1.009501 -0.069210 0.0
1.029110 -0.013620 0.0