# vtk DataFile Version 3.0
Vector Field
ASCII
DATASET RECTILINEAR_GRID
DIMENSIONS 100 26 1
X_COORDINATES 100 double
0.050000 0.150000 0.250000 0.350000 0.450000 0.550000 0.650000 0.750000 0.850000 0.950000 1.050000 1.150000 1.250000 1.350000 1.450000 1.550000 1.650000 1.750000 1.850000 1.950000 2.050000 2.150000 2.250000 2.350000 2.450000 2.550000 2.650000 2.750000 2.850000 2.950000 3.050000 3.150000 3.250000 3.350000 3.450000 3.550000 3.650000 3.750000 3.850000 3.950000 4.050000 4.150000 4.250000 4.350000 4.450000 4.550000 4.650000 4.750000 4.850000 4.950000 5.050000 5.150000 5.250000 5.350000 5.450000 5.550000 5.650000 5.750000 5.850000 5.950000 6.050000 6.150000 6.250000 6.350000 6.450000 6.550000 6.650000 6.750000 6.850000 6.950000 7.050000 7.150000 7.250000 7.350000 7.450000 7.550000 7.650000 7.750000 7.850000 7.950000 8.050000 8.150000 8.250000 8.350000 8.450000 8.550000 8.650000 8.750000 8.850000 8.950000 9.050000 9.150000 9.250000 9.350000 9.450000 9.550000 9.650000 9.750000 9.850000 9.950000 
Y_COORDINATES 26 double
0.050000 0.150000 0.250000 0.350000 0.450000 0.550000 0.650000 0.750000 0.850000 0.950000 1.050000 1.150000 1.250000 1.350000 1.450000 1.550000 1.650000 1.750000 1.850000 1.950000 2.050000 2.150000 2.250000 2.350000 2.450000 2.550000 
Z_COORDINATES 1 double
0.0
POINT_DATA 2600
VECTORS Vektorfeld double
0.997759 0.002241 0.0
0.993373 0.002145 0.0
0.990767 0.000462 0.0
0.992196 -0.001891 0.0
0.998579 -0.004492 0.0
1.010125 -0.007054 0.0
1.026472 -0.009293 0.0
1.046686 -0.010921 0.0
1.069280 -0.011673 0.0
1.092332 -0.011378 0.0
1.113733 -0.010024 0.0
1.131512 -0.007755 0.0
1.144078 -0.004811 0.0
1.150391 -0.001501 0.0
1.150097 0.001796 0.0
1.143206 0.005095 0.0
1.129837 0.008275 0.0
1.110355 0.011207 0.0
1.085385 0.013764 0.0
1.055791 0.015831 0.0
1.022650 0.017310 0.0
0.987212 0.018128 0.0
0.950847 0.018237 0.0
0.914982 0.017628 0.0
0.881025 0.016328 0.0
0.850287 0.014410 0.0
0.823890 0.011988 0.0
0.802677 0.009225 0.0
0.787125 0.006327 0.0
0.777239 0.003559 0.0
0.772477 0.001203 0.0
0.771797 -0.000523 0.0
0.773492 -0.001171 0.0
0.775340 -0.000677 0.0
0.774982 0.001036 0.0
0.770059 0.003887 0.0
0.758647 0.007526 0.0
0.739554 0.011567 0.0
0.712373 0.015615 0.0
0.677451 0.019307 0.0
0.635809 0.022335 0.0
0.589021 0.024453 0.0
0.539087 0.025481 0.0
0.488335 0.025270 0.0
0.439506 0.023559 0.0
0.396137 0.019809 0.0
0.362828 0.013499 0.0
0.344063 0.005266 0.0
0.340743 -0.001946 0.0
0.348181 -0.005492 0.0
0.360625 -0.006952 0.0
0.375013 -0.007436 0.0
0.389726 -0.007276 0.0
0.403660 -0.006658 0.0
0.416041 -0.005724 0.0
0.426363 -0.004598 0.0
0.434351 -0.003391 0.0
0.439954 -0.002212 0.0
0.443329 -0.001163 0.0
0.444781 -0.000290 0.0
0.444371 0.000701 0.0
0.441577 0.002093 0.0
0.435691 0.003793 0.0
0.426342 0.005556 0.0
0.413666 0.007121 0.0
0.398402 0.008144 0.0
0.381962 0.008296 0.0
0.366165 0.007500 0.0
0.352587 0.006077 0.0
0.341884 0.004626 0.0
0.333572 0.003686 0.0
0.326476 0.003410 0.0
0.319528 0.003538 0.0
0.312355 0.003635 0.0
0.305320 0.003400 0.0
0.299108 0.002812 0.0
0.294230 0.002066 0.0
0.290777 0.001387 0.0
0.288507 0.000883 0.0
0.287082 0.000542 0.0
0.286191 0.000349 0.0
0.285545 0.000297 0.0
0.284818 0.000430 0.0
0.283648 0.000739 0.0
0.281779 0.001130 0.0
0.279176 0.001473 0.0
0.276039 0.001664 0.0
0.272656 0.001718 0.0
0.269213 0.001726 0.0
0.265706 0.001781 0.0
0.261989 0.001936 0.0
0.257884 0.002169 0.0
0.253310 0.002406 0.0
0.248341 0.002564 0.0
0.243204 0.002573 0.0
0.238251 0.002380 0.0
0.233931 0.001939 0.0
0.230792 0.001200 0.0
0.229340 0.000253 0.0
0.229937 -0.000850 0.0
1.003052 0.001430 0.0
1.011953 -0.001560 0.0
1.025916 -0.007191 0.0
1.044374 -0.014125 0.0
1.067303 -0.021570 0.0
1.094624 -0.028843 0.0
1.125969 -0.035196 0.0
1.160542 -0.039806 0.0
1.197048 -0.041888 0.0
1.233732 -0.040898 0.0
1.268648 -0.036820 0.0
1.300031 -0.030122 0.0
1.326536 -0.021516 0.0
1.347193 -0.011765 0.0
1.361147 -0.001601 0.0
1.367934 0.008594 0.0
1.367643 0.018437 0.0
1.360649 0.027520 0.0
1.347604 0.035465 0.0
1.329407 0.041922 0.0
1.307173 0.046594 0.0
1.282198 0.049257 0.0
1.255899 0.049772 0.0
1.229751 0.048107 0.0
1.205208 0.044348 0.0
1.183621 0.038714 0.0
1.166146 0.031556 0.0
1.153657 0.023358 0.0
1.146665 0.014738 0.0
1.145263 0.006436 0.0
1.149074 -0.000722 0.0
1.156917 -0.005761 0.0
1.166972 -0.007683 0.0
1.176990 -0.006033 0.0
1.184487 -0.000747 0.0
1.187226 0.007852 0.0
1.183285 0.018914 0.0
1.171321 0.031236 0.0
1.150843 0.043605 0.0
1.122152 0.054929 0.0
1.086219 0.064287 0.0
1.044565 0.070943 0.0
0.999167 0.074325 0.0
0.952403 0.073941 0.0
0.906944 0.069176 0.0
0.865261 0.059245 0.0
0.828548 0.044087 0.0
0.795963 0.026028 0.0
0.766982 0.009593 0.0
0.745225 -0.002713 0.0
0.734426 -0.011376 0.0
0.733584 -0.016558 0.0
0.739896 -0.019179 0.0
0.751198 -0.019992 0.0
0.765976 -0.019549 0.0
0.783134 -0.018251 0.0
0.801775 -0.016366 0.0
0.820981 -0.014046 0.0
0.839608 -0.011331 0.0
0.856153 -0.008120 0.0
0.869226 -0.004131 0.0
0.878336 0.000608 0.0
0.883761 0.005740 0.0
0.885839 0.010880 0.0
0.884806 0.015506 0.0
0.880801 0.019027 0.0
0.873696 0.020958 0.0
0.863024 0.021307 0.0
0.848152 0.020720 0.0
0.828739 0.020100 0.0
0.805233 0.020030 0.0
0.779036 0.020359 0.0
0.752280 0.020293 0.0
0.727383 0.018950 0.0
0.706544 0.015960 0.0
0.691271 0.011738 0.0
0.682056 0.007233 0.0
0.678348 0.003381 0.0
0.678818 0.000689 0.0
0.681824 -0.000845 0.0
0.686029 -0.001578 0.0
0.690632 -0.001734 0.0
0.695151 -0.001330 0.0
0.699300 -0.000480 0.0
0.702988 0.000530 0.0
0.706203 0.001460 0.0
0.708751 0.002266 0.0
0.710208 0.003042 0.0
0.710125 0.003928 0.0
0.708212 0.004999 0.0
0.704409 0.006238 0.0
0.698881 0.007499 0.0
0.691970 0.008560 0.0
0.684133 0.009216 0.0
0.675868 0.009322 0.0
0.667660 0.008792 0.0
0.659946 0.007562 0.0
0.653108 0.005555 0.0
0.647668 0.002789 0.0
0.646016 -0.002331 0.0
1.001958 -0.003580 0.0
1.009019 -0.012512 0.0
1.021993 -0.023176 0.0
1.040425 -0.035030 0.0
1.064253 -0.047422 0.0
1.093447 -0.059506 0.0
1.127732 -0.070163 0.0
1.166325 -0.078005 0.0
1.207732 -0.081601 0.0
1.249653 -0.079792 0.0
1.289429 -0.072617 0.0
1.324834 -0.061112 0.0
1.354423 -0.046620 0.0
1.377445 -0.030338 0.0
1.393635 -0.013173 0.0
1.402991 0.004023 0.0
1.405697 0.020594 0.0
1.402149 0.035904 0.0
1.392931 0.049344 0.0
1.378823 0.060348 0.0
1.360794 0.068430 0.0
1.339967 0.073223 0.0
1.317568 0.074504 0.0
1.294873 0.072218 0.0
1.273150 0.066502 0.0
1.253604 0.057694 0.0
1.237318 0.046337 0.0
1.225216 0.033167 0.0
1.218040 0.019097 0.0
1.216318 0.005201 0.0
1.220247 -0.007226 0.0
1.229659 -0.016513 0.0
1.243786 -0.021113 0.0
1.260928 -0.019763 0.0
1.278496 -0.012081 0.0
1.293622 0.001321 0.0
1.303951 0.019057 0.0
1.307856 0.039151 0.0
1.304437 0.059586 0.0
1.293508 0.078568 0.0
1.275493 0.094596 0.0
1.251308 0.106472 0.0
1.222246 0.113257 0.0
1.189822 0.114197 0.0
1.155518 0.108683 0.0
1.120395 0.096544 0.0
1.084975 0.078921 0.0
1.049983 0.058771 0.0
1.016846 0.038969 0.0
0.986201 0.020313 0.0
0.958392 0.004206 0.0
0.935618 -0.008524 0.0
0.919870 -0.017777 0.0
0.911067 -0.023893 0.0
0.908289 -0.027648 0.0
0.910610 -0.029633 0.0
0.917209 -0.030223 0.0
0.927382 -0.029568 0.0
0.940574 -0.027628 0.0
0.956434 -0.024229 0.0
0.974713 -0.019374 0.0
0.994858 -0.013405 0.0
1.015890 -0.006704 0.0
1.036754 0.000381 0.0
1.056408 0.007383 0.0
1.073692 0.013871 0.0
1.087312 0.019600 0.0
1.095998 0.024651 0.0
1.098755 0.029490 0.0
1.095155 0.034344 0.0
1.085496 0.038951 0.0
1.070601 0.042530 0.0
1.051472 0.044007 0.0
1.029018 0.042587 0.0
1.003944 0.038236 0.0
0.976905 0.031774 0.0
0.948886 0.024431 0.0
0.921576 0.017202 0.0
0.897417 0.010557 0.0
0.879029 0.004668 0.0
0.867949 -0.000216 0.0
0.863818 -0.003568 0.0
0.865042 -0.005239 0.0
0.869953 -0.005631 0.0
0.877147 -0.005201 0.0
0.885263 -0.004139 0.0
0.893049 -0.002468 0.0
0.899594 -0.000225 0.0
0.904373 0.002499 0.0
0.907164 0.005551 0.0
0.907996 0.008657 0.0
0.907153 0.011451 0.0
0.905097 0.013575 0.0
0.902369 0.014766 0.0
0.899509 0.014897 0.0
0.896995 0.013939 0.0
0.895221 0.011902 0.0
0.894529 0.008744 0.0
0.895267 0.004302 0.0
0.897622 -0.004547 0.0
1.001577 -0.007115 0.0
1.007742 -0.022202 0.0
1.019855 -0.038572 0.0
1.037930 -0.056142 0.0
1.062237 -0.074445 0.0
1.093115 -0.092555 0.0
1.130674 -0.108959 0.0
1.174353 -0.121481 0.0
1.222521 -0.127699 0.0
1.271806 -0.124901 0.0
1.317968 -0.113446 0.0
1.357947 -0.095667 0.0
1.390315 -0.074023 0.0
1.414695 -0.050338 0.0
1.431164 -0.025834 0.0
1.439973 -0.001481 0.0
1.441509 0.021857 0.0
1.436293 0.043404 0.0
1.425007 0.062349 0.0
1.408543 0.077915 0.0
1.387986 0.089448 0.0
1.364559 0.096460 0.0
1.339560 0.098665 0.0
1.314312 0.096000 0.0
1.290119 0.088636 0.0
1.268229 0.076996 0.0
1.249805 0.061745 0.0
1.235907 0.043758 0.0
1.227515 0.024074 0.0
1.225576 0.003886 0.0
1.230889 -0.015153 0.0
1.243714 -0.030824 0.0
1.263314 -0.040529 0.0
1.287739 -0.041913 0.0
1.313971 -0.033730 0.0
1.338414 -0.016599 0.0
1.357950 0.007113 0.0
1.370836 0.034304 0.0
1.376538 0.062151 0.0
1.375191 0.088279 0.0
1.367323 0.110769 0.0
1.353670 0.128137 0.0
1.335047 0.139278 0.0
1.312232 0.143415 0.0
1.285845 0.140156 0.0
1.256274 0.129765 0.0
1.223851 0.113542 0.0
1.189267 0.093727 0.0
1.153755 0.072662 0.0
1.118855 0.052165 0.0
1.085866 0.033152 0.0
1.055276 0.015894 0.0
1.027737 0.001092 0.0
1.004788 -0.011011 0.0
0.987441 -0.020403 0.0
0.975594 -0.027354 0.0
0.968720 -0.032227 0.0
0.966238 -0.035255 0.0
0.967715 -0.036610 0.0
0.973048 -0.036440 0.0
0.982535 -0.034928 0.0
0.996791 -0.032253 0.0
1.016479 -0.028576 0.0
1.041832 -0.023963 0.0
1.072193 -0.018287 0.0
1.105768 -0.011318 0.0
1.139708 -0.002772 0.0
1.170595 0.007450 0.0
1.195590 0.018939 0.0
1.213328 0.030757 0.0
1.223529 0.041996 0.0
1.226285 0.051624 0.0
1.221840 0.058487 0.0
1.210549 0.061851 0.0
1.192951 0.061644 0.0
1.169971 0.058385 0.0
1.143026 0.052783 0.0
1.113825 0.045362 0.0
1.083913 0.036468 0.0
1.054423 0.026635 0.0
1.026482 0.016838 0.0
1.001911 0.008080 0.0
0.982874 0.000925 0.0
0.970463 -0.004295 0.0
0.964004 -0.007272 0.0
0.961837 -0.008017 0.0
0.962252 -0.006792 0.0
0.963742 -0.003937 0.0
0.965052 0.000122 0.0
0.965328 0.004861 0.0
0.964239 0.009604 0.0
0.961938 0.013648 0.0
0.958950 0.016421 0.0
0.956018 0.017579 0.0
0.953934 0.017029 0.0
0.953381 0.014873 0.0
0.954808 0.011315 0.0
0.958300 0.006531 0.0
0.963481 0.000597 0.0
0.968987 -0.008704 0.0
1.001385 -0.010077 0.0
1.006960 -0.030980 0.0
1.018289 -0.053237 0.0
1.035833 -0.077096 0.0
1.060382 -0.102346 0.0
1.092949 -0.128099 0.0
1.134453 -0.152478 0.0
1.185013 -0.172201 0.0
1.243387 -0.183522 0.0
1.303940 -0.178915 0.0
1.358790 -0.160444 0.0
1.403834 -0.133693 0.0
1.438475 -0.103005 0.0
1.463482 -0.070743 0.0
1.479620 -0.038037 0.0
1.487321 -0.005788 0.0
1.486939 0.025010 0.0
1.478933 0.053474 0.0
1.463981 0.078518 0.0
1.443095 0.099096 0.0
1.417560 0.114358 0.0
1.388829 0.123707 0.0
1.358432 0.126814 0.0
1.327915 0.123617 0.0
1.298793 0.114334 0.0
1.272517 0.099464 0.0
1.250434 0.079785 0.0
1.233754 0.056296 0.0
1.223576 0.030106 0.0
1.221002 0.002368 0.0
1.227107 -0.025053 0.0
1.242466 -0.049108 0.0
1.266580 -0.065958 0.0
1.297625 -0.071954 0.0
1.332434 -0.064730 0.0
1.366631 -0.044240 0.0
1.395328 -0.013478 0.0
1.415141 0.022196 0.0
1.425569 0.058130 0.0
1.427742 0.091474 0.0
1.423023 0.120161 0.0
1.412657 0.142764 0.0
1.397588 0.158343 0.0
1.378408 0.166344 0.0
1.355390 0.166632 0.0
1.328612 0.159638 0.0
1.298198 0.146505 0.0
1.264595 0.128950 0.0
1.228698 0.108847 0.0
1.191737 0.087840 0.0
1.155051 0.067153 0.0
1.119909 0.047625 0.0
1.087254 0.029556 0.0
1.057552 0.013175 0.0
1.031327 -0.001017 0.0
1.009133 -0.012699 0.0
0.990835 -0.021710 0.0
0.975803 -0.028257 0.0
0.963625 -0.032908 0.0
0.954524 -0.036375 0.0
0.949462 -0.039416 0.0
0.949994 -0.042554 0.0
0.957854 -0.045823 0.0
0.974385 -0.048600 0.0
1.000101 -0.049727 0.0
1.034530 -0.047881 0.0
1.076251 -0.041870 0.0
1.122894 -0.030982 0.0
1.170750 -0.015480 0.0
1.214730 0.003457 0.0
1.250247 0.023579 0.0
1.275433 0.042098 0.0
1.290387 0.057505 0.0
1.295542 0.068968 0.0
1.291541 0.076126 0.0
1.279368 0.079056 0.0
1.260349 0.078076 0.0
1.236012 0.073607 0.0
1.207940 0.066207 0.0
1.177717 0.056610 0.0
1.146898 0.045623 0.0
1.116809 0.033955 0.0
1.088408 0.022488 0.0
1.062567 0.012394 0.0
1.040314 0.004752 0.0
1.022264 0.000177 0.0
1.007962 -0.001097 0.0
0.996087 0.000753 0.0
0.985141 0.005069 0.0
0.974026 0.010752 0.0
0.962331 0.016498 0.0
0.950311 0.021076 0.0
0.938721 0.023571 0.0
0.928563 0.023518 0.0
0.920822 0.020916 0.0
0.916232 0.016129 0.0
0.915125 0.009741 0.0
0.917355 0.002384 0.0
0.922309 -0.005392 0.0
0.928194 -0.014108 0.0
1.001191 -0.012654 0.0
1.006060 -0.038847 0.0
1.016200 -0.066838 0.0
1.032465 -0.097304 0.0
1.056271 -0.130493 0.0
1.089621 -0.165869 0.0
1.134895 -0.201487 0.0
1.193845 -0.232701 0.0
1.267590 -0.255141 0.0
1.344772 -0.245030 0.0
1.408806 -0.213213 0.0
1.455991 -0.173152 0.0
1.489328 -0.131524 0.0
1.512368 -0.090271 0.0
1.527017 -0.049295 0.0
1.533496 -0.008709 0.0
1.531438 0.030371 0.0
1.520760 0.066797 0.0
1.501946 0.098960 0.0
1.476106 0.125380 0.0
1.444767 0.144948 0.0
1.409665 0.156951 0.0
1.372609 0.161023 0.0
1.335419 0.157115 0.0
1.299883 0.145494 0.0
1.267708 0.126755 0.0
1.240448 0.101837 0.0
1.219395 0.071977 0.0
1.205440 0.038557 0.0
1.199117 0.002814 0.0
1.201152 -0.033639 0.0
1.212448 -0.067178 0.0
1.233342 -0.092896 0.0
1.263443 -0.106162 0.0
1.301484 -0.103372 0.0
1.344455 -0.082767 0.0
1.386687 -0.045880 0.0
1.420526 0.000945 0.0
1.441395 0.048084 0.0
1.450193 0.090548 0.0
1.449623 0.126375 0.0
1.441983 0.154555 0.0
1.428921 0.174681 0.0
1.411415 0.186692 0.0
1.389905 0.190812 0.0
1.364520 0.187621 0.0
1.335344 0.178113 0.0
1.302663 0.163626 0.0
1.267093 0.145639 0.0
1.229561 0.125541 0.0
1.191198 0.104500 0.0
1.153204 0.083414 0.0
1.116681 0.062947 0.0
1.082448 0.043719 0.0
1.050760 0.026352 0.0
1.021180 0.011706 0.0
0.992901 0.000462 0.0
0.965122 -0.007617 0.0
0.937621 -0.013869 0.0
0.911642 -0.020334 0.0
0.890013 -0.028765 0.0
0.876155 -0.039879 0.0
0.872872 -0.053074 0.0
0.881526 -0.066533 0.0
0.901960 -0.077945 0.0
0.933034 -0.085166 0.0
0.973207 -0.086477 0.0
1.020827 -0.080638 0.0
1.074129 -0.066982 0.0
1.130892 -0.045785 0.0
1.187271 -0.019075 0.0
1.237102 0.009734 0.0
1.275333 0.036684 0.0
1.300862 0.059105 0.0
1.314517 0.076337 0.0
1.317385 0.088151 0.0
1.310775 0.094611 0.0
1.296160 0.096023 0.0
1.275107 0.092916 0.0
1.249217 0.086014 0.0
1.220067 0.076187 0.0
1.189131 0.064417 0.0
1.157720 0.051839 0.0
1.126906 0.039698 0.0
1.097341 0.029266 0.0
1.069194 0.021859 0.0
1.042286 0.018432 0.0
1.016259 0.019125 0.0
0.990790 0.023112 0.0
0.965824 0.028788 0.0
0.941745 0.034236 0.0
0.919380 0.037724 0.0
0.899813 0.038081 0.0
0.884100 0.034879 0.0
0.873004 0.028392 0.0
0.866834 0.019412 0.0
0.865392 0.009007 0.0
0.867983 -0.001703 0.0
0.873366 -0.011641 0.0
0.879469 -0.019847 0.0
1.000913 -0.014758 0.0
1.004690 -0.045389 0.0
1.012759 -0.078505 0.0
1.026252 -0.115395 0.0
1.047171 -0.157127 0.0
1.078721 -0.204135 0.0
1.125561 -0.255335 0.0
1.192893 -0.305135 0.0
1.289661 -0.353221 0.0
1.388605 -0.323076 0.0
1.454173 -0.264769 0.0
1.491739 -0.206348 0.0
1.513979 -0.153904 0.0
1.529163 -0.106116 0.0
1.540497 -0.059435 0.0
1.546822 -0.011373 0.0
1.545265 0.036650 0.0
1.534102 0.082360 0.0
1.513300 0.123013 0.0
1.484037 0.156430 0.0
1.448085 0.181189 0.0
1.407425 0.196472 0.0
1.364091 0.201892 0.0
1.320120 0.197408 0.0
1.277529 0.183330 0.0
1.238251 0.160372 0.0
1.204012 0.129718 0.0
1.176089 0.093071 0.0
1.154857 0.052649 0.0
1.139205 0.010697 0.0
1.127917 -0.032269 0.0
1.122055 -0.073984 0.0
1.124380 -0.109309 0.0
1.138144 -0.133615 0.0
1.166247 -0.142063 0.0
1.209282 -0.130082 0.0
1.263900 -0.095414 0.0
1.321602 -0.041061 0.0
1.369303 0.021521 0.0
1.399845 0.077771 0.0
1.415590 0.123978 0.0
1.420234 0.159950 0.0
1.416438 0.186144 0.0
1.405944 0.203230 0.0
1.389786 0.211942 0.0
1.368554 0.213109 0.0
1.342648 0.207707 0.0
1.312498 0.196862 0.0
1.278705 0.181766 0.0
1.242079 0.163572 0.0
1.203605 0.143307 0.0
1.164345 0.121861 0.0
1.125263 0.100105 0.0
1.086927 0.079130 0.0
1.049151 0.060406 0.0
1.010878 0.045504 0.0
0.970721 0.035100 0.0
0.928266 0.027979 0.0
0.885381 0.020922 0.0
0.846158 0.010076 0.0
0.815498 -0.006887 0.0
0.797416 -0.029818 0.0
0.793573 -0.056009 0.0
0.803054 -0.081733 0.0
0.823715 -0.103840 0.0
0.853473 -0.120104 0.0
0.890764 -0.129003 0.0
0.934486 -0.129455 0.0
0.983763 -0.120743 0.0
1.037629 -0.102653 0.0
1.094723 -0.075680 0.0
1.152785 -0.041554 0.0
1.206981 -0.004455 0.0
1.251076 0.030619 0.0
1.282263 0.059981 0.0
1.301047 0.082853 0.0
1.308509 0.099056 0.0
1.305951 0.108750 0.0
1.294811 0.112382 0.0
1.276590 0.110658 0.0
1.252783 0.104500 0.0
1.224799 0.095024 0.0
1.193889 0.083553 0.0
1.161063 0.071624 0.0
1.127039 0.060929 0.0
1.092278 0.053103 0.0
1.057106 0.049268 0.0
1.021862 0.049560 0.0
0.987068 0.052940 0.0
0.953558 0.057436 0.0
0.922478 0.060747 0.0
0.895127 0.060928 0.0
0.872685 0.056885 0.0
0.855946 0.048528 0.0
0.845155 0.036629 0.0
0.839999 0.022501 0.0
0.839683 0.007676 0.0
0.843024 -0.006305 0.0
0.848539 -0.017938 0.0
0.854487 -0.025602 0.0
1.000504 -0.016174 0.0
1.002631 -0.049878 0.0
1.007367 -0.086821 0.0
1.015851 -0.129055 0.0
1.030322 -0.178856 0.0
1.054930 -0.238565 0.0
1.097080 -0.309896 0.0
1.168217 -0.389043 0.0
1.296558 -0.494422 0.0
1.414379 -0.398640 0.0
1.453440 -0.293835 0.0
1.455466 -0.216875 0.0
1.449472 -0.159622 0.0
1.447199 -0.113309 0.0
1.452648 -0.069024 0.0
1.462485 -0.017945 0.0
1.467945 0.039319 0.0
1.462917 0.095884 0.0
1.446492 0.146716 0.0
1.419844 0.188637 0.0
1.384849 0.219929 0.0
1.343498 0.239742 0.0
1.297768 0.247685 0.0
1.249658 0.243695 0.0
1.201197 0.228095 0.0
1.154333 0.201748 0.0
1.110678 0.166237 0.0
1.071132 0.124021 0.0
1.035433 0.078630 0.0
1.001620 0.034181 0.0
0.965585 -0.008429 0.0
0.927883 -0.054261 0.0
0.898515 -0.101987 0.0
0.888941 -0.145126 0.0
0.904810 -0.174522 0.0
0.945732 -0.181580 0.0
1.007865 -0.160667 0.0
1.085269 -0.110916 0.0
1.167976 -0.039032 0.0
1.239085 0.036673 0.0
1.289044 0.099372 0.0
1.321145 0.147811 0.0
1.339417 0.183806 0.0
1.346522 0.208958 0.0
1.344272 0.224621 0.0
1.333961 0.231974 0.0
1.316588 0.232121 0.0
1.293043 0.226143 0.0
1.264215 0.215105 0.0
1.231052 0.200022 0.0
1.194540 0.181842 0.0
1.155596 0.161530 0.0
1.114785 0.140330 0.0
1.071913 0.120113 0.0
1.025838 0.103273 0.0
0.975178 0.091570 0.0
0.920081 0.084289 0.0
0.863893 0.077433 0.0
0.812862 0.065385 0.0
0.773552 0.044147 0.0
0.749874 0.013382 0.0
0.741855 -0.023987 0.0
0.746844 -0.062987 0.0
0.761668 -0.099060 0.0
0.783850 -0.129357 0.0
0.811813 -0.152308 0.0
0.844699 -0.166975 0.0
0.882133 -0.172639 0.0
0.923971 -0.168674 0.0
0.970034 -0.154653 0.0
1.019856 -0.130596 0.0
1.072449 -0.097293 0.0
1.126107 -0.056571 0.0
1.177273 -0.012525 0.0
1.220294 0.028918 0.0
1.251745 0.063681 0.0
1.271614 0.090898 0.0
1.280644 0.110435 0.0
1.279903 0.122578 0.0
1.270623 0.127963 0.0
1.254094 0.127532 0.0
1.231567 0.122502 0.0
1.204176 0.114374 0.0
1.172892 0.104913 0.0
1.138521 0.096035 0.0
1.101778 0.089500 0.0
1.063412 0.086408 0.0
1.024355 0.086722 0.0
0.985813 0.089114 0.0
0.949263 0.091322 0.0
0.916295 0.090910 0.0
0.888339 0.086072 0.0
0.866393 0.076128 0.0
0.850849 0.061568 0.0
0.841484 0.043745 0.0
0.837568 0.024457 0.0
0.838024 0.005581 0.0
0.841551 -0.011078 0.0
0.846775 -0.023904 0.0
0.852357 -0.031165 0.0
0.999961 -0.016639 0.0
0.999857 -0.051437 0.0
0.999903 -0.090043 0.0
1.000785 -0.135201 0.0
1.004133 -0.190529 0.0
1.013698 -0.261066 0.0
1.038110 -0.353956 0.0
1.096436 -0.474446 0.0
1.252315 -0.693239 0.0
1.358058 -0.423387 0.0
1.310483 -0.260573 0.0
1.241681 -0.183362 0.0
1.190623 -0.136083 0.0
1.160637 -0.104588 0.0
1.155445 -0.078003 0.0
1.175263 -0.038622 0.0
1.203674 0.026125 0.0
1.221726 0.096054 0.0
1.225663 0.159034 0.0
1.217118 0.211512 0.0
1.197425 0.251743 0.0
1.167823 0.278881 0.0
1.129653 0.292447 0.0
1.084430 0.292265 0.0
1.033717 0.278699 0.0
0.978563 0.253162 0.0
0.918346 0.218695 0.0
0.850066 0.179389 0.0
0.771271 0.137758 0.0
0.687279 0.092859 0.0
0.614263 0.041944 0.0
0.567630 -0.020300 0.0
0.553384 -0.092333 0.0
0.568844 -0.160667 0.0
0.606743 -0.212749 0.0
0.661907 -0.239440 0.0
0.731980 -0.235012 0.0
0.815577 -0.197573 0.0
0.910510 -0.130015 0.0
1.010056 -0.042999 0.0
1.097689 0.041453 0.0
1.162921 0.108397 0.0
1.208896 0.158973 0.0
1.239326 0.196257 0.0
1.256559 0.222337 0.0
1.262339 0.238789 0.0
1.258106 0.246912 0.0
1.245140 0.247862 0.0
1.224640 0.242713 0.0
1.197734 0.232484 0.0
1.165419 0.218208 0.0
1.128363 0.201163 0.0
1.086604 0.183266 0.0
1.039418 0.167235 0.0
0.985975 0.155669 0.0
0.926965 0.148844 0.0
0.866183 0.142894 0.0
0.810277 0.130921 0.0
0.766159 0.107045 0.0
0.737958 0.069997 0.0
0.725910 0.023259 0.0
0.727356 -0.027291 0.0
0.738510 -0.075826 0.0
0.756087 -0.118621 0.0
0.777955 -0.153846 0.0
0.802922 -0.180748 0.0
0.830492 -0.198991 0.0
0.860686 -0.208251 0.0
0.893844 -0.208057 0.0
0.930372 -0.197861 0.0
0.970466 -0.177303 0.0
1.013876 -0.146588 0.0
1.059760 -0.106818 0.0
1.106577 -0.060260 0.0
1.151314 -0.011105 0.0
1.189277 0.034290 0.0
1.217417 0.072279 0.0
1.235398 0.102043 0.0
1.243604 0.123506 0.0
1.242799 0.137120 0.0
1.233932 0.143771 0.0
1.218003 0.144720 0.0
1.195978 0.141573 0.0
1.168754 0.136222 0.0
1.137191 0.130661 0.0
1.102197 0.126612 0.0
1.064856 0.125002 0.0
1.026527 0.125515 0.0
0.988848 0.126543 0.0
0.953600 0.125690 0.0
0.922462 0.120649 0.0
0.896722 0.110030 0.0
0.877083 0.093755 0.0
0.863628 0.072940 0.0
0.855903 0.049463 0.0
0.853071 0.025486 0.0
0.854051 0.003116 0.0
0.857634 -0.015723 0.0
0.862608 -0.029458 0.0
0.867884 -0.036469 0.0
0.999336 -0.015936 0.0
0.996639 -0.049339 0.0
0.991081 -0.086628 0.0
0.982383 -0.130800 0.0
0.970345 -0.186239 0.0
0.955535 -0.260111 0.0
0.941613 -0.365400 0.0
0.943941 -0.523656 0.0
1.046674 -0.902640 0.0
1.042130 -0.207079 0.0
0.844049 -0.111113 0.0
0.694828 -0.102793 0.0
0.612896 -0.083661 0.0
0.566912 -0.081041 0.0
0.563189 -0.092635 0.0
0.605206 -0.085825 0.0
0.682100 -0.031977 0.0
0.760917 0.057286 0.0
0.816868 0.137915 0.0
0.852071 0.205972 0.0
0.868282 0.260766 0.0
0.866217 0.301524 0.0
0.846494 0.327698 0.0
0.809460 0.339271 0.0
0.754679 0.337187 0.0
0.680955 0.323553 0.0
0.588781 0.300696 0.0
0.485921 0.268526 0.0
0.390006 0.223331 0.0
0.321344 0.159939 0.0
0.291567 0.077657 0.0
0.298999 -0.016812 0.0
0.330281 -0.112858 0.0
0.372122 -0.197443 0.0
0.420106 -0.261857 0.0
0.474761 -0.300151 0.0
0.538275 -0.307888 0.0
0.612725 -0.282743 0.0
0.698880 -0.225933 0.0
0.795515 -0.143262 0.0
0.896809 -0.047212 0.0
0.987514 0.041125 0.0
1.057472 0.110312 0.0
1.108977 0.162982 0.0
1.144919 0.202436 0.0
1.167134 0.230695 0.0
1.177121 0.249254 0.0
1.176239 0.259368 0.0
1.165759 0.262188 0.0
1.146815 0.258858 0.0
1.120275 0.250689 0.0
1.086522 0.239491 0.0
1.045353 0.227867 0.0
0.996443 0.218729 0.0
0.940661 0.213399 0.0
0.881582 0.209203 0.0
0.825622 0.199277 0.0
0.779896 0.176170 0.0
0.749131 0.136679 0.0
0.734144 0.083551 0.0
0.732715 0.023181 0.0
0.741329 -0.037272 0.0
0.756510 -0.092179 0.0
0.775563 -0.138898 0.0
0.796658 -0.176532 0.0
0.818688 -0.205060 0.0
0.841198 -0.224760 0.0
0.864331 -0.235809 0.0
0.888712 -0.238039 0.0
0.915222 -0.230917 0.0
0.944672 -0.213791 0.0
0.977485 -0.186323 0.0
1.013482 -0.148964 0.0
1.051822 -0.103271 0.0
1.091009 -0.052018 0.0
1.128145 0.000105 0.0
1.159434 0.047034 0.0
1.182613 0.086129 0.0
1.197168 0.116660 0.0
1.203226 0.138712 0.0
1.201275 0.152996 0.0
1.191979 0.160720 0.0
1.176072 0.163504 0.0
1.154334 0.163252 0.0
1.127623 0.161905 0.0
1.096969 0.161015 0.0
1.063675 0.161234 0.0
1.029343 0.161945 0.0
0.995781 0.161354 0.0
0.964789 0.157118 0.0
0.937879 0.147269 0.0
0.916064 0.130965 0.0
0.899785 0.108737 0.0
0.888963 0.082235 0.0
0.883124 0.053731 0.0
0.881516 0.025659 0.0
0.883194 0.000285 0.0
0.887078 -0.020358 0.0
0.892071 -0.034788 0.0
0.897195 -0.041538 0.0
0.998739 -0.014011 0.0
0.993553 -0.043382 0.0
0.982556 -0.076030 0.0
0.964293 -0.114437 0.0
0.936049 -0.162320 0.0
0.892830 -0.226001 0.0
0.824884 -0.317643 0.0
0.713240 -0.462098 0.0
0.321689 -0.783486 0.0
-0.472330 0.285464 0.0
-0.472330 0.000000 0.0
-0.037684 -0.026340 0.0
-0.062574 -0.064637 0.0
-0.013988 -0.102668 0.0
0.065904 -0.147175 0.0
0.151203 -0.158602 0.0
0.235725 -0.120615 0.0
0.326816 -0.023984 0.0
0.409523 0.080527 0.0
0.468902 0.168776 0.0
0.506825 0.243829 0.0
0.522189 0.305161 0.0
0.513718 0.352256 0.0
0.480413 0.385053 0.0
0.422711 0.403888 0.0
0.345125 0.408162 0.0
0.260085 0.393301 0.0
0.188099 0.350767 0.0
0.146692 0.278413 0.0
0.140853 0.179358 0.0
0.164869 0.063999 0.0
0.206232 -0.051948 0.0
0.252662 -0.155434 0.0
0.298097 -0.242143 0.0
0.341675 -0.308717 0.0
0.385529 -0.351799 0.0
0.433664 -0.367889 0.0
0.490485 -0.354012 0.0
0.559081 -0.309417 0.0
0.640003 -0.237334 0.0
0.730994 -0.145425 0.0
0.825763 -0.046135 0.0
0.910881 0.042496 0.0
0.977794 0.112380 0.0
1.028099 0.166791 0.0
1.063767 0.208458 0.0
1.086168 0.239103 0.0
1.096497 0.260071 0.0
1.095851 0.272611 0.0
1.085161 0.278069 0.0
1.065037 0.278142 0.0
1.035673 0.275155 0.0
0.997126 0.271919 0.0
0.950274 0.270440 0.0
0.898152 0.269593 0.0
0.846486 0.263753 0.0
0.802283 0.244890 0.0
0.770989 0.207578 0.0
0.754470 0.152554 0.0
0.751327 0.085807 0.0
0.758624 0.015056 0.0
0.773045 -0.052182 0.0
0.791592 -0.110997 0.0
0.812007 -0.159549 0.0
0.832629 -0.197598 0.0
0.852333 -0.225729 0.0
0.870577 -0.244844 0.0
0.887450 -0.255730 0.0
0.903667 -0.258716 0.0
0.920420 -0.253503 0.0
0.939066 -0.239301 0.0
0.960719 -0.215279 0.0
0.985902 -0.181189 0.0
1.014386 -0.137872 0.0
1.045233 -0.087450 0.0
1.076867 -0.033232 0.0
1.106435 0.019514 0.0
1.130947 0.065959 0.0
1.148873 0.104348 0.0
1.159640 0.134198 0.0
1.163205 0.155896 0.0
1.159838 0.170484 0.0
1.149997 0.179487 0.0
1.134298 0.184707 0.0
1.113549 0.187910 0.0
1.088829 0.190383 0.0
1.061535 0.192455 0.0
1.033335 0.193257 0.0
1.005997 0.190941 0.0
0.981133 0.183387 0.0
0.959963 0.169080 0.0
0.943200 0.147731 0.0
0.931081 0.120370 0.0
0.923478 0.089028 0.0
0.920000 0.056255 0.0
0.920049 0.024694 0.0
0.922825 -0.003204 0.0
0.927352 -0.025281 0.0
0.932632 -0.040138 0.0
0.937727 -0.046409 0.0
0.998299 -0.011048 0.0
0.991291 -0.034152 0.0
0.976359 -0.059330 0.0
0.951335 -0.087850 0.0
0.912033 -0.121361 0.0
0.850388 -0.162095 0.0
0.749698 -0.212913 0.0
0.570338 -0.275823 0.0
0.226963 -0.337875 0.0
0.000000 0.285464 0.0
-0.000000 -0.000000 0.0
0.000000 0.000000 0.0
-0.039505 -0.038715 0.0
-0.083488 -0.133983 0.0
-0.078579 -0.200662 0.0
-0.056284 -0.212710 0.0
-0.028675 -0.178637 0.0
0.014688 -0.100417 0.0
0.077538 0.011404 0.0
0.137873 0.118184 0.0
0.180891 0.213480 0.0
0.203743 0.297294 0.0
0.203843 0.368495 0.0
0.181144 0.424817 0.0
0.140269 0.462699 0.0
0.091763 0.475443 0.0
0.053004 0.449818 0.0
0.042263 0.376977 0.0
0.063584 0.272288 0.0
0.108868 0.146038 0.0
0.167462 0.014710 0.0
0.226682 -0.103242 0.0
0.279047 -0.202934 0.0
0.323043 -0.284075 0.0
0.358749 -0.346069 0.0
0.388438 -0.387991 0.0
0.416675 -0.408071 0.0
0.449603 -0.403579 0.0
0.493137 -0.371981 0.0
0.550686 -0.313240 0.0
0.621811 -0.231635 0.0
0.702643 -0.135525 0.0
0.786007 -0.036597 0.0
0.860435 0.050132 0.0
0.919474 0.119695 0.0
0.964226 0.175133 0.0
0.995791 0.218461 0.0
1.015054 0.251122 0.0
1.022781 0.274479 0.0
1.019562 0.290110 0.0
1.005747 0.300041 0.0
0.981598 0.306769 0.0
0.947928 0.312522 0.0
0.907159 0.317458 0.0
0.864065 0.317792 0.0
0.825087 0.306197 0.0
0.796071 0.275665 0.0
0.780000 0.224169 0.0
0.776583 0.155897 0.0
0.783608 0.078582 0.0
0.798313 0.000279 0.0
0.817752 -0.071266 0.0
0.839280 -0.131987 0.0
0.860919 -0.180613 0.0
0.881143 -0.217379 0.0
0.898861 -0.243370 0.0
0.913467 -0.260053 0.0
0.924935 -0.268861 0.0
0.933900 -0.270766 0.0
0.941646 -0.265951 0.0
0.949889 -0.253742 0.0
0.960364 -0.232967 0.0
0.974344 -0.202663 0.0
0.992294 -0.162832 0.0
1.013817 -0.114859 0.0
1.037814 -0.061455 0.0
1.062487 -0.006504 0.0
1.085257 0.044695 0.0
1.103881 0.089062 0.0
1.117195 0.125404 0.0
1.124659 0.153661 0.0
1.126149 0.174597 0.0
1.121834 0.189531 0.0
1.112144 0.200052 0.0
1.097801 0.207657 0.0
1.079859 0.213298 0.0
1.059698 0.216995 0.0
1.038905 0.217709 0.0
1.019058 0.213674 0.0
1.001470 0.203106 0.0
0.987027 0.184974 0.0
0.976165 0.159461 0.0
0.968970 0.127954 0.0
0.965296 0.092721 0.0
0.964840 0.056497 0.0
0.967122 0.022120 0.0
0.971441 -0.007724 0.0
0.976913 -0.030760 0.0
0.982639 -0.045663 0.0
0.987727 -0.051066 0.0
0.998102 -0.007449 0.0
0.990304 -0.022945 0.0
0.973790 -0.039091 0.0
0.946476 -0.055751 0.0
0.904624 -0.072307 0.0
0.841994 -0.086875 0.0
0.749126 -0.094574 0.0
0.614658 -0.080335 0.0
0.434654 -0.004919 0.0
0.166863 0.149174 0.0
0.000000 0.000000 0.0
-0.000000 -0.000000 0.0
0.000000 0.000000 0.0
-0.063794 -0.064752 0.0
-0.145028 -0.192610 0.0
-0.166920 -0.221166 0.0
-0.176427 -0.188282 0.0
-0.176827 -0.133736 0.0
-0.151284 -0.043669 0.0
-0.105009 0.066646 0.0
-0.059010 0.176001 0.0
-0.026158 0.279069 0.0
-0.010284 0.370746 0.0
-0.009282 0.444263 0.0
-0.016012 0.490857 0.0
-0.018001 0.497780 0.0
0.000958 0.447281 0.0
0.045711 0.345502 0.0
0.110036 0.218117 0.0
0.186918 0.078043 0.0
0.263040 -0.052011 0.0
0.328568 -0.161269 0.0
0.382146 -0.250851 0.0
0.423160 -0.321170 0.0
0.451598 -0.373118 0.0
0.468790 -0.407822 0.0
0.478173 -0.425859 0.0
0.485724 -0.426269 0.0
0.499210 -0.406311 0.0
0.525771 -0.363022 0.0
0.568940 -0.296147 0.0
0.627234 -0.210139 0.0
0.695310 -0.113424 0.0
0.764982 -0.017140 0.0
0.826695 0.066215 0.0
0.875903 0.134652 0.0
0.912993 0.190287 0.0
0.938388 0.234639 0.0
0.952441 0.269183 0.0
0.955409 0.295658 0.0
0.947548 0.316168 0.0
0.929531 0.332807 0.0
0.903207 0.346478 0.0
0.872328 0.355150 0.0
0.842401 0.353121 0.0
0.819139 0.333107 0.0
0.806320 0.290590 0.0
0.804763 0.226873 0.0
0.813104 0.148269 0.0
0.829233 0.063057 0.0
0.850640 -0.020307 0.0
0.874495 -0.093975 0.0
0.898404 -0.154716 0.0
0.920627 -0.201746 0.0
0.939869 -0.235712 0.0
0.955220 -0.258105 0.0
0.966154 -0.270857 0.0
0.972595 -0.275966 0.0
0.975041 -0.275074 0.0
0.974668 -0.269016 0.0
0.973283 -0.257534 0.0
0.973026 -0.239393 0.0
0.975849 -0.213040 0.0
0.982994 -0.177551 0.0
0.994719 -0.133388 0.0
1.010370 -0.082574 0.0
1.028644 -0.028332 0.0