# vtk DataFile Version 3.0
Vector Field
ASCII
DATASET RECTILINEAR_GRID
DIMENSIONS 100 26 1
X_COORDINATES 100 double
0.050000 0.150000 0.250000 0.350000 0.450000 0.550000 0.650000 0.750000 0.850000 0.950000 1.050000 1.150000 1.250000 1.350000 1.450000 1.550000 1.650000 1.750000 1.850000 1.950000 2.050000 2.150000 2.250000 2.350000 2.450000 2.550000 2.650000 2.750000 2.850000 2.950000 3.050000 3.150000 3.250000 3.350000 3.450000 3.550000 3.650000 3.750000 3.850000 3.950000 4.050000 4.150000 4.250000 4.350000 4.450000 4.550000 4.650000 4.750000 4.850000 4.950000 5.050000 5.150000 5.250000 5.350000 5.450000 5.550000 5.650000 5.750000 5.850000 5.950000 6.050000 6.150000 6.250000 6.350000 6.450000 6.550000 6.650000 6.750000 6.850000 6.950000 7.050000 7.150000 7.250000 7.350000 7.450000 7.550000 7.650000 7.750000 7.850000 7.950000 8.050000 8.150000 8.250000 8.350000 8.450000 8.550000 8.650000 8.750000 8.850000 8.950000 9.050000 9.150000 9.250000 9.350000 9.450000 9.550000 9.650000 9.750000 9.850000 9.950000 
Y_COORDINATES 26 double
0.050000 0.150000 0.250000 0.350000 0.450000 0.550000 0.650000 0.750000 0.850000 0.950000 1.050000 1.150000 1.250000 1.350000 1.450000 1.550000 1.650000 1.750000 1.850000 1.950000 2.050000 2.150000 2.250000 2.350000 2.450000 2.550000 
Z_COORDINATES 1 double
0.0
POINT_DATA 2600
VECTORS Vektorfeld double
0.997651 0.002349 0.0
0.992855 0.002447 0.0
0.989475 0.000933 0.0
0.989845 -0.001303 0.0
0.995002 -0.003854 0.0
1.005302 -0.006446 0.0
1.020555 -0.008807 0.0
1.040013 -0.010650 0.0
1.062366 -0.011703 0.0
1.085839 -0.011769 0.0
1.108396 -0.010789 0.0
1.128026 -0.008841 0.0
1.142949 -0.006081 0.0
1.151759 -0.002729 0.0
1.153659 0.000828 0.0
1.148217 0.004614 0.0
1.135028 0.008575 0.0
1.113909 0.012545 0.0
1.085036 0.016329 0.0
1.048981 0.019726 0.0
1.006710 0.022545 0.0
0.959548 0.024616 0.0
0.909121 0.025811 0.0
0.857259 0.026051 0.0
0.805880 0.025327 0.0
0.756845 0.023707 0.0
0.711805 0.021333 0.0
0.672069 0.018403 0.0
0.638526 0.015141 0.0
0.611613 0.011772 0.0
0.591341 0.008499 0.0
0.577358 0.005484 0.0
0.569073 0.002801 0.0
0.565943 0.000329 0.0
0.567273 -0.001658 0.0
0.571855 -0.002924 0.0
0.578396 -0.003617 0.0
0.585928 -0.003914 0.0
0.593800 -0.003958 0.0
0.601608 -0.003850 0.0
0.609112 -0.003655 0.0
0.616182 -0.003415 0.0
0.622752 -0.003154 0.0
0.628792 -0.002886 0.0
0.634299 -0.002621 0.0
0.639282 -0.002362 0.0
0.643758 -0.002115 0.0
0.647754 -0.001881 0.0
0.651298 -0.001663 0.0
0.654425 -0.001463 0.0
0.657169 -0.001281 0.0
0.659567 -0.001117 0.0
0.661654 -0.000970 0.0
0.663464 -0.000840 0.0
0.665031 -0.000726 0.0
0.666384 -0.000627 0.0
0.667551 -0.000540 0.0
0.668556 -0.000465 0.0
0.669422 -0.000400 0.0
0.670166 -0.000344 0.0
0.670807 -0.000296 0.0
0.671358 -0.000255 0.0
0.671833 -0.000220 0.0
0.672241 -0.000189 0.0
0.672593 -0.000163 0.0
0.672896 -0.000140 0.0
0.673158 -0.000121 0.0
0.673384 -0.000105 0.0
0.673579 -0.000090 0.0
0.673747 -0.000078 0.0
0.673893 -0.000068 0.0
0.674020 -0.000059 0.0
0.674130 -0.000051 0.0
0.674225 -0.000045 0.0
0.674309 -0.000039 0.0
0.674383 -0.000035 0.0
0.674448 -0.000031 0.0
0.674507 -0.000028 0.0
0.674560 -0.000025 0.0
0.674609 -0.000024 0.0
0.674655 -0.000023 0.0
0.674701 -0.000023 0.0
0.674746 -0.000023 0.0
0.674794 -0.000025 0.0
0.674845 -0.000027 0.0
0.674903 -0.000031 0.0
0.674970 -0.000036 0.0
0.675050 -0.000043 0.0
0.675146 -0.000053 0.0
0.675265 -0.000066 0.0
0.675415 -0.000084 0.0
0.675606 -0.000107 0.0
0.675853 -0.000139 0.0
0.676176 -0.000184 0.0
0.676606 -0.000246 0.0
0.677190 -0.000338 0.0
0.678005 -0.000477 0.0
0.679185 -0.000702 0.0
0.680995 -0.001108 0.0
0.683581 -0.001478 0.0
1.002941 0.001756 0.0
1.011425 -0.000647 0.0
1.024619 -0.005787 0.0
1.042039 -0.012372 0.0
1.063753 -0.019655 0.0
1.089798 -0.026992 0.0
1.119952 -0.033669 0.0
1.153587 -0.038880 0.0
1.189590 -0.041831 0.0
1.226388 -0.041912 0.0
1.262161 -0.038977 0.0
1.295188 -0.033309 0.0
1.324043 -0.025391 0.0
1.347561 -0.015748 0.0
1.364471 -0.004963 0.0
1.373630 0.006687 0.0
1.374418 0.018903 0.0
1.366592 0.031162 0.0
1.350309 0.042868 0.0
1.326144 0.053406 0.0
1.295082 0.062198 0.0
1.258452 0.068755 0.0
1.217834 0.072717 0.0
1.174957 0.073884 0.0
1.131579 0.072251 0.0
1.089375 0.068023 0.0
1.049822 0.061611 0.0
1.014101 0.053582 0.0
0.983023 0.044584 0.0
0.957001 0.035264 0.0
0.936083 0.026197 0.0
0.920020 0.017833 0.0
0.908323 0.010435 0.0
0.900098 0.004049 0.0
0.894437 -0.001047 0.0
0.891014 -0.004694 0.0
0.889703 -0.007077 0.0
0.890223 -0.008507 0.0
0.892254 -0.009268 0.0
0.895480 -0.009573 0.0
0.899617 -0.009573 0.0
0.904417 -0.009367 0.0
0.909668 -0.009022 0.0
0.915189 -0.008581 0.0
0.920828 -0.008073 0.0
0.926459 -0.007523 0.0
0.931977 -0.006948 0.0
0.937300 -0.006366 0.0
0.942365 -0.005789 0.0
0.947130 -0.005229 0.0
0.951566 -0.004695 0.0
0.955660 -0.004194 0.0
0.959408 -0.003729 0.0
0.962818 -0.003302 0.0
0.965902 -0.002915 0.0
0.968678 -0.002567 0.0
0.971166 -0.002255 0.0
0.973388 -0.001977 0.0
0.975366 -0.001731 0.0
0.977123 -0.001515 0.0
0.978679 -0.001324 0.0
0.980056 -0.001156 0.0
0.981272 -0.001009 0.0
0.982345 -0.000881 0.0
0.983291 -0.000768 0.0
0.984123 -0.000670 0.0
0.984855 -0.000585 0.0
0.985499 -0.000510 0.0
0.986064 -0.000445 0.0
0.986561 -0.000389 0.0
0.986998 -0.000340 0.0
0.987382 -0.000297 0.0
0.987719 -0.000260 0.0
0.988015 -0.000228 0.0
0.988275 -0.000200 0.0
0.988504 -0.000176 0.0
0.988705 -0.000156 0.0
0.988883 -0.000139 0.0
0.989041 -0.000125 0.0
0.989181 -0.000113 0.0
0.989306 -0.000105 0.0
0.989418 -0.000098 0.0
0.989521 -0.000095 0.0
0.989615 -0.000095 0.0
0.989704 -0.000097 0.0
0.989789 -0.000104 0.0
0.989873 -0.000114 0.0
0.989959 -0.000130 0.0
0.990050 -0.000153 0.0
0.990149 -0.000184 0.0
0.990260 -0.000227 0.0
0.990390 -0.000285 0.0
0.990545 -0.000363 0.0
0.990733 -0.000471 0.0
0.990966 -0.000622 0.0
0.991256 -0.000837 0.0
0.991617 -0.001155 0.0
0.992054 -0.001641 0.0
0.992519 -0.002445 0.0
0.993022 -0.003229 0.0
1.001845 -0.003031 0.0
1.008476 -0.010974 0.0
1.020642 -0.020821 0.0
1.037966 -0.032083 0.0
1.060484 -0.044176 0.0
1.088290 -0.056322 0.0
1.121265 -0.067467 0.0
1.158819 -0.076270 0.0
1.199691 -0.081315 0.0
1.241826 -0.081360 0.0
1.282759 -0.076235 0.0
1.320339 -0.066659 0.0
1.353053 -0.053610 0.0
1.379900 -0.037894 0.0
1.400192 -0.020017 0.0
1.413339 -0.000566 0.0
1.418854 0.019854 0.0
1.416512 0.040379 0.0
1.406416 0.060030 0.0
1.389045 0.077780 0.0
1.365245 0.092686 0.0
1.336149 0.103993 0.0
1.303065 0.111182 0.0
1.267362 0.114000 0.0
1.230396 0.112479 0.0
1.193445 0.106950 0.0
1.157647 0.098035 0.0
1.123941 0.086585 0.0
1.093012 0.073588 0.0
1.065261 0.060032 0.0
1.040821 0.046788 0.0
1.019612 0.034515 0.0
1.001421 0.023641 0.0
0.986035 0.014455 0.0
0.973270 0.006974 0.0
0.962943 0.001035 0.0
0.954976 -0.003527 0.0
0.949336 -0.006937 0.0
0.945889 -0.009422 0.0
0.944422 -0.011178 0.0
0.944675 -0.012357 0.0
0.946362 -0.013070 0.0
0.949195 -0.013403 0.0
0.952899 -0.013424 0.0
0.957218 -0.013189 0.0
0.961929 -0.012749 0.0
0.966841 -0.012152 0.0
0.971800 -0.011443 0.0
0.976681 -0.010659 0.0
0.981394 -0.009836 0.0
0.985874 -0.009003 0.0
0.990076 -0.008182 0.0
0.993977 -0.007390 0.0
0.997566 -0.006640 0.0
1.000844 -0.005940 0.0
1.003819 -0.005293 0.0
1.006505 -0.004702 0.0
1.008918 -0.004166 0.0
1.011080 -0.003683 0.0
1.013009 -0.003249 0.0
1.014727 -0.002863 0.0
1.016253 -0.002519 0.0
1.017605 -0.002215 0.0
1.018803 -0.001945 0.0
1.019861 -0.001708 0.0
1.020796 -0.001498 0.0
1.021621 -0.001314 0.0
1.022348 -0.001152 0.0
1.022988 -0.001010 0.0
1.023552 -0.000885 0.0
1.024048 -0.000776 0.0
1.024484 -0.000681 0.0
1.024868 -0.000597 0.0
1.025206 -0.000524 0.0
1.025503 -0.000461 0.0
1.025765 -0.000406 0.0
1.025995 -0.000358 0.0
1.026199 -0.000318 0.0
1.026378 -0.000283 0.0
1.026537 -0.000254 0.0
1.026678 -0.000230 0.0
1.026804 -0.000211 0.0
1.026917 -0.000198 0.0
1.027020 -0.000189 0.0
1.027114 -0.000186 0.0
1.027202 -0.000188 0.0
1.027286 -0.000198 0.0
1.027368 -0.000215 0.0
1.027451 -0.000242 0.0
1.027536 -0.000280 0.0
1.027627 -0.000334 0.0
1.027727 -0.000407 0.0
1.027839 -0.000507 0.0
1.027967 -0.000643 0.0
1.028111 -0.000828 0.0
1.028272 -0.001083 0.0
1.028440 -0.001438 0.0
1.028582 -0.001936 0.0
1.028610 -0.002643 0.0
1.028474 -0.003398 0.0
1.001457 -0.006333 0.0
1.007163 -0.020009 0.0
1.018411 -0.035201 0.0
1.035289 -0.051905 0.0
1.058163 -0.069745 0.0
1.087500 -0.087895 0.0
1.123577 -0.104947 0.0
1.166060 -0.118828 0.0
1.213623 -0.127193 0.0
1.263258 -0.127253 0.0
1.311016 -0.119033 0.0
1.353966 -0.104391 0.0
1.390635 -0.085261 0.0
1.420416 -0.062872 0.0
1.442886 -0.037800 0.0
1.457479 -0.010525 0.0
1.463664 0.018113 0.0
1.461186 0.046940 0.0
1.450228 0.074523 0.0
1.431517 0.099369 0.0
1.406233 0.120183 0.0
1.375805 0.136020 0.0
1.341721 0.146323 0.0
1.305383 0.150900 0.0
1.268032 0.149895 0.0
1.230736 0.143782 0.0
1.194394 0.133344 0.0
1.159739 0.119636 0.0
1.127326 0.103879 0.0
1.097510 0.087306 0.0
1.070463 0.071001 0.0
1.046210 0.055764 0.0
1.024707 0.042085 0.0
1.005923 0.030181 0.0
0.989883 0.020052 0.0
0.976630 0.011537 0.0
0.966151 0.004417 0.0
0.958377 -0.001467 0.0
0.953185 -0.006254 0.0
0.950366 -0.010061 0.0
0.949631 -0.012991 0.0
0.950644 -0.015136 0.0
0.953053 -0.016580 0.0
0.956515 -0.017413 0.0
0.960719 -0.017722 0.0
0.965391 -0.017599 0.0
0.970306 -0.017130 0.0
0.975283 -0.016400 0.0
0.980185 -0.015485 0.0
0.984911 -0.014450 0.0
0.989391 -0.013350 0.0
0.993584 -0.012230 0.0
0.997465 -0.011124 0.0
1.001026 -0.010057 0.0
1.004270 -0.009045 0.0
1.007209 -0.008100 0.0
1.009857 -0.007228 0.0
1.012233 -0.006430 0.0
1.014358 -0.005705 0.0
1.016253 -0.005051 0.0
1.017939 -0.004465 0.0
1.019435 -0.003940 0.0
1.020762 -0.003473 0.0
1.021935 -0.003058 0.0
1.022972 -0.002691 0.0
1.023888 -0.002366 0.0
1.024696 -0.002079 0.0
1.025408 -0.001826 0.0
1.026036 -0.001603 0.0
1.026588 -0.001408 0.0
1.027074 -0.001236 0.0
1.027502 -0.001085 0.0
1.027878 -0.000953 0.0
1.028209 -0.000837 0.0
1.028500 -0.000736 0.0
1.028757 -0.000648 0.0
1.028982 -0.000572 0.0
1.029181 -0.000506 0.0
1.029356 -0.000449 0.0
1.029511 -0.000401 0.0
1.029648 -0.000361 0.0
1.029770 -0.000328 0.0
1.029879 -0.000303 0.0
1.029977 -0.000285 0.0
1.030066 -0.000274 0.0
1.030147 -0.000270 0.0
1.030224 -0.000276 0.0
1.030296 -0.000291 0.0
1.030367 -0.000318 0.0
1.030438 -0.000359 0.0
1.030509 -0.000418 0.0
1.030584 -0.000498 0.0
1.030662 -0.000607 0.0
1.030744 -0.000752 0.0
1.030826 -0.000946 0.0
1.030903 -0.001202 0.0
1.030959 -0.001541 0.0
1.030963 -0.001980 0.0
1.030865 -0.002529 0.0
1.030628 -0.003139 0.0
1.001257 -0.009047 0.0
1.006343 -0.028087 0.0
1.016747 -0.048775 0.0
1.032998 -0.071460 0.0
1.055975 -0.096042 0.0
1.086810 -0.121770 0.0
1.126590 -0.146929 0.0
1.175678 -0.168415 0.0
1.233220 -0.182711 0.0
1.294106 -0.182255 0.0
1.350863 -0.168545 0.0
1.399547 -0.146513 0.0
1.439620 -0.119880 0.0
1.471817 -0.090231 0.0
1.496521 -0.057614 0.0
1.513052 -0.021835 0.0
1.520197 0.016092 0.0
1.517119 0.054515 0.0
1.503785 0.091240 0.0
1.481116 0.124031 0.0
1.450790 0.151131 0.0
1.414835 0.171454 0.0
1.375260 0.184547 0.0
1.333823 0.190451 0.0
1.291939 0.189578 0.0
1.250697 0.182637 0.0
1.210916 0.170611 0.0
1.173208 0.154731 0.0
1.138014 0.136392 0.0
1.105615 0.117007 0.0
1.076158 0.097805 0.0
1.049687 0.079684 0.0
1.026211 0.063145 0.0
1.005756 0.048360 0.0
0.988384 0.035285 0.0
0.974162 0.023780 0.0
0.963102 0.013712 0.0
0.955124 0.004990 0.0
0.950038 -0.002432 0.0
0.947554 -0.008580 0.0
0.947310 -0.013494 0.0
0.948900 -0.017236 0.0
0.951910 -0.019899 0.0
0.955951 -0.021598 0.0
0.960676 -0.022466 0.0
0.965792 -0.022644 0.0
0.971064 -0.022272 0.0
0.976312 -0.021483 0.0
0.981403 -0.020395 0.0
0.986248 -0.019110 0.0
0.990789 -0.017711 0.0
0.994994 -0.016267 0.0
0.998853 -0.014827 0.0
1.002367 -0.013429 0.0
1.005546 -0.012097 0.0
1.008409 -0.010849 0.0
1.010976 -0.009694 0.0
1.013270 -0.008634 0.0
1.015315 -0.007670 0.0
1.017132 -0.006799 0.0
1.018745 -0.006016 0.0
1.020174 -0.005314 0.0
1.021438 -0.004689 0.0
1.022556 -0.004133 0.0
1.023542 -0.003639 0.0
1.024412 -0.003203 0.0
1.025178 -0.002817 0.0
1.025854 -0.002476 0.0
1.026449 -0.002176 0.0
1.026972 -0.001911 0.0
1.027433 -0.001679 0.0
1.027838 -0.001475 0.0
1.028194 -0.001296 0.0
1.028507 -0.001139 0.0
1.028782 -0.001001 0.0
1.029025 -0.000882 0.0
1.029238 -0.000777 0.0
1.029425 -0.000687 0.0
1.029590 -0.000609 0.0
1.029735 -0.000542 0.0
1.029864 -0.000486 0.0
1.029977 -0.000439 0.0
1.030078 -0.000402 0.0
1.030168 -0.000373 0.0
1.030249 -0.000354 0.0
1.030321 -0.000344 0.0
1.030388 -0.000345 0.0
1.030449 -0.000356 0.0
1.030506 -0.000381 0.0
1.030560 -0.000421 0.0
1.030611 -0.000479 0.0
1.030660 -0.000560 0.0
1.030706 -0.000669 0.0
1.030746 -0.000812 0.0
1.030776 -0.000999 0.0
1.030788 -0.001238 0.0
1.030767 -0.001540 0.0
1.030691 -0.001910 0.0
1.030532 -0.002342 0.0
1.030269 -0.002825 0.0
1.001057 -0.011362 0.0
1.005413 -0.035214 0.0
1.014577 -0.061215 0.0
1.029464 -0.090157 0.0
1.051563 -0.122420 0.0
1.082969 -0.157633 0.0
1.126197 -0.194074 0.0
1.183205 -0.227366 0.0
1.255527 -0.253624 0.0
1.332504 -0.249205 0.0
1.398042 -0.223891 0.0
1.448539 -0.190349 0.0
1.487227 -0.154803 0.0
1.518229 -0.118506 0.0
1.543875 -0.079689 0.0
1.563432 -0.035848 0.0
1.573696 0.012697 0.0
1.571865 0.062819 0.0
1.557228 0.110908 0.0
1.530848 0.153412 0.0
1.495071 0.187854 0.0
1.452733 0.213024 0.0
1.406544 0.228740 0.0
1.358757 0.235483 0.0
1.311073 0.234114 0.0
1.264698 0.225718 0.0
1.220448 0.211560 0.0
1.178864 0.193074 0.0
1.140291 0.171817 0.0
1.104934 0.149337 0.0
1.072902 0.126965 0.0
1.044250 0.105646 0.0
1.019034 0.085875 0.0
0.997331 0.067787 0.0
0.979235 0.051325 0.0
0.964806 0.036392 0.0
0.954013 0.022952 0.0
0.946703 0.011037 0.0
0.942589 0.000721 0.0
0.941271 -0.007931 0.0
0.942275 -0.014903 0.0
0.945106 -0.020247 0.0
0.949282 -0.024074 0.0
0.954366 -0.026547 0.0
0.959982 -0.027858 0.0
0.965827 -0.028213 0.0
0.971669 -0.027816 0.0
0.977338 -0.026855 0.0
0.982721 -0.025497 0.0
0.987748 -0.023880 0.0
0.992384 -0.022118 0.0
0.996616 -0.020299 0.0
1.000451 -0.018489 0.0
1.003905 -0.016734 0.0
1.007001 -0.015067 0.0
1.009765 -0.013507 0.0
1.012227 -0.012065 0.0
1.014414 -0.010744 0.0
1.016353 -0.009544 0.0
1.018069 -0.008460 0.0
1.019587 -0.007486 0.0
1.020927 -0.006614 0.0
1.022110 -0.005837 0.0
1.023153 -0.005145 0.0
1.024072 -0.004532 0.0
1.024882 -0.003989 0.0
1.025595 -0.003509 0.0
1.026222 -0.003086 0.0
1.026774 -0.002712 0.0
1.027260 -0.002383 0.0
1.027686 -0.002094 0.0
1.028061 -0.001840 0.0
1.028391 -0.001617 0.0
1.028681 -0.001421 0.0
1.028935 -0.001249 0.0
1.029159 -0.001099 0.0
1.029356 -0.000969 0.0
1.029528 -0.000855 0.0
1.029680 -0.000757 0.0
1.029813 -0.000673 0.0
1.029931 -0.000601 0.0
1.030034 -0.000541 0.0
1.030124 -0.000492 0.0
1.030204 -0.000453 0.0
1.030275 -0.000425 0.0
1.030337 -0.000408 0.0
1.030392 -0.000402 0.0
1.030441 -0.000409 0.0
1.030483 -0.000429 0.0
1.030520 -0.000464 0.0
1.030551 -0.000518 0.0
1.030575 -0.000594 0.0
1.030590 -0.000696 0.0
1.030594 -0.000829 0.0
1.030581 -0.000999 0.0
1.030542 -0.001211 0.0
1.030466 -0.001470 0.0
1.030338 -0.001776 0.0
1.030142 -0.002121 0.0
1.029863 -0.002504 0.0
1.000777 -0.013196 0.0
1.004033 -0.040992 0.0
1.011107 -0.071674 0.0
1.023177 -0.106654 0.0
1.042293 -0.147137 0.0
1.071704 -0.193734 0.0
1.116114 -0.245611 0.0
1.180807 -0.297530 0.0
1.274904 -0.349880 0.0
1.372065 -0.327086 0.0
1.437370 -0.276854 0.0
1.475861 -0.226374 0.0
1.500395 -0.181999 0.0
1.520722 -0.142640 0.0
1.542539 -0.103020 0.0
1.565958 -0.055493 0.0
1.584150 0.003886 0.0
1.589059 0.068551 0.0
1.577707 0.131166 0.0
1.551414 0.185827 0.0
1.513543 0.229087 0.0
1.467935 0.259736 0.0
1.418036 0.278116 0.0
1.366537 0.285394 0.0
1.315357 0.283066 0.0
1.265781 0.272717 0.0
1.218627 0.255965 0.0
1.174396 0.234484 0.0
1.133387 0.209990 0.0
1.095779 0.184128 0.0
1.061707 0.158278 0.0
1.031311 0.133380 0.0
1.004765 0.109903 0.0
0.982263 0.087964 0.0
0.963967 0.067540 0.0
0.949940 0.048633 0.0
0.940095 0.031349 0.0
0.934171 0.015875 0.0
0.931748 0.002421 0.0
0.932284 -0.008849 0.0
0.935178 -0.017884 0.0
0.939825 -0.024745 0.0
0.945664 -0.029590 0.0
0.952199 -0.032651 0.0
0.959030 -0.034202 0.0
0.965848 -0.034533 0.0
0.972433 -0.033923 0.0
0.978640 -0.032625 0.0
0.984386 -0.030856 0.0
0.989633 -0.028795 0.0
0.994376 -0.026581 0.0
0.998630 -0.024322 0.0
1.002424 -0.022095 0.0
1.005795 -0.019952 0.0
1.008780 -0.017930 0.0
1.011418 -0.016047 0.0
1.013746 -0.014315 0.0
1.015799 -0.012733 0.0
1.017606 -0.011301 0.0
1.019198 -0.010010 0.0
1.020598 -0.008853 0.0
1.021831 -0.007819 0.0
1.022914 -0.006898 0.0
1.023868 -0.006080 0.0
1.024706 -0.005355 0.0
1.025442 -0.004713 0.0
1.026090 -0.004146 0.0
1.026659 -0.003646 0.0
1.027159 -0.003204 0.0
1.027598 -0.002816 0.0
1.027984 -0.002474 0.0
1.028323 -0.002174 0.0
1.028621 -0.001910 0.0
1.028882 -0.001679 0.0
1.029112 -0.001476 0.0
1.029313 -0.001298 0.0
1.029490 -0.001143 0.0
1.029645 -0.001008 0.0
1.029781 -0.000891 0.0
1.029900 -0.000791 0.0
1.030004 -0.000704 0.0
1.030095 -0.000631 0.0
1.030174 -0.000571 0.0
1.030243 -0.000523 0.0
1.030302 -0.000486 0.0
1.030353 -0.000461 0.0
1.030396 -0.000448 0.0
1.030431 -0.000447 0.0
1.030459 -0.000460 0.0
1.030479 -0.000489 0.0
1.030490 -0.000535 0.0
1.030491 -0.000602 0.0
1.030479 -0.000692 0.0
1.030452 -0.000809 0.0
1.030403 -0.000956 0.0
1.030325 -0.001137 0.0
1.030210 -0.001353 0.0
1.030047 -0.001602 0.0
1.029825 -0.001877 0.0
1.029536 -0.002180 0.0
1.000373 -0.014346 0.0
1.001999 -0.044725 0.0
1.005772 -0.078789 0.0
1.012866 -0.118704 0.0
1.025533 -0.166871 0.0
1.047904 -0.225781 0.0
1.087293 -0.297363 0.0
1.154975 -0.378153 0.0
1.278613 -0.486992 0.0
1.392019 -0.400541 0.0
1.428026 -0.304712 0.0
1.426637 -0.235619 0.0
1.416036 -0.186687 0.0
1.409621 -0.151863 0.0
1.416543 -0.122536 0.0
1.441026 -0.083878 0.0
1.474833 -0.019727 0.0
1.498955 0.063134 0.0
1.502387 0.144502 0.0
1.486793 0.214377 0.0
1.457004 0.268197 0.0
1.418043 0.305196 0.0
1.373888 0.326709 0.0
1.327339 0.334849 0.0
1.280283 0.331847 0.0
1.233980 0.319817 0.0
1.189259 0.300740 0.0
1.146678 0.276520 0.0
1.106635 0.249006 0.0
1.069464 0.219891 0.0
1.035508 0.190542 0.0
1.005166 0.161854 0.0
0.978872 0.134268 0.0
0.957032 0.107941 0.0
0.939926 0.082965 0.0
0.927636 0.059526 0.0
0.920003 0.037934 0.0
0.916644 0.018572 0.0
0.916986 0.001805 0.0
0.920334 -0.012118 0.0
0.925958 -0.023132 0.0
0.933138 -0.031326 0.0
0.941225 -0.036934 0.0
0.949672 -0.040290 0.0
0.958058 -0.041780 0.0
0.966086 -0.041800 0.0
0.973567 -0.040721 0.0
0.980401 -0.038867 0.0
0.986549 -0.036509 0.0
0.992023 -0.033862 0.0
0.996856 -0.031091 0.0
1.001103 -0.028314 0.0
1.004821 -0.025616 0.0
1.008070 -0.023051 0.0
1.010906 -0.020652 0.0
1.013381 -0.018438 0.0
1.015541 -0.016412 0.0
1.017428 -0.014574 0.0
1.019076 -0.012916 0.0
1.020517 -0.011428 0.0
1.021778 -0.010097 0.0
1.022882 -0.008911 0.0
1.023849 -0.007857 0.0
1.024697 -0.006922 0.0
1.025440 -0.006094 0.0
1.026091 -0.005362 0.0
1.026663 -0.004716 0.0
1.027164 -0.004146 0.0
1.027604 -0.003644 0.0
1.027990 -0.003202 0.0
1.028329 -0.002813 0.0
1.028626 -0.002471 0.0
1.028887 -0.002171 0.0
1.029115 -0.001908 0.0
1.029316 -0.001677 0.0
1.029492 -0.001474 0.0
1.029646 -0.001298 0.0
1.029780 -0.001144 0.0
1.029898 -0.001010 0.0
1.030001 -0.000894 0.0
1.030090 -0.000794 0.0
1.030167 -0.000710 0.0
1.030233 -0.000639 0.0
1.030290 -0.000581 0.0
1.030337 -0.000535 0.0
1.030376 -0.000501 0.0
1.030406 -0.000480 0.0
1.030428 -0.000472 0.0
1.030442 -0.000477 0.0
1.030445 -0.000496 0.0
1.030438 -0.000532 0.0
1.030419 -0.000587 0.0
1.030384 -0.000661 0.0
1.030330 -0.000758 0.0
1.030253 -0.000880 0.0
1.030146 -0.001028 0.0
1.030002 -0.001203 0.0
1.029814 -0.001401 0.0
1.029574 -0.001617 0.0
1.029278 -0.001854 0.0
0.999845 -0.014564 0.0
0.999298 -0.045585 0.0
0.998488 -0.080892 0.0
0.998124 -0.123330 0.0
0.999821 -0.176609 0.0
1.007261 -0.245853 0.0
1.028865 -0.338285 0.0
1.083223 -0.459273 0.0
1.232280 -0.678566 0.0
1.331389 -0.421482 0.0
1.279037 -0.267427 0.0
1.203044 -0.195520 0.0
1.139220 -0.152361 0.0
1.090518 -0.131072 0.0
1.067650 -0.127382 0.0
1.084364 -0.120230 0.0
1.140128 -0.072945 0.0
1.205325 0.027033 0.0
1.248638 0.133859 0.0
1.266320 0.222932 0.0
1.266049 0.289702 0.0
1.253787 0.334914 0.0
1.233488 0.361444 0.0
1.207699 0.372453 0.0
1.178171 0.370825 0.0
1.146228 0.359085 0.0
1.112948 0.339474 0.0
1.079253 0.314062 0.0
1.045984 0.284775 0.0
1.013972 0.253306 0.0
0.984088 0.220968 0.0
0.957237 0.188620 0.0
0.934291 0.156742 0.0
0.915956 0.125642 0.0
0.902663 0.095662 0.0
0.894507 0.067276 0.0
0.891252 0.041072 0.0
0.892382 0.017663 0.0
0.897166 -0.002411 0.0
0.904774 -0.018859 0.0
0.914351 -0.031590 0.0
0.925052 -0.040750 0.0
0.936144 -0.046689 0.0
0.947049 -0.049887 0.0
0.957361 -0.050880 0.0
0.966828 -0.050196 0.0
0.975329 -0.048308 0.0
0.982835 -0.045620 0.0
0.989384 -0.042454 0.0
0.995049 -0.039056 0.0
0.999923 -0.035605 0.0
1.004105 -0.032227 0.0
1.007687 -0.029003 0.0
1.010758 -0.025983 0.0
1.013393 -0.023191 0.0
1.015658 -0.020639 0.0
1.017610 -0.018323 0.0
1.019295 -0.016235 0.0
1.020753 -0.014362 0.0
1.022017 -0.012688 0.0
1.023115 -0.011197 0.0
1.024071 -0.009871 0.0
1.024904 -0.008697 0.0
1.025630 -0.007656 0.0
1.026265 -0.006737 0.0
1.026820 -0.005925 0.0
1.027306 -0.005210 0.0
1.027731 -0.004579 0.0
1.028103 -0.004023 0.0
1.028429 -0.003535 0.0
1.028715 -0.003105 0.0
1.028965 -0.002727 0.0
1.029185 -0.002395 0.0
1.029377 -0.002104 0.0
1.029545 -0.001849 0.0
1.029692 -0.001625 0.0
1.029821 -0.001430 0.0
1.029933 -0.001259 0.0
1.030031 -0.001110 0.0
1.030115 -0.000981 0.0
1.030188 -0.000869 0.0
1.030250 -0.000774 0.0
1.030303 -0.000693 0.0
1.030346 -0.000626 0.0
1.030381 -0.000572 0.0
1.030408 -0.000530 0.0
1.030425 -0.000500 0.0
1.030434 -0.000483 0.0
1.030434 -0.000478 0.0
1.030423 -0.000487 0.0
1.030400 -0.000511 0.0
1.030362 -0.000551 0.0
1.030308 -0.000608 0.0
1.030232 -0.000683 0.0
1.030133 -0.000778 0.0
1.030003 -0.000894 0.0
1.029838 -0.001028 0.0
1.029632 -0.001181 0.0
1.029380 -0.001346 0.0
1.029078 -0.001526 0.0
0.999247 -0.013656 0.0
0.996205 -0.042904 0.0
0.989982 -0.076540 0.0
0.980306 -0.117642 0.0
0.966961 -0.170650 0.0
0.950445 -0.242735 0.0
0.934219 -0.346780 0.0
0.933135 -0.504052 0.0
1.029494 -0.879202 0.0
1.019608 -0.205041 0.0
0.818101 -0.113237 0.0
0.662663 -0.106534 0.0
0.564633 -0.079493 0.0
0.489924 -0.080530 0.0
0.467077 -0.132209 0.0
0.515435 -0.180474 0.0
0.610461 -0.163490 0.0
0.725906 -0.063065 0.0
0.828849 0.077702 0.0
0.899085 0.191170 0.0
0.946828 0.273992 0.0
0.978908 0.330806 0.0
0.998397 0.366362 0.0
1.007161 0.384562 0.0
1.006811 0.388594 0.0
0.998946 0.381124 0.0
0.985168 0.364492 0.0
0.967076 0.340831 0.0
0.946270 0.312081 0.0
0.924375 0.279907 0.0
0.903033 0.245594 0.0
0.883821 0.210056 0.0
0.868106 0.173968 0.0
0.856889 0.137970 0.0
0.850707 0.102809 0.0
0.849631 0.069360 0.0
0.853332 0.038542 0.0
0.861176 0.011220 0.0
0.872365 -0.011939 0.0
0.885951 -0.030525 0.0
0.900877 -0.044427 0.0
0.916165 -0.053903 0.0
0.931025 -0.059488 0.0
0.944896 -0.061864 0.0
0.957437 -0.061756 0.0
0.968496 -0.059846 0.0
0.978061 -0.056723 0.0
0.986214 -0.052865 0.0
0.993095 -0.048637 0.0
0.998863 -0.044305 0.0
1.003681 -0.040049 0.0
1.007704 -0.035987 0.0
1.011065 -0.032188 0.0
1.013882 -0.028686 0.0
1.016250 -0.025492 0.0
1.018250 -0.022603 0.0
1.019945 -0.020006 0.0
1.021389 -0.017681 0.0
1.022623 -0.015608 0.0
1.023682 -0.013765 0.0
1.024595 -0.012130 0.0
1.025382 -0.010682 0.0
1.026064 -0.009401 0.0
1.026656 -0.008270 0.0
1.027171 -0.007273 0.0
1.027619 -0.006393 0.0
1.028009 -0.005618 0.0
1.028350 -0.004936 0.0
1.028648 -0.004336 0.0
1.028909 -0.003808 0.0
1.029136 -0.003344 0.0
1.029335 -0.002937 0.0
1.029510 -0.002579 0.0
1.029662 -0.002265 0.0
1.029795 -0.001989 0.0
1.029911 -0.001748 0.0
1.030012 -0.001537 0.0
1.030100 -0.001352 0.0
1.030176 -0.001190 0.0
1.030241 -0.001050 0.0
1.030297 -0.000928 0.0
1.030343 -0.000824 0.0
1.030381 -0.000734 0.0
1.030411 -0.000659 0.0
1.030434 -0.000596 0.0
1.030448 -0.000546 0.0
1.030453 -0.000508 0.0
1.030450 -0.000481 0.0
1.030437 -0.000466 0.0
1.030413 -0.000464 0.0
1.030375 -0.000474 0.0
1.030322 -0.000498 0.0
1.030252 -0.000535 0.0
1.030160 -0.000588 0.0
1.030042 -0.000656 0.0
1.029896 -0.000739 0.0
1.029715 -0.000837 0.0
1.029496 -0.000947 0.0
1.029235 -0.001067 0.0
1.028928 -0.001197 0.0
0.998686 -0.011588 0.0
0.993294 -0.036538 0.0
0.981890 -0.065279 0.0
0.963025 -0.100362 0.0
0.933980 -0.145540 0.0
0.889745 -0.207094 0.0
0.820527 -0.296977 0.0
0.707258 -0.439502 0.0
0.318239 -0.756118 0.0
-0.460331 0.273964 0.0
-0.460331 0.000000 0.0
-0.038073 -0.026294 0.0
-0.066202 -0.045352 0.0
-0.020752 -0.085411 0.0
0.060457 -0.185690 0.0
0.148660 -0.263555 0.0
0.230443 -0.257218 0.0
0.318375 -0.172715 0.0
0.420933 -0.018148 0.0
0.518075 0.119643 0.0
0.599185 0.216665 0.0
0.668671 0.286567 0.0
0.724964 0.334818 0.0
0.767498 0.364809 0.0
0.796912 0.379284 0.0
0.814588 0.380624 0.0
0.822358 0.371000 0.0
0.822333 0.352441 0.0
0.816800 0.326810 0.0
0.808142 0.295731 0.0
0.798703 0.260550 0.0
0.790599 0.222416 0.0
0.785506 0.182416 0.0
0.784533 0.141712 0.0
0.788210 0.101572 0.0
0.796587 0.063296 0.0
0.809392 0.028100 0.0
0.826094 -0.002885 0.0
0.845712 -0.028642 0.0
0.866868 -0.048564 0.0
0.888224 -0.062669 0.0
0.908727 -0.071453 0.0
0.927653 -0.075723 0.0
0.944569 -0.076415 0.0
0.959289 -0.074466 0.0
0.971813 -0.070720 0.0
0.982278 -0.065878 0.0
0.990898 -0.060484 0.0
0.997929 -0.054929 0.0
1.003628 -0.049480 0.0
1.008236 -0.044301 0.0
1.011963 -0.039485 0.0
1.014988 -0.035075 0.0
1.017453 -0.031080 0.0
1.019476 -0.027488 0.0
1.021145 -0.024276 0.0
1.022532 -0.021415 0.0
1.023692 -0.018875 0.0
1.024669 -0.016625 0.0
1.025495 -0.014634 0.0
1.026198 -0.012876 0.0
1.026799 -0.011324 0.0
1.027315 -0.009956 0.0
1.027759 -0.008751 0.0
1.028143 -0.007690 0.0
1.028475 -0.006756 0.0
1.028763 -0.005934 0.0
1.029013 -0.005212 0.0
1.029231 -0.004576 0.0
1.029421 -0.004018 0.0
1.029586 -0.003528 0.0
1.029731 -0.003097 0.0
1.029857 -0.002719 0.0
1.029966 -0.002387 0.0
1.030062 -0.002096 0.0
1.030145 -0.001841 0.0
1.030217 -0.001617 0.0
1.030279 -0.001421 0.0
1.030332 -0.001250 0.0
1.030377 -0.001101 0.0
1.030414 -0.000971 0.0
1.030445 -0.000858 0.0
1.030468 -0.000761 0.0
1.030484 -0.000678 0.0
1.030494 -0.000608 0.0
1.030496 -0.000550 0.0
1.030490 -0.000503 0.0
1.030476 -0.000467 0.0
1.030451 -0.000442 0.0
1.030415 -0.000427 0.0
1.030366 -0.000423 0.0
1.030301 -0.000430 0.0
1.030217 -0.000448 0.0
1.030112 -0.000478 0.0
1.029981 -0.000519 0.0
1.029822 -0.000571 0.0
1.029630 -0.000633 0.0
1.029402 -0.000704 0.0
1.029134 -0.000782 0.0
1.028825 -0.000866 0.0
0.998288 -0.008562 0.0
0.991231 -0.027116 0.0
0.976192 -0.048258 0.0
0.950997 -0.073325 0.0
0.911473 -0.104008 0.0
0.849607 -0.142526 0.0
0.748818 -0.191538 0.0
0.570002 -0.252857 0.0
0.227068 -0.312588 0.0
0.000000 0.273964 0.0
-0.000000 -0.000000 0.0
0.000000 0.000000 0.0
-0.029773 -0.027648 0.0
-0.067422 -0.113041 0.0
-0.071947 -0.234746 0.0
-0.069476 -0.305173 0.0
-0.066719 -0.300140 0.0
-0.033797 -0.250648 0.0
0.055591 -0.132161 0.0
0.173468 0.018637 0.0
0.282207 0.127821 0.0
0.378196 0.209937 0.0
0.461007 0.272343 0.0
0.528998 0.316758 0.0
0.582047 0.344872 0.0
0.621107 0.358299 0.0
0.647966 0.358695 0.0
0.664994 0.347743 0.0
0.674932 0.327103 0.0
0.680656 0.298373 0.0
0.684892 0.263110 0.0
0.689948 0.222905 0.0
0.697546 0.179421 0.0
0.708836 0.134389 0.0
0.724517 0.089538 0.0
0.744982 0.046489 0.0
0.770133 0.006951 0.0
0.798600 -0.026906 0.0
0.828165 -0.053803 0.0
0.857035 -0.073430 0.0
0.884079 -0.086203 0.0
0.908636 -0.092979 0.0
0.930363 -0.094850 0.0
0.949142 -0.092984 0.0
0.965023 -0.088497 0.0
0.978180 -0.082371 0.0
0.988882 -0.075394 0.0
0.997452 -0.068158 0.0
1.004229 -0.061063 0.0
1.009545 -0.054360 0.0
1.013695 -0.048179 0.0
1.016936 -0.042575 0.0
1.019472 -0.037548 0.0
1.021470 -0.033071 0.0
1.023054 -0.029103 0.0
1.024322 -0.025597 0.0
1.025345 -0.022505 0.0
1.026179 -0.019780 0.0
1.026864 -0.017382 0.0
1.027431 -0.015271 0.0
1.027904 -0.013415 0.0
1.028302 -0.011783 0.0
1.028638 -0.010349 0.0
1.028923 -0.009088 0.0
1.029166 -0.007980 0.0
1.029374 -0.007006 0.0
1.029554 -0.006151 0.0
1.029708 -0.005400 0.0
1.029842 -0.004740 0.0
1.029957 -0.004160 0.0
1.030057 -0.003652 0.0
1.030144 -0.003205 0.0
1.030220 -0.002813 0.0
1.030285 -0.002469 0.0
1.030341 -0.002167 0.0
1.030390 -0.001902 0.0
1.030432 -0.001669 0.0
1.030467 -0.001466 0.0
1.030497 -0.001288 0.0
1.030521 -0.001132 0.0
1.030539 -0.000996 0.0
1.030553 -0.000877 0.0
1.030561 -0.000774 0.0
1.030564 -0.000685 0.0
1.030562 -0.000608 0.0
1.030552 -0.000543 0.0
1.030536 -0.000488 0.0
1.030511 -0.000443 0.0
1.030477 -0.000407 0.0
1.030431 -0.000380 0.0
1.030372 -0.000362 0.0
1.030297 -0.000352 0.0
1.030204 -0.000350 0.0
1.030089 -0.000356 0.0
1.029950 -0.000370 0.0
1.029781 -0.000392 0.0
1.029582 -0.000420 0.0
1.029347 -0.000454 0.0
1.029075 -0.000492 0.0
1.028763 -0.000534 0.0
0.998133 -0.004983 0.0
0.990446 -0.015951 0.0
0.974125 -0.028063 0.0
0.947068 -0.041268 0.0
0.905539 -0.055010 0.0
0.843406 -0.067525 0.0
0.751242 -0.073586 0.0
0.618030 -0.058781 0.0
0.441465 0.016083 0.0
0.171555 0.154312 0.0
0.000000 0.000000 0.0
-0.000000 -0.000000 0.0
0.000000 0.000000 0.0
-0.053426 -0.052583 0.0
-0.140102 -0.204847 0.0
-0.206234 -0.271410 0.0
-0.261069 -0.281825 0.0
-0.279868 -0.283087 0.0
-0.239258 -0.229719 0.0
-0.125757 -0.115183 0.0
0.018379 0.008765 0.0
0.138259 0.113126 0.0
0.235597 0.189005 0.0
0.319423 0.248281 0.0
0.388471 0.291253 0.0
0.443069 0.318258 0.0
0.484857 0.330089 0.0
0.516308 0.327870 0.0
0.540375 0.312970 0.0
0.560156 0.287001 0.0
0.578560 0.251841 0.0
0.598096 0.209584 0.0
0.620808 0.162431 0.0
0.648292 0.112605 0.0
0.681560 0.062374 0.0
0.720279 0.014469 0.0
0.761324 -0.027226 0.0
0.800929 -0.060801 0.0
0.837316 -0.085860 0.0
0.869890 -0.102817 0.0
0.898551 -0.112521 0.0
0.923411 -0.116078 0.0
0.944669 -0.114737 0.0
0.962569 -0.109777 0.0
0.977391 -0.102405 0.0
0.989442 -0.093672 0.0
0.999061 -0.084415 0.0
1.006600 -0.075246 0.0
1.012413 -0.066565 0.0
1.016834 -0.058594 0.0
1.020162 -0.051424 0.0
1.022653 -0.045061 0.0
1.024513 -0.039459 0.0
1.025905 -0.034549 0.0
1.026952 -0.030256 0.0
1.027744 -0.026505 0.0