# vtk DataFile Version 3.0
Vector Field
ASCII
DATASET RECTILINEAR_GRID
DIMENSIONS 100 26 1
X_COORDINATES 100 double
0.050000 0.150000 0.250000 0.350000 0.450000 0.550000 0.650000 0.750000 0.850000 0.950000 1.050000 1.150000 1.250000 1.350000 1.450000 1.550000 1.650000 1.750000 1.850000 1.950000 2.050000 2.150000 2.250000 2.350000 2.450000 2.550000 2.650000 2.750000 2.850000 2.950000 3.050000 3.150000 3.250000 3.350000 3.450000 3.550000 3.650000 3.750000 3.850000 3.950000 4.050000 4.150000 4.250000 4.350000 4.450000 4.550000 4.650000 4.750000 4.850000 4.950000 5.050000 5.150000 5.250000 5.350000 5.450000 5.550000 5.650000 5.750000 5.850000 5.950000 6.050000 6.150000 6.250000 6.350000 6.450000 6.550000 6.650000 6.750000 6.850000 6.950000 7.050000 7.150000 7.250000 7.350000 7.450000 7.550000 7.650000 7.750000 7.850000 7.950000 8.050000 8.150000 8.250000 8.350000 8.450000 8.550000 8.650000 8.750000 8.850000 8.950000 9.050000 9.150000 9.250000 9.350000 9.450000 9.550000 9.650000 9.750000 9.850000 9.950000 
Y_COORDINATES 26 double
0.050000 0.150000 0.250000 0.350000 0.450000 0.550000 0.650000 0.750000 0.850000 0.950000 1.050000 1.150000 1.250000 1.350000 1.450000 1.550000 1.650000 1.750000 1.850000 1.950000 2.050000 2.150000 2.250000 2.350000 2.450000 2.550000 
Z_COORDINATES 1 double
0.0
POINT_DATA 2600
VECTORS Vektorfeld double
0.997776 0.002224 0.0
0.993469 0.002083 0.0
0.991036 0.000349 0.0
0.992733 -0.002045 0.0
0.999442 -0.004663 0.0
1.011295 -0.007190 0.0
1.027795 -0.009310 0.0
1.047799 -0.010693 0.0
1.069523 -0.011030 0.0
1.090663 -0.010110 0.0
1.108690 -0.007916 0.0
1.121255 -0.004649 0.0
1.126667 -0.000763 0.0
1.124091 0.003340 0.0
1.113251 0.007501 0.0
1.094310 0.011439 0.0
1.067969 0.014902 0.0
1.035383 0.017684 0.0
0.998045 0.019653 0.0
0.957638 0.020754 0.0
0.915876 0.021008 0.0
0.874374 0.020495 0.0
0.834558 0.019321 0.0
0.797632 0.017605 0.0
0.764555 0.015472 0.0
0.736027 0.013056 0.0
0.712460 0.010511 0.0
0.693952 0.007997 0.0
0.680296 0.005659 0.0
0.671033 0.003603 0.0
0.665552 0.001878 0.0
0.663232 0.000442 0.0
0.663526 -0.000736 0.0
0.665816 -0.001553 0.0
0.669439 -0.002070 0.0
0.673866 -0.002358 0.0
0.678704 -0.002481 0.0
0.683673 -0.002488 0.0
0.688580 -0.002418 0.0
0.693297 -0.002298 0.0
0.697741 -0.002147 0.0
0.701867 -0.001979 0.0
0.705650 -0.001805 0.0
0.709087 -0.001631 0.0
0.712182 -0.001464 0.0
0.714953 -0.001306 0.0
0.717420 -0.001160 0.0
0.719606 -0.001026 0.0
0.721536 -0.000905 0.0
0.723237 -0.000796 0.0
0.724731 -0.000699 0.0
0.726042 -0.000612 0.0
0.727190 -0.000536 0.0
0.728196 -0.000469 0.0
0.729075 -0.000410 0.0
0.729844 -0.000359 0.0
0.730517 -0.000314 0.0
0.731104 -0.000274 0.0
0.731618 -0.000240 0.0
0.732067 -0.000209 0.0
0.732459 -0.000183 0.0
0.732802 -0.000160 0.0
0.733102 -0.000140 0.0
0.733364 -0.000122 0.0
0.733594 -0.000107 0.0
0.733795 -0.000094 0.0
0.733971 -0.000082 0.0
0.734125 -0.000072 0.0
0.734260 -0.000063 0.0
0.734378 -0.000055 0.0
0.734482 -0.000049 0.0
0.734574 -0.000043 0.0
0.734654 -0.000038 0.0
0.734726 -0.000033 0.0
0.734789 -0.000030 0.0
0.734845 -0.000027 0.0
0.734896 -0.000024 0.0
0.734942 -0.000022 0.0
0.734985 -0.000021 0.0
0.735025 -0.000020 0.0
0.735064 -0.000019 0.0
0.735102 -0.000019 0.0
0.735141 -0.000020 0.0
0.735182 -0.000021 0.0
0.735227 -0.000024 0.0
0.735279 -0.000027 0.0
0.735338 -0.000032 0.0
0.735410 -0.000039 0.0
0.735497 -0.000048 0.0
0.735606 -0.000061 0.0
0.735744 -0.000077 0.0
0.735920 -0.000100 0.0
0.736150 -0.000130 0.0
0.736455 -0.000174 0.0
0.736866 -0.000237 0.0
0.737434 -0.000332 0.0
0.738248 -0.000482 0.0
0.739470 -0.000739 0.0
0.741454 -0.001246 0.0
0.744437 -0.001737 0.0
1.003072 0.001376 0.0
1.012066 -0.001756 0.0
1.026230 -0.007544 0.0
1.044995 -0.014614 0.0
1.068319 -0.022128 0.0
1.096076 -0.029335 0.0
1.127808 -0.035398 0.0
1.162573 -0.039375 0.0
1.198852 -0.040352 0.0
1.234582 -0.037660 0.0
1.267430 -0.031241 0.0
1.295208 -0.021668 0.0
1.316016 -0.009964 0.0
1.328334 0.002800 0.0
1.331409 0.015806 0.0
1.325331 0.028152 0.0
1.310787 0.039076 0.0
1.288911 0.047973 0.0
1.261170 0.054443 0.0
1.229217 0.058323 0.0
1.194740 0.059678 0.0
1.159322 0.058747 0.0
1.124335 0.055871 0.0
1.090891 0.051425 0.0
1.059839 0.045781 0.0
1.031794 0.039319 0.0
1.007175 0.032434 0.0
0.986228 0.025529 0.0
0.969038 0.018974 0.0
0.955527 0.013062 0.0
0.945464 0.007963 0.0
0.938436 0.003705 0.0
0.933877 0.000266 0.0
0.931358 -0.002326 0.0
0.930598 -0.004161 0.0
0.931286 -0.005382 0.0
0.933119 -0.006127 0.0
0.935817 -0.006509 0.0
0.939134 -0.006622 0.0
0.942860 -0.006536 0.0
0.946817 -0.006311 0.0
0.950865 -0.005988 0.0
0.954891 -0.005605 0.0
0.958810 -0.005187 0.0
0.962563 -0.004757 0.0
0.966106 -0.004328 0.0
0.969415 -0.003913 0.0
0.972476 -0.003520 0.0
0.975286 -0.003152 0.0
0.977849 -0.002812 0.0
0.980174 -0.002501 0.0
0.982273 -0.002220 0.0
0.984161 -0.001966 0.0
0.985854 -0.001738 0.0
0.987367 -0.001534 0.0
0.988717 -0.001353 0.0
0.989918 -0.001193 0.0
0.990986 -0.001050 0.0
0.991933 -0.000924 0.0
0.992772 -0.000813 0.0
0.993515 -0.000715 0.0
0.994172 -0.000628 0.0
0.994753 -0.000552 0.0
0.995266 -0.000485 0.0
0.995719 -0.000427 0.0
0.996119 -0.000375 0.0
0.996471 -0.000329 0.0
0.996782 -0.000290 0.0
0.997056 -0.000255 0.0
0.997298 -0.000224 0.0
0.997511 -0.000197 0.0
0.997700 -0.000174 0.0
0.997866 -0.000153 0.0
0.998012 -0.000136 0.0
0.998142 -0.000120 0.0
0.998257 -0.000107 0.0
0.998359 -0.000096 0.0
0.998450 -0.000087 0.0
0.998531 -0.000080 0.0
0.998605 -0.000074 0.0
0.998672 -0.000070 0.0
0.998734 -0.000068 0.0
0.998792 -0.000068 0.0
0.998848 -0.000070 0.0
0.998904 -0.000075 0.0
0.998960 -0.000083 0.0
0.999019 -0.000095 0.0
0.999084 -0.000112 0.0
0.999157 -0.000135 0.0
0.999241 -0.000167 0.0
0.999342 -0.000209 0.0
0.999464 -0.000267 0.0
0.999616 -0.000345 0.0
0.999807 -0.000455 0.0
1.000051 -0.000610 0.0
1.000361 -0.000838 0.0
1.000755 -0.001184 0.0
1.001230 -0.001734 0.0
1.001689 -0.002694 0.0
1.002092 -0.003674 0.0
1.001985 -0.003680 0.0
1.009167 -0.012876 0.0
1.022412 -0.023832 0.0
1.041282 -0.035960 0.0
1.065716 -0.048539 0.0
1.095662 -0.060626 0.0
1.130781 -0.070959 0.0
1.170163 -0.077960 0.0
1.212092 -0.079975 0.0
1.253904 -0.075580 0.0
1.292430 -0.064696 0.0
1.324903 -0.048463 0.0
1.349445 -0.028519 0.0
1.365079 -0.006598 0.0
1.371516 0.015692 0.0
1.368981 0.036877 0.0
1.358146 0.055730 0.0
1.340061 0.071278 0.0
1.316072 0.082868 0.0
1.287700 0.090224 0.0
1.256505 0.093450 0.0
1.223938 0.092960 0.0
1.191228 0.089355 0.0
1.159314 0.083298 0.0
1.128857 0.075416 0.0
1.100310 0.066277 0.0
1.074000 0.056405 0.0
1.050203 0.046302 0.0
1.029155 0.036439 0.0
1.011042 0.027223 0.0
0.995956 0.018952 0.0
0.983882 0.011817 0.0
0.974705 0.005890 0.0
0.968182 0.001092 0.0
0.964014 -0.002651 0.0
0.961895 -0.005461 0.0
0.961489 -0.007474 0.0
0.962455 -0.008826 0.0
0.964472 -0.009639 0.0
0.967250 -0.010022 0.0
0.970539 -0.010071 0.0
0.974131 -0.009868 0.0
0.977862 -0.009482 0.0
0.981605 -0.008972 0.0
0.985264 -0.008383 0.0
0.988773 -0.007754 0.0
0.992088 -0.007112 0.0
0.995183 -0.006477 0.0
0.998043 -0.005865 0.0
1.000667 -0.005285 0.0
1.003057 -0.004744 0.0
1.005224 -0.004243 0.0
1.007179 -0.003785 0.0
1.008936 -0.003368 0.0
1.010510 -0.002992 0.0
1.011918 -0.002653 0.0
1.013172 -0.002349 0.0
1.014289 -0.002078 0.0
1.015282 -0.001836 0.0
1.016163 -0.001621 0.0
1.016943 -0.001430 0.0
1.017635 -0.001261 0.0
1.018247 -0.001112 0.0
1.018788 -0.000980 0.0
1.019266 -0.000863 0.0
1.019688 -0.000760 0.0
1.020061 -0.000669 0.0
1.020390 -0.000590 0.0
1.020680 -0.000519 0.0
1.020936 -0.000457 0.0
1.021162 -0.000403 0.0
1.021361 -0.000355 0.0
1.021537 -0.000314 0.0
1.021693 -0.000277 0.0
1.021830 -0.000246 0.0
1.021952 -0.000218 0.0
1.022059 -0.000195 0.0
1.022155 -0.000175 0.0
1.022241 -0.000159 0.0
1.022318 -0.000145 0.0
1.022387 -0.000135 0.0
1.022450 -0.000128 0.0
1.022509 -0.000125 0.0
1.022564 -0.000125 0.0
1.022618 -0.000129 0.0
1.022671 -0.000139 0.0
1.022725 -0.000154 0.0
1.022782 -0.000176 0.0
1.022843 -0.000207 0.0
1.022913 -0.000249 0.0
1.022993 -0.000307 0.0
1.023086 -0.000385 0.0
1.023197 -0.000490 0.0
1.023330 -0.000634 0.0
1.023487 -0.000832 0.0
1.023667 -0.001108 0.0
1.023860 -0.001500 0.0
1.024026 -0.002060 0.0
1.024057 -0.002858 0.0
1.023882 -0.003737 0.0
1.001614 -0.007279 0.0
1.007945 -0.022792 0.0
1.020436 -0.039651 0.0
1.039140 -0.057716 0.0
1.064362 -0.076440 0.0
1.096461 -0.094770 0.0
1.135531 -0.111005 0.0
1.180925 -0.122689 0.0
1.230826 -0.127075 0.0
1.281408 -0.120873 0.0
1.327675 -0.104197 0.0
1.365770 -0.079530 0.0
1.393595 -0.049819 0.0
1.410383 -0.017720 0.0
1.416288 0.014472 0.0
1.412008 0.044912 0.0
1.398549 0.071990 0.0
1.377255 0.094397 0.0
1.349739 0.111253 0.0
1.317755 0.122195 0.0
1.283040 0.127390 0.0
1.247170 0.127457 0.0
1.211440 0.123298 0.0
1.176804 0.115905 0.0
1.143889 0.106180 0.0
1.113084 0.094865 0.0
1.084660 0.082551 0.0
1.058857 0.069756 0.0
1.035920 0.056968 0.0
1.016076 0.044650 0.0
0.999482 0.033205 0.0
0.986180 0.022940 0.0
0.976085 0.014040 0.0
0.968983 0.006566 0.0
0.964548 0.000478 0.0
0.962387 -0.004310 0.0
0.962090 -0.007922 0.0
0.963254 -0.010509 0.0
0.965507 -0.012226 0.0
0.968522 -0.013228 0.0
0.972027 -0.013658 0.0
0.975801 -0.013647 0.0
0.979673 -0.013307 0.0
0.983517 -0.012734 0.0
0.987242 -0.012006 0.0
0.990787 -0.011186 0.0
0.994113 -0.010321 0.0
0.997200 -0.009448 0.0
1.000039 -0.008593 0.0
1.002632 -0.007773 0.0
1.004986 -0.007000 0.0
1.007113 -0.006280 0.0
1.009028 -0.005617 0.0
1.010745 -0.005011 0.0
1.012281 -0.004460 0.0
1.013652 -0.003963 0.0
1.014872 -0.003515 0.0
1.015958 -0.003114 0.0
1.016922 -0.002756 0.0
1.017777 -0.002437 0.0
1.018534 -0.002153 0.0
1.019205 -0.001901 0.0
1.019798 -0.001677 0.0
1.020322 -0.001480 0.0
1.020785 -0.001305 0.0
1.021194 -0.001150 0.0
1.021555 -0.001013 0.0
1.021873 -0.000893 0.0
1.022155 -0.000787 0.0
1.022402 -0.000694 0.0
1.022621 -0.000612 0.0
1.022814 -0.000539 0.0
1.022984 -0.000476 0.0
1.023135 -0.000421 0.0
1.023267 -0.000373 0.0
1.023385 -0.000331 0.0
1.023489 -0.000294 0.0
1.023581 -0.000264 0.0
1.023663 -0.000238 0.0
1.023736 -0.000216 0.0
1.023802 -0.000200 0.0
1.023862 -0.000187 0.0
1.023917 -0.000180 0.0
1.023968 -0.000177 0.0
1.024016 -0.000179 0.0
1.024063 -0.000188 0.0
1.024110 -0.000204 0.0
1.024157 -0.000229 0.0
1.024208 -0.000265 0.0
1.024262 -0.000314 0.0
1.024322 -0.000381 0.0
1.024389 -0.000471 0.0
1.024464 -0.000590 0.0
1.024548 -0.000750 0.0
1.024637 -0.000962 0.0
1.024725 -0.001246 0.0
1.024792 -0.001623 0.0
1.024805 -0.002116 0.0
1.024704 -0.002733 0.0
1.024445 -0.003428 0.0
1.001433 -0.010325 0.0
1.007229 -0.031874 0.0
1.019065 -0.054895 0.0
1.037473 -0.079584 0.0
1.063323 -0.105645 0.0
1.097712 -0.132053 0.0
1.141627 -0.156708 0.0
1.195187 -0.175939 0.0
1.257143 -0.185682 0.0
1.321282 -0.176987 0.0
1.378503 -0.151570 0.0
1.423574 -0.115323 0.0
1.454924 -0.073202 0.0
1.472541 -0.028742 0.0
1.477084 0.015046 0.0
1.469600 0.056103 0.0
1.451384 0.092474 0.0
1.424126 0.122466 0.0
1.389863 0.144963 0.0
1.350766 0.159566 0.0
1.308930 0.166570 0.0
1.266219 0.166858 0.0
1.224155 0.161690 0.0
1.183867 0.152437 0.0
1.146106 0.140325 0.0
1.111327 0.126303 0.0
1.079816 0.111048 0.0
1.051789 0.095090 0.0
1.027434 0.078926 0.0
1.006895 0.063075 0.0
0.990224 0.048045 0.0
0.977348 0.034278 0.0
0.968049 0.022096 0.0
0.961982 0.011679 0.0
0.958707 0.003075 0.0
0.957735 -0.003774 0.0
0.958575 -0.009001 0.0
0.960769 -0.012788 0.0
0.963913 -0.015345 0.0
0.967670 -0.016883 0.0
0.971769 -0.017607 0.0
0.975999 -0.017703 0.0
0.980207 -0.017332 0.0
0.984286 -0.016631 0.0
0.988162 -0.015710 0.0
0.991793 -0.014657 0.0
0.995155 -0.013538 0.0
0.998241 -0.012404 0.0
1.001054 -0.011289 0.0
1.003602 -0.010219 0.0
1.005901 -0.009208 0.0
1.007966 -0.008266 0.0
1.009817 -0.007397 0.0
1.011470 -0.006602 0.0
1.012944 -0.005879 0.0
1.014256 -0.005226 0.0
1.015422 -0.004638 0.0
1.016456 -0.004111 0.0
1.017374 -0.003640 0.0
1.018186 -0.003220 0.0
1.018905 -0.002846 0.0
1.019540 -0.002514 0.0
1.020102 -0.002219 0.0
1.020598 -0.001958 0.0
1.021037 -0.001727 0.0
1.021423 -0.001523 0.0
1.021765 -0.001343 0.0
1.022066 -0.001184 0.0
1.022331 -0.001043 0.0
1.022566 -0.000920 0.0
1.022772 -0.000811 0.0
1.022954 -0.000715 0.0
1.023115 -0.000631 0.0
1.023256 -0.000558 0.0
1.023381 -0.000493 0.0
1.023492 -0.000437 0.0
1.023589 -0.000389 0.0
1.023675 -0.000348 0.0
1.023752 -0.000312 0.0
1.023820 -0.000283 0.0
1.023881 -0.000260 0.0
1.023936 -0.000242 0.0
1.023985 -0.000229 0.0
1.024031 -0.000223 0.0
1.024072 -0.000223 0.0
1.024112 -0.000231 0.0
1.024150 -0.000247 0.0
1.024187 -0.000272 0.0
1.024224 -0.000310 0.0
1.024262 -0.000362 0.0
1.024301 -0.000433 0.0
1.024342 -0.000527 0.0
1.024382 -0.000650 0.0
1.024420 -0.000812 0.0
1.024451 -0.001020 0.0
1.024465 -0.001288 0.0
1.024445 -0.001627 0.0
1.024366 -0.002045 0.0
1.024197 -0.002533 0.0
1.023909 -0.003081 0.0
1.001252 -0.013010 0.0
1.006398 -0.040132 0.0
1.017177 -0.069251 0.0
1.034552 -0.101010 0.0
1.060073 -0.135590 0.0
1.095908 -0.172331 0.0
1.144630 -0.209068 0.0
1.208134 -0.240643 0.0
1.288047 -0.262848 0.0
1.372123 -0.248036 0.0
1.441712 -0.207331 0.0
1.492024 -0.154946 0.0
1.525006 -0.097911 0.0
1.542581 -0.039225 0.0
1.545576 0.017992 0.0
1.534676 0.071541 0.0
1.511067 0.118860 0.0
1.476788 0.157618 0.0
1.434447 0.186415 0.0
1.386770 0.204887 0.0
1.336286 0.213568 0.0
1.285175 0.213683 0.0
1.235211 0.206893 0.0
1.187752 0.194980 0.0
1.143760 0.179535 0.0
1.103866 0.161766 0.0
1.068465 0.142497 0.0
1.037797 0.122335 0.0
1.011992 0.101841 0.0
0.991065 0.081628 0.0
0.974888 0.062341 0.0
0.963174 0.044572 0.0
0.955489 0.028785 0.0
0.951284 0.015262 0.0
0.949947 0.004104 0.0
0.950856 -0.004740 0.0
0.953426 -0.011444 0.0
0.957141 -0.016254 0.0
0.961571 -0.019454 0.0
0.966376 -0.021335 0.0
0.971297 -0.022174 0.0
0.976150 -0.022219 0.0
0.980811 -0.021684 0.0
0.985200 -0.020746 0.0
0.989274 -0.019546 0.0
0.993015 -0.018193 0.0
0.996422 -0.016771 0.0
0.999504 -0.015340 0.0
1.002280 -0.013942 0.0
1.004770 -0.012605 0.0
1.006996 -0.011347 0.0
1.008981 -0.010178 0.0
1.010749 -0.009102 0.0
1.012320 -0.008120 0.0
1.013715 -0.007229 0.0
1.014952 -0.006425 0.0
1.016047 -0.005701 0.0
1.017016 -0.005053 0.0
1.017874 -0.004473 0.0
1.018632 -0.003957 0.0
1.019301 -0.003497 0.0
1.019893 -0.003089 0.0
1.020415 -0.002727 0.0
1.020876 -0.002407 0.0
1.021282 -0.002123 0.0
1.021641 -0.001872 0.0
1.021957 -0.001651 0.0
1.022235 -0.001455 0.0
1.022481 -0.001283 0.0
1.022698 -0.001131 0.0
1.022889 -0.000997 0.0
1.023057 -0.000879 0.0
1.023205 -0.000776 0.0
1.023336 -0.000685 0.0
1.023451 -0.000606 0.0
1.023552 -0.000537 0.0
1.023642 -0.000477 0.0
1.023721 -0.000425 0.0
1.023791 -0.000381 0.0
1.023852 -0.000344 0.0
1.023907 -0.000314 0.0
1.023955 -0.000290 0.0
1.023999 -0.000273 0.0
1.024037 -0.000263 0.0
1.024072 -0.000260 0.0
1.024103 -0.000265 0.0
1.024132 -0.000279 0.0
1.024158 -0.000303 0.0
1.024181 -0.000340 0.0
1.024202 -0.000391 0.0
1.024221 -0.000461 0.0
1.024235 -0.000553 0.0
1.024243 -0.000673 0.0
1.024241 -0.000826 0.0
1.024224 -0.001019 0.0
1.024181 -0.001260 0.0
1.024099 -0.001554 0.0
1.023961 -0.001901 0.0
1.023747 -0.002293 0.0
1.023442 -0.002729 0.0
1.000983 -0.015244 0.0
1.005084 -0.047145 0.0
1.013902 -0.081835 0.0
1.028708 -0.120606 0.0
1.051693 -0.164499 0.0
1.086310 -0.213875 0.0
1.137550 -0.267487 0.0
1.210960 -0.319137 0.0
1.317001 -0.370308 0.0
1.426483 -0.334135 0.0
1.500531 -0.264868 0.0
1.545004 -0.192194 0.0
1.572588 -0.121228 0.0
1.588624 -0.049519 0.0
1.591770 0.022145 0.0
1.579749 0.090309 0.0
1.552775 0.150674 0.0
1.513169 0.199689 0.0
1.464255 0.235599 0.0
1.409403 0.258232 0.0
1.351574 0.268536 0.0
1.293217 0.268184 0.0
1.236310 0.259263 0.0
1.182423 0.243957 0.0
1.132758 0.224217 0.0
1.088185 0.201550 0.0
1.049295 0.177005 0.0
1.016432 0.151359 0.0
0.989716 0.125337 0.0
0.969042 0.099731 0.0
0.954086 0.075371 0.0
0.944316 0.053025 0.0
0.939045 0.033289 0.0
0.937483 0.016525 0.0
0.938811 0.002849 0.0
0.942247 -0.007830 0.0
0.947094 -0.015771 0.0
0.952778 -0.021324 0.0
0.958843 -0.024879 0.0
0.964957 -0.026828 0.0
0.970889 -0.027534 0.0
0.976492 -0.027315 0.0
0.981683 -0.026440 0.0
0.986426 -0.025123 0.0
0.990717 -0.023533 0.0
0.994569 -0.021799 0.0
0.998010 -0.020013 0.0
1.001073 -0.018243 0.0
1.003791 -0.016532 0.0
1.006199 -0.014911 0.0
1.008329 -0.013397 0.0
1.010213 -0.011997 0.0
1.011876 -0.010715 0.0
1.013345 -0.009548 0.0
1.014642 -0.008493 0.0
1.015786 -0.007542 0.0
1.016796 -0.006688 0.0
1.017686 -0.005925 0.0
1.018471 -0.005244 0.0
1.019164 -0.004637 0.0
1.019774 -0.004098 0.0
1.020312 -0.003619 0.0
1.020787 -0.003194 0.0
1.021205 -0.002819 0.0
1.021573 -0.002486 0.0
1.021898 -0.002192 0.0
1.022184 -0.001933 0.0
1.022436 -0.001704 0.0
1.022658 -0.001502 0.0
1.022853 -0.001324 0.0
1.023026 -0.001167 0.0
1.023177 -0.001029 0.0
1.023311 -0.000908 0.0
1.023428 -0.000801 0.0
1.023532 -0.000708 0.0
1.023623 -0.000627 0.0
1.023703 -0.000556 0.0
1.023773 -0.000495 0.0
1.023835 -0.000443 0.0
1.023889 -0.000399 0.0
1.023937 -0.000362 0.0
1.023979 -0.000333 0.0
1.024015 -0.000311 0.0
1.024046 -0.000296 0.0
1.024073 -0.000289 0.0
1.024095 -0.000290 0.0
1.024114 -0.000301 0.0
1.024128 -0.000322 0.0
1.024138 -0.000355 0.0
1.024143 -0.000402 0.0
1.024142 -0.000467 0.0
1.024132 -0.000552 0.0
1.024112 -0.000661 0.0
1.024076 -0.000800 0.0
1.024019 -0.000971 0.0
1.023933 -0.001179 0.0
1.023807 -0.001427 0.0
1.023628 -0.001712 0.0
1.023386 -0.002027 0.0
1.023069 -0.002373 0.0
1.000579 -0.016806 0.0
1.003050 -0.052156 0.0
1.008582 -0.091175 0.0
1.018471 -0.135962 0.0
1.035175 -0.188831 0.0
1.063149 -0.252134 0.0
1.110234 -0.327552 0.0
1.188433 -0.410681 0.0
1.328685 -0.525057 0.0
1.458772 -0.418955 0.0
1.505976 -0.301299 0.0
1.516846 -0.211106 0.0
1.523990 -0.137044 0.0
1.536823 -0.062571 0.0
1.546798 0.022077 0.0
1.541984 0.107213 0.0
1.519656 0.183071 0.0
1.482560 0.243994 0.0
1.434804 0.287963 0.0
1.380253 0.315271 0.0
1.322099 0.327480 0.0
1.262906 0.326790 0.0
1.204770 0.315699 0.0
1.149443 0.296734 0.0
1.098391 0.272157 0.0
1.052808 0.243766 0.0
1.013583 0.212904 0.0
0.981263 0.180642 0.0
0.956031 0.148002 0.0
0.937712 0.116059 0.0
0.925813 0.085899 0.0
0.919589 0.058492 0.0
0.918115 0.034568 0.0
0.920378 0.014545 0.0
0.925357 -0.001478 0.0
0.932120 -0.013700 0.0
0.939879 -0.022509 0.0
0.948011 -0.028402 0.0
0.956059 -0.031915 0.0
0.963718 -0.033566 0.0
0.970809 -0.033819 0.0
0.977245 -0.033068 0.0
0.983003 -0.031636 0.0
0.988106 -0.029772 0.0
0.992598 -0.027666 0.0
0.996535 -0.025456 0.0
0.999978 -0.023240 0.0
1.002985 -0.021085 0.0
1.005612 -0.019034 0.0
1.007905 -0.017111 0.0
1.009910 -0.015332 0.0
1.011663 -0.013699 0.0
1.013198 -0.012212 0.0
1.014543 -0.010865 0.0
1.015721 -0.009651 0.0
1.016756 -0.008562 0.0
1.017664 -0.007586 0.0
1.018461 -0.006715 0.0
1.019162 -0.005939 0.0
1.019778 -0.005250 0.0
1.020319 -0.004637 0.0
1.020796 -0.004094 0.0
1.021215 -0.003613 0.0
1.021584 -0.003187 0.0
1.021908 -0.002811 0.0
1.022194 -0.002478 0.0
1.022445 -0.002185 0.0
1.022667 -0.001925 0.0
1.022861 -0.001697 0.0
1.023033 -0.001496 0.0
1.023183 -0.001318 0.0
1.023316 -0.001162 0.0
1.023433 -0.001025 0.0
1.023535 -0.000904 0.0
1.023625 -0.000799 0.0
1.023704 -0.000707 0.0
1.023774 -0.000626 0.0
1.023834 -0.000556 0.0
1.023887 -0.000496 0.0
1.023933 -0.000445 0.0
1.023973 -0.000402 0.0
1.024007 -0.000368 0.0
1.024036 -0.000340 0.0
1.024059 -0.000321 0.0
1.024078 -0.000309 0.0
1.024092 -0.000306 0.0
1.024100 -0.000312 0.0
1.024104 -0.000328 0.0
1.024101 -0.000355 0.0
1.024090 -0.000396 0.0
1.024071 -0.000452 0.0
1.024040 -0.000526 0.0
1.023995 -0.000621 0.0
1.023932 -0.000740 0.0
1.023844 -0.000886 0.0
1.023725 -0.001060 0.0
1.023567 -0.001262 0.0
1.023360 -0.001492 0.0
1.023098 -0.001742 0.0
1.022772 -0.002015 0.0
1.000031 -0.017416 0.0
1.000250 -0.054236 0.0
1.001043 -0.095420 0.0
1.003247 -0.143811 0.0
1.008703 -0.203142 0.0
1.021469 -0.278564 0.0
1.050609 -0.377346 0.0
1.115824 -0.504302 0.0
1.283826 -0.739689 0.0
1.398497 -0.449080 0.0
1.352298 -0.272180 0.0
1.287592 -0.186390 0.0
1.252079 -0.133392 0.0
1.257460 -0.084438 0.0
1.291256 0.000172 0.0
1.318327 0.106861 0.0
1.322228 0.201850 0.0
1.307834 0.276704 0.0
1.280625 0.330217 0.0
1.244506 0.363688 0.0
1.202364 0.379360 0.0
1.156635 0.379832 0.0
1.109574 0.367854 0.0
1.063329 0.346152 0.0
1.019904 0.317215 0.0
0.981059 0.283136 0.0
0.948176 0.245643 0.0
0.922143 0.206255 0.0
0.903317 0.166447 0.0
0.891549 0.127702 0.0
0.886260 0.091444 0.0
0.886546 0.058885 0.0
0.891298 0.030896 0.0
0.899314 0.007938 0.0
0.909435 -0.009971 0.0
0.920648 -0.023182 0.0
0.932124 -0.032262 0.0
0.943252 -0.037908 0.0
0.953630 -0.040835 0.0
0.963035 -0.041710 0.0
0.971380 -0.041110 0.0
0.978672 -0.039505 0.0
0.984979 -0.037265 0.0
0.990397 -0.034664 0.0
0.995033 -0.031902 0.0
0.998995 -0.029119 0.0
1.002381 -0.026407 0.0
1.005279 -0.023824 0.0
1.007765 -0.021406 0.0
1.009901 -0.019169 0.0
1.011742 -0.017120 0.0
1.013333 -0.015255 0.0
1.014710 -0.013568 0.0
1.015906 -0.012049 0.0
1.016946 -0.010686 0.0
1.017851 -0.009467 0.0
1.018642 -0.008379 0.0
1.019333 -0.007410 0.0
1.019937 -0.006549 0.0
1.020466 -0.005785 0.0
1.020930 -0.005107 0.0
1.021337 -0.004507 0.0
1.021694 -0.003976 0.0
1.022007 -0.003506 0.0
1.022282 -0.003091 0.0
1.022524 -0.002725 0.0
1.022737 -0.002402 0.0
1.022924 -0.002116 0.0
1.023088 -0.001865 0.0
1.023232 -0.001643 0.0
1.023359 -0.001448 0.0
1.023471 -0.001276 0.0
1.023569 -0.001125 0.0
1.023654 -0.000993 0.0
1.023730 -0.000876 0.0
1.023796 -0.000774 0.0
1.023853 -0.000685 0.0
1.023903 -0.000608 0.0
1.023946 -0.000541 0.0
1.023983 -0.000484 0.0
1.024015 -0.000435 0.0
1.024041 -0.000395 0.0
1.024061 -0.000363 0.0
1.024077 -0.000338 0.0
1.024088 -0.000322 0.0
1.024093 -0.000313 0.0
1.024092 -0.000313 0.0
1.024085 -0.000323 0.0
1.024070 -0.000343 0.0
1.024046 -0.000374 0.0
1.024011 -0.000420 0.0
1.023963 -0.000480 0.0
1.023898 -0.000558 0.0
1.023812 -0.000654 0.0
1.023700 -0.000772 0.0
1.023556 -0.000911 0.0
1.023375 -0.001071 0.0
1.023148 -0.001250 0.0
1.022872 -0.001444 0.0
1.022540 -0.001655 0.0
0.999391 -0.016839 0.0
0.996947 -0.052588 0.0
0.991975 -0.092888 0.0
0.984310 -0.140882 0.0
0.973921 -0.201139 0.0
0.961627 -0.281038 0.0
0.951417 -0.393800 0.0
0.958977 -0.560623 0.0
1.068719 -0.961111 0.0
1.063992 -0.220368 0.0
0.857008 -0.117163 0.0
0.699128 -0.105510 0.0
0.620281 -0.099910 0.0
0.618350 -0.121370 0.0
0.706195 -0.084537 0.0
0.822161 0.048533 0.0
0.902735 0.175703 0.0
0.949246 0.270734 0.0
0.973879 0.338763 0.0
0.981873 0.383267 0.0
0.976727 0.407069 0.0
0.961697 0.412882 0.0
0.940058 0.403503 0.0
0.915039 0.381768 0.0
0.889673 0.350390 0.0
0.866618 0.311860 0.0
0.847964 0.268455 0.0
0.835108 0.222333 0.0
0.828691 0.175612 0.0
0.828649 0.130346 0.0
0.834346 0.088393 0.0
0.844745 0.051251 0.0
0.858586 0.019936 0.0
0.874574 -0.005106 0.0
0.891523 -0.023998 0.0
0.908413 -0.037258 0.0
0.924448 -0.045698 0.0
0.939104 -0.050257 0.0
0.952106 -0.051867 0.0
0.963380 -0.051357 0.0
0.972988 -0.049416 0.0
0.981080 -0.046583 0.0
0.987841 -0.043255 0.0
0.993467 -0.039717 0.0
0.998142 -0.036161 0.0
1.002031 -0.032711 0.0
1.005273 -0.029444 0.0
1.007986 -0.026399 0.0
1.010267 -0.023597 0.0
1.012192 -0.021040 0.0
1.013824 -0.018722 0.0
1.015215 -0.016633 0.0
1.016404 -0.014756 0.0
1.017425 -0.013077 0.0
1.018303 -0.011577 0.0
1.019063 -0.010241 0.0
1.019720 -0.009053 0.0
1.020291 -0.007998 0.0
1.020787 -0.007062 0.0
1.021220 -0.006233 0.0
1.021597 -0.005500 0.0
1.021927 -0.004851 0.0
1.022216 -0.004277 0.0
1.022468 -0.003771 0.0
1.022690 -0.003324 0.0
1.022884 -0.002929 0.0
1.023054 -0.002581 0.0
1.023203 -0.002274 0.0
1.023334 -0.002003 0.0
1.023449 -0.001765 0.0
1.023550 -0.001555 0.0
1.023639 -0.001370 0.0
1.023716 -0.001207 0.0
1.023784 -0.001064 0.0
1.023844 -0.000939 0.0
1.023895 -0.000829 0.0
1.023940 -0.000733 0.0
1.023979 -0.000649 0.0
1.024011 -0.000576 0.0
1.024039 -0.000513 0.0
1.024062 -0.000459 0.0
1.024079 -0.000414 0.0
1.024092 -0.000377 0.0
1.024100 -0.000348 0.0
1.024103 -0.000326 0.0
1.024100 -0.000311 0.0
1.024091 -0.000305 0.0
1.024074 -0.000307 0.0
1.024049 -0.000318 0.0
1.024013 -0.000339 0.0
1.023965 -0.000372 0.0
1.023902 -0.000416 0.0
1.023821 -0.000475 0.0
1.023717 -0.000548 0.0
1.023587 -0.000636 0.0
1.023426 -0.000741 0.0
1.023227 -0.000861 0.0
1.022987 -0.000994 0.0
1.022700 -0.001138 0.0
1.022364 -0.001293 0.0
0.998770 -0.014999 0.0
0.993726 -0.046939 0.0
0.983053 -0.082892 0.0
0.965359 -0.125518 0.0
0.938016 -0.178772 0.0
0.896203 -0.249299 0.0
0.830576 -0.349702 0.0
0.723520 -0.505226 0.0
0.328393 -0.848359 0.0
-0.482092 0.320753 0.0
-0.482092 0.000000 0.0
-0.039276 -0.025741 0.0
-0.054792 -0.098850 0.0
0.019896 -0.195187 0.0
0.146785 -0.225455 0.0
0.313497 -0.093228 0.0
0.459973 0.090413 0.0
0.555292 0.214195 0.0
0.623709 0.302252 0.0
0.672058 0.363434 0.0
0.703292 0.400815 0.0
0.720622 0.416837 0.0
0.727638 0.414171 0.0
0.728068 0.395689 0.0
0.725545 0.364357 0.0
0.723311 0.323182 0.0
0.723913 0.275185 0.0
0.728981 0.223393 0.0
0.739187 0.170764 0.0
0.754399 0.120024 0.0
0.773928 0.073490 0.0
0.796758 0.032925 0.0
0.821718 -0.000539 0.0
0.847521 -0.026422 0.0
0.872832 -0.044942 0.0
0.896520 -0.056892 0.0
0.917840 -0.063419 0.0
0.936421 -0.065773 0.0
0.952199 -0.065131 0.0
0.965325 -0.062492 0.0
0.976080 -0.058645 0.0
0.984801 -0.054167 0.0
0.991831 -0.049462 0.0
0.997486 -0.044790 0.0
1.002037 -0.040314 0.0
1.005712 -0.036122 0.0
1.008693 -0.032257 0.0
1.011126 -0.028732 0.0
1.013124 -0.025542 0.0
1.014775 -0.022671 0.0
1.016149 -0.020098 0.0
1.017299 -0.017798 0.0
1.018266 -0.015748 0.0
1.019085 -0.013924 0.0
1.019781 -0.012304 0.0
1.020376 -0.010867 0.0
1.020885 -0.009594 0.0
1.021323 -0.008466 0.0
1.021702 -0.007469 0.0
1.022029 -0.006587 0.0
1.022312 -0.005808 0.0
1.022559 -0.005119 0.0
1.022774 -0.004512 0.0
1.022961 -0.003976 0.0
1.023124 -0.003503 0.0
1.023267 -0.003086 0.0
1.023392 -0.002718 0.0
1.023501 -0.002394 0.0
1.023597 -0.002109 0.0
1.023681 -0.001858 0.0
1.023754 -0.001636 0.0
1.023818 -0.001441 0.0
1.023874 -0.001270 0.0
1.023923 -0.001119 0.0
1.023965 -0.000986 0.0
1.024002 -0.000870 0.0
1.024033 -0.000768 0.0
1.024060 -0.000679 0.0
1.024082 -0.000601 0.0
1.024100 -0.000533 0.0
1.024113 -0.000475 0.0
1.024123 -0.000426 0.0
1.024128 -0.000384 0.0
1.024129 -0.000349 0.0
1.024124 -0.000322 0.0
1.024114 -0.000302 0.0
1.024097 -0.000288 0.0
1.024072 -0.000282 0.0
1.024038 -0.000284 0.0
1.023993 -0.000293 0.0
1.023934 -0.000311 0.0
1.023860 -0.000339 0.0
1.023766 -0.000377 0.0
1.023650 -0.000425 0.0
1.023506 -0.000485 0.0
1.023332 -0.000556 0.0
1.023121 -0.000637 0.0
1.022871 -0.000727 0.0
1.022578 -0.000825 0.0
1.022239 -0.000930 0.0
0.998300 -0.012069 0.0
0.991302 -0.037827 0.0
0.976386 -0.066416 0.0
0.951369 -0.099283 0.0
0.912029 -0.138324 0.0
0.850239 -0.186143 0.0
0.749218 -0.246209 0.0
0.569972 -0.322418 0.0
0.226948 -0.404116 0.0
0.000000 0.320753 0.0
-0.000000 -0.000000 0.0
0.000000 0.000000 0.0
-0.062089 -0.061305 0.0
-0.139463 -0.230830 0.0
-0.138536 -0.317628 0.0
-0.048520 -0.257783 0.0
0.096058 -0.036085 0.0
0.215560 0.125872 0.0
0.305356 0.232362 0.0
0.378695 0.311637 0.0
0.435495 0.364579 0.0
0.478208 0.393030 0.0
0.509865 0.399305 0.0
0.533930 0.386060 0.0
0.554039 0.356401 0.0
0.573476 0.313936 0.0
0.594673 0.262632 0.0
0.619020 0.206531 0.0
0.646999 0.149440 0.0
0.678532 0.094603 0.0
0.713304 0.044611 0.0
0.750551 0.001727 0.0
0.788581 -0.032331 0.0
0.825326 -0.057179 0.0
0.859247 -0.073417 0.0
0.889446 -0.082304 0.0
0.915518 -0.085398 0.0
0.937426 -0.084282 0.0
0.955401 -0.080375 0.0
0.969855 -0.074829 0.0
0.981294 -0.068503 0.0
0.990247 -0.061983 0.0
0.997208 -0.055637 0.0
1.002610 -0.049671 0.0
1.006808 -0.044183 0.0
1.010086 -0.039205 0.0
1.012662 -0.034730 0.0
1.014701 -0.030731 0.0
1.016328 -0.027169 0.0
1.017637 -0.024005 0.0
1.018698 -0.021199 0.0
1.019564 -0.018713 0.0
1.020277 -0.016514 0.0
1.020868 -0.014568 0.0
1.021361 -0.012849 0.0
1.021773 -0.011330 0.0
1.022121 -0.009989 0.0
1.022416 -0.008804 0.0
1.022667 -0.007760 0.0
1.022881 -0.006838 0.0
1.023065 -0.006024 0.0
1.023223 -0.005307 0.0
1.023359 -0.004675 0.0
1.023477 -0.004118 0.0
1.023579 -0.003627 0.0
1.023668 -0.003194 0.0
1.023745 -0.002813 0.0
1.023813 -0.002477 0.0
1.023871 -0.002181 0.0
1.023922 -0.001920 0.0
1.023967 -0.001691 0.0
1.024005 -0.001489 0.0
1.024039 -0.001311 0.0
1.024068 -0.001155 0.0
1.024093 -0.001017 0.0
1.024114 -0.000896 0.0
1.024131 -0.000790 0.0
1.024146 -0.000697 0.0
1.024157 -0.000616 0.0
1.024165 -0.000545 0.0
1.024169 -0.000483 0.0
1.024171 -0.000429 0.0
1.024168 -0.000383 0.0
1.024162 -0.000344 0.0
1.024151 -0.000311 0.0
1.024134 -0.000285 0.0
1.024110 -0.000264 0.0
1.024079 -0.000250 0.0
1.024038 -0.000241 0.0
1.023986 -0.000238 0.0
1.023919 -0.000242 0.0
1.023837 -0.000252 0.0
1.023735 -0.000268 0.0
1.023609 -0.000292 0.0
1.023457 -0.000323 0.0
1.023274 -0.000360 0.0
1.023055 -0.000404 0.0
1.022799 -0.000454 0.0
1.022502 -0.000508 0.0
1.022160 -0.000566 0.0
0.998077 -0.008446 0.0
0.990167 -0.026541 0.0
0.973388 -0.046007 0.0
0.945570 -0.066856 0.0
0.902822 -0.088663 0.0
0.838593 -0.109786 0.0
0.742341 -0.125292 0.0
0.599867 -0.121615 0.0
0.404423 -0.060316 0.0
0.146854 0.129184 0.0
0.000000 0.000000 0.0
-0.000000 -0.000000 0.0
0.000000 0.000000 0.0
-0.104583 -0.107772 0.0
-0.233437 -0.309569 0.0
-0.242431 -0.346863 0.0
-0.174154 -0.159860 0.0
-0.058796 0.014787 0.0
0.050535 0.144320 0.0
0.136032 0.240843 0.0
0.207232 0.307373 0.0
0.267206 0.347549 0.0
0.317468 0.362867 0.0
0.360675 0.355227 0.0
0.400122 0.327677 0.0
0.438841 0.284504 0.0
0.479049 0.230658 0.0
0.522202 0.171005 0.0
0.569263 0.109925 0.0
0.620916 0.050933 0.0
0.675665 -0.001241 0.0
0.729475 -0.043478 0.0
0.779168 -0.074848 0.0
0.823525 -0.095765 0.0
0.862221 -0.107448 0.0
0.895307 -0.111557 0.0
0.923029 -0.109938 0.0
0.945770 -0.104391 0.0
0.964028 -0.096499 0.0
0.978384 -0.087515 0.0
0.989464 -0.078336 0.0
0.997888 -0.069526 0.0
1.004225 -0.061392 0.0
1.008966 -0.054058 0.0
1.012509 -0.047538 0.0
1.015166 -0.041785 0.0
1.017168 -0.036729 0.0
1.018688 -0.032291 0.0
1.019850 -0.028397 0.0
1.020745 -0.024980 0.0
1.021440 -0.021979 0.0
1.021984 -0.019343 0.0
1.022411 -0.017025 0.0
1.022750 -0.014986 0.0
1.023019 -0.013193 0.0
1.023236 -0.011615 0.0