# vtk DataFile Version 3.0
Scalar Field
ASCII
DATASET RECTILINEAR_GRID
DIMENSIONS 100 26 1
X_COORDINATES 100 double
0.050000 0.150000 0.250000 0.350000 0.450000 0.550000 0.650000 0.750000 0.850000 0.950000 1.050000 1.150000 1.250000 1.350000 1.450000 1.550000 1.650000 1.750000 1.850000 1.950000 2.050000 2.150000 2.250000 2.350000 2.450000 2.550000 2.650000 2.750000 2.850000 2.950000 3.050000 3.150000 3.250000 3.350000 3.450000 3.550000 3.650000 3.750000 3.850000 3.950000 4.050000 4.150000 4.250000 4.350000 4.450000 4.550000 4.650000 4.750000 4.850000 4.950000 5.050000 5.150000 5.250000 5.350000 5.450000 5.550000 5.650000 5.750000 5.850000 5.950000 6.050000 6.150000 6.250000 6.350000 6.450000 6.550000 6.650000 6.750000 6.850000 6.950000 7.050000 7.150000 7.250000 7.350000 7.450000 7.550000 7.650000 7.750000 7.850000 7.950000 8.050000 8.150000 8.250000 8.350000 8.450000 8.550000 8.650000 8.750000 8.850000 8.950000 9.050000 9.150000 9.250000 9.350000 9.450000 9.550000 9.650000 9.750000 9.850000 9.950000 
Y_COORDINATES 26 double
0.050000 0.150000 0.250000 0.350000 0.450000 0.550000 0.650000 0.750000 0.850000 0.950000 1.050000 1.150000 1.250000 1.350000 1.450000 1.550000 1.650000 1.750000 1.850000 1.950000 2.050000 2.150000 2.250000 2.350000 2.450000 2.550000 
Z_COORDINATES 1 double
0.0
POINT_DATA 2600
SCALARS Skalarfeld double 1
LOOKUP_TABLE default
0.300879
0.285840
0.271324
0.254288
0.233614
0.208835
0.179870
0.147016
0.110981
0.072895
0.034210
-0.003535
-0.038989
-0.071157
-0.099460
-0.123694
-0.143960
-0.160196
-0.172433
-0.180828
-0.185470
-0.186449
-0.183934
-0.178242
-0.169866
-0.159464
-0.147786
-0.135581
-0.123493
-0.111977
-0.101239
-0.091224
-0.081649
-0.072080
-0.062038
-0.051094
-0.038962
-0.025166
-0.009092
0.007229
0.022428
0.035642
0.046314
0.054116
0.058963
0.060684
0.060244
0.057486
0.052170
0.044113
0.033236
0.019771
0.004636
-0.010274
-0.022471
-0.030180
-0.033523
-0.033654
-0.031801
-0.028702
-0.024305
-0.019124
-0.013762
-0.008660
-0.004138
-0.000400
0.002435
0.004276
0.005147
0.005107
0.004149
0.002446
0.000230
-0.002208
-0.004550
-0.006506
-0.007909
-0.008815
-0.009530
-0.010550
-0.012406
-0.015501
-0.019978
-0.025679
-0.032199
-0.039032
-0.045741
-0.052129
-0.057992
-0.063487
-0.068767
-0.073841
-0.078612
-0.083012
-0.087088
-0.090927
-0.094624
-0.098249
-0.101799
-0.105285
0.291607
0.285378
0.273847
0.258016
0.237742
0.212806
0.183165
0.149123
0.111470
0.071542
0.031109
-0.008017
-0.044355
-0.076927
-0.105251
-0.129225
-0.148919
-0.164677
-0.176823
-0.185283
-0.190084
-0.191237
-0.188830
-0.183114
-0.174556
-0.163816
-0.151673
-0.138916
-0.126231
-0.114106
-0.102777
-0.092207
-0.082125
-0.072102
-0.061656
-0.050273
-0.037241
-0.022440
-0.006830
0.008668
0.023115
0.035776
0.046093
0.053717
0.058616
0.061235
0.060740
0.057803
0.052259
0.043927
0.032677
0.018706
0.003013
-0.012241
-0.024307
-0.031447
-0.034009
-0.033944
-0.032503
-0.029683
-0.025062
-0.019688
-0.014185
-0.008956
-0.004317
-0.000472
0.002466
0.004507
0.005586
0.005480
0.004373
0.002546
0.000226
-0.002277
-0.004617
-0.006485
-0.007710
-0.008361
-0.008794
-0.009559
-0.011253
-0.014326
-0.018945
-0.024922
-0.031771
-0.038881
-0.045714
-0.051982
-0.057947
-0.063473
-0.068842
-0.074046
-0.078923
-0.083386
-0.087529
-0.091443
-0.095214
-0.098888
-0.102402
-0.105521
0.293851
0.289986
0.280376
0.265622
0.245680
0.220291
0.189281
0.152862
0.111919
0.068184
0.024168
-0.017693
-0.055672
-0.088874
-0.117081
-0.140521
-0.159645
-0.174980
-0.186909
-0.195734
-0.201141
-0.202942
-0.201007
-0.195410
-0.186519
-0.174983
-0.161622
-0.147301
-0.132788
-0.118661
-0.105241
-0.092585
-0.080514
-0.068686
-0.056679
-0.044050
-0.030409
-0.015727
-0.001216
0.012832
0.025810
0.037118
0.046223
0.052759
0.056631
0.058044
0.057113
0.053080
0.046811
0.038246
0.027363
0.014467
0.000552
-0.012604
-0.023056
-0.029780
-0.033118
-0.033960
-0.032604
-0.028936
-0.024351
-0.019411
-0.014154
-0.009046
-0.004497
-0.000731
0.002089
0.003896
0.004665
0.004473
0.003408
0.001659
-0.000407
-0.002459
-0.004223
-0.005508
-0.006254
-0.006609
-0.006956
-0.007785
-0.009611
-0.012823
-0.017574
-0.023681
-0.030630
-0.037808
-0.044705
-0.051070
-0.056972
-0.062873
-0.068658
-0.074217
-0.079337
-0.083947
-0.088333
-0.092539
-0.096651
-0.100689
-0.104453
-0.106640
0.303265
0.300183
0.291655
0.277698
0.257940
0.231772
0.198623
0.158390
0.111991
0.061774
0.011875
-0.034114
-0.074209
-0.107841
-0.135340
-0.157513
-0.175344
-0.189766
-0.201421
-0.210593
-0.216971
-0.219849
-0.218707
-0.213318
-0.203907
-0.191124
-0.175888
-0.159190
-0.141930
-0.124813
-0.108292
-0.092562
-0.077604
-0.063243
-0.049227
-0.035308
-0.021321
-0.007286
0.006333
0.019112
0.030632
0.040347
0.047707
0.052341
0.054164
0.053372
0.050296
0.045204
0.037774
0.028917
0.018764
0.007651
-0.003669
-0.014038
-0.022300
-0.027844
-0.030727
-0.031285
-0.029801
-0.026630
-0.022405
-0.017397
-0.012352
-0.007690
-0.003569
-0.000178
0.002234
0.003576
0.003842
0.003160
0.001776
0.000027
-0.001735
-0.003239
-0.004329
-0.004957
-0.005208
-0.005283
-0.005475
-0.006210
-0.007941
-0.011053
-0.015693
-0.021666
-0.028446
-0.035550
-0.042554
-0.049271
-0.055737
-0.062063
-0.068119
-0.073677
-0.078835
-0.083894
-0.088906
-0.093725
-0.098580
-0.103577
-0.108583
-0.113133
0.318367
0.315700
0.308012
0.294875
0.275422
0.248394
0.212408
0.166564
0.111527
0.050427
-0.008680
-0.060204
-0.102315
-0.135426
-0.160908
-0.180473
-0.195871
-0.208653
-0.219860
-0.229697
-0.237663
-0.242321
-0.242439
-0.237291
-0.226960
-0.212221
-0.194239
-0.174259
-0.153400
-0.132538
-0.112274
-0.092954
-0.074719
-0.057564
-0.041409
-0.026151
-0.011706
0.001966
0.014844
0.026725
0.037067
0.045262
0.050676
0.052957
0.052119
0.048469
0.042505
0.034878
0.026322
0.016992
0.007542
-0.001760
-0.010484
-0.018000
-0.023716
-0.027314
-0.028805
-0.028386
-0.026332
-0.022990
-0.018792
-0.014136
-0.009482
-0.005115
-0.001355
0.001530
0.003375
0.004110
0.003710
0.002352
0.000394
-0.001718
-0.003573
-0.004904
-0.005640
-0.005812
-0.005589
-0.005245
-0.005127
-0.005639
-0.007177
-0.010034
-0.014312
-0.019902
-0.026536
-0.033687
-0.040811
-0.047710
-0.054325
-0.060665
-0.066697
-0.072408
-0.077897
-0.083267
-0.088500
-0.094034
-0.100055
-0.106698
-0.114080
-0.124830
0.338376
0.336129
0.329488
0.317660
0.299179
0.271806
0.232674
0.179055
0.110401
0.030179
-0.042860
-0.100497
-0.142974
-0.173172
-0.194184
-0.208918
-0.220092
-0.230135
-0.240767
-0.252333
-0.263300
-0.271225
-0.273603
-0.268881
-0.257072
-0.239358
-0.217441
-0.193035
-0.167592
-0.142208
-0.117636
-0.094344
-0.072590
-0.052491
-0.034081
-0.017346
-0.002236
0.011334
0.023494
0.034664
0.044115
0.051038
0.054628
0.054618
0.051231
0.044899
0.036165
0.025725
0.014470
0.003741
-0.005423
-0.013278
-0.019760
-0.024643
-0.027769
-0.029092
-0.028711
-0.026830
-0.023724
-0.019719
-0.015176
-0.010454
-0.005895
-0.001791
0.001587
0.003993
0.005289
0.005303
0.004084
0.001848
-0.001004
-0.003952
-0.006456
-0.008029
-0.008828
-0.008823
-0.008229
-0.007399
-0.006760
-0.006757
-0.007800
-0.010195
-0.014077
-0.019370
-0.025776
-0.032797
-0.039979
-0.046956
-0.053499
-0.059616
-0.065359
-0.070825
-0.076166
-0.081560
-0.087210
-0.093437
-0.100528
-0.108922
-0.119170
-0.137043
0.362502
0.360850
0.355819
0.346340
0.330333
0.304275
0.262829
0.199283
0.108694
-0.007811
-0.100059
-0.160631
-0.198355
-0.221088
-0.233883
-0.240649
-0.245007
-0.250494
-0.260053
-0.274781
-0.292219
-0.306368
-0.312976
-0.309184
-0.295238
-0.273290
-0.246043
-0.215947
-0.184900
-0.154237
-0.124836
-0.097236
-0.071753
-0.048561
-0.027750
-0.009366
0.006580
0.020119
0.031370
0.040761
0.049290
0.055103
0.057062
0.055074
0.049809
0.041898
0.031796
0.019943
0.007021
-0.005921
-0.017310
-0.024695
-0.029921
-0.032887
-0.033857
-0.033072
-0.030788
-0.027288
-0.022883
-0.017904
-0.012688
-0.007559
-0.002814
0.001287
0.004506
0.006609
0.007376
0.006630
0.004383
0.000910
-0.003261
-0.007458
-0.011046
-0.013585
-0.014720
-0.014622
-0.013616
-0.012168
-0.010799
-0.010020
-0.010280
-0.011918
-0.015113
-0.019840
-0.025860
-0.032742
-0.039977
-0.046942
-0.053338
-0.059142
-0.064436
-0.069396
-0.074268
-0.079341
-0.084948
-0.091484
-0.099407
-0.109304
-0.121950
-0.145656
0.389634
0.388839
0.386244
0.380687
0.369711
0.348552
0.308425
0.234629
0.107058
-0.084259
-0.194488
-0.243329
-0.265759
-0.275110
-0.275914
-0.271730
-0.266427
-0.264610
-0.271076
-0.288963
-0.316786
-0.343798
-0.357924
-0.356076
-0.339481
-0.312228
-0.278604
-0.242012
-0.204821
-0.168557
-0.134159
-0.102185
-0.072956
-0.046656
-0.023402
-0.003293
0.013533
0.026880
0.036650
0.043126
0.047256
0.051278
0.051553
0.047807
0.041873
0.034434
0.025459
0.014818
0.002700
-0.010164
-0.022476
-0.032916
-0.038185
-0.040460
-0.040277
-0.038120
-0.034412
-0.029558
-0.023950
-0.017964
-0.011958
-0.006259
-0.001156
0.003096
0.006252
0.008045
0.008197
0.006498
0.002960
-0.002063
-0.007880
-0.013609
-0.018431
-0.021834
-0.023286
-0.022960
-0.021367
-0.019115
-0.016821
-0.015060
-0.014321
-0.014974
-0.017234
-0.021133
-0.026492
-0.032940
-0.039961
-0.046978
-0.053401
-0.058900
-0.063729
-0.068099
-0.072325
-0.076800
-0.081974
-0.088357
-0.096534
-0.107218
-0.121317
-0.148374
0.418177
0.418508
0.419218
0.419404
0.416906
0.406739
0.377309
0.301626
0.111962
-0.250650
-0.338740
-0.335958
-0.330959
-0.324991
-0.313768
-0.298840
-0.283222
-0.271994
-0.271954
-0.288977
-0.323959
-0.368391
-0.397818
-0.399898
-0.381150
-0.348910
-0.309474
-0.267191
-0.224758
-0.183776
-0.145185
-0.109538
-0.077167
-0.048281
-0.023041
-0.001647
0.015529
0.027850
0.034747
0.036749
0.035818
0.033119
0.030311
0.027018
0.023326
0.019113
0.013870
0.007022
-0.001723
-0.012097
-0.023183
-0.033592
-0.041724
-0.044894
-0.044811
-0.042412
-0.038186
-0.032652
-0.026306
-0.019609
-0.012982
-0.006799
-0.001383
0.002977
0.005991
0.007341
0.006695
0.003822
-0.001226
-0.007963
-0.015480
-0.022657
-0.028494
-0.032402
-0.033795
-0.032961
-0.030554
-0.027305
-0.023922
-0.021037
-0.019167
-0.018702
-0.019882
-0.022777
-0.027267
-0.033036
-0.039599
-0.046375
-0.052802
-0.058283
-0.062692
-0.066510
-0.070056
-0.073787
-0.078246
-0.084037
-0.091836
-0.102422
-0.116728
-0.144363
0.446043
0.447655
0.452214
0.459489
0.468630
0.476823
0.475049
0.432905
0.212947
-0.563215
-0.508278
-0.393664
-0.368114
-0.356742
-0.340498
-0.321476
-0.301469
-0.285012
-0.279964
-0.291910
-0.323685
-0.369441
-0.412218
-0.425173
-0.406098
-0.371333
-0.329099
-0.284291
-0.239610
-0.196568
-0.156072
-0.118717
-0.084928
-0.055062
-0.029516
-0.008890
0.005904
0.013970
0.015342
0.011766
0.006195
0.000807
-0.002400
-0.003121
-0.002631
-0.001895
-0.001864
-0.003429
-0.007227
-0.013413
-0.021497
-0.030358
-0.038472
-0.044353
-0.045659
-0.044178
-0.040478
-0.035156
-0.028794
-0.021947
-0.015124
-0.008779
-0.003307
0.000936
0.003598
0.004295
0.002656
-0.001545
-0.008168
-0.016549
-0.025549
-0.033842
-0.040309
-0.044320
-0.045259
-0.043619
-0.040164
-0.035735
-0.031127
-0.027020
-0.023955
-0.022323
-0.022370
-0.024188
-0.027697
-0.032630
-0.038546
-0.044878
-0.051032
-0.056513
-0.060703
-0.064068
-0.066979
-0.069923
-0.073488
-0.078336
-0.085182
-0.094813
-0.108112
-0.133912
0.470870
0.473681
0.481890
0.496106
0.517359
0.547018
0.586166
0.632116
0.719681
0.078233
-0.443608
-0.378938
-0.373205
-0.368308
-0.359649
-0.344208
-0.328290
-0.315128
-0.308262
-0.313651
-0.333947
-0.366823
-0.400031
-0.417211
-0.404622
-0.370315
-0.329221
-0.286205
-0.243490
-0.202272
-0.163372
-0.127464
-0.095168
-0.067140
-0.044202
-0.027452
-0.018040
-0.016342
-0.020948
-0.028622
-0.035780
-0.040207
-0.039793
-0.035927
-0.030167
-0.023865
-0.018210
-0.014233
-0.012744
-0.014176
-0.018417
-0.024716
-0.031777
-0.038073
-0.042239
-0.042370
-0.040025
-0.035750
-0.030139
-0.023805
-0.017344
-0.011299
-0.006153
-0.002345
-0.000305
-0.000477
-0.003263
-0.008850
-0.016978
-0.026798
-0.036972
-0.046034
-0.052789
-0.056550
-0.056716
-0.054007
-0.049293
-0.043524
-0.037582
-0.032195
-0.027916
-0.025129
-0.024065
-0.024818
-0.027328
-0.031364
-0.036525
-0.042270
-0.047998
-0.053165
-0.057389
-0.060314
-0.062639
-0.064793
-0.067360
-0.071006
-0.076441
-0.084412
-0.095714
-0.117879
0.490454
0.494108
0.504869
0.523871
0.553279
0.596868
0.661181
0.757109
0.888675
0.909578
0.000000
-0.375552
-0.372165
-0.373208
-0.373108
-0.371440
-0.367988
-0.362406
-0.358336
-0.357593
-0.362210
-0.370985
-0.380346
-0.381536
-0.370533
-0.343008
-0.306126
-0.268480
-0.231555
-0.195993
-0.162417
-0.131545
-0.104198
-0.081367
-0.064311
-0.054436
-0.052588
-0.057884
-0.067232
-0.076473
-0.082330
-0.081906
-0.075957
-0.066308
-0.054747
-0.042826
-0.031831
-0.022802
-0.016543
-0.013572
-0.014009
-0.017434
-0.022850
-0.028865
-0.034063
-0.036794
-0.036229
-0.033588
-0.029340
-0.024104
-0.018534
-0.013251
-0.008821
-0.005769
-0.004605
-0.005830
-0.009861
-0.016831
-0.026350
-0.037400
-0.048499
-0.058088
-0.064943
-0.068055
-0.067251
-0.063285
-0.057162
-0.049951
-0.042619
-0.035942
-0.030479
-0.026597
-0.024501
-0.024264
-0.025827
-0.028983
-0.033361
-0.038447
-0.043650
-0.048414
-0.052340
-0.054963
-0.056749
-0.058117
-0.059619
-0.061885
-0.065579
-0.071380
-0.079974
-0.097314
0.503245
0.507215
0.518878
0.539348
0.570580
0.615451
0.677223
0.757674
0.850863
0.930480
0.835387
0.000000
-0.375766
-0.379366
-0.388508
-0.401988
-0.416809
-0.429410
-0.433154
-0.423893
-0.405589
-0.383649
-0.361221
-0.337696
-0.314807
-0.289354
-0.260075
-0.229358
-0.200490
-0.173250
-0.147911
-0.125152
-0.105950
-0.091627
-0.083782
-0.083711
-0.091171
-0.103458
-0.116092
-0.124751
-0.126681
-0.119613
-0.107106
-0.091184
-0.073788
-0.056563
-0.040813
-0.027512
-0.017356
-0.010797
-0.008012
-0.008788
-0.012407
-0.017674
-0.023151
-0.027479
-0.029111
-0.028402
-0.025865
-0.022106
-0.017800
-0.013620
-0.010204
-0.008153
-0.008053
-0.010460
-0.015793
-0.024120
-0.034928
-0.047061
-0.058922
-0.068876
-0.075662
-0.077929
-0.075987
-0.070663
-0.063089
-0.054440
-0.045761
-0.037865
-0.031313
-0.026447
-0.023438
-0.022327
-0.023045
-0.025390
-0.029013
-0.033423
-0.038041
-0.042303
-0.045771
-0.048071
-0.049275
-0.049830
-0.050210
-0.050977
-0.052720
-0.056024
-0.061462
-0.073283
0.508666
0.512425
0.523387
0.542314
0.570480
0.609389
0.660085
0.720180
0.775448
0.789189
0.740293
0.616874
0.000000
-0.393100
-0.406834
-0.440457
-0.477788
-0.510395
-0.523385
-0.500822
-0.455346
-0.399675
-0.343572
-0.293124
-0.251051
-0.218686
-0.191459
-0.168880
-0.148630
-0.130815
-0.115336
-0.102904
-0.094699
-0.092312
-0.097289
-0.109958
-0.128154
-0.147272
-0.162086
-0.168962
-0.163869
-0.149943
-0.130839
-0.108926
-0.086251
-0.064468
-0.044813
-0.028148
-0.015025
-0.005762
-0.000484
0.000936
-0.000996
-0.005317
-0.010705
-0.015773
-0.019415
-0.020455
-0.019658
-0.017491
-0.014600
-0.011683
-0.009428
-0.008503
-0.009565
-0.013214
-0.019863
-0.029509
-0.041524
-0.054633
-0.067144
-0.077333
-0.083846
-0.085166
-0.082040
-0.075408
-0.066503
-0.056582
-0.046741
-0.037813
-0.030352
-0.024670
-0.020902
-0.019056
-0.019045
-0.020668
-0.023591
-0.027340
-0.031347
-0.035039
-0.037948
-0.039786
-0.040367
-0.040065
-0.039276
-0.038474
-0.038152
-0.038791
-0.040840
-0.046807
0.507117
0.510324
0.519591
0.535280
0.557790
0.587136
0.621872
0.656630
0.677964
0.660743
0.587429
0.493454
0.317425
0.000000
-0.455405
-0.503976
-0.543995
-0.591249
-0.601179
-0.560611
-0.490052
-0.406048
-0.321617
-0.246152
-0.185845
-0.141970
-0.110615
-0.090384
-0.078443
-0.069759
-0.064604
-0.064076
-0.069524
-0.082370
-0.103231
-0.130529
-0.159845
-0.185078
-0.200762
-0.203522
-0.190721
-0.170382
-0.145533
-0.118727
-0.092009
-0.066923
-0.044556
-0.025606
-0.010467
0.000682
0.007806
0.011010
0.010641
0.007420
0.002466
-0.002904
-0.007517
-0.010205
-0.010990
-0.010303
-0.008767
-0.007084
-0.005979
-0.006181
-0.008405
-0.013284
-0.021210
-0.032100
-0.045219
-0.059189
-0.072229
-0.082526
-0.088579
-0.088856
-0.084662
-0.076965
-0.067049
-0.056210
-0.045558
-0.035917
-0.027818
-0.021543
-0.017194
-0.014754
-0.014123
-0.015102
-0.017371
-0.020473
-0.023851
-0.026930
-0.029226
-0.030436
-0.030332
-0.029126
-0.027131
-0.024731
-0.022316
-0.020247
-0.018839
-0.018870
0.499617
0.502028
0.508892
0.520163
0.535526
0.553918
0.572605
0.585601
0.581688
0.543189
0.452100
0.299114
0.141396
-0.306906
-0.587294
-0.527318
-0.574769
-0.635091
-0.626703
-0.571153
-0.485823
-0.387054
-0.287990
-0.198495
-0.125176
-0.070864
-0.034135
-0.011702
-0.001281
0.000341
-0.003954
-0.015933
-0.036530
-0.066090
-0.103407
-0.144634
-0.183486
-0.213034
-0.227973
-0.222121
-0.204194
-0.179093
-0.150335
-0.120541
-0.091629
-0.064937
-0.041340
-0.021348
-0.005198
0.007058
0.015470
0.020150
0.021319
0.019455
0.015404
0.010312
0.005343
0.001574
-0.000379
-0.000872
-0.000463
0.000158
0.000242
-0.000987
-0.004289
-0.010311
-0.019404
-0.031398
-0.045453
-0.060103
-0.073500
-0.083826
-0.088840
-0.088356
-0.083447
-0.075139
-0.064732
-0.053506
-0.042538
-0.032614
-0.024223
-0.017616
-0.012870
-0.009960
-0.008785
-0.009161
-0.010786
-0.013226
-0.015936
-0.018345
-0.019960
-0.020452
-0.019586
-0.017427
-0.014214
-0.010233
-0.005767
-0.001051
0.003753
0.009565
0.487639
0.489159
0.493390
0.500001
0.508222
0.516438
0.521525
0.517899
0.496463
0.443710
0.341675
0.165720
-0.136631
-0.755208
-0.647270
-0.546029
-0.577236
-0.606563
-0.584147
-0.524769
-0.440438
-0.344027
-0.246588
-0.156791
-0.080925
-0.022439
0.019026
0.046413
0.061505
0.061736
0.050977
0.027932
-0.006410
-0.050425
-0.100810
-0.151862
-0.196200
-0.226877
-0.235728
-0.224437
-0.203027
-0.175644
-0.145601
-0.115308
-0.086421
-0.060019
-0.036756
-0.016974
-0.000793
0.011823
0.020990
0.026843
0.029531
0.029325
0.026761
0.022700
0.018177
0.014114
0.011480
0.010217
0.009821
0.009633
0.008899
0.006810
0.002582
-0.004421
-0.014490
-0.027359
-0.042092
-0.057144
-0.070599
-0.080488
-0.084520
-0.083671
-0.078562
-0.070259
-0.060024
-0.049062
-0.038363
-0.028640
-0.020330
-0.013649
-0.008670
-0.005376
-0.003688
-0.003451
-0.004393
-0.006107
-0.008072
-0.009729
-0.010583
-0.010287
-0.008590
-0.005455
-0.001042
0.004453
0.010857
0.018071
0.026098
0.037528
0.472833
0.473494
0.475224
0.477548
0.479497
0.479318
0.474040
0.458931
0.426952
0.368242
0.269526
0.113097
-0.124313
-0.426859
-0.492033
-0.496964
-0.515884
-0.517462
-0.494042
-0.444111
-0.374495
-0.294142
-0.211494
-0.133461
-0.065037
-0.008984
0.034239
0.065256
0.084384
0.093437
0.081164
0.052231
0.010180
-0.041442
-0.097602
-0.151398
-0.194907
-0.221019
-0.222166
-0.209448
-0.187882
-0.161464
-0.133157
-0.105006
-0.078345
-0.053997
-0.032439
-0.013912
0.001509
0.013873
0.023312
0.029979
0.034014
0.035572
0.034941
0.032650
0.029442
0.026058
0.023532
0.022034
0.021220
0.020524
0.019215
0.016483
0.011546
0.003803
-0.006961
-0.020388
-0.035464
-0.050591
-0.063883
-0.072853
-0.076387
-0.075537
-0.070818
-0.063218
-0.053874
-0.043847
-0.033997
-0.024931
-0.017027
-0.010481
-0.005377
-0.001733
0.000485
0.001390
0.001213
0.000325
-0.000784
-0.001578
-0.001574
-0.000423
0.002156
0.006266
0.011820
0.018710
0.026872
0.036346
0.047321
0.064026
0.456791
0.456697
0.456263
0.454983
0.451886
0.445345
0.432825
0.410619
0.373647
0.315429
0.228344
0.104941
-0.056598
-0.234500
-0.334033
-0.382634
-0.408906
-0.412011
-0.395752
-0.360075
-0.308858
-0.247984
-0.183528
-0.120761
-0.063647
-0.014622
0.025306
0.055851
0.079930
0.088349
0.078343
0.051226
0.010303
-0.039683
-0.092624
-0.141197
-0.177927
-0.192979
-0.192483
-0.181015
-0.162456
-0.140031
-0.116114
-0.092307
-0.069617
-0.048651
-0.029766
-0.013172
0.001022
0.012796
0.022213
0.029391
0.034468
0.037575
0.038884
0.038678
0.037410
0.035765
0.034335
0.033240
0.032471
0.031624
0.030040
0.026944
0.021588
0.013430
0.002331
-0.011273
-0.026305
-0.041107
-0.053707
-0.061686
-0.065464
-0.065217
-0.061551
-0.055348
-0.047557
-0.039043
-0.030497
-0.022414
-0.015118
-0.008806
-0.003602
0.000417
0.003222
0.004870
0.005547
0.005588
0.005448
0.005625
0.006578
0.008649
0.012144
0.017197
0.023793
0.031908
0.041579
0.052985
0.066513
0.088018
0.440913
0.440194
0.437997
0.433866
0.426956
0.415903
0.398710
0.372656
0.334326
0.279845
0.205530
0.109413
-0.005250
-0.124544
-0.213841
-0.271409
-0.304705
-0.316497
-0.310135
-0.287915
-0.252815
-0.208958
-0.160730
-0.112114
-0.066280
-0.025394
0.009356
0.037736
0.057831
0.065139
0.057803
0.036226
0.002839
-0.038096
-0.080731
-0.118199
-0.143328
-0.153912
-0.154035
-0.146018
-0.132545
-0.115954
-0.097991
-0.079815
-0.062122
-0.045305
-0.029614
-0.015251
-0.002407
0.008765
0.018182
0.025846
0.031828
0.036230
0.039188
0.040860
0.041853
0.042492
0.042527
0.042395
0.042179
0.041602
0.040106
0.036991
0.031579
0.023397
0.012371
-0.001010
-0.015656
-0.029878
-0.041264
-0.049215
-0.053536
-0.054421
-0.052403
-0.048161
-0.042399
-0.035746
-0.028719
-0.021714
-0.015032
-0.008904
-0.003524
0.000943
0.004401
0.006852
0.008438
0.009458
0.010333
0.011528
0.013467
0.016490
0.020893
0.026815
0.034316
0.043440
0.054309
0.067216
0.082742
0.108376
0.426358
0.425131
0.421529
0.415218
0.405539
0.391440
0.371443
0.343662
0.305927
0.256105
0.192710
0.115973
0.029534
-0.057957
-0.131710
-0.186245
-0.221857
-0.239822
-0.241935
-0.230403
-0.207786
-0.177185
-0.141877
-0.104922
-0.068885
-0.035695
-0.006662
0.017374
0.033900
0.040756
0.036649
0.021751
-0.002123
-0.031556
-0.061847
-0.087697
-0.105081
-0.114174
-0.115881
-0.111777
-0.103662
-0.093146
-0.081431
-0.069255
-0.056955
-0.044630
-0.032332
-0.020218
-0.008577
0.002243
0.011943
0.020326
0.027347
0.033015
0.037570
0.041310
0.044148
0.046234
0.047732
0.048831
0.049528
0.049578
0.048513
0.045736
0.040653
0.032851
0.022287
0.009491
-0.004556
-0.017800
-0.028913
-0.037180
-0.042439
-0.044906
-0.044948
-0.042969
-0.039382
-0.034590
-0.028964
-0.022841
-0.016553
-0.010403
-0.004693
0.000295
0.004440
0.007704
0.010179
0.012131
0.013952
0.016076
0.018910
0.022821
0.028013
0.034674
0.042906
0.052792
0.064489
0.078351
0.095096
0.123784
0.414070
0.412400
0.407639
0.399638
0.387962
0.371858
0.350284
0.321986
0.285657
0.240224
0.185306
0.121862
0.052947
-0.015886
-0.077106
-0.126048
-0.161059
-0.182112
-0.190023
-0.186199
-0.172711
-0.151957
-0.126460
-0.098626
-0.070554
-0.043947
-0.020122
-0.000271
0.013830
0.020827
0.019913
0.011237
-0.003893
-0.023036
-0.042953
-0.060324
-0.073112
-0.080656
-0.083375
-0.082276
-0.078580
-0.073396
-0.067499
-0.061209
-0.054417
-0.046750
-0.037886
-0.027837
-0.017028
-0.006098
0.004347
0.013807
0.022150
0.029396
0.035528
0.040614
0.044790
0.048196
0.050967
0.053195
0.054827
0.055631
0.055205
0.053042
0.048607
0.041507
0.031640
0.019427
0.005959
-0.007146
-0.018446
-0.027340
-0.033802
-0.038053
-0.040237
-0.040415
-0.038716
-0.035376
-0.030693
-0.024993
-0.018747
-0.012301
-0.006030
-0.000463
0.004338
0.008290
0.011495
0.014194
0.016748
0.019570
0.023061
0.027544
0.033288
0.040487
0.049248
0.059633
0.071760
0.085930
0.102820
0.132516
0.404875
0.402710
0.396841
0.387418
0.374239
0.356792
0.334360
0.306128
0.271346
0.229550
0.180885
0.126472
0.068739
0.011453
-0.040860
-0.084679
-0.118045
-0.140317
-0.151765
-0.153180
-0.146137
-0.132506
-0.114272
-0.093361
-0.071504
-0.050176
-0.030601
-0.013916
-0.001392
0.006009
0.007756
0.003966
-0.004461
-0.015885
-0.028218
-0.039792
-0.048661
-0.054406
-0.057298
-0.058077
-0.057662
-0.056865
-0.056150
-0.055466
-0.054187
-0.051279
-0.045775
-0.037405
-0.026823
-0.015170
-0.003393
0.007539
0.017377
0.026016
0.033463
0.039812
0.045191
0.049733
0.053546
0.056683
0.059092
0.060593
0.060863
0.059478
0.055882
0.049637
0.040150
0.027792
0.014076
0.000505
-0.011426
-0.021057
-0.028577
-0.034346
-0.038304
-0.040081
-0.039530
-0.036895
-0.032564
-0.026654
-0.020031
-0.013367
-0.006870
-0.000710
0.004690
0.009235
0.013013
0.016214
0.019182
0.022321
0.026042
0.030726
0.036695
0.044184
0.053284
0.063947
0.076141
0.089971
0.105785
0.132478
0.399697
0.396661
0.389417
0.378603
0.364184
0.345776
0.322854
0.294879
0.261434
0.222395
0.178137
0.129756
0.079205
0.029226
-0.017064
-0.056954
-0.088598
-0.111163
-0.124633
-0.129456
-0.126817
-0.118197
-0.105197
-0.089388
-0.072204
-0.054894
-0.038525
-0.024020
-0.012395
-0.004463
-0.000633
-0.000865
-0.004540
-0.010508
-0.017699
-0.024700
-0.030336
-0.034332
-0.036957
-0.038853
-0.040794
-0.043418
-0.046993
-0.051222
-0.055081
-0.056805
-0.054458
-0.047179
-0.036029
-0.022968
-0.010049
0.002411
0.013755
0.023762
0.032437
0.039890
0.046267
0.051701
0.056288
0.060067
0.063024
0.065085
0.065997
0.065484
0.062546
0.056379
0.046862
0.034099
0.019188
0.004193
-0.008759
-0.018800
-0.026542
-0.032884
-0.037803
-0.040425
-0.040090
-0.037014
-0.032552
-0.027058
-0.020509
-0.013468
-0.006582
-0.000137
0.005630
0.010571
0.014768
0.018231
0.021290
0.024374
0.027935
0.032430
0.038297
0.045868
0.055238
0.066097
0.078148
0.091234
0.105242
0.124514
0.400178
0.394707
0.385341
0.372992
0.357486
0.338346
0.315098
0.287353
0.254880
0.217724
0.176356
0.131799
0.085693
0.040201
-0.002271
-0.039509
-0.069738
-0.092315
-0.106892
-0.113805
-0.113982
-0.108647
-0.099140
-0.086789
-0.072815
-0.058294
-0.044160
-0.031224
-0.019916
-0.011379
-0.005932
-0.003681
-0.004175
-0.006631
-0.010482
-0.014475
-0.017971
-0.020788
-0.023188
-0.025744
-0.029121
-0.033829
-0.040021
-0.047332
-0.054714
-0.060152
-0.060669
-0.053681
-0.042076
-0.028448
-0.013978
-0.000132
0.012407
0.023422
0.032951
0.041138
0.048148
0.054112
0.059110
0.063163
0.066291
0.068669
0.069995
0.069388
0.066593
0.060880
0.051433
0.037979
0.021518
0.004658
-0.009510
-0.019526
-0.026327
-0.031640
-0.036034
-0.038730
-0.038796
-0.036487
-0.031952
-0.026151
-0.019582
-0.012653
-0.005815
0.000646
0.006618
0.011762
0.015957
0.019496
0.022613
0.025647
0.029033
0.033255
0.038834
0.046257
0.055750
0.066798
0.078728
0.091183
0.103789
0.117726
0.410790
0.396485
0.384024
0.370325
0.354007
0.334367
0.310923
0.283320
0.251394
0.215257
0.175393
0.132765
0.088845
0.045529
0.004897
-0.031141
-0.061199
-0.083919
-0.098948
-0.106716
-0.108061
-0.104093
-0.096042
-0.085135
-0.072512
-0.059189
-0.046063
-0.033936
-0.023555
-0.014787
-0.008473
-0.005054
-0.004524
-0.006292
-0.008977
-0.011916
-0.014612
-0.016929
-0.019116
-0.021693
-0.025258
-0.030255
-0.036767
-0.044364
-0.051983
-0.057807
-0.059416
-0.055248
-0.044067
-0.029439
-0.014267
0.000069
0.012979
0.024293
0.034070
0.042459
0.049623
0.055684
0.060703
0.064675
0.067560
0.069220
0.069811
0.069021
0.066165
0.060531
0.051439
0.038634
0.022891
0.006372
-0.008103
-0.018803
-0.026043
-0.031167
-0.034940
-0.037137
-0.037299
-0.035131
-0.030899
-0.025295
-0.018899
-0.012166
-0.005502
0.000789
0.006429
0.011492
0.015833
0.019548
0.022867
0.026117
0.029709
0.034102
0.039767
0.047103
0.056202
0.066991
0.078817
0.091114
0.103684
0.117331
