# vtk DataFile Version 3.0
Scalar Field
ASCII
DATASET RECTILINEAR_GRID
DIMENSIONS 100 26 1
X_COORDINATES 100 double
0.050000 0.150000 0.250000 0.350000 0.450000 0.550000 0.650000 0.750000 0.850000 0.950000 1.050000 1.150000 1.250000 1.350000 1.450000 1.550000 1.650000 1.750000 1.850000 1.950000 2.050000 2.150000 2.250000 2.350000 2.450000 2.550000 2.650000 2.750000 2.850000 2.950000 3.050000 3.150000 3.250000 3.350000 3.450000 3.550000 3.650000 3.750000 3.850000 3.950000 4.050000 4.150000 4.250000 4.350000 4.450000 4.550000 4.650000 4.750000 4.850000 4.950000 5.050000 5.150000 5.250000 5.350000 5.450000 5.550000 5.650000 5.750000 5.850000 5.950000 6.050000 6.150000 6.250000 6.350000 6.450000 6.550000 6.650000 6.750000 6.850000 6.950000 7.050000 7.150000 7.250000 7.350000 7.450000 7.550000 7.650000 7.750000 7.850000 7.950000 8.050000 8.150000 8.250000 8.350000 8.450000 8.550000 8.650000 8.750000 8.850000 8.950000 9.050000 9.150000 9.250000 9.350000 9.450000 9.550000 9.650000 9.750000 9.850000 9.950000 
Y_COORDINATES 26 double
0.050000 0.150000 0.250000 0.350000 0.450000 0.550000 0.650000 0.750000 0.850000 0.950000 1.050000 1.150000 1.250000 1.350000 1.450000 1.550000 1.650000 1.750000 1.850000 1.950000 2.050000 2.150000 2.250000 2.350000 2.450000 2.550000 
Z_COORDINATES 1 double
0.0
POINT_DATA 2600
SCALARS Skalarfeld double 1
LOOKUP_TABLE default
0.262366
0.246973
0.231441
0.212751
0.189791
0.162111
0.129704
0.093009
0.052978
0.011107
-0.030690
-0.070369
-0.106118
-0.136626
-0.160799
-0.178042
-0.188510
-0.192683
-0.191287
-0.185199
-0.175362
-0.162723
-0.148174
-0.132529
-0.116513
-0.100769
-0.085866
-0.072295
-0.060440
-0.050537
-0.042634
-0.036538
-0.031908
-0.028400
-0.025800
-0.024097
-0.023467
-0.024177
-0.026457
-0.030357
-0.035634
-0.041703
-0.047656
-0.052345
-0.054498
-0.052984
-0.047625
-0.038128
-0.026914
-0.015707
-0.005356
0.003775
0.011579
0.018065
0.023291
0.027291
0.029858
0.031197
0.030988
0.029083
0.025569
0.020862
0.015686
0.010840
0.006814
0.003552
0.000616
-0.002388
-0.005491
-0.008381
-0.010562
-0.011785
-0.012010
-0.011416
-0.010294
-0.008800
-0.007009
-0.005042
-0.003032
-0.001091
0.000696
0.002259
0.003559
0.004584
0.005354
0.005907
0.006315
0.006636
0.006905
0.007187
0.007555
0.008071
0.008787
0.009740
0.010952
0.012425
0.014148
0.016094
0.018232
0.021028
0.253741
0.247154
0.234603
0.217064
0.194395
0.166402
0.133107
0.094953
0.052979
0.008892
-0.035046
-0.076477
-0.113380
-0.144232
-0.168322
-0.185411
-0.195439
-0.198934
-0.196674
-0.189585
-0.178666
-0.164915
-0.149278
-0.132621
-0.115716
-0.099253
-0.083845
-0.070029
-0.058214
-0.048638
-0.041357
-0.036052
-0.032242
-0.029452
-0.027397
-0.026048
-0.025597
-0.026352
-0.028587
-0.032394
-0.037562
-0.043522
-0.049377
-0.053955
-0.055862
-0.053659
-0.046589
-0.037263
-0.026479
-0.015600
-0.005469
0.003534
0.011286
0.017791
0.023101
0.027284
0.030459
0.031916
0.031769
0.029832
0.026184
0.021282
0.015942
0.011057
0.007114
0.003950
0.000987
-0.002232
-0.005656
-0.008778
-0.011097
-0.012374
-0.012545
-0.011849
-0.010700
-0.009204
-0.007359
-0.005326
-0.003261
-0.001268
0.000565
0.002166
0.003494
0.004539
0.005324
0.005905
0.006325
0.006613
0.006829
0.007057
0.007384
0.007869
0.008567
0.009516
0.010740
0.012244
0.014014
0.016028
0.018304
0.021781
0.257289
0.253052
0.242363
0.225792
0.203275
0.174550
0.139491
0.098435
0.052513
0.003848
-0.044488
-0.089441
-0.128698
-0.160835
-0.185214
-0.201848
-0.210788
-0.212668
-0.208369
-0.198914
-0.185414
-0.168995
-0.150747
-0.131687
-0.112737
-0.094731
-0.078427
-0.064496
-0.053436
-0.045449
-0.040306
-0.037610
-0.036343
-0.035641
-0.035035
-0.034438
-0.034074
-0.034327
-0.035570
-0.037994
-0.041495
-0.045608
-0.049522
-0.052149
-0.052288
-0.049035
-0.042305
-0.033031
-0.023267
-0.013559
-0.004393
0.003860
0.011058
0.017173
0.022213
0.026191
0.029099
0.030863
0.030968
0.029267
0.026125
0.021896
0.017189
0.012667
0.008656
0.005052
0.001484
-0.002282
-0.006072
-0.009361
-0.011602
-0.012525
-0.012524
-0.012045
-0.011078
-0.009722
-0.007807
-0.005717
-0.003626
-0.001596
0.000280
0.001915
0.003263
0.004314
0.005089
0.005629
0.005986
0.006216
0.006398
0.006599
0.006889
0.007355
0.008054
0.009033
0.010323
0.011939
0.013897
0.016200
0.018837
0.022783
0.268691
0.265211
0.255520
0.239591
0.217000
0.187100
0.149326
0.103665
0.051270
-0.005108
-0.060617
-0.110918
-0.153404
-0.186953
-0.211348
-0.226888
-0.233949
-0.233263
-0.225836
-0.212815
-0.195458
-0.175075
-0.152957
-0.130329
-0.108311
-0.087918
-0.070084
-0.055805
-0.045789
-0.040208
-0.038560
-0.039685
-0.042453
-0.045022
-0.046627
-0.047116
-0.046777
-0.046121
-0.045663
-0.045747
-0.046429
-0.047432
-0.048174
-0.047872
-0.045746
-0.041325
-0.034703
-0.026540
-0.017750
-0.009185
-0.001304
0.005799
0.012002
0.017259
0.021552
0.024863
0.027173
0.028436
0.028541
0.027505
0.025140
0.021677
0.017599
0.013441
0.009388
0.005506
0.001655
-0.002182
-0.005801
-0.008825
-0.010941
-0.012083
-0.012436
-0.012130
-0.011135
-0.009472
-0.007661
-0.005702
-0.003745
-0.001748
0.000122
0.001739
0.003059
0.004070
0.004792
0.005259
0.005527
0.005665
0.005754
0.005880
0.006125
0.006559
0.007255
0.008269
0.009644
0.011407
0.013570
0.016138
0.019114
0.023389
0.286518
0.283422
0.274475
0.259180
0.236575
0.205301
0.163904
0.111506
0.048969
-0.020240
-0.086914
-0.144499
-0.190576
-0.225051
-0.248581
-0.261975
-0.265991
-0.261538
-0.249683
-0.231701
-0.209041
-0.183247
-0.155874
-0.128403
-0.102185
-0.078412
-0.058164
-0.043092
-0.034322
-0.032127
-0.035614
-0.042761
-0.050878
-0.057836
-0.062098
-0.063616
-0.062910
-0.060776
-0.057984
-0.055092
-0.052357
-0.049724
-0.046883
-0.043392
-0.038839
-0.033035
-0.026122
-0.018530
-0.010809
-0.003436
0.003305
0.009229
0.014290
0.018463
0.021738
0.024095
0.025540
0.026118
0.025868
0.024803
0.022871
0.020136
0.016732
0.012913
0.008831
0.004898
0.001032
-0.002623
-0.005906
-0.008581
-0.010472
-0.011540
-0.011851
-0.011483
-0.010509
-0.009059
-0.007345
-0.005442
-0.003383
-0.001449
0.000294
0.001806
0.003027
0.003935
0.004555
0.004898
0.005032
0.005034
0.004992
0.004993
0.005125
0.005479
0.006136
0.007160
0.008602
0.010496
0.012857
0.015688
0.018979
0.023584
0.310045
0.307343
0.299354
0.285183
0.263201
0.230969
0.185409
0.123658
0.045262
-0.046327
-0.129881
-0.195885
-0.244366
-0.278053
-0.299093
-0.308718
-0.308337
-0.298747
-0.280944
-0.256334
-0.226621
-0.193669
-0.159377
-0.125562
-0.093856
-0.065616
-0.041895
-0.025271
-0.017855
-0.020215
-0.030947
-0.046774
-0.063158
-0.075653
-0.082720
-0.084784
-0.082883
-0.078380
-0.072485
-0.066050
-0.059546
-0.053117
-0.046679
-0.040043
-0.033047
-0.025666
-0.018056
-0.010509
-0.003359
0.003117
0.008744
0.013453
0.017375
0.020375
0.022546
0.023872
0.024387
0.024217
0.023520
0.022338
0.020585
0.018157
0.015026
0.011253
0.007295
0.003430
-0.000516
-0.003988
-0.006967
-0.009280
-0.010830
-0.011609
-0.011670
-0.011099
-0.009998
-0.008495
-0.006731
-0.004818
-0.002863
-0.001017
0.000635
0.002038
0.003154
0.003954
0.004420
0.004604
0.004555
0.004353
0.004098
0.003896
0.003852
0.004069
0.004637
0.005631
0.007112
0.009118
0.011671
0.014774
0.018406
0.023468
0.338535
0.336415
0.329985
0.318028
0.298212
0.266654
0.217547
0.143680
0.039837
-0.093968
-0.200844
-0.272053
-0.317810
-0.347031
-0.363443
-0.367696
-0.361930
-0.345965
-0.320652
-0.287601
-0.248887
-0.206816
-0.163757
-0.121987
-0.083536
-0.050013
-0.022345
-0.002761
0.003857
-0.003448
-0.022623
-0.049104
-0.076515
-0.097841
-0.108184
-0.110259
-0.106251
-0.098493
-0.088825
-0.078452
-0.068041
-0.057876
-0.048013
-0.038415
-0.029056
-0.019994
-0.011384
-0.003442
0.003611
0.009599
0.014401
0.017943
0.020214
0.021635
0.022545
0.022791
0.022406
0.021503
0.020397
0.019204
0.017789
0.015900
0.013319
0.009979
0.006040
0.001590
-0.002456
-0.005866
-0.008799
-0.010906
-0.012166
-0.012617
-0.012344
-0.011457
-0.010086
-0.008369
-0.006442
-0.004432
-0.002453
-0.000618
0.000991
0.002313
0.003305
0.003945
0.004232
0.004203
0.003919
0.003465
0.002949
0.002492
0.002215
0.002238
0.002667
0.003591
0.005080
0.007181
0.009925
0.013318
0.017344
0.023037
0.370902
0.369652
0.365682
0.357639
0.342713
0.315561
0.266491
0.179478
0.032617
-0.187390
-0.316070
-0.375042
-0.405651
-0.425269
-0.436372
-0.436217
-0.425476
-0.402724
-0.368890
-0.326021
-0.276732
-0.223920
-0.170579
-0.119619
-0.073669
-0.034909
-0.005046
0.018567
0.025847
0.015133
-0.010451
-0.045302
-0.082379
-0.114167
-0.132510
-0.135014
-0.129000
-0.118116
-0.104928
-0.090990
-0.077126
-0.063714
-0.050892
-0.038710
-0.027221
-0.016525
-0.006775
0.001848
0.009166
0.015011
0.019207
0.021613
0.022262
0.021460
0.019562
0.017437
0.016058
0.014463
0.013280
0.012638
0.012218
0.011556
0.010241
0.008022
0.004863
0.000925
-0.003315
-0.007543
-0.010652
-0.012841
-0.014046
-0.014329
-0.013808
-0.012631
-0.010962
-0.008967
-0.006802
-0.004610
-0.002514
-0.000618
0.000996
0.002267
0.003158
0.003652
0.003756
0.003506
0.002965
0.002228
0.001412
0.000653
0.000093
-0.000129
0.000115
0.000931
0.002400
0.004581
0.007512
0.011214
0.015685
0.022157
0.405524
0.405453
0.404931
0.402840
0.396594
0.380430
0.341294
0.249354
0.029778
-0.384545
-0.487155
-0.485341
-0.483227
-0.490596
-0.501940
-0.504060
-0.491587
-0.463691
-0.422288
-0.370183
-0.310663
-0.247323
-0.183938
-0.124261
-0.071682
-0.028882
0.002248
0.020567
0.029184
0.017908
-0.007627
-0.042113
-0.079830
-0.114387
-0.139782
-0.149030
-0.143282
-0.131350
-0.116555
-0.100754
-0.084905
-0.069473
-0.054684
-0.040682
-0.027602
-0.015602
-0.004861
0.004432
0.012075
0.017796
0.021203
0.021917
0.019959
0.016031
0.011245
0.006686
0.002836
0.000948
0.000682
0.001558
0.002969
0.004278
0.004933
0.004542
0.002929
0.000148
-0.003497
-0.007558
-0.011427
-0.014230
-0.015673
-0.016080
-0.015555
-0.014267
-0.012417
-0.010206
-0.007825
-0.005440
-0.003194
-0.001201
0.000454
0.001709
0.002528
0.002897
0.002826
0.002353
0.001544
0.000498
-0.000654
-0.001758
-0.002649
-0.003160
-0.003141
-0.002464
-0.001036
0.001210
0.004326
0.008345
0.013275
0.020581
0.440217
0.441524
0.445137
0.450628
0.456744
0.459876
0.449321
0.390730
0.133162
-0.741750
-0.680300
-0.548039
-0.514664
-0.513180
-0.532738
-0.550129
-0.541519
-0.513446
-0.469554
-0.413207
-0.348242
-0.278970
-0.210150
-0.146770
-0.093339
-0.052362
-0.024153
-0.008307
-0.005763
-0.012603
-0.028905
-0.052412
-0.079881
-0.107061
-0.129193
-0.142282
-0.143051
-0.133098
-0.119551
-0.104456
-0.088843
-0.073255
-0.058028
-0.043430
-0.029723
-0.017174
-0.006057
0.003337
0.010645
0.015349
0.016814
0.014636
0.009159
0.001696
-0.005932
-0.012168
-0.016267
-0.017141
-0.015529
-0.012376
-0.008551
-0.004828
-0.001840
-0.000046
0.000290
-0.000875
-0.003355
-0.006747
-0.010471
-0.013876
-0.016274
-0.017101
-0.016876
-0.015754
-0.013952
-0.011702
-0.009230
-0.006736
-0.004389
-0.002322
-0.000635
0.000604
0.001355
0.001602
0.001354
0.000646
-0.000454
-0.001838
-0.003365
-0.004857
-0.006120
-0.006958
-0.007192
-0.006674
-0.005299
-0.003000
0.000296
0.004608
0.009953
0.017998
0.472440
0.475082
0.482758
0.495950
0.515437
0.542095
0.575962
0.611900
0.684636
-0.028557
-0.604369
-0.528437
-0.515168
-0.512814
-0.526725
-0.552208
-0.553793
-0.531553
-0.492841
-0.440831
-0.379798
-0.314793
-0.251413
-0.194971
-0.150090
-0.118188
-0.097023
-0.083763
-0.076910
-0.072552
-0.072826
-0.078198
-0.088021
-0.100490
-0.112765
-0.121749
-0.125250
-0.121930
-0.112002
-0.099961
-0.086788
-0.073039
-0.059128
-0.045453
-0.032427
-0.020479
-0.010045
-0.001608
0.004226
0.006687
0.005052
-0.000811
-0.009906
-0.020176
-0.029308
-0.035679
-0.038251
-0.036824
-0.032581
-0.026691
-0.020192
-0.013938
-0.008592
-0.004620
-0.002306
-0.001747
-0.002834
-0.005253
-0.008493
-0.011923
-0.014916
-0.016807
-0.017143
-0.016467
-0.014984
-0.012935
-0.010571
-0.008125
-0.005798
-0.003748
-0.002094
-0.000918
-0.000272
-0.000180
-0.000639
-0.001618
-0.003049
-0.004816
-0.006762
-0.008684
-0.010355
-0.011544
-0.012044
-0.011691
-0.010377
-0.008036
-0.004579
-0.000042
0.005592
0.014120
0.499735
0.503377
0.514081
0.532952
0.562128
0.605368
0.669285
0.765280
0.900990
0.938352
0.000000
-0.521061
-0.513684
-0.506516
-0.510849
-0.521225
-0.525757
-0.510992
-0.480502
-0.438560
-0.389948
-0.340224
-0.295034
-0.259122
-0.232914
-0.213900
-0.197837
-0.183338
-0.164004
-0.143961
-0.125741
-0.111195
-0.101415
-0.096570
-0.095730
-0.097029
-0.098324
-0.097926
-0.094372
-0.086759
-0.077567
-0.067256
-0.056225
-0.044954
-0.033996
-0.023944
-0.015427
-0.009154
-0.005988
-0.006860
-0.012355
-0.022047
-0.034162
-0.046065
-0.055300
-0.060410
-0.060194
-0.055719
-0.048378
-0.039515
-0.030279
-0.021567
-0.014031
-0.008101
-0.004025
-0.001895
-0.001642
-0.003021
-0.005603
-0.008812
-0.012010
-0.014622
-0.015987
-0.015959
-0.015037
-0.013426
-0.011389
-0.009184
-0.007038
-0.005139
-0.003628
-0.002607
-0.002144
-0.002276
-0.003011
-0.004323
-0.006145
-0.008353
-0.010768
-0.013158
-0.015260
-0.016809
-0.017575
-0.017387
-0.016149
-0.013759
-0.010213
-0.005590
0.000117
0.008735
0.520266
0.524375
0.536433
0.557603
0.589985
0.636777
0.701960
0.787106
0.884835
0.975715
0.896306
0.000000
-0.503436
-0.493188
-0.480428
-0.474437
-0.470114
-0.457585
-0.433963
-0.404567
-0.375099
-0.350882
-0.335315
-0.328350
-0.323328
-0.316549
-0.304084
-0.278126
-0.244543
-0.208048
-0.172258
-0.139883
-0.112850
-0.092337
-0.078656
-0.071106
-0.068076
-0.067494
-0.067378
-0.065585
-0.060985
-0.055031
-0.047943
-0.040200
-0.032448
-0.025417
-0.019920
-0.016904
-0.017446
-0.022494
-0.032259
-0.045595
-0.060037
-0.072639
-0.081027
-0.083893
-0.080179
-0.072248
-0.061630
-0.049790
-0.037936
-0.026976
-0.017520
-0.009937
-0.004409
-0.000980
0.000421
-0.000003
-0.001898
-0.004757
-0.007974
-0.010944
-0.013171
-0.014029
-0.013845
-0.012859
-0.011335
-0.009547
-0.007746
-0.006143
-0.004904
-0.004152
-0.003973
-0.004421
-0.005518
-0.007245
-0.009530
-0.012241
-0.015171
-0.018057
-0.020601
-0.022508
-0.023533
-0.023509
-0.022362
-0.019951
-0.016457
-0.011964
-0.006486
0.001710
0.533177
0.537197
0.548919
0.569163
0.599210
0.640545
0.694370
0.760491
0.827597
0.852196
0.816897
0.704027
0.000000
-0.467872
-0.442556
-0.421372
-0.407299
-0.390028
-0.370009
-0.353229
-0.345379
-0.350005
-0.366151
-0.389464
-0.407043
-0.411463
-0.390157
-0.351379
-0.303756
-0.252539
-0.202138
-0.155826
-0.115849
-0.083615
-0.059815
-0.044392
-0.036400
-0.034035
-0.034980
-0.036968
-0.037461
-0.036126
-0.033412
-0.029768
-0.025897
-0.022645
-0.021009
-0.022156
-0.027291
-0.037183
-0.051468
-0.068258
-0.084564
-0.097340
-0.104507
-0.103736
-0.096586
-0.085269
-0.071572
-0.057058
-0.042954
-0.030130
-0.019135
-0.010256
-0.003599
0.000851
0.003191
0.003602
0.002377
-0.000055
-0.003145
-0.006302
-0.008995
-0.010833
-0.011393
-0.011116
-0.010221
-0.008978
-0.007651
-0.006469
-0.005619
-0.005244
-0.005452
-0.006315
-0.007865
-0.010090
-0.012912
-0.016181
-0.019664
-0.023063
-0.026047
-0.028303
-0.029583
-0.029742
-0.028682
-0.026375
-0.023127
-0.019047
-0.014178
-0.007028
0.538629
0.542129
0.552245
0.569405
0.594228
0.627106
0.667070
0.709193
0.740681
0.734787
0.674379
0.591157
0.427873
0.000000
-0.405173
-0.367791
-0.352600
-0.328190
-0.307726
-0.300095
-0.310371
-0.339807
-0.385301
-0.434630
-0.469280
-0.475334
-0.443219
-0.394341
-0.335812
-0.273803
-0.213241
-0.157652
-0.109310
-0.069526
-0.038918
-0.017558
-0.004933
0.000205
-0.000144
-0.003583
-0.007961
-0.010920
-0.012378
-0.012827
-0.013042
-0.013985
-0.016827
-0.022895
-0.033351
-0.048567
-0.067483
-0.087536
-0.105370
-0.117892
-0.122968
-0.118527
-0.108159
-0.093935
-0.077772
-0.061254
-0.045560
-0.031478
-0.019466
-0.009723
-0.002279
0.002937
0.006049
0.007220
0.006685
0.004788
0.001999
-0.001138
-0.004093
-0.006470
-0.007816
-0.008262
-0.008030
-0.007391
-0.006610
-0.005930
-0.005553
-0.005642
-0.006323
-0.007684
-0.009768
-0.012564
-0.015983
-0.019852
-0.023908
-0.027821
-0.031234
-0.033825
-0.035361
-0.035731
-0.034727
-0.032747
-0.030012
-0.026691
-0.022867
-0.017488
0.537588
0.540347
0.548247
0.561339
0.579467
0.601842
0.626042
0.646376
0.651797
0.624421
0.546672
0.409520
0.264590
-0.147089
-0.397957
-0.343263
-0.316885
-0.280904
-0.254409
-0.252344
-0.277607
-0.327330
-0.392925
-0.457545
-0.499704
-0.494468
-0.458877
-0.404744
-0.340771
-0.273773
-0.208803
-0.149281
-0.097270
-0.053829
-0.019365
0.006090
0.022806
0.031485
0.033454
0.030654
0.025174
0.019009
0.014240
0.010201
0.006043
0.000725
-0.007022
-0.018527
-0.034688
-0.055296
-0.078594
-0.101490
-0.120424
-0.132514
-0.134036
-0.126707
-0.113904
-0.097761
-0.080185
-0.062683
-0.046322
-0.031773
-0.019386
-0.009279
-0.001415
0.004318
0.008061
0.009959
0.010187
0.008998
0.006759
0.003938
0.001030
-0.001550
-0.003486
-0.004528
-0.004899
-0.004844
-0.004621
-0.004471
-0.004609
-0.005213
-0.006424
-0.008344
-0.011021
-0.014437
-0.018487
-0.022973
-0.027598
-0.032004
-0.035819
-0.038726
-0.040529
-0.041027
-0.040298
-0.038844
-0.036909
-0.034711
-0.032387
-0.029569
0.531422
0.533325
0.538683
0.547246
0.558375
0.570641
0.581126
0.584440
0.571637
0.529405
0.440469
0.281498
0.003754
-0.558767
-0.452651
-0.343700
-0.289697
-0.245064
-0.221069
-0.227040
-0.261665
-0.319803
-0.390598
-0.456179
-0.488372
-0.477001
-0.439880
-0.385756
-0.322725
-0.257217
-0.193889
-0.135792
-0.084679
-0.041346
-0.005970
0.021585
0.041521
0.054103
0.059922
0.060127
0.056315
0.049833
0.043421
0.036768
0.029119
0.019540
0.006851
-0.010050
-0.031593
-0.056931
-0.083724
-0.108529
-0.127628
-0.137982
-0.136209
-0.127300
-0.113482
-0.096890
-0.079310
-0.062083
-0.046120
-0.031960
-0.019860
-0.009877
-0.001943
0.004072
0.008309
0.010895
0.011953
0.011649
0.010242
0.008096
0.005632
0.003228
0.001142
-0.000284
-0.001111
-0.001552
-0.001838
-0.002198
-0.002849
-0.003981
-0.005747
-0.008254
-0.011549
-0.015600
-0.020281
-0.025360
-0.030514
-0.035363
-0.039529
-0.042709
-0.044735
-0.045339
-0.045145
-0.044466
-0.043616
-0.042877
-0.042462
-0.042981
0.521712
0.522761
0.525629
0.529902
0.534709
0.538422
0.538208
0.529473
0.505319
0.456132
0.369261
0.228326
0.013322
-0.255459
-0.301698
-0.278878
-0.250147
-0.225215
-0.214705
-0.226132
-0.261289
-0.315576
-0.377032
-0.426794
-0.441563
-0.428694
-0.394350
-0.345684
-0.289363
-0.230786
-0.173896
-0.121302
-0.074514
-0.034219
-0.000538
0.026747
0.047973
0.063412
0.073214
0.077698
0.077762
0.074825
0.069662
0.061951
0.051765
0.038643
0.021757
0.000440
-0.025169
-0.053663
-0.082331
-0.107619
-0.125941
-0.132198
-0.129554
-0.120644
-0.107584
-0.092279
-0.076249
-0.060600
-0.046057
-0.033045
-0.021763
-0.012259
-0.004484
0.001661
0.006288
0.009500
0.011384
0.012046
0.011656
0.010479
0.008845
0.007045
0.005276
0.003898
0.002864
0.002085
0.001397
0.000598
-0.000522
-0.002157
-0.004463
-0.007545
-0.011440
-0.016094
-0.021352
-0.026953
-0.032549
-0.037750
-0.042191
-0.045613
-0.047622
-0.048679
-0.049190
-0.049492
-0.049946
-0.050901
-0.052668
-0.057135
0.510038
0.510319
0.510980
0.511560
0.511158
0.508229
0.500329
0.483840
0.453783
0.403837
0.326725
0.215660
0.070012
-0.086603
-0.166350
-0.193619
-0.198945
-0.198933
-0.204694
-0.222972
-0.255513
-0.298477
-0.341918
-0.369053
-0.376900
-0.364977
-0.336667
-0.296845
-0.250420
-0.201576
-0.153503
-0.108400
-0.067614
-0.031829
-0.001249
0.024236
0.044899
0.061041
0.072916
0.080721
0.085607
0.088898
0.086557
0.079518
0.068523
0.053598
0.034373
0.010721
-0.016658
-0.045937
-0.074248
-0.098182
-0.113036
-0.117538
-0.115448
-0.108345
-0.097911
-0.085605
-0.072559
-0.059590
-0.047248
-0.035881
-0.025690
-0.016777
-0.009175
-0.002874
0.002165
0.005990
0.008663
0.010255
0.010887
0.010757
0.010131
0.009246
0.008352
0.007331
0.006360
0.005463
0.004544
0.003434
0.001939
-0.000127
-0.002913
-0.006510
-0.010932
-0.016098
-0.021819
-0.027807
-0.033701
-0.039120
-0.043731
-0.047100
-0.049413
-0.051102
-0.052471
-0.053882
-0.055728
-0.058423
-0.062398
-0.071039
0.497825
0.497456
0.496280
0.493876
0.489442
0.481667
0.468608
0.447594
0.415250
0.367758
0.301535
0.214788
0.111038
0.004680
-0.071913
-0.118245
-0.145294
-0.163648
-0.181517
-0.204002
-0.232440
-0.264002
-0.291839
-0.308884
-0.313004
-0.303265
-0.281403
-0.250490
-0.213920
-0.174786
-0.135579
-0.098111
-0.063567
-0.032616
-0.005535
0.017681
0.037210
0.053324
0.066325
0.076644
0.085192
0.090127
0.090372
0.085750
0.076298
0.062046
0.043075
0.019829
-0.006512
-0.033861
-0.059398
-0.079579
-0.090950
-0.096179
-0.096429
-0.092935
-0.086794
-0.078882
-0.069870
-0.060281
-0.050527
-0.040939
-0.031789
-0.023301
-0.015652
-0.008964
-0.003316
0.001254
0.004777
0.007350
0.009091
0.010088
0.010461
0.010392
0.010030
0.009464
0.008784
0.008003
0.007050
0.005785
0.004039
0.001647
-0.001518
-0.005521
-0.010342
-0.015863
-0.021865
-0.028042
-0.034040
-0.039526
-0.043996
-0.047541
-0.050423
-0.052864
-0.055162
-0.057675
-0.060811
-0.065034
-0.070898
-0.083268
0.486276
0.485370
0.482705
0.477968
0.470530
0.459369
0.443032
0.419644
0.387031
0.343028
0.286097
0.216378
0.137358
0.057437
-0.009796
-0.060452
-0.097522
-0.126155
-0.151194
-0.175890
-0.201181
-0.225466
-0.245172
-0.257204
-0.259683
-0.252107
-0.235488
-0.211800
-0.183380
-0.152481
-0.121004
-0.090393
-0.061631
-0.035296
-0.011655
0.009255
0.027543
0.043395
0.057009
0.068982
0.078464
0.084730
0.086986
0.084748
0.077747
0.065895
0.049414
0.029050
0.006237
-0.016904
-0.037812
-0.053316
-0.064450
-0.071673
-0.075726
-0.077231
-0.076556
-0.073894
-0.069422
-0.063398
-0.056162
-0.048106
-0.039648
-0.031194
-0.023125
-0.015723
-0.009202
-0.003648
0.000921
0.004494
0.007120
0.008921
0.010027
0.010587
0.010743
0.010604
0.010235
0.009637
0.008734
0.007401
0.005488
0.002859
-0.000580
-0.004854
-0.009906
-0.015582
-0.021640
-0.027782
-0.033688
-0.038931
-0.043559
-0.047586
-0.051122
-0.054347
-0.057515
-0.060954
-0.065063
-0.070328
-0.077385
-0.092146
0.476389
0.475011
0.471102
0.464528
0.454869
0.441387
0.423042
0.398564
0.366600
0.325992
0.276211
0.217990
0.154039
0.089386
0.030621
-0.018901
-0.059324
-0.092669
-0.121357
-0.147183
-0.170730
-0.191209
-0.207078
-0.216437
-0.218262
-0.212400
-0.199598
-0.181250
-0.159047
-0.134668
-0.109563
-0.084840
-0.061242
-0.039181
-0.018809
-0.000113
0.017000
0.032615
0.046754
0.059388
0.069794
0.077424
0.081616
0.081815
0.077659
0.069055
0.056315
0.040284
0.022368
0.004395
-0.011776
-0.025669
-0.037475
-0.047553
-0.056240
-0.063493
-0.068844
-0.071689
-0.071679
-0.068880
-0.063664
-0.056571
-0.048252
-0.039319
-0.030453
-0.022020
-0.014505
-0.007961
-0.002472
0.001955
0.005369
0.007874
0.009600
0.010692
0.011285
0.011482
0.011337
0.010843
0.009936
0.008496
0.006401
0.003549
-0.000110
-0.004552
-0.009689
-0.015341
-0.021264
-0.027190
-0.032897
-0.038271
-0.043236
-0.047794
-0.051982
-0.055897
-0.059725
-0.063762
-0.068368
-0.074003
-0.081297
-0.096239
0.469044
0.467146
0.462054
0.453928
0.442570
0.427474
0.407904
0.383010
0.351968
0.314191
0.269622
0.219084
0.164578
0.109275
0.056887
0.009914
-0.030864
-0.065908
-0.096178
-0.122491
-0.145124
-0.163711
-0.177512
-0.185395
-0.186947
-0.182289
-0.172119
-0.157565
-0.139963
-0.120635
-0.100703
-0.080991
-0.061991
-0.043890
-0.026641
-0.010067
0.006017
0.021629
0.036419
0.049844
0.061446
0.070677
0.076927
0.079646
0.078459
0.073300
0.064544
0.053034
0.039955
0.026233
0.012681
-0.000313
-0.013128
-0.026214
-0.039664
-0.052815
-0.064230
-0.072297
-0.076092
-0.075669
-0.071636
-0.064742
-0.056012
-0.046025
-0.036285
-0.027089
-0.018578
-0.011094
-0.004764
0.000396
0.004451
0.007511
0.009717
0.011215
0.012136
0.012574
0.012560
0.012075
0.011068
0.009419
0.007046
0.003896
-0.000023
-0.004607
-0.009776
-0.015361
-0.021164
-0.026990
-0.032668
-0.038162
-0.043443
-0.048471
-0.053191
-0.057583
-0.061744
-0.065986
-0.070606
-0.075972
-0.082569
-0.095162
0.465214
0.462426
0.455904
0.446281
0.433526
0.417253
0.396901
0.371883
0.341690
0.306048
0.265104
0.219617
0.171083
0.121651
0.073723
0.029203
-0.010867
-0.046212
-0.076977
-0.103350
-0.125375
-0.142928
-0.155411
-0.162366
-0.163731
-0.159837
-0.151418
-0.139502
-0.125246
-0.109751
-0.093916
-0.078339
-0.063291
-0.048746
-0.034448
-0.019964
-0.004802
0.011201
0.026745
0.041427
0.054613
0.065663
0.073969
0.078999
0.080397
0.078133
0.072663
0.064854
0.055273
0.044279
0.032806
0.020546
0.006872
-0.008802
-0.026494
-0.045068
-0.062051
-0.074534
-0.080876
-0.081495
-0.077760
-0.070213
-0.060671
-0.050707
-0.040147
-0.029961
-0.020639
-0.012470
-0.005571
0.000065
0.004518
0.007915
0.010407
0.012144
0.013262
0.013845
0.013879
0.013310
0.012136
0.010167
0.007398
0.003834
-0.000471
-0.005416
-0.010763
-0.016327
-0.021972
-0.027614
-0.033186
-0.038665
-0.044066
-0.049349
-0.054394
-0.059045
-0.063180
-0.067321
-0.071633
-0.076405
-0.081909
-0.090131
0.466577
0.461341
0.452660
0.441443
0.427479
0.410329
0.389437
0.364370
0.334797
0.300601
0.262005
0.219680
0.174799
0.128958
0.083924
0.041255
0.002049
-0.033084
-0.063863
-0.090042
-0.111654
-0.128520
-0.140197
-0.146590
-0.147857
-0.144468
-0.137191
-0.127008
-0.114971
-0.102048
-0.088992
-0.076256
-0.063975
-0.052014
-0.040053
-0.027554
-0.013493
0.002382
0.018962
0.035266
0.050242
0.063073
0.073124
0.079888
0.083025
0.082527
0.079048
0.073352
0.065394
0.056400
0.046255
0.034470
0.020324
0.003170
-0.017074
-0.039196
-0.060153
-0.075818
-0.083396
-0.083242
-0.078798
-0.072098
-0.062820
-0.052071
-0.041021
-0.030443
-0.020814
-0.012395
-0.005291
0.000511
0.005094
0.008592
0.011156
0.012942
0.014096
0.014757
0.014816
0.014115
0.012525
0.010167
0.007006
0.003067
-0.001552
-0.006690
-0.012122
-0.017652
-0.023169
-0.028632
-0.034024
-0.039287
-0.044508
-0.049690
-0.054723
-0.059487
-0.063993
-0.067993
-0.071900
-0.076006
-0.080432
-0.085167
0.477629
0.463559
0.451772
0.439174
0.424387
0.406616
0.385398
0.360314
0.331099
0.297695
0.260335
0.219618
0.176546
0.132460
0.088861
0.047160
0.008465
-0.026491
-0.057323
-0.083905
-0.105715
-0.122366
-0.133796
-0.140037
-0.141333
-0.138200
-0.131407
-0.121902
-0.110680
-0.098649
-0.086504
-0.074652
-0.063196
-0.051977
-0.040669
-0.028855
-0.016150
-0.001657
0.015488
0.032937
0.049067
0.062869
0.073692
0.081072
0.084704
0.084530
0.080822
0.074530
0.067200
0.058814
0.049144
0.037683
0.023759
0.006829
-0.013094
-0.034872
-0.055793
-0.072083
-0.080928
-0.082529
-0.078417
-0.071184
-0.061959
-0.051444
-0.040572
-0.030106
-0.020543
-0.012162
-0.005077
0.000716
0.005293
0.008781
0.011327
0.013079
0.014163
0.014605
0.014489
0.013695
0.012090
0.009674
0.006458
0.002489
-0.002129
-0.007230
-0.012612
-0.018092
-0.023557
-0.028969
-0.034326
-0.039649
-0.044820
-0.049880
-0.054807
-0.059499
-0.063884
-0.067887
-0.071712
-0.075606
-0.079703
-0.083981
