# vtk DataFile Version 3.0
Vector Field
ASCII
DATASET RECTILINEAR_GRID
DIMENSIONS 100 26 1
X_COORDINATES 100 double
0.050000 0.150000 0.250000 0.350000 0.450000 0.550000 0.650000 0.750000 0.850000 0.950000 1.050000 1.150000 1.250000 1.350000 1.450000 1.550000 1.650000 1.750000 1.850000 1.950000 2.050000 2.150000 2.250000 2.350000 2.450000 2.550000 2.650000 2.750000 2.850000 2.950000 3.050000 3.150000 3.250000 3.350000 3.450000 3.550000 3.650000 3.750000 3.850000 3.950000 4.050000 4.150000 4.250000 4.350000 4.450000 4.550000 4.650000 4.750000 4.850000 4.950000 5.050000 5.150000 5.250000 5.350000 5.450000 5.550000 5.650000 5.750000 5.850000 5.950000 6.050000 6.150000 6.250000 6.350000 6.450000 6.550000 6.650000 6.750000 6.850000 6.950000 7.050000 7.150000 7.250000 7.350000 7.450000 7.550000 7.650000 7.750000 7.850000 7.950000 8.050000 8.150000 8.250000 8.350000 8.450000 8.550000 8.650000 8.750000 8.850000 8.950000 9.050000 9.150000 9.250000 9.350000 9.450000 9.550000 9.650000 9.750000 9.850000 9.950000 
Y_COORDINATES 26 double
0.050000 0.150000 0.250000 0.350000 0.450000 0.550000 0.650000 0.750000 0.850000 0.950000 1.050000 1.150000 1.250000 1.350000 1.450000 1.550000 1.650000 1.750000 1.850000 1.950000 2.050000 2.150000 2.250000 2.350000 2.450000 2.550000 
Z_COORDINATES 1 double
0.0
POINT_DATA 2600
VECTORS Vektorfeld double
0.997751 0.002249 0.0
0.993341 0.002162 0.0
0.990700 0.000479 0.0
0.992104 -0.001883 0.0
0.998495 -0.004508 0.0
1.010110 -0.007108 0.0
1.026620 -0.009402 0.0
1.047125 -0.011102 0.0
1.070167 -0.011941 0.0
1.093849 -0.011742 0.0
1.116077 -0.010486 0.0
1.134871 -0.008307 0.0
1.148604 -0.005426 0.0
1.156150 -0.002120 0.0
1.157071 0.001198 0.0
1.151334 0.004539 0.0
1.138981 0.007814 0.0
1.120281 0.010886 0.0
1.095772 0.013624 0.0
1.066243 0.015905 0.0
1.032714 0.017624 0.0
0.996387 0.018703 0.0
0.958590 0.019094 0.0
0.920708 0.018788 0.0
0.884104 0.017816 0.0
0.850035 0.016253 0.0
0.819564 0.014218 0.0
0.793475 0.011871 0.0
0.772197 0.009408 0.0
0.755736 0.007053 0.0
0.743636 0.005048 0.0
0.734958 0.003630 0.0
0.728326 0.003002 0.0
0.722034 0.003290 0.0
0.714243 0.004502 0.0
0.703224 0.006517 0.0
0.687601 0.009106 0.0
0.666508 0.011988 0.0
0.639645 0.014875 0.0
0.607268 0.017502 0.0
0.570122 0.019644 0.0
0.529369 0.021109 0.0
0.486529 0.021732 0.0
0.443473 0.021324 0.0
0.402584 0.019565 0.0
0.367072 0.015946 0.0
0.340965 0.010161 0.0
0.327729 0.003076 0.0
0.327108 -0.002455 0.0
0.334527 -0.004965 0.0
0.345485 -0.005993 0.0
0.357969 -0.006491 0.0
0.371044 -0.006585 0.0
0.383999 -0.006370 0.0
0.396297 -0.005927 0.0
0.407562 -0.005339 0.0
0.417582 -0.004681 0.0
0.426275 -0.004013 0.0
0.433669 -0.003381 0.0
0.439865 -0.002816 0.0
0.445016 -0.002335 0.0
0.449297 -0.001946 0.0
0.452888 -0.001645 0.0
0.455957 -0.001424 0.0
0.458651 -0.001270 0.0
0.461088 -0.001167 0.0
0.463356 -0.001101 0.0
0.465515 -0.001058 0.0
0.467599 -0.001026 0.0
0.469621 -0.000996 0.0
0.471578 -0.000961 0.0
0.473458 -0.000918 0.0
0.475242 -0.000866 0.0
0.476914 -0.000805 0.0
0.478456 -0.000737 0.0
0.479857 -0.000664 0.0
0.481111 -0.000590 0.0
0.482218 -0.000517 0.0
0.483182 -0.000447 0.0
0.484010 -0.000382 0.0
0.484715 -0.000323 0.0
0.485308 -0.000270 0.0
0.485803 -0.000225 0.0
0.486215 -0.000187 0.0
0.486557 -0.000155 0.0
0.486843 -0.000131 0.0
0.487086 -0.000112 0.0
0.487297 -0.000100 0.0
0.487490 -0.000093 0.0
0.487676 -0.000093 0.0
0.487867 -0.000099 0.0
0.488078 -0.000112 0.0
0.488324 -0.000134 0.0
0.488624 -0.000166 0.0
0.489002 -0.000212 0.0
0.489489 -0.000275 0.0
0.490123 -0.000359 0.0
0.490954 -0.000472 0.0
0.492037 -0.000611 0.0
0.493401 -0.000754 0.0
1.003044 0.001454 0.0
1.011917 -0.001507 0.0
1.025840 -0.007134 0.0
1.044261 -0.014094 0.0
1.067174 -0.021602 0.0
1.094526 -0.028981 0.0
1.125975 -0.035488 0.0
1.160756 -0.040301 0.0
1.197605 -0.042633 0.0
1.234799 -0.041926 0.0
1.270409 -0.038141 0.0
1.302679 -0.031716 0.0
1.330253 -0.023324 0.0
1.352160 -0.013675 0.0
1.367494 -0.003501 0.0
1.375647 0.006824 0.0
1.376580 0.016948 0.0
1.370575 0.026456 0.0
1.358191 0.034948 0.0
1.340249 0.042052 0.0
1.317805 0.047450 0.0
1.292107 0.050903 0.0
1.264530 0.052269 0.0
1.236504 0.051521 0.0
1.209436 0.048756 0.0
1.184614 0.044204 0.0
1.163126 0.038226 0.0
1.145768 0.031308 0.0
1.132975 0.024041 0.0
1.124762 0.017093 0.0
1.120689 0.011182 0.0
1.119841 0.007021 0.0
1.120859 0.005225 0.0
1.122036 0.006182 0.0
1.121495 0.009942 0.0
1.117450 0.016140 0.0
1.108469 0.024086 0.0
1.093645 0.032925 0.0
1.072653 0.041791 0.0
1.045723 0.049893 0.0
1.013572 0.056550 0.0
0.977341 0.061186 0.0
0.938546 0.063290 0.0
0.899033 0.062334 0.0
0.860830 0.057647 0.0
0.825637 0.048569 0.0
0.793904 0.035377 0.0
0.764490 0.020511 0.0
0.737364 0.007857 0.0
0.716194 -0.001526 0.0
0.704440 -0.008636 0.0
0.701416 -0.013308 0.0
0.704456 -0.015883 0.0
0.711421 -0.016992 0.0
0.720834 -0.017015 0.0
0.731600 -0.016283 0.0
0.742916 -0.015071 0.0
0.754194 -0.013594 0.0
0.765025 -0.012024 0.0
0.775153 -0.010496 0.0
0.784455 -0.009107 0.0
0.792916 -0.007917 0.0
0.800606 -0.006956 0.0
0.807650 -0.006227 0.0
0.814203 -0.005713 0.0
0.820423 -0.005381 0.0
0.826456 -0.005188 0.0
0.832415 -0.005089 0.0
0.838375 -0.005040 0.0
0.844373 -0.005002 0.0
0.850406 -0.004945 0.0
0.856442 -0.004850 0.0
0.862426 -0.004704 0.0
0.868293 -0.004505 0.0
0.873973 -0.004259 0.0
0.879402 -0.003972 0.0
0.884523 -0.003658 0.0
0.889296 -0.003328 0.0
0.893691 -0.002994 0.0
0.897695 -0.002667 0.0
0.901307 -0.002353 0.0
0.904535 -0.002061 0.0
0.907397 -0.001793 0.0
0.909918 -0.001552 0.0
0.912124 -0.001339 0.0
0.914046 -0.001155 0.0
0.915713 -0.000998 0.0
0.917155 -0.000868 0.0
0.918401 -0.000763 0.0
0.919477 -0.000684 0.0
0.920408 -0.000630 0.0
0.921217 -0.000601 0.0
0.921927 -0.000600 0.0
0.922557 -0.000630 0.0
0.923126 -0.000696 0.0
0.923655 -0.000806 0.0
0.924167 -0.000974 0.0
0.924695 -0.001216 0.0
0.925317 -0.001570 0.0
0.926115 -0.001958 0.0
1.001949 -0.003539 0.0
1.008978 -0.012418 0.0
1.021901 -0.023069 0.0
1.040281 -0.034958 0.0
1.064074 -0.047443 0.0
1.093274 -0.059691 0.0
1.127635 -0.070589 0.0
1.166409 -0.078755 0.0
1.208141 -0.082760 0.0
1.250571 -0.081423 0.0
1.291067 -0.074750 0.0
1.327413 -0.063723 0.0
1.358155 -0.049632 0.0
1.382498 -0.033617 0.0
1.400114 -0.016508 0.0
1.410910 0.000882 0.0
1.414959 0.017907 0.0
1.412557 0.033903 0.0
1.404211 0.048230 0.0
1.390648 0.060276 0.0
1.372801 0.069517 0.0
1.351772 0.075562 0.0
1.328775 0.078183 0.0
1.305069 0.077338 0.0
1.281893 0.073183 0.0
1.260406 0.066085 0.0
1.241625 0.056615 0.0
1.226374 0.045529 0.0
1.215253 0.033735 0.0
1.208611 0.022253 0.0
1.206514 0.012191 0.0
1.208663 0.004711 0.0
1.214286 0.000894 0.0
1.222070 0.001552 0.0
1.230266 0.006917 0.0
1.236977 0.016498 0.0
1.240523 0.029164 0.0
1.239705 0.043490 0.0
1.233866 0.058057 0.0
1.222846 0.071579 0.0
1.206903 0.082959 0.0
1.186637 0.091273 0.0
1.162906 0.095729 0.0
1.136693 0.095620 0.0
1.108881 0.090377 0.0
1.079966 0.079949 0.0
1.050141 0.065554 0.0
1.020103 0.049786 0.0
0.991279 0.034533 0.0
0.964255 0.019992 0.0
0.938792 0.007063 0.0
0.916147 -0.003337 0.0
0.898463 -0.011211 0.0
0.886365 -0.016531 0.0
0.879075 -0.019598 0.0
0.875544 -0.020935 0.0
0.874812 -0.021003 0.0
0.876044 -0.020172 0.0
0.878545 -0.018778 0.0
0.881782 -0.017108 0.0
0.885381 -0.015397 0.0
0.889114 -0.013821 0.0
0.892876 -0.012504 0.0
0.896665 -0.011512 0.0
0.900547 -0.010862 0.0
0.904622 -0.010527 0.0
0.908997 -0.010449 0.0
0.913758 -0.010548 0.0
0.918958 -0.010741 0.0
0.924606 -0.010946 0.0
0.930668 -0.011096 0.0
0.937073 -0.011141 0.0
0.943726 -0.011050 0.0
0.950514 -0.010814 0.0
0.957321 -0.010437 0.0
0.964037 -0.009938 0.0
0.970562 -0.009340 0.0
0.976814 -0.008671 0.0
0.982728 -0.007961 0.0
0.988258 -0.007234 0.0
0.993375 -0.006514 0.0
0.998066 -0.005819 0.0
1.002330 -0.005161 0.0
1.006178 -0.004551 0.0
1.009626 -0.003994 0.0
1.012698 -0.003493 0.0
1.015421 -0.003049 0.0
1.017824 -0.002661 0.0
1.019936 -0.002327 0.0
1.021786 -0.002046 0.0
1.023402 -0.001815 0.0
1.024809 -0.001633 0.0
1.026032 -0.001501 0.0
1.027092 -0.001419 0.0
1.028008 -0.001393 0.0
1.028798 -0.001429 0.0
1.029474 -0.001539 0.0
1.030042 -0.001747 0.0
1.030485 -0.002104 0.0
1.030793 -0.002529 0.0
1.001566 -0.007054 0.0
1.007693 -0.022059 0.0
1.019743 -0.038401 0.0
1.037746 -0.056009 0.0
1.061992 -0.074431 0.0
1.092844 -0.092755 0.0
1.130441 -0.109483 0.0
1.174262 -0.122455 0.0
1.222728 -0.129257 0.0
1.272523 -0.127150 0.0
1.319444 -0.116440 0.0
1.360451 -0.099386 0.0
1.394111 -0.078372 0.0
1.420015 -0.055125 0.0
1.438158 -0.030760 0.0
1.448657 -0.006162 0.0
1.451764 0.017795 0.0
1.447890 0.040291 0.0
1.437629 0.060449 0.0
1.421832 0.077416 0.0
1.401585 0.090470 0.0
1.378134 0.099089 0.0
1.352802 0.102985 0.0
1.326926 0.102119 0.0
1.301797 0.096707 0.0
1.278618 0.087226 0.0
1.258468 0.074404 0.0
1.242270 0.059188 0.0
1.230778 0.042690 0.0
1.224581 0.026138 0.0
1.224094 0.010890 0.0
1.229404 -0.001447 0.0
1.239876 -0.009044 0.0
1.253948 -0.010366 0.0
1.269388 -0.004801 0.0
1.283877 0.007016 0.0
1.295544 0.023434 0.0
1.303221 0.042362 0.0
1.306410 0.061834 0.0
1.305070 0.080162 0.0
1.299425 0.095964 0.0
1.289830 0.108130 0.0
1.276665 0.115769 0.0
1.260254 0.118203 0.0
1.240780 0.115080 0.0
1.218281 0.106658 0.0
1.192888 0.094063 0.0
1.165166 0.079036 0.0
1.136123 0.063150 0.0
1.106914 0.047607 0.0
1.078635 0.033190 0.0
1.051814 0.020002 0.0
1.026456 0.008491 0.0
1.003125 -0.000804 0.0
0.982941 -0.007851 0.0
0.966534 -0.012744 0.0
0.953756 -0.015684 0.0
0.944064 -0.017031 0.0
0.936857 -0.017213 0.0
0.931596 -0.016648 0.0
0.927839 -0.015699 0.0
0.925262 -0.014674 0.0
0.923663 -0.013814 0.0
0.922950 -0.013278 0.0
0.923109 -0.013137 0.0
0.924168 -0.013388 0.0
0.926167 -0.013962 0.0
0.929121 -0.014751 0.0
0.933010 -0.015627 0.0
0.937767 -0.016465 0.0
0.943284 -0.017156 0.0
0.949418 -0.017620 0.0
0.956008 -0.017812 0.0
0.962884 -0.017716 0.0
0.969886 -0.017344 0.0
0.976865 -0.016726 0.0
0.983695 -0.015907 0.0
0.990273 -0.014935 0.0
0.996521 -0.013860 0.0
1.002383 -0.012728 0.0
1.007825 -0.011580 0.0
1.012829 -0.010448 0.0
1.017392 -0.009359 0.0
1.021522 -0.008331 0.0
1.025236 -0.007377 0.0
1.028557 -0.006504 0.0
1.031510 -0.005716 0.0
1.034125 -0.005013 0.0
1.036430 -0.004393 0.0
1.038453 -0.003854 0.0
1.040223 -0.003392 0.0
1.041765 -0.003004 0.0
1.043101 -0.002689 0.0
1.044253 -0.002444 0.0
1.045238 -0.002270 0.0
1.046069 -0.002172 0.0
1.046752 -0.002155 0.0
1.047284 -0.002231 0.0
1.047641 -0.002419 0.0
1.047792 -0.002672 0.0
1.001372 -0.009993 0.0
1.006902 -0.030777 0.0
1.018154 -0.052985 0.0
1.035604 -0.076878 0.0
1.060059 -0.102262 0.0
1.092555 -0.128271 0.0
1.134040 -0.153050 0.0
1.184672 -0.173343 0.0
1.243280 -0.185444 0.0
1.304301 -0.181779 0.0
1.359899 -0.164330 0.0
1.405997 -0.138601 0.0
1.442025 -0.108845 0.0
1.468761 -0.077291 0.0
1.486911 -0.044887 0.0
1.496721 -0.012343 0.0
1.498318 0.019272 0.0
1.491985 0.049020 0.0
1.478279 0.075687 0.0
1.458175 0.098079 0.0
1.432996 0.115233 0.0
1.404270 0.126504 0.0
1.373600 0.131572 0.0
1.342581 0.130428 0.0
1.312741 0.123368 0.0
1.285499 0.110987 0.0
1.262125 0.094168 0.0
1.243704 0.074043 0.0
1.231120 0.051910 0.0
1.225111 0.029125 0.0
1.226370 0.007131 0.0
1.235254 -0.011882 0.0
1.251176 -0.025002 0.0
1.272262 -0.029565 0.0
1.295445 -0.024225 0.0
1.317139 -0.009744 0.0
1.334540 0.011126 0.0
1.346520 0.035012 0.0
1.353200 0.059314 0.0
1.355169 0.082053 0.0
1.353107 0.101780 0.0
1.347562 0.117454 0.0
1.338857 0.128316 0.0
1.327069 0.133855 0.0
1.312081 0.133891 0.0
1.293706 0.128721 0.0
1.271898 0.119202 0.0
1.246945 0.106572 0.0
1.219496 0.092108 0.0
1.190430 0.076924 0.0
1.160694 0.061887 0.0
1.131173 0.047647 0.0
1.102670 0.034707 0.0
1.075763 0.023217 0.0
1.050700 0.013374 0.0
1.027705 0.005434 0.0
1.007167 -0.000546 0.0
0.989421 -0.004731 0.0
0.974523 -0.007409 0.0
0.962264 -0.008931 0.0
0.952312 -0.009706 0.0
0.944360 -0.010138 0.0
0.938190 -0.010582 0.0
0.933681 -0.011288 0.0
0.930780 -0.012384 0.0
0.929463 -0.013883 0.0
0.929702 -0.015703 0.0
0.931439 -0.017700 0.0
0.934570 -0.019697 0.0
0.938937 -0.021520 0.0
0.944342 -0.023023 0.0
0.950559 -0.024104 0.0
0.957352 -0.024711 0.0
0.964492 -0.024835 0.0
0.971774 -0.024508 0.0
0.979017 -0.023785 0.0
0.986077 -0.022738 0.0
0.992841 -0.021446 0.0
0.999228 -0.019984 0.0
1.005185 -0.018423 0.0
1.010683 -0.016824 0.0
1.015709 -0.015235 0.0
1.020270 -0.013695 0.0
1.024379 -0.012233 0.0
1.028058 -0.010868 0.0
1.031336 -0.009611 0.0
1.034241 -0.008468 0.0
1.036806 -0.007440 0.0
1.039060 -0.006525 0.0
1.041034 -0.005719 0.0
1.042754 -0.005017 0.0
1.044247 -0.004414 0.0
1.045534 -0.003903 0.0
1.046635 -0.003482 0.0
1.047566 -0.003147 0.0
1.048337 -0.002897 0.0
1.048954 -0.002730 0.0
1.049413 -0.002648 0.0
1.049702 -0.002648 0.0
1.049802 -0.002695 0.0
1.001177 -0.012542 0.0
1.005994 -0.038574 0.0
1.016041 -0.066487 0.0
1.032188 -0.096972 0.0
1.055863 -0.130299 0.0
1.089087 -0.165953 0.0
1.134261 -0.202026 0.0
1.193168 -0.233907 0.0
1.267008 -0.257327 0.0
1.344497 -0.248405 0.0
1.409082 -0.217888 0.0
1.457108 -0.179169 0.0
1.491665 -0.138862 0.0
1.516432 -0.098777 0.0
1.533391 -0.058512 0.0
1.542568 -0.017705 0.0
1.543182 0.022424 0.0
1.534787 0.060597 0.0
1.517660 0.094944 0.0
1.492876 0.123709 0.0
1.462058 0.145600 0.0
1.427087 0.159835 0.0
1.389915 0.166083 0.0
1.352460 0.164390 0.0
1.316560 0.155146 0.0
1.283927 0.139083 0.0
1.256093 0.117279 0.0
1.234323 0.091122 0.0
1.219549 0.062189 0.0
1.212401 0.032004 0.0
1.213405 0.001987 0.0
1.223077 -0.025295 0.0
1.241346 -0.045780 0.0
1.266886 -0.055413 0.0
1.296960 -0.051634 0.0
1.327442 -0.034511 0.0
1.353376 -0.007442 0.0
1.371390 0.023586 0.0
1.381461 0.053990 0.0
1.385270 0.081598 0.0
1.384403 0.105164 0.0
1.379997 0.124020 0.0
1.372666 0.137785 0.0
1.362582 0.146259 0.0
1.349610 0.149446 0.0
1.333505 0.147645 0.0
1.314101 0.141490 0.0
1.291470 0.131868 0.0
1.265969 0.119762 0.0
1.238192 0.106113 0.0
1.208874 0.091751 0.0
1.178808 0.077371 0.0
1.148769 0.063526 0.0
1.119447 0.050627 0.0
1.091435 0.039039 0.0
1.065224 0.028976 0.0
1.041142 0.020531 0.0
1.019358 0.013723 0.0
0.999932 0.008459 0.0
0.982894 0.004498 0.0
0.968253 0.001458 0.0
0.955994 -0.001091 0.0
0.946081 -0.003546 0.0
0.938467 -0.006200 0.0
0.933106 -0.009210 0.0
0.929958 -0.012591 0.0
0.928954 -0.016230 0.0
0.929972 -0.019930 0.0
0.932826 -0.023452 0.0
0.937263 -0.026569 0.0
0.942984 -0.029099 0.0
0.949666 -0.030927 0.0
0.956992 -0.032007 0.0
0.964671 -0.032358 0.0
0.972447 -0.032043 0.0
0.980114 -0.031160 0.0
0.987512 -0.029820 0.0
0.994524 -0.028140 0.0
1.001075 -0.026228 0.0
1.007121 -0.024182 0.0
1.012643 -0.022084 0.0
1.017644 -0.020002 0.0
1.022140 -0.017985 0.0
1.026157 -0.016070 0.0
1.029727 -0.014281 0.0
1.032885 -0.012633 0.0
1.035667 -0.011133 0.0
1.038108 -0.009781 0.0
1.040242 -0.008573 0.0
1.042101 -0.007503 0.0
1.043713 -0.006565 0.0
1.045103 -0.005749 0.0
1.046294 -0.005046 0.0
1.047303 -0.004450 0.0
1.048147 -0.003953 0.0
1.048834 -0.003549 0.0
1.049371 -0.003231 0.0
1.049757 -0.002993 0.0
1.049987 -0.002822 0.0
1.050053 -0.002686 0.0
1.000897 -0.014615 0.0
1.004617 -0.045038 0.0
1.012582 -0.078037 0.0
1.025935 -0.114922 0.0
1.046686 -0.156777 0.0
1.078049 -0.204062 0.0
1.124686 -0.255729 0.0
1.191807 -0.306233 0.0
1.288400 -0.355434 0.0
1.387242 -0.326629 0.0
1.452808 -0.269815 0.0
1.490534 -0.212994 0.0
1.513230 -0.162289 0.0
1.529479 -0.116366 0.0
1.542939 -0.071341 0.0
1.552603 -0.023717 0.0
1.554851 0.025574 0.0
1.547039 0.073654 0.0
1.528782 0.117270 0.0
1.501225 0.153724 0.0
1.466326 0.181303 0.0
1.426316 0.199112 0.0
1.383455 0.206839 0.0
1.339945 0.204599 0.0
1.297911 0.192872 0.0
1.259371 0.172530 0.0
1.226136 0.144902 0.0
1.199627 0.111779 0.0
1.180642 0.075293 0.0
1.169077 0.037612 0.0
1.164041 0.000411 0.0
1.165532 -0.034882 0.0
1.174804 -0.063734 0.0
1.192971 -0.081163 0.0
1.220459 -0.083446 0.0
1.255963 -0.068685 0.0
1.294885 -0.038124 0.0
1.329047 0.002094 0.0
1.352534 0.041924 0.0
1.365989 0.076398 0.0
1.372364 0.104856 0.0
1.373691 0.127408 0.0
1.371118 0.144300 0.0
1.365158 0.155789 0.0
1.355911 0.162135 0.0
1.343289 0.163684 0.0
1.327208 0.160936 0.0
1.307720 0.154541 0.0
1.285075 0.145235 0.0
1.259717 0.133776 0.0
1.232239 0.120885 0.0
1.203322 0.107220 0.0
1.173683 0.093356 0.0
1.144015 0.079787 0.0
1.114960 0.066946 0.0
1.087069 0.055172 0.0
1.060772 0.044714 0.0
1.036381 0.035716 0.0
1.014110 0.028163 0.0
0.994098 0.021845 0.0
0.976440 0.016411 0.0
0.961221 0.011434 0.0
0.948543 0.006519 0.0
0.938521 0.001371 0.0
0.931251 -0.004151 0.0
0.926761 -0.010013 0.0
0.924994 -0.016036 0.0
0.925784 -0.021933 0.0
0.928859 -0.027378 0.0
0.933854 -0.032075 0.0
0.940346 -0.035807 0.0
0.947903 -0.038458 0.0
0.956113 -0.040012 0.0
0.964615 -0.040533 0.0
0.973111 -0.040140 0.0
0.981370 -0.038988 0.0
0.989222 -0.037242 0.0
0.996559 -0.035066 0.0
1.003314 -0.032607 0.0
1.009461 -0.029995 0.0
1.015001 -0.027334 0.0
1.019955 -0.024707 0.0
1.024355 -0.022176 0.0
1.028243 -0.019783 0.0
1.031662 -0.017557 0.0
1.034659 -0.015512 0.0
1.037276 -0.013653 0.0
1.039555 -0.011980 0.0
1.041533 -0.010485 0.0
1.043243 -0.009160 0.0
1.044716 -0.007993 0.0
1.045978 -0.006972 0.0
1.047050 -0.006085 0.0
1.047950 -0.005321 0.0
1.048692 -0.004668 0.0
1.049287 -0.004116 0.0
1.049741 -0.003655 0.0
1.050057 -0.003271 0.0
1.050234 -0.002952 0.0
1.050268 -0.002657 0.0
1.000488 -0.016000 0.0
1.002555 -0.049441 0.0
1.007181 -0.086225 0.0
1.015511 -0.128417 0.0
1.029787 -0.178309 0.0
1.054155 -0.238260 0.0
1.095998 -0.310011 0.0
1.166727 -0.389800 0.0
1.294460 -0.496192 0.0
1.411466 -0.401718 0.0
1.449610 -0.298436 0.0
1.450625 -0.223114 0.0
1.443533 -0.167773 0.0
1.440418 -0.124017 0.0
1.446247 -0.082979 0.0
1.459400 -0.034896 0.0
1.470367 0.023538 0.0
1.470475 0.083394 0.0
1.458060 0.138203 0.0
1.434425 0.183983 0.0
1.401737 0.218631 0.0
1.362333 0.241197 0.0
1.318518 0.251429 0.0
1.272544 0.249493 0.0
1.226651 0.235904 0.0
1.183046 0.211642 0.0
1.143718 0.178354 0.0
1.110041 0.138512 0.0
1.082289 0.095297 0.0
1.059269 0.052193 0.0
1.038189 0.011946 0.0
1.016791 -0.026510 0.0
0.998625 -0.063213 0.0
0.991458 -0.092685 0.0
1.001436 -0.109390 0.0
1.031224 -0.108032 0.0
1.079207 -0.085683 0.0
1.138968 -0.044270 0.0
1.197248 0.006521 0.0
1.242285 0.053310 0.0
1.273538 0.090316 0.0
1.294915 0.119243 0.0
1.308662 0.141290 0.0
1.316061 0.157359 0.0
1.317821 0.168052 0.0
1.314367 0.173843 0.0
1.306026 0.175200 0.0
1.293147 0.172644 0.0
1.276165 0.166758 0.0
1.255617 0.158158 0.0
1.232132 0.147466 0.0
1.206402 0.135286 0.0
1.179145 0.122187 0.0
1.151067 0.108702 0.0
1.122831 0.095323 0.0
1.095022 0.082494 0.0
1.068128 0.070581 0.0
1.042541 0.059826 0.0
1.018578 0.050286 0.0
0.996516 0.041796 0.0
0.976624 0.034010 0.0
0.959187 0.026490 0.0
0.944499 0.018827 0.0
0.932837 0.010746 0.0
0.924408 0.002174 0.0
0.919317 -0.006758 0.0
0.917532 -0.015740 0.0
0.918845 -0.024333 0.0
0.922866 -0.032074 0.0
0.929077 -0.038584 0.0
0.936906 -0.043619 0.0
0.945791 -0.047089 0.0
0.955234 -0.049034 0.0
0.964814 -0.049594 0.0
0.974206 -0.048967 0.0
0.983169 -0.047383 0.0
0.991542 -0.045074 0.0
0.999231 -0.042259 0.0
1.006193 -0.039131 0.0
1.012424 -0.035850 0.0
1.017951 -0.032545 0.0
1.022817 -0.029315 0.0
1.027076 -0.026228 0.0
1.030788 -0.023331 0.0
1.034011 -0.020652 0.0
1.036801 -0.018204 0.0
1.039212 -0.015989 0.0
1.041290 -0.014001 0.0
1.043077 -0.012229 0.0
1.044609 -0.010659 0.0
1.045917 -0.009275 0.0
1.047028 -0.008062 0.0
1.047962 -0.007002 0.0
1.048738 -0.006080 0.0
1.049369 -0.005282 0.0
1.049866 -0.004594 0.0
1.050235 -0.004000 0.0
1.050479 -0.003486 0.0
1.050602 -0.003037 0.0
1.050602 -0.002606 0.0
0.999945 -0.016433 0.0
0.999784 -0.050914 0.0
0.999721 -0.089314 0.0
1.000450 -0.134387 0.0
1.003595 -0.189760 0.0
1.012895 -0.260476 0.0
1.036940 -0.353683 0.0
1.094715 -0.474632 0.0
1.249531 -0.693909 0.0
1.353676 -0.425151 0.0
1.304268 -0.263740 0.0
1.233297 -0.187854 0.0
1.179306 -0.141950 0.0
1.145587 -0.113005 0.0
1.136626 -0.090859 0.0
1.154788 -0.058331 0.0
1.188860 0.001934 0.0
1.216786 0.076963 0.0
1.228056 0.145780 0.0
1.224920 0.203178 0.0
1.209795 0.247249 0.0
1.184585 0.277193 0.0
1.151053 0.292780 0.0
1.111061 0.294109 0.0
1.066615 0.281628 0.0
1.019676 0.256462 0.0
0.971503 0.221035 0.0
0.921483 0.179528 0.0
0.866821 0.136694 0.0
0.805748 0.094889 0.0
0.742967 0.053111 0.0
0.688495 0.008195 0.0
0.652083 -0.043341 0.0
0.641198 -0.094505 0.0
0.657436 -0.133787 0.0
0.697054 -0.153041 0.0
0.756264 -0.147867 0.0
0.832186 -0.117769 0.0
0.920894 -0.066969 0.0
1.010704 -0.008047 0.0
1.085527 0.045598 0.0
1.140995 0.087116 0.0
1.181898 0.118768 0.0
1.211508 0.142873 0.0
1.231636 0.160650 0.0
1.243485 0.172850 0.0
1.247982 0.180036 0.0
1.245945 0.182724 0.0
1.238160 0.181446 0.0
1.225420 0.176760 0.0
1.208526 0.169243 0.0
1.188287 0.159478 0.0
1.165496 0.148043 0.0
1.140910 0.135509 0.0
1.115225 0.122437 0.0
1.089056 0.109358 0.0
1.062936 0.096732 0.0
1.037328 0.084870 0.0
1.012670 0.073862 0.0
0.989417 0.063535 0.0
0.968068 0.053511 0.0
0.949175 0.043321 0.0
0.933291 0.032567 0.0
0.920914 0.021047 0.0
0.912399 0.008818 0.0
0.907903 -0.003816 0.0
0.907343 -0.016338 0.0
0.910355 -0.028060 0.0
0.916329 -0.038342 0.0
0.924534 -0.046731 0.0
0.934237 -0.053002 0.0
0.944781 -0.057135 0.0
0.955620 -0.059269 0.0
0.966327 -0.059646 0.0
0.976587 -0.058566 0.0
0.986184 -0.056344 0.0
0.994985 -0.053288 0.0
1.002925 -0.049675 0.0
1.009991 -0.045743 0.0
1.016210 -0.041687 0.0
1.021632 -0.037657 0.0
1.026326 -0.033763 0.0
1.030367 -0.030080 0.0
1.033833 -0.026656 0.0
1.036797 -0.023514 0.0
1.039326 -0.020663 0.0
1.041482 -0.018097 0.0
1.043317 -0.015806 0.0
1.044876 -0.013771 0.0
1.046198 -0.011972 0.0
1.047315 -0.010388 0.0
1.048253 -0.008997 0.0
1.049032 -0.007780 0.0
1.049670 -0.006716 0.0
1.050180 -0.005788 0.0
1.050571 -0.004976 0.0
1.050850 -0.004265 0.0
1.051022 -0.003637 0.0
1.051090 -0.003076 0.0
1.051053 -0.002530 0.0
0.999323 -0.015701 0.0
0.996575 -0.048737 0.0
0.990923 -0.085776 0.0
0.982086 -0.129818 0.0
0.969864 -0.185251 0.0
0.954809 -0.259230 0.0
0.940548 -0.364713 0.0
0.942372 -0.523202 0.0
1.044122 -0.901906 0.0
1.037767 -0.207525 0.0
0.837450 -0.112217 0.0
0.685978 -0.104928 0.0
0.600530 -0.085437 0.0
0.549769 -0.085038 0.0
0.542210 -0.102307 0.0
0.581393 -0.104227 0.0
0.657611 -0.062460 0.0
0.743792 0.027249 0.0
0.810706 0.117310 0.0
0.853890 0.191600 0.0
0.877329 0.250512 0.0
0.882722 0.293747 0.0
0.871341 0.321137 0.0
0.844226 0.332859 0.0
0.801774 0.329776 0.0
0.743180 0.313848 0.0
0.666997 0.288005 0.0
0.574901 0.254675 0.0
0.477011 0.214100 0.0
0.391398 0.164170 0.0
0.335105 0.102904 0.0
0.315990 0.031989 0.0
0.329435 -0.044168 0.0
0.362422 -0.115778 0.0
0.405493 -0.171824 0.0
0.456718 -0.205847 0.0
0.517279 -0.214831 0.0
0.588906 -0.198354 0.0
0.672468 -0.158655 0.0
0.767067 -0.100770 0.0
0.866190 -0.035625 0.0
0.954989 0.024072 0.0
1.024138 0.071760 0.0
1.076309 0.108101 0.0
1.115498 0.136104 0.0
1.143817 0.157227 0.0
1.162671 0.172308 0.0
1.173191 0.181969 0.0
1.176395 0.186781 0.0
1.173248 0.187312 0.0
1.164683 0.184149 0.0
1.151596 0.177897 0.0
1.134838 0.169173 0.0
1.115198 0.158606 0.0
1.093388 0.146835 0.0
1.070042 0.134474 0.0
1.045734 0.122044 0.0
1.021025 0.109875 0.0
0.996524 0.098016 0.0
0.972940 0.086219 0.0
0.951093 0.074022 0.0
0.931877 0.060920 0.0
0.916160 0.046568 0.0
0.904662 0.030922 0.0
0.897836 0.014285 0.0
0.895789 -0.002740 0.0
0.898196 -0.019260 0.0
0.904312 -0.034266 0.0
0.913190 -0.046987 0.0
0.923890 -0.056990 0.0
0.935597 -0.064154 0.0
0.947662 -0.068593 0.0
0.959592 -0.070581 0.0
0.971032 -0.070482 0.0
0.981739 -0.068697 0.0
0.991560 -0.065630 0.0
1.000412 -0.061656 0.0
1.008273 -0.057108 0.0
1.015162 -0.052265 0.0
1.021131 -0.047352 0.0
1.026254 -0.042537 0.0
1.030617 -0.037940 0.0
1.034311 -0.033638 0.0
1.037424 -0.029677 0.0
1.040041 -0.026074 0.0
1.042237 -0.022829 0.0
1.044079 -0.019929 0.0
1.045622 -0.017353 0.0
1.046914 -0.015075 0.0
1.047993 -0.013069 0.0
1.048892 -0.011306 0.0
1.049636 -0.009760 0.0
1.050243 -0.008405 0.0
1.050731 -0.007217 0.0
1.051110 -0.006175 0.0
1.051389 -0.005258 0.0
1.051574 -0.004447 0.0
1.051669 -0.003722 0.0
1.051679 -0.003067 0.0
1.051602 -0.002425 0.0
0.998729 -0.013752 0.0
0.993506 -0.042716 0.0
0.982437 -0.075075 0.0
0.964067 -0.113313 0.0
0.935679 -0.161145 0.0
0.892274 -0.224875 0.0
0.824086 -0.316620 0.0
0.712093 -0.461127 0.0
0.321009 -0.782066 0.0
-0.469594 0.285054 0.0
-0.469594 0.000000 0.0
-0.038315 -0.026833 0.0
-0.064528 -0.063353 0.0
-0.016131 -0.104759 0.0
0.064270 -0.155428 0.0
0.148918 -0.174937 0.0
0.229611 -0.148661 0.0
0.317618 -0.060738 0.0
0.403752 0.052248 0.0
0.470211 0.147020 0.0
0.516232 0.225633 0.0
0.541007 0.288459 0.0
0.543357 0.335456 0.0
0.522121 0.366892 0.0
0.476668 0.383648 0.0
0.408560 0.386678 0.0
0.324784 0.375134 0.0
0.241284 0.343142 0.0
0.177507 0.287299 0.0
0.145322 0.208768 0.0
0.145771 0.114150 0.0
0.171961 0.013669 0.0
0.212198 -0.079529 0.0
0.256692 -0.157897 0.0
0.301877 -0.217962 0.0
0.348071 -0.257127 0.0
0.397763 -0.273804 0.0
0.454246 -0.267492 0.0
0.520331 -0.239164 0.0
0.597232 -0.191760 0.0
0.683851 -0.130377 0.0
0.776105 -0.062229 0.0
0.863391 0.001626 0.0
0.934978 0.054476 0.0
0.990140 0.095379 0.0
1.032463 0.127310 0.0
1.064016 0.151818 0.0
1.086160 0.169795 0.0
1.099994 0.181917 0.0
1.106509 0.188807 0.0
1.106637 0.191092 0.0
1.101259 0.189420 0.0
1.091198 0.184469 0.0
1.077210 0.176939 0.0
1.059980 0.167542 0.0
1.040147 0.156946 0.0
1.018352 0.145675 0.0
0.995318 0.133987 0.0
0.971921 0.121800 0.0
0.949235 0.108705 0.0
0.928491 0.094126 0.0
0.910960 0.077563 0.0
0.897771 0.058831 0.0
0.889723 0.038205 0.0
0.887144 0.016406 0.0
0.889798 -0.005470 0.0
0.896806 -0.025945 0.0
0.906905 -0.043797 0.0
0.918886 -0.058316 0.0
0.931775 -0.069250 0.0
0.944855 -0.076681 0.0
0.957627 -0.080902 0.0
0.969759 -0.082334 0.0
0.981039 -0.081450 0.0
0.991346 -0.078742 0.0
1.000617 -0.074677 0.0
1.008840 -0.069684 0.0
1.016038 -0.064138 0.0
1.022262 -0.058348 0.0
1.027583 -0.052560 0.0
1.032086 -0.046956 0.0
1.035864 -0.041662 0.0
1.039011 -0.036756 0.0
1.041617 -0.032279 0.0
1.043768 -0.028239 0.0
1.045538 -0.024629 0.0
1.046993 -0.021424 0.0
1.048188 -0.018595 0.0
1.049169 -0.016106 0.0
1.049972 -0.013921 0.0
1.050626 -0.012007 0.0
1.051155 -0.010331 0.0
1.051575 -0.008862 0.0
1.051900 -0.007573 0.0
1.052139 -0.006438 0.0
1.052300 -0.005435 0.0
1.052387 -0.004542 0.0
1.052403 -0.003739 0.0
1.052352 -0.003008 0.0
1.052232 -0.002288 0.0
0.998293 -0.010775 0.0
0.991265 -0.033442 0.0
0.976290 -0.058303 0.0
0.951199 -0.086625 0.0
0.911808 -0.120054 0.0
0.850056 -0.160808 0.0
0.749271 -0.211714 0.0
0.569959 -0.274728 0.0
0.226817 -0.336816 0.0
0.000000 0.285054 0.0
-0.000000 -0.000000 0.0
0.000000 0.000000 0.0
-0.038708 -0.037727 0.0
-0.083202 -0.135270 0.0
-0.079982 -0.208537 0.0
-0.057850 -0.228609 0.0
-0.031430 -0.202102 0.0
0.007520 -0.134253 0.0
0.070693 -0.023546 0.0
0.137860 0.089188 0.0
0.188662 0.186643 0.0
0.220575 0.270761 0.0
0.230183 0.341196 0.0
0.215956 0.396615 0.0
0.180179 0.435155 0.0
0.130456 0.453001 0.0
0.079823 0.443219 0.0
0.047275 0.391106 0.0
0.044961 0.305426 0.0
0.070173 0.197614 0.0
0.115194 0.079835 0.0
0.169135 -0.032148 0.0
0.222004 -0.126820 0.0
0.269777 -0.202874 0.0
0.311659 -0.260053 0.0
0.348575 -0.298146 0.0
0.383218 -0.317120 0.0
0.419594 -0.317035 0.0
0.462073 -0.298185 0.0
0.514078 -0.261646 0.0
0.576905 -0.209937 0.0
0.649233 -0.147251 0.0
0.727558 -0.078963 0.0
0.804542 -0.013505 0.0
0.870698 0.042043 0.0
0.923102 0.085919 0.0
0.964150 0.120608 0.0
0.995456 0.147554 0.0
1.018132 0.167649 0.0
1.033081 0.181610 0.0
1.041119 0.190122 0.0
1.042999 0.193887 0.0
1.039429 0.193634 0.0
1.031068 0.190123 0.0
1.018557 0.184100 0.0
1.002565 0.176214 0.0
0.983882 0.166886 0.0
0.963505 0.156187 0.0
0.942708 0.143795 0.0
0.923006 0.129098 0.0
0.906028 0.111456 0.0
0.893274 0.090518 0.0
0.885862 0.066477 0.0
0.884319 0.040151 0.0
0.888492 0.012866 0.0
0.897405 -0.013497 0.0
0.909471 -0.036991 0.0
0.923157 -0.056535 0.0
0.937326 -0.071728 0.0
0.951224 -0.082626 0.0
0.964393 -0.089555 0.0
0.976582 -0.092989 0.0
0.987672 -0.093468 0.0
0.997627 -0.091552 0.0
1.006463 -0.087782 0.0
1.014224 -0.082668 0.0
1.020970 -0.076663 0.0
1.026775 -0.070162 0.0
1.031717 -0.063490 0.0
1.035880 -0.056902 0.0
1.039350 -0.050587 0.0
1.042214 -0.044673 0.0
1.044557 -0.039235 0.0
1.046458 -0.034308 0.0
1.047992 -0.029894 0.0
1.049223 -0.025975 0.0
1.050206 -0.022517 0.0
1.050991 -0.019481 0.0
1.051613 -0.016823 0.0
1.052105 -0.014499 0.0
1.052489 -0.012468 0.0
1.052784 -0.010693 0.0
1.053003 -0.009138 0.0
1.053155 -0.007773 0.0
1.053247 -0.006570 0.0
1.053285 -0.005502 0.0
1.053270 -0.004548 0.0
1.053205 -0.003685 0.0
1.053091 -0.002897 0.0
1.052927 -0.002117 0.0
0.998102 -0.007170 0.0
0.990300 -0.022217 0.0
0.973775 -0.038028 0.0
0.946438 -0.054472 0.0
0.904548 -0.070926 0.0
0.841872 -0.085508 0.0
0.748950 -0.093307 0.0
0.614418 -0.079290 0.0
0.434417 -0.004270 0.0
0.166765 0.149203 0.0
0.000000 0.000000 0.0
-0.000000 -0.000000 0.0
0.000000 0.000000 0.0
-0.064041 -0.064742 0.0
-0.147466 -0.198157 0.0
-0.172569 -0.236019 0.0
-0.184709 -0.208973 0.0
-0.187658 -0.163383 0.0
-0.163977 -0.081271 0.0
-0.114702 0.030471 0.0
-0.061087 0.140943 0.0
-0.020748 0.244209 0.0
0.001183 0.336209 0.0
0.005343 0.411670 0.0
-0.002805 0.464024 0.0
-0.013480 0.484530 0.0
-0.011846 0.460689 0.0
0.013444 0.380894 0.0
0.061165 0.270230 0.0
0.124841 0.143922 0.0
0.195976 0.017372 0.0
0.263221 -0.090871 0.0
0.320870 -0.178613 0.0
0.368711 -0.246694 0.0
0.406505 -0.295909 0.0
0.434821 -0.327522 0.0
0.455490 -0.343056 0.0
0.471876 -0.343861 0.0
0.488726 -0.330688 0.0
0.511294 -0.303716 0.0
0.543827 -0.263227 0.0
0.588140 -0.210602 0.0
0.643103 -0.148900 0.0
0.705228 -0.082677 0.0
0.768635 -0.018347 0.0
0.825438 0.037102 0.0
0.871957 0.081859 0.0
0.909249 0.117704 0.0
0.938251 0.145822 0.0
0.959674 0.167065 0.0
0.974119 0.182186 0.0
0.982136 0.191925 0.0
0.984266 0.197037 0.0
0.981066 0.198280 0.0
0.973173 0.196347 0.0
0.961385 0.191746 0.0
0.946761 0.184661 0.0
0.930690 0.174859 0.0
0.914874 0.161737 0.0
0.901178 0.144552 0.0
0.891373 0.122786 0.0
0.886813 0.096501 0.0
0.888183 0.066536 0.0
0.895379 0.034440 0.0
0.907429 0.002353 0.0
0.922453 -0.026922 0.0