# vtk DataFile Version 3.0
Vector Field
ASCII
DATASET RECTILINEAR_GRID
DIMENSIONS 100 26 1
X_COORDINATES 100 double
0.050000 0.150000 0.250000 0.350000 0.450000 0.550000 0.650000 0.750000 0.850000 0.950000 1.050000 1.150000 1.250000 1.350000 1.450000 1.550000 1.650000 1.750000 1.850000 1.950000 2.050000 2.150000 2.250000 2.350000 2.450000 2.550000 2.650000 2.750000 2.850000 2.950000 3.050000 3.150000 3.250000 3.350000 3.450000 3.550000 3.650000 3.750000 3.850000 3.950000 4.050000 4.150000 4.250000 4.350000 4.450000 4.550000 4.650000 4.750000 4.850000 4.950000 5.050000 5.150000 5.250000 5.350000 5.450000 5.550000 5.650000 5.750000 5.850000 5.950000 6.050000 6.150000 6.250000 6.350000 6.450000 6.550000 6.650000 6.750000 6.850000 6.950000 7.050000 7.150000 7.250000 7.350000 7.450000 7.550000 7.650000 7.750000 7.850000 7.950000 8.050000 8.150000 8.250000 8.350000 8.450000 8.550000 8.650000 8.750000 8.850000 8.950000 9.050000 9.150000 9.250000 9.350000 9.450000 9.550000 9.650000 9.750000 9.850000 9.950000 
Y_COORDINATES 26 double
0.050000 0.150000 0.250000 0.350000 0.450000 0.550000 0.650000 0.750000 0.850000 0.950000 1.050000 1.150000 1.250000 1.350000 1.450000 1.550000 1.650000 1.750000 1.850000 1.950000 2.050000 2.150000 2.250000 2.350000 2.450000 2.550000 
Z_COORDINATES 1 double
0.0
POINT_DATA 2600
VECTORS Vektorfeld double
0.997778 0.002222 0.0
0.993433 0.002123 0.0
0.990831 0.000480 0.0
0.992136 -0.001785 0.0
0.998171 -0.004249 0.0
1.009043 -0.006623 0.0
1.024295 -0.008629 0.0
1.042912 -0.009988 0.0
1.063352 -0.010453 0.0
1.083685 -0.009880 0.0
1.101862 -0.008298 0.0
1.116061 -0.005901 0.0
1.124950 -0.002987 0.0
1.127885 0.000053 0.0
1.124863 0.002969 0.0
1.116220 0.005674 0.0
1.102520 0.008027 0.0
1.084577 0.009915 0.0
1.063408 0.011254 0.0
1.040161 0.011992 0.0
1.016056 0.012113 0.0
0.992302 0.011640 0.0
0.970025 0.010637 0.0
0.950169 0.009219 0.0
0.933398 0.007552 0.0
0.919991 0.005855 0.0
0.909744 0.004393 0.0
0.901900 0.003452 0.0
0.895156 0.003292 0.0
0.887775 0.004088 0.0
0.877822 0.005865 0.0
0.863473 0.008484 0.0
0.843304 0.011685 0.0
0.816469 0.015150 0.0
0.782763 0.018556 0.0
0.742598 0.021608 0.0
0.696933 0.024057 0.0
0.647174 0.025702 0.0
0.595083 0.026389 0.0
0.542685 0.026008 0.0
0.492188 0.024489 0.0
0.445993 0.021705 0.0
0.406996 0.017291 0.0
0.378952 0.010752 0.0
0.365615 0.002585 0.0
0.366897 -0.003868 0.0
0.377892 -0.007127 0.0
0.393506 -0.008487 0.0
0.410721 -0.008728 0.0
0.427744 -0.008295 0.0
0.443481 -0.007442 0.0
0.457242 -0.006319 0.0
0.468588 -0.005028 0.0
0.477272 -0.003656 0.0
0.483235 -0.002307 0.0
0.486623 -0.001081 0.0
0.487592 0.000113 0.0
0.485643 0.001835 0.0
0.479675 0.004133 0.0
0.468823 0.006718 0.0
0.452864 0.009240 0.0
0.432472 0.011151 0.0
0.409485 0.011836 0.0
0.386682 0.010967 0.0
0.366860 0.008855 0.0
0.351614 0.006391 0.0
0.340748 0.004475 0.0
0.332832 0.003442 0.0
0.326396 0.002993 0.0
0.320796 0.002607 0.0
0.316210 0.001979 0.0
0.313070 0.001161 0.0
0.311522 0.000388 0.0
0.311300 -0.000166 0.0
0.311887 -0.000421 0.0
0.312780 -0.000472 0.0
0.313641 -0.000389 0.0
0.314207 -0.000176 0.0
0.314119 0.000264 0.0
0.312861 0.000995 0.0
0.310017 0.001849 0.0
0.305592 0.002576 0.0
0.300004 0.003011 0.0
0.293965 0.003028 0.0
0.288369 0.002567 0.0
0.284055 0.001747 0.0
0.281419 0.000889 0.0
0.280221 0.000309 0.0
0.279854 0.000058 0.0
0.279830 -0.000034 0.0
0.279987 -0.000124 0.0
0.280352 -0.000242 0.0
0.280957 -0.000363 0.0
0.281785 -0.000465 0.0
0.282816 -0.000565 0.0
0.284088 -0.000707 0.0
0.285742 -0.000947 0.0
0.287970 -0.001281 0.0
0.290870 -0.001619 0.0
0.294733 -0.002244 0.0
1.003073 0.001371 0.0
1.012026 -0.001633 0.0
1.026022 -0.007158 0.0
1.044418 -0.013850 0.0
1.067110 -0.020911 0.0
1.093932 -0.027655 0.0
1.124424 -0.033342 0.0
1.157702 -0.037170 0.0
1.192388 -0.038398 0.0
1.226685 -0.036563 0.0
1.258654 -0.031760 0.0
1.286612 -0.024596 0.0
1.309365 -0.015935 0.0
1.326133 -0.006703 0.0
1.336515 0.002364 0.0
1.340655 0.010780 0.0
1.339168 0.018108 0.0
1.332937 0.024008 0.0
1.323038 0.028231 0.0
1.310677 0.030623 0.0
1.297134 0.031132 0.0
1.283685 0.029823 0.0
1.271523 0.026893 0.0
1.261654 0.022688 0.0
1.254799 0.017709 0.0
1.251285 0.012618 0.0
1.250941 0.008219 0.0
1.253022 0.005389 0.0
1.256189 0.004932 0.0
1.258615 0.007403 0.0
1.258225 0.012894 0.0
1.253060 0.020969 0.0
1.241606 0.030822 0.0
1.222977 0.041478 0.0
1.196952 0.051960 0.0
1.163933 0.061388 0.0
1.124856 0.069020 0.0
1.081092 0.074263 0.0
1.034356 0.076655 0.0
0.986640 0.075856 0.0
0.940174 0.071606 0.0
0.897354 0.063603 0.0
0.860326 0.051419 0.0
0.829865 0.035129 0.0
0.804568 0.016844 0.0
0.784210 0.000949 0.0
0.771736 -0.010463 0.0
0.768443 -0.017471 0.0
0.772745 -0.021262 0.0
0.782835 -0.022875 0.0
0.797277 -0.023041 0.0
0.815020 -0.022223 0.0
0.835209 -0.020660 0.0
0.856932 -0.018430 0.0
0.878939 -0.015503 0.0
0.899414 -0.011749 0.0
0.916141 -0.006914 0.0
0.927693 -0.000741 0.0
0.933900 0.006472 0.0
0.934879 0.014254 0.0
0.930737 0.021806 0.0
0.921762 0.027951 0.0
0.908216 0.031569 0.0
0.890068 0.032185 0.0
0.867127 0.030401 0.0
0.839590 0.027627 0.0
0.808631 0.025065 0.0
0.776507 0.022892 0.0
0.746132 0.020353 0.0
0.720377 0.016603 0.0
0.701409 0.011538 0.0
0.690182 0.005968 0.0
0.686206 0.001105 0.0
0.687680 -0.002136 0.0
0.692506 -0.003865 0.0
0.699216 -0.004631 0.0
0.706795 -0.004671 0.0
0.714242 -0.003908 0.0
0.720684 -0.002360 0.0
0.725824 -0.000264 0.0
0.729847 0.001929 0.0
0.732895 0.003873 0.0
0.734953 0.005244 0.0
0.736021 0.005768 0.0
0.736065 0.005380 0.0
0.734932 0.004381 0.0
0.732473 0.003350 0.0
0.728819 0.002698 0.0
0.724463 0.002393 0.0
0.719946 0.002174 0.0
0.715572 0.001886 0.0
0.711428 0.001528 0.0
0.707539 0.001152 0.0
0.703965 0.000765 0.0
0.700861 0.000277 0.0
0.698504 -0.000465 0.0
0.697205 -0.001544 0.0
0.697265 -0.002970 0.0
0.699072 -0.004636 0.0
0.702691 -0.006709 0.0
1.001985 -0.003687 0.0
1.009116 -0.012659 0.0
1.022158 -0.023169 0.0
1.040577 -0.034654 0.0
1.064225 -0.046447 0.0
1.092981 -0.057696 0.0
1.126467 -0.067280 0.0
1.163791 -0.073832 0.0
1.203346 -0.075978 0.0
1.242751 -0.072686 0.0
1.279329 -0.064183 0.0
1.310918 -0.051720 0.0
1.336231 -0.036878 0.0
1.354792 -0.021089 0.0
1.366704 -0.005543 0.0
1.372437 0.008814 0.0
1.372699 0.021299 0.0
1.368362 0.031383 0.0
1.360445 0.038672 0.0
1.350075 0.042912 0.0
1.338458 0.044004 0.0
1.326818 0.042039 0.0
1.316341 0.037317 0.0
1.308108 0.030367 0.0
1.303034 0.021960 0.0
1.301791 0.013125 0.0
1.304695 0.005152 0.0
1.311524 -0.000454 0.0
1.321307 -0.002176 0.0
1.332331 0.001061 0.0
1.342427 0.009530 0.0
1.349375 0.022550 0.0
1.351357 0.038711 0.0
1.347222 0.056353 0.0
1.336477 0.073854 0.0
1.319210 0.089780 0.0
1.295972 0.102942 0.0
1.267677 0.112400 0.0
1.235505 0.117426 0.0
1.200826 0.117481 0.0
1.165094 0.112179 0.0
1.129649 0.101295 0.0
1.095382 0.085023 0.0
1.062641 0.064727 0.0
1.031862 0.043323 0.0
1.003565 0.023125 0.0
0.978026 0.005373 0.0
0.956805 -0.008794 0.0
0.941805 -0.019242 0.0
0.933347 -0.026527 0.0
0.931031 -0.031515 0.0
0.934360 -0.034821 0.0
0.942841 -0.036731 0.0
0.955968 -0.037210 0.0
0.973213 -0.035975 0.0
0.994036 -0.032575 0.0
1.017827 -0.026606 0.0
1.043435 -0.018209 0.0
1.068948 -0.007781 0.0
1.092394 0.004082 0.0
1.112232 0.016282 0.0
1.127218 0.027465 0.0
1.136169 0.036651 0.0
1.137963 0.043457 0.0
1.131954 0.048080 0.0
1.118374 0.051063 0.0
1.098372 0.052589 0.0
1.073668 0.052195 0.0
1.045987 0.049107 0.0
1.016615 0.042977 0.0
0.986327 0.034419 0.0
0.955821 0.024820 0.0
0.926504 0.015547 0.0
0.901126 0.007328 0.0
0.882717 0.000254 0.0
0.872497 -0.005240 0.0
0.869381 -0.008525 0.0
0.871514 -0.009633 0.0
0.877468 -0.009030 0.0
0.885977 -0.007242 0.0
0.895633 -0.004771 0.0
0.905208 -0.002051 0.0
0.913887 0.000430 0.0
0.921139 0.002262 0.0
0.926679 0.003303 0.0
0.930530 0.003740 0.0
0.933111 0.003871 0.0
0.935130 0.003811 0.0
0.937295 0.003471 0.0
0.940105 0.002802 0.0
0.943836 0.001901 0.0
0.948576 0.000916 0.0
0.954228 0.000001 0.0
0.960475 -0.000756 0.0
0.966752 -0.001375 0.0
0.972270 -0.001975 0.0
0.976249 -0.002715 0.0
0.978252 -0.003862 0.0
0.978452 -0.005751 0.0
0.980209 -0.010970 0.0
1.001610 -0.007282 0.0
1.007867 -0.022455 0.0
1.020090 -0.038638 0.0
1.038210 -0.055724 0.0
1.062410 -0.073225 0.0
1.092930 -0.090194 0.0
1.129765 -0.105103 0.0
1.172218 -0.115786 0.0
1.218487 -0.119848 0.0
1.265056 -0.114789 0.0
1.307640 -0.101242 0.0
1.343221 -0.081831 0.0
1.370495 -0.059353 0.0
1.389343 -0.036023 0.0
1.400287 -0.013465 0.0
1.404171 0.007119 0.0
1.401995 0.024909 0.0
1.394843 0.039261 0.0
1.383891 0.049664 0.0
1.370415 0.055766 0.0
1.355767 0.057415 0.0
1.341331 0.054704 0.0
1.328470 0.047991 0.0
1.318469 0.037926 0.0
1.312501 0.025443 0.0
1.311601 0.011785 0.0
1.316535 -0.001346 0.0
1.327366 -0.011615 0.0
1.343029 -0.016461 0.0
1.361264 -0.013912 0.0
1.379053 -0.003382 0.0
1.393547 0.014020 0.0
1.402761 0.036045 0.0
1.405700 0.060216 0.0
1.402172 0.084264 0.0
1.392525 0.106286 0.0
1.377408 0.124792 0.0
1.357603 0.138650 0.0
1.333927 0.147022 0.0
1.307175 0.149316 0.0
1.278060 0.145190 0.0
1.247136 0.134653 0.0
1.214749 0.118319 0.0
1.181198 0.097723 0.0
1.147113 0.075191 0.0
1.113654 0.053013 0.0
1.082125 0.032553 0.0
1.053254 0.014118 0.0
1.027889 -0.001789 0.0
1.007453 -0.015086 0.0
0.992772 -0.025958 0.0
0.983891 -0.034827 0.0
0.980592 -0.041906 0.0
0.982583 -0.047152 0.0
0.989668 -0.050362 0.0
1.001907 -0.051250 0.0
1.019675 -0.049490 0.0
1.043488 -0.044746 0.0
1.073517 -0.036786 0.0
1.108855 -0.025697 0.0
1.146997 -0.011920 0.0
1.183981 0.003697 0.0
1.215634 0.019814 0.0
1.239273 0.034861 0.0
1.253873 0.048086 0.0
1.259300 0.059210 0.0
1.256078 0.067666 0.0
1.245164 0.072737 0.0
1.227595 0.073815 0.0
1.204388 0.070849 0.0
1.176713 0.064509 0.0
1.146128 0.055822 0.0
1.114417 0.045573 0.0
1.082951 0.034146 0.0
1.052487 0.022307 0.0
1.024118 0.011296 0.0
1.000069 0.002104 0.0
0.982517 -0.004842 0.0
0.971902 -0.009160 0.0
0.967119 -0.010838 0.0
0.966584 -0.010297 0.0
0.968698 -0.008213 0.0
0.971916 -0.005304 0.0
0.974901 -0.002242 0.0
0.976733 0.000435 0.0
0.977110 0.002378 0.0
0.976398 0.003363 0.0
0.975455 0.003244 0.0
0.975364 0.001964 0.0
0.977216 -0.000353 0.0
0.981922 -0.003379 0.0
0.990061 -0.006683 0.0
1.001785 -0.009776 0.0
1.016769 -0.012210 0.0
1.034236 -0.013666 0.0
1.053051 -0.014016 0.0
1.071825 -0.013426 0.0
1.089093 -0.012423 0.0
1.103592 -0.011889 0.0
1.114929 -0.017926 0.0
1.001424 -0.010315 0.0
1.007117 -0.031372 0.0
1.018605 -0.053431 0.0
1.036267 -0.076713 0.0
1.060806 -0.100975 0.0
1.093138 -0.125296 0.0
1.134060 -0.147759 0.0
1.183538 -0.165061 0.0
1.240061 -0.173366 0.0
1.297778 -0.165557 0.0
1.348776 -0.144055 0.0
1.388932 -0.114755 0.0
1.417632 -0.082403 0.0
1.435765 -0.049954 0.0
1.444570 -0.019284 0.0
1.445348 0.008276 0.0
1.439349 0.031929 0.0
1.427783 0.050959 0.0
1.411974 0.064726 0.0
1.393395 0.072759 0.0
1.373636 0.074829 0.0
1.354350 0.071012 0.0
1.337180 0.061715 0.0
1.323691 0.047692 0.0
1.315334 0.030001 0.0
1.313498 0.009963 0.0
1.319419 -0.010379 0.0
1.333621 -0.027615 0.0
1.355180 -0.037683 0.0
1.381367 -0.037111 0.0
1.407891 -0.024497 0.0
1.430044 -0.001513 0.0
1.444699 0.027710 0.0
1.451038 0.059274 0.0
1.449593 0.090179 0.0
1.441450 0.118161 0.0
1.427834 0.141650 0.0
1.409836 0.159595 0.0
1.388295 0.171295 0.0
1.363782 0.176309 0.0
1.336633 0.174461 0.0
1.307006 0.165934 0.0
1.274986 0.151444 0.0
1.240794 0.132341 0.0
1.205010 0.110441 0.0
1.168664 0.087567 0.0
1.133069 0.065123 0.0
1.099542 0.043946 0.0
1.069040 0.024251 0.0
1.042131 0.006219 0.0
1.019384 -0.009835 0.0
1.001033 -0.023719 0.0
0.986759 -0.035441 0.0
0.976256 -0.045105 0.0
0.969684 -0.052922 0.0
0.967893 -0.059139 0.0
0.972378 -0.063855 0.0
0.984927 -0.066743 0.0
1.007010 -0.066900 0.0
1.039195 -0.063107 0.0
1.080818 -0.054276 0.0
1.129767 -0.039879 0.0
1.181980 -0.020476 0.0
1.231174 0.002318 0.0
1.271216 0.025988 0.0
1.299553 0.047544 0.0
1.316491 0.065616 0.0
1.322866 0.079327 0.0
1.319609 0.088050 0.0
1.307774 0.091656 0.0
1.288627 0.090523 0.0
1.263686 0.085334 0.0
1.234602 0.076856 0.0
1.203000 0.065930 0.0
1.170461 0.053525 0.0
1.138439 0.040470 0.0
1.107963 0.027455 0.0
1.079760 0.015560 0.0
1.054842 0.005970 0.0
1.034261 -0.000603 0.0
1.018175 -0.003911 0.0
1.005603 -0.004141 0.0
0.994949 -0.001940 0.0
0.984695 0.001662 0.0
0.973935 0.005460 0.0
0.962596 0.008315 0.0
0.951379 0.009354 0.0
0.941502 0.008073 0.0
0.934363 0.004365 0.0
0.931252 -0.001495 0.0
0.933167 -0.008858 0.0
0.940598 -0.016774 0.0
0.953422 -0.024234 0.0
0.971047 -0.030361 0.0
0.992574 -0.034510 0.0
1.016907 -0.036320 0.0
1.042785 -0.035774 0.0
1.068747 -0.033305 0.0
1.093096 -0.029853 0.0
1.112164 -0.030369 0.0
1.001237 -0.012977 0.0
1.006250 -0.039416 0.0
1.016599 -0.067224 0.0
1.033064 -0.097046 0.0
1.056981 -0.129098 0.0
1.090271 -0.162794 0.0
1.135211 -0.196123 0.0
1.193408 -0.224371 0.0
1.265595 -0.242766 0.0
1.340221 -0.228500 0.0
1.400782 -0.192670 0.0
1.443378 -0.148891 0.0
1.470595 -0.104186 0.0
1.485613 -0.061322 0.0
1.490605 -0.021713 0.0
1.487062 0.013471 0.0
1.476131 0.043664 0.0
1.458937 0.067984 0.0
1.436874 0.085572 0.0
1.411598 0.095768 0.0
1.384957 0.098220 0.0
1.358904 0.092961 0.0
1.335391 0.080449 0.0
1.316254 0.061583 0.0
1.303096 0.037624 0.0
1.297290 0.009982 0.0
1.300378 -0.019408 0.0
1.313762 -0.046173 0.0
1.337441 -0.064364 0.0
1.369352 -0.068527 0.0
1.405214 -0.055466 0.0
1.438607 -0.026089 0.0
1.462869 0.013369 0.0
1.475241 0.054903 0.0
1.476954 0.094282 0.0
1.470170 0.128984 0.0
1.456981 0.157631 0.0
1.439041 0.179551 0.0
1.417476 0.194444 0.0
1.392934 0.202215 0.0
1.365698 0.202940 0.0
1.335833 0.196948 0.0
1.303354 0.184928 0.0
1.268428 0.167977 0.0
1.231535 0.147482 0.0
1.193534 0.124872 0.0
1.155581 0.101367 0.0
1.118926 0.077885 0.0
1.084635 0.055106 0.0
1.053248 0.033660 0.0
1.024489 0.014229 0.0
0.997472 -0.002416 0.0
0.971217 -0.016214 0.0
0.945462 -0.028075 0.0
0.921490 -0.039408 0.0
0.902107 -0.051478 0.0
0.890851 -0.064745 0.0
0.890832 -0.078383 0.0
0.903766 -0.090277 0.0
0.929766 -0.097915 0.0
0.967795 -0.099119 0.0
1.016145 -0.092334 0.0
1.072627 -0.076716 0.0
1.134393 -0.052402 0.0
1.196657 -0.021599 0.0
1.251802 0.011648 0.0
1.293830 0.042547 0.0
1.321821 0.068030 0.0
1.337029 0.087396 0.0
1.340768 0.100405 0.0
1.334461 0.107228 0.0
1.319663 0.108368 0.0
1.298021 0.104547 0.0
1.271211 0.096652 0.0
1.240876 0.085677 0.0
1.208565 0.072651 0.0
1.175655 0.058660 0.0
1.143328 0.044886 0.0
1.112412 0.032479 0.0
1.083221 0.022661 0.0
1.055619 0.016514 0.0
1.029178 0.014447 0.0
1.003392 0.015912 0.0
0.977985 0.019471 0.0
0.953201 0.023195 0.0
0.929921 0.025199 0.0
0.909514 0.024095 0.0
0.893490 0.019233 0.0
0.883120 0.010714 0.0
0.879166 -0.000778 0.0
0.881782 -0.014107 0.0
0.890568 -0.027743 0.0
0.904739 -0.040261 0.0
0.923336 -0.050556 0.0
0.945361 -0.057867 0.0
0.969808 -0.061743 0.0
0.995613 -0.062034 0.0
1.021532 -0.058926 0.0
1.045965 -0.053013 0.0
1.065427 -0.045740 0.0
1.000964 -0.015178 0.0
1.004907 -0.046171 0.0
1.013233 -0.079144 0.0
1.027007 -0.115364 0.0
1.048174 -0.155864 0.0
1.079888 -0.201033 0.0
1.126762 -0.249697 0.0
1.193933 -0.296164 0.0
1.289954 -0.339183 0.0
1.387672 -0.304426 0.0
1.451772 -0.241406 0.0
1.487025 -0.178004 0.0
1.505081 -0.120346 0.0
1.512703 -0.067801 0.0
1.512226 -0.019749 0.0
1.503915 0.023361 0.0
1.487822 0.060797 0.0
1.464655 0.091213 0.0
1.435714 0.113348 0.0
1.402736 0.126246 0.0
1.367758 0.129360 0.0
1.332994 0.122639 0.0
1.300677 0.106600 0.0
1.272869 0.082377 0.0
1.251161 0.051697 0.0
1.236277 0.016600 0.0
1.228902 -0.021740 0.0
1.231245 -0.059568 0.0
1.245624 -0.089028 0.0
1.272873 -0.103022 0.0
1.311918 -0.095878 0.0
1.357989 -0.065141 0.0
1.401185 -0.015037 0.0
1.431197 0.040925 0.0
1.445800 0.091945 0.0
1.448557 0.135348 0.0
1.442641 0.170372 0.0
1.430334 0.197056 0.0
1.413115 0.215723 0.0
1.391848 0.226746 0.0
1.366983 0.230510 0.0
1.338737 0.227488 0.0
1.307267 0.218335 0.0
1.272831 0.203932 0.0
1.235920 0.185332 0.0
1.197314 0.163629 0.0
1.158034 0.139843 0.0
1.119164 0.114934 0.0
1.081501 0.090011 0.0
1.045081 0.066563 0.0
1.008864 0.046302 0.0
0.971079 0.030314 0.0
0.930477 0.017914 0.0
0.887924 0.006104 0.0
0.847337 -0.009029 0.0
0.814909 -0.030046 0.0
0.796240 -0.056253 0.0
0.793572 -0.084188 0.0
0.805894 -0.109727 0.0
0.830946 -0.129516 0.0
0.866617 -0.141218 0.0
0.911298 -0.143267 0.0
0.963695 -0.134662 0.0
1.022471 -0.114997 0.0
1.085898 -0.084694 0.0
1.151214 -0.045719 0.0
1.212371 -0.003270 0.0
1.261811 0.036416 0.0
1.296584 0.069030 0.0
1.317677 0.093939 0.0
1.326506 0.111173 0.0
1.324604 0.121123 0.0
1.313582 0.124456 0.0
1.295077 0.122058 0.0
1.270704 0.114978 0.0
1.241988 0.104378 0.0
1.210291 0.091539 0.0
1.176736 0.077889 0.0
1.142119 0.065008 0.0
1.106895 0.054546 0.0
1.071275 0.047850 0.0
1.035415 0.045412 0.0
0.999656 0.046493 0.0
0.964758 0.049196 0.0
0.931993 0.051019 0.0
0.903006 0.049641 0.0
0.879474 0.043592 0.0
0.862702 0.032532 0.0
0.853353 0.017134 0.0
0.851369 -0.001261 0.0
0.856056 -0.020927 0.0
0.866346 -0.039999 0.0
0.881119 -0.056948 0.0
0.899333 -0.070679 0.0
0.920040 -0.080476 0.0
0.942356 -0.085897 0.0
0.965381 -0.086711 0.0
0.988075 -0.082862 0.0
1.009084 -0.074519 0.0
1.026005 -0.060617 0.0
1.000558 -0.016700 0.0
1.002864 -0.050899 0.0
1.007891 -0.087769 0.0
1.016724 -0.129347 0.0
1.031572 -0.177895 0.0
1.056585 -0.235730 0.0
1.099211 -0.304501 0.0
1.171001 -0.380321 0.0
1.300208 -0.480254 0.0
1.419810 -0.380673 0.0
1.461637 -0.271086 0.0
1.466401 -0.188341 0.0
1.462099 -0.123762 0.0
1.457525 -0.067433 0.0
1.451746 -0.013860 0.0
1.440691 0.036839 0.0
1.421941 0.082162 0.0
1.395256 0.119699 0.0
1.361518 0.147541 0.0
1.322239 0.164310 0.0
1.279334 0.169179 0.0
1.234957 0.161961 0.0
1.191313 0.143238 0.0
1.150394 0.114467 0.0
1.113696 0.078013 0.0
1.081808 0.037057 0.0
1.053409 -0.006424 0.0
1.030120 -0.053937 0.0
1.019411 -0.098330 0.0
1.028890 -0.130449 0.0
1.061923 -0.140529 0.0
1.116454 -0.121092 0.0
1.184927 -0.070755 0.0
1.251593 -0.000035 0.0
1.301158 0.068737 0.0
1.331955 0.125003 0.0
1.349086 0.169502 0.0
1.355792 0.203526 0.0
1.354056 0.228207 0.0
1.345148 0.244437 0.0
1.329927 0.252906 0.0
1.309033 0.254232 0.0
1.283027 0.249069 0.0
1.252493 0.238168 0.0
1.218130 0.222368 0.0
1.180785 0.202543 0.0
1.141376 0.179617 0.0
1.100605 0.154801 0.0
1.058375 0.130037 0.0
1.013244 0.108088 0.0
0.962886 0.091351 0.0
0.906344 0.079592 0.0
0.846855 0.068726 0.0
0.792119 0.052581 0.0
0.750596 0.026603 0.0
0.726848 -0.009502 0.0
0.720433 -0.051712 0.0
0.728091 -0.093718 0.0
0.746246 -0.130675 0.0
0.772390 -0.159765 0.0
0.805163 -0.179413 0.0
0.843984 -0.188575 0.0
0.888642 -0.186409 0.0
0.938922 -0.172307 0.0
0.994288 -0.146178 0.0
1.053613 -0.108876 0.0
1.114917 -0.062574 0.0
1.173719 -0.012523 0.0
1.222987 0.033928 0.0
1.258862 0.072073 0.0
1.281748 0.101324 0.0
1.292751 0.121870 0.0
1.293209 0.134274 0.0
1.284563 0.139391 0.0
1.268274 0.138307 0.0
1.245741 0.132298 0.0
1.218225 0.122832 0.0
1.186781 0.111595 0.0
1.152232 0.100468 0.0
1.115214 0.091329 0.0
1.076319 0.085582 0.0
1.036306 0.083552 0.0
0.996302 0.084115 0.0
0.957885 0.084889 0.0
0.922962 0.083015 0.0
0.893434 0.076160 0.0
0.870798 0.063243 0.0
0.855852 0.044599 0.0
0.848623 0.021645 0.0
0.848489 -0.003654 0.0
0.854382 -0.029113 0.0
0.865071 -0.052791 0.0
0.879385 -0.073243 0.0
0.896283 -0.089496 0.0
0.914857 -0.100940 0.0
0.934299 -0.107191 0.0
0.953844 -0.107988 0.0
0.972668 -0.103104 0.0
0.989768 -0.092387 0.0
1.003615 -0.073516 0.0
1.000014 -0.017271 0.0
1.000089 -0.052709 0.0
1.000435 -0.091331 0.0
1.001706 -0.135888 0.0
1.005519 -0.190014 0.0
1.015669 -0.258773 0.0
1.040919 -0.349334 0.0
1.100646 -0.467005 0.0
1.259469 -0.681601 0.0
1.371159 -0.410619 0.0
1.331747 -0.243556 0.0
1.272020 -0.160909 0.0
1.232134 -0.107006 0.0
1.213950 -0.061433 0.0
1.209194 -0.009325 0.0
1.204688 0.047864 0.0
1.193103 0.101472 0.0
1.172699 0.147478 0.0
1.143051 0.183147 0.0
1.104505 0.206528 0.0
1.057979 0.216393 0.0
1.004660 0.212442 0.0
0.945440 0.195621 0.0
0.880382 0.168061 0.0
0.809742 0.131756 0.0
0.737707 0.087238 0.0
0.675333 0.034168 0.0
0.633921 -0.029827 0.0
0.622222 -0.100032 0.0
0.643364 -0.159369 0.0
0.692319 -0.193597 0.0
0.763155 -0.193391 0.0
0.851272 -0.155046 0.0
0.951393 -0.082531 0.0
1.048068 0.004992 0.0
1.123842 0.082179 0.0
1.177274 0.141763 0.0
1.214174 0.187660 0.0
1.237637 0.222346 0.0
1.249522 0.247321 0.0
1.251190 0.263575 0.0
1.243777 0.271868 0.0
1.228318 0.272899 0.0
1.205800 0.267390 0.0
1.177191 0.256117 0.0
1.143387 0.239944 0.0
1.104976 0.220036 0.0
1.061780 0.198350 0.0
1.012505 0.177993 0.0
0.955487 0.162280 0.0
0.891091 0.151914 0.0
0.824190 0.142473 0.0
0.763695 0.125829 0.0
0.718425 0.095485 0.0
0.692757 0.050890 0.0
0.685648 -0.002933 0.0
0.692463 -0.058682 0.0
0.708117 -0.110061 0.0
0.729267 -0.153637 0.0
0.754224 -0.187903 0.0
0.782381 -0.212203 0.0
0.813828 -0.226053 0.0
0.849068 -0.228828 0.0
0.888689 -0.219789 0.0
0.933032 -0.198405 0.0
0.981890 -0.164832 0.0
1.034330 -0.120363 0.0
1.088557 -0.067764 0.0
1.140799 -0.012341 0.0
1.185142 0.038124 0.0
1.218046 0.079485 0.0
1.239480 0.111272 0.0
1.250136 0.133759 0.0
1.251024 0.147664 0.0
1.243293 0.154053 0.0
1.228109 0.154269 0.0
1.206563 0.149924 0.0
1.179620 0.142891 0.0
1.148121 0.135220 0.0
1.112879 0.128838 0.0
1.074841 0.125005 0.0
1.035279 0.123704 0.0
0.995883 0.123364 0.0
0.958684 0.121256 0.0
0.925768 0.114487 0.0
0.898887 0.101096 0.0
0.879145 0.080686 0.0
0.866881 0.054366 0.0
0.861772 0.024216 0.0
0.863016 -0.007334 0.0
0.869518 -0.037828 0.0
0.880078 -0.065326 0.0
0.893543 -0.088487 0.0
0.908869 -0.106476 0.0
0.925155 -0.118819 0.0
0.941648 -0.125245 0.0
0.957708 -0.125538 0.0
0.972742 -0.119411 0.0
0.986116 -0.106554 0.0
0.996913 -0.083993 0.0
0.999382 -0.016667 0.0
0.996847 -0.050853 0.0
0.991572 -0.088260 0.0
0.983256 -0.131914 0.0
0.971703 -0.186249 0.0
0.957526 -0.258512 0.0
0.944518 -0.361837 0.0
0.948352 -0.518062 0.0
1.054548 -0.895563 0.0
1.058556 -0.202642 0.0
0.872447 -0.104739 0.0
0.734341 -0.090335 0.0
0.667882 -0.071235 0.0
0.646910 -0.058048 0.0
0.665300 -0.026343 0.0
0.697219 0.037468 0.0
0.720074 0.100598 0.0
0.730288 0.158541 0.0
0.724327 0.207693 0.0
0.699670 0.245185 0.0
0.654766 0.269166 0.0
0.589119 0.278636 0.0
0.504832 0.272934 0.0
0.409688 0.250950 0.0
0.319080 0.210115 0.0
0.252132 0.147861 0.0
0.223737 0.064313 0.0
0.236726 -0.031549 0.0
0.277900 -0.127785 0.0
0.332923 -0.207782 0.0
0.398051 -0.259268 0.0
0.474110 -0.274616 0.0
0.562586 -0.250414 0.0
0.663891 -0.188588 0.0
0.776002 -0.097738 0.0
0.885431 -0.000293 0.0
0.974471 0.081762 0.0
1.040701 0.144531 0.0
1.089400 0.193313 0.0
1.123153 0.230717 0.0
1.143556 0.258108 0.0
1.151924 0.276379 0.0
1.149480 0.286291 0.0
1.137383 0.288614 0.0
1.116667 0.284219 0.0
1.088067 0.274247 0.0
1.051695 0.260515 0.0
1.006831 0.245931 0.0
0.952563 0.233954 0.0
0.889825 0.226074 0.0
0.823659 0.218681 0.0
0.763014 0.203252 0.0
0.716957 0.171602 0.0
0.690203 0.121737 0.0
0.681862 0.058649 0.0
0.687633 -0.009354 0.0
0.702407 -0.073851 0.0
0.722055 -0.130194 0.0
0.744030 -0.176629 0.0
0.766953 -0.212791 0.0
0.790326 -0.238845 0.0
0.814396 -0.254930 0.0
0.840010 -0.260804 0.0
0.868347 -0.255772 0.0
0.900532 -0.238949 0.0
0.937209 -0.209823 0.0
0.978262 -0.168865 0.0
1.022724 -0.117951 0.0
1.068804 -0.060475 0.0
1.112900 -0.002183 0.0
1.150222 0.049567 0.0
1.178108 0.091869 0.0
1.196251 0.124362 0.0
1.204995 0.147429 0.0
1.205024 0.161990 0.0
1.197163 0.169376 0.0
1.182264 0.171262 0.0
1.161153 0.169608 0.0
1.134662 0.166492 0.0
1.103743 0.163727 0.0
1.069619 0.162277 0.0
1.033911 0.161704 0.0
0.998604 0.160067 0.0
0.965835 0.154520 0.0
0.937535 0.142438 0.0
0.915102 0.122458 0.0
0.899246 0.094923 0.0
0.890037 0.061602 0.0
0.887071 0.025054 0.0
0.889603 -0.011949 0.0
0.896633 -0.046745 0.0
0.907028 -0.077365 0.0
0.919655 -0.102539 0.0
0.933466 -0.121561 0.0
0.947567 -0.134122 0.0
0.961252 -0.140120 0.0
0.974004 -0.139474 0.0
0.985454 -0.131959 0.0
0.995315 -0.117243 0.0
1.003126 -0.091911 0.0
0.998774 -0.014824 0.0
0.993718 -0.045104 0.0
0.982957 -0.077973 0.0
0.965029 -0.115957 0.0
0.937219 -0.162843 0.0
0.894553 -0.225075 0.0
0.827309 -0.315023 0.0
0.716643 -0.458042 0.0
0.323682 -0.778532 0.0
-0.483214 0.281400 0.0
-0.483214 0.000000 0.0
-0.033021 -0.022705 0.0
-0.047262 -0.068482 0.0
0.011275 -0.098366 0.0
0.100491 -0.093630 0.0
0.193489 -0.020160 0.0
0.261013 0.067848 0.0
0.294985 0.147105 0.0
0.302177 0.217898 0.0
0.284011 0.277803 0.0
0.241719 0.323744 0.0
0.179915 0.351509 0.0
0.109192 0.355069 0.0
0.044998 0.328153 0.0
0.002332 0.266186 0.0
-0.010195 0.171266 0.0
0.011070 0.048039 0.0
0.057155 -0.074349 0.0
0.111674 -0.180678 0.0
0.168216 -0.266453 0.0
0.227392 -0.324901 0.0
0.292543 -0.350193 0.0
0.367743 -0.338514 0.0
0.455825 -0.289875 0.0
0.556994 -0.209731 0.0
0.668169 -0.108904 0.0
0.776953 -0.007451 0.0
0.867307 0.077160 0.0
0.936189 0.143103 0.0
0.987916 0.195446 0.0
1.024527 0.236366 0.0
1.047326 0.266954 0.0
1.057450 0.288036 0.0
1.055935 0.300481 0.0
1.043606 0.305397 0.0
1.020852 0.304422 0.0
0.987488 0.300075 0.0
0.943203 0.295521 0.0
0.889095 0.292740 0.0
0.829671 0.289450 0.0
0.773191 0.277951 0.0
0.728792 0.249025 0.0
0.702147 0.198530 0.0
0.693490 0.130221 0.0
0.699270 0.052725 0.0
0.714671 -0.024601 0.0
0.735278 -0.093984 0.0
0.757928 -0.152358 0.0
0.780560 -0.199072 0.0
0.801881 -0.234593 0.0
0.821302 -0.259837 0.0
0.838963 -0.275669 0.0
0.855754 -0.282470 0.0
0.873185 -0.279875 0.0
0.893032 -0.266878 0.0
0.916819 -0.242359 0.0
0.945330 -0.205892 0.0
0.978363 -0.158420 0.0
1.014779 -0.102502 0.0
1.052654 -0.042128 0.0
1.088434 0.016412 0.0
1.118356 0.067216 0.0
1.140654 0.108575 0.0
1.154855 0.140271 0.0
1.161061 0.162914 0.0
1.159673 0.177700 0.0
1.151245 0.186266 0.0
1.136423 0.190537 0.0
1.115993 0.192483 0.0
1.090987 0.193662 0.0
1.062800 0.194652 0.0
1.033219 0.194618 0.0
1.004278 0.191401 0.0
0.977955 0.182278 0.0
0.955839 0.165095 0.0
0.938929 0.139145 0.0
0.927627 0.105393 0.0
0.921892 0.066075 0.0
0.921368 0.024072 0.0
0.925428 -0.017558 0.0
0.933172 -0.055910 0.0
0.943528 -0.088951 0.0
0.955398 -0.115450 0.0
0.967761 -0.134825 0.0
0.979757 -0.146955 0.0
0.990746 -0.151960 0.0
1.000332 -0.149972 0.0
1.008353 -0.140932 0.0
1.014827 -0.124605 0.0
1.019677 -0.097211 0.0
0.998320 -0.011918 0.0
0.991396 -0.036030 0.0
0.976631 -0.061522 0.0
0.951862 -0.089711 0.0
0.912906 -0.122323 0.0
0.851684 -0.161707 0.0
0.751386 -0.210848 0.0
0.571888 -0.272052 0.0
0.227588 -0.331201 0.0
0.000000 0.281400 0.0
-0.000000 -0.000000 0.0
0.000000 0.000000 0.0
-0.043010 -0.043631 0.0
-0.087794 -0.136349 0.0
-0.084605 -0.148053 0.0
-0.066302 -0.077038 0.0
-0.037983 0.028882 0.0
-0.015835 0.129951 0.0
-0.010389 0.222413 0.0
-0.022185 0.303249 0.0
-0.048150 0.366556 0.0
-0.081237 0.403587 0.0
-0.111583 0.404060 0.0
-0.128458 0.360232 0.0
-0.122100 0.270415 0.0
-0.089119 0.146584 0.0
-0.033339 -0.004325 0.0
0.029051 -0.130461 0.0
0.084909 -0.234943 0.0
0.134567 -0.318387 0.0
0.179745 -0.377320 0.0
0.224967 -0.408146 0.0
0.276576 -0.407369 0.0
0.340481 -0.373007 0.0
0.419590 -0.306876 0.0
0.512537 -0.215881 0.0
0.614239 -0.110959 0.0
0.713149 -0.008597 0.0
0.796080 0.077048 0.0
0.860194 0.145659 0.0
0.908497 0.201240 0.0
0.942384 0.245394 0.0
0.962769 0.279088 0.0
0.970359 0.303354 0.0
0.965593 0.319619 0.0
0.948574 0.329973 0.0
0.919368 0.337094 0.0
0.879078 0.343077 0.0
0.831453 0.346917 0.0
0.783613 0.342537 0.0
0.744249 0.320709 0.0
0.719852 0.275063 0.0
0.712127 0.206863 0.0
0.718703 0.123970 0.0
0.735639 0.036259 0.0
0.758650 -0.046547 0.0
0.783984 -0.117980 0.0
0.809115 -0.176143 0.0
0.832300 -0.221103 0.0
0.852345 -0.253928 0.0
0.868590 -0.276167 0.0
0.880995 -0.289405 0.0
0.890267 -0.294797 0.0
0.897914 -0.292625 0.0
0.906065 -0.282125 0.0
0.916991 -0.261824 0.0
0.932447 -0.230395 0.0
0.953163 -0.187666 0.0
0.978701 -0.135210 0.0
1.007674 -0.076268 0.0
1.037858 -0.015411 0.0
1.065976 0.040998 0.0
1.089226 0.089245 0.0
1.106350 0.128275 0.0
1.116841 0.158212 0.0
1.120644 0.179986 0.0
1.117985 0.195069 0.0
1.109310 0.205231 0.0
1.095326 0.212202 0.0
1.077088 0.217187 0.0
1.056048 0.220354 0.0
1.033990 0.220555 0.0
1.012799 0.215596 0.0
0.994136 0.203069 0.0
0.979181 0.181374 0.0
0.968559 0.150399 0.0
0.962449 0.111552 0.0
0.960752 0.067349 0.0
0.963184 0.020890 0.0
0.969186 -0.024440 0.0
0.977896 -0.065483 0.0
0.988298 -0.100136 0.0
0.999372 -0.127208 0.0
1.010187 -0.146245 0.0
1.019978 -0.157323 0.0
1.028208 -0.160811 0.0
1.034618 -0.157117 0.0
1.039235 -0.146426 0.0
1.042342 -0.128691 0.0
1.044213 -0.099845 0.0
0.998107 -0.008345 0.0
0.990340 -0.024913 0.0
0.973912 -0.041446 0.0
0.946756 -0.057863 0.0
0.905151 -0.073610 0.0
0.842885 -0.086933 0.0
0.750478 -0.092917 0.0
0.616569 -0.076577 0.0
0.438368 0.001598 0.0
0.169465 0.151407 0.0
0.000000 0.000000 0.0
-0.000000 -0.000000 0.0
0.000000 0.000000 0.0
-0.065031 -0.067288 0.0
-0.141264 -0.141813 0.0
-0.160786 -0.082059 0.0
-0.169656 0.014455 0.0
-0.167468 0.120041 0.0
-0.162963 0.222372 0.0
-0.161636 0.313759 0.0
-0.163499 0.383874 0.0
-0.164479 0.420338 0.0
-0.158407 0.411584 0.0
-0.137864 0.349040 0.0
-0.088998 0.226381 0.0
-0.010757 0.079396 0.0
0.066050 -0.069722 0.0
0.126784 -0.188188 0.0
0.178024 -0.284312 0.0
0.218163 -0.358815 0.0
0.247420 -0.411329 0.0
0.269381 -0.441321 0.0
0.290830 -0.447253 0.0
0.320361 -0.426560 0.0
0.365338 -0.377409 0.0
0.428581 -0.301539 0.0
0.507211 -0.205633 0.0
0.594338 -0.099961 0.0
0.678560 0.001260 0.0
0.749321 0.086571 0.0
0.804458 0.156888 0.0
0.845480 0.214836 0.0
0.873052 0.261690 0.0
0.887504 0.298710 0.0
0.888970 0.327564 0.0
0.877645 0.350372 0.0
0.854524 0.369022 0.0
0.822583 0.383380 0.0
0.787601 0.389222 0.0
0.757263 0.378411 0.0
0.738303 0.343159 0.0
0.733728 0.281584 0.0
0.742560 0.199234 0.0
0.761785 0.105798 0.0
0.787973 0.011307 0.0
0.817253 -0.073887 0.0
0.846265 -0.144986 0.0
0.872962 -0.200965 0.0
0.895931 -0.242436 0.0
0.914218 -0.270928 0.0
0.927273 -0.288467 0.0
0.934989 -0.297226 0.0
0.937843 -0.299103 0.0
0.937081 -0.295204 0.0
0.934781 -0.285398 0.0
0.933594 -0.268289 0.0
0.936108 -0.241900 0.0
0.944092 -0.204860 0.0
0.958016 -0.157478 0.0
0.977095 -0.102052 0.0
0.999682 -0.042398 0.0
1.023224 0.016324 0.0
1.044888 0.069006 0.0