# vtk DataFile Version 3.0
Vector Field
ASCII
DATASET RECTILINEAR_GRID
DIMENSIONS 100 26 1
X_COORDINATES 100 double
0.050000 0.150000 0.250000 0.350000 0.450000 0.550000 0.650000 0.750000 0.850000 0.950000 1.050000 1.150000 1.250000 1.350000 1.450000 1.550000 1.650000 1.750000 1.850000 1.950000 2.050000 2.150000 2.250000 2.350000 2.450000 2.550000 2.650000 2.750000 2.850000 2.950000 3.050000 3.150000 3.250000 3.350000 3.450000 3.550000 3.650000 3.750000 3.850000 3.950000 4.050000 4.150000 4.250000 4.350000 4.450000 4.550000 4.650000 4.750000 4.850000 4.950000 5.050000 5.150000 5.250000 5.350000 5.450000 5.550000 5.650000 5.750000 5.850000 5.950000 6.050000 6.150000 6.250000 6.350000 6.450000 6.550000 6.650000 6.750000 6.850000 6.950000 7.050000 7.150000 7.250000 7.350000 7.450000 7.550000 7.650000 7.750000 7.850000 7.950000 8.050000 8.150000 8.250000 8.350000 8.450000 8.550000 8.650000 8.750000 8.850000 8.950000 9.050000 9.150000 9.250000 9.350000 9.450000 9.550000 9.650000 9.750000 9.850000 9.950000 
Y_COORDINATES 26 double
0.050000 0.150000 0.250000 0.350000 0.450000 0.550000 0.650000 0.750000 0.850000 0.950000 1.050000 1.150000 1.250000 1.350000 1.450000 1.550000 1.650000 1.750000 1.850000 1.950000 2.050000 2.150000 2.250000 2.350000 2.450000 2.550000 
Z_COORDINATES 1 double
0.0
POINT_DATA 2600
VECTORS Vektorfeld double
0.997732 0.002268 0.0
0.993247 0.002217 0.0
0.990464 0.000566 0.0
0.991673 -0.001775 0.0
0.997836 -0.004388 0.0
1.009216 -0.006991 0.0
1.025514 -0.009307 0.0
1.045867 -0.011047 0.0
1.068862 -0.011948 0.0
1.092645 -0.011835 0.0
1.115163 -0.010684 0.0
1.134468 -0.008621 0.0
1.148944 -0.005855 0.0
1.157434 -0.002636 0.0
1.159413 0.000656 0.0
1.154784 0.003973 0.0
1.143532 0.007279 0.0
1.125793 0.010461 0.0
1.101941 0.013391 0.0
1.072611 0.015939 0.0
1.038685 0.017988 0.0
1.001264 0.019433 0.0
0.961635 0.020196 0.0
0.921209 0.020229 0.0
0.881462 0.019517 0.0
0.843861 0.018084 0.0
0.809785 0.015993 0.0
0.780437 0.013355 0.0
0.756764 0.010319 0.0
0.739367 0.007078 0.0
0.728415 0.003874 0.0
0.723665 0.000877 0.0
0.724344 -0.001556 0.0
0.728656 -0.002757 0.0
0.734084 -0.002671 0.0
0.738273 -0.001518 0.0
0.739152 0.000638 0.0
0.734580 0.003933 0.0
0.722694 0.007953 0.0
0.702498 0.012243 0.0
0.673874 0.016381 0.0
0.637488 0.020004 0.0
0.594672 0.022812 0.0
0.547278 0.024581 0.0
0.497580 0.025118 0.0
0.448361 0.024100 0.0
0.403359 0.020902 0.0
0.367531 0.014926 0.0
0.345851 0.006753 0.0
0.339959 -0.000862 0.0
0.345648 -0.004827 0.0
0.356864 -0.006388 0.0
0.370306 -0.007054 0.0
0.384459 -0.007098 0.0
0.398210 -0.006654 0.0
0.410698 -0.005834 0.0
0.421294 -0.004761 0.0
0.429611 -0.003556 0.0
0.435510 -0.002342 0.0
0.439096 -0.001244 0.0
0.440682 -0.000342 0.0
0.440436 0.000587 0.0
0.438020 0.001829 0.0
0.432828 0.003364 0.0
0.424470 0.004994 0.0
0.412922 0.006554 0.0
0.398535 0.007833 0.0
0.382152 0.008551 0.0
0.365116 0.008485 0.0
0.348984 0.007648 0.0
0.334960 0.006375 0.0
0.323412 0.005172 0.0
0.313816 0.004424 0.0
0.305214 0.004177 0.0
0.296885 0.004153 0.0
0.288754 0.003978 0.0
0.281349 0.003426 0.0
0.275407 0.002516 0.0
0.271445 0.001446 0.0
0.269544 0.000454 0.0
0.269388 -0.000298 0.0
0.270453 -0.000768 0.0
0.272285 -0.001065 0.0
0.274599 -0.001249 0.0
0.277151 -0.001303 0.0
0.279682 -0.001228 0.0
0.281960 -0.001049 0.0
0.283819 -0.000809 0.0
0.285175 -0.000547 0.0
0.285989 -0.000267 0.0
0.286194 0.000061 0.0
0.285696 0.000437 0.0
0.284461 0.000797 0.0
0.282576 0.001088 0.0
0.280214 0.001274 0.0
0.277616 0.001325 0.0
0.275087 0.001204 0.0
0.273017 0.000866 0.0
0.271797 0.000354 0.0
0.271271 0.000171 0.0
1.003023 0.001513 0.0
1.011821 -0.001340 0.0
1.025602 -0.006877 0.0
1.043830 -0.013769 0.0
1.066516 -0.021242 0.0
1.093622 -0.028624 0.0
1.124835 -0.035184 0.0
1.159419 -0.040107 0.0
1.196149 -0.042613 0.0
1.233345 -0.042148 0.0
1.269121 -0.038665 0.0
1.301757 -0.032581 0.0
1.329921 -0.024534 0.0
1.352662 -0.015187 0.0
1.369101 -0.005210 0.0
1.378540 0.005030 0.0
1.380757 0.015256 0.0
1.375881 0.025098 0.0
1.364312 0.034174 0.0
1.346701 0.042096 0.0
1.323957 0.048502 0.0
1.297217 0.053080 0.0
1.267804 0.055591 0.0
1.237176 0.055889 0.0
1.206852 0.053929 0.0
1.178341 0.049785 0.0
1.153055 0.043654 0.0
1.132229 0.035868 0.0
1.116825 0.026882 0.0
1.107461 0.017274 0.0
1.104381 0.007710 0.0
1.107282 -0.001110 0.0
1.115082 -0.008047 0.0
1.126412 -0.011908 0.0
1.139614 -0.012150 0.0
1.152097 -0.008710 0.0
1.160847 -0.001798 0.0
1.163536 0.008253 0.0
1.158600 0.020456 0.0
1.145038 0.033498 0.0
1.122663 0.046125 0.0
1.092070 0.057239 0.0
1.054527 0.065938 0.0
1.011872 0.071504 0.0
0.966459 0.073307 0.0
0.921023 0.070565 0.0
0.878176 0.062287 0.0
0.839335 0.048210 0.0
0.803922 0.030562 0.0
0.771209 0.013935 0.0
0.744569 0.001327 0.0
0.728957 -0.008145 0.0
0.724594 -0.014378 0.0
0.728455 -0.017788 0.0
0.737938 -0.019199 0.0
0.751309 -0.019148 0.0
0.767336 -0.018070 0.0
0.785055 -0.016285 0.0
0.803560 -0.014017 0.0
0.821792 -0.011387 0.0
0.838379 -0.008371 0.0
0.851959 -0.004718 0.0
0.861876 -0.000367 0.0
0.868266 0.004363 0.0
0.871432 0.009187 0.0
0.871619 0.013723 0.0
0.869098 0.017573 0.0
0.863994 0.020298 0.0
0.856135 0.021631 0.0
0.845029 0.021741 0.0
0.830072 0.021263 0.0
0.810984 0.020920 0.0
0.788230 0.021028 0.0
0.763131 0.021273 0.0
0.737657 0.020860 0.0
0.714035 0.019024 0.0
0.694300 0.015520 0.0
0.679853 0.010812 0.0
0.671132 0.005833 0.0
0.667582 0.001518 0.0
0.667896 -0.001519 0.0
0.670693 -0.003408 0.0
0.675102 -0.004665 0.0
0.680699 -0.005560 0.0
0.687127 -0.005972 0.0
0.693897 -0.005861 0.0
0.700466 -0.005264 0.0
0.706273 -0.004261 0.0
0.710794 -0.002973 0.0
0.713656 -0.001517 0.0
0.714709 0.000053 0.0
0.713892 0.001762 0.0
0.711166 0.003433 0.0
0.706662 0.004841 0.0
0.700712 0.005832 0.0
0.693795 0.006283 0.0
0.686483 0.006087 0.0
0.679382 0.005155 0.0
0.673161 0.003506 0.0
0.669657 0.001048 0.0
1.001928 -0.003438 0.0
1.008878 -0.012136 0.0
1.021650 -0.022635 0.0
1.039819 -0.034408 0.0
1.063357 -0.046826 0.0
1.092276 -0.059066 0.0
1.126354 -0.070033 0.0
1.164875 -0.078362 0.0
1.206425 -0.082639 0.0
1.248799 -0.081693 0.0
1.289419 -0.075517 0.0
1.326119 -0.065064 0.0
1.357480 -0.051575 0.0
1.382723 -0.036130 0.0
1.401494 -0.019478 0.0
1.413652 -0.002299 0.0
1.419169 0.014852 0.0
1.418176 0.031371 0.0
1.411000 0.046647 0.0
1.398184 0.060048 0.0
1.380502 0.070976 0.0
1.358927 0.078921 0.0
1.334590 0.083498 0.0
1.308726 0.084473 0.0
1.282616 0.081779 0.0
1.257528 0.075534 0.0
1.234666 0.066053 0.0
1.215111 0.053851 0.0
1.199784 0.039630 0.0
1.189428 0.024246 0.0
1.184571 0.008674 0.0
1.185500 -0.005903 0.0
1.192392 -0.017945 0.0
1.205052 -0.026001 0.0
1.222400 -0.028607 0.0
1.242385 -0.024720 0.0
1.262121 -0.014274 0.0
1.278543 0.001618 0.0
1.289294 0.021276 0.0
1.292937 0.042597 0.0
1.288803 0.063534 0.0
1.276933 0.082293 0.0
1.257970 0.097391 0.0
1.233040 0.107634 0.0
1.203600 0.112030 0.0
1.171147 0.109731 0.0
1.136797 0.100318 0.0
1.101119 0.084699 0.0
1.064856 0.065748 0.0
1.029718 0.046599 0.0
0.996944 0.028076 0.0
0.966492 0.011171 0.0
0.939845 -0.002684 0.0
0.919794 -0.013290 0.0
0.907211 -0.020597 0.0
0.901238 -0.025148 0.0
0.900764 -0.027623 0.0
0.904789 -0.028477 0.0
0.912440 -0.027981 0.0
0.923010 -0.026224 0.0
0.936037 -0.023149 0.0
0.951303 -0.018787 0.0
0.968534 -0.013447 0.0
0.987120 -0.007534 0.0
1.006367 -0.001329 0.0
1.025586 0.004832 0.0
1.043939 0.010633 0.0
1.060408 0.015872 0.0
1.073798 0.020526 0.0
1.082934 0.024816 0.0
1.086891 0.029188 0.0
1.085200 0.033774 0.0
1.078002 0.038127 0.0
1.065879 0.041395 0.0
1.049562 0.042529 0.0
1.029720 0.040820 0.0
1.006879 0.036300 0.0
0.981564 0.029795 0.0
0.954635 0.022500 0.0
0.927691 0.015345 0.0
0.903366 0.008665 0.0
0.884643 0.002334 0.0
0.873230 -0.003402 0.0
0.868599 -0.007790 0.0
0.869017 -0.010587 0.0
0.873065 -0.012064 0.0
0.879804 -0.012369 0.0
0.888378 -0.011537 0.0
0.897832 -0.009671 0.0
0.907081 -0.006928 0.0
0.915040 -0.003547 0.0
0.921050 0.000168 0.0
0.924966 0.003836 0.0
0.926843 0.007066 0.0
0.926904 0.009497 0.0
0.925588 0.010853 0.0
0.923464 0.010952 0.0
0.921148 0.009707 0.0
0.919203 0.007120 0.0
0.918227 0.001914 0.0
1.001544 -0.006910 0.0
1.007584 -0.021654 0.0
1.019469 -0.037774 0.0
1.037238 -0.055208 0.0
1.061193 -0.073518 0.0
1.091711 -0.091811 0.0
1.128956 -0.108611 0.0
1.172437 -0.121786 0.0
1.220621 -0.128950 0.0
1.270262 -0.127395 0.0
1.317237 -0.117410 0.0
1.358572 -0.101206 0.0
1.392884 -0.081107 0.0
1.419807 -0.058762 0.0
1.439347 -0.035157 0.0
1.451557 -0.010988 0.0
1.456561 0.013020 0.0
1.454591 0.036165 0.0
1.446011 0.057610 0.0
1.431444 0.076468 0.0
1.411776 0.091906 0.0
1.388101 0.103241 0.0
1.361636 0.109980 0.0
1.333653 0.111838 0.0
1.305429 0.108750 0.0
1.278202 0.100878 0.0
1.253151 0.088622 0.0
1.231371 0.072616 0.0
1.213866 0.053696 0.0
1.201560 0.032842 0.0
1.195370 0.011125 0.0
1.196242 -0.010155 0.0
1.204897 -0.029239 0.0
1.221328 -0.043799 0.0
1.244440 -0.051269 0.0
1.271958 -0.049561 0.0
1.300667 -0.037878 0.0
1.326890 -0.017424 0.0
1.347537 0.008920 0.0
1.361035 0.037813 0.0
1.367045 0.066442 0.0
1.365830 0.092470 0.0
1.357988 0.114020 0.0
1.344282 0.129640 0.0
1.325492 0.138254 0.0
1.302258 0.139195 0.0
1.274982 0.132480 0.0
1.243989 0.119209 0.0
1.209964 0.101526 0.0
1.174174 0.081750 0.0
1.138173 0.061700 0.0
1.103478 0.042694 0.0
1.070916 0.025003 0.0
1.040747 0.009243 0.0
1.014126 -0.003926 0.0
0.992663 -0.014383 0.0
0.976860 -0.022112 0.0
0.966250 -0.027403 0.0
0.960119 -0.030575 0.0
0.957801 -0.031882 0.0
0.958898 -0.031616 0.0
0.963448 -0.030135 0.0
0.971922 -0.027803 0.0
0.985095 -0.024936 0.0
1.003705 -0.021783 0.0
1.028043 -0.018272 0.0
1.057572 -0.014145 0.0
1.090721 -0.008968 0.0
1.124960 -0.002263 0.0
1.157165 0.006264 0.0
1.184551 0.016397 0.0
1.205525 0.027282 0.0
1.219550 0.037792 0.0
1.226466 0.046936 0.0
1.226215 0.053556 0.0
1.218905 0.056945 0.0
1.204892 0.057028 0.0
1.184988 0.054285 0.0
1.160572 0.049355 0.0
1.133375 0.042631 0.0
1.104896 0.034183 0.0
1.076053 0.024382 0.0
1.047807 0.014209 0.0
1.022312 0.004725 0.0
1.002335 -0.003544 0.0
0.989195 -0.010015 0.0
0.982253 -0.014214 0.0
0.980131 -0.016145 0.0
0.981562 -0.015949 0.0
0.985409 -0.013746 0.0
0.990593 -0.009872 0.0
0.996058 -0.004983 0.0
1.000924 0.000205 0.0
1.004724 0.005020 0.0
1.007385 0.008820 0.0
1.009120 0.011111 0.0
1.010327 0.011611 0.0
1.011439 0.010252 0.0
1.012800 0.007159 0.0
1.013894 0.001758 0.0
1.001348 -0.009802 0.0
1.006784 -0.030239 0.0
1.017855 -0.052145 0.0
1.035044 -0.075794 0.0
1.059165 -0.101008 0.0
1.091265 -0.126940 0.0
1.132306 -0.151768 0.0
1.182475 -0.172278 0.0
1.240641 -0.184808 0.0
1.301339 -0.181875 0.0
1.356849 -0.165416 0.0
1.403171 -0.140857 0.0
1.439793 -0.112392 0.0
1.467587 -0.082193 0.0
1.487364 -0.051044 0.0
1.499368 -0.019315 0.0
1.503530 0.012181 0.0
1.499861 0.042643 0.0
1.488615 0.070959 0.0
1.470434 0.095868 0.0
1.446372 0.116235 0.0
1.417766 0.131194 0.0
1.386084 0.140175 0.0
1.352822 0.142887 0.0
1.319450 0.139298 0.0
1.287377 0.129630 0.0
1.257940 0.114359 0.0
1.232386 0.094214 0.0
1.211850 0.070141 0.0
1.197351 0.043202 0.0
1.189873 0.014433 0.0
1.190475 -0.014939 0.0
1.200061 -0.042696 0.0
1.218851 -0.065564 0.0
1.246048 -0.079813 0.0
1.279759 -0.082245 0.0
1.316931 -0.071074 0.0
1.353286 -0.046806 0.0
1.383861 -0.012920 0.0
1.405171 0.024844 0.0
1.416810 0.061762 0.0
1.420053 0.095122 0.0
1.416286 0.122977 0.0
1.406685 0.143990 0.0
1.392066 0.157313 0.0
1.372861 0.162576 0.0
1.349223 0.160014 0.0
1.321276 0.150614 0.0
1.289427 0.135994 0.0
1.254509 0.117989 0.0
1.217698 0.098273 0.0
1.180317 0.078197 0.0
1.143651 0.058728 0.0
1.108827 0.040510 0.0
1.076532 0.023722 0.0
1.047131 0.008832 0.0
1.021214 -0.003607 0.0
0.999191 -0.013273 0.0
0.980694 -0.020077 0.0
0.965000 -0.024368 0.0
0.951747 -0.026974 0.0
0.941351 -0.028930 0.0
0.935015 -0.031145 0.0
0.934456 -0.034208 0.0
0.941449 -0.038115 0.0
0.957281 -0.042110 0.0
0.982380 -0.044935 0.0
1.016248 -0.045195 0.0
1.057599 -0.041628 0.0
1.104440 -0.033416 0.0
1.153725 -0.020595 0.0
1.201070 -0.004045 0.0
1.241660 0.014504 0.0
1.272506 0.032462 0.0
1.293032 0.047754 0.0
1.303522 0.059567 0.0
1.304474 0.067467 0.0
1.296784 0.071440 0.0
1.281728 0.071673 0.0
1.260812 0.068427 0.0
1.235591 0.062086 0.0
1.207633 0.053280 0.0
1.178494 0.042696 0.0
1.149387 0.030840 0.0
1.121123 0.018583 0.0
1.094905 0.007218 0.0
1.072602 -0.002202 0.0
1.055528 -0.008962 0.0
1.043511 -0.012545 0.0
1.035422 -0.012909 0.0
1.029957 -0.010427 0.0
1.025896 -0.005831 0.0
1.022218 -0.000136 0.0
1.018272 0.005508 0.0
1.013895 0.010048 0.0
1.009343 0.012700 0.0
1.005098 0.013061 0.0
1.001679 0.011109 0.0
0.999463 0.007156 0.0
0.998470 0.001660 0.0
1.001151 -0.012301 0.0
1.005868 -0.037893 0.0
1.015721 -0.065415 0.0
1.031581 -0.095573 0.0
1.054881 -0.128650 0.0
1.087640 -0.164156 0.0
1.132263 -0.200217 0.0
1.190547 -0.232283 0.0
1.263702 -0.256125 0.0
1.340588 -0.248142 0.0
1.404841 -0.218912 0.0
1.452837 -0.181679 0.0
1.487685 -0.143040 0.0
1.513214 -0.104868 0.0
1.531737 -0.066669 0.0
1.543544 -0.027501 0.0
1.547624 0.012125 0.0
1.543024 0.050966 0.0
1.529533 0.087374 0.0
1.507727 0.119440 0.0
1.478869 0.145581 0.0
1.444610 0.164713 0.0
1.406736 0.176212 0.0
1.367032 0.179816 0.0
1.327218 0.175555 0.0
1.288944 0.163721 0.0
1.253772 0.144876 0.0
1.223148 0.119874 0.0
1.198313 0.089851 0.0
1.180164 0.056139 0.0
1.169116 0.020023 0.0
1.165414 -0.017429 0.0
1.169666 -0.054044 0.0
1.182533 -0.085872 0.0
1.204347 -0.108517 0.0
1.235211 -0.118117 0.0
1.274499 -0.111663 0.0
1.319659 -0.087732 0.0
1.365104 -0.048014 0.0
1.402677 0.001055 0.0
1.427057 0.049534 0.0
1.438880 0.092284 0.0
1.440888 0.127573 0.0
1.435337 0.154546 0.0
1.423789 0.172924 0.0
1.407134 0.182824 0.0
1.385785 0.184754 0.0
1.359955 0.179651 0.0
1.329947 0.168815 0.0
1.296324 0.153710 0.0
1.259930 0.135758 0.0
1.221817 0.116206 0.0
1.183138 0.096064 0.0
1.145027 0.076110 0.0
1.108465 0.056979 0.0
1.074107 0.039335 0.0
1.042010 0.023904 0.0
1.011616 0.011633 0.0
0.982104 0.003024 0.0
0.952847 -0.002518 0.0
0.924002 -0.006724 0.0
0.897119 -0.011901 0.0
0.875226 -0.019945 0.0
0.861798 -0.031420 0.0
0.859357 -0.045456 0.0
0.868824 -0.060069 0.0
0.889693 -0.072945 0.0
0.920676 -0.082035 0.0
0.960265 -0.085729 0.0
1.006981 -0.082871 0.0
1.059339 -0.072783 0.0
1.115604 -0.055468 0.0
1.173095 -0.032154 0.0
1.226955 -0.005585 0.0
1.271290 0.020940 0.0
1.303122 0.044059 0.0
1.322702 0.062443 0.0
1.331085 0.075771 0.0
1.329532 0.083950 0.0
1.319486 0.087113 0.0
1.302490 0.085617 0.0
1.280149 0.080047 0.0
1.254069 0.071147 0.0
1.225784 0.059780 0.0
1.196733 0.046957 0.0
1.168144 0.033650 0.0
1.140852 0.020961 0.0
1.115467 0.010333 0.0
1.092571 0.003073 0.0
1.072278 -0.000146 0.0
1.053909 0.000644 0.0
1.036412 0.004655 0.0
1.018996 0.010471 0.0
1.001477 0.016367 0.0
0.984272 0.020770 0.0
0.968205 0.022597 0.0
0.954222 0.021391 0.0
0.943132 0.017288 0.0
0.935433 0.010891 0.0
0.931608 0.002742 0.0
1.000871 -0.014323 0.0
1.004488 -0.044205 0.0
1.012251 -0.076719 0.0
1.025302 -0.113180 0.0
1.045647 -0.154687 0.0
1.076487 -0.201718 0.0
1.122468 -0.253259 0.0
1.188784 -0.303841 0.0
1.284344 -0.353281 0.0
1.382198 -0.325727 0.0
1.447129 -0.270511 0.0
1.484420 -0.215367 0.0
1.506715 -0.166494 0.0
1.522706 -0.122934 0.0
1.536720 -0.081140 0.0
1.548875 -0.036991 0.0
1.555630 0.010781 0.0
1.553265 0.059274 0.0
1.540383 0.105439 0.0
1.517388 0.146177 0.0
1.485814 0.179276 0.0
1.447653 0.203439 0.0
1.404970 0.218042 0.0
1.359764 0.222895 0.0
1.313951 0.218102 0.0
1.269375 0.204024 0.0
1.227804 0.181315 0.0
1.190858 0.151006 0.0
1.159832 0.114581 0.0
1.135328 0.074062 0.0
1.116595 0.031881 0.0
1.101377 -0.010367 0.0
1.088839 -0.052821 0.0
1.081070 -0.092193 0.0
1.081643 -0.124583 0.0
1.094812 -0.146084 0.0
1.123838 -0.152009 0.0
1.169147 -0.137855 0.0
1.227301 -0.101491 0.0
1.290089 -0.045829 0.0
1.344086 0.018041 0.0
1.380711 0.075327 0.0
1.401526 0.121707 0.0
1.410242 0.157247 0.0
1.409503 0.182511 0.0
1.401080 0.198313 0.0
1.386098 0.205595 0.0
1.365301 0.205437 0.0
1.339302 0.199036 0.0
1.308765 0.187648 0.0
1.274488 0.172489 0.0
1.237409 0.154666 0.0
1.198553 0.135138 0.0
1.158941 0.114758 0.0
1.119403 0.094430 0.0
1.080291 0.075355 0.0
1.041185 0.059087 0.0
1.000969 0.047060 0.0
0.958606 0.039472 0.0
0.914460 0.034436 0.0
0.871266 0.028361 0.0
0.833582 0.017580 0.0
0.805858 0.000189 0.0
0.790956 -0.023223 0.0
0.789609 -0.049865 0.0
0.800600 -0.076118 0.0
0.821854 -0.099020 0.0
0.851456 -0.116544 0.0
0.887983 -0.127336 0.0
0.930449 -0.130446 0.0
0.978099 -0.125216 0.0
1.030153 -0.111354 0.0
1.085517 -0.089123 0.0
1.142548 -0.059507 0.0
1.198220 -0.025144 0.0
1.246969 0.009562 0.0
1.284009 0.040320 0.0
1.308486 0.065034 0.0
1.321378 0.083346 0.0
1.323916 0.095225 0.0
1.317492 0.100924 0.0
1.303605 0.100969 0.0
1.283790 0.096120 0.0
1.259562 0.087321 0.0
1.232349 0.075681 0.0
1.203400 0.062466 0.0
1.173678 0.049159 0.0
1.143779 0.037418 0.0
1.113848 0.028816 0.0
1.083699 0.024553 0.0
1.053139 0.024875 0.0
1.022256 0.028804 0.0
0.991600 0.034395 0.0
0.962181 0.039380 0.0
0.935296 0.041846 0.0
0.912216 0.040668 0.0
0.893893 0.035625 0.0
0.880770 0.027267 0.0
0.872739 0.016643 0.0
0.869226 0.004328 0.0
1.000462 -0.015656 0.0
1.002430 -0.048458 0.0
1.006859 -0.084658 0.0
1.014891 -0.126325 0.0
1.028756 -0.175753 0.0
1.052577 -0.235312 0.0
1.093695 -0.306764 0.0
1.163460 -0.386417 0.0
1.289747 -0.492552 0.0
1.405406 -0.399969 0.0
1.442789 -0.298582 0.0
1.443046 -0.224844 0.0
1.434659 -0.170926 0.0
1.429398 -0.129232 0.0
1.432832 -0.092290 0.0
1.445831 -0.050994 0.0
1.461585 0.002274 0.0
1.469898 0.061833 0.0
1.465662 0.119998 0.0
1.448955 0.171320 0.0
1.421766 0.212897 0.0
1.386331 0.243415 0.0
1.344713 0.262367 0.0
1.298839 0.269649 0.0
1.250590 0.265411 0.0
1.201835 0.250046 0.0
1.154389 0.224310 0.0
1.109818 0.189527 0.0
1.069103 0.147799 0.0
1.032174 0.102276 0.0
0.997339 0.057235 0.0
0.960956 0.015881 0.0
0.919383 -0.024957 0.0
0.877851 -0.070756 0.0
0.849880 -0.118621 0.0
0.845461 -0.160796 0.0
0.867184 -0.188045 0.0
0.912728 -0.192673 0.0
0.977927 -0.170027 0.0
1.057581 -0.119735 0.0
1.143423 -0.047892 0.0
1.219558 0.028500 0.0
1.274891 0.092386 0.0
1.311344 0.141398 0.0
1.332973 0.177471 0.0
1.342472 0.202276 0.0
1.341768 0.217319 0.0
1.332304 0.223975 0.0
1.315262 0.223539 0.0
1.291713 0.217232 0.0
1.262702 0.206194 0.0
1.229276 0.191468 0.0
1.192452 0.174017 0.0
1.153083 0.154860 0.0
1.111595 0.135354 0.0
1.067678 0.117461 0.0
1.020327 0.103438 0.0
0.968727 0.094524 0.0
0.913833 0.089264 0.0
0.859438 0.083185 0.0
0.811403 0.070842 0.0
0.775275 0.048912 0.0
0.754077 0.017779 0.0
0.747586 -0.019419 0.0
0.753317 -0.058053 0.0
0.768339 -0.093943 0.0
0.790358 -0.124469 0.0
0.817865 -0.148203 0.0
0.849986 -0.164325 0.0
0.886297 -0.172234 0.0
0.926614 -0.171395 0.0
0.970773 -0.161386 0.0
1.018405 -0.142087 0.0
1.068754 -0.113923 0.0
1.120510 -0.078156 0.0
1.171518 -0.037183 0.0
1.217405 0.004140 0.0
1.253465 0.040678 0.0
1.278152 0.070123 0.0
1.291984 0.092079 0.0
1.295899 0.106579 0.0
1.291073 0.114029 0.0
1.278798 0.115151 0.0
1.260382 0.110934 0.0
1.237046 0.102616 0.0
1.209826 0.091700 0.0
1.179487 0.079984 0.0
1.146515 0.069464 0.0
1.111221 0.061996 0.0
1.073978 0.058765 0.0
1.035477 0.059724 0.0
0.996866 0.063448 0.0
0.959704 0.067570 0.0
0.925725 0.069602 0.0
0.896507 0.067728 0.0
0.873146 0.061227 0.0
0.856067 0.050468 0.0
0.845007 0.036607 0.0
0.839126 0.021215 0.0
0.837071 0.005324 0.0
0.999923 -0.016041 0.0
0.999674 -0.049791 0.0
0.999437 -0.087515 0.0
0.999899 -0.131962 0.0
1.002671 -0.186753 0.0
1.011460 -0.256923 0.0
1.034798 -0.349609 0.0
1.091559 -0.470097 0.0
1.244641 -0.688241 0.0
1.347452 -0.422749 0.0
1.297681 -0.263414 0.0
1.226128 -0.188715 0.0
1.170581 -0.143121 0.0
1.133103 -0.114298 0.0
1.117422 -0.094976 0.0
1.128089 -0.071974 0.0
1.162986 -0.027397 0.0
1.201478 0.044700 0.0
1.224896 0.117949 0.0
1.232517 0.182455 0.0
1.226573 0.234894 0.0
1.209117 0.274310 0.0
1.181764 0.300442 0.0
1.145984 0.313228 0.0
1.103307 0.312760 0.0
1.055319 0.299439 0.0
1.003297 0.274386 0.0
0.947175 0.240145 0.0
0.884181 0.200890 0.0
0.809802 0.160494 0.0
0.724264 0.119390 0.0
0.639784 0.074588 0.0
0.576049 0.021644 0.0
0.544823 -0.044598 0.0
0.545032 -0.117017 0.0
0.569348 -0.182298 0.0
0.610844 -0.229761 0.0
0.666336 -0.251993 0.0
0.734924 -0.244494 0.0
0.816018 -0.206015 0.0
0.907964 -0.139401 0.0
1.005544 -0.053705 0.0
1.093773 0.031028 0.0
1.160922 0.099155 0.0
1.208507 0.150501 0.0
1.240128 0.188125 0.0
1.258119 0.214183 0.0
1.264286 0.230408 0.0
1.260162 0.238272 0.0
1.247130 0.239079 0.0
1.226476 0.234012 0.0
1.199380 0.224171 0.0
1.166846 0.210674 0.0
1.129509 0.194909 0.0
1.087412 0.178890 0.0
1.040015 0.165238 0.0
0.986929 0.156097 0.0
0.929341 0.151054 0.0
0.871145 0.145824 0.0
0.818424 0.133741 0.0
0.777131 0.109614 0.0
0.750657 0.072743 0.0
0.739090 0.026712 0.0
0.740163 -0.022933 0.0
0.750644 -0.070752 0.0
0.767603 -0.113225 0.0
0.788993 -0.148595 0.0
0.813555 -0.176145 0.0
0.840658 -0.195607 0.0
0.870161 -0.206767 0.0
0.902261 -0.209280 0.0
0.937272 -0.202672 0.0
0.975382 -0.186543 0.0
1.016435 -0.160869 0.0
1.059801 -0.126332 0.0
1.104323 -0.084537 0.0
1.148177 -0.038248 0.0
1.187714 0.007469 0.0
1.219032 0.047327 0.0
1.240671 0.079404 0.0
1.252739 0.103270 0.0
1.255835 0.119067 0.0
1.250821 0.127400 0.0
1.238658 0.129264 0.0
1.220271 0.126009 0.0
1.196452 0.119346 0.0
1.167828 0.111302 0.0
1.134926 0.104021 0.0
1.098350 0.099308 0.0
1.059022 0.098025 0.0
1.018345 0.099643 0.0
0.978191 0.102294 0.0
0.940659 0.103418 0.0
0.907691 0.100701 0.0
0.880684 0.092853 0.0
0.860268 0.079879 0.0
0.846288 0.062875 0.0
0.837960 0.043587 0.0
0.834087 0.023989 0.0
0.833258 0.005434 0.0
0.999306 -0.015270 0.0
0.996491 -0.047500 0.0
0.990706 -0.083784 0.0
0.981667 -0.127116 0.0
0.969158 -0.181862 0.0
0.953707 -0.255152 0.0
0.938886 -0.359898 0.0
0.939884 -0.517567 0.0
1.040261 -0.894230 0.0
1.033389 -0.206223 0.0
0.833569 -0.111973 0.0
0.682181 -0.105315 0.0
0.596265 -0.085058 0.0
0.541275 -0.079894 0.0
0.523334 -0.095758 0.0
0.549719 -0.108243 0.0
0.615015 -0.091322 0.0
0.706791 -0.021643 0.0
0.792498 0.075166 0.0
0.851521 0.158596 0.0
0.889252 0.226965 0.0
0.908257 0.280691 0.0
0.909788 0.319882 0.0
0.894848 0.344509 0.0
0.864249 0.354755 0.0
0.818150 0.351529 0.0
0.755438 0.337030 0.0
0.674450 0.314609 0.0
0.577315 0.286555 0.0
0.475822 0.250702 0.0
0.390151 0.200391 0.0
0.337845 0.130373 0.0
0.324357 0.043081 0.0
0.341753 -0.052205 0.0
0.375539 -0.143406 0.0
0.416015 -0.220701 0.0
0.461024 -0.277861 0.0
0.511846 -0.310206 0.0
0.570973 -0.313997 0.0
0.640596 -0.287229 0.0
0.721497 -0.231035 0.0
0.812506 -0.150660 0.0
0.908965 -0.056706 0.0
0.997239 0.031466 0.0
1.066417 0.101427 0.0
1.117374 0.154621 0.0
1.152808 0.194263 0.0
1.174512 0.222458 0.0
1.184007 0.240851 0.0
1.182692 0.250846 0.0
1.171869 0.253721 0.0
1.152694 0.250731 0.0
1.126045 0.243297 0.0
1.092347 0.233321 0.0
1.051552 0.223371 0.0
1.003641 0.216065 0.0
0.949773 0.212223 0.0
0.893464 0.208826 0.0
0.840519 0.199194 0.0
0.797147 0.176465 0.0
0.767428 0.137901 0.0
0.752142 0.086217 0.0
0.749520 0.027427 0.0
0.756655 -0.031856 0.0
0.770543 -0.086199 0.0
0.788691 -0.132885 0.0
0.809279 -0.170913 0.0
0.831093 -0.200205 0.0
0.853508 -0.221064 0.0
0.876458 -0.233763 0.0
0.900360 -0.238286 0.0
0.925921 -0.234240 0.0
0.953859 -0.221023 0.0
0.984603 -0.198187 0.0
1.018095 -0.165874 0.0
1.053725 -0.125147 0.0
1.090361 -0.078128 0.0
1.126266 -0.028093 0.0
1.158253 0.019585 0.0
1.183315 0.060446 0.0
1.200357 0.093119 0.0
1.209216 0.117264 0.0
1.210192 0.133242 0.0
1.203801 0.141975 0.0
1.190622 0.144864 0.0
1.171204 0.143727 0.0
1.146078 0.140671 0.0
1.115864 0.137769 0.0
1.081464 0.136535 0.0
1.044238 0.137351 0.0
1.006046 0.139184 0.0
0.969081 0.139873 0.0
0.935498 0.136953 0.0
0.907009 0.128623 0.0
0.884586 0.114362 0.0
0.868395 0.094978 0.0
0.857927 0.072224 0.0
0.852223 0.048271 0.0
0.850093 0.025309 0.0
0.850353 0.004682 0.0
0.998719 -0.013295 0.0
0.993460 -0.041401 0.0
0.982315 -0.072954 0.0
0.963833 -0.110424 0.0
0.935289 -0.157500 0.0
0.891670 -0.220443 0.0
0.823178 -0.311293 0.0
0.710698 -0.454690 0.0
0.320159 -0.773422 0.0
-0.467534 0.280873 0.0
-0.467534 0.000000 0.0
-0.038372 -0.027000 0.0
-0.066486 -0.060715 0.0
-0.024085 -0.091649 0.0
0.049961 -0.140108 0.0
0.131063 -0.171380 0.0
0.207528 -0.169947 0.0
0.289339 -0.116604 0.0
0.382343 -0.008584 0.0
0.467139 0.098527 0.0
0.530297 0.186143 0.0
0.573764 0.259041 0.0
0.596210 0.317554 0.0
0.596377 0.361609 0.0
0.573190 0.391442 0.0
0.526041 0.408090 0.0
0.456568 0.412655 0.0
0.372712 0.403828 0.0
0.290688 0.376496 0.0
0.229767 0.323174 0.0
0.202515 0.240842 0.0
0.209133 0.135610 0.0
0.240356 0.020109 0.0
0.282832 -0.089105 0.0
0.326509 -0.183968 0.0
0.367771 -0.261877 0.0
0.406544 -0.320468 0.0
0.445276 -0.357152 0.0
0.488030 -0.368932 0.0
0.539167 -0.353054 0.0
0.601719 -0.308663 0.0
0.676215 -0.238535 0.0
0.760492 -0.149567 0.0
0.849194 -0.052649 0.0
0.930260 0.035299 0.0
0.994770 0.105283 0.0
1.043259 0.159678 0.0
1.077469 0.201129 0.0
1.098703 0.231450 0.0
1.108147 0.252119 0.0
1.106902 0.264516 0.0
1.095912 0.270101 0.0
1.075830 0.270659 0.0
1.046961 0.268526 0.0
1.009558 0.266362 0.0
0.964665 0.265878 0.0
0.915202 0.265740 0.0
0.866327 0.260494 0.0
0.824184 0.242614 0.0
0.793564 0.207038 0.0
0.776256 0.154354 0.0
0.771286 0.090020 0.0
0.776316 0.021217 0.0
0.788593 -0.045059 0.0
0.805483 -0.103775 0.0
0.824831 -0.152805 0.0
0.844937 -0.191685 0.0
0.864563 -0.220874 0.0
0.882995 -0.241242 0.0
0.900109 -0.253649 0.0
0.916380 -0.258573 0.0
0.932772 -0.255905 0.0
0.950469 -0.244992 0.0
0.970512 -0.225005 0.0
0.993466 -0.195502 0.0
1.019257 -0.156938 0.0
1.047197 -0.110913 0.0
1.076114 -0.060130 0.0
1.104168 -0.008420 0.0
1.128676 0.038881 0.0
1.147459 0.078860 0.0
1.159621 0.110501 0.0
1.164867 0.133784 0.0
1.163240 0.149452 0.0
1.154955 0.158852 0.0
1.140329 0.163782 0.0
1.119818 0.166253 0.0
1.094137 0.168081 0.0
1.064421 0.170340 0.0
1.032299 0.172895 0.0
0.999804 0.174326 0.0
0.969084 0.172417 0.0
0.942004 0.165071 0.0
0.919826 0.151172 0.0
0.903070 0.130992 0.0
0.891591 0.106018 0.0
0.884774 0.078470 0.0
0.881722 0.050781 0.0
0.881408 0.025241 0.0
0.882854 0.003044 0.0
0.998293 -0.010307 0.0
0.991260 -0.032096 0.0
0.976277 -0.056131 0.0
0.951178 -0.083665 0.0
0.911782 -0.116319 0.0
0.850044 -0.156267 0.0
0.749300 -0.206234 0.0
0.570056 -0.268026 0.0
0.226886 -0.328344 0.0
0.000000 0.280873 0.0
-0.000000 -0.000000 0.0
0.000000 0.000000 0.0
-0.036622 -0.035487 0.0
-0.078292 -0.118743 0.0
-0.074848 -0.190503 0.0
-0.054283 -0.222653 0.0
-0.031781 -0.217641 0.0
-0.000959 -0.181542 0.0
0.058812 -0.096422 0.0
0.136908 0.023472 0.0
0.206992 0.127956 0.0
0.260553 0.220200 0.0
0.293851 0.300653 0.0
0.303631 0.368563 0.0
0.288646 0.422661 0.0
0.251129 0.461536 0.0
0.199719 0.480092 0.0
0.151307 0.468659 0.0
0.123226 0.421770 0.0
0.124568 0.337479 0.0
0.154514 0.223844 0.0
0.204874 0.095629 0.0
0.263009 -0.029268 0.0
0.317977 -0.137172 0.0
0.365428 -0.227029 0.0
0.404271 -0.298921 0.0
0.434890 -0.352817 0.0
0.459630 -0.388276 0.0
0.482934 -0.403867 0.0
0.510705 -0.397026 0.0
0.548627 -0.365165 0.0
0.600017 -0.307918 0.0
0.664545 -0.228990 0.0
0.738635 -0.136018 0.0
0.815884 -0.039647 0.0
0.885810 0.045793 0.0
0.941812 0.114677 0.0
0.984277 0.169455 0.0
1.014091 0.212075 0.0
1.032077 0.244065 0.0
1.038992 0.266900 0.0
1.035453 0.282245 0.0
1.021884 0.292167 0.0
0.998664 0.299108 0.0
0.966687 0.305160 0.0
0.928251 0.310410 0.0
0.887635 0.311287 0.0
0.850500 0.300957 0.0
0.822010 0.272781 0.0
0.804955 0.224546 0.0
0.799355 0.159754 0.0
0.803542 0.085403 0.0
0.815331 0.009014 0.0
0.832281 -0.062082 0.0
0.851979 -0.123340 0.0
0.872463 -0.173071 0.0
0.892149 -0.211211 0.0
0.909837 -0.238662 0.0
0.924769 -0.256818 0.0
0.936724 -0.267142 0.0
0.946112 -0.270738 0.0
0.953969 -0.267988 0.0
0.961787 -0.258424 0.0
0.971152 -0.240982 0.0
0.983302 -0.214629 0.0
0.998790 -0.179090 0.0
1.017412 -0.135325 0.0
1.038342 -0.085564 0.0
1.060315 -0.033013 0.0
1.081334 0.017948 0.0
1.099192 0.063151 0.0
1.112426 0.100814 0.0
1.120217 0.130434 0.0
1.122170 0.152476 0.0
1.118167 0.168116 0.0
1.108321 0.178989 0.0
1.093028 0.186851 0.0
1.073072 0.193120 0.0
1.049714 0.198375 0.0
1.024660 0.202037 0.0
0.999852 0.202487 0.0
0.977132 0.197697 0.0
0.957899 0.186103 0.0
0.942921 0.167296 0.0
0.932350 0.142195 0.0
0.925883 0.112760 0.0
0.922937 0.081491 0.0
0.922772 0.050978 0.0
0.924543 0.023587 0.0
0.927364 0.000432 0.0
0.998109 -0.006708 0.0
0.990336 -0.020889 0.0
0.973868 -0.035888 0.0
0.946621 -0.051562 0.0
0.904866 -0.067272 0.0
0.842421 -0.081131 0.0
0.749889 -0.088095 0.0
0.616194 -0.073225 0.0
0.437891 0.002839 0.0
0.169052 0.151505 0.0
0.000000 0.000000 0.0
-0.000000 -0.000000 0.0
0.000000 0.000000 0.0
-0.056716 -0.056847 0.0
-0.132689 -0.179738 0.0
-0.160338 -0.226335 0.0
-0.178134 -0.218665 0.0
-0.187661 -0.201812 0.0
-0.172431 -0.151152 0.0
-0.120990 -0.051335 0.0
-0.050062 0.061750 0.0
0.011800 0.170982 0.0
0.055249 0.273124 0.0
0.077378 0.364181 0.0
0.079938 0.439469 0.0
0.069277 0.492906 0.0
0.058779 0.510630 0.0
0.063776 0.481537 0.0
0.092257 0.408491 0.0
0.143835 0.297838 0.0
0.212490 0.164884 0.0
0.288434 0.028285 0.0
0.359391 -0.091016 0.0
0.418901 -0.189903 0.0
0.466754 -0.269602 0.0
0.502511 -0.330946 0.0
0.526313 -0.375213 0.0
0.539505 -0.403813 0.0
0.545358 -0.417487 0.0
0.549509 -0.415328 0.0
0.559279 -0.394557 0.0
0.581426 -0.352063 0.0
0.619350 -0.287296 0.0
0.671782 -0.204234 0.0
0.733839 -0.110737 0.0
0.798052 -0.017256 0.0
0.855568 0.064209 0.0
0.901786 0.131240 0.0
0.936678 0.185582 0.0
0.960526 0.228724 0.0
0.973654 0.262197 0.0
0.976351 0.287790 0.0
0.968934 0.307608 0.0
0.952103 0.323718 0.0
0.927579 0.337050 0.0
0.898707 0.345828 0.0
0.870327 0.344866 0.0
0.847497 0.327344 0.0
0.833695 0.288686 0.0
0.829901 0.229491 0.0
0.835178 0.155131 0.0
0.847861 0.073157 0.0
0.866044 -0.008712 0.0
0.887337 -0.082597 0.0
0.909398 -0.144584 0.0
0.930475 -0.193387 0.0
0.949195 -0.229301 0.0
0.964532 -0.253597 0.0
0.975821 -0.268104 0.0
0.982828 -0.274819 0.0
0.985858 -0.275481 0.0
0.985868 -0.271112 0.0
0.984432 -0.261682 0.0
0.983493 -0.246150 0.0
0.984894 -0.223011 0.0
0.989886 -0.191189 0.0