# vtk DataFile Version 3.0
Scalar Field
ASCII
DATASET RECTILINEAR_GRID
DIMENSIONS 100 26 1
X_COORDINATES 100 double
0.050000 0.150000 0.250000 0.350000 0.450000 0.550000 0.650000 0.750000 0.850000 0.950000 1.050000 1.150000 1.250000 1.350000 1.450000 1.550000 1.650000 1.750000 1.850000 1.950000 2.050000 2.150000 2.250000 2.350000 2.450000 2.550000 2.650000 2.750000 2.850000 2.950000 3.050000 3.150000 3.250000 3.350000 3.450000 3.550000 3.650000 3.750000 3.850000 3.950000 4.050000 4.150000 4.250000 4.350000 4.450000 4.550000 4.650000 4.750000 4.850000 4.950000 5.050000 5.150000 5.250000 5.350000 5.450000 5.550000 5.650000 5.750000 5.850000 5.950000 6.050000 6.150000 6.250000 6.350000 6.450000 6.550000 6.650000 6.750000 6.850000 6.950000 7.050000 7.150000 7.250000 7.350000 7.450000 7.550000 7.650000 7.750000 7.850000 7.950000 8.050000 8.150000 8.250000 8.350000 8.450000 8.550000 8.650000 8.750000 8.850000 8.950000 9.050000 9.150000 9.250000 9.350000 9.450000 9.550000 9.650000 9.750000 9.850000 9.950000 
Y_COORDINATES 26 double
0.050000 0.150000 0.250000 0.350000 0.450000 0.550000 0.650000 0.750000 0.850000 0.950000 1.050000 1.150000 1.250000 1.350000 1.450000 1.550000 1.650000 1.750000 1.850000 1.950000 2.050000 2.150000 2.250000 2.350000 2.450000 2.550000 
Z_COORDINATES 1 double
0.0
POINT_DATA 2600
SCALARS Skalarfeld double 1
LOOKUP_TABLE default
0.287769
0.272511
0.257330
0.239185
0.216933
0.190056
0.158442
0.122371
0.082589
0.040343
-0.002694
-0.044678
-0.083889
-0.118958
-0.148992
-0.172918
-0.190310
-0.201217
-0.205953
-0.205080
-0.199354
-0.189657
-0.176912
-0.161997
-0.145671
-0.128536
-0.111024
-0.093423
-0.075934
-0.058737
-0.042068
-0.026280
-0.011563
0.002057
0.013535
0.022247
0.027743
0.030908
0.031932
0.031013
0.028258
0.023643
0.017071
0.008509
-0.001857
-0.013440
-0.025044
-0.034710
-0.040158
-0.040294
-0.035143
-0.027261
-0.018377
-0.009275
-0.000551
0.007379
0.014285
0.020075
0.024768
0.028467
0.031342
0.033504
0.035250
0.036359
0.036704
0.036186
0.034755
0.032514
0.029764
0.026897
0.024157
0.021452
0.018411
0.014671
0.010169
0.005252
0.000523
-0.003432
-0.006272
-0.007953
-0.008632
-0.008503
-0.007758
-0.006623
-0.005306
-0.004020
-0.002933
-0.002141
-0.001683
-0.001596
-0.001929
-0.002727
-0.004019
-0.005787
-0.007956
-0.010396
-0.012950
-0.015442
-0.017703
-0.019628
0.278926
0.272481
0.260302
0.243354
0.221460
0.194363
0.161976
0.124584
0.083012
0.038707
-0.006340
-0.050006
-0.090436
-0.126203
-0.156219
-0.180160
-0.197603
-0.208388
-0.212817
-0.211452
-0.205064
-0.194564
-0.180918
-0.165048
-0.147759
-0.129693
-0.111316
-0.092941
-0.074783
-0.057027
-0.039897
-0.023685
-0.008481
0.004682
0.015403
0.023406
0.028925
0.031509
0.031910
0.030440
0.027259
0.022343
0.015570
0.006860
-0.003660
-0.015458
-0.027284
-0.036935
-0.041750
-0.040224
-0.034608
-0.027426
-0.018764
-0.009708
-0.000994
0.006918
0.013801
0.019574
0.024265
0.027992
0.030964
0.033471
0.035356
0.036476
0.036883
0.036460
0.035105
0.032902
0.030191
0.027421
0.024843
0.022290
0.019284
0.015368
0.010486
0.005091
-0.000048
-0.004224
-0.007081
-0.008657
-0.009214
-0.008960
-0.008067
-0.006797
-0.005324
-0.003899
-0.002699
-0.001828
-0.001298
-0.001161
-0.001479
-0.002290
-0.003623
-0.005457
-0.007704
-0.010220
-0.012834
-0.015366
-0.017663
-0.019976
0.282023
0.277942
0.267670
0.251770
0.230151
0.202494
0.168571
0.128560
0.083364
0.034813
-0.014343
-0.061348
-0.104121
-0.141350
-0.172284
-0.196579
-0.214173
-0.224707
-0.228471
-0.226000
-0.218070
-0.205639
-0.189750
-0.171429
-0.151598
-0.131022
-0.110287
-0.089824
-0.069946
-0.050905
-0.032951
-0.016346
-0.001790
0.010178
0.019197
0.025143
0.028283
0.028854
0.027114
0.024048
0.019924
0.014728
0.008295
0.000480
-0.008637
-0.018523
-0.027968
-0.035143
-0.038325
-0.037023
-0.032235
-0.024834
-0.016572
-0.008390
-0.000298
0.007080
0.013527
0.018932
0.023311
0.026763
0.029463
0.031607
0.033285
0.034621
0.035399
0.035493
0.034820
0.033384
0.031365
0.029033
0.026505
0.023599
0.020033
0.015535
0.010199
0.004548
-0.000657
-0.004772
-0.007541
-0.009074
-0.009603
-0.009366
-0.008542
-0.007299
-0.005680
-0.004061
-0.002623
-0.001466
-0.000746
-0.000564
-0.000981
-0.001928
-0.003404
-0.005333
-0.007588
-0.010002
-0.012394
-0.014587
-0.016432
-0.017178
0.292715
0.289412
0.280198
0.265047
0.243521
0.214931
0.178622
0.134430
0.083264
0.027536
-0.028301
-0.080305
-0.126214
-0.165144
-0.196908
-0.221502
-0.239011
-0.249024
-0.251711
-0.247528
-0.237246
-0.221899
-0.202659
-0.180713
-0.157155
-0.132928
-0.108797
-0.085357
-0.063054
-0.042226
-0.023164
-0.006210
0.007849
0.018455
0.025210
0.028086
0.027547
0.024450
0.019561
0.013937
0.008353
0.002808
-0.002916
-0.009050
-0.015624
-0.022274
-0.028157
-0.032123
-0.033216
-0.031183
-0.026510
-0.019977
-0.012555
-0.004731
0.002536
0.009003
0.014682
0.019364
0.023059
0.025837
0.027869
0.029379
0.030571
0.031606
0.032486
0.033120
0.033329
0.032920
0.031769
0.029850
0.027270
0.023905
0.019904
0.015129
0.009823
0.004429
-0.000473
-0.004431
-0.007265
-0.009018
-0.009794
-0.009683
-0.008799
-0.007301
-0.005664
-0.003998
-0.002435
-0.001143
-0.000375
-0.000237
-0.000751
-0.001894
-0.003546
-0.005547
-0.007712
-0.009848
-0.011771
-0.013306
-0.014262
-0.013583
0.309537
0.306641
0.298240
0.283849
0.262511
0.232849
0.193349
0.142996
0.082412
0.014673
-0.051527
-0.110183
-0.159403
-0.199576
-0.231657
-0.256216
-0.273221
-0.282387
-0.283506
-0.276852
-0.263210
-0.243772
-0.219940
-0.193138
-0.164697
-0.135777
-0.107345
-0.080168
-0.054823
-0.031718
-0.011125
0.006660
0.020557
0.029765
0.033703
0.032430
0.026802
0.018376
0.009123
0.000359
-0.006863
-0.012574
-0.017156
-0.021051
-0.024520
-0.027493
-0.029560
-0.030134
-0.028749
-0.025314
-0.020141
-0.013776
-0.006851
0.000100
0.006551
0.012346
0.017145
0.020947
0.023758
0.025597
0.026687
0.027332
0.027813
0.028379
0.029134
0.030000
0.030725
0.030978
0.030465
0.029018
0.026535
0.023150
0.018841
0.013754
0.008508
0.003398
-0.001123
-0.004740
-0.007323
-0.008885
-0.009507
-0.009295
-0.008390
-0.006960
-0.005227
-0.003351
-0.001622
-0.000339
0.000365
0.000367
-0.000357
-0.001782
-0.003697
-0.005853
-0.008004
-0.009928
-0.011440
-0.012386
-0.012630
-0.011762
0.331724
0.329244
0.321868
0.308728
0.288230
0.257956
0.214813
0.155855
0.080419
-0.008400
-0.090101
-0.155997
-0.206886
-0.246382
-0.277565
-0.301714
-0.318165
-0.326401
-0.325604
-0.315650
-0.297411
-0.272413
-0.242449
-0.209306
-0.174616
-0.139799
-0.106039
-0.074285
-0.045248
-0.019399
0.003038
0.022104
0.036270
0.044223
0.044995
0.038730
0.026751
0.011386
-0.004344
-0.017277
-0.026151
-0.031605
-0.034434
-0.035517
-0.035495
-0.034651
-0.032945
-0.030177
-0.026177
-0.020969
-0.014796
-0.008053
-0.001194
0.005366
0.011277
0.016319
0.020281
0.023110
0.024755
0.025399
0.025262
0.024816
0.024357
0.024211
0.024571
0.025421
0.026478
0.027310
0.027472
0.026613
0.024523
0.021186
0.016650
0.011463
0.006144
0.001038
-0.003253
-0.006507
-0.008648
-0.009726
-0.009861
-0.009207
-0.007936
-0.006224
-0.004263
-0.002253
-0.000436
0.000923
0.001597
0.001421
0.000363
-0.001460
-0.003785
-0.006293
-0.008671
-0.010654
-0.012033
-0.012664
-0.012469
-0.011150
0.358497
0.356614
0.350849
0.340029
0.321892
0.292633
0.246519
0.176371
0.076883
-0.051829
-0.154378
-0.223360
-0.269822
-0.304051
-0.332269
-0.356349
-0.373646
-0.381910
-0.379434
-0.365463
-0.341244
-0.308991
-0.271141
-0.229982
-0.187521
-0.145469
-0.105250
-0.068023
-0.034671
-0.005794
0.018351
0.038119
0.053074
0.060346
0.058342
0.047483
0.029595
0.007464
-0.015406
-0.035196
-0.047491
-0.052737
-0.053604
-0.051663
-0.048088
-0.043549
-0.038314
-0.032431
-0.025903
-0.018817
-0.011383
-0.003907
0.003267
0.009820
0.015490
0.020080
0.023415
0.025353
0.025799
0.024838
0.022837
0.020348
0.018310
0.017230
0.017044
0.017865
0.019342
0.020916
0.021998
0.022091
0.020844
0.018107
0.013951
0.008772
0.002978
-0.002230
-0.006531
-0.009608
-0.011389
-0.011955
-0.011483
-0.010192
-0.008317
-0.006081
-0.003701
-0.001391
0.000606
0.002026
0.002619
0.002211
0.000777
-0.001532
-0.004413
-0.007481
-0.010339
-0.012638
-0.014109
-0.014587
-0.014008
-0.011932
0.388743
0.387734
0.384445
0.377586
0.364453
0.339852
0.294302
0.212062
0.071563
-0.138764
-0.259100
-0.313006
-0.341381
-0.362608
-0.385088
-0.411067
-0.434616
-0.446380
-0.443801
-0.425627
-0.394329
-0.353413
-0.306254
-0.255748
-0.204311
-0.153962
-0.106404
-0.063056
-0.025056
0.006743
0.031742
0.049648
0.064143
0.071487
0.067599
0.053887
0.032991
0.007788
-0.018676
-0.042986
-0.061841
-0.070117
-0.070292
-0.066383
-0.060198
-0.052824
-0.044812
-0.036407
-0.027742
-0.018961
-0.010272
-0.001940
0.005745
0.012517
0.018148
0.022428
0.025122
0.025973
0.024817
0.021794
0.017485
0.012814
0.008764
0.006232
0.005691
0.006839
0.009086
0.011720
0.014033
0.015418
0.015420
0.013780
0.010479
0.005781
0.000195
-0.005479
-0.010124
-0.013273
-0.014956
-0.015230
-0.014296
-0.012434
-0.009952
-0.007145
-0.004286
-0.001628
0.000569
0.002036
0.002523
0.001857
0.000014
-0.002843
-0.006372
-0.010110
-0.013557
-0.016252
-0.017849
-0.018147
-0.017100
-0.014166
0.420832
0.420986
0.421106
0.420147
0.415652
0.402063
0.366686
0.280391
0.070161
-0.325617
-0.415597
-0.407908
-0.401362
-0.402865
-0.416631
-0.445997
-0.484889
-0.508928
-0.510005
-0.488870
-0.450953
-0.401709
-0.345579
-0.286045
-0.225892
-0.167464
-0.112820
-0.063784
-0.021890
0.011711
0.036177
0.051154
0.057425
0.061119
0.055708
0.043341
0.025654
0.004215
-0.019140
-0.042006
-0.061519
-0.075013
-0.078656
-0.075090
-0.068371
-0.059943
-0.050613
-0.040821
-0.030842
-0.020915
-0.011300
-0.002284
0.005837
0.012790
0.018311
0.022109
0.023817
0.023066
0.019700
0.014073
0.007158
0.000325
-0.005140
-0.008373
-0.008677
-0.006703
-0.003281
0.000723
0.004510
0.007403
0.008887
0.008634
0.006540
0.002769
-0.002231
-0.007739
-0.012901
-0.016557
-0.018425
-0.018748
-0.017676
-0.015519
-0.012648
-0.009433
-0.006214
-0.003299
-0.000978
0.000472
0.000800
-0.000165
-0.002445
-0.005866
-0.010040
-0.014423
-0.018403
-0.021415
-0.023035
-0.023032
-0.021381
-0.017470
0.452608
0.454101
0.458249
0.464692
0.472292
0.477640
0.470410
0.417138
0.170212
-0.671618
-0.594649
-0.461271
-0.426994
-0.414480
-0.420310
-0.450304
-0.497676
-0.546661
-0.557519
-0.537218
-0.496745
-0.443321
-0.382202
-0.317285
-0.251678
-0.188124
-0.129252
-0.077681
-0.035874
-0.005440
0.013744
0.023392
0.025907
0.022903
0.018914
0.012429
0.003131
-0.008972
-0.023472
-0.039263
-0.054472
-0.066822
-0.074373
-0.074827
-0.069790
-0.062380
-0.053539
-0.043855
-0.033742
-0.023563
-0.013685
-0.004478
0.003694
0.010481
0.015523
0.018396
0.018602
0.015726
0.009766
0.001447
-0.007773
-0.016148
-0.022273
-0.025176
-0.024561
-0.021272
-0.016322
-0.010706
-0.005299
-0.000812
0.002219
0.003439
0.002693
0.000068
-0.004079
-0.009116
-0.014224
-0.018529
-0.020941
-0.021646
-0.020801
-0.018713
-0.015788
-0.012455
-0.009118
-0.006139
-0.003844
-0.002527
-0.002443
-0.003762
-0.006501
-0.010463
-0.015218
-0.020144
-0.024535
-0.027735
-0.029250
-0.028820
-0.026432
-0.021342
0.481590
0.484359
0.492402
0.506242
0.526727
0.554830
0.590764
0.629846
0.705776
0.017079
-0.517694
-0.440739
-0.430576
-0.423188
-0.427574
-0.452047
-0.493528
-0.538918
-0.567415
-0.552807
-0.515499
-0.464433
-0.405079
-0.341461
-0.276877
-0.214580
-0.158015
-0.110714
-0.075425
-0.052811
-0.041003
-0.036377
-0.035454
-0.035717
-0.033279
-0.030455
-0.028698
-0.029025
-0.032060
-0.037831
-0.045554
-0.053702
-0.060456
-0.064324
-0.063519
-0.058699
-0.051916
-0.043784
-0.034793
-0.025418
-0.016146
-0.007470
0.000133
0.006196
0.010223
0.011650
0.009887
0.004574
-0.004013
-0.014697
-0.025599
-0.034765
-0.040818
-0.042653
-0.040554
-0.035533
-0.028762
-0.021351
-0.014241
-0.008162
-0.003639
-0.001013
-0.000449
-0.001907
-0.005106
-0.009510
-0.014376
-0.018882
-0.022110
-0.023324
-0.022980
-0.021286
-0.018641
-0.015503
-0.012323
-0.009510
-0.007423
-0.006378
-0.006638
-0.008370
-0.011583
-0.016058
-0.021321
-0.026691
-0.031389
-0.034683
-0.036012
-0.035075
-0.031855
-0.025344
0.505424
0.509119
0.519982
0.539125
0.568686
0.612388
0.676703
0.772678
0.907736
0.936649
0.000000
-0.437368
-0.433997
-0.432615
-0.438707
-0.457529
-0.485368
-0.515163
-0.534350
-0.531026
-0.498576
-0.454066
-0.402175
-0.346632
-0.290439
-0.237176
-0.190867
-0.155411
-0.132679
-0.120964
-0.116018
-0.113182
-0.108966
-0.099858
-0.087491
-0.073841
-0.060691
-0.049490
-0.041351
-0.036955
-0.036352
-0.038810
-0.042921
-0.047005
-0.049580
-0.048809
-0.045008
-0.039478
-0.032638
-0.025023
-0.017222
-0.009843
-0.003488
0.001243
0.003711
0.003223
-0.000848
-0.008717
-0.019760
-0.032382
-0.044405
-0.053788
-0.059202
-0.059488
-0.055490
-0.048425
-0.039624
-0.030312
-0.021485
-0.013879
-0.007991
-0.004120
-0.002403
-0.002811
-0.005114
-0.008853
-0.013358
-0.017837
-0.021517
-0.023472
-0.023807
-0.022728
-0.020610
-0.017919
-0.015131
-0.012686
-0.010972
-0.010327
-0.011020
-0.013220
-0.016924
-0.021891
-0.027617
-0.033377
-0.038337
-0.041698
-0.042834
-0.041387
-0.037320
-0.029160
0.522395
0.526481
0.538482
0.559544
0.591720
0.638109
0.702418
0.785922
0.880869
0.965561
0.880820
0.000000
-0.438081
-0.442166
-0.444821
-0.455880
-0.469869
-0.481318
-0.483133
-0.470161
-0.442754
-0.405729
-0.363942
-0.321340
-0.279842
-0.243408
-0.216152
-0.200670
-0.195589
-0.195894
-0.195741
-0.190703
-0.176664
-0.156825
-0.133534
-0.109099
-0.085537
-0.064455
-0.047062
-0.034200
-0.026277
-0.023116
-0.023822
-0.026882
-0.030525
-0.033125
-0.032943
-0.030557
-0.026487
-0.021288
-0.015607
-0.010142
-0.005602
-0.002715
-0.002259
-0.005033
-0.011647
-0.022108
-0.035435
-0.049685
-0.062489
-0.071766
-0.076172
-0.074486
-0.068325
-0.059065
-0.048182
-0.036995
-0.026543
-0.017555
-0.010487
-0.005583
-0.002930
-0.002480
-0.004027
-0.007168
-0.011301
-0.015687
-0.019587
-0.022233
-0.023217
-0.022822
-0.021354
-0.019255
-0.017004
-0.015060
-0.013831
-0.013672
-0.014861
-0.017566
-0.021772
-0.027224
-0.033398
-0.039541
-0.044777
-0.048250
-0.049264
-0.047393
-0.042548
-0.032695
0.531775
0.535705
0.547177
0.566977
0.596326
0.636669
0.689118
0.752956
0.816418
0.836025
0.796079
0.677154
0.000000
-0.445800
-0.449433
-0.452474
-0.455047
-0.446604
-0.424172
-0.392755
-0.359401
-0.326554
-0.293837
-0.264413
-0.242395
-0.229761
-0.229429
-0.239817
-0.254596
-0.266029
-0.268330
-0.255725
-0.230555
-0.199895
-0.166320
-0.132356
-0.100143
-0.071308
-0.046985
-0.027904
-0.014463
-0.006687
-0.004076
-0.005486
-0.009251
-0.013592
-0.016771
-0.017324
-0.016144
-0.013615
-0.010374
-0.007167
-0.004789
-0.004088
-0.005969
-0.011305
-0.020632
-0.033706
-0.049206
-0.064911
-0.078321
-0.087396
-0.090034
-0.086353
-0.078040
-0.066687
-0.053903
-0.041072
-0.029248
-0.019136
-0.011142
-0.005450
-0.002093
-0.000992
-0.001947
-0.004596
-0.008393
-0.012648
-0.016635
-0.019731
-0.021333
-0.021596
-0.020782
-0.019306
-0.017638
-0.016243
-0.015542
-0.015902
-0.017608
-0.020826
-0.025534
-0.031469
-0.038094
-0.044642
-0.050210
-0.053896
-0.054939
-0.052833
-0.047414
-0.036024
0.533844
0.537208
0.546962
0.563505
0.587370
0.618795
0.656647
0.695944
0.723653
0.713058
0.647171
0.558230
0.385858
0.000000
-0.451913
-0.454393
-0.455346
-0.424450
-0.372528
-0.316150
-0.266712
-0.231025
-0.206231
-0.191529
-0.188935
-0.203614
-0.233081
-0.269688
-0.302669
-0.322250
-0.322704
-0.298981
-0.265233
-0.225890
-0.184327
-0.143313
-0.104994
-0.070888
-0.041962
-0.018756
-0.001513
0.009748
0.015307
0.015918
0.012923
0.008065
0.003058
-0.000342
-0.001860
-0.001888
-0.001068
-0.000176
-0.000078
-0.001733
-0.006151
-0.014226
-0.026357
-0.042018
-0.059573
-0.076563
-0.090355
-0.098859
-0.099488
-0.093944
-0.083771
-0.070732
-0.056511
-0.042509
-0.029754
-0.018905
-0.010313
-0.004102
-0.000261
0.001314
0.000818
-0.001421
-0.004910
-0.009008
-0.013024
-0.016352
-0.018432
-0.019237
-0.018990
-0.018077
-0.016953
-0.016079
-0.015886
-0.016745
-0.018948
-0.022657
-0.027849
-0.034253
-0.041334
-0.048323
-0.054307
-0.058355
-0.059653
-0.057625
-0.051987
-0.039539
0.529653
0.532245
0.539672
0.551939
0.568837
0.589467
0.611293
0.628532
0.630012
0.597745
0.513758
0.367719
0.213485
-0.225351
-0.536017
-0.489471
-0.467202
-0.408940
-0.330625
-0.253136
-0.189709
-0.144815
-0.122190
-0.118477
-0.137113
-0.177102
-0.231472
-0.288189
-0.333801
-0.357351
-0.346798
-0.317942
-0.278608
-0.234042
-0.188049
-0.143448
-0.102237
-0.065714
-0.034619
-0.009272
0.010263
0.024049
0.032253
0.035282
0.034011
0.029845
0.024433
0.019180
0.015622
0.013491
0.012186
0.010928
0.008797
0.004754
-0.002273
-0.013120
-0.027989
-0.046057
-0.065414
-0.083416
-0.097297
-0.104781
-0.103533
-0.096461
-0.085035
-0.071030
-0.056113
-0.041633
-0.028553
-0.017462
-0.008650
-0.002198
0.001937
0.003865
0.003765
0.001922
-0.001228
-0.005099
-0.009038
-0.012456
-0.014824
-0.016008
-0.016189
-0.015723
-0.015049
-0.014621
-0.014870
-0.016172
-0.018819
-0.022974
-0.028608
-0.035457
-0.042994
-0.050465
-0.056966
-0.061561
-0.063419
-0.061940
-0.056522
-0.043957
0.520616
0.522324
0.527140
0.534776
0.544539
0.554920
0.562914
0.563042
0.546237
0.498991
0.403464
0.234691
-0.060093
-0.664187
-0.582563
-0.480866
-0.428637
-0.365753
-0.287552
-0.209858
-0.144114
-0.094981
-0.068797
-0.072158
-0.104811
-0.160633
-0.228455
-0.294026
-0.343100
-0.358694
-0.343527
-0.312237
-0.271321
-0.225889
-0.179682
-0.135330
-0.094581
-0.058490
-0.027584
-0.002011
0.018319
0.033591
0.043976
0.049658
0.051042
0.048986
0.044749
0.039588
0.034904
0.031396
0.028457
0.025358
0.021180
0.014853
0.005330
-0.008091
-0.025362
-0.045388
-0.066054
-0.084621
-0.098389
-0.103425
-0.101383
-0.093681
-0.081965
-0.067984
-0.053313
-0.039190
-0.026472
-0.015669
-0.007017
-0.000570
0.003720
0.005948
0.006256
0.004876
0.002177
-0.001324
-0.005018
-0.008337
-0.010812
-0.012199
-0.012651
-0.012499
-0.012162
-0.012086
-0.012696
-0.014369
-0.017394
-0.021930
-0.027954
-0.035212
-0.043200
-0.051194
-0.058324
-0.063682
-0.066452
-0.066003
-0.061675
-0.050387
0.508367
0.509210
0.511509
0.514819
0.518222
0.520034
0.517352
0.505508
0.477497
0.423521
0.330483
0.180847
-0.048124
-0.341113
-0.404879
-0.388778
-0.353767
-0.303539
-0.244580
-0.183554
-0.128752
-0.082992
-0.056005
-0.063280
-0.100945
-0.159305
-0.225835
-0.286408
-0.325159
-0.330722
-0.315309
-0.285637
-0.247533
-0.205565
-0.163064
-0.122328
-0.084839
-0.051458
-0.022595
0.001668
0.021467
0.037056
0.048699
0.056582
0.060871
0.061926
0.060435
0.057147
0.053381
0.049641
0.045766
0.041296
0.035424
0.027144
0.015524
0.000068
-0.018920
-0.040127
-0.061311
-0.079699
-0.092164
-0.095954
-0.093694
-0.086369
-0.075492
-0.062643
-0.049215
-0.036280
-0.024571
-0.014518
-0.006326
-0.000050
0.004330
0.006870
0.007659
0.006865
0.004784
0.001859
-0.001370
-0.004375
-0.006728
-0.008129
-0.008701
-0.008738
-0.008639
-0.008830
-0.009729
-0.011704
-0.015038
-0.019890
-0.026243
-0.033866
-0.042293
-0.050853
-0.058733
-0.065096
-0.069204
-0.070258
-0.068255
-0.060075
0.494507
0.494583
0.494680
0.494312
0.492544
0.487790
0.477561
0.458188
0.424631
0.370468
0.288234
0.170735
0.016635
-0.151664
-0.240069
-0.268325
-0.263349
-0.238078
-0.201041
-0.159510
-0.119290
-0.087762
-0.073457
-0.083075
-0.115199
-0.162960
-0.215642
-0.260150
-0.282198
-0.284954
-0.271580
-0.246658
-0.214617
-0.179115
-0.142904
-0.107910
-0.075389
-0.046079
-0.020347
0.001704
0.020157
0.035213
0.047131
0.056164
0.062526
0.066428
0.068071
0.068529
0.067608
0.064917
0.061095
0.056055
0.049184
0.039644
0.026714
0.010146
-0.009532
-0.030872
-0.051610
-0.068994
-0.079188
-0.083293
-0.081928
-0.076139
-0.067244
-0.056567
-0.045248
-0.034163
-0.023921
-0.014898
-0.007304
-0.001237
0.003262
0.006183
0.007554
0.007477
0.006181
0.004032
0.001494
-0.000969
-0.002933
-0.004162
-0.004717
-0.004848
-0.004913
-0.005318
-0.006458
-0.008683
-0.012267
-0.017367
-0.023983
-0.031921
-0.040771
-0.049933
-0.058678
-0.066269
-0.071980
-0.075489
-0.076835
-0.073953
0.480458
0.479895
0.478181
0.474881
0.469169
0.459712
0.444543
0.420973
0.385619
0.334663
0.264535
0.173481
0.065147
-0.045774
-0.124266
-0.166813
-0.181612
-0.176946
-0.159922
-0.136854
-0.113523
-0.095984
-0.090059
-0.099470
-0.123497
-0.157285
-0.192810
-0.220165
-0.234325
-0.235538
-0.225122
-0.205836
-0.180719
-0.152483
-0.123278
-0.094663
-0.067674
-0.042935
-0.020765
-0.001277
0.015551
0.029830
0.041736
0.051471
0.059229
0.065140
0.070042
0.073587
0.074950
0.074250
0.071682
0.067179
0.060336
0.050581
0.037470
0.021009
0.001889
-0.018427
-0.037812
-0.052902
-0.062741
-0.067820
-0.068383
-0.065187
-0.059222
-0.051478
-0.042816
-0.033917
-0.025290
-0.017306
-0.010230
-0.004248
0.000494
0.003907
0.005958
0.006688
0.006276
0.005026
0.003332
0.001637
0.000239
-0.000680
-0.001123
-0.001286
-0.001486
-0.002086
-0.003448
-0.005894
-0.009676
-0.014952
-0.021754
-0.029942
-0.039187
-0.048977
-0.058678
-0.067640
-0.075445
-0.082042
-0.087461
-0.092028
0.467409
0.466322
0.463161
0.457601
0.449003
0.436337
0.418149
0.392580
0.357492
0.310799
0.251095
0.178754
0.097662
0.016895
-0.048524
-0.092938
-0.117655
-0.126619
-0.124496
-0.116038
-0.105881
-0.098518
-0.097818
-0.106011
-0.122660
-0.144616
-0.166696
-0.183678
-0.192664
-0.192795
-0.184719
-0.170079
-0.150891
-0.129094
-0.106301
-0.083715
-0.062125
-0.041978
-0.023464
-0.006626
0.008558
0.022122
0.034101
0.044554
0.053570
0.061587
0.068384
0.073574
0.076866
0.078146
0.077316
0.074154
0.068314
0.059440
0.047356
0.032272
0.014942
-0.003310
-0.020134
-0.034196
-0.044998
-0.052141
-0.055603
-0.055769
-0.053271
-0.048768
-0.042851
-0.036041
-0.028810
-0.021575
-0.014722
-0.008555
-0.003385
0.000628
0.003427
0.004985
0.005490
0.005192
0.004415
0.003468
0.002608
0.002023
0.001712
0.001514
0.001159
0.000334
-0.001267
-0.003918
-0.007842
-0.013204
-0.020088
-0.028437
-0.038027
-0.048464
-0.059257
-0.069838
-0.079927
-0.089622
-0.099268
-0.112638
0.456333
0.454790
0.450431
0.443116
0.432424
0.417622
0.397692
0.371403
0.337477
0.294878
0.243273
0.183695
0.119299
0.055764
0.000593
-0.041830
-0.070742
-0.087688
-0.095392
-0.097088
-0.096127
-0.095688
-0.098360
-0.105578
-0.117141
-0.131211
-0.144946
-0.155340
-0.160386
-0.159375
-0.152626
-0.141175
-0.126407
-0.109725
-0.092330
-0.075102
-0.058561
-0.042900
-0.028073
-0.013917
-0.000304
0.012757
0.025093
0.036510
0.047012
0.056511
0.064712
0.071424
0.076400
0.079431
0.080299
0.078739
0.074465
0.067276
0.057173
0.044455
0.029780
0.014283
-0.001248
-0.015842
-0.028652
-0.038827
-0.045810
-0.049576
-0.050492
-0.048971
-0.045377
-0.040128
-0.033750
-0.026740
-0.019732
-0.013028
-0.007208
-0.002447
0.001115
0.003509
0.004805
0.005236
0.005107
0.004707
0.004267
0.003912
0.003631
0.003289
0.002669
0.001528
-0.000362
-0.003209
-0.007199
-0.012504
-0.019324
-0.027708
-0.037706
-0.049017
-0.060958
-0.073047
-0.085093
-0.097315
-0.110410
-0.131977
0.448081
0.446034
0.440537
0.431749
0.419479
0.403237
0.382325
0.355952
0.323390
0.284204
0.238554
0.187573
0.133679
0.080571
0.032577
-0.007201
-0.037552
-0.058874
-0.072643
-0.080936
-0.086051
-0.090192
-0.095129
-0.101853
-0.110345
-0.119613
-0.128203
-0.134114
-0.136196
-0.134009
-0.127800
-0.118342
-0.106688
-0.093919
-0.080953
-0.068404
-0.056527
-0.045226
-0.034127
-0.022720
-0.010593
0.002299
0.015438
0.028229
0.040249
0.051205
0.060912
0.069170
0.075751
0.080411
0.082899
0.082973
0.080460
0.075319
0.067663
0.057736
0.045578
0.031509
0.016148
-0.000003
-0.015832
-0.029718
-0.040291
-0.047160
-0.050727
-0.051381
-0.049260
-0.044718
-0.038570
-0.031111
-0.023565
-0.016535
-0.010110
-0.004693
-0.000479
0.002524
0.004426
0.005442
0.005821
0.005804
0.005581
0.005233
0.004747
0.004026
0.002928
0.001311
-0.000944
-0.003958
-0.007886
-0.012886
-0.019465
-0.028059
-0.038545
-0.050550
-0.063542
-0.076896
-0.090267
-0.103876
-0.118626
-0.144701
0.443599
0.440675
0.433786
0.423569
0.410006
0.392735
0.371243
0.345014
0.313653
0.277046
0.235565
0.190266
0.143012
0.096373
0.053173
0.015661
-0.014964
-0.038585
-0.055940
-0.068325
-0.077288
-0.084349
-0.090768
-0.097260
-0.103904
-0.110344
-0.115470
-0.118300
-0.118175
-0.114911
-0.108813
-0.100570
-0.091079
-0.081241
-0.071781
-0.063115
-0.055284
-0.047955
-0.040458
-0.031862
-0.021218
-0.008068
0.006260
0.020524
0.034241
0.046905
0.058229
0.068015
0.076064
0.082148
0.086022
0.087496
0.086541
0.083314
0.078021
0.069895
0.059305
0.046264
0.030447
0.012058
-0.007448
-0.025342
-0.038995
-0.047622
-0.052254
-0.053921
-0.052427
-0.047393
-0.040895
-0.033760
-0.025943
-0.018294
-0.011384
-0.005551
-0.000950
0.002429
0.004719
0.006130
0.006842
0.007019
0.006817
0.006239
0.005274
0.003891
0.002051
-0.000235
-0.002919
-0.006005
-0.009692
-0.014517
-0.020888
-0.029226
-0.039814
-0.052389
-0.066242
-0.080480
-0.094475
-0.108260
-0.122659
-0.146562
0.444540
0.439180
0.430159
0.418398
0.403705
0.385666
0.363784
0.337701
0.307204
0.272345
0.233569
0.191828
0.148621
0.105883
0.065686
0.029781
-0.000731
-0.025504
-0.044868
-0.059638
-0.070876
-0.079634
-0.086914
-0.093268
-0.098886
-0.103450
-0.106445
-0.107338
-0.105791
-0.101805
-0.095742
-0.088257
-0.080156
-0.072225
-0.065064
-0.058957
-0.053819
-0.049216
-0.044420
-0.038358
-0.029429
-0.016125
-0.001165
0.014838
0.030404
0.044737
0.057489
0.068498
0.077619
0.084656
0.089378
0.091620
0.091526
0.089615
0.084847
0.077953
0.068626
0.056231
0.040050
0.019919
-0.002671
-0.024056
-0.040045
-0.048965
-0.052405
-0.053063
-0.051794
-0.048164
-0.041668
-0.033957
-0.025910
-0.018157
-0.011180
-0.005287
-0.000613
0.002862
0.005285
0.006918
0.007826
0.008055
0.007654
0.006722
0.005262
0.003235
0.000659
-0.002353
-0.005626
-0.009045
-0.012731
-0.017156
-0.023040
-0.030891
-0.041149
-0.053600
-0.067528
-0.081989
-0.096236
-0.110066
-0.123868
-0.140187
0.455384
0.441193
0.429080
0.415964
0.400489
0.381896
0.359771
0.333773
0.303758
0.269838
0.232465
0.192513
0.151287
0.110430
0.071689
0.036594
0.006193
-0.019078
-0.039363
-0.055257
-0.067628
-0.077424
-0.085267
-0.091726
-0.096996
-0.100929
-0.103177
-0.103376
-0.101319
-0.097074
-0.091016
-0.083772
-0.076095
-0.068711
-0.062160
-0.056684
-0.052160
-0.048123
-0.043827
-0.038298
-0.030418
-0.019683
-0.004092
0.013072
0.029746
0.044959
0.058357
0.069819
0.079244
0.086471
0.091280
0.093477
0.093006
0.089905
0.085279
0.078714
0.069749
0.057769
0.042150
0.022757
0.000814
-0.020536
-0.037335
-0.047447
-0.051877
-0.052539
-0.050657
-0.046706
-0.040580
-0.033134
-0.025280
-0.017694
-0.010858
-0.005072
-0.000471
0.002959
0.005339
0.006796
0.007607
0.007826
0.007437
0.006459
0.004899
0.002749
0.000047
-0.003093
-0.006516
-0.010137
-0.014088
-0.018766
-0.024697
-0.032613
-0.042677
-0.054730
-0.068194
-0.082301
-0.096422
-0.110315
-0.124126
-0.138836
