# vtk DataFile Version 3.0
Scalar Field
ASCII
DATASET RECTILINEAR_GRID
DIMENSIONS 100 26 1
X_COORDINATES 100 double
0.050000 0.150000 0.250000 0.350000 0.450000 0.550000 0.650000 0.750000 0.850000 0.950000 1.050000 1.150000 1.250000 1.350000 1.450000 1.550000 1.650000 1.750000 1.850000 1.950000 2.050000 2.150000 2.250000 2.350000 2.450000 2.550000 2.650000 2.750000 2.850000 2.950000 3.050000 3.150000 3.250000 3.350000 3.450000 3.550000 3.650000 3.750000 3.850000 3.950000 4.050000 4.150000 4.250000 4.350000 4.450000 4.550000 4.650000 4.750000 4.850000 4.950000 5.050000 5.150000 5.250000 5.350000 5.450000 5.550000 5.650000 5.750000 5.850000 5.950000 6.050000 6.150000 6.250000 6.350000 6.450000 6.550000 6.650000 6.750000 6.850000 6.950000 7.050000 7.150000 7.250000 7.350000 7.450000 7.550000 7.650000 7.750000 7.850000 7.950000 8.050000 8.150000 8.250000 8.350000 8.450000 8.550000 8.650000 8.750000 8.850000 8.950000 9.050000 9.150000 9.250000 9.350000 9.450000 9.550000 9.650000 9.750000 9.850000 9.950000 
Y_COORDINATES 26 double
0.050000 0.150000 0.250000 0.350000 0.450000 0.550000 0.650000 0.750000 0.850000 0.950000 1.050000 1.150000 1.250000 1.350000 1.450000 1.550000 1.650000 1.750000 1.850000 1.950000 2.050000 2.150000 2.250000 2.350000 2.450000 2.550000 
Z_COORDINATES 1 double
0.0
POINT_DATA 2600
SCALARS Skalarfeld double 1
LOOKUP_TABLE default
0.287066
0.271929
0.257156
0.239717
0.218523
0.193142
0.163569
0.130203
0.093895
0.055945
0.017984
-0.018292
-0.051418
-0.080357
-0.104564
-0.123965
-0.138885
-0.149613
-0.156859
-0.161324
-0.163591
-0.164081
-0.163005
-0.160398
-0.156201
-0.150376
-0.143019
-0.134407
-0.125001
-0.115371
-0.106102
-0.097682
-0.090401
-0.084296
-0.079128
-0.074426
-0.069576
-0.063956
-0.057070
-0.048632
-0.038687
-0.026663
-0.013459
-0.000687
0.010748
0.020384
0.028008
0.033496
0.036649
0.037835
0.036718
0.033128
0.027059
0.018762
0.008935
-0.001145
-0.009886
-0.016130
-0.019859
-0.021833
-0.022788
-0.023116
-0.022539
-0.020798
-0.018163
-0.015092
-0.011855
-0.008656
-0.005667
-0.003010
-0.000771
0.001001
0.002291
0.003122
0.003539
0.003610
0.003417
0.003047
0.002589
0.002126
0.001732
0.001469
0.001382
0.001502
0.001844
0.002409
0.003187
0.004159
0.005302
0.006594
0.008013
0.009541
0.011165
0.012879
0.014679
0.016566
0.018539
0.020592
0.022707
0.025360
0.277955
0.271623
0.259820
0.243557
0.222712
0.197110
0.166780
0.132131
0.094100
0.054202
0.014400
-0.023317
-0.057335
-0.086601
-0.110645
-0.129481
-0.143442
-0.153318
-0.159817
-0.163705
-0.165625
-0.166043
-0.165154
-0.162911
-0.159137
-0.153681
-0.146553
-0.137996
-0.128474
-0.118589
-0.108967
-0.100137
-0.092426
-0.085897
-0.080326
-0.075246
-0.070043
-0.064093
-0.056885
-0.048024
-0.037128
-0.024871
-0.012158
0.000060
0.011091
0.020515
0.028107
0.033822
0.037592
0.038840
0.037693
0.033981
0.027673
0.019000
0.008721
-0.001719
-0.010535
-0.016532
-0.019820
-0.021653
-0.023053
-0.023698
-0.023295
-0.021413
-0.018619
-0.015502
-0.012206
-0.008936
-0.005883
-0.003168
-0.000879
0.000930
0.002244
0.003085
0.003501
0.003561
0.003349
0.002955
0.002471
0.001983
0.001567
0.001285
0.001184
0.001296
0.001634
0.002199
0.002981
0.003959
0.005110
0.006410
0.007838
0.009377
0.011015
0.012748
0.014576
0.016506
0.018542
0.020682
0.022896
0.026012
0.280530
0.276553
0.266639
0.251397
0.230800
0.204625
0.172768
0.135547
0.094005
0.050072
0.006485
-0.034108
-0.069801
-0.099575
-0.123164
-0.140849
-0.153297
-0.161456
-0.166346
-0.168973
-0.170250
-0.170798
-0.170701
-0.169685
-0.167251
-0.162941
-0.156543
-0.148195
-0.138348
-0.127660
-0.116837
-0.106497
-0.097057
-0.088670
-0.081210
-0.074315
-0.067476
-0.060156
-0.051896
-0.042373
-0.031437
-0.019825
-0.008372
0.002546
0.012456
0.020996
0.027903
0.033031
0.036359
0.037418
0.035837
0.031940
0.025787
0.017679
0.008369
-0.000918
-0.008868
-0.014731
-0.018696
-0.021468
-0.023359
-0.023995
-0.022942
-0.020927
-0.018396
-0.015614
-0.012376
-0.009110
-0.006071
-0.003344
-0.001036
0.000787
0.002105
0.002940
0.003339
0.003373
0.003127
0.002695
0.002173
0.001650
0.001204
0.000898
0.000781
0.000883
0.001218
0.001785
0.002571
0.003556
0.004714
0.006021
0.007456
0.009003
0.010654
0.012410
0.014279
0.016277
0.018427
0.020756
0.023306
0.027217
0.290463
0.287255
0.278383
0.263864
0.243335
0.216215
0.181993
0.140670
0.093327
0.042548
-0.007263
-0.052240
-0.090161
-0.120259
-0.142714
-0.158277
-0.168039
-0.173318
-0.175533
-0.176099
-0.176261
-0.176799
-0.177968
-0.178996
-0.178781
-0.176330
-0.171077
-0.163013
-0.152612
-0.140641
-0.127945
-0.115277
-0.103183
-0.091950
-0.081606
-0.071962
-0.062693
-0.053439
-0.043896
-0.033889
-0.023429
-0.012793
-0.002589
0.006921
0.015443
0.022664
0.028294
0.032137
0.034124
0.034220
0.032285
0.028057
0.022178
0.014937
0.006961
-0.000888
-0.007777
-0.013230
-0.017258
-0.020096
-0.021814
-0.022295
-0.021547
-0.019908
-0.017573
-0.014546
-0.011467
-0.008428
-0.005647
-0.003036
-0.000814
0.000927
0.002166
0.002928
0.003254
0.003209
0.002880
0.002365
0.001764
0.001170
0.000665
0.000314
0.000166
0.000251
0.000581
0.001152
0.001948
0.002945
0.004115
0.005432
0.006873
0.008425
0.010083
0.011854
0.013754
0.015810
0.018062
0.020569
0.023416
0.027837
0.306298
0.303489
0.295410
0.281625
0.261263
0.233078
0.195725
0.148399
0.091928
0.029714
-0.029847
-0.080803
-0.121002
-0.150561
-0.170559
-0.182453
-0.187891
-0.188670
-0.186709
-0.184001
-0.182406
-0.183157
-0.186278
-0.190650
-0.193935
-0.194224
-0.190441
-0.182478
-0.170987
-0.157018
-0.141683
-0.125952
-0.110539
-0.095882
-0.082167
-0.069379
-0.057384
-0.046004
-0.035082
-0.024532
-0.014356
-0.004641
0.004475
0.012756
0.019941
0.025718
0.029750
0.031840
0.032017
0.030449
0.027354
0.022965
0.017246
0.010714
0.003915
-0.002583
-0.008311
-0.012947
-0.016419
-0.018782
-0.020063
-0.020268
-0.019472
-0.017858
-0.015608
-0.012910
-0.010072
-0.007238
-0.004448
-0.002048
-0.000037
0.001515
0.002576
0.003192
0.003371
0.003177
0.002698
0.002035
0.001295
0.000576
-0.000035
-0.000468
-0.000672
-0.000619
-0.000298
0.000281
0.001097
0.002117
0.003311
0.004645
0.006098
0.007655
0.009314
0.011085
0.012994
0.015076
0.017385
0.019995
0.023004
0.027632
0.327281
0.324877
0.317800
0.305238
0.285702
0.256939
0.216089
0.160486
0.089723
0.007524
-0.066873
-0.124711
-0.165814
-0.192684
-0.207939
-0.213913
-0.212835
-0.206973
-0.198782
-0.191008
-0.186594
-0.187754
-0.194624
-0.204624
-0.213626
-0.218044
-0.216121
-0.207830
-0.194348
-0.177321
-0.158344
-0.138710
-0.119340
-0.100814
-0.083444
-0.067348
-0.052530
-0.038940
-0.026524
-0.015238
-0.005057
0.004045
0.012122
0.019365
0.025379
0.029826
0.032282
0.032536
0.030795
0.027432
0.022816
0.017293
0.011229
0.005281
-0.000655
-0.005961
-0.010557
-0.014193
-0.016805
-0.018415
-0.019056
-0.018776
-0.017670
-0.015882
-0.013581
-0.010953
-0.008202
-0.005486
-0.002936
-0.000726
0.001070
0.002424
0.003315
0.003709
0.003664
0.003251
0.002555
0.001681
0.000738
-0.000166
-0.000931
-0.001481
-0.001766
-0.001758
-0.001448
-0.000852
-0.000003
0.001059
0.002292
0.003658
0.005129
0.006691
0.008342
0.010097
0.011984
0.014050
0.016356
0.018982
0.022027
0.026679
0.352649
0.350829
0.345330
0.335048
0.317857
0.290184
0.246641
0.180498
0.086879
-0.033119
-0.128315
-0.190354
-0.227642
-0.247719
-0.254992
-0.252353
-0.242356
-0.227521
-0.210647
-0.195177
-0.185839
-0.186953
-0.199404
-0.219302
-0.237999
-0.248581
-0.249011
-0.239732
-0.223073
-0.201742
-0.178053
-0.153700
-0.129813
-0.107077
-0.085875
-0.066395
-0.048713
-0.032848
-0.018799
-0.006552
0.003912
0.012622
0.019651
0.025336
0.030193
0.033512
0.034753
0.033529
0.030343
0.025768
0.020214
0.013958
0.007260
0.000430
-0.005477
-0.009929
-0.013806
-0.016599
-0.018372
-0.019197
-0.019139
-0.018277
-0.016717
-0.014598
-0.012082
-0.009341
-0.006549
-0.003863
-0.001415
0.000672
0.002323
0.003494
0.004166
0.004337
0.004050
0.003376
0.002408
0.001257
0.000046
-0.001103
-0.002081
-0.002796
-0.003180
-0.003222
-0.002915
-0.002285
-0.001377
-0.000247
0.001049
0.002465
0.003965
0.005532
0.007165
0.008881
0.010714
0.012715
0.014950
0.017505
0.020478
0.025031
0.381310
0.380346
0.377273
0.370887
0.358659
0.335725
0.293168
0.216104
0.084218
-0.113614
-0.229445
-0.281343
-0.304437
-0.312286
-0.308679
-0.295528
-0.275239
-0.250215
-0.223115
-0.196981
-0.178977
-0.177433
-0.195015
-0.227057
-0.262341
-0.282754
-0.286281
-0.275426
-0.254655
-0.228238
-0.199340
-0.170032
-0.141572
-0.114686
-0.089772
-0.067039
-0.046591
-0.028479
-0.012727
0.000644
0.011588
0.020001
0.025775
0.029001
0.030664
0.032481
0.033018
0.030678
0.026764
0.022168
0.017153
0.011664
0.005661
-0.000695
-0.006926
-0.012743
-0.016477
-0.018972
-0.020308
-0.020641
-0.020075
-0.018726
-0.016730
-0.014240
-0.011428
-0.008468
-0.005529
-0.002766
-0.000309
0.001734
0.003293
0.004325
0.004814
0.004772
0.004241
0.003293
0.002028
0.000568
-0.000948
-0.002380
-0.003599
-0.004500
-0.005009
-0.005095
-0.004767
-0.004067
-0.003060
-0.001822
-0.000429
0.001061
0.002604
0.004179
0.005784
0.007438
0.009179
0.011062
0.013157
0.015554
0.018356
0.022688
0.411670
0.411845
0.412108
0.411508
0.407801
0.395863
0.363879
0.284429
0.088636
-0.286518
-0.383506
-0.384355
-0.380289
-0.373939
-0.360223
-0.337521
-0.308803
-0.274700
-0.238376
-0.204398
-0.174647
-0.165579
-0.183637
-0.222745
-0.270117
-0.309205
-0.317585
-0.305657
-0.281353
-0.250776
-0.217828
-0.184771
-0.152866
-0.122813
-0.095011
-0.069693
-0.047000
-0.027025
-0.009840
0.004462
0.015681
0.023451
0.027356
0.027507
0.025232
0.021937
0.019426
0.016838
0.014340
0.012004
0.009620
0.006810
0.003247
-0.001168
-0.006235
-0.011529
-0.016376
-0.019824
-0.021329
-0.021730
-0.021096
-0.019577
-0.017354
-0.014617
-0.011562
-0.008384
-0.005268
-0.002377
0.000152
0.002215
0.003737
0.004679
0.005027
0.004797
0.004031
0.002806
0.001227
-0.000567
-0.002418
-0.004161
-0.005643
-0.006738
-0.007366
-0.007472
-0.007074
-0.006243
-0.005075
-0.003676
-0.002141
-0.000546
0.001057
0.002642
0.004208
0.005776
0.007385
0.009094
0.010977
0.013127
0.015653
0.019618
0.441622
0.443106
0.447298
0.453921
0.462047
0.468741
0.464754
0.419187
0.192802
-0.605655
-0.563206
-0.449776
-0.423920
-0.412306
-0.397316
-0.374313
-0.340802
-0.301288
-0.260095
-0.221552
-0.191138
-0.179236
-0.190523
-0.223280
-0.267470
-0.307452
-0.329001
-0.318242
-0.292833
-0.261067
-0.227162
-0.193262
-0.160476
-0.129439
-0.100572
-0.074188
-0.050537
-0.029840
-0.012350
0.001537
0.011182
0.015896
0.015572
0.011278
0.005183
-0.000567
-0.004819
-0.006061
-0.005538
-0.004093
-0.002470
-0.001351
-0.001289
-0.002596
-0.005280
-0.009035
-0.013261
-0.017195
-0.020339
-0.021398
-0.021221
-0.019975
-0.017884
-0.015170
-0.012067
-0.008800
-0.005583
-0.002601
-0.000008
0.002080
0.003582
0.004453
0.004677
0.004266
0.003263
0.001745
-0.000171
-0.002330
-0.004546
-0.006622
-0.008370
-0.009642
-0.010346
-0.010408
-0.009857
-0.008808
-0.007402
-0.005779
-0.004056
-0.002327
-0.000650
0.000945
0.002458
0.003910
0.005346
0.006825
0.008423
0.010233
0.012367
0.015782
0.468758
0.471484
0.479448
0.493230
0.513820
0.542528
0.580346
0.624343
0.710524
0.052434
-0.499466
-0.435726
-0.427672
-0.425913
-0.416337
-0.396071
-0.367186
-0.332815
-0.297844
-0.265979
-0.242177
-0.229657
-0.230048
-0.244295
-0.269305
-0.294231
-0.308178
-0.305622
-0.282923
-0.253448
-0.222265
-0.191094
-0.160725
-0.131660
-0.104353
-0.079247
-0.056786
-0.037449
-0.021846
-0.010819
-0.005302
-0.005729
-0.011244
-0.019512
-0.027578
-0.033268
-0.035137
-0.032891
-0.028150
-0.022213
-0.016137
-0.010784
-0.006817
-0.004663
-0.004470
-0.006079
-0.009025
-0.012623
-0.016141
-0.018883
-0.019665
-0.019094
-0.017529
-0.015187
-0.012321
-0.009193
-0.006049
-0.003107
-0.000543
0.001504
0.002939
0.003703
0.003771
0.003147
0.001870
0.000018
-0.002280
-0.004844
-0.007454
-0.009869
-0.011862
-0.013256
-0.013954
-0.013849
-0.013027
-0.011663
-0.009943
-0.008041
-0.006098
-0.004219
-0.002467
-0.000873
0.000564
0.001870
0.003088
0.004280
0.005520
0.006896
0.008518
0.011166
0.490801
0.494423
0.505087
0.523923
0.553107
0.596438
0.660576
0.756704
0.888979
0.915935
0.000000
-0.427922
-0.420118
-0.415651
-0.411008
-0.403124
-0.389781
-0.373252
-0.355997
-0.339259
-0.325755
-0.309915
-0.295297
-0.285614
-0.281693
-0.279312
-0.275764
-0.266119
-0.250249
-0.226748
-0.201011
-0.175468
-0.150478
-0.126294
-0.103346
-0.082201
-0.063520
-0.048102
-0.036962
-0.031272
-0.031860
-0.038299
-0.048378
-0.058737
-0.066293
-0.069245
-0.066220
-0.059064
-0.049435
-0.038806
-0.028372
-0.019050
-0.011508
-0.006173
-0.003232
-0.002619
-0.003994
-0.006766
-0.010179
-0.013430
-0.015817
-0.016368
-0.015674
-0.014037
-0.011716
-0.008997
-0.006157
-0.003445
-0.001070
0.000807
0.002068
0.002634
0.002463
0.001547
-0.000082
-0.002341
-0.005085
-0.008101
-0.011121
-0.013854
-0.016033
-0.017457
-0.018017
-0.017581
-0.016370
-0.014608
-0.012525
-0.010320
-0.008152
-0.006131
-0.004324
-0.002757
-0.001428
-0.000307
0.000648
0.001498
0.002310
0.003164
0.004156
0.005812
0.506114
0.510106
0.521822
0.542394
0.573837
0.619062
0.681519
0.763177
0.858524
0.942891
0.851350
0.000000
-0.413074
-0.406030
-0.401797
-0.405065
-0.412369
-0.421473
-0.430529
-0.435234
-0.431608
-0.408489
-0.373577
-0.334740
-0.297919
-0.265852
-0.240384
-0.218012
-0.199096
-0.181934
-0.163727
-0.145211
-0.127481
-0.110289
-0.093950
-0.079098
-0.066598
-0.057573
-0.053390
-0.055271
-0.063365
-0.075888
-0.089361
-0.100023
-0.105339
-0.102899
-0.094183
-0.081596
-0.066949
-0.051810
-0.037410
-0.024644
-0.014110
-0.006159
-0.000932
0.001626
0.001777
0.000007
-0.002994
-0.006422
-0.009497
-0.011620
-0.012025
-0.011336
-0.009814
-0.007750
-0.005444
-0.003170
-0.001167
0.000378
0.001319
0.001556
0.001025
-0.000297
-0.002384
-0.005144
-0.008404
-0.011907
-0.015330
-0.018331
-0.020605
-0.021956
-0.022145
-0.021260
-0.019583
-0.017388
-0.014935
-0.012445
-0.010084
-0.007962
-0.006142
-0.004647
-0.003468
-0.002576
-0.001927
-0.001469
-0.001143
-0.000885
-0.000624
-0.000163
0.514027
0.517857
0.529006
0.548246
0.576842
0.616492
0.668324
0.730223
0.788149
0.805572
0.759809
0.640834
0.000000
-0.402011
-0.397993
-0.412220
-0.437316
-0.472115
-0.509974
-0.537000
-0.534867
-0.499312
-0.442866
-0.376874
-0.310635
-0.251248
-0.203199
-0.166262
-0.140535
-0.123097
-0.110942
-0.100133
-0.090350
-0.081099
-0.072648
-0.065726
-0.061418
-0.061157
-0.066439
-0.077978
-0.094622
-0.113070
-0.128974
-0.138634
-0.139976
-0.131150
-0.116691
-0.098858
-0.079618
-0.060563
-0.042877
-0.027366
-0.014520
-0.004575
0.002417
0.006545
0.008040
0.007297
0.004897
0.001577
-0.001888
-0.004839
-0.006646
-0.006991
-0.006420
-0.005185
-0.003590
-0.001931
-0.000466
0.000589
0.001063
0.000830
-0.000196
-0.002053
-0.004715
-0.008070
-0.011907
-0.015914
-0.019707
-0.022893
-0.025142
-0.026241
-0.025909
-0.024512
-0.022353
-0.019746
-0.016974
-0.014264
-0.011779
-0.009626
-0.007858
-0.006491
-0.005511
-0.004889
-0.004585
-0.004554
-0.004754
-0.005144
-0.005681
-0.006560
0.514852
0.518153
0.527686
0.543850
0.567124
0.597556
0.633819
0.670681
0.694779
0.680985
0.611633
0.521860
0.352773
0.000000
-0.418438
-0.438884
-0.459912
-0.509864
-0.570238
-0.614847
-0.608342
-0.558201
-0.482383
-0.395367
-0.308148
-0.228913
-0.163230
-0.113558
-0.079651
-0.058777
-0.047315
-0.042276
-0.039842
-0.038268
-0.038065
-0.040161
-0.045841
-0.056621
-0.073586
-0.096271
-0.121893
-0.145859
-0.163431
-0.171461
-0.166197
-0.151742
-0.132152
-0.109943
-0.087128
-0.065221
-0.045275
-0.027948
-0.013586
-0.002301
0.005950
0.011310
0.013992
0.014311
0.012719
0.009831
0.006365
0.003016
0.000325
-0.001153
-0.001585
-0.001247
-0.000457
0.000480
0.001289
0.001732
0.001616
0.000786
-0.000862
-0.003375
-0.006717
-0.010746
-0.015198
-0.019697
-0.023800
-0.027076
-0.029201
-0.029823
-0.028909
-0.027000
-0.024415
-0.021486
-0.018497
-0.015673
-0.013167
-0.011072
-0.009432
-0.008253
-0.007520
-0.007203
-0.007267
-0.007682
-0.008422
-0.009473
-0.010832
-0.013114
0.509572
0.512107
0.519320
0.531198
0.547480
0.567161
0.587588
0.602862
0.601841
0.566930
0.480463
0.334247
0.183686
-0.243289
-0.483617
-0.424226
-0.454136
-0.521542
-0.598193
-0.646298
-0.625103
-0.563819
-0.477703
-0.381050
-0.284843
-0.196987
-0.122817
-0.065188
-0.024418
0.001420
0.015461
0.020654
0.018163
0.013616
0.006051
-0.005584
-0.022451
-0.045606
-0.075075
-0.108838
-0.142618
-0.170952
-0.189003
-0.193138
-0.181684
-0.162734
-0.139476
-0.114484
-0.089680
-0.066407
-0.045522
-0.027501
-0.012541
-0.000636
0.008344
0.014592
0.018319
0.019763
0.019241
0.017205
0.014239
0.010986
0.008005
0.005668
0.004392
0.003902
0.003899
0.004087
0.004188
0.003951
0.003161
0.001641
-0.000728
-0.003992
-0.008091
-0.012838
-0.017905
-0.022849
-0.027173
-0.030415
-0.032238
-0.032163
-0.030792
-0.028486
-0.025612
-0.022507
-0.019451
-0.016650
-0.014241
-0.012302
-0.010864
-0.009928
-0.009475
-0.009481
-0.009918
-0.010769
-0.012031
-0.013717
-0.015863
-0.019510
0.499601
0.501263
0.505888
0.513176
0.522399
0.531995
0.538903
0.537612
0.519109
0.470046
0.372924
0.204473
-0.084463
-0.670264
-0.543007
-0.431389
-0.452764
-0.520068
-0.590709
-0.610506
-0.583040
-0.520576
-0.436758
-0.343836
-0.251285
-0.165802
-0.091793
-0.031853
0.013036
0.043748
0.062635
0.071648
0.071223
0.063710
0.050006
0.029563
0.002044
-0.032538
-0.072801
-0.115278
-0.154670
-0.185100
-0.201708
-0.198707
-0.184312
-0.163081
-0.138429
-0.112846
-0.088047
-0.065133
-0.044744
-0.027186
-0.012536
-0.000712
0.008462
0.015209
0.019750
0.022283
0.023014
0.022223
0.020319
0.017807
0.015174
0.012747
0.010954
0.009857
0.009183
0.008681
0.008093
0.007167
0.005670
0.003412
0.000269
-0.003792
-0.008671
-0.014123
-0.019749
-0.025041
-0.029464
-0.032568
-0.033729
-0.033151
-0.031428
-0.028902
-0.025935
-0.022848
-0.019898
-0.017266
-0.015071
-0.013373
-0.012195
-0.011535
-0.011376
-0.011697
-0.012483
-0.013732
-0.015459
-0.017708
-0.020551
-0.025416
0.486559
0.487367
0.489509
0.492529
0.495496
0.496698
0.493214
0.480369
0.451202
0.395997
0.301840
0.151983
-0.074580
-0.357811
-0.408160
-0.406893
-0.436270
-0.485554
-0.524322
-0.527966
-0.500586
-0.447115
-0.376492
-0.297721
-0.218244
-0.143536
-0.077251
-0.021483
0.023027
0.056676
0.080211
0.093628
0.100769
0.096526
0.080418
0.054464
0.019764
-0.022233
-0.068761
-0.115306
-0.156091
-0.185484
-0.195961
-0.189629
-0.174232
-0.153368
-0.130007
-0.106279
-0.083571
-0.062711
-0.044135
-0.028026
-0.014401
-0.003176
0.005803
0.012731
0.017812
0.021230
0.023144
0.023727
0.023216
0.021978
0.020354
0.018562
0.017107
0.015837
0.014750
0.013723
0.012554
0.011005
0.008839
0.005864
0.001963
-0.002864
-0.008467
-0.014528
-0.020575
-0.026046
-0.030392
-0.032999
-0.033527
-0.032718
-0.030885
-0.028384
-0.025555
-0.022690
-0.020012
-0.017678
-0.015785
-0.014385
-0.013494
-0.013113
-0.013229
-0.013831
-0.014915
-0.016491
-0.018594
-0.021289
-0.024681
-0.030512
0.472027
0.472079
0.472048
0.471447
0.469331
0.464103
0.453262
0.433135
0.398688
0.343512
0.260130
0.141412
-0.013904
-0.183042
-0.276521
-0.327006
-0.369119
-0.407286
-0.429518
-0.430171
-0.409209
-0.369035
-0.315091
-0.253542
-0.189934
-0.128625
-0.072686
-0.023983
0.016660
0.049193
0.073874
0.092213
0.103908
0.102637
0.088239
0.062019
0.026046
-0.017006
-0.063371
-0.107962
-0.144862
-0.168326
-0.173083
-0.166986
-0.153555
-0.135896
-0.116413
-0.096755
-0.077935
-0.060510
-0.044748
-0.030758
-0.018568
-0.008159
0.000526
0.007579
0.013121
0.017282
0.020188
0.021974
0.022775
0.022941
0.022776
0.022491
0.021726
0.020713
0.019586
0.018333
0.016812
0.014813
0.012114
0.008538
0.003997
-0.001462
-0.007623
-0.014094
-0.020335
-0.025745
-0.029698
-0.031547
-0.031955
-0.031167
-0.029500
-0.027280
-0.024810
-0.022338
-0.020056
-0.018097
-0.016547
-0.015453
-0.014835
-0.014700
-0.015044
-0.015865
-0.017169
-0.018978
-0.021339
-0.024329
-0.028075
-0.034526
0.457409
0.456827
0.455009
0.451515
0.445512
0.435657
0.419966
0.395731
0.359535
0.307496
0.235907
0.142745
0.031118
-0.085391
-0.174541
-0.237655
-0.285018
-0.320044
-0.339564
-0.342701
-0.329441
-0.301453
-0.262231
-0.215978
-0.166740
-0.117912
-0.072039
-0.030806
0.004880
0.034726
0.058848
0.077878
0.088678
0.088900
0.077721
0.055612
0.024215
-0.013617
-0.053791
-0.091189
-0.120415
-0.135192
-0.139592
-0.135889
-0.126694
-0.114324
-0.100530
-0.086455
-0.072731
-0.059639
-0.047288
-0.035740
-0.025078
-0.015413
-0.006851
0.000538
0.006739
0.011780
0.015718
0.018712
0.021024
0.022620
0.023587
0.024053
0.024021
0.023593
0.022833
0.021722
0.020151
0.017952
0.014941
0.010975
0.006012
0.000161
-0.006292
-0.012891
-0.019044
-0.024028
-0.027241
-0.029049
-0.029585
-0.029088
-0.027833
-0.026098
-0.024131
-0.022143
-0.020299
-0.018721
-0.017490
-0.016660
-0.016261
-0.016308
-0.016808
-0.017768
-0.019202
-0.021137
-0.023621
-0.026736
-0.030612
-0.037268
0.443875
0.442774
0.439520
0.433785
0.424919
0.411878
0.393179
0.366922
0.330902
0.282917
0.221361
0.146261
0.060902
-0.026673
-0.102922
-0.163877
-0.210964
-0.245160
-0.265775
-0.272606
-0.266097
-0.247708
-0.219910
-0.185688
-0.148030
-0.109569
-0.072394
-0.037992
-0.007290
0.019246
0.041474
0.058627
0.068792
0.070523
0.063042
0.046554
0.022394
-0.006896
-0.037661
-0.065527
-0.086054
-0.098028
-0.103218
-0.102890
-0.098754
-0.092386
-0.084943
-0.077085
-0.069033
-0.060726
-0.052041
-0.042963
-0.033661
-0.024436
-0.015635
-0.007552
-0.000378
0.005778
0.010981
0.015269
0.018651
0.021229
0.023086
0.024308
0.024956
0.025102
0.024781
0.023959
0.022528
0.020335
0.017227
0.013100
0.007960
0.001979
-0.004483
-0.010962
-0.016631
-0.021131
-0.024364
-0.026352
-0.027235
-0.027216
-0.026515
-0.025345
-0.023908
-0.022384
-0.020927
-0.019658
-0.018667
-0.018017
-0.017753
-0.017902
-0.018478
-0.019496
-0.020969
-0.022925
-0.025403
-0.028475
-0.032251
-0.038656
0.432392
0.430834
0.426385
0.418896
0.407934
0.392742
0.372259
0.345198
0.310188
0.266052
0.212249
0.149488
0.080458
0.010181
-0.054532
-0.109747
-0.154198
-0.187454
-0.209144
-0.219076
-0.217748
-0.206459
-0.187102
-0.161913
-0.133166
-0.102924
-0.072888
-0.044340
-0.018170
0.005050
0.024915
0.040430
0.050424
0.053916
0.050321
0.039757
0.023261
0.002843
-0.018689
-0.038173
-0.053545
-0.064057
-0.070167
-0.072829
-0.073223
-0.072412
-0.071091
-0.069457
-0.067241
-0.063890
-0.058891
-0.052080
-0.043744
-0.034464
-0.024937
-0.015770
-0.007299
0.000166
0.006587
0.011964
0.016350
0.019826
0.022480
0.024397
0.025653
0.026312
0.026397
0.025869
0.024626
0.022521
0.019423
0.015261
0.010072
0.004073
-0.002301
-0.008512
-0.014121
-0.018675
-0.022071
-0.024352
-0.025654
-0.026145
-0.025984
-0.025322
-0.024316
-0.023135
-0.021940
-0.020861
-0.019996
-0.019426
-0.019213
-0.019389
-0.019973
-0.020980
-0.022422
-0.024314
-0.026684
-0.029572
-0.033045
-0.038736
0.423805
0.421741
0.416148
0.407176
0.394617
0.377947
0.356419
0.329169
0.295366
0.254428
0.206321
0.151922
0.093336
0.033929
-0.022205
-0.071889
-0.113237
-0.145215
-0.167343
-0.179366
-0.181705
-0.175478
-0.162214
-0.143677
-0.121661
-0.097808
-0.073496
-0.049796
-0.027496
-0.007169
0.010703
0.025173
0.035420
0.040732
0.040655
0.035239
0.025225
0.012086
-0.002209
-0.015908
-0.027527
-0.036356
-0.042725
-0.047394
-0.051277
-0.055130
-0.059297
-0.063555
-0.067084
-0.068665
-0.067181
-0.062207
-0.054236
-0.044266
-0.033481
-0.022935
-0.013227
-0.004466
0.003148
0.009580
0.014880
0.019140
0.022468
0.024965
0.026723
0.027813
0.028256
0.028002
0.026953
0.024930
0.021823
0.017595
0.012213
0.005957
-0.000695
-0.007094
-0.012810
-0.017498
-0.021051
-0.023544
-0.025145
-0.026012
-0.026251
-0.025944
-0.025195
-0.024183
-0.023104
-0.022095
-0.021260
-0.020685
-0.020470
-0.020630
-0.021184
-0.022142
-0.023511
-0.025295
-0.027496
-0.030120
-0.033169
-0.037728
0.419063
0.416116
0.409119
0.398703
0.384825
0.367081
0.344908
0.317709
0.284978
0.246461
0.202360
0.153542
0.101687
0.049244
-0.000935
-0.046288
-0.084898
-0.115515
-0.137644
-0.150877
-0.155644
-0.152895
-0.143921
-0.130186
-0.113159
-0.094174
-0.074343
-0.054537
-0.035405
-0.017423
-0.000935
0.013079
0.023930
0.031009
0.033861
0.032419
0.027195
0.019336
0.010284
0.000735
-0.007709
-0.014838
-0.021001
-0.026898
-0.033302
-0.040778
-0.049430
-0.058728
-0.067410
-0.073558
-0.075200
-0.071449
-0.063189
-0.051788
-0.040101
-0.028376
-0.017276
-0.007297
0.001348
0.008630
0.014622
0.019442
0.023224
0.026094
0.028169
0.029539
0.030246
0.030200
0.029330
0.027318
0.023955
0.019239
0.013407
0.006761
-0.000241
-0.006991
-0.012944
-0.017735
-0.021281
-0.023733
-0.025346
-0.026334
-0.026784
-0.026691
-0.026048
-0.025047
-0.023989
-0.022985
-0.022167
-0.021627
-0.021387
-0.021511
-0.022021
-0.022925
-0.024218
-0.025888
-0.027914
-0.030268
-0.032900
-0.036132
0.419822
0.414433
0.405293
0.393304
0.378278
0.359719
0.337105
0.309989
0.278044
0.241186
0.199713
0.154440
0.106772
0.058651
0.012317
-0.030066
-0.066647
-0.096127
-0.118071
-0.131981
-0.138260
-0.137752
-0.131595
-0.121063
-0.107417
-0.091787
-0.075105
-0.058103
-0.041338
-0.025221
-0.009885
0.004135
0.015842
0.024599
0.029797
0.031184
0.029097
0.024727
0.018550
0.011959
0.005629
-0.000348
-0.006328
-0.012940
-0.020848
-0.030474
-0.041778
-0.054117
-0.066139
-0.075665
-0.079902
-0.076668
-0.067600
-0.056561
-0.043673
-0.030759
-0.018706
-0.007974
0.001260
0.008994
0.015324
0.020387
0.024331
0.027301
0.029431
0.030849
0.031703
0.031759
0.030642
0.028337
0.024782
0.019894
0.013801
0.006825
-0.000514
-0.007557
-0.013679
-0.018476
-0.021879
-0.024101
-0.025461
-0.026277
-0.026716
-0.026731
-0.026349
-0.025589
-0.024548
-0.023518
-0.022673
-0.022110
-0.021875
-0.021998
-0.022496
-0.023371
-0.024609
-0.026188
-0.028074
-0.030221
-0.032564
-0.034871
0.430571
0.416346
0.404100
0.390741
0.374872
0.355761
0.332890
0.305838
0.274349
0.238400
0.198309
0.154836
0.109241
0.063231
0.018779
-0.022185
-0.058073
-0.087600
-0.109474
-0.123663
-0.130573
-0.130998
-0.126001
-0.116768
-0.104470
-0.090159
-0.074709
-0.058811
-0.043016
-0.027808
-0.013725
-0.000360
0.011855
0.021650
0.028123
0.030835
0.029892
0.025790
0.020339
0.014647
0.009035
0.003518
-0.002250
-0.008848
-0.016875
-0.026692
-0.038201
-0.050712
-0.062881
-0.072698
-0.077776
-0.076575
-0.068868
-0.056978
-0.043750
-0.030647
-0.018471
-0.007642
0.001671
0.009465
0.015832
0.020904
0.024830
0.027750
0.029798
0.031079
0.031572
0.031352
0.030174
0.027839
0.024260
0.019420
0.013447
0.006649
-0.000484
-0.007348
-0.013361
-0.018135
-0.021579
-0.023874
-0.025341
-0.026212
-0.026611
-0.026621
-0.026255
-0.025549
-0.024607
-0.023645
-0.022840
-0.022301
-0.022084
-0.022219
-0.022718
-0.023580
-0.024789
-0.026318
-0.028125
-0.030159
-0.032349
-0.034469
