# vtk DataFile Version 3.0
Scalar Field
ASCII
DATASET RECTILINEAR_GRID
DIMENSIONS 100 26 1
X_COORDINATES 100 double
0.050000 0.150000 0.250000 0.350000 0.450000 0.550000 0.650000 0.750000 0.850000 0.950000 1.050000 1.150000 1.250000 1.350000 1.450000 1.550000 1.650000 1.750000 1.850000 1.950000 2.050000 2.150000 2.250000 2.350000 2.450000 2.550000 2.650000 2.750000 2.850000 2.950000 3.050000 3.150000 3.250000 3.350000 3.450000 3.550000 3.650000 3.750000 3.850000 3.950000 4.050000 4.150000 4.250000 4.350000 4.450000 4.550000 4.650000 4.750000 4.850000 4.950000 5.050000 5.150000 5.250000 5.350000 5.450000 5.550000 5.650000 5.750000 5.850000 5.950000 6.050000 6.150000 6.250000 6.350000 6.450000 6.550000 6.650000 6.750000 6.850000 6.950000 7.050000 7.150000 7.250000 7.350000 7.450000 7.550000 7.650000 7.750000 7.850000 7.950000 8.050000 8.150000 8.250000 8.350000 8.450000 8.550000 8.650000 8.750000 8.850000 8.950000 9.050000 9.150000 9.250000 9.350000 9.450000 9.550000 9.650000 9.750000 9.850000 9.950000 
Y_COORDINATES 26 double
0.050000 0.150000 0.250000 0.350000 0.450000 0.550000 0.650000 0.750000 0.850000 0.950000 1.050000 1.150000 1.250000 1.350000 1.450000 1.550000 1.650000 1.750000 1.850000 1.950000 2.050000 2.150000 2.250000 2.350000 2.450000 2.550000 
Z_COORDINATES 1 double
0.0
POINT_DATA 2600
SCALARS Skalarfeld double 1
LOOKUP_TABLE default
0.258629
0.243267
0.227800
0.209200
0.186328
0.158691
0.126218
0.089258
0.048659
0.005801
-0.037493
-0.079234
-0.117600
-0.151191
-0.178999
-0.199984
-0.214117
-0.221687
-0.223270
-0.219654
-0.211752
-0.200516
-0.186857
-0.171586
-0.155384
-0.138798
-0.122261
-0.106131
-0.090720
-0.076319
-0.063198
-0.051584
-0.041624
-0.033369
-0.026791
-0.021844
-0.018522
-0.016891
-0.017075
-0.019191
-0.023268
-0.029140
-0.036346
-0.044039
-0.050902
-0.055256
-0.055785
-0.052152
-0.045428
-0.037867
-0.030196
-0.022930
-0.016400
-0.010804
-0.006212
-0.002604
0.000103
0.002034
0.003334
0.004151
0.004626
0.004884
0.005027
0.005133
0.005253
0.005416
0.005631
0.005891
0.006177
0.006466
0.006733
0.006952
0.007105
0.007175
0.007156
0.007041
0.006834
0.006539
0.006162
0.005713
0.005202
0.004637
0.004029
0.003386
0.002715
0.002023
0.001315
0.000597
-0.000129
-0.000859
-0.001592
-0.002326
-0.003059
-0.003793
-0.004528
-0.005265
-0.006008
-0.006759
-0.007527
-0.007916
0.249964
0.243413
0.230942
0.213515
0.190965
0.163055
0.129741
0.091376
0.048887
0.003862
-0.041546
-0.085049
-0.124651
-0.158808
-0.186504
-0.207539
-0.221487
-0.228638
-0.229594
-0.225180
-0.216356
-0.204122
-0.189443
-0.173181
-0.156060
-0.138665
-0.121458
-0.104812
-0.089052
-0.074476
-0.061361
-0.049925
-0.040292
-0.032459
-0.026327
-0.021779
-0.018773
-0.017363
-0.017685
-0.019886
-0.024027
-0.029979
-0.037314
-0.045183
-0.052160
-0.056275
-0.055745
-0.051068
-0.044952
-0.037857
-0.030290
-0.023060
-0.016537
-0.010946
-0.006361
-0.002763
-0.000068
0.001848
0.003133
0.003937
0.004403
0.004657
0.004800
0.004912
0.005044
0.005223
0.005457
0.005738
0.006046
0.006356
0.006642
0.006878
0.007045
0.007128
0.007118
0.007011
0.006810
0.006518
0.006145
0.005698
0.005189
0.004626
0.004019
0.003377
0.002708
0.002018
0.001312
0.000596
-0.000126
-0.000852
-0.001579
-0.002305
-0.003029
-0.003750
-0.004467
-0.005181
-0.005892
-0.006606
-0.007340
-0.007746
0.253425
0.249232
0.238645
0.222225
0.199884
0.171319
0.136337
0.095182
0.048865
-0.000635
-0.050374
-0.097400
-0.139456
-0.175101
-0.203552
-0.224593
-0.238090
-0.244255
-0.243753
-0.237467
-0.226439
-0.211779
-0.194581
-0.175842
-0.156426
-0.137045
-0.118268
-0.100549
-0.084260
-0.069728
-0.057229
-0.046921
-0.038807
-0.032674
-0.028163
-0.024947
-0.022860
-0.021919
-0.022273
-0.024110
-0.027537
-0.032464
-0.038478
-0.044736
-0.049928
-0.052576
-0.051819
-0.048057
-0.042202
-0.035305
-0.028444
-0.021849
-0.015754
-0.010497
-0.006156
-0.002740
-0.000185
0.001625
0.002831
0.003578
0.004005
0.004238
0.004377
0.004499
0.004652
0.004861
0.005131
0.005450
0.005796
0.006143
0.006461
0.006726
0.006916
0.007017
0.007021
0.006925
0.006732
0.006447
0.006079
0.005637
0.005132
0.004573
0.003971
0.003333
0.002669
0.001984
0.001284
0.000575
-0.000139
-0.000855
-0.001571
-0.002283
-0.002989
-0.003686
-0.004373
-0.005046
-0.005699
-0.006326
-0.006909
-0.007299
0.264679
0.261253
0.251693
0.235965
0.213627
0.183991
0.146431
0.100839
0.048233
-0.008813
-0.065600
-0.117937
-0.163336
-0.200722
-0.229781
-0.250537
-0.263078
-0.267596
-0.264797
-0.255634
-0.241264
-0.222959
-0.202002
-0.179593
-0.156793
-0.134491
-0.113401
-0.094072
-0.076934
-0.062351
-0.050670
-0.042024
-0.036215
-0.032805
-0.030907
-0.029809
-0.029155
-0.028906
-0.029233
-0.030380
-0.032521
-0.035630
-0.039391
-0.043148
-0.045974
-0.046955
-0.045613
-0.042115
-0.037035
-0.031097
-0.024873
-0.018855
-0.013463
-0.008864
-0.005016
-0.002002
0.000226
0.001774
0.002772
0.003357
0.003662
0.003810
0.003899
0.003999
0.004157
0.004391
0.004701
0.005069
0.005467
0.005864
0.006228
0.006532
0.006754
0.006880
0.006903
0.006820
0.006637
0.006359
0.005995
0.005557
0.005056
0.004501
0.003902
0.003269
0.002610
0.001931
0.001238
0.000536
-0.000169
-0.000875
-0.001578
-0.002275
-0.002962
-0.003635
-0.004291
-0.004922
-0.005520
-0.006069
-0.006542
-0.006898
0.282278
0.279248
0.270465
0.255430
0.233167
0.202287
0.161278
0.109166
0.046673
-0.022960
-0.090691
-0.150180
-0.199251
-0.238005
-0.267086
-0.286905
-0.297690
-0.299691
-0.293550
-0.280278
-0.261212
-0.237867
-0.211788
-0.184441
-0.157131
-0.130956
-0.106783
-0.085253
-0.066824
-0.051880
-0.041151
-0.034800
-0.032329
-0.032579
-0.034336
-0.036054
-0.037145
-0.037594
-0.037696
-0.037847
-0.038351
-0.039306
-0.040553
-0.041681
-0.042122
-0.041348
-0.039093
-0.035442
-0.030747
-0.025469
-0.020051
-0.014883
-0.010257
-0.006245
-0.003041
-0.000574
0.001191
0.002349
0.003026
0.003344
0.003436
0.003424
0.003404
0.003443
0.003581
0.003830
0.004181
0.004607
0.005071
0.005535
0.005961
0.006318
0.006583
0.006743
0.006790
0.006724
0.006551
0.006280
0.005921
0.005485
0.004984
0.004431
0.003834
0.003203
0.002547
0.001872
0.001184
0.000489
-0.000209
-0.000906
-0.001598
-0.002281
-0.002951
-0.003604
-0.004233
-0.004832
-0.005388
-0.005887
-0.006304
-0.006644
0.305480
0.302855
0.295063
0.281212
0.259669
0.227973
0.182998
0.121795
0.043771
-0.047890
-0.132052
-0.199562
-0.250938
-0.289413
-0.317370
-0.335392
-0.343600
-0.342203
-0.331518
-0.312638
-0.287194
-0.257072
-0.224191
-0.190359
-0.157185
-0.126017
-0.097896
-0.073536
-0.053347
-0.037581
-0.027909
-0.024620
-0.026918
-0.032773
-0.039411
-0.044630
-0.047549
-0.048384
-0.047779
-0.046468
-0.044986
-0.043604
-0.042330
-0.040961
-0.039181
-0.036703
-0.033383
-0.029282
-0.024624
-0.019715
-0.014872
-0.010370
-0.006411
-0.003106
-0.000532
0.001325
0.002549
0.003227
0.003473
0.003435
0.003244
0.003016
0.002842
0.002788
0.002890
0.003152
0.003552
0.004052
0.004602
0.005153
0.005660
0.006087
0.006409
0.006611
0.006689
0.006643
0.006483
0.006218
0.005861
0.005425
0.004924
0.004369
0.003771
0.003141
0.002485
0.001812
0.001127
0.000436
-0.000257
-0.000947
-0.001631
-0.002304
-0.002961
-0.003598
-0.004208
-0.004784
-0.005315
-0.005786
-0.006181
-0.006526
0.333525
0.331490
0.325287
0.313704
0.294414
0.263527
0.215204
0.142168
0.039083
-0.094171
-0.200622
-0.272287
-0.320263
-0.354586
-0.380042
-0.396137
-0.401737
-0.396497
-0.380120
-0.353961
-0.320201
-0.281291
-0.239659
-0.197552
-0.156960
-0.119549
-0.086588
-0.058875
-0.036687
-0.019806
-0.010841
-0.010971
-0.019147
-0.032286
-0.046093
-0.056084
-0.060685
-0.061339
-0.059333
-0.056019
-0.052233
-0.048425
-0.044733
-0.041090
-0.037329
-0.033290
-0.028901
-0.024209
-0.019366
-0.014583
-0.010081
-0.006053
-0.002640
0.000079
0.002074
0.003374
0.004056
0.004221
0.003998
0.003530
0.002969
0.002453
0.002102
0.001944
0.002008
0.002294
0.002766
0.003369
0.004036
0.004704
0.005317
0.005835
0.006229
0.006485
0.006600
0.006578
0.006431
0.006172
0.005816
0.005378
0.004873
0.004315
0.003714
0.003080
0.002423
0.001749
0.001065
0.000376
-0.000314
-0.001000
-0.001678
-0.002344
-0.002993
-0.003620
-0.004219
-0.004782
-0.005301
-0.005763
-0.006155
-0.006521
0.365311
0.364153
0.360426
0.352790
0.338448
0.312064
0.263934
0.178004
0.032292
-0.185821
-0.311820
-0.369129
-0.400079
-0.423859
-0.446632
-0.464276
-0.469813
-0.461607
-0.438968
-0.404199
-0.360473
-0.311035
-0.258940
-0.206963
-0.157566
-0.112845
-0.074421
-0.043284
-0.019672
-0.002919
0.006793
0.004477
-0.008324
-0.027562
-0.048153
-0.065177
-0.073347
-0.073755
-0.070068
-0.064751
-0.058837
-0.052917
-0.047212
-0.041724
-0.036359
-0.031027
-0.025695
-0.020409
-0.015282
-0.010471
-0.006134
-0.002410
0.000606
0.002866
0.004371
0.005166
0.005334
0.004993
0.004286
0.003376
0.002431
0.001602
0.001012
0.000761
0.000810
0.001156
0.001746
0.002501
0.003333
0.004161
0.004917
0.005553
0.006038
0.006361
0.006521
0.006527
0.006394
0.006140
0.005783
0.005341
0.004831
0.004266
0.003659
0.003021
0.002360
0.001684
0.000998
0.000308
-0.000381
-0.001065
-0.001741
-0.002403
-0.003048
-0.003671
-0.004266
-0.004826
-0.005343
-0.005809
-0.006213
-0.006612
0.399208
0.399226
0.398945
0.397261
0.391606
0.376225
0.338065
0.247301
0.029185
-0.380749
-0.476793
-0.470978
-0.466425
-0.473457
-0.495143
-0.524208
-0.537609
-0.529691
-0.501915
-0.458993
-0.405516
-0.345607
-0.282971
-0.220948
-0.162569
-0.110546
-0.067079
-0.033506
-0.010102
0.003393
0.012112
0.009913
-0.003433
-0.022779
-0.043557
-0.061791
-0.074635
-0.078844
-0.074656
-0.068897
-0.062106
-0.055182
-0.048444
-0.041937
-0.035625
-0.029475
-0.023501
-0.017770
-0.012396
-0.007511
-0.003249
0.000283
0.003016
0.004924
0.006023
0.006371
0.006064
0.005230
0.004036
0.002669
0.001325
0.000182
-0.000621
-0.000965
-0.000884
-0.000406
0.000385
0.001375
0.002446
0.003494
0.004440
0.005229
0.005831
0.006236
0.006450
0.006487
0.006370
0.006120
0.005761
0.005312
0.004794
0.004220
0.003606
0.002960
0.002294
0.001613
0.000924
0.000232
-0.000459
-0.001144
-0.001820
-0.002483
-0.003128
-0.003752
-0.004349
-0.004913
-0.005437
-0.005916
-0.006341
-0.006783
0.433032
0.434417
0.438246
0.444103
0.450744
0.454562
0.444822
0.387113
0.130602
-0.737406
-0.663683
-0.527680
-0.492008
-0.484813
-0.504379
-0.546465
-0.582847
-0.580579
-0.552161
-0.505781
-0.447114
-0.380918
-0.311491
-0.242779
-0.178513
-0.122304
-0.077248
-0.045032
-0.024901
-0.014118
-0.010545
-0.013128
-0.020552
-0.031624
-0.044108
-0.055762
-0.064614
-0.069108
-0.070119
-0.065662
-0.059686
-0.053288
-0.046856
-0.040454
-0.034094
-0.027813
-0.021690
-0.015843
-0.010415
-0.005556
-0.001397
0.001957
0.004443
0.006042
0.006774
0.006701
0.005925
0.004594
0.002896
0.001056
-0.000692
-0.002132
-0.003097
-0.003487
-0.003268
-0.002527
-0.001405
-0.000064
0.001342
0.002686
0.003877
0.004858
0.005601
0.006104
0.006380
0.006454
0.006353
0.006107
0.005744
0.005287
0.004758
0.004174
0.003550
0.002896
0.002222
0.001535
0.000842
0.000145
-0.000549
-0.001237
-0.001916
-0.002582
-0.003232
-0.003861
-0.004465
-0.005039
-0.005579
-0.006078
-0.006531
-0.007022
0.464253
0.466956
0.474801
0.488276
0.508161
0.535309
0.569681
0.605985
0.678103
-0.029651
-0.585291
-0.506900
-0.494742
-0.490278
-0.503697
-0.539695
-0.579789
-0.593899
-0.570036
-0.527667
-0.471841
-0.407479
-0.339454
-0.272447
-0.211044
-0.159595
-0.120735
-0.094834
-0.079664
-0.070969
-0.067188
-0.062717
-0.058793
-0.056393
-0.055483
-0.055596
-0.056053
-0.056151
-0.055615
-0.054001
-0.051030
-0.046349
-0.041416
-0.036185
-0.030698
-0.025052
-0.019393
-0.013901
-0.008768
-0.004180
-0.000295
0.002768
0.004933
0.006169
0.006487
0.005945
0.004648
0.002763
0.000514
-0.001828
-0.003971
-0.005655
-0.006688
-0.006962
-0.006412
-0.005217
-0.003600
-0.001779
0.000057
0.001766
0.003248
0.004450
0.005354
0.005966
0.006311
0.006422
0.006338
0.006095
0.005726
0.005259
0.004719
0.004123
0.003488
0.002825
0.002143
0.001450
0.000750
0.000048
-0.000651
-0.001344
-0.002029
-0.002701
-0.003358
-0.003997
-0.004612
-0.005202
-0.005761
-0.006285
-0.006771
-0.007318
0.490444
0.494123
0.504932
0.523976
0.553383
0.596875
0.660968
0.756852
0.892289
0.926952
0.000000
-0.502618
-0.498336
-0.494682
-0.503463
-0.524996
-0.549464
-0.562767
-0.547246
-0.513213
-0.466215
-0.411264
-0.353751
-0.298742
-0.250845
-0.214560
-0.190097
-0.174671
-0.163639
-0.152929
-0.139953
-0.123154
-0.105224
-0.088100
-0.072986
-0.060558
-0.051070
-0.044401
-0.040157
-0.037612
-0.035890
-0.034591
-0.031886
-0.028560
-0.024668
-0.020337
-0.015752
-0.011138
-0.006738
-0.002781
0.000542
0.003080
0.004731
0.005439
0.005193
0.004040
0.002091
-0.000462
-0.003341
-0.006205
-0.008693
-0.010492
-0.011407
-0.011256
-0.010105
-0.008254
-0.006000
-0.003605
-0.001281
0.000824
0.002613
0.004044
0.005109
0.005828
0.006239
0.006387
0.006318
0.006076
0.005700
0.005223
0.004671
0.004064
0.003418
0.002745
0.002055
0.001354
0.000647
-0.000060
-0.000766
-0.001466
-0.002158
-0.002839
-0.003506
-0.004156
-0.004787
-0.005396
-0.005978
-0.006532
-0.007055
-0.007661
0.509802
0.513920
0.526013
0.547235
0.579673
0.626495
0.691653
0.776670
0.873659
0.961615
0.881063
0.000000
-0.497609
-0.496883
-0.492142
-0.496642
-0.503380
-0.503253
-0.490460
-0.460809
-0.422774
-0.381794
-0.342514
-0.309671
-0.287262
-0.275376
-0.268993
-0.264998
-0.255935
-0.237092
-0.210122
-0.179281
-0.147333
-0.116688
-0.089117
-0.065789
-0.047339
-0.033923
-0.025232
-0.020498
-0.018613
-0.018386
-0.018569
-0.017582
-0.015681
-0.013148
-0.010128
-0.006865
-0.003638
-0.000707
0.001700
0.003400
0.004256
0.004175
0.003123
0.001134
-0.001665
-0.005031
-0.008608
-0.011962
-0.014656
-0.016339
-0.016821
-0.015846
-0.013861
-0.011222
-0.008268
-0.005284
-0.002483
-0.000008
0.002060
0.003691
0.004894
0.005703
0.006167
0.006342
0.006283
0.006041
0.005658
0.005170
0.004607
0.003989
0.003334
0.002652
0.001955
0.001247
0.000533
-0.000181
-0.000893
-0.001601
-0.002301
-0.002993
-0.003672
-0.004337
-0.004986
-0.005616
-0.006226
-0.006812
-0.007373
-0.008041
0.521515
0.525519
0.537202
0.557377
0.587310
0.628432
0.681825
0.747189
0.813505
0.836801
0.800511
0.685364
0.000000
-0.486052
-0.475220
-0.461159
-0.451664
-0.435242
-0.410674
-0.381365
-0.351587
-0.326590
-0.310672
-0.306762
-0.314694
-0.330225
-0.344594
-0.348386
-0.336418
-0.304646
-0.265122
-0.221649
-0.177704
-0.136115
-0.098910
-0.067363
-0.042125
-0.023332
-0.010679
-0.003439
-0.000503
-0.000477
-0.001868
-0.003398
-0.003825
-0.003354
-0.002208
-0.000632
0.001074
0.002626
0.003774
0.004303
0.004040
0.002858
0.000698
-0.002401
-0.006267
-0.010571
-0.014849
-0.018566
-0.021233
-0.022512
-0.021946
-0.019985
-0.017085
-0.013656
-0.010055
-0.006561
-0.003371
-0.000608
0.001664
0.003437
0.004732
0.005597
0.006093
0.006282
0.006226
0.005979
0.005589
0.005093
0.004521
0.003895
0.003232
0.002545
0.001840
0.001127
0.000407
-0.000313
-0.001033
-0.001749
-0.002459
-0.003162
-0.003855
-0.004537
-0.005205
-0.005859
-0.006497
-0.007117
-0.007718
-0.008448
0.525787
0.529246
0.539262
0.556250
0.580790
0.613247
0.652638
0.694003
0.724553
0.717418
0.655447
0.570216
0.403032
0.000000
-0.448220
-0.421219
-0.410733
-0.376226
-0.332294
-0.295978
-0.271492
-0.261751
-0.268965
-0.293037
-0.331588
-0.373345
-0.403824
-0.412458
-0.388678
-0.348512
-0.299476
-0.246735
-0.194367
-0.145421
-0.101946
-0.065120
-0.035441
-0.012915
0.002816
0.012418
0.016871
0.017462
0.015689
0.012983
0.010378
0.008760
0.007960
0.007718
0.007707
0.007636
0.007247
0.006306
0.004607
0.002000
-0.001579
-0.006052
-0.011158
-0.016448
-0.021325
-0.025173
-0.027510
-0.027800
-0.026000
-0.023019
-0.019284
-0.015203
-0.011114
-0.007268
-0.003835
-0.000912
0.001462
0.003296
0.004624
0.005506
0.006006
0.006194
0.006134
0.005882
0.005486
0.004985
0.004408
0.003778
0.003111
0.002419
0.001711
0.000993
0.000269
-0.000457
-0.001184
-0.001908
-0.002629
-0.003344
-0.004052
-0.004751
-0.005441
-0.006120
-0.006787
-0.007441
-0.008083
-0.008874
0.523626
0.526331
0.534083
0.546915
0.564657
0.586493
0.609979
0.629400
0.633681
0.604870
0.525170
0.384753
0.235848
-0.187667
-0.472275
-0.424417
-0.395009
-0.334960
-0.270778
-0.222665
-0.200183
-0.201768
-0.228811
-0.277433
-0.338819
-0.397644
-0.437310
-0.440966
-0.411170
-0.365734
-0.311611
-0.254383
-0.198301
-0.146363
-0.100449
-0.061525
-0.029879
-0.005342
0.012512
0.024259
0.030646
0.032678
0.031636
0.028898
0.025573
0.022344
0.019851
0.017927
0.016197
0.014400
0.012301
0.009659
0.006259
0.001947
-0.003304
-0.009330
-0.015738
-0.021923
-0.027167
-0.030803
-0.032343
-0.031070
-0.028291
-0.024511
-0.020188
-0.015707
-0.011368
-0.007381
-0.003883
-0.000940
0.001427
0.003241
0.004546
0.005406
0.005889
0.006064
0.005996
0.005739
0.005341
0.004839
0.004263
0.003634
0.002967
0.002276
0.001567
0.000847
0.000120
-0.000611
-0.001344
-0.002077
-0.002808
-0.003536
-0.004260
-0.004978
-0.005689
-0.006394
-0.007090
-0.007778
-0.008460
-0.009310
0.516424
0.518259
0.523435
0.531688
0.542362
0.554007
0.563680
0.565963
0.551872
0.508012
0.416856
0.254220
-0.030662
-0.611181
-0.520133
-0.415258
-0.358074
-0.296082
-0.234729
-0.184403
-0.159373
-0.168922
-0.207485
-0.267921
-0.337948
-0.400543
-0.438039
-0.432477
-0.402367
-0.356794
-0.303047
-0.246737
-0.191948
-0.141427
-0.096809
-0.058863
-0.027728
-0.003125
0.015459
0.028621
0.036954
0.041101
0.041958
0.040682
0.038285
0.035323
0.032027
0.028962
0.025764
0.022324
0.018489
0.014052
0.008813
0.002663
-0.004340
-0.011895
-0.019446
-0.026237
-0.031466
-0.034498
-0.034174
-0.032018
-0.028585
-0.024379
-0.019826
-0.015265
-0.010943
-0.007032
-0.003635
-0.000799
0.001471
0.003203
0.004446
0.005261
0.005715
0.005875
0.005800
0.005543
0.005150
0.004654
0.004085
0.003463
0.002802
0.002115
0.001409
0.000689
-0.000040
-0.000774
-0.001513
-0.002254
-0.002996
-0.003737
-0.004476
-0.005213
-0.005947
-0.006677
-0.007403
-0.008124
-0.008843
-0.009749
0.505786
0.506759
0.509427
0.513363
0.517681
0.520734
0.519666
0.509858
0.484374
0.433527
0.344479
0.200304
-0.020321
-0.299760
-0.354907
-0.334513
-0.299648
-0.255119
-0.207393
-0.168831
-0.153132
-0.166649
-0.207000
-0.265871
-0.330194
-0.383944
-0.403952
-0.396527
-0.368642
-0.327356
-0.278906
-0.228216
-0.178865
-0.133241
-0.092754
-0.058065
-0.029293
-0.006195
0.011692
0.024938
0.034145
0.039944
0.043039
0.044121
0.043638
0.042781
0.041222
0.038159
0.034229
0.029654
0.024419
0.018406
0.011503
0.003707
-0.004779
-0.013485
-0.021691
-0.028549
-0.033280
-0.034362
-0.033268
-0.030692
-0.027104
-0.022936
-0.018546
-0.014215
-0.010147
-0.006483
-0.003306
-0.000655
0.001469
0.003092
0.004260
0.005028
0.005457
0.005608
0.005536
0.005290
0.004911
0.004431
0.003876
0.003267
0.002618
0.001939
0.001238
0.000521
-0.000207
-0.000944
-0.001688
-0.002436
-0.003188
-0.003942
-0.004698
-0.005454
-0.006210
-0.006966
-0.007720
-0.008474
-0.009229
-0.010186
0.493305
0.493508
0.493963
0.494200
0.493304
0.489718
0.480980
0.463456
0.432145
0.380691
0.301750
0.188363
0.039573
-0.121648
-0.204607
-0.230458
-0.227009
-0.208106
-0.184004
-0.165368
-0.161688
-0.177704
-0.212271
-0.258986
-0.306824
-0.340359
-0.351678
-0.344136
-0.320986
-0.287014
-0.246909
-0.204584
-0.162985
-0.124134
-0.089270
-0.059012
-0.033530
-0.012676
0.003901
0.016675
0.026185
0.032999
0.037668
0.040640
0.043053
0.044420
0.044168
0.042211
0.038755
0.034036
0.028206
0.021320
0.013426
0.004686
-0.004519
-0.013554
-0.021596
-0.027858
-0.030562
-0.031150
-0.030066
-0.027734
-0.024544
-0.020846
-0.016936
-0.013054
-0.009381
-0.006047
-0.003134
-0.000685
0.001294
0.002820
0.003929
0.004669
0.005093
0.005254
0.005201
0.004980
0.004627
0.004172
0.003640
0.003051
0.002417
0.001750
0.001059
0.000347
-0.000379
-0.001117
-0.001865
-0.002620
-0.003382
-0.004150
-0.004922
-0.005697
-0.006476
-0.007257
-0.008040
-0.008824
-0.009612
-0.010613
0.480409
0.479964
0.478587
0.475851
0.470943
0.462547
0.448712
0.426762
0.393326
0.344596
0.277012
0.188827
0.083656
-0.023896
-0.100111
-0.142624
-0.160625
-0.163426
-0.159510
-0.156873
-0.162056
-0.178467
-0.205476
-0.238445
-0.269355
-0.289509
-0.296587
-0.290261
-0.272417
-0.246129
-0.214685
-0.181017
-0.147448
-0.115648
-0.086684
-0.061136
-0.039205
-0.020824
-0.005741
0.006410
0.016058
0.023650
0.029619
0.034486
0.038360
0.040895
0.041852
0.041113
0.038717
0.034767
0.029376
0.022673
0.014856
0.006260
-0.002585
-0.010971
-0.018078
-0.022499
-0.025194
-0.026216
-0.025816
-0.024275
-0.021879
-0.018909
-0.015627
-0.012262
-0.009000
-0.005981
-0.003300
-0.001010
0.000867
0.002337
0.003426
0.004172
0.004620
0.004815
0.004801
0.004620
0.004305
0.003886
0.003385
0.002820
0.002207
0.001555
0.000875
0.000170
-0.000553
-0.001291
-0.002042
-0.002804
-0.003576
-0.004356
-0.005144
-0.005939
-0.006741
-0.007548
-0.008359
-0.009173
-0.009990
-0.011029
0.468299
0.467321
0.464468
0.459420
0.451546
0.439823
0.422799
0.398612
0.365110
0.320176
0.262347
0.191902
0.112555
0.033098
-0.032112
-0.078177
-0.107169
-0.123803
-0.133544
-0.141733
-0.152693
-0.168738
-0.189581
-0.212350
-0.232321
-0.245429
-0.249612
-0.244379
-0.230766
-0.210722
-0.186507
-0.160263
-0.133774
-0.108366
-0.084912
-0.063890
-0.045467
-0.029586
-0.016042
-0.004554
0.005189
0.013481
0.020573
0.026747
0.031742
0.035432
0.037624
0.038173
0.037034
0.034246
0.029911
0.024196
0.017364
0.009810
0.002080
-0.005168
-0.011135
-0.015868
-0.019243
-0.021238
-0.021922
-0.021432
-0.019963
-0.017753
-0.015062
-0.012140
-0.009199
-0.006403
-0.003867
-0.001661
0.000180
0.001651
0.002767
0.003557
0.004058
0.004311
0.004356
0.004229
0.003963
0.003586
0.003120
0.002584
0.001994
0.001360
0.000692
-0.000005
-0.000723
-0.001461
-0.002215
-0.002983
-0.003764
-0.004558
-0.005362
-0.006177
-0.007002
-0.007835
-0.008675
-0.009519
-0.010364
-0.011432
0.457967
0.456523
0.452442
0.445585
0.435536
0.421560
0.402629
0.377498
0.344854
0.303604
0.253327
0.194915
0.131319
0.067915
0.011770
-0.033237
-0.066852
-0.091088
-0.109025
-0.123942
-0.138564
-0.154416
-0.171451
-0.188090
-0.202040
-0.210798
-0.213031
-0.208441
-0.197696
-0.182119
-0.163322
-0.142899
-0.122210
-0.102276
-0.083747
-0.066938
-0.051899
-0.038498
-0.026510
-0.015688
-0.005818
0.003226
0.011452
0.018765
0.024969
0.029920
0.033434
0.035361
0.035623
0.034228
0.031273
0.026927
0.021435
0.015132
0.008456
0.001762
-0.004439
-0.009846
-0.014225
-0.017401
-0.019281
-0.019864
-0.019258
-0.017677
-0.015411
-0.012763
-0.009989
-0.007282
-0.004781
-0.002571
-0.000696
0.000831
0.002016
0.002882
0.003460
0.003788
0.003901
0.003836
0.003624
0.003292
0.002863
0.002357
0.001789
0.001172
0.000516
-0.000172
-0.000886
-0.001623
-0.002380
-0.003154
-0.003945
-0.004751
-0.005572
-0.006407
-0.007256
-0.008118
-0.008989
-0.009865
-0.010738
-0.011821
0.450283
0.448326
0.443078
0.434699
0.422997
0.407475
0.387418
0.362007
0.330470
0.292298
0.247549
0.197204
0.143473
0.089793
0.040166
-0.002645
-0.037748
-0.065780
-0.088303
-0.107195
-0.124101
-0.140000
-0.154965
-0.168244
-0.178609
-0.184566
-0.185404
-0.181053
-0.172074
-0.159497
-0.144573
-0.128552
-0.112491
-0.097151
-0.082954
-0.070010
-0.058191
-0.047227
-0.036809
-0.026656
-0.016587
-0.006615
0.002809
0.011409
0.018978
0.025297
0.030166
0.033433
0.035023
0.034948
0.033309
0.030254
0.025952
0.020628
0.014302
0.007644
0.001022
-0.005210
-0.010694
-0.015103
-0.018174
-0.019757
-0.019859
-0.018681
-0.016588
-0.013988
-0.011197
-0.008435
-0.005861
-0.003572
-0.001610
0.000008
0.001287
0.002243
0.002907
0.003311
0.003493
0.003487
0.003325
0.003034
0.002637
0.002156
0.001608
0.001005
0.000359
-0.000323
-0.001034
-0.001772
-0.002531
-0.003312
-0.004111
-0.004930
-0.005767
-0.006624
-0.007498
-0.008391
-0.009298
-0.010214
-0.011125
-0.012195
0.446211
0.443369
0.436705
0.426858
0.413800
0.397162
0.376407
0.350984
0.320445
0.284599
0.243703
0.198666
0.151156
0.103516
0.058321
0.017586
-0.017679
-0.047448
-0.072399
-0.093529
-0.111777
-0.127749
-0.141542
-0.152925
-0.160978
-0.165052
-0.164834
-0.160459
-0.152507
-0.141889
-0.129676
-0.116904
-0.104421
-0.092779
-0.082195
-0.072579
-0.063621
-0.054907
-0.046025
-0.036614
-0.026367
-0.015398
-0.004765
0.005306
0.014369
0.022082
0.028212
0.032616
0.035248
0.036161
0.035506
0.033455
0.030025
0.024990
0.018949
0.012182
0.005043
-0.002046
-0.008615
-0.014193
-0.018364
-0.020818
-0.021434
-0.020377
-0.018148
-0.015369
-0.012414
-0.009494
-0.006788
-0.004398
-0.002343
-0.000637
0.000724
0.001757
0.002489
0.002954
0.003188
0.003227
0.003105
0.002844
0.002469
0.002005
0.001469
0.000875
0.000235
-0.000444
-0.001155
-0.001894
-0.002658
-0.003445
-0.004253
-0.005084
-0.005939
-0.006817
-0.007720
-0.008645
-0.009594
-0.010563
-0.011543
-0.012546
0.447419
0.442133
0.433323
0.421903
0.407669
0.390200
0.368968
0.343578
0.313762
0.279488
0.241088
0.199367
0.155644
0.111656
0.069275
0.030085
-0.004918
-0.035393
-0.061534
-0.083831
-0.102755
-0.118698
-0.131924
-0.142050
-0.148703
-0.151605
-0.150709
-0.146295
-0.138975
-0.129603
-0.119140
-0.108493
-0.098371
-0.089186
-0.081022
-0.073664
-0.066689
-0.059603
-0.051972
-0.043436
-0.033501
-0.022176
-0.010327
0.001208
0.011668
0.020571
0.027656
0.032805
0.036014
0.037403
0.037270
0.035670
0.032349
0.027701
0.021823
0.014955
0.007459
-0.000196
-0.007469
-0.013811
-0.018726
-0.021826
-0.022859
-0.021791
-0.019183
-0.016128
-0.013003
-0.010054
-0.007331
-0.004873
-0.002748
-0.000980
0.000432
0.001507
0.002274
0.002768
0.003025
0.003081
0.002966
0.002717
0.002357
0.001905
0.001379
0.000791
0.000155
-0.000523
-0.001235
-0.001976
-0.002745
-0.003539
-0.004360
-0.005205
-0.006076
-0.006974
-0.007900
-0.008857
-0.009846
-0.010873
-0.011954
-0.012813
0.458394
0.444276
0.432367
0.419578
0.404545
0.386481
0.364956
0.339590
0.310182
0.276758
0.239660
0.199614
0.157753
0.115536
0.074533
0.036143
0.001347
-0.029380
-0.056026
-0.078894
-0.098435
-0.114817
-0.127889
-0.137606
-0.143785
-0.146295
-0.145192
-0.140809
-0.133757
-0.124856
-0.115010
-0.105063
-0.095667
-0.087194
-0.079697
-0.072943
-0.066504
-0.059884
-0.052651
-0.044524
-0.035413
-0.024910
-0.012598
-0.000294
0.010869
0.020303
0.027741
0.033094
0.036384
0.037735
0.037292
0.035336
0.032135
0.027643
0.021952
0.015281
0.007972
0.000471
-0.006698
-0.012994
-0.017928
-0.021123
-0.022374
-0.021763
-0.019608
-0.016426
-0.013157
-0.010127
-0.007392
-0.004957
-0.002848
-0.001087
0.000326
0.001407
0.002181
0.002684
0.002950
0.003013
0.002908
0.002665
0.002310
0.001862
0.001338
0.000752
0.000116
-0.000562
-0.001275
-0.002019
-0.002791
-0.003589
-0.004414
-0.005266
-0.006146
-0.007055
-0.007995
-0.008969
-0.009978
-0.011025
-0.012112
-0.012865
