# vtk DataFile Version 3.0
Vector Field
ASCII
DATASET RECTILINEAR_GRID
DIMENSIONS 100 26 1
X_COORDINATES 100 double
0.050000 0.150000 0.250000 0.350000 0.450000 0.550000 0.650000 0.750000 0.850000 0.950000 1.050000 1.150000 1.250000 1.350000 1.450000 1.550000 1.650000 1.750000 1.850000 1.950000 2.050000 2.150000 2.250000 2.350000 2.450000 2.550000 2.650000 2.750000 2.850000 2.950000 3.050000 3.150000 3.250000 3.350000 3.450000 3.550000 3.650000 3.750000 3.850000 3.950000 4.050000 4.150000 4.250000 4.350000 4.450000 4.550000 4.650000 4.750000 4.850000 4.950000 5.050000 5.150000 5.250000 5.350000 5.450000 5.550000 5.650000 5.750000 5.850000 5.950000 6.050000 6.150000 6.250000 6.350000 6.450000 6.550000 6.650000 6.750000 6.850000 6.950000 7.050000 7.150000 7.250000 7.350000 7.450000 7.550000 7.650000 7.750000 7.850000 7.950000 8.050000 8.150000 8.250000 8.350000 8.450000 8.550000 8.650000 8.750000 8.850000 8.950000 9.050000 9.150000 9.250000 9.350000 9.450000 9.550000 9.650000 9.750000 9.850000 9.950000 
Y_COORDINATES 26 double
0.050000 0.150000 0.250000 0.350000 0.450000 0.550000 0.650000 0.750000 0.850000 0.950000 1.050000 1.150000 1.250000 1.350000 1.450000 1.550000 1.650000 1.750000 1.850000 1.950000 2.050000 2.150000 2.250000 2.350000 2.450000 2.550000 
Z_COORDINATES 1 double
0.0
POINT_DATA 2600
VECTORS Vektorfeld double
0.997766 0.002234 0.0
0.993405 0.002127 0.0
0.990838 0.000439 0.0
0.992310 -0.001911 0.0
0.998725 -0.004503 0.0
1.010273 -0.007045 0.0
1.026573 -0.009256 0.0
1.046673 -0.010844 0.0
1.069064 -0.011547 0.0
1.091807 -0.011196 0.0
1.112786 -0.009783 0.0
1.130032 -0.007462 0.0
1.141973 -0.004480 0.0
1.147623 -0.001169 0.0
1.146671 0.002121 0.0
1.139165 0.005384 0.0
1.125288 0.008493 0.0
1.105480 0.011315 0.0
1.080438 0.013728 0.0
1.051088 0.015622 0.0
1.018558 0.016908 0.0
0.984130 0.017520 0.0
0.949183 0.017427 0.0
0.915127 0.016629 0.0
0.883325 0.015173 0.0
0.855007 0.013146 0.0
0.831180 0.010681 0.0
0.812540 0.007960 0.0
0.799370 0.005210 0.0
0.791444 0.002717 0.0
0.787974 0.000753 0.0
0.787635 -0.000415 0.0
0.788546 -0.000496 0.0
0.788403 0.000639 0.0
0.784796 0.002968 0.0
0.775605 0.006222 0.0
0.759332 0.010051 0.0
0.735216 0.014066 0.0
0.703256 0.017893 0.0
0.664159 0.021204 0.0
0.619227 0.023728 0.0
0.570243 0.025256 0.0
0.519347 0.025640 0.0
0.468984 0.024724 0.0
0.422090 0.022170 0.0
0.382542 0.017379 0.0
0.355067 0.010095 0.0
0.343220 0.001751 0.0
0.345415 -0.003946 0.0
0.355799 -0.006439 0.0
0.369688 -0.007450 0.0
0.384756 -0.007617 0.0
0.399590 -0.007217 0.0
0.413231 -0.006423 0.0
0.425026 -0.005372 0.0
0.434579 -0.004180 0.0
0.441713 -0.002953 0.0
0.446463 -0.001797 0.0
0.449063 -0.000803 0.0
0.449786 0.000079 0.0
0.448432 0.001275 0.0
0.444260 0.002897 0.0
0.436628 0.004735 0.0
0.425351 0.006542 0.0
0.410809 0.008000 0.0
0.394095 0.008715 0.0
0.376960 0.008420 0.0
0.361323 0.007217 0.0
0.348494 0.005613 0.0
0.338619 0.004262 0.0
0.330792 0.003566 0.0
0.323763 0.003462 0.0
0.316748 0.003553 0.0
0.309760 0.003435 0.0
0.303376 0.002949 0.0
0.298210 0.002217 0.0
0.294519 0.001475 0.0
0.292150 0.000894 0.0
0.290761 0.000495 0.0
0.289992 0.000274 0.0
0.289549 0.000169 0.0
0.289169 0.000210 0.0
0.288506 0.000452 0.0
0.287203 0.000851 0.0
0.285065 0.001287 0.0
0.282160 0.001618 0.0
0.278777 0.001765 0.0
0.275232 0.001780 0.0
0.271684 0.001768 0.0
0.268094 0.001823 0.0
0.264295 0.001976 0.0
0.260133 0.002187 0.0
0.255570 0.002376 0.0
0.250718 0.002475 0.0
0.245802 0.002441 0.0
0.241120 0.002242 0.0
0.237052 0.001825 0.0
0.234125 0.001101 0.0
0.232900 0.000124 0.0
0.233876 -0.001100 0.0
1.003059 0.001408 0.0
1.011986 -0.001612 0.0
1.025992 -0.007260 0.0
1.044498 -0.014191 0.0
1.067469 -0.021609 0.0
1.094813 -0.028830 0.0
1.126143 -0.035102 0.0
1.160647 -0.039600 0.0
1.197006 -0.041542 0.0
1.233450 -0.040388 0.0
1.268016 -0.036136 0.0
1.298936 -0.029274 0.0
1.324866 -0.020539 0.0
1.344834 -0.010727 0.0
1.358037 -0.000571 0.0
1.364095 0.009524 0.0
1.363172 0.019152 0.0
1.355731 0.027904 0.0
1.342503 0.035410 0.0
1.324455 0.041338 0.0
1.302756 0.045419 0.0
1.278737 0.047456 0.0
1.253825 0.047350 0.0
1.229479 0.045109 0.0
1.207106 0.040868 0.0
1.187979 0.034896 0.0
1.173140 0.027596 0.0
1.163318 0.019508 0.0
1.158840 0.011309 0.0
1.159593 0.003791 0.0
1.164893 -0.002150 0.0
1.173267 -0.005548 0.0
1.182619 -0.005626 0.0
1.190616 -0.002084 0.0
1.194977 0.004939 0.0
1.193581 0.014837 0.0
1.184765 0.026525 0.0
1.167677 0.038797 0.0
1.142279 0.050521 0.0
1.109237 0.060716 0.0
1.069809 0.068576 0.0
1.025729 0.073472 0.0
0.979136 0.074913 0.0
0.932528 0.072422 0.0
0.888558 0.065335 0.0
0.849317 0.053005 0.0
0.815143 0.036118 0.0
0.784669 0.018049 0.0
0.758965 0.003267 0.0
0.742469 -0.007540 0.0
0.736789 -0.014558 0.0
0.739648 -0.018437 0.0
0.748550 -0.020134 0.0
0.761701 -0.020299 0.0
0.777826 -0.019418 0.0
0.795964 -0.017825 0.0
0.815247 -0.015724 0.0
0.834676 -0.013206 0.0
0.852924 -0.010241 0.0
0.868357 -0.006639 0.0
0.879844 -0.002139 0.0
0.887316 0.003011 0.0
0.891106 0.008464 0.0
0.891458 0.013739 0.0
0.888567 0.018236 0.0
0.882471 0.021289 0.0
0.872907 0.022544 0.0
0.859322 0.022315 0.0
0.841203 0.021462 0.0
0.818635 0.020854 0.0
0.792655 0.020782 0.0
0.765191 0.020740 0.0
0.738674 0.019807 0.0
0.715525 0.017317 0.0
0.697638 0.013339 0.0
0.685966 0.008665 0.0
0.680353 0.004331 0.0
0.679684 0.001075 0.0
0.682277 -0.000891 0.0
0.686612 -0.001906 0.0
0.691719 -0.002314 0.0
0.696941 -0.002149 0.0
0.701811 -0.001396 0.0
0.706099 -0.000286 0.0
0.709792 0.000870 0.0
0.712864 0.001868 0.0
0.715049 0.002712 0.0
0.715913 0.003514 0.0
0.715085 0.004410 0.0
0.712388 0.005468 0.0
0.707877 0.006641 0.0
0.701801 0.007761 0.0
0.694541 0.008624 0.0
0.686545 0.009075 0.0
0.678270 0.009032 0.0
0.670164 0.008439 0.0
0.662652 0.007208 0.0
0.656114 0.005184 0.0
0.651075 0.002305 0.0
0.649926 -0.003109 0.0
1.001966 -0.003617 0.0
1.009056 -0.012603 0.0
1.022078 -0.023297 0.0
1.040569 -0.035150 0.0
1.064453 -0.047505 0.0
1.093686 -0.059511 0.0
1.127977 -0.070042 0.0
1.166521 -0.077707 0.0
1.207799 -0.081073 0.0
1.249487 -0.078990 0.0
1.288905 -0.071518 0.0
1.323815 -0.059722 0.0
1.352778 -0.044984 0.0
1.375063 -0.028535 0.0
1.390440 -0.011343 0.0
1.398970 0.005709 0.0
1.400919 0.021942 0.0
1.396758 0.036716 0.0
1.387146 0.049438 0.0
1.372930 0.059574 0.0
1.355133 0.066679 0.0
1.334911 0.070437 0.0
1.313510 0.070682 0.0
1.292208 0.067425 0.0
1.272256 0.060876 0.0
1.254823 0.051449 0.0
1.240941 0.039763 0.0
1.231472 0.026631 0.0
1.227082 0.013053 0.0
1.228181 0.000196 0.0
1.234782 -0.010456 0.0
1.246384 -0.017218 0.0
1.261724 -0.018648 0.0
1.278594 -0.013929 0.0
1.294213 -0.003196 0.0
1.306049 0.012531 0.0
1.312200 0.031497 0.0
1.311436 0.051676 0.0
1.303273 0.071203 0.0
1.287877 0.088471 0.0
1.265950 0.102176 0.0
1.238608 0.111294 0.0
1.207267 0.115026 0.0
1.173462 0.112721 0.0
1.138545 0.103922 0.0
1.103321 0.088882 0.0
1.068238 0.069498 0.0
1.034305 0.049076 0.0
1.002710 0.029539 0.0
0.973620 0.011772 0.0
0.948221 -0.002791 0.0
0.929027 -0.013870 0.0
0.916953 -0.021528 0.0
0.911347 -0.026450 0.0
0.911309 -0.029353 0.0
0.916004 -0.030723 0.0
0.924705 -0.030810 0.0
0.936800 -0.029646 0.0
0.951834 -0.027082 0.0
0.969527 -0.022925 0.0
0.989513 -0.017327 0.0
1.010914 -0.010675 0.0
1.032567 -0.003293 0.0
1.053341 0.004369 0.0
1.072077 0.011761 0.0
1.087513 0.018424 0.0
1.098334 0.024152 0.0
1.103381 0.029246 0.0
1.101942 0.034089 0.0
1.094047 0.038689 0.0
1.080407 0.042567 0.0
1.062074 0.044751 0.0
1.040115 0.044272 0.0
1.015376 0.040740 0.0
0.988519 0.034660 0.0
0.960331 0.027204 0.0
0.932175 0.019560 0.0
0.906268 0.012422 0.0
0.885403 0.006035 0.0
0.871691 0.000545 0.0
0.865346 -0.003527 0.0
0.864977 -0.005790 0.0
0.868867 -0.006515 0.0
0.875625 -0.006214 0.0
0.883935 -0.005206 0.0
0.892442 -0.003635 0.0
0.900023 -0.001551 0.0
0.905966 0.000969 0.0
0.909932 0.003818 0.0
0.911868 0.006821 0.0
0.911972 0.009694 0.0
0.910654 0.012102 0.0
0.908430 0.013766 0.0
0.905835 0.014525 0.0
0.903361 0.014332 0.0
0.901415 0.013191 0.0
0.900296 0.011087 0.0
0.900230 0.007910 0.0
0.901446 0.003402 0.0
0.904287 -0.005897 0.0
1.001587 -0.007170 0.0
1.007784 -0.022338 0.0
1.019954 -0.038755 0.0
1.038100 -0.056330 0.0
1.062481 -0.074590 0.0
1.093423 -0.092601 0.0
1.131016 -0.108837 0.0
1.174677 -0.121117 0.0
1.222744 -0.127008 0.0
1.271808 -0.123808 0.0
1.317600 -0.111909 0.0
1.357042 -0.093684 0.0
1.388699 -0.071643 0.0
1.412210 -0.047671 0.0
1.427695 -0.023068 0.0
1.435478 0.001120 0.0
1.436043 0.024017 0.0
1.430004 0.044839 0.0
1.418133 0.062799 0.0
1.401392 0.077169 0.0
1.380918 0.087356 0.0
1.357964 0.092936 0.0
1.333853 0.093695 0.0
1.309919 0.089647 0.0
1.287472 0.081052 0.0
1.267755 0.068423 0.0
1.251915 0.052511 0.0
1.240995 0.034272 0.0
1.235973 0.014824 0.0
1.237746 -0.004447 0.0
1.246872 -0.021539 0.0
1.263098 -0.033963 0.0
1.285015 -0.039161 0.0
1.310026 -0.035298 0.0
1.334708 -0.022128 0.0
1.355656 -0.001320 0.0
1.370581 0.024271 0.0
1.378549 0.051698 0.0
1.379453 0.078440 0.0
1.373674 0.102408 0.0
1.361876 0.121964 0.0
1.344854 0.135870 0.0
1.323421 0.143225 0.0
1.298301 0.143446 0.0
1.270016 0.136400 0.0
1.238885 0.122758 0.0
1.205322 0.104268 0.0
1.170221 0.083340 0.0
1.134957 0.062134 0.0
1.101047 0.042177 0.0
1.069401 0.023850 0.0
1.040414 0.007670 0.0
1.015267 -0.005846 0.0
0.995394 -0.016654 0.0
0.981171 -0.024887 0.0
0.972226 -0.030939 0.0
0.968014 -0.035083 0.0
0.968041 -0.037495 0.0
0.972058 -0.038284 0.0
0.980195 -0.037554 0.0
0.992954 -0.035442 0.0
1.011029 -0.032034 0.0
1.034881 -0.027439 0.0
1.064218 -0.021597 0.0
1.097609 -0.014399 0.0
1.132432 -0.005675 0.0
1.165222 0.004639 0.0
1.192701 0.016232 0.0
1.212972 0.028272 0.0
1.225510 0.039863 0.0
1.230368 0.050176 0.0
1.227812 0.058031 0.0
1.218248 0.062515 0.0
1.202188 0.063296 0.0
1.180427 0.060722 0.0
1.154234 0.055524 0.0
1.125277 0.048353 0.0
1.095212 0.039603 0.0
1.065253 0.029678 0.0
1.036393 0.019473 0.0
1.010213 0.010071 0.0
0.988985 0.002210 0.0
0.974336 -0.003755 0.0
0.966079 -0.007475 0.0
0.962721 -0.008897 0.0
0.962529 -0.008258 0.0
0.963937 -0.005916 0.0
0.965597 -0.002269 0.0
0.966485 0.002202 0.0
0.966074 0.006913 0.0
0.964374 0.011198 0.0
0.961828 0.014462 0.0
0.959157 0.016302 0.0
0.957182 0.016559 0.0
0.956664 0.015289 0.0
0.958160 0.012684 0.0
0.961900 0.008972 0.0
0.967699 0.004293 0.0
0.974926 -0.001425 0.0
0.982007 -0.010993 0.0
1.001395 -0.010152 0.0
1.007008 -0.031166 0.0
1.018403 -0.053492 0.0
1.036034 -0.077369 0.0
1.060680 -0.102577 0.0
1.093341 -0.128216 0.0
1.134921 -0.152395 0.0
1.185515 -0.171815 0.0
1.243843 -0.182705 0.0
1.304218 -0.177551 0.0
1.358721 -0.158461 0.0
1.403220 -0.131073 0.0
1.437096 -0.099787 0.0
1.461100 -0.067042 0.0
1.476017 -0.034098 0.0
1.482384 -0.002002 0.0
1.480699 0.028259 0.0
1.471551 0.055783 0.0
1.455747 0.079531 0.0
1.434385 0.098539 0.0
1.408804 0.112042 0.0
1.380484 0.119522 0.0
1.350980 0.120725 0.0
1.321856 0.115675 0.0
1.294643 0.104684 0.0
1.270792 0.088358 0.0
1.251635 0.067573 0.0
1.238362 0.043403 0.0
1.232093 0.016985 0.0
1.233977 -0.010266 0.0
1.244917 -0.035786 0.0
1.264953 -0.055977 0.0
1.292816 -0.066927 0.0
1.325814 -0.065543 0.0
1.359929 -0.050680 0.0
1.390295 -0.024082 0.0
1.412771 0.009632 0.0
1.425882 0.045259 0.0
1.430361 0.079498 0.0
1.427510 0.109981 0.0
1.418645 0.135053 0.0
1.404846 0.153600 0.0
1.386864 0.164910 0.0
1.365113 0.168631 0.0
1.339749 0.164866 0.0
1.310824 0.154348 0.0
1.278566 0.138501 0.0
1.243604 0.119171 0.0
1.206998 0.098174 0.0
1.170058 0.076988 0.0
1.134116 0.056627 0.0
1.100317 0.037678 0.0
1.069341 0.020270 0.0
1.041632 0.004812 0.0
1.017799 -0.008297 0.0
0.998046 -0.018831 0.0
0.981879 -0.026812 0.0
0.968757 -0.032671 0.0
0.958641 -0.037009 0.0
0.952214 -0.040539 0.0
0.950852 -0.043854 0.0
0.956302 -0.047147 0.0
0.970140 -0.050016 0.0
0.993235 -0.051452 0.0
1.025472 -0.050172 0.0
1.065716 -0.044968 0.0
1.111840 -0.034982 0.0
1.160441 -0.020227 0.0
1.206560 -0.001659 0.0
1.245036 0.018779 0.0
1.273205 0.038233 0.0
1.290921 0.054814 0.0
1.298647 0.067571 0.0
1.296972 0.075974 0.0
1.286788 0.079987 0.0
1.269337 0.079903 0.0
1.246116 0.076152 0.0
1.218714 0.069272 0.0
1.188716 0.059967 0.0
1.157696 0.049064 0.0
1.127063 0.037293 0.0
1.097839 0.025439 0.0
1.070867 0.014637 0.0
1.047208 0.006049 0.0
1.027746 0.000399 0.0
1.012370 -0.001986 0.0
0.999934 -0.001161 0.0
0.988888 0.002361 0.0
0.977952 0.007620 0.0
0.966492 0.013365 0.0
0.954602 0.018336 0.0
0.942951 0.021520 0.0
0.932546 0.022320 0.0
0.924452 0.020609 0.0
0.919547 0.016661 0.0
0.918343 0.011021 0.0
0.920898 0.004340 0.0
0.926812 -0.002787 0.0
0.935138 -0.009899 0.0
0.943475 -0.017938 0.0
1.001203 -0.012750 0.0
1.006113 -0.039091 0.0
1.016329 -0.067178 0.0
1.032695 -0.097681 0.0
1.056622 -0.130838 0.0
1.090105 -0.166098 0.0
1.135512 -0.201500 0.0
1.194576 -0.232369 0.0
1.268380 -0.254282 0.0
1.345502 -0.243470 0.0
1.409311 -0.210852 0.0
1.456076 -0.169945 0.0
1.488744 -0.127460 0.0
1.510775 -0.085404 0.0
1.523995 -0.043873 0.0
1.528725 -0.003324 0.0
1.524841 0.035151 0.0
1.512500 0.070380 0.0
1.492385 0.100854 0.0
1.465721 0.125242 0.0
1.434081 0.142561 0.0
1.399219 0.152185 0.0
1.362964 0.153821 0.0
1.327165 0.147504 0.0
1.293629 0.133605 0.0
1.264062 0.112854 0.0
1.239972 0.086325 0.0
1.222542 0.055354 0.0
1.212541 0.021304 0.0
1.210643 -0.014570 0.0
1.217827 -0.049606 0.0
1.234784 -0.079150 0.0
1.261334 -0.098166 0.0
1.296405 -0.102373 0.0
1.337513 -0.089071 0.0
1.379834 -0.058378 0.0
1.416157 -0.014871 0.0
1.440467 0.032339 0.0
1.452079 0.076326 0.0
1.453568 0.114514 0.0
1.447396 0.145558 0.0
1.435449 0.168841 0.0
1.418945 0.184157 0.0
1.398508 0.191572 0.0
1.374351 0.191447 0.0
1.346516 0.184525 0.0
1.315137 0.171961 0.0
1.280631 0.155178 0.0
1.243765 0.135639 0.0
1.205586 0.114641 0.0
1.167285 0.093216 0.0
1.130043 0.072130 0.0
1.094839 0.051997 0.0
1.062202 0.033431 0.0
1.031959 0.017160 0.0
1.003381 0.004043 0.0
0.975598 -0.005736 0.0
0.948054 -0.013080 0.0
0.921387 -0.019818 0.0
0.897933 -0.027849 0.0
0.881054 -0.038302 0.0
0.873948 -0.051042 0.0
0.878598 -0.064610 0.0
0.895398 -0.076753 0.0
0.923504 -0.085215 0.0
0.961459 -0.088124 0.0
1.007596 -0.084087 0.0
1.060124 -0.072252 0.0
1.116928 -0.052557 0.0
1.174654 -0.026524 0.0
1.227435 0.002587 0.0
1.269344 0.030834 0.0
1.298345 0.054824 0.0
1.315109 0.073632 0.0
1.320695 0.086927 0.0
1.316379 0.094730 0.0
1.303614 0.097311 0.0
1.283959 0.095169 0.0
1.259023 0.089003 0.0
1.230405 0.079665 0.0
1.199619 0.068112 0.0
1.168029 0.055433 0.0
1.136799 0.042846 0.0
1.106713 0.031585 0.0
1.078065 0.022973 0.0
1.050750 0.018131 0.0
1.024434 0.017475 0.0
0.998747 0.020458 0.0
0.973533 0.025674 0.0
0.949062 0.031242 0.0
0.926084 0.035328 0.0
0.905692 0.036572 0.0
0.889035 0.034331 0.0
0.877029 0.028697 0.0
0.870164 0.020343 0.0
0.868424 0.010283 0.0
0.871310 -0.000364 0.0
0.877807 -0.010494 0.0
0.886397 -0.019109 0.0
0.894757 -0.025424 0.0
1.000925 -0.014878 0.0
1.004747 -0.045696 0.0
1.012899 -0.078940 0.0
1.026506 -0.115893 0.0
1.047568 -0.157614 0.0
1.079289 -0.204525 0.0
1.126329 -0.255520 0.0
1.193887 -0.304972 0.0
1.290898 -0.352493 0.0
1.390036 -0.321519 0.0
1.455683 -0.262260 0.0
1.493204 -0.202823 0.0
1.515220 -0.149268 0.0
1.529804 -0.100212 0.0
1.539804 -0.052286 0.0
1.543941 -0.003777 0.0
1.539756 0.043672 0.0
1.526074 0.087881 0.0
1.503197 0.126344 0.0
1.472449 0.157164 0.0
1.435625 0.179103 0.0
1.394701 0.191429 0.0
1.351729 0.193804 0.0
1.308786 0.186264 0.0
1.267920 0.169247 0.0
1.231054 0.143646 0.0
1.199817 0.110861 0.0
1.175235 0.072829 0.0
1.157176 0.031889 0.0
1.144251 -0.010333 0.0
1.136487 -0.053264 0.0
1.136107 -0.092070 0.0
1.145932 -0.121622 0.0
1.168904 -0.136961 0.0
1.206510 -0.133197 0.0
1.256883 -0.106947 0.0
1.313326 -0.059068 0.0
1.363617 0.001935 0.0
1.398024 0.060712 0.0
1.416540 0.110123 0.0
1.423145 0.149518 0.0
1.420829 0.179143 0.0
1.411607 0.199581 0.0
1.396699 0.211493 0.0
1.376783 0.215598 0.0
1.352251 0.212740 0.0
1.323442 0.203935 0.0
1.290824 0.190328 0.0
1.255085 0.173094 0.0
1.217126 0.153324 0.0
1.177992 0.131968 0.0
1.138724 0.109889 0.0
1.100104 0.088063 0.0
1.062287 0.067819 0.0
1.024525 0.050777 0.0
0.985402 0.038127 0.0
0.943885 0.029480 0.0
0.900814 0.022320 0.0
0.859515 0.012748 0.0
0.824889 -0.002335 0.0
0.801682 -0.023730 0.0
0.792651 -0.049478 0.0
0.797733 -0.075908 0.0
0.815013 -0.099534 0.0
0.842271 -0.117798 0.0
0.877735 -0.128959 0.0
0.920144 -0.131797 0.0
0.968542 -0.125468 0.0
1.021977 -0.109580 0.0
1.079172 -0.084422 0.0
1.138164 -0.051288 0.0
1.194826 -0.013862 0.0
1.242625 0.022720 0.0
1.277549 0.054049 0.0
1.299664 0.078809 0.0
1.310038 0.096790 0.0
1.309955 0.108099 0.0
1.300850 0.113141 0.0
1.284233 0.112583 0.0
1.261624 0.107311 0.0
1.234478 0.098399 0.0
1.204104 0.087109 0.0
1.171592 0.074913 0.0
1.137737 0.063458 0.0
1.103051 0.054434 0.0
1.067865 0.049172 0.0
1.032480 0.048135 0.0
0.997348 0.050617 0.0
0.963223 0.054853 0.0
0.931212 0.058544 0.0
0.902652 0.059563 0.0
0.878844 0.056537 0.0
0.860758 0.049108 0.0
0.848839 0.037845 0.0
0.842944 0.023955 0.0
0.842425 0.008931 0.0
0.846222 -0.005695 0.0
0.852967 -0.018404 0.0
0.861123 -0.027945 0.0
0.868919 -0.032744 0.0
1.000516 -0.016319 0.0
1.002689 -0.050250 0.0
1.007509 -0.087357 0.0
1.016114 -0.129688 0.0
1.030742 -0.179510 0.0
1.055551 -0.239160 0.0
1.097962 -0.310336 0.0
1.169449 -0.389202 0.0
1.298312 -0.494137 0.0
1.416725 -0.397427 0.0
1.456320 -0.291595 0.0
1.458911 -0.213600 0.0
1.453592 -0.155188 0.0
1.451935 -0.107217 0.0
1.457160 -0.060505 0.0
1.464737 -0.007270 0.0
1.466405 0.049681 0.0
1.457510 0.104449 0.0
1.437690 0.152473 0.0
1.408352 0.191121 0.0
1.371349 0.218973 0.0
1.328605 0.235227 0.0
1.282095 0.239488 0.0
1.233868 0.231750 0.0
1.185994 0.212501 0.0
1.140372 0.182879 0.0
1.098422 0.144815 0.0
1.060693 0.101185 0.0
1.026374 0.055912 0.0
0.992647 0.012297 0.0
0.956640 -0.032124 0.0
0.923630 -0.079820 0.0
0.905586 -0.125653 0.0
0.910988 -0.161303 0.0
0.942061 -0.177533 0.0
0.996267 -0.167189 0.0
1.068322 -0.127324 0.0
1.149792 -0.061571 0.0
1.224669 0.014934 0.0
1.279816 0.082238 0.0
1.315686 0.134928 0.0
1.336931 0.174804 0.0
1.346560 0.203513 0.0
1.346588 0.222441 0.0
1.338400 0.232753 0.0
1.323020 0.235498 0.0
1.301302 0.231705 0.0
1.274072 0.222405 0.0
1.242215 0.208614 0.0
1.206685 0.191293 0.0
1.168442 0.171376 0.0
1.128236 0.149956 0.0
1.086207 0.128645 0.0
1.041516 0.109744 0.0
0.992619 0.095510 0.0
0.938742 0.086393 0.0
0.881923 0.079551 0.0
0.827683 0.069560 0.0
0.783084 0.051405 0.0
0.753421 0.023297 0.0
0.740064 -0.012798 0.0
0.740990 -0.052305 0.0
0.752945 -0.090118 0.0
0.773110 -0.122768 0.0
0.799603 -0.148316 0.0
0.831359 -0.165662 0.0
0.867884 -0.174028 0.0
0.908991 -0.172741 0.0
0.954529 -0.161280 0.0
1.004120 -0.139508 0.0
1.056916 -0.107989 0.0
1.111394 -0.068301 0.0
1.164599 -0.023846 0.0
1.210928 0.019362 0.0
1.245948 0.056362 0.0
1.269066 0.085746 0.0
1.280979 0.107312 0.0
1.282730 0.121282 0.0
1.275552 0.128238 0.0
1.260753 0.129065 0.0
1.239621 0.124924 0.0
1.213340 0.117238 0.0
1.182934 0.107703 0.0
1.149243 0.098213 0.0
1.112985 0.090623 0.0
1.074870 0.086285 0.0
1.035752 0.085523 0.0
0.996766 0.087347 0.0
0.959350 0.089664 0.0
0.925134 0.089961 0.0
0.895677 0.086163 0.0
0.872172 0.077252 0.0
0.855220 0.063430 0.0
0.844784 0.045879 0.0
0.840271 0.026329 0.0
0.840689 0.006657 0.0
0.844789 -0.011318 0.0
0.851214 -0.025950 0.0
0.858623 -0.035964 0.0
0.865706 -0.039605 0.0
0.999972 -0.016808 0.0
0.999911 -0.051873 0.0
1.000036 -0.090679 0.0
1.001034 -0.135969 0.0
1.004536 -0.191359 0.0
1.014309 -0.261892 0.0
1.039010 -0.354715 0.0
1.097769 -0.475068 0.0
1.254444 -0.693808 0.0
1.361159 -0.422884 0.0
1.314496 -0.259068 0.0
1.246795 -0.181017 0.0
1.197381 -0.133040 0.0
1.169897 -0.100224 0.0
1.167544 -0.070370 0.0
1.187429 -0.024867 0.0
1.210892 0.042147 0.0
1.222433 0.109339 0.0
1.221089 0.168747 0.0
1.207981 0.217293 0.0
1.184231 0.253554 0.0
1.150988 0.276634 0.0
1.109605 0.285974 0.0
1.061631 0.281464 0.0
1.008505 0.263786 0.0
0.950742 0.234979 0.0
0.886780 0.198626 0.0
0.813601 0.158281 0.0
0.731853 0.114883 0.0
0.652260 0.066646 0.0
0.591749 0.010045 0.0
0.561726 -0.058955 0.0
0.563768 -0.130516 0.0
0.592501 -0.190575 0.0
0.641367 -0.228200 0.0
0.706631 -0.235991 0.0
0.786394 -0.210340 0.0
0.878679 -0.152310 0.0
0.978888 -0.069413 0.0
1.072138 0.018187 0.0
1.144271 0.090975 0.0
1.195502 0.146281 0.0
1.230305 0.187602 0.0
1.251367 0.217262 0.0
1.260566 0.236920 0.0
1.259391 0.247886 0.0
1.249130 0.251295 0.0
1.230975 0.248199 0.0
1.206054 0.239597 0.0
1.175411 0.226482 0.0
1.139857 0.209984 0.0
1.099678 0.191733 0.0
1.054360 0.174215 0.0
1.002880 0.160346 0.0
0.945079 0.151606 0.0
0.883569 0.145684 0.0
0.824360 0.136289 0.0
0.774906 0.116517 0.0
0.740739 0.083214 0.0
0.723407 0.038484 0.0
0.720956 -0.012176 0.0
0.729600 -0.062497 0.0
0.745624 -0.107906 0.0
0.766505 -0.146025 0.0
0.790793 -0.175838 0.0
0.817820 -0.196924 0.0
0.847501 -0.208972 0.0
0.880129 -0.211533 0.0
0.916141 -0.204038 0.0
0.955826 -0.186025 0.0
0.999070 -0.157512 0.0
1.045179 -0.119367 0.0
1.092784 -0.073590 0.0
1.139367 -0.023807 0.0
1.180207 0.023671 0.0
1.211476 0.064050 0.0
1.232415 0.096154 0.0
1.243313 0.119791 0.0
1.244891 0.135328 0.0
1.238092 0.143572 0.0
1.223933 0.145707 0.0
1.203411 0.143258 0.0
1.177447 0.138054 0.0
1.146902 0.132098 0.0
1.112648 0.127249 0.0
1.075702 0.124721 0.0
1.037340 0.124566 0.0
0.999149 0.125482 0.0
0.962931 0.125164 0.0
0.930467 0.121141 0.0
0.903225 0.111681 0.0
0.882119 0.096345 0.0
0.867420 0.075987 0.0
0.858819 0.052359 0.0
0.855575 0.027608 0.0
0.856657 0.003878 0.0
0.860867 -0.016848 0.0
0.866961 -0.032938 0.0
0.873767 -0.043193 0.0
0.880244 -0.045936 0.0
0.999345 -0.016125 0.0
0.996682 -0.049832 0.0
0.991191 -0.087354 0.0
0.982590 -0.131691 0.0
0.970684 -0.187234 0.0
0.956053 -0.261160 0.0
0.942382 -0.366478 0.0
0.945091 -0.524772 0.0
1.048559 -0.904248 0.0
1.044969 -0.207046 0.0
0.847857 -0.110599 0.0
0.699676 -0.101597 0.0
0.619407 -0.082777 0.0
0.576777 -0.080372 0.0
0.577822 -0.088915 0.0
0.624759 -0.073143 0.0
0.700181 -0.008462 0.0
0.770272 0.078316 0.0
0.817501 0.153885 0.0
0.845299 0.217464 0.0
0.854357 0.268075 0.0
0.845053 0.304661 0.0
0.817778 0.326605 0.0
0.772501 0.334084 0.0
0.708398 0.328396 0.0
0.624828 0.311703 0.0
0.525422 0.285271 0.0
0.423365 0.246872 0.0
0.339273 0.192132 0.0
0.290187 0.118076 0.0
0.281324 0.027988 0.0
0.303890 -0.069442 0.0
0.342876 -0.161057 0.0
0.389629 -0.235519 0.0
0.442980 -0.285472 0.0
0.504620 -0.305622 0.0
0.576753 -0.292606 0.0
0.660677 -0.246252 0.0
0.755884 -0.170886 0.0
0.858746 -0.076452 0.0
0.955645 0.016583 0.0
1.033028 0.092060 0.0
1.090453 0.149594 0.0
1.131503 0.193158 0.0
1.158266 0.225062 0.0
1.172311 0.246875 0.0
1.175022 0.259856 0.0
1.167687 0.265129 0.0
1.151487 0.263788 0.0
1.127395 0.257026 0.0
1.095975 0.246414 0.0
1.057179 0.234278 0.0
1.010549 0.223617 0.0
0.956291 0.216682 0.0
0.896949 0.212412 0.0
0.838267 0.205069 0.0
0.787736 0.186644 0.0
0.751382 0.151969 0.0
0.731367 0.101944 0.0
0.726155 0.042297 0.0
0.732313 -0.019696 0.0
0.746103 -0.077411 0.0
0.764458 -0.127371 0.0
0.785275 -0.168258 0.0
0.807246 -0.199864 0.0
0.829753 -0.222432 0.0
0.852802 -0.236194 0.0
0.876938 -0.241076 0.0
0.903036 -0.236606 0.0
0.931990 -0.222097 0.0
0.964373 -0.197066 0.0
1.000176 -0.161726 0.0
1.038709 -0.117368 0.0
1.078605 -0.066509 0.0
1.117423 -0.013285 0.0
1.151231 0.035931 0.0
1.177083 0.077481 0.0
1.194238 0.110411 0.0
1.202714 0.134655 0.0
1.202951 0.150808 0.0
1.195603 0.159979 0.0
1.181406 0.163705 0.0
1.161134 0.163842 0.0
1.135616 0.162373 0.0
1.105822 0.161022 0.0
1.072974 0.160744 0.0
1.038605 0.161273 0.0
1.004515 0.161055 0.0
0.972572 0.157752 0.0
0.944435 0.149153 0.0
0.921307 0.134040 0.0
0.903806 0.112594 0.0
0.892000 0.086243 0.0
0.885521 0.057182 0.0
0.883682 0.027867 0.0
0.885578 0.000640 0.0
0.890126 -0.022369 0.0
0.896181 -0.039566 0.0
0.902685 -0.049875 0.0
0.908718 -0.051765 0.0
0.998745 -0.014215 0.0
0.993583 -0.043917 0.0
0.982631 -0.076825 0.0
0.964435 -0.115424 0.0
0.936282 -0.163442 0.0
0.893181 -0.227220 0.0
0.825393 -0.318959 0.0
0.713979 -0.463587 0.0
0.322129 -0.785575 0.0
-0.473980 0.286332 0.0
-0.473980 0.000000 0.0
-0.037296 -0.026003 0.0
-0.060921 -0.065770 0.0
-0.010407 -0.105263 0.0
0.071120 -0.146596 0.0
0.157807 -0.149086 0.0
0.246014 -0.096149 0.0
0.335539 0.006386 0.0
0.409922 0.104203 0.0
0.461000 0.188270 0.0
0.489559 0.259652 0.0
0.494574 0.317373 0.0
0.474909 0.360833 0.0
0.430153 0.389887 0.0
0.362561 0.404288 0.0
0.280120 0.401821 0.0
0.199213 0.375467 0.0
0.141210 0.316736 0.0
0.118716 0.228854 0.0
0.130080 0.119075 0.0
0.165496 0.000436 0.0
0.211545 -0.110505 0.0
0.258763 -0.206198 0.0
0.304441 -0.282810 0.0
0.349587 -0.336678 0.0
0.397629 -0.364098 0.0
0.453014 -0.361649 0.0
0.519473 -0.327592 0.0
0.598510 -0.263790 0.0
0.688786 -0.176686 0.0
0.785786 -0.077081 0.0
0.877106 0.017022 0.0
0.951194 0.093119 0.0
1.007433 0.152346 0.0
1.048352 0.198192 0.0
1.075471 0.232580 0.0
1.090028 0.256883 0.0
1.093156 0.272310 0.0
1.085852 0.280112 0.0
1.068846 0.281801 0.0
1.042445 0.279460 0.0
1.006638 0.275835 0.0
0.961831 0.273496 0.0
0.910219 0.272674 0.0
0.856819 0.269161 0.0
0.808743 0.255078 0.0
0.772491 0.223418 0.0
0.751262 0.172777 0.0
0.744473 0.107941 0.0
0.749334 0.036650 0.0
0.762381 -0.033255 0.0
0.780358 -0.095619 0.0
0.800730 -0.147890 0.0
0.821651 -0.189478 0.0
0.841844 -0.220809 0.0
0.860605 -0.242755 0.0
0.877869 -0.256183 0.0
0.894218 -0.261570 0.0
0.910780 -0.258770 0.0
0.928954 -0.247060 0.0
0.949997 -0.225529 0.0
0.974633 -0.193703 0.0
1.002830 -0.152121 0.0
1.033803 -0.102625 0.0
1.066123 -0.048306 0.0
1.097192 0.006075 0.0
1.123820 0.054857 0.0
1.143997 0.095704 0.0
1.156986 0.127898 0.0
1.162654 0.151660 0.0
1.161224 0.167906 0.0
1.153125 0.178073 0.0
1.138937 0.183933 0.0
1.119414 0.187323 0.0
1.095557 0.189723 0.0
1.068685 0.191764 0.0
1.040428 0.192880 0.0
1.012582 0.191384 0.0
0.986870 0.185079 0.0
0.964672 0.172161 0.0
0.946867 0.151964 0.0
0.933832 0.125206 0.0
0.925536 0.093733 0.0
0.921657 0.060050 0.0
0.921652 0.026843 0.0
0.924757 -0.003336 0.0
0.929999 -0.028183 0.0
0.936328 -0.046136 0.0
0.942774 -0.056256 0.0
0.948471 -0.057114 0.0
0.998301 -0.011261 0.0
0.991303 -0.034712 0.0
0.976391 -0.060166 0.0
0.951397 -0.088894 0.0
0.912135 -0.122556 0.0
0.850533 -0.163402 0.0
0.749874 -0.214330 0.0
0.570475 -0.277403 0.0
0.227007 -0.339738 0.0
0.000000 0.286332 0.0
-0.000000 -0.000000 0.0
0.000000 0.000000 0.0
-0.040357 -0.039720 0.0
-0.084902 -0.137920 0.0
-0.079603 -0.200765 0.0
-0.057295 -0.203911 0.0
-0.028200 -0.158625 0.0
0.018796 -0.067661 0.0
0.078904 0.043759 0.0
0.129841 0.146700 0.0
0.163018 0.239487 0.0
0.175122 0.320419 0.0
0.164683 0.387892 0.0
0.133647 0.438621 0.0
0.089509 0.467284 0.0
0.045269 0.465506 0.0
0.018521 0.419439 0.0
0.023920 0.325369 0.0
0.059658 0.206978 0.0
0.114283 0.074963 0.0
0.175075 -0.051660 0.0
0.231535 -0.160918 0.0
0.280216 -0.251683 0.0
0.320436 -0.323223 0.0
0.353604 -0.374578 0.0
0.383528 -0.404166 0.0
0.416013 -0.409451 0.0
0.457374 -0.387611 0.0
0.512144 -0.337579 0.0
0.581218 -0.262248 0.0
0.661683 -0.168985 0.0
0.747668 -0.068379 0.0
0.827890 0.024210 0.0
0.893332 0.099574 0.0
0.943604 0.159772 0.0
0.980154 0.207332 0.0
1.003948 0.243779 0.0
1.015806 0.270428 0.0
1.016385 0.288718 0.0
1.006102 0.300484 0.0
0.985178 0.308102 0.0
0.954108 0.314069 0.0
0.914676 0.319500 0.0
0.870979 0.321980 0.0
0.829314 0.314919 0.0
0.796249 0.290462 0.0
0.775970 0.244565 0.0
0.769108 0.179720 0.0
0.773732 0.103164 0.0
0.787052 0.023247 0.0
0.805975 -0.051823 0.0
0.827602 -0.116655 0.0
0.849761 -0.169385 0.0
0.870791 -0.209934 0.0
0.889475 -0.239228 0.0
0.905071 -0.258694 0.0
0.917396 -0.269834 0.0
0.926923 -0.273795 0.0
0.934806 -0.270991 0.0
0.942730 -0.260937 0.0
0.952531 -0.242495 0.0
0.965690 -0.214532 0.0
0.982926 -0.176724 0.0
1.004045 -0.130114 0.0
1.028071 -0.077163 0.0
1.053408 -0.021475 0.0
1.077503 0.031684 0.0
1.097824 0.078379 0.0
1.112976 0.117082 0.0
1.122280 0.147503 0.0
1.125530 0.170244 0.0
1.122834 0.186530 0.0
1.114560 0.197938 0.0
1.101352 0.206050 0.0
1.084181 0.212024 0.0
1.064363 0.216152 0.0
1.043477 0.217635 0.0
1.023163 0.214787 0.0
1.004866 0.205685 0.0
0.989624 0.188995 0.0
0.978008 0.164550 0.0
0.970199 0.133465 0.0
0.966113 0.097857 0.0
0.965494 0.060425 0.0
0.967909 0.024057 0.0
0.972687 -0.008434 0.0
0.978945 -0.034586 0.0
0.985744 -0.052860 0.0
0.992224 -0.062459 0.0
0.997567 -0.061951 0.0
0.998101 -0.007662 0.0
0.990298 -0.023511 0.0
0.973779 -0.039936 0.0
0.946458 -0.056809 0.0
0.904596 -0.073517 0.0
0.841945 -0.088187 0.0
0.749028 -0.095969 0.0
0.614433 -0.081771 0.0
0.434125 -0.006369 0.0
0.166494 0.148759 0.0
0.000000 0.000000 0.0
-0.000000 -0.000000 0.0
0.000000 0.000000 0.0
-0.065619 -0.066866 0.0
-0.147859 -0.193630 0.0
-0.168451 -0.212761 0.0
-0.176358 -0.170963 0.0
-0.174059 -0.104619 0.0
-0.147631 -0.005819 0.0
-0.105996 0.103706 0.0
-0.068440 0.211748 0.0
-0.044176 0.311790 0.0
-0.035137 0.397921 0.0
-0.037323 0.461814 0.0
-0.042033 0.492938 0.0
-0.035527 0.477585 0.0
-0.003289 0.401870 0.0
0.053419 0.280830 0.0
0.125305 0.143892 0.0
0.203434 0.005295 0.0
0.275151 -0.114501 0.0
0.334834 -0.214219 0.0
0.382060 -0.294289 0.0
0.416467 -0.355244 0.0
0.438803 -0.398061 0.0
0.451730 -0.423534 0.0
0.460445 -0.431282 0.0
0.472419 -0.419114 0.0
0.495478 -0.383905 0.0
0.534731 -0.324249 0.0
0.590360 -0.243076 0.0
0.657963 -0.147876 0.0
0.730343 -0.048895 0.0
0.797184 0.040397 0.0
0.851717 0.114143 0.0
0.893686 0.174443 0.0
0.923597 0.222963 0.0
0.941852 0.261131 0.0
0.948735 0.290552 0.0
0.944463 0.313205 0.0
0.929489 0.331280 0.0
0.905193 0.346256 0.0
0.874749 0.357189 0.0
0.843370 0.359368 0.0
0.817152 0.345414 0.0
0.800840 0.309345 0.0
0.796201 0.250601 0.0
0.802306 0.174442 0.0
0.817009 0.089115 0.0
0.837873 0.003112 0.0
0.861995 -0.074733 0.0
0.886648 -0.140024 0.0
0.909935 -0.191460 0.0
0.930444 -0.229398 0.0
0.947165 -0.255170 0.0
0.959467 -0.270651 0.0
0.967150 -0.277884 0.0
0.970552 -0.278674 0.0
0.970684 -0.274128 0.0
0.969241 -0.264282 0.0
0.968376 -0.248087 0.0
0.970213 -0.223937 0.0
0.976268 -0.190611 0.0
0.987080 -0.148158 0.0
1.002193 -0.098256 0.0
1.020412 -0.043939 0.0