# vtk DataFile Version 3.0
Scalar Field
ASCII
DATASET RECTILINEAR_GRID
DIMENSIONS 100 26 1
X_COORDINATES 100 double
0.050000 0.150000 0.250000 0.350000 0.450000 0.550000 0.650000 0.750000 0.850000 0.950000 1.050000 1.150000 1.250000 1.350000 1.450000 1.550000 1.650000 1.750000 1.850000 1.950000 2.050000 2.150000 2.250000 2.350000 2.450000 2.550000 2.650000 2.750000 2.850000 2.950000 3.050000 3.150000 3.250000 3.350000 3.450000 3.550000 3.650000 3.750000 3.850000 3.950000 4.050000 4.150000 4.250000 4.350000 4.450000 4.550000 4.650000 4.750000 4.850000 4.950000 5.050000 5.150000 5.250000 5.350000 5.450000 5.550000 5.650000 5.750000 5.850000 5.950000 6.050000 6.150000 6.250000 6.350000 6.450000 6.550000 6.650000 6.750000 6.850000 6.950000 7.050000 7.150000 7.250000 7.350000 7.450000 7.550000 7.650000 7.750000 7.850000 7.950000 8.050000 8.150000 8.250000 8.350000 8.450000 8.550000 8.650000 8.750000 8.850000 8.950000 9.050000 9.150000 9.250000 9.350000 9.450000 9.550000 9.650000 9.750000 9.850000 9.950000 
Y_COORDINATES 26 double
0.050000 0.150000 0.250000 0.350000 0.450000 0.550000 0.650000 0.750000 0.850000 0.950000 1.050000 1.150000 1.250000 1.350000 1.450000 1.550000 1.650000 1.750000 1.850000 1.950000 2.050000 2.150000 2.250000 2.350000 2.450000 2.550000 
Z_COORDINATES 1 double
0.0
POINT_DATA 2600
SCALARS Skalarfeld double 1
LOOKUP_TABLE default
0.260651
0.245484
0.230557
0.212828
0.191166
0.165064
0.134415
0.099504
0.061081
0.020401
-0.020840
-0.060752
-0.097569
-0.129897
-0.156524
-0.176304
-0.189091
-0.195169
-0.195236
-0.190315
-0.181614
-0.170358
-0.157640
-0.144311
-0.130952
-0.117890
-0.105272
-0.093137
-0.081490
-0.070346
-0.059761
-0.049830
-0.040676
-0.032399
-0.024672
-0.017783
-0.011835
-0.006818
-0.002661
0.000729
0.003450
0.005589
0.007227
0.008431
0.009261
0.009769
0.010000
0.009995
0.009790
0.009416
0.008901
0.008269
0.007541
0.006734
0.005863
0.004941
0.003978
0.002983
0.001962
0.000922
-0.000134
-0.001201
-0.002277
-0.003359
-0.004445
-0.005535
-0.006626
-0.007719
-0.008812
-0.009905
-0.010998
-0.012090
-0.013181
-0.014272
-0.015362
-0.016451
-0.017540
-0.018628
-0.019716
-0.020804
-0.021893
-0.022982
-0.024072
-0.025165
-0.026260
-0.027358
-0.028462
-0.029572
-0.030690
-0.031819
-0.032963
-0.034125
-0.035312
-0.036532
-0.037796
-0.039121
-0.040530
-0.042062
-0.043773
-0.044711
0.251650
0.245295
0.233365
0.216836
0.195534
0.169212
0.137790
0.101551
0.061318
0.018540
-0.024772
-0.066448
-0.104543
-0.137467
-0.164196
-0.184264
-0.197067
-0.202871
-0.202386
-0.196679
-0.187025
-0.174725
-0.160940
-0.146584
-0.132278
-0.118382
-0.105064
-0.092373
-0.080316
-0.068904
-0.058176
-0.048195
-0.038986
-0.030492
-0.023053
-0.016512
-0.010884
-0.006131
-0.002178
0.001059
0.003666
0.005724
0.007303
0.008464
0.009264
0.009751
0.009967
0.009952
0.009741
0.009363
0.008847
0.008215
0.007488
0.006683
0.005814
0.004895
0.003936
0.002944
0.001926
0.000889
-0.000164
-0.001228
-0.002302
-0.003381
-0.004465
-0.005553
-0.006642
-0.007733
-0.008825
-0.009916
-0.011008
-0.012099
-0.013189
-0.014279
-0.015368
-0.016456
-0.017544
-0.018632
-0.019719
-0.020806
-0.021893
-0.022981
-0.024071
-0.025162
-0.026255
-0.027351
-0.028452
-0.029558
-0.030672
-0.031795
-0.032931
-0.034082
-0.035254
-0.036452
-0.037683
-0.038955
-0.040278
-0.041653
-0.043055
-0.044106
0.254434
0.250443
0.240420
0.224936
0.203910
0.177028
0.144066
0.105192
0.061298
0.014192
-0.033367
-0.078578
-0.119277
-0.154016
-0.181918
-0.202692
-0.215602
-0.220853
-0.219153
-0.211628
-0.199678
-0.184773
-0.168255
-0.151209
-0.134405
-0.118321
-0.103203
-0.089143
-0.076158
-0.064235
-0.053359
-0.043513
-0.034664
-0.026770
-0.019843
-0.013889
-0.008812
-0.004529
-0.000960
0.001974
0.004346
0.006223
0.007663
0.008719
0.009438
0.009862
0.010030
0.009979
0.009740
0.009343
0.008812
0.008170
0.007437
0.006628
0.005759
0.004840
0.003881
0.002891
0.001877
0.000842
-0.000207
-0.001268
-0.002338
-0.003415
-0.004496
-0.005581
-0.006668
-0.007756
-0.008845
-0.009935
-0.011024
-0.012113
-0.013202
-0.014290
-0.015378
-0.016465
-0.017551
-0.018637
-0.019723
-0.020808
-0.021894
-0.022980
-0.024067
-0.025155
-0.026245
-0.027338
-0.028434
-0.029534
-0.030640
-0.031753
-0.032875
-0.034007
-0.035154
-0.036316
-0.037497
-0.038695
-0.039904
-0.041105
-0.042241
-0.043305
0.264660
0.261446
0.252480
0.237742
0.216806
0.188986
0.153627
0.110544
0.060615
0.006182
-0.048300
-0.098847
-0.143120
-0.180102
-0.209387
-0.230740
-0.243619
-0.247866
-0.244165
-0.233748
-0.218241
-0.199393
-0.178828
-0.157876
-0.137509
-0.118351
-0.100744
-0.084823
-0.070598
-0.058007
-0.046950
-0.037308
-0.028949
-0.021741
-0.015569
-0.010328
-0.005894
-0.002168
0.000924
0.003464
0.005517
0.007137
0.008373
0.009265
0.009854
0.010173
0.010259
0.010141
0.009850
0.009411
0.008848
0.008182
0.007431
0.006609
0.005730
0.004805
0.003843
0.002851
0.001835
0.000801
-0.000247
-0.001306
-0.002374
-0.003449
-0.004528
-0.005610
-0.006695
-0.007781
-0.008868
-0.009955
-0.011043
-0.012130
-0.013217
-0.014303
-0.015389
-0.016474
-0.017559
-0.018643
-0.019727
-0.020811
-0.021895
-0.022978
-0.024063
-0.025147
-0.026234
-0.027321
-0.028411
-0.029504
-0.030600
-0.031700
-0.032806
-0.033918
-0.035036
-0.036160
-0.037289
-0.038417
-0.039532
-0.040611
-0.041611
-0.042647
0.280864
0.278057
0.269900
0.255916
0.235158
0.206253
0.167676
0.118375
0.058907
-0.007828
-0.073097
-0.130844
-0.179138
-0.218248
-0.248756
-0.270580
-0.283057
-0.285613
-0.278748
-0.263894
-0.243119
-0.218670
-0.192593
-0.166532
-0.141666
-0.118744
-0.098165
-0.080065
-0.064408
-0.051045
-0.039765
-0.030325
-0.022468
-0.015948
-0.010542
-0.006056
-0.002327
0.000782
0.003342
0.005428
0.007103
0.008412
0.009393
0.010077
0.010494
0.010674
0.010646
0.010436
0.010070
0.009571
0.008960
0.008256
0.007474
0.006630
0.005734
0.004796
0.003824
0.002826
0.001806
0.000770
-0.000279
-0.001339
-0.002407
-0.003480
-0.004557
-0.005638
-0.006721
-0.007805
-0.008891
-0.009976
-0.011062
-0.012147
-0.013232
-0.014317
-0.015401
-0.016485
-0.017568
-0.018650
-0.019732
-0.020814
-0.021895
-0.022976
-0.024057
-0.025138
-0.026220
-0.027302
-0.028386
-0.029470
-0.030556
-0.031643
-0.032732
-0.033821
-0.034912
-0.036000
-0.037083
-0.038152
-0.039196
-0.040195
-0.041123
-0.042132
0.302284
0.299891
0.292751
0.280006
0.260071
0.230524
0.188250
0.130234
0.055691
-0.032697
-0.114143
-0.179893
-0.230884
-0.270810
-0.302211
-0.324778
-0.336871
-0.337184
-0.325665
-0.304200
-0.275751
-0.243434
-0.209935
-0.177285
-0.146854
-0.119450
-0.095448
-0.074912
-0.057694
-0.043513
-0.032009
-0.022788
-0.015454
-0.009635
-0.005004
-0.001290
0.001718
0.004175
0.006164
0.007757
0.009014
0.009973
0.010662
0.011104
0.011320
0.011334
0.011167
0.010843
0.010383
0.009808
0.009135
0.008382
0.007561
0.006686
0.005766
0.004809
0.003824
0.002816
0.001789
0.000747
-0.000305
-0.001367
-0.002435
-0.003508
-0.004585
-0.005665
-0.006747
-0.007830
-0.008913
-0.009997
-0.011081
-0.012165
-0.013248
-0.014331
-0.015414
-0.016496
-0.017577
-0.018657
-0.019737
-0.020817
-0.021896
-0.022974
-0.024052
-0.025129
-0.026206
-0.027283
-0.028359
-0.029435
-0.030510
-0.031584
-0.032656
-0.033725
-0.034789
-0.035846
-0.036889
-0.037912
-0.038905
-0.039852
-0.040737
-0.041729
0.328148
0.326348
0.320805
0.310359
0.292751
0.264169
0.218829
0.149430
0.050416
-0.078884
-0.181930
-0.251367
-0.298943
-0.335856
-0.368030
-0.393846
-0.407360
-0.405705
-0.387829
-0.356855
-0.317534
-0.274445
-0.231179
-0.190199
-0.153001
-0.120344
-0.092473
-0.069278
-0.050424
-0.035432
-0.023753
-0.014813
-0.008055
-0.002976
0.000855
0.003781
0.006058
0.007856
0.009246
0.010323
0.011142
0.011732
0.012110
0.012290
0.012286
0.012113
0.011791
0.011337
0.010770
0.010106
0.009361
0.008549
0.007682
0.006769
0.005820
0.004841
0.003838
0.002817
0.001780
0.000732
-0.000326
-0.001390
-0.002460
-0.003535
-0.004612
-0.005691
-0.006772
-0.007854
-0.008936
-0.010019
-0.011101
-0.012183
-0.013265
-0.014347
-0.015427
-0.016507
-0.017587
-0.018665
-0.019743
-0.020820
-0.021897
-0.022972
-0.024047
-0.025120
-0.026192
-0.027263
-0.028333
-0.029400
-0.030465
-0.031526
-0.032583
-0.033633
-0.034675
-0.035704
-0.036716
-0.037704
-0.038659
-0.039571
-0.040429
-0.041411
0.357350
0.356417
0.353330
0.346810
0.334155
0.310150
0.265228
0.183434
0.042613
-0.169835
-0.290724
-0.344474
-0.373679
-0.399686
-0.432904
-0.470183
-0.492282
-0.491043
-0.465290
-0.421517
-0.367824
-0.310997
-0.255725
-0.204849
-0.159858
-0.121329
-0.089255
-0.063264
-0.042757
-0.027007
-0.015232
-0.006652
-0.000536
0.003760
0.006771
0.008912
0.010475
0.011615
0.012406
0.012975
0.013363
0.013588
0.013655
0.013568
0.013336
0.012970
0.012482
0.011889
0.011205
0.010445
0.009621
0.008744
0.007825
0.006871
0.005889
0.004885
0.003862
0.002826
0.001778
0.000721
-0.000342
-0.001411
-0.002484
-0.003560
-0.004638
-0.005717
-0.006797
-0.007878
-0.008960
-0.010041
-0.011122
-0.012202
-0.013283
-0.014362
-0.015441
-0.016520
-0.017597
-0.018674
-0.019750
-0.020825
-0.021899
-0.022971
-0.024043
-0.025112
-0.026180
-0.027246
-0.028309
-0.029368
-0.030424
-0.031474
-0.032516
-0.033550
-0.034573
-0.035580
-0.036567
-0.037528
-0.038457
-0.039345
-0.040186
-0.041161
0.388276
0.388495
0.388787
0.388117
0.384026
0.370916
0.335969
0.249725
0.037875
-0.362440
-0.450940
-0.440690
-0.431922
-0.436833
-0.468104
-0.526734
-0.577854
-0.582451
-0.548598
-0.490153
-0.420329
-0.348596
-0.280668
-0.219586
-0.166688
-0.122280
-0.086057
-0.057350
-0.035282
-0.018862
-0.007067
0.001098
0.006545
0.010064
0.012294
0.013715
0.014657
0.015137
0.015393
0.015513
0.015523
0.015421
0.015203
0.014866
0.014414
0.013855
0.013201
0.012467
0.011663
0.010803
0.009897
0.008954
0.007980
0.006983
0.005966
0.004935
0.003891
0.002839
0.001778
0.000713
-0.000357
-0.001431
-0.002507
-0.003584
-0.004663
-0.005743
-0.006823
-0.007903
-0.008983
-0.010063
-0.011143
-0.012222
-0.013301
-0.014379
-0.015456
-0.016533
-0.017609
-0.018684
-0.019758
-0.020830
-0.021902
-0.022972
-0.024040
-0.025106
-0.026170
-0.027231
-0.028288
-0.029341
-0.030388
-0.031428
-0.032459
-0.033479
-0.034486
-0.035475
-0.036443
-0.037385
-0.038294
-0.039167
-0.039996
-0.040967
0.418786
0.420328
0.424611
0.431277
0.439181
0.444858
0.437816
0.384227
0.135677
-0.714425
-0.632864
-0.495351
-0.456048
-0.442189
-0.468059
-0.540566
-0.626065
-0.651591
-0.612972
-0.543198
-0.460767
-0.377524
-0.299859
-0.230876
-0.171786
-0.122717
-0.083171
-0.052288
-0.028992
-0.012092
-0.000362
0.007380
0.012217
0.015074
0.016684
0.017572
0.018011
0.017980
0.017866
0.017689
0.017439
0.017098
0.016654
0.016105
0.015456
0.014719
0.013908
0.013036
0.012116
0.011158
0.010171
0.009161
0.008134
0.007093
0.006043
0.004984
0.003920
0.002851
0.001779
0.000704
-0.000373
-0.001451
-0.002530
-0.003609
-0.004689
-0.005769
-0.006849
-0.007928
-0.009008
-0.010086
-0.011165
-0.012243
-0.013320
-0.014396
-0.015472
-0.016547
-0.017621
-0.018694
-0.019767
-0.020837
-0.021907
-0.022974
-0.024040
-0.025103
-0.026163
-0.027220
-0.028272
-0.029319
-0.030359
-0.031391
-0.032413
-0.033422
-0.034416
-0.035392
-0.036346
-0.037273
-0.038170
-0.039031
-0.039853
-0.040823
0.446423
0.449223
0.457352
0.471338
0.492010
0.520277
0.556135
0.594312
0.668759
-0.022833
-0.554389
-0.475915
-0.465973
-0.460740
-0.481991
-0.545935
-0.627263
-0.669736
-0.634195
-0.560850
-0.474121
-0.387040
-0.305982
-0.234048
-0.172483
-0.121444
-0.080455
-0.048649
-0.024915
-0.007984
0.003479
0.010787
0.015146
0.017586
0.018908
0.019666
0.019616
0.019522
0.019398
0.019206
0.018907
0.018473
0.017902
0.017204
0.016400
0.015511
0.014560
0.013563
0.012536
0.011486
0.010423
0.009352
0.008274
0.007193
0.006111
0.005027
0.003944
0.002860
0.001776
0.000693
-0.000390
-0.001472
-0.002554
-0.003635
-0.004716
-0.005796
-0.006876
-0.007955
-0.009033
-0.010110
-0.011188
-0.012264
-0.013340
-0.014415
-0.015489
-0.016562
-0.017635
-0.018706
-0.019777
-0.020846
-0.021913
-0.022979
-0.024042
-0.025102
-0.026160
-0.027213
-0.028261
-0.029303
-0.030338
-0.031364
-0.032379
-0.033380
-0.034365
-0.035332
-0.036275
-0.037193
-0.038080
-0.038935
-0.039752
-0.040721
0.468859
0.472564
0.483460
0.502660
0.532292
0.576036
0.640238
0.735679
0.870227
0.895497
0.000000
-0.477162
-0.478410
-0.483530
-0.505135
-0.554094
-0.607633
-0.632657
-0.608674
-0.537601
-0.454349
-0.371423
-0.294026
-0.225095
-0.165913
-0.116728
-0.077183
-0.046541
-0.023787
-0.007704
0.003048
0.009812
0.013838
0.016216
0.017760
0.018319
0.018771
0.019252
0.019635
0.019820
0.019750
0.019418
0.018849
0.018088
0.017184
0.016181
0.015116
0.014014
0.012894
0.011765
0.010636
0.009510
0.008389
0.007273
0.006163
0.005058
0.003957
0.002860
0.001767
0.000676
-0.000412
-0.001498
-0.002582
-0.003664
-0.004745
-0.005825
-0.006904
-0.007982
-0.009059
-0.010136
-0.011211
-0.012286
-0.013360
-0.014434
-0.015506
-0.016578
-0.017649
-0.018719
-0.019788
-0.020856
-0.021921
-0.022985
-0.024047
-0.025105
-0.026160
-0.027211
-0.028256
-0.029295
-0.030326
-0.031348
-0.032358
-0.033354
-0.034333
-0.035294
-0.036231
-0.037142
-0.038025
-0.038875
-0.039690
-0.040659
0.484411
0.488484
0.500459
0.521480
0.553599
0.599904
0.664112
0.747433
0.841099
0.920767
0.836661
0.000000
-0.493514
-0.508617
-0.519931
-0.549944
-0.576229
-0.576157
-0.539347
-0.479733
-0.404103
-0.330843
-0.262540
-0.201949
-0.150112
-0.107121
-0.072609
-0.045917
-0.026150
-0.012219
-0.002864
0.003172
0.007063
0.009904
0.011746
0.013541
0.015419
0.017154
0.018549
0.019478
0.019904
0.019860
0.019424
0.018690
0.017751
0.016681
0.015537
0.014357
0.013164
0.011974
0.010793
0.009624
0.008468
0.007324
0.006192
0.005069
0.003955
0.002849
0.001748
0.000652
-0.000439
-0.001527
-0.002613
-0.003696
-0.004777
-0.005856
-0.006934
-0.008011
-0.009087
-0.010162
-0.011236
-0.012309
-0.013382
-0.014454
-0.015525
-0.016595
-0.017665
-0.018734
-0.019801
-0.020867
-0.021932
-0.022994
-0.024054
-0.025112
-0.026165
-0.027214
-0.028258
-0.029295
-0.030324
-0.031343
-0.032351
-0.033344
-0.034321
-0.035278
-0.036213
-0.037121
-0.038001
-0.038850
-0.039664
-0.040634
0.492388
0.496281
0.507663
0.527315
0.556447
0.596470
0.648353
0.711302
0.773854
0.791940
0.752556
0.631321
0.000000
-0.522075
-0.535532
-0.548875
-0.553410
-0.525919
-0.470218
-0.401518
-0.332312
-0.269697
-0.213471
-0.165111
-0.124937
-0.092391
-0.066721
-0.047077
-0.032523
-0.022121
-0.014699
-0.009270
-0.005055
-0.001212
0.002754
0.006762
0.010577
0.013916
0.016561
0.018409
0.019463
0.019814
0.019600
0.018968
0.018055
0.016968
0.015786
0.014561
0.013324
0.012094
0.010878
0.009680
0.008501
0.007339
0.006192
0.005058
0.003936
0.002823
0.001718
0.000619
-0.000474
-0.001563
-0.002649
-0.003731
-0.004811
-0.005889
-0.006966
-0.008041
-0.009116
-0.010189
-0.011261
-0.012333
-0.013404
-0.014475
-0.015544
-0.016614
-0.017682
-0.018749
-0.019816
-0.020881
-0.021944
-0.023006
-0.024065
-0.025122
-0.026174
-0.027223
-0.028266
-0.029303
-0.030332
-0.031351
-0.032358
-0.033352
-0.034328
-0.035286
-0.036220
-0.037129
-0.038010
-0.038858
-0.039674
-0.040644
0.493109
0.496422
0.506038
0.522342
0.545843
0.576738
0.613890
0.652254
0.678952
0.667325
0.600716
0.510086
0.333310
0.000000
-0.551337
-0.567142
-0.563315
-0.500392
-0.413383
-0.326208
-0.251314
-0.194839
-0.152400
-0.118202
-0.092840
-0.074265
-0.060818
-0.050918
-0.043176
-0.036977
-0.031062
-0.025499
-0.019131
-0.012665
-0.006166
0.000081
0.005751
0.010558
0.014324
0.016992
0.018624
0.019363
0.019393
0.018904
0.018065
0.017010
0.015835
0.014603
0.013354
0.012110
0.010881
0.009671
0.008482
0.007312
0.006159
0.005021
0.003896
0.002781
0.001675
0.000576
-0.000517
-0.001605
-0.002689
-0.003771
-0.004849
-0.005925
-0.007000
-0.008074
-0.009146
-0.010217
-0.011288
-0.012358
-0.013427
-0.014496
-0.015565
-0.016632
-0.017699
-0.018766
-0.019831
-0.020895
-0.021958
-0.023020
-0.024079
-0.025135
-0.026188
-0.027237
-0.028281
-0.029319
-0.030349
-0.031370
-0.032379
-0.033375
-0.034355
-0.035315
-0.036253
-0.037166
-0.038049
-0.038901
-0.039718
-0.040691
0.487648
0.490173
0.497415
0.509365
0.525792
0.545767
0.566735
0.582902
0.583149
0.549591
0.464111
0.314760
0.156534
-0.297790
-0.663610
-0.633026
-0.579779
-0.483786
-0.370566
-0.266237
-0.183675
-0.124770
-0.088188
-0.070213
-0.060707
-0.057793
-0.058309
-0.059167
-0.057569
-0.054758
-0.047796
-0.039178
-0.030291
-0.021412
-0.012847
-0.004929
0.002034
0.007820
0.012315
0.015526
0.017560
0.018594
0.018839
0.018505
0.017776
0.016795
0.015670
0.014472
0.013245
0.012014
0.010795
0.009592
0.008408
0.007241
0.006092
0.004956
0.003834
0.002721
0.001618
0.000522
-0.000569
-0.001654
-0.002736
-0.003814
-0.004890
-0.005964
-0.007037
-0.008108
-0.009178
-0.010247
-0.011316
-0.012384
-0.013451
-0.014519
-0.015586
-0.016652
-0.017718
-0.018783
-0.019848
-0.020912
-0.021974
-0.023035
-0.024095
-0.025152
-0.026206
-0.027256
-0.028302
-0.029342
-0.030376
-0.031400
-0.032414
-0.033415
-0.034401
-0.035368
-0.036312
-0.037231
-0.038121
-0.038978
-0.039799
-0.040774
0.477454
0.479083
0.483683
0.490951
0.500173
0.509815
0.516851
0.515787
0.497569
0.448709
0.351182
0.178852
-0.123668
-0.752114
-0.694195
-0.602190
-0.530137
-0.435213
-0.327849
-0.227226
-0.146288
-0.089178
-0.053992
-0.041461
-0.042474
-0.051997
-0.063623
-0.072544
-0.072618
-0.065457
-0.056905
-0.046812
-0.036343
-0.026086
-0.016449
-0.007757
-0.000256
0.005904
0.010677
0.014114
0.016350
0.017570
0.017987
0.017806
0.017208
0.016337
0.015300
0.014171
0.012998
0.011809
0.010621
0.009442
0.008277
0.007126
0.005989
0.004864
0.003749
0.002644
0.001547
0.000456
-0.000629
-0.001710
-0.002788
-0.003862
-0.004935
-0.006006
-0.007075
-0.008143
-0.009211
-0.010278
-0.011344
-0.012410
-0.013476
-0.014542
-0.015607
-0.016672
-0.017737
-0.018802
-0.019866
-0.020929
-0.021992
-0.023053
-0.024113
-0.025172
-0.026227
-0.027280
-0.028329
-0.029373
-0.030411
-0.031441
-0.032462
-0.033471
-0.034466
-0.035442
-0.036397
-0.037327
-0.038226
-0.039091
-0.039918
-0.040895
0.464178
0.464937
0.467005
0.469923
0.472756
0.473796
0.470121
0.457047
0.427563
0.371851
0.276675
0.123808
-0.111489
-0.418682
-0.494319
-0.478185
-0.429092
-0.361674
-0.282688
-0.205089
-0.139134
-0.089990
-0.058432
-0.043353
-0.046663
-0.059786
-0.072802
-0.076333
-0.074409
-0.067475
-0.058304
-0.047957
-0.037315
-0.026983
-0.017379
-0.008801
-0.001445
0.004587
0.009282
0.012709
0.014999
0.016327
0.016884
0.016855
0.016406
0.015671
0.014752
0.013721
0.012627
0.011501
0.010364
0.009227
0.008094
0.006969
0.005852
0.004744
0.003644
0.002550
0.001463
0.000380
-0.000698
-0.001773
-0.002845
-0.003914
-0.004983
-0.006049
-0.007115
-0.008180
-0.009245
-0.010309
-0.011373
-0.012437
-0.013501
-0.014565
-0.015629
-0.016693
-0.017757
-0.018821
-0.019884
-0.020948
-0.022010
-0.023073
-0.024134
-0.025194
-0.026252
-0.027308
-0.028361
-0.029410
-0.030454
-0.031492
-0.032522
-0.033541
-0.034548
-0.035538
-0.036508
-0.037452
-0.038365
-0.039242
-0.040077
-0.041058
0.449434
0.449426
0.449290
0.448531
0.446197
0.440687
0.429495
0.408946
0.373996
0.318225
0.234133
0.114338
-0.043055
-0.217081
-0.309608
-0.335898
-0.321674
-0.284476
-0.235244
-0.183151
-0.135937
-0.098437
-0.072578
-0.059346
-0.059178
-0.065249
-0.070221
-0.071383
-0.068578
-0.062388
-0.054127
-0.044774
-0.035092
-0.025644
-0.016833
-0.008937
-0.002134
0.003488
0.007919
0.011217
0.013493
0.014892
0.015576
0.015703
0.015416
0.014836
0.014055
0.013143
0.012150
0.011107
0.010037
0.008953
0.007864
0.006774
0.005685
0.004600
0.003519
0.002441
0.001367
0.000295
-0.000774
-0.001841
-0.002906
-0.003970
-0.005033
-0.006095
-0.007157
-0.008218
-0.009280
-0.010341
-0.011402
-0.012464
-0.013526
-0.014588
-0.015651
-0.016713
-0.017776
-0.018840
-0.019903
-0.020966
-0.022030
-0.023093
-0.024155
-0.025217
-0.026279
-0.027338
-0.028396
-0.029451
-0.030503
-0.031551
-0.032592
-0.033625
-0.034647
-0.035655
-0.036644
-0.037608
-0.038541
-0.039435
-0.040282
-0.041268
0.434644
0.434000
0.432064
0.428391
0.422146
0.411985
0.395935
0.371312
0.334750
0.282467
0.210950
0.118505
0.008805
-0.103540
-0.182075
-0.221528
-0.229694
-0.216429
-0.190316
-0.158788
-0.127714
-0.101228
-0.081648
-0.069925
-0.065775
-0.065744
-0.066163
-0.064948
-0.061441
-0.055778
-0.048572
-0.040472
-0.032054
-0.023779
-0.015995
-0.008955
-0.002821
0.002317
0.006439
0.009583
0.011830
0.013294
0.014105
0.014394
0.014280
0.013868
0.013242
0.012466
0.011588
0.010642
0.009651
0.008632
0.007595
0.006548
0.005494
0.004437
0.003378
0.002319
0.001260
0.000202
-0.000856
-0.001914
-0.002971
-0.004028
-0.005085
-0.006142
-0.007200
-0.008257
-0.009315
-0.010373
-0.011432
-0.012491
-0.013551
-0.014611
-0.015672
-0.016734
-0.017796
-0.018859
-0.019922
-0.020985
-0.022049
-0.023113
-0.024178
-0.025242
-0.026307
-0.027371
-0.028434
-0.029496
-0.030557
-0.031615
-0.032670
-0.033719
-0.034760
-0.035790
-0.036804
-0.037796
-0.038755
-0.039674
-0.040540
-0.041533
0.420992
0.419832
0.416465
0.410563
0.401481
0.388186
0.369231
0.342771
0.306708
0.259019
0.198407
0.125400
0.044086
-0.036194
-0.099824
-0.140498
-0.159423
-0.161178
-0.151144
-0.134492
-0.115723
-0.098164
-0.083937
-0.074022
-0.068249
-0.065093
-0.062698
-0.059739
-0.055595
-0.050186
-0.043768
-0.036722
-0.029436
-0.022251
-0.015445
-0.009224
-0.003733
0.000944
0.004776
0.007781
0.010012
0.011553
0.012502
0.012963
0.013034
0.012803
0.012343
0.011715
0.010964
0.010125
0.009223
0.008276
0.007299
0.006299
0.005284
0.004259
0.003226
0.002188
0.001147
0.000103
-0.000943
-0.001990
-0.003039
-0.004089
-0.005139
-0.006191
-0.007243
-0.008296
-0.009350
-0.010405
-0.011461
-0.012518
-0.013576
-0.014634
-0.015694
-0.016754
-0.017815
-0.018877
-0.019940
-0.021004
-0.022068
-0.023134
-0.024200
-0.025267
-0.026335
-0.027404
-0.028473
-0.029543
-0.030613
-0.031684
-0.032753
-0.033821
-0.034885
-0.035942
-0.036988
-0.038015
-0.039012
-0.039966
-0.040859
-0.041864
0.409443
0.407834
0.403290
0.395669
0.384551
0.369206
0.348630
0.321622
0.286955
0.243677
0.191586
0.131891
0.067983
0.005819
-0.046775
-0.085155
-0.108557
-0.118821
-0.119040
-0.112573
-0.102658
-0.091878
-0.082028
-0.074072
-0.068161
-0.063710
-0.059846
-0.055830
-0.051242
-0.045965
-0.040101
-0.033866
-0.027506
-0.021256
-0.015313
-0.009833
-0.004929
-0.000671
0.002905
0.005799
0.008040
0.009680
0.010787
0.011437
0.011708
0.011670
0.011389
0.010918
0.010302
0.009577
0.008769
0.007900
0.006985
0.006037
0.005064
0.004072
0.003067
0.002052
0.001029
0.000001
-0.001032
-0.002069
-0.003108
-0.004150
-0.005194
-0.006239
-0.007286
-0.008335
-0.009385
-0.010437
-0.011490
-0.012544
-0.013599
-0.014656
-0.015714
-0.016773
-0.017833
-0.018895
-0.019958
-0.021022
-0.022087
-0.023154
-0.024222
-0.025292
-0.026363
-0.027436
-0.028512
-0.029589
-0.030670
-0.031753
-0.032839
-0.033927
-0.035017
-0.036106
-0.037190
-0.038263
-0.039312
-0.040318
-0.041255
-0.042279
0.400833
0.398728
0.393067
0.384010
0.371371
0.354671
0.333229
0.306295
0.273203
0.233609
0.187810
0.137117
0.084163
0.032887
-0.012172
-0.047781
-0.072743
-0.087623
-0.094094
-0.094333
-0.090544
-0.084689
-0.078242
-0.072122
-0.066698
-0.061883
-0.057356
-0.052781
-0.047942
-0.042774
-0.037333
-0.031748
-0.026168
-0.020738
-0.015578
-0.010782
-0.006419
-0.002542
0.000817
0.003639
0.005927
0.007700
0.008994
0.009857
0.010344
0.010512
0.010417
0.010110
0.009633
0.009023
0.008311
0.007519
0.006668
0.005772
0.004840
0.003883
0.002906
0.001914
0.000910
-0.000102
-0.001122
-0.002147
-0.003177
-0.004211
-0.005247
-0.006287
-0.007329
-0.008373
-0.009419
-0.010468
-0.011517
-0.012569
-0.013622
-0.014677
-0.015733
-0.016791
-0.017851
-0.018911
-0.019974
-0.021038
-0.022104
-0.023172
-0.024242
-0.025314
-0.026389
-0.027467
-0.028548
-0.029633
-0.030723
-0.031819
-0.032922
-0.034031
-0.035149
-0.036274
-0.037405
-0.038536
-0.039656
-0.040741
-0.041750
-0.042801
0.396097
0.393121
0.386086
0.375635
0.361754
0.344097
0.322176
0.295520
0.263798
0.226997
0.185621
0.140896
0.094880
0.050338
0.010255
-0.023030
-0.048323
-0.065627
-0.075824
-0.080308
-0.080583
-0.078132
-0.074161
-0.069523
-0.064710
-0.059907
-0.055116
-0.050270
-0.045323
-0.040284
-0.035213
-0.030193
-0.025310
-0.020628
-0.016190
-0.012025
-0.008154
-0.004604
-0.001409
0.001394
0.003776
0.005720
0.007228
0.008320
0.009032
0.009408
0.009497
0.009347
0.009002
0.008502
0.007879
0.007161
0.006369
0.005520
0.004628
0.003702
0.002752
0.001781
0.000796
-0.000202
-0.001208
-0.002223
-0.003243
-0.004269
-0.005299
-0.006333
-0.007369
-0.008409
-0.009452
-0.010496
-0.011543
-0.012592
-0.013643
-0.014696
-0.015751
-0.016808
-0.017866
-0.018926
-0.019988
-0.021053
-0.022119
-0.023188
-0.024259
-0.025334
-0.026412
-0.027493
-0.028580
-0.029672
-0.030771
-0.031879
-0.032997
-0.034128
-0.035273
-0.036436
-0.037618
-0.038819
-0.040034
-0.041241
-0.042385
-0.043464
0.396877
0.391468
0.382318
0.370348
0.355377
0.337009
0.314776
0.288365
0.257633
0.222731
0.184234
0.143258
0.101478
0.061001
0.024024
-0.007628
-0.032802
-0.051319
-0.063704
-0.070713
-0.073491
-0.073196
-0.070843
-0.067227
-0.062902
-0.058208
-0.053336
-0.048386
-0.043432
-0.038542
-0.033788
-0.029230
-0.024905
-0.020820
-0.016955
-0.013283
-0.009785
-0.006469
-0.003370
-0.000543
0.001952
0.004067
0.005774
0.007071
0.007978
0.008528
0.008768
0.008745
0.008505
0.008091
0.007537
0.006875
0.006129
0.005317
0.004456
0.003555
0.002625
0.001672
0.000701
-0.000284
-0.001280
-0.002286
-0.003299
-0.004318
-0.005342
-0.006371
-0.007403
-0.008439
-0.009478
-0.010520
-0.011564
-0.012611
-0.013661
-0.014712
-0.015765
-0.016821
-0.017878
-0.018938
-0.020000
-0.021064
-0.022131
-0.023200
-0.024273
-0.025349
-0.026429
-0.027515
-0.028605
-0.029703
-0.030810
-0.031928
-0.033059
-0.034207
-0.035378
-0.036576
-0.037808
-0.039084
-0.040411
-0.041792
-0.043202
-0.044265
0.407642
0.393404
0.381168
0.367859
0.352132
0.333245
0.310813
0.284540
0.254352
0.220459
0.183445
0.144344
0.104633
0.066111
0.030631
-0.000254
-0.025599
-0.044876
-0.058162
-0.066248
-0.070122
-0.070808
-0.069233
-0.066162
-0.062163
-0.057630
-0.052816
-0.047885
-0.042954
-0.038117
-0.033452
-0.029018
-0.024842
-0.020920
-0.017221
-0.013703
-0.010337
-0.007122
-0.004088
-0.001287
0.001216
0.003368
0.005133
0.006499
0.007479
0.008101
0.008408
0.008445
0.008256
0.007885
0.007368
0.006735
0.006013
0.005220
0.004374
0.003487
0.002567
0.001623
0.000659
-0.000320
-0.001312
-0.002313
-0.003323
-0.004339
-0.005360
-0.006387
-0.007417
-0.008452
-0.009489
-0.010530
-0.011574
-0.012619
-0.013668
-0.014718
-0.015771
-0.016826
-0.017884
-0.018943
-0.020005
-0.021069
-0.022136
-0.023206
-0.024279
-0.025357
-0.026440
-0.027527
-0.028620
-0.029721
-0.030832
-0.031955
-0.033094
-0.034253
-0.035439
-0.036658
-0.037924
-0.039252
-0.040665
-0.042203
-0.043921
-0.044868
