# vtk DataFile Version 3.0
Scalar Field
ASCII
DATASET RECTILINEAR_GRID
DIMENSIONS 100 26 1
X_COORDINATES 100 double
0.050000 0.150000 0.250000 0.350000 0.450000 0.550000 0.650000 0.750000 0.850000 0.950000 1.050000 1.150000 1.250000 1.350000 1.450000 1.550000 1.650000 1.750000 1.850000 1.950000 2.050000 2.150000 2.250000 2.350000 2.450000 2.550000 2.650000 2.750000 2.850000 2.950000 3.050000 3.150000 3.250000 3.350000 3.450000 3.550000 3.650000 3.750000 3.850000 3.950000 4.050000 4.150000 4.250000 4.350000 4.450000 4.550000 4.650000 4.750000 4.850000 4.950000 5.050000 5.150000 5.250000 5.350000 5.450000 5.550000 5.650000 5.750000 5.850000 5.950000 6.050000 6.150000 6.250000 6.350000 6.450000 6.550000 6.650000 6.750000 6.850000 6.950000 7.050000 7.150000 7.250000 7.350000 7.450000 7.550000 7.650000 7.750000 7.850000 7.950000 8.050000 8.150000 8.250000 8.350000 8.450000 8.550000 8.650000 8.750000 8.850000 8.950000 9.050000 9.150000 9.250000 9.350000 9.450000 9.550000 9.650000 9.750000 9.850000 9.950000 
Y_COORDINATES 26 double
0.050000 0.150000 0.250000 0.350000 0.450000 0.550000 0.650000 0.750000 0.850000 0.950000 1.050000 1.150000 1.250000 1.350000 1.450000 1.550000 1.650000 1.750000 1.850000 1.950000 2.050000 2.150000 2.250000 2.350000 2.450000 2.550000 
Z_COORDINATES 1 double
0.0
POINT_DATA 2600
SCALARS Skalarfeld double 1
LOOKUP_TABLE default
0.302190
0.287154
0.272633
0.255577
0.234864
0.210001
0.180884
0.147769
0.111323
0.072632
0.033119
-0.005695
-0.042446
-0.076099
-0.105997
-0.131830
-0.153579
-0.170732
-0.183343
-0.191448
-0.195135
-0.194608
-0.190243
-0.182602
-0.172407
-0.160468
-0.147587
-0.134456
-0.121579
-0.109217
-0.097386
-0.085884
-0.074379
-0.062506
-0.049965
-0.036614
-0.022017
-0.005693
0.010493
0.025210
0.037581
0.047059
0.053407
0.056547
0.057006
0.055265
0.051115
0.044410
0.035037
0.023025
0.008802
-0.006431
-0.020501
-0.030897
-0.036266
-0.037441
-0.035326
-0.031755
-0.027004
-0.021315
-0.015335
-0.009571
-0.004394
-0.000032
0.003398
0.005867
0.007319
0.007980
0.007781
0.006800
0.005194
0.003153
0.000912
-0.001271
-0.003169
-0.004679
-0.005922
-0.007258
-0.009202
-0.012240
-0.016650
-0.022379
-0.029065
-0.036164
-0.043147
-0.049674
-0.055696
-0.061085
-0.066101
-0.070886
-0.075426
-0.079674
-0.083689
-0.087591
-0.091522
-0.095617
-0.099982
-0.104661
-0.109594
-0.114869
0.292923
0.286698
0.275168
0.259331
0.239026
0.214019
0.184238
0.149948
0.111895
0.071369
0.030104
-0.010110
-0.047791
-0.081929
-0.111967
-0.137665
-0.158852
-0.175868
-0.188564
-0.196803
-0.200604
-0.200104
-0.195626
-0.187710
-0.177086
-0.164593
-0.151074
-0.137264
-0.123704
-0.110684
-0.098237
-0.086178
-0.074177
-0.061867
-0.048876
-0.034682
-0.019152
-0.003267
0.012129
0.026107
0.037911
0.047013
0.053208
0.056785
0.057504
0.055542
0.051120
0.044130
0.034445
0.022039
0.007311
-0.008415
-0.022678
-0.032741
-0.037348
-0.037440
-0.035705
-0.032572
-0.027847
-0.021935
-0.015822
-0.009940
-0.004660
-0.000204
0.003309
0.005869
0.007605
0.008342
0.008010
0.006915
0.005227
0.003139
0.000899
-0.001219
-0.002973
-0.004263
-0.005233
-0.006295
-0.008033
-0.011002
-0.015524
-0.021535
-0.028589
-0.036032
-0.043233
-0.049794
-0.055652
-0.061053
-0.066094
-0.070948
-0.075555
-0.079804
-0.083814
-0.087723
-0.091677
-0.095818
-0.100247
-0.104974
-0.109880
-0.115078
0.295174
0.291317
0.281716
0.266968
0.247016
0.221580
0.190459
0.153823
0.112509
0.068195
0.023347
-0.019632
-0.059036
-0.093962
-0.124135
-0.149655
-0.170752
-0.187693
-0.200676
-0.209403
-0.213668
-0.213421
-0.208832
-0.200358
-0.188721
-0.174811
-0.159546
-0.143753
-0.128061
-0.112856
-0.098267
-0.084204
-0.070427
-0.056627
-0.042478
-0.027675
-0.012381
0.002470
0.016469
0.028977
0.039361
0.047125
0.052044
0.054237
0.054058
0.050882
0.045444
0.037942
0.028317
0.016619
0.003327
-0.010315
-0.022354
-0.030956
-0.035509
-0.036706
-0.035492
-0.031919
-0.026799
-0.021289
-0.015612
-0.009926
-0.004804
-0.000465
0.002923
0.005303
0.006697
0.007136
0.006814
0.005761
0.004240
0.002535
0.000873
-0.000568
-0.001685
-0.002510
-0.003261
-0.004338
-0.006243
-0.009428
-0.014181
-0.020393
-0.027586
-0.035106
-0.042327
-0.048892
-0.054740
-0.060248
-0.065634
-0.070776
-0.075598
-0.079856
-0.083941
-0.087962
-0.092079
-0.096454
-0.101185
-0.106222
-0.111223
-0.115398
0.304590
0.301519
0.293011
0.279077
0.259334
0.233152
0.199933
0.159528
0.112804
0.062040
0.011322
-0.035806
-0.077417
-0.112984
-0.142827
-0.167649
-0.188185
-0.204976
-0.218189
-0.227669
-0.232690
-0.232877
-0.228133
-0.218790
-0.205585
-0.189505
-0.171604
-0.152845
-0.133994
-0.115574
-0.097862
-0.080923
-0.064678
-0.048969
-0.033624
-0.018527
-0.003725
0.010288
0.023049
0.034036
0.042638
0.048357
0.050995
0.050708
0.047918
0.043136
0.036094
0.027826
0.018443
0.008080
-0.002853
-0.013482
-0.022593
-0.029139
-0.032734
-0.033615
-0.032220
-0.028942
-0.024391
-0.019067
-0.013434
-0.008226
-0.003641
0.000277
0.003229
0.005127
0.005972
0.005864
0.005041
0.003778
0.002401
0.001160
0.000193
-0.000466
-0.000876
-0.001189
-0.001653
-0.002619
-0.004513
-0.007755
-0.012533
-0.018650
-0.025632
-0.032985
-0.040174
-0.046923
-0.053210
-0.059170
-0.064802
-0.069926
-0.074490
-0.078995
-0.083480
-0.087837
-0.092340
-0.097225
-0.102643
-0.108578
-0.114667
-0.119819
0.319684
0.317033
0.309376
0.296281
0.276871
0.249869
0.213859
0.167898
0.112594
0.050986
-0.008901
-0.061546
-0.105238
-0.140519
-0.168853
-0.191907
-0.211154
-0.227555
-0.241289
-0.251910
-0.258190
-0.259100
-0.254088
-0.243359
-0.227777
-0.208572
-0.187055
-0.164409
-0.141583
-0.119256
-0.097859
-0.077614
-0.058601
-0.040804
-0.024165
-0.008610
0.005913
0.019400
0.031283
0.040960
0.047706
0.050978
0.050664
0.047075
0.040850
0.032857
0.024109
0.014832
0.005704
-0.003167
-0.011578
-0.019087
-0.025093
-0.029082
-0.030857
-0.030538
-0.028421
-0.024877
-0.020356
-0.015313
-0.010192
-0.005395
-0.001117
0.002240
0.004593
0.005845
0.005973
0.005113
0.003587
0.001818
0.000216
-0.000941
-0.001576
-0.001722
-0.001550
-0.001328
-0.001386
-0.002093
-0.003818
-0.006847
-0.011298
-0.017136
-0.023967
-0.031285
-0.038448
-0.045242
-0.051585
-0.057502
-0.063005
-0.068093
-0.072848
-0.077431
-0.081818
-0.086444
-0.091570
-0.097294
-0.103860
-0.111426
-0.119871
-0.130345
0.339668
0.337441
0.330843
0.319077
0.300668
0.273359
0.234249
0.180566
0.111702
0.031002
-0.042707
-0.101321
-0.145316
-0.177856
-0.202313
-0.221708
-0.238512
-0.254334
-0.269447
-0.282400
-0.291167
-0.293584
-0.288328
-0.275538
-0.256465
-0.232863
-0.206502
-0.178901
-0.151238
-0.124351
-0.098797
-0.074916
-0.052897
-0.032824
-0.014709
0.001501
0.015937
0.028907
0.040247
0.048929
0.054019
0.054895
0.051642
0.044773
0.035051
0.023477
0.011289
0.000059
-0.009094
-0.016647
-0.022711
-0.027282
-0.030251
-0.031505
-0.031045
-0.029018
-0.025682
-0.021367
-0.016448
-0.011306
-0.006303
-0.001754
0.002087
0.004954
0.006709
0.007203
0.006441
0.004614
0.002095
-0.000603
-0.002913
-0.004374
-0.005102
-0.005062
-0.004475
-0.003704
-0.003175
-0.003326
-0.004553
-0.007154
-0.011259
-0.016781
-0.023435
-0.030591
-0.037742
-0.044498
-0.050669
-0.056260
-0.061339
-0.066011
-0.070424
-0.074761
-0.079207
-0.084056
-0.089535
-0.096068
-0.104007
-0.113697
-0.125412
-0.143893
0.363745
0.362116
0.357140
0.347741
0.331832
0.305869
0.264479
0.200895
0.110113
-0.006851
-0.099445
-0.160543
-0.199398
-0.224361
-0.241077
-0.253900
-0.266413
-0.281209
-0.299103
-0.317626
-0.331535
-0.337202
-0.332061
-0.316449
-0.292542
-0.263059
-0.230491
-0.196808
-0.163436
-0.131349
-0.101184
-0.073339
-0.048060
-0.025490
-0.005711
0.011248
0.025440
0.037050
0.047612
0.055427
0.059183
0.058007
0.052467
0.043393
0.031571
0.017812
0.003154
-0.011054
-0.022898
-0.030065
-0.034632
-0.036965
-0.037396
-0.036171
-0.033503
-0.029634
-0.024846
-0.019457
-0.013804
-0.008223
-0.003023
0.001527
0.005193
0.007747
0.008974
0.008692
0.006872
0.003743
-0.000194
-0.004263
-0.007801
-0.010281
-0.011379
-0.011253
-0.010229
-0.008792
-0.007476
-0.006796
-0.007204
-0.009035
-0.012461
-0.017440
-0.023695
-0.030706
-0.037927
-0.044603
-0.050561
-0.055740
-0.060245
-0.064252
-0.067998
-0.071754
-0.075816
-0.080517
-0.086222
-0.093393
-0.102539
-0.114233
-0.129145
-0.155555
0.390798
0.390029
0.387496
0.382033
0.371175
0.350129
0.310062
0.236193
0.108298
-0.083422
-0.193118
-0.241485
-0.264146
-0.275016
-0.279659
-0.282619
-0.288242
-0.300354
-0.321481
-0.350111
-0.375301
-0.387400
-0.383354
-0.364372
-0.334496
-0.297987
-0.258285
-0.217841
-0.178294
-0.140701
-0.105726
-0.073782
-0.045132
-0.019960
0.001559
0.019205
0.032752
0.042292
0.048348
0.054003
0.056651
0.053497
0.046643
0.037422
0.026258
0.013323
-0.000935
-0.015531
-0.028958
-0.039543
-0.044141
-0.045642
-0.044679
-0.041821
-0.037504
-0.032108
-0.025994
-0.019517
-0.013023
-0.006841
-0.001265
0.003450
0.007061
0.009314
0.009926
0.008664
0.005491
0.000712
-0.004994
-0.010720
-0.015590
-0.019037
-0.020489
-0.020126
-0.018481
-0.016185
-0.013879
-0.012150
-0.011498
-0.012295
-0.014753
-0.018884
-0.024471
-0.031075
-0.038115
-0.044954
-0.050792
-0.055599
-0.059561
-0.062867
-0.065818
-0.068779
-0.072148
-0.076352
-0.081859
-0.089209
-0.099043
-0.112122
-0.129377
-0.161042
0.419226
0.419584
0.420360
0.420648
0.418277
0.408224
0.378823
0.302932
0.112486
-0.250551
-0.336024
-0.331324
-0.325420
-0.319549
-0.311085
-0.303135
-0.300176
-0.306675
-0.327473
-0.363917
-0.408123
-0.433424
-0.432615
-0.410837
-0.375321
-0.332303
-0.286174
-0.239751
-0.194789
-0.152379
-0.113203
-0.077698
-0.046167
-0.018871
0.003856
0.021463
0.033210
0.038903
0.040002
0.038572
0.036382
0.032781
0.027884
0.021906
0.014650
0.005743
-0.004946
-0.016980
-0.029258
-0.040210
-0.048318
-0.050582
-0.049686
-0.046484
-0.041539
-0.035370
-0.028448
-0.021212
-0.014066
-0.007378
-0.001472
0.003362
0.006841
0.008646
0.008432
0.005927
0.001133
-0.005502
-0.013057
-0.020355
-0.026321
-0.030309
-0.031697
-0.030787
-0.028270
-0.024910
-0.021441
-0.018514
-0.016659
-0.016271
-0.017589
-0.020671
-0.025359
-0.031282
-0.037886
-0.044517
-0.050541
-0.055158
-0.058723
-0.061442
-0.063649
-0.065775
-0.068308
-0.071763
-0.076696
-0.083722
-0.093552
-0.107027
-0.125159
-0.158627
0.446937
0.448575
0.453200
0.460578
0.469845
0.478148
0.476365
0.433840
0.212302
-0.565713
-0.503808
-0.386339
-0.359695
-0.347081
-0.332052
-0.318273
-0.311150
-0.313506
-0.330195
-0.364743
-0.412202
-0.455435
-0.463339
-0.440874
-0.402505
-0.356217
-0.306954
-0.257606
-0.209921
-0.165020
-0.123667
-0.086436
-0.053836
-0.026475
-0.005227
0.008866
0.015324
0.015176
0.011123
0.006036
0.001812
0.000086
-0.000601
-0.001179
-0.002510
-0.005419
-0.010491
-0.017812
-0.026783
-0.036168
-0.044391
-0.049940
-0.050506
-0.048268
-0.043869
-0.037918
-0.030982
-0.023597
-0.016258
-0.009411
-0.003453
0.001259
0.004368
0.005483
0.004203
0.000256
-0.006264
-0.014704
-0.023880
-0.032383
-0.039009
-0.043081
-0.043956
-0.042165
-0.038521
-0.033901
-0.029130
-0.024906
-0.021781
-0.020155
-0.020273
-0.022218
-0.025881
-0.030949
-0.036916
-0.043144
-0.048970
-0.053820
-0.057086
-0.059376
-0.060980
-0.062353
-0.064031
-0.066595
-0.070654
-0.076864
-0.085949
-0.098738
-0.116188
-0.148264
0.471569
0.474402
0.482672
0.496984
0.518358
0.548131
0.587305
0.633033
0.719681
0.076984
-0.437244
-0.370680
-0.364972
-0.358616
-0.350391
-0.341638
-0.335899
-0.335727
-0.346016
-0.370964
-0.407939
-0.444136
-0.461466
-0.443396
-0.405625
-0.360517
-0.312845
-0.265120
-0.218892
-0.175293
-0.135242
-0.099585
-0.069236
-0.045333
-0.029160
-0.021534
-0.021752
-0.027078
-0.033703
-0.038644
-0.039736
-0.036876
-0.031889
-0.026224
-0.021101
-0.017586
-0.016515
-0.018337
-0.022920
-0.029455
-0.036594
-0.042800
-0.046520
-0.046071
-0.043160
-0.038358
-0.032249
-0.025438
-0.018509
-0.012004
-0.006410
-0.002176
0.000258
0.000426
-0.002114
-0.007595
-0.015788
-0.025820
-0.036277
-0.045593
-0.052491
-0.056246
-0.056247
-0.053284
-0.048281
-0.042231
-0.036044
-0.030466
-0.026059
-0.023211
-0.022155
-0.022976
-0.025592
-0.029736
-0.034951
-0.040633
-0.046125
-0.050863
-0.054122
-0.056133
-0.057285
-0.058019
-0.058884
-0.060483
-0.063443
-0.068414
-0.076089
-0.087220
-0.102630
-0.130820
0.490920
0.494591
0.505401
0.524483
0.553999
0.597707
0.662110
0.758037
0.889980
0.909981
0.000000
-0.368312
-0.365943
-0.367909
-0.369314
-0.370579
-0.371372
-0.373151
-0.378990
-0.390268
-0.406025
-0.420793
-0.424493
-0.413174
-0.380792
-0.340295
-0.298237
-0.256409
-0.215936
-0.177854
-0.143204
-0.113118
-0.088937
-0.072201
-0.064142
-0.064562
-0.070952
-0.079150
-0.085255
-0.086301
-0.081076
-0.071848
-0.060391
-0.048334
-0.037042
-0.027631
-0.020976
-0.017660
-0.017838
-0.021089
-0.026384
-0.032278
-0.037278
-0.039726
-0.038801
-0.035798
-0.031191
-0.025593
-0.019652
-0.013995
-0.009198
-0.005801
-0.004336
-0.005339
-0.009270
-0.016303
-0.026054
-0.037451
-0.048909
-0.058764
-0.065723
-0.068705
-0.067617
-0.063272
-0.056744
-0.049150
-0.041488
-0.034548
-0.028896
-0.024898
-0.022756
-0.022538
-0.024167
-0.027406
-0.031838
-0.036893
-0.041926
-0.046328
-0.049630
-0.051412
-0.052204
-0.052386
-0.052479
-0.053070
-0.054764
-0.058171
-0.063912
-0.072625
-0.084960
-0.107535
0.503448
0.507427
0.519120
0.539643
0.570960
0.615940
0.677863
0.758344
0.851166
0.929983
0.835060
0.000000
-0.371773
-0.377604
-0.389369
-0.405531
-0.420219
-0.430390
-0.431628
-0.424048
-0.411461
-0.395892
-0.375879
-0.354295
-0.328221
-0.294580
-0.259940
-0.226658
-0.195063
-0.165947
-0.140392
-0.119781
-0.105809
-0.100071
-0.102924
-0.112274
-0.123763
-0.132613
-0.135368
-0.129296
-0.117023
-0.100837
-0.082799
-0.064674
-0.047876
-0.033480
-0.022268
-0.014766
-0.011206
-0.011411
-0.014658
-0.019713
-0.025071
-0.029318
-0.030849
-0.029969
-0.027248
-0.023280
-0.018739
-0.014310
-0.010644
-0.008366
-0.008093
-0.010425
-0.015828
-0.024400
-0.035608
-0.048209
-0.060489
-0.070700
-0.077524
-0.079535
-0.077161
-0.071317
-0.063210
-0.054073
-0.044978
-0.036752
-0.029958
-0.024932
-0.021837
-0.020710
-0.021464
-0.023875
-0.027556
-0.031970
-0.036487
-0.040502
-0.043550
-0.045155
-0.045619
-0.045279
-0.044611
-0.044154
-0.044462
-0.046076
-0.049520
-0.055295
-0.063863
-0.079751
0.508583
0.512342
0.523311
0.542245
0.570390
0.609266
0.659880
0.719965
0.775491
0.788854
0.740136
0.615809
0.000000
-0.394362
-0.411121
-0.448662
-0.483526
-0.507766
-0.501850
-0.469509
-0.423159
-0.373177
-0.326209
-0.285537
-0.251451
-0.223751
-0.196861
-0.173020
-0.151809
-0.133926
-0.120588
-0.113400
-0.114055
-0.123300
-0.139493
-0.158196
-0.173767
-0.181850
-0.178562
-0.164423
-0.144732
-0.121796
-0.097754
-0.074387
-0.053060
-0.034741
-0.020071
-0.009433
-0.003003
-0.000693
-0.002018
-0.006000
-0.011266
-0.016349
-0.020063
-0.021150
-0.020358
-0.018153
-0.015187
-0.012167
-0.009804
-0.008796
-0.009839
-0.013586
-0.020496
-0.030579
-0.043162
-0.056861
-0.069845
-0.080275
-0.086733
-0.087666
-0.083958
-0.076662
-0.067099
-0.056588
-0.046254
-0.036938
-0.029191
-0.023315
-0.019435
-0.017549
-0.017558
-0.019240
-0.022232
-0.026021
-0.029999
-0.033563
-0.036239
-0.037561
-0.037643
-0.036751
-0.035295
-0.033748
-0.032590
-0.032274
-0.033212
-0.035751
-0.040158
-0.048788
0.506742
0.509941
0.519187
0.534841
0.557307
0.586583
0.621233
0.655941
0.677253
0.659822
0.586201
0.491482
0.313621
0.000000
-0.464172
-0.517223
-0.557664
-0.586857
-0.565815
-0.507220
-0.429818
-0.348531
-0.274361
-0.213864
-0.168744
-0.136339
-0.113663
-0.098655
-0.087836
-0.082481
-0.084062
-0.093999
-0.113040
-0.139908
-0.170315
-0.197768
-0.215952
-0.220903
-0.209020
-0.188195
-0.162153
-0.133689
-0.105016
-0.077827
-0.053339
-0.032357
-0.015349
-0.002548
0.005977
0.010299
0.010738
0.008004
0.003243
-0.002164
-0.006965
-0.009857
-0.010814
-0.010254
-0.008800
-0.007169
-0.006111
-0.006388
-0.008766
-0.013934
-0.022324
-0.033852
-0.047710
-0.062391
-0.075962
-0.086490
-0.092398
-0.092126
-0.087208
-0.078721
-0.068044
-0.056533
-0.045325
-0.035252
-0.026837
-0.020346
-0.015868
-0.013376
-0.012756
-0.013795
-0.016148
-0.019327
-0.022741
-0.025790
-0.027984
-0.028929
-0.028542
-0.027034
-0.024743
-0.022069
-0.019406
-0.017109
-0.015465
-0.014661
-0.014760
-0.015920
0.498959
0.501355
0.508182
0.519392
0.534669
0.552945
0.571489
0.584323
0.580206
0.541377
0.449716
0.295414
0.135761
-0.318484
-0.616210
-0.556628
-0.602389
-0.623672
-0.584443
-0.508769
-0.413911
-0.315062
-0.223950
-0.148120
-0.091299
-0.051815
-0.026903
-0.017440
-0.015068
-0.022127
-0.039860
-0.068435
-0.106538
-0.150275
-0.193011
-0.227002
-0.246049
-0.243116
-0.224902
-0.198721
-0.168270
-0.136377
-0.105142
-0.076057
-0.050116
-0.027917
-0.009758
0.004275
0.014214
0.020154
0.022296
0.021089
0.017370
0.012320
0.007189
0.003080
0.000828
0.000070
0.000253
0.000674
0.000558
-0.000911
-0.004550
-0.011061
-0.020827
-0.033654
-0.048610
-0.064081
-0.078063
-0.088634
-0.093264
-0.092173
-0.086453
-0.077275
-0.066041
-0.054095
-0.042538
-0.032158
-0.023435
-0.016601
-0.011718
-0.008749
-0.007581
-0.008019
-0.009742
-0.012289
-0.015091
-0.017556
-0.019180
-0.019635
-0.018682
-0.016486
-0.013317
-0.009498
-0.005338
-0.001090
0.003091
0.007186
0.011346
0.017604
0.486716
0.488216
0.492398
0.498927
0.507031
0.515090
0.519976
0.516099
0.494333
0.441115
0.338332
0.160845
-0.144994
-0.772729
-0.675793
-0.577814
-0.591166
-0.584860
-0.538859
-0.462693
-0.369269
-0.271174
-0.178888
-0.100000
-0.038610
0.005484
0.034689
0.048983
0.047113
0.029959
-0.002058
-0.046509
-0.099560
-0.155096
-0.205027
-0.241198
-0.255404
-0.245614
-0.223971
-0.195322
-0.163380
-0.130829
-0.099527
-0.070698
-0.045101
-0.023146
-0.004992
0.009374
0.020067
0.027224
0.030988
0.031599
0.029559
0.025715
0.021137
0.016809
0.013791
0.012168
0.011433
0.010916
0.009835
0.007343
0.002596
-0.005089
-0.016021
-0.029893
-0.045658
-0.061612
-0.075662
-0.085674
-0.089327
-0.087801
-0.081840
-0.072645
-0.061572
-0.049884
-0.038595
-0.028417
-0.019773
-0.012865
-0.007747
-0.004389
-0.002703
-0.002525
-0.003570
-0.005413
-0.007514
-0.009296
-0.010263
-0.010090
-0.008489
-0.005548
-0.001479
0.003466
0.009060
0.015152
0.021717
0.028911
0.037110
0.050531
0.471673
0.472310
0.473983
0.476212
0.478026
0.477664
0.472151
0.456745
0.424384
0.365166
0.265720
0.108054
-0.131742
-0.439245
-0.508748
-0.510159
-0.511454
-0.494295
-0.453745
-0.391225
-0.314377
-0.232208
-0.152804
-0.082220
-0.023930
0.021081
0.052564
0.074734
0.076480
0.054921
0.015613
-0.036478
-0.095606
-0.154264
-0.203680
-0.235584
-0.240427
-0.229077
-0.207301
-0.179662
-0.149528
-0.119234
-0.090317
-0.063737
-0.040053
-0.019556
-0.002346
0.011616
0.022464
0.030367
0.035479
0.037943
0.038010
0.036166
0.033131
0.029651
0.026832
0.024971
0.023754
0.022628
0.020847
0.017564
0.011948
0.003362
-0.008410
-0.022957
-0.039143
-0.055215
-0.069119
-0.078074
-0.081231
-0.079720
-0.074189
-0.065744
-0.055609
-0.044898
-0.034487
-0.024987
-0.016763
-0.009994
-0.004751
-0.001037
0.001189
0.002045
0.001770
0.000748
-0.000520
-0.001490
-0.001681
-0.000772
0.001562
0.005284
0.010242
0.016250
0.023158
0.030908
0.039602
0.049567
0.061420
0.081562
0.455426
0.455308
0.454813
0.453433
0.450194
0.443465
0.430705
0.408203
0.370869
0.312207
0.224573
0.100465
-0.062000
-0.241175
-0.340495
-0.384238
-0.399511
-0.390781
-0.363364
-0.318844
-0.262208
-0.199669
-0.137141
-0.079328
-0.029279
0.011549
0.043405
0.064963
0.066608
0.047631
0.011028
-0.038037
-0.092786
-0.145137
-0.186615
-0.206776
-0.208524
-0.198045
-0.179290
-0.155802
-0.130285
-0.104608
-0.079973
-0.057112
-0.036445
-0.018206
-0.002511
0.010622
0.021258
0.029527
0.035583
0.039570
0.041645
0.042049
0.041180
0.039706
0.038260
0.036908
0.035748
0.034429
0.032293
0.028543
0.022400
0.013302
0.001126
-0.013629
-0.029773
-0.045502
-0.058652
-0.066608
-0.070061
-0.069250
-0.064888
-0.057954
-0.049472
-0.040350
-0.031297
-0.022813
-0.015213
-0.008685
-0.003338
0.000759
0.003587
0.005205
0.005802
0.005719
0.005414
0.005388
0.006088
0.007846
0.010974
0.015479
0.021275
0.028239
0.036288
0.045441
0.055907
0.068173
0.083099
0.109298
0.439378
0.438635
0.436378
0.432151
0.425105
0.413874
0.396462
0.370150
0.331526
0.276728
0.202099
0.105731
-0.008988
-0.127868
-0.215414
-0.268729
-0.295043
-0.298944
-0.285050
-0.256677
-0.217640
-0.172415
-0.125374
-0.080187
-0.039510
-0.004963
0.022911
0.039474
0.040998
0.026480
-0.002298
-0.041201
-0.084167
-0.123794
-0.152448
-0.165915
-0.167788
-0.160445
-0.146697
-0.129116
-0.109718
-0.089912
-0.070587
-0.052253
-0.035197
-0.019606
-0.005632
0.006595
0.017003
0.025595
0.032446
0.037663
0.041376
0.043704
0.045260
0.046338
0.046545
0.046326
0.045825
0.044817
0.042764
0.038967
0.032741
0.023619
0.011553
-0.002911
-0.018581
-0.033646
-0.045424
-0.053536
-0.057700
-0.058201
-0.055664
-0.050855
-0.044532
-0.037367
-0.029894
-0.022520
-0.015547
-0.009202
-0.003672
0.000887
0.004393
0.006840
0.008372
0.009291
0.010015
0.010999
0.012647
0.015331
0.019256
0.024503
0.031048
0.038826
0.047800
0.058042
0.069829
0.083763
0.100924
0.132138
0.424687
0.423438
0.419782
0.413382
0.403580
0.389328
0.369150
0.341169
0.303233
0.253237
0.189747
0.113087
0.027054
-0.059435
-0.131171
-0.182263
-0.213054
-0.225598
-0.222465
-0.206638
-0.181231
-0.149644
-0.115207
-0.080845
-0.048869
-0.020951
0.001123
0.014359
0.016656
0.007321
-0.012441
-0.039534
-0.069302
-0.096237
-0.115328
-0.125909
-0.128481
-0.124474
-0.115733
-0.104036
-0.090819
-0.077068
-0.063337
-0.049851
-0.036667
-0.023842
-0.011542
-0.000035
0.010398
0.019558
0.027361
0.033809
0.039084
0.043552
0.047041
0.049634
0.051430
0.052601
0.053161
0.052887
0.051336
0.047932
0.042106
0.033473
0.022023
0.008314
-0.006596
-0.020559
-0.032222
-0.040823
-0.046148
-0.048451
-0.048180
-0.045810
-0.041803
-0.036592
-0.030574
-0.024105
-0.017525
-0.011144
-0.005270
-0.000169
0.004062
0.007355
0.009806
0.011695
0.013392
0.015317
0.017893
0.021378
0.026002
0.031884
0.039050
0.047473
0.057136
0.068119
0.080701
0.095502
0.113697
0.148057
0.412296
0.410606
0.405797
0.397719
0.385940
0.369712
0.348001
0.319569
0.283134
0.237660
0.182826
0.119683
0.051415
-0.016241
-0.075552
-0.121724
-0.153209
-0.170386
-0.174590
-0.167762
-0.152351
-0.130986
-0.106272
-0.080578
-0.055918
-0.033944
-0.016468
-0.005358
-0.001936
-0.006604
-0.018514
-0.035531
-0.054508
-0.071893
-0.085188
-0.093125
-0.095815
-0.094113
-0.089242
-0.082442
-0.074715
-0.066674
-0.058495
-0.049995
-0.040823
-0.030750
-0.019891
-0.008708
0.002197
0.012331
0.021408
0.029407
0.036351
0.042210
0.047087
0.051066
0.054235
0.056660
0.058285
0.058887
0.058090
0.055420
0.050400
0.042684
0.032198
0.019356
0.005171
-0.008732
-0.020849
-0.030382
-0.037176
-0.041477
-0.043536
-0.043490
-0.041495
-0.037812
-0.032774
-0.026733
-0.020181
-0.013466
-0.007009
-0.001269
0.003644
0.007685
0.010939
0.013622
0.016080
0.018711
0.021880
0.025892
0.030985
0.037309
0.044926
0.053816
0.063940
0.075322
0.088148
0.102895
0.120556
0.154336
0.403026
0.400844
0.394933
0.385447
0.372185
0.354645
0.332120
0.303816
0.269011
0.227285
0.178839
0.124871
0.067909
0.011826
-0.038761
-0.080313
-0.110989
-0.130404
-0.139190
-0.138501
-0.130174
-0.116246
-0.098784
-0.079724
-0.060790
-0.043479
-0.029276
-0.019489
-0.015016
-0.016108
-0.022190
-0.031861
-0.043111
-0.054076
-0.062640
-0.067977
-0.070102
-0.069606
-0.067397
-0.064406
-0.061343
-0.058514
-0.055723
-0.052281
-0.047223
-0.039794
-0.029952
-0.018488
-0.006536
0.005061
0.015702
0.025221
0.033555
0.040756
0.046918
0.052126
0.056447
0.059904
0.062427
0.063843
0.063871
0.062129
0.058168
0.051613
0.041920
0.029215
0.014830
0.000186
-0.013024
-0.023732
-0.031853
-0.037809
-0.041759
-0.043448
-0.042704
-0.039766
-0.035101
-0.028837
-0.021884
-0.014941
-0.008182
-0.001834
0.003716
0.008392
0.012259
0.015521
0.018451
0.021428
0.024825
0.028982
0.034192
0.040680
0.048562
0.057778
0.068194
0.079705
0.092296
0.106125
0.121710
0.148751
0.397797
0.394746
0.387468
0.376603
0.362120
0.343646
0.320669
0.292673
0.259272
0.220383
0.176436
0.128589
0.078865
0.030064
-0.014668
-0.052653
-0.082166
-0.102558
-0.114077
-0.117424
-0.113957
-0.105277
-0.093044
-0.078853
-0.064150
-0.050213
-0.038210
-0.029170
-0.023801
-0.022312
-0.024318
-0.028895
-0.034928
-0.041075
-0.045930
-0.048977
-0.050271
-0.050327
-0.049910
-0.049777
-0.050450
-0.052029
-0.054053
-0.055412
-0.054417
-0.049445
-0.040037
-0.027490
-0.014184
-0.001146
0.011100
0.022126
0.031826
0.040256
0.047528
0.053742
0.058958
0.063182
0.066362
0.068420
0.069219
0.068463
0.065550
0.059435
0.049996
0.037184
0.021647
0.005196
-0.009718
-0.021443
-0.030046
-0.036554
-0.041428
-0.044045
-0.043640
-0.040252
-0.035401
-0.029548
-0.022646
-0.015287
-0.008125
-0.001469
0.004455
0.009565
0.013861
0.017522
0.020639
0.023611
0.026846
0.030747
0.035697
0.042055
0.050099
0.059618
0.070276
0.081792
0.093917
0.106377
0.119091
0.136218
0.398247
0.392763
0.383370
0.370980
0.355424
0.336240
0.312964
0.285234
0.252849
0.215896
0.174894
0.130920
0.085659
0.041307
0.000265
-0.035310
-0.063785
-0.084604
-0.097703
-0.103551
-0.103203
-0.097964
-0.089218
-0.078308
-0.066469
-0.054804
-0.044257
-0.035484
-0.029332
-0.026024
-0.025258
-0.026535
-0.029249
-0.032203
-0.034617
-0.036128
-0.036829
-0.037185
-0.037860
-0.039493
-0.042475
-0.046790
-0.051914
-0.056697
-0.059133
-0.056462
-0.046704
-0.034062
-0.019491
-0.004802
0.008890
0.021134
0.031854
0.041147
0.049159
0.056005
0.061740
0.066348
0.069784
0.072103
0.073460
0.072911
0.070078
0.064600
0.055575
0.042425
0.025521
0.006949
-0.009883
-0.022330
-0.030354
-0.035764
-0.039856
-0.042321
-0.042307
-0.039868
-0.034974
-0.028755
-0.021788
-0.014511
-0.007388
-0.000730
0.005311
0.010695
0.015192
0.018840
0.022015
0.024961
0.028033
0.031648
0.036244
0.042260
0.050094
0.059973
0.070885
0.082328
0.093914
0.105434
0.116471
0.127079
0.408844
0.394528
0.382043
0.368310
0.351955
0.332280
0.308823
0.281251
0.249434
0.213523
0.174049
0.132023
0.088953
0.046753
0.007489
-0.026985
-0.055366
-0.076552
-0.090300
-0.097179
-0.098136
-0.094348
-0.087081
-0.077579
-0.066994
-0.056358
-0.046568
-0.038386
-0.031993
-0.027866
-0.026235
-0.026651
-0.028144
-0.029957
-0.031463
-0.032364
-0.032758
-0.033073
-0.033911
-0.035841
-0.039194
-0.043891
-0.049353
-0.054434
-0.057346
-0.055924
-0.049271
-0.036067
-0.020525
-0.005074
0.009181
0.021850
0.032901
0.042454
0.050662
0.057641
0.063436
0.068012
0.071287
0.073168
0.073496
0.072617
0.069795
0.064389
0.055667
0.043117
0.027001
0.009004
-0.007901
-0.021028
-0.029742
-0.035270
-0.038904
-0.040918
-0.040874
-0.038443
-0.033865
-0.027858
-0.021066
-0.013979
-0.007023
-0.000509
0.005363
0.010488
0.014998
0.018837
0.022190
0.025323
0.028575
0.032341
0.037040
0.043064
0.050709
0.060037
0.070925
0.082330
0.093712
0.104846
0.115592
0.126365
