# vtk DataFile Version 3.0
Vector Field
ASCII
DATASET RECTILINEAR_GRID
DIMENSIONS 100 26 1
X_COORDINATES 100 double
0.050000 0.150000 0.250000 0.350000 0.450000 0.550000 0.650000 0.750000 0.850000 0.950000 1.050000 1.150000 1.250000 1.350000 1.450000 1.550000 1.650000 1.750000 1.850000 1.950000 2.050000 2.150000 2.250000 2.350000 2.450000 2.550000 2.650000 2.750000 2.850000 2.950000 3.050000 3.150000 3.250000 3.350000 3.450000 3.550000 3.650000 3.750000 3.850000 3.950000 4.050000 4.150000 4.250000 4.350000 4.450000 4.550000 4.650000 4.750000 4.850000 4.950000 5.050000 5.150000 5.250000 5.350000 5.450000 5.550000 5.650000 5.750000 5.850000 5.950000 6.050000 6.150000 6.250000 6.350000 6.450000 6.550000 6.650000 6.750000 6.850000 6.950000 7.050000 7.150000 7.250000 7.350000 7.450000 7.550000 7.650000 7.750000 7.850000 7.950000 8.050000 8.150000 8.250000 8.350000 8.450000 8.550000 8.650000 8.750000 8.850000 8.950000 9.050000 9.150000 9.250000 9.350000 9.450000 9.550000 9.650000 9.750000 9.850000 9.950000 
Y_COORDINATES 26 double
0.050000 0.150000 0.250000 0.350000 0.450000 0.550000 0.650000 0.750000 0.850000 0.950000 1.050000 1.150000 1.250000 1.350000 1.450000 1.550000 1.650000 1.750000 1.850000 1.950000 2.050000 2.150000 2.250000 2.350000 2.450000 2.550000 
Z_COORDINATES 1 double
0.0
POINT_DATA 2600
VECTORS Vektorfeld double
0.997770 0.002230 0.0
0.993388 0.002153 0.0
0.990696 0.000539 0.0
0.991847 -0.001690 0.0
0.997649 -0.004113 0.0
1.008208 -0.006446 0.0
1.023068 -0.008414 0.0
1.041223 -0.009741 0.0
1.061154 -0.010189 0.0
1.080962 -0.009619 0.0
1.098651 -0.008069 0.0
1.112457 -0.005737 0.0
1.121117 -0.002923 0.0
1.124045 -0.000005 0.0
1.121296 0.002754 0.0
1.113278 0.005265 0.0
1.100617 0.007396 0.0
1.084176 0.009045 0.0
1.064987 0.010144 0.0
1.044181 0.010662 0.0
1.022917 0.010602 0.0
1.002306 0.010010 0.0
0.983316 0.008981 0.0
0.966673 0.007662 0.0
0.952757 0.006255 0.0
0.941494 0.005008 0.0
0.932287 0.004200 0.0
0.923999 0.004088 0.0
0.915058 0.004854 0.0
0.903665 0.006539 0.0
0.888097 0.009030 0.0
0.866975 0.012092 0.0
0.839455 0.015428 0.0
0.805296 0.018731 0.0
0.764851 0.021714 0.0
0.719000 0.024137 0.0
0.669062 0.025801 0.0
0.616709 0.026553 0.0
0.563876 0.026281 0.0
0.512676 0.024918 0.0
0.465360 0.022398 0.0
0.424465 0.018497 0.0
0.393234 0.012734 0.0
0.375467 0.005032 0.0
0.372806 -0.002371 0.0
0.381689 -0.006511 0.0
0.396607 -0.008407 0.0
0.413961 -0.008947 0.0
0.431588 -0.008680 0.0
0.448186 -0.007918 0.0
0.462944 -0.006840 0.0
0.475335 -0.005551 0.0
0.485024 -0.004138 0.0
0.491867 -0.002705 0.0
0.495938 -0.001366 0.0
0.497390 -0.000086 0.0
0.495772 0.001704 0.0
0.489934 0.004134 0.0
0.478887 0.006913 0.0
0.462279 0.009696 0.0
0.440651 0.011932 0.0
0.415765 0.012953 0.0
0.390511 0.012301 0.0
0.368044 0.010165 0.0
0.350455 0.007424 0.0
0.337933 0.005098 0.0
0.329165 0.003669 0.0
0.322574 0.002921 0.0
0.317320 0.002333 0.0
0.313415 0.001572 0.0
0.311167 0.000677 0.0
0.310605 -0.000115 0.0
0.311363 -0.000644 0.0
0.312894 -0.000888 0.0
0.314722 -0.000940 0.0
0.316506 -0.000843 0.0
0.317964 -0.000614 0.0
0.318852 -0.000274 0.0
0.318877 0.000249 0.0
0.317651 0.000977 0.0
0.314969 0.001704 0.0
0.311079 0.002186 0.0
0.306618 0.002275 0.0
0.302409 0.001934 0.0
0.299186 0.001290 0.0
0.297255 0.000641 0.0
0.296359 0.000255 0.0
0.295954 0.000150 0.0
0.295630 0.000174 0.0
0.295239 0.000217 0.0
0.294778 0.000245 0.0
0.294276 0.000257 0.0
0.293760 0.000258 0.0
0.293269 0.000233 0.0
0.292914 0.000122 0.0
0.292906 -0.000114 0.0
0.293472 -0.000452 0.0
0.294831 -0.000908 0.0
0.297101 -0.001362 0.0
0.300178 -0.001715 0.0
1.003066 0.001393 0.0
1.011983 -0.001545 0.0
1.025896 -0.006984 0.0
1.044152 -0.013573 0.0
1.066637 -0.020518 0.0
1.093180 -0.027142 0.0
1.123318 -0.032714 0.0
1.156166 -0.036445 0.0
1.190362 -0.037612 0.0
1.224129 -0.035772 0.0
1.255564 -0.031040 0.0
1.283034 -0.024042 0.0
1.305406 -0.015650 0.0
1.321987 -0.006788 0.0
1.332471 0.001800 0.0
1.337083 0.009624 0.0
1.336507 0.016274 0.0
1.331671 0.021445 0.0
1.323671 0.024934 0.0
1.313709 0.026640 0.0
1.303020 0.026575 0.0
1.292789 0.024879 0.0
1.284050 0.021840 0.0
1.277593 0.017902 0.0
1.273850 0.013673 0.0
1.272790 0.009912 0.0
1.273827 0.007467 0.0
1.275790 0.007146 0.0
1.277005 0.009523 0.0
1.275533 0.014734 0.0
1.269511 0.022425 0.0
1.257464 0.031865 0.0
1.238499 0.042140 0.0
1.212360 0.052317 0.0
1.179389 0.061543 0.0
1.140451 0.069097 0.0
1.096836 0.074393 0.0
1.050172 0.076977 0.0
1.002353 0.076508 0.0
0.955493 0.072749 0.0
0.911886 0.065490 0.0
0.873772 0.054414 0.0
0.842492 0.039328 0.0
0.817279 0.021417 0.0
0.796802 0.004382 0.0
0.783052 -0.008396 0.0
0.778141 -0.016530 0.0
0.781055 -0.021093 0.0
0.790129 -0.023235 0.0
0.803940 -0.023773 0.0
0.821415 -0.023219 0.0
0.841682 -0.021830 0.0
0.863812 -0.019678 0.0
0.886525 -0.016721 0.0
0.907937 -0.012833 0.0
0.925641 -0.007778 0.0
0.937916 -0.001261 0.0
0.944391 0.006463 0.0
0.945099 0.014923 0.0
0.940101 0.023292 0.0
0.929745 0.030319 0.0
0.914468 0.034729 0.0
0.894470 0.035779 0.0
0.869747 0.033877 0.0
0.840593 0.030456 0.0
0.808212 0.026969 0.0
0.774906 0.023872 0.0
0.743656 0.020559 0.0
0.717409 0.016197 0.0
0.698381 0.010641 0.0
0.687534 0.004703 0.0
0.684289 -0.000335 0.0
0.686693 -0.003586 0.0
0.692590 -0.005373 0.0
0.700608 -0.006301 0.0
0.709835 -0.006493 0.0
0.719324 -0.005912 0.0
0.728075 -0.004616 0.0
0.735352 -0.002711 0.0
0.741030 -0.000515 0.0
0.745434 0.001473 0.0
0.748831 0.002911 0.0
0.751244 0.003599 0.0
0.752552 0.003510 0.0
0.752552 0.002936 0.0
0.751105 0.002374 0.0
0.748369 0.002154 0.0
0.744798 0.002226 0.0
0.740839 0.002381 0.0
0.736732 0.002508 0.0
0.732545 0.002602 0.0
0.728274 0.002674 0.0
0.723922 0.002709 0.0
0.719562 0.002633 0.0
0.715350 0.002290 0.0
0.711577 0.001499 0.0
0.708864 0.000082 0.0
0.707960 -0.001897 0.0
0.709267 -0.003948 0.0
0.712195 -0.005134 0.0
1.001978 -0.003651 0.0
1.009076 -0.012516 0.0
1.022036 -0.022886 0.0
1.040314 -0.034204 0.0
1.063750 -0.045809 0.0
1.092214 -0.056858 0.0
1.125322 -0.066245 0.0
1.162181 -0.072622 0.0
1.201190 -0.074641 0.0
1.239990 -0.071310 0.0
1.275942 -0.062890 0.0
1.306939 -0.050658 0.0
1.331753 -0.036219 0.0
1.349978 -0.021024 0.0
1.361795 -0.006264 0.0
1.367745 0.007125 0.0
1.368602 0.018492 0.0
1.365306 0.027360 0.0
1.358922 0.033403 0.0
1.350605 0.036450 0.0
1.341551 0.036508 0.0
1.332941 0.033787 0.0
1.325884 0.028727 0.0
1.321342 0.022013 0.0
1.320057 0.014591 0.0
1.322421 0.007690 0.0
1.328315 0.002758 0.0
1.336915 0.001291 0.0
1.346666 0.004411 0.0
1.355503 0.012480 0.0
1.361288 0.024916 0.0
1.362279 0.040432 0.0
1.357347 0.057470 0.0
1.345999 0.074476 0.0
1.328297 0.090057 0.0
1.304762 0.103057 0.0
1.276260 0.112550 0.0
1.243922 0.117823 0.0
1.209062 0.118342 0.0
1.173100 0.113737 0.0
1.137414 0.103796 0.0
1.103050 0.088587 0.0
1.070478 0.069007 0.0
1.039948 0.047482 0.0
1.011926 0.026817 0.0
0.986581 0.008264 0.0
0.965105 -0.006803 0.0
0.949489 -0.018119 0.0
0.940363 -0.026156 0.0
0.937496 -0.031796 0.0
0.940509 -0.035683 0.0
0.948977 -0.038101 0.0
0.962426 -0.038985 0.0
0.980303 -0.038003 0.0
1.001984 -0.034642 0.0
1.026725 -0.028414 0.0
1.053215 -0.019388 0.0
1.079324 -0.007994 0.0
1.102891 0.005104 0.0
1.122336 0.018664 0.0
1.136501 0.031138 0.0
1.144315 0.041374 0.0
1.144763 0.048685 0.0
1.137273 0.053182 0.0
1.122110 0.055468 0.0
1.100495 0.055954 0.0
1.074275 0.054412 0.0
1.045327 0.050217 0.0
1.015030 0.043083 0.0
0.984152 0.033660 0.0
0.953315 0.023368 0.0
0.923985 0.013575 0.0
0.899167 0.004918 0.0
0.881931 -0.002538 0.0
0.873001 -0.008224 0.0
0.870882 -0.011678 0.0
0.873763 -0.013097 0.0
0.880391 -0.012810 0.0
0.889739 -0.011141 0.0
0.900633 -0.008656 0.0
0.911759 -0.005916 0.0
0.922004 -0.003343 0.0
0.930706 -0.001262 0.0
0.937572 0.000197 0.0
0.942651 0.001169 0.0
0.946358 0.001882 0.0
0.949323 0.002418 0.0
0.952137 0.002720 0.0
0.955199 0.002782 0.0
0.958726 0.002687 0.0
0.962784 0.002553 0.0
0.967303 0.002475 0.0
0.972089 0.002474 0.0
0.976842 0.002476 0.0
0.981172 0.002329 0.0
0.984585 0.001819 0.0
0.986388 0.000671 0.0
0.986008 -0.001202 0.0
0.983807 -0.003749 0.0
0.983449 -0.007903 0.0
1.001603 -0.007232 0.0
1.007828 -0.022257 0.0
1.019969 -0.038246 0.0
1.037944 -0.055097 0.0
1.061922 -0.072330 0.0
1.092131 -0.089010 0.0
1.128554 -0.103624 0.0
1.170487 -0.114034 0.0
1.216125 -0.117875 0.0
1.261969 -0.112719 0.0
1.303788 -0.099252 0.0
1.338621 -0.080127 0.0
1.365227 -0.058171 0.0
1.383562 -0.035632 0.0
1.394236 -0.014146 0.0
1.398180 0.005112 0.0
1.396481 0.021348 0.0
1.390298 0.033983 0.0
1.380868 0.042594 0.0
1.369505 0.046940 0.0
1.357575 0.047003 0.0
1.346451 0.043026 0.0
1.337457 0.035540 0.0
1.331818 0.025381 0.0
1.330616 0.013711 0.0
1.334689 0.002133 0.0
1.344224 -0.007114 0.0
1.358302 -0.011516 0.0
1.374822 -0.009053 0.0
1.390946 0.000983 0.0
1.403933 0.017641 0.0
1.411804 0.038844 0.0
1.413548 0.062245 0.0
1.408952 0.085645 0.0
1.398353 0.107188 0.0
1.382397 0.125417 0.0
1.361867 0.139222 0.0
1.337578 0.147778 0.0
1.310328 0.150496 0.0
1.280853 0.147019 0.0
1.249762 0.137293 0.0
1.217462 0.121754 0.0
1.184234 0.101641 0.0
1.150540 0.079072 0.0
1.117351 0.056437 0.0
1.085962 0.035378 0.0
1.057218 0.016304 0.0
1.031932 -0.000323 0.0
1.011488 -0.014380 0.0
0.996830 -0.026048 0.0
0.988129 -0.035743 0.0
0.985259 -0.043640 0.0
0.987985 -0.049621 0.0
0.996121 -0.053380 0.0
1.009693 -0.054518 0.0
1.029009 -0.052596 0.0
1.054485 -0.047172 0.0
1.086126 -0.037961 0.0
1.122751 -0.025121 0.0
1.161483 -0.009289 0.0
1.198075 0.008333 0.0
1.228534 0.025906 0.0
1.250615 0.041625 0.0
1.263436 0.054911 0.0
1.266891 0.065446 0.0
1.261611 0.072870 0.0
1.248678 0.076649 0.0
1.229270 0.076337 0.0
1.204522 0.072008 0.0
1.175698 0.064436 0.0
1.144426 0.054702 0.0
1.112461 0.043537 0.0
1.080958 0.031277 0.0
1.050481 0.018816 0.0
1.022376 0.007456 0.0
0.999172 -0.002034 0.0
0.982752 -0.009202 0.0
0.973047 -0.013628 0.0
0.968792 -0.015416 0.0
0.968532 -0.015015 0.0
0.970822 -0.012973 0.0
0.974262 -0.009972 0.0
0.977648 -0.006720 0.0
0.980203 -0.003766 0.0
0.981732 -0.001477 0.0
0.982638 -0.000085 0.0
0.983777 0.000281 0.0
0.986206 -0.000385 0.0
0.990920 -0.001889 0.0
0.998668 -0.003917 0.0
1.009828 -0.006062 0.0
1.024307 -0.007910 0.0
1.041513 -0.009134 0.0
1.060394 -0.009550 0.0
1.079559 -0.009140 0.0
1.097486 -0.008052 0.0
1.112829 -0.006606 0.0
1.124726 -0.005441 0.0
1.132971 -0.005554 0.0
1.139268 -0.012038 0.0
1.001418 -0.010254 0.0
1.007079 -0.031121 0.0
1.018485 -0.052929 0.0
1.035999 -0.075904 0.0
1.060308 -0.099811 0.0
1.092310 -0.123740 0.0
1.132787 -0.145794 0.0
1.181687 -0.162697 0.0
1.237471 -0.170633 0.0
1.294309 -0.162645 0.0
1.344372 -0.141206 0.0
1.383592 -0.112226 0.0
1.411400 -0.080486 0.0
1.428755 -0.049007 0.0
1.437016 -0.019705 0.0
1.437612 0.006131 0.0
1.431903 0.027737 0.0
1.421199 0.044479 0.0
1.406903 0.055823 0.0
1.390544 0.061432 0.0
1.373747 0.061238 0.0
1.358169 0.055493 0.0
1.345432 0.044805 0.0
1.337063 0.030123 0.0
1.334524 0.012710 0.0
1.339146 -0.005560 0.0
1.351621 -0.021430 0.0
1.371223 -0.030880 0.0
1.395370 -0.030355 0.0
1.419847 -0.018316 0.0
1.440077 0.003723 0.0
1.453079 0.031889 0.0
1.458004 0.062532 0.0
1.455275 0.092683 0.0
1.445923 0.120101 0.0
1.431157 0.143226 0.0
1.412080 0.161020 0.0
1.389563 0.172787 0.0
1.364219 0.178081 0.0
1.336435 0.176692 0.0
1.306421 0.168725 0.0
1.274291 0.154750 0.0
1.240224 0.135940 0.0
1.204693 0.113998 0.0
1.168612 0.090780 0.0
1.133246 0.067791 0.0
1.099926 0.045954 0.0
1.069680 0.025559 0.0
1.043124 0.006737 0.0
1.020827 -0.010211 0.0
1.003045 -0.025097 0.0
0.989517 -0.037888 0.0
0.980002 -0.048583 0.0
0.974709 -0.057261 0.0
0.974513 -0.064015 0.0
0.980915 -0.068818 0.0
0.995683 -0.071193 0.0
1.020221 -0.070119 0.0
1.054979 -0.064345 0.0
1.099082 -0.052899 0.0
1.150006 -0.035573 0.0
1.202873 -0.013514 0.0
1.250709 0.011129 0.0
1.288022 0.035273 0.0
1.313364 0.056288 0.0
1.327346 0.073326 0.0
1.330859 0.085613 0.0
1.324950 0.092691 0.0
1.310776 0.094577 0.0
1.289690 0.091777 0.0
1.263262 0.085061 0.0
1.233152 0.075253 0.0
1.200967 0.063249 0.0
1.168259 0.050029 0.0
1.136327 0.036278 0.0
1.105949 0.022727 0.0
1.077849 0.010556 0.0
1.053303 0.000865 0.0
1.033409 -0.005760 0.0
1.018063 -0.009065 0.0
1.006101 -0.009251 0.0
0.995993 -0.007026 0.0
0.986378 -0.003436 0.0
0.976454 0.000320 0.0
0.966242 0.003119 0.0
0.956538 0.004117 0.0
0.948618 0.002860 0.0
0.943903 -0.000679 0.0
0.943709 -0.006116 0.0
0.948965 -0.012694 0.0
0.959993 -0.019472 0.0
0.976536 -0.025522 0.0
0.997891 -0.030082 0.0
1.023046 -0.032637 0.0
1.050766 -0.032938 0.0
1.079634 -0.031048 0.0
1.108060 -0.027380 0.0
1.134334 -0.022837 0.0
1.156731 -0.018800 0.0
1.173060 -0.021419 0.0
1.001232 -0.012904 0.0
1.006214 -0.039113 0.0
1.016483 -0.066612 0.0
1.032800 -0.096052 0.0
1.056484 -0.127656 0.0
1.089436 -0.160849 0.0
1.133909 -0.193635 0.0
1.191488 -0.221334 0.0
1.262822 -0.239114 0.0
1.336418 -0.224599 0.0
1.395933 -0.188829 0.0
1.437463 -0.145353 0.0
1.463544 -0.101248 0.0
1.477387 -0.059443 0.0
1.481345 -0.021489 0.0
1.477126 0.011537 0.0
1.466048 0.039119 0.0
1.449368 0.060481 0.0
1.428587 0.074899 0.0
1.405431 0.081871 0.0
1.381797 0.081231 0.0
1.359653 0.073223 0.0
1.340922 0.058543 0.0
1.327365 0.038310 0.0
1.320525 0.013902 0.0
1.322088 -0.012937 0.0
1.333679 -0.038120 0.0
1.355566 -0.055679 0.0
1.385729 -0.059866 0.0
1.419685 -0.047238 0.0
1.450793 -0.018693 0.0
1.472667 0.019430 0.0
1.482976 0.059756 0.0
1.482945 0.098219 0.0
1.474598 0.132264 0.0
1.459955 0.160472 0.0
1.440653 0.182152 0.0
1.417832 0.196993 0.0
1.392178 0.204875 0.0
1.364023 0.205837 0.0
1.333478 0.200138 0.0
1.300581 0.188364 0.0
1.265475 0.171500 0.0
1.228582 0.150863 0.0
1.190701 0.127877 0.0
1.152953 0.103807 0.0
1.116590 0.079621 0.0
1.082689 0.056039 0.0
1.051792 0.033710 0.0
1.023594 0.013312 0.0
0.997167 -0.004411 0.0
0.971548 -0.019426 0.0
0.946575 -0.032555 0.0
0.923673 -0.045094 0.0
0.905734 -0.058048 0.0
0.896307 -0.071759 0.0
0.898478 -0.085191 0.0
0.913900 -0.096081 0.0
0.942635 -0.101876 0.0
0.983604 -0.100440 0.0
1.035002 -0.090353 0.0
1.094423 -0.071022 0.0
1.158428 -0.043204 0.0
1.220803 -0.010083 0.0
1.273286 0.023819 0.0
1.311430 0.053669 0.0
1.335642 0.077545 0.0
1.347321 0.094988 0.0
1.347868 0.105907 0.0
1.338779 0.110624 0.0
1.321660 0.109761 0.0
1.298184 0.104138 0.0
1.270027 0.094707 0.0
1.238815 0.082493 0.0
1.206045 0.068516 0.0
1.173052 0.053862 0.0
1.140948 0.039625 0.0
1.110412 0.026879 0.0
1.081622 0.016910 0.0
1.054440 0.010793 0.0
1.028470 0.008823 0.0
1.003157 0.010321 0.0
0.978205 0.013785 0.0
0.953974 0.017254 0.0
0.931523 0.018849 0.0
0.912353 0.017261 0.0
0.898023 0.011966 0.0
0.889769 0.003185 0.0
0.888291 -0.008308 0.0
0.893706 -0.021174 0.0
0.905577 -0.033891 0.0
0.923080 -0.045150 0.0
0.945249 -0.053977 0.0
0.971086 -0.059733 0.0
0.999594 -0.062070 0.0
1.029733 -0.060922 0.0
1.060344 -0.056542 0.0
1.090022 -0.049627 0.0
1.117006 -0.041392 0.0
1.137520 -0.035670 0.0
1.000959 -0.015095 0.0
1.004875 -0.045819 0.0
1.013126 -0.078426 0.0
1.026759 -0.114188 0.0
1.047702 -0.154146 0.0
1.079089 -0.198698 0.0
1.125506 -0.246677 0.0
1.192064 -0.292429 0.0
1.287162 -0.334452 0.0
1.383848 -0.299545 0.0
1.447092 -0.236642 0.0
1.481437 -0.173415 0.0
1.498250 -0.116082 0.0
1.504173 -0.064375 0.0
1.501823 -0.018166 0.0
1.491895 0.022361 0.0
1.474707 0.056562 0.0
1.451161 0.083264 0.0
1.422684 0.101374 0.0
1.391121 0.110113 0.0
1.358597 0.109147 0.0
1.327357 0.098691 0.0
1.299589 0.079573 0.0
1.277177 0.053250 0.0
1.261353 0.021625 0.0
1.253005 -0.013875 0.0
1.254489 -0.050258 0.0
1.268408 -0.079346 0.0
1.295362 -0.093316 0.0
1.333699 -0.086080 0.0
1.377956 -0.055216 0.0
1.417700 -0.005665 0.0
1.443699 0.048543 0.0
1.454984 0.098179 0.0
1.455022 0.140613 0.0
1.446817 0.174971 0.0
1.432540 0.201232 0.0
1.413605 0.219669 0.0
1.390852 0.230606 0.0
1.364737 0.234377 0.0
1.335489 0.231391 0.0
1.303271 0.222226 0.0
1.268329 0.207686 0.0
1.231124 0.188773 0.0
1.192409 0.166563 0.0
1.153193 0.142086 0.0
1.114562 0.116337 0.0
1.077307 0.090478 0.0
1.041418 0.066057 0.0
1.005765 0.044814 0.0
0.968475 0.027803 0.0
0.928206 0.014248 0.0
0.885869 0.001081 0.0
0.845623 -0.015582 0.0
0.814055 -0.038053 0.0
0.796878 -0.065151 0.0
0.796075 -0.093167 0.0
0.810480 -0.117931 0.0
0.837838 -0.136119 0.0
0.876101 -0.145429 0.0
0.923689 -0.144350 0.0
0.979240 -0.131998 0.0
1.041220 -0.108213 0.0
1.107565 -0.073794 0.0
1.174470 -0.031859 0.0
1.234295 0.011379 0.0
1.280228 0.049690 0.0
1.311204 0.080188 0.0
1.328678 0.102685 0.0
1.334201 0.117411 0.0
1.329388 0.124905 0.0
1.315899 0.125958 0.0
1.295397 0.121546 0.0
1.269495 0.112769 0.0
1.239694 0.100810 0.0
1.207314 0.086942 0.0
1.173399 0.072563 0.0
1.138636 0.059239 0.0
1.103364 0.048611 0.0
1.067690 0.041949 0.0
1.031700 0.039628 0.0
0.995770 0.040759 0.0
0.960807 0.043262 0.0
0.928281 0.044533 0.0
0.900009 0.042293 0.0
0.877752 0.035245 0.0
0.862790 0.023274 0.0
0.855678 0.007244 0.0
0.856196 -0.011407 0.0
0.863524 -0.030817 0.0
0.876575 -0.049169 0.0
0.894269 -0.065070 0.0
0.915622 -0.077579 0.0
0.939763 -0.086109 0.0
0.965896 -0.090335 0.0
0.993238 -0.090140 0.0
1.020919 -0.085616 0.0
1.047827 -0.077140 0.0
1.072438 -0.065474 0.0
1.091633 -0.051296 0.0
1.000554 -0.016609 0.0
1.002837 -0.050504 0.0
1.007799 -0.086954 0.0
1.016510 -0.128004 0.0
1.031159 -0.175922 0.0
1.055883 -0.233032 0.0
1.098109 -0.300986 0.0
1.169368 -0.375937 0.0
1.297725 -0.474398 0.0
1.416713 -0.375273 0.0
1.458512 -0.265956 0.0
1.463158 -0.183091 0.0
1.458053 -0.118114 0.0
1.451410 -0.061623 0.0
1.442444 -0.009603 0.0
1.427973 0.038198 0.0
1.406237 0.079647 0.0
1.377292 0.112671 0.0
1.342154 0.135582 0.0
1.302428 0.147194 0.0
1.260100 0.146919 0.0
1.217366 0.134893 0.0
1.176412 0.112094 0.0
1.139150 0.080404 0.0
1.106822 0.042623 0.0
1.079083 0.001214 0.0
1.057278 -0.045026 0.0
1.047789 -0.089008 0.0
1.057880 -0.120700 0.0
1.090868 -0.130022 0.0
1.144634 -0.109297 0.0
1.210835 -0.057528 0.0
1.272420 0.012821 0.0
1.315899 0.079136 0.0
1.341970 0.133547 0.0
1.355445 0.176767 0.0
1.359241 0.209916 0.0
1.355140 0.234021 0.0
1.344277 0.249870 0.0
1.327435 0.258071 0.0
1.305212 0.259167 0.0
1.278140 0.253739 0.0
1.246780 0.242474 0.0
1.211810 0.226160 0.0
1.174061 0.205641 0.0
1.134445 0.181839 0.0
1.093655 0.156005 0.0
1.051529 0.130191 0.0
1.006457 0.107305 0.0
0.955890 0.089786 0.0
0.898820 0.077191 0.0
0.838834 0.065115 0.0
0.784177 0.047208 0.0
0.743542 0.019172 0.0
0.721222 -0.018919 0.0
0.716424 -0.062309 0.0
0.725715 -0.104496 0.0
0.745500 -0.140792 0.0
0.773385 -0.168502 0.0
0.808160 -0.186084 0.0
0.849351 -0.192474 0.0
0.896768 -0.186842 0.0
0.950108 -0.168690 0.0
1.008639 -0.138193 0.0
1.070928 -0.096654 0.0
1.134355 -0.047078 0.0
1.192826 0.003742 0.0
1.239440 0.048546 0.0
1.272072 0.084220 0.0
1.291706 0.110720 0.0
1.299652 0.128464 0.0
1.297358 0.138182 0.0
1.286330 0.140852 0.0
1.268054 0.137640 0.0
1.243925 0.129868 0.0
1.215165 0.119023 0.0
1.182764 0.106798 0.0
1.147448 0.095083 0.0
1.109749 0.085736 0.0
1.070189 0.080058 0.0
1.029528 0.078170 0.0
0.988999 0.078674 0.0
0.950368 0.078940 0.0
0.915728 0.076021 0.0
0.887088 0.067716 0.0
0.865930 0.053236 0.0
0.852940 0.033234 0.0
0.847983 0.009352 0.0
0.850265 -0.016316 0.0
0.858602 -0.041573 0.0
0.871743 -0.064606 0.0
0.888564 -0.084147 0.0
0.908103 -0.099394 0.0
0.929556 -0.109886 0.0
0.952238 -0.115373 0.0
0.975525 -0.115731 0.0
0.998752 -0.110931 0.0
1.021075 -0.101056 0.0
1.041318 -0.086411 0.0
1.057356 -0.065592 0.0
1.000011 -0.017175 0.0
1.000070 -0.052280 0.0
1.000368 -0.090438 0.0
1.001545 -0.134408 0.0
1.005206 -0.187830 0.0
1.015135 -0.255776 0.0
1.040086 -0.345420 0.0
1.099434 -0.462111 0.0
1.257714 -0.674862 0.0
1.369804 -0.405887 0.0
1.331934 -0.239272 0.0
1.273649 -0.156136 0.0
1.234618 -0.100934 0.0
1.215317 -0.052858 0.0
1.205868 0.000048 0.0
1.194613 0.054275 0.0
1.176404 0.103515 0.0
1.149782 0.144369 0.0
1.114463 0.174342 0.0
1.070929 0.191694 0.0
1.020129 0.195546 0.0
0.963047 0.186082 0.0
0.900260 0.164646 0.0
0.832479 0.132895 0.0
0.763275 0.091663 0.0
0.701943 0.041245 0.0
0.658899 -0.020207 0.0
0.643880 -0.089320 0.0
0.662055 -0.148654 0.0
0.709690 -0.182690 0.0
0.780626 -0.181331 0.0
0.869581 -0.140650 0.0
0.969694 -0.065755 0.0
1.062885 0.021042 0.0
1.133404 0.095053 0.0
1.182865 0.152325 0.0
1.216755 0.196672 0.0
1.237814 0.230308 0.0
1.247713 0.254546 0.0
1.247706 0.270244 0.0
1.238865 0.278058 0.0
1.222186 0.278601 0.0
1.198629 0.272529 0.0
1.169138 0.260565 0.0
1.134577 0.243547 0.0
1.095468 0.222658 0.0
1.051480 0.199966 0.0
1.001070 0.178765 0.0
0.942415 0.162458 0.0
0.876140 0.151475 0.0
0.807903 0.140809 0.0
0.747425 0.121961 0.0
0.703705 0.088738 0.0
0.680594 0.041389 0.0
0.676202 -0.014424 0.0
0.685212 -0.071017 0.0
0.702432 -0.122299 0.0
0.724781 -0.165122 0.0
0.750846 -0.198123 0.0
0.780265 -0.220656 0.0
0.813326 -0.232154 0.0
0.850646 -0.231899 0.0
0.892816 -0.219142 0.0
0.940046 -0.193502 0.0
0.991896 -0.155483 0.0
1.047123 -0.106903 0.0
1.103463 -0.051244 0.0
1.155791 0.004592 0.0
1.198194 0.053139 0.0
1.228532 0.091830 0.0
1.247249 0.120692 0.0
1.255254 0.140243 0.0
1.253688 0.151385 0.0
1.243765 0.155306 0.0
1.226670 0.153428 0.0
1.203476 0.147416 0.0
1.175097 0.139185 0.0
1.142308 0.130803 0.0
1.105864 0.124159 0.0
1.066709 0.120351 0.0
1.026186 0.119061 0.0
0.986143 0.118355 0.0
0.948792 0.115241 0.0
0.916344 0.106808 0.0
0.890566 0.091348 0.0
0.872462 0.068867 0.0
0.862211 0.040846 0.0
0.859321 0.009587 0.0
0.862839 -0.022351 0.0
0.871565 -0.052600 0.0
0.884273 -0.079428 0.0
0.899841 -0.101714 0.0
0.917302 -0.118827 0.0
0.935863 -0.130467 0.0
0.954897 -0.136510 0.0
0.973902 -0.136887 0.0
0.992412 -0.131512 0.0
1.009874 -0.120260 0.0
1.025521 -0.103097 0.0
1.038028 -0.077453 0.0
0.999382 -0.016568 0.0
0.996839 -0.050402 0.0
0.991539 -0.087314 0.0
0.983170 -0.130339 0.0
0.971527 -0.183918 0.0
0.957220 -0.255310 0.0
0.944038 -0.357656 0.0
0.947666 -0.512851 0.0
1.053747 -0.888483 0.0
1.059427 -0.200643 0.0
0.876507 -0.103001 0.0
0.741059 -0.087341 0.0
0.677578 -0.067217 0.0
0.658641 -0.048336 0.0
0.670555 -0.006941 0.0
0.689008 0.054065 0.0
0.698514 0.112428 0.0
0.695451 0.165140 0.0
0.675847 0.208494 0.0
0.637174 0.239749 0.0
0.578343 0.257121 0.0
0.500723 0.259209 0.0
0.410586 0.244441 0.0
0.321483 0.209984 0.0
0.252153 0.153107 0.0
0.218301 0.074986 0.0
0.226192 -0.018794 0.0
0.266022 -0.115545 0.0
0.322460 -0.197043 0.0
0.390068 -0.249544 0.0
0.469169 -0.264513 0.0
0.561055 -0.238309 0.0
0.666082 -0.173237 0.0
0.781193 -0.079779 0.0
0.889938 0.016610 0.0
0.975840 0.095405 0.0
1.039668 0.155873 0.0
1.086554 0.203163 0.0
1.118795 0.239551 0.0
1.137854 0.266188 0.0
1.144985 0.283824 0.0
1.141379 0.293120 0.0
1.128172 0.294775 0.0
1.106362 0.289619 0.0
1.076614 0.278802 0.0
1.038889 0.264235 0.0
0.992259 0.249007 0.0
0.935733 0.236660 0.0
0.870608 0.228344 0.0
0.802816 0.219657 0.0
0.742198 0.201483 0.0
0.697994 0.165970 0.0
0.674238 0.112206 0.0
0.669102 0.046168 0.0
0.677550 -0.023258 0.0
0.694184 -0.087828 0.0
0.714993 -0.143517 0.0
0.737645 -0.188904 0.0
0.761001 -0.223763 0.0
0.784823 -0.248257 0.0
0.809614 -0.262406 0.0
0.836436 -0.265789 0.0
0.866578 -0.257564 0.0
0.901122 -0.236853 0.0
0.940520 -0.203381 0.0
0.984368 -0.158080 0.0
1.031380 -0.103419 0.0
1.079323 -0.043504 0.0
1.123595 0.014560 0.0
1.159494 0.064173 0.0
1.185392 0.103735 0.0
1.201320 0.133266 0.0
1.207824 0.153425 0.0
1.205699 0.165314 0.0
1.195824 0.170389 0.0
1.179056 0.170416 0.0
1.156204 0.167417 0.0
1.128072 0.163491 0.0
1.095612 0.160374 0.0
1.060111 0.158793 0.0
1.023319 0.157933 0.0
0.987392 0.155453 0.0
0.954604 0.148282 0.0
0.926937 0.133882 0.0
0.905728 0.111261 0.0
0.891550 0.081235 0.0
0.884316 0.045963 0.0
0.883466 0.008209 0.0
0.888113 -0.029137 0.0
0.897148 -0.063575 0.0
0.909398 -0.093411 0.0
0.923743 -0.117644 0.0
0.939198 -0.135813 0.0
0.954967 -0.147811 0.0
0.970466 -0.153699 0.0
0.985302 -0.153539 0.0
0.999209 -0.147276 0.0
1.011937 -0.134685 0.0
1.023141 -0.115522 0.0
1.032102 -0.086495 0.0
0.998776 -0.014726 0.0
0.993723 -0.044648 0.0
0.982964 -0.077008 0.0
0.965030 -0.114342 0.0
0.937206 -0.160448 0.0
0.894514 -0.221780 0.0
0.827223 -0.310713 0.0
0.716461 -0.452660 0.0
0.323560 -0.771245 0.0
-0.484322 0.277429 0.0
-0.484322 0.000000 0.0
-0.031746 -0.021781 0.0
-0.044166 -0.066841 0.0
0.014746 -0.088687 0.0
0.105487 -0.069246 0.0
0.191211 0.012194 0.0
0.241548 0.094457 0.0
0.258792 0.168930 0.0
0.248898 0.234202 0.0
0.214487 0.287126 0.0
0.159729 0.323334 0.0
0.093750 0.336595 0.0
0.030515 0.320427 0.0
-0.015229 0.268845 0.0
-0.033251 0.181598 0.0
-0.020344 0.067440 0.0
0.020065 -0.059547 0.0
0.075316 -0.169872 0.0
0.134488 -0.258326 0.0
0.197149 -0.318530 0.0
0.266501 -0.343980 0.0
0.346452 -0.330681 0.0
0.439616 -0.279057 0.0
0.545964 -0.195418 0.0
0.661698 -0.092230 0.0
0.771873 0.008169 0.0
0.861072 0.090082 0.0
0.928949 0.154191 0.0
0.979850 0.205381 0.0
1.015645 0.245503 0.0
1.037570 0.275453 0.0
1.046727 0.295938 0.0
1.044126 0.307766 0.0
1.030530 0.312034 0.0
1.006218 0.310449 0.0
0.970856 0.305675 0.0
0.924105 0.300948 0.0
0.867428 0.297922 0.0
0.806192 0.293441 0.0
0.749595 0.278947 0.0
0.707065 0.245341 0.0
0.683653 0.189727 0.0
0.678597 0.117261 0.0
0.687600 0.037245 0.0
0.705418 -0.040601 0.0
0.727547 -0.109249 0.0
0.750982 -0.166341 0.0
0.773832 -0.211582 0.0
0.794994 -0.245604 0.0
0.814108 -0.269351 0.0
0.831590 -0.283584 0.0
0.848616 -0.288459 0.0
0.866927 -0.283348 0.0
0.888386 -0.267073 0.0
0.914414 -0.238588 0.0
0.945524 -0.197831 0.0
0.981171 -0.146325 0.0
1.019880 -0.087250 0.0
1.059235 -0.025322 0.0
1.095121 0.032269 0.0
1.124012 0.080848 0.0
1.144759 0.119477 0.0
1.157147 0.148322 0.0
1.161436 0.168253 0.0
1.158117 0.180646 0.0
1.147778 0.187264 0.0
1.131084 0.190114 0.0
1.108843 0.191167 0.0
1.082146 0.191855 0.0
1.052505 0.192453 0.0
1.021865 0.191705 0.0
0.992410 0.187065 0.0
0.966200 0.175668 0.0
0.944807 0.155556 0.0
0.929125 0.126477 0.0
0.919426 0.089896 0.0
0.915535 0.048429 0.0
0.916972 0.005156 0.0
0.922959 -0.036719 0.0
0.932469 -0.074539 0.0
0.944375 -0.106603 0.0
0.957579 -0.132001 0.0
0.971108 -0.150440 0.0
0.984185 -0.162030 0.0
0.996276 -0.167070 0.0
1.007097 -0.165826 0.0
1.016575 -0.158373 0.0
1.024753 -0.144494 0.0
1.031679 -0.123845 0.0
1.037134 -0.092589 0.0
0.998323 -0.011826 0.0
0.991414 -0.035587 0.0
0.976678 -0.060574 0.0
0.951953 -0.088118 0.0
0.913061 -0.119955 0.0
0.851932 -0.158451 0.0
0.751745 -0.206564 0.0
0.572330 -0.266633 0.0
0.227822 -0.323496 0.0
0.000000 0.277429 0.0
-0.000000 -0.000000 0.0
0.000000 0.000000 0.0
-0.042262 -0.043083 0.0
-0.086309 -0.126489 0.0
-0.085387 -0.123108 0.0
-0.069578 -0.035477 0.0
-0.047970 0.070184 0.0
-0.039446 0.167435 0.0
-0.047603 0.253749 0.0
-0.070139 0.324526 0.0
-0.101203 0.371756 0.0
-0.132190 0.385138 0.0
-0.153387 0.356317 0.0
-0.155675 0.280987 0.0
-0.132198 0.164001 0.0
-0.084480 0.024412 0.0
-0.025358 -0.116051 0.0
0.032248 -0.226227 0.0
0.084349 -0.313245 0.0
0.132879 -0.374802 0.0
0.182410 -0.406592 0.0
0.239229 -0.404839 0.0
0.309004 -0.367836 0.0
0.394239 -0.298221 0.0
0.493044 -0.203965 0.0
0.599707 -0.096935 0.0
0.700929 0.004765 0.0
0.783950 0.088610 0.0
0.847937 0.156074 0.0
0.895979 0.210973 0.0
0.929389 0.254649 0.0
0.949037 0.287936 0.0
0.955583 0.311823 0.0
0.949387 0.327768 0.0
0.930460 0.337954 0.0
0.898882 0.345110 0.0
0.856084 0.351062 0.0
0.806582 0.353987 0.0
0.758424 0.346770 0.0
0.720743 0.319896 0.0
0.699597 0.268068 0.0
0.695742 0.194267 0.0
0.706005 0.107515 0.0
0.725976 0.018017 0.0
0.751087 -0.064302 0.0
0.777595 -0.134185 0.0
0.803163 -0.190408 0.0
0.826190 -0.233391 0.0
0.845629 -0.264395 0.0
0.860995 -0.285041 0.0
0.872483 -0.296864 0.0
0.881092 -0.300814 0.0
0.888640 -0.296851 0.0
0.897491 -0.283880 0.0
0.909961 -0.260278 0.0
0.927622 -0.224912 0.0
0.950855 -0.178124 0.0
0.978837 -0.122142 0.0
1.009856 -0.060804 0.0
1.041151 0.000569 0.0
1.069247 0.055561 0.0
1.091707 0.101558 0.0
1.107565 0.137995 0.0
1.116509 0.165346 0.0
1.118602 0.184781 0.0
1.114137 0.197933 0.0
1.103619 0.206658 0.0
1.087825 0.212660 0.0
1.067919 0.216966 0.0
1.045505 0.219397 0.0
1.022524 0.218381 0.0
1.000971 0.211397 0.0
0.982528 0.195989 0.0
0.968310 0.170847 0.0
0.958833 0.136344 0.0
0.954170 0.094391 0.0
0.954124 0.047871 0.0
0.958299 0.000101 0.0
0.965973 -0.045325 0.0
0.976137 -0.085608 0.0
0.987727 -0.119030 0.0
0.999718 -0.144769 0.0
1.011210 -0.162694 0.0
1.021505 -0.173148 0.0
1.030155 -0.176693 0.0
1.036997 -0.173866 0.0
1.042136 -0.164950 0.0
1.045880 -0.149838 0.0
1.048632 -0.128178 0.0
1.050613 -0.095691 0.0
0.998112 -0.008262 0.0
0.990368 -0.024498 0.0
0.973991 -0.040550 0.0
0.946923 -0.056349 0.0
0.905449 -0.071357 0.0
0.843393 -0.083865 0.0
0.751290 -0.088861 0.0
0.617822 -0.071453 0.0
0.441343 0.008073 0.0
0.171678 0.153508 0.0
0.000000 0.000000 0.0
-0.000000 -0.000000 0.0
0.000000 0.000000 0.0
-0.060299 -0.062352 0.0
-0.131850 -0.114561 0.0
-0.152909 -0.038776 0.0
-0.165486 0.064452 0.0
-0.169310 0.168467 0.0
-0.172343 0.263906 0.0
-0.177208 0.341769 0.0
-0.181799 0.390169 0.0
-0.180822 0.396736 0.0
-0.167995 0.353088 0.0
-0.135349 0.253857 0.0
-0.072836 0.105142 0.0
0.004807 -0.042089 0.0
0.070082 -0.173947 0.0
0.120750 -0.276605 0.0
0.161647 -0.355865 0.0
0.192895 -0.411958 0.0
0.217835 -0.443907 0.0
0.243363 -0.449872 0.0
0.278111 -0.427325 0.0
0.329125 -0.374982 0.0
0.398595 -0.295480 0.0
0.482941 -0.196429 0.0
0.574700 -0.088721 0.0
0.661394 0.012380 0.0
0.732851 0.096859 0.0
0.788231 0.166767 0.0
0.829127 0.224549 0.0
0.856162 0.271353 0.0
0.869612 0.308411 0.0
0.869561 0.337427 0.0
0.856252 0.360531 0.0
0.830964 0.379399 0.0
0.797313 0.393222 0.0
0.761915 0.396726 0.0
0.733002 0.381102 0.0
0.717110 0.339139 0.0
0.716439 0.270642 0.0
0.729211 0.182776 0.0
0.751992 0.085963 0.0
0.780894 -0.009303 0.0
0.811798 -0.092997 0.0
0.841558 -0.161758 0.0
0.868309 -0.215155 0.0
0.890777 -0.254139 0.0
0.908129 -0.280437 0.0
0.919942 -0.296179 0.0
0.926268 -0.303540 0.0
0.927810 -0.304289 0.0
0.926118 -0.299232 0.0
0.923592 -0.287823 0.0
0.923099 -0.268311 0.0
0.927210 -0.238652 0.0
0.937420 -0.197827 0.0
0.953788 -0.146788 0.0
0.975121 -0.088511 0.0
0.999425 -0.027324 0.0
1.023789 0.030994 0.0
1.045372 0.082082 0.0
1.062519 0.124466 0.0