# vtk DataFile Version 3.0
Vector Field
ASCII
DATASET RECTILINEAR_GRID
DIMENSIONS 100 26 1
X_COORDINATES 100 double
0.050000 0.150000 0.250000 0.350000 0.450000 0.550000 0.650000 0.750000 0.850000 0.950000 1.050000 1.150000 1.250000 1.350000 1.450000 1.550000 1.650000 1.750000 1.850000 1.950000 2.050000 2.150000 2.250000 2.350000 2.450000 2.550000 2.650000 2.750000 2.850000 2.950000 3.050000 3.150000 3.250000 3.350000 3.450000 3.550000 3.650000 3.750000 3.850000 3.950000 4.050000 4.150000 4.250000 4.350000 4.450000 4.550000 4.650000 4.750000 4.850000 4.950000 5.050000 5.150000 5.250000 5.350000 5.450000 5.550000 5.650000 5.750000 5.850000 5.950000 6.050000 6.150000 6.250000 6.350000 6.450000 6.550000 6.650000 6.750000 6.850000 6.950000 7.050000 7.150000 7.250000 7.350000 7.450000 7.550000 7.650000 7.750000 7.850000 7.950000 8.050000 8.150000 8.250000 8.350000 8.450000 8.550000 8.650000 8.750000 8.850000 8.950000 9.050000 9.150000 9.250000 9.350000 9.450000 9.550000 9.650000 9.750000 9.850000 9.950000 
Y_COORDINATES 26 double
0.050000 0.150000 0.250000 0.350000 0.450000 0.550000 0.650000 0.750000 0.850000 0.950000 1.050000 1.150000 1.250000 1.350000 1.450000 1.550000 1.650000 1.750000 1.850000 1.950000 2.050000 2.150000 2.250000 2.350000 2.450000 2.550000 
Z_COORDINATES 1 double
0.0
POINT_DATA 2600
VECTORS Vektorfeld double
0.997627 0.002373 0.0
0.992679 0.002575 0.0
0.988883 0.001221 0.0
0.988461 -0.000799 0.0
0.992365 -0.003105 0.0
1.000912 -0.005443 0.0
1.013931 -0.007576 0.0
1.030770 -0.009263 0.0
1.050320 -0.010288 0.0
1.071131 -0.010523 0.0
1.091640 -0.009986 0.0
1.110453 -0.008827 0.0
1.126535 -0.007254 0.0
1.139256 -0.005467 0.0
1.148338 -0.003615 0.0
1.153738 -0.001786 0.0
1.155589 -0.000064 0.0
1.154077 0.001576 0.0
1.149206 0.003296 0.0
1.140689 0.005221 0.0
1.128042 0.007427 0.0
1.110681 0.009934 0.0
1.088054 0.012693 0.0
1.059767 0.015594 0.0
1.025694 0.018479 0.0
0.986041 0.021173 0.0
0.941363 0.023505 0.0
0.892536 0.025321 0.0
0.840723 0.026493 0.0
0.787309 0.026921 0.0
0.733853 0.026536 0.0
0.682013 0.025303 0.0
0.633488 0.023223 0.0
0.589925 0.020340 0.0
0.552838 0.016746 0.0
0.523586 0.012506 0.0
0.503619 0.007461 0.0
0.494721 0.001437 0.0
0.497183 -0.003899 0.0
0.508399 -0.007317 0.0
0.524705 -0.008989 0.0
0.543024 -0.009330 0.0
0.561014 -0.008660 0.0
0.576872 -0.007198 0.0
0.589242 -0.005172 0.0
0.597296 -0.002882 0.0
0.600670 -0.000492 0.0
0.598501 0.002661 0.0
0.589247 0.006593 0.0
0.571789 0.010864 0.0
0.545904 0.015021 0.0
0.512291 0.018592 0.0
0.472744 0.020956 0.0
0.430523 0.021265 0.0
0.390470 0.018788 0.0
0.357938 0.013744 0.0
0.336500 0.007693 0.0
0.326166 0.002641 0.0
0.323839 -0.000315 0.0
0.325677 -0.001523 0.0
0.329375 -0.002175 0.0
0.334330 -0.002780 0.0
0.340251 -0.003140 0.0
0.346542 -0.003151 0.0
0.352595 -0.002903 0.0
0.357970 -0.002472 0.0
0.362364 -0.001923 0.0
0.365589 -0.001302 0.0
0.367522 -0.000631 0.0
0.367978 0.000175 0.0
0.366501 0.001302 0.0
0.362670 0.002529 0.0
0.356604 0.003537 0.0
0.348936 0.004130 0.0
0.340621 0.004185 0.0
0.332755 0.003682 0.0
0.326340 0.002733 0.0
0.322036 0.001572 0.0
0.319972 0.000491 0.0
0.319738 -0.000258 0.0
0.320429 -0.000433 0.0
0.321033 -0.000171 0.0
0.320791 0.000413 0.0
0.319263 0.001114 0.0
0.316462 0.001687 0.0
0.312813 0.001963 0.0
0.308948 0.001902 0.0
0.305457 0.001589 0.0
0.302698 0.001170 0.0
0.300765 0.000762 0.0
0.299700 0.000303 0.0
0.299641 -0.000244 0.0
0.300549 -0.000663 0.0
0.302167 -0.000955 0.0
0.304246 -0.001123 0.0
0.306485 -0.001115 0.0
0.308503 -0.000903 0.0
0.309917 -0.000510 0.0
0.310500 -0.000073 0.0
0.310210 0.000362 0.0
1.002918 0.001829 0.0
1.011253 -0.000268 0.0
1.024053 -0.004941 0.0
1.040753 -0.010915 0.0
1.061349 -0.017488 0.0
1.085819 -0.024077 0.0
1.113913 -0.030055 0.0
1.145025 -0.034735 0.0
1.178140 -0.037480 0.0
1.211884 -0.037885 0.0
1.244772 -0.036021 0.0
1.275545 -0.032379 0.0
1.303378 -0.027617 0.0
1.327896 -0.022344 0.0
1.349075 -0.016998 0.0
1.367080 -0.011809 0.0
1.382029 -0.006840 0.0
1.393824 -0.001933 0.0
1.402244 0.003255 0.0
1.406939 0.009084 0.0
1.407328 0.015822 0.0
1.402700 0.023527 0.0
1.392382 0.032045 0.0
1.375888 0.041023 0.0
1.353036 0.049975 0.0
1.324007 0.058359 0.0
1.289351 0.065655 0.0
1.249953 0.071396 0.0
1.206983 0.075200 0.0
1.161838 0.076771 0.0
1.116078 0.075902 0.0
1.071370 0.072484 0.0
1.029421 0.066517 0.0
0.991896 0.058133 0.0
0.960349 0.047588 0.0
0.936079 0.035186 0.0
0.919661 0.021166 0.0
0.910146 0.006145 0.0
0.906378 -0.007302 0.0
0.908420 -0.017172 0.0
0.916590 -0.023610 0.0
0.930733 -0.027172 0.0
0.950144 -0.028219 0.0
0.973491 -0.026844 0.0
0.998625 -0.023030 0.0
1.022372 -0.016826 0.0
1.040805 -0.008355 0.0
1.051077 0.002422 0.0
1.052082 0.015083 0.0
1.043402 0.028512 0.0
1.025296 0.041364 0.0
0.998907 0.052251 0.0
0.966151 0.059600 0.0
0.929294 0.061699 0.0
0.890241 0.057460 0.0
0.850089 0.047757 0.0
0.809528 0.035678 0.0
0.769970 0.024549 0.0
0.734518 0.015556 0.0
0.707599 0.007687 0.0
0.692430 0.000086 0.0
0.688481 -0.006048 0.0
0.692460 -0.009772 0.0
0.701356 -0.011706 0.0
0.713442 -0.012487 0.0
0.727520 -0.012339 0.0
0.742456 -0.011386 0.0
0.757055 -0.009662 0.0
0.770031 -0.007179 0.0
0.780281 -0.003984 0.0
0.787549 -0.000330 0.0
0.792370 0.003170 0.0
0.795308 0.006025 0.0
0.796826 0.007793 0.0
0.797418 0.008245 0.0
0.797455 0.007451 0.0
0.797024 0.005809 0.0
0.795878 0.003947 0.0
0.793518 0.002539 0.0
0.789364 0.002083 0.0
0.783094 0.002806 0.0
0.774679 0.004400 0.0
0.764346 0.006417 0.0
0.752718 0.008267 0.0
0.740674 0.009379 0.0
0.729201 0.009392 0.0
0.719249 0.008291 0.0
0.711548 0.006393 0.0
0.706506 0.004167 0.0
0.704243 0.001960 0.0
0.704508 -0.000095 0.0
0.706481 -0.001760 0.0
0.709368 -0.002941 0.0
0.712875 -0.003804 0.0
0.716932 -0.004410 0.0
0.721395 -0.004530 0.0
0.725879 -0.003992 0.0
0.729784 -0.002739 0.0
0.732286 -0.000929 0.0
0.732931 0.000863 0.0
1.001825 -0.002914 0.0
1.008316 -0.010352 0.0
1.020092 -0.019433 0.0
1.036669 -0.029700 0.0
1.057986 -0.040617 0.0
1.084058 -0.051490 0.0
1.114706 -0.061384 0.0
1.149319 -0.069133 0.0
1.186678 -0.073556 0.0
1.224898 -0.073772 0.0
1.261851 -0.069975 0.0
1.295872 -0.063220 0.0
1.326071 -0.054807 0.0
1.352246 -0.045848 0.0
1.374661 -0.037088 0.0
1.393806 -0.028870 0.0
1.410214 -0.021135 0.0
1.424293 -0.013512 0.0
1.436146 -0.005440 0.0
1.445514 0.003717 0.0
1.451826 0.014489 0.0
1.454285 0.027028 0.0
1.452066 0.041081 0.0
1.444516 0.056032 0.0
1.431301 0.071033 0.0
1.412462 0.085168 0.0
1.388396 0.097569 0.0
1.359790 0.107486 0.0
1.327554 0.114316 0.0
1.292755 0.117600 0.0
1.256564 0.117024 0.0
1.220207 0.112426 0.0
1.184913 0.103819 0.0
1.151842 0.091426 0.0
1.121990 0.075693 0.0
1.096037 0.057304 0.0
1.074195 0.037309 0.0
1.056340 0.017371 0.0
1.042585 -0.001006 0.0
1.033857 -0.016781 0.0
1.031414 -0.029728 0.0
1.036122 -0.039906 0.0
1.048295 -0.047068 0.0
1.067507 -0.050554 0.0
1.092516 -0.049462 0.0
1.121308 -0.042933 0.0
1.151160 -0.030534 0.0
1.178561 -0.013072 0.0
1.200251 0.007881 0.0
1.214389 0.030255 0.0
1.220221 0.051895 0.0
1.217679 0.070652 0.0
1.207199 0.084435 0.0
1.189398 0.091522 0.0
1.164822 0.091265 0.0
1.134155 0.084771 0.0
1.098888 0.074493 0.0
1.061616 0.062564 0.0
1.025099 0.049510 0.0
0.990621 0.035130 0.0
0.957934 0.020501 0.0
0.927909 0.007512 0.0
0.903788 -0.003191 0.0
0.888126 -0.011520 0.0
0.880535 -0.017168 0.0
0.879215 -0.020415 0.0
0.882598 -0.021629 0.0
0.889496 -0.020917 0.0
0.898974 -0.018378 0.0
0.910262 -0.014323 0.0
0.922509 -0.009505 0.0
0.934787 -0.004754 0.0
0.946564 -0.000767 0.0
0.957776 0.001855 0.0
0.968509 0.002858 0.0
0.978856 0.002455 0.0
0.988809 0.001283 0.0
0.998231 0.000197 0.0
1.006883 -0.000004 0.0
1.014510 0.001154 0.0
1.020847 0.003667 0.0
1.025587 0.007214 0.0
1.028398 0.011126 0.0
1.028919 0.014665 0.0
1.026756 0.017188 0.0
1.021558 0.018254 0.0
1.013114 0.017824 0.0
1.001485 0.016191 0.0
0.987144 0.013752 0.0
0.970989 0.010793 0.0
0.954296 0.007501 0.0
0.938937 0.004030 0.0
0.927031 0.000286 0.0
0.919967 -0.003474 0.0
0.917686 -0.006515 0.0
0.919135 -0.008337 0.0
0.923221 -0.008755 0.0
0.928891 -0.007551 0.0
0.934795 -0.004525 0.0
0.937865 0.000744 0.0
1.001438 -0.006176 0.0
1.007002 -0.019145 0.0
1.017838 -0.033252 0.0
1.033908 -0.048527 0.0
1.055456 -0.064653 0.0
1.082827 -0.080896 0.0
1.116190 -0.095988 0.0
1.155125 -0.108077 0.0
1.198238 -0.115085 0.0
1.242644 -0.114869 0.0
1.284804 -0.107990 0.0
1.322298 -0.096720 0.0
1.354248 -0.083455 0.0
1.380872 -0.069998 0.0
1.402962 -0.057443 0.0
1.421533 -0.046232 0.0
1.437581 -0.036230 0.0
1.451883 -0.026798 0.0
1.464786 -0.016910 0.0
1.476027 -0.005422 0.0
1.484792 0.008551 0.0
1.489955 0.025343 0.0
1.490370 0.044569 0.0
1.485209 0.065255 0.0
1.474140 0.086094 0.0
1.457348 0.105738 0.0
1.435423 0.122990 0.0
1.409201 0.136893 0.0
1.379622 0.146724 0.0
1.347643 0.151970 0.0
1.314189 0.152299 0.0
1.280134 0.147563 0.0
1.246286 0.137825 0.0
1.213374 0.123403 0.0
1.182030 0.104912 0.0
1.152770 0.083297 0.0
1.126062 0.059865 0.0
1.102551 0.036182 0.0
1.083141 0.013350 0.0
1.068957 -0.008224 0.0
1.061278 -0.028163 0.0
1.061194 -0.046095 0.0
1.069271 -0.061129 0.0
1.085443 -0.071876 0.0
1.109079 -0.076785 0.0
1.139124 -0.074447 0.0
1.174078 -0.063826 0.0
1.211659 -0.044761 0.0
1.248279 -0.018740 0.0
1.279716 0.011300 0.0
1.303300 0.041435 0.0
1.318301 0.068653 0.0
1.324617 0.090599 0.0
1.322253 0.105523 0.0
1.311341 0.112752 0.0
1.292400 0.112891 0.0
1.266651 0.107389 0.0
1.235929 0.097663 0.0
1.202137 0.084721 0.0
1.166883 0.069650 0.0
1.131717 0.053834 0.0
1.097949 0.037971 0.0
1.065969 0.022450 0.0
1.036120 0.008349 0.0
1.010142 -0.003469 0.0
0.990011 -0.012663 0.0
0.976120 -0.018873 0.0
0.967658 -0.022110 0.0
0.963608 -0.022613 0.0
0.963005 -0.020774 0.0
0.964988 -0.017284 0.0
0.968872 -0.013137 0.0
0.974200 -0.009489 0.0
0.980795 -0.007229 0.0
0.988796 -0.006793 0.0
0.998593 -0.008038 0.0
1.010726 -0.010310 0.0
1.025726 -0.012631 0.0
1.043870 -0.013973 0.0
1.064916 -0.013550 0.0
1.087948 -0.010998 0.0
1.111488 -0.006401 0.0
1.133734 -0.000315 0.0
1.152917 0.006401 0.0
1.167700 0.012832 0.0
1.177234 0.018275 0.0
1.181037 0.022442 0.0
1.179006 0.025233 0.0
1.171502 0.026554 0.0
1.159324 0.026324 0.0
1.143558 0.024428 0.0
1.125306 0.020716 0.0
1.105453 0.015358 0.0
1.084973 0.008998 0.0
1.065718 0.002550 0.0
1.050129 -0.003261 0.0
1.039686 -0.007474 0.0
1.034230 -0.009046 0.0
1.032507 -0.007210 0.0
1.031412 0.001454 0.0
1.001239 -0.008853 0.0
1.006180 -0.026974 0.0
1.016149 -0.046229 0.0
1.031528 -0.067000 0.0
1.053043 -0.089244 0.0
1.081665 -0.112299 0.0
1.118306 -0.134589 0.0
1.163155 -0.153260 0.0
1.215058 -0.164917 0.0
1.269020 -0.163405 0.0
1.318224 -0.150818 0.0
1.359183 -0.132346 0.0
1.391622 -0.112218 0.0
1.416798 -0.093035 0.0
1.436453 -0.076152 0.0
1.452391 -0.062032 0.0
1.466301 -0.050388 0.0
1.479570 -0.040210 0.0
1.492993 -0.029824 0.0
1.506418 -0.017174 0.0
1.518485 -0.000530 0.0
1.527095 0.020652 0.0
1.530267 0.045674 0.0
1.526643 0.072935 0.0
1.515758 0.100369 0.0
1.497999 0.126014 0.0
1.474329 0.148309 0.0
1.445965 0.166160 0.0
1.414142 0.178860 0.0
1.379975 0.185981 0.0
1.344411 0.187305 0.0
1.308234 0.182788 0.0
1.272098 0.172583 0.0
1.236575 0.157080 0.0
1.202208 0.136947 0.0
1.169579 0.113151 0.0
1.139388 0.086910 0.0
1.112516 0.059519 0.0
1.089962 0.031977 0.0
1.072591 0.004704 0.0
1.061119 -0.021940 0.0
1.056126 -0.047241 0.0
1.057946 -0.069880 0.0
1.066764 -0.088116 0.0
1.082872 -0.100290 0.0
1.106835 -0.104950 0.0
1.139194 -0.100636 0.0
1.179703 -0.086042 0.0
1.226402 -0.060777 0.0
1.274751 -0.026450 0.0
1.317811 0.012541 0.0
1.350496 0.049859 0.0
1.371965 0.081607 0.0
1.382802 0.106042 0.0
1.383587 0.122360 0.0
1.375079 0.130731 0.0
1.358374 0.132004 0.0
1.334869 0.127275 0.0
1.306074 0.117695 0.0
1.273490 0.104513 0.0
1.238610 0.089016 0.0
1.202850 0.072317 0.0
1.167505 0.055430 0.0
1.133675 0.039048 0.0
1.101931 0.023554 0.0
1.072596 0.009781 0.0
1.046520 -0.001350 0.0
1.024628 -0.009279 0.0
1.006927 -0.013692 0.0
0.992605 -0.014771 0.0
0.980642 -0.013308 0.0
0.970262 -0.010617 0.0
0.961191 -0.008266 0.0
0.953796 -0.007652 0.0
0.949044 -0.009618 0.0
0.948232 -0.014198 0.0
0.952648 -0.020701 0.0
0.963289 -0.027881 0.0
0.980656 -0.034235 0.0
1.004705 -0.038382 0.0
1.034862 -0.039354 0.0
1.069997 -0.036722 0.0
1.108342 -0.030584 0.0
1.147382 -0.021552 0.0
1.183969 -0.010585 0.0
1.214924 0.001202 0.0
1.238069 0.012566 0.0
1.252831 0.022378 0.0
1.259656 0.030089 0.0
1.259284 0.035340 0.0
1.252624 0.037838 0.0
1.240716 0.037466 0.0
1.224760 0.034417 0.0
1.206106 0.029073 0.0
1.185987 0.021849 0.0
1.165381 0.013635 0.0
1.145547 0.005906 0.0
1.128268 0.000308 0.0
1.115003 -0.001575 0.0
1.106121 0.005797 0.0
1.001040 -0.011132 0.0
1.005251 -0.033846 0.0
1.013965 -0.058041 0.0
1.027933 -0.084535 0.0
1.048466 -0.113756 0.0
1.077461 -0.145404 0.0
1.117196 -0.177859 0.0
1.169377 -0.207020 0.0
1.234773 -0.228456 0.0
1.303149 -0.222205 0.0
1.359785 -0.197857 0.0
1.401071 -0.167552 0.0
1.429458 -0.137838 0.0
1.448443 -0.111576 0.0
1.461128 -0.089949 0.0
1.470207 -0.073251 0.0
1.478153 -0.061025 0.0
1.487212 -0.051901 0.0
1.499080 -0.043424 0.0
1.514260 -0.032180 0.0
1.531262 -0.014592 0.0
1.546274 0.011092 0.0
1.555154 0.043180 0.0
1.555417 0.078789 0.0
1.546291 0.114526 0.0
1.528416 0.147490 0.0
1.503237 0.175681 0.0
1.472450 0.197939 0.0
1.437654 0.213700 0.0
1.400204 0.222757 0.0
1.361188 0.225110 0.0
1.321456 0.220893 0.0
1.281694 0.210377 0.0
1.242508 0.193997 0.0
1.204513 0.172392 0.0
1.168423 0.146424 0.0
1.135094 0.117157 0.0
1.105442 0.085795 0.0
1.080141 0.053556 0.0
1.059169 0.021467 0.0
1.041726 -0.009788 0.0
1.027088 -0.039761 0.0
1.015380 -0.067472 0.0
1.007736 -0.091698 0.0
1.006404 -0.111484 0.0
1.014454 -0.125770 0.0
1.034792 -0.132513 0.0
1.069013 -0.128896 0.0
1.116767 -0.112374 0.0
1.175455 -0.081891 0.0
1.239568 -0.039190 0.0
1.299143 0.009331 0.0
1.345221 0.054588 0.0
1.376036 0.091410 0.0
1.393246 0.118998 0.0
1.398432 0.137415 0.0
1.393156 0.147302 0.0
1.378995 0.149643 0.0
1.357509 0.145607 0.0
1.330225 0.136469 0.0
1.298633 0.123532 0.0
1.264171 0.108023 0.0
1.228195 0.091045 0.0
1.191929 0.073529 0.0
1.156426 0.056320 0.0
1.122530 0.040246 0.0
1.090679 0.026112 0.0
1.060806 0.015024 0.0
1.032549 0.007962 0.0
1.005356 0.005090 0.0
0.978697 0.005453 0.0
0.952600 0.007100 0.0
0.928041 0.007648 0.0
0.906794 0.005075 0.0
0.890889 -0.001687 0.0
0.882163 -0.012590 0.0
0.881881 -0.026443 0.0
0.890375 -0.041273 0.0
0.907159 -0.054994 0.0
0.931358 -0.065871 0.0
0.962013 -0.072676 0.0
0.998155 -0.074677 0.0
1.038736 -0.071556 0.0
1.082485 -0.063370 0.0
1.127723 -0.050592 0.0
1.172184 -0.034207 0.0
1.212857 -0.015844 0.0
1.246369 0.002515 0.0
1.270576 0.018921 0.0
1.285425 0.032030 0.0
1.291821 0.041413 0.0
1.290771 0.046847 0.0
1.283408 0.048355 0.0
1.270988 0.046210 0.0
1.254848 0.040971 0.0
1.236403 0.033562 0.0
1.217074 0.025142 0.0
1.198158 0.017266 0.0
1.180945 0.011946 0.0
1.167836 0.014268 0.0
1.000762 -0.012934 0.0
1.003879 -0.039371 0.0
1.010510 -0.067861 0.0
1.021661 -0.099833 0.0
1.039192 -0.136522 0.0
1.066140 -0.178581 0.0
1.106944 -0.225221 0.0
1.166598 -0.271494 0.0
1.252807 -0.315587 0.0
1.340936 -0.291580 0.0
1.398696 -0.242878 0.0
1.429595 -0.194717 0.0
1.443855 -0.153321 0.0
1.448287 -0.119509 0.0
1.446930 -0.093343 0.0
1.442733 -0.074740 0.0
1.438509 -0.063259 0.0
1.437305 -0.057523 0.0
1.442174 -0.054538 0.0
1.455344 -0.049416 0.0
1.476879 -0.035893 0.0
1.502479 -0.008218 0.0
1.523609 0.032480 0.0
1.533859 0.078978 0.0
1.531897 0.125425 0.0
1.518819 0.167545 0.0
1.496718 0.202906 0.0
1.467768 0.230452 0.0
1.433830 0.249921 0.0
1.396386 0.261430 0.0
1.356590 0.265250 0.0
1.315359 0.261714 0.0
1.273471 0.251205 0.0
1.231644 0.234181 0.0
1.190639 0.211208 0.0
1.151331 0.183007 0.0
1.114706 0.150529 0.0
1.081640 0.115142 0.0
1.052304 0.078847 0.0
1.025399 0.044053 0.0
0.998026 0.012441 0.0
0.967120 -0.016445 0.0
0.932937 -0.044898 0.0
0.900493 -0.074184 0.0
0.876928 -0.104101 0.0
0.868438 -0.132713 0.0
0.878250 -0.155720 0.0
0.906523 -0.168182 0.0
0.951675 -0.165993 0.0
1.011355 -0.146641 0.0
1.082502 -0.109699 0.0
1.160434 -0.057667 0.0
1.235013 0.000928 0.0
1.294588 0.054680 0.0
1.335842 0.097264 0.0
1.361095 0.128709 0.0
1.372589 0.149789 0.0
1.372335 0.161571 0.0
1.362197 0.165304 0.0
1.343915 0.162338 0.0
1.319130 0.154041 0.0
1.289381 0.141726 0.0
1.256094 0.126606 0.0
1.220551 0.109777 0.0
1.183835 0.092291 0.0
1.146720 0.075284 0.0
1.109529 0.060117 0.0
1.072085 0.048336 0.0
1.033905 0.041088 0.0
0.994693 0.038369 0.0
0.955015 0.038510 0.0
0.916674 0.038482 0.0
0.882449 0.035051 0.0
0.855299 0.026067 0.0
0.837454 0.011071 0.0
0.829790 -0.008959 0.0
0.831922 -0.031924 0.0
0.842711 -0.055075 0.0
0.860777 -0.076042 0.0
0.884892 -0.093136 0.0
0.914104 -0.105276 0.0
0.947698 -0.111813 0.0
0.985081 -0.112384 0.0
1.025640 -0.106849 0.0
1.068599 -0.095310 0.0
1.112869 -0.078221 0.0
1.156918 -0.056552 0.0
1.198631 -0.032001 0.0
1.235068 -0.007208 0.0
1.263279 0.015097 0.0
1.282226 0.033004 0.0
1.292514 0.046017 0.0
1.295056 0.054006 0.0
1.290921 0.057114 0.0
1.281323 0.055805 0.0
1.267593 0.050903 0.0
1.251140 0.043585 0.0
1.233454 0.035425 0.0
1.216167 0.028286 0.0
1.202076 0.025128 0.0
1.000363 -0.014059 0.0
1.001869 -0.042869 0.0
1.005244 -0.074368 0.0
1.011496 -0.110728 0.0
1.022700 -0.154362 0.0
1.042791 -0.207780 0.0
1.078856 -0.272891 0.0
1.141924 -0.346545 0.0
1.257881 -0.442701 0.0
1.365131 -0.359844 0.0
1.400061 -0.267304 0.0
1.398060 -0.199190 0.0
1.383350 -0.148399 0.0
1.363754 -0.109266 0.0
1.341557 -0.080033 0.0
1.318053 -0.060349 0.0
1.294993 -0.050365 0.0
1.275414 -0.049634 0.0
1.263740 -0.055622 0.0
1.264989 -0.062751 0.0
1.283410 -0.062514 0.0
1.319622 -0.043409 0.0
1.363480 0.002681 0.0
1.398089 0.063919 0.0
1.416144 0.124390 0.0
1.419832 0.177970 0.0
1.412226 0.222188 0.0
1.395877 0.256470 0.0
1.372652 0.281065 0.0
1.343918 0.296464 0.0
1.310756 0.303174 0.0
1.274110 0.301666 0.0
1.234867 0.292385 0.0
1.193910 0.275785 0.0
1.152157 0.252361 0.0
1.110589 0.222731 0.0
1.070139 0.187880 0.0
1.031223 0.149772 0.0
0.992729 0.112047 0.0
0.951236 0.079252 0.0
0.902614 0.053237 0.0
0.846501 0.029779 0.0
0.788986 0.000575 0.0
0.741449 -0.039675 0.0
0.714542 -0.088137 0.0
0.711002 -0.136645 0.0
0.727127 -0.177726 0.0
0.758659 -0.205982 0.0
0.803021 -0.217707 0.0
0.858930 -0.210516 0.0
0.925390 -0.183431 0.0
1.000845 -0.137323 0.0
1.082434 -0.075585 0.0
1.161947 -0.007894 0.0
1.227540 0.052991 0.0
1.274639 0.100629 0.0
1.305316 0.135698 0.0
1.321758 0.159473 0.0
1.325947 0.173351 0.0
1.319726 0.178794 0.0
1.304823 0.177273 0.0
1.282849 0.170217 0.0
1.255277 0.158974 0.0
1.223399 0.144830 0.0
1.188244 0.129110 0.0
1.150467 0.113355 0.0
1.110287 0.099417 0.0
1.067617 0.089150 0.0
1.022517 0.083555 0.0
0.975837 0.081794 0.0
0.929682 0.080919 0.0
0.887244 0.076854 0.0
0.851966 0.066183 0.0
0.826490 0.047561 0.0
0.811991 0.021923 0.0
0.808142 -0.008299 0.0
0.813483 -0.040057 0.0
0.826139 -0.070386 0.0
0.844473 -0.097132 0.0
0.867267 -0.118956 0.0
0.893693 -0.135095 0.0
0.923227 -0.145123 0.0
0.955549 -0.148779 0.0
0.990423 -0.145887 0.0
1.027568 -0.136375 0.0
1.066529 -0.120387 0.0
1.106556 -0.098462 0.0
1.146492 -0.071739 0.0
1.184683 -0.042099 0.0
1.218808 -0.012349 0.0
1.246096 0.014216 0.0
1.265128 0.035485 0.0
1.276166 0.050959 0.0
1.279897 0.060566 0.0
1.277251 0.064596 0.0
1.269360 0.063732 0.0
1.257521 0.059047 0.0
1.243207 0.051963 0.0
1.228108 0.044133 0.0
1.214908 0.036572 0.0
0.999842 -0.014264 0.0
0.999212 -0.043541 0.0
0.998099 -0.075959 0.0
0.997071 -0.114362 0.0
0.997600 -0.162462 0.0
1.003216 -0.225387 0.0
1.022204 -0.310336 0.0
1.073058 -0.423023 0.0
1.216694 -0.625817 0.0
1.317348 -0.384631 0.0
1.275788 -0.235887 0.0
1.210737 -0.163556 0.0
1.156462 -0.115047 0.0
1.110221 -0.076781 0.0
1.067308 -0.047408 0.0
1.024940 -0.027101 0.0
0.981478 -0.017090 0.0
0.937949 -0.019801 0.0
0.900673 -0.036504 0.0
0.880790 -0.063236 0.0
0.889642 -0.089302 0.0
0.932416 -0.095607 0.0
1.005000 -0.061563 0.0
1.085918 0.012637 0.0
1.149455 0.094077 0.0
1.190841 0.163209 0.0
1.216174 0.219221 0.0
1.228920 0.263040 0.0
1.230925 0.295715 0.0
1.223400 0.318074 0.0
1.207397 0.330730 0.0
1.183975 0.334177 0.0
1.154228 0.328864 0.0
1.119237 0.315255 0.0
1.079966 0.293915 0.0
1.036913 0.265797 0.0
0.989238 0.232938 0.0
0.933696 0.199172 0.0
0.865702 0.169134 0.0
0.784917 0.144443 0.0
0.701208 0.120377 0.0
0.631932 0.088027 0.0
0.590928 0.040846 0.0
0.579642 -0.021122 0.0
0.589110 -0.089251 0.0
0.609927 -0.152808 0.0
0.637519 -0.205280 0.0
0.670758 -0.243199 0.0
0.710185 -0.264279 0.0
0.756967 -0.266634 0.0
0.812127 -0.248932 0.0
0.875929 -0.211079 0.0
0.947487 -0.154976 0.0
1.024491 -0.085021 0.0
1.100105 -0.011089 0.0
1.163802 0.053913 0.0
1.210903 0.104637 0.0
1.242808 0.142188 0.0
1.261192 0.168063 0.0
1.267695 0.183799 0.0
1.263914 0.190952 0.0
1.251370 0.191056 0.0
1.231468 0.185609 0.0
1.205423 0.176118 0.0
1.174175 0.164226 0.0
1.138314 0.151876 0.0
1.098151 0.141239 0.0
1.054038 0.134111 0.0
1.006925 0.130807 0.0
0.958874 0.129273 0.0
0.913078 0.125390 0.0
0.873193 0.114706 0.0
0.842260 0.094541 0.0
0.821893 0.065044 0.0
0.812139 0.028692 0.0
0.811891 -0.010971 0.0
0.819403 -0.050239 0.0
0.832817 -0.086275 0.0
0.850558 -0.117319 0.0
0.871434 -0.142439 0.0
0.894632 -0.161234 0.0
0.919685 -0.173571 0.0
0.946417 -0.179385 0.0
0.974837 -0.178575 0.0
1.005011 -0.171006 0.0
1.036914 -0.156620 0.0
1.070298 -0.135640 0.0
1.104588 -0.108786 0.0
1.138809 -0.077464 0.0
1.171547 -0.043847 0.0
1.200850 -0.010878 0.0
1.224416 0.017981 0.0
1.240987 0.040853 0.0
1.250644 0.057284 0.0
1.253886 0.067281 0.0
1.251524 0.071301 0.0
1.244621 0.070221 0.0
1.234478 0.065247 0.0
1.222647 0.057780 0.0
1.211431 0.047340 0.0
0.999253 -0.013358 0.0
0.996184 -0.040748 0.0
0.989806 -0.071261 0.0
0.979746 -0.107973 0.0
0.965690 -0.155323 0.0
0.948032 -0.220482 0.0
0.930164 -0.316361 0.0
0.927030 -0.464719 0.0
1.021973 -0.822701 0.0
1.024089 -0.189108 0.0
0.846060 -0.100371 0.0
0.709533 -0.087452 0.0
0.633926 -0.061269 0.0
0.577772 -0.028164 0.0
0.518610 0.006049 0.0
0.453519 0.026902 0.0
0.394640 0.031249 0.0
0.353598 0.016431 0.0
0.338506 -0.020367 0.0
0.354283 -0.075268 0.0
0.401078 -0.132917 0.0
0.474837 -0.168526 0.0
0.570425 -0.156816 0.0
0.683337 -0.085938 0.0
0.794463 0.017989 0.0
0.881922 0.110453 0.0
0.946340 0.182225 0.0
0.994454 0.239177 0.0
1.028134 0.283893 0.0
1.048111 0.317442 0.0
1.055151 0.340326 0.0
1.050239 0.352915 0.0
1.034474 0.355638 0.0
1.008838 0.349108 0.0
0.973763 0.334408 0.0
0.928401 0.313720 0.0
0.870236 0.290856 0.0
0.797094 0.269938 0.0
0.712409 0.251047 0.0
0.628800 0.226924 0.0
0.563247 0.187157 0.0
0.526858 0.126912 0.0
0.519581 0.050241 0.0
0.533077 -0.032727 0.0
0.557067 -0.111103 0.0
0.584589 -0.179295 0.0
0.612875 -0.234671 0.0
0.641663 -0.275834 0.0
0.672190 -0.301598 0.0
0.706568 -0.310475 0.0
0.747101 -0.300785 0.0
0.795495 -0.271422 0.0
0.852207 -0.222902 0.0
0.916215 -0.158107 0.0
0.985041 -0.082443 0.0
1.052389 -0.005779 0.0
1.109519 0.060098 0.0
1.152618 0.111723 0.0
1.182427 0.150336 0.0
1.200042 0.177408 0.0
1.206683 0.194483 0.0
1.203601 0.203150 0.0
1.191991 0.205028 0.0
1.172897 0.201837 0.0
1.147136 0.195516 0.0
1.115295 0.188287 0.0
1.077932 0.182354 0.0
1.035998 0.179043 0.0
0.991338 0.177648 0.0
0.946885 0.174936 0.0
0.906241 0.166165 0.0
0.872738 0.147319 0.0
0.848518 0.117082 0.0
0.834195 0.077193 0.0
0.829164 0.031329 0.0
0.832109 -0.016304 0.0
0.841386 -0.061694 0.0
0.855313 -0.102161 0.0
0.872397 -0.136258 0.0
0.891430 -0.163408 0.0
0.911547 -0.183579 0.0
0.932259 -0.196992 0.0
0.953445 -0.203882 0.0
0.975282 -0.204336 0.0
0.998117 -0.198253 0.0
1.022292 -0.185450 0.0
1.047977 -0.165880 0.0
1.075041 -0.139900 0.0
1.102976 -0.108506 0.0
1.130883 -0.073450 0.0
1.157495 -0.037190 0.0
1.181070 -0.002848 0.0
1.199819 0.026362 0.0
1.212854 0.049084 0.0
1.220172 0.064921 0.0
1.222181 0.074013 0.0
1.219616 0.076976 0.0
1.213500 0.074751 0.0
1.205127 0.068479 0.0
1.196340 0.056643 0.0
0.998703 -0.011314 0.0
0.993351 -0.034372 0.0
0.981977 -0.059883 0.0
0.963085 -0.090401 0.0
0.933912 -0.129667 0.0
0.889372 -0.183939 0.0
0.819486 -0.265150 0.0
0.704830 -0.398140 0.0
0.316561 -0.697363 0.0
-0.467448 0.241109 0.0
-0.467448 0.000000 0.0
-0.029935 -0.020627 0.0
-0.056120 -0.035612 0.0
-0.042430 -0.011357 0.0
-0.013771 0.019744 0.0
0.014243 0.050284 0.0
0.023915 0.057073 0.0
0.023269 0.032293 0.0
0.025213 -0.023081 0.0
0.039371 -0.102488 0.0
0.073202 -0.186322 0.0
0.131534 -0.247212 0.0
0.215240 -0.257425 0.0
0.321309 -0.204310 0.0
0.444464 -0.097919 0.0
0.565411 0.017956 0.0
0.664636 0.111079 0.0
0.742914 0.183932 0.0
0.804500 0.243872 0.0
0.849653 0.292333 0.0
0.878574 0.329474 0.0
0.891828 0.355425 0.0
0.890074 0.370647 0.0
0.873630 0.376179 0.0
0.841995 0.374047 0.0
0.793933 0.367505 0.0
0.729487 0.359683 0.0
0.654077 0.349665 0.0
0.580711 0.329371 0.0
0.525311 0.287609 0.0
0.497732 0.219604 0.0
0.497465 0.131122 0.0
0.517002 0.033771 0.0
0.546578 -0.059328 0.0
0.578498 -0.140413 0.0
0.608857 -0.207867 0.0
0.635952 -0.261481 0.0
0.659598 -0.301459 0.0
0.680945 -0.327848 0.0
0.702343 -0.340002 0.0
0.726942 -0.336390 0.0
0.757857 -0.315125 0.0
0.797143 -0.275197 0.0
0.845089 -0.217766 0.0
0.900174 -0.146694 0.0
0.959431 -0.068134 0.0
1.016707 0.008048 0.0
1.065118 0.072262 0.0
1.102076 0.123030 0.0
1.127747 0.161427 0.0
1.142754 0.188816 0.0
1.147919 0.206735 0.0
1.144106 0.216867 0.0
1.132107 0.221090 0.0
1.112596 0.221537 0.0
1.086204 0.220499 0.0
1.053811 0.219897 0.0
1.016968 0.220277 0.0
0.978190 0.219852 0.0
0.940797 0.214579 0.0
0.908188 0.199775 0.0
0.882930 0.172471 0.0
0.866227 0.132854 0.0
0.858037 0.083932 0.0
0.857569 0.030090 0.0
0.863618 -0.024059 0.0
0.874697 -0.074296 0.0
0.889249 -0.118039 0.0
0.905835 -0.154050 0.0
0.923232 -0.182045 0.0
0.940522 -0.202349 0.0
0.957170 -0.215582 0.0
0.973058 -0.222365 0.0
0.988458 -0.223090 0.0
1.003932 -0.217808 0.0
1.020149 -0.206288 0.0
1.037673 -0.188252 0.0
1.056785 -0.163703 0.0
1.077377 -0.133230 0.0
1.098936 -0.098191 0.0
1.120582 -0.060706 0.0
1.141140 -0.023466 0.0
1.159054 0.010318 0.0
1.172994 0.038154 0.0
1.182421 0.059106 0.0
1.187320 0.072921 0.0
1.188057 0.079896 0.0
1.185323 0.080681 0.0
1.180108 0.076138 0.0
1.173793 0.064087 0.0
0.998315 -0.008332 0.0
0.991365 -0.025053 0.0
0.976542 -0.043005 0.0
0.951700 -0.063545 0.0
0.912705 -0.088355 0.0
0.851565 -0.119572 0.0
0.751526 -0.159594 0.0
0.573128 -0.210641 0.0
0.228669 -0.250009 0.0
0.000000 0.241109 0.0
-0.000000 -0.000000 0.0
0.000000 0.000000 0.0
-0.020516 -0.019681 0.0
-0.047401 -0.014928 0.0
-0.060271 0.007526 0.0
-0.080535 0.054752 0.0
-0.112294 0.074692 0.0
-0.146371 0.049397 0.0
-0.171266 -0.017234 0.0
-0.177557 -0.116202 0.0
-0.161760 -0.222237 0.0
-0.124736 -0.306653 0.0
-0.062056 -0.344370 0.0
0.031905 -0.317396 0.0
0.149748 -0.225830 0.0
0.279879 -0.105213 0.0
0.405271 0.009630 0.0
0.508923 0.103450 0.0
0.590913 0.180776 0.0
0.654632 0.246557 0.0
0.700142 0.300819 0.0
0.727459 0.343509 0.0
0.736533 0.375243 0.0
0.727039 0.397521 0.0
0.698712 0.412668 0.0
0.653000 0.422658 0.0
0.595963 0.426012 0.0
0.539742 0.414966 0.0
0.498909 0.378268 0.0
0.482966 0.310054 0.0
0.492130 0.215574 0.0
0.519960 0.107589 0.0
0.557886 -0.000159 0.0
0.597850 -0.094938 0.0
0.634894 -0.173767 0.0
0.666963 -0.236940 0.0
0.692926 -0.285465 0.0
0.712472 -0.320667 0.0
0.726285 -0.343800 0.0
0.736294 -0.355456 0.0
0.745729 -0.354970 0.0
0.758649 -0.340381 0.0
0.778812 -0.309390 0.0
0.808364 -0.261072 0.0
0.847159 -0.197268 0.0
0.893033 -0.122691 0.0
0.942421 -0.044058 0.0
0.989377 0.029000 0.0
1.028707 0.090004 0.0
1.058818 0.138671 0.0
1.079496 0.175888 0.0
1.090998 0.202996 0.0
1.093775 0.221643 0.0
1.088326 0.233762 0.0
1.075185 0.241518 0.0
1.055072 0.247023 0.0
1.029203 0.251635 0.0
0.999600 0.254985 0.0
0.969121 0.254400 0.0
0.940997 0.245550 0.0
0.918014 0.224397 0.0
0.901848 0.189272 0.0
0.892965 0.141640 0.0
0.891001 0.085300 0.0
0.895200 0.024992 0.0
0.904483 -0.034292 0.0
0.917466 -0.088125 0.0
0.932675 -0.133972 0.0
0.948728 -0.170756 0.0
0.964439 -0.198446 0.0
0.978904 -0.217703 0.0
0.991576 -0.229549 0.0
1.002328 -0.235039 0.0
1.011474 -0.234964 0.0
1.019712 -0.229646 0.0
1.027967 -0.218920 0.0
1.037163 -0.202339 0.0
1.047987 -0.179551 0.0
1.060723 -0.150711 0.0
1.075205 -0.116752 0.0
1.090857 -0.079444 0.0
1.106793 -0.041222 0.0
1.121863 -0.004910 0.0
1.134780 0.026526 0.0
1.144606 0.051482 0.0
1.150971 0.069282 0.0
1.153894 0.079875 0.0
1.153737 0.083593 0.0
1.151172 0.081006 0.0
1.147165 0.069540 0.0
0.998166 -0.004813 0.0
0.990631 -0.014087 0.0
0.974672 -0.023189 0.0
0.948277 -0.032124 0.0
0.907872 -0.040374 0.0
0.847559 -0.046099 0.0
0.758608 -0.044077 0.0
0.630187 -0.019339 0.0
0.468076 0.068792 0.0
0.190738 0.172337 0.0
0.000000 0.000000 0.0
-0.000000 -0.000000 0.0
0.000000 0.000000 0.0
-0.005634 -0.004280 0.0
-0.034524 0.037283 0.0
-0.096983 0.107717 0.0
-0.170266 0.126769 0.0
-0.228231 0.089363 0.0
-0.262141 0.001606 0.0
-0.268839 -0.122053 0.0
-0.254536 -0.246486 0.0
-0.227989 -0.345974 0.0
-0.191045 -0.404672 0.0
-0.134992 -0.407109 0.0
-0.045401 -0.343550 0.0
0.068914 -0.231939 0.0
0.190989 -0.111109 0.0
0.307590 0.003936 0.0
0.403749 0.102141 0.0
0.478674 0.186549 0.0
0.534524 0.259468 0.0
0.571098 0.320969 0.0
0.588066 0.371741 0.0
0.585587 0.412996 0.0
0.565595 0.445512 0.0
0.533719 0.467402 0.0
0.500296 0.471729 0.0
0.477945 0.447820 0.0
0.475845 0.388348 0.0
0.495559 0.296205 0.0
0.532402 0.183416 0.0
0.579712 0.064606 0.0
0.629455 -0.044845 0.0
0.675329 -0.136090 0.0
0.715046 -0.209377 0.0
0.747456 -0.265809 0.0
0.771880 -0.306983 0.0
0.788061 -0.334875 0.0
0.796277 -0.351622 0.0
0.797681 -0.359045 0.0
0.794741 -0.357876 0.0
0.791417 -0.347071 0.0
0.792517 -0.323963 0.0
0.802219 -0.285754 0.0
0.822518 -0.231680 0.0
0.852661 -0.164295 0.0
0.889807 -0.088986 0.0
0.929678 -0.012898 0.0
0.966981 0.055269 0.0
0.998026 0.112250 0.0
1.021606 0.158052 0.0
1.037330 0.193606 0.0
1.045196 0.220390 0.0
1.045411 0.240248 0.0
1.038410 0.255173 0.0
1.025036 0.266856 0.0
1.006788 0.275919 0.0
0.985959 0.281134 0.0
0.965392 0.279297 0.0
0.947856 0.266314 0.0
0.935329 0.239143 0.0
0.928673 0.197347 0.0
0.927842 0.143279 0.0