# vtk DataFile Version 3.0
Vector Field
ASCII
DATASET RECTILINEAR_GRID
DIMENSIONS 100 26 1
X_COORDINATES 100 double
0.050000 0.150000 0.250000 0.350000 0.450000 0.550000 0.650000 0.750000 0.850000 0.950000 1.050000 1.150000 1.250000 1.350000 1.450000 1.550000 1.650000 1.750000 1.850000 1.950000 2.050000 2.150000 2.250000 2.350000 2.450000 2.550000 2.650000 2.750000 2.850000 2.950000 3.050000 3.150000 3.250000 3.350000 3.450000 3.550000 3.650000 3.750000 3.850000 3.950000 4.050000 4.150000 4.250000 4.350000 4.450000 4.550000 4.650000 4.750000 4.850000 4.950000 5.050000 5.150000 5.250000 5.350000 5.450000 5.550000 5.650000 5.750000 5.850000 5.950000 6.050000 6.150000 6.250000 6.350000 6.450000 6.550000 6.650000 6.750000 6.850000 6.950000 7.050000 7.150000 7.250000 7.350000 7.450000 7.550000 7.650000 7.750000 7.850000 7.950000 8.050000 8.150000 8.250000 8.350000 8.450000 8.550000 8.650000 8.750000 8.850000 8.950000 9.050000 9.150000 9.250000 9.350000 9.450000 9.550000 9.650000 9.750000 9.850000 9.950000 
Y_COORDINATES 26 double
0.050000 0.150000 0.250000 0.350000 0.450000 0.550000 0.650000 0.750000 0.850000 0.950000 1.050000 1.150000 1.250000 1.350000 1.450000 1.550000 1.650000 1.750000 1.850000 1.950000 2.050000 2.150000 2.250000 2.350000 2.450000 2.550000 
Z_COORDINATES 1 double
0.0
POINT_DATA 2600
VECTORS Vektorfeld double
0.997710 0.002290 0.0
0.993140 0.002279 0.0
0.990197 0.000663 0.0
0.991186 -0.001653 0.0
0.997098 -0.004259 0.0
1.008230 -0.006874 0.0
1.024330 -0.009226 0.0
1.044587 -0.011031 0.0
1.067649 -0.012030 0.0
1.091724 -0.012046 0.0
1.114821 -0.011051 0.0
1.135035 -0.009163 0.0
1.150770 -0.006572 0.0
1.160843 -0.003501 0.0
1.164604 -0.000260 0.0
1.161865 0.002999 0.0
1.152560 0.006305 0.0
1.136689 0.009566 0.0
1.114456 0.012667 0.0
1.086307 0.015482 0.0
1.052945 0.017880 0.0
1.015321 0.019743 0.0
0.974608 0.020970 0.0
0.932149 0.021488 0.0
0.889404 0.021256 0.0
0.847880 0.020267 0.0
0.809060 0.018553 0.0
0.774320 0.016187 0.0
0.744848 0.013285 0.0
0.721561 0.010003 0.0
0.705022 0.006537 0.0
0.695399 0.003086 0.0
0.692625 -0.000312 0.0
0.695759 -0.002822 0.0
0.702524 -0.003943 0.0
0.710183 -0.003716 0.0
0.716328 -0.002429 0.0
0.719102 -0.000344 0.0
0.716606 0.002840 0.0
0.706889 0.006877 0.0
0.688734 0.011278 0.0
0.661874 0.015582 0.0
0.626899 0.019393 0.0
0.585115 0.022392 0.0
0.538386 0.024337 0.0
0.489038 0.025011 0.0
0.439981 0.024046 0.0
0.395136 0.020800 0.0
0.359547 0.014789 0.0
0.337960 0.006797 0.0
0.331642 -0.000478 0.0
0.336347 -0.004227 0.0
0.346228 -0.005654 0.0
0.358171 -0.006290 0.0
0.370827 -0.006367 0.0
0.383177 -0.005984 0.0
0.394407 -0.005246 0.0
0.403931 -0.004277 0.0
0.411405 -0.003196 0.0
0.416719 -0.002118 0.0
0.419984 -0.001147 0.0
0.421468 -0.000337 0.0
0.421273 0.000531 0.0
0.419035 0.001707 0.0
0.414209 0.003120 0.0
0.406558 0.004531 0.0
0.396289 0.005737 0.0
0.384042 0.006510 0.0
0.370898 0.006635 0.0
0.358219 0.006044 0.0
0.347247 0.004928 0.0
0.338597 0.003722 0.0
0.331980 0.002894 0.0
0.326401 0.002685 0.0
0.320717 0.002998 0.0
0.314237 0.003482 0.0
0.306994 0.003761 0.0
0.299598 0.003635 0.0
0.292818 0.003144 0.0
0.287193 0.002480 0.0
0.282876 0.001837 0.0
0.279722 0.001318 0.0
0.277459 0.000946 0.0
0.275791 0.000721 0.0
0.274415 0.000655 0.0
0.273050 0.000710 0.0
0.271510 0.000830 0.0
0.269735 0.000945 0.0
0.267779 0.001012 0.0
0.265716 0.001051 0.0
0.263542 0.001122 0.0
0.261140 0.001280 0.0
0.258329 0.001531 0.0
0.254961 0.001836 0.0
0.251002 0.002123 0.0
0.246572 0.002307 0.0
0.241949 0.002316 0.0
0.237555 0.002077 0.0
0.233939 0.001539 0.0
0.231434 0.000966 0.0
1.003000 0.001581 0.0
1.011710 -0.001150 0.0
1.025330 -0.006583 0.0
1.043338 -0.013404 0.0
1.065767 -0.020847 0.0
1.092606 -0.028257 0.0
1.123577 -0.034912 0.0
1.157988 -0.040013 0.0
1.194669 -0.042791 0.0
1.231999 -0.042691 0.0
1.268153 -0.039656 0.0
1.301459 -0.034079 0.0
1.330622 -0.026554 0.0
1.354715 -0.017684 0.0
1.372923 -0.008046 0.0
1.384476 0.001971 0.0
1.388938 0.012177 0.0
1.386242 0.022261 0.0
1.376581 0.031866 0.0
1.360411 0.040601 0.0
1.338460 0.048074 0.0
1.311712 0.053922 0.0
1.281373 0.057844 0.0
1.248827 0.059620 0.0
1.215573 0.059124 0.0
1.183159 0.056338 0.0
1.153104 0.051358 0.0
1.126816 0.044410 0.0
1.105503 0.035846 0.0
1.090092 0.026140 0.0
1.081162 0.015869 0.0
1.078901 0.005637 0.0
1.082652 -0.003841 0.0
1.091285 -0.011060 0.0
1.103825 -0.015009 0.0
1.118794 -0.015277 0.0
1.133637 -0.011857 0.0
1.144992 -0.005044 0.0
1.150109 0.004919 0.0
1.147358 0.017265 0.0
1.135746 0.030656 0.0
1.115044 0.043767 0.0
1.085791 0.055435 0.0
1.049224 0.064701 0.0
1.007188 0.070793 0.0
0.962076 0.073016 0.0
0.916652 0.070520 0.0
0.873499 0.062324 0.0
0.833988 0.048364 0.0
0.797689 0.031106 0.0
0.764183 0.015038 0.0
0.736876 0.002859 0.0
0.720715 -0.006459 0.0
0.716073 -0.012785 0.0
0.719841 -0.016295 0.0
0.729260 -0.017824 0.0
0.742529 -0.017906 0.0
0.758364 -0.016976 0.0
0.775740 -0.015348 0.0
0.793691 -0.013232 0.0
0.811127 -0.010733 0.0
0.826715 -0.007823 0.0
0.839230 -0.004303 0.0
0.848223 -0.000213 0.0
0.854041 0.004048 0.0
0.857166 0.008128 0.0
0.857971 0.011603 0.0
0.856757 0.014106 0.0
0.853537 0.015403 0.0
0.847921 0.015570 0.0
0.839194 0.015101 0.0
0.826636 0.014759 0.0
0.809945 0.015166 0.0
0.789565 0.016372 0.0
0.766747 0.017812 0.0
0.743321 0.018575 0.0
0.721340 0.017892 0.0
0.702682 0.015559 0.0
0.688643 0.012040 0.0
0.679655 0.008198 0.0
0.675265 0.004825 0.0
0.674418 0.002331 0.0
0.675848 0.000766 0.0
0.678432 -0.000016 0.0
0.681463 -0.000263 0.0
0.684663 -0.000207 0.0
0.687922 0.000028 0.0
0.691121 0.000322 0.0
0.694057 0.000654 0.0
0.696369 0.001159 0.0
0.697562 0.001996 0.0
0.697176 0.003195 0.0
0.694964 0.004639 0.0
0.690925 0.006134 0.0
0.685279 0.007430 0.0
0.678435 0.008274 0.0
0.670954 0.008455 0.0
0.663490 0.007797 0.0
0.656722 0.006202 0.0
0.652478 0.003051 0.0
1.001904 -0.003324 0.0
1.008761 -0.011813 0.0
1.021359 -0.022138 0.0
1.039285 -0.033785 0.0
1.062531 -0.046141 0.0
1.091134 -0.058407 0.0
1.124909 -0.069508 0.0
1.163183 -0.078104 0.0
1.204603 -0.082801 0.0
1.247035 -0.082442 0.0
1.287978 -0.077002 0.0
1.325330 -0.067391 0.0
1.357717 -0.054791 0.0
1.384381 -0.040204 0.0
1.404945 -0.024297 0.0
1.419194 -0.007581 0.0
1.427014 0.009447 0.0
1.428382 0.026319 0.0
1.423407 0.042445 0.0
1.412427 0.057172 0.0
1.396037 0.069845 0.0
1.375066 0.079870 0.0
1.350540 0.086759 0.0
1.323628 0.090162 0.0
1.295579 0.089884 0.0
1.267674 0.085897 0.0
1.241163 0.078364 0.0
1.217215 0.067641 0.0
1.196861 0.054281 0.0
1.180962 0.039015 0.0
1.170181 0.022706 0.0
1.164929 0.006313 0.0
1.165519 -0.008857 0.0
1.172283 -0.021442 0.0
1.185168 -0.030054 0.0
1.203241 -0.033274 0.0
1.224545 -0.030007 0.0
1.246245 -0.019948 0.0
1.265070 -0.004119 0.0
1.278348 0.015777 0.0
1.284464 0.037641 0.0
1.282608 0.059340 0.0
1.272725 0.078997 0.0
1.255399 0.095033 0.0
1.231734 0.106162 0.0
1.203181 0.111313 0.0
1.171232 0.109596 0.0
1.137004 0.100631 0.0
1.101120 0.085452 0.0
1.064460 0.066978 0.0
1.028881 0.048252 0.0
0.995790 0.030043 0.0
0.965113 0.013195 0.0
0.938081 -0.000764 0.0
0.917565 -0.011570 0.0
0.904706 -0.019108 0.0
0.898641 -0.023826 0.0
0.898162 -0.026410 0.0
0.902182 -0.027310 0.0
0.909762 -0.026801 0.0
0.920141 -0.024980 0.0
0.932812 -0.021835 0.0
0.947499 -0.017493 0.0
0.963872 -0.012391 0.0
0.981331 -0.007051 0.0
0.999285 -0.001851 0.0
1.017203 0.002859 0.0
1.034370 0.006897 0.0
1.049842 0.010359 0.0
1.062452 0.013620 0.0
1.071055 0.017175 0.0
1.074832 0.021466 0.0
1.073411 0.026571 0.0
1.066898 0.031860 0.0
1.055750 0.036289 0.0
1.040536 0.038739 0.0
1.021772 0.038473 0.0
0.999918 0.035490 0.0
0.975549 0.030515 0.0
0.949666 0.024594 0.0
0.923920 0.018565 0.0
0.900521 0.012838 0.0
0.881766 0.007584 0.0
0.869330 0.003017 0.0
0.863582 -0.000580 0.0
0.863437 -0.002944 0.0
0.867139 -0.004196 0.0
0.873089 -0.004603 0.0
0.879961 -0.004228 0.0
0.886649 -0.002958 0.0
0.892354 -0.000784 0.0
0.896596 0.002119 0.0
0.899080 0.005443 0.0
0.899710 0.008739 0.0
0.898665 0.011516 0.0
0.896365 0.013332 0.0
0.893382 0.013860 0.0
0.890357 0.012882 0.0
0.887946 0.010296 0.0
0.886381 0.004768 0.0
1.001518 -0.006746 0.0
1.007457 -0.021188 0.0
1.019148 -0.037051 0.0
1.036642 -0.054292 0.0
1.060257 -0.072494 0.0
1.090393 -0.090794 0.0
1.127245 -0.107747 0.0
1.170368 -0.121261 0.0
1.218296 -0.128991 0.0
1.267875 -0.128263 0.0
1.315088 -0.119337 0.0
1.357040 -0.104360 0.0
1.392411 -0.085580 0.0
1.420881 -0.064550 0.0
1.442480 -0.042114 0.0
1.457213 -0.018748 0.0
1.465005 0.005002 0.0
1.465865 0.028537 0.0
1.459969 0.051097 0.0
1.447710 0.071758 0.0
1.429774 0.089587 0.0
1.407111 0.103763 0.0
1.380852 0.113651 0.0
1.352219 0.118816 0.0
1.322458 0.119039 0.0
1.292792 0.114313 0.0
1.264396 0.104856 0.0
1.238372 0.091121 0.0
1.215741 0.073786 0.0
1.197434 0.053716 0.0
1.184319 0.031899 0.0
1.177295 0.009395 0.0
1.177351 -0.012584 0.0
1.185307 -0.032435 0.0
1.201311 -0.047950 0.0
1.224470 -0.056610 0.0
1.252731 -0.056237 0.0
1.283062 -0.045749 0.0
1.311826 -0.025908 0.0
1.335558 0.000555 0.0
1.352168 0.030137 0.0
1.361084 0.059784 0.0
1.362473 0.087046 0.0
1.356875 0.109907 0.0
1.345031 0.126796 0.0
1.327717 0.136546 0.0
1.305580 0.138449 0.0
1.279048 0.132537 0.0
1.248511 0.119966 0.0
1.214748 0.102886 0.0
1.179104 0.083567 0.0
1.143154 0.063768 0.0
1.108442 0.044858 0.0
1.075880 0.027167 0.0
1.045665 0.011229 0.0
1.018796 -0.002178 0.0
0.996984 -0.012881 0.0
0.980906 -0.020798 0.0
0.970133 -0.026170 0.0
0.963930 -0.029317 0.0
0.961577 -0.030490 0.0
0.962575 -0.029994 0.0
0.966804 -0.028250 0.0
0.974544 -0.025747 0.0
0.986358 -0.022968 0.0
1.002811 -0.020341 0.0
1.024152 -0.017910 0.0
1.050016 -0.015365 0.0
1.079223 -0.012057 0.0
1.109821 -0.007173 0.0
1.139262 -0.000077 0.0
1.164912 0.009292 0.0
1.184930 0.020147 0.0
1.198581 0.031148 0.0
1.205619 0.041110 0.0
1.205882 0.048869 0.0
1.199342 0.053647 0.0
1.186241 0.055272 0.0
1.167266 0.054077 0.0
1.143622 0.050558 0.0
1.116871 0.045098 0.0
1.088596 0.037979 0.0
1.060169 0.029625 0.0
1.032840 0.020740 0.0
1.008089 0.012196 0.0
0.987779 0.004736 0.0
0.973409 -0.001207 0.0
0.965082 -0.005215 0.0
0.961562 -0.006969 0.0
0.961157 -0.006500 0.0
0.962299 -0.004090 0.0
0.963663 -0.000182 0.0
0.964295 0.004628 0.0
0.963697 0.009523 0.0
0.961817 0.013657 0.0
0.958991 0.016318 0.0
0.955816 0.017032 0.0
0.952975 0.015577 0.0
0.951030 0.011956 0.0
0.949659 0.006044 0.0
1.001320 -0.009583 0.0
1.006645 -0.029616 0.0
1.017502 -0.051170 0.0
1.034379 -0.074544 0.0
1.058104 -0.099582 0.0
1.089738 -0.125476 0.0
1.130268 -0.150446 0.0
1.179921 -0.171338 0.0
1.237629 -0.184552 0.0
1.298053 -0.182706 0.0
1.353618 -0.167673 0.0
1.400412 -0.144771 0.0
1.437990 -0.118118 0.0
1.467321 -0.089811 0.0
1.489342 -0.060472 0.0
1.504343 -0.030123 0.0
1.512040 0.000889 0.0
1.512081 0.031749 0.0
1.504382 0.061479 0.0
1.489264 0.088753 0.0
1.467537 0.112255 0.0
1.440389 0.130906 0.0
1.409215 0.143940 0.0
1.375479 0.150895 0.0
1.340627 0.151575 0.0
1.306040 0.146030 0.0
1.273024 0.134550 0.0
1.242810 0.117665 0.0
1.216544 0.096140 0.0
1.195277 0.070937 0.0
1.179962 0.043108 0.0
1.171531 0.013642 0.0
1.171003 -0.016360 0.0
1.179282 -0.044893 0.0
1.196685 -0.068899 0.0
1.222659 -0.084793 0.0
1.255731 -0.089386 0.0
1.293434 -0.080634 0.0
1.332054 -0.058406 0.0
1.366692 -0.025317 0.0
1.392825 0.013267 0.0
1.408899 0.051665 0.0
1.415910 0.086765 0.0
1.415270 0.116426 0.0
1.408225 0.139167 0.0
1.395669 0.154045 0.0
1.378109 0.160646 0.0
1.355769 0.159212 0.0
1.328845 0.150753 0.0
1.297809 0.136898 0.0
1.263542 0.119467 0.0
1.227235 0.100124 0.0
1.190213 0.080237 0.0
1.153761 0.060803 0.0
1.119028 0.042541 0.0
1.086754 0.025653 0.0
1.057281 0.010573 0.0
1.031202 -0.002094 0.0
1.009090 -0.011989 0.0
0.990736 -0.018941 0.0
0.975405 -0.023181 0.0
0.962536 -0.025432 0.0
0.952214 -0.026719 0.0
0.945269 -0.028072 0.0
0.943096 -0.030283 0.0
0.947281 -0.033665 0.0
0.959139 -0.037785 0.0
0.979312 -0.041528 0.0
1.007620 -0.043410 0.0
1.043139 -0.041937 0.0
1.084315 -0.035930 0.0
1.128804 -0.024994 0.0
1.173010 -0.009792 0.0
1.212333 0.008113 0.0
1.243162 0.026278 0.0
1.264259 0.042342 0.0
1.275669 0.055303 0.0
1.277746 0.064640 0.0
1.271224 0.070207 0.0
1.257216 0.072081 0.0
1.237092 0.070450 0.0
1.212346 0.065648 0.0
1.184518 0.058212 0.0
1.155171 0.048829 0.0
1.125790 0.038240 0.0
1.097579 0.027212 0.0
1.071464 0.016802 0.0
1.048340 0.008227 0.0
1.028997 0.002452 0.0
1.013519 -0.000037 0.0
1.001035 0.000788 0.0
0.990189 0.004422 0.0
0.979757 0.009825 0.0
0.969027 0.015654 0.0
0.957882 0.020550 0.0
0.946718 0.023414 0.0
0.936247 0.023582 0.0
0.927243 0.020872 0.0
0.920288 0.015560 0.0
0.915876 0.008223 0.0
1.001121 -0.012024 0.0
1.005719 -0.037099 0.0
1.015337 -0.064163 0.0
1.030852 -0.093944 0.0
1.053699 -0.126754 0.0
1.085902 -0.162141 0.0
1.129874 -0.198283 0.0
1.187433 -0.230713 0.0
1.259817 -0.255269 0.0
1.336067 -0.248660 0.0
1.400030 -0.221247 0.0
1.448124 -0.186084 0.0
1.483472 -0.149731 0.0
1.510052 -0.114108 0.0
1.530521 -0.078664 0.0
1.545560 -0.041971 0.0
1.554070 -0.003470 0.0
1.554498 0.035639 0.0
1.545944 0.073842 0.0
1.528429 0.109024 0.0
1.502886 0.139253 0.0
1.470823 0.163118 0.0
1.433990 0.179736 0.0
1.394165 0.188660 0.0
1.353058 0.189769 0.0
1.312283 0.183199 0.0
1.273357 0.169322 0.0
1.237713 0.148751 0.0
1.206671 0.122361 0.0
1.181369 0.091286 0.0
1.162602 0.056841 0.0
1.150650 0.020291 0.0
1.145554 -0.017385 0.0
1.147723 -0.054317 0.0
1.157803 -0.086959 0.0
1.176342 -0.111246 0.0
1.203924 -0.123587 0.0
1.240749 -0.120963 0.0
1.285432 -0.101380 0.0
1.333665 -0.065214 0.0
1.377744 -0.017049 0.0
1.409967 0.033684 0.0
1.428501 0.079202 0.0
1.435901 0.117228 0.0
1.434594 0.146717 0.0
1.426362 0.167284 0.0
1.412309 0.179020 0.0
1.393026 0.182461 0.0
1.368868 0.178586 0.0
1.340238 0.168730 0.0
1.307763 0.154378 0.0
1.272313 0.136970 0.0
1.234946 0.117779 0.0
1.196811 0.097847 0.0
1.159051 0.077989 0.0
1.122680 0.058850 0.0
1.088447 0.041082 0.0
1.056580 0.025344 0.0
1.026690 0.012576 0.0
0.998057 0.003480 0.0
0.969969 -0.002182 0.0
0.942177 -0.005771 0.0
0.915553 -0.009434 0.0
0.892441 -0.015300 0.0
0.876068 -0.024509 0.0
0.869257 -0.036813 0.0
0.873489 -0.050726 0.0
0.888770 -0.064041 0.0
0.914100 -0.074535 0.0
0.948092 -0.080323 0.0
0.989343 -0.079972 0.0
1.036481 -0.072579 0.0
1.087967 -0.057897 0.0
1.141590 -0.036728 0.0
1.193310 -0.011431 0.0
1.237433 0.014831 0.0
1.270175 0.038662 0.0
1.291102 0.058277 0.0
1.301002 0.073192 0.0
1.300923 0.083183 0.0
1.292137 0.088258 0.0
1.276060 0.088664 0.0
1.254200 0.084884 0.0
1.228099 0.077605 0.0
1.199254 0.067691 0.0
1.169047 0.056180 0.0
1.138681 0.044316 0.0
1.109071 0.033447 0.0
1.080711 0.024935 0.0
1.053699 0.019970 0.0
1.027877 0.019087 0.0
1.002985 0.021861 0.0
0.978837 0.026966 0.0
0.955505 0.032575 0.0
0.933431 0.036849 0.0
0.913353 0.038358 0.0
0.896112 0.036350 0.0
0.882415 0.030805 0.0
0.872648 0.022349 0.0
0.866978 0.011517 0.0
1.000839 -0.013984 0.0
1.004333 -0.043230 0.0
1.011850 -0.075168 0.0
1.024533 -0.111136 0.0
1.044382 -0.152258 0.0
1.074588 -0.199046 0.0
1.119776 -0.250538 0.0
1.185127 -0.301367 0.0
1.279460 -0.351333 0.0
1.376136 -0.325522 0.0
1.440290 -0.272503 0.0
1.477044 -0.219677 0.0
1.498857 -0.173299 0.0
1.514492 -0.132755 0.0
1.528869 -0.094863 0.0
1.543302 -0.055245 0.0
1.555117 -0.010521 0.0
1.559690 0.037689 0.0
1.553906 0.086129 0.0
1.537125 0.131033 0.0
1.510447 0.169464 0.0
1.475799 0.199618 0.0
1.435299 0.220569 0.0
1.390989 0.231962 0.0
1.344771 0.233791 0.0
1.298429 0.226294 0.0
1.253661 0.209921 0.0
1.212083 0.185375 0.0
1.175174 0.153688 0.0
1.144108 0.116327 0.0
1.119352 0.075323 0.0
1.099962 0.033151 0.0
1.083346 -0.008531 0.0
1.068187 -0.050181 0.0
1.056459 -0.089446 0.0
1.052060 -0.122900 0.0
1.059752 -0.147206 0.0
1.083504 -0.157921 0.0
1.124621 -0.150222 0.0
1.180918 -0.120903 0.0
1.246203 -0.070724 0.0
1.308699 -0.007360 0.0
1.356191 0.054220 0.0
1.386011 0.104990 0.0
1.401862 0.144412 0.0
1.406727 0.172957 0.0
1.402696 0.191431 0.0
1.391179 0.200849 0.0
1.373155 0.202380 0.0
1.349411 0.197308 0.0
1.320733 0.186953 0.0
1.287993 0.172586 0.0
1.252166 0.155358 0.0
1.214303 0.136266 0.0
1.175456 0.116178 0.0
1.136535 0.095953 0.0
1.098077 0.076670 0.0
1.059940 0.059760 0.0
1.021232 0.046759 0.0
0.980798 0.038363 0.0
0.938344 0.033478 0.0
0.895596 0.029109 0.0
0.856382 0.021524 0.0
0.825166 0.008069 0.0
0.805341 -0.011680 0.0
0.798471 -0.035962 0.0
0.804122 -0.061459 0.0
0.820481 -0.084947 0.0
0.845531 -0.104010 0.0
0.877672 -0.116980 0.0
0.915799 -0.122693 0.0
0.959143 -0.120340 0.0
1.007010 -0.109489 0.0
1.058481 -0.090230 0.0
1.112142 -0.063310 0.0
1.165509 -0.030779 0.0
1.213690 0.003349 0.0
1.251584 0.034768 0.0
1.277514 0.060871 0.0
1.292051 0.081044 0.0
1.296165 0.095069 0.0
1.291051 0.103043 0.0
1.278049 0.105365 0.0
1.258566 0.102708 0.0
1.233995 0.096003 0.0
1.205638 0.086432 0.0
1.174633 0.075435 0.0
1.141900 0.064670 0.0
1.108125 0.055846 0.0
1.073820 0.050376 0.0
1.039427 0.048896 0.0
1.005424 0.050946 0.0
0.972436 0.055017 0.0
0.941295 0.058996 0.0
0.913001 0.060796 0.0
0.888564 0.058926 0.0
0.868781 0.052805 0.0
0.854057 0.042771 0.0
0.844314 0.029892 0.0
0.839002 0.014956 0.0
1.000432 -0.015255 0.0
1.002278 -0.047299 0.0
1.006464 -0.082802 0.0
1.014129 -0.123849 0.0
1.027487 -0.172753 0.0
1.050636 -0.231904 0.0
1.090865 -0.303098 0.0
1.159448 -0.382741 0.0
1.283949 -0.488793 0.0
1.397859 -0.398648 0.0
1.434110 -0.299782 0.0
1.433202 -0.228245 0.0
1.423050 -0.176391 0.0
1.415102 -0.137350 0.0
1.415293 -0.104837 0.0
1.426431 -0.070842 0.0
1.445992 -0.026300 0.0
1.463421 0.031465 0.0
1.469239 0.092319 0.0
1.461661 0.149203 0.0
1.441954 0.197679 0.0
1.412397 0.235610 0.0
1.375282 0.262193 0.0
1.332658 0.277273 0.0
1.286370 0.280986 0.0
1.238177 0.273634 0.0
1.189812 0.255714 0.0
1.142937 0.228035 0.0
1.098966 0.191907 0.0
1.058734 0.149405 0.0
1.021988 0.103747 0.0
0.986739 0.059366 0.0
0.949114 0.019497 0.0
0.905213 -0.019150 0.0
0.859904 -0.063441 0.0
0.827177 -0.111779 0.0
0.817879 -0.156721 0.0
0.834774 -0.189053 0.0
0.875497 -0.200928 0.0
0.936130 -0.187128 0.0
1.012337 -0.145990 0.0
1.098416 -0.080669 0.0
1.181976 -0.003523 0.0
1.248267 0.066621 0.0
1.293831 0.121364 0.0
1.322804 0.162167 0.0
1.338269 0.190788 0.0
1.342426 0.208852 0.0
1.336948 0.217881 0.0
1.323199 0.219300 0.0
1.302393 0.214446 0.0
1.275676 0.204550 0.0
1.244172 0.190724 0.0
1.208963 0.173971 0.0
1.171002 0.155281 0.0
1.130904 0.135868 0.0
1.088648 0.117469 0.0
1.043464 0.102282 0.0
0.994380 0.092029 0.0
0.941561 0.086346 0.0
0.887623 0.081887 0.0
0.837612 0.073459 0.0
0.797202 0.056799 0.0
0.770397 0.030815 0.0
0.758258 -0.002462 0.0
0.759128 -0.039181 0.0
0.770154 -0.074918 0.0
0.788772 -0.106465 0.0
0.813169 -0.131938 0.0
0.842230 -0.150254 0.0
0.875381 -0.160697 0.0
0.912390 -0.162688 0.0
0.953145 -0.155764 0.0
0.997420 -0.139701 0.0
1.044654 -0.114733 0.0
1.093758 -0.081828 0.0
1.142914 -0.042939 0.0
1.188330 -0.002255 0.0
1.225209 0.035086 0.0
1.251308 0.066194 0.0
1.266749 0.090365 0.0
1.272190 0.107420 0.0
1.268590 0.117589 0.0
1.257075 0.121482 0.0
1.238824 0.120051 0.0
1.214983 0.114582 0.0
1.186600 0.106672 0.0
1.154604 0.098162 0.0
1.119830 0.090904 0.0
1.083097 0.086357 0.0
1.045301 0.085104 0.0
1.007498 0.086543 0.0
0.970927 0.088980 0.0
0.936941 0.090161 0.0
0.906846 0.088020 0.0
0.881681 0.081305 0.0
0.862035 0.069856 0.0
0.847964 0.054515 0.0
0.839019 0.036836 0.0
0.834358 0.017985 0.0
0.999896 -0.015582 0.0
0.999538 -0.048461 0.0
0.999083 -0.085371 0.0
0.999211 -0.129073 0.0
1.001517 -0.183193 0.0
1.009670 -0.252766 0.0
1.032131 -0.344927 0.0
1.087637 -0.465001 0.0
1.238531 -0.681928 0.0
1.339452 -0.420345 0.0
1.288798 -0.263681 0.0
1.215991 -0.190631 0.0
1.157994 -0.145856 0.0
1.115879 -0.117823 0.0
1.092631 -0.101307 0.0
1.093479 -0.086358 0.0
1.121429 -0.058295 0.0
1.167228 0.000231 0.0
1.207389 0.077574 0.0
1.228988 0.149926 0.0
1.234562 0.211089 0.0
1.227028 0.259291 0.0
1.208446 0.294207 0.0
1.180409 0.315921 0.0
1.144414 0.324620 0.0
1.102017 0.320589 0.0
1.054763 0.304378 0.0
1.003794 0.277216 0.0
0.948786 0.241705 0.0
0.886560 0.202064 0.0
0.812126 0.162268 0.0
0.725457 0.122763 0.0
0.639034 0.080148 0.0
0.573584 0.029550 0.0
0.541341 -0.034588 0.0
0.540351 -0.106914 0.0
0.562425 -0.174361 0.0
0.600350 -0.226234 0.0
0.651040 -0.255161 0.0
0.713924 -0.256411 0.0
0.788920 -0.227910 0.0
0.875110 -0.171018 0.0
0.969763 -0.091387 0.0
1.062344 -0.004387 0.0
1.138183 0.070970 0.0
1.193269 0.128503 0.0
1.231193 0.171063 0.0
1.254567 0.201047 0.0
1.265353 0.220378 0.0
1.265204 0.230699 0.0
1.255603 0.233455 0.0
1.237917 0.229943 0.0
1.213411 0.221341 0.0
1.183188 0.208785 0.0
1.148056 0.193561 0.0
1.108300 0.177443 0.0
1.063591 0.162860 0.0
1.013421 0.152246 0.0
0.958270 0.146299 0.0
0.900903 0.142263 0.0
0.846523 0.134286 0.0
0.801149 0.116445 0.0
0.769170 0.086203 0.0
0.751926 0.045459 0.0
0.748066 -0.001107 0.0
0.754725 -0.048063 0.0
0.768818 -0.091154 0.0
0.787955 -0.127984 0.0
0.810572 -0.157433 0.0
0.835787 -0.179035 0.0
0.863263 -0.192543 0.0
0.893078 -0.197666 0.0
0.925533 -0.193997 0.0
0.960919 -0.181128 0.0
0.999275 -0.158897 0.0
1.040209 -0.127702 0.0
1.082774 -0.088785 0.0
1.125387 -0.044437 0.0
1.164831 0.000944 0.0
1.197113 0.041954 0.0
1.220195 0.076083 0.0
1.233849 0.102608 0.0
1.238422 0.121427 0.0
1.234604 0.132978 0.0
1.223251 0.138160 0.0
1.205277 0.138288 0.0
1.181592 0.135035 0.0
1.153086 0.130302 0.0
1.120680 0.125944 0.0
1.085400 0.123329 0.0
1.048459 0.122868 0.0
1.011285 0.123757 0.0
0.975453 0.124170 0.0
0.942523 0.121886 0.0
0.913822 0.115091 0.0
0.890244 0.102978 0.0
0.872147 0.085925 0.0
0.859382 0.065282 0.0
0.851389 0.043007 0.0
0.847402 0.020463 0.0
0.999284 -0.014762 0.0
0.996386 -0.046024 0.0
0.990431 -0.081397 0.0
0.981130 -0.123876 0.0
0.968255 -0.177820 0.0
0.952300 -0.250337 0.0
0.936776 -0.354294 0.0
0.936757 -0.511120 0.0
1.035424 -0.885371 0.0
1.027574 -0.204797 0.0
0.827797 -0.111888 0.0
0.675871 -0.105958 0.0
0.588257 -0.084917 0.0
0.528272 -0.076662 0.0
0.500650 -0.091599 0.0
0.515086 -0.111352 0.0
0.567786 -0.113949 0.0
0.652866 -0.074993 0.0
0.750416 0.015087 0.0
0.829889 0.111342 0.0
0.883500 0.190489 0.0
0.917036 0.253890 0.0
0.932762 0.302465 0.0
0.931909 0.336553 0.0
0.915580 0.356312 0.0
0.884731 0.362143 0.0
0.839614 0.355195 0.0
0.779000 0.337983 0.0
0.700699 0.314248 0.0
0.605845 0.286601 0.0
0.505180 0.252831 0.0
0.418500 0.205550 0.0
0.363781 0.138502 0.0
0.347000 0.053427 0.0
0.361176 -0.040399 0.0
0.392350 -0.131288 0.0
0.430127 -0.209838 0.0
0.471645 -0.270199 0.0
0.517780 -0.308021 0.0
0.570967 -0.319621 0.0
0.633713 -0.302443 0.0
0.707398 -0.256359 0.0
0.791579 -0.184879 0.0
0.883669 -0.095567 0.0
0.974021 -0.004041 0.0
1.049457 0.072992 0.0
1.106117 0.131989 0.0
1.146631 0.176234 0.0
1.172920 0.208117 0.0
1.186555 0.229474 0.0
1.188976 0.241861 0.0
1.181532 0.246667 0.0
1.165450 0.245206 0.0
1.141731 0.238861 0.0
1.110987 0.229361 0.0
1.073346 0.219040 0.0
1.028734 0.210584 0.0
0.977768 0.205657 0.0
0.922955 0.202851 0.0
0.869152 0.196882 0.0
0.822405 0.180794 0.0
0.787625 0.150090 0.0
0.766846 0.105318 0.0
0.759248 0.051186 0.0
0.762419 -0.006145 0.0
0.773426 -0.060691 0.0
0.789570 -0.108764 0.0
0.808794 -0.148736 0.0
0.829650 -0.180154 0.0
0.851267 -0.203145 0.0
0.873337 -0.217980 0.0
0.896068 -0.224775 0.0
0.920049 -0.223324 0.0
0.946017 -0.213155 0.0
0.974570 -0.193780 0.0
1.005912 -0.165094 0.0
1.039705 -0.127752 0.0
1.075037 -0.083413 0.0
1.110370 -0.034857 0.0
1.142743 0.013102 0.0
1.168979 0.055617 0.0
1.187557 0.090841 0.0
1.198064 0.118114 0.0
1.200625 0.137549 0.0
1.195684 0.149883 0.0
1.183853 0.156368 0.0
1.165844 0.158649 0.0
1.142456 0.158581 0.0
1.114625 0.157903 0.0
1.083490 0.157786 0.0
1.050438 0.158405 0.0
1.017059 0.158773 0.0
0.985014 0.157032 0.0
0.955812 0.151154 0.0
0.930610 0.139724 0.0
0.910085 0.122448 0.0
0.894429 0.100207 0.0
0.883440 0.074755 0.0
0.876636 0.048331 0.0
0.873462 0.022300 0.0
0.998707 -0.012753 0.0
0.993397 -0.039824 0.0
0.982151 -0.070396 0.0
0.963513 -0.106938 0.0
0.934753 -0.153122 0.0
0.890843 -0.215171 0.0
0.821946 -0.305040 0.0
0.708827 -0.447234 0.0
0.319023 -0.763296 0.0
-0.464587 0.275982 0.0
-0.464587 0.000000 0.0
-0.038370 -0.027093 0.0
-0.068140 -0.057675 0.0
-0.030319 -0.081741 0.0
0.038709 -0.127925 0.0
0.115785 -0.166538 0.0
0.186954 -0.182633 0.0
0.258951 -0.163386 0.0
0.347462 -0.082583 0.0
0.442167 0.034833 0.0
0.520975 0.134578 0.0
0.580922 0.216318 0.0
0.621843 0.283392 0.0
0.642259 0.336062 0.0
0.641179 0.374212 0.0
0.617862 0.398410 0.0
0.571706 0.410201 0.0
0.503873 0.411423 0.0
0.421047 0.401933 0.0
0.338140 0.376677 0.0
0.274379 0.327180 0.0
0.243328 0.248932 0.0
0.246187 0.146979 0.0
0.274309 0.033610 0.0
0.314588 -0.075037 0.0
0.356655 -0.169891 0.0
0.396294 -0.248651 0.0
0.432832 -0.309442 0.0
0.468108 -0.350190 0.0
0.505764 -0.368295 0.0
0.550172 -0.360922 0.0
0.604927 -0.326320 0.0
0.671479 -0.265652 0.0
0.748634 -0.184040 0.0
0.832836 -0.090122 0.0
0.914814 0.001659 0.0
0.983644 0.077830 0.0
1.036346 0.137176 0.0
1.074600 0.182633 0.0
1.099696 0.216227 0.0
1.112805 0.239578 0.0
1.115047 0.254152 0.0
1.107424 0.261425 0.0
1.090703 0.263082 0.0
1.065319 0.261269 0.0
1.031514 0.258578 0.0
0.989952 0.257220 0.0
0.942722 0.257216 0.0
0.894023 0.254804 0.0
0.849574 0.243182 0.0
0.814680 0.216136 0.0
0.792273 0.171934 0.0
0.782421 0.114105 0.0
0.783319 0.049098 0.0
0.792448 -0.016357 0.0
0.807194 -0.076233 0.0
0.825240 -0.127412 0.0
0.844730 -0.168801 0.0
0.864253 -0.200467 0.0
0.882881 -0.223076 0.0
0.900229 -0.237468 0.0
0.916497 -0.244287 0.0
0.932417 -0.243712 0.0
0.949065 -0.235383 0.0
0.967563 -0.218601 0.0
0.988724 -0.192776 0.0
1.012810 -0.157950 0.0
1.039438 -0.115175 0.0
1.067631 -0.066621 0.0
1.095738 -0.015614 0.0
1.121091 0.032744 0.0
1.141277 0.074951 0.0
1.155165 0.109609 0.0
1.162299 0.136358 0.0
1.162663 0.155650 0.0
1.156530 0.168566 0.0
1.144368 0.176622 0.0
1.126840 0.181523 0.0
1.104837 0.184795 0.0
1.079520 0.187346 0.0
1.052312 0.189106 0.0
1.024795 0.188967 0.0
0.998517 0.185161 0.0
0.974780 0.175966 0.0
0.954476 0.160418 0.0
0.938062 0.138694 0.0
0.925620 0.112059 0.0
0.916972 0.082540 0.0
0.911778 0.052545 0.0
0.909692 0.023346 0.0
0.998290 -0.009750 0.0
0.991247 -0.030474 0.0
0.976241 -0.053496 0.0
0.951108 -0.080068 0.0
0.911674 -0.111797 0.0
0.849911 -0.150822 0.0
0.749180 -0.199761 0.0
0.570070 -0.260284 0.0
0.226950 -0.318359 0.0
0.000000 0.275982 0.0
-0.000000 -0.000000 0.0
0.000000 0.000000 0.0
-0.034402 -0.033137 0.0
-0.073905 -0.105862 0.0
-0.071460 -0.175277 0.0
-0.053918 -0.213803 0.0
-0.036579 -0.223877 0.0
-0.014690 -0.216028 0.0
0.032091 -0.165232 0.0
0.111633 -0.056765 0.0
0.198281 0.060720 0.0
0.269621 0.158887 0.0
0.323835 0.245688 0.0
0.356568 0.320616 0.0
0.365164 0.382140 0.0
0.348995 0.429968 0.0
0.310514 0.463279 0.0
0.258484 0.478209 0.0
0.207987 0.468470 0.0
0.175534 0.425501 0.0
0.171913 0.345738 0.0
0.197383 0.235956 0.0
0.244071 0.110407 0.0
0.299967 -0.013836 0.0
0.353982 -0.121886 0.0
0.400940 -0.212067 0.0
0.439539 -0.284714 0.0
0.469723 -0.340102 0.0
0.493147 -0.378229 0.0
0.513470 -0.398235 0.0
0.536069 -0.397990 0.0
0.566762 -0.374701 0.0
0.609778 -0.326839 0.0
0.666102 -0.256331 0.0
0.733304 -0.169236 0.0
0.806582 -0.074483 0.0
0.876930 0.014794 0.0
0.935871 0.088569 0.0
0.981494 0.147363 0.0
1.014571 0.193324 0.0
1.035859 0.228082 0.0
1.046108 0.253157 0.0
1.045977 0.270175 0.0
1.035953 0.281076 0.0
1.016412 0.288200 0.0
0.987988 0.293875 0.0
0.952340 0.299134 0.0
0.912867 0.302004 0.0
0.874617 0.296966 0.0
0.842912 0.277175 0.0
0.821435 0.238513 0.0
0.811239 0.182159 0.0
0.811296 0.113675 0.0
0.819710 0.040216 0.0
0.834234 -0.031127 0.0
0.852468 -0.094443 0.0
0.872307 -0.147087 0.0
0.892054 -0.188364 0.0
0.910377 -0.218751 0.0
0.926346 -0.239389 0.0
0.939514 -0.251671 0.0
0.950000 -0.256838 0.0
0.958530 -0.255610 0.0
0.966355 -0.247959 0.0
0.974995 -0.233162 0.0
0.985847 -0.210229 0.0
0.999812 -0.178547 0.0
1.017071 -0.138466 0.0
1.037106 -0.091558 0.0
1.058835 -0.040513 0.0
1.080406 0.010719 0.0
1.099536 0.057659 0.0
1.114511 0.098037 0.0
1.124388 0.130920 0.0
1.128731 0.156379 0.0
1.127473 0.175229 0.0
1.120833 0.188760 0.0
1.109311 0.198435 0.0
1.093704 0.205493 0.0
1.075116 0.210553 0.0
1.054894 0.213329 0.0
1.034477 0.212678 0.0
1.015183 0.207020 0.0
0.998023 0.195004 0.0
0.983606 0.176099 0.0
0.972182 0.150852 0.0
0.963741 0.120784 0.0
0.958129 0.088075 0.0
0.955105 0.055228 0.0
0.954464 0.023390 0.0
0.998117 -0.006157 0.0
0.990372 -0.019279 0.0
0.973959 -0.033272 0.0
0.946795 -0.047996 0.0
0.905165 -0.062805 0.0
0.842937 -0.075824 0.0
0.750762 -0.081853 0.0
0.617769 -0.066088 0.0
0.441488 0.010983 0.0
0.171617 0.154083 0.0
0.000000 0.000000 0.0
-0.000000 -0.000000 0.0
0.000000 0.000000 0.0
-0.050719 -0.050380 0.0
-0.121312 -0.162949 0.0
-0.154135 -0.210850 0.0
-0.180440 -0.217863 0.0
-0.197518 -0.226852 0.0
-0.190397 -0.208309 0.0
-0.147338 -0.136289 0.0
-0.069058 -0.024683 0.0
0.014919 0.088973 0.0
0.079384 0.196924 0.0
0.121091 0.294940 0.0
0.140629 0.379682 0.0
0.140327 0.448898 0.0
0.127226 0.495931 0.0
0.114314 0.510500 0.0
0.115196 0.485793 0.0
0.138499 0.417327 0.0
0.185272 0.310760 0.0
0.249865 0.180872 0.0
0.323218 0.045450 0.0
0.393164 -0.074720 0.0
0.452432 -0.174286 0.0
0.500595 -0.254788 0.0
0.537166 -0.317162 0.0
0.562073 -0.362744 0.0
0.576167 -0.393105 0.0
0.581892 -0.409407 0.0
0.583894 -0.411417 0.0
0.588830 -0.396902 0.0
0.603699 -0.362523 0.0
0.633150 -0.306422 0.0
0.677557 -0.230754 0.0
0.733293 -0.141979 0.0
0.794370 -0.049135 0.0
0.852150 0.035777 0.0
0.900267 0.106416 0.0
0.937576 0.163886 0.0
0.964153 0.209654 0.0
0.980262 0.245228 0.0
0.986181 0.272317 0.0
0.982194 0.292943 0.0
0.968808 0.309260 0.0
0.947267 0.322779 0.0
0.920178 0.332968 0.0
0.891700 0.336121 0.0
0.866747 0.326052 0.0
0.849378 0.297162 0.0
0.841506 0.247876 0.0
0.842898 0.181600 0.0
0.852184 0.104892 0.0
0.867718 0.025049 0.0
0.887346 -0.050112 0.0
0.908679 -0.115024 0.0
0.929821 -0.167486 0.0
0.949276 -0.207166 0.0
0.965901 -0.234897 0.0
0.978908 -0.252219 0.0
0.987893 -0.260994 0.0
0.992922 -0.263030 0.0
0.994636 -0.259661 0.0
0.994277 -0.251375 0.0
0.993564 -0.237673 0.0
0.994343 -0.217350 0.0
0.998133 -0.189180 0.0