# vtk DataFile Version 3.0
Vector Field
ASCII
DATASET RECTILINEAR_GRID
DIMENSIONS 100 26 1
X_COORDINATES 100 double
0.050000 0.150000 0.250000 0.350000 0.450000 0.550000 0.650000 0.750000 0.850000 0.950000 1.050000 1.150000 1.250000 1.350000 1.450000 1.550000 1.650000 1.750000 1.850000 1.950000 2.050000 2.150000 2.250000 2.350000 2.450000 2.550000 2.650000 2.750000 2.850000 2.950000 3.050000 3.150000 3.250000 3.350000 3.450000 3.550000 3.650000 3.750000 3.850000 3.950000 4.050000 4.150000 4.250000 4.350000 4.450000 4.550000 4.650000 4.750000 4.850000 4.950000 5.050000 5.150000 5.250000 5.350000 5.450000 5.550000 5.650000 5.750000 5.850000 5.950000 6.050000 6.150000 6.250000 6.350000 6.450000 6.550000 6.650000 6.750000 6.850000 6.950000 7.050000 7.150000 7.250000 7.350000 7.450000 7.550000 7.650000 7.750000 7.850000 7.950000 8.050000 8.150000 8.250000 8.350000 8.450000 8.550000 8.650000 8.750000 8.850000 8.950000 9.050000 9.150000 9.250000 9.350000 9.450000 9.550000 9.650000 9.750000 9.850000 9.950000 
Y_COORDINATES 26 double
0.050000 0.150000 0.250000 0.350000 0.450000 0.550000 0.650000 0.750000 0.850000 0.950000 1.050000 1.150000 1.250000 1.350000 1.450000 1.550000 1.650000 1.750000 1.850000 1.950000 2.050000 2.150000 2.250000 2.350000 2.450000 2.550000 
Z_COORDINATES 1 double
0.0
POINT_DATA 2600
VECTORS Vektorfeld double
0.997620 0.002380 0.0
0.992664 0.002576 0.0
0.988895 0.001194 0.0
0.988583 -0.000883 0.0
0.992738 -0.003272 0.0
1.001728 -0.005718 0.0
1.015425 -0.007979 0.0
1.033211 -0.009806 0.0
1.053989 -0.010973 0.0
1.076297 -0.011335 0.0
1.098522 -0.010891 0.0
1.119177 -0.009764 0.0
1.137076 -0.008136 0.0
1.151388 -0.006176 0.0
1.161571 -0.004007 0.0
1.167297 -0.001719 0.0
1.168490 0.000527 0.0
1.165116 0.002847 0.0
1.156906 0.005363 0.0
1.143446 0.008097 0.0
1.124338 0.011011 0.0
1.099310 0.014017 0.0
1.068304 0.016988 0.0
1.031542 0.019773 0.0
0.989556 0.022213 0.0
0.943182 0.024161 0.0
0.893529 0.025491 0.0
0.841930 0.026108 0.0
0.789879 0.025943 0.0
0.738972 0.024963 0.0
0.690844 0.023166 0.0
0.647085 0.020593 0.0
0.609162 0.017329 0.0
0.578337 0.013496 0.0
0.555688 0.009152 0.0
0.542418 0.004118 0.0
0.539630 -0.001331 0.0
0.546385 -0.005425 0.0
0.559585 -0.007775 0.0
0.575955 -0.008594 0.0
0.592716 -0.008168 0.0
0.607644 -0.006760 0.0
0.619080 -0.004675 0.0
0.626029 -0.002274 0.0
0.627878 0.000425 0.0
0.623375 0.004079 0.0
0.610929 0.008367 0.0
0.589753 0.012809 0.0
0.560009 0.016935 0.0
0.522760 0.020315 0.0
0.479997 0.022448 0.0
0.434947 0.022602 0.0
0.392352 0.019993 0.0
0.357771 0.014588 0.0
0.335378 0.007805 0.0
0.325651 0.001921 0.0
0.325107 -0.001377 0.0
0.329124 -0.002640 0.0
0.335042 -0.003279 0.0
0.342126 -0.003805 0.0
0.349905 -0.003974 0.0
0.357663 -0.003785 0.0
0.364779 -0.003331 0.0
0.370820 -0.002710 0.0
0.375537 -0.002007 0.0
0.378831 -0.001287 0.0
0.380694 -0.000576 0.0
0.381031 0.000239 0.0
0.379431 0.001361 0.0
0.375460 0.002611 0.0
0.369159 0.003690 0.0
0.361070 0.004399 0.0
0.352074 0.004598 0.0
0.343243 0.004233 0.0
0.335632 0.003379 0.0
0.329996 0.002257 0.0
0.326557 0.001182 0.0
0.324914 0.000460 0.0
0.324179 0.000275 0.0
0.323281 0.000623 0.0
0.321333 0.001325 0.0
0.317921 0.002088 0.0
0.313202 0.002631 0.0
0.307778 0.002793 0.0
0.302409 0.002577 0.0
0.297703 0.002129 0.0
0.293936 0.001639 0.0
0.291057 0.001241 0.0
0.288841 0.000975 0.0
0.287080 0.000786 0.0
0.285784 0.000511 0.0
0.285275 -0.000003 0.0
0.285890 -0.000612 0.0
0.287603 -0.001101 0.0
0.290069 -0.001365 0.0
0.292792 -0.001358 0.0
0.295239 -0.001089 0.0
0.296959 -0.000631 0.0
0.297759 -0.000169 0.0
0.297097 0.000830 0.0
1.002910 0.001850 0.0
1.011233 -0.000261 0.0
1.024048 -0.005015 0.0
1.040830 -0.011145 0.0
1.061615 -0.017949 0.0
1.086427 -0.024842 0.0
1.115062 -0.031187 0.0
1.146959 -0.036280 0.0
1.181134 -0.039453 0.0
1.216228 -0.040257 0.0
1.250741 -0.038707 0.0
1.283361 -0.035222 0.0
1.313166 -0.030382 0.0
1.339635 -0.024710 0.0
1.362536 -0.018557 0.0
1.381739 -0.012098 0.0
1.396876 -0.005424 0.0
1.407397 0.001650 0.0
1.412829 0.009338 0.0
1.412690 0.017722 0.0
1.406492 0.026693 0.0
1.393872 0.035983 0.0
1.374705 0.045195 0.0
1.349181 0.053853 0.0
1.317830 0.061471 0.0
1.281504 0.067604 0.0
1.241328 0.071877 0.0
1.198651 0.073999 0.0
1.154984 0.073770 0.0
1.111942 0.071083 0.0
1.071179 0.065937 0.0
1.034306 0.058454 0.0
1.002811 0.048886 0.0
0.977973 0.037603 0.0
0.960695 0.024971 0.0
0.950970 0.011294 0.0
0.947592 -0.002341 0.0
0.949767 -0.013344 0.0
0.957721 -0.021009 0.0
0.971464 -0.025472 0.0
0.990337 -0.026925 0.0
1.012835 -0.025430 0.0
1.036439 -0.021045 0.0
1.057551 -0.013965 0.0
1.072227 -0.004410 0.0
1.078084 0.007561 0.0
1.074275 0.021139 0.0
1.060526 0.034961 0.0
1.037388 0.047665 0.0
1.006251 0.057971 0.0
0.969271 0.064535 0.0
0.929006 0.065830 0.0
0.887697 0.060669 0.0
0.846579 0.049612 0.0
0.806031 0.035722 0.0
0.766911 0.022851 0.0
0.732405 0.012744 0.0
0.707403 0.004223 0.0
0.694802 -0.003460 0.0
0.693107 -0.009012 0.0
0.698680 -0.012118 0.0
0.708874 -0.013593 0.0
0.722140 -0.013903 0.0
0.737287 -0.013325 0.0
0.753199 -0.012023 0.0
0.768696 -0.010062 0.0
0.782481 -0.007448 0.0
0.793426 -0.004170 0.0
0.801221 -0.000426 0.0
0.806378 0.003212 0.0
0.809499 0.006269 0.0
0.811087 0.008319 0.0
0.811647 0.009115 0.0
0.811509 0.008684 0.0
0.810661 0.007386 0.0
0.808700 0.005846 0.0
0.804956 0.004776 0.0
0.798759 0.004707 0.0
0.789719 0.005802 0.0
0.777907 0.007806 0.0
0.763869 0.010129 0.0
0.748549 0.012016 0.0
0.733150 0.012820 0.0
0.718932 0.012246 0.0
0.706959 0.010465 0.0
0.697877 0.008028 0.0
0.691797 0.005586 0.0
0.688396 0.003573 0.0
0.687219 0.002036 0.0
0.687985 0.000719 0.0
0.690450 -0.000590 0.0
0.694130 -0.002073 0.0
0.698559 -0.003586 0.0
0.703449 -0.004731 0.0
0.708501 -0.005253 0.0
0.713301 -0.004992 0.0
0.717320 -0.003920 0.0
0.719979 -0.002179 0.0
0.720678 -0.000120 0.0
0.719663 0.002458 0.0
1.001814 -0.002875 0.0
1.008284 -0.010329 0.0
1.020056 -0.019534 0.0
1.036690 -0.030041 0.0
1.058172 -0.041320 0.0
1.084565 -0.052677 0.0
1.115743 -0.063166 0.0
1.151148 -0.071601 0.0
1.189606 -0.076764 0.0
1.229263 -0.077699 0.0
1.267990 -0.074505 0.0
1.304078 -0.068131 0.0
1.336555 -0.059754 0.0
1.365090 -0.050343 0.0
1.389743 -0.040479 0.0
1.410704 -0.030340 0.0
1.428121 -0.019735 0.0
1.441928 -0.008367 0.0
1.451789 0.004062 0.0
1.457187 0.017739 0.0
1.457540 0.032521 0.0
1.452346 0.047968 0.0
1.441336 0.063386 0.0
1.424564 0.077957 0.0
1.402414 0.090868 0.0
1.375557 0.101391 0.0
1.344895 0.108928 0.0
1.311493 0.113027 0.0
1.276524 0.113379 0.0
1.241215 0.109825 0.0
1.206796 0.102378 0.0
1.174441 0.091241 0.0
1.145200 0.076835 0.0
1.119904 0.059788 0.0
1.099039 0.040929 0.0
1.082687 0.021414 0.0
1.070854 0.002750 0.0
1.064164 -0.013920 0.0
1.063731 -0.027956 0.0
1.070444 -0.038982 0.0
1.084554 -0.046398 0.0
1.105409 -0.049309 0.0
1.131374 -0.046735 0.0
1.159930 -0.037943 0.0
1.187815 -0.022993 0.0
1.211419 -0.003317 0.0
1.228085 0.019160 0.0
1.236554 0.042220 0.0
1.236402 0.063696 0.0
1.227921 0.081556 0.0
1.211936 0.093915 0.0
1.189447 0.099204 0.0
1.161267 0.096784 0.0
1.128119 0.087764 0.0
1.091365 0.074871 0.0
1.053520 0.060667 0.0
1.017171 0.045783 0.0
0.983181 0.030176 0.0
0.951205 0.015164 0.0
0.922815 0.002449 0.0
0.901421 -0.007759 0.0
0.888500 -0.015226 0.0
0.882939 -0.019976 0.0
0.883057 -0.022517 0.0
0.887470 -0.023156 0.0
0.895066 -0.022021 0.0
0.904989 -0.019198 0.0
0.916591 -0.014967 0.0
0.929206 -0.010039 0.0
0.942089 -0.005215 0.0
0.954815 -0.001150 0.0
0.967344 0.001621 0.0
0.979695 0.002903 0.0
0.991782 0.002948 0.0
1.003329 0.002423 0.0
1.013889 0.002210 0.0
1.022946 0.003100 0.0
1.030007 0.005520 0.0
1.034658 0.009377 0.0
1.036606 0.014094 0.0
1.035627 0.018858 0.0
1.031510 0.022724 0.0
1.024095 0.024925 0.0
1.013286 0.025169 0.0
0.999152 0.023650 0.0
0.982147 0.020930 0.0
0.963302 0.017610 0.0
0.944221 0.014032 0.0
0.926776 0.010199 0.0
0.912603 0.005961 0.0
0.902926 0.001380 0.0
0.898357 -0.003153 0.0
0.898365 -0.006943 0.0
0.901730 -0.009629 0.0
0.907411 -0.011088 0.0
0.914543 -0.011090 0.0
0.922205 -0.009502 0.0
0.929307 -0.006358 0.0
0.934585 -0.001920 0.0
0.936290 0.003567 0.0
1.001425 -0.006114 0.0
1.006957 -0.019092 0.0
1.017771 -0.033357 0.0
1.033875 -0.048955 0.0
1.055560 -0.065574 0.0
1.083228 -0.082485 0.0
1.117105 -0.098413 0.0
1.156835 -0.111488 0.0
1.201101 -0.119602 0.0
1.247075 -0.120491 0.0
1.291215 -0.114579 0.0
1.331072 -0.104002 0.0
1.365713 -0.091002 0.0
1.395268 -0.077185 0.0
1.420361 -0.063383 0.0
1.441702 -0.049738 0.0
1.459796 -0.035848 0.0
1.474747 -0.021013 0.0
1.486156 -0.004562 0.0
1.493285 0.013835 0.0
1.495320 0.034037 0.0
1.491585 0.055383 0.0
1.481754 0.076812 0.0
1.465955 0.097103 0.0
1.444731 0.115098 0.0
1.418918 0.129831 0.0
1.389504 0.140563 0.0
1.357525 0.146772 0.0
1.324000 0.148128 0.0
1.289898 0.144487 0.0
1.256125 0.135908 0.0
1.223512 0.122678 0.0
1.192811 0.105342 0.0
1.164676 0.084713 0.0
1.139684 0.061861 0.0
1.118447 0.038071 0.0
1.101810 0.014563 0.0
1.090872 -0.008104 0.0
1.086866 -0.029333 0.0
1.090853 -0.048303 0.0
1.103304 -0.063638 0.0
1.123909 -0.073529 0.0
1.151601 -0.076172 0.0
1.184670 -0.070131 0.0
1.220730 -0.054751 0.0
1.256472 -0.030905 0.0
1.287858 -0.001303 0.0
1.311848 0.030224 0.0
1.327425 0.060266 0.0
1.334617 0.086276 0.0
1.333692 0.106105 0.0
1.324964 0.118231 0.0
1.308740 0.122161 0.0
1.285562 0.118713 0.0
1.256581 0.109657 0.0
1.223552 0.096757 0.0
1.188304 0.081291 0.0
1.152422 0.064539 0.0
1.117421 0.047779 0.0
1.084269 0.031377 0.0
1.053063 0.015915 0.0
1.024593 0.002493 0.0
1.000878 -0.008420 0.0
0.983211 -0.016523 0.0
0.971324 -0.021677 0.0
0.964291 -0.024064 0.0
0.961156 -0.023944 0.0
0.961081 -0.021749 0.0
0.963429 -0.018219 0.0
0.967844 -0.014333 0.0
0.974245 -0.011159 0.0
0.982770 -0.009425 0.0
0.993726 -0.009359 0.0
1.007466 -0.010617 0.0
1.024258 -0.012353 0.0
1.044119 -0.013435 0.0
1.066603 -0.012795 0.0
1.090690 -0.009734 0.0
1.114817 -0.004147 0.0
1.137079 0.003409 0.0
1.155746 0.011856 0.0
1.169648 0.019942 0.0
1.178042 0.026727 0.0
1.180420 0.031798 0.0
1.176619 0.034956 0.0
1.167003 0.036243 0.0
1.152433 0.035711 0.0
1.134117 0.033328 0.0
1.113401 0.029065 0.0
1.091604 0.023065 0.0
1.069882 0.015675 0.0
1.049396 0.007607 0.0
1.031927 -0.000243 0.0
1.019387 -0.007155 0.0
1.012376 -0.012232 0.0
1.010171 -0.014873 0.0
1.011563 -0.014774 0.0
1.015109 -0.011734 0.0
1.019095 -0.005807 0.0
1.020264 0.004580 0.0
1.001223 -0.008761 0.0
1.006120 -0.026874 0.0
1.016047 -0.046316 0.0
1.031430 -0.067483 0.0
1.053046 -0.090347 0.0
1.081921 -0.114254 0.0
1.119029 -0.137629 0.0
1.164637 -0.157609 0.0
1.217713 -0.170823 0.0
1.273339 -0.170870 0.0
1.324671 -0.159672 0.0
1.368200 -0.142295 0.0
1.403670 -0.122820 0.0
1.432366 -0.103617 0.0
1.455993 -0.085672 0.0
1.476136 -0.068934 0.0
1.493941 -0.052551 0.0
1.509832 -0.035151 0.0
1.523274 -0.015275 0.0
1.532863 0.007829 0.0
1.536980 0.033890 0.0
1.534359 0.061886 0.0
1.524374 0.090124 0.0
1.507203 0.116761 0.0
1.483665 0.140201 0.0
1.454952 0.159255 0.0
1.422371 0.173134 0.0
1.387181 0.181370 0.0
1.350506 0.183730 0.0
1.313317 0.180177 0.0
1.276449 0.170859 0.0
1.240649 0.156139 0.0
1.206619 0.136613 0.0
1.175063 0.113132 0.0
1.146735 0.086761 0.0
1.122465 0.058677 0.0
1.103153 0.029906 0.0
1.089651 0.000993 0.0
1.082737 -0.027510 0.0
1.083067 -0.054443 0.0
1.091005 -0.077889 0.0
1.106655 -0.095532 0.0
1.130064 -0.105270 0.0
1.161277 -0.105314 0.0
1.199846 -0.094198 0.0
1.243957 -0.071311 0.0
1.289579 -0.037905 0.0
1.330449 0.001966 0.0
1.361502 0.041894 0.0
1.381721 0.077237 0.0
1.392006 0.105783 0.0
1.393149 0.126138 0.0
1.385788 0.137839 0.0
1.370606 0.141395 0.0
1.348555 0.138007 0.0
1.320890 0.129100 0.0
1.289010 0.116075 0.0
1.254335 0.100311 0.0
1.218270 0.083073 0.0
1.182117 0.065388 0.0
1.147064 0.048163 0.0
1.113976 0.031802 0.0
1.083186 0.016774 0.0
1.055174 0.003964 0.0
1.030857 -0.005961 0.0
1.010687 -0.012577 0.0
0.994183 -0.015790 0.0
0.980422 -0.016067 0.0
0.968623 -0.014450 0.0
0.958491 -0.012385 0.0
0.950368 -0.011384 0.0
0.945194 -0.012552 0.0
0.944246 -0.016241 0.0
0.948785 -0.022014 0.0
0.959768 -0.028731 0.0
0.977657 -0.034806 0.0
1.002382 -0.038632 0.0
1.033369 -0.038971 0.0
1.069505 -0.035173 0.0
1.108971 -0.027293 0.0
1.148992 -0.016130 0.0
1.185956 -0.002938 0.0
1.216402 0.010767 0.0
1.238406 0.023376 0.0
1.251707 0.033878 0.0
1.256727 0.041917 0.0
1.254182 0.047151 0.0
1.245061 0.049325 0.0
1.230517 0.048328 0.0
1.211822 0.044293 0.0
1.190364 0.037627 0.0
1.167594 0.028911 0.0
1.144744 0.018772 0.0
1.122797 0.008317 0.0
1.103095 -0.000989 0.0
1.087090 -0.007905 0.0
1.075305 -0.011349 0.0
1.067199 -0.010598 0.0
1.061597 -0.005326 0.0
1.056598 0.007930 0.0
1.001021 -0.011005 0.0
1.005177 -0.033683 0.0
1.013825 -0.058082 0.0
1.027763 -0.085038 0.0
1.048347 -0.114994 0.0
1.077526 -0.147662 0.0
1.117635 -0.181439 0.0
1.170453 -0.212225 0.0
1.236942 -0.235773 0.0
1.306904 -0.231510 0.0
1.365479 -0.208939 0.0
1.409100 -0.180178 0.0
1.440388 -0.151695 0.0
1.463097 -0.126147 0.0
1.480590 -0.104262 0.0
1.495643 -0.085540 0.0
1.510363 -0.068469 0.0
1.525912 -0.050673 0.0
1.541992 -0.029274 0.0
1.556244 -0.002013 0.0
1.565192 0.030668 0.0
1.566114 0.066807 0.0
1.557764 0.103538 0.0
1.540300 0.137982 0.0
1.514893 0.167924 0.0
1.483192 0.191947 0.0
1.446913 0.209302 0.0
1.407618 0.219687 0.0
1.366631 0.223074 0.0
1.325051 0.219603 0.0
1.283800 0.209552 0.0
1.243697 0.193348 0.0
1.205542 0.171589 0.0
1.170178 0.145076 0.0
1.138502 0.114821 0.0
1.111361 0.082028 0.0
1.089251 0.047976 0.0
1.071948 0.013728 0.0
1.058698 -0.020081 0.0
1.049137 -0.052640 0.0
1.043760 -0.082253 0.0
1.043877 -0.106935 0.0
1.051710 -0.125111 0.0
1.070002 -0.134978 0.0
1.100895 -0.133995 0.0
1.144787 -0.119518 0.0
1.199585 -0.090118 0.0
1.260001 -0.047107 0.0
1.316418 0.003498 0.0
1.359895 0.051938 0.0
1.388544 0.092148 0.0
1.404266 0.122908 0.0
1.408726 0.143969 0.0
1.403351 0.155823 0.0
1.389482 0.159500 0.0
1.368456 0.156297 0.0
1.341620 0.147595 0.0
1.310316 0.134771 0.0
1.275873 0.119120 0.0
1.239583 0.101785 0.0
1.202659 0.083743 0.0
1.166185 0.065785 0.0
1.131073 0.048692 0.0
1.097942 0.033189 0.0
1.066901 0.020172 0.0
1.037626 0.010734 0.0
1.009571 0.005458 0.0
0.982130 0.003887 0.0
0.955094 0.004431 0.0
0.929191 0.004770 0.0
0.906143 0.002632 0.0
0.888190 -0.003440 0.0
0.877523 -0.013738 0.0
0.875719 -0.027252 0.0
0.883264 -0.042021 0.0
0.899672 -0.055815 0.0
0.923994 -0.066671 0.0
0.955201 -0.073126 0.0
0.992300 -0.074252 0.0
1.034245 -0.069624 0.0
1.079735 -0.059310 0.0
1.126952 -0.043940 0.0
1.173179 -0.024904 0.0
1.214538 -0.004316 0.0
1.247243 0.015564 0.0
1.269801 0.032655 0.0
1.282670 0.046089 0.0
1.286730 0.055448 0.0
1.282995 0.060484 0.0
1.272622 0.061205 0.0
1.256899 0.057897 0.0
1.237192 0.051118 0.0
1.214891 0.041716 0.0
1.191372 0.030837 0.0
1.167831 0.019734 0.0
1.145191 0.010017 0.0
1.124307 0.003397 0.0
1.105872 0.001197 0.0
1.090177 0.004174 0.0
1.078016 0.015590 0.0
1.000740 -0.012767 0.0
1.003792 -0.039129 0.0
1.010336 -0.067828 0.0
1.021418 -0.100311 0.0
1.038940 -0.137826 0.0
1.065973 -0.181041 0.0
1.106995 -0.229189 0.0
1.167036 -0.277333 0.0
1.254031 -0.324149 0.0
1.343170 -0.302235 0.0
1.401873 -0.255492 0.0
1.433917 -0.209290 0.0
1.449903 -0.169857 0.0
1.457169 -0.137960 0.0
1.460481 -0.113253 0.0
1.463488 -0.094609 0.0
1.469262 -0.079894 0.0
1.480235 -0.065771 0.0
1.497507 -0.047527 0.0
1.519160 -0.019666 0.0
1.538565 0.019969 0.0
1.548926 0.066223 0.0
1.547576 0.113821 0.0
1.534615 0.158124 0.0
1.511717 0.196087 0.0
1.481059 0.226142 0.0
1.444724 0.247720 0.0
1.404482 0.260806 0.0
1.361783 0.265641 0.0
1.317820 0.262578 0.0
1.273618 0.252030 0.0
1.230121 0.234471 0.0
1.188271 0.210471 0.0
1.149073 0.180757 0.0
1.113554 0.146334 0.0
1.082497 0.108714 0.0
1.055778 0.070119 0.0
1.031597 0.033069 0.0
1.006544 -0.001120 0.0
0.978214 -0.033710 0.0
0.948540 -0.066132 0.0
0.923173 -0.097806 0.0
0.908783 -0.127683 0.0
0.910800 -0.152716 0.0
0.931702 -0.168052 0.0
0.971170 -0.168822 0.0
1.027120 -0.151561 0.0
1.096181 -0.115140 0.0
1.173070 -0.061776 0.0
1.246981 -0.000175 0.0
1.305735 0.056856 0.0
1.346025 0.102189 0.0
1.370482 0.135771 0.0
1.381472 0.158404 0.0
1.381001 0.171258 0.0
1.370859 0.175707 0.0
1.352685 0.173195 0.0
1.328013 0.165148 0.0
1.298283 0.152914 0.0
1.264851 0.137712 0.0
1.228972 0.120618 0.0
1.191753 0.102603 0.0
1.154066 0.084673 0.0
1.116383 0.068022 0.0
1.078630 0.054134 0.0
1.040249 0.044427 0.0
1.000632 0.039437 0.0
0.959890 0.038092 0.0
0.919519 0.037632 0.0
0.882388 0.034603 0.0
0.851914 0.026321 0.0
0.830900 0.011839 0.0
0.820656 -0.008105 0.0
0.821003 -0.031429 0.0
0.830808 -0.055194 0.0
0.848539 -0.076781 0.0
0.872801 -0.094287 0.0
0.902538 -0.106454 0.0
0.937007 -0.112493 0.0
0.975630 -0.111951 0.0
1.017811 -0.104654 0.0
1.062747 -0.090748 0.0
1.109233 -0.070810 0.0
1.155492 -0.046027 0.0
1.198769 -0.018708 0.0
1.235185 0.007952 0.0
1.262011 0.031096 0.0
1.279003 0.049390 0.0
1.286860 0.062421 0.0
1.286469 0.070031 0.0
1.278894 0.072369 0.0
1.265330 0.069918 0.0
1.247043 0.063506 0.0
1.225312 0.054297 0.0
1.201369 0.043758 0.0
1.176384 0.033618 0.0
1.151471 0.025593 0.0
1.127746 0.021162 0.0
1.106440 0.021209 0.0
1.089940 0.027216 0.0
1.000339 -0.013847 0.0
1.001773 -0.042535 0.0
1.005042 -0.074235 0.0
1.011189 -0.111134 0.0
1.022318 -0.155654 0.0
1.042378 -0.210307 0.0
1.078450 -0.277018 0.0
1.141534 -0.352630 0.0
1.257579 -0.451893 0.0
1.364360 -0.370411 0.0
1.398055 -0.279713 0.0
1.394787 -0.213845 0.0
1.379160 -0.165660 0.0
1.359590 -0.129854 0.0
1.339575 -0.104656 0.0
1.322052 -0.088689 0.0
1.310244 -0.079779 0.0
1.307929 -0.074545 0.0
1.319151 -0.067246 0.0
1.346226 -0.048675 0.0
1.383928 -0.008130 0.0
1.417087 0.050803 0.0
1.435103 0.112575 0.0
1.438082 0.169351 0.0
1.428588 0.217252 0.0
1.409340 0.254882 0.0
1.382560 0.282095 0.0
1.349970 0.299263 0.0
1.312952 0.306902 0.0
1.272694 0.305538 0.0
1.230290 0.295676 0.0
1.186800 0.277813 0.0
1.143290 0.252488 0.0
1.100829 0.220399 0.0
1.060336 0.182702 0.0
1.022074 0.141666 0.0
0.984636 0.101324 0.0
0.944319 0.066363 0.0
0.897026 0.037932 0.0
0.842296 0.010299 0.0
0.786847 -0.025018 0.0
0.744135 -0.070842 0.0
0.724683 -0.120805 0.0
0.729342 -0.166269 0.0
0.754063 -0.200121 0.0
0.795029 -0.217187 0.0
0.849886 -0.214003 0.0
0.917013 -0.188887 0.0
0.994492 -0.142398 0.0
1.079094 -0.078065 0.0
1.161667 -0.006582 0.0
1.229394 0.057611 0.0
1.277751 0.107536 0.0
1.309265 0.144136 0.0
1.326340 0.168922 0.0
1.331051 0.183475 0.0
1.325265 0.189386 0.0
1.310699 0.188196 0.0
1.288938 0.181357 0.0
1.261438 0.170200 0.0
1.229502 0.155946 0.0
1.194208 0.139789 0.0
1.156293 0.123090 0.0
1.116020 0.107561 0.0
1.073199 0.095169 0.0
1.027573 0.087398 0.0
0.979568 0.084088 0.0
0.931016 0.082736 0.0
0.885237 0.079138 0.0
0.846199 0.069266 0.0
0.817209 0.051122 0.0
0.799943 0.025318 0.0
0.794267 -0.005664 0.0
0.798625 -0.038576 0.0
0.810898 -0.070125 0.0
0.829234 -0.097917 0.0
0.852285 -0.120464 0.0
0.879176 -0.136905 0.0
0.909398 -0.146732 0.0
0.942678 -0.149614 0.0
0.978830 -0.145325 0.0
1.017596 -0.133779 0.0
1.058489 -0.115158 0.0
1.100658 -0.090107 0.0
1.142740 -0.059987 0.0
1.182667 -0.027111 0.0
1.217172 0.004828 0.0
1.243395 0.032444 0.0
1.260601 0.054303 0.0
1.269151 0.069990 0.0
1.269702 0.079434 0.0
1.263142 0.082976 0.0
1.250514 0.081363 0.0
1.232947 0.075737 0.0
1.211616 0.067591 0.0
1.187744 0.058643 0.0
1.162636 0.050590 0.0
1.137759 0.044768 0.0
1.114844 0.041824 0.0
1.096817 0.041127 0.0
0.999818 -0.014005 0.0
0.999113 -0.043105 0.0
0.997882 -0.075703 0.0
0.996720 -0.114651 0.0
0.997113 -0.163659 0.0
1.002588 -0.227836 0.0
1.021385 -0.314359 0.0
1.071884 -0.428870 0.0
1.214591 -0.634405 0.0
1.312430 -0.392519 0.0
1.266527 -0.245397 0.0
1.197096 -0.175463 0.0
1.138222 -0.129541 0.0
1.087136 -0.095318 0.0
1.040438 -0.072478 0.0
0.998176 -0.061082 0.0
0.962701 -0.060104 0.0
0.939370 -0.068574 0.0
0.936913 -0.081984 0.0
0.963533 -0.087631 0.0
1.021385 -0.064727 0.0
1.095689 -0.000063 0.0
1.158819 0.082295 0.0
1.199513 0.155957 0.0
1.222773 0.216880 0.0
1.232430 0.264846 0.0
1.230782 0.300559 0.0
1.219353 0.324818 0.0
1.199402 0.338315 0.0
1.172144 0.341640 0.0
1.138800 0.335324 0.0
1.100550 0.319905 0.0
1.058391 0.296064 0.0
1.012649 0.265027 0.0
0.961861 0.229354 0.0
0.901782 0.193355 0.0
0.827621 0.161233 0.0
0.741336 0.133057 0.0
0.656843 0.103025 0.0
0.593659 0.063119 0.0
0.563182 0.008088 0.0
0.561617 -0.059670 0.0
0.577830 -0.128738 0.0
0.604014 -0.189178 0.0
0.637293 -0.235211 0.0
0.677578 -0.263349 0.0
0.725902 -0.271023 0.0
0.783362 -0.256454 0.0
0.850354 -0.219300 0.0
0.926079 -0.161490 0.0
1.008184 -0.087835 0.0
1.088955 -0.009634 0.0
1.156700 0.058678 0.0
1.206672 0.111508 0.0
1.240724 0.150423 0.0
1.260764 0.177224 0.0
1.268547 0.193640 0.0
1.265733 0.201323 0.0
1.253886 0.201839 0.0
1.234447 0.196656 0.0
1.208684 0.187189 0.0
1.177595 0.174929 0.0
1.141804 0.161655 0.0
1.101548 0.149525 0.0
1.056937 0.140638 0.0
1.008572 0.135921 0.0
0.958257 0.133884 0.0
0.909271 0.130478 0.0
0.865741 0.120704 0.0
0.831370 0.101108 0.0
0.808290 0.071349 0.0
0.796745 0.033901 0.0
0.795554 -0.007380 0.0
0.802738 -0.048401 0.0
0.816179 -0.086014 0.0
0.834123 -0.118308 0.0
0.855289 -0.144290 0.0
0.878843 -0.163526 0.0
0.904355 -0.175846 0.0
0.931714 -0.181138 0.0
0.961003 -0.179242 0.0
0.992348 -0.169972 0.0
1.025741 -0.153251 0.0
1.060898 -0.129339 0.0
1.097138 -0.099077 0.0
1.133295 -0.064104 0.0
1.167607 -0.026996 0.0
1.197303 0.008350 0.0
1.219949 0.038545 0.0
1.234769 0.062378 0.0
1.241842 0.079423 0.0
1.241624 0.089766 0.0
1.234832 0.093992 0.0
1.222365 0.093141 0.0
1.205258 0.088624 0.0
1.184682 0.082057 0.0
1.161989 0.074977 0.0
1.138783 0.068463 0.0
1.116981 0.062845 0.0
1.099491 0.055623 0.0
0.999232 -0.013055 0.0
0.996091 -0.040209 0.0
0.989592 -0.070869 0.0
0.979380 -0.108111 0.0
0.965146 -0.156358 0.0
0.947274 -0.222739 0.0
0.929111 -0.320091 0.0
0.925492 -0.470018 0.0
1.019158 -0.829631 0.0
1.016474 -0.191988 0.0
0.831229 -0.104019 0.0
0.688590 -0.094466 0.0
0.606338 -0.069411 0.0
0.543152 -0.041176 0.0
0.483839 -0.020608 0.0
0.431179 -0.018031 0.0
0.397387 -0.033888 0.0
0.392159 -0.066230 0.0
0.418885 -0.108598 0.0
0.475763 -0.144515 0.0
0.558457 -0.148389 0.0
0.663341 -0.095589 0.0
0.773582 0.004449 0.0
0.863306 0.103385 0.0
0.927934 0.181564 0.0
0.974946 0.243494 0.0
1.006770 0.291734 0.0
1.024357 0.327486 0.0
1.028563 0.351393 0.0
1.020431 0.363951 0.0
1.001081 0.365707 0.0
0.971409 0.357443 0.0
0.931503 0.340591 0.0
0.879807 0.317939 0.0
0.813287 0.293751 0.0
0.731025 0.271300 0.0
0.640383 0.248091 0.0
0.558023 0.214843 0.0
0.501075 0.162681 0.0
0.476816 0.090905 0.0
0.480871 0.006725 0.0
0.502195 -0.078065 0.0
0.530570 -0.154931 0.0
0.560879 -0.219478 0.0
0.591926 -0.269236 0.0
0.624697 -0.302379 0.0
0.661373 -0.316994 0.0
0.704500 -0.311070 0.0
0.756081 -0.283257 0.0
0.816828 -0.234006 0.0
0.885837 -0.166433 0.0
0.960556 -0.086525 0.0
1.033869 -0.005489 0.0
1.095903 0.063668 0.0
1.142692 0.117421 0.0
1.175364 0.157514 0.0
1.195220 0.185710 0.0
1.203590 0.203695 0.0
1.201805 0.213099 0.0
1.191129 0.215511 0.0
1.172676 0.212551 0.0
1.147307 0.206024 0.0
1.115587 0.198071 0.0
1.077922 0.191031 0.0
1.035003 0.186662 0.0
0.988445 0.184820 0.0
0.941202 0.182543 0.0
0.897257 0.174751 0.0
0.860558 0.156660 0.0
0.833793 0.126288 0.0
0.817826 0.085217 0.0
0.811986 0.037418 0.0
0.814743 -0.012462 0.0
0.824205 -0.059966 0.0
0.838485 -0.102171 0.0
0.855955 -0.137565 0.0
0.875336 -0.165580 0.0
0.895752 -0.186206 0.0
0.916746 -0.199673 0.0
0.938269 -0.206193 0.0
0.960590 -0.205799 0.0
0.984146 -0.198316 0.0
1.009341 -0.183495 0.0
1.036357 -0.161267 0.0
1.065013 -0.132045 0.0
1.094688 -0.096970 0.0
1.124292 -0.058046 0.0
1.152182 -0.018186 0.0
1.175993 0.018624 0.0
1.193845 0.049627 0.0
1.205106 0.073839 0.0
1.209714 0.090961 0.0
1.207993 0.101312 0.0
1.200539 0.105743 0.0
1.188169 0.105500 0.0
1.171915 0.102011 0.0
1.153056 0.096575 0.0
1.133169 0.089960 0.0
1.114137 0.082182 0.0
1.098555 0.069358 0.0
0.998686 -0.010972 0.0
0.993272 -0.033738 0.0
0.981785 -0.059353 0.0
0.962736 -0.090366 0.0
0.933363 -0.130496 0.0
0.888575 -0.185941 0.0
0.818376 -0.268527 0.0
0.703202 -0.402788 0.0
0.315576 -0.703359 0.0
-0.461971 0.244894 0.0
-0.461971 0.000000 0.0
-0.032654 -0.022770 0.0
-0.062713 -0.038679 0.0
-0.048780 -0.022655 0.0
-0.015211 -0.013384 0.0
0.025392 -0.013199 0.0
0.054930 -0.034466 0.0
0.075865 -0.081359 0.0
0.101007 -0.145338 0.0
0.142190 -0.205835 0.0
0.206228 -0.233801 0.0
0.295114 -0.203947 0.0
0.407224 -0.109545 0.0
0.523598 0.011281 0.0
0.621127 0.111511 0.0
0.698106 0.189556 0.0
0.758588 0.253366 0.0
0.802333 0.304524 0.0
0.829208 0.343274 0.0
0.839542 0.369867 0.0
0.833726 0.384958 0.0
0.811670 0.389920 0.0
0.772424 0.387266 0.0
0.714975 0.380409 0.0
0.641556 0.371221 0.0
0.561915 0.355732 0.0
0.492679 0.323536 0.0
0.449046 0.265391 0.0
0.436229 0.181900 0.0
0.449183 0.082990 0.0
0.477775 -0.018007 0.0
0.512002 -0.108885 0.0
0.545670 -0.186154 0.0
0.576182 -0.249075 0.0
0.602925 -0.297428 0.0
0.626912 -0.330945 0.0
0.650578 -0.348770 0.0
0.677348 -0.349191 0.0
0.710749 -0.330118 0.0
0.753240 -0.290382 0.0
0.805353 -0.231179 0.0
0.865574 -0.156719 0.0
0.930741 -0.073774 0.0
0.993956 0.006705 0.0
1.047389 0.074163 0.0
1.088272 0.127218 0.0
1.117037 0.167386 0.0
1.134461 0.196226 0.0
1.141474 0.215341 0.0
1.139025 0.226393 0.0
1.127973 0.231175 0.0
1.109004 0.231738 0.0
1.082681 0.230400 0.0
1.049714 0.229333 0.0
1.011469 0.229524 0.0
0.970432 0.229552 0.0
0.930195 0.225291 0.0
0.894696 0.211446 0.0
0.867066 0.184294 0.0
0.848837 0.143648 0.0
0.839979 0.092682 0.0
0.839506 0.036266 0.0
0.845968 -0.020528 0.0
0.857666 -0.073061 0.0
0.872882 -0.118572 0.0
0.890069 -0.155820 0.0
0.907942 -0.184579 0.0
0.925565 -0.205245 0.0
0.942425 -0.218487 0.0
0.958463 -0.224940 0.0
0.974050 -0.224960 0.0
0.989858 -0.218518 0.0
1.006656 -0.205285 0.0
1.025069 -0.184906 0.0
1.045380 -0.157373 0.0
1.067418 -0.123355 0.0
1.090542 -0.084388 0.0
1.113670 -0.042863 0.0
1.135173 -0.002013 0.0
1.153127 0.034458 0.0
1.166192 0.064681 0.0
1.173830 0.087872 0.0
1.175957 0.103996 0.0
1.172834 0.113636 0.0
1.165011 0.117798 0.0
1.153317 0.117661 0.0
1.138871 0.114230 0.0
1.123104 0.107958 0.0
1.107725 0.098595 0.0
1.094875 0.081378 0.0
0.998304 -0.007961 0.0
0.991308 -0.024339 0.0
0.976391 -0.042348 0.0
0.951402 -0.063334 0.0
0.912201 -0.088955 0.0
0.850806 -0.121299 0.0
0.750535 -0.162700 0.0
0.572143 -0.215049 0.0
0.228228 -0.256850 0.0
0.000000 0.244894 0.0
-0.000000 -0.000000 0.0
0.000000 0.000000 0.0
-0.021871 -0.020637 0.0
-0.048675 -0.029060 0.0
-0.055764 -0.033460 0.0
-0.067895 -0.021596 0.0
-0.092069 -0.031433 0.0
-0.117367 -0.080029 0.0
-0.129864 -0.159313 0.0
-0.120610 -0.242296 0.0
-0.084863 -0.297126 0.0
-0.015638 -0.298733 0.0
0.088292 -0.230798 0.0
0.214770 -0.110318 0.0
0.338340 0.012012 0.0
0.440128 0.110288 0.0
0.520938 0.191343 0.0
0.583412 0.260328 0.0
0.626897 0.317109 0.0
0.650896 0.361699 0.0
0.654930 0.394909 0.0
0.638514 0.418441 0.0
0.602104 0.434402 0.0
0.549572 0.443253 0.0
0.490953 0.440416 0.0
0.441496 0.415635 0.0
0.414949 0.359415 0.0
0.416258 0.271835 0.0
0.441011 0.163521 0.0
0.480490 0.048935 0.0
0.524754 -0.056808 0.0
0.566647 -0.146204 0.0
0.603351 -0.219208 0.0
0.633464 -0.276646 0.0
0.656494 -0.319630 0.0
0.673031 -0.349267 0.0
0.685024 -0.366108 0.0
0.695907 -0.369506 0.0
0.710156 -0.357452 0.0
0.732089 -0.327473 0.0
0.764354 -0.278466 0.0
0.807011 -0.212312 0.0
0.857759 -0.134096 0.0
0.912675 -0.051105 0.0
0.965046 0.026169 0.0
1.008946 0.090429 0.0
1.042708 0.141648 0.0
1.066276 0.180972 0.0
1.080020 0.209839 0.0
1.084468 0.229897 0.0
1.080161 0.243032 0.0
1.067614 0.251397 0.0
1.047454 0.257224 0.0
1.020767 0.262163 0.0
0.989526 0.266181 0.0
0.956757 0.266700 0.0
0.926123 0.259016 0.0
0.900949 0.238394 0.0
0.883315 0.202610 0.0
0.873801 0.153076 0.0
0.871925 0.093988 0.0
0.876728 0.030629 0.0
0.886930 -0.031555 0.0
0.900942 -0.087743 0.0
0.917133 -0.135297 0.0
0.934030 -0.173180 0.0
0.950396 -0.201458 0.0
0.965304 -0.220897 0.0
0.978218 -0.232608 0.0
0.989055 -0.237696 0.0
0.998213 -0.236950 0.0
1.006503 -0.230627 0.0
1.014977 -0.218448 0.0
1.024665 -0.199844 0.0
1.036308 -0.174389 0.0
1.050178 -0.142247 0.0
1.066026 -0.104466 0.0
1.083131 -0.063017 0.0
1.100382 -0.020613 0.0
1.116206 0.019281 0.0
1.129077 0.053922 0.0
1.138071 0.081999 0.0
1.142742 0.103072 0.0
1.143028 0.117397 0.0
1.139200 0.125687 0.0
1.131846 0.128821 0.0
1.121872 0.127490 0.0
1.110489 0.121848 0.0
1.099136 0.111437 0.0
1.089454 0.091068 0.0
0.998162 -0.004427 0.0
0.990603 -0.013319 0.0
0.974580 -0.022429 0.0
0.948063 -0.031746 0.0
0.907454 -0.040733 0.0
0.846838 -0.047508 0.0
0.757383 -0.046763 0.0
0.628355 -0.023567 0.0
0.464610 0.062491 0.0
0.188330 0.170281 0.0
0.000000 0.000000 0.0
-0.000000 -0.000000 0.0
0.000000 0.000000 0.0
-0.013754 -0.012063 0.0
-0.049820 -0.008993 0.0
-0.110847 0.027095 0.0
-0.183057 0.016260 0.0
-0.237723 -0.047759 0.0
-0.264657 -0.152152 0.0
-0.264436 -0.258931 0.0
-0.243518 -0.337157 0.0
-0.203250 -0.368194 0.0
-0.132876 -0.335640 0.0
-0.023073 -0.241757 0.0
0.104182 -0.107374 0.0
0.218802 0.013264 0.0
0.312386 0.113972 0.0
0.385719 0.201891 0.0
0.439433 0.278347 0.0
0.472702 0.343193 0.0
0.485119 0.396963 0.0
0.477630 0.440290 0.0
0.454258 0.472335 0.0
0.423791 0.488318 0.0
0.399083 0.478678 0.0
0.392246 0.433668 0.0
0.408680 0.351496 0.0
0.445708 0.241417 0.0
0.496417 0.118476 0.0
0.552340 -0.001423 0.0
0.605310 -0.103685 0.0
0.651193 -0.187102 0.0
0.688974 -0.252796 0.0
0.717987 -0.302184 0.0
0.737922 -0.337058 0.0
0.748998 -0.359452 0.0
0.752309 -0.371229 0.0
0.750351 -0.373310 0.0
0.747315 -0.364860 0.0
0.748545 -0.343229 0.0
0.758942 -0.305371 0.0
0.781091 -0.250212 0.0
0.814405 -0.180258 0.0
0.855776 -0.101231 0.0
0.900481 -0.020781 0.0
0.942436 0.051524 0.0
0.977367 0.111860 0.0
1.004084 0.160475 0.0
1.022263 0.198414 0.0
1.031952 0.227184 0.0
1.033376 0.248628 0.0
1.026928 0.264795 0.0
1.013372 0.277542 0.0
0.994164 0.287740 0.0
0.971691 0.294319 0.0
0.949113 0.293909 0.0
0.929667 0.281887 0.0
0.915768 0.254596 0.0
0.908494 0.211316 0.0
0.907777 0.154600 0.0
0.912980 0.089137 0.0
0.923295 0.020362 0.0
0.937445 -0.045640 0.0