# vtk DataFile Version 3.0
Scalar Field
ASCII
DATASET RECTILINEAR_GRID
DIMENSIONS 100 26 1
X_COORDINATES 100 double
0.050000 0.150000 0.250000 0.350000 0.450000 0.550000 0.650000 0.750000 0.850000 0.950000 1.050000 1.150000 1.250000 1.350000 1.450000 1.550000 1.650000 1.750000 1.850000 1.950000 2.050000 2.150000 2.250000 2.350000 2.450000 2.550000 2.650000 2.750000 2.850000 2.950000 3.050000 3.150000 3.250000 3.350000 3.450000 3.550000 3.650000 3.750000 3.850000 3.950000 4.050000 4.150000 4.250000 4.350000 4.450000 4.550000 4.650000 4.750000 4.850000 4.950000 5.050000 5.150000 5.250000 5.350000 5.450000 5.550000 5.650000 5.750000 5.850000 5.950000 6.050000 6.150000 6.250000 6.350000 6.450000 6.550000 6.650000 6.750000 6.850000 6.950000 7.050000 7.150000 7.250000 7.350000 7.450000 7.550000 7.650000 7.750000 7.850000 7.950000 8.050000 8.150000 8.250000 8.350000 8.450000 8.550000 8.650000 8.750000 8.850000 8.950000 9.050000 9.150000 9.250000 9.350000 9.450000 9.550000 9.650000 9.750000 9.850000 9.950000 
Y_COORDINATES 26 double
0.050000 0.150000 0.250000 0.350000 0.450000 0.550000 0.650000 0.750000 0.850000 0.950000 1.050000 1.150000 1.250000 1.350000 1.450000 1.550000 1.650000 1.750000 1.850000 1.950000 2.050000 2.150000 2.250000 2.350000 2.450000 2.550000 
Z_COORDINATES 1 double
0.0
POINT_DATA 2600
SCALARS Skalarfeld double 1
LOOKUP_TABLE default
0.182531
0.167100
0.151530
0.132886
0.110244
0.083449
0.052906
0.019527
-0.015267
-0.049581
-0.081198
-0.107998
-0.128475
-0.141278
-0.146662
-0.145611
-0.139522
-0.129916
-0.118205
-0.105558
-0.092847
-0.080665
-0.069374
-0.059158
-0.050083
-0.042140
-0.035273
-0.029405
-0.024446
-0.020307
-0.016903
-0.014146
-0.011930
-0.010203
-0.008905
-0.007981
-0.007379
-0.007056
-0.006970
-0.007088
-0.007380
-0.007821
-0.008388
-0.009063
-0.009830
-0.010676
-0.011589
-0.012560
-0.013580
-0.014642
-0.015740
-0.016869
-0.018025
-0.019205
-0.020404
-0.021620
-0.022851
-0.024095
-0.025350
-0.026614
-0.027887
-0.029167
-0.030453
-0.031745
-0.033041
-0.034342
-0.035646
-0.036954
-0.038264
-0.039577
-0.040891
-0.042208
-0.043527
-0.044847
-0.046169
-0.047492
-0.048817
-0.050143
-0.051471
-0.052800
-0.054132
-0.055466
-0.056803
-0.058143
-0.059488
-0.060838
-0.062195
-0.063561
-0.064938
-0.066330
-0.067742
-0.069179
-0.070651
-0.072171
-0.073760
-0.075448
-0.077292
-0.079391
-0.081955
-0.083429
0.173940
0.167283
0.154590
0.136940
0.114361
0.086945
0.055114
0.019802
-0.017413
-0.054286
-0.088103
-0.116275
-0.136860
-0.149300
-0.153737
-0.151345
-0.143753
-0.132676
-0.119664
-0.105963
-0.092470
-0.079762
-0.068162
-0.057804
-0.048708
-0.040822
-0.034057
-0.028313
-0.023484
-0.019468
-0.016167
-0.013493
-0.011381
-0.009750
-0.008535
-0.007681
-0.007137
-0.006861
-0.006814
-0.006963
-0.007280
-0.007740
-0.008323
-0.009011
-0.009789
-0.010643
-0.011563
-0.012539
-0.013563
-0.014629
-0.015730
-0.016861
-0.018019
-0.019200
-0.020400
-0.021617
-0.022849
-0.024093
-0.025348
-0.026613
-0.027886
-0.029166
-0.030453
-0.031745
-0.033041
-0.034342
-0.035646
-0.036954
-0.038264
-0.039577
-0.040891
-0.042208
-0.043527
-0.044847
-0.046168
-0.047491
-0.048816
-0.050142
-0.051469
-0.052798
-0.054130
-0.055463
-0.056799
-0.058138
-0.059482
-0.060830
-0.062185
-0.063548
-0.064921
-0.066308
-0.067712
-0.069138
-0.070594
-0.072090
-0.073638
-0.075257
-0.076966
-0.078775
-0.080622
-0.082102
0.177613
0.173248
0.162245
0.145259
0.122385
0.093630
0.059257
0.020129
-0.021963
-0.064145
-0.102590
-0.133813
-0.155659
-0.167431
-0.169740
-0.164357
-0.153435
-0.139106
-0.123212
-0.107162
-0.091911
-0.078007
-0.065688
-0.054988
-0.045817
-0.038034
-0.031478
-0.025995
-0.021444
-0.017702
-0.014658
-0.012219
-0.010310
-0.008856
-0.007794
-0.007068
-0.006632
-0.006445
-0.006471
-0.006681
-0.007048
-0.007549
-0.008166
-0.008882
-0.009682
-0.010555
-0.011490
-0.012478
-0.013512
-0.014586
-0.015694
-0.016832
-0.017995
-0.019179
-0.020383
-0.021602
-0.022836
-0.024083
-0.025340
-0.026606
-0.027880
-0.029161
-0.030449
-0.031741
-0.033038
-0.034339
-0.035644
-0.036952
-0.038262
-0.039575
-0.040890
-0.042207
-0.043525
-0.044845
-0.046167
-0.047490
-0.048814
-0.050139
-0.051466
-0.052795
-0.054125
-0.055457
-0.056792
-0.058130
-0.059470
-0.060816
-0.062166
-0.063524
-0.064889
-0.066266
-0.067656
-0.069063
-0.070492
-0.071947
-0.073434
-0.074956
-0.076508
-0.078060
-0.079527
-0.080923
0.189346
0.185657
0.175410
0.158633
0.135026
0.104165
0.065852
0.020643
-0.029485
-0.080721
-0.126898
-0.162843
-0.186104
-0.196211
-0.194733
-0.184438
-0.168278
-0.148974
-0.128754
-0.109230
-0.091404
-0.075757
-0.062392
-0.051180
-0.041879
-0.034214
-0.027926
-0.022788
-0.018609
-0.015234
-0.012537
-0.010415
-0.008785
-0.007573
-0.006719
-0.006169
-0.005882
-0.005820
-0.005951
-0.006247
-0.006686
-0.007247
-0.007914
-0.008670
-0.009505
-0.010406
-0.011365
-0.012373
-0.013424
-0.014511
-0.015631
-0.016778
-0.017949
-0.019140
-0.020350
-0.021574
-0.022813
-0.024062
-0.025322
-0.026591
-0.027867
-0.029150
-0.030439
-0.031733
-0.033031
-0.034333
-0.035639
-0.036947
-0.038258
-0.039571
-0.040887
-0.042204
-0.043522
-0.044842
-0.046164
-0.047487
-0.048810
-0.050136
-0.051462
-0.052790
-0.054119
-0.055450
-0.056782
-0.058117
-0.059455
-0.060796
-0.062141
-0.063490
-0.064847
-0.066210
-0.067583
-0.068967
-0.070363
-0.071773
-0.073195
-0.074625
-0.076048
-0.077430
-0.078713
-0.080038
0.207860
0.204458
0.194655
0.177967
0.153486
0.119987
0.076294
0.022086
-0.040760
-0.107420
-0.166169
-0.208719
-0.232770
-0.238910
-0.230786
-0.212694
-0.188683
-0.162222
-0.135986
-0.111779
-0.090584
-0.072724
-0.058075
-0.046268
-0.036846
-0.029364
-0.023434
-0.018741
-0.015034
-0.012123
-0.009859
-0.008133
-0.006851
-0.005941
-0.005345
-0.005016
-0.004914
-0.005008
-0.005270
-0.005676
-0.006206
-0.006844
-0.007574
-0.008385
-0.009263
-0.010202
-0.011192
-0.012226
-0.013299
-0.014406
-0.015541
-0.016701
-0.017883
-0.019084
-0.020302
-0.021533
-0.022777
-0.024032
-0.025296
-0.026568
-0.027848
-0.029134
-0.030425
-0.031720
-0.033020
-0.034324
-0.035630
-0.036940
-0.038252
-0.039566
-0.040882
-0.042199
-0.043518
-0.044838
-0.046160
-0.047482
-0.048806
-0.050131
-0.051456
-0.052783
-0.054111
-0.055440
-0.056770
-0.058102
-0.059436
-0.060771
-0.062110
-0.063451
-0.064796
-0.066145
-0.067499
-0.068858
-0.070220
-0.071585
-0.072949
-0.074302
-0.075628
-0.076901
-0.078084
-0.079365
0.232620
0.229506
0.220332
0.204153
0.179281
0.143234
0.092984
0.026035
-0.056951
-0.151456
-0.230654
-0.281181
-0.303040
-0.300553
-0.281064
-0.250874
-0.215368
-0.178872
-0.144522
-0.114240
-0.088865
-0.068403
-0.052352
-0.039986
-0.030557
-0.023401
-0.017977
-0.013867
-0.010758
-0.008418
-0.006682
-0.005430
-0.004562
-0.004007
-0.003715
-0.003643
-0.003759
-0.004036
-0.004451
-0.004986
-0.005625
-0.006353
-0.007159
-0.008033
-0.008965
-0.009948
-0.010976
-0.012043
-0.013143
-0.014272
-0.015426
-0.016603
-0.017799
-0.019012
-0.020239
-0.021480
-0.022731
-0.023992
-0.025262
-0.026539
-0.027822
-0.029111
-0.030405
-0.031704
-0.033006
-0.034311
-0.035620
-0.036930
-0.038243
-0.039558
-0.040875
-0.042193
-0.043512
-0.044833
-0.046154
-0.047477
-0.048800
-0.050125
-0.051449
-0.052775
-0.054101
-0.055429
-0.056756
-0.058085
-0.059414
-0.060745
-0.062076
-0.063409
-0.064742
-0.066076
-0.067411
-0.068744
-0.070075
-0.071400
-0.072713
-0.074005
-0.075262
-0.076463
-0.077587
-0.078841
0.263087
0.260458
0.252536
0.237969
0.214203
0.177010
0.120142
0.036071
-0.079771
-0.229075
-0.340360
-0.396356
-0.406956
-0.387541
-0.349481
-0.301117
-0.249201
-0.198932
-0.153868
-0.115924
-0.085568
-0.062235
-0.044820
-0.032078
-0.022873
-0.016272
-0.011559
-0.008207
-0.005839
-0.004188
-0.003086
-0.002381
-0.001983
-0.001831
-0.001879
-0.002095
-0.002453
-0.002934
-0.003520
-0.004199
-0.004958
-0.005788
-0.006679
-0.007625
-0.008618
-0.009653
-0.010724
-0.011827
-0.012958
-0.014113
-0.015290
-0.016486
-0.017699
-0.018925
-0.020165
-0.021415
-0.022675
-0.023944
-0.025220
-0.026503
-0.027791
-0.029084
-0.030382
-0.031683
-0.032988
-0.034296
-0.035606
-0.036918
-0.038233
-0.039549
-0.040867
-0.042185
-0.043505
-0.044826
-0.046148
-0.047471
-0.048794
-0.050118
-0.051442
-0.052767
-0.054091
-0.055417
-0.056742
-0.058067
-0.059392
-0.060717
-0.062041
-0.063365
-0.064687
-0.066007
-0.067323
-0.068634
-0.069936
-0.071227
-0.072499
-0.073744
-0.074950
-0.076104
-0.077191
-0.078430
0.298361
0.296538
0.290860
0.279752
0.259987
0.225458
0.165146
0.060977
-0.111600
-0.376381
-0.527526
-0.571549
-0.552570
-0.504395
-0.438710
-0.364885
-0.290724
-0.222261
-0.163470
-0.116127
-0.080050
-0.053743
-0.035180
-0.022393
-0.013748
-0.008001
-0.004248
-0.001854
-0.000381
0.000436
0.000825
0.000921
0.000803
0.000519
0.000104
-0.000420
-0.001038
-0.001736
-0.002506
-0.003339
-0.004227
-0.005166
-0.006150
-0.007173
-0.008232
-0.009322
-0.010441
-0.011584
-0.012749
-0.013934
-0.015136
-0.016353
-0.017584
-0.018827
-0.020079
-0.021341
-0.022612
-0.023889
-0.025172
-0.026461
-0.027755
-0.029053
-0.030355
-0.031660
-0.032968
-0.034278
-0.035590
-0.036905
-0.038221
-0.039538
-0.040857
-0.042177
-0.043498
-0.044819
-0.046141
-0.047464
-0.048787
-0.050111
-0.051434
-0.052758
-0.054081
-0.055405
-0.056727
-0.058049
-0.059370
-0.060690
-0.062008
-0.063323
-0.064634
-0.065940
-0.067240
-0.068531
-0.069810
-0.071072
-0.072312
-0.073521
-0.074692
-0.075814
-0.076876
-0.078106
0.336946
0.336293
0.334020
0.328728
0.317261
0.292693
0.239557
0.122977
-0.146110
-0.666249
-0.813426
-0.795148
-0.727236
-0.641293
-0.542254
-0.438293
-0.337793
-0.247707
-0.172667
-0.114442
-0.072073
-0.042824
-0.023439
-0.011013
-0.003315
0.001250
0.003784
0.005025
0.005405
0.005296
0.004914
0.004363
0.003702
0.002964
0.002169
0.001326
0.000442
-0.000481
-0.001439
-0.002431
-0.003453
-0.004505
-0.005585
-0.006690
-0.007817
-0.008967
-0.010135
-0.011321
-0.012523
-0.013739
-0.014968
-0.016208
-0.017458
-0.018718
-0.019985
-0.021260
-0.022541
-0.023827
-0.025119
-0.026415
-0.027715
-0.029018
-0.030324
-0.031633
-0.032945
-0.034258
-0.035573
-0.036889
-0.038207
-0.039526
-0.040846
-0.042167
-0.043489
-0.044811
-0.046134
-0.047457
-0.048780
-0.050103
-0.051426
-0.052749
-0.054071
-0.055393
-0.056714
-0.058033
-0.059350
-0.060665
-0.061976
-0.063284
-0.064586
-0.065881
-0.067167
-0.068441
-0.069700
-0.070940
-0.072154
-0.073338
-0.074483
-0.075582
-0.076629
-0.077853
0.376674
0.377466
0.379518
0.382132
0.383482
0.378718
0.354316
0.269444
-0.047852
-1.124747
-1.116531
-0.971192
-0.860128
-0.750613
-0.629748
-0.503432
-0.380919
-0.270980
-0.180047
-0.110831
-0.062102
-0.030035
-0.010109
0.001618
0.008039
0.011137
0.012240
0.012043
0.011246
0.010187
0.009017
0.007812
0.006608
0.005418
0.004246
0.003088
0.001940
0.000795
-0.000351
-0.001500
-0.002657
-0.003823
-0.004999
-0.006186
-0.007385
-0.008594
-0.009814
-0.011044
-0.012283
-0.013532
-0.014788
-0.016053
-0.017324
-0.018601
-0.019884
-0.021172
-0.022465
-0.023761
-0.025061
-0.026365
-0.027671
-0.028980
-0.030291
-0.031605
-0.032919
-0.034236
-0.035554
-0.036873
-0.038193
-0.039513
-0.040835
-0.042157
-0.043480
-0.044803
-0.046126
-0.047449
-0.048773
-0.050096
-0.051419
-0.052741
-0.054062
-0.055382
-0.056701
-0.058018
-0.059332
-0.060643
-0.061949
-0.063251
-0.064545
-0.065831
-0.067105
-0.068366
-0.069610
-0.070832
-0.072028
-0.073193
-0.074320
-0.075404
-0.076440
-0.077661
0.414887
0.417154
0.423687
0.434793
0.450881
0.471992
0.496143
0.512923
0.561832
-0.281457
-1.045248
-0.973964
-0.857189
-0.768039
-0.657677
-0.532785
-0.404519
-0.284735
-0.183339
-0.105697
-0.051608
-0.016995
0.003424
0.014453
0.019542
0.021056
0.020294
0.018715
0.016827
0.014865
0.012948
0.011124
0.009408
0.007793
0.006265
0.004809
0.003410
0.002053
0.000728
-0.000574
-0.001861
-0.003137
-0.004408
-0.005676
-0.006944
-0.008213
-0.009484
-0.010758
-0.012036
-0.013317
-0.014602
-0.015891
-0.017183
-0.018479
-0.019778
-0.021080
-0.022384
-0.023691
-0.025001
-0.026312
-0.027625
-0.028940
-0.030256
-0.031574
-0.032893
-0.034213
-0.035533
-0.036855
-0.038177
-0.039500
-0.040823
-0.042147
-0.043470
-0.044794
-0.046118
-0.047442
-0.048766
-0.050089
-0.051412
-0.052733
-0.054054
-0.055373
-0.056691
-0.058006
-0.059317
-0.060625
-0.061928
-0.063224
-0.064513
-0.065791
-0.067057
-0.068308
-0.069541
-0.070751
-0.071934
-0.073086
-0.074201
-0.075275
-0.076304
-0.077522
0.448879
0.452330
0.462454
0.480324
0.508033
0.549270
0.610602
0.703973
0.839544
0.900134
0.000000
-0.880460
-0.786955
-0.722466
-0.629766
-0.521419
-0.403412
-0.286535
-0.183079
-0.101673
-0.044118
-0.007091
0.014388
0.025545
0.029256
0.028932
0.027087
0.024540
0.021782
0.019068
0.016514
0.014156
0.011992
0.010001
0.008158
0.006435
0.004809
0.003259
0.001769
0.000325
-0.001083
-0.002464
-0.003825
-0.005171
-0.006506
-0.007832
-0.009154
-0.010471
-0.011786
-0.013100
-0.014414
-0.015727
-0.017040
-0.018355
-0.019670
-0.020985
-0.022302
-0.023620
-0.024938
-0.026258
-0.027578
-0.028899
-0.030220
-0.031543
-0.032865
-0.034189
-0.035512
-0.036837
-0.038161
-0.039486
-0.040811
-0.042136
-0.043461
-0.044786
-0.046110
-0.047435
-0.048759
-0.050083
-0.051405
-0.052727
-0.054048
-0.055366
-0.056683
-0.057997
-0.059307
-0.060612
-0.061913
-0.063206
-0.064490
-0.065764
-0.067025
-0.068269
-0.069494
-0.070697
-0.071872
-0.073015
-0.074123
-0.075191
-0.076216
-0.077433
0.476477
0.480584
0.492634
0.513877
0.546618
0.594477
0.662328
0.754326
0.862067
0.960725
0.897279
0.000000
-0.714086
-0.641217
-0.562911
-0.478417
-0.382589
-0.280382
-0.183908
-0.104222
-0.045181
-0.004954
0.018971
0.029524
0.033525
0.033786
0.031912
0.029009
0.025765
0.022552
0.019537
0.016774
0.014260
0.011968
0.009865
0.007918
0.006098
0.004381
0.002745
0.001175
-0.000343
-0.001819
-0.003263
-0.004681
-0.006079
-0.007460
-0.008829
-0.010188
-0.011539
-0.012885
-0.014225
-0.015563
-0.016897
-0.018230
-0.019560
-0.020890
-0.022219
-0.023547
-0.024875
-0.026202
-0.027529
-0.028857
-0.030183
-0.031510
-0.032837
-0.034164
-0.035491
-0.036818
-0.038145
-0.039472
-0.040798
-0.042125
-0.043451
-0.044777
-0.046103
-0.047428
-0.048753
-0.050077
-0.051400
-0.052722
-0.054043
-0.055361
-0.056678
-0.057991
-0.059300
-0.060605
-0.061904
-0.063196
-0.064478
-0.065750
-0.067008
-0.068249
-0.069471
-0.070670
-0.071841
-0.072980
-0.074084
-0.075150
-0.076173
-0.077390
0.496482
0.500659
0.512839
0.533979
0.565660
0.609844
0.667672
0.737842
0.814791
0.854792
0.833833
0.730726
0.000000
-0.563549
-0.485881
-0.417687
-0.350513
-0.273909
-0.194574
-0.122597
-0.062964
-0.021030
0.005969
0.022937
0.031714
0.034732
0.034173
0.031725
0.028501
0.025121
0.021877
0.018876
0.016135
0.013634
0.011340
0.009222
0.007248
0.005394
0.003636
0.001959
0.000345
-0.001215
-0.002733
-0.004217
-0.005671
-0.007103
-0.008516
-0.009914
-0.011300
-0.012675
-0.014042
-0.015402
-0.016756
-0.018106
-0.019453
-0.020796
-0.022137
-0.023475
-0.024812
-0.026147
-0.027481
-0.028814
-0.030147
-0.031478
-0.032809
-0.034140
-0.035470
-0.036799
-0.038129
-0.039457
-0.040786
-0.042114
-0.043442
-0.044769
-0.046096
-0.047422
-0.048748
-0.050073
-0.051396
-0.052719
-0.054040
-0.055359
-0.056676
-0.057989
-0.059299
-0.060604
-0.061903
-0.063195
-0.064478
-0.065750
-0.067008
-0.068249
-0.069471
-0.070670
-0.071841
-0.072981
-0.074085
-0.075151
-0.076174
-0.077391
0.508762
0.512533
0.523424
0.541930
0.568686
0.604243
0.648671
0.698414
0.740455
0.747429
0.700198
0.627620
0.474720
0.000000
-0.411944
-0.338007
-0.313481
-0.276989
-0.225224
-0.164638
-0.104776
-0.054469
-0.016293
0.009677
0.024921
0.032029
0.033788
0.032524
0.029838
0.026660
0.023451
0.020402
0.017571
0.014962
0.012554
0.010321
0.008238
0.006280
0.004427
0.002661
0.000969
-0.000663
-0.002245
-0.003786
-0.005291
-0.006768
-0.008222
-0.009655
-0.011072
-0.012474
-0.013866
-0.015247
-0.016621
-0.017988
-0.019348
-0.020705
-0.022056
-0.023405
-0.024750
-0.026093
-0.027434
-0.028773
-0.030111
-0.031447
-0.032782
-0.034116
-0.035449
-0.036781
-0.038113
-0.039444
-0.040774
-0.042104
-0.043433
-0.044761
-0.046089
-0.047417
-0.048743
-0.050069
-0.051394
-0.052717
-0.054039
-0.055359
-0.056676
-0.057991
-0.059302
-0.060609
-0.061910
-0.063203
-0.064488
-0.065763
-0.067024
-0.068269
-0.069495
-0.070698
-0.071873
-0.073017
-0.074125
-0.075194
-0.076219
-0.077438
0.514070
0.517132
0.525892
0.540498
0.561054
0.587063
0.616419
0.644008
0.658884
0.643027
0.578330
0.454409
0.321821
-0.073368
-0.326660
-0.283058
-0.286826
-0.296508
-0.268581
-0.205192
-0.139239
-0.081081
-0.035308
-0.003050
0.016956
0.027430
0.031446
0.031632
0.029839
0.027184
0.024260
0.021348
0.018564
0.015946
0.013497
0.011206
0.009056
0.007028
0.005106
0.003274
0.001519
-0.000171
-0.001806
-0.003395
-0.004944
-0.006461
-0.007949
-0.009414
-0.010859
-0.012287
-0.013700
-0.015102
-0.016493
-0.017875
-0.019249
-0.020618
-0.021980
-0.023338
-0.024692
-0.026042
-0.027389
-0.028734
-0.030076
-0.031417
-0.032756
-0.034093
-0.035429
-0.036764
-0.038097
-0.039430
-0.040762
-0.042094
-0.043424
-0.044754
-0.046084
-0.047412
-0.048740
-0.050066
-0.051392
-0.052717
-0.054040
-0.055361
-0.056680
-0.057997
-0.059310
-0.060619
-0.061923
-0.063220
-0.064510
-0.065789
-0.067056
-0.068308
-0.069542
-0.070753
-0.071937
-0.073089
-0.074205
-0.075280
-0.076310
-0.077530
0.513716
0.515961
0.522315
0.532617
0.546382
0.562384
0.577927
0.587869
0.583412
0.551447
0.474972
0.330627
0.070239
-0.468556
-0.370261
-0.276319
-0.283738
-0.296660
-0.262476
-0.204945
-0.143123
-0.087246
-0.042306
-0.009826
0.011112
0.022884
0.028272
0.029688
0.028864
0.026898
0.024425
0.021786
0.019154
0.016608
0.014181
0.011880
0.009702
0.007635
0.005669
0.003792
0.001991
0.000256
-0.001421
-0.003049
-0.004634
-0.006184
-0.007703
-0.009195
-0.010664
-0.012115
-0.013548
-0.014967
-0.016374
-0.017770
-0.019157
-0.020536
-0.021909
-0.023275
-0.024637
-0.025994
-0.027347
-0.028697
-0.030044
-0.031388
-0.032731
-0.034071
-0.035410
-0.036747
-0.038083
-0.039418
-0.040752
-0.042085
-0.043417
-0.044748
-0.046078
-0.047408
-0.048737
-0.050065
-0.051392
-0.052718
-0.054042
-0.055365
-0.056687
-0.058006
-0.059322
-0.060634
-0.061943
-0.063245
-0.064541
-0.065828
-0.067104
-0.068366
-0.069611
-0.070834
-0.072032
-0.073198
-0.074326
-0.075411
-0.076449
-0.077671
0.509205
0.510616
0.514529
0.520594
0.528042
0.535370
0.539868
0.537064
0.520197
0.479911
0.403951
0.276032
0.075040
-0.184899
-0.237692
-0.236463
-0.243307
-0.235907
-0.208368
-0.165875
-0.118600
-0.074290
-0.037461
-0.009892
0.008691
0.019836
0.025544
0.027652
0.027557
0.026201
0.024180
0.021852
0.019419
0.016993
0.014631
0.012359
0.010184
0.008106
0.006118
0.004213
0.002382
0.000616
-0.001092
-0.002751
-0.004365
-0.005942
-0.007485
-0.009001
-0.010491
-0.011960
-0.013411
-0.014846
-0.016266
-0.017675
-0.019073
-0.020462
-0.021843
-0.023218
-0.024586
-0.025949
-0.027308
-0.028662
-0.030014
-0.031362
-0.032708
-0.034051
-0.035392
-0.036732
-0.038070
-0.039407
-0.040742
-0.042077
-0.043410
-0.044742
-0.046074
-0.047405
-0.048735
-0.050064
-0.051393
-0.052720
-0.054047
-0.055372
-0.056695
-0.058017
-0.059337
-0.060654
-0.061968
-0.063277
-0.064581
-0.065878
-0.067165
-0.068441
-0.069701
-0.070942
-0.072159
-0.073344
-0.074490
-0.075591
-0.076639
-0.077866
0.502074
0.502716
0.504413
0.506746
0.508880
0.509342
0.505746
0.494533
0.470819
0.428482
0.360522
0.260144
0.125482
-0.024671
-0.106547
-0.143419
-0.159479
-0.157523
-0.141988
-0.115782
-0.084650
-0.053882
-0.027097
-0.006099
0.008811
0.018342
0.023662
0.025978
0.026298
0.025373
0.023720
0.021673
0.019443
0.017156
0.014883
0.012664
0.010516
0.008447
0.006456
0.004540
0.002692
0.000907
-0.000823
-0.002502
-0.004138
-0.005736
-0.007299
-0.008833
-0.010341
-0.011826
-0.013291
-0.014739
-0.016171
-0.017591
-0.018998
-0.020396
-0.021785
-0.023166
-0.024541
-0.025909
-0.027273
-0.028632
-0.029987
-0.031338
-0.032687
-0.034033
-0.035377
-0.036718
-0.038058
-0.039397
-0.040734
-0.042069
-0.043404
-0.044738
-0.046071
-0.047403
-0.048734
-0.050065
-0.051394
-0.052724
-0.054052
-0.055379
-0.056706
-0.058031
-0.059355
-0.060678
-0.061998
-0.063315
-0.064628
-0.065937
-0.067238
-0.068531
-0.069812
-0.071075
-0.072317
-0.073528
-0.074701
-0.075824
-0.076888
-0.078121
0.493748
0.493726
0.493545
0.492811
0.490762
0.486127
0.476987
0.460692
0.433924
0.392992
0.334484
0.256595
0.162131
0.063229
-0.009672
-0.055097
-0.079911
-0.088174
-0.084220
-0.071227
-0.053130
-0.033647
-0.015590
-0.000636
0.010570
0.018147
0.022651
0.024791
0.025243
0.024563
0.023166
0.021346
0.019297
0.017146
0.014972
0.012819
0.010715
0.008671
0.006692
0.004777
0.002925
0.001131
-0.000611
-0.002305
-0.003955
-0.005567
-0.007146
-0.008693
-0.010215
-0.011712
-0.013189
-0.014647
-0.016090
-0.017518
-0.018934
-0.020339
-0.021735
-0.023122
-0.024501
-0.025875
-0.027242
-0.028605
-0.029963
-0.031318
-0.032669
-0.034017
-0.035363
-0.036707
-0.038048
-0.039388
-0.040726
-0.042063
-0.043399
-0.044734
-0.046068
-0.047401
-0.048734
-0.050066
-0.051397
-0.052728
-0.054058
-0.055388
-0.056718
-0.058047
-0.059375
-0.060703
-0.062030
-0.063356
-0.064681
-0.066002
-0.067321
-0.068634
-0.069938
-0.071231
-0.072505
-0.073752
-0.074960
-0.076117
-0.077205
-0.078448
0.485453
0.484874
0.483149
0.479984
0.474774
0.466520
0.453775
0.434670
0.407056
0.368849
0.318617
0.256520
0.185748
0.113866
0.053678
0.009645
-0.019086
-0.034516
-0.039101
-0.035607
-0.026953
-0.015882
-0.004605
0.005378
0.013278
0.018881
0.022356
0.024067
0.024432
0.023835
0.022589
0.020931
0.019031
0.017004
0.014927
0.012848
0.010797
0.008789
0.006833
0.004931
0.003084
0.001290
-0.000456
-0.002156
-0.003815
-0.005437
-0.007025
-0.008583
-0.010114
-0.011621
-0.013106
-0.014573
-0.016023
-0.017459
-0.018881
-0.020292
-0.021693
-0.023085
-0.024469
-0.025846
-0.027217
-0.028583
-0.029944
-0.031301
-0.032654
-0.034004
-0.035352
-0.036697
-0.038040
-0.039381
-0.040720
-0.042058
-0.043395
-0.044731
-0.046066
-0.047400
-0.048734
-0.050067
-0.051400
-0.052732
-0.054065
-0.055397
-0.056730
-0.058063
-0.059396
-0.060730
-0.062064
-0.063399
-0.064735
-0.066072
-0.067408
-0.068744
-0.070078
-0.071405
-0.072720
-0.074014
-0.075273
-0.076477
-0.077603
-0.078862
0.478218
0.477147
0.474124
0.469027
0.461455
0.450683
0.435676
0.415160
0.387795
0.352467
0.308725
0.257351
0.200988
0.144442
0.094111
0.053722
0.024207
0.004947
-0.005151
-0.008093
-0.006027
-0.001025
0.005151
0.011200
0.016308
0.020094
0.022501
0.023663
0.023809
0.023184
0.022007
0.020459
0.018676
0.016759
0.014775
0.012771
0.010778
0.008814
0.006889
0.005009
0.003175
0.001388
-0.000355
-0.002056
-0.003718
-0.005344
-0.006937
-0.008501
-0.010038
-0.011552
-0.013044
-0.014516
-0.015972
-0.017413
-0.018840
-0.020255
-0.021660
-0.023056
-0.024443
-0.025823
-0.027197
-0.028565
-0.029928
-0.031287
-0.032642
-0.033994
-0.035343
-0.036689
-0.038033
-0.039375
-0.040715
-0.042054
-0.043392
-0.044729
-0.046065
-0.047400
-0.048735
-0.050069
-0.051403
-0.052737
-0.054071
-0.055406
-0.056742
-0.058078
-0.059416
-0.060755
-0.062097
-0.063441
-0.064789
-0.066141
-0.067497
-0.068858
-0.070223
-0.071590
-0.072956
-0.074311
-0.075640
-0.076916
-0.078101
-0.079387
0.472956
0.471349
0.467096
0.460367
0.450981
0.438443
0.422026
0.400878
0.374178
0.341369
0.302449
0.258307
0.210991
0.163698
0.120200
0.083283
0.054265
0.033244
0.019798
0.012627
0.010177
0.010865
0.013277
0.016295
0.019142
0.021371
0.022791
0.023394
0.023272
0.022563
0.021409
0.019936
0.018249
0.016428
0.014533
0.012605
0.010673
0.008758
0.006870
0.005017
0.003203
0.001429
-0.000305
-0.002001
-0.003661
-0.005287
-0.006882
-0.008448
-0.009989
-0.011505
-0.013001
-0.014477
-0.015937
-0.017381
-0.018811
-0.020229
-0.021637
-0.023035
-0.024425
-0.025807
-0.027182
-0.028552
-0.029917
-0.031277
-0.032634
-0.033986
-0.035336
-0.036683
-0.038028
-0.039371
-0.040712
-0.042052
-0.043390
-0.044728
-0.046064
-0.047400
-0.048736
-0.050071
-0.051406
-0.052742
-0.054078
-0.055415
-0.056753
-0.058092
-0.059434
-0.060779
-0.062127
-0.063480
-0.064839
-0.066206
-0.067581
-0.068967
-0.070366
-0.071778
-0.073203
-0.074636
-0.076061
-0.077446
-0.078732
-0.080062
0.470670
0.468162
0.462446
0.454162
0.443289
0.429467
0.412146
0.390744
0.364762
0.333940
0.298459
0.259142
0.217578
0.176038
0.137081
0.102842
0.074642
0.052899
0.037489
0.027607
0.022122
0.019809
0.019513
0.020276
0.021382
0.022363
0.022961
0.023077
0.022708
0.021912
0.020769
0.019359
0.017758
0.016028
0.014218
0.012365
0.010497
0.008633
0.006786
0.004965
0.003175
0.001419
-0.000302
-0.001989
-0.003643
-0.005266
-0.006858
-0.008424
-0.009964
-0.011482
-0.012978
-0.014456
-0.015917
-0.017363
-0.018795
-0.020214
-0.021623
-0.023023
-0.024414
-0.025797
-0.027174
-0.028545
-0.029910
-0.031272
-0.032629
-0.033982
-0.035332
-0.036680
-0.038026
-0.039369
-0.040711
-0.042051
-0.043390
-0.044727
-0.046064
-0.047401
-0.048737
-0.050073
-0.051409
-0.052746
-0.054083
-0.055422
-0.056762
-0.058104
-0.059449
-0.060799
-0.062153
-0.063513
-0.064882
-0.066261
-0.067654
-0.069064
-0.070495
-0.071953
-0.073443
-0.074967
-0.076522
-0.078077
-0.079547
-0.080947
0.473060
0.468096
0.460202
0.450297
0.438155
0.423379
0.405453
0.383952
0.358570
0.329193
0.296038
0.259816
0.221798
0.183741
0.147603
0.115142
0.087643
0.065617
0.049062
0.037491
0.030053
0.025759
0.023641
0.022857
0.022748
0.022846
0.022858
0.022624
0.022084
0.021236
0.020114
0.018767
0.017246
0.015600
0.013869
0.012086
0.010278
0.008463
0.006657
0.004869
0.003105
0.001368
-0.000338
-0.002013
-0.003658
-0.005274
-0.006862
-0.008424
-0.009962
-0.011478
-0.012974
-0.014451
-0.015912
-0.017357
-0.018790
-0.020210
-0.021619
-0.023019
-0.024410
-0.025794
-0.027171
-0.028542
-0.029908
-0.031270
-0.032627
-0.033981
-0.035331
-0.036679
-0.038025
-0.039368
-0.040710
-0.042051
-0.043390
-0.044728
-0.046065
-0.047402
-0.048738
-0.050075
-0.051412
-0.052749
-0.054087
-0.055427
-0.056769
-0.058113
-0.059461
-0.060813
-0.062172
-0.063538
-0.064914
-0.066303
-0.067710
-0.069139
-0.070598
-0.072096
-0.073647
-0.075268
-0.076980
-0.078793
-0.080643
-0.082127
0.484626
0.470831
0.459835
0.448539
0.435586
0.420161
0.401855
0.380350
0.355396
0.326896
0.295032
0.260406
0.224123
0.187709
0.152880
0.121195
0.093762
0.071352
0.054229
0.041881
0.033549
0.028348
0.025395
0.023905
0.023245
0.022947
0.022700
0.022318
0.021711
0.020851
0.019751
0.018443
0.016969
0.015369
0.013681
0.011936
0.010160
0.008373
0.006588
0.004817
0.003066
0.001340
-0.000358
-0.002027
-0.003667
-0.005280
-0.006865
-0.008426
-0.009963
-0.011478
-0.012973
-0.014450
-0.015910
-0.017356
-0.018788
-0.020208
-0.021617
-0.023017
-0.024409
-0.025793
-0.027170
-0.028541
-0.029907
-0.031269
-0.032626
-0.033980
-0.035331
-0.036679
-0.038025
-0.039368
-0.040710
-0.042050
-0.043390
-0.044728
-0.046065
-0.047402
-0.048739
-0.050076
-0.051413
-0.052751
-0.054089
-0.055430
-0.056773
-0.058118
-0.059467
-0.060821
-0.062182
-0.063551
-0.064931
-0.066326
-0.067740
-0.069180
-0.070655
-0.072178
-0.073769
-0.075460
-0.077306
-0.079409
-0.081976
-0.083454
