# vtk DataFile Version 3.0
Vector Field
ASCII
DATASET RECTILINEAR_GRID
DIMENSIONS 100 26 1
X_COORDINATES 100 double
0.050000 0.150000 0.250000 0.350000 0.450000 0.550000 0.650000 0.750000 0.850000 0.950000 1.050000 1.150000 1.250000 1.350000 1.450000 1.550000 1.650000 1.750000 1.850000 1.950000 2.050000 2.150000 2.250000 2.350000 2.450000 2.550000 2.650000 2.750000 2.850000 2.950000 3.050000 3.150000 3.250000 3.350000 3.450000 3.550000 3.650000 3.750000 3.850000 3.950000 4.050000 4.150000 4.250000 4.350000 4.450000 4.550000 4.650000 4.750000 4.850000 4.950000 5.050000 5.150000 5.250000 5.350000 5.450000 5.550000 5.650000 5.750000 5.850000 5.950000 6.050000 6.150000 6.250000 6.350000 6.450000 6.550000 6.650000 6.750000 6.850000 6.950000 7.050000 7.150000 7.250000 7.350000 7.450000 7.550000 7.650000 7.750000 7.850000 7.950000 8.050000 8.150000 8.250000 8.350000 8.450000 8.550000 8.650000 8.750000 8.850000 8.950000 9.050000 9.150000 9.250000 9.350000 9.450000 9.550000 9.650000 9.750000 9.850000 9.950000 
Y_COORDINATES 26 double
0.050000 0.150000 0.250000 0.350000 0.450000 0.550000 0.650000 0.750000 0.850000 0.950000 1.050000 1.150000 1.250000 1.350000 1.450000 1.550000 1.650000 1.750000 1.850000 1.950000 2.050000 2.150000 2.250000 2.350000 2.450000 2.550000 
Z_COORDINATES 1 double
0.0
POINT_DATA 2600
VECTORS Vektorfeld double
0.997637 0.002363 0.0
0.992769 0.002506 0.0
0.989211 0.001051 0.0
0.989278 -0.001118 0.0
0.994001 -0.003606 0.0
1.003759 -0.006152 0.0
1.018416 -0.008505 0.0
1.037322 -0.010401 0.0
1.059325 -0.011602 0.0
1.082873 -0.011946 0.0
1.106232 -0.011414 0.0
1.127760 -0.010114 0.0
1.146088 -0.008214 0.0
1.160178 -0.005876 0.0
1.169293 -0.003239 0.0
1.173024 -0.000492 0.0
1.171236 0.002281 0.0
1.163755 0.005200 0.0
1.150298 0.008257 0.0
1.130652 0.011388 0.0
1.104775 0.014488 0.0
1.072867 0.017421 0.0
1.035408 0.020038 0.0
0.993169 0.022200 0.0
0.947187 0.023782 0.0
0.898719 0.024685 0.0
0.849195 0.024839 0.0
0.800154 0.024203 0.0
0.753180 0.022771 0.0
0.709830 0.020578 0.0
0.671554 0.017698 0.0
0.639609 0.014247 0.0
0.614992 0.010370 0.0
0.598496 0.006127 0.0
0.590985 0.001385 0.0
0.592612 -0.003012 0.0
0.601548 -0.005924 0.0
0.614701 -0.007229 0.0
0.629046 -0.007116 0.0
0.642026 -0.005863 0.0
0.651729 -0.003840 0.0
0.656990 -0.001422 0.0
0.656741 0.001671 0.0
0.649377 0.005693 0.0
0.633498 0.010186 0.0
0.608671 0.014641 0.0
0.575427 0.018603 0.0
0.535124 0.021701 0.0
0.489855 0.023567 0.0
0.442647 0.023641 0.0
0.397849 0.021156 0.0
0.360932 0.015760 0.0
0.336692 0.008480 0.0
0.326513 0.001699 0.0
0.326999 -0.002185 0.0
0.332838 -0.003655 0.0
0.340824 -0.004331 0.0
0.349912 -0.004758 0.0
0.359434 -0.004764 0.0
0.368594 -0.004397 0.0
0.376748 -0.003756 0.0
0.383460 -0.002956 0.0
0.388516 -0.002100 0.0
0.391891 -0.001275 0.0
0.393689 -0.000523 0.0
0.393917 0.000295 0.0
0.392214 0.001408 0.0
0.388111 0.002695 0.0
0.381533 0.003883 0.0
0.372873 0.004777 0.0
0.362885 0.005211 0.0
0.352596 0.005079 0.0
0.343125 0.004393 0.0
0.335398 0.003334 0.0
0.329834 0.002229 0.0
0.326171 0.001434 0.0
0.323548 0.001189 0.0
0.320852 0.001507 0.0
0.317166 0.002179 0.0
0.312114 0.002873 0.0
0.305944 0.003297 0.0
0.299342 0.003305 0.0
0.293105 0.002932 0.0
0.287833 0.002341 0.0
0.283770 0.001721 0.0
0.280841 0.001208 0.0
0.278790 0.000844 0.0
0.277376 0.000571 0.0
0.276475 0.000330 0.0
0.276099 0.000046 0.0
0.276359 -0.000306 0.0
0.277285 -0.000620 0.0
0.278728 -0.000823 0.0
0.280414 -0.000863 0.0
0.281999 -0.000722 0.0
0.283143 -0.000422 0.0
0.283568 -0.000003 0.0
0.283096 0.000476 0.0
0.281818 0.000802 0.0
0.279337 0.001678 0.0
1.002927 0.001799 0.0
1.011335 -0.000469 0.0
1.024352 -0.005434 0.0
1.041476 -0.011822 0.0
1.062763 -0.018912 0.0
1.088259 -0.026099 0.0
1.117765 -0.032720 0.0
1.150709 -0.038036 0.0
1.186079 -0.041341 0.0
1.222458 -0.042134 0.0
1.258255 -0.040381 0.0
1.292037 -0.036457 0.0
1.322737 -0.030899 0.0
1.349655 -0.024199 0.0
1.372330 -0.016707 0.0
1.390258 -0.008683 0.0
1.402745 -0.000228 0.0
1.409206 0.008728 0.0
1.409246 0.018146 0.0
1.402579 0.027812 0.0
1.389121 0.037399 0.0
1.369048 0.046491 0.0
1.342834 0.054641 0.0
1.311255 0.061416 0.0
1.275364 0.066440 0.0
1.236447 0.069412 0.0
1.195964 0.070119 0.0
1.155485 0.068442 0.0
1.116624 0.064367 0.0
1.080963 0.057993 0.0
1.049971 0.049550 0.0
1.024917 0.039394 0.0
1.006787 0.027970 0.0
0.996114 0.015695 0.0
0.992460 0.002981 0.0
0.994704 -0.008480 0.0
1.002352 -0.017039 0.0
1.015355 -0.022270 0.0
1.033040 -0.024105 0.0
1.053738 -0.022552 0.0
1.074633 -0.017749 0.0
1.091881 -0.010023 0.0
1.101993 0.000409 0.0
1.103105 0.013207 0.0
1.094480 0.027176 0.0
1.076078 0.040880 0.0
1.048655 0.053030 0.0
1.013724 0.062509 0.0
0.973510 0.068242 0.0
0.930711 0.068974 0.0
0.887856 0.063476 0.0
0.846428 0.051785 0.0
0.806598 0.036526 0.0
0.768520 0.021911 0.0
0.735097 0.010540 0.0
0.711505 0.001372 0.0
0.700453 -0.006292 0.0
0.699961 -0.011393 0.0
0.706413 -0.014101 0.0
0.717394 -0.015201 0.0
0.731401 -0.015113 0.0
0.747254 -0.014164 0.0
0.763867 -0.012561 0.0
0.780087 -0.010409 0.0
0.794614 -0.007713 0.0
0.806267 -0.004395 0.0
0.814639 -0.000571 0.0
0.820159 0.003256 0.0
0.823405 0.006654 0.0
0.824870 0.009202 0.0
0.825031 0.010611 0.0
0.824180 0.010819 0.0
0.822229 0.010074 0.0
0.818673 0.008935 0.0
0.812760 0.008105 0.0
0.803809 0.008172 0.0
0.791535 0.009348 0.0
0.776216 0.011363 0.0
0.758706 0.013519 0.0
0.740314 0.014977 0.0
0.722580 0.015098 0.0
0.706992 0.013694 0.0
0.694675 0.011097 0.0
0.686134 0.007990 0.0
0.681201 0.005067 0.0
0.679253 0.002738 0.0
0.679573 0.001044 0.0
0.681510 -0.000152 0.0
0.684534 -0.001070 0.0
0.688342 -0.001987 0.0
0.692712 -0.002903 0.0
0.697369 -0.003605 0.0
0.701998 -0.003910 0.0
0.706209 -0.003673 0.0
0.709572 -0.002860 0.0
0.711690 -0.001547 0.0
0.712259 0.000128 0.0
0.711084 0.001992 0.0
0.708068 0.003579 0.0
0.704313 0.005136 0.0
1.001830 -0.002958 0.0
1.008379 -0.010670 0.0
1.020347 -0.020218 0.0
1.037325 -0.031139 0.0
1.059329 -0.042886 0.0
1.086441 -0.054733 0.0
1.118547 -0.065698 0.0
1.155088 -0.074544 0.0
1.194874 -0.079989 0.0
1.235997 -0.080988 0.0
1.276231 -0.077558 0.0
1.313747 -0.070578 0.0
1.347428 -0.061158 0.0
1.376761 -0.050192 0.0
1.401570 -0.038198 0.0
1.421774 -0.025322 0.0
1.437223 -0.011525 0.0
1.447610 0.003178 0.0
1.452547 0.018719 0.0
1.451688 0.034766 0.0
1.444815 0.050776 0.0
1.431956 0.066045 0.0
1.413444 0.079813 0.0
1.389903 0.091363 0.0
1.362204 0.100083 0.0
1.331393 0.105496 0.0
1.298639 0.107272 0.0
1.265177 0.105231 0.0
1.232256 0.099361 0.0
1.201082 0.089834 0.0
1.172762 0.077022 0.0
1.148237 0.061501 0.0
1.128212 0.044018 0.0
1.113067 0.025466 0.0
1.102904 0.007026 0.0
1.098110 -0.009975 0.0
1.099529 -0.024611 0.0
1.107892 -0.036065 0.0
1.123275 -0.043378 0.0
1.144752 -0.045453 0.0
1.170321 -0.041311 0.0
1.197090 -0.030477 0.0
1.221516 -0.013674 0.0
1.240383 0.007312 0.0
1.251726 0.030353 0.0
1.254635 0.053195 0.0
1.248984 0.073789 0.0
1.235351 0.090315 0.0
1.214839 0.101161 0.0
1.188739 0.104954 0.0
1.158093 0.100997 0.0
1.123623 0.090162 0.0
1.086421 0.075181 0.0
1.048715 0.059041 0.0
1.012879 0.042668 0.0
0.979536 0.026180 0.0
0.948492 0.010997 0.0
0.921795 -0.001494 0.0
0.902557 -0.011215 0.0
0.891442 -0.017954 0.0
0.887124 -0.022049 0.0
0.888112 -0.024069 0.0
0.893160 -0.024317 0.0
0.901232 -0.022946 0.0
0.911550 -0.020022 0.0
0.923580 -0.015769 0.0
0.936815 -0.010805 0.0
0.950642 -0.005856 0.0
0.964662 -0.001501 0.0
0.978767 0.001787 0.0
0.992822 0.003811 0.0
1.006518 0.004775 0.0
1.019311 0.005276 0.0
1.030466 0.006134 0.0
1.039201 0.008086 0.0
1.044873 0.011470 0.0
1.047109 0.016088 0.0
1.045738 0.021313 0.0
1.040712 0.026104 0.0
1.032084 0.029412 0.0
1.019926 0.030555 0.0
1.004355 0.029396 0.0
0.985686 0.026380 0.0
0.964667 0.022266 0.0
0.942656 0.017735 0.0
0.921542 0.013133 0.0
0.903350 0.008520 0.0
0.889842 0.003943 0.0
0.882127 -0.000474 0.0
0.880061 -0.004326 0.0
0.882348 -0.007221 0.0
0.887526 -0.009122 0.0
0.894475 -0.009971 0.0
0.902270 -0.009617 0.0
0.910034 -0.008042 0.0
0.916960 -0.005408 0.0
0.922411 -0.002032 0.0
0.926066 0.001673 0.0
0.927746 0.005235 0.0
0.926730 0.008251 0.0
1.001439 -0.006227 0.0
1.007050 -0.019562 0.0
1.018063 -0.034307 0.0
1.034522 -0.050489 0.0
1.056755 -0.067773 0.0
1.085190 -0.085394 0.0
1.120078 -0.102032 0.0
1.161075 -0.115749 0.0
1.206869 -0.124364 0.0
1.254580 -0.125447 0.0
1.300553 -0.119306 0.0
1.342210 -0.108004 0.0
1.378495 -0.093698 0.0
1.409375 -0.077865 0.0
1.435224 -0.061183 0.0
1.456374 -0.043691 0.0
1.472852 -0.025085 0.0
1.484317 -0.005113 0.0
1.490235 0.016156 0.0
1.490114 0.038309 0.0
1.483658 0.060562 0.0
1.470912 0.081864 0.0
1.452318 0.101102 0.0
1.428651 0.117282 0.0
1.400906 0.129608 0.0
1.370183 0.137505 0.0
1.337596 0.140604 0.0
1.304227 0.138730 0.0
1.271101 0.131909 0.0
1.239176 0.120385 0.0
1.209333 0.104635 0.0
1.182371 0.085375 0.0
1.159008 0.063531 0.0
1.139925 0.040183 0.0
1.125918 0.016478 0.0
1.118031 -0.006745 0.0
1.117432 -0.028661 0.0
1.125056 -0.048003 0.0
1.141162 -0.062930 0.0
1.165078 -0.071293 0.0
1.195190 -0.071152 0.0
1.229062 -0.061277 0.0
1.263512 -0.041750 0.0
1.294706 -0.014673 0.0
1.319310 0.016393 0.0
1.335825 0.047732 0.0
1.344126 0.076601 0.0
1.344560 0.100703 0.0
1.337666 0.118178 0.0
1.323978 0.127726 0.0
1.303913 0.128937 0.0
1.277950 0.122655 0.0
1.247044 0.110795 0.0
1.212761 0.095416 0.0
1.176835 0.078054 0.0
1.140852 0.060120 0.0
1.106251 0.042703 0.0
1.073716 0.026033 0.0
1.043349 0.010863 0.0
1.016342 -0.001910 0.0
0.994598 -0.012031 0.0
0.978798 -0.019276 0.0
0.968365 -0.023726 0.0
0.962393 -0.025637 0.0
0.960024 -0.025278 0.0
0.960585 -0.023103 0.0
0.963705 -0.019826 0.0
0.969366 -0.016322 0.0
0.977810 -0.013500 0.0
0.989384 -0.011894 0.0
1.004402 -0.011582 0.0
1.022978 -0.012104 0.0
1.044868 -0.012529 0.0
1.069363 -0.011713 0.0
1.095236 -0.008675 0.0
1.120756 -0.002961 0.0
1.143903 0.005136 0.0
1.162968 0.014573 0.0
1.176919 0.023920 0.0
1.185137 0.032008 0.0
1.187128 0.038125 0.0
1.182655 0.041870 0.0
1.171949 0.043280 0.0
1.155767 0.042567 0.0
1.135313 0.039899 0.0
1.112025 0.035371 0.0
1.087353 0.029147 0.0
1.062615 0.021563 0.0
1.039018 0.013218 0.0
1.018104 0.004962 0.0
1.001835 -0.002528 0.0
0.991462 -0.008619 0.0
0.986685 -0.012646 0.0
0.986258 -0.014310 0.0
0.988784 -0.013639 0.0
0.992919 -0.010871 0.0
0.997399 -0.006502 0.0
1.001090 -0.001203 0.0
1.003085 0.004436 0.0
1.001837 0.011313 0.0
1.001236 -0.008902 0.0
1.006211 -0.027473 0.0
1.016337 -0.047535 0.0
1.032085 -0.069467 0.0
1.054271 -0.093213 0.0
1.083960 -0.118078 0.0
1.122162 -0.142438 0.0
1.169174 -0.163351 0.0
1.224023 -0.177404 0.0
1.281731 -0.177825 0.0
1.335258 -0.166428 0.0
1.380991 -0.148272 0.0
1.418644 -0.127368 0.0
1.449453 -0.105883 0.0
1.474922 -0.084482 0.0
1.496163 -0.062781 0.0
1.513527 -0.039837 0.0
1.526457 -0.014755 0.0
1.533813 0.012523 0.0
1.534479 0.041396 0.0
1.527734 0.070676 0.0
1.513480 0.098749 0.0
1.492291 0.124000 0.0
1.465236 0.145106 0.0
1.433633 0.161130 0.0
1.398855 0.171485 0.0
1.362201 0.175866 0.0
1.324846 0.174191 0.0
1.287840 0.166578 0.0
1.252135 0.153346 0.0
1.218616 0.135035 0.0
1.188142 0.112411 0.0
1.161558 0.086441 0.0
1.139705 0.058209 0.0
1.123430 0.028732 0.0
1.113599 -0.001281 0.0
1.111079 -0.031007 0.0
1.116579 -0.058780 0.0
1.130396 -0.082076 0.0
1.152384 -0.098051 0.0
1.182096 -0.104218 0.0
1.218678 -0.098667 0.0
1.260279 -0.080411 0.0
1.303284 -0.050212 0.0
1.342168 -0.011556 0.0
1.371870 0.029465 0.0
1.390980 0.067456 0.0
1.400575 0.099818 0.0
1.401778 0.124754 0.0
1.395431 0.141185 0.0
1.382099 0.148875 0.0
1.362278 0.148500 0.0
1.336686 0.141448 0.0
1.306370 0.129362 0.0
1.272597 0.113808 0.0
1.236718 0.096229 0.0
1.200074 0.077839 0.0
1.163906 0.059599 0.0
1.129319 0.042249 0.0
1.096986 0.026044 0.0
1.067188 0.011558 0.0
1.040553 -0.000429 0.0
1.017844 -0.009432 0.0
0.999050 -0.015165 0.0
0.983435 -0.017766 0.0
0.970188 -0.017929 0.0
0.958907 -0.016839 0.0
0.949851 -0.015915 0.0
0.943941 -0.016441 0.0
0.942486 -0.019071 0.0
0.946808 -0.023744 0.0
0.957919 -0.029628 0.0
0.976288 -0.035263 0.0
1.001785 -0.038971 0.0
1.033765 -0.039269 0.0
1.071080 -0.035201 0.0
1.111895 -0.026588 0.0
1.153311 -0.014185 0.0
1.191417 0.000619 0.0
1.222530 0.015978 0.0
1.244775 0.029918 0.0
1.257907 0.041418 0.0
1.262250 0.050095 0.0
1.258490 0.055695 0.0
1.247646 0.058068 0.0
1.230959 0.057177 0.0
1.209792 0.053180 0.0
1.185594 0.046465 0.0
1.159883 0.037624 0.0
1.134076 0.027277 0.0
1.109248 0.016253 0.0
1.086386 0.005835 0.0
1.066743 -0.002680 0.0
1.051285 -0.008391 0.0
1.039954 -0.010754 0.0
1.031824 -0.009760 0.0
1.025636 -0.005907 0.0
1.020190 -0.000042 0.0
1.014567 0.006904 0.0
1.008251 0.016409 0.0
1.001034 -0.011172 0.0
1.005264 -0.034407 0.0
1.014109 -0.059572 0.0
1.028412 -0.087481 0.0
1.049576 -0.118549 0.0
1.079594 -0.152448 0.0
1.120851 -0.187526 0.0
1.175172 -0.219596 0.0
1.243694 -0.244531 0.0
1.316052 -0.240765 0.0
1.376997 -0.217960 0.0
1.422981 -0.188458 0.0
1.456860 -0.158715 0.0
1.482621 -0.131106 0.0
1.503656 -0.105764 0.0
1.522328 -0.081413 0.0
1.539670 -0.055911 0.0
1.555012 -0.026953 0.0
1.565902 0.006475 0.0
1.569587 0.043094 0.0
1.564399 0.080911 0.0
1.549869 0.117299 0.0
1.526685 0.149824 0.0
1.496296 0.176727 0.0
1.460449 0.196959 0.0
1.420874 0.210010 0.0
1.379138 0.215732 0.0
1.336608 0.214211 0.0
1.294475 0.205697 0.0
1.253815 0.190594 0.0
1.215642 0.169479 0.0
1.180959 0.143124 0.0
1.150742 0.112528 0.0
1.125819 0.078900 0.0
1.106594 0.043541 0.0
1.092802 0.007533 0.0
1.083945 -0.028444 0.0
1.080042 -0.062939 0.0
1.081760 -0.093452 0.0
1.090355 -0.117258 0.0
1.107737 -0.132104 0.0
1.135948 -0.135575 0.0
1.175916 -0.125071 0.0
1.226215 -0.098856 0.0
1.282112 -0.057694 0.0
1.334784 -0.006771 0.0
1.375315 0.044052 0.0
1.401381 0.087561 0.0
1.415158 0.122031 0.0
1.418594 0.146819 0.0
1.413146 0.162021 0.0
1.399930 0.168390 0.0
1.379935 0.167146 0.0
1.354178 0.159736 0.0
1.323757 0.147628 0.0
1.289834 0.132212 0.0
1.253608 0.114726 0.0
1.216271 0.096217 0.0
1.178953 0.077538 0.0
1.142648 0.059392 0.0
1.108152 0.042504 0.0
1.075841 0.027570 0.0
1.045539 0.015579 0.0
1.016719 0.007440 0.0
0.988715 0.003248 0.0
0.961064 0.001955 0.0
0.934101 0.001521 0.0
0.909304 -0.000424 0.0
0.889012 -0.005731 0.0
0.875829 -0.015143 0.0
0.871822 -0.027987 0.0
0.877812 -0.042488 0.0
0.893430 -0.056391 0.0
0.917658 -0.067569 0.0
0.949330 -0.074324 0.0
0.987347 -0.075478 0.0
1.030618 -0.070397 0.0
1.077844 -0.059017 0.0
1.127173 -0.041984 0.0
1.175590 -0.020949 0.0
1.218553 0.001637 0.0
1.251969 0.023152 0.0
1.274542 0.041444 0.0
1.286824 0.055824 0.0
1.289714 0.065893 0.0
1.284303 0.071451 0.0
1.271839 0.072538 0.0
1.253691 0.069453 0.0
1.231295 0.062742 0.0
1.206078 0.053183 0.0
1.179412 0.041842 0.0
1.152550 0.029969 0.0
1.126461 0.018917 0.0
1.101764 0.010169 0.0
1.078842 0.004938 0.0
1.057836 0.003686 0.0
1.038633 0.006038 0.0
1.021129 0.010964 0.0
1.005452 0.017197 0.0
0.992805 0.025078 0.0
1.000751 -0.012957 0.0
1.003872 -0.039973 0.0
1.010601 -0.069581 0.0
1.022033 -0.103208 0.0
1.040117 -0.142070 0.0
1.067970 -0.186798 0.0
1.110123 -0.236587 0.0
1.171665 -0.286399 0.0
1.260869 -0.335454 0.0
1.352389 -0.313720 0.0
1.412927 -0.266489 0.0
1.446730 -0.219716 0.0
1.465065 -0.179671 0.0
1.475957 -0.146803 0.0
1.484706 -0.119851 0.0
1.494993 -0.096285 0.0
1.509033 -0.072422 0.0
1.526937 -0.043688 0.0
1.545117 -0.005860 0.0
1.557273 0.039587 0.0
1.558850 0.088028 0.0
1.548641 0.134922 0.0
1.527530 0.176495 0.0
1.497493 0.210482 0.0
1.460726 0.235817 0.0
1.419265 0.252186 0.0
1.374870 0.259686 0.0
1.329044 0.258614 0.0
1.283101 0.249369 0.0
1.238248 0.232436 0.0
1.195651 0.208407 0.0
1.156469 0.178060 0.0
1.121792 0.142485 0.0
1.092356 0.103303 0.0
1.067875 0.062844 0.0
1.046272 0.023625 0.0
1.024057 -0.013464 0.0
0.999854 -0.049813 0.0
0.976624 -0.085066 0.0
0.959859 -0.117473 0.0
0.955643 -0.145056 0.0
0.968661 -0.163853 0.0
1.000677 -0.168777 0.0
1.050667 -0.155441 0.0
1.115389 -0.121728 0.0
1.189156 -0.069175 0.0
1.260970 -0.005889 0.0
1.318122 0.054284 0.0
1.356824 0.102830 0.0
1.380021 0.139388 0.0
1.390302 0.164620 0.0
1.389685 0.179623 0.0
1.379828 0.185765 0.0
1.362179 0.184523 0.0
1.338077 0.177364 0.0
1.308804 0.165672 0.0
1.275601 0.150694 0.0
1.239667 0.133520 0.0
1.202122 0.115098 0.0
1.163934 0.096324 0.0
1.125772 0.078232 0.0
1.087778 0.062146 0.0
1.049475 0.049609 0.0
1.010015 0.041691 0.0
0.968933 0.038083 0.0
0.927101 0.036602 0.0
0.887147 0.033791 0.0
0.852831 0.026420 0.0
0.827686 0.012863 0.0
0.813740 -0.006608 0.0
0.811304 -0.030078 0.0
0.819411 -0.054493 0.0
0.836394 -0.076986 0.0
0.860615 -0.095422 0.0
0.890820 -0.108348 0.0
0.926151 -0.114802 0.0
0.965992 -0.114184 0.0
1.009752 -0.106216 0.0
1.056636 -0.090998 0.0
1.105411 -0.069127 0.0
1.154180 -0.041916 0.0
1.199621 -0.012151 0.0
1.237200 0.016595 0.0
1.264275 0.041315 0.0
1.280873 0.060913 0.0
1.287731 0.074984 0.0
1.285811 0.083389 0.0
1.276258 0.086303 0.0
1.260329 0.084217 0.0
1.239320 0.077934 0.0
1.214503 0.068575 0.0
1.187051 0.057549 0.0
1.157989 0.046487 0.0
1.128198 0.037087 0.0
1.098446 0.030694 0.0
1.069429 0.027953 0.0
1.041865 0.028538 0.0
1.016583 0.031251 0.0
0.994641 0.034529 0.0
0.978124 0.036909 0.0
1.000348 -0.014057 0.0
1.001839 -0.043485 0.0
1.005270 -0.076228 0.0
1.011727 -0.114450 0.0
1.023357 -0.160540 0.0
1.044150 -0.216974 0.0
1.081235 -0.285649 0.0
1.145654 -0.363297 0.0
1.263789 -0.465896 0.0
1.372052 -0.383060 0.0
1.405703 -0.291340 0.0
1.402308 -0.225272 0.0
1.387473 -0.177614 0.0
1.370710 -0.142990 0.0
1.356803 -0.118506 0.0
1.349654 -0.100767 0.0
1.352810 -0.085136 0.0
1.369111 -0.065179 0.0
1.398123 -0.031561 0.0
1.429164 0.022092 0.0
1.449157 0.083953 0.0
1.454177 0.144187 0.0
1.445476 0.197042 0.0
1.425625 0.239824 0.0
1.397166 0.271702 0.0
1.362202 0.292727 0.0
1.322448 0.303294 0.0
1.279375 0.303904 0.0
1.234327 0.295071 0.0
1.188584 0.277330 0.0
1.143397 0.251296 0.0
1.099950 0.217801 0.0
1.059176 0.178195 0.0
1.021265 0.134940 0.0
0.984759 0.092195 0.0
0.945995 0.054641 0.0
0.900731 0.022999 0.0
0.847957 -0.009300 0.0
0.795874 -0.050266 0.0
0.759385 -0.099018 0.0
0.747694 -0.147605 0.0
0.760696 -0.187324 0.0
0.794554 -0.211179 0.0
0.845706 -0.214181 0.0
0.911507 -0.193511 0.0
0.989379 -0.149031 0.0
1.075592 -0.084061 0.0
1.160469 -0.009573 0.0
1.230199 0.058257 0.0
1.279802 0.111160 0.0
1.312239 0.150129 0.0
1.330168 0.176802 0.0
1.335743 0.192869 0.0
1.330815 0.199996 0.0
1.317040 0.199767 0.0
1.295936 0.193646 0.0
1.268905 0.182953 0.0
1.237233 0.168867 0.0
1.202044 0.152485 0.0
1.164183 0.134984 0.0
1.124042 0.117876 0.0
1.081438 0.103101 0.0
1.035835 0.092561 0.0
0.987103 0.086932 0.0
0.936518 0.084509 0.0
0.887265 0.081260 0.0
0.843791 0.072562 0.0
0.810258 0.055498 0.0
0.789137 0.030050 0.0
0.780726 -0.001438 0.0
0.783474 -0.035561 0.0
0.795005 -0.068648 0.0
0.813182 -0.097989 0.0
0.836455 -0.121913 0.0
0.863835 -0.139444 0.0
0.894776 -0.149978 0.0
0.929018 -0.153090 0.0
0.966413 -0.148465 0.0
1.006735 -0.135955 0.0
1.049505 -0.115715 0.0
1.093831 -0.088422 0.0
1.138261 -0.055517 0.0
1.180350 -0.019707 0.0
1.216177 0.014716 0.0
1.242817 0.044274 0.0
1.259797 0.067785 0.0
1.267500 0.084805 0.0
1.266645 0.095296 0.0
1.258168 0.099630 0.0
1.243126 0.098572 0.0
1.222611 0.093270 0.0
1.197696 0.085220 0.0
1.169414 0.076160 0.0
1.138774 0.067844 0.0
1.106815 0.061648 0.0
1.074662 0.058168 0.0
1.043585 0.056964 0.0
1.015036 0.056657 0.0
0.990643 0.055458 0.0
0.972718 0.050424 0.0
0.999823 -0.014228 0.0
0.999159 -0.044140 0.0
0.998049 -0.077895 0.0
0.997126 -0.118318 0.0
0.997910 -0.169086 0.0
1.003959 -0.235271 0.0
1.023538 -0.324016 0.0
1.075038 -0.440848 0.0
1.219197 -0.650639 0.0
1.316265 -0.403646 0.0
1.266887 -0.255027 0.0
1.194274 -0.185577 0.0
1.133079 -0.141279 0.0
1.081527 -0.111010 0.0
1.038607 -0.093658 0.0
1.007020 -0.086880 0.0
0.991561 -0.086721 0.0
0.998723 -0.087057 0.0
1.034351 -0.074323 0.0
1.096011 -0.027848 0.0
1.159093 0.050817 0.0
1.202188 0.129208 0.0
1.226193 0.196717 0.0
1.235097 0.251096 0.0
1.231697 0.292290 0.0
1.217901 0.320899 0.0
1.195206 0.337571 0.0
1.165002 0.342903 0.0
1.128662 0.337460 0.0
1.087509 0.321837 0.0
1.042631 0.296854 0.0
0.994284 0.264037 0.0
0.940610 0.226407 0.0
0.876762 0.188486 0.0
0.798123 0.153794 0.0
0.708675 0.121253 0.0
0.625222 0.085104 0.0
0.568141 0.038451 0.0
0.545432 -0.023225 0.0
0.550097 -0.094234 0.0
0.571522 -0.162123 0.0
0.603348 -0.217634 0.0
0.643709 -0.255087 0.0
0.692997 -0.270713 0.0
0.752194 -0.261977 0.0
0.821788 -0.228031 0.0
0.901101 -0.170588 0.0
0.987811 -0.094635 0.0
1.073795 -0.012395 0.0
1.146135 0.059870 0.0
1.199532 0.115585 0.0
1.236295 0.156654 0.0
1.258581 0.185155 0.0
1.268247 0.202971 0.0
1.266988 0.211826 0.0
1.256383 0.213297 0.0
1.237892 0.208824 0.0
1.212822 0.199738 0.0
1.182246 0.187380 0.0
1.146868 0.173328 0.0
1.106923 0.159619 0.0
1.062311 0.148574 0.0
1.013191 0.141810 0.0
0.960899 0.138708 0.0
0.908576 0.135641 0.0
0.860778 0.127179 0.0
0.822033 0.108862 0.0
0.795267 0.079497 0.0
0.781134 0.041306 0.0
0.778449 -0.001598 0.0
0.784992 -0.044692 0.0
0.798333 -0.084389 0.0
0.816466 -0.118558 0.0
0.837965 -0.146116 0.0
0.861938 -0.166594 0.0
0.887952 -0.179783 0.0
0.915938 -0.185514 0.0
0.946049 -0.183548 0.0
0.978474 -0.173619 0.0
1.013243 -0.155590 0.0
1.050069 -0.129699 0.0
1.088226 -0.096827 0.0
1.126459 -0.058719 0.0
1.162692 -0.018333 0.0
1.193619 0.019756 0.0
1.216710 0.052231 0.0
1.231361 0.078004 0.0
1.237649 0.096663 0.0
1.236047 0.108343 0.0
1.227264 0.113685 0.0
1.212144 0.113793 0.0
1.191598 0.110157 0.0
1.166596 0.104508 0.0
1.138189 0.098543 0.0
1.107566 0.093530 0.0
1.076107 0.089898 0.0
1.045395 0.087022 0.0
1.017182 0.083361 0.0
0.993285 0.077043 0.0
0.975852 0.064196 0.0
0.999232 -0.013283 0.0
0.996109 -0.041297 0.0
0.989674 -0.073193 0.0
0.979600 -0.112021 0.0
0.965600 -0.162167 0.0
0.948081 -0.230718 0.0
0.930399 -0.330466 0.0
0.927367 -0.482867 0.0
1.021453 -0.846866 0.0
1.014909 -0.196719 0.0
0.822295 -0.107929 0.0
0.674129 -0.101089 0.0
0.586974 -0.077417 0.0
0.519405 -0.055751 0.0
0.464867 -0.051459 0.0
0.434375 -0.067000 0.0
0.435925 -0.092691 0.0
0.469253 -0.121577 0.0
0.531690 -0.137868 0.0
0.620392 -0.114665 0.0
0.727875 -0.032931 0.0
0.825544 0.072192 0.0
0.895629 0.159643 0.0
0.945321 0.229573 0.0
0.978228 0.284306 0.0
0.995744 0.325162 0.0
0.998902 0.352844 0.0
0.988849 0.367887 0.0
0.966760 0.370906 0.0
0.933467 0.362838 0.0
0.888744 0.345454 0.0
0.830520 0.322008 0.0
0.755810 0.296820 0.0
0.665709 0.272021 0.0
0.571415 0.243192 0.0
0.492141 0.200576 0.0
0.443713 0.137662 0.0
0.429718 0.056969 0.0
0.442484 -0.031801 0.0
0.469510 -0.117349 0.0
0.501481 -0.192404 0.0
0.535121 -0.252820 0.0
0.570615 -0.295757 0.0
0.609954 -0.318671 0.0
0.655821 -0.319083 0.0
0.710540 -0.295238 0.0
0.775169 -0.247322 0.0
0.849041 -0.178482 0.0
0.929644 -0.095135 0.0
1.009428 -0.009515 0.0
1.077281 0.063718 0.0
1.128638 0.120401 0.0
1.165007 0.162754 0.0
1.187894 0.192820 0.0
1.198731 0.212399 0.0
1.198914 0.223146 0.0
1.189769 0.226611 0.0
1.172480 0.224310 0.0
1.147979 0.217885 0.0
1.116849 0.209331 0.0
1.079374 0.201037 0.0
1.035936 0.195206 0.0
0.987774 0.192460 0.0
0.937682 0.190441 0.0
0.889957 0.183955 0.0
0.849279 0.167340 0.0
0.819125 0.137600 0.0
0.800811 0.095839 0.0
0.793695 0.046211 0.0
0.796033 -0.006156 0.0
0.805619 -0.056262 0.0
0.820275 -0.100816 0.0
0.838199 -0.138188 0.0
0.858015 -0.167802 0.0
0.878803 -0.189669 0.0
0.900117 -0.204034 0.0
0.921958 -0.211090 0.0
0.944683 -0.210809 0.0
0.968825 -0.202926 0.0
0.994866 -0.187094 0.0
1.023027 -0.163180 0.0
1.053114 -0.131589 0.0
1.084453 -0.093528 0.0
1.115849 -0.051154 0.0
1.145323 -0.007822 0.0
1.170159 0.031882 0.0
1.188421 0.065441 0.0
1.199481 0.091877 0.0
1.203265 0.110948 0.0
1.200062 0.123065 0.0
1.190401 0.129194 0.0
1.174973 0.130729 0.0
1.154617 0.129294 0.0
1.130346 0.126435 0.0
1.103394 0.123213 0.0
1.075236 0.119833 0.0
1.047553 0.115482 0.0
1.022132 0.108535 0.0
1.000700 0.097198 0.0
0.985071 0.077103 0.0
0.998681 -0.011197 0.0
0.993257 -0.034837 0.0
0.981766 -0.061726 0.0
0.962731 -0.094380 0.0
0.933401 -0.136479 0.0
0.888701 -0.194186 0.0
0.818671 -0.279286 0.0
0.703764 -0.416108 0.0
0.315935 -0.721106 0.0
-0.459627 0.254522 0.0
-0.459627 0.000000 0.0
-0.035523 -0.025022 0.0
-0.067077 -0.045276 0.0
-0.045054 -0.042345 0.0
0.002874 -0.058254 0.0
0.058536 -0.085375 0.0
0.103841 -0.121172 0.0
0.144097 -0.166680 0.0
0.193023 -0.204128 0.0
0.260344 -0.204428 0.0
0.351427 -0.141735 0.0
0.459490 -0.024737 0.0
0.558744 0.087233 0.0
0.636995 0.174040 0.0
0.698775 0.245152 0.0
0.743178 0.302397 0.0
0.769633 0.345997 0.0
0.778188 0.376232 0.0
0.768946 0.393892 0.0
0.741478 0.400614 0.0
0.694727 0.399153 0.0
0.628692 0.392568 0.0
0.548615 0.381046 0.0
0.468251 0.358260 0.0
0.405950 0.313549 0.0
0.374427 0.241016 0.0
0.374438 0.145640 0.0
0.397759 0.039666 0.0
0.432652 -0.062156 0.0
0.469696 -0.151065 0.0
0.504438 -0.225402 0.0
0.535386 -0.284411 0.0
0.563120 -0.327394 0.0
0.589960 -0.353211 0.0
0.619492 -0.359941 0.0
0.655642 -0.345250 0.0
0.701386 -0.307683 0.0
0.757678 -0.248286 0.0
0.823188 -0.171444 0.0
0.894667 -0.084469 0.0
0.964659 0.000827 0.0
1.024150 0.072444 0.0
1.069872 0.128620 0.0
1.102591 0.171347 0.0
1.123247 0.202379 0.0
1.132863 0.223368 0.0
1.132463 0.235934 0.0
1.122973 0.241766 0.0
1.105117 0.242786 0.0
1.079404 0.241273 0.0
1.046356 0.239619 0.0
1.007058 0.239360 0.0
0.963831 0.239695 0.0
0.920455 0.236674 0.0
0.881473 0.224429 0.0
0.850780 0.198236 0.0
0.830445 0.157193 0.0
0.820557 0.104449 0.0
0.819920 0.045353 0.0
0.826780 -0.014496 0.0
0.839170 -0.069897 0.0
0.855164 -0.117830 0.0
0.873077 -0.157011 0.0
0.891542 -0.187259 0.0
0.909581 -0.209039 0.0
0.926680 -0.223077 0.0
0.942827 -0.230035 0.0
0.958479 -0.230240 0.0
0.974425 -0.223582 0.0
0.991555 -0.209610 0.0
1.010584 -0.187854 0.0
1.031827 -0.158245 0.0
1.055088 -0.121473 0.0
1.079660 -0.079178 0.0
1.104344 -0.033956 0.0
1.127151 0.010373 0.0
1.145901 0.049939 0.0
1.159250 0.082969 0.0
1.166595 0.108727 0.0
1.167792 0.127292 0.0
1.163021 0.139399 0.0
1.152716 0.146258 0.0
1.137537 0.149301 0.0
1.118394 0.149841 0.0
1.096470 0.148682 0.0
1.073202 0.145791 0.0
1.050195 0.140214 0.0
1.029080 0.130340 0.0
1.011337 0.114569 0.0
0.998383 0.088314 0.0
0.998294 -0.008172 0.0
0.991261 -0.025406 0.0
0.976271 -0.044676 0.0
0.951166 -0.067290 0.0
0.911797 -0.094870 0.0
0.850181 -0.129480 0.0
0.749694 -0.173475 0.0
0.571146 -0.228464 0.0
0.227698 -0.275507 0.0
0.000000 0.254522 0.0
-0.000000 -0.000000 0.0
0.000000 0.000000 0.0
-0.025984 -0.024623 0.0
-0.056644 -0.055723 0.0
-0.059180 -0.090268 0.0
-0.060347 -0.107855 0.0
-0.070546 -0.133798 0.0
-0.079887 -0.184968 0.0
-0.074034 -0.240619 0.0
-0.041606 -0.267685 0.0
0.026860 -0.238026 0.0
0.130590 -0.140239 0.0
0.248239 -0.014168 0.0
0.351715 0.093714 0.0
0.433013 0.182401 0.0
0.495398 0.258360 0.0
0.537721 0.321255 0.0
0.559053 0.371086 0.0
0.558628 0.408704 0.0
0.536210 0.435687 0.0
0.493687 0.453353 0.0
0.437915 0.460176 0.0
0.382332 0.449098 0.0
0.343333 0.409571 0.0
0.332013 0.335860 0.0
0.348868 0.233373 0.0
0.386374 0.115767 0.0
0.434002 -0.001411 0.0
0.481847 -0.103817 0.0
0.524479 -0.189080 0.0
0.560182 -0.257832 0.0
0.588188 -0.310934 0.0
0.608864 -0.349281 0.0
0.624046 -0.373346 0.0
0.637238 -0.382529 0.0
0.653265 -0.374838 0.0
0.677063 -0.347636 0.0
0.711958 -0.299519 0.0
0.758441 -0.232204 0.0
0.814236 -0.150982 0.0
0.875188 -0.063603 0.0
0.933892 0.018678 0.0
0.983422 0.087136 0.0
1.021784 0.141751 0.0
1.049121 0.183982 0.0
1.065913 0.215356 0.0
1.072769 0.237491 0.0
1.070275 0.252193 0.0
1.058938 0.261551 0.0
1.039281 0.267876 0.0
1.012203 0.273142 0.0
0.979527 0.277811 0.0
0.944372 0.279626 0.0
0.910847 0.273644 0.0
0.882965 0.254323 0.0
0.863400 0.218601 0.0
0.852969 0.167594 0.0
0.851087 0.105819 0.0
0.856554 0.039153 0.0
0.867820 -0.026423 0.0
0.883034 -0.085574 0.0
0.900381 -0.135495 0.0
0.918287 -0.175165 0.0
0.935446 -0.204729 0.0
0.950892 -0.225054 0.0
0.964075 -0.237345 0.0
0.974939 -0.242778 0.0
0.983949 -0.242159 0.0
0.992034 -0.235695 0.0
1.000393 -0.222986 0.0
1.010194 -0.203308 0.0
1.022271 -0.176110 0.0
1.036918 -0.141515 0.0
1.053842 -0.100632 0.0
1.072235 -0.055581 0.0
1.090794 -0.009368 0.0
1.107684 0.034039 0.0
1.121219 0.071985 0.0
1.130394 0.103191 0.0
1.134689 0.127337 0.0
1.133955 0.144858 0.0
1.128359 0.156702 0.0
1.118358 0.164037 0.0
1.104715 0.167891 0.0
1.088482 0.168789 0.0
1.070952 0.166483 0.0
1.053533 0.159948 0.0
1.037581 0.147674 0.0
1.024246 0.128313 0.0
1.014536 0.097235 0.0
0.998149 -0.004615 0.0
0.990532 -0.014314 0.0
0.974381 -0.024627 0.0
0.947636 -0.035488 0.0
0.906662 -0.046328 0.0
0.845490 -0.055233 0.0
0.755050 -0.056795 0.0
0.624692 -0.036239 0.0
0.457123 0.046478 0.0
0.183014 0.165250 0.0
0.000000 0.000000 0.0
-0.000000 -0.000000 0.0
0.000000 0.000000 0.0
-0.027003 -0.025523 0.0
-0.074774 -0.071639 0.0
-0.127259 -0.072832 0.0
-0.187726 -0.098156 0.0
-0.232321 -0.166674 0.0
-0.249115 -0.247972 0.0
-0.238293 -0.303583 0.0
-0.200308 -0.308579 0.0
-0.124671 -0.249054 0.0
-0.008823 -0.138850 0.0
0.110432 -0.004336 0.0
0.203767 0.105819 0.0
0.275191 0.201132 0.0
0.326769 0.284583 0.0
0.357333 0.355862 0.0
0.366677 0.415010 0.0
0.356926 0.461550 0.0
0.334362 0.492577 0.0
0.310265 0.500823 0.0
0.298284 0.476015 0.0
0.308333 0.411603 0.0
0.341983 0.311498 0.0
0.393708 0.189154 0.0
0.455391 0.060797 0.0
0.516683 -0.055359 0.0
0.570442 -0.151473 0.0
0.615321 -0.228936 0.0
0.650618 -0.288975 0.0
0.675939 -0.333119 0.0
0.691386 -0.363220 0.0
0.697929 -0.381132 0.0
0.697977 -0.387984 0.0
0.695829 -0.383264 0.0
0.697310 -0.364491 0.0
0.708155 -0.328403 0.0
0.731800 -0.273449 0.0
0.768098 -0.201831 0.0
0.813822 -0.119429 0.0
0.863914 -0.034292 0.0
0.911402 0.043088 0.0
0.951144 0.107694 0.0
0.981859 0.159988 0.0
1.003290 0.201126 0.0
1.015542 0.232613 0.0
1.018851 0.256256 0.0
1.013562 0.274115 0.0
1.000324 0.288209 0.0
0.980479 0.299733 0.0
0.956443 0.307931 0.0
0.931680 0.309424 0.0
0.909991 0.299061 0.0
0.894385 0.272393 0.0
0.886300 0.228181 0.0
0.885696 0.169048 0.0
0.891745 0.100198 0.0
0.903372 0.027680 0.0
0.919058 -0.041901 0.0
0.936931 -0.103183 0.0
0.955302 -0.153605 0.0
0.972747 -0.192405 0.0
0.988125 -0.220026 0.0