# vtk DataFile Version 3.0
Scalar Field
ASCII
DATASET RECTILINEAR_GRID
DIMENSIONS 100 26 1
X_COORDINATES 100 double
0.050000 0.150000 0.250000 0.350000 0.450000 0.550000 0.650000 0.750000 0.850000 0.950000 1.050000 1.150000 1.250000 1.350000 1.450000 1.550000 1.650000 1.750000 1.850000 1.950000 2.050000 2.150000 2.250000 2.350000 2.450000 2.550000 2.650000 2.750000 2.850000 2.950000 3.050000 3.150000 3.250000 3.350000 3.450000 3.550000 3.650000 3.750000 3.850000 3.950000 4.050000 4.150000 4.250000 4.350000 4.450000 4.550000 4.650000 4.750000 4.850000 4.950000 5.050000 5.150000 5.250000 5.350000 5.450000 5.550000 5.650000 5.750000 5.850000 5.950000 6.050000 6.150000 6.250000 6.350000 6.450000 6.550000 6.650000 6.750000 6.850000 6.950000 7.050000 7.150000 7.250000 7.350000 7.450000 7.550000 7.650000 7.750000 7.850000 7.950000 8.050000 8.150000 8.250000 8.350000 8.450000 8.550000 8.650000 8.750000 8.850000 8.950000 9.050000 9.150000 9.250000 9.350000 9.450000 9.550000 9.650000 9.750000 9.850000 9.950000 
Y_COORDINATES 26 double
0.050000 0.150000 0.250000 0.350000 0.450000 0.550000 0.650000 0.750000 0.850000 0.950000 1.050000 1.150000 1.250000 1.350000 1.450000 1.550000 1.650000 1.750000 1.850000 1.950000 2.050000 2.150000 2.250000 2.350000 2.450000 2.550000 
Z_COORDINATES 1 double
0.0
POINT_DATA 2600
SCALARS Skalarfeld double 1
LOOKUP_TABLE default
0.279679
0.264392
0.249131
0.230857
0.208429
0.181336
0.149475
0.113147
0.073125
0.030696
-0.012423
-0.054341
-0.093303
-0.127920
-0.157308
-0.180281
-0.196585
-0.206332
-0.209908
-0.207942
-0.201241
-0.190713
-0.177282
-0.161803
-0.145005
-0.127463
-0.109595
-0.091707
-0.074045
-0.056868
-0.040511
-0.025412
-0.011226
0.000989
0.010482
0.016861
0.020412
0.021911
0.021590
0.019635
0.016072
0.010788
0.003638
-0.005383
-0.015992
-0.027496
-0.038731
-0.048062
-0.053640
-0.054230
-0.050233
-0.042368
-0.033163
-0.023730
-0.014755
-0.006652
0.000370
0.006247
0.010997
0.014672
0.017242
0.018779
0.019208
0.018511
0.016814
0.014433
0.011828
0.009428
0.007414
0.005632
0.003698
0.001260
-0.001788
-0.005240
-0.008692
-0.011749
-0.014160
-0.015837
-0.016865
-0.017430
-0.017671
-0.017646
-0.017409
-0.017075
-0.016775
-0.016619
-0.016699
-0.017092
-0.017858
-0.019045
-0.020689
-0.022836
-0.025433
-0.028473
-0.031903
-0.035650
-0.039636
-0.043774
-0.047973
-0.052245
0.270886
0.264411
0.252151
0.235068
0.212988
0.185659
0.153006
0.115332
0.073490
0.028969
-0.016193
-0.059823
-0.100020
-0.135324
-0.164606
-0.187661
-0.203965
-0.213516
-0.216701
-0.214157
-0.206715
-0.195319
-0.180934
-0.164462
-0.146679
-0.128195
-0.109464
-0.090812
-0.072499
-0.054784
-0.037994
-0.022129
-0.008229
0.003238
0.011906
0.017854
0.021081
0.021895
0.020929
0.018457
0.014527
0.009006
0.001715
-0.007396
-0.018083
-0.029686
-0.041028
-0.050352
-0.055574
-0.055203
-0.049664
-0.042260
-0.033305
-0.023933
-0.014962
-0.006853
0.000184
0.006091
0.010894
0.014669
0.017538
0.019320
0.019718
0.018998
0.017234
0.014765
0.012116
0.009757
0.007858
0.006202
0.004319
0.001787
-0.001500
-0.005269
-0.008999
-0.012170
-0.014524
-0.016212
-0.017171
-0.017700
-0.017934
-0.017893
-0.017589
-0.017179
-0.016808
-0.016581
-0.016590
-0.016922
-0.017641
-0.018796
-0.020415
-0.022494
-0.025085
-0.028159
-0.031634
-0.035433
-0.039479
-0.043678
-0.047921
-0.051938
0.274086
0.269974
0.259614
0.243567
0.221743
0.193828
0.159601
0.119257
0.073732
0.024896
-0.024444
-0.071475
-0.114062
-0.150848
-0.181056
-0.204372
-0.220697
-0.229814
-0.232121
-0.228253
-0.219064
-0.205558
-0.188789
-0.169768
-0.149390
-0.128393
-0.107354
-0.086711
-0.066810
-0.047961
-0.030464
-0.014901
-0.001971
0.007905
0.014510
0.018004
0.018937
0.017351
0.014395
0.010597
0.006047
0.000581
-0.006054
-0.014001
-0.023115
-0.032814
-0.042000
-0.049125
-0.052629
-0.051750
-0.046956
-0.039406
-0.030910
-0.022428
-0.014109
-0.006516
0.000122
0.005725
0.010294
0.013875
0.016520
0.018227
0.019008
0.018641
0.017316
0.015375
0.013230
0.011175
0.009270
0.007344
0.005057
0.002115
-0.001494
-0.005462
-0.009268
-0.012424
-0.014692
-0.016113
-0.017164
-0.017873
-0.018205
-0.018201
-0.017789
-0.017286
-0.016844
-0.016531
-0.016446
-0.016694
-0.017348
-0.018460
-0.020059
-0.022153
-0.024746
-0.027798
-0.031280
-0.035125
-0.039238
-0.043513
-0.047779
-0.052105
0.284937
0.281599
0.272289
0.256975
0.235218
0.206330
0.169662
0.125063
0.073475
0.017352
-0.038782
-0.090914
-0.136715
-0.175244
-0.206265
-0.229761
-0.245814
-0.254124
-0.255029
-0.249122
-0.237283
-0.220610
-0.200299
-0.177524
-0.153359
-0.128727
-0.104380
-0.080913
-0.058790
-0.038391
-0.020088
-0.004622
0.007305
0.015179
0.018829
0.018610
0.015394
0.010361
0.004185
-0.001683
-0.007137
-0.012387
-0.017790
-0.023628
-0.029921
-0.036300
-0.041983
-0.045918
-0.047156
-0.045290
-0.040633
-0.034002
-0.026379
-0.018449
-0.011119
-0.004471
0.001337
0.006209
0.010123
0.013110
0.015233
0.016560
0.017148
0.017023
0.016329
0.015175
0.013668
0.011924
0.009984
0.007817
0.005261
0.002150
-0.001422
-0.005195
-0.008764
-0.011792
-0.014147
-0.015887
-0.017155
-0.017921
-0.018126
-0.017842
-0.017470
-0.017017
-0.016612
-0.016245
-0.016074
-0.016251
-0.016850
-0.017922
-0.019495
-0.021581
-0.024174
-0.027247
-0.030763
-0.034657
-0.038875
-0.043324
-0.047868
-0.053117
0.301979
0.299046
0.290537
0.275964
0.254363
0.224353
0.184419
0.133556
0.072412
0.004107
-0.062565
-0.121505
-0.170746
-0.210598
-0.241920
-0.265191
-0.280470
-0.287506
-0.286371
-0.277538
-0.261951
-0.240885
-0.215763
-0.188000
-0.158899
-0.129602
-0.101059
-0.074029
-0.049084
-0.026637
-0.007006
0.008832
0.019885
0.025370
0.025097
0.019725
0.010756
0.000281
-0.009694
-0.017970
-0.024251
-0.028893
-0.032483
-0.035549
-0.038362
-0.040843
-0.042589
-0.043023
-0.041648
-0.038290
-0.033183
-0.026860
-0.019962
-0.013049
-0.006570
-0.000827
0.004021
0.007961
0.010970
0.013091
0.014431
0.015137
0.015334
0.015136
0.014643
0.013877
0.012808
0.011418
0.009680
0.007491
0.004828
0.001620
-0.001817
-0.005357
-0.008667
-0.011514
-0.013792
-0.015500
-0.016676
-0.017335
-0.017520
-0.017344
-0.016971
-0.016463
-0.015865
-0.015433
-0.015270
-0.015430
-0.016004
-0.017050
-0.018600
-0.020678
-0.023276
-0.026371
-0.029930
-0.033928
-0.038318
-0.043049
-0.048068
-0.054489
0.324453
0.321932
0.314439
0.301098
0.280302
0.249620
0.205949
0.146339
0.070144
-0.019522
-0.101970
-0.168384
-0.219499
-0.258846
-0.289323
-0.311956
-0.326086
-0.331615
-0.327866
-0.315092
-0.294407
-0.267429
-0.235947
-0.201712
-0.166322
-0.131169
-0.097424
-0.066022
-0.037650
-0.012727
0.008632
0.025393
0.035877
0.038785
0.033857
0.022124
0.005792
-0.012028
-0.027842
-0.038772
-0.045561
-0.048939
-0.049986
-0.049660
-0.048576
-0.046962
-0.044741
-0.041678
-0.037566
-0.032376
-0.026306
-0.019729
-0.013080
-0.006755
-0.001068
0.003766
0.007660
0.010600
0.012583
0.013665
0.014047
0.014000
0.013661
0.013186
0.012692
0.012152
0.011426
0.010347
0.008768
0.006586
0.003778
0.000589
-0.002757
-0.006274
-0.009426
-0.012082
-0.014161
-0.015648
-0.016576
-0.016997
-0.016992
-0.016666
-0.016136
-0.015503
-0.014873
-0.014395
-0.014172
-0.014286
-0.014805
-0.015796
-0.017312
-0.019372
-0.021980
-0.025117
-0.028757
-0.032878
-0.037463
-0.042514
-0.048060
-0.055677
0.351586
0.349661
0.343772
0.332735
0.314268
0.284541
0.237787
0.166797
0.066252
-0.063811
-0.167519
-0.237312
-0.284288
-0.318732
-0.346562
-0.368991
-0.382860
-0.387546
-0.381005
-0.363285
-0.335981
-0.301350
-0.261753
-0.219385
-0.176195
-0.133866
-0.093825
-0.057230
-0.024952
0.002476
0.025005
0.043026
0.053586
0.054349
0.045139
0.027479
0.004098
-0.021372
-0.044682
-0.061639
-0.069146
-0.071047
-0.069217
-0.065251
-0.060201
-0.054606
-0.048640
-0.042287
-0.035509
-0.028357
-0.021010
-0.013746
-0.006881
-0.000700
0.004572
0.008773
0.011784
0.013501
0.014025
0.013643
0.012741
0.011827
0.010844
0.009916
0.009281
0.008938
0.008674
0.008181
0.007166
0.005425
0.002896
-0.000303
-0.004064
-0.007605
-0.010775
-0.013384
-0.015331
-0.016592
-0.017224
-0.017319
-0.016988
-0.016358
-0.015552
-0.014692
-0.013892
-0.013270
-0.012923
-0.012937
-0.013383
-0.014323
-0.015803
-0.017843
-0.020448
-0.023604
-0.027294
-0.031503
-0.036240
-0.041548
-0.047527
-0.056132
0.382269
0.381219
0.377805
0.370724
0.357244
0.332127
0.285825
0.202500
0.060457
-0.152175
-0.274136
-0.328994
-0.358098
-0.380156
-0.403245
-0.428185
-0.446990
-0.453411
-0.444869
-0.421627
-0.386481
-0.342777
-0.293652
-0.241827
-0.189634
-0.139083
-0.091913
-0.049591
-0.013288
0.016117
0.038090
0.054561
0.065951
0.065345
0.053320
0.032366
0.005594
-0.023703
-0.051809
-0.074898
-0.088187
-0.089979
-0.086367
-0.079714
-0.071566
-0.062782
-0.053761
-0.044658
-0.035555
-0.026561
-0.017857
-0.009679
-0.002281
0.004110
0.009299
0.013106
0.015349
0.015904
0.014855
0.012529
0.009464
0.006233
0.003989
0.002593
0.002074
0.002342
0.003014
0.003624
0.003743
0.003048
0.001374
-0.001264
-0.004677
-0.008431
-0.012046
-0.014817
-0.016849
-0.018045
-0.018489
-0.018304
-0.017642
-0.016659
-0.015509
-0.014335
-0.013264
-0.012411
-0.011873
-0.011731
-0.012054
-0.012896
-0.014294
-0.016270
-0.018825
-0.021949
-0.025624
-0.029843
-0.034624
-0.040034
-0.046221
-0.055386
0.414872
0.414988
0.414993
0.413826
0.408997
0.394886
0.358690
0.271065
0.058465
-0.341487
-0.433081
-0.425804
-0.419681
-0.422514
-0.438597
-0.469526
-0.504260
-0.519253
-0.511400
-0.483551
-0.441006
-0.388598
-0.330287
-0.269298
-0.208339
-0.149798
-0.095846
-0.048428
-0.009122
0.020896
0.040832
0.051014
0.056374
0.053630
0.042147
0.023996
0.000967
-0.024948
-0.051161
-0.074472
-0.091634
-0.099045
-0.096132
-0.089050
-0.079780
-0.069472
-0.058742
-0.047921
-0.037223
-0.026851
-0.017030
-0.008010
-0.000037
0.006654
0.011820
0.015149
0.016283
0.015009
0.011528
0.006539
0.001041
-0.003966
-0.007751
-0.009454
-0.009263
-0.007770
-0.005609
-0.003399
-0.001674
-0.000842
-0.001155
-0.002679
-0.005286
-0.008639
-0.012274
-0.015709
-0.018058
-0.019393
-0.019858
-0.019572
-0.018706
-0.017448
-0.015988
-0.014496
-0.013124
-0.011998
-0.011219
-0.010871
-0.011016
-0.011705
-0.012968
-0.014823
-0.017270
-0.020292
-0.023870
-0.027985
-0.032652
-0.037938
-0.044003
-0.053106
0.447230
0.448692
0.452750
0.459023
0.466345
0.471245
0.463269
0.408655
0.158758
-0.690849
-0.614335
-0.480032
-0.445258
-0.433791
-0.442884
-0.476940
-0.526104
-0.563121
-0.560671
-0.532299
-0.486602
-0.429714
-0.366189
-0.299656
-0.233214
-0.169763
-0.112227
-0.063558
-0.026168
-0.000831
0.013574
0.019245
0.018381
0.014441
0.007832
-0.002117
-0.015436
-0.031725
-0.049854
-0.067790
-0.082911
-0.092812
-0.095362
-0.090260
-0.082178
-0.072409
-0.061724
-0.050607
-0.039426
-0.028509
-0.018186
-0.008782
-0.000616
0.005986
0.010632
0.012825
0.012073
0.008217
0.001765
-0.006072
-0.013750
-0.019927
-0.023861
-0.024730
-0.023090
-0.019829
-0.015782
-0.011681
-0.008123
-0.005558
-0.004278
-0.004407
-0.005885
-0.008461
-0.011714
-0.015122
-0.018124
-0.019992
-0.020704
-0.020553
-0.019699
-0.018343
-0.016704
-0.014984
-0.013362
-0.011985
-0.010968
-0.010399
-0.010342
-0.010844
-0.011934
-0.013625
-0.015911
-0.018768
-0.022158
-0.026045
-0.030415
-0.035306
-0.040856
-0.049136
0.476849
0.479599
0.487585
0.501319
0.521629
0.549450
0.584915
0.623151
0.697845
0.003498
-0.536842
-0.459349
-0.448610
-0.441723
-0.448150
-0.476050
-0.519354
-0.561011
-0.574321
-0.549951
-0.507366
-0.452869
-0.391104
-0.325933
-0.260843
-0.199403
-0.145453
-0.102647
-0.073018
-0.055720
-0.047596
-0.044912
-0.045203
-0.043214
-0.040687
-0.039233
-0.039992
-0.043699
-0.050474
-0.059541
-0.069234
-0.077464
-0.082456
-0.082583
-0.077427
-0.069967
-0.060995
-0.051071
-0.040681
-0.030292
-0.020370
-0.011370
-0.003739
0.002040
0.005391
0.005658
0.002337
-0.004487
-0.013820
-0.023894
-0.032791
-0.039093
-0.041994
-0.041071
-0.037388
-0.031985
-0.025831
-0.019736
-0.014325
-0.010048
-0.007197
-0.005910
-0.006172
-0.007796
-0.010428
-0.013576
-0.016679
-0.019224
-0.020522
-0.020723
-0.020112
-0.018877
-0.017247
-0.015453
-0.013700
-0.012158
-0.010961
-0.010206
-0.009967
-0.010290
-0.011204
-0.012717
-0.014817
-0.017462
-0.020592
-0.024133
-0.028022
-0.032241
-0.036864
-0.043525
0.501354
0.505044
0.515891
0.535004
0.564518
0.608156
0.672399
0.768335
0.903535
0.934033
0.000000
-0.455708
-0.452066
-0.450099
-0.456784
-0.476687
-0.504874
-0.532044
-0.544501
-0.529364
-0.493033
-0.445867
-0.392108
-0.335602
-0.279872
-0.228877
-0.186915
-0.157400
-0.140402
-0.132267
-0.128104
-0.123866
-0.116160
-0.104265
-0.090509
-0.076915
-0.065123
-0.056417
-0.051640
-0.050966
-0.053690
-0.058308
-0.062962
-0.066004
-0.065668
-0.061539
-0.055468
-0.047945
-0.039499
-0.030704
-0.022158
-0.014455
-0.008198
-0.004047
-0.002754
-0.005062
-0.011340
-0.021102
-0.032814
-0.044294
-0.053485
-0.059091
-0.059924
-0.056711
-0.050618
-0.042859
-0.034512
-0.026440
-0.019274
-0.013438
-0.009185
-0.006632
-0.005769
-0.006453
-0.008389
-0.011140
-0.014172
-0.016941
-0.018985
-0.019747
-0.019572
-0.018655
-0.017227
-0.015533
-0.013800
-0.012219
-0.010942
-0.010083
-0.009722
-0.009913
-0.010685
-0.012045
-0.013965
-0.016386
-0.019209
-0.022311
-0.025559
-0.028855
-0.032176
-0.036492
0.519005
0.523099
0.535126
0.556231
0.588480
0.634990
0.699543
0.783462
0.878882
0.964531
0.881022
0.000000
-0.455188
-0.458309
-0.459179
-0.468685
-0.481248
-0.490296
-0.488001
-0.470824
-0.439340
-0.400948
-0.358518
-0.316360
-0.277507
-0.245882
-0.225170
-0.216066
-0.214611
-0.214726
-0.211581
-0.200049
-0.180580
-0.157034
-0.131662
-0.106675
-0.083908
-0.064779
-0.050317
-0.041099
-0.037072
-0.037375
-0.040424
-0.044308
-0.047293
-0.047388
-0.044792
-0.040401
-0.034699
-0.028317
-0.021946
-0.016307
-0.012156
-0.010327
-0.011716
-0.017057
-0.026454
-0.038949
-0.052543
-0.064803
-0.073652
-0.077844
-0.076237
-0.070423
-0.061769
-0.051625
-0.041150
-0.031236
-0.022499
-0.015319
-0.009893
-0.006290
-0.004479
-0.004333
-0.005604
-0.007913
-0.010772
-0.013653
-0.016088
-0.017589
-0.017913
-0.017446
-0.016373
-0.014933
-0.013364
-0.011876
-0.010636
-0.009773
-0.009379
-0.009514
-0.010211
-0.011470
-0.013251
-0.015466
-0.017973
-0.020581
-0.023077
-0.025257
-0.026982
-0.028368
0.529049
0.533000
0.544531
0.564435
0.593948
0.634505
0.687201
0.751478
0.815804
0.836417
0.797513
0.679611
0.000000
-0.458840
-0.459371
-0.457131
-0.456133
-0.445375
-0.421535
-0.390258
-0.357734
-0.324839
-0.293874
-0.268240
-0.251847
-0.247186
-0.254742
-0.269815
-0.284004
-0.289894
-0.283417
-0.260103
-0.229668
-0.195136
-0.159328
-0.124699
-0.093170
-0.066125
-0.044492
-0.028832
-0.019313
-0.015536
-0.016372
-0.020053
-0.024582
-0.028220
-0.029215
-0.028173
-0.025554
-0.022007
-0.018284
-0.015210
-0.013685
-0.014706
-0.019253
-0.027944
-0.040529
-0.055582
-0.070746
-0.083457
-0.091709
-0.093906
-0.089638
-0.081224
-0.070147
-0.057850
-0.045531
-0.034074
-0.024059
-0.015810
-0.009461
-0.005028
-0.002448
-0.001593
-0.002253
-0.004103
-0.006711
-0.009573
-0.012201
-0.014199
-0.015138
-0.015196
-0.014567
-0.013485
-0.012192
-0.010907
-0.009810
-0.009043
-0.008708
-0.008876
-0.009579
-0.010813
-0.012519
-0.014577
-0.016792
-0.018902
-0.020598
-0.021562
-0.021516
-0.019569
0.531745
0.535133
0.544958
0.561626
0.585677
0.617391
0.655684
0.695567
0.724094
0.714465
0.649656
0.561708
0.390663
0.000000
-0.453114
-0.446858
-0.444352
-0.411915
-0.360913
-0.307596
-0.263002
-0.233160
-0.213402
-0.205604
-0.212928
-0.237888
-0.274669
-0.312455
-0.339793
-0.348837
-0.331017
-0.299212
-0.259682
-0.216464
-0.172803
-0.131256
-0.093686
-0.061328
-0.034917
-0.014840
-0.001234
0.006073
0.007764
0.005188
0.000203
-0.005347
-0.009496
-0.011475
-0.011814
-0.011117
-0.010174
-0.009896
-0.011321
-0.015564
-0.023604
-0.035835
-0.051603
-0.069061
-0.085582
-0.098514
-0.105919
-0.105322
-0.098863
-0.088287
-0.075296
-0.061395
-0.047776
-0.035278
-0.024418
-0.015454
-0.008462
-0.003408
-0.000202
0.001281
0.001219
-0.000123
-0.002373
-0.005075
-0.007753
-0.010008
-0.011486
-0.012022
-0.011845
-0.011160
-0.010202
-0.009190
-0.008314
-0.007723
-0.007531
-0.007814
-0.008607
-0.009898
-0.011608
-0.013580
-0.015564
-0.017224
-0.018154
-0.017913
-0.016078
-0.010606
0.528136
0.530759
0.538276
0.550698
0.567831
0.588798
0.611092
0.628946
0.631215
0.599907
0.517085
0.372523
0.219618
-0.215347
-0.520726
-0.474747
-0.449510
-0.389406
-0.312664
-0.240060
-0.183302
-0.150493
-0.135698
-0.144082
-0.175507
-0.225961
-0.285209
-0.338921
-0.374089
-0.377351
-0.352504
-0.314648
-0.269436
-0.221266
-0.173501
-0.128594
-0.088203
-0.053327
-0.024466
-0.001796
0.014667
0.025009
0.029552
0.029110
0.025112
0.019345
0.013415
0.008962
0.006144
0.004289
0.002573
0.000014
-0.004522
-0.012192
-0.023856
-0.039597
-0.058352
-0.077931
-0.095515
-0.108387
-0.114267
-0.111384
-0.103161
-0.091180
-0.077129
-0.062473
-0.048332
-0.035463
-0.024306
-0.015050
-0.007721
-0.002250
0.001466
0.003542
0.004118
0.003394
0.001668
-0.000667
-0.003173
-0.005448
-0.007202
-0.008144
-0.008363
-0.008054
-0.007436
-0.006725
-0.006110
-0.005747
-0.005758
-0.006225
-0.007183
-0.008610
-0.010405
-0.012375
-0.014219
-0.015530
-0.015813
-0.014514
-0.011056
-0.002141
0.519625
0.521368
0.526283
0.534090
0.544107
0.554841
0.563305
0.564035
0.547985
0.501670
0.407322
0.240150
-0.052153
-0.650313
-0.566705
-0.464580
-0.410089
-0.346763
-0.270707
-0.198107
-0.139144
-0.099484
-0.087624
-0.106823
-0.153205
-0.217812
-0.287213
-0.345694
-0.378531
-0.372659
-0.346041
-0.306594
-0.260355
-0.211811
-0.164192
-0.119710
-0.079763
-0.045115
-0.016066
0.007385
0.025378
0.038051
0.045527
0.048127
0.046654
0.042411
0.036772
0.031234
0.026860
0.023013
0.018941
0.013674
0.006069
-0.004953
-0.020020
-0.038862
-0.060059
-0.081191
-0.099345
-0.111776
-0.114839
-0.111109
-0.102268
-0.090048
-0.076083
-0.061724
-0.047971
-0.035474
-0.024591
-0.015463
-0.008086
-0.002383
0.001746
0.004397
0.005666
0.005691
0.004693
0.002985
0.000943
-0.001072
-0.002790
-0.003919
-0.004397
-0.004382
-0.004063
-0.003637
-0.003289
-0.003177
-0.003428
-0.004126
-0.005304
-0.006930
-0.008882
-0.010935
-0.012745
-0.013853
-0.013695
-0.011626
-0.006937
0.004939
0.507840
0.508719
0.511120
0.514603
0.518262
0.520420
0.518189
0.506911
0.479601
0.426484
0.334524
0.186331
-0.040489
-0.330061
-0.391780
-0.374628
-0.339548
-0.289452
-0.232450
-0.175709
-0.125794
-0.086117
-0.077954
-0.102048
-0.151842
-0.216231
-0.281471
-0.332667
-0.349598
-0.341976
-0.316517
-0.279767
-0.237068
-0.192439
-0.148734
-0.107860
-0.070985
-0.038724
-0.011295
0.011363
0.029471
0.043282
0.052974
0.058661
0.060630
0.059550
0.056221
0.052042
0.047484
0.042464
0.036574
0.029005
0.018738
0.004892
-0.012856
-0.033898
-0.056563
-0.078328
-0.096357
-0.106890
-0.108844
-0.105108
-0.096923
-0.085807
-0.073183
-0.060208
-0.047718
-0.036255
-0.026116
-0.017423
-0.010189
-0.004364
0.000121
0.003329
0.005321
0.006181
0.006065
0.005212
0.003926
0.002498
0.001143
0.000179
-0.000346
-0.000493
-0.000388
-0.000196
-0.000089
-0.000221
-0.000720
-0.001670
-0.003099
-0.004960
-0.007118
-0.009322
-0.011206
-0.012281
-0.011957
-0.009547
-0.004274
0.009469
0.494379
0.494490
0.494687
0.494488
0.492963
0.488536
0.478724
0.459868
0.426936
0.373524
0.292194
0.175810
0.023130
-0.143306
-0.230259
-0.257718
-0.252658
-0.227889
-0.192865
-0.154547
-0.120161
-0.097596
-0.096514
-0.118684
-0.159923
-0.211396
-0.260919
-0.292834
-0.302725
-0.295011
-0.273443
-0.242597
-0.206593
-0.168691
-0.131264
-0.095923
-0.063670
-0.035051
-0.010286
0.010637
0.027882
0.041694
0.052319
0.059968
0.064843
0.067121
0.068072
0.067268
0.063948
0.058913
0.052194
0.043230
0.031249
0.015668
-0.003504
-0.025387
-0.048177
-0.069350
-0.085978
-0.094470
-0.097125
-0.094822
-0.088712
-0.080027
-0.069890
-0.059208
-0.048644
-0.038644
-0.029484
-0.021322
-0.014234
-0.008250
-0.003368
0.000417
0.003140
0.004841
0.005645
0.005733
0.005347
0.004724
0.004146
0.003614
0.003255
0.003116
0.003133
0.003181
0.003109
0.002769
0.002043
0.000853
-0.000819
-0.002916
-0.005288
-0.007678
-0.009718
-0.010933
-0.010756
-0.008544
-0.003563
0.010048
0.480666
0.480136
0.478517
0.475375
0.469889
0.460731
0.445939
0.422827
0.388015
0.337689
0.268281
0.178043
0.070616
-0.039317
-0.117043
-0.159267
-0.174329
-0.170648
-0.155699
-0.136020
-0.117977
-0.107848
-0.111065
-0.129070
-0.159036
-0.194398
-0.225921
-0.245447
-0.251755
-0.245388
-0.228634
-0.204511
-0.175970
-0.145495
-0.114978
-0.085737
-0.058619
-0.034098
-0.012391
0.006466
0.022557
0.036047
0.047138
0.056032
0.062867
0.068581
0.072646
0.074124
0.072959
0.069312
0.063148
0.054144
0.041860
0.026071
0.007093
-0.014022
-0.035484
-0.054964
-0.068689
-0.077678
-0.082111
-0.082557
-0.079775
-0.074583
-0.067744
-0.059899
-0.051552
-0.043099
-0.034849
-0.027051
-0.019898
-0.013546
-0.008087
-0.003619
-0.000099
0.002536
0.004338
0.005418
0.005935
0.006097
0.006064
0.005972
0.005923
0.005954
0.006023
0.006032
0.005857
0.005369
0.004464
0.003079
0.001211
-0.001073
-0.003618
-0.006179
-0.008416
-0.009911
-0.010192
-0.008762
-0.005054
0.005634
0.467893
0.466837
0.463762
0.458348
0.449956
0.437559
0.419705
0.394534
0.359907
0.313730
0.254585
0.182826
0.102304
0.022038
-0.043094
-0.087585
-0.112880
-0.123068
-0.123022
-0.117681
-0.111882
-0.110075
-0.115603
-0.129443
-0.149806
-0.172477
-0.191964
-0.204325
-0.207884
-0.202609
-0.189773
-0.171306
-0.149254
-0.125445
-0.101323
-0.077911
-0.055847
-0.035465
-0.016892
-0.000143
0.014821
0.028052
0.039619
0.049614
0.058459
0.065970
0.071618
0.074997
0.075873
0.074091
0.069435
0.061629
0.050472
0.036038
0.018857
0.000017
-0.018912
-0.035215
-0.048650
-0.059131
-0.066506
-0.070808
-0.072232
-0.071120
-0.067881
-0.062924
-0.056645
-0.049449
-0.041747
-0.033937
-0.026360
-0.019370
-0.013070
-0.007682
-0.003229
0.000274
0.002879
0.004704
0.005899
0.006643
0.007103
0.007416
0.007672
0.007898
0.008058
0.008072
0.007833
0.007239
0.006206
0.004692
0.002709
0.000333
-0.002292
-0.004956
-0.007381
-0.009257
-0.010265
-0.010053
-0.008499
-0.003389
0.457037
0.455523
0.451243
0.444060
0.433554
0.418992
0.399355
0.373410
0.339870
0.297688
0.246511
0.187342
0.123291
0.059971
0.004793
-0.037963
-0.067642
-0.085893
-0.095556
-0.099955
-0.102471
-0.106136
-0.113112
-0.124092
-0.138077
-0.152629
-0.164961
-0.172408
-0.173778
-0.168962
-0.158729
-0.144369
-0.127340
-0.108990
-0.090395
-0.072281
-0.055028
-0.038731
-0.023307
-0.008626
0.005369
0.018598
0.030885
0.042164
0.052435
0.061269
0.068401
0.073485
0.076213
0.076313
0.073521
0.067631
0.058604
0.046682
0.032460
0.016879
0.001241
-0.013978
-0.028314
-0.041425
-0.052747
-0.061617
-0.067568
-0.070498
-0.070568
-0.068039
-0.063266
-0.056742
-0.049037
-0.040791
-0.032368
-0.024518
-0.017459
-0.011206
-0.005936
-0.001670
0.001637
0.004094
0.005849
0.007070
0.007917
0.008520
0.008960
0.009267
0.009422
0.009364
0.009017
0.008302
0.007162
0.005576
0.003568
0.001215
-0.001367
-0.004049
-0.006638
-0.008964
-0.010861
-0.012281
-0.013283
-0.014657
0.448955
0.446934
0.441510
0.432841
0.420739
0.404712
0.384057
0.357980
0.325743
0.286893
0.241570
0.190871
0.137166
0.084099
0.035922
-0.004338
-0.035545
-0.058165
-0.073730
-0.084337
-0.092241
-0.099481
-0.107511
-0.116858
-0.127032
-0.136870
-0.144508
-0.148487
-0.148065
-0.143215
-0.134520
-0.122960
-0.109657
-0.095650
-0.081737
-0.068375
-0.055668
-0.043408
-0.031179
-0.018544
-0.005289
0.008361
0.021775
0.034503
0.046157
0.056479
0.065190
0.071971
0.076497
0.078467
0.077644
0.073932
0.067448
0.058524
0.047658
0.034965
0.021001
0.006002
-0.009999
-0.026531
-0.042411
-0.056037
-0.066159
-0.072380
-0.074876
-0.073905
-0.069809
-0.063290
-0.054980
-0.045929
-0.037119
-0.028493
-0.020550
-0.013533
-0.007577
-0.002705
0.001141
0.004073
0.006242
0.007808
0.008919
0.009686
0.010174
0.010416
0.010413
0.010147
0.009580
0.008673
0.007402
0.005767
0.003797
0.001558
-0.000864
-0.003530
-0.006364
-0.009242
-0.012084
-0.014926
-0.017985
-0.024385
0.444596
0.441697
0.434874
0.424768
0.411356
0.394279
0.373016
0.347046
0.315960
0.279629
0.238399
0.193291
0.146124
0.099414
0.055925
0.017851
-0.013663
-0.038538
-0.057531
-0.071921
-0.083182
-0.092678
-0.101436
-0.109861
-0.117829
-0.124621
-0.129169
-0.130699
-0.128842
-0.123720
-0.115892
-0.106211
-0.095623
-0.084977
-0.074869
-0.065547
-0.056883
-0.048408
-0.039361
-0.028822
-0.016105
-0.001484
0.013186
0.027520
0.040894
0.052903
0.063246
0.071639
0.077780
0.081387
0.082274
0.080483
0.076325
0.070185
0.061397
0.050678
0.037964
0.022786
0.004846
-0.015316
-0.035811
-0.053812
-0.067054
-0.075047
-0.078566
-0.078223
-0.073949
-0.066684
-0.058441
-0.049207
-0.039587
-0.030298
-0.021787
-0.014297
-0.007939
-0.002717
0.001437
0.004643
0.007050
0.008811
0.010064
0.010891
0.011313
0.011358
0.011059
0.010451
0.009556
0.008376
0.006938
0.005255
0.003349
0.001218
-0.001212
-0.003852
-0.006758
-0.009945
-0.013392
-0.017112
-0.021239
-0.029345
0.445619
0.440280
0.431323
0.419666
0.405113
0.387252
0.365578
0.339727
0.309472
0.274846
0.236270
0.194661
0.151474
0.108598
0.068052
0.031542
0.000136
-0.025841
-0.046715
-0.063267
-0.076481
-0.087245
-0.096413
-0.104346
-0.110962
-0.115839
-0.118466
-0.118443
-0.115650
-0.110323
-0.103029
-0.094552
-0.085733
-0.077295
-0.069704
-0.063074
-0.057160
-0.051407
-0.044980
-0.036591
-0.024418
-0.009704
0.006513
0.022719
0.037886
0.051472
0.063189
0.072805
0.080068
0.084717
0.086592
0.085892
0.083320
0.077905
0.070647
0.061333
0.049403
0.034119
0.014922
-0.007781
-0.031722
-0.052967
-0.068017
-0.076082
-0.078698
-0.077804
-0.074344
-0.067994
-0.059226
-0.049547
-0.039701
-0.030261
-0.021624
-0.014023
-0.007562
-0.002245
0.001996
0.005278
0.007745
0.009550
0.010843
0.011699
0.012030
0.011864
0.011257
0.010284
0.009024
0.007546
0.005881
0.004049
0.002092
0.000083
-0.002138
-0.004597
-0.007387
-0.010559
-0.014112
-0.018056
-0.022501
-0.028882
0.456503
0.442333
0.430282
0.417267
0.401930
0.383504
0.361575
0.335793
0.306001
0.272293
0.235095
0.195246
0.154010
0.112983
0.073866
0.038150
0.006857
-0.019587
-0.041310
-0.058869
-0.073059
-0.084741
-0.094320
-0.102167
-0.108319
-0.112537
-0.114485
-0.113910
-0.110788
-0.105393
-0.098282
-0.090196
-0.081916
-0.074107
-0.067182
-0.061215
-0.055928
-0.050743
-0.044856
-0.037287
-0.027282
-0.013027
0.004130
0.021516
0.037703
0.052067
0.064341
0.074345
0.081873
0.086687
0.088605
0.087630
0.083864
0.078713
0.071886
0.062995
0.051461
0.036600
0.017936
-0.004159
-0.027728
-0.049223
-0.065123
-0.074139
-0.077512
-0.076863
-0.073078
-0.066763
-0.058365
-0.048913
-0.039233
-0.029921
-0.021376
-0.013837
-0.007413
-0.002116
0.002116
0.005393
0.007850
0.009628
0.010831
0.011532
0.011814
0.011629
0.011003
0.010002
0.008703
0.007176
0.005464
0.003585
0.001529
-0.000672
-0.002814
-0.005137
-0.007813
-0.010908
-0.014411
-0.018297
-0.022594
-0.027754
