# vtk DataFile Version 3.0
Scalar Field
ASCII
DATASET RECTILINEAR_GRID
DIMENSIONS 100 26 1
X_COORDINATES 100 double
0.050000 0.150000 0.250000 0.350000 0.450000 0.550000 0.650000 0.750000 0.850000 0.950000 1.050000 1.150000 1.250000 1.350000 1.450000 1.550000 1.650000 1.750000 1.850000 1.950000 2.050000 2.150000 2.250000 2.350000 2.450000 2.550000 2.650000 2.750000 2.850000 2.950000 3.050000 3.150000 3.250000 3.350000 3.450000 3.550000 3.650000 3.750000 3.850000 3.950000 4.050000 4.150000 4.250000 4.350000 4.450000 4.550000 4.650000 4.750000 4.850000 4.950000 5.050000 5.150000 5.250000 5.350000 5.450000 5.550000 5.650000 5.750000 5.850000 5.950000 6.050000 6.150000 6.250000 6.350000 6.450000 6.550000 6.650000 6.750000 6.850000 6.950000 7.050000 7.150000 7.250000 7.350000 7.450000 7.550000 7.650000 7.750000 7.850000 7.950000 8.050000 8.150000 8.250000 8.350000 8.450000 8.550000 8.650000 8.750000 8.850000 8.950000 9.050000 9.150000 9.250000 9.350000 9.450000 9.550000 9.650000 9.750000 9.850000 9.950000 
Y_COORDINATES 26 double
0.050000 0.150000 0.250000 0.350000 0.450000 0.550000 0.650000 0.750000 0.850000 0.950000 1.050000 1.150000 1.250000 1.350000 1.450000 1.550000 1.650000 1.750000 1.850000 1.950000 2.050000 2.150000 2.250000 2.350000 2.450000 2.550000 
Z_COORDINATES 1 double
0.0
POINT_DATA 2600
SCALARS Skalarfeld double 1
LOOKUP_TABLE default
0.269440
0.254058
0.238544
0.219875
0.196927
0.169227
0.136739
0.099859
0.059494
0.017089
-0.025477
-0.066177
-0.103185
-0.135140
-0.160946
-0.179812
-0.191792
-0.197269
-0.196889
-0.191479
-0.181960
-0.169273
-0.154309
-0.137873
-0.120662
-0.103276
-0.086240
-0.070028
-0.055084
-0.041797
-0.030466
-0.021289
-0.014244
-0.009104
-0.005564
-0.003378
-0.002453
-0.002874
-0.004831
-0.008505
-0.013926
-0.020846
-0.028649
-0.036257
-0.042055
-0.044118
-0.041424
-0.033401
-0.022811
-0.011621
-0.000836
0.009032
0.017760
0.025290
0.031651
0.036923
0.041216
0.044666
0.047286
0.049294
0.050249
0.049850
0.047815
0.044059
0.038871
0.032916
0.026981
0.021555
0.016591
0.011747
0.006843
0.002124
-0.001857
-0.004578
-0.005814
-0.005667
-0.004344
-0.002152
0.000628
0.003752
0.006955
0.010048
0.012812
0.015165
0.017204
0.019143
0.021223
0.023645
0.026526
0.029921
0.033886
0.038511
0.043911
0.050182
0.057386
0.065535
0.074590
0.084426
0.095047
0.107065
0.260805
0.254231
0.241705
0.224198
0.201554
0.173559
0.140203
0.101888
0.059600
0.014997
-0.029704
-0.072171
-0.110379
-0.142780
-0.168527
-0.187357
-0.199037
-0.203976
-0.202861
-0.196560
-0.186040
-0.172288
-0.156246
-0.138768
-0.120597
-0.102370
-0.084647
-0.067933
-0.052707
-0.039386
-0.028232
-0.019518
-0.013157
-0.008783
-0.005967
-0.004372
-0.003871
-0.004551
-0.006632
-0.010337
-0.015741
-0.022644
-0.030472
-0.038135
-0.043837
-0.045233
-0.040620
-0.032363
-0.022510
-0.011691
-0.001143
0.008552
0.017145
0.024573
0.030876
0.036141
0.040500
0.044142
0.047311
0.049594
0.050652
0.050411
0.048461
0.044664
0.039360
0.033312
0.027391
0.022060
0.017128
0.012107
0.006798
0.001577
-0.002802
-0.005678
-0.006843
-0.006587
-0.005015
-0.002668
0.000222
0.003509
0.006932
0.010173
0.012999
0.015308
0.017256
0.019081
0.021035
0.023336
0.026100
0.029373
0.033218
0.037741
0.043077
0.049337
0.056585
0.064837
0.074085
0.084294
0.095043
0.107602
0.264328
0.260108
0.249454
0.232933
0.210467
0.181775
0.146697
0.105527
0.059342
0.010198
-0.038885
-0.084893
-0.125529
-0.159348
-0.185631
-0.204284
-0.215218
-0.218886
-0.216047
-0.207640
-0.194718
-0.178379
-0.159692
-0.139649
-0.119134
-0.098921
-0.079686
-0.062047
-0.046585
-0.033786
-0.024036
-0.017254
-0.013197
-0.011355
-0.010763
-0.010832
-0.011332
-0.012346
-0.014148
-0.017043
-0.021193
-0.026473
-0.032337
-0.037710
-0.041023
-0.040724
-0.036255
-0.028517
-0.018887
-0.009183
0.000338
0.009172
0.017056
0.023898
0.029722
0.034609
0.038680
0.042083
0.044940
0.047205
0.048755
0.048976
0.047548
0.044441
0.039957
0.034591
0.028953
0.023412
0.017884
0.012158
0.006280
0.000752
-0.003679
-0.006448
-0.007457
-0.006942
-0.005562
-0.003414
-0.000577
0.002794
0.006240
0.009538
0.012477
0.014983
0.017061
0.018872
0.020649
0.022652
0.025058
0.027983
0.031556
0.035927
0.041242
0.047619
0.055125
0.063767
0.073544
0.084426
0.096413
0.111767
0.275684
0.272225
0.262584
0.246727
0.224222
0.194401
0.156669
0.110968
0.058385
0.001592
-0.054627
-0.105994
-0.149951
-0.185387
-0.212025
-0.230020
-0.239583
-0.241192
-0.235688
-0.224092
-0.207576
-0.187394
-0.164798
-0.140981
-0.117023
-0.093875
-0.072361
-0.053227
-0.037229
-0.025137
-0.017319
-0.013601
-0.013239
-0.015150
-0.018111
-0.020771
-0.022779
-0.024222
-0.025462
-0.026919
-0.028883
-0.031354
-0.033953
-0.035898
-0.036167
-0.033910
-0.028913
-0.021725
-0.013264
-0.004388
0.004088
0.011756
0.018601
0.024492
0.029441
0.033525
0.036855
0.039585
0.041858
0.043729
0.045107
0.045683
0.045165
0.043183
0.039606
0.034793
0.029270
0.023536
0.017649
0.011709
0.005921
0.000719
-0.003383
-0.006053
-0.007265
-0.007169
-0.005958
-0.003696
-0.000731
0.002449
0.005694
0.008956
0.011904
0.014383
0.016378
0.018007
0.019496
0.021087
0.023015
0.025509
0.028773
0.032993
0.038333
0.044924
0.052838
0.062066
0.072665
0.084782
0.098640
0.119521
0.293436
0.290367
0.281485
0.266289
0.243810
0.212673
0.171395
0.119050
0.056432
-0.013099
-0.080407
-0.139033
-0.186670
-0.223308
-0.249573
-0.266058
-0.273281
-0.271823
-0.262515
-0.246458
-0.224985
-0.199565
-0.171699
-0.142830
-0.114280
-0.087197
-0.062546
-0.041144
-0.024106
-0.012670
-0.007417
-0.008028
-0.013153
-0.020603
-0.028219
-0.034138
-0.037808
-0.039453
-0.039672
-0.039126
-0.038313
-0.037435
-0.036358
-0.034658
-0.031796
-0.027373
-0.021358
-0.014126
-0.006267
0.001611
0.008995
0.015678
0.021422
0.026249
0.030125
0.033155
0.035465
0.037255
0.038739
0.040060
0.041196
0.041891
0.041760
0.040391
0.037565
0.033348
0.028043
0.022122
0.015928
0.009959
0.004480
-0.000191
-0.003745
-0.006004
-0.006962
-0.006726
-0.005453
-0.003323
-0.000580
0.002537
0.005888
0.009012
0.011784
0.014058
0.015775
0.017012
0.017988
0.018960
0.020245
0.022158
0.024967
0.028897
0.034136
0.040853
0.048971
0.058618
0.069931
0.083146
0.098720
0.124147
0.316850
0.314181
0.306271
0.292227
0.270415
0.238384
0.193029
0.131442
0.053101
-0.038678
-0.122691
-0.189590
-0.239646
-0.275831
-0.300359
-0.314042
-0.317861
-0.312238
-0.297817
-0.275782
-0.247702
-0.215353
-0.180567
-0.145119
-0.110631
-0.078494
-0.049808
-0.025340
-0.006497
0.004486
0.006516
0.000043
-0.012772
-0.028354
-0.042447
-0.052209
-0.057351
-0.058556
-0.056962
-0.053690
-0.049570
-0.045054
-0.040250
-0.035023
-0.029153
-0.022506
-0.015154
-0.007386
0.000391
0.007768
0.014419
0.020144
0.024782
0.028323
0.030920
0.032689
0.033750
0.034392
0.034903
0.035517
0.036312
0.037061
0.037312
0.036550
0.034377
0.030648
0.025516
0.019334
0.012972
0.006824
0.001496
-0.002745
-0.005712
-0.007344
-0.007707
-0.006952
-0.005273
-0.002881
0.000004
0.003167
0.006397
0.009426
0.012044
0.014078
0.015413
0.016083
0.016295
0.016389
0.016763
0.017810
0.019869
0.023216
0.028055
0.034504
0.042625
0.052524
0.064303
0.078216
0.094805
0.121450
0.345180
0.343096
0.336760
0.324954
0.305349
0.274051
0.225234
0.151649
0.048014
-0.085746
-0.192633
-0.264271
-0.311346
-0.343358
-0.364488
-0.374332
-0.374259
-0.363646
-0.342824
-0.313172
-0.276645
-0.235456
-0.191889
-0.148154
-0.106277
-0.067989
-0.034616
-0.006925
0.014581
0.025887
0.024760
0.011869
-0.009783
-0.035385
-0.059046
-0.074582
-0.080978
-0.081063
-0.076874
-0.070245
-0.062450
-0.054205
-0.045808
-0.037308
-0.028662
-0.019872
-0.011055
-0.002452
0.005639
0.012929
0.019192
0.024268
0.028020
0.030344
0.031190
0.030767
0.029687
0.028800
0.028143
0.027904
0.028406
0.029401
0.030314
0.030485
0.029351
0.026572
0.022102
0.016217
0.009513
0.002951
-0.002487
-0.006610
-0.009217
-0.010306
-0.010018
-0.008583
-0.006269
-0.003343
-0.000057
0.003361
0.006692
0.009705
0.012163
0.013854
0.014644
0.014556
0.013811
0.012790
0.011972
0.011849
0.012861
0.015352
0.019541
0.025558
0.033579
0.043572
0.055568
0.069750
0.086547
0.112269
0.377332
0.376121
0.372253
0.364377
0.349688
0.322839
0.274123
0.187489
0.040968
-0.178467
-0.306095
-0.364446
-0.395480
-0.417628
-0.435305
-0.443276
-0.440710
-0.425269
-0.397337
-0.358861
-0.312419
-0.260817
-0.206910
-0.153475
-0.103084
-0.057961
-0.019877
0.009916
0.032550
0.045793
0.042851
0.025431
-0.002490
-0.035531
-0.067543
-0.092548
-0.102985
-0.102472
-0.096010
-0.086381
-0.075362
-0.063921
-0.052501
-0.041267
-0.030279
-0.019611
-0.009407
0.000116
0.008713
0.016155
0.022247
0.026802
0.029591
0.030392
0.029153
0.026236
0.022455
0.018683
0.016282
0.015494
0.016254
0.018044
0.020116
0.021684
0.022062
0.020767
0.017591
0.012655
0.006442
-0.000239
-0.006480
-0.010798
-0.013417
-0.014289
-0.013587
-0.011605
-0.008692
-0.005194
-0.001427
0.002332
0.005835
0.008837
0.011090
0.012365
0.012515
0.011555
0.009710
0.007412
0.005230
0.003780
0.003617
0.005157
0.008630
0.014251
0.022103
0.032056
0.044036
0.058094
0.074463
0.098268
0.411678
0.411645
0.411225
0.409304
0.403301
0.387446
0.348676
0.257134
0.037952
-0.374834
-0.474422
-0.470661
-0.467424
-0.474999
-0.493032
-0.509080
-0.508521
-0.490356
-0.456424
-0.409815
-0.353888
-0.292107
-0.227982
-0.165008
-0.106500
-0.055342
-0.013770
0.016560
0.034520
0.046490
0.042485
0.025088
-0.001557
-0.033341
-0.065535
-0.092986
-0.111341
-0.114429
-0.107948
-0.097362
-0.084941
-0.071884
-0.058771
-0.045879
-0.033370
-0.021404
-0.010183
0.000057
0.009062
0.016588
0.022375
0.026086
0.027309
0.025735
0.021498
0.015411
0.008844
0.003203
-0.000370
-0.000958
0.000765
0.003939
0.007636
0.010971
0.013190
0.013726
0.012257
0.008765
0.003583
-0.002613
-0.008903
-0.014234
-0.017192
-0.018251
-0.017541
-0.015368
-0.012137
-0.008273
-0.004170
-0.000172
0.003421
0.006332
0.008294
0.009067
0.008496
0.006589
0.003590
-0.000016
-0.003559
-0.006305
-0.007595
-0.006958
-0.004158
0.001094
0.008721
0.018496
0.030226
0.043815
0.059289
0.080711
0.446035
0.447376
0.451082
0.456727
0.463059
0.466463
0.456203
0.397870
0.140481
-0.732103
-0.664693
-0.530324
-0.495707
-0.491099
-0.510711
-0.546125
-0.556710
-0.540781
-0.505739
-0.455875
-0.395121
-0.327500
-0.257227
-0.188735
-0.126483
-0.074404
-0.034833
-0.008030
0.007235
0.011255
0.008190
-0.002117
-0.018750
-0.039904
-0.062993
-0.084605
-0.101130
-0.109868
-0.107848
-0.099046
-0.087755
-0.075312
-0.062399
-0.049403
-0.036609
-0.024302
-0.012788
-0.002396
0.006539
0.013669
0.018574
0.020718
0.019553
0.014877
0.007264
-0.001812
-0.010415
-0.016907
-0.020081
-0.019517
-0.016167
-0.011131
-0.005482
-0.000174
0.004011
0.006481
0.006863
0.005043
0.001216
-0.004077
-0.010006
-0.015581
-0.019621
-0.021181
-0.020877
-0.018950
-0.015810
-0.011935
-0.007792
-0.003795
-0.000305
0.002361
0.003910
0.004087
0.002730
-0.000147
-0.004278
-0.009118
-0.013912
-0.017834
-0.020148
-0.020339
-0.018164
-0.013288
-0.005966
0.003471
0.014708
0.027502
0.041704
0.060439
0.477865
0.480534
0.488284
0.501597
0.521251
0.548106
0.582147
0.618130
0.690353
-0.020875
-0.587331
-0.509968
-0.497167
-0.493528
-0.506440
-0.537587
-0.564725
-0.555779
-0.526298
-0.480816
-0.423447
-0.358639
-0.291359
-0.227114
-0.171018
-0.126700
-0.095272
-0.075172
-0.063396
-0.058685
-0.053810
-0.051347
-0.052425
-0.057305
-0.065449
-0.075377
-0.084836
-0.091492
-0.093800
-0.090144
-0.082039
-0.072224
-0.061371
-0.049919
-0.038257
-0.026801
-0.015999
-0.006318
0.001766
0.007738
0.010984
0.010799
0.006642
-0.001371
-0.012048
-0.023289
-0.032836
-0.039095
-0.040799
-0.038308
-0.032789
-0.025523
-0.017703
-0.010334
-0.004200
0.000129
0.002284
0.002111
-0.000283
-0.004483
-0.009771
-0.015213
-0.019835
-0.022406
-0.022821
-0.021520
-0.018869
-0.015365
-0.011522
-0.007815
-0.004661
-0.002423
-0.001422
-0.001930
-0.004114
-0.007952
-0.013151
-0.019118
-0.025038
-0.030021
-0.033278
-0.034252
-0.032683
-0.028232
-0.021337
-0.012433
-0.001961
0.009703
0.022270
0.037992
0.504722
0.508381
0.519133
0.538082
0.567360
0.610710
0.674700
0.770638
0.906256
0.942551
0.000000
-0.504057
-0.498145
-0.492621
-0.498802
-0.514979
-0.530730
-0.531703
-0.508576
-0.471322
-0.423705
-0.370207
-0.316045
-0.267589
-0.229158
-0.201883
-0.183892
-0.170307
-0.157822
-0.142742
-0.125060
-0.107368
-0.091694
-0.079456
-0.071468
-0.067771
-0.067499
-0.069065
-0.070682
-0.070893
-0.067967
-0.061959
-0.054477
-0.045898
-0.036633
-0.027193
-0.018159
-0.010146
-0.003789
0.000210
0.001048
-0.002073
-0.009539
-0.020757
-0.033922
-0.046495
-0.056123
-0.061336
-0.060851
-0.055871
-0.047783
-0.038033
-0.027921
-0.018490
-0.010509
-0.004501
-0.000786
0.000498
-0.000584
-0.003707
-0.008262
-0.013397
-0.018160
-0.021674
-0.022997
-0.022564
-0.020690
-0.017856
-0.014600
-0.011438
-0.008831
-0.007181
-0.006843
-0.008105
-0.011139
-0.015912
-0.022109
-0.029107
-0.036056
-0.042025
-0.046188
-0.047963
-0.046963
-0.043049
-0.036761
-0.028643
-0.019256
-0.009098
0.001436
0.013708
0.524784
0.528898
0.540974
0.562173
0.594588
0.641407
0.706615
0.791758
0.889250
0.978845
0.899003
0.000000
-0.492860
-0.487574
-0.478517
-0.477588
-0.478695
-0.473840
-0.454998
-0.424846
-0.389140
-0.353370
-0.322913
-0.301903
-0.290704
-0.284332
-0.279909
-0.270381
-0.249053
-0.220590
-0.188454
-0.155678
-0.124807
-0.097774
-0.075934
-0.060048
-0.050164
-0.045495
-0.044521
-0.045361
-0.046221
-0.044977
-0.041428
-0.036497
-0.030485
-0.023937
-0.017527
-0.011992
-0.008126
-0.006812
-0.009015
-0.015535
-0.026470
-0.040698
-0.055895
-0.069266
-0.078471
-0.081980
-0.078792
-0.070991
-0.060142
-0.047841
-0.035469
-0.024093
-0.014452
-0.007006
-0.002004
0.000465
0.000470
-0.001721
-0.005586
-0.010368
-0.015184
-0.019220
-0.021451
-0.021942
-0.020966
-0.018966
-0.016471
-0.014016
-0.012094
-0.011140
-0.011535
-0.013586
-0.017466
-0.023136
-0.030266
-0.038218
-0.046124
-0.053031
-0.058088
-0.060707
-0.060258
-0.057056
-0.051622
-0.044610
-0.036693
-0.028471
-0.020422
-0.012184
0.537213
0.541227
0.552936
0.573157
0.603166
0.644417
0.698043
0.763864
0.830718
0.854819
0.819161
0.705241
0.000000
-0.469381
-0.451187
-0.433021
-0.420503
-0.403764
-0.380481
-0.354554
-0.332004
-0.317958
-0.316013
-0.326329
-0.344831
-0.361453
-0.367257
-0.353996
-0.320531
-0.279089
-0.233632
-0.187848
-0.144721
-0.106415
-0.074369
-0.049431
-0.031912
-0.021514
-0.017203
-0.017237
-0.019493
-0.021923
-0.022606
-0.021552
-0.019128
-0.015902
-0.012604
-0.010070
-0.009240
-0.011173
-0.016940
-0.027235
-0.041769
-0.058888
-0.075856
-0.089733
-0.098319
-0.098989
-0.093146
-0.082542
-0.069048
-0.054404
-0.040040
-0.027014
-0.016016
-0.007436
-0.001446
0.001926
0.002772
0.001334
-0.001938
-0.006370
-0.011132
-0.015398
-0.018487
-0.019785
-0.019680
-0.018533
-0.016844
-0.015150
-0.013959
-0.013734
-0.014876
-0.017706
-0.022400
-0.028912
-0.036902
-0.045730
-0.054522
-0.062317
-0.068241
-0.071687
-0.071940
-0.069647
-0.065370
-0.059846
-0.053836
-0.048025
-0.042959
-0.039459
0.542188
0.545671
0.555746
0.572832
0.597536
0.630242
0.669989
0.711814
0.742944
0.736548
0.675468
0.591321
0.426148
0.000000
-0.418141
-0.385094
-0.371975
-0.340713
-0.306545
-0.280969
-0.269480
-0.275454
-0.299525
-0.340056
-0.385862
-0.420181
-0.430421
-0.405981
-0.364151
-0.312773
-0.257372
-0.202303
-0.150808
-0.105084
-0.066464
-0.035638
-0.012840
0.002086
0.009783
0.011532
0.009220
0.004912
0.000802
-0.001509
-0.002459
-0.002516
-0.002435
-0.003132
-0.005682
-0.011286
-0.021029
-0.035371
-0.053559
-0.073441
-0.091950
-0.105996
-0.113203
-0.111182
-0.102677
-0.089590
-0.073925
-0.057478
-0.041668
-0.027498
-0.015587
-0.006249
0.000415
0.004431
0.005915
0.005088
0.002337
-0.001742
-0.006386
-0.010797
-0.014317
-0.016344
-0.017001
-0.016618
-0.015673
-0.014693
-0.014197
-0.014664
-0.016513
-0.020069
-0.025510
-0.032781
-0.041540
-0.051149
-0.060740
-0.069354
-0.076110
-0.080357
-0.081473
-0.080352
-0.077586
-0.073964
-0.070315
-0.067392
-0.065798
-0.067773
0.540694
0.543430
0.551267
0.564249
0.582215
0.604368
0.628277
0.648237
0.653187
0.625196
0.546567
0.407857
0.260975
-0.156520
-0.424599
-0.373261
-0.346447
-0.294241
-0.244927
-0.217081
-0.213171
-0.235977
-0.282518
-0.344974
-0.407712
-0.451323
-0.455120
-0.425013
-0.377793
-0.321010
-0.260683
-0.201358
-0.146220
-0.097288
-0.055660
-0.021791
0.004250
0.022605
0.033638
0.038113
0.037379
0.033305
0.027859
0.022616
0.018884
0.015949
0.012995
0.009047
0.002929
-0.006609
-0.020530
-0.038933
-0.060575
-0.082884
-0.102565
-0.116576
-0.121396
-0.116961
-0.106367
-0.091576
-0.074614
-0.057236
-0.040780
-0.026155
-0.013892
-0.004227
0.002795
0.007238
0.009223
0.008943
0.006721
0.003064
-0.001341
-0.005741
-0.009485
-0.011991
-0.013214
-0.013433
-0.013095
-0.012718
-0.012824
-0.013898
-0.016370
-0.020566
-0.026657
-0.034579
-0.043989
-0.054257
-0.064533
-0.073882
-0.081465
-0.086351
-0.088593
-0.088949
-0.088050
-0.086722
-0.085838
-0.086201
-0.088473
-0.096553
0.534111
0.535984
0.541264
0.549696
0.560633
0.572638
0.582781
0.585660
0.572303
0.529353
0.439400
0.278678
-0.002557
-0.574014
-0.475937
-0.369211
-0.314389
-0.260397
-0.210184
-0.179861
-0.183499
-0.216519
-0.273330
-0.343095
-0.408492
-0.447045
-0.441662
-0.410675
-0.363129
-0.306655
-0.247181
-0.189016
-0.135054
-0.087036
-0.045822
-0.011662
0.015558
0.036080
0.050136
0.058036
0.060455
0.058617
0.054061
0.048077
0.042894
0.037849
0.032265
0.025227
0.015579
0.002162
-0.015714
-0.037715
-0.062151
-0.086138
-0.106211
-0.119066
-0.121167
-0.115457
-0.103913
-0.088632
-0.071579
-0.054379
-0.038235
-0.023933
-0.011912
-0.002348
0.004748
0.009449
0.011866
0.012150
0.010549
0.007473
0.003514
-0.000639
-0.004353
-0.007091
-0.008655
-0.009280
-0.009386
-0.009474
-0.010061
-0.011639
-0.014633
-0.019366
-0.025991
-0.034436
-0.044357
-0.055139
-0.065963
-0.075920
-0.084167
-0.089767
-0.093410
-0.095521
-0.096782
-0.098038
-0.100178
-0.104044
-0.110364
-0.124890
0.524029
0.525045
0.527828
0.531957
0.536557
0.539990
0.539413
0.530218
0.505486
0.455563
0.367698
0.225232
0.007492
-0.266610
-0.317452
-0.295752
-0.262870
-0.225237
-0.191429
-0.174360
-0.182777
-0.217064
-0.271561
-0.334204
-0.387588
-0.407147
-0.399415
-0.370435
-0.327288
-0.276368
-0.222773
-0.170226
-0.121222
-0.077255
-0.039060
-0.006828
0.019596
0.040546
0.056355
0.067243
0.073398
0.075334
0.073979
0.070565
0.065843
0.059804
0.052289
0.042670
0.029976
0.013300
-0.007671
-0.032175
-0.058196
-0.082720
-0.102417
-0.112710
-0.113304
-0.107236
-0.096104
-0.081777
-0.065987
-0.050139
-0.035255
-0.021997
-0.010730
-0.001604
0.005366
0.010232
0.013070
0.013980
0.013136
0.010850
0.007604
0.003997
0.000614
-0.002056
-0.003713
-0.004546
-0.004932
-0.005351
-0.006310
-0.008292
-0.011714
-0.016877
-0.023915
-0.032742
-0.043019
-0.054161
-0.065392
-0.075872
-0.084586
-0.091243
-0.096398
-0.100433
-0.104016
-0.107963
-0.113150
-0.120440
-0.130651
-0.151460
0.512034
0.512281
0.512855
0.513290
0.512678
0.509471
0.501215
0.484283
0.453687
0.403083
0.325160
0.213043
0.065940
-0.092848
-0.174012
-0.200056
-0.199743
-0.188083
-0.176223
-0.174109
-0.188047
-0.218880
-0.262051
-0.307417
-0.338617
-0.349504
-0.341333
-0.317113
-0.281532
-0.239297
-0.194396
-0.149859
-0.107788
-0.069495
-0.035678
-0.006578
0.017868
0.037913
0.053878
0.066064
0.074733
0.080126
0.083230
0.084953
0.082477
0.076920
0.068776
0.057775
0.043252
0.024683
0.002182
-0.023125
-0.049029
-0.072506
-0.090085
-0.097858
-0.098740
-0.093872
-0.084718
-0.072815
-0.059558
-0.046076
-0.033200
-0.021491
-0.011282
-0.002750
0.004038
0.009073
0.012372
0.013983
0.014011
0.012689
0.010395
0.007624
0.004880
0.002642
0.001150
0.000300
-0.000224
-0.000865
-0.002110
-0.004423
-0.008195
-0.013694
-0.021024
-0.030085
-0.040555
-0.051889
-0.063378
-0.074178
-0.083463
-0.091419
-0.098203
-0.104230
-0.110121
-0.116627
-0.124567
-0.134812
-0.148295
-0.174490
0.499552
0.499151
0.497891
0.495347
0.490714
0.482679
0.469295
0.447889
0.415088
0.367078
0.300289
0.212954
0.108651
0.001909
-0.074169
-0.118011
-0.139545
-0.148722
-0.154227
-0.163237
-0.180213
-0.205836
-0.236695
-0.265510
-0.284433
-0.290743
-0.283639
-0.264744
-0.236995
-0.203640
-0.167626
-0.131318
-0.096440
-0.064126
-0.035026
-0.009423
0.012662
0.031382
0.046990
0.059773
0.070003
0.078222
0.085006
0.088782
0.088937
0.085512
0.078562
0.067952
0.053414
0.034881
0.012884
-0.011195
-0.035128
-0.056123
-0.069844
-0.077695
-0.080130
-0.077975
-0.072236
-0.063973
-0.054179
-0.043704
-0.033217
-0.023220
-0.014081
-0.006057
0.000674
0.006001
0.009854
0.012236
0.013195
0.012912
0.011685
0.009921
0.008109
0.006562
0.005441
0.004733
0.004185
0.003397
0.001916
-0.000688
-0.004758
-0.010512
-0.018013
-0.027152
-0.037639
-0.048995
-0.060609
-0.071691
-0.081919
-0.091174
-0.099590
-0.107522
-0.115496
-0.124148
-0.134204
-0.146512
-0.162121
-0.191847
0.487786
0.486849
0.484106
0.479241
0.471623
0.460231
0.443615
0.419905
0.386939
0.342578
0.285323
0.215388
0.136386
0.056937
-0.008947
-0.056810
-0.089143
-0.110936
-0.127561
-0.143659
-0.162165
-0.183611
-0.205955
-0.225183
-0.237675
-0.241268
-0.235324
-0.220734
-0.199348
-0.173383
-0.144973
-0.115917
-0.087575
-0.060865
-0.036324
-0.014191
0.005501
0.022850
0.038024
0.051211
0.062606
0.072769
0.080859
0.086310
0.088594
0.087411
0.082522
0.073707
0.060879
0.044295
0.024771
0.003779
-0.016671
-0.033487
-0.046257
-0.055296
-0.060636
-0.062494
-0.061216
-0.057305
-0.051372
-0.044035
-0.035856
-0.027349
-0.018980
-0.011148
-0.004187
0.001654
0.006177
0.009400
0.011290
0.012038
0.011925
0.011267
0.010371
0.009489
0.008817
0.008333
0.007814
0.006899
0.005177
0.002277
-0.002073
-0.008014
-0.015557
-0.024594
-0.034905
-0.046171
-0.057931
-0.069582
-0.080771
-0.091314
-0.101247
-0.110818
-0.120419
-0.130542
-0.141785
-0.154922
-0.171052
-0.201402
0.477730
0.476324
0.472345
0.465656
0.455841
0.442163
0.423590
0.398865
0.366656
0.325839
0.275943
0.217784
0.154201
0.090411
0.033262
-0.013609
-0.050150
-0.078440
-0.101367
-0.121654
-0.141108
-0.160149
-0.177724
-0.192009
-0.200783
-0.202789
-0.197708
-0.186155
-0.169408
-0.149050
-0.126665
-0.103616
-0.080935
-0.059296
-0.039043
-0.020271
-0.002917
0.013138
0.027986
0.041629
0.054162
0.065316
0.074632
0.081646
0.085858
0.086849
0.084285
0.077961
0.067916
0.054576
0.038836
0.022028
0.005801
-0.009101
-0.022350
-0.033818
-0.043185
-0.049922
-0.053574
-0.054082
-0.051782
-0.047170
-0.040775
-0.033201
-0.025067
-0.016982
-0.009461
-0.002821
0.002595
0.006697
0.009553
0.011239
0.011980
0.012098
0.011887
0.011580
0.011299
0.010994
0.010446
0.009326
0.007278
0.004006
-0.000648
-0.006719
-0.014149
-0.022858
-0.032903
-0.044138
-0.056102
-0.068427
-0.080650
-0.092408
-0.103585
-0.114315
-0.124875
-0.135624
-0.147009
-0.159684
-0.174585
-0.201767
0.470257
0.468335
0.463182
0.454956
0.443466
0.428208
0.408460
0.383389
0.352197
0.314339
0.269818
0.219538
0.165610
0.111345
0.060606
0.016024
-0.021584
-0.052817
-0.079024
-0.101650
-0.121724
-0.139551
-0.154671
-0.166136
-0.172672
-0.173674
-0.169114
-0.159561
-0.146036
-0.129786
-0.112053
-0.093894
-0.076067
-0.058992
-0.042777
-0.027286
-0.012243
0.002626
0.017408
0.031787
0.045389
0.057745
0.068494
0.077188
0.083345
0.086519
0.086367
0.082743
0.075812
0.066086
0.054373
0.041339
0.027487
0.013415
-0.000975
-0.015584
-0.029635
-0.041637
-0.050088
-0.054373
-0.054830
-0.052067
-0.046592
-0.039226
-0.030749
-0.021894
-0.013702
-0.006403
-0.000167
0.004739
0.008327
0.010720
0.012147
0.012895
0.013223
0.013319
0.013265
0.012976
0.012224
0.010708
0.008138
0.004322
-0.000715
-0.006869
-0.014104
-0.022494
-0.032101
-0.043063
-0.055337
-0.068477
-0.081759
-0.094518
-0.106452
-0.117654
-0.128401
-0.138999
-0.149658
-0.160931
-0.173614
-0.192965
0.466338
0.463529
0.456952
0.447245
0.434378
0.417975
0.397488
0.372350
0.342084
0.306458
0.265678
0.220578
0.172744
0.124421
0.078096
0.035719
-0.001705
-0.034068
-0.061837
-0.085665
-0.106041
-0.123169
-0.136951
-0.146632
-0.151716
-0.152000
-0.147689
-0.139400
-0.128069
-0.114776
-0.100563
-0.086276
-0.072460
-0.059320
-0.046748
-0.034381
-0.021665
-0.007969
0.007130
0.022419
0.037309
0.051243
0.063687
0.074151
0.082170
0.087315
0.089269
0.087959
0.083701
0.077087
0.068353
0.057606
0.045607
0.032012
0.016324
-0.001526
-0.020385
-0.037601
-0.050179
-0.056821
-0.058445
-0.056489
-0.051000
-0.042904
-0.034227
-0.025250
-0.016325
-0.008269
-0.001424
0.004036
0.008121
0.010979
0.012854
0.014030
0.014715
0.015039
0.015060
0.014621
0.013453
0.011284
0.007877
0.003216
-0.002527
-0.009001
-0.015958
-0.023575
-0.032410
-0.042997
-0.055464
-0.069278
-0.083406
-0.096809
-0.108940
-0.119874
-0.130007
-0.140100
-0.150171
-0.160325
-0.170558
-0.181683
0.467645
0.462390
0.453661
0.442371
0.428311
0.411055
0.390060
0.364915
0.335320
0.301205
0.262847
0.220986
0.176867
0.132154
0.088660
0.047945
0.011032
-0.021635
-0.050058
-0.074423
-0.094800
-0.111603
-0.124470
-0.133081
-0.137280
-0.137126
-0.132978
-0.125506
-0.115605
-0.104261
-0.092392
-0.080709
-0.069618
-0.059194
-0.049215
-0.039254
-0.028676
-0.016427
-0.001360
0.014725
0.031220
0.046950
0.061110
0.073154
0.082645
0.089192
0.092498
0.092538
0.089918
0.084932
0.077518
0.068539
0.057712
0.044441
0.027984
0.008002
-0.014390
-0.035788
-0.051557
-0.059040
-0.059383
-0.056674
-0.051863
-0.044656
-0.035439
-0.025848
-0.016604
-0.008279
-0.001210
0.004452
0.008719
0.011741
0.013776
0.015172
0.016055
0.016461
0.016311
0.015501
0.013819
0.010962
0.006745
0.001228
-0.005214
-0.012032
-0.018877
-0.025962
-0.034029
-0.043881
-0.055833
-0.069432
-0.083631
-0.097289
-0.109682
-0.120734
-0.130886
-0.140321
-0.149670
-0.158991
-0.168280
-0.177322
0.478669
0.464582
0.452751
0.440085
0.425216
0.407351
0.386047
0.360905
0.331694
0.298400
0.261311
0.221091
0.178805
0.135848
0.093750
0.053900
0.017324
-0.015399
-0.044093
-0.068852
-0.089878
-0.106664
-0.119238
-0.127502
-0.131425
-0.131164
-0.127134
-0.120010
-0.110658
-0.100010
-0.088926
-0.078059
-0.067773
-0.058107
-0.048817
-0.039454
-0.029449
-0.018168
-0.005255
0.011311
0.028950
0.045852
0.060983
0.073764
0.083796
0.090740
0.094323
0.094455
0.091268
0.085751
0.078845
0.070372
0.059971
0.047061
0.031005
0.011567
-0.010277
-0.031606
-0.048191
-0.057167
-0.059330
-0.056289
-0.050812
-0.043481
-0.034600
-0.025193
-0.016081
-0.007844
-0.000832
0.004797
0.009046
0.012051
0.014045
0.015252
0.015999
0.016316
0.016083
0.015135
0.013263
0.010231
0.005897
0.000328
-0.006143
-0.013049
-0.020092
-0.027429
-0.035648
-0.045398
-0.056936
-0.069915
-0.083510
-0.096793
-0.109116
-0.120301
-0.130554
-0.140159
-0.149461
-0.158674
-0.167735
-0.176830
