# vtk DataFile Version 3.0
Vector Field
ASCII
DATASET RECTILINEAR_GRID
DIMENSIONS 100 26 1
X_COORDINATES 100 double
0.050000 0.150000 0.250000 0.350000 0.450000 0.550000 0.650000 0.750000 0.850000 0.950000 1.050000 1.150000 1.250000 1.350000 1.450000 1.550000 1.650000 1.750000 1.850000 1.950000 2.050000 2.150000 2.250000 2.350000 2.450000 2.550000 2.650000 2.750000 2.850000 2.950000 3.050000 3.150000 3.250000 3.350000 3.450000 3.550000 3.650000 3.750000 3.850000 3.950000 4.050000 4.150000 4.250000 4.350000 4.450000 4.550000 4.650000 4.750000 4.850000 4.950000 5.050000 5.150000 5.250000 5.350000 5.450000 5.550000 5.650000 5.750000 5.850000 5.950000 6.050000 6.150000 6.250000 6.350000 6.450000 6.550000 6.650000 6.750000 6.850000 6.950000 7.050000 7.150000 7.250000 7.350000 7.450000 7.550000 7.650000 7.750000 7.850000 7.950000 8.050000 8.150000 8.250000 8.350000 8.450000 8.550000 8.650000 8.750000 8.850000 8.950000 9.050000 9.150000 9.250000 9.350000 9.450000 9.550000 9.650000 9.750000 9.850000 9.950000 
Y_COORDINATES 26 double
0.050000 0.150000 0.250000 0.350000 0.450000 0.550000 0.650000 0.750000 0.850000 0.950000 1.050000 1.150000 1.250000 1.350000 1.450000 1.550000 1.650000 1.750000 1.850000 1.950000 2.050000 2.150000 2.250000 2.350000 2.450000 2.550000 
Z_COORDINATES 1 double
0.0
POINT_DATA 2600
VECTORS Vektorfeld double
0.997620 0.002380 0.0
0.992657 0.002582 0.0
0.988863 0.001212 0.0
0.988498 -0.000847 0.0
0.992556 -0.003212 0.0
1.001398 -0.005630 0.0
1.014889 -0.007861 0.0
1.032409 -0.009658 0.0
1.052864 -0.010798 0.0
1.074802 -0.011141 0.0
1.096633 -0.010690 0.0
1.116899 -0.009575 0.0
1.134458 -0.007984 0.0
1.148533 -0.006091 0.0
1.158648 -0.004024 0.0
1.164537 -0.001865 0.0
1.166151 0.000252 0.0
1.163497 0.002402 0.0
1.156366 0.004729 0.0
1.144347 0.007289 0.0
1.126985 0.010073 0.0
1.103899 0.013012 0.0
1.074896 0.015991 0.0
1.040044 0.018861 0.0
0.999722 0.021461 0.0
0.954628 0.023634 0.0
0.905752 0.025242 0.0
0.854335 0.026174 0.0
0.801813 0.026347 0.0
0.749755 0.025711 0.0
0.699799 0.024246 0.0
0.653578 0.021974 0.0
0.612646 0.018958 0.0
0.578380 0.015308 0.0
0.551960 0.011113 0.0
0.534585 0.006262 0.0
0.527685 0.000638 0.0
0.531239 -0.004192 0.0
0.542680 -0.007249 0.0
0.558583 -0.008654 0.0
0.575960 -0.008724 0.0
0.592416 -0.007733 0.0
0.606088 -0.005939 0.0
0.615695 -0.003669 0.0
0.620589 -0.001226 0.0
0.619996 0.001819 0.0
0.612429 0.005748 0.0
0.596560 0.010121 0.0
0.571981 0.014458 0.0
0.539212 0.018310 0.0
0.499692 0.021210 0.0
0.455966 0.022515 0.0
0.412067 0.021384 0.0
0.373355 0.017327 0.0
0.344939 0.011089 0.0
0.329162 0.004688 0.0
0.324327 0.000147 0.0
0.326050 -0.001870 0.0
0.330609 -0.002688 0.0
0.336580 -0.003283 0.0
0.343552 -0.003689 0.0
0.350954 -0.003713 0.0
0.358096 -0.003429 0.0
0.364454 -0.002929 0.0
0.369685 -0.002303 0.0
0.373605 -0.001618 0.0
0.376144 -0.000921 0.0
0.377256 -0.000191 0.0
0.376645 0.000802 0.0
0.373803 0.002040 0.0
0.368535 0.003229 0.0
0.361187 0.004119 0.0
0.352521 0.004547 0.0
0.343558 0.004416 0.0
0.335399 0.003743 0.0
0.328967 0.002689 0.0
0.324745 0.001533 0.0
0.322618 0.000594 0.0
0.321910 0.000114 0.0
0.321618 0.000179 0.0
0.320742 0.000696 0.0
0.318612 0.001433 0.0
0.315071 0.002108 0.0
0.310471 0.002492 0.0
0.305487 0.002493 0.0
0.300833 0.002161 0.0
0.297019 0.001653 0.0
0.294229 0.001137 0.0
0.292383 0.000710 0.0
0.291389 0.000284 0.0
0.291317 -0.000212 0.0
0.292179 -0.000649 0.0
0.293856 -0.001028 0.0
0.296180 -0.001297 0.0
0.298876 -0.001399 0.0
0.301574 -0.001298 0.0
0.303863 -0.000991 0.0
0.305387 -0.000534 0.0
0.306018 -0.000096 0.0
0.305480 0.000634 0.0
1.002910 0.001851 0.0
1.011227 -0.000243 0.0
1.024020 -0.004963 0.0
1.040756 -0.011042 0.0
1.061461 -0.017780 0.0
1.086151 -0.024593 0.0
1.114612 -0.030850 0.0
1.146276 -0.035852 0.0
1.180158 -0.038941 0.0
1.214903 -0.039680 0.0
1.249021 -0.038099 0.0
1.281220 -0.034632 0.0
1.310610 -0.029877 0.0
1.336714 -0.024376 0.0
1.359354 -0.018494 0.0
1.378480 -0.012410 0.0
1.393854 -0.006192 0.0
1.405016 0.000337 0.0
1.411508 0.007433 0.0
1.412837 0.015275 0.0
1.408453 0.023834 0.0
1.397885 0.032904 0.0
1.380861 0.042127 0.0
1.357399 0.051039 0.0
1.327864 0.059141 0.0
1.292957 0.065955 0.0
1.253686 0.071067 0.0
1.211309 0.074143 0.0
1.167274 0.074935 0.0
1.123165 0.073290 0.0
1.080635 0.069153 0.0
1.041338 0.062584 0.0
1.006844 0.053774 0.0
0.978561 0.043041 0.0
0.957607 0.030753 0.0
0.944408 0.017195 0.0
0.938034 0.002980 0.0
0.937368 -0.009422 0.0
0.942405 -0.018498 0.0
0.953376 -0.024279 0.0
0.969968 -0.027067 0.0
0.991135 -0.027013 0.0
1.014955 -0.024149 0.0
1.038453 -0.018563 0.0
1.057694 -0.010467 0.0
1.069281 0.000067 0.0
1.071594 0.012754 0.0
1.064062 0.026515 0.0
1.046742 0.039964 0.0
1.020547 0.051769 0.0
0.987225 0.060594 0.0
0.949153 0.064929 0.0
0.908764 0.063259 0.0
0.867780 0.055149 0.0
0.826928 0.042537 0.0
0.786740 0.029205 0.0
0.749143 0.018062 0.0
0.718435 0.009199 0.0
0.699001 0.001118 0.0
0.691689 -0.005748 0.0
0.693651 -0.010158 0.0
0.701468 -0.012464 0.0
0.713075 -0.013426 0.0
0.727152 -0.013366 0.0
0.742555 -0.012499 0.0
0.758133 -0.010920 0.0
0.772629 -0.008653 0.0
0.784755 -0.005695 0.0
0.793776 -0.002103 0.0
0.799909 0.001653 0.0
0.803761 0.005031 0.0
0.805858 0.007569 0.0
0.806709 0.008912 0.0
0.806771 0.008951 0.0
0.806245 0.007892 0.0
0.804963 0.006254 0.0
0.802418 0.004735 0.0
0.797953 0.003984 0.0
0.791028 0.004355 0.0
0.781456 0.005803 0.0
0.769493 0.007911 0.0
0.755816 0.010026 0.0
0.741426 0.011446 0.0
0.727513 0.011668 0.0
0.715243 0.010572 0.0
0.705529 0.008450 0.0
0.698845 0.005861 0.0
0.695223 0.003340 0.0
0.694423 0.001152 0.0
0.695897 -0.000638 0.0
0.698770 -0.002091 0.0
0.702425 -0.003287 0.0
0.706732 -0.004373 0.0
0.711622 -0.005165 0.0
0.716861 -0.005465 0.0
0.722046 -0.005116 0.0
0.726629 -0.004044 0.0
0.729962 -0.002338 0.0
0.731376 -0.000336 0.0
0.731005 0.001783 0.0
1.001815 -0.002874 0.0
1.008281 -0.010301 0.0
1.020035 -0.019453 0.0
1.036627 -0.029880 0.0
1.058032 -0.041053 0.0
1.084302 -0.052281 0.0
1.115302 -0.062624 0.0
1.150464 -0.070905 0.0
1.188610 -0.075916 0.0
1.227885 -0.076725 0.0
1.266169 -0.073455 0.0
1.301773 -0.067078 0.0
1.333753 -0.058801 0.0
1.361818 -0.049622 0.0
1.386087 -0.040157 0.0
1.406830 -0.030615 0.0
1.424287 -0.020818 0.0
1.438503 -0.010414 0.0
1.449213 0.000982 0.0
1.455914 0.013695 0.0
1.457988 0.027725 0.0
1.454823 0.042745 0.0
1.445994 0.058139 0.0
1.431379 0.073103 0.0
1.411201 0.086790 0.0
1.386003 0.098411 0.0
1.356585 0.107300 0.0
1.323939 0.112933 0.0
1.289190 0.114928 0.0
1.253544 0.113053 0.0
1.218233 0.107231 0.0
1.184465 0.097572 0.0
1.153353 0.084392 0.0
1.125830 0.068229 0.0
1.102523 0.049826 0.0
1.083632 0.030213 0.0
1.069077 0.010892 0.0
1.059197 -0.006789 0.0
1.054999 -0.021970 0.0
1.057565 -0.034344 0.0
1.067528 -0.043556 0.0
1.084758 -0.048920 0.0
1.108192 -0.049497 0.0
1.135847 -0.044368 0.0
1.164951 -0.033007 0.0
1.191992 -0.016022 0.0
1.213583 0.004939 0.0
1.227641 0.027803 0.0
1.233274 0.050363 0.0
1.230348 0.070492 0.0
1.219367 0.086174 0.0
1.201206 0.095581 0.0
1.176723 0.097479 0.0
1.146592 0.092043 0.0
1.111774 0.081312 0.0
1.074263 0.068128 0.0
1.036894 0.054105 0.0
1.001618 0.039141 0.0
0.968466 0.023762 0.0
0.937627 0.009759 0.0
0.911783 -0.001784 0.0
0.893966 -0.010838 0.0
0.884420 -0.017111 0.0
0.881523 -0.020862 0.0
0.883674 -0.022558 0.0
0.889612 -0.022379 0.0
0.898336 -0.020414 0.0
0.909087 -0.016811 0.0
0.921184 -0.012105 0.0
0.933821 -0.007115 0.0
0.946344 -0.002577 0.0
0.958553 0.000873 0.0
0.970483 0.002826 0.0
0.982167 0.003293 0.0
0.993502 0.002742 0.0
1.004210 0.001979 0.0
1.013883 0.001882 0.0
1.022089 0.003097 0.0
1.028421 0.005834 0.0
1.032523 0.009794 0.0
1.034117 0.014289 0.0
1.032945 0.018497 0.0
1.028749 0.021559 0.0
1.021328 0.022889 0.0
1.010567 0.022380 0.0
0.996580 0.020343 0.0
0.979910 0.017321 0.0
0.961636 0.013777 0.0
0.943238 0.009913 0.0
0.926534 0.005831 0.0
0.913556 0.001544 0.0
0.905819 -0.002841 0.0
0.903377 -0.006684 0.0
0.905116 -0.009485 0.0
0.909861 -0.011129 0.0
0.916662 -0.011438 0.0
0.924563 -0.010205 0.0
0.932412 -0.007360 0.0
0.938768 -0.003083 0.0
0.941413 0.002257 0.0
1.001426 -0.006114 0.0
1.006956 -0.019057 0.0
1.017755 -0.033250 0.0
1.033820 -0.048738 0.0
1.055430 -0.065210 0.0
1.082974 -0.081939 0.0
1.116668 -0.097659 0.0
1.156142 -0.110506 0.0
1.200068 -0.118387 0.0
1.245610 -0.119073 0.0
1.289241 -0.113022 0.0
1.328528 -0.102402 0.0
1.362559 -0.089488 0.0
1.391494 -0.075934 0.0
1.416013 -0.062632 0.0
1.436914 -0.049785 0.0
1.454838 -0.037029 0.0
1.470047 -0.023629 0.0
1.482286 -0.008752 0.0
1.490869 0.008145 0.0
1.494909 0.027163 0.0
1.493554 0.047828 0.0
1.486259 0.069180 0.0
1.472939 0.089998 0.0
1.453961 0.109051 0.0
1.430041 0.125268 0.0
1.402102 0.137800 0.0
1.371151 0.146029 0.0
1.338201 0.149532 0.0
1.304221 0.148076 0.0
1.270123 0.141616 0.0
1.236752 0.130326 0.0
1.204871 0.114631 0.0
1.175151 0.095233 0.0
1.148167 0.073112 0.0
1.124469 0.049516 0.0
1.104787 0.025825 0.0
1.090095 0.002850 0.0
1.081596 -0.018912 0.0
1.080521 -0.038894 0.0
1.087692 -0.056140 0.0
1.103253 -0.069127 0.0
1.126598 -0.076070 0.0
1.156480 -0.075332 0.0
1.191071 -0.065737 0.0
1.227803 -0.047064 0.0
1.263037 -0.020843 0.0
1.292756 0.009807 0.0
1.314538 0.040944 0.0
1.327830 0.069546 0.0
1.332726 0.093206 0.0
1.329456 0.109980 0.0
1.318267 0.118753 0.0
1.299518 0.119648 0.0
1.274042 0.114003 0.0
1.243364 0.103626 0.0
1.209382 0.089958 0.0
1.173811 0.074135 0.0
1.138193 0.057537 0.0
1.103924 0.041093 0.0
1.071570 0.025079 0.0
1.041281 0.010404 0.0
1.014457 -0.001982 0.0
0.993132 -0.011767 0.0
0.977953 -0.018625 0.0
0.968251 -0.022549 0.0
0.963046 -0.023762 0.0
0.961410 -0.022578 0.0
0.962547 -0.019573 0.0
0.965884 -0.015620 0.0
0.971111 -0.011823 0.0
0.978171 -0.009150 0.0
0.987242 -0.008154 0.0
0.998658 -0.008827 0.0
1.012794 -0.010609 0.0
1.029932 -0.012517 0.0
1.050061 -0.013424 0.0
1.072662 -0.012402 0.0
1.096629 -0.008965 0.0
1.120342 -0.003223 0.0
1.141925 0.004129 0.0
1.159748 0.012006 0.0
1.172714 0.019280 0.0
1.180112 0.025192 0.0
1.181495 0.029455 0.0
1.176812 0.031939 0.0
1.166533 0.032674 0.0
1.151574 0.031658 0.0
1.133149 0.028855 0.0
1.112530 0.024212 0.0
1.090796 0.017876 0.0
1.068939 0.010421 0.0
1.048669 0.002766 0.0
1.032401 -0.004407 0.0
1.021697 -0.010247 0.0
1.016479 -0.013904 0.0
1.015726 -0.014888 0.0
1.018057 -0.012858 0.0
1.021745 -0.007629 0.0
1.023224 0.002678 0.0
1.001224 -0.008764 0.0
1.006122 -0.026835 0.0
1.016037 -0.046187 0.0
1.031385 -0.067214 0.0
1.052929 -0.089889 0.0
1.081684 -0.113560 0.0
1.118609 -0.136657 0.0
1.163954 -0.156327 0.0
1.216662 -0.169199 0.0
1.271808 -0.168949 0.0
1.322570 -0.157539 0.0
1.365456 -0.140056 0.0
1.400204 -0.120614 0.0
1.428101 -0.101641 0.0
1.450878 -0.084222 0.0
1.470206 -0.068425 0.0
1.487401 -0.053508 0.0
1.503158 -0.038116 0.0
1.517271 -0.020616 0.0
1.528493 0.000204 0.0
1.535075 0.024482 0.0
1.535488 0.051451 0.0
1.528766 0.079573 0.0
1.514735 0.106956 0.0
1.493971 0.131835 0.0
1.467546 0.152830 0.0
1.436733 0.168990 0.0
1.402806 0.179717 0.0
1.366920 0.184681 0.0
1.330074 0.183754 0.0
1.293119 0.176991 0.0
1.256792 0.164649 0.0
1.221766 0.147215 0.0
1.188702 0.125434 0.0
1.158298 0.100300 0.0
1.131335 0.072989 0.0
1.108707 0.044662 0.0
1.091316 0.016097 0.0
1.079961 -0.012304 0.0
1.075354 -0.039822 0.0
1.078019 -0.065048 0.0
1.088183 -0.085943 0.0
1.105951 -0.100367 0.0
1.131512 -0.106478 0.0
1.164978 -0.102649 0.0
1.205701 -0.087608 0.0
1.251338 -0.061169 0.0
1.297084 -0.025332 0.0
1.336336 0.015048 0.0
1.365003 0.053483 0.0
1.382955 0.086421 0.0
1.391013 0.111975 0.0
1.389856 0.129104 0.0
1.380132 0.137770 0.0
1.362680 0.138809 0.0
1.338665 0.133514 0.0
1.309473 0.123244 0.0
1.276546 0.109347 0.0
1.241323 0.093167 0.0
1.205191 0.075864 0.0
1.169420 0.058433 0.0
1.135125 0.041633 0.0
1.102959 0.025778 0.0
1.073195 0.011562 0.0
1.046540 -0.000120 0.0
1.023896 -0.008708 0.0
1.005360 -0.013862 0.0
0.990205 -0.015686 0.0
0.977486 -0.014882 0.0
0.966526 -0.012688 0.0
0.957191 -0.010647 0.0
0.949985 -0.010180 0.0
0.945959 -0.012169 0.0
0.946408 -0.016677 0.0
0.952536 -0.023023 0.0
0.965191 -0.029897 0.0
0.984714 -0.035696 0.0
1.010919 -0.038937 0.0
1.043115 -0.038592 0.0
1.080038 -0.034233 0.0
1.119690 -0.026096 0.0
1.159160 -0.015061 0.0
1.194889 -0.002347 0.0
1.223690 0.010619 0.0
1.243963 0.022372 0.0
1.255639 0.032029 0.0
1.259243 0.039259 0.0
1.255553 0.043722 0.0
1.245579 0.045190 0.0
1.230475 0.043600 0.0
1.211525 0.039172 0.0
1.190155 0.032352 0.0
1.167688 0.023572 0.0
1.145109 0.013634 0.0
1.123604 0.003921 0.0
1.104923 -0.004172 0.0
1.090431 -0.009374 0.0
1.080276 -0.010549 0.0
1.073592 -0.006941 0.0
1.068450 0.005652 0.0
1.001023 -0.011011 0.0
1.005181 -0.033643 0.0
1.013822 -0.057935 0.0
1.027730 -0.084721 0.0
1.048250 -0.114446 0.0
1.077318 -0.146824 0.0
1.117254 -0.180253 0.0
1.169820 -0.210642 0.0
1.235930 -0.233702 0.0
1.305396 -0.229059 0.0
1.363417 -0.206214 0.0
1.406417 -0.177267 0.0
1.436966 -0.148700 0.0
1.458747 -0.123233 0.0
1.475077 -0.101736 0.0
1.488759 -0.083919 0.0
1.502063 -0.068514 0.0
1.516510 -0.053314 0.0
1.532377 -0.035398 0.0
1.548019 -0.011879 0.0
1.559958 0.018043 0.0
1.564833 0.052602 0.0
1.560790 0.089188 0.0
1.547427 0.124736 0.0
1.525581 0.156665 0.0
1.496775 0.183232 0.0
1.462728 0.203448 0.0
1.425055 0.216858 0.0
1.385147 0.223333 0.0
1.344148 0.222946 0.0
1.302995 0.215907 0.0
1.262491 0.202565 0.0
1.223381 0.183434 0.0
1.186438 0.159221 0.0
1.152512 0.130844 0.0
1.122499 0.099421 0.0
1.097144 0.066212 0.0
1.076659 0.032422 0.0
1.060480 -0.001095 0.0
1.047879 -0.033823 0.0
1.038803 -0.064636 0.0
1.034097 -0.091813 0.0
1.035538 -0.113707 0.0
1.045773 -0.128934 0.0
1.067574 -0.135461 0.0
1.102617 -0.130562 0.0
1.150556 -0.111791 0.0
1.208451 -0.078351 0.0
1.269937 -0.032672 0.0
1.324587 0.017887 0.0
1.364911 0.063742 0.0
1.390701 0.100805 0.0
1.403826 0.128307 0.0
1.405846 0.146271 0.0
1.398193 0.155411 0.0
1.382272 0.156848 0.0
1.359492 0.151883 0.0
1.331250 0.141878 0.0
1.298930 0.128179 0.0
1.263882 0.112030 0.0
1.227396 0.094524 0.0
1.190662 0.076572 0.0
1.154708 0.058958 0.0
1.120377 0.042478 0.0
1.088122 0.027874 0.0
1.057877 0.016186 0.0
1.029241 0.008415 0.0
1.001630 0.004803 0.0
0.974508 0.004470 0.0
0.947934 0.005494 0.0
0.922966 0.005474 0.0
0.901519 0.002352 0.0
0.885799 -0.004955 0.0
0.877794 -0.016336 0.0
0.878756 -0.030454 0.0
0.888859 -0.045224 0.0
0.907457 -0.058491 0.0
0.933578 -0.068469 0.0
0.966218 -0.073896 0.0
1.004389 -0.074024 0.0
1.047003 -0.068571 0.0
1.092669 -0.057722 0.0
1.139449 -0.042194 0.0
1.184533 -0.023419 0.0
1.224135 -0.003464 0.0
1.254823 0.015502 0.0
1.275448 0.031557 0.0
1.286619 0.043944 0.0
1.289267 0.052294 0.0
1.284443 0.056423 0.0
1.273341 0.056401 0.0
1.257274 0.052559 0.0
1.237612 0.045493 0.0
1.215764 0.036141 0.0
1.193082 0.025601 0.0
1.170661 0.015250 0.0
1.149463 0.006893 0.0
1.130469 0.002333 0.0
1.114381 0.002949 0.0
1.102224 0.013061 0.0
1.000743 -0.012777 0.0
1.003800 -0.039091 0.0
1.010340 -0.067669 0.0
1.021401 -0.099956 0.0
1.038871 -0.137202 0.0
1.065811 -0.180076 0.0
1.106687 -0.227812 0.0
1.166518 -0.275481 0.0
1.253169 -0.321624 0.0
1.341910 -0.299343 0.0
1.400279 -0.252320 0.0
1.431963 -0.205846 0.0
1.447432 -0.166138 0.0
1.453861 -0.134006 0.0
1.455842 -0.109274 0.0
1.456906 -0.091126 0.0
1.460168 -0.077873 0.0
1.468346 -0.066581 0.0
1.483217 -0.052869 0.0
1.504280 -0.031112 0.0
1.526399 0.003218 0.0
1.541932 0.047018 0.0
1.546280 0.094468 0.0
1.538672 0.140427 0.0
1.520362 0.181130 0.0
1.493447 0.214487 0.0
1.460076 0.239611 0.0
1.422122 0.256322 0.0
1.381113 0.264786 0.0
1.338287 0.265319 0.0
1.294672 0.258301 0.0
1.251179 0.244169 0.0
1.208688 0.223433 0.0
1.168125 0.196728 0.0
1.130500 0.164888 0.0
1.096776 0.129113 0.0
1.067432 0.091219 0.0
1.041672 0.053661 0.0
1.016901 0.018617 0.0
0.989641 -0.013674 0.0
0.959063 -0.045132 0.0
0.929070 -0.076616 0.0
0.906192 -0.107467 0.0
0.896910 -0.136127 0.0
0.905484 -0.158642 0.0
0.933022 -0.169961 0.0
0.978341 -0.165651 0.0
1.038953 -0.142997 0.0
1.111204 -0.101764 0.0
1.189026 -0.045493 0.0
1.260385 0.015439 0.0
1.314731 0.068971 0.0
1.351112 0.110635 0.0
1.372209 0.140826 0.0
1.380259 0.160459 0.0
1.377221 0.170757 0.0
1.364875 0.173100 0.0
1.344863 0.168913 0.0
1.318727 0.159600 0.0
1.287915 0.146471 0.0
1.253777 0.130707 0.0
1.217544 0.113357 0.0
1.180264 0.095406 0.0
1.142700 0.077926 0.0
1.105152 0.062228 0.0
1.067378 0.049851 0.0
1.028774 0.041990 0.0
0.988924 0.038690 0.0
0.948370 0.038260 0.0
0.909066 0.037582 0.0
0.874087 0.033334 0.0
0.846668 0.023358 0.0
0.829136 0.007292 0.0
0.822296 -0.013738 0.0
0.825626 -0.037344 0.0
0.837837 -0.060647 0.0
0.857435 -0.081263 0.0
0.883140 -0.097523 0.0
0.914007 -0.108349 0.0
0.949351 -0.113085 0.0
0.988598 -0.111370 0.0
1.031114 -0.103105 0.0
1.076023 -0.088500 0.0
1.122038 -0.068212 0.0
1.167293 -0.043528 0.0
1.208991 -0.016821 0.0
1.243446 0.008799 0.0
1.268299 0.030678 0.0
1.283533 0.047679 0.0
1.289922 0.059472 0.0
1.288411 0.065964 0.0
1.280108 0.067366 0.0
1.266237 0.064219 0.0
1.248090 0.057410 0.0
1.226954 0.048151 0.0
1.204075 0.038001 0.0
1.180670 0.028745 0.0
1.157958 0.022188 0.0
1.137267 0.019873 0.0
1.121147 0.024414 0.0
1.000343 -0.013863 0.0
1.001783 -0.042502 0.0
1.005055 -0.074070 0.0
1.011190 -0.110751 0.0
1.022284 -0.154970 0.0
1.042278 -0.209242 0.0
1.078252 -0.275495 0.0
1.141204 -0.350582 0.0
1.257033 -0.449003 0.0
1.363751 -0.367422 0.0
1.397659 -0.276518 0.0
1.394623 -0.210295 0.0
1.379080 -0.161614 0.0
1.359222 -0.125103 0.0
1.338212 -0.099149 0.0
1.318621 -0.082724 0.0
1.303459 -0.074374 0.0
1.296457 -0.071256 0.0
1.301888 -0.068496 0.0
1.323311 -0.057971 0.0
1.359719 -0.028449 0.0
1.398046 0.024824 0.0
1.423789 0.086572 0.0
1.433854 0.145865 0.0
1.430352 0.197504 0.0
1.416087 0.239294 0.0
1.393494 0.270766 0.0
1.364438 0.292177 0.0
1.330360 0.304018 0.0
1.292457 0.306816 0.0
1.251802 0.301075 0.0
1.209412 0.287278 0.0
1.166304 0.265923 0.0
1.123518 0.237586 0.0
1.082073 0.203102 0.0
1.042675 0.164021 0.0
1.004944 0.123387 0.0
0.966352 0.085846 0.0
0.922546 0.055008 0.0
0.870793 0.028947 0.0
0.813905 -0.000286 0.0
0.762132 -0.039695 0.0
0.728643 -0.088021 0.0
0.719585 -0.137234 0.0
0.732701 -0.179224 0.0
0.763602 -0.207817 0.0
0.809149 -0.218661 0.0
0.867543 -0.208993 0.0
0.937346 -0.177823 0.0
1.016527 -0.126437 0.0
1.101115 -0.059565 0.0
1.180329 0.010417 0.0
1.242733 0.070404 0.0
1.286380 0.116312 0.0
1.313889 0.149414 0.0
1.327524 0.171205 0.0
1.329288 0.183236 0.0
1.321010 0.187067 0.0
1.304384 0.184209 0.0
1.280975 0.176083 0.0
1.252210 0.163997 0.0
1.219341 0.149170 0.0
1.183360 0.132854 0.0
1.144869 0.116533 0.0
1.103992 0.102047 0.0
1.060500 0.091299 0.0
1.014318 0.085328 0.0
0.966290 0.083230 0.0
0.918718 0.081846 0.0
0.875149 0.076868 0.0
0.839360 0.064816 0.0
0.814136 0.044518 0.0
0.800570 0.017230 0.0
0.798071 -0.014339 0.0
0.804885 -0.046887 0.0
0.818965 -0.077395 0.0
0.838627 -0.103775 0.0
0.862676 -0.124765 0.0
0.890345 -0.139642 0.0
0.921186 -0.147977 0.0
0.954947 -0.149486 0.0
0.991422 -0.143981 0.0
1.030306 -0.131418 0.0
1.071046 -0.112048 0.0
1.112714 -0.086615 0.0
1.153877 -0.056595 0.0
1.192405 -0.024409 0.0
1.225130 0.006308 0.0
1.249508 0.032437 0.0
1.265060 0.052774 0.0
1.272239 0.066993 0.0
1.271774 0.075105 0.0
1.264608 0.077518 0.0
1.251822 0.075044 0.0
1.234586 0.068889 0.0
1.214126 0.060600 0.0
1.191756 0.051921 0.0
1.168944 0.044536 0.0
1.147417 0.039743 0.0
1.130152 0.037930 0.0
0.999822 -0.014027 0.0
0.999125 -0.043082 0.0
0.997903 -0.075540 0.0
0.996741 -0.114254 0.0
0.997119 -0.162939 0.0
1.002562 -0.226711 0.0
1.021316 -0.312754 0.0
1.071778 -0.426736 0.0
1.214501 -0.631401 0.0
1.312885 -0.390127 0.0
1.268048 -0.242884 0.0
1.199670 -0.172515 0.0
1.141827 -0.126009 0.0
1.091615 -0.090639 0.0
1.045163 -0.066150 0.0
1.001643 -0.052612 0.0
0.962672 -0.050353 0.0
0.932944 -0.058546 0.0
0.920879 -0.074573 0.0
0.936039 -0.088476 0.0
0.983156 -0.081469 0.0
1.056272 -0.033600 0.0
1.128913 0.046613 0.0
1.179958 0.124713 0.0
1.211388 0.190728 0.0
1.227948 0.243776 0.0
1.232423 0.284402 0.0
1.226545 0.313476 0.0
1.211593 0.331749 0.0
1.188742 0.339838 0.0
1.159173 0.338278 0.0
1.124062 0.327576 0.0
1.084508 0.308287 0.0
1.041274 0.281240 0.0
0.994055 0.248112 0.0
0.940216 0.212247 0.0
0.874778 0.178330 0.0
0.794989 0.149283 0.0
0.707906 0.122458 0.0
0.631007 0.090149 0.0
0.581543 0.044864 0.0
0.564336 -0.015866 0.0
0.571194 -0.085218 0.0
0.591651 -0.151437 0.0
0.620120 -0.206606 0.0
0.655095 -0.246311 0.0
0.697066 -0.267684 0.0
0.747206 -0.268504 0.0
0.806482 -0.247391 0.0
0.874995 -0.204561 0.0
0.951570 -0.142604 0.0
1.033118 -0.067305 0.0
1.110311 0.008529 0.0
1.172627 0.072224 0.0
1.217730 0.120890 0.0
1.247569 0.156255 0.0
1.263956 0.180036 0.0
1.268594 0.193905 0.0
1.263111 0.199480 0.0
1.249034 0.198298 0.0
1.227762 0.191819 0.0
1.200492 0.181487 0.0
1.168120 0.168890 0.0
1.131159 0.155948 0.0
1.089796 0.144871 0.0
1.044265 0.137498 0.0
0.995506 0.134070 0.0
0.945764 0.132258 0.0
0.898592 0.127562 0.0
0.858006 0.115307 0.0
0.827223 0.092950 0.0
0.807768 0.061063 0.0
0.799429 0.022591 0.0
0.800787 -0.018559 0.0
0.809835 -0.058529 0.0
0.824580 -0.094578 0.0
0.843422 -0.125097 0.0
0.865209 -0.149281 0.0
0.889214 -0.166799 0.0
0.915080 -0.177526 0.0
0.942735 -0.181353 0.0
0.972268 -0.178122 0.0
1.003770 -0.167662 0.0
1.037174 -0.149948 0.0
1.072121 -0.125331 0.0
1.107856 -0.094776 0.0
1.143150 -0.060050 0.0
1.176196 -0.023823 0.0
1.204311 0.010073 0.0
1.225332 0.038566 0.0
1.238701 0.060653 0.0
1.244600 0.076011 0.0
1.243564 0.084814 0.0
1.236376 0.087721 0.0
1.223996 0.085829 0.0
1.207537 0.080579 0.0
1.188281 0.073567 0.0
1.167755 0.066229 0.0
1.147802 0.059530 0.0
1.131312 0.051898 0.0
0.999235 -0.013084 0.0
0.996105 -0.040199 0.0
0.989620 -0.070716 0.0
0.979421 -0.107717 0.0
0.965194 -0.155628 0.0
0.947324 -0.221594 0.0
0.929163 -0.318466 0.0
0.925568 -0.467891 0.0
1.019407 -0.826808 0.0
1.017899 -0.191051 0.0
0.834572 -0.103036 0.0
0.693491 -0.092687 0.0
0.612866 -0.067367 0.0
0.551675 -0.037878 0.0
0.492505 -0.013288 0.0
0.436227 -0.005677 0.0
0.394630 -0.016721 0.0
0.378742 -0.046562 0.0
0.394742 -0.090493 0.0
0.442137 -0.135111 0.0
0.516821 -0.156636 0.0
0.614268 -0.128995 0.0
0.727054 -0.043418 0.0
0.829099 0.061653 0.0
0.903949 0.147508 0.0
0.959000 0.215385 0.0
0.998379 0.268938 0.0
1.023325 0.309874 0.0
1.034612 0.339016 0.0
1.033162 0.356871 0.0
1.020064 0.363912 0.0
0.996383 0.360735 0.0
0.962754 0.348310 0.0
0.918672 0.328533 0.0
0.861824 0.304887 0.0
0.789409 0.281726 0.0
0.703226 0.260473 0.0
0.614723 0.235432 0.0
0.541882 0.196233 0.0
0.498452 0.136704 0.0
0.486584 0.059641 0.0
0.498564 -0.025416 0.0
0.523143 -0.107104 0.0
0.552051 -0.178916 0.0
0.582002 -0.237547 0.0
0.612718 -0.281062 0.0
0.645632 -0.307819 0.0
0.683081 -0.315960 0.0
0.727499 -0.303630 0.0
0.780546 -0.269882 0.0
0.842481 -0.215793 0.0
0.911958 -0.145141 0.0
0.985777 -0.064648 0.0
1.055559 0.013303 0.0
1.112532 0.077736 0.0
1.154737 0.127364 0.0
1.183346 0.163931 0.0
1.199616 0.189101 0.0
1.204861 0.204522 0.0
1.200384 0.211808 0.0
1.187405 0.212560 0.0
1.166965 0.208457 0.0
1.139839 0.201418 0.0
1.106535 0.193685 0.0
1.067524 0.187509 0.0
1.023740 0.184175 0.0
0.977178 0.182715 0.0
0.931098 0.179435 0.0
0.889483 0.169171 0.0
0.855900 0.147866 0.0
0.832461 0.114614 0.0
0.819542 0.071773 0.0
0.816227 0.023534 0.0
0.820913 -0.025546 0.0
0.831737 -0.071414 0.0
0.846904 -0.111606 0.0
0.864896 -0.144903 0.0
0.884545 -0.170911 0.0
0.905075 -0.189704 0.0
0.926121 -0.201533 0.0
0.947702 -0.206582 0.0
0.970119 -0.204844 0.0
0.993796 -0.196119 0.0
1.019082 -0.180182 0.0
1.046081 -0.157043 0.0
1.074525 -0.127243 0.0
1.103717 -0.092069 0.0
1.132515 -0.053648 0.0
1.159257 -0.014959 0.0
1.181695 0.020140 0.0
1.198176 0.049229 0.0
1.208233 0.071479 0.0
1.211912 0.086704 0.0
1.209621 0.095310 0.0
1.202038 0.098202 0.0
1.190070 0.096634 0.0
1.174867 0.091972 0.0
1.157867 0.085350 0.0
1.140841 0.077388 0.0
1.126340 0.065031 0.0
0.998689 -0.011008 0.0
0.993287 -0.033743 0.0
0.981819 -0.059219 0.0
0.962796 -0.089991 0.0
0.933452 -0.129784 0.0
0.888696 -0.184812 0.0
0.818533 -0.266924 0.0
0.703419 -0.400723 0.0
0.315705 -0.700645 0.0
-0.463120 0.243337 0.0
-0.463120 0.000000 0.0
-0.031947 -0.022213 0.0
-0.061366 -0.037530 0.0
-0.048883 -0.019006 0.0
-0.018283 -0.003589 0.0
0.018345 0.004273 0.0
0.043648 -0.010377 0.0
0.060343 -0.053711 0.0
0.079789 -0.118790 0.0
0.113972 -0.188393 0.0
0.170599 -0.234665 0.0
0.252282 -0.230095 0.0
0.357902 -0.160724 0.0
0.478348 -0.043532 0.0
0.588018 0.068173 0.0
0.674117 0.153570 0.0
0.742862 0.222628 0.0
0.795161 0.278939 0.0
0.830747 0.323078 0.0
0.849816 0.355191 0.0
0.852852 0.375653 0.0
0.840161 0.385366 0.0
0.811344 0.386124 0.0
0.765202 0.380943 0.0
0.701412 0.373114 0.0
0.624647 0.362679 0.0
0.547654 0.342696 0.0
0.487457 0.301908 0.0
0.455827 0.234228 0.0
0.453540 0.144427 0.0
0.473193 0.044133 0.0
0.504257 -0.052952 0.0
0.538075 -0.137964 0.0
0.570209 -0.209099 0.0
0.598839 -0.265946 0.0
0.623893 -0.308432 0.0
0.646799 -0.336269 0.0
0.670279 -0.348439 0.0
0.697811 -0.343100 0.0
0.732652 -0.318301 0.0
0.776729 -0.273386 0.0
0.829982 -0.210278 0.0
0.890458 -0.133806 0.0
0.954464 -0.051328 0.0
1.014372 0.025487 0.0
1.063382 0.088397 0.0
1.100168 0.137504 0.0
1.125212 0.174215 0.0
1.139308 0.200068 0.0
1.143375 0.216671 0.0
1.138329 0.225721 0.0
1.124973 0.229091 0.0
1.103950 0.228933 0.0
1.075845 0.227578 0.0
1.041529 0.226943 0.0
1.002666 0.227387 0.0
0.962052 0.226679 0.0
0.923382 0.220222 0.0
0.890350 0.203029 0.0
0.865589 0.172352 0.0
0.850131 0.129024 0.0
0.843651 0.076761 0.0
0.845068 0.020444 0.0
0.852911 -0.034986 0.0
0.865508 -0.085395 0.0
0.881214 -0.128497 0.0
0.898558 -0.163348 0.0
0.916342 -0.189899 0.0
0.933731 -0.208633 0.0
0.950311 -0.220230 0.0
0.966119 -0.225274 0.0
0.981587 -0.224037 0.0
0.997404 -0.216418 0.0
1.014301 -0.202065 0.0
1.032821 -0.180679 0.0
1.053144 -0.152375 0.0
1.075004 -0.117989 0.0
1.097689 -0.079211 0.0
1.120086 -0.038535 0.0
1.140572 0.000792 0.0
1.157360 0.035308 0.0
1.169303 0.063399 0.0
1.175989 0.084419 0.0
1.177437 0.098438 0.0
1.174000 0.106093 0.0
1.166326 0.108384 0.0
1.155356 0.106396 0.0
1.142347 0.100934 0.0
1.128879 0.092298 0.0
1.117052 0.076448 0.0
0.998306 -0.008004 0.0
0.991322 -0.024360 0.0
0.976428 -0.042240 0.0
0.951475 -0.062994 0.0
0.912325 -0.088287 0.0
0.850993 -0.120221 0.0
0.750781 -0.161139 0.0
0.572402 -0.213015 0.0
0.228352 -0.253910 0.0
0.000000 0.243337 0.0
-0.000000 -0.000000 0.0
0.000000 0.000000 0.0
-0.021195 -0.020029 0.0
-0.047530 -0.023821 0.0
-0.055895 -0.021009 0.0
-0.070245 -0.000585 0.0
-0.096992 -0.004074 0.0
-0.125430 -0.048270 0.0
-0.141681 -0.127426 0.0
-0.136898 -0.218724 0.0
-0.107558 -0.290300 0.0
-0.048107 -0.315595 0.0
0.046247 -0.275198 0.0
0.167344 -0.170601 0.0
0.296759 -0.043844 0.0
0.411087 0.065159 0.0
0.501572 0.151809 0.0
0.573475 0.225556 0.0
0.626873 0.287478 0.0
0.661284 0.337310 0.0
0.676379 0.375403 0.0
0.671710 0.402976 0.0
0.646957 0.422085 0.0
0.603433 0.434649 0.0
0.546982 0.439648 0.0
0.489843 0.430048 0.0
0.447474 0.394689 0.0
0.430740 0.326848 0.0
0.440705 0.230954 0.0
0.470822 0.119871 0.0
0.511870 0.007989 0.0
0.554890 -0.090892 0.0
0.594388 -0.173341 0.0
0.628297 -0.239766 0.0
0.655522 -0.291134 0.0
0.675873 -0.328648 0.0
0.690282 -0.353370 0.0
0.701073 -0.365608 0.0
0.711956 -0.364345 0.0
0.727394 -0.347335 0.0
0.751273 -0.312307 0.0
0.785508 -0.258844 0.0
0.829458 -0.189665 0.0
0.880398 -0.110415 0.0
0.933916 -0.028850 0.0
0.983238 0.044402 0.0
1.023467 0.104485 0.0
1.053721 0.151935 0.0
1.074037 0.187935 0.0
1.084815 0.213959 0.0
1.086578 0.231717 0.0
1.079849 0.243180 0.0
1.065158 0.250557 0.0
1.043237 0.255980 0.0
1.015393 0.260701 0.0
0.983877 0.264007 0.0
0.951890 0.262660 0.0
0.922987 0.251816 0.0
0.900108 0.227348 0.0
0.884847 0.188056 0.0
0.877441 0.136185 0.0
0.877279 0.076243 0.0
0.883413 0.013412 0.0
0.894530 -0.046913 0.0
0.909012 -0.100547 0.0
0.925292 -0.145331 0.0
0.941972 -0.180537 0.0
0.957895 -0.206418 0.0
0.972227 -0.223835 0.0
0.984532 -0.233914 0.0
0.994832 -0.237699 0.0
1.003614 -0.235863 0.0
1.011740 -0.228536 0.0
1.020252 -0.215356 0.0
1.030108 -0.195763 0.0
1.041934 -0.169440 0.0
1.055881 -0.136731 0.0
1.071602 -0.098875 0.0
1.088321 -0.057986 0.0
1.104909 -0.016832 0.0
1.119856 0.021198 0.0
1.131770 0.053651 0.0
1.139866 0.079384 0.0
1.143810 0.098082 0.0
1.143636 0.110059 0.0
1.139714 0.116014 0.0
1.132738 0.116714 0.0
1.123728 0.112635 0.0
1.114002 0.103791 0.0
1.105176 0.085606 0.0
0.998164 -0.004474 0.0
0.990614 -0.013356 0.0
0.974615 -0.022351 0.0
0.948141 -0.031455 0.0
0.907601 -0.040136 0.0
0.847088 -0.046527 0.0
0.757813 -0.045345 0.0
0.629020 -0.021637 0.0
0.465915 0.065091 0.0
0.189245 0.171109 0.0
0.000000 0.000000 0.0
-0.000000 -0.000000 0.0
0.000000 0.000000 0.0
-0.010977 -0.009341 0.0
-0.044750 0.005013 0.0
-0.107169 0.050161 0.0
-0.180954 0.045712 0.0
-0.236973 -0.013600 0.0
-0.265609 -0.117208 0.0
-0.267327 -0.232008 0.0
-0.248988 -0.324695 0.0
-0.214029 -0.375609 0.0
-0.155317 -0.368249 0.0
-0.058321 -0.295644 0.0
0.064868 -0.171404 0.0
0.187015 -0.043755 0.0
0.292478 0.064775 0.0
0.375953 0.157211 0.0
0.440065 0.238313 0.0
0.484302 0.307827 0.0
0.508068 0.366024 0.0
0.511361 0.413731 0.0
0.496011 0.451434 0.0
0.467587 0.477248 0.0
0.436552 0.484537 0.0
0.416083 0.462767 0.0
0.416248 0.404173 0.0
0.439252 0.311094 0.0
0.480371 0.195623 0.0
0.532440 0.073015 0.0
0.586627 -0.040391 0.0
0.636012 -0.134917 0.0
0.678298 -0.211099 0.0
0.712496 -0.270115 0.0
0.738013 -0.313527 0.0
0.754664 -0.343257 0.0
0.762867 -0.361373 0.0
0.764035 -0.369564 0.0
0.761078 -0.368316 0.0
0.758507 -0.356232 0.0
0.761588 -0.330371 0.0
0.774603 -0.288030 0.0
0.799210 -0.229037 0.0
0.834051 -0.156825 0.0
0.875682 -0.077589 0.0
0.918960 0.000542 0.0
0.958213 0.068863 0.0
0.990175 0.125341 0.0
1.013962 0.170427 0.0
1.029366 0.205285 0.0
1.036482 0.231513 0.0
1.035567 0.251028 0.0
1.027098 0.265869 0.0
1.012002 0.277685 0.0
0.991969 0.286873 0.0
0.969586 0.291734 0.0
0.948024 0.288481 0.0
0.930269 0.272652 0.0
0.918309 0.241350 0.0
0.912853 0.194771 0.0
0.913655 0.136074 0.0
0.920057 0.070113 0.0
0.931185 0.002279 0.0