# vtk DataFile Version 3.0
Scalar Field
ASCII
DATASET RECTILINEAR_GRID
DIMENSIONS 100 26 1
X_COORDINATES 100 double
0.050000 0.150000 0.250000 0.350000 0.450000 0.550000 0.650000 0.750000 0.850000 0.950000 1.050000 1.150000 1.250000 1.350000 1.450000 1.550000 1.650000 1.750000 1.850000 1.950000 2.050000 2.150000 2.250000 2.350000 2.450000 2.550000 2.650000 2.750000 2.850000 2.950000 3.050000 3.150000 3.250000 3.350000 3.450000 3.550000 3.650000 3.750000 3.850000 3.950000 4.050000 4.150000 4.250000 4.350000 4.450000 4.550000 4.650000 4.750000 4.850000 4.950000 5.050000 5.150000 5.250000 5.350000 5.450000 5.550000 5.650000 5.750000 5.850000 5.950000 6.050000 6.150000 6.250000 6.350000 6.450000 6.550000 6.650000 6.750000 6.850000 6.950000 7.050000 7.150000 7.250000 7.350000 7.450000 7.550000 7.650000 7.750000 7.850000 7.950000 8.050000 8.150000 8.250000 8.350000 8.450000 8.550000 8.650000 8.750000 8.850000 8.950000 9.050000 9.150000 9.250000 9.350000 9.450000 9.550000 9.650000 9.750000 9.850000 9.950000 
Y_COORDINATES 26 double
0.050000 0.150000 0.250000 0.350000 0.450000 0.550000 0.650000 0.750000 0.850000 0.950000 1.050000 1.150000 1.250000 1.350000 1.450000 1.550000 1.650000 1.750000 1.850000 1.950000 2.050000 2.150000 2.250000 2.350000 2.450000 2.550000 
Z_COORDINATES 1 double
0.0
POINT_DATA 2600
SCALARS Skalarfeld double 1
LOOKUP_TABLE default
0.290375
0.275142
0.260030
0.241998
0.219900
0.193216
0.161827
0.125999
0.086456
0.044416
0.001516
-0.040436
-0.079753
-0.115085
-0.145533
-0.170129
-0.188315
-0.200097
-0.205733
-0.205726
-0.200786
-0.191770
-0.179595
-0.165152
-0.149227
-0.132445
-0.115253
-0.097936
-0.080667
-0.063575
-0.046824
-0.030680
-0.015542
-0.000995
0.011837
0.022102
0.029339
0.033493
0.035431
0.035277
0.033180
0.029179
0.023210
0.015200
0.005216
-0.006359
-0.018612
-0.029871
-0.037824
-0.040579
-0.038251
-0.031528
-0.023379
-0.014594
-0.005863
0.002306
0.009579
0.015787
0.020885
0.024928
0.028053
0.030405
0.032238
0.033538
0.034143
0.033985
0.033008
0.031247
0.028908
0.026331
0.023818
0.021406
0.018808
0.015598
0.011522
0.006710
0.001648
-0.003035
-0.006839
-0.009545
-0.011200
-0.011987
-0.012094
-0.011722
-0.011090
-0.010398
-0.009836
-0.009543
-0.009612
-0.010104
-0.011098
-0.012678
-0.014902
-0.017790
-0.021297
-0.025315
-0.029682
-0.034201
-0.038660
-0.042994
0.281487
0.275067
0.262959
0.246129
0.224398
0.197505
0.165358
0.128229
0.086918
0.042846
-0.002036
-0.045646
-0.086165
-0.122200
-0.152697
-0.177244
-0.195514
-0.207228
-0.212623
-0.212193
-0.206655
-0.196891
-0.183857
-0.168490
-0.151619
-0.133913
-0.115852
-0.097748
-0.079791
-0.062117
-0.044884
-0.028337
-0.012409
0.001891
0.014027
0.023526
0.030285
0.034403
0.035772
0.035043
0.032459
0.028092
0.021865
0.013669
0.003518
-0.008271
-0.020788
-0.032201
-0.039863
-0.041583
-0.037541
-0.031360
-0.023793
-0.015042
-0.006309
0.001863
0.009127
0.015325
0.020421
0.024482
0.027669
0.030253
0.032293
0.033648
0.034259
0.034175
0.033282
0.031579
0.029287
0.026789
0.024425
0.022197
0.019719
0.016464
0.012124
0.006880
0.001358
-0.003661
-0.007597
-0.010262
-0.011794
-0.012466
-0.012440
-0.011926
-0.011158
-0.010315
-0.009617
-0.009203
-0.009180
-0.009582
-0.010520
-0.012080
-0.014318
-0.017253
-0.020835
-0.024941
-0.029400
-0.034002
-0.038537
-0.043415
0.284495
0.280441
0.270244
0.254470
0.233028
0.205597
0.171944
0.132233
0.087347
0.039083
-0.009851
-0.056747
-0.099568
-0.137039
-0.168435
-0.193404
-0.211894
-0.223493
-0.228388
-0.227026
-0.220113
-0.208562
-0.193402
-0.175665
-0.156295
-0.136077
-0.115613
-0.095331
-0.075524
-0.056404
-0.038161
-0.020992
-0.005378
0.007976
0.018625
0.026249
0.030845
0.032798
0.032103
0.029473
0.025597
0.020596
0.014380
0.006786
-0.002226
-0.012349
-0.022673
-0.031567
-0.037103
-0.038155
-0.035118
-0.029232
-0.021399
-0.013356
-0.005371
0.002257
0.009069
0.014891
0.019670
0.023454
0.026377
0.028632
0.030366
0.031695
0.032623
0.032965
0.032670
0.031704
0.030160
0.028233
0.026120
0.023742
0.020803
0.016982
0.012127
0.006529
0.000847
-0.004168
-0.008018
-0.010609
-0.012125
-0.012776
-0.012786
-0.012302
-0.011487
-0.010441
-0.009510
-0.008829
-0.008518
-0.008767
-0.009702
-0.011352
-0.013704
-0.016737
-0.020360
-0.024424
-0.028745
-0.033120
-0.037342
-0.041045
0.295050
0.291775
0.282643
0.267630
0.246302
0.217967
0.181971
0.138137
0.087355
0.032002
-0.023522
-0.075333
-0.121218
-0.160343
-0.192566
-0.217915
-0.236395
-0.247706
-0.251782
-0.248972
-0.239953
-0.225694
-0.207345
-0.186091
-0.163045
-0.139166
-0.115233
-0.091841
-0.069427
-0.048308
-0.028731
-0.010937
0.004502
0.016906
0.025751
0.030748
0.032036
0.030234
0.026278
0.020640
0.014716
0.008765
0.002692
-0.003726
-0.010621
-0.017815
-0.024663
-0.030093
-0.032978
-0.032719
-0.029499
-0.024035
-0.017153
-0.009669
-0.002207
0.004594
0.010605
0.015707
0.019810
0.022938
0.025201
0.026798
0.027960
0.028888
0.029695
0.030359
0.030775
0.030776
0.030191
0.028953
0.027018
0.024381
0.020950
0.016767
0.011766
0.006310
0.000932
-0.003821
-0.007597
-0.010315
-0.012055
-0.012907
-0.012963
-0.012346
-0.011286
-0.010190
-0.009156
-0.008295
-0.007855
-0.008066
-0.009023
-0.010772
-0.013267
-0.016390
-0.019980
-0.023855
-0.027825
-0.031702
-0.035273
-0.038132
0.311683
0.308818
0.300507
0.286268
0.265151
0.235784
0.196654
0.146741
0.086648
0.019422
-0.046324
-0.104660
-0.153746
-0.194028
-0.226538
-0.251925
-0.270163
-0.280913
-0.283788
-0.278881
-0.266828
-0.248738
-0.225982
-0.199993
-0.172115
-0.143528
-0.115211
-0.087939
-0.062292
-0.038681
-0.017371
0.001461
0.017173
0.028817
0.035623
0.037232
0.033991
0.027004
0.017950
0.008735
0.000268
-0.006655
-0.012287
-0.017038
-0.021255
-0.025018
-0.028058
-0.029831
-0.029777
-0.027618
-0.023494
-0.017866
-0.011324
-0.004470
0.002177
0.008242
0.013485
0.017763
0.021021
0.023265
0.024597
0.025281
0.025646
0.025970
0.026461
0.027170
0.027961
0.028557
0.028637
0.027942
0.026325
0.023728
0.020138
0.015711
0.010510
0.005196
0.000153
-0.004233
-0.007709
-0.010204
-0.011757
-0.012453
-0.012407
-0.011764
-0.010702
-0.009429
-0.008114
-0.007119
-0.006667
-0.006919
-0.007988
-0.009913
-0.012621
-0.015903
-0.019525
-0.023268
-0.026944
-0.030403
-0.033527
-0.036789
0.333624
0.331178
0.323898
0.310926
0.290675
0.260740
0.218041
0.159635
0.084848
-0.003232
-0.084265
-0.149658
-0.200248
-0.239694
-0.271205
-0.296270
-0.314371
-0.324621
-0.326150
-0.318490
-0.302275
-0.278936
-0.250255
-0.218044
-0.183968
-0.149467
-0.115735
-0.083731
-0.054178
-0.027579
-0.004203
0.015942
0.032410
0.043637
0.048365
0.046089
0.037407
0.023971
0.008261
-0.006746
-0.018230
-0.025903
-0.030599
-0.033108
-0.034178
-0.034262
-0.033466
-0.031647
-0.028602
-0.024258
-0.018758
-0.012438
-0.005729
0.000921
0.007126
0.012591
0.017103
0.020502
0.022731
0.023819
0.023947
0.023436
0.022785
0.022269
0.022172
0.022640
0.023561
0.024597
0.025305
0.025270
0.024177
0.021861
0.018320
0.013580
0.008334
0.002951
-0.001973
-0.006090
-0.009189
-0.011233
-0.012292
-0.012497
-0.012003
-0.010983
-0.009614
-0.008089
-0.006619
-0.005477
-0.004923
-0.005187
-0.006419
-0.008622
-0.011647
-0.015231
-0.019080
-0.022927
-0.026567
-0.029864
-0.032774
-0.035999
0.360092
0.358244
0.352580
0.341938
0.324072
0.295199
0.249614
0.180169
0.081570
-0.046000
-0.147569
-0.215840
-0.261795
-0.295682
-0.323903
-0.348831
-0.368417
-0.379428
-0.380223
-0.369361
-0.347742
-0.317510
-0.281157
-0.241051
-0.199256
-0.157503
-0.117221
-0.079561
-0.045418
-0.015431
0.010025
0.030930
0.048176
0.059530
0.062635
0.056897
0.043325
0.024010
0.001805
-0.019874
-0.037538
-0.046881
-0.050704
-0.050849
-0.048692
-0.045168
-0.040751
-0.035594
-0.029717
-0.023166
-0.016093
-0.008765
-0.001516
0.005313
0.011422
0.016577
0.020592
0.023297
0.024555
0.024323
0.022787
0.020398
0.017788
0.015939
0.015032
0.015147
0.016213
0.017792
0.019312
0.020211
0.020034
0.018481
0.015443
0.011029
0.005690
0.000023
-0.005010
-0.009113
-0.011990
-0.013629
-0.014138
-0.013705
-0.012554
-0.010914
-0.009006
-0.007045
-0.005260
-0.003908
-0.003266
-0.003579
-0.004997
-0.007509
-0.010933
-0.014962
-0.019237
-0.023416
-0.027227
-0.030499
-0.033189
-0.035793
0.389969
0.388995
0.385806
0.379127
0.366276
0.342096
0.297163
0.215819
0.076603
-0.131818
-0.250841
-0.303984
-0.331745
-0.352205
-0.373882
-0.399923
-0.426204
-0.442284
-0.444569
-0.430689
-0.402701
-0.364191
-0.318742
-0.269418
-0.218715
-0.168668
-0.120954
-0.076954
-0.037783
-0.004304
0.022840
0.043258
0.057722
0.069713
0.071793
0.063727
0.047441
0.025550
0.000652
-0.024394
-0.046381
-0.062430
-0.067317
-0.066377
-0.062082
-0.055919
-0.048736
-0.040946
-0.032745
-0.024277
-0.015722
-0.007326
0.000625
0.007844
0.014075
0.019103
0.022708
0.024641
0.024655
0.022676
0.018999
0.014346
0.009696
0.005952
0.004022
0.004036
0.005585
0.008031
0.010660
0.012797
0.013884
0.013518
0.011496
0.007861
0.002947
-0.002657
-0.008233
-0.012517
-0.015401
-0.016883
-0.017037
-0.016085
-0.014317
-0.012038
-0.009536
-0.007078
-0.004925
-0.003347
-0.002621
-0.002990
-0.004601
-0.007439
-0.011308
-0.015853
-0.020634
-0.025206
-0.029199
-0.032380
-0.034681
-0.036387
0.421629
0.421814
0.422025
0.421232
0.417007
0.403840
0.369129
0.283923
0.075647
-0.316702
-0.405462
-0.397522
-0.390692
-0.391183
-0.402995
-0.430253
-0.469418
-0.501783
-0.510014
-0.494658
-0.460798
-0.414316
-0.360111
-0.301924
-0.242628
-0.184548
-0.129658
-0.079676
-0.036071
-0.000026
0.027555
0.046016
0.055752
0.059371
0.058947
0.050860
0.037020
0.018865
-0.002207
-0.024444
-0.045494
-0.062668
-0.073692
-0.074562
-0.070331
-0.063484
-0.055188
-0.046092
-0.036567
-0.026878
-0.017286
-0.008074
0.000458
0.008015
0.014330
0.019133
0.022108
0.022875
0.021113
0.016818
0.010555
0.003461
-0.003084
-0.007963
-0.010274
-0.009827
-0.007346
-0.003677
0.000334
0.003930
0.006489
0.007550
0.006843
0.004331
0.000249
-0.004894
-0.010365
-0.015289
-0.018484
-0.020123
-0.020249
-0.019082
-0.016953
-0.014231
-0.011279
-0.008429
-0.005986
-0.004244
-0.003482
-0.003940
-0.005763
-0.008933
-0.013233
-0.018258
-0.023475
-0.028331
-0.032358
-0.035259
-0.036949
-0.037539
0.452920
0.454437
0.458657
0.465233
0.473054
0.478761
0.472134
0.419953
0.175446
-0.659951
-0.582812
-0.450326
-0.416511
-0.403328
-0.406783
-0.433528
-0.478971
-0.530932
-0.555333
-0.542436
-0.506550
-0.456151
-0.397185
-0.333834
-0.269247
-0.206075
-0.146753
-0.093633
-0.049010
-0.014823
0.008158
0.020911
0.025613
0.024630
0.020948
0.016200
0.009250
-0.000223
-0.012244
-0.026353
-0.041348
-0.055319
-0.066118
-0.072098
-0.070658
-0.065227
-0.057754
-0.049013
-0.039510
-0.029646
-0.019798
-0.010345
-0.001666
0.005879
0.011941
0.016144
0.018041
0.017144
0.013144
0.006256
-0.002544
-0.011666
-0.019434
-0.024669
-0.026472
-0.024994
-0.021150
-0.015951
-0.010354
-0.005177
-0.001074
0.001478
0.002181
0.000943
-0.002086
-0.006484
-0.011588
-0.016574
-0.020555
-0.022541
-0.022947
-0.021917
-0.019773
-0.016924
-0.013793
-0.010772
-0.008213
-0.006438
-0.005736
-0.006348
-0.008414
-0.011907
-0.016585
-0.021985
-0.027493
-0.032459
-0.036327
-0.038740
-0.039595
-0.038793
0.481374
0.484157
0.492244
0.506165
0.526785
0.555109
0.591413
0.631170
0.708067
0.024058
-0.506418
-0.430023
-0.420337
-0.412693
-0.415654
-0.437458
-0.476901
-0.523466
-0.559358
-0.556859
-0.523601
-0.475462
-0.418340
-0.356374
-0.292768
-0.230553
-0.172853
-0.122924
-0.083704
-0.056800
-0.041612
-0.035266
-0.033975
-0.034934
-0.033861
-0.031043
-0.028278
-0.026831
-0.027630
-0.031185
-0.037348
-0.045154
-0.052990
-0.059098
-0.062142
-0.060025
-0.054918
-0.048034
-0.039897
-0.031005
-0.021856
-0.012950
-0.004781
0.002179
0.007462
0.010560
0.010896
0.007934
0.001482
-0.007914
-0.018835
-0.029336
-0.037609
-0.042525
-0.043142
-0.040128
-0.034553
-0.027572
-0.020240
-0.013428
-0.007797
-0.003812
-0.001761
-0.001752
-0.003687
-0.007227
-0.011788
-0.016610
-0.020896
-0.023598
-0.024497
-0.023895
-0.022061
-0.019410
-0.016397
-0.013461
-0.010995
-0.009350
-0.008828
-0.009674
-0.012021
-0.015828
-0.020821
-0.026491
-0.032154
-0.037080
-0.040632
-0.042389
-0.042218
-0.039691
0.504655
0.508353
0.519225
0.538387
0.567978
0.611723
0.676083
0.772065
0.906928
0.934621
0.000000
-0.426897
-0.423770
-0.422893
-0.428606
-0.446444
-0.473414
-0.503908
-0.527177
-0.531145
-0.504023
-0.462255
-0.412356
-0.358142
-0.302390
-0.248358
-0.199737
-0.160384
-0.133075
-0.117771
-0.111429
-0.109318
-0.107301
-0.101711
-0.091581
-0.078868
-0.065524
-0.053186
-0.043163
-0.036432
-0.033496
-0.034183
-0.037545
-0.042055
-0.046035
-0.048068
-0.046335
-0.042296
-0.036531
-0.029582
-0.022025
-0.014466
-0.007516
-0.001768
0.002178
0.003675
0.002044
-0.003242
-0.012169
-0.023822
-0.036405
-0.047753
-0.056019
-0.060088
-0.059042
-0.054119
-0.046544
-0.037608
-0.028465
-0.020027
-0.012950
-0.007667
-0.004425
-0.003314
-0.004254
-0.006962
-0.010930
-0.015457
-0.019755
-0.023067
-0.024596
-0.024600
-0.023299
-0.021090
-0.018438
-0.015807
-0.013623
-0.012257
-0.012029
-0.013184
-0.015849
-0.019967
-0.025237
-0.031107
-0.036841
-0.041642
-0.044795
-0.045801
-0.044467
-0.039877
0.521067
0.525145
0.537123
0.558143
0.590253
0.636535
0.700637
0.783809
0.878461
0.962313
0.876503
0.000000
-0.428550
-0.433330
-0.437374
-0.449554
-0.464278
-0.476751
-0.480706
-0.470264
-0.447364
-0.411649
-0.370995
-0.328631
-0.286142
-0.247078
-0.215545
-0.194983
-0.185993
-0.185223
-0.187047
-0.186256
-0.178855
-0.162501
-0.141733
-0.118545
-0.095040
-0.073019
-0.053889
-0.038693
-0.028114
-0.022377
-0.021081
-0.023120
-0.026885
-0.030699
-0.032809
-0.031810
-0.028902
-0.024496
-0.019163
-0.013569
-0.008413
-0.004400
-0.002260
-0.002769
-0.006679
-0.014449
-0.025814
-0.039510
-0.053446
-0.065330
-0.073360
-0.075918
-0.072996
-0.065979
-0.056297
-0.045385
-0.034478
-0.024519
-0.016151
-0.009758
-0.005534
-0.003527
-0.003647
-0.005644
-0.009066
-0.013278
-0.017542
-0.021163
-0.023289
-0.023927
-0.023246
-0.021605
-0.019457
-0.017273
-0.015495
-0.014513
-0.014656
-0.016174
-0.019187
-0.023619
-0.029148
-0.035193
-0.040976
-0.045639
-0.048391
-0.048639
-0.046100
-0.039168
0.529903
0.533816
0.545237
0.564947
0.594156
0.634315
0.686556
0.750022
0.812710
0.831538
0.790692
0.670934
0.000000
-0.439212
-0.445093
-0.452671
-0.458144
-0.451156
-0.429396
-0.398058
-0.364071
-0.330929
-0.297415
-0.266304
-0.240805
-0.222623
-0.215926
-0.221217
-0.234577
-0.248958
-0.257055
-0.254152
-0.235857
-0.209583
-0.178710
-0.145963
-0.113700
-0.083803
-0.057651
-0.036176
-0.019961
-0.009270
-0.003969
-0.003356
-0.006102
-0.010475
-0.014744
-0.017091
-0.017083
-0.015413
-0.012580
-0.009268
-0.006237
-0.004286
-0.004267
-0.007072
-0.013488
-0.023853
-0.037629
-0.053232
-0.068341
-0.080554
-0.088062
-0.088771
-0.083882
-0.074795
-0.063130
-0.050436
-0.038002
-0.026774
-0.017366
-0.010109
-0.005139
-0.002456
-0.001949
-0.003380
-0.006344
-0.010259
-0.014428
-0.018161
-0.020824
-0.021999
-0.021906
-0.020843
-0.019234
-0.017544
-0.016221
-0.015664
-0.016211
-0.018113
-0.021482
-0.026231
-0.032019
-0.038244
-0.044100
-0.048677
-0.051108
-0.050699
-0.047047
-0.037657
0.531462
0.534806
0.544499
0.560937
0.584645
0.615827
0.653307
0.692108
0.719126
0.707737
0.640939
0.551176
0.377722
0.000000
-0.455051
-0.465010
-0.468792
-0.438955
-0.386078
-0.327282
-0.274229
-0.232904
-0.205650
-0.186471
-0.177077
-0.183342
-0.205442
-0.238578
-0.273897
-0.301435
-0.313459
-0.302378
-0.274671
-0.239495
-0.200372
-0.160283
-0.121643
-0.086263
-0.055378
-0.029737
-0.009736
0.004473
0.012960
0.016141
0.014960
0.010914
0.005778
0.001144
-0.001572
-0.002475
-0.002064
-0.001038
-0.000199
-0.000432
-0.002698
-0.007976
-0.017034
-0.030036
-0.046160
-0.063541
-0.079664
-0.092011
-0.098600
-0.097426
-0.090663
-0.079807
-0.066573
-0.052559
-0.039055
-0.026979
-0.016893
-0.009077
-0.003612
-0.000455
0.000518
-0.000465
-0.003038
-0.006670
-0.010705
-0.014474
-0.017420
-0.019040
-0.019439
-0.018879
-0.017759
-0.016531
-0.015641
-0.015493
-0.016431
-0.018703
-0.022416
-0.027473
-0.033523
-0.039955
-0.045942
-0.050540
-0.052815
-0.051976
-0.047480
-0.035810
0.526797
0.529363
0.536716
0.548853
0.565556
0.585903
0.607338
0.624064
0.624887
0.591824
0.506867
0.359605
0.204267
-0.237686
-0.552333
-0.505191
-0.485500
-0.429157
-0.349619
-0.268366
-0.199162
-0.147565
-0.118769
-0.105789
-0.114022
-0.144198
-0.191994
-0.247926
-0.299649
-0.335346
-0.344567
-0.324500
-0.291180
-0.250424
-0.206431
-0.162364
-0.120555
-0.082614
-0.049546
-0.021877
0.000201
0.016687
0.027671
0.033378
0.034348
0.031639
0.026756
0.021235
0.016615
0.013705
0.012085
0.011073
0.009850
0.007468
0.002882
-0.004918
-0.016614
-0.032148
-0.050417
-0.069322
-0.086212
-0.098597
-0.103395
-0.100718
-0.092598
-0.080624
-0.066542
-0.051926
-0.038011
-0.025650
-0.015341
-0.007307
-0.001590
0.001874
0.003212
0.002627
0.000442
-0.002868
-0.006697
-0.010402
-0.013442
-0.015347
-0.016093
-0.015910
-0.015176
-0.014327
-0.013803
-0.014010
-0.015290
-0.017893
-0.021918
-0.027264
-0.033579
-0.040254
-0.046461
-0.051239
-0.053612
-0.052714
-0.047894
-0.034407
0.517333
0.519013
0.523747
0.531242
0.540794
0.550883
0.558489
0.558118
0.540689
0.492674
0.396173
0.226079
-0.070744
-0.679639
-0.599475
-0.498043
-0.447784
-0.385539
-0.305914
-0.224276
-0.153097
-0.097933
-0.061794
-0.052654
-0.072849
-0.119205
-0.182614
-0.250367
-0.308462
-0.343970
-0.342762
-0.320495
-0.285309
-0.243221
-0.198572
-0.154443
-0.112949
-0.075448
-0.042713
-0.015080
0.007419
0.024922
0.037610
0.045640
0.049243
0.048967
0.045823
0.041098
0.035913
0.031894
0.028873
0.026239
0.023216
0.018838
0.012039
0.001851
-0.012249
-0.029955
-0.049918
-0.069859
-0.086997
-0.098588
-0.101675
-0.098241
-0.089617
-0.077471
-0.063499
-0.049176
-0.035630
-0.023616
-0.013559
-0.005640
0.000120
0.003782
0.005453
0.005295
0.003573
0.000699
-0.002781
-0.006265
-0.009230
-0.011230
-0.012155
-0.012207
-0.011738
-0.011168
-0.010927
-0.011418
-0.012981
-0.015861
-0.020155
-0.025765
-0.032348
-0.039313
-0.045853
-0.051018
-0.053827
-0.053372
-0.048887
-0.034936
0.504709
0.505523
0.507739
0.510905
0.514099
0.515626
0.512575
0.500264
0.471679
0.416998
0.323074
0.172257
-0.058466
-0.354213
-0.419598
-0.404355
-0.369489
-0.319493
-0.259259
-0.194769
-0.135352
-0.086745
-0.047716
-0.039934
-0.065437
-0.116308
-0.181034
-0.246517
-0.299254
-0.321123
-0.316240
-0.294171
-0.260993
-0.221850
-0.180609
-0.139996
-0.101831
-0.067243
-0.036846
-0.010881
0.010671
0.027998
0.041362
0.050991
0.057043
0.059730
0.059539
0.057220
0.053504
0.049867
0.046336
0.042658
0.038241
0.032193
0.023507
0.011345
-0.004608
-0.023810
-0.044735
-0.065032
-0.081993
-0.091913
-0.094147
-0.090652
-0.082535
-0.071311
-0.058502
-0.045404
-0.032991
-0.021904
-0.012507
-0.004956
0.000716
0.004539
0.006575
0.006931
0.005808
0.003544
0.000614
-0.002438
-0.005123
-0.007008
-0.007942
-0.008092
-0.007779
-0.007401
-0.007372
-0.008084
-0.009873
-0.012977
-0.017496
-0.023341
-0.030196
-0.037507
-0.044512
-0.050312
-0.053972
-0.054625
-0.051301
-0.039006
0.490527
0.490575
0.490591
0.490085
0.488117
0.483097
0.472527
0.452733
0.418665
0.363891
0.280919
0.162513
0.007261
-0.162540
-0.252106
-0.280999
-0.276080
-0.250306
-0.211701
-0.168083
-0.124821
-0.086718
-0.062262
-0.060656
-0.083502
-0.125909
-0.178656
-0.229782
-0.265237
-0.277712
-0.272550
-0.253753
-0.225827
-0.192780
-0.157751
-0.123010
-0.090087
-0.059935
-0.033080
-0.009750
0.010041
0.026424
0.039622
0.049888
0.057450
0.062508
0.065285
0.065931
0.066062
0.064377
0.061447
0.057592
0.052490
0.045408
0.035500
0.022133
0.005227
-0.014490
-0.035396
-0.055143
-0.070821
-0.079208
-0.081879
-0.079431
-0.072946
-0.063733
-0.053055
-0.041974
-0.031285
-0.021524
-0.013018
-0.005938
-0.000367
0.003661
0.006144
0.007124
0.006739
0.005258
0.003084
0.000691
-0.001482
-0.003029
-0.003813
-0.003948
-0.003710
-0.003465
-0.003604
-0.004499
-0.006471
-0.009753
-0.014451
-0.020501
-0.027629
-0.035343
-0.042954
-0.049649
-0.054598
-0.056957
-0.056139
-0.047998
0.476208
0.475618
0.473829
0.470400
0.464504
0.454804
0.439328
0.415387
0.379593
0.328126
0.257415
0.165701
0.056633
-0.055086
-0.134194
-0.177003
-0.191600
-0.186171
-0.167637
-0.142284
-0.115438
-0.092358
-0.079054
-0.080684
-0.098434
-0.129077
-0.165785
-0.199370
-0.220872
-0.229256
-0.225053
-0.210612
-0.188932
-0.162899
-0.134909
-0.106770
-0.079729
-0.054573
-0.031745
-0.011446
0.006276
0.021477
0.034284
0.044873
0.053434
0.060128
0.065118
0.069482
0.072091
0.072644
0.071397
0.068481
0.063693
0.056526
0.046382
0.032889
0.016183
-0.002888
-0.022717
-0.041064
-0.054483
-0.063224
-0.067181
-0.066812
-0.062962
-0.056631
-0.048769
-0.040180
-0.031487
-0.023154
-0.015515
-0.008812
-0.003215
0.001137
0.004176
0.005875
0.006320
0.005726
0.004437
0.002851
0.001421
0.000365
-0.000155
-0.000200
0.000004
0.000135
-0.000162
-0.001227
-0.003357
-0.006774
-0.011600
-0.017812
-0.025203
-0.033366
-0.041711
-0.049538
-0.056137
-0.061000
-0.063863
-0.062500
0.462938
0.461827
0.458595
0.452918
0.444153
0.431269
0.412812
0.386920
0.351462
0.304352
0.244197
0.171386
0.089832
0.008660
-0.056994
-0.101357
-0.125636
-0.133677
-0.130026
-0.119323
-0.105987
-0.094313
-0.088433
-0.091446
-0.104090
-0.124302
-0.147616
-0.168281
-0.181986
-0.187125
-0.183615
-0.172718
-0.156335
-0.136461
-0.114859
-0.092905
-0.071554
-0.051383
-0.032674
-0.015521
0.000074
0.014124
0.026640
0.037642
0.047187
0.055367
0.062765
0.068745
0.073092
0.075608
0.076238
0.074866
0.071220
0.064916
0.055594
0.043126
0.027808
0.010490
-0.007418
-0.023381
-0.036603
-0.046497
-0.052671
-0.055237
-0.054691
-0.051694
-0.046882
-0.040810
-0.033975
-0.026827
-0.019760
-0.013150
-0.007273
-0.002454
0.001244
0.003706
0.005001
0.005340
0.004987
0.004288
0.003524
0.002953
0.002715
0.002765
0.002918
0.002902
0.002415
0.001167
-0.001102
-0.004603
-0.009482
-0.015788
-0.023406
-0.032041
-0.041222
-0.050421
-0.059063
-0.066875
-0.073900
-0.081398
0.451685
0.450120
0.445698
0.438276
0.427434
0.412440
0.392273
0.365708
0.331472
0.288537
0.236588
0.176680
0.112006
0.048294
-0.006877
-0.049045
-0.077370
-0.093319
-0.099541
-0.099196
-0.095566
-0.091840
-0.090861
-0.094604
-0.103573
-0.116561
-0.130918
-0.143643
-0.151875
-0.154350
-0.150902
-0.142261
-0.129676
-0.114558
-0.098204
-0.081632
-0.065506
-0.050138
-0.035553
-0.021606
-0.008130
0.004926
0.017433
0.029149
0.039882
0.049798
0.058544
0.065974
0.071897
0.076109
0.078434
0.078659
0.076502
0.071675
0.063989
0.053471
0.040463
0.025650
0.010151
-0.005227
-0.019440
-0.031567
-0.040784
-0.046740
-0.049617
-0.049832
-0.047759
-0.043746
-0.038231
-0.031733
-0.024739
-0.017898
-0.011377
-0.005891
-0.001494
0.001764
0.003880
0.004980
0.005331
0.005243
0.004989
0.004781
0.004713
0.004746
0.004731
0.004459
0.003702
0.002237
-0.000146
-0.003647
-0.008450
-0.014742
-0.022515
-0.031759
-0.042050
-0.052689
-0.063268
-0.073737
-0.084520
-0.101164
0.443298
0.441231
0.435676
0.426791
0.414387
0.397974
0.376855
0.350244
0.317423
0.277966
0.232055
0.180848
0.126799
0.073656
0.025803
-0.013599
-0.043284
-0.063599
-0.075976
-0.082465
-0.085370
-0.086973
-0.089254
-0.093556
-0.100279
-0.108786
-0.117728
-0.125164
-0.129421
-0.129673
-0.125823
-0.118402
-0.108344
-0.096728
-0.084550
-0.072559
-0.061154
-0.050367
-0.039902
-0.029248
-0.017891
-0.005603
0.007332
0.020225
0.032531
0.043906
0.054142
0.063083
0.070550
0.076338
0.080230
0.081990
0.081394
0.078290
0.072635
0.064522
0.054207
0.041428
0.026895
0.011105
-0.005154
-0.020462
-0.033187
-0.042359
-0.048034
-0.050689
-0.050553
-0.047737
-0.042746
-0.036328
-0.028695
-0.021384
-0.014662
-0.008504
-0.003431
0.000451
0.003170
0.004869
0.005781
0.006156
0.006226
0.006162
0.006024
0.005793
0.005377
0.004651
0.003492
0.001776
-0.000652
-0.004009
-0.008495
-0.014670
-0.022846
-0.032764
-0.043972
-0.055892
-0.068006
-0.080241
-0.093262
-0.116128
0.438717
0.435775
0.428832
0.418528
0.404842
0.387418
0.365743
0.339307
0.307725
0.270898
0.229216
0.183764
0.136439
0.089855
0.046881
0.009813
-0.020111
-0.042745
-0.058807
-0.069597
-0.076700
-0.081743
-0.086141
-0.090857
-0.096229
-0.102039
-0.107476
-0.111343
-0.112742
-0.111206
-0.106779
-0.099963
-0.091561
-0.082478
-0.073527
-0.065261
-0.057873
-0.051168
-0.044579
-0.037218
-0.028038
-0.016306
-0.002360
0.011851
0.025810
0.038915
0.050808
0.061294
0.070220
0.077405
0.082636
0.085696
0.086443
0.084914
0.081210
0.075314
0.066385
0.055099
0.041077
0.024176
0.005116
-0.013993
-0.030258
-0.041772
-0.048731
-0.052372
-0.053209
-0.050668
-0.044989
-0.038406
-0.031314
-0.023509
-0.016127
-0.009556
-0.004095
0.000158
0.003250
0.005341
0.006636
0.007292
0.007484
0.007351
0.006872
0.006088
0.004985
0.003564
0.001861
-0.000101
-0.002414
-0.005424
-0.009809
-0.015856
-0.023950
-0.034198
-0.046167
-0.059078
-0.072146
-0.085051
-0.098295
-0.120913
0.439595
0.434216
0.425145
0.413301
0.398496
0.380315
0.358267
0.332000
0.301311
0.266266
0.227330
0.185484
0.142260
0.099632
0.059712
0.024286
-0.005515
-0.029331
-0.047489
-0.060822
-0.070434
-0.077531
-0.083178
-0.088110
-0.092709
-0.096851
-0.100047
-0.101685
-0.101256
-0.098544
-0.093705
-0.087242
-0.079887
-0.072440
-0.065589
-0.059759
-0.055016
-0.051049
-0.047219
-0.042558
-0.035596
-0.024387
-0.010286
0.005429
0.021247
0.036105
0.049512
0.061282
0.071311
0.079467
0.085554
0.089362
0.090807
0.090256
0.087584
0.082219
0.074674
0.064398
0.050656
0.032872
0.011500
-0.010944
-0.030254
-0.043130
-0.049578
-0.051856
-0.052189
-0.050296
-0.045918
-0.038971
-0.031268
-0.023375
-0.015916
-0.009304
-0.003791
0.000535
0.003733
0.005985
0.007528
0.008323
0.008477
0.008051
0.007182
0.005853
0.004084
0.001954
-0.000391
-0.002807
-0.005281
-0.008125
-0.012130
-0.017733
-0.025415
-0.035463
-0.047445
-0.060556
-0.073940
-0.087101
-0.100160
-0.115842
0.450407
0.436197
0.424035
0.410840
0.395254
0.376529
0.354248
0.328078
0.297886
0.263796
0.226284
0.186250
0.145032
0.104311
0.065870
0.031271
0.001582
-0.022752
-0.041884
-0.056433
-0.067322
-0.075511
-0.081857
-0.087060
-0.091458
-0.095025
-0.097444
-0.098285
-0.097193
-0.094052
-0.089055
-0.082692
-0.075650
-0.068671
-0.062381
-0.057155
-0.053017
-0.049624
-0.046311
-0.042154
-0.036016
-0.027020
-0.013401
0.003263
0.020208
0.036021
0.050151
0.062437
0.072822
0.081208
0.087421
0.091245
0.092526
0.091169
0.087791
0.082695
0.075461
0.065539
0.052265
0.035143
0.014541
-0.007455
-0.027107
-0.041018
-0.048514
-0.051520
-0.051346
-0.048995
-0.044505
-0.037995
-0.030497
-0.022798
-0.015502
-0.009025
-0.003611
0.000651
0.003809
0.005993
0.007329
0.008099
0.008271
0.007864
0.006935
0.005509
0.003625
0.001372
-0.001114
-0.003721
-0.006496
-0.009681
-0.013608
-0.019232
-0.026996
-0.036817
-0.048407
-0.061128
-0.074289
-0.087453
-0.100598
-0.114700
