# vtk DataFile Version 3.0
Vector Field
ASCII
DATASET RECTILINEAR_GRID
DIMENSIONS 100 26 1
X_COORDINATES 100 double
0.050000 0.150000 0.250000 0.350000 0.450000 0.550000 0.650000 0.750000 0.850000 0.950000 1.050000 1.150000 1.250000 1.350000 1.450000 1.550000 1.650000 1.750000 1.850000 1.950000 2.050000 2.150000 2.250000 2.350000 2.450000 2.550000 2.650000 2.750000 2.850000 2.950000 3.050000 3.150000 3.250000 3.350000 3.450000 3.550000 3.650000 3.750000 3.850000 3.950000 4.050000 4.150000 4.250000 4.350000 4.450000 4.550000 4.650000 4.750000 4.850000 4.950000 5.050000 5.150000 5.250000 5.350000 5.450000 5.550000 5.650000 5.750000 5.850000 5.950000 6.050000 6.150000 6.250000 6.350000 6.450000 6.550000 6.650000 6.750000 6.850000 6.950000 7.050000 7.150000 7.250000 7.350000 7.450000 7.550000 7.650000 7.750000 7.850000 7.950000 8.050000 8.150000 8.250000 8.350000 8.450000 8.550000 8.650000 8.750000 8.850000 8.950000 9.050000 9.150000 9.250000 9.350000 9.450000 9.550000 9.650000 9.750000 9.850000 9.950000 
Y_COORDINATES 26 double
0.050000 0.150000 0.250000 0.350000 0.450000 0.550000 0.650000 0.750000 0.850000 0.950000 1.050000 1.150000 1.250000 1.350000 1.450000 1.550000 1.650000 1.750000 1.850000 1.950000 2.050000 2.150000 2.250000 2.350000 2.450000 2.550000 
Z_COORDINATES 1 double
0.0
POINT_DATA 2600
VECTORS Vektorfeld double
0.997781 0.002219 0.0
0.993452 0.002109 0.0
0.990894 0.000449 0.0
0.992284 -0.001839 0.0
0.998453 -0.004330 0.0
1.009518 -0.006735 0.0
1.025028 -0.008774 0.0
1.043966 -0.010164 0.0
1.064784 -0.010654 0.0
1.085534 -0.010096 0.0
1.104143 -0.008513 0.0
1.118748 -0.006092 0.0
1.127968 -0.003128 0.0
1.131109 -0.000013 0.0
1.128119 0.003002 0.0
1.119283 0.005834 0.0
1.105108 0.008341 0.0
1.086363 0.010404 0.0
1.064031 0.011928 0.0
1.039254 0.012850 0.0
1.013267 0.013137 0.0
0.987335 0.012795 0.0
0.962668 0.011872 0.0
0.940338 0.010458 0.0
0.921183 0.008697 0.0
0.905705 0.006781 0.0
0.893969 0.004955 0.0
0.885511 0.003503 0.0
0.879297 0.002710 0.0
0.873768 0.002818 0.0
0.866995 0.003954 0.0
0.856959 0.006082 0.0
0.841876 0.009002 0.0
0.820459 0.012415 0.0
0.792060 0.015984 0.0
0.756696 0.019381 0.0
0.714994 0.022320 0.0
0.668112 0.024561 0.0
0.617635 0.025916 0.0
0.565475 0.026244 0.0
0.513781 0.025451 0.0
0.464888 0.023442 0.0
0.421492 0.019955 0.0
0.387065 0.014472 0.0
0.365762 0.006831 0.0
0.360010 -0.001079 0.0
0.366815 -0.005726 0.0
0.380385 -0.007844 0.0
0.396778 -0.008549 0.0
0.413738 -0.008412 0.0
0.429901 -0.007751 0.0
0.444407 -0.006756 0.0
0.456713 -0.005551 0.0
0.466494 -0.004229 0.0
0.473611 -0.002888 0.0
0.478131 -0.001632 0.0
0.480287 -0.000523 0.0
0.480033 0.000778 0.0
0.476582 0.002673 0.0
0.468904 0.005006 0.0
0.456409 0.007489 0.0
0.439191 0.009730 0.0
0.418294 0.011167 0.0
0.395837 0.011291 0.0
0.374543 0.010003 0.0
0.356708 0.007831 0.0
0.343205 0.005672 0.0
0.333330 0.004203 0.0
0.325636 0.003491 0.0
0.319023 0.003123 0.0
0.313254 0.002646 0.0
0.308709 0.001898 0.0
0.305784 0.001027 0.0
0.304488 0.000270 0.0
0.304449 -0.000231 0.0
0.305125 -0.000446 0.0
0.306063 -0.000491 0.0
0.306969 -0.000415 0.0
0.307611 -0.000227 0.0
0.307730 0.000109 0.0
0.306943 0.000678 0.0
0.304921 0.001343 0.0
0.301689 0.001889 0.0
0.297672 0.002129 0.0
0.293528 0.002015 0.0
0.289873 0.001641 0.0
0.287009 0.001223 0.0
0.284830 0.000956 0.0
0.282987 0.000887 0.0
0.281167 0.000933 0.0
0.279242 0.000993 0.0
0.277236 0.001013 0.0
0.275250 0.000972 0.0
0.273428 0.000849 0.0
0.271964 0.000614 0.0
0.271101 0.000249 0.0
0.271052 -0.000200 0.0
0.271933 -0.000682 0.0
0.273827 -0.001211 0.0
0.277098 -0.002060 0.0
1.003076 0.001363 0.0
1.012043 -0.001673 0.0
1.026078 -0.007246 0.0
1.044547 -0.014003 0.0
1.067355 -0.021143 0.0
1.094344 -0.027977 0.0
1.125061 -0.033760 0.0
1.158625 -0.037681 0.0
1.193660 -0.038991 0.0
1.228358 -0.037208 0.0
1.260762 -0.032413 0.0
1.289162 -0.025196 0.0
1.312324 -0.016407 0.0
1.329414 -0.006964 0.0
1.339959 0.002399 0.0
1.344029 0.011203 0.0
1.342176 0.019001 0.0
1.335231 0.025433 0.0
1.324239 0.030223 0.0
1.310393 0.033178 0.0
1.294988 0.034201 0.0
1.279343 0.033308 0.0
1.264733 0.030637 0.0
1.252289 0.026467 0.0
1.242905 0.021227 0.0
1.237133 0.015500 0.0
1.235081 0.010025 0.0
1.236308 0.005664 0.0
1.239783 0.003288 0.0
1.243902 0.003651 0.0
1.246630 0.007166 0.0
1.245810 0.013727 0.0
1.239534 0.022716 0.0
1.226446 0.033205 0.0
1.205870 0.044169 0.0
1.177806 0.054624 0.0
1.142871 0.063714 0.0
1.102192 0.070729 0.0
1.057308 0.075110 0.0
1.010087 0.076430 0.0
0.962672 0.074373 0.0
0.917446 0.068638 0.0
0.876817 0.058785 0.0
0.842430 0.044457 0.0
0.813916 0.026662 0.0
0.789757 0.008999 0.0
0.771825 -0.004677 0.0
0.763212 -0.013849 0.0
0.763426 -0.019149 0.0
0.770433 -0.021780 0.0
0.782491 -0.022603 0.0
0.798304 -0.022222 0.0
0.816914 -0.021001 0.0
0.837480 -0.019124 0.0
0.859007 -0.016638 0.0
0.880088 -0.013484 0.0
0.898752 -0.009492 0.0
0.913082 -0.004329 0.0
0.922311 0.002001 0.0
0.926521 0.009146 0.0
0.925813 0.016551 0.0
0.920350 0.023350 0.0
0.910387 0.028406 0.0
0.896027 0.030869 0.0
0.877077 0.030669 0.0
0.853365 0.028712 0.0
0.825340 0.026320 0.0
0.794499 0.024270 0.0
0.763299 0.022317 0.0
0.734615 0.019594 0.0
0.711084 0.015475 0.0
0.694511 0.010186 0.0
0.685459 0.004716 0.0
0.683107 0.000229 0.0
0.685554 -0.002598 0.0
0.690899 -0.004101 0.0
0.697948 -0.004824 0.0
0.705845 -0.004886 0.0
0.713687 -0.004240 0.0
0.720632 -0.002943 0.0
0.726315 -0.001167 0.0
0.730862 0.000664 0.0
0.734496 0.002167 0.0
0.737213 0.003150 0.0
0.738789 0.003561 0.0
0.738956 0.003583 0.0
0.737542 0.003558 0.0
0.734605 0.003736 0.0
0.730453 0.004103 0.0
0.725512 0.004478 0.0
0.720173 0.004712 0.0
0.714714 0.004758 0.0
0.709305 0.004622 0.0
0.704031 0.004296 0.0
0.698927 0.003735 0.0
0.694065 0.002854 0.0
0.689801 0.001508 0.0
0.687034 -0.000504 0.0
0.686739 -0.002987 0.0
0.689326 -0.006143 0.0
1.001986 -0.003699 0.0
1.009131 -0.012722 0.0
1.022209 -0.023309 0.0
1.040698 -0.034898 0.0
1.064462 -0.046819 0.0
1.093387 -0.058215 0.0
1.127105 -0.067958 0.0
1.164732 -0.074672 0.0
1.204664 -0.076966 0.0
1.244514 -0.073781 0.0
1.281586 -0.065317 0.0
1.313691 -0.052797 0.0
1.339501 -0.037779 0.0
1.358489 -0.021670 0.0
1.370696 -0.005648 0.0
1.376533 0.009342 0.0
1.376648 0.022601 0.0
1.371858 0.033567 0.0
1.363135 0.041804 0.0
1.351578 0.046999 0.0
1.338379 0.048985 0.0
1.324775 0.047772 0.0
1.311991 0.043568 0.0
1.301172 0.036799 0.0
1.293326 0.028124 0.0
1.289263 0.018437 0.0
1.289515 0.008888 0.0
1.294218 0.000871 0.0
1.302863 -0.004038 0.0
1.314133 -0.004411 0.0
1.326057 0.000576 0.0
1.336345 0.010849 0.0
1.342808 0.025407 0.0
1.343772 0.042638 0.0
1.338271 0.060814 0.0
1.325997 0.078316 0.0
1.307203 0.093752 0.0
1.282583 0.105990 0.0
1.253173 0.114143 0.0
1.220256 0.117535 0.0
1.185275 0.115665 0.0
1.149679 0.108168 0.0
1.114637 0.094925 0.0
1.080739 0.076601 0.0
1.048309 0.055462 0.0
1.018069 0.034599 0.0
0.990351 0.015374 0.0
0.965834 -0.000772 0.0
0.946635 -0.013241 0.0
0.934058 -0.022118 0.0
0.927911 -0.028176 0.0
0.927650 -0.032201 0.0
0.932715 -0.034697 0.0
0.942569 -0.035849 0.0
0.956691 -0.035562 0.0
0.974566 -0.033516 0.0
0.995716 -0.029273 0.0
1.019489 -0.022651 0.0
1.044536 -0.013953 0.0
1.068986 -0.003560 0.0
1.091126 0.007824 0.0
1.109559 0.019107 0.0
1.123075 0.029096 0.0
1.130469 0.037145 0.0
1.130691 0.043121 0.0
1.123312 0.047351 0.0
1.108799 0.050219 0.0
1.088414 0.051595 0.0
1.063806 0.050801 0.0
1.036488 0.047112 0.0
1.007523 0.040452 0.0
0.977602 0.031704 0.0
0.947553 0.022300 0.0
0.919126 0.013423 0.0
0.895330 0.005557 0.0
0.878978 -0.001248 0.0
0.870680 -0.006427 0.0
0.868996 -0.009495 0.0
0.872143 -0.010619 0.0
0.878857 -0.010222 0.0
0.888017 -0.008732 0.0
0.898326 -0.006627 0.0
0.908456 -0.004307 0.0
0.917398 -0.002035 0.0
0.924563 0.000006 0.0
0.929738 0.001795 0.0
0.933097 0.003402 0.0
0.935106 0.004822 0.0
0.936356 0.005920 0.0
0.937404 0.006554 0.0
0.938683 0.006697 0.0
0.940469 0.006446 0.0
0.942886 0.005927 0.0
0.945913 0.005238 0.0
0.949397 0.004412 0.0
0.953068 0.003369 0.0
0.956481 0.001843 0.0
0.958925 -0.000516 0.0
0.960016 -0.003771 0.0
0.962377 -0.010307 0.0
1.001611 -0.007297 0.0
1.007880 -0.022538 0.0
1.020136 -0.038828 0.0
1.038325 -0.056058 0.0
1.062640 -0.073737 0.0
1.093334 -0.090915 0.0
1.130413 -0.106056 0.0
1.173192 -0.116981 0.0
1.219882 -0.121279 0.0
1.266966 -0.116401 0.0
1.310136 -0.102940 0.0
1.346344 -0.083486 0.0
1.374246 -0.060801 0.0
1.393669 -0.037060 0.0
1.405066 -0.013862 0.0
1.409202 0.007584 0.0
1.407005 0.026440 0.0
1.399498 0.042024 0.0
1.387802 0.053767 0.0
1.373153 0.061243 0.0
1.356880 0.064213 0.0
1.340361 0.062666 0.0
1.324972 0.056847 0.0
1.312032 0.047279 0.0
1.302758 0.034764 0.0
1.298245 0.020374 0.0
1.299449 0.005495 0.0
1.306921 -0.007910 0.0
1.320337 -0.017318 0.0
1.338195 -0.020261 0.0
1.357842 -0.015146 0.0
1.376098 -0.001973 0.0
1.390251 0.017612 0.0
1.398620 0.041100 0.0
1.400488 0.065986 0.0
1.395856 0.090050 0.0
1.385185 0.111484 0.0
1.369178 0.128885 0.0
1.348637 0.141199 0.0
1.324378 0.147655 0.0
1.297170 0.147734 0.0
1.267663 0.141202 0.0
1.236301 0.128297 0.0
1.203367 0.110061 0.0
1.169294 0.088505 0.0
1.135010 0.066079 0.0
1.101885 0.044738 0.0
1.071020 0.025246 0.0
1.042996 0.007964 0.0
1.018934 -0.006684 0.0
1.000196 -0.018723 0.0
0.987236 -0.028433 0.0
0.979909 -0.036204 0.0
0.977907 -0.042194 0.0
0.980920 -0.046351 0.0
0.988819 -0.048501 0.0
1.001788 -0.048407 0.0
1.020315 -0.045818 0.0
1.044942 -0.040461 0.0
1.075684 -0.032244 0.0
1.111335 -0.021283 0.0
1.149130 -0.008014 0.0
1.185033 0.006798 0.0
1.215146 0.021936 0.0
1.237193 0.036060 0.0
1.250386 0.048598 0.0
1.254719 0.059152 0.0
1.250755 0.067011 0.0
1.239368 0.071380 0.0
1.221481 0.071739 0.0
1.198052 0.068218 0.0
1.170310 0.061602 0.0
1.139899 0.052862 0.0
1.108572 0.042615 0.0
1.077532 0.031202 0.0
1.047485 0.019505 0.0
1.019829 0.008773 0.0
0.997022 -0.000203 0.0
0.980965 -0.007002 0.0
0.971639 -0.011227 0.0
0.967707 -0.012955 0.0
0.967583 -0.012589 0.0
0.969738 -0.010629 0.0
0.972740 -0.007657 0.0
0.975422 -0.004220 0.0
0.977069 -0.000801 0.0
0.977532 0.002176 0.0
0.977234 0.004336 0.0
0.976995 0.005395 0.0
0.977777 0.005248 0.0
0.980492 0.004009 0.0
0.985851 0.001989 0.0
0.994249 -0.000430 0.0
1.005662 -0.002846 0.0
1.019602 -0.004929 0.0
1.035143 -0.006501 0.0
1.051024 -0.007582 0.0
1.065917 -0.008429 0.0
1.078696 -0.009728 0.0
1.089011 -0.017026 0.0
1.001425 -0.010333 0.0
1.007127 -0.031473 0.0
1.018646 -0.053668 0.0
1.036373 -0.077134 0.0
1.061025 -0.101628 0.0
1.093531 -0.126224 0.0
1.134706 -0.149000 0.0
1.184528 -0.166639 0.0
1.241521 -0.175304 0.0
1.299835 -0.167774 0.0
1.351519 -0.146422 0.0
1.392426 -0.117119 0.0
1.421920 -0.084564 0.0
1.440841 -0.051640 0.0
1.450331 -0.020168 0.0
1.451584 0.008502 0.0
1.445752 0.033551 0.0
1.433962 0.054210 0.0
1.417472 0.069767 0.0
1.397702 0.079661 0.0
1.376209 0.083561 0.0
1.354628 0.081418 0.0
1.334606 0.073506 0.0
1.317730 0.060436 0.0
1.305474 0.043137 0.0
1.299202 0.022786 0.0
1.300237 0.000844 0.0
1.309611 -0.020104 0.0
1.327373 -0.036302 0.0
1.351977 -0.043740 0.0
1.380137 -0.039473 0.0
1.407254 -0.023017 0.0
1.428777 0.002979 0.0
1.442169 0.033972 0.0
1.447155 0.066260 0.0
1.444541 0.097023 0.0
1.435522 0.124201 0.0
1.421312 0.146384 0.0
1.402923 0.162629 0.0
1.381093 0.172315 0.0
1.356288 0.175087 0.0
1.328748 0.170896 0.0
1.298566 0.160146 0.0
1.265850 0.143861 0.0
1.230964 0.123665 0.0
1.194712 0.101454 0.0
1.158295 0.078905 0.0
1.123063 0.057176 0.0
1.090237 0.036884 0.0
1.060580 0.018114 0.0
1.034619 0.001176 0.0
1.012896 -0.013648 0.0
0.995434 -0.026200 0.0
0.981815 -0.036576 0.0
0.971802 -0.044970 0.0
0.965719 -0.051698 0.0
0.964612 -0.057071 0.0
0.970111 -0.061180 0.0
0.983998 -0.063612 0.0
1.007575 -0.063411 0.0
1.041159 -0.059351 0.0
1.083827 -0.050409 0.0
1.133238 -0.036121 0.0
1.185107 -0.017126 0.0
1.233147 0.005035 0.0
1.271719 0.027859 0.0
1.298775 0.048504 0.0
1.314716 0.065682 0.0
1.320312 0.078499 0.0
1.316429 0.086390 0.0
1.304103 0.089321 0.0
1.284628 0.087717 0.0
1.259551 0.082236 0.0
1.230521 0.073598 0.0
1.199150 0.062629 0.0
1.167012 0.050263 0.0
1.135470 0.037213 0.0
1.105414 0.024221 0.0
1.077603 0.012442 0.0
1.053241 0.003017 0.0
1.033404 -0.003430 0.0
1.018043 -0.006630 0.0
1.006011 -0.006711 0.0
0.995716 -0.004283 0.0
0.985746 -0.000304 0.0
0.975309 0.004073 0.0
0.964449 0.007698 0.0
0.953925 0.009636 0.0
0.944923 0.009336 0.0
0.938752 0.006696 0.0
0.936573 0.002024 0.0
0.939245 -0.004057 0.0
0.947139 -0.010677 0.0
0.960049 -0.016923 0.0
0.977288 -0.022031 0.0
0.997831 -0.025482 0.0
1.020417 -0.027068 0.0
1.043583 -0.027002 0.0
1.065651 -0.026001 0.0
1.083136 -0.028553 0.0
1.001237 -0.012994 0.0
1.006257 -0.039533 0.0
1.016633 -0.067503 0.0
1.033157 -0.097551 0.0
1.057181 -0.129888 0.0
1.090639 -0.163928 0.0
1.135825 -0.197656 0.0
1.194366 -0.226347 0.0
1.267060 -0.245282 0.0
1.342338 -0.231387 0.0
1.403618 -0.195773 0.0
1.447017 -0.152074 0.0
1.475172 -0.107258 0.0
1.491256 -0.063950 0.0
1.497310 -0.023403 0.0
1.494642 0.013154 0.0
1.484253 0.045120 0.0
1.467146 0.071537 0.0
1.444630 0.091447 0.0
1.418298 0.104083 0.0
1.389954 0.108976 0.0
1.361525 0.106013 0.0
1.334966 0.095492 0.0
1.312153 0.078139 0.0
1.294763 0.055080 0.0
1.284185 0.027693 0.0
1.281669 -0.002584 0.0
1.288708 -0.033090 0.0
1.306272 -0.058641 0.0
1.333677 -0.073409 0.0
1.368340 -0.072627 0.0
1.405547 -0.054188 0.0
1.438577 -0.020404 0.0
1.461253 0.021287 0.0
1.471841 0.063370 0.0
1.472142 0.102226 0.0
1.464428 0.135730 0.0
1.450732 0.162762 0.0
1.432573 0.182800 0.0
1.410917 0.195630 0.0
1.386270 0.201224 0.0
1.358805 0.199762 0.0
1.328535 0.191732 0.0
1.295503 0.178023 0.0
1.259988 0.159904 0.0
1.222631 0.138825 0.0
1.184429 0.116154 0.0
1.146599 0.092989 0.0
1.110360 0.070136 0.0
1.076653 0.048227 0.0
1.045797 0.027879 0.0
1.017313 0.009856 0.0
0.990253 -0.005183 0.0
0.963740 -0.017461 0.0
0.937819 -0.028150 0.0
0.914179 -0.038795 0.0
0.895905 -0.050593 0.0
0.886530 -0.063783 0.0
0.888864 -0.077230 0.0
0.904184 -0.088692 0.0
0.932252 -0.095722 0.0
0.971834 -0.096289 0.0
1.021152 -0.088970 0.0
1.078022 -0.073016 0.0
1.139606 -0.048700 0.0
1.201014 -0.018387 0.0
1.254745 0.013962 0.0
1.295325 0.043703 0.0
1.322134 0.068075 0.0
1.336388 0.086444 0.0
1.339367 0.098614 0.0
1.332488 0.104778 0.0
1.317310 0.105429 0.0
1.295477 0.101267 0.0
1.268656 0.093153 0.0
1.238477 0.082055 0.0
1.206464 0.068975 0.0
1.173979 0.055000 0.0
1.142179 0.041274 0.0
1.111812 0.028914 0.0
1.083115 0.019206 0.0
1.055951 0.013258 0.0
1.029928 0.011457 0.0
1.004538 0.013233 0.0
0.979505 0.017183 0.0
0.955123 0.021405 0.0
0.932316 0.024032 0.0
0.912453 0.023690 0.0
0.896986 0.019750 0.0
0.887102 0.012338 0.0
0.883500 0.002162 0.0
0.886312 -0.009679 0.0
0.895115 -0.021752 0.0
0.909081 -0.032724 0.0
0.927187 -0.041573 0.0
0.948326 -0.047622 0.0
0.971330 -0.050519 0.0
0.994878 -0.050264 0.0
1.017337 -0.047264 0.0
1.035335 -0.042774 0.0
1.000963 -0.015195 0.0
1.004911 -0.046299 0.0
1.013258 -0.079460 0.0
1.027083 -0.115943 0.0
1.048343 -0.156780 0.0
1.080207 -0.202358 0.0
1.127299 -0.251504 0.0
1.194774 -0.298516 0.0
1.291286 -0.342319 0.0
1.389572 -0.307914 0.0
1.454179 -0.245133 0.0
1.490028 -0.181963 0.0
1.508979 -0.124475 0.0
1.517947 -0.071785 0.0
1.519118 -0.022795 0.0
1.512408 0.021925 0.0
1.497587 0.061559 0.0
1.475186 0.094605 0.0
1.446412 0.119669 0.0
1.412931 0.135673 0.0
1.376718 0.141942 0.0
1.339938 0.138256 0.0
1.304820 0.124926 0.0
1.273495 0.102843 0.0
1.247760 0.073500 0.0
1.228713 0.038900 0.0
1.216478 0.000960 0.0
1.212088 -0.039283 0.0
1.217928 -0.075852 0.0
1.235882 -0.101557 0.0
1.266725 -0.109985 0.0
1.308981 -0.096292 0.0
1.356998 -0.059346 0.0
1.399917 -0.005365 0.0
1.428342 0.051010 0.0
1.441632 0.100995 0.0
1.443583 0.142723 0.0
1.437260 0.175788 0.0
1.424784 0.200409 0.0
1.407483 0.216977 0.0
1.386104 0.225904 0.0
1.361018 0.227634 0.0
1.332411 0.222738 0.0
1.300465 0.211995 0.0
1.265518 0.196394 0.0
1.228169 0.177040 0.0
1.189297 0.155012 0.0
1.149970 0.131288 0.0
1.111228 0.106819 0.0
1.073700 0.082778 0.0
1.037155 0.060730 0.0
1.000324 0.042321 0.0
0.961491 0.028246 0.0
0.919909 0.017205 0.0
0.877271 0.005742 0.0
0.838144 -0.009920 0.0
0.808664 -0.031715 0.0
0.793636 -0.058258 0.0
0.794370 -0.085822 0.0
0.809387 -0.110437 0.0
0.836381 -0.129037 0.0
0.873353 -0.139528 0.0
0.918811 -0.140506 0.0
0.971536 -0.131074 0.0
1.030229 -0.110919 0.0
1.093181 -0.080528 0.0
1.157580 -0.042027 0.0
1.217301 -0.000608 0.0
1.265132 0.037747 0.0
1.298523 0.069127 0.0
1.318496 0.092978 0.0
1.326443 0.109345 0.0
1.323879 0.118605 0.0
1.312397 0.121405 0.0
1.293622 0.118611 0.0
1.269151 0.111247 0.0
1.240486 0.100461 0.0
1.208962 0.087523 0.0
1.175662 0.073852 0.0
1.141331 0.061035 0.0
1.106378 0.050735 0.0
1.070991 0.044280 0.0
1.035318 0.042130 0.0
0.999729 0.043538 0.0
0.965036 0.046603 0.0
0.932557 0.048847 0.0
0.903941 0.048012 0.0
0.880822 0.042692 0.0
0.864436 0.032602 0.0
0.855371 0.018436 0.0
0.853524 0.001514 0.0
0.858185 -0.016503 0.0
0.868280 -0.033825 0.0
0.882657 -0.048994 0.0
0.900221 -0.060972 0.0
0.919940 -0.069081 0.0
0.940791 -0.072916 0.0
0.961654 -0.072278 0.0
0.981140 -0.067196 0.0
0.996900 -0.056599 0.0
1.000557 -0.016715 0.0
1.002864 -0.051034 0.0
1.007904 -0.088113 0.0
1.016776 -0.129988 0.0
1.031697 -0.178916 0.0
1.056825 -0.237213 0.0
1.099615 -0.306531 0.0
1.171622 -0.382970 0.0
1.301183 -0.483936 0.0
1.420965 -0.384364 0.0
1.462630 -0.274955 0.0
1.467292 -0.192652 0.0
1.463321 -0.128766 0.0
1.460039 -0.073179 0.0
1.456701 -0.019235 0.0
1.448549 0.033228 0.0
1.432427 0.081199 0.0
1.407870 0.121923 0.0
1.375668 0.153328 0.0
1.337253 0.173910 0.0
1.294468 0.182703 0.0
1.249424 0.179319 0.0
1.204337 0.164068 0.0
1.161278 0.138085 0.0
1.121887 0.103384 0.0
1.087059 0.062892 0.0
1.056355 0.019907 0.0
1.028109 -0.025595 0.0
1.006144 -0.073415 0.0
0.999711 -0.115515 0.0
1.015504 -0.142663 0.0
1.055226 -0.145592 0.0
1.115358 -0.118195 0.0
1.187170 -0.061247 0.0
1.253861 0.011775 0.0
1.301846 0.078955 0.0
1.331593 0.133064 0.0
1.348009 0.175354 0.0
1.354115 0.207211 0.0
1.351798 0.229792 0.0
1.342280 0.243987 0.0
1.326399 0.250517 0.0
1.304800 0.250060 0.0
1.278067 0.243352 0.0
1.246837 0.231215 0.0
1.211872 0.214533 0.0
1.174065 0.194198 0.0
1.134317 0.171176 0.0
1.093178 0.146812 0.0
1.050247 0.123243 0.0
1.003827 0.103232 0.0
0.951815 0.088661 0.0
0.894216 0.078338 0.0
0.835454 0.067457 0.0
0.783611 0.049970 0.0
0.746326 0.022266 0.0
0.726840 -0.014935 0.0
0.723821 -0.056990 0.0
0.733824 -0.097828 0.0
0.753515 -0.133139 0.0
0.780672 -0.160486 0.0
0.814120 -0.178499 0.0
0.853362 -0.186235 0.0
0.898205 -0.182914 0.0
0.948422 -0.167988 0.0
1.003449 -0.141438 0.0
1.062126 -0.104193 0.0
1.122437 -0.058474 0.0
1.179799 -0.009580 0.0
1.227430 0.035430 0.0
1.261864 0.072268 0.0
1.283556 0.100416 0.0
1.293601 0.120053 0.0
1.293319 0.131721 0.0
1.284133 0.136256 0.0
1.267480 0.134726 0.0
1.244734 0.128394 0.0
1.217122 0.118725 0.0
1.185660 0.107410 0.0
1.151131 0.096337 0.0
1.114139 0.087378 0.0
1.075265 0.081899 0.0
1.035280 0.080169 0.0
0.995347 0.081021 0.0
0.957086 0.082073 0.0
0.922416 0.080526 0.0
0.893217 0.074148 0.0
0.870928 0.061963 0.0
0.856281 0.044365 0.0
0.849244 0.022774 0.0
0.849159 -0.000893 0.0
0.854936 -0.024535 0.0
0.865321 -0.046273 0.0
0.879120 -0.064722 0.0
0.895255 -0.078943 0.0
0.912757 -0.088331 0.0
0.930722 -0.092482 0.0
0.948229 -0.091080 0.0
0.964231 -0.083884 0.0
0.977234 -0.068674 0.0
1.000011 -0.017283 0.0
1.000084 -0.052846 0.0
1.000435 -0.091693 0.0
1.001728 -0.136572 0.0
1.005586 -0.191110 0.0
1.015807 -0.260368 0.0
1.041151 -0.351511 0.0
1.100977 -0.469824 0.0
1.259885 -0.685553 0.0
1.371006 -0.413650 0.0
1.330329 -0.246657 0.0
1.269331 -0.164613 0.0
1.228310 -0.111813 0.0
1.210031 -0.068569 0.0
1.208329 -0.018805 0.0
1.208991 0.040288 0.0
1.202339 0.096913 0.0
1.186609 0.146496 0.0
1.161341 0.186225 0.0
1.126757 0.214013 0.0
1.083693 0.228450 0.0
1.033389 0.228919 0.0
0.977027 0.215918 0.0
0.914968 0.191352 0.0
0.846590 0.157886 0.0
0.772778 0.117030 0.0
0.700734 0.068518 0.0
0.643334 0.011440 0.0
0.611883 -0.057034 0.0
0.612455 -0.126035 0.0
0.643851 -0.179333 0.0
0.699968 -0.204762 0.0
0.775662 -0.194851 0.0
0.867015 -0.147756 0.0
0.968274 -0.069665 0.0
1.062745 0.017939 0.0
1.134986 0.092092 0.0
1.185861 0.149036 0.0
1.220669 0.192615 0.0
1.242236 0.225137 0.0
1.252358 0.248039 0.0
1.252386 0.262318 0.0
1.243463 0.268781 0.0
1.226636 0.268192 0.0
1.202908 0.261333 0.0
1.173259 0.249029 0.0
1.138554 0.232213 0.0
1.099265 0.212198 0.0
1.055005 0.191189 0.0
1.004379 0.172423 0.0
0.946069 0.158781 0.0
0.881344 0.149847 0.0
0.815973 0.140122 0.0
0.758905 0.121503 0.0
0.717970 0.088701 0.0
0.696273 0.042518 0.0
0.691999 -0.011429 0.0
0.700465 -0.065943 0.0
0.716993 -0.115406 0.0
0.738639 -0.156897 0.0
0.763919 -0.189165 0.0
0.792314 -0.211663 0.0
0.823944 -0.223943 0.0
0.859296 -0.225401 0.0
0.898916 -0.215336 0.0
0.943077 -0.193279 0.0
0.991511 -0.159463 0.0
1.043236 -0.115241 0.0
1.096444 -0.063382 0.0
1.147283 -0.009238 0.0
1.190052 0.039735 0.0
1.221546 0.079764 0.0
1.241786 0.110420 0.0
1.251460 0.131963 0.0
1.251563 0.145098 0.0
1.243225 0.150875 0.0
1.227584 0.150632 0.0
1.205699 0.145984 0.0
1.178500 0.138812 0.0
1.146800 0.131165 0.0
1.111395 0.124948 0.0
1.073237 0.121361 0.0
1.033622 0.120307 0.0
0.994274 0.120165 0.0
0.957241 0.118224 0.0
0.924597 0.111688 0.0
0.898051 0.098731 0.0
0.878643 0.079076 0.0
0.866655 0.053887 0.0
0.861714 0.025230 0.0
0.862981 -0.004532 0.0
0.869334 -0.033027 0.0
0.879551 -0.058384 0.0
0.892461 -0.079319 0.0
0.906999 -0.095019 0.0
0.922232 -0.104991 0.0
0.937350 -0.108906 0.0
0.951628 -0.106441 0.0
0.964362 -0.097260 0.0
0.974654 -0.078593 0.0
0.999380 -0.016674 0.0
0.996838 -0.050985 0.0
0.991558 -0.088626 0.0
0.983244 -0.132617 0.0
0.971704 -0.187383 0.0
0.957551 -0.260163 0.0
0.944569 -0.364078 0.0
0.948414 -0.520928 0.0
1.054482 -0.899425 0.0
1.057145 -0.203855 0.0
0.868721 -0.105960 0.0
0.728639 -0.092545 0.0
0.659707 -0.073929 0.0
0.635806 -0.064274 0.0
0.655216 -0.040808 0.0
0.695634 0.021211 0.0
0.729330 0.088946 0.0
0.748898 0.150625 0.0
0.752388 0.203873 0.0
0.737551 0.245785 0.0
0.702924 0.274368 0.0
0.647598 0.288631 0.0
0.571834 0.288334 0.0
0.479572 0.273257 0.0
0.381826 0.242104 0.0
0.296622 0.191827 0.0
0.243023 0.119365 0.0
0.231648 0.029368 0.0
0.256680 -0.068543 0.0
0.302376 -0.160793 0.0
0.358922 -0.232516 0.0
0.425034 -0.273809 0.0
0.502163 -0.278626 0.0
0.591730 -0.244901 0.0
0.693816 -0.175864 0.0
0.805250 -0.081767 0.0
0.910797 0.014011 0.0
0.994724 0.092316 0.0
1.057023 0.152230 0.0
1.102397 0.198581 0.0
1.133161 0.233709 0.0
1.150856 0.258925 0.0
1.156794 0.275158 0.0
1.152204 0.283233 0.0
1.138235 0.283988 0.0
1.115889 0.278370 0.0
1.085810 0.267656 0.0
1.047971 0.253882 0.0
1.001598 0.240138 0.0
0.946066 0.229633 0.0
0.883039 0.222908 0.0
0.818306 0.215178 0.0
0.760844 0.197623 0.0
0.718809 0.163106 0.0
0.695695 0.111147 0.0
0.689908 0.047558 0.0
0.697071 -0.019358 0.0
0.712406 -0.081814 0.0
0.732194 -0.135851 0.0
0.754131 -0.180035 0.0
0.776967 -0.214142 0.0
0.800274 -0.238388 0.0
0.824334 -0.252909 0.0
0.849991 -0.257445 0.0
0.878382 -0.251302 0.0
0.910547 -0.233641 0.0
0.947040 -0.204028 0.0
0.987661 -0.163023 0.0
1.031398 -0.112544 0.0
1.076450 -0.055968 0.0
1.119201 0.000944 0.0
1.155064 0.051197 0.0
1.181634 0.092177 0.0
1.198632 0.123533 0.0
1.206410 0.145647 0.0
1.205640 0.159435 0.0
1.197125 0.166228 0.0
1.181690 0.167708 0.0
1.160136 0.165841 0.0
1.133278 0.162694 0.0
1.102065 0.160038 0.0
1.067739 0.158755 0.0
1.031947 0.158320 0.0
0.996696 0.156751 0.0
0.964120 0.151248 0.0
0.936116 0.139312 0.0
0.914030 0.119740 0.0
0.898514 0.092992 0.0
0.889588 0.060886 0.0
0.886802 0.025958 0.0
0.889374 -0.009100 0.0
0.896275 -0.041712 0.0
0.906352 -0.069993 0.0
0.918466 -0.092733 0.0
0.931565 -0.109242 0.0
0.944746 -0.119182 0.0
0.957285 -0.122373 0.0
0.968633 -0.118600 0.0
0.978388 -0.107589 0.0
0.986084 -0.086253 0.0
0.998771 -0.014825 0.0
0.993705 -0.045226 0.0
0.982929 -0.078330 0.0
0.964982 -0.116653 0.0
0.937152 -0.163976 0.0
0.894461 -0.226727 0.0
0.827191 -0.317262 0.0
0.716486 -0.460884 0.0
0.323592 -0.782350 0.0
-0.482000 0.283547 0.0
-0.482000 0.000000 0.0
-0.033921 -0.023369 0.0
-0.049730 -0.068915 0.0
0.008020 -0.103137 0.0
0.095732 -0.109068 0.0
0.190980 -0.046197 0.0
0.268339 0.045299 0.0
0.314619 0.128424 0.0
0.334239 0.202964 0.0
0.328662 0.267108 0.0
0.297964 0.318370 0.0
0.244151 0.353767 0.0
0.174220 0.368894 0.0
0.101653 0.357526 0.0
0.043021 0.314211 0.0
0.011209 0.236736 0.0
0.014295 0.124969 0.0
0.049177 0.000256 0.0
0.099567 -0.114853 0.0
0.153377 -0.213989 0.0
0.208362 -0.290850 0.0
0.266195 -0.339421 0.0
0.330722 -0.354671 0.0
0.405962 -0.333664 0.0
0.494227 -0.277452 0.0
0.595021 -0.192407 0.0
0.704361 -0.090236 0.0
0.808412 0.008585 0.0
0.892941 0.089133 0.0
0.957214 0.152030 0.0
1.004982 0.201727 0.0
1.038047 0.240148 0.0
1.057669 0.268374 0.0
1.064979 0.287299 0.0
1.060989 0.297881 0.0
1.046464 0.301348 0.0
1.021706 0.299516 0.0
0.986491 0.295076 0.0
0.940702 0.291107 0.0
0.885971 0.288925 0.0
0.827432 0.285182 0.0
0.773474 0.271596 0.0
0.732535 0.239607 0.0
0.709159 0.186532 0.0
0.702805 0.117188 0.0
0.709804 0.040306 0.0
0.725589 -0.035054 0.0
0.746085 -0.101949 0.0
0.768401 -0.157821 0.0
0.790621 -0.202222 0.0
0.811537 -0.235707 0.0
0.830621 -0.259215 0.0
0.848063 -0.273585 0.0
0.864780 -0.279142 0.0
0.882262 -0.275477 0.0
0.902215 -0.261583 0.0
0.926045 -0.236409 0.0
0.954417 -0.199634 0.0
0.987043 -0.152296 0.0
1.022756 -0.096982 0.0
1.059631 -0.037667 0.0
1.094157 0.019418 0.0
1.122768 0.068776 0.0
1.143862 0.108842 0.0
1.157000 0.139423 0.0
1.162285 0.161144 0.0
1.160109 0.175210 0.0
1.151006 0.183264 0.0
1.135610 0.187235 0.0
1.114702 0.189066 0.0
1.089326 0.190256 0.0
1.060900 0.191288 0.0
1.031235 0.191244 0.0
1.002368 0.187945 0.0
0.976256 0.178742 0.0
0.954446 0.161631 0.0
0.937882 0.136071 0.0
0.926920 0.103138 0.0
0.921475 0.065111 0.0
0.921154 0.024841 0.0
0.925291 -0.014692 0.0
0.932959 -0.050688 0.0
0.943075 -0.081211 0.0
0.954544 -0.105098 0.0
0.966357 -0.121789 0.0
0.977668 -0.131128 0.0
0.987847 -0.133145 0.0
0.996503 -0.127832 0.0
1.003484 -0.115093 0.0
1.008661 -0.091623 0.0
0.998317 -0.011912 0.0
0.991380 -0.036136 0.0
0.976591 -0.061854 0.0
0.951785 -0.090376 0.0
0.912775 -0.123414 0.0
0.851482 -0.163305 0.0
0.751104 -0.213035 0.0
0.571568 -0.274870 0.0
0.227428 -0.335301 0.0
0.000000 0.283547 0.0
-0.000000 -0.000000 0.0
0.000000 0.000000 0.0
-0.043089 -0.043513 0.0
-0.088187 -0.140765 0.0
-0.083831 -0.163508 0.0
-0.064854 -0.105981 0.0
-0.033320 -0.003809 0.0
-0.002013 0.099944 0.0
0.013979 0.195832 0.0
0.011901 0.281896 0.0
-0.007402 0.353583 0.0
-0.038889 0.403854 0.0
-0.073401 0.423250 0.0
-0.099633 0.401970 0.0
-0.106286 0.335051 0.0
-0.087315 0.228736 0.0
-0.039314 0.081882 0.0
0.023704 -0.054556 0.0
0.082880 -0.169608 0.0
0.135591 -0.265756 0.0
0.181731 -0.340208 0.0
0.223833 -0.389999 0.0
0.267082 -0.411869 0.0
0.317994 -0.402617 0.0
0.382029 -0.360800 0.0
0.461232 -0.289056 0.0
0.553337 -0.195032 0.0
0.652636 -0.089969 0.0
0.746651 0.009142 0.0
0.823801 0.090597 0.0
0.883237 0.155955 0.0
0.927472 0.208621 0.0
0.957721 0.250029 0.0
0.974854 0.281201 0.0
0.979545 0.303278 0.0
0.972187 0.317834 0.0
0.952864 0.327110 0.0
0.921770 0.333791 0.0
0.880372 0.339579 0.0
0.832911 0.342645 0.0
0.786713 0.336200 0.0
0.750019 0.311229 0.0
0.728377 0.262555 0.0
0.722685 0.192652 0.0
0.730322 0.109785 0.0
0.747507 0.023524 0.0
0.770211 -0.056762 0.0
0.794947 -0.125474 0.0
0.819382 -0.181048 0.0
0.841858 -0.223689 0.0
0.861232 -0.254530 0.0
0.876895 -0.275138 0.0
0.888859 -0.287069 0.0
0.897882 -0.291399 0.0
0.905495 -0.288316 0.0
0.913790 -0.276993 0.0
0.924934 -0.255974 0.0
0.940534 -0.224040 0.0
0.961178 -0.181159 0.0
0.986347 -0.129001 0.0
1.014647 -0.070823 0.0
1.043867 -0.011172 0.0
1.070852 0.043771 0.0
1.092970 0.090635 0.0
1.109032 0.128431 0.0
1.118562 0.157321 0.0
1.121512 0.178258 0.0
1.118103 0.192727 0.0
1.108783 0.202489 0.0
1.094267 0.209236 0.0
1.075630 0.214099 0.0
1.054350 0.217150 0.0
1.032224 0.217174 0.0
1.011124 0.211982 0.0
0.992679 0.199263 0.0
0.978020 0.177581 0.0
0.967725 0.146980 0.0
0.961938 0.108978 0.0
0.960527 0.066127 0.0
0.963173 0.021502 0.0
0.969285 -0.021602 0.0
0.977981 -0.060144 0.0
0.988247 -0.092137 0.0
0.999078 -0.116471 0.0
1.009569 -0.132719 0.0
1.018984 -0.140923 0.0
1.026820 -0.141363 0.0
1.032844 -0.134294 0.0
1.037115 -0.119882 0.0
1.039784 -0.094679 0.0
0.998104 -0.008333 0.0
0.990324 -0.024999 0.0
0.973865 -0.041743 0.0
0.946657 -0.058473 0.0
0.904973 -0.074624 0.0
0.842585 -0.088413 0.0
0.750010 -0.094973 0.0
0.615881 -0.079267 0.0
0.436741 -0.001890 0.0
0.168247 0.150274 0.0
0.000000 0.000000 0.0
-0.000000 -0.000000 0.0
0.000000 0.000000 0.0
-0.067086 -0.069378 0.0
-0.145803 -0.158242 0.0
-0.164556 -0.111472 0.0
-0.171891 -0.022517 0.0
-0.166855 0.082310 0.0
-0.156750 0.187369 0.0
-0.149838 0.285525 0.0
-0.148216 0.367634 0.0
-0.149206 0.422281 0.0
-0.146927 0.437056 0.0
-0.134108 0.401577 0.0
-0.096838 0.304827 0.0
-0.026367 0.169518 0.0
0.053968 0.012764 0.0
0.122892 -0.117379 0.0
0.181606 -0.224675 0.0
0.229417 -0.311212 0.0
0.265106 -0.376581 0.0
0.290120 -0.420741 0.0
0.308942 -0.443199 0.0
0.328934 -0.442191 0.0
0.358674 -0.415001 0.0
0.404744 -0.360128 0.0
0.468754 -0.280076 0.0
0.546827 -0.182296 0.0
0.631594 -0.077313 0.0
0.711303 0.020193 0.0
0.776912 0.101314 0.0
0.827734 0.168205 0.0
0.864931 0.222999 0.0
0.889066 0.266962 0.0
0.900433 0.301458 0.0
0.899163 0.328282 0.0
0.885542 0.349605 0.0
0.860811 0.367122 0.0
0.828304 0.380153 0.0
0.794026 0.383810 0.0
0.765435 0.369824 0.0
0.748555 0.331180 0.0
0.745630 0.267172 0.0
0.755324 0.184034 0.0
0.774689 0.091401 0.0
0.800431 -0.001019 0.0
0.828875 -0.083366 0.0
0.856913 -0.151643 0.0
0.882619 -0.205021 0.0
0.904637 -0.244210 0.0
0.922046 -0.270793 0.0
0.934326 -0.286818 0.0
0.941407 -0.294435 0.0
0.943822 -0.295470 0.0
0.942871 -0.290906 0.0
0.940653 -0.280480 0.0
0.939760 -0.262738 0.0
0.942641 -0.235758 0.0
0.950888 -0.198331 0.0
0.964828 -0.150939 0.0
0.983613 -0.095971 0.0
1.005598 -0.037228 0.0
1.028265 0.020175 0.0
1.048916 0.071460 0.0