# vtk DataFile Version 3.0
Scalar Field
ASCII
DATASET RECTILINEAR_GRID
DIMENSIONS 100 26 1
X_COORDINATES 100 double
0.050000 0.150000 0.250000 0.350000 0.450000 0.550000 0.650000 0.750000 0.850000 0.950000 1.050000 1.150000 1.250000 1.350000 1.450000 1.550000 1.650000 1.750000 1.850000 1.950000 2.050000 2.150000 2.250000 2.350000 2.450000 2.550000 2.650000 2.750000 2.850000 2.950000 3.050000 3.150000 3.250000 3.350000 3.450000 3.550000 3.650000 3.750000 3.850000 3.950000 4.050000 4.150000 4.250000 4.350000 4.450000 4.550000 4.650000 4.750000 4.850000 4.950000 5.050000 5.150000 5.250000 5.350000 5.450000 5.550000 5.650000 5.750000 5.850000 5.950000 6.050000 6.150000 6.250000 6.350000 6.450000 6.550000 6.650000 6.750000 6.850000 6.950000 7.050000 7.150000 7.250000 7.350000 7.450000 7.550000 7.650000 7.750000 7.850000 7.950000 8.050000 8.150000 8.250000 8.350000 8.450000 8.550000 8.650000 8.750000 8.850000 8.950000 9.050000 9.150000 9.250000 9.350000 9.450000 9.550000 9.650000 9.750000 9.850000 9.950000 
Y_COORDINATES 26 double
0.050000 0.150000 0.250000 0.350000 0.450000 0.550000 0.650000 0.750000 0.850000 0.950000 1.050000 1.150000 1.250000 1.350000 1.450000 1.550000 1.650000 1.750000 1.850000 1.950000 2.050000 2.150000 2.250000 2.350000 2.450000 2.550000 
Z_COORDINATES 1 double
0.0
POINT_DATA 2600
SCALARS Skalarfeld double 1
LOOKUP_TABLE default
0.263426
0.248075
0.232681
0.214228
0.191627
0.164452
0.132733
0.096945
0.058072
0.017617
-0.022523
-0.060362
-0.094169
-0.122726
-0.145185
-0.161053
-0.170620
-0.174470
-0.173395
-0.168307
-0.160160
-0.149891
-0.138375
-0.126392
-0.114602
-0.103513
-0.093449
-0.084523
-0.076646
-0.069600
-0.063158
-0.057202
-0.051789
-0.047147
-0.043608
-0.041495
-0.041005
-0.042094
-0.044409
-0.047265
-0.049655
-0.050235
-0.047516
-0.040958
-0.029506
-0.016243
-0.003048
0.009219
0.020250
0.029977
0.038404
0.045529
0.051339
0.055851
0.059010
0.061010
0.061557
0.060184
0.056418
0.049935
0.040754
0.029491
0.017364
0.005756
-0.004423
-0.012971
-0.020015
-0.025533
-0.029282
-0.031106
-0.031035
-0.029191
-0.026232
-0.022596
-0.018606
-0.014545
-0.010631
-0.007011
-0.003770
-0.000960
0.001380
0.003237
0.004655
0.005752
0.006734
0.007816
0.009146
0.010828
0.012916
0.015420
0.018326
0.021607
0.025255
0.029300
0.033828
0.038756
0.043882
0.048954
0.053719
0.058407
0.254712
0.248164
0.235739
0.218433
0.196118
0.168630
0.136028
0.098793
0.057997
0.015366
-0.026859
-0.066373
-0.101246
-0.130096
-0.152273
-0.167795
-0.176744
-0.179757
-0.177697
-0.171544
-0.162319
-0.151022
-0.138596
-0.125886
-0.113614
-0.102338
-0.092405
-0.083897
-0.076634
-0.070265
-0.064440
-0.058956
-0.053840
-0.049325
-0.045775
-0.043556
-0.042902
-0.043806
-0.045944
-0.048661
-0.050939
-0.051286
-0.047763
-0.038960
-0.028057
-0.015533
-0.002954
0.008853
0.019552
0.029053
0.037349
0.044438
0.050317
0.055046
0.058852
0.061431
0.062107
0.060893
0.057181
0.050599
0.041143
0.029541
0.017171
0.005496
-0.004683
-0.013354
-0.020716
-0.026618
-0.030577
-0.032230
-0.031935
-0.029829
-0.026745
-0.022981
-0.018847
-0.014634
-0.010576
-0.006843
-0.003544
-0.000743
0.001528
0.003277
0.004574
0.005543
0.006447
0.007495
0.008810
0.010492
0.012587
0.015103
0.018018
0.021309
0.024972
0.028999
0.033612
0.038651
0.043892
0.049061
0.053852
0.058670
0.258084
0.253883
0.243315
0.226967
0.204795
0.176570
0.142207
0.102086
0.057383
0.010246
-0.036264
-0.079143
-0.116151
-0.145972
-0.168107
-0.182676
-0.190132
-0.191167
-0.186805
-0.178175
-0.166452
-0.152807
-0.138359
-0.124130
-0.111014
-0.099710
-0.090613
-0.083700
-0.078501
-0.074264
-0.070283
-0.066133
-0.061746
-0.057357
-0.053385
-0.050272
-0.048337
-0.047650
-0.047963
-0.048660
-0.048745
-0.046919
-0.041996
-0.033640
-0.022806
-0.011573
-0.000432
0.010124
0.019778
0.028423
0.036028
0.042573
0.048051
0.052490
0.055943
0.058339
0.059481
0.058393
0.054777
0.048626
0.039883
0.029227
0.017708
0.006442
-0.003893
-0.013080
-0.020976
-0.027185
-0.031168
-0.032639
-0.031779
-0.029847
-0.027095
-0.023352
-0.019156
-0.014845
-0.010678
-0.006856
-0.003530
-0.000792
0.001331
0.002886
0.004006
0.004909
0.005756
0.006721
0.007993
0.009688
0.011833
0.014420
0.017416
0.020799
0.024615
0.029008
0.033806
0.038978
0.044360
0.049678
0.054446
0.057383
0.269231
0.265784
0.256209
0.240493
0.218238
0.188834
0.151762
0.107065
0.055948
0.001216
-0.052302
-0.100311
-0.140241
-0.171039
-0.192627
-0.205501
-0.210431
-0.208332
-0.200420
-0.188010
-0.172488
-0.155255
-0.137668
-0.121001
-0.106417
-0.094923
-0.087027
-0.082547
-0.080701
-0.079916
-0.078861
-0.076772
-0.073461
-0.069194
-0.064487
-0.059902
-0.055873
-0.052588
-0.049926
-0.047441
-0.044412
-0.040016
-0.033662
-0.025333
-0.015658
-0.005539
0.004292
0.013430
0.021763
0.029210
0.035726
0.041274
0.045840
0.049447
0.052142
0.053883
0.054470
0.053520
0.050567
0.045021
0.037001
0.027403
0.016862
0.006325
-0.003573
-0.012450
-0.019980
-0.025776
-0.029503
-0.031109
-0.030850
-0.029140
-0.026049
-0.022400
-0.018540
-0.014424
-0.010391
-0.006684
-0.003502
-0.000973
0.000869
0.002100
0.002896
0.003502
0.004156
0.005084
0.006429
0.008251
0.010580
0.013390
0.016637
0.020293
0.024373
0.028916
0.033892
0.039271
0.044990
0.050927
0.056773
0.061704
0.286726
0.283660
0.274822
0.259731
0.237454
0.206677
0.166003
0.114622
0.053464
-0.013893
-0.078349
-0.133385
-0.176531
-0.207679
-0.227631
-0.237518
-0.238493
-0.231815
-0.218852
-0.201123
-0.180270
-0.157983
-0.135919
-0.115640
-0.098670
-0.086745
-0.080682
-0.080044
-0.083031
-0.087365
-0.090376
-0.090878
-0.088668
-0.084205
-0.078266
-0.071644
-0.064958
-0.058553
-0.052478
-0.046514
-0.040265
-0.033318
-0.025443
-0.016737
-0.007600
0.001452
0.009994
0.017824
0.024906
0.031100
0.036383
0.040712
0.044103
0.046611
0.048357
0.049356
0.049415
0.048161
0.045153
0.040039
0.032891
0.024089
0.014104
0.004253
-0.004915
-0.012981
-0.019612
-0.024541
-0.027617
-0.028871
-0.028501
-0.026796
-0.024039
-0.020619
-0.016683
-0.012746
-0.009055
-0.005657
-0.002816
-0.000685
0.000689
0.001403
0.001683
0.001822
0.002122
0.002844
0.004150
0.006065
0.008576
0.011626
0.015139
0.019051
0.023343
0.028042
0.033203
0.038930
0.045328
0.052470
0.060418
0.071788
0.309849
0.307173
0.299284
0.285306
0.263648
0.231923
0.187132
0.126509
0.049683
-0.039670
-0.120739
-0.184000
-0.229192
-0.258804
-0.275137
-0.280085
-0.275371
-0.262406
-0.242599
-0.217689
-0.189641
-0.160523
-0.132360
-0.107008
-0.086327
-0.073444
-0.069947
-0.075184
-0.086067
-0.097832
-0.106340
-0.109826
-0.108376
-0.102986
-0.094986
-0.085591
-0.075697
-0.065837
-0.056227
-0.046845
-0.037543
-0.028175
-0.018710
-0.009292
-0.000190
0.008296
0.015937
0.022603
0.028210
0.033002
0.036936
0.039882
0.041966
0.043218
0.043937
0.044246
0.043967
0.042673
0.039837
0.035041
0.028201
0.019383
0.009910
0.000431
-0.008171
-0.015443
-0.021068
-0.024914
-0.026982
-0.027407
-0.026419
-0.024306
-0.021363
-0.017892
-0.014146
-0.010419
-0.006864
-0.003815
-0.001406
0.000196
0.000935
0.000930
0.000492
-0.000054
-0.000339
-0.000046
0.001048
0.002859
0.005382
0.008553
0.012265
0.016415
0.020946
0.025868
0.031273
0.037356
0.044419
0.052893
0.063397
0.083155
0.337867
0.335768
0.329427
0.317650
0.298150
0.267122
0.218875
0.146348
0.044478
-0.086359
-0.190671
-0.259379
-0.301782
-0.326002
-0.335858
-0.333652
-0.321723
-0.300771
-0.272208
-0.238058
-0.200731
-0.162812
-0.126841
-0.095091
-0.069069
-0.053832
-0.053040
-0.065923
-0.087796
-0.111218
-0.127534
-0.134199
-0.132883
-0.125578
-0.114555
-0.101648
-0.088087
-0.074586
-0.061481
-0.048876
-0.036768
-0.025155
-0.014102
-0.003763
0.005662
0.013986
0.021070
0.026818
0.031130
0.033905
0.035378
0.036231
0.036881
0.036616
0.036219
0.036041
0.035874
0.035134
0.033116
0.029225
0.023165
0.015045
0.005602
-0.004131
-0.012543
-0.019428
-0.024316
-0.027196
-0.028208
-0.027597
-0.025680
-0.022798
-0.019281
-0.015431
-0.011505
-0.007741
-0.004347
-0.001574
0.000376
0.001360
0.001354
0.000503
-0.000910
-0.002423
-0.003611
-0.004132
-0.003736
-0.002251
0.000149
0.003388
0.007307
0.011742
0.016583
0.021807
0.027508
0.033928
0.041503
0.050932
0.063290
0.088681
0.369703
0.368468
0.364571
0.356684
0.342059
0.315460
0.267385
0.182093
0.038115
-0.177638
-0.304676
-0.362722
-0.390900
-0.404632
-0.405695
-0.396301
-0.376688
-0.346739
-0.307988
-0.262924
-0.214578
-0.166244
-0.121180
-0.082271
-0.051673
-0.031147
-0.031304
-0.050786
-0.083213
-0.119289
-0.148767
-0.159861
-0.158550
-0.148893
-0.134550
-0.118077
-0.101016
-0.084195
-0.068008
-0.052622
-0.038108
-0.024540
-0.012028
-0.000730
0.009184
0.017558
0.024245
0.029064
0.031812
0.032392
0.031044
0.028351
0.025333
0.023454
0.022518
0.022691
0.023492
0.024126
0.023727
0.021547
0.017119
0.010390
0.001834
-0.007622
-0.016868
-0.023773
-0.028346
-0.030663
-0.030909
-0.029410
-0.026574
-0.022825
-0.018558
-0.014115
-0.009777
-0.005782
-0.002353
0.000270
0.001839
0.002166
0.001218
-0.000809
-0.003509
-0.006333
-0.008734
-0.010274
-0.010692
-0.009759
-0.007472
-0.004084
0.000131
0.004933
0.010147
0.015708
0.021684
0.028322
0.036098
0.045811
0.058718
0.084829
0.403746
0.403682
0.403208
0.401236
0.395251
0.379631
0.341614
0.251929
0.037131
-0.370232
-0.475141
-0.476203
-0.474509
-0.476767
-0.472669
-0.460402
-0.435173
-0.397290
-0.348919
-0.293259
-0.234114
-0.175671
-0.122114
-0.077215
-0.044383
-0.021390
-0.019945
-0.040888
-0.075987
-0.116217
-0.152077
-0.175530
-0.175794
-0.165256
-0.149111
-0.130615
-0.111522
-0.092707
-0.074592
-0.057390
-0.041245
-0.026304
-0.012737
-0.000734
0.009503
0.017749
0.023679
0.026846
0.026880
0.023884
0.018687
0.012662
0.007190
0.003966
0.003468
0.004974
0.007584
0.010297
0.012138
0.012268
0.010101
0.005419
-0.001525
-0.009989
-0.018844
-0.026717
-0.031726
-0.033996
-0.034004
-0.032059
-0.028632
-0.024227
-0.019322
-0.014328
-0.009577
-0.005349
-0.001900
0.000496
0.001562
0.001088
-0.000951
-0.004309
-0.008472
-0.012748
-0.016429
-0.018955
-0.020029
-0.019364
-0.016999
-0.013319
-0.008706
-0.003488
0.002101
0.007943
0.014068
0.020683
0.028227
0.037447
0.049499
0.072703
0.437831
0.439134
0.442762
0.448313
0.454603
0.458177
0.448683
0.392601
0.141671
-0.718747
-0.668643
-0.543331
-0.513465
-0.512447
-0.516838
-0.508576
-0.482927
-0.442204
-0.389344
-0.328277
-0.263596
-0.200592
-0.144517
-0.098934
-0.066191
-0.047659
-0.045663
-0.058707
-0.083472
-0.114138
-0.143761
-0.165563
-0.175060
-0.167106
-0.152065
-0.134349
-0.115779
-0.097204
-0.079053
-0.061603
-0.045102
-0.029814
-0.016023
-0.004031
0.005826
0.013112
0.017219
0.017487
0.013661
0.006436
-0.002446
-0.010825
-0.017009
-0.019533
-0.018377
-0.014686
-0.009655
-0.004430
-0.000041
0.002650
0.003008
0.000705
-0.004181
-0.011104
-0.019072
-0.026789
-0.032949
-0.035859
-0.036227
-0.034412
-0.030913
-0.026294
-0.021108
-0.015845
-0.010911
-0.006646
-0.003362
-0.001373
-0.000984
-0.002410
-0.005651
-0.010390
-0.015979
-0.021568
-0.026306
-0.029547
-0.030977
-0.030231
-0.027564
-0.023454
-0.018377
-0.012742
-0.006846
-0.000859
0.005196
0.011463
0.018285
0.026259
0.036291
0.054486
0.469436
0.472064
0.479714
0.492889
0.512415
0.539275
0.573755
0.611291
0.687320
-0.015714
-0.597213
-0.525782
-0.513028
-0.511574
-0.521364
-0.520521
-0.500279
-0.464786
-0.416989
-0.361483
-0.303078
-0.247567
-0.200831
-0.163680
-0.137242
-0.123787
-0.112222
-0.108539
-0.112858
-0.123139
-0.135918
-0.146968
-0.152632
-0.151228
-0.140903
-0.126560
-0.111032
-0.095045
-0.078977
-0.063142
-0.047897
-0.033656
-0.020871
-0.010024
-0.001671
0.003483
0.004587
0.000990
-0.007091
-0.018080
-0.029408
-0.038555
-0.043929
-0.044218
-0.040421
-0.033899
-0.026031
-0.018066
-0.011052
-0.005825
-0.002996
-0.002928
-0.005657
-0.010810
-0.017575
-0.024793
-0.031202
-0.035542
-0.036616
-0.035438
-0.032406
-0.028089
-0.023089
-0.017966
-0.013199
-0.009198
-0.006334
-0.004966
-0.005423
-0.007913
-0.012387
-0.018430
-0.025262
-0.031899
-0.037391
-0.041046
-0.042529
-0.041438
-0.038293
-0.033655
-0.028087
-0.022076
-0.015986
-0.010041
-0.004322
0.001235
0.006852
0.012931
0.020078
0.032094
0.496132
0.499750
0.510389
0.529163
0.558223
0.601360
0.665228
0.761251
0.896198
0.932825
0.000000
-0.516098
-0.506413
-0.497882
-0.497180
-0.496201
-0.482979
-0.456581
-0.421187
-0.381846
-0.344267
-0.311889
-0.285344
-0.262517
-0.242304
-0.222968
-0.199160
-0.175491
-0.155769
-0.141710
-0.132976
-0.128062
-0.124785
-0.121143
-0.115883
-0.107317
-0.096397
-0.084698
-0.072454
-0.059922
-0.047523
-0.035805
-0.025392
-0.016972
-0.011347
-0.009483
-0.012344
-0.020313
-0.032434
-0.046278
-0.058789
-0.067495
-0.070680
-0.067838
-0.060730
-0.050924
-0.039959
-0.029161
-0.019581
-0.011994
-0.006941
-0.004747
-0.005490
-0.008920
-0.014392
-0.020897
-0.027235
-0.032286
-0.034651
-0.034473
-0.032333
-0.028761
-0.024379
-0.019793
-0.015545
-0.012107
-0.009908
-0.009352
-0.010785
-0.014395
-0.020068
-0.027285
-0.035153
-0.042595
-0.048607
-0.052475
-0.053715
-0.052138
-0.048423
-0.043220
-0.037184
-0.030881
-0.024739
-0.019041
-0.013930
-0.009426
-0.005439
-0.001763
0.001911
0.007097
0.516107
0.520184
0.532150
0.553160
0.585309
0.631780
0.696396
0.780785
0.878672
0.969452
0.887864
0.000000
-0.490763
-0.475112
-0.460140
-0.450244
-0.439241
-0.423220
-0.405920
-0.392201
-0.384920
-0.383052
-0.382032
-0.374066
-0.354953
-0.322519
-0.282599
-0.239035
-0.197303
-0.160989
-0.131907
-0.110545
-0.096199
-0.087266
-0.081734
-0.077647
-0.072559
-0.065833
-0.058424
-0.050343
-0.041991
-0.034001
-0.027138
-0.022286
-0.020497
-0.022944
-0.030536
-0.043140
-0.058976
-0.074938
-0.087771
-0.095223
-0.095030
-0.088642
-0.077875
-0.064594
-0.050486
-0.036934
-0.024967
-0.015289
-0.008344
-0.004377
-0.003446
-0.005368
-0.009630
-0.015366
-0.021463
-0.026783
-0.030384
-0.031328
-0.030298
-0.027744
-0.024272
-0.020508
-0.017036
-0.014383
-0.013031
-0.013422
-0.015911
-0.020654
-0.027465
-0.035732
-0.044478
-0.052562
-0.058947
-0.062929
-0.063667
-0.061580
-0.057303
-0.051589
-0.045182
-0.038722
-0.032701
-0.027457
-0.023196
-0.020025
-0.017978
-0.017040
-0.017168
-0.019102
0.528522
0.532511
0.544129
0.564180
0.593938
0.634961
0.688637
0.754316
0.819594
0.843454
0.806275
0.693451
0.000000
-0.448510
-0.421907
-0.400288
-0.388867
-0.381516
-0.381887
-0.394428
-0.418435
-0.446794
-0.469797
-0.473745
-0.447997
-0.401815
-0.344646
-0.283402
-0.224026
-0.170779
-0.126249
-0.091712
-0.067309
-0.052097
-0.044179
-0.041081
-0.040303
-0.038896
-0.036630
-0.033447
-0.029733
-0.026176
-0.023659
-0.023264
-0.026274
-0.033961
-0.046958
-0.064429
-0.083785
-0.101432
-0.114037
-0.119370
-0.115397
-0.105152
-0.090705
-0.074107
-0.057130
-0.041157
-0.027165
-0.015769
-0.007313
-0.001945
0.000323
-0.000349
-0.003549
-0.008545
-0.014331
-0.019819
-0.024092
-0.026165
-0.026268
-0.024806
-0.022352
-0.019535
-0.016965
-0.015211
-0.014798
-0.016200
-0.019770
-0.025623
-0.033501
-0.042716
-0.052227
-0.060846
-0.067494
-0.071420
-0.071693
-0.069123
-0.064399
-0.058343
-0.051763
-0.045356
-0.039662
-0.035071
-0.031849
-0.030184
-0.030231
-0.032150
-0.036132
-0.045115
0.533548
0.537021
0.547054
0.564100
0.588754
0.621336
0.660743
0.702126
0.732473
0.725566
0.664070
0.580627
0.418463
0.000000
-0.387207
-0.352507
-0.345252
-0.343135
-0.355481
-0.387727
-0.437954
-0.494038
-0.535489
-0.540795
-0.503707
-0.445631
-0.375684
-0.301975
-0.230914
-0.166948
-0.112758
-0.069671
-0.037996
-0.017184
-0.005840
-0.001789
-0.002420
-0.005355
-0.007654
-0.009071
-0.009944
-0.011022
-0.013304
-0.018058
-0.026717
-0.040451
-0.059366
-0.081811
-0.104487
-0.123486
-0.135639
-0.137445
-0.129747
-0.115922
-0.098282
-0.078984
-0.059804
-0.042057
-0.026626
-0.014024
-0.004489
0.001912
0.005224
0.005591
0.003345
-0.000912
-0.006294
-0.011775
-0.016427
-0.019412
-0.020470
-0.019994
-0.018502
-0.016607
-0.014934
-0.014083
-0.014616
-0.017022
-0.021642
-0.028542
-0.037398
-0.047455
-0.057628
-0.066694
-0.073534
-0.077295
-0.077136
-0.074264
-0.069356
-0.063260
-0.056813
-0.050740
-0.045612
-0.041852
-0.039780
-0.039660
-0.041760
-0.046395
-0.053969
-0.069494
0.532145
0.534887
0.542720
0.555680
0.573615
0.595690
0.619436
0.639160
0.643809
0.615625
0.537141
0.400033
0.256299
-0.151267
-0.381140
-0.324193
-0.309842
-0.307590
-0.328687
-0.376137
-0.443856
-0.514680
-0.562716
-0.556845
-0.515511
-0.451583
-0.375872
-0.297051
-0.221482
-0.153345
-0.095031
-0.047655
-0.011497
0.013768
0.029043
0.035835
0.036208
0.032421
0.026584
0.021523
0.016648
0.011102
0.003805
-0.006596
-0.021491
-0.041674
-0.066529
-0.093604
-0.119046
-0.138702
-0.149167
-0.147060
-0.136403
-0.119916
-0.100137
-0.079233
-0.058890
-0.040299
-0.024213
-0.011032
-0.000904
0.006175
0.010286
0.011563
0.010256
0.006833
0.002039
-0.003189
-0.007924
-0.011472
-0.013254
-0.013557
-0.012858
-0.011754
-0.010879
-0.010856
-0.012270
-0.015614
-0.021201
-0.029041
-0.038744
-0.049504
-0.060204
-0.069613
-0.076663
-0.079755
-0.079600
-0.076803
-0.072113
-0.066390
-0.060465
-0.055055
-0.050733
-0.047938
-0.047028
-0.048335
-0.052224
-0.059150
-0.069702
-0.090720
0.525664
0.527551
0.532848
0.541297
0.552254
0.564270
0.574411
0.577288
0.563974
0.521212
0.431846
0.273100
-0.002632
-0.558834
-0.438087
-0.323655
-0.288091
-0.286755
-0.314773
-0.368740
-0.439608
-0.509343
-0.543730
-0.530613
-0.487561
-0.424464
-0.351030
-0.275127
-0.202411
-0.136500
-0.079371
-0.031835
0.006003
0.034370
0.053672
0.064666
0.068578
0.066975
0.061265
0.054483
0.046758
0.037272
0.025091
0.009016
-0.012013
-0.038179
-0.068102
-0.098692
-0.125788
-0.145364
-0.152453
-0.147334
-0.134684
-0.116962
-0.096576
-0.075528
-0.055320
-0.036973
-0.021100
-0.008004
0.002234
0.009659
0.014369
0.016478
0.016162
0.013756
0.009838
0.005209
0.000729
-0.002923
-0.005114
-0.005921
-0.005786
-0.005288
-0.005061
-0.005744
-0.007931
-0.012102
-0.018526
-0.027149
-0.037521
-0.048796
-0.059835
-0.069386
-0.076291
-0.079213
-0.079315
-0.077007
-0.073002
-0.068113
-0.063118
-0.058689
-0.055367
-0.053588
-0.053732
-0.056179
-0.061373
-0.069880
-0.082437
-0.107271
0.515683
0.516720
0.519537
0.523716
0.528382
0.531902
0.531437
0.522398
0.497905
0.448376
0.361231
0.220365
0.006381
-0.258779
-0.300131
-0.280683
-0.271318
-0.280774
-0.311233
-0.360880
-0.420339
-0.469891
-0.484716
-0.469716
-0.430607
-0.375105
-0.310863
-0.244237
-0.179893
-0.120879
-0.068905
-0.024685
0.011727
0.040642
0.062475
0.077537
0.086084
0.088878
0.087459
0.082820
0.074236
0.062006
0.045845
0.025058
-0.000834
-0.031312
-0.064343
-0.096430
-0.123244
-0.140591
-0.143807
-0.137779
-0.125021
-0.107986
-0.088828
-0.069258
-0.050528
-0.033476
-0.018603
-0.006156
0.003802
0.011313
0.016463
0.019344
0.020071
0.018864
0.016137
0.012520
0.008749
0.005449
0.003288
0.002303
0.002127
0.002222
0.001966
0.000716
-0.002112
-0.006969
-0.014063
-0.023275
-0.034099
-0.045664
-0.056844
-0.066439
-0.072747
-0.076144
-0.076935
-0.075574
-0.072719
-0.069091
-0.065372
-0.062151
-0.059917
-0.059084
-0.060035
-0.063179
-0.069009
-0.078155
-0.091447
-0.117782
0.503779
0.504051
0.504670
0.505174
0.504659
0.501578
0.493487
0.476770
0.446453
0.396223
0.318809
0.207455
0.061580
-0.095042
-0.176163
-0.210517
-0.232065
-0.256554
-0.289905
-0.331391
-0.373319
-0.400362
-0.407757
-0.394354
-0.362960
-0.318597
-0.266700
-0.212058
-0.158381
-0.108226
-0.063145
-0.023894
0.009337
0.036708
0.058539
0.075140
0.086759
0.094383
0.100221
0.099101
0.091634
0.078751
0.060797
0.037656
0.009517
-0.022440
-0.055723
-0.086722
-0.111361
-0.123733
-0.125711
-0.120272
-0.109402
-0.095066
-0.078936
-0.062324
-0.046203
-0.031254
-0.017918
-0.006450
0.003036
0.010520
0.016038
0.019643
0.021408
0.021477
0.020137
0.017857
0.015228
0.012789
0.011149
0.010329
0.010099
0.009995
0.009420
0.007748
0.004419
-0.000967
-0.008548
-0.018130
-0.029163
-0.040771
-0.051871
-0.061044
-0.067552
-0.071674
-0.073532
-0.073521
-0.072188
-0.070119
-0.067867
-0.065918
-0.064695
-0.064582
-0.065958
-0.069243
-0.074940
-0.083672
-0.096273
-0.121338
0.491368
0.490993
0.489782
0.487314
0.482783
0.474880
0.461656
0.440435
0.407836
0.360020
0.293361
0.205979
0.101213
-0.006930
-0.087103
-0.140650
-0.179768
-0.214100
-0.248409
-0.282594
-0.311930
-0.329911
-0.334466
-0.324235
-0.300688
-0.266950
-0.226710
-0.183450
-0.140035
-0.098576
-0.060459
-0.026460
0.003113
0.028277
0.049249
0.066343
0.079921
0.091256
0.098373
0.099801
0.095133
0.084368
0.067662
0.045362
0.018318
-0.011747
-0.042094
-0.069298
-0.088602
-0.098126
-0.100791
-0.097887
-0.090850
-0.080966
-0.069295
-0.056700
-0.043891
-0.031446
-0.019817
-0.009345
-0.000261
0.007291
0.013249
0.017593
0.020369
0.021675
0.021721
0.020862
0.019591
0.018536
0.017706
0.017332
0.017286
0.017173
0.016436
0.014480
0.010784
0.005017
-0.002871
-0.012599
-0.023601
-0.035003
-0.045694
-0.054766
-0.061937
-0.067090
-0.070324
-0.071929
-0.072304
-0.071874
-0.071050
-0.070216
-0.069734
-0.069965
-0.071289
-0.074127
-0.078965
-0.086300
-0.096876
-0.117869
0.479651
0.478739
0.476043
0.471247
0.463719
0.452434
0.435931
0.412322
0.379412
0.334999
0.277475
0.206859
0.126425
0.044190
-0.026836
-0.083475
-0.128961
-0.167531
-0.201789
-0.231846
-0.255469
-0.270089
-0.274168
-0.267135
-0.249951
-0.224668
-0.193826
-0.159953
-0.125236
-0.091373
-0.059542
-0.030459
-0.004465
0.018379
0.038193
0.055204
0.069855
0.081733
0.089805
0.093107
0.090994
0.083146
0.069550
0.050648
0.027553
0.002211
-0.022655
-0.043906
-0.058712
-0.068252
-0.073198
-0.074413
-0.072639
-0.068376
-0.061997
-0.053898
-0.044574
-0.034572
-0.024433
-0.014659
-0.005655
0.002251
0.008870
0.014053
0.017859
0.020345
0.021769
0.022407
0.022580
0.022540
0.022565
0.022790
0.023090
0.023105
0.022319
0.020173
0.016199
0.010156
0.002098
-0.007557
-0.018329
-0.029296
-0.039787
-0.049199
-0.057206
-0.063607
-0.068367
-0.071624
-0.073617
-0.074620
-0.074917
-0.074818
-0.074643
-0.074769
-0.075564
-0.077424
-0.080811
-0.086108
-0.093683
-0.108350
0.469622
0.468238
0.464298
0.457664
0.447913
0.434299
0.415770
0.391037
0.358717
0.317602
0.267093
0.207806
0.142280
0.075293
0.013158
-0.040987
-0.087151
-0.126596
-0.160314
-0.188306
-0.209596
-0.222963
-0.227479
-0.223103
-0.210652
-0.191627
-0.167888
-0.141327
-0.113626
-0.086119
-0.059747
-0.035090
-0.012426
0.008178
0.026780
0.043462
0.058318
0.070598
0.079680
0.084798
0.085289
0.080741
0.071108
0.056872
0.039173
0.019807
0.001025
-0.015187
-0.028482
-0.038919
-0.046977
-0.053076
-0.057251
-0.059131
-0.058274
-0.054579
-0.048393
-0.040343
-0.031134
-0.021522
-0.012116
-0.003513
0.004086
0.010365
0.015320
0.019024
0.021585
0.023276
0.024409
0.025262
0.026051
0.026843
0.027496
0.027653
0.026824
0.024482
0.020212
0.013898
0.005670
-0.003934
-0.014330
-0.024969
-0.035369
-0.045271
-0.054295
-0.062023
-0.068198
-0.072814
-0.076010
-0.077953
-0.078823
-0.078967
-0.078603
-0.078154
-0.078273
-0.079115
-0.080887
-0.083864
-0.088095
-0.095184
0.462160
0.460255
0.455130
0.446940
0.435482
0.420239
0.400461
0.375273
0.343814
0.305449
0.260052
0.208354
0.152240
0.094751
0.039499
-0.011002
-0.055720
-0.094508
-0.127395
-0.154161
-0.174378
-0.187204
-0.192294
-0.189897
-0.180809
-0.166274
-0.147775
-0.126805
-0.104687
-0.082449
-0.060791
-0.040098
-0.020509
-0.001998
0.015522
0.032018
0.047071
0.060060
0.070432
0.077514
0.080673
0.079482
0.073886
0.064358
0.051943
0.038076
0.023899
0.010468
-0.001818
-0.013296
-0.024459
-0.035474
-0.045738
-0.053848
-0.058279
-0.058353
-0.054461
-0.047514
-0.038424
-0.028412
-0.018009
-0.008449
0.000047
0.007393
0.013367
0.018022
0.021506
0.024064
0.025991
0.027553
0.028924
0.030137
0.031037
0.031233
0.030253
0.027575
0.022785
0.015744
0.007065
-0.002585
-0.012463
-0.022543
-0.032881
-0.043359
-0.053437
-0.062340
-0.069498
-0.074821
-0.078524
-0.080809
-0.081534
-0.081303
-0.080858
-0.080197
-0.079485
-0.079211
-0.079585
-0.080632
-0.082032
-0.082356
0.458239
0.455442
0.448882
0.439189
0.426325
0.409890
0.389305
0.363957
0.333301
0.297013
0.255179
0.208491
0.158376
0.106935
0.056574
0.009311
-0.033529
-0.071179
-0.103125
-0.128972
-0.148455
-0.160934
-0.166435
-0.165379
-0.158591
-0.147203
-0.132497
-0.115728
-0.097964
-0.079996
-0.062304
-0.045085
-0.028309
-0.011773
0.004838
0.021432
0.037024
0.051139
0.063108
0.072225
0.077855
0.079566
0.077290
0.071508
0.063241
0.053326
0.042204
0.031050
0.019638
0.007367
-0.006402
-0.021807
-0.037801
-0.051847
-0.060903
-0.063489
-0.060544
-0.053819
-0.043733
-0.033081
-0.022431
-0.011894
-0.002356
0.005877
0.012668
0.018061
0.022215
0.025378
0.027846
0.029900
0.031668
0.033160
0.034236
0.034315
0.032827
0.029253
0.023330
0.015393
0.006202
-0.003353
-0.012740
-0.022174
-0.032180
-0.042903
-0.053704
-0.063410
-0.071019
-0.076251
-0.079403
-0.081458
-0.082576
-0.082510
-0.081560
-0.080337
-0.079124
-0.078202
-0.077714
-0.077587
-0.077387
-0.074070
0.459538
0.454292
0.445567
0.434272
0.420192
0.402862
0.381721
0.356301
0.326235
0.291359
0.251844
0.208312
0.161898
0.114200
0.067047
0.022153
-0.019108
-0.055707
-0.086758
-0.111976
-0.130876
-0.143122
-0.148891
-0.148710
-0.143423
-0.134107
-0.121926
-0.107986
-0.093195
-0.078189
-0.063309
-0.048641
-0.034099
-0.019414
-0.003905
0.012624
0.029084
0.044667
0.058388
0.069395
0.077009
0.080782
0.080628
0.077104
0.071415
0.063340
0.054440
0.044767
0.033931
0.021243
0.005985
-0.012101
-0.032005
-0.050630
-0.063377
-0.067051
-0.062733
-0.055603
-0.046711
-0.035490
-0.023882
-0.012730
-0.002642
0.006069
0.013292
0.019068
0.023551
0.026976
0.029650
0.031960
0.033937
0.035479
0.036248
0.035983
0.034093
0.029952
0.023250
0.014337
0.004259
-0.005702
-0.014840
-0.023491
-0.032555
-0.042531
-0.052966
-0.062691
-0.070571
-0.076127
-0.079652
-0.081462
-0.082177
-0.081967
-0.081017
-0.079698
-0.078318
-0.077128
-0.076262
-0.075682
-0.075192
-0.072972
0.470556
0.456474
0.444641
0.431957
0.417035
0.399084
0.377611
0.352167
0.322449
0.288355
0.250067
0.208146
0.163573
0.117713
0.072157
0.028481
-0.011950
-0.048104
-0.079320
-0.104562
-0.123291
-0.135497
-0.141434
-0.141663
-0.137021
-0.128547
-0.117345
-0.104451
-0.090713
-0.076715
-0.062762
-0.048918
-0.035091
-0.021121
-0.006886
0.008385
0.025333
0.041974
0.056823
0.068847
0.077341
0.081871
0.082324
0.079015
0.072589
0.065206
0.056979
0.047818
0.037310
0.024819
0.009744
-0.008051
-0.027611
-0.046242
-0.059865
-0.065414
-0.063480
-0.055640
-0.045876
-0.034771
-0.023255
-0.012156
-0.002068
0.006677
0.013955
0.019793
0.024321
0.027751
0.030349
0.032329
0.034057
0.035396
0.036004
0.035499
0.033379
0.029138
0.022522
0.013803
0.003855
-0.006185
-0.015588
-0.024455
-0.033419
-0.042892
-0.052593
-0.061678
-0.069270
-0.074926
-0.078764
-0.080847
-0.081623
-0.081446
-0.080566
-0.079290
-0.077916
-0.076689
-0.075759
-0.075153
-0.074744
-0.074031
