# vtk DataFile Version 3.0
Vector Field
ASCII
DATASET RECTILINEAR_GRID
DIMENSIONS 100 26 1
X_COORDINATES 100 double
0.050000 0.150000 0.250000 0.350000 0.450000 0.550000 0.650000 0.750000 0.850000 0.950000 1.050000 1.150000 1.250000 1.350000 1.450000 1.550000 1.650000 1.750000 1.850000 1.950000 2.050000 2.150000 2.250000 2.350000 2.450000 2.550000 2.650000 2.750000 2.850000 2.950000 3.050000 3.150000 3.250000 3.350000 3.450000 3.550000 3.650000 3.750000 3.850000 3.950000 4.050000 4.150000 4.250000 4.350000 4.450000 4.550000 4.650000 4.750000 4.850000 4.950000 5.050000 5.150000 5.250000 5.350000 5.450000 5.550000 5.650000 5.750000 5.850000 5.950000 6.050000 6.150000 6.250000 6.350000 6.450000 6.550000 6.650000 6.750000 6.850000 6.950000 7.050000 7.150000 7.250000 7.350000 7.450000 7.550000 7.650000 7.750000 7.850000 7.950000 8.050000 8.150000 8.250000 8.350000 8.450000 8.550000 8.650000 8.750000 8.850000 8.950000 9.050000 9.150000 9.250000 9.350000 9.450000 9.550000 9.650000 9.750000 9.850000 9.950000 
Y_COORDINATES 26 double
0.050000 0.150000 0.250000 0.350000 0.450000 0.550000 0.650000 0.750000 0.850000 0.950000 1.050000 1.150000 1.250000 1.350000 1.450000 1.550000 1.650000 1.750000 1.850000 1.950000 2.050000 2.150000 2.250000 2.350000 2.450000 2.550000 
Z_COORDINATES 1 double
0.0
POINT_DATA 2600
VECTORS Vektorfeld double
0.997764 0.002236 0.0
0.993355 0.002174 0.0
0.990602 0.000580 0.0
0.991650 -0.001628 0.0
0.997306 -0.004029 0.0
1.007675 -0.006340 0.0
1.022303 -0.008289 0.0
1.040197 -0.009605 0.0
1.059853 -0.010050 0.0
1.079395 -0.009492 0.0
1.096858 -0.007970 0.0
1.110514 -0.005686 0.0
1.119137 -0.002938 0.0
1.122169 -0.000094 0.0
1.119694 0.002569 0.0
1.112157 0.004967 0.0
1.100216 0.006974 0.0
1.084748 0.008495 0.0
1.066781 0.009473 0.0
1.047422 0.009886 0.0
1.027787 0.009749 0.0
1.008915 0.009123 0.0
0.991668 0.008124 0.0
0.976627 0.006917 0.0
0.963988 0.005722 0.0
0.953465 0.004801 0.0
0.944242 0.004422 0.0
0.935010 0.004810 0.0
0.924122 0.006078 0.0
0.909854 0.008190 0.0
0.890694 0.010971 0.0
0.865566 0.014157 0.0
0.833958 0.017450 0.0
0.795950 0.020558 0.0
0.752167 0.023225 0.0
0.703705 0.025237 0.0
0.652046 0.026422 0.0
0.598973 0.026652 0.0
0.546483 0.025837 0.0
0.496715 0.023930 0.0
0.451939 0.020846 0.0
0.414810 0.016283 0.0
0.388760 0.009767 0.0
0.377219 0.001775 0.0
0.379803 -0.004359 0.0
0.391700 -0.007539 0.0
0.408084 -0.008846 0.0
0.425962 -0.009032 0.0
0.443541 -0.008547 0.0
0.459731 -0.007643 0.0
0.473835 -0.006461 0.0
0.485388 -0.005091 0.0
0.494103 -0.003624 0.0
0.499905 -0.002179 0.0
0.502930 -0.000846 0.0
0.503110 0.000667 0.0
0.499565 0.002878 0.0
0.491077 0.005611 0.0
0.476917 0.008549 0.0
0.457139 0.011228 0.0
0.432933 0.012978 0.0
0.406813 0.013141 0.0
0.382143 0.011530 0.0
0.361852 0.008762 0.0
0.347132 0.005959 0.0
0.337186 0.003987 0.0
0.330249 0.002950 0.0
0.324922 0.002377 0.0
0.320782 0.001764 0.0
0.318053 0.000964 0.0
0.316935 0.000154 0.0
0.317237 -0.000457 0.0
0.318475 -0.000781 0.0
0.320124 -0.000869 0.0
0.321787 -0.000795 0.0
0.323156 -0.000574 0.0
0.323942 -0.000213 0.0
0.323742 0.000412 0.0
0.322017 0.001313 0.0
0.318459 0.002245 0.0
0.313256 0.002958 0.0
0.306997 0.003301 0.0
0.300536 0.003161 0.0
0.294895 0.002480 0.0
0.291032 0.001382 0.0
0.289381 0.000269 0.0
0.289495 -0.000383 0.0
0.290507 -0.000629 0.0
0.291870 -0.000734 0.0
0.293436 -0.000832 0.0
0.295217 -0.000950 0.0
0.297225 -0.001059 0.0
0.299406 -0.001121 0.0
0.301674 -0.001147 0.0
0.304011 -0.001191 0.0
0.306504 -0.001302 0.0
0.309287 -0.001481 0.0
0.312439 -0.001672 0.0
0.315889 -0.001778 0.0
0.319467 -0.001800 0.0
1.003060 0.001411 0.0
1.011950 -0.001482 0.0
1.025805 -0.006866 0.0
1.043968 -0.013393 0.0
1.066320 -0.020273 0.0
1.092689 -0.026833 0.0
1.122613 -0.032349 0.0
1.155213 -0.036040 0.0
1.189136 -0.037193 0.0
1.222621 -0.035377 0.0
1.253791 -0.030718 0.0
1.281042 -0.023845 0.0
1.303276 -0.015636 0.0
1.319856 -0.007008 0.0
1.330523 0.001290 0.0
1.335539 0.008768 0.0
1.335614 0.015039 0.0
1.331692 0.019819 0.0
1.324876 0.022932 0.0
1.316356 0.024305 0.0
1.307329 0.023991 0.0
1.298904 0.022178 0.0
1.292011 0.019210 0.0
1.287292 0.015590 0.0
1.284997 0.011984 0.0
1.284870 0.009189 0.0
1.286083 0.008043 0.0
1.287255 0.009250 0.0
1.286608 0.013172 0.0
1.282270 0.019701 0.0
1.272605 0.028286 0.0
1.256466 0.038109 0.0
1.233312 0.048259 0.0
1.203210 0.057859 0.0
1.166776 0.066142 0.0
1.125085 0.072472 0.0
1.079587 0.076344 0.0
1.032018 0.077372 0.0
0.984349 0.075276 0.0
0.938737 0.069871 0.0
0.897463 0.060957 0.0
0.862526 0.048237 0.0
0.834548 0.031840 0.0
0.812007 0.013785 0.0
0.794752 -0.001697 0.0
0.785213 -0.012558 0.0
0.784095 -0.019092 0.0
0.790006 -0.022576 0.0
0.801441 -0.024017 0.0
0.817182 -0.024103 0.0
0.836289 -0.023212 0.0
0.857889 -0.021492 0.0
0.880889 -0.018939 0.0
0.903684 -0.015461 0.0
0.923983 -0.010888 0.0
0.939428 -0.004915 0.0
0.948927 0.002505 0.0
0.952414 0.010984 0.0
0.949893 0.019856 0.0
0.941604 0.027988 0.0
0.928049 0.033980 0.0
0.909642 0.036665 0.0
0.886494 0.035823 0.0
0.858697 0.032556 0.0
0.826977 0.028604 0.0
0.793178 0.025086 0.0
0.760117 0.021850 0.0
0.730933 0.017988 0.0
0.708316 0.012910 0.0
0.693850 0.007012 0.0
0.687602 0.001472 0.0
0.688009 -0.002484 0.0
0.692742 -0.004724 0.0
0.699994 -0.005827 0.0
0.708640 -0.006145 0.0
0.717661 -0.005612 0.0
0.725946 -0.004246 0.0
0.732713 -0.002121 0.0
0.737872 0.000412 0.0
0.741714 0.002863 0.0
0.744393 0.004864 0.0
0.745991 0.006055 0.0
0.746674 0.006185 0.0
0.746535 0.005236 0.0
0.745422 0.003602 0.0
0.743115 0.002008 0.0
0.739886 0.000993 0.0
0.736434 0.000435 0.0
0.733221 0.000052 0.0
0.730325 -0.000288 0.0
0.727649 -0.000600 0.0
0.725090 -0.000858 0.0
0.722653 -0.001065 0.0
0.720496 -0.001315 0.0
0.718896 -0.001760 0.0
0.718165 -0.002494 0.0
0.718571 -0.003478 0.0
0.720310 -0.004565 0.0
0.723516 -0.005540 0.0
0.727304 -0.005405 0.0
1.001972 -0.003622 0.0
1.009045 -0.012412 0.0
1.021947 -0.022693 0.0
1.040128 -0.033909 0.0
1.063426 -0.045406 0.0
1.091705 -0.056348 0.0
1.124583 -0.065636 0.0
1.161168 -0.071937 0.0
1.199868 -0.073918 0.0
1.238340 -0.070610 0.0
1.273974 -0.062289 0.0
1.304694 -0.050244 0.0
1.329309 -0.036087 0.0
1.347448 -0.021276 0.0
1.359334 -0.006995 0.0
1.365543 0.005828 0.0
1.366879 0.016567 0.0
1.364318 0.024775 0.0
1.358945 0.030165 0.0
1.351919 0.032618 0.0
1.344419 0.032206 0.0
1.337592 0.029215 0.0
1.332490 0.024168 0.0
1.329994 0.017846 0.0
1.330709 0.011308 0.0
1.334812 0.005888 0.0
1.341873 0.003071 0.0
1.350723 0.004201 0.0
1.359548 0.010043 0.0
1.366245 0.020471 0.0
1.368907 0.034519 0.0
1.366154 0.050769 0.0
1.357226 0.067682 0.0
1.341950 0.083814 0.0
1.320650 0.097923 0.0
1.294031 0.108999 0.0
1.263097 0.116250 0.0
1.229060 0.119070 0.0
1.193281 0.117026 0.0
1.157171 0.109843 0.0
1.122002 0.097428 0.0
1.088599 0.080106 0.0
1.057242 0.059306 0.0
1.028237 0.037865 0.0
1.001821 0.017893 0.0
0.978469 0.000743 0.0
0.959930 -0.012736 0.0
0.947664 -0.022577 0.0
0.941799 -0.029587 0.0
0.942082 -0.034557 0.0
0.948160 -0.037943 0.0
0.959615 -0.039816 0.0
0.975931 -0.039931 0.0
0.996485 -0.037816 0.0
1.020547 -0.032895 0.0
1.047072 -0.024878 0.0
1.074157 -0.014116 0.0
1.099417 -0.001142 0.0
1.120943 0.012978 0.0
1.137420 0.026680 0.0
1.147792 0.038471 0.0
1.151026 0.047348 0.0
1.146317 0.052998 0.0
1.133548 0.055948 0.0
1.113584 0.056897 0.0
1.088161 0.056015 0.0
1.059331 0.052811 0.0
1.028813 0.046729 0.0
0.997638 0.037961 0.0
0.966374 0.027691 0.0
0.935964 0.017452 0.0
0.908812 0.008282 0.0
0.888213 0.000377 0.0
0.875982 -0.005949 0.0
0.871331 -0.010019 0.0
0.872351 -0.011780 0.0
0.877563 -0.011575 0.0
0.885811 -0.009807 0.0
0.895797 -0.007048 0.0
0.906153 -0.003873 0.0
0.915883 -0.000810 0.0
0.924438 0.001576 0.0
0.931523 0.002895 0.0
0.937077 0.003111 0.0
0.941338 0.002578 0.0
0.944911 0.001765 0.0
0.948535 0.000841 0.0
0.952763 -0.000189 0.0
0.957913 -0.001260 0.0
0.964099 -0.002266 0.0
0.971229 -0.003076 0.0
0.978989 -0.003583 0.0
0.986855 -0.003769 0.0
0.994120 -0.003719 0.0
0.999959 -0.003595 0.0
1.003582 -0.003551 0.0
1.004476 -0.003722 0.0
1.002677 -0.004261 0.0
0.999007 -0.005380 0.0
0.997643 -0.007989 0.0
1.001598 -0.007193 0.0
1.007796 -0.022112 0.0
1.019877 -0.037975 0.0
1.037752 -0.054683 0.0
1.061582 -0.071760 0.0
1.091591 -0.088282 0.0
1.127758 -0.102747 0.0
1.169379 -0.113032 0.0
1.214651 -0.116796 0.0
1.260096 -0.111649 0.0
1.301514 -0.098303 0.0
1.335987 -0.079422 0.0
1.362307 -0.057844 0.0
1.380472 -0.035823 0.0
1.391134 -0.014996 0.0
1.395271 0.003482 0.0
1.394012 0.018836 0.0
1.388555 0.030525 0.0
1.380161 0.038181 0.0
1.370160 0.041630 0.0
1.359918 0.040936 0.0
1.350795 0.036434 0.0
1.344088 0.028758 0.0
1.340976 0.018865 0.0
1.342458 0.008092 0.0
1.349123 -0.001664 0.0
1.360659 -0.007973 0.0
1.375549 -0.008495 0.0
1.391290 -0.001827 0.0
1.405072 0.011863 0.0
1.414558 0.030979 0.0
1.418321 0.053298 0.0
1.415826 0.076576 0.0
1.407194 0.098826 0.0
1.392963 0.118443 0.0
1.373870 0.134190 0.0
1.350725 0.145139 0.0
1.324340 0.150604 0.0
1.295488 0.150123 0.0
1.264860 0.143484 0.0
1.232990 0.130825 0.0
1.200220 0.112882 0.0
1.166849 0.091256 0.0
1.133506 0.068263 0.0
1.101331 0.046086 0.0
1.071468 0.025765 0.0
1.044629 0.007618 0.0
1.021952 -0.007987 0.0
1.004752 -0.021112 0.0
0.993548 -0.032112 0.0
0.988368 -0.041287 0.0
0.989047 -0.048606 0.0
0.995369 -0.053781 0.0
1.007237 -0.056388 0.0
1.024801 -0.055949 0.0
1.048412 -0.051961 0.0
1.078273 -0.043978 0.0
1.113702 -0.031969 0.0
1.152409 -0.016428 0.0
1.190459 0.001559 0.0
1.223481 0.020198 0.0
1.248535 0.037333 0.0
1.264366 0.051890 0.0
1.270600 0.063590 0.0
1.267637 0.072181 0.0
1.256517 0.077275 0.0
1.238513 0.078385 0.0
1.214848 0.075337 0.0
1.186735 0.068641 0.0
1.155647 0.059363 0.0
1.123356 0.048481 0.0
1.091323 0.036437 0.0
1.060267 0.023877 0.0
1.031016 0.012033 0.0
1.005658 0.002008 0.0
0.986559 -0.005727 0.0
0.974438 -0.010718 0.0
0.968396 -0.012870 0.0
0.966992 -0.012567 0.0
0.968744 -0.010462 0.0
0.972175 -0.007383 0.0
0.975927 -0.004157 0.0
0.978965 -0.001496 0.0
0.980778 0.000136 0.0
0.981508 0.000563 0.0
0.981915 -0.000200 0.0
0.983157 -0.002059 0.0
0.986441 -0.004802 0.0
0.992771 -0.008125 0.0
1.002792 -0.011608 0.0
1.016688 -0.014759 0.0
1.034141 -0.017114 0.0
1.054365 -0.018328 0.0
1.076166 -0.018226 0.0
1.098052 -0.016813 0.0
1.118392 -0.014296 0.0
1.135673 -0.011151 0.0
1.148839 -0.008200 0.0
1.157643 -0.006577 0.0
1.164063 -0.011848 0.0
1.001413 -0.010203 0.0
1.007047 -0.030935 0.0
1.018392 -0.052578 0.0
1.035801 -0.075363 0.0
1.059953 -0.099062 0.0
1.091739 -0.122775 0.0
1.131933 -0.144614 0.0
1.180477 -0.161329 0.0
1.235821 -0.169115 0.0
1.292161 -0.161113 0.0
1.341720 -0.139817 0.0
1.380471 -0.111133 0.0
1.407872 -0.079855 0.0
1.424923 -0.049027 0.0
1.433042 -0.020572 0.0
1.433720 0.004244 0.0
1.428372 0.024681 0.0
1.418360 0.040150 0.0
1.405126 0.050184 0.0
1.390226 0.054528 0.0
1.375297 0.053208 0.0
1.361994 0.046587 0.0
1.351919 0.035386 0.0
1.346595 0.020673 0.0
1.347490 0.003907 0.0
1.355740 -0.012394 0.0
1.371433 -0.024471 0.0
1.392925 -0.028378 0.0
1.416697 -0.021458 0.0
1.438165 -0.003755 0.0
1.453549 0.021727 0.0
1.461153 0.051183 0.0
1.460906 0.081433 0.0
1.453588 0.109918 0.0
1.440360 0.134811 0.0
1.422397 0.154878 0.0
1.400693 0.169300 0.0
1.375991 0.177530 0.0
1.348797 0.179243 0.0
1.319423 0.174368 0.0
1.288035 0.163199 0.0
1.254765 0.146549 0.0
1.219898 0.125828 0.0
1.184084 0.102848 0.0
1.148410 0.079351 0.0
1.114196 0.056578 0.0
1.082679 0.035161 0.0
1.054654 0.015172 0.0
1.030703 -0.003120 0.0
1.011286 -0.019482 0.0
0.996355 -0.033806 0.0
0.985626 -0.046037 0.0
0.979099 -0.056145 0.0
0.977357 -0.064149 0.0
0.981648 -0.070042 0.0
0.993677 -0.073508 0.0
1.015053 -0.073668 0.0
1.046630 -0.069285 0.0
1.088031 -0.059220 0.0
1.137319 -0.042988 0.0
1.190387 -0.021345 0.0
1.240563 0.003647 0.0
1.281307 0.029001 0.0
1.309974 0.051580 0.0
1.326884 0.070244 0.0
1.332942 0.084273 0.0
1.329223 0.093109 0.0
1.316895 0.096606 0.0
1.297256 0.095126 0.0
1.271810 0.089411 0.0
1.242209 0.080324 0.0
1.210082 0.068754 0.0
1.176993 0.055705 0.0
1.144395 0.042054 0.0
1.113304 0.028435 0.0
1.084371 0.015877 0.0
1.058571 0.005598 0.0
1.037068 -0.001641 0.0
1.020214 -0.005537 0.0
1.007199 -0.006229 0.0
0.996525 -0.004374 0.0
0.986662 -0.001055 0.0
0.976588 0.002438 0.0
0.966080 0.004897 0.0
0.955718 0.005435 0.0
0.946664 0.003574 0.0
0.940356 -0.000766 0.0
0.938250 -0.007274 0.0
0.941503 -0.015236 0.0
0.950663 -0.023678 0.0
0.965649 -0.031572 0.0
0.985911 -0.038016 0.0
1.010587 -0.042326 0.0
1.038622 -0.044065 0.0
1.068817 -0.043053 0.0
1.099828 -0.039407 0.0
1.130154 -0.033646 0.0
1.158126 -0.026842 0.0
1.181991 -0.020604 0.0
1.199313 -0.021562 0.0
1.001227 -0.012843 0.0
1.006182 -0.038886 0.0
1.016390 -0.066180 0.0
1.032599 -0.095381 0.0
1.056121 -0.126719 0.0
1.088845 -0.159628 0.0
1.133013 -0.192123 0.0
1.190196 -0.219549 0.0
1.261006 -0.237049 0.0
1.333993 -0.222505 0.0
1.392919 -0.186910 0.0
1.433888 -0.143760 0.0
1.459415 -0.100155 0.0
1.472732 -0.059095 0.0
1.476288 -0.022179 0.0
1.471900 0.009562 0.0
1.460967 0.035643 0.0
1.444817 0.055350 0.0
1.424997 0.068037 0.0
1.403276 0.073296 0.0
1.381570 0.071074 0.0
1.361848 0.061746 0.0
1.346009 0.046142 0.0
1.335774 0.025477 0.0
1.332781 0.001202 0.0
1.338889 -0.024047 0.0
1.355325 -0.044948 0.0
1.381232 -0.055301 0.0
1.413178 -0.050254 0.0
1.445241 -0.028489 0.0
1.470396 0.005922 0.0
1.484556 0.045224 0.0
1.487826 0.084369 0.0
1.481962 0.120165 0.0
1.469013 0.150741 0.0
1.450792 0.175131 0.0
1.428659 0.192884 0.0
1.403504 0.203803 0.0
1.375827 0.207840 0.0
1.345849 0.205123 0.0
1.313644 0.196037 0.0
1.279291 0.181333 0.0
1.243057 0.162147 0.0
1.205537 0.139862 0.0
1.167699 0.115849 0.0
1.130755 0.091237 0.0
1.095904 0.066869 0.0
1.063975 0.043419 0.0
1.035025 0.021534 0.0
1.008326 0.001982 0.0
0.982820 -0.014833 0.0
0.957928 -0.029389 0.0
0.934413 -0.042750 0.0
0.914633 -0.056023 0.0
0.901998 -0.069825 0.0
0.899927 -0.083683 0.0
0.910733 -0.095675 0.0
0.935091 -0.103213 0.0
0.972316 -0.103919 0.0
1.020827 -0.096088 0.0
1.078366 -0.078852 0.0
1.141819 -0.052477 0.0
1.205762 -0.019562 0.0
1.261808 0.015430 0.0
1.303930 0.047362 0.0
1.331616 0.073410 0.0
1.346313 0.092994 0.0
1.349447 0.105916 0.0
1.342501 0.112401 0.0
1.327061 0.113022 0.0
1.304791 0.108584 0.0
1.277374 0.100039 0.0
1.246455 0.088428 0.0
1.213584 0.074802 0.0
1.180134 0.060228 0.0
1.147291 0.045861 0.0
1.115905 0.032801 0.0
1.086319 0.022246 0.0
1.058425 0.015324 0.0
1.031821 0.012529 0.0
1.005988 0.013375 0.0
0.980603 0.016445 0.0
0.955866 0.019749 0.0
0.932647 0.021313 0.0
0.912350 0.019678 0.0
0.896569 0.014164 0.0
0.886670 0.004852 0.0
0.883488 -0.007604 0.0
0.887261 -0.021932 0.0
0.897652 -0.036534 0.0
0.913910 -0.049960 0.0
0.935111 -0.061089 0.0
0.960319 -0.069136 0.0
0.988632 -0.073604 0.0
1.019167 -0.074244 0.0
1.051001 -0.071061 0.0
1.083074 -0.064391 0.0
1.114057 -0.055052 0.0
1.142215 -0.044418 0.0
1.163637 -0.036491 0.0
1.000954 -0.015023 0.0
1.004845 -0.045551 0.0
1.013036 -0.077913 0.0
1.026564 -0.113386 0.0
1.047346 -0.153017 0.0
1.078504 -0.197212 0.0
1.124611 -0.244813 0.0
1.190760 -0.290191 0.0
1.285256 -0.331712 0.0
1.381287 -0.296861 0.0
1.444005 -0.234199 0.0
1.477825 -0.171261 0.0
1.493965 -0.114321 0.0
1.499029 -0.063309 0.0
1.495809 -0.018299 0.0
1.485206 0.020673 0.0
1.467652 0.053018 0.0
1.444141 0.077636 0.0
1.416189 0.093522 0.0
1.385710 0.100012 0.0
1.354860 0.096914 0.0
1.325878 0.084610 0.0
1.300893 0.064103 0.0
1.281642 0.037002 0.0
1.269197 0.005114 0.0
1.265425 -0.030295 0.0
1.273199 -0.062910 0.0
1.294124 -0.084170 0.0
1.327496 -0.086703 0.0
1.369386 -0.065994 0.0
1.411104 -0.023447 0.0
1.441722 0.029814 0.0
1.457130 0.081102 0.0
1.460151 0.126275 0.0
1.453954 0.163777 0.0
1.441004 0.193266 0.0
1.422985 0.214902 0.0
1.400949 0.228976 0.0
1.375502 0.235791 0.0
1.346966 0.235686 0.0
1.315527 0.229118 0.0
1.281379 0.216751 0.0
1.244871 0.199471 0.0
1.206609 0.178318 0.0
1.167492 0.154349 0.0
1.128603 0.128571 0.0
1.090918 0.102070 0.0
1.054821 0.076245 0.0
1.019631 0.052847 0.0
0.983629 0.033370 0.0
0.944989 0.017925 0.0
0.903408 0.004327 0.0
0.861687 -0.011230 0.0
0.825905 -0.031982 0.0
0.802725 -0.058051 0.0
0.795766 -0.086428 0.0
0.804876 -0.112846 0.0
0.828016 -0.133541 0.0
0.862989 -0.145790 0.0
0.908040 -0.147778 0.0
0.961727 -0.138387 0.0
1.022545 -0.117213 0.0
1.088544 -0.084768 0.0
1.156530 -0.043397 0.0
1.219548 0.001051 0.0
1.269700 0.041883 0.0
1.304526 0.074998 0.0
1.325340 0.099964 0.0
1.333708 0.116931 0.0
1.331248 0.126391 0.0
1.319626 0.129107 0.0
1.300519 0.126041 0.0
1.275567 0.118297 0.0
1.246311 0.107060 0.0
1.214131 0.093599 0.0
1.180165 0.079300 0.0
1.145215 0.065697 0.0
1.109722 0.054429 0.0
1.073856 0.046901 0.0
1.037711 0.043700 0.0
1.001577 0.044171 0.0
0.966202 0.046410 0.0
0.932910 0.047813 0.0
0.903453 0.045925 0.0
0.879644 0.039172 0.0
0.862920 0.027175 0.0
0.854034 0.010627 0.0
0.852940 -0.009104 0.0
0.858910 -0.030174 0.0
0.870870 -0.050643 0.0
0.887722 -0.068960 0.0
0.908472 -0.084040 0.0
0.932259 -0.095181 0.0
0.958340 -0.101954 0.0
0.986039 -0.104129 0.0
1.014675 -0.101646 0.0
1.043455 -0.094659 0.0
1.071318 -0.083630 0.0
1.096762 -0.069441 0.0
1.116637 -0.052764 0.0
1.000550 -0.016528 0.0
1.002811 -0.050198 0.0
1.007718 -0.086364 0.0
1.016333 -0.127077 0.0
1.030835 -0.174609 0.0
1.055348 -0.231291 0.0
1.097287 -0.298779 0.0
1.168165 -0.373253 0.0
1.295918 -0.470900 0.0
1.414427 -0.372213 0.0
1.456113 -0.263249 0.0
1.460592 -0.180510 0.0
1.454916 -0.115537 0.0
1.447049 -0.059290 0.0
1.436411 -0.008460 0.0
1.420285 0.037563 0.0
1.397166 0.076801 0.0
1.367233 0.107297 0.0
1.331579 0.127467 0.0
1.291870 0.136256 0.0
1.250144 0.133247 0.0
1.208627 0.118776 0.0
1.169511 0.094037 0.0
1.134686 0.061145 0.0
1.105172 0.022929 0.0
1.080717 -0.019883 0.0
1.065165 -0.065543 0.0
1.066343 -0.103640 0.0
1.089329 -0.123590 0.0
1.134377 -0.116044 0.0
1.195743 -0.076480 0.0
1.259309 -0.011337 0.0
1.308322 0.057832 0.0
1.338532 0.116314 0.0
1.354946 0.163522 0.0
1.361016 0.200401 0.0
1.358818 0.227983 0.0
1.349646 0.247102 0.0
1.334365 0.258392 0.0
1.313616 0.262371 0.0
1.287935 0.259555 0.0
1.257852 0.250545 0.0
1.223978 0.236060 0.0
1.187068 0.216901 0.0
1.148017 0.193934 0.0
1.107670 0.168223 0.0
1.066313 0.141460 0.0
1.022938 0.116327 0.0
0.975098 0.095794 0.0
0.920615 0.080907 0.0
0.860892 0.068750 0.0
0.802722 0.053254 0.0
0.755509 0.028777 0.0
0.725725 -0.006422 0.0
0.714466 -0.049172 0.0
0.718996 -0.092879 0.0
0.735450 -0.131958 0.0
0.760891 -0.163010 0.0
0.793710 -0.184113 0.0
0.833234 -0.194030 0.0
0.879226 -0.191814 0.0
0.931445 -0.176822 0.0
0.989290 -0.149002 0.0
1.051499 -0.109358 0.0
1.115855 -0.060362 0.0
1.177094 -0.008096 0.0
1.227676 0.039569 0.0
1.264089 0.078166 0.0
1.287067 0.107382 0.0
1.297897 0.127571 0.0
1.298022 0.139424 0.0
1.288958 0.143895 0.0
1.272217 0.142137 0.0
1.249236 0.135457 0.0
1.221303 0.125314 0.0
1.189489 0.113365 0.0
1.154607 0.101464 0.0
1.117250 0.091512 0.0
1.077945 0.084989 0.0
1.037388 0.082314 0.0
0.996681 0.082398 0.0
0.957457 0.082782 0.0
0.921744 0.080445 0.0
0.891607 0.072887 0.0
0.868691 0.058937 0.0
0.853884 0.038940 0.0
0.847240 0.014391 0.0
0.848099 -0.012633 0.0
0.855332 -0.039848 0.0
0.867679 -0.065275 0.0
0.883978 -0.087480 0.0
0.903239 -0.105532 0.0
0.924643 -0.118881 0.0
0.947525 -0.127218 0.0
0.971331 -0.130370 0.0
0.995541 -0.128249 0.0
1.019558 -0.120853 0.0
1.042573 -0.108315 0.0
1.063412 -0.091040 0.0
1.079948 -0.067578 0.0
1.000008 -0.017086 0.0
1.000049 -0.051941 0.0
1.000304 -0.089783 0.0
1.001403 -0.133373 0.0
1.004945 -0.186358 0.0
1.014704 -0.253814 0.0
1.039425 -0.342916 0.0
1.098471 -0.459040 0.0
1.256288 -0.670681 0.0
1.368440 -0.403093 0.0
1.331326 -0.236940 0.0
1.273696 -0.153668 0.0
1.234832 -0.097838 0.0
1.214442 -0.048733 0.0
1.202222 0.003841 0.0
1.187394 0.056217 0.0
1.165647 0.103012 0.0
1.135677 0.140988 0.0
1.097346 0.167761 0.0
1.051232 0.181786 0.0
0.998250 0.182426 0.0
0.939245 0.170117 0.0
0.874897 0.146159 0.0
0.807108 0.111637 0.0
0.741908 0.067151 0.0
0.689450 0.012808 0.0
0.660150 -0.053381 0.0
0.662100 -0.118931 0.0
0.696379 -0.165565 0.0
0.757427 -0.180166 0.0
0.839326 -0.155625 0.0
0.936187 -0.092620 0.0
1.033497 -0.007208 0.0
1.111831 0.072811 0.0
1.167091 0.135351 0.0
1.205537 0.184056 0.0
1.230534 0.221529 0.0
1.243969 0.249293 0.0
1.247161 0.268289 0.0
1.241206 0.279178 0.0
1.227104 0.282531 0.0
1.205813 0.278942 0.0
1.178276 0.269073 0.0
1.145397 0.253677 0.0
1.107872 0.233735 0.0
1.065747 0.210893 0.0
1.017876 0.188018 0.0
0.962184 0.168836 0.0
0.897862 0.155447 0.0
0.828577 0.145023 0.0
0.763207 0.129726 0.0
0.712011 0.101643 0.0
0.681216 0.058397 0.0
0.670839 0.004120 0.0
0.676125 -0.053741 0.0
0.691251 -0.107966 0.0
0.712316 -0.154391 0.0
0.737431 -0.191133 0.0
0.765975 -0.217352 0.0
0.798108 -0.232448 0.0
0.834425 -0.235705 0.0
0.875593 -0.226319 0.0
0.921980 -0.203737 0.0
0.973341 -0.168192 0.0
1.028636 -0.121178 0.0
1.085895 -0.065778 0.0
1.140701 -0.008137 0.0
1.186654 0.043507 0.0
1.220436 0.085281 0.0
1.242283 0.116996 0.0
1.253046 0.139110 0.0
1.253842 0.152476 0.0
1.245896 0.158243 0.0
1.230429 0.157800 0.0
1.208565 0.152767 0.0
1.181283 0.145008 0.0
1.149409 0.136578 0.0
1.113708 0.129456 0.0
1.075074 0.124984 0.0
1.034744 0.123206 0.0
0.994442 0.122514 0.0
0.956307 0.120026 0.0
0.922584 0.112638 0.0
0.895181 0.098234 0.0
0.875305 0.076382 0.0
0.863334 0.048273 0.0
0.858918 0.016118 0.0
0.861196 -0.017497 0.0
0.869012 -0.050035 0.0
0.881135 -0.079558 0.0
0.896410 -0.104771 0.0
0.913830 -0.124921 0.0
0.932570 -0.139636 0.0
0.951997 -0.148771 0.0
0.971639 -0.152265 0.0
0.991123 -0.150048 0.0
1.010067 -0.142016 0.0
1.027950 -0.128049 0.0
1.043993 -0.108186 0.0
1.056846 -0.079820 0.0
0.999380 -0.016474 0.0
0.996827 -0.050041 0.0
0.991499 -0.086611 0.0
0.983080 -0.129225 0.0
0.971360 -0.182328 0.0
0.956942 -0.253184 0.0
0.943611 -0.354935 0.0
0.947053 -0.509509 0.0
1.052956 -0.883933 0.0
1.059463 -0.199424 0.0
0.878270 -0.102035 0.0
0.744259 -0.085743 0.0
0.682253 -0.064894 0.0
0.663576 -0.042611 0.0
0.670662 0.002854 0.0
0.681150 0.061544 0.0
0.683125 0.117456 0.0
0.672347 0.167292 0.0
0.644832 0.207303 0.0
0.598307 0.234882 0.0
0.532437 0.248183 0.0
0.450315 0.245486 0.0
0.361020 0.224433 0.0
0.280798 0.181374 0.0
0.228075 0.115336 0.0
0.215018 0.030137 0.0
0.240630 -0.067023 0.0
0.291124 -0.157733 0.0
0.355023 -0.224941 0.0
0.430399 -0.257213 0.0
0.518285 -0.248362 0.0
0.619528 -0.197986 0.0
0.733198 -0.112822 0.0
0.847576 -0.014288 0.0
0.942781 0.071985 0.0
1.013742 0.138015 0.0
1.066570 0.189746 0.0
1.104124 0.230087 0.0
1.128010 0.260417 0.0
1.139496 0.281519 0.0
1.139776 0.294012 0.0
1.130002 0.298526 0.0
1.111235 0.295792 0.0
1.084294 0.286778 0.0
1.049428 0.273026 0.0
1.005968 0.257187 0.0
0.952653 0.242911 0.0
0.889532 0.232756 0.0
0.820786 0.224595 0.0
0.755484 0.210462 0.0
0.704072 0.181069 0.0
0.672951 0.132617 0.0
0.662086 0.069083 0.0
0.666994 -0.001097 0.0
0.681889 -0.068704 0.0
0.702014 -0.128255 0.0
0.724495 -0.177648 0.0
0.747859 -0.216356 0.0
0.771642 -0.244456 0.0
0.796186 -0.262021 0.0
0.822471 -0.268733 0.0
0.851816 -0.263804 0.0
0.885451 -0.246275 0.0
0.924066 -0.215631 0.0
0.967499 -0.172466 0.0
1.014659 -0.118909 0.0
1.063562 -0.058715 0.0
1.110083 0.001610 0.0
1.149068 0.054411 0.0
1.178005 0.097083 0.0
1.196757 0.129508 0.0
1.205798 0.152241 0.0
1.205905 0.166317 0.0
1.197966 0.173132 0.0
1.182874 0.174390 0.0
1.161470 0.172071 0.0
1.134571 0.168289 0.0
1.103092 0.164924 0.0
1.068232 0.163010 0.0
1.031626 0.162116 0.0
0.995341 0.160190 0.0
0.961656 0.154171 0.0
0.932657 0.141215 0.0
0.909862 0.119854 0.0
0.894033 0.090465 0.0
0.885235 0.054959 0.0
0.883019 0.016064 0.0
0.886576 -0.023277 0.0
0.894844 -0.060339 0.0
0.906652 -0.093184 0.0
0.920854 -0.120621 0.0
0.936420 -0.142057 0.0
0.952505 -0.157325 0.0
0.968486 -0.166490 0.0
0.983965 -0.169667 0.0
0.998718 -0.166883 0.0
1.012597 -0.158004 0.0
1.025401 -0.142748 0.0
1.036765 -0.120894 0.0
1.045914 -0.089114 0.0
0.998776 -0.014630 0.0
0.993721 -0.044276 0.0
0.982954 -0.076281 0.0
0.965005 -0.113187 0.0
0.937156 -0.158797 0.0
0.894426 -0.219567 0.0
0.827073 -0.307869 0.0
0.716195 -0.449140 0.0
0.323389 -0.766475 0.0
-0.484689 0.274865 0.0
-0.484689 0.000000 0.0
-0.031046 -0.021288 0.0
-0.042629 -0.065517 0.0
0.016271 -0.082211 0.0
0.106709 -0.055071 0.0
0.187238 0.028452 0.0
0.227810 0.108000 0.0
0.235585 0.179752 0.0
0.216457 0.241488 0.0
0.174163 0.289516 0.0
0.115105 0.318478 0.0
0.050619 0.321798 0.0
-0.004733 0.292768 0.0
-0.038214 0.226743 0.0
-0.042545 0.127022 0.0
-0.016971 0.005935 0.0
0.031112 -0.116517 0.0
0.089546 -0.217166 0.0
0.152003 -0.291864 0.0
0.220031 -0.333693 0.0
0.297357 -0.337094 0.0
0.387263 -0.300405 0.0
0.490873 -0.227682 0.0
0.606252 -0.129185 0.0
0.722728 -0.024799 0.0
0.821775 0.064792 0.0
0.897429 0.134486 0.0
0.954970 0.190252 0.0
0.996761 0.234577 0.0
1.024141 0.268493 0.0
1.038233 0.292666 0.0
1.040083 0.307796 0.0
1.030562 0.314809 0.0
1.010142 0.315123 0.0
0.978661 0.311028 0.0
0.935578 0.305726 0.0
0.881408 0.301857 0.0
0.820047 0.298291 0.0
0.759838 0.288015 0.0
0.711031 0.261150 0.0
0.680802 0.212021 0.0
0.670253 0.143335 0.0
0.675733 0.063751 0.0
0.691859 -0.016799 0.0
0.713577 -0.089614 0.0
0.737272 -0.151166 0.0
0.760742 -0.200688 0.0
0.782664 -0.238602 0.0
0.802477 -0.265805 0.0
0.820404 -0.283143 0.0
0.837462 -0.290954 0.0
0.855327 -0.288793 0.0
0.875950 -0.275545 0.0
0.900983 -0.250009 0.0
0.931244 -0.211782 0.0
0.966465 -0.161975 0.0
1.005360 -0.103446 0.0
1.045772 -0.040591 0.0
1.083718 0.019681 0.0
1.115201 0.071393 0.0
1.138557 0.113089 0.0
1.153425 0.144750 0.0
1.159997 0.167130 0.0
1.158742 0.181512 0.0
1.150254 0.189589 0.0
1.135196 0.193334 0.0
1.114347 0.194775 0.0
1.088724 0.195540 0.0
1.059733 0.196245 0.0
1.029220 0.196001 0.0
0.999334 0.192475 0.0
0.972200 0.182704 0.0
0.949539 0.164342 0.0
0.932422 0.136639 0.0
0.921268 0.100663 0.0
0.916002 0.058825 0.0
0.916234 0.014183 0.0
0.921273 -0.029991 0.0
0.930142 -0.070762 0.0
0.941721 -0.106148 0.0
0.954884 -0.135022 0.0
0.968605 -0.156943 0.0
0.982043 -0.171961 0.0
0.994602 -0.180393 0.0
1.005957 -0.182598 0.0
1.016029 -0.178778 0.0
1.024906 -0.168864 0.0
1.032715 -0.152500 0.0
1.039496 -0.129288 0.0
1.044950 -0.095323 0.0
0.998325 -0.011732 0.0
0.991423 -0.035218 0.0
0.976700 -0.059850 0.0
0.951997 -0.086966 0.0
0.913136 -0.118308 0.0
0.852055 -0.156245 0.0
0.751931 -0.203713 0.0
0.572571 -0.263058 0.0
0.227953 -0.318488 0.0
0.000000 0.274865 0.0
-0.000000 -0.000000 0.0
0.000000 0.000000 0.0
-0.041601 -0.042490 0.0
-0.085259 -0.119591 0.0
-0.085606 -0.107782 0.0
-0.072080 -0.012892 0.0
-0.055209 0.091900 0.0
-0.053770 0.186638 0.0
-0.068490 0.268451 0.0
-0.095371 0.331727 0.0
-0.127392 0.367346 0.0
-0.155526 0.365550 0.0
-0.170528 0.319370 0.0
-0.164391 0.227484 0.0
-0.131927 0.098147 0.0
-0.079899 -0.042792 0.0
-0.022089 -0.173684 0.0
0.033417 -0.273938 0.0
0.084788 -0.348921 0.0
0.135354 -0.395230 0.0
0.190908 -0.408437 0.0
0.257632 -0.385693 0.0
0.339468 -0.327840 0.0
0.436210 -0.241147 0.0
0.543436 -0.136539 0.0
0.650952 -0.030030 0.0
0.743325 0.061281 0.0
0.814916 0.134325 0.0
0.869602 0.194028 0.0
0.909073 0.242191 0.0
0.934293 0.279656 0.0
0.945989 0.307261 0.0
0.944628 0.326226 0.0
0.930309 0.338445 0.0
0.902960 0.346537 0.0
0.863331 0.352928 0.0
0.814784 0.357373 0.0
0.764480 0.354439 0.0
0.721935 0.334622 0.0
0.694903 0.290381 0.0
0.685968 0.221954 0.0
0.692819 0.137100 0.0
0.711052 0.046272 0.0
0.735787 -0.040180 0.0
0.762795 -0.114959 0.0
0.789334 -0.176056 0.0
0.813601 -0.223534 0.0
0.834396 -0.258472 0.0
0.851079 -0.282432 0.0
0.863657 -0.297022 0.0
0.872927 -0.303403 0.0
0.880540 -0.301822 0.0
0.888822 -0.291421 0.0
0.900249 -0.270593 0.0
0.916718 -0.237929 0.0
0.938976 -0.193307 0.0
0.966483 -0.138515 0.0
0.997671 -0.077123 0.0
1.030044 -0.014106 0.0
1.060007 0.043735 0.0
1.084631 0.092767 0.0
1.102710 0.132125 0.0
1.113804 0.162088 0.0
1.117919 0.183694 0.0
1.115317 0.198497 0.0
1.106465 0.208337 0.0
1.092073 0.215013 0.0
1.073208 0.219789 0.0
1.051368 0.222827 0.0
1.028429 0.222872 0.0
1.006405 0.217515 0.0
0.987089 0.204114 0.0
0.971751 0.180931 0.0
0.961051 0.147867 0.0
0.955165 0.106475 0.0
0.953969 0.059474 0.0
0.957131 0.010141 0.0
0.964018 -0.037876 0.0
0.973690 -0.081418 0.0
0.985074 -0.118455 0.0
0.997107 -0.147912 0.0
1.008827 -0.169496 0.0
1.019459 -0.183478 0.0
1.028474 -0.190450 0.0
1.035638 -0.191060 0.0
1.041014 -0.185764 0.0
1.044909 -0.174649 0.0
1.047759 -0.157374 0.0
1.049990 -0.133427 0.0
1.051744 -0.098392 0.0
0.998116 -0.008173 0.0
0.990386 -0.024145 0.0
0.974042 -0.039855 0.0
0.947027 -0.055243 0.0
0.905634 -0.069776 0.0
0.843710 -0.081773 0.0
0.751809 -0.086159 0.0
0.618652 -0.068094 0.0
0.443270 0.012268 0.0
0.173094 0.154869 0.0
0.000000 0.000000 0.0
-0.000000 -0.000000 0.0
0.000000 0.000000 0.0
-0.056881 -0.058767 0.0
-0.125298 -0.097956 0.0
-0.147583 -0.013960 0.0
-0.162840 0.091353 0.0
-0.170461 0.193367 0.0
-0.177301 0.283282 0.0
-0.184856 0.351332 0.0
-0.190172 0.385077 0.0
-0.187410 0.373192 0.0
-0.170207 0.309528 0.0
-0.130409 0.191390 0.0
-0.063994 0.035361 0.0
0.009270 -0.105297 0.0
0.067808 -0.227527 0.0
0.112860 -0.320652 0.0
0.148721 -0.389439 0.0
0.177156 -0.433714 0.0
0.203499 -0.451850 0.0
0.235936 -0.441440 0.0
0.282542 -0.400535 0.0
0.347606 -0.330259 0.0
0.429596 -0.236644 0.0
0.522086 -0.129932 0.0
0.614460 -0.023566 0.0
0.694078 0.067963 0.0
0.756361 0.143422 0.0
0.803494 0.206193 0.0
0.836332 0.257595 0.0
0.855243 0.298715 0.0
0.860341 0.331035 0.0
0.851732 0.356563 0.0
0.830213 0.377287 0.0
0.798536 0.393483 0.0
0.762508 0.401394 0.0
0.730381 0.392849 0.0
0.709877 0.359263 0.0
0.704829 0.297821 0.0
0.714460 0.213818 0.0
0.735442 0.117403 0.0
0.763918 0.019261 0.0
0.795534 -0.069520 0.0
0.826577 -0.143670 0.0
0.854920 -0.202227 0.0
0.879143 -0.245854 0.0
0.898307 -0.276111 0.0
0.911886 -0.295054 0.0
0.919798 -0.304891 0.0
0.922562 -0.307566 0.0
0.921504 -0.304213 0.0
0.918859 -0.294667 0.0
0.917503 -0.277418 0.0
0.920257 -0.250327 0.0
0.929031 -0.211940 0.0
0.944289 -0.162647 0.0
0.965103 -0.104994 0.0
0.989615 -0.043119 0.0
1.014983 0.017417 0.0
1.038140 0.071304 0.0
1.057087 0.116562 0.0