# vtk DataFile Version 3.0
Scalar Field
ASCII
DATASET RECTILINEAR_GRID
DIMENSIONS 100 26 1
X_COORDINATES 100 double
0.050000 0.150000 0.250000 0.350000 0.450000 0.550000 0.650000 0.750000 0.850000 0.950000 1.050000 1.150000 1.250000 1.350000 1.450000 1.550000 1.650000 1.750000 1.850000 1.950000 2.050000 2.150000 2.250000 2.350000 2.450000 2.550000 2.650000 2.750000 2.850000 2.950000 3.050000 3.150000 3.250000 3.350000 3.450000 3.550000 3.650000 3.750000 3.850000 3.950000 4.050000 4.150000 4.250000 4.350000 4.450000 4.550000 4.650000 4.750000 4.850000 4.950000 5.050000 5.150000 5.250000 5.350000 5.450000 5.550000 5.650000 5.750000 5.850000 5.950000 6.050000 6.150000 6.250000 6.350000 6.450000 6.550000 6.650000 6.750000 6.850000 6.950000 7.050000 7.150000 7.250000 7.350000 7.450000 7.550000 7.650000 7.750000 7.850000 7.950000 8.050000 8.150000 8.250000 8.350000 8.450000 8.550000 8.650000 8.750000 8.850000 8.950000 9.050000 9.150000 9.250000 9.350000 9.450000 9.550000 9.650000 9.750000 9.850000 9.950000 
Y_COORDINATES 26 double
0.050000 0.150000 0.250000 0.350000 0.450000 0.550000 0.650000 0.750000 0.850000 0.950000 1.050000 1.150000 1.250000 1.350000 1.450000 1.550000 1.650000 1.750000 1.850000 1.950000 2.050000 2.150000 2.250000 2.350000 2.450000 2.550000 
Z_COORDINATES 1 double
0.0
POINT_DATA 2600
SCALARS Skalarfeld double 1
LOOKUP_TABLE default
0.302770
0.287736
0.273229
0.256199
0.235524
0.210717
0.181677
0.148668
0.112359
0.073838
0.034519
-0.004091
-0.040652
-0.074160
-0.103997
-0.129891
-0.151846
-0.169600
-0.183053
-0.192248
-0.197222
-0.198091
-0.195126
-0.188787
-0.179717
-0.168688
-0.156503
-0.143895
-0.131438
-0.119479
-0.108121
-0.097248
-0.086586
-0.075803
-0.064615
-0.052880
-0.040663
-0.028263
-0.015341
-0.002643
0.008687
0.017966
0.024745
0.028998
0.031000
0.030581
0.027704
0.022405
0.014799
0.005194
-0.005702
-0.016571
-0.025607
-0.031319
-0.033628
-0.033074
-0.031276
-0.028787
-0.025366
-0.021190
-0.016727
-0.012312
-0.008197
-0.004555
-0.001491
0.000947
0.002754
0.003968
0.004655
0.004902
0.004810
0.004479
0.004011
0.003493
0.003001
0.002594
0.002311
0.002173
0.002186
0.002339
0.002613
0.002980
0.003409
0.003871
0.004338
0.004790
0.005212
0.005595
0.005937
0.006241
0.006513
0.006763
0.007003
0.007245
0.007500
0.007779
0.008089
0.008430
0.008793
0.009555
0.293493
0.287271
0.275754
0.259940
0.239674
0.214723
0.185023
0.150843
0.112934
0.072589
0.031533
-0.008456
-0.045916
-0.079871
-0.109805
-0.135541
-0.157015
-0.174454
-0.187956
-0.197304
-0.202448
-0.203425
-0.200439
-0.193913
-0.184489
-0.172963
-0.160180
-0.146918
-0.133791
-0.121181
-0.109214
-0.097788
-0.086636
-0.075429
-0.063882
-0.051839
-0.039315
-0.026400
-0.013343
-0.001073
0.009788
0.018757
0.025670
0.030095
0.031984
0.031374
0.028282
0.022748
0.014862
0.004889
-0.006443
-0.017663
-0.026726
-0.032000
-0.033376
-0.032910
-0.031604
-0.029459
-0.025963
-0.021625
-0.017096
-0.012612
-0.008432
-0.004736
-0.001626
0.000848
0.002679
0.003904
0.004591
0.004830
0.004723
0.004376
0.003889
0.003355
0.002851
0.002435
0.002150
0.002015
0.002035
0.002199
0.002487
0.002868
0.003311
0.003786
0.004265
0.004726
0.005155
0.005543
0.005888
0.006194
0.006469
0.006722
0.006968
0.007220
0.007492
0.007797
0.008144
0.008536
0.008951
0.009917
0.295725
0.291870
0.282281
0.267556
0.247643
0.222265
0.191228
0.154709
0.113553
0.069439
0.024831
-0.017881
-0.057007
-0.091671
-0.121641
-0.147083
-0.168309
-0.185652
-0.199301
-0.209210
-0.214956
-0.216386
-0.213518
-0.206662
-0.196428
-0.183651
-0.169253
-0.154110
-0.138936
-0.124213
-0.110169
-0.096805
-0.083954
-0.071377
-0.058849
-0.046237
-0.033509
-0.020710
-0.008580
0.002522
0.012153
0.019934
0.025666
0.029342
0.030251
0.028839
0.025272
0.019632
0.012039
0.002814
-0.007293
-0.016994
-0.024770
-0.029666
-0.031871
-0.032321
-0.031325
-0.028634
-0.025014
-0.021005
-0.016867
-0.012511
-0.008419
-0.004788
-0.001710
0.000742
0.002552
0.003755
0.004417
0.004627
0.004489
0.004111
0.003596
0.003040
0.002522
0.002102
0.001820
0.001697
0.001736
0.001923
0.002235
0.002641
0.003107
0.003601
0.004095
0.004568
0.005004
0.005397
0.005744
0.006052
0.006328
0.006587
0.006841
0.007110
0.007410
0.007761
0.008182
0.008697
0.009337
0.010686
0.305112
0.302044
0.293548
0.279637
0.259934
0.233813
0.200683
0.160406
0.113857
0.063325
0.012889
-0.033915
-0.075169
-0.110358
-0.139842
-0.164390
-0.184843
-0.201864
-0.215721
-0.226417
-0.233128
-0.235312
-0.232654
-0.225280
-0.213774
-0.199055
-0.182189
-0.164204
-0.145964
-0.128099
-0.110988
-0.094787
-0.079485
-0.064978
-0.051137
-0.037863
-0.025115
-0.012929
-0.001751
0.008056
0.016140
0.022173
0.025983
0.027594
0.027143
0.024359
0.019980
0.014234
0.007268
-0.000616
-0.008833
-0.016505
-0.022705
-0.026882
-0.029053
-0.029545
-0.028566
-0.026289
-0.023140
-0.019381
-0.015168
-0.011148
-0.007412
-0.004081
-0.001193
0.001098
0.002767
0.003848
0.004402
0.004512
0.004281
0.003817
0.003229
0.002614
0.002055
0.001612
0.001326
0.001215
0.001278
0.001500
0.001851
0.002296
0.002798
0.003323
0.003842
0.004331
0.004778
0.005176
0.005525
0.005831
0.006105
0.006363
0.006621
0.006900
0.007221
0.007612
0.008100
0.008728
0.009554
0.011151
0.320170
0.317521
0.309876
0.296805
0.277436
0.250499
0.214589
0.168773
0.113673
0.052347
-0.007199
-0.059452
-0.102689
-0.137442
-0.165189
-0.187670
-0.206502
-0.222864
-0.237202
-0.249063
-0.257403
-0.260831
-0.258478
-0.250224
-0.236717
-0.219117
-0.198770
-0.176960
-0.154763
-0.132984
-0.112160
-0.092601
-0.074440
-0.057698
-0.042327
-0.028250
-0.015384
-0.003661
0.006762
0.015392
0.021843
0.025747
0.027012
0.025885
0.022861
0.018561
0.013100
0.007190
0.000932
-0.005503
-0.011769
-0.017381
-0.021840
-0.024829
-0.026297
-0.026367
-0.025198
-0.022990
-0.020012
-0.016521
-0.012781
-0.009115
-0.005641
-0.002528
0.000031
0.002042
0.003454
0.004313
0.004671
0.004597
0.004192
0.003570
0.002842
0.002113
0.001468
0.000972
0.000662
0.000557
0.000649
0.000917
0.001325
0.001829
0.002387
0.002961
0.003519
0.004037
0.004502
0.004908
0.005257
0.005558
0.005825
0.006073
0.006324
0.006600
0.006927
0.007334
0.007858
0.008545
0.009458
0.011126
0.340108
0.337883
0.331297
0.319556
0.301191
0.273955
0.234961
0.181454
0.112843
0.032518
-0.040779
-0.098946
-0.142398
-0.174236
-0.197801
-0.216174
-0.232008
-0.247247
-0.262649
-0.277185
-0.288553
-0.294331
-0.292643
-0.283068
-0.266548
-0.244779
-0.219638
-0.192816
-0.165670
-0.139196
-0.114070
-0.090715
-0.069370
-0.050134
-0.033015
-0.017945
-0.004792
0.006636
0.016525
0.024194
0.029113
0.030754
0.029121
0.024758
0.018543
0.011500
0.004638
-0.001449
-0.006955
-0.011927
-0.016278
-0.019877
-0.022536
-0.024102
-0.024529
-0.023874
-0.022252
-0.019830
-0.016817
-0.013440
-0.009927
-0.006501
-0.003327
-0.000555
0.001695
0.003383
0.004520
0.005099
0.005171
0.004828
0.004172
0.003320
0.002392
0.001496
0.000725
0.000144
-0.000205
-0.000309
-0.000178
0.000154
0.000641
0.001230
0.001870
0.002515
0.003129
0.003689
0.004180
0.004599
0.004950
0.005243
0.005495
0.005725
0.005955
0.006211
0.006521
0.006916
0.007435
0.008123
0.009038
0.010659
0.364131
0.362503
0.357538
0.348166
0.332304
0.306426
0.265178
0.201825
0.111390
-0.005029
-0.097168
-0.157848
-0.196163
-0.220295
-0.235776
-0.246974
-0.257659
-0.270843
-0.288126
-0.308340
-0.326023
-0.336381
-0.336266
-0.324953
-0.304190
-0.276728
-0.245309
-0.212198
-0.179080
-0.147130
-0.117122
-0.089545
-0.064684
-0.042685
-0.023589
-0.007353
0.006142
0.017107
0.026151
0.033051
0.036852
0.036616
0.032523
0.025441
0.016492
0.006829
-0.002469
-0.010375
-0.015280
-0.019123
-0.021794
-0.023571
-0.024552
-0.024704
-0.024011
-0.022508
-0.020283
-0.017471
-0.014244
-0.010799
-0.007332
-0.004031
-0.001050
0.001485
0.003484
0.004906
0.005747
0.006025
0.005793
0.005141
0.004177
0.003028
0.001823
0.000690
-0.000263
-0.000947
-0.001344
-0.001440
-0.001252
-0.000826
-0.000225
0.000483
0.001236
0.001979
0.002672
0.003289
0.003816
0.004253
0.004605
0.004886
0.005116
0.005317
0.005513
0.005730
0.005999
0.006352
0.006826
0.007464
0.008315
0.009810
0.391120
0.390353
0.387830
0.382392
0.371584
0.350635
0.310749
0.237203
0.109860
-0.081016
-0.190394
-0.238626
-0.260967
-0.271055
-0.274212
-0.274937
-0.277716
-0.286710
-0.305211
-0.333345
-0.364505
-0.383743
-0.387031
-0.373868
-0.347841
-0.313490
-0.274758
-0.234562
-0.194896
-0.157059
-0.121872
-0.089843
-0.061276
-0.036345
-0.015138
0.002322
0.016041
0.026053
0.032477
0.037636
0.040851
0.039412
0.033895
0.025667
0.015997
0.005804
-0.004157
-0.013145
-0.020639
-0.024558
-0.026409
-0.027060
-0.026930
-0.026045
-0.024452
-0.022207
-0.019400
-0.016154
-0.012627
-0.008999
-0.005450
-0.002151
0.000755
0.003156
0.004977
0.006181
0.006768
0.006763
0.006227
0.005251
0.003954
0.002475
0.000964
-0.000435
-0.001596
-0.002425
-0.002864
-0.002928
-0.002644
-0.002078
-0.001313
-0.000437
0.000471
0.001346
0.002144
0.002836
0.003411
0.003870
0.004223
0.004489
0.004689
0.004849
0.004995
0.005156
0.005361
0.005642
0.006034
0.006577
0.007314
0.008622
0.419476
0.419836
0.420619
0.420929
0.418605
0.408657
0.379475
0.304037
0.114570
-0.247026
-0.332907
-0.328744
-0.322999
-0.316692
-0.306754
-0.296227
-0.289747
-0.291920
-0.308099
-0.341082
-0.386118
-0.425000
-0.434609
-0.420543
-0.389643
-0.348910
-0.303578
-0.257108
-0.211679
-0.168646
-0.128854
-0.092832
-0.060923
-0.033369
-0.010375
0.007857
0.021154
0.029412
0.032812
0.032377
0.031235
0.028530
0.023634
0.017505
0.010640
0.003298
-0.004292
-0.011775
-0.018634
-0.024185
-0.027661
-0.028278
-0.028124
-0.026969
-0.025020
-0.022408
-0.019254
-0.015703
-0.011926
-0.008107
-0.004431
-0.001067
0.001841
0.004187
0.005899
0.006945
0.007323
0.007066
0.006238
0.004934
0.003285
0.001450
-0.000398
-0.002087
-0.003467
-0.004430
-0.004900
-0.004884
-0.004437
-0.003655
-0.002655
-0.001549
-0.000434
0.000615
0.001547
0.002334
0.002967
0.003453
0.003808
0.004053
0.004216
0.004323
0.004405
0.004491
0.004609
0.004791
0.005070
0.005480
0.006060
0.007125
0.447112
0.448749
0.453378
0.460769
0.470071
0.478465
0.476904
0.434911
0.214832
-0.560183
-0.500562
-0.384388
-0.358267
-0.345801
-0.329620
-0.313177
-0.302472
-0.300517
-0.312214
-0.342043
-0.387939
-0.436508
-0.462294
-0.449456
-0.416260
-0.372329
-0.323802
-0.274299
-0.225982
-0.180214
-0.137893
-0.099648
-0.065966
-0.037320
-0.014303
0.002333
0.012109
0.015569
0.014347
0.010569
0.006009
0.002768
0.000857
-0.000593
-0.002102
-0.004106
-0.006910
-0.010579
-0.014875
-0.019266
-0.023058
-0.026234
-0.026892
-0.026242
-0.024621
-0.022188
-0.019102
-0.015546
-0.011721
-0.007839
-0.004104
-0.000703
0.002209
0.004518
0.006146
0.007058
0.007248
0.006749
0.005622
0.003972
0.001943
-0.000281
-0.002493
-0.004484
-0.006072
-0.007129
-0.007574
-0.007385
-0.006668
-0.005570
-0.004247
-0.002839
-0.001462
-0.000202
0.000891
0.001789
0.002491
0.003007
0.003361
0.003580
0.003697
0.003742
0.003746
0.003740
0.003752
0.003812
0.003948
0.004192
0.004578
0.005348
0.471666
0.474498
0.482765
0.497076
0.518462
0.548282
0.587596
0.633680
0.721092
0.080454
-0.434788
-0.369015
-0.363400
-0.357090
-0.348162
-0.337772
-0.329389
-0.325848
-0.332209
-0.352824
-0.387562
-0.426825
-0.452953
-0.450037
-0.417408
-0.374471
-0.327523
-0.279717
-0.232909
-0.188387
-0.147146
-0.110025
-0.077848
-0.051578
-0.032338
-0.021002
-0.017367
-0.019581
-0.024622
-0.029628
-0.032797
-0.031987
-0.028497
-0.023762
-0.018870
-0.014680
-0.011834
-0.010702
-0.011320
-0.013382
-0.016317
-0.019501
-0.022064
-0.023002
-0.022309
-0.020610
-0.018072
-0.014907
-0.011349
-0.007645
-0.004033
-0.000727
0.002096
0.004302
0.005801
0.006541
0.006509
0.005727
0.004257
0.002209
-0.000252
-0.002907
-0.005504
-0.007786
-0.009535
-0.010608
-0.010887
-0.010377
-0.009259
-0.007736
-0.006006
-0.004237
-0.002559
-0.001061
0.000207
0.001224
0.001994
0.002539
0.002887
0.003074
0.003136
0.003108
0.003023
0.002912
0.002801
0.002717
0.002687
0.002738
0.002897
0.003321
0.490942
0.494610
0.505411
0.524478
0.553975
0.597668
0.662073
0.758028
0.889764
0.909718
0.000000
-0.366449
-0.363884
-0.365658
-0.366689
-0.367359
-0.367013
-0.367133
-0.370713
-0.379894
-0.393945
-0.410722
-0.418174
-0.413866
-0.389572
-0.351042
-0.309685
-0.267920
-0.227041
-0.188137
-0.152253
-0.120459
-0.093973
-0.074211
-0.062478
-0.059084
-0.062394
-0.068948
-0.074922
-0.077643
-0.075084
-0.067801
-0.057654
-0.046295
-0.035055
-0.024972
-0.016808
-0.011048
-0.007880
-0.007163
-0.008438
-0.010996
-0.013939
-0.016430
-0.017569
-0.017019
-0.015447
-0.013064
-0.010123
-0.006899
-0.003664
-0.000662
0.001900
0.003862
0.005111
0.005575
0.005222
0.004063
0.002154
-0.000380
-0.003345
-0.006474
-0.009455
-0.011977
-0.013784
-0.014726
-0.014629
-0.013633
-0.011991
-0.009960
-0.007773
-0.005616
-0.003627
-0.001893
-0.000457
0.000668
0.001497
0.002059
0.002391
0.002537
0.002536
0.002426
0.002243
0.002014
0.001768
0.001527
0.001313
0.001147
0.001051
0.001082
0.503401
0.507377
0.519057
0.539555
0.570826
0.615741
0.677554
0.757946
0.850806
0.929671
0.834325
0.000000
-0.369342
-0.374801
-0.386458
-0.402601
-0.418264
-0.429045
-0.430968
-0.423203
-0.409858
-0.394496
-0.375787
-0.356354
-0.331664
-0.302157
-0.268005
-0.234810
-0.202955
-0.173148
-0.146396
-0.123962
-0.107407
-0.098357
-0.097629
-0.104004
-0.113930
-0.122853
-0.127196
-0.124487
-0.113977
-0.099270
-0.082188
-0.064458
-0.047489
-0.032342
-0.019749
-0.010158
-0.003753
-0.000453
0.000100
-0.001454
-0.004247
-0.007347
-0.009941
-0.011165
-0.010830
-0.009538
-0.007520
-0.005065
-0.002470
-0.000010
0.002080
0.003611
0.004441
0.004473
0.003652
0.001973
-0.000504
-0.003633
-0.007175
-0.010798
-0.014123
-0.016785
-0.018503
-0.019111
-0.018409
-0.016792
-0.014553
-0.011986
-0.009345
-0.006823
-0.004555
-0.002619
-0.001049
0.000155
0.001018
0.001577
0.001880
0.001972
0.001899
0.001701
0.001411
0.001059
0.000670
0.000261
-0.000149
-0.000547
-0.000918
-0.001320
0.508478
0.512233
0.523189
0.542102
0.570234
0.609080
0.659658
0.719615
0.774799
0.788059
0.738979
0.614731
0.000000
-0.391376
-0.407951
-0.445494
-0.482111
-0.509688
-0.508266
-0.477990
-0.431798
-0.380938
-0.332698
-0.291206
-0.255492
-0.228200
-0.202161
-0.178112
-0.156611
-0.137991
-0.123316
-0.114051
-0.111861
-0.117844
-0.131194
-0.148414
-0.164253
-0.173862
-0.174306
-0.163108
-0.145225
-0.123474
-0.100076
-0.076844
-0.055170
-0.036035
-0.020063
-0.007582
0.001312
0.006725
0.008962
0.008558
0.006276
0.003026
-0.000290
-0.002954
-0.004171
-0.004159
-0.003270
-0.001798
-0.000058
0.001650
0.003067
0.003976
0.004206
0.003629
0.002168
-0.000192
-0.003378
-0.007208
-0.011377
-0.015479
-0.019064
-0.021729
-0.023218
-0.023099
-0.021727
-0.019452
-0.016626
-0.013569
-0.010538
-0.007724
-0.005249
-0.003178
-0.001530
-0.000293
0.000569
0.001101
0.001355
0.001382
0.001229
0.000936
0.000537
0.000060
-0.000476
-0.001055
-0.001666
-0.002303
-0.002959
-0.003820
0.506588
0.509785
0.519024
0.534663
0.557098
0.586330
0.620907
0.655474
0.676571
0.658964
0.585171
0.490483
0.312991
0.000000
-0.461163
-0.514375
-0.556058
-0.590981
-0.577366
-0.522502
-0.446184
-0.363910
-0.287257
-0.223568
-0.175384
-0.140951
-0.116344
-0.101195
-0.089922
-0.083398
-0.083097
-0.090450
-0.106444
-0.130505
-0.159360
-0.187253
-0.207912
-0.217073
-0.210335
-0.191349
-0.166667
-0.139047
-0.110746
-0.083510
-0.058596
-0.036822
-0.018644
-0.004241
0.006409
0.013468
0.017211
0.018064
0.016636
0.013717
0.010181
0.006824
0.004208
0.002919
0.002620
0.003016
0.003777
0.004593
0.005186
0.005317
0.004783
0.003431
0.001164
-0.002031
-0.006054
-0.010662
-0.015472
-0.019994
-0.023715
-0.026204
-0.027177
-0.026250
-0.024169
-0.021285
-0.017965
-0.014531
-0.011232
-0.008242
-0.005663
-0.003544
-0.001888
-0.000672
0.000148
0.000625
0.000813
0.000764
0.000526
0.000138
-0.000369
-0.000969
-0.001648
-0.002393
-0.003202
-0.004074
-0.005015
-0.006340
0.498762
0.501157
0.507977
0.519173
0.534423
0.552659
0.571137
0.583868
0.579614
0.540651
0.448899
0.294733
0.135500
-0.317454
-0.609826
-0.549948
-0.597484
-0.631379
-0.598696
-0.527038
-0.433756
-0.334342
-0.241002
-0.161949
-0.101222
-0.058674
-0.031721
-0.018571
-0.015284
-0.020124
-0.034988
-0.060369
-0.095463
-0.137271
-0.180091
-0.216529
-0.239791
-0.245394
-0.230358
-0.206073
-0.176746
-0.145440
-0.114397
-0.085197
-0.058881
-0.036055
-0.016991
-0.001715
0.009911
0.018117
0.023174
0.025401
0.025226
0.023241
0.020171
0.016761
0.013601
0.011208
0.009860
0.009237
0.009013
0.008887
0.008577
0.007826
0.006408
0.004148
0.000940
-0.003209
-0.008150
-0.013564
-0.018973
-0.023811
-0.027523
-0.029696
-0.029650
-0.028085
-0.025427
-0.022090
-0.018449
-0.014814
-0.011409
-0.008383
-0.005819
-0.003744
-0.002152
-0.001008
-0.000263
0.000136
0.000245
0.000116
-0.000207
-0.000687
-0.001295
-0.002011
-0.002823
-0.003725
-0.004719
-0.005813
-0.007024
-0.008792
0.486483
0.487982
0.492158
0.498676
0.506760
0.514789
0.519629
0.515687
0.493842
0.440548
0.337733
0.160417
-0.144707
-0.770407
-0.669704
-0.570940
-0.591354
-0.593784
-0.553597
-0.481045
-0.389299
-0.291117
-0.197198
-0.115494
-0.050698
-0.003606
0.027979
0.045988
0.047169
0.034231
0.006273
-0.034590
-0.085052
-0.139860
-0.191671
-0.232328
-0.254994
-0.251341
-0.233057
-0.206238
-0.175247
-0.143136
-0.111976
-0.083109
-0.057336
-0.035063
-0.016411
-0.001299
0.010485
0.019224
0.025216
0.028736
0.030064
0.029567
0.027745
0.025184
0.022402
0.019762
0.017782
0.016389
0.015307
0.014289
0.013078
0.011413
0.009053
0.005812
0.001594
-0.003555
-0.009416
-0.015576
-0.021465
-0.026450
-0.029973
-0.031316
-0.030535
-0.028442
-0.025417
-0.021863
-0.018132
-0.014501
-0.011166
-0.008248
-0.005807
-0.003858
-0.002384
-0.001348
-0.000701
-0.000390
-0.000362
-0.000569
-0.000970
-0.001532
-0.002230
-0.003047
-0.003977
-0.005018
-0.006177
-0.007470
-0.008922
-0.011089
0.471407
0.472045
0.473715
0.475936
0.477736
0.477354
0.471812
0.456368
0.423963
0.364705
0.265247
0.107680
-0.131728
-0.438125
-0.506394
-0.509128
-0.515854
-0.503505
-0.467040
-0.407321
-0.331922
-0.249910
-0.169527
-0.097118
-0.036583
0.010709
0.044808
0.067208
0.075968
0.060379
0.025824
-0.022701
-0.079932
-0.139130
-0.192161
-0.231067
-0.245488
-0.238140
-0.219079
-0.193003
-0.163690
-0.133823
-0.105165
-0.078791
-0.055289
-0.034917
-0.017708
-0.003554
0.007754
0.016482
0.022919
0.027339
0.029988
0.031100
0.030946
0.029904
0.028285
0.026658
0.025056
0.023418
0.021794
0.020087
0.018103
0.015600
0.012343
0.008154
0.002971
-0.003102
-0.009757
-0.016483
-0.022625
-0.027516
-0.030406
-0.030837
-0.029709
-0.027399
-0.024311
-0.020822
-0.017246
-0.013821
-0.010711
-0.008012
-0.005772
-0.003998
-0.002671
-0.001756
-0.001208
-0.000978
-0.001021
-0.001292
-0.001757
-0.002385
-0.003157
-0.004059
-0.005086
-0.006243
-0.007540
-0.009000
-0.010653
-0.013152
0.455133
0.455015
0.454519
0.453133
0.449885
0.443143
0.430364
0.407836
0.370471
0.311774
0.224108
0.099982
-0.062459
-0.241509
-0.341054
-0.386376
-0.404894
-0.399156
-0.374537
-0.332108
-0.276685
-0.214464
-0.151459
-0.092564
-0.041083
0.001302
0.033983
0.058788
0.065832
0.052404
0.020539
-0.025285
-0.078906
-0.132808
-0.178583
-0.208249
-0.215333
-0.208513
-0.192098
-0.169996
-0.145295
-0.120185
-0.096086
-0.073834
-0.053853
-0.036306
-0.021193
-0.008426
0.002135
0.010667
0.017372
0.022456
0.026115
0.028523
0.029833
0.030494
0.030904
0.030860
0.030076
0.028772
0.027109
0.025112
0.022664
0.019568
0.015620
0.010682
0.004749
-0.001999
-0.009162
-0.016138
-0.022215
-0.026571
-0.028485
-0.028723
-0.027569
-0.025387
-0.022549
-0.019386
-0.016167
-0.013095
-0.010307
-0.007887
-0.005876
-0.004283
-0.003096
-0.002286
-0.001816
-0.001647
-0.001738
-0.002053
-0.002561
-0.003236
-0.004061
-0.005026
-0.006128
-0.007374
-0.008777
-0.010362
-0.012166
-0.014916
0.439060
0.438318
0.436059
0.431828
0.424774
0.413533
0.396103
0.369767
0.331107
0.276258
0.201555
0.105073
-0.009829
-0.129026
-0.217241
-0.271909
-0.300266
-0.306294
-0.294370
-0.267565
-0.229529
-0.184697
-0.137486
-0.091679
-0.050079
-0.014442
0.014710
0.034298
0.039906
0.029703
0.004639
-0.031921
-0.074629
-0.116674
-0.150701
-0.169196
-0.175160
-0.170788
-0.159019
-0.142706
-0.124187
-0.105157
-0.086714
-0.069476
-0.053719
-0.039508
-0.026809
-0.015568
-0.005741
0.002709
0.009832
0.015706
0.020429
0.024108
0.027134
0.029430
0.030999
0.031860
0.031967
0.031401
0.030227
0.028442
0.025964
0.022656
0.018376
0.013052
0.006749
-0.000272
-0.007538
-0.014394
-0.019892
-0.023421
-0.025318
-0.025712
-0.024867
-0.023104
-0.020746
-0.018073
-0.015317
-0.012651
-0.010201
-0.008049
-0.006240
-0.004793
-0.003706
-0.002962
-0.002535
-0.002394
-0.002505
-0.002838
-0.003365
-0.004065
-0.004923
-0.005929
-0.007082
-0.008387
-0.009861
-0.011527
-0.013425
-0.016328
0.424347
0.423098
0.419440
0.413035
0.403226
0.388960
0.368761
0.340748
0.302762
0.252689
0.189081
0.112236
0.025912
-0.061040
-0.133517
-0.185727
-0.217975
-0.232075
-0.230411
-0.215787
-0.191205
-0.160018
-0.125573
-0.090851
-0.058241
-0.029484
-0.005917
0.009601
0.014794
0.008480
-0.008760
-0.034464
-0.064510
-0.093662
-0.116508
-0.130224
-0.135681
-0.133915
-0.126756
-0.116149
-0.103781
-0.090904
-0.078305
-0.066356
-0.055123
-0.044493
-0.034327
-0.024566
-0.015280
-0.006627
0.001223
0.008157
0.014123
0.019289
0.023564
0.026981
0.029568
0.031332
0.032276
0.032438
0.031846
0.030480
0.028263
0.025084
0.020846
0.015529
0.009258
0.002354
-0.004704
-0.010988
-0.016107
-0.019805
-0.022012
-0.022834
-0.022500
-0.021293
-0.019489
-0.017329
-0.015014
-0.012706
-0.010530
-0.008574
-0.006898
-0.005532
-0.004487
-0.003761
-0.003335
-0.003187
-0.003289
-0.003616
-0.004142
-0.004849
-0.005720
-0.006748
-0.007929
-0.009268
-0.010777
-0.012478
-0.014407
-0.017350
0.411935
0.410245
0.405433
0.397350
0.385559
0.369313
0.347575
0.319099
0.282595
0.237017
0.182026
0.118647
0.050033
-0.018127
-0.078147
-0.125257
-0.157869
-0.176241
-0.181580
-0.175700
-0.160970
-0.139983
-0.115340
-0.089434
-0.064306
-0.041614
-0.022919
-0.010158
-0.004766
-0.007454
-0.017787
-0.034052
-0.053405
-0.072339
-0.087813
-0.097987
-0.102695
-0.102579
-0.098822
-0.092771
-0.085639
-0.078310
-0.071260
-0.064560
-0.057960
-0.051042
-0.043430
-0.034987
-0.025909
-0.016642
-0.007679
0.000635
0.008059
0.014508
0.019971
0.024471
0.028032
0.030670
0.032404
0.033264
0.033265
0.032390
0.030572
0.027718
0.023746
0.018657
0.012594
0.005896
-0.000938
-0.007387
-0.012839
-0.016974
-0.019665
-0.020985
-0.021153
-0.020442
-0.019104
-0.017350
-0.015355
-0.013280
-0.011262
-0.009401
-0.007770
-0.006413
-0.005355
-0.004601
-0.004143
-0.003962
-0.004036
-0.004340
-0.004852
-0.005553
-0.006427
-0.007462
-0.008655
-0.010004
-0.011519
-0.013213
-0.015112
-0.017953
0.402647
0.400465
0.394550
0.385055
0.371779
0.354215
0.331653
0.303293
0.268402
0.226547
0.177913
0.123677
0.066340
0.009749
-0.041497
-0.083858
-0.115454
-0.135829
-0.145521
-0.145601
-0.137848
-0.124269
-0.106922
-0.087751
-0.068481
-0.050603
-0.035505
-0.024560
-0.018768
-0.018589
-0.023715
-0.032995
-0.044586
-0.056330
-0.066452
-0.073350
-0.076829
-0.077324
-0.075695
-0.072953
-0.070001
-0.067435
-0.065436
-0.063749
-0.061744
-0.058579
-0.053477
-0.046094
-0.036767
-0.026384
-0.015891
-0.006133
0.002751
0.010551
0.017212
0.022750
0.027206
0.030626
0.033052
0.034527
0.035080
0.034704
0.033330
0.030857
0.027180
0.022284
0.016138
0.009145
0.001930
-0.004989
-0.011021
-0.015718
-0.018870
-0.020541
-0.020999
-0.020572
-0.019511
-0.017989
-0.016152
-0.014160
-0.012181
-0.010322
-0.008666
-0.007269
-0.006162
-0.005356
-0.004853
-0.004632
-0.004673
-0.004951
-0.005448
-0.006140
-0.007011
-0.008049
-0.009243
-0.010589
-0.012089
-0.013748
-0.015571
-0.018139
0.397404
0.394352
0.387068
0.376192
0.361691
0.343188
0.320165
0.292101
0.258600
0.219563
0.175407
0.127272
0.077161
0.027860
-0.017486
-0.056190
-0.086488
-0.107681
-0.119953
-0.123943
-0.120973
-0.112620
-0.100536
-0.086316
-0.071405
-0.057077
-0.044447
-0.034605
-0.028341
-0.026024
-0.027465
-0.031868
-0.038019
-0.044888
-0.050772
-0.054857
-0.056981
-0.057510
-0.057157
-0.056745
-0.056974
-0.058223
-0.060431
-0.063074
-0.065211
-0.065589
-0.062890
-0.056314
-0.046221
-0.034481
-0.022708
-0.011318
-0.000937
0.008148
0.015870
0.022266
0.027415
0.031398
0.034295
0.036179
0.037117
0.037141
0.036143
0.034007
0.030301
0.025101
0.018700
0.011356
0.003562
-0.004053
-0.010784
-0.016029
-0.019474
-0.021196
-0.021588
-0.021145
-0.020154
-0.018734
-0.016939
-0.014912
-0.012913
-0.011019
-0.009319
-0.007880
-0.006737
-0.005901
-0.005363
-0.005114
-0.005135
-0.005402
-0.005890
-0.006579
-0.007450
-0.008488
-0.009681
-0.011021
-0.012501
-0.014116
-0.015861
-0.017978
0.397843
0.392358
0.382957
0.370553
0.354976
0.335758
0.312431
0.284626
0.252129
0.215017
0.173793
0.129519
0.083868
0.039029
-0.002595
-0.038829
-0.068000
-0.089523
-0.103272
-0.109682
-0.109781
-0.104855
-0.096284
-0.085410
-0.073466
-0.061547
-0.050614
-0.041300
-0.034495
-0.030602
-0.029542
-0.030633
-0.033501
-0.036997
-0.040126
-0.042330
-0.043510
-0.043994
-0.044397
-0.045415
-0.047607
-0.051207
-0.056009
-0.061351
-0.066202
-0.069212
-0.068683
-0.062823
-0.052383
-0.039995
-0.026676
-0.013886
-0.002358
0.007623
0.016020
0.022910
0.028406
0.032621
0.035660
0.037631
0.038661
0.038942
0.037992
0.035581
0.031834
0.026628
0.020068
0.012433
0.004214
-0.003907
-0.011140
-0.016764
-0.020358
-0.021956
-0.021989
-0.021269
-0.020185
-0.018808
-0.017184
-0.015354
-0.013353
-0.011413
-0.009671
-0.008199
-0.007033
-0.006181
-0.005636
-0.005384
-0.005403
-0.005671
-0.006164
-0.006858
-0.007735
-0.008777
-0.009970
-0.011301
-0.012759
-0.014335
-0.016029
-0.017664
0.408435
0.394116
0.381623
0.367874
0.351494
0.331783
0.308272
0.280621
0.248689
0.212614
0.172913
0.130583
0.087122
0.044441
0.004611
-0.030495
-0.059551
-0.081396
-0.095752
-0.103157
-0.104535
-0.101049
-0.093960
-0.084511
-0.073854
-0.063021
-0.052922
-0.044341
-0.037468
-0.032797
-0.030652
-0.031011
-0.032786
-0.035092
-0.037214
-0.038696
-0.039462
-0.039814
-0.040311
-0.041581
-0.044117
-0.048104
-0.053298
-0.059016
-0.064210
-0.067585
-0.067717
-0.063545
-0.054388
-0.041317
-0.027352
-0.014075
-0.002204
0.008010
0.016558
0.023532
0.029055
0.033246
0.036217
0.038075
0.038920
0.038658
0.037511
0.035130
0.031398
0.026272
0.019856
0.012424
0.004442
-0.003449
-0.010516
-0.016089
-0.019767
-0.021568
-0.021934
-0.021263
-0.020105
-0.018701
-0.017091
-0.015294
-0.013373
-0.011486
-0.009772
-0.008317
-0.007160
-0.006314
-0.005773
-0.005523
-0.005544
-0.005812
-0.006306
-0.007001
-0.007878
-0.008919
-0.010108
-0.011429
-0.012866
-0.014403
-0.016019
-0.017471
