# vtk DataFile Version 3.0
Vector Field
ASCII
DATASET RECTILINEAR_GRID
DIMENSIONS 100 26 1
X_COORDINATES 100 double
0.050000 0.150000 0.250000 0.350000 0.450000 0.550000 0.650000 0.750000 0.850000 0.950000 1.050000 1.150000 1.250000 1.350000 1.450000 1.550000 1.650000 1.750000 1.850000 1.950000 2.050000 2.150000 2.250000 2.350000 2.450000 2.550000 2.650000 2.750000 2.850000 2.950000 3.050000 3.150000 3.250000 3.350000 3.450000 3.550000 3.650000 3.750000 3.850000 3.950000 4.050000 4.150000 4.250000 4.350000 4.450000 4.550000 4.650000 4.750000 4.850000 4.950000 5.050000 5.150000 5.250000 5.350000 5.450000 5.550000 5.650000 5.750000 5.850000 5.950000 6.050000 6.150000 6.250000 6.350000 6.450000 6.550000 6.650000 6.750000 6.850000 6.950000 7.050000 7.150000 7.250000 7.350000 7.450000 7.550000 7.650000 7.750000 7.850000 7.950000 8.050000 8.150000 8.250000 8.350000 8.450000 8.550000 8.650000 8.750000 8.850000 8.950000 9.050000 9.150000 9.250000 9.350000 9.450000 9.550000 9.650000 9.750000 9.850000 9.950000 
Y_COORDINATES 26 double
0.050000 0.150000 0.250000 0.350000 0.450000 0.550000 0.650000 0.750000 0.850000 0.950000 1.050000 1.150000 1.250000 1.350000 1.450000 1.550000 1.650000 1.750000 1.850000 1.950000 2.050000 2.150000 2.250000 2.350000 2.450000 2.550000 
Z_COORDINATES 1 double
0.0
POINT_DATA 2600
VECTORS Vektorfeld double
0.997623 0.002377 0.0
0.992684 0.002561 0.0
0.988961 0.001162 0.0
0.988741 -0.000942 0.0
0.993044 -0.003361 0.0
1.002246 -0.005841 0.0
1.016221 -0.008135 0.0
1.034350 -0.009993 0.0
1.055525 -0.011182 0.0
1.078262 -0.011555 0.0
1.100919 -0.011102 0.0
1.121965 -0.009943 0.0
1.140158 -0.008251 0.0
1.154600 -0.006191 0.0
1.164678 -0.003887 0.0
1.170008 -0.001443 0.0
1.170496 0.000955 0.0
1.166058 0.003483 0.0
1.156368 0.006207 0.0
1.141052 0.009109 0.0
1.119812 0.012131 0.0
1.092514 0.015168 0.0
1.059264 0.018082 0.0
1.020463 0.020720 0.0
0.976814 0.022929 0.0
0.929308 0.024577 0.0
0.879175 0.025555 0.0
0.827835 0.025785 0.0
0.776833 0.025217 0.0
0.727780 0.023836 0.0
0.682278 0.021665 0.0
0.641845 0.018768 0.0
0.607822 0.015254 0.0
0.581320 0.011248 0.0
0.563330 0.006742 0.0
0.555035 0.001553 0.0
0.556747 -0.003265 0.0
0.566492 -0.006480 0.0
0.581008 -0.008035 0.0
0.597219 -0.008177 0.0
0.612571 -0.007175 0.0
0.625071 -0.005326 0.0
0.633399 -0.003003 0.0
0.636837 -0.000435 0.0
0.634284 0.002988 0.0
0.624111 0.007184 0.0
0.605258 0.011669 0.0
0.577633 0.015956 0.0
0.542065 0.019613 0.0
0.500233 0.022220 0.0
0.454819 0.023194 0.0
0.409890 0.021734 0.0
0.370821 0.017335 0.0
0.342772 0.010714 0.0
0.328090 0.003967 0.0
0.324784 -0.000661 0.0
0.328030 -0.002585 0.0
0.333974 -0.003359 0.0
0.341264 -0.003931 0.0
0.349396 -0.004201 0.0
0.357680 -0.004082 0.0
0.365420 -0.003658 0.0
0.372109 -0.003031 0.0
0.377441 -0.002300 0.0
0.381285 -0.001544 0.0
0.383640 -0.000811 0.0
0.384511 -0.000060 0.0
0.383606 0.000965 0.0
0.380419 0.002221 0.0
0.374774 0.003424 0.0
0.367006 0.004344 0.0
0.357848 0.004815 0.0
0.348302 0.004731 0.0
0.339475 0.004096 0.0
0.332313 0.003065 0.0
0.327324 0.001925 0.0
0.324388 0.001011 0.0
0.322797 0.000580 0.0
0.321503 0.000714 0.0
0.319496 0.001292 0.0
0.316160 0.002043 0.0
0.311453 0.002664 0.0
0.305851 0.002938 0.0
0.300107 0.002806 0.0
0.294939 0.002362 0.0
0.290793 0.001783 0.0
0.287770 0.001240 0.0
0.285707 0.000822 0.0
0.284405 0.000480 0.0
0.283812 0.000112 0.0
0.284032 -0.000331 0.0
0.285128 -0.000765 0.0
0.287007 -0.001114 0.0
0.289438 -0.001317 0.0
0.292083 -0.001327 0.0
0.294540 -0.001130 0.0
0.296421 -0.000752 0.0
0.297438 -0.000264 0.0
0.297539 0.000163 0.0
0.296271 0.001105 0.0
1.002913 0.001842 0.0
1.011252 -0.000303 0.0
1.024111 -0.005110 0.0
1.040974 -0.011313 0.0
1.061885 -0.018204 0.0
1.086879 -0.025193 0.0
1.115758 -0.031638 0.0
1.147964 -0.036824 0.0
1.182511 -0.040073 0.0
1.218029 -0.040920 0.0
1.252996 -0.039362 0.0
1.286069 -0.035802 0.0
1.316285 -0.030801 0.0
1.343068 -0.024866 0.0
1.366116 -0.018337 0.0
1.385193 -0.011399 0.0
1.399783 -0.004167 0.0
1.409280 0.003546 0.0
1.413234 0.011879 0.0
1.411187 0.020800 0.0
1.402743 0.030125 0.0
1.387690 0.039525 0.0
1.366095 0.048570 0.0
1.338346 0.056782 0.0
1.305159 0.063703 0.0
1.267539 0.068930 0.0
1.226736 0.072138 0.0
1.184188 0.073090 0.0
1.141463 0.071638 0.0
1.100195 0.067736 0.0
1.062009 0.061453 0.0
1.028441 0.052982 0.0
1.000853 0.042651 0.0
0.980339 0.030867 0.0
0.967474 0.017977 0.0
0.961687 0.004400 0.0
0.961794 -0.007931 0.0
0.967450 -0.017216 0.0
0.978832 -0.023196 0.0
0.995591 -0.025987 0.0
1.016544 -0.025668 0.0
1.039500 -0.022289 0.0
1.061156 -0.016024 0.0
1.077466 -0.007162 0.0
1.085513 0.004222 0.0
1.084069 0.017567 0.0
1.072666 0.031542 0.0
1.051613 0.044761 0.0
1.022038 0.055951 0.0
0.985860 0.063891 0.0
0.945595 0.067201 0.0
0.903793 0.064459 0.0
0.862216 0.055257 0.0
0.821467 0.041590 0.0
0.781830 0.027410 0.0
0.745262 0.015770 0.0
0.716404 0.006596 0.0
0.699493 -0.001573 0.0
0.694459 -0.007972 0.0
0.697962 -0.011794 0.0
0.706879 -0.013690 0.0
0.719364 -0.014276 0.0
0.734144 -0.013882 0.0
0.750092 -0.012729 0.0
0.766062 -0.010929 0.0
0.780787 -0.008506 0.0
0.792987 -0.005436 0.0
0.801991 -0.001757 0.0
0.808070 0.002052 0.0
0.811820 0.005487 0.0
0.813766 0.008103 0.0
0.814419 0.009561 0.0
0.814200 0.009750 0.0
0.813233 0.008871 0.0
0.811242 0.007443 0.0
0.807611 0.006168 0.0
0.801630 0.005685 0.0
0.792797 0.006331 0.0
0.781043 0.008012 0.0
0.766809 0.010235 0.0
0.750992 0.012253 0.0
0.734824 0.013330 0.0
0.719665 0.013032 0.0
0.706751 0.011371 0.0
0.696923 0.008793 0.0
0.690463 0.005957 0.0
0.687143 0.003410 0.0
0.686498 0.001360 0.0
0.687971 -0.000227 0.0
0.690893 -0.001510 0.0
0.694686 -0.002722 0.0
0.699110 -0.003894 0.0
0.704053 -0.004806 0.0
0.709266 -0.005271 0.0
0.714374 -0.005127 0.0
0.718890 -0.004303 0.0
0.722283 -0.002852 0.0
0.724071 -0.000969 0.0
0.723773 0.001064 0.0
0.721929 0.003316 0.0
1.001816 -0.002887 0.0
1.008300 -0.010397 0.0
1.020112 -0.019688 0.0
1.036824 -0.030309 0.0
1.058434 -0.041728 0.0
1.085015 -0.053243 0.0
1.116448 -0.063900 0.0
1.152181 -0.072500 0.0
1.191042 -0.077805 0.0
1.231171 -0.078835 0.0
1.270416 -0.075659 0.0
1.307038 -0.069200 0.0
1.340026 -0.060606 0.0
1.368995 -0.050814 0.0
1.393932 -0.040373 0.0
1.414931 -0.029439 0.0
1.432039 -0.017824 0.0
1.445078 -0.005333 0.0
1.453658 0.008224 0.0
1.457280 0.022879 0.0
1.455437 0.038332 0.0
1.447789 0.054019 0.0
1.434265 0.069196 0.0
1.415109 0.083060 0.0
1.390873 0.094848 0.0
1.362369 0.103909 0.0
1.330601 0.109730 0.0
1.296706 0.111941 0.0
1.261897 0.110320 0.0
1.227413 0.104806 0.0
1.194463 0.095519 0.0
1.164167 0.082780 0.0
1.137481 0.067128 0.0
1.115099 0.049286 0.0
1.097341 0.030181 0.0
1.084210 0.011113 0.0
1.076006 -0.006546 0.0
1.073630 -0.021881 0.0
1.078074 -0.034356 0.0
1.089846 -0.043359 0.0
1.108605 -0.048008 0.0
1.132991 -0.047290 0.0
1.160676 -0.040364 0.0
1.188560 -0.027015 0.0
1.212987 -0.008400 0.0
1.231000 0.013620 0.0
1.241050 0.036843 0.0
1.242495 0.059068 0.0
1.235459 0.078255 0.0
1.220692 0.092532 0.0
1.199278 0.100239 0.0
1.172217 0.100284 0.0
1.140244 0.092981 0.0
1.104318 0.080541 0.0
1.066441 0.065973 0.0
1.029361 0.050855 0.0
0.994658 0.035071 0.0
0.962085 0.019435 0.0
0.932360 0.005778 0.0
0.908592 -0.005279 0.0
0.893090 -0.013619 0.0
0.885381 -0.019124 0.0
0.883827 -0.022259 0.0
0.886965 -0.023438 0.0
0.893615 -0.022840 0.0
0.902843 -0.020549 0.0
0.913968 -0.016719 0.0
0.926390 -0.011901 0.0
0.939394 -0.006886 0.0
0.952431 -0.002362 0.0
0.965349 0.001089 0.0
0.978150 0.003122 0.0
0.990756 0.003802 0.0
1.002907 0.003634 0.0
1.014142 0.003435 0.0
1.023890 0.004059 0.0
1.031573 0.006091 0.0
1.036714 0.009616 0.0
1.039003 0.014192 0.0
1.038234 0.019058 0.0
1.034244 0.023236 0.0
1.026924 0.025835 0.0
1.016207 0.026403 0.0
1.002131 0.024991 0.0
0.985028 0.022103 0.0
0.965742 0.018394 0.0
0.945698 0.014338 0.0
0.926690 0.010085 0.0
0.910606 0.005658 0.0
0.899192 0.001096 0.0
0.893425 -0.003354 0.0
0.892824 -0.007084 0.0
0.896033 -0.009768 0.0
0.901874 -0.011363 0.0
0.909416 -0.011685 0.0
0.917749 -0.010594 0.0
0.925887 -0.008092 0.0
0.932749 -0.004380 0.0
0.937369 0.000154 0.0
0.938440 0.004999 0.0
1.001426 -0.006130 0.0
1.006971 -0.019183 0.0
1.017824 -0.033567 0.0
1.034005 -0.049324 0.0
1.055821 -0.066139 0.0
1.083683 -0.083275 0.0
1.117830 -0.099448 0.0
1.157916 -0.112770 0.0
1.202634 -0.121115 0.0
1.249150 -0.122170 0.0
1.293900 -0.116318 0.0
1.334402 -0.105666 0.0
1.369695 -0.092420 0.0
1.399860 -0.078135 0.0
1.425452 -0.063581 0.0
1.447063 -0.048842 0.0
1.465038 -0.033505 0.0
1.479305 -0.016959 0.0
1.489341 0.001235 0.0
1.494431 0.021157 0.0
1.493908 0.042419 0.0
1.487305 0.064182 0.0
1.474544 0.085318 0.0
1.455990 0.104647 0.0
1.432370 0.121117 0.0
1.404627 0.133888 0.0
1.373804 0.142342 0.0
1.340960 0.146068 0.0
1.307118 0.144844 0.0
1.273246 0.138640 0.0
1.240239 0.127641 0.0
1.208919 0.112274 0.0
1.180021 0.093219 0.0
1.154191 0.071406 0.0
1.132033 0.047978 0.0
1.114277 0.024202 0.0
1.101900 0.000946 0.0
1.096097 -0.021196 0.0
1.098035 -0.041422 0.0
1.108405 -0.058434 0.0
1.127129 -0.070416 0.0
1.153286 -0.075425 0.0
1.185209 -0.071838 0.0
1.220538 -0.058753 0.0
1.256095 -0.036646 0.0
1.287924 -0.007975 0.0
1.312736 0.023575 0.0
1.329242 0.054384 0.0
1.337406 0.081811 0.0
1.337527 0.103622 0.0
1.330003 0.118088 0.0
1.315188 0.124311 0.0
1.293495 0.122620 0.0
1.265766 0.114557 0.0
1.233510 0.102089 0.0
1.198564 0.086765 0.0
1.162589 0.069840 0.0
1.127122 0.052705 0.0
1.093369 0.035985 0.0
1.061606 0.020045 0.0
1.032250 0.005916 0.0
1.007046 -0.005748 0.0
0.987643 -0.014679 0.0
0.974162 -0.020675 0.0
0.965777 -0.023868 0.0
0.961534 -0.024506 0.0
0.960585 -0.022936 0.0
0.962268 -0.019789 0.0
0.966215 -0.015949 0.0
0.972347 -0.012468 0.0
0.980811 -0.010186 0.0
0.991896 -0.009489 0.0
1.005917 -0.010215 0.0
1.023082 -0.011664 0.0
1.043339 -0.012758 0.0
1.066210 -0.012366 0.0
1.090691 -0.009648 0.0
1.115246 -0.004341 0.0
1.137979 0.003128 0.0
1.157146 0.011724 0.0
1.171564 0.020142 0.0
1.180491 0.027322 0.0
1.183385 0.032738 0.0
1.180005 0.036113 0.0
1.170607 0.037480 0.0
1.155962 0.036946 0.0
1.137240 0.034553 0.0
1.115801 0.030316 0.0
1.092985 0.024327 0.0
1.069928 0.016899 0.0
1.047795 0.008742 0.0
1.028472 0.000743 0.0
1.014135 -0.006468 0.0
1.005683 -0.012051 0.0
1.002513 -0.015369 0.0
1.003429 -0.016159 0.0
1.007083 -0.014318 0.0
1.011992 -0.009926 0.0
1.016473 -0.003401 0.0
1.017512 0.006444 0.0
1.001224 -0.008780 0.0
1.006132 -0.026987 0.0
1.016095 -0.046579 0.0
1.031554 -0.067953 0.0
1.053301 -0.091073 0.0
1.082375 -0.115278 0.0
1.119766 -0.138984 0.0
1.165753 -0.159309 0.0
1.219334 -0.172875 0.0
1.275585 -0.173176 0.0
1.327617 -0.162094 0.0
1.371901 -0.144677 0.0
1.408174 -0.124975 0.0
1.437715 -0.105287 0.0
1.462183 -0.086490 0.0
1.483039 -0.068399 0.0
1.501197 -0.050080 0.0
1.516754 -0.030208 0.0
1.528850 -0.007648 0.0
1.536027 0.017773 0.0
1.536898 0.045455 0.0
1.530561 0.074087 0.0
1.516816 0.101919 0.0
1.496182 0.127233 0.0
1.469691 0.148642 0.0
1.438631 0.165166 0.0
1.404325 0.176192 0.0
1.368006 0.181382 0.0
1.330763 0.180615 0.0
1.293545 0.173960 0.0
1.257189 0.161684 0.0
1.222464 0.144276 0.0
1.190118 0.122462 0.0
1.160914 0.097198 0.0
1.135656 0.069602 0.0
1.115208 0.040782 0.0
1.100435 0.011517 0.0
1.092170 -0.017698 0.0
1.091157 -0.045845 0.0
1.097892 -0.071116 0.0
1.112521 -0.091088 0.0
1.134996 -0.103385 0.0
1.165203 -0.106008 0.0
1.202644 -0.097353 0.0
1.245652 -0.076611 0.0
1.290528 -0.044715 0.0
1.331355 -0.005324 0.0
1.362820 0.035312 0.0
1.383499 0.072040 0.0
1.394330 0.102441 0.0
1.396217 0.124906 0.0
1.389848 0.138677 0.0
1.375822 0.143972 0.0
1.354908 0.141848 0.0
1.328191 0.133772 0.0
1.296987 0.121231 0.0
1.262686 0.105650 0.0
1.226685 0.088363 0.0
1.190309 0.070456 0.0
1.154770 0.052875 0.0
1.121056 0.036157 0.0
1.089624 0.020646 0.0
1.060827 0.007128 0.0
1.035483 -0.003656 0.0
1.014230 -0.011248 0.0
0.996794 -0.015448 0.0
0.982319 -0.016570 0.0
0.969992 -0.015512 0.0
0.959446 -0.013628 0.0
0.950951 -0.012428 0.0
0.945395 -0.013134 0.0
0.944039 -0.016271 0.0
0.948162 -0.021577 0.0
0.958750 -0.028056 0.0
0.976304 -0.034177 0.0
1.000777 -0.038291 0.0
1.031619 -0.039046 0.0
1.067767 -0.035645 0.0
1.107478 -0.028012 0.0
1.148046 -0.016871 0.0
1.185843 -0.003477 0.0
1.217257 0.010601 0.0
1.240176 0.023646 0.0
1.254221 0.034541 0.0
1.259754 0.042918 0.0
1.257451 0.048456 0.0
1.248289 0.050928 0.0
1.233434 0.050234 0.0
1.214177 0.046483 0.0
1.191924 0.040053 0.0
1.168158 0.031487 0.0
1.144153 0.021327 0.0
1.120868 0.010570 0.0
1.099578 0.000653 0.0
1.081881 -0.007205 0.0
1.068625 -0.011983 0.0
1.059503 -0.013026 0.0
1.053476 -0.010100 0.0
1.049122 -0.003354 0.0
1.044495 0.009984 0.0
1.001022 -0.011025 0.0
1.005186 -0.033814 0.0
1.013868 -0.058396 0.0
1.027878 -0.085605 0.0
1.048589 -0.115878 0.0
1.077964 -0.148921 0.0
1.118355 -0.183122 0.0
1.171559 -0.214362 0.0
1.238597 -0.238439 0.0
1.309240 -0.234506 0.0
1.368530 -0.212087 0.0
1.412910 -0.183347 0.0
1.445072 -0.154740 0.0
1.468849 -0.128840 0.0
1.487639 -0.106196 0.0
1.504144 -0.086053 0.0
1.520209 -0.066649 0.0
1.536497 -0.045485 0.0
1.551957 -0.019927 0.0
1.563671 0.011160 0.0
1.568492 0.046377 0.0
1.564520 0.083473 0.0
1.551201 0.119597 0.0
1.529214 0.152178 0.0
1.500009 0.179393 0.0
1.465315 0.200170 0.0
1.426816 0.213994 0.0
1.386002 0.220712 0.0
1.344137 0.220391 0.0
1.302285 0.213253 0.0
1.261373 0.199660 0.0
1.222266 0.180132 0.0
1.185839 0.155379 0.0
1.153004 0.126321 0.0
1.124649 0.094091 0.0
1.101423 0.059968 0.0
1.083372 0.025155 0.0
1.069863 -0.009562 0.0
1.060395 -0.043501 0.0
1.055241 -0.075041 0.0
1.055407 -0.101958 0.0
1.062732 -0.122315 0.0
1.079736 -0.134289 0.0
1.108687 -0.135464 0.0
1.150355 -0.123176 0.0
1.203075 -0.095746 0.0
1.262000 -0.054046 0.0
1.318019 -0.003450 0.0
1.361809 0.046333 0.0
1.390797 0.088330 0.0
1.406921 0.121008 0.0
1.411942 0.143923 0.0
1.407288 0.157406 0.0
1.394221 0.162396 0.0
1.373978 0.160184 0.0
1.347821 0.152179 0.0
1.317032 0.139792 0.0
1.282899 0.124355 0.0
1.246690 0.107050 0.0
1.209625 0.088885 0.0
1.172810 0.070675 0.0
1.137198 0.053172 0.0
1.103495 0.037104 0.0
1.071932 0.023275 0.0
1.042246 0.012759 0.0
1.013904 0.006322 0.0
0.986277 0.003762 0.0
0.959028 0.003732 0.0
0.932687 0.004016 0.0
0.908846 0.002264 0.0
0.889763 -0.003188 0.0
0.877772 -0.012870 0.0
0.874650 -0.025978 0.0
0.881070 -0.040663 0.0
0.896635 -0.054688 0.0
0.920391 -0.066008 0.0
0.951267 -0.073048 0.0
0.988240 -0.074764 0.0
1.030264 -0.070629 0.0
1.076072 -0.060631 0.0
1.123897 -0.045340 0.0
1.171059 -0.026113 0.0
1.213605 -0.005104 0.0
1.247501 0.015350 0.0
1.271019 0.033058 0.0
1.284547 0.047091 0.0
1.288969 0.057034 0.0
1.285316 0.062635 0.0
1.274772 0.063882 0.0
1.258648 0.061031 0.0
1.238336 0.054588 0.0
1.215237 0.045329 0.0
1.190748 0.034342 0.0
1.166114 0.022806 0.0
1.142261 0.012191 0.0
1.119974 0.004164 0.0
1.099900 0.000023 0.0
1.082311 0.000467 0.0
1.067170 0.005574 0.0
1.055155 0.017698 0.0
1.000740 -0.012786 0.0
1.003799 -0.039275 0.0
1.010370 -0.068189 0.0
1.021517 -0.100970 0.0
1.039155 -0.138862 0.0
1.066369 -0.182527 0.0
1.107651 -0.231190 0.0
1.168049 -0.279896 0.0
1.255594 -0.327488 0.0
1.345343 -0.305850 0.0
1.404536 -0.259226 0.0
1.437077 -0.213129 0.0
1.453751 -0.173794 0.0
1.462108 -0.141918 0.0
1.467104 -0.116904 0.0
1.472465 -0.097211 0.0
1.481130 -0.080221 0.0
1.495051 -0.062122 0.0
1.514229 -0.037927 0.0
1.534654 -0.002979 0.0
1.549326 0.041024 0.0
1.553299 0.088824 0.0
1.545366 0.135499 0.0
1.526480 0.177149 0.0
1.498637 0.211469 0.0
1.464022 0.237403 0.0
1.424615 0.254668 0.0
1.382081 0.263386 0.0
1.337799 0.263864 0.0
1.292938 0.256494 0.0
1.248540 0.241728 0.0
1.205611 0.220098 0.0
1.165182 0.192269 0.0
1.128312 0.159136 0.0
1.095929 0.122013 0.0
1.068312 0.082889 0.0
1.044279 0.044318 0.0
1.020810 0.008252 0.0
0.994747 -0.025784 0.0
0.966566 -0.059424 0.0
0.940977 -0.092152 0.0
0.924405 -0.122875 0.0
0.922823 -0.149152 0.0
0.939718 -0.166446 0.0
0.975560 -0.169704 0.0
1.028631 -0.155009 0.0
1.095650 -0.120728 0.0
1.171419 -0.068557 0.0
1.245574 -0.006505 0.0
1.305431 0.052323 0.0
1.346719 0.099602 0.0
1.372041 0.134986 0.0
1.383851 0.159187 0.0
1.384185 0.173348 0.0
1.374815 0.178845 0.0
1.357345 0.177145 0.0
1.333265 0.169696 0.0
1.303982 0.157867 0.0
1.270831 0.142897 0.0
1.235060 0.125874 0.0
1.197796 0.107764 0.0
1.159966 0.089525 0.0
1.122138 0.072283 0.0
1.084340 0.057457 0.0
1.046055 0.046548 0.0
1.006573 0.040357 0.0
0.965745 0.038182 0.0
0.924777 0.037530 0.0
0.886400 0.034935 0.0
0.854148 0.027439 0.0
0.831126 0.013743 0.0
0.818977 -0.005660 0.0
0.817764 -0.028852 0.0
0.826444 -0.052889 0.0
0.843449 -0.075033 0.0
0.867285 -0.093256 0.0
0.896808 -0.106201 0.0
0.931220 -0.112996 0.0
0.969924 -0.113123 0.0
1.012332 -0.106353 0.0
1.057669 -0.092779 0.0
1.104765 -0.072932 0.0
1.151876 -0.047941 0.0
1.196248 -0.020082 0.0
1.233856 0.007364 0.0
1.261716 0.031396 0.0
1.279458 0.050565 0.0
1.287781 0.064434 0.0
1.287587 0.072821 0.0
1.279959 0.075843 0.0
1.266108 0.073938 0.0
1.247310 0.067875 0.0
1.224844 0.058751 0.0
1.199916 0.047958 0.0
1.173637 0.037170 0.0
1.147022 0.028087 0.0
1.121022 0.022174 0.0
1.096619 0.020309 0.0
1.074927 0.022565 0.0
1.058217 0.029432 0.0
1.000339 -0.013865 0.0
1.001775 -0.042692 0.0
1.005066 -0.074633 0.0
1.011265 -0.111872 0.0
1.022489 -0.156822 0.0
1.042698 -0.211989 0.0
1.078983 -0.279294 0.0
1.142345 -0.355553 0.0
1.258834 -0.455865 0.0
1.365870 -0.374258 0.0
1.399414 -0.283554 0.0
1.395972 -0.217900 0.0
1.380405 -0.170131 0.0
1.361445 -0.134979 0.0
1.342997 -0.110392 0.0
1.328341 -0.094428 0.0
1.320903 -0.084230 0.0
1.324451 -0.075583 0.0
1.342409 -0.061602 0.0
1.374710 -0.032029 0.0
1.410218 0.019894 0.0
1.434669 0.081530 0.0
1.443698 0.141697 0.0
1.438850 0.194685 0.0
1.422799 0.237828 0.0
1.398079 0.270377 0.0
1.366718 0.292461 0.0
1.330314 0.304529 0.0
1.290209 0.307108 0.0
1.247600 0.300721 0.0
1.203621 0.285877 0.0
1.159393 0.263107 0.0
1.116027 0.233056 0.0
1.074550 0.196696 0.0
1.035553 0.155834 0.0
0.998371 0.113867 0.0
0.960126 0.075617 0.0
0.916425 0.044124 0.0
0.864785 0.016049 0.0
0.808878 -0.017168 0.0
0.760929 -0.060870 0.0
0.734023 -0.110679 0.0
0.732149 -0.157891 0.0
0.752248 -0.194700 0.0
0.790198 -0.215243 0.0
0.843141 -0.215484 0.0
0.909146 -0.193277 0.0
0.986176 -0.148806 0.0
1.071033 -0.085268 0.0
1.155066 -0.012804 0.0
1.224971 0.053536 0.0
1.275220 0.105483 0.0
1.308310 0.143791 0.0
1.326733 0.169987 0.0
1.332613 0.185696 0.0
1.327833 0.192544 0.0
1.314112 0.192099 0.0
1.293031 0.185829 0.0
1.266046 0.175073 0.0
1.234471 0.161045 0.0
1.199422 0.144906 0.0
1.161700 0.127936 0.0
1.121639 0.111761 0.0
1.079069 0.098346 0.0
1.033626 0.089387 0.0
0.985489 0.085138 0.0
0.936215 0.083503 0.0
0.889007 0.080385 0.0
0.847979 0.071484 0.0
0.816785 0.054336 0.0
0.797472 0.029180 0.0
0.790164 -0.001641 0.0
0.793387 -0.034881 0.0
0.804952 -0.067105 0.0
0.822880 -0.095750 0.0
0.845721 -0.119215 0.0
0.872526 -0.136570 0.0
0.902748 -0.147260 0.0
0.936101 -0.150916 0.0
0.972409 -0.147277 0.0
1.011433 -0.136216 0.0
1.052712 -0.117870 0.0
1.095423 -0.092825 0.0
1.138233 -0.062381 0.0
1.179088 -0.028800 0.0
1.214638 0.004151 0.0
1.241816 0.032890 0.0
1.259754 0.055849 0.0
1.268784 0.072571 0.0
1.269559 0.082947 0.0
1.262968 0.087276 0.0
1.250045 0.086258 0.0
1.231894 0.080985 0.0
1.209639 0.072907 0.0
1.184410 0.063731 0.0
1.157369 0.055183 0.0
1.129773 0.048674 0.0
1.103067 0.044917 0.0
1.078974 0.043741 0.0
1.060376 0.043564 0.0
0.999817 -0.014020 0.0
0.999111 -0.043268 0.0
0.997892 -0.076129 0.0
0.996764 -0.115448 0.0
0.997222 -0.164929 0.0
1.002801 -0.229670 0.0
1.021739 -0.316836 0.0
1.072403 -0.432038 0.0
1.215304 -0.638770 0.0
1.312660 -0.395746 0.0
1.265538 -0.248489 0.0
1.194936 -0.178922 0.0
1.135033 -0.133639 0.0
1.083309 -0.100787 0.0
1.037078 -0.079904 0.0
0.997201 -0.070383 0.0
0.966885 -0.070520 0.0
0.952257 -0.078214 0.0
0.961710 -0.086383 0.0
1.001364 -0.079202 0.0
1.068361 -0.035437 0.0
1.137942 0.042829 0.0
1.187382 0.121929 0.0
1.216946 0.189736 0.0
1.231230 0.244544 0.0
1.233114 0.286497 0.0
1.224482 0.316336 0.0
1.206744 0.334796 0.0
1.181180 0.342511 0.0
1.149059 0.340049 0.0
1.111628 0.327957 0.0
1.070019 0.306864 0.0
1.024904 0.277779 0.0
0.975580 0.242774 0.0
0.918663 0.205670 0.0
0.848810 0.171066 0.0
0.764751 0.140721 0.0
0.676776 0.110694 0.0
0.604500 0.073395 0.0
0.563573 0.022321 0.0
0.554498 -0.043336 0.0
0.566885 -0.113695 0.0
0.591383 -0.177497 0.0
0.623863 -0.227673 0.0
0.663676 -0.260032 0.0
0.711677 -0.271639 0.0
0.768980 -0.260431 0.0
0.836092 -0.225792 0.0
0.912351 -0.169398 0.0
0.995541 -0.095897 0.0
1.078468 -0.016203 0.0
1.148965 0.054475 0.0
1.201316 0.109357 0.0
1.237375 0.149940 0.0
1.259125 0.178113 0.0
1.268364 0.195667 0.0
1.266771 0.204290 0.0
1.255926 0.205564 0.0
1.237292 0.200957 0.0
1.212167 0.191861 0.0
1.181597 0.179709 0.0
1.146260 0.166192 0.0
1.106412 0.153415 0.0
1.062086 0.143588 0.0
1.013687 0.137987 0.0
0.962779 0.135583 0.0
0.912511 0.132600 0.0
0.867123 0.123885 0.0
0.830642 0.105493 0.0
0.805576 0.076587 0.0
0.792422 0.039396 0.0
0.790080 -0.002206 0.0
0.796536 -0.043996 0.0
0.809576 -0.082594 0.0
0.827327 -0.115940 0.0
0.848422 -0.142961 0.0
0.871974 -0.163182 0.0
0.897517 -0.176414 0.0
0.924929 -0.182528 0.0
0.954301 -0.181345 0.0
0.985779 -0.172648 0.0
1.019382 -0.156319 0.0
1.054852 -0.132558 0.0
1.091537 -0.102144 0.0
1.128297 -0.066653 0.0
1.163384 -0.028632 0.0
1.193950 0.007928 0.0
1.217399 0.039424 0.0
1.232842 0.064523 0.0
1.240315 0.082747 0.0
1.240245 0.094138 0.0
1.233320 0.099244 0.0
1.220397 0.099074 0.0
1.202439 0.095032 0.0
1.180513 0.088762 0.0
1.155821 0.081885 0.0
1.129761 0.075627 0.0
1.104005 0.070426 0.0
1.080532 0.065799 0.0
1.062243 0.058394 0.0
0.999229 -0.013066 0.0
0.996084 -0.040371 0.0
0.989584 -0.071306 0.0
0.979383 -0.108942 0.0
0.965178 -0.157689 0.0
0.947355 -0.224665 0.0
0.929258 -0.322683 0.0
0.925705 -0.473301 0.0
1.019303 -0.834004 0.0
1.015266 -0.193307 0.0
0.827671 -0.105249 0.0
0.683173 -0.096625 0.0
0.599094 -0.071953 0.0
0.533824 -0.045480 0.0
0.474710 -0.029865 0.0
0.427810 -0.033645 0.0
0.404860 -0.053991 0.0
0.412305 -0.087560 0.0
0.451073 -0.125259 0.0
0.518337 -0.147245 0.0
0.610199 -0.126254 0.0
0.720267 -0.046003 0.0
0.821954 0.059634 0.0
0.896491 0.147930 0.0
0.950462 0.218095 0.0
0.988180 0.273344 0.0
1.011018 0.315283 0.0
1.019865 0.344741 0.0
1.015728 0.362266 0.0
0.999745 0.368399 0.0
0.972944 0.363840 0.0
0.935752 0.349782 0.0
0.887173 0.328556 0.0
0.824402 0.304092 0.0
0.745270 0.280400 0.0
0.654329 0.257130 0.0
0.566397 0.226649 0.0
0.500096 0.179042 0.0
0.466351 0.111069 0.0
0.463750 0.028175 0.0
0.482093 -0.058459 0.0
0.509992 -0.138858 0.0
0.540795 -0.207635 0.0
0.572540 -0.261761 0.0
0.605895 -0.299112 0.0
0.642948 -0.317614 0.0
0.686302 -0.315114 0.0
0.738137 -0.290056 0.0
0.799386 -0.242642 0.0
0.869334 -0.175792 0.0
0.945535 -0.095436 0.0
1.021260 -0.012514 0.0
1.086182 0.059073 0.0
1.135496 0.114851 0.0
1.170332 0.156615 0.0
1.192038 0.186220 0.0
1.201976 0.205392 0.0
1.201501 0.215780 0.0
1.191909 0.218967 0.0
1.174348 0.216536 0.0
1.149726 0.210225 0.0
1.118629 0.202109 0.0
1.081425 0.194551 0.0
1.038668 0.189535 0.0
0.991776 0.187331 0.0
0.943562 0.185360 0.0
0.898063 0.178591 0.0
0.859492 0.161853 0.0
0.830895 0.132603 0.0
0.813405 0.092034 0.0
0.806459 0.044049 0.0
0.808523 -0.006580 0.0
0.817620 -0.055176 0.0
0.831746 -0.098580 0.0
0.849196 -0.135156 0.0
0.868633 -0.164277 0.0
0.889129 -0.185913 0.0
0.910195 -0.200292 0.0
0.931765 -0.207631 0.0
0.954112 -0.207961 0.0
0.977692 -0.201090 0.0
1.002942 -0.186730 0.0
1.030080 -0.164754 0.0
1.058956 -0.135508 0.0
1.088975 -0.100068 0.0
1.119066 -0.060395 0.0
1.147589 -0.019398 0.0
1.172095 0.018795 0.0
1.190572 0.051232 0.0
1.202300 0.076837 0.0
1.207159 0.095259 0.0
1.205422 0.106784 0.0
1.197628 0.112251 0.0
1.184516 0.112924 0.0
1.167011 0.110299 0.0
1.146255 0.105797 0.0
1.123653 0.100377 0.0
1.100913 0.094171 0.0
1.080013 0.086426 0.0
1.063540 0.072531 0.0
0.998683 -0.010978 0.0
0.993260 -0.033891 0.0
0.981758 -0.059784 0.0
0.962695 -0.091199 0.0
0.933308 -0.131840 0.0
0.888511 -0.187893 0.0
0.818313 -0.271161 0.0
0.703140 -0.406097 0.0
0.315543 -0.707733 0.0
-0.460854 0.247330 0.0
-0.460854 0.000000 0.0
-0.033543 -0.023470 0.0
-0.064210 -0.040435 0.0
-0.047988 -0.027950 0.0
-0.009893 -0.026376 0.0
0.035414 -0.035543 0.0
0.069450 -0.063179 0.0
0.095923 -0.112289 0.0
0.128349 -0.171724 0.0
0.177852 -0.217546 0.0
0.250367 -0.220330 0.0
0.347557 -0.159185 0.0
0.462462 -0.043776 0.0
0.569085 0.070180 0.0
0.653123 0.157837 0.0
0.720123 0.228884 0.0
0.770451 0.286577 0.0
0.803647 0.331405 0.0
0.819811 0.363574 0.0
0.819289 0.383595 0.0
0.802136 0.392597 0.0
0.767623 0.392728 0.0
0.714588 0.387226 0.0
0.644046 0.378734 0.0
0.563710 0.365226 0.0
0.489263 0.337693 0.0
0.437630 0.285650 0.0
0.417189 0.206782 0.0
0.425002 0.109262 0.0
0.451554 0.006032 0.0
0.486034 -0.089140 0.0
0.520917 -0.170958 0.0
0.552949 -0.238369 0.0
0.581156 -0.290979 0.0
0.606325 -0.328418 0.0
0.630776 -0.349810 0.0
0.657944 -0.353440 0.0
0.691515 -0.337136 0.0
0.734223 -0.299519 0.0
0.786887 -0.241528 0.0
0.848196 -0.167209 0.0
0.915073 -0.083344 0.0
0.980778 -0.000723 0.0
1.036956 0.069154 0.0
1.080220 0.124212 0.0
1.111055 0.166082 0.0
1.130266 0.196381 0.0
1.138804 0.216729 0.0
1.137642 0.228773 0.0
1.127668 0.234264 0.0
1.109593 0.235195 0.0
1.083965 0.233865 0.0
1.051409 0.232556 0.0
1.013141 0.232555 0.0
0.971512 0.232831 0.0
0.930109 0.229476 0.0
0.893066 0.217017 0.0
0.863837 0.191227 0.0
0.844245 0.151418 0.0
0.834401 0.100552 0.0
0.833300 0.043577 0.0
0.839422 -0.014294 0.0
0.851008 -0.068145 0.0
0.866273 -0.115003 0.0
0.883607 -0.153517 0.0
0.901669 -0.183414 0.0
0.919477 -0.205080 0.0
0.936478 -0.219194 0.0
0.952591 -0.226413 0.0
0.968179 -0.227114 0.0
0.983930 -0.221269 0.0
1.000652 -0.208523 0.0
1.019015 -0.188463 0.0
1.039347 -0.161007 0.0
1.061510 -0.126751 0.0
1.084883 -0.087176 0.0
1.108397 -0.044653 0.0
1.130400 -0.002459 0.0
1.148882 0.035527 0.0
1.162395 0.067301 0.0
1.170322 0.092009 0.0
1.172513 0.109581 0.0
1.169162 0.120599 0.0
1.160739 0.126111 0.0
1.147972 0.127384 0.0
1.131868 0.125573 0.0
1.113733 0.121338 0.0
1.095164 0.114519 0.0
1.077964 0.104178 0.0
1.064252 0.084964 0.0
0.998300 -0.007961 0.0
0.991291 -0.024476 0.0
0.976349 -0.042755 0.0
0.951318 -0.064133 0.0
0.912059 -0.090260 0.0
0.850590 -0.123207 0.0
0.750248 -0.165308 0.0
0.571826 -0.218355 0.0
0.228069 -0.261517 0.0
0.000000 0.247330 0.0
-0.000000 -0.000000 0.0
0.000000 0.000000 0.0
-0.022944 -0.021656 0.0
-0.050655 -0.036529 0.0
-0.056280 -0.050265 0.0
-0.065315 -0.047926 0.0
-0.085700 -0.064447 0.0
-0.106615 -0.116578 0.0
-0.114051 -0.192424 0.0
-0.098663 -0.261736 0.0
-0.053804 -0.293514 0.0
0.027267 -0.264263 0.0
0.140570 -0.166907 0.0
0.266738 -0.039482 0.0
0.378553 0.071647 0.0
0.466572 0.160055 0.0
0.536105 0.235544 0.0
0.586674 0.298674 0.0
0.617555 0.349261 0.0
0.628157 0.387827 0.0
0.617908 0.415768 0.0
0.586897 0.435081 0.0
0.537980 0.446825 0.0
0.479738 0.447919 0.0
0.426813 0.429301 0.0
0.394382 0.380497 0.0
0.390060 0.298801 0.0
0.411289 0.192842 0.0
0.449737 0.076940 0.0
0.495064 -0.033525 0.0
0.539014 -0.128012 0.0
0.577890 -0.205846 0.0
0.610130 -0.267754 0.0
0.635091 -0.314761 0.0
0.653213 -0.347927 0.0
0.666308 -0.367847 0.0
0.677733 -0.373995 0.0
0.692030 -0.364449 0.0
0.713775 -0.336659 0.0
0.745986 -0.289263 0.0
0.789050 -0.223847 0.0
0.840815 -0.145349 0.0
0.897420 -0.061028 0.0
0.952102 0.018599 0.0
0.998435 0.085171 0.0
1.034350 0.138374 0.0
1.059803 0.179424 0.0
1.075177 0.209774 0.0
1.081018 0.231050 0.0
1.077882 0.245097 0.0
1.066281 0.254037 0.0
1.046793 0.260139 0.0
1.020398 0.265232 0.0
0.988951 0.269594 0.0
0.955436 0.270935 0.0
0.923631 0.264580 0.0
0.897128 0.245460 0.0
0.878293 0.210848 0.0
0.867880 0.161801 0.0
0.865440 0.102454 0.0
0.869981 0.038234 0.0
0.880173 -0.025265 0.0
0.894346 -0.082934 0.0
0.910801 -0.131935 0.0
0.928019 -0.171136 0.0
0.944720 -0.200558 0.0
0.959935 -0.220959 0.0
0.973086 -0.233467 0.0
0.984058 -0.239225 0.0
0.993230 -0.239062 0.0
1.001422 -0.233264 0.0
1.009719 -0.221547 0.0
1.019208 -0.203292 0.0
1.030689 -0.177992 0.0
1.044484 -0.145724 0.0
1.060374 -0.107467 0.0
1.077652 -0.065153 0.0
1.095202 -0.021512 0.0
1.111404 0.019895 0.0
1.124647 0.056176 0.0
1.133924 0.085930 0.0
1.138714 0.108679 0.0
1.138882 0.124684 0.0
1.134623 0.134709 0.0
1.126438 0.139737 0.0
1.115147 0.140615 0.0
1.101878 0.137700 0.0
1.088016 0.130588 0.0
1.075079 0.118246 0.0
1.064666 0.095021 0.0
0.998159 -0.004420 0.0
0.990585 -0.013435 0.0
0.974528 -0.022797 0.0
0.947948 -0.032480 0.0
0.907241 -0.041947 0.0
0.846476 -0.049286 0.0
0.756756 -0.049167 0.0
0.627376 -0.026694 0.0
0.462652 0.058430 0.0
0.186950 0.168998 0.0
0.000000 0.000000 0.0
-0.000000 -0.000000 0.0
0.000000 0.000000 0.0
-0.017579 -0.015881 0.0
-0.056938 -0.027626 0.0
-0.115690 -0.002779 0.0
-0.184957 -0.019941 0.0
-0.237294 -0.087832 0.0
-0.261822 -0.189206 0.0
-0.258900 -0.283264 0.0
-0.234042 -0.341703 0.0
-0.185265 -0.345922 0.0
-0.099026 -0.284790 0.0
0.021853 -0.168645 0.0
0.145212 -0.034363 0.0
0.247293 0.075964 0.0
0.327329 0.170066 0.0
0.388115 0.252797 0.0
0.428584 0.323788 0.0
0.448019 0.383263 0.0
0.446868 0.431732 0.0
0.428283 0.468714 0.0
0.399953 0.490438 0.0
0.374193 0.488308 0.0
0.364031 0.451998 0.0
0.376919 0.377344 0.0
0.411850 0.271346 0.0
0.462300 0.148618 0.0
0.520012 0.025005 0.0
0.575934 -0.082839 0.0
0.624662 -0.171376 0.0
0.665125 -0.241821 0.0
0.696610 -0.295505 0.0
0.718754 -0.334116 0.0
0.731691 -0.359631 0.0
0.736399 -0.373946 0.0
0.735229 -0.378151 0.0
0.732289 -0.371651 0.0
0.733033 -0.351945 0.0
0.742713 -0.315868 0.0
0.764386 -0.261979 0.0
0.797820 -0.192415 0.0
0.840010 -0.112757 0.0
0.886291 -0.030634 0.0
0.930295 0.044067 0.0
0.967250 0.106607 0.0
0.995799 0.157189 0.0
1.015589 0.196846 0.0
1.026668 0.227058 0.0
1.029253 0.249640 0.0
1.023706 0.266642 0.0
1.010719 0.280010 0.0
0.991653 0.290822 0.0
0.968836 0.298269 0.0
0.945480 0.299132 0.0
0.925017 0.288652 0.0
0.910127 0.262782 0.0
0.902098 0.220389 0.0
0.900949 0.163822 0.0
0.906010 0.097813 0.0
0.916383 0.027962 0.0
0.930748 -0.039549 0.0
0.947412 -0.099488 0.0