# vtk DataFile Version 3.0
Scalar Field
ASCII
DATASET RECTILINEAR_GRID
DIMENSIONS 100 26 1
X_COORDINATES 100 double
0.050000 0.150000 0.250000 0.350000 0.450000 0.550000 0.650000 0.750000 0.850000 0.950000 1.050000 1.150000 1.250000 1.350000 1.450000 1.550000 1.650000 1.750000 1.850000 1.950000 2.050000 2.150000 2.250000 2.350000 2.450000 2.550000 2.650000 2.750000 2.850000 2.950000 3.050000 3.150000 3.250000 3.350000 3.450000 3.550000 3.650000 3.750000 3.850000 3.950000 4.050000 4.150000 4.250000 4.350000 4.450000 4.550000 4.650000 4.750000 4.850000 4.950000 5.050000 5.150000 5.250000 5.350000 5.450000 5.550000 5.650000 5.750000 5.850000 5.950000 6.050000 6.150000 6.250000 6.350000 6.450000 6.550000 6.650000 6.750000 6.850000 6.950000 7.050000 7.150000 7.250000 7.350000 7.450000 7.550000 7.650000 7.750000 7.850000 7.950000 8.050000 8.150000 8.250000 8.350000 8.450000 8.550000 8.650000 8.750000 8.850000 8.950000 9.050000 9.150000 9.250000 9.350000 9.450000 9.550000 9.650000 9.750000 9.850000 9.950000 
Y_COORDINATES 26 double
0.050000 0.150000 0.250000 0.350000 0.450000 0.550000 0.650000 0.750000 0.850000 0.950000 1.050000 1.150000 1.250000 1.350000 1.450000 1.550000 1.650000 1.750000 1.850000 1.950000 2.050000 2.150000 2.250000 2.350000 2.450000 2.550000 
Z_COORDINATES 1 double
0.0
POINT_DATA 2600
SCALARS Skalarfeld double 1
LOOKUP_TABLE default
0.263675
0.248313
0.232885
0.214375
0.191690
0.164402
0.132537
0.096564
0.057468
0.016755
-0.023672
-0.061813
-0.095920
-0.124762
-0.147439
-0.163455
-0.173079
-0.176880
-0.175640
-0.170269
-0.161722
-0.150940
-0.138807
-0.126118
-0.113559
-0.101686
-0.090886
-0.081350
-0.073061
-0.065832
-0.059410
-0.053602
-0.048371
-0.043861
-0.040358
-0.038191
-0.037609
-0.038663
-0.041116
-0.044400
-0.047626
-0.049591
-0.048847
-0.044311
-0.035045
-0.022652
-0.009631
0.002781
0.014066
0.024063
0.032754
0.040149
0.046258
0.051098
0.054680
0.056979
0.058018
0.057292
0.054380
0.049014
0.041305
0.031961
0.022221
0.013341
0.005932
-0.000173
-0.005388
-0.009808
-0.013126
-0.014975
-0.015299
-0.014017
-0.011628
-0.008579
-0.005180
-0.001741
0.001458
0.004117
0.006180
0.007523
0.008214
0.008536
0.008866
0.009627
0.011169
0.013611
0.016910
0.020871
0.025374
0.030394
0.035894
0.041813
0.048092
0.054715
0.061704
0.069081
0.076892
0.085101
0.093430
0.101934
0.254983
0.248424
0.235967
0.218603
0.196204
0.168602
0.135850
0.098426
0.057401
0.014501
-0.028023
-0.067854
-0.103042
-0.132179
-0.154613
-0.170312
-0.179343
-0.182327
-0.180115
-0.173682
-0.164045
-0.152210
-0.139123
-0.125643
-0.112517
-0.100352
-0.089572
-0.080363
-0.072640
-0.066098
-0.060350
-0.055100
-0.050257
-0.045958
-0.042513
-0.040288
-0.039576
-0.040465
-0.042747
-0.045884
-0.048998
-0.050806
-0.049537
-0.043351
-0.033385
-0.021707
-0.009321
0.002614
0.013552
0.023309
0.031855
0.039198
0.045347
0.050346
0.054343
0.057364
0.058604
0.058027
0.055179
0.049710
0.041731
0.032065
0.022136
0.013276
0.005965
-0.000185
-0.005697
-0.010558
-0.014219
-0.016122
-0.016211
-0.014720
-0.012186
-0.009046
-0.005515
-0.001934
0.001425
0.004372
0.006568
0.007865
0.008397
0.008535
0.008664
0.009257
0.010712
0.013167
0.016418
0.020298
0.024781
0.029839
0.035417
0.041436
0.047819
0.054532
0.061585
0.068987
0.076868
0.085227
0.093677
0.102525
0.258398
0.254186
0.243586
0.227181
0.204924
0.176583
0.142065
0.101747
0.056801
0.009376
-0.037459
-0.080685
-0.118047
-0.148208
-0.170647
-0.185471
-0.193061
-0.194112
-0.189623
-0.180709
-0.168536
-0.154271
-0.139032
-0.123851
-0.109644
-0.097171
-0.086942
-0.079106
-0.073363
-0.069039
-0.065348
-0.061711
-0.057893
-0.053998
-0.050372
-0.047456
-0.045625
-0.045052
-0.045611
-0.046825
-0.047842
-0.047462
-0.044377
-0.037821
-0.028231
-0.017251
-0.006298
0.004355
0.014207
0.023077
0.030913
0.037703
0.043444
0.048153
0.051877
0.054601
0.056218
0.055949
0.053268
0.048247
0.041032
0.032293
0.023139
0.014543
0.006894
0.000059
-0.006112
-0.011354
-0.015065
-0.016768
-0.016435
-0.014934
-0.012653
-0.009679
-0.006085
-0.002462
0.000951
0.003875
0.006076
0.007487
0.008196
0.008403
0.008547
0.009071
0.010316
0.012426
0.015373
0.019098
0.023561
0.028703
0.034435
0.040640
0.047217
0.054117
0.061380
0.069176
0.077544
0.086298
0.095045
0.103124
0.269608
0.266151
0.256543
0.240770
0.218430
0.188905
0.151671
0.106764
0.055384
0.000333
-0.053549
-0.101950
-0.142289
-0.173499
-0.195477
-0.208692
-0.213847
-0.211836
-0.203841
-0.191153
-0.175139
-0.157185
-0.138643
-0.120782
-0.104768
-0.091659
-0.082175
-0.076400
-0.073755
-0.073037
-0.072637
-0.071524
-0.069258
-0.065917
-0.061928
-0.057848
-0.054175
-0.051201
-0.048926
-0.047025
-0.044870
-0.041641
-0.036598
-0.029452
-0.020585
-0.010850
-0.000987
0.008256
0.016762
0.024413
0.031156
0.036959
0.041801
0.045694
0.048681
0.050768
0.051832
0.051530
0.049541
0.045309
0.038906
0.031049
0.022638
0.014428
0.006830
-0.000021
-0.006020
-0.010884
-0.014239
-0.015894
-0.015961
-0.014752
-0.012391
-0.009191
-0.005837
-0.002524
0.000751
0.003551
0.005656
0.006989
0.007614
0.007758
0.007793
0.008114
0.009054
0.010825
0.013511
0.017097
0.021547
0.026786
0.032696
0.039144
0.046015
0.053262
0.060936
0.069180
0.078125
0.087810
0.098111
0.110974
0.287188
0.284112
0.275241
0.260093
0.237728
0.206824
0.165977
0.114365
0.052912
-0.014815
-0.079689
-0.135173
-0.178798
-0.210452
-0.230910
-0.241259
-0.242588
-0.236106
-0.223133
-0.205150
-0.183767
-0.160654
-0.137451
-0.115707
-0.096860
-0.082600
-0.074149
-0.071589
-0.073660
-0.078123
-0.082438
-0.084644
-0.084162
-0.081189
-0.076401
-0.070609
-0.064519
-0.058593
-0.052994
-0.047600
-0.042063
-0.035945
-0.028908
-0.020897
-0.012200
-0.003309
0.005306
0.013292
0.020522
0.026941
0.032474
0.037090
0.040780
0.043581
0.045592
0.046894
0.047405
0.046834
0.044806
0.040977
0.035326
0.028173
0.020124
0.012220
0.004883
-0.001557
-0.006918
-0.011015
-0.013680
-0.014870
-0.014693
-0.013356
-0.011087
-0.008185
-0.004968
-0.001565
0.001462
0.004003
0.005851
0.006934
0.007254
0.007039
0.006657
0.006503
0.006926
0.008210
0.010555
0.013901
0.018248
0.023515
0.029561
0.036225
0.043371
0.050942
0.058988
0.067689
0.077329
0.088286
0.101030
0.122678
0.310415
0.307730
0.299810
0.285774
0.264025
0.232166
0.187185
0.126297
0.049123
-0.040691
-0.122250
-0.186012
-0.231755
-0.261995
-0.279000
-0.284576
-0.280402
-0.267790
-0.248087
-0.222971
-0.194367
-0.164311
-0.134816
-0.107742
-0.084711
-0.068418
-0.061223
-0.063403
-0.072838
-0.085386
-0.096232
-0.102543
-0.103788
-0.100576
-0.094165
-0.085863
-0.076716
-0.067405
-0.058267
-0.049360
-0.040564
-0.031709
-0.022696
-0.013587
-0.004610
0.003933
0.011768
0.018706
0.024634
0.029621
0.033867
0.037151
0.039547
0.041120
0.042039
0.042538
0.042595
0.041915
0.040038
0.036526
0.031185
0.024185
0.016306
0.008466
0.001156
-0.004917
-0.009605
-0.012828
-0.014577
-0.014937
-0.014081
-0.012240
-0.009665
-0.006623
-0.003376
-0.000162
0.002715
0.005048
0.006637
0.007318
0.007152
0.006335
0.005216
0.004239
0.003825
0.004304
0.005922
0.008816
0.012910
0.018112
0.024238
0.031081
0.038472
0.046327
0.054700
0.063807
0.074068
0.086145
0.101057
0.129966
0.338559
0.336451
0.330080
0.318246
0.298655
0.267484
0.219020
0.146176
0.043861
-0.087611
-0.192471
-0.261675
-0.304664
-0.329668
-0.340453
-0.339134
-0.328001
-0.307628
-0.279332
-0.245058
-0.207159
-0.168179
-0.130642
-0.096823
-0.068458
-0.048385
-0.041979
-0.049985
-0.069238
-0.093409
-0.114402
-0.125815
-0.128529
-0.124184
-0.115136
-0.103472
-0.090686
-0.077695
-0.064969
-0.052688
-0.040869
-0.029492
-0.018580
-0.008248
0.001318
0.009912
0.017368
0.023568
0.028418
0.031833
0.033792
0.034848
0.035663
0.035847
0.035484
0.035205
0.035101
0.034785
0.033630
0.031019
0.026559
0.020234
0.012496
0.004070
-0.003405
-0.009406
-0.013727
-0.016300
-0.017216
-0.016677
-0.014953
-0.012347
-0.009161
-0.005680
-0.002164
0.001151
0.004019
0.006202
0.007470
0.007661
0.006785
0.005051
0.002854
0.000703
-0.000887
-0.001485
-0.000809
0.001404
0.005168
0.010284
0.016486
0.023501
0.031111
0.039202
0.047810
0.057165
0.067745
0.080359
0.096289
0.127275
0.370538
0.369296
0.365372
0.357434
0.342719
0.315971
0.267649
0.181956
0.037336
-0.179369
-0.306873
-0.365195
-0.393855
-0.408558
-0.411050
-0.402916
-0.384463
-0.355410
-0.317159
-0.272096
-0.223174
-0.173634
-0.126732
-0.085445
-0.052310
-0.026538
-0.018964
-0.031497
-0.059650
-0.095488
-0.129314
-0.150164
-0.154457
-0.148573
-0.136520
-0.121355
-0.105028
-0.088632
-0.072709
-0.057496
-0.043083
-0.029527
-0.016916
-0.005385
0.004895
0.013758
0.021055
0.026627
0.030285
0.031878
0.031453
0.029444
0.026444
0.024261
0.022793
0.022431
0.022994
0.023852
0.024197
0.023260
0.020475
0.015621
0.008917
0.001017
-0.007003
-0.013731
-0.018116
-0.020498
-0.020965
-0.019787
-0.017327
-0.013974
-0.010108
-0.006071
-0.002155
0.001380
0.004284
0.006304
0.007193
0.006776
0.005040
0.002202
-0.001290
-0.004827
-0.007758
-0.009526
-0.009775
-0.008175
-0.004686
0.000388
0.006689
0.013869
0.021650
0.029876
0.038551
0.047884
0.058336
0.070705
0.086231
0.115155
0.404743
0.404673
0.404178
0.402163
0.396099
0.380335
0.342050
0.251863
0.036048
-0.372938
-0.477718
-0.478406
-0.476780
-0.480072
-0.478338
-0.467894
-0.444332
-0.407765
-0.360197
-0.304696
-0.244973
-0.185135
-0.129355
-0.081351
-0.044141
-0.019805
-0.008649
-0.021732
-0.051775
-0.090566
-0.129285
-0.159413
-0.170962
-0.165148
-0.151643
-0.134571
-0.116247
-0.097859
-0.079981
-0.062888
-0.046739
-0.031667
-0.017829
-0.005403
0.005413
0.014415
0.021342
0.025813
0.027392
0.025907
0.021810
0.016217
0.010537
0.006000
0.004234
0.004807
0.006948
0.009738
0.012225
0.013542
0.013017
0.010277
0.005339
-0.001329
-0.008829
-0.016010
-0.021451
-0.024114
-0.024650
-0.023321
-0.020522
-0.016717
-0.012369
-0.007897
-0.003658
0.000042
0.002920
0.004701
0.005122
0.003994
0.001300
-0.002722
-0.007552
-0.012462
-0.016661
-0.019479
-0.020500
-0.019328
-0.016000
-0.010899
-0.004476
0.002841
0.010709
0.018920
0.027430
0.036396
0.046207
0.057543
0.071429
0.095936
0.439000
0.440301
0.443917
0.449441
0.455675
0.459134
0.449397
0.392792
0.140572
-0.723116
-0.671453
-0.544904
-0.514464
-0.513835
-0.521244
-0.516021
-0.492574
-0.453612
-0.401862
-0.341052
-0.275682
-0.210883
-0.152094
-0.103301
-0.066849
-0.043679
-0.036828
-0.044172
-0.064418
-0.092853
-0.123374
-0.149316
-0.164967
-0.165821
-0.153859
-0.137782
-0.120147
-0.102146
-0.084347
-0.067072
-0.050572
-0.035100
-0.020928
-0.008346
0.002338
0.010757
0.016404
0.018628
0.016908
0.011404
0.003322
-0.005342
-0.012609
-0.017151
-0.017703
-0.015200
-0.010770
-0.005544
-0.000570
0.003250
0.005210
0.004855
0.002059
-0.002898
-0.009310
-0.016133
-0.022197
-0.026034
-0.027087
-0.026142
-0.023524
-0.019725
-0.015277
-0.010675
-0.006353
-0.002678
0.000022
0.001439
0.001291
-0.000618
-0.004299
-0.009473
-0.015542
-0.021666
-0.026943
-0.030617
-0.032229
-0.031313
-0.028031
-0.022842
-0.016287
-0.008878
-0.001032
0.006979
0.015054
0.023276
0.031933
0.041540
0.052853
0.071698
0.470786
0.473415
0.481065
0.494233
0.513738
0.540544
0.574890
0.612113
0.687621
-0.017747
-0.599229
-0.527004
-0.514130
-0.512660
-0.523431
-0.527014
-0.508979
-0.475373
-0.428632
-0.373036
-0.313641
-0.255756
-0.205801
-0.166060
-0.137218
-0.119305
-0.107643
-0.101253
-0.102564
-0.110524
-0.122555
-0.134917
-0.143634
-0.145969
-0.141000
-0.128482
-0.114085
-0.098882
-0.083360
-0.067851
-0.052695
-0.038282
-0.025047
-0.013448
-0.003986
0.002731
0.005931
0.004813
-0.000932
-0.010463
-0.021680
-0.031978
-0.039327
-0.042120
-0.040316
-0.035125
-0.027908
-0.019949
-0.012360
-0.006039
-0.001665
0.000302
-0.000333
-0.003431
-0.008464
-0.014535
-0.020524
-0.025318
-0.027447
-0.027347
-0.025388
-0.022067
-0.017949
-0.013592
-0.009498
-0.006097
-0.003769
-0.002858
-0.003667
-0.006397
-0.011041
-0.017275
-0.024430
-0.031580
-0.037744
-0.042102
-0.044156
-0.043363
-0.040040
-0.034725
-0.028049
-0.020618
-0.012928
-0.005320
0.002035
0.009142
0.016174
0.023473
0.031544
0.044039
0.497663
0.501285
0.511936
0.530725
0.559805
0.602962
0.666847
0.762888
0.898018
0.934951
0.000000
-0.517649
-0.508294
-0.499859
-0.500010
-0.500462
-0.489650
-0.464550
-0.429294
-0.388751
-0.348474
-0.313314
-0.284739
-0.261160
-0.240680
-0.222452
-0.199688
-0.175890
-0.154789
-0.138870
-0.128438
-0.122598
-0.119453
-0.116829
-0.113077
-0.107362
-0.097644
-0.086871
-0.075327
-0.063266
-0.051055
-0.039199
-0.028284
-0.018958
-0.011940
-0.008094
-0.008406
-0.013627
-0.023568
-0.036554
-0.049774
-0.060378
-0.066482
-0.066542
-0.061603
-0.053184
-0.042850
-0.032009
-0.021810
-0.013126
-0.006576
-0.002559
-0.001266
-0.002633
-0.006268
-0.011426
-0.017088
-0.022153
-0.025667
-0.026521
-0.025515
-0.023022
-0.019592
-0.015812
-0.012234
-0.009342
-0.007564
-0.007283
-0.008823
-0.012388
-0.017949
-0.025142
-0.033242
-0.041267
-0.048178
-0.053097
-0.055469
-0.054702
-0.051297
-0.045864
-0.039124
-0.031778
-0.024404
-0.017418
-0.011060
-0.005409
-0.000404
0.004138
0.008499
0.014244
0.517811
0.521896
0.533882
0.554927
0.587128
0.633674
0.698421
0.782992
0.880918
0.971884
0.890786
0.000000
-0.493151
-0.478007
-0.463200
-0.453398
-0.443149
-0.426611
-0.407346
-0.390425
-0.379604
-0.375310
-0.374107
-0.368434
-0.352717
-0.325227
-0.288341
-0.246128
-0.204201
-0.166572
-0.135478
-0.111894
-0.095617
-0.085408
-0.079402
-0.075614
-0.072057
-0.066246
-0.059542
-0.051988
-0.043879
-0.035761
-0.028337
-0.022417
-0.018943
-0.019023
-0.023744
-0.033594
-0.047693
-0.063578
-0.077988
-0.088078
-0.092108
-0.088613
-0.080047
-0.068126
-0.054575
-0.040889
-0.028230
-0.017427
-0.009015
-0.003307
-0.000436
-0.000351
-0.002747
-0.007011
-0.012243
-0.017409
-0.021583
-0.023608
-0.023696
-0.022214
-0.019684
-0.016696
-0.013828
-0.011607
-0.010502
-0.010931
-0.013240
-0.017631
-0.024056
-0.032116
-0.041049
-0.049836
-0.057398
-0.062809
-0.065327
-0.064560
-0.061101
-0.055628
-0.048950
-0.041850
-0.034989
-0.028851
-0.023749
-0.019840
-0.017169
-0.015698
-0.015331
-0.016541
0.530388
0.534386
0.546030
0.566127
0.595957
0.637063
0.690806
0.756624
0.822316
0.846426
0.809689
0.696978
0.000000
-0.450948
-0.423888
-0.402008
-0.389305
-0.379356
-0.375649
-0.383152
-0.402972
-0.429780
-0.454922
-0.465270
-0.450055
-0.408748
-0.355272
-0.295994
-0.236892
-0.182548
-0.135909
-0.098620
-0.071242
-0.053308
-0.043356
-0.039171
-0.038266
-0.037963
-0.036100
-0.033389
-0.029899
-0.026168
-0.022977
-0.021290
-0.022270
-0.027214
-0.037149
-0.052076
-0.070328
-0.088777
-0.103924
-0.113159
-0.113611
-0.106520
-0.094297
-0.078985
-0.062458
-0.046248
-0.031491
-0.018946
-0.009057
-0.002039
0.002047
0.003277
0.001905
-0.001558
-0.006328
-0.011439
-0.015945
-0.019029
-0.020080
-0.019600
-0.018015
-0.015887
-0.013804
-0.012316
-0.011930
-0.013092
-0.016163
-0.021344
-0.028566
-0.037402
-0.047066
-0.056512
-0.064632
-0.070490
-0.072946
-0.072243
-0.068843
-0.063498
-0.057088
-0.050465
-0.044350
-0.039291
-0.035663
-0.033700
-0.033548
-0.035297
-0.039021
-0.047181
0.535558
0.539039
0.549096
0.566180
0.590889
0.623560
0.663115
0.704695
0.735334
0.728717
0.667541
0.584267
0.422109
0.000000
-0.387782
-0.351675
-0.342540
-0.336269
-0.343078
-0.368854
-0.413799
-0.468923
-0.515694
-0.533714
-0.507143
-0.455894
-0.390300
-0.318760
-0.248010
-0.182906
-0.126519
-0.080519
-0.045547
-0.021414
-0.007136
-0.000922
-0.000337
-0.002809
-0.005710
-0.007577
-0.008585
-0.009338
-0.010712
-0.013825
-0.020027
-0.030668
-0.046482
-0.066787
-0.089123
-0.109831
-0.125236
-0.132597
-0.129291
-0.118710
-0.103222
-0.085083
-0.066226
-0.048151
-0.031913
-0.018172
-0.007273
0.000658
0.005631
0.007749
0.007235
0.004505
0.000233
-0.004701
-0.009372
-0.013014
-0.014951
-0.015360
-0.014633
-0.013306
-0.011966
-0.011181
-0.011481
-0.013338
-0.017122
-0.023024
-0.030954
-0.040459
-0.050732
-0.060710
-0.069252
-0.075372
-0.077852
-0.077283
-0.074127
-0.069164
-0.063308
-0.057446
-0.052338
-0.048572
-0.046574
-0.046651
-0.049042
-0.053963
-0.061647
-0.076481
0.534283
0.537033
0.544889
0.557892
0.575890
0.598059
0.621940
0.641841
0.646717
0.618787
0.540574
0.403663
0.259950
-0.147765
-0.380213
-0.323572
-0.306510
-0.298122
-0.311758
-0.351923
-0.414668
-0.486041
-0.543149
-0.554185
-0.521672
-0.464474
-0.393022
-0.316213
-0.240838
-0.171547
-0.111137
-0.061030
-0.021739
0.006827
0.025279
0.034806
0.037205
0.034704
0.029364
0.023917
0.019157
0.014267
0.008287
0.000004
-0.011980
-0.028836
-0.050755
-0.076277
-0.102259
-0.124697
-0.140013
-0.144169
-0.137413
-0.123942
-0.106119
-0.086207
-0.066071
-0.047098
-0.030215
-0.015964
-0.004593
0.003848
0.009422
0.012246
0.012508
0.010535
0.006875
0.002299
-0.002326
-0.006242
-0.008757
-0.009825
-0.009769
-0.009093
-0.008373
-0.008189
-0.009090
-0.011559
-0.015969
-0.022493
-0.031011
-0.041050
-0.051785
-0.062145
-0.070974
-0.077203
-0.079771
-0.079515
-0.076871
-0.072614
-0.067652
-0.062868
-0.059021
-0.056715
-0.056411
-0.058477
-0.063242
-0.071049
-0.082290
-0.103151
0.527914
0.529809
0.535129
0.543620
0.554638
0.566740
0.576998
0.580022
0.566887
0.524329
0.435186
0.276624
0.000945
-0.555480
-0.436854
-0.322898
-0.283351
-0.274953
-0.295395
-0.342819
-0.410046
-0.481348
-0.530826
-0.529322
-0.495147
-0.438281
-0.368614
-0.294398
-0.221769
-0.154810
-0.095891
-0.046111
-0.005749
0.025340
0.047471
0.061183
0.067464
0.067743
0.063616
0.056950
0.049960
0.041713
0.031408
0.017964
0.000187
-0.022643
-0.050028
-0.079789
-0.108292
-0.131289
-0.144941
-0.145250
-0.136598
-0.121688
-0.103044
-0.082840
-0.062775
-0.044061
-0.027473
-0.013441
-0.002135
0.006442
0.012377
0.015786
0.016816
0.015705
0.012866
0.008932
0.004678
0.000840
-0.001946
-0.003396
-0.003778
-0.003559
-0.003300
-0.003583
-0.004969
-0.007946
-0.012873
-0.019895
-0.028861
-0.039269
-0.050291
-0.060872
-0.069921
-0.075868
-0.078833
-0.079174
-0.077372
-0.074183
-0.070470
-0.067064
-0.064686
-0.063923
-0.065251
-0.069086
-0.075842
-0.085981
-0.100063
-0.125823
0.518031
0.519074
0.521913
0.526130
0.530852
0.534447
0.534080
0.525162
0.500811
0.451446
0.364483
0.223798
0.009950
-0.255303
-0.297073
-0.276679
-0.263848
-0.267945
-0.292580
-0.337627
-0.396171
-0.451994
-0.476330
-0.470316
-0.438408
-0.388005
-0.326855
-0.261630
-0.197393
-0.137572
-0.084204
-0.038254
0.000052
0.030931
0.054782
0.071964
0.082709
0.087476
0.087201
0.084344
0.077613
0.067429
0.053745
0.035988
0.013457
-0.013943
-0.045031
-0.077108
-0.106330
-0.128630
-0.138441
-0.136621
-0.127302
-0.112713
-0.095078
-0.076267
-0.057709
-0.040402
-0.024982
-0.011796
-0.000986
0.007448
0.013576
0.017496
0.019312
0.019183
0.017399
0.014442
0.010953
0.007599
0.004945
0.003432
0.002863
0.002827
0.002791
0.002176
0.000421
-0.002956
-0.008286
-0.015675
-0.024929
-0.035525
-0.046635
-0.057218
-0.066159
-0.072146
-0.075691
-0.076915
-0.076293
-0.074521
-0.072369
-0.070573
-0.069777
-0.070520
-0.073272
-0.078483
-0.086635
-0.098297
-0.114177
-0.143135
0.506209
0.506486
0.507125
0.507663
0.507196
0.504182
0.496173
0.479556
0.449358
0.399266
0.322012
0.210846
0.065198
-0.091153
-0.171804
-0.204829
-0.223753
-0.244677
-0.274495
-0.313858
-0.356796
-0.390060
-0.403043
-0.395796
-0.369711
-0.329294
-0.279913
-0.226528
-0.173105
-0.122477
-0.076440
-0.035946
-0.001333
0.027473
0.050760
0.068861
0.082066
0.090613
0.097260
0.099245
0.094679
0.084564
0.069561
0.049655
0.024750
-0.004585
-0.036592
-0.068258
-0.095740
-0.114648
-0.120974
-0.119216
-0.111238
-0.098991
-0.084236
-0.068411
-0.052613
-0.037632
-0.024001
-0.012050
-0.001952
0.006231
0.012507
0.016922
0.019535
0.020452
0.019871
0.018142
0.015764
0.013287
0.011275
0.010050
0.009550
0.009454
0.009274
0.008448
0.006424
0.002744
-0.002884
-0.010507
-0.019884
-0.030479
-0.041486
-0.051935
-0.060478
-0.066944
-0.071292
-0.073683
-0.074546
-0.074470
-0.074088
-0.074006
-0.074760
-0.076826
-0.080652
-0.086704
-0.095506
-0.107688
-0.124054
-0.153908
0.493867
0.493497
0.492303
0.489865
0.485377
0.477531
0.464379
0.443246
0.410752
0.363061
0.296556
0.209371
0.104874
-0.002861
-0.082369
-0.134752
-0.172107
-0.204350
-0.236906
-0.270587
-0.301652
-0.322947
-0.331561
-0.325630
-0.305936
-0.275216
-0.237038
-0.194940
-0.151937
-0.110318
-0.071642
-0.036832
-0.006313
0.019851
0.041824
0.059892
0.074371
0.086355
0.095166
0.099109
0.097306
0.089624
0.076157
0.057111
0.032993
0.004988
-0.024739
-0.053092
-0.076506
-0.089995
-0.096137
-0.096141
-0.091435
-0.083358
-0.073036
-0.061392
-0.049184
-0.037035
-0.025441
-0.014783
-0.005339
0.002705
0.009245
0.014233
0.017675
0.019642
0.020278
0.019843
0.018731
0.017481
0.016453
0.015805
0.015609
0.015633
0.015443
0.014504
0.012289
0.008377
0.002541
-0.005193
-0.014526
-0.024921
-0.035618
-0.045646
-0.054287
-0.061356
-0.066733
-0.070543
-0.073108
-0.074865
-0.076287
-0.077830
-0.079923
-0.082979
-0.087421
-0.093721
-0.102399
-0.114060
-0.129480
-0.157425
0.482207
0.481299
0.478618
0.473849
0.466360
0.455126
0.438688
0.415160
0.382348
0.338056
0.280685
0.210269
0.130110
0.048276
-0.022158
-0.077943
-0.122335
-0.159782
-0.193289
-0.223454
-0.248418
-0.265276
-0.272216
-0.268230
-0.253862
-0.230885
-0.201721
-0.168899
-0.134685
-0.100889
-0.068811
-0.039273
-0.012702
0.010775
0.031235
0.048880
0.063974
0.076905
0.086517
0.091946
0.092404
0.087442
0.076894
0.060942
0.040304
0.016438
-0.008401
-0.031390
-0.048909
-0.060786
-0.068041
-0.071317
-0.071360
-0.068726
-0.063801
-0.056946
-0.048610
-0.039314
-0.029591
-0.019951
-0.010839
-0.002625
0.004442
0.010174
0.014511
0.017525
0.019330
0.020216
0.020474
0.020397
0.020251
0.020285
0.020537
0.020805
0.020690
0.019692
0.017320
0.013209
0.007218
-0.000523
-0.009629
-0.019622
-0.029809
-0.039606
-0.048568
-0.056445
-0.063076
-0.068461
-0.072768
-0.076267
-0.079271
-0.082114
-0.085144
-0.088740
-0.093295
-0.099325
-0.107273
-0.117579
-0.130805
-0.153852
0.472224
0.470844
0.466918
0.460308
0.450593
0.437027
0.418559
0.393903
0.361679
0.320684
0.270327
0.211237
0.145971
0.079336
0.017664
-0.035897
-0.081413
-0.120298
-0.153777
-0.182095
-0.204402
-0.219456
-0.226062
-0.223909
-0.213548
-0.196288
-0.173892
-0.148240
-0.121057
-0.093755
-0.067363
-0.042536
-0.019613
0.001301
0.020251
0.037336
0.052634
0.065845
0.076247
0.083152
0.085851
0.083816
0.076817
0.065051
0.049298
0.030986
0.012110
-0.005124
-0.019705
-0.031499
-0.040873
-0.048249
-0.053780
-0.057195
-0.058014
-0.055968
-0.051239
-0.044350
-0.035962
-0.026795
-0.017506
-0.008738
-0.000818
0.005885
0.011327
0.015460
0.018398
0.020312
0.021510
0.022298
0.022937
0.023602
0.024292
0.024805
0.024755
0.023670
0.021097
0.016742
0.010582
0.002889
-0.005866
-0.015341
-0.025061
-0.034728
-0.044174
-0.053084
-0.061100
-0.068010
-0.073817
-0.078663
-0.082750
-0.086334
-0.089757
-0.093452
-0.097655
-0.103096
-0.110013
-0.118663
-0.129108
-0.144800
0.464798
0.462897
0.457785
0.449617
0.438194
0.422997
0.403277
0.378164
0.346801
0.308556
0.263310
0.211802
0.155926
0.098732
0.043832
-0.006280
-0.050631
-0.089182
-0.122102
-0.149303
-0.170341
-0.184516
-0.191203
-0.190481
-0.182972
-0.169787
-0.152337
-0.132112
-0.110468
-0.088501
-0.066978
-0.046344
-0.026779
-0.008271
0.009285
0.025952
0.041469
0.055211
0.066689
0.075274
0.080308
0.081264
0.077896
0.070408
0.059555
0.046561
0.032891
0.019052
0.006250
-0.005708
-0.017294
-0.028822
-0.039975
-0.049584
-0.056047
-0.058297
-0.056370
-0.051037
-0.043155
-0.033822
-0.023765
-0.014055
-0.005279
0.002439
0.008849
0.013908
0.017715
0.020463
0.022432
0.023914
0.025155
0.026284
0.027280
0.027936
0.027838
0.026535
0.023602
0.018827
0.012282
0.004409
-0.004143
-0.012860
-0.021921
-0.031520
-0.041593
-0.051640
-0.060953
-0.069027
-0.075752
-0.081273
-0.085792
-0.089480
-0.092632
-0.096198
-0.100376
-0.105200
-0.111105
-0.118159
-0.126004
-0.134727
0.460903
0.458111
0.451563
0.441893
0.429061
0.412671
0.392144
0.366871
0.336309
0.300140
0.258454
0.211946
0.162048
0.110855
0.060762
0.013757
-0.028890
-0.066489
-0.098619
-0.124930
-0.145202
-0.158784
-0.165555
-0.165805
-0.160230
-0.149872
-0.135968
-0.119778
-0.102413
-0.084728
-0.067264
-0.050269
-0.033745
-0.017512
-0.001255
0.015344
0.031251
0.045972
0.058901
0.069345
0.076637
0.080249
0.079933
0.075902
0.068936
0.060098
0.049447
0.038433
0.027135
0.015108
0.001693
-0.013485
-0.029862
-0.045396
-0.057017
-0.062480
-0.061928
-0.057126
-0.048776
-0.038622
-0.028253
-0.017842
-0.008089
0.000509
0.007715
0.013489
0.017937
0.021264
0.023747
0.025686
0.027327
0.028747
0.029907
0.030624
0.030322
0.028487
0.024714
0.018912
0.011560
0.003523
-0.004546
-0.012478
-0.020785
-0.030109
-0.040564
-0.051472
-0.061708
-0.070387
-0.077281
-0.082642
-0.087003
-0.090830
-0.094345
-0.097585
-0.101300
-0.105736
-0.111082
-0.117226
-0.123609
-0.128706
0.462221
0.456978
0.448267
0.436994
0.422946
0.405661
0.384577
0.359231
0.329258
0.294500
0.255129
0.211768
0.165552
0.118067
0.071124
0.026406
-0.014763
-0.051417
-0.082761
-0.108424
-0.128092
-0.141298
-0.148133
-0.149019
-0.144707
-0.136205
-0.124653
-0.111169
-0.096711
-0.081976
-0.067362
-0.052996
-0.038801
-0.024557
-0.009755
0.006526
0.022986
0.039036
0.053656
0.065936
0.075141
0.080728
0.082434
0.080492
0.076000
0.069007
0.060610
0.051363
0.041023
0.029003
0.014567
-0.002778
-0.022574
-0.042495
-0.058259
-0.065817
-0.064494
-0.058799
-0.051056
-0.041115
-0.029968
-0.018892
-0.008609
0.000442
0.008051
0.014186
0.018948
0.022536
0.025218
0.027321
0.029175
0.030728
0.031874
0.032232
0.031506
0.029150
0.024709
0.018108
0.009930
0.001281
-0.006846
-0.014244
-0.021650
-0.030083
-0.039951
-0.050688
-0.061119
-0.070187
-0.077464
-0.083166
-0.087597
-0.091165
-0.094492
-0.097792
-0.101439
-0.105702
-0.110834
-0.116746
-0.123053
-0.128524
0.473248
0.459170
0.447350
0.434689
0.419801
0.401893
0.380477
0.355105
0.325480
0.291501
0.253354
0.211600
0.167214
0.121550
0.076176
0.032636
-0.007745
-0.043975
-0.075415
-0.101223
-0.120707
-0.133820
-0.140741
-0.141945
-0.138188
-0.130450
-0.119816
-0.107340
-0.093915
-0.080184
-0.066506
-0.052977
-0.039506
-0.025900
-0.011928
0.002360
0.018989
0.036014
0.051777
0.065111
0.075219
0.081572
0.083911
0.082356
0.077273
0.070499
0.062777
0.054093
0.044148
0.032375
0.018131
0.001057
-0.018361
-0.038081
-0.054359
-0.063426
-0.064610
-0.058974
-0.050404
-0.040300
-0.029304
-0.018326
-0.008085
0.000966
0.008604
0.014786
0.019595
0.023210
0.025874
0.027868
0.029407
0.030764
0.031703
0.031883
0.030922
0.028372
0.023872
0.017378
0.009370
0.000774
-0.007514
-0.015214
-0.022822
-0.031122
-0.040480
-0.050525
-0.060387
-0.069215
-0.076570
-0.082482
-0.087222
-0.091091
-0.094498
-0.097899
-0.101683
-0.106113
-0.111216
-0.116980
-0.123188
-0.129838
