# vtk DataFile Version 3.0
Scalar Field
ASCII
DATASET RECTILINEAR_GRID
DIMENSIONS 100 26 1
X_COORDINATES 100 double
0.050000 0.150000 0.250000 0.350000 0.450000 0.550000 0.650000 0.750000 0.850000 0.950000 1.050000 1.150000 1.250000 1.350000 1.450000 1.550000 1.650000 1.750000 1.850000 1.950000 2.050000 2.150000 2.250000 2.350000 2.450000 2.550000 2.650000 2.750000 2.850000 2.950000 3.050000 3.150000 3.250000 3.350000 3.450000 3.550000 3.650000 3.750000 3.850000 3.950000 4.050000 4.150000 4.250000 4.350000 4.450000 4.550000 4.650000 4.750000 4.850000 4.950000 5.050000 5.150000 5.250000 5.350000 5.450000 5.550000 5.650000 5.750000 5.850000 5.950000 6.050000 6.150000 6.250000 6.350000 6.450000 6.550000 6.650000 6.750000 6.850000 6.950000 7.050000 7.150000 7.250000 7.350000 7.450000 7.550000 7.650000 7.750000 7.850000 7.950000 8.050000 8.150000 8.250000 8.350000 8.450000 8.550000 8.650000 8.750000 8.850000 8.950000 9.050000 9.150000 9.250000 9.350000 9.450000 9.550000 9.650000 9.750000 9.850000 9.950000 
Y_COORDINATES 26 double
0.050000 0.150000 0.250000 0.350000 0.450000 0.550000 0.650000 0.750000 0.850000 0.950000 1.050000 1.150000 1.250000 1.350000 1.450000 1.550000 1.650000 1.750000 1.850000 1.950000 2.050000 2.150000 2.250000 2.350000 2.450000 2.550000 
Z_COORDINATES 1 double
0.0
POINT_DATA 2600
SCALARS Skalarfeld double 1
LOOKUP_TABLE default
0.301952
0.286915
0.272402
0.255366
0.234690
0.209894
0.180891
0.147962
0.111799
0.073513
0.034544
-0.003582
-0.039513
-0.072243
-0.101170
-0.126057
-0.146958
-0.163666
-0.176192
-0.184640
-0.189081
-0.189633
-0.186530
-0.180174
-0.171150
-0.160180
-0.148048
-0.135493
-0.123119
-0.111313
-0.100209
-0.089690
-0.079441
-0.069037
-0.058052
-0.046140
-0.033190
-0.018095
-0.001653
0.014365
0.028792
0.040877
0.050144
0.056381
0.059521
0.060007
0.058306
0.054164
0.047394
0.037857
0.025584
0.011051
-0.004448
-0.018693
-0.029282
-0.035064
-0.036863
-0.035635
-0.032829
-0.028746
-0.023570
-0.017952
-0.012413
-0.007339
-0.002986
0.000493
0.003024
0.004531
0.005138
0.004844
0.003712
0.001958
-0.000145
-0.002280
-0.004136
-0.005502
-0.006369
-0.006986
-0.007809
-0.009381
-0.012153
-0.016349
-0.021893
-0.028446
-0.035539
-0.042726
-0.049716
-0.056408
-0.062841
-0.069060
-0.075086
-0.080743
-0.086064
-0.091140
-0.096114
-0.101160
-0.106442
-0.112067
-0.118030
-0.124428
0.292679
0.286453
0.274927
0.259101
0.238828
0.213881
0.184208
0.150097
0.112322
0.072199
0.031483
-0.008028
-0.044855
-0.078015
-0.107004
-0.131677
-0.152024
-0.168367
-0.180875
-0.189428
-0.194027
-0.194712
-0.191643
-0.185174
-0.175876
-0.164487
-0.151822
-0.138665
-0.125656
-0.113219
-0.101511
-0.090433
-0.079678
-0.068825
-0.057433
-0.045008
-0.030843
-0.015419
0.000380
0.015587
0.029330
0.040929
0.049903
0.056061
0.059665
0.060529
0.058652
0.054276
0.047245
0.037395
0.024704
0.009640
-0.006355
-0.020772
-0.031042
-0.036165
-0.037109
-0.036106
-0.033658
-0.029622
-0.024190
-0.018424
-0.012752
-0.007563
-0.003106
0.000462
0.003085
0.004828
0.005564
0.005164
0.003890
0.002021
-0.000167
-0.002333
-0.004141
-0.005368
-0.006013
-0.006363
-0.006926
-0.008307
-0.011014
-0.015304
-0.021081
-0.027935
-0.035305
-0.042673
-0.049732
-0.056422
-0.062862
-0.069070
-0.074939
-0.080600
-0.085949
-0.091071
-0.096110
-0.101239
-0.106618
-0.112319
-0.118258
-0.124680
0.294919
0.291058
0.281456
0.266713
0.246780
0.221391
0.190361
0.153888
0.112838
0.068920
0.024627
-0.017623
-0.056113
-0.089953
-0.118910
-0.143173
-0.163121
-0.179187
-0.191677
-0.200685
-0.205872
-0.207088
-0.204295
-0.197706
-0.187826
-0.175407
-0.161322
-0.146435
-0.131475
-0.116952
-0.103115
-0.089959
-0.077270
-0.064709
-0.051880
-0.038385
-0.023884
-0.009018
0.005545
0.019286
0.031588
0.041855
0.049614
0.054637
0.057018
0.057057
0.054184
0.048851
0.041330
0.031539
0.019547
0.005899
-0.008085
-0.020448
-0.029461
-0.034611
-0.036552
-0.036091
-0.033264
-0.028659
-0.023568
-0.018234
-0.012720
-0.007660
-0.003293
0.000179
0.002659
0.004127
0.004590
0.004190
0.003025
0.001351
-0.000474
-0.002141
-0.003416
-0.004193
-0.004559
-0.004849
-0.005499
-0.007037
-0.009895
-0.014324
-0.020202
-0.027107
-0.034491
-0.041850
-0.048910
-0.055630
-0.062044
-0.068244
-0.074283
-0.080152
-0.085565
-0.090822
-0.096076
-0.101507
-0.107278
-0.113420
-0.119675
-0.125647
0.304323
0.301247
0.292732
0.278792
0.259054
0.232900
0.199750
0.159484
0.113000
0.062620
0.012458
-0.033917
-0.074545
-0.108878
-0.137250
-0.160441
-0.179361
-0.194805
-0.207233
-0.216827
-0.222953
-0.225056
-0.222737
-0.215969
-0.205180
-0.191165
-0.174910
-0.157413
-0.139533
-0.121912
-0.104935
-0.088743
-0.073285
-0.058385
-0.043817
-0.029374
-0.014958
-0.000729
0.012780
0.025174
0.035937
0.044483
0.050325
0.053246
0.053355
0.050992
0.046570
0.039864
0.031606
0.022043
0.011336
-0.000033
-0.011135
-0.020748
-0.027860
-0.032113
-0.033718
-0.033039
-0.030413
-0.026381
-0.021472
-0.016064
-0.010990
-0.006453
-0.002476
0.000597
0.002647
0.003633
0.003617
0.002798
0.001454
-0.000079
-0.001495
-0.002597
-0.003295
-0.003621
-0.003730
-0.003871
-0.004469
-0.005972
-0.008799
-0.013144
-0.018827
-0.025458
-0.032633
-0.039905
-0.047028
-0.053917
-0.060562
-0.066957
-0.073034
-0.078665
-0.084280
-0.089949
-0.095646
-0.101629
-0.108159
-0.115334
-0.122963
-0.130886
0.319409
0.316749
0.309078
0.295968
0.276547
0.249551
0.213585
0.167734
0.112641
0.051405
-0.007938
-0.059827
-0.102479
-0.136355
-0.162869
-0.183734
-0.200627
-0.214916
-0.227351
-0.237807
-0.245525
-0.249100
-0.247514
-0.240390
-0.228126
-0.211698
-0.192352
-0.171326
-0.149683
-0.128229
-0.107497
-0.087783
-0.069198
-0.051734
-0.035316
-0.019859
-0.005291
0.008408
0.021222
0.032617
0.042035
0.048789
0.052347
0.052574
0.049697
0.044218
0.036823
0.028339
0.019217
0.009835
0.000485
-0.008515
-0.016660
-0.023324
-0.027996
-0.030479
-0.030872
-0.029427
-0.026475
-0.022434
-0.017746
-0.012839
-0.008144
-0.003843
-0.000390
0.002120
0.003583
0.003927
0.003233
0.001780
-0.000034
-0.001789
-0.003160
-0.004025
-0.004361
-0.004285
-0.004032
-0.003920
-0.004338
-0.005676
-0.008247
-0.012195
-0.017544
-0.023935
-0.030979
-0.038119
-0.045143
-0.051938
-0.058469
-0.064733
-0.070735
-0.076519
-0.082245
-0.087957
-0.094045
-0.100805
-0.108475
-0.117280
-0.127385
-0.141442
0.339390
0.337153
0.330534
0.318741
0.300305
0.272982
0.233892
0.180295
0.111620
0.031292
-0.041924
-0.099857
-0.142833
-0.173831
-0.196047
-0.212455
-0.225732
-0.238074
-0.250731
-0.263357
-0.274044
-0.280360
-0.280150
-0.272513
-0.257981
-0.238004
-0.214347
-0.188668
-0.162321
-0.136304
-0.111291
-0.087698
-0.065752
-0.045561
-0.027154
-0.010508
0.004441
0.017818
0.029920
0.040621
0.048989
0.054150
0.055496
0.053089
0.047344
0.038847
0.028355
0.016835
0.005429
-0.004066
-0.012403
-0.019320
-0.024747
-0.028543
-0.030589
-0.030881
-0.029555
-0.026850
-0.023073
-0.018579
-0.013741
-0.008916
-0.004431
-0.000544
0.002461
0.004442
0.005209
0.004738
0.003167
0.000813
-0.001857
-0.004307
-0.006002
-0.007027
-0.007291
-0.006933
-0.006258
-0.005667
-0.005596
-0.006459
-0.008581
-0.012131
-0.017076
-0.023219
-0.030008
-0.037036
-0.043906
-0.050446
-0.056619
-0.062467
-0.068074
-0.073567
-0.079125
-0.084956
-0.091386
-0.098763
-0.107534
-0.118214
-0.131251
-0.153047
0.363476
0.361834
0.356831
0.347395
0.331445
0.305453
0.264069
0.200567
0.109983
-0.006584
-0.098866
-0.159559
-0.197632
-0.221095
-0.235199
-0.244049
-0.251321
-0.260329
-0.273383
-0.290482
-0.307554
-0.319090
-0.321616
-0.313461
-0.295703
-0.270803
-0.241438
-0.209890
-0.177876
-0.146589
-0.116805
-0.089006
-0.063477
-0.040381
-0.019805
-0.001794
0.013649
0.026587
0.037189
0.046842
0.054237
0.058072
0.057470
0.052982
0.045349
0.035182
0.023033
0.009623
-0.003989
-0.016505
-0.024945
-0.030707
-0.034183
-0.035657
-0.035356
-0.033503
-0.030341
-0.026152
-0.021249
-0.015966
-0.010634
-0.005564
-0.001031
0.002726
0.005476
0.007004
0.007106
0.005710
0.002969
-0.000697
-0.004676
-0.008316
-0.011133
-0.012621
-0.012918
-0.012237
-0.010995
-0.009694
-0.008845
-0.008911
-0.010257
-0.013094
-0.017440
-0.023095
-0.029628
-0.036557
-0.043265
-0.049543
-0.055293
-0.060592
-0.065585
-0.070486
-0.075559
-0.081117
-0.087540
-0.095281
-0.104899
-0.117072
-0.132616
-0.160517
0.390551
0.389768
0.387203
0.381696
0.370786
0.349704
0.309651
0.235904
0.108326
-0.082965
-0.192889
-0.241504
-0.263976
-0.273796
-0.275794
-0.273946
-0.272360
-0.275553
-0.287634
-0.310422
-0.340041
-0.361774
-0.369529
-0.361241
-0.339457
-0.308513
-0.272434
-0.234265
-0.196081
-0.159213
-0.124485
-0.092392
-0.063229
-0.037174
-0.014355
0.005094
0.020983
0.033117
0.041609
0.046915
0.051508
0.054186
0.051596
0.045850
0.038172
0.028832
0.017783
0.005180
-0.008331
-0.021559
-0.032963
-0.039577
-0.042455
-0.042755
-0.040975
-0.037559
-0.032902
-0.027378
-0.021353
-0.015179
-0.009190
-0.003687
0.001069
0.004840
0.007377
0.008408
0.007680
0.005095
0.000855
-0.004480
-0.010090
-0.015118
-0.018935
-0.020981
-0.021183
-0.019986
-0.017962
-0.015727
-0.013866
-0.012891
-0.013203
-0.015051
-0.018503
-0.023416
-0.029439
-0.036078
-0.042786
-0.048850
-0.054207
-0.058976
-0.063312
-0.067490
-0.071860
-0.076832
-0.082875
-0.090528
-0.100434
-0.113366
-0.130282
-0.161190
0.419019
0.419363
0.420104
0.420342
0.417915
0.407828
0.378470
0.302810
0.113040
-0.249426
-0.336486
-0.333021
-0.327731
-0.321801
-0.311288
-0.298492
-0.286893
-0.281863
-0.289343
-0.313973
-0.353992
-0.397007
-0.413624
-0.406571
-0.381135
-0.344532
-0.302380
-0.258409
-0.214916
-0.173285
-0.134343
-0.098594
-0.066348
-0.037823
-0.013216
0.007178
0.022824
0.033009
0.037598
0.038015
0.036257
0.033675
0.030413
0.026395
0.021718
0.016073
0.008934
-0.000051
-0.010740
-0.022336
-0.033460
-0.042494
-0.046969
-0.047478
-0.045462
-0.041504
-0.036125
-0.029808
-0.023009
-0.016147
-0.009603
-0.003710
0.001239
0.004968
0.007176
0.007528
0.005729
0.001695
-0.004269
-0.011399
-0.018619
-0.024849
-0.029336
-0.031487
-0.031272
-0.029294
-0.026268
-0.022911
-0.019877
-0.017715
-0.016847
-0.017547
-0.019921
-0.023881
-0.029140
-0.035240
-0.041615
-0.047701
-0.052792
-0.057133
-0.060883
-0.064342
-0.067920
-0.072101
-0.077428
-0.084502
-0.094004
-0.106724
-0.123599
-0.154426
0.446790
0.448414
0.453005
0.460331
0.469540
0.477810
0.476097
0.433929
0.213642
-0.562679
-0.505248
-0.389703
-0.363868
-0.352332
-0.336100
-0.318748
-0.301929
-0.292397
-0.295009
-0.315274
-0.353980
-0.401343
-0.437533
-0.434097
-0.407052
-0.367575
-0.322523
-0.275916
-0.230017
-0.186159
-0.145184
-0.107670
-0.074054
-0.044747
-0.020275
-0.001450
0.010720
0.015732
0.014564
0.009847
0.004413
-0.000055
-0.001668
-0.001856
-0.001591
-0.001789
-0.003351
-0.007000
-0.013028
-0.021100
-0.030204
-0.038858
-0.045525
-0.048069
-0.046978
-0.043614
-0.038500
-0.032194
-0.025246
-0.018169
-0.011425
-0.005420
-0.000513
0.002950
0.004600
0.004044
0.000970
-0.004644
-0.012331
-0.021087
-0.029595
-0.036618
-0.041349
-0.043139
-0.042160
-0.039136
-0.034902
-0.030273
-0.025962
-0.022543
-0.020447
-0.019950
-0.021178
-0.024080
-0.028424
-0.033798
-0.039657
-0.045416
-0.050558
-0.054521
-0.057775
-0.060579
-0.063356
-0.066626
-0.070971
-0.077018
-0.085444
-0.096993
-0.112493
-0.140709
0.471504
0.474325
0.482562
0.496823
0.518137
0.547866
0.587076
0.633051
0.720488
0.078905
-0.439924
-0.374600
-0.368867
-0.363189
-0.354856
-0.341421
-0.329612
-0.320223
-0.319055
-0.331148
-0.358275
-0.394463
-0.424312
-0.432853
-0.407115
-0.368346
-0.324692
-0.279895
-0.235811
-0.193574
-0.154039
-0.117929
-0.085942
-0.058867
-0.037733
-0.023766
-0.017810
-0.019275
-0.025555
-0.032913
-0.038397
-0.040031
-0.037415
-0.032368
-0.026359
-0.020636
-0.016296
-0.014239
-0.015035
-0.018736
-0.024746
-0.031868
-0.038581
-0.043443
-0.044458
-0.042624
-0.038682
-0.033218
-0.026844
-0.020160
-0.013721
-0.008024
-0.003514
-0.000620
0.000213
-0.001452
-0.005916
-0.013099
-0.022343
-0.032422
-0.041840
-0.049270
-0.053887
-0.054940
-0.052896
-0.048590
-0.042974
-0.036955
-0.031305
-0.026616
-0.023311
-0.021654
-0.021764
-0.023608
-0.026989
-0.031541
-0.036754
-0.042053
-0.046920
-0.050724
-0.053548
-0.055762
-0.057755
-0.060041
-0.063206
-0.067864
-0.074654
-0.084234
-0.097292
-0.121075
0.490958
0.494620
0.505402
0.524438
0.553893
0.597537
0.661902
0.757856
0.889559
0.910042
0.000000
-0.371606
-0.368611
-0.370059
-0.370623
-0.370098
-0.367803
-0.364437
-0.363335
-0.366851
-0.375534
-0.388040
-0.396193
-0.394862
-0.378198
-0.343362
-0.304441
-0.265312
-0.227049
-0.190401
-0.156154
-0.125165
-0.098410
-0.077093
-0.062653
-0.056322
-0.058042
-0.065532
-0.074773
-0.081828
-0.084142
-0.079783
-0.071178
-0.060071
-0.048100
-0.036654
-0.026871
-0.019655
-0.015640
-0.015093
-0.017755
-0.022763
-0.028768
-0.034249
-0.037884
-0.038053
-0.035872
-0.031887
-0.026711
-0.020992
-0.015363
-0.010407
-0.006659
-0.004633
-0.004845
-0.007769
-0.013667
-0.022340
-0.032946
-0.044080
-0.054126
-0.061691
-0.065913
-0.065951
-0.062617
-0.056860
-0.049749
-0.042284
-0.035287
-0.029366
-0.024927
-0.022205
-0.021293
-0.022155
-0.024612
-0.028330
-0.032831
-0.037554
-0.041945
-0.045556
-0.047978
-0.049629
-0.050841
-0.052093
-0.053934
-0.056939
-0.061678
-0.068711
-0.078575
-0.096757
0.503607
0.507581
0.519256
0.539744
0.571005
0.615912
0.677730
0.758183
0.851236
0.930525
0.835374
0.000000
-0.373169
-0.377728
-0.388177
-0.402679
-0.417900
-0.429067
-0.431326
-0.422146
-0.405633
-0.386496
-0.365645
-0.343788
-0.320075
-0.293429
-0.260713
-0.229285
-0.199435
-0.171307
-0.145514
-0.122981
-0.104942
-0.092969
-0.088633
-0.092459
-0.102683
-0.115244
-0.125459
-0.129973
-0.125496
-0.114517
-0.099325
-0.081982
-0.064275
-0.047646
-0.033198
-0.021735
-0.013812
-0.009716
-0.009373
-0.012210
-0.017130
-0.022708
-0.027570
-0.030150
-0.029882
-0.027712
-0.024128
-0.019776
-0.015334
-0.011454
-0.008750
-0.007819
-0.009245
-0.013523
-0.020866
-0.030948
-0.042768
-0.054787
-0.065298
-0.072860
-0.076368
-0.075232
-0.070500
-0.063242
-0.054639
-0.045772
-0.037509
-0.030464
-0.025018
-0.021369
-0.019574
-0.019578
-0.021203
-0.024135
-0.027924
-0.032024
-0.035885
-0.039062
-0.041074
-0.042144
-0.042552
-0.042719
-0.043137
-0.044312
-0.046735
-0.050854
-0.057067
-0.069010
0.508878
0.512637
0.523600
0.542526
0.570682
0.609572
0.660228
0.720290
0.775585
0.789136
0.740223
0.616403
0.000000
-0.392815
-0.407903
-0.443228
-0.480028
-0.510416
-0.515855
-0.488961
-0.442522
-0.388586
-0.335774
-0.289376
-0.250260
-0.220435
-0.194452
-0.170864
-0.150303
-0.132114
-0.116829
-0.105509
-0.099642
-0.100908
-0.110258
-0.126502
-0.145702
-0.162452
-0.172161
-0.171703
-0.159590
-0.141548
-0.119896
-0.096803
-0.074084
-0.053139
-0.034973
-0.020253
-0.009388
-0.002581
0.000194
-0.000685
-0.004378
-0.009620
-0.014973
-0.019115
-0.020950
-0.020680
-0.018815
-0.015995
-0.012918
-0.010284
-0.008775
-0.009064
-0.011794
-0.017471
-0.026244
-0.037664
-0.050597
-0.063389
-0.074263
-0.081769
-0.084139
-0.081844
-0.075770
-0.067131
-0.057204
-0.047133
-0.037807
-0.029835
-0.023568
-0.019166
-0.016647
-0.015931
-0.016835
-0.019056
-0.022162
-0.025626
-0.028898
-0.031514
-0.033044
-0.033464
-0.033019
-0.032052
-0.030980
-0.030230
-0.030199
-0.031225
-0.033571
-0.039021
0.507179
0.510383
0.519639
0.535309
0.557793
0.587097
0.621777
0.656476
0.677743
0.660381
0.586881
0.492583
0.315808
0.000000
-0.458279
-0.508655
-0.549596
-0.591521
-0.589897
-0.541992
-0.468183
-0.384435
-0.303083
-0.232674
-0.178087
-0.138952
-0.111181
-0.093626
-0.081833
-0.073597
-0.069963
-0.072242
-0.081867
-0.099844
-0.125443
-0.155090
-0.182869
-0.202675
-0.210284
-0.201454
-0.182985
-0.158802
-0.131781
-0.104192
-0.077776
-0.053794
-0.033088
-0.016161
-0.003268
0.005502
0.010191
0.011051
0.008681
0.004108
-0.001350
-0.006428
-0.009842
-0.011166
-0.010872
-0.009512
-0.007772
-0.006383
-0.006082
-0.007609
-0.011653
-0.018711
-0.028858
-0.041527
-0.055457
-0.068892
-0.079958
-0.087092
-0.088426
-0.085022
-0.077828
-0.068125
-0.057240
-0.046331
-0.036282
-0.027677
-0.020835
-0.015876
-0.012792
-0.011482
-0.011759
-0.013332
-0.015786
-0.018606
-0.021244
-0.023212
-0.024166
-0.023866
-0.022513
-0.020373
-0.017782
-0.015082
-0.012571
-0.010473
-0.008923
-0.007898
0.499535
0.501939
0.508785
0.520025
0.535342
0.553671
0.572275
0.585169
0.581125
0.542438
0.451059
0.297506
0.139032
-0.311733
-0.598191
-0.538064
-0.584918
-0.635096
-0.613685
-0.549831
-0.460323
-0.360803
-0.263899
-0.178807
-0.111129
-0.062468
-0.030383
-0.011284
-0.005570
-0.005593
-0.013579
-0.030692
-0.057409
-0.093045
-0.134542
-0.176090
-0.210468
-0.231677
-0.233180
-0.217611
-0.193734
-0.165140
-0.134696
-0.104559
-0.076275
-0.050885
-0.029027
-0.011031
0.002989
0.013051
0.019238
0.021718
0.020867
0.017420
0.012478
0.007283
0.002909
0.000310
-0.000664
-0.000523
0.000061
0.000341
-0.000470
-0.003161
-0.008449
-0.016798
-0.028194
-0.041951
-0.056699
-0.070595
-0.081679
-0.088228
-0.088535
-0.084300
-0.076420
-0.066177
-0.054880
-0.043653
-0.033336
-0.024469
-0.017333
-0.012021
-0.008508
-0.006691
-0.006394
-0.007341
-0.009140
-0.011291
-0.013251
-0.014527
-0.014768
-0.013696
-0.011395
-0.008066
-0.003969
0.000641
0.005566
0.010694
0.016026
0.023324
0.487422
0.488933
0.493140
0.499711
0.507873
0.516008
0.520990
0.517230
0.495619
0.442628
0.340233
0.163606
-0.140184
-0.762498
-0.658318
-0.558559
-0.585423
-0.599806
-0.569187
-0.503348
-0.415280
-0.317725
-0.221494
-0.134971
-0.063920
-0.010730
0.026173
0.049753
0.058673
0.054418
0.036791
0.006299
-0.035384
-0.085363
-0.138476
-0.187399
-0.224180
-0.242521
-0.236231
-0.217325
-0.190862
-0.160645
-0.129435
-0.099157
-0.071092
-0.046039
-0.024446
-0.006506
0.007771
0.018480
0.025753
0.029723
0.030597
0.028810
0.025134
0.020595
0.016194
0.012921
0.011152
0.010433
0.010137
0.009519
0.007765
0.004055
-0.002325
-0.011783
-0.024205
-0.038793
-0.054086
-0.068195
-0.079208
-0.084283
-0.084244
-0.079746
-0.071817
-0.061715
-0.050678
-0.039743
-0.029670
-0.020935
-0.013783
-0.008292
-0.004444
-0.002156
-0.001277
-0.001565
-0.002655
-0.004070
-0.005281
-0.005796
-0.005248
-0.003346
-0.000074
0.004429
0.009973
0.016389
0.023574
0.031536
0.040417
0.053657
0.472495
0.473145
0.474848
0.477126
0.479009
0.478740
0.473344
0.458086
0.425916
0.366955
0.267890
0.110898
-0.127546
-0.432133
-0.499012
-0.503050
-0.516013
-0.510464
-0.480532
-0.425720
-0.353145
-0.271732
-0.189781
-0.113969
-0.048877
0.003346
0.042645
0.068984
0.087233
0.085379
0.063307
0.025581
-0.023939
-0.080493
-0.137494
-0.186963
-0.221237
-0.229654
-0.221013
-0.201549
-0.175784
-0.147143
-0.118029
-0.090034
-0.064160
-0.040998
-0.020869
-0.003898
0.009927
0.020716
0.028627
0.033808
0.036393
0.036606
0.034885
0.031914
0.028436
0.025467
0.023546
0.022412
0.021566
0.020312
0.017839
0.013327
0.006096
-0.004188
-0.017309
-0.032369
-0.047837
-0.061766
-0.072033
-0.076421
-0.076314
-0.072147
-0.064882
-0.055664
-0.045586
-0.035547
-0.026194
-0.017935
-0.010985
-0.005429
-0.001279
0.001504
0.003023
0.003479
0.003197
0.002624
0.002264
0.002600
0.004002
0.006780
0.011021
0.016644
0.023529
0.031582
0.040796
0.051299
0.063390
0.082131
0.456348
0.456243
0.455781
0.454453
0.451287
0.444655
0.432017
0.409664
0.372513
0.314073
0.226714
0.102959
-0.059044
-0.237579
-0.337210
-0.384277
-0.406761
-0.405163
-0.384759
-0.345666
-0.292223
-0.230436
-0.166331
-0.105014
-0.050177
-0.003913
0.033013
0.061707
0.079927
0.079246
0.059589
0.023681
-0.023972
-0.077411
-0.129348
-0.171857
-0.195657
-0.199544
-0.191148
-0.174219
-0.152270
-0.128031
-0.103406
-0.079625
-0.057439
-0.037287
-0.019423
-0.003984
0.008985
0.019523
0.027739
0.033775
0.037766
0.039861
0.040286
0.039450
0.037794
0.036353
0.035035
0.034021
0.033032
0.031473
0.028580
0.023573
0.015832
0.005106
-0.008302
-0.023421
-0.038673
-0.052100
-0.060990
-0.065579
-0.066009
-0.062845
-0.056959
-0.049312
-0.040794
-0.032128
-0.023836
-0.016263
-0.009614
-0.004010
0.000477
0.003822
0.006069
0.007367
0.008002
0.008384
0.008986
0.010264
0.012582
0.016270
0.021451
0.028104
0.036175
0.045640
0.056576
0.069230
0.084071
0.107762
0.440382
0.439653
0.437427
0.433250
0.426274
0.415135
0.397833
0.371650
0.333169
0.278519
0.204027
0.107741
-0.007035
-0.126291
-0.215070
-0.271204
-0.302009
-0.310791
-0.301580
-0.276963
-0.240227
-0.195630
-0.147563
-0.099918
-0.055698
-0.016871
0.015542
0.041224
0.055707
0.055705
0.040499
0.011740
-0.026850
-0.069758
-0.110117
-0.140614
-0.156047
-0.159699
-0.154016
-0.141776
-0.125539
-0.107325
-0.088543
-0.070078
-0.052437
-0.035914
-0.020709
-0.007002
0.005047
0.015337
0.023845
0.030627
0.035779
0.039426
0.041676
0.042998
0.044018
0.044230
0.044071
0.043747
0.043098
0.041644
0.038714
0.033608
0.025788
0.015074
0.001829
-0.012943
-0.027634
-0.039906
-0.048555
-0.053582
-0.055073
-0.053521
-0.049601
-0.044024
-0.037437
-0.030374
-0.023246
-0.016362
-0.009957
-0.004217
0.000694
0.004685
0.007736
0.009942
0.011557
0.012957
0.014579
0.016846
0.020125
0.024719
0.030778
0.038341
0.047409
0.058011
0.070292
0.084599
0.101578
0.129494
0.425756
0.424519
0.420891
0.414537
0.404797
0.390622
0.370533
0.342646
0.304799
0.254868
0.191384
0.114614
0.028254
-0.058947
-0.132038
-0.185375
-0.219241
-0.235168
-0.235273
-0.222045
-0.198245
-0.167087
-0.131873
-0.095626
-0.060822
-0.029288
-0.002253
0.018655
0.030714
0.032043
0.022072
0.001936
-0.025495
-0.055856
-0.083880
-0.104498
-0.116394
-0.120415
-0.117857
-0.110510
-0.100130
-0.088129
-0.075470
-0.062674
-0.049938
-0.037313
-0.024877
-0.012836
-0.001501
0.008809
0.017868
0.025574
0.031913
0.037028
0.041293
0.044645
0.047131
0.048877
0.050082
0.050811
0.050894
0.049931
0.047357
0.042577
0.035132
0.024886
0.012210
-0.001915
-0.015627
-0.027412
-0.036379
-0.042291
-0.045314
-0.045809
-0.044182
-0.040847
-0.036208
-0.030639
-0.024480
-0.018057
-0.011679
-0.005627
-0.000205
0.004472
0.008353
0.011452
0.014021
0.016398
0.018986
0.022198
0.026373
0.031781
0.038607
0.046930
0.056781
0.068218
0.081412
0.096760
0.115039
0.146076
0.413413
0.411734
0.406949
0.398910
0.387182
0.371013
0.349365
0.320989
0.284586
0.239097
0.184164
0.120780
0.052049
-0.016406
-0.076975
-0.124933
-0.158654
-0.178247
-0.184724
-0.179692
-0.165361
-0.144217
-0.118816
-0.091551
-0.064491
-0.039304
-0.017326
-0.000191
0.010426
0.013345
0.008229
-0.004108
-0.021631
-0.041313
-0.059648
-0.074135
-0.083331
-0.087359
-0.087037
-0.083554
-0.078124
-0.071715
-0.064891
-0.057766
-0.050093
-0.041495
-0.031776
-0.021126
-0.010080
0.000714
0.010735
0.019694
0.027535
0.034301
0.039963
0.044657
0.048485
0.051558
0.053980
0.055742
0.056665
0.056401
0.054476
0.050375
0.043682
0.034239
0.022348
0.008800
-0.004748
-0.016720
-0.026329
-0.033419
-0.038190
-0.040833
-0.041424
-0.040065
-0.036974
-0.032443
-0.026786
-0.020446
-0.013822
-0.007189
-0.001179
0.004165
0.008733
0.012619
0.015983
0.019144
0.022488
0.026396
0.031214
0.037234
0.044649
0.053553
0.063972
0.075940
0.089589
0.105268
0.123721
0.155832
0.404177
0.402004
0.396113
0.386658
0.373434
0.355936
0.333447
0.305162
0.270340
0.228533
0.179909
0.125617
0.068125
0.011241
-0.040469
-0.083470
-0.115841
-0.137028
-0.147431
-0.147980
-0.140346
-0.126462
-0.108344
-0.087922
-0.066920
-0.046813
-0.028857
-0.014385
-0.004565
-0.000199
-0.001496
-0.007891
-0.018016
-0.029913
-0.041657
-0.051298
-0.057812
-0.061206
-0.062057
-0.061254
-0.059707
-0.058087
-0.056634
-0.055050
-0.052523
-0.048017
-0.040828
-0.031079
-0.019678
-0.007821
0.003645
0.014119
0.023454
0.031580
0.038558
0.044500
0.049514
0.053698
0.057110
0.059726
0.061406
0.061883
0.060762
0.057546
0.051796
0.042947
0.031027
0.017336
0.003310
-0.009416
-0.019876
-0.028033
-0.034277
-0.038699
-0.040978
-0.040873
-0.038565
-0.034459
-0.028695
-0.021919
-0.015044
-0.008281
-0.001690
0.004250
0.009432
0.013907
0.017847
0.021531
0.025305
0.029561
0.034681
0.041007
0.048777
0.058079
0.068880
0.081121
0.094811
0.110114
0.127461
0.156645
0.398970
0.395926
0.388665
0.377822
0.363367
0.344918
0.321954
0.293946
0.260489
0.221472
0.177293
0.129072
0.078791
0.029215
-0.016522
-0.055717
-0.086561
-0.108290
-0.120981
-0.125178
-0.122129
-0.113362
-0.100498
-0.085117
-0.068654
-0.052367
-0.037337
-0.024610
-0.015127
-0.009538
-0.008022
-0.010206
-0.015129
-0.021619
-0.028554
-0.034364
-0.038499
-0.041003
-0.042381
-0.043388
-0.044766
-0.046998
-0.050110
-0.053516
-0.055905
-0.055403
-0.050439
-0.040924
-0.028316
-0.015171
-0.002310
0.009723
0.020514
0.029960
0.038126
0.045136
0.051112
0.056145
0.060280
0.063505
0.065772
0.066925
0.066663
0.064318
0.058849
0.050038
0.037911
0.023164
0.007610
-0.006455
-0.017619
-0.026076
-0.032794
-0.038106
-0.041315
-0.041587
-0.038909
-0.034537
-0.029091
-0.022582
-0.015339
-0.008149
-0.001301
0.004953
0.010525
0.015401
0.019725
0.023692
0.027576
0.031803
0.036814
0.043096
0.050998
0.060591
0.071693
0.084064
0.097524
0.111982
0.127410
0.148903
0.399433
0.393955
0.384574
0.372201
0.356663
0.337492
0.314213
0.286450
0.253981
0.216870
0.175604
0.131230
0.085405
0.040309
-0.001650
-0.038275
-0.067837
-0.089732
-0.103705
-0.110148
-0.110038
-0.104626
-0.095270
-0.083303
-0.069950
-0.056296
-0.043296
-0.031685
-0.022146
-0.015522
-0.011986
-0.011341
-0.012754
-0.015969
-0.019623
-0.022917
-0.025463
-0.027338
-0.029000
-0.031107
-0.034276
-0.038865
-0.044796
-0.051434
-0.057406
-0.060356
-0.057315
-0.047158
-0.034561
-0.020090
-0.005650
0.007741
0.019672
0.030077
0.039056
0.046764
0.053333
0.058845
0.063322
0.066766
0.069277
0.070902
0.070749
0.068402
0.063417
0.054896
0.042343
0.026259
0.008780
-0.006890
-0.018503
-0.026265
-0.031903
-0.036490
-0.039592
-0.040188
-0.038315
-0.034055
-0.028273
-0.021633
-0.014501
-0.007359
-0.000536
0.005773
0.011566
0.016682
0.021122
0.025112
0.029016
0.033164
0.037958
0.043879
0.051558
0.061453
0.072890
0.085382
0.098589
0.112264
0.126114
0.141672
0.410036
0.395725
0.383250
0.369529
0.353185
0.333517
0.310048
0.282433
0.250522
0.214438
0.174687
0.132251
0.088617
0.045691
0.005552
-0.029908
-0.059333
-0.081445
-0.095942
-0.103307
-0.104418
-0.100409
-0.092524
-0.081995
-0.069969
-0.057472
-0.045415
-0.034612
-0.025547
-0.018424
-0.013884
-0.012102
-0.012931
-0.014958
-0.017468
-0.019838
-0.021755
-0.023303
-0.024901
-0.027144
-0.030584
-0.035509
-0.041778
-0.048701
-0.054947
-0.058471
-0.057009
-0.049696
-0.036208
-0.020849
-0.005755
0.008111
0.020406
0.031100
0.040313
0.048200
0.054891
0.060454
0.064889
0.068153
0.070171
0.070877
0.070403
0.068016
0.063058
0.054811
0.042830
0.027489
0.010524
-0.005248
-0.017492
-0.025843
-0.031505
-0.035569
-0.038116
-0.038727
-0.036918
-0.032916
-0.027352
-0.020862
-0.013913
-0.006932
-0.000244
0.005946
0.011498
0.016573
0.021152
0.025354
0.029460
0.033809
0.038794
0.044862
0.052503
0.061938
0.073289
0.085777
0.098856
0.112284
0.125962
0.140909
