# vtk DataFile Version 3.0
Vector Field
ASCII
DATASET RECTILINEAR_GRID
DIMENSIONS 100 26 1
X_COORDINATES 100 double
0.050000 0.150000 0.250000 0.350000 0.450000 0.550000 0.650000 0.750000 0.850000 0.950000 1.050000 1.150000 1.250000 1.350000 1.450000 1.550000 1.650000 1.750000 1.850000 1.950000 2.050000 2.150000 2.250000 2.350000 2.450000 2.550000 2.650000 2.750000 2.850000 2.950000 3.050000 3.150000 3.250000 3.350000 3.450000 3.550000 3.650000 3.750000 3.850000 3.950000 4.050000 4.150000 4.250000 4.350000 4.450000 4.550000 4.650000 4.750000 4.850000 4.950000 5.050000 5.150000 5.250000 5.350000 5.450000 5.550000 5.650000 5.750000 5.850000 5.950000 6.050000 6.150000 6.250000 6.350000 6.450000 6.550000 6.650000 6.750000 6.850000 6.950000 7.050000 7.150000 7.250000 7.350000 7.450000 7.550000 7.650000 7.750000 7.850000 7.950000 8.050000 8.150000 8.250000 8.350000 8.450000 8.550000 8.650000 8.750000 8.850000 8.950000 9.050000 9.150000 9.250000 9.350000 9.450000 9.550000 9.650000 9.750000 9.850000 9.950000 
Y_COORDINATES 26 double
0.050000 0.150000 0.250000 0.350000 0.450000 0.550000 0.650000 0.750000 0.850000 0.950000 1.050000 1.150000 1.250000 1.350000 1.450000 1.550000 1.650000 1.750000 1.850000 1.950000 2.050000 2.150000 2.250000 2.350000 2.450000 2.550000 
Z_COORDINATES 1 double
0.0
POINT_DATA 2600
VECTORS Vektorfeld double
0.997707 0.002293 0.0
0.993126 0.002287 0.0
0.990164 0.000675 0.0
0.991127 -0.001638 0.0
0.997007 -0.004242 0.0
1.008108 -0.006858 0.0
1.024179 -0.009213 0.0
1.044417 -0.011025 0.0
1.067474 -0.012032 0.0
1.091564 -0.012058 0.0
1.114699 -0.011077 0.0
1.134979 -0.009203 0.0
1.150807 -0.006626 0.0
1.160999 -0.003565 0.0
1.164893 -0.000329 0.0
1.162293 0.002928 0.0
1.153128 0.006237 0.0
1.137383 0.009507 0.0
1.115250 0.012626 0.0
1.087161 0.015464 0.0
1.053804 0.017893 0.0
1.016122 0.019789 0.0
0.975283 0.021051 0.0
0.932631 0.021601 0.0
0.889634 0.021396 0.0
0.847817 0.020422 0.0
0.808689 0.018706 0.0
0.773669 0.016315 0.0
0.743998 0.013356 0.0
0.720664 0.009978 0.0
0.704326 0.006359 0.0
0.695367 0.002600 0.0
0.693962 -0.001195 0.0
0.699065 -0.003909 0.0
0.708125 -0.005151 0.0
0.718232 -0.004956 0.0
0.726788 -0.003601 0.0
0.731867 -0.001479 0.0
0.731827 0.001519 0.0
0.724766 0.005542 0.0
0.709103 0.010121 0.0
0.684236 0.014747 0.0
0.650517 0.018973 0.0
0.609111 0.022434 0.0
0.561831 0.024846 0.0
0.510989 0.025996 0.0
0.459283 0.025710 0.0
0.409821 0.023752 0.0
0.366275 0.019794 0.0
0.332716 0.013765 0.0
0.312403 0.006548 0.0
0.305647 0.000208 0.0
0.308532 -0.003092 0.0
0.315972 -0.004348 0.0
0.325135 -0.004814 0.0
0.334704 -0.004756 0.0
0.343794 -0.004334 0.0
0.351816 -0.003687 0.0
0.358432 -0.002928 0.0
0.363500 -0.002140 0.0
0.367015 -0.001375 0.0
0.369033 -0.000643 0.0
0.369491 0.000184 0.0
0.367977 0.001330 0.0
0.364128 0.002519 0.0
0.358200 0.003410 0.0
0.351032 0.003758 0.0
0.343835 0.003439 0.0
0.337851 0.002546 0.0
0.333914 0.001391 0.0
0.332144 0.000379 0.0
0.331954 -0.000189 0.0
0.332347 -0.000204 0.0
0.332440 0.000110 0.0
0.331828 0.000502 0.0
0.330611 0.000715 0.0
0.329267 0.000630 0.0
0.328338 0.000299 0.0
0.328139 -0.000100 0.0
0.328651 -0.000412 0.0
0.329716 -0.000652 0.0
0.331169 -0.000801 0.0
0.332866 -0.000897 0.0
0.334743 -0.000980 0.0
0.336772 -0.001049 0.0
0.338903 -0.001081 0.0
0.341057 -0.001073 0.0
0.343166 -0.001036 0.0
0.345177 -0.000974 0.0
0.347034 -0.000883 0.0
0.348677 -0.000760 0.0
0.350039 -0.000602 0.0
0.351057 -0.000416 0.0
0.351685 -0.000211 0.0
0.351888 0.000008 0.0
0.351633 0.000247 0.0
0.350916 0.000470 0.0
0.349799 0.000647 0.0
0.348400 0.000752 0.0
0.347130 0.000518 0.0
1.002998 0.001589 0.0
1.011697 -0.001127 0.0
1.025297 -0.006548 0.0
1.043279 -0.013360 0.0
1.065677 -0.020799 0.0
1.092483 -0.028209 0.0
1.123422 -0.034873 0.0
1.157809 -0.039989 0.0
1.194475 -0.042790 0.0
1.231806 -0.042722 0.0
1.267982 -0.039725 0.0
1.301337 -0.034189 0.0
1.330575 -0.026706 0.0
1.354770 -0.017872 0.0
1.373112 -0.008258 0.0
1.384822 0.001747 0.0
1.389446 0.011959 0.0
1.386903 0.022073 0.0
1.377367 0.031729 0.0
1.361278 0.040538 0.0
1.339351 0.048102 0.0
1.312559 0.054053 0.0
1.282104 0.058081 0.0
1.249370 0.059957 0.0
1.215864 0.059542 0.0
1.183153 0.056803 0.0
1.152783 0.051821 0.0
1.126204 0.044799 0.0
1.104678 0.036069 0.0
1.089198 0.026080 0.0
1.080424 0.015369 0.0
1.078521 0.004453 0.0
1.082675 -0.005796 0.0
1.091920 -0.013657 0.0
1.105657 -0.018199 0.0
1.122632 -0.018989 0.0
1.140461 -0.015954 0.0
1.155632 -0.009375 0.0
1.164668 0.000420 0.0
1.165400 0.012969 0.0
1.156743 0.027013 0.0
1.138337 0.041127 0.0
1.110605 0.054043 0.0
1.074672 0.064703 0.0
1.032256 0.072271 0.0
0.985561 0.076108 0.0
0.937161 0.075704 0.0
0.889810 0.070571 0.0
0.845975 0.060355 0.0
0.807116 0.045621 0.0
0.773340 0.028783 0.0
0.744641 0.013428 0.0
0.723655 0.001788 0.0
0.713595 -0.006608 0.0
0.713610 -0.011732 0.0
0.720538 -0.014336 0.0
0.731901 -0.015207 0.0
0.745935 -0.014871 0.0
0.761256 -0.013682 0.0
0.776647 -0.011846 0.0
0.790921 -0.009457 0.0
0.802892 -0.006548 0.0
0.811684 -0.003160 0.0
0.817383 0.000489 0.0
0.820693 0.003899 0.0
0.822039 0.006612 0.0
0.821533 0.008229 0.0
0.819085 0.008613 0.0
0.814402 0.008040 0.0
0.807082 0.007153 0.0
0.796821 0.006648 0.0
0.783645 0.006909 0.0
0.768089 0.007862 0.0
0.751092 0.008948 0.0
0.733862 0.009506 0.0
0.717787 0.009003 0.0
0.704174 0.007300 0.0
0.694013 0.004720 0.0
0.687795 0.001896 0.0
0.685399 -0.000524 0.0
0.685961 -0.002167 0.0
0.688428 -0.003207 0.0
0.692202 -0.003962 0.0
0.697028 -0.004617 0.0
0.702776 -0.005189 0.0
0.709253 -0.005548 0.0
0.716166 -0.005673 0.0
0.723222 -0.005603 0.0
0.730153 -0.005349 0.0
0.736695 -0.004908 0.0
0.742610 -0.004292 0.0
0.747711 -0.003533 0.0
0.751894 -0.002686 0.0
0.755144 -0.001819 0.0
0.757542 -0.000986 0.0
0.759258 -0.000221 0.0
0.760465 0.000448 0.0
0.761248 0.001003 0.0
0.761691 0.001351 0.0
0.761535 0.001345 0.0
1.001901 -0.003310 0.0
1.008748 -0.011774 0.0
1.021325 -0.022078 0.0
1.039223 -0.033710 0.0
1.062434 -0.046058 0.0
1.091002 -0.058324 0.0
1.124740 -0.069436 0.0
1.162983 -0.078055 0.0
1.204383 -0.082790 0.0
1.246812 -0.082482 0.0
1.287776 -0.077105 0.0
1.325176 -0.067564 0.0
1.357643 -0.055036 0.0
1.384420 -0.040514 0.0
1.405124 -0.024661 0.0
1.419538 -0.007973 0.0
1.427532 0.009061 0.0
1.429071 0.025975 0.0
1.424250 0.042184 0.0
1.413389 0.057033 0.0
1.397066 0.069858 0.0
1.376100 0.080056 0.0
1.351510 0.087125 0.0
1.324458 0.090700 0.0
1.296196 0.090566 0.0
1.268009 0.086677 0.0
1.241160 0.079166 0.0
1.216831 0.068362 0.0
1.196075 0.054788 0.0
1.179769 0.039147 0.0
1.168575 0.022270 0.0
1.162894 0.005135 0.0
1.163139 -0.010877 0.0
1.169831 -0.024513 0.0
1.183101 -0.034351 0.0
1.202209 -0.038919 0.0
1.225319 -0.036963 0.0
1.249637 -0.027854 0.0
1.271730 -0.012230 0.0
1.288467 0.008149 0.0
1.297822 0.031135 0.0
1.298769 0.054464 0.0
1.291088 0.076119 0.0
1.275241 0.094407 0.0
1.252249 0.107976 0.0
1.223541 0.115806 0.0
1.190781 0.117166 0.0
1.155602 0.111640 0.0
1.119301 0.099422 0.0
1.082788 0.081925 0.0
1.047111 0.061932 0.0
1.013854 0.042235 0.0
0.983977 0.023842 0.0
0.957625 0.007750 0.0
0.936476 -0.004956 0.0
0.922586 -0.014149 0.0
0.915873 -0.020044 0.0
0.915169 -0.023363 0.0
0.919318 -0.024659 0.0
0.927325 -0.024268 0.0
0.938369 -0.022353 0.0
0.951757 -0.019012 0.0
0.966790 -0.014521 0.0
0.982467 -0.009527 0.0
0.997662 -0.004589 0.0
1.011595 -0.000178 0.0
1.023767 0.003352 0.0
1.033682 0.006022 0.0
1.040755 0.008242 0.0
1.044472 0.010554 0.0
1.044587 0.013391 0.0
1.041159 0.016769 0.0
1.034493 0.020224 0.0
1.025007 0.023069 0.0
1.013093 0.024530 0.0
0.999015 0.024132 0.0
0.982890 0.021909 0.0
0.964763 0.018400 0.0
0.944837 0.014360 0.0
0.923868 0.010376 0.0
0.903585 0.006654 0.0
0.886162 0.002927 0.0
0.873184 -0.000892 0.0
0.865115 -0.004444 0.0
0.861226 -0.007222 0.0
0.860356 -0.009122 0.0
0.861631 -0.010288 0.0
0.864496 -0.010910 0.0
0.868545 -0.011021 0.0
0.873384 -0.010617 0.0
0.878631 -0.009746 0.0
0.883952 -0.008502 0.0
0.889058 -0.007007 0.0
0.893705 -0.005395 0.0
0.897694 -0.003797 0.0
0.900883 -0.002316 0.0
0.903212 -0.000993 0.0
0.904711 0.000162 0.0
0.905368 0.001091 0.0
0.904838 0.002292 0.0
1.001515 -0.006726 0.0
1.007443 -0.021133 0.0
1.019112 -0.036965 0.0
1.036575 -0.054184 0.0
1.060152 -0.072373 0.0
1.090247 -0.090671 0.0
1.127056 -0.107637 0.0
1.170140 -0.121181 0.0
1.218039 -0.128962 0.0
1.267607 -0.128307 0.0
1.314836 -0.119473 0.0
1.356838 -0.104599 0.0
1.392297 -0.085926 0.0
1.420893 -0.064998 0.0
1.442658 -0.042647 0.0
1.457590 -0.019333 0.0
1.465601 0.004416 0.0
1.466676 0.028005 0.0
1.460974 0.050677 0.0
1.448870 0.071506 0.0
1.431032 0.089546 0.0
1.408400 0.103966 0.0
1.382095 0.114110 0.0
1.353331 0.119529 0.0
1.323350 0.119980 0.0
1.293370 0.115430 0.0
1.264564 0.106069 0.0
1.238035 0.092317 0.0
1.214806 0.074818 0.0
1.195816 0.054412 0.0
1.181948 0.032066 0.0
1.174138 0.008830 0.0
1.173467 -0.014147 0.0
1.180887 -0.035355 0.0
1.196728 -0.052619 0.0
1.220312 -0.063342 0.0
1.249790 -0.065128 0.0
1.282266 -0.056483 0.0
1.314116 -0.037544 0.0
1.341503 -0.010661 0.0
1.361639 0.020455 0.0
1.373531 0.052306 0.0
1.377276 0.082215 0.0
1.373420 0.108013 0.0
1.362764 0.128018 0.0
1.346224 0.141012 0.0
1.324709 0.146235 0.0
1.299009 0.143450 0.0
1.269752 0.133170 0.0
1.237565 0.116877 0.0
1.203382 0.096840 0.0
1.168563 0.075404 0.0
1.134682 0.054431 0.0
1.103129 0.035065 0.0
1.074473 0.017534 0.0
1.049190 0.002534 0.0
1.028704 -0.009528 0.0
1.014072 -0.018542 0.0
1.005204 -0.024762 0.0
1.001588 -0.028557 0.0
1.002660 -0.030179 0.0
1.007920 -0.029833 0.0
1.016983 -0.027796 0.0
1.029547 -0.024494 0.0
1.045236 -0.020506 0.0
1.063411 -0.016369 0.0
1.083106 -0.012326 0.0
1.103136 -0.008244 0.0
1.122270 -0.003699 0.0
1.139347 0.001701 0.0
1.153435 0.008042 0.0
1.164001 0.014981 0.0
1.170814 0.021864 0.0
1.173696 0.028033 0.0
1.172435 0.032740 0.0
1.166880 0.035554 0.0
1.157026 0.036465 0.0
1.143199 0.035798 0.0
1.126153 0.033935 0.0
1.106928 0.030995 0.0
1.086431 0.026815 0.0
1.065150 0.021471 0.0
1.043281 0.015412 0.0
1.021279 0.009324 0.0
1.000436 0.003741 0.0
0.982448 -0.001226 0.0
0.968461 -0.005472 0.0
0.958589 -0.008720 0.0
0.952142 -0.010814 0.0
0.948279 -0.011798 0.0
0.946287 -0.011821 0.0
0.945604 -0.011063 0.0
0.945760 -0.009707 0.0
0.946353 -0.007935 0.0
0.947045 -0.005937 0.0
0.947569 -0.003888 0.0
0.947733 -0.001914 0.0
0.947398 -0.000080 0.0
0.946439 0.001635 0.0
0.944679 0.004038 0.0
1.001316 -0.009557 0.0
1.006630 -0.029543 0.0
1.017462 -0.051057 0.0
1.034307 -0.074399 0.0
1.057990 -0.099418 0.0
1.089576 -0.125306 0.0
1.130055 -0.150289 0.0
1.179657 -0.171215 0.0
1.237321 -0.184491 0.0
1.297718 -0.182743 0.0
1.353289 -0.167836 0.0
1.400126 -0.145075 0.0
1.437789 -0.118571 0.0
1.467250 -0.090411 0.0
1.489457 -0.061205 0.0
1.504700 -0.030949 0.0
1.512676 0.000046 0.0
1.513006 0.030970 0.0
1.505573 0.060846 0.0
1.490670 0.088344 0.0
1.469087 0.112129 0.0
1.441997 0.131105 0.0
1.410787 0.144486 0.0
1.376913 0.151790 0.0
1.341811 0.152802 0.0
1.306853 0.147546 0.0
1.273336 0.136277 0.0
1.242483 0.119490 0.0
1.215443 0.097913 0.0
1.193276 0.072474 0.0
1.176950 0.044199 0.0
1.167405 0.014052 0.0
1.165672 -0.016965 0.0
1.172703 -0.046988 0.0
1.188940 -0.073064 0.0
1.214033 -0.091574 0.0
1.246819 -0.099161 0.0
1.285287 -0.093395 0.0
1.326241 -0.073435 0.0
1.365022 -0.040938 0.0
1.396290 -0.000672 0.0
1.416999 0.040832 0.0
1.427516 0.079427 0.0
1.429414 0.112759 0.0
1.424187 0.139156 0.0
1.413041 0.157559 0.0
1.396818 0.167426 0.0
1.376028 0.168749 0.0
1.350996 0.162160 0.0
1.322088 0.148982 0.0
1.289951 0.131055 0.0
1.255611 0.110348 0.0
1.220376 0.088604 0.0
1.185646 0.067175 0.0
1.152737 0.046989 0.0
1.122631 0.028467 0.0
1.095819 0.011836 0.0
1.072932 -0.002386 0.0
1.054757 -0.013874 0.0
1.041404 -0.022475 0.0
1.032412 -0.028342 0.0
1.027265 -0.031783 0.0
1.025650 -0.033294 0.0
1.027584 -0.033494 0.0
1.033348 -0.032959 0.0
1.043317 -0.032059 0.0
1.057824 -0.030839 0.0
1.077002 -0.028938 0.0
1.100555 -0.025692 0.0
1.127566 -0.020394 0.0
1.156325 -0.012709 0.0
1.184342 -0.002851 0.0
1.208876 0.008349 0.0
1.228035 0.019509 0.0
1.241187 0.029372 0.0
1.248226 0.037439 0.0
1.249214 0.043445 0.0
1.244517 0.047341 0.0
1.234794 0.049160 0.0
1.220868 0.048921 0.0
1.203560 0.046693 0.0
1.183667 0.042766 0.0
1.162059 0.037594 0.0
1.139656 0.031547 0.0
1.117189 0.024827 0.0
1.095067 0.017799 0.0
1.073555 0.011003 0.0
1.053200 0.005033 0.0
1.034865 0.000214 0.0
1.019246 -0.003343 0.0
1.006584 -0.005623 0.0
0.996665 -0.006658 0.0
0.988976 -0.006580 0.0
0.982932 -0.005612 0.0
0.978003 -0.004023 0.0
0.973760 -0.002083 0.0
0.969899 -0.000022 0.0
0.966246 0.002015 0.0
0.962736 0.004010 0.0
0.959375 0.006786 0.0
1.001118 -0.011991 0.0
1.005702 -0.037007 0.0
1.015296 -0.064020 0.0
1.030776 -0.093760 0.0
1.053577 -0.126543 0.0
1.085726 -0.161917 0.0
1.129636 -0.198067 0.0
1.187128 -0.230531 0.0
1.259444 -0.255155 0.0
1.335639 -0.248671 0.0
1.399581 -0.221421 0.0
1.447691 -0.186437 0.0
1.483091 -0.150272 0.0
1.509769 -0.114849 0.0
1.530405 -0.079610 0.0
1.545709 -0.043092 0.0
1.554577 -0.004656 0.0
1.555406 0.034513 0.0
1.547239 0.072903 0.0
1.530044 0.108384 0.0
1.504727 0.138990 0.0
1.472781 0.163280 0.0
1.435949 0.180353 0.0
1.396002 0.189744 0.0
1.354637 0.191315 0.0
1.313450 0.185177 0.0
1.273944 0.171668 0.0
1.237539 0.151357 0.0
1.205558 0.125068 0.0
1.179154 0.093891 0.0
1.159142 0.059120 0.0
1.145787 0.022030 0.0
1.139003 -0.016427 0.0
1.139081 -0.054635 0.0
1.146692 -0.089266 0.0
1.162517 -0.116290 0.0
1.187417 -0.132130 0.0
1.222137 -0.133613 0.0
1.266147 -0.118181 0.0
1.316258 -0.085085 0.0
1.365711 -0.037247 0.0
1.405345 0.017063 0.0
1.430530 0.067494 0.0
1.442948 0.110375 0.0
1.445362 0.144352 0.0
1.439982 0.168888 0.0
1.428336 0.183967 0.0
1.411353 0.189981 0.0
1.389572 0.187740 0.0
1.363416 0.178467 0.0
1.333427 0.163697 0.0
1.300404 0.145069 0.0
1.265406 0.124117 0.0
1.229662 0.102136 0.0
1.194463 0.080136 0.0
1.161027 0.058864 0.0
1.130351 0.038927 0.0
1.102952 0.020809 0.0
1.078813 0.005245 0.0
1.057623 -0.007052 0.0
1.038755 -0.015906 0.0
1.021484 -0.021801 0.0
1.005594 -0.025772 0.0
0.991757 -0.029114 0.0
0.981446 -0.032792 0.0
0.976450 -0.037199 0.0
0.978429 -0.042185 0.0
0.988530 -0.046870 0.0
1.007101 -0.049884 0.0
1.033701 -0.049814 0.0
1.067250 -0.045597 0.0
1.106068 -0.036800 0.0
1.147672 -0.023840 0.0
1.188288 -0.008077 0.0
1.223384 0.008710 0.0
1.249985 0.024461 0.0
1.267709 0.037710 0.0
1.277286 0.048196 0.0
1.279546 0.055768 0.0
1.275399 0.060387 0.0
1.265782 0.062152 0.0
1.251655 0.061327 0.0
1.234005 0.058292 0.0
1.213797 0.053459 0.0
1.191907 0.047271 0.0
1.169123 0.040261 0.0
1.146201 0.032975 0.0
1.123806 0.025811 0.0
1.102429 0.019148 0.0
1.082403 0.013368 0.0
1.063941 0.008789 0.0
1.047186 0.005604 0.0
1.032215 0.003818 0.0
1.018982 0.003266 0.0
1.007341 0.003670 0.0
0.997114 0.004694 0.0
0.988160 0.006016 0.0
0.980400 0.007390 0.0
0.973827 0.008717 0.0
0.968614 0.010653 0.0
1.000836 -0.013944 0.0
1.004316 -0.043119 0.0
1.011808 -0.074994 0.0
1.024454 -0.110911 0.0
1.044255 -0.151994 0.0
1.074401 -0.198760 0.0
1.119518 -0.250251 0.0
1.184785 -0.301106 0.0
1.279011 -0.351122 0.0
1.375585 -0.325472 0.0
1.439676 -0.272654 0.0
1.476393 -0.220031 0.0
1.498178 -0.173863 0.0
1.513800 -0.133559 0.0
1.528223 -0.095960 0.0
1.542847 -0.056669 0.0
1.555072 -0.012170 0.0
1.560210 0.036060 0.0
1.555007 0.084727 0.0
1.538731 0.130031 0.0
1.512433 0.168958 0.0
1.478030 0.199660 0.0
1.437641 0.221193 0.0
1.393300 0.233192 0.0
1.346892 0.235641 0.0
1.300175 0.228756 0.0
1.254817 0.212954 0.0
1.212414 0.188879 0.0
1.174447 0.157494 0.0
1.142118 0.120197 0.0
1.115946 0.078997 0.0
1.095009 0.036446 0.0
1.076579 -0.005629 0.0
1.058892 -0.047823 0.0
1.043715 -0.088511 0.0
1.035199 -0.124355 0.0
1.038487 -0.152253 0.0
1.058059 -0.167781 0.0
1.095761 -0.165724 0.0
1.150106 -0.141998 0.0
1.216147 -0.095828 0.0
1.284415 -0.032259 0.0
1.340990 0.035055 0.0
1.379021 0.092365 0.0
1.401360 0.137610 0.0
1.411365 0.171006 0.0
1.411558 0.193303 0.0
1.403702 0.205484 0.0
1.389018 0.208701 0.0
1.368421 0.204258 0.0
1.342746 0.193569 0.0
1.312897 0.178068 0.0
1.279913 0.159100 0.0
1.244969 0.137841 0.0
1.209319 0.115279 0.0
1.174201 0.092275 0.0
1.140649 0.069744 0.0
1.109200 0.048840 0.0
1.079597 0.030957 0.0
1.050720 0.017303 0.0
1.021045 0.008282 0.0
0.989540 0.002788 0.0
0.956644 -0.001576 0.0
0.924681 -0.007511 0.0
0.897486 -0.016888 0.0
0.879224 -0.029845 0.0
0.872576 -0.044870 0.0
0.877965 -0.059676 0.0
0.894301 -0.071985 0.0
0.919966 -0.079979 0.0
0.953403 -0.082417 0.0
0.993219 -0.078615 0.0
1.038021 -0.068430 0.0
1.086178 -0.052260 0.0
1.135372 -0.031398 0.0
1.181656 -0.008315 0.0
1.220133 0.014285 0.0
1.248285 0.033893 0.0
1.266550 0.049545 0.0
1.276089 0.061218 0.0
1.278016 0.069012 0.0
1.273432 0.073177 0.0
1.263431 0.074093 0.0
1.249073 0.072224 0.0
1.231362 0.068108 0.0
1.211236 0.062335 0.0
1.189559 0.055499 0.0
1.167092 0.048149 0.0
1.144469 0.040812 0.0
1.122214 0.033985 0.0
1.100764 0.028084 0.0
1.080454 0.023373 0.0
1.061513 0.019961 0.0
1.044075 0.017794 0.0
1.028203 0.016655 0.0
1.013925 0.016214 0.0
1.001272 0.016103 0.0
0.990329 0.016007 0.0
0.981258 0.015744 0.0
0.974469 0.015629 0.0
1.000428 -0.015209 0.0
1.002262 -0.047169 0.0
1.006424 -0.082597 0.0
1.014052 -0.123582 0.0
1.027363 -0.172435 0.0
1.050450 -0.231552 0.0
1.090601 -0.302728 0.0
1.159084 -0.382378 0.0
1.283430 -0.488423 0.0
1.397183 -0.398499 0.0
1.433332 -0.299868 0.0
1.432328 -0.228529 0.0
1.422034 -0.176855 0.0
1.413878 -0.138034 0.0
1.413831 -0.105861 0.0
1.424827 -0.072388 0.0
1.444666 -0.028516 0.0
1.462847 0.029085 0.0
1.469546 0.090206 0.0
1.462759 0.147616 0.0
1.443699 0.196731 0.0
1.414645 0.235346 0.0
1.377893 0.262648 0.0
1.335484 0.278487 0.0
1.289239 0.282999 0.0
1.240876 0.276478 0.0
1.192081 0.259385 0.0
1.144478 0.232454 0.0
1.099479 0.196886 0.0
1.057970 0.154643 0.0
1.019778 0.108915 0.0
0.982938 0.064305 0.0
0.943502 0.024379 0.0
0.897295 -0.013937 0.0
0.848601 -0.058525 0.0
0.811708 -0.108933 0.0
0.798490 -0.157745 0.0
0.811983 -0.195353 0.0
0.849583 -0.213455 0.0
0.907225 -0.206255 0.0
0.980824 -0.171210 0.0
1.065682 -0.110003 0.0
1.153178 -0.031271 0.0
1.227698 0.046140 0.0
1.281009 0.108184 0.0
1.316473 0.154963 0.0
1.337449 0.188177 0.0
1.346404 0.209511 0.0
1.345200 0.220562 0.0
1.335332 0.222862 0.0
1.318099 0.217874 0.0
1.294731 0.206981 0.0
1.266460 0.191442 0.0
1.234542 0.172362 0.0
1.200225 0.150725 0.0
1.164611 0.127561 0.0
1.128333 0.104288 0.0
1.091091 0.082987 0.0
1.051436 0.066070 0.0
1.007464 0.055039 0.0
0.958618 0.049068 0.0
0.907401 0.044725 0.0
0.859241 0.037543 0.0
0.820241 0.024333 0.0
0.794389 0.004315 0.0
0.782588 -0.020984 0.0
0.783573 -0.048067 0.0
0.795037 -0.073333 0.0
0.814651 -0.094278 0.0
0.840710 -0.109410 0.0
0.872162 -0.117875 0.0
0.908390 -0.119201 0.0
0.948937 -0.113194 0.0
0.993250 -0.099965 0.0
1.040434 -0.080072 0.0
1.089102 -0.054594 0.0
1.136907 -0.025718 0.0
1.179590 0.003062 0.0
1.213145 0.028557 0.0
1.236712 0.049099 0.0
1.251227 0.064689 0.0
1.257743 0.075567 0.0
1.257336 0.082112 0.0
1.251074 0.084824 0.0
1.239997 0.084296 0.0
1.225094 0.081177 0.0
1.207288 0.076140 0.0
1.187418 0.069845 0.0
1.166229 0.062928 0.0
1.144374 0.055978 0.0
1.122420 0.049496 0.0
1.100839 0.043852 0.0
1.080009 0.039254 0.0
1.060223 0.035725 0.0
1.041716 0.033103 0.0
1.024693 0.031067 0.0
1.009376 0.029219 0.0
0.996039 0.027171 0.0
0.985035 0.024654 0.0
0.977010 0.021533 0.0
0.999893 -0.015530 0.0
0.999524 -0.048313 0.0
0.999047 -0.085138 0.0
0.999143 -0.128766 0.0
1.001404 -0.182823 0.0
1.009500 -0.252347 0.0
1.031885 -0.344470 0.0
1.087290 -0.464524 0.0
1.237998 -0.681330 0.0
1.338736 -0.420082 0.0
1.287985 -0.263684 0.0
1.215061 -0.190786 0.0
1.156838 -0.146081 0.0
1.114325 -0.118138 0.0
1.090486 -0.101870 0.0
1.090613 -0.087501 0.0
1.117921 -0.060550 0.0
1.164171 -0.003311 0.0
1.205807 0.074267 0.0
1.228792 0.147358 0.0
1.235494 0.209346 0.0
1.228914 0.258366 0.0
1.211168 0.294126 0.0
1.183840 0.316746 0.0
1.148390 0.326435 0.0
1.106320 0.323475 0.0
1.059123 0.308380 0.0
1.007911 0.282274 0.0
0.952395 0.247580 0.0
0.889459 0.208394 0.0
0.813956 0.168858 0.0
0.725385 0.129773 0.0
0.635983 0.087749 0.0
0.567282 0.037601 0.0
0.532634 -0.026719 0.0
0.530125 -0.101337 0.0
0.550836 -0.172833 0.0
0.586982 -0.229905 0.0
0.635279 -0.264801 0.0
0.695163 -0.272435 0.0
0.766703 -0.250168 0.0
0.849313 -0.198514 0.0
0.941013 -0.121956 0.0
1.035222 -0.031903 0.0
1.117079 0.051059 0.0
1.178253 0.115451 0.0
1.221661 0.163305 0.0
1.250000 0.197089 0.0
1.265318 0.218869 0.0
1.269315 0.230426 0.0
1.263515 0.233343 0.0
1.249345 0.229050 0.0
1.228163 0.218826 0.0
1.201231 0.203827 0.0
1.169587 0.185219 0.0
1.133757 0.164510 0.0
1.093397 0.143977 0.0
1.047313 0.126622 0.0
0.994466 0.114936 0.0
0.935809 0.108801 0.0
0.875560 0.104401 0.0
0.820382 0.095786 0.0
0.776722 0.078302 0.0
0.748319 0.050978 0.0
0.735522 0.016319 0.0
0.735965 -0.021630 0.0
0.745977 -0.058418 0.0
0.762352 -0.090820 0.0
0.783091 -0.117145 0.0
0.807140 -0.136651 0.0
0.834084 -0.149029 0.0
0.863920 -0.154111 0.0
0.896843 -0.151755 0.0
0.933024 -0.141896 0.0
0.972392 -0.124693 0.0
1.014468 -0.100717 0.0
1.058235 -0.071167 0.0
1.102038 -0.037976 0.0
1.142709 -0.004631 0.0
1.176292 0.025136 0.0
1.201088 0.049344 0.0
1.217528 0.067956 0.0
1.226385 0.081273 0.0
1.228540 0.089770 0.0
1.224919 0.094048 0.0
1.216450 0.094797 0.0
1.204027 0.092748 0.0
1.188492 0.088641 0.0
1.170619 0.083194 0.0
1.151111 0.077076 0.0
1.130593 0.070871 0.0
1.109614 0.065037 0.0
1.088648 0.059864 0.0
1.068113 0.055436 0.0
1.048389 0.051623 0.0
1.029854 0.048104 0.0
1.012917 0.044437 0.0
0.998045 0.040162 0.0
0.985778 0.034934 0.0
0.976969 0.028087 0.0
0.999282 -0.014704 0.0
0.996375 -0.045862 0.0
0.990403 -0.081140 0.0
0.981077 -0.123534 0.0
0.968166 -0.177405 0.0
0.952164 -0.249858 0.0
0.936578 -0.353758 0.0
0.936478 -0.510541 0.0
1.035024 -0.884567 0.0
1.027044 -0.204639 0.0
0.827204 -0.111868 0.0
0.675226 -0.105994 0.0
0.587419 -0.084844 0.0
0.526955 -0.076398 0.0
0.498593 -0.091410 0.0
0.512271 -0.111766 0.0
0.564259 -0.115582 0.0
0.648682 -0.078952 0.0
0.747052 0.009902 0.0
0.828490 0.107300 0.0
0.883692 0.187500 0.0
0.918695 0.251790 0.0
0.935864 0.301277 0.0
0.936415 0.336371 0.0
0.921421 0.357253 0.0
0.891847 0.364301 0.0
0.848013 0.358585 0.0
0.788798 0.342497 0.0
0.711910 0.319760 0.0
0.617812 0.293249 0.0
0.516245 0.261073 0.0
0.426737 0.215637 0.0
0.368167 0.149856 0.0
0.347659 0.064702 0.0
0.359179 -0.030692 0.0
0.388842 -0.124520 0.0
0.425453 -0.206971 0.0
0.465538 -0.271997 0.0
0.509656 -0.315123 0.0
0.560127 -0.332468 0.0
0.619513 -0.321062 0.0
0.689398 -0.280116 0.0
0.769689 -0.212344 0.0
0.858436 -0.124470 0.0
0.949311 -0.029107 0.0
1.028995 0.054759 0.0
1.090162 0.119422 0.0
1.134996 0.167799 0.0
1.165385 0.202452 0.0
1.182860 0.225371 0.0
1.188828 0.238231 0.0
1.184636 0.242525 0.0
1.171546 0.239624 0.0
1.150619 0.230888 0.0
1.122500 0.217922 0.0
1.087164 0.202974 0.0
1.043975 0.189063 0.0
0.992538 0.179057 0.0
0.934294 0.173593 0.0
0.873714 0.169382 0.0
0.817662 0.160121 0.0
0.772846 0.140059 0.0
0.743178 0.107357 0.0
0.728935 0.064568 0.0
0.727813 0.016649 0.0
0.736319 -0.030909 0.0
0.750949 -0.073781 0.0
0.769057 -0.109941 0.0
0.788990 -0.138698 0.0
0.809879 -0.160036 0.0
0.831479 -0.174187 0.0
0.854042 -0.181352 0.0
0.878161 -0.181557 0.0
0.904558 -0.174671 0.0
0.933826 -0.160554 0.0
0.966202 -0.139308 0.0
1.001410 -0.111550 0.0
1.038595 -0.078580 0.0
1.076331 -0.042433 0.0
1.112065 -0.006380 0.0
1.142419 0.025709 0.0
1.165589 0.051980 0.0
1.181610 0.072371 0.0
1.190928 0.087198 0.0
1.194182 0.096987 0.0
1.192103 0.102407 0.0
1.185454 0.104211 0.0
1.174988 0.103180 0.0
1.161425 0.100090 0.0
1.145439 0.095674 0.0
1.127649 0.090580 0.0
1.108625 0.085331 0.0
1.088891 0.080268 0.0
1.068951 0.075508 0.0
1.049305 0.070922 0.0
1.030483 0.066163 0.0
1.013060 0.060739 0.0
0.997669 0.054122 0.0
0.984994 0.045915 0.0
0.976010 0.034899 0.0
0.998706 -0.012692 0.0
0.993390 -0.039652 0.0
0.982134 -0.070122 0.0
0.963480 -0.106572 0.0
0.934698 -0.152673 0.0
0.890757 -0.214647 0.0
0.821813 -0.304439 0.0
0.708598 -0.446545 0.0
0.318876 -0.762350 0.0
-0.464281 0.275506 0.0
-0.464281 0.000000 0.0
-0.038351 -0.027090 0.0
-0.068222 -0.057331 0.0
-0.030689 -0.080980 0.0
0.037969 -0.127124 0.0
0.114628 -0.166387 0.0
0.185287 -0.183608 0.0
0.256668 -0.166730 0.0
0.344749 -0.088771 0.0
0.440443 0.028841 0.0
0.521214 0.129985 0.0
0.583021 0.212496 0.0
0.625999 0.280423 0.0
0.648602 0.334071 0.0
0.649840 0.373309 0.0
0.628997 0.398663 0.0
0.585404 0.411651 0.0
0.519781 0.414270 0.0
0.437863 0.406793 0.0
0.353652 0.384525 0.0
0.286489 0.338528 0.0
0.251165 0.263014 0.0
0.250178 0.162036 0.0
0.275573 0.047635 0.0
0.314425 -0.063995 0.0
0.355889 -0.162344 0.0
0.395066 -0.244936 0.0
0.430861 -0.309912 0.0
0.464775 -0.355239 0.0
0.500248 -0.378295 0.0
0.541649 -0.376022 0.0
0.592777 -0.346169 0.0
0.655426 -0.289231 0.0
0.728821 -0.209725 0.0
0.809956 -0.115862 0.0
0.891956 -0.020168 0.0
0.963687 0.061452 0.0
1.019607 0.125013 0.0
1.061060 0.173396 0.0
1.089233 0.208778 0.0
1.105210 0.232879 0.0
1.110039 0.247239 0.0
1.104670 0.253368 0.0
1.089795 0.252946 0.0
1.065660 0.248118 0.0
1.032093 0.241681 0.0
0.989106 0.236532 0.0
0.938146 0.233984 0.0
0.883255 0.231802 0.0
0.830859 0.224148 0.0
0.787723 0.204542 0.0
0.758329 0.169848 0.0
0.743652 0.121915 0.0
0.741890 0.066015 0.0
0.749993 0.008220 0.0
0.764568 -0.045561 0.0
0.782605 -0.091795 0.0
0.801950 -0.129379 0.0
0.821125 -0.158368 0.0
0.839249 -0.179380 0.0
0.856024 -0.193218 0.0
0.871722 -0.200581 0.0
0.887119 -0.201845 0.0
0.903333 -0.196995 0.0
0.921555 -0.185720 0.0
0.942734 -0.167697 0.0
0.967317 -0.142951 0.0
0.995107 -0.112154 0.0
1.025271 -0.076759 0.0
1.056431 -0.038948 0.0
1.086281 -0.001927 0.0
1.112035 0.030692 0.0
1.132163 0.057510 0.0
1.146449 0.078456 0.0
1.155080 0.093844 0.0
1.158471 0.104238 0.0
1.157153 0.110348 0.0
1.151706 0.112956 0.0
1.142723 0.112860 0.0
1.130783 0.110829 0.0
1.116450 0.107548 0.0
1.100267 0.103570 0.0
1.082779 0.099251 0.0
1.064544 0.094700 0.0
1.046158 0.089760 0.0
1.028267 0.084037 0.0
1.011571 0.076985 0.0
0.996807 0.068032 0.0
0.984724 0.056763 0.0
0.976284 0.041476 0.0
0.998290 -0.009688 0.0
0.991246 -0.030296 0.0
0.976238 -0.053213 0.0
0.951101 -0.079690 0.0
0.911661 -0.111333 0.0
0.849893 -0.150278 0.0
0.749158 -0.199129 0.0
0.570060 -0.259543 0.0
0.226952 -0.317395 0.0
0.000000 0.275506 0.0
-0.000000 -0.000000 0.0
0.000000 0.000000 0.0
-0.034187 -0.032905 0.0
-0.073567 -0.104840 0.0
-0.071392 -0.174098 0.0
-0.054352 -0.213112 0.0
-0.037629 -0.224266 0.0
-0.016278 -0.218805 0.0
0.030121 -0.171176 0.0
0.110150 -0.064477 0.0
0.198697 0.053983 0.0
0.272615 0.152774 0.0
0.329458 0.240323 0.0
0.364936 0.316090 0.0
0.376410 0.378579 0.0
0.363074 0.427572 0.0
0.326892 0.462517 0.0
0.275643 0.480276 0.0
0.223607 0.474742 0.0
0.187580 0.436814 0.0
0.179571 0.361411 0.0
0.201100 0.253926 0.0
0.244900 0.128312 0.0
0.299502 0.001362 0.0
0.353428 -0.110500 0.0
0.400571 -0.204446 0.0
0.439395 -0.280836 0.0
0.469563 -0.339974 0.0
0.492408 -0.381936 0.0
0.511302 -0.405965 0.0
0.531484 -0.409935 0.0
0.558897 -0.390796 0.0
0.598138 -0.346495 0.0
0.650665 -0.278383 0.0
0.714492 -0.192166 0.0
0.785299 -0.096672 0.0
0.855451 -0.003928 0.0
0.916078 0.073844 0.0
0.963662 0.135529 0.0
0.998748 0.183386 0.0
1.021923 0.219119 0.0
1.033793 0.244300 0.0
1.034866 0.260602 0.0
1.025428 0.270025 0.0
1.005536 0.275065 0.0
0.975407 0.278430 0.0
0.936320 0.281857 0.0
0.891638 0.284301 0.0
0.846962 0.281053 0.0
0.808724 0.265531 0.0
0.781852 0.233166 0.0
0.768218 0.184251 0.0
0.766884 0.123523 0.0
0.775454 0.057598 0.0
0.791053 -0.007066 0.0
0.810641 -0.064437 0.0
0.831639 -0.111954 0.0
0.852215 -0.149140 0.0
0.871006 -0.176573 0.0
0.887095 -0.195388 0.0
0.900053 -0.206943 0.0
0.910006 -0.212506 0.0
0.917671 -0.212983 0.0
0.924310 -0.208711 0.0
0.931527 -0.199442 0.0
0.940930 -0.184558 0.0
0.953750 -0.163495 0.0
0.970550 -0.136201 0.0
0.991116 -0.103444 0.0
1.014547 -0.066854 0.0
1.039414 -0.028738 0.0
1.063488 0.007677 0.0
1.084481 0.039403 0.0
1.101215 0.065542 0.0
1.113320 0.086022 0.0
1.120800 0.101189 0.0
1.123879 0.111636 0.0
1.122901 0.118091 0.0
1.118277 0.121333 0.0
1.110449 0.122123 0.0
1.099888 0.121149 0.0
1.087090 0.118950 0.0
1.072593 0.115856 0.0
1.056992 0.111932 0.0
1.040943 0.106963 0.0
1.025164 0.100503 0.0
1.010409 0.091971 0.0
0.997433 0.080785 0.0
0.986953 0.066572 0.0
0.979779 0.047281 0.0
0.998118 -0.006095 0.0
0.990376 -0.019103 0.0
0.973968 -0.032991 0.0
0.946813 -0.047620 0.0
0.905194 -0.062344 0.0
0.842985 -0.075288 0.0
0.750838 -0.081237 0.0
0.617898 -0.065396 0.0
0.441795 0.011760 0.0
0.171841 0.154329 0.0
0.000000 0.000000 0.0
-0.000000 -0.000000 0.0
0.000000 0.000000 0.0
-0.050214 -0.049823 0.0
-0.120465 -0.161429 0.0
-0.154066 -0.209219 0.0
-0.181366 -0.217581 0.0
-0.198947 -0.229261 0.0
-0.192020 -0.214046 0.0
-0.148865 -0.144790 0.0
-0.068808 -0.034309 0.0
0.018286 0.080056 0.0
0.085471 0.189012 0.0
0.129681 0.287714 0.0
0.151698 0.373465 0.0
0.153400 0.444319 0.0
0.141080 0.494271 0.0
0.126961 0.513890 0.0
0.124760 0.495365 0.0
0.144137 0.432840 0.0
0.187204 0.330326 0.0
0.248892 0.201794 0.0
0.320752 0.064783 0.0
0.390689 -0.059650 0.0
0.450563 -0.163288 0.0
0.499432 -0.247669 0.0
0.536698 -0.313704 0.0
0.562121 -0.362696 0.0
0.576314 -0.396253 0.0
0.581429 -0.415658 0.0
0.581843 -0.420839 0.0
0.584135 -0.409597 0.0
0.595540 -0.378340 0.0
0.621193 -0.324717 0.0
0.661979 -0.250445 0.0
0.714634 -0.161855 0.0
0.773636 -0.067899 0.0
0.830954 0.019870 0.0
0.879695 0.093179 0.0
0.917797 0.152548 0.0
0.945104 0.199474 0.0
0.961674 0.235506 0.0
0.967564 0.262433 0.0
0.962797 0.282400 0.0
0.947594 0.297785 0.0
0.922985 0.310448 0.0
0.891606 0.320305 0.0
0.858040 0.324100 0.0
0.828009 0.315961 0.0
0.806506 0.290364 0.0
0.796130 0.245582 0.0
0.796836 0.184765 0.0
0.806969 0.114211 0.0
0.824404 0.040905 0.0
0.846442 -0.028011 0.0
0.870209 -0.086848 0.0
0.893560 -0.133891 0.0
0.914915 -0.169135 0.0
0.933105 -0.193558 0.0
0.947310 -0.208697 0.0
0.957071 -0.216353 0.0
0.962349 -0.218326 0.0
0.963636 -0.216115 0.0
0.962035 -0.210618 0.0
0.959226 -0.201943 0.0