# vtk DataFile Version 3.0
Scalar Field
ASCII
DATASET RECTILINEAR_GRID
DIMENSIONS 100 26 1
X_COORDINATES 100 double
0.050000 0.150000 0.250000 0.350000 0.450000 0.550000 0.650000 0.750000 0.850000 0.950000 1.050000 1.150000 1.250000 1.350000 1.450000 1.550000 1.650000 1.750000 1.850000 1.950000 2.050000 2.150000 2.250000 2.350000 2.450000 2.550000 2.650000 2.750000 2.850000 2.950000 3.050000 3.150000 3.250000 3.350000 3.450000 3.550000 3.650000 3.750000 3.850000 3.950000 4.050000 4.150000 4.250000 4.350000 4.450000 4.550000 4.650000 4.750000 4.850000 4.950000 5.050000 5.150000 5.250000 5.350000 5.450000 5.550000 5.650000 5.750000 5.850000 5.950000 6.050000 6.150000 6.250000 6.350000 6.450000 6.550000 6.650000 6.750000 6.850000 6.950000 7.050000 7.150000 7.250000 7.350000 7.450000 7.550000 7.650000 7.750000 7.850000 7.950000 8.050000 8.150000 8.250000 8.350000 8.450000 8.550000 8.650000 8.750000 8.850000 8.950000 9.050000 9.150000 9.250000 9.350000 9.450000 9.550000 9.650000 9.750000 9.850000 9.950000 
Y_COORDINATES 26 double
0.050000 0.150000 0.250000 0.350000 0.450000 0.550000 0.650000 0.750000 0.850000 0.950000 1.050000 1.150000 1.250000 1.350000 1.450000 1.550000 1.650000 1.750000 1.850000 1.950000 2.050000 2.150000 2.250000 2.350000 2.450000 2.550000 
Z_COORDINATES 1 double
0.0
POINT_DATA 2600
SCALARS Skalarfeld double 1
LOOKUP_TABLE default
0.282379
0.267074
0.251764
0.233414
0.210881
0.183660
0.151655
0.115178
0.075019
0.032488
-0.010675
-0.052554
-0.091377
-0.125747
-0.154789
-0.177274
-0.193035
-0.202216
-0.205239
-0.202763
-0.195617
-0.184718
-0.170985
-0.155266
-0.138281
-0.120598
-0.102646
-0.084747
-0.067178
-0.050230
-0.034258
-0.019670
-0.006488
0.004661
0.013101
0.018770
0.022181
0.023583
0.023211
0.021162
0.017383
0.011751
0.004205
-0.005098
-0.015632
-0.026331
-0.035431
-0.040720
-0.040823
-0.035541
-0.027083
-0.017565
-0.007914
0.001261
0.009566
0.016797
0.022889
0.027876
0.031863
0.035019
0.037453
0.039449
0.040810
0.041324
0.040837
0.039254
0.036661
0.033402
0.029969
0.026714
0.023622
0.020348
0.016522
0.012090
0.007417
0.003121
-0.000231
-0.002345
-0.003231
-0.003083
-0.002117
-0.000579
0.001273
0.003204
0.005005
0.006569
0.007864
0.008933
0.009867
0.010756
0.011644
0.012531
0.013424
0.014377
0.015492
0.016893
0.018689
0.020964
0.023765
0.027384
0.273616
0.267123
0.254813
0.237650
0.215459
0.187994
0.155185
0.117349
0.075355
0.030714
-0.014508
-0.058113
-0.098178
-0.133226
-0.162117
-0.184708
-0.200438
-0.209382
-0.211968
-0.208872
-0.200948
-0.189150
-0.174443
-0.157721
-0.139748
-0.121134
-0.102336
-0.083701
-0.065520
-0.048091
-0.031798
-0.016804
-0.003822
0.006680
0.014641
0.019942
0.022665
0.023397
0.022467
0.020004
0.015950
0.010148
0.002496
-0.006906
-0.017591
-0.028474
-0.037590
-0.042338
-0.040850
-0.034786
-0.027050
-0.017833
-0.008297
0.000826
0.009079
0.016262
0.022316
0.027287
0.031297
0.034543
0.037325
0.039542
0.040974
0.041568
0.041194
0.039681
0.037097
0.033836
0.030462
0.027340
0.024385
0.021129
0.017101
0.012259
0.007097
0.002404
-0.001134
-0.003227
-0.003981
-0.003696
-0.002573
-0.000871
0.001124
0.003193
0.005092
0.006732
0.008066
0.009140
0.010048
0.010901
0.011741
0.012561
0.013367
0.014228
0.015266
0.016621
0.018414
0.020733
0.023601
0.027191
0.276877
0.272746
0.262332
0.246199
0.224254
0.196186
0.161783
0.121250
0.075539
0.026547
-0.022888
-0.069923
-0.112395
-0.148928
-0.178738
-0.201529
-0.217195
-0.225603
-0.227202
-0.222673
-0.212907
-0.198923
-0.181782
-0.162492
-0.141941
-0.120868
-0.099855
-0.079359
-0.059756
-0.041395
-0.024637
-0.010063
0.001768
0.010560
0.016310
0.019343
0.019779
0.018374
0.015893
0.012546
0.008272
0.002864
-0.003857
-0.011854
-0.020674
-0.029245
-0.035864
-0.038759
-0.037190
-0.031972
-0.024094
-0.015386
-0.006818
0.001614
0.009271
0.015959
0.021598
0.026221
0.029938
0.032924
0.035373
0.037372
0.038993
0.040010
0.040171
0.039336
0.037516
0.034956
0.032038
0.028936
0.025589
0.021716
0.017063
0.011753
0.006348
0.001619
-0.001833
-0.003830
-0.004549
-0.004246
-0.003204
-0.001583
0.000390
0.002633
0.004790
0.006679
0.008246
0.009467
0.010371
0.011107
0.011731
0.012297
0.012884
0.013615
0.014642
0.016121
0.018188
0.020938
0.024407
0.030356
0.287822
0.284464
0.275095
0.259685
0.237793
0.208731
0.171856
0.127027
0.075203
0.018866
-0.037422
-0.089606
-0.135325
-0.173608
-0.204202
-0.227093
-0.242362
-0.249808
-0.249837
-0.243107
-0.230550
-0.213290
-0.192535
-0.169463
-0.145147
-0.120510
-0.096312
-0.073155
-0.051523
-0.031822
-0.014478
-0.000275
0.010215
0.016668
0.019191
0.018388
0.015261
0.010489
0.005558
0.000868
-0.003648
-0.008267
-0.013272
-0.018739
-0.024371
-0.029403
-0.032734
-0.033361
-0.030918
-0.025820
-0.018871
-0.011076
-0.002936
0.004556
0.011247
0.017099
0.021962
0.025855
0.028870
0.031181
0.032999
0.034511
0.035838
0.036935
0.037634
0.037713
0.036954
0.035265
0.032711
0.029454
0.025649
0.021318
0.016410
0.011162
0.006050
0.001635
-0.001683
-0.003784
-0.004752
-0.004708
-0.003779
-0.002125
0.000041
0.002266
0.004463
0.006486
0.008207
0.009495
0.010371
0.010885
0.011182
0.011414
0.011755
0.012390
0.013509
0.015286
0.017881
0.021438
0.026135
0.034179
0.304994
0.302038
0.293466
0.278786
0.257032
0.226822
0.186640
0.135490
0.074036
0.005428
-0.061487
-0.120558
-0.169773
-0.209400
-0.240253
-0.262794
-0.277107
-0.283050
-0.280797
-0.270920
-0.254431
-0.232640
-0.206984
-0.178882
-0.149643
-0.120409
-0.092136
-0.065581
-0.041314
-0.019753
-0.001306
0.012856
0.021903
0.025352
0.023445
0.017284
0.008669
-0.000266
-0.008302
-0.014454
-0.018968
-0.022331
-0.025044
-0.027406
-0.029385
-0.030605
-0.030493
-0.028555
-0.024651
-0.019061
-0.012332
-0.005107
0.002076
0.008702
0.014602
0.019522
0.023459
0.026409
0.028450
0.029814
0.030761
0.031568
0.032440
0.033427
0.034374
0.034973
0.034870
0.033797
0.031652
0.028530
0.024509
0.019790
0.014658
0.009528
0.004785
0.000808
-0.002147
-0.003998
-0.004795
-0.004642
-0.003676
-0.002066
0.000002
0.002302
0.004655
0.006797
0.008495
0.009683
0.010345
0.010514
0.010368
0.010157
0.010145
0.010583
0.011697
0.013688
0.016730
0.020985
0.026641
0.035851
0.327637
0.325092
0.317531
0.304072
0.283105
0.252191
0.208223
0.148251
0.071641
-0.018474
-0.101309
-0.167975
-0.219160
-0.258341
-0.288317
-0.310009
-0.322897
-0.326988
-0.321767
-0.307643
-0.285819
-0.257945
-0.225818
-0.191189
-0.155658
-0.120627
-0.087271
-0.056516
-0.029026
-0.005181
0.014904
0.029490
0.037156
0.037066
0.029618
0.016511
0.000530
-0.014906
-0.026614
-0.033999
-0.037955
-0.039374
-0.039182
-0.038029
-0.036199
-0.033655
-0.030187
-0.025610
-0.019923
-0.013356
-0.006300
0.000790
0.007507
0.013512
0.018599
0.022587
0.025437
0.027178
0.027975
0.028139
0.027985
0.027866
0.028053
0.028703
0.029702
0.030690
0.031201
0.030803
0.029210
0.026330
0.022248
0.017246
0.011914
0.006654
0.002064
-0.001570
-0.004080
-0.005443
-0.005748
-0.005141
-0.003796
-0.001897
0.000375
0.002823
0.005248
0.007416
0.009099
0.010130
0.010444
0.010112
0.009360
0.008507
0.007898
0.007864
0.008691
0.010622
0.013846
0.018520
0.024752
0.034876
0.354982
0.353032
0.347071
0.335909
0.317256
0.287266
0.240158
0.168709
0.067595
-0.063178
-0.167500
-0.237714
-0.284916
-0.319354
-0.346750
-0.367965
-0.380056
-0.382776
-0.374230
-0.354736
-0.325995
-0.290269
-0.249892
-0.207047
-0.163692
-0.121531
-0.082006
-0.046267
-0.015138
0.010960
0.032278
0.047967
0.054803
0.051462
0.038659
0.018667
-0.005098
-0.028433
-0.047040
-0.056215
-0.059424
-0.058506
-0.055074
-0.050268
-0.044710
-0.038631
-0.032049
-0.024947
-0.017398
-0.009603
-0.001863
0.005482
0.012123
0.017813
0.022370
0.025633
0.027472
0.027825
0.026849
0.024925
0.022813
0.021436
0.020728
0.020961
0.022066
0.023588
0.024926
0.025500
0.024860
0.022753
0.019149
0.014279
0.008623
0.003053
-0.001643
-0.005204
-0.007442
-0.008364
-0.008109
-0.006890
-0.004949
-0.002519
0.000180
0.002939
0.005546
0.007769
0.009366
0.010142
0.010016
0.009069
0.007553
0.005847
0.004386
0.003604
0.003884
0.005529
0.008749
0.013667
0.020401
0.031182
0.385920
0.384845
0.381360
0.374154
0.360480
0.335079
0.288370
0.204471
0.061620
-0.152229
-0.275104
-0.330510
-0.360002
-0.382397
-0.405507
-0.429393
-0.444987
-0.448755
-0.437393
-0.411811
-0.374880
-0.329854
-0.279783
-0.227359
-0.174935
-0.124571
-0.078054
-0.036862
-0.002117
0.025418
0.045322
0.061552
0.068385
0.062923
0.046781
0.022979
-0.004961
-0.033162
-0.057469
-0.074364
-0.078021
-0.075766
-0.069942
-0.062275
-0.053749
-0.044827
-0.035694
-0.026448
-0.017215
-0.008193
0.000360
0.008163
0.014962
0.020539
0.024690
0.027175
0.027748
0.026301
0.023083
0.018793
0.014434
0.010866
0.009165
0.009319
0.010943
0.013381
0.015893
0.017784
0.018490
0.017632
0.015064
0.010912
0.005603
-0.000147
-0.005467
-0.009218
-0.011492
-0.012245
-0.011631
-0.009916
-0.007413
-0.004431
-0.001255
0.001859
0.004669
0.006927
0.008386
0.008844
0.008208
0.006559
0.004172
0.001485
-0.000961
-0.002610
-0.002968
-0.001666
0.001514
0.006656
0.013872
0.025160
0.418821
0.418914
0.418855
0.417573
0.412559
0.398168
0.361544
0.273244
0.059464
-0.342724
-0.435381
-0.428449
-0.422636
-0.426176
-0.443196
-0.474152
-0.505485
-0.515684
-0.503618
-0.472736
-0.428054
-0.374086
-0.314621
-0.252844
-0.191523
-0.133149
-0.080004
-0.034078
0.003138
0.030680
0.048153
0.056049
0.060460
0.053845
0.039072
0.018289
-0.006365
-0.032312
-0.056388
-0.075281
-0.086399
-0.085230
-0.079273
-0.070733
-0.060938
-0.050566
-0.039967
-0.029365
-0.018972
-0.009034
0.000172
0.008364
0.015276
0.020646
0.024164
0.025444
0.024137
0.020206
0.014198
0.007273
0.000861
-0.003911
-0.005997
-0.005333
-0.002683
0.001076
0.005072
0.008530
0.010820
0.011490
0.010307
0.007293
0.002772
-0.002640
-0.008122
-0.012673
-0.015250
-0.016175
-0.015555
-0.013661
-0.010855
-0.007520
-0.004015
-0.000660
0.002256
0.004462
0.005702
0.005767
0.004559
0.002161
-0.001127
-0.004800
-0.008212
-0.010690
-0.011645
-0.010651
-0.007481
-0.002095
0.005592
0.017370
0.451515
0.452960
0.456967
0.463148
0.470321
0.474986
0.466634
0.411380
0.160189
-0.693509
-0.617933
-0.483255
-0.448315
-0.437545
-0.448169
-0.483694
-0.532564
-0.561672
-0.553477
-0.521481
-0.473409
-0.414752
-0.349842
-0.282300
-0.215358
-0.152108
-0.095685
-0.049161
-0.014617
0.007987
0.020348
0.024623
0.022422
0.017905
0.009803
-0.001867
-0.016701
-0.033747
-0.051266
-0.066855
-0.078068
-0.083353
-0.079803
-0.072682
-0.063727
-0.053710
-0.043119
-0.032315
-0.021637
-0.011433
-0.002060
0.006126
0.012779
0.017521
0.019891
0.019371
0.015619
0.008841
0.000060
-0.009046
-0.016726
-0.021783
-0.023238
-0.021402
-0.017255
-0.011844
-0.006146
-0.000994
0.002956
0.005230
0.005549
0.003864
0.000397
-0.004339
-0.009591
-0.014482
-0.017904
-0.019261
-0.018999
-0.017310
-0.014567
-0.011203
-0.007645
-0.004277
-0.001437
0.000572
0.001478
0.001065
-0.000765
-0.003925
-0.008083
-0.012672
-0.016960
-0.020182
-0.021667
-0.020943
-0.017771
-0.012141
-0.004001
0.008300
0.481502
0.484241
0.492196
0.505874
0.526093
0.553772
0.589013
0.626863
0.701157
0.003824
-0.540206
-0.462480
-0.451434
-0.444851
-0.452207
-0.481405
-0.524787
-0.563418
-0.568141
-0.540086
-0.495282
-0.439020
-0.375814
-0.309626
-0.244219
-0.183458
-0.131336
-0.091341
-0.064752
-0.049639
-0.042387
-0.039632
-0.038713
-0.035893
-0.033470
-0.032775
-0.034646
-0.039417
-0.046694
-0.055228
-0.063182
-0.068748
-0.070717
-0.066850
-0.060497
-0.052490
-0.043382
-0.033644
-0.023739
-0.014145
-0.005342
0.002197
0.007994
0.011522
0.012171
0.009361
0.002886
-0.006657
-0.017731
-0.028262
-0.036371
-0.040924
-0.040977
-0.037416
-0.031378
-0.024051
-0.016507
-0.009617
-0.004041
-0.000237
0.001522
0.001153
-0.001193
-0.005098
-0.009892
-0.014735
-0.018762
-0.020893
-0.021278
-0.020123
-0.017790
-0.014735
-0.011430
-0.008309
-0.005757
-0.004112
-0.003665
-0.004639
-0.007135
-0.011052
-0.016032
-0.021460
-0.026545
-0.030450
-0.032443
-0.032003
-0.028871
-0.023047
-0.014518
-0.001704
0.506392
0.510080
0.520919
0.540019
0.569513
0.613126
0.677352
0.773309
0.908609
0.940063
0.000000
-0.458591
-0.454702
-0.452284
-0.459064
-0.479116
-0.506944
-0.532170
-0.540672
-0.520270
-0.482606
-0.434037
-0.379203
-0.322116
-0.266809
-0.217534
-0.178412
-0.152094
-0.137314
-0.129539
-0.124291
-0.117700
-0.106700
-0.092947
-0.078468
-0.065035
-0.054050
-0.046528
-0.042952
-0.043067
-0.045814
-0.049586
-0.052707
-0.053855
-0.050958
-0.046010
-0.039493
-0.031894
-0.023754
-0.015662
-0.008224
-0.002046
0.002251
0.003983
0.002421
-0.002997
-0.012232
-0.024247
-0.037069
-0.048398
-0.056360
-0.059712
-0.057868
-0.052186
-0.043972
-0.034556
-0.025096
-0.016496
-0.009399
-0.004222
-0.001202
-0.000409
-0.001726
-0.004808
-0.009070
-0.013740
-0.017993
-0.021007
-0.022076
-0.021638
-0.019957
-0.017470
-0.014667
-0.012017
-0.009941
-0.008806
-0.008925
-0.010531
-0.013722
-0.018389
-0.024154
-0.030373
-0.036216
-0.040800
-0.043340
-0.043269
-0.040303
-0.034377
-0.025624
-0.012447
0.524433
0.528533
0.540576
0.561709
0.594003
0.640589
0.705289
0.789464
0.885265
0.971517
0.888625
0.000000
-0.456986
-0.459270
-0.458888
-0.467247
-0.478837
-0.486578
-0.482509
-0.463729
-0.430669
-0.391300
-0.348845
-0.307222
-0.270411
-0.242335
-0.225458
-0.218866
-0.217259
-0.214623
-0.206703
-0.189743
-0.167221
-0.141612
-0.115323
-0.090412
-0.068487
-0.050737
-0.037937
-0.030352
-0.027568
-0.028433
-0.031278
-0.034367
-0.035827
-0.034257
-0.030893
-0.026109
-0.020443
-0.014550
-0.009133
-0.004918
-0.002670
-0.003219
-0.007374
-0.015606
-0.027563
-0.041789
-0.055982
-0.067727
-0.075256
-0.076657
-0.072694
-0.064693
-0.054194
-0.042670
-0.031353
-0.021165
-0.012723
-0.006389
-0.002340
-0.000608
-0.001077
-0.003449
-0.007207
-0.011648
-0.015980
-0.019467
-0.021340
-0.021696
-0.020777
-0.018998
-0.016846
-0.014807
-0.013328
-0.012799
-0.013552
-0.015829
-0.019729
-0.025135
-0.031660
-0.038648
-0.045250
-0.050552
-0.053729
-0.054174
-0.051591
-0.045721
-0.037057
-0.023874
0.534858
0.538822
0.550389
0.570354
0.599964
0.640651
0.693507
0.758051
0.822838
0.844069
0.805733
0.688430
0.000000
-0.457594
-0.455918
-0.450804
-0.448025
-0.436386
-0.412362
-0.381813
-0.349837
-0.317566
-0.288358
-0.265973
-0.254069
-0.254508
-0.265739
-0.281081
-0.291674
-0.291703
-0.275150
-0.246571
-0.212565
-0.175940
-0.139372
-0.105077
-0.074702
-0.049374
-0.029793
-0.016292
-0.008761
-0.006492
-0.008109
-0.011785
-0.015663
-0.017813
-0.017655
-0.015909
-0.013035
-0.009708
-0.006698
-0.004835
-0.005022
-0.008219
-0.015262
-0.026457
-0.041112
-0.057390
-0.072733
-0.084611
-0.091206
-0.090578
-0.084326
-0.074021
-0.061370
-0.047948
-0.035026
-0.023519
-0.014000
-0.006772
-0.001950
0.000485
0.000662
-0.001145
-0.004477
-0.008693
-0.013052
-0.016868
-0.019344
-0.020407
-0.020226
-0.019167
-0.017702
-0.016318
-0.015475
-0.015582
-0.016985
-0.019934
-0.024529
-0.030650
-0.037910
-0.045653
-0.053028
-0.059108
-0.063041
-0.064187
-0.062223
-0.056808
-0.048672
-0.036066
0.537914
0.541318
0.551185
0.567929
0.592093
0.623979
0.662527
0.702745
0.731729
0.722659
0.658472
0.571126
0.400933
0.000000
-0.444739
-0.433559
-0.429469
-0.397003
-0.347465
-0.296883
-0.256845
-0.229556
-0.213785
-0.211672
-0.225964
-0.256775
-0.295834
-0.330628
-0.350294
-0.347395
-0.319996
-0.282463
-0.239374
-0.194331
-0.150274
-0.109445
-0.073392
-0.043075
-0.019004
-0.001386
0.009834
0.015070
0.015286
0.012042
0.007235
0.002612
-0.000296
-0.001421
-0.001260
-0.000518
-0.000016
-0.000678
-0.003531
-0.009625
-0.019753
-0.033989
-0.051284
-0.069474
-0.085796
-0.097636
-0.102991
-0.100073
-0.091675
-0.079404
-0.065051
-0.050221
-0.036176
-0.023786
-0.013568
-0.005762
-0.000425
0.002501
0.003159
0.001802
-0.001161
-0.005146
-0.009454
-0.013391
-0.016390
-0.018005
-0.018446
-0.018027
-0.017192
-0.016421
-0.016181
-0.016893
-0.018911
-0.022493
-0.027738
-0.034528
-0.042483
-0.050959
-0.059117
-0.066036
-0.070859
-0.072930
-0.071881
-0.067435
-0.060449
-0.049254
0.534636
0.537279
0.544850
0.557365
0.574637
0.595803
0.618367
0.636575
0.639294
0.608537
0.526395
0.382736
0.230739
-0.201777
-0.502528
-0.455980
-0.430462
-0.370747
-0.296204
-0.227769
-0.176235
-0.149549
-0.142350
-0.159200
-0.198624
-0.254249
-0.313520
-0.360918
-0.383822
-0.370621
-0.338432
-0.295409
-0.247100
-0.197575
-0.149837
-0.105987
-0.067357
-0.034674
-0.008227
0.011951
0.025954
0.034012
0.036667
0.034985
0.030541
0.024998
0.020014
0.016672
0.014553
0.012969
0.011077
0.007881
0.002268
-0.006830
-0.020074
-0.037247
-0.056956
-0.076770
-0.093792
-0.105492
-0.108219
-0.103828
-0.093954
-0.080459
-0.065183
-0.049707
-0.035224
-0.022533
-0.012077
-0.004040
0.001564
0.004816
0.005856
0.004907
0.002323
-0.001375
-0.005539
-0.009503
-0.012731
-0.014760
-0.015672
-0.015758
-0.015438
-0.015186
-0.015467
-0.016709
-0.019273
-0.023416
-0.029240
-0.036631
-0.045221
-0.054389
-0.063325
-0.071135
-0.076989
-0.080278
-0.080363
-0.077588
-0.072535
-0.063835
0.526426
0.528190
0.533165
0.541073
0.551239
0.562179
0.570916
0.571995
0.556381
0.510606
0.416950
0.250763
-0.039901
-0.634293
-0.549075
-0.446225
-0.391204
-0.328996
-0.255432
-0.186882
-0.133685
-0.100710
-0.099608
-0.128765
-0.182730
-0.250756
-0.317909
-0.368113
-0.381859
-0.364805
-0.330712
-0.286530
-0.237709
-0.188253
-0.140972
-0.097714
-0.059567
-0.027047
-0.000267
0.020901
0.036664
0.047201
0.052739
0.053798
0.051391
0.046872
0.041452
0.036903
0.033216
0.029755
0.025729
0.020132
0.011839
-0.000136
-0.016232
-0.035921
-0.057516
-0.078382
-0.095480
-0.106050
-0.107037
-0.101604
-0.091140
-0.077446
-0.062275
-0.047093
-0.032978
-0.020627
-0.010414
-0.002478
0.003188
0.006660
0.008057
0.007554
0.005443
0.002168
-0.001688
-0.005501
-0.008749
-0.010987
-0.012191
-0.012624
-0.012686
-0.012837
-0.013540
-0.015222
-0.018244
-0.022862
-0.029177
-0.037082
-0.046229
-0.056033
-0.065726
-0.074463
-0.081459
-0.086121
-0.087877
-0.087488
-0.085213
-0.080329
0.514904
0.515804
0.518266
0.521852
0.525660
0.528020
0.526051
0.515103
0.488199
0.435580
0.344252
0.196922
-0.028574
-0.315999
-0.376327
-0.358607
-0.324150
-0.274795
-0.220085
-0.166373
-0.119200
-0.090010
-0.093115
-0.126481
-0.182061
-0.247643
-0.308493
-0.345988
-0.350496
-0.333422
-0.301464
-0.260674
-0.215868
-0.170594
-0.127306
-0.087580
-0.052321
-0.021934
0.003525
0.024233
0.040478
0.052536
0.060591
0.064831
0.065705
0.063989
0.060423
0.056524
0.052324
0.047643
0.041934
0.034297
0.023705
0.009355
-0.008919
-0.030303
-0.052913
-0.074047
-0.090729
-0.098708
-0.099294
-0.093922
-0.084058
-0.071373
-0.057433
-0.043517
-0.030551
-0.019126
-0.009557
-0.001968
0.003634
0.007293
0.009084
0.009126
0.007636
0.004980
0.001658
-0.001766
-0.004805
-0.007018
-0.008326
-0.008953
-0.009271
-0.009722
-0.010758
-0.012798
-0.016196
-0.021201
-0.027912
-0.036235
-0.045852
-0.056224
-0.066643
-0.076337
-0.084610
-0.090715
-0.094852
-0.097451
-0.098756
-0.099181
0.501668
0.501800
0.502056
0.501955
0.500573
0.496337
0.486767
0.468210
0.435639
0.382658
0.301847
0.186107
0.034250
-0.131093
-0.217230
-0.244430
-0.239828
-0.216050
-0.182894
-0.147640
-0.118091
-0.103383
-0.110645
-0.139663
-0.184720
-0.235543
-0.278540
-0.299772
-0.301540
-0.286795
-0.260069
-0.225897
-0.188100
-0.149590
-0.112428
-0.077957
-0.046967
-0.019837
0.003344
0.022689
0.038433
0.050860
0.060237
0.066792
0.070761
0.072292
0.073199
0.071674
0.068224
0.063346
0.056811
0.047920
0.035863
0.020107
0.000773
-0.021106
-0.043564
-0.063962
-0.078670
-0.085540
-0.086535
-0.082398
-0.074384
-0.063891
-0.052206
-0.040372
-0.029150
-0.019040
-0.010335
-0.003187
0.002344
0.006237
0.008504
0.009203
0.008484
0.006634
0.004075
0.001292
-0.001274
-0.003215
-0.004447
-0.005138
-0.005615
-0.006293
-0.007602
-0.009942
-0.013651
-0.018961
-0.025974
-0.034613
-0.044603
-0.055467
-0.066569
-0.077221
-0.086725
-0.094748
-0.101635
-0.107662
-0.113168
-0.120382
0.488144
0.487633
0.486069
0.483019
0.477665
0.468680
0.454103
0.431253
0.396750
0.346778
0.277772
0.187978
0.081033
-0.028400
-0.105817
-0.148114
-0.163764
-0.161243
-0.148219
-0.131481
-0.117667
-0.113092
-0.121999
-0.144460
-0.176408
-0.210292
-0.236259
-0.249652
-0.249952
-0.238354
-0.217577
-0.190708
-0.160562
-0.129406
-0.098907
-0.070185
-0.043918
-0.020454
0.000095
0.017771
0.032723
0.045159
0.055311
0.063390
0.069529
0.074980
0.078357
0.079225
0.077725
0.073983
0.067854
0.058899
0.046620
0.030807
0.011846
-0.009102
-0.030126
-0.048490
-0.061014
-0.068481
-0.071062
-0.069364
-0.064315
-0.056950
-0.048233
-0.038960
-0.029743
-0.021035
-0.013157
-0.006343
-0.000749
0.003499
0.006350
0.007796
0.007939
0.007007
0.005351
0.003377
0.001551
0.000060
-0.000961
-0.001620
-0.002197
-0.003068
-0.004628
-0.007244
-0.011217
-0.016761
-0.023974
-0.032814
-0.043069
-0.054342
-0.066078
-0.077660
-0.088578
-0.098781
-0.108457
-0.117998
-0.127912
-0.142959
0.475524
0.474485
0.471462
0.466131
0.457857
0.445613
0.427949
0.403001
0.368629
0.322732
0.263882
0.192415
0.112153
0.032067
-0.033071
-0.077869
-0.103874
-0.115261
-0.117016
-0.114190
-0.111666
-0.113696
-0.122941
-0.139505
-0.160784
-0.181996
-0.198223
-0.206513
-0.205825
-0.196709
-0.180779
-0.160079
-0.136615
-0.112090
-0.087793
-0.064594
-0.043004
-0.023258
-0.005412
0.010570
0.024762
0.037247
0.048126
0.057509
0.066003
0.072968
0.078055
0.080938
0.081465
0.079479
0.074718
0.066856
0.055661
0.041202
0.024052
0.005380
-0.013069
-0.028710
-0.041316
-0.050352
-0.055649
-0.057377
-0.056030
-0.052271
-0.046753
-0.040055
-0.032690
-0.025127
-0.017768
-0.010998
-0.005082
-0.000329
0.003204
0.005444
0.006465
0.006491
0.005804
0.004748
0.003584
0.002567
0.001805
0.001208
0.000531
-0.000554
-0.002392
-0.005293
-0.009504
-0.015203
-0.022497
-0.031396
-0.041786
-0.053385
-0.065789
-0.078439
-0.090895
-0.103092
-0.115256
-0.127886
-0.141725
-0.164513
0.464790
0.463291
0.459057
0.451949
0.441547
0.427120
0.407646
0.381887
0.348554
0.306587
0.255619
0.196628
0.132690
0.069371
0.014013
-0.029180
-0.059621
-0.079020
-0.090271
-0.096724
-0.101704
-0.108035
-0.117454
-0.130125
-0.144578
-0.158300
-0.168435
-0.173059
-0.171419
-0.163799
-0.151229
-0.135119
-0.116927
-0.097922
-0.079065
-0.060956
-0.043870
-0.027824
-0.012694
0.001655
0.015266
0.028042
0.039840
0.050741
0.060531
0.068888
0.075542
0.080187
0.082555
0.082384
0.079392
0.073349
0.064195
0.052167
0.037868
0.022293
0.006618
-0.008448
-0.022210
-0.033931
-0.042862
-0.048551
-0.051053
-0.050763
-0.048115
-0.043519
-0.037456
-0.030500
-0.023156
-0.016104
-0.009502
-0.004042
0.000248
0.003313
0.005184
0.006002
0.006043
0.005617
0.004990
0.004356
0.003774
0.003152
0.002278
0.000876
-0.001329
-0.004563
-0.008993
-0.014742
-0.021949
-0.030717
-0.041121
-0.053199
-0.066375
-0.080072
-0.093897
-0.107696
-0.121669
-0.136377
-0.152769
-0.181202
0.456800
0.454794
0.449410
0.440808
0.428799
0.412888
0.392373
0.366451
0.334379
0.295692
0.250509
0.199906
0.146218
0.093046
0.044593
0.003835
-0.028136
-0.051818
-0.068757
-0.081031
-0.090811
-0.099959
-0.109653
-0.120101
-0.130563
-0.139780
-0.145917
-0.147905
-0.145323
-0.138429
-0.128008
-0.115143
-0.100963
-0.086446
-0.072283
-0.058817
-0.046048
-0.033700
-0.021337
-0.008562
0.004749
0.018224
0.031326
0.043643
0.054856
0.064723
0.072976
0.079316
0.083440
0.085061
0.083943
0.079989
0.073293
0.064149
0.053046
0.039835
0.025408
0.009990
-0.005949
-0.021284
-0.034393
-0.043966
-0.049709
-0.052066
-0.051452
-0.048094
-0.042521
-0.035611
-0.027572
-0.019969
-0.013088
-0.006898
-0.001897
0.001826
0.004322
0.005759
0.006384
0.006456
0.006198
0.005759
0.005160
0.004305
0.003018
0.001095
-0.001639
-0.005288
-0.009909
-0.015534
-0.022411
-0.031045
-0.041620
-0.053959
-0.067799
-0.082515
-0.097463
-0.112286
-0.127107
-0.142499
-0.159414
-0.188789
0.452508
0.449622
0.442836
0.432790
0.419461
0.402487
0.381344
0.355504
0.324551
0.288342
0.247203
0.202133
0.154918
0.108039
0.064222
0.025626
-0.006631
-0.032480
-0.052672
-0.068441
-0.081175
-0.092094
-0.102041
-0.111201
-0.119391
-0.125639
-0.129086
-0.129157
-0.125715
-0.119097
-0.110019
-0.099414
-0.088227
-0.077244
-0.066954
-0.057488
-0.048618
-0.039802
-0.030248
-0.019079
-0.005735
0.008828
0.023324
0.037295
0.050211
0.061727
0.071572
0.079476
0.085148
0.088318
0.088823
0.086732
0.082303
0.075781
0.066362
0.054969
0.041290
0.024985
0.006309
-0.013156
-0.030569
-0.043332
-0.050846
-0.054268
-0.054629
-0.051636
-0.045321
-0.038153
-0.030596
-0.022436
-0.014826
-0.008157
-0.002717
0.001412
0.004302
0.006136
0.007157
0.007553
0.007481
0.007058
0.006230
0.004894
0.002929
0.000224
-0.003238
-0.007381
-0.012145
-0.017700
-0.024342
-0.032483
-0.042691
-0.055154
-0.069558
-0.085094
-0.100806
-0.116056
-0.130835
-0.145714
-0.161593
-0.185411
0.453574
0.448248
0.439325
0.427723
0.413245
0.395478
0.373909
0.348170
0.318025
0.283493
0.244976
0.203367
0.160093
0.117011
0.076110
0.039073
0.006951
-0.019930
-0.041873
-0.059611
-0.074035
-0.085915
-0.096005
-0.104519
-0.111196
-0.115635
-0.117406
-0.116256
-0.112245
-0.105778
-0.097550
-0.088407
-0.079181
-0.070530
-0.062813
-0.056033
-0.049850
-0.043653
-0.036561
-0.027218
-0.013982
0.001097
0.017257
0.033082
0.047715
0.060726
0.071870
0.080927
0.087646
0.091768
0.093174
0.092187
0.089123
0.083233
0.075390
0.065189
0.051979
0.035053
0.014331
-0.008504
-0.029576
-0.044665
-0.052322
-0.054382
-0.053969
-0.051444
-0.046611
-0.039082
-0.030830
-0.022500
-0.014741
-0.007971
-0.002435
0.001794
0.004796
0.006770
0.008014
0.008592
0.008566
0.007941
0.006742
0.004890
0.002246
-0.001249
-0.005512
-0.010320
-0.015456
-0.020930
-0.027123
-0.034690
-0.044338
-0.056407
-0.070635
-0.086212
-0.102119
-0.117589
-0.132419
-0.146940
-0.161712
-0.178682
0.464480
0.450322
0.438304
0.425342
0.410077
0.391737
0.369906
0.344226
0.314533
0.280904
0.243750
0.203884
0.162542
0.121293
0.081811
0.045567
0.013574
-0.013732
-0.036458
-0.055114
-0.070433
-0.083155
-0.093520
-0.101820
-0.108001
-0.111818
-0.113002
-0.111427
-0.107227
-0.100827
-0.092896
-0.084229
-0.075601
-0.067610
-0.060571
-0.054449
-0.048876
-0.043221
-0.036657
-0.028218
-0.017392
-0.002071
0.015183
0.032161
0.047744
0.061461
0.073104
0.082501
0.089437
0.093667
0.095023
0.093484
0.089499
0.083939
0.076479
0.066664
0.053871
0.037494
0.017480
-0.004770
-0.025912
-0.041924
-0.050873
-0.054132
-0.053369
-0.050284
-0.045201
-0.038116
-0.030075
-0.021927
-0.014313
-0.007659
-0.002208
0.001966
0.004933
0.006865
0.007922
0.008408
0.008350
0.007699
0.006413
0.004418
0.001620
-0.002014
-0.006397
-0.011334
-0.016643
-0.022342
-0.028769
-0.036502
-0.046133
-0.057936
-0.071694
-0.086751
-0.102276
-0.117617
-0.132523
-0.147140
-0.161767
-0.177278
