# vtk DataFile Version 3.0
Scalar Field
ASCII
DATASET RECTILINEAR_GRID
DIMENSIONS 100 26 1
X_COORDINATES 100 double
0.050000 0.150000 0.250000 0.350000 0.450000 0.550000 0.650000 0.750000 0.850000 0.950000 1.050000 1.150000 1.250000 1.350000 1.450000 1.550000 1.650000 1.750000 1.850000 1.950000 2.050000 2.150000 2.250000 2.350000 2.450000 2.550000 2.650000 2.750000 2.850000 2.950000 3.050000 3.150000 3.250000 3.350000 3.450000 3.550000 3.650000 3.750000 3.850000 3.950000 4.050000 4.150000 4.250000 4.350000 4.450000 4.550000 4.650000 4.750000 4.850000 4.950000 5.050000 5.150000 5.250000 5.350000 5.450000 5.550000 5.650000 5.750000 5.850000 5.950000 6.050000 6.150000 6.250000 6.350000 6.450000 6.550000 6.650000 6.750000 6.850000 6.950000 7.050000 7.150000 7.250000 7.350000 7.450000 7.550000 7.650000 7.750000 7.850000 7.950000 8.050000 8.150000 8.250000 8.350000 8.450000 8.550000 8.650000 8.750000 8.850000 8.950000 9.050000 9.150000 9.250000 9.350000 9.450000 9.550000 9.650000 9.750000 9.850000 9.950000 
Y_COORDINATES 26 double
0.050000 0.150000 0.250000 0.350000 0.450000 0.550000 0.650000 0.750000 0.850000 0.950000 1.050000 1.150000 1.250000 1.350000 1.450000 1.550000 1.650000 1.750000 1.850000 1.950000 2.050000 2.150000 2.250000 2.350000 2.450000 2.550000 
Z_COORDINATES 1 double
0.0
POINT_DATA 2600
SCALARS Skalarfeld double 1
LOOKUP_TABLE default
0.263003
0.247638
0.232201
0.213675
0.190968
0.163650
0.131746
0.095726
0.056573
0.015795
-0.024701
-0.062912
-0.097085
-0.125986
-0.148697
-0.164726
-0.174337
-0.178095
-0.176782
-0.171308
-0.162627
-0.151683
-0.139360
-0.126458
-0.113669
-0.101557
-0.090527
-0.080792
-0.072354
-0.065042
-0.058599
-0.052817
-0.047635
-0.043173
-0.039703
-0.037549
-0.036972
-0.038043
-0.040554
-0.043964
-0.047408
-0.049697
-0.049380
-0.045280
-0.036524
-0.024356
-0.011399
0.001029
0.012363
0.022419
0.031174
0.038643
0.044836
0.049774
0.053488
0.055888
0.057124
0.056657
0.054077
0.049099
0.041803
0.032847
0.023442
0.014850
0.007713
0.001865
-0.003157
-0.007507
-0.010895
-0.012914
-0.013426
-0.012415
-0.010233
-0.007364
-0.004122
-0.000819
0.002230
0.004765
0.006651
0.007744
0.008164
0.008162
0.008114
0.008483
0.009724
0.012090
0.015628
0.020125
0.025328
0.031199
0.037737
0.044908
0.052629
0.060808
0.069393
0.078385
0.087776
0.097466
0.107223
0.117295
0.254316
0.247754
0.235289
0.217910
0.195488
0.167855
0.135063
0.097590
0.056505
0.013538
-0.029060
-0.068965
-0.104221
-0.133415
-0.155896
-0.171617
-0.180640
-0.183586
-0.181305
-0.174767
-0.164994
-0.152990
-0.139704
-0.125995
-0.112616
-0.100185
-0.089145
-0.079709
-0.071820
-0.065193
-0.059436
-0.054232
-0.049462
-0.045234
-0.041840
-0.039644
-0.038947
-0.039860
-0.042205
-0.045471
-0.048805
-0.050954
-0.050162
-0.044536
-0.034819
-0.023366
-0.011052
0.000895
0.011878
0.021690
0.030293
0.037698
0.043919
0.048994
0.053050
0.056213
0.057704
0.057373
0.054871
0.049806
0.042255
0.032977
0.023375
0.014799
0.007778
0.001919
-0.003374
-0.008167
-0.011935
-0.014064
-0.014399
-0.013160
-0.010796
-0.007839
-0.004458
-0.000995
0.002280
0.005096
0.007064
0.008071
0.008367
0.008181
0.007911
0.008079
0.009215
0.011649
0.015220
0.019602
0.024743
0.030615
0.037189
0.044402
0.052154
0.060368
0.069000
0.078070
0.087589
0.097456
0.107382
0.117960
0.257743
0.253529
0.242920
0.226499
0.204219
0.175846
0.141286
0.100915
0.055905
0.008406
-0.038510
-0.081819
-0.119262
-0.149494
-0.171990
-0.186856
-0.194452
-0.195476
-0.190922
-0.181903
-0.169583
-0.155128
-0.139656
-0.124200
-0.109680
-0.096868
-0.086299
-0.078169
-0.072226
-0.067828
-0.064177
-0.060657
-0.056990
-0.053241
-0.049734
-0.046902
-0.045131
-0.044618
-0.045264
-0.046623
-0.047872
-0.047823
-0.045146
-0.038996
-0.029707
-0.018807
-0.007925
0.002740
0.012626
0.021539
0.029422
0.036265
0.042066
0.046847
0.050655
0.053501
0.055263
0.055320
0.052997
0.048349
0.041551
0.033190
0.024381
0.016097
0.008754
0.002198
-0.003788
-0.009002
-0.012852
-0.014802
-0.014760
-0.013389
-0.011244
-0.008520
-0.005075
-0.001566
0.001717
0.004499
0.006536
0.007772
0.008167
0.008037
0.007816
0.008007
0.009044
0.011157
0.014340
0.018480
0.023518
0.029403
0.036064
0.043406
0.051327
0.059727
0.068587
0.077937
0.087805
0.098110
0.108494
0.118755
0.268972
0.265511
0.255895
0.240105
0.217741
0.188182
0.150902
0.105938
0.054487
-0.000648
-0.054623
-0.103121
-0.143555
-0.174855
-0.196914
-0.210192
-0.215374
-0.213353
-0.205304
-0.192512
-0.176338
-0.158169
-0.139352
-0.121155
-0.104745
-0.091181
-0.081233
-0.075054
-0.072123
-0.071349
-0.071075
-0.070195
-0.068205
-0.065129
-0.061362
-0.057453
-0.053909
-0.051048
-0.048896
-0.047155
-0.045215
-0.042259
-0.037517
-0.030647
-0.021978
-0.012346
-0.002480
0.006775
0.015306
0.022993
0.029778
0.035629
0.040531
0.044497
0.047571
0.049774
0.050996
0.050919
0.049245
0.045419
0.039463
0.031928
0.023857
0.015926
0.008589
0.001960
-0.003904
-0.008757
-0.012219
-0.014051
-0.014319
-0.013306
-0.011203
-0.008118
-0.004911
-0.001694
0.001397
0.004057
0.006001
0.007142
0.007528
0.007419
0.007197
0.007295
0.008107
0.009896
0.012756
0.016667
0.021589
0.027460
0.034181
0.041630
0.049686
0.058267
0.067369
0.077073
0.087515
0.098812
0.110955
0.127128
0.286574
0.283495
0.274616
0.259451
0.237060
0.206120
0.165222
0.113545
0.052010
-0.015819
-0.080803
-0.136401
-0.180141
-0.211910
-0.232477
-0.242919
-0.244306
-0.237839
-0.224828
-0.206745
-0.185193
-0.161837
-0.138314
-0.116167
-0.096824
-0.081930
-0.072798
-0.069645
-0.071362
-0.075744
-0.080347
-0.082973
-0.082952
-0.080403
-0.075961
-0.070434
-0.064545
-0.058779
-0.053330
-0.048096
-0.042743
-0.036827
-0.029989
-0.022146
-0.013557
-0.004711
0.003914
0.011924
0.019185
0.025647
0.031223
0.035892
0.039642
0.042518
0.044611
0.046018
0.046678
0.046328
0.044601
0.041134
0.035808
0.029020
0.021364
0.013621
0.006466
0.000172
-0.005111
-0.009214
-0.011962
-0.013285
-0.013269
-0.012102
-0.010007
-0.007242
-0.004174
-0.000965
0.001972
0.004376
0.006078
0.006973
0.007108
0.006712
0.006160
0.005856
0.006183
0.007448
0.009893
0.013482
0.018189
0.023963
0.030683
0.038197
0.046364
0.055098
0.064415
0.074459
0.085517
0.098027
0.112601
0.138233
0.309832
0.307144
0.299213
0.285160
0.263384
0.231485
0.186447
0.125482
0.048207
-0.041739
-0.123434
-0.187328
-0.233207
-0.263592
-0.280746
-0.286454
-0.282384
-0.269824
-0.250107
-0.224901
-0.196120
-0.165793
-0.135929
-0.108383
-0.084766
-0.067587
-0.059367
-0.060622
-0.069504
-0.082071
-0.093471
-0.100481
-0.102456
-0.099870
-0.093940
-0.085988
-0.077090
-0.067967
-0.058985
-0.050222
-0.041569
-0.032850
-0.023953
-0.014924
-0.005981
0.002572
0.010451
0.017448
0.023444
0.028464
0.032754
0.036105
0.038545
0.040193
0.041177
0.041747
0.041922
0.041437
0.039846
0.036695
0.031741
0.025140
0.017431
0.009764
0.002593
-0.003416
-0.008101
-0.011375
-0.013217
-0.013698
-0.012977
-0.011274
-0.008835
-0.005917
-0.002794
0.000294
0.003067
0.005278
0.006740
0.007312
0.007005
0.006030
0.004762
0.003657
0.003147
0.003585
0.005201
0.008212
0.012547
0.018135
0.024809
0.032365
0.040625
0.049485
0.058966
0.069259
0.080771
0.094199
0.110664
0.142381
0.338011
0.335900
0.329520
0.317668
0.298048
0.266832
0.218302
0.145362
0.042913
-0.088748
-0.193770
-0.263111
-0.306247
-0.331436
-0.342430
-0.341308
-0.330338
-0.310067
-0.281792
-0.247445
-0.209363
-0.170082
-0.132122
-0.097762
-0.068766
-0.047567
-0.039631
-0.046196
-0.064524
-0.088649
-0.110701
-0.123289
-0.127121
-0.123651
-0.115217
-0.103963
-0.091449
-0.078646
-0.066062
-0.053897
-0.042178
-0.030880
-0.020018
-0.009699
-0.000107
0.008548
0.016091
0.022394
0.027365
0.030916
0.032979
0.034041
0.034803
0.035083
0.034746
0.034465
0.034403
0.034227
0.033327
0.031073
0.027031
0.021125
0.013714
0.005542
-0.001991
-0.008015
-0.012427
-0.015127
-0.016187
-0.015792
-0.014205
-0.011725
-0.008653
-0.005275
-0.001857
0.001361
0.004136
0.006224
0.007401
0.007504
0.006531
0.004688
0.002371
0.000094
-0.001619
-0.002316
-0.001689
0.000513
0.004401
0.009790
0.016421
0.024022
0.032360
0.041300
0.050847
0.061201
0.072815
0.086487
0.103515
0.135787
0.370033
0.368788
0.364855
0.356899
0.342155
0.315358
0.266957
0.181139
0.036322
-0.180679
-0.308336
-0.366742
-0.395524
-0.410461
-0.413287
-0.405444
-0.387238
-0.358354
-0.320173
-0.275060
-0.225953
-0.176075
-0.128677
-0.086740
-0.052804
-0.026198
-0.016431
-0.026944
-0.053676
-0.089057
-0.123561
-0.146993
-0.152925
-0.148204
-0.136894
-0.122184
-0.106137
-0.089919
-0.074121
-0.058999
-0.044650
-0.031131
-0.018521
-0.006955
0.003398
0.012368
0.019801
0.025543
0.029404
0.031219
0.030993
0.029121
0.026179
0.023732
0.022161
0.021672
0.022186
0.023119
0.023678
0.023080
0.020723
0.016331
0.010047
0.002470
-0.005395
-0.012328
-0.016885
-0.019481
-0.020166
-0.019187
-0.016895
-0.013682
-0.009930
-0.005986
-0.002152
0.001306
0.004140
0.006094
0.006925
0.006457
0.004668
0.001761
-0.001827
-0.005495
-0.008583
-0.010510
-0.010882
-0.009390
-0.005882
-0.000643
0.005976
0.013620
0.021994
0.030917
0.040359
0.050492
0.061739
0.074853
0.091018
0.120199
0.404285
0.404214
0.403711
0.401681
0.395589
0.379775
0.341402
0.251053
0.034918
-0.374580
-0.479356
-0.479951
-0.478337
-0.481886
-0.480742
-0.470734
-0.447532
-0.411223
-0.363788
-0.308268
-0.248356
-0.188131
-0.131766
-0.083000
-0.044866
-0.019878
-0.006395
-0.017292
-0.045729
-0.083744
-0.122748
-0.154268
-0.168988
-0.164684
-0.152072
-0.135518
-0.117504
-0.099312
-0.081567
-0.064565
-0.048469
-0.033412
-0.019547
-0.007052
0.003876
0.013032
0.020170
0.024925
0.026858
0.025735
0.021905
0.016404
0.010624
0.005836
0.003663
0.003960
0.005966
0.008775
0.011435
0.013065
0.012962
0.010703
0.006241
-0.000030
-0.007288
-0.014436
-0.020188
-0.023132
-0.023959
-0.022891
-0.020311
-0.016680
-0.012465
-0.008092
-0.003929
-0.000290
0.002540
0.004285
0.004686
0.003550
0.000846
-0.003208
-0.008118
-0.013170
-0.017568
-0.020613
-0.021841
-0.020874
-0.017629
-0.012467
-0.005832
0.001838
0.010175
0.018939
0.028051
0.037622
0.047995
0.059788
0.073943
0.098137
0.438596
0.439896
0.443506
0.449018
0.455230
0.458646
0.448826
0.392046
0.139396
-0.725298
-0.673205
-0.546321
-0.515724
-0.515184
-0.523385
-0.518925
-0.495975
-0.457371
-0.405819
-0.345009
-0.279417
-0.214123
-0.154594
-0.104971
-0.067598
-0.043330
-0.035240
-0.041001
-0.059846
-0.087362
-0.117712
-0.144371
-0.161463
-0.164921
-0.154001
-0.138519
-0.121258
-0.103508
-0.085888
-0.068737
-0.052309
-0.036854
-0.022643
-0.009965
0.000875
0.009523
0.015500
0.018168
0.016965
0.011916
0.004072
-0.004652
-0.012219
-0.017248
-0.018351
-0.016220
-0.011981
-0.006769
-0.001648
0.002461
0.004825
0.004950
0.002656
-0.001851
-0.007941
-0.014634
-0.020785
-0.025013
-0.026407
-0.025768
-0.023419
-0.019837
-0.015551
-0.011064
-0.006820
-0.003197
-0.000525
0.000886
0.000755
-0.001121
-0.004772
-0.009950
-0.016092
-0.022379
-0.027906
-0.031883
-0.033795
-0.033189
-0.030093
-0.024942
-0.018270
-0.010610
-0.002406
0.006031
0.014556
0.023206
0.032216
0.042036
0.053341
0.071566
0.470438
0.473066
0.480714
0.493876
0.513370
0.540151
0.574445
0.611550
0.686842
-0.019228
-0.600768
-0.528331
-0.515408
-0.513937
-0.524983
-0.529701
-0.512189
-0.478982
-0.432426
-0.376738
-0.317033
-0.258517
-0.207606
-0.167154
-0.137560
-0.118701
-0.107030
-0.099929
-0.100346
-0.107484
-0.119024
-0.131427
-0.140742
-0.144016
-0.140627
-0.128753
-0.114810
-0.099916
-0.084633
-0.069299
-0.054250
-0.039873
-0.026594
-0.014871
-0.005194
0.001852
0.005522
0.005003
-0.000126
-0.009223
-0.020359
-0.030941
-0.038787
-0.042394
-0.041185
-0.036409
-0.029405
-0.021469
-0.013737
-0.007135
-0.002372
0.000063
-0.000068
-0.002686
-0.007337
-0.013190
-0.019167
-0.024157
-0.026758
-0.026948
-0.025291
-0.022224
-0.018300
-0.014077
-0.010068
-0.006713
-0.004396
-0.003464
-0.004222
-0.006883
-0.011464
-0.017684
-0.024915
-0.032260
-0.038732
-0.043476
-0.045935
-0.045559
-0.042524
-0.037340
-0.030636
-0.023040
-0.015087
-0.007164
0.000511
0.007891
0.015096
0.022408
0.030262
0.041951
0.497372
0.500995
0.511646
0.530437
0.559519
0.602674
0.666555
0.762590
0.897761
0.934795
0.000000
-0.519056
-0.509781
-0.501365
-0.501735
-0.502602
-0.492351
-0.467516
-0.432225
-0.391321
-0.350280
-0.314284
-0.285063
-0.261228
-0.240667
-0.222551
-0.200239
-0.176454
-0.154986
-0.138495
-0.127462
-0.121180
-0.117887
-0.115425
-0.112069
-0.107163
-0.097914
-0.087449
-0.076181
-0.064337
-0.052267
-0.040460
-0.029495
-0.020010
-0.012709
-0.008425
-0.008131
-0.012646
-0.021965
-0.034650
-0.048021
-0.059183
-0.066118
-0.067042
-0.062787
-0.054815
-0.044694
-0.033858
-0.023498
-0.014524
-0.007585
-0.003112
-0.001324
-0.002203
-0.005418
-0.010292
-0.015852
-0.021005
-0.024753
-0.026028
-0.025365
-0.023155
-0.019942
-0.016313
-0.012825
-0.009974
-0.008192
-0.007866
-0.009326
-0.012791
-0.018265
-0.025434
-0.033621
-0.041875
-0.049154
-0.054544
-0.057445
-0.057200
-0.054178
-0.048960
-0.042270
-0.034834
-0.027277
-0.020066
-0.013498
-0.007705
-0.002677
0.001713
0.005691
0.010483
0.517577
0.521663
0.533653
0.554706
0.586919
0.633482
0.698263
0.782881
0.880813
0.971830
0.890893
0.000000
-0.494754
-0.479727
-0.464919
-0.455107
-0.445067
-0.428363
-0.408539
-0.390719
-0.378870
-0.373806
-0.372420
-0.367292
-0.352282
-0.326133
-0.290163
-0.248350
-0.206410
-0.168442
-0.136783
-0.112533
-0.095634
-0.084980
-0.078776
-0.075046
-0.071818
-0.066353
-0.059940
-0.052617
-0.044657
-0.036587
-0.029094
-0.022970
-0.019132
-0.018656
-0.022653
-0.031747
-0.045302
-0.061086
-0.075901
-0.086788
-0.091843
-0.089441
-0.081629
-0.070163
-0.056803
-0.043088
-0.030234
-0.019115
-0.010306
-0.004146
-0.000793
-0.000225
-0.002187
-0.006123
-0.011185
-0.016362
-0.020715
-0.023111
-0.023498
-0.022300
-0.019995
-0.017165
-0.014389
-0.012201
-0.011077
-0.011438
-0.013639
-0.017904
-0.024222
-0.032251
-0.041284
-0.050335
-0.058318
-0.064263
-0.067498
-0.067325
-0.064327
-0.059145
-0.052584
-0.045460
-0.038481
-0.032196
-0.026973
-0.023029
-0.020461
-0.019279
-0.019434
-0.021746
0.530206
0.534206
0.545857
0.565967
0.595815
0.636944
0.690702
0.756559
0.822374
0.846558
0.809956
0.697291
0.000000
-0.452490
-0.425252
-0.403280
-0.390215
-0.379564
-0.374761
-0.380882
-0.399472
-0.425701
-0.451214
-0.462840
-0.450780
-0.410722
-0.358289
-0.299605
-0.240647
-0.186072
-0.138914
-0.100903
-0.072707
-0.053985
-0.043409
-0.038857
-0.037852
-0.037758
-0.036138
-0.033620
-0.030255
-0.026544
-0.023242
-0.021281
-0.021788
-0.026044
-0.035154
-0.049326
-0.067173
-0.085761
-0.101581
-0.111803
-0.113977
-0.107836
-0.096333
-0.081442
-0.065062
-0.048778
-0.033785
-0.020897
-0.010598
-0.003133
0.001420
0.003117
0.002179
-0.000934
-0.005486
-0.010541
-0.015142
-0.018491
-0.019851
-0.019651
-0.018290
-0.016319
-0.014321
-0.012855
-0.012430
-0.013499
-0.016434
-0.021462
-0.028558
-0.037358
-0.047134
-0.056875
-0.065470
-0.071914
-0.075282
-0.075214
-0.072341
-0.067351
-0.061117
-0.054524
-0.048350
-0.043208
-0.039536
-0.037628
-0.037680
-0.039832
-0.044198
-0.053622
0.535425
0.538909
0.548973
0.566066
0.590790
0.623486
0.663085
0.704725
0.735452
0.728923
0.667845
0.584626
0.422480
0.000000
-0.388727
-0.352201
-0.342503
-0.335116
-0.340447
-0.364481
-0.407933
-0.462598
-0.510637
-0.531563
-0.508067
-0.458701
-0.394348
-0.323480
-0.252910
-0.187594
-0.130700
-0.083982
-0.048159
-0.023129
-0.008020
-0.001154
-0.000180
-0.002533
-0.005596
-0.007548
-0.008623
-0.009334
-0.010513
-0.013235
-0.018813
-0.028619
-0.043530
-0.063134
-0.085253
-0.106373
-0.122775
-0.131697
-0.129929
-0.120434
-0.105660
-0.087898
-0.069134
-0.050937
-0.034429
-0.020325
-0.009015
-0.000648
0.004769
0.007327
0.007228
0.004851
0.000824
-0.004010
-0.008731
-0.012553
-0.014758
-0.015425
-0.014907
-0.013725
-0.012457
-0.011675
-0.011913
-0.013648
-0.017264
-0.022985
-0.030769
-0.040231
-0.050626
-0.060932
-0.070021
-0.076889
-0.080191
-0.080361
-0.077799
-0.073247
-0.067618
-0.061838
-0.056725
-0.052935
-0.050960
-0.051167
-0.053846
-0.059261
-0.067687
-0.083947
0.534194
0.536946
0.544809
0.557824
0.575841
0.598039
0.621961
0.641917
0.646864
0.619014
0.540887
0.404040
0.260334
-0.147384
-0.380554
-0.324035
-0.306240
-0.296176
-0.307810
-0.346020
-0.407324
-0.478528
-0.537514
-0.553376
-0.523270
-0.467965
-0.397757
-0.321597
-0.246385
-0.176889
-0.116014
-0.065261
-0.025195
0.004220
0.023528
0.033826
0.036826
0.034730
0.029723
0.024066
0.019297
0.014559
0.008913
0.001191
-0.009990
-0.025874
-0.046862
-0.071795
-0.097787
-0.120905
-0.137344
-0.143857
-0.138450
-0.126011
-0.108844
-0.089245
-0.069148
-0.050016
-0.032844
-0.018231
-0.006462
0.002387
0.008367
0.011590
0.012233
0.010597
0.007189
0.002742
-0.001889
-0.005935
-0.008668
-0.009963
-0.010095
-0.009544
-0.008876
-0.008670
-0.009478
-0.011790
-0.015998
-0.022311
-0.030664
-0.040651
-0.051514
-0.062224
-0.071635
-0.078661
-0.082107
-0.082633
-0.080622
-0.076815
-0.072125
-0.067472
-0.063676
-0.061407
-0.061191
-0.063451
-0.068570
-0.076936
-0.088988
-0.111410
0.527865
0.529762
0.535089
0.543592
0.554630
0.566760
0.577054
0.580126
0.567049
0.524558
0.435490
0.276993
0.001340
-0.555101
-0.437072
-0.323276
-0.282636
-0.272301
-0.290696
-0.336347
-0.402478
-0.473911
-0.526960
-0.528810
-0.497128
-0.442046
-0.373503
-0.299852
-0.227354
-0.160214
-0.100908
-0.050612
-0.009648
0.022109
0.044960
0.059396
0.066332
0.067148
0.063461
0.056900
0.050123
0.042226
0.032450
0.019761
0.002953
-0.018826
-0.045326
-0.074671
-0.103457
-0.127533
-0.143060
-0.145164
-0.137879
-0.123930
-0.105861
-0.085907
-0.065841
-0.046953
-0.030084
-0.015713
-0.004046
0.004894
0.011183
0.014937
0.016299
0.015488
0.012890
0.009099
0.004873
0.000961
-0.002016
-0.003663
-0.004209
-0.004091
-0.003857
-0.004087
-0.005343
-0.008125
-0.012814
-0.019597
-0.028380
-0.038732
-0.049889
-0.060834
-0.070459
-0.077452
-0.081172
-0.082272
-0.081109
-0.078392
-0.074989
-0.071767
-0.069505
-0.068849
-0.070331
-0.074420
-0.081575
-0.092308
-0.107226
-0.134612
0.518016
0.519062
0.521908
0.526137
0.530877
0.534497
0.534162
0.525284
0.500982
0.451674
0.364775
0.224156
0.010365
-0.254894
-0.296781
-0.276131
-0.262342
-0.264965
-0.288007
-0.331762
-0.389905
-0.447136
-0.474026
-0.470428
-0.440522
-0.391581
-0.331359
-0.266609
-0.202494
-0.142546
-0.088886
-0.042547
-0.003798
0.027551
0.051894
0.069601
0.080904
0.086201
0.086409
0.083927
0.077708
0.068130
0.055188
0.038353
0.016885
-0.009478
-0.039808
-0.071671
-0.101393
-0.124933
-0.137160
-0.136783
-0.128656
-0.114898
-0.097747
-0.079138
-0.060570
-0.043110
-0.027449
-0.013976
-0.002860
0.005877
0.012300
0.016504
0.018593
0.018716
0.017141
0.014321
0.010876
0.007480
0.004676
0.002996
0.002291
0.002182
0.002151
0.001625
0.000039
-0.003103
-0.008162
-0.015289
-0.024352
-0.034895
-0.046156
-0.057137
-0.066733
-0.073584
-0.077939
-0.079911
-0.079920
-0.078633
-0.076830
-0.075282
-0.074680
-0.075612
-0.078594
-0.084113
-0.092692
-0.104943
-0.121626
-0.152163
0.506224
0.506504
0.507150
0.507698
0.507249
0.504256
0.496276
0.479694
0.449538
0.399496
0.322301
0.211203
0.065635
-0.090625
-0.171138
-0.203789
-0.221980
-0.241909
-0.270731
-0.309449
-0.352534
-0.387233
-0.401772
-0.396216
-0.371612
-0.332326
-0.283700
-0.230731
-0.177455
-0.126776
-0.080552
-0.039790
-0.004862
0.024280
0.047914
0.066376
0.079959
0.088903
0.095508
0.098356
0.094647
0.085376
0.071284
0.052399
0.028558
0.000155
-0.031288
-0.062969
-0.091116
-0.111696
-0.119802
-0.119388
-0.112416
-0.100856
-0.086511
-0.070874
-0.055099
-0.040027
-0.026231
-0.014070
-0.003741
0.004679
0.011190
0.015832
0.018664
0.019782
0.019370
0.017755
0.015419
0.012915
0.010783
0.009428
0.008825
0.008687
0.008546
0.007846
0.006031
0.002622
-0.002709
-0.010060
-0.019252
-0.029807
-0.040983
-0.051850
-0.061176
-0.068321
-0.073411
-0.076504
-0.077976
-0.078396
-0.078411
-0.078654
-0.079697
-0.082051
-0.086188
-0.092599
-0.101837
-0.114566
-0.131634
-0.162864
0.493908
0.493540
0.492352
0.489924
0.485452
0.477626
0.464500
0.443399
0.410943
0.363299
0.296850
0.209735
0.105329
-0.002276
-0.081584
-0.133631
-0.170479
-0.202119
-0.234148
-0.267614
-0.299028
-0.321221
-0.330879
-0.326111
-0.307487
-0.277629
-0.240063
-0.198341
-0.155513
-0.113914
-0.075148
-0.040176
-0.009452
0.016938
0.039145
0.057452
0.072189
0.084205
0.093443
0.098083
0.097109
0.090352
0.077889
0.059887
0.036755
0.009512
-0.019884
-0.048518
-0.072949
-0.088017
-0.095185
-0.096146
-0.092199
-0.084672
-0.074720
-0.063295
-0.051189
-0.039050
-0.027397
-0.016629
-0.007039
0.001175
0.007894
0.013065
0.016684
0.018814
0.019584
0.019240
0.018159
0.016842
0.015750
0.015013
0.014748
0.014763
0.014646
0.013871
0.011902
0.008290
0.002763
-0.004708
-0.013882
-0.024264
-0.035148
-0.045643
-0.054886
-0.062606
-0.068660
-0.073119
-0.076271
-0.078544
-0.080421
-0.082382
-0.084874
-0.088323
-0.093159
-0.099861
-0.108967
-0.121104
-0.137073
-0.166022
0.482269
0.481364
0.478688
0.473929
0.466453
0.455239
0.438825
0.415327
0.382551
0.338304
0.280988
0.210644
0.130578
0.048874
-0.021377
-0.076905
-0.120968
-0.158071
-0.191326
-0.221462
-0.246732
-0.264162
-0.271849
-0.268683
-0.255093
-0.232772
-0.204103
-0.171613
-0.137586
-0.103861
-0.071767
-0.042154
-0.015471
0.008137
0.028737
0.046523
0.061743
0.074879
0.084876
0.090890
0.092089
0.087990
0.078386
0.063383
0.043581
0.020282
-0.004413
-0.027783
-0.046292
-0.058997
-0.066996
-0.070923
-0.071511
-0.069332
-0.064781
-0.058223
-0.050106
-0.040952
-0.031297
-0.021657
-0.012487
-0.004167
0.003032
0.008920
0.013404
0.016560
0.018470
0.019409
0.019677
0.019587
0.019390
0.019362
0.019577
0.019868
0.019861
0.019064
0.016971
0.013179
0.007491
-0.000020
-0.009033
-0.019047
-0.029453
-0.039633
-0.049082
-0.057517
-0.064750
-0.070743
-0.075632
-0.079683
-0.083216
-0.086574
-0.090108
-0.094193
-0.099219
-0.105669
-0.114024
-0.124732
-0.138340
-0.161908
0.472304
0.470925
0.467005
0.460405
0.450703
0.437154
0.418710
0.394082
0.361894
0.320944
0.270642
0.211623
0.146447
0.079927
0.018406
-0.034969
-0.080278
-0.118973
-0.152344
-0.180705
-0.203246
-0.218726
-0.225878
-0.224321
-0.214535
-0.197775
-0.175774
-0.150404
-0.123403
-0.096200
-0.069846
-0.045015
-0.022060
-0.001097
0.017915
0.035077
0.050462
0.063900
0.074644
0.082041
0.085374
0.084087
0.077898
0.066921
0.051824
0.033913
0.015082
-0.002431
-0.017481
-0.029756
-0.039559
-0.047319
-0.053222
-0.057032
-0.058272
-0.056639
-0.052273
-0.045674
-0.037490
-0.028430
-0.019166
-0.010333
-0.002334
0.004508
0.010085
0.014336
0.017378
0.019362
0.020582
0.021357
0.021960
0.022585
0.023267
0.023836
0.023932
0.023083
0.020819
0.016794
0.010908
0.003395
-0.005320
-0.014898
-0.024833
-0.034768
-0.044559
-0.053922
-0.062490
-0.070003
-0.076419
-0.081867
-0.086554
-0.090740
-0.094738
-0.098974
-0.103735
-0.109570
-0.116885
-0.125876
-0.136591
-0.152389
0.464892
0.462992
0.457885
0.449727
0.438316
0.423137
0.403440
0.378356
0.347028
0.308827
0.263636
0.212196
0.156404
0.099312
0.044532
-0.005447
-0.049667
-0.088118
-0.121009
-0.148286
-0.169522
-0.184032
-0.191133
-0.190859
-0.183783
-0.170978
-0.153837
-0.133842
-0.112361
-0.090504
-0.069054
-0.048474
-0.028949
-0.010472
0.007067
0.023746
0.039347
0.053282
0.065055
0.074055
0.079625
0.081213
0.078524
0.071679
0.061340
0.048658
0.035076
0.021174
0.008192
-0.003947
-0.015677
-0.027340
-0.038702
-0.048669
-0.055641
-0.058458
-0.057056
-0.052157
-0.044606
-0.035454
-0.025524
-0.015766
-0.006881
0.000937
0.007482
0.012666
0.016575
0.019392
0.021389
0.022865
0.024082
0.025192
0.026205
0.026950
0.027042
0.026018
0.023429
0.019001
0.012728
0.004922
-0.003719
-0.012627
-0.021828
-0.031540
-0.041803
-0.052217
-0.062085
-0.070819
-0.078214
-0.084383
-0.089530
-0.093897
-0.097691
-0.101732
-0.106378
-0.111740
-0.118057
-0.125450
-0.133561
-0.142178
0.461008
0.458217
0.451674
0.442013
0.429194
0.412820
0.392317
0.367072
0.336545
0.300420
0.258788
0.212346
0.162525
0.111421
0.061425
0.014518
-0.028046
-0.065599
-0.097745
-0.124153
-0.144599
-0.158460
-0.165560
-0.166157
-0.160914
-0.150846
-0.137178
-0.121169
-0.103941
-0.086363
-0.068995
-0.052094
-0.035670
-0.019542
-0.003391
0.013119
0.029106
0.043985
0.057172
0.067982
0.075747
0.079916
0.080191
0.076706
0.070153
0.061564
0.051170
0.040164
0.028871
0.016888
0.003570
-0.011519
-0.027943
-0.043808
-0.056075
-0.062314
-0.062435
-0.058152
-0.050294
-0.040283
-0.029983
-0.019630
-0.009808
-0.001096
0.006245
0.012148
0.016702
0.020102
0.022617
0.024551
0.026172
0.027588
0.028781
0.029617
0.029572
0.028114
0.024766
0.019328
0.012131
0.004003
-0.004308
-0.012474
-0.020865
-0.030155
-0.040645
-0.051842
-0.062664
-0.072104
-0.079769
-0.085861
-0.090755
-0.095143
-0.099229
-0.103083
-0.107308
-0.112267
-0.118082
-0.124619
-0.131435
-0.136791
0.462332
0.457091
0.448385
0.437121
0.423086
0.405818
0.384756
0.359438
0.329501
0.294786
0.255467
0.212169
0.166026
0.118621
0.071760
0.027116
-0.013998
-0.050636
-0.082027
-0.107781
-0.127628
-0.141073
-0.148181
-0.149350
-0.145304
-0.137032
-0.125665
-0.112326
-0.097982
-0.083349
-0.068840
-0.054588
-0.040521
-0.026418
-0.011789
0.004304
0.020777
0.036944
0.051801
0.064431
0.074085
0.080199
0.082464
0.081026
0.076844
0.070250
0.061985
0.052838
0.042620
0.030779
0.016580
-0.000529
-0.020236
-0.040427
-0.056942
-0.065537
-0.065115
-0.059809
-0.052378
-0.042829
-0.031802
-0.020741
-0.010389
-0.001223
0.006521
0.012787
0.017662
0.021330
0.024053
0.026144
0.027970
0.029529
0.030760
0.031301
0.030854
0.028893
0.024920
0.018716
0.010688
0.001860
-0.006666
-0.014432
-0.021975
-0.030338
-0.040149
-0.051076
-0.062023
-0.071825
-0.079868
-0.086224
-0.091384
-0.095523
-0.099368
-0.103206
-0.107364
-0.112227
-0.117934
-0.124439
-0.131242
-0.137322
0.473363
0.459287
0.447472
0.434820
0.419945
0.402054
0.380660
0.355316
0.325725
0.291789
0.253695
0.212002
0.167686
0.122097
0.076796
0.033320
-0.007018
-0.043238
-0.074710
-0.100641
-0.120302
-0.133639
-0.140813
-0.142274
-0.138758
-0.131228
-0.120762
-0.108418
-0.095101
-0.081470
-0.067897
-0.054488
-0.041152
-0.027694
-0.013874
0.000307
0.016763
0.033853
0.049849
0.063540
0.074103
0.080983
0.083880
0.082849
0.078246
0.071629
0.064037
0.055471
0.045671
0.034095
0.020095
0.003253
-0.016072
-0.036016
-0.052955
-0.062979
-0.065003
-0.060046
-0.051798
-0.041972
-0.031116
-0.020163
-0.009862
-0.000702
0.007068
0.013380
0.018304
0.022007
0.024726
0.026742
0.028263
0.029619
0.030637
0.030996
0.030314
0.028139
0.024063
0.017930
0.010076
0.001349
-0.007283
-0.015335
-0.023132
-0.031459
-0.040844
-0.051094
-0.061413
-0.070887
-0.078948
-0.085525
-0.090892
-0.095376
-0.099375
-0.103362
-0.107734
-0.112682
-0.118353
-0.124710
-0.131515
-0.138870
