# vtk DataFile Version 3.0
Scalar Field
ASCII
DATASET RECTILINEAR_GRID
DIMENSIONS 100 26 1
X_COORDINATES 100 double
0.050000 0.150000 0.250000 0.350000 0.450000 0.550000 0.650000 0.750000 0.850000 0.950000 1.050000 1.150000 1.250000 1.350000 1.450000 1.550000 1.650000 1.750000 1.850000 1.950000 2.050000 2.150000 2.250000 2.350000 2.450000 2.550000 2.650000 2.750000 2.850000 2.950000 3.050000 3.150000 3.250000 3.350000 3.450000 3.550000 3.650000 3.750000 3.850000 3.950000 4.050000 4.150000 4.250000 4.350000 4.450000 4.550000 4.650000 4.750000 4.850000 4.950000 5.050000 5.150000 5.250000 5.350000 5.450000 5.550000 5.650000 5.750000 5.850000 5.950000 6.050000 6.150000 6.250000 6.350000 6.450000 6.550000 6.650000 6.750000 6.850000 6.950000 7.050000 7.150000 7.250000 7.350000 7.450000 7.550000 7.650000 7.750000 7.850000 7.950000 8.050000 8.150000 8.250000 8.350000 8.450000 8.550000 8.650000 8.750000 8.850000 8.950000 9.050000 9.150000 9.250000 9.350000 9.450000 9.550000 9.650000 9.750000 9.850000 9.950000 
Y_COORDINATES 26 double
0.050000 0.150000 0.250000 0.350000 0.450000 0.550000 0.650000 0.750000 0.850000 0.950000 1.050000 1.150000 1.250000 1.350000 1.450000 1.550000 1.650000 1.750000 1.850000 1.950000 2.050000 2.150000 2.250000 2.350000 2.450000 2.550000 
Z_COORDINATES 1 double
0.0
POINT_DATA 2600
SCALARS Skalarfeld double 1
LOOKUP_TABLE default
0.279807
0.264791
0.250354
0.233465
0.213001
0.188519
0.159965
0.127664
0.092356
0.055197
0.017654
-0.018742
-0.052656
-0.083121
-0.109586
-0.131872
-0.150100
-0.163987
-0.173706
-0.179362
-0.181055
-0.178972
-0.173463
-0.165097
-0.154646
-0.143021
-0.131163
-0.119922
-0.109932
-0.101527
-0.094689
-0.089073
-0.084094
-0.079094
-0.073521
-0.067061
-0.059650
-0.051567
-0.042190
-0.032837
-0.024342
-0.017030
-0.010931
-0.005931
-0.001864
0.001440
0.004130
0.006327
0.008123
0.009585
0.010758
0.011676
0.012360
0.012829
0.013100
0.013188
0.013110
0.012882
0.012521
0.012046
0.011473
0.010817
0.010091
0.009309
0.008482
0.007618
0.006726
0.005812
0.004881
0.003937
0.002985
0.002026
0.001063
0.000097
-0.000870
-0.001838
-0.002806
-0.003773
-0.004740
-0.005706
-0.006672
-0.007638
-0.008603
-0.009569
-0.010537
-0.011506
-0.012478
-0.013454
-0.014436
-0.015426
-0.016426
-0.017439
-0.018470
-0.019524
-0.020607
-0.021729
-0.022902
-0.024143
-0.025471
-0.026190
0.270482
0.264274
0.252819
0.237121
0.217058
0.192422
0.163198
0.129719
0.092809
0.053828
0.014555
-0.023206
-0.057995
-0.088865
-0.115366
-0.137409
-0.155020
-0.168657
-0.178388
-0.184159
-0.185991
-0.183986
-0.178427
-0.169849
-0.159029
-0.146914
-0.134495
-0.122667
-0.112104
-0.103163
-0.095836
-0.089773
-0.084381
-0.079000
-0.073085
-0.066312
-0.058471
-0.049315
-0.040262
-0.031423
-0.023414
-0.016482
-0.010658
-0.005847
-0.001904
0.001322
0.003969
0.006146
0.007938
0.009406
0.010591
0.011522
0.012221
0.012704
0.012988
0.013087
0.013018
0.012799
0.012446
0.011978
0.011411
0.010760
0.010040
0.009263
0.008440
0.007581
0.006692
0.005782
0.004854
0.003913
0.002964
0.002007
0.001046
0.000083
-0.000883
-0.001849
-0.002815
-0.003781
-0.004746
-0.005711
-0.006676
-0.007640
-0.008603
-0.009568
-0.010533
-0.011499
-0.012469
-0.013441
-0.014418
-0.015402
-0.016394
-0.017397
-0.018414
-0.019448
-0.020504
-0.021586
-0.022699
-0.023844
-0.025017
-0.025852
0.272620
0.268775
0.259236
0.244613
0.224878
0.199789
0.169203
0.133363
0.093188
0.050436
0.007620
-0.032840
-0.069247
-0.100745
-0.127164
-0.148769
-0.166012
-0.179386
-0.189229
-0.195537
-0.197984
-0.196454
-0.191036
-0.182156
-0.170575
-0.157296
-0.143391
-0.129843
-0.117403
-0.106497
-0.097195
-0.089241
-0.082156
-0.075381
-0.068434
-0.061000
-0.052950
-0.044380
-0.035791
-0.027913
-0.020853
-0.014701
-0.009482
-0.005121
-0.001500
0.001504
0.004004
0.006089
0.007828
0.009268
0.010443
0.011373
0.012076
0.012566
0.012856
0.012961
0.012899
0.012686
0.012339
0.011876
0.011315
0.010670
0.009956
0.009185
0.008368
0.007514
0.006631
0.005726
0.004803
0.003867
0.002922
0.001970
0.001013
0.000053
-0.000909
-0.001871
-0.002835
-0.003798
-0.004760
-0.005722
-0.006684
-0.007645
-0.008606
-0.009566
-0.010527
-0.011490
-0.012453
-0.013419
-0.014388
-0.015361
-0.016340
-0.017325
-0.018318
-0.019321
-0.020334
-0.021355
-0.022380
-0.023393
-0.024357
-0.025240
0.281879
0.278816
0.270357
0.256530
0.236979
0.211117
0.178406
0.138780
0.093191
0.044022
-0.004613
-0.049150
-0.087635
-0.119551
-0.145307
-0.165793
-0.182034
-0.194897
-0.204821
-0.211919
-0.215374
-0.214632
-0.209433
-0.200030
-0.187194
-0.172045
-0.155815
-0.139630
-0.124361
-0.110543
-0.098363
-0.087708
-0.078259
-0.069610
-0.061387
-0.053329
-0.045334
-0.037468
-0.029975
-0.023140
-0.017080
-0.011842
-0.007386
-0.003631
-0.000476
0.002183
0.004433
0.006345
0.007967
0.009333
0.010460
0.011361
0.012046
0.012524
0.012806
0.012904
0.012836
0.012618
0.012268
0.011802
0.011239
0.010594
0.009881
0.009111
0.008297
0.007446
0.006567
0.005666
0.004747
0.003816
0.002875
0.001927
0.000974
0.000018
-0.000940
-0.001899
-0.002859
-0.003819
-0.004778
-0.005737
-0.006695
-0.007652
-0.008609
-0.009566
-0.010522
-0.011479
-0.012436
-0.013393
-0.014352
-0.015313
-0.016276
-0.017242
-0.018210
-0.019179
-0.020148
-0.021111
-0.022059
-0.022973
-0.023820
-0.024694
0.296779
0.294130
0.286510
0.273502
0.254259
0.227551
0.192032
0.146846
0.092697
0.032763
-0.024986
-0.074999
-0.115451
-0.146803
-0.170561
-0.188622
-0.202867
-0.214790
-0.225085
-0.233390
-0.238606
-0.239160
-0.234213
-0.223801
-0.208833
-0.190746
-0.171104
-0.151298
-0.132381
-0.115017
-0.099508
-0.085859
-0.073880
-0.063284
-0.053776
-0.045124
-0.037184
-0.029916
-0.023357
-0.017565
-0.012552
-0.008283
-0.004664
-0.001587
0.001031
0.003271
0.005206
0.006888
0.008348
0.009602
0.010653
0.011502
0.012150
0.012600
0.012858
0.012937
0.012851
0.012617
0.012252
0.011775
0.011202
0.010549
0.009830
0.009057
0.008241
0.007390
0.006511
0.005612
0.004695
0.003767
0.002829
0.001884
0.000935
-0.000018
-0.000973
-0.001929
-0.002885
-0.003842
-0.004798
-0.005753
-0.006707
-0.007661
-0.008614
-0.009566
-0.010517
-0.011467
-0.012417
-0.013367
-0.014315
-0.015263
-0.016211
-0.017156
-0.018099
-0.019038
-0.019967
-0.020882
-0.021771
-0.022620
-0.023405
-0.024260
0.316540
0.314310
0.307734
0.296034
0.277768
0.250738
0.212126
0.159265
0.091645
0.012814
-0.058773
-0.114891
-0.155668
-0.183983
-0.203174
-0.216538
-0.227156
-0.237498
-0.248737
-0.259977
-0.268526
-0.271521
-0.267079
-0.254987
-0.236599
-0.214051
-0.189538
-0.164890
-0.141416
-0.119913
-0.100755
-0.084004
-0.069519
-0.057057
-0.046342
-0.037120
-0.029182
-0.022373
-0.016581
-0.011714
-0.007668
-0.004324
-0.001548
0.000789
0.002825
0.004620
0.006209
0.007633
0.008907
0.010029
0.010989
0.011774
0.012373
0.012782
0.013007
0.013055
0.012940
0.012680
0.012291
0.011794
0.011203
0.010536
0.009806
0.009024
0.008201
0.007346
0.006465
0.005565
0.004649
0.003721
0.002785
0.001842
0.000895
-0.000055
-0.001006
-0.001959
-0.002913
-0.003866
-0.004818
-0.005770
-0.006721
-0.007671
-0.008620
-0.009567
-0.010513
-0.011457
-0.012400
-0.013340
-0.014279
-0.015214
-0.016146
-0.017074
-0.017994
-0.018905
-0.019801
-0.020677
-0.021524
-0.022330
-0.023079
-0.023921
0.340372
0.338735
0.333765
0.324410
0.308624
0.282940
0.242105
0.179502
0.090246
-0.024464
-0.115332
-0.174631
-0.210702
-0.231249
-0.241801
-0.247045
-0.251445
-0.258925
-0.271770
-0.288974
-0.304719
-0.312357
-0.309112
-0.294513
-0.271029
-0.242145
-0.211084
-0.180285
-0.151345
-0.125158
-0.102100
-0.082203
-0.065293
-0.051089
-0.039272
-0.029526
-0.021563
-0.015125
-0.009985
-0.005938
-0.002781
-0.000318
0.001642
0.003269
0.004702
0.006055
0.007297
0.008463
0.009553
0.010547
0.011418
0.012138
0.012686
0.013052
0.013236
0.013245
0.013093
0.012798
0.012378
0.011852
0.011237
0.010550
0.009802
0.009008
0.008175
0.007313
0.006427
0.005524
0.004606
0.003678
0.002743
0.001802
0.000857
-0.000091
-0.001040
-0.001990
-0.002941
-0.003891
-0.004840
-0.005789
-0.006736
-0.007682
-0.008627
-0.009569
-0.010510
-0.011448
-0.012384
-0.013316
-0.014245
-0.015169
-0.016087
-0.016997
-0.017898
-0.018786
-0.019656
-0.020502
-0.021319
-0.022096
-0.022824
-0.023658
0.367171
0.366387
0.363843
0.358398
0.347640
0.326889
0.287502
0.214978
0.089414
-0.099448
-0.209088
-0.257610
-0.278700
-0.285222
-0.282767
-0.276222
-0.271085
-0.273084
-0.286561
-0.311751
-0.341560
-0.358313
-0.357652
-0.339715
-0.309450
-0.272599
-0.233762
-0.196030
-0.161210
-0.130193
-0.103268
-0.080366
-0.061216
-0.045452
-0.032675
-0.022487
-0.014515
-0.008414
-0.003864
-0.000568
0.001760
0.003392
0.004579
0.005534
0.006419
0.007353
0.008282
0.009223
0.010164
0.011063
0.011871
0.012545
0.013054
0.013381
0.013525
0.013492
0.013297
0.012961
0.012503
0.011942
0.011297
0.010584
0.009816
0.009005
0.008160
0.007288
0.006395
0.005487
0.004567
0.003638
0.002702
0.001762
0.000818
-0.000128
-0.001075
-0.002023
-0.002970
-0.003917
-0.004864
-0.005809
-0.006753
-0.007695
-0.008636
-0.009574
-0.010510
-0.011442
-0.012371
-0.013296
-0.014216
-0.015129
-0.016035
-0.016931
-0.017815
-0.018684
-0.019533
-0.020358
-0.021153
-0.021910
-0.022625
-0.023456
0.395347
0.395684
0.396427
0.396698
0.394392
0.384638
0.356076
0.282164
0.096047
-0.262741
-0.353189
-0.352226
-0.346740
-0.336766
-0.320795
-0.301904
-0.285629
-0.279197
-0.289545
-0.319169
-0.361454
-0.398315
-0.402002
-0.380451
-0.342903
-0.298134
-0.252088
-0.208265
-0.168477
-0.133484
-0.103433
-0.078136
-0.057227
-0.040263
-0.026773
-0.016296
-0.008391
-0.002644
0.001336
0.003923
0.005477
0.006340
0.006822
0.007180
0.007603
0.008196
0.008887
0.009693
0.010571
0.011451
0.012259
0.012932
0.013432
0.013738
0.013848
0.013775
0.013537
0.013155
0.012654
0.012054
0.011375
0.010633
0.009841
0.009011
0.008150
0.007267
0.006366
0.005453
0.004529
0.003598
0.002661
0.001721
0.000779
-0.000166
-0.001111
-0.002056
-0.003001
-0.003945
-0.004889
-0.005831
-0.006772
-0.007711
-0.008647
-0.009581
-0.010512
-0.011440
-0.012363
-0.013281
-0.014193
-0.015098
-0.015993
-0.016877
-0.017748
-0.018602
-0.019435
-0.020244
-0.021024
-0.021769
-0.022475
-0.023305
0.422826
0.424436
0.429003
0.436316
0.445581
0.454108
0.453172
0.413137
0.199415
-0.567545
-0.523571
-0.412947
-0.388585
-0.371657
-0.349129
-0.325037
-0.304699
-0.293887
-0.299623
-0.325179
-0.366709
-0.408902
-0.426099
-0.401545
-0.358242
-0.308304
-0.258235
-0.211402
-0.169337
-0.132574
-0.101125
-0.074739
-0.053033
-0.035554
-0.021825
-0.011366
-0.003711
0.001589
0.004970
0.006865
0.007696
0.007871
0.007753
0.007642
0.007753
0.008120
0.008733
0.009579
0.010559
0.011559
0.012473
0.013224
0.013765
0.014082
0.014178
0.014072
0.013791
0.013364
0.012818
0.012176
0.011460
0.010687
0.009870
0.009019
0.008143
0.007248
0.006338
0.005418
0.004491
0.003557
0.002620
0.001680
0.000738
-0.000204
-0.001147
-0.002091
-0.003033
-0.003975
-0.004916
-0.005855
-0.006793
-0.007728
-0.008662
-0.009592
-0.010519
-0.011442
-0.012360
-0.013272
-0.014178
-0.015075
-0.015962
-0.016837
-0.017697
-0.018540
-0.019362
-0.020160
-0.020929
-0.021666
-0.022367
-0.023198
0.447264
0.450064
0.458249
0.472440
0.493704
0.523499
0.563092
0.610156
0.700820
0.066637
-0.461277
-0.398983
-0.393766
-0.388827
-0.370748
-0.350070
-0.336160
-0.328325
-0.330723
-0.346894
-0.373658
-0.400576
-0.411708
-0.393341
-0.347059
-0.296313
-0.246752
-0.201159
-0.160524
-0.125059
-0.094657
-0.069080
-0.048013
-0.031088
-0.017891
-0.007993
-0.000954
0.003668
0.006325
0.007484
0.007619
0.007190
0.006610
0.006213
0.006240
0.006580
0.007419
0.008598
0.009932
0.011251
0.012419
0.013351
0.014004
0.014374
0.014480
0.014356
0.014040
0.013569
0.012978
0.012295
0.011542
0.010738
0.009895
0.009024
0.008132
0.007225
0.006307
0.005382
0.004450
0.003515
0.002577
0.001637
0.000696
-0.000245
-0.001186
-0.002127
-0.003067
-0.004007
-0.004945
-0.005881
-0.006816
-0.007749
-0.008679
-0.009606
-0.010530
-0.011449
-0.012363
-0.013271
-0.014171
-0.015062
-0.015943
-0.016811
-0.017664
-0.018499
-0.019313
-0.020103
-0.020866
-0.021599
-0.022298
-0.023131
0.466478
0.470113
0.480818
0.499728
0.529021
0.572504
0.636796
0.732826
0.863805
0.884341
0.000000
-0.394905
-0.390826
-0.390315
-0.386921
-0.384263
-0.384285
-0.385057
-0.388767
-0.393573
-0.396749
-0.393071
-0.381351
-0.350618
-0.311063
-0.262777
-0.217333
-0.176572
-0.140734
-0.109541
-0.082708
-0.060019
-0.041280
-0.026255
-0.014650
-0.006125
-0.000311
0.003195
0.004835
0.005097
0.004492
0.003533
0.002673
0.002256
0.002451
0.003308
0.004825
0.006700
0.008665
0.010505
0.012072
0.013284
0.014115
0.014581
0.014725
0.014598
0.014256
0.013749
0.013117
0.012396
0.011609
0.010775
0.009909
0.009019
0.008113
0.007196
0.006271
0.005340
0.004406
0.003469
0.002531
0.001592
0.000652
-0.000287
-0.001227
-0.002165
-0.003103
-0.004040
-0.004976
-0.005910
-0.006842
-0.007772
-0.008699
-0.009624
-0.010545
-0.011461
-0.012372
-0.013276
-0.014173
-0.015061
-0.015937
-0.016801
-0.017649
-0.018479
-0.019289
-0.020075
-0.020834
-0.021565
-0.022264
-0.023100
0.478939
0.482885
0.494471
0.514797
0.545810
0.590358
0.651740
0.731809
0.825073
0.904877
0.807936
0.000000
-0.392938
-0.395050
-0.403517
-0.420615
-0.443545
-0.465763
-0.476773
-0.466631
-0.439168
-0.400363
-0.355296
-0.305532
-0.259223
-0.213438
-0.173632
-0.139554
-0.110628
-0.085848
-0.064590
-0.046608
-0.031826
-0.020143
-0.011382
-0.005296
-0.001585
0.000116
0.000247
-0.000679
-0.002101
-0.003457
-0.004269
-0.004225
-0.003212
-0.001207
0.001399
0.004238
0.007007
0.009481
0.011519
0.013059
0.014101
0.014688
0.014886
0.014771
0.014414
0.013879
0.013215
0.012462
0.011646
0.010788
0.009903
0.008998
0.008081
0.007156
0.006226
0.005292
0.004356
0.003419
0.002481
0.001543
0.000605
-0.000332
-0.001269
-0.002205
-0.003141
-0.004075
-0.005008
-0.005940
-0.006870
-0.007798
-0.008723
-0.009645
-0.010564
-0.011478
-0.012387
-0.013290
-0.014184
-0.015070
-0.015944
-0.016806
-0.017652
-0.018480
-0.019288
-0.020072
-0.020831
-0.021562
-0.022262
-0.023102
0.484081
0.487816
0.498704
0.517527
0.545545
0.584265
0.634662
0.694221
0.748229
0.761483
0.710995
0.587086
0.000000
-0.409843
-0.424636
-0.466196
-0.518070
-0.562489
-0.580850
-0.550977
-0.490639
-0.415981
-0.339153
-0.267969
-0.208079
-0.159431
-0.121022
-0.093439
-0.072072
-0.054781
-0.040297
-0.028277
-0.018770
-0.011788
-0.007209
-0.004815
-0.004305
-0.005287
-0.007257
-0.009625
-0.011784
-0.013159
-0.013352
-0.011956
-0.009277
-0.005827
-0.002001
0.001835
0.005388
0.008455
0.010923
0.012760
0.013993
0.014692
0.014946
0.014850
0.014489
0.013937
0.013252
0.012477
0.011642
0.010768
0.009869
0.008955
0.008032
0.007102
0.006170
0.005235
0.004299
0.003363
0.002427
0.001491
0.000555
-0.000380
-0.001314
-0.002248
-0.003181
-0.004113
-0.005043
-0.005973
-0.006901
-0.007827
-0.008750
-0.009671
-0.010588
-0.011501
-0.012409
-0.013311
-0.014205
-0.015090
-0.015964
-0.016826
-0.017672
-0.018501
-0.019310
-0.020096
-0.020856
-0.021589
-0.022292
-0.023136
0.482309
0.485498
0.494699
0.510262
0.532586
0.561666
0.595997
0.630111
0.650497
0.632335
0.557803
0.463177
0.287036
0.000000
-0.485443
-0.546250
-0.595634
-0.654802
-0.665910
-0.614144
-0.526878
-0.425016
-0.324066
-0.234465
-0.161721
-0.106409
-0.068153
-0.043390
-0.028004
-0.018243
-0.010851
-0.005293
-0.001891
-0.000734
-0.001628
-0.004218
-0.008045
-0.012533
-0.016989
-0.020691
-0.023103
-0.023759
-0.021916
-0.018495
-0.014199
-0.009429
-0.004568
0.000055
0.004188
0.007671
0.010430
0.012462
0.013821
0.014596
0.014892
0.014814
0.014458
0.013902
0.013210
0.012427
0.011585
0.010705
0.009802
0.008886
0.007961
0.007032
0.006100
0.005167
0.004234
0.003301
0.002367
0.001435
0.000502
-0.000430
-0.001361
-0.002292
-0.003222
-0.004152
-0.005080
-0.006008
-0.006934
-0.007858
-0.008780
-0.009700
-0.010617
-0.011529
-0.012437
-0.013339
-0.014234
-0.015121
-0.015997
-0.016861
-0.017710
-0.018542
-0.019355
-0.020145
-0.020909
-0.021646
-0.022353
-0.023202
0.474632
0.477025
0.483823
0.494974
0.510154
0.528281
0.546579
0.559013
0.554341
0.514911
0.422657
0.268539
0.110896
-0.338790
-0.619291
-0.561947
-0.623415
-0.697702
-0.688904
-0.622746
-0.522734
-0.409762
-0.299198
-0.201294
-0.121745
-0.062452
-0.022597
0.001322
0.013966
0.019370
0.020400
0.020101
0.017300
0.011951
0.004610
-0.003952
-0.012862
-0.021153
-0.027827
-0.032013
-0.033726
-0.031474
-0.027498
-0.022533
-0.017028
-0.011365
-0.005878
-0.000836
0.003569
0.007222
0.010086
0.012184
0.013586
0.014390
0.014708
0.014648
0.014305
0.013761
0.013079
0.012303
0.011468
0.010595
0.009698
0.008787
0.007868
0.006944
0.006017
0.005089
0.004161
0.003232
0.002303
0.001374
0.000446
-0.000483
-0.001411
-0.002338
-0.003266
-0.004193
-0.005119
-0.006044
-0.006969
-0.007892
-0.008813
-0.009732
-0.010649
-0.011562
-0.012471
-0.013375
-0.014273
-0.015162
-0.016042
-0.016911
-0.017766
-0.018604
-0.019423
-0.020219
-0.020990
-0.021733
-0.022445
-0.023299
0.462523
0.464028
0.468201
0.474707
0.482769
0.490757
0.495521
0.491450
0.469423
0.415908
0.312901
0.135979
-0.166776
-0.788475
-0.676636
-0.575023
-0.622993
-0.663776
-0.639482
-0.572051
-0.477464
-0.371984
-0.268381
-0.175340
-0.097928
-0.038476
0.002719
0.027585
0.040268
0.045735
0.045327
0.041929
0.034069
0.022496
0.008724
-0.005679
-0.019168
-0.030298
-0.037870
-0.040830
-0.038571
-0.034580
-0.029399
-0.023586
-0.017540
-0.011579
-0.005968
-0.000913
0.003445
0.007031
0.009830
0.011881
0.013257
0.014056
0.014383
0.014343
0.014026
0.013510
0.012854
0.012104
0.011290
0.010436
0.009556
0.008659
0.007751
0.006838
0.005920
0.005000
0.004079
0.003156
0.002233
0.001310
0.000386
-0.000538
-0.001462
-0.002386
-0.003311
-0.004235
-0.005159
-0.006082
-0.007005
-0.007927
-0.008848
-0.009768
-0.010685
-0.011600
-0.012511
-0.013418
-0.014319
-0.015213
-0.016099
-0.016975
-0.017837
-0.018684
-0.019513
-0.020319
-0.021099
-0.021851
-0.022570
-0.023429
0.447627
0.448276
0.449961
0.452201
0.454024
0.453668
0.448145
0.432708
0.400296
0.341020
0.241559
0.084211
-0.154402
-0.458816
-0.523670
-0.531561
-0.558532
-0.565107
-0.540432
-0.485646
-0.410027
-0.324706
-0.239317
-0.160898
-0.093900
-0.040620
-0.001592
0.024356
0.039913
0.048015
0.053380
0.050118
0.039652
0.024384
0.006843
-0.010609
-0.025769
-0.036998
-0.041670
-0.040967
-0.037780
-0.033203
-0.027820
-0.022046
-0.016197
-0.010527
-0.005247
-0.000517
0.003552
0.006903
0.009530
0.011468
0.012785
0.013566
0.013907
0.013899
0.013625
0.013154
0.012543
0.011833
0.011055
0.010232
0.009377
0.008502
0.007613
0.006715
0.005810
0.004901
0.003989
0.003075
0.002159
0.001242
0.000324
-0.000595
-0.001515
-0.002436
-0.003356
-0.004278
-0.005199
-0.006121
-0.007043
-0.007964
-0.008885
-0.009805
-0.010724
-0.011640
-0.012555
-0.013465
-0.014372
-0.015273
-0.016167
-0.017052
-0.017925
-0.018784
-0.019625
-0.020444
-0.021238
-0.022000
-0.022729
-0.023594
0.431530
0.431429
0.430961
0.429620
0.426432
0.419764
0.407073
0.384639
0.347370
0.288763
0.201161
0.077074
-0.085396
-0.264638
-0.365422
-0.416397
-0.446036
-0.450904
-0.434260
-0.396185
-0.341970
-0.278818
-0.213619
-0.151872
-0.097381
-0.052326
-0.017442
0.007845
0.025158
0.036724
0.042119
0.039892
0.030977
0.017272
0.001264
-0.014298
-0.026814
-0.033799
-0.036052
-0.035307
-0.032602
-0.028688
-0.024056
-0.019054
-0.013954
-0.008978
-0.004310
-0.000094
0.003568
0.006618
0.009041
0.010859
0.012123
0.012902
0.013275
0.013320
0.013109
0.012703
0.012154
0.011499
0.010770
0.009988
0.009168
0.008321
0.007456
0.006577
0.005689
0.004794
0.003893
0.002989
0.002081
0.001171
0.000259
-0.000654
-0.001569
-0.002485
-0.003403
-0.004321
-0.005241
-0.006160
-0.007081
-0.008002
-0.008923
-0.009844
-0.010764
-0.011684
-0.012602
-0.013518
-0.014431
-0.015340
-0.016243
-0.017140
-0.018027
-0.018901
-0.019759
-0.020596
-0.021407
-0.022185
-0.022925
-0.023798
0.415622
0.414900
0.412680
0.408510
0.401540
0.390404
0.373099
0.346899
0.308376
0.253641
0.178991
0.082423
-0.032851
-0.153031
-0.243401
-0.302400
-0.337238
-0.349754
-0.343324
-0.320040
-0.283621
-0.238953
-0.190960
-0.143847
-0.100750
-0.063658
-0.033478
-0.010172
0.006999
0.019101
0.025039
0.024856
0.019259
0.009744
-0.001607
-0.012481
-0.020807
-0.025700
-0.027860
-0.027812
-0.026151
-0.023378
-0.019875
-0.015933
-0.011790
-0.007647
-0.003672
-0.000006
0.003245
0.006011
0.008260
0.009994
0.011242
0.012055
0.012492
0.012618
0.012494
0.012172
0.011701
0.011116
0.010445
0.009713
0.008934
0.008122
0.007284
0.006429
0.005559
0.004680
0.003792
0.002899
0.002001
0.001099
0.000194
-0.000714
-0.001623
-0.002535
-0.003449
-0.004365
-0.005282
-0.006200
-0.007119
-0.008040
-0.008961
-0.009883
-0.010806
-0.011729
-0.012651
-0.013573
-0.014494
-0.015412
-0.016327
-0.017238
-0.018141
-0.019035
-0.019914
-0.020774
-0.021608
-0.022408
-0.023165
-0.024046
0.401055
0.399827
0.396214
0.389880
0.380166
0.366019
0.345957
0.318087
0.280233
0.230250
0.166639
0.089612
0.002779
-0.085261
-0.159700
-0.215041
-0.251422
-0.269821
-0.271891
-0.259887
-0.236746
-0.206007
-0.171285
-0.135802
-0.102106
-0.071955
-0.046335
-0.025564
-0.009486
0.002232
0.009040
0.011128
0.009085
0.003989
-0.002713
-0.009464
-0.014993
-0.018752
-0.020766
-0.021237
-0.020464
-0.018742
-0.016326
-0.013428
-0.010233
-0.006904
-0.003593
-0.000434
0.002460
0.005003
0.007141
0.008852
0.010140
0.011033
0.011574
0.011812
0.011798
0.011581
0.011202
0.010697
0.010094
0.009418
0.008685
0.007910
0.007104
0.006273
0.005425
0.004562
0.003689
0.002807
0.001919
0.001026
0.000129
-0.000773
-0.001677
-0.002585
-0.003495
-0.004407
-0.005322
-0.006238
-0.007157
-0.008077
-0.008999
-0.009923
-0.010848
-0.011774
-0.012701
-0.013630
-0.014559
-0.015488
-0.016416
-0.017343
-0.018266
-0.019182
-0.020089
-0.020979
-0.021845
-0.022674
-0.023454
-0.024347
0.388767
0.387098
0.382332
0.374322
0.362630
0.346503
0.324896
0.296549
0.260149
0.214613
0.159552
0.095911
0.026734
-0.042444
-0.104076
-0.153461
-0.188864
-0.210167
-0.217991
-0.213909
-0.200208
-0.179546
-0.154657
-0.128044
-0.101771
-0.077359
-0.055782
-0.037538
-0.022787
-0.011534
-0.003969
0.000003
0.000812
-0.000827
-0.003984
-0.007679
-0.011130
-0.013764
-0.015431
-0.016145
-0.016006
-0.015145
-0.013687
-0.011749
-0.009439
-0.006871
-0.004164
-0.001443
0.001172
0.003575
0.005683
0.007445
0.008839
0.009866
0.010552
0.010934
0.011055
0.010957
0.010682
0.010264
0.009734
0.009116
0.008432
0.007696
0.006921
0.006116
0.005289
0.004444
0.003585
0.002716
0.001839
0.000954
0.000064
-0.000831
-0.001730
-0.002633
-0.003539
-0.004448
-0.005360
-0.006275
-0.007193
-0.008113
-0.009036
-0.009961
-0.010888
-0.011818
-0.012751
-0.013686
-0.014624
-0.015564
-0.016507
-0.017451
-0.018396
-0.019340
-0.020280
-0.021208
-0.022117
-0.022990
-0.023807
-0.024715
0.379576
0.377413
0.371545
0.362122
0.348941
0.331489
0.309044
0.280789
0.245965
0.204102
0.155337
0.100783
0.042867
-0.014641
-0.067194
-0.111234
-0.144760
-0.167113
-0.178401
-0.179587
-0.172393
-0.158859
-0.141105
-0.121110
-0.100551
-0.080722
-0.062524
-0.046512
-0.032988
-0.022108
-0.013968
-0.008562
-0.005637
-0.004748
-0.005338
-0.006832
-0.008580
-0.010196
-0.011464
-0.012288
-0.012641
-0.012521
-0.011937
-0.010897
-0.009423
-0.007560
-0.005389
-0.003021
-0.000590
0.001772
0.003946
0.005845
0.007414
0.008628
0.009497
0.010047
0.010315
0.010346
0.010177
0.009847
0.009387
0.008827
0.008189
0.007490
0.006745
0.005965
0.005158
0.004329
0.003485
0.002628
0.001760
0.000885
0.000002
-0.000887
-0.001780
-0.002679
-0.003581
-0.004487
-0.005397
-0.006310
-0.007226
-0.008146
-0.009070
-0.009996
-0.010926
-0.011860
-0.012798
-0.013740
-0.014686
-0.015638
-0.016595
-0.017559
-0.018528
-0.019503
-0.020481
-0.021458
-0.022425
-0.023363
-0.024241
-0.025167
0.374403
0.371370
0.364131
0.353322
0.338910
0.320508
0.297587
0.269604
0.236137
0.197051
0.152720
0.104234
0.053553
0.003431
-0.042985
-0.082945
-0.114565
-0.137076
-0.150276
-0.154801
-0.151948
-0.143323
-0.130620
-0.115435
-0.099146
-0.082840
-0.067312
-0.053108
-0.040579
-0.029952
-0.021367
-0.014866
-0.010364
-0.007656
-0.006413
-0.006222
-0.006693
-0.007517
-0.008472
-0.009404
-0.010201
-0.010763
-0.010989
-0.010784
-0.010074
-0.008835
-0.007104
-0.004986
-0.002629
-0.000205
0.002127
0.004237
0.006037
0.007471
0.008537
0.009258
0.009671
0.009820
0.009748
0.009493
0.009093
0.008580
0.007979
0.007311
0.006591
0.005831
0.005041
0.004227
0.003395
0.002548
0.001690
0.000822
-0.000054
-0.000937
-0.001826
-0.002720
-0.003619
-0.004522
-0.005429
-0.006341
-0.007256
-0.008176
-0.009100
-0.010028
-0.010960
-0.011898
-0.012840
-0.013788
-0.014743
-0.015706
-0.016678
-0.017660
-0.018654
-0.019662
-0.020683
-0.021717
-0.022760
-0.023796
-0.024788
-0.025719
0.374888
0.369420
0.360061
0.347719
0.332225
0.313096
0.289857
0.262116
0.229632
0.192447
0.151024
0.106389
0.060189
0.014610
-0.027915
-0.065113
-0.095170
-0.117582
-0.131791
-0.138314
-0.138179
-0.132708
-0.123312
-0.111334
-0.097938
-0.084060
-0.070406
-0.057487
-0.045668
-0.035212
-0.026306
-0.019067
-0.013520
-0.009593
-0.007113
-0.005831
-0.005472
-0.005781
-0.006542
-0.007571
-0.008702
-0.009768
-0.010593
-0.011003
-0.010855
-0.010065
-0.008640
-0.006674
-0.004333
-0.001819
0.000672
0.002984
0.005001
0.006618
0.007845
0.008699
0.009221
0.009462
0.009461
0.009258
0.008898
0.008415
0.007838
0.007188
0.006484
0.005737
0.004958
0.004154
0.003330
0.002490
0.001638
0.000776
-0.000096
-0.000974
-0.001859
-0.002750
-0.003646
-0.004547
-0.005453
-0.006363
-0.007278
-0.008198
-0.009122
-0.010052
-0.010986
-0.011926
-0.012873
-0.013827
-0.014790
-0.015762
-0.016746
-0.017746
-0.018762
-0.019801
-0.020864
-0.021959
-0.023087
-0.024253
-0.025450
-0.026322
0.385502
0.371201
0.358746
0.345055
0.328746
0.309122
0.285693
0.258100
0.226173
0.190015
0.150106
0.107413
0.063417
0.020035
-0.020634
-0.056678
-0.086677
-0.109018
-0.123625
-0.130969
-0.131968
-0.127812
-0.119792
-0.109143
-0.096947
-0.084086
-0.071241
-0.058915
-0.047482
-0.037220
-0.028334
-0.020959
-0.015149
-0.010868
-0.007992
-0.006324
-0.005630
-0.005681
-0.006266
-0.007198
-0.008298
-0.009388
-0.010281
-0.010793
-0.010768
-0.010113
-0.008819
-0.006970
-0.004721
-0.002268
0.000190
0.002479
0.004490
0.006194
0.007509
0.008434
0.009007
0.009273
0.009293
0.009117
0.008781
0.008319
0.007759
0.007123
0.006429
0.005691
0.004919
0.004120
0.003301
0.002465
0.001616
0.000756
-0.000113
-0.000989
-0.001873
-0.002762
-0.003657
-0.004557
-0.005462
-0.006372
-0.007287
-0.008206
-0.009131
-0.010062
-0.010999
-0.011943
-0.012893
-0.013850
-0.014816
-0.015794
-0.016785
-0.017794
-0.018825
-0.019882
-0.020973
-0.022106
-0.023295
-0.024554
-0.025904
-0.026648
