# vtk DataFile Version 3.0
Scalar Field
ASCII
DATASET RECTILINEAR_GRID
DIMENSIONS 100 26 1
X_COORDINATES 100 double
0.050000 0.150000 0.250000 0.350000 0.450000 0.550000 0.650000 0.750000 0.850000 0.950000 1.050000 1.150000 1.250000 1.350000 1.450000 1.550000 1.650000 1.750000 1.850000 1.950000 2.050000 2.150000 2.250000 2.350000 2.450000 2.550000 2.650000 2.750000 2.850000 2.950000 3.050000 3.150000 3.250000 3.350000 3.450000 3.550000 3.650000 3.750000 3.850000 3.950000 4.050000 4.150000 4.250000 4.350000 4.450000 4.550000 4.650000 4.750000 4.850000 4.950000 5.050000 5.150000 5.250000 5.350000 5.450000 5.550000 5.650000 5.750000 5.850000 5.950000 6.050000 6.150000 6.250000 6.350000 6.450000 6.550000 6.650000 6.750000 6.850000 6.950000 7.050000 7.150000 7.250000 7.350000 7.450000 7.550000 7.650000 7.750000 7.850000 7.950000 8.050000 8.150000 8.250000 8.350000 8.450000 8.550000 8.650000 8.750000 8.850000 8.950000 9.050000 9.150000 9.250000 9.350000 9.450000 9.550000 9.650000 9.750000 9.850000 9.950000 
Y_COORDINATES 26 double
0.050000 0.150000 0.250000 0.350000 0.450000 0.550000 0.650000 0.750000 0.850000 0.950000 1.050000 1.150000 1.250000 1.350000 1.450000 1.550000 1.650000 1.750000 1.850000 1.950000 2.050000 2.150000 2.250000 2.350000 2.450000 2.550000 
Z_COORDINATES 1 double
0.0
POINT_DATA 2600
SCALARS Skalarfeld double 1
LOOKUP_TABLE default
0.267954
0.252645
0.237320
0.218943
0.196370
0.169089
0.136999
0.100403
0.060082
0.017335
-0.026105
-0.068326
-0.107552
-0.142378
-0.171916
-0.194954
-0.211281
-0.221041
-0.224664
-0.222825
-0.216371
-0.206238
-0.193360
-0.178592
-0.162661
-0.146137
-0.129445
-0.112901
-0.096757
-0.081251
-0.066638
-0.053194
-0.041199
-0.030886
-0.022406
-0.015799
-0.011035
-0.008075
-0.006924
-0.007641
-0.010306
-0.014943
-0.021418
-0.029333
-0.037901
-0.045819
-0.051344
-0.053009
-0.050628
-0.044818
-0.038067
-0.030953
-0.023977
-0.017512
-0.011815
-0.007026
-0.003177
-0.000230
0.001906
0.003356
0.004256
0.004748
0.004962
0.005013
0.004993
0.004972
0.004995
0.005084
0.005245
0.005465
0.005726
0.005999
0.006259
0.006479
0.006638
0.006721
0.006718
0.006624
0.006439
0.006170
0.005821
0.005403
0.004924
0.004394
0.003823
0.003218
0.002589
0.001940
0.001279
0.000610
-0.000064
-0.000740
-0.001414
-0.002087
-0.002757
-0.003425
-0.004094
-0.004766
-0.005449
-0.005762
0.259201
0.252704
0.240380
0.223192
0.200963
0.173440
0.140549
0.102597
0.060442
0.015586
-0.029913
-0.073861
-0.114334
-0.149849
-0.179260
-0.202380
-0.218672
-0.228184
-0.231354
-0.228873
-0.221621
-0.210577
-0.196726
-0.180973
-0.164092
-0.146692
-0.129231
-0.112045
-0.095400
-0.079538
-0.064717
-0.051217
-0.039318
-0.029246
-0.021127
-0.014944
-0.010601
-0.008002
-0.007128
-0.008041
-0.010840
-0.015581
-0.022171
-0.030253
-0.039046
-0.047136
-0.052505
-0.053299
-0.049621
-0.044348
-0.038199
-0.031142
-0.024176
-0.017691
-0.011977
-0.007179
-0.003326
-0.000382
0.001747
0.003185
0.004073
0.004553
0.004758
0.004803
0.004783
0.004767
0.004799
0.004903
0.005081
0.005322
0.005603
0.005896
0.006175
0.006411
0.006585
0.006679
0.006684
0.006597
0.006418
0.006152
0.005806
0.005390
0.004913
0.004384
0.003814
0.003211
0.002583
0.001937
0.001279
0.000613
-0.000055
-0.000724
-0.001389
-0.002049
-0.002702
-0.003348
-0.003986
-0.004622
-0.005274
-0.005587
0.262480
0.258346
0.247920
0.231764
0.209785
0.181665
0.147184
0.106540
0.060674
0.011470
-0.038243
-0.085625
-0.128514
-0.165527
-0.195864
-0.219200
-0.235425
-0.244377
-0.246514
-0.242549
-0.233409
-0.220155
-0.203884
-0.185631
-0.166301
-0.146635
-0.127211
-0.108465
-0.090731
-0.074295
-0.059429
-0.046410
-0.035483
-0.026781
-0.020310
-0.015817
-0.012965
-0.011494
-0.011306
-0.012456
-0.015072
-0.019252
-0.024943
-0.031795
-0.039020
-0.045320
-0.049167
-0.049603
-0.046919
-0.042115
-0.035765
-0.029281
-0.023000
-0.016917
-0.011514
-0.006949
-0.003268
-0.000455
0.001572
0.002931
0.003758
0.004193
0.004368
0.004397
0.004375
0.004370
0.004423
0.004557
0.004769
0.005047
0.005365
0.005693
0.006003
0.006266
0.006461
0.006573
0.006592
0.006515
0.006344
0.006084
0.005743
0.005330
0.004857
0.004332
0.003766
0.003168
0.002545
0.001905
0.001254
0.000598
-0.000060
-0.000715
-0.001363
-0.002001
-0.002624
-0.003229
-0.003810
-0.004358
-0.004857
-0.005127
0.273451
0.270090
0.260712
0.245283
0.223361
0.194253
0.157307
0.112375
0.060401
0.003855
-0.052710
-0.105247
-0.151396
-0.190184
-0.221334
-0.244795
-0.260618
-0.268562
-0.269050
-0.262785
-0.250758
-0.234165
-0.214270
-0.192302
-0.169361
-0.146376
-0.124093
-0.103079
-0.083754
-0.066438
-0.051418
-0.039020
-0.029505
-0.022896
-0.018895
-0.017115
-0.016682
-0.017005
-0.017876
-0.019334
-0.021546
-0.024672
-0.028721
-0.033432
-0.038193
-0.042090
-0.044174
-0.043904
-0.041379
-0.037124
-0.031749
-0.025940
-0.019977
-0.014556
-0.009779
-0.005724
-0.002435
0.000055
0.001817
0.002963
0.003619
0.003918
0.003990
0.003949
0.003885
0.003865
0.003928
0.004089
0.004343
0.004670
0.005040
0.005418
0.005773
0.006075
0.006301
0.006437
0.006474
0.006410
0.006248
0.005994
0.005657
0.005249
0.004778
0.004257
0.003695
0.003101
0.002484
0.001851
0.001207
0.000560
-0.000086
-0.000727
-0.001357
-0.001971
-0.002564
-0.003128
-0.003654
-0.004124
-0.004508
-0.004731
0.290655
0.287698
0.279118
0.264424
0.242645
0.212396
0.172152
0.120905
0.059309
-0.009509
-0.076702
-0.136126
-0.185787
-0.225961
-0.257435
-0.280605
-0.295470
-0.301842
-0.299912
-0.290322
-0.274186
-0.252920
-0.228056
-0.201086
-0.173361
-0.146034
-0.120036
-0.096072
-0.074630
-0.056029
-0.040524
-0.028669
-0.020929
-0.017216
-0.016850
-0.018612
-0.021473
-0.024099
-0.026196
-0.027870
-0.029424
-0.031164
-0.033233
-0.035529
-0.037684
-0.039145
-0.039367
-0.038040
-0.035199
-0.031152
-0.026319
-0.021152
-0.016016
-0.011286
-0.007093
-0.003597
-0.000855
0.001178
0.002541
0.003358
0.003737
0.003803
0.003687
0.003506
0.003349
0.003279
0.003331
0.003513
0.003813
0.004201
0.004638
0.005084
0.005501
0.005857
0.006127
0.006296
0.006357
0.006310
0.006158
0.005911
0.005578
0.005171
0.004702
0.004182
0.003621
0.003030
0.002416
0.001786
0.001149
0.000509
-0.000128
-0.000757
-0.001372
-0.001967
-0.002536
-0.003068
-0.003553
-0.003972
-0.004300
-0.004504
0.313335
0.310790
0.303223
0.289755
0.268770
0.237824
0.193800
0.133737
0.056988
-0.033344
-0.116444
-0.183443
-0.235080
-0.274875
-0.305606
-0.328075
-0.341540
-0.345954
-0.340831
-0.326698
-0.304917
-0.277305
-0.245800
-0.212257
-0.178338
-0.145459
-0.114763
-0.087095
-0.062997
-0.042718
-0.026312
-0.014858
-0.009238
-0.009385
-0.014104
-0.021248
-0.028271
-0.033588
-0.036805
-0.038308
-0.038737
-0.038698
-0.038549
-0.038375
-0.038024
-0.037200
-0.035604
-0.033068
-0.029614
-0.025436
-0.020824
-0.016096
-0.011539
-0.007402
-0.003835
-0.000945
0.001228
0.002725
0.003628
0.004010
0.004006
0.003758
0.003389
0.003014
0.002721
0.002573
0.002599
0.002802
0.003158
0.003625
0.004152
0.004688
0.005189
0.005615
0.005943
0.006156
0.006249
0.006222
0.006082
0.005841
0.005511
0.005104
0.004633
0.004112
0.003550
0.002958
0.002344
0.001716
0.001082
0.000446
-0.000185
-0.000806
-0.001411
-0.001993
-0.002545
-0.003058
-0.003519
-0.003914
-0.004221
-0.004434
0.340720
0.338770
0.332808
0.321641
0.302976
0.272960
0.225801
0.154260
0.052996
-0.078004
-0.182522
-0.252975
-0.300583
-0.335721
-0.364134
-0.386464
-0.399273
-0.402176
-0.393372
-0.373391
-0.344191
-0.308281
-0.268200
-0.226277
-0.184548
-0.144736
-0.108241
-0.076100
-0.048921
-0.026846
-0.009512
0.002024
0.005619
0.001138
-0.009646
-0.023573
-0.036839
-0.045698
-0.049754
-0.050528
-0.049246
-0.047036
-0.044506
-0.041908
-0.039239
-0.036356
-0.033093
-0.029356
-0.025164
-0.020652
-0.016022
-0.011504
-0.007314
-0.003631
-0.000574
0.001790
0.003448
0.004442
0.004850
0.004770
0.004337
0.003692
0.002985
0.002348
0.001897
0.001659
0.001661
0.001898
0.002334
0.002910
0.003559
0.004216
0.004827
0.005347
0.005749
0.006017
0.006148
0.006146
0.006020
0.005785
0.005456
0.005046
0.004572
0.004046
0.003480
0.002885
0.002269
0.001640
0.001005
0.000370
-0.000258
-0.000876
-0.001475
-0.002051
-0.002595
-0.003100
-0.003553
-0.003943
-0.004253
-0.004496
0.371699
0.370625
0.367142
0.359936
0.346256
0.320836
0.274075
0.190067
0.047020
-0.167052
-0.289908
-0.345305
-0.375015
-0.398150
-0.422702
-0.448331
-0.465216
-0.468956
-0.456816
-0.430046
-0.391911
-0.346028
-0.295723
-0.243872
-0.192924
-0.144963
-0.101732
-0.064570
-0.034269
-0.010969
0.005703
0.017951
0.020683
0.013155
-0.002089
-0.021235
-0.040092
-0.054985
-0.061599
-0.061785
-0.058767
-0.054588
-0.050001
-0.045389
-0.040843
-0.036302
-0.031668
-0.026890
-0.021989
-0.017070
-0.012287
-0.007817
-0.003825
-0.000444
0.002238
0.004181
0.005393
0.005924
0.005858
0.005312
0.004431
0.003374
0.002309
0.001383
0.000714
0.000397
0.000395
0.000703
0.001266
0.002002
0.002822
0.003645
0.004401
0.005043
0.005539
0.005877
0.006054
0.006081
0.005971
0.005742
0.005411
0.004998
0.004517
0.003984
0.003411
0.002810
0.002189
0.001556
0.000918
0.000281
-0.000349
-0.000967
-0.001567
-0.002143
-0.002687
-0.003193
-0.003651
-0.004051
-0.004380
-0.004669
0.404640
0.404736
0.404681
0.403405
0.398392
0.383985
0.347303
0.258856
0.044750
-0.357682
-0.449824
-0.442509
-0.436537
-0.440637
-0.459610
-0.493306
-0.526724
-0.536935
-0.523484
-0.490557
-0.443749
-0.388057
-0.327624
-0.265852
-0.205601
-0.149372
-0.099395
-0.057563
-0.025035
-0.001840
0.012656
0.019915
0.023356
0.015331
0.000289
-0.017997
-0.036303
-0.051804
-0.062526
-0.066035
-0.062638
-0.058104
-0.052731
-0.047189
-0.041681
-0.036217
-0.030759
-0.025302
-0.019895
-0.014647
-0.009700
-0.005209
-0.001314
0.001874
0.004288
0.005905
0.006742
0.006858
0.006348
0.005341
0.004001
0.002514
0.001073
-0.000148
-0.001013
-0.001409
-0.001366
-0.000915
-0.000144
0.000833
0.001898
0.002945
0.003896
0.004693
0.005309
0.005731
0.005965
0.006025
0.005932
0.005708
0.005375
0.004954
0.004465
0.003922
0.003340
0.002730
0.002102
0.001462
0.000818
0.000176
-0.000459
-0.001081
-0.001686
-0.002268
-0.002820
-0.003337
-0.003809
-0.004230
-0.004590
-0.004936
0.437370
0.438819
0.442834
0.449027
0.456208
0.460865
0.452455
0.397011
0.145266
-0.709109
-0.632023
-0.496817
-0.461430
-0.450706
-0.463781
-0.502983
-0.554399
-0.583972
-0.573751
-0.538973
-0.487935
-0.426706
-0.360045
-0.291810
-0.225305
-0.163547
-0.109482
-0.065979
-0.034868
-0.015387
-0.004786
-0.000534
-0.002114
-0.006816
-0.014942
-0.025141
-0.035891
-0.045697
-0.053185
-0.057185
-0.058544
-0.055275
-0.050680
-0.045609
-0.040338
-0.034932
-0.029415
-0.023844
-0.018322
-0.012992
-0.008019
-0.003568
0.000221
0.003241
0.005426
0.006756
0.007251
0.006972
0.006020
0.004539
0.002720
0.000781
-0.001044
-0.002545
-0.003558
-0.003988
-0.003797
-0.003076
-0.001969
-0.000638
0.000763
0.002108
0.003304
0.004296
0.005055
0.005578
0.005876
0.005974
0.005899
0.005679
0.005342
0.004912
0.004412
0.003858
0.003265
0.002644
0.002006
0.001358
0.000706
0.000056
-0.000587
-0.001218
-0.001832
-0.002425
-0.002991
-0.003525
-0.004020
-0.004470
-0.004869
-0.005282
0.467388
0.470132
0.478099
0.491794
0.512030
0.539717
0.574927
0.612646
0.686573
-0.011268
-0.554023
-0.476024
-0.464991
-0.458709
-0.468019
-0.500740
-0.546926
-0.586160
-0.588403
-0.557347
-0.509229
-0.449955
-0.384529
-0.317176
-0.251764
-0.192071
-0.141754
-0.103890
-0.079397
-0.065690
-0.058631
-0.055063
-0.052966
-0.049350
-0.046223
-0.044229
-0.043453
-0.043675
-0.044436
-0.045166
-0.045573
-0.045108
-0.043253
-0.039758
-0.035779
-0.031374
-0.026603
-0.021576
-0.016454
-0.011434
-0.006721
-0.002510
0.001036
0.003794
0.005688
0.006684
0.006793
0.006071
0.004624
0.002613
0.000263
-0.002157
-0.004360
-0.006091
-0.007161
-0.007465
-0.006938
-0.005767
-0.004170
-0.002365
-0.000539
0.001167
0.002653
0.003866
0.004786
0.005419
0.005787
0.005924
0.005866
0.005650
0.005307
0.004867
0.004354
0.003787
0.003181
0.002549
0.001900
0.001241
0.000579
-0.000080
-0.000733
-0.001376
-0.002003
-0.002611
-0.003196
-0.003753
-0.004277
-0.004763
-0.005207
-0.005694
0.492302
0.495995
0.506848
0.525969
0.555491
0.599131
0.663369
0.759291
0.894530
0.925990
0.000000
-0.472618
-0.469212
-0.467151
-0.475488
-0.497945
-0.527785
-0.553507
-0.560308
-0.536984
-0.496476
-0.445208
-0.388388
-0.330296
-0.275149
-0.227111
-0.189622
-0.164701
-0.150667
-0.142503
-0.135773
-0.127122
-0.114172
-0.098729
-0.082871
-0.068092
-0.055382
-0.045324
-0.038115
-0.033583
-0.031264
-0.030373
-0.030023
-0.029676
-0.027609
-0.024888
-0.021525
-0.017650
-0.013464
-0.009208
-0.005134
-0.001472
0.001580
0.003874
0.005306
0.005819
0.005405
0.004108
0.002039
-0.000609
-0.003563
-0.006483
-0.009016
-0.010853
-0.011804
-0.011684
-0.010573
-0.008762
-0.006545
-0.004180
-0.001876
0.000217
0.002006
0.003445
0.004524
0.005264
0.005698
0.005871
0.005829
0.005613
0.005264
0.004813
0.004287
0.003706
0.003087
0.002442
0.001781
0.001112
0.000439
-0.000233
-0.000898
-0.001554
-0.002197
-0.002824
-0.003431
-0.004015
-0.004573
-0.005100
-0.005594
-0.006160
0.510357
0.514463
0.526520
0.547677
0.580005
0.626634
0.691395
0.775648
0.871461
0.957449
0.874815
0.000000
-0.472181
-0.475149
-0.475263
-0.484778
-0.497329
-0.505189
-0.500316
-0.479511
-0.444571
-0.403525
-0.360136
-0.318384
-0.282540
-0.256280
-0.240830
-0.234983
-0.232466
-0.227520
-0.216672
-0.196373
-0.171004
-0.143103
-0.115097
-0.088910
-0.065917
-0.047002
-0.032604
-0.022740
-0.017006
-0.014578
-0.014346
-0.015129
-0.016026
-0.015329
-0.013787
-0.011516
-0.008713
-0.005646
-0.002600
0.000160
0.002407
0.003959
0.004677
0.004474
0.003315
0.001236
-0.001634
-0.005054
-0.008671
-0.012059
-0.014790
-0.016518
-0.017052
-0.016146
-0.014233
-0.011662
-0.008768
-0.005832
-0.003065
-0.000610
0.001449
0.003084
0.004298
0.005125
0.005612
0.005812
0.005779
0.005562
0.005204
0.004742
0.004203
0.003609
0.002978
0.002321
0.001649
0.000968
0.000283
-0.000400
-0.001079
-0.001751
-0.002412
-0.003060
-0.003693
-0.004307
-0.004900
-0.005471
-0.006017
-0.006666
0.520787
0.524755
0.536336
0.556325
0.585967
0.626689
0.679561
0.744119
0.808979
0.830297
0.792180
0.674959
0.000000
-0.473562
-0.471975
-0.466640
-0.463700
-0.451472
-0.426685
-0.395704
-0.363461
-0.331187
-0.302771
-0.282033
-0.272376
-0.274941
-0.286928
-0.301644
-0.309555
-0.305466
-0.283962
-0.251961
-0.214883
-0.175857
-0.137638
-0.102360
-0.071495
-0.045925
-0.026050
-0.011858
-0.002968
0.001375
0.002265
0.001010
-0.001099
-0.002965
-0.003418
-0.002995
-0.001862
-0.000293
0.001405
0.002946
0.004079
0.004590
0.004305
0.003103
0.000929
-0.002177
-0.006042
-0.010343
-0.014624
-0.018362
-0.021078
-0.022439
-0.021989
-0.020146
-0.017358
-0.014028
-0.010508
-0.007077
-0.003933
-0.001200
0.001058
0.002828
0.004131
0.005012
0.005528
0.005740
0.005708
0.005486
0.005119
0.004646
0.004096
0.003492
0.002850
0.002183
0.001501
0.000809
0.000113
-0.000583
-0.001276
-0.001964
-0.002645
-0.003315
-0.003975
-0.004621
-0.005252
-0.005868
-0.006468
-0.007200
0.523838
0.527245
0.537123
0.553883
0.578069
0.609983
0.648574
0.688841
0.717910
0.708964
0.644963
0.557737
0.387623
0.000000
-0.459698
-0.447422
-0.442738
-0.408828
-0.358515
-0.308453
-0.270597
-0.244954
-0.231816
-0.233307
-0.250796
-0.283568
-0.322398
-0.354979
-0.370599
-0.361419
-0.329473
-0.288221
-0.242151
-0.194959
-0.149606
-0.108244
-0.072256
-0.042373
-0.018835
-0.001523
0.009958
0.016269
0.018352
0.017419
0.014809
0.011739
0.009145
0.007711
0.007098
0.007032
0.007194
0.007291
0.007059
0.006260
0.004690
0.002201
-0.001266
-0.005633
-0.010648
-0.015872
-0.020724
-0.024601
-0.027027
-0.027502
-0.025889
-0.023078
-0.019488
-0.015527
-0.011532
-0.007759
-0.004378
-0.001490
0.000866
0.002693
0.004026
0.004919
0.005437
0.005645
0.005606
0.005376
0.005001
0.004520
0.003962
0.003351
0.002702
0.002027
0.001337
0.000636
-0.000070
-0.000778
-0.001486
-0.002191
-0.002891
-0.003586
-0.004273
-0.004952
-0.005622
-0.006284
-0.006937
-0.007751
0.520548
0.523193
0.530773
0.543302
0.560592
0.581784
0.604384
0.622640
0.625435
0.594801
0.512846
0.369397
0.217509
-0.214663
-0.516106
-0.470267
-0.442387
-0.380355
-0.305061
-0.238045
-0.189705
-0.166408
-0.163887
-0.185448
-0.228452
-0.285612
-0.343637
-0.387337
-0.404628
-0.385820
-0.349266
-0.302830
-0.251981
-0.200800
-0.152270
-0.108397
-0.070358
-0.038671
-0.013379
0.005778
0.019225
0.027502
0.031314
0.031615
0.029578
0.026399
0.023001
0.019926
0.017759
0.016146
0.014748
0.013298
0.011540
0.009226
0.006135
0.002112
-0.002870
-0.008659
-0.014878
-0.020949
-0.026170
-0.029880
-0.031620
-0.030637
-0.028104
-0.024527
-0.020364
-0.016009
-0.011766
-0.007853
-0.004408
-0.001502
0.000844
0.002648
0.003954
0.004823
0.005319
0.005511
0.005461
0.005223
0.004843
0.004358
0.003798
0.003183
0.002531
0.001853
0.001157
0.000449
-0.000266
-0.000985
-0.001707
-0.002428
-0.003149
-0.003867
-0.004582
-0.005294
-0.006003
-0.006709
-0.007414
-0.008307
0.512319
0.514085
0.519066
0.526984
0.537164
0.548123
0.556887
0.558004
0.542450
0.496774
0.403280
0.237314
-0.053086
-0.646835
-0.561944
-0.459319
-0.402685
-0.338676
-0.264624
-0.197304
-0.146882
-0.118828
-0.123447
-0.157720
-0.215002
-0.283851
-0.349035
-0.394949
-0.402331
-0.381170
-0.343556
-0.296635
-0.245896
-0.195353
-0.147788
-0.104972
-0.067862
-0.036808
-0.011724
0.007752
0.022122
0.031915
0.037653
0.039945
0.039646
0.037755
0.035054
0.031938
0.028940
0.026197
0.023432
0.020492
0.017178
0.013258
0.008520
0.002843
-0.003730
-0.010926
-0.018219
-0.024890
-0.030155
-0.033383
-0.033469
-0.031598
-0.028416
-0.024410
-0.020010
-0.015565
-0.011332
-0.007489
-0.004143
-0.001342
0.000905
0.002625
0.003865
0.004685
0.005149
0.005321
0.005260
0.005018
0.004639
0.004157
0.003601
0.002989
0.002339
0.001661
0.000963
0.000251
-0.000472
-0.001201
-0.001935
-0.002673
-0.003413
-0.004155
-0.004898
-0.005642
-0.006387
-0.007136
-0.007891
-0.008857
0.500775
0.501676
0.504141
0.507733
0.511549
0.513920
0.511967
0.501043
0.474178
0.421627
0.330415
0.183267
-0.041960
-0.329031
-0.389285
-0.371282
-0.335946
-0.285845
-0.231062
-0.178202
-0.132621
-0.108827
-0.117647
-0.155646
-0.213838
-0.279636
-0.338368
-0.371455
-0.371962
-0.351540
-0.316860
-0.274025
-0.227890
-0.182023
-0.138862
-0.099926
-0.066022
-0.037426
-0.014047
0.004450
0.018540
0.028752
0.035628
0.039726
0.041642
0.041922
0.040886
0.039854
0.037927
0.034989
0.031462
0.027436
0.022824
0.017464
0.011209
0.004026
-0.003921
-0.012210
-0.020168
-0.026976
-0.031847
-0.033426
-0.032668
-0.030378
-0.027015
-0.023016
-0.018752
-0.014517
-0.010524
-0.006920
-0.003791
-0.001176
0.000923
0.002531
0.003692
0.004460
0.004895
0.005055
0.004993
0.004758
0.004389
0.003919
0.003373
0.002771
0.002128
0.001454
0.000757
0.000043
-0.000685
-0.001423
-0.002169
-0.002922
-0.003681
-0.004445
-0.005215
-0.005990
-0.006771
-0.007560
-0.008360
-0.009394
0.487514
0.487646
0.487902
0.487803
0.486424
0.482190
0.472625
0.454076
0.421522
0.368577
0.287830
0.172199
0.020509
-0.144613
-0.230559
-0.257478
-0.252454
-0.228405
-0.195448
-0.161237
-0.133888
-0.123008
-0.134439
-0.166949
-0.214012
-0.264936
-0.306182
-0.324816
-0.323869
-0.306693
-0.277977
-0.242352
-0.203699
-0.164968
-0.128221
-0.094768
-0.065326
-0.040169
-0.019259
-0.002345
0.010956
0.021104
0.028586
0.033884
0.037435
0.039624
0.041606
0.042394
0.041736
0.039664
0.036383
0.032081
0.026829
0.020602
0.013380
0.005267
-0.003420
-0.012110
-0.020037
-0.026391
-0.029573
-0.030485
-0.029687
-0.027577
-0.024551
-0.020972
-0.017152
-0.013343
-0.009734
-0.006456
-0.003591
-0.001180
0.000771
0.002277
0.003376
0.004112
0.004536
0.004701
0.004655
0.004441
0.004094
0.003646
0.003119
0.002534
0.001902
0.001237
0.000544
-0.000170
-0.000901
-0.001646
-0.002403
-0.003171
-0.003948
-0.004734
-0.005530
-0.006334
-0.007149
-0.007975
-0.008816
-0.009908
0.473963
0.473451
0.471886
0.468834
0.463475
0.454485
0.439903
0.417047
0.382541
0.332574
0.263586
0.173834
0.066960
-0.042369
-0.119673
-0.161844
-0.177391
-0.174946
-0.162391
-0.146744
-0.134817
-0.132931
-0.144750
-0.169697
-0.203161
-0.237305
-0.262321
-0.274203
-0.272773
-0.259534
-0.237391
-0.209554
-0.178922
-0.147812
-0.117914
-0.090339
-0.065719
-0.044322
-0.026149
-0.011020
0.001359
0.011344
0.019313
0.025630
0.030625
0.034892
0.038104
0.040073
0.040610
0.039666
0.037299
0.033589
0.028602
0.022402
0.015112
0.006991
-0.001508
-0.009734
-0.016945
-0.021688
-0.024637
-0.025896
-0.025681
-0.024269
-0.021959
-0.019052
-0.015826
-0.012517
-0.009313
-0.006351
-0.003721
-0.001475
0.000367
0.001813
0.002887
0.003624
0.004068
0.004264
0.004253
0.004075
0.003763
0.003346
0.002847
0.002283
0.001668
0.001014
0.000328
-0.000384
-0.001117
-0.001868
-0.002634
-0.003416
-0.004210
-0.005018
-0.005838
-0.006671
-0.007517
-0.008377
-0.009253
-0.010393
0.461317
0.460278
0.457250
0.451914
0.443630
0.431375
0.413694
0.388728
0.354335
0.308417
0.249549
0.178070
0.097804
0.017722
-0.047419
-0.092248
-0.118361
-0.130031
-0.132370
-0.130552
-0.129526
-0.133473
-0.144757
-0.163096
-0.185549
-0.207146
-0.222993
-0.230465
-0.228746
-0.218598
-0.201796
-0.180505
-0.156816
-0.132497
-0.108878
-0.086851
-0.066917
-0.049271
-0.033886
-0.020593
-0.009155
0.000687
0.009171
0.016494
0.022859
0.028346
0.032725
0.035865
0.037605
0.037850
0.036583
0.033842
0.029695
0.024256
0.017715
0.010397
0.002783
-0.004512
-0.010600
-0.015541
-0.019104
-0.021240
-0.022009
-0.021554
-0.020092
-0.017888
-0.015221
-0.012344
-0.009460
-0.006726
-0.004250
-0.002095
-0.000295
0.001147
0.002242
0.003019
0.003513
0.003763
0.003806
0.003678
0.003412
0.003034
0.002567
0.002029
0.001433
0.000792
0.000115
-0.000594
-0.001327
-0.002083
-0.002859
-0.003652
-0.004464
-0.005292
-0.006136
-0.006997
-0.007873
-0.008764
-0.009670
-0.010844
0.450560
0.449059
0.444820
0.437702
0.427287
0.412842
0.393343
0.367555
0.334186
0.292177
0.241162
0.182118
0.118121
0.054731
-0.000725
-0.044065
-0.074743
-0.094533
-0.106398
-0.113747
-0.119922
-0.127677
-0.138575
-0.152557
-0.167948
-0.182099
-0.192199
-0.196451
-0.194252
-0.186027
-0.172935
-0.156483
-0.138208
-0.119449
-0.101221
-0.084178
-0.068634
-0.054634
-0.042036
-0.030605
-0.020096
-0.010320
-0.001194
0.007220
0.014890
0.021592
0.027213
0.031603
0.034607
0.036115
0.036084
0.034536
0.031546
0.027241
0.021808
0.015530
0.008810
0.002012
-0.004356
-0.009945
-0.014469
-0.017723
-0.019602
-0.020121
-0.019428
-0.017785
-0.015508
-0.012895
-0.010183
-0.007549
-0.005118
-0.002969
-0.001141
0.000349
0.001509
0.002357
0.002924
0.003244
0.003352
0.003283
0.003067
0.002731
0.002298
0.001785
0.001209
0.000582
-0.000088
-0.000792
-0.001527
-0.002287
-0.003071
-0.003877
-0.004704
-0.005552
-0.006420
-0.007309
-0.008215
-0.009137
-0.010071
-0.011259
0.442550
0.440541
0.435150
0.426537
0.414510
0.398576
0.378030
0.352070
0.319950
0.281205
0.235953
0.185267
0.131479
0.078181
0.029565
-0.011416
-0.043699
-0.067822
-0.085369
-0.098444
-0.109211
-0.119475
-0.130304
-0.141772
-0.153009
-0.162694
-0.168983
-0.170871
-0.168029
-0.160808
-0.150083
-0.137009
-0.122778
-0.108431
-0.094722
-0.082069
-0.070566
-0.060049
-0.050201
-0.040652
-0.031073
-0.021268
-0.011263
-0.001571
0.007425
0.015524
0.022515
0.028213
0.032469
0.035184
0.036324
0.035922
0.034070
0.030875
0.026450
0.020954
0.014441
0.007572
0.000717
-0.005726
-0.011353
-0.015797
-0.018781
-0.020174
-0.020055
-0.018714
-0.016574
-0.014011
-0.011299
-0.008625
-0.006142
-0.003926
-0.002021
-0.000445
0.000802
0.001736
0.002383
0.002776
0.002948
0.002934
0.002765
0.002467
0.002063
0.001572
0.001012
0.000395
-0.000269
-0.000971
-0.001707
-0.002472
-0.003264
-0.004082
-0.004925
-0.005793
-0.006685
-0.007602
-0.008542
-0.009500
-0.010466
-0.011632
0.438242
0.435353
0.428559
0.418499
0.405150
0.388149
0.366969
0.341084
0.310074
0.273795
0.232571
0.187397
0.140053
0.093012
0.048989
0.010122
-0.022488
-0.048801
-0.069584
-0.086082
-0.099669
-0.111517
-0.122394
-0.132406
-0.141274
-0.148001
-0.151703
-0.151836
-0.148316
-0.141538
-0.132275
-0.121507
-0.110227
-0.099269
-0.089183
-0.080181
-0.072148
-0.064719
-0.057399
-0.049679
-0.041097
-0.031298
-0.020240
-0.009357
0.001163
0.010810
0.019222
0.026172
0.031522
0.035204
0.037224
0.037666
0.036679
0.034369
0.030580
0.025255
0.018907
0.011817
0.004364
-0.002985
-0.009711
-0.015299
-0.019296
-0.021407
-0.021607
-0.020232
-0.017937
-0.015227
-0.012394
-0.009582
-0.007003
-0.004704
-0.002716
-0.001060
0.000263
0.001268
0.001979
0.002428
0.002649
0.002676
0.002541
0.002273
0.001889
0.001412
0.000861
0.000249
-0.000412
-0.001115
-0.001854
-0.002626
-0.003426
-0.004255
-0.005114
-0.006003
-0.006921
-0.007869
-0.008846
-0.009851
-0.010876
-0.011952
0.439297
0.433967
0.425035
0.413418
0.398919
0.381121
0.359514
0.333724
0.303516
0.268906
0.230292
0.188564
0.145143
0.101876
0.060741
0.023406
-0.009093
-0.036445
-0.058964
-0.077382
-0.092582
-0.105282
-0.116174
-0.125436
-0.132755
-0.137675
-0.139755
-0.138756
-0.134767
-0.128231
-0.119877
-0.110583
-0.101215
-0.092472
-0.084769
-0.078183
-0.072470
-0.067142
-0.061614
-0.055340
-0.047826
-0.038413
-0.027186
-0.015057
-0.003013
0.008081
0.017712
0.025624
0.031708
0.035939
0.038375
0.039178
0.038684
0.036589
0.032921
0.027897
0.021626
0.014365
0.006507
-0.001434
-0.008872
-0.015214
-0.019925
-0.022592
-0.023016
-0.021360
-0.018719
-0.015787
-0.012862
-0.010113
-0.007507
-0.005144
-0.003092
-0.001380
-0.000010
0.001033
0.001776
0.002251
0.002493
0.002536
0.002412
0.002146
0.001772
0.001304
0.000760
0.000153
-0.000507
-0.001211
-0.001954
-0.002732
-0.003544
-0.004388
-0.005262
-0.006169
-0.007110
-0.008085
-0.009097
-0.010151
-0.011264
-0.012171
0.450196
0.436035
0.424009
0.411031
0.395742
0.377372
0.355499
0.329767
0.300008
0.266296
0.229039
0.189047
0.147548
0.106103
0.066374
0.029819
-0.002560
-0.030340
-0.053630
-0.072933
-0.088959
-0.102452
-0.113605
-0.122624
-0.129419
-0.133712
-0.135221
-0.133830
-0.129693
-0.123262
-0.115236
-0.106439
-0.097674
-0.089582
-0.082532
-0.076571
-0.071436
-0.066633
-0.061572
-0.055708
-0.048638
-0.040157
-0.029870
-0.017277
-0.004446
0.007364
0.017531
0.025797
0.032084
0.036401
0.038824
0.039505
0.038502
0.036247
0.032694
0.027822
0.021733
0.014669
0.007003
-0.000774
-0.008095
-0.014380
-0.019111
-0.021905
-0.022630
-0.021589
-0.019029
-0.015948
-0.012931
-0.010135
-0.007556
-0.005226
-0.003192
-0.001485
-0.000114
0.000934
0.001684
0.002167
0.002417
0.002468
0.002350
0.002092
0.001721
0.001256
0.000714
0.000107
-0.000554
-0.001260
-0.002006
-0.002787
-0.003603
-0.004453
-0.005336
-0.006253
-0.007206
-0.008196
-0.009224
-0.010292
-0.011400
-0.012196
