# vtk DataFile Version 3.0
Vector Field
ASCII
DATASET RECTILINEAR_GRID
DIMENSIONS 100 26 1
X_COORDINATES 100 double
0.050000 0.150000 0.250000 0.350000 0.450000 0.550000 0.650000 0.750000 0.850000 0.950000 1.050000 1.150000 1.250000 1.350000 1.450000 1.550000 1.650000 1.750000 1.850000 1.950000 2.050000 2.150000 2.250000 2.350000 2.450000 2.550000 2.650000 2.750000 2.850000 2.950000 3.050000 3.150000 3.250000 3.350000 3.450000 3.550000 3.650000 3.750000 3.850000 3.950000 4.050000 4.150000 4.250000 4.350000 4.450000 4.550000 4.650000 4.750000 4.850000 4.950000 5.050000 5.150000 5.250000 5.350000 5.450000 5.550000 5.650000 5.750000 5.850000 5.950000 6.050000 6.150000 6.250000 6.350000 6.450000 6.550000 6.650000 6.750000 6.850000 6.950000 7.050000 7.150000 7.250000 7.350000 7.450000 7.550000 7.650000 7.750000 7.850000 7.950000 8.050000 8.150000 8.250000 8.350000 8.450000 8.550000 8.650000 8.750000 8.850000 8.950000 9.050000 9.150000 9.250000 9.350000 9.450000 9.550000 9.650000 9.750000 9.850000 9.950000 
Y_COORDINATES 26 double
0.050000 0.150000 0.250000 0.350000 0.450000 0.550000 0.650000 0.750000 0.850000 0.950000 1.050000 1.150000 1.250000 1.350000 1.450000 1.550000 1.650000 1.750000 1.850000 1.950000 2.050000 2.150000 2.250000 2.350000 2.450000 2.550000 
Z_COORDINATES 1 double
0.0
POINT_DATA 2600
VECTORS Vektorfeld double
0.997684 0.002316 0.0
0.993012 0.002356 0.0
0.989868 0.000788 0.0
0.990572 -0.001491 0.0
0.996135 -0.004073 0.0
1.006893 -0.006685 0.0
1.022639 -0.009060 0.0
1.042621 -0.010922 0.0
1.065556 -0.012013 0.0
1.089730 -0.012161 0.0
1.113228 -0.011337 0.0
1.134215 -0.009650 0.0
1.151141 -0.007276 0.0
1.162828 -0.004410 0.0
1.168526 -0.001288 0.0
1.167974 0.001840 0.0
1.161066 0.005069 0.0
1.147658 0.008339 0.0
1.127768 0.011552 0.0
1.101629 0.014587 0.0
1.069729 0.017314 0.0
1.032815 0.019600 0.0
0.991889 0.021326 0.0
0.948168 0.022395 0.0
0.903038 0.022735 0.0
0.857994 0.022308 0.0
0.814573 0.021113 0.0
0.774277 0.019183 0.0
0.738496 0.016598 0.0
0.708425 0.013474 0.0
0.684982 0.009969 0.0
0.668748 0.006264 0.0
0.660044 0.002440 0.0
0.658963 -0.001360 0.0
0.664309 -0.003987 0.0
0.673428 -0.005132 0.0
0.683444 -0.004884 0.0
0.691871 -0.003543 0.0
0.696906 -0.001492 0.0
0.697012 0.001387 0.0
0.690358 0.005266 0.0
0.675406 0.009686 0.0
0.651578 0.014143 0.0
0.619239 0.018195 0.0
0.579557 0.021487 0.0
0.534325 0.023745 0.0
0.485872 0.024708 0.0
0.437233 0.023932 0.0
0.392578 0.020723 0.0
0.357168 0.014687 0.0
0.335671 0.006810 0.0
0.329060 -0.000200 0.0
0.333032 -0.003772 0.0
0.341910 -0.005106 0.0
0.352764 -0.005749 0.0
0.364420 -0.005907 0.0
0.375945 -0.005618 0.0
0.386535 -0.004972 0.0
0.395592 -0.004085 0.0
0.402752 -0.003076 0.0
0.407887 -0.002059 0.0
0.411081 -0.001135 0.0
0.412567 -0.000351 0.0
0.412418 0.000499 0.0
0.410282 0.001637 0.0
0.405670 0.002975 0.0
0.398426 0.004268 0.0
0.388841 0.005317 0.0
0.377601 0.005923 0.0
0.365758 0.005920 0.0
0.354558 0.005280 0.0
0.345079 0.004198 0.0
0.337813 0.003068 0.0
0.332426 0.002319 0.0
0.327920 0.002187 0.0
0.323132 0.002601 0.0
0.317289 0.003242 0.0
0.310318 0.003729 0.0
0.302771 0.003818 0.0
0.295473 0.003480 0.0
0.289120 0.002873 0.0
0.284036 0.002212 0.0
0.280153 0.001671 0.0
0.277146 0.001336 0.0
0.274601 0.001210 0.0
0.272157 0.001234 0.0
0.269605 0.001317 0.0
0.266927 0.001362 0.0
0.264249 0.001316 0.0
0.261762 0.001171 0.0
0.259618 0.000973 0.0
0.257839 0.000806 0.0
0.256287 0.000746 0.0
0.254720 0.000822 0.0
0.252891 0.001007 0.0
0.250653 0.001231 0.0
0.248012 0.001410 0.0
0.245143 0.001460 0.0
0.242366 0.001317 0.0
0.239545 0.001504 0.0
1.002974 0.001659 0.0
1.011579 -0.000920 0.0
1.025000 -0.006214 0.0
1.042728 -0.012921 0.0
1.064812 -0.020291 0.0
1.091270 -0.027683 0.0
1.121855 -0.034393 0.0
1.155925 -0.039641 0.0
1.192367 -0.042671 0.0
1.229631 -0.042941 0.0
1.265964 -0.040389 0.0
1.299766 -0.035387 0.0
1.329797 -0.028496 0.0
1.355182 -0.020262 0.0
1.375210 -0.011163 0.0
1.389072 -0.001596 0.0
1.396160 0.008325 0.0
1.396239 0.018411 0.0
1.389266 0.028344 0.0
1.375446 0.037753 0.0
1.355265 0.046230 0.0
1.329491 0.053371 0.0
1.299158 0.058815 0.0
1.265521 0.062264 0.0
1.230006 0.063510 0.0
1.194145 0.062438 0.0
1.159510 0.059040 0.0
1.127634 0.053427 0.0
1.099935 0.045834 0.0
1.077621 0.036622 0.0
1.061614 0.026271 0.0
1.052485 0.015325 0.0
1.050281 0.004288 0.0
1.054072 -0.005918 0.0
1.062876 -0.013580 0.0
1.076119 -0.017901 0.0
1.092553 -0.018565 0.0
1.109835 -0.015571 0.0
1.124547 -0.009211 0.0
1.133337 0.000211 0.0
1.134136 0.012296 0.0
1.125906 0.025838 0.0
1.108294 0.039432 0.0
1.081720 0.051818 0.0
1.047322 0.061944 0.0
1.006899 0.068944 0.0
0.962848 0.072012 0.0
0.917956 0.070159 0.0
0.874768 0.062340 0.0
0.834592 0.048656 0.0
0.797093 0.031838 0.0
0.762136 0.016340 0.0
0.733267 0.004585 0.0
0.715581 -0.004655 0.0
0.709802 -0.011274 0.0
0.712844 -0.015079 0.0
0.721726 -0.016853 0.0
0.734551 -0.017153 0.0
0.749993 -0.016402 0.0
0.766989 -0.014915 0.0
0.784542 -0.012907 0.0
0.801547 -0.010486 0.0
0.816700 -0.007638 0.0
0.828838 -0.004203 0.0
0.837577 -0.000264 0.0
0.843318 0.003747 0.0
0.846599 0.007459 0.0
0.847846 0.010464 0.0
0.847415 0.012446 0.0
0.845380 0.013275 0.0
0.841385 0.013122 0.0
0.834704 0.012516 0.0
0.824538 0.012183 0.0
0.810414 0.012716 0.0
0.792502 0.014208 0.0
0.771732 0.016138 0.0
0.749653 0.017626 0.0
0.728137 0.017833 0.0
0.709018 0.016380 0.0
0.693706 0.013528 0.0
0.682852 0.010032 0.0
0.676236 0.006752 0.0
0.672979 0.004271 0.0
0.671981 0.002741 0.0
0.672347 0.001984 0.0
0.673565 0.001686 0.0
0.675415 0.001566 0.0
0.677796 0.001411 0.0
0.680552 0.001189 0.0
0.683375 0.000962 0.0
0.685835 0.000867 0.0
0.687448 0.001078 0.0
0.687778 0.001695 0.0
0.686545 0.002673 0.0
0.683683 0.003846 0.0
0.679336 0.004977 0.0
0.673828 0.005813 0.0
0.667619 0.006134 0.0
0.661228 0.005811 0.0
0.656333 0.004726 0.0
1.001877 -0.003192 0.0
1.008626 -0.011425 0.0
1.021012 -0.021516 0.0
1.038633 -0.032968 0.0
1.061496 -0.045191 0.0
1.089665 -0.057408 0.0
1.122984 -0.068573 0.0
1.160829 -0.077377 0.0
1.201909 -0.082458 0.0
1.244172 -0.082681 0.0
1.285207 -0.078018 0.0
1.322994 -0.069347 0.0
1.356228 -0.057802 0.0
1.384207 -0.044319 0.0
1.406567 -0.029493 0.0
1.423091 -0.013652 0.0
1.433555 0.002829 0.0
1.437765 0.019617 0.0
1.435663 0.036213 0.0
1.427357 0.052008 0.0
1.413197 0.066316 0.0
1.393800 0.078457 0.0
1.370027 0.087835 0.0
1.342932 0.093975 0.0
1.313700 0.096546 0.0
1.283585 0.095377 0.0
1.253859 0.090463 0.0
1.225756 0.081985 0.0
1.200412 0.070319 0.0
1.178822 0.056040 0.0
1.161791 0.039891 0.0
1.149893 0.022731 0.0
1.143434 0.005547 0.0
1.142767 -0.010300 0.0
1.148415 -0.023650 0.0
1.160564 -0.033222 0.0
1.178574 -0.037688 0.0
1.200737 -0.035893 0.0
1.224377 -0.027242 0.0
1.246146 -0.012318 0.0
1.262956 0.007216 0.0
1.272785 0.029318 0.0
1.274581 0.051768 0.0
1.268080 0.072558 0.0
1.253713 0.089968 0.0
1.232495 0.102562 0.0
1.205823 0.109117 0.0
1.175151 0.108618 0.0
1.141559 0.100661 0.0
1.105695 0.086374 0.0
1.068572 0.068741 0.0
1.032247 0.050718 0.0
0.998359 0.032965 0.0
0.966847 0.016163 0.0
0.938592 0.001943 0.0
0.916518 -0.009264 0.0
0.902273 -0.017305 0.0
0.895168 -0.022422 0.0
0.893878 -0.025285 0.0
0.897212 -0.026362 0.0
0.904137 -0.025939 0.0
0.913817 -0.024139 0.0
0.925670 -0.020991 0.0
0.939366 -0.016684 0.0
0.954570 -0.011727 0.0
0.970746 -0.006708 0.0
0.987432 -0.002052 0.0
1.004273 0.001887 0.0
1.020739 0.004989 0.0
1.036053 0.007452 0.0
1.049197 0.009796 0.0
1.059059 0.012660 0.0
1.064755 0.016509 0.0
1.065802 0.021467 0.0
1.062100 0.027070 0.0
1.053876 0.032269 0.0
1.041527 0.035922 0.0
1.025446 0.037134 0.0
1.006000 0.035644 0.0
0.983653 0.031924 0.0
0.959227 0.026916 0.0
0.934160 0.021551 0.0
0.910496 0.016394 0.0
0.890475 0.011638 0.0
0.875858 0.007339 0.0
0.867373 0.003598 0.0
0.864612 0.000564 0.0
0.866250 -0.001606 0.0
0.870619 -0.002919 0.0
0.876321 -0.003455 0.0
0.882318 -0.003173 0.0
0.887821 -0.002000 0.0
0.892267 -0.000004 0.0
0.895291 0.002581 0.0
0.896726 0.005364 0.0
0.896663 0.007868 0.0
0.895445 0.009649 0.0
0.893574 0.010379 0.0
0.891643 0.009889 0.0
0.889495 0.007690 0.0
1.001489 -0.006557 0.0
1.007311 -0.020632 0.0
1.018771 -0.036154 0.0
1.035926 -0.053106 0.0
1.059107 -0.071098 0.0
1.088733 -0.089296 0.0
1.125027 -0.106298 0.0
1.167590 -0.120060 0.0
1.215022 -0.128287 0.0
1.264270 -0.128363 0.0
1.311439 -0.120539 0.0
1.353733 -0.106907 0.0
1.389912 -0.089654 0.0
1.419732 -0.070265 0.0
1.443293 -0.049469 0.0
1.460622 -0.027529 0.0
1.471550 -0.004687 0.0
1.475866 0.018607 0.0
1.473467 0.041725 0.0
1.464463 0.063806 0.0
1.449284 0.083856 0.0
1.428682 0.100917 0.0
1.403649 0.114181 0.0
1.375324 0.123047 0.0
1.344907 0.127123 0.0
1.313595 0.126227 0.0
1.282549 0.120385 0.0
1.252871 0.109845 0.0
1.225586 0.095087 0.0
1.201639 0.076810 0.0
1.181892 0.055901 0.0
1.167152 0.033359 0.0
1.158290 0.010241 0.0
1.156340 -0.012378 0.0
1.162261 -0.033141 0.0
1.176458 -0.050077 0.0
1.198399 -0.060783 0.0
1.226427 -0.062990 0.0
1.257874 -0.055232 0.0
1.289321 -0.037544 0.0
1.317022 -0.012067 0.0
1.338093 0.017700 0.0
1.351371 0.048312 0.0
1.356802 0.077084 0.0
1.354804 0.101805 0.0
1.346047 0.120700 0.0
1.331270 0.132427 0.0
1.311099 0.136151 0.0
1.285964 0.131856 0.0
1.256299 0.120707 0.0
1.222984 0.104847 0.0
1.187457 0.086465 0.0
1.151330 0.067233 0.0
1.116170 0.048567 0.0
1.083035 0.030929 0.0
1.052116 0.014742 0.0
1.024147 0.000904 0.0
1.000895 -0.010274 0.0
0.983398 -0.018647 0.0
0.971384 -0.024318 0.0
0.964077 -0.027601 0.0
0.960678 -0.028757 0.0
0.960552 -0.028101 0.0
0.963403 -0.026120 0.0
0.969335 -0.023426 0.0
0.978785 -0.020635 0.0
0.992284 -0.018309 0.0
1.010204 -0.016617 0.0
1.032522 -0.015292 0.0
1.058582 -0.013641 0.0
1.087029 -0.010701 0.0
1.115898 -0.005574 0.0
1.142782 0.002163 0.0
1.165425 0.012124 0.0
1.182457 0.023084 0.0
1.193345 0.033591 0.0
1.197780 0.042514 0.0
1.195525 0.048878 0.0
1.186590 0.052279 0.0
1.171386 0.052839 0.0
1.150847 0.050965 0.0
1.126365 0.047050 0.0
1.099550 0.041373 0.0
1.071974 0.034255 0.0
1.045092 0.026221 0.0
1.020331 0.017961 0.0
0.999130 0.010163 0.0
0.982837 0.003451 0.0
0.972230 -0.001737 0.0
0.966901 -0.005009 0.0
0.965430 -0.006145 0.0
0.966130 -0.005231 0.0
0.967512 -0.002600 0.0
0.968448 0.001217 0.0
0.968260 0.005481 0.0
0.966727 0.009348 0.0
0.964029 0.012085 0.0
0.960633 0.013209 0.0
0.957091 0.012533 0.0
0.953476 0.010809 0.0
1.001288 -0.009334 0.0
1.006487 -0.028877 0.0
1.017091 -0.049972 0.0
1.033592 -0.072945 0.0
1.056824 -0.097671 0.0
1.087857 -0.123381 0.0
1.127699 -0.148348 0.0
1.176612 -0.169486 0.0
1.233585 -0.183265 0.0
1.293412 -0.182460 0.0
1.348695 -0.168892 0.0
1.395619 -0.147772 0.0
1.433804 -0.123154 0.0
1.464322 -0.097105 0.0
1.488292 -0.070160 0.0
1.506182 -0.042056 0.0
1.517670 -0.012577 0.0
1.522106 0.017745 0.0
1.518984 0.048108 0.0
1.508171 0.077242 0.0
1.490089 0.103682 0.0
1.465680 0.126102 0.0
1.436224 0.143486 0.0
1.403139 0.155152 0.0
1.367855 0.160721 0.0
1.331733 0.160063 0.0
1.296051 0.153277 0.0
1.261997 0.140685 0.0
1.230688 0.122840 0.0
1.203173 0.100518 0.0
1.180430 0.074684 0.0
1.163362 0.046384 0.0
1.152851 0.016588 0.0
1.149866 -0.013789 0.0
1.155316 -0.043102 0.0
1.169684 -0.068683 0.0
1.192740 -0.087174 0.0
1.223525 -0.095411 0.0
1.260325 -0.091057 0.0
1.300334 -0.073176 0.0
1.339270 -0.043072 0.0
1.371866 -0.004963 0.0
1.394630 0.034935 0.0
1.407455 0.072206 0.0
1.411710 0.104426 0.0
1.408698 0.129849 0.0
1.399415 0.147338 0.0
1.384469 0.156356 0.0
1.364173 0.157083 0.0
1.338809 0.150509 0.0
1.308928 0.138241 0.0
1.275465 0.122060 0.0
1.239630 0.103600 0.0
1.202746 0.084245 0.0
1.166098 0.065035 0.0
1.130865 0.046788 0.0
1.097888 0.029802 0.0
1.067527 0.014441 0.0
1.040280 0.001382 0.0
1.016863 -0.008915 0.0
0.997348 -0.016183 0.0
0.981075 -0.020503 0.0
0.967302 -0.022456 0.0
0.955766 -0.023079 0.0
0.946948 -0.023581 0.0
0.941994 -0.024976 0.0
0.942386 -0.027859 0.0
0.949544 -0.032145 0.0
0.964419 -0.036958 0.0
0.987241 -0.040856 0.0
1.017520 -0.042213 0.0
1.054179 -0.039590 0.0
1.095565 -0.032091 0.0
1.139105 -0.019806 0.0
1.180927 -0.003839 0.0
1.216641 0.013912 0.0
1.243465 0.030933 0.0
1.260733 0.045447 0.0
1.268583 0.056796 0.0
1.267476 0.064633 0.0
1.258296 0.068891 0.0
1.242264 0.069639 0.0
1.220800 0.067062 0.0
1.195422 0.061520 0.0
1.167693 0.053568 0.0
1.139169 0.043898 0.0
1.111292 0.033304 0.0
1.085230 0.022665 0.0
1.061824 0.013062 0.0
1.041696 0.005648 0.0
1.025127 0.001238 0.0
1.011691 0.000122 0.0
1.000313 0.002043 0.0
0.989766 0.006186 0.0
0.979135 0.011332 0.0
0.968031 0.016134 0.0
0.956606 0.019421 0.0
0.945442 0.020433 0.0
0.935325 0.018967 0.0
0.927523 0.015792 0.0
1.001088 -0.011710 0.0
1.005551 -0.036163 0.0
1.014898 -0.062637 0.0
1.030003 -0.091886 0.0
1.052298 -0.124257 0.0
1.083807 -0.159338 0.0
1.126942 -0.195368 0.0
1.183537 -0.227975 0.0
1.254833 -0.253046 0.0
1.330076 -0.247750 0.0
1.393390 -0.222199 0.0
1.441214 -0.189214 0.0
1.476633 -0.155316 0.0
1.503712 -0.122540 0.0
1.525451 -0.090433 0.0
1.543109 -0.057330 0.0
1.555982 -0.021664 0.0
1.562091 0.016287 0.0
1.559706 0.055073 0.0
1.548114 0.092682 0.0
1.527619 0.126819 0.0
1.499395 0.155597 0.0
1.465094 0.177749 0.0
1.426504 0.192563 0.0
1.385360 0.199739 0.0
1.343268 0.199259 0.0
1.301704 0.191327 0.0
1.262042 0.176351 0.0
1.225576 0.154950 0.0
1.193515 0.127983 0.0
1.166927 0.096549 0.0
1.146577 0.061937 0.0
1.132708 0.025415 0.0
1.125128 -0.012050 0.0
1.123950 -0.049114 0.0
1.129772 -0.082860 0.0
1.143306 -0.109586 0.0
1.165528 -0.126006 0.0
1.197469 -0.129203 0.0
1.239115 -0.116685 0.0
1.288006 -0.087389 0.0
1.338176 -0.043413 0.0
1.380556 0.008241 0.0
1.409259 0.057371 0.0
1.424955 0.099310 0.0
1.430256 0.132676 0.0
1.427200 0.156849 0.0
1.417179 0.171812 0.0
1.401039 0.178063 0.0
1.379343 0.176590 0.0
1.352645 0.168740 0.0
1.321662 0.156007 0.0
1.287309 0.139842 0.0
1.250651 0.121544 0.0
1.212831 0.102203 0.0
1.174993 0.082693 0.0
1.138176 0.063691 0.0
1.103221 0.045868 0.0
1.070555 0.029868 0.0
1.039997 0.016574 0.0
1.010948 0.006891 0.0
0.982680 0.000963 0.0
0.954717 -0.002186 0.0
0.927428 -0.004525 0.0
0.902457 -0.008347 0.0
0.882600 -0.015398 0.0
0.870884 -0.026113 0.0
0.869385 -0.039550 0.0
0.878701 -0.053744 0.0
0.898211 -0.066400 0.0
0.926688 -0.075425 0.0
0.962799 -0.079149 0.0
1.005288 -0.076406 0.0
1.052870 -0.066613 0.0
1.103939 -0.049922 0.0
1.155889 -0.027669 0.0
1.204103 -0.002524 0.0
1.243333 0.022406 0.0
1.271129 0.044192 0.0
1.287690 0.061782 0.0
1.293842 0.074770 0.0
1.290668 0.082966 0.0
1.279458 0.086409 0.0
1.261635 0.085375 0.0
1.238695 0.080381 0.0
1.212145 0.072157 0.0
1.183426 0.061642 0.0
1.153830 0.049984 0.0
1.124434 0.038545 0.0
1.095991 0.028736 0.0
1.068855 0.021855 0.0
1.043034 0.018762 0.0
1.018323 0.019491 0.0
0.994472 0.023136 0.0
0.971383 0.028102 0.0
0.949287 0.032564 0.0
0.928781 0.034922 0.0
0.910712 0.034166 0.0
0.895990 0.030074 0.0
0.885814 0.022663 0.0
1.000805 -0.013602 0.0
1.004161 -0.042089 0.0
1.011397 -0.073295 0.0
1.023650 -0.108585 0.0
1.042908 -0.149112 0.0
1.072344 -0.195427 0.0
1.116557 -0.246627 0.0
1.180703 -0.297457 0.0
1.273463 -0.347620 0.0
1.368598 -0.323554 0.0
1.431709 -0.272819 0.0
1.467670 -0.222379 0.0
1.488625 -0.178524 0.0
1.503242 -0.141028 0.0
1.516832 -0.107276 0.0
1.531875 -0.073188 0.0
1.547527 -0.034331 0.0
1.559200 0.011174 0.0
1.561897 0.059874 0.0
1.553443 0.107926 0.0
1.533949 0.151566 0.0
1.504914 0.188109 0.0
1.468421 0.216031 0.0
1.426616 0.234675 0.0
1.381481 0.243905 0.0
1.334801 0.243865 0.0
1.288205 0.234880 0.0
1.243227 0.217438 0.0
1.201328 0.192229 0.0
1.163870 0.160223 0.0
1.131970 0.122796 0.0
1.106108 0.081902 0.0
1.085381 0.040046 0.0
1.067096 -0.000816 0.0
1.049085 -0.041160 0.0
1.032641 -0.080192 0.0
1.021811 -0.114958 0.0
1.021774 -0.142820 0.0
1.037338 -0.159893 0.0
1.070934 -0.161236 0.0
1.121800 -0.142595 0.0
1.185889 -0.102467 0.0
1.255112 -0.044307 0.0
1.315886 0.020442 0.0
1.358942 0.077486 0.0
1.385377 0.122764 0.0
1.398647 0.156548 0.0
1.401236 0.179545 0.0
1.394924 0.192781 0.0
1.381000 0.197492 0.0
1.360499 0.195037 0.0
1.334382 0.186810 0.0
1.303631 0.174142 0.0
1.269285 0.158248 0.0
1.232422 0.140183 0.0
1.194115 0.120858 0.0
1.155338 0.101119 0.0
1.116782 0.081950 0.0
1.078584 0.064650 0.0
1.040158 0.050776 0.0
1.000445 0.041451 0.0
0.958772 0.036343 0.0
0.916019 0.033151 0.0
0.875165 0.028281 0.0
0.840494 0.018489 0.0
0.815805 0.002312 0.0
0.803236 -0.019540 0.0
0.803079 -0.044468 0.0
0.814067 -0.069130 0.0
0.834263 -0.090720 0.0
0.861915 -0.107233 0.0
0.895749 -0.117287 0.0
0.934917 -0.119925 0.0
0.978781 -0.114540 0.0
1.026651 -0.100933 0.0
1.077491 -0.079449 0.0
1.129669 -0.051137 0.0
1.180107 -0.018650 0.0
1.223621 0.013938 0.0
1.256280 0.042816 0.0
1.277518 0.066347 0.0
1.288018 0.084063 0.0
1.288754 0.095787 0.0
1.280913 0.101662 0.0
1.265811 0.102137 0.0
1.244808 0.097955 0.0
1.219232 0.090139 0.0
1.190311 0.080004 0.0
1.159109 0.069125 0.0
1.126489 0.059219 0.0
1.093119 0.051877 0.0
1.059529 0.048151 0.0
1.026197 0.048145 0.0
0.993658 0.050873 0.0
0.962600 0.054511 0.0
0.933903 0.056947 0.0
0.908565 0.056384 0.0
0.887533 0.051804 0.0
0.871526 0.043164 0.0
0.861037 0.030238 0.0
1.000399 -0.014806 0.0
1.002112 -0.045954 0.0
1.006025 -0.080580 0.0
1.013267 -0.120794 0.0
1.026033 -0.168928 0.0
1.048388 -0.227401 0.0
1.087564 -0.298043 0.0
1.154749 -0.377371 0.0
1.277129 -0.482846 0.0
1.389064 -0.395398 0.0
1.424213 -0.299234 0.0
1.422207 -0.229919 0.0
1.410241 -0.179972 0.0
1.399230 -0.143185 0.0
1.395039 -0.114518 0.0
1.401518 -0.087468 0.0
1.419662 -0.053848 0.0
1.443744 -0.005064 0.0
1.461915 0.055243 0.0
1.466498 0.116427 0.0
1.457154 0.171903 0.0
1.435967 0.217993 0.0
1.405484 0.253124 0.0
1.367981 0.276890 0.0
1.325405 0.289400 0.0
1.279490 0.290965 0.0
1.231865 0.282001 0.0
1.184108 0.263053 0.0
1.137728 0.234892 0.0
1.094038 0.198707 0.0
1.053848 0.156402 0.0
1.016918 0.111088 0.0
0.981228 0.067277 0.0
0.942838 0.028629 0.0
0.897542 -0.007299 0.0
0.848409 -0.048476 0.0
0.808824 -0.096259 0.0
0.791462 -0.144121 0.0
0.800245 -0.182940 0.0
0.833047 -0.204588 0.0
0.886101 -0.203164 0.0
0.955714 -0.175600 0.0
1.037831 -0.122514 0.0
1.125714 -0.050008 0.0
1.204768 0.025826 0.0
1.263667 0.089090 0.0
1.303411 0.137210 0.0
1.327666 0.172039 0.0
1.338994 0.195271 0.0
1.339368 0.208552 0.0
1.330397 0.213449 0.0
1.313482 0.211429 0.0
1.289915 0.203840 0.0
1.260918 0.191893 0.0
1.227654 0.176666 0.0
1.191171 0.159165 0.0
1.152261 0.140499 0.0
1.111220 0.122169 0.0
1.067650 0.106199 0.0
1.020706 0.094597 0.0
0.970048 0.088000 0.0
0.917155 0.084360 0.0
0.865897 0.079146 0.0
0.821554 0.067484 0.0
0.788762 0.046749 0.0
0.769876 0.017628 0.0
0.764528 -0.016939 0.0
0.770442 -0.052825 0.0
0.784925 -0.086243 0.0
0.805833 -0.114711 0.0
0.831729 -0.136790 0.0
0.861778 -0.151614 0.0
0.895584 -0.158571 0.0
0.932996 -0.157170 0.0
0.973891 -0.147067 0.0
1.017949 -0.128213 0.0
1.064463 -0.101064 0.0
1.112157 -0.066855 0.0
1.158813 -0.028026 0.0
1.200151 0.010784 0.0
1.232166 0.045127 0.0
1.253751 0.073198 0.0
1.265203 0.094464 0.0
1.267214 0.108814 0.0
1.260742 0.116558 0.0
1.246885 0.118394 0.0
1.226775 0.115385 0.0
1.201507 0.108947 0.0
1.172097 0.100794 0.0
1.139477 0.092790 0.0
1.104529 0.086624 0.0
1.068153 0.083371 0.0
1.031340 0.083070 0.0
0.995218 0.084607 0.0
0.961044 0.086008 0.0
0.930109 0.085082 0.0
0.903577 0.080120 0.0
0.882301 0.070375 0.0
0.866694 0.056207 0.0
0.856751 0.037627 0.0
0.999867 -0.015072 0.0
0.999391 -0.046926 0.0
0.998695 -0.082825 0.0
0.998447 -0.125543 0.0
1.000219 -0.178717 0.0
1.007641 -0.247388 0.0
1.029098 -0.338687 0.0
1.083183 -0.457996 0.0
1.231635 -0.673053 0.0
1.330761 -0.416252 0.0
1.279764 -0.262531 0.0
1.206225 -0.191079 0.0
1.146254 -0.146876 0.0
1.099895 -0.118912 0.0
1.069022 -0.103727 0.0
1.058667 -0.094382 0.0
1.073856 -0.080268 0.0
1.116304 -0.045175 0.0
1.169598 0.023889 0.0
1.209788 0.103008 0.0
1.230737 0.173717 0.0
1.236059 0.232044 0.0
1.228610 0.277006 0.0
1.210419 0.308702 0.0
1.183093 0.327489 0.0
1.148136 0.333749 0.0
1.107065 0.327913 0.0
1.061357 0.310606 0.0
1.012090 0.282985 0.0
0.958981 0.247413 0.0
0.898942 0.207926 0.0
0.826606 0.168829 0.0
0.740568 0.131264 0.0
0.651693 0.091907 0.0
0.580990 0.045421 0.0
0.543177 -0.014249 0.0
0.537554 -0.085278 0.0
0.555158 -0.155344 0.0
0.587923 -0.213264 0.0
0.632271 -0.251414 0.0
0.687654 -0.264774 0.0
0.754454 -0.250404 0.0
0.832580 -0.207952 0.0
0.920629 -0.140502 0.0
1.014168 -0.056273 0.0
1.099792 0.026666 0.0
1.165985 0.093697 0.0
1.213188 0.144093 0.0
1.244494 0.180583 0.0
1.262074 0.205285 0.0
1.267735 0.220026 0.0
1.263081 0.226421 0.0
1.249588 0.225910 0.0
1.228619 0.219789 0.0
1.201398 0.209256 0.0
1.168910 0.195546 0.0
1.131731 0.180205 0.0
1.089875 0.165361 0.0
1.042956 0.153496 0.0
0.990981 0.146220 0.0
0.935554 0.142462 0.0
0.880593 0.137752 0.0
0.831590 0.126015 0.0
0.793590 0.102958 0.0
0.769318 0.068337 0.0
0.758734 0.025510 0.0
0.759835 -0.020574 0.0
0.769767 -0.065036 0.0
0.785863 -0.104612 0.0
0.806183 -0.137571 0.0
0.829487 -0.163129 0.0
0.855115 -0.180952 0.0
0.882887 -0.190811 0.0
0.912955 -0.192412 0.0
0.945613 -0.185379 0.0
0.981061 -0.169407 0.0
1.019197 -0.144520 0.0
1.059467 -0.111363 0.0
1.100753 -0.071460 0.0
1.141155 -0.027522 0.0
1.177058 0.015514 0.0
1.205078 0.053205 0.0
1.224081 0.084003 0.0
1.234012 0.107334 0.0
1.235292 0.123229 0.0
1.228626 0.132247 0.0
1.214858 0.135411 0.0
1.194888 0.134160 0.0
1.169626 0.130252 0.0
1.140008 0.125570 0.0
1.107038 0.121763 0.0
1.071854 0.119792 0.0
1.035773 0.119543 0.0
1.000269 0.119760 0.0
0.966873 0.118426 0.0
0.937001 0.113471 0.0
0.911767 0.103496 0.0
0.891846 0.088194 0.0
0.877436 0.068405 0.0
0.868397 0.044412 0.0
0.999263 -0.014201 0.0
0.996275 -0.044334 0.0
0.990137 -0.078582 0.0
0.980550 -0.119951 0.0
0.967267 -0.172798 0.0
0.950750 -0.244213 0.0
0.934448 -0.347017 0.0
0.933312 -0.502616 0.0
1.030152 -0.873726 0.0
1.021874 -0.202656 0.0
0.823242 -0.111237 0.0
0.671541 -0.105644 0.0
0.582954 -0.083753 0.0
0.518750 -0.071471 0.0
0.481148 -0.082694 0.0
0.481877 -0.105789 0.0
0.520131 -0.122304 0.0
0.589620 -0.115075 0.0
0.686595 -0.056479 0.0
0.785559 0.044222 0.0
0.859730 0.137383 0.0
0.910085 0.212699 0.0
0.941685 0.272199 0.0
0.956404 0.316981 0.0
0.955405 0.347534 0.0
0.939875 0.364192 0.0
0.910910 0.367507 0.0
0.868937 0.358693 0.0
0.812858 0.340244 0.0
0.740081 0.316041 0.0
0.650036 0.289383 0.0
0.550796 0.258949 0.0
0.460709 0.217270 0.0
0.398998 0.156488 0.0
0.374177 0.076363 0.0
0.381736 -0.014937 0.0
0.408682 -0.105912 0.0
0.443339 -0.186971 0.0
0.481231 -0.252295 0.0
0.522332 -0.297834 0.0
0.568720 -0.320124 0.0
0.623100 -0.316234 0.0
0.687560 -0.284708 0.0
0.762662 -0.226898 0.0
0.847059 -0.147812 0.0
0.936520 -0.056879 0.0
1.019013 0.028556 0.0
1.084289 0.096754 0.0
1.132383 0.148523 0.0
1.165483 0.186664 0.0
1.185230 0.213239 0.0
1.193110 0.229983 0.0
1.190522 0.238428 0.0
1.178774 0.239987 0.0
1.159001 0.236051 0.0
1.132042 0.228198 0.0
1.098307 0.218468 0.0
1.057852 0.209409 0.0
1.010941 0.203277 0.0
0.959059 0.200297 0.0
0.905747 0.197125 0.0
0.856291 0.187505 0.0
0.816025 0.165530 0.0
0.788333 0.129136 0.0
0.773822 0.080941 0.0
0.770994 0.026319 0.0
0.777356 -0.028845 0.0
0.790246 -0.079587 0.0
0.807362 -0.123273 0.0
0.826960 -0.158828 0.0
0.847836 -0.186051 0.0
0.869323 -0.205145 0.0
0.891283 -0.216349 0.0
0.914031 -0.219691 0.0
0.938182 -0.214907 0.0
0.964397 -0.201542 0.0
0.993122 -0.179248 0.0
1.024379 -0.148161 0.0
1.057654 -0.109225 0.0
1.091878 -0.064383 0.0
1.125190 -0.016840 0.0
1.154479 0.028250 0.0
1.177116 0.067318 0.0
1.192145 0.099059 0.0
1.199327 0.123042 0.0
1.198874 0.139554 0.0
1.191268 0.149478 0.0
1.177147 0.154184 0.0
1.157262 0.155375 0.0
1.132484 0.154843 0.0
1.103855 0.154090 0.0
1.072629 0.153876 0.0
1.040270 0.153899 0.0
1.008369 0.152808 0.0
0.978479 0.148664 0.0
0.951921 0.139665 0.0
0.929630 0.124828 0.0
0.912107 0.104305 0.0
0.899459 0.079352 0.0
0.891628 0.050336 0.0
0.998695 -0.012158 0.0
0.993335 -0.038029 0.0
0.981986 -0.067400 0.0
0.963187 -0.102748 0.0
0.934202 -0.147733 0.0
0.889988 -0.208547 0.0
0.820667 -0.297060 0.0
0.706881 -0.437651 0.0
0.317841 -0.750263 0.0
-0.461930 0.269529 0.0
-0.461930 0.000000 0.0
-0.037945 -0.026845 0.0
-0.068974 -0.054038 0.0
-0.036193 -0.069763 0.0
0.026765 -0.109758 0.0
0.098252 -0.150940 0.0
0.162583 -0.179738 0.0
0.225300 -0.189847 0.0
0.300383 -0.153766 0.0
0.396008 -0.053080 0.0
0.491645 0.064876 0.0
0.567912 0.158585 0.0
0.627069 0.235556 0.0
0.667779 0.298195 0.0
0.688699 0.346399 0.0
0.689331 0.380226 0.0
0.669260 0.400510 0.0
0.627791 0.409131 0.0
0.565019 0.408656 0.0
0.485311 0.400114 0.0
0.401150 0.379516 0.0
0.331336 0.337870 0.0
0.291598 0.268173 0.0
0.286033 0.172861 0.0
0.307792 0.063052 0.0
0.344525 -0.045917 0.0
0.385074 -0.142426 0.0
0.423740 -0.223779 0.0
0.458900 -0.288537 0.0
0.491424 -0.335217 0.0
0.524159 -0.361863 0.0
0.561192 -0.365906 0.0
0.606608 -0.344912 0.0
0.663030 -0.298218 0.0
0.730655 -0.228514 0.0
0.807225 -0.142208 0.0
0.887773 -0.049155 0.0
0.961662 0.035299 0.0
1.020817 0.102729 0.0
1.065198 0.154977 0.0
1.096076 0.194300 0.0
1.114614 0.222505 0.0
1.121934 0.241173 0.0
1.119099 0.251825 0.0
1.107012 0.256073 0.0
1.086302 0.255845 0.0
1.057329 0.253529 0.0
1.020527 0.251604 0.0
0.977175 0.251345 0.0
0.930238 0.251049 0.0
0.884466 0.245457 0.0
0.845206 0.227888 0.0
0.816493 0.194126 0.0
0.799825 0.144899 0.0
0.794432 0.085082 0.0
0.798379 0.021060 0.0
0.809313 -0.040881 0.0
0.824880 -0.096008 0.0
0.843064 -0.142153 0.0
0.862226 -0.178708 0.0
0.881145 -0.205966 0.0
0.899085 -0.224657 0.0
0.915846 -0.235558 0.0
0.931783 -0.239167 0.0
0.947705 -0.235503 0.0
0.964660 -0.224116 0.0
0.983624 -0.204364 0.0
1.005196 -0.175874 0.0
1.029415 -0.139006 0.0
1.055723 -0.095132 0.0
1.083010 -0.046690 0.0
1.109284 0.002536 0.0
1.131963 0.047715 0.0
1.149174 0.086421 0.0
1.160063 0.117609 0.0
1.164334 0.141168 0.0
1.162068 0.157736 0.0
1.153604 0.168512 0.0
1.139486 0.175049 0.0
1.120474 0.178958 0.0
1.097570 0.181508 0.0
1.072032 0.183221 0.0
1.045323 0.183621 0.0
1.018970 0.181340 0.0
0.994371 0.174621 0.0
0.972621 0.162016 0.0
0.954428 0.142961 0.0
0.940136 0.117987 0.0
0.929824 0.088630 0.0
0.923577 0.055137 0.0
0.998289 -0.009143 0.0
0.991241 -0.028636 0.0
0.976224 -0.050426 0.0
0.951073 -0.075772 0.0
0.911623 -0.106273 0.0
0.849869 -0.144040 0.0
0.749195 -0.191573 0.0
0.570274 -0.250431 0.0
0.227126 -0.305314 0.0
0.000000 0.269529 0.0
-0.000000 -0.000000 0.0
0.000000 0.000000 0.0
-0.031819 -0.030477 0.0
-0.068653 -0.090611 0.0
-0.067444 -0.153077 0.0
-0.054818 -0.191734 0.0
-0.045008 -0.213086 0.0
-0.032683 -0.231540 0.0
0.000015 -0.219855 0.0
0.067852 -0.150452 0.0
0.163297 -0.028834 0.0
0.256032 0.083293 0.0
0.330805 0.176917 0.0
0.387119 0.259811 0.0
0.421423 0.329559 0.0
0.432235 0.385622 0.0
0.418995 0.428425 0.0
0.383480 0.458200 0.0
0.332225 0.473615 0.0
0.278047 0.469041 0.0
0.237665 0.435131 0.0
0.224224 0.365510 0.0
0.240668 0.263828 0.0
0.280495 0.142944 0.0
0.332863 0.018842 0.0
0.386150 -0.091727 0.0
0.433485 -0.184501 0.0
0.473111 -0.259996 0.0
0.504378 -0.318748 0.0
0.528045 -0.361198 0.0
0.546650 -0.387223 0.0
0.564591 -0.395521 0.0
0.587446 -0.383568 0.0
0.620324 -0.348862 0.0
0.665952 -0.291123 0.0
0.723706 -0.213923 0.0
0.790139 -0.124422 0.0
0.859321 -0.032506 0.0
0.922001 0.048700 0.0
0.972345 0.114282 0.0
1.010353 0.166109 0.0
1.036594 0.205918 0.0
1.051755 0.235278 0.0
1.056527 0.255783 0.0
1.051494 0.269236 0.0
1.037097 0.277789 0.0
1.013821 0.283834 0.0
0.982715 0.289207 0.0
0.946122 0.293687 0.0
0.908034 0.293732 0.0
0.873439 0.283140 0.0
0.846738 0.256166 0.0
0.830285 0.211015 0.0
0.824163 0.150800 0.0
0.827050 0.081686 0.0
0.837155 0.010403 0.0
0.852373 -0.056377 0.0
0.870520 -0.114227 0.0
0.889737 -0.161333 0.0
0.908495 -0.197448 0.0
0.925623 -0.223274 0.0
0.940360 -0.240026 0.0
0.952442 -0.249033 0.0
0.962172 -0.251358 0.0
0.970415 -0.247477 0.0
0.978461 -0.237144 0.0
0.987731 -0.219569 0.0
0.999400 -0.193909 0.0
1.014092 -0.159881 0.0
1.031747 -0.118221 0.0
1.051676 -0.070818 0.0
1.072649 -0.020584 0.0
1.092656 0.028150 0.0
1.109593 0.071838 0.0
1.122131 0.108764 0.0
1.129536 0.138337 0.0
1.131510 0.160858 0.0
1.128091 0.177272 0.0
1.119603 0.188894 0.0
1.106654 0.197074 0.0
1.090148 0.202802 0.0
1.071260 0.206354 0.0
1.051330 0.207127 0.0
1.031698 0.203819 0.0
1.013508 0.194931 0.0
0.997575 0.179389 0.0
0.984363 0.156994 0.0
0.974064 0.128545 0.0
0.966728 0.095720 0.0
0.962519 0.058502 0.0
0.998127 -0.005559 0.0
0.990421 -0.017466 0.0
0.974084 -0.030242 0.0
0.947038 -0.043760 0.0
0.905583 -0.057380 0.0
0.843652 -0.069248 0.0
0.751932 -0.073971 0.0
0.619738 -0.056917 0.0
0.446163 0.021648 0.0
0.175040 0.157467 0.0
0.000000 0.000000 0.0
-0.000000 -0.000000 0.0
0.000000 0.000000 0.0
-0.043567 -0.042798 0.0
-0.107384 -0.139051 0.0
-0.146621 -0.179148 0.0
-0.183992 -0.198110 0.0
-0.209951 -0.232880 0.0
-0.210916 -0.250249 0.0
-0.179946 -0.218866 0.0
-0.107594 -0.128217 0.0
-0.006504 -0.011149 0.0
0.084451 0.105632 0.0
0.148851 0.210383 0.0
0.191174 0.302360 0.0
0.211846 0.381338 0.0
0.212298 0.445497 0.0
0.198524 0.490415 0.0
0.181355 0.509824 0.0
0.174079 0.494287 0.0
0.187596 0.436749 0.0
0.225240 0.339687 0.0
0.282616 0.215831 0.0
0.351590 0.082140 0.0
0.420504 -0.041634 0.0
0.480707 -0.144741 0.0
0.530535 -0.228651 0.0
0.569483 -0.294419 0.0
0.597259 -0.343369 0.0
0.614183 -0.377167 0.0
0.621725 -0.397400 0.0
0.623175 -0.404736 0.0
0.623974 -0.398007 0.0
0.630893 -0.374221 0.0
0.649839 -0.330339 0.0
0.683436 -0.266058 0.0
0.730139 -0.185423 0.0
0.785394 -0.095942 0.0
0.842331 -0.007482 0.0
0.893270 0.069181 0.0
0.934278 0.132194 0.0
0.965002 0.182868 0.0
0.985550 0.222619 0.0
0.996171 0.253049 0.0
0.997141 0.276033 0.0
0.988831 0.293699 0.0
0.972029 0.308003 0.0
0.948491 0.319683 0.0
0.921368 0.326927 0.0
0.894981 0.324967 0.0
0.873689 0.307792 0.0
0.860446 0.271460 0.0
0.856127 0.216493 0.0
0.860026 0.147545 0.0
0.870803 0.071277 0.0
0.886901 -0.005389 0.0
0.906227 -0.075130 0.0
0.926609 -0.134003 0.0
0.946379 -0.180543 0.0
0.964210 -0.214828 0.0
0.979101 -0.237913 0.0
0.990399 -0.251422 0.0
0.997858 -0.257177 0.0
1.001721 -0.256808 0.0
1.002805 -0.251355 0.0
1.002467 -0.240975 0.0
1.002405 -0.224945 0.0