# vtk DataFile Version 3.0
Scalar Field
ASCII
DATASET RECTILINEAR_GRID
DIMENSIONS 100 26 1
X_COORDINATES 100 double
0.050000 0.150000 0.250000 0.350000 0.450000 0.550000 0.650000 0.750000 0.850000 0.950000 1.050000 1.150000 1.250000 1.350000 1.450000 1.550000 1.650000 1.750000 1.850000 1.950000 2.050000 2.150000 2.250000 2.350000 2.450000 2.550000 2.650000 2.750000 2.850000 2.950000 3.050000 3.150000 3.250000 3.350000 3.450000 3.550000 3.650000 3.750000 3.850000 3.950000 4.050000 4.150000 4.250000 4.350000 4.450000 4.550000 4.650000 4.750000 4.850000 4.950000 5.050000 5.150000 5.250000 5.350000 5.450000 5.550000 5.650000 5.750000 5.850000 5.950000 6.050000 6.150000 6.250000 6.350000 6.450000 6.550000 6.650000 6.750000 6.850000 6.950000 7.050000 7.150000 7.250000 7.350000 7.450000 7.550000 7.650000 7.750000 7.850000 7.950000 8.050000 8.150000 8.250000 8.350000 8.450000 8.550000 8.650000 8.750000 8.850000 8.950000 9.050000 9.150000 9.250000 9.350000 9.450000 9.550000 9.650000 9.750000 9.850000 9.950000 
Y_COORDINATES 26 double
0.050000 0.150000 0.250000 0.350000 0.450000 0.550000 0.650000 0.750000 0.850000 0.950000 1.050000 1.150000 1.250000 1.350000 1.450000 1.550000 1.650000 1.750000 1.850000 1.950000 2.050000 2.150000 2.250000 2.350000 2.450000 2.550000 
Z_COORDINATES 1 double
0.0
POINT_DATA 2600
SCALARS Skalarfeld double 1
LOOKUP_TABLE default
0.299785
0.284738
0.270206
0.253147
0.232449
0.207649
0.178683
0.145861
0.109912
0.071986
0.033553
-0.003843
-0.038852
-0.070500
-0.098240
-0.121916
-0.141680
-0.157739
-0.170090
-0.178993
-0.184552
-0.186807
-0.185815
-0.181739
-0.174912
-0.165855
-0.155238
-0.143793
-0.132213
-0.121051
-0.110643
-0.101070
-0.092168
-0.083587
-0.074881
-0.065633
-0.055564
-0.044609
-0.032967
-0.020231
-0.007035
0.005258
0.015816
0.024196
0.030096
0.033538
0.034779
0.033590
0.029896
0.023730
0.015276
0.005035
-0.005950
-0.016053
-0.023587
-0.027805
-0.029385
-0.029017
-0.027913
-0.026029
-0.023072
-0.019381
-0.015408
-0.011449
-0.007727
-0.004408
-0.001593
0.000661
0.002339
0.003467
0.004097
0.004307
0.004185
0.003828
0.003332
0.002785
0.002263
0.001829
0.001527
0.001384
0.001412
0.001606
0.001950
0.002420
0.002987
0.003623
0.004301
0.005000
0.005702
0.006401
0.007091
0.007777
0.008464
0.009163
0.009885
0.010639
0.011433
0.012270
0.013137
0.014440
0.290523
0.284286
0.272736
0.256877
0.236572
0.211610
0.181960
0.147943
0.110370
0.070599
0.030419
-0.008347
-0.044216
-0.076225
-0.103928
-0.127288
-0.146501
-0.161901
-0.174000
-0.182912
-0.188635
-0.191127
-0.190356
-0.186399
-0.179537
-0.170274
-0.159298
-0.147377
-0.135250
-0.123511
-0.112528
-0.102407
-0.092999
-0.083960
-0.074846
-0.065238
-0.054847
-0.043545
-0.031247
-0.018262
-0.005504
0.006277
0.016458
0.024667
0.030833
0.034561
0.035764
0.034443
0.030564
0.024151
0.015358
0.004677
-0.006744
-0.017062
-0.024422
-0.028102
-0.029011
-0.029122
-0.028416
-0.026781
-0.023646
-0.019811
-0.015781
-0.011754
-0.007967
-0.004590
-0.001725
0.000569
0.002275
0.003416
0.004049
0.004251
0.004115
0.003739
0.003223
0.002656
0.002117
0.001671
0.001362
0.001218
0.001249
0.001450
0.001804
0.002286
0.002865
0.003513
0.004201
0.004908
0.005617
0.006320
0.007015
0.007706
0.008401
0.009111
0.009851
0.010634
0.011473
0.012371
0.013305
0.014895
0.292788
0.288913
0.279279
0.264491
0.244509
0.219081
0.188047
0.151637
0.110759
0.067170
0.023408
-0.018075
-0.055543
-0.088103
-0.115562
-0.138205
-0.156583
-0.171337
-0.183037
-0.192075
-0.198422
-0.201729
-0.201724
-0.198255
-0.191447
-0.181745
-0.169856
-0.156617
-0.142855
-0.129258
-0.116291
-0.104157
-0.092806
-0.081996
-0.071383
-0.060625
-0.049465
-0.037766
-0.025475
-0.013298
-0.001706
0.008844
0.017900
0.025118
0.030331
0.033545
0.034002
0.032057
0.027854
0.021476
0.013137
0.003388
-0.006709
-0.015693
-0.022321
-0.026303
-0.028298
-0.029038
-0.028385
-0.026008
-0.022928
-0.019431
-0.015716
-0.011769
-0.008036
-0.004695
-0.001840
0.000450
0.002148
0.003277
0.003891
0.004068
0.003901
0.003494
0.002946
0.002352
0.001794
0.001336
0.001023
0.000883
0.000925
0.001142
0.001515
0.002016
0.002614
0.003278
0.003978
0.004693
0.005408
0.006114
0.006812
0.007506
0.008209
0.008935
0.009705
0.010539
0.011463
0.012504
0.013698
0.015810
0.302235
0.299141
0.290586
0.276586
0.256775
0.230552
0.197358
0.157110
0.110750
0.060664
0.011012
-0.034586
-0.074120
-0.107005
-0.133571
-0.154667
-0.171379
-0.184809
-0.195856
-0.204980
-0.212275
-0.216920
-0.218188
-0.215523
-0.208800
-0.198392
-0.185067
-0.169790
-0.153535
-0.137132
-0.121185
-0.106040
-0.091805
-0.078400
-0.065638
-0.053307
-0.041233
-0.029322
-0.017575
-0.006298
0.004061
0.013199
0.020741
0.026357
0.029874
0.031293
0.030686
0.027732
0.022982
0.016734
0.009237
0.000971
-0.007289
-0.014610
-0.020253
-0.024005
-0.026090
-0.026762
-0.026077
-0.024161
-0.021444
-0.018082
-0.014293
-0.010635
-0.007214
-0.004123
-0.001419
0.000742
0.002325
0.003353
0.003874
0.003961
0.003707
0.003215
0.002592
0.001935
0.001327
0.000836
0.000509
0.000370
0.000426
0.000668
0.001071
0.001605
0.002233
0.002922
0.003642
0.004370
0.005092
0.005800
0.006496
0.007188
0.007892
0.008626
0.009417
0.010293
0.011292
0.012463
0.013878
0.016324
0.317388
0.314707
0.306986
0.293797
0.274276
0.247174
0.211118
0.165228
0.110198
0.049206
-0.009671
-0.060805
-0.102314
-0.134558
-0.158870
-0.176966
-0.190687
-0.201810
-0.211766
-0.221263
-0.230000
-0.236885
-0.240205
-0.238729
-0.231982
-0.220339
-0.204782
-0.186559
-0.166905
-0.146860
-0.127200
-0.108426
-0.090800
-0.074400
-0.059191
-0.045082
-0.031971
-0.019772
-0.008428
0.002059
0.011400
0.019219
0.025124
0.028747
0.029980
0.029010
0.026211
0.022052
0.016635
0.010442
0.003789
-0.002985
-0.009425
-0.015021
-0.019358
-0.022271
-0.023811
-0.024092
-0.023221
-0.021361
-0.018760
-0.015637
-0.012252
-0.008893
-0.005662
-0.002745
-0.000324
0.001593
0.002948
0.003781
0.004127
0.004045
0.003628
0.002982
0.002219
0.001440
0.000737
0.000179
-0.000186
-0.000335
-0.000264
0.000012
0.000460
0.001044
0.001722
0.002453
0.003207
0.003957
0.004691
0.005401
0.006093
0.006776
0.007469
0.008197
0.008988
0.009879
0.010915
0.012154
0.013674
0.016225
0.337467
0.335204
0.328524
0.316635
0.298072
0.270605
0.231376
0.177681
0.108998
0.028859
-0.044000
-0.101297
-0.143179
-0.172417
-0.192002
-0.204762
-0.213457
-0.220770
-0.228991
-0.239346
-0.251213
-0.262059
-0.268943
-0.269414
-0.262522
-0.248851
-0.229920
-0.207532
-0.183359
-0.158738
-0.134641
-0.111708
-0.090319
-0.070664
-0.052811
-0.036751
-0.022426
-0.009747
0.001410
0.011216
0.019778
0.026481
0.030862
0.032409
0.031119
0.027434
0.022019
0.015616
0.008958
0.002782
-0.003152
-0.008532
-0.013245
-0.017137
-0.020011
-0.021773
-0.022435
-0.022066
-0.020769
-0.018691
-0.016024
-0.012975
-0.009759
-0.006584
-0.003605
-0.000978
0.001178
0.002816
0.003938
0.004522
0.004607
0.004276
0.003621
0.002752
0.001784
0.000830
-0.000013
-0.000671
-0.001096
-0.001264
-0.001174
-0.000851
-0.000336
0.000322
0.001072
0.001868
0.002672
0.003458
0.004211
0.004926
0.005609
0.006275
0.006945
0.007646
0.008411
0.009282
0.010307
0.011544
0.013066
0.015574
0.361685
0.360016
0.354942
0.345394
0.329293
0.303123
0.261560
0.197914
0.107272
-0.009185
-0.101406
-0.161820
-0.199079
-0.220873
-0.232063
-0.236340
-0.237217
-0.238422
-0.243596
-0.255157
-0.272714
-0.291516
-0.304691
-0.308519
-0.301439
-0.284742
-0.261048
-0.233108
-0.203219
-0.173084
-0.143860
-0.116288
-0.090810
-0.067669
-0.046983
-0.028784
-0.013048
0.000291
0.011336
0.020255
0.027774
0.033492
0.036761
0.036627
0.033282
0.027468
0.020033
0.011767
0.003392
-0.004464
-0.010334
-0.014731
-0.018027
-0.020467
-0.021977
-0.022563
-0.022258
-0.021127
-0.019263
-0.016798
-0.013896
-0.010743
-0.007525
-0.004423
-0.001588
0.000851
0.002803
0.004218
0.005081
0.005397
0.005208
0.004591
0.003645
0.002488
0.001247
0.000047
-0.000998
-0.001793
-0.002290
-0.002477
-0.002355
-0.001960
-0.001348
-0.000582
0.000273
0.001161
0.002037
0.002874
0.003654
0.004376
0.005048
0.005687
0.006317
0.006970
0.007682
0.008494
0.009457
0.010628
0.012072
0.014438
0.388936
0.388123
0.385482
0.379851
0.368775
0.347495
0.307244
0.233349
0.105752
-0.085616
-0.196238
-0.245332
-0.267610
-0.276254
-0.275551
-0.268629
-0.258976
-0.251145
-0.250611
-0.261924
-0.286288
-0.318677
-0.343922
-0.353426
-0.346396
-0.325829
-0.296283
-0.261854
-0.225578
-0.189489
-0.154874
-0.122512
-0.092858
-0.066166
-0.042568
-0.022124
-0.004853
0.009232
0.020093
0.027714
0.032246
0.035919
0.038606
0.037327
0.032752
0.026146
0.018473
0.010260
0.001879
-0.006238
-0.013553
-0.019000
-0.021726
-0.023581
-0.024278
-0.024038
-0.022980
-0.021197
-0.018796
-0.015908
-0.012694
-0.009328
-0.005989
-0.002845
-0.000038
0.002314
0.004132
0.005370
0.006016
0.006084
0.005622
0.004708
0.003447
0.001970
0.000421
-0.001055
-0.002329
-0.003297
-0.003875
-0.004067
-0.003882
-0.003372
-0.002613
-0.001693
-0.000691
0.000324
0.001300
0.002205
0.003023
0.003754
0.004410
0.005012
0.005587
0.006169
0.006796
0.007513
0.008367
0.009413
0.010713
0.012857
0.417623
0.417937
0.418602
0.418714
0.416117
0.405832
0.376294
0.300564
0.111032
-0.251814
-0.341277
-0.339334
-0.334544
-0.328227
-0.315994
-0.298704
-0.278673
-0.260336
-0.251163
-0.258334
-0.285404
-0.328265
-0.373424
-0.393604
-0.387719
-0.363669
-0.328775
-0.288646
-0.246931
-0.205851
-0.166719
-0.130312
-0.097091
-0.067329
-0.041196
-0.018811
-0.000301
0.014143
0.024259
0.029810
0.031091
0.029515
0.027382
0.024852
0.021016
0.016507
0.011582
0.006237
0.000417
-0.005781
-0.011999
-0.017606
-0.022462
-0.024723
-0.025421
-0.025039
-0.023748
-0.021684
-0.018988
-0.015818
-0.012353
-0.008779
-0.005284
-0.002038
0.000811
0.003149
0.004899
0.006017
0.006493
0.006345
0.005624
0.004411
0.002820
0.000999
-0.000888
-0.002669
-0.004188
-0.005320
-0.005987
-0.006147
-0.005838
-0.005143
-0.004169
-0.003029
-0.001826
-0.000643
0.000463
0.001456
0.002322
0.003065
0.003701
0.004254
0.004757
0.005246
0.005760
0.006344
0.007044
0.007914
0.009010
0.010852
0.445661
0.447257
0.451776
0.458984
0.468034
0.476125
0.474275
0.432182
0.212766
-0.563329
-0.511867
-0.398425
-0.373145
-0.361418
-0.344696
-0.323197
-0.300259
-0.277428
-0.263019
-0.264649
-0.286733
-0.327533
-0.375510
-0.411469
-0.410775
-0.385224
-0.347772
-0.305147
-0.261192
-0.218034
-0.176908
-0.138587
-0.103590
-0.072290
-0.044999
-0.022068
-0.004015
0.008454
0.014868
0.015690
0.012511
0.007583
0.002655
-0.000306
-0.001450
-0.001761
-0.001890
-0.002412
-0.003791
-0.006269
-0.009780
-0.013948
-0.018259
-0.021916
-0.024142
-0.024346
-0.023471
-0.021659
-0.019083
-0.015936
-0.012431
-0.008786
-0.005214
-0.001905
0.000980
0.003316
0.005019
0.006040
0.006366
0.006013
0.005031
0.003504
0.001558
-0.000640
-0.002895
-0.004999
-0.006763
-0.008038
-0.008738
-0.008791
-0.008262
-0.007283
-0.006005
-0.004574
-0.003114
-0.001720
-0.000457
0.000640
0.001562
0.002317
0.002926
0.003420
0.003834
0.004208
0.004582
0.005000
0.005506
0.006150
0.006985
0.008443
0.470685
0.473483
0.481660
0.495822
0.517002
0.546579
0.585669
0.631640
0.719579
0.078125
-0.447981
-0.384095
-0.378253
-0.374190
-0.364634
-0.346780
-0.327112
-0.309162
-0.296380
-0.294067
-0.306390
-0.333264
-0.368227
-0.396175
-0.404167
-0.381535
-0.345015
-0.304092
-0.262224
-0.221094
-0.181704
-0.144809
-0.111048
-0.081010
-0.055334
-0.034833
-0.020512
-0.013180
-0.012646
-0.017159
-0.023808
-0.029786
-0.033335
-0.032621
-0.028982
-0.023864
-0.018399
-0.013495
-0.009859
-0.007951
-0.007926
-0.009608
-0.012517
-0.015912
-0.019002
-0.021191
-0.021263
-0.020221
-0.018225
-0.015490
-0.012261
-0.008793
-0.005330
-0.002095
0.000726
0.002991
0.004597
0.005484
0.005627
0.005034
0.003749
0.001861
-0.000490
-0.003109
-0.005761
-0.008192
-0.010171
-0.011523
-0.012151
-0.011956
-0.011075
-0.009702
-0.008033
-0.006247
-0.004486
-0.002856
-0.001421
-0.000213
0.000763
0.001524
0.002097
0.002518
0.002828
0.003067
0.003277
0.003498
0.003774
0.004148
0.004669
0.005653
0.490486
0.494132
0.504872
0.523838
0.553197
0.596732
0.661008
0.756954
0.888395
0.909959
0.000000
-0.380042
-0.375989
-0.376163
-0.374944
-0.371774
-0.366072
-0.360011
-0.353070
-0.348365
-0.348080
-0.353064
-0.362288
-0.367429
-0.365051
-0.349121
-0.317813
-0.281889
-0.245822
-0.210579
-0.176742
-0.144976
-0.116030
-0.090752
-0.070172
-0.055546
-0.048059
-0.047987
-0.053795
-0.062229
-0.069663
-0.073588
-0.071920
-0.065403
-0.055844
-0.044883
-0.033853
-0.023800
-0.015501
-0.009473
-0.005962
-0.004920
-0.005983
-0.008500
-0.011649
-0.014603
-0.016688
-0.016778
-0.015747
-0.013795
-0.011180
-0.008183
-0.005081
-0.002130
0.000457
0.002508
0.003900
0.004551
0.004418
0.003495
0.001820
-0.000513
-0.003342
-0.006433
-0.009497
-0.012226
-0.014346
-0.015670
-0.016034
-0.015418
-0.014057
-0.012198
-0.010082
-0.007909
-0.005836
-0.003970
-0.002371
-0.001065
-0.000048
0.000704
0.001226
0.001560
0.001749
0.001835
0.001860
0.001862
0.001878
0.001944
0.002102
0.002525
0.503508
0.507477
0.519132
0.539589
0.570800
0.615647
0.677396
0.757892
0.851333
0.931523
0.836506
0.000000
-0.378003
-0.380017
-0.387160
-0.399559
-0.414041
-0.426874
-0.434118
-0.426758
-0.407882
-0.383809
-0.359605
-0.335784
-0.314483
-0.291566
-0.266616
-0.238131
-0.209770
-0.182932
-0.157472
-0.133872
-0.112943
-0.095778
-0.083777
-0.078442
-0.080557
-0.089056
-0.100679
-0.111163
-0.117012
-0.116205
-0.107384
-0.094179
-0.078397
-0.061750
-0.045638
-0.031115
-0.018913
-0.009489
-0.003055
0.000412
0.001188
-0.000187
-0.002950
-0.006231
-0.009208
-0.011149
-0.011314
-0.010417
-0.008700
-0.006448
-0.003962
-0.001523
0.000624
0.002281
0.003297
0.003565
0.003017
0.001632
-0.000557
-0.003443
-0.006829
-0.010430
-0.013891
-0.016846
-0.018986
-0.020123
-0.019989
-0.018815
-0.016889
-0.014506
-0.011935
-0.009393
-0.007037
-0.004970
-0.003243
-0.001872
-0.000843
-0.000124
0.000327
0.000557
0.000610
0.000530
0.000356
0.000120
-0.000146
-0.000414
-0.000657
-0.000874
0.509166
0.512929
0.523900
0.542842
0.571039
0.610000
0.660783
0.720970
0.776257
0.790333
0.741489
0.618649
0.000000
-0.391649
-0.403281
-0.434687
-0.472397
-0.507856
-0.528875
-0.514410
-0.472479
-0.416713
-0.358149
-0.304274
-0.259476
-0.223220
-0.195512
-0.173109
-0.153304
-0.135853
-0.120113
-0.106559
-0.096152
-0.090241
-0.090428
-0.097865
-0.112010
-0.129831
-0.146565
-0.157661
-0.160282
-0.151618
-0.136083
-0.116461
-0.094948
-0.073336
-0.053002
-0.034921
-0.019715
-0.007720
0.000949
0.006362
0.008758
0.008577
0.006471
0.003256
-0.000205
-0.003174
-0.004945
-0.005230
-0.004593
-0.003285
-0.001615
0.000113
0.001632
0.002716
0.003187
0.002908
0.001788
-0.000209
-0.003048
-0.006596
-0.010607
-0.014727
-0.018535
-0.021610
-0.023618
-0.024357
-0.023556
-0.021746
-0.019241
-0.016363
-0.013394
-0.010550
-0.007983
-0.005782
-0.003988
-0.002602
-0.001601
-0.000946
-0.000589
-0.000480
-0.000575
-0.000830
-0.001212
-0.001693
-0.002251
-0.002869
-0.003535
-0.004445
0.507850
0.511067
0.520356
0.536083
0.558652
0.588080
0.622925
0.657806
0.679276
0.662301
0.589293
0.495810
0.320895
0.000000
-0.449311
-0.495340
-0.533300
-0.584940
-0.611192
-0.581739
-0.517467
-0.435240
-0.348800
-0.268967
-0.202559
-0.152648
-0.116992
-0.093776
-0.079940
-0.071186
-0.065004
-0.062370
-0.064502
-0.072792
-0.088420
-0.111246
-0.138668
-0.165689
-0.186594
-0.197251
-0.193870
-0.177887
-0.156025
-0.130964
-0.104935
-0.079666
-0.056400
-0.035952
-0.018784
-0.005086
0.005145
0.012044
0.015842
0.016891
0.015700
0.012958
0.009468
0.006010
0.003187
0.001603
0.001095
0.001378
0.002124
0.003016
0.003771
0.004142
0.003922
0.002947
0.001104
-0.001649
-0.005263
-0.009562
-0.014234
-0.018850
-0.022921
-0.025995
-0.027757
-0.027685
-0.026257
-0.023853
-0.020845
-0.017573
-0.014319
-0.011288
-0.008615
-0.006373
-0.004586
-0.003245
-0.002318
-0.001759
-0.001517
-0.001543
-0.001791
-0.002224
-0.002813
-0.003537
-0.004384
-0.005350
-0.006441
-0.008058
0.500572
0.502997
0.509893
0.521219
0.536664
0.555168
0.573999
0.587170
0.583479
0.545282
0.454648
0.302549
0.145981
-0.298614
-0.570474
-0.510788
-0.558293
-0.627695
-0.639705
-0.596255
-0.517793
-0.421531
-0.321347
-0.227898
-0.148544
-0.087344
-0.044539
-0.017452
-0.002345
0.000851
-0.000657
-0.008671
-0.024335
-0.048339
-0.080534
-0.118806
-0.158463
-0.193044
-0.216299
-0.224221
-0.212877
-0.191922
-0.165634
-0.137068
-0.108452
-0.081356
-0.056812
-0.035429
-0.017491
-0.003042
0.008033
0.015939
0.020916
0.023240
0.023268
0.021501
0.018587
0.015236
0.012072
0.009509
0.008031
0.007368
0.007200
0.007223
0.007150
0.006722
0.005709
0.003923
0.001238
-0.002385
-0.006862
-0.011958
-0.017282
-0.022323
-0.026534
-0.029457
-0.030635
-0.029816
-0.027790
-0.024910
-0.021553
-0.018054
-0.014676
-0.011602
-0.008946
-0.006763
-0.005062
-0.003824
-0.003010
-0.002572
-0.002460
-0.002625
-0.003026
-0.003630
-0.004414
-0.005367
-0.006486
-0.007781
-0.009273
-0.011568
0.488797
0.490333
0.494604
0.501282
0.509600
0.517950
0.523209
0.519799
0.498639
0.446254
0.344768
0.169845
-0.130286
-0.743210
-0.630160
-0.526858
-0.561867
-0.607723
-0.599686
-0.550564
-0.472361
-0.378539
-0.280743
-0.188089
-0.107256
-0.042578
0.004641
0.036448
0.055708
0.062425
0.057019
0.040354
0.012479
-0.025531
-0.071629
-0.121774
-0.169773
-0.208463
-0.231713
-0.231777
-0.216390
-0.192635
-0.164552
-0.135095
-0.106299
-0.079488
-0.055455
-0.034608
-0.017080
-0.002814
0.008372
0.016731
0.022530
0.026016
0.027429
0.027079
0.025399
0.022935
0.020213
0.017602
0.015555
0.014210
0.013271
0.012489
0.011606
0.010362
0.008513
0.005855
0.002262
-0.002283
-0.007645
-0.013513
-0.019408
-0.024741
-0.028922
-0.031481
-0.031715
-0.030424
-0.028009
-0.024872
-0.021388
-0.017869
-0.014549
-0.011584
-0.009066
-0.007030
-0.005479
-0.004386
-0.003710
-0.003406
-0.003425
-0.003723
-0.004265
-0.005024
-0.005983
-0.007138
-0.008497
-0.010082
-0.011931
-0.014828
0.474170
0.474848
0.476623
0.479019
0.481075
0.481039
0.475945
0.461069
0.429383
0.371052
0.272865
0.117300
-0.118492
-0.417815
-0.480199
-0.485443
-0.510664
-0.524394
-0.509706
-0.467074
-0.402262
-0.324185
-0.241578
-0.161696
-0.089942
-0.029742
0.017630
0.052592
0.075329
0.090315
0.088225
0.067857
0.033201
-0.012635
-0.065832
-0.120895
-0.170811
-0.208396
-0.225417
-0.220492
-0.204078
-0.180688
-0.153958
-0.126489
-0.099994
-0.075518
-0.053629
-0.034578
-0.018412
-0.005043
0.005704
0.014057
0.020270
0.024583
0.027209
0.028347
0.028238
0.027239
0.025704
0.023919
0.022412
0.020929
0.019538
0.018154
0.016590
0.014610
0.011969
0.008468
0.003995
-0.001424
-0.007586
-0.014092
-0.020382
-0.025807
-0.029781
-0.031405
-0.031155
-0.029580
-0.027041
-0.023919
-0.020558
-0.017233
-0.014141
-0.011414
-0.009124
-0.007297
-0.005930
-0.004998
-0.004463
-0.004285
-0.004421
-0.004835
-0.005495
-0.006381
-0.007484
-0.008805
-0.010360
-0.012181
-0.014318
-0.017704
0.458282
0.458206
0.457817
0.456610
0.453619
0.447220
0.434881
0.412897
0.376198
0.318310
0.231636
0.108775
-0.052008
-0.228777
-0.327812
-0.378051
-0.409157
-0.419599
-0.409265
-0.378761
-0.331217
-0.272318
-0.208232
-0.144451
-0.085260
-0.033518
0.009368
0.043087
0.068798
0.085349
0.084723
0.066606
0.033197
-0.011735
-0.063156
-0.114746
-0.159205
-0.189422
-0.198214
-0.193324
-0.179037
-0.159155
-0.136665
-0.113672
-0.091524
-0.070998
-0.052479
-0.036115
-0.021915
-0.009821
0.000267
0.008480
0.014979
0.019937
0.023520
0.025879
0.027158
0.027697
0.027902
0.027904
0.027236
0.026128
0.024748
0.023134
0.021179
0.018685
0.015434
0.011251
0.006065
-0.000037
-0.006771
-0.013653
-0.020059
-0.025312
-0.028417
-0.029539
-0.029178
-0.027643
-0.025288
-0.022454
-0.019439
-0.016475
-0.013731
-0.011317
-0.009296
-0.007692
-0.006506
-0.005720
-0.005305
-0.005227
-0.005452
-0.005951
-0.006698
-0.007678
-0.008886
-0.010328
-0.012026
-0.014016
-0.016357
-0.020086
0.442531
0.441830
0.439674
0.435614
0.428804
0.417882
0.400851
0.374992
0.336885
0.282652
0.208600
0.112740
-0.001718
-0.120956
-0.210820
-0.270224
-0.306972
-0.323332
-0.321216
-0.302754
-0.270480
-0.228317
-0.180649
-0.131583
-0.084495
-0.041813
-0.004986
0.025361
0.049325
0.062905
0.063053
0.048913
0.021713
-0.015473
-0.057921
-0.099583
-0.133839
-0.153666
-0.160391
-0.157401
-0.147353
-0.132959
-0.116443
-0.099390
-0.082796
-0.067187
-0.052774
-0.039599
-0.027646
-0.016913
-0.007421
0.000805
0.007772
0.013523
0.018139
0.021705
0.024563
0.026726
0.028177
0.029021
0.029202
0.028810
0.027918
0.026534
0.024578
0.021903
0.018342
0.013772
0.008179
0.001720
-0.005239
-0.012137
-0.018356
-0.022766
-0.025466
-0.026633
-0.026475
-0.025281
-0.023364
-0.021014
-0.018478
-0.015955
-0.013593
-0.011494
-0.009721
-0.008308
-0.007263
-0.006581
-0.006244
-0.006227
-0.006505
-0.007052
-0.007851
-0.008888
-0.010161
-0.011677
-0.013458
-0.015542
-0.017991
-0.021896
0.428078
0.426866
0.423304
0.417056
0.407465
0.393480
0.373619
0.345992
0.308420
0.258755
0.195483
0.118791
0.032242
-0.055644
-0.130310
-0.186537
-0.224705
-0.245793
-0.251057
-0.242342
-0.221927
-0.192756
-0.158070
-0.120987
-0.084188
-0.049749
-0.019098
0.006877
0.026940
0.038571
0.040015
0.030600
0.011139
-0.015971
-0.046880
-0.076705
-0.100321
-0.114914
-0.121416
-0.121044
-0.115588
-0.106912
-0.096597
-0.085772
-0.075087
-0.064784
-0.054829
-0.045076
-0.035429
-0.025934
-0.016776
-0.008207
-0.000445
0.006374
0.012216
0.017218
0.021309
0.024554
0.027003
0.028703
0.029676
0.029972
0.029633
0.028643
0.026923
0.024346
0.020778
0.016141
0.010475
0.003996
-0.002878
-0.009492
-0.015031
-0.019350
-0.022213
-0.023684
-0.023951
-0.023272
-0.021907
-0.020097
-0.018047
-0.015933
-0.013898
-0.012046
-0.010450
-0.009157
-0.008190
-0.007556
-0.007248
-0.007250
-0.007541
-0.008104
-0.008921
-0.009981
-0.011280
-0.012825
-0.014633
-0.016737
-0.019191
-0.023082
0.415869
0.414212
0.409485
0.401539
0.389938
0.373927
0.352460
0.324273
0.288047
0.242685
0.187774
0.124224
0.055017
-0.014394
-0.076600
-0.127039
-0.164052
-0.187434
-0.197741
-0.196083
-0.184337
-0.164782
-0.139896
-0.112105
-0.083568
-0.056058
-0.030939
-0.009261
0.007604
0.018109
0.021136
0.016261
0.004079
-0.013668
-0.034213
-0.054188
-0.070610
-0.081883
-0.087913
-0.089407
-0.087552
-0.083646
-0.078804
-0.073772
-0.068851
-0.063925
-0.058586
-0.052351
-0.044925
-0.036379
-0.027133
-0.017771
-0.008829
-0.000628
0.006618
0.012851
0.018082
0.022358
0.025730
0.028247
0.029951
0.030887
0.031083
0.030521
0.029129
0.026792
0.023389
0.018876
0.013307
0.006931
0.000204
-0.006320
-0.012033
-0.016580
-0.019773
-0.021642
-0.022366
-0.022183
-0.021319
-0.019964
-0.018293
-0.016466
-0.014637
-0.012922
-0.011408
-0.010154
-0.009196
-0.008557
-0.008237
-0.008223
-0.008501
-0.009053
-0.009865
-0.010922
-0.012220
-0.013758
-0.015546
-0.017604
-0.019969
-0.023627
0.406731
0.404578
0.398737
0.389361
0.376243
0.358870
0.336515
0.308355
0.273621
0.231826
0.183079
0.128456
0.070325
0.012386
-0.040900
-0.086044
-0.121055
-0.145170
-0.158502
-0.161630
-0.155992
-0.143368
-0.125706
-0.104935
-0.082813
-0.060839
-0.040247
-0.022064
-0.007451
0.002508
0.007046
0.005884
-0.000561
-0.011087
-0.023831
-0.036649
-0.047972
-0.056194
-0.061218
-0.063548
-0.064067
-0.063752
-0.063412
-0.063484
-0.063934
-0.064247
-0.063536
-0.060809
-0.055403
-0.047365
-0.037471
-0.026801
-0.016377
-0.006769
0.001861
0.009361
0.015706
0.020944
0.025142
0.028374
0.030704
0.032190
0.032869
0.032730
0.031692
0.029637
0.026417
0.022020
0.016359
0.009732
0.002668
-0.004209
-0.010340
-0.015283
-0.018814
-0.020972
-0.021979
-0.022105
-0.021566
-0.020504
-0.019046
-0.017341
-0.015585
-0.013902
-0.012388
-0.011112
-0.010117
-0.009445
-0.009093
-0.009051
-0.009305
-0.009838
-0.010634
-0.011678
-0.012958
-0.014468
-0.016206
-0.018176
-0.020385
-0.023574
0.401593
0.398566
0.391347
0.380571
0.366201
0.347850
0.324980
0.297044
0.263605
0.224512
0.180109
0.131450
0.080441
0.029781
-0.017447
-0.058532
-0.091585
-0.115676
-0.130683
-0.136903
-0.135423
-0.127662
-0.115195
-0.099590
-0.082292
-0.064556
-0.047443
-0.031835
-0.018647
-0.008808
-0.002925
-0.001249
-0.003535
-0.008929
-0.016109
-0.024075
-0.031229
-0.036754
-0.040572
-0.043118
-0.045133
-0.047414
-0.050559
-0.054774
-0.059758
-0.064685
-0.068242
-0.068837
-0.065192
-0.057158
-0.045979
-0.034158
-0.022358
-0.011213
-0.001219
0.007430
0.014717
0.020715
0.025526
0.029254
0.031998
0.033842
0.034856
0.035053
0.034311
0.032521
0.029254
0.024487
0.018485
0.011495
0.003957
-0.003495
-0.010182
-0.015532
-0.019259
-0.021432
-0.022387
-0.022526
-0.022100
-0.021188
-0.019826
-0.018097
-0.016340
-0.014637
-0.013094
-0.011794
-0.010793
-0.010092
-0.009710
-0.009644
-0.009881
-0.010403
-0.011189
-0.012222
-0.013483
-0.014960
-0.016640
-0.018512
-0.020559
-0.023085
0.402098
0.396635
0.387291
0.374973
0.359507
0.340409
0.317196
0.289466
0.256969
0.219724
0.178170
0.133295
0.086700
0.040519
-0.002856
-0.041199
-0.072691
-0.096588
-0.112478
-0.120580
-0.121751
-0.117171
-0.108165
-0.096059
-0.082078
-0.067300
-0.052649
-0.038915
-0.026577
-0.016521
-0.009440
-0.005641
-0.005081
-0.007061
-0.010790
-0.015453
-0.019890
-0.023612
-0.026591
-0.029216
-0.032126
-0.035987
-0.041252
-0.047979
-0.055724
-0.063552
-0.070067
-0.073377
-0.071339
-0.062802
-0.051684
-0.038646
-0.025422
-0.013084
-0.002141
0.007241
0.015080
0.021481
0.026573
0.030485
0.033338
0.035248
0.036340
0.036761
0.036043
0.033935
0.030546
0.025727
0.019550
0.012267
0.004343
-0.003552
-0.010648
-0.016269
-0.020054
-0.022069
-0.022707
-0.022573
-0.022061
-0.021195
-0.019996
-0.018543
-0.016808
-0.015066
-0.013486
-0.012159
-0.011137
-0.010433
-0.010052
-0.009988
-0.010227
-0.010750
-0.011535
-0.012563
-0.013810
-0.015258
-0.016885
-0.018674
-0.020606
-0.022511
0.412722
0.398424
0.385983
0.372312
0.356026
0.336421
0.313003
0.285403
0.253440
0.217196
0.177128
0.134164
0.089742
0.045736
0.004221
-0.032873
-0.064115
-0.088106
-0.104359
-0.113230
-0.115499
-0.112239
-0.104667
-0.094008
-0.081405
-0.067873
-0.054299
-0.041476
-0.030153
-0.020338
-0.012603
-0.007686
-0.005850
-0.006906
-0.009898
-0.013442
-0.016922
-0.019959
-0.022550
-0.025054
-0.028052
-0.032139
-0.037710
-0.044770
-0.052842
-0.060962
-0.067757
-0.071524
-0.070585
-0.064630
-0.053024
-0.039340
-0.025655
-0.013004
-0.001842
0.007692
0.015631
0.022084
0.027186
0.031067
0.033849
0.035647
0.036549
0.036470
0.035562
0.033467
0.030067
0.025301
0.019246
0.012150
0.004457
-0.003210
-0.010139
-0.015701
-0.019544
-0.021706
-0.022572
-0.022539
-0.021966
-0.021074
-0.019895
-0.018460
-0.016817
-0.015140
-0.013597
-0.012293
-0.011284
-0.010591
-0.010219
-0.010161
-0.010403
-0.010926
-0.011710
-0.012731
-0.013966
-0.015392
-0.016983
-0.018710
-0.020541
-0.022248
