# vtk DataFile Version 3.0
Vector Field
ASCII
DATASET RECTILINEAR_GRID
DIMENSIONS 100 26 1
X_COORDINATES 100 double
0.050000 0.150000 0.250000 0.350000 0.450000 0.550000 0.650000 0.750000 0.850000 0.950000 1.050000 1.150000 1.250000 1.350000 1.450000 1.550000 1.650000 1.750000 1.850000 1.950000 2.050000 2.150000 2.250000 2.350000 2.450000 2.550000 2.650000 2.750000 2.850000 2.950000 3.050000 3.150000 3.250000 3.350000 3.450000 3.550000 3.650000 3.750000 3.850000 3.950000 4.050000 4.150000 4.250000 4.350000 4.450000 4.550000 4.650000 4.750000 4.850000 4.950000 5.050000 5.150000 5.250000 5.350000 5.450000 5.550000 5.650000 5.750000 5.850000 5.950000 6.050000 6.150000 6.250000 6.350000 6.450000 6.550000 6.650000 6.750000 6.850000 6.950000 7.050000 7.150000 7.250000 7.350000 7.450000 7.550000 7.650000 7.750000 7.850000 7.950000 8.050000 8.150000 8.250000 8.350000 8.450000 8.550000 8.650000 8.750000 8.850000 8.950000 9.050000 9.150000 9.250000 9.350000 9.450000 9.550000 9.650000 9.750000 9.850000 9.950000 
Y_COORDINATES 26 double
0.050000 0.150000 0.250000 0.350000 0.450000 0.550000 0.650000 0.750000 0.850000 0.950000 1.050000 1.150000 1.250000 1.350000 1.450000 1.550000 1.650000 1.750000 1.850000 1.950000 2.050000 2.150000 2.250000 2.350000 2.450000 2.550000 
Z_COORDINATES 1 double
0.0
POINT_DATA 2600
VECTORS Vektorfeld double
0.997675 0.002325 0.0
0.992967 0.002383 0.0
0.989752 0.000833 0.0
0.990348 -0.001429 0.0
0.995778 -0.004000 0.0
1.006384 -0.006606 0.0
1.021975 -0.008985 0.0
1.041820 -0.010860 0.0
1.064660 -0.011980 0.0
1.088809 -0.012169 0.0
1.112381 -0.011403 0.0
1.133571 -0.009786 0.0
1.150851 -0.007494 0.0
1.163055 -0.004710 0.0
1.169408 -0.001644 0.0
1.169635 0.001417 0.0
1.163624 0.004594 0.0
1.151188 0.007842 0.0
1.132278 0.011068 0.0
1.107051 0.014158 0.0
1.075912 0.016981 0.0
1.039530 0.019401 0.0
0.998833 0.021296 0.0
0.954981 0.022557 0.0
0.909318 0.023106 0.0
0.863320 0.022893 0.0
0.818524 0.021903 0.0
0.776461 0.020160 0.0
0.738576 0.017726 0.0
0.706143 0.014706 0.0
0.680191 0.011246 0.0
0.661430 0.007516 0.0
0.650290 0.003623 0.0
0.647105 -0.000438 0.0
0.651148 -0.003605 0.0
0.660041 -0.005288 0.0
0.670831 -0.005502 0.0
0.680824 -0.004490 0.0
0.687948 -0.002635 0.0
0.690771 -0.000188 0.0
0.687676 0.003282 0.0
0.676863 0.007531 0.0
0.657283 0.012049 0.0
0.628879 0.016355 0.0
0.592479 0.020045 0.0
0.549627 0.022807 0.0
0.502444 0.024376 0.0
0.453692 0.024376 0.0
0.407161 0.022155 0.0
0.367894 0.017112 0.0
0.341086 0.009696 0.0
0.329315 0.002075 0.0
0.329927 -0.002686 0.0
0.337168 -0.004555 0.0
0.347074 -0.005351 0.0
0.358133 -0.005707 0.0
0.369438 -0.005598 0.0
0.380131 -0.005096 0.0
0.389535 -0.004308 0.0
0.397198 -0.003355 0.0
0.402906 -0.002353 0.0
0.406667 -0.001408 0.0
0.408663 -0.000589 0.0
0.409054 0.000197 0.0
0.407602 0.001255 0.0
0.403790 0.002557 0.0
0.397355 0.003877 0.0
0.388473 0.005006 0.0
0.377715 0.005752 0.0
0.366021 0.005942 0.0
0.354580 0.005499 0.0
0.344542 0.004538 0.0
0.336618 0.003386 0.0
0.330763 0.002468 0.0
0.326197 0.002098 0.0
0.321778 0.002320 0.0
0.316558 0.002900 0.0
0.310188 0.003470 0.0
0.302993 0.003725 0.0
0.295715 0.003553 0.0
0.289118 0.003044 0.0
0.283685 0.002390 0.0
0.279527 0.001768 0.0
0.276478 0.001281 0.0
0.274240 0.000956 0.0
0.272517 0.000767 0.0
0.271071 0.000678 0.0
0.269770 0.000622 0.0
0.268597 0.000551 0.0
0.267601 0.000446 0.0
0.266812 0.000343 0.0
0.266159 0.000311 0.0
0.265443 0.000405 0.0
0.264410 0.000627 0.0
0.262839 0.000945 0.0
0.260606 0.001288 0.0
0.257749 0.001569 0.0
0.254494 0.001686 0.0
0.251278 0.001529 0.0
0.248058 0.001692 0.0
1.002965 0.001685 0.0
1.011534 -0.000839 0.0
1.024883 -0.006079 0.0
1.042509 -0.012739 0.0
1.064462 -0.020073 0.0
1.090769 -0.027446 0.0
1.121195 -0.034162 0.0
1.155111 -0.039445 0.0
1.191424 -0.042548 0.0
1.228608 -0.042934 0.0
1.264939 -0.040542 0.0
1.298844 -0.035741 0.0
1.329108 -0.029083 0.0
1.354881 -0.021097 0.0
1.375501 -0.012230 0.0
1.390160 -0.002881 0.0
1.398196 0.006867 0.0
1.399331 0.016870 0.0
1.393447 0.026834 0.0
1.380662 0.036404 0.0
1.361364 0.045172 0.0
1.336231 0.052725 0.0
1.306221 0.058680 0.0
1.272529 0.062717 0.0
1.236540 0.064597 0.0
1.199765 0.064174 0.0
1.163778 0.061405 0.0
1.130140 0.056359 0.0
1.100324 0.049229 0.0
1.075623 0.040337 0.0
1.057069 0.030122 0.0
1.045361 0.019109 0.0
1.040741 0.007790 0.0
1.042489 -0.003167 0.0
1.049567 -0.011998 0.0
1.061440 -0.017660 0.0
1.077273 -0.019753 0.0
1.095222 -0.018181 0.0
1.112280 -0.013126 0.0
1.124728 -0.004967 0.0
1.129795 0.006089 0.0
1.126104 0.019228 0.0
1.112988 0.033048 0.0
1.090552 0.046197 0.0
1.059646 0.057509 0.0
1.021814 0.066027 0.0
0.979242 0.070911 0.0
0.934626 0.071210 0.0
0.890691 0.065787 0.0
0.849271 0.054166 0.0
0.810574 0.038146 0.0
0.774064 0.021905 0.0
0.741897 0.009039 0.0
0.719273 -0.000898 0.0
0.708965 -0.008607 0.0
0.708923 -0.013468 0.0
0.715752 -0.015971 0.0
0.727153 -0.016818 0.0
0.741626 -0.016462 0.0
0.758020 -0.015258 0.0
0.775314 -0.013452 0.0
0.792432 -0.011188 0.0
0.808119 -0.008492 0.0
0.821084 -0.005255 0.0
0.830669 -0.001426 0.0
0.837119 0.002600 0.0
0.840969 0.006419 0.0
0.842681 0.009635 0.0
0.842667 0.011893 0.0
0.841158 0.013004 0.0
0.837998 0.013040 0.0
0.832613 0.012420 0.0
0.824212 0.011830 0.0
0.812157 0.011935 0.0
0.796314 0.013041 0.0
0.777256 0.014855 0.0
0.756232 0.016610 0.0
0.734943 0.017419 0.0
0.715226 0.016688 0.0
0.698694 0.014399 0.0
0.686385 0.011104 0.0
0.678525 0.007622 0.0
0.674584 0.004635 0.0
0.673589 0.002459 0.0
0.674530 0.001075 0.0
0.676594 0.000308 0.0
0.679279 -0.000101 0.0
0.682394 -0.000412 0.0
0.685832 -0.000679 0.0
0.689368 -0.000864 0.0
0.692656 -0.000847 0.0
0.695278 -0.000469 0.0
0.696815 0.000365 0.0
0.696873 0.001641 0.0
0.695227 0.003148 0.0
0.691929 0.004616 0.0
0.687256 0.005770 0.0
0.681650 0.006347 0.0
0.675602 0.006133 0.0
0.670687 0.005224 0.0
1.001868 -0.003147 0.0
1.008580 -0.011288 0.0
1.020891 -0.021290 0.0
1.038401 -0.032663 0.0
1.061121 -0.044823 0.0
1.089121 -0.057002 0.0
1.122255 -0.068165 0.0
1.159914 -0.077016 0.0
1.200827 -0.082203 0.0
1.242970 -0.082605 0.0
1.283964 -0.078197 0.0
1.321822 -0.069849 0.0
1.355267 -0.058685 0.0
1.383622 -0.045625 0.0
1.406543 -0.031243 0.0
1.423823 -0.015808 0.0
1.435228 0.000353 0.0
1.440505 0.016973 0.0
1.439528 0.033592 0.0
1.432331 0.049628 0.0
1.419177 0.064400 0.0
1.400596 0.077210 0.0
1.377378 0.087424 0.0
1.350521 0.094523 0.0
1.321172 0.098129 0.0
1.290568 0.098020 0.0
1.259978 0.094136 0.0
1.230649 0.086594 0.0
1.203750 0.075708 0.0
1.180320 0.061989 0.0
1.161215 0.046129 0.0
1.147070 0.028954 0.0
1.138237 0.011398 0.0
1.134995 -0.005280 0.0
1.137878 -0.019846 0.0
1.147354 -0.031161 0.0
1.163212 -0.037943 0.0
1.184224 -0.038953 0.0
1.208107 -0.033294 0.0
1.231755 -0.020895 0.0
1.251761 -0.003056 0.0
1.265504 0.018321 0.0
1.271539 0.041036 0.0
1.269240 0.062944 0.0
1.258736 0.082171 0.0
1.240799 0.097133 0.0
1.216691 0.106485 0.0
1.187874 0.109070 0.0
1.155584 0.104152 0.0
1.120581 0.092225 0.0
1.083650 0.075715 0.0
1.046573 0.057923 0.0
1.011478 0.040284 0.0
0.978893 0.023067 0.0
0.948892 0.007737 0.0
0.923776 -0.004655 0.0
0.906158 -0.013996 0.0
0.896212 -0.020247 0.0
0.892668 -0.023961 0.0
0.894221 -0.025707 0.0
0.899751 -0.025826 0.0
0.908316 -0.024497 0.0
0.919212 -0.021767 0.0
0.932013 -0.017745 0.0
0.946379 -0.012888 0.0
0.961801 -0.007810 0.0
0.977788 -0.003008 0.0
0.994029 0.001109 0.0
1.010147 0.004313 0.0
1.025550 0.006690 0.0
1.039386 0.008678 0.0
1.050617 0.010936 0.0
1.058272 0.014060 0.0
1.061709 0.018323 0.0
1.060654 0.023550 0.0
1.055150 0.028908 0.0
1.045472 0.033258 0.0
1.031956 0.035575 0.0
1.014913 0.035293 0.0
0.994684 0.032554 0.0
0.971843 0.028099 0.0
0.947472 0.022858 0.0
0.923290 0.017521 0.0
0.901470 0.012388 0.0
0.884111 0.007563 0.0
0.872673 0.003193 0.0
0.867514 -0.000512 0.0
0.867666 -0.003269 0.0
0.871438 -0.005032 0.0
0.877302 -0.005911 0.0
0.884077 -0.005863 0.0
0.890784 -0.004784 0.0
0.896650 -0.002722 0.0
0.901218 0.000102 0.0
0.904263 0.003289 0.0
0.905690 0.006346 0.0
0.905631 0.008771 0.0
0.904432 0.010151 0.0
0.902571 0.010237 0.0
0.900082 0.008523 0.0
1.001479 -0.006494 0.0
1.007262 -0.020437 0.0
1.018640 -0.035831 0.0
1.035674 -0.052666 0.0
1.058694 -0.070561 0.0
1.088125 -0.088695 0.0
1.124199 -0.105680 0.0
1.166529 -0.119490 0.0
1.213734 -0.127848 0.0
1.262798 -0.128167 0.0
1.309866 -0.120698 0.0
1.352183 -0.107522 0.0
1.388537 -0.090811 0.0
1.418717 -0.072035 0.0
1.442860 -0.051896 0.0
1.461019 -0.030595 0.0
1.473020 -0.008265 0.0
1.478600 0.014733 0.0
1.477569 0.037840 0.0
1.469915 0.060230 0.0
1.455958 0.080910 0.0
1.436358 0.098881 0.0
1.412050 0.113279 0.0
1.384135 0.123439 0.0
1.353792 0.128906 0.0
1.322205 0.129435 0.0
1.290530 0.124987 0.0
1.259864 0.115738 0.0
1.231236 0.102091 0.0
1.205594 0.084679 0.0
1.183800 0.064337 0.0
1.166654 0.042038 0.0
1.154968 0.018833 0.0
1.149727 -0.004232 0.0
1.151994 -0.026045 0.0
1.162497 -0.044942 0.0
1.181177 -0.058700 0.0
1.206914 -0.064946 0.0
1.237517 -0.061787 0.0
1.269925 -0.048456 0.0
1.300473 -0.026050 0.0
1.325631 0.002414 0.0
1.343309 0.033230 0.0
1.353020 0.063338 0.0
1.354989 0.090312 0.0
1.349772 0.112145 0.0
1.338083 0.127270 0.0
1.320595 0.134590 0.0
1.297798 0.133718 0.0
1.270091 0.125369 0.0
1.238181 0.111412 0.0
1.203370 0.094114 0.0
1.167274 0.075283 0.0
1.131495 0.056433 0.0
1.097388 0.038479 0.0
1.065452 0.021655 0.0
1.035982 0.006782 0.0
1.010418 -0.005515 0.0
0.990339 -0.015069 0.0
0.975998 -0.021811 0.0
0.966732 -0.025986 0.0
0.961708 -0.027878 0.0
0.960181 -0.027757 0.0
0.961673 -0.026047 0.0
0.966083 -0.023362 0.0
0.973693 -0.020368 0.0
0.984988 -0.017732 0.0
1.000415 -0.015833 0.0
1.020166 -0.014614 0.0
1.043936 -0.013556 0.0
1.070787 -0.011762 0.0
1.099159 -0.008226 0.0
1.126956 -0.002231 0.0
1.151850 0.006283 0.0
1.171989 0.016505 0.0
1.186432 0.027015 0.0
1.194741 0.036520 0.0
1.196571 0.043998 0.0
1.191727 0.048758 0.0
1.180363 0.050683 0.0
1.163120 0.050054 0.0
1.141153 0.047243 0.0
1.115955 0.042516 0.0
1.089076 0.036094 0.0
1.061933 0.028360 0.0
1.035845 0.019921 0.0
1.012223 0.011541 0.0
0.992775 0.003976 0.0
0.978990 -0.002265 0.0
0.971115 -0.006667 0.0
0.968064 -0.008830 0.0
0.968257 -0.008717 0.0
0.970197 -0.006594 0.0
0.972577 -0.002973 0.0
0.974404 0.001492 0.0
0.975129 0.005991 0.0
0.974622 0.009692 0.0
0.973084 0.011967 0.0
0.970876 0.012488 0.0
0.967762 0.011875 0.0
1.001278 -0.009251 0.0
1.006434 -0.028619 0.0
1.016950 -0.049543 0.0
1.033317 -0.072355 0.0
1.056369 -0.096944 0.0
1.087177 -0.122552 0.0
1.126753 -0.147473 0.0
1.175370 -0.168644 0.0
1.232030 -0.182560 0.0
1.291573 -0.182062 0.0
1.346663 -0.168961 0.0
1.393521 -0.148434 0.0
1.431788 -0.124520 0.0
1.462570 -0.099288 0.0
1.487054 -0.073269 0.0
1.505804 -0.046131 0.0
1.518548 -0.017474 0.0
1.524556 0.012354 0.0
1.523179 0.042627 0.0
1.514125 0.072151 0.0
1.497639 0.099432 0.0
1.474539 0.123058 0.0
1.446035 0.141913 0.0
1.413524 0.155230 0.0
1.378430 0.162553 0.0
1.342115 0.163690 0.0
1.305848 0.158674 0.0
1.270807 0.147757 0.0
1.238093 0.131414 0.0
1.208742 0.110349 0.0
1.183731 0.085470 0.0
1.163972 0.057811 0.0
1.150330 0.028386 0.0
1.143719 -0.001933 0.0
1.145094 -0.031984 0.0
1.155166 -0.059578 0.0
1.174048 -0.081627 0.0
1.201161 -0.094869 0.0
1.235288 -0.096594 0.0
1.274365 -0.085133 0.0
1.314984 -0.060540 0.0
1.352211 -0.025481 0.0
1.381066 0.014592 0.0
1.399606 0.053727 0.0
1.408749 0.088812 0.0
1.409854 0.117757 0.0
1.404070 0.139130 0.0
1.392180 0.152108 0.0
1.374617 0.156561 0.0
1.351670 0.153178 0.0
1.323805 0.143378 0.0
1.291849 0.128916 0.0
1.256944 0.111481 0.0
1.220396 0.092562 0.0
1.183522 0.073332 0.0
1.147549 0.054710 0.0
1.113504 0.037243 0.0
1.081927 0.021165 0.0
1.053169 0.007088 0.0
1.027927 -0.004385 0.0
1.006672 -0.012890 0.0
0.989031 -0.018308 0.0
0.974208 -0.020977 0.0
0.961644 -0.021754 0.0
0.951418 -0.021839 0.0
0.944354 -0.022437 0.0
0.941791 -0.024395 0.0
0.945199 -0.028005 0.0
0.955795 -0.032789 0.0
0.974195 -0.037552 0.0
1.000293 -0.040714 0.0
1.033345 -0.040697 0.0
1.072072 -0.036286 0.0
1.114528 -0.027011 0.0
1.157642 -0.013454 0.0
1.197200 0.002974 0.0
1.229315 0.020137 0.0
1.252162 0.035704 0.0
1.265534 0.048524 0.0
1.269706 0.058109 0.0
1.265324 0.064252 0.0
1.253423 0.066914 0.0
1.235297 0.066167 0.0
1.212382 0.062237 0.0
1.186180 0.055560 0.0
1.158239 0.046750 0.0
1.130058 0.036516 0.0
1.102893 0.025614 0.0
1.077697 0.015079 0.0
1.055377 0.006184 0.0
1.036785 -0.000039 0.0
1.022120 -0.003036 0.0
1.010647 -0.002741 0.0
1.001096 0.000346 0.0
0.992242 0.005200 0.0
0.983295 0.010505 0.0
0.974012 0.014967 0.0
0.964635 0.017609 0.0
0.955698 0.017991 0.0
0.948204 0.016982 0.0
1.001077 -0.011605 0.0
1.005495 -0.035839 0.0
1.014749 -0.062093 0.0
1.029708 -0.091132 0.0
1.051805 -0.123314 0.0
1.083058 -0.158243 0.0
1.125879 -0.194178 0.0
1.182103 -0.226780 0.0
1.252964 -0.251945 0.0
1.327779 -0.247034 0.0
1.390775 -0.222075 0.0
1.438401 -0.189803 0.0
1.473711 -0.156728 0.0
1.500783 -0.124934 0.0
1.522716 -0.094042 0.0
1.540987 -0.062379 0.0
1.555154 -0.028138 0.0
1.563213 0.008951 0.0
1.563136 0.047484 0.0
1.553916 0.085569 0.0
1.535586 0.120830 0.0
1.509143 0.151204 0.0
1.476160 0.175255 0.0
1.438414 0.192145 0.0
1.397653 0.201492 0.0
1.355495 0.203223 0.0
1.313413 0.197489 0.0
1.272762 0.184634 0.0
1.234812 0.165202 0.0
1.200765 0.139960 0.0
1.171725 0.109910 0.0
1.148578 0.076278 0.0
1.131767 0.040373 0.0
1.121164 0.003294 0.0
1.116629 -0.034050 0.0
1.118537 -0.069492 0.0
1.127567 -0.099626 0.0
1.144666 -0.121082 0.0
1.171100 -0.130942 0.0
1.207729 -0.126490 0.0
1.253640 -0.105713 0.0
1.304861 -0.068756 0.0
1.353670 -0.019798 0.0
1.391279 0.031968 0.0
1.414709 0.077998 0.0
1.426233 0.115941 0.0
1.428170 0.144793 0.0
1.422236 0.164270 0.0
1.409543 0.174656 0.0
1.390809 0.176764 0.0
1.366631 0.171835 0.0
1.337707 0.161338 0.0
1.304913 0.146758 0.0
1.269280 0.129466 0.0
1.231936 0.110647 0.0
1.194036 0.091268 0.0
1.156677 0.072088 0.0
1.120803 0.053770 0.0
1.087067 0.036976 0.0
1.055585 0.022450 0.0
1.025928 0.011186 0.0
0.997407 0.003777 0.0
0.969368 -0.000200 0.0
0.941695 -0.002293 0.0
0.915378 -0.004757 0.0
0.892644 -0.009722 0.0
0.876477 -0.018381 0.0
0.869532 -0.030481 0.0
0.873161 -0.044536 0.0
0.887307 -0.058352 0.0
0.910995 -0.069700 0.0
0.942926 -0.076694 0.0
0.981827 -0.077917 0.0
1.026480 -0.072488 0.0
1.075529 -0.060141 0.0
1.127088 -0.041457 0.0
1.177859 -0.018318 0.0
1.222702 0.006469 0.0
1.257264 0.029825 0.0
1.280371 0.049530 0.0
1.292627 0.064957 0.0
1.294968 0.075769 0.0
1.288560 0.081845 0.0
1.274733 0.083301 0.0
1.254931 0.080500 0.0
1.230648 0.074034 0.0
1.203364 0.064698 0.0
1.174465 0.053495 0.0
1.145192 0.041668 0.0
1.116534 0.030573 0.0
1.089100 0.021598 0.0
1.063121 0.015970 0.0
1.038559 0.014289 0.0
1.015214 0.016212 0.0
0.992886 0.020515 0.0
0.971565 0.025458 0.0
0.951569 0.029292 0.0
0.933546 0.030685 0.0
0.918345 0.029052 0.0
0.907378 0.024382 0.0
1.000794 -0.013476 0.0
1.004103 -0.041695 0.0
1.011244 -0.072630 0.0
1.023346 -0.107656 0.0
1.042394 -0.147935 0.0
1.071551 -0.194034 0.0
1.115408 -0.245066 0.0
1.179109 -0.295818 0.0
1.271275 -0.345933 0.0
1.365814 -0.322400 0.0
1.428511 -0.272402 0.0
1.464143 -0.222732 0.0
1.484717 -0.179684 0.0
1.498828 -0.143160 0.0
1.511854 -0.110775 0.0
1.526592 -0.078654 0.0
1.542848 -0.042286 0.0
1.556602 0.001286 0.0
1.562465 0.049363 0.0
1.557350 0.098026 0.0
1.540860 0.143192 0.0
1.514308 0.181837 0.0
1.479727 0.212186 0.0
1.439275 0.233413 0.0
1.394966 0.245294 0.0
1.348607 0.247938 0.0
1.301825 0.241638 0.0
1.256125 0.226835 0.0
1.212940 0.204136 0.0
1.173631 0.174381 0.0
1.139409 0.138751 0.0
1.111048 0.098944 0.0
1.088268 0.057299 0.0
1.068993 0.016245 0.0
1.050201 -0.023674 0.0
1.031560 -0.063135 0.0
1.016305 -0.099758 0.0
1.009379 -0.131122 0.0
1.016177 -0.154136 0.0
1.040453 -0.164201 0.0
1.082976 -0.156436 0.0
1.141379 -0.127657 0.0
1.210021 -0.078349 0.0
1.278246 -0.015315 0.0
1.332852 0.047245 0.0
1.369130 0.098892 0.0
1.390280 0.138756 0.0
1.399219 0.167302 0.0
1.398099 0.185437 0.0
1.388479 0.194339 0.0
1.371563 0.195355 0.0
1.348403 0.189903 0.0
1.320021 0.179369 0.0
1.287470 0.165039 0.0
1.251837 0.148050 0.0
1.214220 0.129381 0.0
1.175658 0.109897 0.0
1.137004 0.090491 0.0
1.098695 0.072300 0.0
1.060507 0.056796 0.0
1.021567 0.045437 0.0
0.980907 0.038708 0.0
0.938539 0.035277 0.0
0.896403 0.032040 0.0
0.858257 0.025372 0.0
0.828319 0.012822 0.0
0.809567 -0.006006 0.0
0.803153 -0.029497 0.0
0.808546 -0.054542 0.0
0.824054 -0.078001 0.0
0.847792 -0.097476 0.0
0.878245 -0.111302 0.0
0.914372 -0.118337 0.0
0.955460 -0.117808 0.0
1.000887 -0.109297 0.0
1.049853 -0.092826 0.0
1.101118 -0.068985 0.0
1.152669 -0.039259 0.0
1.200598 -0.006939 0.0
1.239797 0.023988 0.0
1.267694 0.050345 0.0
1.284496 0.071238 0.0
1.290998 0.086283 0.0
1.288264 0.095424 0.0
1.277529 0.098914 0.0
1.260129 0.097303 0.0
1.237416 0.091426 0.0
1.210684 0.082398 0.0
1.181102 0.071621 0.0
1.149658 0.060722 0.0
1.117132 0.051408 0.0
1.084142 0.045128 0.0
1.051215 0.042621 0.0
1.018864 0.043576 0.0
0.987689 0.046654 0.0
0.958448 0.049881 0.0
0.932066 0.051247 0.0
0.909540 0.049278 0.0
0.891788 0.043412 0.0
0.879751 0.033025 0.0
1.000388 -0.014659 0.0
1.002057 -0.045491 0.0
1.005877 -0.079796 0.0
1.012972 -0.119688 0.0
1.025531 -0.167510 0.0
1.047605 -0.225689 0.0
1.086406 -0.296069 0.0
1.153094 -0.375204 0.0
1.274716 -0.480334 0.0
1.385961 -0.393784 0.0
1.420764 -0.298518 0.0
1.418428 -0.229911 0.0
1.405876 -0.180527 0.0
1.393801 -0.144353 0.0
1.387952 -0.116760 0.0
1.392349 -0.091804 0.0
1.408821 -0.061863 0.0
1.433890 -0.017961 0.0
1.455914 0.040722 0.0
1.465099 0.102598 0.0
1.460039 0.160169 0.0
1.442427 0.209025 0.0
1.414812 0.247194 0.0
1.379585 0.274085 0.0
1.338766 0.289750 0.0
1.294105 0.294502 0.0
1.247208 0.288753 0.0
1.199621 0.273009 0.0
1.152833 0.247936 0.0
1.108213 0.214510 0.0
1.066786 0.174272 0.0
1.028785 0.129784 0.0
0.992914 0.085109 0.0
0.955838 0.044786 0.0
0.913064 0.009351 0.0
0.863502 -0.027957 0.0
0.816869 -0.073047 0.0
0.788124 -0.122161 0.0
0.784920 -0.166691 0.0
0.806894 -0.197897 0.0
0.850517 -0.208885 0.0
0.912112 -0.195206 0.0
0.988160 -0.155490 0.0
1.074169 -0.092408 0.0
1.160222 -0.016320 0.0
1.231408 0.054992 0.0
1.281769 0.111145 0.0
1.314733 0.153009 0.0
1.333299 0.182284 0.0
1.339736 0.200674 0.0
1.335853 0.209818 0.0
1.323187 0.211266 0.0
1.303120 0.206455 0.0
1.276943 0.196682 0.0
1.245877 0.183106 0.0
1.211051 0.166768 0.0
1.173417 0.148706 0.0
1.133554 0.130199 0.0
1.091432 0.113023 0.0
1.046394 0.099299 0.0
0.997743 0.090525 0.0
0.945932 0.086091 0.0
0.893605 0.082589 0.0
0.845436 0.075033 0.0
0.806529 0.059431 0.0
0.780456 0.034774 0.0
0.768244 0.003006 0.0
0.768518 -0.032369 0.0
0.778685 -0.067230 0.0
0.796289 -0.098425 0.0
0.819533 -0.124034 0.0
0.847278 -0.142943 0.0
0.878904 -0.154449 0.0
0.914140 -0.158020 0.0
0.952865 -0.153238 0.0
0.994887 -0.139873 0.0
1.039739 -0.118055 0.0
1.086504 -0.088504 0.0
1.133648 -0.052768 0.0
1.178318 -0.014052 0.0
1.215982 0.022824 0.0
1.243642 0.054298 0.0
1.261033 0.079330 0.0
1.268606 0.097538 0.0
1.267170 0.108970 0.0
1.257745 0.114073 0.0
1.241446 0.113669 0.0
1.219392 0.108940 0.0
1.192643 0.101408 0.0
1.162173 0.092850 0.0
1.128879 0.085100 0.0
1.093643 0.079662 0.0
1.057401 0.077256 0.0
1.021211 0.077481 0.0
0.986273 0.078862 0.0
0.953891 0.079297 0.0
0.925350 0.076753 0.0
0.901752 0.069896 0.0
0.883848 0.058451 0.0
0.872077 0.041794 0.0
0.999857 -0.014904 0.0
0.999343 -0.046400 0.0
0.998565 -0.081929 0.0
0.998189 -0.124273 0.0
0.999776 -0.177071 0.0
1.006944 -0.245369 0.0
1.028053 -0.336298 0.0
1.081652 -0.455262 0.0
1.229282 -0.669527 0.0
1.327873 -0.414428 0.0
1.276913 -0.261718 0.0
1.203297 -0.190760 0.0
1.142844 -0.146674 0.0
1.095249 -0.118537 0.0
1.061927 -0.103405 0.0
1.047650 -0.095279 0.0
1.057673 -0.084882 0.0
1.095430 -0.057768 0.0
1.150539 0.003396 0.0
1.197968 0.083310 0.0
1.225298 0.157186 0.0
1.235786 0.219133 0.0
1.232743 0.267743 0.0
1.218442 0.303063 0.0
1.194561 0.325472 0.0
1.162604 0.335399 0.0
1.124068 0.333287 0.0
1.080440 0.319690 0.0
1.032985 0.295498 0.0
0.982074 0.262478 0.0
0.925820 0.223984 0.0
0.859324 0.184570 0.0
0.778406 0.147112 0.0
0.688328 0.109939 0.0
0.607280 0.068019 0.0
0.554930 0.015287 0.0
0.536974 -0.051703 0.0
0.545933 -0.123719 0.0
0.572386 -0.188382 0.0
0.610919 -0.236714 0.0
0.660061 -0.262832 0.0
0.720117 -0.262911 0.0
0.791480 -0.235197 0.0
0.873588 -0.180819 0.0
0.964228 -0.104603 0.0
1.055359 -0.019042 0.0
1.132685 0.057492 0.0
1.189798 0.116585 0.0
1.229541 0.160399 0.0
1.254401 0.191261 0.0
1.266357 0.211158 0.0
1.267116 0.221832 0.0
1.258235 0.224836 0.0
1.241154 0.221559 0.0
1.217187 0.213262 0.0
1.187467 0.201157 0.0
1.152811 0.186606 0.0
1.113544 0.171430 0.0
1.069461 0.157998 0.0
1.020280 0.148543 0.0
0.966670 0.143542 0.0
0.911314 0.140241 0.0
0.858974 0.133106 0.0
0.815069 0.116589 0.0
0.783607 0.088245 0.0
0.765950 0.049691 0.0
0.761067 0.005183 0.0
0.766501 -0.040255 0.0
0.779441 -0.082451 0.0
0.797570 -0.118936 0.0
0.819289 -0.148486 0.0
0.843626 -0.170574 0.0
0.870136 -0.184955 0.0
0.898786 -0.191401 0.0
0.929796 -0.189592 0.0
0.963427 -0.179172 0.0
0.999760 -0.159942 0.0
1.038515 -0.132137 0.0
1.078931 -0.096696 0.0
1.119657 -0.055519 0.0
1.158261 -0.011976 0.0
1.190990 0.028709 0.0
1.215217 0.063301 0.0
1.230429 0.090782 0.0
1.236777 0.110815 0.0
1.234803 0.123627 0.0
1.225273 0.129945 0.0
1.209051 0.130940 0.0
1.187034 0.128172 0.0
1.160129 0.123461 0.0
1.129278 0.118633 0.0
1.095527 0.115117 0.0
1.060084 0.113486 0.0
1.024346 0.113178 0.0
0.989850 0.112599 0.0
0.958134 0.109657 0.0
0.930560 0.102507 0.0
0.908135 0.090166 0.0
0.891405 0.072815 0.0
0.880569 0.050037 0.0
0.999256 -0.014017 0.0
0.996239 -0.043756 0.0
0.990040 -0.077596 0.0
0.980357 -0.118546 0.0
0.966935 -0.170964 0.0
0.950226 -0.241936 0.0
0.933660 -0.344274 0.0
0.932155 -0.499381 0.0
1.028443 -0.869325 0.0
1.020188 -0.201746 0.0
0.822200 -0.110847 0.0
0.670818 -0.105248 0.0
0.582156 -0.083071 0.0
0.516859 -0.069248 0.0
0.475961 -0.078473 0.0
0.471599 -0.101572 0.0
0.504337 -0.121349 0.0
0.568233 -0.122953 0.0
0.660763 -0.079057 0.0
0.763134 0.015962 0.0
0.845838 0.114500 0.0
0.902672 0.194497 0.0
0.940040 0.258054 0.0
0.960353 0.306740 0.0
0.964826 0.341203 0.0
0.954632 0.361820 0.0
0.930963 0.369070 0.0
0.894618 0.363881 0.0
0.845199 0.348182 0.0
0.780500 0.325405 0.0
0.698234 0.299578 0.0
0.601889 0.271817 0.0
0.505810 0.236860 0.0
0.430386 0.185694 0.0
0.389604 0.114093 0.0
0.384307 0.026860 0.0
0.404086 -0.065099 0.0
0.435720 -0.150915 0.0
0.471635 -0.223556 0.0
0.510137 -0.278575 0.0
0.552503 -0.312478 0.0
0.601299 -0.322117 0.0
0.659090 -0.305145 0.0
0.727343 -0.261231 0.0
0.805774 -0.193263 0.0
0.892106 -0.107844 0.0
0.978881 -0.017808 0.0
1.053514 0.060139 0.0
1.110215 0.120401 0.0
1.150966 0.165649 0.0
1.177555 0.198226 0.0
1.191526 0.220034 0.0
1.194319 0.232722 0.0
1.187296 0.237777 0.0
1.171699 0.236609 0.0
1.148541 0.230688 0.0
1.118474 0.221798 0.0
1.081729 0.212252 0.0
1.038394 0.204593 0.0
0.989211 0.200312 0.0
0.936571 0.198021 0.0
0.884887 0.192802 0.0
0.839595 0.178178 0.0
0.805203 0.149814 0.0
0.783766 0.107920 0.0
0.774814 0.056625 0.0
0.776354 0.001592 0.0
0.785818 -0.051562 0.0
0.800716 -0.098983 0.0
0.819025 -0.138843 0.0
0.839247 -0.170520 0.0
0.860410 -0.194040 0.0
0.882069 -0.209658 0.0
0.904274 -0.217554 0.0
0.927471 -0.217645 0.0
0.952301 -0.209578 0.0
0.979342 -0.192910 0.0
1.008867 -0.167449 0.0
1.040682 -0.133614 0.0
1.074062 -0.092707 0.0
1.107727 -0.047057 0.0
1.139318 -0.000530 0.0
1.165789 0.041842 0.0
1.185182 0.077636 0.0
1.196881 0.105914 0.0
1.200852 0.126530 0.0
1.197422 0.140001 0.0
1.187135 0.147393 0.0
1.170663 0.150209 0.0
1.148787 0.150206 0.0
1.122430 0.149097 0.0
1.092705 0.148129 0.0
1.060958 0.147664 0.0
1.028730 0.146966 0.0
0.997644 0.144394 0.0
0.969222 0.138000 0.0
0.944693 0.126266 0.0
0.924877 0.108647 0.0
0.910163 0.085778 0.0
0.900720 0.057353 0.0
0.998691 -0.011964 0.0
0.993316 -0.037417 0.0
0.981934 -0.066355 0.0
0.963083 -0.101253 0.0
0.934024 -0.145775 0.0
0.889709 -0.206101 0.0
0.820244 -0.294077 0.0
0.706222 -0.434051 0.0
0.317437 -0.745378 0.0
-0.461209 0.267056 0.0
-0.461209 0.000000 0.0
-0.037679 -0.026664 0.0
-0.068995 -0.052691 0.0
-0.038015 -0.065311 0.0
0.022623 -0.102148 0.0
0.091800 -0.142713 0.0
0.153339 -0.174485 0.0
0.212661 -0.193034 0.0
0.283225 -0.172070 0.0
0.375668 -0.085840 0.0
0.474634 0.034632 0.0
0.557491 0.134673 0.0
0.622599 0.215401 0.0
0.670009 0.281671 0.0
0.698190 0.333618 0.0
0.706596 0.371194 0.0
0.694975 0.394985 0.0
0.662747 0.406538 0.0
0.609282 0.408409 0.0
0.536320 0.402839 0.0
0.452320 0.388410 0.0
0.373963 0.357686 0.0
0.319652 0.301381 0.0
0.299101 0.217149 0.0
0.309628 0.112893 0.0
0.340735 0.002251 0.0
0.380112 -0.099645 0.0
0.419425 -0.187315 0.0
0.455587 -0.259233 0.0
0.488319 -0.314132 0.0
0.519506 -0.350474 0.0
0.552672 -0.366081 0.0
0.592041 -0.358341 0.0
0.641155 -0.325402 0.0
0.701569 -0.267937 0.0
0.772334 -0.190267 0.0
0.850265 -0.100091 0.0
0.927795 -0.009741 0.0
0.994526 0.066849 0.0
1.046110 0.126866 0.0
1.083704 0.172826 0.0
1.108445 0.206723 0.0
1.121449 0.230237 0.0
1.123811 0.244923 0.0
1.116529 0.252343 0.0
1.100389 0.254251 0.0
1.075890 0.252800 0.0
1.043381 0.250504 0.0
1.003604 0.249453 0.0
0.958544 0.249696 0.0
0.911998 0.247824 0.0
0.869084 0.237597 0.0
0.834637 0.213121 0.0
0.811514 0.172386 0.0
0.800079 0.118220 0.0
0.798963 0.056392 0.0
0.806103 -0.006855 0.0
0.819175 -0.065651 0.0
0.835952 -0.116569 0.0
0.854612 -0.158225 0.0
0.873707 -0.190454 0.0
0.892215 -0.213777 0.0
0.909618 -0.228981 0.0
0.925941 -0.236759 0.0
0.941729 -0.237425 0.0
0.957899 -0.230797 0.0
0.975476 -0.216310 0.0
0.995288 -0.193386 0.0
1.017698 -0.161902 0.0
1.042496 -0.122595 0.0
1.068902 -0.077239 0.0
1.095601 -0.028638 0.0
1.120278 0.018801 0.0
1.140513 0.061048 0.0
1.154948 0.096368 0.0
1.162960 0.124094 0.0
1.164413 0.144414 0.0
1.159491 0.158189 0.0
1.148604 0.166771 0.0
1.132369 0.171755 0.0
1.111624 0.174649 0.0
1.087471 0.176454 0.0
1.061263 0.177295 0.0
1.034521 0.176305 0.0
1.008770 0.171892 0.0
0.985339 0.162355 0.0
0.965218 0.146561 0.0
0.949012 0.124374 0.0
0.936995 0.096782 0.0
0.929386 0.063400 0.0
0.998289 -0.008944 0.0
0.991241 -0.028013 0.0
0.976222 -0.049359 0.0
0.951070 -0.074246 0.0
0.911621 -0.104273 0.0
0.849877 -0.141544 0.0
0.749228 -0.188520 0.0
0.570374 -0.246732 0.0
0.227202 -0.300332 0.0
0.000000 0.267056 0.0
-0.000000 -0.000000 0.0
0.000000 0.000000 0.0
-0.030879 -0.029527 0.0
-0.066701 -0.084987 0.0
-0.065948 -0.143862 0.0
-0.055361 -0.180764 0.0
-0.048633 -0.204703 0.0
-0.039809 -0.230962 0.0
-0.011952 -0.232564 0.0
0.049993 -0.179735 0.0
0.145073 -0.065519 0.0
0.243949 0.053091 0.0
0.325883 0.149940 0.0
0.389890 0.235715 0.0
0.432708 0.308575 0.0
0.452793 0.367747 0.0
0.449245 0.413600 0.0
0.422553 0.446843 0.0
0.376651 0.467473 0.0
0.321304 0.472083 0.0
0.272096 0.452373 0.0
0.244857 0.399319 0.0
0.247504 0.311414 0.0
0.277180 0.197990 0.0
0.324667 0.074037 0.0
0.377880 -0.043213 0.0
0.427547 -0.143225 0.0
0.470314 -0.225816 0.0
0.504990 -0.291572 0.0
0.531555 -0.341091 0.0
0.551549 -0.374697 0.0
0.568358 -0.391833 0.0
0.586999 -0.390599 0.0
0.612997 -0.368255 0.0
0.650508 -0.323009 0.0
0.700729 -0.256181 0.0
0.761646 -0.173025 0.0
0.828994 -0.081686 0.0
0.894956 0.006101 0.0
0.951317 0.079668 0.0
0.995300 0.138447 0.0
1.027331 0.184330 0.0
1.048027 0.218930 0.0
1.058077 0.243818 0.0
1.058126 0.260681 0.0
1.048690 0.271489 0.0
1.030201 0.278551 0.0
1.003336 0.284127 0.0
0.969664 0.289280 0.0
0.932251 0.292342 0.0
0.895596 0.288379 0.0
0.864505 0.271045 0.0
0.842469 0.236156 0.0
0.830737 0.184207 0.0
0.828674 0.119897 0.0
0.834754 0.049750 0.0
0.847072 -0.019671 0.0
0.863513 -0.082347 0.0
0.882084 -0.135220 0.0
0.901081 -0.177232 0.0
0.919125 -0.208586 0.0
0.935207 -0.230236 0.0
0.948763 -0.243481 0.0
0.959751 -0.249572 0.0
0.968704 -0.249353 0.0
0.976667 -0.243002 0.0
0.984998 -0.230015 0.0
0.995029 -0.209524 0.0
1.007709 -0.180855 0.0
1.023372 -0.144102 0.0
1.041690 -0.100456 0.0
1.061771 -0.052200 0.0
1.082120 -0.002663 0.0
1.100655 0.043742 0.0
1.115547 0.084348 0.0
1.125742 0.117906 0.0
1.130697 0.144194 0.0
1.130248 0.163781 0.0
1.124538 0.177776 0.0
1.113991 0.187532 0.0
1.099326 0.194282 0.0
1.081556 0.198744 0.0
1.061942 0.200828 0.0
1.041857 0.199599 0.0
1.022604 0.193603 0.0
1.005232 0.181447 0.0
0.990447 0.162375 0.0
0.978631 0.136582 0.0
0.969952 0.105271 0.0
0.964644 0.067827 0.0
0.998130 -0.005364 0.0
0.990439 -0.016853 0.0
0.974131 -0.029193 0.0
0.947131 -0.042261 0.0
0.905744 -0.055423 0.0
0.843930 -0.066837 0.0
0.752392 -0.071040 0.0
0.620486 -0.053452 0.0
0.447935 0.025739 0.0
0.176346 0.158763 0.0
0.000000 0.000000 0.0
-0.000000 -0.000000 0.0
0.000000 0.000000 0.0
-0.040914 -0.040022 0.0
-0.102105 -0.129281 0.0
-0.143591 -0.164446 0.0
-0.185020 -0.186319 0.0
-0.214209 -0.228980 0.0
-0.218008 -0.258603 0.0
-0.191225 -0.242423 0.0
-0.124528 -0.164607 0.0
-0.021126 -0.050100 0.0
0.079164 0.070907 0.0
0.151587 0.178319 0.0
0.202029 0.272712 0.0
0.231104 0.354450 0.0
0.239027 0.422523 0.0
0.229554 0.474085 0.0
0.211223 0.504464 0.0
0.196574 0.505088 0.0
0.198489 0.466660 0.0
0.224150 0.386610 0.0
0.272227 0.273399 0.0
0.335754 0.142801 0.0
0.404831 0.012662 0.0
0.468886 -0.099106 0.0
0.522886 -0.190998 0.0
0.566433 -0.264357 0.0
0.599092 -0.320365 0.0
0.620809 -0.360580 0.0
0.632353 -0.386747 0.0
0.635929 -0.400168 0.0
0.635766 -0.400743 0.0
0.638011 -0.386354 0.0
0.649246 -0.353657 0.0
0.674021 -0.300529 0.0
0.713002 -0.228574 0.0
0.763096 -0.143578 0.0
0.818998 -0.053870 0.0
0.872906 0.029370 0.0
0.918524 0.099144 0.0
0.954186 0.155940 0.0
0.979747 0.201063 0.0
0.995378 0.236003 0.0
1.001338 0.262487 0.0
0.997925 0.282532 0.0
0.985655 0.298268 0.0
0.965689 0.311240 0.0
0.940368 0.321160 0.0
0.913387 0.324857 0.0
0.889150 0.316757 0.0
0.871425 0.291483 0.0
0.862184 0.246995 0.0
0.861496 0.185788 0.0
0.868327 0.113548 0.0
0.881328 0.037018 0.0
0.898721 -0.036649 0.0
0.918367 -0.101456 0.0
0.938373 -0.154688 0.0
0.957220 -0.195609 0.0
0.973718 -0.224752 0.0
0.987009 -0.243442 0.0
0.996596 -0.253416 0.0
1.002420 -0.256449 0.0
1.004950 -0.253959 0.0
1.005226 -0.246634 0.0