# vtk DataFile Version 3.0
Scalar Field
ASCII
DATASET RECTILINEAR_GRID
DIMENSIONS 100 26 1
X_COORDINATES 100 double
0.050000 0.150000 0.250000 0.350000 0.450000 0.550000 0.650000 0.750000 0.850000 0.950000 1.050000 1.150000 1.250000 1.350000 1.450000 1.550000 1.650000 1.750000 1.850000 1.950000 2.050000 2.150000 2.250000 2.350000 2.450000 2.550000 2.650000 2.750000 2.850000 2.950000 3.050000 3.150000 3.250000 3.350000 3.450000 3.550000 3.650000 3.750000 3.850000 3.950000 4.050000 4.150000 4.250000 4.350000 4.450000 4.550000 4.650000 4.750000 4.850000 4.950000 5.050000 5.150000 5.250000 5.350000 5.450000 5.550000 5.650000 5.750000 5.850000 5.950000 6.050000 6.150000 6.250000 6.350000 6.450000 6.550000 6.650000 6.750000 6.850000 6.950000 7.050000 7.150000 7.250000 7.350000 7.450000 7.550000 7.650000 7.750000 7.850000 7.950000 8.050000 8.150000 8.250000 8.350000 8.450000 8.550000 8.650000 8.750000 8.850000 8.950000 9.050000 9.150000 9.250000 9.350000 9.450000 9.550000 9.650000 9.750000 9.850000 9.950000 
Y_COORDINATES 26 double
0.050000 0.150000 0.250000 0.350000 0.450000 0.550000 0.650000 0.750000 0.850000 0.950000 1.050000 1.150000 1.250000 1.350000 1.450000 1.550000 1.650000 1.750000 1.850000 1.950000 2.050000 2.150000 2.250000 2.350000 2.450000 2.550000 
Z_COORDINATES 1 double
0.0
POINT_DATA 2600
SCALARS Skalarfeld double 1
LOOKUP_TABLE default
0.291882
0.276775
0.262086
0.244782
0.223765
0.198599
0.169262
0.136131
0.100022
0.062196
0.024238
-0.012196
-0.045675
-0.075176
-0.100155
-0.120521
-0.136558
-0.148540
-0.156996
-0.162510
-0.165518
-0.166298
-0.164972
-0.161571
-0.156137
-0.148816
-0.139923
-0.129943
-0.119480
-0.109160
-0.099532
-0.090965
-0.083578
-0.077213
-0.071454
-0.065701
-0.059269
-0.051478
-0.041781
-0.029498
-0.014299
0.001518
0.016569
0.030125
0.041764
0.051187
0.058188
0.062708
0.064531
0.064384
0.061964
0.056914
0.048966
0.038041
0.024543
0.009708
-0.004387
-0.015621
-0.023031
-0.027139
-0.029095
-0.029239
-0.027910
-0.025090
-0.021180
-0.016784
-0.012341
-0.008204
-0.004645
-0.001873
-0.000067
0.000685
0.000449
-0.000767
-0.002710
-0.005034
-0.007336
-0.009237
-0.010483
-0.011036
-0.011039
-0.010776
-0.011009
-0.012209
-0.014656
-0.018275
-0.023023
-0.028650
-0.034823
-0.041244
-0.047712
-0.054117
-0.060261
-0.066124
-0.071865
-0.077519
-0.083064
-0.088531
-0.093945
-0.099241
0.282718
0.276418
0.264701
0.248579
0.227925
0.202555
0.172484
0.138095
0.100293
0.060549
0.020777
-0.017081
-0.051443
-0.081282
-0.106132
-0.125995
-0.141175
-0.152355
-0.160201
-0.165324
-0.168167
-0.169016
-0.167934
-0.164856
-0.159715
-0.152576
-0.143707
-0.133590
-0.122850
-0.112153
-0.102088
-0.093058
-0.085211
-0.078408
-0.072241
-0.066118
-0.059347
-0.051121
-0.040352
-0.027023
-0.012395
0.002565
0.016868
0.029892
0.041213
0.050491
0.057500
0.062231
0.065060
0.064985
0.062521
0.057346
0.049160
0.037832
0.023781
0.008425
-0.005884
-0.016930
-0.023974
-0.027847
-0.029637
-0.030040
-0.028879
-0.025880
-0.021740
-0.017200
-0.012614
-0.008344
-0.004662
-0.001771
0.000232
0.001225
0.000942
-0.000445
-0.002555
-0.005035
-0.007448
-0.009378
-0.010542
-0.010842
-0.010497
-0.010203
-0.010414
-0.011518
-0.013752
-0.017384
-0.022272
-0.028097
-0.034461
-0.041021
-0.047565
-0.053978
-0.060056
-0.066003
-0.071910
-0.077760
-0.083462
-0.089056
-0.094512
-0.099832
0.285185
0.281241
0.271422
0.256335
0.235951
0.210040
0.178484
0.141577
0.100324
0.056608
0.013107
-0.027585
-0.063605
-0.093967
-0.118417
-0.137240
-0.151079
-0.160824
-0.167403
-0.171673
-0.174362
-0.175676
-0.175502
-0.173510
-0.169346
-0.162846
-0.154151
-0.143709
-0.132180
-0.120296
-0.108725
-0.097951
-0.088202
-0.079424
-0.071298
-0.063309
-0.054818
-0.045150
-0.033755
-0.020565
-0.007087
0.006338
0.019149
0.030881
0.041126
0.049517
0.055788
0.059854
0.061810
0.061745
0.058624
0.052944
0.044660
0.033795
0.020866
0.007140
-0.005581
-0.015764
-0.022937
-0.027552
-0.030086
-0.030534
-0.028649
-0.025405
-0.021588
-0.017293
-0.012748
-0.008511
-0.004849
-0.002007
-0.000144
0.000639
0.000346
-0.000905
-0.002890
-0.005153
-0.007254
-0.008842
-0.009715
-0.009865
-0.009534
-0.009196
-0.009346
-0.010406
-0.012651
-0.016252
-0.021119
-0.026956
-0.033350
-0.039945
-0.046492
-0.052814
-0.059133
-0.065486
-0.071817
-0.078134
-0.084229
-0.090350
-0.096527
-0.102734
0.294950
0.291779
0.283012
0.268667
0.248382
0.221571
0.187712
0.146782
0.099823
0.049362
-0.000271
-0.045277
-0.083491
-0.114183
-0.137564
-0.154402
-0.165799
-0.173050
-0.177498
-0.180379
-0.182588
-0.184605
-0.185940
-0.185761
-0.183208
-0.177735
-0.169295
-0.158316
-0.145542
-0.131825
-0.117955
-0.104531
-0.091899
-0.080138
-0.069088
-0.058413
-0.047694
-0.036543
-0.024737
-0.012361
0.000107
0.012136
0.023458
0.033726
0.042539
0.049489
0.054289
0.056844
0.057212
0.055499
0.051770
0.045533
0.037115
0.026983
0.015668
0.004111
-0.006514
-0.015244
-0.021695
-0.025947
-0.028144
-0.028359
-0.026786
-0.023916
-0.020042
-0.015679
-0.011488
-0.007652
-0.004279
-0.001743
-0.000211
0.000227
-0.000380
-0.001827
-0.003775
-0.005809
-0.007563
-0.008785
-0.009375
-0.009383
-0.009030
-0.008667
-0.008666
-0.009433
-0.011345
-0.014609
-0.019204
-0.024855
-0.031140
-0.037750
-0.044456
-0.051150
-0.057870
-0.064588
-0.071218
-0.077723
-0.084532
-0.091734
-0.099574
-0.110867
0.310551
0.307783
0.299821
0.286234
0.266153
0.238333
0.201426
0.154603
0.098654
0.036914
-0.022322
-0.073198
-0.113626
-0.143771
-0.164753
-0.178071
-0.185432
-0.188672
-0.189707
-0.190364
-0.192021
-0.195088
-0.198953
-0.201712
-0.201616
-0.197533
-0.189219
-0.177212
-0.162501
-0.146195
-0.129294
-0.112558
-0.096475
-0.081268
-0.066946
-0.053376
-0.040364
-0.027741
-0.015429
-0.003470
0.008000
0.018893
0.029014
0.037972
0.045335
0.050639
0.053617
0.054251
0.052655
0.048981
0.043403
0.036180
0.027657
0.017987
0.008048
-0.001523
-0.010021
-0.016873
-0.021816
-0.024849
-0.026069
-0.025625
-0.023754
-0.020798
-0.017115
-0.013117
-0.009153
-0.005472
-0.002513
-0.000436
0.000638
0.000588
-0.000521
-0.002417
-0.004684
-0.006872
-0.008622
-0.009733
-0.010170
-0.010009
-0.009468
-0.008876
-0.008615
-0.009085
-0.010639
-0.013478
-0.017599
-0.022849
-0.028985
-0.035637
-0.042446
-0.049275
-0.056092
-0.062898
-0.069727
-0.076707
-0.084113
-0.092256
-0.101696
-0.119291
0.331227
0.328868
0.321919
0.309577
0.290363
0.262032
0.221729
0.166779
0.096736
0.015265
-0.058570
-0.116152
-0.157380
-0.184798
-0.201065
-0.208576
-0.209693
-0.206823
-0.202582
-0.199731
-0.200612
-0.206009
-0.214272
-0.222025
-0.225839
-0.223690
-0.215213
-0.201361
-0.183689
-0.163792
-0.143006
-0.122310
-0.102333
-0.083422
-0.065718
-0.049237
-0.033941
-0.019791
-0.006766
0.005135
0.015921
0.025628
0.034694
0.042508
0.048568
0.052290
0.053483
0.052324
0.049032
0.043753
0.036610
0.027835
0.017874
0.007979
-0.001232
-0.009359
-0.016056
-0.021018
-0.024160
-0.025557
-0.025371
-0.023817
-0.021163
-0.017724
-0.013832
-0.009817
-0.005985
-0.002614
0.000003
0.001701
0.002235
0.001558
-0.000224
-0.002822
-0.005801
-0.008657
-0.010899
-0.012238
-0.012775
-0.012531
-0.011740
-0.010770
-0.010046
-0.009999
-0.010998
-0.013285
-0.016927
-0.021819
-0.027693
-0.034174
-0.040950
-0.047770
-0.054478
-0.061117
-0.067805
-0.074755
-0.082299
-0.090914
-0.101363
-0.121505
0.356207
0.354434
0.349072
0.339028
0.322194
0.295019
0.252141
0.186846
0.094239
-0.024568
-0.118809
-0.180338
-0.217606
-0.238158
-0.246421
-0.245308
-0.237653
-0.226156
-0.214077
-0.205491
-0.204649
-0.213582
-0.230007
-0.246519
-0.256562
-0.257172
-0.248094
-0.231304
-0.209430
-0.184838
-0.159316
-0.134071
-0.109851
-0.087075
-0.065956
-0.046586
-0.029005
-0.013237
0.000701
0.012803
0.023089
0.031618
0.038473
0.044870
0.049610
0.051767
0.051231
0.048617
0.044374
0.038592
0.031157
0.022028
0.011505
0.000358
-0.009973
-0.017575
-0.023303
-0.026894
-0.028482
-0.028299
-0.026624
-0.023765
-0.020047
-0.015805
-0.011362
-0.007023
-0.003059
0.000280
0.002749
0.004112
0.004140
0.002732
-0.000002
-0.003705
-0.007827
-0.011755
-0.014979
-0.017068
-0.017873
-0.017531
-0.016373
-0.014852
-0.013462
-0.012678
-0.012902
-0.014417
-0.017347
-0.021645
-0.027093
-0.033344
-0.040014
-0.046688
-0.053154
-0.059436
-0.065679
-0.072154
-0.079253
-0.087515
-0.097693
-0.117136
0.384395
0.383479
0.380544
0.374400
0.362547
0.340160
0.298380
0.222403
0.091989
-0.103725
-0.218016
-0.269156
-0.292121
-0.300379
-0.297744
-0.285867
-0.267922
-0.246077
-0.223641
-0.205866
-0.200319
-0.211841
-0.238454
-0.270865
-0.290945
-0.295552
-0.285473
-0.264783
-0.237815
-0.207919
-0.177336
-0.147439
-0.119021
-0.092518
-0.068155
-0.046052
-0.026279
-0.008890
0.006053
0.018454
0.028171
0.035142
0.039580
0.041710
0.042957
0.043379
0.041144
0.037941
0.034239
0.029746
0.023926
0.016361
0.007020
-0.003560
-0.014256
-0.023864
-0.029601
-0.032723
-0.033491
-0.032266
-0.029448
-0.025456
-0.020703
-0.015579
-0.010441
-0.005602
-0.001337
0.002107
0.004473
0.005489
0.004899
0.002574
-0.001357
-0.006454
-0.012021
-0.017267
-0.021515
-0.024372
-0.025363
-0.024767
-0.023061
-0.020803
-0.018564
-0.016866
-0.016144
-0.016711
-0.018734
-0.022217
-0.026997
-0.032761
-0.039104
-0.045598
-0.051873
-0.057679
-0.063281
-0.068951
-0.075090
-0.082222
-0.090992
-0.107375
0.414200
0.414418
0.414807
0.414433
0.411083
0.399690
0.368539
0.290401
0.096855
-0.274292
-0.369316
-0.369534
-0.365411
-0.359440
-0.346988
-0.324854
-0.298271
-0.267810
-0.236479
-0.207344
-0.192198
-0.201742
-0.233927
-0.278496
-0.318609
-0.328956
-0.318327
-0.294062
-0.262675
-0.228457
-0.193922
-0.160463
-0.128838
-0.099466
-0.072587
-0.048352
-0.026868
-0.008239
0.007375
0.019642
0.028001
0.032005
0.032095
0.029693
0.026157
0.022511
0.020024
0.018371
0.017178
0.015744
0.013232
0.008925
0.002470
-0.005940
-0.015495
-0.024932
-0.032755
-0.036506
-0.037372
-0.035961
-0.032702
-0.028103
-0.022674
-0.016891
-0.011177
-0.005896
-0.001361
0.002146
0.004333
0.004886
0.003521
0.000105
-0.005188
-0.011794
-0.018829
-0.025302
-0.030389
-0.033642
-0.034530
-0.033447
-0.030992
-0.027826
-0.024595
-0.021865
-0.020097
-0.019621
-0.020628
-0.023160
-0.027097
-0.032166
-0.037973
-0.044065
-0.050024
-0.055504
-0.060361
-0.065038
-0.069896
-0.075388
-0.082026
-0.094115
0.443521
0.445039
0.449331
0.456134
0.464551
0.471697
0.468434
0.424139
0.200686
-0.589939
-0.546347
-0.433224
-0.407530
-0.396036
-0.380362
-0.358597
-0.327331
-0.291439
-0.255053
-0.223395
-0.205287
-0.208543
-0.234639
-0.276286
-0.318102
-0.343095
-0.333837
-0.308057
-0.274998
-0.239459
-0.203874
-0.169459
-0.136873
-0.106535
-0.078750
-0.053777
-0.031863
-0.013315
0.001367
0.011391
0.015916
0.014859
0.009635
0.002799
-0.003411
-0.007469
-0.008130
-0.006620
-0.004006
-0.001345
0.000342
0.000175
-0.002427
-0.007572
-0.014773
-0.022976
-0.030739
-0.036590
-0.038541
-0.037838
-0.034965
-0.030481
-0.024969
-0.018991
-0.013057
-0.007606
-0.003017
0.000365
0.002199
0.002128
-0.000153
-0.004755
-0.011419
-0.019430
-0.027718
-0.035127
-0.040736
-0.044006
-0.044480
-0.042669
-0.039272
-0.035048
-0.030714
-0.026881
-0.024024
-0.022481
-0.022448
-0.023982
-0.026995
-0.031247
-0.036364
-0.041886
-0.047346
-0.052377
-0.056645
-0.060267
-0.063728
-0.067381
-0.071612
-0.079150
0.469966
0.472713
0.480738
0.494631
0.515395
0.544365
0.582574
0.627167
0.714014
0.062038
-0.482789
-0.419230
-0.411869
-0.409543
-0.400644
-0.380924
-0.353958
-0.322953
-0.292270
-0.266627
-0.250487
-0.246872
-0.257770
-0.281129
-0.307808
-0.324585
-0.323411
-0.299775
-0.268381
-0.235200
-0.202208
-0.170227
-0.139731
-0.111134
-0.084861
-0.061360
-0.041138
-0.024855
-0.013443
-0.007982
-0.009029
-0.015616
-0.024993
-0.033794
-0.039675
-0.041018
-0.038033
-0.032313
-0.025285
-0.018210
-0.012192
-0.008150
-0.006753
-0.008303
-0.012598
-0.018871
-0.025878
-0.032206
-0.036350
-0.036887
-0.035073
-0.031397
-0.026446
-0.020836
-0.015154
-0.009924
-0.005603
-0.002606
-0.001335
-0.002187
-0.005476
-0.011269
-0.019202
-0.028410
-0.037670
-0.045719
-0.051580
-0.054528
-0.054344
-0.051597
-0.047091
-0.041686
-0.036172
-0.031201
-0.027261
-0.024680
-0.023645
-0.024212
-0.026304
-0.029702
-0.034055
-0.038903
-0.043754
-0.048169
-0.051854
-0.054534
-0.056652
-0.058510
-0.060408
-0.063786
0.491281
0.494909
0.505589
0.524453
0.553673
0.597043
0.661192
0.757226
0.889166
0.914441
0.000000
-0.412523
-0.405816
-0.402820
-0.399327
-0.392996
-0.381963
-0.367807
-0.352856
-0.339686
-0.326185
-0.312935
-0.303700
-0.299592
-0.298457
-0.295044
-0.284980
-0.267224
-0.241349
-0.213306
-0.185862
-0.159327
-0.133869
-0.109843
-0.087771
-0.068306
-0.052252
-0.040656
-0.034786
-0.035637
-0.042887
-0.054166
-0.065719
-0.074111
-0.077303
-0.073777
-0.065895
-0.055311
-0.043617
-0.032178
-0.022105
-0.014265
-0.009287
-0.007526
-0.008962
-0.013084
-0.018882
-0.025024
-0.030167
-0.032768
-0.032398
-0.030038
-0.026174
-0.021432
-0.016454
-0.011833
-0.008102
-0.005747
-0.005231
-0.006990
-0.011335
-0.018278
-0.027349
-0.037555
-0.047564
-0.056031
-0.061942
-0.064349
-0.063306
-0.059467
-0.053742
-0.047088
-0.040369
-0.034276
-0.029300
-0.025757
-0.023809
-0.023494
-0.024730
-0.027310
-0.030896
-0.035037
-0.039226
-0.042987
-0.045964
-0.047891
-0.048771
-0.049022
-0.048865
-0.048782
0.505856
0.509838
0.521528
0.542050
0.573397
0.618472
0.680660
0.761910
0.856647
0.939715
0.847062
0.000000
-0.401592
-0.397368
-0.396725
-0.403076
-0.413286
-0.424091
-0.432965
-0.436551
-0.424766
-0.397026
-0.361566
-0.325172
-0.291896
-0.263229
-0.238491
-0.215606
-0.195008
-0.174317
-0.153784
-0.134511
-0.116163
-0.098919
-0.083333
-0.070220
-0.060687
-0.056135
-0.057938
-0.066479
-0.080078
-0.095044
-0.107197
-0.113633
-0.111354
-0.102498
-0.089249
-0.073614
-0.057336
-0.041832
-0.028175
-0.017134
-0.009227
-0.004751
-0.003740
-0.005861
-0.010328
-0.015959
-0.021402
-0.025420
-0.026868
-0.026095
-0.023626
-0.020079
-0.016121
-0.012394
-0.009494
-0.007971
-0.008348
-0.011095
-0.016514
-0.024556
-0.034656
-0.045720
-0.056327
-0.065066
-0.070866
-0.072567
-0.070548
-0.065557
-0.058604
-0.050734
-0.042875
-0.035747
-0.029844
-0.025457
-0.022720
-0.021642
-0.022129
-0.023973
-0.026843
-0.030297
-0.033822
-0.036917
-0.039172
-0.040336
-0.040203
-0.039109
-0.037255
-0.034467
0.513048
0.516855
0.527942
0.547077
0.575537
0.614953
0.666436
0.727760
0.784785
0.801169
0.754409
0.634263
0.000000
-0.398412
-0.399455
-0.418955
-0.449007
-0.486037
-0.521233
-0.539766
-0.522520
-0.476307
-0.414598
-0.347942
-0.284825
-0.231295
-0.188887
-0.156970
-0.134702
-0.119038
-0.106210
-0.094660
-0.084282
-0.075015
-0.067447
-0.062578
-0.061815
-0.066756
-0.078386
-0.095850
-0.115881
-0.133801
-0.145406
-0.148170
-0.139780
-0.125134
-0.106555
-0.086193
-0.065842
-0.046882
-0.030301
-0.016745
-0.006594
-0.000040
0.002908
0.002484
-0.000714
-0.005692
-0.011204
-0.016065
-0.019066
-0.019737
-0.018695
-0.016447
-0.013638
-0.010935
-0.008980
-0.008381
-0.009715
-0.013477
-0.019956
-0.029040
-0.040079
-0.051894
-0.062989
-0.071877
-0.077416
-0.078294
-0.075287
-0.069219
-0.061173
-0.052261
-0.043450
-0.035475
-0.028823
-0.023758
-0.020383
-0.018680
-0.018538
-0.019743
-0.021973
-0.024791
-0.027684
-0.030138
-0.031717
-0.032142
-0.031149
-0.028953
-0.025743
-0.020901
0.513193
0.516467
0.525920
0.541939
0.564979
0.595080
0.630878
0.667087
0.690324
0.675521
0.605021
0.514118
0.343320
0.000000
-0.427939
-0.456422
-0.482518
-0.535963
-0.592144
-0.618834
-0.590189
-0.526651
-0.443562
-0.354485
-0.269559
-0.196042
-0.138000
-0.096419
-0.069374
-0.053312
-0.044812
-0.040795
-0.038126
-0.037069
-0.038448
-0.043477
-0.053702
-0.070433
-0.093580
-0.120618
-0.146833
-0.167009
-0.177448
-0.173551
-0.159710
-0.139856
-0.116740
-0.092609
-0.069203
-0.047780
-0.029182
-0.013909
-0.002207
0.005846
0.010287
0.011299
0.009321
0.005146
-0.000119
-0.005275
-0.009293
-0.011316
-0.011576
-0.010538
-0.008827
-0.007120
-0.006095
-0.006409
-0.008685
-0.013433
-0.020917
-0.030961
-0.042833
-0.055282
-0.066748
-0.075670
-0.080742
-0.080758
-0.076899
-0.069993
-0.061160
-0.051537
-0.042100
-0.033573
-0.026422
-0.020886
-0.017040
-0.014847
-0.014184
-0.014841
-0.016500
-0.018733
-0.021033
-0.022879
-0.023819
-0.023541
-0.021835
-0.018733
-0.014441
-0.008022
0.507281
0.509782
0.516893
0.528592
0.544603
0.563904
0.583816
0.598413
0.596539
0.560595
0.472837
0.324829
0.172523
-0.259393
-0.508529
-0.448949
-0.484482
-0.556497
-0.628726
-0.642618
-0.602175
-0.527030
-0.433277
-0.334232
-0.239839
-0.157128
-0.090433
-0.041348
-0.008628
0.010726
0.019824
0.020454
0.017169
0.010748
0.000083
-0.015973
-0.038589
-0.068113
-0.102884
-0.138740
-0.169926
-0.190978
-0.197775
-0.187720
-0.169189
-0.145472
-0.119366
-0.093039
-0.068059
-0.045492
-0.025995
-0.009915
0.002625
0.011640
0.017217
0.019504
0.018798
0.015674
0.011035
0.005975
0.001499
-0.001440
-0.002685
-0.002615
-0.001814
-0.000958
-0.000748
-0.001883
-0.005016
-0.010663
-0.019045
-0.029916
-0.042467
-0.055384
-0.067068
-0.075991
-0.079951
-0.079468
-0.075101
-0.067772
-0.058618
-0.048757
-0.039133
-0.030433
-0.023087
-0.017308
-0.013154
-0.010584
-0.009479
-0.009639
-0.010763
-0.012438
-0.014165
-0.015425
-0.015760
-0.014839
-0.012493
-0.008638
-0.003464
0.004236
0.496742
0.498365
0.502878
0.509971
0.518906
0.528105
0.534490
0.532529
0.513192
0.463101
0.364653
0.194308
-0.097702
-0.691308
-0.568110
-0.458374
-0.485459
-0.553399
-0.608677
-0.603608
-0.557857
-0.483081
-0.392469
-0.297270
-0.205922
-0.124302
-0.056195
-0.003547
0.033844
0.058184
0.071789
0.075423
0.069914
0.058032
0.038935
0.012344
-0.021852
-0.062570
-0.106581
-0.148539
-0.182175
-0.202016
-0.201365
-0.188189
-0.167142
-0.141818
-0.114931
-0.088430
-0.063635
-0.041385
-0.022162
-0.006189
0.006497
0.015973
0.022360
0.025791
0.026454
0.024712
0.021208
0.016843
0.012563
0.009210
0.007400
0.006837
0.006991
0.007209
0.006777
0.004968
0.001111
-0.005292
-0.014408
-0.025913
-0.038925
-0.052069
-0.063686
-0.072092
-0.075406
-0.074608
-0.070146
-0.062923
-0.054022
-0.044486
-0.035178
-0.026718
-0.019490
-0.013683
-0.009355
-0.006479
-0.004961
-0.004629
-0.005208
-0.006306
-0.007443
-0.008111
-0.007854
-0.006338
-0.003385
0.001117
0.007040
0.015867
0.483203
0.483971
0.485996
0.488820
0.491500
0.492313
0.488323
0.474843
0.444893
0.388725
0.293343
0.141775
-0.087537
-0.375635
-0.429609
-0.430951
-0.461972
-0.506382
-0.527594
-0.516860
-0.476482
-0.413634
-0.337532
-0.256690
-0.177845
-0.105819
-0.043692
0.007038
0.046337
0.074986
0.093268
0.102887
0.103284
0.090075
0.065995
0.032392
-0.009341
-0.056600
-0.104939
-0.148394
-0.180880
-0.194465
-0.189920
-0.175368
-0.154427
-0.130213
-0.105044
-0.080508
-0.057635
-0.037056
-0.019126
-0.004010
0.008271
0.017796
0.024692
0.029091
0.031122
0.030995
0.029108
0.026098
0.022734
0.019713
0.017882
0.017077
0.016885
0.016706
0.015832
0.013527
0.009124
0.002156
-0.007477
-0.019371
-0.032576
-0.045690
-0.057077
-0.064521
-0.067578
-0.066860
-0.062821
-0.056298
-0.048260
-0.039617
-0.031110
-0.023267
-0.016419
-0.010745
-0.006319
-0.003155
-0.001204
-0.000338
-0.000317
-0.000779
-0.001270
-0.001302
-0.000434
0.001667
0.005191
0.010277
0.016866
0.026747
0.468246
0.468258
0.468116
0.467325
0.464935
0.459341
0.448032
0.427328
0.392182
0.336168
0.251771
0.131771
-0.025271
-0.196906
-0.292461
-0.343822
-0.384483
-0.416470
-0.427819
-0.418928
-0.388959
-0.341828
-0.283462
-0.219900
-0.156300
-0.096572
-0.043335
0.002000
0.039036
0.067973
0.089052
0.105057
0.108077
0.097160
0.073370
0.038780
-0.003905
-0.050940
-0.097165
-0.136368
-0.162537
-0.169447
-0.164687
-0.151764
-0.133828
-0.113380
-0.092201
-0.071467
-0.051919
-0.034023
-0.018078
-0.004270
0.007316
0.016682
0.023900
0.029077
0.032325
0.033785
0.033693
0.032450
0.030579
0.028886
0.027667
0.027070
0.026869
0.026559
0.025471
0.022883
0.018148
0.010848
0.000954
-0.011048
-0.024148
-0.036928
-0.047568
-0.054313
-0.057560
-0.057409
-0.054350
-0.049111
-0.042488
-0.035213
-0.027876
-0.020905
-0.014588
-0.009109
-0.004587
-0.001099
0.001340
0.002806
0.003498
0.003745
0.003973
0.004639
0.006160
0.008859
0.012934
0.018565
0.025753
0.036633
0.453273
0.452655
0.450732
0.447061
0.440806
0.430619
0.414510
0.389769
0.352978
0.300254
0.227890
0.133860
0.021273
-0.096279
-0.186042
-0.248707
-0.293804
-0.323984
-0.336599
-0.332978
-0.313294
-0.280085
-0.237261
-0.189069
-0.139374
-0.091290
-0.047051
-0.008023
0.025163
0.052372
0.074566
0.088917
0.092718
0.084713
0.065101
0.035352
-0.001789
-0.042246
-0.080782
-0.111722
-0.128385
-0.134154
-0.131319
-0.122365
-0.109588
-0.094769
-0.079122
-0.063396
-0.048048
-0.033403
-0.019749
-0.007357
0.003549
0.012824
0.020411
0.026338
0.030675
0.033544
0.035097
0.035630
0.035785
0.035752
0.035612
0.035664
0.035819
0.035678
0.034633
0.032004
0.027187
0.019813
0.009924
-0.001911
-0.014611
-0.026739
-0.036371
-0.043149
-0.046892
-0.047769
-0.046191
-0.042701
-0.037875
-0.032236
-0.026222
-0.020176
-0.014371
-0.009027
-0.004336
-0.000455
0.002531
0.004646
0.006050
0.007045
0.008030
0.009430
0.011630
0.014936
0.019553
0.025691
0.033403
0.045194
0.439452
0.438317
0.434966
0.429072
0.419981
0.406645
0.387584
0.360897
0.324389
0.275871
0.213759
0.138119
0.052300
-0.035543
-0.111591
-0.171509
-0.216343
-0.246863
-0.262720
-0.264543
-0.253266
-0.230863
-0.200113
-0.164091
-0.125713
-0.087451
-0.051189
-0.018205
0.010757
0.035360
0.055253
0.068287
0.072917
0.068139
0.053934
0.031450
0.003093
-0.027521
-0.055929
-0.077529
-0.090603
-0.096663
-0.096836
-0.092729
-0.085857
-0.077352
-0.067878
-0.057717
-0.046965
-0.035751
-0.024356
-0.013188
-0.002678
0.006814
0.015034
0.021889
0.027347
0.031555
0.034773
0.037206
0.038925
0.040183
0.041220
0.042182
0.042975
0.043256
0.042494
0.040065
0.035412
0.028207
0.018533
0.007071
-0.005078
-0.016308
-0.025625
-0.032592
-0.037158
-0.039454
-0.039700
-0.038185
-0.035239
-0.031194
-0.026363
-0.021047
-0.015554
-0.010167
-0.005187
-0.000864
0.002678
0.005430
0.007516
0.009212
0.010900
0.012981
0.015814
0.019680
0.024816
0.031385
0.039517
0.052096
0.427742
0.426153
0.421617
0.413986
0.402825
0.387377
0.366585
0.339168
0.303770
0.259235
0.205058
0.142002
0.072835
0.002696
-0.061428
-0.115401
-0.157786
-0.188117
-0.206270
-0.212346
-0.207346
-0.192895
-0.171102
-0.144290
-0.114710
-0.084333
-0.054733
-0.027068
-0.002126
0.019557
0.037187
0.049405
0.055164
0.053754
0.045141
0.030201
0.010817
-0.010268
-0.029867
-0.045700
-0.056752
-0.063294
-0.066143
-0.066384
-0.065009
-0.062642
-0.059408
-0.055000
-0.048965
-0.041096
-0.031646
-0.021241
-0.010632
-0.000445
0.008759
0.016836
0.023697
0.029386
0.033965
0.037625
0.040556
0.042972
0.045059
0.046896
0.048376
0.049189
0.048860
0.046804
0.042493
0.035614
0.026193
0.015008
0.003257
-0.007536
-0.016695
-0.024058
-0.029694
-0.033612
-0.035731
-0.036041
-0.034672
-0.031820
-0.027741
-0.022743
-0.017276
-0.011618
-0.006200
-0.001463
0.002553
0.005801
0.008410
0.010651
0.012872
0.015453
0.018753
0.023066
0.028579
0.035445
0.043819
0.057028
0.418982
0.416890
0.411220
0.402122
0.389388
0.372497
0.350707
0.323166
0.289060
0.247834
0.199495
0.144978
0.086464
0.027420
-0.027944
-0.076336
-0.115800
-0.145329
-0.164663
-0.173611
-0.173031
-0.164257
-0.148966
-0.128991
-0.106114
-0.081921
-0.057714
-0.034494
-0.013011
0.006147
0.022167
0.034069
0.041099
0.042735
0.038925
0.030289
0.018184
0.004507
-0.008920
-0.020598
-0.029565
-0.036025
-0.040640
-0.044250
-0.047557
-0.050824
-0.053669
-0.055055
-0.053705
-0.048850
-0.040730
-0.030374
-0.019071
-0.007590
0.002934
0.012322
0.020495
0.027405
0.033157
0.037918
0.041881
0.045238
0.048147
0.050671
0.052729
0.054045
0.054204
0.052591
0.048662
0.041890
0.032246
0.020727
0.009031
-0.001644
-0.010776
-0.018525
-0.025166
-0.030557
-0.034207
-0.035763
-0.035273
-0.032964
-0.029100
-0.023814
-0.018133
-0.012383
-0.006788
-0.001589
0.002846
0.006479
0.009414
0.011912
0.014344
0.017116
0.020615
0.025129
0.030836
0.037816
0.046130
0.059480
0.414115
0.411144
0.404077
0.393548
0.379516
0.361579
0.339183
0.311745
0.278778
0.240059
0.195831
0.147017
0.095370
0.043417
-0.005906
-0.049973
-0.086844
-0.115348
-0.135087
-0.145807
-0.148188
-0.143343
-0.132666
-0.117663
-0.099790
-0.080337
-0.060368
-0.040720
-0.022030
-0.004783
0.010319
0.022340
0.030687
0.034880
0.034778
0.030789
0.023948
0.015640
0.006562
-0.001640
-0.008629
-0.014649
-0.020327
-0.026400
-0.033421
-0.041458
-0.049784
-0.056674
-0.059746
-0.057296
-0.049620
-0.038381
-0.025800
-0.013499
-0.001604
0.009141
0.018524
0.026528
0.033265
0.038910
0.043657
0.047685
0.051142
0.054118
0.056610
0.058341
0.059032
0.057729
0.053597
0.046269
0.036045
0.023818
0.011406
0.000457
-0.008500
-0.016090
-0.023063
-0.029305
-0.033873
-0.035910
-0.035340
-0.032619
-0.028861
-0.024102
-0.018324
-0.012287
-0.006442
-0.001056
0.003598
0.007474
0.010556
0.013060
0.015396
0.018031
0.021428
0.025944
0.031718
0.038703
0.046636
0.058609
0.414795
0.409383
0.400178
0.388086
0.372921
0.354190
0.331383
0.304065
0.271931
0.234929
0.193398
0.148209
0.100830
0.053270
0.007829
-0.033289
-0.068205
-0.095828
-0.115637
-0.127384
-0.131624
-0.129323
-0.121691
-0.110022
-0.095559
-0.079394
-0.062426
-0.045370
-0.028799
-0.013124
0.001575
0.014011
0.023681
0.029971
0.032553
0.031649
0.028291
0.023007
0.017018
0.011101
0.005431
-0.000264
-0.006559
-0.014098
-0.023326
-0.034238
-0.046106
-0.057057
-0.063882
-0.063153
-0.054603
-0.043336
-0.030139
-0.016474
-0.003489
0.008208
0.018406
0.027116
0.034469
0.040646
0.045830
0.050183
0.053838
0.056927
0.059698
0.061641
0.062090
0.060656
0.056585
0.049107
0.038122
0.024649
0.010945
-0.000631
-0.009221
-0.015802
-0.021790
-0.027520
-0.032121
-0.034511
-0.034335
-0.032093
-0.028108
-0.023166
-0.017535
-0.011638
-0.005847
-0.000377
0.004370
0.008201
0.011253
0.013747
0.015985
0.018424
0.021602
0.025973
0.031718
0.038704
0.046319
0.055783
0.425504
0.411256
0.398949
0.385491
0.369489
0.350220
0.327172
0.299938
0.268285
0.232220
0.192105
0.148752
0.103483
0.058065
0.014514
-0.025225
-0.059606
-0.087217
-0.107065
-0.119230
-0.124243
-0.122998
-0.116617
-0.106301
-0.093205
-0.078348
-0.062575
-0.046573
-0.030919
-0.016159
-0.002773
0.009811
0.020319
0.027789
0.031677
0.031964
0.029039
0.024460
0.019416
0.014277
0.009128
0.003697
-0.002548
-0.010186
-0.019585
-0.030653
-0.042609
-0.053719
-0.061220
-0.062364
-0.056452
-0.044320
-0.030356
-0.016300
-0.003077
0.008820
0.019204
0.028088
0.035596
0.041899
0.047164
0.051529
0.055098
0.057949
0.059970
0.061411
0.061655
0.060062
0.055952
0.048715
0.038235
0.025327
0.011876
0.000046
-0.009065
-0.015935
-0.021667
-0.026732
-0.030698
-0.032845
-0.032850
-0.030943
-0.027259
-0.022480
-0.017044
-0.011351
-0.005760
-0.000613
0.004017
0.007917
0.011106
0.013772
0.016212
0.018842
0.022143
0.026521
0.032137
0.038813
0.046513
0.055717
