# vtk DataFile Version 3.0
Scalar Field
ASCII
DATASET RECTILINEAR_GRID
DIMENSIONS 100 26 1
X_COORDINATES 100 double
0.050000 0.150000 0.250000 0.350000 0.450000 0.550000 0.650000 0.750000 0.850000 0.950000 1.050000 1.150000 1.250000 1.350000 1.450000 1.550000 1.650000 1.750000 1.850000 1.950000 2.050000 2.150000 2.250000 2.350000 2.450000 2.550000 2.650000 2.750000 2.850000 2.950000 3.050000 3.150000 3.250000 3.350000 3.450000 3.550000 3.650000 3.750000 3.850000 3.950000 4.050000 4.150000 4.250000 4.350000 4.450000 4.550000 4.650000 4.750000 4.850000 4.950000 5.050000 5.150000 5.250000 5.350000 5.450000 5.550000 5.650000 5.750000 5.850000 5.950000 6.050000 6.150000 6.250000 6.350000 6.450000 6.550000 6.650000 6.750000 6.850000 6.950000 7.050000 7.150000 7.250000 7.350000 7.450000 7.550000 7.650000 7.750000 7.850000 7.950000 8.050000 8.150000 8.250000 8.350000 8.450000 8.550000 8.650000 8.750000 8.850000 8.950000 9.050000 9.150000 9.250000 9.350000 9.450000 9.550000 9.650000 9.750000 9.850000 9.950000 
Y_COORDINATES 26 double
0.050000 0.150000 0.250000 0.350000 0.450000 0.550000 0.650000 0.750000 0.850000 0.950000 1.050000 1.150000 1.250000 1.350000 1.450000 1.550000 1.650000 1.750000 1.850000 1.950000 2.050000 2.150000 2.250000 2.350000 2.450000 2.550000 
Z_COORDINATES 1 double
0.0
POINT_DATA 2600
SCALARS Skalarfeld double 1
LOOKUP_TABLE default
0.292702
0.277494
0.262456
0.244542
0.222608
0.196131
0.164984
0.129423
0.090152
0.048362
0.005652
-0.036208
-0.075563
-0.111085
-0.141876
-0.167082
-0.186017
-0.198653
-0.205189
-0.206069
-0.201949
-0.193654
-0.182090
-0.168158
-0.152668
-0.136276
-0.119451
-0.102484
-0.085531
-0.068675
-0.052017
-0.035749
-0.020229
-0.005103
0.008906
0.020691
0.029595
0.035271
0.038169
0.038913
0.037592
0.034293
0.028998
0.021631
0.012179
0.000859
-0.011678
-0.024088
-0.034235
-0.039828
-0.040082
-0.035252
-0.028033
-0.019824
-0.011284
-0.003009
0.004562
0.011166
0.016686
0.021118
0.024555
0.027154
0.029059
0.030500
0.031300
0.031404
0.030770
0.029404
0.027437
0.025142
0.022829
0.020642
0.018408
0.015713
0.012167
0.007680
0.002555
-0.002632
-0.007280
-0.010999
-0.013683
-0.015444
-0.016477
-0.016966
-0.017116
-0.017133
-0.017205
-0.017496
-0.018133
-0.019227
-0.020874
-0.023192
-0.026277
-0.030183
-0.034902
-0.040348
-0.046367
-0.052746
-0.059239
-0.065827
0.283767
0.277374
0.265339
0.248633
0.227073
0.200398
0.168509
0.131666
0.090652
0.046854
0.002190
-0.041301
-0.081838
-0.118065
-0.148970
-0.174054
-0.193095
-0.205714
-0.212075
-0.212600
-0.207951
-0.198967
-0.186592
-0.171770
-0.155358
-0.138052
-0.120358
-0.102595
-0.084937
-0.067475
-0.050301
-0.033571
-0.017325
-0.002053
0.011376
0.022388
0.030602
0.036148
0.038799
0.039020
0.037183
0.033458
0.027846
0.020248
0.010607
-0.000926
-0.013739
-0.026402
-0.036493
-0.041382
-0.039975
-0.034916
-0.028362
-0.020313
-0.011759
-0.003456
0.004127
0.010734
0.016257
0.020703
0.024179
0.026895
0.029086
0.030621
0.031386
0.031530
0.030967
0.029670
0.027759
0.025536
0.023352
0.021354
0.019300
0.016669
0.012990
0.008163
0.002585
-0.003017
-0.007916
-0.011689
-0.014292
-0.015924
-0.016846
-0.017200
-0.017216
-0.017092
-0.017014
-0.017164
-0.017664
-0.018650
-0.020200
-0.022461
-0.025530
-0.029463
-0.034247
-0.039790
-0.045925
-0.052427
-0.059030
-0.066309
0.286681
0.282655
0.272537
0.256894
0.235637
0.208445
0.175078
0.135692
0.091149
0.043216
-0.005442
-0.052163
-0.094955
-0.132584
-0.164359
-0.189927
-0.209218
-0.221854
-0.227875
-0.227647
-0.221796
-0.211184
-0.196813
-0.179719
-0.160866
-0.141065
-0.120941
-0.100927
-0.081305
-0.062252
-0.043909
-0.026415
-0.010021
0.004500
0.016649
0.025966
0.032209
0.035514
0.036347
0.034464
0.031003
0.026286
0.020336
0.013023
0.004238
-0.005897
-0.016755
-0.026989
-0.034669
-0.038166
-0.037225
-0.032964
-0.026129
-0.018351
-0.010577
-0.002840
0.004274
0.010500
0.015703
0.019872
0.023091
0.025521
0.027345
0.028673
0.029665
0.030134
0.030066
0.029447
0.028292
0.026745
0.024972
0.023034
0.020674
0.017530
0.013319
0.008066
0.002234
-0.003444
-0.008290
-0.011970
-0.014521
-0.016159
-0.017061
-0.017441
-0.017446
-0.017182
-0.016860
-0.016750
-0.016976
-0.017690
-0.019115
-0.021405
-0.024554
-0.028577
-0.033429
-0.038989
-0.045075
-0.051464
-0.057897
-0.064362
0.297094
0.293849
0.284802
0.269931
0.248807
0.220740
0.185073
0.141621
0.091256
0.036323
-0.018832
-0.070379
-0.116159
-0.155381
-0.187953
-0.213940
-0.233321
-0.245861
-0.251308
-0.249901
-0.242205
-0.229114
-0.211738
-0.191260
-0.168805
-0.145358
-0.121714
-0.098479
-0.076084
-0.054830
-0.034933
-0.016575
-0.000060
0.013853
0.024612
0.031741
0.035079
0.034935
0.032050
0.027281
0.021169
0.014894
0.008490
0.001801
-0.005354
-0.012947
-0.020544
-0.027226
-0.031808
-0.033395
-0.031836
-0.027661
-0.021610
-0.014607
-0.007135
-0.000108
0.006173
0.011687
0.016220
0.019751
0.022330
0.024106
0.025301
0.026145
0.026832
0.027411
0.027869
0.028080
0.027894
0.027180
0.025876
0.023918
0.021164
0.017566
0.013086
0.007828
0.002230
-0.003139
-0.007786
-0.011470
-0.014187
-0.016028
-0.017071
-0.017417
-0.017195
-0.016733
-0.016294
-0.016043
-0.016051
-0.016651
-0.018052
-0.020339
-0.023575
-0.027690
-0.032563
-0.038027
-0.043895
-0.049964
-0.055995
-0.062165
0.313531
0.310698
0.302478
0.288396
0.267506
0.238444
0.199699
0.150250
0.090683
0.024018
-0.041216
-0.099158
-0.148021
-0.188301
-0.221103
-0.247167
-0.266508
-0.278747
-0.283355
-0.280239
-0.269867
-0.253235
-0.231670
-0.206600
-0.179391
-0.151245
-0.123159
-0.095919
-0.070112
-0.046155
-0.024316
-0.004750
0.012346
0.025981
0.035388
0.039898
0.039393
0.034491
0.026492
0.017146
0.007953
-0.000102
-0.006837
-0.012518
-0.017514
-0.022033
-0.025961
-0.028853
-0.030113
-0.029309
-0.026392
-0.021692
-0.015742
-0.009155
-0.002461
0.003817
0.009483
0.014192
0.017910
0.020611
0.022304
0.023160
0.023486
0.023621
0.023827
0.024259
0.024918
0.025620
0.026075
0.025984
0.025120
0.023327
0.020579
0.016774
0.012061
0.006760
0.001383
-0.003636
-0.007946
-0.011365
-0.013869
-0.015517
-0.016398
-0.016632
-0.016372
-0.015809
-0.015133
-0.014531
-0.014439
-0.015010
-0.016430
-0.018805
-0.022178
-0.026439
-0.031386
-0.036808
-0.042518
-0.048365
-0.054238
-0.061415
0.335220
0.332807
0.325625
0.312823
0.292824
0.263238
0.220996
0.163167
0.089066
0.001778
-0.078525
-0.143347
-0.193548
-0.232817
-0.264478
-0.290237
-0.309775
-0.321895
-0.325721
-0.320437
-0.306395
-0.284877
-0.257629
-0.226487
-0.193153
-0.159095
-0.125531
-0.093427
-0.063521
-0.036336
-0.012189
0.008815
0.026860
0.040622
0.048897
0.050606
0.045667
0.035065
0.020688
0.005092
-0.008886
-0.018904
-0.025704
-0.029875
-0.032207
-0.033309
-0.033450
-0.032592
-0.030541
-0.027150
-0.022461
-0.016725
-0.010335
-0.003739
0.002644
0.008457
0.013455
0.017417
0.020253
0.021885
0.022423
0.022080
0.021261
0.020468
0.019944
0.019926
0.020494
0.021456
0.022434
0.022992
0.022741
0.021396
0.018817
0.015001
0.010151
0.004787
-0.000628
-0.005484
-0.009494
-0.012517
-0.014552
-0.015688
-0.016063
-0.015838
-0.015181
-0.014276
-0.013319
-0.012540
-0.012242
-0.012685
-0.014101
-0.016614
-0.020206
-0.024708
-0.029870
-0.035441
-0.041218
-0.047077
-0.053004
-0.060669
0.361373
0.359559
0.353997
0.343535
0.325942
0.297463
0.252422
0.183706
0.086038
-0.040324
-0.140856
-0.208368
-0.253747
-0.287164
-0.315161
-0.340585
-0.362084
-0.375601
-0.379628
-0.372047
-0.353282
-0.325312
-0.290654
-0.251762
-0.210775
-0.169470
-0.129290
-0.091386
-0.056652
-0.025747
0.000903
0.023159
0.041400
0.055660
0.063381
0.062732
0.053887
0.038293
0.018195
-0.003556
-0.023665
-0.038871
-0.046108
-0.048808
-0.048435
-0.046164
-0.042702
-0.038359
-0.033214
-0.027298
-0.020712
-0.013675
-0.006494
0.000485
0.006935
0.012580
0.017207
0.020633
0.022696
0.023273
0.022391
0.020342
0.017649
0.015011
0.013397
0.012716
0.013117
0.014377
0.016001
0.017417
0.018095
0.017619
0.015733
0.012372
0.007718
0.002206
-0.003398
-0.008299
-0.012215
-0.014959
-0.016536
-0.017076
-0.016777
-0.015864
-0.014565
-0.013097
-0.011682
-0.010564
-0.010023
-0.010344
-0.011767
-0.014414
-0.018243
-0.023058
-0.028567
-0.034460
-0.040476
-0.046455
-0.052374
-0.059703
0.390873
0.389932
0.386843
0.380343
0.367776
0.344023
0.299720
0.219301
0.081427
-0.124995
-0.242682
-0.295067
-0.322207
-0.341830
-0.362473
-0.388038
-0.416246
-0.436257
-0.443299
-0.434082
-0.409851
-0.374101
-0.330608
-0.282640
-0.232825
-0.183248
-0.135582
-0.091177
-0.051119
-0.016258
0.012746
0.035401
0.051506
0.064285
0.072092
0.069740
0.058403
0.040433
0.018199
-0.005970
-0.029389
-0.049172
-0.061833
-0.064566
-0.062761
-0.058230
-0.052142
-0.045138
-0.037531
-0.029497
-0.021207
-0.012883
-0.004799
0.002750
0.009485
0.015165
0.019577
0.022488
0.023638
0.022818
0.020070
0.015844
0.010982
0.006482
0.003136
0.001797
0.002314
0.004192
0.006762
0.009320
0.011232
0.011983
0.011224
0.008809
0.004843
-0.000289
-0.005932
-0.011311
-0.015337
-0.018050
-0.019395
-0.019505
-0.018623
-0.017043
-0.015065
-0.012972
-0.011032
-0.009517
-0.008711
-0.008897
-0.010310
-0.013071
-0.017134
-0.022282
-0.028173
-0.034414
-0.040649
-0.046636
-0.052297
-0.058806
0.422095
0.422309
0.422609
0.421981
0.418024
0.405281
0.371248
0.287162
0.080925
-0.307831
-0.395431
-0.387335
-0.380296
-0.379832
-0.389613
-0.414299
-0.452295
-0.491357
-0.506879
-0.498183
-0.469131
-0.425899
-0.373899
-0.317235
-0.258954
-0.201416
-0.146546
-0.095968
-0.051066
-0.012997
0.017297
0.039019
0.051855
0.056888
0.059624
0.055382
0.045249
0.030506
0.012296
-0.008156
-0.029154
-0.048410
-0.063364
-0.071573
-0.070630
-0.065961
-0.059097
-0.050957
-0.042073
-0.032785
-0.023370
-0.014112
-0.005312
0.002722
0.009705
0.015369
0.019436
0.021563
0.021373
0.018627
0.013499
0.006756
-0.000344
-0.006467
-0.010691
-0.012126
-0.011007
-0.008109
-0.004280
-0.000334
0.003016
0.005201
0.005814
0.004646
0.001721
-0.002662
-0.007938
-0.013355
-0.018012
-0.020910
-0.022314
-0.022305
-0.021123
-0.019107
-0.016625
-0.014032
-0.011656
-0.009804
-0.008774
-0.008850
-0.010262
-0.013127
-0.017393
-0.022819
-0.029001
-0.035452
-0.041712
-0.047448
-0.052529
-0.057863
0.452892
0.454432
0.458722
0.465427
0.473464
0.479528
0.473508
0.422438
0.180386
-0.648259
-0.571072
-0.439658
-0.406394
-0.392674
-0.393777
-0.416925
-0.459276
-0.511714
-0.548711
-0.544818
-0.514670
-0.467850
-0.411303
-0.349685
-0.286294
-0.223758
-0.164372
-0.110263
-0.063486
-0.025996
0.000827
0.017060
0.024367
0.025367
0.021822
0.018176
0.013101
0.005965
-0.003521
-0.015371
-0.029042
-0.043223
-0.055964
-0.065240
-0.069493
-0.066736
-0.061101
-0.053622
-0.044971
-0.035630
-0.026007
-0.016495
-0.007483
0.000652
0.007555
0.012873
0.016213
0.017109
0.015111
0.010051
0.002379
-0.006710
-0.015557
-0.022612
-0.026936
-0.027688
-0.025444
-0.021150
-0.015796
-0.010292
-0.005401
-0.001717
0.000335
0.000516
-0.001207
-0.004618
-0.009242
-0.014385
-0.019239
-0.022799
-0.024481
-0.024673
-0.023537
-0.021418
-0.018729
-0.015884
-0.013268
-0.011228
-0.010083
-0.010121
-0.011567
-0.014532
-0.018953
-0.024552
-0.030863
-0.037311
-0.043338
-0.048529
-0.052704
-0.056477
0.480813
0.483608
0.491734
0.505731
0.526479
0.555017
0.591687
0.632128
0.709976
0.030859
-0.495352
-0.419632
-0.410432
-0.402601
-0.404139
-0.423005
-0.459536
-0.505539
-0.546660
-0.557683
-0.530288
-0.485441
-0.430689
-0.370532
-0.308158
-0.246437
-0.188210
-0.136397
-0.093855
-0.062739
-0.043593
-0.034650
-0.032346
-0.033118
-0.034371
-0.032322
-0.029180
-0.026474
-0.025346
-0.026630
-0.030697
-0.037207
-0.045022
-0.052476
-0.057923
-0.059930
-0.056933
-0.051588
-0.044562
-0.036402
-0.027618
-0.018720
-0.010210
-0.002577
0.003713
0.008189
0.010328
0.009557
0.005422
-0.002064
-0.012088
-0.023040
-0.032986
-0.040301
-0.044052
-0.043527
-0.039719
-0.033708
-0.026616
-0.019437
-0.012974
-0.007822
-0.004389
-0.002912
-0.003444
-0.005829
-0.009670
-0.014345
-0.019077
-0.023069
-0.025330
-0.025978
-0.025185
-0.023279
-0.020691
-0.017873
-0.015252
-0.013211
-0.012091
-0.012186
-0.013719
-0.016791
-0.021317
-0.026983
-0.033263
-0.039507
-0.045069
-0.049456
-0.052429
-0.054191
0.503535
0.507234
0.518112
0.537285
0.566898
0.610674
0.675065
0.771034
0.905650
0.932128
0.000000
-0.416725
-0.413818
-0.413409
-0.418695
-0.435275
-0.460781
-0.491082
-0.517698
-0.527750
-0.509391
-0.469638
-0.421649
-0.368973
-0.314076
-0.259916
-0.209818
-0.167352
-0.135683
-0.116128
-0.107198
-0.104816
-0.104235
-0.102178
-0.094946
-0.083895
-0.071008
-0.058096
-0.046644
-0.037835
-0.032501
-0.030954
-0.032795
-0.036891
-0.041655
-0.045494
-0.046759
-0.044336
-0.039866
-0.033852
-0.026825
-0.019374
-0.012109
-0.005634
-0.000534
0.002587
0.003079
0.000298
-0.006147
-0.015993
-0.028056
-0.040402
-0.050952
-0.058132
-0.060599
-0.058460
-0.052778
-0.044823
-0.035854
-0.026951
-0.018945
-0.012419
-0.007745
-0.005123
-0.004596
-0.006034
-0.009103
-0.013248
-0.017753
-0.021857
-0.024790
-0.025926
-0.025638
-0.024166
-0.021918
-0.019358
-0.016938
-0.015066
-0.014102
-0.014347
-0.016022
-0.019213
-0.023811
-0.029466
-0.035602
-0.041502
-0.046439
-0.049830
-0.051358
-0.050624
0.519386
0.523453
0.535404
0.556375
0.588410
0.634570
0.698444
0.781254
0.875598
0.958606
0.871681
0.000000
-0.419157
-0.424496
-0.429818
-0.442954
-0.458190
-0.471313
-0.477122
-0.469744
-0.449586
-0.416417
-0.377227
-0.335646
-0.292880
-0.252164
-0.217308
-0.192008
-0.178317
-0.174868
-0.177127
-0.179388
-0.177228
-0.166181
-0.148834
-0.127665
-0.104882
-0.082478
-0.062068
-0.044887
-0.031827
-0.023416
-0.019685
-0.020011
-0.023108
-0.027295
-0.030927
-0.032226
-0.030666
-0.027340
-0.022674
-0.017281
-0.011845
-0.007062
-0.003635
-0.002294
-0.003803
-0.008845
-0.017692
-0.029800
-0.043655
-0.057084
-0.067915
-0.074592
-0.075483
-0.071444
-0.063710
-0.053730
-0.042884
-0.032320
-0.022889
-0.015150
-0.009425
-0.005862
-0.004470
-0.005122
-0.007516
-0.011161
-0.015393
-0.019478
-0.022732
-0.024464
-0.024752
-0.023815
-0.022037
-0.019874
-0.017788
-0.016202
-0.015488
-0.015951
-0.017809
-0.021132
-0.025788
-0.031393
-0.037328
-0.042815
-0.047049
-0.049341
-0.049263
-0.045565
0.527678
0.531571
0.542937
0.562548
0.591613
0.631574
0.683597
0.746675
0.808535
0.826566
0.784755
0.664188
0.000000
-0.432355
-0.440214
-0.452514
-0.461129
-0.455643
-0.434485
-0.403130
-0.368128
-0.334916
-0.301079
-0.269099
-0.241067
-0.218529
-0.205953
-0.205341
-0.215200
-0.230180
-0.242951
-0.247577
-0.239169
-0.217457
-0.189971
-0.159183
-0.127529
-0.097108
-0.069549
-0.046008
-0.027249
-0.013725
-0.005569
-0.002473
-0.003530
-0.007249
-0.011854
-0.015687
-0.017303
-0.016817
-0.014733
-0.011679
-0.008380
-0.005603
-0.004152
-0.004879
-0.008644
-0.016124
-0.027428
-0.041731
-0.057233
-0.071573
-0.082488
-0.088347
-0.087448
-0.081419
-0.071679
-0.059816
-0.047299
-0.035314
-0.024705
-0.015997
-0.009460
-0.005183
-0.003136
-0.003176
-0.005027
-0.008240
-0.012208
-0.016237
-0.019690
-0.021839
-0.022629
-0.022209
-0.020917
-0.019192
-0.017488
-0.016234
-0.015808
-0.016520
-0.018579
-0.022041
-0.026751
-0.032299
-0.038027
-0.043104
-0.046641
-0.047836
-0.046112
-0.039098
0.528728
0.532050
0.541681
0.558012
0.581551
0.612484
0.649577
0.687863
0.714161
0.701951
0.634211
0.543621
0.369146
0.000000
-0.457833
-0.475453
-0.482439
-0.454022
-0.400489
-0.339441
-0.283049
-0.237441
-0.206367
-0.183951
-0.168943
-0.167509
-0.181693
-0.209213
-0.243702
-0.275991
-0.296762
-0.300172
-0.280972
-0.251118
-0.215329
-0.176930
-0.138603
-0.102444
-0.069969
-0.042169
-0.019617
-0.002596
0.008821
0.014803
0.015921
0.013303
0.008545
0.003296
-0.000803
-0.002728
-0.003045
-0.002270
-0.001125
-0.000429
-0.001076
-0.004024
-0.010195
-0.020207
-0.033969
-0.050379
-0.067392
-0.082503
-0.093402
-0.097945
-0.095229
-0.087412
-0.076011
-0.062692
-0.048961
-0.035996
-0.024609
-0.015273
-0.008205
-0.003446
-0.000930
-0.000506
-0.001915
-0.004752
-0.008454
-0.012364
-0.015844
-0.018325
-0.019491
-0.019490
-0.018619
-0.017288
-0.015941
-0.015004
-0.014857
-0.015808
-0.018060
-0.021657
-0.026424
-0.031929
-0.037487
-0.042221
-0.045163
-0.045390
-0.042155
-0.031713
0.523592
0.526133
0.533409
0.545414
0.561915
0.581974
0.603008
0.619208
0.619358
0.585484
0.499541
0.351067
0.194670
-0.250239
-0.567955
-0.519909
-0.503493
-0.449945
-0.369976
-0.285424
-0.211368
-0.154724
-0.116233
-0.097101
-0.096101
-0.116230
-0.155722
-0.207837
-0.262154
-0.306935
-0.331970
-0.326351
-0.300732
-0.264984
-0.223911
-0.181106
-0.139262
-0.100319
-0.065569
-0.035775
-0.011299
0.007763
0.021448
0.029878
0.033357
0.032584
0.028778
0.023498
0.018240
0.014230
0.011928
0.010743
0.009937
0.008656
0.005931
0.000732
-0.007870
-0.020373
-0.036453
-0.054751
-0.073017
-0.088626
-0.099270
-0.101772
-0.097818
-0.088802
-0.076411
-0.062352
-0.048100
-0.034779
-0.023136
-0.013586
-0.006294
-0.001269
0.001573
0.002376
0.001371
-0.001082
-0.004473
-0.008182
-0.011590
-0.014201
-0.015606
-0.015894
-0.015330
-0.014302
-0.013240
-0.012563
-0.012649
-0.013804
-0.016224
-0.019942
-0.024771
-0.030269
-0.035733
-0.040255
-0.042808
-0.042358
-0.037983
-0.024436
0.513706
0.515357
0.520008
0.527360
0.536700
0.546493
0.553706
0.552830
0.534772
0.485983
0.388507
0.217111
-0.081698
-0.695147
-0.616001
-0.514571
-0.466859
-0.406059
-0.325667
-0.240722
-0.164468
-0.103678
-0.059567
-0.039454
-0.046825
-0.082102
-0.138468
-0.205047
-0.269084
-0.317959
-0.337058
-0.324903
-0.296738
-0.259065
-0.216806
-0.173531
-0.131756
-0.093170
-0.058817
-0.029247
-0.004649
0.015026
0.029941
0.040261
0.046146
0.047909
0.046255
0.042311
0.037320
0.032526
0.029073
0.026471
0.024070
0.021035
0.016371
0.009034
-0.001840
-0.016571
-0.034598
-0.054341
-0.073402
-0.089039
-0.098739
-0.099825
-0.095070
-0.085649
-0.073188
-0.059309
-0.045384
-0.032433
-0.021112
-0.011774
-0.004549
0.000569
0.003653
0.004822
0.004263
0.002277
-0.000684
-0.004056
-0.007251
-0.009793
-0.011274
-0.011701
-0.011317
-0.010486
-0.009621
-0.009134
-0.009397
-0.010710
-0.013265
-0.017088
-0.021991
-0.027533
-0.033017
-0.037529
-0.040010
-0.039357
-0.034502
-0.018862
0.500712
0.501497
0.503628
0.506651
0.509636
0.510878
0.507455
0.494679
0.465520
0.410139
0.315339
0.163363
-0.069057
-0.367409
-0.434256
-0.419886
-0.385597
-0.336428
-0.274987
-0.207726
-0.143958
-0.090279
-0.047539
-0.023985
-0.035335
-0.076238
-0.136162
-0.202902
-0.263334
-0.304508
-0.312306
-0.299354
-0.272318
-0.236942
-0.197667
-0.157695
-0.119227
-0.083685
-0.051912
-0.024328
-0.001050
0.018017
0.033093
0.044425
0.052206
0.056587
0.057861
0.056624
0.053637
0.049873
0.046423
0.043132
0.039626
0.035197
0.028901
0.019755
0.007038
-0.009364
-0.028680
-0.049187
-0.068436
-0.083724
-0.091151
-0.092128
-0.087569
-0.078791
-0.067324
-0.054625
-0.041896
-0.030013
-0.019535
-0.010764
-0.003815
0.001296
0.004610
0.006195
0.006181
0.004805
0.002448
-0.000390
-0.003171
-0.005447
-0.006813
-0.007230
-0.006906
-0.006178
-0.005437
-0.005081
-0.005471
-0.006903
-0.009562
-0.013478
-0.018474
-0.024131
-0.029781
-0.034541
-0.037373
-0.037166
-0.032803
-0.016895
0.486213
0.486233
0.486167
0.485524
0.483359
0.478074
0.467166
0.446953
0.412380
0.357002
0.273305
0.154009
-0.002365
-0.173615
-0.264310
-0.293904
-0.289226
-0.263026
-0.223430
-0.177606
-0.131542
-0.089361
-0.056834
-0.043718
-0.055762
-0.090524
-0.140413
-0.194717
-0.241201
-0.265093
-0.269506
-0.258050
-0.235234
-0.205410
-0.172139
-0.138071
-0.105048
-0.074262
-0.046422
-0.021892
-0.000792
0.016925
0.031424
0.042937
0.051700
0.057919
0.061786
0.063529
0.063557
0.063095
0.060978
0.057969
0.054121
0.048932
0.041593
0.031282
0.017477
0.000272
-0.019410
-0.039794
-0.058480
-0.072112
-0.078883
-0.080284
-0.076886
-0.069818
-0.060370
-0.049749
-0.038935
-0.028646
-0.019354
-0.011336
-0.004738
0.000375
0.003975
0.006069
0.006719
0.006100
0.004524
0.002424
0.000273
-0.001514
-0.002570
-0.002840
-0.002484
-0.001794
-0.001133
-0.000875
-0.001366
-0.002890
-0.005629
-0.009628
-0.014738
-0.020588
-0.026572
-0.031875
-0.035539
-0.036542
-0.033767
-0.020441
0.471628
0.471012
0.469147
0.465592
0.459514
0.449574
0.433797
0.409488
0.373261
0.321292
0.250005
0.157641
0.047849
-0.064664
-0.144412
-0.187565
-0.202111
-0.196128
-0.176511
-0.149185
-0.119307
-0.091773
-0.071953
-0.065579
-0.075877
-0.101501
-0.137088
-0.174402
-0.203756
-0.219248
-0.221907
-0.213098
-0.195576
-0.172336
-0.146018
-0.118695
-0.091848
-0.066453
-0.043093
-0.022068
-0.003500
0.012608
0.026330
0.037799
0.047189
0.054675
0.060383
0.064779
0.068400
0.070111
0.070015
0.068365
0.065184
0.060140
0.052642
0.042104
0.028239
0.011321
-0.007651
-0.026954
-0.044028
-0.056130
-0.063575
-0.066412
-0.065175
-0.060749
-0.054117
-0.046182
-0.037688
-0.029208
-0.021163
-0.013853
-0.007497
-0.002258
0.001743
0.004453
0.005858
0.006091
0.005406
0.004173
0.002804
0.001720
0.001106
0.001074
0.001519
0.002195
0.002782
0.002940
0.002353
0.000754
-0.002044
-0.006109
-0.011347
-0.017461
-0.023938
-0.030075
-0.035053
-0.038006
-0.038155
-0.030669
0.458140
0.457005
0.453705
0.447913
0.438984
0.425886
0.407163
0.380956
0.345131
0.297611
0.237009
0.163729
0.081710
0.000113
-0.065822
-0.110221
-0.134201
-0.141515
-0.136621
-0.123982
-0.107864
-0.092398
-0.081651
-0.079225
-0.086995
-0.104115
-0.127064
-0.150418
-0.168601
-0.178766
-0.180169
-0.173505
-0.160421
-0.142904
-0.122840
-0.101781
-0.080858
-0.060800
-0.041999
-0.024613
-0.008675
0.005813
0.018842
0.030395
0.040486
0.049179
0.056753
0.063355
0.068559
0.072118
0.073953
0.074032
0.072193
0.068113
0.061373
0.051625
0.038795
0.023268
0.006007
-0.011325
-0.026547
-0.038962
-0.047862
-0.053036
-0.054737
-0.053539
-0.050098
-0.045013
-0.038811
-0.031968
-0.024906
-0.018011
-0.011624
-0.006043
-0.001525
0.001902
0.004089
0.005195
0.005450
0.005142
0.004617
0.004140
0.003963
0.004175
0.004697
0.005328
0.005801
0.005827
0.005130
0.003468
0.000648
-0.003441
-0.008794
-0.015216
-0.022317
-0.029532
-0.036257
-0.041861
-0.045953
-0.047057
0.446715
0.445129
0.440644
0.433118
0.422130
0.406946
0.386548
0.359711
0.325168
0.281900
0.229607
0.169365
0.104398
0.040479
-0.014746
-0.056742
-0.084600
-0.099714
-0.104659
-0.102505
-0.096461
-0.089687
-0.085127
-0.085141
-0.090904
-0.101930
-0.116107
-0.130302
-0.141441
-0.147373
-0.147411
-0.141883
-0.131819
-0.118575
-0.103511
-0.087774
-0.072179
-0.057177
-0.042889
-0.029210
-0.015947
-0.002989
0.009592
0.021551
0.032633
0.042773
0.051986
0.059996
0.066679
0.071854
0.075366
0.077058
0.076703
0.074005
0.068673
0.060526
0.049614
0.036308
0.021436
0.005872
-0.009275
-0.022991
-0.034277
-0.042454
-0.047409
-0.049470
-0.049041
-0.046449
-0.042051
-0.036306
-0.029698
-0.022784
-0.016027
-0.009815
-0.004579
-0.000481
0.002532
0.004445
0.005439
0.005809
0.005862
0.005861
0.005995
0.006330
0.006807
0.007274
0.007527
0.007349
0.006521
0.004831
0.002064
-0.001949
-0.007364
-0.014096
-0.022046
-0.030679
-0.039301
-0.047583
-0.055612
-0.066495
0.438194
0.436108
0.430497
0.421518
0.408983
0.392402
0.371080
0.344236
0.311157
0.271429
0.225252
0.173808
0.119584
0.066372
0.018607
-0.020497
-0.049617
-0.069052
-0.080186
-0.085029
-0.085873
-0.085038
-0.084633
-0.086287
-0.090810
-0.097985
-0.106616
-0.115104
-0.121284
-0.123919
-0.122530
-0.117347
-0.109119
-0.098871
-0.087646
-0.076311
-0.065415
-0.055134
-0.045282
-0.035386
-0.024866
-0.013317
-0.000804
0.012040
0.024554
0.036291
0.046981
0.056485
0.064669
0.071371
0.076412
0.079591
0.080684
0.079482
0.075849
0.069728
0.061179
0.050293
0.036932
0.021936
0.005827
-0.010278
-0.024745
-0.036138
-0.043974
-0.048608
-0.050428
-0.049514
-0.046052
-0.040710
-0.033928
-0.026460
-0.019328
-0.012723
-0.006856
-0.002091
0.001520
0.004030
0.005615
0.006515
0.006985
0.007250
0.007456
0.007660
0.007840
0.007914
0.007775
0.007298
0.006337
0.004714
0.002140
-0.001584
-0.007046
-0.014402
-0.023259
-0.033105
-0.043376
-0.053747
-0.064554
-0.083179
0.433517
0.430557
0.423562
0.413173
0.399369
0.381793
0.359938
0.333299
0.301497
0.264446
0.222556
0.176936
0.129518
0.082952
0.040154
0.003461
-0.025849
-0.047595
-0.062473
-0.071771
-0.077101
-0.080155
-0.082463
-0.085201
-0.088986
-0.093765
-0.099041
-0.103605
-0.106325
-0.106462
-0.103774
-0.098529
-0.091386
-0.083210
-0.074866
-0.067029
-0.060051
-0.053889
-0.048107
-0.041899
-0.034187
-0.023980
-0.011043
0.003081
0.017124
0.030583
0.042972
0.054058
0.063710
0.071799
0.078158
0.082588
0.084899
0.085000
0.082976
0.078851
0.072158
0.062576
0.050405
0.035313
0.017449
-0.001850
-0.019972
-0.034271
-0.043802
-0.049466
-0.052283
-0.052189
-0.048568
-0.042727
-0.036078
-0.028736
-0.021082
-0.013944
-0.007690
-0.002553
0.001419
0.004306
0.006286
0.007538
0.008231
0.008552
0.008577
0.008358
0.007941
0.007346
0.006615
0.005760
0.004710
0.003381
0.001184
-0.002556
-0.008007
-0.015491
-0.024930
-0.035765
-0.047225
-0.058744
-0.070435
-0.090746
0.434332
0.428936
0.419817
0.407892
0.392978
0.374658
0.352446
0.325997
0.295115
0.259879
0.220775
0.178807
0.135541
0.092987
0.053295
0.018287
-0.010877
-0.033817
-0.050850
-0.062809
-0.070855
-0.076284
-0.080221
-0.083571
-0.086880
-0.090273
-0.093337
-0.095453
-0.095978
-0.094491
-0.090925
-0.085595
-0.079117
-0.072264
-0.065781
-0.060217
-0.055795
-0.052353
-0.049360
-0.045956
-0.040837
-0.032105
-0.018958
-0.004022
0.011810
0.027087
0.041085
0.053531
0.064334
0.073420
0.080655
0.085845
0.088809
0.089564
0.088675
0.085171
0.079289
0.070966
0.059553
0.044315
0.025004
0.002923
-0.018489
-0.035100
-0.045038
-0.049678
-0.051292
-0.051210
-0.048708
-0.043399
-0.036272
-0.028570
-0.020855
-0.013675
-0.007391
-0.002202
0.001849
0.004860
0.007051
0.008519
0.009291
0.009460
0.009168
0.008507
0.007507
0.006242
0.004825
0.003433
0.002206
0.000915
-0.001156
-0.004522
-0.009603
-0.016799
-0.026192
-0.037204
-0.049031
-0.060995
-0.072931
-0.087592
0.445112
0.430886
0.418677
0.405403
0.389710
0.370854
0.348419
0.322080
0.291709
0.257446
0.219784
0.179651
0.138416
0.097795
0.059607
0.025446
-0.003598
-0.027069
-0.045122
-0.058403
-0.067827
-0.074389
-0.079151
-0.082932
-0.086220
-0.089136
-0.091441
-0.092689
-0.092418
-0.090334
-0.086438
-0.081052
-0.074760
-0.068280
-0.062294
-0.057296
-0.053461
-0.050591
-0.048124
-0.045198
-0.040686
-0.033382
-0.022319
-0.006621
0.010353
0.026662
0.041462
0.054493
0.065707
0.075070
0.082473
0.087734
0.090658
0.091153
0.089005
0.085354
0.079756
0.071750
0.060727
0.046043
0.027486
0.006111
-0.015159
-0.032459
-0.043485
-0.048905
-0.050883
-0.050131
-0.047268
-0.042160
-0.035369
-0.027859
-0.020329
-0.013307
-0.007149
-0.002049
0.001948
0.004916
0.006960
0.008315
0.009095
0.009307
0.009015
0.008294
0.007205
0.005830
0.004296
0.002738
0.001184
-0.000562
-0.002556
-0.005789
-0.010957
-0.018220
-0.027376
-0.038046
-0.049607
-0.061521
-0.073603
-0.086747
