# vtk DataFile Version 3.0
Vector Field
ASCII
DATASET RECTILINEAR_GRID
DIMENSIONS 100 26 1
X_COORDINATES 100 double
0.050000 0.150000 0.250000 0.350000 0.450000 0.550000 0.650000 0.750000 0.850000 0.950000 1.050000 1.150000 1.250000 1.350000 1.450000 1.550000 1.650000 1.750000 1.850000 1.950000 2.050000 2.150000 2.250000 2.350000 2.450000 2.550000 2.650000 2.750000 2.850000 2.950000 3.050000 3.150000 3.250000 3.350000 3.450000 3.550000 3.650000 3.750000 3.850000 3.950000 4.050000 4.150000 4.250000 4.350000 4.450000 4.550000 4.650000 4.750000 4.850000 4.950000 5.050000 5.150000 5.250000 5.350000 5.450000 5.550000 5.650000 5.750000 5.850000 5.950000 6.050000 6.150000 6.250000 6.350000 6.450000 6.550000 6.650000 6.750000 6.850000 6.950000 7.050000 7.150000 7.250000 7.350000 7.450000 7.550000 7.650000 7.750000 7.850000 7.950000 8.050000 8.150000 8.250000 8.350000 8.450000 8.550000 8.650000 8.750000 8.850000 8.950000 9.050000 9.150000 9.250000 9.350000 9.450000 9.550000 9.650000 9.750000 9.850000 9.950000 
Y_COORDINATES 26 double
0.050000 0.150000 0.250000 0.350000 0.450000 0.550000 0.650000 0.750000 0.850000 0.950000 1.050000 1.150000 1.250000 1.350000 1.450000 1.550000 1.650000 1.750000 1.850000 1.950000 2.050000 2.150000 2.250000 2.350000 2.450000 2.550000 
Z_COORDINATES 1 double
0.0
POINT_DATA 2600
VECTORS Vektorfeld double
0.997661 0.002339 0.0
0.992831 0.002490 0.0
0.989233 0.001108 0.0
0.989035 -0.000910 0.0
0.993117 -0.003173 0.0
1.001711 -0.005422 0.0
1.014550 -0.007417 0.0
1.030879 -0.008913 0.0
1.049493 -0.009701 0.0
1.068858 -0.009663 0.0
1.087358 -0.008838 0.0
1.103597 -0.007401 0.0
1.116597 -0.005598 0.0
1.125868 -0.003672 0.0
1.131362 -0.001822 0.0
1.133379 -0.000196 0.0
1.132479 0.001096 0.0
1.129242 0.002140 0.0
1.124085 0.003017 0.0
1.117212 0.003856 0.0
1.108542 0.004814 0.0
1.097671 0.006057 0.0
1.083906 0.007709 0.0
1.066382 0.009815 0.0
1.044240 0.012328 0.0
1.016790 0.015121 0.0
0.983656 0.018013 0.0
0.944843 0.020800 0.0
0.900761 0.023282 0.0
0.852198 0.025282 0.0
0.800266 0.026650 0.0
0.746346 0.027270 0.0
0.692024 0.027053 0.0
0.639027 0.025945 0.0
0.589153 0.023929 0.0
0.544186 0.021038 0.0
0.505818 0.017330 0.0
0.475738 0.012751 0.0
0.456011 0.006976 0.0
0.448842 0.000193 0.0
0.453711 -0.005062 0.0
0.466880 -0.008107 0.0
0.484428 -0.009441 0.0
0.503478 -0.009609 0.0
0.522052 -0.008966 0.0
0.538724 -0.007706 0.0
0.552401 -0.005971 0.0
0.562323 -0.003951 0.0
0.568150 -0.001876 0.0
0.569677 0.000349 0.0
0.565877 0.003451 0.0
0.555231 0.007195 0.0
0.536845 0.011192 0.0
0.510658 0.014994 0.0
0.477674 0.017990 0.0
0.440356 0.019328 0.0
0.402834 0.018194 0.0
0.370106 0.014534 0.0
0.346054 0.009517 0.0
0.331630 0.004907 0.0
0.324915 0.001807 0.0
0.322960 0.000148 0.0
0.323518 -0.000707 0.0
0.325595 -0.001370 0.0
0.328978 -0.002013 0.0
0.333383 -0.002393 0.0
0.338246 -0.002470 0.0
0.343044 -0.002327 0.0
0.347381 -0.002010 0.0
0.350947 -0.001556 0.0
0.353503 -0.000999 0.0
0.354848 -0.000346 0.0
0.354639 0.000554 0.0
0.352407 0.001679 0.0
0.348016 0.002712 0.0
0.341917 0.003387 0.0
0.334967 0.003562 0.0
0.328206 0.003199 0.0
0.322637 0.002371 0.0
0.319048 0.001218 0.0
0.317851 -0.000020 0.0
0.318639 -0.000767 0.0
0.320367 -0.000961 0.0
0.322137 -0.000809 0.0
0.323417 -0.000472 0.0
0.323921 -0.000032 0.0
0.323483 0.000470 0.0
0.322146 0.000867 0.0
0.320222 0.001056 0.0
0.318127 0.001039 0.0
0.316186 0.000902 0.0
0.314549 0.000735 0.0
0.313275 0.000539 0.0
0.312560 0.000176 0.0
0.312668 -0.000283 0.0
0.313507 -0.000556 0.0
0.314642 -0.000579 0.0
0.315589 -0.000368 0.0
0.315945 0.000011 0.0
0.315362 0.000572 0.0
1.002954 0.001725 0.0
1.011415 -0.000528 0.0
1.024427 -0.005288 0.0
1.041374 -0.011261 0.0
1.062194 -0.017723 0.0
1.086801 -0.024073 0.0
1.114866 -0.029668 0.0
1.145690 -0.033816 0.0
1.178160 -0.035882 0.0
1.210806 -0.035492 0.0
1.242066 -0.032771 0.0
1.270645 -0.028286 0.0
1.295726 -0.022794 0.0
1.316999 -0.017020 0.0
1.334568 -0.011537 0.0
1.348801 -0.006731 0.0
1.360135 -0.002800 0.0
1.369057 0.000351 0.0
1.376060 0.002960 0.0
1.381426 0.005420 0.0
1.385097 0.008248 0.0
1.386613 0.011978 0.0
1.385162 0.017005 0.0
1.379728 0.023475 0.0
1.369301 0.031237 0.0
1.353077 0.039886 0.0
1.330606 0.048854 0.0
1.301865 0.057513 0.0
1.267258 0.065257 0.0
1.227575 0.071553 0.0
1.183929 0.075957 0.0
1.137694 0.078118 0.0
1.090446 0.077775 0.0
1.043903 0.074763 0.0
0.999860 0.069028 0.0
0.960123 0.060643 0.0
0.926434 0.049782 0.0
0.900215 0.036598 0.0
0.881760 0.021310 0.0
0.869608 0.005181 0.0
0.863067 -0.008378 0.0
0.862873 -0.017767 0.0
0.869166 -0.023622 0.0
0.881528 -0.026839 0.0
0.899236 -0.028018 0.0
0.921295 -0.027384 0.0
0.946240 -0.024916 0.0
0.971848 -0.020536 0.0
0.994938 -0.014208 0.0
1.011959 -0.005867 0.0
1.020877 0.004549 0.0
1.021099 0.016520 0.0
1.012363 0.028989 0.0
0.995121 0.040626 0.0
0.970624 0.049841 0.0
0.940594 0.054824 0.0
0.906638 0.054176 0.0
0.869820 0.048099 0.0
0.830957 0.038868 0.0
0.791472 0.029466 0.0
0.753986 0.021449 0.0
0.722082 0.014365 0.0
0.699369 0.007232 0.0
0.687814 0.000169 0.0
0.686187 -0.005309 0.0
0.691250 -0.008565 0.0
0.700405 -0.010317 0.0
0.712205 -0.011078 0.0
0.725557 -0.010948 0.0
0.739347 -0.009974 0.0
0.752375 -0.008166 0.0
0.763437 -0.005585 0.0
0.771822 -0.002384 0.0
0.777721 0.000949 0.0
0.781728 0.003826 0.0
0.784295 0.005805 0.0
0.785814 0.006574 0.0
0.786670 0.006092 0.0
0.787096 0.004622 0.0
0.787001 0.002649 0.0
0.785913 0.000833 0.0
0.783559 -0.000054 0.0
0.780070 0.000087 0.0
0.775433 0.001011 0.0
0.769438 0.002423 0.0
0.762019 0.003989 0.0
0.753557 0.005349 0.0
0.744764 0.006119 0.0
0.736382 0.006109 0.0
0.729091 0.005373 0.0
0.723431 0.004169 0.0
0.719761 0.002774 0.0
0.718267 0.001268 0.0
0.718760 -0.000332 0.0
0.720540 -0.001663 0.0
0.722955 -0.002430 0.0
0.725705 -0.002590 0.0
0.728524 -0.002121 0.0
0.730821 -0.000889 0.0
0.731358 0.001518 0.0
1.001864 -0.003093 0.0
1.008494 -0.010802 0.0
1.020510 -0.020041 0.0
1.037380 -0.030325 0.0
1.058988 -0.041088 0.0
1.085280 -0.051606 0.0
1.115994 -0.060913 0.0
1.150419 -0.067821 0.0
1.187217 -0.071145 0.0
1.224382 -0.070040 0.0
1.259686 -0.064788 0.0
1.291406 -0.056568 0.0
1.318643 -0.046829 0.0
1.341238 -0.036853 0.0
1.359556 -0.027591 0.0
1.374275 -0.019630 0.0
1.386243 -0.013202 0.0
1.396331 -0.008257 0.0
1.405299 -0.004403 0.0
1.413666 -0.000950 0.0
1.421587 0.003026 0.0
1.428751 0.008520 0.0
1.434346 0.016319 0.0
1.437217 0.026723 0.0
1.436160 0.039473 0.0
1.430186 0.053848 0.0
1.418693 0.068856 0.0
1.401517 0.083427 0.0
1.378905 0.096561 0.0
1.351438 0.107400 0.0
1.319949 0.115246 0.0
1.285460 0.119553 0.0
1.249122 0.119923 0.0
1.212172 0.116107 0.0
1.175869 0.108030 0.0
1.141421 0.095826 0.0
1.109847 0.079861 0.0
1.081763 0.060821 0.0
1.057260 0.040045 0.0
1.036192 0.019666 0.0
1.018659 0.001212 0.0
1.005706 -0.014210 0.0
0.998722 -0.026488 0.0
0.998507 -0.036120 0.0
1.005447 -0.043385 0.0
1.019457 -0.048084 0.0
1.039898 -0.049601 0.0
1.065556 -0.047117 0.0
1.094667 -0.039829 0.0
1.124810 -0.027410 0.0
1.152670 -0.010686 0.0
1.175181 0.009023 0.0
1.190661 0.029741 0.0
1.198377 0.049399 0.0
1.198109 0.065834 0.0
1.189907 0.077063 0.0
1.173886 0.081915 0.0
1.150366 0.080698 0.0
1.120392 0.075105 0.0
1.086099 0.067007 0.0
1.050276 0.057218 0.0
1.015185 0.045591 0.0
0.981593 0.032313 0.0
0.949399 0.018837 0.0
0.920120 0.006930 0.0
0.897276 -0.003023 0.0
0.883105 -0.010844 0.0
0.876877 -0.016122 0.0
0.876681 -0.019059 0.0
0.880986 -0.019958 0.0
0.888677 -0.018902 0.0
0.898845 -0.016078 0.0
0.910591 -0.012022 0.0
0.922848 -0.007568 0.0
0.934659 -0.003474 0.0
0.945582 -0.000384 0.0
0.955580 0.001246 0.0
0.964779 0.001364 0.0
0.973351 0.000352 0.0
0.981447 -0.001081 0.0
0.989210 -0.002112 0.0
0.996712 -0.002258 0.0
1.003847 -0.001356 0.0
1.010407 0.000530 0.0
1.016171 0.003136 0.0
1.020826 0.006040 0.0
1.023910 0.008675 0.0
1.024882 0.010615 0.0
1.023218 0.011657 0.0
1.018561 0.011773 0.0
1.010876 0.011115 0.0
1.000513 0.009861 0.0
0.988123 0.008065 0.0
0.974658 0.005843 0.0
0.961636 0.003404 0.0
0.950892 0.000832 0.0
0.943805 -0.001515 0.0
0.940619 -0.002828 0.0
0.940432 -0.002293 0.0
0.940128 0.002688 0.0
1.001481 -0.006438 0.0
1.007203 -0.019810 0.0
1.018317 -0.034164 0.0
1.034741 -0.049496 0.0
1.056663 -0.065447 0.0
1.084363 -0.081239 0.0
1.117924 -0.095555 0.0
1.156815 -0.106495 0.0
1.199495 -0.111950 0.0
1.242914 -0.109818 0.0
1.283393 -0.100793 0.0
1.318438 -0.087328 0.0
1.347145 -0.072012 0.0
1.369740 -0.056860 0.0
1.387063 -0.043225 0.0
1.400245 -0.031897 0.0
1.410536 -0.023194 0.0
1.419195 -0.017012 0.0
1.427381 -0.012802 0.0
1.435996 -0.009535 0.0
1.445430 -0.005744 0.0
1.455317 0.000240 0.0
1.464527 0.009794 0.0
1.471434 0.023470 0.0
1.474391 0.040827 0.0
1.472172 0.060687 0.0
1.464180 0.081503 0.0
1.450429 0.101707 0.0
1.431393 0.119929 0.0
1.407817 0.135075 0.0
1.380563 0.146313 0.0
1.350512 0.153026 0.0
1.318523 0.154778 0.0
1.285407 0.151319 0.0
1.251916 0.142611 0.0
1.218720 0.128889 0.0
1.186363 0.110729 0.0
1.155251 0.089149 0.0
1.125773 0.065698 0.0
1.098595 0.042259 0.0
1.074664 0.020085 0.0
1.055007 -0.000474 0.0
1.040880 -0.019113 0.0
1.033468 -0.035867 0.0
1.033465 -0.050576 0.0
1.041103 -0.062541 0.0
1.056186 -0.070668 0.0
1.078250 -0.073773 0.0
1.106704 -0.070738 0.0
1.140699 -0.060638 0.0
1.178605 -0.043223 0.0
1.217239 -0.019585 0.0
1.252173 0.007936 0.0
1.279934 0.035727 0.0
1.299106 0.060601 0.0
1.309169 0.080435 0.0
1.309800 0.093933 0.0
1.301096 0.100903 0.0
1.283880 0.102090 0.0
1.259719 0.098476 0.0
1.230519 0.090772 0.0
1.198018 0.079629 0.0
1.163739 0.066145 0.0
1.129295 0.051642 0.0
1.096000 0.036699 0.0
1.064232 0.021819 0.0
1.034514 0.008203 0.0
1.008831 -0.003258 0.0
0.989260 -0.012155 0.0
0.976155 -0.018062 0.0
0.968629 -0.020964 0.0
0.965591 -0.021145 0.0
0.965970 -0.019080 0.0
0.968733 -0.015530 0.0
0.972954 -0.011545 0.0
0.977928 -0.008210 0.0
0.983306 -0.006305 0.0
0.989180 -0.006157 0.0
0.996050 -0.007569 0.0
1.004712 -0.009919 0.0
1.016065 -0.012390 0.0
1.030795 -0.014213 0.0
1.049060 -0.014801 0.0
1.070302 -0.013827 0.0
1.093283 -0.011252 0.0
1.116350 -0.007295 0.0
1.137713 -0.002437 0.0
1.155725 0.002744 0.0
1.169212 0.007706 0.0
1.177538 0.012055 0.0
1.180505 0.015550 0.0
1.178286 0.018008 0.0
1.171406 0.019188 0.0
1.160688 0.018903 0.0
1.147043 0.017011 0.0
1.131320 0.013691 0.0
1.114463 0.009569 0.0
1.098036 0.005700 0.0
1.084226 0.003176 0.0
1.074941 0.006807 0.0
1.001288 -0.009207 0.0
1.006407 -0.027882 0.0
1.016698 -0.047496 0.0
1.032499 -0.068388 0.0
1.054491 -0.090468 0.0
1.083585 -0.113013 0.0
1.120613 -0.134371 0.0
1.165654 -0.151610 0.0
1.217372 -0.161233 0.0
1.270545 -0.157127 0.0
1.318183 -0.141603 0.0
1.356721 -0.120101 0.0
1.385844 -0.097069 0.0
1.406765 -0.075319 0.0
1.421156 -0.056481 0.0
1.430769 -0.041436 0.0
1.437346 -0.030523 0.0
1.442612 -0.023608 0.0
1.448248 -0.020028 0.0
1.455756 -0.018432 0.0
1.466081 -0.016606 0.0
1.479024 -0.011728 0.0
1.492828 -0.001252 0.0
1.504642 0.015795 0.0
1.511718 0.038469 0.0
1.512237 0.064744 0.0
1.505499 0.092176 0.0
1.491790 0.118494 0.0
1.472029 0.141938 0.0
1.447394 0.161277 0.0
1.419058 0.175703 0.0
1.388048 0.184696 0.0
1.355205 0.187939 0.0
1.321191 0.185288 0.0
1.286523 0.176800 0.0
1.251625 0.162795 0.0
1.216880 0.143925 0.0
1.182718 0.121226 0.0
1.149747 0.096071 0.0
1.118868 0.069943 0.0
1.091208 0.043992 0.0
1.067775 0.018708 0.0
1.049312 -0.005706 0.0
1.036380 -0.028930 0.0
1.029295 -0.050425 0.0
1.028191 -0.069226 0.0
1.033288 -0.084163 0.0
1.045186 -0.094240 0.0
1.064939 -0.098478 0.0
1.093660 -0.095613 0.0
1.131760 -0.084255 0.0
1.178127 -0.063556 0.0
1.229286 -0.034186 0.0
1.278641 0.000732 0.0
1.319176 0.035889 0.0
1.347964 0.066296 0.0
1.365078 0.090328 0.0
1.371008 0.107282 0.0
1.366677 0.117259 0.0
1.353397 0.120749 0.0
1.332689 0.118407 0.0
1.306101 0.111082 0.0
1.275186 0.099885 0.0
1.241519 0.086012 0.0
1.206601 0.070543 0.0
1.171814 0.054530 0.0
1.138332 0.038693 0.0
1.106763 0.023504 0.0
1.077502 0.009915 0.0
1.051537 -0.001062 0.0
1.029928 -0.008830 0.0
1.012743 -0.013056 0.0
0.999119 -0.013924 0.0
0.987886 -0.012217 0.0
0.978027 -0.009221 0.0
0.968966 -0.006447 0.0
0.960779 -0.005258 0.0
0.954241 -0.006539 0.0
0.950652 -0.010467 0.0
0.951476 -0.016507 0.0
0.957987 -0.023664 0.0
0.970992 -0.030673 0.0
0.990687 -0.036301 0.0
1.016689 -0.039571 0.0
1.048102 -0.039902 0.0
1.083530 -0.037140 0.0
1.121051 -0.031475 0.0
1.158232 -0.023411 0.0
1.192314 -0.013709 0.0
1.220735 -0.003277 0.0
1.241821 0.006829 0.0
1.255203 0.015567 0.0
1.261431 0.022281 0.0
1.261315 0.026644 0.0
1.255760 0.028470 0.0
1.245845 0.027871 0.0
1.232866 0.025226 0.0
1.218247 0.021088 0.0
1.203462 0.016384 0.0
1.191819 0.014528 0.0
1.001094 -0.011588 0.0
1.005502 -0.035028 0.0
1.014579 -0.059717 0.0
1.029040 -0.086430 0.0
1.050161 -0.115539 0.0
1.079798 -0.146673 0.0
1.120174 -0.178115 0.0
1.172909 -0.205641 0.0
1.238581 -0.224592 0.0
1.306675 -0.215034 0.0
1.362267 -0.186927 0.0
1.401687 -0.152735 0.0
1.427345 -0.119216 0.0
1.442620 -0.089368 0.0
1.450365 -0.064569 0.0
1.452924 -0.045521 0.0
1.452397 -0.032488 0.0
1.450836 -0.025347 0.0
1.450424 -0.023513 0.0
1.453535 -0.025565 0.0
1.462277 -0.028540 0.0
1.477426 -0.027886 0.0
1.497272 -0.018743 0.0
1.517154 0.001591 0.0
1.531598 0.031153 0.0
1.537284 0.065855 0.0
1.533335 0.101752 0.0
1.520423 0.135539 0.0
1.500057 0.165020 0.0
1.473948 0.188940 0.0
1.443647 0.206678 0.0
1.410409 0.217969 0.0
1.375180 0.222738 0.0
1.338646 0.221038 0.0
1.301306 0.213058 0.0
1.263564 0.199178 0.0
1.225827 0.180025 0.0
1.188621 0.156493 0.0
1.152692 0.129703 0.0
1.119015 0.100868 0.0
1.088595 0.071147 0.0
1.062032 0.041549 0.0
1.039070 0.012879 0.0
1.018742 -0.014256 0.0
1.000301 -0.039573 0.0
0.984004 -0.062675 0.0
0.971336 -0.083144 0.0
0.965025 -0.100847 0.0
0.968503 -0.115102 0.0
0.984734 -0.123940 0.0
1.015237 -0.124531 0.0
1.059799 -0.114208 0.0
1.116520 -0.091413 0.0
1.181625 -0.056500 0.0
1.247671 -0.013460 0.0
1.304020 0.030508 0.0
1.344819 0.068202 0.0
1.370646 0.097649 0.0
1.383140 0.118729 0.0
1.383964 0.131735 0.0
1.374804 0.137288 0.0
1.357323 0.136269 0.0
1.333160 0.129777 0.0
1.303932 0.119015 0.0
1.271206 0.105185 0.0
1.236461 0.089420 0.0
1.201028 0.072718 0.0
1.166058 0.056017 0.0
1.132489 0.040231 0.0
1.100851 0.026226 0.0
1.071177 0.015164 0.0
1.043219 0.008092 0.0
1.016503 0.005269 0.0
0.990449 0.005878 0.0
0.964869 0.008123 0.0
0.940420 0.009719 0.0
0.918582 0.008602 0.0
0.901194 0.003526 0.0
0.889968 -0.005717 0.0
0.886271 -0.018384 0.0
0.890813 -0.032840 0.0
0.903456 -0.047146 0.0
0.923512 -0.059580 0.0
0.950076 -0.068857 0.0
0.982197 -0.074149 0.0
1.018886 -0.075010 0.0
1.059049 -0.071290 0.0
1.101390 -0.063118 0.0
1.144288 -0.050982 0.0
1.185693 -0.035830 0.0
1.223108 -0.019120 0.0
1.253895 -0.002653 0.0
1.276295 0.011873 0.0
1.290251 0.023213 0.0
1.296717 0.030990 0.0
1.296829 0.035154 0.0
1.291872 0.035879 0.0
1.283332 0.033594 0.0
1.272956 0.029040 0.0
1.263640 0.022830 0.0
1.000819 -0.013502 0.0
1.004148 -0.040852 0.0
1.011172 -0.069994 0.0
1.022872 -0.102314 0.0
1.041092 -0.138995 0.0
1.068857 -0.180620 0.0
1.110604 -0.226291 0.0
1.171309 -0.270904 0.0
1.258617 -0.312309 0.0
1.347569 -0.284362 0.0
1.405556 -0.231178 0.0
1.436079 -0.178427 0.0
1.449379 -0.132482 0.0
1.452112 -0.094109 0.0
1.447882 -0.063342 0.0
1.438954 -0.040381 0.0
1.427163 -0.025311 0.0
1.414270 -0.018070 0.0
1.402412 -0.018521 0.0
1.394757 -0.026014 0.0
1.395324 -0.037400 0.0
1.407254 -0.046104 0.0
1.430786 -0.043902 0.0
1.461672 -0.024018 0.0
1.490161 0.013828 0.0
1.507697 0.059958 0.0
1.512326 0.106969 0.0
1.505443 0.150117 0.0
1.489380 0.186870 0.0
1.466389 0.216190 0.0
1.438275 0.237843 0.0
1.406379 0.251937 0.0
1.371678 0.258699 0.0
1.334893 0.258396 0.0
1.296589 0.251344 0.0
1.257267 0.237956 0.0
1.217464 0.218787 0.0
1.177849 0.194552 0.0
1.139295 0.166128 0.0
1.102811 0.134605 0.0
1.069180 0.101459 0.0
1.038292 0.068689 0.0
1.008565 0.038429 0.0
0.977234 0.011853 0.0
0.941906 -0.011913 0.0
0.903586 -0.035717 0.0
0.868031 -0.061878 0.0
0.842845 -0.090616 0.0
0.833680 -0.119646 0.0
0.842597 -0.144544 0.0
0.868836 -0.160670 0.0
0.910526 -0.164321 0.0
0.965605 -0.153102 0.0
1.031803 -0.126115 0.0
1.106156 -0.084244 0.0
1.183046 -0.031946 0.0
1.251436 0.021467 0.0
1.302823 0.067170 0.0
1.337058 0.102480 0.0
1.356391 0.127826 0.0
1.362849 0.143899 0.0
1.358338 0.151650 0.0
1.344676 0.152222 0.0
1.323601 0.146873 0.0
1.296765 0.136889 0.0
1.265711 0.123516 0.0
1.231834 0.107932 0.0
1.196325 0.091283 0.0
1.160074 0.074784 0.0
1.123554 0.059832 0.0
1.086789 0.047996 0.0
1.049504 0.040504 0.0
1.011486 0.037591 0.0
0.973132 0.037965 0.0
0.935799 0.038949 0.0
0.901727 0.037415 0.0
0.873498 0.030974 0.0
0.853322 0.018719 0.0
0.842443 0.001194 0.0
0.840929 -0.020084 0.0
0.847973 -0.042725 0.0
0.862399 -0.064331 0.0
0.883021 -0.083073 0.0
0.908830 -0.097738 0.0
0.939026 -0.107586 0.0
0.972956 -0.112193 0.0
1.010024 -0.111338 0.0
1.049591 -0.104976 0.0
1.090863 -0.093294 0.0
1.132781 -0.076839 0.0
1.173909 -0.056654 0.0
1.212389 -0.034386 0.0
1.245905 -0.012310 0.0
1.272134 0.007210 0.0
1.290157 0.022504 0.0
1.300632 0.033054 0.0
1.304702 0.038867 0.0
1.303702 0.040146 0.0
1.299207 0.037359 0.0
1.293457 0.029577 0.0
1.000420 -0.014740 0.0
1.002139 -0.044661 0.0
1.005915 -0.076984 0.0
1.012741 -0.113851 0.0
1.024696 -0.157634 0.0
1.045740 -0.210791 0.0
1.083029 -0.275156 0.0
1.147709 -0.347425 0.0
1.266045 -0.441433 0.0
1.375965 -0.354110 0.0
1.413152 -0.256603 0.0
1.413237 -0.183610 0.0
1.400687 -0.128049 0.0
1.383290 -0.083878 0.0
1.362790 -0.048843 0.0
1.339683 -0.022845 0.0
1.314115 -0.005487 0.0
1.286512 0.002601 0.0
1.258305 0.000873 0.0
1.231718 -0.011165 0.0
1.212371 -0.033468 0.0
1.208158 -0.057753 0.0
1.224225 -0.071854 0.0
1.261049 -0.063776 0.0
1.311107 -0.024961 0.0
1.355957 0.036361 0.0
1.383656 0.098239 0.0
1.396115 0.153271 0.0
1.396871 0.199023 0.0
1.388688 0.235211 0.0
1.373385 0.262240 0.0
1.352177 0.280644 0.0
1.325965 0.290905 0.0
1.295508 0.293432 0.0
1.261508 0.288611 0.0
1.224667 0.276852 0.0
1.185730 0.258632 0.0
1.145536 0.234515 0.0
1.105022 0.205232 0.0
1.064998 0.172009 0.0
1.025449 0.137234 0.0
0.984481 0.104770 0.0
0.938278 0.078277 0.0
0.884016 0.057598 0.0
0.824485 0.037202 0.0
0.768492 0.009481 0.0
0.726504 -0.029534 0.0
0.705462 -0.076732 0.0
0.705410 -0.124314 0.0
0.722052 -0.165436 0.0
0.751494 -0.195459 0.0
0.791633 -0.211360 0.0
0.841610 -0.211119 0.0
0.900919 -0.193604 0.0
0.968676 -0.158865 0.0
1.043109 -0.108648 0.0
1.120452 -0.047564 0.0
1.191267 0.013999 0.0
1.246433 0.066251 0.0
1.284700 0.106457 0.0
1.308063 0.135448 0.0
1.318406 0.154269 0.0
1.317534 0.164136 0.0
1.307189 0.166379 0.0
1.289028 0.162380 0.0
1.264594 0.153513 0.0
1.235265 0.141140 0.0
1.202184 0.126665 0.0
1.166169 0.111669 0.0
1.127654 0.097983 0.0
1.086789 0.087475 0.0
1.043750 0.081349 0.0
0.999235 0.079278 0.0
0.954872 0.078994 0.0
0.913234 0.076890 0.0
0.877308 0.069472 0.0
0.849679 0.054774 0.0
0.831866 0.032909 0.0
0.824107 0.005641 0.0
0.825533 -0.024442 0.0
0.834621 -0.054499 0.0
0.849803 -0.082166 0.0
0.869792 -0.105849 0.0
0.893623 -0.124602 0.0
0.920614 -0.137909 0.0
0.950306 -0.145492 0.0
0.982382 -0.147184 0.0
1.016578 -0.142893 0.0
1.052572 -0.132644 0.0
1.089874 -0.116710 0.0
1.127734 -0.095771 0.0
1.165050 -0.071065 0.0
1.200348 -0.044445 0.0
1.231789 -0.018327 0.0
1.257270 0.004537 0.0
1.275610 0.022207 0.0
1.287155 0.034098 0.0
1.292882 0.040189 0.0
1.293990 0.040703 0.0
1.291988 0.033987 0.0
0.999894 -0.015054 0.0
0.999460 -0.045633 0.0
0.998723 -0.079051 0.0
0.998243 -0.118132 0.0
0.999510 -0.166574 0.0
1.006108 -0.229493 0.0
1.026453 -0.314086 0.0
1.079304 -0.426025 0.0
1.226658 -0.628524 0.0
1.331914 -0.382196 0.0
1.294618 -0.228408 0.0
1.234359 -0.151631 0.0
1.186019 -0.099138 0.0
1.147208 -0.056580 0.0
1.111892 -0.020324 0.0
1.073375 0.010259 0.0
1.028787 0.031566 0.0
0.980205 0.041735 0.0
0.930554 0.039597 0.0
0.883645 0.023607 0.0
0.843226 -0.008474 0.0
0.818760 -0.054068 0.0
0.824784 -0.097631 0.0
0.866946 -0.116985 0.0
0.939458 -0.094320 0.0
1.027688 -0.027360 0.0
1.105341 0.056607 0.0
1.159266 0.128518 0.0
1.195641 0.186645 0.0
1.218690 0.232723 0.0
1.230501 0.268221 0.0
1.232268 0.294104 0.0
1.224944 0.310981 0.0
1.209471 0.319286 0.0
1.186832 0.319396 0.0
1.158026 0.311714 0.0
1.124027 0.296706 0.0
1.085665 0.274997 0.0
1.043216 0.247713 0.0
0.995535 0.217234 0.0
0.939417 0.187677 0.0
0.871448 0.163264 0.0
0.793285 0.144149 0.0
0.715422 0.123851 0.0
0.653026 0.092875 0.0
0.616756 0.046070 0.0
0.606990 -0.014369 0.0
0.615846 -0.079710 0.0
0.635012 -0.140450 0.0
0.660226 -0.191154 0.0
0.690178 -0.229135 0.0
0.725103 -0.252748 0.0
0.765959 -0.260565 0.0
0.813807 -0.251315 0.0
0.869241 -0.224344 0.0
0.931952 -0.180314 0.0
1.000501 -0.121790 0.0
1.071792 -0.053882 0.0
1.137851 0.012906 0.0
1.190510 0.068876 0.0
1.228139 0.112036 0.0
1.252067 0.143411 0.0
1.263737 0.164196 0.0
1.264650 0.175752 0.0
1.256288 0.179529 0.0
1.240063 0.177023 0.0
1.217243 0.169779 0.0
1.188871 0.159477 0.0
1.155708 0.148035 0.0
1.118262 0.137577 0.0
1.077009 0.129999 0.0
1.032797 0.126076 0.0
0.987265 0.124600 0.0
0.942979 0.122321 0.0
0.903062 0.115118 0.0
0.870414 0.099817 0.0
0.846959 0.075513 0.0
0.833314 0.043628 0.0
0.828973 0.007021 0.0
0.832680 -0.030954 0.0
0.842845 -0.067239 0.0
0.857933 -0.099696 0.0
0.876672 -0.127046 0.0
0.898089 -0.148652 0.0
0.921517 -0.164277 0.0
0.946570 -0.173868 0.0
0.973093 -0.177408 0.0
1.001071 -0.174844 0.0
1.030516 -0.166130 0.0
1.061333 -0.151344 0.0
1.093219 -0.130882 0.0
1.125579 -0.105630 0.0
1.157487 -0.077085 0.0
1.187700 -0.047341 0.0
1.214718 -0.018948 0.0
1.236810 0.005260 0.0
1.252956 0.023353 0.0
1.263353 0.034809 0.0
1.268716 0.039611 0.0
1.269857 0.035939 0.0
0.999295 -0.014243 0.0
0.996387 -0.043103 0.0
0.990318 -0.074774 0.0
0.980719 -0.112329 0.0
0.967293 -0.160217 0.0
0.950487 -0.225643 0.0
0.933815 -0.321608 0.0
0.932474 -0.470013 0.0
1.030833 -0.830250 0.0
1.037605 -0.188933 0.0
0.864561 -0.097721 0.0
0.733776 -0.081230 0.0
0.666615 -0.054040 0.0
0.619710 -0.015962 0.0
0.567307 0.026778 0.0
0.505602 0.063378 0.0
0.440084 0.088553 0.0
0.375223 0.098190 0.0
0.318627 0.089388 0.0
0.280449 0.058903 0.0
0.271492 0.005606 0.0
0.296319 -0.068508 0.0
0.350787 -0.143684 0.0
0.428626 -0.190934 0.0
0.524295 -0.188552 0.0
0.634375 -0.131439 0.0
0.752072 -0.034664 0.0
0.855117 0.062819 0.0
0.932227 0.138858 0.0
0.990866 0.198821 0.0
1.034402 0.246776 0.0
1.063945 0.284239 0.0
1.080303 0.311812 0.0
1.084413 0.329817 0.0
1.077351 0.338567 0.0
1.060210 0.338490 0.0
1.033899 0.330238 0.0
0.998730 0.314996 0.0
0.953770 0.295122 0.0
0.896737 0.274539 0.0
0.826188 0.257038 0.0
0.746167 0.241894 0.0
0.668607 0.221243 0.0
0.608500 0.184727 0.0
0.575108 0.127786 0.0
0.567869 0.054668 0.0
0.579368 -0.024700 0.0
0.600778 -0.099645 0.0
0.625938 -0.164842 0.0
0.652065 -0.218102 0.0
0.678471 -0.258546 0.0
0.705810 -0.285601 0.0
0.735645 -0.298402 0.0
0.769976 -0.295657 0.0
0.810607 -0.276067 0.0
0.858496 -0.239191 0.0
0.913348 -0.186314 0.0
0.973571 -0.120872 0.0
1.036084 -0.048675 0.0
1.093904 0.019978 0.0
1.140436 0.076774 0.0
1.174311 0.120870 0.0
1.196185 0.153192 0.0
1.207040 0.174989 0.0
1.207997 0.187697 0.0
1.200194 0.192882 0.0
1.184689 0.192246 0.0
1.162375 0.187697 0.0
1.133966 0.181387 0.0
1.100118 0.175519 0.0
1.061718 0.171710 0.0
1.020271 0.170025 0.0
0.978129 0.168326 0.0
0.938310 0.162700 0.0
0.903869 0.149097 0.0
0.877126 0.125228 0.0
0.859209 0.091474 0.0
0.850099 0.050421 0.0
0.848999 0.005670 0.0
0.854667 -0.038977 0.0
0.865652 -0.080366 0.0
0.880521 -0.116527 0.0
0.898005 -0.146438 0.0
0.917087 -0.169759 0.0
0.937053 -0.186565 0.0
0.957526 -0.197105 0.0
0.978437 -0.201604 0.0
0.999958 -0.200148 0.0
1.022375 -0.192687 0.0
1.045932 -0.179162 0.0
1.070695 -0.159715 0.0
1.096455 -0.134917 0.0
1.122679 -0.105930 0.0
1.148530 -0.074559 0.0
1.172916 -0.043134 0.0
1.194567 -0.014297 0.0
1.212090 0.009242 0.0
1.224723 0.025890 0.0
1.232587 0.035305 0.0
1.235900 0.035792 0.0
0.998730 -0.012268 0.0
0.993486 -0.036925 0.0
0.982321 -0.063718 0.0
0.963745 -0.095210 0.0
0.935006 -0.135171 0.0
0.891046 -0.189922 0.0
0.821942 -0.271553 0.0
0.708475 -0.405261 0.0
0.318752 -0.707204 0.0
-0.475389 0.245183 0.0
-0.475389 0.000000 0.0
-0.027868 -0.019061 0.0
-0.046257 -0.039467 0.0
-0.016505 -0.013381 0.0
0.026250 0.033845 0.0
0.051255 0.093011 0.0
0.042252 0.133442 0.0
0.014365 0.146048 0.0
-0.015649 0.128140 0.0
-0.034960 0.077640 0.0
-0.034996 -0.004138 0.0
-0.011673 -0.106914 0.0
0.034792 -0.206211 0.0
0.103418 -0.274872 0.0
0.192155 -0.289020 0.0
0.296988 -0.245883 0.0
0.416699 -0.157627 0.0
0.545801 -0.046365 0.0
0.661849 0.054884 0.0
0.752363 0.133643 0.0
0.823421 0.197360 0.0
0.877734 0.249799 0.0
0.916007 0.291619 0.0
0.938964 0.322944 0.0
0.947468 0.343999 0.0
0.942325 0.355343 0.0
0.923915 0.358106 0.0
0.891796 0.354417 0.0
0.844849 0.347608 0.0
0.783181 0.340753 0.0
0.711772 0.332782 0.0
0.642291 0.315652 0.0
0.588984 0.278352 0.0
0.560859 0.215849 0.0
0.557797 0.133118 0.0
0.573364 0.041007 0.0
0.599079 -0.048254 0.0
0.628026 -0.126447 0.0
0.656378 -0.191552 0.0
0.682246 -0.243387 0.0
0.705009 -0.282430 0.0
0.725162 -0.309209 0.0
0.744280 -0.323747 0.0
0.764830 -0.325193 0.0
0.789629 -0.311962 0.0
0.821002 -0.282558 0.0
0.859994 -0.236791 0.0
0.906052 -0.176676 0.0
0.957208 -0.106540 0.0
1.010038 -0.032807 0.0
1.058357 0.034708 0.0
1.097244 0.090175 0.0
1.125762 0.133495 0.0
1.144069 0.165524 0.0
1.152741 0.187534 0.0
1.152519 0.201069 0.0
1.144165 0.207918 0.0
1.128380 0.210123 0.0
1.105842 0.209908 0.0
1.077375 0.209313 0.0
1.044265 0.209426 0.0
1.008523 0.209498 0.0
0.972874 0.206644 0.0
0.940316 0.196758 0.0
0.913421 0.176376 0.0
0.893770 0.144342 0.0
0.881855 0.102192 0.0
0.877360 0.053308 0.0
0.879513 0.001730 0.0
0.887212 -0.048404 0.0
0.899126 -0.093838 0.0
0.913888 -0.132685 0.0
0.930237 -0.164113 0.0
0.947122 -0.188051 0.0
0.963789 -0.204907 0.0
0.979840 -0.215287 0.0
0.995249 -0.219743 0.0
1.010315 -0.218598 0.0
1.025551 -0.211889 0.0
1.041509 -0.199474 0.0
1.058603 -0.181261 0.0
1.076974 -0.157501 0.0
1.096423 -0.129019 0.0
1.116420 -0.097317 0.0
1.136162 -0.064503 0.0
1.154656 -0.033073 0.0
1.170782 -0.005632 0.0
1.183467 0.015445 0.0
1.192156 0.029197 0.0
1.196613 0.034130 0.0
0.998325 -0.009323 0.0
0.991417 -0.027717 0.0
0.976682 -0.047027 0.0
0.951976 -0.068620 0.0
0.913167 -0.094215 0.0
0.852250 -0.126001 0.0
0.752394 -0.166513 0.0
0.573784 -0.218223 0.0
0.228859 -0.258886 0.0
0.000000 0.245183 0.0
-0.000000 -0.000000 0.0
0.000000 0.000000 0.0
-0.024576 -0.024473 0.0
-0.056949 -0.025856 0.0
-0.071959 0.018575 0.0
-0.091357 0.102674 0.0
-0.121276 0.162702 0.0
-0.157940 0.181339 0.0
-0.191906 0.156829 0.0
-0.213246 0.089602 0.0
-0.213879 -0.015431 0.0
-0.192781 -0.140043 0.0
-0.155562 -0.256766 0.0
-0.105312 -0.343192 0.0
-0.036304 -0.378445 0.0
0.054511 -0.352106 0.0
0.162504 -0.279108 0.0
0.285397 -0.176879 0.0
0.416175 -0.061427 0.0
0.533629 0.041986 0.0
0.626161 0.125426 0.0
0.698553 0.195029 0.0
0.753302 0.253367 0.0
0.790981 0.300561 0.0
0.812015 0.336842 0.0
0.816623 0.363037 0.0
0.804628 0.380816 0.0
0.775745 0.392708 0.0
0.731052 0.400958 0.0
0.675641 0.404481 0.0
0.620116 0.395989 0.0
0.577634 0.364407 0.0
0.557354 0.303185 0.0
0.560321 0.216174 0.0
0.581342 0.114834 0.0
0.613159 0.011907 0.0
0.648603 -0.080312 0.0
0.682752 -0.157485 0.0
0.713294 -0.219408 0.0
0.738867 -0.266971 0.0
0.758830 -0.301572 0.0
0.773334 -0.324726 0.0
0.783531 -0.337545 0.0
0.791724 -0.340138 0.0
0.801194 -0.331286 0.0
0.815460 -0.308873 0.0
0.837174 -0.271181 0.0
0.867224 -0.218394 0.0
0.904579 -0.153334 0.0
0.946791 -0.081055 0.0
0.989941 -0.008513 0.0
1.028854 0.055595 0.0
1.060121 0.108288 0.0
1.082905 0.149639 0.0
1.097109 0.180542 0.0
1.102996 0.202396 0.0
1.100979 0.216964 0.0
1.091551 0.226289 0.0
1.075358 0.232474 0.0
1.053397 0.237175 0.0
1.027265 0.240806 0.0
0.999257 0.241867 0.0
0.972122 0.237060 0.0
0.948481 0.222540 0.0
0.930231 0.195740 0.0
0.918267 0.156594 0.0
0.912655 0.107467 0.0
0.913000 0.052182 0.0
0.918673 -0.004970 0.0
0.928656 -0.059386 0.0
0.941629 -0.107743 0.0
0.956285 -0.148199 0.0
0.971415 -0.180078 0.0
0.986003 -0.203559 0.0
0.999309 -0.219373 0.0
1.010942 -0.228504 0.0
1.020897 -0.231890 0.0
1.029557 -0.230177 0.0
1.037598 -0.223588 0.0
1.045834 -0.211970 0.0
1.055007 -0.195032 0.0
1.065601 -0.172694 0.0
1.077736 -0.145410 0.0
1.091156 -0.114344 0.0
1.105288 -0.081351 0.0
1.119339 -0.048770 0.0
1.132387 -0.019109 0.0
1.143407 0.005218 0.0
1.151569 0.022572 0.0
1.156286 0.031581 0.0
0.998158 -0.005806 0.0
0.990599 -0.016767 0.0
0.974603 -0.027247 0.0
0.948158 -0.037248 0.0
0.907694 -0.046315 0.0
0.847297 -0.052588 0.0
0.758108 -0.050881 0.0
0.629151 -0.026288 0.0
0.465639 0.061888 0.0
0.188998 0.170393 0.0
0.000000 0.000000 0.0
-0.000000 -0.000000 0.0
0.000000 0.000000 0.0
-0.009445 -0.009029 0.0
-0.039199 0.046098 0.0
-0.091427 0.146777 0.0
-0.150780 0.207870 0.0
-0.200091 0.222146 0.0
-0.236246 0.186143 0.0
-0.253300 0.098682 0.0
-0.244846 -0.032332 0.0
-0.216743 -0.172343 0.0
-0.182706 -0.295721 0.0
-0.148665 -0.388528 0.0
-0.111366 -0.439416 0.0
-0.057676 -0.435640 0.0
0.020213 -0.381456 0.0
0.118529 -0.295741 0.0
0.231680 -0.186493 0.0
0.350088 -0.068810 0.0
0.456198 0.037581 0.0
0.540293 0.126387 0.0
0.605231 0.202322 0.0
0.652423 0.266736 0.0
0.681968 0.320087 0.0
0.693734 0.363417 0.0
0.687827 0.398338 0.0
0.665699 0.426198 0.0
0.631963 0.445898 0.0
0.595571 0.451344 0.0
0.568015 0.432208 0.0
0.558325 0.380361 0.0
0.568949 0.296886 0.0
0.596409 0.192046 0.0
0.635017 0.079334 0.0
0.678129 -0.027522 0.0
0.719855 -0.118053 0.0
0.757145 -0.191184 0.0
0.788533 -0.247639 0.0
0.813119 -0.288899 0.0
0.830434 -0.316921 0.0
0.840464 -0.333909 0.0
0.843840 -0.341934 0.0
0.842204 -0.342306 0.0
0.838478 -0.334861 0.0
0.836635 -0.317721 0.0
0.840710 -0.288123 0.0
0.853428 -0.244220 0.0
0.875295 -0.186730 0.0
0.904703 -0.119280 0.0
0.938731 -0.047466 0.0
0.973055 0.021311 0.0
1.003483 0.080877 0.0
1.027861 0.129889 0.0
1.045341 0.168607 0.0
1.055662 0.198123 0.0
1.058879 0.220037 0.0
1.055295 0.236227 0.0
1.045544 0.248481 0.0
1.030765 0.257909 0.0
1.012739 0.264230 0.0
0.993798 0.265391 0.0