# vtk DataFile Version 3.0
Scalar Field
ASCII
DATASET RECTILINEAR_GRID
DIMENSIONS 100 26 1
X_COORDINATES 100 double
0.050000 0.150000 0.250000 0.350000 0.450000 0.550000 0.650000 0.750000 0.850000 0.950000 1.050000 1.150000 1.250000 1.350000 1.450000 1.550000 1.650000 1.750000 1.850000 1.950000 2.050000 2.150000 2.250000 2.350000 2.450000 2.550000 2.650000 2.750000 2.850000 2.950000 3.050000 3.150000 3.250000 3.350000 3.450000 3.550000 3.650000 3.750000 3.850000 3.950000 4.050000 4.150000 4.250000 4.350000 4.450000 4.550000 4.650000 4.750000 4.850000 4.950000 5.050000 5.150000 5.250000 5.350000 5.450000 5.550000 5.650000 5.750000 5.850000 5.950000 6.050000 6.150000 6.250000 6.350000 6.450000 6.550000 6.650000 6.750000 6.850000 6.950000 7.050000 7.150000 7.250000 7.350000 7.450000 7.550000 7.650000 7.750000 7.850000 7.950000 8.050000 8.150000 8.250000 8.350000 8.450000 8.550000 8.650000 8.750000 8.850000 8.950000 9.050000 9.150000 9.250000 9.350000 9.450000 9.550000 9.650000 9.750000 9.850000 9.950000 
Y_COORDINATES 26 double
0.050000 0.150000 0.250000 0.350000 0.450000 0.550000 0.650000 0.750000 0.850000 0.950000 1.050000 1.150000 1.250000 1.350000 1.450000 1.550000 1.650000 1.750000 1.850000 1.950000 2.050000 2.150000 2.250000 2.350000 2.450000 2.550000 
Z_COORDINATES 1 double
0.0
POINT_DATA 2600
SCALARS Skalarfeld double 1
LOOKUP_TABLE default
0.277623
0.262414
0.247438
0.229668
0.208027
0.182094
0.151887
0.117850
0.080896
0.042412
0.004131
-0.032149
-0.064873
-0.092942
-0.115793
-0.133359
-0.145646
-0.153325
-0.157177
-0.158041
-0.156734
-0.153971
-0.150296
-0.146024
-0.141240
-0.135854
-0.129717
-0.122743
-0.115013
-0.106803
-0.098547
-0.090755
-0.083900
-0.078302
-0.074046
-0.070933
-0.068496
-0.066066
-0.062904
-0.058345
-0.051903
-0.043421
-0.032542
-0.019717
-0.006880
0.004907
0.015139
0.023596
0.030188
0.034808
0.037374
0.038032
0.036447
0.032452
0.026099
0.017800
0.008493
-0.000430
-0.007641
-0.012599
-0.015800
-0.017880
-0.019393
-0.020231
-0.020065
-0.018714
-0.016514
-0.013881
-0.011040
-0.008170
-0.005431
-0.002948
-0.000810
0.000925
0.002232
0.003121
0.003627
0.003809
0.003741
0.003505
0.003188
0.002875
0.002642
0.002556
0.002670
0.003023
0.003638
0.004526
0.005684
0.007101
0.008761
0.010642
0.012726
0.014993
0.017428
0.020018
0.022749
0.025607
0.028560
0.032131
0.268642
0.262236
0.250224
0.233620
0.212300
0.186108
0.155094
0.119711
0.080962
0.040452
0.000250
-0.037543
-0.071211
-0.099625
-0.122243
-0.139004
-0.150490
-0.157300
-0.160242
-0.160240
-0.158209
-0.154957
-0.151092
-0.146942
-0.142538
-0.137673
-0.132062
-0.125510
-0.118036
-0.109898
-0.101551
-0.093544
-0.086391
-0.080454
-0.075846
-0.072390
-0.069624
-0.066881
-0.063417
-0.058552
-0.051688
-0.042219
-0.030833
-0.018444
-0.006177
0.005169
0.015147
0.023523
0.030195
0.035189
0.038274
0.039021
0.037429
0.033313
0.026692
0.017998
0.008288
-0.000860
-0.008009
-0.012703
-0.015588
-0.017866
-0.019783
-0.020853
-0.020816
-0.019299
-0.016962
-0.014296
-0.011400
-0.008458
-0.005656
-0.003114
-0.000925
0.000848
0.002180
0.003080
0.003585
0.003756
0.003667
0.003405
0.003059
0.002716
0.002455
0.002344
0.002437
0.002775
0.003380
0.004263
0.005420
0.006841
0.008509
0.010403
0.012504
0.014797
0.017270
0.019915
0.022725
0.025688
0.028761
0.032892
0.271480
0.267424
0.257287
0.241673
0.220556
0.193722
0.161087
0.123012
0.080605
0.035896
-0.008254
-0.049067
-0.084526
-0.113521
-0.135713
-0.151339
-0.161086
-0.165845
-0.166695
-0.164781
-0.161228
-0.157065
-0.153078
-0.149619
-0.146556
-0.143347
-0.139339
-0.134046
-0.127312
-0.119342
-0.110622
-0.101772
-0.093393
-0.085935
-0.079603
-0.074313
-0.069706
-0.065223
-0.060215
-0.054069
-0.046305
-0.036693
-0.025541
-0.014409
-0.003498
0.006663
0.015715
0.023411
0.029577
0.034115
0.036994
0.037671
0.035811
0.031692
0.025412
0.017438
0.008718
0.000487
-0.006251
-0.011251
-0.014987
-0.018018
-0.020268
-0.021227
-0.020517
-0.018968
-0.016891
-0.014525
-0.011659
-0.008697
-0.005893
-0.003329
-0.001112
0.000682
0.002022
0.002919
0.003410
0.003553
0.003428
0.003123
0.002732
0.002345
0.002043
0.001897
0.001962
0.002277
0.002867
0.003740
0.004894
0.006315
0.007988
0.009893
0.012013
0.014339
0.016866
0.019597
0.022546
0.025732
0.029187
0.034249
0.281817
0.278523
0.269405
0.254475
0.233362
0.205485
0.170348
0.127988
0.079554
0.027738
-0.022895
-0.068320
-0.106188
-0.135633
-0.156757
-0.170240
-0.177119
-0.178629
-0.176144
-0.171116
-0.165028
-0.159274
-0.154927
-0.152484
-0.151635
-0.151165
-0.149766
-0.146463
-0.140848
-0.133078
-0.123717
-0.113514
-0.103207
-0.093376
-0.084356
-0.076209
-0.068747
-0.061605
-0.054334
-0.046522
-0.037896
-0.028416
-0.018335
-0.008304
0.001176
0.009926
0.017688
0.024212
0.029275
0.032724
0.034491
0.034502
0.032597
0.028453
0.022671
0.015672
0.008187
0.001033
-0.005132
-0.010091
-0.013995
-0.016999
-0.019005
-0.019819
-0.019450
-0.018235
-0.016314
-0.013675
-0.010928
-0.008166
-0.005589
-0.003123
-0.000971
0.000759
0.002033
0.002867
0.003289
0.003357
0.003148
0.002756
0.002278
0.001808
0.001433
0.001225
0.001241
0.001520
0.002086
0.002945
0.004094
0.005516
0.007194
0.009108
0.011244
0.013597
0.016170
0.018980
0.022061
0.025463
0.029270
0.034942
0.298211
0.295307
0.286958
0.272714
0.251688
0.222621
0.184168
0.135547
0.077652
0.013993
-0.046787
-0.098526
-0.138934
-0.168034
-0.186817
-0.196647
-0.199061
-0.195692
-0.188251
-0.178560
-0.168568
-0.160294
-0.155433
-0.154677
-0.157221
-0.161114
-0.163633
-0.163067
-0.158735
-0.150874
-0.140308
-0.128072
-0.115145
-0.102289
-0.089994
-0.078480
-0.067738
-0.057604
-0.047848
-0.038259
-0.028716
-0.019229
-0.009938
-0.001070
0.007199
0.014646
0.021084
0.026251
0.029880
0.031816
0.032084
0.030790
0.028049
0.024026
0.018688
0.012425
0.005995
-0.000157
-0.005559
-0.010006
-0.013498
-0.016055
-0.017632
-0.018183
-0.017766
-0.016545
-0.014674
-0.012325
-0.009784
-0.007189
-0.004576
-0.002274
-0.000309
0.001255
0.002363
0.003064
0.003352
0.003278
0.002920
0.002376
0.001750
0.001142
0.000644
0.000332
0.000266
0.000487
0.001016
0.001859
0.003003
0.004431
0.006118
0.008043
0.010192
0.012561
0.015162
0.018024
0.021192
0.024738
0.028762
0.034733
0.319922
0.317417
0.310045
0.296975
0.276688
0.246897
0.204712
0.147458
0.074780
-0.009537
-0.085768
-0.144856
-0.186518
-0.213199
-0.227430
-0.231437
-0.227305
-0.217050
-0.202674
-0.186332
-0.170497
-0.158190
-0.152365
-0.154427
-0.162942
-0.173786
-0.182238
-0.185378
-0.182328
-0.173721
-0.161000
-0.145754
-0.129352
-0.112805
-0.096768
-0.081595
-0.067415
-0.054222
-0.041945
-0.030515
-0.019901
-0.010121
-0.001222
0.006749
0.013809
0.020117
0.025347
0.029222
0.031428
0.031796
0.030515
0.027868
0.024079
0.019324
0.013791
0.008022
0.002408
-0.002976
-0.007600
-0.011321
-0.014139
-0.016044
-0.017031
-0.017122
-0.016394
-0.014975
-0.013020
-0.010700
-0.008206
-0.005687
-0.003273
-0.001133
0.000649
0.002034
0.003007
0.003505
0.003582
0.003297
0.002728
0.001972
0.001134
0.000325
-0.000355
-0.000816
-0.000996
-0.000854
-0.000371
0.000453
0.001600
0.003042
0.004746
0.006686
0.008843
0.011216
0.013820
0.016690
0.019885
0.023486
0.027600
0.033694
0.346203
0.344276
0.338467
0.327640
0.309621
0.280767
0.235608
0.167334
0.071052
-0.052285
-0.150240
-0.214079
-0.252298
-0.272518
-0.279027
-0.274608
-0.261701
-0.242507
-0.219239
-0.194268
-0.170055
-0.151125
-0.142865
-0.148454
-0.165926
-0.188547
-0.206229
-0.214261
-0.212320
-0.202001
-0.185931
-0.166584
-0.145857
-0.125034
-0.104908
-0.085917
-0.068270
-0.052046
-0.037265
-0.023935
-0.012073
-0.001702
0.007151
0.014470
0.020289
0.024931
0.028918
0.031615
0.032699
0.031784
0.029341
0.025834
0.021514
0.016471
0.010784
0.004682
-0.001408
-0.006347
-0.010518
-0.013634
-0.015853
-0.017130
-0.017507
-0.017057
-0.015883
-0.014120
-0.011919
-0.009447
-0.006871
-0.004340
-0.001988
0.000063
0.001732
0.002967
0.003740
0.004037
0.003889
0.003356
0.002521
0.001487
0.000374
-0.000699
-0.001615
-0.002277
-0.002606
-0.002558
-0.002125
-0.001311
-0.000146
0.001328
0.003064
0.005025
0.007188
0.009548
0.012123
0.014953
0.018104
0.021667
0.025756
0.031850
0.375968
0.374900
0.371518
0.364578
0.351482
0.327251
0.282792
0.202975
0.067180
-0.136369
-0.256049
-0.309983
-0.334160
-0.342509
-0.338414
-0.323670
-0.301078
-0.271763
-0.237902
-0.202712
-0.169788
-0.140730
-0.126408
-0.133952
-0.160812
-0.197812
-0.231570
-0.246411
-0.245539
-0.232731
-0.212551
-0.188608
-0.163335
-0.138226
-0.114136
-0.091528
-0.070638
-0.051585
-0.034433
-0.019227
-0.006008
0.005174
0.014235
0.021036
0.025468
0.027681
0.028465
0.029225
0.029629
0.027649
0.024586
0.021197
0.017583
0.013529
0.008823
0.003454
-0.002324
-0.008067
-0.012777
-0.015676
-0.017801
-0.018777
-0.018760
-0.017888
-0.016305
-0.014171
-0.011657
-0.008936
-0.006176
-0.003531
-0.001133
0.000910
0.002519
0.003643
0.004258
0.004364
0.003991
0.003199
0.002076
0.000735
-0.000693
-0.002068
-0.003257
-0.004146
-0.004650
-0.004706
-0.004311
-0.003482
-0.002268
-0.000734
0.001059
0.003055
0.005223
0.007554
0.010063
0.012797
0.015826
0.019251
0.023198
0.029152
0.407622
0.407703
0.407685
0.406573
0.402034
0.388793
0.354744
0.271900
0.070017
-0.315647
-0.416422
-0.418148
-0.414685
-0.409456
-0.395382
-0.374158
-0.343444
-0.304230
-0.259932
-0.214514
-0.172259
-0.138540
-0.114253
-0.119520
-0.150319
-0.195494
-0.240547
-0.270681
-0.271781
-0.257147
-0.233845
-0.206553
-0.178072
-0.149956
-0.123045
-0.097795
-0.074468
-0.053228
-0.034189
-0.017444
-0.003075
0.008797
0.017930
0.023901
0.026293
0.025333
0.022371
0.018846
0.015734
0.013390
0.011570
0.010231
0.009053
0.007548
0.005270
0.001976
-0.002282
-0.007139
-0.011919
-0.016406
-0.018858
-0.019984
-0.019985
-0.019014
-0.017250
-0.014889
-0.012132
-0.009181
-0.006221
-0.003419
-0.000917
0.001174
0.002775
0.003836
0.004336
0.004276
0.003690
0.002639
0.001215
-0.000458
-0.002230
-0.003939
-0.005428
-0.006560
-0.007233
-0.007390
-0.007000
-0.006107
-0.004792
-0.003149
-0.001267
0.000784
0.002958
0.005241
0.007646
0.010221
0.013043
0.016218
0.019888
0.025504
0.439039
0.440450
0.444420
0.450634
0.458085
0.463677
0.457833
0.408848
0.174523
-0.644164
-0.601794
-0.485997
-0.459386
-0.449752
-0.438529
-0.416246
-0.381320
-0.337006
-0.287732
-0.238023
-0.192056
-0.154480
-0.133967
-0.134252
-0.156965
-0.195018
-0.235787
-0.266884
-0.278844
-0.264671
-0.241197
-0.213632
-0.184902
-0.156448
-0.129021
-0.103069
-0.078915
-0.056825
-0.037030
-0.019747
-0.005234
0.006103
0.013615
0.016606
0.014948
0.009694
0.002991
-0.003052
-0.007463
-0.008742
-0.007919
-0.005911
-0.003517
-0.001481
-0.000419
-0.000736
-0.002557
-0.005691
-0.009667
-0.013903
-0.017574
-0.019734
-0.020211
-0.019569
-0.017986
-0.015683
-0.012895
-0.009858
-0.006789
-0.003882
-0.001296
0.000843
0.002448
0.003463
0.003862
0.003646
0.002847
0.001525
-0.000221
-0.002253
-0.004400
-0.006470
-0.008271
-0.009641
-0.010459
-0.010668
-0.010211
-0.009177
-0.007692
-0.005885
-0.003875
-0.001752
0.000426
0.002636
0.004893
0.007241
0.009761
0.012563
0.015796
0.020807
0.467772
0.470454
0.478286
0.491823
0.512008
0.540059
0.576784
0.618832
0.702163
0.029000
-0.536571
-0.471348
-0.461577
-0.460710
-0.453417
-0.435484
-0.405519
-0.366319
-0.323266
-0.281575
-0.243567
-0.213513
-0.196324
-0.189154
-0.193572
-0.209869
-0.231025
-0.248410
-0.255687
-0.250570
-0.230018
-0.205471
-0.179785
-0.154118
-0.129026
-0.104914
-0.082183
-0.061248
-0.042532
-0.026497
-0.013728
-0.005033
-0.001338
-0.003124
-0.009651
-0.018709
-0.027427
-0.033649
-0.036005
-0.034148
-0.029565
-0.023556
-0.017202
-0.011391
-0.006818
-0.003958
-0.003036
-0.004000
-0.006513
-0.010003
-0.013704
-0.016867
-0.018698
-0.018768
-0.017745
-0.015843
-0.013318
-0.010433
-0.007442
-0.004568
-0.002001
0.000113
0.001670
0.002600
0.002868
0.002466
0.001420
-0.000211
-0.002321
-0.004753
-0.007307
-0.009752
-0.011859
-0.013431
-0.014337
-0.014491
-0.013858
-0.012590
-0.010862
-0.008843
-0.006679
-0.004480
-0.002314
-0.000209
0.001845
0.003892
0.006008
0.008304
0.010923
0.015008
0.491490
0.495103
0.505739
0.524524
0.553632
0.596870
0.660915
0.757082
0.890214
0.920840
0.000000
-0.461872
-0.452396
-0.445757
-0.440235
-0.431017
-0.413488
-0.391331
-0.368483
-0.346804
-0.326194
-0.308044
-0.289827
-0.269476
-0.252059
-0.240122
-0.232315
-0.227209
-0.221654
-0.212932
-0.200181
-0.181356
-0.161028
-0.140635
-0.120415
-0.100624
-0.081695
-0.064186
-0.048740
-0.036113
-0.027263
-0.023316
-0.025132
-0.032446
-0.043295
-0.054501
-0.063015
-0.066965
-0.065107
-0.058845
-0.049846
-0.039595
-0.029310
-0.019930
-0.012143
-0.006402
-0.002939
-0.001763
-0.002639
-0.005086
-0.008413
-0.011846
-0.014676
-0.016140
-0.015966
-0.014776
-0.012812
-0.010349
-0.007669
-0.005026
-0.002639
-0.000682
0.000717
0.001471
0.001527
0.000864
-0.000502
-0.002511
-0.005047
-0.007929
-0.010916
-0.013733
-0.016105
-0.017808
-0.018708
-0.018651
-0.017726
-0.016141
-0.014119
-0.011864
-0.009547
-0.007291
-0.005172
-0.003222
-0.001436
0.000228
0.001839
0.003493
0.005321
0.008142
0.508494
0.512511
0.524300
0.545001
0.576663
0.622302
0.685436
0.768017
0.864510
0.951465
0.863096
0.000000
-0.440490
-0.428583
-0.418084
-0.414059
-0.413308
-0.415103
-0.420502
-0.426957
-0.428754
-0.421899
-0.396722
-0.358436
-0.315122
-0.273131
-0.236808
-0.207264
-0.184707
-0.167799
-0.154308
-0.142346
-0.128867
-0.114996
-0.101277
-0.087621
-0.074412
-0.062303
-0.052135
-0.044973
-0.042113
-0.044771
-0.053270
-0.066175
-0.080349
-0.092160
-0.098941
-0.098660
-0.091510
-0.080263
-0.066656
-0.052262
-0.038339
-0.025811
-0.015301
-0.007183
-0.001625
0.001377
0.002009
0.000660
-0.002078
-0.005468
-0.008755
-0.011311
-0.012410
-0.012143
-0.010980
-0.009178
-0.007031
-0.004823
-0.002799
-0.001160
-0.000058
0.000394
0.000122
-0.000910
-0.002696
-0.005174
-0.008209
-0.011587
-0.015018
-0.018176
-0.020745
-0.022477
-0.023231
-0.022819
-0.021511
-0.019564
-0.017237
-0.014763
-0.012329
-0.010065
-0.008051
-0.006321
-0.004872
-0.003672
-0.002665
-0.001773
-0.000896
0.000355
0.518053
0.521937
0.533241
0.552745
0.581719
0.621813
0.674395
0.737656
0.797943
0.817723
0.774727
0.658250
0.000000
-0.414529
-0.400476
-0.400112
-0.412704
-0.436489
-0.470800
-0.507111
-0.530029
-0.525584
-0.488727
-0.431752
-0.365591
-0.298521
-0.237028
-0.185616
-0.146520
-0.119340
-0.101845
-0.090998
-0.083850
-0.077056
-0.070446
-0.063753
-0.057353
-0.051997
-0.048738
-0.048945
-0.054092
-0.065056
-0.081115
-0.099496
-0.116200
-0.127537
-0.131174
-0.125179
-0.112933
-0.096864
-0.078991
-0.060951
-0.043972
-0.028902
-0.016263
-0.006321
0.000849
0.005304
0.007222
0.006920
0.004886
0.001770
-0.001692
-0.004809
-0.007051
-0.007890
-0.007675
-0.006692
-0.005246
-0.003637
-0.002135
-0.000963
-0.000300
-0.000284
-0.001009
-0.002531
-0.004848
-0.007889
-0.011492
-0.015396
-0.019261
-0.022707
-0.025386
-0.027052
-0.027464
-0.026608
-0.024885
-0.022585
-0.019995
-0.017365
-0.014886
-0.012690
-0.010856
-0.009419
-0.008379
-0.007715
-0.007388
-0.007351
-0.007544
-0.008099
0.520422
0.523785
0.533500
0.549987
0.573767
0.604987
0.642336
0.680769
0.707000
0.695634
0.629064
0.541773
0.375876
0.000000
-0.400356
-0.400235
-0.411560
-0.447956
-0.503622
-0.565282
-0.607340
-0.595411
-0.545083
-0.471407
-0.387234
-0.302454
-0.224417
-0.158231
-0.106684
-0.070164
-0.047101
-0.034587
-0.029388
-0.028379
-0.028262
-0.028316
-0.029011
-0.031252
-0.036303
-0.045687
-0.060657
-0.081207
-0.105247
-0.128810
-0.147418
-0.157758
-0.156616
-0.145007
-0.127915
-0.107721
-0.086468
-0.065730
-0.046622
-0.029857
-0.015820
-0.004658
0.003649
0.009219
0.012236
0.012957
0.011760
0.009174
0.005853
0.002472
-0.000420
-0.002314
-0.003008
-0.002882
-0.002211
-0.001298
-0.000423
0.000171
0.000281
-0.000252
-0.001546
-0.003669
-0.006619
-0.010305
-0.014525
-0.018965
-0.023227
-0.026889
-0.029578
-0.031046
-0.030919
-0.029648
-0.027558
-0.024981
-0.022225
-0.019542
-0.017121
-0.015088
-0.013518
-0.012444
-0.011872
-0.011793
-0.012192
-0.013056
-0.014378
-0.016869
0.516577
0.519190
0.526631
0.538908
0.555799
0.576353
0.597970
0.614832
0.615834
0.583356
0.499854
0.357362
0.209979
-0.207781
-0.435891
-0.376702
-0.392568
-0.442725
-0.515300
-0.590564
-0.633284
-0.610595
-0.551143
-0.468838
-0.376691
-0.284697
-0.199932
-0.127076
-0.068771
-0.025768
0.002839
0.019219
0.026183
0.026354
0.021316
0.015705
0.008310
-0.001932
-0.016288
-0.036031
-0.061659
-0.091911
-0.123373
-0.151214
-0.170686
-0.178485
-0.171335
-0.155771
-0.135224
-0.112353
-0.089170
-0.067105
-0.047096
-0.029682
-0.015105
-0.003398
0.005543
0.011890
0.015835
0.017587
0.017413
0.015694
0.012947
0.009774
0.006744
0.004276
0.002729
0.002066
0.001986
0.002190
0.002399
0.002358
0.001846
0.000682
-0.001269
-0.004081
-0.007739
-0.012121
-0.016975
-0.021927
-0.026523
-0.030307
-0.032919
-0.033946
-0.033333
-0.031693
-0.029343
-0.026625
-0.023843
-0.021243
-0.019000
-0.017231
-0.016002
-0.015345
-0.015274
-0.015795
-0.016919
-0.018672
-0.021102
-0.025524
0.507898
0.509646
0.514523
0.522243
0.532111
0.542602
0.550700
0.550941
0.534353
0.487642
0.393485
0.228999
-0.054026
-0.625541
-0.495080
-0.380722
-0.385145
-0.437764
-0.511658
-0.581599
-0.599146
-0.571879
-0.511786
-0.431756
-0.343252
-0.255049
-0.173212
-0.101562
-0.042208
0.003968
0.037083
0.058402
0.069909
0.073184
0.068432
0.060084
0.047317
0.029573
0.006144
-0.023472
-0.058650
-0.096872
-0.133754
-0.164045
-0.183205
-0.185350
-0.174548
-0.156558
-0.134540
-0.111005
-0.087758
-0.066000
-0.046452
-0.029487
-0.015228
-0.003632
0.005448
0.012211
0.016862
0.019583
0.020551
0.020007
0.018304
0.015907
0.013302
0.010857
0.008916
0.007726
0.007038
0.006607
0.006180
0.005506
0.004353
0.002521
-0.000134
-0.003679
-0.008076
-0.013157
-0.018610
-0.024001
-0.028826
-0.032603
-0.034959
-0.035353
-0.034462
-0.032624
-0.030196
-0.027519
-0.024883
-0.022513
-0.020567
-0.019147
-0.018313
-0.018099
-0.018525
-0.019614
-0.021406
-0.023964
-0.027393
-0.033582
0.495990
0.496887
0.499283
0.502740
0.506346
0.508418
0.506065
0.494649
0.467245
0.414200
0.322759
0.176533
-0.044585
-0.319039
-0.363768
-0.356232
-0.376337
-0.422437
-0.478802
-0.519170
-0.522585
-0.495403
-0.443268
-0.375029
-0.299300
-0.223038
-0.151226
-0.087070
-0.032337
0.012299
0.046980
0.072315
0.088739
0.096201
0.099312
0.092499
0.077194
0.054317
0.024260
-0.012317
-0.053599
-0.096089
-0.134861
-0.164589
-0.179846
-0.177413
-0.165533
-0.147648
-0.126677
-0.104803
-0.083502
-0.063692
-0.045884
-0.030319
-0.017061
-0.006059
0.002811
0.009719
0.014846
0.018359
0.020401
0.021122
0.020731
0.019558
0.017962
0.016179
0.014644
0.013366
0.012336
0.011442
0.010493
0.009258
0.007503
0.005025
0.001681
-0.002579
-0.007676
-0.013385
-0.019332
-0.025025
-0.029930
-0.033579
-0.035260
-0.035371
-0.034357
-0.032537
-0.030252
-0.027818
-0.025498
-0.023490
-0.021932
-0.020914
-0.020491
-0.020701
-0.021574
-0.023151
-0.025494
-0.028702
-0.032929
-0.040546
0.482430
0.482568
0.482785
0.482603
0.481093
0.476678
0.466877
0.448042
0.415162
0.361868
0.280768
0.164897
0.013304
-0.150713
-0.239607
-0.286120
-0.325982
-0.368666
-0.408054
-0.429323
-0.429840
-0.408509
-0.368561
-0.315627
-0.255722
-0.194079
-0.134699
-0.080324
-0.032584
0.007783
0.040690
0.066390
0.085080
0.099158
0.106785
0.103283
0.089002
0.065147
0.033130
-0.005316
-0.047451
-0.089184
-0.125421
-0.151057
-0.159388
-0.156653
-0.146216
-0.131090
-0.113669
-0.095640
-0.078073
-0.061585
-0.046504
-0.032992
-0.021122
-0.010910
-0.002327
0.004695
0.010254
0.014461
0.017427
0.019273
0.020124
0.020261
0.019991
0.019581
0.018893
0.017954
0.016942
0.015871
0.014621
0.012991
0.010761
0.007739
0.003801
-0.001067
-0.006733
-0.012907
-0.019152
-0.024937
-0.029720
-0.032756
-0.034089
-0.034185
-0.033301
-0.031744
-0.029823
-0.027814
-0.025942
-0.024380
-0.023250
-0.022633
-0.022589
-0.023158
-0.024384
-0.026321
-0.029048
-0.032689
-0.037431
-0.045970
0.468627
0.468126
0.466540
0.463435
0.457991
0.448876
0.434118
0.411020
0.376175
0.325711
0.255936
0.164854
0.055609
-0.058168
-0.144988
-0.206901
-0.255463
-0.296319
-0.327806
-0.344572
-0.346114
-0.331613
-0.302980
-0.263790
-0.218155
-0.169913
-0.122208
-0.077343
-0.036816
-0.001433
0.028541
0.053213
0.072955
0.088190
0.096049
0.094662
0.083485
0.062899
0.034108
-0.000734
-0.038379
-0.074544
-0.104493
-0.122235
-0.128663
-0.127378
-0.120530
-0.110271
-0.098288
-0.085696
-0.073123
-0.060875
-0.049106
-0.037942
-0.027524
-0.018005
-0.009520
-0.002161
0.004036
0.009086
0.013027
0.015996
0.018236
0.019767
0.020668
0.021070
0.021050
0.020684
0.020050
0.019144
0.017873
0.016076
0.013565
0.010176
0.005822
0.000541
-0.005472
-0.011860
-0.018132
-0.023764
-0.027925
-0.030590
-0.031998
-0.032328
-0.031822
-0.030743
-0.029348
-0.027869
-0.026500
-0.025392
-0.024660
-0.024388
-0.024638
-0.025464
-0.026915
-0.029054
-0.031968
-0.035786
-0.040704
-0.049523
0.455760
0.454733
0.451691
0.446312
0.437952
0.425572
0.407695
0.382421
0.347539
0.300835
0.240676
0.167041
0.083138
-0.003134
-0.078657
-0.140045
-0.189523
-0.228975
-0.257939
-0.274701
-0.278805
-0.270294
-0.250587
-0.222126
-0.187802
-0.150448
-0.112508
-0.075880
-0.041889
-0.011343
0.015377
0.038184
0.057263
0.071563
0.079610
0.080133
0.072460
0.056706
0.033889
0.006057
-0.023702
-0.051500
-0.073250
-0.086766
-0.093696
-0.095321
-0.093204
-0.088791
-0.083125
-0.076761
-0.069839
-0.062284
-0.054033
-0.045179
-0.035992
-0.026831
-0.018065
-0.010010
-0.002868
0.003264
0.008419
0.012634
0.015920
0.018398
0.020161
0.021312
0.021941
0.022128
0.021921
0.021298
0.020165
0.018370
0.015750
0.012177
0.007607
0.002135
-0.003979
-0.010319
-0.016355
-0.021381
-0.025315
-0.028079
-0.029764
-0.030528
-0.030564
-0.030072
-0.029252
-0.028298
-0.027385
-0.026655
-0.026226
-0.026190
-0.026621
-0.027579
-0.029117
-0.031298
-0.034199
-0.037936
-0.042679
-0.051065
0.444808
0.443318
0.439061
0.431894
0.421384
0.406778
0.387012
0.360792
0.326730
0.283620
0.230869
0.169110
0.100909
0.031106
-0.033786
-0.090220
-0.137368
-0.175148
-0.203117
-0.220641
-0.227255
-0.223414
-0.210322
-0.189807
-0.164016
-0.135096
-0.104957
-0.075136
-0.046758
-0.020564
0.003013
0.023739
0.041444
0.055030
0.063595
0.066228
0.062352
0.051991
0.035969
0.016006
-0.005393
-0.025295
-0.041425
-0.053205
-0.060904
-0.065417
-0.067838
-0.069106
-0.069750
-0.069771
-0.068720
-0.065981
-0.061152
-0.054285
-0.045857
-0.036538
-0.027002
-0.017870
-0.009481
-0.002111
0.004205
0.009462
0.013714
0.017054
0.019581
0.021400
0.022606
0.023275
0.023444
0.023084
0.022102
0.020353
0.017692
0.014028
0.009346
0.003801
-0.002291
-0.008459
-0.014202
-0.019164
-0.023138
-0.026111
-0.028167
-0.029431
-0.030029
-0.030090
-0.029762
-0.029213
-0.028622
-0.028135
-0.027873
-0.027947
-0.028442
-0.029418
-0.030926
-0.033015
-0.035743
-0.039183
-0.043444
-0.050690
0.436629
0.434626
0.429208
0.420526
0.408373
0.392222
0.371319
0.344789
0.311774
0.271653
0.224330
0.170590
0.112410
0.052981
-0.003826
-0.055088
-0.099150
-0.135087
-0.162268
-0.180301
-0.188806
-0.188347
-0.179996
-0.165235
-0.145760
-0.123264
-0.099258
-0.074967
-0.051302
-0.028880
-0.008095
0.010785
0.027358
0.040703
0.050136
0.054957
0.054674
0.049247
0.039287
0.026117
0.011572
-0.002587
-0.015124
-0.025222
-0.033199
-0.039803
-0.045891
-0.052100
-0.058566
-0.064759
-0.069525
-0.071481
-0.069702
-0.064212
-0.055867
-0.045797
-0.034956
-0.024585
-0.015026
-0.006438
0.000996
0.007241
0.012352
0.016429
0.019591
0.021955
0.023628
0.024693
0.025180
0.025045
0.024196
0.022465
0.019719
0.015933
0.011058
0.005261
-0.001036
-0.007320
-0.013089
-0.018060
-0.022103
-0.025244
-0.027590
-0.029247
-0.030288
-0.030760
-0.030746
-0.030414
-0.029981
-0.029596
-0.029376
-0.029455
-0.029936
-0.030857
-0.032260
-0.034180
-0.036645
-0.039673
-0.043276
-0.048780
0.432182
0.429293
0.422456
0.412305
0.398793
0.381514
0.359893
0.333316
0.301249
0.263390
0.219874
0.171473
0.119742
0.066973
0.015847
-0.031247
-0.072519
-0.106712
-0.133093
-0.151259
-0.160977
-0.162812
-0.157744
-0.147057
-0.132174
-0.114486
-0.095212
-0.075323
-0.055523
-0.036283
-0.017881
-0.000450
0.015525
0.029109
0.039708
0.046655
0.049436
0.047915
0.042533
0.034380
0.024879
0.014600
0.005152
-0.003294
-0.011129
-0.019076
-0.027885
-0.038009
-0.049330
-0.060931
-0.071006
-0.077221
-0.077850
-0.072898
-0.063898
-0.052532
-0.041027
-0.029466
-0.018628
-0.008936
-0.000574
0.006437
0.012173
0.016759
0.020336
0.023044
0.025007
0.026327
0.027045
0.027067
0.026328
0.024550
0.021542
0.017251
0.011866
0.005674
-0.000922
-0.007410
-0.013299
-0.018282
-0.022272
-0.025371
-0.027750
-0.029549
-0.030832
-0.031562
-0.031703
-0.031397
-0.031004
-0.030640
-0.030466
-0.030562
-0.030989
-0.031822
-0.033102
-0.034838
-0.037026
-0.039636
-0.042595
-0.046188
0.433134
0.427799
0.418809
0.407069
0.392380
0.374248
0.352133
0.325569
0.294198
0.257888
0.216866
0.171851
0.124129
0.075504
0.028078
-0.016110
-0.055313
-0.088039
-0.113824
-0.131935
-0.142368
-0.145661
-0.142727
-0.134727
-0.122916
-0.108492
-0.092485
-0.075695
-0.058691
-0.041856
-0.025422
-0.009361
0.006351
0.020514
0.032481
0.041404
0.046618
0.047849
0.045414
0.040516
0.033677
0.026184
0.018765
0.011424
0.003728
-0.004998
-0.015402
-0.027809
-0.041985
-0.056932
-0.070661
-0.080207
-0.082635
-0.077071
-0.067756
-0.056447
-0.043823
-0.031312
-0.019699
-0.009389
-0.000540
0.006848
0.012869
0.017660
0.021377
0.024170
0.026184
0.027548
0.028408
0.028497
0.027503
0.025399
0.022132
0.017620
0.011962
0.005454
-0.001438
-0.008137
-0.014111
-0.019032
-0.022851
-0.025732
-0.027903
-0.029528
-0.030793
-0.031625
-0.032026
-0.032024
-0.031663
-0.031273
-0.031056
-0.031122
-0.031529
-0.032321
-0.033517
-0.035117
-0.037095
-0.039397
-0.041931
-0.044377
0.443979
0.429807
0.417709
0.404589
0.389050
0.370339
0.347934
0.321396
0.290434
0.254978
0.215272
0.171983
0.126251
0.079658
0.034058
-0.008691
-0.046992
-0.079725
-0.105373
-0.123497
-0.134245
-0.138161
-0.136120
-0.129218
-0.118631
-0.105475
-0.090711
-0.075083
-0.059123
-0.043204
-0.027614
-0.012666
0.001776
0.016231
0.029133
0.039240
0.045705
0.048137
0.046678
0.041865
0.035531
0.028873
0.022127
0.015219
0.007730
-0.000963
-0.011442
-0.023965
-0.038235
-0.053225
-0.067059
-0.077093
-0.080797
-0.077797
-0.068377
-0.056406
-0.043619
-0.031059
-0.019407
-0.009053
-0.000158
0.007268
0.013313
0.018110
0.021808
0.024557
0.026497
0.027737
0.028240
0.028097
0.027043
0.024900
0.021595
0.017105
0.011541
0.005181
-0.001536
-0.008077
-0.013949
-0.018832
-0.022658
-0.025563
-0.027773
-0.029498
-0.030724
-0.031541
-0.031954
-0.031992
-0.031739
-0.031424
-0.031246
-0.031332
-0.031747
-0.032527
-0.033688
-0.035221
-0.037094
-0.039247
-0.041596
-0.043899
