# vtk DataFile Version 3.0
Vector Field
ASCII
DATASET RECTILINEAR_GRID
DIMENSIONS 100 26 1
X_COORDINATES 100 double
0.050000 0.150000 0.250000 0.350000 0.450000 0.550000 0.650000 0.750000 0.850000 0.950000 1.050000 1.150000 1.250000 1.350000 1.450000 1.550000 1.650000 1.750000 1.850000 1.950000 2.050000 2.150000 2.250000 2.350000 2.450000 2.550000 2.650000 2.750000 2.850000 2.950000 3.050000 3.150000 3.250000 3.350000 3.450000 3.550000 3.650000 3.750000 3.850000 3.950000 4.050000 4.150000 4.250000 4.350000 4.450000 4.550000 4.650000 4.750000 4.850000 4.950000 5.050000 5.150000 5.250000 5.350000 5.450000 5.550000 5.650000 5.750000 5.850000 5.950000 6.050000 6.150000 6.250000 6.350000 6.450000 6.550000 6.650000 6.750000 6.850000 6.950000 7.050000 7.150000 7.250000 7.350000 7.450000 7.550000 7.650000 7.750000 7.850000 7.950000 8.050000 8.150000 8.250000 8.350000 8.450000 8.550000 8.650000 8.750000 8.850000 8.950000 9.050000 9.150000 9.250000 9.350000 9.450000 9.550000 9.650000 9.750000 9.850000 9.950000 
Y_COORDINATES 26 double
0.050000 0.150000 0.250000 0.350000 0.450000 0.550000 0.650000 0.750000 0.850000 0.950000 1.050000 1.150000 1.250000 1.350000 1.450000 1.550000 1.650000 1.750000 1.850000 1.950000 2.050000 2.150000 2.250000 2.350000 2.450000 2.550000 
Z_COORDINATES 1 double
0.0
POINT_DATA 2600
VECTORS Vektorfeld double
0.997741 0.002259 0.0
0.993293 0.002190 0.0
0.990576 0.000526 0.0
0.991871 -0.001821 0.0
0.998126 -0.004433 0.0
1.009584 -0.007025 0.0
1.025928 -0.009318 0.0
1.046269 -0.011023 0.0
1.069169 -0.011877 0.0
1.092747 -0.011702 0.0
1.114932 -0.010482 0.0
1.133761 -0.008347 0.0
1.147621 -0.005513 0.0
1.155383 -0.002249 0.0
1.156588 0.001044 0.0
1.151180 0.004364 0.0
1.139173 0.007643 0.0
1.120773 0.010757 0.0
1.096442 0.013575 0.0
1.066893 0.015973 0.0
1.033082 0.017839 0.0
0.996165 0.019078 0.0
0.957465 0.019622 0.0
0.918407 0.019435 0.0
0.880457 0.018515 0.0
0.845041 0.016901 0.0
0.813467 0.014673 0.0
0.786836 0.011958 0.0
0.765955 0.008922 0.0
0.751252 0.005781 0.0
0.742672 0.002800 0.0
0.739742 0.000130 0.0
0.741329 -0.001718 0.0
0.745365 -0.002318 0.0
0.749422 -0.001738 0.0
0.751290 -0.000130 0.0
0.748740 0.002680 0.0
0.739674 0.006386 0.0
0.722734 0.010554 0.0
0.697419 0.014761 0.0
0.664032 0.018625 0.0
0.623588 0.021820 0.0
0.577680 0.024088 0.0
0.528354 0.025238 0.0
0.478029 0.025087 0.0
0.429660 0.023282 0.0
0.387180 0.019198 0.0
0.355522 0.012461 0.0
0.338893 0.004167 0.0
0.337145 -0.002418 0.0
0.344981 -0.005419 0.0
0.357035 -0.006635 0.0
0.370709 -0.007039 0.0
0.384612 -0.006864 0.0
0.397730 -0.006253 0.0
0.409320 -0.005337 0.0
0.418894 -0.004237 0.0
0.426200 -0.003069 0.0
0.431213 -0.001943 0.0
0.434116 -0.000960 0.0
0.435214 -0.000138 0.0
0.434500 0.000851 0.0
0.431444 0.002204 0.0
0.425449 0.003791 0.0
0.416285 0.005374 0.0
0.404197 0.006714 0.0
0.389970 0.007513 0.0
0.374943 0.007513 0.0
0.360742 0.006688 0.0
0.348692 0.005362 0.0
0.339244 0.004086 0.0
0.331829 0.003329 0.0
0.325287 0.003213 0.0
0.318590 0.003483 0.0
0.311386 0.003721 0.0
0.304044 0.003621 0.0
0.297285 0.003137 0.0
0.291707 0.002441 0.0
0.287509 0.001756 0.0
0.284536 0.001217 0.0
0.282493 0.000825 0.0
0.281088 0.000580 0.0
0.280008 0.000500 0.0
0.278917 0.000591 0.0
0.277497 0.000829 0.0
0.275544 0.001124 0.0
0.273049 0.001371 0.0
0.270174 0.001504 0.0
0.267109 0.001561 0.0
0.263925 0.001623 0.0
0.260543 0.001758 0.0
0.256801 0.001985 0.0
0.252552 0.002265 0.0
0.247768 0.002519 0.0
0.242587 0.002662 0.0
0.237306 0.002619 0.0
0.232356 0.002330 0.0
0.228291 0.001735 0.0
0.225689 0.000867 0.0
0.224967 -0.000146 0.0
1.003033 0.001484 0.0
1.011868 -0.001421 0.0
1.025717 -0.006996 0.0
1.044033 -0.013910 0.0
1.066816 -0.021381 0.0
1.094015 -0.028736 0.0
1.125299 -0.035235 0.0
1.159911 -0.040060 0.0
1.196603 -0.042431 0.0
1.233668 -0.041792 0.0
1.269198 -0.038107 0.0
1.301455 -0.031808 0.0
1.329100 -0.023557 0.0
1.351179 -0.014047 0.0
1.366798 -0.003982 0.0
1.375318 0.006277 0.0
1.376637 0.016417 0.0
1.370972 0.026048 0.0
1.358802 0.034785 0.0
1.340864 0.042250 0.0
1.318138 0.048099 0.0
1.291823 0.052049 0.0
1.263282 0.053892 0.0
1.233988 0.053517 0.0
1.205449 0.050922 0.0
1.179135 0.046224 0.0
1.156388 0.039671 0.0
1.138336 0.031643 0.0
1.125808 0.022646 0.0
1.119262 0.013307 0.0
1.118777 0.004339 0.0
1.123755 -0.003457 0.0
1.132911 -0.008874 0.0
1.144674 -0.010961 0.0
1.156895 -0.009374 0.0
1.166716 -0.004184 0.0
1.171608 0.004393 0.0
1.169719 0.015628 0.0
1.159675 0.028296 0.0
1.140889 0.041121 0.0
1.113593 0.052948 0.0
1.078734 0.062802 0.0
1.037849 0.069898 0.0
0.992980 0.073622 0.0
0.946609 0.073399 0.0
0.901475 0.068472 0.0
0.859943 0.058019 0.0
0.822883 0.042358 0.0
0.789319 0.024463 0.0
0.759430 0.008923 0.0
0.737493 -0.002660 0.0
0.726992 -0.010945 0.0
0.726525 -0.015936 0.0
0.733108 -0.018453 0.0
0.744538 -0.019211 0.0
0.759301 -0.018732 0.0
0.776290 -0.017404 0.0
0.794579 -0.015498 0.0
0.813223 -0.013172 0.0
0.831062 -0.010474 0.0
0.846644 -0.007303 0.0
0.858775 -0.003401 0.0
0.867186 0.001102 0.0
0.872240 0.005834 0.0
0.874319 0.010416 0.0
0.873704 0.014374 0.0
0.870545 0.017239 0.0
0.864677 0.018683 0.0
0.855573 0.018824 0.0
0.842532 0.018317 0.0
0.825105 0.018006 0.0
0.803562 0.018368 0.0
0.779077 0.019201 0.0
0.753561 0.019708 0.0
0.729270 0.018991 0.0
0.708353 0.016611 0.0
0.692391 0.012867 0.0
0.682057 0.008624 0.0
0.677019 0.004809 0.0
0.676186 0.001973 0.0
0.678076 0.000222 0.0
0.681316 -0.000653 0.0
0.685027 -0.000898 0.0
0.688780 -0.000672 0.0
0.692374 -0.000082 0.0
0.695718 0.000643 0.0
0.698742 0.001322 0.0
0.701189 0.001980 0.0
0.702595 0.002744 0.0
0.702485 0.003735 0.0
0.700545 0.004967 0.0
0.696698 0.006365 0.0
0.691089 0.007742 0.0
0.684058 0.008856 0.0
0.676084 0.009480 0.0
0.667721 0.009445 0.0
0.659540 0.008635 0.0
0.652081 0.006954 0.0
0.645901 0.004430 0.0
0.643120 -0.000207 0.0
1.001939 -0.003488 0.0
1.008928 -0.012273 0.0
1.021774 -0.022839 0.0
1.040042 -0.034651 0.0
1.063693 -0.047073 0.0
1.092726 -0.059276 0.0
1.126901 -0.070153 0.0
1.165479 -0.078332 0.0
1.207021 -0.082392 0.0
1.249287 -0.081163 0.0
1.289673 -0.074651 0.0
1.325986 -0.063835 0.0
1.356797 -0.049987 0.0
1.381329 -0.034227 0.0
1.399254 -0.017346 0.0
1.410472 -0.000096 0.0
1.415012 0.016931 0.0
1.413095 0.033116 0.0
1.405138 0.047844 0.0
1.391770 0.060498 0.0
1.373832 0.070515 0.0
1.352353 0.077428 0.0
1.328501 0.080906 0.0
1.303529 0.080769 0.0
1.278722 0.077016 0.0
1.255332 0.069834 0.0
1.234528 0.059612 0.0
1.217346 0.046936 0.0
1.204651 0.032576 0.0
1.197125 0.017449 0.0
1.195212 0.002595 0.0
1.199131 -0.010609 0.0
1.208853 -0.020601 0.0
1.223724 -0.025869 0.0
1.242137 -0.025100 0.0
1.261575 -0.017716 0.0
1.278973 -0.004365 0.0
1.291673 0.013575 0.0
1.297905 0.034161 0.0
1.296656 0.055290 0.0
1.287657 0.075073 0.0
1.271279 0.091915 0.0
1.248419 0.104529 0.0
1.220383 0.111897 0.0
1.188701 0.113178 0.0
1.154818 0.107710 0.0
1.119700 0.095432 0.0
1.083868 0.077837 0.0
1.048290 0.058126 0.0
1.014608 0.038831 0.0
0.983428 0.020550 0.0
0.955062 0.004711 0.0
0.931791 -0.007854 0.0
0.915705 -0.017032 0.0
0.906714 -0.023072 0.0
0.903793 -0.026713 0.0
0.905921 -0.028539 0.0
0.912194 -0.028925 0.0
0.921848 -0.028043 0.0
0.934294 -0.025889 0.0
0.949183 -0.022360 0.0
0.966285 -0.017577 0.0
0.985100 -0.011949 0.0
1.004815 -0.005883 0.0
1.024594 0.000275 0.0
1.043573 0.006151 0.0
1.060713 0.011481 0.0
1.074783 0.016239 0.0
1.084512 0.020642 0.0
1.088893 0.025158 0.0
1.087394 0.030090 0.0
1.080118 0.035104 0.0
1.067678 0.039389 0.0
1.050888 0.041827 0.0
1.030520 0.041530 0.0
1.007203 0.038306 0.0
0.981537 0.032799 0.0
0.954419 0.026144 0.0
0.927384 0.019362 0.0
0.902649 0.012988 0.0
0.882726 0.007239 0.0
0.869500 0.002316 0.0
0.863316 -0.001394 0.0
0.862976 -0.003589 0.0
0.866712 -0.004494 0.0
0.872954 -0.004531 0.0
0.880316 -0.003889 0.0
0.887578 -0.002518 0.0
0.893824 -0.000411 0.0
0.898490 0.002335 0.0
0.901268 0.005528 0.0
0.902084 0.008836 0.0
0.901130 0.011835 0.0
0.898816 0.014108 0.0
0.895682 0.015335 0.0
0.892311 0.015323 0.0
0.889264 0.013985 0.0
0.887058 0.011270 0.0
0.886228 0.007124 0.0
0.886974 -0.000867 0.0
1.001556 -0.006982 0.0
1.007640 -0.021854 0.0
1.019608 -0.038072 0.0
1.037490 -0.055568 0.0
1.061578 -0.073895 0.0
1.092240 -0.092147 0.0
1.129618 -0.108835 0.0
1.173201 -0.121812 0.0
1.221424 -0.128677 0.0
1.270996 -0.126717 0.0
1.317755 -0.116241 0.0
1.358694 -0.099497 0.0
1.392411 -0.078853 0.0
1.418530 -0.056011 0.0
1.437072 -0.032030 0.0
1.448146 -0.007704 0.0
1.451957 0.016188 0.0
1.448833 0.038901 0.0
1.439245 0.059604 0.0
1.423913 0.077439 0.0
1.403797 0.091628 0.0
1.380038 0.101553 0.0
1.353883 0.106788 0.0
1.326622 0.107119 0.0
1.299541 0.102555 0.0
1.273886 0.093340 0.0
1.250834 0.079961 0.0
1.231474 0.063130 0.0
1.216799 0.043752 0.0
1.207742 0.022855 0.0
1.205243 0.001600 0.0
1.210158 -0.018448 0.0
1.222859 -0.035184 0.0
1.242761 -0.046058 0.0
1.268086 -0.048649 0.0
1.295966 -0.041486 0.0
1.322836 -0.024865 0.0
1.345253 -0.001042 0.0
1.361039 0.026761 0.0
1.369463 0.055515 0.0
1.370583 0.082728 0.0
1.364873 0.106348 0.0
1.353052 0.124776 0.0
1.335926 0.136812 0.0
1.314261 0.141611 0.0
1.288644 0.138778 0.0
1.259441 0.128684 0.0
1.227045 0.112813 0.0
1.192295 0.093478 0.0
1.156547 0.072908 0.0
1.121377 0.052823 0.0
1.088086 0.034095 0.0
1.057130 0.016989 0.0
1.029083 0.002257 0.0
1.005497 -0.009785 0.0
0.987499 -0.019081 0.0
0.975021 -0.025821 0.0
0.967476 -0.030371 0.0
0.964210 -0.032984 0.0
0.964706 -0.033889 0.0
0.968784 -0.033326 0.0
0.976665 -0.031593 0.0
0.988915 -0.028997 0.0
1.006198 -0.025832 0.0
1.028873 -0.022231 0.0
1.056590 -0.018038 0.0
1.088010 -0.012891 0.0
1.120822 -0.006271 0.0
1.152006 0.002238 0.0
1.178595 0.012592 0.0
1.198727 0.024023 0.0
1.211809 0.035366 0.0
1.217767 0.045609 0.0
1.216643 0.053521 0.0
1.208609 0.058237 0.0
1.194023 0.059503 0.0
1.173616 0.057675 0.0
1.148628 0.053374 0.0
1.120679 0.047117 0.0
1.091398 0.039249 0.0
1.062105 0.030194 0.0
1.033945 0.020747 0.0
1.008429 0.011876 0.0
0.987583 0.004327 0.0
0.972971 -0.001532 0.0
0.964579 -0.005343 0.0
0.961041 -0.006901 0.0
0.960605 -0.006331 0.0
0.961678 -0.003917 0.0
0.962916 -0.000061 0.0
0.963342 0.004719 0.0
0.962463 0.009708 0.0
0.960257 0.014123 0.0
0.957103 0.017287 0.0
0.953651 0.018742 0.0
0.950657 0.018282 0.0
0.948820 0.015910 0.0
0.948636 0.011736 0.0
0.950233 0.005891 0.0
0.952670 -0.002817 0.0
1.001361 -0.009899 0.0
1.006846 -0.030507 0.0
1.018010 -0.052550 0.0
1.035328 -0.076291 0.0
1.059609 -0.101541 0.0
1.091887 -0.127440 0.0
1.133113 -0.152147 0.0
1.183450 -0.172421 0.0
1.241735 -0.184574 0.0
1.302442 -0.181099 0.0
1.357797 -0.163972 0.0
1.403760 -0.138669 0.0
1.439794 -0.109433 0.0
1.466730 -0.078485 0.0
1.485348 -0.046715 0.0
1.495924 -0.014670 0.0
1.498537 0.016729 0.0
1.493349 0.046672 0.0
1.480742 0.074027 0.0
1.461500 0.097590 0.0
1.436767 0.116324 0.0
1.407927 0.129456 0.0
1.376466 0.136500 0.0
1.343896 0.137238 0.0
1.311698 0.131715 0.0
1.281299 0.120235 0.0
1.254047 0.103370 0.0
1.231187 0.081941 0.0
1.213839 0.056965 0.0
1.203022 0.029516 0.0
1.199781 0.000679 0.0
1.205164 -0.027826 0.0
1.219794 -0.053138 0.0
1.243339 -0.071552 0.0
1.274305 -0.079446 0.0
1.310002 -0.074266 0.0
1.346504 -0.055458 0.0
1.378944 -0.025305 0.0
1.403065 0.011117 0.0
1.417440 0.048359 0.0
1.422987 0.083218 0.0
1.421100 0.113453 0.0
1.413083 0.137509 0.0
1.399936 0.154352 0.0
1.382286 0.163385 0.0
1.360423 0.164484 0.0
1.334444 0.158160 0.0
1.304528 0.145650 0.0
1.271208 0.128712 0.0
1.235444 0.109186 0.0
1.198492 0.088667 0.0
1.161682 0.068353 0.0
1.126270 0.049100 0.0
1.093211 0.031253 0.0
1.062969 0.015047 0.0
1.036029 0.001025 0.0
1.013013 -0.010434 0.0
0.993923 -0.019123 0.0
0.978121 -0.025164 0.0
0.965049 -0.029134 0.0
0.954740 -0.031850 0.0
0.947964 -0.034177 0.0
0.946130 -0.036829 0.0
0.950927 -0.040080 0.0
0.963801 -0.043533 0.0
0.985494 -0.046144 0.0
1.015828 -0.046539 0.0
1.053751 -0.043356 0.0
1.097423 -0.035533 0.0
1.144018 -0.022821 0.0
1.189312 -0.005991 0.0
1.228371 0.013240 0.0
1.257976 0.032173 0.0
1.277464 0.048593 0.0
1.287099 0.061563 0.0
1.287333 0.070530 0.0
1.278977 0.075410 0.0
1.263212 0.076392 0.0
1.241477 0.073783 0.0
1.215319 0.068021 0.0
1.186307 0.059728 0.0
1.156016 0.049664 0.0
1.125910 0.038581 0.0
1.097130 0.027247 0.0
1.070557 0.016733 0.0
1.047119 0.008222 0.0
1.027615 0.002576 0.0
1.012034 0.000208 0.0
0.999379 0.001125 0.0
0.988198 0.004840 0.0
0.977233 0.010357 0.0
0.965806 0.016377 0.0
0.953892 0.021575 0.0
0.942011 0.024871 0.0
0.931014 0.025608 0.0
0.921826 0.023599 0.0
0.915195 0.019060 0.0
0.911496 0.012470 0.0
0.910613 0.004443 0.0
0.911816 -0.005009 0.0
1.001165 -0.012424 0.0
1.005935 -0.038236 0.0
1.015890 -0.065939 0.0
1.031896 -0.096226 0.0
1.055380 -0.129372 0.0
1.088359 -0.164867 0.0
1.133230 -0.200816 0.0
1.191775 -0.232635 0.0
1.265180 -0.256050 0.0
1.342229 -0.247379 0.0
1.406476 -0.217292 0.0
1.454275 -0.179112 0.0
1.488710 -0.139459 0.0
1.513526 -0.100210 0.0
1.530882 -0.060964 0.0
1.540976 -0.021091 0.0
1.542992 0.018522 0.0
1.536283 0.056776 0.0
1.520862 0.091950 0.0
1.497513 0.122259 0.0
1.467614 0.146287 0.0
1.432852 0.163095 0.0
1.395018 0.172155 0.0
1.355898 0.173273 0.0
1.317230 0.166546 0.0
1.280686 0.152348 0.0
1.247844 0.131351 0.0
1.220128 0.104536 0.0
1.198694 0.073153 0.0
1.184279 0.038559 0.0
1.177220 0.001936 0.0
1.178023 -0.035270 0.0
1.187475 -0.069775 0.0
1.206031 -0.097015 0.0
1.233724 -0.112641 0.0
1.270060 -0.113103 0.0
1.313120 -0.096182 0.0
1.358347 -0.062248 0.0
1.398275 -0.015990 0.0
1.426130 0.033236 0.0
1.440791 0.078133 0.0
1.444901 0.116316 0.0
1.440940 0.146624 0.0
1.430755 0.168569 0.0
1.415493 0.182079 0.0
1.395724 0.187423 0.0
1.371670 0.185254 0.0
1.343498 0.176643 0.0
1.311563 0.162974 0.0
1.276525 0.145725 0.0
1.239327 0.126278 0.0
1.201089 0.105790 0.0
1.162993 0.085171 0.0
1.126137 0.065097 0.0
1.091385 0.046198 0.0
1.059107 0.029092 0.0
1.029005 0.014618 0.0
1.000343 0.003577 0.0
0.972333 -0.004052 0.0
0.944564 -0.009405 0.0
0.917787 -0.014491 0.0
0.894384 -0.021358 0.0
0.877700 -0.031130 0.0
0.870743 -0.043619 0.0
0.875227 -0.057353 0.0
0.891323 -0.070112 0.0
0.918081 -0.079664 0.0
0.954059 -0.084132 0.0
0.997717 -0.082089 0.0
1.047491 -0.072633 0.0
1.101589 -0.055572 0.0
1.157342 -0.031992 0.0
1.209858 -0.004716 0.0
1.253127 0.022725 0.0
1.284138 0.046785 0.0
1.303082 0.066130 0.0
1.310883 0.080365 0.0
1.308703 0.089382 0.0
1.297909 0.093321 0.0
1.279998 0.092553 0.0
1.256535 0.087672 0.0
1.229095 0.079450 0.0
1.199193 0.068802 0.0
1.168207 0.056792 0.0
1.137316 0.044651 0.0
1.107377 0.033682 0.0
1.078778 0.025219 0.0
1.051501 0.020423 0.0
1.025281 0.019786 0.0
0.999793 0.022848 0.0
0.974857 0.028250 0.0
0.950629 0.034138 0.0
0.927694 0.038663 0.0
0.906957 0.040402 0.0
0.889405 0.038625 0.0
0.875845 0.033329 0.0
0.866694 0.025110 0.0
0.861874 0.014940 0.0
0.860786 0.003944 0.0
0.862149 -0.007076 0.0
1.000885 -0.014475 0.0
1.004558 -0.044629 0.0
1.012429 -0.077371 0.0
1.025637 -0.114008 0.0
1.046189 -0.155626 0.0
1.077286 -0.202689 0.0
1.123582 -0.254161 0.0
1.190274 -0.304527 0.0
1.286291 -0.353579 0.0
1.384566 -0.325175 0.0
1.449756 -0.268932 0.0
1.487191 -0.212705 0.0
1.509552 -0.162661 0.0
1.525433 -0.117704 0.0
1.538817 -0.074210 0.0
1.549302 -0.028423 0.0
1.553357 0.019782 0.0
1.547925 0.067657 0.0
1.532195 0.112220 0.0
1.506876 0.150658 0.0
1.473607 0.181055 0.0
1.434381 0.202315 0.0
1.391238 0.213912 0.0
1.346172 0.215702 0.0
1.301124 0.207835 0.0
1.257975 0.190751 0.0
1.218514 0.165250 0.0
1.184306 0.132561 0.0
1.156448 0.094421 0.0
1.135067 0.053088 0.0
1.118701 0.010833 0.0
1.105642 -0.031911 0.0
1.096653 -0.073597 0.0
1.094666 -0.109762 0.0
1.103456 -0.136379 0.0
1.126710 -0.148956 0.0
1.166036 -0.142715 0.0
1.219480 -0.114386 0.0
1.280525 -0.064825 0.0
1.336963 -0.002221 0.0
1.377748 0.058144 0.0
1.401685 0.108258 0.0
1.412717 0.147612 0.0
1.413868 0.176615 0.0
1.407193 0.195970 0.0
1.393989 0.206505 0.0
1.375051 0.209163 0.0
1.350936 0.205022 0.0
1.322187 0.195279 0.0
1.289475 0.181169 0.0
1.253643 0.163864 0.0
1.215678 0.144405 0.0
1.176639 0.123690 0.0
1.137507 0.102565 0.0
1.098940 0.082049 0.0
1.060935 0.063523 0.0
1.022645 0.048579 0.0
0.982756 0.038167 0.0
0.940597 0.031527 0.0
0.897509 0.025872 0.0
0.857162 0.017358 0.0
0.824256 0.003102 0.0
0.802819 -0.017467 0.0
0.794975 -0.042481 0.0
0.800440 -0.068442 0.0
0.817329 -0.092009 0.0
0.843516 -0.110711 0.0
0.877304 -0.122851 0.0
0.917515 -0.127238 0.0
0.963293 -0.123035 0.0
1.013836 -0.109811 0.0
1.068067 -0.087737 0.0
1.124350 -0.057769 0.0
1.179538 -0.022679 0.0
1.227825 0.012891 0.0
1.264429 0.044476 0.0
1.288566 0.070081 0.0
1.301095 0.089318 0.0
1.303144 0.102129 0.0
1.296034 0.108765 0.0
1.281199 0.109759 0.0
1.260107 0.105894 0.0
1.234189 0.098178 0.0
1.204756 0.087836 0.0
1.172922 0.076330 0.0
1.139547 0.065318 0.0
1.105226 0.056503 0.0
1.070373 0.051269 0.0
1.035347 0.050185 0.0
1.000598 0.052686 0.0
0.966797 0.057149 0.0
0.934897 0.061366 0.0
0.906054 0.063213 0.0
0.881414 0.061229 0.0
0.861858 0.054906 0.0
0.847802 0.044665 0.0
0.839117 0.031610 0.0
0.835162 0.017216 0.0
0.834855 0.003063 0.0
0.836682 -0.009385 0.0
1.000477 -0.015836 0.0
1.002500 -0.048964 0.0
1.007035 -0.085443 0.0
1.015227 -0.127336 0.0
1.029307 -0.176930 0.0
1.053409 -0.236585 0.0
1.094895 -0.308047 0.0
1.165147 -0.387585 0.0
1.292164 -0.493555 0.0
1.408571 -0.399882 0.0
1.446501 -0.297345 0.0
1.447330 -0.222555 0.0
1.439750 -0.167592 0.0
1.435586 -0.124490 0.0
1.440049 -0.085271 0.0
1.452833 -0.040632 0.0
1.465752 0.015016 0.0
1.469404 0.074204 0.0
1.460665 0.130139 0.0
1.440340 0.178384 0.0
1.410352 0.216587 0.0
1.372753 0.243608 0.0
1.329542 0.258974 0.0
1.282660 0.262587 0.0
1.234038 0.254621 0.0
1.185592 0.235559 0.0
1.139127 0.206369 0.0
1.096065 0.168712 0.0
1.057049 0.125143 0.0
1.021452 0.079344 0.0
0.986846 0.035549 0.0
0.948816 -0.005537 0.0
0.907552 -0.049719 0.0
0.873339 -0.097438 0.0
0.858627 -0.142781 0.0
0.869533 -0.176713 0.0
0.905765 -0.190515 0.0
0.963757 -0.178022 0.0
1.038540 -0.137018 0.0
1.123036 -0.070962 0.0
1.202877 0.006259 0.0
1.263943 0.075139 0.0
1.304813 0.128829 0.0
1.329989 0.169071 0.0
1.342569 0.197609 0.0
1.344680 0.215959 0.0
1.337857 0.225470 0.0
1.323291 0.227396 0.0
1.302011 0.222934 0.0
1.275005 0.213231 0.0
1.243283 0.199356 0.0
1.207871 0.182290 0.0
1.169729 0.162987 0.0
1.129536 0.142594 0.0
1.087334 0.122790 0.0
1.042291 0.105832 0.0
0.993139 0.093711 0.0
0.939619 0.086444 0.0
0.884136 0.080890 0.0
0.832025 0.071707 0.0
0.789628 0.054267 0.0
0.761539 0.027188 0.0
0.748929 -0.007506 0.0
0.749933 -0.045602 0.0
0.761495 -0.082348 0.0
0.780927 -0.114424 0.0
0.806380 -0.139935 0.0
0.836763 -0.157799 0.0
0.871539 -0.167276 0.0
0.910500 -0.167737 0.0
0.953527 -0.158679 0.0
1.000333 -0.139905 0.0
1.050234 -0.111784 0.0
1.101947 -0.075566 0.0
1.153212 -0.033775 0.0
1.199313 0.008437 0.0
1.235447 0.045849 0.0
1.260174 0.076294 0.0
1.273930 0.099348 0.0
1.277566 0.115020 0.0
1.272188 0.123718 0.0
1.259021 0.126195 0.0
1.239302 0.123514 0.0
1.214202 0.117034 0.0
1.184757 0.108410 0.0
1.151853 0.099516 0.0
1.116265 0.092214 0.0
1.078748 0.087927 0.0
1.040169 0.087132 0.0
1.001605 0.089053 0.0
0.964378 0.091811 0.0
0.929964 0.093018 0.0
0.899788 0.090581 0.0
0.874962 0.083329 0.0
0.856076 0.071248 0.0
0.843129 0.055326 0.0
0.835579 0.037183 0.0
0.832481 0.018697 0.0
0.832620 0.001749 0.0
0.834654 -0.011931 0.0
0.999936 -0.016248 0.0
0.999737 -0.050376 0.0
0.999597 -0.088427 0.0
1.000206 -0.133152 0.0
1.003180 -0.188168 0.0
1.012242 -0.258511 0.0
1.035955 -0.351321 0.0
1.093257 -0.471866 0.0
1.247295 -0.690329 0.0
1.351053 -0.423273 0.0
1.301912 -0.262743 0.0
1.231158 -0.187233 0.0
1.176976 -0.141152 0.0
1.141854 -0.111645 0.0
1.129632 -0.090357 0.0
1.143875 -0.062573 0.0
1.178052 -0.010139 0.0
1.210741 0.063019 0.0
1.227534 0.133271 0.0
1.229419 0.193693 0.0
1.218665 0.242020 0.0
1.197034 0.277404 0.0
1.165967 0.299456 0.0
1.126911 0.308042 0.0
1.081430 0.303269 0.0
1.031063 0.285723 0.0
0.976699 0.257034 0.0
0.917286 0.220523 0.0
0.849088 0.180545 0.0
0.769060 0.139568 0.0
0.682767 0.096224 0.0
0.607456 0.047129 0.0
0.559585 -0.013251 0.0
0.544598 -0.084707 0.0
0.558419 -0.154623 0.0
0.593252 -0.210610 0.0
0.643988 -0.243586 0.0
0.708662 -0.247617 0.0
0.786467 -0.220010 0.0
0.876075 -0.162073 0.0
0.973957 -0.080353 0.0
1.067321 0.007321 0.0
1.141556 0.081543 0.0
1.194803 0.137934 0.0
1.231192 0.179777 0.0
1.253404 0.209468 0.0
1.263371 0.228816 0.0
1.262672 0.239315 0.0
1.252695 0.242272 0.0
1.234724 0.238870 0.0
1.209959 0.230204 0.0
1.179477 0.217336 0.0
1.144088 0.201472 0.0
1.104068 0.184321 0.0
1.058985 0.168347 0.0
1.008082 0.156223 0.0
0.951549 0.149005 0.0
0.892113 0.144107 0.0
0.835391 0.135432 0.0
0.788084 0.116585 0.0
0.755102 0.084768 0.0
0.737862 0.042014 0.0
0.734727 -0.006588 0.0
0.742396 -0.055193 0.0
0.757476 -0.099399 0.0
0.777503 -0.136833 0.0
0.800961 -0.166437 0.0
0.827063 -0.187782 0.0
0.855592 -0.200597 0.0
0.886730 -0.204516 0.0
0.920852 -0.199049 0.0
0.958258 -0.183747 0.0
0.998927 -0.158512 0.0
1.042328 -0.123953 0.0
1.087322 -0.081647 0.0
1.131969 -0.034439 0.0
1.172281 0.012279 0.0
1.204203 0.053215 0.0
1.226319 0.086556 0.0
1.238667 0.111827 0.0
1.241789 0.129166 0.0
1.236502 0.139200 0.0
1.223751 0.142978 0.0
1.204494 0.141928 0.0
1.179649 0.137808 0.0
1.150091 0.132580 0.0
1.116715 0.128115 0.0
1.080534 0.125724 0.0
1.042782 0.125666 0.0
1.004952 0.126913 0.0
0.968718 0.127412 0.0
0.935744 0.124805 0.0
0.907422 0.117292 0.0
0.884652 0.104214 0.0
0.867741 0.086159 0.0
0.856440 0.064664 0.0
0.850070 0.041765 0.0
0.847667 0.019616 0.0
0.848118 0.000239 0.0
0.850316 -0.014654 0.0
0.999316 -0.015500 0.0
0.996541 -0.048150 0.0
0.990834 -0.084806 0.0
0.981912 -0.128461 0.0
0.969566 -0.183487 0.0
0.954337 -0.257024 0.0
0.939826 -0.362009 0.0
0.941278 -0.519932 0.0
1.042426 -0.897449 0.0
1.036232 -0.206642 0.0
0.836819 -0.111795 0.0
0.685991 -0.104650 0.0
0.601218 -0.084780 0.0
0.548986 -0.080662 0.0
0.535627 -0.095759 0.0
0.567239 -0.103026 0.0
0.638007 -0.074631 0.0
0.727497 0.005332 0.0
0.803620 0.098042 0.0
0.854603 0.176053 0.0
0.885292 0.239726 0.0
0.897481 0.289140 0.0
0.892212 0.324056 0.0
0.870354 0.344356 0.0
0.832408 0.350382 0.0
0.777942 0.343444 0.0
0.705453 0.326166 0.0
0.614767 0.301491 0.0
0.512745 0.269797 0.0
0.416456 0.226634 0.0
0.346325 0.165581 0.0
0.314281 0.085126 0.0
0.319016 -0.008113 0.0
0.347610 -0.103452 0.0
0.386593 -0.188681 0.0
0.430924 -0.255715 0.0
0.480747 -0.299040 0.0
0.538211 -0.314300 0.0
0.605698 -0.298618 0.0
0.684533 -0.251908 0.0
0.774241 -0.178108 0.0
0.871828 -0.085876 0.0
0.965644 0.006689 0.0
1.042146 0.083038 0.0
1.099173 0.141258 0.0
1.139895 0.185053 0.0
1.166345 0.216813 0.0
1.180102 0.238261 0.0
1.182584 0.250822 0.0
1.175114 0.255762 0.0
1.158900 0.254292 0.0
1.134930 0.247700 0.0
1.103789 0.237639 0.0
1.065517 0.226447 0.0
1.019854 0.216966 0.0
0.967229 0.211132 0.0
0.910187 0.207670 0.0
0.854019 0.201044 0.0
0.805456 0.183779 0.0
0.769929 0.151072 0.0
0.749528 0.103665 0.0
0.743100 0.046785 0.0
0.747748 -0.012871 0.0
0.760149 -0.068980 0.0
0.777418 -0.117959 0.0
0.797462 -0.158344 0.0
0.818895 -0.189816 0.0
0.840960 -0.212570 0.0
0.863495 -0.226873 0.0
0.886871 -0.232754 0.0
0.911819 -0.229880 0.0
0.939161 -0.217664 0.0
0.969498 -0.195599 0.0
1.002943 -0.163711 0.0
1.038997 -0.122938 0.0
1.076539 -0.075337 0.0
1.113663 -0.024259 0.0
1.146872 0.024623 0.0
1.173007 0.066896 0.0
1.190958 0.101186 0.0
1.200517 0.127128 0.0
1.201965 0.145076 0.0
1.195854 0.155964 0.0
1.182862 0.161191 0.0
1.163733 0.162519 0.0
1.139280 0.161879 0.0
1.110452 0.161019 0.0
1.078423 0.161029 0.0
1.044643 0.161893 0.0
1.010796 0.162364 0.0
0.978638 0.160353 0.0
0.949751 0.153724 0.0
0.925313 0.141133 0.0
0.905966 0.122490 0.0
0.891825 0.098934 0.0
0.882578 0.072437 0.0
0.877601 0.045340 0.0
0.876062 0.019983 0.0
0.877019 -0.001535 0.0
0.879521 -0.017579 0.0
0.998726 -0.013542 0.0
0.993491 -0.042099 0.0
0.982396 -0.074055 0.0
0.963987 -0.111881 0.0
0.935544 -0.159277 0.0
0.892060 -0.222522 0.0
0.823756 -0.313697 0.0
0.711568 -0.457510 0.0
0.320686 -0.777212 0.0
-0.469060 0.282641 0.0
-0.469060 0.000000 0.0
-0.038216 -0.026834 0.0
-0.065371 -0.062052 0.0
-0.020932 -0.095597 0.0
0.055148 -0.143545 0.0
0.137714 -0.169417 0.0
0.216450 -0.157744 0.0
0.303126 -0.087721 0.0
0.394611 0.023487 0.0
0.471044 0.123191 0.0
0.526491 0.206453 0.0
0.561224 0.275490 0.0
0.574004 0.330195 0.0
0.563596 0.370483 0.0
0.528995 0.396803 0.0
0.470372 0.410111 0.0
0.392042 0.410316 0.0
0.306685 0.393384 0.0
0.233650 0.352960 0.0
0.189811 0.283599 0.0
0.181326 0.187232 0.0
0.202896 0.073951 0.0
0.242179 -0.040956 0.0
0.286833 -0.143857 0.0
0.330321 -0.230747 0.0
0.371257 -0.298917 0.0
0.411220 -0.345624 0.0
0.453828 -0.367789 0.0
0.503534 -0.362322 0.0
0.564003 -0.327509 0.0
0.636676 -0.264889 0.0
0.720248 -0.180255 0.0
0.810740 -0.083240 0.0
0.897347 0.009859 0.0
0.968757 0.086001 0.0
1.023137 0.145208 0.0
1.062606 0.190739 0.0
1.088589 0.224595 0.0
1.102303 0.248293 0.0
1.104878 0.263186 0.0
1.097319 0.270641 0.0
1.080375 0.272263 0.0
1.054420 0.270171 0.0
1.019573 0.267035 0.0
0.976380 0.265235 0.0
0.926989 0.264878 0.0
0.875994 0.261961 0.0
0.829773 0.249142 0.0
0.794200 0.219818 0.0
0.772339 0.172421 0.0
0.763955 0.111101 0.0
0.766780 0.042952 0.0
0.777840 -0.024745 0.0
0.794199 -0.085867 0.0
0.813428 -0.137570 0.0
0.833667 -0.179018 0.0
0.853559 -0.210468 0.0
0.872279 -0.232703 0.0
0.889591 -0.246588 0.0
0.905876 -0.252699 0.0
0.922056 -0.251063 0.0
0.939372 -0.241140 0.0
0.959022 -0.222110 0.0
0.981793 -0.193415 0.0
1.007812 -0.155308 0.0
1.036506 -0.109202 0.0
1.066685 -0.057698 0.0
1.096299 -0.004762 0.0
1.122399 0.044047 0.0
1.142680 0.085804 0.0
1.156202 0.119430 0.0
1.162672 0.144855 0.0
1.162198 0.162771 0.0
1.155131 0.174443 0.0
1.141997 0.181530 0.0
1.123504 0.185815 0.0
1.100592 0.188823 0.0
1.074495 0.191352 0.0
1.046732 0.193114 0.0
1.018986 0.192735 0.0
0.992890 0.188235 0.0
0.969785 0.177834 0.0
0.950558 0.160688 0.0
0.935618 0.137223 0.0
0.924969 0.108990 0.0
0.918331 0.078266 0.0
0.915212 0.047607 0.0
0.914955 0.019511 0.0
0.916757 -0.003823 0.0
0.919743 -0.020780 0.0
0.998294 -0.010562 0.0
0.991269 -0.032819 0.0
0.976301 -0.057272 0.0
0.951224 -0.085178 0.0
0.911855 -0.118168 0.0
0.850142 -0.158434 0.0
0.749410 -0.208748 0.0
0.570127 -0.270988 0.0
0.226901 -0.332003 0.0
0.000000 0.282641 0.0
-0.000000 -0.000000 0.0
0.000000 0.000000 0.0
-0.037595 -0.036557 0.0
-0.080078 -0.124085 0.0
-0.076096 -0.195119 0.0
-0.054653 -0.221852 0.0
-0.030377 -0.208322 0.0
0.004272 -0.158468 0.0
0.067421 -0.060399 0.0
0.141716 0.056348 0.0
0.202537 0.157027 0.0
0.246250 0.246470 0.0
0.268656 0.324030 0.0
0.267137 0.388575 0.0
0.241783 0.438666 0.0
0.197175 0.471479 0.0
0.145467 0.478986 0.0
0.106112 0.449427 0.0
0.093899 0.382164 0.0
0.111783 0.280349 0.0
0.154398 0.156353 0.0
0.211233 0.026426 0.0
0.269473 -0.090954 0.0
0.321148 -0.190187 0.0
0.364540 -0.271297 0.0
0.399354 -0.334117 0.0
0.427205 -0.378236 0.0
0.451894 -0.402474 0.0
0.479060 -0.404509 0.0
0.514794 -0.381525 0.0
0.563466 -0.332217 0.0
0.625979 -0.259011 0.0
0.699630 -0.168626 0.0
0.779082 -0.070814 0.0
0.854200 0.020145 0.0
0.916234 0.094649 0.0
0.964030 0.154034 0.0
0.998691 0.200656 0.0
1.021088 0.236121 0.0
1.032012 0.261859 0.0
1.032127 0.279412 0.0
1.021887 0.290675 0.0
1.001596 0.298006 0.0
0.971825 0.303818 0.0
0.934291 0.309178 0.0
0.892728 0.311889 0.0
0.852776 0.305898 0.0
0.820349 0.283852 0.0
0.799383 0.241647 0.0
0.790746 0.181091 0.0
0.792988 0.108573 0.0
0.803785 0.031858 0.0
0.820476 -0.041401 0.0
0.840413 -0.105507 0.0
0.861443 -0.158189 0.0
0.881874 -0.199069 0.0
0.900423 -0.228859 0.0
0.916248 -0.248857 0.0
0.929024 -0.260522 0.0
0.939038 -0.265064 0.0
0.947220 -0.263062 0.0
0.955034 -0.254270 0.0
0.964158 -0.237754 0.0
0.976047 -0.212430 0.0
0.991528 -0.177793 0.0
1.010619 -0.134501 0.0
1.032589 -0.084547 0.0
1.056115 -0.031054 0.0
1.078977 0.021378 0.0
1.098752 0.068417 0.0
1.113886 0.108160 0.0
1.123554 0.139987 0.0
1.127427 0.164239 0.0
1.125524 0.181945 0.0
1.118136 0.194549 0.0
1.105834 0.203592 0.0
1.089497 0.210295 0.0
1.070329 0.215144 0.0
1.049789 0.217625 0.0
1.029417 0.216343 0.0
1.010596 0.209544 0.0
0.994355 0.195870 0.0
0.981285 0.174948 0.0
0.971592 0.147597 0.0
0.965209 0.115647 0.0
0.961899 0.081558 0.0
0.961285 0.048049 0.0
0.962832 0.017781 0.0
0.965835 -0.006899 0.0
0.969463 -0.024318 0.0
0.998106 -0.006963 0.0
0.990323 -0.021610 0.0
0.973837 -0.037026 0.0
0.946561 -0.053071 0.0
0.904764 -0.069110 0.0
0.842243 -0.083256 0.0
0.749577 -0.090527 0.0
0.615582 -0.075931 0.0
0.436608 -0.000161 0.0
0.168183 0.150590 0.0
0.000000 0.000000 0.0
-0.000000 -0.000000 0.0
0.000000 0.000000 0.0
-0.059207 -0.059599 0.0
-0.137152 -0.185252 0.0
-0.162588 -0.227726 0.0
-0.177129 -0.212183 0.0
-0.183564 -0.182821 0.0
-0.164736 -0.118023 0.0
-0.113726 -0.011333 0.0
-0.050032 0.100192 0.0
0.001952 0.207608 0.0
0.035516 0.306923 0.0
0.049237 0.393480 0.0
0.046334 0.462017 0.0
0.035333 0.503737 0.0
0.031796 0.501972 0.0
0.049391 0.448201 0.0
0.091399 0.353595 0.0
0.153853 0.228580 0.0
0.229069 0.090291 0.0
0.304303 -0.039583 0.0
0.369683 -0.148565 0.0
0.423410 -0.237980 0.0
0.464964 -0.308451 0.0
0.494183 -0.360995 0.0
0.511919 -0.396944 0.0
0.520769 -0.417306 0.0
0.525696 -0.421771 0.0
0.533796 -0.408097 0.0
0.552495 -0.373015 0.0
0.586647 -0.314879 0.0
0.636489 -0.236251 0.0
0.697978 -0.144130 0.0
0.764508 -0.048186 0.0
0.826618 0.038835 0.0
0.877761 0.110908 0.0
0.917235 0.169648 0.0
0.945326 0.216641 0.0
0.962372 0.253368 0.0
0.968662 0.281499 0.0
0.964449 0.303040 0.0
0.950217 0.320165 0.0
0.927273 0.334374 0.0
0.898491 0.344937 0.0
0.868529 0.347656 0.0
0.842865 0.335748 0.0
0.825899 0.303395 0.0
0.819490 0.249479 0.0
0.823087 0.178299 0.0
0.834954 0.097255 0.0
0.853080 0.014253 0.0
0.874949 -0.062356 0.0
0.897971 -0.127512 0.0
0.920227 -0.179469 0.0
0.940256 -0.218249 0.0
0.956979 -0.244951 0.0
0.969681 -0.261291 0.0
0.978056 -0.269237 0.0
0.982300 -0.270606 0.0
0.983229 -0.266631 0.0
0.982302 -0.257588 0.0
0.981451 -0.242709 0.0
0.982664 -0.220578 0.0
0.987477 -0.189939 0.0
0.996585 -0.150555 0.0
1.009774 -0.103651 0.0