# vtk DataFile Version 3.0
Vector Field
ASCII
DATASET RECTILINEAR_GRID
DIMENSIONS 100 26 1
X_COORDINATES 100 double
0.050000 0.150000 0.250000 0.350000 0.450000 0.550000 0.650000 0.750000 0.850000 0.950000 1.050000 1.150000 1.250000 1.350000 1.450000 1.550000 1.650000 1.750000 1.850000 1.950000 2.050000 2.150000 2.250000 2.350000 2.450000 2.550000 2.650000 2.750000 2.850000 2.950000 3.050000 3.150000 3.250000 3.350000 3.450000 3.550000 3.650000 3.750000 3.850000 3.950000 4.050000 4.150000 4.250000 4.350000 4.450000 4.550000 4.650000 4.750000 4.850000 4.950000 5.050000 5.150000 5.250000 5.350000 5.450000 5.550000 5.650000 5.750000 5.850000 5.950000 6.050000 6.150000 6.250000 6.350000 6.450000 6.550000 6.650000 6.750000 6.850000 6.950000 7.050000 7.150000 7.250000 7.350000 7.450000 7.550000 7.650000 7.750000 7.850000 7.950000 8.050000 8.150000 8.250000 8.350000 8.450000 8.550000 8.650000 8.750000 8.850000 8.950000 9.050000 9.150000 9.250000 9.350000 9.450000 9.550000 9.650000 9.750000 9.850000 9.950000 
Y_COORDINATES 26 double
0.050000 0.150000 0.250000 0.350000 0.450000 0.550000 0.650000 0.750000 0.850000 0.950000 1.050000 1.150000 1.250000 1.350000 1.450000 1.550000 1.650000 1.750000 1.850000 1.950000 2.050000 2.150000 2.250000 2.350000 2.450000 2.550000 
Z_COORDINATES 1 double
0.0
POINT_DATA 2600
VECTORS Vektorfeld double
0.997804 0.002196 0.0
0.993599 0.002010 0.0
0.991338 0.000250 0.0
0.993229 -0.002141 0.0
1.000086 -0.004717 0.0
1.011952 -0.007149 0.0
1.028212 -0.009111 0.0
1.047583 -0.010261 0.0
1.068138 -0.010294 0.0
1.087458 -0.009026 0.0
1.102979 -0.006495 0.0
1.112466 -0.002992 0.0
1.114565 0.000893 0.0
1.108769 0.004903 0.0
1.095097 0.008768 0.0
1.074113 0.012215 0.0
1.046856 0.015042 0.0
1.014680 0.017134 0.0
0.979092 0.018454 0.0
0.941616 0.019022 0.0
0.903708 0.018886 0.0
0.866712 0.018110 0.0
0.831834 0.016768 0.0
0.800111 0.014955 0.0
0.772352 0.012804 0.0
0.749071 0.010477 0.0
0.730450 0.008144 0.0
0.716348 0.005958 0.0
0.706365 0.004025 0.0
0.699945 0.002396 0.0
0.696479 0.001071 0.0
0.695433 -0.000025 0.0
0.696328 -0.000871 0.0
0.698648 -0.001449 0.0
0.701906 -0.001810 0.0
0.705720 -0.002004 0.0
0.709800 -0.002077 0.0
0.713941 -0.002064 0.0
0.717999 -0.001994 0.0
0.721878 -0.001886 0.0
0.725519 -0.001755 0.0
0.728888 -0.001614 0.0
0.731971 -0.001469 0.0
0.734768 -0.001327 0.0
0.737286 -0.001191 0.0
0.739541 -0.001064 0.0
0.741551 -0.000946 0.0
0.743336 -0.000839 0.0
0.744916 -0.000742 0.0
0.746313 -0.000655 0.0
0.747544 -0.000577 0.0
0.748629 -0.000508 0.0
0.749583 -0.000447 0.0
0.750422 -0.000392 0.0
0.751159 -0.000345 0.0
0.751806 -0.000303 0.0
0.752375 -0.000266 0.0
0.752873 -0.000233 0.0
0.753311 -0.000205 0.0
0.753695 -0.000180 0.0
0.754033 -0.000158 0.0
0.754328 -0.000138 0.0
0.754588 -0.000121 0.0
0.754816 -0.000107 0.0
0.755016 -0.000094 0.0
0.755192 -0.000082 0.0
0.755347 -0.000072 0.0
0.755483 -0.000064 0.0
0.755602 -0.000056 0.0
0.755707 -0.000049 0.0
0.755799 -0.000043 0.0
0.755881 -0.000038 0.0
0.755953 -0.000034 0.0
0.756017 -0.000030 0.0
0.756074 -0.000027 0.0
0.756125 -0.000024 0.0
0.756172 -0.000022 0.0
0.756214 -0.000020 0.0
0.756253 -0.000019 0.0
0.756290 -0.000018 0.0
0.756326 -0.000018 0.0
0.756361 -0.000018 0.0
0.756398 -0.000019 0.0
0.756437 -0.000020 0.0
0.756480 -0.000023 0.0
0.756529 -0.000026 0.0
0.756586 -0.000031 0.0
0.756655 -0.000038 0.0
0.756739 -0.000047 0.0
0.756845 -0.000059 0.0
0.756978 -0.000075 0.0
0.757150 -0.000097 0.0
0.757375 -0.000128 0.0
0.757673 -0.000171 0.0
0.758078 -0.000234 0.0
0.758641 -0.000329 0.0
0.759454 -0.000484 0.0
0.760689 -0.000751 0.0
0.762736 -0.001296 0.0
0.765867 -0.001835 0.0
1.003103 0.001288 0.0
1.012209 -0.001982 0.0
1.026563 -0.007851 0.0
1.045557 -0.014923 0.0
1.069094 -0.022330 0.0
1.096980 -0.029287 0.0
1.128663 -0.034915 0.0
1.163077 -0.038242 0.0
1.198562 -0.038352 0.0
1.232907 -0.034633 0.0
1.263666 -0.027167 0.0
1.288604 -0.016746 0.0
1.305804 -0.004652 0.0
1.314048 0.008001 0.0
1.313141 0.020249 0.0
1.303627 0.031232 0.0
1.286572 0.040338 0.0
1.263365 0.047222 0.0
1.235545 0.051775 0.0
1.204652 0.054070 0.0
1.172116 0.054281 0.0
1.139204 0.052624 0.0
1.107006 0.049330 0.0
1.076452 0.044669 0.0
1.048323 0.038979 0.0
1.023235 0.032670 0.0
1.001617 0.026189 0.0
0.983683 0.019950 0.0
0.969429 0.014270 0.0
0.958661 0.009338 0.0
0.951036 0.005219 0.0
0.946053 0.001856 0.0
0.943182 -0.000776 0.0
0.942034 -0.002715 0.0
0.942295 -0.004063 0.0
0.943666 -0.004935 0.0
0.945875 -0.005435 0.0
0.948683 -0.005654 0.0
0.951887 -0.005665 0.0
0.955319 -0.005526 0.0
0.958845 -0.005282 0.0
0.962361 -0.004972 0.0
0.965789 -0.004622 0.0
0.969073 -0.004254 0.0
0.972175 -0.003885 0.0
0.975074 -0.003523 0.0
0.977756 -0.003179 0.0
0.980220 -0.002855 0.0
0.982469 -0.002555 0.0
0.984510 -0.002279 0.0
0.986355 -0.002029 0.0
0.988016 -0.001802 0.0
0.989506 -0.001597 0.0
0.990840 -0.001414 0.0
0.992031 -0.001251 0.0
0.993093 -0.001105 0.0
0.994037 -0.000976 0.0
0.994876 -0.000861 0.0
0.995620 -0.000759 0.0
0.996280 -0.000669 0.0
0.996864 -0.000590 0.0
0.997381 -0.000519 0.0
0.997839 -0.000457 0.0
0.998243 -0.000403 0.0
0.998600 -0.000355 0.0
0.998916 -0.000312 0.0
0.999194 -0.000275 0.0
0.999440 -0.000242 0.0
0.999657 -0.000214 0.0
0.999849 -0.000188 0.0
1.000019 -0.000166 0.0
1.000168 -0.000147 0.0
1.000300 -0.000130 0.0
1.000417 -0.000115 0.0
1.000521 -0.000103 0.0
1.000613 -0.000092 0.0
1.000695 -0.000083 0.0
1.000769 -0.000075 0.0
1.000835 -0.000069 0.0
1.000895 -0.000065 0.0
1.000951 -0.000062 0.0
1.001002 -0.000061 0.0
1.001052 -0.000062 0.0
1.001100 -0.000065 0.0
1.001148 -0.000070 0.0
1.001199 -0.000078 0.0
1.001253 -0.000091 0.0
1.001314 -0.000108 0.0
1.001383 -0.000131 0.0
1.001465 -0.000162 0.0
1.001564 -0.000204 0.0
1.001686 -0.000262 0.0
1.001839 -0.000340 0.0
1.002034 -0.000450 0.0
1.002282 -0.000607 0.0
1.002603 -0.000839 0.0
1.003010 -0.001195 0.0
1.003503 -0.001768 0.0
1.003962 -0.002785 0.0
1.004328 -0.003843 0.0
1.002020 -0.003835 0.0
1.009333 -0.013277 0.0
1.022812 -0.024389 0.0
1.041981 -0.036548 0.0
1.066731 -0.048993 0.0
1.096941 -0.060720 0.0
1.132175 -0.070399 0.0
1.171387 -0.076385 0.0
1.212686 -0.076993 0.0
1.253207 -0.070858 0.0
1.289610 -0.058104 0.0
1.319060 -0.040197 0.0
1.339792 -0.019133 0.0
1.351067 0.002963 0.0
1.352941 0.024320 0.0
1.346095 0.043521 0.0
1.331626 0.059572 0.0
1.310917 0.071903 0.0
1.285487 0.080343 0.0
1.256837 0.085046 0.0
1.226312 0.086366 0.0
1.195031 0.084732 0.0
1.163886 0.080565 0.0
1.133597 0.074278 0.0
1.104777 0.066319 0.0
1.077983 0.057212 0.0
1.053704 0.047545 0.0
1.032331 0.037901 0.0
1.014120 0.028784 0.0
0.999161 0.020551 0.0
0.987383 0.013408 0.0
0.978589 0.007444 0.0
0.972480 0.002617 0.0
0.968689 -0.001169 0.0
0.966844 -0.004026 0.0
0.966585 -0.006084 0.0
0.967568 -0.007478 0.0
0.969481 -0.008332 0.0
0.972050 -0.008760 0.0
0.975046 -0.008859 0.0
0.978285 -0.008714 0.0
0.981621 -0.008393 0.0
0.984946 -0.007954 0.0
0.988180 -0.007441 0.0
0.991269 -0.006890 0.0
0.994178 -0.006325 0.0
0.996886 -0.005767 0.0
0.999385 -0.005229 0.0
1.001673 -0.004718 0.0
1.003756 -0.004241 0.0
1.005643 -0.003799 0.0
1.007345 -0.003394 0.0
1.008874 -0.003025 0.0
1.010245 -0.002691 0.0
1.011471 -0.002390 0.0
1.012564 -0.002120 0.0
1.013538 -0.001879 0.0
1.014404 -0.001663 0.0
1.015173 -0.001471 0.0
1.015855 -0.001300 0.0
1.016460 -0.001148 0.0
1.016995 -0.001014 0.0
1.017469 -0.000895 0.0
1.017889 -0.000789 0.0
1.018259 -0.000696 0.0
1.018587 -0.000614 0.0
1.018876 -0.000542 0.0
1.019132 -0.000478 0.0
1.019358 -0.000421 0.0
1.019557 -0.000372 0.0
1.019733 -0.000328 0.0
1.019889 -0.000290 0.0
1.020026 -0.000256 0.0
1.020148 -0.000227 0.0
1.020256 -0.000202 0.0
1.020351 -0.000180 0.0
1.020436 -0.000161 0.0
1.020512 -0.000146 0.0
1.020580 -0.000133 0.0
1.020641 -0.000123 0.0
1.020697 -0.000115 0.0
1.020749 -0.000111 0.0
1.020797 -0.000110 0.0
1.020844 -0.000112 0.0
1.020890 -0.000117 0.0
1.020936 -0.000128 0.0
1.020985 -0.000144 0.0
1.021037 -0.000167 0.0
1.021096 -0.000199 0.0
1.021163 -0.000243 0.0
1.021242 -0.000301 0.0
1.021336 -0.000381 0.0
1.021449 -0.000488 0.0
1.021585 -0.000634 0.0
1.021749 -0.000836 0.0
1.021938 -0.001120 0.0
1.022142 -0.001525 0.0
1.022319 -0.002107 0.0
1.022354 -0.002940 0.0
1.022166 -0.003866 0.0
1.001656 -0.007511 0.0
1.008147 -0.023406 0.0
1.020932 -0.040524 0.0
1.040035 -0.058686 0.0
1.065718 -0.077287 0.0
1.098277 -0.095194 0.0
1.137711 -0.110594 0.0
1.183224 -0.120914 0.0
1.232778 -0.123317 0.0
1.282250 -0.114527 0.0
1.326351 -0.094939 0.0
1.361076 -0.067537 0.0
1.384423 -0.035872 0.0
1.395993 -0.003143 0.0
1.396404 0.028140 0.0
1.386811 0.056141 0.0
1.368686 0.079546 0.0
1.343748 0.097577 0.0
1.313834 0.110013 0.0
1.280733 0.117127 0.0
1.246025 0.119517 0.0
1.210983 0.117904 0.0
1.176555 0.112965 0.0
1.143443 0.105279 0.0
1.112204 0.095376 0.0
1.083328 0.083826 0.0
1.057262 0.071277 0.0
1.034383 0.058420 0.0
1.014952 0.045907 0.0
0.999071 0.034267 0.0
0.986676 0.023865 0.0
0.977552 0.014905 0.0
0.971371 0.007447 0.0
0.967725 0.001438 0.0
0.966173 -0.003236 0.0
0.966281 -0.006723 0.0
0.967650 -0.009191 0.0
0.969927 -0.010810 0.0
0.972817 -0.011742 0.0
0.976081 -0.012137 0.0
0.979529 -0.012123 0.0
0.983022 -0.011812 0.0
0.986455 -0.011293 0.0
0.989758 -0.010639 0.0
0.992883 -0.009906 0.0
0.995803 -0.009138 0.0
0.998505 -0.008365 0.0
1.000983 -0.007609 0.0
1.003243 -0.006886 0.0
1.005292 -0.006205 0.0
1.007143 -0.005571 0.0
1.008807 -0.004988 0.0
1.010299 -0.004454 0.0
1.011635 -0.003969 0.0
1.012826 -0.003530 0.0
1.013888 -0.003136 0.0
1.014833 -0.002782 0.0
1.015672 -0.002465 0.0
1.016417 -0.002182 0.0
1.017078 -0.001931 0.0
1.017663 -0.001707 0.0
1.018181 -0.001508 0.0
1.018639 -0.001332 0.0
1.019044 -0.001176 0.0
1.019402 -0.001038 0.0
1.019719 -0.000916 0.0
1.019998 -0.000808 0.0
1.020245 -0.000713 0.0
1.020463 -0.000629 0.0
1.020656 -0.000555 0.0
1.020826 -0.000490 0.0
1.020976 -0.000433 0.0
1.021108 -0.000383 0.0
1.021225 -0.000339 0.0
1.021329 -0.000301 0.0
1.021421 -0.000268 0.0
1.021502 -0.000240 0.0
1.021575 -0.000216 0.0
1.021640 -0.000196 0.0
1.021698 -0.000180 0.0
1.021751 -0.000167 0.0
1.021799 -0.000159 0.0
1.021844 -0.000155 0.0
1.021887 -0.000155 0.0
1.021928 -0.000161 0.0
1.021968 -0.000172 0.0
1.022010 -0.000190 0.0
1.022053 -0.000217 0.0
1.022100 -0.000255 0.0
1.022152 -0.000306 0.0
1.022211 -0.000375 0.0
1.022278 -0.000467 0.0
1.022355 -0.000590 0.0
1.022441 -0.000754 0.0
1.022534 -0.000973 0.0
1.022627 -0.001266 0.0
1.022700 -0.001657 0.0
1.022717 -0.002169 0.0
1.022616 -0.002812 0.0
1.022350 -0.003540 0.0
1.001484 -0.010651 0.0
1.007474 -0.032747 0.0
1.019677 -0.056171 0.0
1.038606 -0.081071 0.0
1.065103 -0.107083 0.0
1.100220 -0.133076 0.0
1.144868 -0.156795 0.0
1.199020 -0.174377 0.0
1.261177 -0.181566 0.0
1.324683 -0.169255 0.0
1.379918 -0.139547 0.0
1.421319 -0.099054 0.0
1.447305 -0.053687 0.0
1.458362 -0.007955 0.0
1.455890 0.035013 0.0
1.441573 0.073178 0.0
1.417273 0.104933 0.0
1.385117 0.129285 0.0
1.347371 0.145965 0.0
1.306261 0.155386 0.0
1.263781 0.158445 0.0
1.221564 0.156236 0.0
1.180840 0.149785 0.0
1.142489 0.139922 0.0
1.107141 0.127320 0.0
1.075277 0.112623 0.0
1.047272 0.096551 0.0
1.023390 0.079907 0.0
1.003747 0.063495 0.0
0.988288 0.048020 0.0
0.976781 0.034014 0.0
0.968849 0.021811 0.0
0.964017 0.011555 0.0
0.961754 0.003237 0.0
0.961531 -0.003260 0.0
0.962848 -0.008125 0.0
0.965270 -0.011579 0.0
0.968429 -0.013858 0.0
0.972031 -0.015187 0.0
0.975849 -0.015774 0.0
0.979715 -0.015800 0.0
0.983507 -0.015420 0.0
0.987145 -0.014756 0.0
0.990577 -0.013910 0.0
0.993773 -0.012957 0.0
0.996720 -0.011955 0.0
0.999417 -0.010946 0.0
1.001869 -0.009959 0.0
1.004087 -0.009014 0.0
1.006086 -0.008125 0.0
1.007882 -0.007297 0.0
1.009489 -0.006534 0.0
1.010925 -0.005836 0.0
1.012206 -0.005202 0.0
1.013346 -0.004629 0.0
1.014360 -0.004113 0.0
1.015260 -0.003649 0.0
1.016058 -0.003235 0.0
1.016766 -0.002865 0.0
1.017393 -0.002535 0.0
1.017947 -0.002242 0.0
1.018438 -0.001982 0.0
1.018871 -0.001751 0.0
1.019255 -0.001546 0.0
1.019593 -0.001365 0.0
1.019892 -0.001205 0.0
1.020156 -0.001063 0.0
1.020389 -0.000938 0.0
1.020595 -0.000828 0.0
1.020777 -0.000731 0.0
1.020937 -0.000645 0.0
1.021079 -0.000570 0.0
1.021203 -0.000504 0.0
1.021314 -0.000446 0.0
1.021411 -0.000396 0.0
1.021498 -0.000352 0.0
1.021574 -0.000314 0.0
1.021642 -0.000282 0.0
1.021702 -0.000255 0.0
1.021756 -0.000233 0.0
1.021804 -0.000215 0.0
1.021848 -0.000203 0.0
1.021888 -0.000196 0.0
1.021925 -0.000194 0.0
1.021960 -0.000198 0.0
1.021994 -0.000209 0.0
1.022027 -0.000228 0.0
1.022060 -0.000256 0.0
1.022094 -0.000297 0.0
1.022129 -0.000352 0.0
1.022167 -0.000426 0.0
1.022207 -0.000524 0.0
1.022247 -0.000652 0.0
1.022287 -0.000818 0.0
1.022319 -0.001035 0.0
1.022335 -0.001313 0.0
1.022317 -0.001665 0.0
1.022238 -0.002099 0.0
1.022064 -0.002608 0.0
1.021768 -0.003181 0.0
1.001311 -0.013445 0.0
1.006686 -0.041318 0.0
1.017910 -0.071028 0.0
1.035939 -0.103171 0.0
1.062320 -0.137859 0.0
1.099212 -0.174308 0.0
1.149160 -0.210159 0.0
1.213964 -0.239969 0.0
1.295091 -0.259257 0.0
1.379678 -0.239657 0.0
1.448190 -0.192893 0.0
1.495173 -0.134093 0.0
1.522152 -0.071613 0.0
1.531495 -0.010430 0.0
1.525220 0.046236 0.0
1.505180 0.096312 0.0
1.473484 0.137795 0.0
1.432661 0.169403 0.0
1.385447 0.190807 0.0
1.334535 0.202566 0.0
1.282386 0.205895 0.0
1.231086 0.202304 0.0
1.182271 0.193254 0.0
1.137136 0.179939 0.0
1.096500 0.163287 0.0
1.060901 0.144119 0.0
1.030651 0.123309 0.0
1.005858 0.101824 0.0
0.986419 0.080660 0.0
0.972020 0.060713 0.0
0.962168 0.042680 0.0
0.956240 0.027005 0.0
0.953543 0.013890 0.0
0.953382 0.003325 0.0
0.955108 -0.004850 0.0
0.958153 -0.010896 0.0
0.962043 -0.015120 0.0
0.966408 -0.017841 0.0
0.970968 -0.019365 0.0
0.975521 -0.019967 0.0
0.979930 -0.019882 0.0
0.984108 -0.019308 0.0
0.988004 -0.018402 0.0
0.991595 -0.017287 0.0
0.994876 -0.016056 0.0
0.997852 -0.014779 0.0
1.000538 -0.013504 0.0
1.002952 -0.012267 0.0
1.005115 -0.011088 0.0
1.007048 -0.009983 0.0
1.008772 -0.008958 0.0
1.010306 -0.008015 0.0
1.011670 -0.007155 0.0
1.012881 -0.006375 0.0
1.013956 -0.005671 0.0
1.014908 -0.005037 0.0
1.015751 -0.004469 0.0
1.016497 -0.003960 0.0
1.017158 -0.003507 0.0
1.017741 -0.003103 0.0
1.018257 -0.002744 0.0
1.018713 -0.002426 0.0
1.019116 -0.002143 0.0
1.019471 -0.001893 0.0
1.019785 -0.001671 0.0
1.020062 -0.001475 0.0
1.020306 -0.001302 0.0
1.020522 -0.001149 0.0
1.020712 -0.001014 0.0
1.020880 -0.000895 0.0
1.021028 -0.000790 0.0
1.021159 -0.000698 0.0
1.021274 -0.000616 0.0
1.021376 -0.000545 0.0
1.021465 -0.000483 0.0
1.021544 -0.000429 0.0
1.021614 -0.000383 0.0
1.021676 -0.000343 0.0
1.021731 -0.000309 0.0
1.021780 -0.000281 0.0
1.021823 -0.000259 0.0
1.021861 -0.000242 0.0
1.021896 -0.000231 0.0
1.021927 -0.000226 0.0
1.021955 -0.000228 0.0
1.021981 -0.000238 0.0
1.022004 -0.000255 0.0
1.022026 -0.000283 0.0
1.022046 -0.000324 0.0
1.022065 -0.000379 0.0
1.022081 -0.000453 0.0
1.022094 -0.000549 0.0
1.022102 -0.000674 0.0
1.022100 -0.000833 0.0
1.022082 -0.001035 0.0
1.022039 -0.001285 0.0
1.021955 -0.001591 0.0
1.021814 -0.001953 0.0
1.021595 -0.002362 0.0
1.021280 -0.002816 0.0
1.001049 -0.015804 0.0
1.005407 -0.048693 0.0
1.014736 -0.084207 0.0
1.030315 -0.123601 0.0
1.054362 -0.167857 0.0
1.090374 -0.217215 0.0
1.143407 -0.270232 0.0
1.219043 -0.320337 0.0
1.327982 -0.368955 0.0
1.440208 -0.326773 0.0
1.515456 -0.249536 0.0
1.558773 -0.167750 0.0
1.581416 -0.087578 0.0
1.587898 -0.010292 0.0
1.578644 0.061627 0.0
1.554137 0.125467 0.0
1.516226 0.178247 0.0
1.467795 0.218205 0.0
1.412074 0.244940 0.0
1.352230 0.259188 0.0
1.291161 0.262491 0.0
1.231371 0.256798 0.0
1.174904 0.244042 0.0
1.123320 0.225871 0.0
1.077711 0.203599 0.0
1.038754 0.178364 0.0
1.006750 0.151318 0.0
0.981666 0.123692 0.0
0.963163 0.096735 0.0
0.950637 0.071562 0.0
0.943289 0.049031 0.0
0.940200 0.029673 0.0
0.940425 0.013695 0.0
0.943067 0.001038 0.0
0.947339 -0.008562 0.0
0.952595 -0.015484 0.0
0.958333 -0.020160 0.0
0.964189 -0.023021 0.0
0.969909 -0.024465 0.0
0.975334 -0.024845 0.0
0.980375 -0.024453 0.0
0.984989 -0.023529 0.0
0.989167 -0.022257 0.0
0.992924 -0.020780 0.0
0.996282 -0.019202 0.0
0.999273 -0.017600 0.0
1.001930 -0.016026 0.0
1.004286 -0.014515 0.0
1.006372 -0.013089 0.0
1.008218 -0.011761 0.0
1.009850 -0.010535 0.0
1.011292 -0.009414 0.0
1.012567 -0.008395 0.0
1.013692 -0.007472 0.0
1.014686 -0.006641 0.0
1.015563 -0.005895 0.0
1.016338 -0.005228 0.0
1.017021 -0.004631 0.0
1.017624 -0.004100 0.0
1.018157 -0.003627 0.0
1.018626 -0.003206 0.0
1.019040 -0.002834 0.0
1.019406 -0.002503 0.0
1.019728 -0.002210 0.0
1.020012 -0.001951 0.0
1.020263 -0.001722 0.0
1.020484 -0.001520 0.0
1.020679 -0.001341 0.0
1.020851 -0.001183 0.0
1.021002 -0.001044 0.0
1.021135 -0.000922 0.0
1.021253 -0.000814 0.0
1.021357 -0.000719 0.0
1.021448 -0.000636 0.0
1.021529 -0.000563 0.0
1.021599 -0.000500 0.0
1.021662 -0.000445 0.0
1.021717 -0.000397 0.0
1.021765 -0.000357 0.0
1.021807 -0.000324 0.0
1.021844 -0.000296 0.0
1.021877 -0.000275 0.0
1.021905 -0.000261 0.0
1.021930 -0.000252 0.0
1.021951 -0.000251 0.0
1.021968 -0.000258 0.0
1.021982 -0.000273 0.0
1.021993 -0.000298 0.0
1.022000 -0.000336 0.0
1.022002 -0.000388 0.0
1.021998 -0.000457 0.0
1.021987 -0.000547 0.0
1.021965 -0.000662 0.0
1.021927 -0.000806 0.0
1.021869 -0.000985 0.0
1.021780 -0.001203 0.0
1.021651 -0.001461 0.0
1.021467 -0.001758 0.0
1.021217 -0.002087 0.0
1.020890 -0.002448 0.0
1.000647 -0.017500 0.0
1.003389 -0.054098 0.0
1.009465 -0.094207 0.0
1.020196 -0.139912 0.0
1.038094 -0.193490 0.0
1.067716 -0.257215 0.0
1.117074 -0.332623 0.0
1.198431 -0.414939 0.0
1.343789 -0.528649 0.0
1.479608 -0.415124 0.0
1.531388 -0.288213 0.0
1.546118 -0.187120 0.0
1.554163 -0.098896 0.0
1.559048 -0.010341 0.0
1.552803 0.077177 0.0
1.530646 0.156581 0.0
1.493438 0.222252 0.0
1.444418 0.271651 0.0
1.387236 0.304399 0.0
1.325312 0.321497 0.0
1.261731 0.324832 0.0
1.199234 0.316743 0.0
1.140197 0.299601 0.0
1.086565 0.275528 0.0
1.039785 0.246329 0.0
1.000761 0.213616 0.0
0.969853 0.178976 0.0
0.946943 0.144028 0.0
0.931500 0.110346 0.0
0.922674 0.079302 0.0
0.919391 0.051922 0.0
0.920464 0.028798 0.0
0.924706 0.010102 0.0
0.931037 -0.004342 0.0
0.938550 -0.014966 0.0
0.946541 -0.022326 0.0
0.954503 -0.027019 0.0
0.962102 -0.029617 0.0
0.969144 -0.030631 0.0
0.975533 -0.030494 0.0
0.981246 -0.029558 0.0
0.986305 -0.028096 0.0
0.990753 -0.026317 0.0
0.994650 -0.024372 0.0
0.998055 -0.022373 0.0
1.001028 -0.020394 0.0
1.003623 -0.018485 0.0
1.005889 -0.016678 0.0
1.007870 -0.014992 0.0
1.009602 -0.013435 0.0
1.011118 -0.012009 0.0
1.012447 -0.010711 0.0
1.013612 -0.009537 0.0
1.014635 -0.008478 0.0
1.015532 -0.007527 0.0
1.016322 -0.006676 0.0
1.017015 -0.005915 0.0
1.017625 -0.005237 0.0
1.018162 -0.004634 0.0
1.018634 -0.004097 0.0
1.019050 -0.003621 0.0
1.019417 -0.003199 0.0
1.019739 -0.002825 0.0
1.020023 -0.002494 0.0
1.020273 -0.002202 0.0
1.020493 -0.001943 0.0
1.020688 -0.001714 0.0
1.020859 -0.001512 0.0
1.021009 -0.001334 0.0
1.021142 -0.001177 0.0
1.021259 -0.001039 0.0
1.021361 -0.000917 0.0
1.021452 -0.000810 0.0
1.021532 -0.000716 0.0
1.021601 -0.000634 0.0
1.021663 -0.000562 0.0
1.021717 -0.000499 0.0
1.021764 -0.000445 0.0
1.021805 -0.000399 0.0
1.021840 -0.000360 0.0
1.021871 -0.000328 0.0
1.021897 -0.000302 0.0
1.021919 -0.000284 0.0
1.021936 -0.000272 0.0
1.021950 -0.000267 0.0
1.021959 -0.000269 0.0
1.021964 -0.000280 0.0
1.021963 -0.000301 0.0
1.021957 -0.000334 0.0
1.021944 -0.000379 0.0
1.021922 -0.000440 0.0
1.021890 -0.000519 0.0
1.021842 -0.000620 0.0
1.021776 -0.000745 0.0
1.021686 -0.000897 0.0
1.021563 -0.001079 0.0
1.021400 -0.001291 0.0
1.021187 -0.001531 0.0
1.020917 -0.001793 0.0
1.020580 -0.002078 0.0
1.000097 -0.018244 0.0
1.000575 -0.056574 0.0
1.001892 -0.099125 0.0
1.004919 -0.148752 0.0
1.011564 -0.209193 0.0
1.026016 -0.285587 0.0
1.057582 -0.385175 0.0
1.126413 -0.512575 0.0
1.301118 -0.751076 0.0
1.423290 -0.450688 0.0
1.383662 -0.264801 0.0
1.328636 -0.170236 0.0
1.307782 -0.102972 0.0
1.319549 -0.022917 0.0
1.336068 0.079479 0.0
1.336191 0.176312 0.0
1.319595 0.256326 0.0
1.289746 0.316445 0.0
1.249926 0.356607 0.0
1.203113 0.378025 0.0
1.152285 0.382713 0.0
1.100447 0.373196 0.0
1.050465 0.352168 0.0
1.004841 0.322218 0.0
0.965518 0.285742 0.0
0.933763 0.244983 0.0
0.910157 0.202123 0.0
0.894647 0.159303 0.0
0.886636 0.118525 0.0
0.885111 0.081474 0.0
0.888790 0.049353 0.0
0.896290 0.022795 0.0
0.906258 0.001894 0.0
0.917519 -0.013726 0.0
0.929146 -0.024721 0.0
0.940458 -0.031874 0.0
0.951013 -0.035988 0.0
0.960567 -0.037802 0.0
0.969029 -0.037949 0.0
0.976407 -0.036944 0.0
0.982773 -0.035188 0.0
0.988230 -0.032981 0.0
0.992891 -0.030541 0.0
0.996868 -0.028021 0.0
1.000261 -0.025523 0.0
1.003161 -0.023116 0.0
1.005645 -0.020841 0.0
1.007779 -0.018721 0.0
1.009616 -0.016767 0.0
1.011201 -0.014979 0.0
1.012574 -0.013354 0.0
1.013765 -0.011885 0.0
1.014800 -0.010563 0.0
1.015702 -0.009376 0.0
1.016488 -0.008314 0.0
1.017175 -0.007366 0.0
1.017776 -0.006520 0.0
1.018303 -0.005769 0.0
1.018764 -0.005101 0.0
1.019169 -0.004508 0.0
1.019524 -0.003982 0.0
1.019836 -0.003517 0.0
1.020111 -0.003105 0.0
1.020352 -0.002740 0.0
1.020564 -0.002418 0.0
1.020750 -0.002133 0.0
1.020914 -0.001882 0.0
1.021059 -0.001660 0.0
1.021186 -0.001464 0.0
1.021297 -0.001292 0.0
1.021396 -0.001140 0.0
1.021482 -0.001006 0.0
1.021558 -0.000888 0.0
1.021625 -0.000784 0.0
1.021683 -0.000694 0.0
1.021734 -0.000614 0.0
1.021778 -0.000545 0.0
1.021817 -0.000485 0.0
1.021850 -0.000433 0.0
1.021878 -0.000389 0.0
1.021902 -0.000353 0.0
1.021921 -0.000323 0.0
1.021936 -0.000300 0.0
1.021947 -0.000283 0.0
1.021953 -0.000274 0.0
1.021954 -0.000272 0.0
1.021950 -0.000278 0.0
1.021940 -0.000293 0.0
1.021922 -0.000318 0.0
1.021895 -0.000355 0.0
1.021858 -0.000405 0.0
1.021807 -0.000471 0.0
1.021739 -0.000554 0.0
1.021650 -0.000656 0.0
1.021534 -0.000780 0.0
1.021386 -0.000926 0.0
1.021199 -0.001094 0.0
1.020966 -0.001282 0.0
1.020680 -0.001485 0.0
1.020337 -0.001706 0.0
0.999446 -0.017786 0.0
0.997219 -0.055283 0.0
0.992689 -0.097203 0.0
0.985720 -0.146731 0.0
0.976340 -0.208480 0.0
0.965482 -0.289893 0.0
0.957334 -0.404287 0.0
0.967916 -0.572876 0.0
1.082754 -0.980318 0.0
1.083438 -0.222660 0.0
0.880813 -0.115271 0.0
0.730402 -0.100666 0.0
0.674060 -0.095347 0.0
0.711688 -0.079936 0.0
0.807444 0.024223 0.0
0.888541 0.150348 0.0
0.936938 0.250490 0.0
0.962810 0.326256 0.0
0.970518 0.378908 0.0
0.963561 0.409494 0.0
0.945883 0.419750 0.0
0.921685 0.412196 0.0
0.895019 0.389817 0.0
0.869460 0.355752 0.0
0.847864 0.313127 0.0
0.832214 0.265002 0.0
0.823554 0.214370 0.0
0.822017 0.164104 0.0
0.826968 0.116783 0.0
0.837247 0.074462 0.0
0.851421 0.038511 0.0
0.867993 0.009566 0.0
0.885610 -0.012462 0.0
0.903170 -0.028191 0.0
0.919825 -0.038539 0.0
0.935022 -0.044564 0.0
0.948472 -0.047303 0.0
0.960102 -0.047672 0.0
0.969988 -0.046425 0.0
0.978289 -0.044147 0.0
0.985208 -0.041270 0.0
0.990951 -0.038100 0.0
0.995714 -0.034846 0.0
0.999668 -0.031646 0.0
1.002959 -0.028583 0.0
1.005710 -0.025707 0.0
1.008018 -0.023043 0.0
1.009964 -0.020599 0.0
1.011612 -0.018374 0.0
1.013014 -0.016359 0.0
1.014212 -0.014544 0.0
1.015238 -0.012913 0.0
1.016121 -0.011453 0.0
1.016884 -0.010149 0.0
1.017543 -0.008987 0.0
1.018115 -0.007952 0.0
1.018612 -0.007032 0.0
1.019045 -0.006216 0.0
1.019423 -0.005492 0.0
1.019753 -0.004851 0.0
1.020041 -0.004283 0.0
1.020294 -0.003781 0.0
1.020515 -0.003336 0.0
1.020710 -0.002944 0.0
1.020880 -0.002597 0.0
1.021029 -0.002290 0.0
1.021161 -0.002020 0.0
1.021276 -0.001782 0.0
1.021377 -0.001571 0.0
1.021466 -0.001386 0.0
1.021545 -0.001222 0.0
1.021613 -0.001078 0.0
1.021673 -0.000951 0.0
1.021726 -0.000840 0.0
1.021772 -0.000742 0.0
1.021812 -0.000656 0.0
1.021846 -0.000581 0.0
1.021875 -0.000516 0.0
1.021900 -0.000460 0.0
1.021921 -0.000411 0.0
1.021937 -0.000371 0.0
1.021950 -0.000337 0.0
1.021958 -0.000309 0.0
1.021962 -0.000288 0.0
1.021961 -0.000274 0.0
1.021955 -0.000267 0.0
1.021943 -0.000267 0.0
1.021923 -0.000275 0.0
1.021895 -0.000291 0.0
1.021857 -0.000317 0.0
1.021807 -0.000355 0.0
1.021741 -0.000404 0.0
1.021657 -0.000468 0.0
1.021550 -0.000546 0.0
1.021415 -0.000640 0.0
1.021249 -0.000751 0.0
1.021044 -0.000878 0.0
1.020796 -0.001018 0.0
1.020500 -0.001169 0.0
1.020153 -0.001332 0.0
0.998806 -0.016038 0.0
0.993911 -0.049908 0.0
0.983541 -0.087678 0.0
0.966318 -0.132064 0.0
0.939649 -0.187099 0.0
0.898778 -0.259545 0.0
0.834502 -0.362212 0.0
0.729687 -0.520717 0.0
0.332195 -0.871466 0.0
-0.493172 0.332155 0.0
-0.493172 0.000000 0.0
-0.039173 -0.025931 0.0
-0.046286 -0.119869 0.0
0.055807 -0.195133 0.0
0.227862 -0.128392 0.0
0.401131 0.048597 0.0
0.517256 0.187719 0.0
0.593228 0.287182 0.0
0.644498 0.359005 0.0
0.676202 0.404650 0.0
0.692978 0.425496 0.0
0.699577 0.424049 0.0
0.700604 0.403602 0.0
0.700227 0.367903 0.0
0.701840 0.320960 0.0
0.707756 0.266903 0.0
0.719074 0.209811 0.0
0.735804 0.153469 0.0
0.757187 0.101083 0.0
0.782039 0.055033 0.0
0.808994 0.016811 0.0
0.836658 -0.012970 0.0
0.863673 -0.034559 0.0
0.888867 -0.048848 0.0
0.911449 -0.057119 0.0
0.931038 -0.060770 0.0
0.947593 -0.061102 0.0
0.961304 -0.059214 0.0
0.972494 -0.055959 0.0
0.981539 -0.051961 0.0
0.988812 -0.047649 0.0
0.994651 -0.043304 0.0
0.999345 -0.039099 0.0
1.003131 -0.035133 0.0
1.006199 -0.031456 0.0
1.008701 -0.028087 0.0
1.010753 -0.025024 0.0
1.012448 -0.022258 0.0
1.013855 -0.019771 0.0
1.015032 -0.017541 0.0
1.016020 -0.015548 0.0
1.016855 -0.013771 0.0
1.017564 -0.012188 0.0
1.018168 -0.010781 0.0
1.018685 -0.009532 0.0
1.019130 -0.008423 0.0
1.019512 -0.007441 0.0
1.019843 -0.006571 0.0
1.020129 -0.005801 0.0
1.020378 -0.005120 0.0
1.020595 -0.004518 0.0
1.020783 -0.003986 0.0
1.020948 -0.003516 0.0
1.021091 -0.003101 0.0
1.021217 -0.002735 0.0
1.021327 -0.002412 0.0
1.021423 -0.002127 0.0
1.021508 -0.001875 0.0
1.021582 -0.001653 0.0
1.021646 -0.001457 0.0
1.021703 -0.001285 0.0
1.021753 -0.001133 0.0
1.021796 -0.001000 0.0
1.021834 -0.000882 0.0
1.021866 -0.000779 0.0
1.021895 -0.000688 0.0
1.021919 -0.000608 0.0
1.021939 -0.000539 0.0
1.021955 -0.000479 0.0
1.021968 -0.000426 0.0
1.021977 -0.000381 0.0
1.021983 -0.000344 0.0
1.021984 -0.000312 0.0
1.021982 -0.000287 0.0
1.021974 -0.000268 0.0
1.021961 -0.000255 0.0
1.021942 -0.000248 0.0
1.021915 -0.000247 0.0
1.021879 -0.000254 0.0
1.021832 -0.000269 0.0
1.021771 -0.000292 0.0
1.021694 -0.000324 0.0
1.021597 -0.000367 0.0
1.021477 -0.000420 0.0
1.021329 -0.000484 0.0
1.021149 -0.000560 0.0
1.020932 -0.000647 0.0
1.020674 -0.000743 0.0
1.020372 -0.000846 0.0
1.020021 -0.000957 0.0
0.998315 -0.013160 0.0
0.991379 -0.040955 0.0
0.976591 -0.071473 0.0
0.951767 -0.106221 0.0
0.912673 -0.147178 0.0
0.851150 -0.197071 0.0
0.750323 -0.259582 0.0
0.570936 -0.339144 0.0
0.227330 -0.426410 0.0
0.000000 0.332155 0.0
-0.000000 -0.000000 0.0
0.000000 0.000000 0.0
-0.075334 -0.075965 0.0
-0.161922 -0.253910 0.0
-0.128767 -0.274826 0.0
0.016713 -0.123717 0.0
0.171516 0.089105 0.0
0.268028 0.213313 0.0
0.343367 0.306265 0.0
0.400205 0.368847 0.0
0.442612 0.402117 0.0
0.474839 0.408603 0.0
0.501115 0.391745 0.0
0.525407 0.355845 0.0
0.550861 0.305951 0.0
0.579372 0.247484 0.0
0.611609 0.185675 0.0
0.647403 0.125081 0.0
0.686141 0.069350 0.0
0.727023 0.021032 0.0
0.768598 -0.017720 0.0
0.808802 -0.046307 0.0
0.845895 -0.065329 0.0
0.878803 -0.076178 0.0
0.907050 -0.080617 0.0
0.930616 -0.080428 0.0
0.949806 -0.077189 0.0
0.965127 -0.072159 0.0
0.977179 -0.066256 0.0
0.986570 -0.060099 0.0
0.993852 -0.054066 0.0
0.999496 -0.048370 0.0
1.003883 -0.043113 0.0
1.007310 -0.038332 0.0
1.010006 -0.034021 0.0
1.012141 -0.030158 0.0
1.013846 -0.026710 0.0
1.015218 -0.023639 0.0
1.016329 -0.020909 0.0
1.017237 -0.018486 0.0
1.017982 -0.016337 0.0
1.018598 -0.014433 0.0
1.019111 -0.012747 0.0
1.019540 -0.011255 0.0
1.019901 -0.009935 0.0
1.020206 -0.008769 0.0
1.020464 -0.007737 0.0
1.020685 -0.006826 0.0
1.020874 -0.006021 0.0
1.021036 -0.005311 0.0
1.021175 -0.004684 0.0
1.021296 -0.004130 0.0
1.021400 -0.003641 0.0
1.021491 -0.003210 0.0
1.021570 -0.002830 0.0
1.021638 -0.002495 0.0
1.021698 -0.002199 0.0
1.021750 -0.001939 0.0
1.021795 -0.001709 0.0
1.021834 -0.001506 0.0
1.021869 -0.001328 0.0
1.021899 -0.001170 0.0
1.021925 -0.001032 0.0
1.021947 -0.000910 0.0
1.021966 -0.000802 0.0
1.021982 -0.000708 0.0
1.021995 -0.000625 0.0
1.022005 -0.000553 0.0
1.022013 -0.000489 0.0
1.022018 -0.000434 0.0
1.022020 -0.000385 0.0
1.022019 -0.000344 0.0
1.022015 -0.000309 0.0
1.022006 -0.000279 0.0
1.021993 -0.000255 0.0
1.021975 -0.000236 0.0
1.021950 -0.000222 0.0
1.021917 -0.000213 0.0
1.021874 -0.000210 0.0
1.021820 -0.000212 0.0
1.021751 -0.000220 0.0
1.021666 -0.000234 0.0
1.021561 -0.000255 0.0
1.021432 -0.000282 0.0
1.021275 -0.000317 0.0
1.021086 -0.000359 0.0
1.020862 -0.000407 0.0
1.020597 -0.000460 0.0
1.020290 -0.000518 0.0
1.019937 -0.000581 0.0
0.998070 -0.009545 0.0
0.990134 -0.029698 0.0
0.973308 -0.051116 0.0
0.945409 -0.073855 0.0
0.902502 -0.097544 0.0
0.837953 -0.120634 0.0
0.740976 -0.138215 0.0
0.596913 -0.137061 0.0
0.397349 -0.078151 0.0
0.141796 0.123699 0.0
0.000000 0.000000 0.0
-0.000000 -0.000000 0.0
0.000000 0.000000 0.0
-0.117130 -0.121328 0.0
-0.248963 -0.304531 0.0
-0.219171 -0.269283 0.0
-0.103045 -0.036259 0.0
0.016435 0.122685 0.0
0.101290 0.236699 0.0
0.169760 0.313104 0.0
0.228233 0.356979 0.0
0.279111 0.370635 0.0
0.325387 0.357160 0.0
0.370287 0.321239 0.0
0.416380 0.269011 0.0
0.465189 0.207106 0.0
0.517493 0.141512 0.0
0.573892 0.077051 0.0
0.633841 0.018692 0.0
0.693824 -0.029175 0.0
0.749830 -0.065094 0.0
0.800009 -0.089316 0.0
0.843746 -0.103151 0.0
0.880992 -0.108511 0.0
0.911996 -0.107536 0.0
0.937213 -0.102293 0.0
0.957262 -0.094562 0.0
0.972869 -0.085713 0.0
0.984806 -0.076690 0.0
0.993816 -0.068065 0.0
1.000565 -0.060130 0.0
1.005608 -0.052992 0.0
1.009382 -0.046653 0.0
1.012222 -0.041060 0.0
1.014372 -0.036140 0.0
1.016013 -0.031816 0.0
1.017273 -0.028017 0.0
1.018248 -0.024678 0.0
1.019008 -0.021741 0.0
1.019603 -0.019157 0.0
1.020073 -0.016881 0.0
1.020445 -0.014877 0.0
1.020742 -0.013112 0.0
1.020980 -0.011557 0.0
1.021172 -0.010186 0.0
1.021328 -0.008978 0.0