# vtk DataFile Version 3.0
Vector Field
ASCII
DATASET RECTILINEAR_GRID
DIMENSIONS 100 26 1
X_COORDINATES 100 double
0.050000 0.150000 0.250000 0.350000 0.450000 0.550000 0.650000 0.750000 0.850000 0.950000 1.050000 1.150000 1.250000 1.350000 1.450000 1.550000 1.650000 1.750000 1.850000 1.950000 2.050000 2.150000 2.250000 2.350000 2.450000 2.550000 2.650000 2.750000 2.850000 2.950000 3.050000 3.150000 3.250000 3.350000 3.450000 3.550000 3.650000 3.750000 3.850000 3.950000 4.050000 4.150000 4.250000 4.350000 4.450000 4.550000 4.650000 4.750000 4.850000 4.950000 5.050000 5.150000 5.250000 5.350000 5.450000 5.550000 5.650000 5.750000 5.850000 5.950000 6.050000 6.150000 6.250000 6.350000 6.450000 6.550000 6.650000 6.750000 6.850000 6.950000 7.050000 7.150000 7.250000 7.350000 7.450000 7.550000 7.650000 7.750000 7.850000 7.950000 8.050000 8.150000 8.250000 8.350000 8.450000 8.550000 8.650000 8.750000 8.850000 8.950000 9.050000 9.150000 9.250000 9.350000 9.450000 9.550000 9.650000 9.750000 9.850000 9.950000 
Y_COORDINATES 26 double
0.050000 0.150000 0.250000 0.350000 0.450000 0.550000 0.650000 0.750000 0.850000 0.950000 1.050000 1.150000 1.250000 1.350000 1.450000 1.550000 1.650000 1.750000 1.850000 1.950000 2.050000 2.150000 2.250000 2.350000 2.450000 2.550000 
Z_COORDINATES 1 double
0.0
POINT_DATA 2600
VECTORS Vektorfeld double
0.997620 0.002380 0.0
0.992668 0.002573 0.0
0.988906 0.001189 0.0
0.988610 -0.000893 0.0
0.992791 -0.003288 0.0
1.001818 -0.005740 0.0
1.015566 -0.008008 0.0
1.033414 -0.009840 0.0
1.054266 -0.011012 0.0
1.076655 -0.011377 0.0
1.098964 -0.010932 0.0
1.119697 -0.009801 0.0
1.137660 -0.008163 0.0
1.152009 -0.006186 0.0
1.162189 -0.003994 0.0
1.167861 -0.001678 0.0
1.168944 0.000595 0.0
1.165398 0.002951 0.0
1.156940 0.005506 0.0
1.143161 0.008273 0.0
1.123679 0.011208 0.0
1.098248 0.014223 0.0
1.066839 0.017187 0.0
1.029705 0.019948 0.0
0.987408 0.022349 0.0
0.940814 0.024245 0.0
0.891055 0.025514 0.0
0.839479 0.026062 0.0
0.787591 0.025826 0.0
0.736993 0.024773 0.0
0.689311 0.022908 0.0
0.646127 0.020276 0.0
0.608886 0.016965 0.0
0.578822 0.013099 0.0
0.556996 0.008728 0.0
0.544606 0.003662 0.0
0.542654 -0.001711 0.0
0.550009 -0.005644 0.0
0.563503 -0.007850 0.0
0.579901 -0.008548 0.0
0.596467 -0.008018 0.0
0.611010 -0.006526 0.0
0.621926 -0.004390 0.0
0.628285 -0.001969 0.0
0.629414 0.000840 0.0
0.623966 0.004608 0.0
0.610406 0.008953 0.0
0.588067 0.013387 0.0
0.557234 0.017446 0.0
0.519081 0.020706 0.0
0.475722 0.022653 0.0
0.430530 0.022539 0.0
0.388381 0.019610 0.0
0.354815 0.013955 0.0
0.333738 0.007122 0.0
0.325208 0.001408 0.0
0.325419 -0.001618 0.0
0.329802 -0.002766 0.0
0.335954 -0.003387 0.0
0.343217 -0.003876 0.0
0.351081 -0.003989 0.0
0.358822 -0.003753 0.0
0.365838 -0.003263 0.0
0.371720 -0.002619 0.0
0.376244 -0.001905 0.0
0.379330 -0.001181 0.0
0.380978 -0.000467 0.0
0.381045 0.000400 0.0
0.379075 0.001570 0.0
0.374676 0.002829 0.0
0.367959 0.003889 0.0
0.359508 0.004562 0.0
0.350234 0.004713 0.0
0.341226 0.004295 0.0
0.333531 0.003400 0.0
0.327871 0.002260 0.0
0.324415 0.001197 0.0
0.322707 0.000510 0.0
0.321830 0.000367 0.0
0.320719 0.000744 0.0
0.318533 0.001442 0.0
0.314922 0.002169 0.0
0.310094 0.002659 0.0
0.304671 0.002764 0.0
0.299411 0.002496 0.0
0.294922 0.001993 0.0
0.291493 0.001436 0.0
0.289093 0.000964 0.0
0.287530 0.000598 0.0
0.286715 0.000217 0.0
0.286748 -0.000249 0.0
0.287697 -0.000701 0.0
0.289482 -0.001084 0.0
0.291900 -0.001334 0.0
0.294631 -0.001398 0.0
0.297277 -0.001248 0.0
0.299424 -0.000899 0.0
0.300744 -0.000421 0.0
0.301153 0.000012 0.0
0.300263 0.000878 0.0
1.002911 0.001848 0.0
1.011236 -0.000268 0.0
1.024059 -0.005031 0.0
1.040855 -0.011174 0.0
1.061661 -0.017994 0.0
1.086506 -0.024905 0.0
1.115184 -0.031269 0.0
1.147136 -0.036379 0.0
1.181379 -0.039568 0.0
1.216553 -0.040383 0.0
1.251152 -0.038834 0.0
1.283859 -0.035339 0.0
1.313747 -0.030475 0.0
1.340284 -0.024760 0.0
1.363226 -0.018542 0.0
1.382424 -0.012000 0.0
1.397485 -0.005227 0.0
1.407842 0.001961 0.0
1.413027 0.009768 0.0
1.412562 0.018255 0.0
1.405974 0.027296 0.0
1.392924 0.036615 0.0
1.373321 0.045806 0.0
1.347392 0.054393 0.0
1.315700 0.061893 0.0
1.279124 0.067870 0.0
1.238816 0.071957 0.0
1.196139 0.073872 0.0
1.152616 0.073426 0.0
1.109867 0.070521 0.0
1.069542 0.065168 0.0
1.033240 0.057502 0.0
1.002429 0.047791 0.0
0.978356 0.036409 0.0
0.961875 0.023725 0.0
0.952882 0.010047 0.0
0.950139 -0.003402 0.0
0.952930 -0.014099 0.0
0.961506 -0.021467 0.0
0.975821 -0.025644 0.0
0.995130 -0.026796 0.0
1.017816 -0.024976 0.0
1.041219 -0.020258 0.0
1.061618 -0.012859 0.0
1.075190 -0.002972 0.0
1.079770 0.009288 0.0
1.074605 0.022997 0.0
1.059518 0.036768 0.0
1.035164 0.049252 0.0
1.003034 0.059183 0.0
0.965357 0.065213 0.0
0.924710 0.065818 0.0
0.883272 0.059919 0.0
0.842167 0.048317 0.0
0.801729 0.034276 0.0
0.762939 0.021574 0.0
0.729273 0.011671 0.0
0.705634 0.003202 0.0
0.694445 -0.004317 0.0
0.693789 -0.009552 0.0
0.700021 -0.012409 0.0
0.710658 -0.013710 0.0
0.724213 -0.013877 0.0
0.739508 -0.013182 0.0
0.755416 -0.011775 0.0
0.770731 -0.009712 0.0
0.784137 -0.006990 0.0
0.794587 -0.003594 0.0
0.801916 0.000206 0.0
0.806665 0.003842 0.0
0.809408 0.006850 0.0
0.810647 0.008812 0.0
0.810880 0.009503 0.0
0.810416 0.008977 0.0
0.809206 0.007623 0.0
0.806818 0.006084 0.0
0.802582 0.005066 0.0
0.795864 0.005067 0.0
0.786340 0.006212 0.0
0.774147 0.008203 0.0
0.759890 0.010425 0.0
0.744564 0.012124 0.0
0.729408 0.012688 0.0
0.715697 0.011868 0.0
0.704489 0.009861 0.0
0.696393 0.007213 0.0
0.691490 0.004548 0.0
0.689488 0.002255 0.0
0.689960 0.000399 0.0
0.692271 -0.001080 0.0
0.695665 -0.002378 0.0
0.699748 -0.003605 0.0
0.704441 -0.004657 0.0
0.709579 -0.005317 0.0
0.714842 -0.005409 0.0
0.719770 -0.004810 0.0
0.723804 -0.003518 0.0
0.726370 -0.001689 0.0
0.726907 0.000334 0.0
0.725773 0.002581 0.0
1.001815 -0.002877 0.0
1.008287 -0.010340 0.0
1.020065 -0.019560 0.0
1.036712 -0.030087 0.0
1.058216 -0.041392 0.0
1.084642 -0.052778 0.0
1.115866 -0.063298 0.0
1.151329 -0.071765 0.0
1.189860 -0.076956 0.0
1.229604 -0.077912 0.0
1.268427 -0.074727 0.0
1.304617 -0.068344 0.0
1.337194 -0.059935 0.0
1.365819 -0.050462 0.0
1.390537 -0.040501 0.0
1.411523 -0.030225 0.0
1.428904 -0.019442 0.0
1.442595 -0.007871 0.0
1.452246 0.004765 0.0
1.457345 0.018625 0.0
1.457318 0.033542 0.0
1.451690 0.049047 0.0
1.440230 0.064437 0.0
1.423025 0.078896 0.0
1.400490 0.091617 0.0
1.373323 0.101888 0.0
1.342445 0.109125 0.0
1.308935 0.112891 0.0
1.273973 0.112892 0.0
1.238790 0.108986 0.0
1.204613 0.101205 0.0
1.172608 0.089773 0.0
1.143809 0.075131 0.0
1.119024 0.057927 0.0
1.098709 0.039004 0.0
1.082924 0.019546 0.0
1.071719 0.001049 0.0
1.065774 -0.015395 0.0
1.066200 -0.029173 0.0
1.073828 -0.039879 0.0
1.088813 -0.046856 0.0
1.110384 -0.049173 0.0
1.136778 -0.045859 0.0
1.165366 -0.036245 0.0
1.192781 -0.020573 0.0
1.215478 -0.000388 0.0
1.230999 0.022316 0.0
1.238218 0.045318 0.0
1.236809 0.066466 0.0
1.227152 0.083756 0.0
1.210130 0.095338 0.0
1.186755 0.099712 0.0
1.157830 0.096389 0.0
1.124100 0.086681 0.0
1.087036 0.073414 0.0
1.049233 0.059028 0.0
1.013157 0.043959 0.0
0.979434 0.028277 0.0
0.947784 0.013446 0.0
0.920096 0.001028 0.0
0.899735 -0.008860 0.0
0.887800 -0.015961 0.0
0.883007 -0.020388 0.0
0.883700 -0.022659 0.0
0.888540 -0.023046 0.0
0.896447 -0.021662 0.0
0.906599 -0.018598 0.0
0.918356 -0.014193 0.0
0.931019 -0.009186 0.0
0.943863 -0.004359 0.0
0.956527 -0.000356 0.0
0.968995 0.002311 0.0
0.981280 0.003485 0.0
0.993278 0.003461 0.0
1.004696 0.002932 0.0
1.015074 0.002784 0.0
1.023897 0.003778 0.0
1.030678 0.006293 0.0
1.035014 0.010175 0.0
1.036635 0.014814 0.0
1.035320 0.019385 0.0
1.030869 0.022941 0.0
1.023134 0.024763 0.0
1.012026 0.024611 0.0
0.997633 0.022719 0.0
0.980429 0.019655 0.0
0.961446 0.015992 0.0
0.942225 0.012033 0.0
0.924542 0.007831 0.0
0.910285 0.003433 0.0
0.901099 -0.001098 0.0
0.897428 -0.005297 0.0
0.898348 -0.008578 0.0
0.902573 -0.010759 0.0
0.909079 -0.011735 0.0
0.916964 -0.011297 0.0
0.925247 -0.009347 0.0
0.932780 -0.005960 0.0
0.938304 -0.001456 0.0
0.940122 0.003687 0.0
1.001425 -0.006116 0.0
1.006959 -0.019107 0.0
1.017780 -0.033393 0.0
1.033896 -0.049018 0.0
1.055604 -0.065673 0.0
1.083305 -0.082624 0.0
1.117229 -0.098599 0.0
1.157022 -0.111720 0.0
1.201369 -0.119880 0.0
1.247441 -0.120805 0.0
1.291693 -0.114910 0.0
1.331672 -0.104328 0.0
1.366438 -0.091294 0.0
1.396113 -0.077403 0.0
1.421311 -0.063476 0.0
1.442719 -0.049644 0.0
1.460815 -0.035501 0.0
1.475671 -0.020360 0.0
1.486862 -0.003590 0.0
1.493647 0.015097 0.0
1.495236 0.035508 0.0
1.490993 0.056951 0.0
1.480637 0.078350 0.0
1.464337 0.098488 0.0
1.442670 0.116226 0.0
1.416495 0.130621 0.0
1.386811 0.140955 0.0
1.354658 0.146725 0.0
1.321056 0.147622 0.0
1.286973 0.143522 0.0
1.253315 0.134504 0.0
1.220912 0.120881 0.0
1.190510 0.103223 0.0
1.162765 0.082365 0.0
1.138255 0.059391 0.0
1.117610 0.035588 0.0
1.101698 0.012123 0.0
1.091642 -0.010468 0.0
1.088673 -0.031557 0.0
1.093799 -0.050248 0.0
1.107402 -0.065075 0.0
1.129066 -0.074188 0.0
1.157621 -0.075793 0.0
1.191245 -0.068524 0.0
1.227418 -0.051882 0.0
1.262668 -0.027026 0.0
1.292984 0.003117 0.0
1.315636 0.034646 0.0
1.329857 0.064325 0.0
1.335740 0.089671 0.0
1.333582 0.108603 0.0
1.323708 0.119697 0.0
1.306440 0.122599 0.0
1.282368 0.118272 0.0
1.252712 0.108544 0.0
1.219258 0.095154 0.0
1.183808 0.079359 0.0
1.147931 0.062478 0.0
1.113116 0.045710 0.0
1.080211 0.029355 0.0
1.049293 0.014093 0.0
1.021328 0.000985 0.0
0.998364 -0.009575 0.0
0.981483 -0.017285 0.0
0.970274 -0.022053 0.0
0.963794 -0.024082 0.0
0.961105 -0.023642 0.0
0.961401 -0.021201 0.0
0.964089 -0.017529 0.0
0.968865 -0.013637 0.0
0.975687 -0.010565 0.0
0.984726 -0.008986 0.0
0.996291 -0.009067 0.0
1.010708 -0.010403 0.0
1.028193 -0.012105 0.0
1.048673 -0.013037 0.0
1.071608 -0.012160 0.0
1.095898 -0.008840 0.0
1.119930 -0.003061 0.0
1.141807 0.004551 0.0
1.159892 0.012878 0.0
1.173100 0.020691 0.0
1.180724 0.027125 0.0
1.182280 0.031800 0.0
1.177654 0.034548 0.0
1.167261 0.035423 0.0
1.151991 0.034477 0.0
1.133061 0.031699 0.0
1.111814 0.027097 0.0
1.089470 0.020769 0.0
1.067050 0.013173 0.0
1.045977 0.005176 0.0
1.028470 -0.002466 0.0
1.016397 -0.009023 0.0
1.010049 -0.013629 0.0
1.008532 -0.015772 0.0
1.010584 -0.015206 0.0
1.014733 -0.011784 0.0
1.019225 -0.005647 0.0
1.020704 0.004582 0.0
1.001223 -0.008764 0.0
1.006122 -0.026892 0.0
1.016054 -0.046360 0.0
1.031449 -0.067563 0.0
1.053087 -0.090473 0.0
1.081996 -0.114434 0.0
1.119153 -0.137870 0.0
1.164827 -0.157915 0.0
1.217992 -0.171197 0.0
1.273730 -0.171297 0.0
1.325188 -0.160129 0.0
1.368857 -0.142756 0.0
1.404478 -0.123253 0.0
1.433334 -0.103976 0.0
1.457126 -0.085892 0.0
1.477416 -0.068926 0.0
1.495310 -0.052208 0.0
1.511174 -0.034372 0.0
1.524411 -0.014005 0.0
1.533600 0.009537 0.0
1.537160 0.035918 0.0
1.533882 0.064062 0.0
1.523220 0.092258 0.0
1.505416 0.118684 0.0
1.481332 0.141780 0.0
1.452179 0.160396 0.0
1.419268 0.173775 0.0
1.383855 0.181472 0.0
1.347055 0.183276 0.0
1.309837 0.179168 0.0
1.273035 0.169318 0.0
1.237398 0.154107 0.0
1.203638 0.134159 0.0
1.172469 0.110343 0.0
1.144656 0.083736 0.0
1.121035 0.055508 0.0
1.102505 0.026645 0.0
1.089910 -0.002340 0.0
1.084021 -0.030829 0.0
1.085477 -0.057557 0.0
1.094609 -0.080501 0.0
1.111491 -0.097308 0.0
1.136152 -0.105889 0.0
1.168571 -0.104471 0.0
1.208123 -0.091660 0.0
1.252684 -0.067059 0.0
1.297834 -0.032316 0.0
1.337201 0.008061 0.0
1.366332 0.047558 0.0
1.384779 0.082109 0.0
1.393470 0.109633 0.0
1.393177 0.128834 0.0
1.384534 0.139373 0.0
1.368236 0.141867 0.0
1.345261 0.137580 0.0
1.316879 0.127955 0.0
1.284486 0.114401 0.0
1.249500 0.098299 0.0
1.213315 0.080889 0.0
1.177216 0.063179 0.0
1.142370 0.046034 0.0
1.109577 0.029803 0.0
1.079133 0.015016 0.0
1.051577 0.002561 0.0
1.027827 -0.006940 0.0
1.008207 -0.013095 0.0
0.992143 -0.015877 0.0
0.978714 -0.015832 0.0
0.967199 -0.014071 0.0
0.957399 -0.012071 0.0
0.949756 -0.011310 0.0
0.945283 -0.012806 0.0
0.945270 -0.016799 0.0
0.950939 -0.022757 0.0
0.963170 -0.029466 0.0
0.982332 -0.035319 0.0
1.008267 -0.038747 0.0
1.040315 -0.038592 0.0
1.077267 -0.034293 0.0
1.117177 -0.026005 0.0
1.157131 -0.014605 0.0
1.193467 -0.001371 0.0
1.222867 0.012162 0.0
1.243659 0.024416 0.0
1.255724 0.034494 0.0
1.259533 0.042061 0.0
1.255844 0.046798 0.0
1.245673 0.048479 0.0
1.230197 0.047040 0.0
1.210711 0.042655 0.0
1.188645 0.035773 0.0
1.165416 0.026877 0.0
1.142122 0.016634 0.0
1.119797 0.006276 0.0
1.099994 -0.002777 0.0
1.084221 -0.009335 0.0
1.072900 -0.012374 0.0
1.065380 -0.011245 0.0
1.060389 -0.005687 0.0
1.055820 0.007711 0.0
1.001021 -0.011008 0.0
1.005178 -0.033704 0.0
1.013831 -0.058134 0.0
1.027780 -0.085134 0.0
1.048385 -0.115146 0.0
1.077597 -0.147882 0.0
1.117753 -0.181736 0.0
1.170637 -0.212607 0.0
1.237221 -0.236255 0.0
1.307303 -0.232059 0.0
1.366005 -0.209528 0.0
1.409763 -0.180784 0.0
1.441210 -0.152293 0.0
1.464116 -0.126698 0.0
1.481849 -0.104695 0.0
1.497176 -0.085740 0.0
1.512160 -0.068273 0.0
1.527881 -0.049893 0.0
1.543912 -0.027751 0.0
1.557769 0.000236 0.0
1.566012 0.033416 0.0
1.566070 0.069784 0.0
1.556822 0.106448 0.0
1.538530 0.140590 0.0
1.512421 0.170066 0.0
1.480160 0.193524 0.0
1.443459 0.210258 0.0
1.403867 0.219995 0.0
1.362697 0.222723 0.0
1.321040 0.218598 0.0
1.279818 0.207912 0.0
1.239859 0.191108 0.0
1.201974 0.168804 0.0
1.167020 0.141820 0.0
1.135903 0.111191 0.0
1.109441 0.078136 0.0
1.088058 0.043930 0.0
1.071437 0.009592 0.0
1.058847 -0.024282 0.0
1.050029 -0.056741 0.0
1.045575 -0.085995 0.0
1.046900 -0.110020 0.0
1.056299 -0.127237 0.0
1.076480 -0.135723 0.0
1.109385 -0.132864 0.0
1.155081 -0.116112 0.0
1.211030 -0.084362 0.0
1.271316 -0.039546 0.0
1.325849 0.011501 0.0
1.366616 0.058952 0.0
1.392847 0.097868 0.0
1.406499 0.127240 0.0
1.409188 0.146920 0.0
1.402311 0.157495 0.0
1.387186 0.160052 0.0
1.365136 0.155914 0.0
1.337497 0.146474 0.0
1.305600 0.133109 0.0
1.270766 0.117098 0.0
1.234271 0.099563 0.0
1.197316 0.081451 0.0
1.160957 0.063538 0.0
1.126080 0.046603 0.0
1.093244 0.031365 0.0
1.062486 0.018765 0.0
1.033437 0.009869 0.0
1.005524 0.005137 0.0
0.978160 0.003947 0.0
0.951248 0.004576 0.0
0.925672 0.004658 0.0
0.903276 0.002000 0.0
0.886333 -0.004700 0.0
0.876992 -0.015552 0.0
0.876696 -0.029377 0.0
0.885761 -0.044141 0.0
0.903592 -0.057637 0.0
0.929200 -0.067972 0.0
0.961548 -0.073765 0.0
0.999638 -0.074161 0.0
1.042393 -0.068802 0.0
1.088453 -0.057821 0.0
1.135896 -0.041932 0.0
1.181846 -0.022627 0.0
1.222316 -0.002057 0.0
1.253710 0.017508 0.0
1.274849 0.034098 0.0
1.286327 0.046971 0.0
1.289064 0.055740 0.0
1.284115 0.060204 0.0
1.272679 0.060413 0.0
1.256080 0.056682 0.0
1.235700 0.049577 0.0
1.212946 0.039982 0.0
1.189192 0.029006 0.0
1.165583 0.017904 0.0
1.143015 0.008324 0.0
1.122345 0.001958 0.0
1.104217 0.000071 0.0
1.088838 0.003367 0.0
1.076903 0.015160 0.0
1.000740 -0.012769 0.0
1.003793 -0.039152 0.0
1.010340 -0.067887 0.0
1.021432 -0.100422 0.0
1.038973 -0.138003 0.0
1.066035 -0.181299 0.0
1.107099 -0.229540 0.0
1.167200 -0.277787 0.0
1.254287 -0.324746 0.0
1.343529 -0.302891 0.0
1.402315 -0.256184 0.0
1.434445 -0.210016 0.0
1.450551 -0.170616 0.0
1.458010 -0.138740 0.0
1.461621 -0.113998 0.0
1.465049 -0.095192 0.0
1.471348 -0.080103 0.0
1.482873 -0.065309 0.0
1.500550 -0.046041 0.0
1.522108 -0.016889 0.0
1.540762 0.023644 0.0
1.549996 0.070263 0.0
1.547458 0.117754 0.0
1.533412 0.161621 0.0
1.509600 0.198956 0.0
1.478207 0.228289 0.0
1.441295 0.249106 0.0
1.400615 0.261418 0.0
1.357603 0.265480 0.0
1.313447 0.261652 0.0
1.269174 0.250353 0.0
1.225737 0.232065 0.0
1.184095 0.207374 0.0
1.145268 0.177031 0.0
1.110277 0.142089 0.0
1.079838 0.104140 0.0
1.053664 0.065483 0.0
1.029727 0.028597 0.0
1.004522 -0.005492 0.0
0.976057 -0.038248 0.0
0.946880 -0.070857 0.0
0.922871 -0.102475 0.0
0.910622 -0.131932 0.0
0.915264 -0.155852 0.0
0.938894 -0.169271 0.0
0.980921 -0.167430 0.0
1.039060 -0.147132 0.0
1.109675 -0.107678 0.0
1.186847 -0.052073 0.0
1.258816 0.009790 0.0
1.314371 0.065244 0.0
1.351794 0.108789 0.0
1.373820 0.140655 0.0
1.382748 0.161711 0.0
1.380540 0.173170 0.0
1.368956 0.176430 0.0
1.349610 0.172945 0.0
1.324009 0.164136 0.0
1.293576 0.151338 0.0
1.259648 0.135746 0.0
1.223457 0.118414 0.0
1.186085 0.100306 0.0
1.148355 0.082440 0.0
1.110670 0.066048 0.0
1.072869 0.052642 0.0
1.034342 0.043568 0.0
0.994519 0.039174 0.0
0.953671 0.038121 0.0
0.913522 0.037464 0.0
0.877103 0.033765 0.0
0.847838 0.024554 0.0
0.828369 0.009158 0.0
0.819784 -0.011484 0.0
0.821725 -0.035090 0.0
0.832946 -0.058715 0.0
0.851897 -0.079845 0.0
0.877214 -0.096687 0.0
0.907883 -0.108068 0.0
0.943191 -0.113255 0.0
0.982561 -0.111834 0.0
1.025377 -0.103665 0.0
1.070783 -0.088938 0.0
1.117502 -0.068291 0.0
1.163657 -0.043017 0.0
1.206316 -0.015584 0.0
1.241577 0.010790 0.0
1.267013 0.033365 0.0
1.282613 0.051009 0.0
1.289135 0.063362 0.0
1.287519 0.070307 0.0
1.278873 0.072034 0.0
1.264421 0.069057 0.0
1.245445 0.062232 0.0
1.223222 0.052733 0.0
1.198959 0.042049 0.0
1.173789 0.031916 0.0
1.148786 0.024040 0.0
1.125026 0.019877 0.0
1.103710 0.020256 0.0
1.087220 0.026697 0.0
1.000339 -0.013849 0.0
1.001773 -0.042559 0.0
1.005044 -0.074299 0.0
1.011199 -0.111257 0.0
1.022342 -0.155852 0.0
1.042425 -0.210596 0.0
1.078532 -0.277413 0.0
1.141659 -0.353142 0.0
1.257773 -0.452594 0.0
1.364590 -0.371101 0.0
1.398249 -0.280419 0.0
1.394942 -0.214604 0.0
1.379315 -0.166507 0.0
1.359842 -0.130834 0.0
1.340089 -0.105762 0.0
1.323059 -0.089825 0.0
1.312010 -0.080719 0.0
1.310724 -0.074933 0.0
1.323165 -0.066534 0.0
1.351312 -0.046102 0.0
1.388867 -0.003352 0.0
1.420597 0.056295 0.0
1.436984 0.117874 0.0
1.438528 0.174004 0.0
1.427834 0.221079 0.0
1.407578 0.257815 0.0
1.379948 0.284121 0.0
1.346645 0.300386 0.0
1.309041 0.307129 0.0
1.268326 0.304875 0.0
1.225599 0.294130 0.0
1.181932 0.275392 0.0
1.138403 0.249217 0.0
1.096079 0.216338 0.0
1.055842 0.178009 0.0
1.017820 0.136682 0.0
0.980351 0.096583 0.0
0.939531 0.062254 0.0
0.891451 0.034136 0.0
0.836283 0.005757 0.0
0.781693 -0.031094 0.0
0.741472 -0.078009 0.0
0.725187 -0.127863 0.0
0.732721 -0.172097 0.0
0.759888 -0.203822 0.0
0.803046 -0.218063 0.0
0.859964 -0.211554 0.0
0.928993 -0.182899 0.0
1.008043 -0.133074 0.0
1.093303 -0.066438 0.0
1.174276 0.004944 0.0
1.238848 0.067094 0.0
1.284290 0.114882 0.0
1.313304 0.149542 0.0
1.328235 0.172614 0.0
1.331117 0.185689 0.0
1.323788 0.190361 0.0
1.307944 0.188165 0.0
1.285148 0.180538 0.0
1.256833 0.168789 0.0
1.224271 0.154124 0.0
1.188498 0.137743 0.0
1.150186 0.121045 0.0
1.109516 0.105799 0.0
1.066240 0.093967 0.0
1.020136 0.086874 0.0
0.971791 0.084036 0.0
0.923285 0.082613 0.0
0.878133 0.078273 0.0
0.840326 0.067182 0.0
0.812995 0.047732 0.0
0.797549 0.020895 0.0
0.793589 -0.010677 0.0
0.799396 -0.043644 0.0
0.812835 -0.074820 0.0
0.832109 -0.101965 0.0
0.855940 -0.123714 0.0
0.883510 -0.139280 0.0
0.914350 -0.148191 0.0
0.948211 -0.150129 0.0
0.984902 -0.144877 0.0
1.024138 -0.132368 0.0
1.065386 -0.112827 0.0
1.107726 -0.086976 0.0
1.149718 -0.056276 0.0
1.189152 -0.023213 0.0
1.222669 0.008415 0.0
1.247627 0.035400 0.0
1.263541 0.056535 0.0
1.270837 0.071454 0.0
1.270227 0.080142 0.0
1.262641 0.082987 0.0
1.249140 0.080779 0.0
1.230854 0.074695 0.0
1.208944 0.066260 0.0
1.184608 0.057211 0.0
1.159124 0.049234 0.0
1.133940 0.043628 0.0
1.110782 0.040977 0.0
1.092608 0.040639 0.0
0.999818 -0.014006 0.0
0.999112 -0.043129 0.0
0.997882 -0.075770 0.0
0.996724 -0.114782 0.0
0.997127 -0.163872 0.0
1.002616 -0.228148 0.0
1.021435 -0.314785 0.0
1.071956 -0.429419 0.0
1.214687 -0.635161 0.0
1.312425 -0.393088 0.0
1.266293 -0.245960 0.0
1.196641 -0.176104 0.0
1.137566 -0.130306 0.0
1.086344 -0.096338 0.0
1.039691 -0.073852 0.0
0.997811 -0.062825 0.0
0.963202 -0.062061 0.0
0.941359 -0.070463 0.0
0.940998 -0.083084 0.0
0.969976 -0.086676 0.0
1.029806 -0.060163 0.0
1.103706 0.007476 0.0
1.164451 0.089560 0.0
1.203036 0.162189 0.0
1.224616 0.222007 0.0
1.232853 0.268906 0.0
1.229934 0.303580 0.0
1.217351 0.326814 0.0
1.196365 0.339290 0.0
1.168202 0.341592 0.0
1.134089 0.334253 0.0
1.095206 0.317819 0.0
1.052512 0.293013 0.0
1.006194 0.261183 0.0
0.954482 0.225112 0.0
0.892822 0.189261 0.0
0.816752 0.157542 0.0
0.729573 0.129294 0.0
0.646543 0.098207 0.0
0.587010 0.056386 0.0
0.560610 -0.000732 0.0
0.561943 -0.069483 0.0
0.579826 -0.137987 0.0
0.607162 -0.196843 0.0
0.641555 -0.240636 0.0
0.683146 -0.265998 0.0
0.733029 -0.270420 0.0
0.792235 -0.252268 0.0
0.860988 -0.211509 0.0
0.938250 -0.150526 0.0
1.021187 -0.074878 0.0
1.100768 0.002764 0.0
1.165776 0.068760 0.0
1.213119 0.119307 0.0
1.244842 0.156195 0.0
1.262832 0.181236 0.0
1.268826 0.196148 0.0
1.264470 0.202579 0.0
1.251310 0.202080 0.0
1.230767 0.196103 0.0
1.204076 0.186062 0.0
1.172183 0.173471 0.0
1.135646 0.160167 0.0
1.094646 0.148348 0.0
1.049306 0.140034 0.0
1.000356 0.135861 0.0
0.949833 0.133916 0.0
0.901234 0.129839 0.0
0.858753 0.118680 0.0
0.825941 0.097393 0.0
0.804653 0.066139 0.0
0.794863 0.027725 0.0
0.795199 -0.013883 0.0
0.803600 -0.054647 0.0
0.817967 -0.091623 0.0
0.836606 -0.123075 0.0
0.858298 -0.148128 0.0
0.882276 -0.166414 0.0
0.908164 -0.177785 0.0
0.935891 -0.182121 0.0
0.965560 -0.179245 0.0
0.997286 -0.168962 0.0
1.031027 -0.151221 0.0
1.066441 -0.126337 0.0
1.102783 -0.095248 0.0
1.138816 -0.059707 0.0
1.172663 -0.022456 0.0
1.201483 0.012493 0.0
1.223013 0.041998 0.0
1.236674 0.065032 0.0
1.242610 0.081237 0.0
1.241323 0.090766 0.0
1.233562 0.094263 0.0
1.220234 0.092824 0.0
1.202371 0.087904 0.0
1.181133 0.081140 0.0
1.157863 0.074059 0.0
1.134165 0.067686 0.0
1.111971 0.062271 0.0
1.094239 0.055251 0.0
0.999231 -0.013055 0.0
0.996089 -0.040232 0.0
0.989589 -0.070937 0.0
0.979377 -0.108246 0.0
0.965146 -0.156579 0.0
0.947280 -0.223064 0.0
0.929125 -0.320532 0.0
0.925513 -0.470581 0.0
1.019162 -0.830380 0.0
1.016225 -0.192217 0.0
0.830547 -0.104241 0.0
0.687566 -0.094862 0.0
0.604971 -0.069879 0.0
0.541386 -0.041958 0.0
0.482083 -0.022277 0.0
0.430386 -0.020823 0.0
0.398470 -0.037538 0.0
0.395522 -0.070194 0.0
0.424435 -0.111905 0.0
0.483193 -0.145591 0.0
0.567471 -0.145357 0.0
0.673623 -0.087382 0.0
0.782729 0.014566 0.0
0.869664 0.111664 0.0
0.932301 0.188316 0.0
0.977630 0.249031 0.0
1.007844 0.296159 0.0
1.023857 0.330805 0.0
1.026553 0.353589 0.0
1.016997 0.365012 0.0
0.996305 0.365639 0.0
0.965314 0.356308 0.0
0.923949 0.338584 0.0
0.870408 0.315471 0.0
0.801627 0.291316 0.0
0.717418 0.268926 0.0
0.626527 0.244839 0.0
0.546402 0.209301 0.0
0.493426 0.154206 0.0
0.473278 0.080069 0.0
0.480338 -0.005074 0.0
0.503220 -0.089357 0.0
0.532178 -0.164953 0.0
0.562742 -0.227776 0.0
0.594110 -0.275464 0.0
0.627508 -0.306159 0.0
0.665242 -0.317877 0.0
0.709847 -0.308621 0.0
0.763176 -0.277237 0.0
0.825694 -0.224577 0.0
0.896205 -0.154275 0.0
0.971710 -0.072924 0.0
1.044045 0.007106 0.0
1.103818 0.073845 0.0
1.148412 0.125341 0.0
1.179052 0.163459 0.0
1.197049 0.189934 0.0
1.203747 0.206452 0.0
1.200479 0.214636 0.0
1.188494 0.216074 0.0
1.168876 0.212401 0.0
1.142438 0.205462 0.0
1.109698 0.197452 0.0
1.071060 0.190701 0.0
1.027305 0.186776 0.0
0.980242 0.185131 0.0
0.933048 0.182362 0.0
0.889822 0.173217 0.0
0.854424 0.153182 0.0
0.829289 0.120837 0.0
0.815005 0.078268 0.0
0.810711 0.029680 0.0
0.814771 -0.020232 0.0
0.825240 -0.067169 0.0
0.840242 -0.108471 0.0
0.858191 -0.142814 0.0
0.877864 -0.169755 0.0
0.898450 -0.189351 0.0
0.919560 -0.201847 0.0
0.941207 -0.207433 0.0
0.963702 -0.206098 0.0
0.987495 -0.197628 0.0
1.012968 -0.181768 0.0
1.040252 -0.158489 0.0
1.069102 -0.128288 0.0
1.098826 -0.092425 0.0
1.128269 -0.053029 0.0
1.155685 -0.013170 0.0
1.178703 0.023113 0.0
1.195589 0.053370 0.0
1.205827 0.076726 0.0
1.209416 0.092974 0.0
1.206717 0.102515 0.0
1.198348 0.106270 0.0
1.185133 0.105537 0.0
1.168107 0.101770 0.0
1.148558 0.096248 0.0
1.128079 0.089675 0.0
1.108582 0.081972 0.0
1.092713 0.069152 0.0
0.998685 -0.010971 0.0
0.993270 -0.033759 0.0
0.981779 -0.059419 0.0
0.962727 -0.090500 0.0
0.933349 -0.130717 0.0
0.888557 -0.186268 0.0
0.818356 -0.268972 0.0
0.703176 -0.403349 0.0
0.315561 -0.704098 0.0
-0.461753 0.245309 0.0
-0.461753 0.000000 0.0
-0.032814 -0.022897 0.0
-0.062989 -0.038991 0.0
-0.048665 -0.023585 0.0
-0.014326 -0.015686 0.0
0.027122 -0.017164 0.0
0.057492 -0.039651 0.0
0.079397 -0.087039 0.0
0.105829 -0.150405 0.0
0.148483 -0.208502 0.0
0.214012 -0.232252 0.0
0.304354 -0.196980 0.0
0.417424 -0.098012 0.0
0.532376 0.022356 0.0
0.627263 0.120101 0.0
0.702383 0.196797 0.0
0.761044 0.259518 0.0
0.802907 0.309570 0.0
0.827871 0.347163 0.0
0.836280 0.372585 0.0
0.828478 0.386559 0.0
0.804268 0.390587 0.0
0.762604 0.387334 0.0
0.702663 0.380203 0.0
0.627494 0.370534 0.0
0.548029 0.353381 0.0
0.481374 0.317930 0.0
0.441808 0.255902 0.0
0.432995 0.169393 0.0
0.448879 0.069147 0.0
0.478931 -0.031264 0.0
0.513477 -0.120596 0.0
0.546941 -0.196137 0.0
0.577038 -0.257254 0.0
0.603410 -0.303726 0.0
0.627312 -0.335198 0.0
0.651394 -0.350654 0.0
0.679190 -0.348245 0.0
0.714156 -0.325909 0.0
0.758503 -0.282770 0.0
0.812431 -0.220521 0.0
0.874130 -0.143883 0.0
0.940023 -0.060162 0.0
1.002438 0.018924 0.0
1.054018 0.084089 0.0
1.093029 0.135060 0.0
1.120006 0.173359 0.0
1.135765 0.200570 0.0
1.141245 0.218307 0.0
1.137387 0.228246 0.0
1.125025 0.232210 0.0
1.104817 0.232299 0.0
1.077316 0.230856 0.0
1.043290 0.229961 0.0
1.004256 0.230306 0.0
0.962905 0.230014 0.0
0.922985 0.224594 0.0
0.888421 0.208775 0.0
0.862154 0.179290 0.0
0.845453 0.136564 0.0
0.838080 0.084198 0.0
0.838928 0.027195 0.0
0.846471 -0.029349 0.0
0.858972 -0.081022 0.0
0.874715 -0.125363 0.0
0.892180 -0.161336 0.0
0.910127 -0.188854 0.0
0.927680 -0.208391 0.0
0.944400 -0.220636 0.0
0.960305 -0.226195 0.0
0.975831 -0.225357 0.0
0.991689 -0.218020 0.0
1.008648 -0.203808 0.0
1.027293 -0.182379 0.0
1.047839 -0.153794 0.0
1.070040 -0.118843 0.0
1.093182 -0.079196 0.0
1.116131 -0.037368 0.0
1.137169 0.003256 0.0
1.154405 0.039105 0.0
1.166631 0.068527 0.0
1.173372 0.090844 0.0
1.174589 0.106128 0.0
1.170573 0.115043 0.0
1.161895 0.118657 0.0
1.149399 0.118171 0.0
1.134228 0.114567 0.0
1.117842 0.108221 0.0
1.101985 0.098780 0.0
1.088841 0.081359 0.0
0.998303 -0.007959 0.0
0.991305 -0.024356 0.0
0.976383 -0.042409 0.0
0.951386 -0.063461 0.0
0.912174 -0.089168 0.0
0.850765 -0.121616 0.0
0.750480 -0.163138 0.0
0.572083 -0.215607 0.0
0.228198 -0.257637 0.0
0.000000 0.245309 0.0
-0.000000 -0.000000 0.0
0.000000 0.000000 0.0
-0.022059 -0.020815 0.0
-0.049012 -0.030378 0.0
-0.055821 -0.036423 0.0
-0.067383 -0.026312 0.0
-0.090874 -0.037382 0.0
-0.115405 -0.086683 0.0
-0.127049 -0.165549 0.0
-0.116785 -0.246275 0.0
-0.079551 -0.297243 0.0
-0.008319 -0.293563 0.0
0.097332 -0.220150 0.0
0.224293 -0.097419 0.0
0.346067 0.023215 0.0
0.445204 0.119425 0.0
0.523984 0.199449 0.0
0.584351 0.267411 0.0
0.625612 0.323097 0.0
0.647257 0.366598 0.0
0.648775 0.398830 0.0
0.629718 0.421583 0.0
0.590843 0.436878 0.0
0.536769 0.444675 0.0
0.478471 0.439530 0.0
0.431544 0.410777 0.0
0.408909 0.349824 0.0
0.414097 0.258385 0.0
0.441689 0.148130 0.0
0.482665 0.033551 0.0
0.527239 -0.070294 0.0
0.568722 -0.157596 0.0
0.604698 -0.228577 0.0
0.633903 -0.284114 0.0
0.655996 -0.325330 0.0
0.671770 -0.353271 0.0
0.683428 -0.368321 0.0
0.694643 -0.369589 0.0
0.709997 -0.354885 0.0
0.733664 -0.321809 0.0
0.767921 -0.269666 0.0
0.812394 -0.200911 0.0
0.864460 -0.121093 0.0
0.919829 -0.037930 0.0
0.971487 0.037706 0.0
1.013987 0.099932 0.0
1.046256 0.149241 0.0
1.068330 0.186855 0.0
1.080621 0.214251 0.0
1.083672 0.233110 0.0
1.078017 0.245362 0.0
1.064174 0.253198 0.0
1.042808 0.258823 0.0
1.015119 0.263709 0.0
0.983255 0.267457 0.0
0.950416 0.267052 0.0
0.920316 0.257576 0.0
0.896165 0.234507 0.0
0.879814 0.196177 0.0
0.871626 0.144567 0.0
0.870992 0.084202 0.0
0.876901 0.020434 0.0
0.887984 -0.041214 0.0
0.902584 -0.096259 0.0
0.919092 -0.142377 0.0
0.936061 -0.178756 0.0
0.952294 -0.205613 0.0
0.966917 -0.223809 0.0
0.979463 -0.234483 0.0
0.989927 -0.238718 0.0
0.998788 -0.237221 0.0
1.006921 -0.230147 0.0
1.015405 -0.217125 0.0
1.025250 -0.197553 0.0
1.037135 -0.171051 0.0
1.051247 -0.137899 0.0
1.067256 -0.099291 0.0
1.084373 -0.057339 0.0
1.101424 -0.014864 0.0
1.116814 0.024600 0.0
1.129068 0.058552 0.0
1.137336 0.085810 0.0
1.141222 0.106058 0.0
1.140702 0.119648 0.0
1.136075 0.127358 0.0
1.127957 0.130085 0.0
1.117289 0.128492 0.0
1.105319 0.122652 0.0
1.093521 0.112004 0.0
1.083569 0.091230 0.0
0.998161 -0.004423 0.0
0.990599 -0.013332 0.0
0.974571 -0.022483 0.0
0.948043 -0.031861 0.0
0.907416 -0.040930 0.0
0.846774 -0.047802 0.0
0.757272 -0.047165 0.0
0.628183 -0.024094 0.0
0.464272 0.061802 0.0
0.188093 0.170064 0.0
0.000000 0.000000 0.0
-0.000000 -0.000000 0.0
0.000000 0.000000 0.0
-0.014437 -0.012742 0.0
-0.051053 -0.012329 0.0
-0.111662 0.021765 0.0
-0.183369 0.009740 0.0
-0.237658 -0.054985 0.0
-0.264234 -0.159027 0.0
-0.263601 -0.263693 0.0
-0.242087 -0.338574 0.0
-0.200502 -0.365050 0.0
-0.127468 -0.327348 0.0
-0.015384 -0.229266 0.0
0.111832 -0.093928 0.0
0.224359 0.024904 0.0
0.315357 0.124192 0.0
0.386463 0.211195 0.0
0.437832 0.286682 0.0
0.468631 0.350569 0.0
0.478550 0.403423 0.0
0.468843 0.445754 0.0
0.444132 0.476294 0.0
0.413922 0.489544 0.0
0.391364 0.475515 0.0
0.387972 0.425111 0.0
0.407968 0.338130 0.0
0.447787 0.225072 0.0
0.500306 0.101331 0.0
0.556623 -0.016944 0.0
0.608914 -0.116664 0.0
0.653895 -0.197691 0.0
0.690595 -0.261158 0.0
0.718395 -0.308537 0.0
0.737054 -0.341660 0.0
0.746901 -0.362563 0.0
0.749226 -0.373012 0.0
0.746806 -0.373693 0.0
0.744114 -0.363442 0.0
0.746592 -0.339398 0.0
0.758918 -0.298659 0.0
0.783193 -0.240666 0.0
0.818335 -0.168545 0.0
0.860922 -0.088434 0.0
0.905861 -0.008387 0.0
0.947145 0.062239 0.0
0.981013 0.120796 0.0
1.006508 0.167730 0.0
1.023409 0.204184 0.0
1.031806 0.231729 0.0
1.031947 0.252257 0.0
1.024264 0.267829 0.0
1.009608 0.280214 0.0
0.989580 0.290036 0.0
0.966734 0.295839 0.0
0.944331 0.293912 0.0
0.925568 0.279580 0.0
0.912683 0.249539 0.0
0.906547 0.203631 0.0
0.906956 0.144892 0.0
0.913201 0.078266 0.0
0.924372 0.009289 0.0
0.939108 -0.055886 0.0