# vtk DataFile Version 3.0
Scalar Field
ASCII
DATASET RECTILINEAR_GRID
DIMENSIONS 100 26 1
X_COORDINATES 100 double
0.050000 0.150000 0.250000 0.350000 0.450000 0.550000 0.650000 0.750000 0.850000 0.950000 1.050000 1.150000 1.250000 1.350000 1.450000 1.550000 1.650000 1.750000 1.850000 1.950000 2.050000 2.150000 2.250000 2.350000 2.450000 2.550000 2.650000 2.750000 2.850000 2.950000 3.050000 3.150000 3.250000 3.350000 3.450000 3.550000 3.650000 3.750000 3.850000 3.950000 4.050000 4.150000 4.250000 4.350000 4.450000 4.550000 4.650000 4.750000 4.850000 4.950000 5.050000 5.150000 5.250000 5.350000 5.450000 5.550000 5.650000 5.750000 5.850000 5.950000 6.050000 6.150000 6.250000 6.350000 6.450000 6.550000 6.650000 6.750000 6.850000 6.950000 7.050000 7.150000 7.250000 7.350000 7.450000 7.550000 7.650000 7.750000 7.850000 7.950000 8.050000 8.150000 8.250000 8.350000 8.450000 8.550000 8.650000 8.750000 8.850000 8.950000 9.050000 9.150000 9.250000 9.350000 9.450000 9.550000 9.650000 9.750000 9.850000 9.950000 
Y_COORDINATES 26 double
0.050000 0.150000 0.250000 0.350000 0.450000 0.550000 0.650000 0.750000 0.850000 0.950000 1.050000 1.150000 1.250000 1.350000 1.450000 1.550000 1.650000 1.750000 1.850000 1.950000 2.050000 2.150000 2.250000 2.350000 2.450000 2.550000 
Z_COORDINATES 1 double
0.0
POINT_DATA 2600
SCALARS Skalarfeld double 1
LOOKUP_TABLE default
0.231216
0.215858
0.200391
0.181805
0.158986
0.131480
0.099277
0.062816
0.023079
-0.018371
-0.059494
-0.098100
-0.132277
-0.160330
-0.180909
-0.193843
-0.199534
-0.198838
-0.192897
-0.182966
-0.170266
-0.155888
-0.140727
-0.125466
-0.110581
-0.096377
-0.083028
-0.070634
-0.059255
-0.048936
-0.039708
-0.031593
-0.024541
-0.018325
-0.012994
-0.008524
-0.004847
-0.001882
0.000454
0.002243
0.003559
0.004468
0.005029
0.005295
0.005311
0.005116
0.004745
0.004229
0.003590
0.002853
0.002033
0.001147
0.000207
-0.000777
-0.001797
-0.002845
-0.003915
-0.005003
-0.006106
-0.007220
-0.008342
-0.009472
-0.010606
-0.011745
-0.012886
-0.014029
-0.015174
-0.016320
-0.017467
-0.018614
-0.019761
-0.020908
-0.022055
-0.023202
-0.024349
-0.025496
-0.026643
-0.027790
-0.028937
-0.030085
-0.031234
-0.032385
-0.033537
-0.034692
-0.035849
-0.037012
-0.038179
-0.039354
-0.040538
-0.041734
-0.042946
-0.044179
-0.045440
-0.046737
-0.048086
-0.049505
-0.051026
-0.052700
-0.054612
-0.055663
0.222559
0.216006
0.203520
0.186075
0.163525
0.135670
0.102522
0.064521
0.022729
-0.021079
-0.064501
-0.104969
-0.140180
-0.168619
-0.189493
-0.202267
-0.207404
-0.205846
-0.198827
-0.187697
-0.173766
-0.158202
-0.141960
-0.125767
-0.110124
-0.095345
-0.081601
-0.068976
-0.057509
-0.047209
-0.038064
-0.030013
-0.022973
-0.017005
-0.011937
-0.007703
-0.004223
-0.001417
0.000795
0.002488
0.003730
0.004583
0.005102
0.005336
0.005328
0.005116
0.004733
0.004207
0.003563
0.002822
0.002001
0.001114
0.000174
-0.000809
-0.001827
-0.002873
-0.003942
-0.005028
-0.006129
-0.007241
-0.008362
-0.009489
-0.010622
-0.011759
-0.012899
-0.014041
-0.015185
-0.016329
-0.017475
-0.018621
-0.019767
-0.020914
-0.022060
-0.023206
-0.024353
-0.025499
-0.026645
-0.027792
-0.028938
-0.030086
-0.031234
-0.032383
-0.033535
-0.034688
-0.035844
-0.037004
-0.038169
-0.039340
-0.040520
-0.041710
-0.042915
-0.044136
-0.045381
-0.046656
-0.047969
-0.049331
-0.050752
-0.052237
-0.053750
-0.054903
0.226044
0.221839
0.211202
0.194701
0.172261
0.143605
0.108585
0.067522
0.021555
-0.027151
-0.075347
-0.119728
-0.157721
-0.187742
-0.209229
-0.221555
-0.225373
-0.221801
-0.212266
-0.198323
-0.181492
-0.163121
-0.144313
-0.125898
-0.108448
-0.092312
-0.077667
-0.064564
-0.052980
-0.042838
-0.034035
-0.026443
-0.019939
-0.014423
-0.009812
-0.005991
-0.002866
-0.000353
0.001621
0.003124
0.004214
0.004946
0.005370
0.005529
0.005463
0.005205
0.004788
0.004236
0.003573
0.002817
0.001986
0.001092
0.000147
-0.000838
-0.001858
-0.002904
-0.003972
-0.005058
-0.006157
-0.007267
-0.008386
-0.009512
-0.010643
-0.011778
-0.012917
-0.014057
-0.015199
-0.016343
-0.017487
-0.018632
-0.019777
-0.020922
-0.022068
-0.023213
-0.024358
-0.025503
-0.026649
-0.027794
-0.028940
-0.030086
-0.031233
-0.032381
-0.033530
-0.034681
-0.035834
-0.036990
-0.038151
-0.039316
-0.040488
-0.041668
-0.042858
-0.044061
-0.045280
-0.046518
-0.047777
-0.049058
-0.050355
-0.051644
-0.052862
-0.054008
0.237360
0.233906
0.224246
0.208345
0.185760
0.155814
0.117902
0.071969
0.019140
-0.037858
-0.093902
-0.144297
-0.186124
-0.218033
-0.239836
-0.251068
-0.252601
-0.245796
-0.232354
-0.214140
-0.192978
-0.170484
-0.147968
-0.126399
-0.106428
-0.088427
-0.072548
-0.058784
-0.047013
-0.037048
-0.028670
-0.021653
-0.015790
-0.010910
-0.006873
-0.003558
-0.000878
0.001256
0.002913
0.004153
0.005029
0.005587
0.005869
0.005913
0.005755
0.005425
0.004949
0.004351
0.003652
0.002869
0.002016
0.001106
0.000150
-0.000845
-0.001870
-0.002921
-0.003991
-0.005078
-0.006179
-0.007289
-0.008408
-0.009533
-0.010663
-0.011797
-0.012934
-0.014073
-0.015214
-0.016357
-0.017500
-0.018643
-0.019787
-0.020931
-0.022076
-0.023220
-0.024364
-0.025508
-0.026652
-0.027797
-0.028941
-0.030086
-0.031231
-0.032376
-0.033523
-0.034671
-0.035821
-0.036972
-0.038127
-0.039285
-0.040447
-0.041615
-0.042788
-0.043970
-0.045159
-0.046357
-0.047561
-0.048766
-0.049959
-0.051115
-0.052186
-0.053295
0.255093
0.252015
0.243069
0.227743
0.205040
0.173546
0.131727
0.078607
0.014968
-0.055976
-0.124407
-0.183189
-0.229528
-0.263028
-0.284129
-0.293063
-0.290840
-0.279075
-0.259860
-0.235527
-0.208344
-0.180284
-0.152905
-0.127320
-0.104230
-0.083981
-0.066650
-0.052113
-0.040117
-0.030334
-0.022413
-0.016015
-0.010841
-0.006652
-0.003261
-0.000529
0.001636
0.003323
0.004602
0.005524
0.006134
0.006472
0.006574
0.006471
0.006192
0.005764
0.005209
0.004549
0.003799
0.002976
0.002092
0.001158
0.000183
-0.000826
-0.001862
-0.002921
-0.003998
-0.005089
-0.006192
-0.007304
-0.008424
-0.009549
-0.010679
-0.011813
-0.012950
-0.014088
-0.015229
-0.016370
-0.017512
-0.018655
-0.019797
-0.020941
-0.022084
-0.023227
-0.024370
-0.025513
-0.026656
-0.027799
-0.028942
-0.030085
-0.031228
-0.032371
-0.033515
-0.034660
-0.035805
-0.036952
-0.038099
-0.039249
-0.040401
-0.041555
-0.042711
-0.043870
-0.045030
-0.046189
-0.047344
-0.048486
-0.049602
-0.050671
-0.051663
-0.052742
0.278538
0.275845
0.267821
0.253546
0.231331
0.198631
0.152207
0.088982
0.008297
-0.087269
-0.174693
-0.243565
-0.293673
-0.327378
-0.346031
-0.351012
-0.343113
-0.324053
-0.296519
-0.263589
-0.228186
-0.192755
-0.159137
-0.128566
-0.101729
-0.078874
-0.059920
-0.044561
-0.032357
-0.022805
-0.015400
-0.009678
-0.005246
-0.001798
0.000895
0.002980
0.004570
0.005758
0.006608
0.007168
0.007474
0.007558
0.007448
0.007171
0.006749
0.006203
0.005553
0.004815
0.004004
0.003131
0.002207
0.001242
0.000242
-0.000786
-0.001837
-0.002907
-0.003992
-0.005090
-0.006198
-0.007313
-0.008435
-0.009562
-0.010693
-0.011827
-0.012964
-0.014102
-0.015242
-0.016382
-0.017524
-0.018666
-0.019808
-0.020950
-0.022092
-0.023234
-0.024376
-0.025518
-0.026660
-0.027801
-0.028943
-0.030084
-0.031225
-0.032366
-0.033507
-0.034648
-0.035789
-0.036929
-0.038070
-0.039211
-0.040352
-0.041493
-0.042632
-0.043769
-0.044901
-0.046026
-0.047139
-0.048231
-0.049291
-0.050304
-0.051250
-0.052309
0.306980
0.304859
0.298362
0.286226
0.266020
0.233673
0.183062
0.106501
-0.001815
-0.143969
-0.257640
-0.333447
-0.382576
-0.413787
-0.428248
-0.428137
-0.412612
-0.383377
-0.344244
-0.299551
-0.253192
-0.208213
-0.166748
-0.130087
-0.098820
-0.072994
-0.052273
-0.036087
-0.023744
-0.014520
-0.007729
-0.002767
0.000854
0.003506
0.005455
0.006835
0.007802
0.008452
0.008841
0.009009
0.008984
0.008790
0.008448
0.007977
0.007395
0.006718
0.005960
0.005134
0.004252
0.003322
0.002353
0.001351
0.000322
-0.000729
-0.001798
-0.002882
-0.003978
-0.005084
-0.006197
-0.007317
-0.008443
-0.009572
-0.010704
-0.011839
-0.012976
-0.014115
-0.015254
-0.016394
-0.017535
-0.018676
-0.019818
-0.020959
-0.022100
-0.023242
-0.024383
-0.025523
-0.026664
-0.027804
-0.028944
-0.030083
-0.031222
-0.032360
-0.033498
-0.034635
-0.035772
-0.036907
-0.038041
-0.039174
-0.040304
-0.041432
-0.042555
-0.043672
-0.044780
-0.045876
-0.046955
-0.048009
-0.049029
-0.050003
-0.050920
-0.051968
0.339353
0.338096
0.334038
0.325760
0.310301
0.282013
0.230628
0.139106
-0.016387
-0.252486
-0.389405
-0.452134
-0.487294
-0.513518
-0.527003
-0.523727
-0.499763
-0.457514
-0.403255
-0.343451
-0.283330
-0.226632
-0.175744
-0.131932
-0.095585
-0.066448
-0.043842
-0.026849
-0.014461
-0.005683
0.000383
0.004497
0.007248
0.009064
0.010223
0.010857
0.011182
0.011279
0.011195
0.010960
0.010593
0.010109
0.009523
0.008848
0.008097
0.007280
0.006408
0.005488
0.004530
0.003538
0.002519
0.001477
0.000417
-0.000660
-0.001749
-0.002848
-0.003956
-0.005072
-0.006192
-0.007318
-0.008447
-0.009579
-0.010714
-0.011850
-0.012988
-0.014127
-0.015266
-0.016406
-0.017547
-0.018687
-0.019828
-0.020969
-0.022109
-0.023249
-0.024389
-0.025529
-0.026668
-0.027807
-0.028945
-0.030083
-0.031220
-0.032356
-0.033490
-0.034624
-0.035756
-0.036886
-0.038014
-0.039139
-0.040259
-0.041375
-0.042483
-0.043583
-0.044671
-0.045744
-0.046795
-0.047821
-0.048812
-0.049760
-0.050659
-0.051700
0.374044
0.373967
0.373361
0.371026
0.364183
0.346636
0.304423
0.205817
-0.029609
-0.474027
-0.577495
-0.571123
-0.570830
-0.592113
-0.621375
-0.625161
-0.595270
-0.539045
-0.467886
-0.391327
-0.316123
-0.246684
-0.185615
-0.134123
-0.092363
-0.059747
-0.035211
-0.017448
-0.005090
0.003163
0.008449
0.011693
0.013585
0.014600
0.014886
0.014808
0.014518
0.014088
0.013551
0.012924
0.012221
0.011451
0.010622
0.009743
0.008820
0.007862
0.006872
0.005857
0.004820
0.003765
0.002695
0.001612
0.000519
-0.000584
-0.001694
-0.002810
-0.003931
-0.005056
-0.006185
-0.007316
-0.008450
-0.009585
-0.010722
-0.011860
-0.012999
-0.014138
-0.015278
-0.016418
-0.017558
-0.018698
-0.019838
-0.020978
-0.022118
-0.023257
-0.024396
-0.025535
-0.026673
-0.027810
-0.028947
-0.030083
-0.031218
-0.032352
-0.033484
-0.034614
-0.035743
-0.036868
-0.037990
-0.039107
-0.040220
-0.041325
-0.042421
-0.043507
-0.044578
-0.045631
-0.046663
-0.047667
-0.048637
-0.049568
-0.050454
-0.051491
0.408864
0.410174
0.413741
0.419055
0.424656
0.426451
0.412624
0.346347
0.069607
-0.861938
-0.782702
-0.632532
-0.593430
-0.606196
-0.663752
-0.699071
-0.671742
-0.606278
-0.522195
-0.432304
-0.344704
-0.264469
-0.194539
-0.136221
-0.089582
-0.053812
-0.027539
-0.009111
0.003187
0.010954
0.015559
0.018078
0.019282
0.019494
0.019045
0.018376
0.017581
0.016706
0.015774
0.014798
0.013787
0.012748
0.011689
0.010614
0.009528
0.008432
0.007329
0.006221
0.005108
0.003991
0.002871
0.001747
0.000621
-0.000507
-0.001638
-0.002770
-0.003905
-0.005040
-0.006176
-0.007314
-0.008452
-0.009591
-0.010730
-0.011870
-0.013010
-0.014150
-0.015290
-0.016430
-0.017569
-0.018709
-0.019849
-0.020988
-0.022127
-0.023266
-0.024404
-0.025541
-0.026678
-0.027815
-0.028950
-0.030085
-0.031218
-0.032349
-0.033479
-0.034607
-0.035732
-0.036853
-0.037970
-0.039082
-0.040187
-0.041284
-0.042370
-0.043444
-0.044502
-0.045542
-0.046558
-0.047546
-0.048502
-0.049421
-0.050299
-0.051335
0.441241
0.443903
0.451601
0.464759
0.483999
0.509802
0.541232
0.570674
0.632689
-0.114625
-0.697846
-0.612991
-0.600112
-0.609207
-0.653500
-0.708666
-0.700666
-0.634471
-0.546947
-0.452412
-0.359525
-0.273973
-0.199237
-0.136967
-0.087386
-0.049685
-0.022371
-0.003584
0.008633
0.016103
0.020353
0.022552
0.023327
0.022872
0.022112
0.021167
0.020098
0.018942
0.017726
0.016474
0.015206
0.013935
0.012671
0.011419
0.010183
0.008962
0.007755
0.006561
0.005377
0.004203
0.003036
0.001874
0.000718
-0.000435
-0.001586
-0.002734
-0.003880
-0.005025
-0.006169
-0.007312
-0.008455
-0.009597
-0.010739
-0.011880
-0.013021
-0.014161
-0.015302
-0.016442
-0.017581
-0.018721
-0.019860
-0.020998
-0.022137
-0.023274
-0.024412
-0.025548
-0.026685
-0.027820
-0.028954
-0.030087
-0.031219
-0.032349
-0.033477
-0.034602
-0.035724
-0.036842
-0.037955
-0.039062
-0.040162
-0.041253
-0.042332
-0.043397
-0.044446
-0.045475
-0.046480
-0.047458
-0.048405
-0.049316
-0.050189
-0.051223
0.468674
0.472354
0.483158
0.502176
0.531489
0.574719
0.638195
0.732867
0.867149
0.906260
0.000000
-0.614415
-0.615839
-0.618741
-0.641828
-0.673124
-0.674599
-0.617001
-0.534114
-0.443721
-0.353727
-0.270026
-0.196442
-0.134879
-0.085750
-0.048391
-0.021382
-0.002861
0.009191
0.016679
0.021142
0.023488
0.023928
0.023907
0.023512
0.022795
0.021807
0.020610
0.019271
0.017851
0.016398
0.014945
0.013514
0.012115
0.010752
0.009423
0.008126
0.006858
0.005613
0.004388
0.003180
0.001985
0.000802
-0.000373
-0.001541
-0.002703
-0.003860
-0.005014
-0.006164
-0.007313
-0.008459
-0.009604
-0.010748
-0.011891
-0.013032
-0.014174
-0.015314
-0.016454
-0.017593
-0.018732
-0.019871
-0.021009
-0.022147
-0.023284
-0.024420
-0.025556
-0.026692
-0.027826
-0.028959
-0.030091
-0.031222
-0.032351
-0.033477
-0.034601
-0.035721
-0.036836
-0.037947
-0.039051
-0.040147
-0.041233
-0.042307
-0.043367
-0.044410
-0.045432
-0.046430
-0.047402
-0.048342
-0.049249
-0.050119
-0.051153
0.489274
0.493430
0.505644
0.527098
0.559930
0.607406
0.673761
0.761691
0.860770
0.945371
0.871849
0.000000
-0.622262
-0.628684
-0.622030
-0.624120
-0.606359
-0.560342
-0.485555
-0.405563
-0.325261
-0.250451
-0.184664
-0.129491
-0.085206
-0.051245
-0.026378
-0.008986
0.002811
0.010841
0.015807
0.018636
0.020771
0.022221
0.022970
0.023046
0.022538
0.021575
0.020299
0.018838
0.017290
0.015722
0.014173
0.012664
0.011204
0.009791
0.008424
0.007096
0.005802
0.004536
0.003295
0.002073
0.000868
-0.000325
-0.001507
-0.002680
-0.003847
-0.005008
-0.006164
-0.007317
-0.008466
-0.009614
-0.010759
-0.011903
-0.013045
-0.014187
-0.015327
-0.016467
-0.017606
-0.018745
-0.019883
-0.021020
-0.022157
-0.023294
-0.024430
-0.025565
-0.026699
-0.027833
-0.028966
-0.030097
-0.031227
-0.032354
-0.033480
-0.034602
-0.035721
-0.036836
-0.037945
-0.039047
-0.040141
-0.041225
-0.042297
-0.043354
-0.044393
-0.045413
-0.046408
-0.047376
-0.048314
-0.049219
-0.050088
-0.051122
0.502150
0.506215
0.518095
0.538647
0.569237
0.611363
0.665812
0.731413
0.800890
0.828442
0.798328
0.684566
0.000000
-0.614775
-0.600866
-0.562171
-0.530610
-0.480306
-0.413268
-0.342332
-0.276772
-0.216730
-0.165045
-0.122103
-0.087281
-0.059875
-0.038818
-0.023131
-0.011308
-0.002638
0.004241
0.010037
0.014795
0.018406
0.020809
0.022057
0.022313
0.021799
0.020750
0.019373
0.017825
0.016215
0.014606
0.013034
0.011513
0.010046
0.008631
0.007262
0.005934
0.004639
0.003374
0.002133
0.000911
-0.000295
-0.001488
-0.002670
-0.003843
-0.005009
-0.006170
-0.007325
-0.008477
-0.009626
-0.010773
-0.011917
-0.013060
-0.014201
-0.015342
-0.016481
-0.017620
-0.018758
-0.019895
-0.021032
-0.022169
-0.023304
-0.024440
-0.025574
-0.026708
-0.027841
-0.028973
-0.030104
-0.031233
-0.032361
-0.033486
-0.034608
-0.035727
-0.036841
-0.037950
-0.039052
-0.040146
-0.041229
-0.042301
-0.043358
-0.044398
-0.045417
-0.046413
-0.047381
-0.048319
-0.049224
-0.050094
-0.051129
0.507458
0.510985
0.521211
0.538534
0.563486
0.596548
0.637057
0.680537
0.714207
0.711063
0.653625
0.570804
0.403138
0.000000
-0.543113
-0.485360
-0.464558
-0.400763
-0.326723
-0.264889
-0.215671
-0.173913
-0.141340
-0.115723
-0.094021
-0.075232
-0.058069
-0.043552
-0.030416
-0.018731
-0.008369
0.000621
0.008067
0.013820
0.017849
0.020275
0.021339
0.021351
0.020622
0.019424
0.017966
0.016390
0.014786
0.013202
0.011661
0.010173
0.008736
0.007347
0.006001
0.004691
0.003412
0.002159
0.000928
-0.000286
-0.001485
-0.002672
-0.003849
-0.005019
-0.006182
-0.007339
-0.008492
-0.009642
-0.010789
-0.011934
-0.013076
-0.014217
-0.015357
-0.016496
-0.017634
-0.018772
-0.019909
-0.021045
-0.022180
-0.023316
-0.024450
-0.025584
-0.026718
-0.027850
-0.028982
-0.030113
-0.031242
-0.032369
-0.033495
-0.034617
-0.035736
-0.036851
-0.037961
-0.039065
-0.040160
-0.041246
-0.042320
-0.043380
-0.044423
-0.045445
-0.046444
-0.047416
-0.048358
-0.049265
-0.050137
-0.051173
0.506185
0.508943
0.516873
0.530031
0.548302
0.570887
0.595546
0.616765
0.623547
0.598015
0.522085
0.383931
0.235472
-0.193699
-0.532540
-0.505139
-0.440503
-0.346099
-0.255881
-0.188718
-0.152162
-0.130805
-0.121132
-0.115494
-0.106999
-0.096181
-0.079913
-0.062496
-0.046368
-0.031560
-0.018341
-0.006946
0.002428
0.009685
0.014866
0.018162
0.019874
0.020358
0.019968
0.019006
0.017708
0.016238
0.014700
0.013157
0.011640
0.010165
0.008734
0.007347
0.006000
0.004688
0.003407
0.002151
0.000917
-0.000299
-0.001500
-0.002689
-0.003867
-0.005038
-0.006201
-0.007359
-0.008512
-0.009662
-0.010808
-0.011952
-0.013094
-0.014235
-0.015374
-0.016512
-0.017650
-0.018786
-0.019922
-0.021058
-0.022193
-0.023327
-0.024462
-0.025595
-0.026728
-0.027861
-0.028992
-0.030123
-0.031252
-0.032380
-0.033506
-0.034630
-0.035750
-0.036867
-0.037979
-0.039085
-0.040184
-0.041274
-0.042353
-0.043419
-0.044468
-0.045497
-0.046503
-0.047482
-0.048430
-0.049343
-0.050218
-0.051256
0.499753
0.501639
0.506990
0.515558
0.526716
0.539056
0.549731
0.553422
0.541212
0.499801
0.411600
0.251411
-0.033309
-0.622870
-0.559941
-0.467531
-0.392330
-0.303671
-0.219836
-0.156968
-0.118776
-0.110065
-0.116972
-0.126112
-0.122909
-0.108129
-0.091216
-0.072794
-0.054979
-0.038566
-0.023996
-0.011544
-0.001361
0.006529
0.012237
0.015993
0.018115
0.018964
0.018887
0.018185
0.017094
0.015784
0.014365
0.012909
0.011456
0.010025
0.008626
0.007261
0.005930
0.004630
0.003357
0.002107
0.000877
-0.000335
-0.001534
-0.002721
-0.003897
-0.005066
-0.006228
-0.007385
-0.008537
-0.009685
-0.010831
-0.011974
-0.013115
-0.014254
-0.015392
-0.016530
-0.017666
-0.018802
-0.019937
-0.021071
-0.022206
-0.023340
-0.024473
-0.025607
-0.026739
-0.027872
-0.029003
-0.030134
-0.031264
-0.032393
-0.033520
-0.034645
-0.035768
-0.036887
-0.038003
-0.039113
-0.040217
-0.041313
-0.042400
-0.043474
-0.044532
-0.045572
-0.046589
-0.047579
-0.048537
-0.049459
-0.050340
-0.051380
0.489766
0.490785
0.493610
0.497823
0.502556
0.506189
0.505914
0.497160
0.473038
0.423912
0.336937
0.194662
-0.025954
-0.312550
-0.379501
-0.362719
-0.315357
-0.256365
-0.198038
-0.150951
-0.119737
-0.114505
-0.122762
-0.124776
-0.119727
-0.106869
-0.090635
-0.073106
-0.055881
-0.039889
-0.025665
-0.013503
-0.003535
0.004247
0.009967
0.013850
0.016187
0.017300
0.017500
0.017061
0.016201
0.015083
0.013819
0.012484
0.011124
0.009764
0.008419
0.007096
0.005796
0.004520
0.003265
0.002029
0.000810
-0.000394
-0.001585
-0.002767
-0.003939
-0.005104
-0.006263
-0.007417
-0.008567
-0.009713
-0.010856
-0.011998
-0.013137
-0.014275
-0.015412
-0.016548
-0.017683
-0.018818
-0.019952
-0.021086
-0.022219
-0.023352
-0.024486
-0.025618
-0.026751
-0.027883
-0.029015
-0.030147
-0.031277
-0.032407
-0.033536
-0.034663
-0.035789
-0.036912
-0.038032
-0.039148
-0.040258
-0.041363
-0.042459
-0.043544
-0.044616
-0.045670
-0.046703
-0.047708
-0.048681
-0.049616
-0.050505
-0.051549
0.477828
0.478069
0.478659
0.479130
0.478577
0.475457
0.467333
0.450599
0.420286
0.370072
0.292623
0.180796
0.032889
-0.130271
-0.216333
-0.241530
-0.231189
-0.203344
-0.169905
-0.140458
-0.121436
-0.115451
-0.114749
-0.112784
-0.106558
-0.095709
-0.081982
-0.066966
-0.051931
-0.037749
-0.024978
-0.013940
-0.004788
0.002464
0.007910
0.011730
0.014161
0.015468
0.015911
0.015724
0.015101
0.014192
0.013104
0.011913
0.010668
0.009399
0.008126
0.006859
0.005604
0.004362
0.003134
0.001920
0.000718
-0.000473
-0.001654
-0.002826
-0.003992
-0.005151
-0.006305
-0.007455
-0.008601
-0.009744
-0.010885
-0.012024
-0.013161
-0.014297
-0.015432
-0.016567
-0.017701
-0.018834
-0.019967
-0.021100
-0.022233
-0.023365
-0.024498
-0.025631
-0.026763
-0.027895
-0.029028
-0.030160
-0.031291
-0.032423
-0.033553
-0.034683
-0.035812
-0.036939
-0.038064
-0.039187
-0.040306
-0.041420
-0.042528
-0.043628
-0.044716
-0.045790
-0.046843
-0.047870
-0.048864
-0.049817
-0.050719
-0.051768
0.465380
0.464968
0.463704
0.461163
0.456538
0.448522
0.435178
0.413853
0.381208
0.333476
0.267142
0.180455
0.076847
-0.029592
-0.104555
-0.143924
-0.155926
-0.150777
-0.137366
-0.122848
-0.111889
-0.105808
-0.102271
-0.098259
-0.091892
-0.082750
-0.071524
-0.059179
-0.046628
-0.034585
-0.023560
-0.013879
-0.005715
0.000879
0.005952
0.009630
0.012092
0.013546
0.014200
0.014249
0.013859
0.013163
0.012262
0.011228
0.010113
0.008951
0.007763
0.006564
0.005363
0.004164
0.002970
0.001783
0.000603
-0.000570
-0.001737
-0.002898
-0.004054
-0.005206
-0.006354
-0.007498
-0.008640
-0.009779
-0.010916
-0.012052
-0.013187
-0.014321
-0.015454
-0.016587
-0.017719
-0.018851
-0.019983
-0.021115
-0.022247
-0.023378
-0.024511
-0.025643
-0.026775
-0.027908
-0.029040
-0.030173
-0.031306
-0.032439
-0.033572
-0.034704
-0.035837
-0.036969
-0.038100
-0.039230
-0.040358
-0.041484
-0.042607
-0.043723
-0.044832
-0.045929
-0.047010
-0.048066
-0.049089
-0.050068
-0.050990
-0.052046
0.453639
0.452689
0.449932
0.445052
0.437419
0.426019
0.409417
0.385774
0.352978
0.308970
0.252366
0.183529
0.106231
0.029295
-0.032658
-0.074096
-0.096672
-0.105187
-0.105038
-0.100980
-0.096313
-0.092436
-0.088996
-0.084819
-0.079024
-0.071375
-0.062206
-0.052113
-0.041732
-0.031621
-0.022215
-0.013815
-0.006603
-0.000658
0.004032
0.007545
0.010008
0.011578
0.012419
0.012687
0.012522
0.012039
0.011329
0.010461
0.009486
0.008439
0.007345
0.006223
0.005083
0.003934
0.002780
0.001625
0.000470
-0.000682
-0.001833
-0.002980
-0.004125
-0.005267
-0.006407
-0.007545
-0.008682
-0.009816
-0.010950
-0.012083
-0.013214
-0.014346
-0.015477
-0.016607
-0.017738
-0.018868
-0.019999
-0.021129
-0.022260
-0.023391
-0.024523
-0.025655
-0.026787
-0.027920
-0.029053
-0.030186
-0.031320
-0.032455
-0.033590
-0.034726
-0.035862
-0.036999
-0.038137
-0.039275
-0.040413
-0.041552
-0.042690
-0.043827
-0.044960
-0.046086
-0.047200
-0.048295
-0.049359
-0.050375
-0.051327
-0.052395
0.443607
0.442188
0.438192
0.431485
0.421654
0.407975
0.389438
0.364828
0.332883
0.292583
0.243607
0.186977
0.125785
0.065565
0.013577
-0.026029
-0.052796
-0.068666
-0.076593
-0.079541
-0.079808
-0.078731
-0.076619
-0.073266
-0.068439
-0.062135
-0.054617
-0.046312
-0.037693
-0.029197
-0.021183
-0.013915
-0.007566
-0.002221
0.002103
0.005450
0.007905
0.009578
0.010593
0.011072
0.011127
0.010856
0.010340
0.009642
0.008811
0.007886
0.006892
0.005852
0.004778
0.003682
0.002571
0.001451
0.000325
-0.000805
-0.001937
-0.003070
-0.004202
-0.005334
-0.006466
-0.007596
-0.008727
-0.009856
-0.010985
-0.012114
-0.013243
-0.014371
-0.015499
-0.016628
-0.017757
-0.018885
-0.020014
-0.021144
-0.022274
-0.023404
-0.024535
-0.025667
-0.026799
-0.027931
-0.029065
-0.030199
-0.031334
-0.032470
-0.033608
-0.034746
-0.035887
-0.037029
-0.038173
-0.039319
-0.040468
-0.041620
-0.042776
-0.043934
-0.045094
-0.046254
-0.047411
-0.048555
-0.049675
-0.050749
-0.051747
-0.052835
0.436162
0.434228
0.429061
0.420825
0.409333
0.394102
0.374438
0.349560
0.318755
0.281598
0.238260
0.189866
0.138792
0.088648
0.043598
0.006559
-0.021463
-0.041043
-0.053675
-0.061142
-0.065022
-0.066421
-0.065883
-0.063657
-0.059884
-0.054756
-0.048566
-0.041682
-0.034487
-0.027333
-0.020513
-0.014243
-0.008670
-0.003874
0.000115
0.003313
0.005768
0.007549
0.008741
0.009431
0.009708
0.009651
0.009329
0.008803
0.008119
0.007316
0.006424
0.005466
0.004460
0.003419
0.002353
0.001268
0.000171
-0.000935
-0.002047
-0.003164
-0.004283
-0.005404
-0.006527
-0.007650
-0.008773
-0.009897
-0.011022
-0.012147
-0.013272
-0.014397
-0.015523
-0.016649
-0.017775
-0.018902
-0.020030
-0.021158
-0.022287
-0.023417
-0.024547
-0.025678
-0.026809
-0.027942
-0.029076
-0.030211
-0.031347
-0.032485
-0.033624
-0.034766
-0.035909
-0.037056
-0.038206
-0.039361
-0.040520
-0.041685
-0.042858
-0.044039
-0.045228
-0.046427
-0.047633
-0.048841
-0.050038
-0.051198
-0.052275
-0.053393
0.432272
0.429453
0.422872
0.413167
0.400321
0.383982
0.363636
0.338775
0.309014
0.274252
0.234872
0.191926
0.147250
0.103351
0.062945
0.028156
0.000063
-0.021274
-0.036534
-0.046777
-0.053114
-0.056359
-0.057158
-0.055961
-0.053119
-0.048960
-0.043831
-0.038084
-0.032054
-0.026029
-0.020237
-0.014841
-0.009952
-0.005637
-0.001930
0.001159
0.003642
0.005550
0.006929
0.007836
0.008333
0.008485
0.008353
0.007992
0.007448
0.006763
0.005968
0.005090
0.004148
0.003160
0.002136
0.001087
0.000018
-0.001065
-0.002158
-0.003259
-0.004365
-0.005475
-0.006588
-0.007703
-0.008820
-0.009939
-0.011058
-0.012179
-0.013300
-0.014422
-0.015545
-0.016669
-0.017794
-0.018919
-0.020045
-0.021172
-0.022299
-0.023428
-0.024558
-0.025688
-0.026819
-0.027952
-0.029086
-0.030221
-0.031358
-0.032497
-0.033639
-0.034782
-0.035929
-0.037080
-0.038236
-0.039397
-0.040566
-0.041743
-0.042932
-0.044134
-0.045353
-0.046592
-0.047853
-0.049137
-0.050437
-0.051731
-0.052954
-0.054111
0.433604
0.428343
0.419620
0.408355
0.394338
0.377187
0.356387
0.331588
0.302590
0.269458
0.232649
0.193118
0.152345
0.112222
0.074745
0.041582
0.013770
-0.008329
-0.024939
-0.036841
-0.044658
-0.049107
-0.050844
-0.050414
-0.048279
-0.044855
-0.040524
-0.035638
-0.030496
-0.025337
-0.020338
-0.015615
-0.011246
-0.007285
-0.003770
-0.000734
0.001806
0.003846
0.005400
0.006499
0.007188
0.007518
0.007544
0.007319
0.006891
0.006301
0.005586
0.004772
0.003884
0.002938
0.001950
0.000929
-0.000116
-0.001179
-0.002256
-0.003343
-0.004438
-0.005538
-0.006643
-0.007751
-0.008862
-0.009976
-0.011091
-0.012208
-0.013326
-0.014445
-0.015565
-0.016687
-0.017810
-0.018933
-0.020058
-0.021183
-0.022310
-0.023438
-0.024567
-0.025696
-0.026828
-0.027960
-0.029094
-0.030230
-0.031367
-0.032507
-0.033650
-0.034795
-0.035945
-0.037099
-0.038259
-0.039426
-0.040602
-0.041790
-0.042992
-0.044213
-0.045457
-0.046733
-0.048047
-0.049412
-0.050837
-0.052327
-0.053845
-0.055006
0.444643
0.430552
0.418737
0.406111
0.391330
0.373592
0.352505
0.327740
0.299162
0.266898
0.231417
0.193599
0.154740
0.116447
0.080407
0.048081
0.020448
-0.002110
-0.019652
-0.032328
-0.040846
-0.045903
-0.048142
-0.048130
-0.046365
-0.043291
-0.039308
-0.034769
-0.029968
-0.025133
-0.020426
-0.015954
-0.011787
-0.007972
-0.004548
-0.001549
0.000997
0.003077
0.004695
0.005871
0.006641
0.007051
0.007150
0.006991
0.006619
0.006077
0.005400
0.004619
0.003757
0.002833
0.001862
0.000856
-0.000177
-0.001231
-0.002300
-0.003381
-0.004470
-0.005566
-0.006667
-0.007772
-0.008881
-0.009992
-0.011105
-0.012220
-0.013337
-0.014455
-0.015574
-0.016695
-0.017817
-0.018939
-0.020063
-0.021189
-0.022315
-0.023442
-0.024570
-0.025700
-0.026831
-0.027964
-0.029098
-0.030233
-0.031371
-0.032512
-0.033655
-0.034802
-0.035954
-0.037110
-0.038272
-0.039442
-0.040622
-0.041816
-0.043026
-0.044257
-0.045517
-0.046816
-0.048166
-0.049588
-0.051112
-0.052791
-0.054708
-0.055766
