# vtk DataFile Version 3.0
Vector Field
ASCII
DATASET RECTILINEAR_GRID
DIMENSIONS 100 26 1
X_COORDINATES 100 double
0.050000 0.150000 0.250000 0.350000 0.450000 0.550000 0.650000 0.750000 0.850000 0.950000 1.050000 1.150000 1.250000 1.350000 1.450000 1.550000 1.650000 1.750000 1.850000 1.950000 2.050000 2.150000 2.250000 2.350000 2.450000 2.550000 2.650000 2.750000 2.850000 2.950000 3.050000 3.150000 3.250000 3.350000 3.450000 3.550000 3.650000 3.750000 3.850000 3.950000 4.050000 4.150000 4.250000 4.350000 4.450000 4.550000 4.650000 4.750000 4.850000 4.950000 5.050000 5.150000 5.250000 5.350000 5.450000 5.550000 5.650000 5.750000 5.850000 5.950000 6.050000 6.150000 6.250000 6.350000 6.450000 6.550000 6.650000 6.750000 6.850000 6.950000 7.050000 7.150000 7.250000 7.350000 7.450000 7.550000 7.650000 7.750000 7.850000 7.950000 8.050000 8.150000 8.250000 8.350000 8.450000 8.550000 8.650000 8.750000 8.850000 8.950000 9.050000 9.150000 9.250000 9.350000 9.450000 9.550000 9.650000 9.750000 9.850000 9.950000 
Y_COORDINATES 26 double
0.050000 0.150000 0.250000 0.350000 0.450000 0.550000 0.650000 0.750000 0.850000 0.950000 1.050000 1.150000 1.250000 1.350000 1.450000 1.550000 1.650000 1.750000 1.850000 1.950000 2.050000 2.150000 2.250000 2.350000 2.450000 2.550000 
Z_COORDINATES 1 double
0.0
POINT_DATA 2600
VECTORS Vektorfeld double
0.997781 0.002219 0.0
0.993454 0.002108 0.0
0.990900 0.000446 0.0
0.992295 -0.001841 0.0
0.998469 -0.004332 0.0
1.009537 -0.006736 0.0
1.025045 -0.008772 0.0
1.043975 -0.010158 0.0
1.064775 -0.010642 0.0
1.085495 -0.010077 0.0
1.104058 -0.008486 0.0
1.118603 -0.006059 0.0
1.127751 -0.003089 0.0
1.130813 0.000027 0.0
1.127746 0.003041 0.0
1.118838 0.005867 0.0
1.104608 0.008363 0.0
1.085838 0.010407 0.0
1.063526 0.011905 0.0
1.038829 0.012791 0.0
1.013005 0.013033 0.0
0.987337 0.012634 0.0
0.963063 0.011640 0.0
0.941281 0.010142 0.0
0.922859 0.008281 0.0
0.908326 0.006252 0.0
0.897768 0.004306 0.0
0.890728 0.002734 0.0
0.886160 0.001833 0.0
0.882463 0.001863 0.0
0.877624 0.002976 0.0
0.869506 0.005143 0.0
0.856198 0.008165 0.0
0.836302 0.011731 0.0
0.809082 0.015488 0.0
0.774501 0.019094 0.0
0.733159 0.022248 0.0
0.686206 0.024705 0.0
0.635230 0.026272 0.0
0.582153 0.026805 0.0
0.529140 0.026209 0.0
0.478481 0.024449 0.0
0.432498 0.021534 0.0
0.393527 0.017436 0.0
0.364079 0.012012 0.0
0.346691 0.005376 0.0
0.342264 -0.000949 0.0
0.347670 -0.004457 0.0
0.358023 -0.005896 0.0
0.370039 -0.006119 0.0
0.381808 -0.005650 0.0
0.392276 -0.004817 0.0
0.400915 -0.003822 0.0
0.407525 -0.002788 0.0
0.412101 -0.001789 0.0
0.414724 -0.000834 0.0
0.415279 0.000279 0.0
0.413063 0.001937 0.0
0.407256 0.003869 0.0
0.397660 0.005726 0.0
0.384877 0.007058 0.0
0.370398 0.007421 0.0
0.356372 0.006605 0.0
0.344917 0.004850 0.0
0.337252 0.002815 0.0
0.333222 0.001215 0.0
0.331613 0.000394 0.0
0.331030 0.000188 0.0
0.330685 0.000157 0.0
0.330560 -0.000032 0.0
0.331014 -0.000422 0.0
0.332328 -0.000892 0.0
0.334560 -0.001341 0.0
0.337535 -0.001634 0.0
0.340935 -0.001765 0.0
0.344516 -0.001816 0.0
0.348148 -0.001816 0.0
0.351715 -0.001750 0.0
0.355083 -0.001618 0.0
0.358133 -0.001432 0.0
0.360772 -0.001207 0.0
0.362935 -0.000955 0.0
0.364582 -0.000692 0.0
0.365714 -0.000440 0.0
0.366373 -0.000219 0.0
0.366632 -0.000039 0.0
0.366525 0.000146 0.0
0.366027 0.000351 0.0
0.365121 0.000555 0.0
0.363833 0.000733 0.0
0.362231 0.000870 0.0
0.360398 0.000963 0.0
0.358421 0.001014 0.0
0.356384 0.001024 0.0
0.354367 0.000993 0.0
0.352455 0.000919 0.0
0.350742 0.000794 0.0
0.349361 0.000586 0.0
0.348550 0.000225 0.0
0.349070 -0.000745 0.0
1.003076 0.001361 0.0
1.012046 -0.001678 0.0
1.026086 -0.007253 0.0
1.044560 -0.014011 0.0
1.067373 -0.021150 0.0
1.094367 -0.027980 0.0
1.125087 -0.033755 0.0
1.158647 -0.037665 0.0
1.193670 -0.038959 0.0
1.228345 -0.037156 0.0
1.260713 -0.032338 0.0
1.289061 -0.025099 0.0
1.312157 -0.016292 0.0
1.329166 -0.006841 0.0
1.339621 0.002521 0.0
1.343605 0.011311 0.0
1.341680 0.019075 0.0
1.334692 0.025453 0.0
1.323699 0.030164 0.0
1.309914 0.033013 0.0
1.294649 0.033901 0.0
1.279248 0.032836 0.0
1.265007 0.029954 0.0
1.253089 0.025529 0.0
1.244418 0.019987 0.0
1.239578 0.013918 0.0
1.238700 0.008077 0.0
1.241362 0.003341 0.0
1.246527 0.000629 0.0
1.252536 0.000755 0.0
1.257282 0.004177 0.0
1.258495 0.010847 0.0
1.254121 0.020142 0.0
1.242682 0.031090 0.0
1.223416 0.042615 0.0
1.196274 0.053690 0.0
1.161848 0.063420 0.0
1.121260 0.071074 0.0
1.076051 0.076088 0.0
1.028070 0.078045 0.0
0.979379 0.076673 0.0
0.932170 0.071853 0.0
0.888678 0.063606 0.0
0.850982 0.052032 0.0
0.820412 0.037433 0.0
0.796718 0.021037 0.0
0.778851 0.005684 0.0
0.768031 -0.005675 0.0
0.765598 -0.012598 0.0
0.770278 -0.016113 0.0
0.780187 -0.017335 0.0
0.793636 -0.017050 0.0
0.809159 -0.015751 0.0
0.825372 -0.013682 0.0
0.840795 -0.010894 0.0
0.853781 -0.007338 0.0
0.862934 -0.002925 0.0
0.867977 0.002315 0.0
0.869253 0.008022 0.0
0.866932 0.013490 0.0
0.861271 0.017738 0.0
0.852537 0.019954 0.0
0.840758 0.019877 0.0
0.825733 0.018058 0.0
0.807334 0.015671 0.0
0.785922 0.013802 0.0
0.762568 0.012770 0.0
0.738961 0.012001 0.0
0.717103 0.010548 0.0
0.698970 0.007836 0.0
0.686161 0.004066 0.0
0.679373 0.000095 0.0
0.677812 -0.002998 0.0
0.679758 -0.004898 0.0
0.683866 -0.006009 0.0
0.689477 -0.006765 0.0
0.696290 -0.007312 0.0
0.704016 -0.007547 0.0
0.712292 -0.007465 0.0
0.720774 -0.007117 0.0
0.729154 -0.006542 0.0
0.737148 -0.005777 0.0
0.744509 -0.004879 0.0
0.751038 -0.003914 0.0
0.756579 -0.002945 0.0
0.761013 -0.002007 0.0
0.764333 -0.001099 0.0
0.766680 -0.000253 0.0
0.768272 0.000473 0.0
0.769325 0.001050 0.0
0.770007 0.001473 0.0
0.770459 0.001741 0.0
0.770809 0.001863 0.0
0.771173 0.001849 0.0
0.771654 0.001705 0.0
0.772347 0.001426 0.0
0.773363 0.000985 0.0
0.774816 0.000324 0.0
0.776755 -0.000641 0.0
0.778919 -0.002564 0.0
1.001987 -0.003702 0.0
1.009134 -0.012731 0.0
1.022217 -0.023323 0.0
1.040714 -0.034913 0.0
1.064486 -0.046833 0.0
1.093419 -0.058224 0.0
1.127143 -0.067956 0.0
1.164771 -0.074652 0.0
1.204695 -0.076919 0.0
1.244524 -0.073701 0.0
1.281561 -0.065197 0.0
1.313610 -0.052638 0.0
1.339345 -0.037586 0.0
1.358243 -0.021454 0.0
1.370348 -0.005427 0.0
1.376079 0.009543 0.0
1.376094 0.022753 0.0
1.371219 0.033637 0.0
1.362438 0.041754 0.0
1.350859 0.046787 0.0
1.337688 0.048564 0.0
1.324175 0.047087 0.0
1.311560 0.042558 0.0
1.301009 0.035394 0.0
1.293558 0.026244 0.0
1.290056 0.016003 0.0
1.291098 0.005828 0.0
1.296873 -0.002847 0.0
1.306884 -0.008359 0.0
1.319793 -0.009174 0.0
1.333527 -0.004374 0.0
1.345690 0.006023 0.0
1.353989 0.021040 0.0
1.356619 0.039000 0.0
1.352509 0.058081 0.0
1.341296 0.076580 0.0
1.323212 0.093041 0.0
1.298957 0.106296 0.0
1.269580 0.115453 0.0
1.236374 0.119867 0.0
1.200788 0.119128 0.0
1.164328 0.113067 0.0
1.128429 0.101782 0.0
1.094244 0.085737 0.0
1.062459 0.066083 0.0
1.033489 0.045052 0.0
1.007797 0.025227 0.0
0.985550 0.007849 0.0
0.967759 -0.005898 0.0
0.956004 -0.015737 0.0
0.950551 -0.022167 0.0
0.950878 -0.025993 0.0
0.956318 -0.027771 0.0
0.966166 -0.027724 0.0
0.979668 -0.025778 0.0
0.995949 -0.021721 0.0
1.013829 -0.015573 0.0
1.031648 -0.007898 0.0
1.047938 0.000668 0.0
1.061922 0.009181 0.0
1.072925 0.016705 0.0
1.080078 0.022570 0.0
1.082496 0.026622 0.0
1.079588 0.029247 0.0
1.071334 0.031134 0.0
1.058392 0.032692 0.0
1.041918 0.033708 0.0
1.023160 0.033428 0.0
1.003044 0.031095 0.0
0.981914 0.026551 0.0
0.959599 0.020475 0.0
0.936013 0.014060 0.0
0.912326 0.008285 0.0
0.891048 0.003151 0.0
0.874536 -0.001653 0.0
0.863723 -0.005921 0.0
0.857903 -0.009149 0.0
0.855722 -0.011255 0.0
0.856128 -0.012438 0.0
0.858426 -0.012924 0.0
0.862095 -0.012784 0.0
0.866645 -0.012078 0.0
0.871618 -0.010912 0.0
0.876618 -0.009410 0.0
0.881319 -0.007690 0.0
0.885484 -0.005861 0.0
0.888967 -0.004048 0.0
0.891698 -0.002382 0.0
0.893670 -0.000962 0.0
0.894949 0.000154 0.0
0.895687 0.000948 0.0
0.896080 0.001421 0.0
0.896324 0.001589 0.0
0.896604 0.001479 0.0
0.897077 0.001121 0.0
0.897857 0.000536 0.0
0.898989 -0.000274 0.0
0.900450 -0.001331 0.0
0.902185 -0.002659 0.0
0.903995 -0.004519 0.0
1.001612 -0.007301 0.0
1.007884 -0.022551 0.0
1.020147 -0.038848 0.0
1.038346 -0.056083 0.0
1.062673 -0.073762 0.0
1.093379 -0.090934 0.0
1.130469 -0.106061 0.0
1.173256 -0.116961 0.0
1.219945 -0.121223 0.0
1.267013 -0.116294 0.0
1.310147 -0.102774 0.0
1.346294 -0.083258 0.0
1.374108 -0.060515 0.0
1.393419 -0.036733 0.0
1.404686 -0.013520 0.0
1.408683 0.007908 0.0
1.406348 0.026708 0.0
1.398713 0.042192 0.0
1.386907 0.053787 0.0
1.372177 0.061063 0.0
1.355857 0.063777 0.0
1.339336 0.061908 0.0
1.324000 0.055689 0.0
1.311186 0.045628 0.0
1.302141 0.032505 0.0
1.298016 0.017369 0.0
1.299840 0.001596 0.0
1.308224 -0.012774 0.0
1.322905 -0.023125 0.0
1.342422 -0.026834 0.0
1.364085 -0.022111 0.0
1.384491 -0.008808 0.0
1.400626 0.011436 0.0
1.410635 0.035966 0.0
1.413748 0.062111 0.0
1.409980 0.087530 0.0
1.399834 0.110320 0.0
1.384077 0.129029 0.0
1.363582 0.142592 0.0
1.339243 0.150273 0.0
1.311926 0.151626 0.0
1.282442 0.146514 0.0
1.251502 0.135174 0.0
1.219677 0.118353 0.0
1.187455 0.097474 0.0
1.155453 0.074633 0.0
1.124673 0.052118 0.0
1.096343 0.031535 0.0
1.071235 0.013314 0.0
1.050111 -0.002070 0.0
1.034157 -0.014428 0.0
1.024050 -0.023952 0.0
1.019825 -0.031027 0.0
1.021304 -0.035795 0.0
1.028205 -0.038111 0.0
1.040196 -0.037660 0.0
1.056893 -0.034211 0.0
1.077733 -0.027918 0.0
1.101617 -0.019486 0.0
1.126733 -0.009765 0.0
1.150910 0.000469 0.0
1.172091 0.010472 0.0
1.188706 0.019686 0.0
1.199875 0.027922 0.0
1.205291 0.035296 0.0
1.205156 0.041607 0.0
1.200019 0.046404 0.0
1.190466 0.049043 0.0
1.176949 0.049113 0.0
1.159855 0.046758 0.0
1.139786 0.042652 0.0
1.117756 0.037498 0.0
1.094850 0.031440 0.0
1.071644 0.024480 0.0
1.048163 0.017012 0.0
1.024607 0.009783 0.0
1.002195 0.003380 0.0
0.982695 -0.002104 0.0
0.967282 -0.006581 0.0
0.956012 -0.009810 0.0
0.948168 -0.011723 0.0
0.942918 -0.012439 0.0
0.939553 -0.012160 0.0
0.937485 -0.011094 0.0
0.936218 -0.009441 0.0
0.935342 -0.007399 0.0
0.934537 -0.005189 0.0
0.933590 -0.003027 0.0
0.932398 -0.001097 0.0
0.930952 0.000457 0.0
0.929317 0.001542 0.0
0.927626 0.002125 0.0
0.926053 0.002213 0.0
0.924774 0.001853 0.0
0.923934 0.001113 0.0
0.923631 0.000068 0.0
0.923901 -0.001209 0.0
0.924717 -0.002674 0.0
0.925970 -0.004304 0.0
0.927477 -0.006192 0.0
1.001426 -0.010339 0.0
1.007132 -0.031492 0.0
1.018659 -0.053698 0.0
1.036399 -0.077172 0.0
1.061068 -0.101668 0.0
1.093592 -0.126259 0.0
1.134786 -0.149020 0.0
1.184627 -0.166630 0.0
1.241630 -0.175247 0.0
1.299939 -0.167647 0.0
1.351592 -0.146209 0.0
1.392435 -0.116813 0.0
1.421829 -0.084168 0.0
1.440613 -0.051175 0.0
1.449938 -0.019669 0.0
1.451008 0.008991 0.0
1.444988 0.033981 0.0
1.433016 0.054527 0.0
1.416359 0.069914 0.0
1.396446 0.079580 0.0
1.374838 0.083188 0.0
1.353172 0.080683 0.0
1.333101 0.072321 0.0
1.316223 0.058689 0.0
1.304030 0.040682 0.0
1.297925 0.019423 0.0
1.299284 -0.003641 0.0
1.309216 -0.025852 0.0
1.327863 -0.043375 0.0
1.353794 -0.052033 0.0
1.383838 -0.048620 0.0
1.413415 -0.032281 0.0
1.437609 -0.005421 0.0
1.453274 0.027151 0.0
1.459864 0.061223 0.0
1.458239 0.093810 0.0
1.449711 0.122714 0.0
1.435649 0.146455 0.0
1.417228 0.164082 0.0
1.395343 0.175008 0.0
1.370623 0.178929 0.0
1.343485 0.175832 0.0
1.314216 0.166065 0.0
1.283063 0.150440 0.0
1.250373 0.130301 0.0
1.216765 0.107416 0.0
1.183237 0.083643 0.0
1.151076 0.060503 0.0
1.121585 0.038945 0.0
1.095717 0.019292 0.0
1.074109 0.001772 0.0
1.057397 -0.013333 0.0
1.045897 -0.025921 0.0
1.039500 -0.035982 0.0
1.038070 -0.043395 0.0
1.041628 -0.047926 0.0
1.050401 -0.049416 0.0
1.064760 -0.047912 0.0
1.084991 -0.043608 0.0
1.110926 -0.036693 0.0
1.141503 -0.027358 0.0
1.174462 -0.015841 0.0
1.206435 -0.002588 0.0
1.233871 0.011592 0.0
1.254708 0.025373 0.0
1.268693 0.037679 0.0
1.276161 0.048001 0.0
1.277466 0.055694 0.0
1.273016 0.060429 0.0
1.263303 0.062250 0.0
1.249020 0.061512 0.0
1.231057 0.058631 0.0
1.210328 0.053941 0.0
1.187657 0.047855 0.0
1.163859 0.040917 0.0
1.139762 0.033530 0.0
1.115953 0.025854 0.0
1.092655 0.018220 0.0
1.070015 0.011147 0.0
1.048577 0.005169 0.0
1.029205 0.000516 0.0
1.012535 -0.002757 0.0
0.998720 -0.004662 0.0
0.987474 -0.005278 0.0
0.978268 -0.004784 0.0
0.970550 -0.003461 0.0
0.963857 -0.001629 0.0
0.957835 0.000382 0.0
0.952256 0.002265 0.0
0.947027 0.003770 0.0
0.942174 0.004718 0.0
0.937797 0.005018 0.0
0.934028 0.004661 0.0
0.931000 0.003713 0.0
0.928811 0.002283 0.0
0.927505 0.000508 0.0
0.927063 -0.001476 0.0
0.927391 -0.003551 0.0
0.928334 -0.005622 0.0
0.929727 -0.007773 0.0
1.001238 -0.013003 0.0
1.006263 -0.039559 0.0
1.016649 -0.067545 0.0
1.033189 -0.097604 0.0
1.057234 -0.129948 0.0
1.090718 -0.163987 0.0
1.135934 -0.197702 0.0
1.194508 -0.226363 0.0
1.267233 -0.245242 0.0
1.342526 -0.231254 0.0
1.403793 -0.195522 0.0
1.447141 -0.151691 0.0
1.475199 -0.106742 0.0
1.491132 -0.063318 0.0
1.496988 -0.022707 0.0
1.494088 0.013860 0.0
1.483448 0.045771 0.0
1.466091 0.072064 0.0
1.443340 0.091784 0.0
1.416793 0.104169 0.0
1.388252 0.108748 0.0
1.359638 0.105402 0.0
1.332901 0.094409 0.0
1.309910 0.076469 0.0
1.292333 0.052672 0.0
1.281526 0.024345 0.0
1.278741 -0.007138 0.0
1.285535 -0.039082 0.0
1.302970 -0.066227 0.0
1.330522 -0.082664 0.0
1.365929 -0.083441 0.0
1.404916 -0.066024 0.0
1.441017 -0.031973 0.0
1.467265 0.011791 0.0
1.480748 0.056509 0.0
1.482963 0.097934 0.0
1.476363 0.133718 0.0
1.463221 0.162655 0.0
1.445303 0.184221 0.0
1.423809 0.198247 0.0
1.399452 0.204767 0.0
1.372595 0.203989 0.0
1.343406 0.196365 0.0
1.312027 0.182673 0.0
1.278733 0.164053 0.0
1.244086 0.141919 0.0
1.208999 0.117754 0.0
1.174681 0.092872 0.0
1.142442 0.068305 0.0
1.113411 0.044831 0.0
1.088178 0.023073 0.0
1.066623 0.003633 0.0
1.048180 -0.012945 0.0
1.032224 -0.026604 0.0
1.018549 -0.037667 0.0
1.007751 -0.046412 0.0
1.001184 -0.053136 0.0
1.000705 -0.058072 0.0
1.008189 -0.061163 0.0
1.024940 -0.061824 0.0
1.051232 -0.059097 0.0
1.086178 -0.052007 0.0
1.127774 -0.039991 0.0
1.172724 -0.023392 0.0
1.216007 -0.003763 0.0
1.252216 0.016621 0.0
1.278791 0.035017 0.0
1.296108 0.050056 0.0
1.305106 0.061518 0.0
1.306641 0.069338 0.0
1.301637 0.073711 0.0
1.291074 0.074957 0.0
1.275946 0.073471 0.0
1.257218 0.069725 0.0
1.235827 0.064237 0.0
1.212649 0.057486 0.0
1.188436 0.049921 0.0
1.163843 0.042044 0.0
1.139492 0.034314 0.0
1.115898 0.027033 0.0
1.093411 0.020511 0.0
1.072258 0.015071 0.0
1.052605 0.010978 0.0
1.034591 0.008343 0.0
1.018291 0.007100 0.0
1.003656 0.007008 0.0
0.990524 0.007726 0.0
0.978719 0.008855 0.0
0.968101 0.009990 0.0
0.958596 0.010778 0.0
0.950198 0.010960 0.0
0.942956 0.010395 0.0
0.936946 0.009063 0.0
0.932237 0.007049 0.0
0.928858 0.004514 0.0
0.926779 0.001660 0.0
0.925896 -0.001303 0.0
0.926032 -0.004189 0.0
0.926956 -0.006851 0.0
0.928440 -0.009422 0.0
1.000965 -0.015206 0.0
1.004918 -0.046334 0.0
1.013277 -0.079516 0.0
1.027119 -0.116016 0.0
1.048405 -0.156866 0.0
1.080301 -0.202450 0.0
1.127436 -0.251590 0.0
1.194963 -0.298576 0.0
1.291538 -0.342327 0.0
1.389878 -0.307802 0.0
1.454507 -0.244870 0.0
1.490348 -0.181532 0.0
1.509247 -0.123858 0.0
1.518089 -0.070978 0.0
1.519048 -0.021862 0.0
1.512053 0.022911 0.0
1.496910 0.062503 0.0
1.474183 0.095417 0.0
1.445095 0.120272 0.0
1.411316 0.136008 0.0
1.374812 0.141956 0.0
1.337724 0.137896 0.0
1.302255 0.124121 0.0
1.270508 0.101494 0.0
1.244245 0.071487 0.0
1.224471 0.036111 0.0
1.211166 -0.002813 0.0
1.205352 -0.044387 0.0
1.209539 -0.082543 0.0
1.225807 -0.110167 0.0
1.255307 -0.120844 0.0
1.297150 -0.109451 0.0
1.346551 -0.074048 0.0
1.393467 -0.019298 0.0
1.426872 0.040710 0.0
1.444009 0.094381 0.0
1.448626 0.139254 0.0
1.444082 0.174804 0.0
1.432815 0.201256 0.0
1.416436 0.219085 0.0
1.395933 0.228790 0.0
1.371879 0.230877 0.0
1.344621 0.225924 0.0
1.314443 0.214671 0.0
1.281732 0.198060 0.0
1.247097 0.177194 0.0
1.211441 0.153222 0.0
1.175930 0.127233 0.0
1.141836 0.100276 0.0
1.110196 0.073530 0.0
1.081328 0.048476 0.0
1.054429 0.026684 0.0
1.027707 0.009169 0.0
0.999262 -0.004316 0.0
0.968460 -0.015479 0.0
0.937340 -0.026683 0.0
0.910405 -0.039363 0.0
0.892516 -0.053478 0.0
0.887069 -0.067794 0.0
0.895272 -0.080146 0.0
0.916480 -0.088275 0.0
0.949082 -0.090375 0.0
0.991143 -0.085280 0.0
1.040601 -0.072511 0.0
1.095100 -0.052426 0.0
1.151118 -0.026942 0.0
1.202670 0.000454 0.0
1.243803 0.026169 0.0
1.272865 0.047346 0.0
1.291192 0.063648 0.0
1.300264 0.075334 0.0
1.301411 0.082749 0.0
1.295876 0.086343 0.0
1.284821 0.086636 0.0
1.269340 0.084198 0.0
1.250437 0.079604 0.0
1.229026 0.073427 0.0
1.205925 0.066231 0.0
1.181866 0.058537 0.0
1.157470 0.050800 0.0
1.133243 0.043458 0.0
1.109606 0.036915 0.0
1.086905 0.031487 0.0
1.065399 0.027354 0.0
1.045246 0.024542 0.0
1.026522 0.022926 0.0
1.009248 0.022214 0.0
0.993420 0.022000 0.0
0.979043 0.021840 0.0
0.966155 0.021321 0.0
0.954837 0.020134 0.0
0.945191 0.018109 0.0
0.937316 0.015233 0.0
0.931274 0.011631 0.0
0.927057 0.007529 0.0
0.924568 0.003213 0.0
0.923617 -0.001022 0.0
0.923923 -0.004914 0.0
0.925140 -0.008266 0.0
0.926912 -0.011264 0.0
1.000558 -0.016729 0.0
1.002871 -0.051077 0.0
1.007923 -0.088183 0.0
1.016815 -0.130083 0.0
1.031762 -0.179032 0.0
1.056928 -0.237346 0.0
1.099771 -0.306672 0.0
1.171851 -0.383102 0.0
1.301519 -0.484043 0.0
1.421402 -0.384309 0.0
1.463137 -0.274727 0.0
1.467865 -0.192243 0.0
1.463959 -0.128139 0.0
1.460679 -0.072260 0.0
1.457176 -0.018036 0.0
1.448700 0.034556 0.0
1.432193 0.082506 0.0
1.407240 0.123094 0.0
1.374646 0.154277 0.0
1.335843 0.174584 0.0
1.292652 0.183076 0.0
1.247138 0.179378 0.0
1.201455 0.163791 0.0
1.157608 0.137418 0.0
1.117180 0.102255 0.0
1.081006 0.061290 0.0
1.048471 0.017847 0.0
1.017791 -0.028554 0.0
0.993113 -0.077886 0.0
0.984244 -0.122222 0.0
0.998141 -0.152186 0.0
1.036458 -0.158271 0.0
1.095776 -0.133948 0.0
1.168317 -0.078855 0.0
1.239049 -0.003870 0.0
1.292546 0.068327 0.0
1.326478 0.126758 0.0
1.345989 0.172333 0.0
1.354461 0.206522 0.0
1.354053 0.230607 0.0
1.346212 0.245612 0.0
1.331968 0.252353 0.0
1.312117 0.251557 0.0
1.287363 0.243969 0.0
1.258429 0.230407 0.0
1.226155 0.211756 0.0
1.191549 0.188921 0.0
1.155759 0.162835 0.0
1.119849 0.134678 0.0
1.084289 0.106328 0.0
1.048232 0.080604 0.0
1.009293 0.060393 0.0
0.964876 0.046599 0.0
0.914930 0.036645 0.0
0.863719 0.025573 0.0
0.818151 0.008953 0.0
0.784632 -0.014545 0.0
0.767147 -0.042922 0.0
0.765998 -0.071753 0.0
0.778634 -0.097025 0.0
0.802099 -0.116070 0.0
0.834224 -0.127307 0.0
0.873656 -0.129841 0.0
0.919490 -0.123241 0.0
0.970860 -0.107566 0.0
1.026566 -0.083527 0.0
1.084749 -0.052696 0.0
1.141605 -0.018670 0.0
1.190757 0.013971 0.0
1.227929 0.041524 0.0
1.253397 0.062918 0.0
1.268763 0.078651 0.0
1.275459 0.089280 0.0
1.274800 0.095413 0.0
1.267999 0.097704 0.0
1.256178 0.096821 0.0
1.240365 0.093435 0.0
1.221491 0.088198 0.0
1.200392 0.081727 0.0
1.177807 0.074592 0.0
1.154373 0.067327 0.0
1.130642 0.060415 0.0
1.107077 0.054253 0.0
1.084053 0.049118 0.0
1.061854 0.045130 0.0
1.040693 0.042224 0.0
1.020735 0.040147 0.0
1.002132 0.038499 0.0
0.985043 0.036807 0.0
0.969658 0.034626 0.0
0.956183 0.031622 0.0
0.944820 0.027630 0.0
0.935726 0.022681 0.0
0.928973 0.016977 0.0
0.924521 0.010852 0.0
0.922198 0.004702 0.0
0.921707 -0.001068 0.0
0.922636 -0.006102 0.0
0.924493 -0.010151 0.0
0.926742 -0.013401 0.0
1.000013 -0.017300 0.0
1.000091 -0.052897 0.0
1.000454 -0.091778 0.0
1.001764 -0.136689 0.0
1.005648 -0.191258 0.0
1.015907 -0.260545 0.0
1.041306 -0.351715 0.0
1.101218 -0.470051 0.0
1.260273 -0.685817 0.0
1.371521 -0.413666 0.0
1.330926 -0.246511 0.0
1.270061 -0.164323 0.0
1.229274 -0.111366 0.0
1.211306 -0.067786 0.0
1.209648 -0.017348 0.0
1.210009 0.041983 0.0
1.202978 0.098616 0.0
1.186838 0.148077 0.0
1.161139 0.187586 0.0
1.126103 0.215114 0.0
1.082527 0.229314 0.0
1.031558 0.229623 0.0
0.974209 0.216578 0.0
0.910612 0.192074 0.0
0.839965 0.158673 0.0
0.763338 0.117674 0.0
0.688740 0.068597 0.0
0.629938 0.010179 0.0
0.598484 -0.060488 0.0
0.599730 -0.131997 0.0
0.631457 -0.188035 0.0
0.687117 -0.216400 0.0
0.761486 -0.209505 0.0
0.850778 -0.165129 0.0
0.950506 -0.088056 0.0
1.046674 0.002849 0.0
1.122638 0.082340 0.0
1.176527 0.143352 0.0
1.213808 0.189750 0.0
1.237530 0.224066 0.0
1.249615 0.247908 0.0
1.251522 0.262394 0.0
1.244490 0.268398 0.0
1.229655 0.266717 0.0
1.208105 0.258143 0.0
1.180909 0.243490 0.0
1.149065 0.223636 0.0
1.113238 0.199738 0.0
1.073189 0.173734 0.0
1.027235 0.148785 0.0
0.972877 0.128563 0.0
0.909427 0.114822 0.0
0.841054 0.104959 0.0
0.776688 0.092598 0.0
0.725915 0.071603 0.0
0.694457 0.039949 0.0
0.682484 -0.000048 0.0
0.685782 -0.043231 0.0
0.699182 -0.083697 0.0
0.719234 -0.117769 0.0
0.744191 -0.143748 0.0
0.773367 -0.160930 0.0
0.806688 -0.168971 0.0
0.844377 -0.167636 0.0
0.886666 -0.156830 0.0
0.933498 -0.136801 0.0
0.984282 -0.108390 0.0
1.037714 -0.073262 0.0
1.091404 -0.034279 0.0
1.140393 0.003613 0.0
1.179625 0.036130 0.0
1.207988 0.061710 0.0
1.226623 0.080889 0.0
1.236742 0.094345 0.0
1.239513 0.102802 0.0
1.236047 0.107009 0.0
1.227387 0.107721 0.0
1.214498 0.105676 0.0
1.198263 0.101582 0.0
1.179479 0.096106 0.0
1.158852 0.089872 0.0
1.137006 0.083447 0.0
1.114474 0.077316 0.0
1.091712 0.071841 0.0
1.069105 0.067214 0.0
1.046986 0.063419 0.0
1.025671 0.060223 0.0
1.005484 0.057213 0.0
0.986772 0.053893 0.0
0.969904 0.049793 0.0
0.955248 0.044586 0.0
0.943119 0.038157 0.0
0.933734 0.030633 0.0
0.927163 0.022350 0.0
0.923302 0.013793 0.0
0.921875 0.005511 0.0
0.922444 -0.001956 0.0
0.924440 -0.008140 0.0
0.927217 -0.012746 0.0
0.930063 -0.015900 0.0
0.999381 -0.016693 0.0
0.996843 -0.051044 0.0
0.991573 -0.088724 0.0
0.983273 -0.132754 0.0
0.971753 -0.187558 0.0
0.957630 -0.260380 0.0
0.944692 -0.364342 0.0
0.948611 -0.521255 0.0
1.054824 -0.899880 0.0
1.057550 -0.203879 0.0
0.869134 -0.105912 0.0
0.729157 -0.092401 0.0
0.660484 -0.073826 0.0
0.637292 -0.064165 0.0
0.657542 -0.039561 0.0
0.697925 0.023451 0.0
0.731002 0.091103 0.0
0.750077 0.152655 0.0
0.753093 0.205690 0.0
0.737764 0.247376 0.0
0.702569 0.275823 0.0
0.646509 0.290142 0.0
0.569778 0.290138 0.0
0.476380 0.275510 0.0
0.377642 0.244622 0.0
0.292093 0.193901 0.0
0.239038 0.120022 0.0
0.228554 0.028040 0.0
0.253923 -0.072264 0.0
0.299237 -0.166780 0.0
0.354981 -0.240723 0.0
0.419910 -0.284302 0.0
0.495333 -0.291395 0.0
0.582506 -0.259704 0.0
0.681423 -0.192126 0.0
0.789875 -0.097701 0.0
0.895140 0.001660 0.0
0.980904 0.084379 0.0
1.044967 0.147380 0.0
1.092005 0.195676 0.0
1.124389 0.231829 0.0
1.143679 0.257275 0.0
1.151215 0.273012 0.0
1.148256 0.279898 0.0
1.135991 0.278778 0.0
1.115458 0.270584 0.0
1.087310 0.256534 0.0
1.051393 0.238583 0.0
1.006470 0.219863 0.0
0.950991 0.204089 0.0
0.885521 0.193089 0.0
0.815276 0.183991 0.0
0.749762 0.169678 0.0
0.698675 0.143332 0.0
0.667366 0.102951 0.0
0.655508 0.051917 0.0
0.659016 -0.003552 0.0
0.672507 -0.056515 0.0
0.691413 -0.102720 0.0
0.713021 -0.140405 0.0
0.736050 -0.169099 0.0
0.760168 -0.188874 0.0
0.785712 -0.199890 0.0
0.813461 -0.202155 0.0
0.844374 -0.195513 0.0
0.879262 -0.179838 0.0
0.918472 -0.155348 0.0
0.961670 -0.122934 0.0
1.007741 -0.084368 0.0
1.054771 -0.042318 0.0
1.098932 -0.001333 0.0
1.135678 0.034064 0.0
1.163310 0.062268 0.0
1.182394 0.083763 0.0
1.193764 0.099243 0.0
1.198326 0.109471 0.0
1.197000 0.115246 0.0
1.190673 0.117367 0.0
1.180186 0.116613 0.0
1.166314 0.113732 0.0
1.149759 0.109428 0.0
1.131149 0.104348 0.0
1.111043 0.099053 0.0
1.089939 0.093970 0.0
1.068295 0.089336 0.0
1.046561 0.085149 0.0
1.025208 0.081161 0.0
1.004744 0.076927 0.0
0.985717 0.071919 0.0
0.968684 0.065668 0.0
0.954158 0.057894 0.0
0.942544 0.048593 0.0
0.934071 0.038054 0.0
0.928759 0.026812 0.0
0.926398 0.015552 0.0
0.926573 0.005005 0.0
0.928685 -0.004131 0.0
0.932012 -0.011287 0.0
0.935799 -0.016162 0.0
0.939230 -0.018762 0.0
0.998772 -0.014846 0.0
0.993709 -0.045290 0.0
0.982938 -0.078437 0.0
0.965000 -0.116803 0.0
0.937182 -0.164170 0.0
0.894506 -0.226968 0.0
0.827251 -0.317560 0.0
0.716552 -0.461257 0.0
0.323624 -0.782861 0.0
-0.482189 0.283774 0.0
-0.482189 0.000000 0.0
-0.033873 -0.023328 0.0
-0.049406 -0.069236 0.0
0.009113 -0.104083 0.0
0.097766 -0.108546 0.0
0.193481 -0.043661 0.0
0.270611 0.048008 0.0
0.316424 0.130863 0.0
0.335758 0.205132 0.0
0.329965 0.269055 0.0
0.299050 0.320255 0.0
0.244974 0.355848 0.0
0.174739 0.371398 0.0
0.101955 0.360433 0.0
0.043418 0.316974 0.0
0.012027 0.238489 0.0
0.015597 0.124918 0.0
0.050527 -0.001302 0.0
0.100422 -0.118186 0.0
0.153480 -0.219230 0.0
0.207508 -0.298043 0.0
0.264145 -0.348547 0.0
0.327132 -0.365560 0.0
0.400344 -0.345924 0.0
0.485999 -0.290477 0.0
0.583654 -0.205456 0.0
0.689940 -0.102135 0.0
0.792761 -0.000411 0.0
0.877763 0.083106 0.0
0.942772 0.147902 0.0
0.991392 0.198599 0.0
1.025366 0.237241 0.0
1.045912 0.264965 0.0
1.054126 0.282691 0.0
1.050980 0.291395 0.0
1.037151 0.292329 0.0
1.012729 0.287360 0.0
0.977075 0.279328 0.0
0.929480 0.271636 0.0
0.871081 0.266192 0.0
0.807000 0.260537 0.0
0.746262 0.247526 0.0
0.698375 0.219545 0.0
0.669024 0.173903 0.0
0.658457 0.114257 0.0
0.663149 0.047778 0.0
0.678092 -0.017866 0.0
0.698469 -0.076068 0.0
0.720816 -0.124419 0.0
0.743059 -0.162557 0.0
0.764062 -0.190979 0.0
0.783459 -0.210510 0.0
0.801596 -0.221935 0.0
0.819452 -0.225716 0.0
0.838459 -0.221872 0.0
0.860175 -0.210082 0.0
0.885870 -0.190010 0.0
0.916161 -0.161761 0.0
0.950803 -0.126253 0.0
0.988699 -0.085358 0.0
1.028041 -0.041796 0.0
1.065586 0.000236 0.0
1.097573 0.036476 0.0
1.122360 0.065684 0.0
1.140061 0.088251 0.0
1.151153 0.104809 0.0
1.156272 0.116117 0.0
1.156113 0.122982 0.0
1.151374 0.126223 0.0
1.142728 0.126641 0.0
1.130802 0.125000 0.0
1.116177 0.122011 0.0
1.099389 0.118284 0.0
1.080956 0.114277 0.0
1.061402 0.110228 0.0
1.041291 0.106103 0.0
1.021249 0.101602 0.0
1.001967 0.096231 0.0
0.984167 0.089441 0.0
0.968547 0.080799 0.0
0.955701 0.070134 0.0
0.946043 0.057625 0.0
0.939746 0.043792 0.0
0.936716 0.029416 0.0
0.936606 0.015418 0.0
0.938853 0.002717 0.0
0.942712 -0.007815 0.0
0.947366 -0.015585 0.0
0.952042 -0.020328 0.0
0.955917 -0.021902 0.0
0.998317 -0.011935 0.0
0.991382 -0.036203 0.0
0.976594 -0.061966 0.0
0.951790 -0.090532 0.0
0.912784 -0.123616 0.0
0.851492 -0.163555 0.0
0.751111 -0.213338 0.0
0.571567 -0.275235 0.0
0.227424 -0.335762 0.0
0.000000 0.283774 0.0
-0.000000 -0.000000 0.0
0.000000 0.000000 0.0
-0.043346 -0.043788 0.0
-0.088891 -0.142065 0.0
-0.084400 -0.163707 0.0
-0.064322 -0.104294 0.0
-0.031645 -0.001167 0.0
0.000154 0.102426 0.0
0.016346 0.198043 0.0
0.014393 0.283889 0.0
-0.004827 0.355556 0.0
-0.036273 0.406068 0.0
-0.070737 0.425876 0.0
-0.096840 0.404843 0.0
-0.103280 0.337541 0.0
-0.084244 0.230277 0.0
-0.036575 0.081891 0.0
0.025749 -0.055530 0.0
0.084102 -0.172207 0.0
0.135927 -0.270093 0.0
0.181024 -0.346304 0.0
0.221887 -0.397788 0.0
0.263689 -0.421109 0.0
0.312920 -0.412818 0.0
0.374962 -0.371280 0.0
0.451779 -0.299126 0.0
0.541196 -0.204168 0.0
0.637849 -0.097853 0.0
0.730243 0.003152 0.0
0.806885 0.086206 0.0
0.866146 0.152413 0.0
0.910348 0.205251 0.0
0.940577 0.246180 0.0
0.957589 0.276251 0.0
0.961907 0.296663 0.0
0.953692 0.309105 0.0
0.932696 0.316001 0.0
0.898767 0.320269 0.0
0.853247 0.323809 0.0
0.800703 0.324962 0.0
0.749191 0.317359 0.0
0.707749 0.292884 0.0
0.682518 0.247305 0.0
0.674715 0.183296 0.0
0.681714 0.108431 0.0
0.699395 0.031232 0.0
0.723124 -0.039992 0.0
0.748874 -0.100068 0.0
0.774097 -0.147989 0.0
0.797111 -0.184245 0.0
0.816834 -0.210016 0.0
0.832755 -0.226790 0.0
0.844992 -0.236029 0.0
0.854368 -0.238853 0.0
0.862397 -0.235771 0.0
0.871091 -0.226594 0.0
0.882550 -0.210653 0.0
0.898436 -0.187295 0.0
0.919542 -0.156466 0.0
0.945619 -0.119118 0.0
0.975491 -0.077251 0.0
1.007293 -0.033656 0.0
1.038008 0.007668 0.0
1.064585 0.043128 0.0
1.085707 0.071984 0.0
1.101189 0.094502 0.0
1.111228 0.111265 0.0
1.116212 0.123009 0.0
1.116612 0.130535 0.0
1.112928 0.134659 0.0
1.105659 0.136177 0.0
1.095295 0.135823 0.0
1.082335 0.134219 0.0
1.067306 0.131804 0.0
1.050797 0.128764 0.0
1.033484 0.124991 0.0
1.016130 0.120108 0.0
0.999565 0.113573 0.0
0.984615 0.104850 0.0
0.972026 0.093600 0.0
0.962370 0.079834 0.0
0.955977 0.063976 0.0
0.952894 0.046821 0.0
0.952886 0.029425 0.0
0.955469 0.012936 0.0
0.959944 -0.001523 0.0
0.965476 -0.012966 0.0
0.971253 -0.020866 0.0
0.976568 -0.025038 0.0
0.980673 -0.025172 0.0
0.998104 -0.008355 0.0
0.990323 -0.025066 0.0
0.973862 -0.041854 0.0
0.946651 -0.058629 0.0
0.904962 -0.074824 0.0
0.842563 -0.088656 0.0
0.749971 -0.095264 0.0
0.615809 -0.079603 0.0
0.436573 -0.002270 0.0
0.168126 0.150165 0.0
0.000000 0.000000 0.0
-0.000000 -0.000000 0.0
0.000000 0.000000 0.0
-0.067616 -0.069933 0.0
-0.146695 -0.158932 0.0
-0.164770 -0.111071 0.0
-0.170978 -0.020860 0.0
-0.164966 0.084308 0.0
-0.154290 0.189293 0.0
-0.147018 0.287321 0.0
-0.145143 0.369469 0.0
-0.145937 0.424394 0.0
-0.143518 0.439595 0.0
-0.130634 0.404342 0.0
-0.093409 0.307257 0.0
-0.023493 0.171610 0.0
0.055768 0.013628 0.0
0.123803 -0.117626 0.0
0.181804 -0.226464 0.0
0.228712 -0.314570 0.0
0.263274 -0.381485 0.0
0.286920 -0.427117 0.0
0.304184 -0.450846 0.0
0.322537 -0.450664 0.0
0.350640 -0.423578 0.0
0.395014 -0.368020 0.0
0.457096 -0.286771 0.0
0.532927 -0.187733 0.0
0.615330 -0.081766 0.0
0.693126 0.016686 0.0
0.757411 0.098386 0.0
0.807111 0.165375 0.0
0.843169 0.219769 0.0
0.865944 0.262876 0.0
0.875495 0.296170 0.0
0.871696 0.321612 0.0
0.854650 0.341537 0.0
0.825659 0.357654 0.0
0.788530 0.369074 0.0
0.750027 0.370743 0.0
0.718286 0.354830 0.0
0.699632 0.315509 0.0
0.696282 0.253260 0.0
0.706723 0.174702 0.0
0.727724 0.089026 0.0
0.755589 0.005091 0.0
0.786152 -0.068143 0.0
0.816043 -0.127558 0.0
0.843361 -0.173040 0.0
0.866783 -0.205630 0.0
0.885406 -0.226977 0.0
0.898708 -0.239052 0.0
0.906594 -0.243890 0.0
0.909522 -0.243296 0.0
0.908665 -0.238499 0.0
0.905963 -0.229857 0.0
0.903917 -0.216802 0.0
0.905083 -0.198198 0.0
0.911431 -0.173018 0.0
0.923848 -0.141061 0.0
0.942000 -0.103331 0.0
0.964559 -0.061938 0.0
0.989526 -0.019732 0.0
1.014041 0.019436 0.0
1.035614 0.052981 0.0
1.053181 0.080457 0.0