# vtk DataFile Version 3.0
Scalar Field
ASCII
DATASET RECTILINEAR_GRID
DIMENSIONS 100 26 1
X_COORDINATES 100 double
0.050000 0.150000 0.250000 0.350000 0.450000 0.550000 0.650000 0.750000 0.850000 0.950000 1.050000 1.150000 1.250000 1.350000 1.450000 1.550000 1.650000 1.750000 1.850000 1.950000 2.050000 2.150000 2.250000 2.350000 2.450000 2.550000 2.650000 2.750000 2.850000 2.950000 3.050000 3.150000 3.250000 3.350000 3.450000 3.550000 3.650000 3.750000 3.850000 3.950000 4.050000 4.150000 4.250000 4.350000 4.450000 4.550000 4.650000 4.750000 4.850000 4.950000 5.050000 5.150000 5.250000 5.350000 5.450000 5.550000 5.650000 5.750000 5.850000 5.950000 6.050000 6.150000 6.250000 6.350000 6.450000 6.550000 6.650000 6.750000 6.850000 6.950000 7.050000 7.150000 7.250000 7.350000 7.450000 7.550000 7.650000 7.750000 7.850000 7.950000 8.050000 8.150000 8.250000 8.350000 8.450000 8.550000 8.650000 8.750000 8.850000 8.950000 9.050000 9.150000 9.250000 9.350000 9.450000 9.550000 9.650000 9.750000 9.850000 9.950000 
Y_COORDINATES 26 double
0.050000 0.150000 0.250000 0.350000 0.450000 0.550000 0.650000 0.750000 0.850000 0.950000 1.050000 1.150000 1.250000 1.350000 1.450000 1.550000 1.650000 1.750000 1.850000 1.950000 2.050000 2.150000 2.250000 2.350000 2.450000 2.550000 
Z_COORDINATES 1 double
0.0
POINT_DATA 2600
SCALARS Skalarfeld double 1
LOOKUP_TABLE default
0.244818
0.229475
0.214108
0.195701
0.173170
0.146097
0.114520
0.078922
0.040294
0.000143
-0.039647
-0.077112
-0.110562
-0.138834
-0.161133
-0.177063
-0.186976
-0.191495
-0.191427
-0.187658
-0.181076
-0.172508
-0.162680
-0.152184
-0.141461
-0.130799
-0.120341
-0.110139
-0.100224
-0.090685
-0.081721
-0.073643
-0.066839
-0.061694
-0.058502
-0.057368
-0.058125
-0.060280
-0.063027
-0.065328
-0.066045
-0.064142
-0.059337
-0.050971
-0.041409
-0.032126
-0.023823
-0.016771
-0.011002
-0.006421
-0.002866
-0.000153
0.001902
0.003466
0.004682
0.005661
0.006484
0.007203
0.007846
0.008425
0.008935
0.009368
0.009710
0.009950
0.010080
0.010095
0.009994
0.009782
0.009465
0.009054
0.008558
0.007988
0.007357
0.006673
0.005947
0.005187
0.004399
0.003590
0.002766
0.001929
0.001084
0.000232
-0.000624
-0.001483
-0.002344
-0.003207
-0.004070
-0.004936
-0.005804
-0.006674
-0.007548
-0.008429
-0.009317
-0.010215
-0.011128
-0.012059
-0.013014
-0.014000
-0.015024
-0.015594
0.236087
0.229545
0.217145
0.199883
0.177636
0.150250
0.117789
0.080748
0.040208
-0.002104
-0.043951
-0.083051
-0.117512
-0.146010
-0.167975
-0.183492
-0.192735
-0.196399
-0.195376
-0.190632
-0.183130
-0.173764
-0.163317
-0.152425
-0.141551
-0.130969
-0.120766
-0.110904
-0.101324
-0.092048
-0.083239
-0.075208
-0.068360
-0.063111
-0.059785
-0.058517
-0.059157
-0.061218
-0.063885
-0.066100
-0.066631
-0.064142
-0.057680
-0.049523
-0.040529
-0.031640
-0.023594
-0.016713
-0.011063
-0.006564
-0.003069
-0.000397
0.001632
0.003185
0.004400
0.005387
0.006225
0.006965
0.007633
0.008236
0.008772
0.009228
0.009592
0.009851
0.009996
0.010024
0.009934
0.009731
0.009421
0.009015
0.008524
0.007958
0.007330
0.006649
0.005926
0.005167
0.004382
0.003575
0.002753
0.001918
0.001074
0.000225
-0.000629
-0.001486
-0.002345
-0.003205
-0.004066
-0.004928
-0.005791
-0.006656
-0.007523
-0.008394
-0.009271
-0.010154
-0.011046
-0.011948
-0.012864
-0.013796
-0.014755
-0.015400
0.239426
0.235231
0.224684
0.208377
0.186270
0.158144
0.123921
0.084000
0.039566
-0.007219
-0.053299
-0.095685
-0.132173
-0.161503
-0.183262
-0.197664
-0.205293
-0.206939
-0.203694
-0.196710
-0.187127
-0.176014
-0.164307
-0.152765
-0.141914
-0.131985
-0.122892
-0.114326
-0.105956
-0.097606
-0.089337
-0.081433
-0.074325
-0.068471
-0.064242
-0.061816
-0.061091
-0.061637
-0.062709
-0.063316
-0.062365
-0.058974
-0.052968
-0.045160
-0.036876
-0.029044
-0.021834
-0.015600
-0.010434
-0.006289
-0.003050
-0.000558
0.001349
0.002825
0.004001
0.004977
0.005825
0.006588
0.007289
0.007930
0.008503
0.008995
0.009391
0.009677
0.009846
0.009892
0.009817
0.009625
0.009326
0.008928
0.008443
0.007884
0.007262
0.006586
0.005868
0.005115
0.004334
0.003532
0.002714
0.001884
0.001045
0.000200
-0.000650
-0.001502
-0.002355
-0.003209
-0.004064
-0.004919
-0.005773
-0.006628
-0.007483
-0.008339
-0.009195
-0.010052
-0.010909
-0.011765
-0.012615
-0.013451
-0.014248
-0.014934
0.250525
0.247082
0.237527
0.221848
0.199654
0.170343
0.133412
0.088920
0.038093
-0.016240
-0.069251
-0.116651
-0.155896
-0.185986
-0.206938
-0.219385
-0.224270
-0.222675
-0.215946
-0.205479
-0.192660
-0.178800
-0.165064
-0.152410
-0.141514
-0.132605
-0.125321
-0.118869
-0.112440
-0.105537
-0.098073
-0.090320
-0.082761
-0.075922
-0.070238
-0.065949
-0.063028
-0.061163
-0.059777
-0.058120
-0.055439
-0.051230
-0.045472
-0.038667
-0.031554
-0.024630
-0.018453
-0.013140
-0.008728
-0.005176
-0.002401
-0.000264
0.001381
0.002672
0.003724
0.004629
0.005446
0.006210
0.006931
0.007606
0.008219
0.008751
0.009184
0.009502
0.009696
0.009762
0.009702
0.009521
0.009229
0.008837
0.008358
0.007803
0.007184
0.006513
0.005798
0.005050
0.004274
0.003477
0.002664
0.001839
0.001005
0.000165
-0.000679
-0.001525
-0.002373
-0.003220
-0.004068
-0.004914
-0.005759
-0.006602
-0.007443
-0.008281
-0.009115
-0.009945
-0.010767
-0.011576
-0.012366
-0.013121
-0.013815
-0.014495
0.267959
0.264897
0.256075
0.241017
0.218795
0.188106
0.147571
0.096404
0.035563
-0.031328
-0.095176
-0.149458
-0.191699
-0.221821
-0.240741
-0.249793
-0.250355
-0.243948
-0.232170
-0.216698
-0.199228
-0.181387
-0.164644
-0.150251
-0.139211
-0.131900
-0.127511
-0.124310
-0.120669
-0.115633
-0.109003
-0.101156
-0.092756
-0.084492
-0.076920
-0.070369
-0.064913
-0.060376
-0.056378
-0.052429
-0.048067
-0.043013
-0.037275
-0.031138
-0.025005
-0.019233
-0.014121
-0.009768
-0.006204
-0.003383
-0.001201
0.000461
0.001733
0.002742
0.003595
0.004370
0.005117
0.005855
0.006586
0.007291
0.007945
0.008522
0.008997
0.009351
0.009574
0.009661
0.009616
0.009445
0.009158
0.008769
0.008291
0.007737
0.007119
0.006449
0.005736
0.004989
0.004216
0.003422
0.002613
0.001792
0.000962
0.000127
-0.000711
-0.001552
-0.002394
-0.003235
-0.004074
-0.004912
-0.005747
-0.006579
-0.007406
-0.008227
-0.009041
-0.009845
-0.010635
-0.011407
-0.012150
-0.012851
-0.013491
-0.014158
0.291010
0.288337
0.280461
0.266510
0.244900
0.213258
0.168607
0.108209
0.031736
-0.057052
-0.137410
-0.199779
-0.243811
-0.271958
-0.286649
-0.290132
-0.284387
-0.271231
-0.252462
-0.230087
-0.206195
-0.182816
-0.161800
-0.144740
-0.133467
-0.128866
-0.129230
-0.131210
-0.131583
-0.128834
-0.122813
-0.114299
-0.104385
-0.094083
-0.084147
-0.075031
-0.066908
-0.059723
-0.053255
-0.047209
-0.041315
-0.035413
-0.029509
-0.023747
-0.018339
-0.013480
-0.009312
-0.005884
-0.003184
-0.001148
0.000347
0.001432
0.002252
0.002922
0.003528
0.004137
0.004788
0.005491
0.006228
0.006969
0.007674
0.008305
0.008831
0.009228
0.009484
0.009595
0.009564
0.009401
0.009117
0.008728
0.008247
0.007690
0.007070
0.006397
0.005683
0.004936
0.004164
0.003371
0.002564
0.001746
0.000920
0.000089
-0.000745
-0.001581
-0.002417
-0.003252
-0.004084
-0.004914
-0.005740
-0.006560
-0.007374
-0.008180
-0.008976
-0.009759
-0.010524
-0.011265
-0.011975
-0.012643
-0.013255
-0.013916
0.318947
0.316849
0.310518
0.298761
0.279303
0.248352
0.200246
0.127967
0.026510
-0.103626
-0.207214
-0.275026
-0.316073
-0.338256
-0.345494
-0.340857
-0.326847
-0.304848
-0.276886
-0.245414
-0.213033
-0.182293
-0.155503
-0.134499
-0.122404
-0.121744
-0.129799
-0.140052
-0.145967
-0.145798
-0.139811
-0.129730
-0.117446
-0.104444
-0.091720
-0.079842
-0.069051
-0.059366
-0.050668
-0.042781
-0.035538
-0.028839
-0.022667
-0.017080
-0.012165
-0.007997
-0.004614
-0.002002
-0.000100
0.001190
0.002000
0.002480
0.002776
0.003037
0.003381
0.003815
0.004371
0.005045
0.005806
0.006602
0.007379
0.008084
0.008676
0.009127
0.009423
0.009561
0.009545
0.009388
0.009105
0.008712
0.008226
0.007662
0.007035
0.006358
0.005640
0.004890
0.004116
0.003324
0.002517
0.001701
0.000878
0.000050
-0.000781
-0.001612
-0.002443
-0.003272
-0.004098
-0.004921
-0.005738
-0.006549
-0.007352
-0.008145
-0.008925
-0.009690
-0.010435
-0.011155
-0.011843
-0.012490
-0.013088
-0.013751
0.350695
0.349460
0.345568
0.337696
0.323104
0.296579
0.248651
0.163646
0.020209
-0.194691
-0.321327
-0.378868
-0.405783
-0.416876
-0.413799
-0.400446
-0.377013
-0.344525
-0.305461
-0.262920
-0.220176
-0.180445
-0.146665
-0.121126
-0.105963
-0.108596
-0.125469
-0.147453
-0.161995
-0.164430
-0.157611
-0.145087
-0.129889
-0.113974
-0.098507
-0.084081
-0.070941
-0.059128
-0.048576
-0.039174
-0.030814
-0.023421
-0.016962
-0.011435
-0.006847
-0.003195
-0.000443
0.001476
0.002662
0.003248
0.003393
0.003272
0.003059
0.002909
0.002952
0.003234
0.003723
0.004407
0.005234
0.006130
0.007018
0.007829
0.008513
0.009036
0.009383
0.009553
0.009554
0.009403
0.009117
0.008717
0.008222
0.007649
0.007013
0.006328
0.005604
0.004850
0.004073
0.003278
0.002472
0.001656
0.000834
0.000009
-0.000818
-0.001646
-0.002472
-0.003297
-0.004117
-0.004933
-0.005743
-0.006546
-0.007339
-0.008121
-0.008890
-0.009641
-0.010372
-0.011077
-0.011751
-0.012387
-0.012980
-0.013649
0.384646
0.384581
0.384107
0.382143
0.376184
0.360633
0.322776
0.233438
0.019436
-0.386794
-0.492361
-0.493896
-0.491675
-0.491154
-0.481020
-0.462431
-0.430804
-0.388129
-0.337906
-0.284140
-0.230876
-0.182081
-0.141502
-0.112496
-0.094268
-0.096071
-0.116291
-0.144201
-0.168465
-0.176506
-0.168829
-0.154165
-0.136854
-0.119039
-0.101917
-0.085989
-0.071435
-0.058297
-0.046549
-0.036141
-0.027020
-0.019142
-0.012473
-0.006985
-0.002643
0.000606
0.002839
0.004161
0.004704
0.004634
0.004143
0.003441
0.002734
0.002202
0.001979
0.002146
0.002633
0.003409
0.004388
0.005464
0.006530
0.007502
0.008316
0.008938
0.009352
0.009563
0.009585
0.009439
0.009149
0.008740
0.008232
0.007647
0.007000
0.006304
0.005572
0.004812
0.004030
0.003234
0.002426
0.001610
0.000789
-0.000034
-0.000859
-0.001683
-0.002506
-0.003326
-0.004142
-0.004953
-0.005756
-0.006552
-0.007338
-0.008112
-0.008871
-0.009613
-0.010334
-0.011030
-0.011696
-0.012328
-0.012921
-0.013601
0.418638
0.419939
0.423563
0.429114
0.435421
0.439056
0.429729
0.374049
0.123993
-0.734463
-0.686555
-0.562623
-0.533374
-0.530787
-0.529721
-0.511194
-0.476397
-0.428403
-0.371875
-0.311775
-0.252935
-0.200042
-0.156824
-0.126307
-0.109655
-0.109719
-0.122309
-0.141519
-0.159100
-0.168190
-0.164919
-0.150367
-0.133365
-0.115777
-0.099013
-0.083357
-0.068897
-0.055675
-0.043722
-0.033070
-0.023743
-0.015756
-0.009105
-0.003770
0.000293
0.003151
0.004899
0.005661
0.005592
0.004889
0.003782
0.002522
0.001357
0.000500
0.000101
0.000227
0.000845
0.001862
0.003136
0.004513
0.005858
0.007063
0.008060
0.008814
0.009317
0.009580
0.009627
0.009488
0.009194
0.008772
0.008251
0.007650
0.006990
0.006283
0.005541
0.004774
0.003988
0.003188
0.002378
0.001562
0.000742
-0.000080
-0.000903
-0.001725
-0.002544
-0.003361
-0.004173
-0.004979
-0.005778
-0.006569
-0.007349
-0.008117
-0.008871
-0.009606
-0.010321
-0.011012
-0.011676
-0.012308
-0.012905
-0.013599
0.450152
0.452777
0.460420
0.473586
0.493114
0.520013
0.554637
0.592598
0.669528
-0.032467
-0.616041
-0.545527
-0.532624
-0.532153
-0.538213
-0.525614
-0.496255
-0.452826
-0.400924
-0.345954
-0.293141
-0.248093
-0.211670
-0.185521
-0.172079
-0.163185
-0.157407
-0.155991
-0.155293
-0.152007
-0.144201
-0.133105
-0.118554
-0.102865
-0.088387
-0.074764
-0.061972
-0.050034
-0.039029
-0.029072
-0.020280
-0.012744
-0.006519
-0.001620
0.001973
0.004314
0.005492
0.005631
0.004903
0.003532
0.001793
-0.000009
-0.001574
-0.002650
-0.003074
-0.002797
-0.001814
-0.000332
0.001426
0.003254
0.004985
0.006501
0.007734
0.008654
0.009265
0.009592
0.009671
0.009540
0.009240
0.008806
0.008269
0.007653
0.006978
0.006259
0.005508
0.004733
0.003942
0.003139
0.002327
0.001511
0.000691
-0.000130
-0.000951
-0.001771
-0.002588
-0.003402
-0.004211
-0.005014
-0.005810
-0.006597
-0.007373
-0.008138
-0.008887
-0.009620
-0.010333
-0.011023
-0.011687
-0.012323
-0.012927
-0.013636
0.476763
0.480377
0.491005
0.509761
0.538805
0.581936
0.645832
0.741951
0.876830
0.913548
0.000000
-0.535023
-0.524520
-0.515392
-0.511955
-0.505840
-0.484775
-0.453116
-0.416509
-0.381239
-0.350786
-0.325716
-0.304141
-0.284681
-0.265039
-0.239632
-0.212978
-0.187137
-0.163115
-0.142153
-0.123635
-0.107524
-0.093372
-0.081814
-0.070511
-0.060033
-0.050066
-0.040551
-0.031554
-0.023237
-0.015792
-0.009389
-0.004145
-0.000128
0.002641
0.004182
0.004556
0.003878
0.002332
0.000179
-0.002245
-0.004565
-0.006417
-0.007515
-0.007712
-0.006875
-0.005204
-0.003015
-0.000602
0.001792
0.003986
0.005862
0.007359
0.008464
0.009194
0.009590
0.009702
0.009582
0.009277
0.008831
0.008278
0.007647
0.006958
0.006228
0.005468
0.004686
0.003891
0.003085
0.002272
0.001455
0.000636
-0.000184
-0.001004
-0.001822
-0.002637
-0.003448
-0.004255
-0.005056
-0.005850
-0.006635
-0.007410
-0.008173
-0.008921
-0.009654
-0.010367
-0.011059
-0.011727
-0.012369
-0.012982
-0.013709
0.496661
0.500734
0.512686
0.533674
0.565791
0.612222
0.676769
0.761090
0.859194
0.950266
0.868094
0.000000
-0.506368
-0.488216
-0.471975
-0.461074
-0.448103
-0.433316
-0.421418
-0.416230
-0.417015
-0.418782
-0.414660
-0.398936
-0.364237
-0.319484
-0.270493
-0.221463
-0.176313
-0.137800
-0.106816
-0.083307
-0.066415
-0.054895
-0.046820
-0.039975
-0.033360
-0.026979
-0.020762
-0.014855
-0.009496
-0.004910
-0.001267
0.001319
0.002780
0.003091
0.002281
0.000459
-0.002165
-0.005266
-0.008417
-0.011153
-0.013053
-0.013832
-0.013234
-0.011423
-0.008807
-0.005766
-0.002626
0.000361
0.003019
0.005245
0.006993
0.008269
0.009109
0.009568
0.009710
0.009599
0.009290
0.008834
0.008268
0.007624
0.006923
0.006184
0.005416
0.004630
0.003831
0.003024
0.002210
0.001394
0.000575
-0.000243
-0.001061
-0.001878
-0.002691
-0.003501
-0.004307
-0.005107
-0.005900
-0.006684
-0.007459
-0.008222
-0.008972
-0.009706
-0.010423
-0.011119
-0.011793
-0.012443
-0.013068
-0.013812
0.509009
0.512995
0.524600
0.544627
0.574351
0.615346
0.669043
0.734711
0.799693
0.823548
0.785923
0.673188
0.000000
-0.460337
-0.432458
-0.412059
-0.404667
-0.405409
-0.418161
-0.444529
-0.477760
-0.505711
-0.517249
-0.494377
-0.447260
-0.384444
-0.315241
-0.247019
-0.185098
-0.132710
-0.091172
-0.060458
-0.039537
-0.026633
-0.019393
-0.015374
-0.012589
-0.009594
-0.006556
-0.003531
-0.000789
0.001409
0.002869
0.003449
0.003044
0.001594
-0.000886
-0.004267
-0.008264
-0.012437
-0.016239
-0.019125
-0.020680
-0.020512
-0.018564
-0.015569
-0.011942
-0.008071
-0.004272
-0.000778
0.002259
0.004757
0.006696
0.008098
0.009017
0.009520
0.009683
0.009577
0.009266
0.008802
0.008227
0.007574
0.006867
0.006121
0.005350
0.004562
0.003762
0.002954
0.002142
0.001326
0.000509
-0.000308
-0.001124
-0.001939
-0.002751
-0.003560
-0.004365
-0.005165
-0.005958
-0.006744
-0.007520
-0.008286
-0.009039
-0.009777
-0.010499
-0.011202
-0.011884
-0.012544
-0.013180
-0.013942
0.513977
0.517449
0.527477
0.544515
0.569160
0.601722
0.641074
0.682379
0.712575
0.705546
0.643851
0.560453
0.398684
0.000000
-0.400347
-0.368236
-0.366552
-0.376775
-0.406588
-0.457018
-0.518764
-0.570491
-0.589361
-0.556556
-0.496214
-0.419514
-0.336886
-0.256569
-0.184248
-0.123193
-0.074706
-0.038697
-0.014116
0.000780
0.008290
0.011013
0.011321
0.010831
0.010681
0.010727
0.010615
0.010051
0.008857
0.006897
0.004059
0.000282
-0.004386
-0.009723
-0.015298
-0.020506
-0.024682
-0.027264
-0.027828
-0.025875
-0.022615
-0.018529
-0.014050
-0.009538
-0.005272
-0.001449
0.001814
0.004463
0.006499
0.007961
0.008914
0.009436
0.009607
0.009503
0.009190
0.008723
0.008146
0.007491
0.006782
0.006036
0.005266
0.004479
0.003681
0.002875
0.002065
0.001252
0.000438
-0.000377
-0.001192
-0.002005
-0.002816
-0.003625
-0.004430
-0.005230
-0.006025
-0.006813
-0.007592
-0.008362
-0.009120
-0.009865
-0.010594
-0.011305
-0.011997
-0.012668
-0.013317
-0.014098
0.512524
0.515266
0.523094
0.536047
0.553971
0.576026
0.599736
0.619406
0.623982
0.595717
0.517148
0.380188
0.236915
-0.169476
-0.393158
-0.336630
-0.330167
-0.345982
-0.389081
-0.456319
-0.533749
-0.596148
-0.608470
-0.571031
-0.504884
-0.422682
-0.335433
-0.251388
-0.175927
-0.111957
-0.060534
-0.021523
0.005924
0.023180
0.032126
0.035101
0.034618
0.032640
0.029677
0.027157
0.024326
0.020872
0.016713
0.011788
0.006030
-0.000557
-0.007805
-0.015307
-0.022417
-0.028348
-0.032383
-0.034049
-0.032340
-0.029042
-0.024724
-0.019868
-0.014864
-0.010018
-0.005555
-0.001626
0.001684
0.004348
0.006383
0.007837
0.008782
0.009298
0.009467
0.009363
0.009052
0.008590
0.008018
0.007368
0.006665
0.005926
0.005161
0.004380
0.003587
0.002786
0.001981
0.001172
0.000360
-0.000452
-0.001264
-0.002076
-0.002886
-0.003695
-0.004500
-0.005302
-0.006099
-0.006891
-0.007675
-0.008450
-0.009215
-0.009968
-0.010706
-0.011428
-0.012132
-0.012815
-0.013477
-0.014276
0.505995
0.507883
0.513177
0.521621
0.532569
0.544573
0.554696
0.557551
0.544212
0.501426
0.412046
0.253437
-0.021742
-0.575867
-0.449685
-0.334778
-0.310378
-0.329033
-0.378348
-0.449048
-0.524809
-0.579797
-0.578963
-0.540821
-0.476622
-0.398201
-0.315606
-0.236207
-0.164704
-0.103558
-0.053592
-0.014583
0.014228
0.033793
0.045212
0.050153
0.050998
0.049796
0.047070
0.043362
0.038487
0.032358
0.025219
0.017189
0.008326
-0.001208
-0.011023
-0.020450
-0.028606
-0.034572
-0.037792
-0.036732
-0.033763
-0.029583
-0.024717
-0.019573
-0.014467
-0.009638
-0.005258
-0.001439
0.001759
0.004324
0.006280
0.007677
0.008586
0.009083
0.009246
0.009147
0.008846
0.008397
0.007840
0.007205
0.006517
0.005790
0.005037
0.004265
0.003481
0.002688
0.001888
0.001085
0.000278
-0.000531
-0.001340
-0.002151
-0.002960
-0.003769
-0.004576
-0.005380
-0.006181
-0.006977
-0.007767
-0.008550
-0.009323
-0.010086
-0.010836
-0.011570
-0.012287
-0.012984
-0.013659
-0.014476
0.495970
0.497008
0.499824
0.503999
0.508661
0.512174
0.511702
0.502659
0.478165
0.428640
0.341506
0.200721
-0.012929
-0.276885
-0.316850
-0.299967
-0.299952
-0.324137
-0.370431
-0.431376
-0.490814
-0.519007
-0.513029
-0.478351
-0.422944
-0.355804
-0.284870
-0.216137
-0.153543
-0.099256
-0.054112
-0.018066
0.009434
0.029190
0.042207
0.049850
0.053726
0.054828
0.055961
0.053794
0.048266
0.040546
0.031301
0.020862
0.009518
-0.002289
-0.013849
-0.024216
-0.032368
-0.037354
-0.037494
-0.035493
-0.032050
-0.027734
-0.022968
-0.018067
-0.013272
-0.008768
-0.004692
-0.001136
0.001850
0.004252
0.006093
0.007416
0.008285
0.008767
0.008933
0.008849
0.008571
0.008147
0.007615
0.007004
0.006337
0.005630
0.004893
0.004136
0.003364
0.002581
0.001790
0.000993
0.000191
-0.000613
-0.001420
-0.002228
-0.003037
-0.003846
-0.004655
-0.005462
-0.006267
-0.007069
-0.007866
-0.008658
-0.009442
-0.010217
-0.010981
-0.011730
-0.012462
-0.013174
-0.013864
-0.014697
0.484024
0.484297
0.484915
0.485416
0.484897
0.481812
0.473716
0.456995
0.426676
0.376440
0.299003
0.187597
0.041629
-0.115111
-0.197071
-0.234737
-0.263175
-0.297160
-0.339696
-0.385791
-0.422824
-0.437968
-0.431297
-0.403959
-0.360833
-0.308045
-0.251382
-0.195481
-0.143585
-0.097651
-0.058608
-0.026644
-0.001461
0.017553
0.031246
0.040667
0.046899
0.051780
0.054084
0.053104
0.048811
0.041670
0.032251
0.021146
0.009012
-0.003338
-0.014887
-0.024547
-0.031101
-0.033169
-0.032949
-0.031082
-0.028099
-0.024410
-0.020326
-0.016088
-0.011891
-0.007896
-0.004233
-0.000997
0.001752
0.003991
0.005728
0.006995
0.007843
0.008331
0.008520
0.008468
0.008228
0.007842
0.007347
0.006770
0.006132
0.005450
0.004735
0.003995
0.003238
0.002467
0.001686
0.000897
0.000102
-0.000698
-0.001502
-0.002308
-0.003116
-0.003926
-0.004737
-0.005547
-0.006357
-0.007166
-0.007972
-0.008775
-0.009571
-0.010361
-0.011140
-0.011907
-0.012657
-0.013386
-0.014092
-0.014941
0.471575
0.471200
0.469987
0.467514
0.462978
0.455066
0.441832
0.420596
0.387974
0.340117
0.273374
0.185819
0.080704
-0.028129
-0.109742
-0.166150
-0.209826
-0.249654
-0.288565
-0.324016
-0.349261
-0.360094
-0.355381
-0.335712
-0.304030
-0.264364
-0.220790
-0.176792
-0.134986
-0.097099
-0.064087
-0.036302
-0.013657
0.004248
0.018034
0.028477
0.036428
0.042373
0.045643
0.045937
0.043176
0.037585
0.029594
0.019806
0.009008
-0.001815
-0.011538
-0.019074
-0.023440
-0.025666
-0.026152
-0.025295
-0.023436
-0.020852
-0.017771
-0.014391
-0.010894
-0.007443
-0.004185
-0.001236
0.001323
0.003448
0.005128
0.006382
0.007247
0.007773
0.008011
0.008013
0.007827
0.007493
0.007045
0.006509
0.005907
0.005255
0.004565
0.003847
0.003106
0.002349
0.001579
0.000799
0.000011
-0.000784
-0.001584
-0.002388
-0.003196
-0.004006
-0.004819
-0.005634
-0.006450
-0.007266
-0.008082
-0.008897
-0.009708
-0.010515
-0.011313
-0.012101
-0.012872
-0.013622
-0.014346
-0.015210
0.459820
0.458908
0.456208
0.451405
0.443867
0.432566
0.416041
0.392399
0.359437
0.314941
0.257272
0.186402
0.105515
0.022486
-0.049882
-0.108630
-0.156954
-0.198542
-0.234941
-0.265039
-0.285909
-0.295777
-0.293728
-0.280356
-0.257619
-0.228249
-0.195141
-0.160900
-0.127602
-0.096709
-0.069114
-0.045231
-0.025101
-0.008502
0.004974
0.015830
0.024578
0.031234
0.035514
0.037236
0.036310
0.032845
0.027168
0.019814
0.011511
0.003126
-0.004444
-0.010455
-0.014888
-0.017841
-0.019453
-0.019901
-0.019361
-0.017997
-0.015972
-0.013453
-0.010616
-0.007640
-0.004701
-0.001947
0.000510
0.002599
0.004290
0.005586
0.006513
0.007111
0.007425
0.007502
0.007386
0.007115
0.006722
0.006234
0.005672
0.005053
0.004391
0.003694
0.002972
0.002230
0.001472
0.000701
-0.000080
-0.000869
-0.001665
-0.002467
-0.003274
-0.004086
-0.004901
-0.005721
-0.006543
-0.007368
-0.008194
-0.009022
-0.009850
-0.010676
-0.011498
-0.012310
-0.013109
-0.013886
-0.014632
-0.015510
0.449758
0.448373
0.444427
0.437782
0.428014
0.414375
0.395810
0.371023
0.338623
0.297386
0.246685
0.187098
0.121098
0.053380
-0.009834
-0.065443
-0.113335
-0.154396
-0.189024
-0.216607
-0.236020
-0.246016
-0.246351
-0.237667
-0.221430
-0.199630
-0.174411
-0.147761
-0.121313
-0.096261
-0.073364
-0.053005
-0.035273
-0.020049
-0.007093
0.003886
0.013139
0.020543
0.025927
0.029158
0.030148
0.028936
0.025740
0.020956
0.015117
0.008841
0.002705
-0.002863
-0.007550
-0.011264
-0.013972
-0.015679
-0.016413
-0.016225
-0.015200
-0.013465
-0.011185
-0.008559
-0.005804
-0.003118
-0.000653
0.001493
0.003268
0.004662
0.005692
0.006392
0.006804
0.006971
0.006934
0.006732
0.006398
0.005959
0.005438
0.004853
0.004219
0.003545
0.002841
0.002114
0.001368
0.000606
-0.000167
-0.000951
-0.001743
-0.002543
-0.003350
-0.004163
-0.004981
-0.005805
-0.006634
-0.007467
-0.008306
-0.009148
-0.009995
-0.010843
-0.011691
-0.012535
-0.013368
-0.014180
-0.014956
-0.015849
0.442266
0.440360
0.435226
0.427021
0.415540
0.400263
0.380434
0.355173
0.323610
0.285092
0.239473
0.187455
0.130883
0.072760
0.016674
-0.034833
-0.080597
-0.120221
-0.153394
-0.179597
-0.198304
-0.208661
-0.210795
-0.205404
-0.193721
-0.177330
-0.157921
-0.137061
-0.116041
-0.095801
-0.076928
-0.059706
-0.044196
-0.030324
-0.017948
-0.006919
0.002866
0.011123
0.017688
0.022416
0.025184
0.025971
0.024903
0.022256
0.018387
0.013688
0.008410
0.003184
-0.001733
-0.006138
-0.009859
-0.012751
-0.014694
-0.015617
-0.015513
-0.014456
-0.012593
-0.010148
-0.007403
-0.004630
-0.002031
0.000264
0.002190
0.003723
0.004883
0.005700
0.006217
0.006475
0.006517
0.006380
0.006101
0.005708
0.005225
0.004671
0.004061
0.003408
0.002720
0.002006
0.001271
0.000518
-0.000249
-0.001027
-0.001816
-0.002614
-0.003421
-0.004235
-0.005056
-0.005885
-0.006720
-0.007563
-0.008413
-0.009271
-0.010137
-0.011010
-0.011888
-0.012770
-0.013648
-0.014511
-0.015336
-0.016236
0.438321
0.435522
0.428951
0.419240
0.406347
0.389868
0.369222
0.343786
0.313006
0.276545
0.234472
0.187459
0.136915
0.084929
0.033918
-0.014046
-0.057523
-0.095566
-0.127452
-0.152675
-0.170818
-0.181400
-0.184717
-0.181514
-0.172922
-0.160309
-0.145092
-0.128555
-0.111733
-0.095341
-0.079791
-0.065244
-0.051694
-0.039064
-0.027263
-0.016227
-0.005886
0.003301
0.011090
0.017256
0.021594
0.024015
0.024600
0.023601
0.021247
0.017461
0.012895
0.007873
0.002689
-0.002377
-0.007040
-0.011021
-0.014064
-0.015979
-0.016671
-0.016160
-0.014562
-0.012107
-0.009179
-0.006174
-0.003344
-0.000839
0.001266
0.002943
0.004224
0.005148
0.005757
0.006090
0.006193
0.006108
0.005871
0.005513
0.005058
0.004527
0.003936
0.003297
0.002621
0.001917
0.001190
0.000444
-0.000317
-0.001092
-0.001878
-0.002675
-0.003482
-0.004298
-0.005122
-0.005955
-0.006797
-0.007648
-0.008510
-0.009384
-0.010270
-0.011169
-0.012082
-0.013006
-0.013940
-0.014876
-0.015793
-0.016672
0.439603
0.434354
0.425617
0.414299
0.400187
0.382807
0.361595
0.336078
0.305877
0.270817
0.231055
0.187201
0.140386
0.092211
0.044532
-0.000874
-0.042534
-0.079280
-0.110032
-0.134637
-0.152324
-0.163006
-0.167058
-0.165246
-0.158644
-0.148492
-0.136039
-0.122392
-0.108410
-0.094660
-0.081430
-0.068790
-0.056685
-0.045025
-0.033755
-0.022902
-0.012499
-0.002460
0.006442
0.013862
0.019448
0.023033
0.024692
0.024795
0.023016
0.019934
0.015786
0.010862
0.005473
-0.000051
-0.005356
-0.010075
-0.013865
-0.016454
-0.017698
-0.017591
-0.016217
-0.013678
-0.010467
-0.007208
-0.004167
-0.001512
0.000699
0.002477
0.003837
0.004818
0.005467
0.005841
0.005982
0.005930
0.005721
0.005386
0.004951
0.004439
0.003860
0.003230
0.002561
0.001862
0.001139
0.000397
-0.000361
-0.001134
-0.001920
-0.002717
-0.003525
-0.004342
-0.005170
-0.006007
-0.006856
-0.007717
-0.008590
-0.009478
-0.010383
-0.011306
-0.012251
-0.013218
-0.014212
-0.015236
-0.016299
-0.017087
0.450613
0.436527
0.424680
0.411972
0.397012
0.379009
0.357463
0.331917
0.302059
0.267776
0.229240
0.187002
0.142043
0.095741
0.049722
0.005623
-0.035108
-0.071345
-0.102365
-0.126798
-0.144362
-0.155137
-0.159545
-0.158350
-0.152584
-0.143425
-0.132043
-0.119474
-0.106517
-0.093694
-0.081265
-0.069290
-0.057712
-0.046450
-0.035473
-0.024857
-0.014811
-0.005089
0.004262
0.012307
0.018477
0.022524
0.024457
0.024274
0.022712
0.019888
0.015989
0.011277
0.006046
0.000625
-0.004636
-0.009368
-0.013224
-0.015927
-0.017316
-0.017374
-0.016212
-0.014069
-0.011075
-0.007682
-0.004492
-0.001737
0.000531
0.002333
0.003709
0.004704
0.005367
0.005752
0.005903
0.005860
0.005660
0.005332
0.004903
0.004390
0.003816
0.003193
0.002530
0.001836
0.001116
0.000376
-0.000380
-0.001152
-0.001936
-0.002734
-0.003544
-0.004366
-0.005197
-0.006037
-0.006889
-0.007754
-0.008634
-0.009530
-0.010445
-0.011383
-0.012347
-0.013341
-0.014370
-0.015441
-0.016559
-0.017239
