# vtk DataFile Version 3.0
Scalar Field
ASCII
DATASET RECTILINEAR_GRID
DIMENSIONS 100 26 1
X_COORDINATES 100 double
0.050000 0.150000 0.250000 0.350000 0.450000 0.550000 0.650000 0.750000 0.850000 0.950000 1.050000 1.150000 1.250000 1.350000 1.450000 1.550000 1.650000 1.750000 1.850000 1.950000 2.050000 2.150000 2.250000 2.350000 2.450000 2.550000 2.650000 2.750000 2.850000 2.950000 3.050000 3.150000 3.250000 3.350000 3.450000 3.550000 3.650000 3.750000 3.850000 3.950000 4.050000 4.150000 4.250000 4.350000 4.450000 4.550000 4.650000 4.750000 4.850000 4.950000 5.050000 5.150000 5.250000 5.350000 5.450000 5.550000 5.650000 5.750000 5.850000 5.950000 6.050000 6.150000 6.250000 6.350000 6.450000 6.550000 6.650000 6.750000 6.850000 6.950000 7.050000 7.150000 7.250000 7.350000 7.450000 7.550000 7.650000 7.750000 7.850000 7.950000 8.050000 8.150000 8.250000 8.350000 8.450000 8.550000 8.650000 8.750000 8.850000 8.950000 9.050000 9.150000 9.250000 9.350000 9.450000 9.550000 9.650000 9.750000 9.850000 9.950000 
Y_COORDINATES 26 double
0.050000 0.150000 0.250000 0.350000 0.450000 0.550000 0.650000 0.750000 0.850000 0.950000 1.050000 1.150000 1.250000 1.350000 1.450000 1.550000 1.650000 1.750000 1.850000 1.950000 2.050000 2.150000 2.250000 2.350000 2.450000 2.550000 
Z_COORDINATES 1 double
0.0
POINT_DATA 2600
SCALARS Skalarfeld double 1
LOOKUP_TABLE default
0.271900
0.256530
0.241043
0.222416
0.199517
0.171867
0.139415
0.102538
0.062117
0.019571
-0.023245
-0.064322
-0.101834
-0.134407
-0.160972
-0.180634
-0.193402
-0.199609
-0.199859
-0.194950
-0.185790
-0.173319
-0.158433
-0.141938
-0.124528
-0.106784
-0.089205
-0.072235
-0.056302
-0.041819
-0.029132
-0.018550
-0.010244
-0.004137
0.000041
0.002596
0.003738
0.003512
0.001802
-0.001576
-0.006741
-0.013605
-0.021756
-0.030353
-0.038010
-0.042807
-0.042976
-0.038123
-0.028826
-0.018134
-0.007360
0.002792
0.011944
0.019939
0.026753
0.032435
0.037085
0.040839
0.043805
0.046154
0.047771
0.048300
0.047472
0.045082
0.041179
0.036183
0.030781
0.025601
0.020855
0.016309
0.011630
0.006801
0.002219
-0.001514
-0.003931
-0.004897
-0.004567
-0.003138
-0.000935
0.001813
0.004875
0.008026
0.011019
0.013688
0.016005
0.018108
0.020185
0.022422
0.024953
0.027848
0.031161
0.034973
0.039399
0.044563
0.050561
0.057446
0.065214
0.073784
0.083062
0.093723
0.263248
0.256686
0.244191
0.226730
0.204144
0.176209
0.142901
0.104601
0.062274
0.017544
-0.027397
-0.070238
-0.108968
-0.142037
-0.168534
-0.188207
-0.200739
-0.206475
-0.206053
-0.200306
-0.190187
-0.176678
-0.160727
-0.143187
-0.124796
-0.106175
-0.087852
-0.070299
-0.053975
-0.039344
-0.026693
-0.016367
-0.008593
-0.003219
0.000195
0.002062
0.002663
0.002063
0.000131
-0.003351
-0.008545
-0.015413
-0.023593
-0.032271
-0.039971
-0.044464
-0.043469
-0.036871
-0.028260
-0.018090
-0.007593
0.002393
0.011417
0.019307
0.026046
0.031694
0.036365
0.040226
0.043531
0.046276
0.048059
0.048712
0.048025
0.045685
0.041726
0.036644
0.031214
0.026105
0.021456
0.016879
0.011939
0.006650
0.001576
-0.002494
-0.005000
-0.005864
-0.005434
-0.003796
-0.001433
0.001459
0.004718
0.008037
0.011144
0.013850
0.016109
0.018139
0.020121
0.022250
0.024673
0.027453
0.030645
0.034342
0.038680
0.043800
0.049811
0.056776
0.064705
0.073571
0.083108
0.094114
0.266736
0.262530
0.251912
0.235446
0.213051
0.184437
0.149431
0.108307
0.062113
0.012874
-0.036425
-0.082799
-0.123970
-0.158496
-0.185634
-0.205237
-0.217181
-0.221808
-0.219814
-0.212094
-0.199673
-0.183636
-0.165050
-0.144902
-0.124069
-0.103304
-0.083256
-0.064499
-0.047581
-0.033010
-0.021335
-0.012742
-0.007075
-0.004065
-0.003131
-0.003332
-0.004185
-0.005562
-0.007613
-0.010622
-0.014836
-0.020301
-0.026704
-0.033237
-0.038511
-0.040810
-0.038953
-0.033152
-0.024575
-0.015056
-0.005686
0.003426
0.011704
0.018975
0.025200
0.030430
0.034771
0.038372
0.041395
0.043908
0.045896
0.047027
0.046843
0.045115
0.041911
0.037619
0.032714
0.027673
0.022636
0.017395
0.011786
0.006019
0.000727
-0.003339
-0.005732
-0.006470
-0.005818
-0.004386
-0.002202
0.000671
0.003996
0.007353
0.010549
0.013406
0.015891
0.017994
0.019899
0.021789
0.023896
0.026332
0.029223
0.032717
0.036980
0.042166
0.048396
0.055739
0.064207
0.073776
0.084388
0.098443
0.278034
0.274592
0.264993
0.249204
0.226788
0.197072
0.159446
0.113834
0.061293
0.004454
-0.051939
-0.103649
-0.148152
-0.184358
-0.211980
-0.231119
-0.241923
-0.244732
-0.240299
-0.229581
-0.213711
-0.193916
-0.171438
-0.147461
-0.123054
-0.099156
-0.076564
-0.055969
-0.038014
-0.023505
-0.013062
-0.006877
-0.004611
-0.005390
-0.008185
-0.011673
-0.014776
-0.017300
-0.019430
-0.021548
-0.024023
-0.027022
-0.030371
-0.033480
-0.035391
-0.035075
-0.031940
-0.026164
-0.018532
-0.010061
-0.001369
0.006632
0.013825
0.020122
0.025461
0.029870
0.033451
0.036346
0.038729
0.040736
0.042403
0.043572
0.043958
0.043261
0.041179
0.037683
0.033137
0.028024
0.022657
0.017046
0.011294
0.005693
0.000744
-0.003049
-0.005427
-0.006417
-0.006167
-0.004844
-0.002512
0.000424
0.003576
0.006769
0.009973
0.012859
0.015304
0.017303
0.018983
0.020557
0.022217
0.024201
0.026727
0.030006
0.034229
0.039565
0.046153
0.054083
0.063402
0.074173
0.086636
0.105612
0.295703
0.292653
0.283821
0.268707
0.246339
0.215339
0.174212
0.122014
0.059507
-0.009995
-0.077406
-0.136322
-0.184500
-0.221987
-0.249428
-0.267349
-0.276142
-0.276218
-0.268287
-0.253362
-0.232720
-0.207800
-0.180084
-0.151002
-0.121867
-0.093825
-0.067834
-0.044670
-0.025011
-0.010215
-0.001201
0.001725
-0.000820
-0.007259
-0.015316
-0.023089
-0.028923
-0.032604
-0.034495
-0.035218
-0.035368
-0.035318
-0.035117
-0.034479
-0.032886
-0.029818
-0.025029
-0.018693
-0.011323
-0.003557
0.004061
0.011058
0.017244
0.022510
0.026826
0.030188
0.032741
0.034653
0.036151
0.037453
0.038682
0.039759
0.040397
0.040200
0.038789
0.036000
0.031956
0.026901
0.021237
0.015334
0.009598
0.004339
-0.000092
-0.003394
-0.005422
-0.006197
-0.005826
-0.004463
-0.002284
0.000467
0.003578
0.006900
0.009968
0.012691
0.014927
0.016631
0.017897
0.018930
0.019972
0.021349
0.023364
0.026284
0.030332
0.035698
0.042557
0.050937
0.060905
0.072736
0.086804
0.109495
0.319003
0.316355
0.308504
0.294555
0.272879
0.241021
0.195869
0.134501
0.056366
-0.035272
-0.119255
-0.186328
-0.236870
-0.273974
-0.299957
-0.315565
-0.321419
-0.317806
-0.305177
-0.284599
-0.257585
-0.225879
-0.191291
-0.155578
-0.120352
-0.087017
-0.056708
-0.030250
-0.008152
0.007498
0.015002
0.013763
0.004736
-0.009569
-0.025465
-0.038889
-0.047741
-0.052217
-0.053166
-0.051721
-0.048892
-0.045358
-0.041422
-0.037071
-0.032110
-0.026333
-0.019691
-0.012365
-0.004721
0.002810
0.009838
0.016063
0.021306
0.025437
0.028468
0.030567
0.031869
0.032565
0.032972
0.033377
0.034006
0.034868
0.035674
0.035952
0.035200
0.033062
0.029435
0.024468
0.018561
0.012451
0.006545
0.001451
-0.002561
-0.005311
-0.006756
-0.006972
-0.006113
-0.004370
-0.001947
0.000946
0.004099
0.007306
0.010299
0.012875
0.014863
0.016162
0.016827
0.017080
0.017262
0.017771
0.018990
0.021253
0.024831
0.029931
0.036713
0.045215
0.055636
0.068173
0.083235
0.107004
0.347183
0.345123
0.338851
0.327154
0.307706
0.276617
0.228059
0.154775
0.051467
-0.081951
-0.188544
-0.260100
-0.307467
-0.340377
-0.363335
-0.375988
-0.378645
-0.370743
-0.352274
-0.324492
-0.289318
-0.248952
-0.205649
-0.161586
-0.118770
-0.078947
-0.043516
-0.013420
0.011104
0.028616
0.035105
0.029641
0.013626
-0.009567
-0.035084
-0.057340
-0.070549
-0.075497
-0.074842
-0.070542
-0.064230
-0.056972
-0.049320
-0.041462
-0.033393
-0.025079
-0.016566
-0.008032
0.000240
0.007935
0.014776
0.020551
0.025105
0.028303
0.030046
0.030335
0.029453
0.028060
0.027052
0.026350
0.026266
0.026975
0.028136
0.029147
0.029363
0.028258
0.025535
0.021176
0.015473
0.008991
0.002723
-0.002470
-0.006362
-0.008765
-0.009689
-0.009280
-0.007768
-0.005414
-0.002478
0.000799
0.004194
0.007492
0.010459
0.012860
0.014487
0.015223
0.015118
0.014413
0.013502
0.012863
0.012982
0.014291
0.017127
0.021717
0.028184
0.036728
0.047392
0.060285
0.075695
0.098932
0.379146
0.377960
0.374159
0.366400
0.351882
0.325267
0.276858
0.190613
0.044571
-0.174117
-0.300950
-0.358785
-0.389677
-0.412339
-0.432077
-0.444399
-0.445772
-0.434108
-0.409253
-0.373133
-0.328383
-0.277825
-0.224274
-0.170433
-0.118820
-0.071660
-0.030788
0.002423
0.027050
0.046844
0.053402
0.045168
0.024398
-0.004771
-0.037180
-0.067138
-0.089389
-0.096785
-0.095173
-0.088481
-0.079167
-0.068731
-0.057957
-0.047182
-0.036525
-0.026047
-0.015850
-0.006115
0.002918
0.010994
0.017889
0.023408
0.027352
0.029478
0.029584
0.027703
0.024315
0.020316
0.016585
0.014435
0.013992
0.015070
0.017087
0.019282
0.020890
0.021265
0.019967
0.016823
0.011981
0.005927
-0.000536
-0.006461
-0.010539
-0.012949
-0.013659
-0.012846
-0.010802
-0.007868
-0.004381
-0.000647
0.003066
0.006514
0.009449
0.011623
0.012815
0.012898
0.011913
0.010115
0.007950
0.005996
0.004860
0.005085
0.007075
0.011064
0.017237
0.025732
0.036465
0.049416
0.064687
0.086660
0.413262
0.413254
0.412899
0.411092
0.405259
0.389645
0.351200
0.260109
0.041599
-0.369686
-0.467759
-0.463140
-0.459273
-0.466247
-0.485373
-0.507182
-0.513397
-0.500588
-0.470525
-0.426763
-0.372902
-0.312439
-0.248794
-0.185296
-0.125138
-0.071222
-0.025920
0.009059
0.032794
0.045139
0.051446
0.042507
0.022655
-0.004550
-0.035381
-0.065471
-0.090174
-0.105805
-0.106549
-0.099723
-0.089442
-0.077618
-0.065252
-0.052827
-0.040581
-0.028678
-0.017295
-0.006656
0.002985
0.011369
0.018249
0.023348
0.026310
0.026726
0.024362
0.019487
0.013054
0.006486
0.001111
-0.001900
-0.001999
0.000093
0.003497
0.007292
0.010624
0.012778
0.013231
0.011703
0.008207
0.003095
-0.002951
-0.009021
-0.014042
-0.016777
-0.017662
-0.016836
-0.014604
-0.011361
-0.007523
-0.003472
0.000457
0.003967
0.006785
0.008647
0.009320
0.008671
0.006739
0.003796
0.000352
-0.002916
-0.005284
-0.006111
-0.004938
-0.001532
0.004359
0.012718
0.023352
0.036099
0.050876
0.071258
0.447350
0.448712
0.452475
0.458220
0.464703
0.468317
0.458346
0.400420
0.143743
-0.726353
-0.656538
-0.521588
-0.486619
-0.480494
-0.498844
-0.536917
-0.560096
-0.551110
-0.520446
-0.473805
-0.415463
-0.349409
-0.279666
-0.210308
-0.145515
-0.089339
-0.044935
-0.013475
0.005926
0.015080
0.014939
0.009365
-0.002387
-0.019332
-0.039873
-0.061615
-0.081402
-0.096002
-0.103175
-0.099918
-0.091297
-0.080497
-0.068646
-0.056342
-0.043944
-0.031742
-0.020033
-0.009140
0.000601
0.008850
0.015248
0.019356
0.020630
0.018573
0.013115
0.005007
-0.004164
-0.012488
-0.018476
-0.020962
-0.019861
-0.016154
-0.010935
-0.005252
-0.000019
0.004021
0.006321
0.006548
0.004620
0.000764
-0.004467
-0.010242
-0.015595
-0.019341
-0.020705
-0.020275
-0.018279
-0.015124
-0.011279
-0.007200
-0.003292
0.000095
0.002646
0.004074
0.004138
0.002697
-0.000204
-0.004266
-0.008919
-0.013401
-0.016898
-0.018693
-0.018289
-0.015449
-0.009875
-0.001760
0.008591
0.020882
0.034866
0.053434
0.478877
0.481561
0.489354
0.502741
0.522504
0.549507
0.583740
0.619975
0.692413
-0.016970
-0.578770
-0.501001
-0.488524
-0.484213
-0.496301
-0.528734
-0.562361
-0.565140
-0.539598
-0.497386
-0.442449
-0.378972
-0.311651
-0.245385
-0.185346
-0.135922
-0.099544
-0.075821
-0.061944
-0.054766
-0.051049
-0.047357
-0.045913
-0.047679
-0.052901
-0.061046
-0.070654
-0.079578
-0.085674
-0.087586
-0.083437
-0.075632
-0.066206
-0.055780
-0.044773
-0.033583
-0.022645
-0.012419
-0.003375
0.004009
0.009207
0.011596
0.010494
0.005460
-0.003207
-0.014147
-0.025214
-0.034254
-0.039832
-0.040837
-0.037838
-0.032023
-0.024656
-0.016893
-0.009691
-0.003792
0.000278
0.002185
0.001811
-0.000710
-0.004940
-0.010153
-0.015429
-0.019827
-0.022107
-0.022402
-0.021014
-0.018333
-0.014851
-0.011074
-0.007465
-0.004429
-0.002321
-0.001455
-0.002086
-0.004360
-0.008220
-0.013339
-0.019103
-0.024689
-0.029220
-0.031927
-0.032275
-0.030025
-0.024845
-0.017127
-0.007284
0.004266
0.017143
0.033618
0.505404
0.509072
0.519847
0.538836
0.568169
0.611585
0.675633
0.771582
0.907167
0.942661
0.000000
-0.495668
-0.490334
-0.485575
-0.492282
-0.510263
-0.529922
-0.537571
-0.519286
-0.485108
-0.439312
-0.385936
-0.330374
-0.277627
-0.233375
-0.200871
-0.179582
-0.165323
-0.154244
-0.142826
-0.127752
-0.110883
-0.094475
-0.080300
-0.069622
-0.063128
-0.060734
-0.061474
-0.063730
-0.065753
-0.066151
-0.062992
-0.057146
-0.049887
-0.041539
-0.032554
-0.023475
-0.014897
-0.007436
-0.001729
0.001518
0.001511
-0.002487
-0.010711
-0.022374
-0.035547
-0.047725
-0.056706
-0.061154
-0.059966
-0.054550
-0.046266
-0.036527
-0.026582
-0.017424
-0.009773
-0.004112
-0.000728
0.000271
-0.001021
-0.004258
-0.008815
-0.013848
-0.018433
-0.021746
-0.022858
-0.022298
-0.020367
-0.017540
-0.014342
-0.011277
-0.008793
-0.007284
-0.007090
-0.008483
-0.011610
-0.016405
-0.022520
-0.029311
-0.035921
-0.041433
-0.045040
-0.046174
-0.044557
-0.039907
-0.032806
-0.023762
-0.013306
-0.001916
0.012033
0.525123
0.529237
0.541316
0.562518
0.594933
0.641741
0.706909
0.791961
0.889218
0.978154
0.897832
0.000000
-0.487125
-0.483916
-0.476807
-0.478185
-0.481952
-0.479840
-0.464451
-0.435527
-0.399068
-0.360582
-0.324796
-0.297003
-0.279853
-0.270942
-0.267149
-0.261374
-0.248688
-0.225499
-0.197077
-0.166161
-0.135437
-0.107119
-0.082875
-0.063851
-0.050633
-0.043093
-0.040291
-0.040618
-0.042182
-0.043244
-0.041693
-0.038267
-0.033342
-0.027381
-0.020991
-0.014863
-0.009740
-0.006414
-0.005767
-0.008731
-0.016001
-0.027497
-0.041916
-0.056871
-0.069668
-0.078194
-0.080638
-0.076942
-0.068842
-0.057931
-0.045769
-0.033688
-0.022696
-0.013481
-0.006466
-0.001867
0.000248
-0.000027
-0.002400
-0.006336
-0.011076
-0.015754
-0.019583
-0.021615
-0.021967
-0.020912
-0.018898
-0.016448
-0.014084
-0.012285
-0.011476
-0.012022
-0.014210
-0.018188
-0.023884
-0.030937
-0.038689
-0.046270
-0.052742
-0.057274
-0.059294
-0.058285
-0.054406
-0.048228
-0.040364
-0.031440
-0.022015
-0.011219
0.537205
0.541213
0.552904
0.573094
0.603053
0.644228
0.697729
0.763340
0.829905
0.853575
0.817510
0.702939
0.000000
-0.469524
-0.455133
-0.438988
-0.428003
-0.411354
-0.388094
-0.360045
-0.333165
-0.312410
-0.301985
-0.304322
-0.318157
-0.335544
-0.348280
-0.347041
-0.324508
-0.289465
-0.248290
-0.204677
-0.161842
-0.122298
-0.087834
-0.059614
-0.038290
-0.024023
-0.016360
-0.014124
-0.015506
-0.018464
-0.021062
-0.021279
-0.019935
-0.017324
-0.014040
-0.010829
-0.008533
-0.008095
-0.010560
-0.016937
-0.027780
-0.042612
-0.059638
-0.076113
-0.089211
-0.096874
-0.096754
-0.090448
-0.079671
-0.066255
-0.051885
-0.037932
-0.025394
-0.014910
-0.006833
-0.001307
0.001657
0.002169
0.000492
-0.002910
-0.007354
-0.012030
-0.016155
-0.018987
-0.020140
-0.019938
-0.018757
-0.017098
-0.015485
-0.014416
-0.014337
-0.015635
-0.018609
-0.023407
-0.029953
-0.037880
-0.046530
-0.055030
-0.062435
-0.067902
-0.070858
-0.070606
-0.067766
-0.062888
-0.056661
-0.049791
-0.042895
-0.036054
0.541844
0.545314
0.555356
0.572389
0.597005
0.629581
0.669143
0.710718
0.741524
0.734706
0.673102
0.588368
0.422151
0.000000
-0.425357
-0.395582
-0.383942
-0.351279
-0.311732
-0.279833
-0.260432
-0.256558
-0.270015
-0.301491
-0.344951
-0.385719
-0.409816
-0.405696
-0.372993
-0.328376
-0.277302
-0.224268
-0.172862
-0.125707
-0.084538
-0.050368
-0.023689
-0.004618
0.007095
0.012205
0.012109
0.008740
0.004114
0.000373
-0.001587
-0.002187
-0.002004
-0.001826
-0.002583
-0.005355
-0.011314
-0.021452
-0.036071
-0.054248
-0.073738
-0.091516
-0.104640
-0.110907
-0.108131
-0.099281
-0.086163
-0.070717
-0.054668
-0.039371
-0.025771
-0.014441
-0.005657
0.000499
0.004069
0.005179
0.004067
0.001138
-0.003002
-0.007597
-0.011877
-0.015217
-0.017060
-0.017598
-0.017165
-0.016237
-0.015332
-0.014956
-0.015571
-0.017580
-0.021287
-0.026841
-0.034159
-0.042876
-0.052340
-0.061689
-0.069983
-0.076374
-0.080261
-0.081024
-0.079541
-0.076388
-0.072305
-0.068051
-0.064289
-0.062304
0.540034
0.542754
0.550546
0.563450
0.581300
0.603288
0.626976
0.646648
0.651231
0.622774
0.543525
0.403867
0.255935
-0.164793
-0.440844
-0.390791
-0.363843
-0.308155
-0.249670
-0.211628
-0.195042
-0.204901
-0.239778
-0.294996
-0.358841
-0.413157
-0.440767
-0.426790
-0.390105
-0.340249
-0.283968
-0.226317
-0.170989
-0.120493
-0.076355
-0.039349
-0.009744
0.012472
0.027479
0.035692
0.037973
0.035783
0.031001
0.025389
0.020765
0.017505
0.014933
0.012225
0.008381
0.002226
-0.007447
-0.021491
-0.039852
-0.061153
-0.082780
-0.101525
-0.114534
-0.118056
-0.113237
-0.102499
-0.087830
-0.071208
-0.054320
-0.038445
-0.024438
-0.012787
-0.003700
0.002796
0.006772
0.008358
0.007759
0.005315
0.001551
-0.002846
-0.007142
-0.010720
-0.013060
-0.014160
-0.014321
-0.013995
-0.013691
-0.013916
-0.015144
-0.017782
-0.022137
-0.028351
-0.036339
-0.045736
-0.055906
-0.066007
-0.075127
-0.082450
-0.087217
-0.089268
-0.089496
-0.088496
-0.087042
-0.085934
-0.085868
-0.089612
0.533161
0.535015
0.540242
0.548583
0.559386
0.571206
0.581107
0.583674
0.569924
0.526471
0.435837
0.274046
-0.009153
-0.585522
-0.490896
-0.384630
-0.329614
-0.271943
-0.216189
-0.171684
-0.158962
-0.178221
-0.224487
-0.289797
-0.359817
-0.415816
-0.432830
-0.415279
-0.377413
-0.327212
-0.271212
-0.214319
-0.159983
-0.110442
-0.066964
-0.030109
0.000047
0.023683
0.041037
0.052324
0.057901
0.058559
0.055617
0.050554
0.044865
0.040019
0.035331
0.030076
0.023286
0.013792
0.000486
-0.017216
-0.038849
-0.062638
-0.085701
-0.104660
-0.116407
-0.117573
-0.111493
-0.099919
-0.084864
-0.068222
-0.051555
-0.036010
-0.022328
-0.010911
-0.001914
0.004665
0.008903
0.010912
0.010854
0.008994
0.005764
0.001762
-0.002333
-0.005926
-0.008503
-0.009947
-0.010518
-0.010636
-0.010800
-0.011514
-0.013252
-0.016421
-0.021321
-0.028083
-0.036615
-0.046560
-0.057303
-0.068040
-0.077894
-0.086083
-0.091673
-0.095381
-0.097655
-0.099163
-0.100716
-0.103141
-0.107174
-0.117326
0.522821
0.523816
0.526541
0.530574
0.535032
0.538275
0.537449
0.527940
0.502816
0.452398
0.363884
0.220470
0.001150
-0.275796
-0.328807
-0.307763
-0.274118
-0.232971
-0.191178
-0.161283
-0.155873
-0.178105
-0.224621
-0.285993
-0.347511
-0.387565
-0.393901
-0.376256
-0.341294
-0.295670
-0.244976
-0.193469
-0.144139
-0.098909
-0.058863
-0.024463
0.004260
0.027542
0.045722
0.059092
0.067831
0.072185
0.072796
0.070545
0.066795
0.062006
0.056158
0.048966
0.039689
0.027315
0.010975
-0.009557
-0.033429
-0.058588
-0.082052
-0.100528
-0.109458
-0.109655
-0.103411
-0.092349
-0.078292
-0.062918
-0.047582
-0.033260
-0.020575
-0.009865
-0.001264
0.005224
0.009650
0.012090
0.012649
0.011518
0.009031
0.005687
0.002080
-0.001234
-0.003774
-0.005333
-0.006125
-0.006537
-0.007044
-0.008141
-0.010294
-0.013899
-0.019237
-0.026426
-0.035366
-0.045712
-0.056884
-0.068126
-0.078630
-0.087471
-0.094314
-0.099786
-0.104290
-0.108498
-0.113220
-0.119302
-0.127540
-0.144383
0.510604
0.510829
0.511345
0.511683
0.510931
0.507537
0.499043
0.481815
0.450856
0.399812
0.321350
0.208545
0.060524
-0.099563
-0.181658
-0.207605
-0.205674
-0.190052
-0.171209
-0.159533
-0.163393
-0.185771
-0.224245
-0.270950
-0.312826
-0.335060
-0.337586
-0.322229
-0.293243
-0.255415
-0.213047
-0.169557
-0.127428
-0.088307
-0.053164
-0.022458
0.003716
0.025508
0.043200
0.057109
0.067514
0.074673
0.078820
0.081310
0.081755
0.078644
0.072985
0.065035
0.054351
0.040212
0.022105
0.000198
-0.024340
-0.049316
-0.071835
-0.088022
-0.095072
-0.095605
-0.090628
-0.081554
-0.069882
-0.056969
-0.043910
-0.031503
-0.020278
-0.010549
-0.002475
0.003883
0.008514
0.011436
0.012699
0.012424
0.010865
0.008419
0.005586
0.002849
0.000680
-0.000758
-0.001598
-0.002173
-0.002923
-0.004324
-0.006821
-0.010784
-0.016466
-0.023959
-0.033162
-0.043753
-0.055199
-0.066809
-0.077795
-0.087353
-0.095698
-0.103035
-0.109814
-0.116687
-0.124439
-0.133922
-0.146026
-0.169192
0.497934
0.497512
0.496196
0.493559
0.488794
0.480586
0.466984
0.445313
0.412201
0.363833
0.296642
0.208869
0.104112
-0.003051
-0.079183
-0.122296
-0.141903
-0.147533
-0.147698
-0.150054
-0.160322
-0.180753
-0.209593
-0.241122
-0.266403
-0.280076
-0.280538
-0.268268
-0.245704
-0.216008
-0.182271
-0.147102
-0.112490
-0.079814
-0.049929
-0.023283
-0.000025
0.019907
0.036706
0.050633
0.061963
0.070920
0.078354
0.084065
0.086784
0.086180
0.082349
0.075307
0.064832
0.050592
0.032501
0.011098
-0.012233
-0.035277
-0.055254
-0.068331
-0.075747
-0.077939
-0.075674
-0.069935
-0.061774
-0.052178
-0.041978
-0.031820
-0.022188
-0.013428
-0.005788
0.000568
0.005525
0.009023
0.011063
0.011712
0.011165
0.009746
0.007863
0.006011
0.004438
0.003307
0.002558
0.001919
0.000988
-0.000675
-0.003478
-0.007745
-0.013684
-0.021357
-0.030667
-0.041335
-0.052897
-0.064764
-0.076172
-0.086821
-0.096628
-0.105776
-0.114674
-0.123905
-0.134185
-0.146355
-0.161422
-0.189599
0.486015
0.485059
0.482264
0.477313
0.469575
0.458027
0.441220
0.417286
0.384068
0.339437
0.281912
0.211738
0.132584
0.053162
-0.012326
-0.059183
-0.089656
-0.108557
-0.121286
-0.132886
-0.147101
-0.165483
-0.186978
-0.208100
-0.224515
-0.233157
-0.232531
-0.222804
-0.205411
-0.182420
-0.156007
-0.128111
-0.100271
-0.073584
-0.048740
-0.026098
-0.005779
0.012255
0.028128
0.042005
0.054068
0.064570
0.073803
0.080962
0.085522
0.087080
0.085393
0.080229
0.071350
0.058648
0.042366
0.023295
0.002868
-0.016970
-0.033137
-0.045684
-0.054543
-0.059713
-0.061384
-0.059930
-0.055909
-0.049963
-0.042705
-0.034686
-0.026407
-0.018312
-0.010795
-0.004163
0.001321
0.005496
0.008376
0.009947
0.010423
0.010081
0.009255
0.008231
0.007262
0.006512
0.005925
0.005260
0.004156
0.002220
-0.000893
-0.005438
-0.011553
-0.019268
-0.028504
-0.039067
-0.050652
-0.062804
-0.074908
-0.086629
-0.097821
-0.108583
-0.119226
-0.130224
-0.142180
-0.155881
-0.172419
-0.203100
0.475837
0.474414
0.470388
0.463622
0.453700
0.439886
0.421152
0.396244
0.363842
0.322837
0.272782
0.214535
0.150992
0.087456
0.030897
-0.014913
-0.049803
-0.075801
-0.095895
-0.113117
-0.129798
-0.146983
-0.164179
-0.179615
-0.191047
-0.196540
-0.195220
-0.187215
-0.173481
-0.155459
-0.134727
-0.112739
-0.090662
-0.069312
-0.049156
-0.030372
-0.012942
0.003247
0.018304
0.032261
0.045063
0.056895
0.067232
0.075741
0.081972
0.085487
0.085917
0.082958
0.076415
0.066329
0.053112
0.037619
0.021115
0.005133
-0.009682
-0.022992
-0.034505
-0.043745
-0.050134
-0.053327
-0.053430
-0.050857
-0.046102
-0.039684
-0.032204
-0.024246
-0.016445
-0.009203
-0.002954
0.002107
0.005852
0.008362
0.009732
0.010211
0.010117
0.009735
0.009281
0.008853
0.008372
0.007610
0.006246
0.003949
0.000458
-0.004368
-0.010575
-0.018158
-0.027089
-0.037478
-0.049170
-0.061661
-0.074539
-0.087346
-0.099770
-0.111772
-0.123568
-0.135518
-0.148088
-0.161934
-0.178073
-0.207503
0.468273
0.466335
0.461139
0.452845
0.441261
0.425888
0.406006
0.380790
0.349457
0.311479
0.266887
0.216627
0.162861
0.108969
0.058890
0.015331
-0.020845
-0.050250
-0.074346
-0.094818
-0.113035
-0.129678
-0.144554
-0.156939
-0.165343
-0.168821
-0.166961
-0.159992
-0.148692
-0.134191
-0.117726
-0.100431
-0.083189
-0.066554
-0.050744
-0.035694
-0.021139
-0.006753
0.007674
0.022042
0.035917
0.048885
0.060561
0.070593
0.078556
0.084012
0.086562
0.085906
0.081933
0.074828
0.065077
0.053425
0.040302
0.026353
0.011964
-0.002888
-0.017852
-0.031834
-0.043223
-0.050765
-0.054247
-0.054161
-0.051040
-0.045363
-0.038026
-0.029589
-0.021089
-0.013260
-0.006287
-0.000457
0.004048
0.007257
0.009309
0.010445
0.010947
0.011055
0.010942
0.010669
0.010117
0.009069
0.007244
0.004394
0.000377
-0.004772
-0.010964
-0.018286
-0.026931
-0.036994
-0.048568
-0.061506
-0.075272
-0.089130
-0.102488
-0.115160
-0.127340
-0.139385
-0.151626
-0.164461
-0.178639
-0.201959
0.464289
0.461465
0.454850
0.445082
0.432133
0.415631
0.395033
0.369781
0.339415
0.303722
0.262936
0.217929
0.170332
0.122442
0.076794
0.035379
-0.000795
-0.031658
-0.057792
-0.080036
-0.099122
-0.115485
-0.129126
-0.139570
-0.146060
-0.148174
-0.145846
-0.139444
-0.129721
-0.117674
-0.104355
-0.090697
-0.077373
-0.064727
-0.052759
-0.041176
-0.029455
-0.016918
-0.002962
0.012207
0.027222
0.041687
0.055025
0.066765
0.076476
0.083743
0.088182
0.089526
0.087766
0.083264
0.076550
0.067501
0.056575
0.044159
0.029840
0.013214
-0.005419
-0.024335
-0.040555
-0.051510
-0.056799
-0.057714
-0.055314
-0.049338
-0.041416
-0.032977
-0.024149
-0.015596
-0.007960
-0.001566
0.003448
0.007119
0.009614
0.011182
0.012094
0.012514
0.012565
0.012298
0.011476
0.009911
0.007362
0.003667
-0.001126
-0.006828
-0.013207
-0.020166
-0.028043
-0.037440
-0.048800
-0.062076
-0.076586
-0.091263
-0.105163
-0.117896
-0.129660
-0.141050
-0.152605
-0.164382
-0.176546
-0.190654
0.465553
0.460285
0.451521
0.440176
0.426043
0.408700
0.387612
0.362376
0.332710
0.298562
0.260240
0.218517
0.174677
0.130425
0.087605
0.047793
0.012000
-0.019383
-0.046463
-0.069592
-0.089031
-0.105232
-0.118137
-0.127381
-0.132697
-0.133969
-0.131348
-0.125306
-0.116600
-0.106156
-0.094916
-0.083684
-0.072998
-0.063067
-0.053768
-0.044719
-0.035338
-0.024726
-0.011437
0.003921
0.020335
0.036586
0.051703
0.065070
0.076256
0.084888
0.090617
0.093196
0.092690
0.089865
0.084424
0.076831
0.067511
0.056067
0.041820
0.024079
0.002887
-0.019847
-0.040013
-0.053337
-0.058605
-0.058006
-0.055317
-0.050454
-0.042912
-0.033865
-0.024579
-0.015752
-0.007896
-0.001316
0.003869
0.007697
0.010340
0.012073
0.013231
0.013809
0.013876
0.013316
0.012094
0.009952
0.006654
0.002116
-0.003501
-0.009801
-0.016360
-0.023062
-0.030337
-0.038991
-0.049704
-0.062571
-0.076959
-0.091764
-0.105923
-0.118877
-0.130719
-0.141834
-0.152589
-0.163405
-0.174316
-0.185342
0.476557
0.462456
0.450592
0.437875
0.422939
0.404994
0.383605
0.358385
0.329116
0.295806
0.258772
0.218710
0.176722
0.134235
0.092804
0.053824
0.018301
-0.013243
-0.040719
-0.064339
-0.084464
-0.100862
-0.113528
-0.122383
-0.127314
-0.128323
-0.125643
-0.119779
-0.111475
-0.101612
-0.091077
-0.080613
-0.070709
-0.061536
-0.052941
-0.044522
-0.035710
-0.025834
-0.014362
0.000316
0.017579
0.035017
0.051207
0.065411
0.077211
0.086285
0.092328
0.095105
0.094581
0.090830
0.085249
0.078152
0.069305
0.058264
0.044399
0.027137
0.006561
-0.015705
-0.036080
-0.050474
-0.057201
-0.058140
-0.054695
-0.049226
-0.041819
-0.033064
-0.023955
-0.015257
-0.007496
-0.000979
0.004166
0.007969
0.010590
0.012264
0.013182
0.013682
0.013677
0.013050
0.011673
0.009349
0.005894
0.001249
-0.004432
-0.010802
-0.017499
-0.024428
-0.031938
-0.040684
-0.051217
-0.063618
-0.077385
-0.091640
-0.105504
-0.118449
-0.130414
-0.141647
-0.152473
-0.163172
-0.173769
-0.184479
