# vtk DataFile Version 3.0
Scalar Field
ASCII
DATASET RECTILINEAR_GRID
DIMENSIONS 100 26 1
X_COORDINATES 100 double
0.050000 0.150000 0.250000 0.350000 0.450000 0.550000 0.650000 0.750000 0.850000 0.950000 1.050000 1.150000 1.250000 1.350000 1.450000 1.550000 1.650000 1.750000 1.850000 1.950000 2.050000 2.150000 2.250000 2.350000 2.450000 2.550000 2.650000 2.750000 2.850000 2.950000 3.050000 3.150000 3.250000 3.350000 3.450000 3.550000 3.650000 3.750000 3.850000 3.950000 4.050000 4.150000 4.250000 4.350000 4.450000 4.550000 4.650000 4.750000 4.850000 4.950000 5.050000 5.150000 5.250000 5.350000 5.450000 5.550000 5.650000 5.750000 5.850000 5.950000 6.050000 6.150000 6.250000 6.350000 6.450000 6.550000 6.650000 6.750000 6.850000 6.950000 7.050000 7.150000 7.250000 7.350000 7.450000 7.550000 7.650000 7.750000 7.850000 7.950000 8.050000 8.150000 8.250000 8.350000 8.450000 8.550000 8.650000 8.750000 8.850000 8.950000 9.050000 9.150000 9.250000 9.350000 9.450000 9.550000 9.650000 9.750000 9.850000 9.950000 
Y_COORDINATES 26 double
0.050000 0.150000 0.250000 0.350000 0.450000 0.550000 0.650000 0.750000 0.850000 0.950000 1.050000 1.150000 1.250000 1.350000 1.450000 1.550000 1.650000 1.750000 1.850000 1.950000 2.050000 2.150000 2.250000 2.350000 2.450000 2.550000 
Z_COORDINATES 1 double
0.0
POINT_DATA 2600
SCALARS Skalarfeld double 1
LOOKUP_TABLE default
0.279544
0.264313
0.249208
0.231183
0.209092
0.182411
0.151009
0.115144
0.075524
0.033349
-0.009763
-0.052020
-0.091744
-0.127583
-0.158619
-0.183947
-0.202908
-0.215488
-0.221927
-0.222715
-0.218564
-0.210337
-0.198966
-0.185359
-0.170317
-0.154484
-0.138325
-0.122140
-0.106116
-0.090379
-0.075065
-0.060356
-0.046509
-0.033836
-0.022669
-0.013297
-0.005912
-0.000583
0.002712
0.004011
0.003323
0.000623
-0.004103
-0.010771
-0.019093
-0.028434
-0.037636
-0.044987
-0.048767
-0.048572
-0.044418
-0.038832
-0.032650
-0.026190
-0.019883
-0.014064
-0.008962
-0.004697
-0.001300
0.001265
0.003079
0.004255
0.004919
0.005205
0.005235
0.005120
0.004952
0.004798
0.004706
0.004699
0.004784
0.004950
0.005178
0.005440
0.005707
0.005951
0.006148
0.006280
0.006334
0.006303
0.006186
0.005986
0.005708
0.005361
0.004954
0.004497
0.003999
0.003470
0.002918
0.002350
0.001773
0.001192
0.000611
0.000033
-0.000538
-0.001103
-0.001662
-0.002218
-0.002779
-0.002975
0.270652
0.264235
0.252134
0.235316
0.213596
0.186711
0.154559
0.117401
0.076023
0.031825
-0.013260
-0.057169
-0.098095
-0.134651
-0.165790
-0.191023
-0.210078
-0.222604
-0.228809
-0.229174
-0.224419
-0.215436
-0.203201
-0.188670
-0.172695
-0.155962
-0.138971
-0.122051
-0.105405
-0.089169
-0.073479
-0.058518
-0.044541
-0.031857
-0.020794
-0.011651
-0.004605
0.000329
0.003235
0.004198
0.003244
0.000345
-0.004537
-0.011358
-0.019879
-0.029486
-0.038943
-0.046301
-0.049527
-0.047868
-0.043915
-0.038971
-0.032977
-0.026476
-0.020130
-0.014269
-0.009138
-0.004851
-0.001440
0.001130
0.002941
0.004109
0.004762
0.005035
0.005054
0.004931
0.004759
0.004607
0.004521
0.004526
0.004625
0.004810
0.005056
0.005337
0.005622
0.005883
0.006094
0.006238
0.006301
0.006278
0.006166
0.005969
0.005694
0.005349
0.004943
0.004487
0.003991
0.003463
0.002913
0.002348
0.001775
0.001200
0.000628
0.000062
-0.000493
-0.001035
-0.001564
-0.002084
-0.002614
-0.002784
0.273651
0.269601
0.259414
0.243657
0.222234
0.194822
0.161178
0.121456
0.076523
0.028154
-0.020964
-0.068145
-0.111368
-0.149367
-0.181415
-0.207125
-0.226415
-0.238860
-0.244581
-0.244013
-0.237867
-0.227080
-0.212711
-0.195828
-0.177407
-0.158260
-0.139012
-0.120107
-0.101844
-0.084430
-0.068040
-0.052868
-0.039167
-0.027221
-0.017272
-0.009530
-0.004112
-0.000800
0.000727
0.000696
-0.000809
-0.003819
-0.008403
-0.014551
-0.022032
-0.030214
-0.037930
-0.043628
-0.046083
-0.045219
-0.042050
-0.037006
-0.031137
-0.025184
-0.019325
-0.013760
-0.008861
-0.004742
-0.001453
0.001021
0.002756
0.003861
0.004464
0.004697
0.004688
0.004548
0.004371
0.004226
0.004157
0.004186
0.004317
0.004536
0.004818
0.005133
0.005449
0.005736
0.005970
0.006131
0.006208
0.006194
0.006090
0.005899
0.005628
0.005286
0.004884
0.004432
0.003939
0.003417
0.002873
0.002316
0.001752
0.001190
0.000634
0.000090
-0.000436
-0.000938
-0.001408
-0.001838
-0.002210
-0.002295
0.284190
0.280920
0.271803
0.256814
0.235516
0.207215
0.171249
0.127429
0.076631
0.021205
-0.034472
-0.086543
-0.132820
-0.172485
-0.205395
-0.231554
-0.250884
-0.263095
-0.268015
-0.265983
-0.257689
-0.244143
-0.226547
-0.206142
-0.184091
-0.161394
-0.138853
-0.117076
-0.096491
-0.077394
-0.059993
-0.044470
-0.031052
-0.020105
-0.011892
-0.006427
-0.003432
-0.002628
-0.003360
-0.004985
-0.007334
-0.010433
-0.014390
-0.019250
-0.024852
-0.030706
-0.035975
-0.039676
-0.041106
-0.040175
-0.037302
-0.032976
-0.027845
-0.022314
-0.016829
-0.011822
-0.007470
-0.003752
-0.000786
0.001420
0.002931
0.003855
0.004309
0.004420
0.004315
0.004107
0.003887
0.003724
0.003660
0.003714
0.003882
0.004148
0.004480
0.004845
0.005207
0.005534
0.005800
0.005987
0.006082
0.006082
0.005987
0.005802
0.005535
0.005197
0.004798
0.004348
0.003859
0.003341
0.002803
0.002253
0.001700
0.001149
0.000610
0.000088
-0.000409
-0.000871
-0.001285
-0.001633
-0.001882
-0.001897
0.300798
0.297940
0.289648
0.275441
0.254367
0.225053
0.185979
0.136115
0.076049
0.008799
-0.057050
-0.115602
-0.165056
-0.205892
-0.239155
-0.265462
-0.284696
-0.296412
-0.300149
-0.295975
-0.284553
-0.267059
-0.244949
-0.219742
-0.192858
-0.165529
-0.138764
-0.113341
-0.089821
-0.068569
-0.049796
-0.033624
-0.020248
-0.010355
-0.004233
-0.001788
-0.002398
-0.005003
-0.008668
-0.012327
-0.015637
-0.018700
-0.021763
-0.025010
-0.028436
-0.031779
-0.034545
-0.036171
-0.036255
-0.034719
-0.031774
-0.027770
-0.023127
-0.018225
-0.013428
-0.009029
-0.005112
-0.001914
0.000584
0.002390
0.003552
0.004185
0.004388
0.004283
0.004001
0.003656
0.003342
0.003125
0.003045
0.003115
0.003325
0.003649
0.004049
0.004483
0.004910
0.005293
0.005606
0.005829
0.005951
0.005969
0.005886
0.005708
0.005445
0.005108
0.004709
0.004259
0.003771
0.003255
0.002719
0.002174
0.001626
0.001085
0.000557
0.000052
-0.000423
-0.000855
-0.001230
-0.001527
-0.001715
-0.001707
0.322702
0.320264
0.313009
0.300077
0.279884
0.250024
0.207412
0.149099
0.074396
-0.013631
-0.094675
-0.160200
-0.211099
-0.251103
-0.283471
-0.309669
-0.329044
-0.340375
-0.342798
-0.335787
-0.320027
-0.297058
-0.268804
-0.237209
-0.204042
-0.170813
-0.138752
-0.108817
-0.081694
-0.057804
-0.037320
-0.020207
-0.006567
0.002352
0.006006
0.004538
-0.000939
-0.008537
-0.016057
-0.022008
-0.026139
-0.028787
-0.030544
-0.031862
-0.032964
-0.033822
-0.034206
-0.033820
-0.032441
-0.030018
-0.026676
-0.022655
-0.018252
-0.013767
-0.009471
-0.005583
-0.002239
0.000441
0.002430
0.003768
0.004522
0.004758
0.004608
0.004207
0.003681
0.003144
0.002692
0.002391
0.002278
0.002362
0.002623
0.003024
0.003515
0.004041
0.004555
0.005016
0.005391
0.005663
0.005820
0.005862
0.005793
0.005623
0.005362
0.005025
0.004624
0.004172
0.003681
0.003162
0.002626
0.002081
0.001535
0.000998
0.000476
-0.000021
-0.000483
-0.000899
-0.001254
-0.001530
-0.001701
-0.001708
0.349117
0.347279
0.341643
0.331050
0.313256
0.284480
0.239017
0.169718
0.071280
-0.056098
-0.157505
-0.225743
-0.271877
-0.306274
-0.335480
-0.361884
-0.383278
-0.395616
-0.397390
-0.387047
-0.365584
-0.335342
-0.299039
-0.259237
-0.218141
-0.177575
-0.139010
-0.103595
-0.072164
-0.045216
-0.022887
-0.004966
0.009094
0.017417
0.018716
0.013092
0.002192
-0.011321
-0.024335
-0.033851
-0.038627
-0.040383
-0.040421
-0.039548
-0.038265
-0.036750
-0.034951
-0.032718
-0.029921
-0.026526
-0.022615
-0.018357
-0.013970
-0.009685
-0.005711
-0.002220
0.000673
0.002896
0.004433
0.005321
0.005626
0.005441
0.004891
0.004116
0.003261
0.002460
0.001834
0.001435
0.001286
0.001395
0.001730
0.002238
0.002851
0.003504
0.004135
0.004696
0.005154
0.005489
0.005691
0.005762
0.005710
0.005547
0.005289
0.004949
0.004543
0.004085
0.003588
0.003064
0.002522
0.001973
0.001425
0.000886
0.000364
-0.000132
-0.000592
-0.001006
-0.001360
-0.001637
-0.001820
-0.001871
0.378924
0.377960
0.374802
0.368178
0.355409
0.331344
0.286565
0.205424
0.066474
-0.141478
-0.260050
-0.312927
-0.340639
-0.361439
-0.384163
-0.412063
-0.440940
-0.458998
-0.462476
-0.448942
-0.420669
-0.381585
-0.335622
-0.286115
-0.235746
-0.186650
-0.140551
-0.098837
-0.062567
-0.032398
-0.008505
0.009376
0.022124
0.030753
0.030798
0.022431
0.007981
-0.009467
-0.026697
-0.040938
-0.049275
-0.050414
-0.049160
-0.046476
-0.043230
-0.039806
-0.036269
-0.032545
-0.028556
-0.024281
-0.019782
-0.015191
-0.010681
-0.006438
-0.002631
0.000603
0.003173
0.005030
0.006176
0.006650
0.006527
0.005913
0.004944
0.003774
0.002567
0.001475
0.000620
0.000118
-0.000052
0.000113
0.000566
0.001232
0.002020
0.002845
0.003633
0.004327
0.004891
0.005304
0.005561
0.005668
0.005635
0.005481
0.005222
0.004878
0.004464
0.003997
0.003491
0.002957
0.002407
0.001850
0.001294
0.000748
0.000219
-0.000284
-0.000752
-0.001176
-0.001543
-0.001840
-0.002054
-0.002170
0.410494
0.410689
0.410932
0.410194
0.406054
0.393008
0.358468
0.273507
0.065635
-0.325740
-0.413714
-0.405403
-0.398292
-0.398771
-0.411563
-0.440874
-0.482569
-0.518864
-0.528608
-0.513423
-0.478755
-0.431024
-0.375616
-0.316628
-0.257146
-0.199587
-0.145951
-0.097963
-0.057086
-0.024345
-0.000003
0.016406
0.025368
0.030118
0.029880
0.021204
0.007691
-0.008057
-0.023853
-0.037680
-0.047846
-0.053479
-0.052598
-0.049608
-0.045664
-0.041414
-0.037026
-0.032494
-0.027793
-0.022940
-0.018012
-0.013139
-0.008482
-0.004210
-0.000475
0.002605
0.004951
0.006531
0.007351
0.007458
0.006934
0.005896
0.004495
0.002909
0.001329
-0.000067
-0.001130
-0.001757
-0.001905
-0.001618
-0.000967
-0.000063
0.000975
0.002036
0.003032
0.003898
0.004595
0.005105
0.005429
0.005577
0.005567
0.005421
0.005161
0.004809
0.004385
0.003906
0.003387
0.002841
0.002279
0.001709
0.001142
0.000584
0.000042
-0.000475
-0.000960
-0.001404
-0.001797
-0.002129
-0.002388
-0.002585
0.441675
0.443202
0.447451
0.454077
0.461974
0.467791
0.461317
0.409356
0.165245
-0.668499
-0.590220
-0.457680
-0.423620
-0.409985
-0.414497
-0.443822
-0.492066
-0.546418
-0.574031
-0.561235
-0.524131
-0.471910
-0.411120
-0.346378
-0.281046
-0.217829
-0.159104
-0.107136
-0.064130
-0.031876
-0.010746
0.001081
0.006303
0.006885
0.003806
-0.001099
-0.008029
-0.016256
-0.024979
-0.033313
-0.040318
-0.045207
-0.047663
-0.046816
-0.043677
-0.039957
-0.035859
-0.031426
-0.026706
-0.021776
-0.016760
-0.011820
-0.007137
-0.002889
0.000769
0.003716
0.005876
0.007215
0.007741
0.007499
0.006575
0.005099
0.003243
0.001214
-0.000757
-0.002455
-0.003702
-0.004386
-0.004437
-0.003912
-0.002941
-0.001685
-0.000303
0.001070
0.002331
0.003409
0.004267
0.004893
0.005294
0.005488
0.005502
0.005364
0.005101
0.004740
0.004303
0.003809
0.003275
0.002713
0.002136
0.001551
0.000968
0.000393
-0.000167
-0.000704
-0.001213
-0.001686
-0.002115
-0.002492
-0.002808
-0.003099
0.470003
0.472794
0.480902
0.494862
0.515539
0.543941
0.580346
0.620237
0.697192
0.014346
-0.513821
-0.437422
-0.427873
-0.420201
-0.424120
-0.448372
-0.490621
-0.539459
-0.576899
-0.575083
-0.540445
-0.490242
-0.430984
-0.367304
-0.302608
-0.239943
-0.182312
-0.132856
-0.094454
-0.068474
-0.053850
-0.047247
-0.044803
-0.044260
-0.042637
-0.039477
-0.036347
-0.033966
-0.032686
-0.032581
-0.033434
-0.034797
-0.036122
-0.036789
-0.036719
-0.034579
-0.031775
-0.028299
-0.024283
-0.019867
-0.015229
-0.010576
-0.006125
-0.002085
0.001368
0.004096
0.006010
0.007064
0.007253
0.006617
0.005242
0.003271
0.000903
-0.001607
-0.003979
-0.005947
-0.007299
-0.007915
-0.007693
-0.006753
-0.005307
-0.003577
-0.001757
-0.000006
0.001564
0.002884
0.003921
0.004673
0.005156
0.005399
0.005437
0.005305
0.005038
0.004666
0.004214
0.003703
0.003151
0.002572
0.001977
0.001374
0.000772
0.000177
-0.000405
-0.000968
-0.001507
-0.002015
-0.002487
-0.002917
-0.003298
-0.003693
0.493143
0.496846
0.507732
0.526916
0.556539
0.600318
0.664703
0.760669
0.895468
0.922726
0.000000
-0.434713
-0.432005
-0.431512
-0.438309
-0.458129
-0.487302
-0.519580
-0.543912
-0.547779
-0.519713
-0.476195
-0.424314
-0.368558
-0.311837
-0.257449
-0.208884
-0.169788
-0.142870
-0.127749
-0.120981
-0.117709
-0.114037
-0.107068
-0.095727
-0.082060
-0.067922
-0.054683
-0.043319
-0.034458
-0.028361
-0.024910
-0.023631
-0.023783
-0.024570
-0.025333
-0.024430
-0.022470
-0.019740
-0.016387
-0.012613
-0.008661
-0.004791
-0.001243
0.001773
0.004094
0.005604
0.006233
0.005958
0.004804
0.002859
0.000283
-0.002676
-0.005704
-0.008453
-0.010599
-0.011910
-0.012218
-0.011460
-0.009910
-0.007852
-0.005554
-0.003242
-0.001084
0.000809
0.002374
0.003588
0.004462
0.005022
0.005310
0.005368
0.005240
0.004966
0.004580
0.004112
0.003583
0.003013
0.002415
0.001801
0.001179
0.000556
-0.000062
-0.000669
-0.001262
-0.001835
-0.002384
-0.002905
-0.003393
-0.003845
-0.004352
0.509406
0.513485
0.525468
0.546494
0.578609
0.624888
0.688962
0.772060
0.866536
0.949984
0.864087
0.000000
-0.437565
-0.443126
-0.448008
-0.461691
-0.477916
-0.491443
-0.495847
-0.485425
-0.461612
-0.424962
-0.382726
-0.339568
-0.296692
-0.257877
-0.226804
-0.206618
-0.197729
-0.196393
-0.196850
-0.194046
-0.184602
-0.166379
-0.143938
-0.119417
-0.094899
-0.072048
-0.052075
-0.035773
-0.023552
-0.015441
-0.011082
-0.009750
-0.010456
-0.012103
-0.013600
-0.013751
-0.012673
-0.010797
-0.008298
-0.005437
-0.002502
0.000231
0.002525
0.004183
0.005059
0.005051
0.004108
0.002244
-0.000446
-0.003762
-0.007392
-0.010935
-0.013966
-0.016116
-0.017144
-0.016776
-0.015269
-0.012976
-0.010238
-0.007355
-0.004560
-0.002019
0.000164
0.001942
0.003306
0.004278
0.004899
0.005219
0.005289
0.005160
0.004877
0.004477
0.003992
0.003446
0.002857
0.002241
0.001607
0.000964
0.000319
-0.000323
-0.000958
-0.001582
-0.002192
-0.002785
-0.003358
-0.003909
-0.004435
-0.005058
0.518091
0.522001
0.533418
0.553118
0.582311
0.622439
0.674631
0.738000
0.800530
0.819125
0.778190
0.658279
0.000000
-0.449872
-0.456619
-0.465391
-0.471705
-0.464737
-0.442629
-0.410980
-0.376720
-0.343443
-0.309899
-0.278583
-0.253400
-0.236440
-0.230624
-0.236451
-0.249493
-0.262473
-0.268376
-0.262944
-0.242093
-0.213574
-0.180840
-0.146688
-0.113461
-0.082947
-0.056374
-0.034485
-0.017617
-0.005765
0.001394
0.004507
0.004531
0.002650
0.000089
-0.002166
-0.003078
-0.002925
-0.001969
-0.000482
0.001227
0.002859
0.004152
0.004881
0.004863
0.003964
0.002109
-0.000693
-0.004318
-0.008500
-0.012833
-0.016820
-0.019963
-0.021889
-0.022257
-0.020943
-0.018568
-0.015507
-0.012124
-0.008721
-0.005524
-0.002684
-0.000284
0.001642
0.003104
0.004136
0.004790
0.005123
0.005194
0.005058
0.004763
0.004349
0.003849
0.003286
0.002680
0.002046
0.001394
0.000732
0.000065
-0.000602
-0.001266
-0.001923
-0.002572
-0.003211
-0.003838
-0.004452
-0.005054
-0.005795
0.519500
0.522841
0.532524
0.548945
0.572623
0.603756
0.641157
0.679847
0.706717
0.695167
0.628255
0.538367
0.364698
0.000000
-0.467842
-0.479066
-0.482867
-0.451608
-0.397503
-0.338264
-0.285508
-0.245077
-0.218567
-0.200472
-0.193046
-0.200588
-0.223700
-0.257283
-0.291749
-0.317194
-0.326442
-0.312453
-0.282154
-0.244769
-0.203910
-0.162606
-0.123256
-0.087587
-0.056698
-0.031167
-0.011173
0.003393
0.012866
0.017801
0.019009
0.017557
0.014652
0.011405
0.008602
0.007015
0.006357
0.006352
0.006670
0.007005
0.007078
0.006643
0.005487
0.003444
0.000428
-0.003534
-0.008257
-0.013378
-0.018376
-0.022654
-0.025669
-0.027045
-0.026265
-0.024051
-0.020870
-0.017149
-0.013257
-0.009481
-0.006022
-0.003008
-0.000499
0.001492
0.002987
0.004032
0.004686
0.005012
0.005073
0.004925
0.004617
0.004190
0.003676
0.003100
0.002481
0.001832
0.001163
0.000482
-0.000206
-0.000897
-0.001589
-0.002280
-0.002968
-0.003652
-0.004333
-0.005012
-0.005688
-0.006545
0.514691
0.517252
0.524590
0.536700
0.553360
0.573645
0.594991
0.611600
0.612280
0.579070
0.493983
0.346562
0.191028
-0.251443
-0.567638
-0.520991
-0.499612
-0.441089
-0.359895
-0.278210
-0.209758
-0.159578
-0.132903
-0.121913
-0.132416
-0.164320
-0.213061
-0.269068
-0.319489
-0.352770
-0.359120
-0.336330
-0.300654
-0.257990
-0.212596
-0.167663
-0.125506
-0.087661
-0.055014
-0.027934
-0.006419
0.009774
0.021016
0.027765
0.030620
0.030398
0.028120
0.024839
0.021385
0.018355
0.016279
0.014876
0.013797
0.012754
0.011479
0.009711
0.007216
0.003816
-0.000566
-0.005850
-0.011755
-0.017792
-0.023321
-0.027673
-0.030320
-0.030535
-0.028724
-0.025696
-0.021893
-0.017729
-0.013547
-0.009599
-0.006054
-0.003010
-0.000506
0.001462
0.002927
0.003941
0.004567
0.004871
0.004913
0.004750
0.004431
0.003994
0.003472
0.002887
0.002257
0.001597
0.000915
0.000218
-0.000489
-0.001204
-0.001923
-0.002646
-0.003372
-0.004102
-0.004836
-0.005576
-0.006325
-0.007293
0.505092
0.506765
0.511480
0.518942
0.528445
0.538464
0.545975
0.545485
0.527916
0.479750
0.383100
0.212825
-0.084311
-0.693915
-0.614286
-0.513010
-0.461510
-0.397334
-0.316327
-0.234391
-0.164001
-0.110233
-0.076698
-0.070162
-0.092911
-0.141041
-0.205154
-0.272561
-0.329165
-0.362445
-0.358862
-0.334386
-0.297322
-0.253775
-0.208144
-0.163541
-0.122072
-0.085040
-0.053124
-0.026532
-0.005139
0.011393
0.023509
0.031669
0.036321
0.037986
0.037380
0.035347
0.032594
0.029569
0.026731
0.024329
0.022047
0.019696
0.017060
0.013891
0.009954
0.005082
-0.000752
-0.007382
-0.014400
-0.021179
-0.026975
-0.031097
-0.032728
-0.031744
-0.029252
-0.025727
-0.021618
-0.017309
-0.013098
-0.009196
-0.005740
-0.002800
-0.000399
0.001476
0.002864
0.003819
0.004402
0.004675
0.004699
0.004525
0.004199
0.003759
0.003234
0.002646
0.002012
0.001344
0.000652
-0.000058
-0.000782
-0.001518
-0.002263
-0.003017
-0.003780
-0.004552
-0.005335
-0.006133
-0.006950
-0.008022
0.492345
0.493151
0.495345
0.498475
0.501616
0.503069
0.499922
0.487493
0.458769
0.403936
0.309854
0.158863
-0.072096
-0.368229
-0.433873
-0.418466
-0.382641
-0.331714
-0.270678
-0.206067
-0.147344
-0.099915
-0.062566
-0.057856
-0.085868
-0.138288
-0.203496
-0.268484
-0.319965
-0.340473
-0.333894
-0.310239
-0.275715
-0.235567
-0.193739
-0.153003
-0.115187
-0.081383
-0.052132
-0.027573
-0.007565
0.008215
0.020197
0.028852
0.034644
0.038039
0.039513
0.039515
0.038370
0.037085
0.035333
0.032817
0.029883
0.026586
0.022816
0.018386
0.013105
0.006864
-0.000279
-0.008034
-0.015856
-0.023000
-0.028660
-0.031909
-0.032200
-0.030739
-0.027979
-0.024376
-0.020336
-0.016194
-0.012200
-0.008531
-0.005298
-0.002554
-0.000317
0.001430
0.002723
0.003612
0.004154
0.004404
0.004417
0.004241
0.003919
0.003484
0.002964
0.002380
0.001747
0.001077
0.000379
-0.000342
-0.001081
-0.001835
-0.002604
-0.003386
-0.004183
-0.004995
-0.005824
-0.006675
-0.007553
-0.008718
0.478052
0.478092
0.478085
0.477542
0.475519
0.470425
0.459760
0.439851
0.405648
0.350725
0.267597
0.149031
-0.006383
-0.176360
-0.265997
-0.294709
-0.289298
-0.263011
-0.224112
-0.180527
-0.137694
-0.100682
-0.077909
-0.078470
-0.103268
-0.146995
-0.200253
-0.251160
-0.286295
-0.297810
-0.291574
-0.271728
-0.242909
-0.209237
-0.173945
-0.139362
-0.107042
-0.077919
-0.052463
-0.030807
-0.012850
0.001666
0.013092
0.021832
0.028298
0.032883
0.035927
0.037752
0.039346
0.040058
0.039530
0.037813
0.035103
0.031562
0.027222
0.022004
0.015815
0.008650
0.000690
-0.007643
-0.015691
-0.022651
-0.027425
-0.029364
-0.029457
-0.028039
-0.025504
-0.022242
-0.018600
-0.014867
-0.011259
-0.007932
-0.004984
-0.002468
-0.000402
0.001222
0.002435
0.003276
0.003794
0.004040
0.004060
0.003898
0.003592
0.003173
0.002667
0.002094
0.001467
0.000800
0.000099
-0.000628
-0.001379
-0.002150
-0.002940
-0.003748
-0.004576
-0.005424
-0.006295
-0.007193
-0.008125
-0.009370
0.463637
0.463039
0.461227
0.457760
0.451809
0.442035
0.426468
0.402415
0.366493
0.314883
0.244021
0.152158
0.042955
-0.068870
-0.148005
-0.190716
-0.205095
-0.199451
-0.180841
-0.155650
-0.129296
-0.107127
-0.095125
-0.098308
-0.117532
-0.149305
-0.186691
-0.220598
-0.241862
-0.249762
-0.244939
-0.229860
-0.207643
-0.181286
-0.153279
-0.125501
-0.099240
-0.075288
-0.054049
-0.035643
-0.019996
-0.006911
0.003879
0.012669
0.019758
0.025428
0.029931
0.033812
0.036726
0.038578
0.039193
0.038540
0.036676
0.033662
0.029522
0.024256
0.017890
0.010551
0.002546
-0.005609
-0.013228
-0.019167
-0.022969
-0.025047
-0.025534
-0.024670
-0.022758
-0.020119
-0.017060
-0.013839
-0.010663
-0.007684
-0.005004
-0.002684
-0.000752
0.000791
0.001961
0.002790
0.003317
0.003584
0.003632
0.003502
0.003226
0.002835
0.002352
0.001796
0.001181
0.000520
-0.000179
-0.000911
-0.001671
-0.002456
-0.003265
-0.004098
-0.004953
-0.005834
-0.006742
-0.007681
-0.008656
-0.009964
0.450284
0.449165
0.445911
0.440196
0.431377
0.418422
0.399876
0.373878
0.338296
0.291050
0.230750
0.157795
0.076110
-0.005164
-0.070872
-0.115227
-0.139457
-0.147471
-0.143898
-0.133446
-0.120595
-0.109675
-0.104798
-0.108964
-0.122748
-0.143926
-0.167945
-0.188999
-0.202725
-0.207687
-0.203873
-0.192636
-0.175974
-0.155978
-0.134504
-0.113005
-0.092501
-0.073605
-0.056603
-0.041534
-0.028283
-0.016662
-0.006469
0.002473
0.010293
0.017100
0.023082
0.028195
0.032297
0.035286
0.037031
0.037462
0.036570
0.034378
0.030911
0.026208
0.020360
0.013568
0.006187
-0.001262
-0.007941
-0.013494
-0.017712
-0.020478
-0.021794
-0.021782
-0.020660
-0.018709
-0.016223
-0.013465
-0.010650
-0.007938
-0.005445
-0.003246
-0.001379
0.000140
0.001318
0.002176
0.002744
0.003059
0.003157
0.003073
0.002840
0.002484
0.002031
0.001497
0.000898
0.000246
-0.000451
-0.001185
-0.001952
-0.002750
-0.003576
-0.004430
-0.005311
-0.006221
-0.007161
-0.008134
-0.009142
-0.010493
0.438963
0.437391
0.432946
0.425487
0.414593
0.399530
0.379277
0.352610
0.318255
0.275189
0.223099
0.163049
0.098239
0.034409
-0.020855
-0.063091
-0.091476
-0.107519
-0.113916
-0.113874
-0.110710
-0.107627
-0.107449
-0.112094
-0.121970
-0.135771
-0.150775
-0.163904
-0.172325
-0.174821
-0.171277
-0.162485
-0.149769
-0.134617
-0.118408
-0.102245
-0.086880
-0.072708
-0.059822
-0.048098
-0.037292
-0.027142
-0.017457
-0.008182
0.000582
0.008682
0.016011
0.022392
0.027732
0.031915
0.034826
0.036384
0.036560
0.035365
0.032837
0.029036
0.024064
0.018115
0.011502
0.004605
-0.002118
-0.008170
-0.013205
-0.016959
-0.019281
-0.020169
-0.019776
-0.018379
-0.016306
-0.013851
-0.011248
-0.008672
-0.006257
-0.004086
-0.002211
-0.000656
0.000576
0.001498
0.002134
0.002516
0.002676
0.002647
0.002462
0.002146
0.001723
0.001213
0.000630
-0.000013
-0.000706
-0.001442
-0.002215
-0.003024
-0.003865
-0.004739
-0.005644
-0.006580
-0.007550
-0.008552
-0.009585
-0.010947
0.430522
0.428447
0.422871
0.413950
0.401495
0.385015
0.363813
0.337103
0.304168
0.264583
0.218534
0.167184
0.112992
0.059713
0.011733
-0.027792
-0.057611
-0.078095
-0.090708
-0.097530
-0.100883
-0.103055
-0.106012
-0.111057
-0.118534
-0.127740
-0.137233
-0.145123
-0.149664
-0.150055
-0.146229
-0.138756
-0.128615
-0.116945
-0.104810
-0.093043
-0.082150
-0.072291
-0.063321
-0.054889
-0.046551
-0.037886
-0.028621
-0.018763
-0.008757
0.000751
0.009517
0.017315
0.023978
0.029378
0.033419
0.036038
0.037220
0.036994
0.035419
0.032546
0.028422
0.023180
0.016782
0.009790
0.002666
-0.004150
-0.010201
-0.015062
-0.018409
-0.020097
-0.020223
-0.019112
-0.017197
-0.014831
-0.012269
-0.009687
-0.007243
-0.005025
-0.003085
-0.001453
-0.000140
0.000863
0.001576
0.002027
0.002249
0.002274
0.002133
0.001852
0.001457
0.000966
0.000396
-0.000240
-0.000931
-0.001670
-0.002451
-0.003270
-0.004126
-0.005018
-0.005945
-0.006908
-0.007906
-0.008938
-0.009997
-0.011318
0.425901
0.422951
0.415987
0.405647
0.391912
0.374422
0.352666
0.326135
0.294442
0.257489
0.215671
0.170074
0.122601
0.075866
0.032739
-0.004490
-0.034595
-0.057445
-0.073782
-0.084922
-0.092465
-0.098028
-0.103023
-0.108388
-0.114423
-0.120832
-0.126827
-0.131149
-0.132876
-0.131542
-0.127197
-0.120360
-0.111858
-0.102637
-0.093561
-0.085263
-0.078042
-0.071844
-0.066302
-0.060856
-0.054868
-0.047723
-0.038911
-0.028213
-0.017058
-0.006033
0.004348
0.013647
0.021616
0.028124
0.033107
0.036544
0.038461
0.038942
0.038101
0.035987
0.032430
0.027246
0.020936
0.013748
0.006071
-0.001602
-0.008706
-0.014660
-0.018950
-0.021262
-0.021619
-0.020431
-0.018383
-0.015916
-0.013279
-0.010588
-0.008070
-0.005781
-0.003768
-0.002063
-0.000679
0.000390
0.001163
0.001668
0.001936
0.002000
0.001890
0.001634
0.001259
0.000781
0.000217
-0.000417
-0.001111
-0.001855
-0.002643
-0.003473
-0.004344
-0.005254
-0.006205
-0.007195
-0.008224
-0.009294
-0.010398
-0.011594
0.426751
0.421365
0.412273
0.400394
0.385541
0.367295
0.345168
0.318807
0.288009
0.252841
0.213770
0.171777
0.128399
0.085610
0.045519
0.009908
-0.020102
-0.044164
-0.062619
-0.076313
-0.086371
-0.093949
-0.100149
-0.105674
-0.110865
-0.115597
-0.119326
-0.121415
-0.121332
-0.118848
-0.114114
-0.107633
-0.100149
-0.092489
-0.085386
-0.079336
-0.074507
-0.070708
-0.067443
-0.064040
-0.059807
-0.054087
-0.046105
-0.035204
-0.023147
-0.010593
0.001310
0.011909
0.020904
0.028187
0.033739
0.037584
0.039800
0.040546
0.040130
0.038156
0.034616
0.029685
0.023431
0.016081
0.008024
-0.000211
-0.008000
-0.014684
-0.019651
-0.022441
-0.022903
-0.021342
-0.018978
-0.016333
-0.013653
-0.011075
-0.008554
-0.006211
-0.004136
-0.002377
-0.000948
0.000157
0.000959
0.001488
0.001775
0.001854
0.001755
0.001507
0.001133
0.000656
0.000096
-0.000537
-0.001232
-0.001981
-0.002780
-0.003624
-0.004509
-0.005437
-0.006406
-0.007419
-0.008477
-0.009583
-0.010757
-0.011747
0.437550
0.423333
0.411150
0.397919
0.382284
0.363496
0.341137
0.314875
0.284575
0.250363
0.212715
0.172534
0.131159
0.090271
0.051651
0.016855
-0.013058
-0.037652
-0.057090
-0.071994
-0.083279
-0.091965
-0.098854
-0.104630
-0.109610
-0.113743
-0.116680
-0.117966
-0.117224
-0.114321
-0.109440
-0.103068
-0.095903
-0.088709
-0.082156
-0.076690
-0.072440
-0.069192
-0.066440
-0.063504
-0.059687
-0.054381
-0.047127
-0.037937
-0.025447
-0.012093
0.000559
0.011727
0.021104
0.028617
0.034276
0.038136
0.040289
0.040875
0.039904
0.037772
0.034328
0.029524
0.023437
0.016283
0.008431
0.000386
-0.007252
-0.013847
-0.018816
-0.021741
-0.022522
-0.021574
-0.019196
-0.016414
-0.013669
-0.011063
-0.008584
-0.006282
-0.004230
-0.002480
-0.001053
0.000056
0.000864
0.001400
0.001694
0.001779
0.001686
0.001443
0.001073
0.000598
0.000038
-0.000596
-0.001293
-0.002045
-0.002848
-0.003697
-0.004590
-0.005526
-0.006507
-0.007531
-0.008600
-0.009712
-0.010867
-0.011739
