# vtk DataFile Version 3.0
Vector Field
ASCII
DATASET RECTILINEAR_GRID
DIMENSIONS 100 26 1
X_COORDINATES 100 double
0.050000 0.150000 0.250000 0.350000 0.450000 0.550000 0.650000 0.750000 0.850000 0.950000 1.050000 1.150000 1.250000 1.350000 1.450000 1.550000 1.650000 1.750000 1.850000 1.950000 2.050000 2.150000 2.250000 2.350000 2.450000 2.550000 2.650000 2.750000 2.850000 2.950000 3.050000 3.150000 3.250000 3.350000 3.450000 3.550000 3.650000 3.750000 3.850000 3.950000 4.050000 4.150000 4.250000 4.350000 4.450000 4.550000 4.650000 4.750000 4.850000 4.950000 5.050000 5.150000 5.250000 5.350000 5.450000 5.550000 5.650000 5.750000 5.850000 5.950000 6.050000 6.150000 6.250000 6.350000 6.450000 6.550000 6.650000 6.750000 6.850000 6.950000 7.050000 7.150000 7.250000 7.350000 7.450000 7.550000 7.650000 7.750000 7.850000 7.950000 8.050000 8.150000 8.250000 8.350000 8.450000 8.550000 8.650000 8.750000 8.850000 8.950000 9.050000 9.150000 9.250000 9.350000 9.450000 9.550000 9.650000 9.750000 9.850000 9.950000 
Y_COORDINATES 26 double
0.050000 0.150000 0.250000 0.350000 0.450000 0.550000 0.650000 0.750000 0.850000 0.950000 1.050000 1.150000 1.250000 1.350000 1.450000 1.550000 1.650000 1.750000 1.850000 1.950000 2.050000 2.150000 2.250000 2.350000 2.450000 2.550000 
Z_COORDINATES 1 double
0.0
POINT_DATA 2600
VECTORS Vektorfeld double
0.997721 0.002279 0.0
0.993194 0.002247 0.0
0.990334 0.000613 0.0
0.991439 -0.001717 0.0
0.997484 -0.004328 0.0
1.008752 -0.006939 0.0
1.024965 -0.009274 0.0
1.045288 -0.011049 0.0
1.068338 -0.012001 0.0
1.092291 -0.011952 0.0
1.115122 -0.010880 0.0
1.134904 -0.008903 0.0
1.150028 -0.006221 0.0
1.159320 -0.003071 0.0
1.162188 0.000202 0.0
1.158489 0.003497 0.0
1.148183 0.006809 0.0
1.131335 0.010038 0.0
1.108236 0.013062 0.0
1.079423 0.015751 0.0
1.045693 0.017980 0.0
1.008077 0.019636 0.0
0.967809 0.020632 0.0
0.926272 0.020905 0.0
0.884940 0.020427 0.0
0.845306 0.019207 0.0
0.808807 0.017292 0.0
0.776741 0.014774 0.0
0.750183 0.011784 0.0
0.729901 0.008498 0.0
0.716271 0.005132 0.0
0.709258 0.001880 0.0
0.708493 -0.001115 0.0
0.712566 -0.002958 0.0
0.718966 -0.003442 0.0
0.725121 -0.002714 0.0
0.728902 -0.001068 0.0
0.728348 0.001622 0.0
0.721400 0.005327 0.0
0.706489 0.009585 0.0
0.682974 0.013931 0.0
0.651089 0.017953 0.0
0.611830 0.021307 0.0
0.566803 0.023720 0.0
0.518095 0.024988 0.0
0.468232 0.024875 0.0
0.420432 0.022924 0.0
0.379043 0.018465 0.0
0.349214 0.011364 0.0
0.334686 0.003164 0.0
0.334250 -0.002728 0.0
0.342223 -0.005245 0.0
0.353738 -0.006270 0.0
0.366636 -0.006628 0.0
0.379720 -0.006457 0.0
0.392047 -0.005870 0.0
0.402902 -0.004985 0.0
0.411813 -0.003926 0.0
0.418545 -0.002806 0.0
0.423089 -0.001738 0.0
0.425642 -0.000816 0.0
0.426486 -0.000028 0.0
0.425557 0.000957 0.0
0.422333 0.002266 0.0
0.416328 0.003739 0.0
0.407446 0.005143 0.0
0.396051 0.006251 0.0
0.382988 0.006812 0.0
0.369541 0.006634 0.0
0.357157 0.005750 0.0
0.346915 0.004492 0.0
0.339053 0.003371 0.0
0.332881 0.002801 0.0
0.327211 0.002869 0.0
0.321020 0.003322 0.0
0.313951 0.003747 0.0
0.306376 0.003828 0.0
0.299060 0.003488 0.0
0.292705 0.002867 0.0
0.287658 0.002181 0.0
0.283879 0.001597 0.0
0.281081 0.001201 0.0
0.278859 0.001021 0.0
0.276781 0.001057 0.0
0.274462 0.001263 0.0
0.271669 0.001530 0.0
0.268381 0.001758 0.0
0.264753 0.001870 0.0
0.261041 0.001842 0.0
0.257478 0.001721 0.0
0.254160 0.001596 0.0
0.251009 0.001555 0.0
0.247821 0.001633 0.0
0.244396 0.001792 0.0
0.240654 0.001950 0.0
0.236685 0.002019 0.0
0.232736 0.001930 0.0
0.229180 0.001625 0.0
0.226438 0.001117 0.0
0.224802 0.000518 0.0
1.003012 0.001547 0.0
1.011766 -0.001248 0.0
1.025469 -0.006736 0.0
1.043592 -0.013596 0.0
1.066156 -0.021058 0.0
1.093139 -0.028459 0.0
1.124244 -0.035072 0.0
1.158758 -0.040089 0.0
1.195483 -0.042735 0.0
1.232769 -0.042456 0.0
1.268758 -0.039197 0.0
1.301754 -0.033363 0.0
1.330440 -0.025570 0.0
1.353875 -0.016449 0.0
1.371211 -0.006624 0.0
1.381707 0.003526 0.0
1.385025 0.013768 0.0
1.381194 0.023758 0.0
1.370514 0.033122 0.0
1.353545 0.041472 0.0
1.331108 0.048426 0.0
1.304266 0.053647 0.0
1.274290 0.056865 0.0
1.242604 0.057894 0.0
1.210724 0.056650 0.0
1.180184 0.053158 0.0
1.152459 0.047566 0.0
1.128876 0.040149 0.0
1.110528 0.031314 0.0
1.098194 0.021585 0.0
1.092287 0.011582 0.0
1.092782 0.001948 0.0
1.098760 -0.006396 0.0
1.109004 -0.011994 0.0
1.122307 -0.014110 0.0
1.136605 -0.012499 0.0
1.148858 -0.007316 0.0
1.156088 0.001193 0.0
1.156271 0.012520 0.0
1.148110 0.025464 0.0
1.130987 0.038690 0.0
1.105086 0.050979 0.0
1.071326 0.061300 0.0
1.031258 0.068821 0.0
0.986987 0.072867 0.0
0.941090 0.072757 0.0
0.896342 0.067590 0.0
0.854943 0.056587 0.0
0.817456 0.040559 0.0
0.782905 0.023048 0.0
0.752251 0.008479 0.0
0.730272 -0.002445 0.0
0.720111 -0.010424 0.0
0.720014 -0.015275 0.0
0.726846 -0.017727 0.0
0.738387 -0.018468 0.0
0.753136 -0.017991 0.0
0.769977 -0.016672 0.0
0.787964 -0.014777 0.0
0.806122 -0.012469 0.0
0.823280 -0.009796 0.0
0.838045 -0.006657 0.0
0.849404 -0.002844 0.0
0.857267 0.001428 0.0
0.862082 0.005769 0.0
0.864282 0.009795 0.0
0.864199 0.013077 0.0
0.861993 0.015256 0.0
0.857463 0.016167 0.0
0.850012 0.016053 0.0
0.838863 0.015580 0.0
0.823463 0.015545 0.0
0.803911 0.016350 0.0
0.781169 0.017733 0.0
0.756932 0.018887 0.0
0.733294 0.018890 0.0
0.712326 0.017227 0.0
0.695647 0.014083 0.0
0.684050 0.010224 0.0
0.677351 0.006571 0.0
0.674570 0.003767 0.0
0.674373 0.002026 0.0
0.675554 0.001238 0.0
0.677330 0.001141 0.0
0.679399 0.001429 0.0
0.681709 0.001847 0.0
0.684169 0.002269 0.0
0.686540 0.002615 0.0
0.688452 0.002897 0.0
0.689455 0.003228 0.0
0.689113 0.003748 0.0
0.687135 0.004533 0.0
0.683431 0.005548 0.0
0.678119 0.006615 0.0
0.671506 0.007482 0.0
0.664046 0.007915 0.0
0.656288 0.007741 0.0
0.648824 0.006835 0.0
0.642289 0.005185 0.0
0.638603 0.001772 0.0
1.001916 -0.003381 0.0
1.008820 -0.011979 0.0
1.021507 -0.022395 0.0
1.039560 -0.034112 0.0
1.062958 -0.046506 0.0
1.091730 -0.058767 0.0
1.125670 -0.069809 0.0
1.164084 -0.078280 0.0
1.205590 -0.082775 0.0
1.248018 -0.082128 0.0
1.288827 -0.076323 0.0
1.325882 -0.066288 0.0
1.357783 -0.053233 0.0
1.383761 -0.038198 0.0
1.403443 -0.021892 0.0
1.416650 -0.004908 0.0
1.423307 0.012227 0.0
1.423463 0.028973 0.0
1.417334 0.044717 0.0
1.405365 0.058815 0.0
1.388245 0.070640 0.0
1.366881 0.079639 0.0
1.342354 0.085375 0.0
1.315870 0.087554 0.0
1.288697 0.086043 0.0
1.262113 0.080888 0.0
1.237350 0.072324 0.0
1.215534 0.060789 0.0
1.197645 0.046911 0.0
1.184483 0.031484 0.0
1.176649 0.015424 0.0
1.174488 -0.000227 0.0
1.178290 -0.014002 0.0
1.188198 -0.024538 0.0
1.203671 -0.030341 0.0
1.223205 -0.030100 0.0
1.244336 -0.023099 0.0
1.263904 -0.009822 0.0
1.278978 0.008279 0.0
1.287561 0.029283 0.0
1.288521 0.051034 0.0
1.281501 0.071556 0.0
1.266818 0.089166 0.0
1.245353 0.102488 0.0
1.218413 0.110410 0.0
1.187527 0.111995 0.0
1.154083 0.106543 0.0
1.118953 0.094163 0.0
1.082704 0.076719 0.0
1.046588 0.057555 0.0
1.012426 0.038788 0.0
0.980766 0.020884 0.0
0.951885 0.005289 0.0
0.928134 -0.007141 0.0
0.911726 -0.016285 0.0
0.902575 -0.022301 0.0
0.899555 -0.025887 0.0
0.901554 -0.027616 0.0
0.907593 -0.027859 0.0
0.916849 -0.026801 0.0
0.928695 -0.024467 0.0
0.942772 -0.020828 0.0
0.958855 -0.016115 0.0
0.976493 -0.010803 0.0
0.995014 -0.005336 0.0
1.013777 -0.000063 0.0
1.032076 0.004720 0.0
1.048987 0.008907 0.0
1.063357 0.012677 0.0
1.073924 0.016427 0.0
1.079660 0.020619 0.0
1.079978 0.025588 0.0
1.074820 0.031017 0.0
1.064604 0.036023 0.0
1.049976 0.039462 0.0
1.031578 0.040352 0.0
1.009962 0.038350 0.0
0.985679 0.033922 0.0
0.959561 0.028098 0.0
0.933029 0.021927 0.0
0.908152 0.016069 0.0
0.887273 0.010798 0.0
0.872287 0.006272 0.0
0.863942 0.002675 0.0
0.861610 0.000158 0.0
0.863675 -0.001258 0.0
0.868373 -0.001786 0.0
0.874312 -0.001639 0.0
0.880418 -0.000868 0.0
0.885850 0.000559 0.0
0.889985 0.002624 0.0
0.892424 0.005196 0.0
0.893041 0.007971 0.0
0.892016 0.010528 0.0
0.889765 0.012432 0.0
0.886851 0.013339 0.0
0.883897 0.013029 0.0
0.881523 0.011385 0.0
0.880328 0.008364 0.0
0.880110 0.002499 0.0
1.001531 -0.006828 0.0
1.007522 -0.021427 0.0
1.019312 -0.037424 0.0
1.036948 -0.054770 0.0
1.060739 -0.073037 0.0
1.091077 -0.091344 0.0
1.128139 -0.108233 0.0
1.171459 -0.121591 0.0
1.219538 -0.129050 0.0
1.269176 -0.127919 0.0
1.316302 -0.118468 0.0
1.357980 -0.102876 0.0
1.392858 -0.083425 0.0
1.420588 -0.061714 0.0
1.441184 -0.038654 0.0
1.454660 -0.014829 0.0
1.461039 0.009111 0.0
1.460450 0.032521 0.0
1.453161 0.054588 0.0
1.439676 0.074398 0.0
1.420787 0.091066 0.0
1.397521 0.103843 0.0
1.371057 0.112162 0.0
1.342645 0.115665 0.0
1.313544 0.114206 0.0
1.284989 0.107864 0.0
1.258157 0.096945 0.0
1.234149 0.081993 0.0
1.213977 0.063768 0.0
1.198570 0.043196 0.0
1.188815 0.021301 0.0
1.185656 -0.000784 0.0
1.190018 -0.021609 0.0
1.202384 -0.039205 0.0
1.222321 -0.051086 0.0
1.248242 -0.054809 0.0
1.277453 -0.048732 0.0
1.306489 -0.032795 0.0
1.331698 -0.009030 0.0
1.350435 0.019271 0.0
1.361671 0.048850 0.0
1.365356 0.077075 0.0
1.361908 0.101778 0.0
1.352012 0.121239 0.0
1.336458 0.134153 0.0
1.315991 0.139605 0.0
1.291162 0.137207 0.0
1.262331 0.127460 0.0
1.229978 0.112023 0.0
1.195106 0.093239 0.0
1.159178 0.073195 0.0
1.123789 0.053527 0.0
1.090242 0.035074 0.0
1.058970 0.018097 0.0
1.030466 0.003390 0.0
1.006289 -0.008647 0.0
0.987690 -0.017922 0.0
0.974652 -0.024542 0.0
0.966539 -0.028860 0.0
0.962627 -0.031145 0.0
0.962317 -0.031659 0.0
0.965334 -0.030730 0.0
0.971812 -0.028773 0.0
0.982241 -0.026212 0.0
0.997257 -0.023465 0.0
1.017299 -0.020740 0.0
1.042265 -0.017868 0.0
1.071229 -0.014379 0.0
1.102377 -0.009555 0.0
1.133179 -0.002710 0.0
1.160771 0.006428 0.0
1.182880 0.017351 0.0
1.198462 0.028831 0.0
1.207254 0.039633 0.0
1.209165 0.048568 0.0
1.204187 0.054621 0.0
1.192511 0.057373 0.0
1.174684 0.057010 0.0
1.151751 0.054061 0.0
1.125207 0.049041 0.0
1.096714 0.042325 0.0
1.067811 0.034323 0.0
1.039874 0.025671 0.0
1.014320 0.017175 0.0
0.992733 0.009577 0.0
0.976580 0.003411 0.0
0.966446 -0.001019 0.0
0.961565 -0.003463 0.0
0.960269 -0.003854 0.0
0.960754 -0.002372 0.0
0.961513 0.000660 0.0
0.961476 0.004759 0.0
0.960054 0.009213 0.0
0.957142 0.013225 0.0
0.953050 0.016079 0.0
0.948395 0.017262 0.0
0.943942 0.016512 0.0
0.940424 0.013793 0.0
0.938347 0.009230 0.0
0.937461 0.002738 0.0
1.001334 -0.009693 0.0
1.006715 -0.029934 0.0
1.017681 -0.051673 0.0
1.034718 -0.075195 0.0
1.058648 -0.100334 0.0
1.090525 -0.126262 0.0
1.131324 -0.151178 0.0
1.181254 -0.171896 0.0
1.239217 -0.184787 0.0
1.299809 -0.182412 0.0
1.355383 -0.166675 0.0
1.401982 -0.142946 0.0
1.439129 -0.115379 0.0
1.467741 -0.086103 0.0
1.488691 -0.055810 0.0
1.502230 -0.024687 0.0
1.508157 0.006664 0.0
1.506294 0.037420 0.0
1.496744 0.066527 0.0
1.480002 0.092685 0.0
1.457005 0.114666 0.0
1.429015 0.131499 0.0
1.397468 0.142517 0.0
1.363847 0.147344 0.0
1.329607 0.145867 0.0
1.296144 0.138221 0.0
1.264781 0.124783 0.0
1.236759 0.106184 0.0
1.213226 0.083282 0.0
1.195217 0.057099 0.0
1.183688 0.028682 0.0
1.179634 -0.000952 0.0
1.184076 -0.030243 0.0
1.197667 -0.056527 0.0
1.220229 -0.076263 0.0
1.250582 -0.085906 0.0
1.286527 -0.082792 0.0
1.324689 -0.065934 0.0
1.360468 -0.036878 0.0
1.388980 -0.000130 0.0
1.407656 0.038339 0.0
1.416912 0.074646 0.0
1.418151 0.106415 0.0
1.412713 0.131936 0.0
1.401652 0.150071 0.0
1.385637 0.160169 0.0
1.364986 0.162122 0.0
1.339839 0.156523 0.0
1.310454 0.144699 0.0
1.277459 0.128430 0.0
1.241882 0.109510 0.0
1.204996 0.089486 0.0
1.168124 0.069534 0.0
1.132507 0.050527 0.0
1.099112 0.032859 0.0
1.068407 0.016766 0.0
1.040839 0.002833 0.0
1.017080 -0.008500 0.0
0.997269 -0.016979 0.0
0.980805 -0.022651 0.0
0.967007 -0.026045 0.0
0.955703 -0.028057 0.0
0.947465 -0.029687 0.0
0.943534 -0.031795 0.0
0.945513 -0.034876 0.0
0.954903 -0.038761 0.0
0.972633 -0.042544 0.0
0.998801 -0.044835 0.0
1.032681 -0.044128 0.0
1.072853 -0.039112 0.0
1.117171 -0.029080 0.0
1.162316 -0.014396 0.0
1.203707 0.003604 0.0
1.237161 0.022613 0.0
1.260865 0.039974 0.0
1.274734 0.054326 0.0
1.279072 0.065007 0.0
1.274503 0.071773 0.0
1.262043 0.074691 0.0
1.243024 0.073974 0.0
1.218953 0.069957 0.0
1.191401 0.063147 0.0
1.161966 0.054221 0.0
1.132206 0.043939 0.0
1.103503 0.033103 0.0
1.076923 0.022618 0.0
1.053254 0.013577 0.0
1.033061 0.007015 0.0
1.016446 0.003580 0.0
1.002735 0.003421 0.0
0.990666 0.006176 0.0
0.978980 0.010966 0.0
0.966856 0.016551 0.0
0.954069 0.021586 0.0
0.940971 0.024907 0.0
0.928325 0.025734 0.0
0.917055 0.023763 0.0
0.907986 0.019128 0.0
0.901625 0.012333 0.0
0.898283 0.003861 0.0
1.001136 -0.012163 0.0
1.005794 -0.037503 0.0
1.015532 -0.064807 0.0
1.031223 -0.094789 0.0
1.054302 -0.127749 0.0
1.086793 -0.163214 0.0
1.131104 -0.199336 0.0
1.189044 -0.231607 0.0
1.261840 -0.255834 0.0
1.338441 -0.248558 0.0
1.402586 -0.220248 0.0
1.450672 -0.184057 0.0
1.485822 -0.146564 0.0
1.511947 -0.109656 0.0
1.531533 -0.072792 0.0
1.545046 -0.034756 0.0
1.551379 0.004472 0.0
1.549251 0.043601 0.0
1.538129 0.081019 0.0
1.518343 0.114721 0.0
1.491010 0.142961 0.0
1.457713 0.164491 0.0
1.420221 0.178563 0.0
1.380313 0.184825 0.0
1.339705 0.183234 0.0
1.300024 0.173999 0.0
1.262813 0.157580 0.0
1.229517 0.134704 0.0
1.201436 0.106376 0.0
1.179607 0.073842 0.0
1.164636 0.038438 0.0
1.156680 0.001301 0.0
1.156026 -0.036285 0.0
1.163335 -0.071386 0.0
1.179161 -0.099791 0.0
1.203901 -0.117471 0.0
1.237750 -0.121020 0.0
1.279807 -0.107924 0.0
1.326731 -0.077592 0.0
1.371888 -0.033084 0.0
1.406955 0.017550 0.0
1.428299 0.064836 0.0
1.437826 0.105458 0.0
1.438141 0.138017 0.0
1.431278 0.161914 0.0
1.418570 0.177048 0.0
1.400742 0.183722 0.0
1.378148 0.182665 0.0
1.351067 0.175023 0.0
1.319948 0.162219 0.0
1.285512 0.145735 0.0
1.248721 0.126938 0.0
1.210690 0.106985 0.0
1.172585 0.086798 0.0
1.135498 0.067069 0.0
1.100321 0.048436 0.0
1.067525 0.031527 0.0
1.036941 0.017150 0.0
1.007921 0.006201 0.0
0.979697 -0.001143 0.0
0.951749 -0.005806 0.0
0.924455 -0.009697 0.0
0.899690 -0.015044 0.0
0.880564 -0.023381 0.0
0.870226 -0.034932 0.0
0.870720 -0.048590 0.0
0.882559 -0.062285 0.0
0.905020 -0.073722 0.0
0.936770 -0.080871 0.0
0.976357 -0.082127 0.0
1.022361 -0.076385 0.0
1.073275 -0.063150 0.0
1.127111 -0.042868 0.0
1.180311 -0.017569 0.0
1.227208 0.009554 0.0
1.263169 0.034916 0.0
1.287099 0.056148 0.0
1.299671 0.072629 0.0
1.301875 0.084091 0.0
1.294949 0.090518 0.0
1.280306 0.092127 0.0
1.259462 0.089372 0.0
1.233980 0.082913 0.0
1.205395 0.073590 0.0
1.175140 0.062411 0.0
1.144458 0.050571 0.0
1.114327 0.039425 0.0
1.085340 0.030348 0.0
1.057655 0.024546 0.0
1.031099 0.022722 0.0
1.005353 0.024689 0.0
0.980153 0.029338 0.0
0.955504 0.034953 0.0
0.931817 0.039659 0.0
0.909864 0.041884 0.0
0.890591 0.040676 0.0
0.874859 0.035823 0.0
0.863214 0.027782 0.0
0.855755 0.017500 0.0
0.852144 0.005648 0.0
1.000855 -0.014154 0.0
1.004411 -0.043726 0.0
1.012052 -0.075964 0.0
1.024922 -0.112194 0.0
1.045025 -0.153526 0.0
1.075556 -0.200458 0.0
1.121153 -0.252000 0.0
1.187002 -0.302733 0.0
1.281973 -0.352476 0.0
1.379267 -0.325811 0.0
1.443832 -0.271705 0.0
1.480879 -0.217734 0.0
1.502971 -0.170129 0.0
1.518856 -0.128102 0.0
1.533187 -0.088263 0.0
1.546683 -0.046295 0.0
1.556130 0.000231 0.0
1.557242 0.048858 0.0
1.547789 0.096338 0.0
1.527729 0.139248 0.0
1.498433 0.175062 0.0
1.461870 0.202250 0.0
1.420126 0.220041 0.0
1.375213 0.228167 0.0
1.329033 0.226679 0.0
1.283398 0.215870 0.0
1.240042 0.196276 0.0
1.200599 0.168747 0.0
1.166488 0.134525 0.0
1.138657 0.095353 0.0
1.117027 0.053528 0.0
1.099834 0.011361 0.0
1.084903 -0.030760 0.0
1.072703 -0.072020 0.0
1.066334 -0.108613 0.0
1.070042 -0.137098 0.0
1.088180 -0.153380 0.0
1.123174 -0.152616 0.0
1.174158 -0.130809 0.0
1.236291 -0.087157 0.0
1.299658 -0.026811 0.0
1.350709 0.036803 0.0
1.383750 0.090922 0.0
1.402055 0.133933 0.0
1.408882 0.166034 0.0
1.406591 0.187927 0.0
1.396756 0.200507 0.0
1.380406 0.204824 0.0
1.358291 0.202061 0.0
1.331095 0.193495 0.0
1.299587 0.180404 0.0
1.264659 0.163988 0.0
1.227317 0.145309 0.0
1.188618 0.125278 0.0
1.149558 0.104735 0.0
1.110864 0.084642 0.0
1.072689 0.066293 0.0
1.034392 0.051265 0.0
0.994776 0.040722 0.0
0.953007 0.034330 0.0
0.909939 0.029738 0.0
0.868739 0.023251 0.0
0.833917 0.011595 0.0
0.809509 -0.006485 0.0
0.797928 -0.029910 0.0
0.799455 -0.055632 0.0
0.812572 -0.080200 0.0
0.835188 -0.100884 0.0
0.865504 -0.115776 0.0
0.902242 -0.123548 0.0
0.944531 -0.123258 0.0
0.991664 -0.114325 0.0
1.042797 -0.096662 0.0
1.096661 -0.070838 0.0
1.151114 -0.038527 0.0
1.201694 -0.003543 0.0
1.242780 0.029590 0.0
1.271816 0.057578 0.0
1.289151 0.079604 0.0
1.295694 0.095387 0.0
1.292619 0.104977 0.0
1.281259 0.108727 0.0
1.263030 0.107270 0.0
1.239350 0.101497 0.0
1.211562 0.092548 0.0
1.180856 0.081821 0.0
1.148214 0.070948 0.0
1.114376 0.061649 0.0
1.079874 0.055432 0.0
1.045120 0.053146 0.0
1.010534 0.054596 0.0
0.976677 0.058489 0.0
0.944340 0.062788 0.0
0.914537 0.065314 0.0
0.888355 0.064364 0.0
0.866721 0.059103 0.0
0.850188 0.049662 0.0
0.838809 0.036967 0.0
0.832125 0.022457 0.0
0.829183 0.007245 0.0
1.000447 -0.015456 0.0
1.002354 -0.047888 0.0
1.006663 -0.083752 0.0
1.014514 -0.125126 0.0
1.028130 -0.174313 0.0
1.051621 -0.233693 0.0
1.092303 -0.305043 0.0
1.161487 -0.384723 0.0
1.286899 -0.490869 0.0
1.401693 -0.399506 0.0
1.438499 -0.299382 0.0
1.438158 -0.226762 0.0
1.428879 -0.173914 0.0
1.422296 -0.133618 0.0
1.424216 -0.098997 0.0
1.436584 -0.061425 0.0
1.454626 -0.012127 0.0
1.467682 0.047048 0.0
1.468438 0.106845 0.0
1.456155 0.161084 0.0
1.432515 0.206162 0.0
1.399832 0.240395 0.0
1.360308 0.263165 0.0
1.315909 0.274356 0.0
1.268475 0.274104 0.0
1.219818 0.262739 0.0
1.171720 0.240860 0.0
1.125830 0.209496 0.0
1.083393 0.170323 0.0
1.044847 0.125932 0.0
1.009259 0.080167 0.0
0.973807 0.037368 0.0
0.933917 -0.001946 0.0
0.889419 -0.044136 0.0
0.850761 -0.091471 0.0
0.831349 -0.138536 0.0
0.837666 -0.176395 0.0
0.869366 -0.196295 0.0
0.922989 -0.191735 0.0
0.994181 -0.159556 0.0
1.077552 -0.101150 0.0
1.163149 -0.025507 0.0
1.234772 0.048568 0.0
1.284977 0.107777 0.0
1.317661 0.152679 0.0
1.336238 0.184995 0.0
1.343144 0.206368 0.0
1.340157 0.218299 0.0
1.328667 0.222191 0.0
1.309862 0.219365 0.0
1.284848 0.211056 0.0
1.254714 0.198399 0.0
1.220535 0.182419 0.0
1.183320 0.164082 0.0
1.143841 0.144470 0.0
1.102341 0.125101 0.0
1.058271 0.108078 0.0
1.010541 0.095507 0.0
0.958637 0.088000 0.0
0.904188 0.083268 0.0
0.851609 0.076448 0.0
0.806819 0.062532 0.0
0.774791 0.039165 0.0
0.757687 0.007458 0.0
0.754562 -0.029146 0.0
0.762676 -0.066035 0.0
0.779222 -0.099459 0.0
0.802111 -0.127129 0.0
0.830018 -0.147754 0.0
0.862228 -0.160517 0.0
0.898436 -0.164785 0.0
0.938529 -0.160024 0.0
0.982342 -0.145910 0.0
1.029422 -0.122535 0.0
1.078820 -0.090682 0.0
1.128915 -0.052062 0.0
1.176379 -0.010440 0.0
1.216150 0.028800 0.0
1.245182 0.062016 0.0
1.263338 0.088275 0.0
1.271194 0.107308 0.0
1.269674 0.119276 0.0
1.259896 0.124728 0.0
1.243052 0.124562 0.0
1.220316 0.120006 0.0
1.192777 0.112608 0.0
1.161402 0.104179 0.0
1.127050 0.096607 0.0
1.090533 0.091493 0.0
1.052707 0.089665 0.0
1.014570 0.090800 0.0
0.977309 0.093404 0.0
0.942268 0.095252 0.0
0.910799 0.094121 0.0
0.884050 0.088488 0.0
0.862748 0.077915 0.0
0.847086 0.063045 0.0
0.836730 0.045319 0.0
0.830912 0.026607 0.0
0.828569 0.008379 0.0
0.999909 -0.015812 0.0
0.999606 -0.049136 0.0
0.999260 -0.086467 0.0
0.999557 -0.130560 0.0
1.002099 -0.185037 0.0
1.010574 -0.254935 0.0
1.033478 -0.347387 0.0
1.089615 -0.467700 0.0
1.241604 -0.685293 0.0
1.343447 -0.421720 0.0
1.293180 -0.263707 0.0
1.220933 -0.189849 0.0
1.164084 -0.144700 0.0
1.124200 -0.116366 0.0
1.104684 -0.098655 0.0
1.110611 -0.080062 0.0
1.143161 -0.044082 0.0
1.186399 0.022709 0.0
1.218016 0.098810 0.0
1.232165 0.167253 0.0
1.231759 0.224040 0.0
1.219123 0.267835 0.0
1.196024 0.298348 0.0
1.163985 0.315611 0.0
1.124517 0.319750 0.0
1.079201 0.311067 0.0
1.029508 0.290322 0.0
0.976122 0.259311 0.0
0.917566 0.221501 0.0
0.849508 0.181357 0.0
0.768484 0.141354 0.0
0.680296 0.099822 0.0
0.603023 0.052761 0.0
0.554246 -0.005568 0.0
0.538928 -0.076063 0.0
0.551453 -0.147058 0.0
0.583530 -0.206266 0.0
0.630107 -0.244703 0.0
0.689543 -0.256386 0.0
0.761517 -0.238072 0.0
0.845360 -0.189848 0.0
0.938950 -0.115996 0.0
1.034826 -0.028442 0.0
1.117210 0.052199 0.0
1.178010 0.114773 0.0
1.220700 0.161633 0.0
1.248189 0.195334 0.0
1.262606 0.217903 0.0
1.265666 0.231018 0.0
1.258868 0.236141 0.0
1.243585 0.234575 0.0
1.221096 0.227503 0.0
1.192555 0.216035 0.0
1.158887 0.201349 0.0
1.120575 0.184994 0.0
1.077457 0.169196 0.0
1.028923 0.156587 0.0
0.974877 0.148776 0.0
0.917185 0.144328 0.0
0.860429 0.138145 0.0
0.810826 0.123753 0.0
0.773732 0.097110 0.0
0.751603 0.058744 0.0
0.743791 0.012795 0.0
0.747639 -0.035207 0.0
0.759892 -0.080342 0.0
0.777833 -0.119640 0.0
0.799644 -0.151649 0.0
0.824263 -0.175760 0.0
0.851224 -0.191683 0.0
0.880530 -0.199133 0.0
0.912467 -0.197706 0.0
0.947376 -0.186950 0.0
0.985402 -0.166600 0.0
1.026279 -0.136893 0.0
1.069205 -0.098872 0.0
1.112737 -0.054627 0.0
1.154028 -0.008076 0.0
1.188868 0.035021 0.0
1.214577 0.071406 0.0
1.230734 0.100163 0.0
1.237595 0.121079 0.0
1.235802 0.134496 0.0
1.226201 0.141239 0.0
1.209716 0.142550 0.0
1.187276 0.140044 0.0
1.159787 0.135607 0.0
1.128166 0.131152 0.0
1.093412 0.128220 0.0
1.056687 0.127489 0.0
1.019365 0.128435 0.0
0.982995 0.129400 0.0
0.949159 0.128134 0.0
0.919261 0.122606 0.0
0.894311 0.111701 0.0
0.874799 0.095515 0.0
0.860683 0.075223 0.0
0.851485 0.052696 0.0
0.846424 0.030110 0.0
0.844599 0.009044 0.0
0.999295 -0.015016 0.0
0.996438 -0.046772 0.0
0.990569 -0.082615 0.0
0.981399 -0.125539 0.0
0.968708 -0.179908 0.0
0.953007 -0.252838 0.0
0.937836 -0.357217 0.0
0.938322 -0.514493 0.0
1.037816 -0.889982 0.0
1.030401 -0.205586 0.0
0.830521 -0.111994 0.0
0.678772 -0.105740 0.0
0.591906 -0.085093 0.0
0.534279 -0.078462 0.0
0.511415 -0.094179 0.0
0.531827 -0.110877 0.0
0.590721 -0.104711 0.0
0.680614 -0.049793 0.0
0.773679 0.046631 0.0
0.842647 0.136315 0.0
0.888146 0.209885 0.0
0.914373 0.268399 0.0
0.923001 0.312256 0.0
0.915140 0.341604 0.0
0.891788 0.356576 0.0
0.853585 0.357759 0.0
0.800112 0.346795 0.0
0.729551 0.326785 0.0
0.640951 0.301183 0.0
0.540223 0.270463 0.0
0.443889 0.229606 0.0
0.372490 0.171158 0.0
0.338325 0.092863 0.0
0.340363 0.001069 0.0
0.366275 -0.093294 0.0
0.402682 -0.178758 0.0
0.443828 -0.247789 0.0
0.489369 -0.295299 0.0
0.541298 -0.317153 0.0
0.602201 -0.310182 0.0
0.673914 -0.273293 0.0
0.756605 -0.208832 0.0
0.848390 -0.123268 0.0
0.942499 -0.029467 0.0
1.024671 0.053466 0.0
1.087288 0.117633 0.0
1.132936 0.166197 0.0
1.163756 0.201801 0.0
1.181415 0.226401 0.0
1.187381 0.241591 0.0
1.183025 0.248764 0.0
1.169618 0.249212 0.0
1.148245 0.244240 0.0
1.119660 0.235396 0.0
1.084126 0.224793 0.0
1.041520 0.215121 0.0
0.992033 0.208681 0.0
0.937418 0.205343 0.0
0.881895 0.200977 0.0
0.831543 0.188602 0.0
0.792102 0.162339 0.0
0.766706 0.121013 0.0
0.755295 0.068380 0.0
0.755697 0.010570 0.0
0.764903 -0.046035 0.0
0.779986 -0.096850 0.0
0.798649 -0.139736 0.0
0.819259 -0.173974 0.0
0.840787 -0.199581 0.0
0.862789 -0.216825 0.0
0.885366 -0.225874 0.0
0.909057 -0.226593 0.0
0.934624 -0.218539 0.0
0.962758 -0.201171 0.0
0.993804 -0.174244 0.0
1.027571 -0.138212 0.0
1.063272 -0.094520 0.0
1.099518 -0.045721 0.0
1.133584 0.003760 0.0
1.162067 0.048475 0.0
1.182975 0.086029 0.0
1.195742 0.115584 0.0
1.200412 0.137115 0.0
1.197383 0.151250 0.0
1.187257 0.159150 0.0
1.170740 0.162402 0.0
1.148623 0.162856 0.0
1.121814 0.162333 0.0
1.091408 0.162200 0.0
1.058736 0.162906 0.0
1.025350 0.163724 0.0
0.992911 0.162920 0.0
0.962981 0.158379 0.0
0.936812 0.148428 0.0
0.915191 0.132449 0.0
0.898413 0.111057 0.0
0.886347 0.085862 0.0
0.878555 0.059046 0.0
0.874400 0.032977 0.0
0.873201 0.009200 0.0
0.998713 -0.013024 0.0
0.993428 -0.040622 0.0
0.982232 -0.071700 0.0
0.963672 -0.108725 0.0
0.935019 -0.155379 0.0
0.891255 -0.217901 0.0
0.822562 -0.308290 0.0
0.709768 -0.451113 0.0
0.319596 -0.768557 0.0
-0.466005 0.278550 0.0
-0.466005 0.000000 0.0
-0.038415 -0.027079 0.0
-0.067418 -0.059219 0.0
-0.027316 -0.086812 0.0
0.044267 -0.134547 0.0
0.123449 -0.170103 0.0
0.197292 -0.178222 0.0
0.273874 -0.142758 0.0
0.366103 -0.045697 0.0
0.457151 0.068627 0.0
0.527745 0.161480 0.0
0.579635 0.238686 0.0
0.611545 0.301431 0.0
0.622096 0.349740 0.0
0.610249 0.383639 0.0
0.575179 0.403970 0.0
0.516929 0.412308 0.0
0.439389 0.409373 0.0
0.354068 0.392514 0.0
0.279411 0.354517 0.0
0.232816 0.288480 0.0
0.221329 0.195170 0.0
0.240112 0.084233 0.0
0.277177 -0.029404 0.0
0.320147 -0.131704 0.0
0.361993 -0.218601 0.0
0.400831 -0.287931 0.0
0.437658 -0.337524 0.0
0.475607 -0.364805 0.0
0.518991 -0.366819 0.0
0.571870 -0.341247 0.0
0.636509 -0.288208 0.0
0.712540 -0.211707 0.0
0.797037 -0.119633 0.0
0.882914 -0.024417 0.0
0.958107 0.057708 0.0
1.016487 0.122095 0.0
1.059755 0.171814 0.0
1.089347 0.209138 0.0
1.106479 0.235757 0.0
1.112297 0.253135 0.0
1.107857 0.262688 0.0
1.094017 0.265976 0.0
1.071309 0.264952 0.0
1.039967 0.262113 0.0
1.000373 0.260002 0.0
0.954028 0.259632 0.0
0.904509 0.258526 0.0
0.857380 0.250446 0.0
0.818539 0.228326 0.0
0.791937 0.188659 0.0
0.778472 0.133554 0.0
0.776660 0.069062 0.0
0.783992 0.002154 0.0
0.797718 -0.060550 0.0
0.815316 -0.115016 0.0
0.834774 -0.159691 0.0
0.854546 -0.194400 0.0
0.873566 -0.219704 0.0
0.891309 -0.236447 0.0
0.907840 -0.245359 0.0
0.923791 -0.246750 0.0
0.940216 -0.240373 0.0
0.958299 -0.225555 0.0
0.978999 -0.201607 0.0
1.002748 -0.168366 0.0
1.029323 -0.126641 0.0
1.057862 -0.078385 0.0
1.086901 -0.026680 0.0
1.113814 0.023518 0.0
1.135929 0.067963 0.0
1.151855 0.104957 0.0
1.160996 0.133932 0.0
1.163267 0.155191 0.0
1.158896 0.169706 0.0
1.148326 0.178933 0.0
1.132188 0.184581 0.0
1.111325 0.188279 0.0
1.086842 0.191143 0.0
1.060110 0.193367 0.0
1.032692 0.194066 0.0
1.006168 0.191542 0.0
0.981910 0.183944 0.0
0.960914 0.170028 0.0
0.943729 0.149656 0.0
0.930505 0.123854 0.0
0.921105 0.094532 0.0
0.915197 0.064075 0.0
0.912319 0.034982 0.0
0.911980 0.008733 0.0
0.998291 -0.010028 0.0
0.991253 -0.031294 0.0
0.976258 -0.054837 0.0
0.951140 -0.081910 0.0
0.911723 -0.114124 0.0
0.849970 -0.153638 0.0
0.749230 -0.203120 0.0
0.570048 -0.264307 0.0
0.226909 -0.323602 0.0
0.000000 0.278550 0.0
-0.000000 -0.000000 0.0
0.000000 0.000000 0.0
-0.035523 -0.034315 0.0
-0.076139 -0.112411 0.0
-0.073187 -0.183484 0.0
-0.053967 -0.219568 0.0
-0.033896 -0.222670 0.0
-0.007663 -0.201123 0.0
0.045555 -0.132779 0.0
0.125385 -0.015170 0.0
0.204832 0.095236 0.0
0.267575 0.190296 0.0
0.311595 0.273891 0.0
0.333005 0.345319 0.0
0.329674 0.403237 0.0
0.302083 0.447031 0.0
0.255392 0.474188 0.0
0.202586 0.477839 0.0
0.161058 0.450897 0.0
0.144804 0.387046 0.0
0.158815 0.288535 0.0
0.198199 0.167218 0.0
0.252693 0.038907 0.0
0.309596 -0.078046 0.0
0.360556 -0.176992 0.0
0.403515 -0.258117 0.0
0.437854 -0.321592 0.0
0.464594 -0.367431 0.0
0.486768 -0.395021 0.0
0.509361 -0.402580 0.0
0.538348 -0.387351 0.0
0.578777 -0.347173 0.0
0.632799 -0.282796 0.0
0.698948 -0.199192 0.0
0.772969 -0.104757 0.0
0.847112 -0.011288 0.0
0.911636 0.068186 0.0
0.962322 0.131769 0.0
0.999998 0.181915 0.0
1.025472 0.220374 0.0
1.039522 0.248649 0.0
1.042858 0.268279 0.0
1.036023 0.281060 0.0
1.019389 0.289209 0.0
0.993415 0.295172 0.0
0.959326 0.300625 0.0
0.919971 0.304708 0.0
0.880105 0.302835 0.0
0.845372 0.287999 0.0
0.820302 0.254684 0.0
0.806812 0.202392 0.0
0.804318 0.135780 0.0
0.810940 0.062027 0.0
0.824421 -0.011625 0.0
0.842289 -0.078366 0.0
0.862234 -0.134743 0.0
0.882438 -0.179627 0.0
0.901460 -0.213258 0.0
0.918258 -0.236664 0.0
0.932256 -0.251228 0.0
0.943429 -0.258282 0.0
0.952370 -0.258719 0.0
0.960245 -0.252704 0.0
0.968582 -0.239644 0.0
0.978899 -0.218533 0.0
0.992287 -0.188578 0.0
1.009137 -0.149853 0.0
1.029085 -0.103661 0.0
1.051142 -0.052499 0.0
1.073605 -0.000039 0.0
1.094134 0.048876 0.0
1.110753 0.091499 0.0
1.122375 0.126626 0.0
1.128465 0.154136 0.0
1.128887 0.174710 0.0
1.123809 0.189576 0.0
1.113674 0.200210 0.0
1.099217 0.207969 0.0
1.081481 0.213673 0.0
1.061773 0.217277 0.0
1.041535 0.217812 0.0
1.022138 0.213718 0.0
1.004681 0.203482 0.0
0.989871 0.186295 0.0
0.978031 0.162415 0.0
0.969193 0.133156 0.0
0.963218 0.100606 0.0
0.959858 0.067269 0.0
0.958778 0.035745 0.0
0.959605 0.007482 0.0
0.998113 -0.006433 0.0
0.990354 -0.020092 0.0
0.973912 -0.034602 0.0
0.946704 -0.049820 0.0
0.905008 -0.065101 0.0
0.842666 -0.078566 0.0
0.750308 -0.085093 0.0
0.616966 -0.069810 0.0
0.439614 0.006715 0.0
0.170265 0.152723 0.0
0.000000 0.000000 0.0
-0.000000 -0.000000 0.0
0.000000 0.000000 0.0
-0.053774 -0.053659 0.0
-0.127152 -0.171924 0.0
-0.157283 -0.220217 0.0
-0.179109 -0.220266 0.0
-0.192341 -0.216527 0.0
-0.181203 -0.181732 0.0
-0.132919 -0.094330 0.0
-0.057396 0.019426 0.0
0.015386 0.130581 0.0
0.069354 0.235619 0.0
0.101075 0.330460 0.0
0.111422 0.411081 0.0
0.104561 0.473639 0.0
0.090760 0.508074 0.0
0.085029 0.502489 0.0
0.099125 0.453679 0.0
0.137197 0.362446 0.0
0.196179 0.240142 0.0
0.268576 0.103830 0.0
0.342346 -0.025969 0.0
0.407371 -0.135098 0.0
0.461126 -0.224655 0.0
0.503198 -0.295485 0.0
0.533326 -0.348690 0.0
0.551990 -0.385736 0.0
0.561070 -0.407969 0.0
0.564541 -0.415696 0.0
0.568644 -0.407325 0.0
0.580691 -0.379675 0.0
0.606493 -0.330117 0.0
0.647906 -0.259433 0.0
0.702341 -0.172972 0.0
0.764351 -0.079226 0.0
0.825598 0.010351 0.0
0.878352 0.086164 0.0
0.920011 0.148186 0.0
0.950638 0.198002 0.0
0.970512 0.237096 0.0
0.979928 0.267081 0.0
0.979155 0.289867 0.0
0.968574 0.307617 0.0
0.949120 0.322192 0.0
0.922952 0.333864 0.0
0.893881 0.339896 0.0
0.866904 0.334490 0.0
0.846691 0.311290 0.0
0.835962 0.267192 0.0
0.835032 0.204304 0.0
0.842670 0.128725 0.0
0.857194 0.047936 0.0
0.876484 -0.030305 0.0
0.898077 -0.099146 0.0
0.919876 -0.155705 0.0
0.940259 -0.199252 0.0
0.957994 -0.230390 0.0
0.972198 -0.250535 0.0
0.982368 -0.261525 0.0
0.988447 -0.265238 0.0
0.990933 -0.263189 0.0
0.990940 -0.256116 0.0
0.990126 -0.243756 0.0
0.990395 -0.225008 0.0
0.993442 -0.198540 0.0
1.000320 -0.163619 0.0