# vtk DataFile Version 3.0
Vector Field
ASCII
DATASET RECTILINEAR_GRID
DIMENSIONS 100 26 1
X_COORDINATES 100 double
0.050000 0.150000 0.250000 0.350000 0.450000 0.550000 0.650000 0.750000 0.850000 0.950000 1.050000 1.150000 1.250000 1.350000 1.450000 1.550000 1.650000 1.750000 1.850000 1.950000 2.050000 2.150000 2.250000 2.350000 2.450000 2.550000 2.650000 2.750000 2.850000 2.950000 3.050000 3.150000 3.250000 3.350000 3.450000 3.550000 3.650000 3.750000 3.850000 3.950000 4.050000 4.150000 4.250000 4.350000 4.450000 4.550000 4.650000 4.750000 4.850000 4.950000 5.050000 5.150000 5.250000 5.350000 5.450000 5.550000 5.650000 5.750000 5.850000 5.950000 6.050000 6.150000 6.250000 6.350000 6.450000 6.550000 6.650000 6.750000 6.850000 6.950000 7.050000 7.150000 7.250000 7.350000 7.450000 7.550000 7.650000 7.750000 7.850000 7.950000 8.050000 8.150000 8.250000 8.350000 8.450000 8.550000 8.650000 8.750000 8.850000 8.950000 9.050000 9.150000 9.250000 9.350000 9.450000 9.550000 9.650000 9.750000 9.850000 9.950000 
Y_COORDINATES 26 double
0.050000 0.150000 0.250000 0.350000 0.450000 0.550000 0.650000 0.750000 0.850000 0.950000 1.050000 1.150000 1.250000 1.350000 1.450000 1.550000 1.650000 1.750000 1.850000 1.950000 2.050000 2.150000 2.250000 2.350000 2.450000 2.550000 
Z_COORDINATES 1 double
0.0
POINT_DATA 2600
VECTORS Vektorfeld double
0.997698 0.002302 0.0
0.993083 0.002313 0.0
0.990051 0.000718 0.0
0.990916 -0.001583 0.0
0.996679 -0.004180 0.0
1.007654 -0.006796 0.0
1.023610 -0.009161 0.0
1.043765 -0.010994 0.0
1.066796 -0.012037 0.0
1.090946 -0.012114 0.0
1.114258 -0.011198 0.0
1.134855 -0.009400 0.0
1.151160 -0.006905 0.0
1.161987 -0.003922 0.0
1.166637 -0.000728 0.0
1.164883 0.002482 0.0
1.156639 0.005763 0.0
1.141836 0.009039 0.0
1.120596 0.012201 0.0
1.093269 0.015125 0.0
1.060463 0.017681 0.0
1.023041 0.019741 0.0
0.982103 0.021197 0.0
0.938942 0.021964 0.0
0.894992 0.021986 0.0
0.851762 0.021244 0.0
0.810765 0.019752 0.0
0.773445 0.017568 0.0
0.741088 0.014789 0.0
0.714745 0.011554 0.0
0.695150 0.008041 0.0
0.682670 0.004439 0.0
0.677445 0.000787 0.0
0.679008 -0.002350 0.0
0.685509 -0.004151 0.0
0.694170 -0.004510 0.0
0.702318 -0.003637 0.0
0.707849 -0.001894 0.0
0.709107 0.000636 0.0
0.704213 0.004258 0.0
0.691410 0.008545 0.0
0.669864 0.013001 0.0
0.639686 0.017178 0.0
0.601806 0.020702 0.0
0.557816 0.023287 0.0
0.509826 0.024703 0.0
0.460474 0.024649 0.0
0.413260 0.022566 0.0
0.372903 0.017791 0.0
0.344640 0.010472 0.0
0.331649 0.002519 0.0
0.331906 -0.002776 0.0
0.339615 -0.004932 0.0
0.350371 -0.005825 0.0
0.362364 -0.006168 0.0
0.374550 -0.006018 0.0
0.386031 -0.005464 0.0
0.396114 -0.004619 0.0
0.404337 -0.003605 0.0
0.410481 -0.002539 0.0
0.414552 -0.001532 0.0
0.416751 -0.000668 0.0
0.417304 0.000115 0.0
0.416046 0.001144 0.0
0.412445 0.002457 0.0
0.406133 0.003855 0.0
0.397158 0.005119 0.0
0.385995 0.006044 0.0
0.373531 0.006420 0.0
0.360998 0.006113 0.0
0.349687 0.005199 0.0
0.340484 0.004005 0.0
0.333483 0.002996 0.0
0.327959 0.002529 0.0
0.322764 0.002666 0.0
0.316933 0.003164 0.0
0.310130 0.003639 0.0
0.302707 0.003784 0.0
0.295414 0.003510 0.0
0.288969 0.002935 0.0
0.283770 0.002264 0.0
0.279844 0.001661 0.0
0.276981 0.001202 0.0
0.274881 0.000898 0.0
0.273237 0.000746 0.0
0.271768 0.000723 0.0
0.270274 0.000771 0.0
0.268678 0.000825 0.0
0.267013 0.000840 0.0
0.265348 0.000826 0.0
0.263682 0.000840 0.0
0.261902 0.000940 0.0
0.259808 0.001154 0.0
0.257198 0.001455 0.0
0.253964 0.001778 0.0
0.250151 0.002034 0.0
0.245984 0.002133 0.0
0.241862 0.001990 0.0
0.238320 0.001552 0.0
0.235521 0.001246 0.0
1.002988 0.001616 0.0
1.011652 -0.001048 0.0
1.025183 -0.006421 0.0
1.043069 -0.013195 0.0
1.065349 -0.020610 0.0
1.092026 -0.028018 0.0
1.122836 -0.034705 0.0
1.157113 -0.039880 0.0
1.193709 -0.042778 0.0
1.231038 -0.042852 0.0
1.267305 -0.040039 0.0
1.300870 -0.034722 0.0
1.330461 -0.027478 0.0
1.355168 -0.018884 0.0
1.374223 -0.009470 0.0
1.386831 0.000370 0.0
1.392471 0.010480 0.0
1.390995 0.020601 0.0
1.382486 0.030390 0.0
1.367288 0.039461 0.0
1.346024 0.047414 0.0
1.319589 0.053865 0.0
1.289117 0.058483 0.0
1.255941 0.061015 0.0
1.221532 0.061294 0.0
1.187438 0.059260 0.0
1.155209 0.054961 0.0
1.126321 0.048569 0.0
1.102082 0.040384 0.0
1.083555 0.030830 0.0
1.071474 0.020440 0.0
1.066201 0.009792 0.0
1.067409 -0.000548 0.0
1.074060 -0.009228 0.0
1.085211 -0.014925 0.0
1.099872 -0.017059 0.0
1.116106 -0.015470 0.0
1.130853 -0.010340 0.0
1.140678 -0.002001 0.0
1.143213 0.009255 0.0
1.137201 0.022363 0.0
1.122000 0.035931 0.0
1.097752 0.048675 0.0
1.065337 0.059499 0.0
1.026305 0.067513 0.0
0.982805 0.071967 0.0
0.937487 0.072054 0.0
0.893121 0.066741 0.0
0.851728 0.055366 0.0
0.813650 0.039239 0.0
0.778086 0.022306 0.0
0.746649 0.008616 0.0
0.724395 -0.001779 0.0
0.714244 -0.009584 0.0
0.714245 -0.014402 0.0
0.721126 -0.016851 0.0
0.732632 -0.017618 0.0
0.747261 -0.017176 0.0
0.763881 -0.015890 0.0
0.781504 -0.014019 0.0
0.799099 -0.011719 0.0
0.815443 -0.009025 0.0
0.829189 -0.005826 0.0
0.839521 -0.001989 0.0
0.846548 0.002164 0.0
0.850766 0.006243 0.0
0.852614 0.009858 0.0
0.852463 0.012620 0.0
0.850511 0.014260 0.0
0.846580 0.014735 0.0
0.840088 0.014379 0.0
0.830255 0.013861 0.0
0.816489 0.013906 0.0
0.798771 0.014861 0.0
0.777861 0.016438 0.0
0.755227 0.017856 0.0
0.732762 0.018215 0.0
0.712429 0.016965 0.0
0.695858 0.014193 0.0
0.683991 0.010564 0.0
0.676883 0.006943 0.0
0.673816 0.003975 0.0
0.673662 0.001906 0.0
0.675269 0.000688 0.0
0.677741 0.000128 0.0
0.680594 -0.000043 0.0
0.683674 -0.000048 0.0
0.686888 0.000026 0.0
0.690052 0.000140 0.0
0.692859 0.000384 0.0
0.694875 0.000931 0.0
0.695606 0.001899 0.0
0.694667 0.003230 0.0
0.691922 0.004735 0.0
0.687484 0.006170 0.0
0.681681 0.007259 0.0
0.675005 0.007751 0.0
0.668053 0.007447 0.0
0.661431 0.006259 0.0
0.656875 0.003895 0.0
1.001892 -0.003264 0.0
1.008701 -0.011640 0.0
1.021204 -0.021864 0.0
1.038996 -0.033430 0.0
1.062075 -0.045734 0.0
1.090492 -0.057988 0.0
1.124075 -0.069129 0.0
1.162175 -0.077831 0.0
1.203466 -0.082715 0.0
1.245852 -0.082630 0.0
1.286873 -0.077549 0.0
1.324461 -0.068365 0.0
1.357272 -0.056236 0.0
1.384570 -0.042132 0.0
1.405978 -0.026684 0.0
1.421272 -0.010318 0.0
1.430281 0.006519 0.0
1.432907 0.023411 0.0
1.429184 0.039812 0.0
1.419341 0.055080 0.0
1.403862 0.068538 0.0
1.383487 0.079551 0.0
1.359177 0.087579 0.0
1.332053 0.092219 0.0
1.303342 0.093211 0.0
1.274316 0.090464 0.0
1.246239 0.084062 0.0
1.220314 0.074282 0.0
1.197624 0.061599 0.0
1.179089 0.046677 0.0
1.165436 0.030327 0.0
1.157154 0.013459 0.0
1.154530 -0.002800 0.0
1.157956 -0.017053 0.0
1.167752 -0.028046 0.0
1.183538 -0.034384 0.0
1.203935 -0.034777 0.0
1.226556 -0.028401 0.0
1.248244 -0.015454 0.0
1.265807 0.002609 0.0
1.276942 0.023884 0.0
1.280377 0.046175 0.0
1.275631 0.067426 0.0
1.262935 0.085858 0.0
1.243129 0.099993 0.0
1.217508 0.108608 0.0
1.187580 0.110659 0.0
1.154662 0.105420 0.0
1.119559 0.093183 0.0
1.082933 0.076126 0.0
1.046306 0.057610 0.0
1.011663 0.039392 0.0
0.979529 0.021833 0.0
0.950089 0.006395 0.0
0.925693 -0.005986 0.0
0.908735 -0.015191 0.0
0.899233 -0.021281 0.0
0.895980 -0.024890 0.0
0.897769 -0.026585 0.0
0.903546 -0.026724 0.0
0.912426 -0.025489 0.0
0.923745 -0.022918 0.0
0.937116 -0.019050 0.0
0.952263 -0.014244 0.0
0.968700 -0.009046 0.0
0.985852 -0.003918 0.0
1.003265 0.000758 0.0
1.020412 0.004723 0.0
1.036547 0.007975 0.0
1.050668 0.010830 0.0
1.061620 0.013824 0.0
1.068400 0.017469 0.0
1.070392 0.022072 0.0
1.067404 0.027401 0.0
1.059651 0.032562 0.0
1.047586 0.036433 0.0
1.031687 0.038002 0.0
1.012381 0.036817 0.0
0.990110 0.033182 0.0
0.965569 0.027983 0.0
0.939997 0.022204 0.0
0.915281 0.016495 0.0
0.893697 0.011124 0.0
0.877326 0.006233 0.0
0.867401 0.002036 0.0
0.863806 -0.001210 0.0
0.865172 -0.003327 0.0
0.869727 -0.004465 0.0
0.875987 -0.004792 0.0
0.882746 -0.004250 0.0
0.889037 -0.002742 0.0
0.894210 -0.000333 0.0
0.897889 0.002723 0.0
0.899850 0.006026 0.0
0.900091 0.009076 0.0
0.898876 0.011371 0.0
0.896676 0.012514 0.0
0.894068 0.012244 0.0
0.891687 0.010464 0.0
0.889694 0.006239 0.0
1.001505 -0.006661 0.0
1.007392 -0.020940 0.0
1.018979 -0.036655 0.0
1.036324 -0.053774 0.0
1.059748 -0.071893 0.0
1.089664 -0.090161 0.0
1.126278 -0.107153 0.0
1.169168 -0.120797 0.0
1.216898 -0.128771 0.0
1.266361 -0.128424 0.0
1.313594 -0.120009 0.0
1.355748 -0.105646 0.0
1.391535 -0.087553 0.0
1.420668 -0.067247 0.0
1.443204 -0.045513 0.0
1.459148 -0.022727 0.0
1.468369 0.000698 0.0
1.470763 0.024212 0.0
1.466384 0.047113 0.0
1.455507 0.068498 0.0
1.438712 0.087396 0.0
1.416862 0.102919 0.0
1.391030 0.114354 0.0
1.362404 0.121194 0.0
1.332211 0.123140 0.0
1.301665 0.120107 0.0
1.271935 0.112225 0.0
1.244124 0.099854 0.0
1.219256 0.083584 0.0
1.198269 0.064213 0.0
1.182025 0.042688 0.0
1.171371 0.020035 0.0
1.167266 -0.002646 0.0
1.170705 -0.024072 0.0
1.182297 -0.042415 0.0
1.201796 -0.055301 0.0
1.227841 -0.060302 0.0
1.257972 -0.055626 0.0
1.288892 -0.040837 0.0
1.316873 -0.017552 0.0
1.338794 0.010990 0.0
1.353156 0.041271 0.0
1.359737 0.070495 0.0
1.358869 0.096352 0.0
1.351186 0.116988 0.0
1.337449 0.130970 0.0
1.318375 0.137300 0.0
1.294485 0.135588 0.0
1.266150 0.126452 0.0
1.233958 0.111675 0.0
1.199066 0.093580 0.0
1.163016 0.074114 0.0
1.127413 0.054850 0.0
1.093579 0.036652 0.0
1.061969 0.019764 0.0
1.032980 0.005005 0.0
1.008128 -0.007123 0.0
0.988820 -0.016489 0.0
0.975154 -0.023109 0.0
0.966468 -0.027291 0.0
0.961980 -0.029315 0.0
0.961016 -0.029448 0.0
0.963204 -0.028078 0.0
0.968571 -0.025729 0.0
0.977516 -0.022942 0.0
0.990610 -0.020268 0.0
1.008308 -0.018002 0.0
1.030672 -0.016028 0.0
1.057105 -0.013841 0.0
1.086249 -0.010619 0.0
1.116070 -0.005500 0.0
1.144053 0.002031 0.0
1.167803 0.011768 0.0
1.185838 0.022658 0.0
1.197608 0.033289 0.0
1.202853 0.042527 0.0
1.201364 0.049295 0.0
1.193141 0.053052 0.0
1.178531 0.053829 0.0
1.158381 0.052028 0.0
1.134027 0.048085 0.0
1.107058 0.042299 0.0
1.079002 0.034961 0.0
1.051199 0.026570 0.0
1.024959 0.017865 0.0
1.001850 0.009666 0.0
0.983651 0.002631 0.0
0.971497 -0.002824 0.0
0.965045 -0.006240 0.0
0.962857 -0.007376 0.0
0.963284 -0.006334 0.0
0.964838 -0.003468 0.0
0.966305 0.000712 0.0
0.966874 0.005506 0.0
0.966184 0.010045 0.0
0.964294 0.013506 0.0
0.961605 0.015268 0.0
0.958711 0.014991 0.0
0.956192 0.012616 0.0
0.953883 0.008389 0.0
1.001305 -0.009471 0.0
1.006574 -0.029285 0.0
1.017317 -0.050640 0.0
1.034027 -0.073844 0.0
1.057535 -0.098756 0.0
1.088907 -0.124585 0.0
1.129139 -0.149575 0.0
1.178477 -0.170603 0.0
1.235881 -0.184099 0.0
1.296072 -0.182749 0.0
1.351554 -0.168398 0.0
1.398458 -0.146315 0.0
1.436372 -0.120585 0.0
1.466311 -0.093286 0.0
1.489290 -0.064989 0.0
1.505667 -0.035572 0.0
1.515111 -0.005123 0.0
1.517121 0.025629 0.0
1.511423 0.055774 0.0
1.498140 0.083997 0.0
1.477925 0.108908 0.0
1.451868 0.129313 0.0
1.421320 0.144338 0.0
1.387728 0.153427 0.0
1.352527 0.156301 0.0
1.317087 0.152931 0.0
1.282701 0.143517 0.0
1.250581 0.128493 0.0
1.221865 0.108530 0.0
1.197609 0.084511 0.0
1.178780 0.057464 0.0
1.166281 0.028412 0.0
1.161062 -0.001700 0.0
1.164112 -0.031508 0.0
1.176123 -0.058581 0.0
1.197073 -0.079583 0.0
1.226098 -0.091090 0.0
1.261504 -0.090375 0.0
1.300558 -0.076062 0.0
1.339168 -0.048918 0.0
1.372208 -0.012604 0.0
1.395814 0.026896 0.0
1.409420 0.064683 0.0
1.414337 0.098115 0.0
1.411931 0.125314 0.0
1.403309 0.145002 0.0
1.389198 0.156453 0.0
1.369968 0.159556 0.0
1.345824 0.154963 0.0
1.317118 0.144061 0.0
1.284576 0.128628 0.0
1.249283 0.110408 0.0
1.212528 0.090915 0.0
1.175627 0.071321 0.0
1.139816 0.052517 0.0
1.106088 0.034970 0.0
1.074939 0.018914 0.0
1.046764 0.004956 0.0
1.022263 -0.006386 0.0
1.001738 -0.014803 0.0
0.984685 -0.020262 0.0
0.970344 -0.023196 0.0
0.958337 -0.024511 0.0
0.949008 -0.025335 0.0
0.943409 -0.026683 0.0
0.943021 -0.029234 0.0
0.949353 -0.033065 0.0
0.963498 -0.037474 0.0
0.985822 -0.041152 0.0
1.015912 -0.042541 0.0
1.052694 -0.040182 0.0
1.094500 -0.033076 0.0
1.138775 -0.021150 0.0
1.181671 -0.005355 0.0
1.218681 0.012520 0.0
1.246792 0.029940 0.0
1.265233 0.044929 0.0
1.274136 0.056737 0.0
1.273930 0.064960 0.0
1.265456 0.069520 0.0
1.249905 0.070497 0.0
1.228681 0.068080 0.0
1.203281 0.062635 0.0
1.175253 0.054727 0.0
1.146150 0.045050 0.0
1.117398 0.034342 0.0
1.090120 0.023431 0.0
1.065197 0.013452 0.0
1.043520 0.005614 0.0
1.025726 0.000753 0.0
1.011607 -0.000771 0.0
1.000113 0.000909 0.0
0.989891 0.005091 0.0
0.979848 0.010601 0.0
0.969434 0.016055 0.0
0.958662 0.020158 0.0
0.948001 0.021966 0.0
0.938167 0.021023 0.0
0.929864 0.017405 0.0
0.923946 0.011827 0.0
1.001106 -0.011882 0.0
1.005643 -0.036680 0.0
1.015139 -0.063486 0.0
1.030471 -0.093040 0.0
1.053073 -0.125670 0.0
1.084971 -0.160941 0.0
1.128577 -0.197059 0.0
1.185718 -0.229599 0.0
1.257638 -0.254427 0.0
1.333469 -0.248443 0.0
1.397179 -0.221897 0.0
1.445199 -0.187740 0.0
1.480641 -0.152515 0.0
1.507533 -0.118187 0.0
1.528695 -0.084230 0.0
1.545058 -0.049069 0.0
1.555631 -0.011642 0.0
1.558636 0.027132 0.0
1.552812 0.065792 0.0
1.537845 0.102229 0.0
1.514409 0.134328 0.0
1.483892 0.160466 0.0
1.448019 0.179606 0.0
1.408575 0.191196 0.0
1.367273 0.195036 0.0
1.325718 0.191191 0.0
1.285406 0.179954 0.0
1.247746 0.161837 0.0
1.214055 0.137593 0.0
1.185526 0.108232 0.0
1.163108 0.074990 0.0
1.147307 0.039186 0.0
1.138124 0.001929 0.0
1.135627 -0.035691 0.0
1.140348 -0.071131 0.0
1.152920 -0.100556 0.0
1.174044 -0.120266 0.0
1.204506 -0.127067 0.0
1.244350 -0.118269 0.0
1.291496 -0.092467 0.0
1.340559 -0.051157 0.0
1.382923 -0.000521 0.0
1.412133 0.049284 0.0
1.428132 0.092598 0.0
1.433602 0.127768 0.0
1.430754 0.154019 0.0
1.421122 0.171179 0.0
1.405621 0.179561 0.0
1.384775 0.179949 0.0
1.359009 0.173548 0.0
1.328884 0.161809 0.0
1.295189 0.146216 0.0
1.258914 0.128137 0.0
1.221177 0.108737 0.0
1.183133 0.088956 0.0
1.145873 0.069517 0.0
1.110319 0.051070 0.0
1.077039 0.034255 0.0
1.046005 0.019850 0.0
1.016675 0.008815 0.0
0.988307 0.001541 0.0
0.960303 -0.002654 0.0
0.932776 -0.005519 0.0
0.907099 -0.009321 0.0
0.885974 -0.015973 0.0
0.872577 -0.026159 0.0
0.869291 -0.039186 0.0
0.877040 -0.053246 0.0
0.895402 -0.066067 0.0
0.923197 -0.075512 0.0
0.959043 -0.079840 0.0
1.001605 -0.077787 0.0
1.049545 -0.068655 0.0
1.101259 -0.052459 0.0
1.154242 -0.030370 0.0
1.203975 -0.005013 0.0
1.244959 0.020458 0.0
1.274352 0.042912 0.0
1.292239 0.061105 0.0
1.299461 0.074628 0.0
1.297109 0.083292 0.0
1.286477 0.087140 0.0
1.268997 0.086455 0.0
1.246175 0.081757 0.0
1.219536 0.073762 0.0
1.190544 0.063374 0.0
1.160533 0.051689 0.0
1.130642 0.040008 0.0
1.101683 0.029693 0.0
1.074048 0.022103 0.0
1.047774 0.018272 0.0
1.022675 0.018458 0.0
0.998498 0.021940 0.0
0.975100 0.027193 0.0
0.952625 0.032353 0.0
0.931574 0.035683 0.0
0.912708 0.035968 0.0
0.896845 0.032719 0.0
0.884654 0.026203 0.0
0.876825 0.016776 0.0
1.000824 -0.013811 0.0
1.004254 -0.042718 0.0
1.011645 -0.074335 0.0
1.024135 -0.110013 0.0
1.043720 -0.150886 0.0
1.073584 -0.197486 0.0
1.118341 -0.248877 0.0
1.183161 -0.299742 0.0
1.276807 -0.349849 0.0
1.372812 -0.324857 0.0
1.436516 -0.272897 0.0
1.472934 -0.221179 0.0
1.494396 -0.175980 0.0
1.509643 -0.136862 0.0
1.523809 -0.100884 0.0
1.538775 -0.063744 0.0
1.552635 -0.021400 0.0
1.560520 0.026000 0.0
1.558479 0.074789 0.0
1.545331 0.121346 0.0
1.521695 0.162282 0.0
1.489348 0.195376 0.0
1.450435 0.219482 0.0
1.407052 0.234147 0.0
1.361126 0.239313 0.0
1.314426 0.235169 0.0
1.268615 0.222099 0.0
1.225274 0.200693 0.0
1.185893 0.171808 0.0
1.151773 0.136666 0.0
1.123758 0.096990 0.0
1.101638 0.055106 0.0
1.083449 0.013380 0.0
1.066560 -0.027757 0.0
1.051086 -0.068311 0.0
1.040229 -0.105091 0.0
1.038603 -0.135229 0.0
1.051136 -0.155099 0.0
1.080973 -0.159919 0.0
1.128161 -0.145151 0.0
1.189258 -0.108633 0.0
1.256730 -0.052881 0.0
1.317389 0.011775 0.0
1.361037 0.070460 0.0
1.387809 0.117664 0.0
1.401318 0.153461 0.0
1.404224 0.178463 0.0
1.398397 0.193604 0.0
1.385131 0.200017 0.0
1.365395 0.198982 0.0
1.340047 0.191848 0.0
1.309969 0.179949 0.0
1.276126 0.164522 0.0
1.239554 0.146661 0.0
1.201324 0.127306 0.0
1.162451 0.107300 0.0
1.123727 0.087566 0.0
1.085455 0.069312 0.0
1.047205 0.054077 0.0
1.007928 0.043195 0.0
0.966689 0.036768 0.0
0.923881 0.032932 0.0
0.882056 0.028247 0.0
0.845440 0.019206 0.0
0.818179 0.003886 0.0
0.802942 -0.017383 0.0
0.800497 -0.042233 0.0
0.809824 -0.067275 0.0
0.828973 -0.089549 0.0
0.856070 -0.106921 0.0
0.889711 -0.117917 0.0
0.928950 -0.121510 0.0
0.973097 -0.117019 0.0
1.021450 -0.104160 0.0
1.072996 -0.083198 0.0
1.126162 -0.055085 0.0
1.178034 -0.022324 0.0
1.223384 0.010950 0.0
1.257844 0.040720 0.0
1.280570 0.065065 0.0
1.292270 0.083507 0.0
1.293945 0.095881 0.0
1.286804 0.102335 0.0
1.272189 0.103314 0.0
1.251492 0.099542 0.0
1.226074 0.092004 0.0
1.197193 0.081951 0.0
1.165932 0.070898 0.0
1.133157 0.060537 0.0
1.099518 0.052533 0.0
1.065520 0.048114 0.0
1.031621 0.047614 0.0
0.998331 0.050251 0.0
0.966313 0.054298 0.0
0.936426 0.057609 0.0
0.909660 0.058242 0.0
0.886967 0.054968 0.0
0.869056 0.047494 0.0
0.856245 0.036430 0.0
0.848469 0.022154 0.0
1.000416 -0.015051 0.0
1.002202 -0.046694 0.0
1.006264 -0.081812 0.0
1.013738 -0.122500 0.0
1.026832 -0.171078 0.0
1.049625 -0.229950 0.0
1.089383 -0.300928 0.0
1.157340 -0.380468 0.0
1.280894 -0.486322 0.0
1.393912 -0.397407 0.0
1.429642 -0.299781 0.0
1.428210 -0.229282 0.0
1.417214 -0.178343 0.0
1.407878 -0.140410 0.0
1.406155 -0.109778 0.0
1.415448 -0.079109 0.0
1.435120 -0.039567 0.0
1.456226 0.015177 0.0
1.467626 0.076254 0.0
1.465246 0.135410 0.0
1.449900 0.187201 0.0
1.423861 0.228844 0.0
1.389516 0.259272 0.0
1.348996 0.278260 0.0
1.304182 0.285941 0.0
1.256808 0.282614 0.0
1.208553 0.268721 0.0
1.161051 0.244915 0.0
1.115798 0.212220 0.0
1.073912 0.172259 0.0
1.035704 0.127620 0.0
1.000037 0.082264 0.0
0.963803 0.040647 0.0
0.922415 0.003253 0.0
0.875139 -0.036571 0.0
0.832212 -0.083047 0.0
0.807987 -0.131423 0.0
0.809462 -0.172912 0.0
0.836275 -0.198755 0.0
0.884972 -0.202200 0.0
0.951620 -0.179329 0.0
1.031923 -0.129960 0.0
1.119378 -0.059261 0.0
1.199749 0.017476 0.0
1.260548 0.083078 0.0
1.301695 0.133391 0.0
1.327110 0.170214 0.0
1.339523 0.195267 0.0
1.340963 0.210179 0.0
1.333033 0.216486 0.0
1.317094 0.215632 0.0
1.294386 0.208951 0.0
1.266092 0.197657 0.0
1.233355 0.182835 0.0
1.197240 0.165477 0.0
1.158610 0.146632 0.0
1.117885 0.127683 0.0
1.074786 0.110567 0.0
1.028425 0.097433 0.0
0.978142 0.089399 0.0
0.924904 0.085040 0.0
0.872214 0.080159 0.0
0.825434 0.069626 0.0
0.789712 0.050164 0.0
0.768030 0.021871 0.0
0.760457 -0.012558 0.0
0.764836 -0.048992 0.0
0.778364 -0.083370 0.0
0.798738 -0.112977 0.0
0.824391 -0.136243 0.0
0.854398 -0.152244 0.0
0.888309 -0.160333 0.0
0.925948 -0.159982 0.0
0.967195 -0.150797 0.0
1.011754 -0.132667 0.0
1.058953 -0.105982 0.0
1.107562 -0.071908 0.0
1.155477 -0.032732 0.0
1.198478 0.006943 0.0
1.232228 0.042366 0.0
1.255303 0.071432 0.0
1.267988 0.093597 0.0
1.270998 0.108749 0.0
1.265322 0.117191 0.0
1.252083 0.119601 0.0
1.232442 0.117004 0.0
1.207512 0.110762 0.0
1.178310 0.102549 0.0
1.145743 0.094227 0.0
1.110651 0.087575 0.0
1.073879 0.083841 0.0
1.036375 0.083291 0.0
0.999240 0.084998 0.0
0.963740 0.087070 0.0
0.931206 0.087259 0.0
0.902868 0.083697 0.0
0.879645 0.075430 0.0
0.861993 0.062594 0.0
0.849857 0.046278 0.0
0.842735 0.027204 0.0
0.999882 -0.015350 0.0
0.999470 -0.047769 0.0
0.998905 -0.084234 0.0
0.998864 -0.127510 0.0
1.000928 -0.181225 0.0
1.008752 -0.250420 0.0
1.030759 -0.342225 0.0
1.085621 -0.461991 0.0
1.235404 -0.678136 0.0
1.335470 -0.418675 0.0
1.284579 -0.263352 0.0
1.211357 -0.191058 0.0
1.152370 -0.146584 0.0
1.108217 -0.118680 0.0
1.081407 -0.102975 0.0
1.077161 -0.090959 0.0
1.099642 -0.069871 0.0
1.145737 -0.021720 0.0
1.192973 0.054515 0.0
1.222446 0.130055 0.0
1.234671 0.195676 0.0
1.232651 0.248427 0.0
1.218866 0.287818 0.0
1.195093 0.314007 0.0
1.162844 0.327258 0.0
1.123634 0.327880 0.0
1.079016 0.316328 0.0
1.030364 0.293462 0.0
0.978183 0.261107 0.0
0.920727 0.222715 0.0
0.853289 0.182811 0.0
0.772008 0.144020 0.0
0.682544 0.104589 0.0
0.603269 0.059973 0.0
0.552916 0.004338 0.0
0.536543 -0.064656 0.0
0.547360 -0.136407 0.0
0.576565 -0.198608 0.0
0.618996 -0.242303 0.0
0.673170 -0.261523 0.0
0.739145 -0.252630 0.0
0.816835 -0.214653 0.0
0.904970 -0.150158 0.0
0.999619 -0.066647 0.0
1.087908 0.018114 0.0
1.157205 0.087910 0.0
1.206876 0.140610 0.0
1.240261 0.179073 0.0
1.259678 0.205515 0.0
1.266978 0.221781 0.0
1.263769 0.229484 0.0
1.251522 0.230054 0.0
1.231594 0.224775 0.0
1.205221 0.214825 0.0
1.173437 0.201385 0.0
1.136902 0.185890 0.0
1.095707 0.170345 0.0
1.049431 0.157278 0.0
0.997823 0.148691 0.0
0.942058 0.144189 0.0
0.885723 0.139823 0.0
0.834373 0.129416 0.0
0.793542 0.107979 0.0
0.766578 0.074497 0.0
0.753852 0.031946 0.0
0.753495 -0.014704 0.0
0.762568 -0.060297 0.0
0.778213 -0.101239 0.0
0.798339 -0.135607 0.0
0.821605 -0.162532 0.0
0.847290 -0.181649 0.0
0.875176 -0.192726 0.0
0.905405 -0.195458 0.0
0.938281 -0.189444 0.0
0.974037 -0.174334 0.0
1.012607 -0.150085 0.0
1.053472 -0.117279 0.0
1.095558 -0.077362 0.0
1.137067 -0.032936 0.0
1.174421 0.011140 0.0
1.203971 0.050032 0.0
1.224339 0.081944 0.0
1.235450 0.106281 0.0
1.237728 0.123058 0.0
1.231891 0.132810 0.0
1.218800 0.136526 0.0
1.199361 0.135608 0.0
1.174473 0.131793 0.0
1.145033 0.126989 0.0
1.111993 0.122946 0.0
1.076432 0.120802 0.0
1.039626 0.120642 0.0
1.003042 0.121365 0.0
0.968253 0.120992 0.0
0.936756 0.117368 0.0
0.909758 0.108924 0.0
0.888012 0.095172 0.0
0.871752 0.076764 0.0
0.860736 0.055261 0.0
0.854430 0.031649 0.0
0.999274 -0.014506 0.0
0.996334 -0.045261 0.0
0.990295 -0.080138 0.0
0.980864 -0.122133 0.0
0.967803 -0.175606 0.0
0.951593 -0.247653 0.0
0.935715 -0.351121 0.0
0.935183 -0.507425 0.0
1.033007 -0.880309 0.0
1.024877 -0.203900 0.0
0.825480 -0.111668 0.0
0.673550 -0.105954 0.0
0.585379 -0.084530 0.0
0.523315 -0.074516 0.0
0.491076 -0.088089 0.0
0.499384 -0.109907 0.0
0.545650 -0.119671 0.0
0.623841 -0.096206 0.0
0.723425 -0.017819 0.0
0.813150 0.083191 0.0
0.875159 0.168306 0.0
0.916073 0.236903 0.0
0.938912 0.290288 0.0
0.945068 0.329155 0.0
0.935665 0.353762 0.0
0.911829 0.364421 0.0
0.874308 0.361926 0.0
0.822685 0.348138 0.0
0.754881 0.326416 0.0
0.669211 0.300532 0.0
0.570417 0.271225 0.0
0.474087 0.233217 0.0
0.400770 0.178173 0.0
0.363503 0.102930 0.0
0.362053 0.013183 0.0
0.384985 -0.080060 0.0
0.418948 -0.165784 0.0
0.457291 -0.236779 0.0
0.499038 -0.288310 0.0
0.545883 -0.316534 0.0
0.600479 -0.318190 0.0
0.665097 -0.291401 0.0
0.740594 -0.237042 0.0
0.825913 -0.159730 0.0
0.917294 -0.068473 0.0
1.003041 0.019453 0.0
1.071871 0.090565 0.0
1.122918 0.144686 0.0
1.158563 0.184841 0.0
1.180537 0.213182 0.0
1.190358 0.231471 0.0
1.189439 0.241234 0.0
1.179103 0.243860 0.0
1.160521 0.240696 0.0
1.134589 0.233232 0.0
1.101774 0.223393 0.0
1.062122 0.213689 0.0
1.015717 0.206614 0.0
0.963712 0.202968 0.0
0.909345 0.200044 0.0
0.857903 0.191746 0.0
0.815121 0.171625 0.0
0.784969 0.136752 0.0
0.768490 0.089167 0.0
0.764318 0.034174 0.0
0.769892 -0.022150 0.0
0.782406 -0.074437 0.0
0.799409 -0.119748 0.0
0.819050 -0.156865 0.0
0.840050 -0.185540 0.0
0.861688 -0.205965 0.0
0.883787 -0.218395 0.0
0.906650 -0.222879 0.0
0.930901 -0.219150 0.0
0.957241 -0.206723 0.0
0.986166 -0.185192 0.0
1.017746 -0.154617 0.0
1.051506 -0.115870 0.0
1.086404 -0.070836 0.0
1.120685 -0.022595 0.0
1.151210 0.023692 0.0
1.175132 0.063995 0.0
1.191354 0.096897 0.0
1.199600 0.121918 0.0
1.200072 0.139314 0.0
1.193250 0.149935 0.0
1.179763 0.155126 0.0
1.160339 0.156589 0.0
1.135808 0.156164 0.0
1.107157 0.155462 0.0
1.075592 0.155411 0.0
1.042556 0.155876 0.0
1.009661 0.155610 0.0
0.978527 0.152669 0.0
0.950569 0.145146 0.0
0.926814 0.131900 0.0
0.907811 0.112944 0.0
0.893664 0.089398 0.0
0.884125 0.063181 0.0
0.878827 0.035332 0.0
0.998701 -0.012481 0.0
0.993367 -0.039013 0.0
0.982073 -0.069054 0.0
0.963361 -0.105073 0.0
0.934496 -0.150740 0.0
0.890446 -0.212259 0.0
0.821355 -0.301545 0.0
0.707930 -0.443044 0.0
0.318479 -0.757600 0.0
-0.463305 0.273187 0.0
-0.463305 0.000000 0.0
-0.038236 -0.027029 0.0
-0.068651 -0.056076 0.0
-0.033113 -0.076444 0.0
0.033233 -0.120269 0.0
0.107931 -0.160734 0.0
0.176175 -0.183355 0.0
0.243908 -0.178445 0.0
0.326358 -0.117614 0.0
0.422674 -0.003055 0.0
0.510112 0.105106 0.0
0.577568 0.191732 0.0
0.627023 0.263165 0.0
0.656858 0.320287 0.0
0.666001 0.362890 0.0
0.653864 0.391267 0.0
0.619789 0.406677 0.0
0.563528 0.411271 0.0
0.487914 0.406700 0.0
0.402962 0.390871 0.0
0.326359 0.356284 0.0
0.276081 0.294766 0.0
0.260410 0.205612 0.0
0.275401 0.097769 0.0
0.309711 -0.014516 0.0
0.350960 -0.116540 0.0
0.391457 -0.203765 0.0
0.428744 -0.274427 0.0
0.463184 -0.326847 0.0
0.497314 -0.358972 0.0
0.535131 -0.368165 0.0
0.580889 -0.351801 0.0
0.637584 -0.308834 0.0
0.705834 -0.241507 0.0
0.783700 -0.155945 0.0
0.866647 -0.061770 0.0
0.944029 0.025575 0.0
1.006708 0.095951 0.0
1.054070 0.150568 0.0
1.087578 0.191972 0.0
1.108420 0.222018 0.0
1.117738 0.242287 0.0
1.116618 0.254263 0.0
1.106000 0.259493 0.0
1.086556 0.259811 0.0
1.058648 0.257536 0.0
1.022603 0.255244 0.0
0.979459 0.254608 0.0
0.931915 0.254523 0.0
0.884653 0.250118 0.0
0.843302 0.234466 0.0
0.812419 0.202571 0.0
0.793965 0.154412 0.0
0.787360 0.094590 0.0
0.790625 0.029659 0.0
0.801287 -0.033870 0.0
0.816863 -0.090806 0.0
0.835214 -0.138734 0.0
0.854633 -0.176939 0.0
0.873841 -0.205674 0.0
0.892048 -0.225675 0.0
0.909013 -0.237749 0.0
0.925062 -0.242438 0.0
0.941009 -0.239790 0.0
0.957937 -0.229352 0.0
0.976883 -0.210435 0.0
0.998515 -0.182585 0.0
1.022924 -0.146071 0.0
1.049585 -0.102195 0.0
1.077412 -0.053344 0.0
1.104516 -0.003189 0.0
1.128243 0.043228 0.0
1.146512 0.083172 0.0
1.158401 0.115508 0.0
1.163579 0.140074 0.0
1.162105 0.157472 0.0
1.154295 0.168886 0.0
1.140662 0.175885 0.0
1.121920 0.180139 0.0
1.099027 0.183030 0.0
1.073210 0.185225 0.0
1.045934 0.186374 0.0
1.018772 0.185169 0.0
0.993206 0.179812 0.0
0.970421 0.168746 0.0
0.951192 0.151284 0.0
0.935877 0.127877 0.0
0.924513 0.099978 0.0
0.916923 0.069730 0.0
0.912942 0.038063 0.0
0.998289 -0.009472 0.0
0.991243 -0.029642 0.0
0.976230 -0.052118 0.0
0.951087 -0.078153 0.0
0.911642 -0.109350 0.0
0.849879 -0.147834 0.0
0.749169 -0.196168 0.0
0.570142 -0.255969 0.0
0.227019 -0.312678 0.0
0.000000 0.273187 0.0
-0.000000 -0.000000 0.0
0.000000 0.000000 0.0
-0.033254 -0.031948 0.0
-0.071585 -0.099087 0.0
-0.069673 -0.165884 0.0
-0.054158 -0.205331 0.0
-0.039964 -0.221196 0.0
-0.022356 -0.225945 0.0
0.018021 -0.192941 0.0
0.093745 -0.099768 0.0
0.185382 0.022744 0.0
0.266253 0.125765 0.0
0.330220 0.215710 0.0
0.373908 0.294218 0.0
0.394331 0.359393 0.0
0.390289 0.410942 0.0
0.362419 0.448947 0.0
0.315755 0.471926 0.0
0.261666 0.475748 0.0
0.216359 0.452083 0.0
0.194904 0.393131 0.0
0.203692 0.299410 0.0
0.238657 0.181673 0.0
0.290025 0.055349 0.0
0.345295 -0.061678 0.0
0.395624 -0.160956 0.0
0.438427 -0.242650 0.0
0.472780 -0.307182 0.0
0.499146 -0.354898 0.0
0.519789 -0.385694 0.0
0.538919 -0.398391 0.0
0.562143 -0.390557 0.0
0.594909 -0.359539 0.0
0.640491 -0.304633 0.0
0.698758 -0.228951 0.0
0.766495 -0.139448 0.0
0.838126 -0.045760 0.0
0.904164 0.038570 0.0
0.957785 0.106965 0.0
0.998626 0.161227 0.0
1.027351 0.203197 0.0
1.044686 0.234455 0.0
1.051348 0.256553 0.0
1.047945 0.271223 0.0
1.034923 0.280546 0.0
1.012703 0.286928 0.0
0.982172 0.292429 0.0
0.945457 0.297283 0.0
0.906438 0.298411 0.0
0.870265 0.289665 0.0
0.841761 0.264773 0.0
0.823743 0.221166 0.0
0.816545 0.161470 0.0
0.818851 0.091831 0.0
0.828789 0.019215 0.0
0.844142 -0.049441 0.0
0.862598 -0.109267 0.0
0.882226 -0.158253 0.0
0.901444 -0.196057 0.0
0.919028 -0.223348 0.0
0.934168 -0.241348 0.0
0.946552 -0.251425 0.0
0.956443 -0.254702 0.0
0.964691 -0.251720 0.0
0.972608 -0.242267 0.0
0.981676 -0.225533 0.0
0.993155 -0.200597 0.0
1.007750 -0.167063 0.0
1.025460 -0.125573 0.0
1.045625 -0.077958 0.0
1.067049 -0.027102 0.0
1.087730 0.022734 0.0
1.105484 0.067643 0.0
1.118867 0.105765 0.0
1.127077 0.136429 0.0
1.129776 0.159892 0.0
1.126966 0.177086 0.0
1.118933 0.189351 0.0
1.106245 0.198102 0.0
1.089774 0.204432 0.0
1.070682 0.208733 0.0
1.050336 0.210488 0.0
1.030141 0.208412 0.0
1.011326 0.200951 0.0
0.994783 0.186934 0.0
0.981020 0.166088 0.0
0.970218 0.139189 0.0
0.962356 0.107892 0.0
0.957311 0.074450 0.0
0.955047 0.039588 0.0
0.998121 -0.005883 0.0
0.990393 -0.018457 0.0
0.974012 -0.031909 0.0
0.946899 -0.046105 0.0
0.905344 -0.060398 0.0
0.843244 -0.072923 0.0
0.751268 -0.078393 0.0
0.618631 -0.062080 0.0
0.443528 0.015619 0.0
0.173105 0.155558 0.0
0.000000 0.000000 0.0
-0.000000 -0.000000 0.0
0.000000 0.000000 0.0
-0.047549 -0.047005 0.0
-0.115168 -0.152802 0.0
-0.150822 -0.198272 0.0
-0.181962 -0.211309 0.0
-0.202987 -0.232416 0.0
-0.199618 -0.230216 0.0
-0.162022 -0.175814 0.0
-0.084040 -0.070827 0.0
0.009056 0.045370 0.0
0.084578 0.156617 0.0
0.136508 0.257694 0.0
0.166102 0.345902 0.0
0.174453 0.420124 0.0
0.165703 0.476385 0.0
0.149812 0.507042 0.0
0.140142 0.504391 0.0
0.148625 0.460263 0.0
0.181071 0.373959 0.0
0.235171 0.255694 0.0
0.303573 0.122021 0.0
0.375269 -0.008062 0.0
0.439933 -0.118202 0.0
0.493833 -0.208661 0.0
0.536621 -0.280536 0.0
0.567949 -0.334977 0.0
0.587998 -0.373519 0.0
0.598032 -0.397750 0.0
0.601089 -0.408522 0.0
0.602425 -0.404986 0.0
0.608909 -0.384361 0.0
0.626950 -0.343434 0.0
0.659895 -0.281361 0.0
0.706765 -0.201645 0.0
0.763171 -0.111600 0.0
0.822439 -0.020896 0.0
0.876342 0.058906 0.0
0.920106 0.124682 0.0
0.953303 0.177820 0.0
0.976044 0.219755 0.0
0.988590 0.252046 0.0
0.991212 0.276510 0.0
0.984240 0.295253 0.0
0.968351 0.310330 0.0
0.945140 0.322770 0.0
0.917634 0.331163 0.0
0.890216 0.330968 0.0
0.867548 0.315949 0.0
0.853003 0.281537 0.0
0.847766 0.227656 0.0
0.851214 0.158730 0.0
0.861934 0.081545 0.0
0.878258 0.003238 0.0
0.898024 -0.068583 0.0
0.918991 -0.129548 0.0
0.939411 -0.178019 0.0
0.957896 -0.213994 0.0
0.973401 -0.238500 0.0
0.985232 -0.253167 0.0
0.993097 -0.259855 0.0
0.997197 -0.260263 0.0
0.998313 -0.255523 0.0
0.997802 -0.245869 0.0
0.997405 -0.230602 0.0
0.998878 -0.208479 0.0