# vtk DataFile Version 3.0
Vector Field
ASCII
DATASET RECTILINEAR_GRID
DIMENSIONS 100 26 1
X_COORDINATES 100 double
0.050000 0.150000 0.250000 0.350000 0.450000 0.550000 0.650000 0.750000 0.850000 0.950000 1.050000 1.150000 1.250000 1.350000 1.450000 1.550000 1.650000 1.750000 1.850000 1.950000 2.050000 2.150000 2.250000 2.350000 2.450000 2.550000 2.650000 2.750000 2.850000 2.950000 3.050000 3.150000 3.250000 3.350000 3.450000 3.550000 3.650000 3.750000 3.850000 3.950000 4.050000 4.150000 4.250000 4.350000 4.450000 4.550000 4.650000 4.750000 4.850000 4.950000 5.050000 5.150000 5.250000 5.350000 5.450000 5.550000 5.650000 5.750000 5.850000 5.950000 6.050000 6.150000 6.250000 6.350000 6.450000 6.550000 6.650000 6.750000 6.850000 6.950000 7.050000 7.150000 7.250000 7.350000 7.450000 7.550000 7.650000 7.750000 7.850000 7.950000 8.050000 8.150000 8.250000 8.350000 8.450000 8.550000 8.650000 8.750000 8.850000 8.950000 9.050000 9.150000 9.250000 9.350000 9.450000 9.550000 9.650000 9.750000 9.850000 9.950000 
Y_COORDINATES 26 double
0.050000 0.150000 0.250000 0.350000 0.450000 0.550000 0.650000 0.750000 0.850000 0.950000 1.050000 1.150000 1.250000 1.350000 1.450000 1.550000 1.650000 1.750000 1.850000 1.950000 2.050000 2.150000 2.250000 2.350000 2.450000 2.550000 
Z_COORDINATES 1 double
0.0
POINT_DATA 2600
VECTORS Vektorfeld double
0.997614 0.002386 0.0
0.992659 0.002569 0.0
0.988940 0.001150 0.0
0.988779 -0.000990 0.0
0.993228 -0.003458 0.0
1.002678 -0.005991 0.0
1.017003 -0.008334 0.0
1.035554 -0.010217 0.0
1.057157 -0.011386 0.0
1.080207 -0.011664 0.0
1.102874 -0.011003 0.0
1.123357 -0.009481 0.0
1.140074 -0.007235 0.0
1.151725 -0.004416 0.0
1.157383 -0.001241 0.0
1.156550 0.002074 0.0
1.148832 0.005644 0.0
1.133788 0.009400 0.0
1.111182 0.013206 0.0
1.081088 0.016888 0.0
1.043944 0.020255 0.0
1.000571 0.023119 0.0
0.952139 0.025314 0.0
0.900120 0.026705 0.0
0.846223 0.027192 0.0
0.792308 0.026723 0.0
0.740280 0.025305 0.0
0.691947 0.023027 0.0
0.648864 0.020056 0.0
0.612188 0.016620 0.0
0.582591 0.012977 0.0
0.560243 0.009372 0.0
0.544870 0.006002 0.0
0.535949 0.002919 0.0
0.533045 -0.000015 0.0
0.535308 -0.002249 0.0
0.541157 -0.003600 0.0
0.549039 -0.004281 0.0
0.557836 -0.004516 0.0
0.566833 -0.004480 0.0
0.575606 -0.004293 0.0
0.583928 -0.004029 0.0
0.591689 -0.003732 0.0
0.598848 -0.003427 0.0
0.605400 -0.003126 0.0
0.611359 -0.002834 0.0
0.616747 -0.002554 0.0
0.621589 -0.002288 0.0
0.625915 -0.002038 0.0
0.629757 -0.001804 0.0
0.633150 -0.001588 0.0
0.636129 -0.001391 0.0
0.638731 -0.001212 0.0
0.640994 -0.001051 0.0
0.642953 -0.000908 0.0
0.644644 -0.000783 0.0
0.646100 -0.000673 0.0
0.647349 -0.000577 0.0
0.648421 -0.000494 0.0
0.649338 -0.000423 0.0
0.650123 -0.000362 0.0
0.650794 -0.000309 0.0
0.651368 -0.000265 0.0
0.651859 -0.000226 0.0
0.652279 -0.000194 0.0
0.652639 -0.000166 0.0
0.652947 -0.000142 0.0
0.653210 -0.000122 0.0
0.653436 -0.000104 0.0
0.653631 -0.000090 0.0
0.653797 -0.000077 0.0
0.653941 -0.000066 0.0
0.654065 -0.000057 0.0
0.654172 -0.000050 0.0
0.654265 -0.000043 0.0
0.654346 -0.000038 0.0
0.654418 -0.000034 0.0
0.654481 -0.000030 0.0
0.654539 -0.000027 0.0
0.654591 -0.000025 0.0
0.654640 -0.000024 0.0
0.654688 -0.000024 0.0
0.654736 -0.000024 0.0
0.654786 -0.000026 0.0
0.654840 -0.000028 0.0
0.654900 -0.000032 0.0
0.654969 -0.000037 0.0
0.655051 -0.000045 0.0
0.655151 -0.000055 0.0
0.655274 -0.000068 0.0
0.655428 -0.000086 0.0
0.655625 -0.000110 0.0
0.655877 -0.000143 0.0
0.656207 -0.000187 0.0
0.656644 -0.000250 0.0
0.657234 -0.000340 0.0
0.658051 -0.000476 0.0
0.659217 -0.000690 0.0
0.660973 -0.001066 0.0
0.663439 -0.001401 0.0
1.002904 0.001868 0.0
1.011225 -0.000280 0.0
1.024086 -0.005142 0.0
1.040999 -0.011450 0.0
1.062036 -0.018484 0.0
1.087256 -0.025636 0.0
1.116476 -0.032235 0.0
1.149136 -0.037526 0.0
1.184225 -0.040769 0.0
1.220307 -0.041414 0.0
1.255740 -0.039352 0.0
1.288995 -0.034871 0.0
1.318847 -0.028415 0.0
1.344358 -0.020399 0.0
1.364631 -0.011190 0.0
1.378566 -0.001079 0.0
1.385198 0.009884 0.0
1.383938 0.021464 0.0
1.374464 0.033220 0.0
1.356827 0.044606 0.0
1.331475 0.055033 0.0
1.299254 0.063936 0.0
1.261358 0.070824 0.0
1.219256 0.075314 0.0
1.174598 0.077139 0.0
1.129113 0.076177 0.0
1.084510 0.072483 0.0
1.042368 0.066325 0.0
1.004031 0.058178 0.0
0.970517 0.048688 0.0
0.942447 0.038576 0.0
0.920030 0.028539 0.0
0.903091 0.019146 0.0
0.891060 0.010727 0.0
0.882734 0.003407 0.0
0.877086 -0.002287 0.0
0.873870 -0.006195 0.0
0.872908 -0.008605 0.0
0.873852 -0.009935 0.0
0.876334 -0.010542 0.0
0.880016 -0.010687 0.0
0.884605 -0.010545 0.0
0.889856 -0.010228 0.0
0.895566 -0.009801 0.0
0.901565 -0.009303 0.0
0.907707 -0.008757 0.0
0.913869 -0.008179 0.0
0.919944 -0.007580 0.0
0.925843 -0.006972 0.0
0.931496 -0.006366 0.0
0.936849 -0.005772 0.0
0.941864 -0.005200 0.0
0.946517 -0.004657 0.0
0.950798 -0.004149 0.0
0.954708 -0.003680 0.0
0.958257 -0.003250 0.0
0.961458 -0.002862 0.0
0.964333 -0.002512 0.0
0.966903 -0.002201 0.0
0.969194 -0.001924 0.0
0.971228 -0.001680 0.0
0.973031 -0.001465 0.0
0.974625 -0.001277 0.0
0.976031 -0.001112 0.0
0.977271 -0.000968 0.0
0.978362 -0.000842 0.0
0.979322 -0.000733 0.0
0.980165 -0.000638 0.0
0.980905 -0.000555 0.0
0.981555 -0.000483 0.0
0.982125 -0.000421 0.0
0.982625 -0.000367 0.0
0.983063 -0.000320 0.0
0.983448 -0.000279 0.0
0.983785 -0.000244 0.0
0.984082 -0.000214 0.0
0.984342 -0.000189 0.0
0.984571 -0.000167 0.0
0.984773 -0.000149 0.0
0.984952 -0.000135 0.0
0.985110 -0.000123 0.0
0.985252 -0.000115 0.0
0.985380 -0.000109 0.0
0.985497 -0.000107 0.0
0.985605 -0.000108 0.0
0.985707 -0.000114 0.0
0.985805 -0.000124 0.0
0.985904 -0.000139 0.0
0.986005 -0.000162 0.0
0.986113 -0.000193 0.0
0.986232 -0.000235 0.0
0.986368 -0.000293 0.0
0.986527 -0.000371 0.0
0.986717 -0.000479 0.0
0.986949 -0.000628 0.0
0.987236 -0.000839 0.0
0.987590 -0.001148 0.0
0.988019 -0.001613 0.0
0.988491 -0.002371 0.0
0.989027 -0.003099 0.0
1.001806 -0.002842 0.0
1.008271 -0.010355 0.0
1.020083 -0.019740 0.0
1.036855 -0.030537 0.0
1.058620 -0.042200 0.0
1.085486 -0.054006 0.0
1.117362 -0.064962 0.0
1.153719 -0.073815 0.0
1.193390 -0.079239 0.0
1.234474 -0.080111 0.0
1.274716 -0.076330 0.0
1.312202 -0.068634 0.0
1.345661 -0.057963 0.0
1.374331 -0.045031 0.0
1.397683 -0.030183 0.0
1.415205 -0.013543 0.0
1.426311 0.004610 0.0
1.430438 0.023871 0.0
1.427222 0.043503 0.0
1.416608 0.062574 0.0
1.398947 0.080078 0.0
1.374976 0.095083 0.0
1.345727 0.106822 0.0
1.312415 0.114730 0.0
1.276336 0.118460 0.0
1.238782 0.117894 0.0
1.200981 0.113170 0.0
1.164052 0.104709 0.0
1.128966 0.093217 0.0
1.096498 0.079631 0.0
1.067193 0.065007 0.0
1.041333 0.050384 0.0
1.018938 0.036634 0.0
0.999805 0.024403 0.0
0.983676 0.014186 0.0
0.970248 0.006010 0.0
0.959247 -0.000275 0.0
0.950606 -0.004922 0.0
0.944302 -0.008257 0.0
0.940202 -0.010603 0.0
0.938117 -0.012222 0.0
0.937819 -0.013301 0.0
0.939061 -0.013965 0.0
0.941583 -0.014296 0.0
0.945125 -0.014349 0.0
0.949436 -0.014166 0.0
0.954286 -0.013782 0.0
0.959467 -0.013233 0.0
0.964801 -0.012553 0.0
0.970141 -0.011778 0.0
0.975370 -0.010942 0.0
0.980401 -0.010075 0.0
0.985169 -0.009204 0.0
0.989634 -0.008349 0.0
0.993772 -0.007528 0.0
0.997574 -0.006752 0.0
1.001043 -0.006029 0.0
1.004186 -0.005363 0.0
1.007021 -0.004755 0.0
1.009566 -0.004205 0.0
1.011843 -0.003710 0.0
1.013872 -0.003267 0.0
1.015677 -0.002873 0.0
1.017277 -0.002523 0.0
1.018695 -0.002214 0.0
1.019948 -0.001941 0.0
1.021054 -0.001700 0.0
1.022029 -0.001489 0.0
1.022889 -0.001303 0.0
1.023645 -0.001141 0.0
1.024311 -0.000998 0.0
1.024896 -0.000874 0.0
1.025411 -0.000765 0.0
1.025863 -0.000670 0.0
1.026261 -0.000588 0.0
1.026610 -0.000516 0.0
1.026917 -0.000454 0.0
1.027188 -0.000401 0.0
1.027426 -0.000355 0.0
1.027636 -0.000317 0.0
1.027822 -0.000285 0.0
1.027987 -0.000259 0.0
1.028134 -0.000239 0.0
1.028266 -0.000226 0.0
1.028386 -0.000218 0.0
1.028496 -0.000217 0.0
1.028600 -0.000223 0.0
1.028698 -0.000237 0.0
1.028794 -0.000261 0.0
1.028891 -0.000298 0.0
1.028991 -0.000350 0.0
1.029098 -0.000421 0.0
1.029215 -0.000519 0.0
1.029344 -0.000651 0.0
1.029488 -0.000832 0.0
1.029646 -0.001080 0.0
1.029808 -0.001423 0.0
1.029946 -0.001903 0.0
1.029976 -0.002582 0.0
1.029856 -0.003302 0.0
1.001415 -0.006064 0.0
1.006940 -0.019122 0.0
1.017799 -0.033644 0.0
1.034059 -0.049664 0.0
1.056072 -0.066852 0.0
1.084301 -0.084448 0.0
1.119038 -0.101133 0.0
1.159988 -0.114951 0.0
1.205903 -0.123688 0.0
1.253950 -0.124794 0.0
1.300465 -0.118404 0.0
1.342806 -0.106386 0.0
1.379789 -0.090652 0.0
1.411138 -0.072361 0.0
1.436780 -0.051848 0.0
1.456369 -0.028989 0.0
1.469176 -0.003855 0.0
1.474425 0.022960 0.0
1.471654 0.050400 0.0
1.460877 0.077068 0.0
1.442658 0.101466 0.0
1.418040 0.122285 0.0
1.388357 0.138551 0.0
1.355020 0.149649 0.0
1.319352 0.155288 0.0
1.282506 0.155465 0.0
1.245451 0.150454 0.0
1.208989 0.140815 0.0
1.173792 0.127395 0.0
1.140422 0.111291 0.0
1.109324 0.093751 0.0
1.080808 0.076017 0.0
1.055037 0.059167 0.0
1.032051 0.043989 0.0
1.011842 0.030939 0.0
0.994412 0.020114 0.0
0.979751 0.011283 0.0
0.967798 0.004114 0.0
0.958492 -0.001683 0.0
0.951778 -0.006363 0.0
0.947525 -0.010122 0.0
0.945516 -0.013094 0.0
0.945475 -0.015372 0.0
0.947087 -0.017021 0.0
0.950020 -0.018098 0.0
0.953952 -0.018660 0.0
0.958585 -0.018770 0.0
0.963656 -0.018496 0.0
0.968944 -0.017912 0.0
0.974273 -0.017088 0.0
0.979504 -0.016093 0.0
0.984538 -0.014988 0.0
0.989304 -0.013826 0.0
0.993760 -0.012648 0.0
0.997882 -0.011489 0.0
1.001662 -0.010373 0.0
1.005103 -0.009318 0.0
1.008217 -0.008333 0.0
1.011021 -0.007425 0.0
1.013536 -0.006595 0.0
1.015782 -0.005843 0.0
1.017784 -0.005165 0.0
1.019562 -0.004558 0.0
1.021140 -0.004016 0.0
1.022536 -0.003534 0.0
1.023770 -0.003107 0.0
1.024860 -0.002729 0.0
1.025821 -0.002396 0.0
1.026667 -0.002102 0.0
1.027413 -0.001844 0.0
1.028069 -0.001617 0.0
1.028646 -0.001418 0.0
1.029153 -0.001243 0.0
1.029599 -0.001091 0.0
1.029990 -0.000957 0.0
1.030335 -0.000841 0.0
1.030637 -0.000740 0.0
1.030904 -0.000652 0.0
1.031138 -0.000577 0.0
1.031344 -0.000512 0.0
1.031526 -0.000458 0.0
1.031688 -0.000413 0.0
1.031831 -0.000376 0.0
1.031958 -0.000349 0.0
1.032073 -0.000330 0.0
1.032177 -0.000319 0.0
1.032273 -0.000319 0.0
1.032362 -0.000329 0.0
1.032447 -0.000351 0.0
1.032529 -0.000387 0.0
1.032610 -0.000441 0.0
1.032692 -0.000518 0.0
1.032775 -0.000622 0.0
1.032859 -0.000762 0.0
1.032943 -0.000949 0.0
1.033019 -0.001197 0.0
1.033073 -0.001523 0.0
1.033077 -0.001946 0.0
1.032982 -0.002474 0.0
1.032752 -0.003060 0.0
1.001212 -0.008691 0.0
1.006101 -0.026908 0.0
1.016076 -0.046693 0.0
1.031634 -0.068434 0.0
1.053626 -0.092087 0.0
1.083157 -0.116974 0.0
1.121298 -0.141484 0.0
1.168419 -0.162671 0.0
1.223675 -0.177140 0.0
1.282183 -0.177897 0.0
1.336893 -0.166526 0.0
1.384161 -0.147873 0.0
1.423683 -0.125670 0.0
1.456590 -0.101599 0.0
1.483949 -0.075611 0.0
1.505837 -0.046704 0.0
1.521071 -0.014182 0.0
1.527979 0.021130 0.0
1.525385 0.057594 0.0
1.513026 0.093010 0.0
1.491647 0.125121 0.0
1.462777 0.152118 0.0
1.428324 0.172854 0.0
1.390212 0.186796 0.0
1.350130 0.193892 0.0
1.309417 0.194419 0.0
1.269067 0.188906 0.0
1.229792 0.178101 0.0
1.192113 0.162984 0.0
1.156437 0.144749 0.0
1.123087 0.124741 0.0
1.092313 0.104318 0.0
1.064280 0.084671 0.0
1.039084 0.066667 0.0
1.016784 0.050770 0.0
0.997441 0.037056 0.0
0.981113 0.025329 0.0
0.967838 0.015296 0.0
0.957604 0.006675 0.0
0.950320 -0.000723 0.0
0.945814 -0.007002 0.0
0.943823 -0.012214 0.0
0.944007 -0.016395 0.0
0.945982 -0.019585 0.0
0.949353 -0.021840 0.0
0.953744 -0.023241 0.0
0.958813 -0.023891 0.0
0.964269 -0.023903 0.0
0.969877 -0.023401 0.0
0.975451 -0.022502 0.0
0.980857 -0.021316 0.0
0.986000 -0.019942 0.0
0.990820 -0.018459 0.0
0.995285 -0.016935 0.0
0.999380 -0.015420 0.0
1.003108 -0.013951 0.0
1.006480 -0.012554 0.0
1.009515 -0.011246 0.0
1.012235 -0.010036 0.0
1.014663 -0.008927 0.0
1.016825 -0.007920 0.0
1.018746 -0.007011 0.0
1.020449 -0.006194 0.0
1.021956 -0.005464 0.0
1.023288 -0.004814 0.0
1.024463 -0.004237 0.0
1.025500 -0.003726 0.0
1.026414 -0.003274 0.0
1.027218 -0.002875 0.0
1.027926 -0.002524 0.0
1.028548 -0.002215 0.0
1.029095 -0.001944 0.0
1.029576 -0.001705 0.0
1.029998 -0.001497 0.0
1.030370 -0.001314 0.0
1.030696 -0.001154 0.0
1.030982 -0.001015 0.0
1.031234 -0.000894 0.0
1.031455 -0.000790 0.0
1.031649 -0.000700 0.0
1.031820 -0.000623 0.0
1.031971 -0.000559 0.0
1.032105 -0.000506 0.0
1.032223 -0.000465 0.0
1.032328 -0.000434 0.0
1.032422 -0.000414 0.0
1.032507 -0.000405 0.0
1.032584 -0.000408 0.0
1.032654 -0.000426 0.0
1.032720 -0.000459 0.0
1.032780 -0.000511 0.0
1.032836 -0.000586 0.0
1.032887 -0.000688 0.0
1.032932 -0.000825 0.0
1.032965 -0.001003 0.0
1.032978 -0.001232 0.0
1.032958 -0.001522 0.0
1.032885 -0.001877 0.0
1.032731 -0.002293 0.0
1.032474 -0.002756 0.0
1.001009 -0.010913 0.0
1.005154 -0.033719 0.0
1.013854 -0.058557 0.0
1.027982 -0.086256 0.0
1.048978 -0.117252 0.0
1.078886 -0.151247 0.0
1.120159 -0.186624 0.0
1.174720 -0.219213 0.0
1.243923 -0.245058 0.0
1.317510 -0.242074 0.0
1.380128 -0.219678 0.0
1.428253 -0.190114 0.0
1.464976 -0.159674 0.0
1.494631 -0.130157 0.0
1.520587 -0.100368 0.0
1.544046 -0.067294 0.0
1.563265 -0.028045 0.0
1.574366 0.016984 0.0
1.574172 0.064528 0.0
1.561703 0.110904 0.0
1.537802 0.152507 0.0
1.504619 0.186786 0.0
1.464827 0.212430 0.0
1.421021 0.229138 0.0
1.375379 0.237276 0.0
1.329547 0.237580 0.0
1.284672 0.230970 0.0
1.241500 0.218484 0.0
1.200502 0.201277 0.0
1.161986 0.180648 0.0
1.126163 0.158014 0.0
1.093186 0.134796 0.0
1.063164 0.112247 0.0
1.036187 0.091265 0.0
1.012348 0.072310 0.0
0.991762 0.055445 0.0
0.974548 0.040483 0.0
0.960789 0.027176 0.0
0.950485 0.015333 0.0
0.943522 0.004867 0.0
0.939654 -0.004218 0.0
0.938526 -0.011879 0.0
0.939705 -0.018093 0.0
0.942721 -0.022878 0.0
0.947108 -0.026305 0.0
0.952435 -0.028493 0.0
0.958323 -0.029596 0.0
0.964462 -0.029794 0.0
0.970611 -0.029266 0.0
0.976591 -0.028190 0.0
0.982279 -0.026722 0.0
0.987599 -0.024999 0.0
0.992511 -0.023133 0.0
0.996998 -0.021213 0.0
1.001065 -0.019305 0.0
1.004728 -0.017457 0.0
1.008011 -0.015703 0.0
1.010941 -0.014062 0.0
1.013549 -0.012546 0.0
1.015864 -0.011160 0.0
1.017914 -0.009900 0.0
1.019728 -0.008765 0.0
1.021330 -0.007745 0.0
1.022744 -0.006834 0.0
1.023990 -0.006023 0.0
1.025088 -0.005302 0.0
1.026054 -0.004664 0.0
1.026905 -0.004100 0.0
1.027652 -0.003602 0.0
1.028310 -0.003163 0.0
1.028887 -0.002776 0.0
1.029395 -0.002437 0.0
1.029840 -0.002139 0.0
1.030231 -0.001877 0.0
1.030575 -0.001648 0.0
1.030876 -0.001448 0.0
1.031141 -0.001273 0.0
1.031373 -0.001121 0.0
1.031577 -0.000989 0.0
1.031756 -0.000875 0.0
1.031913 -0.000777 0.0
1.032051 -0.000694 0.0
1.032172 -0.000626 0.0
1.032278 -0.000570 0.0
1.032371 -0.000527 0.0
1.032453 -0.000496 0.0
1.032526 -0.000479 0.0
1.032589 -0.000475 0.0
1.032644 -0.000485 0.0
1.032691 -0.000512 0.0
1.032731 -0.000558 0.0
1.032762 -0.000626 0.0
1.032783 -0.000720 0.0
1.032792 -0.000845 0.0
1.032782 -0.001006 0.0
1.032747 -0.001208 0.0
1.032675 -0.001455 0.0
1.032551 -0.001747 0.0
1.032361 -0.002078 0.0
1.032090 -0.002444 0.0
1.000728 -0.012650 0.0
1.003767 -0.039166 0.0
1.010360 -0.068404 0.0
1.021634 -0.101811 0.0
1.039575 -0.140634 0.0
1.067349 -0.185547 0.0
1.109557 -0.235806 0.0
1.171376 -0.286411 0.0
1.261403 -0.337089 0.0
1.354278 -0.316505 0.0
1.416377 -0.269964 0.0
1.452035 -0.223609 0.0
1.473082 -0.183950 0.0
1.488707 -0.151161 0.0
1.505401 -0.122014 0.0
1.526607 -0.090313 0.0
1.551046 -0.048684 0.0
1.571373 0.006195 0.0
1.579355 0.067529 0.0
1.571804 0.127923 0.0
1.549756 0.181438 0.0
1.516254 0.224541 0.0
1.474867 0.255854 0.0
1.428858 0.275528 0.0
1.380820 0.284566 0.0
1.332621 0.284320 0.0
1.285518 0.276208 0.0
1.240307 0.261630 0.0
1.197465 0.241971 0.0
1.157270 0.218665 0.0
1.119887 0.193203 0.0
1.085424 0.167047 0.0
1.053983 0.141458 0.0
1.025700 0.117315 0.0
1.000762 0.095037 0.0
0.979401 0.074665 0.0
0.961834 0.056044 0.0
0.948199 0.039010 0.0
0.938495 0.023507 0.0
0.932549 0.009602 0.0
0.930023 -0.002559 0.0
0.930442 -0.012830 0.0
0.933258 -0.021137 0.0
0.937897 -0.027490 0.0
0.943806 -0.031991 0.0
0.950492 -0.034819 0.0
0.957537 -0.036204 0.0
0.964618 -0.036406 0.0
0.971495 -0.035680 0.0
0.978008 -0.034268 0.0
0.984058 -0.032383 0.0
0.989599 -0.030200 0.0
0.994616 -0.027862 0.0
0.999123 -0.025478 0.0
1.003146 -0.023129 0.0
1.006720 -0.020870 0.0
1.009885 -0.018737 0.0
1.012681 -0.016754 0.0
1.015147 -0.014928 0.0
1.017319 -0.013264 0.0
1.019231 -0.011758 0.0
1.020912 -0.010402 0.0
1.022390 -0.009188 0.0
1.023689 -0.008104 0.0
1.024831 -0.007140 0.0
1.025833 -0.006285 0.0
1.026714 -0.005528 0.0
1.027487 -0.004859 0.0
1.028166 -0.004269 0.0
1.028762 -0.003749 0.0
1.029286 -0.003291 0.0
1.029745 -0.002889 0.0
1.030148 -0.002535 0.0
1.030501 -0.002225 0.0
1.030811 -0.001953 0.0
1.031083 -0.001716 0.0
1.031321 -0.001508 0.0
1.031530 -0.001327 0.0
1.031713 -0.001169 0.0
1.031873 -0.001033 0.0
1.032013 -0.000916 0.0
1.032135 -0.000816 0.0
1.032242 -0.000732 0.0
1.032334 -0.000663 0.0
1.032414 -0.000608 0.0
1.032483 -0.000566 0.0
1.032541 -0.000539 0.0
1.032590 -0.000526 0.0
1.032629 -0.000528 0.0
1.032659 -0.000546 0.0
1.032678 -0.000583 0.0
1.032687 -0.000641 0.0
1.032681 -0.000722 0.0
1.032659 -0.000829 0.0
1.032614 -0.000967 0.0
1.032541 -0.001138 0.0
1.032431 -0.001342 0.0
1.032273 -0.001579 0.0
1.032059 -0.001841 0.0
1.031778 -0.002130 0.0
1.000326 -0.013704 0.0
1.001743 -0.042568 0.0
1.005053 -0.074905 0.0
1.011371 -0.112904 0.0
1.022878 -0.158989 0.0
1.043604 -0.215691 0.0
1.080719 -0.284984 0.0
1.145314 -0.363646 0.0
1.264105 -0.468672 0.0
1.373239 -0.386929 0.0
1.407430 -0.295829 0.0
1.404319 -0.230292 0.0
1.389992 -0.183988 0.0
1.375893 -0.152649 0.0
1.370118 -0.131445 0.0
1.379291 -0.111261 0.0
1.405786 -0.078670 0.0
1.442130 -0.020490 0.0
1.470592 0.057770 0.0
1.479790 0.136034 0.0
1.470831 0.204333 0.0
1.447950 0.258029 0.0
1.415659 0.296044 0.0
1.377639 0.319367 0.0
1.336547 0.329857 0.0
1.294222 0.329553 0.0
1.251912 0.320387 0.0
1.210463 0.304111 0.0
1.170445 0.282349 0.0
1.132247 0.256679 0.0
1.096151 0.228669 0.0
1.062398 0.199798 0.0
1.031259 0.171287 0.0
1.003084 0.143945 0.0
0.978296 0.118131 0.0
0.957344 0.093885 0.0
0.940597 0.071138 0.0
0.928258 0.049890 0.0
0.920303 0.030286 0.0
0.916477 0.012594 0.0
0.916317 -0.002864 0.0
0.919219 -0.015847 0.0
0.924514 -0.026230 0.0
0.931510 -0.034031 0.0
0.939556 -0.039405 0.0
0.948089 -0.042623 0.0
0.956663 -0.044019 0.0
0.964949 -0.043957 0.0
0.972730 -0.042786 0.0
0.979880 -0.040825 0.0
0.986344 -0.038342 0.0
0.992119 -0.035556 0.0
0.997232 -0.032637 0.0
1.001731 -0.029710 0.0
1.005674 -0.026863 0.0
1.009120 -0.024156 0.0
1.012128 -0.021624 0.0
1.014751 -0.019286 0.0
1.017039 -0.017149 0.0
1.019035 -0.015211 0.0
1.020777 -0.013465 0.0
1.022299 -0.011899 0.0
1.023629 -0.010500 0.0
1.024792 -0.009254 0.0
1.025810 -0.008149 0.0
1.026701 -0.007170 0.0
1.027481 -0.006304 0.0
1.028164 -0.005540 0.0
1.028763 -0.004866 0.0
1.029288 -0.004273 0.0
1.029748 -0.003750 0.0
1.030151 -0.003292 0.0
1.030504 -0.002889 0.0
1.030814 -0.002535 0.0
1.031085 -0.002225 0.0
1.031323 -0.001954 0.0
1.031530 -0.001716 0.0
1.031712 -0.001509 0.0
1.031871 -0.001329 0.0
1.032010 -0.001172 0.0
1.032130 -0.001037 0.0
1.032235 -0.000921 0.0
1.032325 -0.000823 0.0
1.032403 -0.000741 0.0
1.032468 -0.000675 0.0
1.032523 -0.000623 0.0
1.032567 -0.000585 0.0
1.032600 -0.000562 0.0
1.032624 -0.000554 0.0
1.032636 -0.000562 0.0
1.032637 -0.000588 0.0
1.032624 -0.000632 0.0
1.032595 -0.000696 0.0
1.032547 -0.000784 0.0
1.032474 -0.000896 0.0
1.032372 -0.001034 0.0
1.032234 -0.001197 0.0
1.032052 -0.001384 0.0
1.031820 -0.001589 0.0
1.031532 -0.001813 0.0
0.999805 -0.013835 0.0
0.999078 -0.043127 0.0
0.997867 -0.076446 0.0
0.996829 -0.116644 0.0
0.997509 -0.167437 0.0
1.003487 -0.233947 0.0
1.023031 -0.323388 0.0
1.074487 -0.441294 0.0
1.218699 -0.654028 0.0
1.315502 -0.407510 0.0
1.265117 -0.259055 0.0
1.190669 -0.189507 0.0
1.125908 -0.145684 0.0
1.070395 -0.121341 0.0
1.029781 -0.116364 0.0
1.016211 -0.121946 0.0
1.038472 -0.116740 0.0
1.094643 -0.074934 0.0
1.161926 0.016470 0.0
1.211583 0.118478 0.0
1.237341 0.205091 0.0
1.245867 0.271626 0.0
1.242347 0.318257 0.0
1.230263 0.347259 0.0
1.211924 0.361396 0.0
1.188979 0.363285 0.0
1.162719 0.355225 0.0
1.134219 0.339222 0.0
1.104393 0.317083 0.0
1.074022 0.290514 0.0
1.043803 0.261150 0.0
1.014413 0.230460 0.0
0.986580 0.199595 0.0
0.961116 0.169277 0.0
0.938861 0.139841 0.0
0.920576 0.111412 0.0
0.906812 0.084121 0.0
0.897820 0.058238 0.0
0.893526 0.034186 0.0
0.893561 0.012483 0.0
0.897341 -0.006372 0.0
0.904137 -0.022038 0.0
0.913133 -0.034331 0.0
0.923499 -0.043292 0.0
0.934478 -0.049170 0.0
0.945453 -0.052367 0.0
0.955968 -0.053364 0.0
0.965726 -0.052656 0.0
0.974563 -0.050706 0.0
0.982421 -0.047913 0.0
0.989313 -0.044609 0.0
0.995297 -0.041048 0.0
1.000460 -0.037421 0.0
1.004896 -0.033861 0.0
1.008699 -0.030458 0.0
1.011959 -0.027267 0.0
1.014754 -0.024316 0.0
1.017156 -0.021618 0.0
1.019222 -0.019172 0.0
1.021004 -0.016967 0.0
1.022544 -0.014991 0.0
1.023877 -0.013227 0.0
1.025034 -0.011658 0.0
1.026040 -0.010265 0.0
1.026915 -0.009032 0.0
1.027678 -0.007941 0.0
1.028344 -0.006979 0.0
1.028926 -0.006130 0.0
1.029434 -0.005383 0.0
1.029878 -0.004725 0.0
1.030267 -0.004147 0.0
1.030607 -0.003639 0.0
1.030904 -0.003192 0.0
1.031165 -0.002801 0.0
1.031393 -0.002458 0.0
1.031592 -0.002157 0.0
1.031766 -0.001894 0.0
1.031918 -0.001665 0.0
1.032050 -0.001464 0.0
1.032165 -0.001290 0.0
1.032264 -0.001139 0.0
1.032349 -0.001009 0.0
1.032422 -0.000898 0.0
1.032483 -0.000804 0.0
1.032533 -0.000727 0.0
1.032572 -0.000665 0.0
1.032602 -0.000617 0.0
1.032621 -0.000584 0.0
1.032629 -0.000565 0.0
1.032626 -0.000561 0.0
1.032609 -0.000573 0.0
1.032578 -0.000602 0.0
1.032529 -0.000648 0.0
1.032459 -0.000714 0.0
1.032364 -0.000799 0.0
1.032240 -0.000905 0.0
1.032081 -0.001029 0.0
1.031881 -0.001171 0.0
1.031637 -0.001326 0.0
1.031344 -0.001495 0.0
0.999218 -0.012858 0.0
0.996049 -0.040207 0.0
0.989539 -0.071645 0.0
0.979379 -0.110246 0.0
0.965299 -0.160435 0.0
0.947717 -0.229344 0.0
0.929975 -0.329793 0.0
0.926744 -0.483113 0.0
1.019993 -0.849669 0.0
1.012081 -0.198475 0.0
0.817382 -0.109615 0.0
0.666978 -0.102990 0.0
0.573150 -0.073613 0.0
0.492342 -0.057091 0.0
0.442884 -0.090541 0.0
0.454019 -0.145334 0.0
0.514088 -0.175682 0.0
0.601456 -0.159533 0.0
0.707013 -0.071770 0.0
0.805781 0.058293 0.0
0.878256 0.167044 0.0
0.930916 0.248487 0.0
0.969471 0.306362 0.0
0.996165 0.344544 0.0
1.012259 0.366356 0.0
1.018938 0.374590 0.0
1.017508 0.371609 0.0
1.009362 0.359485 0.0
0.995898 0.340111 0.0
0.978476 0.315277 0.0
0.958433 0.286649 0.0
0.937126 0.255658 0.0
0.915974 0.223382 0.0
0.896412 0.190517 0.0
0.879772 0.157496 0.0
0.867120 0.124693 0.0
0.859131 0.092593 0.0
0.856045 0.061844 0.0
0.857712 0.033206 0.0
0.863683 0.007457 0.0
0.873298 -0.014739 0.0
0.885677 -0.032846 0.0
0.899780 -0.046622 0.0
0.914598 -0.056185 0.0
0.929290 -0.061947 0.0
0.943229 -0.064503 0.0
0.956008 -0.064522 0.0
0.967409 -0.062658 0.0
0.977366 -0.059499 0.0
0.985920 -0.055532 0.0
0.993181 -0.051142 0.0
0.999293 -0.046611 0.0
1.004412 -0.042139 0.0
1.008691 -0.037856 0.0
1.012267 -0.033842 0.0
1.015261 -0.030137 0.0
1.017776 -0.026757 0.0
1.019895 -0.023699 0.0
1.021690 -0.020951 0.0
1.023215 -0.018494 0.0
1.024517 -0.016306 0.0
1.025632 -0.014362 0.0
1.026591 -0.012640 0.0
1.027418 -0.011116 0.0
1.028134 -0.009771 0.0
1.028754 -0.008585 0.0
1.029292 -0.007539 0.0
1.029760 -0.006619 0.0
1.030168 -0.005810 0.0
1.030524 -0.005098 0.0
1.030834 -0.004473 0.0
1.031105 -0.003924 0.0
1.031342 -0.003442 0.0
1.031548 -0.003019 0.0
1.031729 -0.002648 0.0
1.031886 -0.002324 0.0
1.032023 -0.002039 0.0
1.032142 -0.001791 0.0
1.032246 -0.001574 0.0
1.032335 -0.001384 0.0
1.032411 -0.001220 0.0
1.032476 -0.001078 0.0
1.032530 -0.000956 0.0
1.032574 -0.000852 0.0
1.032608 -0.000764 0.0
1.032633 -0.000692 0.0
1.032648 -0.000634 0.0
1.032652 -0.000590 0.0
1.032646 -0.000560 0.0
1.032628 -0.000544 0.0
1.032596 -0.000542 0.0
1.032549 -0.000554 0.0
1.032483 -0.000581 0.0
1.032396 -0.000624 0.0
1.032284 -0.000682 0.0
1.032142 -0.000756 0.0
1.031968 -0.000844 0.0
1.031755 -0.000945 0.0
1.031502 -0.001055 0.0
1.031205 -0.001175 0.0
0.998674 -0.010749 0.0
0.993224 -0.033697 0.0
0.981689 -0.060110 0.0
0.962601 -0.092533 0.0
0.933219 -0.134686 0.0
0.888487 -0.192779 0.0
0.818509 -0.278638 0.0
0.703962 -0.416491 0.0
0.316185 -0.724048 0.0
-0.458000 0.257230 0.0
-0.458000 0.000000 0.0
-0.036569 -0.025547 0.0
-0.067597 -0.037219 0.0
-0.031580 -0.048694 0.0
0.041721 -0.122781 0.0
0.117326 -0.199835 0.0
0.174878 -0.238802 0.0
0.231348 -0.240251 0.0
0.308236 -0.173496 0.0
0.408089 -0.038603 0.0
0.507175 0.092379 0.0
0.591603 0.186065 0.0
0.666086 0.255746 0.0
0.728589 0.305963 0.0
0.777971 0.339461 0.0
0.814316 0.358461 0.0
0.838552 0.364933 0.0
0.852113 0.360746 0.0
0.856707 0.347720 0.0
0.854188 0.327609 0.0
0.846521 0.302027 0.0
0.835773 0.272335 0.0
0.824038 0.239592 0.0
0.813297 0.204611 0.0
0.805214 0.168124 0.0
0.800991 0.130940 0.0
0.801315 0.094011 0.0
0.806433 0.058394 0.0
0.816271 0.025151 0.0
0.830451 -0.004638 0.0
0.848039 -0.029847 0.0
0.867641 -0.049720 0.0
0.887892 -0.064102 0.0
0.907702 -0.073333 0.0
0.926293 -0.078081 0.0
0.943168 -0.079183 0.0
0.958067 -0.077519 0.0
0.970915 -0.073910 0.0
0.981778 -0.069067 0.0
0.990817 -0.063558 0.0
0.998247 -0.057807 0.0
1.004302 -0.052113 0.0
1.009213 -0.046668 0.0
1.013191 -0.041584 0.0
1.016417 -0.036916 0.0
1.019043 -0.032682 0.0
1.021192 -0.028874 0.0
1.022961 -0.025470 0.0
1.024427 -0.022441 0.0
1.025649 -0.019753 0.0
1.026676 -0.017375 0.0
1.027544 -0.015275 0.0
1.028280 -0.013422 0.0
1.028909 -0.011789 0.0
1.029447 -0.010352 0.0
1.029910 -0.009087 0.0
1.030310 -0.007975 0.0
1.030655 -0.006997 0.0
1.030955 -0.006139 0.0
1.031215 -0.005385 0.0
1.031441 -0.004723 0.0
1.031638 -0.004142 0.0
1.031809 -0.003632 0.0
1.031958 -0.003185 0.0
1.032088 -0.002793 0.0
1.032201 -0.002449 0.0
1.032299 -0.002148 0.0
1.032383 -0.001885 0.0
1.032456 -0.001655 0.0
1.032518 -0.001454 0.0
1.032570 -0.001279 0.0
1.032614 -0.001127 0.0
1.032648 -0.000995 0.0
1.032675 -0.000882 0.0
1.032693 -0.000786 0.0
1.032702 -0.000704 0.0
1.032703 -0.000637 0.0
1.032695 -0.000583 0.0
1.032675 -0.000542 0.0
1.032644 -0.000513 0.0
1.032599 -0.000496 0.0
1.032538 -0.000491 0.0
1.032459 -0.000499 0.0
1.032358 -0.000518 0.0
1.032232 -0.000550 0.0
1.032078 -0.000593 0.0
1.031892 -0.000646 0.0
1.031670 -0.000709 0.0
1.031410 -0.000778 0.0
1.031110 -0.000854 0.0
0.998293 -0.007717 0.0
0.991258 -0.024244 0.0
0.976258 -0.043028 0.0
0.951134 -0.065402 0.0
0.911731 -0.093031 0.0
0.850065 -0.128037 0.0
0.749540 -0.172878 0.0
0.571074 -0.229238 0.0
0.227707 -0.279633 0.0
0.000000 0.257230 0.0
-0.000000 -0.000000 0.0
0.000000 0.000000 0.0
-0.023282 -0.021380 0.0
-0.051585 -0.074151 0.0
-0.054873 -0.167336 0.0
-0.063087 -0.222671 0.0
-0.084127 -0.252477 0.0
-0.091973 -0.275200 0.0
-0.057116 -0.250292 0.0
0.036725 -0.155501 0.0
0.163922 -0.017005 0.0
0.282474 0.092469 0.0
0.383852 0.173481 0.0
0.472631 0.236947 0.0
0.547169 0.284557 0.0
0.606800 0.317388 0.0
0.651999 0.336570 0.0
0.684078 0.343469 0.0
0.704872 0.339609 0.0
0.716573 0.326538 0.0
0.721634 0.305705 0.0
0.722640 0.278400 0.0
0.722121 0.245781 0.0
0.722316 0.208968 0.0
0.725016 0.169150 0.0
0.731526 0.127629 0.0
0.742732 0.085792 0.0
0.759180 0.045048 0.0
0.780848 0.006991 0.0
0.806373 -0.026184 0.0
0.833507 -0.053023 0.0
0.860423 -0.073062 0.0
0.885956 -0.086546 0.0
0.909423 -0.094166 0.0
0.930449 -0.096865 0.0
0.948871 -0.095697 0.0
0.964677 -0.091710 0.0
0.977968 -0.085859 0.0
0.988937 -0.078951 0.0
0.997837 -0.071613 0.0
1.004956 -0.064300 0.0
1.010587 -0.057307 0.0
1.015009 -0.050807 0.0
1.018470 -0.044883 0.0
1.021179 -0.039553 0.0
1.023307 -0.034800 0.0
1.024989 -0.030587 0.0
1.026329 -0.026866 0.0
1.027406 -0.023588 0.0
1.028280 -0.020703 0.0
1.028995 -0.018168 0.0
1.029586 -0.015940 0.0
1.030077 -0.013984 0.0
1.030489 -0.012267 0.0
1.030836 -0.010760 0.0
1.031130 -0.009437 0.0
1.031381 -0.008276 0.0
1.031596 -0.007257 0.0
1.031781 -0.006363 0.0
1.031940 -0.005579 0.0
1.032077 -0.004891 0.0
1.032196 -0.004288 0.0
1.032298 -0.003759 0.0
1.032387 -0.003295 0.0
1.032464 -0.002889 0.0
1.032530 -0.002532 0.0
1.032587 -0.002220 0.0
1.032636 -0.001947 0.0
1.032677 -0.001707 0.0
1.032711 -0.001498 0.0
1.032738 -0.001315 0.0
1.032760 -0.001156 0.0
1.032775 -0.001017 0.0
1.032784 -0.000896 0.0
1.032786 -0.000792 0.0
1.032781 -0.000703 0.0
1.032769 -0.000627 0.0
1.032748 -0.000564 0.0
1.032717 -0.000511 0.0
1.032674 -0.000470 0.0
1.032618 -0.000438 0.0
1.032546 -0.000417 0.0
1.032456 -0.000404 0.0
1.032345 -0.000401 0.0
1.032209 -0.000406 0.0
1.032046 -0.000419 0.0
1.031852 -0.000439 0.0
1.031623 -0.000466 0.0
1.031359 -0.000497 0.0
1.031056 -0.000532 0.0
0.998156 -0.004166 0.0
0.990560 -0.013164 0.0
0.974437 -0.022987 0.0
0.947712 -0.033594 0.0
0.906730 -0.044454 0.0
0.845480 -0.053698 0.0
0.754822 -0.056033 0.0
0.624116 -0.036910 0.0
0.455018 0.043312 0.0
0.181294 0.163602 0.0
0.000000 0.000000 0.0
-0.000000 -0.000000 0.0
0.000000 0.000000 0.0
-0.036259 -0.034566 0.0
-0.104256 -0.137330 0.0
-0.179587 -0.169133 0.0
-0.256985 -0.207576 0.0
-0.302354 -0.266887 0.0
-0.301658 -0.294158 0.0
-0.248166 -0.258968 0.0
-0.130448 -0.158452 0.0
0.020963 -0.036048 0.0
0.151251 0.070331 0.0
0.255302 0.147267 0.0
0.345291 0.209709 0.0
0.420112 0.257783 0.0
0.479788 0.291301 0.0
0.525545 0.310902 0.0
0.559281 0.317646 0.0
0.583367 0.312713 0.0
0.600529 0.297306 0.0
0.613656 0.272665 0.0
0.625561 0.240130 0.0
0.638787 0.201197 0.0
0.655491 0.157517 0.0
0.677352 0.110892 0.0
0.705399 0.063275 0.0
0.739395 0.017121 0.0
0.776429 -0.023783 0.0
0.812750 -0.057256 0.0
0.846423 -0.082758 0.0
0.876754 -0.100574 0.0
0.903590 -0.111403 0.0
0.927012 -0.116196 0.0
0.947196 -0.116046 0.0
0.964362 -0.112104 0.0
0.978748 -0.105493 0.0
0.990608 -0.097228 0.0
1.000218 -0.088161 0.0
1.007866 -0.078952 0.0
1.013849 -0.070063 0.0
1.018455 -0.061781 0.0
1.021955 -0.054255 0.0
1.024590 -0.047530 0.0
1.026561 -0.041586 0.0
1.028034 -0.036368 0.0