# vtk DataFile Version 3.0
Vector Field
ASCII
DATASET RECTILINEAR_GRID
DIMENSIONS 100 26 1
X_COORDINATES 100 double
0.050000 0.150000 0.250000 0.350000 0.450000 0.550000 0.650000 0.750000 0.850000 0.950000 1.050000 1.150000 1.250000 1.350000 1.450000 1.550000 1.650000 1.750000 1.850000 1.950000 2.050000 2.150000 2.250000 2.350000 2.450000 2.550000 2.650000 2.750000 2.850000 2.950000 3.050000 3.150000 3.250000 3.350000 3.450000 3.550000 3.650000 3.750000 3.850000 3.950000 4.050000 4.150000 4.250000 4.350000 4.450000 4.550000 4.650000 4.750000 4.850000 4.950000 5.050000 5.150000 5.250000 5.350000 5.450000 5.550000 5.650000 5.750000 5.850000 5.950000 6.050000 6.150000 6.250000 6.350000 6.450000 6.550000 6.650000 6.750000 6.850000 6.950000 7.050000 7.150000 7.250000 7.350000 7.450000 7.550000 7.650000 7.750000 7.850000 7.950000 8.050000 8.150000 8.250000 8.350000 8.450000 8.550000 8.650000 8.750000 8.850000 8.950000 9.050000 9.150000 9.250000 9.350000 9.450000 9.550000 9.650000 9.750000 9.850000 9.950000 
Y_COORDINATES 26 double
0.050000 0.150000 0.250000 0.350000 0.450000 0.550000 0.650000 0.750000 0.850000 0.950000 1.050000 1.150000 1.250000 1.350000 1.450000 1.550000 1.650000 1.750000 1.850000 1.950000 2.050000 2.150000 2.250000 2.350000 2.450000 2.550000 
Z_COORDINATES 1 double
0.0
POINT_DATA 2600
VECTORS Vektorfeld double
0.997629 0.002371 0.0
0.992723 0.002535 0.0
0.989082 0.001106 0.0
0.989012 -0.001037 0.0
0.993549 -0.003500 0.0
1.003077 -0.006028 0.0
1.017478 -0.008372 0.0
1.036125 -0.010276 0.0
1.057905 -0.011504 0.0
1.081310 -0.011901 0.0
1.104664 -0.011453 0.0
1.126386 -0.010269 0.0
1.145171 -0.008517 0.0
1.160043 -0.006354 0.0
1.170299 -0.003902 0.0
1.175490 -0.001288 0.0
1.175462 0.001316 0.0
1.170067 0.004079 0.0
1.158964 0.007024 0.0
1.141840 0.010100 0.0
1.118521 0.013219 0.0
1.089053 0.016250 0.0
1.053761 0.019042 0.0
1.013276 0.021443 0.0
0.968519 0.023314 0.0
0.920662 0.024544 0.0
0.871066 0.025052 0.0
0.821218 0.024795 0.0
0.772660 0.023763 0.0
0.726906 0.021990 0.0
0.685364 0.019552 0.0
0.649236 0.016576 0.0
0.619431 0.013229 0.0
0.596483 0.009718 0.0
0.580494 0.006271 0.0
0.571090 0.003133 0.0
0.567565 0.000392 0.0
0.568730 -0.001557 0.0
0.572587 -0.002300 0.0
0.576889 -0.002002 0.0
0.579834 -0.000944 0.0
0.579846 0.000933 0.0
0.575288 0.003625 0.0
0.564879 0.006783 0.0
0.548043 0.010054 0.0
0.524870 0.013119 0.0
0.496043 0.015709 0.0
0.462757 0.017577 0.0
0.426792 0.018388 0.0
0.390812 0.017592 0.0
0.358615 0.014605 0.0
0.334545 0.009465 0.0
0.321612 0.003468 0.0
0.319232 -0.001088 0.0
0.323353 -0.003033 0.0
0.330144 -0.003758 0.0
0.338208 -0.004307 0.0
0.347336 -0.004821 0.0
0.357216 -0.005059 0.0
0.367309 -0.005034 0.0
0.377147 -0.004803 0.0
0.386373 -0.004423 0.0
0.394747 -0.003951 0.0
0.402131 -0.003433 0.0
0.408473 -0.002909 0.0
0.413792 -0.002410 0.0
0.418162 -0.001960 0.0
0.421694 -0.001572 0.0
0.424522 -0.001256 0.0
0.426788 -0.001010 0.0
0.428631 -0.000833 0.0
0.430179 -0.000715 0.0
0.431542 -0.000647 0.0
0.432808 -0.000618 0.0
0.434043 -0.000616 0.0
0.435289 -0.000630 0.0
0.436569 -0.000650 0.0
0.437888 -0.000668 0.0
0.439234 -0.000678 0.0
0.440588 -0.000676 0.0
0.441924 -0.000661 0.0
0.443217 -0.000632 0.0
0.444440 -0.000592 0.0
0.445574 -0.000542 0.0
0.446604 -0.000487 0.0
0.447519 -0.000429 0.0
0.448319 -0.000371 0.0
0.449005 -0.000315 0.0
0.449585 -0.000265 0.0
0.450071 -0.000221 0.0
0.450479 -0.000186 0.0
0.450826 -0.000161 0.0
0.451136 -0.000148 0.0
0.451434 -0.000150 0.0
0.451752 -0.000168 0.0
0.452130 -0.000209 0.0
0.452617 -0.000278 0.0
0.453273 -0.000379 0.0
0.454160 -0.000508 0.0
0.455400 -0.000732 0.0
1.002918 0.001824 0.0
1.011288 -0.000381 0.0
1.024224 -0.005273 0.0
1.041220 -0.011584 0.0
1.062332 -0.018602 0.0
1.087608 -0.025731 0.0
1.116860 -0.032321 0.0
1.149532 -0.037647 0.0
1.184638 -0.041018 0.0
1.220797 -0.041951 0.0
1.256463 -0.040423 0.0
1.290256 -0.036814 0.0
1.321166 -0.031667 0.0
1.348551 -0.025461 0.0
1.372019 -0.018521 0.0
1.391201 -0.011042 0.0
1.405446 -0.003147 0.0
1.414085 0.005298 0.0
1.416655 0.014339 0.0
1.412739 0.023825 0.0
1.402083 0.033468 0.0
1.384691 0.042861 0.0
1.360877 0.051536 0.0
1.331283 0.059028 0.0
1.296849 0.064919 0.0
1.258771 0.068874 0.0
1.218435 0.070653 0.0
1.177355 0.070122 0.0
1.137093 0.067257 0.0
1.099182 0.062161 0.0
1.065039 0.055068 0.0
1.035871 0.046356 0.0
1.012589 0.036535 0.0
0.995730 0.026219 0.0
0.985413 0.016077 0.0
0.981384 0.006760 0.0
0.982853 -0.001180 0.0
0.988445 -0.006741 0.0
0.996737 -0.009264 0.0
1.006155 -0.008757 0.0
1.014515 -0.005494 0.0
1.019689 0.000296 0.0
1.020157 0.008352 0.0
1.014772 0.017849 0.0
1.002843 0.027754 0.0
0.984342 0.037092 0.0
0.959904 0.045002 0.0
0.930781 0.050693 0.0
0.898738 0.053281 0.0
0.865702 0.051715 0.0
0.833104 0.045278 0.0
0.801221 0.034745 0.0
0.769387 0.022954 0.0
0.738013 0.013181 0.0
0.710593 0.005997 0.0
0.691471 -0.000457 0.0
0.682178 -0.006379 0.0
0.680924 -0.010623 0.0
0.684872 -0.013085 0.0
0.692128 -0.014357 0.0
0.701563 -0.014754 0.0
0.712337 -0.014473 0.0
0.723773 -0.013710 0.0
0.735330 -0.012614 0.0
0.746573 -0.011314 0.0
0.757177 -0.009929 0.0
0.766925 -0.008559 0.0
0.775705 -0.007285 0.0
0.783501 -0.006167 0.0
0.790380 -0.005243 0.0
0.796468 -0.004531 0.0
0.801930 -0.004028 0.0
0.806952 -0.003719 0.0
0.811711 -0.003573 0.0
0.816367 -0.003552 0.0
0.821042 -0.003616 0.0
0.825819 -0.003723 0.0
0.830740 -0.003835 0.0
0.835805 -0.003922 0.0
0.840980 -0.003961 0.0
0.846208 -0.003940 0.0
0.851416 -0.003853 0.0
0.856525 -0.003703 0.0
0.861459 -0.003499 0.0
0.866150 -0.003251 0.0
0.870543 -0.002974 0.0
0.874597 -0.002680 0.0
0.878289 -0.002384 0.0
0.881608 -0.002095 0.0
0.884555 -0.001825 0.0
0.887144 -0.001580 0.0
0.889396 -0.001367 0.0
0.891336 -0.001193 0.0
0.892997 -0.001064 0.0
0.894412 -0.000988 0.0
0.895619 -0.000975 0.0
0.896661 -0.001041 0.0
0.897595 -0.001207 0.0
0.898540 -0.001510 0.0
0.899633 -0.002062 0.0
1.001821 -0.002916 0.0
1.008332 -0.010523 0.0
1.020215 -0.019950 0.0
1.037056 -0.030743 0.0
1.058867 -0.042367 0.0
1.085734 -0.054110 0.0
1.117550 -0.065009 0.0
1.153769 -0.073850 0.0
1.193225 -0.079377 0.0
1.234048 -0.080575 0.0
1.274066 -0.077482 0.0
1.311507 -0.070989 0.0
1.345312 -0.062207 0.0
1.375034 -0.052027 0.0
1.400567 -0.040955 0.0
1.421888 -0.029111 0.0
1.438901 -0.016337 0.0
1.451300 -0.002550 0.0
1.458618 0.012300 0.0
1.460393 0.028005 0.0
1.456264 0.044073 0.0
1.446100 0.059812 0.0
1.430074 0.074425 0.0
1.408681 0.087127 0.0
1.382700 0.097235 0.0
1.353127 0.104210 0.0
1.321101 0.107679 0.0
1.287841 0.107437 0.0
1.254588 0.103458 0.0
1.222550 0.095910 0.0
1.192842 0.085169 0.0
1.166437 0.071828 0.0
1.144111 0.056671 0.0
1.126424 0.040628 0.0
1.113723 0.024686 0.0
1.106121 0.009783 0.0
1.103549 -0.003100 0.0
1.106017 -0.012881 0.0
1.113401 -0.018801 0.0
1.124931 -0.020168 0.0
1.139053 -0.016564 0.0
1.153490 -0.008246 0.0
1.165974 0.003944 0.0
1.174818 0.018797 0.0
1.178832 0.034720 0.0
1.177371 0.050086 0.0
1.170383 0.063434 0.0
1.158299 0.073467 0.0
1.141825 0.079023 0.0
1.121611 0.079222 0.0
1.097990 0.073990 0.0
1.071212 0.064694 0.0
1.042263 0.053788 0.0
1.013125 0.042859 0.0
0.985330 0.031533 0.0
0.958691 0.019768 0.0
0.932644 0.008736 0.0
0.908650 -0.000490 0.0
0.889457 -0.007973 0.0
0.876296 -0.013563 0.0
0.868519 -0.017206 0.0
0.864928 -0.019204 0.0
0.864469 -0.019957 0.0
0.866274 -0.019729 0.0
0.869592 -0.018761 0.0
0.873798 -0.017291 0.0
0.878400 -0.015545 0.0
0.883037 -0.013717 0.0
0.887476 -0.011972 0.0
0.891600 -0.010442 0.0
0.895399 -0.009218 0.0
0.898945 -0.008349 0.0
0.902368 -0.007842 0.0
0.905825 -0.007666 0.0
0.909476 -0.007765 0.0
0.913457 -0.008060 0.0
0.917866 -0.008465 0.0
0.922752 -0.008898 0.0
0.928113 -0.009284 0.0
0.933904 -0.009565 0.0
0.940044 -0.009703 0.0
0.946425 -0.009679 0.0
0.952930 -0.009492 0.0
0.959441 -0.009154 0.0
0.965844 -0.008689 0.0
0.972041 -0.008125 0.0
0.977951 -0.007493 0.0
0.983510 -0.006822 0.0
0.988674 -0.006140 0.0
0.993416 -0.005469 0.0
0.997722 -0.004830 0.0
1.001593 -0.004239 0.0
1.005039 -0.003707 0.0
1.008077 -0.003247 0.0
1.010727 -0.002870 0.0
1.013016 -0.002588 0.0
1.014968 -0.002420 0.0
1.016604 -0.002398 0.0
1.017927 -0.002588 0.0
1.018893 -0.003043 0.0
1.001430 -0.006167 0.0
1.007000 -0.019352 0.0
1.017920 -0.033923 0.0
1.034229 -0.049919 0.0
1.056246 -0.067020 0.0
1.084401 -0.084479 0.0
1.118945 -0.101000 0.0
1.159546 -0.114679 0.0
1.204912 -0.123369 0.0
1.252206 -0.124700 0.0
1.297837 -0.119007 0.0
1.339292 -0.108361 0.0
1.375575 -0.094923 0.0
1.406720 -0.080179 0.0
1.433189 -0.064806 0.0
1.455416 -0.048807 0.0
1.473526 -0.031764 0.0
1.487204 -0.013201 0.0
1.495829 0.007008 0.0
1.498739 0.028611 0.0
1.495420 0.050915 0.0
1.485685 0.072869 0.0
1.469799 0.093280 0.0
1.448432 0.111032 0.0
1.422537 0.125207 0.0
1.393217 0.135132 0.0
1.361624 0.140376 0.0
1.328891 0.140732 0.0
1.296093 0.136214 0.0
1.264225 0.127060 0.0
1.234200 0.113751 0.0
1.206840 0.097011 0.0
1.182878 0.077777 0.0
1.162962 0.057126 0.0
1.147678 0.036173 0.0
1.137603 0.015972 0.0
1.133368 -0.002483 0.0
1.135558 -0.018156 0.0
1.144359 -0.029710 0.0
1.159201 -0.035631 0.0
1.178644 -0.034667 0.0
1.200499 -0.026435 0.0
1.222075 -0.011925 0.0
1.240948 0.006949 0.0
1.255657 0.027847 0.0
1.265539 0.048538 0.0
1.270398 0.067111 0.0
1.270298 0.081974 0.0
1.265383 0.091905 0.0
1.255725 0.096212 0.0
1.241337 0.095009 0.0
1.222449 0.089342 0.0
1.199824 0.080715 0.0
1.174635 0.070258 0.0
1.147954 0.058610 0.0
1.120686 0.046599 0.0
1.093768 0.034870 0.0
1.067696 0.023443 0.0
1.042299 0.012685 0.0
1.017884 0.003356 0.0
0.995780 -0.004245 0.0
0.977303 -0.010095 0.0
0.962828 -0.014131 0.0
0.951933 -0.016465 0.0
0.943962 -0.017372 0.0
0.938263 -0.017187 0.0
0.934260 -0.016248 0.0
0.931474 -0.014864 0.0
0.929533 -0.013323 0.0
0.928191 -0.011874 0.0
0.927325 -0.010718 0.0
0.926917 -0.009987 0.0
0.927029 -0.009738 0.0
0.927764 -0.009962 0.0
0.929233 -0.010590 0.0
0.931529 -0.011511 0.0
0.934699 -0.012593 0.0
0.938742 -0.013698 0.0
0.943598 -0.014702 0.0
0.949165 -0.015505 0.0
0.955302 -0.016040 0.0
0.961854 -0.016274 0.0
0.968655 -0.016203 0.0
0.975549 -0.015847 0.0
0.982393 -0.015244 0.0
0.989066 -0.014441 0.0
0.995468 -0.013489 0.0
1.001523 -0.012440 0.0
1.007177 -0.011340 0.0
1.012395 -0.010229 0.0
1.017159 -0.009141 0.0
1.021464 -0.008104 0.0
1.025315 -0.007139 0.0
1.028725 -0.006263 0.0
1.031710 -0.005490 0.0
1.034286 -0.004833 0.0
1.036468 -0.004309 0.0
1.038260 -0.003937 0.0
1.039637 -0.003750 0.0
1.040529 -0.003738 0.0
1.001227 -0.008824 0.0
1.006158 -0.027195 0.0
1.016184 -0.047026 0.0
1.031765 -0.068706 0.0
1.053711 -0.092196 0.0
1.083077 -0.116824 0.0
1.120873 -0.140995 0.0
1.167398 -0.161810 0.0
1.221683 -0.175889 0.0
1.278803 -0.176593 0.0
1.331815 -0.165756 0.0
1.377164 -0.148416 0.0
1.414597 -0.128584 0.0
1.445397 -0.108464 0.0
1.471170 -0.088762 0.0
1.493195 -0.069103 0.0
1.512052 -0.048434 0.0
1.527393 -0.025551 0.0
1.537989 0.000137 0.0
1.542391 0.028169 0.0
1.539559 0.057509 0.0
1.529045 0.086523 0.0
1.511144 0.113413 0.0
1.486783 0.136626 0.0
1.457273 0.155018 0.0
1.424055 0.167858 0.0
1.388540 0.174758 0.0
1.352014 0.175608 0.0
1.315626 0.170526 0.0
1.280391 0.159850 0.0
1.247228 0.144149 0.0
1.216984 0.124217 0.0
1.190456 0.101060 0.0
1.168398 0.075817 0.0
1.151519 0.049645 0.0
1.140522 0.023573 0.0
1.136167 -0.001494 0.0
1.139158 -0.024327 0.0
1.149801 -0.042983 0.0
1.167696 -0.055095 0.0
1.191634 -0.058583 0.0
1.219623 -0.052363 0.0
1.248903 -0.036853 0.0
1.276126 -0.014220 0.0
1.298411 0.012021 0.0
1.314706 0.038186 0.0
1.325344 0.061966 0.0
1.330839 0.081725 0.0
1.331551 0.096358 0.0
1.327620 0.105348 0.0
1.319055 0.108826 0.0
1.305956 0.107513 0.0
1.288698 0.102427 0.0
1.267905 0.094527 0.0
1.244295 0.084631 0.0
1.218629 0.073513 0.0
1.191686 0.061817 0.0
1.164193 0.050061 0.0
1.136875 0.038782 0.0
1.110367 0.028181 0.0
1.084978 0.018422 0.0
1.060830 0.009864 0.0
1.038316 0.002899 0.0
1.018082 -0.002366 0.0
1.000579 -0.005999 0.0
0.985882 -0.008164 0.0
0.973728 -0.009114 0.0
0.963710 -0.009194 0.0
0.955446 -0.008788 0.0
0.948646 -0.008267 0.0
0.943134 -0.007947 0.0
0.938839 -0.008056 0.0
0.935773 -0.008715 0.0
0.933988 -0.009935 0.0
0.933540 -0.011638 0.0
0.934458 -0.013677 0.0
0.936722 -0.015863 0.0
0.940250 -0.018000 0.0
0.944905 -0.019911 0.0
0.950499 -0.021457 0.0
0.956822 -0.022549 0.0
0.963651 -0.023146 0.0
0.970770 -0.023253 0.0
0.977986 -0.022907 0.0
0.985130 -0.022172 0.0
0.992064 -0.021120 0.0
0.998682 -0.019831 0.0
1.004907 -0.018379 0.0
1.010687 -0.016835 0.0
1.015992 -0.015257 0.0
1.020810 -0.013695 0.0
1.025142 -0.012187 0.0
1.028997 -0.010762 0.0
1.032391 -0.009443 0.0
1.035343 -0.008246 0.0
1.037870 -0.007181 0.0
1.039985 -0.006259 0.0
1.041692 -0.005485 0.0
1.042975 -0.004863 0.0
1.043795 -0.004336 0.0
1.001024 -0.011075 0.0
1.005207 -0.034059 0.0
1.013946 -0.058928 0.0
1.028070 -0.086510 0.0
1.048971 -0.117237 0.0
1.078628 -0.150806 0.0
1.119416 -0.185596 0.0
1.173152 -0.217470 0.0
1.240936 -0.242298 0.0
1.312494 -0.238864 0.0
1.372739 -0.216742 0.0
1.418132 -0.188171 0.0
1.451475 -0.159604 0.0
1.476730 -0.133500 0.0
1.497360 -0.110128 0.0
1.515937 -0.088340 0.0
1.533890 -0.066006 0.0
1.551108 -0.040539 0.0
1.565552 -0.009914 0.0
1.574021 0.025347 0.0
1.573976 0.063209 0.0
1.564343 0.100970 0.0
1.545396 0.135815 0.0
1.518412 0.165568 0.0
1.485158 0.188840 0.0
1.447501 0.204911 0.0
1.407183 0.213538 0.0
1.365744 0.214793 0.0
1.324513 0.208960 0.0
1.284657 0.196506 0.0
1.247233 0.178080 0.0
1.213233 0.154530 0.0
1.183593 0.126914 0.0
1.159155 0.096460 0.0
1.140574 0.064463 0.0
1.128206 0.032120 0.0
1.122110 0.000409 0.0
1.122383 -0.029493 0.0
1.129305 -0.055381 0.0
1.143094 -0.074381 0.0
1.163844 -0.083985 0.0
1.191435 -0.082540 0.0
1.224914 -0.069435 0.0
1.261614 -0.045560 0.0
1.296700 -0.014011 0.0
1.324843 0.019780 0.0
1.344233 0.050345 0.0
1.356162 0.075923 0.0
1.361914 0.095695 0.0
1.362362 0.109494 0.0
1.357992 0.117616 0.0
1.349106 0.120708 0.0
1.336007 0.119589 0.0
1.319079 0.115087 0.0
1.298789 0.107970 0.0
1.275683 0.098946 0.0
1.250371 0.088639 0.0
1.223503 0.077599 0.0
1.195751 0.066314 0.0
1.167748 0.055159 0.0
1.140069 0.044512 0.0
1.113262 0.034730 0.0
1.087792 0.026017 0.0
1.063975 0.018567 0.0
1.042007 0.012539 0.0
1.022014 0.007988 0.0
1.004097 0.004805 0.0
0.988298 0.002705 0.0
0.974575 0.001299 0.0
0.962860 0.000161 0.0
0.953095 -0.001097 0.0
0.945254 -0.002770 0.0
0.939338 -0.005019 0.0
0.935365 -0.007873 0.0
0.933345 -0.011233 0.0
0.933251 -0.014906 0.0
0.934989 -0.018636 0.0
0.938391 -0.022158 0.0
0.943222 -0.025239 0.0
0.949202 -0.027704 0.0
0.956029 -0.029451 0.0
0.963407 -0.030450 0.0
0.971066 -0.030727 0.0
0.978770 -0.030353 0.0
0.986328 -0.029427 0.0
0.993590 -0.028061 0.0
1.000450 -0.026367 0.0
1.006834 -0.024452 0.0
1.012701 -0.022409 0.0
1.018032 -0.020319 0.0
1.022826 -0.018245 0.0
1.027096 -0.016237 0.0
1.030861 -0.014331 0.0
1.034145 -0.012553 0.0
1.036974 -0.010917 0.0
1.039369 -0.009433 0.0
1.041349 -0.008102 0.0
1.042922 -0.006921 0.0
1.044091 -0.005879 0.0
1.044838 -0.004887 0.0
1.000741 -0.012840 0.0
1.003814 -0.039550 0.0
1.010434 -0.068796 0.0
1.021683 -0.102015 0.0
1.039491 -0.140441 0.0
1.066959 -0.184729 0.0
1.108599 -0.234101 0.0
1.169475 -0.283579 0.0
1.257747 -0.332244 0.0
1.348283 -0.311012 0.0
1.408069 -0.264624 0.0
1.441184 -0.218797 0.0
1.458675 -0.179811 0.0
1.468404 -0.148277 0.0
1.475627 -0.123204 0.0
1.484161 -0.102376 0.0
1.496642 -0.082403 0.0
1.514130 -0.058848 0.0
1.534826 -0.026745 0.0
1.552571 0.015964 0.0
1.560909 0.064300 0.0
1.557264 0.113157 0.0
1.541823 0.158016 0.0
1.516319 0.195854 0.0
1.483050 0.225076 0.0
1.444284 0.245099 0.0
1.402021 0.255931 0.0
1.357972 0.257888 0.0
1.313623 0.251445 0.0
1.270305 0.237195 0.0
1.229263 0.215856 0.0
1.191695 0.188323 0.0
1.158720 0.155737 0.0
1.131254 0.119541 0.0
1.109726 0.081490 0.0
1.093623 0.043563 0.0
1.081179 0.007505 0.0
1.070568 -0.026252 0.0
1.061974 -0.056951 0.0
1.057521 -0.082146 0.0
1.060304 -0.099755 0.0
1.073707 -0.107765 0.0
1.100025 -0.104008 0.0
1.139246 -0.086908 0.0
1.188264 -0.056767 0.0
1.239942 -0.017285 0.0
1.284141 0.023820 0.0
1.315838 0.058822 0.0
1.336728 0.086153 0.0
1.348996 0.106319 0.0
1.354105 0.120052 0.0
1.353063 0.128201 0.0
1.346616 0.131641 0.0
1.335387 0.131191 0.0
1.319954 0.127589 0.0
1.300893 0.121494 0.0
1.278802 0.113493 0.0
1.254306 0.104109 0.0
1.228048 0.093815 0.0
1.200668 0.083041 0.0
1.172784 0.072193 0.0
1.144987 0.061653 0.0
1.117801 0.051750 0.0
1.091662 0.042789 0.0
1.066924 0.035022 0.0
1.043857 0.028565 0.0
1.022636 0.023366 0.0
1.003362 0.019217 0.0
0.986106 0.015766 0.0
0.970936 0.012580 0.0
0.957945 0.009241 0.0
0.947250 0.005428 0.0
0.938979 0.000969 0.0
0.933233 -0.004141 0.0
0.930042 -0.009755 0.0
0.929353 -0.015600 0.0
0.931004 -0.021329 0.0
0.934725 -0.026588 0.0
0.940165 -0.031080 0.0
0.946924 -0.034602 0.0
0.954600 -0.037056 0.0
0.962815 -0.038439 0.0
0.971242 -0.038823 0.0
0.979610 -0.038329 0.0
0.987709 -0.037108 0.0
0.995386 -0.035320 0.0
1.002539 -0.033121 0.0
1.009107 -0.030651 0.0
1.015064 -0.028034 0.0
1.020407 -0.025369 0.0
1.025152 -0.022735 0.0
1.029328 -0.020192 0.0
1.032966 -0.017780 0.0
1.036104 -0.015526 0.0
1.038775 -0.013444 0.0
1.041011 -0.011537 0.0
1.042835 -0.009802 0.0
1.044267 -0.008227 0.0
1.045317 -0.006793 0.0
1.045985 -0.005388 0.0
1.000338 -0.013920 0.0
1.001785 -0.042990 0.0
1.005112 -0.075303 0.0
1.011392 -0.113035 0.0
1.022754 -0.158591 0.0
1.043169 -0.214464 0.0
1.079736 -0.282573 0.0
1.143462 -0.359708 0.0
1.260520 -0.461443 0.0
1.367836 -0.379665 0.0
1.401067 -0.288988 0.0
1.397222 -0.223704 0.0
1.381494 -0.176668 0.0
1.363078 -0.142734 0.0
1.346526 -0.119419 0.0
1.335633 -0.103802 0.0
1.334021 -0.091847 0.0
1.345094 -0.077966 0.0
1.370532 -0.053761 0.0
1.405059 -0.009291 0.0
1.434397 0.051880 0.0
1.448578 0.115040 0.0
1.447617 0.172536 0.0
1.434039 0.220417 0.0
1.410662 0.257158 0.0
1.379914 0.282531 0.0
1.343791 0.296886 0.0
1.303990 0.300783 0.0
1.262038 0.294851 0.0
1.219390 0.279756 0.0
1.177483 0.256245 0.0
1.137724 0.225261 0.0
1.101365 0.188133 0.0
1.069161 0.146815 0.0
1.040869 0.104038 0.0
1.014794 0.063193 0.0
0.987740 0.027373 0.0
0.955657 -0.003426 0.0
0.918104 -0.033629 0.0
0.882610 -0.065520 0.0
0.859839 -0.096392 0.0
0.856557 -0.121248 0.0
0.874480 -0.134766 0.0
0.912119 -0.133009 0.0
0.966621 -0.114185 0.0
1.034186 -0.079109 0.0
1.108211 -0.032579 0.0
1.176220 0.015515 0.0
1.228512 0.056279 0.0
1.265450 0.086986 0.0
1.290328 0.109397 0.0
1.305318 0.124908 0.0
1.311996 0.134703 0.0
1.311584 0.139769 0.0
1.305099 0.140929 0.0
1.293439 0.138876 0.0
1.277430 0.134211 0.0
1.257855 0.127461 0.0
1.235464 0.119111 0.0
1.210977 0.109612 0.0
1.185080 0.099402 0.0
1.158417 0.088905 0.0
1.131570 0.078531 0.0
1.105050 0.068668 0.0
1.079285 0.059646 0.0
1.054624 0.051668 0.0
1.031344 0.044764 0.0
1.009674 0.038763 0.0
0.989839 0.033312 0.0
0.972083 0.027958 0.0
0.956682 0.022255 0.0
0.943922 0.015870 0.0
0.934058 0.008662 0.0
0.927273 0.000699 0.0
0.923635 -0.007767 0.0
0.923070 -0.016334 0.0
0.925329 -0.024505 0.0
0.930006 -0.031810 0.0
0.936595 -0.037887 0.0
0.944566 -0.042524 0.0
0.953413 -0.045655 0.0
0.962690 -0.047333 0.0
0.972030 -0.047696 0.0
0.981146 -0.046939 0.0
0.989825 -0.045277 0.0
0.997925 -0.042928 0.0
1.005358 -0.040098 0.0
1.012082 -0.036966 0.0
1.018090 -0.033684 0.0
1.023403 -0.030374 0.0
1.028054 -0.027127 0.0
1.032090 -0.024011 0.0
1.035559 -0.021069 0.0
1.038512 -0.018327 0.0
1.040992 -0.015794 0.0
1.043040 -0.013470 0.0
1.044689 -0.011343 0.0
1.045966 -0.009394 0.0
1.046889 -0.007600 0.0
1.047466 -0.005825 0.0
0.999815 -0.014073 0.0
0.999112 -0.043579 0.0
0.997915 -0.076843 0.0
0.996839 -0.116700 0.0
0.997392 -0.166840 0.0
1.003110 -0.232348 0.0
1.022230 -0.320377 0.0
1.073100 -0.436499 0.0
1.216230 -0.644840 0.0
1.312874 -0.400228 0.0
1.264004 -0.252785 0.0
1.191665 -0.183722 0.0
1.130075 -0.139331 0.0
1.077043 -0.108622 0.0
1.031078 -0.091014 0.0
0.994469 -0.084705 0.0
0.971710 -0.086572 0.0
0.969451 -0.092053 0.0
0.994465 -0.090127 0.0
1.048719 -0.061707 0.0
1.117140 0.006537 0.0
1.173470 0.089872 0.0
1.208048 0.164088 0.0
1.225480 0.225010 0.0
1.229366 0.272056 0.0
1.222067 0.305681 0.0
1.205342 0.326584 0.0
1.180765 0.335464 0.0
1.149898 0.332989 0.0
1.114333 0.319830 0.0
1.075652 0.296758 0.0
1.035222 0.264937 0.0
0.993489 0.226548 0.0
0.948621 0.185472 0.0
0.895810 0.146484 0.0
0.830533 0.112099 0.0
0.755735 0.080319 0.0
0.684791 0.046654 0.0
0.632511 0.006123 0.0
0.605766 -0.043033 0.0
0.603579 -0.093920 0.0
0.620848 -0.137707 0.0
0.652714 -0.168096 0.0
0.696754 -0.181358 0.0
0.752218 -0.175802 0.0
0.818727 -0.151567 0.0
0.895282 -0.110702 0.0
0.978944 -0.058034 0.0
1.060256 -0.003775 0.0
1.127161 0.043196 0.0
1.176623 0.078848 0.0
1.211954 0.105135 0.0
1.235762 0.123990 0.0
1.249878 0.136779 0.0
1.255742 0.144539 0.0
1.254576 0.148092 0.0
1.247459 0.148120 0.0
1.235375 0.145211 0.0
1.219230 0.139898 0.0
1.199864 0.132679 0.0
1.178053 0.124043 0.0
1.154508 0.114473 0.0
1.129865 0.104453 0.0
1.104682 0.094450 0.0
1.079438 0.084872 0.0
1.054550 0.075991 0.0
1.030393 0.067878 0.0
1.007350 0.060362 0.0
0.985841 0.053057 0.0
0.966347 0.045463 0.0
0.949388 0.037110 0.0
0.935473 0.027691 0.0
0.925025 0.017152 0.0
0.918310 0.005708 0.0
0.915388 -0.006217 0.0
0.916072 -0.018003 0.0
0.919921 -0.028944 0.0
0.926318 -0.038443 0.0
0.934582 -0.046107 0.0
0.944064 -0.051758 0.0
0.954199 -0.055403 0.0
0.964523 -0.057185 0.0
0.974674 -0.057335 0.0
0.984386 -0.056128 0.0
0.993475 -0.053856 0.0
1.001824 -0.050798 0.0
1.009372 -0.047209 0.0
1.016102 -0.043309 0.0
1.022031 -0.039278 0.0
1.027198 -0.035258 0.0
1.031657 -0.031353 0.0
1.035469 -0.027634 0.0
1.038699 -0.024146 0.0
1.041407 -0.020910 0.0
1.043648 -0.017932 0.0
1.045471 -0.015203 0.0
1.046917 -0.012705 0.0
1.048017 -0.010409 0.0
1.048797 -0.008289 0.0
1.049268 -0.006184 0.0
0.999226 -0.013115 0.0
0.996077 -0.040685 0.0
0.989579 -0.072042 0.0
0.979397 -0.110243 0.0
0.965232 -0.159685 0.0
0.947473 -0.227462 0.0
0.929458 -0.326368 0.0
0.925975 -0.477895 0.0
1.019466 -0.840066 0.0
1.013574 -0.195130 0.0
0.822755 -0.106942 0.0
0.675757 -0.099599 0.0
0.589042 -0.075149 0.0
0.520482 -0.051212 0.0
0.461912 -0.043888 0.0
0.424497 -0.057807 0.0
0.417957 -0.084171 0.0
0.443044 -0.117281 0.0
0.497161 -0.144031 0.0
0.576303 -0.141198 0.0
0.677049 -0.083139 0.0
0.780423 0.019844 0.0
0.862118 0.117843 0.0
0.920252 0.195688 0.0
0.960943 0.256800 0.0
0.986199 0.302980 0.0
0.997088 0.335121 0.0
0.994760 0.353831 0.0
0.980539 0.359709 0.0
0.955698 0.353517 0.0
0.920932 0.336518 0.0
0.875434 0.311106 0.0
0.816257 0.281288 0.0
0.740380 0.251478 0.0
0.650702 0.222967 0.0
0.560305 0.191291 0.0
0.487293 0.148936 0.0
0.444120 0.092154 0.0
0.432650 0.024371 0.0
0.445195 -0.047081 0.0
0.470575 -0.113064 0.0
0.501871 -0.167130 0.0
0.537252 -0.205921 0.0
0.577318 -0.227640 0.0
0.623664 -0.231330 0.0
0.677973 -0.216856 0.0
0.741260 -0.185254 0.0
0.813267 -0.139152 0.0
0.892131 -0.082833 0.0
0.971920 -0.024439 0.0
1.041782 0.027159 0.0
1.095750 0.067525 0.0
1.135654 0.097888 0.0
1.164004 0.120416 0.0
1.182530 0.136512 0.0
1.192617 0.147200 0.0
1.195458 0.153287 0.0
1.192131 0.155455 0.0
1.183617 0.154312 0.0
1.170818 0.150430 0.0
1.154556 0.144365 0.0
1.135571 0.136680 0.0
1.114522 0.127938 0.0
1.091983 0.118686 0.0
1.068469 0.109394 0.0
1.044461 0.100365 0.0
1.020467 0.091655 0.0
0.997066 0.083030 0.0
0.974945 0.074018 0.0
0.954887 0.064054 0.0
0.937705 0.052660 0.0
0.924136 0.039624 0.0
0.914728 0.025076 0.0
0.909745 0.009482 0.0
0.909114 -0.006438 0.0
0.912374 -0.021725 0.0
0.918760 -0.035457 0.0
0.927409 -0.046976 0.0
0.937512 -0.055941 0.0
0.948387 -0.062282 0.0
0.959498 -0.066125 0.0
0.970440 -0.067729 0.0
0.980921 -0.067424 0.0
0.990741 -0.065572 0.0
0.999772 -0.062532 0.0
1.007944 -0.058642 0.0
1.015233 -0.054201 0.0
1.021649 -0.049464 0.0
1.027231 -0.044634 0.0
1.032032 -0.039871 0.0
1.036120 -0.035287 0.0
1.039567 -0.030958 0.0
1.042443 -0.026927 0.0
1.044817 -0.023210 0.0
1.046750 -0.019806 0.0
1.048296 -0.016698 0.0
1.049498 -0.013858 0.0
1.050393 -0.011251 0.0
1.051008 -0.008843 0.0
1.051357 -0.006450 0.0
0.998679 -0.011021 0.0
0.993244 -0.034195 0.0
0.981724 -0.060515 0.0
0.962641 -0.092504 0.0
0.933234 -0.133852 0.0
0.888421 -0.190723 0.0
0.818220 -0.274892 0.0
0.703051 -0.410719 0.0
0.315499 -0.713805 0.0
-0.459313 0.250699 0.0
-0.459313 0.000000 0.0
-0.034788 -0.024457 0.0
-0.066321 -0.042376 0.0
-0.046060 -0.035686 0.0
-0.000197 -0.046707 0.0
0.052459 -0.070231 0.0
0.092864 -0.105613 0.0
0.126721 -0.154783 0.0
0.168406 -0.202331 0.0
0.227860 -0.221493 0.0
0.309314 -0.185044 0.0
0.412364 -0.084674 0.0
0.516812 0.036219 0.0
0.602987 0.133003 0.0
0.671740 0.210042 0.0
0.724034 0.272188 0.0
0.759057 0.320001 0.0
0.776690 0.353647 0.0
0.777150 0.373654 0.0
0.760342 0.381221 0.0
0.725329 0.378594 0.0
0.670777 0.369080 0.0
0.597814 0.355454 0.0
0.514469 0.336534 0.0
0.436401 0.305656 0.0
0.380144 0.255257 0.0
0.354237 0.183889 0.0
0.356768 0.097845 0.0
0.379351 0.007567 0.0
0.411592 -0.075064 0.0
0.445860 -0.144729 0.0
0.479073 -0.199974 0.0
0.510726 -0.240111 0.0
0.541989 -0.264779 0.0
0.575144 -0.273693 0.0
0.612975 -0.266633 0.0
0.657981 -0.243770 0.0
0.711583 -0.206245 0.0
0.773584 -0.156606 0.0
0.842040 -0.098911 0.0
0.912774 -0.038964 0.0
0.977439 0.015016 0.0
1.029495 0.058438 0.0
1.069112 0.091899 0.0
1.098226 0.117389 0.0
1.118249 0.136214 0.0
1.130348 0.149332 0.0
1.135558 0.157527 0.0
1.134823 0.161490 0.0
1.129004 0.161870 0.0
1.118888 0.159304 0.0
1.105178 0.154436 0.0
1.088500 0.147909 0.0
1.069422 0.140332 0.0
1.048488 0.132197 0.0
1.026284 0.123774 0.0
1.003506 0.115020 0.0
0.981008 0.105564 0.0
0.959808 0.094805 0.0
0.941013 0.082121 0.0
0.925683 0.067106 0.0
0.914671 0.049758 0.0
0.908482 0.030539 0.0
0.907187 0.010297 0.0
0.910369 -0.009803 0.0
0.917140 -0.028391 0.0
0.926411 -0.044448 0.0
0.937188 -0.057410 0.0
0.948674 -0.067097 0.0
0.960281 -0.073609 0.0
0.971596 -0.077223 0.0
0.982341 -0.078317 0.0
0.992342 -0.077317 0.0
1.001497 -0.074654 0.0
1.009758 -0.070743 0.0
1.017116 -0.065962 0.0
1.023589 -0.060644 0.0
1.029216 -0.055065 0.0
1.034053 -0.049450 0.0
1.038164 -0.043967 0.0
1.041619 -0.038735 0.0
1.044492 -0.033830 0.0
1.046854 -0.029293 0.0
1.048771 -0.025135 0.0
1.050302 -0.021346 0.0
1.051500 -0.017901 0.0
1.052408 -0.014764 0.0
1.053060 -0.011892 0.0
1.053485 -0.009242 0.0
1.053694 -0.006610 0.0
0.998295 -0.007995 0.0
0.991268 -0.024758 0.0
0.976288 -0.043452 0.0
0.951199 -0.065394 0.0
0.911857 -0.092215 0.0
0.850281 -0.125971 0.0
0.749836 -0.168997 0.0
0.571360 -0.222969 0.0
0.227832 -0.268001 0.0
0.000000 0.250699 0.0
-0.000000 -0.000000 0.0
0.000000 0.000000 0.0
-0.024177 -0.022816 0.0
-0.053123 -0.047923 0.0
-0.056984 -0.076472 0.0
-0.061923 -0.088183 0.0
-0.077304 -0.112684 0.0
-0.091862 -0.167012 0.0
-0.091351 -0.232298 0.0
-0.066194 -0.276138 0.0
-0.008371 -0.269676 0.0
0.084645 -0.196108 0.0
0.201076 -0.073228 0.0
0.312215 0.045136 0.0
0.401487 0.139885 0.0
0.471694 0.219844 0.0
0.522716 0.286299 0.0
0.553482 0.338949 0.0
0.563079 0.378294 0.0
0.550744 0.405722 0.0
0.516748 0.423101 0.0
0.464702 0.431170 0.0
0.404179 0.426851 0.0
0.350079 0.402581 0.0
0.316712 0.351043 0.0
0.310809 0.272030 0.0
0.329937 0.173894 0.0
0.366446 0.068801 0.0
0.410353 -0.029879 0.0
0.453430 -0.112937 0.0
0.492123 -0.179816 0.0
0.525193 -0.231169 0.0
0.552461 -0.267836 0.0
0.574883 -0.290737 0.0
0.594596 -0.300602 0.0
0.614752 -0.297711 0.0
0.638977 -0.281923 0.0
0.670445 -0.253162 0.0
0.710923 -0.212167 0.0
0.760205 -0.161089 0.0
0.816199 -0.103513 0.0
0.875255 -0.044157 0.0
0.930823 0.009987 0.0
0.977149 0.054406 0.0
1.013466 0.089451 0.0
1.040902 0.116692 0.0
1.060428 0.137229 0.0
1.072912 0.151937 0.0
1.079148 0.161580 0.0
1.079866 0.166880 0.0
1.075733 0.168544 0.0
1.067353 0.167285 0.0
1.055292 0.163799 0.0
1.040105 0.158707 0.0
1.022411 0.152449 0.0
1.002967 0.145169 0.0
0.982735 0.136635 0.0
0.962897 0.126284 0.0
0.944784 0.113397 0.0
0.929722 0.097385 0.0
0.918832 0.078062 0.0
0.912837 0.055808 0.0
0.911955 0.031562 0.0
0.915861 0.006662 0.0
0.923624 -0.017114 0.0
0.933938 -0.038165 0.0
0.945604 -0.055612 0.0
0.957712 -0.069130 0.0
0.969629 -0.078780 0.0
0.980953 -0.084858 0.0
0.991454 -0.087789 0.0
1.001015 -0.088058 0.0
1.009601 -0.086163 0.0
1.017222 -0.082585 0.0
1.023920 -0.077771 0.0
1.029752 -0.072123 0.0
1.034782 -0.065985 0.0
1.039077 -0.059647 0.0
1.042710 -0.053337 0.0
1.045748 -0.047229 0.0
1.048260 -0.041441 0.0
1.050312 -0.036049 0.0
1.051965 -0.031089 0.0
1.053275 -0.026566 0.0
1.054292 -0.022464 0.0
1.055059 -0.018749 0.0
1.055612 -0.015377 0.0
1.055979 -0.012298 0.0
1.056182 -0.009464 0.0
1.056233 -0.006648 0.0
0.998154 -0.004444 0.0
0.990557 -0.013686 0.0
0.974450 -0.023438 0.0
0.947779 -0.033648 0.0
0.906930 -0.043769 0.0
0.845953 -0.051864 0.0
0.755867 -0.052573 0.0
0.626011 -0.031063 0.0
0.459926 0.052802 0.0
0.185025 0.167201 0.0
0.000000 0.000000 0.0
-0.000000 -0.000000 0.0
0.000000 0.000000 0.0
-0.023215 -0.021577 0.0
-0.068166 -0.055644 0.0
-0.124605 -0.047633 0.0
-0.189901 -0.072555 0.0
-0.237794 -0.144690 0.0
-0.257268 -0.235656 0.0
-0.249577 -0.305628 0.0
-0.217986 -0.329599 0.0
-0.155680 -0.291507 0.0
-0.052770 -0.197170 0.0
0.068697 -0.063528 0.0
0.171905 0.056069 0.0
0.250641 0.154718 0.0
0.309979 0.241066 0.0
0.348677 0.314719 0.0
0.365903 0.375702 0.0
0.362390 0.424162 0.0
0.342053 0.458995 0.0
0.313476 0.475899 0.0
0.289162 0.466960 0.0
0.281156 0.424578 0.0
0.295620 0.347949 0.0
0.331183 0.245464 0.0
0.381843 0.130672 0.0
0.439530 0.017827 0.0
0.495176 -0.078457 0.0
0.543769 -0.156029 0.0
0.584572 -0.216220 0.0
0.617072 -0.260337 0.0
0.641131 -0.289996 0.0
0.657185 -0.307054 0.0
0.666524 -0.313337 0.0
0.671588 -0.310197 0.0
0.676025 -0.298099 0.0
0.684167 -0.276597 0.0
0.699922 -0.244964 0.0
0.725552 -0.203205 0.0
0.761009 -0.152847 0.0
0.804133 -0.097003 0.0
0.851314 -0.039917 0.0
0.896889 0.012409 0.0
0.936041 0.055980 0.0
0.967683 0.091084 0.0
0.992207 0.118788 0.0
1.010119 0.139982 0.0
1.021949 0.155469 0.0
1.028210 0.166013 0.0
1.029392 0.172362 0.0
1.025981 0.175257 0.0
1.018485 0.175384 0.0
1.007501 0.173293 0.0
0.993788 0.169271 0.0
0.978342 0.163238 0.0