# vtk DataFile Version 3.0
Vector Field
ASCII
DATASET RECTILINEAR_GRID
DIMENSIONS 100 26 1
X_COORDINATES 100 double
0.050000 0.150000 0.250000 0.350000 0.450000 0.550000 0.650000 0.750000 0.850000 0.950000 1.050000 1.150000 1.250000 1.350000 1.450000 1.550000 1.650000 1.750000 1.850000 1.950000 2.050000 2.150000 2.250000 2.350000 2.450000 2.550000 2.650000 2.750000 2.850000 2.950000 3.050000 3.150000 3.250000 3.350000 3.450000 3.550000 3.650000 3.750000 3.850000 3.950000 4.050000 4.150000 4.250000 4.350000 4.450000 4.550000 4.650000 4.750000 4.850000 4.950000 5.050000 5.150000 5.250000 5.350000 5.450000 5.550000 5.650000 5.750000 5.850000 5.950000 6.050000 6.150000 6.250000 6.350000 6.450000 6.550000 6.650000 6.750000 6.850000 6.950000 7.050000 7.150000 7.250000 7.350000 7.450000 7.550000 7.650000 7.750000 7.850000 7.950000 8.050000 8.150000 8.250000 8.350000 8.450000 8.550000 8.650000 8.750000 8.850000 8.950000 9.050000 9.150000 9.250000 9.350000 9.450000 9.550000 9.650000 9.750000 9.850000 9.950000 
Y_COORDINATES 26 double
0.050000 0.150000 0.250000 0.350000 0.450000 0.550000 0.650000 0.750000 0.850000 0.950000 1.050000 1.150000 1.250000 1.350000 1.450000 1.550000 1.650000 1.750000 1.850000 1.950000 2.050000 2.150000 2.250000 2.350000 2.450000 2.550000 
Z_COORDINATES 1 double
0.0
POINT_DATA 2600
VECTORS Vektorfeld double
0.997749 0.002251 0.0
0.993275 0.002224 0.0
0.990380 0.000671 0.0
0.991201 -0.001493 0.0
0.996545 -0.003852 0.0
1.006524 -0.006127 0.0
1.020703 -0.008052 0.0
1.038115 -0.009360 0.0
1.057298 -0.009823 0.0
1.076435 -0.009314 0.0
1.093625 -0.007876 0.0
1.107214 -0.005713 0.0
1.116046 -0.003119 0.0
1.119595 -0.000430 0.0
1.117990 0.002034 0.0
1.111749 0.004207 0.0
1.101558 0.005984 0.0
1.088288 0.007287 0.0
1.072931 0.008070 0.0
1.056532 0.008330 0.0
1.040087 0.008114 0.0
1.024453 0.007520 0.0
1.010235 0.006697 0.0
0.997690 0.005848 0.0
0.986623 0.005218 0.0
0.976341 0.005064 0.0
0.965676 0.005601 0.0
0.953135 0.006939 0.0
0.937148 0.009048 0.0
0.916332 0.011768 0.0
0.889709 0.014854 0.0
0.856828 0.018027 0.0
0.817786 0.021014 0.0
0.773200 0.023571 0.0
0.724133 0.025496 0.0
0.672011 0.026626 0.0
0.618549 0.026835 0.0
0.565676 0.026038 0.0
0.515446 0.024192 0.0
0.469992 0.021262 0.0
0.431663 0.017067 0.0
0.403428 0.011168 0.0
0.388722 0.003537 0.0
0.388455 -0.003270 0.0
0.398821 -0.007097 0.0
0.414742 -0.008824 0.0
0.432820 -0.009253 0.0
0.450974 -0.008902 0.0
0.467941 -0.008065 0.0
0.482907 -0.006900 0.0
0.495307 -0.005499 0.0
0.504762 -0.003956 0.0
0.511119 -0.002400 0.0
0.514458 -0.000938 0.0
0.514657 0.000739 0.0
0.510752 0.003166 0.0
0.501455 0.006131 0.0
0.486012 0.009312 0.0
0.464468 0.012232 0.0
0.438036 0.014199 0.0
0.409353 0.014484 0.0
0.382048 0.012822 0.0
0.359422 0.009804 0.0
0.342990 0.006628 0.0
0.332090 0.004271 0.0
0.324910 0.002909 0.0
0.319920 0.002082 0.0
0.316549 0.001289 0.0
0.314862 0.000398 0.0
0.314848 -0.000385 0.0
0.316196 -0.000963 0.0
0.318408 -0.001249 0.0
0.320973 -0.001317 0.0
0.323503 -0.001213 0.0
0.325672 -0.000956 0.0
0.327202 -0.000574 0.0
0.327835 -0.000059 0.0
0.327189 0.000705 0.0
0.324909 0.001574 0.0
0.321065 0.002271 0.0
0.316196 0.002598 0.0
0.311141 0.002458 0.0
0.306856 0.001827 0.0
0.304168 0.000862 0.0
0.303326 -0.000020 0.0
0.303782 -0.000437 0.0
0.304747 -0.000528 0.0
0.305765 -0.000490 0.0
0.306670 -0.000414 0.0
0.307411 -0.000327 0.0
0.307976 -0.000239 0.0
0.308388 -0.000173 0.0
0.308751 -0.000189 0.0
0.309273 -0.000333 0.0
0.310174 -0.000569 0.0
0.311623 -0.000880 0.0
0.313725 -0.001223 0.0
0.316396 -0.001448 0.0
0.319279 -0.001434 0.0
0.321763 -0.001050 0.0
1.003045 0.001456 0.0
1.011870 -0.001332 0.0
1.025589 -0.006596 0.0
1.043540 -0.012997 0.0
1.065603 -0.019755 0.0
1.091608 -0.026207 0.0
1.121102 -0.031644 0.0
1.153226 -0.035303 0.0
1.186654 -0.036492 0.0
1.219672 -0.034798 0.0
1.250454 -0.030364 0.0
1.277462 -0.023823 0.0
1.299668 -0.016048 0.0
1.316548 -0.007929 0.0
1.327925 -0.000238 0.0
1.334086 0.006560 0.0
1.335777 0.012130 0.0
1.333967 0.016222 0.0
1.329749 0.018709 0.0
1.324248 0.019591 0.0
1.318536 0.019010 0.0
1.313539 0.017256 0.0
1.309936 0.014781 0.0
1.308047 0.012200 0.0
1.307710 0.010269 0.0
1.308217 0.009789 0.0
1.308319 0.011439 0.0
1.306388 0.015572 0.0
1.300698 0.022093 0.0
1.289740 0.030497 0.0
1.272462 0.040025 0.0
1.248378 0.049823 0.0
1.217575 0.059064 0.0
1.180660 0.067022 0.0
1.138681 0.073093 0.0
1.093038 0.076795 0.0
1.045407 0.077757 0.0
0.997683 0.075714 0.0
0.951924 0.070505 0.0
0.910310 0.062015 0.0
0.874897 0.050056 0.0
0.846740 0.034572 0.0
0.824754 0.016825 0.0
0.807922 0.000542 0.0
0.797969 -0.011321 0.0
0.796116 -0.018668 0.0
0.801362 -0.022733 0.0
0.812377 -0.024591 0.0
0.828004 -0.024971 0.0
0.847311 -0.024267 0.0
0.869385 -0.022607 0.0
0.893046 -0.019965 0.0
0.916532 -0.016235 0.0
0.937341 -0.011251 0.0
0.952913 -0.004719 0.0
0.962060 0.003383 0.0
0.964624 0.012646 0.0
0.960533 0.022330 0.0
0.950084 0.031208 0.0
0.933942 0.037797 0.0
0.912756 0.040754 0.0
0.886896 0.039717 0.0
0.856659 0.035771 0.0
0.822931 0.030822 0.0
0.787686 0.026222 0.0
0.753846 0.021979 0.0
0.724600 0.017248 0.0
0.702610 0.011483 0.0
0.689346 0.005156 0.0
0.684657 -0.000441 0.0
0.686604 -0.004201 0.0
0.692688 -0.006306 0.0
0.701289 -0.007427 0.0
0.711399 -0.007743 0.0
0.722029 -0.007225 0.0
0.732110 -0.005916 0.0
0.740672 -0.003913 0.0
0.747315 -0.001436 0.0
0.752312 0.000998 0.0
0.756068 0.002935 0.0
0.758786 0.004084 0.0
0.760559 0.004254 0.0
0.761382 0.003492 0.0
0.761043 0.002224 0.0
0.759373 0.001130 0.0
0.756720 0.000610 0.0
0.753691 0.000491 0.0
0.750599 0.000565 0.0
0.747480 0.000745 0.0
0.744248 0.001004 0.0
0.740818 0.001295 0.0
0.737190 0.001509 0.0
0.733490 0.001467 0.0
0.729979 0.001000 0.0
0.727178 -0.000001 0.0
0.725763 -0.001480 0.0
0.726065 -0.003028 0.0
0.727988 -0.004237 0.0
0.731276 -0.004815 0.0
0.734338 -0.003215 0.0
1.001958 -0.003548 0.0
1.008966 -0.012162 0.0
1.021728 -0.022247 0.0
1.039688 -0.033257 0.0
1.062677 -0.044549 0.0
1.090563 -0.055304 0.0
1.122967 -0.064446 0.0
1.159013 -0.070671 0.0
1.197138 -0.072678 0.0
1.235045 -0.069536 0.0
1.270187 -0.061550 0.0
1.300558 -0.050015 0.0
1.325039 -0.036543 0.0
1.343318 -0.022593 0.0
1.355682 -0.009316 0.0
1.362770 0.002388 0.0
1.365438 0.011941 0.0
1.364705 0.018954 0.0
1.361667 0.023233 0.0
1.357460 0.024775 0.0
1.353212 0.023786 0.0
1.349983 0.020707 0.0
1.348678 0.016238 0.0
1.349941 0.011369 0.0
1.354001 0.007376 0.0
1.360486 0.005691 0.0
1.368309 0.007612 0.0
1.375766 0.013872 0.0
1.380899 0.024350 0.0
1.381947 0.038150 0.0
1.377644 0.053953 0.0
1.367310 0.070313 0.0
1.350822 0.085865 0.0
1.328523 0.099434 0.0
1.301122 0.110062 0.0
1.269597 0.116994 0.0
1.235131 0.119654 0.0
1.199044 0.117630 0.0
1.162714 0.110678 0.0
1.127435 0.098734 0.0
1.094143 0.082043 0.0
1.063201 0.061685 0.0
1.034766 0.040133 0.0
1.009005 0.019825 0.0
0.986254 0.002100 0.0
0.968035 -0.012018 0.0
0.955900 -0.022495 0.0
0.950171 -0.030115 0.0
0.950754 -0.035657 0.0
0.957402 -0.039536 0.0
0.969744 -0.041755 0.0
0.987242 -0.041976 0.0
1.009173 -0.039642 0.0
1.034633 -0.034113 0.0
1.062298 -0.025093 0.0
1.089911 -0.013004 0.0
1.114877 0.001503 0.0
1.135300 0.017141 0.0
1.150007 0.032139 0.0
1.158092 0.044923 0.0
1.158702 0.054204 0.0
1.151231 0.059599 0.0
1.135713 0.061644 0.0
1.113168 0.061221 0.0
1.085504 0.058733 0.0
1.054921 0.053891 0.0
1.023208 0.046295 0.0
0.991344 0.036288 0.0
0.959802 0.025156 0.0
0.929636 0.014414 0.0
0.903657 0.004976 0.0
0.885181 -0.003091 0.0
0.875217 -0.009279 0.0
0.872343 -0.013127 0.0
0.874704 -0.014833 0.0
0.881001 -0.014686 0.0
0.890224 -0.012928 0.0
0.901280 -0.010120 0.0
0.912893 -0.006929 0.0
0.923909 -0.003910 0.0
0.933641 -0.001521 0.0
0.941807 -0.000080 0.0
0.948377 0.000432 0.0
0.953625 0.000375 0.0
0.958126 0.000149 0.0
0.962496 -0.000127 0.0
0.967156 -0.000403 0.0
0.972309 -0.000603 0.0
0.977978 -0.000638 0.0
0.984047 -0.000450 0.0
0.990289 -0.000062 0.0
0.996374 0.000409 0.0
1.001859 0.000782 0.0
1.006185 0.000870 0.0
1.008595 0.000519 0.0
1.008236 -0.000225 0.0
1.004773 -0.001122 0.0
0.998816 -0.002108 0.0
0.991902 -0.003318 0.0
0.988041 -0.003912 0.0
1.001583 -0.007088 0.0
1.007714 -0.021760 0.0
1.019648 -0.037345 0.0
1.037285 -0.053756 0.0
1.060780 -0.070534 0.0
1.090352 -0.086775 0.0
1.125979 -0.101007 0.0
1.166969 -0.111147 0.0
1.211539 -0.114897 0.0
1.256265 -0.109949 0.0
1.297033 -0.097049 0.0
1.331008 -0.078863 0.0
1.357055 -0.058223 0.0
1.375242 -0.037379 0.0
1.386291 -0.017943 0.0
1.391247 -0.001028 0.0
1.391307 0.012630 0.0
1.387723 0.022583 0.0
1.381787 0.028579 0.0
1.374838 0.030584 0.0
1.368234 0.028829 0.0
1.363286 0.023841 0.0
1.361208 0.016487 0.0
1.363034 0.008031 0.0
1.369382 0.000307 0.0
1.379991 -0.004333 0.0
1.393435 -0.003631 0.0
1.407354 0.003739 0.0
1.419102 0.017602 0.0
1.426498 0.036455 0.0
1.428225 0.058224 0.0
1.423813 0.080788 0.0
1.413428 0.102263 0.0
1.397629 0.121132 0.0
1.377168 0.136226 0.0
1.352857 0.146664 0.0
1.325510 0.151797 0.0
1.295902 0.151183 0.0
1.264740 0.144617 0.0
1.232602 0.132212 0.0
1.199876 0.114583 0.0
1.166848 0.093116 0.0
1.134017 0.069969 0.0
1.102380 0.047387 0.0
1.073079 0.026591 0.0
1.046894 0.007895 0.0
1.024959 -0.008338 0.0
1.008587 -0.022171 0.0
0.998366 -0.033962 0.0
0.994421 -0.043934 0.0
0.996655 -0.051932 0.0
1.004877 -0.057520 0.0
1.018977 -0.060129 0.0
1.039044 -0.059153 0.0
1.065297 -0.053971 0.0
1.097659 -0.044102 0.0
1.134945 -0.029651 0.0
1.174216 -0.011399 0.0
1.211097 0.009092 0.0
1.241594 0.029388 0.0
1.263560 0.047163 0.0
1.276059 0.061612 0.0
1.278831 0.072378 0.0
1.272460 0.079403 0.0
1.258148 0.082529 0.0
1.237318 0.081507 0.0
1.211319 0.076392 0.0
1.181476 0.067898 0.0
1.149373 0.057191 0.0
1.116759 0.045160 0.0
1.084809 0.032159 0.0
1.053987 0.019025 0.0
1.025474 0.007082 0.0
1.001745 -0.002885 0.0
0.984723 -0.010415 0.0
0.974406 -0.015084 0.0
0.969636 -0.016982 0.0
0.969070 -0.016556 0.0
0.971356 -0.014391 0.0
0.975146 -0.011254 0.0
0.979236 -0.007999 0.0
0.982780 -0.005312 0.0
0.985479 -0.003605 0.0
0.987650 -0.003009 0.0
0.990149 -0.003467 0.0
0.994080 -0.004813 0.0
1.000502 -0.006798 0.0
1.010211 -0.009070 0.0
1.023584 -0.011213 0.0
1.040474 -0.012833 0.0
1.060191 -0.013638 0.0
1.081564 -0.013473 0.0
1.103067 -0.012326 0.0
1.123022 -0.010303 0.0
1.139895 -0.007592 0.0
1.152652 -0.004513 0.0
1.160941 -0.001662 0.0
1.165098 0.000231 0.0
1.165996 0.000359 0.0
1.166553 -0.004284 0.0
1.001397 -0.010068 0.0
1.006962 -0.030476 0.0
1.018152 -0.051753 0.0
1.035307 -0.074141 0.0
1.059095 -0.097431 0.0
1.090395 -0.120749 0.0
1.129973 -0.142240 0.0
1.177772 -0.158703 0.0
1.232238 -0.166378 0.0
1.287638 -0.158594 0.0
1.336332 -0.137867 0.0
1.374382 -0.110069 0.0
1.401301 -0.079983 0.0
1.418160 -0.050664 0.0
1.426470 -0.024016 0.0
1.427815 -0.001257 0.0
1.423700 0.016913 0.0
1.415568 0.030015 0.0
1.404928 0.037723 0.0
1.393371 0.039946 0.0
1.382533 0.036910 0.0
1.374046 0.029195 0.0
1.369496 0.017760 0.0
1.370424 0.004004 0.0
1.378043 -0.009633 0.0
1.392519 -0.019478 0.0
1.412249 -0.021659 0.0
1.433729 -0.013632 0.0
1.452552 0.004402 0.0
1.465302 0.029510 0.0
1.470469 0.058275 0.0
1.467978 0.087640 0.0
1.458600 0.115174 0.0
1.443482 0.139140 0.0
1.423790 0.158372 0.0
1.400523 0.172096 0.0
1.374442 0.179793 0.0
1.346085 0.181151 0.0
1.315804 0.176092 0.0
1.283814 0.164866 0.0
1.250277 0.148191 0.0
1.215461 0.127352 0.0
1.179949 0.104076 0.0
1.144752 0.080114 0.0
1.111161 0.056755 0.0
1.080417 0.034660 0.0
1.053337 0.013913 0.0
1.030523 -0.005236 0.0
1.012409 -0.022562 0.0
0.998955 -0.037936 0.0
0.989968 -0.051175 0.0
0.985560 -0.062091 0.0
0.986411 -0.070508 0.0
0.993830 -0.076260 0.0
1.009511 -0.078798 0.0
1.034910 -0.077036 0.0
1.070584 -0.069677 0.0
1.115702 -0.055762 0.0
1.167576 -0.035300 0.0
1.220811 -0.009952 0.0
1.267945 0.017403 0.0
1.303817 0.043001 0.0
1.327465 0.064568 0.0
1.339560 0.081488 0.0
1.341091 0.093225 0.0
1.333255 0.099476 0.0
1.317338 0.100339 0.0
1.294747 0.096385 0.0
1.267064 0.088491 0.0
1.235950 0.077588 0.0
1.203001 0.064630 0.0
1.169741 0.050636 0.0
1.137436 0.036289 0.0
1.106795 0.022278 0.0
1.078483 0.009757 0.0
1.053752 -0.000207 0.0
1.033698 -0.007035 0.0
1.018236 -0.010475 0.0
1.006254 -0.010775 0.0
0.996299 -0.008706 0.0
0.987062 -0.005400 0.0
0.977733 -0.002126 0.0
0.968276 -0.000032 0.0
0.959440 0.000082 0.0
0.952527 -0.002143 0.0
0.949092 -0.006634 0.0
0.950556 -0.012863 0.0
0.957846 -0.020005 0.0
0.971267 -0.027073 0.0
0.990538 -0.033134 0.0
1.014928 -0.037443 0.0
1.043383 -0.039495 0.0
1.074609 -0.039033 0.0
1.107104 -0.036046 0.0
1.139184 -0.030802 0.0
1.169042 -0.023916 0.0
1.194893 -0.016398 0.0
1.215325 -0.009623 0.0
1.229771 -0.005132 0.0
1.239039 -0.008618 0.0
1.001211 -0.012676 0.0
1.006095 -0.038317 0.0
1.016142 -0.065149 0.0
1.032086 -0.093844 0.0
1.055219 -0.124650 0.0
1.087414 -0.157026 0.0
1.130893 -0.189020 0.0
1.187214 -0.216042 0.0
1.256920 -0.233212 0.0
1.328692 -0.218932 0.0
1.386536 -0.184066 0.0
1.426586 -0.141970 0.0
1.451328 -0.099745 0.0
1.464046 -0.060480 0.0
1.467331 -0.025794 0.0
1.463181 0.003327 0.0
1.453140 0.026485 0.0
1.438630 0.043085 0.0
1.421285 0.052638 0.0
1.402935 0.054938 0.0
1.385523 0.050169 0.0
1.370984 0.038962 0.0
1.361158 0.022369 0.0
1.357860 0.001766 0.0
1.363154 -0.020309 0.0
1.378473 -0.038598 0.0
1.402996 -0.046792 0.0
1.433029 -0.040013 0.0
1.462268 -0.017279 0.0
1.483954 0.016755 0.0
1.494806 0.055010 0.0
1.495236 0.092965 0.0
1.486894 0.127568 0.0
1.471734 0.157024 0.0
1.451501 0.180413 0.0
1.427519 0.197304 0.0
1.400681 0.207504 0.0
1.371515 0.210963 0.0
1.340289 0.207788 0.0
1.307126 0.198323 0.0
1.272144 0.183253 0.0
1.235615 0.163636 0.0
1.198118 0.140801 0.0
1.160598 0.116107 0.0
1.124251 0.090700 0.0
1.090253 0.065458 0.0
1.059355 0.041092 0.0
1.031484 0.018268 0.0
1.005801 -0.002268 0.0
0.981270 -0.020245 0.0
0.957527 -0.036135 0.0
0.935688 -0.050885 0.0
0.918358 -0.065236 0.0
0.909014 -0.079609 0.0
0.910986 -0.093101 0.0
0.926327 -0.103473 0.0
0.955465 -0.108052 0.0
0.997521 -0.104560 0.0
1.050687 -0.091541 0.0
1.112320 -0.068579 0.0
1.178247 -0.037032 0.0
1.240823 -0.001012 0.0
1.291499 0.034256 0.0
1.327082 0.064122 0.0
1.348680 0.087463 0.0
1.357812 0.103942 0.0
1.355993 0.113610 0.0
1.344785 0.116913 0.0
1.325830 0.114601 0.0
1.300816 0.107605 0.0
1.271418 0.096960 0.0
1.239247 0.083736 0.0
1.205775 0.068965 0.0
1.172304 0.053714 0.0
1.139907 0.039030 0.0
1.109217 0.025942 0.0
1.080376 0.015711 0.0
1.053230 0.009387 0.0
1.027359 0.007215 0.0
1.002168 0.008450 0.0
0.977344 0.011504 0.0
0.953294 0.014349 0.0
0.931169 0.015076 0.0
0.912569 0.012409 0.0
0.899116 0.005898 0.0
0.892054 -0.004178 0.0
0.892140 -0.016869 0.0
0.899520 -0.030669 0.0
0.913705 -0.044015 0.0
0.933848 -0.055608 0.0
0.958989 -0.064500 0.0
0.988161 -0.070065 0.0
1.020416 -0.071942 0.0
1.054782 -0.069998 0.0
1.090213 -0.064362 0.0
1.125508 -0.055509 0.0
1.159243 -0.044391 0.0
1.189739 -0.032558 0.0
1.215149 -0.022052 0.0
1.232822 -0.018638 0.0
1.000939 -0.014825 0.0
1.004758 -0.044871 0.0
1.012789 -0.076673 0.0
1.026049 -0.111524 0.0
1.046435 -0.150488 0.0
1.077045 -0.193992 0.0
1.122419 -0.240908 0.0
1.187620 -0.285677 0.0
1.280769 -0.326432 0.0
1.375372 -0.292086 0.0
1.436999 -0.230382 0.0
1.469833 -0.168537 0.0
1.484831 -0.112918 0.0
1.488582 -0.063776 0.0
1.484184 -0.021384 0.0
1.472853 0.014397 0.0
1.455221 0.043087 0.0
1.432486 0.063729 0.0
1.406304 0.075521 0.0
1.378662 0.078047 0.0
1.351725 0.071410 0.0
1.327684 0.056301 0.0
1.308510 0.034030 0.0
1.295686 0.006227 0.0
1.291471 -0.025849 0.0
1.299083 -0.055989 0.0
1.320196 -0.075038 0.0
1.353544 -0.075148 0.0
1.394108 -0.051947 0.0
1.431972 -0.008127 0.0
1.457405 0.043607 0.0
1.468306 0.093037 0.0
1.467632 0.136514 0.0
1.458329 0.172541 0.0
1.442685 0.200773 0.0
1.422274 0.221337 0.0
1.398094 0.234489 0.0
1.370742 0.240497 0.0
1.340559 0.239663 0.0
1.307764 0.232405 0.0
1.272585 0.219332 0.0
1.235390 0.201280 0.0
1.196800 0.179244 0.0
1.157721 0.154264 0.0
1.119235 0.127376 0.0
1.082265 0.099751 0.0
1.047043 0.072920 0.0
1.012647 0.048707 0.0
0.977145 0.028479 0.0
0.938661 0.012021 0.0
0.897207 -0.003204 0.0
0.856280 -0.021050 0.0
0.822707 -0.044166 0.0
0.803086 -0.071713 0.0
0.800259 -0.100142 0.0
0.813581 -0.125096 0.0
0.840943 -0.142929 0.0
0.880261 -0.151057 0.0
0.929853 -0.147803 0.0
0.988193 -0.132289 0.0
1.053486 -0.104541 0.0
1.123214 -0.065807 0.0
1.192145 -0.020556 0.0
1.251325 0.024171 0.0
1.294990 0.062151 0.0
1.323460 0.091652 0.0
1.338430 0.112750 0.0
1.341574 0.125838 0.0
1.334590 0.131615 0.0
1.319190 0.131006 0.0
1.297062 0.125086 0.0
1.269824 0.115018 0.0
1.238973 0.102006 0.0
1.205807 0.087310 0.0
1.171341 0.072296 0.0
1.136211 0.058495 0.0
1.100683 0.047526 0.0
1.064774 0.040628 0.0
1.028495 0.038125 0.0
0.992211 0.039016 0.0
0.956904 0.041069 0.0
0.924190 0.041548 0.0
0.896053 0.038139 0.0
0.874377 0.029621 0.0
0.860494 0.016023 0.0
0.854907 -0.001655 0.0
0.857267 -0.021837 0.0
0.866655 -0.042468 0.0
0.881968 -0.061714 0.0
0.902147 -0.078230 0.0
0.926259 -0.091130 0.0
0.953515 -0.099864 0.0
0.983234 -0.104117 0.0
1.014789 -0.103746 0.0
1.047536 -0.098791 0.0
1.080715 -0.089553 0.0
1.113349 -0.076715 0.0
1.144109 -0.061491 0.0
1.171231 -0.045651 0.0
1.191218 -0.032699 0.0
1.000536 -0.016300 0.0
1.002730 -0.049410 0.0
1.007488 -0.084922 0.0
1.015851 -0.124898 0.0
1.029977 -0.171626 0.0
1.053964 -0.227451 0.0
1.095188 -0.294048 0.0
1.165115 -0.367665 0.0
1.291378 -0.463855 0.0
1.408620 -0.366508 0.0
1.449823 -0.258791 0.0
1.453741 -0.176879 0.0
1.446762 -0.112595 0.0
1.436569 -0.057657 0.0
1.423155 -0.009691 0.0
1.404542 0.032648 0.0
1.379486 0.067525 0.0
1.348341 0.093172 0.0
1.312363 0.108237 0.0
1.273386 0.111950 0.0
1.233594 0.104236 0.0
1.195299 0.085811 0.0
1.160721 0.058272 0.0
1.131512 0.024018 0.0
1.108109 -0.016023 0.0
1.094459 -0.059778 0.0
1.097945 -0.095848 0.0
1.123054 -0.112794 0.0
1.169308 -0.101119 0.0
1.229610 -0.057121 0.0
1.287374 0.009404 0.0
1.328284 0.075428 0.0
1.352091 0.130990 0.0
1.363538 0.175921 0.0
1.365574 0.211000 0.0
1.359981 0.237114 0.0
1.347885 0.254988 0.0
1.330064 0.265171 0.0
1.307119 0.268117 0.0
1.279577 0.264287 0.0
1.247974 0.254232 0.0
1.212929 0.238620 0.0
1.175208 0.218214 0.0
1.135711 0.193869 0.0
1.095248 0.166721 0.0
1.053947 0.138677 0.0
1.010462 0.112701 0.0
0.961988 0.091796 0.0
0.906424 0.076457 0.0
0.846024 0.062927 0.0
0.788676 0.044692 0.0
0.744027 0.016630 0.0
0.717804 -0.022050 0.0
0.710261 -0.066666 0.0
0.718197 -0.110298 0.0
0.737716 -0.147779 0.0
0.766160 -0.176052 0.0
0.802222 -0.193314 0.0
0.845420 -0.198336 0.0
0.895548 -0.190224 0.0
0.952209 -0.168560 0.0
1.014469 -0.133777 0.0
1.080580 -0.087627 0.0
1.146977 -0.034333 0.0
1.206014 0.017952 0.0
1.251211 0.062184 0.0
1.281918 0.096541 0.0
1.299478 0.121342 0.0
1.305363 0.137209 0.0
1.301129 0.145045 0.0
1.288347 0.145957 0.0
1.268540 0.141192 0.0
1.243116 0.132108 0.0
1.213292 0.120198 0.0
1.180025 0.107143 0.0
1.143980 0.094824 0.0
1.105609 0.085095 0.0
1.065356 0.079221 0.0
1.023954 0.077212 0.0
0.982703 0.077463 0.0
0.943521 0.077111 0.0
0.908686 0.073055 0.0
0.880350 0.063105 0.0
0.860043 0.046637 0.0
0.848399 0.024535 0.0
0.845163 -0.001345 0.0
0.849385 -0.028730 0.0
0.859768 -0.055347 0.0
0.875044 -0.079424 0.0
0.894121 -0.099776 0.0
0.916114 -0.115689 0.0
0.940326 -0.126772 0.0
0.966220 -0.132821 0.0
0.993363 -0.133740 0.0
1.021348 -0.129528 0.0
1.049690 -0.120338 0.0
1.077709 -0.106582 0.0
1.104387 -0.089061 0.0
1.128251 -0.069066 0.0
1.146437 -0.047457 0.0
0.999996 -0.016832 0.0
0.999982 -0.051059 0.0
1.000111 -0.088160 0.0
1.000998 -0.130910 0.0
1.004223 -0.182965 0.0
1.013533 -0.249409 0.0
1.037643 -0.337423 0.0
1.095865 -0.452438 0.0
1.252352 -0.661831 0.0
1.364154 -0.397577 0.0
1.328117 -0.232889 0.0
1.271235 -0.149816 0.0
1.231836 -0.093280 0.0
1.208556 -0.043498 0.0
1.190966 0.007154 0.0
1.169663 0.055718 0.0
1.141500 0.097673 0.0
1.105636 0.130033 0.0
1.062222 0.150768 0.0
1.011891 0.158726 0.0
0.955446 0.153697 0.0
0.893845 0.136246 0.0
0.829289 0.106970 0.0
0.767350 0.066469 0.0
0.717128 0.015151 0.0
0.688339 -0.048513 0.0
0.689934 -0.112193 0.0
0.724443 -0.156067 0.0
0.786647 -0.166304 0.0
0.870212 -0.135802 0.0
0.967461 -0.066927 0.0
1.059497 0.018814 0.0
1.129335 0.093959 0.0
1.178162 0.152677 0.0
1.211720 0.198650 0.0
1.232733 0.234043 0.0
1.242774 0.260114 0.0
1.243004 0.277636 0.0
1.234441 0.287160 0.0
1.218050 0.289177 0.0
1.194772 0.284223 0.0
1.165535 0.272911 0.0
1.131209 0.255971 0.0
1.092380 0.234438 0.0
1.048821 0.210174 0.0
0.998938 0.186408 0.0
0.940391 0.167001 0.0
0.872939 0.153420 0.0
0.801798 0.141538 0.0
0.737347 0.122698 0.0
0.689985 0.089631 0.0
0.664674 0.041651 0.0
0.659649 -0.015822 0.0
0.668931 -0.074633 0.0
0.686708 -0.128044 0.0
0.709704 -0.172548 0.0
0.736565 -0.206588 0.0
0.767082 -0.229356 0.0
0.801719 -0.240129 0.0
0.841222 -0.238062 0.0
0.886215 -0.222376 0.0
0.936823 -0.192829 0.0
0.992408 -0.150271 0.0
1.051411 -0.097089 0.0
1.110860 -0.037779 0.0
1.164343 0.019236 0.0
1.206119 0.067005 0.0
1.235206 0.104231 0.0
1.252385 0.131257 0.0
1.258761 0.148856 0.0
1.255589 0.158100 0.0
1.244155 0.160289 0.0
1.225681 0.156909 0.0
1.201246 0.149655 0.0
1.171742 0.140457 0.0
1.137891 0.131404 0.0
1.100394 0.124383 0.0
1.060167 0.120415 0.0
1.018602 0.118985 0.0
0.977681 0.117863 0.0
0.939799 0.113776 0.0
0.907329 0.103696 0.0
0.882105 0.086025 0.0
0.865088 0.061040 0.0
0.856339 0.030525 0.0
0.855222 -0.002982 0.0
0.860640 -0.036732 0.0
0.871296 -0.068384 0.0
0.885941 -0.096307 0.0
0.903480 -0.119510 0.0
0.923019 -0.137486 0.0
0.943878 -0.150045 0.0
0.965586 -0.157150 0.0
0.987837 -0.158806 0.0
1.010407 -0.155018 0.0
1.033042 -0.145826 0.0
1.055326 -0.131397 0.0
1.076547 -0.112146 0.0
1.095595 -0.088894 0.0
1.110447 -0.060668 0.0
0.999372 -0.016200 0.0
0.996781 -0.049085 0.0
0.991367 -0.084849 0.0
0.982800 -0.126542 0.0
0.970859 -0.178616 0.0
0.956128 -0.248338 0.0
0.942370 -0.348846 0.0
0.945252 -0.502120 0.0
1.050475 -0.873858 0.0
1.058209 -0.196919 0.0
0.880062 -0.100295 0.0
0.748460 -0.083024 0.0
0.688302 -0.060515 0.0
0.667202 -0.031883 0.0
0.662912 0.017419 0.0
0.658199 0.071469 0.0
0.645493 0.122792 0.0
0.619451 0.166821 0.0
0.576813 0.200033 0.0
0.516690 0.219914 0.0
0.441272 0.224372 0.0
0.357915 0.210531 0.0
0.280954 0.174201 0.0
0.228230 0.113902 0.0
0.213435 0.032735 0.0
0.238083 -0.061955 0.0
0.289843 -0.152107 0.0
0.356710 -0.217530 0.0
0.435850 -0.246184 0.0
0.528033 -0.231671 0.0
0.633939 -0.174213 0.0
0.751289 -0.083285 0.0
0.863306 0.014204 0.0
0.952063 0.094848 0.0
1.018155 0.156830 0.0
1.067241 0.205765 0.0
1.101609 0.243983 0.0
1.122621 0.272525 0.0
1.131456 0.291999 0.0
1.129270 0.302916 0.0
1.117189 0.305843 0.0
1.096230 0.301487 0.0
1.067094 0.290857 0.0
1.029778 0.275696 0.0
0.983247 0.259005 0.0
0.926114 0.244594 0.0
0.859136 0.234341 0.0
0.788150 0.224517 0.0
0.723803 0.205930 0.0
0.676631 0.169930 0.0
0.651515 0.114876 0.0
0.646569 0.046663 0.0
0.656079 -0.025319 0.0
0.673933 -0.092272 0.0
0.695740 -0.149989 0.0
0.719114 -0.196975 0.0
0.743029 -0.232938 0.0
0.767448 -0.257941 0.0
0.793115 -0.271848 0.0
0.821320 -0.274052 0.0
0.853506 -0.263565 0.0
0.890768 -0.239511 0.0
0.933438 -0.201844 0.0
0.980878 -0.151958 0.0
1.031480 -0.092961 0.0
1.082334 -0.029918 0.0
1.127902 0.028814 0.0
1.163686 0.077551 0.0
1.188858 0.115586 0.0
1.203716 0.143294 0.0
1.208978 0.161572 0.0
1.205548 0.171682 0.0
1.194363 0.175175 0.0
1.176308 0.173879 0.0
1.152180 0.169866 0.0
1.122761 0.165265 0.0
1.088993 0.161788 0.0
1.052199 0.160030 0.0
1.014241 0.158891 0.0
0.977445 0.155674 0.0
0.944256 0.147036 0.0
0.916755 0.130407 0.0
0.896276 0.105017 0.0
0.883300 0.072042 0.0
0.877599 0.033973 0.0
0.878480 -0.006194 0.0
0.884923 -0.045380 0.0
0.895725 -0.081193 0.0
0.909677 -0.112094 0.0
0.925670 -0.137256 0.0
0.942780 -0.156388 0.0
0.960311 -0.169534 0.0
0.977824 -0.176882 0.0
0.995107 -0.178607 0.0
1.012103 -0.174783 0.0
1.028790 -0.165384 0.0
1.045039 -0.150372 0.0
1.060477 -0.129829 0.0
1.074394 -0.104176 0.0
1.085468 -0.071312 0.0
0.998773 -0.014345 0.0
0.993703 -0.043279 0.0
0.982899 -0.074438 0.0
0.964887 -0.110374 0.0
0.936943 -0.154898 0.0
0.894077 -0.214459 0.0
0.826514 -0.301404 0.0
0.715270 -0.441201 0.0
0.322808 -0.755704 0.0
-0.484656 0.269177 0.0
-0.484656 0.000000 0.0
-0.029767 -0.020408 0.0
-0.040358 -0.061742 0.0
0.017574 -0.067489 0.0
0.103801 -0.028912 0.0
0.171702 0.054612 0.0
0.194463 0.129595 0.0
0.185076 0.195446 0.0
0.150399 0.248723 0.0
0.097604 0.284141 0.0
0.037387 0.295779 0.0
-0.016663 0.276530 0.0
-0.052195 0.220694 0.0
-0.061299 0.129238 0.0
-0.040869 0.011763 0.0
0.003275 -0.109776 0.0
0.061161 -0.213931 0.0
0.126746 -0.288157 0.0
0.199387 -0.327337 0.0
0.282430 -0.325745 0.0
0.378753 -0.282368 0.0
0.489025 -0.202752 0.0
0.610206 -0.099528 0.0
0.726944 0.003084 0.0
0.821954 0.087490 0.0
0.894403 0.153570 0.0
0.949340 0.206872 0.0
0.988709 0.249254 0.0
1.013700 0.281445 0.0
1.025382 0.303974 0.0
1.024757 0.317490 0.0
1.012602 0.322953 0.0
0.989198 0.321932 0.0
0.954129 0.317007 0.0
0.906820 0.311533 0.0
0.848461 0.307558 0.0
0.784510 0.302307 0.0
0.724927 0.287120 0.0
0.680262 0.252338 0.0
0.656299 0.194657 0.0
0.652197 0.119367 0.0
0.663042 0.036273 0.0
0.682845 -0.044242 0.0
0.706605 -0.114963 0.0
0.731169 -0.173670 0.0
0.754663 -0.220161 0.0
0.776095 -0.255099 0.0
0.795287 -0.279391 0.0
0.812902 -0.293680 0.0
0.830401 -0.297924 0.0
0.849785 -0.291262 0.0
0.873074 -0.272366 0.0
0.901669 -0.240254 0.0
0.935895 -0.195212 0.0
0.974908 -0.139323 0.0
1.016904 -0.076405 0.0
1.058772 -0.012135 0.0
1.095886 0.045602 0.0
1.125000 0.093249 0.0
1.145371 0.130402 0.0
1.157012 0.157560 0.0
1.160325 0.175811 0.0
1.155884 0.186671 0.0
1.144322 0.192000 0.0
1.126321 0.193875 0.0
1.102699 0.194296 0.0
1.074588 0.194636 0.0
1.043596 0.194968 0.0
1.011821 0.193687 0.0
0.981615 0.187880 0.0
0.955164 0.174469 0.0
0.934077 0.151562 0.0
0.919196 0.119222 0.0
0.910693 0.079317 0.0
0.908278 0.034812 0.0
0.911341 -0.010977 0.0
0.918969 -0.054668 0.0
0.930036 -0.093775 0.0
0.943368 -0.126796 0.0
0.957863 -0.153042 0.0
0.972584 -0.172432 0.0
0.986835 -0.185272 0.0
1.000201 -0.192023 0.0
1.012551 -0.193099 0.0
1.023981 -0.188717 0.0
1.034701 -0.178857 0.0
1.044886 -0.163333 0.0
1.054527 -0.141947 0.0
1.063329 -0.114778 0.0
1.070527 -0.078982 0.0
0.998328 -0.011446 0.0
0.991435 -0.034215 0.0
0.976730 -0.057994 0.0
0.952056 -0.084132 0.0
0.913242 -0.114382 0.0
0.852243 -0.151110 0.0
0.752229 -0.197176 0.0
0.572990 -0.254946 0.0
0.228195 -0.307296 0.0
0.000000 0.269177 0.0
-0.000000 -0.000000 0.0
0.000000 0.000000 0.0
-0.039556 -0.040459 0.0
-0.082220 -0.103136 0.0
-0.085174 -0.076538 0.0
-0.077562 0.026725 0.0
-0.071526 0.128686 0.0
-0.082548 0.216764 0.0
-0.107188 0.286723 0.0
-0.139029 0.330777 0.0
-0.169685 0.340018 0.0
-0.190002 0.306659 0.0
-0.192061 0.228156 0.0
-0.170301 0.109120 0.0
-0.126264 -0.032586 0.0
-0.072412 -0.163424 0.0
-0.017975 -0.272605 0.0
0.036118 -0.349161 0.0
0.091406 -0.394262 0.0
0.153290 -0.403748 0.0
0.227681 -0.375079 0.0
0.317740 -0.310371 0.0
0.422298 -0.217648 0.0
0.536028 -0.109263 0.0
0.645276 -0.004420 0.0
0.735490 0.082818 0.0
0.805092 0.153086 0.0
0.857921 0.210841 0.0
0.895403 0.257385 0.0
0.918388 0.293366 0.0
0.927514 0.319597 0.0
0.923118 0.337397 0.0
0.905150 0.348861 0.0
0.873571 0.356726 0.0
0.829732 0.362962 0.0
0.778355 0.365865 0.0
0.728181 0.358125 0.0
0.689309 0.329756 0.0
0.668448 0.275227 0.0
0.666310 0.197869 0.0
0.679184 0.107384 0.0
0.701978 0.014616 0.0
0.729535 -0.069946 0.0
0.757848 -0.141330 0.0
0.784575 -0.198595 0.0
0.808174 -0.242329 0.0
0.827689 -0.273879 0.0
0.842776 -0.294890 0.0
0.853822 -0.306843 0.0
0.862098 -0.310536 0.0
0.869737 -0.305674 0.0
0.879386 -0.290893 0.0
0.893502 -0.264439 0.0
0.913585 -0.225335 0.0
0.939753 -0.174382 0.0
0.970839 -0.114428 0.0
1.004784 -0.049925 0.0
1.038196 0.012866 0.0
1.067350 0.067717 0.0
1.090133 0.112780 0.0
1.105782 0.147892 0.0
1.114140 0.173807 0.0
1.115372 0.191883 0.0
1.109837 0.203884 0.0
1.098082 0.211747 0.0
1.080938 0.217190 0.0
1.059658 0.221133 0.0
1.035983 0.223137 0.0
1.012019 0.221257 0.0
0.989903 0.212632 0.0
0.971391 0.194680 0.0
0.957579 0.166250 0.0
0.948910 0.128083 0.0
0.945365 0.082503 0.0
0.946672 0.032734 0.0
0.952301 -0.017592 0.0
0.961381 -0.064761 0.0
0.972820 -0.106187 0.0
0.985497 -0.140393 0.0
0.998368 -0.166811 0.0
1.010550 -0.185566 0.0
1.021393 -0.197232 0.0
1.030536 -0.202573 0.0
1.037930 -0.202293 0.0
1.043807 -0.196830 0.0
1.048594 -0.186251 0.0
1.052763 -0.170294 0.0
1.056671 -0.148535 0.0
1.060432 -0.120754 0.0
1.063756 -0.083528 0.0
0.998123 -0.007897 0.0
0.990425 -0.023173 0.0
0.974149 -0.038054 0.0
0.947247 -0.052496 0.0
0.906025 -0.065982 0.0
0.844394 -0.076879 0.0
0.752970 -0.079968 0.0
0.620558 -0.060502 0.0
0.447557 0.021626 0.0
0.176200 0.157887 0.0
0.000000 0.000000 0.0
-0.000000 -0.000000 0.0
0.000000 0.000000 0.0
-0.048516 -0.050014 0.0
-0.109477 -0.064247 0.0
-0.135532 0.032876 0.0
-0.157617 0.138585 0.0
-0.173015 0.233285 0.0
-0.186528 0.308353 0.0
-0.198279 0.352738 0.0
-0.204003 0.354437 0.0
-0.196871 0.305424 0.0
-0.170199 0.204777 0.0
-0.118644 0.059185 0.0
-0.053643 -0.091690 0.0
0.005460 -0.217275 0.0
0.051853 -0.319584 0.0
0.087629 -0.392051 0.0
0.118141 -0.437172 0.0
0.149060 -0.453641 0.0
0.188411 -0.438929 0.0
0.243611 -0.391781 0.0
0.317676 -0.314860 0.0
0.407706 -0.215810 0.0
0.506395 -0.105810 0.0
0.600917 -0.000528 0.0
0.679522 0.088226 0.0
0.740527 0.161866 0.0
0.786083 0.223322 0.0
0.816891 0.273637 0.0
0.833205 0.313884 0.0
0.835066 0.345645 0.0
0.822669 0.370979 0.0
0.797325 0.391532 0.0
0.762902 0.406418 0.0
0.726621 0.410068 0.0
0.697521 0.393195 0.0
0.682719 0.348359 0.0
0.684436 0.275769 0.0
0.700468 0.183433 0.0
0.726840 0.082575 0.0
0.759021 -0.015548 0.0
0.792464 -0.100783 0.0
0.824005 -0.170346 0.0
0.851847 -0.224147 0.0
0.874799 -0.263327 0.0
0.892119 -0.289717 0.0
0.903481 -0.305501 0.0
0.909061 -0.312859 0.0
0.909751 -0.313485 0.0
0.907377 -0.307990 0.0
0.904675 -0.295525 0.0
0.904803 -0.274050 0.0
0.910440 -0.241444 0.0
0.922950 -0.196951 0.0
0.942075 -0.142070 0.0
0.966243 -0.080397 0.0
0.993008 -0.016839 0.0
1.019062 0.042215 0.0
1.041533 0.093029 0.0
1.058951 0.134575 0.0