# vtk DataFile Version 3.0
Vector Field
ASCII
DATASET RECTILINEAR_GRID
DIMENSIONS 100 26 1
X_COORDINATES 100 double
0.050000 0.150000 0.250000 0.350000 0.450000 0.550000 0.650000 0.750000 0.850000 0.950000 1.050000 1.150000 1.250000 1.350000 1.450000 1.550000 1.650000 1.750000 1.850000 1.950000 2.050000 2.150000 2.250000 2.350000 2.450000 2.550000 2.650000 2.750000 2.850000 2.950000 3.050000 3.150000 3.250000 3.350000 3.450000 3.550000 3.650000 3.750000 3.850000 3.950000 4.050000 4.150000 4.250000 4.350000 4.450000 4.550000 4.650000 4.750000 4.850000 4.950000 5.050000 5.150000 5.250000 5.350000 5.450000 5.550000 5.650000 5.750000 5.850000 5.950000 6.050000 6.150000 6.250000 6.350000 6.450000 6.550000 6.650000 6.750000 6.850000 6.950000 7.050000 7.150000 7.250000 7.350000 7.450000 7.550000 7.650000 7.750000 7.850000 7.950000 8.050000 8.150000 8.250000 8.350000 8.450000 8.550000 8.650000 8.750000 8.850000 8.950000 9.050000 9.150000 9.250000 9.350000 9.450000 9.550000 9.650000 9.750000 9.850000 9.950000 
Y_COORDINATES 26 double
0.050000 0.150000 0.250000 0.350000 0.450000 0.550000 0.650000 0.750000 0.850000 0.950000 1.050000 1.150000 1.250000 1.350000 1.450000 1.550000 1.650000 1.750000 1.850000 1.950000 2.050000 2.150000 2.250000 2.350000 2.450000 2.550000 
Z_COORDINATES 1 double
0.0
POINT_DATA 2600
VECTORS Vektorfeld double
0.997639 0.002361 0.0
0.992778 0.002500 0.0
0.989237 0.001041 0.0
0.989330 -0.001134 0.0
0.994092 -0.003628 0.0
1.003900 -0.006179 0.0
1.018614 -0.008536 0.0
1.037584 -0.010434 0.0
1.059651 -0.011633 0.0
1.083255 -0.011971 0.0
1.106655 -0.011429 0.0
1.128196 -0.010112 0.0
1.146498 -0.008190 0.0
1.160512 -0.005824 0.0
1.169492 -0.003155 0.0
1.173030 -0.000383 0.0
1.170990 0.002422 0.0
1.163195 0.005373 0.0
1.149367 0.008455 0.0
1.129310 0.011601 0.0
1.103010 0.014700 0.0
1.070696 0.017614 0.0
1.032885 0.020197 0.0
0.990378 0.022309 0.0
0.944238 0.023831 0.0
0.895744 0.024664 0.0
0.846338 0.024742 0.0
0.797566 0.024029 0.0
0.751012 0.022524 0.0
0.708224 0.020264 0.0
0.670632 0.017329 0.0
0.639463 0.013840 0.0
0.615679 0.009943 0.0
0.600048 0.005688 0.0
0.593402 0.000957 0.0
0.595737 -0.003292 0.0
0.605059 -0.006030 0.0
0.618264 -0.007176 0.0
0.632369 -0.006928 0.0
0.644872 -0.005575 0.0
0.653944 -0.003497 0.0
0.658483 -0.001043 0.0
0.657335 0.002191 0.0
0.648844 0.006300 0.0
0.631740 0.010804 0.0
0.605741 0.015196 0.0
0.571507 0.019038 0.0
0.530499 0.021970 0.0
0.484928 0.023601 0.0
0.438029 0.023298 0.0
0.394475 0.020257 0.0
0.359932 0.014286 0.0
0.338895 0.006752 0.0
0.331831 0.000312 0.0
0.334429 -0.002910 0.0
0.341425 -0.004087 0.0
0.350226 -0.004715 0.0
0.359986 -0.005046 0.0
0.369973 -0.004941 0.0
0.379379 -0.004464 0.0
0.387564 -0.003721 0.0
0.394116 -0.002831 0.0
0.398857 -0.001910 0.0
0.401814 -0.001047 0.0
0.403121 -0.000260 0.0
0.402686 0.000696 0.0
0.400043 0.001947 0.0
0.394779 0.003317 0.0
0.386886 0.004576 0.0
0.376746 0.005564 0.0
0.365051 0.006131 0.0
0.352767 0.006153 0.0
0.341018 0.005595 0.0
0.330838 0.004585 0.0
0.322842 0.003411 0.0
0.316994 0.002437 0.0
0.312619 0.001938 0.0
0.308704 0.001977 0.0
0.304352 0.002375 0.0
0.299172 0.002805 0.0
0.293408 0.002958 0.0
0.287777 0.002673 0.0
0.283114 0.001989 0.0
0.280030 0.001094 0.0
0.278712 0.000224 0.0
0.278883 -0.000395 0.0
0.280051 -0.000772 0.0
0.281840 -0.001016 0.0
0.284088 -0.001232 0.0
0.286764 -0.001443 0.0
0.289818 -0.001611 0.0
0.293138 -0.001709 0.0
0.296557 -0.001710 0.0
0.299863 -0.001596 0.0
0.302822 -0.001363 0.0
0.305209 -0.001024 0.0
0.306840 -0.000608 0.0
0.307634 -0.000186 0.0
0.307731 0.000089 0.0
0.306648 0.000993 0.0
1.002928 0.001794 0.0
1.011344 -0.000487 0.0
1.024377 -0.005466 0.0
1.041526 -0.011870 0.0
1.062849 -0.018977 0.0
1.088390 -0.026179 0.0
1.117951 -0.032811 0.0
1.150957 -0.038134 0.0
1.186394 -0.041436 0.0
1.222838 -0.042216 0.0
1.258690 -0.040436 0.0
1.292511 -0.036467 0.0
1.323223 -0.030849 0.0
1.350114 -0.024070 0.0
1.372710 -0.016485 0.0
1.390481 -0.008362 0.0
1.402723 0.000199 0.0
1.408856 0.009258 0.0
1.408497 0.018757 0.0
1.401386 0.028468 0.0
1.387468 0.038051 0.0
1.366955 0.047090 0.0
1.340352 0.055135 0.0
1.308468 0.061762 0.0
1.272385 0.066601 0.0
1.233412 0.069361 0.0
1.193023 0.069840 0.0
1.152796 0.067930 0.0
1.114343 0.063630 0.0
1.079236 0.057053 0.0
1.048923 0.048445 0.0
1.024644 0.038173 0.0
1.007344 0.026693 0.0
0.997495 0.014419 0.0
0.994565 0.001802 0.0
0.997451 -0.009358 0.0
1.005719 -0.017554 0.0
1.019267 -0.022405 0.0
1.037308 -0.023843 0.0
1.058029 -0.021885 0.0
1.078466 -0.016695 0.0
1.094710 -0.008628 0.0
1.103498 0.002136 0.0
1.103202 0.015142 0.0
1.093169 0.029098 0.0
1.073478 0.042591 0.0
1.044995 0.054358 0.0
1.009352 0.063301 0.0
0.968885 0.068309 0.0
0.926330 0.068043 0.0
0.884074 0.061322 0.0
0.843255 0.048584 0.0
0.803726 0.033021 0.0
0.765894 0.018939 0.0
0.733532 0.008228 0.0
0.711980 -0.000669 0.0
0.702940 -0.007893 0.0
0.703775 -0.012462 0.0
0.711038 -0.014775 0.0
0.722550 -0.015548 0.0
0.736907 -0.015179 0.0
0.752962 -0.013980 0.0
0.769610 -0.012150 0.0
0.785626 -0.009779 0.0
0.799628 -0.006837 0.0
0.810548 -0.003212 0.0
0.818188 0.000858 0.0
0.822949 0.004910 0.0
0.825285 0.008539 0.0
0.825669 0.011357 0.0
0.824630 0.013074 0.0
0.822554 0.013571 0.0
0.819480 0.012999 0.0
0.815022 0.011819 0.0
0.808498 0.010698 0.0
0.799234 0.010263 0.0
0.786892 0.010827 0.0
0.771676 0.012219 0.0
0.754363 0.013799 0.0
0.736208 0.014716 0.0
0.718734 0.014284 0.0
0.703454 0.012260 0.0
0.691555 0.008966 0.0
0.683626 0.005130 0.0
0.679584 0.001548 0.0
0.678832 -0.001138 0.0
0.680465 -0.002831 0.0
0.683688 -0.003970 0.0
0.688094 -0.004933 0.0
0.693480 -0.005803 0.0
0.699563 -0.006390 0.0
0.705936 -0.006623 0.0
0.712169 -0.006447 0.0
0.717834 -0.005830 0.0
0.722526 -0.004780 0.0
0.725890 -0.003358 0.0
0.727662 -0.001677 0.0
0.727647 0.000105 0.0
0.725567 0.001782 0.0
0.722666 0.003283 0.0
1.001831 -0.002966 0.0
1.008388 -0.010699 0.0
1.020372 -0.020270 0.0
1.037376 -0.031218 0.0
1.059418 -0.042993 0.0
1.086579 -0.054866 0.0
1.118746 -0.065852 0.0
1.155357 -0.074712 0.0
1.195220 -0.080158 0.0
1.236421 -0.081140 0.0
1.276727 -0.077671 0.0
1.314300 -0.070626 0.0
1.348010 -0.061113 0.0
1.377336 -0.050023 0.0
1.402084 -0.037876 0.0
1.422160 -0.024817 0.0
1.437399 -0.010827 0.0
1.447490 0.004060 0.0
1.452056 0.019748 0.0
1.450765 0.035879 0.0
1.443426 0.051896 0.0
1.430102 0.067083 0.0
1.411164 0.080684 0.0
1.387268 0.091993 0.0
1.359307 0.100413 0.0
1.328345 0.105483 0.0
1.295564 0.106889 0.0
1.262203 0.104470 0.0
1.229511 0.098235 0.0
1.198689 0.088378 0.0
1.170829 0.075293 0.0
1.146854 0.059579 0.0
1.127445 0.041996 0.0
1.112955 0.023455 0.0
1.103495 0.005157 0.0
1.099493 -0.011596 0.0
1.101806 -0.025897 0.0
1.111095 -0.036900 0.0
1.127312 -0.043606 0.0
1.149381 -0.044912 0.0
1.175163 -0.039887 0.0
1.201664 -0.028182 0.0
1.225308 -0.010743 0.0
1.243045 0.010581 0.0
1.253117 0.033620 0.0
1.254731 0.056146 0.0
1.247879 0.076138 0.0
1.233237 0.091806 0.0
1.211961 0.101547 0.0
1.185298 0.104022 0.0
1.154172 0.098725 0.0
1.119244 0.086929 0.0
1.081780 0.071668 0.0
1.044234 0.055669 0.0
1.008754 0.039339 0.0
0.975520 0.023005 0.0
0.944647 0.008347 0.0
0.918700 -0.003590 0.0
0.900518 -0.012728 0.0
0.890315 -0.018903 0.0
0.886656 -0.022522 0.0
0.888080 -0.024116 0.0
0.893365 -0.023948 0.0
0.901502 -0.022135 0.0
0.911756 -0.018738 0.0
0.923603 -0.014078 0.0
0.936483 -0.008796 0.0
0.949840 -0.003554 0.0
0.963422 0.001083 0.0
0.977214 0.004637 0.0
0.991163 0.006883 0.0
1.005039 0.007961 0.0
1.018331 0.008390 0.0
1.030285 0.008932 0.0
1.040068 0.010326 0.0
1.046977 0.012991 0.0
1.050569 0.016849 0.0
1.050615 0.021367 0.0
1.047017 0.025562 0.0
1.039777 0.028347 0.0
1.028907 0.028995 0.0
1.014407 0.027328 0.0
0.996405 0.023800 0.0
0.975390 0.019240 0.0
0.952462 0.014408 0.0
0.929569 0.009648 0.0
0.909472 0.004848 0.0
0.894781 -0.000181 0.0
0.886670 -0.005018 0.0
0.884451 -0.008884 0.0
0.886617 -0.011559 0.0
0.892029 -0.013239 0.0
0.899868 -0.013904 0.0
0.909310 -0.013480 0.0
0.919429 -0.011940 0.0
0.929215 -0.009349 0.0
0.937666 -0.005909 0.0
0.943956 -0.001939 0.0
0.947719 0.002143 0.0
0.948390 0.005152 0.0
1.001441 -0.006238 0.0
1.007059 -0.019602 0.0
1.018089 -0.034380 0.0
1.034576 -0.050601 0.0
1.056849 -0.067925 0.0
1.085339 -0.085585 0.0
1.120296 -0.102257 0.0
1.161375 -0.115998 0.0
1.207262 -0.124622 0.0
1.255073 -0.125688 0.0
1.301141 -0.119497 0.0
1.342878 -0.108110 0.0
1.379220 -0.093681 0.0
1.410122 -0.077681 0.0
1.435940 -0.060784 0.0
1.456983 -0.043028 0.0
1.473254 -0.024127 0.0
1.484397 -0.003873 0.0
1.489884 0.017628 0.0
1.489253 0.039921 0.0
1.482249 0.062197 0.0
1.468964 0.083391 0.0
1.449877 0.102402 0.0
1.425795 0.118253 0.0
1.397734 0.130175 0.0
1.366804 0.137613 0.0
1.334123 0.140221 0.0
1.300774 0.137848 0.0
1.267781 0.130542 0.0
1.236100 0.118574 0.0
1.206610 0.102447 0.0
1.180107 0.082902 0.0
1.157311 0.060879 0.0
1.138907 0.037466 0.0
1.125717 0.013795 0.0
1.118809 -0.009325 0.0
1.119339 -0.031011 0.0
1.128168 -0.049904 0.0
1.145432 -0.064084 0.0
1.170317 -0.071388 0.0
1.201069 -0.069946 0.0
1.235123 -0.058677 0.0
1.269174 -0.037942 0.0
1.299368 -0.010150 0.0
1.322625 0.021022 0.0
1.337746 0.052009 0.0
1.344723 0.080150 0.0
1.343943 0.103215 0.0
1.335949 0.119409 0.0
1.321232 0.127540 0.0
1.300165 0.127400 0.0
1.273260 0.120088 0.0
1.241590 0.107642 0.0
1.206810 0.092022 0.0
1.170624 0.074652 0.0
1.134599 0.056950 0.0
1.100087 0.039787 0.0
1.067585 0.023419 0.0
1.037304 0.008726 0.0
1.010656 -0.003506 0.0
0.989441 -0.013046 0.0
0.974111 -0.019687 0.0
0.963974 -0.023526 0.0
0.958092 -0.024810 0.0
0.955614 -0.023839 0.0
0.955923 -0.021133 0.0
0.958754 -0.017452 0.0
0.964228 -0.013728 0.0
0.972731 -0.010829 0.0
0.984750 -0.009261 0.0
1.000672 -0.009091 0.0
1.020596 -0.009865 0.0
1.044197 -0.010677 0.0
1.070657 -0.010414 0.0
1.098637 -0.008093 0.0
1.126346 -0.003207 0.0
1.151745 0.004056 0.0
1.173086 0.012774 0.0
1.189250 0.021589 0.0
1.199561 0.029249 0.0
1.203477 0.035048 0.0
1.200667 0.038585 0.0
1.191291 0.039922 0.0
1.176100 0.039323 0.0
1.156398 0.036956 0.0
1.133694 0.032697 0.0
1.109198 0.026392 0.0
1.083717 0.018447 0.0
1.058396 0.009785 0.0
1.035628 0.001301 0.0
1.018244 -0.006526 0.0
1.007493 -0.012932 0.0
1.002781 -0.017338 0.0
1.002922 -0.019630 0.0
1.006750 -0.019736 0.0
1.013089 -0.017677 0.0
1.020710 -0.013653 0.0
1.028310 -0.008084 0.0
1.034457 -0.001621 0.0
1.036521 0.006182 0.0
1.001238 -0.008917 0.0
1.006221 -0.027524 0.0
1.016364 -0.047631 0.0
1.032142 -0.069615 0.0
1.054372 -0.093414 0.0
1.084121 -0.118334 0.0
1.122401 -0.142744 0.0
1.169508 -0.163697 0.0
1.224473 -0.177775 0.0
1.282307 -0.178180 0.0
1.335959 -0.166723 0.0
1.381803 -0.148466 0.0
1.419552 -0.127416 0.0
1.450434 -0.105731 0.0
1.475938 -0.084057 0.0
1.497139 -0.061999 0.0
1.514337 -0.038626 0.0
1.526924 -0.013104 0.0
1.533767 0.014530 0.0
1.533792 0.043625 0.0
1.526341 0.072948 0.0
1.511391 0.100876 0.0
1.489577 0.125818 0.0
1.462006 0.146490 0.0
1.430014 0.161991 0.0
1.394974 0.171767 0.0
1.358183 0.175539 0.0
1.320813 0.173249 0.0
1.283912 0.165035 0.0
1.248432 0.151242 0.0
1.215265 0.132436 0.0
1.185274 0.109406 0.0
1.159311 0.083135 0.0
1.138216 0.054709 0.0
1.122840 0.025118 0.0
1.114050 -0.004949 0.0
1.112709 -0.034576 0.0
1.119490 -0.061948 0.0
1.134618 -0.084433 0.0
1.157881 -0.099187 0.0
1.188757 -0.103776 0.0
1.226250 -0.096393 0.0
1.268240 -0.076267 0.0
1.310779 -0.044558 0.0
1.348177 -0.005225 0.0
1.375903 0.035409 0.0
1.393165 0.072511 0.0
1.401131 0.103667 0.0
1.400887 0.127195 0.0
1.393212 0.142147 0.0
1.378622 0.148450 0.0
1.357625 0.146941 0.0
1.330992 0.139090 0.0
1.299824 0.126523 0.0
1.265402 0.110759 0.0
1.229075 0.093195 0.0
1.192159 0.074970 0.0
1.155871 0.057026 0.0
1.121264 0.040006 0.0
1.088935 0.024190 0.0
1.059175 0.010233 0.0
1.032630 -0.001091 0.0
1.009951 -0.009306 0.0
0.990981 -0.014179 0.0
0.974942 -0.015955 0.0
0.961088 -0.015472 0.0
0.949188 -0.014044 0.0
0.939744 -0.013165 0.0
0.933919 -0.014071 0.0
0.933199 -0.017318 0.0
0.938957 -0.022712 0.0
0.952100 -0.029310 0.0
0.972891 -0.035624 0.0
1.000975 -0.040010 0.0
1.035539 -0.041041 0.0
1.075359 -0.037787 0.0
1.118634 -0.030040 0.0
1.162625 -0.018461 0.0
1.203605 -0.004320 0.0
1.237751 0.010700 0.0
1.262754 0.024680 0.0
1.278192 0.036324 0.0
1.284480 0.045272 0.0
1.282382 0.051262 0.0
1.273001 0.054099 0.0
1.257609 0.053649 0.0
1.237535 0.050011 0.0
1.214218 0.043625 0.0
1.189169 0.034976 0.0
1.163577 0.024471 0.0
1.138265 0.013001 0.0
1.114636 0.001921 0.0
1.094855 -0.007699 0.0
1.080352 -0.014907 0.0
1.071082 -0.019017 0.0
1.066134 -0.019788 0.0
1.064272 -0.017301 0.0
1.064134 -0.011899 0.0
1.064284 -0.004103 0.0
1.062443 0.008443 0.0
1.001035 -0.011190 0.0
1.005273 -0.034471 0.0
1.014137 -0.059692 0.0
1.028471 -0.087666 0.0
1.049682 -0.118804 0.0
1.079765 -0.152776 0.0
1.121107 -0.187924 0.0
1.175537 -0.220054 0.0
1.244200 -0.245044 0.0
1.316717 -0.241262 0.0
1.377808 -0.218383 0.0
1.423927 -0.188769 0.0
1.457943 -0.158877 0.0
1.483855 -0.131064 0.0
1.505050 -0.105423 0.0
1.523848 -0.080633 0.0
1.541192 -0.054532 0.0
1.556277 -0.024870 0.0
1.566588 0.009142 0.0
1.569453 0.046121 0.0
1.563335 0.084021 0.0
1.547880 0.120208 0.0
1.523872 0.152307 0.0
1.492810 0.178633 0.0
1.456454 0.198196 0.0
1.416529 0.210527 0.0
1.374592 0.215507 0.0
1.332001 0.213241 0.0
1.289946 0.203998 0.0
1.249504 0.188201 0.0
1.211700 0.166448 0.0
1.177544 0.139540 0.0
1.148007 0.108501 0.0
1.123884 0.074562 0.0
1.105507 0.039019 0.0
1.092543 0.002905 0.0
1.084539 -0.033086 0.0
1.081619 -0.067299 0.0
1.084512 -0.097102 0.0
1.094538 -0.119806 0.0
1.113643 -0.133139 0.0
1.143749 -0.134629 0.0
1.185468 -0.121741 0.0
1.236889 -0.093044 0.0
1.292654 -0.049903 0.0
1.343415 0.001599 0.0
1.381117 0.051357 0.0
1.404618 0.093355 0.0
1.416199 0.126170 0.0
1.417741 0.149306 0.0
1.410628 0.162994 0.0
1.395932 0.168091 0.0
1.374634 0.165872 0.0
1.347758 0.157785 0.0
1.316406 0.145271 0.0
1.281738 0.129679 0.0
1.244941 0.112199 0.0
1.207188 0.093839 0.0
1.169577 0.075411 0.0
1.133058 0.057633 0.0
1.098357 0.041253 0.0
1.065744 0.027046 0.0
1.034932 0.016049 0.0
1.005304 0.009064 0.0
0.976213 0.005932 0.0
0.947433 0.005275 0.0
0.919733 0.004809 0.0
0.895025 0.002135 0.0
0.875869 -0.004389 0.0
0.864787 -0.015198 0.0
0.863526 -0.029328 0.0
0.872511 -0.044823 0.0
0.891052 -0.059442 0.0
0.917956 -0.071181 0.0
0.952003 -0.078482 0.0
0.992101 -0.080264 0.0
1.037202 -0.075939 0.0
1.086079 -0.065430 0.0
1.137020 -0.049272 0.0
1.187362 -0.028837 0.0
1.232982 -0.006406 0.0
1.269438 0.015514 0.0
1.294721 0.034511 0.0
1.309276 0.049567 0.0
1.314158 0.060294 0.0
1.310547 0.066456 0.0
1.299750 0.068075 0.0
1.283188 0.065440 0.0
1.262346 0.059051 0.0
1.238711 0.049622 0.0
1.213768 0.038104 0.0
1.188820 0.025395 0.0
1.164757 0.012670 0.0
1.142441 0.001544 0.0
1.122821 -0.006577 0.0
1.106297 -0.010757 0.0
1.092473 -0.010645 0.0
1.080530 -0.006474 0.0
1.069728 0.001124 0.0
1.060301 0.014485 0.0
1.000753 -0.012978 0.0
1.003881 -0.040049 0.0
1.010628 -0.069725 0.0
1.022092 -0.103431 0.0
1.040223 -0.142381 0.0
1.068142 -0.187202 0.0
1.110386 -0.237084 0.0
1.172044 -0.286983 0.0
1.261416 -0.336150 0.0
1.353111 -0.314370 0.0
1.413782 -0.267038 0.0
1.447704 -0.220155 0.0
1.466192 -0.179995 0.0
1.477313 -0.146980 0.0
1.486395 -0.119783 0.0
1.497100 -0.095776 0.0
1.511545 -0.071178 0.0
1.529612 -0.041378 0.0
1.547357 -0.002407 0.0
1.558504 0.043658 0.0
1.558837 0.092270 0.0
1.547377 0.138874 0.0
1.525172 0.179855 0.0
1.494239 0.213080 0.0
1.456776 0.237568 0.0
1.414802 0.253053 0.0
1.370063 0.259658 0.0
1.324051 0.257694 0.0
1.278081 0.247572 0.0
1.233364 0.229786 0.0
1.191078 0.204953 0.0
1.152388 0.173882 0.0
1.118365 0.137718 0.0
1.089663 0.098170 0.0
1.065807 0.057643 0.0
1.044481 0.018571 0.0
1.022227 -0.018495 0.0
0.998221 -0.054964 0.0
0.975893 -0.090001 0.0
0.960854 -0.121894 0.0
0.959106 -0.148407 0.0
0.974975 -0.165336 0.0
1.009818 -0.167595 0.0
1.062265 -0.151057 0.0
1.128707 -0.114097 0.0
1.202807 -0.059066 0.0
1.272535 0.004592 0.0
1.326174 0.062981 0.0
1.361703 0.109433 0.0
1.382207 0.143995 0.0
1.390178 0.167447 0.0
1.387561 0.180950 0.0
1.375973 0.185899 0.0
1.356837 0.183769 0.0
1.331472 0.176003 0.0
1.301142 0.163945 0.0
1.267068 0.148804 0.0
1.230422 0.131634 0.0
1.192283 0.113366 0.0
1.153555 0.094926 0.0
1.114789 0.077428 0.0
1.075979 0.062294 0.0
1.036536 0.051057 0.0
0.995689 0.044531 0.0
0.953335 0.041909 0.0
0.910908 0.040506 0.0
0.871504 0.036682 0.0
0.838994 0.027479 0.0
0.816620 0.011797 0.0
0.805921 -0.009604 0.0
0.806723 -0.034463 0.0
0.817730 -0.059681 0.0
0.837192 -0.082586 0.0
0.863518 -0.101269 0.0
0.895526 -0.114449 0.0
0.932406 -0.121274 0.0
0.973568 -0.121192 0.0
1.018442 -0.113928 0.0
1.066267 -0.099539 0.0
1.115888 -0.078533 0.0
1.165582 -0.052024 0.0
1.212577 -0.022319 0.0
1.252577 0.007062 0.0
1.282231 0.032806 0.0
1.301104 0.053300 0.0
1.310034 0.068129 0.0
1.310078 0.077155 0.0
1.302465 0.080536 0.0
1.288546 0.078716 0.0
1.269729 0.072410 0.0
1.247412 0.062577 0.0
1.222884 0.050398 0.0
1.197257 0.037357 0.0
1.171366 0.025064 0.0
1.145701 0.015188 0.0
1.120541 0.009162 0.0
1.096166 0.007635 0.0
1.073054 0.010301 0.0
1.052089 0.016115 0.0
1.035827 0.025183 0.0
1.000349 -0.014081 0.0
1.001848 -0.043573 0.0
1.005295 -0.076395 0.0
1.011781 -0.114711 0.0
1.023455 -0.160906 0.0
1.044312 -0.217453 0.0
1.081483 -0.286248 0.0
1.146017 -0.364012 0.0
1.264332 -0.466808 0.0
1.372738 -0.383814 0.0
1.406425 -0.291951 0.0
1.403059 -0.225797 0.0
1.388321 -0.178101 0.0
1.371796 -0.143472 0.0
1.358351 -0.118928 0.0
1.351939 -0.100923 0.0
1.356092 -0.084628 0.0
1.373471 -0.063374 0.0
1.402987 -0.027671 0.0
1.433165 0.027596 0.0
1.451460 0.089704 0.0
1.454835 0.149525 0.0
1.444671 0.201573 0.0
1.423597 0.243369 0.0
1.394139 0.274201 0.0
1.358368 0.294165 0.0
1.317977 0.303675 0.0
1.274432 0.303233 0.0
1.229080 0.293356 0.0
1.183211 0.274588 0.0
1.138080 0.247567 0.0
1.094863 0.213175 0.0
1.054439 0.172872 0.0
1.016849 0.129310 0.0
0.980370 0.086837 0.0
0.941142 0.049932 0.0
0.895047 0.018494 0.0
0.841875 -0.014776 0.0
0.791156 -0.057143 0.0
0.757800 -0.106358 0.0
0.749673 -0.154068 0.0
0.765866 -0.191738 0.0
0.802461 -0.212631 0.0
0.856029 -0.212037 0.0
0.923961 -0.187492 0.0
1.003537 -0.139346 0.0
1.090462 -0.071782 0.0
1.173536 0.002642 0.0
1.239664 0.068116 0.0
1.285915 0.118557 0.0
1.315467 0.155364 0.0
1.330895 0.180221 0.0
1.334292 0.194818 0.0
1.327474 0.200805 0.0
1.312069 0.199737 0.0
1.289569 0.193041 0.0
1.261348 0.182003 0.0
1.228655 0.167775 0.0
1.192555 0.151462 0.0
1.153806 0.134307 0.0
1.112685 0.117934 0.0
1.068932 0.104350 0.0
1.022096 0.095280 0.0
0.972372 0.090879 0.0
0.921531 0.088755 0.0
0.873158 0.084460 0.0
0.831737 0.073552 0.0
0.801071 0.053786 0.0
0.783077 0.025858 0.0
0.777574 -0.007464 0.0
0.782772 -0.042604 0.0
0.796310 -0.076086 0.0
0.816167 -0.105499 0.0
0.840893 -0.129408 0.0
0.869557 -0.146982 0.0
0.901635 -0.157698 0.0
0.936866 -0.161161 0.0
0.975089 -0.157055 0.0
1.016058 -0.145206 0.0
1.059293 -0.125723 0.0
1.103953 -0.099188 0.0
1.148711 -0.066908 0.0
1.191540 -0.031178 0.0
1.228941 0.003990 0.0
1.257566 0.034619 0.0
1.276455 0.058990 0.0
1.286037 0.076668 0.0
1.287090 0.087584 0.0
1.280628 0.092050 0.0
1.267788 0.090732 0.0
1.249729 0.084630 0.0
1.227529 0.075072 0.0
1.202119 0.063720 0.0
1.174260 0.052451 0.0
1.144607 0.043119 0.0
1.113886 0.037111 0.0
1.083086 0.034860 0.0
1.053620 0.035654 0.0
1.027399 0.037947 0.0
1.007770 0.039243 0.0
0.999825 -0.014255 0.0
0.999165 -0.044238 0.0
0.998070 -0.078082 0.0
0.997170 -0.118611 0.0
0.997992 -0.169500 0.0
1.004094 -0.235818 0.0
1.023746 -0.324707 0.0
1.075345 -0.441685 0.0
1.219662 -0.651767 0.0
1.316749 -0.404347 0.0
1.267201 -0.255556 0.0
1.194450 -0.186075 0.0
1.133195 -0.141830 0.0
1.081734 -0.111759 0.0
1.039222 -0.094683 0.0
1.008541 -0.088075 0.0
0.994610 -0.087697 0.0
1.003882 -0.086956 0.0
1.041863 -0.071586 0.0
1.104376 -0.021182 0.0
1.165745 0.058819 0.0
1.206396 0.136385 0.0
1.228446 0.202827 0.0
1.235667 0.255970 0.0
1.230799 0.295926 0.0
1.215699 0.323311 0.0
1.191853 0.338766 0.0
1.160656 0.342883 0.0
1.123488 0.336226 0.0
1.081668 0.319409 0.0
1.036234 0.293310 0.0
0.987269 0.259613 0.0
0.932548 0.221579 0.0
0.866935 0.183806 0.0
0.786374 0.149381 0.0
0.696483 0.116506 0.0
0.615391 0.079107 0.0
0.562707 0.030467 0.0
0.544244 -0.033204 0.0
0.551772 -0.104471 0.0
0.574983 -0.171039 0.0
0.608219 -0.224195 0.0
0.650030 -0.258580 0.0
0.700963 -0.270588 0.0
0.761970 -0.257879 0.0
0.833384 -0.219949 0.0
0.914286 -0.159006 0.0
1.001886 -0.080809 0.0
1.086499 0.000826 0.0
1.155655 0.070439 0.0
1.205979 0.123606 0.0
1.240003 0.162527 0.0
1.259851 0.189266 0.0
1.267352 0.205673 0.0
1.264184 0.213441 0.0
1.251905 0.214115 0.0
1.231950 0.209105 0.0
1.205586 0.199732 0.0
1.173821 0.187370 0.0
1.137282 0.173687 0.0
1.096143 0.160815 0.0
1.050351 0.151014 0.0
1.000300 0.145503 0.0
0.947722 0.142958 0.0
0.896121 0.139118 0.0
0.850124 0.128467 0.0
0.813950 0.107140 0.0
0.790006 0.074809 0.0
0.778497 0.034337 0.0
0.778012 -0.009953 0.0
0.786295 -0.053596 0.0
0.801015 -0.093351 0.0
0.820291 -0.127367 0.0
0.842779 -0.154754 0.0
0.867631 -0.175152 0.0
0.894435 -0.188411 0.0
0.923127 -0.194372 0.0
0.953843 -0.192782 0.0
0.986737 -0.183342 0.0
1.021799 -0.165884 0.0
1.058718 -0.140606 0.0
1.096798 -0.108329 0.0
1.134899 -0.070687 0.0
1.171310 -0.030312 0.0
1.203088 0.008518 0.0
1.227458 0.041832 0.0
1.243482 0.068219 0.0
1.251249 0.087213 0.0
1.251251 0.098881 0.0
1.244217 0.103776 0.0
1.230968 0.102895 0.0
1.212319 0.097656 0.0
1.189033 0.089833 0.0
1.161846 0.081383 0.0
1.131592 0.074094 0.0
1.099369 0.069083 0.0
1.066691 0.066367 0.0
1.035551 0.064753 0.0
1.008345 0.062276 0.0
0.988326 0.054563 0.0
0.999233 -0.013312 0.0
0.996113 -0.041402 0.0
0.989687 -0.073396 0.0
0.979629 -0.112340 0.0
0.965655 -0.162618 0.0
0.948171 -0.231318 0.0
0.930540 -0.331227 0.0
0.927575 -0.483799 0.0
1.021755 -0.848150 0.0
1.015021 -0.197028 0.0
0.821974 -0.108149 0.0
0.673528 -0.101443 0.0
0.586159 -0.077838 0.0
0.518489 -0.056620 0.0
0.464537 -0.053358 0.0
0.435665 -0.069847 0.0
0.439439 -0.095768 0.0
0.475037 -0.123755 0.0
0.539580 -0.137311 0.0
0.630448 -0.108837 0.0
0.738121 -0.022567 0.0
0.833333 0.081907 0.0
0.900886 0.167701 0.0
0.948607 0.236154 0.0
0.979684 0.289533 0.0
0.995424 0.329064 0.0
0.996874 0.355410 0.0
0.985202 0.369108 0.0
0.961572 0.370798 0.0
0.926733 0.361495 0.0
0.880257 0.343134 0.0
0.819826 0.319185 0.0
0.742626 0.293930 0.0
0.650856 0.268839 0.0
0.557233 0.238532 0.0
0.481339 0.193140 0.0
0.437665 0.127239 0.0
0.428098 0.044586 0.0
0.443727 -0.044488 0.0
0.472001 -0.128989 0.0
0.504498 -0.202228 0.0
0.538557 -0.260301 0.0
0.574703 -0.300433 0.0
0.615100 -0.320065 0.0
0.662448 -0.316756 0.0
0.718931 -0.288968 0.0
0.785354 -0.237311 0.0
0.860740 -0.165491 0.0
0.942163 -0.080528 0.0
1.020819 0.003981 0.0
1.086019 0.074539 0.0
1.134766 0.128823 0.0
1.168711 0.169178 0.0
1.189372 0.197600 0.0
1.198189 0.215866 0.0
1.196554 0.225604 0.0
1.185779 0.228347 0.0
1.167013 0.225620 0.0
1.141141 0.219118 0.0
1.108698 0.210920 0.0
1.069986 0.203433 0.0
1.025537 0.198637 0.0
0.976886 0.196582 0.0
0.927150 0.194193 0.0
0.880754 0.185880 0.0
0.842179 0.166279 0.0
0.814449 0.133232 0.0
0.798444 0.088667 0.0
0.793280 0.037151 0.0
0.797143 -0.016144 0.0
0.807888 -0.066434 0.0
0.823453 -0.110797 0.0
0.842106 -0.147849 0.0
0.862517 -0.177171 0.0
0.883803 -0.198872 0.0
0.905544 -0.213238 0.0
0.927767 -0.220460 0.0
0.950831 -0.220473 0.0
0.975245 -0.212959 0.0
1.001443 -0.197527 0.0
1.029582 -0.174021 0.0
1.059428 -0.142840 0.0
1.090324 -0.105173 0.0
1.121196 -0.063108 0.0
1.150431 -0.019700 0.0
1.175518 0.020594 0.0
1.194343 0.054608 0.0
1.206160 0.081240 0.0
1.210846 0.100166 0.0
1.208642 0.111729 0.0
1.199985 0.116848 0.0
1.185400 0.116936 0.0
1.165480 0.113760 0.0
1.140940 0.109182 0.0
1.112748 0.104741 0.0
1.082258 0.101149 0.0
1.051284 0.097951 0.0
1.022041 0.093552 0.0
0.996929 0.085795 0.0
0.978634 0.069358 0.0
0.998681 -0.011226 0.0
0.993258 -0.034946 0.0
0.981770 -0.061937 0.0
0.962741 -0.094712 0.0
0.933420 -0.136951 0.0
0.888734 -0.194816 0.0
0.818726 -0.280090 0.0
0.703852 -0.417098 0.0
0.315989 -0.722456 0.0
-0.459594 0.255233 0.0
-0.459594 0.000000 0.0
-0.035690 -0.025152 0.0
-0.067294 -0.045692 0.0
-0.044715 -0.043674 0.0
0.004096 -0.061162 0.0
0.060689 -0.089763 0.0
0.107039 -0.125977 0.0
0.148549 -0.170655 0.0
0.198969 -0.205375 0.0
0.267953 -0.200625 0.0
0.360917 -0.131417 0.0
0.468541 -0.012079 0.0
0.565463 0.097211 0.0
0.641933 0.182453 0.0
0.701806 0.252284 0.0
0.744139 0.308239 0.0
0.768428 0.350496 0.0
0.774748 0.379375 0.0
0.763154 0.395755 0.0
0.733117 0.401414 0.0
0.683578 0.399230 0.0
0.614998 0.392100 0.0
0.533745 0.379468 0.0
0.454711 0.354105 0.0
0.396178 0.305421 0.0
0.369398 0.228925 0.0
0.373478 0.131049 0.0
0.399361 0.024460 0.0
0.435296 -0.075927 0.0
0.472419 -0.162948 0.0
0.506863 -0.235209 0.0
0.537472 -0.291987 0.0
0.565113 -0.332535 0.0
0.592345 -0.355592 0.0
0.622888 -0.359121 0.0
0.660623 -0.340821 0.0
0.708274 -0.299533 0.0
0.766439 -0.236820 0.0
0.833431 -0.157614 0.0
0.905571 -0.069729 0.0
0.974527 0.014094 0.0
1.031817 0.083232 0.0
1.075370 0.137271 0.0
1.106020 0.178196 0.0
1.124731 0.207743 0.0
1.132541 0.227551 0.0
1.130477 0.239239 0.0
1.119447 0.244523 0.0
1.100153 0.245382 0.0
1.073109 0.244142 0.0
1.038925 0.243107 0.0
0.998896 0.243442 0.0
0.955612 0.243712 0.0
0.913029 0.239384 0.0
0.875600 0.224512 0.0
0.846867 0.194954 0.0
0.828473 0.150679 0.0
0.820234 0.095465 0.0
0.820907 0.034844 0.0
0.828775 -0.025568 0.0
0.841906 -0.080886 0.0
0.858428 -0.128432 0.0
0.876701 -0.167141 0.0
0.895386 -0.196977 0.0
0.913536 -0.218501 0.0
0.930670 -0.232485 0.0
0.946816 -0.239581 0.0
0.962462 -0.240063 0.0
0.978408 -0.233730 0.0
0.995509 -0.220055 0.0
1.014408 -0.198530 0.0
1.035333 -0.169102 0.0
1.058035 -0.132510 0.0
1.081823 -0.090429 0.0
1.105621 -0.045413 0.0
1.127781 -0.000940 0.0
1.146250 0.038849 0.0
1.159529 0.071903 0.0
1.166948 0.097398 0.0
1.168273 0.115375 0.0
1.163549 0.126583 0.0
1.153014 0.132321 0.0
1.137091 0.134218 0.0
1.116456 0.133899 0.0
1.092144 0.132529 0.0
1.065627 0.130367 0.0
1.038789 0.126545 0.0
1.013754 0.119237 0.0
0.992611 0.106364 0.0
0.977325 0.082371 0.0
0.998293 -0.008200 0.0
0.991259 -0.025514 0.0
0.976266 -0.044886 0.0
0.951155 -0.067623 0.0
0.911777 -0.095342 0.0
0.850150 -0.130111 0.0
0.749650 -0.174287 0.0
0.571087 -0.229465 0.0
0.227664 -0.276888 0.0
0.000000 0.255233 0.0
-0.000000 -0.000000 0.0
0.000000 0.000000 0.0
-0.026255 -0.024889 0.0
-0.057207 -0.057473 0.0
-0.059524 -0.093858 0.0
-0.060031 -0.113153 0.0
-0.069317 -0.139651 0.0
-0.077579 -0.190230 0.0
-0.070410 -0.243389 0.0
-0.036125 -0.265880 0.0
0.034756 -0.230008 0.0
0.140456 -0.126812 0.0
0.256938 -0.001462 0.0
0.357541 0.104054 0.0
0.436716 0.191634 0.0
0.496797 0.266477 0.0
0.536605 0.328161 0.0
0.555220 0.376774 0.0
0.551903 0.413267 0.0
0.526595 0.439248 0.0
0.481724 0.455804 0.0
0.425101 0.460729 0.0
0.371000 0.446192 0.0
0.335643 0.401773 0.0
0.328792 0.323137 0.0
0.349473 0.217306 0.0
0.389557 0.098504 0.0
0.438096 -0.017418 0.0
0.485603 -0.117491 0.0
0.527544 -0.200447 0.0
0.562351 -0.266960 0.0
0.589413 -0.317907 0.0
0.609304 -0.354148 0.0
0.624122 -0.376028 0.0
0.637625 -0.382732 0.0
0.654770 -0.372090 0.0
0.680372 -0.341517 0.0
0.717374 -0.290002 0.0
0.765799 -0.219848 0.0
0.822994 -0.136831 0.0
0.884399 -0.049165 0.0
0.942199 0.031401 0.0
0.990020 0.097728 0.0
1.026621 0.150487 0.0
1.052224 0.191138 0.0
1.067353 0.221216 0.0
1.072633 0.242359 0.0
1.068656 0.256411 0.0
1.055937 0.265507 0.0
1.035057 0.271941 0.0
1.007057 0.277492 0.0
0.973973 0.282169 0.0
0.939111 0.283129 0.0
0.906592 0.275070 0.0
0.880197 0.252652 0.0
0.862229 0.213516 0.0
0.853214 0.159526 0.0
0.852453 0.095617 0.0
0.858740 0.027732 0.0
0.870541 -0.038124 0.0
0.886065 -0.096984 0.0
0.903559 -0.146350 0.0
0.921462 -0.185399 0.0
0.938478 -0.214421 0.0
0.953656 -0.234385 0.0
0.966475 -0.246554 0.0
0.976924 -0.252106 0.0
0.985525 -0.251785 0.0
0.993251 -0.245680 0.0
1.001307 -0.233262 0.0
1.010810 -0.213724 0.0
1.022494 -0.186517 0.0
1.036546 -0.151849 0.0
1.052613 -0.110944 0.0
1.069911 -0.065994 0.0
1.087313 -0.019922 0.0
1.103190 0.023485 0.0
1.115889 0.061289 0.0
1.124338 0.092144 0.0
1.127913 0.115730 0.0
1.126321 0.132544 0.0
1.119542 0.143673 0.0
1.107841 0.150489 0.0
1.091832 0.154272 0.0
1.072541 0.155758 0.0
1.051413 0.154782 0.0
1.030193 0.150189 0.0
1.010696 0.140125 0.0
0.994529 0.122786 0.0
0.982962 0.092802 0.0
0.998148 -0.004641 0.0
0.990527 -0.014417 0.0
0.974367 -0.024830 0.0
0.947607 -0.035809 0.0
0.906608 -0.046780 0.0
0.845396 -0.055835 0.0
0.754889 -0.057556 0.0
0.624439 -0.037183 0.0
0.456589 0.045307 0.0
0.182630 0.164886 0.0
0.000000 0.000000 0.0
-0.000000 -0.000000 0.0
0.000000 0.000000 0.0
-0.027843 -0.026388 0.0
-0.076444 -0.075477 0.0
-0.128473 -0.078998 0.0
-0.188095 -0.104898 0.0
-0.231851 -0.172964 0.0
-0.247807 -0.251867 0.0
-0.236038 -0.303455 0.0
-0.196313 -0.303039 0.0
-0.117655 -0.238137 0.0
-0.000021 -0.124253 0.0
0.117249 0.008973 0.0
0.207515 0.117273 0.0
0.276583 0.211689 0.0
0.325594 0.294129 0.0
0.353457 0.364328 0.0
0.360194 0.422293 0.0
0.348421 0.467304 0.0
0.325149 0.495891 0.0
0.302281 0.500135 0.0
0.293370 0.469799 0.0
0.307321 0.399571 0.0
0.344457 0.295055 0.0
0.398588 0.170576 0.0
0.461232 0.042506 0.0
0.522167 -0.070894 0.0
0.574986 -0.164341 0.0
0.618729 -0.239282 0.0
0.652760 -0.296963 0.0
0.676760 -0.338965 0.0
0.690942 -0.367164 0.0
0.696467 -0.383354 0.0
0.696025 -0.388469 0.0
0.694217 -0.381690 0.0
0.696997 -0.360299 0.0
0.709900 -0.321125 0.0
0.735859 -0.263108 0.0
0.774178 -0.189086 0.0
0.821261 -0.105399 0.0
0.871614 -0.020517 0.0
0.918292 0.055147 0.0
0.956765 0.117993 0.0
0.986093 0.168703 0.0
1.006119 0.208496 0.0
1.016994 0.238923 0.0
1.018983 0.261834 0.0
1.012482 0.279304 0.0
0.998239 0.293267 0.0
0.977760 0.304646 0.0
0.953634 0.312224 0.0
0.929401 0.312168 0.0
0.908744 0.299207 0.0
0.894383 0.269272 0.0
0.887449 0.221797 0.0
0.887734 0.159975 0.0
0.894390 0.089273 0.0
0.906398 0.015780 0.0
0.922261 -0.053836 0.0
0.940107 -0.114643 0.0
0.958274 -0.164353 0.0
0.975366 -0.202390 0.0