# vtk DataFile Version 3.0
Vector Field
ASCII
DATASET RECTILINEAR_GRID
DIMENSIONS 100 26 1
X_COORDINATES 100 double
0.050000 0.150000 0.250000 0.350000 0.450000 0.550000 0.650000 0.750000 0.850000 0.950000 1.050000 1.150000 1.250000 1.350000 1.450000 1.550000 1.650000 1.750000 1.850000 1.950000 2.050000 2.150000 2.250000 2.350000 2.450000 2.550000 2.650000 2.750000 2.850000 2.950000 3.050000 3.150000 3.250000 3.350000 3.450000 3.550000 3.650000 3.750000 3.850000 3.950000 4.050000 4.150000 4.250000 4.350000 4.450000 4.550000 4.650000 4.750000 4.850000 4.950000 5.050000 5.150000 5.250000 5.350000 5.450000 5.550000 5.650000 5.750000 5.850000 5.950000 6.050000 6.150000 6.250000 6.350000 6.450000 6.550000 6.650000 6.750000 6.850000 6.950000 7.050000 7.150000 7.250000 7.350000 7.450000 7.550000 7.650000 7.750000 7.850000 7.950000 8.050000 8.150000 8.250000 8.350000 8.450000 8.550000 8.650000 8.750000 8.850000 8.950000 9.050000 9.150000 9.250000 9.350000 9.450000 9.550000 9.650000 9.750000 9.850000 9.950000 
Y_COORDINATES 26 double
0.050000 0.150000 0.250000 0.350000 0.450000 0.550000 0.650000 0.750000 0.850000 0.950000 1.050000 1.150000 1.250000 1.350000 1.450000 1.550000 1.650000 1.750000 1.850000 1.950000 2.050000 2.150000 2.250000 2.350000 2.450000 2.550000 
Z_COORDINATES 1 double
0.0
POINT_DATA 2600
VECTORS Vektorfeld double
0.997635 0.002365 0.0
0.992716 0.002555 0.0
0.988959 0.001201 0.0
0.988565 -0.000807 0.0
0.992458 -0.003086 0.0
1.000928 -0.005383 0.0
1.013771 -0.007460 0.0
1.030308 -0.009077 0.0
1.049410 -0.010024 0.0
1.069614 -0.010180 0.0
1.089366 -0.009572 0.0
1.107302 -0.008363 0.0
1.122441 -0.006777 0.0
1.134247 -0.005029 0.0
1.142563 -0.003287 0.0
1.147500 -0.001650 0.0
1.149327 -0.000178 0.0
1.148382 0.001123 0.0
1.144846 0.002413 0.0
1.138582 0.003850 0.0
1.129169 0.005563 0.0
1.115970 0.007636 0.0
1.098251 0.010082 0.0
1.075335 0.012834 0.0
1.046745 0.015756 0.0
1.012318 0.018672 0.0
0.972257 0.021389 0.0
0.927143 0.023725 0.0
0.877896 0.025521 0.0
0.825726 0.026649 0.0
0.772061 0.027015 0.0
0.718487 0.026559 0.0
0.666669 0.025259 0.0
0.618271 0.023139 0.0
0.574857 0.020275 0.0
0.537779 0.016803 0.0
0.508064 0.012913 0.0
0.486343 0.008809 0.0
0.472970 0.004564 0.0
0.468157 0.000249 0.0
0.470885 -0.002977 0.0
0.478465 -0.004602 0.0
0.487986 -0.004918 0.0
0.497236 -0.004332 0.0
0.504761 -0.003193 0.0
0.509717 -0.001764 0.0
0.511531 -0.000051 0.0
0.509189 0.002393 0.0
0.501437 0.005359 0.0
0.487593 0.008485 0.0
0.467681 0.011427 0.0
0.442442 0.013812 0.0
0.413495 0.015134 0.0
0.383615 0.014746 0.0
0.356646 0.012222 0.0
0.336474 0.007950 0.0
0.325235 0.003288 0.0
0.322078 -0.000131 0.0
0.323776 -0.001567 0.0
0.327439 -0.002095 0.0
0.332086 -0.002552 0.0
0.337798 -0.003161 0.0
0.344643 -0.003684 0.0
0.352245 -0.003919 0.0
0.360102 -0.003938 0.0
0.367842 -0.003802 0.0
0.375192 -0.003548 0.0
0.381952 -0.003212 0.0
0.387992 -0.002828 0.0
0.393240 -0.002421 0.0
0.397676 -0.002016 0.0
0.401325 -0.001634 0.0
0.404249 -0.001290 0.0
0.406535 -0.000996 0.0
0.408286 -0.000756 0.0
0.409613 -0.000571 0.0
0.410625 -0.000440 0.0
0.411423 -0.000358 0.0
0.412097 -0.000316 0.0
0.412719 -0.000306 0.0
0.413344 -0.000319 0.0
0.414008 -0.000345 0.0
0.414730 -0.000377 0.0
0.415512 -0.000405 0.0
0.416342 -0.000425 0.0
0.417199 -0.000432 0.0
0.418056 -0.000425 0.0
0.418884 -0.000404 0.0
0.419657 -0.000370 0.0
0.420353 -0.000326 0.0
0.420955 -0.000277 0.0
0.421459 -0.000227 0.0
0.421869 -0.000183 0.0
0.422201 -0.000149 0.0
0.422485 -0.000135 0.0
0.422769 -0.000149 0.0
0.423120 -0.000202 0.0
0.423628 -0.000305 0.0
0.424387 -0.000455 0.0
0.425701 -0.000858 0.0
1.002927 0.001802 0.0
1.011293 -0.000327 0.0
1.024136 -0.005004 0.0
1.040874 -0.010947 0.0
1.061482 -0.017448 0.0
1.085913 -0.023922 0.0
1.113890 -0.029741 0.0
1.144780 -0.034223 0.0
1.177538 -0.036739 0.0
1.210771 -0.036903 0.0
1.242985 -0.034815 0.0
1.272929 -0.031000 0.0
1.299808 -0.026159 0.0
1.323303 -0.020948 0.0
1.343476 -0.015857 0.0
1.360622 -0.011162 0.0
1.375075 -0.006946 0.0
1.387003 -0.003091 0.0
1.396397 0.000770 0.0
1.403089 0.005065 0.0
1.406611 0.010238 0.0
1.406203 0.016568 0.0
1.400984 0.024088 0.0
1.390142 0.032586 0.0
1.373102 0.041634 0.0
1.349644 0.050679 0.0
1.319957 0.059130 0.0
1.284624 0.066432 0.0
1.244577 0.072108 0.0
1.201030 0.075779 0.0
1.155417 0.077163 0.0
1.109317 0.076085 0.0
1.064384 0.072483 0.0
1.022269 0.066428 0.0
0.984521 0.058149 0.0
0.952484 0.048044 0.0
0.927195 0.036676 0.0
0.909281 0.024681 0.0
0.898740 0.012606 0.0
0.894614 0.001146 0.0
0.895752 -0.007742 0.0
0.901588 -0.013253 0.0
0.911520 -0.015721 0.0
0.924378 -0.015638 0.0
0.938346 -0.013378 0.0
0.951016 -0.009205 0.0
0.959879 -0.003288 0.0
0.963429 0.004422 0.0
0.961013 0.013498 0.0
0.952243 0.022960 0.0
0.937324 0.031783 0.0
0.917118 0.038901 0.0
0.892999 0.043110 0.0
0.866436 0.043214 0.0
0.838409 0.038750 0.0
0.809116 0.030889 0.0
0.778416 0.022287 0.0
0.747104 0.015340 0.0
0.718098 0.010269 0.0
0.695180 0.005323 0.0
0.680828 -0.000266 0.0
0.675098 -0.005430 0.0
0.675789 -0.008950 0.0
0.680469 -0.010935 0.0
0.687717 -0.012027 0.0
0.696757 -0.012493 0.0
0.706976 -0.012425 0.0
0.717828 -0.011947 0.0
0.728851 -0.011156 0.0
0.739649 -0.010138 0.0
0.749896 -0.008982 0.0
0.759353 -0.007774 0.0
0.767870 -0.006591 0.0
0.775385 -0.005496 0.0
0.781918 -0.004539 0.0
0.787557 -0.003754 0.0
0.792442 -0.003156 0.0
0.796748 -0.002747 0.0
0.800660 -0.002512 0.0
0.804355 -0.002427 0.0
0.807989 -0.002458 0.0
0.811685 -0.002567 0.0
0.815524 -0.002717 0.0
0.819548 -0.002871 0.0
0.823757 -0.002998 0.0
0.828119 -0.003077 0.0
0.832574 -0.003092 0.0
0.837047 -0.003037 0.0
0.841453 -0.002915 0.0
0.845711 -0.002733 0.0
0.849745 -0.002506 0.0
0.853493 -0.002250 0.0
0.856910 -0.001986 0.0
0.859967 -0.001735 0.0
0.862654 -0.001521 0.0
0.864980 -0.001373 0.0
0.866975 -0.001324 0.0
0.868704 -0.001419 0.0
0.870315 -0.001712 0.0
0.872011 -0.002611 0.0
1.001835 -0.002961 0.0
1.008362 -0.010456 0.0
1.020191 -0.019547 0.0
1.036820 -0.029770 0.0
1.058166 -0.040578 0.0
1.084217 -0.051274 0.0
1.114767 -0.060916 0.0
1.149170 -0.068342 0.0
1.186172 -0.072381 0.0
1.223857 -0.072179 0.0
1.260081 -0.067976 0.0
1.293182 -0.060883 0.0
1.322290 -0.052263 0.0
1.347252 -0.043302 0.0
1.368408 -0.034832 0.0
1.386367 -0.027292 0.0
1.401830 -0.020733 0.0
1.415437 -0.014839 0.0
1.427592 -0.009030 0.0
1.438291 -0.002525 0.0
1.447123 0.005474 0.0
1.453317 0.015546 0.0
1.455856 0.027790 0.0
1.453749 0.041832 0.0
1.446257 0.056921 0.0
1.433017 0.072090 0.0
1.414082 0.086340 0.0
1.389880 0.098756 0.0
1.361138 0.108573 0.0
1.328805 0.115194 0.0
1.293980 0.118187 0.0
1.257858 0.117285 0.0
1.221674 0.112401 0.0
1.186645 0.103655 0.0
1.153907 0.091408 0.0
1.124445 0.076283 0.0
1.099025 0.059146 0.0
1.078115 0.041034 0.0
1.061804 0.023104 0.0
1.049900 0.006678 0.0
1.042591 -0.007102 0.0
1.040487 -0.017625 0.0
1.043986 -0.024781 0.0
1.052984 -0.028434 0.0
1.066700 -0.028265 0.0
1.083624 -0.023913 0.0
1.101564 -0.015382 0.0
1.117993 -0.003463 0.0
1.131027 0.010765 0.0
1.139581 0.025909 0.0
1.142980 0.040353 0.0
1.141029 0.052489 0.0
1.133835 0.060835 0.0
1.121540 0.064348 0.0
1.104197 0.062986 0.0
1.082091 0.058053 0.0
1.056357 0.051557 0.0
1.029078 0.044662 0.0
1.002177 0.036854 0.0
0.976220 0.027614 0.0
0.950468 0.017548 0.0
0.924752 0.008202 0.0
0.901137 0.000343 0.0
0.882495 -0.006265 0.0
0.870011 -0.011460 0.0
0.862941 -0.015031 0.0
0.859981 -0.017146 0.0
0.860057 -0.018154 0.0
0.862352 -0.018266 0.0
0.866167 -0.017641 0.0
0.870898 -0.016457 0.0
0.876045 -0.014903 0.0
0.881218 -0.013152 0.0
0.886132 -0.011364 0.0
0.890609 -0.009681 0.0
0.894578 -0.008219 0.0
0.898061 -0.007059 0.0
0.901158 -0.006246 0.0
0.904021 -0.005787 0.0
0.906829 -0.005656 0.0
0.909765 -0.005799 0.0
0.912988 -0.006144 0.0
0.916617 -0.006609 0.0
0.920726 -0.007111 0.0
0.925333 -0.007575 0.0
0.930409 -0.007939 0.0
0.935882 -0.008159 0.0
0.941652 -0.008213 0.0
0.947599 -0.008094 0.0
0.953599 -0.007812 0.0
0.959528 -0.007391 0.0
0.965277 -0.006862 0.0
0.970747 -0.006262 0.0
0.975862 -0.005630 0.0
0.980561 -0.005011 0.0
0.984801 -0.004450 0.0
0.988558 -0.003999 0.0
0.991813 -0.003729 0.0
0.994548 -0.003747 0.0
0.996617 -0.004341 0.0
1.001450 -0.006246 0.0
1.007054 -0.019302 0.0
1.017955 -0.033431 0.0
1.034094 -0.048653 0.0
1.055690 -0.064638 0.0
1.083066 -0.080641 0.0
1.116354 -0.095387 0.0
1.155098 -0.107018 0.0
1.197855 -0.113463 0.0
1.241694 -0.112620 0.0
1.283049 -0.105114 0.0
1.319498 -0.093294 0.0
1.350177 -0.079638 0.0
1.375332 -0.066044 0.0
1.395810 -0.053724 0.0
1.412724 -0.043274 0.0
1.427245 -0.034736 0.0
1.440432 -0.027630 0.0
1.453032 -0.020995 0.0
1.465259 -0.013486 0.0
1.476593 -0.003731 0.0
1.485892 0.009258 0.0
1.491730 0.025702 0.0
1.492766 0.044991 0.0
1.488096 0.065925 0.0
1.477400 0.087022 0.0
1.460920 0.106825 0.0
1.439303 0.124091 0.0
1.413431 0.137852 0.0
1.384278 0.147401 0.0
1.352823 0.152258 0.0
1.320010 0.152147 0.0
1.286729 0.147003 0.0
1.253810 0.137001 0.0
1.222016 0.122594 0.0
1.192041 0.104534 0.0
1.164503 0.083853 0.0
1.139949 0.061791 0.0
1.118910 0.039698 0.0
1.102031 0.018868 0.0
1.090061 -0.000013 0.0
1.083873 -0.016421 0.0
1.084260 -0.029870 0.0
1.091542 -0.039626 0.0
1.105396 -0.044643 0.0
1.124801 -0.043864 0.0
1.148134 -0.036703 0.0
1.173188 -0.023625 0.0
1.197291 -0.006209 0.0
1.218171 0.013450 0.0
1.234560 0.033024 0.0
1.245805 0.050523 0.0
1.251478 0.064321 0.0
1.251248 0.073387 0.0
1.244956 0.077583 0.0
1.232864 0.077653 0.0
1.215862 0.074692 0.0
1.195250 0.069417 0.0
1.172181 0.062067 0.0
1.147434 0.053105 0.0
1.121799 0.043444 0.0
1.096200 0.033620 0.0
1.071095 0.023646 0.0
1.046271 0.013896 0.0
1.021974 0.005160 0.0
0.999579 -0.002187 0.0
0.980661 -0.008111 0.0
0.965871 -0.012476 0.0
0.954880 -0.015248 0.0
0.946996 -0.016590 0.0
0.941520 -0.016763 0.0
0.937833 -0.016057 0.0
0.935405 -0.014742 0.0
0.933797 -0.013079 0.0
0.932679 -0.011325 0.0
0.931844 -0.009709 0.0
0.931202 -0.008412 0.0
0.930771 -0.007559 0.0
0.930643 -0.007208 0.0
0.930956 -0.007355 0.0
0.931859 -0.007938 0.0
0.933484 -0.008852 0.0
0.935923 -0.009969 0.0
0.939212 -0.011149 0.0
0.943329 -0.012261 0.0
0.948199 -0.013197 0.0
0.953701 -0.013876 0.0
0.959686 -0.014251 0.0
0.965992 -0.014308 0.0
0.972455 -0.014059 0.0
0.978918 -0.013537 0.0
0.985243 -0.012789 0.0
0.991311 -0.011872 0.0
0.997023 -0.010846 0.0
1.002301 -0.009772 0.0
1.007083 -0.008711 0.0
1.011317 -0.007728 0.0
1.014954 -0.006892 0.0
1.017920 -0.006284 0.0
1.020042 -0.005994 0.0
1.001252 -0.008948 0.0
1.006240 -0.027193 0.0
1.016287 -0.046488 0.0
1.031753 -0.067202 0.0
1.053344 -0.089277 0.0
1.082004 -0.112037 0.0
1.118611 -0.133887 0.0
1.163314 -0.151964 0.0
1.214890 -0.162850 0.0
1.268280 -0.160463 0.0
1.316642 -0.146989 0.0
1.356482 -0.127709 0.0
1.387520 -0.106940 0.0
1.411005 -0.087382 0.0
1.428673 -0.070533 0.0
1.442360 -0.057065 0.0
1.453870 -0.046976 0.0
1.464883 -0.039589 0.0
1.476741 -0.033494 0.0
1.490087 -0.026560 0.0
1.504422 -0.016327 0.0
1.517880 -0.000903 0.0
1.527862 0.020044 0.0
1.532107 0.045367 0.0
1.529235 0.073090 0.0
1.518888 0.100900 0.0
1.501593 0.126722 0.0
1.478427 0.148976 0.0
1.450679 0.166586 0.0
1.419621 0.178878 0.0
1.386385 0.185471 0.0
1.351930 0.186202 0.0
1.317053 0.181106 0.0
1.282434 0.170437 0.0
1.248685 0.154701 0.0
1.216402 0.134685 0.0
1.186211 0.111432 0.0
1.158804 0.086173 0.0
1.134960 0.060199 0.0
1.115541 0.034666 0.0
1.101396 0.010304 0.0
1.093279 -0.012435 0.0
1.091823 -0.032787 0.0
1.097389 -0.049557 0.0
1.109957 -0.061134 0.0
1.129114 -0.065935 0.0
1.154098 -0.062948 0.0
1.183658 -0.051995 0.0
1.215664 -0.033947 0.0
1.246860 -0.010887 0.0
1.273747 0.014086 0.0
1.294472 0.037492 0.0
1.308775 0.057376 0.0
1.316683 0.072654 0.0
1.318295 0.082996 0.0
1.313924 0.088704 0.0
1.304177 0.090391 0.0
1.289853 0.088653 0.0
1.271744 0.084009 0.0
1.250573 0.077082 0.0
1.227089 0.068587 0.0
1.202056 0.059109 0.0
1.176164 0.049154 0.0
1.150110 0.039266 0.0
1.124532 0.029666 0.0
1.099752 0.020482 0.0
1.075829 0.012061 0.0
1.053076 0.004895 0.0
1.032215 -0.000766 0.0
1.013915 -0.004888 0.0
0.998457 -0.007531 0.0
0.985680 -0.008826 0.0
0.975160 -0.009026 0.0
0.966440 -0.008466 0.0
0.959130 -0.007511 0.0
0.952954 -0.006511 0.0
0.947754 -0.005768 0.0
0.943484 -0.005502 0.0
0.940185 -0.005838 0.0
0.937946 -0.006800 0.0
0.936870 -0.008321 0.0
0.937039 -0.010263 0.0
0.938486 -0.012443 0.0
0.941181 -0.014659 0.0
0.945031 -0.016719 0.0
0.949884 -0.018463 0.0
0.955550 -0.019778 0.0
0.961815 -0.020600 0.0
0.968461 -0.020912 0.0
0.975282 -0.020738 0.0
0.982091 -0.020130 0.0
0.988728 -0.019159 0.0
0.995060 -0.017904 0.0
1.000984 -0.016450 0.0
1.006416 -0.014878 0.0
1.011293 -0.013264 0.0
1.015562 -0.011679 0.0
1.019172 -0.010188 0.0
1.022061 -0.008844 0.0
1.024121 -0.007616 0.0
1.001056 -0.011256 0.0
1.005319 -0.034136 0.0
1.014123 -0.058395 0.0
1.028199 -0.084837 0.0
1.048838 -0.113871 0.0
1.077916 -0.145180 0.0
1.117682 -0.177118 0.0
1.169805 -0.205561 0.0
1.234968 -0.225991 0.0
1.302869 -0.218613 0.0
1.358783 -0.193115 0.0
1.399082 -0.161722 0.0
1.426176 -0.131058 0.0
1.443492 -0.104064 0.0
1.454019 -0.082047 0.0
1.460331 -0.065550 0.0
1.464836 -0.054507 0.0
1.469915 -0.048149 0.0
1.477825 -0.044702 0.0
1.490201 -0.041073 0.0
1.507202 -0.033151 0.0
1.526686 -0.017021 0.0
1.544044 0.008822 0.0
1.554607 0.041780 0.0
1.555905 0.078252 0.0
1.547454 0.114536 0.0
1.530167 0.147668 0.0
1.505666 0.175698 0.0
1.475737 0.197542 0.0
1.442012 0.212705 0.0
1.405858 0.221035 0.0
1.368363 0.222588 0.0
1.330393 0.217567 0.0
1.292660 0.206328 0.0
1.255806 0.189413 0.0
1.220487 0.167576 0.0
1.187433 0.141785 0.0
1.157481 0.113179 0.0
1.131515 0.083003 0.0
1.110296 0.052498 0.0
1.094181 0.022733 0.0
1.082974 -0.005541 0.0
1.076387 -0.031637 0.0
1.074532 -0.054418 0.0
1.077958 -0.072266 0.0
1.087559 -0.083561 0.0
1.104487 -0.087234 0.0
1.129752 -0.082534 0.0
1.163374 -0.069036 0.0
1.203517 -0.047138 0.0
1.245804 -0.018837 0.0
1.283655 0.011840 0.0
1.312529 0.039850 0.0
1.332154 0.062648 0.0
1.343576 0.079968 0.0
1.347700 0.091978 0.0
1.345419 0.099146 0.0
1.337586 0.102054 0.0
1.324988 0.101315 0.0
1.308350 0.097586 0.0
1.288377 0.091539 0.0
1.265772 0.083794 0.0
1.241222 0.074910 0.0
1.215405 0.065382 0.0
1.188947 0.055587 0.0
1.162394 0.045893 0.0
1.136278 0.036688 0.0
1.111087 0.028213 0.0
1.087176 0.020688 0.0
1.064777 0.014356 0.0
1.044054 0.009406 0.0
1.025168 0.005900 0.0
1.008237 0.003698 0.0
0.993259 0.002508 0.0
0.980142 0.001942 0.0
0.968773 0.001581 0.0
0.959076 0.001037 0.0
0.951032 0.000007 0.0
0.944673 -0.001688 0.0
0.940053 -0.004091 0.0
0.937222 -0.007124 0.0
0.936202 -0.010610 0.0
0.936963 -0.014303 0.0
0.939397 -0.017927 0.0
0.943320 -0.021223 0.0
0.948490 -0.023981 0.0
0.954625 -0.026061 0.0
0.961435 -0.027392 0.0
0.968640 -0.027971 0.0
0.975987 -0.027847 0.0
0.983259 -0.027102 0.0
0.990278 -0.025842 0.0
0.996905 -0.024180 0.0
1.003035 -0.022227 0.0
1.008589 -0.020088 0.0
1.013513 -0.017855 0.0
1.017763 -0.015608 0.0
1.021303 -0.013409 0.0
1.024096 -0.011304 0.0
1.026084 -0.009203 0.0
1.000779 -0.013091 0.0
1.003954 -0.039740 0.0
1.010685 -0.068326 0.0
1.021961 -0.100259 0.0
1.039631 -0.136757 0.0
1.066714 -0.178455 0.0
1.107638 -0.224532 0.0
1.167381 -0.270013 0.0
1.253574 -0.312896 0.0
1.341569 -0.287604 0.0
1.399082 -0.237551 0.0
1.429547 -0.188049 0.0
1.443106 -0.145384 0.0
1.446447 -0.110393 0.0
1.443369 -0.083166 0.0
1.436490 -0.063863 0.0
1.428205 -0.052415 0.0
1.421202 -0.048317 0.0
1.418759 -0.050001 0.0
1.424224 -0.053615 0.0
1.439656 -0.053041 0.0
1.464446 -0.041405 0.0
1.493477 -0.013184 0.0
1.517268 0.029432 0.0
1.529103 0.077467 0.0
1.528190 0.124685 0.0
1.516082 0.166914 0.0
1.495103 0.201931 0.0
1.467499 0.228843 0.0
1.435135 0.247491 0.0
1.399485 0.258054 0.0
1.361704 0.260845 0.0
1.322737 0.256248 0.0
1.283400 0.244717 0.0
1.244471 0.226806 0.0
1.206766 0.203207 0.0
1.171195 0.174778 0.0
1.138755 0.142578 0.0
1.110384 0.107942 0.0
1.086573 0.072589 0.0
1.066755 0.038576 0.0
1.048920 0.007658 0.0
1.030606 -0.019936 0.0
1.011430 -0.045088 0.0
0.993898 -0.067489 0.0
0.981965 -0.086005 0.0
0.979895 -0.099648 0.0
0.991130 -0.106620 0.0
1.017216 -0.104658 0.0
1.057571 -0.092015 0.0
1.109646 -0.068321 0.0
1.168547 -0.035429 0.0
1.225379 0.001413 0.0
1.271086 0.035752 0.0
1.303375 0.063153 0.0
1.324293 0.083750 0.0
1.335704 0.098244 0.0
1.339102 0.107390 0.0
1.335728 0.111951 0.0
1.326639 0.112678 0.0
1.312770 0.110289 0.0
1.294974 0.105445 0.0
1.274046 0.098738 0.0
1.250728 0.090689 0.0
1.225711 0.081754 0.0
1.199637 0.072353 0.0
1.173105 0.062875 0.0
1.146659 0.053664 0.0
1.120759 0.045049 0.0
1.095801 0.037352 0.0
1.072117 0.030818 0.0
1.049947 0.025543 0.0
1.029444 0.021488 0.0
1.010693 0.018447 0.0
0.993747 0.016067 0.0
0.978659 0.013914 0.0
0.965507 0.011554 0.0
0.954402 0.008638 0.0
0.945477 0.004965 0.0
0.938857 0.000497 0.0
0.934626 -0.004649 0.0
0.932790 -0.010230 0.0
0.933262 -0.015915 0.0
0.935845 -0.021333 0.0
0.940248 -0.026145 0.0
0.946112 -0.030093 0.0
0.953050 -0.033023 0.0
0.960687 -0.034876 0.0
0.968679 -0.035683 0.0
0.976729 -0.035533 0.0
0.984597 -0.034556 0.0
0.992093 -0.032904 0.0
0.999078 -0.030731 0.0
1.005454 -0.028182 0.0
1.011156 -0.025389 0.0
1.016141 -0.022463 0.0
1.020385 -0.019494 0.0
1.023870 -0.016548 0.0
1.026584 -0.013673 0.0
1.028498 -0.010737 0.0
1.000380 -0.014249 0.0
1.001946 -0.043324 0.0
1.005427 -0.074954 0.0
1.011817 -0.111298 0.0
1.023185 -0.154755 0.0
1.043463 -0.207818 0.0
1.079746 -0.272377 0.0
1.143091 -0.345256 0.0
1.259440 -0.440196 0.0
1.367284 -0.356142 0.0
1.402917 -0.262159 0.0
1.401547 -0.192536 0.0
1.387341 -0.140251 0.0
1.368050 -0.099576 0.0
1.345649 -0.068505 0.0
1.320975 -0.046971 0.0
1.294950 -0.034997 0.0
1.269162 -0.032945 0.0
1.247271 -0.041040 0.0
1.235005 -0.055774 0.0
1.237905 -0.069214 0.0
1.259647 -0.071764 0.0
1.299713 -0.051922 0.0
1.347214 -0.003122 0.0
1.384691 0.060707 0.0
1.404800 0.122249 0.0
1.410406 0.175852 0.0
1.404841 0.219537 0.0
1.390677 0.253006 0.0
1.369749 0.276620 0.0
1.343416 0.290908 0.0
1.312791 0.296395 0.0
1.278883 0.293575 0.0
1.242667 0.282944 0.0
1.205136 0.265039 0.0
1.167336 0.240479 0.0
1.130370 0.210042 0.0
1.095301 0.174822 0.0
1.062832 0.136537 0.0
1.032711 0.097925 0.0
1.003093 0.062675 0.0
0.970654 0.033833 0.0
0.932095 0.010761 0.0
0.887099 -0.011612 0.0
0.842137 -0.038472 0.0
0.808437 -0.069389 0.0
0.793874 -0.099632 0.0
0.799849 -0.123847 0.0
0.824210 -0.137877 0.0
0.864162 -0.139104 0.0
0.917250 -0.126395 0.0
0.981094 -0.100100 0.0
1.052645 -0.062298 0.0
1.125284 -0.018883 0.0
1.188208 0.022576 0.0
1.235279 0.056339 0.0
1.267939 0.081584 0.0
1.288889 0.099702 0.0
1.300091 0.111811 0.0
1.303112 0.118886 0.0
1.299269 0.121793 0.0
1.289710 0.121296 0.0
1.275457 0.118068 0.0
1.257434 0.112700 0.0
1.236480 0.105715 0.0
1.213360 0.097587 0.0
1.188773 0.088759 0.0
1.163352 0.079648 0.0
1.137654 0.070662 0.0
1.112166 0.062185 0.0
1.087301 0.054535 0.0
1.063390 0.047907 0.0
1.040689 0.042329 0.0
1.019410 0.037636 0.0
0.999752 0.033482 0.0
0.981933 0.029407 0.0
0.966202 0.024943 0.0
0.952836 0.019720 0.0
0.942101 0.013543 0.0
0.934214 0.006426 0.0
0.929293 -0.001426 0.0
0.927337 -0.009661 0.0
0.928190 -0.017809 0.0
0.931538 -0.025371 0.0
0.936947 -0.031918 0.0
0.943923 -0.037159 0.0
0.951973 -0.040946 0.0
0.960645 -0.043262 0.0
0.969550 -0.044193 0.0
0.978368 -0.043891 0.0
0.986853 -0.042550 0.0
0.994820 -0.040374 0.0
1.002142 -0.037568 0.0
1.008737 -0.034315 0.0
1.014556 -0.030776 0.0
1.019577 -0.027083 0.0
1.023796 -0.023336 0.0
1.027215 -0.019609 0.0
1.029841 -0.015952 0.0
1.031661 -0.012192 0.0
0.999858 -0.014486 0.0
0.999285 -0.044080 0.0
0.998276 -0.076669 0.0
0.997389 -0.115087 0.0
0.998094 -0.163039 0.0
1.003928 -0.225646 0.0
1.023206 -0.310109 0.0
1.074489 -0.422151 0.0
1.219006 -0.624167 0.0
1.321254 -0.382263 0.0
1.281643 -0.232060 0.0
1.218571 -0.158194 0.0
1.166387 -0.108203 0.0
1.122511 -0.068457 0.0
1.082013 -0.036725 0.0
1.040825 -0.012889 0.0
0.996370 0.001401 0.0
0.949250 0.003565 0.0
0.902444 -0.008853 0.0
0.863523 -0.036774 0.0
0.846103 -0.073694 0.0
0.861605 -0.104527 0.0
0.911472 -0.109092 0.0
0.988373 -0.070353 0.0
1.071479 0.007354 0.0
1.136858 0.090115 0.0
1.180113 0.159125 0.0
1.207490 0.214451 0.0
1.222378 0.257369 0.0
1.226569 0.288995 0.0
1.221293 0.310143 0.0
1.207674 0.321403 0.0
1.186881 0.323267 0.0
1.160141 0.316208 0.0
1.128709 0.300738 0.0
1.093801 0.277487 0.0
1.056353 0.247449 0.0
1.016295 0.212544 0.0
0.971340 0.176239 0.0
0.916756 0.142927 0.0
0.848896 0.115151 0.0
0.771676 0.091017 0.0
0.698534 0.065279 0.0
0.644881 0.032520 0.0
0.617470 -0.010232 0.0
0.613085 -0.059543 0.0
0.625086 -0.106916 0.0
0.648276 -0.145728 0.0
0.680179 -0.172259 0.0
0.720164 -0.184660 0.0
0.768391 -0.182154 0.0
0.825025 -0.164820 0.0
0.889668 -0.133772 0.0
0.960971 -0.091351 0.0
1.035444 -0.042353 0.0
1.104475 0.005165 0.0
1.159536 0.045036 0.0
1.199589 0.075247 0.0
1.227208 0.097445 0.0
1.244419 0.113021 0.0
1.252827 0.123093 0.0
1.253790 0.128591 0.0
1.248505 0.130311 0.0
1.238043 0.128942 0.0
1.223376 0.125095 0.0
1.205381 0.119322 0.0
1.184851 0.112139 0.0
1.162498 0.104042 0.0
1.138949 0.095515 0.0
1.114751 0.087018 0.0
1.090373 0.078945 0.0
1.066218 0.071564 0.0
1.042641 0.064949 0.0
1.019991 0.058944 0.0
0.998647 0.053176 0.0
0.979039 0.047141 0.0
0.961643 0.040335 0.0
0.946946 0.032390 0.0
0.935384 0.023169 0.0
0.927268 0.012802 0.0
0.922736 0.001651 0.0
0.921711 -0.009755 0.0
0.923884 -0.020741 0.0
0.928745 -0.030649 0.0
0.935681 -0.038985 0.0
0.944070 -0.045457 0.0
0.953344 -0.049972 0.0
0.963021 -0.052586 0.0
0.972713 -0.053465 0.0
0.982117 -0.052842 0.0
0.991012 -0.050979 0.0
0.999242 -0.048142 0.0
1.006705 -0.044585 0.0
1.013344 -0.040531 0.0
1.019134 -0.036169 0.0
1.024073 -0.031651 0.0
1.028174 -0.027088 0.0
1.031457 -0.022559 0.0
1.033945 -0.018116 0.0
1.035629 -0.013532 0.0
0.999266 -0.013610 0.0
0.996248 -0.041365 0.0
0.989961 -0.072088 0.0
0.980031 -0.108852 0.0
0.966143 -0.156091 0.0
0.948701 -0.220986 0.0
0.931126 -0.316472 0.0
0.928410 -0.464355 0.0
1.024182 -0.822251 0.0
1.028483 -0.188411 0.0
0.853448 -0.098945 0.0
0.719637 -0.084421 0.0
0.647355 -0.057510 0.0
0.593521 -0.021441 0.0
0.533419 0.016859 0.0
0.464187 0.043947 0.0
0.397352 0.055855 0.0
0.343787 0.049796 0.0
0.312640 0.022869 0.0
0.310536 -0.027471 0.0
0.339027 -0.094068 0.0
0.395452 -0.156080 0.0
0.475249 -0.187203 0.0
0.573109 -0.167003 0.0
0.684791 -0.090785 0.0
0.793808 0.013860 0.0
0.880436 0.105497 0.0
0.944881 0.176257 0.0
0.993389 0.232167 0.0
1.027679 0.275716 0.0
1.048505 0.307871 0.0
1.056721 0.329078 0.0
1.053422 0.339685 0.0
1.039837 0.340116 0.0
1.017116 0.330984 0.0
0.985914 0.313351 0.0
0.945613 0.289334 0.0
0.893651 0.262679 0.0
0.826846 0.237863 0.0
0.746169 0.216564 0.0
0.661237 0.194306 0.0
0.587697 0.162621 0.0
0.538365 0.116149 0.0
0.517075 0.056594 0.0
0.519504 -0.009325 0.0
0.536839 -0.073399 0.0
0.561168 -0.129391 0.0
0.588779 -0.174056 0.0
0.618829 -0.205884 0.0
0.651965 -0.224156 0.0
0.689548 -0.228466 0.0
0.733063 -0.218657 0.0
0.783572 -0.195087 0.0
0.841252 -0.159019 0.0
0.905079 -0.112984 0.0
0.972654 -0.060810 0.0
1.038057 -0.009452 0.0
1.093123 0.034617 0.0
1.134834 0.068745 0.0
1.164899 0.094445 0.0
1.184999 0.113161 0.0
1.196535 0.126025 0.0
1.200729 0.133969 0.0
1.198684 0.137791 0.0
1.191400 0.138197 0.0
1.179791 0.135825 0.0
1.164681 0.131276 0.0
1.146806 0.125133 0.0
1.126817 0.117963 0.0
1.105281 0.110304 0.0
1.082698 0.102618 0.0
1.059533 0.095212 0.0
1.036250 0.088161 0.0
1.013369 0.081263 0.0
0.991493 0.074076 0.0
0.971317 0.066026 0.0
0.953580 0.056583 0.0
0.938986 0.045432 0.0
0.928104 0.032572 0.0
0.921275 0.018344 0.0
0.918558 0.003358 0.0
0.919693 -0.011572 0.0
0.924103 -0.025507 0.0
0.931029 -0.037671 0.0
0.939702 -0.047572 0.0
0.949436 -0.054993 0.0
0.959666 -0.059941 0.0
0.969951 -0.062579 0.0
0.979961 -0.063173 0.0
0.989459 -0.062036 0.0
0.998280 -0.059501 0.0
1.006320 -0.055890 0.0
1.013519 -0.051499 0.0
1.019850 -0.046587 0.0
1.025316 -0.041368 0.0
1.029933 -0.036008 0.0
1.033728 -0.030629 0.0
1.036735 -0.025308 0.0
1.038981 -0.020101 0.0
1.040458 -0.014708 0.0
0.998713 -0.011590 0.0
0.993398 -0.035052 0.0
0.982094 -0.060810 0.0
0.963307 -0.091413 0.0
0.934273 -0.130608 0.0
0.889917 -0.184670 0.0
0.820283 -0.265579 0.0
0.706064 -0.398313 0.0
0.317322 -0.697640 0.0
-0.470381 0.240937 0.0
-0.470381 0.000000 0.0
-0.028850 -0.019775 0.0
-0.052364 -0.035432 0.0
-0.033617 -0.008433 0.0
-0.000723 0.031060 0.0
0.024502 0.073754 0.0
0.025082 0.092303 0.0
0.012668 0.079328 0.0
0.002307 0.034847 0.0
0.004290 -0.039326 0.0
0.025231 -0.131646 0.0
0.068786 -0.218483 0.0
0.136438 -0.272250 0.0
0.226548 -0.269925 0.0
0.334521 -0.207518 0.0
0.456111 -0.100014 0.0
0.575141 0.013711 0.0
0.673251 0.105488 0.0
0.750436 0.177244 0.0
0.810928 0.235857 0.0
0.855216 0.282617 0.0
0.883690 0.317643 0.0
0.897047 0.341062 0.0
0.896033 0.353338 0.0
0.880999 0.355517 0.0
0.851362 0.349658 0.0
0.805552 0.339138 0.0
0.742824 0.327565 0.0
0.667256 0.315349 0.0
0.590355 0.296657 0.0
0.527403 0.262098 0.0
0.489327 0.206445 0.0
0.477925 0.133058 0.0
0.487910 0.050989 0.0
0.510969 -0.029209 0.0
0.539340 -0.099221 0.0
0.568304 -0.156862 0.0
0.595835 -0.201726 0.0
0.621536 -0.233965 0.0
0.646221 -0.253896 0.0
0.671611 -0.261700 0.0
0.699967 -0.257294 0.0
0.733526 -0.240518 0.0
0.773862 -0.211606 0.0
0.821370 -0.171733 0.0
0.875053 -0.123319 0.0
0.932646 -0.069938 0.0
0.989786 -0.017103 0.0
1.039728 0.028810 0.0
1.078891 0.065153 0.0
1.108081 0.093163 0.0
1.128452 0.114116 0.0
1.141075 0.129060 0.0
1.146938 0.138882 0.0
1.146960 0.144367 0.0
1.141988 0.146236 0.0
1.132791 0.145172 0.0
1.120061 0.141842 0.0
1.104413 0.136892 0.0
1.086398 0.130926 0.0
1.066537 0.124440 0.0
1.045365 0.117728 0.0
1.023496 0.110797 0.0
1.001665 0.103340 0.0
0.980744 0.094796 0.0
0.961700 0.084525 0.0
0.945499 0.072022 0.0
0.932972 0.057113 0.0
0.924692 0.040053 0.0
0.920882 0.021503 0.0
0.921386 0.002412 0.0
0.925627 -0.016004 0.0
0.932718 -0.032576 0.0
0.941723 -0.046532 0.0
0.951825 -0.057486 0.0
0.962381 -0.065369 0.0
0.972915 -0.070329 0.0
0.983093 -0.072653 0.0
0.992688 -0.072705 0.0
1.001560 -0.070874 0.0
1.009627 -0.067551 0.0
1.016851 -0.063103 0.0
1.023225 -0.057858 0.0
1.028761 -0.052097 0.0
1.033488 -0.046050 0.0
1.037440 -0.039895 0.0
1.040657 -0.033755 0.0
1.043176 -0.027707 0.0
1.045029 -0.021801 0.0
1.046201 -0.015658 0.0
0.998320 -0.008623 0.0
0.991391 -0.025775 0.0
0.976610 -0.044002 0.0
0.951835 -0.064657 0.0
0.912933 -0.089429 0.0
0.851911 -0.120470 0.0
0.751982 -0.160216 0.0
0.573552 -0.211026 0.0
0.228842 -0.250005 0.0
0.000000 0.240937 0.0
-0.000000 -0.000000 0.0
0.000000 0.000000 0.0
-0.020956 -0.020384 0.0
-0.049275 -0.014482 0.0
-0.064056 0.018996 0.0
-0.085444 0.081981 0.0
-0.118049 0.116100 0.0
-0.154371 0.104266 0.0
-0.183021 0.048920 0.0
-0.194540 -0.043864 0.0
-0.184753 -0.157837 0.0
-0.155435 -0.265164 0.0
-0.107980 -0.340676 0.0
-0.036259 -0.363331 0.0
0.062054 -0.320398 0.0
0.177671 -0.224341 0.0
0.303569 -0.106889 0.0
0.425479 0.006068 0.0
0.526205 0.098753 0.0
0.605408 0.174651 0.0
0.666558 0.238384 0.0
0.709922 0.290037 0.0
0.735600 0.329632 0.0
0.743519 0.357863 0.0
0.733208 0.376336 0.0
0.704118 0.387565 0.0
0.657256 0.393903 0.0
0.598037 0.394748 0.0
0.537791 0.383980 0.0
0.490558 0.352160 0.0
0.466306 0.293799 0.0
0.466666 0.212461 0.0
0.486646 0.118465 0.0
0.518879 0.023365 0.0
0.555481 -0.061246 0.0
0.590874 -0.130950 0.0
0.622757 -0.185980 0.0
0.649915 -0.227297 0.0
0.671970 -0.256150 0.0
0.689423 -0.273848 0.0
0.703739 -0.281454 0.0
0.717303 -0.279460 0.0
0.733103 -0.267710 0.0
0.754059 -0.245707 0.0
0.782214 -0.213294 0.0
0.818121 -0.171347 0.0
0.860720 -0.122103 0.0
0.907646 -0.069004 0.0
0.955120 -0.016706 0.0
0.997675 0.028952 0.0
1.032061 0.065788 0.0
1.058447 0.094733 0.0
1.077460 0.116808 0.0
1.089808 0.132923 0.0
1.096206 0.143907 0.0
1.097337 0.150538 0.0
1.093836 0.153567 0.0
1.086289 0.153724 0.0
1.075234 0.151712 0.0
1.061193 0.148160 0.0
1.044723 0.143538 0.0
1.026472 0.138052 0.0
1.007244 0.131570 0.0
0.988020 0.123622 0.0
0.969921 0.113533 0.0
0.954110 0.100644 0.0
0.941636 0.084580 0.0
0.933278 0.065440 0.0
0.929431 0.043854 0.0
0.930049 0.020893 0.0
0.934643 -0.002075 0.0
0.942274 -0.023389 0.0
0.951837 -0.041845 0.0
0.962385 -0.056815 0.0
0.973195 -0.068114 0.0
0.983758 -0.075860 0.0
0.993746 -0.080360 0.0
1.002967 -0.082020 0.0
1.011324 -0.081290 0.0
1.018788 -0.078624 0.0
1.025372 -0.074452 0.0
1.031113 -0.069168 0.0
1.036063 -0.063116 0.0
1.040276 -0.056588 0.0
1.043808 -0.049818 0.0
1.046713 -0.042984 0.0
1.049039 -0.036208 0.0
1.050826 -0.029560 0.0
1.052104 -0.023079 0.0
1.052859 -0.016307 0.0
0.998166 -0.005108 0.0
0.990633 -0.014827 0.0
0.974684 -0.024220 0.0
0.948312 -0.033291 0.0
0.907951 -0.041533 0.0
0.847708 -0.047103 0.0
0.758856 -0.044802 0.0
0.630514 -0.019667 0.0
0.468588 0.069059 0.0
0.191077 0.172486 0.0
0.000000 0.000000 0.0
-0.000000 -0.000000 0.0
0.000000 0.000000 0.0
-0.004667 -0.003559 0.0
-0.032230 0.049309 0.0
-0.092330 0.133157 0.0
-0.161863 0.167061 0.0
-0.218095 0.145859 0.0
-0.254316 0.072199 0.0
-0.264659 -0.045280 0.0
-0.251831 -0.179035 0.0
-0.226486 -0.298629 0.0
-0.194847 -0.386305 0.0
-0.154710 -0.429561 0.0
-0.093294 -0.413897 0.0
-0.002561 -0.337193 0.0
0.106536 -0.229032 0.0
0.223336 -0.110499 0.0
0.334776 0.003155 0.0
0.426269 0.099553 0.0
0.497026 0.181574 0.0
0.549063 0.251446 0.0
0.582184 0.309424 0.0
0.595973 0.356364 0.0
0.590443 0.393676 0.0
0.567338 0.422420 0.0
0.532008 0.441241 0.0
0.494333 0.444304 0.0
0.466451 0.422551 0.0
0.457566 0.369707 0.0
0.470065 0.288004 0.0
0.500350 0.187611 0.0
0.542457 0.081229 0.0
0.589082 -0.018257 0.0
0.633732 -0.100876 0.0
0.673432 -0.166413 0.0
0.707039 -0.216007 0.0
0.733826 -0.251216 0.0
0.753450 -0.273908 0.0
0.766032 -0.286126 0.0
0.772362 -0.289822 0.0
0.774162 -0.286456 0.0
0.774227 -0.276578 0.0
0.776142 -0.259711 0.0
0.783485 -0.234788 0.0
0.798791 -0.201066 0.0
0.822813 -0.159006 0.0
0.854430 -0.110643 0.0
0.891130 -0.059240 0.0
0.929184 -0.009123 0.0
0.964041 0.034620 0.0
0.993042 0.070512 0.0
1.015906 0.099152 0.0
1.032829 0.121307 0.0
1.044185 0.137769 0.0
1.050405 0.149326 0.0
1.051930 0.156755 0.0