# vtk DataFile Version 3.0
Vector Field
ASCII
DATASET RECTILINEAR_GRID
DIMENSIONS 100 26 1
X_COORDINATES 100 double
0.050000 0.150000 0.250000 0.350000 0.450000 0.550000 0.650000 0.750000 0.850000 0.950000 1.050000 1.150000 1.250000 1.350000 1.450000 1.550000 1.650000 1.750000 1.850000 1.950000 2.050000 2.150000 2.250000 2.350000 2.450000 2.550000 2.650000 2.750000 2.850000 2.950000 3.050000 3.150000 3.250000 3.350000 3.450000 3.550000 3.650000 3.750000 3.850000 3.950000 4.050000 4.150000 4.250000 4.350000 4.450000 4.550000 4.650000 4.750000 4.850000 4.950000 5.050000 5.150000 5.250000 5.350000 5.450000 5.550000 5.650000 5.750000 5.850000 5.950000 6.050000 6.150000 6.250000 6.350000 6.450000 6.550000 6.650000 6.750000 6.850000 6.950000 7.050000 7.150000 7.250000 7.350000 7.450000 7.550000 7.650000 7.750000 7.850000 7.950000 8.050000 8.150000 8.250000 8.350000 8.450000 8.550000 8.650000 8.750000 8.850000 8.950000 9.050000 9.150000 9.250000 9.350000 9.450000 9.550000 9.650000 9.750000 9.850000 9.950000 
Y_COORDINATES 26 double
0.050000 0.150000 0.250000 0.350000 0.450000 0.550000 0.650000 0.750000 0.850000 0.950000 1.050000 1.150000 1.250000 1.350000 1.450000 1.550000 1.650000 1.750000 1.850000 1.950000 2.050000 2.150000 2.250000 2.350000 2.450000 2.550000 
Z_COORDINATES 1 double
0.0
POINT_DATA 2600
VECTORS Vektorfeld double
0.997741 0.002259 0.0
0.993229 0.002252 0.0
0.990255 0.000722 0.0
0.990954 -0.001421 0.0
0.996136 -0.003761 0.0
1.005918 -0.006021 0.0
1.019877 -0.007938 0.0
1.037066 -0.009250 0.0
1.056047 -0.009730 0.0
1.075032 -0.009255 0.0
1.092158 -0.007870 0.0
1.105806 -0.005778 0.0
1.114851 -0.003267 0.0
1.118778 -0.000660 0.0
1.117736 0.001702 0.0
1.112265 0.003769 0.0
1.103051 0.005446 0.0
1.090951 0.006653 0.0
1.076942 0.007356 0.0
1.062018 0.007568 0.0
1.047098 0.007352 0.0
1.032922 0.006824 0.0
1.019949 0.006149 0.0
1.008253 0.005546 0.0
0.997443 0.005264 0.0
0.986639 0.005540 0.0
0.974561 0.006539 0.0
0.959720 0.008302 0.0
0.940682 0.010736 0.0
0.916305 0.013640 0.0
0.885908 0.016756 0.0
0.849339 0.019813 0.0
0.806969 0.022558 0.0
0.759638 0.024773 0.0
0.708583 0.026282 0.0
0.655358 0.026944 0.0
0.601760 0.026654 0.0
0.549757 0.025349 0.0
0.501401 0.023007 0.0
0.458815 0.019579 0.0
0.424426 0.014810 0.0
0.401348 0.008267 0.0
0.392540 0.000541 0.0
0.397063 -0.005065 0.0
0.410137 -0.008009 0.0
0.427330 -0.009184 0.0
0.445792 -0.009278 0.0
0.463786 -0.008716 0.0
0.480230 -0.007728 0.0
0.494391 -0.006434 0.0
0.505747 -0.004922 0.0
0.513976 -0.003307 0.0
0.519012 -0.001730 0.0
0.520925 -0.000183 0.0
0.519148 0.001960 0.0
0.512381 0.004807 0.0
0.499536 0.008038 0.0
0.480231 0.011266 0.0
0.455075 0.013891 0.0
0.426052 0.015132 0.0
0.396529 0.014390 0.0
0.370342 0.011796 0.0
0.350187 0.008359 0.0
0.336491 0.005337 0.0
0.327780 0.003373 0.0
0.322140 0.002267 0.0
0.318422 0.001450 0.0
0.316389 0.000583 0.0
0.316050 -0.000244 0.0
0.317204 -0.000910 0.0
0.319419 -0.001305 0.0
0.322168 -0.001444 0.0
0.325008 -0.001396 0.0
0.327587 -0.001183 0.0
0.329601 -0.000831 0.0
0.330793 -0.000361 0.0
0.330847 0.000307 0.0
0.329348 0.001192 0.0
0.326119 0.002036 0.0
0.321505 0.002578 0.0
0.316240 0.002686 0.0
0.311261 0.002293 0.0
0.307540 0.001427 0.0
0.305760 0.000354 0.0
0.305795 -0.000389 0.0
0.306847 -0.000663 0.0
0.308198 -0.000687 0.0
0.309500 -0.000615 0.0
0.310623 -0.000507 0.0
0.311515 -0.000384 0.0
0.312162 -0.000263 0.0
0.312602 -0.000177 0.0
0.312985 -0.000207 0.0
0.313579 -0.000387 0.0
0.314619 -0.000653 0.0
0.316258 -0.000986 0.0
0.318525 -0.001280 0.0
0.321202 -0.001397 0.0
0.323862 -0.001264 0.0
0.325866 -0.000740 0.0
1.003037 0.001482 0.0
1.011824 -0.001246 0.0
1.025466 -0.006447 0.0
1.043302 -0.012786 0.0
1.065212 -0.019487 0.0
1.091029 -0.025894 0.0
1.120309 -0.031305 0.0
1.152204 -0.034968 0.0
1.185410 -0.036199 0.0
1.218232 -0.034595 0.0
1.248880 -0.030303 0.0
1.275843 -0.023957 0.0
1.298132 -0.016422 0.0
1.315274 -0.008574 0.0
1.327123 -0.001192 0.0
1.333974 0.005284 0.0
1.336589 0.010530 0.0
1.335942 0.014316 0.0
1.333098 0.016547 0.0
1.329127 0.017271 0.0
1.325024 0.016673 0.0
1.321610 0.015094 0.0
1.319419 0.013043 0.0
1.318576 0.011190 0.0
1.318702 0.010305 0.0
1.318869 0.011136 0.0
1.317681 0.014209 0.0
1.313496 0.019658 0.0
1.304731 0.027184 0.0
1.290144 0.036157 0.0
1.268997 0.045782 0.0
1.241118 0.055235 0.0
1.206870 0.063754 0.0
1.167084 0.070693 0.0
1.122977 0.075524 0.0
1.076074 0.077830 0.0
1.028137 0.077302 0.0
0.981108 0.073734 0.0
0.937067 0.067019 0.0
0.898153 0.057067 0.0
0.866150 0.043715 0.0
0.841382 0.027209 0.0
0.822190 0.009600 0.0
0.808599 -0.005057 0.0
0.802521 -0.015012 0.0
0.804075 -0.020928 0.0
0.812118 -0.024040 0.0
0.825452 -0.025281 0.0
0.843065 -0.025219 0.0
0.864062 -0.024100 0.0
0.887399 -0.021949 0.0
0.911575 -0.018685 0.0
0.934361 -0.014174 0.0
0.952925 -0.008214 0.0
0.965235 -0.000541 0.0
0.970739 0.008570 0.0
0.969322 0.018537 0.0
0.961070 0.028324 0.0
0.946561 0.036499 0.0
0.926607 0.041501 0.0
0.901840 0.042311 0.0
0.872623 0.039279 0.0
0.839523 0.034132 0.0
0.803994 0.028789 0.0
0.768602 0.024024 0.0
0.736552 0.019306 0.0
0.710888 0.013793 0.0
0.693715 0.007447 0.0
0.685661 0.001285 0.0
0.685381 -0.003312 0.0
0.690290 -0.006026 0.0
0.698316 -0.007498 0.0
0.708281 -0.008146 0.0
0.719212 -0.007944 0.0
0.730044 -0.006915 0.0
0.739699 -0.005124 0.0
0.747435 -0.002718 0.0
0.753239 -0.000087 0.0
0.757565 0.002217 0.0
0.760739 0.003838 0.0
0.762919 0.004512 0.0
0.764226 0.004140 0.0
0.764597 0.002930 0.0
0.763753 0.001477 0.0
0.761710 0.000494 0.0
0.759006 0.000105 0.0
0.756125 0.000076 0.0
0.753196 0.000248 0.0
0.750144 0.000559 0.0
0.746844 0.000958 0.0
0.743241 0.001350 0.0
0.739433 0.001579 0.0
0.735659 0.001428 0.0
0.732295 0.000748 0.0
0.729965 -0.000498 0.0
0.729233 -0.002048 0.0
0.730179 -0.003431 0.0
0.732556 -0.004300 0.0
0.735990 -0.004456 0.0
0.738738 -0.002299 0.0
1.001949 -0.003504 0.0
1.008919 -0.012019 0.0
1.021603 -0.022001 0.0
1.039440 -0.032906 0.0
1.062264 -0.044101 0.0
1.089944 -0.054776 0.0
1.122108 -0.063868 0.0
1.157893 -0.070085 0.0
1.195751 -0.072145 0.0
1.233413 -0.069135 0.0
1.268370 -0.061367 0.0
1.298649 -0.050136 0.0
1.323166 -0.037048 0.0
1.341635 -0.023559 0.0
1.354369 -0.010792 0.0
1.362037 0.000366 0.0
1.365515 0.009354 0.0
1.365827 0.015827 0.0
1.364063 0.019644 0.0
1.361346 0.020862 0.0
1.358772 0.019759 0.0
1.357335 0.016859 0.0
1.357837 0.012967 0.0
1.360758 0.009187 0.0
1.366073 0.006866 0.0
1.373091 0.007390 0.0
1.380436 0.011798 0.0
1.386287 0.020402 0.0
1.388813 0.032678 0.0
1.386544 0.047519 0.0
1.378554 0.063557 0.0
1.364485 0.079409 0.0
1.344479 0.093835 0.0
1.319080 0.105798 0.0
1.289140 0.114467 0.0
1.255736 0.119194 0.0
1.220111 0.119501 0.0
1.183606 0.115069 0.0
1.147574 0.105755 0.0
1.113193 0.091625 0.0
1.081173 0.073180 0.0
1.051701 0.051985 0.0
1.024938 0.030780 0.0
1.000927 0.011364 0.0
0.980475 -0.004903 0.0
0.965351 -0.017467 0.0
0.956535 -0.026729 0.0
0.954151 -0.033542 0.0
0.958083 -0.038504 0.0
0.968060 -0.041789 0.0
0.983633 -0.043170 0.0
1.004132 -0.042140 0.0
1.028669 -0.038043 0.0
1.056072 -0.030312 0.0
1.084400 -0.019082 0.0
1.110958 -0.004952 0.0
1.133397 0.011036 0.0
1.150290 0.027185 0.0
1.160721 0.041715 0.0
1.163896 0.053063 0.0
1.159131 0.060282 0.0
1.146165 0.063491 0.0
1.125587 0.063598 0.0
1.099001 0.061437 0.0
1.068646 0.057123 0.0
1.036648 0.050255 0.0
1.004383 0.040774 0.0
0.972424 0.029598 0.0
0.941343 0.018268 0.0
0.913243 0.008084 0.0
0.891590 -0.000678 0.0
0.878481 -0.007764 0.0
0.873183 -0.012547 0.0
0.873756 -0.015048 0.0
0.878704 -0.015591 0.0
0.886963 -0.014362 0.0
0.897519 -0.011772 0.0
0.909186 -0.008505 0.0
0.920705 -0.005210 0.0
0.931193 -0.002397 0.0
0.940260 -0.000501 0.0
0.947798 0.000307 0.0
0.953937 0.000252 0.0
0.959108 -0.000171 0.0
0.963923 -0.000630 0.0
0.968886 -0.001030 0.0
0.974267 -0.001288 0.0
0.980130 -0.001322 0.0
0.986383 -0.001072 0.0
0.992823 -0.000552 0.0
0.999161 0.000125 0.0
1.005007 0.000767 0.0
1.009852 0.001169 0.0
1.013046 0.001177 0.0
1.013735 0.000715 0.0
1.011226 -0.000020 0.0
1.005617 -0.000797 0.0
0.997921 -0.001614 0.0
0.989946 -0.002601 0.0
0.985313 -0.002268 0.0
1.001574 -0.007026 0.0
1.007665 -0.021558 0.0
1.019514 -0.036994 0.0
1.037019 -0.053255 0.0
1.060332 -0.069889 0.0
1.089671 -0.086007 0.0
1.125022 -0.100152 0.0
1.165697 -0.110261 0.0
1.209933 -0.114062 0.0
1.254336 -0.109283 0.0
1.294844 -0.096682 0.0
1.328662 -0.078918 0.0
1.354691 -0.058812 0.0
1.373030 -0.038602 0.0
1.384429 -0.019883 0.0
1.389963 -0.003745 0.0
1.390849 0.009101 0.0
1.388358 0.018260 0.0
1.383796 0.023536 0.0
1.378508 0.024974 0.0
1.373831 0.022898 0.0
1.371044 0.017944 0.0
1.371301 0.011123 0.0
1.375490 0.003922 0.0
1.383862 -0.001555 0.0
1.395614 -0.002958 0.0
1.408854 0.001560 0.0
1.421066 0.012577 0.0
1.429845 0.029199 0.0
1.433495 0.049618 0.0
1.431187 0.071755 0.0
1.422826 0.093640 0.0
1.408820 0.113615 0.0
1.389854 0.130381 0.0
1.366729 0.142949 0.0
1.340263 0.150581 0.0
1.311255 0.152747 0.0
1.280457 0.149125 0.0
1.248531 0.139656 0.0
1.215987 0.124649 0.0
1.183157 0.105006 0.0
1.150359 0.082429 0.0
1.118260 0.059198 0.0
1.087983 0.037235 0.0
1.060482 0.017179 0.0
1.036659 -0.000601 0.0
1.017841 -0.015960 0.0
1.005033 -0.029119 0.0
0.998586 -0.040412 0.0
0.998537 -0.049810 0.0
1.004740 -0.056925 0.0
1.017017 -0.061160 0.0
1.035321 -0.061864 0.0
1.059779 -0.058353 0.0
1.090421 -0.050011 0.0
1.126500 -0.036658 0.0
1.165667 -0.018864 0.0
1.203861 0.001999 0.0
1.236726 0.023605 0.0
1.261535 0.043190 0.0
1.277085 0.059372 0.0
1.282852 0.071600 0.0
1.279099 0.079820 0.0
1.266851 0.084048 0.0
1.247562 0.084156 0.0
1.222698 0.080084 0.0
1.193613 0.072296 0.0
1.161777 0.061871 0.0
1.128930 0.049923 0.0
1.096524 0.036936 0.0
1.065160 0.023486 0.0
1.035533 0.010808 0.0
1.009746 -0.000034 0.0
0.990193 -0.008581 0.0
0.977517 -0.014330 0.0
0.970820 -0.017185 0.0
0.968814 -0.017499 0.0
0.970183 -0.015815 0.0
0.973604 -0.012840 0.0
0.977821 -0.009471 0.0
0.981844 -0.006518 0.0
0.985161 -0.004530 0.0
0.987848 -0.003736 0.0
0.990576 -0.004081 0.0
0.994398 -0.005357 0.0
1.000429 -0.007298 0.0
1.009586 -0.009559 0.0
1.022397 -0.011726 0.0
1.038871 -0.013394 0.0
1.058449 -0.014250 0.0
1.080056 -0.014122 0.0
1.102206 -0.012982 0.0
1.123203 -0.010924 0.0
1.141413 -0.008135 0.0
1.155612 -0.004862 0.0
1.165217 -0.001540 0.0
1.170304 0.001245 0.0
1.171469 0.002874 0.0
1.169684 0.002671 0.0
1.168102 -0.001325 0.0
1.001387 -0.009987 0.0
1.006910 -0.030211 0.0
1.018010 -0.051290 0.0
1.035022 -0.073475 0.0
1.058608 -0.096568 0.0
1.089646 -0.119706 0.0
1.128901 -0.141057 0.0
1.176319 -0.157449 0.0
1.230354 -0.165145 0.0
1.285317 -0.157567 0.0
1.333643 -0.137232 0.0
1.371441 -0.109984 0.0
1.398252 -0.080587 0.0
1.415176 -0.052089 0.0
1.423760 -0.026379 0.0
1.425621 -0.004644 0.0
1.422308 0.012427 0.0
1.415311 0.024423 0.0
1.406157 0.031089 0.0
1.396441 0.032426 0.0
1.387799 0.028765 0.0
1.381859 0.020804 0.0
1.380219 0.009645 0.0
1.384359 -0.002929 0.0
1.395114 -0.013830 0.0
1.411855 -0.019176 0.0
1.432005 -0.015612 0.0
1.451464 -0.001923 0.0
1.466261 0.020122 0.0
1.474062 0.047244 0.0
1.474195 0.076304 0.0
1.467062 0.104585 0.0
1.453675 0.130064 0.0
1.435221 0.151352 0.0
1.412799 0.167527 0.0
1.387296 0.177973 0.0
1.359371 0.182287 0.0
1.329483 0.180271 0.0
1.297931 0.171989 0.0
1.264912 0.157880 0.0
1.230627 0.138891 0.0
1.195463 0.116506 0.0
1.160181 0.092500 0.0
1.125940 0.068452 0.0
1.094045 0.045358 0.0
1.065543 0.023545 0.0
1.041116 0.003138 0.0
1.021311 -0.015604 0.0
1.006332 -0.032500 0.0
0.996019 -0.047359 0.0
0.990342 -0.059902 0.0
0.989721 -0.069839 0.0
0.995192 -0.076960 0.0
1.008321 -0.080844 0.0
1.030710 -0.080551 0.0
1.063292 -0.074780 0.0
1.105759 -0.062376 0.0
1.156074 -0.042999 0.0
1.209681 -0.017870 0.0
1.259309 0.010228 0.0
1.298644 0.037449 0.0
1.325692 0.060709 0.0
1.340880 0.079275 0.0
1.345107 0.092613 0.0
1.339569 0.100419 0.0
1.325571 0.102683 0.0
1.304499 0.099854 0.0
1.277883 0.092765 0.0
1.247375 0.082383 0.0
1.214595 0.069663 0.0
1.181077 0.055640 0.0
1.148209 0.041149 0.0
1.116865 0.026755 0.0
1.087580 0.013468 0.0
1.061408 0.002470 0.0
1.039645 -0.005525 0.0
1.022641 -0.010149 0.0
1.009569 -0.011463 0.0
0.999050 -0.010093 0.0
0.989716 -0.007101 0.0
0.980568 -0.003764 0.0
0.971292 -0.001325 0.0
0.962383 -0.000720 0.0
0.954991 -0.002434 0.0
0.950655 -0.006490 0.0
0.950902 -0.012442 0.0
0.956845 -0.019515 0.0
0.968994 -0.026729 0.0
0.987238 -0.033108 0.0
1.010968 -0.037844 0.0
1.039206 -0.040372 0.0
1.070699 -0.040375 0.0
1.103960 -0.037788 0.0
1.137283 -0.032803 0.0
1.168791 -0.025901 0.0
1.196583 -0.017899 0.0
1.219044 -0.009942 0.0
1.235332 -0.003392 0.0
1.245691 0.000364 0.0
1.251852 -0.003597 0.0
1.001201 -0.012575 0.0
1.006041 -0.037986 0.0
1.015993 -0.064568 0.0
1.031784 -0.093001 0.0
1.054700 -0.123544 0.0
1.086605 -0.155673 0.0
1.129714 -0.187455 0.0
1.185580 -0.214336 0.0
1.254725 -0.231437 0.0
1.325904 -0.217417 0.0
1.383256 -0.183060 0.0
1.422936 -0.141634 0.0
1.447419 -0.100231 0.0
1.460011 -0.061961 0.0
1.463356 -0.028436 0.0
1.459531 -0.000622 0.0
1.450143 0.021106 0.0
1.436661 0.036223 0.0
1.420767 0.044337 0.0
1.404312 0.045349 0.0
1.389229 0.039566 0.0
1.377433 0.027738 0.0
1.370777 0.011007 0.0
1.371328 -0.008982 0.0
1.381143 -0.028346 0.0
1.400747 -0.041006 0.0
1.427850 -0.041034 0.0
1.457188 -0.025298 0.0
1.481707 0.004181 0.0
1.496454 0.040637 0.0
1.500500 0.078732 0.0
1.495029 0.114762 0.0
1.481897 0.146406 0.0
1.462963 0.172397 0.0
1.439750 0.192116 0.0
1.413359 0.205277 0.0
1.384500 0.211766 0.0
1.353578 0.211602 0.0
1.320803 0.204987 0.0
1.286300 0.192403 0.0
1.250261 0.174691 0.0
1.213098 0.153033 0.0
1.175568 0.128785 0.0
1.138755 0.103221 0.0
1.103878 0.077361 0.0
1.071921 0.052000 0.0
1.043199 0.027832 0.0
1.017140 0.005566 0.0
0.992683 -0.014235 0.0
0.969102 -0.031730 0.0
0.946882 -0.047634 0.0
0.928058 -0.062662 0.0
0.915844 -0.077394 0.0
0.913785 -0.091480 0.0
0.924559 -0.103077 0.0
0.949247 -0.109525 0.0
0.987447 -0.108297 0.0
1.037661 -0.097607 0.0
1.097487 -0.076695 0.0
1.163248 -0.046336 0.0
1.228081 -0.010158 0.0
1.282747 0.026603 0.0
1.322358 0.058582 0.0
1.347469 0.083968 0.0
1.359653 0.102418 0.0
1.360446 0.113889 0.0
1.351416 0.118751 0.0
1.334191 0.117709 0.0
1.310453 0.111685 0.0
1.281884 0.101712 0.0
1.250116 0.088877 0.0
1.216666 0.074231 0.0
1.182875 0.058808 0.0
1.149898 0.043677 0.0
1.118519 0.029813 0.0
1.089010 0.018404 0.0
1.061292 0.010643 0.0
1.035034 0.007075 0.0
1.009657 0.007264 0.0
0.984693 0.009841 0.0
0.960300 0.012835 0.0
0.937439 0.014213 0.0
0.917639 0.012451 0.0
0.902578 0.006849 0.0
0.893647 -0.002506 0.0
0.891799 -0.014826 0.0
0.897401 -0.028677 0.0
0.910130 -0.042444 0.0
0.929212 -0.054720 0.0
0.953704 -0.064455 0.0
0.982642 -0.070937 0.0
1.015073 -0.073735 0.0
1.050035 -0.072652 0.0
1.086497 -0.067723 0.0
1.123290 -0.059282 0.0
1.159051 -0.048071 0.0
1.192180 -0.035361 0.0
1.220901 -0.022983 0.0
1.243542 -0.013044 0.0
1.258479 -0.011287 0.0
1.000929 -0.014705 0.0
1.004704 -0.044472 0.0
1.012639 -0.075969 0.0
1.025743 -0.110495 0.0
1.045903 -0.149125 0.0
1.076205 -0.192299 0.0
1.121174 -0.238907 0.0
1.185857 -0.283434 0.0
1.278288 -0.323915 0.0
1.372149 -0.289980 0.0
1.433234 -0.228934 0.0
1.465615 -0.167821 0.0
1.480135 -0.113048 0.0
1.483388 -0.064989 0.0
1.478572 -0.023938 0.0
1.467072 0.010204 0.0
1.449663 0.037077 0.0
1.427599 0.055798 0.0
1.402576 0.065680 0.0
1.376592 0.066444 0.0
1.351820 0.058327 0.0
1.330425 0.042168 0.0
1.314289 0.019369 0.0
1.305156 -0.008763 0.0
1.306170 -0.039394 0.0
1.320402 -0.063795 0.0
1.347964 -0.072910 0.0
1.385456 -0.060253 0.0
1.424868 -0.024795 0.0
1.455050 0.024685 0.0
1.470615 0.075072 0.0
1.473482 0.121027 0.0
1.466599 0.160156 0.0
1.452521 0.191660 0.0
1.433109 0.215479 0.0
1.409600 0.231815 0.0
1.382765 0.240922 0.0
1.353068 0.243064 0.0
1.320793 0.238575 0.0
1.286168 0.227942 0.0
1.249494 0.211865 0.0
1.211268 0.191247 0.0
1.172265 0.167104 0.0
1.133508 0.140471 0.0
1.096040 0.112456 0.0
1.060451 0.084452 0.0
1.026307 0.058246 0.0
0.991972 0.035547 0.0
0.955286 0.016927 0.0
0.915162 0.000813 0.0
0.873519 -0.016314 0.0
0.836274 -0.037912 0.0
0.810777 -0.064432 0.0
0.801569 -0.093175 0.0
0.809227 -0.119813 0.0
0.832025 -0.140276 0.0
0.867799 -0.151520 0.0
0.914711 -0.151510 0.0
0.971174 -0.139080 0.0
1.035442 -0.113978 0.0
1.105183 -0.077090 0.0
1.176027 -0.031974 0.0
1.239245 0.014329 0.0
1.287448 0.054907 0.0
1.319851 0.086893 0.0
1.338205 0.110266 0.0
1.344229 0.125380 0.0
1.339638 0.132895 0.0
1.326159 0.133716 0.0
1.305496 0.128911 0.0
1.279299 0.119642 0.0
1.249107 0.107109 0.0
1.216284 0.092544 0.0
1.181940 0.077263 0.0
1.146826 0.062720 0.0
1.111300 0.050532 0.0
1.075411 0.042122 0.0
1.039108 0.038158 0.0
1.002594 0.038073 0.0
0.966653 0.039938 0.0
0.932757 0.041026 0.0
0.902874 0.038767 0.0
0.879019 0.031551 0.0
0.862767 0.019062 0.0
0.854896 0.002083 0.0
0.855272 -0.017942 0.0
0.863082 -0.038972 0.0
0.877239 -0.059034 0.0
0.896656 -0.076629 0.0
0.920370 -0.090751 0.0
0.947563 -0.100771 0.0
0.977547 -0.106316 0.0
1.009707 -0.107193 0.0
1.043435 -0.103371 0.0
1.078050 -0.095042 0.0
1.112705 -0.082726 0.0
1.146284 -0.067415 0.0
1.177318 -0.050684 0.0
1.203967 -0.034634 0.0
1.222957 -0.023624 0.0
1.000526 -0.016160 0.0
1.002679 -0.048945 0.0
1.007346 -0.084097 0.0
1.015560 -0.123685 0.0
1.029468 -0.170003 0.0
1.053152 -0.225407 0.0
1.093967 -0.291584 0.0
1.163349 -0.364823 0.0
1.288767 -0.460375 0.0
1.405272 -0.363885 0.0
1.446151 -0.256993 0.0
1.449717 -0.175709 0.0
1.442057 -0.112020 0.0
1.430797 -0.058009 0.0
1.416237 -0.011541 0.0
1.396646 0.028899 0.0
1.370841 0.061596 0.0
1.339303 0.084879 0.0
1.303410 0.097516 0.0
1.265113 0.098890 0.0
1.226659 0.089107 0.0
1.190387 0.069055 0.0
1.158463 0.040541 0.0
1.132035 0.005627 0.0
1.113293 -0.036057 0.0
1.108285 -0.076356 0.0
1.123255 -0.102881 0.0
1.160094 -0.104614 0.0
1.214682 -0.074434 0.0
1.274120 -0.015295 0.0
1.320954 0.052653 0.0
1.349365 0.112168 0.0
1.364031 0.161233 0.0
1.368453 0.200238 0.0
1.364768 0.229997 0.0
1.354296 0.251277 0.0
1.337920 0.264671 0.0
1.316296 0.270637 0.0
1.289977 0.269597 0.0
1.259491 0.262031 0.0
1.225415 0.248526 0.0
1.188448 0.229780 0.0
1.149439 0.206583 0.0
1.109288 0.179901 0.0
1.068511 0.151270 0.0
1.026445 0.123294 0.0
0.980697 0.099296 0.0
0.928320 0.081209 0.0
0.869263 0.067007 0.0
0.809323 0.050797 0.0
0.758347 0.026321 0.0
0.724217 -0.009173 0.0
0.709454 -0.052912 0.0
0.711986 -0.098020 0.0
0.727767 -0.138407 0.0
0.753532 -0.170245 0.0
0.787506 -0.191298 0.0
0.828978 -0.200118 0.0
0.877701 -0.195659 0.0
0.933359 -0.177325 0.0
0.995172 -0.145297 0.0
1.061580 -0.101018 0.0
1.129637 -0.047902 0.0
1.192312 0.006261 0.0
1.241975 0.053473 0.0
1.276667 0.090640 0.0
1.297686 0.117964 0.0
1.306536 0.136052 0.0
1.304790 0.145784 0.0
1.294044 0.148252 0.0
1.275854 0.144688 0.0
1.251678 0.136431 0.0
1.222801 0.124921 0.0
1.190265 0.111766 0.0
1.154810 0.098786 0.0
1.116915 0.087888 0.0
1.076966 0.080603 0.0
1.035554 0.077392 0.0
0.993785 0.077122 0.0
0.953437 0.077178 0.0
0.916780 0.074337 0.0
0.886126 0.065993 0.0
0.863278 0.051028 0.0
0.849158 0.029957 0.0
0.843747 0.004470 0.0
0.846234 -0.023192 0.0
0.855349 -0.050648 0.0
0.869775 -0.075942 0.0
0.888364 -0.097728 0.0
0.910181 -0.115183 0.0
0.934499 -0.127850 0.0
0.960766 -0.135488 0.0
0.988561 -0.137976 0.0
1.017523 -0.135279 0.0
1.047261 -0.127487 0.0
1.077247 -0.114921 0.0
1.106706 -0.098259 0.0
1.134503 -0.078669 0.0
1.159052 -0.057846 0.0
1.177331 -0.037681 0.0
0.999988 -0.016674 0.0
0.999939 -0.050534 0.0
0.999990 -0.087226 0.0
1.000749 -0.129529 0.0
1.003785 -0.181103 0.0
1.012831 -0.247037 0.0
1.036577 -0.334514 0.0
1.094298 -0.448995 0.0
1.249961 -0.657283 0.0
1.361408 -0.394928 0.0
1.325744 -0.231164 0.0
1.269012 -0.148371 0.0
1.229045 -0.091730 0.0
1.204200 -0.042195 0.0
1.183995 0.007408 0.0
1.159565 0.053971 0.0
1.128447 0.093447 0.0
1.089986 0.123028 0.0
1.044398 0.140847 0.0
0.992311 0.145943 0.0
0.934555 0.138264 0.0
0.872592 0.118135 0.0
0.810065 0.085912 0.0
0.754532 0.042217 0.0
0.714293 -0.013666 0.0
0.699413 -0.078857 0.0
0.717661 -0.133597 0.0
0.767080 -0.160156 0.0
0.841369 -0.147768 0.0
0.933700 -0.093730 0.0
1.029314 -0.011361 0.0
1.107295 0.069789 0.0
1.162134 0.134108 0.0
1.200331 0.184745 0.0
1.225319 0.224188 0.0
1.238929 0.253948 0.0
1.242388 0.274917 0.0
1.236729 0.287674 0.0
1.222918 0.292689 0.0
1.201902 0.290441 0.0
1.174613 0.281480 0.0
1.141954 0.266452 0.0
1.104664 0.246209 0.0
1.062898 0.222192 0.0
1.015562 0.197092 0.0
0.960265 0.174835 0.0
0.895365 0.158402 0.0
0.823752 0.146093 0.0
0.754508 0.130424 0.0
0.699179 0.102650 0.0
0.665403 0.059221 0.0
0.653766 0.003694 0.0
0.659038 -0.056288 0.0
0.674645 -0.112782 0.0
0.696349 -0.161131 0.0
0.722258 -0.199196 0.0
0.751892 -0.225954 0.0
0.785595 -0.240637 0.0
0.824115 -0.242382 0.0
0.868182 -0.230327 0.0
0.918102 -0.204029 0.0
0.973449 -0.164040 0.0
1.032891 -0.112380 0.0
1.093920 -0.052967 0.0
1.150637 0.006320 0.0
1.196432 0.057306 0.0
1.229216 0.097495 0.0
1.249688 0.127198 0.0
1.258934 0.147139 0.0
1.258214 0.158363 0.0
1.248841 0.162141 0.0
1.232079 0.159917 0.0
1.209066 0.153324 0.0
1.180750 0.144216 0.0
1.147885 0.134657 0.0
1.111134 0.126663 0.0
1.071299 0.121611 0.0
1.029601 0.119493 0.0
0.987872 0.118519 0.0
0.948470 0.115532 0.0
0.913899 0.107212 0.0
0.886251 0.091420 0.0
0.866786 0.067914 0.0
0.855806 0.038170 0.0
0.852822 0.004651 0.0
0.856807 -0.029845 0.0
0.866465 -0.062768 0.0
0.880501 -0.092283 0.0
0.897768 -0.117242 0.0
0.917321 -0.137039 0.0
0.938440 -0.151430 0.0
0.960627 -0.160362 0.0
0.983578 -0.163848 0.0
1.007107 -0.161898 0.0
1.031047 -0.154545 0.0
1.055129 -0.141930 0.0
1.078858 -0.124439 0.0
1.101403 -0.102830 0.0
1.121511 -0.078341 0.0
1.136922 -0.050876 0.0
0.999367 -0.016029 0.0
0.996750 -0.048514 0.0
0.991281 -0.083829 0.0
0.982622 -0.125027 0.0
0.970546 -0.176563 0.0
0.955624 -0.245701 0.0
0.941601 -0.345573 0.0
0.944120 -0.498177 0.0
1.048844 -0.868488 0.0
1.057039 -0.195684 0.0
0.880262 -0.099530 0.0
0.749604 -0.081856 0.0
0.689777 -0.058451 0.0
0.666046 -0.026898 0.0
0.655718 0.022645 0.0
0.644055 0.074826 0.0
0.623945 0.123819 0.0
0.590281 0.164782 0.0
0.540636 0.194326 0.0
0.475232 0.209954 0.0
0.397872 0.209367 0.0
0.318322 0.188545 0.0
0.252525 0.143827 0.0
0.217015 0.075345 0.0
0.221854 -0.011394 0.0
0.262023 -0.106419 0.0
0.323220 -0.185480 0.0
0.397781 -0.232253 0.0
0.485155 -0.237333 0.0
0.586228 -0.197570 0.0
0.700816 -0.117722 0.0
0.818051 -0.019066 0.0
0.916612 0.069563 0.0
0.990135 0.137569 0.0
1.045352 0.191159 0.0
1.085241 0.233478 0.0
1.111307 0.265861 0.0
1.124723 0.288974 0.0
1.126629 0.303294 0.0
1.118163 0.309318 0.0
1.100397 0.307657 0.0
1.074185 0.299146 0.0
1.039827 0.285163 0.0
0.996631 0.268201 0.0
0.943049 0.252001 0.0
0.878565 0.239707 0.0
0.806984 0.230012 0.0
0.737844 0.215237 0.0
0.682856 0.185511 0.0
0.649592 0.136156 0.0
0.638313 0.070770 0.0
0.644013 -0.001920 0.0
0.660120 -0.072053 0.0
0.681341 -0.133844 0.0
0.704650 -0.185081 0.0
0.728651 -0.225155 0.0
0.753067 -0.254045 0.0
0.778489 -0.271671 0.0
0.806143 -0.277523 0.0
0.837537 -0.270647 0.0
0.873954 -0.250047 0.0
0.915977 -0.215391 0.0
0.963209 -0.167703 0.0
1.014258 -0.109721 0.0
1.066645 -0.046029 0.0
1.115114 0.015391 0.0
1.154386 0.067355 0.0
1.182841 0.108410 0.0
1.200686 0.138836 0.0
1.208601 0.159470 0.0
1.207487 0.171520 0.0
1.198309 0.176478 0.0
1.181983 0.176101 0.0
1.159333 0.172404 0.0
1.131124 0.167543 0.0
1.098211 0.163440 0.0
1.061776 0.161104 0.0
1.023531 0.159943 0.0
0.985730 0.157600 0.0
0.950893 0.150689 0.0
0.921317 0.136203 0.0
0.898613 0.112781 0.0
0.883507 0.081124 0.0
0.875938 0.043510 0.0
0.875292 0.002942 0.0
0.880590 -0.037418 0.0
0.890637 -0.074900 0.0
0.904196 -0.107746 0.0
0.920116 -0.134967 0.0
0.937420 -0.156172 0.0
0.955363 -0.171359 0.0
0.973461 -0.180719 0.0
0.991483 -0.184464 0.0
1.009392 -0.182719 0.0
1.027230 -0.175503 0.0
1.044990 -0.162814 0.0
1.062470 -0.144765 0.0
1.079161 -0.121740 0.0
1.094185 -0.094564 0.0
1.105990 -0.061868 0.0
0.998770 -0.014166 0.0
0.993689 -0.042679 0.0
0.982859 -0.073365 0.0
0.964804 -0.108778 0.0
0.936797 -0.152728 0.0
0.893843 -0.211660 0.0
0.826148 -0.297897 0.0
0.714694 -0.436919 0.0
0.322455 -0.749912 0.0
-0.484348 0.266184 0.0
-0.484348 0.000000 0.0
-0.029170 -0.019985 0.0
-0.039509 -0.059343 0.0
0.017744 -0.059528 0.0
0.100297 -0.016949 0.0
0.160914 0.065465 0.0
0.175823 0.138382 0.0
0.158916 0.200790 0.0
0.118288 0.248591 0.0
0.063137 0.276244 0.0
0.005781 0.277793 0.0
-0.040498 0.245948 0.0
-0.065296 0.177019 0.0
-0.062618 0.074983 0.0
-0.031941 -0.046547 0.0
0.019097 -0.162473 0.0
0.081460 -0.252985 0.0
0.151903 -0.309751 0.0
0.231712 -0.327018 0.0
0.323995 -0.301242 0.0
0.430481 -0.235123 0.0
0.550098 -0.138517 0.0
0.672773 -0.032222 0.0
0.778346 0.060257 0.0
0.859211 0.132389 0.0
0.921181 0.190389 0.0
0.966952 0.237113 0.0
0.997801 0.273458 0.0
1.014797 0.299908 0.0
1.018968 0.317000 0.0
1.011193 0.325516 0.0
0.991959 0.326734 0.0
0.961068 0.322824 0.0
0.917801 0.317003 0.0
0.862366 0.312215 0.0
0.798556 0.307787 0.0
0.735237 0.296831 0.0
0.683763 0.269031 0.0
0.652297 0.218172 0.0
0.642168 0.146888 0.0
0.649247 0.064240 0.0
0.667376 -0.019219 0.0
0.690879 -0.094362 0.0
0.715882 -0.157759 0.0
0.740157 -0.208750 0.0
0.762467 -0.247798 0.0
0.782423 -0.275775 0.0
0.800486 -0.293426 0.0
0.817968 -0.300905 0.0
0.836834 -0.297526 0.0
0.859235 -0.281985 0.0
0.886846 -0.253086 0.0
0.920321 -0.210716 0.0
0.959096 -0.156531 0.0
1.001535 -0.094045 0.0
1.044938 -0.028464 0.0
1.084608 0.032267 0.0
1.116596 0.083055 0.0
1.139773 0.123170 0.0
1.154023 0.152972 0.0
1.159702 0.173454 0.0
1.157373 0.186052 0.0
1.147674 0.192553 0.0
1.131271 0.195006 0.0
1.108923 0.195498 0.0
1.081648 0.195673 0.0
1.050913 0.196042 0.0
1.018714 0.195449 0.0
0.987423 0.191186 0.0
0.959385 0.179978 0.0
0.936450 0.159424 0.0
0.919702 0.129013 0.0
0.909470 0.090230 0.0
0.905551 0.045892 0.0
0.907405 -0.000649 0.0
0.914170 -0.045890 0.0
0.924728 -0.087033 0.0
0.937888 -0.122332 0.0
0.952511 -0.150923 0.0
0.967605 -0.172615 0.0
0.982414 -0.187667 0.0
0.996463 -0.196558 0.0
1.009580 -0.199764 0.0
1.021848 -0.197595 0.0
1.033514 -0.190131 0.0
1.044838 -0.177270 0.0
1.055935 -0.158887 0.0
1.066651 -0.135025 0.0
1.076496 -0.106148 0.0
1.084484 -0.070077 0.0
0.998329 -0.011265 0.0
0.991439 -0.033608 0.0
0.976741 -0.056908 0.0
0.952077 -0.082516 0.0
0.913282 -0.112188 0.0
0.852321 -0.148284 0.0
0.752355 -0.193613 0.0
0.573183 -0.250577 0.0
0.228312 -0.301352 0.0
0.000000 0.266184 0.0
-0.000000 -0.000000 0.0
0.000000 0.000000 0.0
-0.038213 -0.039087 0.0
-0.080317 -0.094059 0.0
-0.084522 -0.060765 0.0
-0.080095 0.044237 0.0
-0.079771 0.144377 0.0
-0.096140 0.228071 0.0
-0.124378 0.290176 0.0
-0.157308 0.322740 0.0
-0.186122 0.317466 0.0
-0.201798 0.268230 0.0
-0.197283 0.175021 0.0
-0.168490 0.045510 0.0
-0.121500 -0.094742 0.0
-0.068915 -0.217900 0.0
-0.015099 -0.313737 0.0
0.040816 -0.375357 0.0
0.101420 -0.401825 0.0
0.172452 -0.389750 0.0
0.258475 -0.339124 0.0
0.360142 -0.255800 0.0
0.473692 -0.151164 0.0
0.589123 -0.041804 0.0
0.689437 0.053270 0.0
0.767480 0.129494 0.0
0.827509 0.192208 0.0
0.871575 0.243447 0.0
0.900629 0.283869 0.0
0.915370 0.314127 0.0
0.916244 0.335290 0.0
0.903305 0.349133 0.0
0.876384 0.358237 0.0
0.836118 0.365123 0.0
0.785943 0.369705 0.0
0.733556 0.366494 0.0
0.689423 0.345578 0.0
0.662142 0.299039 0.0
0.654503 0.227270 0.0
0.663769 0.138653 0.0
0.684875 0.044289 0.0
0.712265 -0.044788 0.0
0.741313 -0.121344 0.0
0.769229 -0.183698 0.0
0.794254 -0.232111 0.0
0.815269 -0.267763 0.0
0.831760 -0.292256 0.0
0.843917 -0.307165 0.0
0.852796 -0.313526 0.0
0.860374 -0.311350 0.0
0.869298 -0.299487 0.0
0.882243 -0.276140 0.0
0.901085 -0.239980 0.0
0.926334 -0.191291 0.0
0.957093 -0.132483 0.0
0.991427 -0.067763 0.0
1.026255 -0.002932 0.0
1.057617 0.054905 0.0
1.082771 0.102989 0.0
1.100763 0.140910 0.0
1.111336 0.169264 0.0
1.114607 0.189300 0.0
1.110898 0.202712 0.0
1.100704 0.211444 0.0
1.084760 0.217351 0.0
1.064193 0.221661 0.0
1.040630 0.224353 0.0
1.016140 0.223827 0.0
0.992953 0.217286 0.0
0.973021 0.201849 0.0
0.957672 0.175837 0.0
0.947527 0.139494 0.0
0.942665 0.094844 0.0
0.942840 0.045022 0.0
0.947590 -0.006383 0.0
0.956115 -0.055445 0.0
0.967323 -0.099244 0.0
0.980077 -0.136035 0.0
0.993290 -0.165056 0.0
1.006021 -0.186309 0.0
1.017554 -0.200316 0.0
1.027458 -0.207863 0.0
1.035620 -0.209737 0.0
1.042234 -0.206504 0.0
1.047725 -0.198379 0.0
1.052610 -0.185231 0.0
1.057330 -0.166744 0.0
1.062098 -0.142651 0.0
1.066811 -0.113080 0.0
1.070954 -0.075277 0.0
0.998127 -0.007721 0.0
0.990447 -0.022582 0.0
0.974206 -0.036996 0.0
0.947364 -0.050922 0.0
0.906233 -0.063857 0.0
0.844764 -0.074183 0.0
0.753626 -0.076609 0.0
0.621630 -0.056413 0.0
0.449851 0.026606 0.0
0.177839 0.159477 0.0
0.000000 0.000000 0.0
-0.000000 -0.000000 0.0
0.000000 0.000000 0.0
-0.043764 -0.045084 0.0
-0.100544 -0.047435 0.0
-0.128998 0.054935 0.0
-0.154995 0.159350 0.0
-0.174261 0.248733 0.0
-0.190857 0.314349 0.0
-0.204375 0.345016 0.0
-0.209870 0.329499 0.0
-0.200031 0.262035 0.0
-0.168132 0.144802 0.0
-0.114426 -0.006770 0.0
-0.053647 -0.150232 0.0
-0.001025 -0.267615 0.0
0.040036 -0.358900 0.0
0.073155 -0.419227 0.0
0.104683 -0.450088 0.0
0.141792 -0.449627 0.0
0.192390 -0.415869 0.0
0.261513 -0.349846 0.0
0.348479 -0.257635 0.0
0.447323 -0.149608 0.0
0.547618 -0.039535 0.0
0.635106 0.056768 0.0
0.703761 0.136251 0.0
0.756158 0.202942 0.0
0.793330 0.258148 0.0
0.815641 0.302795 0.0
0.823164 0.338225 0.0
0.815957 0.366344 0.0
0.794810 0.389094 0.0
0.762647 0.406696 0.0
0.725770 0.415184 0.0
0.693226 0.405946 0.0
0.673456 0.370030 0.0
0.670509 0.304814 0.0
0.683282 0.216361 0.0
0.707890 0.115689 0.0
0.739870 0.014166 0.0
0.774352 -0.076537 0.0
0.807450 -0.151740 0.0
0.837116 -0.210883 0.0
0.862016 -0.254850 0.0
0.881300 -0.285323 0.0
0.894532 -0.304419 0.0
0.901743 -0.314370 0.0
0.903618 -0.317075 0.0
0.901749 -0.313509 0.0
0.898716 -0.303219 0.0
0.897733 -0.284370 0.0
0.901803 -0.254662 0.0
0.912760 -0.212815 0.0
0.930766 -0.159724 0.0
0.954493 -0.098584 0.0
0.981669 -0.034115 0.0
1.008975 0.027419 0.0
1.033196 0.081100 0.0
1.052526 0.125477 0.0
1.066091 0.160559 0.0