# vtk DataFile Version 3.0
Scalar Field
ASCII
DATASET RECTILINEAR_GRID
DIMENSIONS 100 26 1
X_COORDINATES 100 double
0.050000 0.150000 0.250000 0.350000 0.450000 0.550000 0.650000 0.750000 0.850000 0.950000 1.050000 1.150000 1.250000 1.350000 1.450000 1.550000 1.650000 1.750000 1.850000 1.950000 2.050000 2.150000 2.250000 2.350000 2.450000 2.550000 2.650000 2.750000 2.850000 2.950000 3.050000 3.150000 3.250000 3.350000 3.450000 3.550000 3.650000 3.750000 3.850000 3.950000 4.050000 4.150000 4.250000 4.350000 4.450000 4.550000 4.650000 4.750000 4.850000 4.950000 5.050000 5.150000 5.250000 5.350000 5.450000 5.550000 5.650000 5.750000 5.850000 5.950000 6.050000 6.150000 6.250000 6.350000 6.450000 6.550000 6.650000 6.750000 6.850000 6.950000 7.050000 7.150000 7.250000 7.350000 7.450000 7.550000 7.650000 7.750000 7.850000 7.950000 8.050000 8.150000 8.250000 8.350000 8.450000 8.550000 8.650000 8.750000 8.850000 8.950000 9.050000 9.150000 9.250000 9.350000 9.450000 9.550000 9.650000 9.750000 9.850000 9.950000 
Y_COORDINATES 26 double
0.050000 0.150000 0.250000 0.350000 0.450000 0.550000 0.650000 0.750000 0.850000 0.950000 1.050000 1.150000 1.250000 1.350000 1.450000 1.550000 1.650000 1.750000 1.850000 1.950000 2.050000 2.150000 2.250000 2.350000 2.450000 2.550000 
Z_COORDINATES 1 double
0.0
POINT_DATA 2600
SCALARS Skalarfeld double 1
LOOKUP_TABLE default
0.266355
0.250965
0.235433
0.216742
0.193773
0.166068
0.133609
0.096819
0.056635
0.014533
-0.027582
-0.067671
-0.103915
-0.134982
-0.159770
-0.177614
-0.188630
-0.193263
-0.192209
-0.186325
-0.176547
-0.163816
-0.149023
-0.132974
-0.116381
-0.099867
-0.083982
-0.069216
-0.055981
-0.044586
-0.035184
-0.027728
-0.021998
-0.017694
-0.014579
-0.012572
-0.011773
-0.012399
-0.014667
-0.018663
-0.024216
-0.030811
-0.037528
-0.042980
-0.045379
-0.043324
-0.036138
-0.025452
-0.013786
-0.002421
0.008037
0.017336
0.025413
0.032294
0.038044
0.042753
0.046534
0.049375
0.051502
0.052514
0.052062
0.049813
0.045630
0.039772
0.032940
0.026059
0.019800
0.014246
0.009072
0.004045
-0.000653
-0.004513
-0.007039
-0.008037
-0.007648
-0.006041
-0.003593
-0.000618
0.002630
0.005872
0.008911
0.011565
0.013729
0.015501
0.017128
0.018910
0.021116
0.023912
0.027352
0.031459
0.036291
0.041935
0.048469
0.055939
0.064352
0.073682
0.083840
0.094815
0.106511
0.119570
0.257730
0.251146
0.238599
0.221062
0.198389
0.170377
0.137038
0.098797
0.056675
0.012363
-0.031893
-0.073741
-0.111158
-0.142606
-0.167326
-0.185062
-0.195692
-0.199700
-0.197832
-0.190990
-0.180162
-0.166339
-0.150464
-0.133395
-0.115890
-0.098613
-0.082154
-0.067038
-0.053709
-0.042498
-0.033549
-0.026758
-0.021788
-0.018207
-0.015681
-0.014092
-0.013541
-0.014273
-0.016549
-0.020498
-0.025990
-0.032553
-0.039281
-0.044680
-0.046608
-0.042995
-0.034767
-0.024874
-0.013674
-0.002632
0.007593
0.016716
0.024665
0.031470
0.037205
0.041974
0.045930
0.049331
0.051840
0.052966
0.052682
0.050516
0.046275
0.040261
0.033277
0.026365
0.020186
0.014677
0.009349
0.003931
-0.001263
-0.005511
-0.008173
-0.009078
-0.008516
-0.006654
-0.004104
-0.001016
0.002384
0.005843
0.009075
0.011800
0.013913
0.015565
0.017051
0.018683
0.020752
0.023429
0.026753
0.030747
0.035483
0.041068
0.047589
0.055089
0.063577
0.073044
0.083482
0.094697
0.106477
0.120238
0.261276
0.257043
0.246361
0.229799
0.207287
0.178557
0.143468
0.102341
0.056289
0.007409
-0.041242
-0.086625
-0.126430
-0.159218
-0.184322
-0.201714
-0.211386
-0.213911
-0.210124
-0.201018
-0.187680
-0.171226
-0.152736
-0.133213
-0.113562
-0.094583
-0.076995
-0.061450
-0.048486
-0.038428
-0.031301
-0.026847
-0.024373
-0.023000
-0.022140
-0.021565
-0.021369
-0.021849
-0.023346
-0.026078
-0.029997
-0.034680
-0.039233
-0.042268
-0.042214
-0.038161
-0.030608
-0.020751
-0.010723
-0.000840
0.008420
0.016750
0.024047
0.030323
0.035644
0.040104
0.043826
0.046920
0.049331
0.050968
0.051109
0.049388
0.045789
0.040608
0.034367
0.027849
0.021542
0.015473
0.009429
0.003419
-0.002097
-0.006393
-0.008928
-0.009628
-0.008810
-0.007203
-0.004860
-0.001769
0.001711
0.005194
0.008458
0.011267
0.013551
0.015347
0.016839
0.018335
0.020126
0.022442
0.025395
0.029090
0.033645
0.039181
0.045775
0.053451
0.062217
0.072055
0.082950
0.094902
0.107936
0.123864
0.272671
0.269197
0.259519
0.243607
0.221034
0.191144
0.153362
0.107657
0.055156
-0.001417
-0.057234
-0.107977
-0.151053
-0.185340
-0.210594
-0.227057
-0.235044
-0.235197
-0.228458
-0.215930
-0.198838
-0.178470
-0.156104
-0.132949
-0.110105
-0.088550
-0.069159
-0.052768
-0.040205
-0.031887
-0.027665
-0.026754
-0.028112
-0.030262
-0.031993
-0.032943
-0.033211
-0.033183
-0.033319
-0.033959
-0.035185
-0.036718
-0.037898
-0.037781
-0.035456
-0.030516
-0.023310
-0.014674
-0.005571
0.003236
0.011267
0.018484
0.024766
0.030116
0.034592
0.038282
0.041308
0.043790
0.045766
0.047135
0.047553
0.046719
0.044210
0.039932
0.034276
0.028029
0.021618
0.015273
0.009054
0.003152
-0.002023
-0.005982
-0.008428
-0.009369
-0.008987
-0.007486
-0.004923
-0.001846
0.001421
0.004702
0.007921
0.010710
0.012953
0.014664
0.015994
0.017212
0.018623
0.020466
0.022969
0.026324
0.030692
0.036214
0.042958
0.050892
0.060039
0.070426
0.082132
0.095339
0.110190
0.132228
0.290484
0.287396
0.278468
0.263200
0.240627
0.209385
0.168007
0.115597
0.052990
-0.016386
-0.083348
-0.141376
-0.188088
-0.223419
-0.248001
-0.262557
-0.267765
-0.264416
-0.253486
-0.236186
-0.213922
-0.188211
-0.160590
-0.132526
-0.105354
-0.080237
-0.058178
-0.040300
-0.028029
-0.022020
-0.021979
-0.026503
-0.033302
-0.040220
-0.045235
-0.047872
-0.048382
-0.047393
-0.045608
-0.043574
-0.041559
-0.039501
-0.037049
-0.033689
-0.028978
-0.022788
-0.015389
-0.007325
0.000789
0.008449
0.015415
0.021481
0.026657
0.030894
0.034284
0.036927
0.038989
0.040647
0.042034
0.043102
0.043572
0.043048
0.041116
0.037577
0.032640
0.026600
0.019973
0.013490
0.007335
0.001814
-0.002770
-0.006141
-0.008156
-0.008841
-0.008325
-0.006786
-0.004427
-0.001535
0.001688
0.005034
0.008047
0.010642
0.012660
0.014082
0.015018
0.015728
0.016519
0.017713
0.019620
0.022493
0.026535
0.031925
0.038612
0.046655
0.056080
0.066934
0.079359
0.093666
0.110405
0.138371
0.313986
0.311295
0.303330
0.289195
0.267263
0.235086
0.189575
0.127851
0.049431
-0.042286
-0.126075
-0.192480
-0.241621
-0.276312
-0.298704
-0.309835
-0.311022
-0.302901
-0.286337
-0.262651
-0.233497
-0.200709
-0.166168
-0.131678
-0.098868
-0.069104
-0.043429
-0.023163
-0.010877
-0.007813
-0.013571
-0.025886
-0.040965
-0.054335
-0.063228
-0.067356
-0.067455
-0.064702
-0.060256
-0.054991
-0.049411
-0.043673
-0.037683
-0.031231
-0.024158
-0.016484
-0.008444
-0.000415
0.007206
0.014102
0.020074
0.024974
0.028803
0.031762
0.033871
0.035251
0.036166
0.036826
0.037494
0.038212
0.038721
0.038552
0.037188
0.034265
0.029715
0.023750
0.017089
0.010409
0.004120
-0.001147
-0.005192
-0.007886
-0.009211
-0.009267
-0.008228
-0.006303
-0.003719
-0.000709
0.002505
0.005696
0.008591
0.010995
0.012743
0.013742
0.014081
0.014011
0.013902
0.014166
0.015186
0.017283
0.020697
0.025588
0.032005
0.040000
0.049554
0.060694
0.073572
0.088564
0.106410
0.136180
0.342438
0.340329
0.333928
0.322018
0.302266
0.270785
0.221759
0.147958
0.044141
-0.089720
-0.196677
-0.268126
-0.314471
-0.344851
-0.363132
-0.369378
-0.365756
-0.351780
-0.328117
-0.296291
-0.258329
-0.216507
-0.173173
-0.130589
-0.090792
-0.055452
-0.025727
-0.002114
0.011101
0.011272
-0.001073
-0.022730
-0.048421
-0.071703
-0.085921
-0.091210
-0.090133
-0.084760
-0.076961
-0.068044
-0.058758
-0.049435
-0.040145
-0.030852
-0.021544
-0.012312
-0.003365
0.005018
0.012563
0.019056
0.024346
0.028305
0.030835
0.031883
0.031740
0.031026
0.030591
0.030028
0.029869
0.030341
0.031143
0.031670
0.031260
0.029372
0.025732
0.020394
0.013804
0.006563
0.000054
-0.005232
-0.009031
-0.011239
-0.011917
-0.011252
-0.009498
-0.006935
-0.003837
-0.000458
0.002969
0.006224
0.009068
0.011268
0.012622
0.013025
0.012550
0.011465
0.010191
0.009224
0.009049
0.010083
0.012617
0.016803
0.022843
0.030695
0.040261
0.051506
0.064533
0.079673
0.097593
0.126122
0.374748
0.373511
0.369574
0.361584
0.346733
0.319673
0.270707
0.183794
0.036998
-0.182899
-0.311270
-0.370083
-0.400961
-0.421718
-0.435514
-0.438180
-0.430517
-0.410471
-0.378804
-0.337516
-0.289192
-0.236702
-0.183006
-0.130986
-0.083254
-0.041973
-0.008721
0.016423
0.032489
0.031216
0.014043
-0.014717
-0.048981
-0.081717
-0.106221
-0.114159
-0.112221
-0.104367
-0.093435
-0.081217
-0.068689
-0.056306
-0.044238
-0.032545
-0.021293
-0.010609
-0.000693
0.008227
0.015934
0.022244
0.026975
0.029906
0.030826
0.029710
0.026962
0.023394
0.019840
0.017829
0.017279
0.018125
0.019821
0.021597
0.022662
0.022347
0.020218
0.016151
0.010395
0.003543
-0.003461
-0.009377
-0.013289
-0.015391
-0.015739
-0.014565
-0.012201
-0.009007
-0.005334
-0.001493
0.002245
0.005633
0.008423
0.010368
0.011249
0.010947
0.009525
0.007266
0.004649
0.002275
0.000760
0.000624
0.002217
0.005722
0.011390
0.019053
0.028525
0.039684
0.052540
0.067300
0.084431
0.110213
0.409294
0.409236
0.408748
0.406712
0.400544
0.384476
0.345449
0.253616
0.034113
-0.379800
-0.481349
-0.478823
-0.476347
-0.484052
-0.498612
-0.505390
-0.497437
-0.473106
-0.434445
-0.384309
-0.325970
-0.262983
-0.199059
-0.137900
-0.082902
-0.036823
-0.001702
0.020841
0.035673
0.033950
0.016398
-0.011863
-0.045801
-0.079771
-0.107835
-0.125368
-0.125307
-0.117061
-0.104923
-0.091147
-0.076905
-0.062763
-0.048983
-0.035721
-0.023124
-0.011382
-0.000719
0.008626
0.016415
0.022389
0.026201
0.027428
0.025793
0.021504
0.015467
0.009088
0.003710
0.000667
0.000491
0.002452
0.005662
0.009182
0.012127
0.013758
0.013542
0.011225
0.006891
0.000995
-0.005646
-0.012010
-0.016807
-0.019188
-0.019641
-0.018374
-0.015745
-0.012183
-0.008118
-0.003939
0.000020
0.003467
0.006126
0.007731
0.008052
0.006960
0.004516
0.001029
-0.002951
-0.006711
-0.009516
-0.010752
-0.010032
-0.007090
-0.001777
0.005651
0.014911
0.025775
0.038133
0.052042
0.067741
0.090051
0.443892
0.445210
0.448855
0.454397
0.460583
0.463800
0.453329
0.394799
0.137274
-0.736988
-0.673454
-0.540328
-0.506419
-0.503710
-0.523462
-0.549351
-0.547084
-0.523268
-0.482596
-0.428550
-0.364899
-0.295855
-0.226017
-0.160240
-0.103106
-0.057909
-0.025519
-0.005339
0.002831
0.000899
-0.009666
-0.027779
-0.051005
-0.076019
-0.098723
-0.115103
-0.122545
-0.117576
-0.107013
-0.094240
-0.080540
-0.066556
-0.052645
-0.039077
-0.026124
-0.014081
-0.003269
0.005984
0.013326
0.018318
0.020395
0.019009
0.014037
0.006207
-0.002851
-0.011155
-0.017160
-0.019608
-0.018438
-0.014689
-0.009484
-0.003896
0.001136
0.004848
0.006676
0.006295
0.003670
-0.000891
-0.006716
-0.012859
-0.018275
-0.021620
-0.022560
-0.021658
-0.019217
-0.015694
-0.011583
-0.007347
-0.003392
-0.000066
0.002317
0.003468
0.003142
0.001207
-0.002269
-0.006941
-0.012186
-0.017199
-0.021152
-0.023364
-0.023417
-0.020963
-0.015998
-0.008865
0.000045
0.010386
0.021923
0.034557
0.048329
0.066726
0.476000
0.478652
0.486353
0.499586
0.519129
0.545849
0.579758
0.615664
0.688138
-0.024425
-0.596937
-0.520421
-0.507301
-0.504434
-0.518131
-0.546597
-0.558274
-0.540264
-0.504880
-0.455141
-0.395060
-0.329539
-0.264113
-0.204363
-0.154714
-0.118138
-0.093520
-0.077012
-0.069929
-0.063716
-0.060830
-0.062311
-0.068130
-0.077331
-0.087962
-0.097403
-0.103227
-0.104093
-0.098125
-0.088529
-0.077467
-0.065576
-0.053246
-0.040847
-0.028783
-0.017498
-0.007456
0.000862
0.006922
0.010073
0.009580
0.004943
-0.003560
-0.014504
-0.025616
-0.034637
-0.040100
-0.040816
-0.037514
-0.031437
-0.023884
-0.016028
-0.008845
-0.003089
0.000699
0.002188
0.001279
-0.001829
-0.006607
-0.012216
-0.017641
-0.021871
-0.023747
-0.023597
-0.021755
-0.018682
-0.014906
-0.010949
-0.007276
-0.004293
-0.002356
-0.001781
-0.002829
-0.005633
-0.010108
-0.015875
-0.022254
-0.028373
-0.033339
-0.036422
-0.037178
-0.035175
-0.030583
-0.023839
-0.015446
-0.005873
0.004513
0.015474
0.026892
0.040996
0.503165
0.506813
0.517535
0.536434
0.565646
0.608924
0.672863
0.768832
0.904512
0.941548
0.000000
-0.513608
-0.506795
-0.500216
-0.505372
-0.518346
-0.527470
-0.517776
-0.490231
-0.449892
-0.400976
-0.348983
-0.299960
-0.258905
-0.228698
-0.207149
-0.190240
-0.176547
-0.159708
-0.140248
-0.121048
-0.104267
-0.091334
-0.082953
-0.078963
-0.078257
-0.079084
-0.079652
-0.078608
-0.074031
-0.066881
-0.058498
-0.049160
-0.039266
-0.029325
-0.019921
-0.011673
-0.005237
-0.001349
-0.000857
-0.004565
-0.012748
-0.024560
-0.037917
-0.050150
-0.058969
-0.062999
-0.061202
-0.055203
-0.046413
-0.036279
-0.026061
-0.016758
-0.009092
-0.003550
-0.000419
0.000203
-0.001551
-0.005264
-0.010217
-0.015485
-0.020120
-0.023095
-0.023786
-0.022794
-0.020476
-0.017347
-0.013957
-0.010817
-0.008378
-0.007038
-0.007142
-0.008965
-0.012640
-0.018068
-0.024838
-0.032235
-0.039345
-0.045230
-0.049118
-0.050540
-0.048986
-0.044834
-0.038615
-0.030947
-0.022421
-0.013530
-0.004634
0.004029
0.013425
0.523554
0.527665
0.539732
0.560915
0.593313
0.640120
0.705322
0.790486
0.888160
0.978584
0.899095
0.000000
-0.498406
-0.490018
-0.478543
-0.474432
-0.471946
-0.462822
-0.440460
-0.410255
-0.377768
-0.348645
-0.327464
-0.315769
-0.309706
-0.303425
-0.294770
-0.274442
-0.244171
-0.209537
-0.174071
-0.140627
-0.111327
-0.087618
-0.070264
-0.059225
-0.053578
-0.051687
-0.051607
-0.051533
-0.049104
-0.044936
-0.039436
-0.032967
-0.026089
-0.019487
-0.013912
-0.010189
-0.009254
-0.012112
-0.019520
-0.031372
-0.046216
-0.061447
-0.074206
-0.082383
-0.083836
-0.079248
-0.070276
-0.058612
-0.045853
-0.033333
-0.022052
-0.012691
-0.005663
-0.001185
0.000687
0.000067
-0.002700
-0.007002
-0.011998
-0.016754
-0.020414
-0.022134
-0.022119
-0.020712
-0.018411
-0.015770
-0.013326
-0.011566
-0.010921
-0.011765
-0.014385
-0.018915
-0.025240
-0.032931
-0.041254
-0.049268
-0.056008
-0.060661
-0.062729
-0.061651
-0.058059
-0.052562
-0.045882
-0.038723
-0.031689
-0.025248
-0.019731
-0.015513
0.536317
0.540337
0.552056
0.572297
0.602338
0.643651
0.697411
0.763442
0.830497
0.854960
0.819606
0.706390
0.000000
-0.467068
-0.444118
-0.423904
-0.410131
-0.393427
-0.371641
-0.350907
-0.337134
-0.334639
-0.344737
-0.364281
-0.383617
-0.393084
-0.384161
-0.351037
-0.307749
-0.259175
-0.209727
-0.162888
-0.121144
-0.086126
-0.058774
-0.039404
-0.027647
-0.022343
-0.021625
-0.023281
-0.025286
-0.025281
-0.023815
-0.021135
-0.017795
-0.014535
-0.012215
-0.011823
-0.014481
-0.021276
-0.032781
-0.048407
-0.066114
-0.082892
-0.095756
-0.102605
-0.101229
-0.093631
-0.081675
-0.067269
-0.052118
-0.037584
-0.024639
-0.013903
-0.005710
-0.000198
0.002632
0.002904
0.000916
-0.002806
-0.007507
-0.012315
-0.016431
-0.018968
-0.019838
-0.019332
-0.017890
-0.016051
-0.014359
-0.013325
-0.013406
-0.014997
-0.018397
-0.023737
-0.030891
-0.039420
-0.048578
-0.057417
-0.064953
-0.070346
-0.072979
-0.072478
-0.069640
-0.065129
-0.059750
-0.054306
-0.049498
-0.045883
-0.043876
-0.045327
0.541622
0.545117
0.555222
0.572360
0.597147
0.629975
0.669880
0.711920
0.743314
0.737284
0.676692
0.593174
0.429246
0.000000
-0.408001
-0.371883
-0.357576
-0.330065
-0.304250
-0.289652
-0.291953
-0.312553
-0.351238
-0.399478
-0.440668
-0.459006
-0.439105
-0.397567
-0.344076
-0.285065
-0.225682
-0.169764
-0.119899
-0.077655
-0.043841
-0.018723
-0.002105
0.006750
0.009250
0.007409
0.003394
-0.000447
-0.002621
-0.003554
-0.003746
-0.003978
-0.005206
-0.008575
-0.015336
-0.026541
-0.042433
-0.061868
-0.082281
-0.100364
-0.113072
-0.118086
-0.113570
-0.103073
-0.088512
-0.071881
-0.054908
-0.038921
-0.024826
-0.013162
-0.004183
0.002047
0.005577
0.006542
0.005205
0.002015
-0.002360
-0.007101
-0.011400
-0.014611
-0.016205
-0.016480
-0.015814
-0.014718
-0.013737
-0.013393
-0.014162
-0.016457
-0.020579
-0.026654
-0.034547
-0.043810
-0.053696
-0.063260
-0.071522
-0.077677
-0.080633
-0.080955
-0.079134
-0.075918
-0.072183
-0.068801
-0.066551
-0.066071
-0.067852
-0.075397
0.540441
0.543193
0.551074
0.564132
0.582211
0.604520
0.628634
0.648859
0.654144
0.626589
0.548575
0.410914
0.265318
-0.148308
-0.405230
-0.351555
-0.325023
-0.281394
-0.248080
-0.235462
-0.250333
-0.290819
-0.350957
-0.417035
-0.469128
-0.484363
-0.458006
-0.411177
-0.352243
-0.288181
-0.224367
-0.164603
-0.111312
-0.065828
-0.028724
-0.000109
0.020174
0.032553
0.037889
0.037642
0.033779
0.028327
0.023041
0.019112
0.015782
0.012199
0.007329
-0.000067
-0.011262
-0.027100
-0.047368
-0.070365
-0.093098
-0.112073
-0.124372
-0.125832
-0.119164
-0.106578
-0.090298
-0.072371
-0.054476
-0.037847
-0.023289
-0.011249
-0.001904
0.004738
0.008757
0.010291
0.009559
0.006931
0.002980
-0.001552
-0.005887
-0.009400
-0.011547
-0.012423
-0.012375
-0.011893
-0.011513
-0.011766
-0.013140
-0.016053
-0.020807
-0.027516
-0.036030
-0.045896
-0.056375
-0.066531
-0.075383
-0.082063
-0.085648
-0.086932
-0.086383
-0.084769
-0.082992
-0.081961
-0.082504
-0.085328
-0.091014
-0.104865
0.534145
0.536039
0.541373
0.549895
0.560965
0.573151
0.583532
0.586713
0.573742
0.531290
0.442039
0.282504
0.003615
-0.561934
-0.458905
-0.350926
-0.296213
-0.248358
-0.211630
-0.205625
-0.229839
-0.279887
-0.347246
-0.416064
-0.465113
-0.467898
-0.440797
-0.393791
-0.335430
-0.272560
-0.210259
-0.151990
-0.099866
-0.054965
-0.017639
0.012192
0.034775
0.050367
0.059323
0.062385
0.060843
0.056279
0.050156
0.044611
0.038915
0.032354
0.023965
0.012549
-0.003009
-0.023191
-0.047269
-0.073070
-0.097295
-0.116292
-0.126881
-0.125790
-0.117541
-0.103989
-0.087263
-0.069287
-0.051595
-0.035278
-0.021021
-0.009180
0.000120
0.006904
0.011260
0.013307
0.013214
0.011264
0.007922
0.003831
-0.000292
-0.003830
-0.006260
-0.007508
-0.007884
-0.007850
-0.007934
-0.008667
-0.010540
-0.013971
-0.019249
-0.026468
-0.035465
-0.045785
-0.056701
-0.067308
-0.076676
-0.083730
-0.088114
-0.090565
-0.091538
-0.091786
-0.092198
-0.093677
-0.097069
-0.103140
-0.112579
-0.132555
0.524319
0.525357
0.528199
0.532427
0.537169
0.540795
0.540468
0.531590
0.507255
0.457838
0.370653
0.229223
0.013305
-0.257327
-0.305254
-0.282760
-0.252077
-0.222021
-0.202370
-0.203927
-0.230138
-0.278420
-0.339342
-0.396967
-0.424529
-0.422046
-0.396063
-0.353478
-0.301165
-0.244876
-0.188935
-0.136309
-0.088813
-0.047379
-0.012301
0.016545
0.039493
0.056899
0.069004
0.075999
0.078410
0.077195
0.073872
0.068730
0.061830
0.053024
0.041668
0.026802
0.007639
-0.015847
-0.042461
-0.069714
-0.094207
-0.112377
-0.119141
-0.117433
-0.109102
-0.096136
-0.080488
-0.063850
-0.047533
-0.032458
-0.019195
-0.008042
0.000898
0.007637
0.012243
0.014800
0.015421
0.014305
0.011806
0.008450
0.004861
0.001611
-0.000778
-0.002146
-0.002744
-0.002996
-0.003410
-0.004511
-0.006785
-0.010635
-0.016325
-0.023925
-0.033254
-0.043862
-0.055046
-0.065933
-0.075601
-0.083000
-0.088498
-0.092341
-0.095040
-0.097317
-0.100005
-0.103955
-0.109998
-0.118945
-0.131615
-0.156945
0.512545
0.512815
0.513449
0.513983
0.513515
0.510498
0.502486
0.485858
0.455631
0.405478
0.328110
0.216710
0.070589
-0.086752
-0.166953
-0.193645
-0.196659
-0.192156
-0.191396
-0.202625
-0.229104
-0.268734
-0.313481
-0.348928
-0.364089
-0.359692
-0.337804
-0.302867
-0.259800
-0.212991
-0.165898
-0.120986
-0.079836
-0.043322
-0.011788
0.014783
0.036630
0.054083
0.067452
0.077009
0.083006
0.086875
0.088635
0.085698
0.079167
0.069556
0.056606
0.039726
0.018581
-0.006380
-0.033597
-0.060447
-0.083655
-0.098657
-0.103914
-0.102495
-0.095620
-0.084876
-0.071819
-0.057792
-0.043843
-0.030724
-0.018927
-0.008738
-0.000297
0.006351
0.011211
0.014313
0.015719
0.015557
0.014090
0.011732
0.008996
0.006385
0.004398
0.003169
0.002540
0.002147
0.001513
0.000132
-0.002465
-0.006651
-0.012653
-0.020502
-0.030006
-0.040729
-0.052018
-0.063073
-0.072862
-0.081000
-0.087655
-0.093015
-0.097542
-0.101874
-0.106732
-0.112871
-0.121068
-0.132157
-0.147095
-0.176230
0.500248
0.499869
0.498666
0.496218
0.491721
0.483864
0.470702
0.449565
0.417078
0.369425
0.303028
0.216104
0.112194
0.005747
-0.070599
-0.115935
-0.140858
-0.155794
-0.169226
-0.187134
-0.211983
-0.242203
-0.272103
-0.293449
-0.302781
-0.298404
-0.281322
-0.254234
-0.220448
-0.183141
-0.144963
-0.107907
-0.073325
-0.042025
-0.014390
0.009505
0.029790
0.046719
0.060590
0.071694
0.080741
0.087956
0.091773
0.091512
0.087169
0.078785
0.066264
0.049467
0.028567
0.004448
-0.021101
-0.045501
-0.065345
-0.077192
-0.083002
-0.083533
-0.079749
-0.072711
-0.063466
-0.052959
-0.041984
-0.031164
-0.020965
-0.011727
-0.003688
0.002994
0.008223
0.011951
0.014198
0.015038
0.014675
0.013436
0.011740
0.010117
0.008782
0.007903
0.007406
0.006989
0.006214
0.004606
0.001732
-0.002733
-0.008955
-0.016923
-0.026431
-0.037087
-0.048308
-0.059339
-0.069501
-0.078570
-0.086488
-0.093426
-0.099757
-0.105986
-0.112689
-0.120485
-0.130058
-0.142225
-0.158047
-0.188549
0.488632
0.487716
0.485026
0.480249
0.472753
0.461520
0.445096
0.421607
0.388886
0.344776
0.287752
0.217984
0.139002
0.059288
-0.007414
-0.057008
-0.092316
-0.118467
-0.140554
-0.162384
-0.185613
-0.209364
-0.230418
-0.245161
-0.251187
-0.247380
-0.234261
-0.213507
-0.187342
-0.158033
-0.127572
-0.097522
-0.068980
-0.042626
-0.018802
0.002403
0.021064
0.037353
0.051481
0.063673
0.074445
0.082882
0.088348
0.090249
0.088235
0.082062
0.071566
0.056808
0.038296
0.017183
-0.004690
-0.024977
-0.040630
-0.052228
-0.059839
-0.063796
-0.064443
-0.062155
-0.057410
-0.050787
-0.042882
-0.034252
-0.025410
-0.016814
-0.008862
-0.001863
0.003943
0.008399
0.011543
0.013370
0.014105
0.014034
0.013498
0.012765
0.012103
0.011670
0.011398
0.011017
0.010127
0.008295
0.005144
0.000427
-0.005942
-0.013887
-0.023203
-0.033594
-0.044638
-0.055798
-0.066563
-0.076632
-0.085864
-0.094324
-0.102256
-0.110014
-0.118015
-0.126732
-0.136739
-0.148759
-0.163834
-0.192474
0.478693
0.477306
0.473375
0.466764
0.457056
0.443513
0.425098
0.400544
0.368509
0.327844
0.278042
0.219867
0.156073
0.091757
0.033602
-0.014939
-0.053951
-0.085498
-0.112198
-0.136203
-0.158526
-0.178779
-0.195478
-0.206690
-0.210962
-0.207761
-0.197504
-0.181362
-0.160922
-0.137856
-0.113671
-0.089566
-0.066371
-0.044573
-0.024372
-0.005771
0.011330
0.027043
0.041423
0.054569
0.066192
0.075777
0.082798
0.086695
0.087006
0.083400
0.075737
0.064205
0.049455
0.032656
0.015400
-0.000629
-0.014891
-0.027295
-0.037803
-0.046232
-0.052125
-0.055023
-0.054822
-0.051832
-0.046566
-0.039593
-0.031551
-0.023071
-0.014779
-0.007137
-0.000490
0.004919
0.008995
0.011833
0.013532
0.014346
0.014600
0.014580
0.014506
0.014475
0.014395
0.014002
0.012929
0.010792
0.007294
0.002303
-0.004156
-0.011912
-0.020810
-0.030899
-0.041823
-0.053218
-0.064722
-0.075889
-0.086387
-0.096122
-0.105222
-0.113920
-0.122505
-0.131329
-0.140896
-0.151736
-0.164588
-0.187797
0.471309
0.469403
0.464292
0.456134
0.444735
0.429589
0.409966
0.385021
0.353939
0.316149
0.271615
0.221189
0.166910
0.111999
0.060220
0.014117
-0.025527
-0.059234
-0.088119
-0.113229
-0.135100
-0.153559
-0.168016
-0.177208
-0.180492
-0.177737
-0.169407
-0.156468
-0.140181
-0.121862
-0.102691
-0.083574
-0.065086
-0.047481
-0.030744
-0.014685
0.000942
0.016283
0.031147
0.045201
0.057905
0.068868
0.077587
0.083524
0.086199
0.085272
0.080662
0.072663
0.061963
0.049551
0.036066
0.022319
0.008632
-0.005194
-0.019154
-0.032580
-0.044038
-0.051981
-0.055691
-0.055459
-0.051955
-0.045783
-0.037848
-0.028901
-0.019809
-0.011446
-0.004029
0.002234
0.007146
0.010748
0.013185
0.014706
0.015606
0.016141
0.016487
0.016701
0.016664
0.016098
0.014663
0.012030
0.008013
0.002659
-0.003874
-0.011467
-0.020017
-0.029486
-0.040139
-0.051897
-0.064283
-0.076559
-0.088085
-0.098598
-0.108198
-0.117125
-0.125608
-0.133785
-0.142334
-0.151653
-0.161926
-0.176074
0.467452
0.464657
0.458117
0.448469
0.435679
0.419368
0.398977
0.373926
0.343720
0.308098
0.267229
0.221897
0.173629
0.124610
0.077266
0.033517
-0.005617
-0.039926
-0.069678
-0.095227
-0.116771
-0.134260
-0.147291
-0.155229
-0.157865
-0.155353
-0.148259
-0.137494
-0.124165
-0.109388
-0.094126
-0.079068
-0.064572
-0.050678
-0.037164
-0.023605
-0.009449
0.005802
0.021408
0.036554
0.050736
0.063371
0.073905
0.081810
0.086621
0.088022
0.085999
0.080978
0.073674
0.064283
0.053285
0.041298
0.027938
0.012658
-0.004695
-0.023102
-0.040014
-0.052359
-0.058612
-0.059572
-0.056799
-0.050474
-0.041805
-0.032654
-0.023253
-0.014101
-0.005906
0.001012
0.006517
0.010651
0.013580
0.015565
0.016901
0.017805
0.018397
0.018709
0.018568
0.017630
0.015561
0.012087
0.007167
0.001040
-0.005802
-0.012988
-0.020680
-0.029382
-0.039669
-0.051654
-0.064755
-0.077896
-0.090055
-0.100746
-0.110080
-0.118488
-0.126644
-0.134612
-0.142361
-0.150200
-0.158195
-0.165628
0.468798
0.463556
0.454859
0.443621
0.429628
0.412447
0.391527
0.366443
0.336873
0.302719
0.264222
0.222078
0.177483
0.132057
0.087581
0.045609
0.007210
-0.027071
-0.057057
-0.082651
-0.103888
-0.120812
-0.132942
-0.140111
-0.142359
-0.140017
-0.133726
-0.124380
-0.113001
-0.100585
-0.087956
-0.075661
-0.063923
-0.052660
-0.041570
-0.030177
-0.017687
-0.002832
0.013282
0.029862
0.045793
0.060182
0.072380
0.081871
0.088219
0.091129
0.090630
0.087456
0.081840
0.074026
0.064816
0.053950
0.040830
0.024708
0.005194
-0.016764
-0.037970
-0.053766
-0.061115
-0.060847
-0.057320
-0.051714
-0.043722
-0.033967
-0.023962
-0.014438
-0.005930
0.001257
0.007004
0.011352
0.014467
0.016620
0.018164
0.019271
0.019959
0.020134
0.019626
0.018193
0.015467
0.011202
0.005428
-0.001420
-0.008650
-0.015760
-0.022890
-0.030781
-0.040284
-0.051726
-0.064613
-0.077850
-0.090297
-0.101285
-0.110796
-0.119219
-0.126818
-0.134229
-0.141501
-0.148736
-0.156024
-0.162671
0.479841
0.465766
0.453966
0.441347
0.426537
0.408738
0.387498
0.362403
0.333201
0.299849
0.262599
0.222073
0.179295
0.135622
0.092565
0.051522
0.013570
-0.020617
-0.050729
-0.076719
-0.098310
-0.115059
-0.126913
-0.133851
-0.136017
-0.133804
-0.127872
-0.119094
-0.108442
-0.096852
-0.085092
-0.073657
-0.062734
-0.052215
-0.041778
-0.030971
-0.019278
-0.006425
0.009581
0.027137
0.044247
0.059678
0.072697
0.082811
0.089636
0.092896
0.092551
0.088791
0.082832
0.075580
0.066901
0.056456
0.043668
0.027894
0.008860
-0.012579
-0.033677
-0.050236
-0.059122
-0.060879
-0.057039
-0.050726
-0.042635
-0.033173
-0.023334
-0.013920
-0.005479
0.001674
0.007409
0.011755
0.014862
0.016975
0.018343
0.019284
0.019861
0.019925
0.019265
0.017628
0.014721
0.010348
0.004559
-0.002271
-0.009554
-0.016856
-0.024244
-0.032291
-0.041676
-0.052671
-0.064909
-0.077538
-0.089632
-0.100581
-0.110244
-0.118836
-0.126619
-0.133979
-0.141233
-0.148447
-0.155586
-0.162781
