# vtk DataFile Version 3.0
Scalar Field
ASCII
DATASET RECTILINEAR_GRID
DIMENSIONS 100 26 1
X_COORDINATES 100 double
0.050000 0.150000 0.250000 0.350000 0.450000 0.550000 0.650000 0.750000 0.850000 0.950000 1.050000 1.150000 1.250000 1.350000 1.450000 1.550000 1.650000 1.750000 1.850000 1.950000 2.050000 2.150000 2.250000 2.350000 2.450000 2.550000 2.650000 2.750000 2.850000 2.950000 3.050000 3.150000 3.250000 3.350000 3.450000 3.550000 3.650000 3.750000 3.850000 3.950000 4.050000 4.150000 4.250000 4.350000 4.450000 4.550000 4.650000 4.750000 4.850000 4.950000 5.050000 5.150000 5.250000 5.350000 5.450000 5.550000 5.650000 5.750000 5.850000 5.950000 6.050000 6.150000 6.250000 6.350000 6.450000 6.550000 6.650000 6.750000 6.850000 6.950000 7.050000 7.150000 7.250000 7.350000 7.450000 7.550000 7.650000 7.750000 7.850000 7.950000 8.050000 8.150000 8.250000 8.350000 8.450000 8.550000 8.650000 8.750000 8.850000 8.950000 9.050000 9.150000 9.250000 9.350000 9.450000 9.550000 9.650000 9.750000 9.850000 9.950000 
Y_COORDINATES 26 double
0.050000 0.150000 0.250000 0.350000 0.450000 0.550000 0.650000 0.750000 0.850000 0.950000 1.050000 1.150000 1.250000 1.350000 1.450000 1.550000 1.650000 1.750000 1.850000 1.950000 2.050000 2.150000 2.250000 2.350000 2.450000 2.550000 
Z_COORDINATES 1 double
0.0
POINT_DATA 2600
SCALARS Skalarfeld double 1
LOOKUP_TABLE default
0.273601
0.258240
0.242779
0.224190
0.201340
0.173745
0.141343
0.104500
0.064082
0.021486
-0.021448
-0.062725
-0.100524
-0.133462
-0.160496
-0.180663
-0.193945
-0.200640
-0.201325
-0.196777
-0.187895
-0.175618
-0.160845
-0.144388
-0.126937
-0.109067
-0.091257
-0.073928
-0.057488
-0.042343
-0.028858
-0.017384
-0.008182
-0.001323
0.003412
0.006330
0.007696
0.007631
0.006088
0.002907
-0.002061
-0.008807
-0.017040
-0.026064
-0.034655
-0.040988
-0.043062
-0.040210
-0.032111
-0.021964
-0.011341
-0.001103
0.008272
0.016549
0.023654
0.029610
0.034499
0.038451
0.041616
0.044080
0.045993
0.046976
0.046779
0.045178
0.042123
0.037894
0.033087
0.028347
0.024010
0.019930
0.015723
0.011194
0.006579
0.002444
-0.000636
-0.002345
-0.002705
-0.001923
-0.000235
0.002076
0.004768
0.007572
0.010224
0.012553
0.014539
0.016262
0.017901
0.019692
0.021839
0.024448
0.027549
0.031176
0.035410
0.040368
0.046157
0.052837
0.060405
0.068796
0.077950
0.088614
0.264933
0.258382
0.245914
0.228495
0.205963
0.178089
0.144840
0.106585
0.064270
0.019503
-0.025548
-0.068586
-0.107611
-0.141079
-0.168032
-0.188240
-0.201324
-0.207591
-0.207644
-0.202295
-0.192482
-0.179188
-0.163362
-0.145861
-0.127423
-0.108658
-0.090076
-0.072125
-0.055239
-0.039878
-0.026359
-0.015045
-0.006220
-0.000052
0.003926
0.006117
0.006876
0.006365
0.004535
0.001197
-0.003836
-0.010607
-0.018874
-0.027984
-0.036671
-0.042869
-0.044147
-0.039245
-0.031338
-0.021878
-0.011536
-0.001461
0.007792
0.015968
0.022994
0.028903
0.033790
0.037805
0.041169
0.044088
0.046230
0.047296
0.047242
0.045735
0.042667
0.038363
0.033514
0.028826
0.024607
0.020579
0.016221
0.011308
0.006193
0.001631
-0.001656
-0.003343
-0.003569
-0.002644
-0.000764
0.001711
0.004584
0.007561
0.010321
0.012684
0.014671
0.016339
0.017878
0.019558
0.021603
0.024110
0.027098
0.030604
0.034727
0.039612
0.045383
0.052108
0.059801
0.068439
0.077790
0.088901
0.268389
0.264195
0.253607
0.237189
0.214858
0.186318
0.151389
0.110330
0.064173
0.014919
-0.034470
-0.081030
-0.122501
-0.157443
-0.185102
-0.205299
-0.217895
-0.223156
-0.221739
-0.214505
-0.202462
-0.186687
-0.168244
-0.148122
-0.127194
-0.106203
-0.085779
-0.066473
-0.048801
-0.033260
-0.020416
-0.010611
-0.003872
0.000155
0.001612
0.001529
0.000566
-0.001004
-0.003220
-0.006317
-0.010565
-0.016089
-0.022710
-0.029789
-0.036096
-0.039919
-0.039775
-0.035391
-0.027888
-0.018632
-0.009315
-0.000168
0.008313
0.015853
0.022350
0.027821
0.032355
0.036091
0.039202
0.041820
0.043935
0.045470
0.045903
0.044978
0.042624
0.039100
0.034890
0.030421
0.025953
0.021323
0.016270
0.010792
0.005358
0.000722
-0.002479
-0.004042
-0.004152
-0.003169
-0.001462
0.000879
0.003750
0.006796
0.009696
0.012319
0.014503
0.016297
0.017846
0.019406
0.021202
0.023367
0.026002
0.029221
0.033172
0.038015
0.043887
0.050874
0.059004
0.068260
0.078649
0.092537
0.279637
0.276208
0.266644
0.250911
0.228572
0.198947
0.161423
0.115907
0.063439
0.006623
-0.049826
-0.101700
-0.146501
-0.183155
-0.211372
-0.231221
-0.242821
-0.246419
-0.242711
-0.232611
-0.217220
-0.197754
-0.175446
-0.151476
-0.126910
-0.102677
-0.079564
-0.058237
-0.039301
-0.023453
-0.011430
-0.003609
0.000094
0.000317
-0.001855
-0.005571
-0.009233
-0.012413
-0.015141
-0.017727
-0.020551
-0.023863
-0.027612
-0.031342
-0.034180
-0.035053
-0.033165
-0.028442
-0.021539
-0.013390
-0.004811
0.003382
0.010777
0.017348
0.022951
0.027599
0.031365
0.034385
0.036836
0.038888
0.040632
0.042029
0.042823
0.042746
0.041502
0.038935
0.035282
0.030808
0.026049
0.020971
0.015633
0.010180
0.005036
0.000742
-0.002297
-0.003970
-0.004385
-0.003694
-0.002038
0.000442
0.003277
0.006205
0.009040
0.011722
0.013997
0.015826
0.017319
0.018649
0.020051
0.021748
0.023946
0.026841
0.030624
0.035476
0.041553
0.048988
0.057848
0.068169
0.080149
0.098410
0.297234
0.294199
0.285407
0.270358
0.248082
0.217197
0.176203
0.124143
0.061763
-0.007658
-0.075070
-0.134110
-0.182574
-0.220546
-0.248690
-0.267499
-0.277292
-0.278374
-0.271371
-0.257233
-0.237203
-0.212696
-0.185186
-0.156098
-0.126738
-0.098249
-0.071583
-0.047504
-0.026638
-0.010019
0.001227
0.006496
0.005972
0.000798
-0.007062
-0.015345
-0.022453
-0.027443
-0.030489
-0.032122
-0.032959
-0.033464
-0.033802
-0.033794
-0.032970
-0.030773
-0.026837
-0.021197
-0.014279
-0.006697
0.000943
0.008117
0.014600
0.020134
0.024724
0.028354
0.031095
0.033120
0.034647
0.035921
0.037120
0.038280
0.039206
0.039553
0.038930
0.037071
0.033901
0.029744
0.024743
0.019209
0.013731
0.008445
0.003737
-0.000042
-0.002658
-0.004052
-0.004297
-0.003520
-0.001883
0.000417
0.003131
0.006058
0.009013
0.011608
0.013760
0.015418
0.016626
0.017531
0.018368
0.019450
0.021074
0.023506
0.026986
0.031717
0.037879
0.045648
0.054989
0.066170
0.079495
0.100556
0.320438
0.317807
0.310000
0.296127
0.274558
0.242840
0.197858
0.136684
0.058748
-0.032719
-0.116605
-0.183717
-0.234497
-0.272115
-0.298959
-0.315756
-0.322898
-0.320603
-0.309180
-0.289612
-0.263369
-0.232182
-0.197850
-0.162120
-0.126599
-0.092689
-0.061535
-0.033983
-0.010541
0.007520
0.018194
0.020380
0.014326
0.001834
-0.013957
-0.029149
-0.040309
-0.046967
-0.049750
-0.049668
-0.047806
-0.044980
-0.041631
-0.037849
-0.033481
-0.028301
-0.022193
-0.015259
-0.007815
-0.000288
0.006898
0.013399
0.018998
0.023518
0.026925
0.029289
0.030771
0.031557
0.031932
0.032234
0.032690
0.033458
0.034390
0.035091
0.035063
0.033868
0.031261
0.027271
0.022083
0.016347
0.010693
0.005318
0.000867
-0.002443
-0.004503
-0.005335
-0.005058
-0.003843
-0.001884
0.000614
0.003445
0.006405
0.009284
0.011827
0.013851
0.015228
0.015958
0.016196
0.016236
0.016450
0.017220
0.018896
0.021779
0.026112
0.032090
0.039816
0.049464
0.061212
0.075359
0.097182
0.348495
0.346453
0.340229
0.328615
0.309288
0.278363
0.230016
0.156992
0.053980
-0.079104
-0.185415
-0.256846
-0.304321
-0.337702
-0.361711
-0.376097
-0.380477
-0.374369
-0.357491
-0.330996
-0.296788
-0.257067
-0.214082
-0.169995
-0.126796
-0.086228
-0.049716
-0.018275
0.007645
0.027825
0.038640
0.037939
0.026139
0.005730
-0.019187
-0.043418
-0.061598
-0.070149
-0.072204
-0.069743
-0.064616
-0.058131
-0.051033
-0.043633
-0.035978
-0.028030
-0.019797
-0.011412
-0.003129
0.004735
0.011875
0.018045
0.023069
0.026798
0.029113
0.029949
0.029441
0.028065
0.026581
0.025727
0.025235
0.025583
0.026641
0.027909
0.028748
0.028567
0.026946
0.023717
0.018993
0.013238
0.006880
0.001337
-0.003140
-0.006243
-0.007892
-0.008171
-0.007267
-0.005424
-0.002900
0.000057
0.003220
0.006377
0.009310
0.011785
0.013581
0.014542
0.014644
0.014046
0.013070
0.012154
0.011780
0.012405
0.014424
0.018130
0.023707
0.031306
0.041109
0.053163
0.067641
0.089094
0.380305
0.379137
0.375386
0.367713
0.353324
0.326890
0.278728
0.192812
0.047202
-0.170826
-0.297057
-0.354521
-0.385264
-0.408119
-0.428939
-0.443872
-0.447753
-0.438647
-0.415896
-0.381393
-0.337830
-0.288067
-0.234915
-0.181044
-0.128930
-0.080780
-0.038443
-0.003331
0.023649
0.044128
0.056402
0.054030
0.038360
0.012779
-0.018183
-0.049364
-0.075502
-0.090689
-0.092846
-0.088570
-0.080706
-0.071131
-0.060898
-0.050501
-0.040129
-0.029852
-0.019753
-0.009986
-0.000776
0.007617
0.014946
0.021004
0.025597
0.028498
0.029467
0.028394
0.025534
0.021613
0.017597
0.014442
0.013131
0.013523
0.015209
0.017498
0.019620
0.020867
0.020691
0.018775
0.015084
0.009904
0.003788
-0.002365
-0.007321
-0.010540
-0.012109
-0.012108
-0.010759
-0.008374
-0.005289
-0.001824
0.001737
0.005143
0.008153
0.010523
0.012020
0.012471
0.011839
0.010275
0.008135
0.005931
0.004262
0.003712
0.004773
0.007781
0.012906
0.020376
0.030221
0.042368
0.056817
0.077398
0.414240
0.414247
0.413940
0.412214
0.406506
0.391072
0.352886
0.262175
0.044285
-0.365703
-0.462784
-0.457676
-0.453434
-0.459927
-0.479340
-0.504318
-0.514821
-0.505775
-0.478407
-0.436595
-0.384150
-0.324654
-0.261514
-0.197982
-0.137145
-0.081868
-0.034589
0.002874
0.029329
0.044286
0.053992
0.050249
0.034862
0.011206
-0.017515
-0.047581
-0.074707
-0.094775
-0.103253
-0.099599
-0.091188
-0.080463
-0.068766
-0.056770
-0.044798
-0.033039
-0.021664
-0.010884
-0.000949
0.007878
0.015341
0.021183
0.025092
0.026671
0.025564
0.021761
0.015875
0.009146
0.003031
-0.001387
-0.002904
-0.001813
0.001070
0.004835
0.008593
0.011560
0.013119
0.012859
0.010627
0.006572
0.001168
-0.004794
-0.010369
-0.014274
-0.016099
-0.016218
-0.014798
-0.012184
-0.008779
-0.004982
-0.001150
0.002405
0.005403
0.007578
0.008685
0.008541
0.007097
0.004509
0.001168
-0.002330
-0.005274
-0.006964
-0.006829
-0.004497
0.000187
0.007494
0.017270
0.029319
0.043475
0.062950
0.448117
0.449493
0.453294
0.459107
0.465694
0.469461
0.459711
0.402123
0.146104
-0.721668
-0.650482
-0.515372
-0.480285
-0.473222
-0.490469
-0.529189
-0.559921
-0.556124
-0.528596
-0.484168
-0.427442
-0.362505
-0.293337
-0.223854
-0.157986
-0.099692
-0.052433
-0.018022
0.004030
0.015692
0.017868
0.014469
0.005510
-0.008659
-0.026946
-0.047601
-0.068022
-0.085068
-0.095906
-0.098468
-0.092166
-0.082802
-0.071879
-0.060192
-0.048189
-0.036192
-0.024497
-0.013424
-0.003310
0.005503
0.012672
0.017805
0.020414
0.019951
0.016084
0.009118
0.000238
-0.008738
-0.016026
-0.020499
-0.021137
-0.018645
-0.014069
-0.008482
-0.002866
0.001953
0.005334
0.006833
0.006227
0.003564
-0.000797
-0.006184
-0.011698
-0.016383
-0.018905
-0.019536
-0.018462
-0.016026
-0.012669
-0.008857
-0.005017
-0.001526
0.001290
0.003133
0.003742
0.002923
0.000624
-0.002987
-0.007480
-0.012185
-0.016302
-0.019045
-0.019779
-0.018105
-0.013865
-0.006799
0.002768
0.014520
0.028143
0.046331
0.479410
0.482104
0.489922
0.503356
0.523188
0.550287
0.584647
0.621053
0.693574
-0.014047
-0.572592
-0.494703
-0.482453
-0.477680
-0.489092
-0.521717
-0.558544
-0.569506
-0.546886
-0.506935
-0.453598
-0.391119
-0.324075
-0.257173
-0.195216
-0.142838
-0.103209
-0.076768
-0.061146
-0.052644
-0.049751
-0.045819
-0.043241
-0.043299
-0.046589
-0.053071
-0.061856
-0.071184
-0.078872
-0.083122
-0.082770
-0.076662
-0.068434
-0.058855
-0.048431
-0.037580
-0.026730
-0.016335
-0.006866
0.001205
0.007389
0.011122
0.011744
0.008651
0.001711
-0.008280
-0.019537
-0.029841
-0.037347
-0.040831
-0.039792
-0.035328
-0.028658
-0.020992
-0.013392
-0.006703
-0.001557
0.001618
0.002586
0.001338
-0.001867
-0.006472
-0.011663
-0.016507
-0.020119
-0.021415
-0.020995
-0.019100
-0.016162
-0.012679
-0.009133
-0.005955
-0.003522
-0.002163
-0.002161
-0.003720
-0.006891
-0.011493
-0.017060
-0.022872
-0.028067
-0.031798
-0.033385
-0.032406
-0.028624
-0.021935
-0.012770
-0.001563
0.011252
0.027891
0.505688
0.509359
0.520146
0.539153
0.568513
0.611957
0.676023
0.771946
0.907460
0.942341
0.000000
-0.489696
-0.484690
-0.480395
-0.487321
-0.506210
-0.528232
-0.540013
-0.525197
-0.493262
-0.448574
-0.395546
-0.339311
-0.285016
-0.237513
-0.201270
-0.177278
-0.161870
-0.151059
-0.141463
-0.128801
-0.113069
-0.096727
-0.081763
-0.069655
-0.061386
-0.057296
-0.056890
-0.058865
-0.061502
-0.063210
-0.062512
-0.058014
-0.051742
-0.044135
-0.035627
-0.026727
-0.018012
-0.010087
-0.003572
0.000878
0.002522
0.000574
-0.005512
-0.015531
-0.028143
-0.041085
-0.051946
-0.059001
-0.060643
-0.057428
-0.050585
-0.041537
-0.031634
-0.022004
-0.013505
-0.006735
-0.002076
0.000272
0.000288
-0.001830
-0.005620
-0.010369
-0.015212
-0.019317
-0.021550
-0.021974
-0.020863
-0.018618
-0.015740
-0.012743
-0.010098
-0.008223
-0.007480
-0.008174
-0.010519
-0.014564
-0.020116
-0.026687
-0.033528
-0.039740
-0.044438
-0.046905
-0.046707
-0.043446
-0.037334
-0.028839
-0.018502
-0.006857
0.007801
0.525150
0.529262
0.541337
0.562530
0.594930
0.641708
0.706816
0.791748
0.888780
0.977222
0.896554
0.000000
-0.482703
-0.480717
-0.474880
-0.477684
-0.483079
-0.482560
-0.469918
-0.441751
-0.405404
-0.365895
-0.327802
-0.295996
-0.274513
-0.262938
-0.258533
-0.254608
-0.245612
-0.226880
-0.201331
-0.172158
-0.142057
-0.113398
-0.088027
-0.067286
-0.052013
-0.042440
-0.038041
-0.037528
-0.039130
-0.041038
-0.041313
-0.038762
-0.034642
-0.029251
-0.023107
-0.016864
-0.011235
-0.006977
-0.004909
-0.005936
-0.010910
-0.020217
-0.033233
-0.048117
-0.062262
-0.073166
-0.079144
-0.078598
-0.072841
-0.063390
-0.051860
-0.039717
-0.028140
-0.017983
-0.009798
-0.003901
-0.000433
0.000611
-0.000594
-0.003657
-0.007948
-0.012665
-0.016964
-0.020107
-0.021343
-0.021096
-0.019677
-0.017562
-0.015270
-0.013299
-0.012095
-0.012050
-0.013490
-0.016636
-0.021539
-0.027996
-0.035513
-0.043327
-0.050524
-0.056192
-0.059586
-0.060258
-0.057706
-0.052429
-0.044958
-0.035919
-0.025919
-0.013875
0.536977
0.540978
0.552651
0.572808
0.602717
0.643816
0.697205
0.762649
0.828960
0.852273
0.815886
0.700878
0.000000
-0.468795
-0.456873
-0.442253
-0.432474
-0.416370
-0.392643
-0.363993
-0.335093
-0.310903
-0.295753
-0.292844
-0.302241
-0.318674
-0.334046
-0.338161
-0.325007
-0.294058
-0.256066
-0.214402
-0.172297
-0.132449
-0.096862
-0.066899
-0.043396
-0.026732
-0.016768
-0.012701
-0.013021
-0.015759
-0.018946
-0.020457
-0.019955
-0.017956
-0.014943
-0.011603
-0.008730
-0.007203
-0.008002
-0.012165
-0.020533
-0.033235
-0.049200
-0.066155
-0.081254
-0.091940
-0.096491
-0.093289
-0.084857
-0.072843
-0.058994
-0.044849
-0.031601
-0.020074
-0.010764
-0.003915
0.000397
0.002220
0.001726
-0.000739
-0.004621
-0.009181
-0.013613
-0.017207
-0.019258
-0.019846
-0.019255
-0.017931
-0.016387
-0.015133
-0.014635
-0.015307
-0.017492
-0.021419
-0.027138
-0.034445
-0.042844
-0.051577
-0.059728
-0.066373
-0.070747
-0.072386
-0.070780
-0.066688
-0.060693
-0.053480
-0.045708
-0.037106
0.541371
0.544830
0.554845
0.571832
0.596378
0.628847
0.668258
0.709629
0.740171
0.733022
0.671026
0.585871
0.418974
0.000000
-0.429638
-0.402402
-0.391881
-0.358739
-0.316372
-0.280793
-0.256760
-0.247232
-0.254480
-0.279453
-0.319354
-0.361759
-0.392093
-0.399394
-0.375239
-0.335882
-0.288248
-0.237133
-0.186339
-0.138748
-0.096352
-0.060386
-0.031511
-0.009985
0.004257
0.011697
0.013397
0.011054
0.006707
0.002197
-0.000608
-0.001800
-0.001845
-0.001459
-0.001500
-0.002959
-0.006956
-0.014605
-0.026632
-0.042825
-0.061664
-0.080518
-0.096379
-0.106790
-0.108607
-0.103144
-0.092374
-0.078228
-0.062566
-0.046946
-0.032531
-0.020085
-0.010035
-0.002556
0.002335
0.004722
0.004778
0.002808
-0.000698
-0.005071
-0.009550
-0.013453
-0.016074
-0.017342
-0.017468
-0.016857
-0.016006
-0.015426
-0.015596
-0.016944
-0.019826
-0.024474
-0.030938
-0.039015
-0.048216
-0.057796
-0.066853
-0.074469
-0.079877
-0.082567
-0.082188
-0.079700
-0.075700
-0.070908
-0.066016
-0.061808
0.539334
0.542041
0.549798
0.562641
0.580401
0.602262
0.625779
0.645230
0.649534
0.620732
0.541036
0.400723
0.252076
-0.170655
-0.451602
-0.402444
-0.375450
-0.318170
-0.256006
-0.209474
-0.186865
-0.188552
-0.215671
-0.264904
-0.327131
-0.386110
-0.424689
-0.424916
-0.395054
-0.350183
-0.297110
-0.241117
-0.186181
-0.135110
-0.089708
-0.050978
-0.019345
0.005115
0.022509
0.033109
0.037522
0.036903
0.032947
0.027459
0.022210
0.018503
0.015856
0.013534
0.010643
0.006108
-0.001274
-0.012586
-0.028325
-0.047878
-0.069312
-0.089704
-0.105882
-0.115114
-0.114570
-0.107166
-0.094721
-0.079251
-0.062616
-0.046318
-0.031440
-0.018660
-0.008328
-0.000561
0.004668
0.007460
0.007978
0.006480
0.003386
-0.000708
-0.005092
-0.009086
-0.012116
-0.013872
-0.014546
-0.014506
-0.014230
-0.014224
-0.014973
-0.016915
-0.020409
-0.025688
-0.032800
-0.041542
-0.051440
-0.061769
-0.071658
-0.080223
-0.086770
-0.090355
-0.091666
-0.091244
-0.089762
-0.087979
-0.086610
-0.087767
0.532253
0.534092
0.539279
0.547552
0.558256
0.569939
0.579660
0.581999
0.567963
0.524153
0.433046
0.270541
-0.013930
-0.593386
-0.500761
-0.395127
-0.339714
-0.280086
-0.220574
-0.171201
-0.147306
-0.157143
-0.195728
-0.256396
-0.326694
-0.389087
-0.422421
-0.414631
-0.383701
-0.338175
-0.285001
-0.229452
-0.175319
-0.125153
-0.080494
-0.042116
-0.010247
0.015213
0.034495
0.047812
0.055415
0.057852
0.056192
0.051887
0.046172
0.041154
0.036696
0.032127
0.026618
0.019093
0.008377
-0.006452
-0.025564
-0.047943
-0.071327
-0.092631
-0.108763
-0.115671
-0.113468
-0.104960
-0.091907
-0.076252
-0.059738
-0.043737
-0.029208
-0.016731
-0.006585
0.001152
0.006525
0.009630
0.010598
0.009633
0.007074
0.003429
-0.000660
-0.004543
-0.007714
-0.009752
-0.010784
-0.011149
-0.011306
-0.011752
-0.012973
-0.015408
-0.019414
-0.025219
-0.032862
-0.042146
-0.052613
-0.063573
-0.074191
-0.083618
-0.091145
-0.096076
-0.099319
-0.101325
-0.102789
-0.104492
-0.107167
-0.114539
0.521730
0.522709
0.525393
0.529355
0.533712
0.536815
0.535812
0.526079
0.500677
0.449916
0.360960
0.216916
-0.003432
-0.282199
-0.336581
-0.316092
-0.282188
-0.239283
-0.193372
-0.156492
-0.141959
-0.155801
-0.196040
-0.254667
-0.318216
-0.369337
-0.386002
-0.376613
-0.347679
-0.306091
-0.257796
-0.207405
-0.158230
-0.112474
-0.071453
-0.035813
-0.005723
0.018963
0.038557
0.053379
0.063649
0.069545
0.071507
0.070403
0.066928
0.062762
0.057681
0.051590
0.043957
0.033861
0.020294
0.002610
-0.018992
-0.043157
-0.067408
-0.088551
-0.103329
-0.107977
-0.105429
-0.097127
-0.084833
-0.070314
-0.055107
-0.040394
-0.026989
-0.015378
-0.005800
0.001678
0.007080
0.010470
0.011934
0.011614
0.009763
0.006796
0.003263
-0.000249
-0.003264
-0.005341
-0.006533
-0.007142
-0.007596
-0.008382
-0.009977
-0.012813
-0.017235
-0.023456
-0.031508
-0.041199
-0.052098
-0.063560
-0.074808
-0.085070
-0.093405
-0.100042
-0.105440
-0.110109
-0.114761
-0.120196
-0.127181
-0.141316
0.509355
0.509565
0.510040
0.510308
0.509458
0.505931
0.497268
0.479832
0.448621
0.397276
0.318446
0.205181
0.056548
-0.104404
-0.187155
-0.213187
-0.210487
-0.192781
-0.170070
-0.152726
-0.149932
-0.166241
-0.200588
-0.246588
-0.292859
-0.322588
-0.331957
-0.322762
-0.298559
-0.264064
-0.223755
-0.181300
-0.139428
-0.100006
-0.064188
-0.032578
-0.005384
0.017464
0.036204
0.051145
0.062583
0.070773
0.075961
0.078446
0.080325
0.078702
0.074388
0.067967
0.059263
0.047607
0.032290
0.013027
-0.009633
-0.034106
-0.057870
-0.077886
-0.089657
-0.093914
-0.092098
-0.085392
-0.075259
-0.063149
-0.050306
-0.037692
-0.025980
-0.015596
-0.006779
0.000362
0.005791
0.009510
0.011548
0.011984
0.010999
0.008918
0.006197
0.003341
0.000796
-0.001053
-0.002213
-0.002920
-0.003564
-0.004606
-0.006505
-0.009674
-0.014432
-0.020968
-0.029304
-0.039260
-0.050446
-0.062274
-0.074039
-0.084929
-0.094433
-0.102857
-0.110483
-0.117842
-0.125646
-0.134704
-0.145857
-0.166748
0.496554
0.496118
0.494762
0.492060
0.487202
0.478872
0.465117
0.443263
0.409935
0.361320
0.293853
0.205778
0.100704
-0.006775
-0.083017
-0.125793
-0.144373
-0.148016
-0.145056
-0.143284
-0.149021
-0.165512
-0.192044
-0.223863
-0.252724
-0.270820
-0.276127
-0.268356
-0.249470
-0.222483
-0.190536
-0.156380
-0.122172
-0.089450
-0.059208
-0.032004
-0.008074
0.012578
0.030099
0.044724
0.056721
0.066348
0.073817
0.080409
0.084455
0.085381
0.083231
0.078099
0.069864
0.058178
0.042729
0.023621
0.001693
-0.021373
-0.043191
-0.060140
-0.070554
-0.075682
-0.075960
-0.072209
-0.065450
-0.056723
-0.046953
-0.036888
-0.027097
-0.017996
-0.009879
-0.002958
0.002633
0.006793
0.009497
0.010764
0.010727
0.009642
0.007886
0.005889
0.004108
0.002689
0.001719
0.001025
0.000263
-0.000990
-0.003163
-0.006628
-0.011663
-0.018420
-0.026910
-0.036979
-0.048298
-0.060358
-0.072526
-0.084147
-0.095024
-0.105193
-0.114936
-0.124756
-0.135321
-0.147437
-0.162054
-0.188799
0.484527
0.483558
0.480727
0.475716
0.467894
0.456238
0.439298
0.415208
0.381815
0.336995
0.279280
0.208932
0.129652
0.050204
-0.015095
-0.061402
-0.090814
-0.108013
-0.118362
-0.127066
-0.138294
-0.154227
-0.174485
-0.196138
-0.214589
-0.226181
-0.228911
-0.222424
-0.207806
-0.186969
-0.162074
-0.135131
-0.107788
-0.081259
-0.056335
-0.033458
-0.012810
0.005607
0.021884
0.036167
0.048608
0.059358
0.069038
0.076972
0.082666
0.085651
0.085665
0.082498
0.075896
0.065635
0.051696
0.034490
0.015026
-0.005089
-0.023354
-0.037934
-0.048943
-0.056251
-0.059917
-0.060200
-0.057587
-0.052712
-0.046217
-0.038682
-0.030628
-0.022532
-0.014802
-0.007807
-0.001804
0.002940
0.006398
0.008525
0.009438
0.009389
0.008678
0.007647
0.006539
0.005602
0.004892
0.004259
0.003396
0.001921
-0.000544
-0.004308
-0.009579
-0.016462
-0.024956
-0.034961
-0.046251
-0.058491
-0.071164
-0.083716
-0.095889
-0.107648
-0.119202
-0.130969
-0.143534
-0.157661
-0.174395
-0.204840
0.474265
0.472830
0.468771
0.461952
0.451955
0.438047
0.419200
0.394164
0.361626
0.320486
0.270313
0.211989
0.148445
0.085037
0.028808
-0.016385
-0.050288
-0.074883
-0.093181
-0.108364
-0.123055
-0.138686
-0.155154
-0.170881
-0.183682
-0.191201
-0.192225
-0.186549
-0.174879
-0.158518
-0.139010
-0.117849
-0.096279
-0.075208
-0.055187
-0.036459
-0.019038
-0.002822
0.012309
0.026408
0.039431
0.051408
0.062241
0.071454
0.078680
0.083492
0.085520
0.084443
0.079993
0.072049
0.060771
0.046714
0.030863
0.014666
-0.000901
-0.015215
-0.027915
-0.038569
-0.046579
-0.051457
-0.053135
-0.051947
-0.048363
-0.042863
-0.035989
-0.028360
-0.020525
-0.013130
-0.006375
-0.000837
0.003453
0.006477
0.008296
0.009085
0.009141
0.008779
0.008249
0.007724
0.007221
0.006587
0.005541
0.003749
0.000904
-0.003210
-0.008694
-0.015587
-0.023890
-0.033603
-0.044892
-0.057405
-0.070638
-0.084150
-0.097533
-0.110598
-0.123444
-0.136395
-0.149926
-0.164690
-0.181693
-0.212232
0.466637
0.464688
0.459463
0.451121
0.439472
0.424018
0.404041
0.378723
0.347288
0.309219
0.264567
0.214300
0.160615
0.106933
0.057244
0.014304
-0.020986
-0.049234
-0.071950
-0.090944
-0.107789
-0.123406
-0.137832
-0.150409
-0.159772
-0.164679
-0.164490
-0.159203
-0.149414
-0.136146
-0.120605
-0.103958
-0.087158
-0.070847
-0.055323
-0.040574
-0.026362
-0.012339
0.001775
0.015994
0.029915
0.043145
0.055252
0.065921
0.074776
0.081408
0.085419
0.086463
0.084323
0.079001
0.070794
0.060269
0.048140
0.034469
0.020193
0.005347
-0.009877
-0.024669
-0.037537
-0.046975
-0.052358
-0.054005
-0.052465
-0.048133
-0.041643
-0.033923
-0.025332
-0.017299
-0.010099
-0.003762
0.001296
0.005028
0.007520
0.008968
0.009643
0.009815
0.009698
0.009416
0.008951
0.008134
0.006711
0.004403
0.001000
-0.003579
-0.009252
-0.016003
-0.024024
-0.033538
-0.044575
-0.057205
-0.071098
-0.085607
-0.100034
-0.113959
-0.127389
-0.140634
-0.154112
-0.168273
-0.183803
-0.209597
0.462606
0.459772
0.453131
0.443321
0.430315
0.413743
0.393066
0.367733
0.337291
0.301542
0.260738
0.215773
0.168307
0.120672
0.075437
0.034619
-0.000761
-0.030650
-0.055683
-0.076807
-0.094904
-0.110559
-0.123863
-0.134541
-0.141737
-0.144900
-0.143794
-0.138617
-0.129986
-0.118818
-0.106148
-0.092947
-0.079964
-0.067631
-0.056029
-0.044923
-0.033821
-0.022041
-0.008893
0.005878
0.020864
0.035516
0.049265
0.061625
0.072185
0.080555
0.086354
0.089259
0.089115
0.086077
0.080587
0.073043
0.062923
0.051273
0.037811
0.022092
0.004063
-0.015157
-0.032962
-0.046381
-0.054084
-0.056934
-0.056317
-0.052287
-0.045021
-0.037004
-0.028678
-0.019994
-0.012014
-0.005114
0.000457
0.004654
0.007582
0.009456
0.010545
0.011075
0.011193
0.010987
0.010392
0.009180
0.007135
0.004044
-0.000180
-0.005422
-0.011499
-0.018246
-0.025742
-0.034493
-0.045062
-0.057722
-0.072152
-0.087473
-0.102629
-0.116907
-0.130221
-0.142956
-0.155720
-0.168926
-0.182680
-0.199517
0.463841
0.458564
0.449776
0.438392
0.424209
0.406804
0.385649
0.360347
0.330624
0.296443
0.258130
0.216479
0.172801
0.128826
0.086424
0.047183
0.012114
-0.018417
-0.044573
-0.066798
-0.085493
-0.101128
-0.113851
-0.123299
-0.129174
-0.131259
-0.129576
-0.124464
-0.116572
-0.106767
-0.095984
-0.085070
-0.074643
-0.064998
-0.056089
-0.047580
-0.038916
-0.029279
-0.017327
-0.002515
0.013528
0.029902
0.045460
0.059490
0.071546
0.081275
0.088340
0.092439
0.093455
0.091767
0.087919
0.081274
0.072911
0.062547
0.049606
0.033353
0.013418
-0.009141
-0.030981
-0.047512
-0.056067
-0.057714
-0.056157
-0.052511
-0.046657
-0.038229
-0.029186
-0.020238
-0.012028
-0.004949
0.000785
0.005132
0.008203
0.010224
0.011517
0.012251
0.012462
0.012134
0.011184
0.009488
0.006781
0.002880
-0.002198
-0.008190
-0.014689
-0.021410
-0.028486
-0.036560
-0.046431
-0.058560
-0.072721
-0.088039
-0.103386
-0.117904
-0.131336
-0.143984
-0.156248
-0.168503
-0.181063
-0.194265
0.474830
0.460721
0.448834
0.436081
0.421097
0.403096
0.381646
0.356367
0.327051
0.293720
0.256707
0.216730
0.174916
0.132716
0.091702
0.053277
0.018441
-0.012313
-0.038946
-0.061739
-0.081129
-0.097106
-0.109646
-0.118703
-0.124136
-0.125868
-0.124017
-0.118971
-0.111380
-0.102075
-0.091936
-0.081751
-0.072084
-0.063189
-0.054989
-0.047122
-0.039027
-0.030015
-0.019385
-0.006238
0.010460
0.028012
0.044702
0.059638
0.072363
0.082570
0.089969
0.094287
0.095369
0.093275
0.088506
0.082284
0.074388
0.064448
0.051896
0.036088
0.016750
-0.005208
-0.026930
-0.044226
-0.054193
-0.057459
-0.055771
-0.051491
-0.045327
-0.037307
-0.028470
-0.019682
-0.011587
-0.004592
0.001086
0.005399
0.008445
0.010429
0.011570
0.012161
0.012303
0.011907
0.010849
0.008976
0.006089
0.002047
-0.003124
-0.009188
-0.015792
-0.022694
-0.030015
-0.038278
-0.048137
-0.059966
-0.073587
-0.088307
-0.103215
-0.117576
-0.131089
-0.143874
-0.156231
-0.168450
-0.180700
-0.193366
