# vtk DataFile Version 3.0
Scalar Field
ASCII
DATASET RECTILINEAR_GRID
DIMENSIONS 100 26 1
X_COORDINATES 100 double
0.050000 0.150000 0.250000 0.350000 0.450000 0.550000 0.650000 0.750000 0.850000 0.950000 1.050000 1.150000 1.250000 1.350000 1.450000 1.550000 1.650000 1.750000 1.850000 1.950000 2.050000 2.150000 2.250000 2.350000 2.450000 2.550000 2.650000 2.750000 2.850000 2.950000 3.050000 3.150000 3.250000 3.350000 3.450000 3.550000 3.650000 3.750000 3.850000 3.950000 4.050000 4.150000 4.250000 4.350000 4.450000 4.550000 4.650000 4.750000 4.850000 4.950000 5.050000 5.150000 5.250000 5.350000 5.450000 5.550000 5.650000 5.750000 5.850000 5.950000 6.050000 6.150000 6.250000 6.350000 6.450000 6.550000 6.650000 6.750000 6.850000 6.950000 7.050000 7.150000 7.250000 7.350000 7.450000 7.550000 7.650000 7.750000 7.850000 7.950000 8.050000 8.150000 8.250000 8.350000 8.450000 8.550000 8.650000 8.750000 8.850000 8.950000 9.050000 9.150000 9.250000 9.350000 9.450000 9.550000 9.650000 9.750000 9.850000 9.950000 
Y_COORDINATES 26 double
0.050000 0.150000 0.250000 0.350000 0.450000 0.550000 0.650000 0.750000 0.850000 0.950000 1.050000 1.150000 1.250000 1.350000 1.450000 1.550000 1.650000 1.750000 1.850000 1.950000 2.050000 2.150000 2.250000 2.350000 2.450000 2.550000 
Z_COORDINATES 1 double
0.0
POINT_DATA 2600
SCALARS Skalarfeld double 1
LOOKUP_TABLE default
0.286141
0.270877
0.255678
0.237506
0.215215
0.188292
0.156624
0.120496
0.080660
0.038370
-0.004692
-0.046671
-0.085840
-0.120825
-0.150732
-0.174464
-0.191630
-0.202291
-0.206778
-0.205667
-0.199729
-0.189851
-0.176960
-0.161929
-0.145512
-0.128304
-0.110732
-0.093085
-0.075571
-0.058381
-0.041767
-0.026100
-0.011520
0.001833
0.012959
0.021267
0.026457
0.029374
0.030179
0.029070
0.026140
0.021348
0.014598
0.005880
-0.004576
-0.016104
-0.027365
-0.036243
-0.040483
-0.039448
-0.033202
-0.024930
-0.015839
-0.006698
0.001939
0.009701
0.016391
0.021943
0.026394
0.029872
0.032557
0.034665
0.036383
0.037495
0.037882
0.037369
0.035802
0.033156
0.029624
0.025575
0.021345
0.017015
0.012381
0.007176
0.001377
-0.004651
-0.010273
-0.014863
-0.018059
-0.019850
-0.020390
-0.019779
-0.018373
-0.016354
-0.013933
-0.011367
-0.008908
-0.006775
-0.005140
-0.004124
-0.003849
-0.004205
-0.005206
-0.006793
-0.008865
-0.011296
-0.013944
-0.016652
-0.019265
-0.021687
0.277308
0.270857
0.258660
0.241684
0.219750
0.192603
0.160158
0.122704
0.081071
0.036714
-0.008365
-0.052033
-0.092424
-0.128105
-0.157976
-0.181740
-0.198947
-0.209471
-0.213634
-0.212014
-0.205396
-0.194703
-0.180899
-0.164906
-0.147523
-0.129383
-0.110948
-0.092533
-0.074357
-0.056615
-0.039548
-0.023455
-0.008477
0.004388
0.014764
0.022451
0.027594
0.029899
0.030080
0.028436
0.025100
0.020025
0.013088
0.004227
-0.006393
-0.018150
-0.029621
-0.038394
-0.041826
-0.038869
-0.032704
-0.025213
-0.016247
-0.007153
0.001463
0.009194
0.015850
0.021376
0.025824
0.029340
0.032184
0.034584
0.036425
0.037540
0.038035
0.037671
0.036230
0.033662
0.030184
0.026224
0.022130
0.017928
0.013308
0.007906
0.001692
-0.004857
-0.010933
-0.015768
-0.018967
-0.020599
-0.020890
-0.020194
-0.018786
-0.016713
-0.014200
-0.011522
-0.008929
-0.006659
-0.004899
-0.003776
-0.003379
-0.003716
-0.004747
-0.006390
-0.008532
-0.011038
-0.013764
-0.016544
-0.019228
-0.022327
0.280427
0.276340
0.266049
0.250118
0.228455
0.200743
0.166754
0.126670
0.081401
0.032783
-0.016420
-0.063441
-0.106187
-0.143336
-0.174130
-0.198230
-0.215567
-0.225804
-0.229258
-0.226487
-0.218285
-0.205623
-0.189548
-0.171086
-0.151153
-0.130506
-0.109729
-0.089252
-0.069392
-0.050410
-0.032570
-0.016149
-0.001890
0.009720
0.018344
0.023913
0.026739
0.026963
0.025069
0.021926
0.017746
0.012488
0.005979
-0.001905
-0.011031
-0.020762
-0.029745
-0.036069
-0.038160
-0.035861
-0.030405
-0.022486
-0.014166
-0.005963
0.002040
0.009239
0.015454
0.020603
0.024725
0.027949
0.030475
0.032504
0.034149
0.035550
0.036390
0.036525
0.035770
0.034013
0.031326
0.027969
0.024093
0.019671
0.014551
0.008553
0.001828
-0.005049
-0.011246
-0.016043
-0.019139
-0.020637
-0.020977
-0.020539
-0.019341
-0.017236
-0.014648
-0.011884
-0.009162
-0.006747
-0.004844
-0.003591
-0.003018
-0.003307
-0.004393
-0.006065
-0.008203
-0.010658
-0.013274
-0.015893
-0.018363
-0.020459
0.291153
0.287842
0.278608
0.263423
0.241848
0.213194
0.176809
0.132528
0.081269
0.025450
-0.030459
-0.082501
-0.128402
-0.167264
-0.198889
-0.223265
-0.240491
-0.250147
-0.252456
-0.247903
-0.237287
-0.221657
-0.202193
-0.180079
-0.156409
-0.132119
-0.107970
-0.084555
-0.062318
-0.041605
-0.022713
-0.006034
0.007648
0.017791
0.024041
0.026444
0.025533
0.022216
0.017162
0.011629
0.006158
0.000714
-0.004932
-0.010992
-0.017443
-0.023835
-0.029246
-0.032512
-0.032790
-0.030004
-0.024765
-0.017858
-0.010271
-0.002465
0.004673
0.010981
0.016425
0.020845
0.024268
0.026794
0.028623
0.030005
0.031160
0.032246
0.033220
0.033949
0.034166
0.033554
0.031906
0.029145
0.025409
0.020691
0.015225
0.008967
0.002250
-0.004403
-0.010332
-0.015025
-0.018295
-0.020224
-0.020976
-0.020607
-0.019093
-0.017038
-0.014637
-0.011984
-0.009233
-0.006778
-0.004822
-0.003553
-0.003066
-0.003380
-0.004415
-0.006059
-0.008082
-0.010304
-0.012561
-0.014706
-0.016573
-0.017261
0.308021
0.305118
0.296694
0.282265
0.260871
0.231136
0.191543
0.141080
0.080373
0.012507
-0.053803
-0.112533
-0.161774
-0.201902
-0.233849
-0.258162
-0.274825
-0.283550
-0.284192
-0.277071
-0.263011
-0.243225
-0.219121
-0.192126
-0.163563
-0.134589
-0.106167
-0.079058
-0.053835
-0.030900
-0.010526
0.006902
0.020302
0.028875
0.032119
0.030210
0.024123
0.015506
0.006367
-0.002158
-0.009047
-0.014448
-0.018774
-0.022452
-0.025690
-0.028357
-0.029995
-0.030023
-0.028042
-0.024060
-0.018463
-0.011822
-0.004778
0.002153
0.008492
0.014075
0.018640
0.022171
0.024686
0.026244
0.027101
0.027604
0.028049
0.028672
0.029547
0.030539
0.031321
0.031476
0.030641
0.028597
0.025246
0.020696
0.015015
0.008476
0.001821
-0.004566
-0.010146
-0.014557
-0.017660
-0.019487
-0.020142
-0.019740
-0.018429
-0.016459
-0.013939
-0.011152
-0.008502
-0.006188
-0.004294
-0.003124
-0.002798
-0.003302
-0.004480
-0.006144
-0.008073
-0.010043
-0.011893
-0.013524
-0.014865
-0.015753
0.330268
0.327780
0.320380
0.307198
0.286638
0.256278
0.213023
0.153925
0.078323
-0.010685
-0.092556
-0.158576
-0.209531
-0.249024
-0.280097
-0.303975
-0.319960
-0.327638
-0.326213
-0.315653
-0.296884
-0.271458
-0.241172
-0.207806
-0.172987
-0.138128
-0.104409
-0.072772
-0.043920
-0.018311
0.003861
0.022527
0.036059
0.043133
0.042935
0.035786
0.023180
0.007594
-0.007874
-0.020110
-0.028298
-0.033177
-0.035566
-0.036314
-0.036003
-0.034855
-0.032795
-0.029620
-0.025202
-0.019616
-0.013154
-0.006235
0.000681
0.007193
0.012969
0.017800
0.021495
0.024004
0.025301
0.025595
0.025173
0.024568
0.024072
0.023981
0.024491
0.025515
0.026689
0.027504
0.027452
0.026138
0.023336
0.019039
0.013341
0.006849
0.000150
-0.006236
-0.011585
-0.015642
-0.018321
-0.019684
-0.019872
-0.019063
-0.017452
-0.015253
-0.012662
-0.009915
-0.007261
-0.004862
-0.003121
-0.002147
-0.002039
-0.002767
-0.004187
-0.006043
-0.008029
-0.009901
-0.011505
-0.012794
-0.013822
-0.015275
0.357117
0.355226
0.349435
0.338571
0.320365
0.291009
0.244759
0.174431
0.074713
-0.054300
-0.157106
-0.226271
-0.272858
-0.307163
-0.335356
-0.359171
-0.375813
-0.383317
-0.379966
-0.365184
-0.340290
-0.307515
-0.269286
-0.227874
-0.185276
-0.143196
-0.103055
-0.066006
-0.032926
-0.004400
0.019327
0.038865
0.053085
0.059182
0.055910
0.043909
0.025181
0.002672
-0.019982
-0.038932
-0.049684
-0.054029
-0.054251
-0.051871
-0.047979
-0.043169
-0.037664
-0.031499
-0.024696
-0.017372
-0.009769
-0.002210
0.004955
0.011414
0.016914
0.021264
0.024289
0.025843
0.025858
0.024467
0.022108
0.019386
0.017326
0.016304
0.016346
0.017424
0.019086
0.020700
0.021629
0.021341
0.019474
0.015886
0.010680
0.004310
-0.002722
-0.009149
-0.014449
-0.018282
-0.020557
-0.021364
-0.020903
-0.019427
-0.017202
-0.014484
-0.011506
-0.008491
-0.005664
-0.003251
-0.001530
-0.000700
-0.000866
-0.001978
-0.003817
-0.006049
-0.008321
-0.010343
-0.011932
-0.013027
-0.013708
-0.014503
0.387454
0.386437
0.383122
0.376218
0.363014
0.338307
0.292599
0.210128
0.069293
-0.141546
-0.262233
-0.316339
-0.344870
-0.366292
-0.388968
-0.414883
-0.437635
-0.448180
-0.444308
-0.425036
-0.392889
-0.351348
-0.303747
-0.252954
-0.201367
-0.151000
-0.103558
-0.060465
-0.022851
0.008443
0.032848
0.050123
0.064592
0.070402
0.065064
0.050130
0.028334
0.002626
-0.023822
-0.047495
-0.065159
-0.071414
-0.070688
-0.066204
-0.059654
-0.052023
-0.043800
-0.035205
-0.026372
-0.017461
-0.008701
-0.000370
0.007238
0.013857
0.019261
0.023233
0.025518
0.025855
0.024119
0.020540
0.015810
0.010928
0.006893
0.004642
0.004461
0.005942
0.008419
0.011119
0.013300
0.014335
0.013760
0.011329
0.007054
0.001256
-0.005473
-0.012233
-0.017895
-0.021722
-0.023813
-0.024238
-0.023225
-0.021090
-0.018177
-0.014810
-0.011279
-0.007836
-0.004719
-0.002175
-0.000466
0.000188
-0.000312
-0.001886
-0.004266
-0.007056
-0.009827
-0.012194
-0.013886
-0.014774
-0.014881
-0.014237
0.419651
0.419797
0.419894
0.418893
0.414330
0.400635
0.365088
0.278513
0.067773
-0.328938
-0.419252
-0.411626
-0.405149
-0.406919
-0.421212
-0.451113
-0.489739
-0.511410
-0.510639
-0.488090
-0.449140
-0.399163
-0.342521
-0.282649
-0.222315
-0.163869
-0.109384
-0.060703
-0.019355
0.013536
0.037168
0.051351
0.057021
0.059857
0.053477
0.040207
0.021752
-0.000240
-0.023807
-0.046401
-0.065116
-0.077425
-0.079210
-0.074890
-0.067707
-0.058983
-0.049450
-0.039506
-0.029418
-0.019430
-0.009814
-0.000870
0.007106
0.013834
0.019044
0.022422
0.023583
0.022165
0.018090
0.011846
0.004544
-0.002377
-0.007681
-0.010436
-0.010271
-0.007913
-0.004246
-0.000176
0.003477
0.006025
0.006954
0.005947
0.002930
-0.001878
-0.007954
-0.014490
-0.020542
-0.024932
-0.027108
-0.027478
-0.026222
-0.023680
-0.020261
-0.016364
-0.012347
-0.008515
-0.005145
-0.002507
-0.000868
-0.000447
-0.001337
-0.003442
-0.006454
-0.009899
-0.013233
-0.015945
-0.017649
-0.018136
-0.017384
-0.015025
0.451546
0.453034
0.457165
0.463574
0.471119
0.476377
0.468996
0.415449
0.167929
-0.675639
-0.598784
-0.465155
-0.430743
-0.418401
-0.424881
-0.455756
-0.503537
-0.551389
-0.558506
-0.536644
-0.494972
-0.440707
-0.378991
-0.313668
-0.247837
-0.184266
-0.125629
-0.074601
-0.033647
-0.004227
0.014012
0.022900
0.024767
0.021695
0.017372
0.010433
0.000627
-0.011969
-0.026830
-0.042704
-0.057606
-0.069263
-0.075880
-0.074935
-0.069328
-0.061543
-0.052462
-0.042616
-0.032403
-0.022191
-0.012353
-0.003268
0.004696
0.011183
0.015817
0.018149
0.017671
0.014009
0.007279
-0.001623
-0.011105
-0.019399
-0.025196
-0.027513
-0.026365
-0.022667
-0.017473
-0.011802
-0.006538
-0.002394
0.000099
0.000600
-0.001020
-0.004627
-0.009795
-0.015809
-0.021764
-0.026733
-0.029466
-0.030137
-0.029024
-0.026458
-0.022882
-0.018757
-0.014507
-0.010499
-0.007055
-0.004473
-0.003032
-0.002951
-0.004317
-0.007012
-0.010675
-0.014740
-0.018538
-0.021435
-0.022943
-0.022793
-0.020936
-0.016670
0.480660
0.483426
0.491458
0.505279
0.525730
0.553780
0.589622
0.628535
0.704256
0.014308
-0.521673
-0.444561
-0.434276
-0.426961
-0.431745
-0.456955
-0.498937
-0.543806
-0.570097
-0.552947
-0.514241
-0.462275
-0.402281
-0.338228
-0.273434
-0.211208
-0.155069
-0.108588
-0.074393
-0.052860
-0.041823
-0.037594
-0.036813
-0.036517
-0.033891
-0.031135
-0.029630
-0.030334
-0.033789
-0.039897
-0.047741
-0.055713
-0.062012
-0.065248
-0.063462
-0.058190
-0.051126
-0.042796
-0.033681
-0.024266
-0.015047
-0.006521
0.000828
0.006524
0.010056
0.010837
0.008287
0.002124
-0.007221
-0.018392
-0.029408
-0.038339
-0.043906
-0.045111
-0.042444
-0.037001
-0.029989
-0.022534
-0.015575
-0.009832
-0.005820
-0.003869
-0.004120
-0.006496
-0.010657
-0.015982
-0.021635
-0.026692
-0.030308
-0.031498
-0.030857
-0.028642
-0.025293
-0.021305
-0.017152
-0.013256
-0.009982
-0.007661
-0.006584
-0.006973
-0.008904
-0.012223
-0.016504
-0.021091
-0.025208
-0.028117
-0.029253
-0.028293
-0.025174
-0.018796
0.504631
0.508326
0.519187
0.538326
0.567881
0.611575
0.675883
0.771861
0.906980
0.936203
0.000000
-0.441140
-0.437718
-0.436223
-0.442446
-0.461559
-0.489623
-0.519141
-0.537325
-0.531439
-0.497834
-0.452600
-0.400174
-0.344295
-0.288035
-0.235065
-0.189478
-0.155117
-0.133524
-0.122569
-0.117804
-0.114800
-0.109678
-0.099820
-0.087015
-0.073219
-0.060168
-0.049261
-0.041553
-0.037640
-0.037458
-0.040157
-0.044262
-0.048097
-0.050233
-0.048676
-0.044644
-0.038874
-0.031869
-0.024185
-0.016425
-0.009205
-0.003131
0.001187
0.003093
0.001884
-0.003036
-0.011769
-0.023513
-0.036510
-0.048521
-0.057560
-0.062411
-0.061965
-0.057361
-0.049860
-0.040818
-0.031464
-0.022784
-0.015497
-0.010082
-0.006827
-0.005853
-0.007102
-0.010297
-0.014902
-0.020161
-0.025204
-0.029240
-0.031195
-0.031243
-0.029650
-0.026835
-0.023300
-0.019548
-0.016036
-0.013169
-0.011306
-0.010755
-0.011737
-0.014306
-0.018267
-0.023132
-0.028164
-0.032505
-0.035341
-0.036036
-0.034217
-0.029792
-0.021143
0.521741
0.525829
0.537837
0.558910
0.591104
0.637523
0.701889
0.785484
0.880507
0.965426
0.880949
0.000000
-0.441649
-0.445580
-0.447904
-0.458711
-0.472513
-0.483625
-0.484757
-0.470863
-0.442219
-0.404900
-0.362850
-0.320212
-0.279027
-0.243353
-0.217258
-0.203017
-0.198716
-0.199002
-0.198032
-0.191724
-0.176437
-0.155719
-0.131900
-0.107262
-0.083773
-0.062985
-0.046052
-0.033756
-0.026428
-0.023786
-0.024832
-0.027992
-0.031505
-0.033842
-0.033144
-0.030422
-0.026129
-0.020823
-0.015162
-0.009848
-0.005598
-0.003151
-0.003302
-0.006847
-0.014337
-0.025639
-0.039591
-0.054110
-0.066797
-0.075654
-0.079259
-0.076849
-0.070072
-0.060367
-0.049235
-0.037997
-0.027673
-0.018971
-0.012327
-0.007967
-0.005971
-0.006272
-0.008629
-0.012574
-0.017421
-0.022346
-0.026537
-0.029318
-0.030052
-0.029196
-0.027088
-0.024207
-0.021061
-0.018130
-0.015847
-0.014593
-0.014692
-0.016358
-0.019622
-0.024244
-0.029682
-0.035140
-0.039703
-0.042492
-0.042809
-0.040225
-0.034612
-0.023624
0.531256
0.535191
0.546676
0.566499
0.595885
0.636276
0.688779
0.752715
0.816379
0.836190
0.796473
0.677747
0.000000
-0.448662
-0.451743
-0.453706
-0.455563
-0.446664
-0.423920
-0.392360
-0.359341
-0.326327
-0.293788
-0.264889
-0.243805
-0.232619
-0.233825
-0.245228
-0.260010
-0.270412
-0.270773
-0.255499
-0.229186
-0.197659
-0.163578
-0.129455
-0.097375
-0.068899
-0.045097
-0.026647
-0.013893
-0.006787
-0.004737
-0.006509
-0.010393
-0.014657
-0.017402
-0.017632
-0.016207
-0.013543
-0.010297
-0.007227
-0.005137
-0.004891
-0.007409
-0.013543
-0.023746
-0.037616
-0.053656
-0.069526
-0.082714
-0.091279
-0.092884
-0.088509
-0.079580
-0.067773
-0.054725
-0.041819
-0.030089
-0.020214
-0.012577
-0.007347
-0.004549
-0.004099
-0.005771
-0.009152
-0.013620
-0.018402
-0.022712
-0.025912
-0.027366
-0.027255
-0.025893
-0.023735
-0.021284
-0.019030
-0.017422
-0.016863
-0.017680
-0.020082
-0.024072
-0.029372
-0.035399
-0.041321
-0.046178
-0.049044
-0.049165
-0.046056
-0.039545
-0.026445
0.533451
0.536821
0.546589
0.563159
0.587065
0.618551
0.656499
0.695922
0.723809
0.713418
0.647758
0.559021
0.386899
0.000000
-0.452451
-0.453158
-0.453376
-0.422065
-0.370210
-0.314303
-0.265620
-0.231428
-0.207389
-0.193930
-0.193117
-0.209857
-0.240912
-0.277909
-0.309874
-0.327625
-0.323887
-0.298014
-0.262899
-0.222692
-0.180695
-0.139612
-0.101512
-0.067839
-0.039491
-0.016955
-0.000434
0.010097
0.014981
0.015062
0.011763
0.006864
0.002113
-0.001041
-0.002318
-0.002194
-0.001350
-0.000578
-0.000765
-0.002886
-0.007959
-0.016839
-0.029820
-0.046212
-0.064212
-0.081261
-0.094705
-0.102436
-0.102182
-0.095868
-0.085056
-0.071546
-0.057039
-0.042926
-0.030215
-0.019539
-0.011224
-0.005382
-0.001996
-0.000963
-0.002074
-0.004963
-0.009070
-0.013676
-0.018027
-0.021496
-0.023486
-0.024002
-0.023310
-0.021833
-0.020061
-0.018485
-0.017566
-0.017715
-0.019265
-0.022409
-0.027126
-0.033108
-0.039748
-0.046193
-0.051462
-0.054600
-0.054809
-0.051553
-0.044569
-0.030103
0.529376
0.531975
0.539421
0.551721
0.568668
0.589369
0.611293
0.628662
0.630307
0.598239
0.514492
0.368744
0.214777
-0.223370
-0.533335
-0.487006
-0.463930
-0.405076
-0.326894
-0.250286
-0.188295
-0.145325
-0.124180
-0.122915
-0.144158
-0.186410
-0.242005
-0.298269
-0.341545
-0.361080
-0.347214
-0.316225
-0.275548
-0.230210
-0.183896
-0.139324
-0.098404
-0.062356
-0.031851
-0.007161
0.011681
0.024760
0.032273
0.034690
0.032969
0.028571
0.023110
0.018126
0.014819
0.012848
0.011578
0.010207
0.007793
0.003276
-0.004409
-0.016046
-0.031714
-0.050426
-0.070123
-0.088082
-0.101590
-0.107969
-0.105932
-0.098103
-0.086038
-0.071551
-0.056320
-0.041687
-0.028591
-0.017597
-0.008975
-0.002792
0.000996
0.002494
0.001885
-0.000516
-0.004217
-0.008559
-0.012825
-0.016393
-0.018739
-0.019715
-0.019549
-0.018639
-0.017461
-0.016500
-0.016222
-0.017043
-0.019289
-0.023140
-0.028551
-0.035196
-0.042459
-0.049486
-0.055300
-0.058944
-0.059617
-0.056785
-0.049853
-0.035285
0.520445
0.522160
0.526997
0.534668
0.544483
0.554936
0.563028
0.563279
0.546629
0.499572
0.404282
0.235824
-0.058481
-0.661517
-0.579663
-0.477921
-0.425106
-0.361917
-0.283950
-0.207183
-0.142672
-0.095211
-0.071682
-0.078322
-0.113956
-0.171834
-0.240302
-0.304736
-0.350760
-0.360923
-0.343202
-0.310047
-0.267949
-0.221883
-0.175462
-0.131208
-0.090779
-0.055153
-0.024798
0.000182
0.019906
0.034568
0.044343
0.049437
0.050316
0.047906
0.043496
0.038314
0.033872
0.030498
0.027581
0.024365
0.019900
0.013100
0.002932
-0.011235
-0.029226
-0.049790
-0.070675
-0.089055
-0.102125
-0.106304
-0.103484
-0.095045
-0.082698
-0.068227
-0.053215
-0.038891
-0.026093
-0.015310
-0.006759
-0.000484
0.003561
0.005466
0.005373
0.003533
0.000363
-0.003552
-0.007545
-0.011013
-0.013502
-0.014738
-0.014929
-0.014446
-0.013746
-0.013308
-0.013595
-0.015016
-0.017890
-0.022377
-0.028417
-0.035677
-0.043550
-0.051203
-0.057694
-0.062099
-0.063658
-0.061784
-0.055997
-0.042996
0.508288
0.509139
0.511458
0.514803
0.518258
0.520140
0.517550
0.505820
0.477950
0.424145
0.331320
0.181964
-0.046602
-0.338984
-0.402405
-0.386089
-0.350952
-0.300616
-0.241843
-0.181748
-0.127769
-0.082870
-0.059496
-0.070354
-0.110751
-0.170619
-0.237193
-0.296267
-0.330295
-0.332553
-0.314766
-0.283468
-0.244361
-0.201873
-0.159217
-0.118586
-0.081383
-0.048406
-0.020011
0.003755
0.023057
0.038162
0.049332
0.056748
0.060594
0.061281
0.059534
0.056099
0.052360
0.048634
0.044726
0.040118
0.033953
0.025209
0.012978
-0.003157
-0.022768
-0.044400
-0.065708
-0.083910
-0.095463
-0.098534
-0.095525
-0.087494
-0.076003
-0.062659
-0.048863
-0.035680
-0.023829
-0.013724
-0.005554
0.000632
0.004856
0.007166
0.007652
0.006496
0.004035
0.000767
-0.002711
-0.005844
-0.008209
-0.009493
-0.009868
-0.009673
-0.009342
-0.009336
-0.010105
-0.012046
-0.015457
-0.020486
-0.027063
-0.034866
-0.043312
-0.051620
-0.058909
-0.064342
-0.067249
-0.066868
-0.063681
-0.054312
0.494507
0.494590
0.494707
0.494373
0.492654
0.487966
0.477820
0.458550
0.425117
0.371103
0.289045
0.171762
0.017932
-0.150023
-0.238157
-0.266237
-0.261184
-0.235946
-0.199282
-0.158090
-0.118955
-0.089065
-0.077396
-0.089676
-0.123843
-0.172561
-0.224711
-0.266801
-0.286184
-0.286491
-0.271215
-0.244953
-0.212063
-0.176105
-0.139734
-0.104795
-0.072477
-0.043466
-0.018090
0.003579
0.021645
0.036328
0.047894
0.056595
0.062647
0.066264
0.067636
0.068071
0.066852
0.064009
0.060069
0.054846
0.047667
0.037675
0.024180
0.007011
-0.013185
-0.034837
-0.055563
-0.072515
-0.082135
-0.085584
-0.083533
-0.077086
-0.067601
-0.056427
-0.044715
-0.033339
-0.022900
-0.013764
-0.006131
-0.000090
0.004318
0.007080
0.008226
0.007873
0.006285
0.003875
0.001153
-0.001396
-0.003341
-0.004464
-0.004871
-0.004853
-0.004805
-0.005160
-0.006341
-0.008719
-0.012571
-0.018029
-0.025032
-0.033283
-0.042255
-0.051229
-0.059419
-0.066141
-0.070591
-0.072994
-0.073409
-0.069917
0.480524
0.479968
0.478273
0.475004
0.469337
0.459940
0.444845
0.421365
0.386119
0.335287
0.265300
0.174406
0.066248
-0.044481
-0.122816
-0.165276
-0.180084
-0.175556
-0.158873
-0.136342
-0.113970
-0.097834
-0.093743
-0.104970
-0.130333
-0.164600
-0.199483
-0.224983
-0.237479
-0.236990
-0.225142
-0.204785
-0.178948
-0.150290
-0.120896
-0.092263
-0.065377
-0.040818
-0.018878
0.000353
0.016912
0.030926
0.042580
0.052083
0.059628
0.065337
0.070189
0.073491
0.074589
0.073664
0.070885
0.066132
0.058952
0.048753
0.035123
0.018138
-0.001412
-0.021962
-0.041305
-0.055937
-0.065349
-0.069875
-0.069833
-0.066034
-0.059506
-0.051265
-0.042185
-0.032954
-0.024082
-0.015935
-0.008773
-0.002775
0.001916
0.005217
0.007097
0.007619
0.006993
0.005558
0.003742
0.002013
0.000674
-0.000146
-0.000482
-0.000571
-0.000758
-0.001435
-0.002979
-0.005720
-0.009904
-0.015664
-0.022961
-0.031556
-0.040994
-0.050636
-0.059822
-0.067865
-0.074684
-0.080346
-0.085048
-0.089434
0.467529
0.466449
0.463305
0.457774
0.449216
0.436603
0.418481
0.392990
0.357994
0.311403
0.251809
0.179584
0.098607
0.017946
-0.047404
-0.091808
-0.116601
-0.125758
-0.123985
-0.116066
-0.106709
-0.100410
-0.100954
-0.110325
-0.127794
-0.149965
-0.171525
-0.187493
-0.195296
-0.194226
-0.185092
-0.169619
-0.149838
-0.127664
-0.104670
-0.082012
-0.060438
-0.040362
-0.021952
-0.005239
0.009803
0.023213
0.035033
0.045331
0.054199
0.062158
0.068796
0.073789
0.076863
0.077920
0.076847
0.073394
0.067194
0.057888
0.045330
0.029790
0.012098
-0.006344
-0.023081
-0.036910
-0.047361
-0.054046
-0.056982
-0.056599
-0.053563
-0.048559
-0.042197
-0.035014
-0.027493
-0.020051
-0.013076
-0.006861
-0.001721
0.002213
0.004879
0.006281
0.006622
0.006200
0.005361
0.004430
0.003629
0.003119
0.002863
0.002663
0.002223
0.001216
-0.000669
-0.003702
-0.008099
-0.014009
-0.021446
-0.030267
-0.040130
-0.050501
-0.060794
-0.070535
-0.079692
-0.088523
-0.097514
-0.110748
0.456497
0.454960
0.450617
0.443327
0.432671
0.417917
0.398044
0.371823
0.337974
0.295457
0.243939
0.184445
0.120123
0.056641
0.001485
-0.040979
-0.070009
-0.087170
-0.095212
-0.097390
-0.097072
-0.097417
-0.100940
-0.108924
-0.120999
-0.135180
-0.148639
-0.158373
-0.162604
-0.160749
-0.153231
-0.141154
-0.125924
-0.108935
-0.091361
-0.074041
-0.057460
-0.041780
-0.026937
-0.012766
0.000847
0.013877
0.026145
0.037465
0.047902
0.057285
0.065348
0.071894
0.076680
0.079498
0.080121
0.078266
0.073638
0.066045
0.055519
0.042406
0.027420
0.011747
-0.003808
-0.018293
-0.030866
-0.040679
-0.047204
-0.050464
-0.050859
-0.048825
-0.044752
-0.039086
-0.032371
-0.025111
-0.017956
-0.011163
-0.005351
-0.000647
0.002829
0.005110
0.006300
0.006650
0.006484
0.006093
0.005678
0.005339
0.005031
0.004587
0.003776
0.002357
0.000115
-0.003140
-0.007596
-0.013469
-0.020861
-0.029841
-0.040284
-0.051547
-0.062955
-0.074173
-0.085205
-0.096464
-0.108769
-0.129765
0.448278
0.446237
0.440754
0.431989
0.419752
0.403552
0.382691
0.356376
0.323879
0.284760
0.239178
0.188258
0.134409
0.081322
0.033310
-0.006539
-0.037029
-0.058571
-0.072655
-0.081363
-0.086994
-0.091721
-0.097258
-0.104500
-0.113328
-0.122705
-0.131080
-0.136553
-0.138072
-0.135288
-0.128530
-0.118621
-0.106634
-0.093648
-0.080552
-0.067926
-0.055984
-0.044600
-0.033376
-0.021805
-0.009509
0.003493
0.016652
0.029401
0.041333
0.052180
0.061755
0.069859
0.076260
0.080712
0.082957
0.082744
0.079899
0.074394
0.066373
0.056110
0.043641
0.029373
0.013890
-0.002284
-0.017999
-0.031609
-0.041767
-0.048151
-0.051203
-0.051326
-0.048681
-0.043673
-0.037153
-0.029372
-0.021677
-0.014567
-0.008095
-0.002699
0.001462
0.004401
0.006249
0.007225
0.007583
0.007563
0.007299
0.006864
0.006225
0.005263
0.003842
0.001851
-0.000794
-0.004180
-0.008453
-0.014083
-0.021513
-0.030814
-0.041683
-0.053679
-0.066090
-0.078372
-0.090446
-0.102816
-0.116520
-0.141285
0.443820
0.440902
0.434025
0.423830
0.410296
0.393064
0.371617
0.345440
0.314134
0.277583
0.236155
0.190900
0.143673
0.097033
0.053794
0.016194
-0.014578
-0.038414
-0.056057
-0.068802
-0.078186
-0.085701
-0.092562
-0.099421
-0.106311
-0.112802
-0.117779
-0.120302
-0.119778
-0.116090
-0.109604
-0.101051
-0.091343
-0.081376
-0.071848
-0.063137
-0.055244
-0.047799
-0.040101
-0.031202
-0.020186
-0.006753
0.007630
0.021898
0.035538
0.048081
0.059262
0.068888
0.076757
0.082632
0.086265
0.087463
0.086206
0.082657
0.077062
0.068591
0.057738
0.044453
0.028413
0.009861
-0.009663
-0.027347
-0.040579
-0.048694
-0.052812
-0.053957
-0.051871
-0.046274
-0.039440
-0.032041
-0.023978
-0.016209
-0.009245
-0.003408
0.001176
0.004544
0.006847
0.008267
0.008967
0.009161
0.008817
0.008007
0.006716
0.004917
0.002617
-0.000109
-0.003176
-0.006643
-0.010845
-0.016164
-0.023174
-0.032304
-0.043471
-0.056104
-0.069284
-0.082180
-0.094483
-0.106592
-0.119752
-0.141571
0.444778
0.439422
0.430413
0.418672
0.404007
0.386003
0.364162
0.338125
0.307678
0.272867
0.234135
0.192427
0.149233
0.106482
0.066234
0.030232
-0.000429
-0.025410
-0.045039
-0.060128
-0.071725
-0.080848
-0.088477
-0.095120
-0.100912
-0.105506
-0.108390
-0.109054
-0.107210
-0.102910
-0.096565
-0.088864
-0.080625
-0.072627
-0.065440
-0.059314
-0.054126
-0.049408
-0.044405
-0.037984
-0.028441
-0.014851
0.000384
0.016428
0.031903
0.046087
0.058671
0.069503
0.078435
0.085261
0.089743
0.091718
0.091364
0.089154
0.084068
0.076917
0.067332
0.054666
0.038194
0.017787
-0.004945
-0.026189
-0.041725
-0.050034
-0.052874
-0.053085
-0.051296
-0.047168
-0.040193
-0.032173
-0.023902
-0.016014
-0.008971
-0.003056
0.001621
0.005119
0.007641
0.009350
0.010206
0.010248
0.009681
0.008477
0.006594
0.004022
0.000860
-0.002667
-0.006304
-0.009972
-0.013946
-0.018806
-0.025293
-0.033951
-0.044807
-0.057312
-0.070546
-0.083622
-0.096108
-0.108207
-0.120332
-0.134692
0.455630
0.441442
0.429342
0.416246
0.400797
0.382238
0.360151
0.334197
0.304228
0.270351
0.233018
0.193093
0.151875
0.110998
0.072201
0.037006
0.006455
-0.019018
-0.039556
-0.055746
-0.068445
-0.078586
-0.086744
-0.093449
-0.098865
-0.102820
-0.104969
-0.104969
-0.102652
-0.098134
-0.091834
-0.084406
-0.076616
-0.069180
-0.062615
-0.057124
-0.052551
-0.048398
-0.043901
-0.038073
-0.029847
-0.018362
-0.002416
0.014798
0.031362
0.046404
0.059615
0.070886
0.080113
0.087123
0.091687
0.093610
0.092831
0.089473
0.084583
0.077772
0.068562
0.056327
0.040433
0.020775
-0.001324
-0.022589
-0.039006
-0.048555
-0.052438
-0.052505
-0.050123
-0.045690
-0.039121
-0.031349
-0.023268
-0.015543
-0.008636
-0.002827
0.001776
0.005212
0.007591
0.009103
0.009939
0.010045
0.009460
0.008186
0.006202
0.003521
0.000245
-0.003416
-0.007239
-0.011153
-0.015393
-0.020483
-0.027060
-0.035579
-0.046062
-0.058064
-0.070842
-0.083676
-0.096172
-0.108366
-0.120522
-0.133506
