# vtk DataFile Version 3.0
Vector Field
ASCII
DATASET RECTILINEAR_GRID
DIMENSIONS 100 26 1
X_COORDINATES 100 double
0.050000 0.150000 0.250000 0.350000 0.450000 0.550000 0.650000 0.750000 0.850000 0.950000 1.050000 1.150000 1.250000 1.350000 1.450000 1.550000 1.650000 1.750000 1.850000 1.950000 2.050000 2.150000 2.250000 2.350000 2.450000 2.550000 2.650000 2.750000 2.850000 2.950000 3.050000 3.150000 3.250000 3.350000 3.450000 3.550000 3.650000 3.750000 3.850000 3.950000 4.050000 4.150000 4.250000 4.350000 4.450000 4.550000 4.650000 4.750000 4.850000 4.950000 5.050000 5.150000 5.250000 5.350000 5.450000 5.550000 5.650000 5.750000 5.850000 5.950000 6.050000 6.150000 6.250000 6.350000 6.450000 6.550000 6.650000 6.750000 6.850000 6.950000 7.050000 7.150000 7.250000 7.350000 7.450000 7.550000 7.650000 7.750000 7.850000 7.950000 8.050000 8.150000 8.250000 8.350000 8.450000 8.550000 8.650000 8.750000 8.850000 8.950000 9.050000 9.150000 9.250000 9.350000 9.450000 9.550000 9.650000 9.750000 9.850000 9.950000 
Y_COORDINATES 26 double
0.050000 0.150000 0.250000 0.350000 0.450000 0.550000 0.650000 0.750000 0.850000 0.950000 1.050000 1.150000 1.250000 1.350000 1.450000 1.550000 1.650000 1.750000 1.850000 1.950000 2.050000 2.150000 2.250000 2.350000 2.450000 2.550000 
Z_COORDINATES 1 double
0.0
POINT_DATA 2600
VECTORS Vektorfeld double
0.997620 0.002380 0.0
0.992658 0.002581 0.0
0.988869 0.001208 0.0
0.988515 -0.000854 0.0
0.992594 -0.003225 0.0
1.001467 -0.005649 0.0
1.015003 -0.007887 0.0
1.032581 -0.009691 0.0
1.053108 -0.010837 0.0
1.075130 -0.011185 0.0
1.097051 -0.010736 0.0
1.117407 -0.009620 0.0
1.135049 -0.008022 0.0
1.149187 -0.006115 0.0
1.159329 -0.004027 0.0
1.165197 -0.001841 0.0
1.166733 0.000305 0.0
1.163936 0.002491 0.0
1.156585 0.004861 0.0
1.144264 0.007460 0.0
1.126530 0.010274 0.0
1.103025 0.013231 0.0
1.073584 0.016210 0.0
1.038310 0.019064 0.0
0.997615 0.021631 0.0
0.952227 0.023757 0.0
0.903165 0.025306 0.0
0.851689 0.026170 0.0
0.799248 0.026270 0.0
0.747420 0.025558 0.0
0.697840 0.024021 0.0
0.652137 0.021682 0.0
0.611844 0.018611 0.0
0.578316 0.014918 0.0
0.552707 0.010691 0.0
0.536215 0.005801 0.0
0.530224 0.000191 0.0
0.534518 -0.004485 0.0
0.546388 -0.007385 0.0
0.562435 -0.008662 0.0
0.579721 -0.008624 0.0
0.595885 -0.007540 0.0
0.609103 -0.005677 0.0
0.618152 -0.003372 0.0
0.622422 -0.000898 0.0
0.621036 0.002284 0.0
0.612447 0.006305 0.0
0.595433 0.010709 0.0
0.569710 0.015015 0.0
0.535916 0.018778 0.0
0.495611 0.021527 0.0
0.451485 0.022599 0.0
0.407729 0.021156 0.0
0.369781 0.016792 0.0
0.342592 0.010397 0.0
0.328129 0.004066 0.0
0.324304 -0.000240 0.0
0.326601 -0.002058 0.0
0.331476 -0.002817 0.0
0.337699 -0.003406 0.0
0.344865 -0.003761 0.0
0.352361 -0.003735 0.0
0.359507 -0.003411 0.0
0.365799 -0.002881 0.0
0.370916 -0.002236 0.0
0.374693 -0.001541 0.0
0.377074 -0.000840 0.0
0.378007 -0.000093 0.0
0.377163 0.000937 0.0
0.374039 0.002188 0.0
0.368491 0.003360 0.0
0.360915 0.004216 0.0
0.352101 0.004598 0.0
0.343085 0.004417 0.0
0.334965 0.003703 0.0
0.328633 0.002628 0.0
0.324522 0.001483 0.0
0.322455 0.000584 0.0
0.321709 0.000162 0.0
0.321260 0.000287 0.0
0.320129 0.000845 0.0
0.317694 0.001590 0.0
0.313867 0.002237 0.0
0.309057 0.002572 0.0
0.303965 0.002520 0.0
0.299294 0.002151 0.0
0.295512 0.001631 0.0
0.292756 0.001126 0.0
0.290907 0.000723 0.0
0.289849 0.000335 0.0
0.289672 -0.000157 0.0
0.290445 -0.000616 0.0
0.292078 -0.001017 0.0
0.294393 -0.001298 0.0
0.297096 -0.001405 0.0
0.299799 -0.001299 0.0
0.302081 -0.000984 0.0
0.303585 -0.000520 0.0
0.304187 -0.000082 0.0
0.303592 0.000677 0.0
1.002910 0.001851 0.0
1.011228 -0.000246 0.0
1.024025 -0.004973 0.0
1.040771 -0.011063 0.0
1.061493 -0.017816 0.0
1.086208 -0.024647 0.0
1.114707 -0.030924 0.0
1.146421 -0.035946 0.0
1.180368 -0.039055 0.0
1.215191 -0.039811 0.0
1.249397 -0.038238 0.0
1.281693 -0.034770 0.0
1.311180 -0.030001 0.0
1.337372 -0.024466 0.0
1.360080 -0.018528 0.0
1.379237 -0.012364 0.0
1.394576 -0.006047 0.0
1.405617 0.000600 0.0
1.411894 0.007826 0.0
1.412917 0.015792 0.0
1.408147 0.024447 0.0
1.397138 0.033572 0.0
1.379647 0.042800 0.0
1.355731 0.051664 0.0
1.325789 0.059667 0.0
1.290559 0.066339 0.0
1.251074 0.071272 0.0
1.208611 0.074143 0.0
1.164635 0.074714 0.0
1.120737 0.072842 0.0
1.078571 0.068483 0.0
1.039782 0.061711 0.0
1.005926 0.052730 0.0
0.978382 0.041871 0.0
0.958228 0.029502 0.0
0.945801 0.015908 0.0
0.940092 0.001783 0.0
0.940042 -0.010322 0.0
0.945715 -0.019092 0.0
0.957305 -0.024592 0.0
0.974426 -0.027101 0.0
0.995943 -0.026745 0.0
1.019809 -0.023557 0.0
1.042909 -0.017641 0.0
1.061242 -0.009230 0.0
1.071618 0.001625 0.0
1.072622 0.014548 0.0
1.063732 0.028369 0.0
1.045111 0.041699 0.0
1.017781 0.053218 0.0
0.983584 0.061590 0.0
0.944949 0.065297 0.0
0.904287 0.062876 0.0
0.863225 0.054083 0.0
0.822408 0.041113 0.0
0.782405 0.027815 0.0
0.745359 0.016882 0.0
0.715764 0.008118 0.0
0.697811 0.000087 0.0
0.691799 -0.006521 0.0
0.694614 -0.010628 0.0
0.702988 -0.012738 0.0
0.714981 -0.013548 0.0
0.729312 -0.013367 0.0
0.744841 -0.012397 0.0
0.760411 -0.010727 0.0
0.774750 -0.008374 0.0
0.786591 -0.005333 0.0
0.795295 -0.001684 0.0
0.801163 0.002065 0.0
0.804801 0.005392 0.0
0.806721 0.007839 0.0
0.807440 0.009072 0.0
0.807391 0.009008 0.0
0.806737 0.007887 0.0
0.805262 0.006252 0.0
0.802422 0.004810 0.0
0.797555 0.004190 0.0
0.790151 0.004705 0.0
0.780075 0.006268 0.0
0.767648 0.008422 0.0
0.753604 0.010491 0.0
0.738991 0.011776 0.0
0.725020 0.011814 0.0
0.712846 0.010543 0.0
0.703334 0.008312 0.0
0.696881 0.005705 0.0
0.693442 0.003246 0.0
0.692738 0.001155 0.0
0.694252 -0.000554 0.0
0.697157 -0.001996 0.0
0.700841 -0.003234 0.0
0.705170 -0.004360 0.0
0.710063 -0.005163 0.0
0.715270 -0.005450 0.0
0.720381 -0.005067 0.0
0.724842 -0.003958 0.0
0.728019 -0.002227 0.0
0.729264 -0.000222 0.0
0.728754 0.001923 0.0
1.001815 -0.002873 0.0
1.008281 -0.010306 0.0
1.020039 -0.019469 0.0
1.036639 -0.029913 0.0
1.058059 -0.041109 0.0
1.084356 -0.052366 0.0
1.115394 -0.062741 0.0
1.150608 -0.071058 0.0
1.188822 -0.076104 0.0
1.228182 -0.076944 0.0
1.266565 -0.073695 0.0
1.302279 -0.067323 0.0
1.334373 -0.059029 0.0
1.362549 -0.049805 0.0
1.386913 -0.040260 0.0
1.407717 -0.030593 0.0
1.425182 -0.020623 0.0
1.439327 -0.010009 0.0
1.449869 0.001615 0.0
1.456302 0.014547 0.0
1.458012 0.028751 0.0
1.454412 0.043877 0.0
1.445110 0.059289 0.0
1.430021 0.074181 0.0
1.409404 0.087709 0.0
1.383832 0.099099 0.0
1.354128 0.107701 0.0
1.321300 0.113004 0.0
1.286484 0.114644 0.0
1.250892 0.112403 0.0
1.215757 0.106224 0.0
1.182280 0.096236 0.0
1.151561 0.082781 0.0
1.124513 0.066413 0.0
1.101731 0.047895 0.0
1.083388 0.028285 0.0
1.069410 0.009094 0.0
1.060204 -0.008376 0.0
1.056810 -0.023317 0.0
1.060273 -0.035419 0.0
1.071155 -0.044277 0.0
1.089218 -0.049150 0.0
1.113278 -0.049079 0.0
1.141232 -0.043173 0.0
1.170203 -0.031002 0.0
1.196602 -0.013379 0.0
1.217167 0.007984 0.0
1.230026 0.030964 0.0
1.234395 0.053357 0.0
1.230231 0.073055 0.0
1.218115 0.088066 0.0
1.198961 0.096610 0.0
1.173621 0.097564 0.0
1.142777 0.091301 0.0
1.107459 0.080030 0.0
1.069782 0.066578 0.0
1.032579 0.052368 0.0
0.997583 0.037224 0.0
0.964659 0.021858 0.0
0.934262 0.008117 0.0
0.909326 -0.003144 0.0
0.892592 -0.011860 0.0
0.883960 -0.017787 0.0
0.881758 -0.021257 0.0
0.884431 -0.022709 0.0
0.890753 -0.022306 0.0
0.899753 -0.020133 0.0
0.910700 -0.016362 0.0
0.922914 -0.011573 0.0
0.935589 -0.006589 0.0
0.948124 -0.002125 0.0
0.960362 0.001198 0.0
0.972345 0.003011 0.0
0.984085 0.003377 0.0
0.995447 0.002809 0.0
1.006119 0.002133 0.0
1.015670 0.002218 0.0
1.023654 0.003666 0.0
1.029660 0.006629 0.0
1.033338 0.010742 0.0
1.034424 0.015289 0.0
1.032666 0.019426 0.0
1.027824 0.022296 0.0
1.019717 0.023373 0.0
1.008260 0.022614 0.0
0.993627 0.020387 0.0
0.976454 0.017256 0.0
0.957928 0.013661 0.0
0.939613 0.009760 0.0
0.923324 0.005616 0.0
0.910998 0.001256 0.0
0.903977 -0.003149 0.0
0.902141 -0.006938 0.0
0.904316 -0.009655 0.0
0.909356 -0.011205 0.0
0.916330 -0.011397 0.0
0.924281 -0.010041 0.0
0.932059 -0.007099 0.0
0.938246 -0.002782 0.0
0.940732 0.002508 0.0
1.001425 -0.006113 0.0
1.006956 -0.019063 0.0
1.017758 -0.033271 0.0
1.033830 -0.048782 0.0
1.055455 -0.065286 0.0
1.083025 -0.082055 0.0
1.116757 -0.097822 0.0
1.156286 -0.110720 0.0
1.200285 -0.118655 0.0
1.245922 -0.119390 0.0
1.289666 -0.113375 0.0
1.329081 -0.102771 0.0
1.363251 -0.089846 0.0
1.392329 -0.076243 0.0
1.416984 -0.062841 0.0
1.437996 -0.049828 0.0
1.455976 -0.036832 0.0
1.471150 -0.023120 0.0
1.483229 -0.007895 0.0
1.491517 0.009338 0.0
1.495136 0.028631 0.0
1.493268 0.049464 0.0
1.485421 0.070852 0.0
1.471555 0.091573 0.0
1.452077 0.110411 0.0
1.427730 0.126316 0.0
1.399454 0.138465 0.0
1.368263 0.146259 0.0
1.335170 0.149297 0.0
1.301146 0.147365 0.0
1.267102 0.140441 0.0
1.233878 0.128721 0.0
1.202235 0.112658 0.0
1.172842 0.092978 0.0
1.146273 0.070681 0.0
1.123087 0.047028 0.0
1.104043 0.023373 0.0
1.090138 0.000456 0.0
1.082588 -0.021205 0.0
1.082599 -0.041006 0.0
1.090926 -0.057897 0.0
1.107616 -0.070282 0.0
1.131965 -0.076357 0.0
1.162630 -0.074515 0.0
1.197668 -0.063669 0.0
1.234353 -0.043796 0.0
1.268903 -0.016714 0.0
1.297432 0.014274 0.0
1.317851 0.045259 0.0
1.329789 0.073378 0.0
1.333380 0.096268 0.0
1.328878 0.112065 0.0
1.316543 0.119783 0.0
1.296771 0.119698 0.0
1.270461 0.113260 0.0
1.239198 0.102287 0.0
1.204878 0.088182 0.0
1.169182 0.072101 0.0
1.133651 0.055436 0.0
1.099608 0.038979 0.0
1.067489 0.023048 0.0
1.037544 0.008626 0.0
1.011349 -0.003445 0.0
0.990819 -0.012867 0.0
0.976388 -0.019342 0.0
0.967303 -0.022910 0.0
0.962582 -0.023808 0.0
0.961316 -0.022368 0.0
0.962740 -0.019205 0.0
0.966327 -0.015220 0.0
0.971819 -0.011520 0.0
0.979202 -0.009029 0.0
0.988690 -0.008233 0.0
1.000623 -0.009051 0.0
1.015359 -0.010861 0.0
1.033127 -0.012638 0.0
1.053828 -0.013261 0.0
1.076832 -0.011843 0.0
1.100933 -0.007969 0.0
1.124440 -0.001846 0.0
1.145480 0.005751 0.0
1.162515 0.013687 0.0
1.174542 0.020851 0.0
1.180898 0.026571 0.0
1.181185 0.030586 0.0
1.175432 0.032801 0.0
1.164195 0.033251 0.0
1.148456 0.031930 0.0
1.129460 0.028802 0.0
1.108481 0.023841 0.0
1.086592 0.017246 0.0
1.064830 0.009643 0.0
1.044988 0.001947 0.0
1.029444 -0.005170 0.0
1.019548 -0.010833 0.0
1.015045 -0.014240 0.0
1.014857 -0.014961 0.0
1.017587 -0.012687 0.0
1.021494 -0.007288 0.0
1.023028 0.002994 0.0
1.001224 -0.008762 0.0
1.006121 -0.026842 0.0
1.016038 -0.046212 0.0
1.031392 -0.067268 0.0
1.052951 -0.089984 0.0
1.081730 -0.113706 0.0
1.118693 -0.136866 0.0
1.164093 -0.156606 0.0
1.216879 -0.169556 0.0
1.272130 -0.169376 0.0
1.323017 -0.158020 0.0
1.366045 -0.140569 0.0
1.400955 -0.121129 0.0
1.429033 -0.102116 0.0
1.452005 -0.084595 0.0
1.471525 -0.068606 0.0
1.488873 -0.053381 0.0
1.504687 -0.037559 0.0
1.518688 -0.019538 0.0
1.529582 0.001799 0.0
1.535643 0.026491 0.0
1.535406 0.053709 0.0
1.527975 0.081885 0.0
1.513251 0.109130 0.0
1.491869 0.133714 0.0
1.464927 0.154300 0.0
1.433711 0.169972 0.0
1.399491 0.180163 0.0
1.363414 0.184563 0.0
1.326474 0.183064 0.0
1.289518 0.175743 0.0
1.253284 0.162876 0.0
1.218452 0.144977 0.0
1.185690 0.122813 0.0
1.155710 0.097396 0.0
1.129305 0.069904 0.0
1.107371 0.041475 0.0
1.090798 0.012832 0.0
1.080385 -0.015617 0.0
1.076838 -0.043060 0.0
1.080644 -0.067976 0.0
1.092001 -0.088250 0.0
1.111005 -0.101742 0.0
1.137827 -0.106617 0.0
1.172487 -0.101264 0.0
1.214115 -0.084514 0.0
1.260015 -0.056447 0.0
1.304992 -0.019498 0.0
1.342552 0.021053 0.0
1.369309 0.058890 0.0
1.385524 0.090950 0.0
1.392001 0.115408 0.0
1.389419 0.131357 0.0
1.378432 0.138883 0.0
1.359905 0.138913 0.0
1.335022 0.132780 0.0
1.305177 0.121855 0.0
1.271806 0.107495 0.0
1.236344 0.091036 0.0
1.200160 0.073607 0.0
1.164505 0.056195 0.0
1.130454 0.039476 0.0
1.098578 0.023777 0.0
1.069172 0.009846 0.0
1.043008 -0.001460 0.0
1.020919 -0.009617 0.0
1.002868 -0.014328 0.0
0.988061 -0.015774 0.0
0.975574 -0.014736 0.0
0.964806 -0.012509 0.0
0.955725 -0.010642 0.0
0.948935 -0.010501 0.0
0.945553 -0.012866 0.0
0.946882 -0.017679 0.0
0.954077 -0.024163 0.0
0.967910 -0.030937 0.0
0.988628 -0.036381 0.0
1.015958 -0.039058 0.0
1.049120 -0.038018 0.0
1.086742 -0.032926 0.0
1.126672 -0.024137 0.0
1.165833 -0.012620 0.0
1.200612 0.000352 0.0
1.228021 0.013304 0.0
1.246789 0.024799 0.0
1.257013 0.034118 0.0
1.259257 0.040926 0.0
1.254347 0.044905 0.0
1.243322 0.045847 0.0
1.227363 0.043734 0.0
1.207780 0.038826 0.0
1.186013 0.031593 0.0
1.163357 0.022494 0.0
1.140783 0.012402 0.0
1.119537 0.002737 0.0
1.101375 -0.005145 0.0
1.087508 -0.010002 0.0
1.077915 -0.010783 0.0
1.071635 -0.006818 0.0
1.066672 0.005952 0.0
1.001023 -0.011009 0.0
1.005179 -0.033649 0.0
1.013822 -0.057963 0.0
1.027735 -0.084785 0.0
1.048267 -0.114559 0.0
1.077357 -0.147000 0.0
1.117327 -0.180505 0.0
1.169945 -0.210984 0.0
1.236134 -0.234154 0.0
1.305706 -0.229600 0.0
1.363847 -0.206824 0.0
1.406982 -0.177928 0.0
1.437694 -0.149391 0.0
1.459680 -0.123919 0.0
1.476269 -0.102353 0.0
1.490258 -0.084357 0.0
1.503888 -0.068608 0.0
1.518603 -0.052861 0.0
1.534560 -0.034194 0.0
1.549952 -0.009832 0.0
1.561277 0.020735 0.0
1.565307 0.055672 0.0
1.560327 0.092333 0.0
1.546059 0.127675 0.0
1.523417 0.159193 0.0
1.493959 0.185221 0.0
1.459404 0.204823 0.0
1.421356 0.217580 0.0
1.381193 0.223386 0.0
1.340045 0.222328 0.0
1.298848 0.214632 0.0
1.258405 0.200664 0.0
1.219474 0.180954 0.0
1.182842 0.156230 0.0
1.149373 0.127429 0.0
1.119959 0.095690 0.0
1.095303 0.062279 0.0
1.075528 0.028376 0.0
1.059991 -0.005211 0.0
1.048023 -0.037952 0.0
1.039708 -0.068575 0.0
1.035989 -0.095289 0.0
1.038749 -0.116467 0.0
1.050685 -0.130650 0.0
1.074469 -0.135676 0.0
1.111527 -0.128789 0.0
1.161160 -0.107704 0.0
1.219958 -0.072016 0.0
1.280844 -0.024876 0.0
1.333258 0.025648 0.0
1.370899 0.070337 0.0
1.394383 0.106061 0.0
1.405513 0.132156 0.0
1.405821 0.148762 0.0
1.396718 0.156665 0.0
1.379594 0.157034 0.0
1.355847 0.151192 0.0
1.326864 0.140511 0.0
1.294015 0.126330 0.0
1.258638 0.109874 0.0
1.222008 0.092212 0.0
1.185290 0.074227 0.0
1.149491 0.056700 0.0
1.115410 0.040409 0.0
1.083431 0.026120 0.0
1.053422 0.014900 0.0
1.024944 0.007684 0.0
0.997398 0.004568 0.0
0.970298 0.004509 0.0
0.943834 0.005477 0.0
0.919221 0.005066 0.0
0.898471 0.001331 0.0
0.883794 -0.006640 0.0
0.877114 -0.018555 0.0
0.879541 -0.032910 0.0
0.891083 -0.047565 0.0
0.911008 -0.060395 0.0
0.938318 -0.069685 0.0
0.972010 -0.074246 0.0
1.011090 -0.073400 0.0
1.054433 -0.066937 0.0
1.100574 -0.055123 0.0
1.147439 -0.038791 0.0
1.192009 -0.019533 0.0
1.230355 0.000520 0.0
1.259352 0.019177 0.0
1.278289 0.034686 0.0
1.287898 0.046446 0.0
1.289127 0.054103 0.0
1.283053 0.057511 0.0
1.270896 0.056789 0.0
1.253984 0.052310 0.0
1.233698 0.044719 0.0
1.211450 0.034999 0.0
1.188567 0.024268 0.0
1.166101 0.013951 0.0
1.145002 0.005868 0.0
1.126202 0.001740 0.0
1.110305 0.002836 0.0
1.098241 0.013325 0.0
1.000742 -0.012774 0.0
1.003798 -0.039096 0.0
1.010338 -0.067698 0.0
1.021401 -0.100026 0.0
1.038881 -0.137329 0.0
1.065838 -0.180277 0.0
1.106742 -0.228103 0.0
1.166615 -0.275877 0.0
1.253336 -0.322170 0.0
1.342158 -0.299977 0.0
1.400596 -0.253026 0.0
1.432357 -0.206622 0.0
1.447935 -0.166986 0.0
1.454543 -0.134918 0.0
1.456809 -0.110209 0.0
1.458294 -0.091976 0.0
1.462107 -0.078432 0.0
1.470910 -0.066555 0.0
1.486346 -0.051892 0.0
1.507642 -0.028822 0.0
1.529269 0.006774 0.0
1.543707 0.051166 0.0
1.546810 0.098715 0.0
1.538015 0.144357 0.0
1.518678 0.184489 0.0
1.490920 0.217141 0.0
1.456878 0.241500 0.0
1.418401 0.257426 0.0
1.377001 0.265103 0.0
1.333903 0.264856 0.0
1.290133 0.257071 0.0
1.246609 0.242192 0.0
1.204223 0.220743 0.0
1.163921 0.193375 0.0
1.126719 0.160955 0.0
1.093556 0.124741 0.0
1.064799 0.086640 0.0
1.039442 0.049146 0.0
1.014695 0.014304 0.0
0.987183 -0.017987 0.0
0.956646 -0.049688 0.0
0.927469 -0.081279 0.0
0.906277 -0.112044 0.0
0.899375 -0.140107 0.0
0.910638 -0.161265 0.0
0.940836 -0.170456 0.0
0.988581 -0.163415 0.0
1.051208 -0.137731 0.0
1.124788 -0.093627 0.0
1.202403 -0.035631 0.0
1.271368 0.025010 0.0
1.322480 0.076792 0.0
1.356115 0.116660 0.0
1.374894 0.145171 0.0
1.380978 0.163275 0.0
1.376290 0.172236 0.0
1.362578 0.173450 0.0
1.341464 0.168352 0.0
1.314466 0.158336 0.0
1.283014 0.144697 0.0
1.248437 0.128595 0.0
1.211942 0.111058 0.0
1.174542 0.093069 0.0
1.136942 0.075721 0.0
1.099364 0.060365 0.0
1.061489 0.048539 0.0
1.022686 0.041325 0.0
0.982620 0.038539 0.0
0.942023 0.038236 0.0
0.903065 0.037172 0.0
0.868937 0.032111 0.0
0.842828 0.021145 0.0
0.826876 0.004176 0.0
0.821661 -0.017476 0.0
0.826490 -0.041245 0.0
0.839998 -0.064281 0.0
0.860697 -0.084303 0.0
0.887353 -0.099742 0.0
0.919066 -0.109593 0.0
0.955180 -0.113246 0.0
0.995125 -0.110379 0.0
1.038239 -0.100936 0.0
1.083589 -0.085193 0.0
1.129793 -0.063904 0.0
1.174852 -0.038514 0.0
1.215708 -0.011642 0.0
1.248673 0.013603 0.0
1.271842 0.034751 0.0
1.285481 0.050931 0.0
1.290390 0.061847 0.0
1.287546 0.067455 0.0
1.278080 0.068020 0.0
1.263236 0.064140 0.0
1.244305 0.056756 0.0
1.222568 0.047131 0.0
1.199254 0.036868 0.0
1.175554 0.027752 0.0
1.152659 0.021552 0.0
1.131866 0.019713 0.0
1.115690 0.024689 0.0
1.000342 -0.013858 0.0
1.001780 -0.042506 0.0
1.005051 -0.074099 0.0
1.011187 -0.110826 0.0
1.022286 -0.155108 0.0
1.042291 -0.209462 0.0
1.078282 -0.275813 0.0
1.141258 -0.351015 0.0
1.257125 -0.449620 0.0
1.363849 -0.368073 0.0
1.397706 -0.277226 0.0
1.394614 -0.211091 0.0
1.379045 -0.162526 0.0
1.359236 -0.126177 0.0
1.338424 -0.100404 0.0
1.319264 -0.084105 0.0
1.304815 -0.075666 0.0
1.298817 -0.072127 0.0
1.305508 -0.068447 0.0
1.328219 -0.056274 0.0
1.365172 -0.024354 0.0
1.402514 0.030514 0.0
1.426514 0.092264 0.0
1.435036 0.151082 0.0
1.430204 0.201933 0.0
1.414830 0.242829 0.0
1.391304 0.273381 0.0
1.361454 0.293872 0.0
1.326710 0.304802 0.0
1.288266 0.306699 0.0
1.247199 0.300064 0.0
1.204536 0.285386 0.0
1.161306 0.263166 0.0
1.118556 0.234004 0.0
1.077293 0.198791 0.0
1.038148 0.159214 0.0
1.000540 0.118533 0.0
0.961670 0.081480 0.0
0.917144 0.051244 0.0
0.864651 0.025077 0.0
0.807774 -0.005337 0.0
0.757626 -0.046306 0.0
0.727093 -0.095292 0.0
0.721100 -0.143964 0.0
0.736830 -0.184402 0.0
0.769972 -0.210658 0.0
0.817580 -0.218565 0.0
0.877934 -0.205563 0.0
0.949527 -0.170967 0.0
1.030123 -0.116502 0.0
1.114973 -0.047934 0.0
1.192184 0.021412 0.0
1.251371 0.079218 0.0
1.292186 0.123018 0.0
1.317288 0.154242 0.0
1.328862 0.174383 0.0
1.328876 0.185001 0.0
1.319132 0.187659 0.0
1.301301 0.183858 0.0
1.276924 0.175004 0.0
1.247404 0.162385 0.0
1.213956 0.147211 0.0
1.177522 0.130748 0.0
1.138636 0.114527 0.0
1.097344 0.100429 0.0
1.053388 0.090307 0.0
1.006767 0.084980 0.0
0.958520 0.083197 0.0
0.911185 0.081511 0.0
0.868448 0.075592 0.0
0.834039 0.062229 0.0
0.810526 0.040648 0.0
0.798731 0.012419 0.0
0.797826 -0.019601 0.0
0.805941 -0.052064 0.0
0.821047 -0.082075 0.0
0.841528 -0.107688 0.0
0.866258 -0.127743 0.0
0.894529 -0.141576 0.0
0.925937 -0.148785 0.0
0.960250 -0.149098 0.0
0.997260 -0.142340 0.0
1.036628 -0.128507 0.0
1.077748 -0.107914 0.0
1.119607 -0.081422 0.0
1.160668 -0.050650 0.0
1.198592 -0.018278 0.0
1.230100 0.011955 0.0
1.252978 0.037212 0.0
1.267045 0.056590 0.0
1.272804 0.069798 0.0
1.271026 0.076919 0.0
1.262683 0.078429 0.0
1.248871 0.075209 0.0
1.230761 0.068525 0.0
1.209578 0.059971 0.0
1.186626 0.051300 0.0
1.163367 0.044157 0.0
1.141526 0.039740 0.0
1.124078 0.038286 0.0
0.999821 -0.014021 0.0
0.999122 -0.043082 0.0
0.997897 -0.075568 0.0
0.996734 -0.114330 0.0
0.997113 -0.163082 0.0
1.002560 -0.226940 0.0
1.021320 -0.313085 0.0
1.071782 -0.427181 0.0
1.214490 -0.632030 0.0
1.312747 -0.390645 0.0
1.267675 -0.243439 0.0
1.199062 -0.173172 0.0
1.140983 -0.126798 0.0
1.090559 -0.091674 0.0
1.044017 -0.067553 0.0
1.000725 -0.054505 0.0
0.962468 -0.052560 0.0
0.934078 -0.060844 0.0
0.924060 -0.076403 0.0
0.941718 -0.088687 0.0
0.991263 -0.078440 0.0
1.065185 -0.026665 0.0
1.136025 0.054603 0.0
1.184581 0.131664 0.0
1.214173 0.196590 0.0
1.229191 0.248529 0.0
1.232310 0.288089 0.0
1.225203 0.316121 0.0
1.209140 0.333362 0.0
1.185302 0.340421 0.0
1.154881 0.337831 0.0
1.119057 0.326105 0.0
1.078916 0.305818 0.0
1.035150 0.277867 0.0
0.987243 0.244097 0.0
0.932207 0.208089 0.0
0.864943 0.174529 0.0
0.783489 0.145806 0.0
0.696420 0.118513 0.0
0.622022 0.084698 0.0
0.576625 0.037317 0.0
0.563097 -0.025283 0.0
0.572246 -0.094932 0.0
0.594046 -0.160130 0.0
0.623555 -0.213475 0.0
0.659634 -0.250805 0.0
0.702929 -0.269321 0.0
0.754633 -0.266864 0.0
0.815609 -0.242234 0.0
0.885767 -0.195989 0.0
0.963679 -0.131209 0.0
1.045670 -0.054515 0.0
1.121349 0.020278 0.0
1.180916 0.081575 0.0
1.223481 0.128019 0.0
1.251077 0.161435 0.0
1.265489 0.183524 0.0
1.268411 0.195958 0.0
1.261456 0.200346 0.0
1.246134 0.198214 0.0
1.223818 0.191011 0.0
1.195666 0.180185 0.0
1.162519 0.167355 0.0
1.124825 0.154500 0.0
1.082736 0.143837 0.0
1.036534 0.137058 0.0
0.987323 0.134061 0.0
0.937577 0.132108 0.0
0.891020 0.126492 0.0
0.851657 0.112709 0.0
0.822507 0.088671 0.0
0.804814 0.055412 0.0
0.798126 0.016140 0.0
0.800872 -0.025161 0.0
0.810994 -0.064740 0.0
0.826535 -0.100047 0.0
0.845961 -0.129624 0.0
0.868189 -0.152767 0.0
0.892558 -0.169192 0.0
0.918768 -0.178786 0.0
0.946788 -0.181430 0.0
0.976723 -0.176953 0.0
1.008651 -0.165191 0.0
1.042465 -0.146164 0.0
1.077745 -0.120312 0.0
1.113654 -0.088730 0.0
1.148869 -0.053338 0.0
1.181414 -0.017039 0.0
1.208517 0.016225 0.0
1.228252 0.043774 0.0
1.240301 0.064806 0.0
1.244906 0.079084 0.0
1.242647 0.086868 0.0
1.234334 0.088896 0.0
1.220945 0.086338 0.0
1.203600 0.080686 0.0
1.183593 0.073544 0.0
1.162461 0.066305 0.0
1.142063 0.059832 0.0
1.125310 0.052396 0.0
0.999234 -0.013076 0.0
0.996102 -0.040196 0.0
0.989613 -0.070741 0.0
0.979410 -0.107790 0.0
0.965180 -0.155771 0.0
0.947307 -0.221824 0.0
0.929143 -0.318797 0.0
0.925537 -0.468326 0.0
1.019324 -0.827378 0.0
1.017556 -0.191253 0.0
0.833819 -0.103253 0.0
0.692392 -0.093082 0.0
0.611410 -0.067827 0.0
0.549810 -0.038622 0.0
0.490643 -0.014895 0.0
0.435096 -0.008324 0.0
0.395079 -0.020467 0.0
0.381460 -0.050928 0.0
0.399808 -0.094649 0.0
0.449292 -0.137583 0.0
0.525725 -0.155522 0.0
0.624778 -0.122558 0.0
0.737510 -0.033075 0.0
0.837115 0.071181 0.0
0.909467 0.155129 0.0
0.962753 0.221687 0.0
1.000484 0.274080 0.0
1.023822 0.313899 0.0
1.033553 0.341916 0.0
1.030629 0.358628 0.0
1.016153 0.364521 0.0
0.991165 0.360227 0.0
0.956206 0.346796 0.0
0.910560 0.326300 0.0
0.851701 0.302430 0.0
0.777051 0.279442 0.0
0.689476 0.258015 0.0
0.601723 0.231526 0.0
0.531959 0.189625 0.0
0.492699 0.127243 0.0
0.484586 0.048282 0.0
0.498946 -0.037080 0.0
0.524559 -0.117897 0.0
0.553834 -0.188240 0.0
0.583997 -0.245036 0.0
0.615076 -0.286402 0.0
0.648697 -0.310641 0.0
0.687282 -0.315832 0.0
0.733210 -0.300171 0.0
0.787961 -0.262961 0.0
0.851525 -0.205715 0.0
0.922251 -0.132726 0.0
0.996429 -0.051368 0.0
1.064960 0.025123 0.0
1.119724 0.087143 0.0
1.159815 0.134624 0.0
1.186458 0.169281 0.0
1.200939 0.192797 0.0
1.204583 0.206819 0.0
1.198689 0.212957 0.0
1.184460 0.212815 0.0
1.162901 0.208093 0.0
1.134741 0.200754 0.0
1.100455 0.193081 0.0
1.060536 0.187264 0.0
1.016041 0.184327 0.0
0.969167 0.182877 0.0
0.923364 0.178841 0.0
0.882666 0.167016 0.0
0.850492 0.143722 0.0
0.828690 0.108611 0.0
0.817383 0.064472 0.0
0.815497 0.015653 0.0
0.821343 -0.033266 0.0
0.833030 -0.078445 0.0
0.848795 -0.117648 0.0
0.867166 -0.149820 0.0
0.887035 -0.174668 0.0
0.907693 -0.192319 0.0
0.928848 -0.203024 0.0
0.950579 -0.206942 0.0
0.973225 -0.204022 0.0
0.997216 -0.194041 0.0
1.022876 -0.176788 0.0
1.050251 -0.152343 0.0
1.079002 -0.121360 0.0
1.108352 -0.085273 0.0
1.137069 -0.046366 0.0
1.163334 -0.007816 0.0
1.184909 0.026505 0.0
1.200335 0.054599 0.0
1.209262 0.075759 0.0
1.211805 0.089909 0.0
1.208420 0.097553 0.0
1.199813 0.099677 0.0
1.186914 0.097589 0.0
1.170897 0.092664 0.0
1.153228 0.085986 0.0
1.135704 0.078072 0.0
1.120908 0.065705 0.0
0.998688 -0.010999 0.0
0.993284 -0.033736 0.0
0.981811 -0.059239 0.0
0.962782 -0.090059 0.0
0.933431 -0.129922 0.0
0.888667 -0.185037 0.0
0.818495 -0.267248 0.0
0.703367 -0.401142 0.0
0.315675 -0.701190 0.0
-0.462855 0.243655 0.0
-0.462855 0.000000 0.0
-0.032103 -0.022336 0.0
-0.061680 -0.037779 0.0
-0.048954 -0.019796 0.0
-0.017809 -0.005699 0.0
0.019701 0.000517 0.0
0.046027 -0.015617 0.0
0.063674 -0.059807 0.0
0.084331 -0.124775 0.0
0.120013 -0.192623 0.0
0.178235 -0.235138 0.0
0.261478 -0.225239 0.0
0.368605 -0.150252 0.0
0.488677 -0.031318 0.0
0.595843 0.078109 0.0
0.679656 0.161608 0.0
0.746586 0.229498 0.0
0.797023 0.284706 0.0
0.830711 0.327690 0.0
0.847879 0.358609 0.0
0.849001 0.377893 0.0
0.834312 0.386533 0.0
0.803285 0.386475 0.0
0.754687 0.380865 0.0
0.688599 0.372814 0.0
0.610721 0.361586 0.0
0.534839 0.339328 0.0
0.477924 0.294882 0.0
0.450449 0.223508 0.0
0.451761 0.131309 0.0
0.473731 0.030360 0.0
0.505775 -0.065563 0.0
0.539684 -0.148936 0.0
0.571512 -0.218305 0.0
0.599711 -0.273332 0.0
0.624448 -0.313922 0.0
0.647381 -0.339676 0.0
0.671415 -0.349416 0.0
0.700091 -0.341192 0.0
0.736548 -0.313147 0.0
0.782435 -0.264979 0.0
0.837368 -0.199120 0.0
0.899092 -0.120876 0.0
0.963364 -0.038172 0.0
1.022150 0.036887 0.0
1.069343 0.097596 0.0
1.104333 0.144677 0.0
1.127664 0.179587 0.0
1.140164 0.203884 0.0
1.142760 0.219188 0.0
1.136359 0.227214 0.0
1.121742 0.229870 0.0
1.099526 0.229352 0.0
1.070308 0.227987 0.0
1.035043 0.227543 0.0
0.995560 0.228026 0.0
0.954845 0.226767 0.0
0.916693 0.218906 0.0
0.884726 0.199616 0.0
0.861355 0.166667 0.0
0.847364 0.121458 0.0
0.842256 0.068039 0.0
0.844874 0.011354 0.0
0.853689 -0.043626 0.0
0.866979 -0.093062 0.0
0.883107 -0.134925 0.0
0.900643 -0.168450 0.0
0.918443 -0.193706 0.0
0.935739 -0.211234 0.0
0.952195 -0.221720 0.0
0.967926 -0.225707 0.0
0.983424 -0.223401 0.0
0.999408 -0.214638 0.0
1.016601 -0.199043 0.0
1.035496 -0.176358 0.0
1.056200 -0.146800 0.0
1.078367 -0.111349 0.0
1.101207 -0.071847 0.0
1.123532 -0.030924 0.0
1.143595 0.007975 0.0
1.159649 0.041649 0.0
1.170716 0.068716 0.0
1.176455 0.088670 0.0
1.176938 0.101695 0.0
1.172560 0.108520 0.0
1.164005 0.110200 0.0
1.152249 0.107827 0.0
1.138586 0.102155 0.0
1.124632 0.093381 0.0
1.112517 0.077308 0.0
0.998306 -0.007993 0.0
0.991319 -0.024350 0.0
0.976420 -0.042254 0.0
0.951459 -0.063054 0.0
0.912298 -0.088415 0.0
0.850952 -0.120434 0.0
0.750727 -0.161453 0.0
0.572347 -0.213429 0.0
0.228326 -0.254512 0.0
0.000000 0.243655 0.0
-0.000000 -0.000000 0.0
0.000000 0.000000 0.0
-0.021336 -0.020153 0.0
-0.047752 -0.024917 0.0
-0.055814 -0.023661 0.0
-0.069681 -0.005164 0.0
-0.095880 -0.010063 0.0
-0.123659 -0.055230 0.0
-0.139132 -0.134536 0.0
-0.133447 -0.224228 0.0
-0.102851 -0.292351 0.0
-0.041390 -0.312729 0.0
0.055052 -0.266331 0.0
0.177506 -0.157766 0.0
0.306157 -0.031260 0.0
0.417909 0.075413 0.0
0.506090 0.160583 0.0
0.575953 0.233321 0.0
0.627202 0.294139 0.0
0.659368 0.342827 0.0
0.672087 0.379833 0.0
0.664882 0.406488 0.0
0.637531 0.424898 0.0
0.591799 0.436772 0.0
0.534401 0.440393 0.0
0.478400 0.427887 0.0
0.439173 0.388136 0.0
0.426433 0.315730 0.0
0.439906 0.216662 0.0
0.472418 0.104332 0.0
0.514479 -0.006695 0.0
0.557437 -0.103510 0.0
0.596420 -0.183880 0.0
0.629547 -0.248316 0.0
0.655856 -0.297830 0.0
0.675317 -0.333621 0.0
0.689074 -0.356667 0.0
0.699696 -0.367081 0.0
0.711103 -0.363609 0.0
0.727796 -0.343880 0.0
0.753451 -0.305789 0.0
0.789586 -0.249379 0.0
0.835162 -0.177916 0.0
0.887189 -0.097430 0.0
0.940775 -0.016228 0.0
0.989143 0.055149 0.0
1.028018 0.113259 0.0
1.056818 0.158872 0.0
1.075682 0.193236 0.0
1.085052 0.217870 0.0
1.085462 0.234523 0.0
1.077432 0.245208 0.0
1.061504 0.252157 0.0
1.038469 0.257436 0.0
1.009762 0.262066 0.0
0.977810 0.264938 0.0
0.945947 0.262433 0.0
0.917728 0.249612 0.0
0.895936 0.222669 0.0
0.881947 0.180975 0.0
0.875817 0.127272 0.0
0.876834 0.066315 0.0
0.883954 0.003339 0.0
0.895789 -0.056261 0.0
0.910726 -0.108654 0.0
0.927220 -0.151956 0.0
0.943898 -0.185632 0.0
0.959644 -0.210070 0.0
0.973684 -0.226206 0.0
0.985656 -0.235177 0.0
0.995665 -0.237989 0.0
1.004275 -0.235227 0.0
1.012403 -0.226924 0.0
1.021104 -0.212650 0.0
1.031302 -0.191844 0.0
1.043553 -0.164270 0.0
1.057920 -0.130414 0.0
1.073973 -0.091676 0.0
1.090863 -0.050311 0.0
1.107373 -0.009212 0.0
1.121957 0.028197 0.0
1.133298 0.059760 0.0
1.140691 0.084494 0.0
1.143863 0.102215 0.0
1.142901 0.113339 0.0
1.138218 0.118620 0.0
1.130551 0.118831 0.0
1.120965 0.114399 0.0
1.110812 0.105243 0.0
1.101735 0.086639 0.0
0.998163 -0.004462 0.0
0.990612 -0.013342 0.0
0.974608 -0.022359 0.0
0.948125 -0.031505 0.0
0.907571 -0.040249 0.0
0.847036 -0.046720 0.0
0.757723 -0.045630 0.0
0.628882 -0.022030 0.0
0.465645 0.064556 0.0
0.189056 0.170937 0.0
0.000000 0.000000 0.0
-0.000000 -0.000000 0.0
0.000000 0.000000 0.0
-0.011568 -0.009918 0.0
-0.045802 0.001987 0.0
-0.107913 0.045166 0.0
-0.181411 0.039304 0.0
-0.237186 -0.021043 0.0
-0.265486 -0.124949 0.0
-0.266831 -0.238155 0.0
-0.248005 -0.327847 0.0
-0.212044 -0.374655 0.0
-0.151011 -0.361879 0.0
-0.051102 -0.284582 0.0
0.073309 -0.157506 0.0
0.194200 -0.030985 0.0
0.297238 0.075761 0.0
0.378378 0.167140 0.0
0.440224 0.247224 0.0
0.482088 0.315713 0.0
0.503375 0.372941 0.0
0.504235 0.419726 0.0
0.486902 0.456342 0.0
0.457628 0.480335 0.0
0.427513 0.484343 0.0
0.409732 0.457719 0.0
0.413465 0.393796 0.0
0.439764 0.296511 0.0
0.483265 0.178907 0.0
0.536582 0.056260 0.0
0.590786 -0.054888 0.0
0.639453 -0.146942 0.0
0.680805 -0.220783 0.0
0.713903 -0.277639 0.0
0.738210 -0.319125 0.0
0.753620 -0.347197 0.0
0.760675 -0.363902 0.0
0.761004 -0.370797 0.0
0.757802 -0.368098 0.0
0.755814 -0.354096 0.0
0.760316 -0.325729 0.0
0.775289 -0.280547 0.0
0.801904 -0.218939 0.0
0.838371 -0.144903 0.0
0.880995 -0.064965 0.0
0.924242 0.012271 0.0
0.962630 0.078876 0.0
0.993479 0.133606 0.0
1.016048 0.177069 0.0
1.030198 0.210517 0.0
1.036056 0.235609 0.0
1.033904 0.254303 0.0
1.024271 0.268623 0.0
1.008185 0.280092 0.0
0.987484 0.288817 0.0
0.964902 0.292721 0.0
0.943665 0.287750 0.0
0.926671 0.269507 0.0
0.915723 0.235512 0.0
0.911339 0.186505 0.0
0.913158 0.126054 0.0
0.920462 0.059212 0.0
0.932326 -0.008541 0.0