# vtk DataFile Version 3.0
Scalar Field
ASCII
DATASET RECTILINEAR_GRID
DIMENSIONS 100 26 1
X_COORDINATES 100 double
0.050000 0.150000 0.250000 0.350000 0.450000 0.550000 0.650000 0.750000 0.850000 0.950000 1.050000 1.150000 1.250000 1.350000 1.450000 1.550000 1.650000 1.750000 1.850000 1.950000 2.050000 2.150000 2.250000 2.350000 2.450000 2.550000 2.650000 2.750000 2.850000 2.950000 3.050000 3.150000 3.250000 3.350000 3.450000 3.550000 3.650000 3.750000 3.850000 3.950000 4.050000 4.150000 4.250000 4.350000 4.450000 4.550000 4.650000 4.750000 4.850000 4.950000 5.050000 5.150000 5.250000 5.350000 5.450000 5.550000 5.650000 5.750000 5.850000 5.950000 6.050000 6.150000 6.250000 6.350000 6.450000 6.550000 6.650000 6.750000 6.850000 6.950000 7.050000 7.150000 7.250000 7.350000 7.450000 7.550000 7.650000 7.750000 7.850000 7.950000 8.050000 8.150000 8.250000 8.350000 8.450000 8.550000 8.650000 8.750000 8.850000 8.950000 9.050000 9.150000 9.250000 9.350000 9.450000 9.550000 9.650000 9.750000 9.850000 9.950000 
Y_COORDINATES 26 double
0.050000 0.150000 0.250000 0.350000 0.450000 0.550000 0.650000 0.750000 0.850000 0.950000 1.050000 1.150000 1.250000 1.350000 1.450000 1.550000 1.650000 1.750000 1.850000 1.950000 2.050000 2.150000 2.250000 2.350000 2.450000 2.550000 
Z_COORDINATES 1 double
0.0
POINT_DATA 2600
SCALARS Skalarfeld double 1
LOOKUP_TABLE default
0.272694
0.257351
0.241936
0.223419
0.200664
0.173177
0.140885
0.104133
0.063761
0.021137
-0.021932
-0.063474
-0.101679
-0.135154
-0.162910
-0.183871
-0.197977
-0.205474
-0.206891
-0.202969
-0.194591
-0.182689
-0.168171
-0.151856
-0.134436
-0.116473
-0.098420
-0.080665
-0.063585
-0.047588
-0.033105
-0.020241
-0.009489
-0.001478
0.003866
0.007075
0.008493
0.008413
0.006953
0.004043
-0.000495
-0.006807
-0.014842
-0.024227
-0.034192
-0.043552
-0.050760
-0.054166
-0.052842
-0.046912
-0.037846
-0.027783
-0.017866
-0.008711
-0.000626
0.006272
0.011983
0.016561
0.020060
0.022339
0.023604
0.023614
0.022352
0.019977
0.016890
0.013637
0.010696
0.008231
0.006027
0.003671
0.000869
-0.002353
-0.005675
-0.008668
-0.010986
-0.012456
-0.013141
-0.013226
-0.012898
-0.012247
-0.011322
-0.010235
-0.009117
-0.008081
-0.007220
-0.006606
-0.006291
-0.006302
-0.006653
-0.007369
-0.008404
-0.009766
-0.011410
-0.013280
-0.015321
-0.017480
-0.019704
-0.021941
-0.024143
-0.026220
0.263997
0.257464
0.245045
0.227704
0.205275
0.177521
0.144396
0.106249
0.064000
0.019223
-0.025947
-0.069242
-0.108683
-0.142743
-0.170389
-0.191430
-0.205399
-0.212535
-0.213385
-0.208721
-0.199459
-0.186574
-0.171021
-0.153664
-0.135242
-0.116353
-0.097480
-0.079034
-0.061407
-0.045044
-0.030186
-0.017487
-0.007409
0.000086
0.004919
0.007335
0.008003
0.007312
0.005413
0.002225
-0.002463
-0.008839
-0.016896
-0.026296
-0.036293
-0.045687
-0.052808
-0.055744
-0.053166
-0.046191
-0.037684
-0.027820
-0.018007
-0.008908
-0.000851
0.006047
0.011789
0.016433
0.020068
0.022829
0.024193
0.024200
0.022908
0.020438
0.017245
0.013943
0.011044
0.008693
0.006586
0.004212
0.001228
-0.002305
-0.005950
-0.009122
-0.011432
-0.012916
-0.013540
-0.013569
-0.013229
-0.012576
-0.011593
-0.010435
-0.009253
-0.008155
-0.007231
-0.006560
-0.006197
-0.006171
-0.006489
-0.007139
-0.008172
-0.009566
-0.011241
-0.013137
-0.015204
-0.017389
-0.019638
-0.021897
-0.024120
-0.025747
0.267393
0.263219
0.252686
0.236356
0.214143
0.185744
0.150967
0.110051
0.063999
0.014777
-0.034695
-0.081490
-0.123375
-0.158927
-0.187373
-0.208485
-0.222119
-0.228412
-0.227953
-0.221549
-0.210173
-0.194884
-0.176744
-0.156742
-0.135746
-0.114487
-0.093572
-0.073512
-0.054775
-0.037817
-0.023275
-0.011714
-0.003410
0.001716
0.004099
0.004005
0.002365
-0.000003
-0.002870
-0.006326
-0.010646
-0.016108
-0.022810
-0.030516
-0.038563
-0.045831
-0.050848
-0.052229
-0.049421
-0.043085
-0.034374
-0.025458
-0.016560
-0.008178
-0.000669
0.005815
0.011248
0.015663
0.019111
0.021629
0.023179
0.023546
0.022623
0.020640
0.018044
0.015248
0.012570
0.010097
0.007608
0.004748
0.001327
-0.002516
-0.006319
-0.009523
-0.011754
-0.012955
-0.013569
-0.013793
-0.013580
-0.013023
-0.011948
-0.010707
-0.009471
-0.008310
-0.007310
-0.006569
-0.006150
-0.006087
-0.006394
-0.007068
-0.008105
-0.009462
-0.011122
-0.013014
-0.015073
-0.017246
-0.019478
-0.021701
-0.023803
-0.025561
0.278548
0.275142
0.265639
0.250007
0.227806
0.198353
0.161021
0.115699
0.063400
0.006681
-0.049789
-0.101855
-0.147059
-0.184357
-0.213462
-0.234400
-0.247257
-0.252128
-0.249618
-0.240561
-0.226007
-0.207141
-0.185183
-0.161303
-0.136562
-0.111877
-0.088021
-0.065633
-0.045267
-0.027490
-0.013173
-0.002938
0.002909
0.004576
0.002834
-0.001109
-0.006379
-0.011360
-0.015680
-0.019448
-0.023036
-0.026855
-0.031158
-0.035885
-0.040590
-0.044466
-0.046521
-0.045928
-0.042436
-0.036490
-0.028942
-0.020750
-0.012756
-0.005476
0.001068
0.006701
0.011386
0.015134
0.017989
0.019999
0.021183
0.021526
0.021079
0.019924
0.018113
0.015852
0.013350
0.010754
0.007974
0.004832
0.001315
-0.002410
-0.005972
-0.008982
-0.011222
-0.012711
-0.013610
-0.013951
-0.013682
-0.012792
-0.011775
-0.010624
-0.009457
-0.008289
-0.007236
-0.006452
-0.006003
-0.005924
-0.006229
-0.006915
-0.007962
-0.009335
-0.010982
-0.012850
-0.014890
-0.017043
-0.019258
-0.021480
-0.023633
-0.025934
0.296013
0.293004
0.284282
0.269350
0.247237
0.216559
0.175810
0.124015
0.061891
-0.007332
-0.074665
-0.133816
-0.182648
-0.221305
-0.250490
-0.270654
-0.282012
-0.284712
-0.279240
-0.266431
-0.247458
-0.223701
-0.196610
-0.167596
-0.137955
-0.108826
-0.081159
-0.055716
-0.033087
-0.013882
0.000575
0.009348
0.011969
0.008826
0.001264
-0.008604
-0.018379
-0.026624
-0.032492
-0.036283
-0.038613
-0.040151
-0.041386
-0.042499
-0.043325
-0.043426
-0.042251
-0.039384
-0.034751
-0.028667
-0.021698
-0.014475
-0.007534
-0.001154
0.004348
0.008965
0.012671
0.015481
0.017465
0.018724
0.019339
0.019406
0.019008
0.018169
0.016862
0.015112
0.012968
0.010422
0.007496
0.004199
0.000737
-0.002778
-0.006047
-0.008813
-0.010932
-0.012385
-0.013221
-0.013471
-0.013180
-0.012450
-0.011474
-0.010316
-0.009018
-0.007801
-0.006799
-0.006048
-0.005618
-0.005556
-0.005880
-0.006589
-0.007660
-0.009047
-0.010706
-0.012589
-0.014634
-0.016789
-0.019016
-0.021292
-0.023604
-0.026496
0.319042
0.316439
0.308711
0.294970
0.273591
0.242122
0.197449
0.136630
0.059071
-0.032038
-0.115674
-0.182749
-0.233803
-0.272123
-0.300222
-0.318826
-0.327969
-0.327798
-0.318372
-0.300510
-0.275607
-0.245358
-0.211544
-0.175892
-0.139991
-0.105239
-0.072800
-0.043569
-0.018129
0.003170
0.018297
0.025631
0.024365
0.015094
-0.000129
-0.018049
-0.034763
-0.046808
-0.053956
-0.057116
-0.057378
-0.055883
-0.053481
-0.050635
-0.047450
-0.043780
-0.039389
-0.034114
-0.027987
-0.021257
-0.014310
-0.007563
-0.001361
0.004065
0.008556
0.012107
0.014751
0.016472
0.017428
0.017833
0.017767
0.017402
0.016875
0.016185
0.015214
0.013813
0.011874
0.009341
0.006294
0.002969
-0.000478
-0.003943
-0.007023
-0.009550
-0.011436
-0.012660
-0.013255
-0.013283
-0.012825
-0.011988
-0.010898
-0.009656
-0.008367
-0.007167
-0.006161
-0.005419
-0.004996
-0.004942
-0.005285
-0.006030
-0.007150
-0.008601
-0.010321
-0.012248
-0.014322
-0.016495
-0.018742
-0.021070
-0.023526
-0.026893
0.346876
0.344864
0.338726
0.327257
0.308143
0.277509
0.229539
0.156981
0.054514
-0.077930
-0.183679
-0.254801
-0.302328
-0.336306
-0.361804
-0.378800
-0.385840
-0.382645
-0.368432
-0.344135
-0.311612
-0.273066
-0.230738
-0.186759
-0.143080
-0.101427
-0.063252
-0.029675
-0.001381
0.021810
0.038444
0.044892
0.039953
0.024593
0.001531
-0.025191
-0.050625
-0.069740
-0.078564
-0.080751
-0.078382
-0.073362
-0.067034
-0.060172
-0.053102
-0.045881
-0.038455
-0.030799
-0.023001
-0.015269
-0.007885
-0.001140
0.004726
0.009542
0.013178
0.015542
0.016677
0.016883
0.016497
0.015985
0.015156
0.014237
0.013474
0.012914
0.012375
0.011563
0.010204
0.008119
0.005286
0.001829
-0.001993
-0.005520
-0.008641
-0.011081
-0.012810
-0.013797
-0.014102
-0.013818
-0.013062
-0.011960
-0.010640
-0.009221
-0.007817
-0.006539
-0.005478
-0.004708
-0.004289
-0.004262
-0.004650
-0.005452
-0.006638
-0.008158
-0.009944
-0.011924
-0.014029
-0.016209
-0.018443
-0.020757
-0.023238
-0.026821
0.378411
0.377274
0.373610
0.366088
0.351927
0.325815
0.278092
0.192766
0.047935
-0.168891
-0.294049
-0.350835
-0.381238
-0.404216
-0.426429
-0.445170
-0.452908
-0.448030
-0.428882
-0.397173
-0.355693
-0.307395
-0.255098
-0.201413
-0.148724
-0.099180
-0.054642
-0.016620
0.013787
0.035915
0.054089
0.060519
0.053179
0.033921
0.006233
-0.025713
-0.057252
-0.083556
-0.099395
-0.101710
-0.097539
-0.089721
-0.080168
-0.069978
-0.059682
-0.049486
-0.039462
-0.029673
-0.020241
-0.011359
-0.003257
0.003836
0.009722
0.014222
0.017156
0.018391
0.017973
0.016191
0.013521
0.010484
0.008365
0.006892
0.006153
0.006160
0.006562
0.006893
0.006719
0.005723
0.003756
0.000856
-0.002742
-0.006638
-0.010216
-0.012756
-0.014579
-0.015505
-0.015628
-0.015083
-0.014023
-0.012608
-0.010993
-0.009318
-0.007708
-0.006272
-0.005099
-0.004262
-0.003813
-0.003787
-0.004201
-0.005047
-0.006290
-0.007875
-0.009723
-0.011750
-0.013872
-0.016023
-0.018174
-0.020351
-0.022659
-0.026055
0.412018
0.412055
0.411830
0.410249
0.404764
0.389656
0.351938
0.261914
0.045141
-0.362567
-0.458003
-0.452104
-0.447239
-0.452860
-0.472283
-0.501576
-0.518409
-0.515686
-0.493095
-0.454700
-0.404755
-0.347070
-0.285065
-0.221861
-0.160358
-0.103275
-0.053070
-0.011742
0.019302
0.039457
0.049035
0.053848
0.045631
0.027789
0.002958
-0.026126
-0.056128
-0.083085
-0.103095
-0.112006
-0.108577
-0.100265
-0.089518
-0.077734
-0.065646
-0.053617
-0.041853
-0.030519
-0.019803
-0.009925
-0.001116
0.006398
0.012383
0.016542
0.018503
0.017981
0.015094
0.010499
0.005193
0.000187
-0.003751
-0.005690
-0.005735
-0.004455
-0.002483
-0.000451
0.001091
0.001722
0.001195
-0.000546
-0.003346
-0.006843
-0.010497
-0.013937
-0.016045
-0.017134
-0.017302
-0.016682
-0.015453
-0.013808
-0.011935
-0.010005
-0.008165
-0.006537
-0.005216
-0.004273
-0.003759
-0.003704
-0.004119
-0.004989
-0.006277
-0.007918
-0.009822
-0.011885
-0.013998
-0.016070
-0.018044
-0.019925
-0.021806
-0.024504
0.445518
0.446918
0.450790
0.456726
0.463505
0.467556
0.458225
0.401282
0.146453
-0.717416
-0.643969
-0.508651
-0.473400
-0.464879
-0.480127
-0.518566
-0.560147
-0.565113
-0.543452
-0.502937
-0.449067
-0.386278
-0.318518
-0.249453
-0.182652
-0.121735
-0.070303
-0.031096
-0.004664
0.010521
0.016445
0.014747
0.009267
-0.001086
-0.016008
-0.034693
-0.055605
-0.076265
-0.093590
-0.104762
-0.107597
-0.101433
-0.092010
-0.080890
-0.068941
-0.056673
-0.044434
-0.032530
-0.021262
-0.010938
-0.001866
0.005639
0.011196
0.014304
0.014416
0.011259
0.005237
-0.002461
-0.010223
-0.016615
-0.020823
-0.021951
-0.020471
-0.017303
-0.013305
-0.009236
-0.005718
-0.003217
-0.002036
-0.002296
-0.003921
-0.006634
-0.009978
-0.013427
-0.016371
-0.017998
-0.018455
-0.018018
-0.016848
-0.015157
-0.013165
-0.011076
-0.009066
-0.007278
-0.005821
-0.004773
-0.004187
-0.004093
-0.004500
-0.005391
-0.006724
-0.008423
-0.010385
-0.012477
-0.014560
-0.016498
-0.018193
-0.019606
-0.020789
-0.022247
0.476392
0.479103
0.486970
0.500490
0.520455
0.547746
0.582385
0.619224
0.692225
-0.012595
-0.565899
-0.487830
-0.475939
-0.470448
-0.480626
-0.512769
-0.553236
-0.576857
-0.560434
-0.524361
-0.473836
-0.413456
-0.347600
-0.280533
-0.216630
-0.160322
-0.115588
-0.084536
-0.065981
-0.056211
-0.052032
-0.050191
-0.047368
-0.045845
-0.046886
-0.051178
-0.058745
-0.068675
-0.079106
-0.087733
-0.092649
-0.092414
-0.086236
-0.077731
-0.067763
-0.056906
-0.045626
-0.034367
-0.023576
-0.013700
-0.005183
0.001494
0.005751
0.006896
0.004331
-0.001990
-0.011149
-0.021340
-0.030510
-0.037100
-0.040294
-0.039491
-0.035814
-0.030340
-0.024072
-0.017852
-0.012333
-0.007984
-0.005110
-0.003854
-0.004192
-0.005920
-0.008656
-0.011880
-0.014995
-0.017466
-0.018538
-0.018529
-0.017668
-0.016161
-0.014249
-0.012163
-0.010110
-0.008257
-0.006733
-0.005631
-0.005010
-0.004907
-0.005332
-0.006269
-0.007672
-0.009455
-0.011492
-0.013622
-0.015659
-0.017417
-0.018739
-0.019526
-0.019768
-0.019504
0.502222
0.505901
0.516710
0.535756
0.565172
0.608686
0.672819
0.768762
0.904223
0.937999
0.000000
-0.483294
-0.478758
-0.475199
-0.482315
-0.502138
-0.527012
-0.544318
-0.537782
-0.508728
-0.465986
-0.414216
-0.358020
-0.301946
-0.250787
-0.208958
-0.179505
-0.161717
-0.151465
-0.144185
-0.135892
-0.123425
-0.108572
-0.093521
-0.080121
-0.069805
-0.063528
-0.061547
-0.063192
-0.066936
-0.070864
-0.073282
-0.072540
-0.067762
-0.061046
-0.052920
-0.043873
-0.034449
-0.025229
-0.016809
-0.009799
-0.004866
-0.002793
-0.004393
-0.010153
-0.019696
-0.031501
-0.043278
-0.052810
-0.058686
-0.059621
-0.056338
-0.050057
-0.042043
-0.033413
-0.025065
-0.017657
-0.011629
-0.007247
-0.004634
-0.003777
-0.004520
-0.006548
-0.009394
-0.012491
-0.015271
-0.017263
-0.017862
-0.017507
-0.016396
-0.014767
-0.012870
-0.010934
-0.009152
-0.007673
-0.006607
-0.006029
-0.005983
-0.006487
-0.007528
-0.009054
-0.010970
-0.013123
-0.015315
-0.017309
-0.018858
-0.019740
-0.019785
-0.018909
-0.016575
0.521221
0.525332
0.537402
0.558585
0.590965
0.637701
0.702711
0.787448
0.884114
0.971774
0.890414
0.000000
-0.478610
-0.478462
-0.474709
-0.479706
-0.487563
-0.490049
-0.480181
-0.454286
-0.418874
-0.378745
-0.338090
-0.301441
-0.273213
-0.255942
-0.249051
-0.246726
-0.242748
-0.233174
-0.213808
-0.188892
-0.161044
-0.132849
-0.106498
-0.083700
-0.065703
-0.053262
-0.046473
-0.044587
-0.046063
-0.048952
-0.051420
-0.051470
-0.048532
-0.043911
-0.037970
-0.031284
-0.024531
-0.018435
-0.013764
-0.011380
-0.012235
-0.017160
-0.026373
-0.038970
-0.052888
-0.065541
-0.074693
-0.079004
-0.077275
-0.071159
-0.062102
-0.051511
-0.040591
-0.030263
-0.021168
-0.013698
-0.008060
-0.004326
-0.002464
-0.002335
-0.003678
-0.006089
-0.009050
-0.012008
-0.014478
-0.015930
-0.016172
-0.015604
-0.014423
-0.012878
-0.011213
-0.009642
-0.008333
-0.007416
-0.006979
-0.007082
-0.007751
-0.008975
-0.010701
-0.012817
-0.015143
-0.017438
-0.019412
-0.020756
-0.021177
-0.020437
-0.018373
-0.013794
0.532589
0.536579
0.548223
0.568326
0.598149
0.639128
0.692347
0.757508
0.823366
0.846036
0.809053
0.693248
0.000000
-0.470559
-0.462655
-0.450939
-0.443347
-0.428426
-0.403690
-0.374350
-0.343240
-0.314743
-0.292913
-0.281653
-0.283045
-0.295541
-0.312960
-0.324894
-0.324692
-0.305855
-0.274612
-0.237465
-0.197637
-0.158096
-0.121253
-0.088882
-0.062195
-0.041941
-0.028433
-0.021409
-0.019852
-0.022024
-0.025824
-0.029297
-0.030513
-0.029662
-0.027190
-0.023703
-0.019944
-0.016738
-0.015010
-0.015802
-0.020173
-0.028849
-0.041656
-0.057147
-0.072835
-0.085980
-0.094438
-0.096578
-0.091884
-0.082909
-0.071210
-0.058286
-0.045376
-0.033391
-0.022926
-0.014314
-0.007693
-0.003078
-0.000402
0.000469
-0.000241
-0.002192
-0.004925
-0.007911
-0.010641
-0.012701
-0.013659
-0.013717
-0.013081
-0.011999
-0.010723
-0.009478
-0.008451
-0.007788
-0.007594
-0.007942
-0.008868
-0.010367
-0.012377
-0.014769
-0.017335
-0.019791
-0.021793
-0.022974
-0.022982
-0.021511
-0.018324
-0.011535
0.536540
0.539983
0.549950
0.566863
0.591288
0.623574
0.662720
0.703731
0.733793
0.726041
0.663338
0.577442
0.409343
0.000000
-0.440399
-0.418142
-0.409599
-0.375982
-0.329982
-0.287457
-0.257486
-0.239869
-0.237227
-0.250981
-0.282604
-0.324202
-0.362730
-0.385064
-0.382323
-0.352849
-0.312233
-0.265451
-0.216542
-0.168791
-0.124674
-0.085886
-0.053469
-0.027990
-0.009684
0.001540
0.006258
0.005727
0.001827
-0.003407
-0.008065
-0.010506
-0.011323
-0.011033
-0.010408
-0.010364
-0.011969
-0.016403
-0.024734
-0.037443
-0.053888
-0.072123
-0.089343
-0.102718
-0.110203
-0.109205
-0.102070
-0.090702
-0.076897
-0.062221
-0.047900
-0.034793
-0.023423
-0.014052
-0.006752
-0.001483
0.001849
0.003377
0.003287
0.001856
-0.000528
-0.003385
-0.006221
-0.008623
-0.010214
-0.010848
-0.010765
-0.010188
-0.009361
-0.008516
-0.007850
-0.007522
-0.007655
-0.008334
-0.009603
-0.011460
-0.013835
-0.016580
-0.019456
-0.022140
-0.024243
-0.025352
-0.025066
-0.023033
-0.018952
-0.010257
0.534092
0.536778
0.544476
0.557213
0.574815
0.596454
0.619666
0.638719
0.642516
0.613081
0.532574
0.391103
0.241243
-0.185185
-0.474363
-0.426744
-0.399422
-0.339860
-0.271635
-0.214371
-0.182580
-0.170639
-0.184294
-0.221799
-0.277913
-0.340021
-0.391586
-0.417599
-0.404706
-0.370784
-0.324682
-0.272534
-0.218912
-0.167194
-0.119728
-0.077990
-0.042780
-0.014428
0.006994
0.021553
0.029517
0.031594
0.029130
0.023976
0.017960
0.012679
0.009124
0.006575
0.004206
0.001027
-0.004130
-0.012492
-0.024994
-0.041754
-0.061645
-0.082313
-0.100729
-0.114006
-0.119736
-0.116150
-0.107015
-0.094056
-0.079053
-0.063528
-0.048625
-0.035111
-0.023423
-0.013746
-0.006099
-0.000403
0.003454
0.005597
0.006168
0.005376
0.003527
0.001028
-0.001666
-0.004139
-0.006090
-0.007221
-0.007632
-0.007533
-0.007159
-0.006737
-0.006469
-0.006526
-0.007042
-0.008114
-0.009793
-0.012075
-0.014880
-0.018040
-0.021289
-0.024270
-0.026563
-0.027729
-0.027345
-0.025037
-0.020480
-0.010510
0.526635
0.528449
0.533567
0.541720
0.552247
0.563687
0.573086
0.575011
0.560454
0.515989
0.424014
0.260204
-0.026577
-0.611614
-0.521982
-0.417591
-0.361473
-0.299501
-0.233789
-0.178318
-0.137540
-0.130966
-0.155357
-0.205901
-0.273329
-0.342616
-0.396475
-0.412945
-0.396200
-0.360611
-0.313615
-0.261207
-0.207863
-0.156749
-0.109948
-0.068682
-0.033525
-0.004611
0.018175
0.035000
0.045999
0.051422
0.051941
0.048798
0.043473
0.037370
0.032291
0.027603
0.022597
0.016328
0.007637
-0.004605
-0.021060
-0.041423
-0.064142
-0.086586
-0.105619
-0.118327
-0.120898
-0.116277
-0.106375
-0.093079
-0.078109
-0.062860
-0.048345
-0.035215
-0.023820
-0.014291
-0.006612
-0.000695
0.003573
0.006298
0.007583
0.007566
0.006469
0.004612
0.002379
0.000143
-0.001819
-0.003209
-0.003962
-0.004251
-0.004279
-0.004258
-0.004388
-0.004844
-0.005769
-0.007269
-0.009397
-0.012143
-0.015415
-0.019027
-0.022688
-0.026022
-0.028599
-0.029975
-0.029741
-0.027545
-0.023059
-0.012879
0.515779
0.516732
0.519341
0.523178
0.527352
0.530208
0.528883
0.518743
0.492837
0.441445
0.351672
0.206469
-0.015743
-0.297712
-0.354373
-0.334866
-0.300502
-0.254808
-0.204558
-0.157620
-0.127547
-0.126188
-0.154125
-0.205691
-0.269917
-0.331851
-0.371788
-0.377922
-0.361038
-0.327838
-0.284694
-0.236833
-0.188186
-0.141511
-0.098593
-0.060460
-0.027577
-0.000015
0.022407
0.039973
0.052925
0.061394
0.065567
0.066007
0.063588
0.059597
0.054699
0.048880
0.041884
0.033003
0.021248
0.005734
-0.013834
-0.036748
-0.061151
-0.084289
-0.103125
-0.113623
-0.114861
-0.110129
-0.100855
-0.088684
-0.075106
-0.061303
-0.048116
-0.036080
-0.025480
-0.016430
-0.008930
-0.002917
0.001690
0.004967
0.006981
0.007818
0.007628
0.006652
0.005195
0.003554
0.001938
0.000681
-0.000179
-0.000707
-0.001040
-0.001356
-0.001844
-0.002680
-0.004009
-0.005938
-0.008518
-0.011730
-0.015466
-0.019524
-0.023601
-0.027317
-0.030250
-0.031991
-0.032194
-0.030583
-0.026720
-0.018000
0.503116
0.503300
0.503701
0.503845
0.502816
0.499050
0.490082
0.472267
0.440595
0.388692
0.309182
0.195058
0.045296
-0.117213
-0.201134
-0.227413
-0.223630
-0.202959
-0.174976
-0.148920
-0.134735
-0.139803
-0.165439
-0.207529
-0.256926
-0.300226
-0.322656
-0.325332
-0.310612
-0.282900
-0.246876
-0.206624
-0.165341
-0.125327
-0.088105
-0.054584
-0.025208
-0.000091
0.020876
0.037935
0.051361
0.061398
0.068261
0.072152
0.074156
0.074616
0.071533
0.065942
0.058152
0.047772
0.034105
0.016630
-0.004553
-0.028404
-0.052898
-0.075269
-0.092424
-0.100528
-0.102400
-0.099144
-0.092064
-0.082479
-0.071547
-0.060183
-0.049045
-0.038570
-0.029027
-0.020565
-0.013252
-0.007109
-0.002125
0.001717
0.004459
0.006144
0.006889
0.006872
0.006340
0.005524
0.004711
0.003877
0.003147
0.002571
0.002080
0.001535
0.000766
-0.000393
-0.002085
-0.004407
-0.007400
-0.011031
-0.015177
-0.019623
-0.024068
-0.028147
-0.031476
-0.033713
-0.034641
-0.033879
-0.031719
-0.026204
0.490073
0.489611
0.488185
0.485366
0.480340
0.471788
0.457756
0.435564
0.401839
0.352764
0.284777
0.196126
0.090434
-0.017664
-0.094190
-0.136543
-0.153628
-0.154331
-0.146680
-0.138275
-0.136132
-0.145132
-0.166380
-0.196919
-0.230038
-0.256233
-0.270206
-0.270936
-0.259215
-0.237615
-0.209271
-0.177155
-0.143725
-0.110833
-0.079750
-0.051267
-0.025803
-0.003508
0.015653
0.031837
0.045268
0.056184
0.064777
0.071784
0.077255
0.079862
0.079213
0.075412
0.068491
0.058253
0.044380
0.026772
0.005899
-0.016981
-0.039845
-0.060164
-0.073838
-0.082316
-0.086021
-0.085706
-0.082224
-0.076416
-0.069040
-0.060728
-0.051978
-0.043177
-0.034636
-0.026598
-0.019260
-0.012769
-0.007214
-0.002687
0.000855
0.003467
0.005230
0.006239
0.006635
0.006619
0.006345
0.005941
0.005505
0.005068
0.004582
0.003935
0.002983
0.001578
-0.000405
-0.003046
-0.006367
-0.010315
-0.014756
-0.019473
-0.024180
-0.028558
-0.032290
-0.035118
-0.036788
-0.037647
-0.037832
-0.037146
0.477848
0.476855
0.473959
0.468840
0.460864
0.449010
0.431826
0.407447
0.373726
0.328549
0.270464
0.199764
0.120202
0.040631
-0.024447
-0.069958
-0.097763
-0.112333
-0.118918
-0.122815
-0.128746
-0.139913
-0.157122
-0.178510
-0.199881
-0.216485
-0.225223
-0.224780
-0.215485
-0.198849
-0.176931
-0.151832
-0.125385
-0.099022
-0.073744
-0.050168
-0.028612
-0.009180
0.008149
0.023463
0.036882
0.048543
0.058666
0.067578
0.074481
0.078862
0.080309
0.078588
0.073484
0.064771
0.052345
0.036420
0.017722
-0.002429
-0.022234
-0.038762
-0.051847
-0.061762
-0.068569
-0.072439
-0.073571
-0.072242
-0.068806
-0.063651
-0.057173
-0.049774
-0.041876
-0.033878
-0.026148
-0.019017
-0.012613
-0.007158
-0.002664
0.000859
0.003447
0.005214
0.006301
0.006876
0.007097
0.007094
0.006952
0.006691
0.006265
0.005575
0.004497
0.002907
0.000705
-0.002163
-0.005692
-0.009811
-0.014382
-0.019202
-0.024027
-0.028624
-0.032675
-0.036109
-0.039052
-0.041705
-0.044415
-0.049349
0.467429
0.465972
0.461853
0.454937
0.444803
0.430721
0.411664
0.386389
0.353590
0.312185
0.261769
0.203263
0.139657
0.076393
0.020635
-0.023618
-0.055980
-0.078337
-0.093701
-0.105419
-0.116526
-0.129101
-0.143757
-0.159496
-0.174123
-0.185038
-0.190241
-0.188879
-0.181130
-0.167974
-0.150832
-0.131226
-0.110526
-0.089805
-0.069785
-0.050848
-0.033108
-0.016510
-0.000941
0.013660
0.027250
0.039725
0.051256
0.061308
0.069564
0.075587
0.078949
0.079296
0.076338
0.069890
0.059989
0.047018
0.031775
0.015440
-0.000478
-0.015444
-0.029198
-0.041687
-0.052638
-0.061511
-0.067720
-0.070944
-0.071218
-0.068795
-0.064046
-0.057456
-0.049648
-0.041216
-0.032697
-0.024636
-0.017428
-0.011065
-0.005718
-0.001407
0.001907
0.004327
0.005990
0.007054
0.007672
0.007966
0.008010
0.007823
0.007370
0.006574
0.005332
0.003552
0.001165
-0.001853
-0.005472
-0.009603
-0.014134
-0.018895
-0.023704
-0.028425
-0.032975
-0.037271
-0.041404
-0.045622
-0.050429
-0.060168
0.459680
0.457712
0.452433
0.444004
0.432234
0.416628
0.396474
0.370960
0.339323
0.301067
0.256271
0.205946
0.152342
0.098953
0.049852
0.007880
-0.025996
-0.052358
-0.072769
-0.089208
-0.103554
-0.117141
-0.130442
-0.142986
-0.153765
-0.161076
-0.163871
-0.161703
-0.154791
-0.143906
-0.130147
-0.114696
-0.098615
-0.082696
-0.067394
-0.052828
-0.038836
-0.025077
-0.011201
0.002946
0.017091
0.030760
0.043496
0.054930
0.064721
0.072465
0.077743
0.080172
0.079469
0.075533
0.068543
0.058966
0.047510
0.034630
0.020845
0.006511
-0.008532
-0.024234
-0.039891
-0.054077
-0.065215
-0.072373
-0.075491
-0.074909
-0.071062
-0.064535
-0.056278
-0.046934
-0.037837
-0.029052
-0.020926
-0.013747
-0.007666
-0.002709
0.001173
0.004090
0.006185
0.007610
0.008509
0.008988
0.009099
0.008855
0.008243
0.007212
0.005700
0.003659
0.001063
-0.002080
-0.005722
-0.009740
-0.014118
-0.018798
-0.023684
-0.028641
-0.033646
-0.038643
-0.043647
-0.048846
-0.054777
-0.066736
0.455563
0.452712
0.446022
0.436133
0.423020
0.406316
0.385488
0.359995
0.329398
0.293521
0.252646
0.207708
0.160416
0.113157
0.068560
0.028690
-0.005401
-0.033677
-0.056847
-0.076013
-0.092295
-0.106539
-0.119101
-0.129891
-0.138178
-0.143135
-0.144239
-0.141364
-0.134846
-0.125407
-0.114005
-0.101639
-0.089168
-0.077179
-0.065910
-0.055252
-0.044792
-0.033874
-0.021717
-0.007730
0.007341
0.022280
0.036602
0.049736
0.061239
0.070715
0.077776
0.082063
0.083327
0.081567
0.077148
0.070583
0.061777
0.051106
0.038968
0.024932
0.008482
-0.010436
-0.030739
-0.049985
-0.065302
-0.075057
-0.079507
-0.079631
-0.075957
-0.068510
-0.060012
-0.050722
-0.040828
-0.031258
-0.022480
-0.014764
-0.008230
-0.002888
0.001327
0.004533
0.006877
0.008509
0.009563
0.010132
0.010209
0.009794
0.008902
0.007522
0.005623
0.003236
0.000390
-0.002882
-0.006555
-0.010621
-0.014936
-0.019459
-0.024235
-0.029261
-0.034509
-0.039905
-0.045360
-0.050873
-0.056837
-0.067666
0.456743
0.451449
0.442616
0.431160
0.416880
0.399358
0.378071
0.352634
0.322789
0.288522
0.250186
0.208616
0.165165
0.121610
0.079862
0.041539
0.007657
-0.021453
-0.046032
-0.066667
-0.083991
-0.098539
-0.110746
-0.120419
-0.127185
-0.130690
-0.130732
-0.127400
-0.121119
-0.112605
-0.102738
-0.092403
-0.082332
-0.072975
-0.064437
-0.056490
-0.048642
-0.040161
-0.029902
-0.016272
-0.000763
0.015749
0.031918
0.046823
0.059915
0.070821
0.079206
0.084749
0.087220
0.086693
0.083944
0.078655
0.071281
0.062246
0.051143
0.037306
0.020020
-0.000953
-0.024481
-0.047451
-0.065702
-0.076591
-0.080538
-0.079593
-0.076103
-0.070225
-0.061334
-0.051381
-0.041183
-0.031393
-0.022439
-0.014575
-0.007913
-0.002461
0.001849
0.005135
0.007541
0.009215
0.010298
0.010927
0.010948
0.010345
0.009109
0.007304
0.005020
0.002288
-0.000834
-0.004286
-0.008022
-0.012020
-0.016179
-0.020477
-0.025036
-0.029887
-0.035028
-0.040386
-0.045860
-0.051411
-0.057075
-0.063986
0.467704
0.453578
0.441648
0.428827
0.413751
0.395641
0.374072
0.348671
0.319250
0.285852
0.248839
0.208968
0.167404
0.125641
0.085285
0.047758
0.014051
-0.015378
-0.040568
-0.061905
-0.079950
-0.095079
-0.107264
-0.116566
-0.122820
-0.125826
-0.125512
-0.122045
-0.115878
-0.107708
-0.098370
-0.088689
-0.079338
-0.070718
-0.062899
-0.055621
-0.048369
-0.040451
-0.031048
-0.019659
-0.004208
0.013342
0.030709
0.046636
0.060504
0.071972
0.080759
0.086589
0.089239
0.088680
0.084981
0.079557
0.072690
0.064141
0.053452
0.039978
0.023088
0.002621
-0.020412
-0.043268
-0.062081
-0.073996
-0.078942
-0.079007
-0.075154
-0.068917
-0.060440
-0.050737
-0.040717
-0.031053
-0.022189
-0.014384
-0.007758
-0.002326
0.001974
0.005251
0.007644
0.009293
0.010316
0.010722
0.010656
0.010007
0.008747
0.006912
0.004574
0.001793
-0.001367
-0.004844
-0.008590
-0.012587
-0.016828
-0.021181
-0.025610
-0.030306
-0.035310
-0.040541
-0.045885
-0.051271
-0.056702
-0.062593
