# vtk DataFile Version 3.0
Vector Field
ASCII
DATASET RECTILINEAR_GRID
DIMENSIONS 100 26 1
X_COORDINATES 100 double
0.050000 0.150000 0.250000 0.350000 0.450000 0.550000 0.650000 0.750000 0.850000 0.950000 1.050000 1.150000 1.250000 1.350000 1.450000 1.550000 1.650000 1.750000 1.850000 1.950000 2.050000 2.150000 2.250000 2.350000 2.450000 2.550000 2.650000 2.750000 2.850000 2.950000 3.050000 3.150000 3.250000 3.350000 3.450000 3.550000 3.650000 3.750000 3.850000 3.950000 4.050000 4.150000 4.250000 4.350000 4.450000 4.550000 4.650000 4.750000 4.850000 4.950000 5.050000 5.150000 5.250000 5.350000 5.450000 5.550000 5.650000 5.750000 5.850000 5.950000 6.050000 6.150000 6.250000 6.350000 6.450000 6.550000 6.650000 6.750000 6.850000 6.950000 7.050000 7.150000 7.250000 7.350000 7.450000 7.550000 7.650000 7.750000 7.850000 7.950000 8.050000 8.150000 8.250000 8.350000 8.450000 8.550000 8.650000 8.750000 8.850000 8.950000 9.050000 9.150000 9.250000 9.350000 9.450000 9.550000 9.650000 9.750000 9.850000 9.950000 
Y_COORDINATES 26 double
0.050000 0.150000 0.250000 0.350000 0.450000 0.550000 0.650000 0.750000 0.850000 0.950000 1.050000 1.150000 1.250000 1.350000 1.450000 1.550000 1.650000 1.750000 1.850000 1.950000 2.050000 2.150000 2.250000 2.350000 2.450000 2.550000 
Z_COORDINATES 1 double
0.0
POINT_DATA 2600
VECTORS Vektorfeld double
0.997763 0.002237 0.0
0.993347 0.002179 0.0
0.990578 0.000590 0.0
0.991601 -0.001613 0.0
0.997224 -0.004010 0.0
1.007550 -0.006316 0.0
1.022129 -0.008263 0.0
1.039970 -0.009578 0.0
1.059573 -0.010025 0.0
1.079070 -0.009472 0.0
1.096502 -0.007960 0.0
1.110151 -0.005689 0.0
1.118798 -0.002958 0.0
1.121889 -0.000132 0.0
1.119511 0.002509 0.0
1.112120 0.004882 0.0
1.100377 0.006861 0.0
1.085159 0.008357 0.0
1.067490 0.009312 0.0
1.048472 0.009706 0.0
1.029207 0.009558 0.0
1.010717 0.008932 0.0
0.993837 0.007947 0.0
0.979118 0.006773 0.0
0.966711 0.005633 0.0
0.956288 0.004790 0.0
0.946987 0.004510 0.0
0.937472 0.005006 0.0
0.926091 0.006375 0.0
0.911148 0.008568 0.0
0.891182 0.011398 0.0
0.865187 0.014597 0.0
0.832722 0.017868 0.0
0.793931 0.020924 0.0
0.749491 0.023515 0.0
0.700542 0.025434 0.0
0.648594 0.026514 0.0
0.595449 0.026631 0.0
0.543116 0.025702 0.0
0.493733 0.023681 0.0
0.449573 0.020479 0.0
0.413321 0.015773 0.0
0.388435 0.009113 0.0
0.378195 0.001127 0.0
0.381799 -0.004730 0.0
0.394253 -0.007724 0.0
0.410896 -0.008918 0.0
0.428849 -0.009034 0.0
0.446386 -0.008503 0.0
0.462454 -0.007565 0.0
0.476374 -0.006355 0.0
0.487688 -0.004960 0.0
0.496123 -0.003475 0.0
0.501622 -0.002023 0.0
0.504328 -0.000683 0.0
0.504077 0.000933 0.0
0.499883 0.003261 0.0
0.490549 0.006073 0.0
0.475423 0.009053 0.0
0.454650 0.011719 0.0
0.429537 0.013394 0.0
0.402707 0.013437 0.0
0.377555 0.011715 0.0
0.356944 0.008896 0.0
0.341947 0.006100 0.0
0.331711 0.004136 0.0
0.324523 0.003052 0.0
0.319100 0.002370 0.0
0.315097 0.001633 0.0
0.312719 0.000745 0.0
0.312060 -0.000086 0.0
0.312831 -0.000685 0.0
0.314510 -0.000993 0.0
0.316585 -0.001082 0.0
0.318674 -0.001007 0.0
0.320469 -0.000787 0.0
0.321702 -0.000447 0.0
0.322113 0.000036 0.0
0.321314 0.000763 0.0
0.318983 0.001568 0.0
0.315225 0.002191 0.0
0.310587 0.002447 0.0
0.305894 0.002247 0.0
0.302033 0.001614 0.0
0.299639 0.000780 0.0
0.298736 0.000123 0.0
0.298756 -0.000143 0.0
0.299067 -0.000168 0.0
0.299359 -0.000124 0.0
0.299559 -0.000076 0.0
0.299674 -0.000039 0.0
0.299735 -0.000022 0.0
0.299812 -0.000056 0.0
0.300049 -0.000180 0.0
0.300623 -0.000394 0.0
0.301687 -0.000670 0.0
0.303394 -0.001037 0.0
0.305834 -0.001404 0.0
0.308833 -0.001595 0.0
0.311972 -0.001544 0.0
1.003059 0.001415 0.0
1.011942 -0.001466 0.0
1.025782 -0.006837 0.0
1.043922 -0.013350 0.0
1.066243 -0.020216 0.0
1.092572 -0.026764 0.0
1.122449 -0.032271 0.0
1.154996 -0.035958 0.0
1.188864 -0.037115 0.0
1.222297 -0.035313 0.0
1.253424 -0.030678 0.0
1.280647 -0.023843 0.0
1.302879 -0.015683 0.0
1.319492 -0.007111 0.0
1.330240 0.001118 0.0
1.335386 0.008518 0.0
1.335645 0.014708 0.0
1.331963 0.019410 0.0
1.325441 0.022449 0.0
1.317266 0.023763 0.0
1.308621 0.023411 0.0
1.300598 0.021593 0.0
1.294099 0.018664 0.0
1.289736 0.015139 0.0
1.287714 0.011695 0.0
1.287731 0.009135 0.0
1.288910 0.008287 0.0
1.289829 0.009825 0.0
1.288704 0.014062 0.0
1.283688 0.020840 0.0
1.273205 0.029575 0.0
1.256181 0.039439 0.0
1.232148 0.049523 0.0
1.201239 0.058969 0.0
1.164121 0.067027 0.0
1.121914 0.073079 0.0
1.076092 0.076638 0.0
1.028416 0.077329 0.0
0.980865 0.074888 0.0
0.935606 0.069137 0.0
0.894908 0.059880 0.0
0.860702 0.046830 0.0
0.833439 0.030207 0.0
0.811498 0.012213 0.0
0.794983 -0.002905 0.0
0.786329 -0.013350 0.0
0.785966 -0.019573 0.0
0.792476 -0.022843 0.0
0.804391 -0.024146 0.0
0.820533 -0.024133 0.0
0.839983 -0.023156 0.0
0.861849 -0.021338 0.0
0.884977 -0.018660 0.0
0.907656 -0.015017 0.0
0.927492 -0.010230 0.0
0.942197 -0.003973 0.0
0.950850 0.003709 0.0
0.953395 0.012414 0.0
0.949808 0.021425 0.0
0.940370 0.029559 0.0
0.925618 0.035419 0.0
0.905989 0.037870 0.0
0.881643 0.036779 0.0
0.852776 0.033311 0.0
0.820273 0.029185 0.0
0.786128 0.025433 0.0
0.753226 0.021846 0.0
0.724665 0.017558 0.0
0.703010 0.012102 0.0
0.689673 0.005992 0.0
0.684532 0.000469 0.0
0.685842 -0.003321 0.0
0.691267 -0.005461 0.0
0.699169 -0.006592 0.0
0.708545 -0.006963 0.0
0.718447 -0.006529 0.0
0.727842 -0.005333 0.0
0.735826 -0.003472 0.0
0.742071 -0.001174 0.0
0.746851 0.001055 0.0
0.750512 0.002800 0.0
0.753186 0.003801 0.0
0.754862 0.003910 0.0
0.755420 0.003254 0.0
0.754640 0.002313 0.0
0.752492 0.001641 0.0
0.749389 0.001422 0.0
0.745899 0.001446 0.0
0.742337 0.001531 0.0
0.738782 0.001625 0.0
0.735201 0.001726 0.0
0.731546 0.001807 0.0
0.727809 0.001773 0.0
0.724077 0.001486 0.0
0.720638 0.000804 0.0
0.718123 -0.000417 0.0
0.717182 -0.002055 0.0
0.718068 -0.003712 0.0
0.720764 -0.004982 0.0
0.724136 -0.004668 0.0
1.001971 -0.003614 0.0
1.009036 -0.012385 0.0
1.021923 -0.022645 0.0
1.040081 -0.033838 0.0
1.063345 -0.045313 0.0
1.091581 -0.056233 0.0
1.124406 -0.065505 0.0
1.160931 -0.071797 0.0
1.199567 -0.073780 0.0
1.237976 -0.070490 0.0
1.273555 -0.062207 0.0
1.304236 -0.050219 0.0
1.328836 -0.036138 0.0
1.346991 -0.021424 0.0
1.358930 -0.007257 0.0
1.365238 0.005439 0.0
1.366723 0.016043 0.0
1.364365 0.024115 0.0
1.359254 0.029377 0.0
1.352544 0.031721 0.0
1.345410 0.031233 0.0
1.338990 0.028215 0.0
1.334321 0.023209 0.0
1.332264 0.017015 0.0
1.333388 0.010716 0.0
1.337822 0.005664 0.0
1.345061 0.003341 0.0
1.353869 0.005044 0.0
1.362390 0.011447 0.0
1.368539 0.022323 0.0
1.370471 0.036645 0.0
1.366885 0.052979 0.0
1.357098 0.069802 0.0
1.341003 0.085696 0.0
1.318969 0.099452 0.0
1.291740 0.110091 0.0
1.260342 0.116846 0.0
1.226004 0.119135 0.0
1.190092 0.116544 0.0
1.154011 0.108821 0.0
1.119004 0.095901 0.0
1.085845 0.078174 0.0
1.054784 0.057187 0.0
1.026131 0.035825 0.0
1.000084 0.016045 0.0
0.977224 -0.000784 0.0
0.959361 -0.013913 0.0
0.947810 -0.023463 0.0
0.942649 -0.030279 0.0
0.943622 -0.035116 0.0
0.950383 -0.038384 0.0
0.962510 -0.040103 0.0
0.979471 -0.039983 0.0
1.000616 -0.037518 0.0
1.025175 -0.032124 0.0
1.051981 -0.023590 0.0
1.078970 -0.012316 0.0
1.103739 0.001125 0.0
1.124473 0.015566 0.0
1.139942 0.029386 0.0
1.149133 0.041152 0.0
1.151065 0.049834 0.0
1.145040 0.055187 0.0
1.131059 0.057751 0.0
1.110102 0.058204 0.0
1.083969 0.056692 0.0
1.054704 0.052754 0.0
1.023968 0.045947 0.0
0.992722 0.036615 0.0
0.961507 0.026030 0.0
0.931392 0.015687 0.0
0.905048 0.006493 0.0
0.885797 -0.001449 0.0
0.874997 -0.007706 0.0
0.871481 -0.011708 0.0
0.873354 -0.013559 0.0
0.879252 -0.013596 0.0
0.888143 -0.012085 0.0
0.898905 -0.009570 0.0
0.910242 -0.006666 0.0
0.920972 -0.003870 0.0
0.930356 -0.001586 0.0
0.938051 -0.000073 0.0
0.944007 0.000723 0.0
0.948528 0.001103 0.0
0.952217 0.001311 0.0
0.955712 0.001360 0.0
0.959465 0.001245 0.0
0.963724 0.001035 0.0
0.968567 0.000834 0.0
0.973930 0.000735 0.0
0.979621 0.000763 0.0
0.985321 0.000854 0.0
0.990593 0.000865 0.0
0.994856 0.000601 0.0
0.997286 -0.000129 0.0
0.997132 -0.001247 0.0
0.994359 -0.002633 0.0
0.989961 -0.004359 0.0
0.988000 -0.006701 0.0
1.001596 -0.007182 0.0
1.007788 -0.022075 0.0
1.019853 -0.037907 0.0
1.037701 -0.054582 0.0
1.061495 -0.071626 0.0
1.091456 -0.088116 0.0
1.127563 -0.102554 0.0
1.169114 -0.112823 0.0
1.214308 -0.116584 0.0
1.259671 -0.111459 0.0
1.301017 -0.098162 0.0
1.335433 -0.079359 0.0
1.361722 -0.057886 0.0
1.379888 -0.035998 0.0
1.390593 -0.015328 0.0
1.394821 0.002974 0.0
1.393709 0.018137 0.0
1.388459 0.029629 0.0
1.380338 0.037095 0.0
1.370675 0.040376 0.0
1.360835 0.039552 0.0
1.352174 0.034977 0.0
1.345980 0.027310 0.0
1.343418 0.017534 0.0
1.345466 0.007025 0.0
1.352641 -0.002253 0.0
1.364511 -0.007852 0.0
1.379443 -0.007503 0.0
1.394879 0.000036 0.0
1.408044 0.014419 0.0
1.416708 0.033952 0.0
1.419560 0.056406 0.0
1.416156 0.079567 0.0
1.406679 0.101503 0.0
1.391699 0.120659 0.0
1.371968 0.135843 0.0
1.348298 0.146161 0.0
1.321499 0.150957 0.0
1.292338 0.149795 0.0
1.261495 0.142494 0.0
1.229489 0.129240 0.0
1.196649 0.110835 0.0
1.163285 0.088952 0.0
1.130065 0.065934 0.0
1.098156 0.043892 0.0
1.068649 0.023736 0.0
1.042274 0.005805 0.0
1.020235 -0.009591 0.0
1.003782 -0.022536 0.0
0.993361 -0.033412 0.0
0.988988 -0.042476 0.0
0.990492 -0.049642 0.0
0.997669 -0.054582 0.0
1.010444 -0.056839 0.0
1.028992 -0.055910 0.0
1.053656 -0.051275 0.0
1.084542 -0.042505 0.0
1.120742 -0.029654 0.0
1.159665 -0.013312 0.0
1.197169 0.005292 0.0
1.229048 0.024177 0.0
1.252742 0.041183 0.0
1.267169 0.055438 0.0
1.272032 0.066618 0.0
1.267819 0.074505 0.0
1.255607 0.078736 0.0
1.236681 0.078901 0.0
1.212271 0.074946 0.0
1.183630 0.067505 0.0
1.152300 0.057685 0.0
1.120061 0.046387 0.0
1.088227 0.033971 0.0
1.057372 0.021180 0.0
1.028531 0.009306 0.0
1.004063 -0.000735 0.0
0.986152 -0.008495 0.0
0.975098 -0.013504 0.0
0.969799 -0.015767 0.0
0.968850 -0.015701 0.0
0.970838 -0.013859 0.0
0.974366 -0.010935 0.0
0.978169 -0.007709 0.0
0.981344 -0.004820 0.0
0.983537 -0.002678 0.0
0.985013 -0.001492 0.0
0.986568 -0.001338 0.0
0.989269 -0.002189 0.0
0.994167 -0.003858 0.0
1.002093 -0.006046 0.0
1.013515 -0.008351 0.0
1.028427 -0.010356 0.0
1.046306 -0.011715 0.0
1.066150 -0.012211 0.0
1.086576 -0.011769 0.0
1.105995 -0.010447 0.0
1.122895 -0.008411 0.0
1.136167 -0.006083 0.0
1.145364 -0.004222 0.0
1.150817 -0.003825 0.0
1.154929 -0.009386 0.0
1.001411 -0.010189 0.0
1.007038 -0.030886 0.0
1.018366 -0.052489 0.0
1.035747 -0.075231 0.0
1.059860 -0.098884 0.0
1.091592 -0.122552 0.0
1.131717 -0.144352 0.0
1.180178 -0.161037 0.0
1.235424 -0.168809 0.0
1.291657 -0.160831 0.0
1.341118 -0.139597 0.0
1.379790 -0.111012 0.0
1.407137 -0.079869 0.0
1.424165 -0.049211 0.0
1.432305 -0.020959 0.0
1.433057 0.003626 0.0
1.427847 0.023807 0.0
1.418044 0.039010 0.0
1.405096 0.048782 0.0
1.390564 0.052884 0.0
1.376084 0.051363 0.0
1.363308 0.044604 0.0
1.353834 0.033352 0.0
1.349184 0.018702 0.0
1.350821 0.002172 0.0
1.359816 -0.013570 0.0
1.376100 -0.024690 0.0
1.397822 -0.027319 0.0
1.421287 -0.019049 0.0
1.441919 -0.000292 0.0
1.456183 0.025735 0.0
1.462624 0.055329 0.0
1.461293 0.085380 0.0
1.453031 0.113428 0.0
1.439013 0.137731 0.0
1.420398 0.157116 0.0
1.398154 0.170802 0.0
1.372999 0.178270 0.0
1.345421 0.179221 0.0
1.315715 0.173616 0.0
1.284047 0.161792 0.0
1.250554 0.144615 0.0
1.215549 0.123540 0.0
1.179725 0.100390 0.0
1.144198 0.076871 0.0
1.110297 0.054164 0.0
1.079224 0.032825 0.0
1.051729 0.012923 0.0
1.028395 -0.005262 0.0
1.009639 -0.021510 0.0
0.995362 -0.035727 0.0
0.985301 -0.047835 0.0
0.979530 -0.057795 0.0
0.978722 -0.065594 0.0
0.984203 -0.071185 0.0
0.997701 -0.074163 0.0
1.020760 -0.073561 0.0
1.054082 -0.068120 0.0
1.097083 -0.056771 0.0
1.147534 -0.039205 0.0
1.200836 -0.016507 0.0
1.249966 0.009043 0.0
1.288892 0.034224 0.0
1.315713 0.056149 0.0
1.330933 0.073967 0.0
1.335451 0.086968 0.0
1.330359 0.094687 0.0
1.316847 0.097081 0.0
1.296253 0.094606 0.0
1.270120 0.088046 0.0
1.240113 0.078272 0.0
1.207848 0.066185 0.0
1.174881 0.052788 0.0
1.142578 0.038841 0.0
1.111787 0.024990 0.0
1.083141 0.012336 0.0
1.057818 0.002042 0.0
1.037043 -0.005238 0.0
1.020956 -0.009194 0.0
1.008554 -0.009952 0.0
0.998352 -0.008168 0.0
0.988945 -0.004872 0.0
0.979392 -0.001280 0.0
0.969533 0.001448 0.0
0.960016 0.002424 0.0
0.952053 0.001155 0.0
0.947108 -0.002438 0.0
0.946601 -0.008000 0.0
0.951572 -0.014800 0.0
0.962452 -0.021898 0.0
0.979072 -0.028342 0.0
1.000792 -0.033329 0.0
1.026638 -0.036286 0.0
1.055400 -0.036881 0.0
1.085687 -0.035040 0.0
1.115956 -0.030987 0.0
1.144542 -0.025364 0.0
1.169738 -0.019334 0.0
1.190037 -0.014465 0.0
1.204259 -0.017080 0.0
1.001225 -0.012825 0.0
1.006173 -0.038825 0.0
1.016363 -0.066068 0.0
1.032544 -0.095213 0.0
1.056022 -0.126492 0.0
1.088688 -0.159341 0.0
1.132779 -0.191779 0.0
1.189866 -0.219158 0.0
1.260551 -0.236620 0.0
1.333400 -0.222104 0.0
1.392204 -0.186589 0.0
1.433069 -0.143557 0.0
1.458507 -0.100107 0.0
1.471755 -0.059249 0.0
1.475280 -0.022585 0.0
1.470919 0.008861 0.0
1.460088 0.034613 0.0
1.444121 0.053974 0.0
1.424577 0.066311 0.0
1.403226 0.071238 0.0
1.381989 0.068725 0.0
1.362833 0.059174 0.0
1.347649 0.043441 0.0
1.338154 0.022758 0.0
1.336020 -0.001387 0.0
1.343125 -0.026110 0.0
1.360552 -0.045862 0.0
1.387167 -0.054484 0.0
1.419218 -0.047402 0.0
1.450507 -0.023860 0.0
1.474158 0.011389 0.0
1.486664 0.050728 0.0
1.488499 0.089477 0.0
1.481471 0.124622 0.0
1.467605 0.154421 0.0
1.448662 0.177985 0.0
1.425944 0.194897 0.0
1.400295 0.204980 0.0
1.372182 0.208203 0.0
1.341810 0.204712 0.0
1.309250 0.194925 0.0
1.274598 0.179627 0.0
1.238149 0.159982 0.0
1.200541 0.137381 0.0
1.162774 0.113175 0.0
1.126073 0.088462 0.0
1.091613 0.064062 0.0
1.060145 0.040649 0.0
1.031616 0.018874 0.0
1.005217 -0.000492 0.0
0.979903 -0.017153 0.0
0.955225 -0.031669 0.0
0.932185 -0.045149 0.0
0.913335 -0.058582 0.0
0.902145 -0.072488 0.0
0.901958 -0.086171 0.0
0.914886 -0.097540 0.0
0.941410 -0.103986 0.0
0.980710 -0.103205 0.0
1.031107 -0.093618 0.0
1.090234 -0.074522 0.0
1.154694 -0.046532 0.0
1.218344 -0.012777 0.0
1.272589 0.022085 0.0
1.312389 0.053011 0.0
1.337955 0.077841 0.0
1.350751 0.096109 0.0
1.352217 0.107705 0.0
1.343859 0.112934 0.0
1.327285 0.112425 0.0
1.304170 0.107016 0.0
1.276197 0.097679 0.0
1.245002 0.085455 0.0
1.212106 0.071373 0.0
1.178860 0.056495 0.0
1.146419 0.041917 0.0
1.115536 0.028667 0.0
1.086454 0.017994 0.0
1.059072 0.011044 0.0
1.033025 0.008259 0.0
1.007743 0.009105 0.0
0.982827 0.012178 0.0
0.958513 0.015536 0.0
0.935772 0.017231 0.0
0.916094 0.015836 0.0
0.901097 0.010702 0.0
0.892111 0.001946 0.0
0.889955 -0.009722 0.0
0.894876 -0.022970 0.0
0.906517 -0.036247 0.0
0.924091 -0.048187 0.0
0.946643 -0.057756 0.0
0.973190 -0.064252 0.0
1.002763 -0.067251 0.0
1.034388 -0.066582 0.0
1.067023 -0.062350 0.0
1.099471 -0.055036 0.0
1.130265 -0.045652 0.0
1.157594 -0.035774 0.0
1.177846 -0.030245 0.0
1.000953 -0.015003 0.0
1.004835 -0.045478 0.0
1.013009 -0.077779 0.0
1.026508 -0.113182 0.0
1.047246 -0.152739 0.0
1.078343 -0.196856 0.0
1.124368 -0.244379 0.0
1.190411 -0.289688 0.0
1.284755 -0.331120 0.0
1.380625 -0.296323 0.0
1.443220 -0.233768 0.0
1.476929 -0.170952 0.0
1.492940 -0.114161 0.0
1.497855 -0.063359 0.0
1.494501 -0.018647 0.0
1.483822 0.019963 0.0
1.466264 0.051900 0.0
1.442839 0.076078 0.0
1.415080 0.091511 0.0
1.384909 0.097560 0.0
1.354486 0.094063 0.0
1.326045 0.081433 0.0
1.301701 0.060710 0.0
1.283161 0.033525 0.0
1.271517 0.001624 0.0
1.268837 -0.033546 0.0
1.278030 -0.065046 0.0
1.300445 -0.084330 0.0
1.335021 -0.084183 0.0
1.377231 -0.060577 0.0
1.417678 -0.015991 0.0
1.446033 0.037248 0.0
1.459389 0.087765 0.0
1.460818 0.131934 0.0
1.453404 0.168390 0.0
1.439501 0.196862 0.0
1.420708 0.217531 0.0
1.398013 0.230689 0.0
1.371983 0.236636 0.0
1.342919 0.235715 0.0
1.311005 0.228396 0.0
1.276450 0.215362 0.0
1.239628 0.197517 0.0
1.201180 0.175902 0.0
1.162034 0.151567 0.0
1.123279 0.125525 0.0
1.085846 0.098891 0.0
1.050002 0.073131 0.0
1.014905 0.050018 0.0
0.978736 0.030932 0.0
0.939749 0.015724 0.0
0.897971 0.001909 0.0
0.856657 -0.014373 0.0
0.822218 -0.036068 0.0
0.801165 -0.062760 0.0
0.796571 -0.091119 0.0
0.807907 -0.116857 0.0
0.833049 -0.136335 0.0
0.869857 -0.146965 0.0
0.916641 -0.147039 0.0
0.971966 -0.135553 0.0
1.034263 -0.112259 0.0
1.101448 -0.077885 0.0
1.169784 -0.035389 0.0
1.231557 0.008911 0.0
1.279446 0.048487 0.0
1.312033 0.080081 0.0
1.330818 0.103483 0.0
1.337401 0.118931 0.0
1.333425 0.126977 0.0
1.320573 0.128431 0.0
1.300524 0.124287 0.0
1.274911 0.115655 0.0
1.245262 0.103718 0.0
1.212929 0.089729 0.0
1.179004 0.075050 0.0
1.144224 0.061197 0.0
1.108958 0.049813 0.0
1.073302 0.042263 0.0
1.037290 0.039099 0.0
1.001203 0.039633 0.0
0.965861 0.041908 0.0
0.932687 0.043294 0.0
0.903530 0.041371 0.0
0.880255 0.034650 0.0
0.864288 0.022852 0.0
0.856324 0.006747 0.0
0.856235 -0.012279 0.0
0.863236 -0.032336 0.0
0.876246 -0.051533 0.0
0.894176 -0.068405 0.0
0.916038 -0.081952 0.0
0.940976 -0.091540 0.0
0.968238 -0.096798 0.0
0.997126 -0.097549 0.0
1.026920 -0.093811 0.0
1.056760 -0.085863 0.0
1.085500 -0.074359 0.0
1.111542 -0.060438 0.0
1.131523 -0.045814 0.0
1.000549 -0.016504 0.0
1.002802 -0.050113 0.0
1.007693 -0.086208 0.0
1.016280 -0.126839 0.0
1.030741 -0.174281 0.0
1.055195 -0.230866 0.0
1.097054 -0.298253 0.0
1.167826 -0.372628 0.0
1.295411 -0.470108 0.0
1.413778 -0.371572 0.0
1.455411 -0.262747 0.0
1.459829 -0.180101 0.0
1.454010 -0.115204 0.0
1.445878 -0.059098 0.0
1.434919 -0.008596 0.0
1.418509 0.037002 0.0
1.395180 0.075748 0.0
1.365125 0.105709 0.0
1.329445 0.125319 0.0
1.289816 0.133552 0.0
1.248290 0.130020 0.0
1.207103 0.115103 0.0
1.168451 0.090035 0.0
1.134207 0.056984 0.0
1.105298 0.018719 0.0
1.081748 -0.024412 0.0
1.067943 -0.069568 0.0
1.071665 -0.105945 0.0
1.097435 -0.122916 0.0
1.144832 -0.111452 0.0
1.207247 -0.067978 0.0
1.269151 -0.001025 0.0
1.314959 0.066873 0.0
1.342627 0.123728 0.0
1.357154 0.169483 0.0
1.361737 0.205088 0.0
1.358302 0.231533 0.0
1.348063 0.249621 0.0
1.331842 0.259956 0.0
1.310256 0.263045 0.0
1.283836 0.259401 0.0
1.253116 0.249633 0.0
1.218721 0.234464 0.0
1.181425 0.214698 0.0
1.142133 0.191210 0.0
1.101653 0.165117 0.0
1.060144 0.138241 0.0
1.016376 0.113394 0.0
0.967761 0.093466 0.0
0.912357 0.079056 0.0
0.852256 0.066689 0.0
0.794897 0.050080 0.0
0.749687 0.023980 0.0
0.722443 -0.012738 0.0
0.713571 -0.056165 0.0
0.720034 -0.099582 0.0
0.738004 -0.137699 0.0
0.764739 -0.167370 0.0
0.798801 -0.186801 0.0
0.839620 -0.194805 0.0
0.886983 -0.190476 0.0
0.940605 -0.173256 0.0
0.999781 -0.143249 0.0
1.063107 -0.101687 0.0
1.128035 -0.051492 0.0
1.188494 0.000542 0.0
1.237161 0.046770 0.0
1.271522 0.083648 0.0
1.292581 0.111124 0.0
1.301692 0.129648 0.0
1.300333 0.139971 0.0
1.290039 0.143090 0.0
1.272323 0.140180 0.0
1.248611 0.132555 0.0
1.220163 0.121673 0.0
1.188005 0.109188 0.0
1.152884 0.096958 0.0
1.115329 0.086874 0.0
1.075808 0.080378 0.0
1.034999 0.077806 0.0
0.994053 0.077958 0.0
0.954699 0.078280 0.0
0.919069 0.075726 0.0
0.889289 0.067876 0.0
0.866998 0.053711 0.0
0.853026 0.033729 0.0
0.847341 0.009519 0.0
0.849189 -0.016810 0.0
0.857377 -0.042993 0.0
0.870627 -0.067135 0.0
0.887793 -0.087898 0.0
0.907910 -0.104439 0.0
0.930189 -0.116271 0.0
0.953995 -0.123134 0.0
0.978789 -0.124894 0.0
1.004048 -0.121518 0.0
1.029153 -0.113100 0.0
1.053232 -0.099941 0.0
1.075015 -0.082681 0.0
1.092086 -0.060622 0.0
1.000007 -0.017059 0.0
1.000042 -0.051846 0.0
1.000283 -0.089607 0.0
1.001359 -0.133104 0.0
1.004866 -0.185984 0.0
1.014574 -0.253326 0.0
1.039227 -0.342304 0.0
1.098181 -0.458302 0.0
1.255847 -0.669686 0.0
1.367962 -0.402476 0.0
1.330973 -0.236487 0.0
1.273435 -0.153241 0.0
1.234526 -0.097337 0.0
1.213816 -0.048122 0.0
1.200973 0.004231 0.0
1.185415 0.056144 0.0
1.162963 0.102387 0.0
1.132345 0.139744 0.0
1.093450 0.165859 0.0
1.046867 0.179224 0.0
0.993498 0.179243 0.0
0.934174 0.166391 0.0
0.869654 0.141919 0.0
0.802189 0.106810 0.0
0.738325 0.061667 0.0
0.688131 0.006383 0.0
0.661996 -0.060423 0.0
0.667649 -0.124465 0.0
0.705248 -0.167766 0.0
0.769023 -0.177772 0.0
0.853061 -0.148109 0.0
0.951039 -0.080776 0.0
1.046473 0.005383 0.0
1.121066 0.082958 0.0
1.173431 0.143361 0.0
1.209657 0.190401 0.0
1.232816 0.226497 0.0
1.244652 0.253060 0.0
1.246425 0.270965 0.0
1.239207 0.280841 0.0
1.223985 0.283247 0.0
1.201714 0.278778 0.0
1.173332 0.268096 0.0
1.139728 0.251966 0.0
1.101539 0.231424 0.0
1.058668 0.208253 0.0
1.009767 0.185515 0.0
0.952724 0.166931 0.0
0.887149 0.154119 0.0
0.817522 0.143433 0.0
0.753323 0.126612 0.0
0.704627 0.096212 0.0
0.676838 0.050848 0.0
0.669106 -0.004629 0.0
0.676225 -0.062521 0.0
0.692479 -0.115943 0.0
0.714307 -0.161134 0.0
0.740060 -0.196423 0.0
0.769281 -0.221032 0.0
0.802236 -0.234348 0.0
0.839569 -0.235628 0.0
0.881924 -0.224080 0.0
0.929579 -0.199256 0.0
0.982155 -0.161581 0.0
1.038443 -0.112814 0.0
1.096237 -0.056388 0.0
1.150466 0.000804 0.0
1.194865 0.050855 0.0
1.226918 0.090806 0.0
1.247076 0.120697 0.0
1.256281 0.141076 0.0
1.255698 0.152863 0.0
1.246572 0.157249 0.0
1.230120 0.155650 0.0
1.207446 0.149700 0.0
1.179487 0.141280 0.0
1.147018 0.132456 0.0
1.110759 0.125190 0.0
1.071588 0.120755 0.0
1.030774 0.119052 0.0
0.990119 0.118311 0.0
0.951865 0.115536 0.0
0.918325 0.107639 0.0
0.891419 0.092650 0.0
0.872295 0.070353 0.0
0.861237 0.042118 0.0
0.857801 0.010251 0.0
0.861041 -0.022629 0.0
0.869736 -0.054058 0.0
0.882633 -0.082219 0.0
0.898592 -0.105939 0.0
0.916639 -0.124561 0.0
0.935994 -0.137784 0.0
0.956069 -0.145503 0.0
0.976432 -0.147682 0.0
0.996728 -0.144286 0.0
1.016569 -0.135277 0.0
1.035386 -0.120662 0.0
1.052309 -0.100666 0.0
1.065760 -0.073160 0.0
0.999379 -0.016445 0.0
0.996822 -0.049938 0.0
0.991485 -0.086420 0.0
0.983050 -0.128931 0.0
0.971305 -0.181919 0.0
0.956852 -0.252647 0.0
0.943474 -0.354257 0.0
0.946851 -0.508681 0.0
1.052675 -0.882798 0.0
1.059325 -0.199145 0.0
0.878481 -0.101842 0.0
0.744739 -0.085446 0.0
0.682952 -0.064436 0.0
0.664122 -0.041482 0.0
0.670004 0.004553 0.0
0.678733 0.062652 0.0
0.679064 0.117999 0.0
0.666622 0.167192 0.0
0.637442 0.206485 0.0
0.589334 0.233288 0.0
0.522183 0.245698 0.0
0.439500 0.241944 0.0
0.350965 0.219421 0.0
0.273233 0.174504 0.0
0.224429 0.106642 0.0
0.215867 0.020164 0.0
0.244933 -0.077134 0.0
0.297408 -0.165882 0.0
0.362939 -0.229480 0.0
0.440097 -0.256990 0.0
0.529962 -0.242795 0.0
0.633201 -0.187307 0.0
0.748247 -0.098567 0.0
0.861047 -0.000486 0.0
0.952703 0.082784 0.0
1.020897 0.146557 0.0
1.071484 0.196595 0.0
1.107075 0.235535 0.0
1.129181 0.264610 0.0
1.139047 0.284548 0.0
1.137858 0.295951 0.0
1.126754 0.299448 0.0
1.106775 0.295785 0.0
1.078680 0.285976 0.0
1.042598 0.271686 0.0
0.997709 0.255752 0.0
0.942756 0.241871 0.0
0.878199 0.232175 0.0
0.808999 0.223650 0.0
0.744822 0.207705 0.0
0.695934 0.175428 0.0
0.667867 0.124159 0.0
0.659711 0.058845 0.0
0.666549 -0.011733 0.0
0.682582 -0.078569 0.0
0.703284 -0.136852 0.0
0.726027 -0.184796 0.0
0.749526 -0.222012 0.0
0.773468 -0.248605 0.0
0.798333 -0.264595 0.0
0.825196 -0.269577 0.0
0.855407 -0.262698 0.0
0.890138 -0.243025 0.0
0.929943 -0.210192 0.0
0.974493 -0.165041 0.0
1.022540 -0.110002 0.0
1.071882 -0.049154 0.0
1.117901 0.010394 0.0
1.155600 0.061515 0.0
1.183082 0.102347 0.0
1.200375 0.132929 0.0
1.208036 0.153931 0.0
1.206882 0.166460 0.0
1.197814 0.171959 0.0
1.181711 0.172168 0.0
1.159387 0.169095 0.0
1.131632 0.164865 0.0
1.099348 0.161322 0.0
1.063759 0.159383 0.0
1.026564 0.158432 0.0
0.989927 0.156223 0.0
0.956201 0.149605 0.0
0.927503 0.135807 0.0
0.905315 0.113576 0.0
0.890319 0.083546 0.0
0.882478 0.047822 0.0
0.881252 0.009208 0.0
0.885745 -0.029319 0.0
0.894832 -0.065150 0.0
0.907317 -0.096510 0.0
0.922064 -0.122354 0.0
0.938078 -0.142207 0.0
0.954564 -0.155979 0.0
0.970957 -0.163776 0.0
0.986912 -0.165726 0.0
1.002237 -0.161863 0.0
1.016786 -0.152089 0.0
1.030326 -0.136207 0.0
1.042412 -0.114129 0.0
1.052116 -0.082851 0.0
0.998776 -0.014600 0.0
0.993719 -0.044169 0.0
0.982948 -0.076081 0.0
0.964992 -0.112879 0.0
0.937133 -0.158367 0.0
0.894388 -0.219001 0.0
0.827012 -0.307149 0.0
0.716097 -0.448252 0.0
0.323328 -0.765266 0.0
-0.484692 0.274228 0.0
-0.484692 0.000000 0.0
-0.030907 -0.021194 0.0
-0.042393 -0.065130 0.0
0.016278 -0.080630 0.0
0.106312 -0.052215 0.0
0.185575 0.031428 0.0
0.224108 0.110358 0.0
0.229918 0.181465 0.0
0.208943 0.242367 0.0
0.165205 0.289253 0.0
0.105619 0.316470 0.0
0.041918 0.317557 0.0
-0.011434 0.285695 0.0
-0.042201 0.216727 0.0
-0.043674 0.114697 0.0
-0.015739 -0.007264 0.0
0.033669 -0.128180 0.0
0.092803 -0.226445 0.0
0.156145 -0.297790 0.0
0.225582 -0.335273 0.0
0.304861 -0.333657 0.0
0.397057 -0.291879 0.0
0.502941 -0.214924 0.0
0.619986 -0.113973 0.0
0.735280 -0.010678 0.0
0.831132 0.075973 0.0
0.904218 0.143505 0.0
0.959610 0.197643 0.0
0.999448 0.240558 0.0
1.025008 0.273173 0.0
1.037397 0.296128 0.0
1.037640 0.310131 0.0
1.026568 0.316154 0.0
1.004563 0.315708 0.0
0.971362 0.311237 0.0
0.926440 0.306011 0.0
0.870649 0.302356 0.0
0.808571 0.298324 0.0
0.749161 0.286111 0.0
0.702624 0.255958 0.0
0.675369 0.203318 0.0
0.667603 0.132101 0.0
0.675201 0.051461 0.0
0.692622 -0.028608 0.0
0.714935 -0.100042 0.0
0.738796 -0.159942 0.0
0.762146 -0.207799 0.0
0.783787 -0.244150 0.0
0.803293 -0.269916 0.0
0.821031 -0.285887 0.0
0.838162 -0.292279 0.0
0.856462 -0.288507 0.0
0.877890 -0.273375 0.0
0.903995 -0.245751 0.0
0.935413 -0.205451 0.0
0.971673 -0.153899 0.0
1.011321 -0.094246 0.0
1.051988 -0.031200 0.0
1.089445 0.027954 0.0
1.119891 0.077980 0.0
1.142043 0.117852 0.0
1.155661 0.147728 0.0
1.161007 0.168471 0.0
1.158580 0.181443 0.0
1.148979 0.188388 0.0
1.132861 0.191317 0.0
1.111001 0.192258 0.0
1.084442 0.192773 0.0
1.054645 0.193319 0.0
1.023543 0.192793 0.0
0.993368 0.188674 0.0
0.966293 0.177955 0.0
0.944022 0.158426 0.0
0.927564 0.129603 0.0
0.917256 0.092824 0.0
0.912944 0.050697 0.0
0.914145 0.006358 0.0
0.920077 -0.036895 0.0
0.929701 -0.076285 0.0
0.941871 -0.110030 0.0
0.955468 -0.137178 0.0
0.969501 -0.157429 0.0
0.983181 -0.170923 0.0
0.995974 -0.178020 0.0
1.007615 -0.179078 0.0
1.018066 -0.174286 0.0
1.027428 -0.163577 0.0
1.035804 -0.146636 0.0
1.043171 -0.123155 0.0
1.049129 -0.089487 0.0
0.998326 -0.011702 0.0
0.991424 -0.035110 0.0
0.976704 -0.059648 0.0
0.952004 -0.086656 0.0
0.913148 -0.117875 0.0
0.852076 -0.155676 0.0
0.751964 -0.202986 0.0
0.572619 -0.262153 0.0
0.227981 -0.317234 0.0
0.000000 0.274228 0.0
-0.000000 -0.000000 0.0
0.000000 0.000000 0.0
-0.041381 -0.042276 0.0
-0.084880 -0.117762 0.0
-0.085578 -0.104420 0.0
-0.072793 -0.008415 0.0
-0.057130 0.096004 0.0
-0.057177 0.190057 0.0
-0.073164 0.270736 0.0
-0.100763 0.332221 0.0
-0.132784 0.365109 0.0
-0.160170 0.360005 0.0
-0.173805 0.310235 0.0
-0.165969 0.215118 0.0
-0.131854 0.083663 0.0
-0.079273 -0.056747 0.0
-0.021962 -0.185417 0.0
0.033132 -0.283436 0.0
0.084563 -0.355573 0.0
0.135920 -0.398284 0.0
0.193178 -0.407184 0.0
0.262361 -0.379731 0.0
0.346907 -0.317503 0.0
0.445977 -0.227510 0.0
0.554763 -0.121221 0.0
0.661438 -0.016010 0.0
0.751177 0.072663 0.0
0.820511 0.143759 0.0
0.873211 0.201903 0.0
0.910812 0.248667 0.0
0.934221 0.284836 0.0
0.944129 0.311271 0.0
0.940950 0.329266 0.0
0.924723 0.340826 0.0
0.895404 0.348639 0.0
0.854008 0.354927 0.0
0.804456 0.358783 0.0
0.754505 0.353927 0.0
0.713781 0.330644 0.0
0.689461 0.282283 0.0
0.683274 0.210435 0.0
0.692343 0.123682 0.0
0.712088 0.032538 0.0
0.737619 -0.052637 0.0
0.764853 -0.125560 0.0
0.791243 -0.184675 0.0
0.815093 -0.230265 0.0
0.835290 -0.263523 0.0
0.851299 -0.286056 0.0
0.863252 -0.299438 0.0
0.872100 -0.304708 0.0
0.879651 -0.301928 0.0
0.888325 -0.290056 0.0
0.900575 -0.267426 0.0
0.918142 -0.232763 0.0
0.941544 -0.186249 0.0
0.970019 -0.130019 0.0
1.001845 -0.067920 0.0
1.034305 -0.005244 0.0
1.063777 0.051260 0.0
1.087558 0.098639 0.0
1.104613 0.136267 0.0
1.114609 0.164591 0.0
1.117601 0.184758 0.0
1.113878 0.198396 0.0
1.103921 0.207384 0.0
1.088470 0.213502 0.0
1.068645 0.217914 0.0
1.046023 0.220597 0.0
1.022567 0.220074 0.0
1.000351 0.213784 0.0
0.981177 0.199095 0.0
0.966273 0.174460 0.0
0.956232 0.140068 0.0
0.951151 0.097748 0.0
0.950841 0.050396 0.0
0.954905 0.001394 0.0
0.962614 -0.045573 0.0
0.972952 -0.087569 0.0
0.984829 -0.122792 0.0
0.997191 -0.150374 0.0
1.009112 -0.170185 0.0
1.019866 -0.182601 0.0
1.028990 -0.188259 0.0
1.036309 -0.187799 0.0
1.041935 -0.181642 0.0
1.046194 -0.169842 0.0
1.049508 -0.152060 0.0
1.052247 -0.127838 0.0
1.054483 -0.092997 0.0
0.998116 -0.008144 0.0
0.990391 -0.024041 0.0
0.974053 -0.039660 0.0
0.947051 -0.054942 0.0
0.905677 -0.069358 0.0
0.843785 -0.081231 0.0
0.751934 -0.085469 0.0
0.618857 -0.067247 0.0
0.443746 0.013314 0.0
0.173443 0.155206 0.0
0.000000 0.000000 0.0
-0.000000 -0.000000 0.0
0.000000 0.000000 0.0
-0.055981 -0.057822 0.0
-0.123609 -0.094192 0.0
-0.146305 -0.008731 0.0
-0.162316 0.096668 0.0
-0.170848 0.197974 0.0
-0.178498 0.286456 0.0
-0.186582 0.352183 0.0
-0.192018 0.382603 0.0
-0.188865 0.366745 0.0
-0.170699 0.298965 0.0
-0.129515 0.177369 0.0
-0.062951 0.020732 0.0
0.008939 -0.118286 0.0
0.066126 -0.238377 0.0
0.110002 -0.329446 0.0
0.144894 -0.395887 0.0
0.173031 -0.437463 0.0
0.200155 -0.452386 0.0
0.234613 -0.438171 0.0
0.284155 -0.393153 0.0
0.352334 -0.319108 0.0
0.436788 -0.222863 0.0
0.530677 -0.114932 0.0
0.622374 -0.009852 0.0
0.699902 0.079413 0.0
0.760289 0.153162 0.0
0.805611 0.214485 0.0
0.836635 0.264584 0.0
0.853682 0.304568 0.0
0.856838 0.335992 0.0
0.846251 0.360914 0.0
0.822924 0.381199 0.0
0.790047 0.396641 0.0
0.753949 0.402718 0.0
0.723110 0.390782 0.0
0.704893 0.352730 0.0
0.702401 0.287009 0.0
0.714265 0.200031 0.0
0.736934 0.102349 0.0
0.766410 0.004649 0.0
0.798355 -0.082225 0.0
0.829267 -0.154118 0.0
0.857164 -0.210404 0.0
0.880714 -0.251936 0.0
0.899050 -0.280385 0.0
0.911711 -0.297863 0.0
0.918702 -0.306575 0.0
0.920662 -0.308380 0.0
0.919083 -0.304229 0.0
0.916363 -0.293710 0.0
0.915457 -0.275116 0.0
0.919117 -0.246301 0.0
0.929047 -0.206042 0.0
0.945449 -0.155104 0.0
0.967177 -0.096389 0.0
0.992206 -0.034264 0.0
1.017547 0.025469 0.0
1.040212 0.077985 0.0
1.058409 0.121668 0.0