# vtk DataFile Version 3.0
Scalar Field
ASCII
DATASET RECTILINEAR_GRID
DIMENSIONS 100 26 1
X_COORDINATES 100 double
0.050000 0.150000 0.250000 0.350000 0.450000 0.550000 0.650000 0.750000 0.850000 0.950000 1.050000 1.150000 1.250000 1.350000 1.450000 1.550000 1.650000 1.750000 1.850000 1.950000 2.050000 2.150000 2.250000 2.350000 2.450000 2.550000 2.650000 2.750000 2.850000 2.950000 3.050000 3.150000 3.250000 3.350000 3.450000 3.550000 3.650000 3.750000 3.850000 3.950000 4.050000 4.150000 4.250000 4.350000 4.450000 4.550000 4.650000 4.750000 4.850000 4.950000 5.050000 5.150000 5.250000 5.350000 5.450000 5.550000 5.650000 5.750000 5.850000 5.950000 6.050000 6.150000 6.250000 6.350000 6.450000 6.550000 6.650000 6.750000 6.850000 6.950000 7.050000 7.150000 7.250000 7.350000 7.450000 7.550000 7.650000 7.750000 7.850000 7.950000 8.050000 8.150000 8.250000 8.350000 8.450000 8.550000 8.650000 8.750000 8.850000 8.950000 9.050000 9.150000 9.250000 9.350000 9.450000 9.550000 9.650000 9.750000 9.850000 9.950000 
Y_COORDINATES 26 double
0.050000 0.150000 0.250000 0.350000 0.450000 0.550000 0.650000 0.750000 0.850000 0.950000 1.050000 1.150000 1.250000 1.350000 1.450000 1.550000 1.650000 1.750000 1.850000 1.950000 2.050000 2.150000 2.250000 2.350000 2.450000 2.550000 
Z_COORDINATES 1 double
0.0
POINT_DATA 2600
SCALARS Skalarfeld double 1
LOOKUP_TABLE default
0.265480
0.250149
0.234815
0.216461
0.194003
0.167019
0.135540
0.100043
0.061507
0.021424
-0.018328
-0.055791
-0.089260
-0.117536
-0.139875
-0.155756
-0.165501
-0.169705
-0.169167
-0.164797
-0.157541
-0.148323
-0.137997
-0.127309
-0.116858
-0.107064
-0.098136
-0.090067
-0.082688
-0.075778
-0.069188
-0.062929
-0.057192
-0.052307
-0.048644
-0.046494
-0.045954
-0.046843
-0.048660
-0.050606
-0.051615
-0.050394
-0.045785
-0.037019
-0.024480
-0.010958
0.002086
0.014021
0.024641
0.033899
0.041778
0.048248
0.053298
0.056912
0.059051
0.059762
0.058554
0.054988
0.048802
0.040125
0.029733
0.019000
0.009347
0.001497
-0.004709
-0.009752
-0.013794
-0.016601
-0.017921
-0.017613
-0.015792
-0.013014
-0.009689
-0.006147
-0.002703
0.000363
0.002769
0.004458
0.005352
0.005528
0.005292
0.005031
0.005181
0.006114
0.007952
0.010735
0.014080
0.017789
0.021770
0.025936
0.030187
0.034434
0.038618
0.042731
0.046827
0.051002
0.055341
0.059818
0.064139
0.068096
0.256727
0.250198
0.237832
0.220627
0.198458
0.171166
0.138812
0.101881
0.061439
0.019201
-0.022613
-0.061726
-0.096242
-0.124830
-0.146816
-0.162300
-0.171398
-0.174746
-0.173215
-0.167787
-0.159480
-0.149288
-0.138134
-0.126833
-0.116047
-0.106235
-0.097598
-0.090057
-0.083323
-0.077041
-0.070961
-0.065044
-0.059473
-0.054603
-0.050841
-0.048519
-0.047773
-0.048449
-0.050071
-0.051854
-0.052694
-0.051072
-0.045188
-0.035078
-0.023226
-0.010423
0.002048
0.013566
0.023903
0.032995
0.040812
0.047326
0.052546
0.056604
0.059516
0.060392
0.059323
0.055782
0.049450
0.040445
0.029679
0.018724
0.009090
0.001361
-0.004869
-0.010189
-0.014638
-0.017711
-0.018917
-0.018509
-0.016446
-0.013545
-0.010108
-0.006429
-0.002844
0.000379
0.003060
0.004897
0.005734
0.005739
0.005312
0.004849
0.004840
0.005729
0.007709
0.010422
0.013689
0.017393
0.021429
0.025685
0.030034
0.034367
0.038619
0.042795
0.046959
0.051178
0.055592
0.060204
0.064596
0.068565
0.260023
0.255841
0.245332
0.229087
0.207067
0.179048
0.144948
0.105154
0.060835
0.014134
-0.031916
-0.074338
-0.110928
-0.140401
-0.162283
-0.176721
-0.184262
-0.185587
-0.181743
-0.173871
-0.163158
-0.150774
-0.137830
-0.125326
-0.114095
-0.104694
-0.097292
-0.091587
-0.086918
-0.082547
-0.077951
-0.072948
-0.067691
-0.062571
-0.058068
-0.054597
-0.052373
-0.051325
-0.051049
-0.050802
-0.049527
-0.046004
-0.039342
-0.029636
-0.018342
-0.007018
0.004075
0.014413
0.023787
0.032113
0.039338
0.045412
0.050315
0.054069
0.056645
0.057947
0.057036
0.053559
0.047643
0.039392
0.029635
0.019562
0.010285
0.002266
-0.004638
-0.010613
-0.015426
-0.018521
-0.019513
-0.018503
-0.016622
-0.014015
-0.010635
-0.006914
-0.003289
-0.000024
0.002619
0.004432
0.005370
0.005548
0.005202
0.004796
0.004795
0.005560
0.007229
0.009699
0.012855
0.016582
0.020746
0.025187
0.029732
0.034242
0.038634
0.042948
0.047306
0.051898
0.056755
0.061639
0.066107
0.068243
0.271054
0.267627
0.258114
0.242505
0.220411
0.191226
0.154440
0.110103
0.059420
0.005190
-0.047791
-0.095263
-0.134683
-0.165029
-0.186251
-0.198883
-0.203788
-0.201902
-0.194476
-0.182857
-0.168452
-0.152674
-0.136892
-0.122381
-0.110287
-0.101403
-0.095864
-0.093127
-0.091825
-0.090516
-0.088241
-0.084617
-0.079779
-0.074199
-0.068474
-0.063139
-0.058525
-0.054685
-0.051360
-0.048004
-0.043878
-0.038259
-0.030768
-0.021625
-0.011585
-0.001380
0.008252
0.017185
0.025283
0.032464
0.038652
0.043780
0.047811
0.050764
0.052625
0.053260
0.052330
0.049492
0.044199
0.036707
0.028007
0.018842
0.010114
0.002280
-0.004548
-0.010292
-0.014706
-0.017477
-0.018507
-0.017983
-0.016255
-0.013388
-0.010033
-0.006596
-0.003234
-0.000118
0.002373
0.004063
0.004898
0.004986
0.004601
0.004148
0.004035
0.004593
0.006001
0.008265
0.011327
0.015085
0.019384
0.024038
0.028855
0.033681
0.038453
0.043175
0.047944
0.052929
0.058219
0.063795
0.069449
0.074643
0.288395
0.285349
0.276575
0.261598
0.239492
0.208953
0.168598
0.117628
0.056978
-0.009768
-0.073574
-0.127964
-0.170486
-0.201046
-0.220480
-0.229968
-0.230763
-0.224179
-0.211642
-0.194719
-0.175089
-0.154469
-0.134541
-0.116911
-0.103366
-0.095233
-0.092650
-0.094310
-0.098067
-0.101159
-0.101945
-0.099883
-0.095239
-0.088738
-0.081230
-0.073452
-0.065899
-0.058776
-0.052012
-0.045311
-0.038277
-0.030566
-0.022073
-0.013000
-0.003774
0.005172
0.013510
0.021141
0.027971
0.033909
0.038872
0.042806
0.045686
0.047599
0.048598
0.048572
0.047228
0.044218
0.039295
0.032615
0.024636
0.015938
0.007713
0.000380
-0.005851
-0.010835
-0.014426
-0.016514
-0.017114
-0.016383
-0.014565
-0.011912
-0.008785
-0.005417
-0.002110
0.000727
0.002919
0.004343
0.004894
0.004656
0.003920
0.003089
0.002563
0.002702
0.003765
0.005757
0.008670
0.012418
0.016838
0.021715
0.026827
0.031990
0.037106
0.042180
0.047338
0.052821
0.058926
0.065913
0.073959
0.086864
0.311321
0.308667
0.300844
0.286985
0.265510
0.234049
0.189624
0.129489
0.053288
-0.035262
-0.115520
-0.178013
-0.222453
-0.251307
-0.266920
-0.271266
-0.266134
-0.253083
-0.233599
-0.209486
-0.182764
-0.155535
-0.129847
-0.107584
-0.091566
-0.084339
-0.086276
-0.095150
-0.106575
-0.115904
-0.120522
-0.119923
-0.114838
-0.106580
-0.096482
-0.085611
-0.074672
-0.064031
-0.053780
-0.043834
-0.034040
-0.024294
-0.014627
-0.005215
0.003686
0.011843
0.019095
0.025353
0.030778
0.035415
0.039032
0.041687
0.043287
0.044087
0.044271
0.043764
0.042245
0.039284
0.034544
0.028000
0.019871
0.011501
0.003485
-0.003454
-0.009066
-0.013182
-0.015773
-0.016884
-0.016647
-0.015266
-0.012997
-0.010108
-0.006882
-0.003578
-0.000469
0.002166
0.004146
0.005215
0.005322
0.004569
0.003211
0.001650
0.000347
-0.000302
0.000002
0.001517
0.004125
0.007778
0.012282
0.017376
0.022791
0.028308
0.033801
0.039268
0.044857
0.050880
0.057803
0.066246
0.077021
0.098774
0.339101
0.337023
0.330749
0.319094
0.299789
0.269054
0.221234
0.149316
0.048271
-0.081407
-0.184720
-0.252601
-0.294165
-0.317415
-0.326262
-0.323096
-0.310440
-0.289153
-0.260755
-0.227365
-0.191467
-0.155687
-0.122560
-0.094232
-0.073755
-0.066860
-0.074561
-0.093492
-0.116774
-0.135543
-0.144724
-0.145224
-0.138758
-0.127704
-0.114148
-0.099585
-0.084939
-0.070700
-0.057070
-0.044089
-0.031745
-0.020058
-0.009118
0.000919
0.009884
0.017641
0.024098
0.029174
0.032782
0.035069
0.036680
0.037954
0.038047
0.037611
0.037121
0.036552
0.035459
0.033222
0.029306
0.023464
0.015865
0.007246
-0.001298
-0.008185
-0.013580
-0.017115
-0.018869
-0.019019
-0.017815
-0.015553
-0.012546
-0.009098
-0.005494
-0.001989
0.001175
0.003752
0.005503
0.006198
0.005734
0.004192
0.001862
-0.000797
-0.003247
-0.004990
-0.005653
-0.004959
-0.002758
0.000788
0.005398
0.010740
0.016490
0.022387
0.028274
0.034136
0.040129
0.046606
0.054155
0.063643
0.076322
0.103400
0.370656
0.369441
0.365608
0.357841
0.343415
0.317134
0.269560
0.185050
0.042281
-0.171643
-0.297658
-0.355117
-0.382549
-0.395025
-0.394484
-0.383643
-0.362869
-0.332233
-0.293420
-0.249042
-0.202236
-0.156356
-0.114699
-0.080331
-0.053191
-0.044412
-0.056721
-0.085355
-0.121445
-0.154167
-0.170679
-0.172216
-0.163833
-0.149516
-0.132293
-0.114077
-0.095951
-0.078462
-0.061858
-0.046245
-0.031683
-0.018253
-0.006077
0.004702
0.013939
0.021502
0.027237
0.030972
0.032610
0.032291
0.030411
0.027764
0.026098
0.024843
0.024505
0.024800
0.025044
0.024427
0.022239
0.018037
0.011791
0.003983
-0.004451
-0.012541
-0.018109
-0.021517
-0.022885
-0.022422
-0.020462
-0.017397
-0.013625
-0.009517
-0.005399
-0.001552
0.001770
0.004314
0.005822
0.006056
0.004887
0.002386
-0.001129
-0.005118
-0.008923
-0.011899
-0.013562
-0.013617
-0.011752
-0.008239
-0.003454
0.002184
0.008291
0.014558
0.020801
0.026984
0.033251
0.039963
0.047743
0.057548
0.070765
0.098353
0.404378
0.404331
0.403912
0.402048
0.396252
0.380954
0.343492
0.254797
0.041927
-0.362261
-0.466923
-0.468349
-0.466432
-0.467186
-0.460218
-0.445807
-0.418823
-0.379785
-0.331050
-0.275970
-0.218490
-0.162838
-0.113102
-0.072981
-0.045736
-0.032226
-0.044990
-0.076434
-0.116977
-0.156343
-0.184990
-0.190745
-0.181729
-0.165519
-0.146099
-0.125690
-0.105435
-0.085891
-0.067335
-0.049928
-0.033804
-0.019111
-0.006014
0.005310
0.014664
0.021768
0.026206
0.027559
0.025797
0.021583
0.016140
0.010805
0.007071
0.005982
0.006900
0.009024
0.011417
0.013136
0.013360
0.011507
0.007361
0.001163
-0.006377
-0.014203
-0.021019
-0.024964
-0.026500
-0.025978
-0.023736
-0.020232
-0.015948
-0.011339
-0.006801
-0.002671
0.000758
0.003207
0.004393
0.004066
0.002084
-0.001475
-0.006248
-0.011595
-0.016712
-0.020821
-0.023341
-0.023903
-0.022215
-0.018619
-0.013585
-0.007611
-0.001151
0.005439
0.011941
0.018291
0.024610
0.031229
0.038735
0.048027
0.060389
0.085062
0.438107
0.439422
0.443091
0.448724
0.455165
0.459017
0.450047
0.395020
0.146555
-0.707808
-0.659573
-0.536099
-0.507017
-0.504931
-0.505054
-0.493342
-0.465278
-0.422861
-0.369338
-0.308840
-0.246190
-0.186727
-0.134915
-0.094296
-0.067010
-0.057925
-0.064761
-0.086549
-0.117292
-0.149495
-0.175330
-0.188768
-0.183921
-0.168753
-0.150020
-0.130106
-0.110107
-0.090552
-0.071751
-0.053953
-0.037408
-0.022381
-0.009151
0.001973
0.010601
0.016165
0.017978
0.015621
0.009548
0.001307
-0.006971
-0.013492
-0.016754
-0.016267
-0.013122
-0.008471
-0.003433
0.000975
0.003893
0.004684
0.003008
-0.001086
-0.007097
-0.014102
-0.020880
-0.026197
-0.028485
-0.028473
-0.026515
-0.023087
-0.018730
-0.013974
-0.009295
-0.005098
-0.001735
0.000475
0.001224
0.000242
-0.002611
-0.007236
-0.013206
-0.019775
-0.026019
-0.031051
-0.034223
-0.035067
-0.033392
-0.029600
-0.024245
-0.017913
-0.011127
-0.004295
0.002324
0.008638
0.014728
0.020869
0.027563
0.035569
0.045937
0.065727
0.469332
0.471966
0.479636
0.492853
0.512464
0.539492
0.574314
0.612590
0.689920
-0.008944
-0.589288
-0.519003
-0.506548
-0.504926
-0.512622
-0.506464
-0.483804
-0.446472
-0.398227
-0.343653
-0.287813
-0.237195
-0.194399
-0.161700
-0.140424
-0.128761
-0.121224
-0.123218
-0.132649
-0.146031
-0.158681
-0.166142
-0.165925
-0.156452
-0.141124
-0.124372
-0.107142
-0.089862
-0.072841
-0.056419
-0.040987
-0.026977
-0.014854
-0.005140
0.001496
0.004209
0.002231
-0.004480
-0.014621
-0.025715
-0.035123
-0.041065
-0.042178
-0.039009
-0.032925
-0.025297
-0.017370
-0.010196
-0.004616
-0.001252
-0.000479
-0.002366
-0.006592
-0.012418
-0.018770
-0.024479
-0.028220
-0.029037
-0.027835
-0.024985
-0.021030
-0.016550
-0.012087
-0.008116
-0.005048
-0.003252
-0.003067
-0.004776
-0.008515
-0.014151
-0.021190
-0.028799
-0.035963
-0.041720
-0.045371
-0.046322
-0.044525
-0.040447
-0.034727
-0.028037
-0.020978
-0.014014
-0.007446
-0.001404
0.004150
0.009421
0.014798
0.020866
0.028415
0.042265
0.495638
0.499254
0.509889
0.528658
0.557722
0.600876
0.664782
0.760855
0.895563
0.931457
0.000000
-0.508961
-0.498919
-0.490361
-0.488373
-0.485737
-0.470005
-0.442723
-0.408195
-0.371982
-0.338665
-0.310178
-0.285806
-0.264219
-0.244920
-0.222023
-0.198253
-0.176414
-0.159970
-0.149381
-0.143165
-0.138995
-0.134608
-0.128565
-0.119695
-0.107734
-0.095064
-0.081900
-0.068468
-0.055140
-0.042429
-0.030934
-0.021323
-0.014369
-0.011018
-0.012293
-0.018774
-0.029810
-0.043173
-0.055774
-0.064909
-0.068980
-0.066763
-0.060134
-0.050619
-0.039746
-0.028847
-0.018983
-0.010946
-0.005289
-0.002349
-0.002228
-0.004724
-0.009264
-0.014924
-0.020580
-0.025142
-0.027263
-0.027136
-0.025232
-0.022063
-0.018225
-0.014306
-0.010837
-0.008285
-0.007064
-0.007547
-0.010033
-0.014647
-0.021219
-0.029199
-0.037689
-0.045612
-0.051947
-0.055948
-0.056875
-0.054868
-0.050460
-0.044375
-0.037375
-0.030135
-0.023180
-0.016854
-0.011327
-0.006610
-0.002572
0.001055
0.004684
0.008851
0.016223
0.515225
0.519294
0.531233
0.552197
0.584277
0.630642
0.695058
0.779154
0.876967
0.967351
0.884728
0.000000
-0.483055
-0.467192
-0.452371
-0.442776
-0.431779
-0.417629
-0.404198
-0.395713
-0.393198
-0.393648
-0.391242
-0.379385
-0.352522
-0.315207
-0.272228
-0.228272
-0.188189
-0.154943
-0.129593
-0.111769
-0.100022
-0.092374
-0.086831
-0.081182
-0.073745
-0.065700
-0.057049
-0.048095
-0.039406
-0.031712
-0.025868
-0.022903
-0.024004
-0.030203
-0.041625
-0.056759
-0.072599
-0.085779
-0.093871
-0.094455
-0.088540
-0.078095
-0.064953
-0.050801
-0.037030
-0.024687
-0.014496
-0.006915
-0.002199
-0.000419
-0.001428
-0.004775
-0.009678
-0.015104
-0.019967
-0.023360
-0.024335
-0.023532
-0.021362
-0.018398
-0.015244
-0.012469
-0.010585
-0.010050
-0.011270
-0.014553
-0.020013
-0.027447
-0.036262
-0.045515
-0.054080
-0.060882
-0.065121
-0.065931
-0.063684
-0.058975
-0.052604
-0.045412
-0.038144
-0.031379
-0.025505
-0.020731
-0.017120
-0.014615
-0.013063
-0.012217
-0.011760
-0.011087
0.527272
0.531247
0.542821
0.562795
0.592434
0.633315
0.686873
0.752292
0.816812
0.840150
0.802106
0.688888
0.000000
-0.441911
-0.416629
-0.396876
-0.388297
-0.385640
-0.392682
-0.412518
-0.441487
-0.470079
-0.487253
-0.479064
-0.441956
-0.388285
-0.326601
-0.263695
-0.205091
-0.154510
-0.113980
-0.084144
-0.064397
-0.053031
-0.047607
-0.045525
-0.043920
-0.041115
-0.037679
-0.033713
-0.029797
-0.026764
-0.025659
-0.027754
-0.034381
-0.046351
-0.063085
-0.082180
-0.100032
-0.113146
-0.119126
-0.115825
-0.105946
-0.091671
-0.075076
-0.057942
-0.041665
-0.027242
-0.015308
-0.006220
-0.000135
0.002933
0.003123
0.000799
-0.003383
-0.008500
-0.013524
-0.017562
-0.019646
-0.019934
-0.018798
-0.016775
-0.014467
-0.012463
-0.011310
-0.011502
-0.013471
-0.017535
-0.023794
-0.032014
-0.041566
-0.051476
-0.060582
-0.067757
-0.072123
-0.072754
-0.070316
-0.065431
-0.058952
-0.051779
-0.044707
-0.038359
-0.033159
-0.029355
-0.027059
-0.026291
-0.027005
-0.029106
-0.032473
-0.038456
0.531955
0.535414
0.545407
0.562381
0.586931
0.619342
0.658462
0.699455
0.729226
0.721720
0.659545
0.575670
0.413236
0.000000
-0.385749
-0.354868
-0.350812
-0.355174
-0.376211
-0.417462
-0.473700
-0.528034
-0.558594
-0.540660
-0.492788
-0.426390
-0.351358
-0.275644
-0.205142
-0.143710
-0.093486
-0.055296
-0.028907
-0.013132
-0.005891
-0.004512
-0.006287
-0.008730
-0.010292
-0.011250
-0.012300
-0.014403
-0.018791
-0.026908
-0.040024
-0.058438
-0.080701
-0.103590
-0.123102
-0.135837
-0.138684
-0.131203
-0.117510
-0.099878
-0.080464
-0.061046
-0.042952
-0.027077
-0.013951
-0.003824
0.003234
0.007268
0.008421
0.006989
0.003512
-0.001209
-0.006214
-0.010604
-0.013549
-0.014727
-0.014500
-0.013341
-0.011829
-0.010562
-0.010110
-0.010999
-0.013679
-0.018470
-0.025451
-0.034359
-0.044536
-0.054983
-0.064516
-0.071990
-0.076221
-0.076763
-0.074299
-0.069472
-0.063169
-0.056315
-0.049733
-0.044064
-0.039759
-0.037098
-0.036244
-0.037290
-0.040294
-0.045303
-0.052372
-0.064690
0.530241
0.532968
0.540751
0.553625
0.571430
0.593311
0.616777
0.636125
0.640291
0.611547
0.532435
0.394763
0.250802
-0.157482
-0.384405
-0.326802
-0.317285
-0.324483
-0.356441
-0.413586
-0.486252
-0.552489
-0.581380
-0.555974
-0.501360
-0.428536
-0.347734
-0.266987
-0.191943
-0.126117
-0.071381
-0.028470
0.002681
0.022831
0.033402
0.036409
0.034129
0.028768
0.023418
0.018277
0.012506
0.005064
-0.005366
-0.020197
-0.040330
-0.065307
-0.092788
-0.118904
-0.139382
-0.150726
-0.149088
-0.138564
-0.122063
-0.102173
-0.081076
-0.060462
-0.041523
-0.025021
-0.011367
-0.000716
0.006935
0.011672
0.013635
0.013058
0.010360
0.006206
0.001461
-0.002987
-0.006429
-0.008278
-0.008755
-0.008286
-0.007430
-0.006785
-0.006940
-0.008440
-0.011749
-0.017175
-0.024771
-0.034241
-0.044897
-0.055724
-0.065528
-0.073175
-0.077068
-0.077736
-0.075506
-0.071065
-0.065305
-0.059140
-0.053381
-0.048664
-0.045445
-0.044032
-0.044635
-0.047421
-0.052548
-0.060195
-0.070586
-0.088574
0.523479
0.525351
0.530595
0.538954
0.549775
0.561599
0.571480
0.574021
0.560291
0.517035
0.427093
0.267737
-0.008598
-0.565766
-0.442007
-0.327002
-0.298102
-0.307248
-0.345872
-0.408144
-0.481518
-0.543015
-0.553581
-0.526048
-0.471338
-0.400322
-0.322440
-0.244911
-0.172669
-0.108683
-0.054427
-0.010382
0.023511
0.047589
0.062546
0.069570
0.070149
0.065753
0.058838
0.050951
0.041144
0.028554
0.012054
-0.009418
-0.036119
-0.066752
-0.098244
-0.126342
-0.146844
-0.154893
-0.149897
-0.137213
-0.119369
-0.098813
-0.077556
-0.057094
-0.038442
-0.022215
-0.008719
0.001955
0.009852
0.015080
0.017765
0.018079
0.016321
0.013000
0.008844
0.004668
0.001164
-0.001051
-0.001966
-0.001963
-0.001575
-0.001398
-0.002031
-0.004030
-0.007859
-0.013805
-0.021883
-0.031757
-0.042715
-0.053734
-0.063609
-0.071133
-0.074986
-0.075932
-0.074239
-0.070564
-0.065755
-0.060670
-0.056065
-0.052539
-0.050536
-0.050379
-0.052325
-0.056611
-0.063491
-0.073264
-0.086310
-0.108886
0.513252
0.514272
0.517038
0.521128
0.525664
0.529004
0.528304
0.518970
0.494117
0.444160
0.356506
0.215053
0.000401
-0.265318
-0.306411
-0.288668
-0.284730
-0.302016
-0.340442
-0.395518
-0.454274
-0.489289
-0.490326
-0.463316
-0.414805
-0.352891
-0.284996
-0.216973
-0.152913
-0.095338
-0.045536
-0.003916
0.029660
0.055588
0.074281
0.086009
0.091285
0.091003
0.087770
0.079668
0.067308
0.050644
0.029158
0.002438
-0.029006
-0.063142
-0.096419
-0.124376
-0.142637
-0.146330
-0.140356
-0.127497
-0.110317
-0.091007
-0.071278
-0.052364
-0.035088
-0.019947
-0.007187
0.003117
0.011007
0.016574
0.019922
0.021171
0.020518
0.018323
0.015147
0.011676
0.008542
0.006384
0.005348
0.005129
0.005244
0.005113
0.004137
0.001756
-0.002479
-0.008818
-0.017228
-0.027330
-0.038396
-0.049418
-0.059249
-0.066276
-0.070458
-0.071985
-0.071184
-0.068675
-0.065217
-0.061565
-0.058385
-0.056208
-0.055450
-0.056442
-0.059484
-0.064878
-0.072957
-0.084119
-0.098871
-0.124471
0.501135
0.501391
0.501961
0.502381
0.501744
0.498500
0.490198
0.473220
0.442588
0.391983
0.314120
0.202227
0.055691
-0.101732
-0.183850
-0.220371
-0.245842
-0.275296
-0.313025
-0.355985
-0.393482
-0.412193
-0.410342
-0.388188
-0.349682
-0.300266
-0.245313
-0.189314
-0.135588
-0.086315
-0.042727
-0.005330
0.025854
0.051082
0.070683
0.084947
0.094111
0.101845
0.102752
0.096419
0.083769
0.065460
0.041626
0.012573
-0.020461
-0.054919
-0.087083
-0.112747
-0.125887
-0.127909
-0.122402
-0.111425
-0.097001
-0.080815
-0.064157
-0.047969
-0.032907
-0.019403
-0.007714
0.002038
0.009826
0.015682
0.019667
0.021857
0.022385
0.021498
0.019606
0.017248
0.014960
0.013349
0.012528
0.012336
0.012369
0.012082
0.010886
0.008231
0.003699
-0.002909
-0.011497
-0.021639
-0.032598
-0.043409
-0.052821
-0.059784
-0.064473
-0.066881
-0.067326
-0.066343
-0.064559
-0.062589
-0.060976
-0.060173
-0.060560
-0.062476
-0.066259
-0.072263
-0.080873
-0.092533
-0.107816
-0.134382
0.488544
0.488154
0.486897
0.484351
0.479709
0.471656
0.458242
0.436787
0.403905
0.355753
0.288690
0.200814
0.095422
-0.013559
-0.094896
-0.150239
-0.191874
-0.228931
-0.265117
-0.298972
-0.324645
-0.337447
-0.335701
-0.319271
-0.290445
-0.252739
-0.209905
-0.165282
-0.121504
-0.080428
-0.043211
-0.010436
0.017733
0.041408
0.060851
0.076359
0.089384
0.098223
0.101256
0.097729
0.087539
0.070879
0.048209
0.020500
-0.010414
-0.041673
-0.069696
-0.089704
-0.099480
-0.102154
-0.099182
-0.092101
-0.082247
-0.070672
-0.058195
-0.045475
-0.033055
-0.021375
-0.010773
-0.001495
0.006305
0.012552
0.017223
0.020357
0.022048
0.022476
0.021950
0.020899
0.019938
0.019180
0.018859
0.018926
0.019057
0.018751
0.017441
0.014603
0.009865
0.003098
-0.005523
-0.015513
-0.026136
-0.036475
-0.045456
-0.052754
-0.058182
-0.061769
-0.063760
-0.064551
-0.064604
-0.064375
-0.064281
-0.064703
-0.065993
-0.068508
-0.072631
-0.078738
-0.087210
-0.098465
-0.113020
-0.138097
0.476676
0.475751
0.473012
0.468144
0.460513
0.449091
0.432414
0.408591
0.375422
0.330699
0.272804
0.201736
0.120735
0.037762
-0.034231
-0.092135
-0.139109
-0.179029
-0.213888
-0.243132
-0.264190
-0.275181
-0.274871
-0.263405
-0.242295
-0.213906
-0.180882
-0.145700
-0.110417
-0.076565
-0.045162
-0.016786
0.008336
0.030220
0.049045
0.065094
0.078525
0.088024
0.092620
0.091529
0.084350
0.071064
0.052148
0.028783
0.002999
-0.022360
-0.044007
-0.059089
-0.068696
-0.073567
-0.074689
-0.072913
-0.068803
-0.062706
-0.054936
-0.045900
-0.036093
-0.026037
-0.016232
-0.007102
0.001007
0.007893
0.013386
0.017505
0.020324
0.022038
0.022929
0.023308
0.023408
0.023528
0.023856
0.024342
0.024700
0.024469
0.023113
0.020144
0.015251
0.008403
-0.000127
-0.009778
-0.019863
-0.029643
-0.038556
-0.046313
-0.052731
-0.057744
-0.061442
-0.064047
-0.065848
-0.067154
-0.068290
-0.069596
-0.071431
-0.074168
-0.078280
-0.084104
-0.091939
-0.102077
-0.114808
-0.135837
0.466525
0.465129
0.461149
0.454448
0.444601
0.430859
0.412168
0.387235
0.354673
0.313269
0.262414
0.202713
0.136687
0.069090
0.006223
-0.048757
-0.095753
-0.135785
-0.169502
-0.196575
-0.216045
-0.226665
-0.227981
-0.220353
-0.204951
-0.183504
-0.157969
-0.130223
-0.101867
-0.074122
-0.047817
-0.023437
-0.001191
0.018894
0.036882
0.052855
0.066321
0.076521
0.082684
0.084088
0.080260
0.071127
0.057166
0.039543
0.020103
0.001172
-0.015199
-0.028427
-0.038675
-0.046442
-0.052279
-0.056389
-0.058516
-0.058177
-0.055097
-0.049458
-0.041808
-0.032839
-0.023299
-0.013819
-0.005052
0.002802
0.009345
0.014614
0.018621
0.021483
0.023421
0.024745
0.025739
0.026647
0.027591
0.028502
0.029105
0.028953
0.027540
0.024417
0.019339
0.012420
0.004049
-0.005190
-0.014717
-0.024007
-0.032958
-0.041400
-0.049034
-0.055568
-0.060875
-0.065019
-0.068161
-0.070512
-0.072353
-0.074085
-0.076100
-0.078675
-0.082573
-0.087930
-0.094965
-0.103720
-0.114095
-0.129019
0.458967
0.457051
0.451888
0.443634
0.432086
0.416722
0.396790
0.371413
0.339726
0.301087
0.255367
0.203290
0.146737
0.088750
0.032957
-0.018081
-0.063232
-0.102190
-0.134787
-0.160655
-0.179364
-0.190051
-0.192715
-0.187865
-0.176536
-0.160128
-0.140191
-0.118209
-0.095434
-0.072806
-0.050938
-0.030154
-0.010562
0.007860
0.025142
0.041038
0.054860
0.066070
0.073992
0.077964
0.077513
0.072535
0.063468
0.051349
0.037640
0.023635
0.010328
-0.001643
-0.012613
-0.023130
-0.033543
-0.043548
-0.051991
-0.057294
-0.058407
-0.055387
-0.049064
-0.040371
-0.030511
-0.020071
-0.010299
-0.001577
0.006061
0.012349
0.017313
0.021082
0.023879
0.025985
0.027681
0.029189
0.030592
0.031810
0.032575
0.032409
0.030829
0.027407
0.021946
0.014597
0.006131
-0.002668
-0.011388
-0.020179
-0.029264
-0.038529
-0.047428
-0.055301
-0.061767
-0.066825
-0.070643
-0.073419
-0.075321
-0.076948
-0.079000
-0.081786
-0.085358
-0.090230
-0.096491
-0.103980
-0.112200
-0.121342
0.454975
0.452167
0.445570
0.435817
0.422865
0.406314
0.385582
0.360053
0.329178
0.292629
0.250490
0.203454
0.152953
0.101102
0.050337
0.002733
-0.040302
-0.077885
-0.109383
-0.134368
-0.152488
-0.163238
-0.166827
-0.163870
-0.155358
-0.142531
-0.126707
-0.109111
-0.090742
-0.072305
-0.054208
-0.036604
-0.019450
-0.002555
0.014339
0.030411
0.045045
0.057633
0.067460
0.073855
0.076331
0.074756
0.069540
0.061685
0.052207
0.041379
0.030607
0.019776
0.008341
-0.004379
-0.018734
-0.034137
-0.048577
-0.059045
-0.063333
-0.061586
-0.055628
-0.046192
-0.035479
-0.024774
-0.014099
-0.004307
0.004239
0.011362
0.017075
0.021517
0.024915
0.027547
0.029698
0.031602
0.033295
0.034692
0.035557
0.035228
0.033117
0.028818
0.022335
0.014336
0.005782
-0.002534
-0.010468
-0.018590
-0.027541
-0.037335
-0.047170
-0.055929
-0.062902
-0.068062
-0.071736
-0.074543
-0.076802
-0.078677
-0.080550
-0.083085
-0.086567
-0.091236
-0.097068
-0.103829
-0.110870
-0.116818
0.456227
0.450969
0.442209
0.430853
0.416689
0.399245
0.377961
0.352367
0.322089
0.286964
0.247160
0.203303
0.156542
0.108496
0.061031
0.015916
-0.025401
-0.061803
-0.092279
-0.116695
-0.134347
-0.145110
-0.149292
-0.147565
-0.140898
-0.130439
-0.117368
-0.102747
-0.087410
-0.071910
-0.056525
-0.041318
-0.026208
-0.010883
0.005418
0.021857
0.037653
0.051866
0.063567
0.071995
0.076623
0.077282
0.074390
0.069306
0.061695
0.053236
0.044110
0.034029
0.022367
0.008408
-0.008274
-0.027175
-0.046022
-0.060657
-0.067064
-0.064497
-0.057743
-0.049042
-0.038173
-0.026536
-0.015193
-0.004819
0.004225
0.011792
0.017903
0.022690
0.026369
0.029207
0.031508
0.033620
0.035444
0.036832
0.037328
0.036586
0.034007
0.029091
0.021821
0.012943
0.003758
-0.004599
-0.011940
-0.019110
-0.027168
-0.036424
-0.046170
-0.055200
-0.062591
-0.068130
-0.072185
-0.074993
-0.077089
-0.078982
-0.080998
-0.083542
-0.087005
-0.091644
-0.097443
-0.104066
-0.110976
-0.117169
0.467221
0.453127
0.441258
0.428513
0.413504
0.395444
0.373832
0.348217
0.318294
0.283956
0.245388
0.203155
0.158255
0.112078
0.066254
0.022415
-0.018017
-0.053953
-0.084708
-0.108993
-0.126516
-0.137333
-0.141810
-0.140630
-0.134736
-0.125225
-0.113209
-0.099682
-0.085419
-0.070925
-0.056447
-0.042032
-0.027614
-0.013094
0.001445
0.017666
0.034279
0.049601
0.062396
0.071811
0.077311
0.078712
0.076282
0.070413
0.063450
0.055689
0.047110
0.037383
0.025922
0.012103
-0.004371
-0.022963
-0.041659
-0.056824
-0.064780
-0.064901
-0.058047
-0.048464
-0.037493
-0.025937
-0.014653
-0.004285
0.004789
0.012413
0.018591
0.023441
0.027155
0.029978
0.032174
0.033911
0.035494
0.036639
0.036942
0.035964
0.033210
0.028290
0.021202
0.012550
0.003434
-0.005110
-0.012780
-0.020138
-0.028005
-0.036694
-0.045746
-0.054276
-0.061530
-0.067221
-0.071498
-0.074660
-0.077057
-0.079100
-0.081281
-0.084071
-0.087712
-0.092351
-0.097994
-0.104411
-0.111244
-0.118510
