# vtk DataFile Version 3.0
Scalar Field
ASCII
DATASET RECTILINEAR_GRID
DIMENSIONS 100 26 1
X_COORDINATES 100 double
0.050000 0.150000 0.250000 0.350000 0.450000 0.550000 0.650000 0.750000 0.850000 0.950000 1.050000 1.150000 1.250000 1.350000 1.450000 1.550000 1.650000 1.750000 1.850000 1.950000 2.050000 2.150000 2.250000 2.350000 2.450000 2.550000 2.650000 2.750000 2.850000 2.950000 3.050000 3.150000 3.250000 3.350000 3.450000 3.550000 3.650000 3.750000 3.850000 3.950000 4.050000 4.150000 4.250000 4.350000 4.450000 4.550000 4.650000 4.750000 4.850000 4.950000 5.050000 5.150000 5.250000 5.350000 5.450000 5.550000 5.650000 5.750000 5.850000 5.950000 6.050000 6.150000 6.250000 6.350000 6.450000 6.550000 6.650000 6.750000 6.850000 6.950000 7.050000 7.150000 7.250000 7.350000 7.450000 7.550000 7.650000 7.750000 7.850000 7.950000 8.050000 8.150000 8.250000 8.350000 8.450000 8.550000 8.650000 8.750000 8.850000 8.950000 9.050000 9.150000 9.250000 9.350000 9.450000 9.550000 9.650000 9.750000 9.850000 9.950000 
Y_COORDINATES 26 double
0.050000 0.150000 0.250000 0.350000 0.450000 0.550000 0.650000 0.750000 0.850000 0.950000 1.050000 1.150000 1.250000 1.350000 1.450000 1.550000 1.650000 1.750000 1.850000 1.950000 2.050000 2.150000 2.250000 2.350000 2.450000 2.550000 
Z_COORDINATES 1 double
0.0
POINT_DATA 2600
SCALARS Skalarfeld double 1
LOOKUP_TABLE default
0.263537
0.248154
0.232660
0.214038
0.191186
0.163666
0.131491
0.095119
0.055525
0.014215
-0.026892
-0.065772
-0.100640
-0.130227
-0.153518
-0.169992
-0.179866
-0.183669
-0.182160
-0.176235
-0.166846
-0.154938
-0.141404
-0.127056
-0.112613
-0.098696
-0.085812
-0.074326
-0.064427
-0.056105
-0.049167
-0.043338
-0.038387
-0.034231
-0.030971
-0.028853
-0.028167
-0.029125
-0.031734
-0.035702
-0.040394
-0.044819
-0.047607
-0.047158
-0.042566
-0.032935
-0.020805
-0.008325
0.003468
0.014133
0.023539
0.031681
0.038595
0.044317
0.048901
0.052384
0.054776
0.056057
0.055737
0.053421
0.048841
0.042098
0.033828
0.025137
0.017111
0.010252
0.004381
-0.000874
-0.005556
-0.009306
-0.011676
-0.012491
-0.011812
-0.009852
-0.007114
-0.003908
-0.000521
0.002763
0.005645
0.008053
0.009833
0.011030
0.011903
0.012805
0.014122
0.016158
0.019025
0.022671
0.027023
0.032072
0.037841
0.044334
0.051526
0.059375
0.067836
0.076949
0.086669
0.096995
0.107807
0.119402
0.254887
0.248309
0.235790
0.218315
0.195750
0.167914
0.134848
0.097017
0.055482
0.011966
-0.031266
-0.071870
-0.107853
-0.137747
-0.160886
-0.177121
-0.186471
-0.189518
-0.187081
-0.180115
-0.169630
-0.156629
-0.142064
-0.126801
-0.111615
-0.097178
-0.084044
-0.072608
-0.063056
-0.055326
-0.049108
-0.043990
-0.039636
-0.035909
-0.032902
-0.030881
-0.030177
-0.031044
-0.033527
-0.037370
-0.041969
-0.046332
-0.048961
-0.047853
-0.041315
-0.031561
-0.020136
-0.008200
0.003204
0.013587
0.022792
0.030809
0.037674
0.043434
0.048167
0.052043
0.055086
0.056584
0.056417
0.054196
0.049554
0.042600
0.034064
0.025222
0.017222
0.010448
0.004519
-0.001043
-0.006187
-0.010331
-0.012837
-0.013517
-0.012590
-0.010442
-0.007623
-0.004294
-0.000765
0.002679
0.005846
0.008380
0.010132
0.011183
0.011887
0.012599
0.013751
0.015670
0.018456
0.022032
0.026325
0.031342
0.037117
0.043650
0.050905
0.058848
0.067469
0.076696
0.086489
0.096944
0.107916
0.120091
0.258386
0.254157
0.243496
0.226982
0.204561
0.175984
0.141147
0.100409
0.054929
0.006851
-0.040746
-0.084815
-0.123067
-0.154116
-0.177388
-0.192950
-0.201014
-0.202264
-0.197645
-0.188231
-0.175163
-0.159590
-0.142621
-0.125283
-0.108510
-0.093126
-0.079822
-0.069058
-0.060981
-0.055355
-0.051486
-0.048555
-0.045933
-0.043332
-0.040810
-0.038672
-0.037321
-0.037095
-0.038128
-0.040240
-0.042876
-0.045062
-0.045447
-0.042681
-0.036192
-0.026739
-0.016093
-0.005523
0.004701
0.014090
0.022480
0.029841
0.036192
0.041568
0.046029
0.049648
0.052426
0.054260
0.054502
0.052553
0.048392
0.042218
0.034548
0.026392
0.018571
0.011419
0.004797
-0.001427
-0.006974
-0.011206
-0.013563
-0.013929
-0.012816
-0.010906
-0.008325
-0.004951
-0.001362
0.002136
0.005295
0.007855
0.009719
0.010956
0.011719
0.012405
0.013413
0.015048
0.017473
0.020725
0.024819
0.029772
0.035592
0.042248
0.049687
0.057845
0.066683
0.076216
0.086594
0.097750
0.109343
0.122018
0.269720
0.266245
0.256579
0.240699
0.218194
0.188431
0.150868
0.105522
0.053572
-0.002193
-0.056916
-0.106260
-0.147621
-0.179899
-0.202936
-0.217123
-0.223002
-0.221405
-0.213435
-0.200316
-0.183365
-0.163933
-0.143346
-0.122852
-0.103594
-0.086614
-0.072888
-0.063087
-0.057271
-0.054807
-0.054711
-0.055282
-0.055369
-0.054477
-0.052635
-0.050221
-0.047757
-0.045703
-0.044313
-0.043539
-0.042985
-0.041936
-0.039501
-0.034947
-0.028100
-0.019494
-0.010055
-0.000519
0.008359
0.016468
0.023700
0.030018
0.035426
0.039947
0.043635
0.046562
0.048763
0.050138
0.050361
0.049116
0.045888
0.040605
0.033677
0.026152
0.018544
0.011315
0.004588
-0.001529
-0.006731
-0.010590
-0.012827
-0.013474
-0.012775
-0.010931
-0.008016
-0.004810
-0.001484
0.001836
0.004896
0.007383
0.009190
0.010343
0.011014
0.011529
0.012253
0.013516
0.015534
0.018459
0.022370
0.027269
0.033149
0.039967
0.047642
0.056109
0.065350
0.075429
0.086501
0.098701
0.112066
0.130585
0.287461
0.284369
0.275441
0.260188
0.237657
0.206510
0.165316
0.113231
0.051152
-0.017393
-0.083221
-0.139770
-0.184580
-0.217540
-0.239361
-0.251009
-0.253413
-0.247654
-0.234937
-0.216646
-0.194314
-0.169554
-0.143969
-0.119073
-0.096241
-0.076727
-0.062144
-0.053605
-0.051177
-0.053680
-0.058847
-0.064403
-0.068048
-0.069143
-0.067828
-0.064725
-0.060608
-0.056151
-0.051784
-0.047632
-0.043523
-0.039058
-0.033766
-0.027324
-0.019740
-0.011380
-0.002791
0.005525
0.013198
0.020075
0.026121
0.031259
0.035516
0.038919
0.041562
0.043559
0.045026
0.045921
0.045978
0.044812
0.042021
0.037396
0.031262
0.024155
0.016543
0.009383
0.002898
-0.002717
-0.007228
-0.010411
-0.012159
-0.012527
-0.011678
-0.009821
-0.007190
-0.004128
-0.000798
0.002429
0.005253
0.007501
0.009077
0.009942
0.010248
0.010315
0.010517
0.011194
0.012637
0.015078
0.018704
0.023425
0.029256
0.036140
0.043981
0.052702
0.062290
0.072847
0.084622
0.098017
0.113635
0.140578
0.310889
0.308188
0.300213
0.286074
0.264157
0.232044
0.186687
0.125265
0.047364
-0.043458
-0.126111
-0.191044
-0.238137
-0.269990
-0.288799
-0.296120
-0.293519
-0.282069
-0.262957
-0.237728
-0.208200
-0.176331
-0.144091
-0.113326
-0.085653
-0.062409
-0.046209
-0.039192
-0.041604
-0.051500
-0.065030
-0.077428
-0.085455
-0.088513
-0.087142
-0.082541
-0.075982
-0.068487
-0.060719
-0.052991
-0.045330
-0.037589
-0.029581
-0.021220
-0.012604
-0.004006
0.004228
0.011791
0.018463
0.024116
0.028747
0.032593
0.035544
0.037642
0.039094
0.040009
0.040664
0.041105
0.041078
0.040126
0.037754
0.033639
0.027838
0.020571
0.013061
0.005847
-0.000477
-0.005634
-0.009427
-0.011784
-0.012735
-0.012414
-0.011023
-0.008796
-0.005980
-0.002835
0.000405
0.003473
0.006121
0.008167
0.009403
0.009814
0.009540
0.008869
0.008211
0.007993
0.008582
0.010257
0.013218
0.017539
0.023174
0.030025
0.037954
0.046849
0.056684
0.067580
0.079858
0.094121
0.111387
0.143014
0.339269
0.337147
0.330725
0.318791
0.299031
0.267589
0.218701
0.145215
0.041976
-0.090859
-0.196901
-0.267217
-0.311613
-0.338621
-0.351921
-0.353027
-0.344156
-0.325558
-0.298323
-0.264222
-0.225464
-0.184489
-0.143772
-0.105623
-0.071977
-0.044136
-0.024788
-0.018878
-0.027005
-0.046320
-0.071171
-0.094254
-0.108002
-0.112823
-0.110574
-0.103505
-0.093675
-0.082580
-0.071137
-0.059809
-0.048761
-0.037996
-0.027485
-0.017260
-0.007456
0.001708
0.009995
0.017207
0.023203
0.027876
0.031133
0.032898
0.033546
0.033737
0.033869
0.033467
0.033244
0.033408
0.033658
0.033388
0.031938
0.028805
0.023800
0.017113
0.009441
0.001698
-0.004747
-0.009811
-0.013167
-0.014847
-0.014997
-0.013851
-0.011691
-0.008813
-0.005504
-0.002027
0.001381
0.004484
0.007046
0.008833
0.009646
0.009424
0.008296
0.006583
0.004749
0.003309
0.002736
0.003392
0.005479
0.009246
0.014616
0.021392
0.029364
0.038362
0.048326
0.059358
0.071791
0.086277
0.103930
0.135391
0.371519
0.370265
0.366296
0.358266
0.343387
0.316352
0.267539
0.181023
0.035059
-0.183649
-0.312035
-0.370868
-0.400612
-0.417742
-0.424125
-0.419433
-0.404236
-0.377799
-0.341249
-0.296754
-0.247083
-0.195330
-0.144667
-0.098085
-0.058125
-0.026763
-0.002632
0.003910
-0.008485
-0.035735
-0.070856
-0.105238
-0.130336
-0.137575
-0.134303
-0.124564
-0.111432
-0.096903
-0.082110
-0.067616
-0.053657
-0.040319
-0.027655
-0.015759
-0.004782
0.005082
0.013644
0.020736
0.026195
0.029821
0.031423
0.030975
0.028853
0.025737
0.022725
0.020992
0.020449
0.021078
0.022331
0.023424
0.023559
0.022084
0.018627
0.013194
0.006238
-0.001421
-0.008822
-0.014140
-0.017451
-0.018849
-0.018503
-0.016714
-0.013852
-0.010295
-0.006399
-0.002471
0.001219
0.004425
0.006896
0.008382
0.008674
0.007689
0.005547
0.002600
-0.000612
-0.003452
-0.005314
-0.005739
-0.004492
-0.001223
0.003909
0.010611
0.018587
0.027598
0.037526
0.048424
0.060572
0.074547
0.091314
0.119630
0.406022
0.405944
0.405415
0.403326
0.397114
0.381066
0.342231
0.250982
0.032972
-0.379344
-0.483445
-0.483063
-0.481397
-0.487016
-0.491565
-0.486262
-0.467360
-0.434501
-0.389443
-0.335003
-0.274655
-0.212301
-0.152021
-0.097685
-0.052466
-0.018659
0.002779
0.011736
-0.001226
-0.029464
-0.066064
-0.103589
-0.134512
-0.151900
-0.149423
-0.138847
-0.124164
-0.107841
-0.091178
-0.074807
-0.059025
-0.043993
-0.029847
-0.016748
-0.004893
0.005508
0.014237
0.021045
0.025583
0.027417
0.026272
0.022396
0.016740
0.010701
0.005581
0.002929
0.002950
0.004896
0.007868
0.010914
0.013140
0.013808
0.012426
0.008835
0.003281
-0.003582
-0.010778
-0.017135
-0.020993
-0.022583
-0.022228
-0.020220
-0.016987
-0.012988
-0.008658
-0.004379
-0.000474
0.002769
0.005076
0.006178
0.005855
0.004012
0.000775
-0.003460
-0.008058
-0.012255
-0.015320
-0.016709
-0.016149
-0.013256
-0.008304
-0.001671
0.006258
0.015162
0.024849
0.035296
0.046690
0.059465
0.074336
0.097983
0.440599
0.441897
0.445495
0.450972
0.457099
0.460322
0.450066
0.392297
0.137113
-0.733315
-0.677323
-0.547870
-0.516000
-0.515586
-0.530180
-0.533744
-0.516588
-0.482483
-0.434065
-0.374718
-0.308593
-0.240507
-0.175746
-0.119412
-0.074758
-0.042755
-0.023327
-0.018911
-0.026392
-0.044894
-0.070798
-0.099307
-0.124878
-0.142270
-0.148555
-0.140091
-0.126767
-0.111321
-0.095154
-0.078936
-0.063023
-0.047675
-0.033146
-0.019712
-0.007674
0.002655
0.010925
0.016682
0.019321
0.018267
0.013438
0.005695
-0.003184
-0.011159
-0.016742
-0.018578
-0.016944
-0.012949
-0.007738
-0.002385
0.002168
0.005160
0.006048
0.004570
0.000810
-0.004751
-0.011258
-0.017594
-0.022619
-0.024918
-0.025050
-0.023328
-0.020191
-0.016153
-0.011723
-0.007357
-0.003447
-0.000333
0.001675
0.002285
0.001265
-0.001481
-0.005806
-0.011260
-0.017117
-0.022504
-0.026599
-0.028798
-0.028742
-0.026124
-0.021304
-0.014746
-0.006933
0.001721
0.010937
0.020599
0.030782
0.041756
0.053983
0.072142
0.472716
0.475348
0.483000
0.496159
0.515624
0.542309
0.576343
0.612799
0.686810
-0.023253
-0.603204
-0.529085
-0.515901
-0.514067
-0.526491
-0.542133
-0.530789
-0.502498
-0.459101
-0.404355
-0.343056
-0.280705
-0.222877
-0.175119
-0.139575
-0.114826
-0.099117
-0.089078
-0.083688
-0.084419
-0.090915
-0.101487
-0.113299
-0.122947
-0.127692
-0.126525
-0.117223
-0.105014
-0.091624
-0.077673
-0.063516
-0.049488
-0.035976
-0.023412
-0.012253
-0.002984
0.003838
0.007509
0.007241
0.002538
-0.006177
-0.017229
-0.028146
-0.036638
-0.041301
-0.041022
-0.036936
-0.030339
-0.022538
-0.014699
-0.007779
-0.002519
0.000557
0.001153
-0.000744
-0.004805
-0.010330
-0.016327
-0.021724
-0.025289
-0.026165
-0.025142
-0.022552
-0.018907
-0.014763
-0.010641
-0.006995
-0.004222
-0.002673
-0.002664
-0.004441
-0.008093
-0.013448
-0.020000
-0.026950
-0.033352
-0.038318
-0.041201
-0.041500
-0.039088
-0.034375
-0.027922
-0.020317
-0.012076
-0.003575
0.004971
0.013519
0.022184
0.031210
0.043365
0.499921
0.503552
0.514225
0.533048
0.562165
0.605350
0.669239
0.765258
0.900723
0.938134
0.000000
-0.520572
-0.512059
-0.504002
-0.506246
-0.511638
-0.507516
-0.486464
-0.452522
-0.410120
-0.364485
-0.321335
-0.285489
-0.257729
-0.235758
-0.217739
-0.199978
-0.178288
-0.155538
-0.135660
-0.120247
-0.109946
-0.104337
-0.101979
-0.100897
-0.099302
-0.095966
-0.088806
-0.079627
-0.069532
-0.058709
-0.047508
-0.036416
-0.026010
-0.016918
-0.009822
-0.005509
-0.004905
-0.008851
-0.017523
-0.029802
-0.043273
-0.055097
-0.063093
-0.065514
-0.062413
-0.055313
-0.045736
-0.035137
-0.024753
-0.015542
-0.008197
-0.003180
-0.000753
-0.000962
-0.003575
-0.008034
-0.013470
-0.018846
-0.023166
-0.025173
-0.025139
-0.023419
-0.020510
-0.016983
-0.013401
-0.010269
-0.008032
-0.007083
-0.007766
-0.010337
-0.014877
-0.021186
-0.028716
-0.036619
-0.043897
-0.049614
-0.053085
-0.053655
-0.051405
-0.046814
-0.040538
-0.033270
-0.025629
-0.018095
-0.010982
-0.004444
0.001493
0.006898
0.012676
0.520382
0.524480
0.536505
0.557618
0.589919
0.636604
0.701603
0.786515
0.884392
0.975544
0.895513
0.000000
-0.498722
-0.485385
-0.471150
-0.462360
-0.455611
-0.439330
-0.416507
-0.392342
-0.372045
-0.359012
-0.353327
-0.350246
-0.340891
-0.326519
-0.298480
-0.261903
-0.221664
-0.182498
-0.147441
-0.118427
-0.096443
-0.081483
-0.072554
-0.067925
-0.065573
-0.063623
-0.059452
-0.054037
-0.047512
-0.040187
-0.032593
-0.025414
-0.019420
-0.015487
-0.014631
-0.017935
-0.026132
-0.038888
-0.054350
-0.069549
-0.081496
-0.088168
-0.087581
-0.081222
-0.070806
-0.058099
-0.044688
-0.031854
-0.020540
-0.011373
-0.004733
-0.000809
0.000376
-0.000996
-0.004469
-0.009294
-0.014510
-0.019126
-0.022316
-0.023238
-0.022512
-0.020523
-0.017817
-0.014968
-0.012518
-0.010950
-0.010695
-0.012122
-0.015497
-0.020891
-0.028079
-0.036485
-0.045230
-0.053279
-0.059654
-0.063633
-0.064419
-0.062344
-0.057952
-0.051985
-0.045234
-0.038416
-0.032106
-0.026714
-0.022499
-0.019608
-0.018118
-0.018985
0.533246
0.537258
0.548950
0.569137
0.599102
0.640358
0.694188
0.760239
0.826790
0.851309
0.815481
0.702883
0.000000
-0.458030
-0.430675
-0.409250
-0.395052
-0.380151
-0.367349
-0.362422
-0.369525
-0.388152
-0.412795
-0.433745
-0.439797
-0.417158
-0.375450
-0.323719
-0.267798
-0.212894
-0.162746
-0.119784
-0.085416
-0.060181
-0.043758
-0.034917
-0.031643
-0.031550
-0.032439
-0.031567
-0.029561
-0.026534
-0.022997
-0.019687
-0.017502
-0.017506
-0.020917
-0.028872
-0.041808
-0.058751
-0.077168
-0.093702
-0.105317
-0.110011
-0.105935
-0.096084
-0.082368
-0.066705
-0.050754
-0.035798
-0.022729
-0.012096
-0.004189
0.000886
0.003151
0.002778
0.000146
-0.004102
-0.009093
-0.013883
-0.017656
-0.019590
-0.019858
-0.018818
-0.016986
-0.014938
-0.013233
-0.012383
-0.012850
-0.015025
-0.019178
-0.025371
-0.033359
-0.042545
-0.052028
-0.060751
-0.067696
-0.072094
-0.073079
-0.071257
-0.067216
-0.061765
-0.055769
-0.050027
-0.045194
-0.041766
-0.040098
-0.040447
-0.043017
-0.050652
0.538671
0.542167
0.552267
0.569409
0.594208
0.627033
0.666867
0.708820
0.740026
0.733939
0.673347
0.590286
0.427855
0.000000
-0.393186
-0.355697
-0.342094
-0.326445
-0.319604
-0.329274
-0.358500
-0.404904
-0.457059
-0.495889
-0.504983
-0.471910
-0.419693
-0.356427
-0.289156
-0.223551
-0.163612
-0.111841
-0.069600
-0.037423
-0.015181
-0.002082
0.003406
0.003465
0.000465
-0.003011
-0.005134
-0.006229
-0.006767
-0.007548
-0.009587
-0.014123
-0.022499
-0.035726
-0.053756
-0.074912
-0.096078
-0.113656
-0.124774
-0.125973
-0.118694
-0.105689
-0.089158
-0.071130
-0.053264
-0.036787
-0.022506
-0.010877
-0.002100
0.003793
0.006872
0.007300
0.005399
0.001711
-0.002989
-0.007815
-0.011971
-0.014625
-0.015714
-0.015508
-0.014476
-0.013179
-0.012181
-0.012017
-0.013170
-0.016046
-0.020916
-0.027827
-0.036515
-0.046367
-0.056473
-0.065761
-0.073184
-0.077881
-0.079102
-0.077689
-0.074230
-0.069567
-0.064612
-0.060212
-0.057082
-0.055785
-0.056763
-0.060377
-0.066961
-0.081255
0.537619
0.540379
0.548273
0.561349
0.579454
0.601786
0.625909
0.646136
0.651426
0.623947
0.546185
0.409445
0.265424
-0.143400
-0.383704
-0.327983
-0.305468
-0.282436
-0.277093
-0.297933
-0.344812
-0.410300
-0.478119
-0.525122
-0.522766
-0.486200
-0.428699
-0.359981
-0.287773
-0.217818
-0.153965
-0.098485
-0.052494
-0.016364
0.009996
0.027068
0.035823
0.037827
0.035175
0.030067
0.024400
0.019887
0.015690
0.010906
0.004434
-0.005057
-0.018860
-0.037642
-0.060725
-0.085764
-0.109188
-0.127194
-0.136663
-0.134443
-0.124487
-0.109158
-0.090789
-0.071404
-0.052580
-0.035429
-0.020643
-0.008580
0.000640
0.007042
0.010725
0.011842
0.010650
0.007589
0.003324
-0.001327
-0.005559
-0.008750
-0.010421
-0.010853
-0.010461
-0.009784
-0.009387
-0.009818
-0.011574
-0.015067
-0.020560
-0.028079
-0.037341
-0.047719
-0.058303
-0.068031
-0.075906
-0.080522
-0.082249
-0.081498
-0.078913
-0.075353
-0.071737
-0.068925
-0.067656
-0.068538
-0.072088
-0.078774
-0.089071
-0.109569
0.531448
0.533353
0.538711
0.547269
0.558389
0.570638
0.581095
0.584375
0.571546
0.529326
0.440517
0.282085
0.005957
-0.552223
-0.439424
-0.327350
-0.279234
-0.253017
-0.253355
-0.282511
-0.336868
-0.406780
-0.474857
-0.511318
-0.501448
-0.463329
-0.406234
-0.339073
-0.269033
-0.201337
-0.139385
-0.085101
-0.039328
-0.002214
0.026430
0.046896
0.059602
0.065352
0.065461
0.061562
0.055142
0.048858
0.041874
0.033464
0.022632
0.008163
-0.010961
-0.034877
-0.062259
-0.090231
-0.114973
-0.132825
-0.138937
-0.134309
-0.122704
-0.106387
-0.087589
-0.068181
-0.049573
-0.032725
-0.018205
-0.006285
0.002968
0.009611
0.013748
0.015509
0.015085
0.012807
0.009211
0.005009
0.000957
-0.002348
-0.004365
-0.005207
-0.005259
-0.005036
-0.005101
-0.006008
-0.008261
-0.012267
-0.018269
-0.026266
-0.035950
-0.046688
-0.057575
-0.067551
-0.075553
-0.080415
-0.082785
-0.082948
-0.081541
-0.079392
-0.077381
-0.076332
-0.076968
-0.079917
-0.085753
-0.095050
-0.108441
-0.134201
0.521736
0.522789
0.525662
0.529939
0.534751
0.538470
0.538263
0.529544
0.505425
0.456314
0.369611
0.229100
0.015144
-0.251109
-0.294546
-0.272387
-0.251295
-0.241574
-0.250329
-0.281095
-0.331617
-0.391742
-0.442734
-0.459643
-0.447646
-0.412539
-0.361699
-0.302294
-0.240244
-0.179914
-0.124193
-0.074739
-0.032291
0.003042
0.031521
0.053538
0.069415
0.079357
0.083778
0.083626
0.080934
0.075283
0.066898
0.055740
0.041251
0.022581
-0.000807
-0.028455
-0.058490
-0.087697
-0.112114
-0.127925
-0.130810
-0.125429
-0.113863
-0.098303
-0.080735
-0.062764
-0.045576
-0.029964
-0.016396
-0.005097
0.003879
0.010575
0.015076
0.017476
0.017905
0.016594
0.013944
0.010537
0.007030
0.003986
0.001965
0.000975
0.000689
0.000626
0.000237
-0.001031
-0.003677
-0.008091
-0.014483
-0.022814
-0.032754
-0.043671
-0.054691
-0.064815
-0.072717
-0.078093
-0.081310
-0.082649
-0.082703
-0.082225
-0.082000
-0.082770
-0.085204
-0.089916
-0.097516
-0.108674
-0.124185
-0.153651
0.510061
0.510347
0.511016
0.511607
0.511218
0.508308
0.500433
0.483978
0.453971
0.404097
0.327093
0.216203
0.070851
-0.085224
-0.165076
-0.195018
-0.207292
-0.218568
-0.237954
-0.269184
-0.310334
-0.352945
-0.381213
-0.390001
-0.378640
-0.349954
-0.308792
-0.260306
-0.209008
-0.158386
-0.110861
-0.067917
-0.030303
0.001764
0.028416
0.049956
0.066717
0.078984
0.087004
0.092599
0.095419
0.092324
0.084365
0.072242
0.055890
0.034949
0.009458
-0.019563
-0.049862
-0.078140
-0.100665
-0.111864
-0.114126
-0.109525
-0.099845
-0.086865
-0.072141
-0.056925
-0.042153
-0.028476
-0.016310
-0.005890
0.002678
0.009376
0.014231
0.017289
0.018629
0.018405
0.016911
0.014596
0.012005
0.009632
0.007997
0.007131
0.006813
0.006619
0.006026
0.004494
0.001541
-0.003188
-0.009854
-0.018375
-0.028394
-0.039295
-0.050259
-0.060246
-0.068255
-0.074401
-0.078704
-0.081465
-0.083203
-0.084549
-0.086155
-0.088642
-0.092592
-0.098575
-0.107209
-0.119225
-0.135551
-0.166474
0.497845
0.497481
0.496315
0.493923
0.489505
0.481751
0.468717
0.447730
0.415414
0.367943
0.301716
0.214905
0.110952
0.004086
-0.073851
-0.123259
-0.155816
-0.181938
-0.208519
-0.238507
-0.270566
-0.299043
-0.317050
-0.322120
-0.312969
-0.291053
-0.259390
-0.221492
-0.180649
-0.139561
-0.100214
-0.063918
-0.031416
-0.003012
0.021296
0.041707
0.058514
0.072045
0.083018
0.091710
0.096355
0.095986
0.090475
0.079873
0.064231
0.043712
0.018947
-0.008584
-0.036444
-0.061514
-0.079269
-0.088491
-0.091566
-0.089489
-0.083467
-0.074646
-0.064033
-0.052487
-0.040719
-0.029293
-0.018638
-0.009070
-0.000805
0.006018
0.011327
0.015100
0.017379
0.018267
0.017986
0.016888
0.015418
0.014143
0.013160
0.012649
0.012478
0.012286
0.011583
0.009856
0.006655
0.001682
-0.005158
-0.013723
-0.023634
-0.034310
-0.045018
-0.054822
-0.063356
-0.070407
-0.075994
-0.080350
-0.083871
-0.087032
-0.090328
-0.094243
-0.099259
-0.105884
-0.114713
-0.126470
-0.142103
-0.171594
0.486290
0.485389
0.482732
0.478007
0.470581
0.459435
0.443110
0.419726
0.387098
0.343044
0.285991
0.216021
0.136516
0.055688
-0.013178
-0.066579
-0.107725
-0.141490
-0.171823
-0.200586
-0.227136
-0.248598
-0.262087
-0.265760
-0.258954
-0.242559
-0.218522
-0.189253
-0.157136
-0.124224
-0.092103
-0.061870
-0.034184
-0.009356
0.012559
0.031680
0.048218
0.062412
0.074797
0.084411
0.090490
0.092261
0.089266
0.081261
0.068218
0.050484
0.029010
0.005491
-0.017705
-0.037443
-0.051658
-0.061259
-0.066755
-0.068750
-0.067747
-0.064140
-0.058332
-0.050812
-0.042130
-0.032832
-0.023435
-0.014404
-0.006127
0.001099
0.007066
0.011645
0.014899
0.016865
0.017795
0.017981
0.017760
0.017377
0.017109
0.017080
0.017174
0.017064
0.016297
0.014396
0.010965
0.005781
-0.001150
-0.009613
-0.019215
-0.029492
-0.039891
-0.049842
-0.059003
-0.067130
-0.074136
-0.080120
-0.085324
-0.090061
-0.094680
-0.099545
-0.105063
-0.111666
-0.119917
-0.130445
-0.143983
-0.168789
0.476394
0.475020
0.471118
0.464551
0.454898
0.441418
0.423065
0.398559
0.366532
0.325800
0.275798
0.217196
0.152613
0.086945
0.026621
-0.025152
-0.068522
-0.105236
-0.137107
-0.165079
-0.188863
-0.207237
-0.218622
-0.221979
-0.217139
-0.204815
-0.186411
-0.163678
-0.138394
-0.112130
-0.086117
-0.061211
-0.037915
-0.016447
0.003170
0.021026
0.037234
0.051858
0.064767
0.075268
0.082764
0.086582
0.086180
0.081231
0.071717
0.058082
0.041355
0.023150
0.005515
-0.010192
-0.023460
-0.034391
-0.043294
-0.050266
-0.055016
-0.057058
-0.056128
-0.052403
-0.046381
-0.038683
-0.029990
-0.020974
-0.012260
-0.004306
0.002575
0.008193
0.012478
0.015535
0.017488
0.018612
0.019231
0.019622
0.019997
0.020422
0.020769
0.020718
0.019844
0.017708
0.013988
0.008567
0.001599
-0.006621
-0.015795
-0.025651
-0.035780
-0.046004
-0.055995
-0.065346
-0.073760
-0.081166
-0.087676
-0.093485
-0.098838
-0.104039
-0.109518
-0.115551
-0.122714
-0.131491
-0.142181
-0.159360
0.469039
0.467144
0.462055
0.453930
0.442570
0.427461
0.407862
0.382909
0.351758
0.313797
0.268930
0.217928
0.162724
0.106411
0.052626
0.003841
-0.039086
-0.076375
-0.108564
-0.135943
-0.158308
-0.175183
-0.185497
-0.188888
-0.185497
-0.176029
-0.161637
-0.143717
-0.123673
-0.102734
-0.081839
-0.061595
-0.042295
-0.023988
-0.006562
0.010146
0.026198
0.041307
0.054912
0.066560
0.075677
0.081637
0.083894
0.082108
0.076290
0.066931
0.054992
0.041749
0.027889
0.014528
0.001732
-0.010810
-0.023358
-0.035589
-0.046329
-0.053962
-0.057400
-0.056650
-0.052418
-0.045472
-0.036786
-0.027215
-0.017614
-0.008823
-0.001058
0.005495
0.010685
0.014575
0.017331
0.019212
0.020517
0.021509
0.022355
0.023087
0.023567
0.023445
0.022315
0.019773
0.015592
0.009781
0.002602
-0.005460
-0.014068
-0.023201
-0.033090
-0.043735
-0.054701
-0.065271
-0.074830
-0.083143
-0.090302
-0.096506
-0.101955
-0.106787
-0.111869
-0.117468
-0.123667
-0.130653
-0.138432
-0.147547
0.465198
0.462412
0.455889
0.446262
0.433496
0.417197
0.396796
0.371691
0.341354
0.305484
0.264190
0.218191
0.168937
0.118537
0.069371
0.023372
-0.018315
-0.055201
-0.087121
-0.113926
-0.135435
-0.151321
-0.160993
-0.164434
-0.162004
-0.154459
-0.142861
-0.128421
-0.112320
-0.095555
-0.078833
-0.062543
-0.046779
-0.031404
-0.016104
-0.000464
0.015796
0.031508
0.046250
0.059416
0.070349
0.078418
0.083083
0.084015
0.081257
0.075371
0.067274
0.057281
0.046210
0.034640
0.022183
0.008226
-0.007623
-0.024832
-0.041365
-0.054120
-0.060807
-0.061528
-0.057980
-0.050863
-0.041336
-0.031421
-0.021386
-0.011716
-0.003083
0.004221
0.010091
0.014589
0.017897
0.020279
0.022039
0.023434
0.024573
0.025462
0.025974
0.025616
0.023957
0.020608
0.015431
0.008751
0.001265
-0.006421
-0.014208
-0.022525
-0.032008
-0.042878
-0.054598
-0.066086
-0.076327
-0.084883
-0.091893
-0.097757
-0.103148
-0.108207
-0.112887
-0.117789
-0.123183
-0.129112
-0.135213
-0.139866
0.466552
0.461317
0.452632
0.441405
0.427423
0.410235
0.389280
0.364108
0.334367
0.299914
0.260939
0.218081
0.172481
0.125718
0.079569
0.035647
-0.004839
-0.041095
-0.072574
-0.098767
-0.119796
-0.135006
-0.144271
-0.147761
-0.145964
-0.139675
-0.129912
-0.117783
-0.104331
-0.090401
-0.076554
-0.063040
-0.049842
-0.036753
-0.023398
-0.009017
0.007055
0.023574
0.039802
0.054706
0.067429
0.077291
0.083759
0.086508
0.085604
0.081864
0.075736
0.067623
0.058443
0.048022
0.035812
0.021070
0.003246
-0.017264
-0.038123
-0.054982
-0.063762
-0.063795
-0.059224
-0.052527
-0.043686
-0.033115
-0.022380
-0.012232
-0.003190
0.004471
0.010662
0.015443
0.018988
0.021561
0.023495
0.025108
0.026384
0.027259
0.027421
0.026635
0.024414
0.020360
0.014369
0.006885
-0.001177
-0.008952
-0.016253
-0.023720
-0.032326
-0.042567
-0.054037
-0.065634
-0.076209
-0.085128
-0.092415
-0.098453
-0.103459
-0.108170
-0.112743
-0.117446
-0.122492
-0.128053
-0.133942
-0.138971
0.477598
0.463528
0.451736
0.439123
0.424309
0.406496
0.385210
0.360013
0.330620
0.296948
0.259198
0.217940
0.174154
0.129174
0.084526
0.041683
0.001866
-0.034047
-0.065502
-0.092154
-0.113029
-0.128041
-0.137210
-0.140787
-0.139303
-0.133557
-0.124532
-0.113280
-0.100781
-0.087820
-0.074911
-0.062267
-0.049846
-0.037431
-0.024715
-0.011381
0.002954
0.019868
0.037167
0.053218
0.066945
0.077627
0.084761
0.088045
0.087471
0.083336
0.076948
0.069469
0.060868
0.050879
0.038962
0.024465
0.006972
-0.013095
-0.033703
-0.051043
-0.061272
-0.063609
-0.059305
-0.051835
-0.042715
-0.032376
-0.021777
-0.011707
-0.002695
0.004967
0.011181
0.015991
0.019553
0.022106
0.023932
0.025276
0.026393
0.027097
0.027103
0.026091
0.023669
0.019513
0.013561
0.006189
-0.001839
-0.009761
-0.017337
-0.025015
-0.033545
-0.043345
-0.054145
-0.065121
-0.075355
-0.084263
-0.091736
-0.098000
-0.103312
-0.108052
-0.112658
-0.117439
-0.122590
-0.128088
-0.133893
-0.140049
