# vtk DataFile Version 3.0
Vector Field
ASCII
DATASET RECTILINEAR_GRID
DIMENSIONS 100 26 1
X_COORDINATES 100 double
0.050000 0.150000 0.250000 0.350000 0.450000 0.550000 0.650000 0.750000 0.850000 0.950000 1.050000 1.150000 1.250000 1.350000 1.450000 1.550000 1.650000 1.750000 1.850000 1.950000 2.050000 2.150000 2.250000 2.350000 2.450000 2.550000 2.650000 2.750000 2.850000 2.950000 3.050000 3.150000 3.250000 3.350000 3.450000 3.550000 3.650000 3.750000 3.850000 3.950000 4.050000 4.150000 4.250000 4.350000 4.450000 4.550000 4.650000 4.750000 4.850000 4.950000 5.050000 5.150000 5.250000 5.350000 5.450000 5.550000 5.650000 5.750000 5.850000 5.950000 6.050000 6.150000 6.250000 6.350000 6.450000 6.550000 6.650000 6.750000 6.850000 6.950000 7.050000 7.150000 7.250000 7.350000 7.450000 7.550000 7.650000 7.750000 7.850000 7.950000 8.050000 8.150000 8.250000 8.350000 8.450000 8.550000 8.650000 8.750000 8.850000 8.950000 9.050000 9.150000 9.250000 9.350000 9.450000 9.550000 9.650000 9.750000 9.850000 9.950000 
Y_COORDINATES 26 double
0.050000 0.150000 0.250000 0.350000 0.450000 0.550000 0.650000 0.750000 0.850000 0.950000 1.050000 1.150000 1.250000 1.350000 1.450000 1.550000 1.650000 1.750000 1.850000 1.950000 2.050000 2.150000 2.250000 2.350000 2.450000 2.550000 
Z_COORDINATES 1 double
0.0
POINT_DATA 2600
VECTORS Vektorfeld double
0.997670 0.002330 0.0
0.992876 0.002463 0.0
0.989344 0.001069 0.0
0.989234 -0.000958 0.0
0.993414 -0.003221 0.0
1.002096 -0.005461 0.0
1.014990 -0.007433 0.0
1.031318 -0.008894 0.0
1.049845 -0.009633 0.0
1.069010 -0.009532 0.0
1.087174 -0.008633 0.0
1.102924 -0.007117 0.0
1.115277 -0.005236 0.0
1.123756 -0.003242 0.0
1.128345 -0.001347 0.0
1.129415 0.000277 0.0
1.127580 0.001558 0.0
1.123483 0.002540 0.0
1.117645 0.003299 0.0
1.110395 0.003952 0.0
1.101787 0.004656 0.0
1.091539 0.005592 0.0
1.079031 0.006916 0.0
1.063395 0.008721 0.0
1.043672 0.011002 0.0
1.019008 0.013662 0.0
0.988811 0.016534 0.0
0.952863 0.019413 0.0
0.911363 0.022087 0.0
0.864914 0.024362 0.0
0.814481 0.026071 0.0
0.761333 0.027077 0.0
0.706981 0.027276 0.0
0.653111 0.026594 0.0
0.601523 0.024995 0.0
0.554044 0.022484 0.0
0.512449 0.019111 0.0
0.478465 0.014873 0.0
0.454082 0.009510 0.0
0.441772 0.002800 0.0
0.442345 -0.003373 0.0
0.452941 -0.007223 0.0
0.469282 -0.009117 0.0
0.488061 -0.009662 0.0
0.507033 -0.009310 0.0
0.524654 -0.008310 0.0
0.539770 -0.006806 0.0
0.551520 -0.004943 0.0
0.559391 -0.002928 0.0
0.563241 -0.000922 0.0
0.562579 0.001585 0.0
0.556062 0.004932 0.0
0.542369 0.008761 0.0
0.520942 0.012666 0.0
0.492141 0.016136 0.0
0.457579 0.018426 0.0
0.420510 0.018643 0.0
0.385589 0.016279 0.0
0.357402 0.011908 0.0
0.338389 0.007105 0.0
0.327912 0.003372 0.0
0.323387 0.001153 0.0
0.322263 -0.000029 0.0
0.323065 -0.000773 0.0
0.325282 -0.001443 0.0
0.328747 -0.002023 0.0
0.333057 -0.002287 0.0
0.337637 -0.002292 0.0
0.342027 -0.002098 0.0
0.345867 -0.001742 0.0
0.348868 -0.001259 0.0
0.350799 -0.000672 0.0
0.351406 0.000065 0.0
0.350241 0.001100 0.0
0.346930 0.002210 0.0
0.341652 0.003069 0.0
0.335097 0.003486 0.0
0.328237 0.003373 0.0
0.322116 0.002748 0.0
0.317660 0.001708 0.0
0.315537 0.000415 0.0
0.315721 -0.000599 0.0
0.317333 -0.001013 0.0
0.319351 -0.001006 0.0
0.321125 -0.000768 0.0
0.322306 -0.000414 0.0
0.322720 -0.000000 0.0
0.322295 0.000425 0.0
0.321157 0.000713 0.0
0.319651 0.000793 0.0
0.318192 0.000667 0.0
0.317187 0.000337 0.0
0.317023 -0.000173 0.0
0.317820 -0.000623 0.0
0.319299 -0.000856 0.0
0.321013 -0.000858 0.0
0.322550 -0.000678 0.0
0.323587 -0.000359 0.0
0.323913 0.000032 0.0
0.323293 0.000588 0.0
1.002964 0.001696 0.0
1.011463 -0.000608 0.0
1.024544 -0.005409 0.0
1.041582 -0.011408 0.0
1.062504 -0.017873 0.0
1.087210 -0.024198 0.0
1.115354 -0.029735 0.0
1.146218 -0.033785 0.0
1.178661 -0.035712 0.0
1.211188 -0.035143 0.0
1.242213 -0.032211 0.0
1.270419 -0.027496 0.0
1.294980 -0.021773 0.0
1.315583 -0.015788 0.0
1.332338 -0.010144 0.0
1.345605 -0.005263 0.0
1.355879 -0.001342 0.0
1.363761 0.001655 0.0
1.369857 0.003926 0.0
1.374596 0.005836 0.0
1.378088 0.007889 0.0
1.380031 0.010664 0.0
1.379716 0.014668 0.0
1.376128 0.020193 0.0
1.368154 0.027227 0.0
1.354799 0.035457 0.0
1.335381 0.044355 0.0
1.309633 0.053287 0.0
1.277739 0.061608 0.0
1.240301 0.068729 0.0
1.198285 0.074152 0.0
1.152956 0.077472 0.0
1.105811 0.078377 0.0
1.058525 0.076649 0.0
1.012883 0.072170 0.0
0.970725 0.064946 0.0
0.933873 0.055097 0.0
0.903978 0.042766 0.0
0.881909 0.028069 0.0
0.866718 0.011742 0.0
0.857189 -0.003359 0.0
0.853758 -0.014402 0.0
0.856973 -0.021493 0.0
0.866510 -0.025602 0.0
0.881699 -0.027531 0.0
0.901681 -0.027692 0.0
0.925304 -0.026165 0.0
0.950850 -0.022880 0.0
0.975744 -0.017757 0.0
0.996544 -0.010745 0.0
1.010289 -0.001675 0.0
1.015741 0.009258 0.0
1.012527 0.021342 0.0
1.000650 0.033389 0.0
0.980896 0.043968 0.0
0.954708 0.051344 0.0
0.923706 0.053796 0.0
0.889139 0.050614 0.0
0.851824 0.043074 0.0
0.812804 0.033973 0.0
0.774123 0.025663 0.0
0.738945 0.018564 0.0
0.710896 0.011733 0.0
0.692935 0.004622 0.0
0.685809 -0.001928 0.0
0.687258 -0.006452 0.0
0.694074 -0.008984 0.0
0.704222 -0.010323 0.0
0.716495 -0.010731 0.0
0.729811 -0.010265 0.0
0.743017 -0.008943 0.0
0.754894 -0.006796 0.0
0.764406 -0.003931 0.0
0.771306 -0.000638 0.0
0.776098 0.002467 0.0
0.779290 0.004898 0.0
0.781243 0.006259 0.0
0.782344 0.006359 0.0
0.782920 0.005307 0.0
0.783060 0.003465 0.0
0.782431 0.001410 0.0
0.780673 -0.000020 0.0
0.777902 -0.000432 0.0
0.774302 -0.000004 0.0
0.769753 0.001006 0.0
0.764046 0.002338 0.0
0.757205 0.003676 0.0
0.749694 0.004685 0.0
0.742237 0.005048 0.0
0.735557 0.004643 0.0
0.730315 0.003517 0.0
0.727020 0.001787 0.0
0.725847 -0.000285 0.0
0.726505 -0.001966 0.0
0.728413 -0.002900 0.0
0.731047 -0.003163 0.0
0.734057 -0.002920 0.0
0.737128 -0.002226 0.0
0.739680 -0.000979 0.0
0.740352 0.001548 0.0
1.001874 -0.003141 0.0
1.008544 -0.010939 0.0
1.020635 -0.020249 0.0
1.037607 -0.030578 0.0
1.059334 -0.041353 0.0
1.085747 -0.051839 0.0
1.116568 -0.061060 0.0
1.151064 -0.067819 0.0
1.187868 -0.070925 0.0
1.224941 -0.069531 0.0
1.260025 -0.063931 0.0
1.291372 -0.055329 0.0
1.318070 -0.045198 0.0
1.339957 -0.034853 0.0
1.357401 -0.025278 0.0
1.371101 -0.017096 0.0
1.381932 -0.010614 0.0
1.390813 -0.005837 0.0
1.398597 -0.002462 0.0
1.405954 0.000127 0.0
1.413239 0.002820 0.0
1.420356 0.006672 0.0
1.426665 0.012666 0.0
1.431063 0.021385 0.0
1.432248 0.032825 0.0
1.429026 0.046434 0.0
1.420542 0.061280 0.0
1.406387 0.076266 0.0
1.386597 0.090314 0.0
1.361590 0.102468 0.0
1.332080 0.111938 0.0
1.299004 0.118091 0.0
1.263460 0.120447 0.0
1.226655 0.118671 0.0
1.189853 0.112591 0.0
1.154309 0.102227 0.0
1.121153 0.087823 0.0
1.091196 0.069893 0.0
1.064721 0.049486 0.0
1.041651 0.028585 0.0
1.021845 0.009133 0.0
1.005996 -0.007614 0.0
0.995540 -0.021040 0.0
0.991505 -0.031557 0.0
0.994419 -0.039680 0.0
1.004413 -0.045519 0.0
1.021151 -0.048699 0.0
1.043776 -0.048517 0.0
1.070911 -0.044148 0.0
1.100657 -0.034901 0.0
1.130295 -0.020902 0.0
1.156492 -0.003163 0.0
1.176691 0.016777 0.0
1.189657 0.036864 0.0
1.194863 0.055040 0.0
1.192138 0.069185 0.0
1.181464 0.077631 0.0
1.162930 0.079879 0.0
1.137102 0.076952 0.0
1.105523 0.070694 0.0
1.070717 0.062429 0.0
1.035349 0.052343 0.0
1.001075 0.040277 0.0
0.968152 0.026961 0.0
0.936859 0.014152 0.0
0.909697 0.003180 0.0
0.890180 -0.005916 0.0
0.879363 -0.012720 0.0
0.875756 -0.017001 0.0
0.877523 -0.019078 0.0
0.883330 -0.019143 0.0
0.892160 -0.017304 0.0
0.903116 -0.013892 0.0
0.915179 -0.009640 0.0
0.927217 -0.005360 0.0
0.938474 -0.001724 0.0
0.948727 0.000674 0.0
0.958021 0.001549 0.0
0.966524 0.001039 0.0
0.974433 -0.000315 0.0
0.981968 -0.001716 0.0
0.989346 -0.002515 0.0
0.996626 -0.002445 0.0
1.003667 -0.001433 0.0
1.010256 0.000394 0.0
1.016170 0.002744 0.0
1.021075 0.005206 0.0
1.024461 0.007280 0.0
1.025745 0.008626 0.0
1.024388 0.009103 0.0
1.019996 0.008692 0.0
1.012378 0.007525 0.0
1.001602 0.005926 0.0
0.988474 0.004293 0.0
0.974729 0.002678 0.0
0.962436 0.000918 0.0
0.953348 -0.000923 0.0
0.948282 -0.002229 0.0
0.946786 -0.002032 0.0
0.945810 0.002905 0.0
1.001493 -0.006508 0.0
1.007259 -0.020009 0.0
1.018457 -0.034468 0.0
1.034998 -0.049871 0.0
1.057060 -0.065849 0.0
1.084913 -0.081609 0.0
1.118620 -0.095818 0.0
1.157627 -0.106563 0.0
1.200362 -0.111719 0.0
1.243728 -0.109176 0.0
1.284008 -0.099649 0.0
1.318676 -0.085627 0.0
1.346815 -0.069737 0.0
1.368646 -0.054031 0.0
1.385006 -0.039904 0.0
1.397029 -0.028194 0.0
1.405977 -0.019295 0.0
1.413140 -0.013200 0.0
1.419752 -0.009495 0.0
1.426875 -0.007320 0.0
1.435180 -0.005323 0.0
1.444659 -0.001781 0.0
1.454471 0.004997 0.0
1.463066 0.016061 0.0
1.468620 0.031410 0.0
1.469578 0.050113 0.0
1.464983 0.070680 0.0
1.454544 0.091458 0.0
1.438530 0.110925 0.0
1.417567 0.127827 0.0
1.392465 0.141191 0.0
1.364093 0.150286 0.0
1.333311 0.154578 0.0
1.300942 0.153713 0.0
1.267759 0.147533 0.0
1.234461 0.136127 0.0
1.201638 0.119901 0.0
1.169734 0.099676 0.0
1.139101 0.076812 0.0
1.110253 0.053178 0.0
1.084091 0.030507 0.0
1.061566 0.009385 0.0
1.043820 -0.009836 0.0
1.032166 -0.027072 0.0
1.027507 -0.042420 0.0
1.030286 -0.055553 0.0
1.040518 -0.065636 0.0
1.057893 -0.071581 0.0
1.081963 -0.072288 0.0
1.112187 -0.066730 0.0
1.147647 -0.054170 0.0
1.186329 -0.034775 0.0
1.224535 -0.010016 0.0
1.257816 0.017411 0.0
1.283309 0.043794 0.0
1.299983 0.066483 0.0
1.307295 0.083695 0.0
1.305023 0.094620 0.0
1.293545 0.099517 0.0
1.274032 0.099221 0.0
1.248250 0.094491 0.0
1.218046 0.085853 0.0
1.185017 0.074071 0.0
1.150699 0.060409 0.0
1.116713 0.045984 0.0
1.084066 0.031158 0.0
1.052967 0.016723 0.0
1.024473 0.003953 0.0
1.000937 -0.006531 0.0
0.983906 -0.014283 0.0
0.973147 -0.018986 0.0
0.967618 -0.020762 0.0
0.966212 -0.019983 0.0
0.967837 -0.017237 0.0
0.971445 -0.013408 0.0
0.976118 -0.009607 0.0
0.981217 -0.006795 0.0
0.986525 -0.005584 0.0
0.992286 -0.006093 0.0
0.999153 -0.007959 0.0
1.008040 -0.010495 0.0
1.019873 -0.012948 0.0
1.035249 -0.014667 0.0
1.054169 -0.015170 0.0
1.075926 -0.014215 0.0
1.099179 -0.011815 0.0
1.122234 -0.008195 0.0
1.143324 -0.003794 0.0
1.160864 0.000876 0.0
1.173738 0.005335 0.0
1.181350 0.009240 0.0
1.183543 0.012402 0.0
1.180619 0.014749 0.0
1.173259 0.015958 0.0
1.162305 0.015712 0.0
1.148569 0.013913 0.0
1.132847 0.010892 0.0
1.116351 0.007518 0.0
1.101177 0.004892 0.0
1.090518 0.007616 0.0
1.001300 -0.009301 0.0
1.006469 -0.028151 0.0
1.016854 -0.047910 0.0
1.032790 -0.068906 0.0
1.054949 -0.091035 0.0
1.084233 -0.113559 0.0
1.121460 -0.134803 0.0
1.166686 -0.151811 0.0
1.218537 -0.161056 0.0
1.271734 -0.156401 0.0
1.319228 -0.140198 0.0
1.357423 -0.117942 0.0
1.385994 -0.094132 0.0
1.406148 -0.071620 0.0
1.419547 -0.052074 0.0
1.427923 -0.036424 0.0
1.432998 -0.025088 0.0
1.436472 -0.018044 0.0
1.440037 -0.014828 0.0
1.445316 -0.014390 0.0
1.453609 -0.014852 0.0
1.465341 -0.013462 0.0
1.479428 -0.007220 0.0
1.493250 0.005861 0.0
1.503688 0.025618 0.0
1.508309 0.050326 0.0
1.505839 0.077533 0.0
1.496136 0.104747 0.0
1.479878 0.129909 0.0
1.458165 0.151520 0.0
1.432190 0.168576 0.0
1.403041 0.180422 0.0
1.371627 0.186639 0.0
1.338663 0.186985 0.0
1.304702 0.181405 0.0
1.270176 0.170079 0.0
1.235450 0.153498 0.0
1.200891 0.132541 0.0
1.166990 0.108481 0.0
1.134509 0.082838 0.0
1.104521 0.056996 0.0
1.078172 0.031770 0.0
1.056320 0.007378 0.0
1.039605 -0.015918 0.0
1.028472 -0.037782 0.0
1.023084 -0.057582 0.0
1.023559 -0.074314 0.0
1.030261 -0.086980 0.0
1.044045 -0.094743 0.0
1.066150 -0.096604 0.0
1.097617 -0.091224 0.0
1.138503 -0.077289 0.0
1.187090 -0.054294 0.0
1.239027 -0.023528 0.0
1.287017 0.011249 0.0
1.324832 0.044540 0.0
1.350663 0.072495 0.0
1.364799 0.093955 0.0
1.367886 0.108573 0.0
1.361014 0.116550 0.0
1.345609 0.118348 0.0
1.323211 0.114598 0.0
1.295362 0.106206 0.0
1.263634 0.094319 0.0
1.229611 0.080084 0.0
1.194762 0.064552 0.0
1.160453 0.048737 0.0
1.127704 0.033182 0.0
1.096960 0.018520 0.0
1.068811 0.005846 0.0
1.044426 -0.003972 0.0
1.024606 -0.010427 0.0
1.009035 -0.013341 0.0
0.996651 -0.013120 0.0
0.986263 -0.010744 0.0
0.976926 -0.007606 0.0
0.968214 -0.005183 0.0
0.960403 -0.004693 0.0
0.954455 -0.006798 0.0
0.951775 -0.011442 0.0
0.953834 -0.017958 0.0
0.961816 -0.025300 0.0
0.976368 -0.032243 0.0
0.997507 -0.037654 0.0
1.024697 -0.040678 0.0
1.056925 -0.040832 0.0
1.092712 -0.038020 0.0
1.130100 -0.032449 0.0
1.166690 -0.024598 0.0
1.199823 -0.015198 0.0
1.227097 -0.005114 0.0
1.247003 0.004656 0.0
1.259291 0.013130 0.0
1.264613 0.019615 0.0
1.263854 0.023768 0.0
1.257989 0.025458 0.0
1.248207 0.024851 0.0
1.235938 0.022324 0.0
1.222742 0.018457 0.0
1.212011 0.015439 0.0
1.001108 -0.011709 0.0
1.005570 -0.035373 0.0
1.014751 -0.060254 0.0
1.029363 -0.087111 0.0
1.050677 -0.116304 0.0
1.080548 -0.147444 0.0
1.121188 -0.178786 0.0
1.174202 -0.206068 0.0
1.240140 -0.224589 0.0
1.308402 -0.214327 0.0
1.363979 -0.185343 0.0
1.403182 -0.150195 0.0
1.428427 -0.115696 0.0
1.443088 -0.084872 0.0
1.449997 -0.059130 0.0
1.451452 -0.039200 0.0
1.449490 -0.025424 0.0
1.446054 -0.017746 0.0
1.443176 -0.015812 0.0
1.443150 -0.018660 0.0
1.448386 -0.024111 0.0
1.460526 -0.028074 0.0
1.479116 -0.025286 0.0
1.500712 -0.011492 0.0
1.519498 0.013746 0.0
1.530641 0.046435 0.0
1.532218 0.082318 0.0
1.524300 0.117584 0.0
1.508145 0.149485 0.0
1.485450 0.176351 0.0
1.457868 0.197302 0.0
1.426784 0.211930 0.0
1.393252 0.220077 0.0
1.358039 0.221725 0.0
1.321683 0.216983 0.0
1.284580 0.206128 0.0
1.247086 0.189669 0.0
1.209622 0.168393 0.0
1.172799 0.143353 0.0
1.137489 0.115756 0.0
1.104749 0.086805 0.0
1.075495 0.057564 0.0
1.050005 0.028926 0.0
1.027656 0.001599 0.0
1.007426 -0.023934 0.0
0.988890 -0.047505 0.0
0.972794 -0.068769 0.0
0.961177 -0.087610 0.0
0.957211 -0.103933 0.0
0.964325 -0.116633 0.0
0.984991 -0.123328 0.0
1.020055 -0.121134 0.0
1.068700 -0.107681 0.0
1.128534 -0.081914 0.0
1.195130 -0.044952 0.0
1.259866 -0.001809 0.0
1.312676 0.040203 0.0
1.349693 0.075094 0.0
1.372121 0.101919 0.0
1.381598 0.120600 0.0
1.379818 0.131484 0.0
1.368465 0.135214 0.0
1.349199 0.132706 0.0
1.323666 0.125078 0.0
1.293491 0.113523 0.0
1.260236 0.099217 0.0
1.225359 0.083258 0.0
1.190152 0.066616 0.0
1.155724 0.050258 0.0
1.122916 0.035066 0.0
1.092096 0.022014 0.0
1.063193 0.012309 0.0
1.035894 0.006792 0.0
1.009662 0.005363 0.0
0.983967 0.006856 0.0
0.958841 0.009259 0.0
0.935198 0.010307 0.0
0.914656 0.008170 0.0
0.899017 0.001927 0.0
0.889881 -0.008351 0.0
0.888443 -0.021670 0.0
0.895172 -0.036300 0.0
0.909753 -0.050375 0.0
0.931413 -0.062322 0.0
0.959221 -0.071008 0.0
0.992216 -0.075724 0.0
1.029397 -0.076096 0.0
1.069652 -0.072016 0.0
1.111668 -0.063637 0.0
1.153833 -0.051457 0.0
1.194139 -0.036436 0.0
1.230215 -0.020004 0.0
1.259644 -0.003925 0.0
1.280852 0.010140 0.0
1.293874 0.020980 0.0
1.299753 0.028233 0.0
1.299748 0.031863 0.0
1.295298 0.032030 0.0
1.288104 0.029142 0.0
1.280901 0.022689 0.0
1.000833 -0.013650 0.0
1.004218 -0.041278 0.0
1.011352 -0.070663 0.0
1.023216 -0.103177 0.0
1.041653 -0.139990 0.0
1.069691 -0.181667 0.0
1.111773 -0.227285 0.0
1.172877 -0.271686 0.0
1.260660 -0.312693 0.0
1.350032 -0.283857 0.0
1.408239 -0.229596 0.0
1.438818 -0.175724 0.0
1.452053 -0.128647 0.0
1.454598 -0.089127 0.0
1.450030 -0.057216 0.0
1.440528 -0.033068 0.0
1.427855 -0.016919 0.0
1.413611 -0.008571 0.0
1.399540 -0.008037 0.0
1.388217 -0.015086 0.0
1.383524 -0.028229 0.0
1.389546 -0.042117 0.0
1.408122 -0.048409 0.0
1.437211 -0.039052 0.0
1.469478 -0.009747 0.0
1.494427 0.033835 0.0
1.506362 0.081406 0.0
1.505773 0.127003 0.0
1.494842 0.167153 0.0
1.475981 0.200240 0.0
1.451222 0.225753 0.0
1.422093 0.243692 0.0
1.389692 0.254246 0.0
1.354807 0.257654 0.0
1.318024 0.254194 0.0
1.279820 0.244223 0.0
1.240663 0.228226 0.0
1.201111 0.206853 0.0
1.161909 0.180918 0.0
1.124014 0.151396 0.0
1.088412 0.119507 0.0
1.055612 0.086917 0.0
1.024946 0.055729 0.0
0.994300 0.027790 0.0
0.960883 0.003522 0.0
0.923320 -0.018864 0.0
0.884567 -0.042560 0.0
0.851664 -0.069299 0.0
0.831830 -0.098443 0.0
0.829247 -0.126652 0.0
0.844518 -0.149246 0.0
0.876175 -0.161938 0.0
0.922216 -0.161563 0.0
0.980615 -0.146264 0.0
1.049070 -0.115654 0.0
1.124411 -0.071184 0.0
1.199824 -0.018645 0.0
1.264057 0.032692 0.0
1.310752 0.075197 0.0
1.340999 0.107597 0.0
1.356927 0.130339 0.0
1.360499 0.144140 0.0
1.353579 0.149967 0.0
1.337958 0.148971 0.0
1.315359 0.142404 0.0
1.287417 0.131533 0.0
1.255649 0.117587 0.0
1.221406 0.101738 0.0
1.185808 0.085163 0.0
1.149633 0.069142 0.0
1.113223 0.055169 0.0
1.076508 0.044773 0.0
1.039214 0.038921 0.0
1.001288 0.037392 0.0
0.963400 0.038410 0.0
0.927165 0.039067 0.0
0.894919 0.036387 0.0
0.869133 0.028416 0.0
0.851743 0.014711 0.0
0.843638 -0.003893 0.0
0.844611 -0.025662 0.0
0.853738 -0.048164 0.0
0.869825 -0.069178 0.0
0.891728 -0.087082 0.0
0.918496 -0.100824 0.0
0.949365 -0.109771 0.0
0.983696 -0.113560 0.0
1.020890 -0.112002 0.0
1.060298 -0.105075 0.0
1.101112 -0.092997 0.0
1.142265 -0.076355 0.0
1.182339 -0.056236 0.0
1.219537 -0.034319 0.0
1.251701 -0.012838 0.0
1.276732 0.005905 0.0
1.293860 0.020300 0.0
1.303844 0.029818 0.0
1.307946 0.034422 0.0
1.307627 0.034262 0.0
1.304807 0.027593 0.0
1.000434 -0.014918 0.0
1.002208 -0.045171 0.0
1.006094 -0.077790 0.0
1.013085 -0.114904 0.0
1.025265 -0.158879 0.0
1.046607 -0.212159 0.0
1.084290 -0.276557 0.0
1.149491 -0.348719 0.0
1.268596 -0.442548 0.0
1.379272 -0.354050 0.0
1.416960 -0.255299 0.0
1.417499 -0.181138 0.0
1.405468 -0.124437 0.0
1.388639 -0.079053 0.0
1.368744 -0.042827 0.0
1.346034 -0.015246 0.0
1.320083 0.003883 0.0
1.291458 0.013494 0.0
1.262156 0.013270 0.0
1.234005 0.003082 0.0
1.209826 -0.017525 0.0
1.196661 -0.045678 0.0
1.202188 -0.068953 0.0
1.229426 -0.074835 0.0
1.275405 -0.052210 0.0
1.326286 0.000468 0.0
1.364687 0.064436 0.0
1.385677 0.123571 0.0
1.393168 0.174024 0.0
1.390493 0.214905 0.0
1.379888 0.246451 0.0
1.362801 0.269210 0.0
1.340227 0.283703 0.0
1.312949 0.290361 0.0
1.281656 0.289564 0.0
1.247015 0.281699 0.0
1.209711 0.267211 0.0
1.170507 0.246624 0.0
1.130280 0.220575 0.0
1.089956 0.189958 0.0
1.050099 0.156402 0.0
1.009998 0.122923 0.0
0.966826 0.093561 0.0
0.916745 0.070685 0.0
0.859009 0.051781 0.0
0.799506 0.029942 0.0
0.748394 -0.001500 0.0
0.714906 -0.043969 0.0
0.702884 -0.091917 0.0
0.709890 -0.137601 0.0
0.731447 -0.175127 0.0
0.764407 -0.200674 0.0
0.807290 -0.211751 0.0
0.859520 -0.206704 0.0
0.920593 -0.184742 0.0
0.989464 -0.146309 0.0
1.064111 -0.093580 0.0
1.139805 -0.032300 0.0
1.206499 0.026800 0.0
1.256773 0.075474 0.0
1.290823 0.112484 0.0
1.310567 0.138679 0.0
1.317825 0.155090 0.0
1.314368 0.162927 0.0
1.301904 0.163511 0.0
1.282059 0.158212 0.0
1.256334 0.148400 0.0
1.226049 0.135452 0.0
1.192263 0.120833 0.0
1.155688 0.106221 0.0
1.116678 0.093511 0.0
1.075381 0.084442 0.0
1.032114 0.079812 0.0
0.987834 0.078705 0.0
0.944446 0.078373 0.0
0.904643 0.075142 0.0
0.871294 0.065908 0.0
0.846658 0.049317 0.0
0.831864 0.025994 0.0
0.826831 -0.002038 0.0
0.830489 -0.032148 0.0
0.841288 -0.061604 0.0
0.857746 -0.088283 0.0
0.878671 -0.110806 0.0
0.903171 -0.128368 0.0
0.930614 -0.140539 0.0
0.960570 -0.147079 0.0
0.992732 -0.147840 0.0
1.026830 -0.142742 0.0
1.062523 -0.131838 0.0
1.099304 -0.115447 0.0
1.136404 -0.094318 0.0
1.172729 -0.069759 0.0
1.206842 -0.043675 0.0
1.237016 -0.018464 0.0
1.261343 0.003212 0.0
1.278798 0.019468 0.0
1.289801 0.029666 0.0
1.295374 0.033764 0.0
1.296624 0.029662 0.0
0.999907 -0.015258 0.0
0.999523 -0.046221 0.0
0.998885 -0.079986 0.0
0.998556 -0.119371 0.0
1.000034 -0.168070 0.0
1.006922 -0.231198 0.0
1.027670 -0.315949 0.0
1.081114 -0.427973 0.0
1.229500 -0.630785 0.0
1.335724 -0.382714 0.0
1.299041 -0.227640 0.0
1.239592 -0.149886 0.0
1.192478 -0.096544 0.0
1.155297 -0.052936 0.0
1.121220 -0.014971 0.0
1.083342 0.017486 0.0
1.039345 0.041100 0.0
0.990758 0.053490 0.0
0.939621 0.053712 0.0
0.889596 0.040816 0.0
0.845380 0.013137 0.0
0.812600 -0.030396 0.0
0.803750 -0.080911 0.0
0.830131 -0.116495 0.0
0.890038 -0.116437 0.0
0.974065 -0.070212 0.0
1.061115 0.009665 0.0
1.128996 0.089471 0.0
1.175242 0.154387 0.0
1.206198 0.206260 0.0
1.224942 0.246957 0.0
1.233007 0.277727 0.0
1.231426 0.299341 0.0
1.221131 0.312296 0.0
1.203073 0.316978 0.0
1.178233 0.313766 0.0
1.147594 0.303087 0.0
1.112083 0.285464 0.0
1.072369 0.261676 0.0
1.028290 0.233261 0.0
0.977934 0.203312 0.0
0.917727 0.176321 0.0
0.845728 0.155335 0.0
0.766962 0.137758 0.0
0.694355 0.115052 0.0
0.641885 0.078645 0.0
0.616330 0.026463 0.0
0.614405 -0.036519 0.0
0.627475 -0.100416 0.0
0.648762 -0.157395 0.0
0.675278 -0.203407 0.0
0.706336 -0.236412 0.0
0.742438 -0.254999 0.0
0.784600 -0.257848 0.0
0.833777 -0.243847 0.0
0.890331 -0.212630 0.0
0.953683 -0.165256 0.0
1.022096 -0.104731 0.0
1.091683 -0.037049 0.0
1.153893 0.026839 0.0
1.201954 0.079008 0.0
1.235519 0.118846 0.0
1.255881 0.147303 0.0
1.264472 0.165579 0.0
1.262768 0.175026 0.0
1.252221 0.177088 0.0
1.234200 0.173271 0.0
1.209907 0.165159 0.0
1.180309 0.154511 0.0
1.146092 0.143335 0.0
1.107751 0.133749 0.0
1.065857 0.127395 0.0
1.021474 0.124510 0.0
0.976502 0.123258 0.0
0.933671 0.120040 0.0
0.896036 0.110911 0.0
0.866207 0.093317 0.0
0.845706 0.067043 0.0
0.834812 0.033956 0.0
0.832805 -0.002961 0.0
0.838345 -0.040424 0.0
0.849862 -0.075643 0.0
0.865906 -0.106746 0.0
0.885287 -0.132650 0.0
0.907108 -0.152845 0.0
0.930761 -0.167159 0.0
0.955909 -0.175562 0.0
0.982423 -0.178033 0.0
1.010293 -0.174517 0.0
1.039514 -0.164977 0.0
1.069963 -0.149538 0.0
1.101302 -0.128667 0.0
1.132911 -0.103344 0.0
1.163859 -0.075151 0.0
1.192933 -0.046235 0.0
1.218716 -0.019127 0.0
1.239628 0.003441 0.0
1.254738 0.019580 0.0
1.264234 0.028781 0.0
1.268514 0.029114 0.0
0.999305 -0.014470 0.0
0.996437 -0.043758 0.0
0.990446 -0.075820 0.0
0.980966 -0.113728 0.0
0.967708 -0.161933 0.0
0.951135 -0.227650 0.0
0.934792 -0.323903 0.0
0.933953 -0.472623 0.0
1.033203 -0.833771 0.0
1.040617 -0.189339 0.0
0.867885 -0.097496 0.0
0.737851 -0.080471 0.0
0.672339 -0.053333 0.0
0.628039 -0.014666 0.0
0.579520 0.029356 0.0
0.522208 0.068349 0.0
0.459266 0.097176 0.0
0.393657 0.111612 0.0
0.331778 0.108606 0.0
0.283195 0.084529 0.0
0.259559 0.037275 0.0
0.270172 -0.032367 0.0
0.313845 -0.113762 0.0
0.382837 -0.179017 0.0
0.470861 -0.201847 0.0
0.573576 -0.171545 0.0
0.689429 -0.091905 0.0
0.803570 0.009020 0.0
0.895461 0.096702 0.0
0.964236 0.164213 0.0
1.016414 0.218082 0.0
1.054015 0.260935 0.0
1.077967 0.293760 0.0
1.089159 0.316981 0.0
1.088614 0.330896 0.0
1.077440 0.335861 0.0
1.056687 0.332383 0.0
1.027089 0.321277 0.0
0.988564 0.304102 0.0
0.939639 0.283838 0.0
0.878025 0.264705 0.0
0.803874 0.249287 0.0
0.724155 0.234087 0.0
0.652549 0.209377 0.0
0.602457 0.166132 0.0
0.579353 0.103139 0.0
0.579705 0.027172 0.0
0.595204 -0.050801 0.0
0.617940 -0.121941 0.0
0.643207 -0.182423 0.0
0.669061 -0.230749 0.0
0.695267 -0.266333 0.0
0.722734 -0.288647 0.0
0.753143 -0.296771 0.0
0.788442 -0.289400 0.0
0.830211 -0.265400 0.0
0.879068 -0.224694 0.0
0.934387 -0.169026 0.0
0.994311 -0.102265 0.0
1.055099 -0.030943 0.0
1.109430 0.034399 0.0
1.151876 0.087443 0.0
1.182040 0.128180 0.0
1.200600 0.157552 0.0
1.208545 0.176813 0.0
1.206984 0.187409 0.0
1.197022 0.190934 0.0
1.179664 0.189147 0.0
1.155748 0.184037 0.0
1.125964 0.177809 0.0
1.091019 0.172561 0.0
1.051962 0.169534 0.0
1.010528 0.168188 0.0
0.969255 0.165824 0.0
0.931169 0.158391 0.0
0.899104 0.142260 0.0
0.875015 0.115888 0.0
0.859678 0.080310 0.0
0.852848 0.038415 0.0
0.853636 -0.006201 0.0
0.860762 -0.049851 0.0
0.872779 -0.089751 0.0
0.888309 -0.124212 0.0
0.906153 -0.152408 0.0
0.925365 -0.174119 0.0
0.945305 -0.189479 0.0
0.965659 -0.198744 0.0
0.986409 -0.202115 0.0
1.007748 -0.199645 0.0
1.029953 -0.191274 0.0
1.053233 -0.176969 0.0
1.077604 -0.156945 0.0
1.102805 -0.131875 0.0
1.128269 -0.103033 0.0
1.153147 -0.072305 0.0
1.176364 -0.042057 0.0
1.196706 -0.014883 0.0
1.212869 0.006632 0.0
1.224096 0.021005 0.0
1.230104 0.026603 0.0
0.998737 -0.012512 0.0
0.993516 -0.037627 0.0
0.982398 -0.064843 0.0
0.963894 -0.096722 0.0
0.935256 -0.137042 0.0
0.891431 -0.192142 0.0
0.822508 -0.274145 0.0
0.709284 -0.408316 0.0
0.319226 -0.711298 0.0
-0.476952 0.247074 0.0
-0.476952 0.000000 0.0
-0.027678 -0.018929 0.0
-0.044374 -0.041416 0.0
-0.010122 -0.016535 0.0
0.037256 0.032366 0.0
0.063787 0.096120 0.0
0.053514 0.142619 0.0
0.022076 0.163216 0.0
-0.013688 0.154645 0.0
-0.040204 0.113590 0.0
-0.048170 0.039817 0.0
-0.032429 -0.061263 0.0
0.007130 -0.168099 0.0
0.068199 -0.254742 0.0
0.148828 -0.294775 0.0
0.245709 -0.278213 0.0
0.357125 -0.212505 0.0
0.483422 -0.110819 0.0
0.609937 -0.001865 0.0
0.714916 0.089027 0.0
0.796114 0.159893 0.0
0.859490 0.218148 0.0
0.906485 0.265600 0.0
0.937851 0.302585 0.0
0.954431 0.329258 0.0
0.957124 0.345980 0.0
0.946638 0.353504 0.0
0.923103 0.353291 0.0
0.885766 0.347950 0.0
0.833659 0.341022 0.0
0.768229 0.334565 0.0
0.696782 0.325025 0.0
0.632390 0.302459 0.0
0.587928 0.257073 0.0
0.569066 0.187389 0.0
0.572968 0.101083 0.0
0.592290 0.009553 0.0
0.619082 -0.075474 0.0
0.647587 -0.148509 0.0
0.674841 -0.208375 0.0
0.699411 -0.255221 0.0
0.720997 -0.289653 0.0
0.740364 -0.312162 0.0
0.759300 -0.322600 0.0
0.780354 -0.319924 0.0
0.806215 -0.302507 0.0
0.838868 -0.269098 0.0
0.878919 -0.219993 0.0
0.925434 -0.157736 0.0
0.976191 -0.087017 0.0
1.027199 -0.014867 0.0
1.072415 0.049047 0.0
1.107909 0.100918 0.0
1.133199 0.140963 0.0
1.148554 0.170102 0.0
1.154583 0.189652 0.0
1.152022 0.201214 0.0
1.141605 0.206642 0.0
1.124015 0.208047 0.0
1.099956 0.207642 0.0
1.070363 0.207264 0.0
1.036711 0.207540 0.0
1.001201 0.207126 0.0
0.966630 0.202730 0.0
0.935866 0.190335 0.0
0.911177 0.167071 0.0
0.893805 0.132537 0.0
0.883996 0.088806 0.0
0.881311 0.039434 0.0
0.884919 -0.011615 0.0
0.893689 -0.060332 0.0
0.906298 -0.103894 0.0
0.921412 -0.140713 0.0
0.937822 -0.170162 0.0
0.954548 -0.192302 0.0
0.970913 -0.207600 0.0
0.986597 -0.216661 0.0
1.001644 -0.219994 0.0
1.016397 -0.217858 0.0
1.031373 -0.210242 0.0
1.047092 -0.197001 0.0
1.063907 -0.178100 0.0
1.081884 -0.153899 0.0
1.100762 -0.125352 0.0
1.119967 -0.094070 0.0
1.138680 -0.062222 0.0
1.155910 -0.032291 0.0
1.170567 -0.006780 0.0
1.181593 0.012163 0.0
1.188096 0.022935 0.0
0.998326 -0.009575 0.0
0.991424 -0.028441 0.0
0.976701 -0.048189 0.0
0.952012 -0.070183 0.0
0.913224 -0.096155 0.0
0.852329 -0.128309 0.0
0.752484 -0.169210 0.0
0.573807 -0.221351 0.0
0.228837 -0.262825 0.0
0.000000 0.247074 0.0
-0.000000 -0.000000 0.0
0.000000 0.000000 0.0
-0.026145 -0.026199 0.0
-0.060073 -0.032021 0.0
-0.074334 0.014735 0.0
-0.091743 0.104629 0.0
-0.119634 0.172274 0.0
-0.155519 0.200884 0.0
-0.190453 0.187674 0.0
-0.214622 0.131246 0.0
-0.219286 0.034790 0.0
-0.201510 -0.089754 0.0
-0.166451 -0.214225 0.0
-0.119991 -0.316144 0.0
-0.059485 -0.374508 0.0
0.020661 -0.375507 0.0
0.118756 -0.324721 0.0
0.232708 -0.238852 0.0
0.360482 -0.128121 0.0
0.487162 -0.016376 0.0
0.593213 0.078047 0.0
0.675537 0.154293 0.0
0.739508 0.218489 0.0
0.786310 0.271527 0.0
0.816508 0.313539 0.0
0.830518 0.344995 0.0
0.828456 0.367036 0.0
0.810047 0.381703 0.0
0.775241 0.391680 0.0
0.726163 0.398479 0.0
0.669679 0.399022 0.0
0.617595 0.384099 0.0
0.582133 0.343239 0.0
0.569663 0.273226 0.0
0.578708 0.181054 0.0
0.603234 0.078991 0.0
0.635938 -0.020380 0.0
0.670453 -0.106848 0.0
0.702990 -0.178176 0.0
0.731603 -0.234575 0.0
0.755149 -0.277137 0.0
0.773190 -0.307364 0.0
0.786112 -0.326739 0.0
0.795329 -0.336175 0.0
0.803376 -0.335450 0.0
0.813590 -0.323057 0.0
0.829267 -0.296877 0.0
0.852578 -0.255576 0.0
0.883878 -0.199968 0.0
0.921764 -0.133428 0.0
0.963618 -0.061318 0.0
1.005049 0.008851 0.0
1.041225 0.069444 0.0
1.069650 0.118721 0.0
1.089695 0.156944 0.0
1.101353 0.185123 0.0
1.104917 0.204741 0.0
1.100809 0.217640 0.0
1.089551 0.225897 0.0
1.071865 0.231538 0.0
1.048895 0.235931 0.0
1.022417 0.239003 0.0
0.994843 0.238747 0.0
0.968875 0.231648 0.0
0.946911 0.214145 0.0
0.930531 0.184330 0.0
0.920368 0.142812 0.0
0.916358 0.092350 0.0
0.918078 0.036855 0.0
0.924812 -0.019378 0.0
0.935478 -0.072006 0.0
0.948786 -0.118138 0.0
0.963459 -0.156255 0.0
0.978335 -0.185907 0.0
0.992466 -0.207414 0.0
1.005189 -0.221576 0.0
1.016196 -0.229377 0.0
1.025567 -0.231696 0.0
1.033744 -0.229086 0.0
1.041433 -0.221679 0.0
1.049425 -0.209275 0.0
1.058397 -0.191612 0.0
1.068744 -0.168711 0.0
1.080495 -0.141168 0.0
1.093323 -0.110287 0.0
1.106613 -0.078007 0.0
1.119549 -0.046672 0.0
1.131203 -0.018710 0.0
1.140574 0.003696 0.0
1.146601 0.018873 0.0
0.998155 -0.006056 0.0
0.990584 -0.017487 0.0
0.974567 -0.028403 0.0
0.948085 -0.038799 0.0
0.907564 -0.048230 0.0
0.847083 -0.054857 0.0
0.757731 -0.053466 0.0
0.628493 -0.029182 0.0
0.464252 0.058657 0.0
0.188023 0.169427 0.0
0.000000 0.000000 0.0
-0.000000 -0.000000 0.0
0.000000 0.000000 0.0
-0.012284 -0.012119 0.0
-0.043919 0.040562 0.0
-0.093218 0.145510 0.0
-0.148554 0.214620 0.0
-0.194504 0.240375 0.0
-0.229356 0.217969 0.0
-0.247706 0.143472 0.0
-0.241451 0.020973 0.0
-0.213327 -0.121837 0.0
-0.177175 -0.253354 0.0
-0.141938 -0.358712 0.0
-0.107315 -0.427069 0.0
-0.063324 -0.447084 0.0
0.001100 -0.415664 0.0
0.087227 -0.347990 0.0
0.191083 -0.250613 0.0
0.306479 -0.135960 0.0
0.419987 -0.021927 0.0
0.515793 0.076138 0.0
0.590206 0.158259 0.0
0.646740 0.228420 0.0
0.685961 0.287228 0.0
0.707879 0.335379 0.0
0.712388 0.374206 0.0
0.699875 0.405454 0.0
0.672599 0.430010 0.0
0.636482 0.445343 0.0
0.601508 0.443614 0.0
0.578712 0.414387 0.0
0.575012 0.352114 0.0
0.590585 0.261248 0.0
0.620933 0.153639 0.0
0.660372 0.042441 0.0
0.702430 -0.058592 0.0
0.741998 -0.142719 0.0
0.776856 -0.209700 0.0
0.805703 -0.260510 0.0
0.827756 -0.296800 0.0
0.842655 -0.320641 0.0
0.850528 -0.334256 0.0
0.852228 -0.339575 0.0
0.849691 -0.337559 0.0
0.846098 -0.327569 0.0
0.845445 -0.307388 0.0
0.851424 -0.274355 0.0
0.866143 -0.227208 0.0
0.889498 -0.167428 0.0
0.919511 -0.099186 0.0
0.953085 -0.028285 0.0
0.985874 0.037615 0.0
1.014130 0.093869 0.0
1.036206 0.139676 0.0
1.051427 0.175512 0.0
1.059616 0.202599 0.0
1.060886 0.222619 0.0
1.055614 0.237448 0.0
1.044552 0.248735 0.0
1.028995 0.257260 0.0