# vtk DataFile Version 3.0
Vector Field
ASCII
DATASET RECTILINEAR_GRID
DIMENSIONS 100 26 1
X_COORDINATES 100 double
0.050000 0.150000 0.250000 0.350000 0.450000 0.550000 0.650000 0.750000 0.850000 0.950000 1.050000 1.150000 1.250000 1.350000 1.450000 1.550000 1.650000 1.750000 1.850000 1.950000 2.050000 2.150000 2.250000 2.350000 2.450000 2.550000 2.650000 2.750000 2.850000 2.950000 3.050000 3.150000 3.250000 3.350000 3.450000 3.550000 3.650000 3.750000 3.850000 3.950000 4.050000 4.150000 4.250000 4.350000 4.450000 4.550000 4.650000 4.750000 4.850000 4.950000 5.050000 5.150000 5.250000 5.350000 5.450000 5.550000 5.650000 5.750000 5.850000 5.950000 6.050000 6.150000 6.250000 6.350000 6.450000 6.550000 6.650000 6.750000 6.850000 6.950000 7.050000 7.150000 7.250000 7.350000 7.450000 7.550000 7.650000 7.750000 7.850000 7.950000 8.050000 8.150000 8.250000 8.350000 8.450000 8.550000 8.650000 8.750000 8.850000 8.950000 9.050000 9.150000 9.250000 9.350000 9.450000 9.550000 9.650000 9.750000 9.850000 9.950000 
Y_COORDINATES 26 double
0.050000 0.150000 0.250000 0.350000 0.450000 0.550000 0.650000 0.750000 0.850000 0.950000 1.050000 1.150000 1.250000 1.350000 1.450000 1.550000 1.650000 1.750000 1.850000 1.950000 2.050000 2.150000 2.250000 2.350000 2.450000 2.550000 
Z_COORDINATES 1 double
0.0
POINT_DATA 2600
VECTORS Vektorfeld double
0.997690 0.002310 0.0
0.992967 0.002412 0.0
0.989558 0.000997 0.0
0.989597 -0.001035 0.0
0.993910 -0.003278 0.0
1.002654 -0.005466 0.0
1.015473 -0.007352 0.0
1.031514 -0.008689 0.0
1.049469 -0.009266 0.0
1.067708 -0.008973 0.0
1.084545 -0.007863 0.0
1.098539 -0.006132 0.0
1.108720 -0.004049 0.0
1.114660 -0.001890 0.0
1.116453 0.000096 0.0
1.114613 0.001744 0.0
1.109810 0.003059 0.0
1.102685 0.004066 0.0
1.093795 0.004824 0.0
1.083524 0.005447 0.0
1.071982 0.006096 0.0
1.058935 0.006951 0.0
1.043816 0.008168 0.0
1.025811 0.009837 0.0
1.004019 0.011955 0.0
0.977636 0.014429 0.0
0.946104 0.017103 0.0
0.909214 0.019787 0.0
0.867139 0.022289 0.0
0.820419 0.024431 0.0
0.769929 0.026059 0.0
0.716827 0.027043 0.0
0.662518 0.027266 0.0
0.608630 0.026623 0.0
0.556982 0.025025 0.0
0.509521 0.022435 0.0
0.468169 0.018917 0.0
0.434635 0.014617 0.0
0.410432 0.009586 0.0
0.397094 0.003751 0.0
0.395175 -0.001831 0.0
0.402129 -0.005123 0.0
0.413931 -0.006678 0.0
0.427746 -0.007136 0.0
0.441851 -0.006969 0.0
0.455299 -0.006479 0.0
0.467627 -0.005849 0.0
0.478669 -0.005192 0.0
0.488432 -0.004571 0.0
0.497022 -0.004018 0.0
0.504585 -0.003544 0.0
0.511277 -0.003148 0.0
0.517243 -0.002818 0.0
0.522604 -0.002543 0.0
0.527453 -0.002307 0.0
0.531857 -0.002098 0.0
0.535863 -0.001908 0.0
0.539500 -0.001729 0.0
0.542786 -0.001558 0.0
0.545739 -0.001394 0.0
0.548370 -0.001237 0.0
0.550695 -0.001088 0.0
0.552732 -0.000949 0.0
0.554501 -0.000820 0.0
0.556025 -0.000704 0.0
0.557328 -0.000599 0.0
0.558435 -0.000507 0.0
0.559368 -0.000427 0.0
0.560152 -0.000357 0.0
0.560807 -0.000298 0.0
0.561353 -0.000247 0.0
0.561805 -0.000205 0.0
0.562180 -0.000170 0.0
0.562490 -0.000140 0.0
0.562746 -0.000116 0.0
0.562958 -0.000096 0.0
0.563133 -0.000080 0.0
0.563280 -0.000067 0.0
0.563402 -0.000056 0.0
0.563506 -0.000048 0.0
0.563596 -0.000042 0.0
0.563676 -0.000038 0.0
0.563750 -0.000035 0.0
0.563820 -0.000035 0.0
0.563891 -0.000036 0.0
0.563965 -0.000039 0.0
0.564048 -0.000044 0.0
0.564143 -0.000051 0.0
0.564255 -0.000062 0.0
0.564392 -0.000076 0.0
0.564562 -0.000094 0.0
0.564775 -0.000119 0.0
0.565045 -0.000151 0.0
0.565391 -0.000195 0.0
0.565839 -0.000253 0.0
0.566426 -0.000333 0.0
0.567203 -0.000444 0.0
0.568249 -0.000602 0.0
0.569683 -0.000833 0.0
0.571536 -0.001020 0.0
1.002984 0.001636 0.0
1.011558 -0.000765 0.0
1.024771 -0.005630 0.0
1.041969 -0.011646 0.0
1.063049 -0.018060 0.0
1.087870 -0.024249 0.0
1.116034 -0.029552 0.0
1.146763 -0.033260 0.0
1.178850 -0.034737 0.0
1.210733 -0.033625 0.0
1.240775 -0.030090 0.0
1.267631 -0.024755 0.0
1.290470 -0.018446 0.0
1.308993 -0.011956 0.0
1.323299 -0.005937 0.0
1.333729 -0.000813 0.0
1.340872 0.003277 0.0
1.345484 0.006361 0.0
1.348258 0.008644 0.0
1.349665 0.010491 0.0
1.349850 0.012410 0.0
1.348566 0.014968 0.0
1.345171 0.018665 0.0
1.338731 0.023785 0.0
1.328212 0.030317 0.0
1.312695 0.037967 0.0
1.291548 0.046243 0.0
1.264526 0.054559 0.0
1.231785 0.062333 0.0
1.193858 0.069033 0.0
1.151606 0.074199 0.0
1.106169 0.077442 0.0
1.058921 0.078423 0.0
1.011417 0.076858 0.0
0.965321 0.072534 0.0
0.922314 0.065394 0.0
0.883992 0.055631 0.0
0.851744 0.043685 0.0
0.826358 0.030108 0.0
0.807151 0.015774 0.0
0.792463 0.002754 0.0
0.782530 -0.006731 0.0
0.778184 -0.012528 0.0
0.778558 -0.015475 0.0
0.782352 -0.016530 0.0
0.788388 -0.016402 0.0
0.795736 -0.015602 0.0
0.803736 -0.014482 0.0
0.811962 -0.013272 0.0
0.820171 -0.012115 0.0
0.828246 -0.011085 0.0
0.836154 -0.010207 0.0
0.843905 -0.009476 0.0
0.851527 -0.008866 0.0
0.859038 -0.008343 0.0
0.866446 -0.007874 0.0
0.873736 -0.007428 0.0
0.880875 -0.006985 0.0
0.887819 -0.006533 0.0
0.894515 -0.006068 0.0
0.900912 -0.005591 0.0
0.906962 -0.005109 0.0
0.912627 -0.004630 0.0
0.917881 -0.004163 0.0
0.922711 -0.003715 0.0
0.927112 -0.003293 0.0
0.931093 -0.002901 0.0
0.934668 -0.002542 0.0
0.937861 -0.002218 0.0
0.940696 -0.001928 0.0
0.943203 -0.001670 0.0
0.945411 -0.001443 0.0
0.947349 -0.001245 0.0
0.949047 -0.001072 0.0
0.950530 -0.000923 0.0
0.951824 -0.000795 0.0
0.952952 -0.000684 0.0
0.953933 -0.000590 0.0
0.954788 -0.000510 0.0
0.955531 -0.000442 0.0
0.956179 -0.000386 0.0
0.956743 -0.000339 0.0
0.957236 -0.000301 0.0
0.957668 -0.000271 0.0
0.958048 -0.000250 0.0
0.958385 -0.000236 0.0
0.958685 -0.000230 0.0
0.958956 -0.000232 0.0
0.959205 -0.000243 0.0
0.959438 -0.000264 0.0
0.959661 -0.000299 0.0
0.959883 -0.000348 0.0
0.960109 -0.000418 0.0
0.960349 -0.000514 0.0
0.960611 -0.000644 0.0
0.960906 -0.000824 0.0
0.961248 -0.001073 0.0
0.961652 -0.001424 0.0
0.962153 -0.001946 0.0
0.962810 -0.002416 0.0
1.001896 -0.003244 0.0
1.008648 -0.011210 0.0
1.020883 -0.020634 0.0
1.038042 -0.030999 0.0
1.059965 -0.041708 0.0
1.086541 -0.051998 0.0
1.117437 -0.060864 0.0
1.151851 -0.067092 0.0
1.188340 -0.069480 0.0
1.224782 -0.067208 0.0
1.258858 -0.060625 0.0
1.288791 -0.051009 0.0
1.313672 -0.039913 0.0
1.333378 -0.028719 0.0
1.348344 -0.018446 0.0
1.359347 -0.009739 0.0
1.367321 -0.002915 0.0
1.373219 0.002043 0.0
1.377939 0.005469 0.0
1.382206 0.007993 0.0
1.386425 0.010504 0.0
1.390543 0.014041 0.0
1.393978 0.019552 0.0
1.395721 0.027594 0.0
1.394586 0.038162 0.0
1.389497 0.050729 0.0
1.379695 0.064429 0.0
1.364822 0.078268 0.0
1.344910 0.091279 0.0
1.320314 0.102611 0.0
1.291644 0.111544 0.0
1.259700 0.117478 0.0
1.225421 0.119914 0.0
1.189834 0.118459 0.0
1.153991 0.112872 0.0
1.118897 0.103157 0.0
1.085432 0.089655 0.0
1.054238 0.073103 0.0
1.025606 0.054708 0.0
0.999635 0.036350 0.0
0.976516 0.019984 0.0
0.956142 0.006347 0.0
0.938772 -0.003889 0.0
0.925185 -0.010900 0.0
0.915454 -0.015168 0.0
0.909030 -0.017377 0.0
0.905252 -0.018196 0.0
0.903519 -0.018155 0.0
0.903352 -0.017659 0.0
0.904410 -0.016995 0.0
0.906472 -0.016342 0.0
0.909403 -0.015790 0.0
0.913119 -0.015362 0.0
0.917553 -0.015036 0.0
0.922633 -0.014766 0.0
0.928274 -0.014499 0.0
0.934369 -0.014187 0.0
0.940799 -0.013794 0.0
0.947433 -0.013302 0.0
0.954144 -0.012706 0.0
0.960810 -0.012015 0.0
0.967324 -0.011249 0.0
0.973597 -0.010429 0.0
0.979558 -0.009580 0.0
0.985159 -0.008727 0.0
0.990365 -0.007888 0.0
0.995161 -0.007082 0.0
0.999544 -0.006320 0.0
1.003521 -0.005610 0.0
1.007107 -0.004957 0.0
1.010324 -0.004364 0.0
1.013196 -0.003829 0.0
1.015751 -0.003352 0.0
1.018015 -0.002927 0.0
1.020016 -0.002553 0.0
1.021780 -0.002223 0.0
1.023333 -0.001935 0.0
1.024697 -0.001684 0.0
1.025893 -0.001466 0.0
1.026942 -0.001278 0.0
1.027861 -0.001116 0.0
1.028666 -0.000977 0.0
1.029371 -0.000860 0.0
1.029988 -0.000762 0.0
1.030530 -0.000681 0.0
1.031006 -0.000617 0.0
1.031426 -0.000568 0.0
1.031797 -0.000535 0.0
1.032128 -0.000518 0.0
1.032424 -0.000518 0.0
1.032693 -0.000537 0.0
1.032939 -0.000578 0.0
1.033168 -0.000644 0.0
1.033385 -0.000744 0.0
1.033592 -0.000884 0.0
1.033791 -0.001079 0.0
1.033978 -0.001346 0.0
1.034139 -0.001715 0.0
1.034223 -0.002239 0.0
1.034216 -0.002773 0.0
1.001517 -0.006657 0.0
1.007375 -0.020405 0.0
1.018740 -0.035039 0.0
1.035500 -0.050513 0.0
1.057805 -0.066422 0.0
1.085880 -0.081934 0.0
1.119733 -0.095675 0.0
1.158731 -0.105693 0.0
1.201202 -0.109837 0.0
1.243940 -0.106031 0.0
1.283146 -0.095083 0.0
1.316266 -0.079602 0.0
1.342401 -0.062335 0.0
1.361835 -0.045437 0.0
1.375507 -0.030365 0.0
1.384660 -0.017975 0.0
1.390642 -0.008635 0.0
1.394800 -0.002293 0.0
1.398390 0.001496 0.0
1.402477 0.003612 0.0
1.407754 0.005388 0.0
1.414273 0.008520 0.0
1.421265 0.014646 0.0
1.427276 0.024746 0.0
1.430635 0.038785 0.0
1.429969 0.055860 0.0
1.424482 0.074587 0.0
1.413989 0.093476 0.0
1.398777 0.111195 0.0
1.379414 0.126653 0.0
1.356589 0.138996 0.0
1.331009 0.147550 0.0
1.303344 0.151786 0.0
1.274200 0.151318 0.0
1.244105 0.145952 0.0
1.213492 0.135783 0.0
1.182698 0.121286 0.0
1.151976 0.103388 0.0
1.121552 0.083480 0.0
1.091788 0.063313 0.0
1.063331 0.044598 0.0
1.037009 0.028429 0.0
1.013361 0.015047 0.0
0.992557 0.004555 0.0
0.974816 -0.003151 0.0
0.960327 -0.008482 0.0
0.948946 -0.011932 0.0
0.940305 -0.014044 0.0
0.934030 -0.015328 0.0
0.929822 -0.016177 0.0
0.927458 -0.016858 0.0
0.926767 -0.017515 0.0
0.927605 -0.018191 0.0
0.929827 -0.018862 0.0
0.933270 -0.019464 0.0
0.937751 -0.019923 0.0
0.943067 -0.020176 0.0
0.949010 -0.020178 0.0
0.955370 -0.019914 0.0
0.961957 -0.019391 0.0
0.968597 -0.018636 0.0
0.975146 -0.017691 0.0
0.981489 -0.016602 0.0
0.987538 -0.015417 0.0
0.993231 -0.014183 0.0
0.998529 -0.012937 0.0
1.003412 -0.011713 0.0
1.007877 -0.010536 0.0
1.011929 -0.009423 0.0
1.015585 -0.008386 0.0
1.018866 -0.007433 0.0
1.021798 -0.006564 0.0
1.024407 -0.005780 0.0
1.026722 -0.005078 0.0
1.028770 -0.004451 0.0
1.030578 -0.003897 0.0
1.032171 -0.003407 0.0
1.033572 -0.002977 0.0
1.034802 -0.002601 0.0
1.035881 -0.002272 0.0
1.036828 -0.001987 0.0
1.037657 -0.001740 0.0
1.038383 -0.001528 0.0
1.039019 -0.001347 0.0
1.039576 -0.001195 0.0
1.040064 -0.001068 0.0
1.040493 -0.000965 0.0
1.040870 -0.000886 0.0
1.041202 -0.000830 0.0
1.041495 -0.000797 0.0
1.041755 -0.000788 0.0
1.041987 -0.000805 0.0
1.042194 -0.000853 0.0
1.042378 -0.000936 0.0
1.042539 -0.001061 0.0
1.042675 -0.001237 0.0
1.042777 -0.001477 0.0
1.042825 -0.001794 0.0
1.042783 -0.002202 0.0
1.042628 -0.002647 0.0
1.001328 -0.009502 0.0
1.006599 -0.028689 0.0
1.017174 -0.048696 0.0
1.033370 -0.069812 0.0
1.055829 -0.091888 0.0
1.085416 -0.114131 0.0
1.122894 -0.134809 0.0
1.168237 -0.150901 0.0
1.219944 -0.158807 0.0
1.272581 -0.152437 0.0
1.319002 -0.134305 0.0
1.355585 -0.110084 0.0
1.382039 -0.084442 0.0
1.399656 -0.060382 0.0
1.410240 -0.039676 0.0
1.415681 -0.023257 0.0
1.417815 -0.011469 0.0
1.418398 -0.004201 0.0
1.419121 -0.000910 0.0
1.421562 -0.000511 0.0
1.426957 -0.001160 0.0
1.435674 -0.000168 0.0
1.446625 0.005391 0.0
1.457361 0.017254 0.0
1.465101 0.035179 0.0
1.467746 0.057489 0.0
1.464301 0.081890 0.0
1.454804 0.106162 0.0
1.439978 0.128546 0.0
1.420841 0.147801 0.0
1.398421 0.163092 0.0
1.373605 0.173851 0.0
1.347073 0.179683 0.0
1.319299 0.180339 0.0
1.290571 0.175754 0.0
1.261039 0.166127 0.0
1.230775 0.152002 0.0
1.199852 0.134317 0.0
1.168459 0.114368 0.0
1.136995 0.093653 0.0
1.106116 0.073594 0.0
1.076623 0.055248 0.0
1.049263 0.039237 0.0
1.024594 0.025839 0.0
1.002899 0.015001 0.0
0.984210 0.006544 0.0
0.968492 0.000141 0.0
0.955700 -0.004683 0.0
0.945706 -0.008420 0.0
0.938327 -0.011497 0.0
0.933382 -0.014228 0.0
0.930701 -0.016774 0.0
0.930103 -0.019172 0.0
0.931375 -0.021374 0.0
0.934272 -0.023291 0.0
0.938518 -0.024823 0.0
0.943823 -0.025897 0.0
0.949897 -0.026473 0.0
0.956466 -0.026549 0.0
0.963285 -0.026161 0.0
0.970148 -0.025369 0.0
0.976887 -0.024247 0.0
0.983376 -0.022877 0.0
0.989522 -0.021337 0.0
0.995267 -0.019701 0.0
1.000577 -0.018028 0.0
1.005441 -0.016369 0.0
1.009860 -0.014763 0.0
1.013849 -0.013237 0.0
1.017431 -0.011810 0.0
1.020632 -0.010491 0.0
1.023481 -0.009287 0.0
1.026009 -0.008196 0.0
1.028246 -0.007214 0.0
1.030221 -0.006338 0.0
1.031961 -0.005558 0.0
1.033491 -0.004869 0.0
1.034835 -0.004261 0.0
1.036015 -0.003727 0.0
1.037048 -0.003259 0.0
1.037954 -0.002852 0.0
1.038746 -0.002497 0.0
1.039439 -0.002191 0.0
1.040046 -0.001927 0.0
1.040576 -0.001702 0.0
1.041039 -0.001512 0.0
1.041443 -0.001355 0.0
1.041797 -0.001228 0.0
1.042106 -0.001130 0.0
1.042376 -0.001060 0.0
1.042610 -0.001019 0.0
1.042814 -0.001009 0.0
1.042988 -0.001030 0.0
1.043134 -0.001088 0.0
1.043251 -0.001186 0.0
1.043333 -0.001330 0.0
1.043374 -0.001526 0.0
1.043357 -0.001778 0.0
1.043262 -0.002082 0.0
1.043074 -0.002423 0.0
1.001138 -0.011967 0.0
1.005713 -0.036071 0.0
1.015108 -0.061286 0.0
1.030020 -0.088329 0.0
1.051699 -0.117509 0.0
1.081971 -0.148370 0.0
1.123011 -0.179088 0.0
1.176353 -0.205307 0.0
1.242401 -0.222155 0.0
1.310362 -0.209686 0.0
1.365117 -0.178231 0.0
1.402955 -0.140579 0.0
1.426305 -0.103750 0.0
1.438616 -0.071003 0.0
1.442904 -0.043928 0.0
1.441704 -0.023246 0.0
1.437199 -0.009109 0.0
1.431373 -0.001318 0.0
1.426215 0.000644 0.0
1.423880 -0.002171 0.0
1.426614 -0.007629 0.0
1.435943 -0.011746 0.0
1.451182 -0.009222 0.0
1.468513 0.003800 0.0
1.482734 0.026673 0.0
1.490220 0.055864 0.0
1.489668 0.087512 0.0
1.481434 0.118271 0.0
1.466805 0.145893 0.0
1.447306 0.169091 0.0
1.424318 0.187210 0.0
1.398927 0.199941 0.0
1.371903 0.207149 0.0
1.343731 0.208818 0.0
1.314670 0.205064 0.0
1.284813 0.196205 0.0
1.254180 0.182821 0.0
1.222813 0.165786 0.0
1.190878 0.146228 0.0
1.158735 0.125400 0.0
1.126949 0.104512 0.0
1.096203 0.084568 0.0
1.067176 0.066304 0.0
1.040425 0.050192 0.0
1.016332 0.036437 0.0
0.995115 0.025014 0.0
0.976860 0.015642 0.0
0.961570 0.007899 0.0
0.949229 0.001332 0.0
0.939829 -0.004470 0.0
0.933311 -0.009793 0.0
0.929544 -0.014761 0.0
0.928324 -0.019366 0.0
0.929385 -0.023512 0.0
0.932399 -0.027064 0.0
0.937001 -0.029898 0.0
0.942807 -0.031934 0.0
0.949447 -0.033149 0.0
0.956581 -0.033575 0.0
0.963917 -0.033291 0.0
0.971219 -0.032403 0.0
0.978304 -0.031037 0.0
0.985043 -0.029315 0.0
0.991351 -0.027354 0.0
0.997179 -0.025257 0.0
1.002507 -0.023110 0.0
1.007336 -0.020980 0.0
1.011683 -0.018918 0.0
1.015574 -0.016962 0.0
1.019039 -0.015133 0.0
1.022116 -0.013445 0.0
1.024838 -0.011904 0.0
1.027241 -0.010509 0.0
1.029357 -0.009255 0.0
1.031219 -0.008134 0.0
1.032853 -0.007137 0.0
1.034287 -0.006254 0.0
1.035544 -0.005476 0.0
1.036645 -0.004791 0.0
1.037608 -0.004191 0.0
1.038450 -0.003667 0.0
1.039185 -0.003210 0.0
1.039828 -0.002813 0.0
1.040388 -0.002471 0.0
1.040877 -0.002177 0.0
1.041303 -0.001926 0.0
1.041673 -0.001715 0.0
1.041994 -0.001542 0.0
1.042271 -0.001402 0.0
1.042510 -0.001296 0.0
1.042714 -0.001222 0.0
1.042885 -0.001181 0.0
1.043025 -0.001173 0.0
1.043134 -0.001200 0.0
1.043210 -0.001266 0.0
1.043248 -0.001371 0.0
1.043241 -0.001519 0.0
1.043181 -0.001707 0.0
1.043054 -0.001931 0.0
1.042850 -0.002182 0.0
1.000865 -0.013970 0.0
1.004371 -0.042149 0.0
1.011737 -0.071967 0.0
1.023932 -0.104754 0.0
1.042793 -0.141624 0.0
1.071340 -0.183075 0.0
1.114008 -0.228092 0.0
1.175754 -0.271393 0.0
1.264147 -0.310510 0.0
1.353879 -0.279024 0.0
1.412047 -0.221817 0.0
1.442163 -0.164947 0.0
1.454439 -0.115008 0.0
1.455495 -0.073112 0.0
1.449116 -0.039727 0.0
1.437871 -0.015001 0.0
1.423532 0.001491 0.0
1.407750 0.009689 0.0
1.392610 0.009935 0.0
1.380424 0.003057 0.0
1.374326 -0.009492 0.0
1.378218 -0.023103 0.0
1.393866 -0.028753 0.0
1.418134 -0.018267 0.0
1.442510 0.010142 0.0
1.458941 0.048478 0.0
1.465034 0.089357 0.0
1.461823 0.127869 0.0
1.451363 0.161384 0.0
1.435623 0.188839 0.0
1.416099 0.209974 0.0
1.393824 0.224843 0.0
1.369484 0.233611 0.0
1.343521 0.236491 0.0
1.316202 0.233771 0.0
1.287687 0.225870 0.0
1.258086 0.213389 0.0
1.227536 0.197135 0.0
1.196266 0.178084 0.0
1.164647 0.157305 0.0
1.133189 0.135853 0.0
1.102479 0.114682 0.0
1.073105 0.094592 0.0
1.045573 0.076186 0.0
1.020283 0.059825 0.0
0.997535 0.045593 0.0
0.977558 0.033294 0.0
0.960547 0.022548 0.0
0.946659 0.012911 0.0
0.936002 0.004010 0.0
0.928605 -0.004358 0.0
0.924401 -0.012223 0.0
0.923190 -0.019474 0.0
0.924652 -0.025928 0.0
0.928373 -0.031384 0.0
0.933880 -0.035686 0.0
0.940681 -0.038754 0.0
0.948311 -0.040599 0.0
0.956359 -0.041307 0.0
0.964487 -0.041022 0.0
0.972433 -0.039919 0.0
0.980010 -0.038183 0.0
0.987094 -0.035992 0.0
0.993618 -0.033507 0.0
0.999551 -0.030865 0.0
1.004896 -0.028175 0.0
1.009675 -0.025523 0.0
1.013922 -0.022970 0.0
1.017681 -0.020559 0.0
1.020995 -0.018316 0.0
1.023910 -0.016254 0.0
1.026468 -0.014377 0.0
1.028711 -0.012682 0.0
1.030675 -0.011162 0.0
1.032394 -0.009806 0.0
1.033896 -0.008602 0.0
1.035210 -0.007537 0.0
1.036357 -0.006598 0.0
1.037359 -0.005772 0.0
1.038234 -0.005048 0.0
1.038997 -0.004415 0.0
1.039662 -0.003863 0.0
1.040242 -0.003383 0.0
1.040746 -0.002967 0.0
1.041185 -0.002608 0.0
1.041565 -0.002300 0.0
1.041893 -0.002040 0.0
1.042176 -0.001821 0.0
1.042418 -0.001642 0.0
1.042622 -0.001499 0.0
1.042792 -0.001392 0.0
1.042929 -0.001319 0.0
1.043035 -0.001280 0.0
1.043108 -0.001275 0.0
1.043147 -0.001305 0.0
1.043148 -0.001371 0.0
1.043105 -0.001470 0.0
1.043012 -0.001602 0.0
1.042861 -0.001759 0.0
1.042647 -0.001937 0.0
1.000465 -0.015301 0.0
1.002362 -0.046221 0.0
1.006483 -0.079382 0.0
1.013820 -0.116872 0.0
1.026460 -0.161007 0.0
1.048395 -0.214174 0.0
1.086847 -0.278112 0.0
1.153071 -0.349342 0.0
1.273605 -0.441488 0.0
1.385821 -0.349994 0.0
1.424858 -0.248052 0.0
1.426676 -0.170646 0.0
1.415685 -0.110596 0.0
1.399273 -0.062169 0.0
1.379345 -0.024362 0.0
1.355617 0.004606 0.0
1.328049 0.023790 0.0
1.298516 0.032705 0.0
1.269175 0.031402 0.0
1.242445 0.020505 0.0
1.220668 0.000936 0.0
1.208564 -0.025319 0.0
1.212826 -0.046447 0.0
1.236186 -0.048201 0.0
1.273112 -0.021226 0.0
1.308302 0.028225 0.0
1.331398 0.080422 0.0
1.343762 0.127652 0.0
1.348382 0.167441 0.0
1.347353 0.199551 0.0
1.341779 0.224361 0.0
1.332220 0.242289 0.0
1.319041 0.253684 0.0
1.302559 0.258864 0.0
1.283094 0.258182 0.0
1.260977 0.252092 0.0
1.236551 0.241194 0.0
1.210191 0.226241 0.0
1.182329 0.208110 0.0
1.153468 0.187758 0.0
1.124173 0.166153 0.0
1.095031 0.144233 0.0
1.066603 0.122844 0.0
1.039395 0.102674 0.0
1.013856 0.084166 0.0
0.990410 0.067447 0.0
0.969479 0.052348 0.0
0.951474 0.038510 0.0
0.936766 0.025545 0.0
0.925623 0.013177 0.0
0.918169 0.001325 0.0
0.914363 -0.009897 0.0
0.913999 -0.020225 0.0
0.916692 -0.029333 0.0
0.921913 -0.036920 0.0
0.929045 -0.042788 0.0
0.937464 -0.046873 0.0
0.946598 -0.049245 0.0
0.955963 -0.050075 0.0
0.965181 -0.049601 0.0
0.973982 -0.048087 0.0
0.982185 -0.045796 0.0
0.989693 -0.042971 0.0
0.996465 -0.039823 0.0
1.002505 -0.036523 0.0
1.007847 -0.033204 0.0
1.012541 -0.029967 0.0
1.016648 -0.026880 0.0
1.020230 -0.023989 0.0
1.023347 -0.021317 0.0
1.026057 -0.018877 0.0
1.028412 -0.016667 0.0
1.030458 -0.014681 0.0
1.032236 -0.012905 0.0
1.033782 -0.011327 0.0
1.035126 -0.009928 0.0
1.036295 -0.008693 0.0
1.037312 -0.007606 0.0
1.038198 -0.006651 0.0
1.038968 -0.005814 0.0
1.039639 -0.005082 0.0
1.040222 -0.004444 0.0
1.040728 -0.003888 0.0
1.041167 -0.003405 0.0
1.041547 -0.002988 0.0
1.041875 -0.002628 0.0
1.042156 -0.002321 0.0
1.042395 -0.002062 0.0
1.042597 -0.001845 0.0
1.042764 -0.001668 0.0
1.042899 -0.001528 0.0
1.043001 -0.001423 0.0
1.043073 -0.001353 0.0
1.043113 -0.001315 0.0
1.043118 -0.001310 0.0
1.043087 -0.001335 0.0
1.043014 -0.001390 0.0
1.042896 -0.001470 0.0
1.042727 -0.001571 0.0
1.042504 -0.001687 0.0
0.999936 -0.015702 0.0
0.999665 -0.047445 0.0
0.999246 -0.081860 0.0
0.999246 -0.121731 0.0
1.001173 -0.170715 0.0
1.008668 -0.233896 0.0
1.030273 -0.318446 0.0
1.085020 -0.429980 0.0
1.235738 -0.632101 0.0
1.344716 -0.380575 0.0
1.310750 -0.222542 0.0
1.254770 -0.141993 0.0
1.211788 -0.085277 0.0
1.178685 -0.037973 0.0
1.145646 0.004410 0.0
1.106882 0.038326 0.0
1.063298 0.061223 0.0
1.015823 0.072280 0.0
0.966012 0.070980 0.0
0.916970 0.056699 0.0
0.874333 0.029156 0.0
0.843607 -0.010710 0.0
0.833202 -0.054913 0.0
0.852762 -0.082656 0.0
0.903157 -0.074091 0.0
0.973628 -0.024571 0.0
1.040819 0.042931 0.0
1.091692 0.101905 0.0
1.130730 0.149529 0.0
1.161262 0.187960 0.0
1.184216 0.218572 0.0
1.199855 0.241997 0.0
1.208456 0.258554 0.0
1.210463 0.268470 0.0
1.206471 0.272032 0.0
1.197170 0.269660 0.0
1.183288 0.261934 0.0
1.165566 0.249582 0.0
1.144751 0.233447 0.0
1.121582 0.214451 0.0
1.096782 0.193555 0.0
1.071036 0.171720 0.0
1.044978 0.149842 0.0
1.019211 0.128651 0.0
0.994348 0.108591 0.0
0.971045 0.089770 0.0
0.950004 0.071998 0.0
0.931922 0.054948 0.0
0.917403 0.038335 0.0
0.906880 0.022053 0.0
0.900562 0.006221 0.0
0.898427 -0.008852 0.0
0.900210 -0.022687 0.0
0.905382 -0.034737 0.0
0.913213 -0.044567 0.0
0.922891 -0.051951 0.0
0.933644 -0.056882 0.0
0.944808 -0.059533 0.0
0.955857 -0.060200 0.0
0.966406 -0.059244 0.0
0.976203 -0.057041 0.0
0.985104 -0.053947 0.0
0.993053 -0.050277 0.0
1.000056 -0.046292 0.0
1.006163 -0.042200 0.0
1.011447 -0.038153 0.0
1.015996 -0.034261 0.0
1.019899 -0.030596 0.0
1.023243 -0.027199 0.0
1.026106 -0.024088 0.0
1.028560 -0.021269 0.0
1.030665 -0.018734 0.0
1.032473 -0.016468 0.0
1.034029 -0.014452 0.0
1.035371 -0.012667 0.0
1.036530 -0.011091 0.0
1.037532 -0.009702 0.0
1.038399 -0.008482 0.0
1.039151 -0.007412 0.0
1.039803 -0.006475 0.0
1.040368 -0.005657 0.0
1.040857 -0.004942 0.0
1.041281 -0.004319 0.0
1.041647 -0.003778 0.0
1.041961 -0.003309 0.0
1.042231 -0.002904 0.0
1.042460 -0.002556 0.0
1.042653 -0.002259 0.0
1.042812 -0.002008 0.0
1.042939 -0.001799 0.0
1.043037 -0.001629 0.0
1.043105 -0.001494 0.0
1.043143 -0.001393 0.0
1.043151 -0.001323 0.0
1.043127 -0.001283 0.0
1.043068 -0.001271 0.0
1.042970 -0.001284 0.0
1.042831 -0.001319 0.0
1.042647 -0.001370 0.0
1.042415 -0.001433 0.0
0.999329 -0.014966 0.0
0.996552 -0.045134 0.0
0.990741 -0.077943 0.0
0.981533 -0.116440 0.0
0.968652 -0.165052 0.0
0.952593 -0.230996 0.0
0.936981 -0.327339 0.0
0.937309 -0.476163 0.0
1.038925 -0.838252 0.0
1.048894 -0.188879 0.0
0.878855 -0.095696 0.0
0.752932 -0.076890 0.0
0.694870 -0.049336 0.0
0.656210 -0.002151 0.0
0.611255 0.046583 0.0
0.558397 0.087775 0.0
0.497322 0.116433 0.0
0.432359 0.129507 0.0
0.370697 0.125225 0.0
0.320455 0.101739 0.0
0.290284 0.056924 0.0
0.288456 -0.005924 0.0
0.316841 -0.077678 0.0
0.370987 -0.133597 0.0
0.446852 -0.149412 0.0
0.542836 -0.115706 0.0
0.654755 -0.045044 0.0
0.762017 0.031745 0.0
0.847999 0.094670 0.0
0.916853 0.143435 0.0
0.973470 0.183525 0.0
1.018818 0.216056 0.0
1.053451 0.241261 0.0
1.078043 0.259164 0.0
1.093470 0.269904 0.0
1.100728 0.273832 0.0
1.100863 0.271510 0.0
1.094914 0.263677 0.0
1.083882 0.251200 0.0
1.068712 0.235037 0.0
1.050283 0.216197 0.0
1.029414 0.195693 0.0
1.006894 0.174447 0.0
0.983541 0.153165 0.0
0.960262 0.132219 0.0
0.938069 0.111637 0.0
0.918031 0.091210 0.0
0.901161 0.070688 0.0
0.888305 0.049969 0.0
0.880049 0.029198 0.0
0.876679 0.008765 0.0
0.878139 -0.010722 0.0
0.883935 -0.028397 0.0
0.893171 -0.043435 0.0
0.904788 -0.055316 0.0
0.917778 -0.063871 0.0
0.931290 -0.069228 0.0
0.944659 -0.071721 0.0
0.957405 -0.071807 0.0
0.969206 -0.069988 0.0
0.979874 -0.066762 0.0
0.989330 -0.062582 0.0
0.997574 -0.057835 0.0
1.004668 -0.052831 0.0
1.010710 -0.047808 0.0
1.015817 -0.042935 0.0
1.020113 -0.038324 0.0
1.023717 -0.034041 0.0
1.026740 -0.030120 0.0
1.029277 -0.026568 0.0
1.031412 -0.023378 0.0
1.033214 -0.020532 0.0
1.034740 -0.018005 0.0
1.036037 -0.015769 0.0
1.037144 -0.013798 0.0
1.038091 -0.012065 0.0
1.038903 -0.010543 0.0
1.039602 -0.009208 0.0
1.040205 -0.008040 0.0
1.040724 -0.007019 0.0
1.041172 -0.006126 0.0
1.041559 -0.005348 0.0
1.041891 -0.004670 0.0
1.042177 -0.004079 0.0
1.042421 -0.003567 0.0
1.042628 -0.003123 0.0
1.042801 -0.002740 0.0
1.042943 -0.002410 0.0
1.043057 -0.002130 0.0
1.043144 -0.001892 0.0
1.043204 -0.001693 0.0
1.043237 -0.001531 0.0
1.043244 -0.001401 0.0
1.043222 -0.001301 0.0
1.043170 -0.001229 0.0
1.043086 -0.001182 0.0
1.042967 -0.001157 0.0
1.042810 -0.001150 0.0
1.042613 -0.001158 0.0
1.042374 -0.001174 0.0
0.998752 -0.013047 0.0
0.993592 -0.039116 0.0
0.982595 -0.067154 0.0
0.964276 -0.099701 0.0
0.935889 -0.140522 0.0
0.892388 -0.195967 0.0
0.823853 -0.278221 0.0
0.711013 -0.412769 0.0
0.320180 -0.716920 0.0
-0.481683 0.249161 0.0
-0.481683 0.000000 0.0
-0.026766 -0.018309 0.0
-0.039206 -0.045873 0.0
0.013309 -0.019469 0.0
0.076974 0.045192 0.0
0.103601 0.115396 0.0
0.090043 0.163446 0.0
0.052781 0.184718 0.0
0.006654 0.177802 0.0
-0.034326 0.140384 0.0
-0.058677 0.072801 0.0
-0.059297 -0.019353 0.0
-0.033804 -0.118127 0.0
0.015830 -0.196928 0.0
0.087585 -0.233701 0.0
0.179442 -0.219257 0.0
0.291186 -0.165155 0.0
0.421864 -0.086084 0.0
0.553802 -0.005421 0.0
0.664507 0.063967 0.0
0.752035 0.118848 0.0
0.823481 0.163939 0.0
0.881388 0.200838 0.0
0.926833 0.229548 0.0
0.960852 0.250075 0.0
0.984559 0.262695 0.0
0.999106 0.267963 0.0
1.005627 0.266651 0.0
1.005202 0.259683 0.0
0.998848 0.248078 0.0
0.987533 0.232900 0.0
0.972212 0.215180 0.0
0.953898 0.195794 0.0
0.933738 0.175332 0.0
0.913046 0.154023 0.0
0.893273 0.131800 0.0
0.875888 0.108471 0.0
0.862239 0.083945 0.0
0.853413 0.058395 0.0
0.850121 0.032320 0.0
0.852611 0.006522 0.0
0.860417 -0.017747 0.0
0.872320 -0.039070 0.0
0.886834 -0.056511 0.0
0.902660 -0.069683 0.0
0.918803 -0.078638 0.0
0.934556 -0.083725 0.0
0.949436 -0.085473 0.0
0.963135 -0.084499 0.0
0.975474 -0.081435 0.0
0.986374 -0.076884 0.0
0.995838 -0.071380 0.0
1.003927 -0.065371 0.0
1.010747 -0.059210 0.0
1.016434 -0.053158 0.0
1.021133 -0.047392 0.0
1.024994 -0.042023 0.0
1.028154 -0.037107 0.0
1.030740 -0.032662 0.0
1.032858 -0.028682 0.0
1.034601 -0.025142 0.0
1.036040 -0.022010 0.0
1.037236 -0.019249 0.0
1.038236 -0.016822 0.0
1.039076 -0.014693 0.0
1.039786 -0.012827 0.0
1.040388 -0.011195 0.0
1.040902 -0.009768 0.0
1.041341 -0.008521 0.0
1.041717 -0.007433 0.0
1.042038 -0.006482 0.0
1.042314 -0.005654 0.0
1.042549 -0.004932 0.0
1.042749 -0.004303 0.0
1.042918 -0.003756 0.0
1.043058 -0.003281 0.0
1.043172 -0.002869 0.0
1.043263 -0.002514 0.0
1.043330 -0.002207 0.0
1.043375 -0.001945 0.0
1.043398 -0.001723 0.0
1.043397 -0.001535 0.0
1.043373 -0.001379 0.0
1.043323 -0.001252 0.0
1.043246 -0.001150 0.0
1.043140 -0.001070 0.0
1.043002 -0.001010 0.0
1.042829 -0.000967 0.0
1.042621 -0.000936 0.0
1.042375 -0.000911 0.0
0.998332 -0.010130 0.0
0.991454 -0.029994 0.0
0.976783 -0.050609 0.0
0.952174 -0.073318 0.0
0.913495 -0.099838 0.0
0.852729 -0.132384 0.0
0.752989 -0.173529 0.0
0.574192 -0.225823 0.0
0.228950 -0.267469 0.0
0.000000 0.249161 0.0
-0.000000 -0.000000 0.0
0.000000 0.000000 0.0
-0.029568 -0.030100 0.0
-0.068711 -0.048083 0.0
-0.077759 0.019191 0.0
-0.086980 0.123989 0.0
-0.115978 0.197410 0.0
-0.158497 0.230536 0.0
-0.203203 0.222818 0.0
-0.238668 0.171813 0.0
-0.254656 0.081711 0.0
-0.245170 -0.037131 0.0
-0.214386 -0.156626 0.0
-0.170213 -0.252236 0.0
-0.112717 -0.307645 0.0
-0.035728 -0.314158 0.0
0.060607 -0.278332 0.0
0.173126 -0.216105 0.0
0.300209 -0.134421 0.0
0.431371 -0.048900 0.0
0.547895 0.027662 0.0
0.641059 0.090515 0.0
0.716087 0.141327 0.0
0.777149 0.182552 0.0
0.825719 0.214483 0.0
0.862905 0.237394 0.0
0.889768 0.251854 0.0
0.907323 0.258685 0.0
0.916543 0.258855 0.0
0.918392 0.253411 0.0
0.913875 0.243399 0.0
0.904115 0.229762 0.0
0.890434 0.213207 0.0
0.874407 0.194106 0.0
0.857847 0.172500 0.0
0.842703 0.148241 0.0
0.830887 0.121231 0.0
0.824053 0.091667 0.0
0.823368 0.060183 0.0
0.829316 0.027876 0.0
0.841371 -0.003579 0.0
0.857768 -0.031849 0.0
0.876345 -0.055446 0.0
0.895490 -0.073795 0.0
0.914177 -0.086913 0.0
0.931806 -0.095180 0.0
0.948051 -0.099180 0.0
0.962752 -0.099600 0.0
0.975851 -0.097170 0.0
0.987353 -0.092605 0.0
0.997308 -0.086569 0.0
1.005799 -0.079648 0.0
1.012937 -0.072329 0.0
1.018855 -0.064990 0.0
1.023698 -0.057908 0.0
1.027618 -0.051262 0.0
1.030762 -0.045158 0.0
1.033269 -0.039639 0.0
1.035261 -0.034708 0.0
1.036844 -0.030338 0.0
1.038105 -0.026489 0.0
1.039116 -0.023112 0.0
1.039932 -0.020157 0.0
1.040595 -0.017576 0.0
1.041139 -0.015323 0.0
1.041588 -0.013357 0.0
1.041963 -0.011643 0.0
1.042276 -0.010148 0.0
1.042540 -0.008844 0.0
1.042763 -0.007708 0.0
1.042951 -0.006717 0.0
1.043110 -0.005853 0.0
1.043242 -0.005100 0.0
1.043353 -0.004444 0.0
1.043443 -0.003873 0.0
1.043514 -0.003376 0.0
1.043568 -0.002943 0.0
1.043605 -0.002567 0.0
1.043625 -0.002241 0.0
1.043629 -0.001960 0.0
1.043614 -0.001716 0.0
1.043581 -0.001507 0.0
1.043527 -0.001329 0.0
1.043452 -0.001177 0.0
1.043352 -0.001048 0.0
1.043225 -0.000939 0.0
1.043070 -0.000848 0.0
1.042885 -0.000771 0.0
1.042666 -0.000706 0.0
1.042414 -0.000643 0.0
0.998151 -0.006613 0.0
0.990567 -0.019050 0.0
0.974531 -0.030846 0.0
0.948028 -0.041970 0.0
0.907475 -0.051954 0.0
0.846957 -0.058985 0.0
0.757524 -0.057756 0.0
0.628085 -0.033358 0.0
0.463214 0.054992 0.0
0.187258 0.168654 0.0
0.000000 0.000000 0.0
-0.000000 -0.000000 0.0
0.000000 0.000000 0.0
-0.019016 -0.019255 0.0
-0.058106 0.038738 0.0
-0.106523 0.162079 0.0
-0.160072 0.241868 0.0
-0.207282 0.275808 0.0
-0.245866 0.260835 0.0
-0.269007 0.192402 0.0
-0.267287 0.075390 0.0
-0.239953 -0.067630 0.0
-0.199733 -0.197130 0.0
-0.158043 -0.297596 0.0
-0.116599 -0.361225 0.0
-0.070002 -0.384165 0.0
-0.009184 -0.365478 0.0
0.068807 -0.319468 0.0
0.162039 -0.251373 0.0
0.267825 -0.168896 0.0
0.379681 -0.080721 0.0
0.484825 0.000591 0.0
0.572363 0.068686 0.0
0.643115 0.123380 0.0
0.700929 0.167271 0.0
0.747260 0.201088 0.0
0.783025 0.225532 0.0
0.808991 0.241487 0.0
0.825910 0.249913 0.0
0.834642 0.251771 0.0
0.836258 0.247939 0.0
0.832138 0.239103 0.0
0.824032 0.225653 0.0
0.814067 0.207652 0.0
0.804644 0.184938 0.0
0.798212 0.157379 0.0
0.796934 0.125186 0.0
0.802314 0.089166 0.0
0.814875 0.050808 0.0
0.833877 0.012302 0.0
0.856762 -0.022946 0.0
0.880495 -0.052612 0.0
0.903258 -0.076023 0.0
0.924176 -0.093281 0.0
0.942914 -0.104852 0.0
0.959428 -0.111384 0.0
0.973817 -0.113611 0.0
0.986247 -0.112300 0.0
0.996898 -0.108221 0.0
1.005950 -0.102109 0.0