# vtk DataFile Version 3.0
Scalar Field
ASCII
DATASET RECTILINEAR_GRID
DIMENSIONS 100 26 1
X_COORDINATES 100 double
0.050000 0.150000 0.250000 0.350000 0.450000 0.550000 0.650000 0.750000 0.850000 0.950000 1.050000 1.150000 1.250000 1.350000 1.450000 1.550000 1.650000 1.750000 1.850000 1.950000 2.050000 2.150000 2.250000 2.350000 2.450000 2.550000 2.650000 2.750000 2.850000 2.950000 3.050000 3.150000 3.250000 3.350000 3.450000 3.550000 3.650000 3.750000 3.850000 3.950000 4.050000 4.150000 4.250000 4.350000 4.450000 4.550000 4.650000 4.750000 4.850000 4.950000 5.050000 5.150000 5.250000 5.350000 5.450000 5.550000 5.650000 5.750000 5.850000 5.950000 6.050000 6.150000 6.250000 6.350000 6.450000 6.550000 6.650000 6.750000 6.850000 6.950000 7.050000 7.150000 7.250000 7.350000 7.450000 7.550000 7.650000 7.750000 7.850000 7.950000 8.050000 8.150000 8.250000 8.350000 8.450000 8.550000 8.650000 8.750000 8.850000 8.950000 9.050000 9.150000 9.250000 9.350000 9.450000 9.550000 9.650000 9.750000 9.850000 9.950000 
Y_COORDINATES 26 double
0.050000 0.150000 0.250000 0.350000 0.450000 0.550000 0.650000 0.750000 0.850000 0.950000 1.050000 1.150000 1.250000 1.350000 1.450000 1.550000 1.650000 1.750000 1.850000 1.950000 2.050000 2.150000 2.250000 2.350000 2.450000 2.550000 
Z_COORDINATES 1 double
0.0
POINT_DATA 2600
SCALARS Skalarfeld double 1
LOOKUP_TABLE default
0.263930
0.248539
0.233011
0.214328
0.191380
0.163716
0.131331
0.094665
0.054671
0.012843
-0.028904
-0.068531
-0.104228
-0.134688
-0.158827
-0.176050
-0.186514
-0.190702
-0.189338
-0.183297
-0.173523
-0.160958
-0.146494
-0.130942
-0.115022
-0.099366
-0.084526
-0.070969
-0.059047
-0.048961
-0.040721
-0.034149
-0.028957
-0.024886
-0.021813
-0.019799
-0.019049
-0.019818
-0.022280
-0.026397
-0.031823
-0.037847
-0.043347
-0.046764
-0.046378
-0.041597
-0.031734
-0.019952
-0.008033
0.003156
0.013232
0.022075
0.029689
0.036123
0.041441
0.045728
0.049042
0.051449
0.052870
0.052849
0.051025
0.047146
0.041310
0.034098
0.026481
0.019383
0.013181
0.007669
0.002506
-0.002309
-0.006373
-0.009176
-0.010445
-0.010280
-0.008767
-0.006345
-0.003359
-0.000067
0.003258
0.006320
0.009034
0.011221
0.012895
0.014290
0.015718
0.017511
0.019911
0.023018
0.026835
0.031373
0.036682
0.042820
0.049818
0.057667
0.066316
0.075704
0.085742
0.096445
0.107744
0.120215
0.255303
0.248717
0.236170
0.218638
0.195981
0.168005
0.134733
0.096609
0.054672
0.010631
-0.033254
-0.074630
-0.111479
-0.142284
-0.166332
-0.183396
-0.193417
-0.196925
-0.194697
-0.187660
-0.176810
-0.163144
-0.147608
-0.131066
-0.114284
-0.097941
-0.082632
-0.068865
-0.057013
-0.047285
-0.039644
-0.033809
-0.029356
-0.025915
-0.023306
-0.021580
-0.020964
-0.021752
-0.024160
-0.028191
-0.033539
-0.039527
-0.045012
-0.048244
-0.047058
-0.040119
-0.030642
-0.019526
-0.008058
0.002821
0.012672
0.021350
0.028858
0.035250
0.040602
0.045029
0.048730
0.051701
0.053328
0.053458
0.051754
0.047848
0.041853
0.034435
0.026709
0.019650
0.013529
0.007950
0.002475
-0.002816
-0.007313
-0.010317
-0.011517
-0.011168
-0.009403
-0.006877
-0.003789
-0.000359
0.003121
0.006460
0.009295
0.011476
0.013019
0.014266
0.015527
0.017167
0.019443
0.022442
0.026158
0.030608
0.035860
0.041984
0.049011
0.056923
0.065666
0.075194
0.085510
0.096447
0.107870
0.121040
0.258845
0.254609
0.243924
0.227360
0.204855
0.176148
0.141113
0.100089
0.054208
0.005593
-0.042686
-0.087577
-0.126773
-0.158852
-0.183182
-0.199777
-0.208704
-0.210594
-0.206330
-0.196938
-0.183529
-0.167231
-0.149136
-0.130257
-0.111511
-0.093719
-0.077610
-0.063817
-0.052764
-0.044587
-0.039110
-0.035728
-0.033571
-0.031961
-0.030566
-0.029396
-0.028715
-0.028890
-0.030223
-0.032806
-0.036403
-0.040368
-0.043585
-0.044557
-0.041960
-0.035488
-0.026176
-0.015884
-0.005703
0.004101
0.013047
0.020981
0.027885
0.033800
0.038793
0.042959
0.046403
0.049136
0.051079
0.051674
0.050341
0.046960
0.041752
0.035162
0.028032
0.021081
0.014548
0.008271
0.002131
-0.003582
-0.008202
-0.011107
-0.012103
-0.011399
-0.009870
-0.007577
-0.004525
-0.001016
0.002514
0.005859
0.008736
0.011016
0.012760
0.014058
0.015256
0.016690
0.018642
0.021269
0.024654
0.028885
0.034051
0.040196
0.047337
0.055447
0.064477
0.074394
0.085203
0.096940
0.109578
0.124652
0.270238
0.266759
0.257073
0.241151
0.218573
0.188692
0.150944
0.105319
0.052970
-0.003352
-0.058795
-0.109026
-0.151440
-0.184919
-0.209249
-0.224735
-0.231770
-0.231087
-0.223695
-0.210747
-0.193507
-0.173286
-0.151382
-0.129017
-0.107309
-0.087258
-0.069776
-0.055771
-0.045871
-0.040134
-0.037953
-0.038328
-0.039855
-0.041114
-0.041568
-0.041188
-0.040305
-0.039400
-0.038902
-0.039026
-0.039668
-0.040359
-0.040291
-0.038515
-0.034341
-0.027735
-0.019369
-0.010218
-0.000999
0.007532
0.015270
0.022108
0.028021
0.033038
0.037213
0.040638
0.043422
0.045625
0.047184
0.047803
0.047160
0.044834
0.040559
0.034694
0.028029
0.021169
0.014453
0.007979
0.001876
-0.003532
-0.007777
-0.010507
-0.011670
-0.011436
-0.010050
-0.007559
-0.004464
-0.001173
0.002122
0.005389
0.008217
0.010457
0.012110
0.013287
0.014263
0.015366
0.016894
0.019066
0.022073
0.026069
0.031182
0.037393
0.044701
0.053088
0.062528
0.073032
0.084697
0.097739
0.112312
0.133605
0.288053
0.284959
0.276017
0.260730
0.238138
0.206885
0.165518
0.113162
0.050679
-0.018459
-0.085055
-0.142559
-0.188551
-0.222940
-0.246385
-0.259706
-0.263675
-0.259211
-0.247386
-0.229482
-0.206957
-0.181364
-0.154265
-0.127148
-0.101357
-0.078077
-0.058374
-0.043805
-0.035365
-0.033124
-0.036003
-0.041886
-0.048451
-0.053474
-0.056100
-0.056391
-0.054910
-0.052393
-0.049484
-0.046585
-0.043781
-0.040849
-0.037343
-0.032769
-0.026833
-0.019616
-0.011557
-0.003247
0.004795
0.012182
0.018743
0.024440
0.029216
0.033117
0.036210
0.038619
0.040504
0.042009
0.043135
0.043654
0.043186
0.041303
0.037757
0.032674
0.026382
0.019449
0.012641
0.006222
0.000474
-0.004335
-0.007939
-0.010169
-0.011028
-0.010636
-0.009182
-0.006869
-0.003990
-0.000770
0.002613
0.005655
0.008271
0.010283
0.011663
0.012473
0.012978
0.013513
0.014402
0.015964
0.018455
0.022074
0.026984
0.033096
0.040455
0.049033
0.058811
0.069838
0.082291
0.096546
0.113223
0.141625
0.311566
0.308866
0.300881
0.286719
0.264752
0.232544
0.187020
0.125322
0.046994
-0.044500
-0.127957
-0.193869
-0.242254
-0.275832
-0.296757
-0.306280
-0.305822
-0.296199
-0.278411
-0.253874
-0.224303
-0.191579
-0.157617
-0.124245
-0.093088
-0.065496
-0.042525
-0.026747
-0.020041
-0.022652
-0.032840
-0.047074
-0.060787
-0.070505
-0.075333
-0.075750
-0.072880
-0.067962
-0.062007
-0.055668
-0.049234
-0.042706
-0.035911
-0.028654
-0.020865
-0.012680
-0.004417
0.003543
0.010865
0.017308
0.022727
0.027081
0.030540
0.033154
0.034959
0.036168
0.036986
0.037667
0.038322
0.038755
0.038534
0.037141
0.034172
0.029514
0.023367
0.016432
0.009466
0.002920
-0.002576
-0.006830
-0.009715
-0.011205
-0.011388
-0.010435
-0.008563
-0.006001
-0.002993
0.000232
0.003445
0.006362
0.008785
0.010540
0.011500
0.011757
0.011532
0.011192
0.011156
0.011818
0.013503
0.016450
0.020805
0.026624
0.033892
0.042541
0.052525
0.063890
0.076852
0.091890
0.109893
0.141058
0.340038
0.337919
0.331494
0.319547
0.299748
0.268219
0.219158
0.145360
0.041615
-0.092046
-0.198813
-0.269934
-0.315592
-0.344675
-0.360921
-0.365018
-0.359132
-0.343102
-0.317778
-0.284778
-0.246191
-0.204354
-0.161665
-0.120417
-0.082629
-0.049872
-0.023040
-0.004725
0.000633
-0.007481
-0.026548
-0.051562
-0.075893
-0.092403
-0.099306
-0.099126
-0.093950
-0.085830
-0.076286
-0.066250
-0.056187
-0.046250
-0.036428
-0.026687
-0.017070
-0.007731
0.001082
0.009102
0.016105
0.021930
0.026456
0.029577
0.031214
0.031564
0.031214
0.030985
0.030529
0.030247
0.030509
0.031118
0.031514
0.031027
0.029081
0.025357
0.019879
0.013072
0.005583
-0.001213
-0.006727
-0.010728
-0.013104
-0.013913
-0.013339
-0.011638
-0.009096
-0.005993
-0.002594
0.000863
0.004153
0.007034
0.009272
0.010655
0.011055
0.010526
0.009311
0.007822
0.006556
0.006009
0.006603
0.008635
0.012247
0.017663
0.024762
0.033398
0.043464
0.054961
0.068080
0.083282
0.101431
0.131529
0.372384
0.371135
0.367170
0.359136
0.344229
0.317110
0.268099
0.181186
0.034486
-0.185293
-0.313891
-0.372836
-0.403380
-0.422825
-0.433646
-0.433237
-0.422310
-0.399453
-0.365570
-0.322704
-0.273492
-0.220879
-0.167913
-0.117535
-0.072354
-0.034447
-0.005321
0.016905
0.022448
0.010379
-0.015673
-0.049648
-0.084109
-0.111511
-0.122844
-0.122269
-0.114777
-0.103533
-0.090640
-0.077294
-0.064082
-0.051245
-0.038865
-0.026994
-0.015731
-0.005241
0.004262
0.012567
0.019489
0.024856
0.028464
0.030096
0.029665
0.027452
0.024177
0.020640
0.018446
0.017572
0.018089
0.019531
0.021151
0.022141
0.021798
0.019639
0.015504
0.009617
0.002575
-0.004664
-0.010873
-0.014990
-0.017259
-0.017724
-0.016623
-0.014288
-0.011090
-0.007385
-0.003497
0.000298
0.003747
0.006603
0.008615
0.009554
0.009281
0.007831
0.005463
0.002641
-0.000034
-0.001938
-0.002536
-0.001475
0.001458
0.006483
0.013390
0.021942
0.031951
0.043346
0.056234
0.070967
0.088213
0.115212
0.406982
0.406911
0.406393
0.404311
0.398084
0.381954
0.342890
0.251093
0.031812
-0.382117
-0.484835
-0.483161
-0.481091
-0.488297
-0.499141
-0.500800
-0.488045
-0.460003
-0.418503
-0.366321
-0.306777
-0.243540
-0.180479
-0.121412
-0.069707
-0.027923
0.002149
0.020464
0.027312
0.014676
-0.011558
-0.045700
-0.081604
-0.112685
-0.133417
-0.136095
-0.128297
-0.115816
-0.101320
-0.086222
-0.071208
-0.056599
-0.042563
-0.029240
-0.016797
-0.005440
0.004603
0.013102
0.019813
0.024413
0.026482
0.025679
0.022084
0.016461
0.010150
0.004556
0.000977
0.000320
0.001901
0.004862
0.008259
0.011183
0.012852
0.012691
0.010403
0.006041
0.000045
-0.006767
-0.013353
-0.018431
-0.020989
-0.021564
-0.020367
-0.017761
-0.014179
-0.010063
-0.005811
-0.001767
0.001773
0.004529
0.006233
0.006642
0.005606
0.003157
-0.000422
-0.004599
-0.008662
-0.011864
-0.013572
-0.013386
-0.011010
-0.006327
0.000375
0.008765
0.018559
0.029589
0.041851
0.055546
0.071096
0.094004
0.441649
0.442956
0.446571
0.452068
0.458197
0.461360
0.450875
0.392453
0.135381
-0.738653
-0.677932
-0.545993
-0.512780
-0.511300
-0.530351
-0.546789
-0.537779
-0.509545
-0.465505
-0.408986
-0.343872
-0.274575
-0.205991
-0.143198
-0.090650
-0.050578
-0.023079
-0.007696
-0.005551
-0.013020
-0.029741
-0.053069
-0.079368
-0.104156
-0.122862
-0.132213
-0.128619
-0.117783
-0.104358
-0.089885
-0.075109
-0.060426
-0.046110
-0.032422
-0.019645
-0.008085
0.001937
0.010080
0.015928
0.018928
0.018489
0.014354
0.007075
-0.001839
-0.010385
-0.016876
-0.019991
-0.019349
-0.015958
-0.010943
-0.005401
-0.000306
0.003536
0.005517
0.005272
0.002730
-0.001825
-0.007733
-0.014038
-0.019668
-0.023275
-0.024342
-0.023523
-0.021112
-0.017569
-0.013397
-0.009072
-0.005008
-0.001561
0.000949
0.002227
0.002015
0.000159
-0.003301
-0.008051
-0.013485
-0.018796
-0.023139
-0.025812
-0.026378
-0.024460
-0.020080
-0.013610
-0.005478
0.003922
0.014312
0.025563
0.037719
0.050980
0.069231
0.473843
0.476485
0.484161
0.497355
0.516848
0.543523
0.577430
0.613460
0.686424
-0.026115
-0.602194
-0.526455
-0.513221
-0.510833
-0.524407
-0.549360
-0.550129
-0.527781
-0.488909
-0.436703
-0.375522
-0.310530
-0.247443
-0.191578
-0.147528
-0.116230
-0.095265
-0.082091
-0.074552
-0.069989
-0.070193
-0.075322
-0.084413
-0.095431
-0.105561
-0.112072
-0.113354
-0.107801
-0.097717
-0.086076
-0.073582
-0.060652
-0.047643
-0.034943
-0.022981
-0.012215
-0.003120
0.003782
0.007851
0.008338
0.004635
-0.003164
-0.013809
-0.025071
-0.034577
-0.040675
-0.042102
-0.039296
-0.033503
-0.026042
-0.018128
-0.010778
-0.004790
-0.000748
0.000979
0.000260
-0.002738
-0.007502
-0.013197
-0.018790
-0.023254
-0.025293
-0.025254
-0.023463
-0.020383
-0.016551
-0.012497
-0.008702
-0.005579
-0.003491
-0.002766
-0.003677
-0.006381
-0.010824
-0.016654
-0.023207
-0.029607
-0.034941
-0.038453
-0.039676
-0.038154
-0.034069
-0.027883
-0.020133
-0.011326
-0.001861
0.008008
0.018180
0.028675
0.041846
0.501110
0.504752
0.515454
0.534322
0.563495
0.606734
0.670653
0.766659
0.902360
0.939662
0.000000
-0.518956
-0.511458
-0.504192
-0.508298
-0.518369
-0.522606
-0.507591
-0.477003
-0.435017
-0.386558
-0.337215
-0.292713
-0.257585
-0.231617
-0.212283
-0.195500
-0.179930
-0.159418
-0.138647
-0.120018
-0.105189
-0.095033
-0.089520
-0.087628
-0.087602
-0.087578
-0.086135
-0.081608
-0.074112
-0.065346
-0.055644
-0.045360
-0.034966
-0.025029
-0.016160
-0.009013
-0.004315
-0.002922
-0.005698
-0.013077
-0.024416
-0.037757
-0.050386
-0.059846
-0.064629
-0.063494
-0.057895
-0.049270
-0.039103
-0.028702
-0.019115
-0.011112
-0.005219
-0.001758
-0.000855
-0.002406
-0.006014
-0.010969
-0.016331
-0.021101
-0.024336
-0.025163
-0.024248
-0.021945
-0.018773
-0.015291
-0.012024
-0.009434
-0.007928
-0.007864
-0.009532
-0.013091
-0.018469
-0.025285
-0.032834
-0.040196
-0.046412
-0.050680
-0.052504
-0.051339
-0.047579
-0.041773
-0.034565
-0.026581
-0.018338
-0.010211
-0.002427
0.004897
0.012597
0.521615
0.525722
0.537777
0.558941
0.591313
0.638091
0.703244
0.788340
0.886019
0.976963
0.897462
0.000000
-0.500934
-0.490410
-0.477589
-0.471488
-0.467228
-0.454609
-0.431230
-0.402375
-0.373775
-0.350646
-0.336083
-0.329559
-0.323809
-0.315545
-0.301227
-0.272981
-0.237855
-0.200420
-0.164159
-0.131629
-0.104589
-0.084046
-0.070168
-0.062201
-0.058604
-0.057440
-0.056840
-0.054589
-0.050134
-0.044514
-0.037912
-0.030816
-0.023883
-0.017855
-0.013553
-0.011913
-0.013972
-0.020595
-0.031871
-0.046531
-0.062022
-0.075370
-0.084227
-0.086713
-0.082574
-0.073844
-0.062194
-0.049258
-0.036420
-0.024737
-0.014935
-0.007468
-0.002580
-0.000352
-0.000692
-0.003278
-0.007511
-0.012546
-0.017428
-0.021296
-0.023178
-0.023264
-0.021895
-0.019570
-0.016849
-0.014282
-0.012367
-0.011547
-0.012210
-0.014661
-0.019059
-0.025319
-0.033035
-0.041481
-0.049710
-0.056730
-0.061696
-0.064062
-0.063258
-0.059909
-0.054638
-0.048188
-0.041293
-0.034582
-0.028539
-0.023503
-0.019699
-0.017851
0.534501
0.538521
0.550238
0.570473
0.600508
0.641829
0.695649
0.761754
0.828795
0.853343
0.817960
0.705093
0.000000
-0.464983
-0.439556
-0.418557
-0.404747
-0.387794
-0.368612
-0.353096
-0.346856
-0.353133
-0.370339
-0.393655
-0.409521
-0.410814
-0.385044
-0.344330
-0.295212
-0.243135
-0.192443
-0.146267
-0.106689
-0.074954
-0.051601
-0.036444
-0.028484
-0.025942
-0.026577
-0.028172
-0.028371
-0.027093
-0.024547
-0.021235
-0.017870
-0.015299
-0.014505
-0.016619
-0.022796
-0.033758
-0.049114
-0.066961
-0.084277
-0.097940
-0.105719
-0.105070
-0.097855
-0.085997
-0.071451
-0.055978
-0.040997
-0.027539
-0.016271
-0.007562
-0.001576
0.001669
0.002279
0.000533
-0.003059
-0.007745
-0.012634
-0.016883
-0.019657
-0.020634
-0.020187
-0.018742
-0.016837
-0.015029
-0.013840
-0.013741
-0.015142
-0.018362
-0.023557
-0.030630
-0.039160
-0.048408
-0.057415
-0.065169
-0.070800
-0.073573
-0.073214
-0.070439
-0.065926
-0.060503
-0.054995
-0.050127
-0.046479
-0.044487
-0.044469
-0.048809
0.539932
0.543431
0.553544
0.570699
0.595516
0.628381
0.668320
0.710410
0.741851
0.735908
0.675453
0.592225
0.429008
0.000000
-0.402511
-0.365465
-0.350291
-0.326806
-0.307911
-0.302160
-0.314521
-0.346027
-0.392681
-0.441273
-0.473310
-0.473035
-0.437279
-0.386004
-0.325993
-0.263311
-0.202734
-0.147609
-0.100034
-0.061160
-0.031455
-0.010854
0.001262
0.006187
0.005884
0.002630
-0.001375
-0.003892
-0.005154
-0.005578
-0.005914
-0.007098
-0.010265
-0.016698
-0.027546
-0.043220
-0.062751
-0.083645
-0.102520
-0.116141
-0.122164
-0.118279
-0.108023
-0.093402
-0.076482
-0.059057
-0.042517
-0.027824
-0.015561
-0.006012
0.000737
0.004723
0.006070
0.005023
0.002015
-0.002294
-0.007079
-0.011499
-0.014877
-0.016620
-0.016979
-0.016328
-0.015180
-0.014090
-0.013591
-0.014176
-0.016273
-0.020206
-0.026126
-0.033921
-0.043159
-0.053096
-0.062770
-0.071167
-0.077435
-0.080433
-0.080711
-0.078737
-0.075261
-0.071170
-0.067354
-0.064609
-0.063593
-0.064831
-0.068737
-0.079462
0.538873
0.541632
0.549529
0.562615
0.580734
0.603097
0.627276
0.647583
0.652971
0.625559
0.547780
0.410638
0.265791
-0.145650
-0.395438
-0.340533
-0.314662
-0.280152
-0.255823
-0.256306
-0.284051
-0.335827
-0.402111
-0.464902
-0.502041
-0.491412
-0.452185
-0.395682
-0.330403
-0.262975
-0.198247
-0.139437
-0.088427
-0.046123
-0.012808
0.011600
0.027476
0.035602
0.037333
0.034586
0.029444
0.023783
0.019443
0.015759
0.011910
0.006894
-0.000521
-0.011652
-0.027462
-0.047895
-0.071378
-0.094929
-0.114942
-0.128323
-0.130910
-0.124548
-0.112000
-0.095503
-0.077162
-0.058721
-0.041472
-0.026270
-0.013599
-0.003662
0.003517
0.008014
0.009957
0.009553
0.007155
0.003318
-0.001213
-0.005637
-0.009282
-0.011586
-0.012558
-0.012535
-0.012008
-0.011521
-0.011618
-0.012803
-0.015512
-0.020069
-0.026611
-0.035010
-0.044824
-0.055310
-0.065510
-0.074407
-0.081079
-0.084554
-0.085602
-0.084672
-0.082525
-0.080066
-0.078208
-0.077782
-0.079506
-0.083986
-0.091748
-0.108782
0.532691
0.534593
0.539949
0.548507
0.559628
0.571883
0.582353
0.585648
0.572823
0.530569
0.441621
0.282679
0.005090
-0.557092
-0.450342
-0.341004
-0.287700
-0.245058
-0.223792
-0.232366
-0.269320
-0.329101
-0.400014
-0.463203
-0.488541
-0.473092
-0.432803
-0.376640
-0.312582
-0.246868
-0.183941
-0.126657
-0.076600
-0.034432
-0.000228
0.026225
0.045199
0.057026
0.062357
0.062373
0.058667
0.052526
0.046659
0.040629
0.033722
0.025026
0.013365
-0.002423
-0.022930
-0.047554
-0.074190
-0.099511
-0.119714
-0.131465
-0.131160
-0.123157
-0.109519
-0.092471
-0.074012
-0.055736
-0.038785
-0.023886
-0.011425
-0.001545
0.005766
0.010596
0.013062
0.013323
0.011644
0.008469
0.004432
0.000263
-0.003386
-0.005947
-0.007284
-0.007685
-0.007605
-0.007579
-0.008149
-0.009827
-0.013047
-0.018120
-0.025163
-0.034027
-0.044262
-0.055135
-0.065712
-0.075032
-0.081919
-0.086044
-0.088073
-0.088444
-0.087898
-0.087313
-0.087580
-0.089526
-0.093900
-0.101385
-0.112642
-0.135471
0.522966
0.524014
0.526881
0.531150
0.535950
0.539655
0.539430
0.530681
0.506513
0.457313
0.370434
0.229512
0.014572
-0.254036
-0.300034
-0.277328
-0.249504
-0.226302
-0.217975
-0.231613
-0.268639
-0.323907
-0.384825
-0.430025
-0.440663
-0.424370
-0.387472
-0.337194
-0.280107
-0.221446
-0.164979
-0.113146
-0.067316
-0.028065
0.004574
0.030879
0.051232
0.065933
0.075172
0.079332
0.079362
0.076486
0.071698
0.064743
0.055635
0.043881
0.028586
0.008936
-0.015173
-0.042624
-0.070947
-0.096690
-0.116161
-0.124193
-0.122792
-0.114523
-0.101381
-0.085379
-0.068263
-0.051393
-0.035730
-0.021876
-0.010152
-0.000678
0.006552
0.011608
0.014574
0.015558
0.014743
0.012461
0.009220
0.005648
0.002349
-0.000148
-0.001586
-0.002195
-0.002389
-0.002682
-0.003609
-0.005676
-0.009307
-0.014787
-0.022201
-0.031379
-0.041866
-0.052948
-0.063720
-0.073212
-0.080332
-0.085411
-0.088660
-0.090565
-0.091827
-0.093254
-0.095662
-0.099833
-0.106514
-0.116457
-0.130474
-0.157969
0.511280
0.511560
0.512220
0.512797
0.512389
0.509453
0.501544
0.485045
0.454977
0.405018
0.327894
0.216818
0.071158
-0.085464
-0.165289
-0.192914
-0.199072
-0.200369
-0.207697
-0.227477
-0.261060
-0.304051
-0.345689
-0.370196
-0.375197
-0.360746
-0.330506
-0.289439
-0.242408
-0.193491
-0.145748
-0.101251
-0.061238
-0.026303
0.003421
0.028098
0.048040
0.063576
0.074987
0.082513
0.087135
0.090429
0.088453
0.082232
0.072496
0.059198
0.041839
0.020085
-0.005648
-0.033823
-0.061782
-0.086202
-0.102560
-0.108436
-0.107258
-0.100383
-0.089466
-0.076112
-0.061697
-0.047298
-0.033694
-0.021400
-0.010723
-0.001815
0.005272
0.010545
0.014034
0.015798
0.015955
0.014743
0.012556
0.009903
0.007303
0.005276
0.004021
0.003412
0.003100
0.002610
0.001422
-0.000954
-0.004912
-0.010699
-0.018356
-0.027689
-0.038252
-0.049372
-0.060222
-0.069715
-0.077444
-0.083547
-0.088179
-0.091774
-0.094939
-0.098359
-0.102732
-0.108753
-0.117130
-0.128658
-0.144297
-0.174568
0.499056
0.498687
0.497509
0.495102
0.490663
0.482882
0.469815
0.448791
0.416434
0.368926
0.302681
0.215901
0.112095
0.005637
-0.071154
-0.117876
-0.145583
-0.164842
-0.183713
-0.207056
-0.235902
-0.267072
-0.293475
-0.308805
-0.310966
-0.299415
-0.276112
-0.244222
-0.207136
-0.167886
-0.128878
-0.091837
-0.057865
-0.027561
-0.001141
0.021442
0.040404
0.056041
0.068673
0.078690
0.087142
0.092208
0.092918
0.089158
0.080975
0.068344
0.051199
0.029753
0.004902
-0.021525
-0.046830
-0.067838
-0.080385
-0.086569
-0.087246
-0.083474
-0.076363
-0.066970
-0.056244
-0.044984
-0.033828
-0.023259
-0.013635
-0.005206
0.001860
0.007467
0.011561
0.014157
0.015322
0.015239
0.014214
0.012660
0.011108
0.009822
0.008980
0.008552
0.008257
0.007662
0.006275
0.003642
-0.000587
-0.006595
-0.014369
-0.023689
-0.034138
-0.045111
-0.055825
-0.065574
-0.074128
-0.081403
-0.087536
-0.092870
-0.097874
-0.103078
-0.109032
-0.116312
-0.125557
-0.137548
-0.153339
-0.183693
0.487497
0.486590
0.483924
0.479184
0.471741
0.460574
0.444228
0.420829
0.388199
0.344175
0.287211
0.217443
0.138345
0.058294
-0.009151
-0.060142
-0.097691
-0.126911
-0.152541
-0.177668
-0.203035
-0.226862
-0.245602
-0.256414
-0.257516
-0.248628
-0.230925
-0.206462
-0.177592
-0.146539
-0.115153
-0.084816
-0.056449
-0.030578
-0.007423
0.013018
0.030881
0.046374
0.059711
0.071508
0.080987
0.087475
0.090246
0.088864
0.083057
0.072669
0.057775
0.038906
0.017243
-0.005323
-0.026403
-0.042574
-0.054405
-0.062131
-0.066149
-0.066878
-0.064699
-0.060043
-0.053437
-0.045462
-0.036679
-0.027613
-0.018742
-0.010470
-0.003135
0.003037
0.007854
0.011342
0.013504
0.014531
0.014711
0.014367
0.013786
0.013234
0.012905
0.012764
0.012563
0.011902
0.010331
0.007444
0.002966
-0.003200
-0.010960
-0.020076
-0.030203
-0.040895
-0.051614
-0.061864
-0.071346
-0.079898
-0.087546
-0.094499
-0.101070
-0.107631
-0.114589
-0.122404
-0.131614
-0.142908
-0.157299
-0.184418
0.477602
0.476224
0.472313
0.465735
0.456071
0.442582
0.424226
0.399734
0.367751
0.327113
0.277292
0.219011
0.154972
0.090187
0.031232
-0.018554
-0.059310
-0.093024
-0.122040
-0.148051
-0.171530
-0.191609
-0.206768
-0.215207
-0.216018
-0.209180
-0.195548
-0.176582
-0.153994
-0.129448
-0.104362
-0.079799
-0.056458
-0.034709
-0.014670
0.003702
0.020518
0.035883
0.049835
0.062385
0.072852
0.080734
0.085417
0.086378
0.083244
0.075851
0.064377
0.049485
0.032383
0.014742
-0.001615
-0.015966
-0.028285
-0.038648
-0.047039
-0.053122
-0.056402
-0.056618
-0.053945
-0.048858
-0.041934
-0.033808
-0.025159
-0.016582
-0.008651
-0.001612
0.004155
0.008611
0.011807
0.013840
0.014937
0.015424
0.015597
0.015690
0.015828
0.015950
0.015808
0.015028
0.013201
0.009990
0.005226
-0.001065
-0.008671
-0.017351
-0.027104
-0.037557
-0.048388
-0.059291
-0.069845
-0.079689
-0.088677
-0.096884
-0.104507
-0.111799
-0.119059
-0.126712
-0.135174
-0.144875
-0.156737
-0.177229
0.470250
0.468352
0.463258
0.455128
0.443764
0.428659
0.409077
0.384166
0.353101
0.315290
0.270674
0.220070
0.165473
0.110047
0.057496
0.010320
-0.030687
-0.065956
-0.096394
-0.122751
-0.145249
-0.163493
-0.176704
-0.183862
-0.184630
-0.179219
-0.168401
-0.153353
-0.135430
-0.115943
-0.095992
-0.076365
-0.057517
-0.039604
-0.022558
-0.006180
0.009723
0.025177
0.039855
0.053251
0.064940
0.074409
0.081086
0.084436
0.084071
0.079862
0.072070
0.061399
0.048894
0.035436
0.021707
0.008295
-0.005045
-0.018496
-0.031705
-0.043492
-0.052235
-0.056831
-0.057266
-0.054185
-0.048262
-0.040314
-0.031332
-0.021890
-0.013172
-0.005422
0.001257
0.006587
0.010586
0.013387
0.015221
0.016384
0.017153
0.017720
0.018168
0.018417
0.018187
0.017123
0.014860
0.011144
0.005971
-0.000487
-0.008011
-0.016360
-0.025407
-0.035442
-0.046495
-0.058207
-0.069887
-0.080848
-0.090733
-0.099565
-0.107546
-0.114909
-0.121765
-0.128689
-0.136193
-0.144455
-0.153371
-0.164988
0.466415
0.463626
0.457101
0.447475
0.434713
0.418430
0.398065
0.373027
0.342807
0.307128
0.266133
0.220578
0.171954
0.122409
0.074342
0.029667
-0.010563
-0.046042
-0.076876
-0.103206
-0.125047
-0.142283
-0.154257
-0.160611
-0.161341
-0.156844
-0.147907
-0.135595
-0.121076
-0.105443
-0.089571
-0.074029
-0.059056
-0.044605
-0.030400
-0.016003
-0.000917
0.014996
0.030483
0.045162
0.058430
0.069682
0.078338
0.083881
0.085936
0.084418
0.079688
0.072508
0.063398
0.052522
0.040868
0.028152
0.013802
-0.002574
-0.020468
-0.037855
-0.051629
-0.059475
-0.061452
-0.059183
-0.053393
-0.044583
-0.035212
-0.025671
-0.016145
-0.007523
-0.000140
0.005831
0.010404
0.013727
0.016047
0.017659
0.018830
0.019692
0.020287
0.020545
0.020054
0.018464
0.015414
0.010774
0.004722
-0.002206
-0.009465
-0.017005
-0.025215
-0.034731
-0.045857
-0.058202
-0.070770
-0.082471
-0.092680
-0.101395
-0.108936
-0.116037
-0.122840
-0.129367
-0.135887
-0.142752
-0.149723
-0.155615
0.467774
0.462538
0.453853
0.442632
0.428661
0.411499
0.390593
0.365506
0.335903
0.301668
0.263019
0.220625
0.175657
0.129711
0.084558
0.041764
0.002444
-0.032768
-0.063559
-0.089633
-0.111068
-0.127593
-0.138817
-0.144689
-0.145415
-0.141516
-0.133807
-0.123293
-0.111033
-0.097988
-0.084886
-0.072154
-0.059899
-0.047970
-0.036033
-0.023544
-0.009478
0.006374
0.022931
0.039232
0.054267
0.067255
0.077592
0.084779
0.088462
0.088579
0.085688
0.080531
0.072887
0.063967
0.053632
0.041381
0.026477
0.008326
-0.012726
-0.034347
-0.052156
-0.062078
-0.063448
-0.060015
-0.054409
-0.046787
-0.036892
-0.026588
-0.016641
-0.007652
0.000041
0.006290
0.011110
0.014645
0.017144
0.018935
0.020329
0.021330
0.021912
0.021829
0.020907
0.018725
0.014948
0.009470
0.002628
-0.004841
-0.012205
-0.019308
-0.026728
-0.035391
-0.045865
-0.057897
-0.070496
-0.082472
-0.093019
-0.101976
-0.109707
-0.116368
-0.122709
-0.128898
-0.135045
-0.141369
-0.147869
-0.153617
0.478823
0.464753
0.452963
0.440360
0.425565
0.407783
0.386550
0.361445
0.332200
0.298756
0.261342
0.220557
0.177400
0.133213
0.089505
0.047694
0.008907
-0.026106
-0.056938
-0.083450
-0.105014
-0.121322
-0.132319
-0.138070
-0.138864
-0.135260
-0.128067
-0.118254
-0.106825
-0.094675
-0.082480
-0.070621
-0.059176
-0.047969
-0.036664
-0.024843
-0.012121
0.002427
0.019568
0.037004
0.053170
0.067102
0.078177
0.085941
0.090072
0.090470
0.087346
0.081486
0.074416
0.066068
0.056192
0.044277
0.029668
0.011907
-0.008643
-0.029966
-0.048221
-0.059519
-0.062978
-0.060032
-0.053706
-0.045655
-0.036070
-0.025937
-0.016104
-0.007176
0.000489
0.006736
0.011565
0.015105
0.017582
0.019272
0.020427
0.021301
0.021745
0.021530
0.020398
0.018016
0.014110
0.008614
0.001826
-0.005633
-0.013135
-0.020495
-0.028133
-0.036773
-0.046881
-0.058286
-0.070237
-0.081788
-0.092233
-0.101326
-0.109218
-0.116181
-0.122520
-0.128677
-0.134889
-0.141198
-0.147594
-0.154187
