# vtk DataFile Version 3.0
Scalar Field
ASCII
DATASET RECTILINEAR_GRID
DIMENSIONS 100 26 1
X_COORDINATES 100 double
0.050000 0.150000 0.250000 0.350000 0.450000 0.550000 0.650000 0.750000 0.850000 0.950000 1.050000 1.150000 1.250000 1.350000 1.450000 1.550000 1.650000 1.750000 1.850000 1.950000 2.050000 2.150000 2.250000 2.350000 2.450000 2.550000 2.650000 2.750000 2.850000 2.950000 3.050000 3.150000 3.250000 3.350000 3.450000 3.550000 3.650000 3.750000 3.850000 3.950000 4.050000 4.150000 4.250000 4.350000 4.450000 4.550000 4.650000 4.750000 4.850000 4.950000 5.050000 5.150000 5.250000 5.350000 5.450000 5.550000 5.650000 5.750000 5.850000 5.950000 6.050000 6.150000 6.250000 6.350000 6.450000 6.550000 6.650000 6.750000 6.850000 6.950000 7.050000 7.150000 7.250000 7.350000 7.450000 7.550000 7.650000 7.750000 7.850000 7.950000 8.050000 8.150000 8.250000 8.350000 8.450000 8.550000 8.650000 8.750000 8.850000 8.950000 9.050000 9.150000 9.250000 9.350000 9.450000 9.550000 9.650000 9.750000 9.850000 9.950000 
Y_COORDINATES 26 double
0.050000 0.150000 0.250000 0.350000 0.450000 0.550000 0.650000 0.750000 0.850000 0.950000 1.050000 1.150000 1.250000 1.350000 1.450000 1.550000 1.650000 1.750000 1.850000 1.950000 2.050000 2.150000 2.250000 2.350000 2.450000 2.550000 
Z_COORDINATES 1 double
0.0
POINT_DATA 2600
SCALARS Skalarfeld double 1
LOOKUP_TABLE default
0.296345
0.281249
0.266535
0.249149
0.227954
0.202426
0.172422
0.138164
0.100287
0.059869
0.018360
-0.022652
-0.061692
-0.097579
-0.129489
-0.156952
-0.179271
-0.196046
-0.207249
-0.213013
-0.213678
-0.209798
-0.202119
-0.191507
-0.178855
-0.164986
-0.150567
-0.136059
-0.121712
-0.107588
-0.093629
-0.079736
-0.065853
-0.052032
-0.038463
-0.025472
-0.013351
-0.002363
0.006573
0.013239
0.017633
0.019716
0.019513
0.017059
0.012388
0.005579
-0.003152
-0.013303
-0.023859
-0.033183
-0.039442
-0.041766
-0.040371
-0.036862
-0.032648
-0.027698
-0.022302
-0.016892
-0.011795
-0.007245
-0.003380
-0.000259
0.002118
0.003799
0.004865
0.005420
0.005579
0.005458
0.005166
0.004798
0.004434
0.004132
0.003930
0.003845
0.003880
0.004022
0.004246
0.004525
0.004826
0.005122
0.005386
0.005600
0.005748
0.005825
0.005829
0.005761
0.005629
0.005441
0.005207
0.004937
0.004644
0.004335
0.004022
0.003712
0.003412
0.003127
0.002859
0.002608
0.002362
0.002484
0.287203
0.280921
0.269209
0.253050
0.232261
0.206581
0.175900
0.140444
0.100926
0.058623
0.015293
-0.027213
-0.067312
-0.103845
-0.136038
-0.163300
-0.185497
-0.202405
-0.213693
-0.219429
-0.219907
-0.215662
-0.207447
-0.196159
-0.182738
-0.168053
-0.152816
-0.137525
-0.122456
-0.107691
-0.093182
-0.078836
-0.064596
-0.050505
-0.036762
-0.023677
-0.011399
-0.000726
0.008148
0.014628
0.018728
0.020495
0.019994
0.017277
0.012379
0.005351
-0.003643
-0.014132
-0.025037
-0.034508
-0.040436
-0.041726
-0.039896
-0.036920
-0.033186
-0.028175
-0.022670
-0.017194
-0.012038
-0.007441
-0.003537
-0.000386
0.002010
0.003699
0.004764
0.005311
0.005457
0.005322
0.005016
0.004637
0.004266
0.003962
0.003763
0.003687
0.003734
0.003890
0.004132
0.004428
0.004746
0.005057
0.005334
0.005558
0.005714
0.005797
0.005805
0.005740
0.005610
0.005423
0.005190
0.004922
0.004631
0.004327
0.004021
0.003722
0.003437
0.003175
0.002939
0.002726
0.002517
0.002730
0.289700
0.285789
0.276010
0.260945
0.240512
0.214398
0.182359
0.144522
0.101683
0.055496
0.008450
-0.037002
-0.079077
-0.116750
-0.149545
-0.177248
-0.199753
-0.217039
-0.228641
-0.234436
-0.234592
-0.229567
-0.220106
-0.207161
-0.191758
-0.174877
-0.157340
-0.139762
-0.122530
-0.105832
-0.089714
-0.074156
-0.059142
-0.044720
-0.031031
-0.018308
-0.007083
0.002319
0.009694
0.014976
0.017707
0.018242
0.016847
0.013643
0.008672
0.001976
-0.006272
-0.015568
-0.024877
-0.032689
-0.037615
-0.039283
-0.038503
-0.035983
-0.031720
-0.026872
-0.021837
-0.016726
-0.011763
-0.007319
-0.003518
-0.000439
0.001901
0.003541
0.004563
0.005071
0.005182
0.005015
0.004684
0.004290
0.003912
0.003612
0.003426
0.003371
0.003445
0.003632
0.003904
0.004230
0.004576
0.004910
0.005207
0.005445
0.005613
0.005704
0.005717
0.005655
0.005528
0.005343
0.005113
0.004850
0.004565
0.004270
0.003977
0.003698
0.003442
0.003221
0.003048
0.002935
0.002905
0.003311
0.299479
0.296356
0.287673
0.273425
0.253200
0.226330
0.192166
0.150507
0.102167
0.049381
-0.003728
-0.053570
-0.098198
-0.137036
-0.170247
-0.198179
-0.221020
-0.238659
-0.250707
-0.256588
-0.256245
-0.250006
-0.238615
-0.223127
-0.204722
-0.184549
-0.163601
-0.142660
-0.122274
-0.102786
-0.084378
-0.067127
-0.051062
-0.036216
-0.022664
-0.010645
-0.000641
0.007071
0.012332
0.015189
0.015879
0.014403
0.011514
0.007538
0.002549
-0.003423
-0.010247
-0.017527
-0.024518
-0.030251
-0.033922
-0.035285
-0.034622
-0.032314
-0.028715
-0.024391
-0.019571
-0.014706
-0.010183
-0.006190
-0.002705
0.000127
0.002257
0.003719
0.004591
0.004970
0.004968
0.004706
0.004298
0.003846
0.003433
0.003119
0.002939
0.002907
0.003016
0.003247
0.003567
0.003939
0.004327
0.004698
0.005023
0.005284
0.005468
0.005569
0.005588
0.005530
0.005404
0.005221
0.004992
0.004730
0.004449
0.004162
0.003880
0.003618
0.003388
0.003207
0.003093
0.003072
0.003187
0.003726
0.315051
0.312349
0.304521
0.291115
0.271219
0.243508
0.206506
0.159199
0.102131
0.038248
-0.024285
-0.079908
-0.127008
-0.166249
-0.199059
-0.226708
-0.249794
-0.268036
-0.280713
-0.286789
-0.285728
-0.277657
-0.263399
-0.244243
-0.221658
-0.197058
-0.171667
-0.146463
-0.122168
-0.099277
-0.078097
-0.058787
-0.041399
-0.025918
-0.012314
-0.000814
0.007993
0.013742
0.016303
0.015955
0.013363
0.009433
0.004585
-0.000336
-0.005277
-0.010305
-0.015446
-0.020519
-0.025115
-0.028693
-0.030807
-0.031285
-0.030226
-0.027870
-0.024517
-0.020525
-0.016200
-0.011880
-0.007832
-0.004135
-0.001061
0.001383
0.003179
0.004338
0.004959
0.005114
0.004911
0.004471
0.003915
0.003348
0.002855
0.002496
0.002305
0.002292
0.002444
0.002732
0.003118
0.003557
0.004008
0.004432
0.004802
0.005096
0.005304
0.005420
0.005448
0.005393
0.005267
0.005081
0.004849
0.004585
0.004303
0.004016
0.003738
0.003485
0.003270
0.003114
0.003037
0.003069
0.003253
0.003830
0.335624
0.333350
0.326586
0.314513
0.295612
0.267563
0.227376
0.172182
0.101293
0.017851
-0.058792
-0.120523
-0.168188
-0.205441
-0.235945
-0.262369
-0.285847
-0.305643
-0.319761
-0.326660
-0.324869
-0.314243
-0.295883
-0.271584
-0.243322
-0.212917
-0.181891
-0.151437
-0.122439
-0.095521
-0.071085
-0.049351
-0.030372
-0.014064
-0.000220
0.011053
0.018811
0.022441
0.021785
0.017419
0.010554
0.002765
-0.004367
-0.010256
-0.014933
-0.018717
-0.021970
-0.024782
-0.027038
-0.028501
-0.028943
-0.028256
-0.026481
-0.023773
-0.020356
-0.016498
-0.012462
-0.008504
-0.004833
-0.001595
0.001066
0.003093
0.004499
0.005325
0.005599
0.005431
0.004940
0.004250
0.003484
0.002750
0.002137
0.001707
0.001492
0.001498
0.001704
0.002070
0.002547
0.003078
0.003615
0.004115
0.004546
0.004887
0.005128
0.005265
0.005303
0.005252
0.005124
0.004932
0.004693
0.004421
0.004130
0.003836
0.003553
0.003297
0.003084
0.002933
0.002866
0.002911
0.003105
0.003650
0.360400
0.358728
0.353597
0.343902
0.327498
0.300750
0.258148
0.192760
0.099430
-0.021167
-0.116792
-0.180581
-0.222771
-0.252879
-0.277557
-0.301171
-0.325558
-0.349384
-0.367625
-0.377106
-0.375106
-0.361219
-0.337290
-0.306101
-0.270445
-0.232702
-0.194743
-0.157972
-0.123412
-0.091786
-0.063576
-0.039054
-0.018293
-0.001174
0.012626
0.023727
0.030802
0.032623
0.028951
0.020712
0.009560
-0.002514
-0.013516
-0.021372
-0.025748
-0.028088
-0.029408
-0.030019
-0.030083
-0.029577
-0.028404
-0.026497
-0.023874
-0.020637
-0.016953
-0.013029
-0.009084
-0.005324
-0.001925
0.000980
0.003291
0.004966
0.006009
0.006455
0.006364
0.005839
0.005001
0.003984
0.002927
0.001957
0.001187
0.000671
0.000430
0.000467
0.000751
0.001227
0.001828
0.002487
0.003141
0.003742
0.004255
0.004657
0.004940
0.005104
0.005155
0.005107
0.004975
0.004775
0.004523
0.004236
0.003931
0.003621
0.003324
0.003053
0.002826
0.002660
0.002578
0.002603
0.002764
0.003231
0.388252
0.387448
0.384780
0.379047
0.367708
0.345838
0.304379
0.228214
0.096637
-0.100399
-0.212266
-0.261497
-0.285813
-0.301083
-0.315161
-0.333539
-0.358914
-0.390073
-0.419495
-0.435406
-0.434761
-0.417274
-0.386526
-0.346990
-0.302601
-0.256387
-0.210557
-0.166693
-0.125929
-0.089074
-0.056699
-0.029171
-0.006641
0.010951
0.023820
0.032794
0.039694
0.040508
0.034995
0.024611
0.011355
-0.002799
-0.016082
-0.027082
-0.034021
-0.035526
-0.035791
-0.034855
-0.033284
-0.031263
-0.028795
-0.025852
-0.022446
-0.018657
-0.014620
-0.010510
-0.006515
-0.002812
0.000444
0.003137
0.005191
0.006573
0.007292
0.007389
0.006936
0.006038
0.004828
0.003458
0.002083
0.000849
-0.000126
-0.000738
-0.000993
-0.000894
-0.000488
0.000149
0.000927
0.001759
0.002571
0.003306
0.003924
0.004405
0.004741
0.004937
0.005004
0.004959
0.004820
0.004607
0.004338
0.004031
0.003703
0.003371
0.003048
0.002751
0.002495
0.002297
0.002176
0.002154
0.002252
0.002605
0.417565
0.417900
0.418575
0.418645
0.415850
0.404991
0.374049
0.295208
0.098748
-0.273307
-0.357048
-0.349341
-0.341979
-0.337711
-0.338279
-0.349192
-0.373655
-0.411624
-0.457905
-0.489990
-0.493948
-0.473820
-0.436570
-0.389027
-0.336371
-0.282187
-0.228933
-0.178333
-0.131629
-0.089757
-0.053447
-0.023283
0.000356
0.017472
0.028368
0.033442
0.034653
0.034334
0.028433
0.019343
0.008482
-0.003095
-0.014404
-0.024435
-0.032142
-0.037528
-0.038160
-0.036986
-0.034904
-0.032276
-0.029195
-0.025687
-0.021799
-0.017624
-0.013301
-0.009002
-0.004906
-0.001185
0.002016
0.004590
0.006469
0.007626
0.008074
0.007856
0.007053
0.005779
0.004179
0.002429
0.000709
-0.000805
-0.001972
-0.002696
-0.002925
-0.002701
-0.002097
-0.001222
-0.000195
0.000874
0.001894
0.002800
0.003552
0.004130
0.004531
0.004765
0.004850
0.004807
0.004659
0.004428
0.004137
0.003804
0.003447
0.003083
0.002727
0.002392
0.002094
0.001848
0.001671
0.001578
0.001591
0.001801
0.446226
0.447856
0.452430
0.459678
0.468649
0.476302
0.473092
0.427367
0.197592
-0.599154
-0.525811
-0.400945
-0.370766
-0.355710
-0.347350
-0.353965
-0.377160
-0.415264
-0.465926
-0.516557
-0.533335
-0.513509
-0.473113
-0.421335
-0.364168
-0.305422
-0.247688
-0.192851
-0.142355
-0.097385
-0.059031
-0.028412
-0.006523
0.006608
0.012545
0.013517
0.011397
0.007532
0.004047
0.000088
-0.004446
-0.009565
-0.015164
-0.020925
-0.026325
-0.030867
-0.033883
-0.034745
-0.033376
-0.031228
-0.028413
-0.025016
-0.021143
-0.016932
-0.012555
-0.008206
-0.004084
-0.000370
0.002782
0.005261
0.006997
0.007959
0.008158
0.007637
0.006478
0.004806
0.002788
0.000627
-0.001458
-0.003254
-0.004593
-0.005367
-0.005500
-0.005042
-0.004124
-0.002905
-0.001540
-0.000165
0.001116
0.002232
0.003143
0.003834
0.004310
0.004587
0.004690
0.004648
0.004487
0.004236
0.003918
0.003554
0.003162
0.002760
0.002361
0.001980
0.001629
0.001322
0.001071
0.000893
0.000800
0.000843
0.471839
0.474682
0.482963
0.497264
0.518549
0.548024
0.586399
0.630180
0.713170
0.057008
-0.454344
-0.382876
-0.375946
-0.368069
-0.364115
-0.369963
-0.389303
-0.420538
-0.463165
-0.508209
-0.535732
-0.522360
-0.482889
-0.432511
-0.376789
-0.319146
-0.262148
-0.207878
-0.158144
-0.114661
-0.079168
-0.053234
-0.037498
-0.030793
-0.030121
-0.032025
-0.034143
-0.034447
-0.031867
-0.028165
-0.024421
-0.021401
-0.019621
-0.019313
-0.020373
-0.022409
-0.024766
-0.026739
-0.028036
-0.027223
-0.025458
-0.022843
-0.019549
-0.015757
-0.011680
-0.007551
-0.003599
-0.000034
0.002972
0.005289
0.006833
0.007561
0.007472
0.006604
0.005039
0.002913
0.000422
-0.002189
-0.004649
-0.006701
-0.008141
-0.008851
-0.008724
-0.007872
-0.006502
-0.004828
-0.003042
-0.001301
0.000281
0.001632
0.002717
0.003530
0.004083
0.004404
0.004524
0.004480
0.004304
0.004028
0.003679
0.003279
0.002848
0.002402
0.001955
0.001519
0.001106
0.000727
0.000392
0.000114
-0.000098
-0.000242
0.492161
0.495860
0.506744
0.525942
0.555609
0.599475
0.663986
0.759952
0.893203
0.914629
0.000000
-0.380972
-0.379067
-0.380640
-0.384491
-0.394500
-0.410003
-0.431385
-0.458178
-0.485288
-0.499406
-0.494543
-0.459661
-0.415367
-0.366432
-0.315484
-0.264926
-0.216988
-0.173853
-0.137744
-0.110774
-0.094256
-0.087560
-0.087596
-0.089962
-0.091090
-0.088309
-0.080519
-0.069625
-0.057372
-0.045202
-0.034230
-0.025269
-0.018826
-0.015065
-0.013782
-0.014425
-0.016208
-0.018308
-0.019987
-0.019829
-0.018471
-0.016242
-0.013320
-0.009939
-0.006365
-0.002865
0.000321
0.002992
0.004991
0.006210
0.006587
0.006099
0.004774
0.002695
0.000020
-0.003017
-0.006110
-0.008925
-0.011150
-0.012561
-0.013001
-0.012379
-0.010960
-0.009016
-0.006806
-0.004551
-0.002421
-0.000530
0.001056
0.002310
0.003237
0.003861
0.004219
0.004351
0.004300
0.004105
0.003801
0.003418
0.002979
0.002505
0.002011
0.001511
0.001016
0.000534
0.000076
-0.000352
-0.000741
-0.001083
-0.001430
0.505612
0.509632
0.521448
0.542183
0.573846
0.619376
0.682126
0.763402
0.856474
0.936056
0.844008
0.000000
-0.386156
-0.393245
-0.403767
-0.420360
-0.436782
-0.449368
-0.456354
-0.457252
-0.448473
-0.429491
-0.403842
-0.367168
-0.327471
-0.286657
-0.246857
-0.210344
-0.179591
-0.157065
-0.144533
-0.141800
-0.145815
-0.151526
-0.154103
-0.150667
-0.138782
-0.121943
-0.102268
-0.081721
-0.061923
-0.044102
-0.029125
-0.017527
-0.009526
-0.005022
-0.003572
-0.004430
-0.006646
-0.009215
-0.011234
-0.011600
-0.010781
-0.009088
-0.006751
-0.004060
-0.001308
0.001232
0.003329
0.004798
0.005501
0.005345
0.004286
0.002341
-0.000399
-0.003741
-0.007388
-0.010961
-0.014052
-0.016304
-0.017498
-0.017330
-0.016032
-0.013929
-0.011352
-0.008590
-0.005879
-0.003386
-0.001218
0.000569
0.001963
0.002980
0.003655
0.004034
0.004168
0.004104
0.003885
0.003551
0.003131
0.002652
0.002133
0.001590
0.001034
0.000476
-0.000077
-0.000619
-0.001145
-0.001650
-0.002129
-0.002691
0.511591
0.515398
0.526514
0.545690
0.574125
0.613308
0.664395
0.725585
0.783526
0.798176
0.751960
0.628186
0.000000
-0.408051
-0.422857
-0.457642
-0.480671
-0.483759
-0.464549
-0.431824
-0.393804
-0.356135
-0.321053
-0.288559
-0.258240
-0.228588
-0.202024
-0.181207
-0.168616
-0.166044
-0.173399
-0.187541
-0.202665
-0.212631
-0.213370
-0.201038
-0.179808
-0.154150
-0.126421
-0.098699
-0.072643
-0.049451
-0.029905
-0.014432
-0.003172
0.003993
0.007437
0.007807
0.006002
0.003075
0.000047
-0.002299
-0.003103
-0.002856
-0.001799
-0.000235
0.001520
0.003171
0.004462
0.005178
0.005149
0.004251
0.002419
-0.000336
-0.003894
-0.008007
-0.012296
-0.016294
-0.019522
-0.021595
-0.022282
-0.021274
-0.019188
-0.016377
-0.013195
-0.009942
-0.006848
-0.004071
-0.001700
0.000224
0.001705
0.002771
0.003468
0.003849
0.003971
0.003886
0.003640
0.003273
0.002817
0.002297
0.001734
0.001142
0.000531
-0.000091
-0.000717
-0.001345
-0.001971
-0.002594
-0.003214
-0.003994
0.510491
0.513726
0.523093
0.538959
0.561772
0.591592
0.626997
0.662922
0.685950
0.670144
0.598313
0.504413
0.326278
0.000000
-0.470628
-0.518400
-0.542902
-0.529844
-0.478780
-0.410487
-0.340656
-0.278986
-0.229427
-0.192180
-0.168272
-0.147867
-0.135365
-0.133563
-0.143669
-0.165240
-0.194954
-0.226299
-0.251307
-0.263733
-0.258701
-0.236799
-0.207765
-0.174949
-0.141015
-0.108078
-0.077703
-0.050946
-0.028417
-0.010381
0.003155
0.012370
0.017602
0.019376
0.018439
0.015737
0.012285
0.008942
0.006434
0.005239
0.004946
0.005268
0.005878
0.006471
0.006772
0.006543
0.005581
0.003735
0.000927
-0.002816
-0.007327
-0.012275
-0.017181
-0.021491
-0.024685
-0.026393
-0.026040
-0.024233
-0.021407
-0.017978
-0.014312
-0.010700
-0.007356
-0.004412
-0.001941
0.000039
0.001542
0.002610
0.003294
0.003655
0.003752
0.003639
0.003362
0.002963
0.002472
0.001915
0.001310
0.000670
0.000006
-0.000677
-0.001375
-0.002087
-0.002811
-0.003551
-0.004309
-0.005308
0.503371
0.505804
0.512759
0.524200
0.539838
0.558644
0.577931
0.591804
0.588994
0.551608
0.461486
0.308216
0.148143
-0.307360
-0.626741
-0.571167
-0.583324
-0.549274
-0.476392
-0.384224
-0.291566
-0.211189
-0.148818
-0.104284
-0.074718
-0.062492
-0.063880
-0.081627
-0.114776
-0.159511
-0.209057
-0.254252
-0.285763
-0.297123
-0.282369
-0.255000
-0.220768
-0.183561
-0.146189
-0.110672
-0.078384
-0.050160
-0.026408
-0.007215
0.007553
0.018160
0.024934
0.028274
0.028718
0.026995
0.023974
0.020506
0.017252
0.014716
0.013196
0.012325
0.011768
0.011230
0.010434
0.009122
0.007068
0.004105
0.000157
-0.004707
-0.010243
-0.016016
-0.021442
-0.025896
-0.028854
-0.029698
-0.028398
-0.025838
-0.022424
-0.018565
-0.014611
-0.010828
-0.007397
-0.004426
-0.001965
-0.000017
0.001446
0.002470
0.003113
0.003436
0.003498
0.003353
0.003047
0.002618
0.002096
0.001506
0.000863
0.000181
-0.000533
-0.001273
-0.002039
-0.002830
-0.003648
-0.004499
-0.005390
-0.006597
0.491705
0.493240
0.497544
0.504294
0.512732
0.521264
0.526790
0.523744
0.502987
0.450919
0.349391
0.172867
-0.133142
-0.762864
-0.682316
-0.579753
-0.551875
-0.505853
-0.430967
-0.339302
-0.245849
-0.162488
-0.095494
-0.045590
-0.011131
0.000588
-0.009452
-0.042493
-0.093220
-0.154067
-0.215762
-0.267895
-0.300969
-0.303356
-0.284618
-0.254653
-0.218716
-0.180638
-0.143105
-0.107922
-0.076222
-0.048624
-0.025365
-0.006405
0.008483
0.019637
0.027428
0.032208
0.034339
0.034282
0.032655
0.030134
0.027267
0.024397
0.022164
0.020379
0.018786
0.017161
0.015253
0.012802
0.009573
0.005398
0.000237
-0.005778
-0.012298
-0.018772
-0.024521
-0.028877
-0.031227
-0.030881
-0.028966
-0.025926
-0.022199
-0.018179
-0.014181
-0.010433
-0.007085
-0.004219
-0.001867
-0.000020
0.001355
0.002306
0.002891
0.003168
0.003195
0.003021
0.002690
0.002237
0.001692
0.001074
0.000400
-0.000319
-0.001076
-0.001869
-0.002696
-0.003560
-0.004464
-0.005417
-0.006429
-0.007828
0.477153
0.477821
0.479605
0.482031
0.484137
0.484178
0.479192
0.464446
0.432872
0.374562
0.276149
0.119541
-0.119371
-0.427127
-0.498284
-0.488808
-0.463391
-0.422897
-0.363035
-0.289795
-0.212905
-0.141127
-0.080037
-0.032016
0.002824
0.022087
0.008956
-0.030597
-0.087468
-0.152196
-0.214584
-0.264138
-0.288629
-0.285262
-0.266306
-0.237587
-0.203830
-0.168492
-0.133951
-0.101741
-0.072775
-0.047513
-0.026094
-0.008436
0.005695
0.016624
0.024720
0.030350
0.033857
0.035571
0.035829
0.035027
0.033430
0.031998
0.030174
0.028082
0.025835
0.023366
0.020496
0.016997
0.012651
0.007327
0.001042
-0.005976
-0.013265
-0.020162
-0.025927
-0.029880
-0.030865
-0.030053
-0.027844
-0.024680
-0.020977
-0.017088
-0.013283
-0.009756
-0.006628
-0.003963
-0.001782
-0.000075
0.001191
0.002062
0.002590
0.002828
0.002828
0.002635
0.002289
0.001822
0.001261
0.000625
-0.000073
-0.000822
-0.001616
-0.002454
-0.003335
-0.004262
-0.005242
-0.006285
-0.007403
-0.008970
0.461320
0.461228
0.460830
0.459621
0.456632
0.450242
0.437919
0.415956
0.379267
0.321369
0.234656
0.111695
-0.049243
-0.226285
-0.321802
-0.355998
-0.355959
-0.332720
-0.293339
-0.242244
-0.186041
-0.131016
-0.081809
-0.041238
-0.009088
0.003387
-0.008882
-0.043380
-0.093281
-0.149478
-0.201640
-0.239235
-0.252872
-0.249391
-0.233297
-0.209121
-0.180674
-0.150822
-0.121554
-0.094152
-0.069361
-0.047542
-0.028794
-0.013043
-0.000102
0.010282
0.018402
0.024558
0.029036
0.032088
0.033908
0.035025
0.035933
0.036017
0.035146
0.033488
0.031221
0.028410
0.024977
0.020756
0.015592
0.009420
0.002347
-0.005293
-0.012929
-0.019816
-0.025261
-0.027831
-0.028516
-0.027632
-0.025536
-0.022623
-0.019255
-0.015737
-0.012302
-0.009114
-0.006278
-0.003852
-0.001857
-0.000287
0.000883
0.001691
0.002181
0.002398
0.002389
0.002193
0.001847
0.001379
0.000812
0.000166
-0.000547
-0.001318
-0.002142
-0.003017
-0.003943
-0.004925
-0.005968
-0.007085
-0.008290
-0.009996
0.445617
0.444897
0.442723
0.438644
0.431814
0.420875
0.403838
0.377992
0.339939
0.285841
0.212100
0.116924
0.003927
-0.112249
-0.195451
-0.241692
-0.258663
-0.253563
-0.232416
-0.200387
-0.162398
-0.123143
-0.086469
-0.054528
-0.032009
-0.024147
-0.033794
-0.059676
-0.096989
-0.138480
-0.175609
-0.199553
-0.209191
-0.206844
-0.195018
-0.176770
-0.154900
-0.131634
-0.108573
-0.086759
-0.066792
-0.048945
-0.033270
-0.019693
-0.008072
0.001754
0.009954
0.016701
0.022165
0.026510
0.030100
0.032972
0.035036
0.036173
0.036319
0.035526
0.033859
0.031337
0.027911
0.023498
0.018031
0.011543
0.004236
-0.003467
-0.010940
-0.017356
-0.021565
-0.024114
-0.025014
-0.024499
-0.022878
-0.020489
-0.017650
-0.014625
-0.011624
-0.008798
-0.006247
-0.004036
-0.002192
-0.000721
0.000392
0.001172
0.001656
0.001881
0.001885
0.001706
0.001374
0.000917
0.000356
-0.000291
-0.001013
-0.001799
-0.002646
-0.003550
-0.004512
-0.005537
-0.006630
-0.007804
-0.009074
-0.010881
0.431210
0.429981
0.426398
0.420129
0.410520
0.396529
0.376690
0.349140
0.311745
0.262435
0.199837
0.124382
0.040052
-0.043923
-0.112022
-0.158118
-0.182987
-0.189866
-0.182695
-0.165237
-0.141535
-0.115227
-0.089438
-0.067081
-0.051678
-0.046309
-0.052621
-0.069816
-0.094633
-0.121957
-0.145817
-0.161777
-0.168906
-0.167664
-0.159567
-0.146612
-0.130770
-0.113703
-0.096640
-0.080380
-0.065335
-0.051630
-0.039200
-0.027898
-0.017585
-0.008185
0.000310
0.007872
0.014494
0.020267
0.025250
0.029327
0.032484
0.034649
0.035772
0.035854
0.034913
0.032950
0.029928
0.025803
0.020565
0.014312
0.007303
-0.000022
-0.006897
-0.012669
-0.017135
-0.020123
-0.021609
-0.021736
-0.020758
-0.018976
-0.016683
-0.014128
-0.011508
-0.008974
-0.006636
-0.004566
-0.002806
-0.001374
-0.000268
0.000528
0.001041
0.001301
0.001341
0.001195
0.000891
0.000455
-0.000092
-0.000734
-0.001457
-0.002253
-0.003116
-0.004042
-0.005033
-0.006090
-0.007220
-0.008432
-0.009741
-0.011604
0.419051
0.417378
0.412636
0.404679
0.393077
0.377094
0.355706
0.327693
0.291794
0.247012
0.193078
0.131125
0.064458
-0.001035
-0.057513
-0.100210
-0.127932
-0.141724
-0.143798
-0.136848
-0.123727
-0.107367
-0.090416
-0.075471
-0.064991
-0.060982
-0.064429
-0.074810
-0.090041
-0.106873
-0.121837
-0.132198
-0.136846
-0.135866
-0.130154
-0.121036
-0.109913
-0.098014
-0.086248
-0.075147
-0.064886
-0.055352
-0.046260
-0.037286
-0.028207
-0.019010
-0.009905
-0.001214
0.006808
0.014014
0.020278
0.025564
0.029831
0.033027
0.035114
0.036079
0.035927
0.034660
0.032260
0.028708
0.024004
0.018253
0.011715
0.004773
-0.002093
-0.008280
-0.013387
-0.017123
-0.019359
-0.020163
-0.019764
-0.018474
-0.016593
-0.014369
-0.011996
-0.009630
-0.007394
-0.005373
-0.003620
-0.002166
-0.001018
-0.000170
0.000398
0.000713
0.000803
0.000700
0.000431
0.000020
-0.000510
-0.001143
-0.001865
-0.002667
-0.003542
-0.004486
-0.005498
-0.006579
-0.007734
-0.008968
-0.010290
-0.012146
0.409963
0.407798
0.401951
0.392579
0.379488
0.362186
0.339979
0.312093
0.277830
0.236803
0.189257
0.136444
0.080948
0.026692
-0.021717
-0.060862
-0.089194
-0.106763
-0.114722
-0.114857
-0.109268
-0.100184
-0.089777
-0.080099
-0.072973
-0.069787
-0.071199
-0.076904
-0.085625
-0.095397
-0.104306
-0.110273
-0.112544
-0.111122
-0.106619
-0.100003
-0.092337
-0.084554
-0.077296
-0.070838
-0.065085
-0.059637
-0.053910
-0.047294
-0.039359
-0.030077
-0.019955
-0.009791
-0.000270
0.008416
0.016071
0.022601
0.027965
0.032137
0.035106
0.036877
0.037470
0.036906
0.035178
0.032264
0.028110
0.022751
0.016210
0.009030
0.001724
-0.005186
-0.011171
-0.015779
-0.018744
-0.020064
-0.020000
-0.018946
-0.017256
-0.015177
-0.012890
-0.010555
-0.008319
-0.006268
-0.004464
-0.002946
-0.001729
-0.000811
-0.000178
0.000195
0.000335
0.000273
0.000035
-0.000352
-0.000867
-0.001494
-0.002216
-0.003024
-0.003910
-0.004869
-0.005899
-0.006998
-0.008169
-0.009415
-0.010736
-0.012488
0.404872
0.401837
0.394623
0.383870
0.369555
0.351319
0.328660
0.301084
0.268229
0.230043
0.186985
0.140244
0.091854
0.044602
0.001562
-0.034749
-0.062869
-0.082431
-0.094021
-0.098805
-0.098341
-0.094315
-0.088445
-0.082355
-0.077447
-0.074752
-0.074779
-0.077391
-0.081796
-0.087033
-0.091496
-0.094091
-0.094292
-0.092144
-0.088160
-0.083137
-0.077942
-0.073305
-0.069665
-0.067075
-0.065201
-0.063395
-0.060806
-0.056511
-0.049705
-0.040073
-0.028659
-0.017184
-0.005993
0.004285
0.013328
0.021015
0.027325
0.032276
0.035897
0.038235
0.039354
0.039324
0.038130
0.035789
0.031786
0.026289
0.019650
0.012129
0.004189
-0.003583
-0.010521
-0.015989
-0.019544
-0.021105
-0.021007
-0.019857
-0.018128
-0.016056
-0.013751
-0.011351
-0.009071
-0.006965
-0.005100
-0.003520
-0.002246
-0.001277
-0.000596
-0.000183
-0.000008
-0.000042
-0.000258
-0.000631
-0.001139
-0.001763
-0.002488
-0.003304
-0.004201
-0.005174
-0.006220
-0.007338
-0.008525
-0.009783
-0.011110
-0.012636
0.405414
0.399948
0.390619
0.378346
0.362956
0.344013
0.321057
0.293747
0.261907
0.225651
0.185519
0.142598
0.098562
0.055555
0.015877
-0.018495
-0.046243
-0.066781
-0.080527
-0.088249
-0.091033
-0.090252
-0.087307
-0.083492
-0.079920
-0.077422
-0.076453
-0.077048
-0.078874
-0.081043
-0.082670
-0.083051
-0.081851
-0.079161
-0.075445
-0.071395
-0.067750
-0.065103
-0.063756
-0.063624
-0.064234
-0.064814
-0.064440
-0.062104
-0.056609
-0.046855
-0.035084
-0.022060
-0.009296
0.002335
0.012451
0.020949
0.027851
0.033219
0.037124
0.039651
0.040922
0.041154
0.040232
0.037659
0.033735
0.028349
0.021626
0.013843
0.005464
-0.002886
-0.010472
-0.016548
-0.020528
-0.022187
-0.021787
-0.020273
-0.018366
-0.016262
-0.014064
-0.011810
-0.009514
-0.007354
-0.005436
-0.003812
-0.002503
-0.001507
-0.000806
-0.000376
-0.000189
-0.000216
-0.000429
-0.000801
-0.001312
-0.001941
-0.002674
-0.003500
-0.004409
-0.005396
-0.006455
-0.007585
-0.008783
-0.010051
-0.011404
-0.012627
0.416059
0.401762
0.389345
0.375731
0.359559
0.340117
0.316974
0.289818
0.258541
0.223318
0.184701
0.143697
0.101791
0.060832
0.022781
-0.010636
-0.038232
-0.059531
-0.074338
-0.083293
-0.087470
-0.088104
-0.086455
-0.083697
-0.080829
-0.078614
-0.077484
-0.077499
-0.078350
-0.079418
-0.080008
-0.079561
-0.077817
-0.074882
-0.071187
-0.067367
-0.064093
-0.061898
-0.061036
-0.061387
-0.062462
-0.063477
-0.063503
-0.061595
-0.056892
-0.049168
-0.037180
-0.023428
-0.009960
0.002210
0.012697
0.021429
0.028457
0.033867
0.037744
0.040182
0.041291
0.041116
0.039798
0.037270
0.033391
0.028116
0.021555
0.013977
0.005823
-0.002311
-0.009731
-0.015738
-0.019788
-0.021687
-0.021747
-0.020391
-0.018377
-0.016212
-0.014007
-0.011775
-0.009544
-0.007428
-0.005531
-0.003917
-0.002611
-0.001613
-0.000909
-0.000476
-0.000285
-0.000309
-0.000519
-0.000890
-0.001401
-0.002031
-0.002767
-0.003596
-0.004510
-0.005502
-0.006567
-0.007701
-0.008899
-0.010156
-0.011466
-0.012545
