# vtk DataFile Version 3.0
Scalar Field
ASCII
DATASET RECTILINEAR_GRID
DIMENSIONS 100 26 1
X_COORDINATES 100 double
0.050000 0.150000 0.250000 0.350000 0.450000 0.550000 0.650000 0.750000 0.850000 0.950000 1.050000 1.150000 1.250000 1.350000 1.450000 1.550000 1.650000 1.750000 1.850000 1.950000 2.050000 2.150000 2.250000 2.350000 2.450000 2.550000 2.650000 2.750000 2.850000 2.950000 3.050000 3.150000 3.250000 3.350000 3.450000 3.550000 3.650000 3.750000 3.850000 3.950000 4.050000 4.150000 4.250000 4.350000 4.450000 4.550000 4.650000 4.750000 4.850000 4.950000 5.050000 5.150000 5.250000 5.350000 5.450000 5.550000 5.650000 5.750000 5.850000 5.950000 6.050000 6.150000 6.250000 6.350000 6.450000 6.550000 6.650000 6.750000 6.850000 6.950000 7.050000 7.150000 7.250000 7.350000 7.450000 7.550000 7.650000 7.750000 7.850000 7.950000 8.050000 8.150000 8.250000 8.350000 8.450000 8.550000 8.650000 8.750000 8.850000 8.950000 9.050000 9.150000 9.250000 9.350000 9.450000 9.550000 9.650000 9.750000 9.850000 9.950000 
Y_COORDINATES 26 double
0.050000 0.150000 0.250000 0.350000 0.450000 0.550000 0.650000 0.750000 0.850000 0.950000 1.050000 1.150000 1.250000 1.350000 1.450000 1.550000 1.650000 1.750000 1.850000 1.950000 2.050000 2.150000 2.250000 2.350000 2.450000 2.550000 
Z_COORDINATES 1 double
0.0
POINT_DATA 2600
SCALARS Skalarfeld double 1
LOOKUP_TABLE default
0.188185
0.172910
0.157827
0.140027
0.118659
0.093588
0.065088
0.033830
0.001068
-0.031266
-0.060824
-0.085456
-0.103558
-0.114392
-0.118528
-0.117115
-0.111578
-0.103330
-0.093590
-0.083301
-0.073126
-0.063492
-0.054641
-0.046690
-0.039670
-0.033561
-0.028314
-0.023864
-0.020139
-0.017065
-0.014574
-0.012596
-0.011056
-0.009904
-0.009094
-0.008581
-0.008325
-0.008290
-0.008448
-0.008770
-0.009235
-0.009821
-0.010513
-0.011296
-0.012158
-0.013087
-0.014075
-0.015113
-0.016195
-0.017316
-0.018469
-0.019651
-0.020858
-0.022086
-0.023334
-0.024598
-0.025876
-0.027167
-0.028469
-0.029781
-0.031101
-0.032428
-0.033762
-0.035102
-0.036446
-0.037795
-0.039148
-0.040504
-0.041863
-0.043225
-0.044589
-0.045955
-0.047323
-0.048693
-0.050065
-0.051439
-0.052814
-0.054191
-0.055569
-0.056950
-0.058333
-0.059718
-0.061107
-0.062499
-0.063896
-0.065299
-0.066710
-0.068129
-0.069562
-0.071010
-0.072479
-0.073976
-0.075512
-0.077099
-0.078762
-0.080535
-0.082482
-0.084724
-0.087516
-0.089171
0.179280
0.172773
0.160552
0.143741
0.122401
0.096619
0.066718
0.033484
-0.001595
-0.036233
-0.067626
-0.093175
-0.111283
-0.121514
-0.124526
-0.121720
-0.114754
-0.105215
-0.094415
-0.083329
-0.072604
-0.062628
-0.053598
-0.045583
-0.038578
-0.032532
-0.027375
-0.023025
-0.019401
-0.016423
-0.014013
-0.012102
-0.010637
-0.009554
-0.008804
-0.008340
-0.008126
-0.008126
-0.008312
-0.008658
-0.009141
-0.009744
-0.010449
-0.011243
-0.012113
-0.013050
-0.014043
-0.015087
-0.016173
-0.017297
-0.018453
-0.019637
-0.020846
-0.022077
-0.023326
-0.024591
-0.025870
-0.027162
-0.028465
-0.029777
-0.031098
-0.032426
-0.033760
-0.035100
-0.036444
-0.037793
-0.039146
-0.040503
-0.041862
-0.043224
-0.044588
-0.045954
-0.047322
-0.048693
-0.050064
-0.051438
-0.052813
-0.054189
-0.055568
-0.056948
-0.058330
-0.059715
-0.061103
-0.062494
-0.063890
-0.065291
-0.066699
-0.068116
-0.069544
-0.070987
-0.072448
-0.073935
-0.075453
-0.077016
-0.078637
-0.080336
-0.082138
-0.084056
-0.086022
-0.087633
0.182335
0.178108
0.167556
0.151376
0.129694
0.102501
0.069992
0.032963
-0.006799
-0.046343
-0.081815
-0.109843
-0.128527
-0.137469
-0.137976
-0.132085
-0.121979
-0.109608
-0.096483
-0.083638
-0.071691
-0.060947
-0.051501
-0.043326
-0.036332
-0.030406
-0.025428
-0.021285
-0.017872
-0.015096
-0.012874
-0.011135
-0.009816
-0.008861
-0.008220
-0.007850
-0.007714
-0.007780
-0.008021
-0.008413
-0.008935
-0.009570
-0.010302
-0.011118
-0.012007
-0.012960
-0.013967
-0.015021
-0.016117
-0.017249
-0.018412
-0.019602
-0.020816
-0.022050
-0.023303
-0.024571
-0.025853
-0.027148
-0.028452
-0.029766
-0.031088
-0.032417
-0.033753
-0.035093
-0.036439
-0.037789
-0.039142
-0.040499
-0.041858
-0.043221
-0.044585
-0.045952
-0.047320
-0.048690
-0.050062
-0.051435
-0.052810
-0.054186
-0.055564
-0.056944
-0.058325
-0.059709
-0.061095
-0.062485
-0.063878
-0.065276
-0.066680
-0.068091
-0.069511
-0.070944
-0.072391
-0.073857
-0.075348
-0.076868
-0.078424
-0.080021
-0.081654
-0.083294
-0.084848
-0.086342
0.193159
0.189592
0.179753
0.163712
0.141205
0.111815
0.075332
0.032337
-0.015113
-0.063082
-0.105488
-0.137396
-0.156520
-0.162932
-0.159106
-0.148154
-0.133078
-0.116342
-0.099706
-0.084252
-0.070514
-0.058651
-0.048600
-0.040187
-0.033200
-0.027432
-0.022698
-0.018836
-0.015713
-0.013216
-0.011253
-0.009747
-0.008633
-0.007856
-0.007367
-0.007127
-0.007102
-0.007262
-0.007582
-0.008040
-0.008618
-0.009300
-0.010072
-0.010922
-0.011840
-0.012816
-0.013844
-0.014915
-0.016026
-0.017170
-0.018344
-0.019543
-0.020765
-0.022007
-0.023265
-0.024538
-0.025825
-0.027123
-0.028430
-0.029747
-0.031072
-0.032403
-0.033740
-0.035082
-0.036429
-0.037780
-0.039134
-0.040492
-0.041852
-0.043215
-0.044580
-0.045947
-0.047316
-0.048686
-0.050058
-0.051431
-0.052806
-0.054182
-0.055559
-0.056938
-0.058318
-0.059700
-0.061085
-0.062472
-0.063861
-0.065255
-0.066653
-0.068056
-0.069467
-0.070885
-0.072314
-0.073756
-0.075212
-0.076684
-0.078171
-0.079669
-0.081163
-0.082618
-0.083971
-0.085376
0.210504
0.207201
0.197742
0.181683
0.158158
0.125973
0.084029
0.032176
-0.027490
-0.089884
-0.143649
-0.180941
-0.199390
-0.200694
-0.189475
-0.170543
-0.148043
-0.125071
-0.103614
-0.084703
-0.068677
-0.055442
-0.044689
-0.036036
-0.029111
-0.023584
-0.019186
-0.015699
-0.012953
-0.010816
-0.009183
-0.007974
-0.007119
-0.006566
-0.006269
-0.006194
-0.006308
-0.006586
-0.007007
-0.007550
-0.008200
-0.008943
-0.009766
-0.010660
-0.011614
-0.012622
-0.013677
-0.014772
-0.015902
-0.017063
-0.018251
-0.019463
-0.020695
-0.021946
-0.023212
-0.024492
-0.025785
-0.027088
-0.028400
-0.029720
-0.031048
-0.032382
-0.033722
-0.035066
-0.036415
-0.037768
-0.039124
-0.040483
-0.041844
-0.043208
-0.044573
-0.045941
-0.047310
-0.048681
-0.050053
-0.051426
-0.052800
-0.054176
-0.055552
-0.056930
-0.058309
-0.059690
-0.061072
-0.062455
-0.063841
-0.065229
-0.066620
-0.068015
-0.069413
-0.070817
-0.072226
-0.073640
-0.075060
-0.076484
-0.077907
-0.079322
-0.080710
-0.082045
-0.083286
-0.084634
0.233872
0.230829
0.221915
0.206223
0.182099
0.147109
0.098399
0.033885
-0.045251
-0.133887
-0.206295
-0.249776
-0.263971
-0.255082
-0.231383
-0.200108
-0.166826
-0.135272
-0.107509
-0.084310
-0.065603
-0.050875
-0.039453
-0.030671
-0.023947
-0.018806
-0.014880
-0.011888
-0.009624
-0.007934
-0.006709
-0.005856
-0.005311
-0.005025
-0.004956
-0.005075
-0.005354
-0.005773
-0.006312
-0.006956
-0.007691
-0.008506
-0.009391
-0.010338
-0.011337
-0.012383
-0.013470
-0.014593
-0.015747
-0.016929
-0.018135
-0.019362
-0.020607
-0.021869
-0.023145
-0.024434
-0.025734
-0.027043
-0.028361
-0.029687
-0.031019
-0.032356
-0.033699
-0.035047
-0.036398
-0.037752
-0.039110
-0.040471
-0.041833
-0.043198
-0.044565
-0.045933
-0.047303
-0.048674
-0.050046
-0.051419
-0.052793
-0.054169
-0.055545
-0.056921
-0.058299
-0.059677
-0.061057
-0.062437
-0.063818
-0.065201
-0.066584
-0.067969
-0.069355
-0.070743
-0.072131
-0.073519
-0.074905
-0.076285
-0.077653
-0.079001
-0.080312
-0.081566
-0.082739
-0.084050
0.262777
0.260186
0.252427
0.238174
0.214885
0.178365
0.122622
0.040897
-0.070237
-0.211386
-0.313724
-0.359917
-0.360499
-0.331997
-0.287713
-0.237769
-0.189199
-0.146174
-0.110483
-0.082240
-0.060627
-0.044467
-0.032571
-0.023899
-0.017612
-0.013067
-0.009791
-0.007441
-0.005776
-0.004632
-0.003885
-0.003447
-0.003257
-0.003274
-0.003464
-0.003801
-0.004267
-0.004843
-0.005516
-0.006273
-0.007105
-0.008003
-0.008958
-0.009963
-0.011014
-0.012104
-0.013228
-0.014383
-0.015565
-0.016771
-0.017997
-0.019242
-0.020503
-0.021778
-0.023066
-0.024365
-0.025673
-0.026991
-0.028315
-0.029646
-0.030983
-0.032325
-0.033672
-0.035023
-0.036377
-0.037734
-0.039094
-0.040456
-0.041821
-0.043187
-0.044555
-0.045924
-0.047294
-0.048666
-0.050038
-0.051412
-0.052786
-0.054161
-0.055536
-0.056912
-0.058288
-0.059664
-0.061041
-0.062418
-0.063794
-0.065171
-0.066547
-0.067922
-0.069296
-0.070668
-0.072037
-0.073400
-0.074755
-0.076097
-0.077421
-0.078716
-0.079971
-0.081171
-0.082298
-0.083585
0.296382
0.294563
0.288940
0.277954
0.258350
0.223995
0.164159
0.061913
-0.105027
-0.359899
-0.502130
-0.532273
-0.500223
-0.437218
-0.361064
-0.284187
-0.214699
-0.156815
-0.111503
-0.077618
-0.053099
-0.035784
-0.023783
-0.015592
-0.010070
-0.006392
-0.003978
-0.002432
-0.001497
-0.000992
-0.000788
-0.000812
-0.001014
-0.001362
-0.001833
-0.002408
-0.003074
-0.003821
-0.004639
-0.005519
-0.006456
-0.007443
-0.008475
-0.009546
-0.010653
-0.011791
-0.012957
-0.014148
-0.015360
-0.016593
-0.017842
-0.019107
-0.020385
-0.021675
-0.022976
-0.024286
-0.025605
-0.026930
-0.028262
-0.029600
-0.030943
-0.032290
-0.033641
-0.034995
-0.036353
-0.037713
-0.039075
-0.040440
-0.041806
-0.043174
-0.044543
-0.045913
-0.047285
-0.048657
-0.050030
-0.051404
-0.052778
-0.054152
-0.055527
-0.056902
-0.058276
-0.059651
-0.061025
-0.062398
-0.063771
-0.065142
-0.066510
-0.067877
-0.069239
-0.070597
-0.071948
-0.073289
-0.074617
-0.075929
-0.077216
-0.078472
-0.079686
-0.080847
-0.081945
-0.083214
0.333260
0.332578
0.330252
0.324886
0.313257
0.288327
0.234862
0.119396
-0.143434
-0.654305
-0.802911
-0.769478
-0.679022
-0.566168
-0.448331
-0.337598
-0.242241
-0.166320
-0.109792
-0.069813
-0.042576
-0.024568
-0.012988
-0.005757
-0.001397
0.001109
0.002434
0.002990
0.003073
0.002875
0.002489
0.001970
0.001353
0.000656
-0.000109
-0.000932
-0.001809
-0.002734
-0.003703
-0.004713
-0.005761
-0.006842
-0.007954
-0.009095
-0.010262
-0.011451
-0.012661
-0.013891
-0.015136
-0.016397
-0.017672
-0.018958
-0.020255
-0.021562
-0.022877
-0.024199
-0.025529
-0.026864
-0.028204
-0.029549
-0.030898
-0.032251
-0.033606
-0.034965
-0.036326
-0.037689
-0.039055
-0.040421
-0.041790
-0.043159
-0.044530
-0.045902
-0.047274
-0.048647
-0.050021
-0.051395
-0.052769
-0.054143
-0.055518
-0.056892
-0.058265
-0.059638
-0.061010
-0.062380
-0.063748
-0.065114
-0.066477
-0.067835
-0.069187
-0.070532
-0.071868
-0.073191
-0.074498
-0.075784
-0.077043
-0.078269
-0.079454
-0.080588
-0.081665
-0.082921
0.371319
0.372050
0.373948
0.376308
0.377211
0.371624
0.346143
0.261414
-0.049242
-1.112318
-1.129324
-0.995073
-0.835001
-0.678478
-0.526484
-0.386711
-0.267320
-0.173273
-0.104921
-0.058621
-0.028978
-0.010875
-0.000344
0.005391
0.008168
0.009200
0.009157
0.008587
0.007771
0.006832
0.005834
0.004810
0.003770
0.002720
0.001659
0.000585
-0.000504
-0.001610
-0.002733
-0.003874
-0.005034
-0.006212
-0.007408
-0.008620
-0.009848
-0.011091
-0.012348
-0.013617
-0.014898
-0.016189
-0.017490
-0.018799
-0.020116
-0.021440
-0.022770
-0.024106
-0.025447
-0.026792
-0.028141
-0.029494
-0.030850
-0.032208
-0.033569
-0.034932
-0.036297
-0.037664
-0.039032
-0.040402
-0.041772
-0.043144
-0.044516
-0.045889
-0.047263
-0.048637
-0.050011
-0.051386
-0.052760
-0.054135
-0.055509
-0.056882
-0.058255
-0.059626
-0.060996
-0.062364
-0.063729
-0.065090
-0.066447
-0.067799
-0.069143
-0.070478
-0.071801
-0.073109
-0.074399
-0.075666
-0.076904
-0.078108
-0.079271
-0.080387
-0.081449
-0.082696
0.407965
0.410145
0.416441
0.427146
0.442570
0.462536
0.485011
0.500490
0.551266
-0.280526
-1.081033
-1.032742
-0.849040
-0.702546
-0.554588
-0.410639
-0.281223
-0.175178
-0.096983
-0.044947
-0.013262
0.004499
0.013505
0.017323
0.018113
0.017252
0.015787
0.014107
0.012391
0.010721
0.009126
0.007609
0.006161
0.004769
0.003420
0.002103
0.000807
-0.000475
-0.001750
-0.003021
-0.004293
-0.005568
-0.006847
-0.008131
-0.009422
-0.010719
-0.012023
-0.013333
-0.014650
-0.015972
-0.017300
-0.018633
-0.019970
-0.021312
-0.022658
-0.024008
-0.025361
-0.026716
-0.028075
-0.029436
-0.030799
-0.032163
-0.033530
-0.034898
-0.036267
-0.037637
-0.039009
-0.040381
-0.041754
-0.043128
-0.044502
-0.045876
-0.047251
-0.048627
-0.050002
-0.051377
-0.052752
-0.054126
-0.055500
-0.056873
-0.058245
-0.059616
-0.060984
-0.062350
-0.063712
-0.065071
-0.066424
-0.067770
-0.069107
-0.070434
-0.071748
-0.073046
-0.074323
-0.075576
-0.076799
-0.077988
-0.079137
-0.080240
-0.081292
-0.082533
0.440551
0.443900
0.453726
0.471092
0.498000
0.537923
0.597258
0.688270
0.821885
0.881002
0.000000
-0.895742
-0.758741
-0.651908
-0.531374
-0.406177
-0.283480
-0.174279
-0.089711
-0.032646
0.001522
0.019426
0.027116
0.028420
0.027016
0.024634
0.021931
0.019241
0.016708
0.014375
0.012237
0.010272
0.008450
0.006743
0.005128
0.003583
0.002092
0.000642
-0.000777
-0.002173
-0.003553
-0.004922
-0.006283
-0.007638
-0.008991
-0.010342
-0.011693
-0.013044
-0.014396
-0.015750
-0.017105
-0.018462
-0.019820
-0.021181
-0.022543
-0.023907
-0.025272
-0.026638
-0.028006
-0.029375
-0.030746
-0.032117
-0.033489
-0.034862
-0.036235
-0.037609
-0.038984
-0.040359
-0.041735
-0.043111
-0.044487
-0.045863
-0.047240
-0.048616
-0.049992
-0.051368
-0.052744
-0.054119
-0.055493
-0.056866
-0.058238
-0.059607
-0.060975
-0.062340
-0.063700
-0.065056
-0.066407
-0.067749
-0.069083
-0.070405
-0.071712
-0.073002
-0.074272
-0.075516
-0.076730
-0.077909
-0.079048
-0.080143
-0.081189
-0.082426
0.466947
0.470945
0.482668
0.503355
0.535237
0.581736
0.647467
0.736471
0.840415
0.940119
0.874650
0.000000
-0.660207
-0.561673
-0.477202
-0.383586
-0.280634
-0.176008
-0.088486
-0.026686
0.011737
0.029766
0.035740
0.036293
0.034084
0.030747
0.027146
0.023682
0.020503
0.017635
0.015051
0.012710
0.010569
0.008589
0.006738
0.004989
0.003322
0.001719
0.000166
-0.001348
-0.002830
-0.004288
-0.005726
-0.007150
-0.008563
-0.009966
-0.011363
-0.012754
-0.014142
-0.015526
-0.016909
-0.018289
-0.019669
-0.021048
-0.022426
-0.023804
-0.025181
-0.026559
-0.027936
-0.029314
-0.030692
-0.032069
-0.033447
-0.034825
-0.036203
-0.037581
-0.038959
-0.040337
-0.041716
-0.043094
-0.044472
-0.045850
-0.047228
-0.048606
-0.049983
-0.051360
-0.052736
-0.054112
-0.055486
-0.056860
-0.058232
-0.059601
-0.060969
-0.062333
-0.063693
-0.065048
-0.066397
-0.067738
-0.069070
-0.070389
-0.071694
-0.072980
-0.074246
-0.075485
-0.076695
-0.077869
-0.079004
-0.080095
-0.081139
-0.082374
0.485973
0.490045
0.501897
0.522480
0.553327
0.596246
0.652183
0.719967
0.794857
0.832461
0.809182
0.706272
0.000000
-0.485626
-0.409578
-0.358393
-0.282646
-0.191177
-0.104524
-0.038348
0.002307
0.025907
0.036999
0.039932
0.038432
0.035011
0.031048
0.027167
0.023594
0.020371
0.017472
0.014851
0.012462
0.010262
0.008216
0.006294
0.004473
0.002733
0.001060
-0.000559
-0.002135
-0.003676
-0.005188
-0.006676
-0.008145
-0.009598
-0.011039
-0.012469
-0.013891
-0.015306
-0.016714
-0.018119
-0.019519
-0.020915
-0.022309
-0.023701
-0.025091
-0.026480
-0.027867
-0.029253
-0.030638
-0.032022
-0.033405
-0.034788
-0.036171
-0.037553
-0.038934
-0.040315
-0.041696
-0.043077
-0.044457
-0.045837
-0.047216
-0.048595
-0.049974
-0.051352
-0.052729
-0.054106
-0.055481
-0.056855
-0.058228
-0.059598
-0.060966
-0.062330
-0.063691
-0.065046
-0.066395
-0.067737
-0.069068
-0.070388
-0.071693
-0.072980
-0.074245
-0.075485
-0.076695
-0.077869
-0.079005
-0.080096
-0.081139
-0.082375
0.497502
0.501177
0.511761
0.529739
0.555744
0.590281
0.633303
0.681119
0.720769
0.725554
0.676316
0.603363
0.450095
0.000000
-0.372983
-0.336388
-0.298656
-0.238014
-0.158365
-0.084066
-0.026725
0.010664
0.030745
0.038648
0.039500
0.037030
0.033373
0.029525
0.025866
0.022503
0.019442
0.016652
0.014094
0.011733
0.009535
0.007473
0.005524
0.003669
0.001892
0.000178
-0.001482
-0.003097
-0.004675
-0.006223
-0.007745
-0.009245
-0.010727
-0.012194
-0.013648
-0.015091
-0.016525
-0.017952
-0.019372
-0.020786
-0.022195
-0.023601
-0.025003
-0.026402
-0.027798
-0.029192
-0.030584
-0.031975
-0.033364
-0.034752
-0.036139
-0.037525
-0.038910
-0.040294
-0.041677
-0.043060
-0.044443
-0.045824
-0.047205
-0.048586
-0.049966
-0.051345
-0.052723
-0.054101
-0.055477
-0.056852
-0.058226
-0.059597
-0.060966
-0.062332
-0.063694
-0.065051
-0.066402
-0.067745
-0.069079
-0.070402
-0.071710
-0.073001
-0.074271
-0.075515
-0.076729
-0.077909
-0.079049
-0.080144
-0.081191
-0.082429
0.502272
0.505255
0.513765
0.527962
0.547889
0.572981
0.601085
0.627064
0.640113
0.622452
0.555780
0.429341
0.296828
-0.113177
-0.371455
-0.313171
-0.335371
-0.294365
-0.208600
-0.122687
-0.053227
-0.005850
0.021363
0.033928
0.037638
0.036831
0.034100
0.030739
0.027310
0.024025
0.020951
0.018098
0.015450
0.012985
0.010680
0.008513
0.006464
0.004514
0.002649
0.000855
-0.000878
-0.002559
-0.004197
-0.005798
-0.007368
-0.008911
-0.010431
-0.011932
-0.013416
-0.014887
-0.016344
-0.017792
-0.019231
-0.020661
-0.022086
-0.023504
-0.024917
-0.026326
-0.027732
-0.029134
-0.030533
-0.031930
-0.033324
-0.034717
-0.036108
-0.037498
-0.038886
-0.040273
-0.041659
-0.043044
-0.044429
-0.045812
-0.047195
-0.048577
-0.049958
-0.051339
-0.052718
-0.054097
-0.055475
-0.056851
-0.058226
-0.059599
-0.060969
-0.062337
-0.063701
-0.065061
-0.066415
-0.067763
-0.069102
-0.070430
-0.071745
-0.073043
-0.074321
-0.075575
-0.076799
-0.077989
-0.079138
-0.080242
-0.081295
-0.082537
0.501563
0.503748
0.509894
0.519832
0.533058
0.548294
0.562804
0.571488
0.565705
0.532463
0.454485
0.307569
0.040773
-0.523182
-0.429739
-0.331849
-0.329551
-0.281075
-0.204282
-0.125433
-0.059934
-0.013756
0.014182
0.028505
0.034216
0.035119
0.033613
0.031031
0.028054
0.025006
0.022038
0.019208
0.016536
0.014019
0.011648
0.009408
0.007283
0.005259
0.003323
0.001463
-0.000331
-0.002070
-0.003759
-0.005407
-0.007020
-0.008601
-0.010156
-0.011688
-0.013200
-0.014694
-0.016174
-0.017642
-0.019098
-0.020544
-0.021982
-0.023412
-0.024836
-0.026255
-0.027669
-0.029078
-0.030484
-0.031887
-0.033286
-0.034684
-0.036079
-0.037472
-0.038863
-0.040253
-0.041642
-0.043029
-0.044415
-0.045801
-0.047185
-0.048569
-0.049951
-0.051333
-0.052714
-0.054094
-0.055473
-0.056851
-0.058228
-0.059602
-0.060975
-0.062346
-0.063713
-0.065077
-0.066436
-0.067789
-0.069135
-0.070471
-0.071796
-0.073105
-0.074396
-0.075664
-0.076904
-0.078109
-0.079273
-0.080390
-0.081453
-0.082702
0.496843
0.498208
0.501953
0.507724
0.514732
0.521436
0.525116
0.521377
0.503621
0.462605
0.385894
0.256473
0.051021
-0.221344
-0.279258
-0.267542
-0.247509
-0.209019
-0.154577
-0.097306
-0.047863
-0.011344
0.012136
0.025296
0.031458
0.033325
0.032742
0.030858
0.028348
0.025587
0.022779
0.020026
0.017375
0.014847
0.012442
0.010156
0.007979
0.005901
0.003911
0.001998
0.000153
-0.001633
-0.003367
-0.005055
-0.006704
-0.008319
-0.009905
-0.011464
-0.013001
-0.014518
-0.016018
-0.017503
-0.018974
-0.020435
-0.021885
-0.023327
-0.024761
-0.026188
-0.027610
-0.029026
-0.030438
-0.031846
-0.033251
-0.034652
-0.036051
-0.037448
-0.038842
-0.040235
-0.041625
-0.043015
-0.044403
-0.045790
-0.047176
-0.048561
-0.049945
-0.051329
-0.052711
-0.054092
-0.055473
-0.056853
-0.058231
-0.059608
-0.060984
-0.062358
-0.063729
-0.065098
-0.066463
-0.067823
-0.069177
-0.070524
-0.071862
-0.073186
-0.074495
-0.075782
-0.077043
-0.078270
-0.079456
-0.080592
-0.081670
-0.082929
0.489625
0.490234
0.491806
0.493919
0.495718
0.495703
0.491498
0.479635
0.455399
0.412805
0.344841
0.244491
0.109386
-0.043207
-0.123578
-0.149915
-0.147685
-0.128394
-0.097123
-0.061815
-0.029422
-0.003922
0.013711
0.024461
0.030046
0.032127
0.031999
0.030564
0.028411
0.025904
0.023260
0.020603
0.018001
0.015487
0.013073
0.010764
0.008555
0.006439
0.004409
0.002456
0.000571
-0.001253
-0.003023
-0.004745
-0.006425
-0.008069
-0.009681
-0.011264
-0.012822
-0.014359
-0.015876
-0.017377
-0.018863
-0.020336
-0.021798
-0.023249
-0.024692
-0.026128
-0.027556
-0.028979
-0.030397
-0.031810
-0.033218
-0.034624
-0.036026
-0.037426
-0.038823
-0.040218
-0.041611
-0.043002
-0.044392
-0.045781
-0.047168
-0.048555
-0.049940
-0.051325
-0.052709
-0.054092
-0.055474
-0.056855
-0.058236
-0.059616
-0.060994
-0.062372
-0.063748
-0.065122
-0.066494
-0.067863
-0.069228
-0.070587
-0.071940
-0.073283
-0.074614
-0.075927
-0.077216
-0.078473
-0.079689
-0.080852
-0.081951
-0.083223
0.481303
0.481262
0.480999
0.480118
0.477841
0.472879
0.463327
0.446628
0.419621
0.378768
0.320743
0.243782
0.150749
0.053686
-0.015034
-0.052335
-0.065777
-0.062803
-0.049050
-0.030169
-0.010974
0.005387
0.017547
0.025481
0.029874
0.031625
0.031558
0.030322
0.028384
0.026060
0.023554
0.020990
0.018445
0.015959
0.013554
0.011239
0.009013
0.006875
0.004818
0.002835
0.000921
-0.000932
-0.002730
-0.004479
-0.006185
-0.007853
-0.009486
-0.011089
-0.012666
-0.014219
-0.015752
-0.017266
-0.018765
-0.020249
-0.021720
-0.023181
-0.024632
-0.026074
-0.027509
-0.028937
-0.030360
-0.031777
-0.033190
-0.034598
-0.036004
-0.037406
-0.038805
-0.040203
-0.041598
-0.042991
-0.044382
-0.045773
-0.047161
-0.048549
-0.049936
-0.051322
-0.052707
-0.054092
-0.055476
-0.056859
-0.058242
-0.059624
-0.061006
-0.062387
-0.063768
-0.065149
-0.066528
-0.067906
-0.069283
-0.070657
-0.072028
-0.073393
-0.074751
-0.076095
-0.077420
-0.078718
-0.079975
-0.081176
-0.082306
-0.083595
0.473073
0.472489
0.470724
0.467483
0.462150
0.453710
0.440734
0.421428
0.393781
0.355856
0.306344
0.245525
0.176749
0.107791
0.052074
0.014414
-0.006664
-0.014015
-0.011831
-0.004109
0.005684
0.015042
0.022550
0.027714
0.030640
0.031724
0.031432
0.030190
0.028335
0.026118
0.023709
0.021224
0.018735
0.016285
0.013899
0.011590
0.009361
0.007211
0.005139
0.003138
0.001203
-0.000671
-0.002490
-0.004260
-0.005986
-0.007672
-0.009323
-0.010943
-0.012534
-0.014101
-0.015646
-0.017172
-0.018681
-0.020174
-0.021654
-0.023122
-0.024580
-0.026028
-0.027468
-0.028901
-0.030328
-0.031749
-0.033165
-0.034577
-0.035984
-0.037389
-0.038791
-0.040190
-0.041586
-0.042981
-0.044374
-0.045766
-0.047156
-0.048545
-0.049933
-0.051320
-0.052706
-0.054092
-0.055478
-0.056863
-0.058248
-0.059633
-0.061018
-0.062404
-0.063789
-0.065176
-0.066563
-0.067952
-0.069341
-0.070731
-0.072122
-0.073512
-0.074900
-0.076282
-0.077653
-0.079003
-0.080316
-0.081573
-0.082747
-0.084061
0.465938
0.464873
0.461847
0.456740
0.449142
0.438317
0.423237
0.402686
0.375434
0.340503
0.297574
0.247565
0.193281
0.139719
0.093479
0.058268
0.034513
0.021364
0.016320
0.016664
0.019890
0.024029
0.027782
0.030480
0.031925
0.032202
0.031526
0.030142
0.028273
0.026099
0.023752
0.021328
0.018891
0.016480
0.014120
0.011826
0.009603
0.007454
0.005375
0.003365
0.001418
-0.000470
-0.002303
-0.004088
-0.005828
-0.007528
-0.009192
-0.010825
-0.012428
-0.014006
-0.015561
-0.017095
-0.018612
-0.020113
-0.021600
-0.023074
-0.024537
-0.025990
-0.027434
-0.028871
-0.030301
-0.031725
-0.033144
-0.034558
-0.035969
-0.037375
-0.038779
-0.040179
-0.041577
-0.042973
-0.044367
-0.045760
-0.047151
-0.048541
-0.049930
-0.051318
-0.052706
-0.054093
-0.055480
-0.056867
-0.058254
-0.059642
-0.061030
-0.062419
-0.063810
-0.065203
-0.066598
-0.067996
-0.069398
-0.070804
-0.072216
-0.073633
-0.075055
-0.076481
-0.077907
-0.079324
-0.080715
-0.082052
-0.083295
-0.084646
0.460785
0.459192
0.454967
0.448284
0.438960
0.426488
0.410139
0.389099
0.362629
0.330284
0.292196
0.249395
0.204076
0.159566
0.119694
0.087119
0.062773
0.046556
0.037110
0.032643
0.031350
0.031692
0.032542
0.033198
0.033315
0.032795
0.031687
0.030102
0.028168
0.025999
0.023691
0.021316
0.018926
0.016556
0.014228
0.011956
0.009748
0.007606
0.005530
0.003518
0.001567
-0.000328
-0.002170
-0.003963
-0.005713
-0.007422
-0.009095
-0.010736
-0.012348
-0.013934
-0.015496
-0.017037
-0.018560
-0.020066
-0.021558
-0.023037
-0.024504
-0.025961
-0.027408
-0.028848
-0.030281
-0.031707
-0.033128
-0.034545
-0.035956
-0.037364
-0.038769
-0.040171
-0.041570
-0.042967
-0.044362
-0.045756
-0.047148
-0.048539
-0.049929
-0.051318
-0.052706
-0.054095
-0.055483
-0.056871
-0.058260
-0.059650
-0.061041
-0.062433
-0.063829
-0.065227
-0.066629
-0.068036
-0.069450
-0.070872
-0.072304
-0.073748
-0.075207
-0.076681
-0.078171
-0.079671
-0.081167
-0.082625
-0.083981
-0.085389
0.458595
0.456108
0.450441
0.442243
0.431507
0.417858
0.400744
0.379595
0.353953
0.323644
0.288974
0.250913
0.211191
0.172177
0.136431
0.105946
0.081727
0.063929
0.051846
0.044295
0.039959
0.037628
0.036338
0.035416
0.034454
0.033256
0.031758
0.029978
0.027970
0.025798
0.023522
0.021193
0.018851
0.016523
0.014232
0.011989
0.009801
0.007674
0.005607
0.003600
0.001651
-0.000244
-0.002088
-0.003885
-0.005639
-0.007354
-0.009032
-0.010678
-0.012295
-0.013885
-0.015452
-0.016998
-0.018525
-0.020035
-0.021530
-0.023011
-0.024481
-0.025940
-0.027391
-0.028832
-0.030267
-0.031695
-0.033118
-0.034535
-0.035948
-0.037357
-0.038763
-0.040165
-0.041565
-0.042963
-0.044359
-0.045753
-0.047146
-0.048537
-0.049928
-0.051317
-0.052707
-0.054096
-0.055485
-0.056875
-0.058265
-0.059657
-0.061050
-0.062445
-0.063844
-0.065247
-0.066655
-0.068070
-0.069494
-0.070930
-0.072380
-0.073849
-0.075342
-0.076865
-0.078424
-0.080023
-0.081659
-0.083302
-0.084859
-0.086356
0.461055
0.456114
0.448278
0.438477
0.426525
0.412028
0.394459
0.373388
0.348479
0.319651
0.287247
0.252143
0.215772
0.179983
0.146723
0.117616
0.093670
0.075036
0.061398
0.051941
0.045660
0.041571
0.038835
0.036820
0.035097
0.033410
0.031631
0.029714
0.027660
0.025497
0.023258
0.020977
0.018683
0.016402
0.014149
0.011938
0.009776
0.007668
0.005616
0.003619
0.001676
-0.000214
-0.002056
-0.003853
-0.005607
-0.007322
-0.009002
-0.010650
-0.012268
-0.013861
-0.015429
-0.016977
-0.018506
-0.020018
-0.021514
-0.022998
-0.024469
-0.025930
-0.027381
-0.028824
-0.030259
-0.031688
-0.033111
-0.034530
-0.035943
-0.037353
-0.038759
-0.040162
-0.041563
-0.042961
-0.044357
-0.045751
-0.047144
-0.048536
-0.049927
-0.051318
-0.052707
-0.054097
-0.055487
-0.056877
-0.058269
-0.059662
-0.061056
-0.062454
-0.063855
-0.065262
-0.066674
-0.068095
-0.069527
-0.070973
-0.072438
-0.073927
-0.075448
-0.077013
-0.078637
-0.080339
-0.082143
-0.084064
-0.086032
-0.087647
0.472658
0.458888
0.447957
0.436775
0.424002
0.408935
0.391182
0.370289
0.345909
0.317949
0.286732
0.253075
0.218271
0.183950
0.151799
0.123221
0.099092
0.080028
0.065675
0.055345
0.048171
0.043272
0.039871
0.037355
0.035286
0.033383
0.031485
0.029515
0.027452
0.025303
0.023091
0.020840
0.018577
0.016322
0.014092
0.011899
0.009752
0.007656
0.005612
0.003621
0.001683
-0.000204
-0.002044
-0.003840
-0.005593
-0.007309
-0.008989
-0.010637
-0.012257
-0.013850
-0.015419
-0.016968
-0.018497
-0.020010
-0.021507
-0.022991
-0.024463
-0.025925
-0.027376
-0.028820
-0.030256
-0.031685
-0.033109
-0.034527
-0.035941
-0.037351
-0.038757
-0.040161
-0.041562
-0.042960
-0.044356
-0.045751
-0.047144
-0.048536
-0.049927
-0.051318
-0.052708
-0.054098
-0.055488
-0.056879
-0.058271
-0.059664
-0.061060
-0.062459
-0.063861
-0.065269
-0.066684
-0.068108
-0.069544
-0.070996
-0.072468
-0.073968
-0.075506
-0.077097
-0.078762
-0.080538
-0.082488
-0.084732
-0.087527
-0.089185
