# vtk DataFile Version 3.0
Vector Field
ASCII
DATASET RECTILINEAR_GRID
DIMENSIONS 100 26 1
X_COORDINATES 100 double
0.050000 0.150000 0.250000 0.350000 0.450000 0.550000 0.650000 0.750000 0.850000 0.950000 1.050000 1.150000 1.250000 1.350000 1.450000 1.550000 1.650000 1.750000 1.850000 1.950000 2.050000 2.150000 2.250000 2.350000 2.450000 2.550000 2.650000 2.750000 2.850000 2.950000 3.050000 3.150000 3.250000 3.350000 3.450000 3.550000 3.650000 3.750000 3.850000 3.950000 4.050000 4.150000 4.250000 4.350000 4.450000 4.550000 4.650000 4.750000 4.850000 4.950000 5.050000 5.150000 5.250000 5.350000 5.450000 5.550000 5.650000 5.750000 5.850000 5.950000 6.050000 6.150000 6.250000 6.350000 6.450000 6.550000 6.650000 6.750000 6.850000 6.950000 7.050000 7.150000 7.250000 7.350000 7.450000 7.550000 7.650000 7.750000 7.850000 7.950000 8.050000 8.150000 8.250000 8.350000 8.450000 8.550000 8.650000 8.750000 8.850000 8.950000 9.050000 9.150000 9.250000 9.350000 9.450000 9.550000 9.650000 9.750000 9.850000 9.950000 
Y_COORDINATES 26 double
0.050000 0.150000 0.250000 0.350000 0.450000 0.550000 0.650000 0.750000 0.850000 0.950000 1.050000 1.150000 1.250000 1.350000 1.450000 1.550000 1.650000 1.750000 1.850000 1.950000 2.050000 2.150000 2.250000 2.350000 2.450000 2.550000 
Z_COORDINATES 1 double
0.0
POINT_DATA 2600
VECTORS Vektorfeld double
0.997717 0.002283 0.0
0.993178 0.002256 0.0
0.990298 0.000624 0.0
0.991384 -0.001709 0.0
0.997423 -0.004330 0.0
1.008713 -0.006959 0.0
1.024994 -0.009323 0.0
1.045454 -0.011136 0.0
1.068728 -0.012138 0.0
1.093017 -0.012150 0.0
1.116312 -0.011145 0.0
1.136694 -0.009237 0.0
1.152548 -0.006618 0.0
1.162678 -0.003511 0.0
1.166425 -0.000236 0.0
1.163605 0.003057 0.0
1.154162 0.006386 0.0
1.138126 0.009650 0.0
1.115747 0.012728 0.0
1.087532 0.015487 0.0
1.054246 0.017799 0.0
1.016900 0.019547 0.0
0.976706 0.020646 0.0
0.935022 0.021039 0.0
0.893277 0.020706 0.0
0.852899 0.019671 0.0
0.815231 0.017997 0.0
0.781442 0.015792 0.0
0.752446 0.013205 0.0
0.728818 0.010423 0.0
0.710732 0.007663 0.0
0.697911 0.005158 0.0
0.689600 0.003152 0.0
0.684583 0.001866 0.0
0.681245 0.001472 0.0
0.677713 0.002061 0.0
0.672052 0.003600 0.0
0.662535 0.005917 0.0
0.647872 0.008746 0.0
0.627344 0.011782 0.0
0.600838 0.014724 0.0
0.568804 0.017310 0.0
0.532179 0.019316 0.0
0.492305 0.020559 0.0
0.450899 0.020847 0.0
0.410195 0.019857 0.0
0.373279 0.017058 0.0
0.344201 0.012020 0.0
0.326892 0.005288 0.0
0.322483 -0.000879 0.0
0.327383 -0.004021 0.0
0.336620 -0.005216 0.0
0.347693 -0.005857 0.0
0.359721 -0.006171 0.0
0.372055 -0.006163 0.0
0.384113 -0.005894 0.0
0.395440 -0.005433 0.0
0.405728 -0.004855 0.0
0.414806 -0.004224 0.0
0.422625 -0.003594 0.0
0.429222 -0.003003 0.0
0.434705 -0.002479 0.0
0.439221 -0.002037 0.0
0.442939 -0.001682 0.0
0.446031 -0.001410 0.0
0.448657 -0.001215 0.0
0.450954 -0.001083 0.0
0.453036 -0.001000 0.0
0.454989 -0.000953 0.0
0.456869 -0.000927 0.0
0.458709 -0.000913 0.0
0.460520 -0.000899 0.0
0.462300 -0.000880 0.0
0.464033 -0.000852 0.0
0.465699 -0.000814 0.0
0.467277 -0.000764 0.0
0.468748 -0.000706 0.0
0.470096 -0.000642 0.0
0.471312 -0.000574 0.0
0.472392 -0.000506 0.0
0.473337 -0.000439 0.0
0.474153 -0.000377 0.0
0.474849 -0.000319 0.0
0.475437 -0.000268 0.0
0.475930 -0.000224 0.0
0.476341 -0.000187 0.0
0.476685 -0.000157 0.0
0.476976 -0.000134 0.0
0.477228 -0.000118 0.0
0.477455 -0.000109 0.0
0.477673 -0.000108 0.0
0.477897 -0.000115 0.0
0.478144 -0.000132 0.0
0.478435 -0.000159 0.0
0.478794 -0.000200 0.0
0.479254 -0.000259 0.0
0.479854 -0.000340 0.0
0.480643 -0.000449 0.0
0.481673 -0.000581 0.0
0.482989 -0.000735 0.0
1.003008 0.001558 0.0
1.011748 -0.001220 0.0
1.025429 -0.006701 0.0
1.043527 -0.013568 0.0
1.066073 -0.021057 0.0
1.093058 -0.028507 0.0
1.124199 -0.035197 0.0
1.158802 -0.040324 0.0
1.195689 -0.043113 0.0
1.233231 -0.043007 0.0
1.269591 -0.039943 0.0
1.303081 -0.034311 0.0
1.332389 -0.026706 0.0
1.356572 -0.017734 0.0
1.374796 -0.007984 0.0
1.386281 0.002140 0.0
1.390602 0.012424 0.0
1.387726 0.022525 0.0
1.377899 0.032060 0.0
1.361645 0.040624 0.0
1.339766 0.047827 0.0
1.313309 0.053322 0.0
1.283529 0.056845 0.0
1.251823 0.058230 0.0
1.219662 0.057421 0.0
1.188511 0.054486 0.0
1.159740 0.049621 0.0
1.134540 0.043156 0.0
1.113835 0.035542 0.0
1.098204 0.027344 0.0
1.087827 0.019205 0.0
1.082440 0.011823 0.0
1.081321 0.005917 0.0
1.083295 0.002144 0.0
1.086801 0.001025 0.0
1.089987 0.002855 0.0
1.090891 0.007563 0.0
1.087721 0.014640 0.0
1.079124 0.023283 0.0
1.064329 0.032567 0.0
1.043181 0.041593 0.0
1.016091 0.049564 0.0
0.983971 0.055806 0.0
0.948175 0.059740 0.0
0.910453 0.060794 0.0
0.872823 0.058244 0.0
0.837136 0.051274 0.0
0.804244 0.039776 0.0
0.773428 0.025657 0.0
0.743948 0.012641 0.0
0.718544 0.002963 0.0
0.701792 -0.004684 0.0
0.694781 -0.010452 0.0
0.695206 -0.014029 0.0
0.700479 -0.015912 0.0
0.708856 -0.016580 0.0
0.719123 -0.016342 0.0
0.730368 -0.015479 0.0
0.741908 -0.014219 0.0
0.753233 -0.012743 0.0
0.763986 -0.011204 0.0
0.773946 -0.009721 0.0
0.783014 -0.008380 0.0
0.791194 -0.007237 0.0
0.798567 -0.006320 0.0
0.805270 -0.005633 0.0
0.811467 -0.005159 0.0
0.817327 -0.004866 0.0
0.823003 -0.004715 0.0
0.828618 -0.004660 0.0
0.834256 -0.004658 0.0
0.839960 -0.004670 0.0
0.845734 -0.004663 0.0
0.851548 -0.004617 0.0
0.857350 -0.004517 0.0
0.863072 -0.004361 0.0
0.868642 -0.004151 0.0
0.873991 -0.003895 0.0
0.879059 -0.003605 0.0
0.883798 -0.003294 0.0
0.888174 -0.002973 0.0
0.892169 -0.002654 0.0
0.895777 -0.002346 0.0
0.899004 -0.002057 0.0
0.901866 -0.001790 0.0
0.904385 -0.001551 0.0
0.906587 -0.001339 0.0
0.908501 -0.001157 0.0
0.910158 -0.001004 0.0
0.911588 -0.000881 0.0
0.912821 -0.000787 0.0
0.913884 -0.000723 0.0
0.914803 -0.000690 0.0
0.915604 -0.000692 0.0
0.916312 -0.000734 0.0
0.916949 -0.000823 0.0
0.917543 -0.000971 0.0
0.918134 -0.001197 0.0
0.918806 -0.001535 0.0
0.919652 -0.001944 0.0
1.001911 -0.003362 0.0
1.008799 -0.011929 0.0
1.021458 -0.022331 0.0
1.039476 -0.034055 0.0
1.062845 -0.046486 0.0
1.091602 -0.058820 0.0
1.125559 -0.069982 0.0
1.164041 -0.078624 0.0
1.205690 -0.083349 0.0
1.248362 -0.082985 0.0
1.289542 -0.077503 0.0
1.327109 -0.067808 0.0
1.359668 -0.055078 0.0
1.386442 -0.040319 0.0
1.407026 -0.024208 0.0
1.421191 -0.007288 0.0
1.428822 0.009900 0.0
1.429921 0.026826 0.0
1.424653 0.042854 0.0
1.413432 0.057304 0.0
1.396938 0.069521 0.0
1.376081 0.078941 0.0
1.351956 0.085133 0.0
1.325772 0.087832 0.0
1.298793 0.086958 0.0
1.272272 0.082621 0.0
1.247390 0.075139 0.0
1.225198 0.065030 0.0
1.206566 0.053004 0.0
1.192157 0.039923 0.0
1.182404 0.026757 0.0
1.177514 0.014548 0.0
1.177442 0.004384 0.0
1.181779 -0.002634 0.0
1.189560 -0.005484 0.0
1.199264 -0.003526 0.0
1.209067 0.003237 0.0
1.217072 0.014132 0.0
1.221585 0.027875 0.0
1.221432 0.042923 0.0
1.216026 0.057791 0.0
1.205309 0.071174 0.0
1.189659 0.081966 0.0
1.169796 0.089238 0.0
1.146651 0.092163 0.0
1.121134 0.090022 0.0
1.093831 0.082486 0.0
1.064947 0.070340 0.0
1.034972 0.055884 0.0
1.005380 0.041486 0.0
0.977447 0.027456 0.0
0.950929 0.014094 0.0
0.926047 0.002662 0.0
0.904921 -0.006442 0.0
0.889351 -0.013202 0.0
0.879295 -0.017612 0.0
0.873740 -0.020022 0.0
0.871622 -0.020926 0.0
0.872016 -0.020706 0.0
0.874124 -0.019688 0.0
0.877289 -0.018176 0.0
0.881013 -0.016432 0.0
0.884948 -0.014672 0.0
0.888886 -0.013063 0.0
0.892742 -0.011723 0.0
0.896525 -0.010717 0.0
0.900319 -0.010064 0.0
0.904238 -0.009740 0.0
0.908408 -0.009687 0.0
0.912936 -0.009830 0.0
0.917892 -0.010082 0.0
0.923303 -0.010361 0.0
0.929152 -0.010594 0.0
0.935377 -0.010726 0.0
0.941891 -0.010723 0.0
0.948585 -0.010570 0.0
0.955341 -0.010268 0.0
0.962046 -0.009832 0.0
0.968596 -0.009286 0.0
0.974901 -0.008657 0.0
0.980889 -0.007975 0.0
0.986509 -0.007267 0.0
0.991724 -0.006557 0.0
0.996516 -0.005865 0.0
1.000880 -0.005207 0.0
1.004822 -0.004594 0.0
1.008358 -0.004033 0.0
1.011509 -0.003528 0.0
1.014300 -0.003082 0.0
1.016761 -0.002694 0.0
1.018919 -0.002365 0.0
1.020804 -0.002093 0.0
1.022443 -0.001879 0.0
1.023863 -0.001725 0.0
1.025088 -0.001633 0.0
1.026139 -0.001611 0.0
1.027033 -0.001671 0.0
1.027782 -0.001836 0.0
1.028374 -0.002160 0.0
1.028794 -0.002585 0.0
1.001526 -0.006799 0.0
1.007496 -0.021350 0.0
1.019250 -0.037322 0.0
1.036841 -0.054672 0.0
1.060586 -0.072982 0.0
1.090887 -0.091383 0.0
1.127939 -0.108428 0.0
1.171297 -0.122018 0.0
1.219491 -0.129799 0.0
1.269358 -0.129074 0.0
1.316856 -0.120093 0.0
1.359073 -0.105000 0.0
1.394665 -0.086037 0.0
1.423283 -0.064751 0.0
1.444914 -0.041991 0.0
1.459520 -0.018276 0.0
1.467015 0.005763 0.0
1.467438 0.029441 0.0
1.461034 0.051912 0.0
1.448293 0.072208 0.0
1.430013 0.089392 0.0
1.407254 0.102685 0.0
1.381241 0.111526 0.0
1.353270 0.115594 0.0
1.324636 0.114809 0.0
1.296585 0.109342 0.0
1.270276 0.099610 0.0
1.246755 0.086273 0.0
1.226934 0.070213 0.0
1.211583 0.052475 0.0
1.201339 0.034201 0.0
1.196740 0.016592 0.0
1.198193 0.000961 0.0
1.205675 -0.011030 0.0
1.218400 -0.017595 0.0
1.234682 -0.017401 0.0
1.252118 -0.010127 0.0
1.268283 0.003326 0.0
1.281361 0.021089 0.0
1.290273 0.040951 0.0
1.294562 0.060879 0.0
1.294211 0.079154 0.0
1.289456 0.094391 0.0
1.280646 0.105486 0.0
1.268121 0.111586 0.0
1.252094 0.112143 0.0
1.232613 0.107148 0.0
1.209734 0.097440 0.0
1.183891 0.084601 0.0
1.156029 0.070222 0.0
1.127263 0.055418 0.0
1.098715 0.041199 0.0
1.071264 0.027890 0.0
1.045067 0.015653 0.0
1.020217 0.005124 0.0
0.997635 -0.003300 0.0
0.978486 -0.009629 0.0
0.963203 -0.013917 0.0
0.951459 -0.016366 0.0
0.942656 -0.017333 0.0
0.936183 -0.017223 0.0
0.931501 -0.016426 0.0
0.928173 -0.015286 0.0
0.925884 -0.014098 0.0
0.924438 -0.013097 0.0
0.923754 -0.012443 0.0
0.923835 -0.012212 0.0
0.924729 -0.012405 0.0
0.926496 -0.012959 0.0
0.929179 -0.013769 0.0
0.932785 -0.014705 0.0
0.937270 -0.015635 0.0
0.942545 -0.016443 0.0
0.948482 -0.017040 0.0
0.954928 -0.017369 0.0
0.961717 -0.017406 0.0
0.968684 -0.017156 0.0
0.975678 -0.016644 0.0
0.982565 -0.015911 0.0
0.989235 -0.015005 0.0
0.995599 -0.013978 0.0
1.001594 -0.012877 0.0
1.007178 -0.011745 0.0
1.012328 -0.010618 0.0
1.017035 -0.009525 0.0
1.021303 -0.008487 0.0
1.025145 -0.007519 0.0
1.028583 -0.006631 0.0
1.031640 -0.005828 0.0
1.034344 -0.005112 0.0
1.036723 -0.004484 0.0
1.038806 -0.003941 0.0
1.040618 -0.003483 0.0
1.042186 -0.003109 0.0
1.043529 -0.002818 0.0
1.044666 -0.002614 0.0
1.045608 -0.002504 0.0
1.046355 -0.002499 0.0
1.046884 -0.002618 0.0
1.047160 -0.002822 0.0
1.001327 -0.009652 0.0
1.006685 -0.029825 0.0
1.017606 -0.051523 0.0
1.034584 -0.075040 0.0
1.058448 -0.100222 0.0
1.090259 -0.126256 0.0
1.131010 -0.151358 0.0
1.180929 -0.172364 0.0
1.238955 -0.185672 0.0
1.299728 -0.183840 0.0
1.355639 -0.168736 0.0
1.402754 -0.145689 0.0
1.440620 -0.118807 0.0
1.470177 -0.090156 0.0
1.492293 -0.060333 0.0
1.507160 -0.029407 0.0
1.514438 0.002121 0.0
1.513803 0.033294 0.0
1.505274 0.062993 0.0
1.489320 0.089821 0.0
1.466913 0.112465 0.0
1.439385 0.129899 0.0
1.408262 0.141450 0.0
1.375116 0.146787 0.0
1.341478 0.145887 0.0
1.308790 0.139004 0.0
1.278379 0.126667 0.0
1.251445 0.109671 0.0
1.229036 0.089046 0.0
1.212034 0.065995 0.0
1.201179 0.041780 0.0
1.197172 0.017619 0.0
1.200673 -0.005020 0.0
1.211910 -0.023768 0.0
1.230136 -0.035809 0.0
1.253390 -0.038724 0.0
1.278643 -0.031493 0.0
1.302348 -0.015178 0.0
1.321597 0.007266 0.0
1.335210 0.032249 0.0
1.343393 0.057108 0.0
1.346791 0.079879 0.0
1.346072 0.099141 0.0
1.341728 0.113889 0.0
1.333992 0.123444 0.0
1.322841 0.127464 0.0
1.308094 0.126055 0.0
1.289627 0.119880 0.0
1.267598 0.110033 0.0
1.242530 0.097720 0.0
1.215197 0.084018 0.0
1.186500 0.069845 0.0
1.157321 0.055873 0.0
1.128485 0.042704 0.0
1.100721 0.030687 0.0
1.074476 0.019964 0.0
1.049929 0.010802 0.0
1.027378 0.003487 0.0
1.007301 -0.001949 0.0
0.990025 -0.005671 0.0
0.975558 -0.007945 0.0
0.963645 -0.009109 0.0
0.953929 -0.009561 0.0
0.946095 -0.009700 0.0
0.939924 -0.009878 0.0
0.935299 -0.010353 0.0
0.932177 -0.011261 0.0
0.930556 -0.012628 0.0
0.930435 -0.014382 0.0
0.931785 -0.016381 0.0
0.934533 -0.018446 0.0
0.938549 -0.020394 0.0
0.943655 -0.022065 0.0
0.949639 -0.023339 0.0
0.956271 -0.024148 0.0
0.963322 -0.024468 0.0
0.970581 -0.024320 0.0
0.977858 -0.023751 0.0
0.984999 -0.022831 0.0
0.991880 -0.021635 0.0
0.998409 -0.020242 0.0
1.004524 -0.018724 0.0
1.010187 -0.017146 0.0
1.015380 -0.015561 0.0
1.020102 -0.014011 0.0
1.024364 -0.012530 0.0
1.028184 -0.011139 0.0
1.031589 -0.009853 0.0
1.034606 -0.008680 0.0
1.037265 -0.007624 0.0
1.039598 -0.006684 0.0
1.041632 -0.005858 0.0
1.043394 -0.005142 0.0
1.044909 -0.004532 0.0
1.046196 -0.004026 0.0
1.047272 -0.003620 0.0
1.048144 -0.003313 0.0
1.048814 -0.003106 0.0
1.049269 -0.002995 0.0
1.049487 -0.002940 0.0
1.001129 -0.012108 0.0
1.005758 -0.037356 0.0
1.015443 -0.064598 0.0
1.031061 -0.094560 0.0
1.054051 -0.127555 0.0
1.086443 -0.163126 0.0
1.130654 -0.199450 0.0
1.188510 -0.232047 0.0
1.261273 -0.256777 0.0
1.337938 -0.250174 0.0
1.402277 -0.222653 0.0
1.450713 -0.187323 0.0
1.486410 -0.150736 0.0
1.513351 -0.114725 0.0
1.534097 -0.078625 0.0
1.549119 -0.041005 0.0
1.557138 -0.001578 0.0
1.556600 0.038165 0.0
1.546778 0.076473 0.0
1.527936 0.111137 0.0
1.501241 0.140252 0.0
1.468398 0.162483 0.0
1.431324 0.177064 0.0
1.391944 0.183699 0.0
1.352096 0.182460 0.0
1.313498 0.173717 0.0
1.277736 0.158127 0.0
1.246244 0.136637 0.0
1.220255 0.110478 0.0
1.200728 0.081092 0.0
1.188309 0.049958 0.0
1.183397 0.018360 0.0
1.186421 -0.012287 0.0
1.197785 -0.039101 0.0
1.217294 -0.058210 0.0
1.243793 -0.066076 0.0
1.275045 -0.060646 0.0
1.307475 -0.042160 0.0
1.336279 -0.013805 0.0
1.357413 0.018573 0.0
1.370233 0.049780 0.0
1.376431 0.077612 0.0
1.377638 0.100919 0.0
1.374998 0.119094 0.0
1.369104 0.131868 0.0
1.360090 0.139206 0.0
1.347812 0.141337 0.0
1.332084 0.138793 0.0
1.312873 0.132359 0.0
1.290402 0.122934 0.0
1.265133 0.111405 0.0
1.237704 0.098584 0.0
1.208844 0.085172 0.0
1.179312 0.071773 0.0
1.149836 0.058858 0.0
1.121055 0.046818 0.0
1.093541 0.036009 0.0
1.067758 0.026616 0.0
1.044005 0.018752 0.0
1.022441 0.012467 0.0
1.003138 0.007686 0.0
0.986138 0.004174 0.0
0.971450 0.001560 0.0
0.959047 -0.000586 0.0
0.948891 -0.002665 0.0
0.940936 -0.004985 0.0
0.935149 -0.007720 0.0
0.931507 -0.010906 0.0
0.929969 -0.014446 0.0
0.930450 -0.018149 0.0
0.932796 -0.021773 0.0
0.936786 -0.025074 0.0
0.942143 -0.027848 0.0
0.948556 -0.029953 0.0
0.955710 -0.031320 0.0
0.963307 -0.031944 0.0
0.971081 -0.031876 0.0
0.978811 -0.031203 0.0
0.986323 -0.030032 0.0
0.993486 -0.028478 0.0
1.000211 -0.026653 0.0
1.006442 -0.024660 0.0
1.012153 -0.022585 0.0
1.017340 -0.020501 0.0
1.022012 -0.018465 0.0
1.026193 -0.016518 0.0
1.029911 -0.014689 0.0
1.033200 -0.012996 0.0
1.036095 -0.011449 0.0
1.038630 -0.010051 0.0
1.040841 -0.008800 0.0
1.042756 -0.007691 0.0
1.044404 -0.006719 0.0
1.045810 -0.005875 0.0
1.046993 -0.005153 0.0
1.047968 -0.004543 0.0
1.048746 -0.004040 0.0
1.049328 -0.003632 0.0
1.049713 -0.003308 0.0
1.049890 -0.003022 0.0
1.000847 -0.014083 0.0
1.004371 -0.043535 0.0
1.011953 -0.075686 0.0
1.024737 -0.111874 0.0
1.044729 -0.153223 0.0
1.075126 -0.200246 0.0
1.120564 -0.251980 0.0
1.186232 -0.303041 0.0
1.281006 -0.353319 0.0
1.378121 -0.327412 0.0
1.442566 -0.274198 0.0
1.479558 -0.221207 0.0
1.501700 -0.174692 0.0
1.517865 -0.133876 0.0
1.532904 -0.095259 0.0
1.547755 -0.054244 0.0
1.559215 -0.007819 0.0
1.562523 0.041636 0.0
1.554902 0.090446 0.0
1.536140 0.134768 0.0
1.507684 0.171772 0.0
1.471702 0.199788 0.0
1.430509 0.218026 0.0
1.386334 0.226293 0.0
1.341259 0.224788 0.0
1.297244 0.214002 0.0
1.256136 0.194712 0.0
1.219638 0.168042 0.0
1.189184 0.135515 0.0
1.165735 0.099029 0.0
1.149503 0.060674 0.0
1.139666 0.022392 0.0
1.135021 -0.014698 0.0
1.135813 -0.048845 0.0
1.143565 -0.075727 0.0
1.159885 -0.091378 0.0
1.186069 -0.092780 0.0
1.221772 -0.078159 0.0
1.263374 -0.048213 0.0
1.303089 -0.007868 0.0
1.333037 0.033452 0.0
1.351888 0.068892 0.0
1.362538 0.097783 0.0
1.367167 0.120242 0.0
1.367103 0.136678 0.0
1.362992 0.147522 0.0
1.355057 0.153234 0.0
1.343338 0.154344 0.0
1.327885 0.151471 0.0
1.308881 0.145297 0.0
1.286672 0.136519 0.0
1.261759 0.125813 0.0
1.234749 0.113813 0.0
1.206317 0.101096 0.0
1.177152 0.088176 0.0
1.147921 0.075511 0.0
1.119242 0.063510 0.0
1.091645 0.052495 0.0
1.065546 0.042723 0.0
1.041256 0.034350 0.0
1.018990 0.027372 0.0
0.998884 0.021595 0.0
0.981027 0.016685 0.0
0.965499 0.012219 0.0
0.952397 0.007788 0.0
0.941838 0.003076 0.0
0.933932 -0.002088 0.0
0.928741 -0.007704 0.0
0.926244 -0.013613 0.0
0.926323 -0.019541 0.0
0.928749 -0.025153 0.0
0.933193 -0.030128 0.0
0.939257 -0.034214 0.0
0.946513 -0.037257 0.0
0.954547 -0.039204 0.0
0.962985 -0.040094 0.0
0.971510 -0.040026 0.0
0.979871 -0.039145 0.0
0.987882 -0.037612 0.0
0.995411 -0.035590 0.0
1.002380 -0.033234 0.0
1.008748 -0.030678 0.0
1.014506 -0.028036 0.0
1.019668 -0.025398 0.0
1.024262 -0.022834 0.0
1.028325 -0.020393 0.0
1.031900 -0.018108 0.0
1.035031 -0.015998 0.0
1.037762 -0.014073 0.0
1.040134 -0.012334 0.0
1.042185 -0.010777 0.0
1.043947 -0.009393 0.0
1.045452 -0.008171 0.0
1.046724 -0.007101 0.0
1.047783 -0.006169 0.0
1.048644 -0.005364 0.0
1.049320 -0.004672 0.0
1.049814 -0.004077 0.0
1.050131 -0.003565 0.0
1.050267 -0.003079 0.0
1.000438 -0.015369 0.0
1.002313 -0.047649 0.0
1.006558 -0.083398 0.0
1.014315 -0.124703 0.0
1.027807 -0.173878 0.0
1.051136 -0.233317 0.0
1.091606 -0.304818 0.0
1.160505 -0.384771 0.0
1.285483 -0.491340 0.0
1.399734 -0.400758 0.0
1.435975 -0.301538 0.0
1.434983 -0.229866 0.0
1.424922 -0.178114 0.0
1.417543 -0.139239 0.0
1.418941 -0.106332 0.0
1.431523 -0.070603 0.0
1.451442 -0.022839 0.0
1.467463 0.037328 0.0
1.470808 0.099030 0.0
1.460464 0.155289 0.0
1.438175 0.201996 0.0
1.406496 0.237226 0.0
1.367943 0.260332 0.0
1.324789 0.271316 0.0
1.279129 0.270500 0.0
1.232999 0.258435 0.0
1.188425 0.235961 0.0
1.147329 0.204387 0.0
1.111234 0.165719 0.0
1.080783 0.122725 0.0
1.055290 0.078703 0.0
1.032524 0.036966 0.0
1.008824 -0.000926 0.0
0.983145 -0.037730 0.0
0.961182 -0.072632 0.0
0.951511 -0.101122 0.0
0.960281 -0.117988 0.0
0.989702 -0.118074 0.0
1.038156 -0.098354 0.0
1.100490 -0.059777 0.0
1.165714 -0.009810 0.0
1.219948 0.039068 0.0
1.258668 0.078237 0.0
1.285489 0.108338 0.0
1.303206 0.130930 0.0
1.313457 0.147129 0.0
1.317244 0.157776 0.0
1.315223 0.163543 0.0
1.307913 0.165035 0.0
1.295814 0.162837 0.0
1.279470 0.157532 0.0
1.259486 0.149698 0.0
1.236525 0.139899 0.0
1.211286 0.128681 0.0
1.184478 0.116564 0.0
1.156791 0.104040 0.0
1.128873 0.091578 0.0
1.101296 0.079601 0.0
1.074541 0.068471 0.0
1.048996 0.058438 0.0
1.024973 0.049573 0.0
1.002739 0.041735 0.0
0.982547 0.034595 0.0
0.964667 0.027717 0.0
0.949390 0.020670 0.0
0.937000 0.013143 0.0
0.927733 0.005017 0.0
0.921730 -0.003616 0.0
0.919010 -0.012485 0.0
0.919430 -0.021167 0.0
0.922659 -0.029182 0.0
0.928221 -0.036106 0.0
0.935562 -0.041642 0.0
0.944124 -0.045647 0.0
0.953394 -0.048117 0.0
0.962931 -0.049156 0.0
0.972386 -0.048943 0.0
0.981493 -0.047696 0.0
0.990067 -0.045645 0.0
0.997992 -0.043012 0.0
1.005207 -0.039997 0.0
1.011695 -0.036771 0.0
1.017469 -0.033476 0.0
1.022567 -0.030218 0.0
1.027037 -0.027078 0.0
1.030936 -0.024111 0.0
1.034322 -0.021350 0.0
1.037250 -0.018815 0.0
1.039775 -0.016512 0.0
1.041944 -0.014437 0.0
1.043801 -0.012581 0.0
1.045381 -0.010931 0.0
1.046716 -0.009472 0.0
1.047832 -0.008188 0.0
1.048751 -0.007060 0.0
1.049488 -0.006072 0.0
1.050055 -0.005206 0.0
1.050459 -0.004443 0.0
1.050707 -0.003764 0.0
1.050797 -0.003106 0.0
0.999901 -0.015708 0.0
0.999566 -0.048850 0.0
0.999159 -0.086035 0.0
0.999364 -0.130028 0.0
1.001778 -0.184458 0.0
1.010083 -0.254370 0.0
1.032750 -0.346903 0.0
1.088539 -0.467375 0.0
1.239878 -0.685052 0.0
1.340847 -0.422266 0.0
1.289660 -0.265084 0.0
1.216259 -0.191927 0.0
1.157760 -0.147494 0.0
1.115772 -0.120493 0.0
1.094120 -0.104825 0.0
1.098186 -0.088757 0.0
1.129619 -0.056037 0.0
1.175230 0.008893 0.0
1.211477 0.087872 0.0
1.228895 0.159373 0.0
1.230712 0.218383 0.0
1.219858 0.263373 0.0
1.198527 0.294069 0.0
1.168586 0.310674 0.0
1.131859 0.313530 0.0
1.090267 0.303129 0.0
1.045783 0.280325 0.0
1.000046 0.246856 0.0
0.953297 0.206094 0.0
0.903104 0.162994 0.0
0.845348 0.121683 0.0
0.779606 0.082495 0.0
0.714204 0.042646 0.0
0.660984 -0.002403 0.0
0.629419 -0.054431 0.0
0.624500 -0.104734 0.0
0.644515 -0.143161 0.0
0.684946 -0.162753 0.0
0.742521 -0.159704 0.0
0.815164 -0.133405 0.0
0.900454 -0.086696 0.0
0.990985 -0.028813 0.0
1.071542 0.026842 0.0
1.132920 0.071533 0.0
1.177853 0.105084 0.0
1.210298 0.130278 0.0
1.232445 0.148694 0.0
1.245749 0.161343 0.0
1.251322 0.168972 0.0
1.250117 0.172204 0.0
1.243014 0.171612 0.0
1.230866 0.167750 0.0
1.214508 0.161166 0.0
1.194757 0.152404 0.0
1.172406 0.142001 0.0
1.148202 0.130494 0.0
1.122830 0.118414 0.0
1.096899 0.106273 0.0
1.070932 0.094521 0.0
1.045384 0.083481 0.0
1.020673 0.073263 0.0
0.997226 0.063726 0.0
0.975513 0.054509 0.0
0.956058 0.045137 0.0
0.939413 0.035172 0.0
0.926091 0.024353 0.0
0.916494 0.012672 0.0
0.910842 0.000384 0.0
0.909127 -0.012050 0.0
0.911069 -0.023964 0.0
0.916131 -0.034676 0.0
0.923617 -0.043660 0.0
0.932801 -0.050614 0.0
0.943013 -0.055450 0.0
0.953684 -0.058255 0.0
0.964362 -0.059234 0.0
0.974703 -0.058662 0.0
0.984465 -0.056847 0.0
0.993490 -0.054094 0.0
1.001690 -0.050688 0.0
1.009033 -0.046878 0.0
1.015528 -0.042873 0.0
1.021217 -0.038837 0.0
1.026157 -0.034895 0.0
1.030421 -0.031135 0.0
1.034081 -0.027613 0.0
1.037210 -0.024363 0.0
1.039878 -0.021399 0.0
1.042146 -0.018721 0.0
1.044068 -0.016319 0.0
1.045692 -0.014179 0.0
1.047058 -0.012279 0.0
1.048197 -0.010599 0.0
1.049138 -0.009117 0.0
1.049900 -0.007811 0.0
1.050500 -0.006658 0.0
1.050950 -0.005637 0.0
1.051259 -0.004725 0.0
1.051433 -0.003903 0.0
1.051474 -0.003098 0.0
0.999288 -0.014897 0.0
0.996405 -0.046442 0.0
0.990481 -0.082112 0.0
0.981231 -0.124906 0.0
0.968427 -0.179192 0.0
0.952573 -0.252087 0.0
0.937192 -0.356472 0.0
0.937376 -0.513778 0.0
1.036326 -0.888937 0.0
1.028062 -0.205642 0.0
0.827223 -0.112439 0.0
0.674431 -0.106581 0.0
0.585639 -0.085550 0.0
0.525414 -0.080223 0.0
0.501224 -0.099252 0.0
0.521790 -0.118963 0.0
0.580163 -0.115638 0.0
0.668242 -0.065196 0.0
0.762163 0.031793 0.0
0.834242 0.125955 0.0
0.881869 0.202359 0.0
0.909960 0.262161 0.0
0.920647 0.305926 0.0
0.915368 0.334037 0.0
0.895419 0.346842 0.0
0.861787 0.345041 0.0
0.814464 0.330220 0.0
0.751802 0.305360 0.0
0.671843 0.274297 0.0
0.577499 0.239329 0.0
0.481515 0.199087 0.0
0.402925 0.149423 0.0
0.356429 0.087616 0.0
0.346072 0.016203 0.0
0.363771 -0.059171 0.0
0.396470 -0.127775 0.0
0.437009 -0.180675 0.0
0.484378 -0.213039 0.0
0.539924 -0.222538 0.0
0.605424 -0.208713 0.0
0.681933 -0.173186 0.0
0.769005 -0.119926 0.0
0.862973 -0.056569 0.0
0.952094 0.004444 0.0
1.024279 0.055055 0.0
1.078695 0.093446 0.0
1.119361 0.122713 0.0
1.148700 0.144681 0.0
1.168306 0.160454 0.0
1.179424 0.170810 0.0
1.183139 0.176393 0.0
1.180460 0.177796 0.0
1.172340 0.175599 0.0
1.159680 0.170381 0.0
1.143329 0.162726 0.0
1.124068 0.153234 0.0
1.102600 0.142513 0.0
1.079548 0.131156 0.0
1.055472 0.119682 0.0
1.030903 0.108438 0.0
1.006409 0.097512 0.0
0.982641 0.086691 0.0
0.960371 0.075528 0.0
0.940456 0.063488 0.0
0.923764 0.050158 0.0
0.911054 0.035399 0.0
0.902850 0.019428 0.0
0.899354 0.002776 0.0
0.900372 -0.013745 0.0
0.905281 -0.029121 0.0
0.913189 -0.042488 0.0
0.923163 -0.053306 0.0
0.934366 -0.061354 0.0
0.946117 -0.066673 0.0
0.957893 -0.069479 0.0
0.969307 -0.070101 0.0
0.980089 -0.068919 0.0
0.990064 -0.066326 0.0
0.999126 -0.062702 0.0
1.007234 -0.058387 0.0
1.014388 -0.053676 0.0
1.020625 -0.048808 0.0
1.026007 -0.043972 0.0
1.030611 -0.039304 0.0
1.034520 -0.034898 0.0
1.037822 -0.030811 0.0
1.040599 -0.027071 0.0
1.042926 -0.023686 0.0
1.044872 -0.020648 0.0
1.046496 -0.017938 0.0
1.047845 -0.015533 0.0
1.048962 -0.013406 0.0
1.049878 -0.011528 0.0
1.050621 -0.009872 0.0
1.051211 -0.008408 0.0
1.051662 -0.007112 0.0
1.051987 -0.005958 0.0
1.052195 -0.004920 0.0
1.052290 -0.003977 0.0
1.052276 -0.003049 0.0
0.998708 -0.012893 0.0
0.993403 -0.040258 0.0
0.982168 -0.071138 0.0
0.963547 -0.108008 0.0
0.934810 -0.154549 0.0
0.890934 -0.217000 0.0
0.822094 -0.307338 0.0
0.709084 -0.450086 0.0
0.319188 -0.767128 0.0
-0.464576 0.277959 0.0
-0.464576 0.000000 0.0
-0.038594 -0.027215 0.0
-0.067953 -0.058145 0.0
-0.027106 -0.088250 0.0
0.045669 -0.139810 0.0
0.124784 -0.178087 0.0
0.197306 -0.187408 0.0
0.270805 -0.155004 0.0
0.359092 -0.060607 0.0
0.448433 0.056936 0.0
0.519490 0.152693 0.0
0.572359 0.230866 0.0
0.605907 0.292984 0.0
0.618787 0.339377 0.0
0.609954 0.370283 0.0
0.578455 0.386730 0.0
0.523800 0.390510 0.0
0.448665 0.382868 0.0
0.362813 0.362600 0.0
0.283084 0.325100 0.0
0.226607 0.265777 0.0
0.202469 0.185461 0.0
0.209248 0.091294 0.0
0.238157 -0.006027 0.0
0.277520 -0.094002 0.0
0.319066 -0.167189 0.0
0.360235 -0.222969 0.0
0.401631 -0.259509 0.0
0.445681 -0.275664 0.0
0.495564 -0.270970 0.0
0.554126 -0.246000 0.0
0.622857 -0.202915 0.0
0.701162 -0.145852 0.0
0.786229 -0.080461 0.0
0.870332 -0.016327 0.0
0.942288 0.038456 0.0
0.998186 0.081140 0.0
1.040912 0.114189 0.0
1.072718 0.139534 0.0
1.095059 0.158271 0.0
1.109090 0.171185 0.0
1.115831 0.178942 0.0
1.116226 0.182179 0.0
1.111157 0.181529 0.0
1.101445 0.177642 0.0
1.087834 0.171190 0.0
1.070999 0.162860 0.0
1.051556 0.153303 0.0
1.030111 0.143057 0.0
1.007324 0.132418 0.0
0.983992 0.121357 0.0
0.961100 0.109505 0.0
0.939804 0.096280 0.0
0.921339 0.081115 0.0
0.906852 0.063709 0.0
0.897215 0.044195 0.0
0.892874 0.023177 0.0
0.893767 0.001629 0.0
0.899220 -0.019069 0.0
0.908088 -0.037573 0.0
0.919160 -0.053016 0.0
0.931417 -0.065008 0.0
0.944084 -0.073523 0.0
0.956613 -0.078785 0.0
0.968632 -0.081162 0.0
0.979899 -0.081100 0.0
0.990269 -0.079072 0.0
0.999664 -0.075542 0.0
1.008055 -0.070940 0.0
1.015451 -0.065652 0.0
1.021891 -0.060004 0.0
1.027435 -0.054260 0.0
1.032156 -0.048623 0.0
1.036138 -0.043239 0.0
1.039470 -0.038205 0.0
1.042238 -0.033575 0.0
1.044526 -0.029372 0.0
1.046409 -0.025595 0.0
1.047952 -0.022228 0.0
1.049213 -0.019242 0.0
1.050240 -0.016605 0.0
1.051070 -0.014281 0.0
1.051736 -0.012235 0.0
1.052259 -0.010432 0.0
1.052660 -0.008839 0.0
1.052951 -0.007425 0.0
1.053143 -0.006162 0.0
1.053242 -0.005023 0.0
1.053254 -0.003983 0.0
1.053181 -0.002957 0.0
0.998289 -0.009890 0.0
0.991240 -0.030907 0.0
0.976223 -0.054237 0.0
0.951070 -0.081136 0.0
0.911605 -0.113219 0.0
0.849795 -0.152644 0.0
0.749003 -0.202062 0.0
0.569841 -0.263190 0.0
0.226826 -0.322350 0.0
0.000000 0.277959 0.0
-0.000000 -0.000000 0.0
0.000000 0.000000 0.0
-0.034967 -0.033690 0.0
-0.075735 -0.114060 0.0
-0.073948 -0.188561 0.0
-0.055752 -0.226646 0.0
-0.036951 -0.230173 0.0
-0.012495 -0.210194 0.0
0.037763 -0.143963 0.0
0.115888 -0.027173 0.0
0.195378 0.086254 0.0
0.258246 0.181570 0.0
0.303092 0.263887 0.0
0.325792 0.332894 0.0
0.323964 0.387428 0.0
0.297708 0.427340 0.0
0.250848 0.451414 0.0
0.194999 0.452948 0.0
0.147435 0.425936 0.0
0.122231 0.366697 0.0
0.125153 0.277734 0.0
0.153472 0.169324 0.0
0.199352 0.054773 0.0
0.251452 -0.050514 0.0
0.300903 -0.138330 0.0
0.344882 -0.208386 0.0
0.382715 -0.260774 0.0
0.415282 -0.295667 0.0
0.445042 -0.313317 0.0
0.475713 -0.313872 0.0
0.511501 -0.297449 0.0
0.555941 -0.264638 0.0
0.610735 -0.217229 0.0
0.675178 -0.158595 0.0
0.746397 -0.093515 0.0
0.818839 -0.028755 0.0
0.883580 0.027712 0.0
0.935641 0.072830 0.0
0.976355 0.108372 0.0
1.007396 0.136050 0.0
1.029895 0.156876 0.0
1.044778 0.171628 0.0
1.052866 0.181009 0.0
1.054919 0.185714 0.0
1.051635 0.186453 0.0
1.043663 0.183962 0.0
1.031616 0.178970 0.0
1.016118 0.172133 0.0
0.997881 0.163910 0.0
0.977796 0.154437 0.0
0.957007 0.143459 0.0
0.936908 0.130393 0.0
0.919045 0.114551 0.0
0.904907 0.095448 0.0
0.895683 0.073087 0.0
0.892047 0.048090 0.0
0.894045 0.021625 0.0
0.901011 -0.004678 0.0
0.911586 -0.028790 0.0
0.924230 -0.049363 0.0
0.937721 -0.065790 0.0
0.951210 -0.077980 0.0
0.964156 -0.086165 0.0
0.976246 -0.090761 0.0
0.987317 -0.092275 0.0
0.997308 -0.091245 0.0
1.006216 -0.088206 0.0
1.014077 -0.083663 0.0
1.020943 -0.078077 0.0
1.026883 -0.071853 0.0
1.031970 -0.065331 0.0
1.036282 -0.058788 0.0
1.039899 -0.052433 0.0
1.042903 -0.046416 0.0
1.045374 -0.040831 0.0
1.047388 -0.035731 0.0
1.049018 -0.031133 0.0
1.050327 -0.027026 0.0
1.051371 -0.023385 0.0
1.052199 -0.020174 0.0
1.052849 -0.017351 0.0
1.053355 -0.014872 0.0
1.053740 -0.012695 0.0
1.054023 -0.010779 0.0
1.054220 -0.009088 0.0
1.054340 -0.007586 0.0
1.054390 -0.006243 0.0
1.054376 -0.005027 0.0
1.054301 -0.003916 0.0
1.054167 -0.002816 0.0
0.998113 -0.006292 0.0
0.990353 -0.019697 0.0
0.973907 -0.033984 0.0
0.946691 -0.049019 0.0
0.904981 -0.064161 0.0
0.842627 -0.077537 0.0
0.750260 -0.084011 0.0
0.616931 -0.068749 0.0
0.439706 0.007658 0.0
0.170367 0.152894 0.0
0.000000 0.000000 0.0
-0.000000 -0.000000 0.0
0.000000 0.000000 0.0
-0.054312 -0.054129 0.0
-0.129383 -0.175392 0.0
-0.162162 -0.225232 0.0
-0.186399 -0.226151 0.0
-0.200913 -0.224157 0.0
-0.190483 -0.190690 0.0
-0.144013 -0.105040 0.0
-0.069665 0.010283 0.0
0.003542 0.121465 0.0
0.057845 0.224841 0.0
0.089876 0.317209 0.0
0.100393 0.394426 0.0
0.093048 0.453943 0.0
0.076271 0.488449 0.0
0.064836 0.483198 0.0
0.071460 0.436627 0.0
0.100534 0.352135 0.0
0.150093 0.239814 0.0
0.214076 0.114942 0.0
0.282530 -0.005179 0.0
0.345464 -0.105595 0.0
0.399114 -0.186351 0.0
0.443197 -0.248428 0.0
0.477521 -0.292889 0.0
0.502585 -0.321182 0.0
0.519972 -0.334949 0.0
0.532652 -0.335590 0.0
0.544962 -0.323829 0.0
0.561925 -0.299660 0.0
0.587891 -0.262967 0.0
0.625126 -0.214536 0.0
0.673130 -0.156796 0.0
0.728992 -0.093778 0.0
0.787856 -0.030870 0.0
0.842390 0.024817 0.0
0.887835 0.070227 0.0
0.924343 0.106646 0.0
0.952780 0.135343 0.0
0.973841 0.157218 0.0
0.988128 0.173045 0.0
0.996189 0.183565 0.0
0.998554 0.189523 0.0
0.995751 0.191667 0.0
0.988363 0.190700 0.0
0.977096 0.187168 0.0
0.962877 0.181331 0.0
0.946930 0.173047 0.0
0.930792 0.161777 0.0
0.916201 0.146765 0.0
0.904882 0.127362 0.0
0.898256 0.103401 0.0
0.897178 0.075437 0.0
0.901785 0.044770 0.0