# vtk DataFile Version 3.0
Vector Field
ASCII
DATASET RECTILINEAR_GRID
DIMENSIONS 100 26 1
X_COORDINATES 100 double
0.050000 0.150000 0.250000 0.350000 0.450000 0.550000 0.650000 0.750000 0.850000 0.950000 1.050000 1.150000 1.250000 1.350000 1.450000 1.550000 1.650000 1.750000 1.850000 1.950000 2.050000 2.150000 2.250000 2.350000 2.450000 2.550000 2.650000 2.750000 2.850000 2.950000 3.050000 3.150000 3.250000 3.350000 3.450000 3.550000 3.650000 3.750000 3.850000 3.950000 4.050000 4.150000 4.250000 4.350000 4.450000 4.550000 4.650000 4.750000 4.850000 4.950000 5.050000 5.150000 5.250000 5.350000 5.450000 5.550000 5.650000 5.750000 5.850000 5.950000 6.050000 6.150000 6.250000 6.350000 6.450000 6.550000 6.650000 6.750000 6.850000 6.950000 7.050000 7.150000 7.250000 7.350000 7.450000 7.550000 7.650000 7.750000 7.850000 7.950000 8.050000 8.150000 8.250000 8.350000 8.450000 8.550000 8.650000 8.750000 8.850000 8.950000 9.050000 9.150000 9.250000 9.350000 9.450000 9.550000 9.650000 9.750000 9.850000 9.950000 
Y_COORDINATES 26 double
0.050000 0.150000 0.250000 0.350000 0.450000 0.550000 0.650000 0.750000 0.850000 0.950000 1.050000 1.150000 1.250000 1.350000 1.450000 1.550000 1.650000 1.750000 1.850000 1.950000 2.050000 2.150000 2.250000 2.350000 2.450000 2.550000 
Z_COORDINATES 1 double
0.0
POINT_DATA 2600
VECTORS Vektorfeld double
0.997630 0.002370 0.0
0.992694 0.002567 0.0
0.988914 0.001213 0.0
0.988503 -0.000802 0.0
0.992400 -0.003096 0.0
1.000911 -0.005416 0.0
1.013852 -0.007525 0.0
1.030557 -0.009180 0.0
1.049907 -0.010170 0.0
1.070445 -0.010368 0.0
1.090608 -0.009795 0.0
1.109010 -0.008607 0.0
1.124633 -0.007017 0.0
1.136881 -0.005232 0.0
1.145521 -0.003408 0.0
1.150570 -0.001641 0.0
1.152222 -0.000011 0.0
1.150726 0.001507 0.0
1.146147 0.003072 0.0
1.138258 0.004817 0.0
1.126599 0.006841 0.0
1.110571 0.009187 0.0
1.089553 0.011831 0.0
1.063046 0.014677 0.0
1.030791 0.017578 0.0
0.992857 0.020357 0.0
0.949663 0.022836 0.0
0.901975 0.024852 0.0
0.850860 0.026263 0.0
0.797636 0.026960 0.0
0.743816 0.026860 0.0
0.691041 0.025915 0.0
0.641018 0.024108 0.0
0.595439 0.021470 0.0
0.555891 0.018077 0.0
0.523807 0.014008 0.0
0.500630 0.009170 0.0
0.488187 0.003273 0.0
0.487521 -0.002607 0.0
0.496733 -0.006606 0.0
0.512077 -0.008738 0.0
0.530248 -0.009432 0.0
0.548739 -0.009059 0.0
0.565656 -0.007858 0.0
0.579543 -0.006029 0.0
0.589401 -0.003830 0.0
0.594770 -0.001539 0.0
0.595160 0.001149 0.0
0.589265 0.004746 0.0
0.575638 0.008881 0.0
0.553650 0.013108 0.0
0.523570 0.016971 0.0
0.486688 0.019911 0.0
0.445637 0.021140 0.0
0.404698 0.019800 0.0
0.369212 0.015685 0.0
0.343621 0.009906 0.0
0.329274 0.004441 0.0
0.324080 0.000752 0.0
0.324291 -0.000963 0.0
0.326994 -0.001741 0.0
0.331090 -0.002355 0.0
0.336323 -0.002878 0.0
0.342252 -0.003051 0.0
0.348234 -0.002932 0.0
0.353765 -0.002599 0.0
0.358485 -0.002121 0.0
0.362151 -0.001546 0.0
0.364605 -0.000908 0.0
0.365703 -0.000190 0.0
0.365079 0.000813 0.0
0.362234 0.002032 0.0
0.357063 0.003139 0.0
0.350032 0.003892 0.0
0.342002 0.004139 0.0
0.334040 0.003823 0.0
0.327207 0.003009 0.0
0.322306 0.001892 0.0
0.319672 0.000742 0.0
0.319116 -0.000186 0.0
0.319849 -0.000547 0.0
0.320819 -0.000423 0.0
0.321224 0.000018 0.0
0.320528 0.000677 0.0
0.318538 0.001314 0.0
0.315500 0.001724 0.0
0.311963 0.001813 0.0
0.308536 0.001614 0.0
0.305674 0.001249 0.0
0.303578 0.000847 0.0
0.302332 0.000400 0.0
0.302096 -0.000164 0.0
0.302864 -0.000603 0.0
0.304355 -0.000888 0.0
0.306288 -0.001046 0.0
0.308379 -0.001045 0.0
0.310269 -0.000846 0.0
0.311582 -0.000466 0.0
0.312078 -0.000029 0.0
0.311740 0.000367 0.0
1.002922 0.001818 0.0
1.011269 -0.000292 0.0
1.024087 -0.004966 0.0
1.040802 -0.010926 0.0
1.061402 -0.017468 0.0
1.085854 -0.024007 0.0
1.113897 -0.029916 0.0
1.144911 -0.034509 0.0
1.177869 -0.037150 0.0
1.211387 -0.037443 0.0
1.243973 -0.035469 0.0
1.274370 -0.031732 0.0
1.301761 -0.026906 0.0
1.325791 -0.021620 0.0
1.346466 -0.016333 0.0
1.363999 -0.011298 0.0
1.378582 -0.006589 0.0
1.390219 -0.002057 0.0
1.398787 0.002647 0.0
1.404005 0.007912 0.0
1.405339 0.014072 0.0
1.402056 0.021268 0.0
1.393404 0.029419 0.0
1.378776 0.038223 0.0
1.357844 0.047217 0.0
1.330641 0.055856 0.0
1.297577 0.063595 0.0
1.259421 0.069937 0.0
1.217249 0.074465 0.0
1.172386 0.076845 0.0
1.126347 0.076835 0.0
1.080777 0.074285 0.0
1.037389 0.069150 0.0
0.997888 0.061509 0.0
0.963897 0.051576 0.0
0.936850 0.039639 0.0
0.917632 0.025934 0.0
0.905715 0.010868 0.0
0.899746 -0.003567 0.0
0.899468 -0.014580 0.0
0.905337 -0.021977 0.0
0.917325 -0.026353 0.0
0.934902 -0.028207 0.0
0.957008 -0.027733 0.0
0.981891 -0.024923 0.0
1.006867 -0.019770 0.0
1.028261 -0.012362 0.0
1.042537 -0.002696 0.0
1.047919 0.009104 0.0
1.043842 0.022227 0.0
1.030206 0.035387 0.0
1.007758 0.047219 0.0
0.978093 0.056210 0.0
0.943352 0.060632 0.0
0.905586 0.059014 0.0
0.866152 0.051392 0.0
0.825806 0.040137 0.0
0.785632 0.028731 0.0
0.748061 0.019226 0.0
0.717138 0.011275 0.0
0.696838 0.003619 0.0
0.688374 -0.003347 0.0
0.689370 -0.008114 0.0
0.696346 -0.010720 0.0
0.707099 -0.011998 0.0
0.720310 -0.012274 0.0
0.734844 -0.011700 0.0
0.749544 -0.010332 0.0
0.763153 -0.008185 0.0
0.774433 -0.005291 0.0
0.782754 -0.001784 0.0
0.788423 0.001805 0.0
0.792040 0.004921 0.0
0.794082 0.007099 0.0
0.795030 0.008015 0.0
0.795319 0.007620 0.0
0.795167 0.006197 0.0
0.794471 0.004301 0.0
0.792834 0.002604 0.0
0.789670 0.001673 0.0
0.784608 0.001923 0.0
0.777573 0.003172 0.0
0.768585 0.005005 0.0
0.758029 0.006942 0.0
0.746668 0.008401 0.0
0.735413 0.008929 0.0
0.725206 0.008353 0.0
0.716865 0.006842 0.0
0.710950 0.004798 0.0
0.707739 0.002605 0.0
0.707176 0.000450 0.0
0.708584 -0.001387 0.0
0.711099 -0.002662 0.0
0.714285 -0.003507 0.0
0.718013 -0.004087 0.0
0.722183 -0.004264 0.0
0.726488 -0.003822 0.0
0.730359 -0.002675 0.0
0.732974 -0.000931 0.0
0.733716 0.000864 0.0
1.001829 -0.002933 0.0
1.008335 -0.010395 0.0
1.020134 -0.019480 0.0
1.036732 -0.029727 0.0
1.058062 -0.040597 0.0
1.084125 -0.051393 0.0
1.114731 -0.061178 0.0
1.149255 -0.068786 0.0
1.186462 -0.073038 0.0
1.224452 -0.073063 0.0
1.261089 -0.069072 0.0
1.294705 -0.062142 0.0
1.324415 -0.053597 0.0
1.350033 -0.044578 0.0
1.371849 -0.035866 0.0
1.390398 -0.027847 0.0
1.406279 -0.020504 0.0
1.419996 -0.013496 0.0
1.431768 -0.006252 0.0
1.441438 0.001923 0.0
1.448497 0.011668 0.0
1.452157 0.023296 0.0
1.451518 0.036682 0.0
1.445805 0.051301 0.0
1.434531 0.066344 0.0
1.417587 0.080877 0.0
1.395238 0.093987 0.0
1.368071 0.104868 0.0
1.336919 0.112858 0.0
1.302796 0.117439 0.0
1.266840 0.118237 0.0
1.230265 0.115027 0.0
1.194307 0.107753 0.0
1.160163 0.096552 0.0
1.128899 0.081789 0.0
1.101312 0.064061 0.0
1.077750 0.044293 0.0
1.058148 0.024028 0.0
1.042406 0.004983 0.0
1.031227 -0.011672 0.0
1.025904 -0.025430 0.0
1.027448 -0.036432 0.0
1.036395 -0.044652 0.0
1.052631 -0.049630 0.0
1.075281 -0.050559 0.0
1.102705 -0.046533 0.0
1.132559 -0.036847 0.0
1.161722 -0.021650 0.0
1.186648 -0.002248 0.0
1.204762 0.019542 0.0
1.214891 0.041578 0.0
1.216664 0.061704 0.0
1.210281 0.077773 0.0
1.196249 0.087842 0.0
1.175076 0.090743 0.0
1.147297 0.086875 0.0
1.114021 0.078276 0.0
1.077458 0.067329 0.0
1.040501 0.055156 0.0
1.005197 0.041572 0.0
0.971804 0.027016 0.0
0.940304 0.013219 0.0
0.913032 0.001597 0.0
0.893440 -0.007816 0.0
0.882454 -0.014670 0.0
0.878582 -0.018941 0.0
0.880064 -0.021048 0.0
0.885561 -0.021181 0.0
0.894034 -0.019419 0.0
0.904655 -0.015957 0.0
0.916606 -0.011390 0.0
0.928915 -0.006567 0.0
0.940830 -0.002238 0.0
0.952107 0.000937 0.0
0.962798 0.002538 0.0
0.973022 0.002584 0.0
0.982850 0.001556 0.0
0.992244 0.000244 0.0
1.001050 -0.000508 0.0
1.009061 -0.000063 0.0
1.016050 0.001732 0.0
1.021745 0.004704 0.0
1.025832 0.008374 0.0
1.027954 0.012008 0.0
1.027698 0.014952 0.0
1.024643 0.016687 0.0
1.018467 0.016978 0.0
1.009053 0.015972 0.0
0.996625 0.014011 0.0
0.981814 0.011414 0.0
0.965611 0.008406 0.0
0.949625 0.005235 0.0
0.936001 0.001827 0.0
0.926601 -0.001783 0.0
0.922074 -0.005011 0.0
0.921737 -0.007175 0.0
0.924456 -0.007935 0.0
0.929128 -0.007106 0.0
0.934454 -0.004440 0.0
0.937267 0.000817 0.0
1.001443 -0.006205 0.0
1.007024 -0.019211 0.0
1.017888 -0.033326 0.0
1.033988 -0.048578 0.0
1.055557 -0.064644 0.0
1.082932 -0.080784 0.0
1.116268 -0.095728 0.0
1.155126 -0.107619 0.0
1.198095 -0.114380 0.0
1.242267 -0.113883 0.0
1.284091 -0.106712 0.0
1.321141 -0.095169 0.0
1.352541 -0.081680 0.0
1.378514 -0.068086 0.0
1.399871 -0.055530 0.0
1.417662 -0.044522 0.0
1.432952 -0.035001 0.0
1.446636 -0.026399 0.0
1.459223 -0.017709 0.0
1.470635 -0.007702 0.0
1.480165 0.004703 0.0
1.486681 0.020085 0.0
1.488936 0.038277 0.0
1.485909 0.058447 0.0
1.477058 0.079323 0.0
1.462387 0.099512 0.0
1.442357 0.117730 0.0
1.417727 0.132923 0.0
1.389403 0.144280 0.0
1.358330 0.151212 0.0
1.325434 0.153315 0.0
1.291592 0.150365 0.0
1.257625 0.142340 0.0
1.224277 0.129457 0.0
1.192199 0.112225 0.0
1.161926 0.091484 0.0
1.133905 0.068451 0.0
1.108686 0.044692 0.0
1.087119 0.021628 0.0
1.070239 -0.000259 0.0
1.059281 -0.020561 0.0
1.055473 -0.039037 0.0
1.059596 -0.055116 0.0
1.071846 -0.067653 0.0
1.091841 -0.075182 0.0
1.118763 -0.076256 0.0
1.151439 -0.069655 0.0
1.188138 -0.054704 0.0
1.226013 -0.031996 0.0
1.260939 -0.003749 0.0
1.289152 0.026527 0.0
1.308979 0.055154 0.0
1.320112 0.079573 0.0
1.322449 0.097737 0.0
1.315997 0.108473 0.0
1.301057 0.111863 0.0
1.278558 0.109063 0.0
1.250150 0.101513 0.0
1.217785 0.090293 0.0
1.183190 0.076333 0.0
1.147898 0.060939 0.0
1.113437 0.045256 0.0
1.080672 0.029597 0.0
1.049708 0.014741 0.0
1.021614 0.001853 0.0
0.998609 -0.008587 0.0
0.981914 -0.016190 0.0
0.971135 -0.020756 0.0
0.965269 -0.022450 0.0
0.963308 -0.021586 0.0
0.964315 -0.018717 0.0
0.967477 -0.014712 0.0
0.972180 -0.010710 0.0
0.978062 -0.007750 0.0
0.985091 -0.006495 0.0
0.993549 -0.007065 0.0
1.003949 -0.009023 0.0
1.016907 -0.011528 0.0
1.032928 -0.013563 0.0
1.052135 -0.014225 0.0
1.074009 -0.012969 0.0
1.097368 -0.009650 0.0
1.120569 -0.004560 0.0
1.141773 0.001618 0.0
1.159348 0.008022 0.0
1.172155 0.013863 0.0
1.179510 0.018623 0.0
1.181097 0.022154 0.0
1.177011 0.024343 0.0
1.167808 0.025095 0.0
1.154427 0.024308 0.0
1.137962 0.021785 0.0
1.119363 0.017501 0.0
1.099443 0.011862 0.0
1.079576 0.005739 0.0
1.062047 -0.000059 0.0
1.048979 -0.004702 0.0
1.041024 -0.007056 0.0
1.037333 -0.006125 0.0
1.035105 0.001918 0.0
1.001245 -0.008892 0.0
1.006206 -0.027066 0.0
1.016208 -0.046338 0.0
1.031626 -0.067084 0.0
1.053176 -0.089258 0.0
1.081819 -0.112189 0.0
1.118454 -0.134293 0.0
1.163252 -0.152711 0.0
1.215032 -0.164036 0.0
1.268771 -0.162139 0.0
1.317638 -0.149147 0.0
1.358142 -0.130287 0.0
1.389999 -0.109818 0.0
1.414457 -0.090380 0.0
1.433248 -0.073386 0.0
1.448182 -0.059391 0.0
1.460997 -0.048237 0.0
1.473206 -0.039055 0.0
1.485839 -0.030272 0.0
1.499064 -0.019776 0.0
1.511831 -0.005520 0.0
1.522076 0.013547 0.0
1.527588 0.037049 0.0
1.526703 0.063586 0.0
1.518623 0.091115 0.0
1.503471 0.117544 0.0
1.482058 0.141142 0.0
1.455546 0.160654 0.0
1.425170 0.175249 0.0
1.392078 0.184409 0.0
1.357253 0.187841 0.0
1.321504 0.185430 0.0
1.285499 0.177248 0.0
1.249804 0.163593 0.0
1.214937 0.145034 0.0
1.181435 0.122451 0.0
1.149929 0.097011 0.0
1.121238 0.070042 0.0
1.096366 0.042717 0.0
1.076261 0.015636 0.0
1.061679 -0.010915 0.0
1.053242 -0.036438 0.0
1.051371 -0.059966 0.0
1.056281 -0.079963 0.0
1.068200 -0.094785 0.0
1.087635 -0.103009 0.0
1.115309 -0.103252 0.0
1.151581 -0.094079 0.0
1.195568 -0.074484 0.0
1.244221 -0.044841 0.0
1.291624 -0.007996 0.0
1.330918 0.030556 0.0
1.358956 0.065000 0.0
1.375933 0.092997 0.0
1.382349 0.113249 0.0
1.378873 0.125504 0.0
1.366470 0.130324 0.0
1.346458 0.128673 0.0
1.320341 0.121615 0.0
1.289639 0.110308 0.0
1.255862 0.096033 0.0
1.220492 0.079993 0.0
1.184889 0.063228 0.0
1.150293 0.046670 0.0
1.117566 0.030744 0.0
1.087038 0.016056 0.0
1.059287 0.003612 0.0
1.035370 -0.005862 0.0
1.015808 -0.011917 0.0
1.000114 -0.014465 0.0
0.987279 -0.014010 0.0
0.976336 -0.011639 0.0
0.966699 -0.008847 0.0
0.958365 -0.007161 0.0
0.951989 -0.007736 0.0
0.948736 -0.011029 0.0
0.949957 -0.016681 0.0
0.956857 -0.023727 0.0
0.970246 -0.030774 0.0
0.990392 -0.036367 0.0
1.017014 -0.039323 0.0
1.049296 -0.038937 0.0
1.085849 -0.035026 0.0
1.124619 -0.027890 0.0
1.162848 -0.018274 0.0
1.197356 -0.007156 0.0
1.225297 0.004346 0.0
1.245114 0.015026 0.0
1.256735 0.023937 0.0
1.260782 0.030659 0.0
1.258067 0.034840 0.0
1.249546 0.036239 0.0
1.236306 0.034884 0.0
1.219620 0.031084 0.0
1.200803 0.025202 0.0
1.180948 0.017863 0.0
1.161102 0.010288 0.0
1.142833 0.004178 0.0
1.127959 0.001207 0.0
1.117833 0.006940 0.0
1.001047 -0.011184 0.0
1.005280 -0.033968 0.0
1.014034 -0.058192 0.0
1.028050 -0.084665 0.0
1.048633 -0.113810 0.0
1.077671 -0.145318 0.0
1.117431 -0.177558 0.0
1.169606 -0.206419 0.0
1.234929 -0.227432 0.0
1.303139 -0.220692 0.0
1.359506 -0.195829 0.0
1.400415 -0.165017 0.0
1.428296 -0.134827 0.0
1.446613 -0.108146 0.0
1.458407 -0.086205 0.0
1.466311 -0.069411 0.0
1.472776 -0.057497 0.0
1.480123 -0.049353 0.0
1.490313 -0.042796 0.0
1.504326 -0.034490 0.0
1.521337 -0.020584 0.0
1.538023 0.001678 0.0
1.549908 0.031521 0.0
1.553761 0.066145 0.0
1.548272 0.102124 0.0
1.533700 0.136258 0.0
1.511315 0.166226 0.0
1.482781 0.190617 0.0
1.449742 0.208700 0.0
1.413621 0.220170 0.0
1.375562 0.224964 0.0
1.336456 0.223162 0.0
1.296999 0.214978 0.0
1.257779 0.200778 0.0
1.219363 0.181131 0.0
1.182393 0.156827 0.0
1.147660 0.128874 0.0
1.116086 0.098444 0.0
1.088517 0.066758 0.0
1.065290 0.034927 0.0
1.045893 0.003773 0.0
1.029415 -0.026211 0.0
1.015522 -0.054430 0.0
1.004894 -0.079782 0.0
0.999313 -0.101304 0.0
1.001622 -0.118235 0.0
1.015015 -0.129093 0.0
1.041842 -0.131337 0.0
1.082749 -0.122119 0.0
1.136345 -0.099456 0.0
1.198924 -0.063362 0.0
1.263088 -0.017535 0.0
1.318049 0.030091 0.0
1.357719 0.071260 0.0
1.382733 0.103555 0.0
1.394729 0.126679 0.0
1.395287 0.140993 0.0
1.386007 0.147296 0.0
1.368488 0.146628 0.0
1.344298 0.140188 0.0
1.314967 0.129261 0.0
1.281987 0.115115 0.0
1.246778 0.098918 0.0
1.210653 0.081700 0.0
1.174762 0.064331 0.0
1.140078 0.047682 0.0
1.107274 0.032541 0.0
1.076524 0.019876 0.0
1.047603 0.010829 0.0
1.020054 0.006032 0.0
0.993289 0.005094 0.0
0.966972 0.006516 0.0
0.941560 0.008046 0.0
0.918448 0.007391 0.0
0.899575 0.002960 0.0
0.886870 -0.005767 0.0
0.881922 -0.018217 0.0
0.885598 -0.032768 0.0
0.897821 -0.047345 0.0
0.917892 -0.060014 0.0
0.944886 -0.069293 0.0
0.977846 -0.074211 0.0
1.015785 -0.074244 0.0
1.057579 -0.069238 0.0
1.101826 -0.059402 0.0
1.146665 -0.045374 0.0
1.189621 -0.028332 0.0
1.227563 -0.010056 0.0
1.257454 0.007507 0.0
1.277953 0.022543 0.0
1.289514 0.034109 0.0
1.293116 0.041890 0.0
1.289817 0.045772 0.0
1.280806 0.045893 0.0
1.267376 0.042640 0.0
1.250905 0.036751 0.0
1.232855 0.029296 0.0
1.214666 0.021628 0.0
1.197738 0.015560 0.0
1.184659 0.015792 0.0
1.000769 -0.013000 0.0
1.003912 -0.039528 0.0
1.010587 -0.068061 0.0
1.021794 -0.100020 0.0
1.039390 -0.136633 0.0
1.066405 -0.178548 0.0
1.107276 -0.224960 0.0
1.166992 -0.270908 0.0
1.253231 -0.314506 0.0
1.341350 -0.289945 0.0
1.399053 -0.240647 0.0
1.429825 -0.191880 0.0
1.443864 -0.149884 0.0
1.447923 -0.115464 0.0
1.445926 -0.088683 0.0
1.440654 -0.069565 0.0
1.434747 -0.057901 0.0
1.431151 -0.052700 0.0
1.433090 -0.051578 0.0
1.443289 -0.049920 0.0
1.462674 -0.041549 0.0
1.488609 -0.019978 0.0
1.513041 0.016860 0.0
1.527986 0.062009 0.0
1.530739 0.108995 0.0
1.521832 0.152866 0.0
1.503205 0.190630 0.0
1.477079 0.220873 0.0
1.445417 0.243144 0.0
1.409791 0.257474 0.0
1.371415 0.264095 0.0
1.331239 0.263314 0.0
1.290037 0.255485 0.0
1.248501 0.241028 0.0
1.207329 0.220469 0.0
1.167320 0.194467 0.0
1.129416 0.163872 0.0
1.094590 0.129846 0.0
1.063418 0.094096 0.0
1.035322 0.058912 0.0
1.008064 0.026443 0.0
0.978369 -0.002708 0.0
0.944610 -0.030280 0.0
0.909783 -0.058478 0.0
0.880574 -0.087818 0.0
0.863982 -0.117438 0.0
0.864676 -0.143977 0.0
0.883973 -0.162576 0.0
0.920842 -0.168656 0.0
0.973244 -0.158918 0.0
1.038598 -0.131832 0.0
1.113458 -0.088089 0.0
1.191518 -0.032376 0.0
1.260779 0.024796 0.0
1.312416 0.073368 0.0
1.346621 0.110666 0.0
1.365807 0.137263 0.0
1.372082 0.154030 0.0
1.367399 0.162095 0.0
1.353576 0.162735 0.0
1.332323 0.157299 0.0
1.305248 0.147132 0.0
1.273858 0.133502 0.0
1.239527 0.117571 0.0
1.203462 0.100415 0.0
1.166617 0.083126 0.0
1.129568 0.066951 0.0
1.092397 0.053387 0.0
1.054762 0.043874 0.0
1.016223 0.039075 0.0
0.976847 0.038192 0.0
0.937776 0.038806 0.0
0.901302 0.037641 0.0
0.870335 0.031875 0.0
0.847525 0.020159 0.0
0.834483 0.002782 0.0
0.831461 -0.018795 0.0
0.837664 -0.042069 0.0
0.851810 -0.064414 0.0
0.872584 -0.083789 0.0
0.898891 -0.098819 0.0
0.929902 -0.108655 0.0
0.964968 -0.112803 0.0
1.003502 -0.111007 0.0
1.044841 -0.103219 0.0
1.088109 -0.089663 0.0
1.132076 -0.070966 0.0
1.175041 -0.048329 0.0
1.214682 -0.023752 0.0
1.247972 0.000013 0.0
1.272568 0.020482 0.0
1.288169 0.036314 0.0
1.295587 0.047229 0.0
1.295814 0.053220 0.0
1.289995 0.054562 0.0
1.279417 0.051877 0.0
1.265493 0.046144 0.0
1.249747 0.038716 0.0
1.233856 0.031292 0.0
1.220612 0.026383 0.0
1.000370 -0.014139 0.0
1.001902 -0.043064 0.0
1.005324 -0.074622 0.0
1.011639 -0.110981 0.0
1.022919 -0.154549 0.0
1.043101 -0.207829 0.0
1.079275 -0.272724 0.0
1.142487 -0.346071 0.0
1.258655 -0.441750 0.0
1.366201 -0.358365 0.0
1.401464 -0.265193 0.0
1.399781 -0.196424 0.0
1.385377 -0.144975 0.0
1.366053 -0.105107 0.0
1.343947 -0.074937 0.0
1.320083 -0.054175 0.0
1.295841 -0.043142 0.0
1.273708 -0.041731 0.0
1.258001 -0.048780 0.0
1.254037 -0.058952 0.0
1.266541 -0.064406 0.0
1.297755 -0.054270 0.0
1.342149 -0.017673 0.0
1.382649 0.041098 0.0
1.407103 0.102699 0.0
1.416233 0.158938 0.0
1.413091 0.206327 0.0
1.400488 0.243905 0.0
1.380481 0.271780 0.0
1.354532 0.290411 0.0
1.323758 0.300307 0.0
1.289097 0.301938 0.0
1.251415 0.295744 0.0
1.211558 0.282162 0.0
1.170401 0.261664 0.0
1.128882 0.234800 0.0
1.087976 0.202350 0.0
1.048405 0.165763 0.0
1.009839 0.127917 0.0
0.969819 0.093208 0.0
0.924109 0.065114 0.0
0.870319 0.042106 0.0
0.811976 0.017007 0.0
0.758568 -0.017529 0.0
0.721808 -0.062798 0.0
0.708138 -0.112195 0.0
0.715817 -0.157592 0.0
0.740286 -0.192726 0.0
0.778187 -0.213277 0.0
0.827826 -0.216338 0.0
0.888283 -0.200223 0.0
0.958472 -0.164748 0.0
1.036447 -0.111751 0.0
1.117921 -0.046565 0.0
1.192125 0.018888 0.0
1.249349 0.073716 0.0
1.288893 0.115483 0.0
1.313077 0.145351 0.0
1.323938 0.164596 0.0
1.323379 0.174616 0.0
1.313187 0.176864 0.0
1.295043 0.172787 0.0
1.270501 0.163779 0.0
1.240964 0.151162 0.0
1.207616 0.136239 0.0
1.171328 0.120435 0.0
1.132559 0.105460 0.0
1.091372 0.093235 0.0
1.047715 0.085319 0.0
1.001971 0.081913 0.0
0.955558 0.081143 0.0
0.911112 0.079373 0.0
0.871992 0.072667 0.0
0.841309 0.058500 0.0
0.821020 0.036633 0.0
0.811582 0.008788 0.0
0.812105 -0.022302 0.0
0.820890 -0.053549 0.0
0.836157 -0.082347 0.0
0.856475 -0.106947 0.0
0.880816 -0.126309 0.0
0.908494 -0.139855 0.0
0.939080 -0.147257 0.0
0.972297 -0.148304 0.0
1.007900 -0.142863 0.0
1.045550 -0.130937 0.0
1.084695 -0.112804 0.0
1.124451 -0.089212 0.0
1.163506 -0.061565 0.0
1.200052 -0.032010 0.0
1.231568 -0.003607 0.0
1.255683 0.020686 0.0
1.271690 0.039431 0.0
1.280111 0.052370 0.0
1.281760 0.059582 0.0
1.277684 0.061511 0.0
1.269129 0.058988 0.0
1.257542 0.053205 0.0
1.244581 0.045654 0.0
1.232798 0.037049 0.0
0.999849 -0.014358 0.0
0.999244 -0.043772 0.0
0.998176 -0.076268 0.0
0.997212 -0.114685 0.0
0.997822 -0.162735 0.0
1.003540 -0.225543 0.0
1.022668 -0.310312 0.0
1.073730 -0.422758 0.0
1.217780 -0.625281 0.0
1.319129 -0.383728 0.0
1.278383 -0.234346 0.0
1.214170 -0.161376 0.0
1.160841 -0.112289 0.0
1.115758 -0.073385 0.0
1.074143 -0.042938 0.0
1.032877 -0.021044 0.0
0.989675 -0.008827 0.0
0.944816 -0.009054 0.0
0.903076 -0.024010 0.0
0.874833 -0.051515 0.0
0.873009 -0.082523 0.0
0.905234 -0.099593 0.0
0.969969 -0.081479 0.0
1.052806 -0.018434 0.0
1.125646 0.064938 0.0
1.174891 0.138324 0.0
1.206427 0.198547 0.0
1.224441 0.246273 0.0
1.231197 0.282664 0.0
1.228021 0.308652 0.0
1.215958 0.324904 0.0
1.196033 0.331927 0.0
1.169308 0.330162 0.0
1.136859 0.320050 0.0
1.099706 0.302087 0.0
1.058607 0.276994 0.0
1.013454 0.246215 0.0
0.962169 0.212754 0.0
0.900453 0.181207 0.0
0.825305 0.155087 0.0
0.741696 0.132553 0.0
0.664411 0.105743 0.0
0.609932 0.066193 0.0
0.585790 0.010836 0.0
0.586925 -0.055539 0.0
0.603054 -0.121914 0.0
0.627379 -0.179878 0.0
0.657426 -0.224955 0.0
0.693071 -0.254594 0.0
0.735253 -0.266843 0.0
0.785154 -0.260075 0.0
0.843509 -0.233441 0.0
0.910100 -0.187623 0.0
0.983450 -0.125516 0.0
1.060122 -0.053037 0.0
1.130888 0.017651 0.0
1.186821 0.076072 0.0
1.226738 0.120662 0.0
1.252314 0.152846 0.0
1.265165 0.174074 0.0
1.266894 0.185868 0.0
1.259057 0.189764 0.0
1.243123 0.187277 0.0
1.220415 0.179908 0.0
1.192033 0.169223 0.0
1.158762 0.157010 0.0
1.121058 0.145358 0.0
1.079224 0.136358 0.0
1.033847 0.131230 0.0
0.986363 0.129229 0.0
0.939362 0.127240 0.0
0.896295 0.120789 0.0
0.860580 0.106085 0.0
0.834607 0.081737 0.0
0.819240 0.049053 0.0
0.813960 0.011086 0.0
0.817351 -0.028514 0.0
0.827605 -0.066376 0.0
0.842998 -0.100180 0.0
0.862139 -0.128573 0.0
0.884009 -0.150894 0.0
0.907948 -0.166887 0.0
0.933613 -0.176476 0.0
0.960908 -0.179597 0.0
0.989873 -0.176138 0.0
1.020546 -0.165986 0.0
1.052825 -0.149178 0.0
1.086346 -0.126115 0.0
1.120398 -0.097768 0.0
1.153862 -0.065819 0.0
1.185215 -0.032666 0.0
1.212336 -0.001491 0.0
1.233251 0.024685 0.0
1.247297 0.044650 0.0
1.254782 0.058168 0.0
1.256372 0.065413 0.0
1.253024 0.066988 0.0
1.245955 0.063861 0.0
1.236625 0.057288 0.0
1.227138 0.046686 0.0
0.999259 -0.013465 0.0
0.996212 -0.041013 0.0
0.989873 -0.071621 0.0
0.979871 -0.108365 0.0
0.965891 -0.155683 0.0
0.948331 -0.220753 0.0
0.930599 -0.316497 0.0
0.927661 -0.464698 0.0
1.022981 -0.822712 0.0
1.025997 -0.188860 0.0
0.849164 -0.099804 0.0
0.713714 -0.086226 0.0
0.639427 -0.059822 0.0
0.584485 -0.025828 0.0
0.525441 0.010164 0.0
0.458698 0.033862 0.0
0.396239 0.041929 0.0
0.349883 0.031405 0.0
0.327931 -0.000776 0.0
0.335884 -0.054459 0.0
0.374921 -0.116793 0.0
0.441873 -0.164499 0.0
0.531708 -0.171144 0.0
0.640052 -0.119950 0.0
0.755761 -0.022096 0.0
0.854081 0.077794 0.0
0.926196 0.155426 0.0
0.980663 0.216913 0.0
1.020280 0.265653 0.0
1.045984 0.303136 0.0
1.058477 0.329990 0.0
1.058662 0.346581 0.0
1.047611 0.353283 0.0
1.026392 0.350596 0.0
0.995756 0.339331 0.0
0.955539 0.321066 0.0
0.903969 0.298865 0.0
0.838286 0.277072 0.0
0.758646 0.258246 0.0
0.673329 0.238514 0.0
0.598199 0.207865 0.0
0.548002 0.157912 0.0
0.527839 0.088665 0.0
0.532659 0.007686 0.0
0.552437 -0.073302 0.0
0.578423 -0.146265 0.0
0.606114 -0.207542 0.0
0.634172 -0.255397 0.0
0.663122 -0.288748 0.0
0.694639 -0.306390 0.0
0.730970 -0.306759 0.0
0.774205 -0.288347 0.0
0.825530 -0.250633 0.0
0.884747 -0.195074 0.0
0.950177 -0.125581 0.0
1.018360 -0.048755 0.0
1.081255 0.023648 0.0
1.131604 0.082821 0.0
1.168319 0.128397 0.0
1.192321 0.161671 0.0
1.204749 0.184115 0.0
1.206828 0.197275 0.0
1.199782 0.202747 0.0
1.184738 0.202190 0.0
1.162640 0.197421 0.0
1.134196 0.190527 0.0
1.099960 0.183781 0.0
1.060633 0.179096 0.0
1.017538 0.176963 0.0
0.973007 0.175511 0.0
0.930307 0.170659 0.0
0.892959 0.157786 0.0
0.863764 0.133999 0.0
0.844143 0.099417 0.0
0.834116 0.056768 0.0
0.832758 0.010009 0.0
0.838615 -0.036685 0.0
0.850020 -0.079864 0.0
0.865384 -0.117449 0.0
0.883350 -0.148410 0.0
0.902858 -0.172435 0.0
0.923203 -0.189629 0.0
0.944047 -0.200244 0.0
0.965394 -0.204471 0.0
0.987495 -0.202329 0.0
1.010704 -0.193676 0.0
1.035303 -0.178366 0.0
1.061349 -0.156496 0.0
1.088572 -0.128661 0.0
1.116323 -0.096142 0.0
1.143584 -0.060956 0.0
1.169003 -0.025741 0.0
1.190769 0.006254 0.0
1.207391 0.032414 0.0
1.218431 0.051879 0.0
1.224089 0.064454 0.0
1.224942 0.070442 0.0
1.221878 0.070541 0.0
1.216056 0.065760 0.0
1.209084 0.054674 0.0
0.998707 -0.011431 0.0
0.993372 -0.034665 0.0
0.982027 -0.060287 0.0
0.963181 -0.090851 0.0
0.934068 -0.130104 0.0
0.889608 -0.184312 0.0
0.819832 -0.265430 0.0
0.705362 -0.398357 0.0
0.316888 -0.697699 0.0
-0.468694 0.241153 0.0
-0.468694 0.000000 0.0
-0.029492 -0.020276 0.0
-0.054585 -0.035608 0.0
-0.039310 -0.010376 0.0
-0.009642 0.024087 0.0
0.016946 0.060093 0.0
0.022784 0.072319 0.0
0.017183 0.052971 0.0
0.014105 0.002689 0.0
0.023323 -0.075095 0.0
0.051736 -0.163607 0.0
0.104014 -0.236915 0.0
0.181587 -0.266137 0.0
0.282076 -0.233788 0.0
0.400882 -0.142774 0.0
0.526649 -0.025614 0.0
0.636505 0.076862 0.0
0.722207 0.155308 0.0
0.790449 0.219399 0.0
0.842230 0.271904 0.0
0.877724 0.313234 0.0
0.897421 0.343455 0.0
0.902028 0.362853 0.0
0.892109 0.372164 0.0
0.867612 0.372897 0.0
0.827560 0.367768 0.0
0.770978 0.360316 0.0
0.700158 0.352123 0.0
0.624454 0.338539 0.0
0.559190 0.308802 0.0
0.517917 0.253980 0.0
0.505014 0.174898 0.0
0.515742 0.081113 0.0
0.541038 -0.014878 0.0
0.572032 -0.101510 0.0
0.603070 -0.175081 0.0
0.631564 -0.234911 0.0
0.656598 -0.281120 0.0
0.678600 -0.313976 0.0
0.699250 -0.333328 0.0
0.721270 -0.338172 0.0
0.747849 -0.326747 0.0
0.781689 -0.297398 0.0
0.824084 -0.249922 0.0
0.874512 -0.186590 0.0
0.930823 -0.112240 0.0
0.989137 -0.034075 0.0
1.042348 0.036983 0.0
1.085039 0.094828 0.0
1.116482 0.139794 0.0
1.137018 0.173029 0.0
1.147345 0.195954 0.0
1.148301 0.210159 0.0
1.140714 0.217408 0.0
1.125319 0.219696 0.0
1.102755 0.219260 0.0
1.073737 0.218302 0.0
1.039409 0.218229 0.0
1.001737 0.218598 0.0
0.963607 0.216537 0.0
0.928411 0.207529 0.0
0.899194 0.187482 0.0
0.877889 0.154802 0.0
0.865096 0.111027 0.0
0.860399 0.059882 0.0
0.862830 0.005822 0.0
0.871096 -0.046621 0.0
0.883702 -0.093940 0.0
0.899156 -0.134192 0.0
0.916111 -0.166587 0.0
0.933469 -0.191125 0.0
0.950469 -0.208284 0.0
0.966745 -0.218708 0.0
0.982338 -0.222947 0.0
0.997643 -0.221261 0.0
1.013273 -0.213583 0.0
1.029861 -0.199647 0.0
1.047865 -0.179266 0.0
1.067412 -0.152661 0.0
1.088238 -0.120719 0.0
1.109695 -0.085096 0.0
1.130811 -0.048135 0.0
1.150334 -0.012643 0.0
1.166781 0.018242 0.0
1.179102 0.042689 0.0
1.187035 0.060052 0.0
1.190750 0.070276 0.0
1.190768 0.073754 0.0
1.187908 0.071229 0.0
1.183313 0.060772 0.0
0.998317 -0.008456 0.0
0.991376 -0.025364 0.0
0.976571 -0.043439 0.0
0.951756 -0.064038 0.0
0.912799 -0.088848 0.0
0.851707 -0.120015 0.0
0.751712 -0.159956 0.0
0.573298 -0.210948 0.0
0.228737 -0.250237 0.0
0.000000 0.241153 0.0
-0.000000 -0.000000 0.0
0.000000 0.000000 0.0
-0.020735 -0.020003 0.0
-0.048191 -0.014532 0.0
-0.061997 0.012382 0.0
-0.083084 0.066298 0.0
-0.115449 0.092641 0.0
-0.150702 0.073503 0.0
-0.177351 0.011885 0.0
-0.185897 -0.084965 0.0
-0.172674 -0.195373 0.0
-0.139192 -0.290908 0.0
-0.083304 -0.345604 0.0
0.002079 -0.340194 0.0
0.113417 -0.266513 0.0
0.239648 -0.153873 0.0
0.369730 -0.034818 0.0
0.483754 0.067261 0.0
0.573527 0.149432 0.0
0.644412 0.219205 0.0
0.697206 0.277645 0.0
0.731986 0.324567 0.0
0.748843 0.360277 0.0
0.747634 0.385868 0.0
0.727970 0.403355 0.0
0.690134 0.415197 0.0
0.637506 0.422097 0.0
0.579203 0.419464 0.0
0.529221 0.396885 0.0
0.500252 0.344689 0.0
0.497052 0.262564 0.0
0.515897 0.160372 0.0
0.549158 0.051649 0.0
0.588156 -0.049708 0.0
0.626302 -0.135820 0.0
0.660579 -0.206085 0.0
0.689397 -0.261218 0.0
0.711987 -0.302437 0.0
0.728452 -0.331127 0.0
0.739980 -0.348355 0.0
0.749045 -0.354231 0.0
0.759271 -0.347492 0.0
0.774658 -0.325879 0.0
0.798319 -0.287497 0.0
0.831387 -0.232510 0.0
0.872769 -0.164013 0.0
0.919719 -0.087566 0.0
0.967803 -0.010821 0.0
1.011096 0.056649 0.0
1.045838 0.111787 0.0
1.071331 0.155008 0.0
1.087593 0.187386 0.0
1.094973 0.210391 0.0
1.093942 0.225793 0.0
1.085004 0.235643 0.0
1.068752 0.242128 0.0
1.046096 0.247109 0.0
1.018581 0.251265 0.0
0.988598 0.253218 0.0
0.959191 0.249453 0.0
0.933414 0.235587 0.0
0.913546 0.208509 0.0
0.900672 0.167952 0.0
0.894845 0.116498 0.0
0.895530 0.058423 0.0
0.901921 -0.001541 0.0
0.912822 -0.058425 0.0
0.926764 -0.108685 0.0
0.942327 -0.150464 0.0
0.958221 -0.183164 0.0
0.973384 -0.207069 0.0
0.987060 -0.223015 0.0
0.998870 -0.232063 0.0
1.008867 -0.235182 0.0
1.017522 -0.232986 0.0
1.025633 -0.225597 0.0
1.034130 -0.212719 0.0
1.043849 -0.193916 0.0
1.055312 -0.169021 0.0
1.068620 -0.138493 0.0
1.083444 -0.103603 0.0
1.099096 -0.066395 0.0
1.114634 -0.029444 0.0
1.128861 0.004370 0.0
1.140617 0.032484 0.0
1.149225 0.053717 0.0
1.154495 0.067627 0.0
1.156598 0.074281 0.0
1.156023 0.074137 0.0
1.153506 0.064976 0.0
0.998166 -0.004939 0.0
0.990632 -0.014405 0.0
0.974676 -0.023637 0.0
0.948289 -0.032639 0.0
0.907898 -0.040900 0.0
0.847608 -0.046581 0.0
0.758685 -0.044471 0.0
0.630275 -0.019608 0.0
0.468187 0.068712 0.0
0.190808 0.172332 0.0
0.000000 0.000000 0.0
-0.000000 -0.000000 0.0
0.000000 0.000000 0.0
-0.005155 -0.003905 0.0
-0.033348 0.042506 0.0
-0.094829 0.118742 0.0
-0.166750 0.144483 0.0
-0.224282 0.114445 0.0
-0.259432 0.032742 0.0
-0.267686 -0.089022 0.0
-0.253914 -0.218310 0.0
-0.228012 -0.327356 0.0
-0.193658 -0.399397 0.0
-0.145067 -0.420375 0.0
-0.066812 -0.375925 0.0
0.039741 -0.277244 0.0
0.159023 -0.160810 0.0
0.280036 -0.041785 0.0
0.385496 0.063245 0.0
0.468141 0.151861 0.0
0.531566 0.228769 0.0
0.576050 0.294180 0.0
0.601328 0.348530 0.0
0.607241 0.392912 0.0
0.594619 0.428598 0.0
0.566966 0.455444 0.0
0.532219 0.469225 0.0
0.502292 0.460566 0.0
0.488679 0.419379 0.0
0.496842 0.343001 0.0
0.524780 0.239515 0.0
0.566426 0.122930 0.0
0.614630 0.007626 0.0
0.662135 -0.092188 0.0
0.704491 -0.173843 0.0
0.740238 -0.238086 0.0
0.768472 -0.286270 0.0
0.788703 -0.320206 0.0
0.800886 -0.342005 0.0
0.805629 -0.353747 0.0
0.804595 -0.356870 0.0
0.800881 -0.351364 0.0
0.798867 -0.335381 0.0
0.803186 -0.305975 0.0
0.817110 -0.261025 0.0
0.841386 -0.201156 0.0
0.874257 -0.130245 0.0
0.912411 -0.054379 0.0
0.950929 0.018396 0.0
0.985035 0.081191 0.0
1.012368 0.132779 0.0
1.032128 0.173593 0.0
1.044117 0.204814 0.0
1.048427 0.228091 0.0
1.045353 0.245358 0.0
1.035485 0.258533 0.0
1.019928 0.268919 0.0
1.000514 0.276383 0.0
0.979788 0.278809 0.0
0.960581 0.272477 0.0
0.945314 0.253607 0.0
0.935440 0.220231 0.0