# vtk DataFile Version 3.0
Scalar Field
ASCII
DATASET RECTILINEAR_GRID
DIMENSIONS 100 26 1
X_COORDINATES 100 double
0.050000 0.150000 0.250000 0.350000 0.450000 0.550000 0.650000 0.750000 0.850000 0.950000 1.050000 1.150000 1.250000 1.350000 1.450000 1.550000 1.650000 1.750000 1.850000 1.950000 2.050000 2.150000 2.250000 2.350000 2.450000 2.550000 2.650000 2.750000 2.850000 2.950000 3.050000 3.150000 3.250000 3.350000 3.450000 3.550000 3.650000 3.750000 3.850000 3.950000 4.050000 4.150000 4.250000 4.350000 4.450000 4.550000 4.650000 4.750000 4.850000 4.950000 5.050000 5.150000 5.250000 5.350000 5.450000 5.550000 5.650000 5.750000 5.850000 5.950000 6.050000 6.150000 6.250000 6.350000 6.450000 6.550000 6.650000 6.750000 6.850000 6.950000 7.050000 7.150000 7.250000 7.350000 7.450000 7.550000 7.650000 7.750000 7.850000 7.950000 8.050000 8.150000 8.250000 8.350000 8.450000 8.550000 8.650000 8.750000 8.850000 8.950000 9.050000 9.150000 9.250000 9.350000 9.450000 9.550000 9.650000 9.750000 9.850000 9.950000 
Y_COORDINATES 26 double
0.050000 0.150000 0.250000 0.350000 0.450000 0.550000 0.650000 0.750000 0.850000 0.950000 1.050000 1.150000 1.250000 1.350000 1.450000 1.550000 1.650000 1.750000 1.850000 1.950000 2.050000 2.150000 2.250000 2.350000 2.450000 2.550000 
Z_COORDINATES 1 double
0.0
POINT_DATA 2600
SCALARS Skalarfeld double 1
LOOKUP_TABLE default
0.290827
0.275709
0.260989
0.243636
0.222554
0.197310
0.167888
0.134671
0.098491
0.060621
0.022665
-0.013707
-0.047049
-0.076329
-0.101003
-0.120981
-0.136564
-0.148007
-0.155918
-0.160918
-0.163494
-0.163973
-0.162511
-0.159143
-0.153886
-0.146835
-0.138245
-0.128546
-0.118303
-0.108132
-0.098598
-0.090107
-0.082828
-0.076655
-0.071211
-0.065912
-0.060062
-0.052940
-0.043888
-0.032619
-0.017892
-0.002146
0.013071
0.026939
0.039015
0.048995
0.056649
0.061869
0.064543
0.065059
0.063431
0.059278
0.052296
0.042327
0.029596
0.015080
0.000656
-0.011477
-0.019984
-0.025032
-0.027676
-0.028523
-0.027819
-0.025626
-0.022120
-0.017937
-0.013549
-0.009339
-0.005606
-0.002584
-0.000455
0.000577
0.000659
-0.000288
-0.002046
-0.004291
-0.006628
-0.008655
-0.010069
-0.010758
-0.010879
-0.010511
-0.010455
-0.011226
-0.013158
-0.016263
-0.020505
-0.025708
-0.031573
-0.037796
-0.044153
-0.050505
-0.056706
-0.062601
-0.068374
-0.074103
-0.079783
-0.085427
-0.091057
-0.096618
0.281682
0.275370
0.263622
0.247448
0.226725
0.201271
0.171105
0.136623
0.098738
0.058938
0.019156
-0.018648
-0.052879
-0.082498
-0.107034
-0.126488
-0.141168
-0.151805
-0.159066
-0.163615
-0.165963
-0.166463
-0.165223
-0.162186
-0.157258
-0.150442
-0.141935
-0.132154
-0.121683
-0.111172
-0.101227
-0.092291
-0.084564
-0.077959
-0.072111
-0.066445
-0.060268
-0.052783
-0.042955
-0.030060
-0.015831
-0.000949
0.013479
0.026770
0.038488
0.048294
0.055931
0.061321
0.064720
0.065679
0.064028
0.059784
0.052612
0.042297
0.029049
0.013980
-0.000763
-0.012813
-0.020981
-0.025758
-0.028272
-0.029275
-0.028742
-0.026523
-0.022734
-0.018406
-0.013870
-0.009522
-0.005662
-0.002523
-0.000253
0.001104
0.001205
0.000087
-0.001836
-0.004247
-0.006716
-0.008805
-0.010182
-0.010690
-0.010378
-0.009969
-0.009903
-0.010611
-0.012342
-0.015374
-0.019706
-0.025083
-0.031137
-0.037512
-0.043967
-0.050358
-0.056477
-0.062429
-0.068353
-0.074276
-0.080127
-0.085901
-0.091577
-0.097231
0.284188
0.280232
0.270378
0.255235
0.234773
0.208767
0.177101
0.140080
0.098722
0.054925
0.011391
-0.029266
-0.065167
-0.095311
-0.119436
-0.137821
-0.151112
-0.160219
-0.166095
-0.169655
-0.171693
-0.172543
-0.172166
-0.170250
-0.166403
-0.160376
-0.152208
-0.142263
-0.131144
-0.119567
-0.108213
-0.097605
-0.088023
-0.079465
-0.071652
-0.064090
-0.056139
-0.047098
-0.036342
-0.023613
-0.010252
0.003121
0.016024
0.027980
0.038588
0.047484
0.054376
0.059123
0.061771
0.062414
0.060420
0.055599
0.048211
0.038195
0.025879
0.012309
-0.000809
-0.011792
-0.019858
-0.025273
-0.028576
-0.029867
-0.028883
-0.026000
-0.022446
-0.018502
-0.014005
-0.009692
-0.005845
-0.002737
-0.000558
0.000577
0.000595
-0.000360
-0.002179
-0.004414
-0.006607
-0.008371
-0.009448
-0.009767
-0.009482
-0.009036
-0.008894
-0.009538
-0.011245
-0.014250
-0.018542
-0.023914
-0.029993
-0.036403
-0.042871
-0.049189
-0.055433
-0.061760
-0.068119
-0.074504
-0.080781
-0.087068
-0.093481
-0.100246
0.294014
0.290829
0.282024
0.267616
0.247243
0.220320
0.186329
0.145255
0.098155
0.047574
-0.002129
-0.047133
-0.085248
-0.115731
-0.138777
-0.155142
-0.165919
-0.172405
-0.175968
-0.177907
-0.179240
-0.180562
-0.181618
-0.181573
-0.179513
-0.174759
-0.167111
-0.156876
-0.144726
-0.131491
-0.117976
-0.104820
-0.092420
-0.080899
-0.070132
-0.059801
-0.049478
-0.038741
-0.027310
-0.015201
-0.002849
0.009188
0.020604
0.031091
0.040281
0.047771
0.053240
0.056536
0.057673
0.056732
0.053764
0.048525
0.040800
0.031272
0.020314
0.008746
-0.002262
-0.011643
-0.018845
-0.023856
-0.026822
-0.027801
-0.026908
-0.024524
-0.021103
-0.016805
-0.012624
-0.008752
-0.005199
-0.002381
-0.000514
0.000282
-0.000005
-0.001212
-0.003055
-0.005116
-0.007002
-0.008413
-0.009195
-0.009344
-0.009028
-0.008566
-0.008335
-0.008690
-0.010064
-0.012699
-0.016682
-0.021841
-0.027795
-0.034175
-0.040754
-0.047369
-0.054021
-0.060723
-0.067409
-0.074017
-0.080850
-0.088164
-0.096207
-0.108272
0.309700
0.306916
0.298912
0.285254
0.265071
0.237119
0.200050
0.153043
0.096901
0.034981
-0.024385
-0.075305
-0.115669
-0.145624
-0.166269
-0.179082
-0.185739
-0.188052
-0.187938
-0.187289
-0.187656
-0.189736
-0.193147
-0.196152
-0.196860
-0.193897
-0.186771
-0.175845
-0.162019
-0.146390
-0.129983
-0.113610
-0.097806
-0.082838
-0.068747
-0.055409
-0.042625
-0.030207
-0.018050
-0.006182
0.005255
0.016128
0.026355
0.035553
0.043356
0.049290
0.053025
0.054481
0.053737
0.050915
0.046140
0.039590
0.031600
0.022325
0.012459
0.002638
-0.006338
-0.013823
-0.019467
-0.023210
-0.025125
-0.025329
-0.024017
-0.021490
-0.018110
-0.014230
-0.010309
-0.006492
-0.003324
-0.000936
0.000483
0.000815
0.000042
-0.001631
-0.003832
-0.006104
-0.008044
-0.009383
-0.010043
-0.010048
-0.009568
-0.008897
-0.008402
-0.008473
-0.009495
-0.011732
-0.015260
-0.019964
-0.025650
-0.032007
-0.038697
-0.045438
-0.052202
-0.058983
-0.065806
-0.072777
-0.080157
-0.088296
-0.097768
-0.115657
0.330486
0.328110
0.321115
0.308695
0.289365
0.260879
0.220377
0.165188
0.094877
0.013128
-0.060929
-0.118628
-0.159844
-0.187106
-0.203052
-0.210046
-0.210388
-0.206411
-0.200678
-0.195971
-0.194850
-0.198628
-0.206214
-0.214434
-0.219607
-0.219234
-0.212533
-0.200202
-0.183713
-0.164680
-0.144501
-0.124224
-0.104540
-0.085842
-0.068298
-0.051934
-0.036712
-0.022586
-0.009535
0.002436
0.013320
0.023143
0.032157
0.040225
0.046802
0.051260
0.053282
0.052981
0.050579
0.046221
0.039987
0.032012
0.022627
0.012596
0.003274
-0.005494
-0.012866
-0.018549
-0.022416
-0.024503
-0.024947
-0.023943
-0.021736
-0.018624
-0.014933
-0.010988
-0.007116
-0.003582
-0.000705
0.001317
0.002270
0.002012
0.000596
-0.001756
-0.004657
-0.007619
-0.010150
-0.011790
-0.012623
-0.012626
-0.011967
-0.010968
-0.010039
-0.009612
-0.010085
-0.011755
-0.014757
-0.019053
-0.024448
-0.030622
-0.037200
-0.043922
-0.050611
-0.057231
-0.063873
-0.070733
-0.078127
-0.086530
-0.096693
-0.116280
0.355605
0.353815
0.348404
0.338276
0.321315
0.293961
0.250843
0.185238
0.092253
-0.027008
-0.121620
-0.183363
-0.220683
-0.241131
-0.249117
-0.247528
-0.239090
-0.226362
-0.212447
-0.201296
-0.197294
-0.203420
-0.218414
-0.235945
-0.248310
-0.251736
-0.245261
-0.230535
-0.210151
-0.186576
-0.161725
-0.136914
-0.112968
-0.090357
-0.069320
-0.049962
-0.032326
-0.016438
-0.002319
0.010018
0.020577
0.029397
0.036529
0.042750
0.048040
0.051021
0.051319
0.049463
0.045980
0.041051
0.034563
0.026375
0.016599
0.005792
-0.005154
-0.013792
-0.020376
-0.024847
-0.027262
-0.027809
-0.026750
-0.024384
-0.021031
-0.017024
-0.012691
-0.008342
-0.004264
-0.000709
0.002072
0.003842
0.004361
0.003470
0.001192
-0.002206
-0.006235
-0.010292
-0.013805
-0.016384
-0.017644
-0.017686
-0.016762
-0.015285
-0.013736
-0.012601
-0.012314
-0.013206
-0.015465
-0.019114
-0.024007
-0.029850
-0.036259
-0.042884
-0.049351
-0.055637
-0.061820
-0.068141
-0.074960
-0.082787
-0.092331
-0.110396
0.383963
0.383030
0.380046
0.373817
0.361831
0.339250
0.297191
0.220819
0.089857
-0.106663
-0.221535
-0.272969
-0.296027
-0.304233
-0.301374
-0.289141
-0.270520
-0.247481
-0.223122
-0.202273
-0.191976
-0.198932
-0.222558
-0.255097
-0.280033
-0.288944
-0.282530
-0.264490
-0.239280
-0.210503
-0.180618
-0.151147
-0.122977
-0.096592
-0.072248
-0.050076
-0.030151
-0.012529
0.002733
0.015552
0.025799
0.033359
0.038334
0.040993
0.041970
0.043033
0.041452
0.038625
0.035358
0.031523
0.026595
0.020048
0.011651
0.001666
-0.009078
-0.019242
-0.026597
-0.030786
-0.032543
-0.032153
-0.030003
-0.026508
-0.022087
-0.017143
-0.012045
-0.007124
-0.002669
0.001065
0.003828
0.005352
0.005367
0.003684
0.000325
-0.004389
-0.009849
-0.015284
-0.019959
-0.023375
-0.025064
-0.025021
-0.023664
-0.021526
-0.019178
-0.017161
-0.015948
-0.015897
-0.017235
-0.020031
-0.024192
-0.029467
-0.035487
-0.041839
-0.048145
-0.054021
-0.059562
-0.065043
-0.070811
-0.077331
-0.085184
-0.099573
0.413966
0.414169
0.414514
0.414062
0.410587
0.399003
0.367557
0.288950
0.094579
-0.278098
-0.373840
-0.374268
-0.370182
-0.364187
-0.351487
-0.329283
-0.301890
-0.270223
-0.237257
-0.206360
-0.184682
-0.187876
-0.215420
-0.258597
-0.301805
-0.320789
-0.315036
-0.293959
-0.264526
-0.231494
-0.197690
-0.164684
-0.133323
-0.104070
-0.077188
-0.052839
-0.031136
-0.012181
0.003895
0.016829
0.026128
0.031247
0.032272
0.030372
0.027084
0.022994
0.020202
0.018423
0.017351
0.016365
0.014631
0.011345
0.005972
-0.001543
-0.010652
-0.020223
-0.028797
-0.034379
-0.036388
-0.035930
-0.033435
-0.029397
-0.024327
-0.018715
-0.013007
-0.007590
-0.002796
0.001086
0.003769
0.004949
0.004320
0.001680
-0.002928
-0.009092
-0.016041
-0.022805
-0.028479
-0.032465
-0.034249
-0.033871
-0.031871
-0.028893
-0.025595
-0.022574
-0.020332
-0.019248
-0.019568
-0.021394
-0.024670
-0.029188
-0.034603
-0.040482
-0.046383
-0.051955
-0.056849
-0.061338
-0.065790
-0.070581
-0.076141
-0.085911
0.443511
0.445018
0.449276
0.456018
0.464337
0.471327
0.467814
0.423078
0.198627
-0.594981
-0.551872
-0.438555
-0.412758
-0.401339
-0.386088
-0.364101
-0.332095
-0.294937
-0.256740
-0.222108
-0.199443
-0.196891
-0.217811
-0.256723
-0.299902
-0.330130
-0.329711
-0.307510
-0.276475
-0.242163
-0.207383
-0.173518
-0.141291
-0.111140
-0.083381
-0.058277
-0.036069
-0.017033
-0.001586
0.009580
0.015588
0.016006
0.011718
0.005002
-0.001634
-0.006790
-0.008457
-0.007491
-0.005008
-0.002069
0.000275
0.001073
-0.000392
-0.004436
-0.010822
-0.018709
-0.026792
-0.033620
-0.037313
-0.037584
-0.035579
-0.031756
-0.026673
-0.020902
-0.014975
-0.009361
-0.004460
-0.000626
0.001802
0.002475
0.001058
-0.002651
-0.008550
-0.016106
-0.024370
-0.032196
-0.038555
-0.042792
-0.044323
-0.043347
-0.040494
-0.036513
-0.032140
-0.028030
-0.024710
-0.022567
-0.021851
-0.022673
-0.025004
-0.028665
-0.033337
-0.038588
-0.043942
-0.048968
-0.053371
-0.056885
-0.059970
-0.062926
-0.066059
-0.071244
0.470201
0.472942
0.480947
0.494804
0.515513
0.544399
0.582481
0.626882
0.713593
0.059306
-0.488189
-0.424506
-0.416905
-0.414762
-0.405895
-0.386153
-0.358617
-0.326408
-0.294020
-0.265677
-0.246825
-0.239506
-0.246448
-0.266513
-0.292943
-0.312419
-0.315784
-0.298210
-0.268785
-0.236786
-0.204659
-0.173349
-0.143341
-0.115034
-0.088834
-0.065177
-0.044538
-0.027507
-0.014911
-0.007814
-0.007051
-0.012260
-0.021252
-0.030729
-0.037966
-0.040978
-0.039283
-0.034326
-0.027558
-0.020294
-0.013693
-0.008744
-0.006215
-0.006562
-0.009796
-0.015372
-0.022220
-0.028950
-0.034189
-0.036126
-0.035306
-0.032402
-0.027970
-0.022628
-0.016984
-0.011589
-0.006925
-0.003417
-0.001467
-0.001475
-0.003796
-0.008612
-0.015743
-0.024522
-0.033847
-0.042442
-0.049193
-0.053410
-0.054412
-0.052608
-0.048722
-0.043597
-0.038058
-0.032810
-0.028402
-0.025223
-0.023510
-0.023368
-0.024772
-0.027563
-0.031439
-0.035981
-0.040696
-0.045108
-0.048851
-0.051629
-0.053417
-0.054666
-0.055568
-0.056802
0.491773
0.495399
0.506077
0.524935
0.554149
0.597516
0.661676
0.757766
0.889865
0.915733
0.000000
-0.417428
-0.410350
-0.406878
-0.403073
-0.396340
-0.384633
-0.369694
-0.353840
-0.339112
-0.325428
-0.310736
-0.299146
-0.292740
-0.290705
-0.287000
-0.278707
-0.263036
-0.240364
-0.213375
-0.186759
-0.160940
-0.136050
-0.112376
-0.090391
-0.070704
-0.054056
-0.041395
-0.033926
-0.032822
-0.038337
-0.048824
-0.060868
-0.070752
-0.075958
-0.074767
-0.068400
-0.058660
-0.047236
-0.035589
-0.024922
-0.016182
-0.010083
-0.007085
-0.007323
-0.010486
-0.015755
-0.021897
-0.027523
-0.031409
-0.032135
-0.030611
-0.027339
-0.022931
-0.018035
-0.013266
-0.009180
-0.006275
-0.005017
-0.005854
-0.009156
-0.015072
-0.023338
-0.033167
-0.043340
-0.052487
-0.059426
-0.063404
-0.063666
-0.060869
-0.055824
-0.049476
-0.042730
-0.036345
-0.030889
-0.026740
-0.024115
-0.023098
-0.023655
-0.025628
-0.028730
-0.032551
-0.036595
-0.040353
-0.043394
-0.045433
-0.046187
-0.046005
-0.045056
-0.043215
0.506607
0.510594
0.522295
0.542839
0.574227
0.619365
0.681663
0.763076
0.858049
0.941602
0.849338
0.000000
-0.405197
-0.400044
-0.398207
-0.403545
-0.412839
-0.423163
-0.432164
-0.436056
-0.426887
-0.400296
-0.364486
-0.326712
-0.291829
-0.261179
-0.235866
-0.212661
-0.192278
-0.173077
-0.153154
-0.134477
-0.116650
-0.099719
-0.084144
-0.070662
-0.060267
-0.054261
-0.054091
-0.060618
-0.072971
-0.088087
-0.101774
-0.110523
-0.111957
-0.105099
-0.093293
-0.078430
-0.062325
-0.046508
-0.032169
-0.020177
-0.011132
-0.005404
-0.003134
-0.004143
-0.007830
-0.013159
-0.018842
-0.023664
-0.026204
-0.026187
-0.024340
-0.021180
-0.017349
-0.013501
-0.010248
-0.008151
-0.007740
-0.009506
-0.013830
-0.020821
-0.030135
-0.040885
-0.051763
-0.061332
-0.068354
-0.071817
-0.071225
-0.067365
-0.061141
-0.053590
-0.045694
-0.038253
-0.031848
-0.026845
-0.023433
-0.021666
-0.021489
-0.022741
-0.025139
-0.028282
-0.031675
-0.034793
-0.037170
-0.038471
-0.038437
-0.037100
-0.034718
-0.030665
0.514051
0.517867
0.528978
0.548154
0.576667
0.616173
0.667789
0.729330
0.786695
0.803464
0.757074
0.637323
0.000000
-0.399375
-0.398706
-0.416382
-0.444714
-0.481107
-0.517488
-0.539004
-0.526817
-0.483950
-0.423569
-0.356591
-0.291827
-0.235672
-0.190824
-0.156837
-0.133182
-0.116904
-0.104630
-0.093311
-0.083254
-0.074115
-0.066324
-0.060748
-0.058656
-0.061626
-0.070988
-0.086683
-0.106316
-0.125568
-0.139930
-0.146336
-0.141648
-0.129338
-0.112161
-0.092432
-0.072092
-0.052669
-0.035287
-0.020701
-0.009379
-0.001568
0.002652
0.003412
0.001156
-0.003278
-0.008726
-0.013929
-0.017784
-0.019326
-0.018952
-0.017131
-0.014487
-0.011688
-0.009385
-0.008195
-0.008703
-0.011439
-0.016785
-0.024810
-0.035091
-0.046659
-0.058134
-0.068020
-0.075056
-0.077704
-0.076265
-0.071400
-0.064114
-0.055524
-0.046661
-0.038354
-0.031184
-0.025498
-0.021456
-0.019083
-0.018303
-0.018945
-0.020730
-0.023265
-0.026057
-0.028579
-0.030342
-0.030975
-0.030266
-0.028065
-0.024633
-0.019072
0.514432
0.517717
0.527199
0.543273
0.566399
0.596621
0.632590
0.669039
0.692592
0.678157
0.608072
0.517572
0.347352
0.000000
-0.424345
-0.449985
-0.474272
-0.526622
-0.584748
-0.617969
-0.596713
-0.537396
-0.456388
-0.367592
-0.281435
-0.205500
-0.144419
-0.099752
-0.070179
-0.052435
-0.042983
-0.038704
-0.036052
-0.034731
-0.035379
-0.039063
-0.047248
-0.061446
-0.082242
-0.108095
-0.135028
-0.157832
-0.172065
-0.174281
-0.163404
-0.145658
-0.123734
-0.100019
-0.076430
-0.054391
-0.034887
-0.018528
-0.005642
0.003643
0.009326
0.011527
0.010571
0.007103
0.002116
-0.003213
-0.007820
-0.010576
-0.011471
-0.010868
-0.009343
-0.007557
-0.006185
-0.005889
-0.007301
-0.010982
-0.017306
-0.026291
-0.037440
-0.049708
-0.061650
-0.071696
-0.078490
-0.080384
-0.078145
-0.072466
-0.064397
-0.055089
-0.045588
-0.036722
-0.029054
-0.022908
-0.018418
-0.015587
-0.014325
-0.014457
-0.015712
-0.017703
-0.019951
-0.021926
-0.023135
-0.023192
-0.021875
-0.019031
-0.014839
-0.008252
0.508739
0.511252
0.518400
0.530164
0.546273
0.565710
0.585808
0.600648
0.599079
0.563503
0.476200
0.328812
0.177132
-0.253220
-0.499562
-0.439977
-0.473434
-0.543948
-0.618499
-0.644703
-0.610401
-0.539594
-0.448115
-0.349598
-0.254306
-0.169547
-0.100009
-0.047751
-0.012095
0.009597
0.020538
0.023032
0.019815
0.014328
0.005240
-0.008580
-0.028389
-0.055012
-0.087696
-0.123255
-0.156444
-0.181555
-0.194163
-0.189500
-0.174240
-0.152463
-0.127295
-0.101150
-0.075810
-0.052515
-0.032060
-0.014894
-0.001213
0.008961
0.015691
0.019100
0.019415
0.017088
0.012896
0.007880
0.003112
-0.000532
-0.002353
-0.002706
-0.002095
-0.001162
-0.000596
-0.001093
-0.003325
-0.007866
-0.015070
-0.024894
-0.036765
-0.049570
-0.061808
-0.071850
-0.078200
-0.079356
-0.076537
-0.070398
-0.061983
-0.052424
-0.042738
-0.033715
-0.025882
-0.019533
-0.014783
-0.011625
-0.009972
-0.009660
-0.010431
-0.011916
-0.013648
-0.015108
-0.015803
-0.015347
-0.013508
-0.010151
-0.005384
0.001960
0.498395
0.500032
0.504585
0.511748
0.520785
0.530124
0.536694
0.534969
0.515925
0.466192
0.368204
0.198505
-0.092459
-0.683573
-0.559147
-0.448659
-0.473583
-0.541495
-0.602677
-0.606277
-0.566556
-0.495736
-0.407227
-0.312637
-0.220737
-0.137650
-0.067341
-0.011983
0.028153
0.054823
0.070504
0.076430
0.072371
0.062755
0.046349
0.022878
-0.007997
-0.045851
-0.088402
-0.131114
-0.168010
-0.193491
-0.200875
-0.191455
-0.173113
-0.149357
-0.123126
-0.096616
-0.071357
-0.048352
-0.028201
-0.011215
0.002511
0.013016
0.020413
0.024832
0.026428
0.025482
0.022525
0.018372
0.013982
0.010186
0.007815
0.006849
0.006826
0.007134
0.007079
0.005942
0.003027
-0.002241
-0.010173
-0.020658
-0.033047
-0.046167
-0.058489
-0.068439
-0.073688
-0.074577
-0.071604
-0.065506
-0.057303
-0.048059
-0.038713
-0.029979
-0.022332
-0.016032
-0.011185
-0.007796
-0.005800
-0.005059
-0.005343
-0.006310
-0.007513
-0.008451
-0.008641
-0.007700
-0.005391
-0.001598
0.003640
0.011638
0.485027
0.485809
0.487875
0.490768
0.493549
0.494497
0.490683
0.477424
0.447744
0.391908
0.296943
0.145950
-0.082456
-0.368992
-0.421789
-0.422204
-0.452638
-0.498886
-0.526826
-0.520667
-0.484511
-0.424694
-0.350324
-0.270082
-0.190932
-0.117895
-0.054226
-0.001628
0.039620
0.070224
0.090786
0.100967
0.105285
0.095783
0.075387
0.045488
0.007155
-0.037696
-0.085446
-0.130690
-0.167093
-0.188911
-0.189913
-0.179038
-0.160406
-0.137431
-0.112716
-0.088093
-0.064777
-0.043530
-0.024801
-0.008819
0.004346
0.014739
0.022474
0.027685
0.030495
0.031072
0.029735
0.027034
0.023707
0.020460
0.018182
0.017047
0.016719
0.016658
0.016193
0.014597
0.011170
0.005355
-0.003106
-0.014025
-0.026676
-0.039829
-0.051913
-0.061260
-0.065907
-0.066775
-0.064107
-0.058615
-0.051227
-0.042883
-0.034392
-0.026365
-0.019208
-0.013155
-0.008319
-0.004738
-0.002392
-0.001190
-0.000941
-0.001335
-0.001953
-0.002319
-0.001973
-0.000540
0.002218
0.006417
0.012081
0.020723
0.470215
0.470241
0.470137
0.469412
0.467118
0.461650
0.450502
0.429996
0.395089
0.339360
0.255306
0.135733
-0.020744
-0.191575
-0.286465
-0.337558
-0.378791
-0.413105
-0.427895
-0.422354
-0.395392
-0.350532
-0.293577
-0.230618
-0.166937
-0.106583
-0.052319
-0.005707
0.032707
0.063013
0.085284
0.103078
0.109927
0.103245
0.083652
0.052892
0.013279
-0.032056
-0.078647
-0.120783
-0.152548
-0.165597
-0.164978
-0.154984
-0.138880
-0.119415
-0.098620
-0.077868
-0.058037
-0.039684
-0.023165
-0.008707
0.003567
0.013626
0.021518
0.027342
0.031205
0.033231
0.033613
0.032694
0.030991
0.029054
0.027654
0.026859
0.026592
0.026447
0.025807
0.023962
0.020227
0.014082
0.005329
-0.005765
-0.018405
-0.031319
-0.042960
-0.051154
-0.055862
-0.057119
-0.055265
-0.050945
-0.044933
-0.037991
-0.030763
-0.023740
-0.017262
-0.011550
-0.006747
-0.002952
-0.000209
0.001515
0.002365
0.002617
0.002657
0.002932
0.003872
0.005831
0.009044
0.013652
0.019724
0.029024
0.455363
0.454757
0.452870
0.449260
0.443092
0.433018
0.417053
0.392484
0.355895
0.303402
0.231298
0.137556
0.025283
-0.091935
-0.181513
-0.244357
-0.290266
-0.322153
-0.336976
-0.335669
-0.318126
-0.286621
-0.244942
-0.197330
-0.147708
-0.099278
-0.054373
-0.014461
0.019746
0.048102
0.071007
0.087778
0.094835
0.090564
0.074764
0.048448
0.013820
-0.025634
-0.065182
-0.099295
-0.121760
-0.130969
-0.131100
-0.124322
-0.112970
-0.098993
-0.083785
-0.068234
-0.052880
-0.038088
-0.024163
-0.011392
-0.000023
0.009763
0.017878
0.024324
0.029153
0.032467
0.034407
0.035191
0.035315
0.035376
0.035190
0.035165
0.035342
0.035423
0.034867
0.033010
0.029203
0.022971
0.014178
0.003167
-0.009203
-0.021607
-0.032276
-0.040112
-0.045059
-0.047104
-0.046547
-0.043875
-0.039651
-0.034420
-0.028651
-0.022720
-0.016926
-0.011508
-0.006667
-0.002588
0.000615
0.002913
0.004408
0.005345
0.006086
0.007044
0.008618
0.011133
0.014818
0.019847
0.026313
0.036258
0.441639
0.440515
0.437198
0.431358
0.422344
0.409108
0.390170
0.363629
0.327285
0.278946
0.217021
0.141560
0.055893
-0.031867
-0.107990
-0.168267
-0.213872
-0.245633
-0.263054
-0.266539
-0.256827
-0.235717
-0.205891
-0.170395
-0.132171
-0.093740
-0.057049
-0.023443
0.006276
0.031719
0.052847
0.067845
0.075075
0.073295
0.062143
0.042331
0.015769
-0.014404
-0.044026
-0.068472
-0.084569
-0.093218
-0.095516
-0.093004
-0.087246
-0.079501
-0.070570
-0.060831
-0.050416
-0.039435
-0.028131
-0.016893
-0.006163
0.003659
0.012282
0.019566
0.025444
0.030011
0.033469
0.036086
0.037973
0.039317
0.040368
0.041341
0.042236
0.042801
0.042564
0.040922
0.037274
0.031186
0.022572
0.011854
-0.000066
-0.011654
-0.021695
-0.029535
-0.035034
-0.038253
-0.039362
-0.038611
-0.036312
-0.032796
-0.028380
-0.023365
-0.018053
-0.012741
-0.007708
-0.003272
0.000412
0.003281
0.005398
0.006980
0.008374
0.009971
0.012140
0.015186
0.019335
0.024762
0.031584
0.042147
0.430006
0.428428
0.423921
0.416338
0.405245
0.389883
0.369196
0.341898
0.306631
0.262230
0.208178
0.145222
0.076101
0.005917
-0.058403
-0.112789
-0.155861
-0.187158
-0.206466
-0.213795
-0.209975
-0.196521
-0.175470
-0.149117
-0.119720
-0.089278
-0.059403
-0.031289
-0.005749
0.016681
0.035482
0.049298
0.057074
0.057953
0.051638
0.038657
0.020515
-0.000354
-0.020905
-0.038303
-0.051161
-0.059422
-0.063707
-0.065045
-0.064476
-0.062743
-0.060110
-0.056363
-0.051045
-0.043849
-0.034903
-0.024766
-0.014172
-0.003824
0.005689
0.014139
0.021337
0.027353
0.032229
0.036105
0.039192
0.041702
0.043840
0.045742
0.047378
0.048512
0.048721
0.047449
0.044128
0.038330
0.029990
0.019586
0.008036
-0.003144
-0.012868
-0.020856
-0.027149
-0.031784
-0.034681
-0.035780
-0.035157
-0.032990
-0.029503
-0.024974
-0.019804
-0.014373
-0.008922
-0.004109
-0.000011
0.003304
0.005893
0.007975
0.009864
0.011928
0.014533
0.017982
0.022501
0.028224
0.035292
0.046449
0.421305
0.419222
0.413577
0.404522
0.391847
0.375031
0.353329
0.325885
0.291882
0.250752
0.202492
0.148016
0.089481
0.030321
-0.025292
-0.074104
-0.114179
-0.144501
-0.164732
-0.174656
-0.174991
-0.166997
-0.152302
-0.132716
-0.110026
-0.085832
-0.061456
-0.037918
-0.015968
0.003827
0.020831
0.034016
0.042612
0.045996
0.043922
0.036752
0.025578
0.012133
-0.001571
-0.014266
-0.024368
-0.031889
-0.037360
-0.041588
-0.045341
-0.049029
-0.052448
-0.054702
-0.054488
-0.050820
-0.043663
-0.033922
-0.022798
-0.011338
-0.000511
0.009208
0.017751
0.025004
0.031053
0.036046
0.040178
0.043650
0.046643
0.049268
0.051505
0.053150
0.053828
0.052986
0.050050
0.044501
0.035918
0.025052
0.013517
0.002564
-0.006995
-0.015142
-0.022188
-0.028147
-0.032590
-0.035050
-0.035431
-0.033934
-0.030811
-0.026193
-0.020708
-0.015127
-0.009698
-0.004488
0.000031
0.003715
0.006615
0.008932
0.011008
0.013232
0.016000
0.019631
0.024323
0.030179
0.037262
0.048719
0.416479
0.413516
0.406473
0.395982
0.382001
0.364130
0.341808
0.314450
0.281563
0.242912
0.198728
0.149916
0.098205
0.046097
-0.003499
-0.047976
-0.085400
-0.114573
-0.135067
-0.146564
-0.149670
-0.145445
-0.135248
-0.120572
-0.102877
-0.083463
-0.063407
-0.043549
-0.024523
-0.006798
0.009094
0.022150
0.031751
0.037343
0.038636
0.035822
0.029721
0.021673
0.012542
0.003791
-0.003834
-0.010409
-0.016464
-0.022731
-0.029848
-0.038046
-0.046835
-0.054726
-0.059379
-0.058718
-0.052452
-0.042242
-0.029837
-0.017442
-0.005396
0.005675
0.015441
0.023810
0.030863
0.036761
0.041697
0.045867
0.049440
0.052536
0.055197
0.057248
0.058393
0.057962
0.054954
0.048838
0.039717
0.028217
0.015930
0.004608
-0.004824
-0.012703
-0.019868
-0.026528
-0.031931
-0.035068
-0.035558
-0.033724
-0.030503
-0.026246
-0.021025
-0.015191
-0.009453
-0.004077
0.000626
0.004521
0.007578
0.009910
0.011888
0.013963
0.016595
0.020173
0.024904
0.030788
0.037625
0.048092
0.417186
0.411782
0.402598
0.390541
0.375422
0.356749
0.334006
0.306756
0.274686
0.237734
0.196225
0.151011
0.103542
0.055807
0.010084
-0.031432
-0.066869
-0.095072
-0.115538
-0.127939
-0.132782
-0.130993
-0.123759
-0.112370
-0.098071
-0.081966
-0.064961
-0.047768
-0.030951
-0.014927
0.000284
0.013579
0.024304
0.031809
0.035630
0.035773
0.032960
0.028222
0.022127
0.015934
0.009950
0.004023
-0.002352
-0.009829
-0.018938
-0.029830
-0.042001
-0.053893
-0.062552
-0.064359
-0.057564
-0.046945
-0.034384
-0.020753
-0.007552
0.004502
0.015101
0.024193
0.031876
0.038322
0.043719
0.048244
0.052047
0.055270
0.058133
0.060421
0.061497
0.060813
0.057810
0.051638
0.041946
0.029347
0.015741
0.003566
-0.005772
-0.012767
-0.018875
-0.024850
-0.030125
-0.033549
-0.034457
-0.033086
-0.029829
-0.025390
-0.020186
-0.014540
-0.008884
-0.003474
0.001309
0.005182
0.008165
0.010480
0.012377
0.014269
0.016674
0.020075
0.024739
0.030631
0.037259
0.045603
0.427909
0.413668
0.401381
0.387956
0.371999
0.352783
0.329794
0.302622
0.271023
0.234999
0.194894
0.151506
0.106135
0.060532
0.016699
-0.023425
-0.058278
-0.086479
-0.106943
-0.119713
-0.125278
-0.124502
-0.118486
-0.108429
-0.095489
-0.080694
-0.064894
-0.048769
-0.032878
-0.017733
-0.003919
0.009249
0.020688
0.029311
0.034418
0.035809
0.033800
0.029336
0.024215
0.018870
0.013491
0.007909
0.001650
-0.005877
-0.015131
-0.026172
-0.038427
-0.050411
-0.059536
-0.062776
-0.059119
-0.048182
-0.034664
-0.020632
-0.007190
0.005058
0.015835
0.025097
0.032938
0.039518
0.045009
0.049568
0.053316
0.056347
0.058643
0.060347
0.061111
0.060262
0.057149
0.051113
0.041838
0.029807
0.016576
0.004304
-0.005508
-0.012905
-0.018934
-0.024335
-0.028911
-0.031933
-0.032881
-0.031793
-0.028897
-0.024670
-0.019643
-0.014212
-0.008762
-0.003658
0.000943
0.004826
0.007927
0.010393
0.012479
0.014564
0.017111
0.020555
0.025137
0.030788
0.037440
0.045595
