# vtk DataFile Version 3.0
Scalar Field
ASCII
DATASET RECTILINEAR_GRID
DIMENSIONS 100 26 1
X_COORDINATES 100 double
0.050000 0.150000 0.250000 0.350000 0.450000 0.550000 0.650000 0.750000 0.850000 0.950000 1.050000 1.150000 1.250000 1.350000 1.450000 1.550000 1.650000 1.750000 1.850000 1.950000 2.050000 2.150000 2.250000 2.350000 2.450000 2.550000 2.650000 2.750000 2.850000 2.950000 3.050000 3.150000 3.250000 3.350000 3.450000 3.550000 3.650000 3.750000 3.850000 3.950000 4.050000 4.150000 4.250000 4.350000 4.450000 4.550000 4.650000 4.750000 4.850000 4.950000 5.050000 5.150000 5.250000 5.350000 5.450000 5.550000 5.650000 5.750000 5.850000 5.950000 6.050000 6.150000 6.250000 6.350000 6.450000 6.550000 6.650000 6.750000 6.850000 6.950000 7.050000 7.150000 7.250000 7.350000 7.450000 7.550000 7.650000 7.750000 7.850000 7.950000 8.050000 8.150000 8.250000 8.350000 8.450000 8.550000 8.650000 8.750000 8.850000 8.950000 9.050000 9.150000 9.250000 9.350000 9.450000 9.550000 9.650000 9.750000 9.850000 9.950000 
Y_COORDINATES 26 double
0.050000 0.150000 0.250000 0.350000 0.450000 0.550000 0.650000 0.750000 0.850000 0.950000 1.050000 1.150000 1.250000 1.350000 1.450000 1.550000 1.650000 1.750000 1.850000 1.950000 2.050000 2.150000 2.250000 2.350000 2.450000 2.550000 
Z_COORDINATES 1 double
0.0
POINT_DATA 2600
SCALARS Skalarfeld double 1
LOOKUP_TABLE default
0.285015
0.269729
0.254469
0.236197
0.213772
0.186682
0.154824
0.118497
0.078473
0.036037
-0.007097
-0.049041
-0.088043
-0.122713
-0.152170
-0.175236
-0.191646
-0.201504
-0.205191
-0.203330
-0.196723
-0.186275
-0.172908
-0.157481
-0.140729
-0.123230
-0.105411
-0.087577
-0.069975
-0.052852
-0.036524
-0.021391
-0.007492
0.004695
0.014383
0.021031
0.025203
0.027223
0.027321
0.025656
0.022243
0.016982
0.009783
0.000711
-0.009854
-0.021046
-0.031307
-0.038447
-0.040548
-0.037548
-0.029999
-0.020991
-0.011514
-0.002275
0.006252
0.013785
0.020201
0.025493
0.029738
0.033082
0.035678
0.037756
0.039300
0.040082
0.039968
0.038837
0.036698
0.033781
0.030509
0.027283
0.024214
0.021054
0.017413
0.013095
0.008314
0.003615
-0.000378
-0.003238
-0.004852
-0.005351
-0.004935
-0.003802
-0.002177
-0.000273
0.001677
0.003481
0.005026
0.006288
0.007279
0.008002
0.008450
0.008615
0.008505
0.008178
0.007738
0.007321
0.007069
0.007116
0.007573
0.008587
0.276221
0.269747
0.257488
0.240408
0.218331
0.191006
0.158357
0.120686
0.078844
0.034318
-0.010856
-0.054510
-0.094745
-0.130104
-0.159462
-0.182604
-0.199016
-0.208683
-0.211985
-0.209553
-0.202211
-0.190900
-0.176586
-0.160173
-0.142441
-0.124008
-0.105333
-0.086746
-0.068506
-0.050867
-0.034153
-0.018566
-0.004634
0.006941
0.015910
0.022396
0.025990
0.027351
0.026847
0.024707
0.020957
0.015477
0.008138
-0.001047
-0.011763
-0.023160
-0.033551
-0.040416
-0.041468
-0.036661
-0.029694
-0.021250
-0.011888
-0.002697
0.005791
0.013284
0.019666
0.024939
0.029195
0.032606
0.035446
0.037789
0.039437
0.040261
0.040253
0.039219
0.037120
0.034214
0.030989
0.027884
0.024966
0.021887
0.018137
0.013488
0.008232
0.003078
-0.001200
-0.004126
-0.005650
-0.006026
-0.005485
-0.004198
-0.002434
-0.000370
0.001726
0.003637
0.005245
0.006553
0.007573
0.008293
0.008716
0.008832
0.008652
0.008246
0.007733
0.007264
0.006993
0.007058
0.007534
0.008358
0.279419
0.275308
0.264949
0.248906
0.227087
0.199177
0.164956
0.124619
0.079098
0.030261
-0.019086
-0.066136
-0.108757
-0.145595
-0.175876
-0.199283
-0.215724
-0.224970
-0.227410
-0.223671
-0.214601
-0.201199
-0.184520
-0.165578
-0.145275
-0.124355
-0.103400
-0.082854
-0.063065
-0.044345
-0.027008
-0.011522
0.001458
0.011529
0.018521
0.022606
0.024144
0.023200
0.020882
0.017569
0.013316
0.007975
0.001348
-0.006620
-0.015642
-0.024865
-0.032750
-0.037418
-0.037672
-0.033805
-0.027056
-0.018638
-0.010112
-0.001694
0.006179
0.013164
0.019121
0.024037
0.027989
0.031131
0.033658
0.035709
0.037363
0.038565
0.039025
0.038611
0.037258
0.035105
0.032457
0.029571
0.026423
0.022819
0.018445
0.013263
0.007666
0.002384
-0.001861
-0.004694
-0.006157
-0.006483
-0.005953
-0.004768
-0.003069
-0.000908
0.001338
0.003448
0.005327
0.006841
0.007927
0.008550
0.008808
0.008732
0.008390
0.007902
0.007424
0.007127
0.007174
0.007706
0.008808
0.011699
0.290266
0.286930
0.277622
0.262312
0.240562
0.211682
0.175024
0.130436
0.078858
0.022742
-0.033392
-0.085535
-0.131362
-0.169938
-0.201030
-0.224623
-0.240804
-0.249262
-0.250323
-0.244570
-0.232875
-0.216330
-0.196132
-0.173460
-0.149396
-0.124867
-0.100634
-0.077294
-0.055313
-0.035069
-0.016923
-0.001506
0.010500
0.018634
0.022774
0.023277
0.020950
0.016726
0.011482
0.006338
0.001369
-0.003614
-0.008895
-0.014637
-0.020687
-0.026435
-0.030850
-0.032821
-0.031721
-0.027712
-0.021536
-0.014099
-0.006159
0.001523
0.008476
0.014617
0.019794
0.023984
0.027236
0.029694
0.031565
0.033056
0.034334
0.035447
0.036281
0.036653
0.036344
0.035176
0.033123
0.030349
0.026824
0.022770
0.018035
0.012786
0.007395
0.002429
-0.001603
-0.004450
-0.006124
-0.006732
-0.006378
-0.005165
-0.003243
-0.001095
0.001142
0.003320
0.005317
0.006877
0.007902
0.008410
0.008424
0.008084
0.007555
0.007030
0.006708
0.006781
0.007423
0.008795
0.011076
0.016147
0.307303
0.304371
0.295866
0.281299
0.259706
0.229708
0.189789
0.138944
0.077820
0.009534
-0.057125
-0.116065
-0.165321
-0.205211
-0.236599
-0.259975
-0.275400
-0.282613
-0.281668
-0.273024
-0.257611
-0.236698
-0.211710
-0.184067
-0.155085
-0.125911
-0.097503
-0.070623
-0.045843
-0.023572
-0.004122
0.011658
0.022795
0.028591
0.028918
0.024455
0.016669
0.007553
-0.001260
-0.008535
-0.014130
-0.018378
-0.021774
-0.024705
-0.027267
-0.029197
-0.029963
-0.029005
-0.026039
-0.021207
-0.014988
-0.007998
-0.000836
0.005974
0.012137
0.017387
0.021667
0.024954
0.027253
0.028749
0.029713
0.030421
0.031132
0.031985
0.032931
0.033734
0.034055
0.033568
0.032087
0.029522
0.026063
0.021678
0.016565
0.011308
0.006166
0.001595
-0.002057
-0.004624
-0.006099
-0.006559
-0.006112
-0.004899
-0.003093
-0.000917
0.001464
0.003797
0.005749
0.007210
0.008069
0.008309
0.007973
0.007261
0.006441
0.005782
0.005530
0.005899
0.007074
0.009219
0.012514
0.018481
0.329770
0.327251
0.319762
0.306427
0.285643
0.254977
0.211328
0.151747
0.075587
-0.014039
-0.096455
-0.162852
-0.213965
-0.253331
-0.283863
-0.306612
-0.320918
-0.326666
-0.323161
-0.310625
-0.290150
-0.263347
-0.232012
-0.197905
-0.162638
-0.127616
-0.094016
-0.062776
-0.034581
-0.009845
0.011309
0.027982
0.038523
0.041741
0.037451
0.026723
0.011788
-0.004268
-0.018049
-0.027668
-0.033535
-0.036418
-0.037281
-0.036909
-0.035732
-0.033828
-0.031032
-0.027133
-0.022054
-0.015943
-0.009149
-0.002112
0.004728
0.011000
0.016444
0.020859
0.024148
0.026267
0.027363
0.027618
0.027440
0.027140
0.027057
0.027408
0.028231
0.029281
0.030133
0.030321
0.029471
0.027358
0.023971
0.019394
0.014151
0.008780
0.003596
-0.000752
-0.004031
-0.006147
-0.007135
-0.007112
-0.006234
-0.004676
-0.002618
-0.000254
0.002223
0.004581
0.006564
0.007956
0.008593
0.008436
0.007603
0.006358
0.005041
0.003996
0.003533
0.003907
0.005320
0.007927
0.011855
0.018644
0.356893
0.354970
0.349085
0.338057
0.319604
0.289898
0.243176
0.172230
0.071744
-0.058242
-0.161891
-0.231649
-0.278603
-0.313031
-0.340874
-0.363409
-0.377531
-0.382494
-0.376280
-0.358869
-0.331820
-0.297384
-0.257932
-0.215682
-0.172601
-0.130393
-0.090491
-0.054055
-0.021941
0.005336
0.027721
0.045615
0.056178
0.057214
0.048591
0.031861
0.009804
-0.013907
-0.035111
-0.049263
-0.055420
-0.056636
-0.054626
-0.050754
-0.045855
-0.040309
-0.034207
-0.027534
-0.020326
-0.012739
-0.005045
0.002423
0.009331
0.015403
0.020428
0.024236
0.026676
0.027642
0.027159
0.025529
0.023268
0.021266
0.020176
0.019855
0.020533
0.021918
0.023463
0.024562
0.024687
0.023465
0.020734
0.016558
0.011326
0.005432
0.000122
-0.004251
-0.007366
-0.009132
-0.009620
-0.009003
-0.007506
-0.005365
-0.002810
-0.000059
0.002679
0.005173
0.007169
0.008423
0.008759
0.008139
0.006707
0.004769
0.002735
0.001037
0.000078
0.000188
0.001607
0.004482
0.008890
0.016461
0.387563
0.386514
0.383105
0.376034
0.362570
0.337479
0.291219
0.207963
0.066022
-0.146466
-0.268353
-0.323180
-0.352253
-0.374243
-0.397240
-0.422199
-0.441345
-0.448161
-0.440090
-0.417261
-0.382423
-0.338923
-0.289922
-0.238178
-0.186054
-0.135585
-0.088524
-0.046335
-0.010158
0.019198
0.041262
0.057693
0.069083
0.068796
0.057370
0.037241
0.011571
-0.016235
-0.042417
-0.063267
-0.073606
-0.074363
-0.070449
-0.063950
-0.056148
-0.047713
-0.038939
-0.029956
-0.020878
-0.011880
-0.003202
0.004874
0.012075
0.018166
0.022940
0.026175
0.027617
0.027062
0.024561
0.020598
0.016049
0.011917
0.009108
0.008279
0.009190
0.011294
0.013878
0.016213
0.017662
0.017740
0.016163
0.012894
0.008181
0.002528
-0.003246
-0.008034
-0.011252
-0.012947
-0.013171
-0.012119
-0.010078
-0.007358
-0.004263
-0.001065
0.001984
0.004631
0.006617
0.007694
0.007684
0.006547
0.004438
0.001698
-0.001188
-0.003679
-0.005256
-0.005499
-0.004128
-0.001005
0.003884
0.012165
0.420150
0.420267
0.420277
0.419119
0.414306
0.400223
0.364078
0.276550
0.064140
-0.335542
-0.427121
-0.419874
-0.413760
-0.416502
-0.432333
-0.463016
-0.498016
-0.513663
-0.506517
-0.479217
-0.437032
-0.384820
-0.326590
-0.265616
-0.204652
-0.146113
-0.092193
-0.044837
-0.005585
0.024503
0.044746
0.055342
0.061038
0.058776
0.047743
0.030195
0.008021
-0.016693
-0.041315
-0.062725
-0.077942
-0.083111
-0.079674
-0.072686
-0.063834
-0.054052
-0.043833
-0.033455
-0.023141
-0.013126
-0.003683
0.004902
0.012350
0.018402
0.022776
0.025123
0.025053
0.022335
0.017199
0.010511
0.003617
-0.002120
-0.005820
-0.006538
-0.004853
-0.001587
0.002380
0.006218
0.009219
0.010836
0.010710
0.008711
0.004984
-0.000035
-0.005622
-0.010905
-0.014720
-0.016630
-0.016942
-0.015795
-0.013498
-0.010428
-0.006962
-0.003444
-0.000184
0.002534
0.004434
0.005267
0.004852
0.003152
0.000330
-0.003233
-0.006971
-0.010233
-0.012392
-0.012943
-0.011570
-0.008149
-0.002729
0.006290
0.452488
0.453952
0.458013
0.464294
0.471629
0.476553
0.468625
0.414119
0.164554
-0.684447
-0.608251
-0.474066
-0.439369
-0.427867
-0.436614
-0.470163
-0.519052
-0.557108
-0.555633
-0.527944
-0.482651
-0.425941
-0.362439
-0.295839
-0.229290
-0.165718
-0.108047
-0.059218
-0.021621
0.004023
0.018900
0.025144
0.024835
0.021210
0.014947
0.005451
-0.007209
-0.022547
-0.039396
-0.055790
-0.069300
-0.077781
-0.079077
-0.073929
-0.066219
-0.057018
-0.046964
-0.036479
-0.025915
-0.015620
-0.005957
0.002715
0.010046
0.015680
0.019205
0.020124
0.017970
0.012624
0.004672
-0.004514
-0.013155
-0.019713
-0.023207
-0.023042
-0.020043
-0.015225
-0.009607
-0.004099
0.000551
0.003774
0.005185
0.004600
0.002082
-0.002028
-0.007104
-0.012319
-0.016788
-0.019295
-0.020043
-0.019177
-0.017002
-0.013928
-0.010393
-0.006807
-0.003539
-0.000912
0.000775
0.001266
0.000379
-0.001922
-0.005455
-0.009797
-0.014311
-0.018252
-0.020903
-0.021691
-0.020265
-0.016509
-0.010499
-0.000638
0.482087
0.484837
0.492825
0.506563
0.526880
0.554714
0.590203
0.628483
0.703279
0.009416
-0.530821
-0.453390
-0.442684
-0.435751
-0.441939
-0.469417
-0.512493
-0.554532
-0.569172
-0.545535
-0.503368
-0.449024
-0.387231
-0.321921
-0.256641
-0.194974
-0.140744
-0.097594
-0.067559
-0.049761
-0.041056
-0.037783
-0.037566
-0.035272
-0.032444
-0.030638
-0.030908
-0.033910
-0.039716
-0.047586
-0.055993
-0.063055
-0.067198
-0.066814
-0.061890
-0.054922
-0.046567
-0.037321
-0.027645
-0.018013
-0.008910
-0.000816
0.005800
0.010447
0.012561
0.011530
0.006906
-0.001176
-0.011672
-0.022740
-0.032344
-0.038958
-0.041401
-0.039743
-0.034976
-0.028283
-0.020810
-0.013536
-0.007230
-0.002454
0.000422
0.001206
-0.000085
-0.003191
-0.007585
-0.012513
-0.017116
-0.020555
-0.021863
-0.021556
-0.019838
-0.017105
-0.013825
-0.010459
-0.007422
-0.005080
-0.003754
-0.003714
-0.005144
-0.008072
-0.012299
-0.017363
-0.022573
-0.027116
-0.030203
-0.031203
-0.029725
-0.025655
-0.019015
-0.008235
0.506569
0.510260
0.521106
0.540219
0.569734
0.613373
0.677617
0.773556
0.908751
0.939196
0.000000
-0.449717
-0.446043
-0.444038
-0.450570
-0.470275
-0.498431
-0.525950
-0.539121
-0.524847
-0.488934
-0.441886
-0.388074
-0.331392
-0.275466
-0.224221
-0.181903
-0.151911
-0.134349
-0.125560
-0.120709
-0.115822
-0.107657
-0.095447
-0.081455
-0.067637
-0.055561
-0.046431
-0.041028
-0.039515
-0.041262
-0.044918
-0.048803
-0.051388
-0.050932
-0.047127
-0.041549
-0.034622
-0.026849
-0.018800
-0.011081
-0.004296
0.000951
0.004018
0.004200
0.000818
-0.006459
-0.017158
-0.029782
-0.042141
-0.052084
-0.058146
-0.059023
-0.055420
-0.048542
-0.039743
-0.030289
-0.021221
-0.013321
-0.007118
-0.002943
-0.000956
-0.001149
-0.003312
-0.006999
-0.011540
-0.016131
-0.019999
-0.022101
-0.022530
-0.021489
-0.019352
-0.016588
-0.013684
-0.011090
-0.009205
-0.008374
-0.008881
-0.010913
-0.014490
-0.019397
-0.025146
-0.031009
-0.036126
-0.039655
-0.040907
-0.039448
-0.035149
-0.027963
-0.016283
0.524198
0.528292
0.540317
0.561419
0.593663
0.640165
0.704702
0.788593
0.883986
0.969641
0.886080
0.000000
-0.449098
-0.452153
-0.452997
-0.462479
-0.475156
-0.484556
-0.482807
-0.466206
-0.435070
-0.396768
-0.354318
-0.311961
-0.273019
-0.241198
-0.220112
-0.210449
-0.208265
-0.207547
-0.203564
-0.191326
-0.171403
-0.147604
-0.122115
-0.097077
-0.074255
-0.054997
-0.040259
-0.030571
-0.025883
-0.025423
-0.027751
-0.031097
-0.033799
-0.033908
-0.031610
-0.027633
-0.022447
-0.016670
-0.010992
-0.006125
-0.002804
-0.001815
-0.003988
-0.010012
-0.020029
-0.033196
-0.047631
-0.060909
-0.070821
-0.075926
-0.074821
-0.068983
-0.059819
-0.048843
-0.037422
-0.026648
-0.017294
-0.009854
-0.004598
-0.001634
-0.000932
-0.002303
-0.005360
-0.009504
-0.013984
-0.018023
-0.020920
-0.022040
-0.021746
-0.020326
-0.018226
-0.015935
-0.013921
-0.012607
-0.012361
-0.013478
-0.016147
-0.020386
-0.025966
-0.032384
-0.038893
-0.044607
-0.048638
-0.050249
-0.048958
-0.044607
-0.037077
-0.024709
0.534221
0.538171
0.549699
0.569598
0.599104
0.639652
0.692340
0.756602
0.820892
0.841468
0.802519
0.684602
0.000000
-0.452671
-0.453188
-0.451089
-0.450337
-0.439992
-0.416600
-0.385672
-0.353348
-0.320529
-0.289599
-0.263970
-0.247483
-0.242698
-0.249868
-0.264317
-0.277583
-0.282436
-0.274919
-0.250875
-0.220055
-0.185393
-0.149633
-0.115154
-0.083806
-0.056904
-0.035312
-0.019526
-0.009668
-0.005356
-0.005554
-0.008631
-0.012707
-0.016110
-0.017109
-0.016225
-0.013885
-0.010710
-0.007436
-0.004860
-0.003835
-0.005286
-0.010134
-0.019018
-0.031833
-0.047375
-0.063443
-0.077448
-0.087162
-0.090764
-0.087478
-0.079365
-0.067997
-0.055015
-0.041858
-0.029632
-0.019090
-0.010673
-0.004590
-0.000891
0.000488
-0.000267
-0.002809
-0.006598
-0.010940
-0.015088
-0.018390
-0.020209
-0.020638
-0.019941
-0.018535
-0.016900
-0.015514
-0.014815
-0.015183
-0.016928
-0.020240
-0.025132
-0.031372
-0.038451
-0.045619
-0.051975
-0.056609
-0.058740
-0.057844
-0.053717
-0.046207
-0.033608
0.536896
0.540284
0.550106
0.566770
0.590816
0.622520
0.660796
0.700658
0.729154
0.719491
0.654651
0.566685
0.395654
0.000000
-0.447081
-0.440974
-0.438786
-0.406899
-0.356341
-0.303266
-0.258749
-0.228920
-0.209250
-0.201650
-0.208904
-0.233744
-0.270155
-0.307228
-0.333425
-0.341130
-0.322072
-0.289690
-0.249911
-0.206719
-0.163283
-0.122081
-0.084904
-0.052923
-0.026813
-0.006900
0.006742
0.014319
0.016488
0.014498
0.010080
0.004992
0.001111
-0.000754
-0.001103
-0.000493
0.000322
0.000483
-0.000976
-0.005094
-0.012832
-0.024706
-0.040323
-0.058132
-0.075670
-0.090214
-0.099562
-0.100869
-0.095691
-0.085620
-0.072459
-0.057945
-0.043537
-0.030317
-0.018991
-0.009940
-0.003314
0.000887
0.002756
0.002477
0.000361
-0.003107
-0.007288
-0.011474
-0.015038
-0.017351
-0.018371
-0.018300
-0.017521
-0.016500
-0.015710
-0.015599
-0.016558
-0.018903
-0.022826
-0.028339
-0.035208
-0.042932
-0.050769
-0.057822
-0.063174
-0.066031
-0.065844
-0.062264
-0.055356
-0.043275
0.533269
0.535891
0.543406
0.555824
0.572949
0.593906
0.616185
0.634020
0.636264
0.604929
0.522082
0.377506
0.224622
-0.210233
-0.514997
-0.468609
-0.444163
-0.384776
-0.308495
-0.236101
-0.179404
-0.146634
-0.131917
-0.140436
-0.171888
-0.222243
-0.281101
-0.334013
-0.367844
-0.369270
-0.343490
-0.305138
-0.259803
-0.211800
-0.164405
-0.119992
-0.080149
-0.045816
-0.017443
0.004844
0.021087
0.031429
0.036215
0.036219
0.032771
0.027555
0.022147
0.018007
0.015433
0.013804
0.012346
0.010149
0.006165
-0.000715
-0.011410
-0.026238
-0.044488
-0.064305
-0.083009
-0.097743
-0.106062
-0.105436
-0.098639
-0.087213
-0.072994
-0.057710
-0.042772
-0.029192
-0.017602
-0.008322
-0.001449
0.003048
0.005275
0.005400
0.003693
0.000577
-0.003369
-0.007476
-0.011127
-0.013769
-0.015212
-0.015619
-0.015344
-0.014834
-0.014557
-0.014962
-0.016447
-0.019329
-0.023803
-0.029878
-0.037328
-0.045664
-0.054167
-0.061964
-0.068158
-0.071968
-0.072868
-0.070221
-0.064743
-0.054248
0.524742
0.526484
0.531397
0.539199
0.549208
0.559933
0.568384
0.569098
0.553029
0.506694
0.412329
0.245162
-0.047062
-0.645088
-0.561384
-0.459090
-0.405074
-0.342410
-0.266817
-0.194485
-0.135665
-0.096077
-0.084312
-0.103607
-0.149976
-0.214407
-0.283334
-0.341006
-0.371803
-0.364619
-0.337178
-0.297354
-0.251106
-0.202829
-0.155666
-0.111753
-0.072426
-0.038399
-0.009933
0.013009
0.030609
0.043055
0.050520
0.053339
0.052266
0.048521
0.043435
0.038345
0.034437
0.031137
0.027753
0.023394
0.016987
0.007442
-0.006028
-0.023481
-0.043903
-0.065198
-0.084574
-0.099262
-0.105351
-0.103623
-0.096045
-0.084234
-0.069978
-0.054905
-0.040308
-0.027093
-0.015803
-0.006700
0.000150
0.004787
0.007305
0.007839
0.006603
0.003952
0.000393
-0.003460
-0.007011
-0.009782
-0.011459
-0.012177
-0.012261
-0.012141
-0.012274
-0.013105
-0.015034
-0.018375
-0.023320
-0.029882
-0.037845
-0.046745
-0.055899
-0.064477
-0.071629
-0.076626
-0.078863
-0.078035
-0.074814
-0.067275
0.512942
0.513820
0.516219
0.519698
0.523349
0.525498
0.523256
0.511965
0.484639
0.431506
0.339532
0.191333
-0.035475
-0.325014
-0.386701
-0.369624
-0.334934
-0.285226
-0.228604
-0.172158
-0.122466
-0.083026
-0.074991
-0.099098
-0.148766
-0.212817
-0.277333
-0.327158
-0.342722
-0.334066
-0.307984
-0.270992
-0.228367
-0.184050
-0.140817
-0.100512
-0.064249
-0.032605
-0.005762
0.016364
0.034016
0.047481
0.056977
0.062659
0.064818
0.064083
0.061245
0.057435
0.053501
0.049325
0.044540
0.038403
0.029918
0.018116
0.002424
-0.016936
-0.038704
-0.060628
-0.079827
-0.093373
-0.097819
-0.095867
-0.088608
-0.077596
-0.064462
-0.050646
-0.037270
-0.025104
-0.014611
-0.006012
0.000626
0.005323
0.008131
0.009137
0.008492
0.006474
0.003511
0.000143
-0.003082
-0.005733
-0.007439
-0.008301
-0.008610
-0.008767
-0.009217
-0.010394
-0.012688
-0.016408
-0.021742
-0.028704
-0.037101
-0.046505
-0.056284
-0.065673
-0.073890
-0.080283
-0.084166
-0.086030
-0.085996
-0.083077
0.499468
0.499578
0.499773
0.499569
0.498039
0.493604
0.483782
0.464913
0.431967
0.378540
0.297193
0.180792
0.028092
-0.138370
-0.225377
-0.252970
-0.248174
-0.223702
-0.188990
-0.150955
-0.116810
-0.094434
-0.093438
-0.115563
-0.156578
-0.207578
-0.256267
-0.286755
-0.295800
-0.287384
-0.265391
-0.234404
-0.198506
-0.160899
-0.123902
-0.089073
-0.057373
-0.029314
-0.005086
0.015344
0.032158
0.045621
0.056001
0.063532
0.068431
0.070913
0.071769
0.071519
0.068995
0.065040
0.059747
0.052600
0.042790
0.029571
0.012642
-0.007520
-0.029502
-0.051036
-0.069357
-0.080296
-0.084830
-0.083704
-0.077966
-0.068960
-0.058047
-0.046408
-0.034959
-0.024338
-0.014948
-0.007013
-0.000637
0.004135
0.007296
0.008868
0.008940
0.007718
0.005553
0.002902
0.000244
-0.001999
-0.003526
-0.004380
-0.004801
-0.005154
-0.005857
-0.007323
-0.009924
-0.013953
-0.019590
-0.026861
-0.035603
-0.045441
-0.055812
-0.066029
-0.075411
-0.083249
-0.089556
-0.094586
-0.098498
-0.101969
0.485744
0.485212
0.483591
0.480445
0.474954
0.465788
0.450986
0.427862
0.393037
0.342693
0.273266
0.183002
0.075541
-0.034445
-0.112254
-0.154613
-0.169874
-0.166425
-0.151719
-0.132266
-0.114410
-0.104404
-0.107642
-0.125526
-0.155187
-0.190008
-0.220724
-0.239430
-0.245063
-0.238183
-0.221121
-0.196899
-0.168449
-0.138217
-0.108054
-0.079245
-0.052600
-0.028565
-0.007331
0.011088
0.026791
0.039955
0.050796
0.059524
0.066298
0.071770
0.076077
0.078089
0.077770
0.075317
0.070741
0.063719
0.053721
0.040308
0.023465
0.003865
-0.017035
-0.037093
-0.052962
-0.063246
-0.068676
-0.069476
-0.066387
-0.060399
-0.052528
-0.043663
-0.034513
-0.025614
-0.017353
-0.010007
-0.003774
0.001203
0.004826
0.007064
0.007937
0.007607
0.006358
0.004576
0.002700
0.001080
-0.000111
-0.000843
-0.001302
-0.001806
-0.002736
-0.004468
-0.007340
-0.011617
-0.017470
-0.024947
-0.033931
-0.044122
-0.055041
-0.066090
-0.076624
-0.086334
-0.095274
-0.103697
-0.111960
-0.123285
0.472960
0.471904
0.468827
0.463409
0.455011
0.442606
0.424743
0.399560
0.364918
0.318722
0.259554
0.187765
0.107200
0.026874
-0.038344
-0.082954
-0.108403
-0.118767
-0.118902
-0.113725
-0.108053
-0.106309
-0.111804
-0.125486
-0.145538
-0.167727
-0.186618
-0.198415
-0.201467
-0.195801
-0.182722
-0.164167
-0.142173
-0.118545
-0.094703
-0.071642
-0.049975
-0.030010
-0.011852
0.004506
0.019117
0.032047
0.043372
0.053187
0.061791
0.069311
0.075198
0.079097
0.080817
0.080243
0.077177
0.071302
0.062289
0.049977
0.034591
0.016899
-0.001749
-0.019042
-0.033435
-0.044559
-0.052042
-0.055826
-0.056235
-0.053866
-0.049390
-0.043422
-0.036501
-0.029115
-0.021697
-0.014639
-0.008270
-0.002881
0.001317
0.004305
0.006000
0.006585
0.006305
0.005468
0.004398
0.003346
0.002522
0.001946
0.001461
0.000793
-0.000387
-0.002400
-0.005529
-0.009996
-0.015962
-0.023516
-0.032614
-0.043059
-0.054484
-0.066453
-0.078360
-0.089948
-0.101320
-0.112865
-0.125219
-0.144814
0.462097
0.460582
0.456300
0.449113
0.438600
0.424031
0.404384
0.378426
0.344870
0.302667
0.251465
0.192261
0.128165
0.064785
0.009528
-0.033330
-0.063129
-0.081513
-0.091306
-0.095818
-0.098409
-0.102091
-0.109004
-0.119821
-0.133533
-0.147715
-0.159596
-0.166599
-0.167572
-0.162443
-0.152007
-0.137561
-0.120560
-0.102340
-0.083958
-0.066125
-0.049201
-0.033265
-0.018213
-0.003894
0.009767
0.022707
0.034761
0.045813
0.055981
0.064846
0.072205
0.077771
0.081283
0.082501
0.081157
0.076976
0.069768
0.059556
0.046680
0.031847
0.016241
0.000673
-0.013988
-0.027009
-0.037597
-0.045100
-0.049334
-0.050577
-0.049263
-0.045789
-0.040578
-0.034157
-0.027049
-0.019861
-0.013015
-0.006959
-0.001986
0.001747
0.004296
0.005700
0.006170
0.006011
0.005516
0.004921
0.004370
0.003858
0.003248
0.002310
0.000785
-0.001570
-0.004958
-0.009542
-0.015468
-0.022925
-0.031973
-0.042722
-0.054885
-0.067776
-0.080943
-0.094103
-0.107337
-0.121129
-0.136385
-0.162640
0.454008
0.451986
0.446559
0.437887
0.425779
0.409743
0.389078
0.362987
0.330733
0.291861
0.246510
0.195775
0.142024
0.088899
0.040650
0.000304
-0.030999
-0.053719
-0.069376
-0.080055
-0.087997
-0.095223
-0.103172
-0.112361
-0.122293
-0.131836
-0.139112
-0.142732
-0.141988
-0.136878
-0.128007
-0.116362
-0.103063
-0.089143
-0.075389
-0.062247
-0.049811
-0.037863
-0.025977
-0.013697
-0.000785
0.012563
0.025750
0.038316
0.049884
0.060236
0.069141
0.076336
0.081539
0.084472
0.084874
0.082562
0.077508
0.069853
0.059920
0.047944
0.034092
0.019054
0.003149
-0.012782
-0.027257
-0.038714
-0.046391
-0.050501
-0.051520
-0.049694
-0.045325
-0.039197
-0.031765
-0.023991
-0.016707
-0.010102
-0.004457
-0.000039
0.003133
0.005153
0.006226
0.006605
0.006534
0.006207
0.005722
0.005052
0.004090
0.002668
0.000619
-0.002184
-0.005833
-0.010426
-0.016053
-0.023233
-0.032376
-0.043422
-0.056110
-0.069929
-0.084219
-0.098490
-0.112713
-0.127403
-0.143566
-0.172051
0.449644
0.446744
0.439919
0.429808
0.416391
0.399305
0.378031
0.352046
0.320942
0.284588
0.243329
0.198184
0.150971
0.104205
0.060651
0.022503
-0.009089
-0.034040
-0.053100
-0.067534
-0.078804
-0.088264
-0.096933
-0.105203
-0.112968
-0.119488
-0.123734
-0.124962
-0.122833
-0.117488
-0.109503
-0.099737
-0.089135
-0.078543
-0.068549
-0.059393
-0.050945
-0.042734
-0.034001
-0.023826
-0.011496
0.002803
0.017257
0.031429
0.044716
0.056738
0.067234
0.075968
0.082679
0.087098
0.089000
0.088321
0.085250
0.080004
0.072224
0.061921
0.049417
0.034338
0.016600
-0.002842
-0.021598
-0.036740
-0.046702
-0.052062
-0.054080
-0.053031
-0.048407
-0.041781
-0.034480
-0.026596
-0.018715
-0.011552
-0.005462
-0.000634
0.002926
0.005339
0.006812
0.007555
0.007729
0.007480
0.006855
0.005775
0.004187
0.002008
-0.000788
-0.004150
-0.008020
-0.012492
-0.017992
-0.024838
-0.033575
-0.044570
-0.057686
-0.072279
-0.087411
-0.102285
-0.116659
-0.130978
-0.146277
-0.170249
0.450663
0.445324
0.436364
0.424702
0.410144
0.392274
0.370589
0.344722
0.314448
0.279799
0.241193
0.199546
0.156315
0.113385
0.072779
0.036205
0.004733
-0.021306
-0.042229
-0.058808
-0.072014
-0.082722
-0.091802
-0.099594
-0.106005
-0.110638
-0.112999
-0.112713
-0.109679
-0.104153
-0.096714
-0.088151
-0.079306
-0.070899
-0.063389
-0.056887
-0.051144
-0.045606
-0.039448
-0.031418
-0.019722
-0.005295
0.010629
0.026649
0.041716
0.055297
0.067134
0.077041
0.084804
0.090171
0.092933
0.093123
0.091397
0.087001
0.080299
0.071402
0.059754
0.044622
0.025537
0.003297
-0.019105
-0.037258
-0.048276
-0.052806
-0.053509
-0.052413
-0.048997
-0.042767
-0.034928
-0.026681
-0.018661
-0.011398
-0.005228
-0.000313
0.003345
0.005881
0.007543
0.008513
0.008790
0.008432
0.007473
0.005938
0.003730
0.000804
-0.002777
-0.006830
-0.011157
-0.015733
-0.020881
-0.027194
-0.035388
-0.045951
-0.058836
-0.073414
-0.088706
-0.103811
-0.118319
-0.132427
-0.146643
-0.163191
0.461545
0.447375
0.435322
0.422302
0.406957
0.388523
0.366582
0.340786
0.310975
0.277242
0.240014
0.200129
0.158848
0.117769
0.078595
0.042819
0.011465
-0.015031
-0.036796
-0.054376
-0.068561
-0.080201
-0.089669
-0.097364
-0.103319
-0.107305
-0.109004
-0.108180
-0.104831
-0.099249
-0.091999
-0.083829
-0.075521
-0.067735
-0.060882
-0.055033
-0.049906
-0.044925
-0.039290
-0.032031
-0.022356
-0.008597
0.008231
0.025415
0.041495
0.055850
0.068240
0.078529
0.086542
0.092054
0.094849
0.094854
0.091960
0.087439
0.081110
0.072596
0.061345
0.046703
0.028286
0.006754
-0.015367
-0.034083
-0.046282
-0.051955
-0.053260
-0.051451
-0.047601
-0.041598
-0.034077
-0.026023
-0.018170
-0.011044
-0.004982
-0.000143
0.003467
0.005964
0.007510
0.008317
0.008560
0.008194
0.007197
0.005553
0.003209
0.000149
-0.003557
-0.007742
-0.012238
-0.017037
-0.022424
-0.028937
-0.037192
-0.047587
-0.060077
-0.074145
-0.088996
-0.103882
-0.118407
-0.132601
-0.146733
-0.161712
