# vtk DataFile Version 3.0
Scalar Field
ASCII
DATASET RECTILINEAR_GRID
DIMENSIONS 100 26 1
X_COORDINATES 100 double
0.050000 0.150000 0.250000 0.350000 0.450000 0.550000 0.650000 0.750000 0.850000 0.950000 1.050000 1.150000 1.250000 1.350000 1.450000 1.550000 1.650000 1.750000 1.850000 1.950000 2.050000 2.150000 2.250000 2.350000 2.450000 2.550000 2.650000 2.750000 2.850000 2.950000 3.050000 3.150000 3.250000 3.350000 3.450000 3.550000 3.650000 3.750000 3.850000 3.950000 4.050000 4.150000 4.250000 4.350000 4.450000 4.550000 4.650000 4.750000 4.850000 4.950000 5.050000 5.150000 5.250000 5.350000 5.450000 5.550000 5.650000 5.750000 5.850000 5.950000 6.050000 6.150000 6.250000 6.350000 6.450000 6.550000 6.650000 6.750000 6.850000 6.950000 7.050000 7.150000 7.250000 7.350000 7.450000 7.550000 7.650000 7.750000 7.850000 7.950000 8.050000 8.150000 8.250000 8.350000 8.450000 8.550000 8.650000 8.750000 8.850000 8.950000 9.050000 9.150000 9.250000 9.350000 9.450000 9.550000 9.650000 9.750000 9.850000 9.950000 
Y_COORDINATES 26 double
0.050000 0.150000 0.250000 0.350000 0.450000 0.550000 0.650000 0.750000 0.850000 0.950000 1.050000 1.150000 1.250000 1.350000 1.450000 1.550000 1.650000 1.750000 1.850000 1.950000 2.050000 2.150000 2.250000 2.350000 2.450000 2.550000 
Z_COORDINATES 1 double
0.0
POINT_DATA 2600
SCALARS Skalarfeld double 1
LOOKUP_TABLE default
0.277521
0.262179
0.246766
0.228253
0.205503
0.178022
0.145735
0.108987
0.068614
0.025982
-0.017104
-0.058675
-0.096925
-0.130459
-0.158300
-0.179360
-0.193575
-0.201184
-0.202711
-0.198891
-0.190602
-0.178776
-0.164321
-0.148058
-0.130683
-0.112761
-0.094746
-0.077020
-0.059945
-0.043897
-0.029263
-0.016428
-0.005603
0.002698
0.008605
0.012371
0.014301
0.014631
0.013436
0.010637
0.006082
-0.000317
-0.008438
-0.017819
-0.027516
-0.035967
-0.041086
-0.041253
-0.036117
-0.027189
-0.017065
-0.006850
0.002808
0.011528
0.019130
0.025571
0.030895
0.035208
0.038665
0.041377
0.043580
0.045107
0.045674
0.045065
0.043122
0.039904
0.035786
0.031348
0.027077
0.023081
0.019080
0.014740
0.010033
0.005352
0.001311
-0.001566
-0.003065
-0.003274
-0.002396
-0.000677
0.001637
0.004353
0.007223
0.010005
0.012537
0.014772
0.016796
0.018723
0.020663
0.022691
0.024851
0.027191
0.029797
0.032786
0.036285
0.040402
0.045203
0.050700
0.056814
0.064060
0.268823
0.262291
0.249874
0.232538
0.210114
0.182367
0.149249
0.111107
0.068860
0.024078
-0.021106
-0.064429
-0.103916
-0.138042
-0.165767
-0.186907
-0.200990
-0.208244
-0.209212
-0.204657
-0.195492
-0.182690
-0.167207
-0.149910
-0.131542
-0.112705
-0.093882
-0.075481
-0.057882
-0.041504
-0.026730
-0.013858
-0.003431
0.004509
0.009699
0.012714
0.013956
0.013728
0.012134
0.009082
0.004389
-0.002078
-0.010249
-0.019716
-0.029549
-0.038039
-0.042736
-0.041490
-0.035116
-0.026906
-0.017191
-0.007168
0.002386
0.011019
0.018545
0.024930
0.030228
0.034561
0.038117
0.041177
0.043683
0.045327
0.045999
0.045523
0.043646
0.040411
0.036251
0.031831
0.027659
0.023775
0.019762
0.015183
0.010035
0.004856
0.000443
-0.002574
-0.004011
-0.004104
-0.003071
-0.001191
0.001261
0.004155
0.007191
0.010092
0.012680
0.014901
0.016897
0.018773
0.020640
0.022586
0.024649
0.026884
0.029389
0.032301
0.035765
0.039904
0.044796
0.050474
0.056872
0.064164
0.272215
0.268042
0.257512
0.241188
0.218982
0.190592
0.155824
0.114918
0.068872
0.019651
-0.029830
-0.076649
-0.118576
-0.154192
-0.182722
-0.203935
-0.217696
-0.224123
-0.223799
-0.217524
-0.206266
-0.191082
-0.173036
-0.153120
-0.132207
-0.111032
-0.090202
-0.070227
-0.051564
-0.034667
-0.020062
-0.008292
0.000395
0.006071
0.009108
0.009640
0.008768
0.007025
0.004589
0.001361
-0.002903
-0.008417
-0.015186
-0.022838
-0.030442
-0.036451
-0.039093
-0.037380
-0.031846
-0.023591
-0.014462
-0.005485
0.003289
0.011252
0.018222
0.024142
0.029056
0.033078
0.036373
0.039123
0.041404
0.043249
0.044373
0.044421
0.043191
0.040721
0.037311
0.033396
0.029264
0.024997
0.020344
0.015116
0.009488
0.004068
-0.000370
-0.003295
-0.004628
-0.004591
-0.003605
-0.001871
0.000473
0.003431
0.006539
0.009550
0.012326
0.014785
0.016876
0.018690
0.020349
0.022022
0.023795
0.025788
0.028151
0.031053
0.034659
0.039106
0.044488
0.050839
0.058093
0.068436
0.283365
0.279960
0.270461
0.254836
0.232645
0.203204
0.165886
0.120579
0.068293
0.011585
-0.044887
-0.096968
-0.142208
-0.179567
-0.208760
-0.229811
-0.242812
-0.247840
-0.245491
-0.236590
-0.222181
-0.203446
-0.181610
-0.157846
-0.133220
-0.108654
-0.084920
-0.062655
-0.042402
-0.024686
-0.010294
0.000181
0.006482
0.008828
0.007959
0.004955
0.000680
-0.003433
-0.007129
-0.010528
-0.013957
-0.017744
-0.022017
-0.026546
-0.030659
-0.033322
-0.033504
-0.030718
-0.025268
-0.017961
-0.009815
-0.001389
0.006358
0.013295
0.019360
0.024447
0.028585
0.031873
0.034477
0.036589
0.038374
0.039912
0.041098
0.041701
0.041462
0.040095
0.037520
0.034010
0.029727
0.025096
0.020015
0.014591
0.009074
0.003967
-0.000183
-0.003039
-0.004561
-0.004870
-0.004108
-0.002367
0.000214
0.003053
0.006041
0.009036
0.011882
0.014346
0.016367
0.018001
0.019380
0.020659
0.022046
0.023751
0.025987
0.028957
0.032844
0.037807
0.043983
0.051496
0.060449
0.074580
0.300822
0.297814
0.289097
0.274173
0.252073
0.221412
0.180683
0.128913
0.066814
-0.002385
-0.069705
-0.128859
-0.177718
-0.216432
-0.245710
-0.266005
-0.277529
-0.280419
-0.275144
-0.262525
-0.243726
-0.220126
-0.193181
-0.164307
-0.134809
-0.105828
-0.078317
-0.053037
-0.030574
-0.011448
0.003059
0.012090
0.015246
0.012954
0.006549
-0.001920
-0.010416
-0.017438
-0.022465
-0.025755
-0.027859
-0.029335
-0.030527
-0.031449
-0.031771
-0.030945
-0.028459
-0.024115
-0.018145
-0.011084
-0.003578
0.003830
0.010642
0.016679
0.021759
0.025872
0.029010
0.031295
0.032930
0.034163
0.035245
0.036336
0.037426
0.038291
0.038572
0.037890
0.036025
0.032903
0.028828
0.023925
0.018417
0.012916
0.007621
0.002949
-0.000741
-0.003248
-0.004543
-0.004706
-0.003860
-0.002156
0.000219
0.003016
0.006081
0.009124
0.011843
0.014150
0.015935
0.017223
0.018141
0.018875
0.019732
0.021012
0.022992
0.025911
0.029974
0.035364
0.042268
0.050767
0.061105
0.077766
0.323839
0.321238
0.313516
0.299786
0.278422
0.246976
0.202332
0.141550
0.064035
-0.027025
-0.110625
-0.177685
-0.228750
-0.267116
-0.295312
-0.314079
-0.323420
-0.323488
-0.314311
-0.296681
-0.271983
-0.241912
-0.208259
-0.172761
-0.137019
-0.102436
-0.070178
-0.041135
-0.015898
0.005257
0.020392
0.027968
0.027265
0.018943
0.005093
-0.011043
-0.025681
-0.035998
-0.042107
-0.044651
-0.044687
-0.043208
-0.040889
-0.038028
-0.034602
-0.030404
-0.025237
-0.019074
-0.012123
-0.004764
0.002555
0.009433
0.015548
0.020708
0.024758
0.027676
0.029571
0.030603
0.031028
0.031160
0.031334
0.031779
0.032593
0.033573
0.034294
0.034261
0.033064
0.030480
0.026553
0.021415
0.015741
0.010094
0.004763
0.000356
-0.002893
-0.004885
-0.005653
-0.005319
-0.004052
-0.002037
0.000530
0.003443
0.006507
0.009488
0.012148
0.014288
0.015767
0.016558
0.016805
0.016789
0.016885
0.017473
0.018904
0.021472
0.025417
0.030928
0.038176
0.047266
0.058559
0.076296
0.351658
0.349648
0.343517
0.332060
0.312965
0.282360
0.234431
0.161929
0.059534
-0.072815
-0.178495
-0.249579
-0.297093
-0.331088
-0.356671
-0.373880
-0.381164
-0.378289
-0.364403
-0.340393
-0.308105
-0.269748
-0.227579
-0.183750
-0.140229
-0.098750
-0.060761
-0.027362
0.000793
0.023727
0.040338
0.046989
0.042564
0.028090
0.006351
-0.018543
-0.041651
-0.057891
-0.065055
-0.066372
-0.063761
-0.058884
-0.052853
-0.046256
-0.039296
-0.031980
-0.024276
-0.016245
-0.008077
-0.000064
0.007463
0.014209
0.019942
0.024496
0.027719
0.029501
0.029808
0.028846
0.027143
0.025516
0.024587
0.024205
0.024729
0.025940
0.027298
0.028168
0.027984
0.026355
0.023136
0.018438
0.012730
0.006470
0.000990
-0.003434
-0.006478
-0.008069
-0.008297
-0.007349
-0.005464
-0.002894
0.000121
0.003357
0.006604
0.009638
0.012219
0.014117
0.015163
0.015329
0.014770
0.013813
0.012900
0.012507
0.013087
0.015017
0.018582
0.023973
0.031312
0.040833
0.052683
0.070594
0.383174
0.382039
0.378382
0.370873
0.356733
0.330656
0.282987
0.197744
0.053037
-0.163612
-0.288672
-0.345413
-0.375781
-0.398712
-0.420932
-0.439922
-0.447986
-0.443574
-0.424872
-0.393518
-0.352298
-0.304180
-0.252016
-0.198447
-0.145887
-0.096495
-0.052125
-0.014246
0.016108
0.038317
0.056340
0.063004
0.056172
0.037721
0.011163
-0.019231
-0.048721
-0.072623
-0.085019
-0.086063
-0.081501
-0.073871
-0.064787
-0.055123
-0.045270
-0.035376
-0.025514
-0.015797
-0.006413
0.002386
0.010332
0.017183
0.022735
0.026785
0.029092
0.029425
0.027741
0.024400
0.020216
0.016162
0.013248
0.012212
0.012889
0.014790
0.017197
0.019349
0.020566
0.020335
0.018367
0.014646
0.009473
0.003412
-0.002662
-0.007500
-0.010637
-0.012136
-0.012075
-0.010678
-0.008251
-0.005122
-0.001605
0.002023
0.005510
0.008613
0.011082
0.012674
0.013216
0.012671
0.011199
0.009164
0.007082
0.005547
0.005129
0.006299
0.009383
0.014553
0.021978
0.031774
0.043909
0.061577
0.416757
0.416796
0.416577
0.415009
0.409546
0.394474
0.356820
0.266913
0.050363
-0.357013
-0.452399
-0.446513
-0.441637
-0.447131
-0.466337
-0.495749
-0.513063
-0.511058
-0.489074
-0.451108
-0.401431
-0.343894
-0.281962
-0.218802
-0.157350
-0.100344
-0.050237
-0.008974
0.022154
0.042615
0.052586
0.057944
0.050203
0.032957
0.008987
-0.018862
-0.047179
-0.072060
-0.089854
-0.096052
-0.091956
-0.083741
-0.073509
-0.062399
-0.050983
-0.039551
-0.028293
-0.017400
-0.007106
0.002324
0.010619
0.017523
0.022768
0.026024
0.026887
0.025052
0.020621
0.014341
0.007531
0.001618
-0.002409
-0.003449
-0.001999
0.001111
0.004975
0.008726
0.011613
0.013052
0.012666
0.010328
0.006213
0.000808
-0.005100
-0.010569
-0.014325
-0.016060
-0.016096
-0.014609
-0.011939
-0.008482
-0.004631
-0.000736
0.002894
0.005979
0.008249
0.009456
0.009417
0.008094
0.005655
0.002503
-0.000761
-0.003434
-0.004833
-0.004408
-0.001804
0.003135
0.010612
0.020561
0.032795
0.050061
0.450229
0.451631
0.455508
0.461454
0.468251
0.472333
0.463061
0.406249
0.151797
-0.711349
-0.638198
-0.503000
-0.467818
-0.459186
-0.473989
-0.511992
-0.554414
-0.560274
-0.539367
-0.499336
-0.445734
-0.383044
-0.315273
-0.246143
-0.179258
-0.118240
-0.066666
-0.027245
-0.000502
0.015166
0.021717
0.020466
0.015431
0.005574
-0.008663
-0.026357
-0.045907
-0.064878
-0.080374
-0.089884
-0.091176
-0.084935
-0.075953
-0.065517
-0.054331
-0.042820
-0.031305
-0.020102
-0.009543
0.000023
0.008252
0.014794
0.019245
0.021102
0.019844
0.015237
0.007738
-0.001342
-0.010165
-0.017053
-0.020969
-0.021078
-0.018227
-0.013458
-0.007826
-0.002281
0.002389
0.005577
0.006872
0.006083
0.003284
-0.001147
-0.006528
-0.011961
-0.016499
-0.018893
-0.019410
-0.018239
-0.015724
-0.012301
-0.008426
-0.004520
-0.000955
0.001945
0.003884
0.004600
0.003906
0.001763
-0.001645
-0.005873
-0.010246
-0.013970
-0.016277
-0.016556
-0.014426
-0.009744
-0.002287
0.007685
0.019850
0.036623
0.481072
0.483784
0.491654
0.505180
0.525155
0.552464
0.587134
0.624030
0.697149
-0.007100
-0.560189
-0.482181
-0.470330
-0.464745
-0.474617
-0.506380
-0.546942
-0.571832
-0.556259
-0.520675
-0.470412
-0.410085
-0.344142
-0.276911
-0.212806
-0.156254
-0.111197
-0.079696
-0.060626
-0.050261
-0.045437
-0.043211
-0.039990
-0.038039
-0.038534
-0.042063
-0.048583
-0.057200
-0.066187
-0.073474
-0.077400
-0.076543
-0.070634
-0.062703
-0.053451
-0.043369
-0.032887
-0.022451
-0.012525
-0.003584
0.003898
0.009428
0.012433
0.012260
0.008372
0.000776
-0.009570
-0.020798
-0.030748
-0.037743
-0.040507
-0.038997
-0.034233
-0.027442
-0.019811
-0.012362
-0.005902
-0.001024
0.001874
0.002587
0.001131
-0.002212
-0.006870
-0.012032
-0.016790
-0.020208
-0.021356
-0.020811
-0.018811
-0.015786
-0.012227
-0.008608
-0.005355
-0.002836
-0.001379
-0.001262
-0.002679
-0.005664
-0.010017
-0.015254
-0.020648
-0.025343
-0.028511
-0.029491
-0.027873
-0.023516
-0.016207
-0.006395
0.005493
0.021602
0.506869
0.510548
0.521358
0.540406
0.569823
0.613339
0.677475
0.773421
0.908877
0.942572
0.000000
-0.477614
-0.473048
-0.469457
-0.476421
-0.496139
-0.521189
-0.539136
-0.533569
-0.504889
-0.462423
-0.410680
-0.354366
-0.298097
-0.246689
-0.204517
-0.174646
-0.156236
-0.145303
-0.137321
-0.128408
-0.115487
-0.100273
-0.084899
-0.071137
-0.060335
-0.053371
-0.050477
-0.051050
-0.053729
-0.056797
-0.058704
-0.057820
-0.053415
-0.047260
-0.039798
-0.031484
-0.022854
-0.014496
-0.007019
-0.001040
0.002784
0.003714
0.001000
-0.005801
-0.016317
-0.029069
-0.041771
-0.052113
-0.058506
-0.059520
-0.055870
-0.048806
-0.039732
-0.029960
-0.020575
-0.012389
-0.005962
-0.001645
0.000386
0.000136
-0.002178
-0.006075
-0.010838
-0.015608
-0.019558
-0.021605
-0.021887
-0.020648
-0.018295
-0.015327
-0.012248
-0.009524
-0.007562
-0.006719
-0.007292
-0.009481
-0.013318
-0.018584
-0.024775
-0.031131
-0.036760
-0.040789
-0.042522
-0.041525
-0.037581
-0.030635
-0.021257
-0.009956
0.005140
0.525835
0.529946
0.542014
0.563194
0.595569
0.642295
0.707286
0.791990
0.888619
0.976266
0.894839
0.000000
-0.472871
-0.472695
-0.468979
-0.474052
-0.482148
-0.485113
-0.475791
-0.450429
-0.415171
-0.375052
-0.334314
-0.297511
-0.269055
-0.251487
-0.243865
-0.240920
-0.236049
-0.225638
-0.205588
-0.180237
-0.152123
-0.123765
-0.097280
-0.074299
-0.055993
-0.043057
-0.035577
-0.032886
-0.033597
-0.035911
-0.038081
-0.038153
-0.035544
-0.031376
-0.025984
-0.019930
-0.013887
-0.008576
-0.004750
-0.003228
-0.004897
-0.010542
-0.020411
-0.033718
-0.048523
-0.062255
-0.072540
-0.077835
-0.076651
-0.070533
-0.060964
-0.049519
-0.037615
-0.026381
-0.016621
-0.008849
-0.003351
-0.000248
0.000485
-0.000961
-0.004175
-0.008520
-0.013196
-0.017380
-0.020333
-0.021399
-0.021001
-0.019456
-0.017236
-0.014855
-0.012801
-0.011511
-0.011367
-0.012684
-0.015669
-0.020350
-0.026500
-0.033604
-0.040888
-0.047443
-0.052372
-0.054951
-0.054751
-0.051323
-0.045074
-0.036525
-0.026257
-0.012756
0.537171
0.541161
0.552801
0.572898
0.602712
0.643678
0.696886
0.762025
0.827836
0.850453
0.813412
0.697574
0.000000
-0.464878
-0.457062
-0.445603
-0.438326
-0.423823
-0.399476
-0.370442
-0.339467
-0.311034
-0.289234
-0.277910
-0.279095
-0.291201
-0.307886
-0.318924
-0.317588
-0.297679
-0.265850
-0.228379
-0.188443
-0.148940
-0.112207
-0.079946
-0.053294
-0.032930
-0.019110
-0.011571
-0.009380
-0.010935
-0.014261
-0.017461
-0.018702
-0.018025
-0.015839
-0.012727
-0.009412
-0.006700
-0.005470
-0.006694
-0.011374
-0.020254
-0.033310
-0.049328
-0.065986
-0.080516
-0.090535
-0.094172
-0.090513
-0.081856
-0.069853
-0.056211
-0.042413
-0.029599
-0.018545
-0.009706
-0.003302
0.000611
0.002092
0.001327
-0.001323
-0.005291
-0.009837
-0.014170
-0.017603
-0.019472
-0.019895
-0.019165
-0.017728
-0.016092
-0.014755
-0.014175
-0.014754
-0.016822
-0.020590
-0.026085
-0.033078
-0.041051
-0.049235
-0.056716
-0.062587
-0.066107
-0.066835
-0.064260
-0.059100
-0.051888
-0.043238
-0.032147
0.541093
0.544534
0.554497
0.571405
0.595821
0.628093
0.667216
0.708197
0.738217
0.730417
0.667666
0.581736
0.413621
0.000000
-0.435125
-0.413188
-0.404955
-0.371798
-0.326140
-0.283769
-0.253853
-0.236316
-0.233822
-0.247599
-0.279028
-0.320177
-0.357870
-0.379159
-0.374770
-0.344372
-0.303236
-0.256267
-0.207425
-0.159917
-0.116138
-0.077712
-0.045612
-0.020338
-0.002058
0.009368
0.014509
0.014537
0.011199
0.006428
0.002096
-0.000227
-0.001038
-0.000812
-0.000285
-0.000326
-0.001931
-0.006203
-0.014196
-0.026520
-0.042812
-0.061444
-0.079775
-0.094892
-0.104466
-0.105480
-0.099681
-0.088823
-0.074819
-0.059477
-0.044298
-0.030389
-0.018470
-0.008931
-0.001925
0.002547
0.004574
0.004339
0.002162
-0.001456
-0.005840
-0.010241
-0.013999
-0.016441
-0.017542
-0.017525
-0.016800
-0.015859
-0.015203
-0.015300
-0.016567
-0.019344
-0.023845
-0.030096
-0.037869
-0.046652
-0.055690
-0.064082
-0.070930
-0.075492
-0.077296
-0.075947
-0.072376
-0.067115
-0.060781
-0.053101
0.538617
0.541302
0.548996
0.561726
0.579317
0.600940
0.624130
0.643154
0.646914
0.617437
0.536886
0.395374
0.245507
-0.180902
-0.469677
-0.421697
-0.395073
-0.336108
-0.268223
-0.211064
-0.179330
-0.167435
-0.181206
-0.218752
-0.274702
-0.336297
-0.386825
-0.411276
-0.397019
-0.362250
-0.315744
-0.263551
-0.210153
-0.158841
-0.111882
-0.070686
-0.035993
-0.008078
0.013050
0.027519
0.035636
0.038090
0.036139
0.031522
0.026014
0.021112
0.017843
0.015569
0.013516
0.010770
0.006246
-0.001232
-0.012674
-0.028451
-0.047822
-0.068785
-0.088448
-0.103753
-0.112126
-0.110913
-0.103252
-0.090839
-0.075621
-0.059393
-0.043600
-0.029271
-0.017043
-0.007236
0.000054
0.004861
0.007291
0.007509
0.005787
0.002559
-0.001573
-0.005904
-0.009783
-0.012624
-0.014221
-0.014756
-0.014608
-0.014252
-0.014183
-0.014875
-0.016755
-0.020163
-0.025316
-0.032236
-0.040698
-0.050206
-0.060028
-0.069294
-0.077138
-0.082884
-0.085759
-0.086141
-0.084723
-0.082069
-0.078795
-0.075639
0.531135
0.532948
0.538061
0.546207
0.556723
0.568147
0.577525
0.579424
0.564836
0.520336
0.428325
0.264488
-0.022270
-0.607310
-0.517656
-0.413134
-0.357485
-0.295990
-0.230668
-0.175381
-0.134649
-0.128145
-0.152619
-0.203146
-0.270345
-0.339042
-0.391756
-0.406219
-0.388462
-0.352229
-0.304982
-0.252654
-0.199638
-0.149020
-0.102809
-0.062167
-0.027622
0.000734
0.023058
0.039569
0.050461
0.056012
0.056866
0.054193
0.049431
0.043772
0.039191
0.035113
0.030884
0.025637
0.018278
0.007662
-0.007058
-0.025936
-0.047864
-0.070549
-0.090969
-0.106178
-0.111964
-0.109465
-0.100870
-0.087960
-0.072632
-0.056571
-0.041096
-0.027119
-0.015184
-0.005546
0.001733
0.006700
0.009452
0.010123
0.008924
0.006210
0.002502
-0.001561
-0.005347
-0.008364
-0.010246
-0.011149
-0.011419
-0.011512
-0.011916
-0.013103
-0.015500
-0.019446
-0.025150
-0.032632
-0.041672
-0.051797
-0.062310
-0.072382
-0.081190
-0.088066
-0.092354
-0.094893
-0.096135
-0.096683
-0.097160
-0.099643
0.520257
0.521208
0.523814
0.527643
0.531806
0.534648
0.533303
0.523141
0.497207
0.445785
0.355978
0.210742
-0.011502
-0.293515
-0.350194
-0.330775
-0.296720
-0.251449
-0.201483
-0.154789
-0.124895
-0.123620
-0.151550
-0.202973
-0.266836
-0.328093
-0.366280
-0.371213
-0.353489
-0.319820
-0.276549
-0.228842
-0.180559
-0.134389
-0.092057
-0.054541
-0.022268
0.004723
0.026639
0.043796
0.056475
0.064857
0.069152
0.069898
0.067958
0.064284
0.060036
0.055135
0.049356
0.042052
0.032251
0.018962
0.001607
-0.019531
-0.043039
-0.066442
-0.086623
-0.100478
-0.104370
-0.101530
-0.093214
-0.081112
-0.066937
-0.052173
-0.037958
-0.025065
-0.013952
-0.004838
0.002220
0.007249
0.010309
0.011487
0.010929
0.008907
0.005849
0.002311
-0.001132
-0.004031
-0.005971
-0.007054
-0.007589
-0.008004
-0.008774
-0.010364
-0.013188
-0.017576
-0.023725
-0.031651
-0.041145
-0.051765
-0.062861
-0.073668
-0.083444
-0.091344
-0.097498
-0.102460
-0.106706
-0.110871
-0.115601
-0.124693
0.507575
0.507757
0.508153
0.508291
0.507251
0.503472
0.494486
0.476651
0.444954
0.393023
0.313481
0.199320
0.049512
-0.113060
-0.197063
-0.223483
-0.219940
-0.199561
-0.171836
-0.145990
-0.131944
-0.137053
-0.162603
-0.204422
-0.253251
-0.295499
-0.316940
-0.318753
-0.303425
-0.275388
-0.239307
-0.199222
-0.158275
-0.118714
-0.082016
-0.049049
-0.020225
0.004371
0.024869
0.041533
0.054662
0.064529
0.071371
0.075417
0.077250
0.078261
0.076018
0.071590
0.065346
0.056935
0.045617
0.030680
0.011880
-0.010186
-0.033913
-0.056807
-0.075895
-0.086660
-0.090626
-0.088661
-0.081980
-0.072024
-0.060208
-0.047738
-0.035543
-0.024265
-0.014306
-0.005890
0.000883
0.005978
0.009395
0.011163
0.011363
0.010195
0.007998
0.005237
0.002407
-0.000054
-0.001807
-0.002890
-0.003556
-0.004194
-0.005253
-0.007177
-0.010360
-0.015106
-0.021595
-0.029839
-0.039652
-0.050635
-0.062200
-0.073651
-0.084228
-0.093449
-0.101650
-0.109158
-0.116513
-0.124399
-0.133533
-0.149804
0.494515
0.494052
0.492622
0.489795
0.484760
0.476195
0.462147
0.439936
0.406188
0.357087
0.289068
0.200378
0.094637
-0.013530
-0.090149
-0.132634
-0.149900
-0.150810
-0.143351
-0.135095
-0.133030
-0.142005
-0.163092
-0.193286
-0.225831
-0.251193
-0.264503
-0.264628
-0.252467
-0.230628
-0.202246
-0.170265
-0.137110
-0.104592
-0.073949
-0.045938
-0.020950
0.000888
0.019634
0.035459
0.048603
0.059318
0.067822
0.074564
0.080244
0.083391
0.083633
0.081111
0.075892
0.067776
0.056343
0.041252
0.022613
0.001268
-0.021114
-0.042188
-0.058310
-0.068283
-0.073174
-0.073330
-0.069560
-0.062884
-0.054333
-0.044812
-0.035046
-0.025579
-0.016811
-0.009024
-0.002416
0.002875
0.006757
0.009205
0.010239
0.010009
0.008786
0.006957
0.004962
0.003199
0.001823
0.000881
0.000183
-0.000614
-0.001922
-0.004149
-0.007646
-0.012680
-0.019404
-0.027832
-0.037816
-0.049022
-0.060938
-0.072941
-0.084405
-0.095180
-0.105357
-0.115283
-0.125516
-0.136780
-0.149925
-0.173153
0.482276
0.481282
0.478381
0.473256
0.465271
0.453405
0.436205
0.411808
0.378066
0.332862
0.274745
0.204007
0.124396
0.044761
-0.020401
-0.066021
-0.093958
-0.108670
-0.115381
-0.119366
-0.125319
-0.136414
-0.153431
-0.174483
-0.195365
-0.211429
-0.219647
-0.218751
-0.209118
-0.192290
-0.170329
-0.145323
-0.119083
-0.093016
-0.068096
-0.044916
-0.023768
-0.004734
0.012225
0.027214
0.040361
0.051807
0.061715
0.070609
0.077740
0.082657
0.084994
0.084556
0.081141
0.074477
0.064313
0.050610
0.033759
0.014735
-0.004901
-0.022620
-0.036904
-0.047707
-0.054849
-0.058343
-0.058470
-0.055768
-0.050891
-0.044477
-0.037089
-0.029234
-0.021370
-0.013899
-0.007170
-0.001452
0.003019
0.006234
0.008118
0.008831
0.008632
0.007817
0.006717
0.005578
0.004624
0.003882
0.003188
0.002238
0.000667
-0.001873
-0.005673
-0.010933
-0.017776
-0.026227
-0.036208
-0.047493
-0.059731
-0.072389
-0.084927
-0.097137
-0.109060
-0.121002
-0.133490
-0.147260
-0.163316
-0.191990
0.471845
0.470387
0.466265
0.459342
0.449199
0.435105
0.416034
0.390740
0.357920
0.316489
0.266042
0.207497
0.143844
0.080523
0.024694
-0.019644
-0.052100
-0.074551
-0.089990
-0.101746
-0.112834
-0.125313
-0.139779
-0.155223
-0.169493
-0.179981
-0.184773
-0.183053
-0.175031
-0.161710
-0.144516
-0.124965
-0.104415
-0.083922
-0.064190
-0.045584
-0.028197
-0.011956
0.003271
0.017567
0.030905
0.043188
0.054562
0.064646
0.073136
0.079662
0.083849
0.085374
0.083941
0.079290
0.071296
0.060103
0.046231
0.030608
0.014616
-0.000882
-0.015222
-0.027946
-0.038487
-0.046195
-0.050677
-0.052013
-0.050602
-0.046905
-0.041383
-0.034583
-0.027086
-0.019476
-0.012291
-0.005846
-0.000568
0.003438
0.006215
0.007806
0.008406
0.008321
0.007851
0.007236
0.006627
0.006018
0.005249
0.004053
0.002126
-0.000804
-0.004926
-0.010349
-0.017159
-0.025421
-0.035185
-0.046616
-0.059290
-0.072653
-0.086246
-0.099716
-0.112982
-0.126272
-0.140051
-0.155003
-0.172171
-0.203053
0.464087
0.462118
0.456835
0.448400
0.436622
0.421004
0.400835
0.375304
0.343645
0.305364
0.260536
0.210173
0.156526
0.103085
0.053925
0.011887
-0.022055
-0.048476
-0.068926
-0.085368
-0.099668
-0.113147
-0.126268
-0.138564
-0.149034
-0.156002
-0.158462
-0.155999
-0.148857
-0.137823
-0.124003
-0.108577
-0.092600
-0.076852
-0.061780
-0.047489
-0.033806
-0.020381
-0.006842
0.006991
0.020891
0.034373
0.047031
0.058507
0.068510
0.076695
0.082687
0.086130
0.086717
0.084255
0.078763
0.070514
0.060021
0.047811
0.034043
0.019487
0.004235
-0.011310
-0.026056
-0.038395
-0.047041
-0.051732
-0.052926
-0.051085
-0.046560
-0.040080
-0.032360
-0.024053
-0.016301
-0.009337
-0.003314
0.001434
0.004884
0.007127
0.008367
0.008873
0.008893
0.008627
0.008184
0.007514
0.006467
0.004817
0.002337
-0.001131
-0.005633
-0.011129
-0.017693
-0.025673
-0.035346
-0.046696
-0.059681
-0.073836
-0.088460
-0.102921
-0.116955
-0.130740
-0.144724
-0.159496
-0.175773
-0.203814
0.459963
0.457110
0.450417
0.440522
0.427400
0.410685
0.389843
0.364332
0.333714
0.297812
0.256906
0.211932
0.164598
0.117293
0.072645
0.032725
-0.001414
-0.029725
-0.052909
-0.072055
-0.088272
-0.102401
-0.114789
-0.125363
-0.133371
-0.138035
-0.138853
-0.135724
-0.129003
-0.119426
-0.107956
-0.095591
-0.083187
-0.071322
-0.060230
-0.049796
-0.039604
-0.028999
-0.017197
-0.003592
0.011263
0.026026
0.040269
0.053436
0.065119
0.074969
0.082639
0.087787
0.090131
0.089566
0.086292
0.080697
0.072880
0.062602
0.050588
0.036487
0.019927
0.001177
-0.018121
-0.035062
-0.047049
-0.053558
-0.055806
-0.054836
-0.050349
-0.043198
-0.035359
-0.027111
-0.018717
-0.011067
-0.004523
0.000700
0.004583
0.007244
0.008902
0.009813
0.010149
0.010050
0.009608
0.008668
0.007100
0.004732
0.001442
-0.002758
-0.007747
-0.013434
-0.019863
-0.027289
-0.036309
-0.047397
-0.060620
-0.075445
-0.090895
-0.105989
-0.120213
-0.133690
-0.146943
-0.160810
-0.175480
-0.194784
0.461138
0.455843
0.447006
0.435545
0.421256
0.403722
0.382421
0.356967
0.327101
0.292808
0.254443
0.212837
0.169347
0.125749
0.083958
0.045594
0.011677
-0.017453
-0.042030
-0.062631
-0.079871
-0.094308
-0.106353
-0.115808
-0.122325
-0.125567
-0.125354
-0.121794
-0.115328
-0.106682
-0.096742
-0.086392
-0.076360
-0.067094
-0.058694
-0.050928
-0.043301
-0.035092
-0.025185
-0.011988
0.003230
0.019541
0.035618
0.050542
0.063789
0.075023
0.083948
0.090256
0.093683
0.094184
0.092285
0.088043
0.081252
0.072602
0.061701
0.047894
0.030479
0.009429
-0.013471
-0.034231
-0.048589
-0.055187
-0.056000
-0.054491
-0.050813
-0.044593
-0.036264
-0.027454
-0.018840
-0.011009
-0.004324
0.001031
0.005041
0.007834
0.009644
0.010802
0.011302
0.011226
0.010515
0.009183
0.007056
0.003958
-0.000171
-0.005197
-0.010809
-0.016728
-0.022938
-0.029842
-0.038196
-0.048684
-0.061506
-0.076182
-0.091714
-0.107030
-0.121458
-0.134963
-0.148002
-0.160830
-0.173985
-0.188288
0.472097
0.457970
0.446036
0.433209
0.418125
0.400004
0.378420
0.353002
0.323560
0.290136
0.253094
0.213188
0.171586
0.129783
0.089387
0.051823
0.018089
-0.011354
-0.036536
-0.057839
-0.075822
-0.090815
-0.102828
-0.111919
-0.117935
-0.120693
-0.120137
-0.116454
-0.110110
-0.101813
-0.092401
-0.082700
-0.073382
-0.064843
-0.057150
-0.050040
-0.042999
-0.035335
-0.026237
-0.015155
-0.000167
0.017128
0.034386
0.050327
0.064347
0.076135
0.085445
0.092013
0.095588
0.096049
0.093428
0.088620
0.082250
0.074038
0.063544
0.050146
0.033250
0.012864
-0.009510
-0.030407
-0.045761
-0.053728
-0.055918
-0.053861
-0.049602
-0.043341
-0.035385
-0.026772
-0.018317
-0.010607
-0.004014
0.001278
0.005248
0.008012
0.009776
0.010697
0.011125
0.011002
0.010250
0.008795
0.006505
0.003252
-0.001000
-0.006123
-0.011847
-0.017929
-0.024361
-0.031502
-0.039980
-0.050360
-0.062800
-0.076912
-0.091893
-0.106866
-0.121231
-0.134853
-0.147957
-0.160811
-0.173663
-0.186990
