# vtk DataFile Version 3.0
Vector Field
ASCII
DATASET RECTILINEAR_GRID
DIMENSIONS 100 26 1
X_COORDINATES 100 double
0.050000 0.150000 0.250000 0.350000 0.450000 0.550000 0.650000 0.750000 0.850000 0.950000 1.050000 1.150000 1.250000 1.350000 1.450000 1.550000 1.650000 1.750000 1.850000 1.950000 2.050000 2.150000 2.250000 2.350000 2.450000 2.550000 2.650000 2.750000 2.850000 2.950000 3.050000 3.150000 3.250000 3.350000 3.450000 3.550000 3.650000 3.750000 3.850000 3.950000 4.050000 4.150000 4.250000 4.350000 4.450000 4.550000 4.650000 4.750000 4.850000 4.950000 5.050000 5.150000 5.250000 5.350000 5.450000 5.550000 5.650000 5.750000 5.850000 5.950000 6.050000 6.150000 6.250000 6.350000 6.450000 6.550000 6.650000 6.750000 6.850000 6.950000 7.050000 7.150000 7.250000 7.350000 7.450000 7.550000 7.650000 7.750000 7.850000 7.950000 8.050000 8.150000 8.250000 8.350000 8.450000 8.550000 8.650000 8.750000 8.850000 8.950000 9.050000 9.150000 9.250000 9.350000 9.450000 9.550000 9.650000 9.750000 9.850000 9.950000 
Y_COORDINATES 26 double
0.050000 0.150000 0.250000 0.350000 0.450000 0.550000 0.650000 0.750000 0.850000 0.950000 1.050000 1.150000 1.250000 1.350000 1.450000 1.550000 1.650000 1.750000 1.850000 1.950000 2.050000 2.150000 2.250000 2.350000 2.450000 2.550000 
Z_COORDINATES 1 double
0.0
POINT_DATA 2600
VECTORS Vektorfeld double
0.997650 0.002350 0.0
0.992781 0.002519 0.0
0.989111 0.001151 0.0
0.988822 -0.000861 0.0
0.992811 -0.003128 0.0
1.001335 -0.005395 0.0
1.014151 -0.007421 0.0
1.030536 -0.008965 0.0
1.049316 -0.009815 0.0
1.068986 -0.009854 0.0
1.087955 -0.009115 0.0
1.104839 -0.007768 0.0
1.118657 -0.006050 0.0
1.128897 -0.004191 0.0
1.135466 -0.002378 0.0
1.138582 -0.000738 0.0
1.138699 0.000621 0.0
1.136302 0.001777 0.0
1.131694 0.002830 0.0
1.124939 0.003925 0.0
1.115803 0.005211 0.0
1.103768 0.006825 0.0
1.088102 0.008841 0.0
1.068009 0.011253 0.0
1.042782 0.013974 0.0
1.011960 0.016849 0.0
0.975421 0.019690 0.0
0.933429 0.022301 0.0
0.886628 0.024500 0.0
0.835998 0.026130 0.0
0.782806 0.027063 0.0
0.728540 0.027203 0.0
0.674855 0.026483 0.0
0.623499 0.024873 0.0
0.576241 0.022384 0.0
0.534781 0.019076 0.0
0.500704 0.015000 0.0
0.475700 0.010004 0.0
0.461916 0.003780 0.0
0.460624 -0.002487 0.0
0.469768 -0.006657 0.0
0.485283 -0.008857 0.0
0.503750 -0.009611 0.0
0.522719 -0.009358 0.0
0.540433 -0.008357 0.0
0.555561 -0.006772 0.0
0.567117 -0.004783 0.0
0.574540 -0.002640 0.0
0.577634 -0.000453 0.0
0.575636 0.002450 0.0
0.567055 0.006131 0.0
0.550742 0.010183 0.0
0.526380 0.014179 0.0
0.494610 0.017591 0.0
0.457347 0.019672 0.0
0.418152 0.019523 0.0
0.381967 0.016662 0.0
0.353546 0.011759 0.0
0.335252 0.006535 0.0
0.326143 0.002574 0.0
0.323247 0.000322 0.0
0.323653 -0.000727 0.0
0.325778 -0.001399 0.0
0.329221 -0.002044 0.0
0.333762 -0.002496 0.0
0.338877 -0.002618 0.0
0.343992 -0.002497 0.0
0.348680 -0.002190 0.0
0.352613 -0.001743 0.0
0.355548 -0.001191 0.0
0.357293 -0.000554 0.0
0.357580 0.000268 0.0
0.355925 0.001387 0.0
0.352007 0.002531 0.0
0.346085 0.003391 0.0
0.338906 0.003789 0.0
0.331479 0.003639 0.0
0.324871 0.002969 0.0
0.319975 0.001926 0.0
0.317352 0.000697 0.0
0.317031 -0.000376 0.0
0.318247 -0.000840 0.0
0.319915 -0.000827 0.0
0.321277 -0.000535 0.0
0.321899 -0.000086 0.0
0.321513 0.000472 0.0
0.320082 0.000958 0.0
0.317903 0.001220 0.0
0.315462 0.001221 0.0
0.313220 0.001020 0.0
0.311510 0.000690 0.0
0.310597 0.000223 0.0
0.310691 -0.000317 0.0
0.311694 -0.000685 0.0
0.313220 -0.000841 0.0
0.314884 -0.000824 0.0
0.316365 -0.000656 0.0
0.317348 -0.000327 0.0
0.317584 0.000090 0.0
0.316972 0.000521 0.0
1.002943 0.001758 0.0
1.011362 -0.000439 0.0
1.024299 -0.005159 0.0
1.041150 -0.011114 0.0
1.061869 -0.017585 0.0
1.086387 -0.023979 0.0
1.114395 -0.029660 0.0
1.145221 -0.033937 0.0
1.177779 -0.036181 0.0
1.210632 -0.036011 0.0
1.242244 -0.033541 0.0
1.271338 -0.029320 0.0
1.297105 -0.024082 0.0
1.319229 -0.018523 0.0
1.337798 -0.013183 0.0
1.353154 -0.008405 0.0
1.365675 -0.004351 0.0
1.375720 -0.000898 0.0
1.383593 0.002239 0.0
1.389384 0.005479 0.0
1.392853 0.009324 0.0
1.393389 0.014211 0.0
1.390127 0.020382 0.0
1.382116 0.027816 0.0
1.368522 0.036231 0.0
1.348793 0.045143 0.0
1.322763 0.053965 0.0
1.290682 0.062099 0.0
1.253194 0.068992 0.0
1.211284 0.074177 0.0
1.166217 0.077275 0.0
1.119479 0.077994 0.0
1.072717 0.076140 0.0
1.027675 0.071614 0.0
0.986131 0.064444 0.0
0.949823 0.054785 0.0
0.920338 0.042852 0.0
0.898681 0.028813 0.0
0.884305 0.013130 0.0
0.875777 -0.002018 0.0
0.873029 -0.013523 0.0
0.876677 -0.021154 0.0
0.886604 -0.025709 0.0
0.902276 -0.027901 0.0
0.922830 -0.028081 0.0
0.946954 -0.026300 0.0
0.972637 -0.022493 0.0
0.996912 -0.016629 0.0
1.016069 -0.008714 0.0
1.027409 0.001369 0.0
1.029947 0.013255 0.0
1.023318 0.026002 0.0
1.007725 0.038315 0.0
0.984228 0.048720 0.0
0.954557 0.055477 0.0
0.920584 0.056887 0.0
0.883718 0.052347 0.0
0.844828 0.043384 0.0
0.804937 0.033095 0.0
0.766101 0.023958 0.0
0.731646 0.016289 0.0
0.705505 0.009042 0.0
0.690475 0.001737 0.0
0.686246 -0.004394 0.0
0.689804 -0.008245 0.0
0.698130 -0.010310 0.0
0.709498 -0.011290 0.0
0.722759 -0.011346 0.0
0.736793 -0.010555 0.0
0.750411 -0.008931 0.0
0.762356 -0.006506 0.0
0.771669 -0.003379 0.0
0.778263 0.000095 0.0
0.782708 0.003296 0.0
0.785509 0.005746 0.0
0.787073 0.007048 0.0
0.787836 0.007044 0.0
0.788122 0.005887 0.0
0.788002 0.004023 0.0
0.787188 0.002037 0.0
0.785164 0.000628 0.0
0.781768 0.000336 0.0
0.777074 0.001023 0.0
0.770954 0.002373 0.0
0.763320 0.004017 0.0
0.754506 0.005569 0.0
0.745229 0.006569 0.0
0.736297 0.006720 0.0
0.728484 0.005976 0.0
0.722465 0.004526 0.0
0.718727 0.002632 0.0
0.717420 0.000501 0.0
0.718109 -0.001378 0.0
0.720053 -0.002572 0.0
0.722729 -0.003156 0.0
0.725857 -0.003302 0.0
0.729270 -0.003071 0.0
0.732651 -0.002275 0.0
0.735254 -0.000801 0.0
0.735963 0.001316 0.0
1.001851 -0.003036 0.0
1.008437 -0.010649 0.0
1.020370 -0.019818 0.0
1.037132 -0.030067 0.0
1.058620 -0.040839 0.0
1.084796 -0.051420 0.0
1.115422 -0.060853 0.0
1.149814 -0.067963 0.0
1.186668 -0.071569 0.0
1.224014 -0.070822 0.0
1.259661 -0.065987 0.0
1.291907 -0.058213 0.0
1.319864 -0.048912 0.0
1.343374 -0.039328 0.0
1.362789 -0.030363 0.0
1.378757 -0.022549 0.0
1.392071 -0.016042 0.0
1.403516 -0.010697 0.0
1.413714 -0.006033 0.0
1.422975 -0.001302 0.0
1.431216 0.004397 0.0
1.437902 0.011916 0.0
1.442091 0.021750 0.0
1.442667 0.033883 0.0
1.438610 0.047815 0.0
1.429203 0.062694 0.0
1.414138 0.077508 0.0
1.393522 0.091252 0.0
1.367820 0.103029 0.0
1.337778 0.112094 0.0
1.304347 0.117855 0.0
1.268631 0.119868 0.0
1.231831 0.117830 0.0
1.195194 0.111603 0.0
1.159953 0.101241 0.0
1.127228 0.087020 0.0
1.097866 0.069463 0.0
1.072232 0.049493 0.0
1.050261 0.028798 0.0
1.031789 0.009314 0.0
1.017415 -0.007731 0.0
1.008463 -0.021642 0.0
1.006026 -0.032710 0.0
1.010725 -0.041270 0.0
1.022694 -0.047235 0.0
1.041481 -0.050059 0.0
1.065992 -0.048929 0.0
1.094520 -0.042997 0.0
1.124737 -0.031721 0.0
1.153429 -0.015656 0.0
1.177266 0.003904 0.0
1.194175 0.025074 0.0
1.203254 0.045756 0.0
1.204236 0.063794 0.0
1.197236 0.077074 0.0
1.182492 0.084009 0.0
1.160292 0.084291 0.0
1.131377 0.079246 0.0
1.097486 0.071016 0.0
1.061315 0.061043 0.0
1.025498 0.049476 0.0
0.991295 0.036198 0.0
0.958607 0.022297 0.0
0.928229 0.009653 0.0
0.903307 -0.000929 0.0
0.886774 -0.009418 0.0
0.878582 -0.015358 0.0
0.876891 -0.018849 0.0
0.880053 -0.020248 0.0
0.886863 -0.019665 0.0
0.896369 -0.017223 0.0
0.907712 -0.013318 0.0
0.919895 -0.008744 0.0
0.931891 -0.004307 0.0
0.943132 -0.000692 0.0
0.953523 0.001531 0.0
0.963163 0.002157 0.0
0.972218 0.001434 0.0
0.980821 -0.000007 0.0
0.989043 -0.001340 0.0
0.996912 -0.001840 0.0
1.004347 -0.001233 0.0
1.011140 0.000491 0.0
1.017072 0.003095 0.0
1.021846 0.006156 0.0
1.025039 0.009052 0.0
1.026145 0.011257 0.0
1.024648 0.012462 0.0
1.020148 0.012547 0.0
1.012489 0.011633 0.0
1.001797 0.009956 0.0
0.988494 0.007787 0.0
0.973649 0.005491 0.0
0.959160 0.003105 0.0
0.947152 0.000501 0.0
0.939194 -0.002129 0.0
0.935599 -0.004061 0.0
0.935506 -0.004574 0.0
0.937589 -0.003189 0.0
0.938553 0.002032 0.0
1.001468 -0.006356 0.0
1.007139 -0.019586 0.0
1.018160 -0.033835 0.0
1.034457 -0.049109 0.0
1.056233 -0.065061 0.0
1.083784 -0.080925 0.0
1.117214 -0.095403 0.0
1.156021 -0.106612 0.0
1.198708 -0.112459 0.0
1.242271 -0.110842 0.0
1.283080 -0.102423 0.0
1.318668 -0.089612 0.0
1.348145 -0.074948 0.0
1.371741 -0.060399 0.0
1.390295 -0.047260 0.0
1.404925 -0.036250 0.0
1.416854 -0.027584 0.0
1.427273 -0.021019 0.0
1.437199 -0.015834 0.0
1.447275 -0.010839 0.0
1.457508 -0.004540 0.0
1.467160 0.004513 0.0
1.474906 0.017217 0.0
1.479186 0.033561 0.0
1.478658 0.052723 0.0
1.472504 0.073347 0.0
1.460519 0.093905 0.0
1.443019 0.112971 0.0
1.420669 0.129362 0.0
1.394310 0.142162 0.0
1.364840 0.150687 0.0
1.333149 0.154443 0.0
1.300085 0.153118 0.0
1.266443 0.146593 0.0
1.232947 0.134988 0.0
1.200225 0.118721 0.0
1.168771 0.098579 0.0
1.138978 0.075806 0.0
1.111336 0.052099 0.0
1.086689 0.029131 0.0
1.065999 0.007516 0.0
1.050436 -0.012375 0.0
1.041309 -0.030412 0.0
1.039530 -0.046489 0.0
1.045533 -0.059988 0.0
1.059247 -0.069806 0.0
1.080220 -0.074666 0.0
1.107779 -0.073348 0.0
1.141007 -0.064815 0.0
1.178352 -0.048598 0.0
1.216891 -0.025530 0.0
1.252325 0.002167 0.0
1.280922 0.030986 0.0
1.301057 0.057447 0.0
1.312260 0.079217 0.0
1.314236 0.094635 0.0
1.306972 0.103128 0.0
1.291036 0.105260 0.0
1.267773 0.102157 0.0
1.239060 0.094786 0.0
1.206753 0.083858 0.0
1.172427 0.070346 0.0
1.137652 0.055613 0.0
1.103881 0.040487 0.0
1.071709 0.025331 0.0
1.041384 0.011180 0.0
1.014506 -0.000886 0.0
0.993340 -0.010464 0.0
0.978655 -0.017110 0.0
0.969754 -0.020713 0.0
0.965573 -0.021500 0.0
0.965065 -0.019877 0.0
0.967228 -0.016529 0.0
0.971158 -0.012448 0.0
0.976143 -0.008776 0.0
0.981779 -0.006411 0.0
0.988065 -0.005827 0.0
0.995386 -0.006959 0.0
1.004424 -0.009255 0.0
1.015991 -0.011879 0.0
1.030770 -0.013950 0.0
1.048994 -0.014781 0.0
1.070207 -0.013967 0.0
1.093253 -0.011425 0.0
1.116522 -0.007368 0.0
1.138220 -0.002315 0.0
1.156655 0.003082 0.0
1.170579 0.008208 0.0
1.179260 0.012620 0.0
1.182390 0.016090 0.0
1.180055 0.018525 0.0
1.172783 0.019793 0.0
1.161455 0.019657 0.0
1.147009 0.017873 0.0
1.130246 0.014504 0.0
1.111995 0.010075 0.0
1.093793 0.005533 0.0
1.077893 0.001825 0.0
1.066193 0.000030 0.0
1.058820 0.005222 0.0
1.001273 -0.009097 0.0
1.006336 -0.027580 0.0
1.016520 -0.047047 0.0
1.032176 -0.067850 0.0
1.053991 -0.089911 0.0
1.082891 -0.112526 0.0
1.119728 -0.134069 0.0
1.164610 -0.151635 0.0
1.216246 -0.161759 0.0
1.269486 -0.158344 0.0
1.317400 -0.143645 0.0
1.356453 -0.123031 0.0
1.386340 -0.100893 0.0
1.408282 -0.079992 0.0
1.423968 -0.061905 0.0
1.435172 -0.047440 0.0
1.443662 -0.036813 0.0
1.451160 -0.029707 0.0
1.459264 -0.025175 0.0
1.469191 -0.021501 0.0
1.481325 -0.016244 0.0
1.494691 -0.006802 0.0
1.506980 0.008497 0.0
1.515480 0.029502 0.0
1.518051 0.054739 0.0
1.513547 0.081988 0.0
1.501866 0.108931 0.0
1.483692 0.133619 0.0
1.460129 0.154627 0.0
1.432386 0.170999 0.0
1.401587 0.182118 0.0
1.368685 0.187605 0.0
1.334447 0.187258 0.0
1.299486 0.181057 0.0
1.264296 0.169209 0.0
1.229310 0.152208 0.0
1.194961 0.130895 0.0
1.161782 0.106462 0.0
1.130535 0.080332 0.0
1.102245 0.053834 0.0
1.077990 0.027757 0.0
1.058597 0.002339 0.0
1.044704 -0.022105 0.0
1.036765 -0.045078 0.0
1.034991 -0.065628 0.0
1.039558 -0.082447 0.0
1.050888 -0.094328 0.0
1.069840 -0.100198 0.0
1.097450 -0.098803 0.0
1.134226 -0.088731 0.0
1.179296 -0.069007 0.0
1.229547 -0.040041 0.0
1.278816 -0.004673 0.0
1.319951 0.031836 0.0
1.349570 0.064007 0.0
1.367653 0.089785 0.0
1.374651 0.108245 0.0
1.371356 0.119373 0.0
1.358964 0.123699 0.0
1.338951 0.121969 0.0
1.312872 0.115061 0.0
1.282269 0.104072 0.0
1.248698 0.090234 0.0
1.213665 0.074670 0.0
1.178554 0.058431 0.0
1.144596 0.042362 0.0
1.112532 0.026875 0.0
1.082689 0.012784 0.0
1.055875 0.001140 0.0
1.033210 -0.007396 0.0
1.015001 -0.012427 0.0
1.000559 -0.014001 0.0
0.988770 -0.012779 0.0
0.978605 -0.009964 0.0
0.969431 -0.007072 0.0
0.961227 -0.005548 0.0
0.954663 -0.006412 0.0
0.950952 -0.009985 0.0
0.951516 -0.015832 0.0
0.957636 -0.022989 0.0
0.970178 -0.030162 0.0
0.989428 -0.036043 0.0
1.015087 -0.039577 0.0
1.046338 -0.040112 0.0
1.081841 -0.037452 0.0
1.119695 -0.031783 0.0
1.157436 -0.023626 0.0
1.192204 -0.013775 0.0
1.221280 -0.003154 0.0
1.242836 0.007178 0.0
1.256424 0.016184 0.0
1.262598 0.023231 0.0
1.262190 0.027954 0.0
1.256105 0.030107 0.0
1.245398 0.029741 0.0
1.231325 0.027162 0.0
1.215197 0.022777 0.0
1.198254 0.017424 0.0
1.181888 0.012497 0.0
1.169426 0.012589 0.0
1.001078 -0.011447 0.0
1.005424 -0.034638 0.0
1.014384 -0.059133 0.0
1.028678 -0.085715 0.0
1.049590 -0.114773 0.0
1.078983 -0.145957 0.0
1.119091 -0.177583 0.0
1.171556 -0.205467 0.0
1.237000 -0.225008 0.0
1.304999 -0.216334 0.0
1.360716 -0.189287 0.0
1.400499 -0.156225 0.0
1.426755 -0.123843 0.0
1.442873 -0.095103 0.0
1.451743 -0.071350 0.0
1.455786 -0.053242 0.0
1.457203 -0.040917 0.0
1.458183 -0.034082 0.0
1.461032 -0.031753 0.0
1.467979 -0.031797 0.0
1.480459 -0.030562 0.0
1.498019 -0.023409 0.0
1.517427 -0.006593 0.0
1.533474 0.020044 0.0
1.541938 0.053162 0.0
1.541040 0.088967 0.0
1.530796 0.123878 0.0
1.512392 0.155250 0.0
1.487491 0.181461 0.0
1.457746 0.201653 0.0
1.424574 0.215436 0.0
1.389090 0.222675 0.0
1.352130 0.223386 0.0
1.314315 0.217706 0.0
1.276128 0.205936 0.0
1.238012 0.188583 0.0
1.200472 0.166409 0.0
1.164180 0.140418 0.0
1.130023 0.111780 0.0
1.099002 0.081698 0.0
1.071869 0.051282 0.0
1.048639 0.021438 0.0
1.028488 -0.007160 0.0
1.010538 -0.034135 0.0
0.994758 -0.059018 0.0
0.982265 -0.081130 0.0
0.975404 -0.100114 0.0
0.977454 -0.115413 0.0
0.991586 -0.125328 0.0
1.019741 -0.127136 0.0
1.062109 -0.118041 0.0
1.117078 -0.096226 0.0
1.181067 -0.061746 0.0
1.247007 -0.018166 0.0
1.304192 0.027206 0.0
1.346075 0.066619 0.0
1.372902 0.097586 0.0
1.386309 0.119920 0.0
1.387937 0.133916 0.0
1.379467 0.140235 0.0
1.362557 0.139784 0.0
1.338832 0.133677 0.0
1.309890 0.123141 0.0
1.277286 0.109400 0.0
1.242490 0.093608 0.0
1.206847 0.076786 0.0
1.171519 0.059843 0.0
1.137480 0.043698 0.0
1.105346 0.029174 0.0
1.075225 0.017356 0.0
1.046889 0.009364 0.0
1.019888 0.005651 0.0
0.993633 0.005614 0.0
0.967838 0.007603 0.0
0.943024 0.009350 0.0
0.920584 0.008673 0.0
0.902374 0.004142 0.0
0.890180 -0.004633 0.0
0.885470 -0.017037 0.0
0.889068 -0.031502 0.0
0.900928 -0.046051 0.0
0.920395 -0.058871 0.0
0.946571 -0.068585 0.0
0.978503 -0.074288 0.0
1.015207 -0.075483 0.0
1.055592 -0.071991 0.0
1.098356 -0.063922 0.0
1.141852 -0.051744 0.0
1.183975 -0.036385 0.0
1.222130 -0.019301 0.0
1.253526 -0.002321 0.0
1.276288 0.012800 0.0
1.290332 0.024750 0.0
1.296604 0.033124 0.0
1.296206 0.037828 0.0
1.290362 0.038992 0.0
1.280428 0.037008 0.0
1.267934 0.032630 0.0
1.254649 0.026941 0.0
1.243520 0.021736 0.0
1.000802 -0.013327 0.0
1.004066 -0.040369 0.0
1.010964 -0.069260 0.0
1.022483 -0.101400 0.0
1.040466 -0.137982 0.0
1.067938 -0.179613 0.0
1.109330 -0.225428 0.0
1.169623 -0.270379 0.0
1.256456 -0.312373 0.0
1.345009 -0.285520 0.0
1.402814 -0.233623 0.0
1.433342 -0.182200 0.0
1.446797 -0.137579 0.0
1.449841 -0.100529 0.0
1.446129 -0.071083 0.0
1.438060 -0.049484 0.0
1.427623 -0.035656 0.0
1.416875 -0.029575 0.0
1.408521 -0.030755 0.0
1.406112 -0.037333 0.0
1.413217 -0.044610 0.0
1.431492 -0.045195 0.0
1.458955 -0.031677 0.0
1.488143 -0.000107 0.0
1.509422 0.043570 0.0
1.518139 0.090740 0.0
1.514664 0.135824 0.0
1.500984 0.175387 0.0
1.479412 0.207796 0.0
1.451966 0.232507 0.0
1.420214 0.249505 0.0
1.385321 0.258982 0.0
1.348162 0.261198 0.0
1.309411 0.256459 0.0
1.269642 0.245138 0.0
1.229416 0.227723 0.0
1.189381 0.204845 0.0
1.150355 0.177300 0.0
1.113324 0.146086 0.0
1.079187 0.112550 0.0
1.048162 0.078588 0.0
1.019083 0.046441 0.0
0.989341 0.017730 0.0
0.956058 -0.007791 0.0
0.919016 -0.032539 0.0
0.882856 -0.058955 0.0
0.855031 -0.087605 0.0
0.841987 -0.116928 0.0
0.846907 -0.142865 0.0
0.869767 -0.160614 0.0
0.908927 -0.166092 0.0
0.962307 -0.156524 0.0
1.027570 -0.130702 0.0
1.101715 -0.089295 0.0
1.179293 -0.036427 0.0
1.249207 0.018454 0.0
1.302250 0.065880 0.0
1.337843 0.102627 0.0
1.358302 0.129122 0.0
1.365696 0.146105 0.0
1.361957 0.154563 0.0
1.348912 0.155668 0.0
1.328303 0.150700 0.0
1.301783 0.140965 0.0
1.270897 0.127725 0.0
1.237053 0.112157 0.0
1.201465 0.095387 0.0
1.165076 0.078582 0.0
1.128424 0.063076 0.0
1.091582 0.050418 0.0
1.054262 0.041957 0.0
1.016160 0.038161 0.0
0.977506 0.038013 0.0
0.939515 0.038991 0.0
0.904383 0.037909 0.0
0.874788 0.032149 0.0
0.853122 0.020542 0.0
0.840836 0.003447 0.0
0.838143 -0.017714 0.0
0.844295 -0.040574 0.0
0.858096 -0.062639 0.0
0.878309 -0.081964 0.0
0.903882 -0.097241 0.0
0.933986 -0.107668 0.0
0.967956 -0.112778 0.0
1.005196 -0.112321 0.0
1.045064 -0.106224 0.0
1.086767 -0.094641 0.0
1.129233 -0.078076 0.0
1.171005 -0.057535 0.0
1.210176 -0.034654 0.0
1.244320 -0.011773 0.0
1.270966 0.008633 0.0
1.289126 0.024810 0.0
1.299426 0.036238 0.0
1.302940 0.042912 0.0
1.300900 0.045062 0.0
1.294752 0.043218 0.0
1.286174 0.038214 0.0
1.277651 0.030116 0.0
1.000403 -0.014532 0.0
1.002057 -0.044082 0.0
1.005708 -0.076096 0.0
1.012349 -0.112724 0.0
1.024053 -0.156346 0.0
1.044770 -0.209437 0.0
1.081630 -0.273856 0.0
1.145743 -0.346357 0.0
1.263245 -0.440731 0.0
1.372321 -0.354791 0.0
1.408908 -0.258744 0.0
1.408446 -0.187144 0.0
1.395296 -0.132938 0.0
1.377249 -0.090166 0.0
1.356079 -0.056563 0.0
1.332502 -0.032358 0.0
1.307067 -0.016911 0.0
1.280242 -0.010748 0.0
1.253694 -0.014680 0.0
1.231818 -0.029124 0.0
1.221614 -0.049719 0.0
1.229155 -0.065904 0.0
1.257101 -0.066378 0.0
1.302326 -0.039820 0.0
1.349667 0.014662 0.0
1.383012 0.077587 0.0
1.399657 0.135808 0.0
1.403209 0.185532 0.0
1.396772 0.225660 0.0
1.382539 0.256321 0.0
1.361981 0.278002 0.0
1.336148 0.291210 0.0
1.305890 0.296388 0.0
1.271968 0.293941 0.0
1.235122 0.284272 0.0
1.196112 0.267826 0.0
1.155769 0.245120 0.0
1.115022 0.216798 0.0
1.074775 0.183866 0.0
1.035390 0.148292 0.0
0.995654 0.113607 0.0
0.952147 0.084008 0.0
0.901093 0.060958 0.0
0.843001 0.040356 0.0
0.784938 0.014418 0.0
0.737559 -0.022373 0.0
0.709951 -0.068754 0.0
0.704482 -0.117265 0.0
0.717502 -0.160467 0.0
0.744695 -0.193065 0.0
0.783455 -0.211560 0.0
0.832633 -0.213613 0.0
0.891620 -0.197863 0.0
0.959535 -0.164193 0.0
1.034647 -0.114219 0.0
1.113356 -0.052376 0.0
1.186236 0.010787 0.0
1.243541 0.064822 0.0
1.283542 0.106467 0.0
1.308314 0.136595 0.0
1.319810 0.156318 0.0
1.319874 0.166893 0.0
1.310273 0.169685 0.0
1.292679 0.166094 0.0
1.268655 0.157506 0.0
1.239605 0.145271 0.0
1.206707 0.130758 0.0
1.170825 0.115483 0.0
1.132427 0.101225 0.0
1.091650 0.089889 0.0
1.048580 0.082875 0.0
1.003763 0.080162 0.0
0.958686 0.079743 0.0
0.915878 0.078060 0.0
0.878433 0.071415 0.0
0.849153 0.057518 0.0
0.829789 0.036204 0.0
0.820745 0.009115 0.0
0.821226 -0.021170 0.0
0.829688 -0.051732 0.0
0.844481 -0.080076 0.0
0.864245 -0.104503 0.0
0.887963 -0.123993 0.0
0.914929 -0.137985 0.0
0.944671 -0.146173 0.0
0.976875 -0.148368 0.0
1.011278 -0.144449 0.0
1.047566 -0.134407 0.0
1.085256 -0.118466 0.0
1.123596 -0.097258 0.0
1.161479 -0.071986 0.0
1.197397 -0.044503 0.0
1.229418 -0.017303 0.0
1.255285 0.006720 0.0
1.273746 0.025567 0.0
1.285115 0.038700 0.0
1.290291 0.046137 0.0
1.290424 0.048158 0.0
1.286909 0.045367 0.0
1.281616 0.036780 0.0
0.999879 -0.014814 0.0
0.999387 -0.044963 0.0
0.998535 -0.078014 0.0
0.997883 -0.116796 0.0
0.998912 -0.165007 0.0
1.005187 -0.227767 0.0
1.025077 -0.312276 0.0
1.077257 -0.424231 0.0
1.223417 -0.626519 0.0
1.327473 -0.382133 0.0
1.289306 -0.229823 0.0
1.227945 -0.154242 0.0
1.178086 -0.102831 0.0
1.137354 -0.061495 0.0
1.100460 -0.027170 0.0
1.061285 0.001001 0.0
1.016870 0.019580 0.0
0.969434 0.027022 0.0
0.922032 0.021501 0.0
0.877853 0.000749 0.0
0.843881 -0.035415 0.0
0.834165 -0.078032 0.0
0.859694 -0.107725 0.0
0.919428 -0.103432 0.0
1.003086 -0.052724 0.0
1.085775 0.028939 0.0
1.146834 0.106751 0.0
1.187544 0.170327 0.0
1.213693 0.221153 0.0
1.228010 0.260744 0.0
1.231938 0.290210 0.0
1.226493 0.310279 0.0
1.212626 0.321445 0.0
1.191322 0.324111 0.0
1.163598 0.318673 0.0
1.130464 0.305569 0.0
1.092829 0.285354 0.0
1.051198 0.258942 0.0
1.004897 0.228270 0.0
0.951144 0.197028 0.0
0.885940 0.169811 0.0
0.808828 0.148424 0.0
0.728179 0.128244 0.0
0.659366 0.099975 0.0
0.615560 0.056668 0.0
0.599957 -0.001640 0.0
0.605650 -0.067571 0.0
0.623420 -0.130750 0.0
0.648001 -0.184583 0.0
0.677613 -0.225755 0.0
0.712319 -0.252336 0.0
0.753052 -0.262747 0.0
0.800925 -0.255591 0.0
0.856634 -0.230089 0.0
0.919982 -0.186782 0.0
0.989621 -0.128160 0.0
1.062571 -0.059260 0.0
1.130856 0.009278 0.0
1.185790 0.067076 0.0
1.225311 0.111693 0.0
1.250804 0.144231 0.0
1.263768 0.165952 0.0
1.265737 0.178259 0.0
1.258223 0.182626 0.0
1.242665 0.180555 0.0
1.220363 0.173575 0.0
1.192398 0.163317 0.0
1.159561 0.151644 0.0
1.122357 0.140664 0.0
1.081201 0.132383 0.0
1.036815 0.127837 0.0
0.990706 0.126127 0.0
0.945384 0.124179 0.0
0.904049 0.117767 0.0
0.869807 0.103395 0.0
0.844819 0.079806 0.0
0.829883 0.048217 0.0
0.824564 0.011464 0.0
0.827605 -0.027041 0.0
0.837363 -0.064081 0.0
0.852228 -0.097386 0.0
0.870862 -0.125591 0.0
0.892248 -0.148010 0.0
0.915693 -0.164378 0.0
0.940798 -0.174628 0.0
0.967407 -0.178726 0.0
0.995514 -0.176601 0.0
1.025141 -0.168169 0.0
1.056211 -0.153464 0.0
1.088435 -0.132824 0.0
1.121223 -0.107090 0.0
1.153642 -0.077736 0.0
1.184422 -0.046871 0.0
1.211974 -0.017132 0.0
1.234432 0.008501 0.0
1.250731 0.028099 0.0
1.261070 0.041223 0.0
1.266150 0.047860 0.0
1.266956 0.048375 0.0
1.264726 0.041295 0.0
0.999283 -0.013975 0.0
0.996329 -0.042355 0.0
0.990170 -0.073610 0.0
0.980433 -0.110812 0.0
0.966814 -0.158401 0.0
0.949742 -0.223575 0.0
0.932688 -0.319304 0.0
0.930750 -0.467444 0.0
1.027988 -0.826704 0.0
1.033842 -0.188697 0.0
0.860148 -0.098198 0.0
0.728149 -0.082465 0.0
0.658801 -0.055402 0.0
0.609034 -0.018425 0.0
0.553120 0.022569 0.0
0.487687 0.055871 0.0
0.420754 0.076058 0.0
0.359003 0.079731 0.0
0.311223 0.063974 0.0
0.287462 0.026217 0.0
0.295328 -0.034777 0.0
0.334841 -0.108467 0.0
0.401137 -0.169115 0.0
0.488988 -0.189627 0.0
0.593601 -0.154800 0.0
0.710541 -0.068614 0.0
0.820080 0.033707 0.0
0.904606 0.118135 0.0
0.968100 0.183701 0.0
1.015907 0.236072 0.0
1.049482 0.277380 0.0
1.069587 0.308450 0.0
1.077066 0.329661 0.0
1.072946 0.341318 0.0
1.058330 0.343806 0.0
1.034207 0.337693 0.0
1.001100 0.323972 0.0
0.958426 0.304628 0.0
0.904070 0.283240 0.0
0.835868 0.264014 0.0
0.756064 0.247834 0.0
0.675095 0.228481 0.0
0.608524 0.195407 0.0
0.568032 0.142117 0.0
0.555360 0.071004 0.0
0.563984 -0.008996 0.0
0.584538 -0.086462 0.0
0.609812 -0.154904 0.0
0.636353 -0.211550 0.0
0.663181 -0.255227 0.0
0.690836 -0.285225 0.0
0.720864 -0.300618 0.0
0.755331 -0.300061 0.0
0.796171 -0.282168 0.0
0.844492 -0.246372 0.0
0.900129 -0.193846 0.0
0.961582 -0.127975 0.0
1.025858 -0.054568 0.0
1.085890 0.015956 0.0
1.134608 0.074574 0.0
1.170341 0.120124 0.0
1.193794 0.153642 0.0
1.205971 0.176423 0.0
1.208019 0.189928 0.0
1.201106 0.195725 0.0
1.186319 0.195494 0.0
1.164583 0.191099 0.0
1.136621 0.184660 0.0
1.103054 0.178418 0.0
1.064680 0.174160 0.0
1.022892 0.172235 0.0
0.979969 0.170760 0.0
0.938969 0.165867 0.0
0.903112 0.153270 0.0
0.874944 0.130302 0.0
0.855785 0.097047 0.0
0.845713 0.055984 0.0
0.843951 0.010777 0.0
0.849217 -0.034661 0.0
0.859991 -0.076993 0.0
0.874780 -0.114127 0.0
0.892267 -0.144971 0.0
0.911399 -0.169148 0.0
0.931433 -0.186719 0.0
0.951972 -0.197931 0.0
0.972946 -0.203005 0.0
0.994533 -0.202016 0.0
1.017038 -0.194886 0.0
1.040731 -0.181510 0.0
1.065703 -0.161973 0.0
1.091762 -0.136788 0.0
1.118385 -0.107081 0.0
1.144726 -0.074646 0.0
1.169664 -0.041847 0.0
1.191847 -0.011425 0.0
1.209805 0.013769 0.0
1.222780 0.032239 0.0
1.230935 0.043608 0.0
1.234784 0.047971 0.0
1.234993 0.043721 0.0
0.998723 -0.011982 0.0
0.993450 -0.036122 0.0
0.982229 -0.062463 0.0
0.963567 -0.093561 0.0
0.934709 -0.133175 0.0
0.890590 -0.187609 0.0
0.821280 -0.268907 0.0
0.707550 -0.402174 0.0
0.318216 -0.703040 0.0
-0.473399 0.243362 0.0
-0.473399 0.000000 0.0
-0.028236 -0.019311 0.0
-0.048772 -0.037597 0.0
-0.024307 -0.010928 0.0
0.013359 0.033321 0.0
0.037696 0.086216 0.0
0.031838 0.118504 0.0
0.009716 0.121158 0.0
-0.012379 0.092422 0.0
-0.022631 0.031782 0.0
-0.013494 -0.057346 0.0
0.018359 -0.157265 0.0
0.073642 -0.241896 0.0
0.152080 -0.283135 0.0
0.250536 -0.264361 0.0
0.364867 -0.190325 0.0
0.492252 -0.081506 0.0
0.614153 0.026920 0.0
0.712254 0.113322 0.0
0.789114 0.181784 0.0
0.848937 0.238269 0.0
0.892469 0.283925 0.0
0.920275 0.318901 0.0
0.933134 0.343339 0.0
0.931860 0.357676 0.0
0.916952 0.362853 0.0
0.888162 0.360709 0.0
0.844401 0.354327 0.0
0.785175 0.347122 0.0
0.714132 0.339376 0.0
0.641873 0.324536 0.0
0.583178 0.291442 0.0
0.549113 0.233083 0.0
0.541516 0.152529 0.0
0.554669 0.060111 0.0
0.579843 -0.031901 0.0
0.609343 -0.113612 0.0
0.638612 -0.182297 0.0
0.665458 -0.237543 0.0
0.689091 -0.279695 0.0
0.709905 -0.309226 0.0
0.729430 -0.326169 0.0
0.750155 -0.329703 0.0
0.775012 -0.318224 0.0
0.806515 -0.290139 0.0
0.845902 -0.245104 0.0
0.892752 -0.185019 0.0
0.945131 -0.114179 0.0
0.999678 -0.039012 0.0
1.050062 0.030438 0.0
1.090941 0.087648 0.0
1.121179 0.132428 0.0
1.140957 0.165682 0.0
1.150871 0.188707 0.0
1.151684 0.203046 0.0
1.144182 0.210463 0.0
1.129079 0.212970 0.0
1.107038 0.212793 0.0
1.078829 0.212061 0.0
1.045649 0.212070 0.0
1.009433 0.212329 0.0
0.972910 0.210113 0.0
0.939197 0.201227 0.0
0.911068 0.181896 0.0
0.890303 0.150608 0.0
0.877509 0.108694 0.0
0.872389 0.059529 0.0
0.874139 0.007244 0.0
0.881626 -0.043881 0.0
0.893482 -0.090403 0.0
0.908296 -0.130319 0.0
0.924763 -0.162733 0.0
0.941794 -0.187547 0.0
0.958600 -0.205161 0.0
0.974760 -0.216189 0.0
0.990235 -0.221197 0.0
1.005332 -0.220509 0.0
1.020582 -0.214149 0.0
1.036572 -0.201931 0.0
1.053754 -0.183706 0.0
1.072300 -0.159660 0.0
1.092034 -0.130566 0.0
1.112434 -0.097901 0.0
1.132691 -0.063786 0.0
1.151794 -0.030771 0.0
1.168540 -0.001590 0.0
1.181837 0.021325 0.0
1.191206 0.036998 0.0
1.196723 0.045214 0.0
1.198591 0.044402 0.0
0.998323 -0.009028 0.0
0.991407 -0.026887 0.0
0.976656 -0.045726 0.0
0.951925 -0.066905 0.0
0.913084 -0.092132 0.0
0.852131 -0.123581 0.0
0.752254 -0.163749 0.0
0.573726 -0.215074 0.0
0.228872 -0.255034 0.0
0.000000 0.243362 0.0
-0.000000 -0.000000 0.0
0.000000 0.000000 0.0
-0.022952 -0.022649 0.0
-0.053531 -0.020066 0.0
-0.068899 0.020160 0.0
-0.089928 0.096069 0.0
-0.121567 0.146146 0.0
-0.158564 0.152635 0.0
-0.190741 0.115217 0.0
-0.208119 0.036617 0.0
-0.204222 -0.075215 0.0
-0.179699 -0.195772 0.0
-0.139213 -0.299158 0.0
-0.081550 -0.361973 0.0
0.000178 -0.365705 0.0
0.103695 -0.306829 0.0
0.222445 -0.211136 0.0
0.353035 -0.095942 0.0
0.477453 0.013664 0.0
0.578460 0.103575 0.0
0.657523 0.177592 0.0
0.718471 0.240122 0.0
0.761931 0.291437 0.0
0.788270 0.331605 0.0
0.797713 0.361242 0.0
0.790139 0.381769 0.0
0.765199 0.395522 0.0
0.723514 0.404960 0.0
0.669248 0.409981 0.0
0.612214 0.404594 0.0
0.565930 0.377861 0.0
0.541184 0.321557 0.0
0.540719 0.237499 0.0
0.560004 0.136424 0.0
0.591754 0.031313 0.0
0.628221 -0.064744 0.0
0.663737 -0.145785 0.0
0.695703 -0.211361 0.0
0.722628 -0.262250 0.0
0.743776 -0.299770 0.0
0.759221 -0.325411 0.0
0.770039 -0.340327 0.0
0.778495 -0.344726 0.0
0.787914 -0.337478 0.0
0.801980 -0.316454 0.0
0.823591 -0.279788 0.0
0.853865 -0.227458 0.0
0.891899 -0.162153 0.0
0.935255 -0.088941 0.0
0.980023 -0.014785 0.0
1.020763 0.051251 0.0
1.053727 0.105623 0.0
1.078015 0.148421 0.0
1.093519 0.180551 0.0
1.100505 0.203402 0.0
1.099397 0.218718 0.0
1.090683 0.228531 0.0
1.074975 0.234981 0.0
1.053208 0.239849 0.0
1.026910 0.243760 0.0
0.998353 0.245411 0.0
0.970355 0.241552 0.0
0.945700 0.228155 0.0
0.926474 0.202323 0.0
0.913711 0.163708 0.0
0.907533 0.114566 0.0
0.907538 0.058773 0.0
0.913046 0.000740 0.0
0.923014 -0.054833 0.0
0.936104 -0.104397 0.0
0.950963 -0.145998 0.0
0.966342 -0.178900 0.0
0.981186 -0.203255 0.0
0.994722 -0.219795 0.0
1.006527 -0.229520 0.0
1.016581 -0.233395 0.0
1.025262 -0.232088 0.0
1.033267 -0.225825 0.0
1.041448 -0.214425 0.0
1.050594 -0.197540 0.0
1.061238 -0.175017 0.0
1.073538 -0.147243 0.0
1.087259 -0.115345 0.0
1.101834 -0.081175 0.0
1.116462 -0.047113 0.0
1.130206 -0.015738 0.0
1.142009 0.010372 0.0
1.151060 0.029531 0.0
1.157052 0.041171 0.0
1.159838 0.043791 0.0
0.998161 -0.005512 0.0
0.990614 -0.015940 0.0
0.974642 -0.025949 0.0
0.948232 -0.035541 0.0
0.907819 -0.044240 0.0
0.847496 -0.050196 0.0
0.758461 -0.048221 0.0
0.629776 -0.023388 0.0
0.466964 0.065026 0.0
0.189928 0.171302 0.0
0.000000 0.000000 0.0
-0.000000 -0.000000 0.0
0.000000 0.000000 0.0
-0.006926 -0.006219 0.0
-0.035221 0.049268 0.0
-0.090780 0.143551 0.0
-0.154694 0.194217 0.0
-0.207549 0.194416 0.0
-0.244508 0.142571 0.0
-0.258920 0.041054 0.0
-0.248224 -0.094245 0.0
-0.221253 -0.228236 0.0
-0.189104 -0.339329 0.0
-0.154356 -0.414213 0.0
-0.109697 -0.439851 0.0
-0.040585 -0.405313 0.0
0.053740 -0.325727 0.0
0.164222 -0.222422 0.0
0.284417 -0.104469 0.0
0.397574 0.007545 0.0
0.489852 0.102281 0.0
0.561465 0.182872 0.0
0.614842 0.251850 0.0
0.650145 0.309550 0.0
0.667218 0.356781 0.0
0.666044 0.394978 0.0
0.647724 0.425574 0.0
0.616229 0.448088 0.0
0.579913 0.457434 0.0
0.550413 0.443676 0.0
0.537924 0.397553 0.0
0.546320 0.318215 0.0
0.572824 0.214803 0.0
0.611701 0.100958 0.0
0.656214 -0.009485 0.0
0.699910 -0.104109 0.0
0.739095 -0.181121 0.0
0.772251 -0.241147 0.0
0.798446 -0.285582 0.0
0.817172 -0.316313 0.0
0.828366 -0.335508 0.0
0.832592 -0.345274 0.0
0.831405 -0.347047 0.0
0.827675 -0.340846 0.0
0.825442 -0.324919 0.0
0.828963 -0.296455 0.0
0.841276 -0.253378 0.0
0.863144 -0.196136 0.0
0.893058 -0.128229 0.0
0.928070 -0.055276 0.0
0.963791 0.015280 0.0
0.995768 0.076653 0.0
1.021575 0.127296 0.0
1.040314 0.167433 0.0
1.051711 0.198135 0.0
1.055815 0.220989 0.0
1.052907 0.237882 0.0
1.043576 0.250669 0.0
1.028903 0.260601 0.0
1.010636 0.267574 0.0
0.991136 0.269654 0.0
0.972994 0.263451 0.0