# vtk DataFile Version 3.0
Vector Field
ASCII
DATASET RECTILINEAR_GRID
DIMENSIONS 100 26 1
X_COORDINATES 100 double
0.050000 0.150000 0.250000 0.350000 0.450000 0.550000 0.650000 0.750000 0.850000 0.950000 1.050000 1.150000 1.250000 1.350000 1.450000 1.550000 1.650000 1.750000 1.850000 1.950000 2.050000 2.150000 2.250000 2.350000 2.450000 2.550000 2.650000 2.750000 2.850000 2.950000 3.050000 3.150000 3.250000 3.350000 3.450000 3.550000 3.650000 3.750000 3.850000 3.950000 4.050000 4.150000 4.250000 4.350000 4.450000 4.550000 4.650000 4.750000 4.850000 4.950000 5.050000 5.150000 5.250000 5.350000 5.450000 5.550000 5.650000 5.750000 5.850000 5.950000 6.050000 6.150000 6.250000 6.350000 6.450000 6.550000 6.650000 6.750000 6.850000 6.950000 7.050000 7.150000 7.250000 7.350000 7.450000 7.550000 7.650000 7.750000 7.850000 7.950000 8.050000 8.150000 8.250000 8.350000 8.450000 8.550000 8.650000 8.750000 8.850000 8.950000 9.050000 9.150000 9.250000 9.350000 9.450000 9.550000 9.650000 9.750000 9.850000 9.950000 
Y_COORDINATES 26 double
0.050000 0.150000 0.250000 0.350000 0.450000 0.550000 0.650000 0.750000 0.850000 0.950000 1.050000 1.150000 1.250000 1.350000 1.450000 1.550000 1.650000 1.750000 1.850000 1.950000 2.050000 2.150000 2.250000 2.350000 2.450000 2.550000 
Z_COORDINATES 1 double
0.0
POINT_DATA 2600
VECTORS Vektorfeld double
0.997729 0.002271 0.0
0.993169 0.002289 0.0
0.990093 0.000786 0.0
0.990637 -0.001330 0.0
0.995615 -0.003647 0.0
1.005153 -0.005891 0.0
1.018847 -0.007803 0.0
1.035773 -0.009123 0.0
1.054524 -0.009629 0.0
1.073354 -0.009201 0.0
1.090442 -0.007886 0.0
1.104213 -0.005885 0.0
1.113580 -0.003482 0.0
1.118045 -0.000983 0.0
1.117763 0.001265 0.0
1.113280 0.003217 0.0
1.105287 0.004776 0.0
1.094634 0.005876 0.0
1.082258 0.006501 0.0
1.069072 0.006685 0.0
1.055877 0.006510 0.0
1.043254 0.006113 0.0
1.031460 0.005681 0.0
1.020334 0.005445 0.0
1.009245 0.005644 0.0
0.997132 0.006469 0.0
0.982653 0.008010 0.0
0.964419 0.010224 0.0
0.941240 0.012955 0.0
0.912314 0.015971 0.0
0.877329 0.019014 0.0
0.836482 0.021832 0.0
0.790449 0.024201 0.0
0.740313 0.025934 0.0
0.687497 0.026882 0.0
0.633687 0.026928 0.0
0.580765 0.025994 0.0
0.530728 0.024042 0.0
0.485637 0.021049 0.0
0.447735 0.016853 0.0
0.419879 0.011003 0.0
0.405499 0.003377 0.0
0.405634 -0.003511 0.0
0.416671 -0.007527 0.0
0.433621 -0.009423 0.0
0.453026 -0.009981 0.0
0.472729 -0.009722 0.0
0.491380 -0.008929 0.0
0.508047 -0.007739 0.0
0.522011 -0.006225 0.0
0.532722 -0.004486 0.0
0.539889 -0.002680 0.0
0.543529 -0.000960 0.0
0.543435 0.001054 0.0
0.538500 0.003881 0.0
0.527354 0.007264 0.0
0.509210 0.010880 0.0
0.484027 0.014303 0.0
0.452794 0.016930 0.0
0.417844 0.018020 0.0
0.382761 0.017063 0.0
0.351425 0.014273 0.0
0.326499 0.010653 0.0
0.308509 0.007337 0.0
0.296316 0.004856 0.0
0.288410 0.003050 0.0
0.283821 0.001539 0.0
0.282081 0.000202 0.0
0.282678 -0.000799 0.0
0.284985 -0.001508 0.0
0.288374 -0.001882 0.0
0.292287 -0.002031 0.0
0.296331 -0.002013 0.0
0.300218 -0.001874 0.0
0.303753 -0.001662 0.0
0.306864 -0.001449 0.0
0.309621 -0.001308 0.0
0.312195 -0.001266 0.0
0.314729 -0.001268 0.0
0.317228 -0.001231 0.0
0.319570 -0.001111 0.0
0.321609 -0.000928 0.0
0.323283 -0.000746 0.0
0.324660 -0.000630 0.0
0.325873 -0.000582 0.0
0.327049 -0.000594 0.0
0.328293 -0.000650 0.0
0.329674 -0.000731 0.0
0.331219 -0.000814 0.0
0.332925 -0.000891 0.0
0.334777 -0.000961 0.0
0.336785 -0.001048 0.0
0.339053 -0.001220 0.0
0.341691 -0.001418 0.0
0.344650 -0.001541 0.0
0.347731 -0.001541 0.0
0.350689 -0.001417 0.0
0.353290 -0.001183 0.0
0.355322 -0.000849 0.0
0.356724 -0.000554 0.0
1.003025 0.001517 0.0
1.011763 -0.001135 0.0
1.025306 -0.006257 0.0
1.042994 -0.012519 0.0
1.064710 -0.019152 0.0
1.090293 -0.025508 0.0
1.119310 -0.030897 0.0
1.150932 -0.034576 0.0
1.183878 -0.035873 0.0
1.216486 -0.034395 0.0
1.247001 -0.030295 0.0
1.273955 -0.024202 0.0
1.296395 -0.016973 0.0
1.313904 -0.009465 0.0
1.326382 -0.002449 0.0
1.334144 0.003652 0.0
1.337960 0.008519 0.0
1.338778 0.011967 0.0
1.337613 0.013952 0.0
1.335464 0.014569 0.0
1.333220 0.014065 0.0
1.331548 0.012853 0.0
1.330772 0.011511 0.0
1.330759 0.010754 0.0
1.330852 0.011331 0.0
1.329896 0.013851 0.0
1.326403 0.018600 0.0
1.318825 0.025445 0.0
1.305849 0.033889 0.0
1.286598 0.043215 0.0
1.260727 0.052629 0.0
1.228422 0.061369 0.0
1.190353 0.068766 0.0
1.147593 0.074265 0.0
1.101541 0.077420 0.0
1.053855 0.077886 0.0
1.006393 0.075420 0.0
0.961168 0.069878 0.0
0.920302 0.061170 0.0
0.885806 0.049130 0.0
0.858721 0.033666 0.0
0.837919 0.015895 0.0
0.822283 -0.000527 0.0
0.813281 -0.012546 0.0
0.812033 -0.020106 0.0
0.817753 -0.024424 0.0
0.829329 -0.026558 0.0
0.845772 -0.027187 0.0
0.866250 -0.026626 0.0
0.889876 -0.024927 0.0
0.915390 -0.022010 0.0
0.940822 -0.017755 0.0
0.963294 -0.011997 0.0
0.979891 -0.004412 0.0
0.989197 0.004977 0.0
0.990813 0.015698 0.0
0.984472 0.026932 0.0
0.970419 0.037488 0.0
0.949466 0.045932 0.0
0.922690 0.050745 0.0
0.891094 0.051017 0.0
0.855577 0.047172 0.0
0.817385 0.040871 0.0
0.778620 0.033873 0.0
0.742188 0.026945 0.0
0.711187 0.019869 0.0
0.688148 0.012348 0.0
0.674466 0.004816 0.0
0.669955 -0.001500 0.0
0.672452 -0.005610 0.0
0.679228 -0.007945 0.0
0.688652 -0.009305 0.0
0.699764 -0.009895 0.0
0.711728 -0.009842 0.0
0.723766 -0.009268 0.0
0.735157 -0.008345 0.0
0.745250 -0.007262 0.0
0.753511 -0.006147 0.0
0.759603 -0.005013 0.0
0.763443 -0.003825 0.0
0.765191 -0.002607 0.0
0.765190 -0.001470 0.0
0.763847 -0.000536 0.0
0.761440 0.000190 0.0
0.758116 0.000709 0.0
0.754034 0.001022 0.0
0.749377 0.001147 0.0
0.744348 0.001120 0.0
0.739176 0.000962 0.0
0.734156 0.000648 0.0
0.729732 0.000072 0.0
0.726557 -0.000914 0.0
0.725114 -0.002178 0.0
0.725384 -0.003368 0.0
0.727064 -0.004229 0.0
0.729809 -0.004679 0.0
0.733331 -0.004760 0.0
0.737412 -0.004522 0.0
0.741801 -0.003931 0.0
0.744712 -0.001786 0.0
1.001937 -0.003444 0.0
1.008857 -0.011833 0.0
1.021438 -0.021683 0.0
1.039118 -0.032460 0.0
1.061732 -0.043540 0.0
1.089155 -0.054125 0.0
1.121024 -0.063168 0.0
1.156491 -0.069395 0.0
1.194036 -0.071543 0.0
1.231423 -0.068721 0.0
1.266189 -0.061249 0.0
1.296405 -0.050417 0.0
1.321026 -0.037819 0.0
1.339799 -0.024901 0.0
1.353067 -0.012760 0.0
1.361528 -0.002259 0.0
1.366072 0.006071 0.0
1.367722 0.011946 0.0
1.367569 0.015290 0.0
1.366711 0.016239 0.0
1.366180 0.015170 0.0
1.366870 0.012730 0.0
1.369418 0.009863 0.0
1.374034 0.007799 0.0
1.380329 0.007898 0.0
1.387226 0.011341 0.0
1.393108 0.018721 0.0
1.396193 0.029817 0.0
1.394936 0.043749 0.0
1.388271 0.059270 0.0
1.375681 0.075035 0.0
1.357162 0.089786 0.0
1.333136 0.102444 0.0
1.304352 0.112132 0.0
1.271804 0.118153 0.0
1.236666 0.119976 0.0
1.200237 0.117222 0.0
1.163862 0.109676 0.0
1.128804 0.097297 0.0
1.095962 0.080340 0.0
1.065658 0.059845 0.0
1.037961 0.038215 0.0
1.012922 0.017829 0.0
0.990962 0.000060 0.0
0.973649 -0.014150 0.0
0.962428 -0.024878 0.0
0.957698 -0.032949 0.0
0.959509 -0.039050 0.0
0.967724 -0.043456 0.0
0.982009 -0.046008 0.0
1.001789 -0.046224 0.0
1.026246 -0.043429 0.0
1.054318 -0.036867 0.0
1.084380 -0.026201 0.0
1.113717 -0.011877 0.0
1.139325 0.005326 0.0
1.159130 0.023840 0.0
1.172019 0.041742 0.0
1.177360 0.057290 0.0
1.174716 0.068807 0.0
1.163906 0.075361 0.0
1.145206 0.077045 0.0
1.119682 0.074714 0.0
1.089229 0.069249 0.0
1.056151 0.061078 0.0
1.022479 0.050408 0.0
0.989455 0.037872 0.0
0.957641 0.024787 0.0
0.928055 0.012624 0.0
0.903589 0.002236 0.0
0.887397 -0.006376 0.0
0.879813 -0.012714 0.0
0.879003 -0.016788 0.0
0.883198 -0.019108 0.0
0.891138 -0.019979 0.0
0.901766 -0.019652 0.0
0.914074 -0.018356 0.0
0.927066 -0.016306 0.0
0.939820 -0.013700 0.0
0.951589 -0.010747 0.0
0.961856 -0.007701 0.0
0.970318 -0.004836 0.0
0.976858 -0.002367 0.0
0.981661 -0.000375 0.0
0.985170 0.001088 0.0
0.987848 0.002047 0.0
0.990031 0.002595 0.0
0.991890 0.002840 0.0
0.993452 0.002852 0.0
0.994597 0.002633 0.0
0.994992 0.002115 0.0
0.993956 0.001254 0.0
0.990754 0.000299 0.0
0.985112 -0.000472 0.0
0.977289 -0.000982 0.0
0.967962 -0.001345 0.0
0.958150 -0.001804 0.0
0.949154 -0.002563 0.0
0.942409 -0.003534 0.0
0.938953 -0.001638 0.0
1.001561 -0.006942 0.0
1.007600 -0.021294 0.0
1.019339 -0.036541 0.0
1.036673 -0.052616 0.0
1.059753 -0.069080 0.0
1.088801 -0.085057 0.0
1.123807 -0.099112 0.0
1.164100 -0.109211 0.0
1.207938 -0.113109 0.0
1.251973 -0.108579 0.0
1.292203 -0.096387 0.0
1.325885 -0.079179 0.0
1.351964 -0.059757 0.0
1.370572 -0.040344 0.0
1.382494 -0.022508 0.0
1.388834 -0.007311 0.0
1.390825 0.004589 0.0
1.389766 0.012838 0.0
1.386985 0.017332 0.0
1.383817 0.018224 0.0
1.381569 0.015963 0.0
1.381467 0.011348 0.0
1.384544 0.005621 0.0
1.391353 0.000616 0.0
1.401544 -0.001406 0.0
1.413678 0.001614 0.0
1.425502 0.010743 0.0
1.434600 0.025613 0.0
1.439066 0.044744 0.0
1.437822 0.066185 0.0
1.430565 0.087968 0.0
1.417565 0.108371 0.0
1.399440 0.126010 0.0
1.376965 0.139825 0.0
1.350962 0.149012 0.0
1.322238 0.152979 0.0
1.291561 0.151326 0.0
1.259628 0.143880 0.0
1.227004 0.130776 0.0
1.194068 0.112639 0.0
1.161084 0.090834 0.0
1.128525 0.067481 0.0
1.097362 0.044765 0.0
1.068682 0.023764 0.0
1.043342 0.004799 0.0
1.022596 -0.011861 0.0
1.007694 -0.026334 0.0
0.999182 -0.038965 0.0
0.997221 -0.049794 0.0
1.001726 -0.058460 0.0
1.012531 -0.064357 0.0
1.029570 -0.066793 0.0
1.052988 -0.064993 0.0
1.082959 -0.058108 0.0
1.119133 -0.045481 0.0
1.159714 -0.027258 0.0
1.200875 -0.004540 0.0
1.237720 0.020388 0.0
1.266841 0.044182 0.0
1.286870 0.064530 0.0
1.297150 0.080168 0.0
1.297563 0.090524 0.0
1.288714 0.095609 0.0
1.271843 0.095678 0.0
1.248516 0.091054 0.0
1.220318 0.082303 0.0
1.188828 0.070491 0.0
1.155823 0.056986 0.0
1.123106 0.042728 0.0
1.091681 0.028024 0.0
1.061935 0.013774 0.0
1.035483 0.001171 0.0
1.014930 -0.009310 0.0
1.001369 -0.017219 0.0
0.994105 -0.022544 0.0
0.991978 -0.025589 0.0
0.993824 -0.026573 0.0
0.998487 -0.025745 0.0
1.004908 -0.023437 0.0
1.012230 -0.020101 0.0
1.019890 -0.016275 0.0
1.027657 -0.012490 0.0
1.035587 -0.009184 0.0
1.043903 -0.006676 0.0
1.052845 -0.005060 0.0
1.062597 -0.004234 0.0
1.073244 -0.003954 0.0
1.084697 -0.003923 0.0
1.096610 -0.003861 0.0
1.108368 -0.003557 0.0
1.119149 -0.002870 0.0
1.128114 -0.001690 0.0
1.134616 -0.000058 0.0
1.138298 0.001846 0.0
1.139081 0.003740 0.0
1.137132 0.005208 0.0
1.132806 0.005781 0.0
1.126578 0.005077 0.0
1.119083 0.003067 0.0
1.113601 0.000700 0.0
1.001374 -0.009877 0.0
1.006841 -0.029864 0.0
1.017822 -0.050692 0.0
1.034648 -0.072626 0.0
1.057977 -0.095480 0.0
1.088684 -0.118412 0.0
1.127535 -0.139614 0.0
1.174486 -0.155952 0.0
1.228002 -0.163722 0.0
1.282455 -0.156454 0.0
1.330375 -0.136661 0.0
1.367928 -0.110141 0.0
1.394688 -0.081634 0.0
1.411787 -0.054174 0.0
1.420812 -0.029625 0.0
1.423417 -0.009138 0.0
1.421207 0.006634 0.0
1.415719 0.017340 0.0
1.408498 0.022831 0.0
1.401157 0.023235 0.0
1.395333 0.019023 0.0
1.392664 0.011058 0.0
1.394745 0.000754 0.0
1.402778 -0.009357 0.0
1.416808 -0.015654 0.0
1.435027 -0.014492 0.0
1.453841 -0.003789 0.0
1.469184 0.015705 0.0
1.478214 0.041155 0.0
1.479772 0.069459 0.0
1.473927 0.097797 0.0
1.461512 0.123957 0.0
1.443677 0.146383 0.0
1.421568 0.164034 0.0
1.396159 0.176215 0.0
1.368196 0.182462 0.0
1.338217 0.182499 0.0
1.306581 0.176276 0.0
1.273521 0.164064 0.0
1.239220 0.146589 0.0
1.203965 0.125123 0.0
1.168357 0.101360 0.0
1.133419 0.076987 0.0
1.100440 0.053201 0.0
1.070602 0.030540 0.0
1.044669 0.009076 0.0
1.023219 -0.010918 0.0
1.006574 -0.029224 0.0
0.994625 -0.045625 0.0
0.987292 -0.059802 0.0
0.984911 -0.071439 0.0
0.988467 -0.080306 0.0
0.999569 -0.085999 0.0
1.020003 -0.087508 0.0
1.051033 -0.083285 0.0
1.092788 -0.071792 0.0
1.143822 -0.052201 0.0
1.200324 -0.025297 0.0
1.255111 0.005959 0.0
1.300682 0.037153 0.0
1.333901 0.064045 0.0
1.354796 0.085339 0.0
1.364006 0.100433 0.0
1.362582 0.109148 0.0
1.351844 0.111650 0.0
1.333260 0.108489 0.0
1.308446 0.100609 0.0
1.279167 0.089152 0.0
1.247221 0.075225 0.0
1.214296 0.059876 0.0
1.181916 0.044049 0.0
1.151073 0.028192 0.0
1.122250 0.013045 0.0
1.096565 -0.000328 0.0
1.075637 -0.011243 0.0
1.060022 -0.019148 0.0
1.049059 -0.023896 0.0
1.041647 -0.025671 0.0
1.036618 -0.024902 0.0
1.032977 -0.022316 0.0
1.030101 -0.018846 0.0
1.027854 -0.015438 0.0
1.026558 -0.012871 0.0
1.026875 -0.011622 0.0
1.029619 -0.011801 0.0
1.035575 -0.013202 0.0
1.045316 -0.015374 0.0
1.059056 -0.017696 0.0
1.076566 -0.019510 0.0
1.097147 -0.020247 0.0
1.119684 -0.019499 0.0
1.142741 -0.017084 0.0
1.164689 -0.013115 0.0
1.183923 -0.008012 0.0
1.199197 -0.002458 0.0
1.209886 0.002666 0.0
1.216055 0.006480 0.0
1.218336 0.008326 0.0
1.217819 0.007829 0.0
1.216949 0.002289 0.0
1.001187 -0.012439 0.0
1.005969 -0.037550 0.0
1.015796 -0.063814 0.0
1.031388 -0.091922 0.0
1.054024 -0.122148 0.0
1.085560 -0.153986 0.0
1.128203 -0.185534 0.0
1.183504 -0.212284 0.0
1.251962 -0.229364 0.0
1.322436 -0.215739 0.0
1.379227 -0.182085 0.0
1.418515 -0.141558 0.0
1.442763 -0.101225 0.0
1.455299 -0.064218 0.0
1.458828 -0.032135 0.0
1.455507 -0.005911 0.0
1.447033 0.014090 0.0
1.434952 0.027453 0.0
1.420985 0.033905 0.0
1.406992 0.033495 0.0
1.394900 0.026679 0.0
1.386632 0.014339 0.0
1.384237 -0.002214 0.0
1.390043 -0.020229 0.0
1.405468 -0.034237 0.0
1.429316 -0.037976 0.0
1.457244 -0.027046 0.0
1.482456 -0.001594 0.0
1.499134 0.032747 0.0
1.505283 0.070159 0.0
1.501586 0.106639 0.0
1.489676 0.139441 0.0
1.471414 0.166997 0.0
1.448434 0.188510 0.0
1.421976 0.203607 0.0
1.392887 0.212122 0.0
1.361687 0.214019 0.0
1.328660 0.209418 0.0
1.293967 0.198674 0.0
1.257771 0.182475 0.0
1.220396 0.161867 0.0
1.182473 0.138147 0.0
1.144985 0.112626 0.0
1.109123 0.086403 0.0
1.075961 0.060339 0.0
1.046002 0.035169 0.0
1.018831 0.011609 0.0
0.993375 -0.009648 0.0
0.968721 -0.028598 0.0
0.945084 -0.045859 0.0
0.924336 -0.062253 0.0
0.909732 -0.078444 0.0
0.905045 -0.094275 0.0
0.913300 -0.107922 0.0
0.935901 -0.116500 0.0
0.972690 -0.117121 0.0
1.022415 -0.107631 0.0
1.083007 -0.086961 0.0
1.151362 -0.055519 0.0
1.221261 -0.016839 0.0
1.282776 0.023303 0.0
1.329261 0.058701 0.0
1.360433 0.086689 0.0
1.377826 0.106923 0.0
1.382993 0.119446 0.0
1.377559 0.124710 0.0
1.363236 0.123525 0.0
1.341816 0.116935 0.0
1.315119 0.106086 0.0
1.284922 0.092136 0.0
1.252901 0.076189 0.0
1.220557 0.059238 0.0
1.189179 0.042200 0.0
1.159626 0.025756 0.0
1.132318 0.010908 0.0
1.107750 -0.001115 0.0
1.086243 -0.009460 0.0
1.067325 -0.013778 0.0
1.049965 -0.014407 0.0
1.033161 -0.012365 0.0
1.016382 -0.009141 0.0
0.999857 -0.006371 0.0
0.984641 -0.005426 0.0
0.972359 -0.007102 0.0
0.964754 -0.011461 0.0
0.963174 -0.017918 0.0
0.968280 -0.025505 0.0
0.980032 -0.033058 0.0
0.997837 -0.039463 0.0
1.020770 -0.043809 0.0
1.047748 -0.045451 0.0
1.077593 -0.044034 0.0
1.109027 -0.039546 0.0
1.140601 -0.032389 0.0
1.170651 -0.023405 0.0
1.197370 -0.013795 0.0
1.219115 -0.004974 0.0
1.234964 0.001650 0.0
1.245158 0.004828 0.0
1.251109 0.000209 0.0
1.000915 -0.014541 0.0
1.004631 -0.043946 0.0
1.012439 -0.075054 0.0
1.025340 -0.109175 0.0
1.045207 -0.147398 0.0
1.075114 -0.190179 0.0
1.119568 -0.236437 0.0
1.183597 -0.280711 0.0
1.275134 -0.320932 0.0
1.368082 -0.287594 0.0
1.428516 -0.227455 0.0
1.460378 -0.167338 0.0
1.474375 -0.113689 0.0
1.477107 -0.067024 0.0
1.471881 -0.027633 0.0
1.460302 0.004487 0.0
1.443326 0.029141 0.0
1.422244 0.045566 0.0
1.398780 0.053222 0.0
1.374971 0.051979 0.0
1.353006 0.042252 0.0
1.334981 0.025058 0.0
1.322725 0.001718 0.0
1.319172 -0.026413 0.0
1.328011 -0.052316 0.0
1.350650 -0.066385 0.0
1.384761 -0.060676 0.0
1.423472 -0.031888 0.0
1.455607 0.014229 0.0
1.473915 0.064219 0.0
1.478926 0.111266 0.0
1.473433 0.152215 0.0
1.460104 0.185813 0.0
1.440983 0.211796 0.0
1.417471 0.230291 0.0
1.390473 0.241525 0.0
1.360547 0.245742 0.0
1.328040 0.243228 0.0
1.293206 0.234392 0.0
1.256322 0.219837 0.0
1.217819 0.200382 0.0
1.178380 0.176993 0.0
1.138958 0.150691 0.0
1.100600 0.122557 0.0
1.064024 0.093924 0.0
1.029014 0.066553 0.0
0.994096 0.042314 0.0
0.957045 0.022155 0.0
0.916371 0.004926 0.0
0.873436 -0.012811 0.0
0.833825 -0.034943 0.0
0.805252 -0.062578 0.0
0.793052 -0.093253 0.0
0.798277 -0.122425 0.0
0.819291 -0.145613 0.0
0.853881 -0.159388 0.0
0.900217 -0.161426 0.0
0.956820 -0.150362 0.0
1.022148 -0.125802 0.0
1.094168 -0.088476 0.0
1.169122 -0.041528 0.0
1.238398 0.007771 0.0
1.293119 0.051725 0.0
1.331264 0.086350 0.0
1.354548 0.111567 0.0
1.364773 0.127799 0.0
1.363738 0.135794 0.0
1.353269 0.136555 0.0
1.335195 0.131239 0.0
1.311303 0.121072 0.0
1.283300 0.107277 0.0
1.252766 0.091028 0.0
1.221093 0.073460 0.0
1.189404 0.055739 0.0
1.158439 0.039198 0.0
1.128354 0.025249 0.0
1.098673 0.015364 0.0
1.068584 0.010407 0.0
1.037373 0.009979 0.0
1.005045 0.012380 0.0
0.972812 0.015126 0.0
0.942932 0.015766 0.0
0.917948 0.012637 0.0
0.899872 0.005191 0.0
0.889849 -0.006125 0.0
0.888249 -0.020073 0.0
0.894658 -0.034865 0.0
0.908016 -0.048808 0.0
0.927087 -0.060588 0.0
0.950748 -0.069279 0.0
0.978066 -0.074278 0.0
1.008257 -0.075244 0.0
1.040584 -0.072096 0.0
1.074235 -0.065064 0.0
1.108204 -0.054749 0.0
1.141216 -0.042182 0.0
1.171725 -0.028843 0.0
1.198020 -0.016625 0.0
1.218500 -0.007570 0.0
1.231727 -0.006571 0.0
1.000513 -0.015969 0.0
1.002610 -0.048331 0.0
1.007156 -0.083023 0.0
1.015174 -0.122124 0.0
1.028798 -0.167939 0.0
1.052090 -0.222838 0.0
1.092379 -0.288522 0.0
1.161059 -0.361336 0.0
1.285397 -0.456181 0.0
1.400947 -0.360843 0.0
1.441386 -0.255078 0.0
1.444491 -0.174682 0.0
1.435989 -0.111840 0.0
1.423469 -0.059086 0.0
1.407635 -0.014510 0.0
1.386977 0.023602 0.0
1.360338 0.053642 0.0
1.328436 0.074050 0.0
1.292869 0.083768 0.0
1.255715 0.082397 0.0
1.219260 0.070255 0.0
1.185878 0.048462 0.0
1.157590 0.018859 0.0
1.135674 -0.018085 0.0
1.124992 -0.058801 0.0
1.132833 -0.090380 0.0
1.162523 -0.100482 0.0
1.211778 -0.080049 0.0
1.270168 -0.028135 0.0
1.319273 0.039171 0.0
1.350020 0.100557 0.0
1.366247 0.152190 0.0
1.371651 0.193762 0.0
1.368641 0.225978 0.0
1.358668 0.249593 0.0
1.342675 0.265214 0.0
1.321350 0.273304 0.0
1.295260 0.274262 0.0
1.264933 0.268518 0.0
1.230928 0.256600 0.0
1.193899 0.239151 0.0
1.154650 0.216912 0.0
1.114070 0.190775 0.0
1.072791 0.162110 0.0
1.030417 0.133321 0.0
0.984795 0.107787 0.0
0.932761 0.088032 0.0
0.873402 0.072847 0.0
0.811655 0.056655 0.0
0.757455 0.032595 0.0
0.719701 -0.002983 0.0
0.701842 -0.048106 0.0
0.702125 -0.095808 0.0
0.716391 -0.139361 0.0
0.741121 -0.174420 0.0
0.774393 -0.198442 0.0
0.815483 -0.209797 0.0
0.864212 -0.207323 0.0
0.920379 -0.190336 0.0
0.983343 -0.158927 0.0
1.051730 -0.114418 0.0
1.123018 -0.059903 0.0
1.190631 -0.002936 0.0
1.245901 0.047597 0.0
1.285598 0.087339 0.0
1.310972 0.116429 0.0
1.323613 0.135559 0.0
1.325179 0.145692 0.0
1.317364 0.147990 0.0
1.301848 0.143729 0.0
1.280240 0.134231 0.0
1.254014 0.120834 0.0
1.224420 0.104922 0.0
1.192345 0.088042 0.0
1.158179 0.072026 0.0
1.121796 0.058888 0.0
1.082846 0.050355 0.0
1.041340 0.047012 0.0
0.998245 0.047680 0.0
0.955698 0.049555 0.0
0.916630 0.049252 0.0
0.883997 0.044152 0.0
0.860018 0.033215 0.0
0.845745 0.016963 0.0
0.840994 -0.003123 0.0
0.844556 -0.025039 0.0
0.854776 -0.046528 0.0
0.870132 -0.065859 0.0
0.889432 -0.081909 0.0
0.911822 -0.094007 0.0
0.936716 -0.101762 0.0
0.963717 -0.104952 0.0
0.992504 -0.103503 0.0
1.022722 -0.097525 0.0
1.053856 -0.087391 0.0
1.085138 -0.073834 0.0
1.115470 -0.058032 0.0
1.143395 -0.041655 0.0
1.167139 -0.026764 0.0
1.183759 -0.017224 0.0
0.999977 -0.016459 0.0
0.999879 -0.049840 0.0
0.999827 -0.086007 0.0
1.000417 -0.127747 0.0
1.003205 -0.178728 0.0
1.011905 -0.244043 0.0
1.035176 -0.330876 0.0
1.092241 -0.444726 0.0
1.246813 -0.651701 0.0
1.357717 -0.391777 0.0
1.322395 -0.229261 0.0
1.265716 -0.146926 0.0
1.224906 -0.090282 0.0
1.198030 -0.041248 0.0
1.174658 0.006859 0.0
1.146567 0.050982 0.0
1.112047 0.087421 0.0
1.070627 0.113592 0.0
1.022582 0.127837 0.0
0.968588 0.129476 0.0
0.909780 0.118440 0.0
0.848742 0.094696 0.0
0.791097 0.058557 0.0
0.744928 0.010303 0.0
0.719438 -0.051017 0.0
0.724409 -0.110975 0.0
0.762714 -0.147881 0.0
0.828903 -0.148094 0.0
0.916034 -0.105611 0.0
1.011907 -0.028330 0.0
1.094014 0.055203 0.0
1.152218 0.123113 0.0
1.192891 0.176761 0.0
1.219991 0.218891 0.0
1.235496 0.251148 0.0
1.240655 0.274493 0.0
1.236483 0.289522 0.0
1.223934 0.296683 0.0
1.203944 0.296413 0.0
1.177444 0.289211 0.0
1.145342 0.275671 0.0
1.108428 0.256556 0.0
1.067015 0.233123 0.0
1.020274 0.207782 0.0
0.965915 0.184383 0.0
0.901778 0.166483 0.0
0.829667 0.153482 0.0
0.757918 0.138504 0.0
0.698542 0.112122 0.0
0.660490 0.069379 0.0
0.645479 0.012996 0.0
0.648678 -0.049426 0.0
0.663187 -0.109279 0.0
0.684257 -0.161226 0.0
0.709730 -0.202759 0.0
0.739037 -0.232682 0.0
0.772529 -0.250138 0.0
0.811018 -0.254200 0.0
0.855329 -0.243935 0.0
0.905856 -0.218819 0.0
0.962259 -0.179315 0.0
1.023313 -0.127348 0.0
1.086818 -0.066609 0.0
1.147425 -0.004607 0.0
1.197781 0.049491 0.0
1.234684 0.091999 0.0
1.258812 0.123220 0.0
1.271313 0.143965 0.0
1.273512 0.155332 0.0
1.266804 0.158610 0.0
1.252556 0.155207 0.0
1.232005 0.146636 0.0
1.206139 0.134580 0.0
1.175587 0.121010 0.0
1.140602 0.108209 0.0
1.101268 0.098422 0.0
1.057976 0.093063 0.0
1.011979 0.091808 0.0
0.965668 0.092291 0.0
0.922289 0.090869 0.0
0.885156 0.084139 0.0
0.856764 0.070290 0.0
0.838280 0.049539 0.0
0.829547 0.023645 0.0
0.829436 -0.004942 0.0
0.836217 -0.033562 0.0
0.848054 -0.060063 0.0
0.863454 -0.083079 0.0
0.881334 -0.101869 0.0
0.900985 -0.116087 0.0
0.922003 -0.125594 0.0
0.944216 -0.130332 0.0
0.967581 -0.130275 0.0
0.992064 -0.125454 0.0
1.017510 -0.116043 0.0
1.043522 -0.102475 0.0
1.069360 -0.085561 0.0
1.093878 -0.066568 0.0
1.115488 -0.047205 0.0
1.131336 -0.029251 0.0
0.999359 -0.015795 0.0
0.996707 -0.047756 0.0
0.991163 -0.082494 0.0
0.982382 -0.123069 0.0
0.970126 -0.173938 0.0
0.954952 -0.242360 0.0
0.940579 -0.341458 0.0
0.942620 -0.493248 0.0
1.046652 -0.861784 0.0
1.055278 -0.194190 0.0
0.880032 -0.098668 0.0
0.750366 -0.080596 0.0
0.690666 -0.056101 0.0
0.663396 -0.021285 0.0
0.645626 0.028038 0.0
0.625274 0.078246 0.0
0.595769 0.124182 0.0
0.552886 0.161134 0.0
0.495502 0.185725 0.0
0.425452 0.195632 0.0
0.348848 0.187697 0.0
0.278189 0.157137 0.0
0.229913 0.102037 0.0
0.217949 0.024956 0.0
0.245001 -0.067232 0.0
0.300210 -0.154941 0.0
0.371778 -0.213788 0.0
0.456200 -0.232798 0.0
0.554325 -0.206162 0.0
0.666579 -0.135905 0.0
0.785841 -0.038590 0.0
0.890405 0.054138 0.0
0.969088 0.126379 0.0
1.028243 0.183018 0.0
1.071672 0.228085 0.0
1.100963 0.263106 0.0
1.117262 0.288783 0.0
1.121675 0.305559 0.0
1.115331 0.313872 0.0
1.099318 0.314265 0.0
1.074556 0.307481 0.0
1.041494 0.294724 0.0
0.999642 0.278220 0.0
0.947487 0.261579 0.0
0.884013 0.248419 0.0
0.812035 0.238560 0.0
0.740425 0.225126 0.0
0.681380 0.197653 0.0
0.643841 0.149887 0.0
0.629225 0.084283 0.0
0.632879 0.009450 0.0
0.647994 -0.064193 0.0
0.668835 -0.129862 0.0
0.692023 -0.184902 0.0
0.715978 -0.228511 0.0
0.740336 -0.260594 0.0
0.765669 -0.281051 0.0
0.793250 -0.289357 0.0
0.824667 -0.284506 0.0
0.861302 -0.265410 0.0
0.903813 -0.231638 0.0
0.951869 -0.184135 0.0
1.004141 -0.125600 0.0
1.058381 -0.060464 0.0
1.109768 0.003605 0.0
1.152488 0.058261 0.0
1.184117 0.101201 0.0
1.204831 0.132770 0.0
1.215326 0.153834 0.0
1.216536 0.165606 0.0
1.209449 0.169544 0.0
1.194972 0.167327 0.0
1.173810 0.160917 0.0
1.146424 0.152610 0.0
1.113154 0.144864 0.0
1.074563 0.139691 0.0
1.031917 0.137732 0.0
0.987504 0.137549 0.0
0.944512 0.135853 0.0
0.906372 0.128825 0.0
0.875884 0.113806 0.0
0.854580 0.090319 0.0
0.842632 0.059941 0.0
0.839187 0.025421 0.0
0.842784 -0.010204 0.0
0.851683 -0.043980 0.0
0.864212 -0.074012 0.0
0.879001 -0.099317 0.0
0.895019 -0.119530 0.0
0.911589 -0.134647 0.0
0.928364 -0.144828 0.0
0.945294 -0.150241 0.0
0.962537 -0.150975 0.0
0.980338 -0.147039 0.0
0.998871 -0.138438 0.0
1.018091 -0.125311 0.0
1.037605 -0.108078 0.0
1.056584 -0.087549 0.0
1.073730 -0.064980 0.0
1.086764 -0.040357 0.0
0.998767 -0.013920 0.0
0.993668 -0.041881 0.0
0.982802 -0.071958 0.0
0.964687 -0.106710 0.0
0.936594 -0.149947 0.0
0.893519 -0.208101 0.0
0.825643 -0.293468 0.0
0.713900 -0.431536 0.0
0.321969 -0.742630 0.0
-0.483760 0.262436 0.0
-0.483760 0.000000 0.0
-0.028503 -0.019509 0.0
-0.038834 -0.056150 0.0
0.016960 -0.049759 0.0
0.094086 -0.002844 0.0
0.145885 0.077681 0.0
0.152245 0.147892 0.0
0.127257 0.205294 0.0
0.081298 0.244908 0.0
0.025904 0.261892 0.0
-0.025525 0.249470 0.0
-0.060900 0.201397 0.0
-0.072189 0.117342 0.0
-0.055328 0.004753 0.0
-0.013830 -0.115579 0.0
0.044094 -0.219728 0.0
0.112641 -0.289117 0.0
0.190818 -0.320070 0.0
0.281184 -0.307381 0.0
0.385879 -0.251636 0.0
0.504807 -0.161049 0.0
0.630801 -0.053961 0.0
0.743374 0.043222 0.0
0.830654 0.119741 0.0
0.897641 0.180947 0.0
0.947911 0.230683 0.0
0.982820 0.269999 0.0
1.003412 0.299336 0.0
1.010712 0.319139 0.0
1.005642 0.330081 0.0
0.988792 0.333278 0.0
0.960102 0.330679 0.0
0.918866 0.325354 0.0
0.864900 0.320566 0.0
0.801188 0.316619 0.0
0.735965 0.307561 0.0
0.680917 0.282784 0.0
0.645449 0.234510 0.0
0.632087 0.163930 0.0
0.637114 0.079829 0.0
0.654301 -0.006937 0.0
0.677616 -0.086235 0.0
0.702756 -0.153801 0.0
0.727293 -0.208688 0.0
0.749863 -0.251248 0.0
0.769982 -0.282334 0.0
0.788063 -0.302727 0.0
0.805424 -0.312623 0.0
0.824100 -0.311334 0.0
0.846354 -0.297471 0.0
0.873973 -0.269708 0.0
0.907676 -0.227823 0.0
0.946925 -0.173433 0.0
0.990135 -0.110082 0.0
1.034865 -0.042894 0.0
1.076598 0.020307 0.0
1.110936 0.073188 0.0
1.136309 0.114696 0.0
1.152536 0.145185 0.0
1.159931 0.165650 0.0
1.159006 0.177512 0.0
1.150286 0.182556 0.0
1.134212 0.182925 0.0
1.111175 0.181026 0.0
1.081741 0.179152 0.0
1.047024 0.178711 0.0
1.009012 0.179371 0.0
0.970585 0.178750 0.0
0.935051 0.173178 0.0
0.905363 0.159327 0.0
0.883429 0.135727 0.0
0.869874 0.103258 0.0
0.864268 0.064555 0.0
0.865557 0.022963 0.0
0.872331 -0.018116 0.0
0.883013 -0.055647 0.0
0.896097 -0.087959 0.0
0.910298 -0.114359 0.0
0.924593 -0.134802 0.0
0.938277 -0.149628 0.0
0.950992 -0.159337 0.0
0.962728 -0.164398 0.0
0.973775 -0.165108 0.0
0.984610 -0.161541 0.0
0.995733 -0.153592 0.0
1.007482 -0.141125 0.0
1.019861 -0.124156 0.0
1.032424 -0.103013 0.0
1.044239 -0.078477 0.0
1.053613 -0.049268 0.0
0.998330 -0.011016 0.0
0.991443 -0.032799 0.0
0.976751 -0.055481 0.0
0.952097 -0.080420 0.0
0.913323 -0.109372 0.0
0.852403 -0.144681 0.0
0.752487 -0.189097 0.0
0.573397 -0.245075 0.0
0.228449 -0.293916 0.0
0.000000 0.262436 0.0
-0.000000 -0.000000 0.0
0.000000 0.000000 0.0
-0.036357 -0.037161 0.0
-0.077687 -0.082408 0.0
-0.083357 -0.041651 0.0
-0.082847 0.064180 0.0
-0.089429 0.161616 0.0
-0.111528 0.238657 0.0
-0.143244 0.289222 0.0
-0.176552 0.306280 0.0
-0.202207 0.282166 0.0
-0.211642 0.213512 0.0
-0.198765 0.103639 0.0
-0.163475 -0.033695 0.0
-0.114970 -0.167133 0.0
-0.062991 -0.278077 0.0
-0.007732 -0.354573 0.0
0.053471 -0.393993 0.0
0.123868 -0.394221 0.0
0.208542 -0.354166 0.0
0.309358 -0.278263 0.0
0.423618 -0.177001 0.0
0.543236 -0.065928 0.0
0.650790 0.034056 0.0
0.735614 0.114821 0.0
0.801063 0.181089 0.0
0.849971 0.235776 0.0
0.883373 0.279565 0.0
0.901992 0.312991 0.0
0.906328 0.336963 0.0
0.896508 0.353066 0.0
0.872348 0.363740 0.0
0.834196 0.371680 0.0
0.784868 0.377533 0.0
0.731486 0.376746 0.0
0.684645 0.359499 0.0
0.653946 0.316592 0.0
0.643355 0.246760 0.0
0.650704 0.157692 0.0
0.670881 0.060863 0.0
0.698121 -0.032399 0.0
0.727503 -0.113469 0.0
0.755941 -0.180145 0.0
0.781533 -0.232474 0.0
0.803056 -0.271555 0.0
0.819905 -0.298994 0.0
0.832193 -0.316436 0.0
0.840936 -0.325017 0.0
0.848140 -0.324820 0.0
0.856563 -0.314663 0.0
0.869036 -0.292608 0.0
0.887564 -0.257153 0.0
0.912709 -0.208496 0.0
0.943569 -0.149088 0.0
0.978215 -0.083263 0.0
1.013837 -0.016679 0.0
1.046446 0.043227 0.0
1.072899 0.092832 0.0
1.092065 0.131657 0.0
1.103565 0.160283 0.0
1.107388 0.179980 0.0
1.103674 0.192522 0.0
1.092647 0.200060 0.0
1.074718 0.204857 0.0
1.050735 0.208737 0.0
1.022276 0.212301 0.0
0.991754 0.214315 0.0
0.962140 0.211847 0.0
0.936334 0.201420 0.0
0.916473 0.180633 0.0
0.903568 0.149260 0.0
0.897612 0.109238 0.0
0.897959 0.063834 0.0
0.903664 0.016690 0.0
0.913459 -0.028412 0.0
0.925866 -0.068440 0.0
0.939508 -0.101892 0.0
0.953176 -0.128294 0.0
0.965881 -0.147868 0.0
0.976909 -0.161275 0.0
0.985873 -0.169370 0.0
0.992751 -0.172979 0.0
0.997881 -0.172704 0.0
1.001896 -0.168794 0.0
1.005574 -0.161141 0.0
1.009641 -0.149392 0.0
1.014551 -0.133177 0.0
1.020325 -0.112328 0.0
1.026472 -0.087124 0.0
1.031831 -0.055356 0.0
0.998132 -0.007479 0.0
0.990474 -0.021792 0.0
0.974279 -0.035601 0.0
0.947509 -0.048876 0.0
0.906496 -0.061128 0.0
0.845233 -0.070741 0.0
0.754464 -0.072351 0.0
0.622993 -0.051260 0.0
0.452707 0.032833 0.0
0.179869 0.161454 0.0
0.000000 0.000000 0.0
-0.000000 -0.000000 0.0
0.000000 0.000000 0.0
-0.037607 -0.038717 0.0
-0.089179 -0.026990 0.0
-0.120951 0.080782 0.0
-0.151876 0.182520 0.0
-0.175866 0.263839 0.0
-0.196147 0.316037 0.0
-0.211548 0.328175 0.0
-0.216144 0.290522 0.0
-0.202256 0.200703 0.0
-0.163942 0.065256 0.0
-0.109787 -0.084756 0.0
-0.056086 -0.218277 0.0
-0.010871 -0.324127 0.0
0.025378 -0.400031 0.0
0.058415 -0.442775 0.0
0.095706 -0.453127 0.0
0.144990 -0.429218 0.0
0.212230 -0.371267 0.0
0.298253 -0.284281 0.0
0.398135 -0.178147 0.0
0.502630 -0.065775 0.0
0.596747 0.035711 0.0
0.671698 0.119799 0.0
0.729372 0.190484 0.0
0.771295 0.249533 0.0
0.797919 0.297780 0.0
0.809353 0.336405 0.0
0.805614 0.367184 0.0
0.787273 0.392123 0.0
0.756796 0.411926 0.0
0.719994 0.423417 0.0
0.685874 0.418365 0.0
0.663575 0.387021 0.0
0.658189 0.325155 0.0
0.669262 0.237715 0.0
0.692961 0.135690 0.0
0.724812 0.030838 0.0
0.759790 -0.064593 0.0
0.793655 -0.144521 0.0
0.824168 -0.208044 0.0
0.849887 -0.255886 0.0
0.869877 -0.289658 0.0
0.883622 -0.311486 0.0
0.891072 -0.323681 0.0
0.892837 -0.328280 0.0
0.890481 -0.326405 0.0
0.886648 -0.317668 0.0
0.884719 -0.300145 0.0
0.887897 -0.271324 0.0
0.898160 -0.229733 0.0
0.915691 -0.176242 0.0
0.939113 -0.114177 0.0
0.966162 -0.048436 0.0
0.993662 0.014875 0.0
1.018277 0.070117 0.0
1.037903 0.115579 0.0
1.051520 0.151244 0.0