# vtk DataFile Version 3.0
Vector Field
ASCII
DATASET RECTILINEAR_GRID
DIMENSIONS 26 100 1
X_COORDINATES 26 double
0.050000 0.150000 0.250000 0.350000 0.450000 0.550000 0.650000 0.750000 0.850000 0.950000 1.050000 1.150000 1.250000 1.350000 1.450000 1.550000 1.650000 1.750000 1.850000 1.950000 2.050000 2.150000 2.250000 2.350000 2.450000 2.550000 
Y_COORDINATES 100 double
0.050000 0.150000 0.250000 0.350000 0.450000 0.550000 0.650000 0.750000 0.850000 0.950000 1.050000 1.150000 1.250000 1.350000 1.450000 1.550000 1.650000 1.750000 1.850000 1.950000 2.050000 2.150000 2.250000 2.350000 2.450000 2.550000 2.650000 2.750000 2.850000 2.950000 3.050000 3.150000 3.250000 3.350000 3.450000 3.550000 3.650000 3.750000 3.850000 3.950000 4.050000 4.150000 4.250000 4.350000 4.450000 4.550000 4.650000 4.750000 4.850000 4.950000 5.050000 5.150000 5.250000 5.350000 5.450000 5.550000 5.650000 5.750000 5.850000 5.950000 6.050000 6.150000 6.250000 6.350000 6.450000 6.550000 6.650000 6.750000 6.850000 6.950000 7.050000 7.150000 7.250000 7.350000 7.450000 7.550000 7.650000 7.750000 7.850000 7.950000 8.050000 8.150000 8.250000 8.350000 8.450000 8.550000 8.650000 8.750000 8.850000 8.950000 9.050000 9.150000 9.250000 9.350000 9.450000 9.550000 9.650000 9.750000 9.850000 9.950000 
Z_COORDINATES 1 double
0.0
POINT_DATA 2600
VECTORS Vektorfeld double
-0.000828 1.000828 0.0
-0.003034 1.001378 0.0
-0.005682 1.001270 0.0
-0.008176 1.001225 0.0
-0.010561 1.001160 0.0
-0.012749 1.001028 0.0
-0.014565 1.000787 0.0
-0.015761 1.000409 0.0
-0.016066 0.999896 0.0
-0.015263 0.999302 0.0
-0.013299 0.998734 0.0
-0.010352 0.998319 0.0
-0.006808 0.998137 0.0
-0.003139 0.998194 0.0
0.000240 0.998427 0.0
0.003052 0.998761 0.0
0.005143 0.999148 0.0
0.006466 0.999528 0.0
0.007074 0.999864 0.0
0.007071 1.000139 0.0
0.006580 1.000352 0.0
0.005719 1.000510 0.0
0.004582 1.000627 0.0
0.003224 1.000730 0.0
0.001608 1.000886 0.0
0.000361 1.000361 0.0
-0.002921 1.004577 0.0
-0.009624 1.006538 0.0
-0.017129 1.006264 0.0
-0.024519 1.006116 0.0
-0.031695 1.005830 0.0
-0.038342 1.005193 0.0
-0.043901 1.003998 0.0
-0.047595 1.002089 0.0
-0.048546 0.999471 0.0
-0.046043 0.996421 0.0
-0.039900 0.993507 0.0
-0.030690 0.991390 0.0
-0.019666 0.990499 0.0
-0.008344 0.990842 0.0
0.001992 0.992064 0.0
0.010497 0.993807 0.0
0.016722 0.995788 0.0
0.020571 0.997715 0.0
0.022235 0.999406 0.0
0.022055 1.000782 0.0
0.020417 1.001838 0.0
0.017688 1.002614 0.0
0.014169 1.003178 0.0
0.010079 1.003627 0.0
0.005544 1.004142 0.0
0.001587 1.002308 0.0
-0.005149 1.012647 0.0
-0.016413 1.016434 0.0
-0.028698 1.016158 0.0
-0.041055 1.015969 0.0
-0.053279 1.015376 0.0
-0.064833 1.013848 0.0
-0.074744 1.010813 0.0
-0.081580 1.005802 0.0
-0.083634 0.998762 0.0
-0.079426 0.990420 0.0
-0.068453 0.982391 0.0
-0.051786 0.976630 0.0
-0.031913 0.974362 0.0
-0.011782 0.975524 0.0
0.006271 0.978993 0.0
0.020812 0.983830 0.0
0.031155 0.989198 0.0
0.037278 0.994332 0.0
0.039622 0.998781 0.0
0.038848 1.002361 0.0
0.035668 1.005076 0.0
0.030729 1.007044 0.0
0.024561 1.008436 0.0
0.017558 1.009461 0.0
0.010002 1.010400 0.0
0.003057 1.006952 0.0
-0.007390 1.025186 0.0
-0.023208 1.030977 0.0
-0.040288 1.030979 0.0
-0.057808 1.031025 0.0
-0.075568 1.030304 0.0
-0.092886 1.027792 0.0
-0.108365 1.022260 0.0
-0.119744 1.012570 0.0
-0.124054 0.998359 0.0
-0.118401 0.980962 0.0
-0.101461 0.963936 0.0
-0.074973 0.951931 0.0
-0.043524 0.947740 0.0
-0.012386 0.950877 0.0
0.014727 0.958475 0.0
0.035846 0.968688 0.0
0.050209 0.979635 0.0
0.058118 0.989862 0.0
0.060468 0.998558 0.0
0.058391 1.005435 0.0
0.053012 1.010561 0.0
0.045307 1.014202 0.0
0.036048 1.016706 0.0
0.025798 1.018444 0.0
0.014950 1.019821 0.0
0.004709 1.014718 0.0
-0.009554 1.042130 0.0
-0.029785 1.050081 0.0
-0.051620 1.050790 0.0
-0.074520 1.051634 0.0
-0.098465 1.051401 0.0
-0.122813 1.048361 0.0
-0.145857 1.040214 0.0
-0.164361 1.024498 0.0
-0.173405 0.999786 0.0
-0.167333 0.967808 0.0
-0.142647 0.935463 0.0
-0.101961 0.913229 0.0
-0.054052 0.907084 0.0
-0.008273 0.914615 0.0
0.029841 0.929509 0.0
0.058037 0.948340 0.0
0.076002 0.967655 0.0
0.084780 0.985153 0.0
0.086032 0.999664 0.0
0.081562 1.010876 0.0
0.073024 1.019037 0.0
0.061773 1.024681 0.0
0.048821 1.028437 0.0
0.034871 1.030913 0.0
0.020383 1.032688 0.0
0.006524 1.025951 0.0
-0.011521 1.063206 0.0
-0.035803 1.073518 0.0
-0.062162 1.075548 0.0
-0.090509 1.078123 0.0
-0.121265 1.079615 0.0
-0.154201 1.077432 0.0
-0.187724 1.067711 0.0
-0.217780 1.045561 0.0
-0.236684 1.006672 0.0
-0.233329 0.951495 0.0
-0.198289 0.892051 0.0
-0.134986 0.852652 0.0
-0.061786 0.846551 0.0
0.004084 0.863499 0.0
0.055417 0.891177 0.0
0.090682 0.923211 0.0
0.111102 0.954399 0.0
0.119108 0.981625 0.0
0.117534 1.003514 0.0
0.109098 1.019933 0.0
0.096098 1.031518 0.0
0.080295 1.039256 0.0
0.062918 1.044192 0.0
0.044753 1.047273 0.0
0.026255 1.049314 0.0
0.008482 1.040957 0.0
-0.013137 1.087864 0.0
-0.040790 1.100794 0.0
-0.071085 1.104925 0.0
-0.104534 1.110541 0.0
-0.142337 1.115755 0.0
-0.185314 1.117205 0.0
-0.233025 1.109170 0.0
-0.281784 1.082917 0.0
-0.321038 1.027473 0.0
-0.329347 0.935648 0.0
-0.280454 0.823967 0.0
-0.176647 0.753625 0.0
-0.061503 0.757234 0.0
0.031309 0.794135 0.0
0.097162 0.843355 0.0
0.138134 0.894797 0.0
0.158513 0.942014 0.0
0.162985 0.981532 0.0
0.156011 1.012154 0.0
0.141449 1.034290 0.0
0.122322 1.049288 0.0
0.100771 1.058841 0.0
0.078162 1.064592 0.0
0.055267 1.067933 0.0
0.032442 1.069977 0.0
0.010535 1.059974 0.0
-0.014223 1.115224 0.0
-0.044177 1.131040 0.0
-0.077301 1.138098 0.0
-0.114753 1.148270 0.0
-0.158740 1.159816 0.0
-0.211802 1.169183 0.0
-0.276261 1.169360 0.0
-0.352153 1.147378 0.0
-0.430534 1.080647 0.0
-0.475328 0.935576 0.0
-0.413460 0.713278 0.0
-0.229673 0.576719 0.0
-0.038693 0.628017 0.0
0.086227 0.705620 0.0
0.163743 0.788501 0.0
0.205806 0.866618 0.0
0.221432 0.934187 0.0
0.218051 0.988267 0.0
0.202039 1.028406 0.0
0.178544 1.056095 0.0
0.151298 1.073856 0.0
0.122699 1.084423 0.0
0.094083 1.090234 0.0
0.066045 1.093224 0.0
0.038707 1.094849 0.0
0.012603 1.083112 0.0
-0.014619 1.144067 0.0
-0.045425 1.162956 0.0
-0.079701 1.173581 0.0
-0.119116 1.189654 0.0
-0.167088 1.210393 0.0
-0.229467 1.234048 0.0
-0.317092 1.256579 0.0
-0.448096 1.267055 0.0
-0.640150 1.231405 0.0
-0.849009 1.038471 0.0
-0.727872 0.427379 0.0
-0.274632 0.225591 0.0
0.048556 0.464978 0.0
0.187057 0.605238 0.0
0.264587 0.733837 0.0
0.298804 0.845002 0.0
0.302439 0.936542 0.0
0.285137 1.006595 0.0
0.255289 1.055938 0.0
0.219448 1.087898 0.0
0.181913 1.106833 0.0
0.145043 1.116916 0.0
0.109841 1.121559 0.0
0.076483 1.123294 0.0
0.044689 1.123912 0.0
0.014564 1.110279 0.0
-0.014240 1.172926 0.0
-0.044222 1.194884 0.0
-0.077493 1.209200 0.0
-0.115533 1.231489 0.0
-0.161146 1.262143 0.0
-0.217701 1.301233 0.0
-0.286494 1.345812 0.0
-0.356819 1.379150 0.0
-0.385752 1.340297 0.0
-0.190850 1.048700 0.0
0.253942 0.190842 0.0
0.253942 0.126985 0.0
0.170044 0.202635 0.0
0.372162 0.521663 0.0
0.416035 0.696009 0.0
0.424156 0.840492 0.0
0.404163 0.957410 0.0
0.364102 1.043091 0.0
0.314067 1.099324 0.0
0.261948 1.132473 0.0
0.212071 1.149671 0.0
0.166096 1.156923 0.0
0.124175 1.158674 0.0
0.085736 1.157976 0.0
0.049902 1.156858 0.0
0.016258 1.141101 0.0
-0.013135 1.200301 0.0
-0.040732 1.225087 0.0
-0.071016 1.242553 0.0
-0.104765 1.269926 0.0
-0.143327 1.307881 0.0
-0.186778 1.355500 0.0
-0.230117 1.403677 0.0
-0.256088 1.417582 0.0
-0.229586 1.304296 0.0
-0.098818 0.874802 0.0
0.000000 0.075072 0.0
-0.000000 0.213709 0.0
0.000000 0.137581 0.0
0.240536 0.262700 0.0
0.518027 0.647254 0.0
0.550646 0.848507 0.0
0.517408 1.002625 0.0
0.450178 1.105167 0.0
0.373853 1.163607 0.0
0.301867 1.192296 0.0
0.238414 1.203178 0.0
0.183421 1.204383 0.0
0.135438 1.201118 0.0
0.092763 1.196646 0.0
0.053774 1.193011 0.0
0.017503 1.174863 0.0
-0.011482 1.224919 0.0
-0.035543 1.252127 0.0
-0.061508 1.271762 0.0
-0.089356 1.302314 0.0
-0.119187 1.343887 0.0
-0.149309 1.393067 0.0
-0.173741 1.433881 0.0
-0.179956 1.419564 0.0
-0.151932 1.247786 0.0
-0.086933 0.746151 0.0
-0.023247 -0.043699 0.0
0.000000 0.080663 0.0
-0.000000 0.202486 0.0
0.000000 0.110288 0.0
0.297663 0.330541 0.0
0.623001 0.825169 0.0
0.615179 1.067024 0.0
0.526105 1.197073 0.0
0.422627 1.251504 0.0
0.331254 1.267758 0.0
0.255914 1.266510 0.0
0.193918 1.258040 0.0
0.141752 1.247611 0.0
0.096466 1.238115 0.0
0.055727 1.231270 0.0
0.018118 1.210484 0.0
-0.009520 1.245921 0.0
-0.029432 1.275098 0.0
-0.050492 1.295816 0.0
-0.072003 1.327620 0.0
-0.093282 1.369691 0.0
-0.112060 1.416163 0.0
-0.123375 1.446531 0.0
-0.119908 1.409662 0.0
-0.096413 1.206170 0.0
-0.060814 0.687170 0.0
-0.050721 -0.057734 0.0
-0.029585 -0.028998 0.0
0.000000 0.076439 0.0
-0.000000 0.165825 0.0
0.000000 0.074477 0.0
0.360136 0.462750 0.0
0.679774 1.143019 0.0
0.569217 1.320710 0.0
0.441469 1.359093 0.0
0.338889 1.354121 0.0
0.258612 1.335765 0.0
0.194459 1.314933 0.0
0.141439 1.295903 0.0
0.095938 1.280610 0.0
0.055306 1.270145 0.0
0.017961 1.246563 0.0
-0.007491 1.262932 0.0
-0.023159 1.293668 0.0
-0.039351 1.314498 0.0
-0.054873 1.345972 0.0
-0.068595 1.386339 0.0
-0.078177 1.427875 0.0
-0.079793 1.447750 0.0
-0.069436 1.394619 0.0
-0.047377 1.175658 0.0
-0.019304 0.654010 0.0
-0.039756 -0.014215 0.0
-0.061460 -0.069838 0.0
-0.024046 -0.025273 0.0
0.000000 0.070445 0.0
-0.000000 0.118126 0.0
0.000000 0.095422 0.0
0.167095 1.080424 0.0
0.353484 1.371475 0.0
0.352147 1.437413 0.0
0.300417 1.430112 0.0
0.239182 1.401286 0.0
0.182708 1.370039 0.0
0.133614 1.342911 0.0
0.090771 1.321947 0.0
0.052316 1.307895 0.0
0.016975 1.281499 0.0
-0.005603 1.276025 0.0
-0.017357 1.307997 0.0
-0.029177 1.328180 0.0
-0.039528 1.358162 0.0
-0.047031 1.395374 0.0
-0.049403 1.430794 0.0
-0.043624 1.440668 0.0
-0.027683 1.375403 0.0
-0.000768 1.145899 0.0
0.036911 0.618018 0.0
0.021596 0.057545 0.0
-0.008330 -0.089968 0.0
0.019511 -0.067401 0.0
0.020295 0.015705 0.0
-0.112063 0.067635 0.0
-0.112063 0.021910 0.0
0.101667 0.885174 0.0
0.239368 1.316146 0.0
0.272742 1.460704 0.0
0.250550 1.480744 0.0
0.207490 1.454948 0.0
0.161614 1.418727 0.0
0.119268 1.385663 0.0
0.081341 1.359965 0.0
0.046903 1.342769 0.0
0.015198 1.313672 0.0
-0.004014 1.285641 0.0
-0.012502 1.318624 0.0
-0.020759 1.337630 0.0
-0.027035 1.365340 0.0
-0.029808 1.398472 0.0
-0.026842 1.427101 0.0
-0.015616 1.427358 0.0
0.006381 1.350775 0.0
0.040263 1.109730 0.0
0.088666 0.568106 0.0
0.114621 0.096816 0.0
0.116468 -0.101160 0.0
0.142281 -0.109863 0.0
0.202366 -0.001296 0.0
0.228558 0.009699 0.0
0.151630 0.045401 0.0
0.130439 0.749788 0.0
0.197415 1.256364 0.0
0.219879 1.464647 0.0
0.204159 1.514711 0.0
0.171286 1.496915 0.0
0.134725 1.459197 0.0
0.100044 1.422220 0.0
0.068441 1.392938 0.0
0.039439 1.373236 0.0
0.012740 1.341609 0.0
-0.002831 1.292486 0.0
-0.008907 1.326344 0.0
-0.014605 1.343864 0.0
-0.018065 1.368843 0.0
-0.017661 1.397339 0.0
-0.011115 1.418722 0.0
0.004293 1.409102 0.0
0.031324 1.320002 0.0
0.071531 1.066412 0.0
0.130417 0.504136 0.0
0.184017 0.081232 0.0
0.215852 -0.119258 0.0
0.246030 -0.147756 0.0
0.280688 -0.058146 0.0
0.280458 0.040587 0.0
0.206201 0.165698 0.0
0.159379 0.697503 0.0
0.176630 1.224422 0.0
0.178803 1.471952 0.0
0.159820 1.542109 0.0
0.132299 1.529912 0.0
0.103834 1.491224 0.0
0.077223 1.451486 0.0
0.052880 1.419618 0.0
0.030363 1.398077 0.0
0.009740 1.364089 0.0
-0.002106 1.297422 0.0
-0.006731 1.332109 0.0
-0.010978 1.348044 0.0
-0.012970 1.370114 0.0
-0.010984 1.393678 0.0
-0.002535 1.407388 0.0
0.015395 1.387098 0.0
0.045989 1.284382 0.0
0.091841 1.015972 0.0
0.159412 0.428121 0.0
0.228797 0.034263 0.0
0.276794 -0.152122 0.0
0.310391 -0.178668 0.0
0.331318 -0.082818 0.0
0.318602 0.078205 0.0
0.249652 0.271286 0.0
0.181404 0.706985 0.0
0.154788 1.224304 0.0
0.135046 1.489640 0.0
0.111637 1.566814 0.0
0.089377 1.554988 0.0
0.069508 1.514482 0.0
0.051686 1.472661 0.0
0.035379 1.439092 0.0
0.020120 1.416380 0.0
0.006350 1.380179 0.0
-0.001841 1.301369 0.0
-0.005981 1.336928 0.0
-0.009907 1.351398 0.0
-0.011822 1.370668 0.0
-0.009932 1.389249 0.0
-0.001390 1.394826 0.0
0.017276 1.363064 0.0
0.049830 1.245268 0.0
0.101207 0.957857 0.0
0.176169 0.343703 0.0
0.249726 -0.024261 0.0
0.298513 -0.190382 0.0
0.329222 -0.204714 0.0
0.343623 -0.092099 0.0
0.325214 0.118612 0.0
0.256686 0.368358 0.0
0.171740 0.763108 0.0
0.112256 1.254281 0.0
0.076615 1.515046 0.0
0.054957 1.586474 0.0
0.041844 1.570701 0.0
0.032443 1.528039 0.0
0.024352 1.485015 0.0
0.016685 1.450711 0.0
0.009182 1.427523 0.0
0.002730 1.389259 0.0
-0.001976 1.305186 0.0
-0.006493 1.341768 0.0
-0.011146 1.355135 0.0
-0.014358 1.372058 0.0
-0.014339 1.385949 0.0
-0.007765 1.383010 0.0
0.009734 1.338716 0.0
0.042434 1.204364 0.0
0.098613 0.891204 0.0
0.175842 0.258165 0.0
0.240451 -0.076889 0.0
0.276424 -0.222516 0.0
0.294566 -0.221431 0.0
0.295114 -0.090330 0.0
0.265161 0.165203 0.0
0.194265 0.461191 0.0
0.101774 0.847711 0.0
0.030630 1.300306 0.0
-0.000772 1.536064 0.0
-0.008694 1.595036 0.0
-0.008118 1.574677 0.0
-0.005617 1.530964 0.0
-0.003517 1.488082 0.0
-0.002354 1.454148 0.0
-0.001928 1.431163 0.0
-0.000923 1.391066 0.0
-0.002388 1.309550 0.0
-0.007901 1.347434 0.0
-0.014113 1.360335 0.0
-0.019844 1.375802 0.0
-0.023516 1.385857 0.0
-0.021444 1.374455 0.0
-0.007429 1.315756 0.0
0.023591 1.163604 0.0
0.081547 0.817828 0.0
0.149981 0.185878 0.0
0.191492 -0.110722 0.0
0.204977 -0.238141 0.0
0.201295 -0.220266 0.0
0.174197 -0.064945 0.0
0.123752 0.220216 0.0
0.051837 0.548990 0.0
-0.027910 0.932150 0.0
-0.076224 1.335326 0.0
-0.083843 1.540065 0.0
-0.072872 1.587986 0.0
-0.057282 1.565561 0.0
-0.042654 1.522951 0.0
-0.030517 1.481857 0.0
-0.020778 1.449471 0.0
-0.012667 1.427303 0.0
-0.004445 1.385698 0.0
-0.002883 1.314820 0.0
-0.009623 1.354417 0.0
-0.017811 1.367752 0.0
-0.026861 1.383165 0.0
-0.035771 1.391076 0.0
-0.040975 1.372369 0.0
-0.034775 1.297628 0.0
-0.007571 1.123508 0.0
0.046780 0.745618 0.0
0.091732 0.144702 0.0
0.099342 -0.118667 0.0
0.086048 -0.230386 0.0
0.055012 -0.193303 0.0
0.003454 -0.013253 0.0
-0.054966 0.277390 0.0
-0.110868 0.619632 0.0
-0.159489 0.989875 0.0
-0.177430 1.343856 0.0
-0.161469 1.523192 0.0
-0.132234 1.564652 0.0
-0.102462 1.543533 0.0
-0.076565 1.504455 0.0
-0.055201 1.466852 0.0
-0.037620 1.437156 0.0
-0.022484 1.416370 0.0
-0.007664 1.373590 0.0
-0.003213 1.320916 0.0
-0.010887 1.362736 0.0
-0.020833 1.377567 0.0
-0.033176 1.394743 0.0
-0.047902 1.403133 0.0
-0.062351 1.379966 0.0
-0.068738 1.290217 0.0
-0.053262 1.088238 0.0
-0.011519 0.684794 0.0
0.001257 0.147798 0.0
-0.028927 -0.099189 0.0
-0.065714 -0.199783 0.0
-0.110558 -0.148025 0.0
-0.160943 0.043412 0.0
-0.208913 0.327115 0.0
-0.247692 0.664588 0.0
-0.269905 1.015753 0.0
-0.261915 1.327931 0.0
-0.226331 1.487573 0.0
-0.182124 1.526830 0.0
-0.140623 1.510083 0.0
-0.105330 1.476715 0.0
-0.076209 1.444107 0.0
-0.051985 1.418096 0.0
-0.030868 1.399177 0.0
-0.010415 1.355510 0.0
-0.003119 1.327248 0.0
-0.010859 1.371819 0.0
-0.021560 1.389131 0.0
-0.035985 1.409948 0.0
-0.055321 1.421991 0.0
-0.078523 1.398760 0.0
-0.098967 1.298254 0.0
-0.102938 1.068696 0.0
-0.091378 0.651033 0.0
-0.112610 0.190014 0.0
-0.166805 -0.057026 0.0
-0.215505 -0.156459 0.0
-0.259943 -0.102068 0.0
-0.299323 0.087220 0.0
-0.331230 0.363184 0.0
-0.351399 0.687468 0.0
-0.351699 1.015385 0.0
-0.323969 1.292579 0.0
-0.274201 1.437572 0.0
-0.219400 1.477822 0.0
-0.169516 1.467706 0.0
-0.127358 1.441639 0.0
-0.092432 1.415136 0.0
-0.063136 1.393548 0.0
-0.037393 1.376866 0.0
-0.012559 1.332535 0.0
-0.002400 1.332767 0.0
-0.008861 1.380499 0.0
-0.018617 1.400907 0.0
-0.032736 1.426716 0.0
-0.053458 1.445280 0.0
-0.081859 1.427073 0.0
-0.114089 1.322614 0.0
-0.139915 1.074133 0.0
-0.164877 0.659000 0.0
-0.216814 0.255217 0.0
-0.285836 0.000988 0.0
-0.341657 -0.109953 0.0
-0.381313 -0.064481 0.0
-0.406491 0.114192 0.0
-0.419801 0.381429 0.0
-0.421011 0.690602 0.0
-0.403453 0.994993 0.0
-0.361922 1.243709 0.0
-0.303418 1.378170 0.0
-0.242558 1.421563 0.0
-0.187890 1.419414 0.0
-0.141659 1.401542 0.0
-0.103125 1.381772 0.0
-0.070551 1.365042 0.0
-0.041752 1.350830 0.0
-0.013995 1.305981 0.0
-0.000987 1.336155 0.0
-0.004601 1.387187 0.0
-0.011376 1.410750 0.0
-0.022210 1.441827 0.0
-0.039737 1.468417 0.0
-0.067180 1.459781 0.0
-0.105306 1.360263 0.0
-0.149545 1.106549 0.0
-0.204196 0.706196 0.0
-0.279091 0.334852 0.0
-0.361173 0.072458 0.0
-0.427265 -0.059510 0.0
-0.466661 -0.035873 0.0
-0.480184 0.124285 0.0
-0.475802 0.380264 0.0
-0.458848 0.676022 0.0
-0.426963 0.960129 0.0
-0.376714 1.186792 0.0
-0.314260 1.314129 0.0
-0.251477 1.361960 0.0
-0.195419 1.368292 0.0
-0.147850 1.358864 0.0
-0.107934 1.346000 0.0
-0.073954 1.334261 0.0
-0.043769 1.322626 0.0
-0.014664 1.277322 0.0
0.001080 1.336061 0.0
0.001767 1.390207 0.0
-0.000224 1.416496 0.0
-0.005204 1.451895 0.0
-0.015204 1.485876 0.0
-0.034424 1.488985 0.0
-0.068860 1.403620 0.0
-0.122096 1.160668 0.0
-0.195845 0.780479 0.0
-0.286161 0.425781 0.0
-0.378721 0.156171 0.0
-0.458123 0.002270 0.0
-0.508473 -0.007906 0.0
-0.520910 0.122279 0.0
-0.503392 0.360370 0.0
-0.469659 0.645230 0.0
-0.425855 0.915232 0.0
-0.370806 1.126391 0.0
-0.308276 1.249547 0.0
-0.247009 1.302491 0.0
-0.192502 1.317197 0.0
-0.146064 1.315952 0.0
-0.106857 1.309788 0.0
-0.073290 1.302926 0.0
-0.043394 1.293880 0.0
-0.014545 1.248113 0.0
0.003652 1.331329 0.0
0.009718 1.388187 0.0
0.013722 1.416504 0.0
0.016047 1.454542 0.0
0.015739 1.493537 0.0
0.009559 1.506725 0.0
-0.010262 1.440137 0.0
-0.057179 1.224304 0.0
-0.137891 0.871304 0.0
-0.239887 0.527267 0.0
-0.344886 0.252244 0.0
-0.439148 0.079862 0.0
-0.505820 0.031524 0.0
-0.528767 0.118232 0.0
-0.507569 0.325701 0.0
-0.460144 0.598741 0.0
-0.405130 0.862902 0.0
-0.347491 1.066033 0.0
-0.287744 1.187628 0.0
-0.230610 1.246009 0.0
-0.180020 1.268582 0.0
-0.136805 1.274915 0.0
-0.100163 1.274976 0.0
-0.068691 1.272698 0.0
-0.040682 1.266204 0.0
-0.013655 1.219913 0.0
0.006505 1.321172 0.0
0.018505 1.380279 0.0
0.029056 1.409857 0.0
0.039161 1.448759 0.0
0.048811 1.489978 0.0
0.055758 1.509517 0.0
0.053453 1.459470 0.0
0.027657 1.277684 0.0
-0.040571 0.966864 0.0
-0.145908 0.639039 0.0
-0.262370 0.361933 0.0
-0.372259 0.174324 0.0
-0.459215 0.090690 0.0
-0.502853 0.125651 0.0
-0.491575 0.285807 0.0
-0.437831 0.537467 0.0
-0.371374 0.802706 0.0
-0.310712 1.007928 0.0
-0.255313 1.130587 0.0
-0.204055 1.194657 0.0
-0.159129 1.224418 0.0
-0.120807 1.237543 0.0
-0.088304 1.243203 0.0
-0.060417 1.245111 0.0
-0.035766 1.241132 0.0
-0.012033 1.194225 0.0
0.009401 1.305265 0.0
0.027389 1.366197 0.0
0.044429 1.396348 0.0
0.062008 1.434584 0.0
0.080830 1.475680 0.0
0.099327 1.498371 0.0
0.111656 1.460592 0.0
0.104715 1.309299 0.0
0.061681 1.046511 0.0
-0.025873 0.752282 0.0
-0.144050 0.483331 0.0
-0.265915 0.284679 0.0
-0.371170 0.172546 0.0
-0.440485 0.156748 0.0
-0.453284 0.256230 0.0
-0.407371 0.467386 0.0
-0.332321 0.731280 0.0
-0.265481 0.951851 0.0
-0.213795 1.079580 0.0
-0.169229 1.149841 0.0
-0.131084 1.186164 0.0
-0.098894 1.205285 0.0
-0.071817 1.215880 0.0
-0.048804 1.221533 0.0
-0.028823 1.220078 0.0
-0.009734 1.172458 0.0
0.012134 1.283730 0.0
0.035731 1.346148 0.0
0.058731 1.376357 0.0
0.082936 1.412791 0.0
0.109531 1.452055 0.0
0.137371 1.475660 0.0
0.161053 1.447293 0.0
0.168318 1.322273 0.0
0.143833 1.101055 0.0
0.081461 0.847663 0.0
-0.016722 0.604311 0.0
-0.136568 0.405410 0.0
-0.252536 0.273038 0.0
-0.343162 0.216197 0.0
-0.386735 0.253153 0.0
-0.365833 0.403648 0.0
-0.293461 0.647596 0.0
-0.217989 0.893222 0.0
-0.166076 1.034610 0.0
-0.128015 1.112184 0.0
-0.097091 1.154752 0.0
-0.071846 1.179262 0.0
-0.051234 1.194214 0.0
-0.034217 1.203170 0.0
-0.020049 1.204292 0.0
-0.006809 1.155915 0.0
0.014544 1.257053 0.0
0.043052 1.320720 0.0
0.071166 1.350670 0.0
0.100851 1.384589 0.0
0.133582 1.420931 0.0
0.168495 1.444031 0.0
0.200595 1.423140 0.0
0.218597 1.321160 0.0
0.208526 1.136724 0.0
0.164434 0.918459 0.0
0.090082 0.706051 0.0
-0.008722 0.522320 0.0
-0.119378 0.382751 0.0
-0.220454 0.298186 0.0
-0.289573 0.283857 0.0
-0.303543 0.366012 0.0
-0.252453 0.561770 0.0
-0.173046 0.824169 0.0
-0.115531 0.994235 0.0
-0.082351 1.081318 0.0
-0.058183 1.130527 0.0
-0.040263 1.160321 0.0
-0.027003 1.179283 0.0
-0.017032 1.191114 0.0
-0.009641 1.194790 0.0
-0.003285 1.145821 0.0
0.016522 1.225987 0.0
0.049034 1.290766 0.0
0.081236 1.320307 0.0
0.115144 1.351359 0.0
0.152391 1.384183 0.0
0.192342 1.405914 0.0
0.230490 1.391008 0.0
0.256753 1.309027 0.0
0.258677 1.157003 0.0
0.230250 0.970699 0.0
0.174282 0.784131 0.0
0.097670 0.619656 0.0
0.007311 0.486429 0.0
-0.087430 0.390324 0.0
-0.168796 0.342204 0.0
-0.213303 0.366141 0.0
-0.197974 0.495223 0.0
-0.129632 0.742968 0.0
-0.066502 0.954790 0.0
-0.034259 1.055340 0.0
-0.015098 1.113177 0.0
-0.004514 1.149167 0.0
0.000515 1.172149 0.0
0.002359 1.186432 0.0
0.002134 1.192305 0.0
0.000774 1.143310 0.0
0.018005 1.191460 0.0
0.053495 1.257290 0.0
0.088686 1.286390 0.0
0.125569 1.314486 0.0
0.165845 1.343533 0.0
0.209105 1.363353 0.0
0.251429 1.353097 0.0
0.284087 1.288017 0.0
0.296244 1.163931 0.0
0.281993 1.006449 0.0
0.242814 0.843527 0.0
0.184411 0.695275 0.0
0.113632 0.571950 0.0
0.036690 0.476487 0.0
-0.039116 0.413214 0.0
-0.099025 0.399547 0.0
-0.118893 0.466356 0.0
-0.080217 0.664816 0.0
-0.021160 0.910754 0.0
0.015181 1.030792 0.0
0.031657 1.102088 0.0
0.034852 1.146476 0.0
0.030784 1.173879 0.0
0.023484 1.190159 0.0
0.014803 1.197484 0.0
0.005105 1.149189 0.0
0.018961 1.154495 0.0
0.056356 1.221370 0.0
0.093423 1.250053 0.0
0.132102 1.275261 0.0
0.174101 1.300483 0.0
0.219232 1.318012 0.0
0.264225 1.311122 0.0
0.301741 1.259820 0.0
0.322558 1.159154 0.0
0.321054 1.026981 0.0
0.297542 0.885686 0.0
0.256222 0.752840 0.0
0.202769 0.638617 0.0
0.142698 0.546833 0.0
0.081032 0.480340 0.0
0.023977 0.449384 0.0
-0.016074 0.476438 0.0
-0.014519 0.614504 0.0
0.027334 0.860155 0.0
0.066575 1.005808 0.0
0.080357 1.096815 0.0
0.076206 1.152706 0.0
0.062600 1.185322 0.0
0.045491 1.203124 0.0
0.027758 1.210933 0.0
0.009451 1.163744 0.0
0.019383 1.116151 0.0
0.057598 1.184104 0.0
0.095458 1.212392 0.0
0.134848 1.234853 0.0
0.177434 1.256307 0.0
0.223240 1.271250 0.0
0.269652 1.266479 0.0
0.310676 1.225923 0.0
0.338622 1.144287 0.0
0.348303 1.033672 0.0
0.339145 0.911665 0.0
0.313974 0.793351 0.0
0.277205 0.688327 0.0
0.233396 0.601003 0.0
0.186300 0.534932 0.0
0.139007 0.499141 0.0
0.096059 0.509680 0.0
0.073115 0.602651 0.0
0.089297 0.813973 0.0
0.119359 0.982688 0.0
0.128257 1.097255 0.0
0.116856 1.167818 0.0
0.093886 1.206785 0.0
0.066961 1.225695 0.0
0.040151 1.232905 0.0
0.013518 1.186713 0.0
0.019272 1.077496 0.0
0.057237 1.146577 0.0
0.094849 1.174447 0.0
0.133961 1.194295 0.0
0.176154 1.212083 0.0
0.221627 1.224194 0.0
0.268389 1.220361 0.0
0.311690 1.187716 0.0
0.345269 1.120969 0.0
0.364499 1.028078 0.0
0.368227 0.922689 0.0
0.358171 0.817554 0.0
0.337628 0.721435 0.0
0.310113 0.639220 0.0
0.278044 0.575880 0.0
0.242444 0.541086 0.0
0.204499 0.548627 0.0
0.171746 0.619401 0.0
0.163865 0.788922 0.0
0.174051 0.967491 0.0
0.173190 1.104414 0.0
0.153720 1.191531 0.0
0.121886 1.237875 0.0
0.085918 1.257499 0.0
0.050845 1.262985 0.0
0.016940 1.217171 0.0
0.018637 1.039587 0.0
0.055304 1.109854 0.0
0.091673 1.137191 0.0
0.129606 1.154507 0.0
0.170554 1.168730 0.0
0.214832 1.177797 0.0
0.261007 1.173821 0.0
0.305452 1.146509 0.0
0.343233 1.090818 0.0
0.370413 1.011819 0.0
0.385596 0.920037 0.0
0.389742 0.826116 0.0
0.385193 0.737964 0.0
0.374181 0.661218 0.0
0.357329 0.602804 0.0
0.333609 0.573481 0.0
0.302281 0.585506 0.0
0.266729 0.650827 0.0
0.240842 0.791262 0.0
0.228343 0.967464 0.0
0.212810 1.120835 0.0
0.183617 1.223775 0.0
0.143516 1.277566 0.0
0.100053 1.297239 0.0
0.058513 1.299858 0.0
0.019302 1.253414 0.0
0.017487 1.003463 0.0
0.051828 1.074971 0.0
0.086006 1.101527 0.0
0.121941 1.116303 0.0
0.160890 1.127037 0.0
0.203216 1.132885 0.0
0.247963 1.127811 0.0
0.292505 1.103533 0.0
0.333168 1.055350 0.0
0.366905 0.986370 0.0
0.392487 0.904722 0.0
0.410436 0.819337 0.0
0.421975 0.737754 0.0
0.427336 0.667079 0.0
0.424646 0.616486 0.0
0.410850 0.597314 0.0
0.384190 0.619661 0.0
0.346695 0.689719 0.0
0.307772 0.817182 0.0
0.275090 0.986726 0.0
0.242959 1.149237 0.0
0.202976 1.264549 0.0
0.155651 1.324217 0.0
0.107067 1.342636 0.0
0.061851 1.341216 0.0
0.020200 1.292917 0.0
0.015825 0.970150 0.0
0.046829 1.042939 0.0
0.077920 1.068291 0.0
0.111111 1.080412 0.0
0.147381 1.087709 0.0
0.187069 1.090200 0.0
0.229617 1.083200 0.0
0.273289 1.059930 0.0
0.315742 1.015836 0.0
0.355233 0.952657 0.0
0.391098 0.876986 0.0
0.423212 0.797009 0.0
0.450689 0.721066 0.0
0.470641 0.658453 0.0
0.478459 0.619985 0.0
0.469961 0.616109 0.0
0.443786 0.653702 0.0
0.402469 0.734490 0.0
0.353405 0.860398 0.0
0.304922 1.024675 0.0
0.257802 1.190538 0.0
0.207907 1.313127 0.0
0.155504 1.375367 0.0
0.105130 1.390444 0.0
0.059892 1.383862 0.0
0.019348 1.332465 0.0
0.013645 0.940680 0.0
0.040318 1.014732 0.0
0.067484 1.038241 0.0
0.097248 1.047507 0.0
0.130199 1.051393 0.0
0.166611 1.050417 0.0
0.206280 1.040766 0.0
0.248306 1.016667 0.0
0.292120 0.972831 0.0
0.337916 0.910376 0.0
0.385213 0.836105 0.0
0.431675 0.759314 0.0
0.472638 0.690323 0.0
0.501739 0.640142 0.0
0.512990 0.619226 0.0
0.503173 0.635183 0.0
0.472907 0.691070 0.0
0.426048 0.785296 0.0
0.369137 0.915567 0.0
0.309748 1.077379 0.0
0.251748 1.242954 0.0
0.195113 1.367240 0.0
0.141307 1.427463 0.0
0.093438 1.436592 0.0
0.052346 1.424045 0.0
0.016680 1.368493 0.0
0.010918 0.916118 0.0
0.032289 0.991249 0.0
0.054779 1.012067 0.0
0.080460 1.018236 0.0
0.109466 1.018706 0.0
0.142049 1.014110 0.0
0.178404 1.001050 0.0
0.218683 0.974077 0.0
0.265027 0.925263 0.0
0.319412 0.857764 0.0
0.379010 0.781822 0.0
0.436714 0.709430 0.0
0.483694 0.652265 0.0
0.512240 0.620553 0.0
0.518084 0.621721 0.0
0.501097 0.659492 0.0
0.464263 0.733863 0.0
0.412149 0.841475 0.0
0.350309 0.978138 0.0
0.285045 1.139461 0.0
0.221550 1.302367 0.0
0.163243 1.422769 0.0
0.113180 1.475803 0.0
0.072705 1.476597 0.0
0.039828 1.458008 0.0
0.012425 1.397598 0.0
0.007594 0.897606 0.0
0.022748 0.973235 0.0
0.039909 0.990430 0.0
0.060821 0.993280 0.0
0.085278 0.990200 0.0
0.113731 0.981580 0.0
0.146985 0.963970 0.0
0.187039 0.930824 0.0
0.239128 0.870083 0.0
0.303945 0.793743 0.0
0.372179 0.718011 0.0
0.431595 0.656120 0.0
0.472480 0.617708 0.0
0.490047 0.608996 0.0
0.484286 0.633194 0.0
0.458125 0.691167 0.0
0.415458 0.781689 0.0
0.360276 0.900944 0.0
0.296909 1.043876 0.0
0.230616 1.205281 0.0
0.167600 1.363057 0.0
0.114101 1.473884 0.0
0.073837 1.515015 0.0
0.045342 1.506356 0.0
0.023843 1.482625 0.0
0.007102 1.417125 0.0
0.003639 0.886374 0.0
0.011763 0.961190 0.0
0.023014 0.974062 0.0
0.038394 0.973355 0.0
0.057844 0.966217 0.0
0.082427 0.952528 0.0
0.113973 0.928221 0.0
0.157286 0.883206 0.0
0.217986 0.804912 0.0
0.289500 0.722583 0.0
0.355197 0.655240 0.0
0.402627 0.612045 0.0
0.426697 0.596829 0.0
0.428066 0.610940 0.0
0.410123 0.654955 0.0
0.376560 0.729131 0.0
0.330494 0.832458 0.0
0.274876 0.960974 0.0
0.213210 1.108878 0.0
0.150559 1.269225 0.0
0.094673 1.418015 0.0
0.053405 1.513691 0.0
0.028584 1.540293 0.0
0.014962 1.523194 0.0
0.006392 1.495855 0.0
0.001400 1.425628 0.0
-0.000803 0.883538 0.0
-0.000387 0.955486 0.0
0.004293 0.963834 0.0
0.013384 0.959113 0.0
0.027749 0.946644 0.0
0.049542 0.925725 0.0
0.081941 0.891079 0.0
0.131632 0.827344 0.0
0.198205 0.733502 0.0
0.264641 0.656042 0.0
0.313680 0.607045 0.0
0.339591 0.586898 0.0
0.343921 0.593576 0.0
0.330702 0.626042 0.0
0.303642 0.684856 0.0
0.265397 0.771037 0.0
0.218092 0.883924 0.0
0.164302 1.018917 0.0
0.107530 1.169373 0.0
0.053900 1.325011 0.0
0.012864 1.459151 0.0
-0.009537 1.536224 0.0
-0.016265 1.549310 0.0
-0.014984 1.526518 0.0
-0.010867 1.496984 0.0
-0.004202 1.422826 0.0
-0.005348 0.889689 0.0
-0.013175 0.956747 0.0
-0.015901 0.960621 0.0
-0.013571 0.950905 0.0
-0.003876 0.930792 0.0
0.016726 0.899182 0.0
0.052226 0.849722 0.0
0.106521 0.764715 0.0
0.168362 0.667717 0.0
0.216098 0.607655 0.0
0.240995 0.581497 0.0
0.245418 0.582111 0.0
0.234084 0.605367 0.0
0.210729 0.650826 0.0
0.177734 0.720127 0.0
0.136867 0.814876 0.0
0.090105 0.934152 0.0
0.040747 1.071836 0.0
-0.005971 1.219944 0.0
-0.043013 1.365112 0.0
-0.063736 1.480810 0.0
-0.066615 1.539844 0.0
-0.057008 1.542811 0.0
-0.042542 1.517270 0.0
-0.026898 1.486470 0.0
-0.009423 1.409200 0.0
-0.009801 0.904837 0.0
-0.026146 0.965770 0.0
-0.036820 0.964998 0.0
-0.041261 0.948638 0.0
-0.035660 0.917763 0.0
-0.015341 0.871291 0.0
0.022528 0.804244 0.0
0.073215 0.705211 0.0
0.117730 0.620865 0.0
0.140885 0.583615 0.0
0.144260 0.577266 0.0
0.133370 0.592809 0.0
0.112060 0.627314 0.0
0.082406 0.681888 0.0
0.045992 0.758474 0.0
0.005107 0.858281 0.0
-0.036846 0.979464 0.0
-0.075954 1.114990 0.0
-0.107753 1.255306 0.0
-0.126756 1.385795 0.0
-0.128792 1.482886 0.0
-0.114965 1.526819 0.0
-0.091870 1.523135 0.0
-0.066453 1.497064 0.0
-0.040933 1.465512 0.0
-0.014013 1.385764 0.0
-0.013990 0.928628 0.0
-0.038704 0.983038 0.0
-0.057363 0.977062 0.0
-0.068267 0.951918 0.0
-0.066545 0.907159 0.0
-0.047865 0.842897 0.0
-0.012897 0.759802 0.0
0.024467 0.661602 0.0
0.045945 0.598481 0.0
0.048285 0.580504 0.0
0.037574 0.587714 0.0
0.017848 0.612976 0.0
-0.008727 0.655032 0.0
-0.040567 0.715664 0.0
-0.075889 0.796433 0.0
-0.112210 0.897528 0.0
-0.146123 1.016083 0.0
-0.173762 1.145118 0.0
-0.191016 1.274232 0.0
-0.193791 1.388648 0.0
-0.180182 1.468460 0.0
-0.153216 1.500454 0.0
-0.119831 1.493021 0.0
-0.085925 1.467854 0.0
-0.052465 1.435742 0.0
-0.017801 1.353950 0.0
-0.017696 0.960314 0.0
-0.050100 1.008471 0.0
-0.076333 0.996521 0.0
-0.093483 0.960515 0.0
-0.096424 0.899782 0.0
-0.082886 0.818056 0.0
-0.058508 0.725297 0.0
-0.039650 0.639886 0.0
-0.037411 0.596479 0.0
-0.047869 0.590622 0.0
-0.065626 0.606064 0.0
-0.088850 0.637575 0.0
-0.116407 0.684565 0.0
-0.146965 0.748529 0.0
-0.178576 0.830502 0.0
-0.208540 0.929745 0.0
-0.233490 1.042729 0.0
-0.249787 1.162407 0.0
-0.253923 1.278331 0.0
-0.243188 1.376589 0.0
-0.217514 1.441235 0.0
-0.181082 1.464281 0.0
-0.140550 1.455277 0.0
-0.100601 1.431742 0.0
-0.061238 1.399031 0.0
-0.020695 1.315454 0.0