# vtk DataFile Version 3.0
Vector Field
ASCII
DATASET RECTILINEAR_GRID
DIMENSIONS 26 100 1
X_COORDINATES 26 double
0.050000 0.150000 0.250000 0.350000 0.450000 0.550000 0.650000 0.750000 0.850000 0.950000 1.050000 1.150000 1.250000 1.350000 1.450000 1.550000 1.650000 1.750000 1.850000 1.950000 2.050000 2.150000 2.250000 2.350000 2.450000 2.550000 
Y_COORDINATES 100 double
0.050000 0.150000 0.250000 0.350000 0.450000 0.550000 0.650000 0.750000 0.850000 0.950000 1.050000 1.150000 1.250000 1.350000 1.450000 1.550000 1.650000 1.750000 1.850000 1.950000 2.050000 2.150000 2.250000 2.350000 2.450000 2.550000 2.650000 2.750000 2.850000 2.950000 3.050000 3.150000 3.250000 3.350000 3.450000 3.550000 3.650000 3.750000 3.850000 3.950000 4.050000 4.150000 4.250000 4.350000 4.450000 4.550000 4.650000 4.750000 4.850000 4.950000 5.050000 5.150000 5.250000 5.350000 5.450000 5.550000 5.650000 5.750000 5.850000 5.950000 6.050000 6.150000 6.250000 6.350000 6.450000 6.550000 6.650000 6.750000 6.850000 6.950000 7.050000 7.150000 7.250000 7.350000 7.450000 7.550000 7.650000 7.750000 7.850000 7.950000 8.050000 8.150000 8.250000 8.350000 8.450000 8.550000 8.650000 8.750000 8.850000 8.950000 9.050000 9.150000 9.250000 9.350000 9.450000 9.550000 9.650000 9.750000 9.850000 9.950000 
Z_COORDINATES 1 double
0.0
POINT_DATA 2600
VECTORS Vektorfeld double
-0.000881 1.000881 0.0
-0.003191 1.001430 0.0
-0.005941 1.001319 0.0
-0.008530 1.001270 0.0
-0.011001 1.001201 0.0
-0.013264 1.001062 0.0
-0.015140 1.000814 0.0
-0.016380 1.000426 0.0
-0.016706 0.999901 0.0
-0.015900 0.999293 0.0
-0.013904 0.998711 0.0
-0.010898 0.998283 0.0
-0.007275 0.998093 0.0
-0.003517 0.998149 0.0
-0.000063 0.998397 0.0
0.002803 0.998737 0.0
0.004938 0.999128 0.0
0.006296 0.999513 0.0
0.006930 0.999853 0.0
0.006945 1.000131 0.0
0.006470 1.000345 0.0
0.005623 1.000502 0.0
0.004503 1.000618 0.0
0.003165 1.000720 0.0
0.001571 1.000874 0.0
0.000348 1.000348 0.0
-0.003140 1.004901 0.0
-0.010277 1.006858 0.0
-0.018212 1.006576 0.0
-0.026024 1.006415 0.0
-0.033606 1.006110 0.0
-0.040634 1.005446 0.0
-0.046540 1.004212 0.0
-0.050525 1.002251 0.0
-0.051688 0.999564 0.0
-0.049294 0.996429 0.0
-0.043135 0.993420 0.0
-0.033782 0.991216 0.0
-0.022505 0.990261 0.0
-0.010856 0.990575 0.0
-0.000207 0.991867 0.0
0.008567 0.993626 0.0
0.015047 0.995624 0.0
0.019133 0.997573 0.0
0.021007 0.999286 0.0
0.021013 1.000678 0.0
0.019544 1.001742 0.0
0.016974 1.002521 0.0
0.013611 1.003083 0.0
0.009678 1.003527 0.0
0.005301 1.004038 0.0
0.001505 1.002202 0.0
-0.005590 1.013630 0.0
-0.017734 1.017410 0.0
-0.030900 1.017124 0.0
-0.044137 1.016915 0.0
-0.057231 1.016285 0.0
-0.069631 1.014698 0.0
-0.080332 1.011567 0.0
-0.087858 1.006409 0.0
-0.090450 0.999161 0.0
-0.086566 0.990555 0.0
-0.075657 0.982227 0.0
-0.058780 0.976179 0.0
-0.038448 0.973689 0.0
-0.017676 0.974727 0.0
0.001024 0.978367 0.0
0.016149 0.983227 0.0
0.027069 0.988624 0.0
0.033743 0.993813 0.0
0.036595 0.998320 0.0
0.036285 1.001947 0.0
0.033534 1.004692 0.0
0.029000 1.006675 0.0
0.023222 1.008070 0.0
0.016603 1.009092 0.0
0.009428 1.010026 0.0
0.002865 1.006572 0.0
-0.008107 1.027326 0.0
-0.025357 1.033109 0.0
-0.043880 1.033114 0.0
-0.062865 1.033147 0.0
-0.082102 1.032385 0.0
-0.100881 1.029776 0.0
-0.117751 1.024059 0.0
-0.130369 1.014061 0.0
-0.135664 0.999395 0.0
-0.130638 0.981411 0.0
-0.113889 0.963713 0.0
-0.087119 0.951044 0.0
-0.054955 0.946327 0.0
-0.022762 0.949124 0.0
0.005438 0.957069 0.0
0.027549 0.967288 0.0
0.042912 0.978280 0.0
0.051783 0.988611 0.0
0.055031 0.997423 0.0
0.053785 1.004399 0.0
0.049181 1.009595 0.0
0.042212 1.013276 0.0
0.033660 1.015799 0.0
0.024099 1.017542 0.0
0.013931 1.018919 0.0
0.004368 1.013805 0.0
-0.010588 1.046021 0.0
-0.032892 1.053968 0.0
-0.056835 1.054721 0.0
-0.081904 1.055594 0.0
-0.108071 1.055342 0.0
-0.134652 1.052178 0.0
-0.159848 1.043724 0.0
-0.180282 1.027447 0.0
-0.190870 1.001891 0.0
-0.185801 0.968820 0.0
-0.161465 0.935220 0.0
-0.120402 0.911704 0.0
-0.071400 0.904501 0.0
-0.024060 0.911417 0.0
0.015653 0.926863 0.0
0.045380 0.945657 0.0
0.064870 0.965058 0.0
0.075094 0.982738 0.0
0.077694 0.997448 0.0
0.074483 1.008832 0.0
0.067131 1.017118 0.0
0.057011 1.022843 0.0
0.045151 1.026644 0.0
0.032265 1.029143 0.0
0.018821 1.030931 0.0
0.006002 1.024175 0.0
-0.012903 1.069512 0.0
-0.039963 1.079840 0.0
-0.069172 1.082002 0.0
-0.100496 1.084707 0.0
-0.134358 1.086259 0.0
-0.170466 1.083949 0.0
-0.207077 1.073760 0.0
-0.239904 1.050673 0.0
-0.261005 1.010354 0.0
-0.259075 0.953358 0.0
-0.224582 0.891853 0.0
-0.160811 0.850236 0.0
-0.085915 0.842072 0.0
-0.017869 0.858461 0.0
0.035651 0.886586 0.0
0.073208 0.918650 0.0
0.095741 0.950043 0.0
0.105696 0.977574 0.0
0.105939 0.999770 0.0
0.099215 1.016445 0.0
0.087851 1.028220 0.0
0.073624 1.036087 0.0
0.057778 1.041106 0.0
0.041105 1.044239 0.0
0.024070 1.046314 0.0
0.007752 1.037929 0.0
-0.014874 1.097289 0.0
-0.046033 1.110282 0.0
-0.079967 1.114704 0.0
-0.117290 1.120651 0.0
-0.159222 1.126109 0.0
-0.206505 1.127491 0.0
-0.258463 1.118786 0.0
-0.311017 1.091030 0.0
-0.353186 1.033267 0.0
-0.363302 0.938630 0.0
-0.315219 0.824006 0.0
-0.211152 0.750244 0.0
-0.093703 0.749718 0.0
0.002761 0.786305 0.0
0.071937 0.836046 0.0
0.115813 0.887756 0.0
0.138814 0.935404 0.0
0.145674 0.975397 0.0
0.140939 1.006440 0.0
0.128528 1.028908 0.0
0.111499 1.044151 0.0
0.092003 1.053880 0.0
0.071405 1.059757 0.0
0.050476 1.063190 0.0
0.029574 1.065301 0.0
0.009577 1.055257 0.0
-0.016292 1.128456 0.0
-0.050443 1.144425 0.0
-0.087989 1.152042 0.0
-0.130251 1.162898 0.0
-0.179496 1.175038 0.0
-0.238159 1.184508 0.0
-0.308197 1.183765 0.0
-0.389028 1.159437 0.0
-0.471032 1.089032 0.0
-0.517820 0.939769 0.0
-0.456925 0.713889 0.0
-0.273423 0.572792 0.0
-0.079947 0.616245 0.0
0.050393 0.692974 0.0
0.133076 0.777518 0.0
0.178918 0.856565 0.0
0.197567 0.924945 0.0
0.196862 0.979699 0.0
0.183397 1.020340 0.0
0.162434 1.048382 0.0
0.137741 1.066400 0.0
0.111698 1.077170 0.0
0.085610 1.083152 0.0
0.060046 1.086288 0.0
0.035123 1.088029 0.0
0.011407 1.076242 0.0
-0.016955 1.161703 0.0
-0.052531 1.180905 0.0
-0.091930 1.192508 0.0
-0.137108 1.209871 0.0
-0.191747 1.231949 0.0
-0.261931 1.256443 0.0
-0.358434 1.278371 0.0
-0.498314 1.285541 0.0
-0.696680 1.243297 0.0
-0.906882 1.042494 0.0
-0.786957 0.430344 0.0
-0.337758 0.223636 0.0
-0.005236 0.439404 0.0
0.147913 0.586325 0.0
0.230690 0.718707 0.0
0.268453 0.831772 0.0
0.274966 0.924577 0.0
0.260283 0.995455 0.0
0.233076 1.045257 0.0
0.200047 1.077456 0.0
0.165503 1.096563 0.0
0.131719 1.106834 0.0
0.099601 1.111694 0.0
0.069259 1.113652 0.0
0.040387 1.114461 0.0
0.013132 1.100781 0.0
-0.016721 1.195379 0.0
-0.051810 1.217894 0.0
-0.090675 1.233783 0.0
-0.135164 1.258263 0.0
-0.188369 1.291401 0.0
-0.253528 1.332333 0.0
-0.330450 1.375906 0.0
-0.404493 1.401929 0.0
-0.426760 1.347543 0.0
-0.207980 1.037301 0.0
0.286592 0.188723 0.0
0.286592 0.129719 0.0
0.152547 0.183213 0.0
0.335784 0.500888 0.0
0.379682 0.677470 0.0
0.390700 0.824228 0.0
0.373407 0.942901 0.0
0.335724 1.029497 0.0
0.288232 1.085914 0.0
0.239124 1.118935 0.0
0.192699 1.136053 0.0
0.150408 1.143418 0.0
0.112189 1.145447 0.0
0.077335 1.145096 0.0
0.044929 1.144295 0.0
0.014609 1.128522 0.0
-0.015582 1.227683 0.0
-0.048263 1.253361 0.0
-0.084238 1.273155 0.0
-0.124706 1.303849 0.0
-0.171273 1.345588 0.0
-0.223597 1.395629 0.0
-0.274603 1.440538 0.0
-0.302713 1.439450 0.0
-0.267672 1.297249 0.0
-0.114090 0.835292 0.0
0.000000 0.068662 0.0
-0.000000 0.213255 0.0
0.000000 0.140202 0.0
0.229848 0.253062 0.0
0.493329 0.630629 0.0
0.521416 0.831964 0.0
0.486573 0.987300 0.0
0.419271 1.090083 0.0
0.344422 1.147670 0.0
0.275410 1.175300 0.0
0.215954 1.185570 0.0
0.165392 1.186753 0.0
0.121831 1.183892 0.0
0.083341 1.179995 0.0
0.048252 1.176890 0.0
0.015684 1.158815 0.0
-0.013655 1.256920 0.0
-0.042302 1.285452 0.0
-0.073576 1.308312 0.0
-0.107938 1.343521 0.0
-0.145839 1.390385 0.0
-0.185312 1.442629 0.0
-0.218529 1.477761 0.0
-0.228722 1.440528 0.0
-0.194266 1.226674 0.0
-0.112914 0.683362 0.0
-0.031322 -0.056401 0.0
0.000000 0.078516 0.0
-0.000000 0.206560 0.0
0.000000 0.114778 0.0
0.290488 0.324472 0.0
0.604369 0.814116 0.0
0.588797 1.055563 0.0
0.494496 1.183423 0.0
0.389735 1.233939 0.0
0.300867 1.246910 0.0
0.230252 1.244032 0.0
0.173706 1.235399 0.0
0.126838 1.225675 0.0
0.086352 1.217187 0.0
0.049897 1.211241 0.0
0.016215 1.190714 0.0
-0.011123 1.281698 0.0
-0.034535 1.312733 0.0
-0.059927 1.337698 0.0
-0.087171 1.375740 0.0
-0.116199 1.425095 0.0
-0.145070 1.476264 0.0
-0.167957 1.500230 0.0
-0.173709 1.434005 0.0
-0.148674 1.173705 0.0
-0.091770 0.598074 0.0
-0.066013 -0.078683 0.0
-0.037637 -0.037748 0.0
0.000000 0.079625 0.0
-0.000000 0.176109 0.0
0.000000 0.078852 0.0
0.355195 0.461501 0.0
0.661799 1.143120 0.0
0.537775 1.314191 0.0
0.404220 1.341488 0.0
0.303796 1.328653 0.0
0.229667 1.307033 0.0
0.172512 1.286098 0.0
0.125874 1.268483 0.0
0.085746 1.254992 0.0
0.049590 1.246046 0.0
0.016126 1.223055 0.0
-0.008180 1.301001 0.0
-0.025568 1.334230 0.0
-0.044393 1.360419 0.0
-0.064094 1.399964 0.0
-0.084511 1.450316 0.0
-0.104569 1.499973 0.0
-0.121426 1.516265 0.0
-0.129436 1.431733 0.0
-0.119620 1.141125 0.0
-0.091404 0.545534 0.0
-0.112734 -0.030570 0.0
-0.144976 -0.082550 0.0
-0.069183 -0.067744 0.0
0.000000 0.078963 0.0
-0.000000 0.128687 0.0
0.000000 0.109266 0.0
0.152892 1.104959 0.0
0.316917 1.378491 0.0
0.307440 1.420221 0.0
0.259788 1.397997 0.0
0.207510 1.364096 0.0
0.160201 1.333498 0.0
0.118665 1.309257 0.0
0.081555 1.291457 0.0
0.047397 1.279894 0.0
0.015444 1.254626 0.0
-0.005003 1.314183 0.0
-0.015933 1.349366 0.0
-0.027846 1.376021 0.0
-0.039826 1.416042 0.0
-0.051723 1.466554 0.0
-0.063377 1.515446 0.0
-0.074890 1.529160 0.0
-0.086626 1.438584 0.0
-0.096631 1.134464 0.0
-0.111150 0.538498 0.0
-0.168757 0.055403 0.0
-0.222714 -0.082324 0.0
-0.210832 -0.155313 0.0
-0.096057 -0.093564 0.0
0.029832 0.072654 0.0
0.029832 0.035637 0.0
0.075669 0.950027 0.0
0.181635 1.337059 0.0
0.213675 1.439090 0.0
0.203387 1.437067 0.0
0.174737 1.405953 0.0
0.140902 1.372786 0.0
0.107109 1.345298 0.0
0.074747 1.324889 0.0
0.043794 1.311572 0.0
0.014313 1.284382 0.0
-0.001752 1.320938 0.0
-0.006092 1.357881 0.0
-0.011021 1.384348 0.0
-0.015282 1.423956 0.0
-0.018626 1.473882 0.0
-0.021290 1.522436 0.0
-0.024956 1.537350 0.0
-0.034821 1.451996 0.0
-0.059854 1.156089 0.0
-0.110321 0.581858 0.0
-0.185246 0.144576 0.0
-0.240245 -0.062540 0.0
-0.250197 -0.177027 0.0
-0.232149 -0.201518 0.0
-0.136411 -0.086995 0.0
-0.032626 -0.038078 0.0
0.032314 0.840007 0.0
0.103062 1.277854 0.0
0.143562 1.425755 0.0
0.153220 1.451032 0.0
0.141936 1.431921 0.0
0.120082 1.402507 0.0
0.094043 1.375409 0.0
0.066810 1.354375 0.0
0.039507 1.340342 0.0
0.012953 1.311648 0.0
0.001415 1.321274 0.0
0.003535 1.359765 0.0
0.005416 1.385513 0.0
0.008583 1.423885 0.0
0.013542 1.472336 0.0
0.020182 1.520006 0.0
0.026756 1.536871 0.0
0.027891 1.461205 0.0
0.008528 1.191276 0.0
-0.057448 0.663114 0.0
-0.148324 0.229120 0.0
-0.204692 -0.035718 0.0
-0.213137 -0.185453 0.0
-0.187050 -0.237228 0.0
-0.131186 -0.202886 0.0
-0.093899 -0.063260 0.0
-0.037337 0.743688 0.0
0.047086 1.219003 0.0
0.094087 1.397104 0.0
0.115343 1.448771 0.0
0.115178 1.445631 0.0
0.101894 1.423934 0.0
0.081979 1.399935 0.0
0.059166 1.379894 0.0
0.035259 1.366032 0.0
0.011585 1.336186 0.0
0.004378 1.315481 0.0
0.012542 1.355275 0.0
0.020780 1.379884 0.0
0.030888 1.416239 0.0
0.043735 1.462176 0.0
0.059559 1.507703 0.0
0.077034 1.525125 0.0
0.091259 1.457590 0.0
0.089097 1.216417 0.0
0.043381 0.749664 0.0
-0.044239 0.321066 0.0
-0.123032 0.007497 0.0
-0.157015 -0.186240 0.0
-0.157193 -0.262349 0.0
-0.149557 -0.241265 0.0
-0.146696 -0.065029 0.0
-0.084147 0.626347 0.0
0.012110 1.155663 0.0
0.065270 1.360283 0.0
0.092129 1.437477 0.0
0.097406 1.451812 0.0
0.088722 1.439720 0.0
0.072530 1.420257 0.0
0.052796 1.402119 0.0
0.031564 1.388947 0.0
0.010369 1.358140 0.0
0.007012 1.304091 0.0
0.020548 1.344965 0.0
0.034436 1.368067 0.0
0.050726 1.401658 0.0
0.070637 1.444000 0.0
0.094795 1.485897 0.0
0.122339 1.501912 0.0
0.148793 1.440125 0.0
0.161904 1.222935 0.0
0.138067 0.812699 0.0
0.075854 0.407864 0.0
0.000565 0.074780 0.0
-0.060208 -0.158767 0.0
-0.095197 -0.254655 0.0
-0.121928 -0.229865 0.0
-0.142780 -0.058438 0.0
-0.091220 0.505647 0.0
0.001385 1.087500 0.0
0.056432 1.320241 0.0
0.083825 1.423267 0.0
0.089305 1.455265 0.0
0.081270 1.452986 0.0
0.066239 1.438215 0.0
0.048057 1.422078 0.0
0.028620 1.409656 0.0
0.009368 1.377877 0.0
0.009202 1.287877 0.0
0.027208 1.329637 0.0
0.045797 1.350916 0.0
0.067220 1.381096 0.0
0.092985 1.418886 0.0
0.124043 1.455795 0.0
0.159928 1.468584 0.0
0.196597 1.410329 0.0
0.222531 1.213687 0.0
0.216998 0.851318 0.0
0.176670 0.471785 0.0
0.121071 0.141748 0.0
0.063334 -0.107223 0.0
0.010728 -0.218603 0.0
-0.036933 -0.191525 0.0
-0.078963 -0.033896 0.0
-0.059560 0.410142 0.0
0.013693 1.017146 0.0
0.066985 1.282255 0.0
0.088939 1.411905 0.0
0.089600 1.460486 0.0
0.078683 1.466716 0.0
0.062590 1.455608 0.0
0.044659 1.440799 0.0
0.026282 1.428749 0.0
0.008537 1.395783 0.0
0.010854 1.267820 0.0
0.032229 1.310314 0.0
0.054359 1.329519 0.0
0.079636 1.355793 0.0
0.109766 1.388294 0.0
0.145939 1.419156 0.0
0.188033 1.427244 0.0
0.232547 1.370485 0.0
0.269082 1.191061 0.0
0.280102 0.868458 0.0
0.261809 0.513266 0.0
0.227926 0.189748 0.0
0.185808 -0.055368 0.0
0.137955 -0.170000 0.0
0.086511 -0.141024 0.0
0.029951 0.014194 0.0
0.008962 0.363638 0.0
0.049674 0.949686 0.0
0.092850 1.253248 0.0
0.103064 1.408744 0.0
0.094879 1.471172 0.0
0.078630 1.483197 0.0
0.060116 1.473733 0.0
0.041745 1.458976 0.0
0.024106 1.446588 0.0
0.007737 1.412057 0.0
0.011893 1.245073 0.0
0.035383 1.288197 0.0
0.059741 1.305148 0.0
0.087432 1.327197 0.0
0.120268 1.353924 0.0
0.159611 1.378010 0.0
0.205669 1.380239 0.0
0.255638 1.323008 0.0
0.300724 1.156917 0.0
0.326954 0.865352 0.0
0.331090 0.530528 0.0
0.321730 0.215728 0.0
0.301326 -0.018825 0.0
0.267319 -0.124683 0.0
0.219860 -0.087436 0.0
0.158402 0.078623 0.0
0.104739 0.373860 0.0
0.103204 0.900288 0.0
0.123341 1.239333 0.0
0.118425 1.417361 0.0
0.099804 1.489361 0.0
0.077645 1.503417 0.0
0.056692 1.492979 0.0
0.038090 1.476702 0.0
0.021461 1.463131 0.0
0.006775 1.426569 0.0
0.012267 1.220914 0.0
0.036519 1.264613 0.0
0.061691 1.279201 0.0
0.090265 1.296880 0.0
0.124071 1.317599 0.0
0.164588 1.334474 0.0
0.212376 1.329929 0.0
0.265497 1.270227 0.0
0.317149 1.112959 0.0
0.357373 0.842857 0.0
0.384456 0.521804 0.0
0.401847 0.216421 0.0
0.404750 -0.002017 0.0
0.385484 -0.088219 0.0
0.341279 -0.032235 0.0
0.274479 0.151679 0.0
0.199377 0.429567 0.0
0.159277 0.886216 0.0
0.148078 1.244467 0.0
0.126537 1.438684 0.0
0.098416 1.514779 0.0
0.071936 1.526638 0.0
0.050063 1.512585 0.0
0.032426 1.493335 0.0
0.017706 1.477846 0.0
0.005451 1.438795 0.0
0.011950 1.196697 0.0
0.035560 1.240969 0.0
0.060091 1.253142 0.0
0.087985 1.266472 0.0
0.121007 1.281180 0.0
0.160713 1.290669 0.0
0.208040 1.278619 0.0
0.262086 1.214370 0.0
0.318336 1.060914 0.0
0.371740 0.801275 0.0
0.422552 0.485491 0.0
0.466647 0.191249 0.0
0.489347 -0.002448 0.0
0.479445 -0.058619 0.0
0.433925 0.027890 0.0
0.358030 0.234249 0.0
0.267221 0.512908 0.0
0.197584 0.912613 0.0
0.156475 1.270378 0.0
0.119742 1.471046 0.0
0.085587 1.544693 0.0
0.058442 1.550349 0.0
0.038508 1.530682 0.0
0.023814 1.507569 0.0
0.012377 1.489769 0.0
0.003629 1.447875 0.0
0.010944 1.173802 0.0
0.032509 1.218689 0.0
0.054952 1.228448 0.0
0.080619 1.237605 0.0
0.111133 1.246510 0.0
0.148094 1.248671 0.0
0.192832 1.228552 0.0
0.245647 1.157576 0.0
0.304744 1.002360 0.0
0.371624 0.739547 0.0
0.446708 0.421323 0.0
0.512953 0.145076 0.0
0.545798 -0.011821 0.0
0.532726 -0.026272 0.0
0.475442 0.098347 0.0
0.387433 0.327695 0.0
0.286939 0.610766 0.0
0.200208 0.971123 0.0
0.138704 1.314482 0.0
0.092538 1.509841 0.0
0.058514 1.574079 0.0
0.035921 1.570700 0.0
0.021466 1.544720 0.0
0.011964 1.517727 0.0
0.005347 1.497664 0.0
0.001285 1.452789 0.0
0.009274 1.153584 0.0
0.027446 1.199170 0.0
0.046409 1.206562 0.0
0.068363 1.211870 0.0
0.094725 1.215369 0.0
0.127107 1.210469 0.0
0.167240 1.181882 0.0
0.216791 1.101881 0.0
0.278026 0.937723 0.0
0.360227 0.655104 0.0
0.456882 0.334026 0.0
0.532794 0.090216 0.0
0.558279 -0.015291 0.0
0.525815 0.022734 0.0
0.449814 0.182626 0.0
0.352992 0.428246 0.0
0.250733 0.712969 0.0
0.158651 1.047733 0.0
0.089102 1.368926 0.0
0.043763 1.546902 0.0
0.018412 1.596394 0.0
0.005793 1.583596 0.0
-0.000161 1.552233 0.0
-0.002665 1.522221 0.0
-0.003166 1.500288 0.0
-0.001506 1.452568 0.0
0.006990 1.137320 0.0
0.020528 1.183723 0.0
0.034723 1.188851 0.0
0.051574 1.190776 0.0
0.072264 1.189411 0.0
0.098442 1.177866 0.0
0.132225 1.140569 0.0
0.176719 1.049150 0.0
0.241907 0.864032 0.0
0.340739 0.547762 0.0
0.446477 0.238975 0.0
0.506634 0.049199 0.0
0.500217 0.006657 0.0
0.441550 0.091918 0.0
0.355994 0.274998 0.0
0.260009 0.528682 0.0
0.162521 0.812281 0.0
0.073604 1.129419 0.0
0.010774 1.419618 0.0
-0.019376 1.571698 0.0
-0.028669 1.606242 0.0
-0.028566 1.586264 0.0
-0.024611 1.551564 0.0
-0.019120 1.519904 0.0
-0.012689 1.496674 0.0
-0.004614 1.446448 0.0
0.004161 1.126170 0.0
0.011995 1.173503 0.0
0.020284 1.176587 0.0
0.030730 1.175743 0.0
0.044387 1.170097 0.0
0.063148 1.152240 0.0
0.089583 1.105977 0.0
0.128085 1.000745 0.0
0.201078 0.774257 0.0
0.310732 0.429051 0.0
0.399393 0.163287 0.0
0.421052 0.043071 0.0
0.382814 0.057440 0.0
0.309139 0.173478 0.0
0.219237 0.368895 0.0
0.125236 0.624771 0.0
0.035420 0.903496 0.0
-0.036351 1.198892 0.0
-0.075435 1.452060 0.0
-0.084342 1.578312 0.0
-0.077082 1.601661 0.0
-0.064093 1.577753 0.0
-0.049993 1.542019 0.0
-0.036232 1.510196 0.0
-0.022596 1.486316 0.0
-0.007849 1.433985 0.0
0.000875 1.121134 0.0
0.002196 1.169383 0.0
0.003651 1.170961 0.0
0.006423 1.168152 0.0
0.011761 1.158694 0.0
0.022457 1.134185 0.0
0.042253 1.077803 0.0
0.076746 0.955924 0.0
0.157090 0.665740 0.0
0.260171 0.324832 0.0
0.311529 0.127487 0.0
0.296403 0.072339 0.0
0.236400 0.126411 0.0
0.152746 0.261837 0.0
0.060975 0.462210 0.0
-0.023782 0.710213 0.0
-0.092319 0.976406 0.0
-0.138597 1.244031 0.0
-0.154702 1.462110 0.0
-0.144871 1.567338 0.0
-0.122781 1.583285 0.0
-0.098024 1.558383 0.0
-0.074457 1.523722 0.0
-0.052828 1.493103 0.0
-0.032238 1.469183 0.0
-0.011002 1.415134 0.0
-0.002648 1.122907 0.0
-0.008307 1.171947 0.0
-0.014399 1.173035 0.0
-0.020433 1.169340 0.0
-0.024712 1.156446 0.0
-0.022701 1.123726 0.0
-0.007255 1.053019 0.0
0.029525 0.909435 0.0
0.106694 0.554717 0.0
0.179412 0.260056 0.0
0.188668 0.131648 0.0
0.147594 0.124379 0.0
0.077083 0.204885 0.0
-0.005055 0.349155 0.0
-0.083804 0.545412 0.0
-0.150272 0.778235 0.0
-0.199445 1.026095 0.0
-0.225051 1.266227 0.0
-0.222172 1.453139 0.0
-0.197021 1.541327 0.0
-0.162750 1.552934 0.0
-0.128141 1.529367 0.0
-0.096441 1.497471 0.0
-0.067873 1.469156 0.0
-0.041024 1.445691 0.0
-0.013883 1.390250 0.0
-0.006072 1.131627 0.0
-0.018690 1.181504 0.0
-0.032641 1.183522 0.0
-0.048117 1.180364 0.0
-0.062903 1.164487 0.0
-0.070510 1.121281 0.0
-0.059661 1.029168 0.0
-0.016606 0.853452 0.0
0.044154 0.472771 0.0
0.071647 0.241791 0.0
0.048622 0.163681 0.0
-0.003632 0.185673 0.0
-0.069505 0.279975 0.0
-0.138407 0.425105 0.0
-0.202195 0.612000 0.0
-0.253216 0.829137 0.0
-0.285438 1.056588 0.0
-0.293536 1.269437 0.0
-0.275450 1.428964 0.0
-0.238564 1.503465 0.0
-0.195083 1.513045 0.0
-0.152909 1.492474 0.0
-0.114785 1.464541 0.0
-0.080560 1.439292 0.0
-0.048479 1.416624 0.0
-0.016336 1.360031 0.0
-0.009023 1.146722 0.0
-0.027857 1.197860 0.0
-0.049181 1.202440 0.0
-0.073783 1.201524 0.0
-0.098992 1.183322 0.0
-0.116540 1.127601 0.0
-0.112591 1.008049 0.0
-0.073803 0.792728 0.0
-0.038669 0.437601 0.0
-0.048193 0.258992 0.0
-0.086490 0.207803 0.0
-0.136833 0.244148 0.0
-0.192802 0.343342 0.0
-0.248598 0.486435 0.0
-0.297780 0.663640 0.0
-0.333582 0.864320 0.0
-0.350260 1.070305 0.0
-0.343688 1.257245 0.0
-0.313895 1.393278 0.0
-0.268632 1.457002 0.0
-0.218839 1.466235 0.0
-0.171450 1.449721 0.0
-0.128751 1.426470 0.0
-0.090337 1.404723 0.0
-0.054268 1.383043 0.0
-0.018247 1.325449 0.0
-0.011094 1.166839 0.0
-0.034508 1.219990 0.0
-0.061607 1.228734 0.0
-0.093664 1.231889 0.0
-0.127897 1.212398 0.0
-0.155065 1.143242 0.0
-0.161237 0.994631 0.0
-0.141166 0.747287 0.0
-0.134831 0.441573 0.0
-0.163840 0.293554 0.0
-0.204815 0.252514 0.0
-0.248953 0.293917 0.0
-0.293644 0.394233 0.0
-0.335812 0.533507 0.0
-0.370482 0.700421 0.0
-0.391754 0.884612 0.0
-0.394619 1.069556 0.0
-0.376200 1.233002 0.0
-0.337913 1.349442 0.0
-0.287283 1.404945 0.0
-0.233813 1.415028 0.0
-0.183423 1.403148 0.0
-0.137974 1.384897 0.0
-0.096895 1.366805 0.0
-0.058185 1.346182 0.0
-0.019548 1.287653 0.0
-0.011913 1.189846 0.0
-0.037410 1.245894 0.0
-0.067530 1.260050 0.0
-0.103965 1.269064 0.0
-0.144629 1.250120 0.0
-0.180879 1.168939 0.0
-0.200951 0.995177 0.0
-0.206343 0.732063 0.0
-0.225114 0.469233 0.0
-0.263660 0.333450 0.0
-0.303362 0.293295 0.0
-0.339595 0.333506 0.0
-0.372081 0.431821 0.0
-0.400239 0.566247 0.0
-0.420803 0.722916 0.0
-0.428777 0.891362 0.0
-0.419924 1.056820 0.0
-0.392442 1.199837 0.0
-0.348551 1.300429 0.0
-0.295165 1.349941 0.0
-0.240307 1.361704 0.0
-0.188891 1.354665 0.0
-0.142385 1.341424 0.0
-0.100122 1.326935 0.0
-0.060143 1.307362 0.0
-0.020206 1.247899 0.0
-0.011263 1.213023 0.0
-0.035792 1.272744 0.0
-0.065346 1.292874 0.0
-0.101933 1.309262 0.0
-0.145241 1.293894 0.0
-0.189142 1.205317 0.0
-0.224895 1.014623 0.0
-0.255147 0.748261 0.0
-0.294254 0.510913 0.0
-0.339934 0.375996 0.0
-0.379070 0.329587 0.0
-0.408389 0.362766 0.0
-0.429097 0.455755 0.0
-0.443330 0.584705 0.0
-0.450352 0.732044 0.0
-0.446474 0.886329 0.0
-0.428116 1.034642 0.0
-0.394181 1.160598 0.0
-0.347211 1.248807 0.0
-0.293270 1.294237 0.0
-0.238944 1.308225 0.0
-0.188192 1.305977 0.0
-0.142130 1.297545 0.0
-0.100059 1.286480 0.0
-0.060144 1.267923 0.0
-0.020218 1.207475 0.0
-0.009170 1.233456 0.0
-0.029669 1.297339 0.0
-0.054909 1.323072 0.0
-0.086866 1.347609 0.0
-0.127726 1.339715 0.0
-0.175709 1.251379 0.0
-0.225321 1.053925 0.0
-0.276345 0.790235 0.0
-0.332119 0.563820 0.0
-0.386133 0.422784 0.0
-0.428253 0.364054 0.0
-0.454565 0.383928 0.0
-0.466225 0.466960 0.0
-0.467675 0.589185 0.0
-0.461786 0.728697 0.0
-0.447313 0.871324 0.0
-0.421463 1.005439 0.0
-0.383376 1.117780 0.0
-0.335451 1.196729 0.0
-0.282754 1.239677 0.0
-0.230516 1.256219 0.0
-0.181826 1.258541 0.0
-0.137497 1.254590 0.0
-0.096853 1.246719 0.0
-0.058253 1.229168 0.0
-0.019603 1.167655 0.0
-0.005939 1.248565 0.0
-0.019921 1.316710 0.0
-0.037764 1.346783 0.0
-0.060796 1.378887 0.0
-0.093307 1.381809 0.0
-0.138987 1.302950 0.0
-0.196755 1.109734 0.0
-0.262872 0.851566 0.0
-0.332371 0.627762 0.0
-0.396481 0.476968 0.0
-0.446218 0.401727 0.0
-0.475852 0.402202 0.0
-0.484322 0.468816 0.0
-0.476408 0.580865 0.0
-0.458762 0.713482 0.0
-0.434408 0.847712 0.0
-0.402449 0.971241 0.0
-0.362018 1.073461 0.0
-0.314837 1.145942 0.0
-0.264805 1.187735 0.0
-0.215882 1.207000 0.0
-0.170379 1.213566 0.0
-0.128856 1.213714 0.0
-0.090719 1.208816 0.0
-0.054579 1.192331 0.0
-0.018394 1.129657 0.0
-0.002069 1.256572 0.0
-0.008003 1.328619 0.0
-0.016673 1.361388 0.0
-0.028288 1.398929 0.0
-0.047435 1.413424 0.0
-0.082469 1.352048 0.0
-0.139000 1.174934 0.0
-0.212884 0.926367 0.0
-0.292805 0.702382 0.0
-0.367505 0.541159 0.0
-0.428359 0.448125 0.0
-0.468039 0.425118 0.0
-0.481829 0.468160 0.0
-0.471578 0.563356 0.0
-0.445435 0.687202 0.0
-0.411725 0.815928 0.0
-0.373916 0.933258 0.0
-0.332087 1.029184 0.0
-0.286852 1.097804 0.0
-0.240561 1.139550 0.0
-0.195895 1.161596 0.0
-0.154461 1.172032 0.0
-0.116622 1.175886 0.0
-0.081908 1.173793 0.0
-0.049251 1.158555 0.0
-0.016633 1.094630 0.0
0.002005 1.256636 0.0
0.004652 1.331843 0.0
0.005474 1.366011 0.0
0.005312 1.406083 0.0
0.001199 1.429531 0.0
-0.016206 1.388380 0.0
-0.059707 1.238633 0.0
-0.131275 1.008120 0.0
-0.216749 0.786025 0.0
-0.300534 0.616000 0.0
-0.373176 0.506779 0.0
-0.426960 0.459929 0.0
-0.454285 0.474464 0.0
-0.451787 0.544302 0.0
-0.424531 0.652856 0.0
-0.383799 0.775831 0.0
-0.339519 0.891267 0.0
-0.295784 0.985611 0.0
-0.252917 1.053275 0.0
-0.211086 1.095957 0.0
-0.171354 1.120791 0.0
-0.134667 1.134717 0.0
-0.101214 1.141909 0.0
-0.070685 1.142527 0.0
-0.042402 1.128881 0.0
-0.014357 1.063641 0.0
0.005993 1.248637 0.0
0.016968 1.326220 0.0
0.026717 1.361063 0.0
0.036730 1.401181 0.0
0.045634 1.429642 0.0
0.045740 1.405568 0.0
0.023624 1.287061 0.0
-0.031872 1.086755 0.0
-0.113987 0.874979 0.0
-0.202978 0.699822 0.0
-0.285110 0.577730 0.0
-0.352571 0.510223 0.0
-0.397266 0.496190 0.0
-0.411685 0.534498 0.0
-0.394335 0.618054 0.0
-0.353555 0.729121 0.0
-0.303651 0.843793 0.0
-0.256120 0.941819 0.0
-0.214654 1.012734 0.0
-0.177433 1.057447 0.0
-0.142993 1.085128 0.0
-0.111529 1.102229 0.0
-0.083030 1.112446 0.0
-0.057311 1.115742 0.0
-0.034153 1.104225 0.0
-0.011593 1.037691 0.0
0.009650 1.232995 0.0
0.028176 1.312361 0.0
0.045796 1.347553 0.0
0.064336 1.386138 0.0
0.083616 1.416500 0.0
0.097428 1.404793 0.0
0.093577 1.313803 0.0
0.060530 1.148556 0.0
-0.003491 0.959315 0.0
-0.087642 0.788629 0.0
-0.174511 0.657925 0.0
-0.251549 0.574527 0.0
-0.311438 0.536470 0.0
-0.345981 0.543180 0.0
-0.348223 0.594263 0.0
-0.318746 0.682655 0.0
-0.269163 0.790771 0.0
-0.216971 0.895119 0.0
-0.174424 0.975421 0.0
-0.140841 1.023956 0.0
-0.111511 1.054848 0.0
-0.085487 1.075020 0.0
-0.062398 1.088066 0.0
-0.042033 1.094038 0.0
-0.024595 1.085333 0.0
-0.008335 1.017763 0.0
0.012808 1.210537 0.0
0.037784 1.291317 0.0
0.061960 1.326802 0.0
0.087262 1.363048 0.0
0.114327 1.393245 0.0
0.138282 1.390282 0.0
0.148360 1.322087 0.0
0.133347 1.188332 0.0
0.090082 1.026824 0.0
0.023926 0.871425 0.0
-0.055704 0.741628 0.0
-0.135670 0.647829 0.0
-0.204677 0.592064 0.0
-0.255418 0.572869 0.0
-0.279790 0.591187 0.0
-0.271582 0.648047 0.0
-0.233507 0.737720 0.0
-0.180978 0.843449 0.0
-0.135340 0.938906 0.0
-0.102942 0.994491 0.0
-0.077665 1.029707 0.0
-0.056881 1.053353 0.0
-0.039542 1.069305 0.0
-0.025077 1.077969 0.0
-0.013808 1.072695 0.0
-0.004547 1.004881 0.0
0.015373 1.182356 0.0
0.045532 1.264362 0.0
0.074863 1.300250 0.0
0.105229 1.333932 0.0
0.137785 1.362739 0.0
0.168860 1.365757 0.0
0.189249 1.316145 0.0
0.188512 1.210024 0.0
0.162393 1.074516 0.0
0.114324 0.937959 0.0
0.051239 0.817809 0.0
-0.019501 0.722355 0.0
-0.089102 0.656146 0.0
-0.148345 0.618772 0.0
-0.189535 0.610846 0.0
-0.204698 0.635344 0.0
-0.188360 0.696011 0.0
-0.145878 0.790146 0.0
-0.099430 0.900123 0.0
-0.065524 0.966970 0.0
-0.042350 1.008777 0.0
-0.026053 1.037202 0.0
-0.014610 1.056674 0.0
-0.006635 1.068160 0.0
-0.001949 1.066550 0.0
-0.000259 1.000075 0.0
0.017306 1.149677 0.0
0.051335 1.232851 0.0
0.084440 1.269325 0.0
0.118345 1.300586 0.0
0.154494 1.327380 0.0
0.190271 1.334264 0.0
0.218083 1.299437 0.0
0.228600 1.216953 0.0
0.216951 1.105356 0.0
0.184758 0.987381 0.0
0.137298 0.878931 0.0
0.080725 0.788548 0.0
0.020793 0.719486 0.0
-0.036952 0.672420 0.0
-0.085917 0.647354 0.0
-0.118263 0.646345 0.0
-0.125787 0.676197 0.0
-0.103917 0.745608 0.0
-0.064614 0.858911 0.0
-0.029408 0.939069 0.0
-0.006465 0.990561 0.0
0.006476 1.026180 0.0
0.012164 1.050564 0.0
0.013145 1.065314 0.0
0.010608 1.067247 0.0
0.004240 1.004056 0.0
0.018608 1.113763 0.0
0.055213 1.198132 0.0
0.090790 1.235363 0.0
0.126913 1.264520 0.0
0.165149 1.289061 0.0
0.203764 1.298192 0.0
0.236717 1.274744 0.0
0.255965 1.211881 0.0
0.256462 1.121580 0.0
0.238379 1.021433 0.0
0.205379 0.925338 0.0
0.162362 0.841731 0.0
0.114107 0.774489 0.0
0.064823 0.724445 0.0
0.018348 0.690770 0.0
-0.020682 0.674304 0.0
-0.045370 0.680448 0.0
-0.047215 0.721332 0.0
-0.024361 0.821031 0.0
0.007150 0.910232 0.0
0.029710 0.973896 0.0
0.039904 1.019710 0.0
0.040153 1.051097 0.0
0.033913 1.070041 0.0
0.023543 1.075425 0.0
0.008747 1.017042 0.0
0.019299 1.075856 0.0
0.057240 1.161494 0.0
0.094086 1.199577 0.0
0.131298 1.226971 0.0
0.170450 1.249221 0.0
0.210503 1.259364 0.0
0.246811 1.244311 0.0
0.272663 1.197213 0.0
0.283165 1.125249 0.0
0.277435 1.041577 0.0
0.257711 0.957918 0.0
0.227661 0.882218 0.0
0.191154 0.818763 0.0
0.151648 0.768961 0.0
0.112031 0.732346 0.0
0.074999 0.708791 0.0
0.044083 0.701565 0.0
0.025279 0.720865 0.0
0.028343 0.795581 0.0
0.048461 0.884053 0.0
0.066718 0.959258 0.0
0.073450 1.017420 0.0
0.068467 1.058120 0.0
0.055051 1.082675 0.0
0.036519 1.091693 0.0
0.013150 1.038939 0.0
0.019403 1.037154 0.0
0.057502 1.124155 0.0
0.094512 1.163060 0.0
0.131848 1.188941 0.0
0.171013 1.208935 0.0
0.211470 1.219140 0.0
0.249755 1.209941 0.0
0.280427 1.175060 0.0
0.298973 1.118354 0.0
0.303824 1.049352 0.0
0.296054 0.977637 0.0
0.278199 0.910404 0.0
0.253250 0.852034 0.0
0.224029 0.804417 0.0
0.192850 0.767686 0.0
0.161450 0.741883 0.0
0.131457 0.729379 0.0
0.105884 0.737428 0.0
0.093616 0.788222 0.0
0.097669 0.867241 0.0
0.106160 0.949322 0.0
0.107023 1.019761 0.0
0.096284 1.071502 0.0
0.075752 1.103242 0.0
0.049068 1.116342 0.0
0.017319 1.069408 0.0
0.018943 0.998808 0.0
0.056077 1.087268 0.0
0.092226 1.126789 0.0
0.128861 1.151241 0.0
0.167342 1.168989 0.0
0.207452 1.178518 0.0
0.246668 1.173062 0.0
0.280690 1.147245 0.0
0.305534 1.102777 0.0
0.319259 1.046353 0.0
0.322057 0.985608 0.0
0.315507 0.926838 0.0
0.301790 0.874267 0.0
0.283103 0.830091 0.0
0.261213 0.795081 0.0
0.237179 0.769923 0.0
0.211562 0.756948 0.0
0.185507 0.761487 0.0
0.164448 0.797491 0.0
0.153596 0.864771 0.0
0.148855 0.948041 0.0
0.140691 1.028342 0.0
0.122861 1.091490 0.0
0.095080 1.131566 0.0
0.060561 1.149222 0.0
0.021057 1.107783 0.0
0.017931 0.961934 0.0
0.053014 1.051925 0.0
0.087360 1.091636 0.0
0.122588 1.114530 0.0
0.159844 1.129963 0.0
0.199059 1.138219 0.0
0.238420 1.134784 0.0
0.274615 1.115305 0.0
0.304266 1.080222 0.0
0.325328 1.034122 0.0
0.337404 0.982965 0.0
0.341319 0.932116 0.0
0.338521 0.885503 0.0
0.330525 0.845538 0.0
0.318400 0.813650 0.0
0.302467 0.791321 0.0
0.282480 0.781154 0.0
0.258481 0.787335 0.0
0.233164 0.818018 0.0
0.211048 0.877212 0.0
0.192821 0.958569 0.0
0.173473 1.045326 0.0
0.147098 1.118712 0.0
0.111890 1.167332 0.0
0.070192 1.189672 0.0