# vtk DataFile Version 3.0
Scalar Field
ASCII
DATASET RECTILINEAR_GRID
DIMENSIONS 26 100 1
X_COORDINATES 26 double
0.050000 0.150000 0.250000 0.350000 0.450000 0.550000 0.650000 0.750000 0.850000 0.950000 1.050000 1.150000 1.250000 1.350000 1.450000 1.550000 1.650000 1.750000 1.850000 1.950000 2.050000 2.150000 2.250000 2.350000 2.450000 2.550000 
Y_COORDINATES 100 double
0.050000 0.150000 0.250000 0.350000 0.450000 0.550000 0.650000 0.750000 0.850000 0.950000 1.050000 1.150000 1.250000 1.350000 1.450000 1.550000 1.650000 1.750000 1.850000 1.950000 2.050000 2.150000 2.250000 2.350000 2.450000 2.550000 2.650000 2.750000 2.850000 2.950000 3.050000 3.150000 3.250000 3.350000 3.450000 3.550000 3.650000 3.750000 3.850000 3.950000 4.050000 4.150000 4.250000 4.350000 4.450000 4.550000 4.650000 4.750000 4.850000 4.950000 5.050000 5.150000 5.250000 5.350000 5.450000 5.550000 5.650000 5.750000 5.850000 5.950000 6.050000 6.150000 6.250000 6.350000 6.450000 6.550000 6.650000 6.750000 6.850000 6.950000 7.050000 7.150000 7.250000 7.350000 7.450000 7.550000 7.650000 7.750000 7.850000 7.950000 8.050000 8.150000 8.250000 8.350000 8.450000 8.550000 8.650000 8.750000 8.850000 8.950000 9.050000 9.150000 9.250000 9.350000 9.450000 9.550000 9.650000 9.750000 9.850000 9.950000 
Z_COORDINATES 1 double
0.0
POINT_DATA 2600
SCALARS Skalarfeld double 1
LOOKUP_TABLE default
0.199818
0.203103
0.211789
0.225437
0.243835
0.266683
0.293407
0.323007
0.353943
0.384147
0.411253
0.433025
0.447864
0.455136
0.455183
0.449046
0.438145
0.424087
0.408428
0.392523
0.377464
0.364077
0.352966
0.344568
0.339262
0.337628
0.196003
0.200156
0.209074
0.222836
0.241396
0.264555
0.291824
0.322265
0.354331
0.385836
0.414171
0.436820
0.452004
0.459083
0.458559
0.451636
0.439849
0.424937
0.408536
0.392034
0.376523
0.362809
0.351460
0.342857
0.337245
0.334698
0.187949
0.192352
0.201419
0.215341
0.234264
0.258213
0.286956
0.319763
0.355117
0.390501
0.422556
0.447851
0.464030
0.470479
0.468231
0.458967
0.444590
0.427217
0.408703
0.390522
0.373755
0.359147
0.347174
0.338120
0.332124
0.329193
0.175228
0.179614
0.188625
0.202558
0.221798
0.246742
0.277639
0.314255
0.355311
0.397823
0.436944
0.467214
0.485049
0.490064
0.484566
0.471003
0.452042
0.430443
0.408400
0.387487
0.368735
0.352756
0.339872
0.330223
0.323833
0.320667
0.157556
0.161703
0.170321
0.183839
0.202938
0.228531
0.261665
0.303143
0.352583
0.406765
0.458211
0.497002
0.517042
0.519004
0.508015
0.487472
0.461459
0.433651
0.406640
0.382041
0.360725
0.343061
0.329127
0.318851
0.312105
0.308777
0.134750
0.138384
0.146088
0.158396
0.176269
0.201201
0.235361
0.281458
0.341658
0.414155
0.487407
0.540849
0.562971
0.558683
0.538709
0.507393
0.471275
0.435112
0.401799
0.372803
0.348631
0.329243
0.314343
0.303569
0.296594
0.293190
0.106797
0.109579
0.115646
0.125527
0.140270
0.161747
0.193223
0.240155
0.310476
0.410275
0.524966
0.605053
0.626250
0.610277
0.575322
0.528158
0.478452
0.431903
0.391369
0.357788
0.330978
0.310250
0.294794
0.283878
0.276931
0.273595
0.073980
0.075533
0.079111
0.085006
0.093915
0.107315
0.128399
0.164295
0.231449
0.363483
0.566933
0.700318
0.708062
0.672560
0.612985
0.544018
0.477530
0.419378
0.371708
0.334331
0.305924
0.284871
0.269712
0.259295
0.252806
0.249755
0.036999
0.036994
0.037284
0.037633
0.037740
0.037261
0.035894
0.033423
0.034620
0.131141
0.649071
0.832932
0.801488
0.733215
0.638699
0.543914
0.459534
0.390607
0.337842
0.299115
0.271392
0.251882
0.238420
0.229480
0.224059
0.221590
-0.002959
-0.004698
-0.008169
-0.014399
-0.025455
-0.045659
-0.084562
-0.164327
-0.340443
-0.677715
-0.014322
0.858900
0.884868
0.751039
0.626210
0.510018
0.411075
0.335910
0.283468
0.248427
0.225392
0.210331
0.200561
0.194394
0.190815
0.189286
-0.044289
-0.047671
-0.054700
-0.066963
-0.087524
-0.121987
-0.179918
-0.275144
-0.418863
-0.585022
-0.508379
0.000000
0.796659
0.708450
0.557938
0.424156
0.314315
0.242297
0.201267
0.178846
0.166647
0.160000
0.156399
0.154506
0.153617
0.153406
-0.085195
-0.089908
-0.099747
-0.116422
-0.142939
-0.183798
-0.243979
-0.324145
-0.408991
-0.454949
-0.431737
-0.434555
0.000000
0.587769
0.467087
0.275407
0.144000
0.092210
0.084171
0.088766
0.095668
0.102043
0.107183
0.110993
0.113552
0.114976
-0.123966
-0.129612
-0.141355
-0.160709
-0.190058
-0.232087
-0.287495
-0.350140
-0.403169
-0.427592
-0.431459
-0.437372
-0.445337
0.000000
0.293273
0.119459
-0.153684
-0.137729
-0.069205
-0.018081
0.016450
0.039731
0.055451
0.065856
0.072285
0.075501
-0.159152
-0.165382
-0.178271
-0.199035
-0.229374
-0.270448
-0.320154
-0.369244
-0.402653
-0.414398
-0.425634
-0.439085
-0.453303
-0.465923
0.000000
-0.325906
-0.771272
-0.434563
-0.237543
-0.127351
-0.061964
-0.021185
0.005021
0.021811
0.031938
0.036844
-0.189620
-0.196192
-0.209738
-0.231238
-0.261937
-0.302168
-0.348481
-0.390042
-0.411887
-0.414389
-0.428049
-0.446269
-0.462147
-0.478542
-0.504782
-0.630779
-0.680983
-0.497261
-0.324827
-0.203568
-0.124407
-0.073095
-0.039667
-0.018180
-0.005244
0.000952
-0.214532
-0.221302
-0.235249
-0.257236
-0.288392
-0.329007
-0.375736
-0.417424
-0.437333
-0.438069
-0.447560
-0.465128
-0.478954
-0.496628
-0.531022
-0.580575
-0.577882
-0.480498
-0.351113
-0.242998
-0.165040
-0.111480
-0.075391
-0.051748
-0.037378
-0.030499
-0.233310
-0.240182
-0.254384
-0.276745
-0.308532
-0.350602
-0.401063
-0.450492
-0.479322
-0.483245
-0.486698
-0.493207
-0.497329
-0.510043
-0.544251
-0.572301
-0.532472
-0.443164
-0.342496
-0.253361
-0.184888
-0.135409
-0.100836
-0.077622
-0.063301
-0.056411
-0.245619
-0.252489
-0.266811
-0.289330
-0.321456
-0.364671
-0.419193
-0.480096
-0.529219
-0.541581
-0.537816
-0.527848
-0.514123
-0.507185
-0.516023
-0.516782
-0.466430
-0.389352
-0.311067
-0.242479
-0.187611
-0.146264
-0.116325
-0.095672
-0.082698
-0.076404
-0.251211
-0.257949
-0.272058
-0.294281
-0.326191
-0.369763
-0.426374
-0.493729
-0.559895
-0.597480
-0.589835
-0.562714
-0.524854
-0.486346
-0.456697
-0.426451
-0.375371
-0.319542
-0.265081
-0.217321
-0.177674
-0.146654
-0.123317
-0.106700
-0.096026
-0.090786
-0.250304
-0.256721
-0.270224
-0.291539
-0.322276
-0.364610
-0.420453
-0.488704
-0.559322
-0.609282
-0.618946
-0.582419
-0.523191
-0.454832
-0.389189
-0.330581
-0.278868
-0.243189
-0.211947
-0.183731
-0.159579
-0.139737
-0.123945
-0.112155
-0.104326
-0.100408
-0.243403
-0.249304
-0.261789
-0.281510
-0.309964
-0.349216
-0.401169
-0.465118
-0.532555
-0.583400
-0.599089
-0.575057
-0.506242
-0.419751
-0.328321
-0.248276
-0.193734
-0.171158
-0.158528
-0.147200
-0.137769
-0.128888
-0.120684
-0.113855
-0.108998
-0.106475
-0.231270
-0.236482
-0.247570
-0.265070
-0.290255
-0.324890
-0.370610
-0.426921
-0.487089
-0.535049
-0.553864
-0.535139
-0.476158
-0.385782
-0.280154
-0.186499
-0.126722
-0.109920
-0.109103
-0.112742
-0.116577
-0.117507
-0.116097
-0.113738
-0.111581
-0.110328
-0.214865
-0.219254
-0.228648
-0.243449
-0.264658
-0.293677
-0.331832
-0.378903
-0.430131
-0.473655
-0.495113
-0.484211
-0.435202
-0.351080
-0.246021
-0.144510
-0.076233
-0.060712
-0.067588
-0.085718
-0.100404
-0.108894
-0.112615
-0.113633
-0.113529
-0.113244
-0.195245
-0.198732
-0.206238
-0.218046
-0.234889
-0.257821
-0.287914
-0.325313
-0.367220
-0.405701
-0.429342
-0.427147
-0.390478
-0.317307
-0.221356
-0.121858
-0.049138
-0.024183
-0.045114
-0.072923
-0.093638
-0.105962
-0.112252
-0.115014
-0.116005
-0.116247
-0.173475
-0.176032
-0.181564
-0.190262
-0.202630
-0.219423
-0.241530
-0.269502
-0.302338
-0.335570
-0.360798
-0.367134
-0.343617
-0.285690
-0.202701
-0.114702
-0.049438
-0.028267
-0.051562
-0.079591
-0.099266
-0.110517
-0.116192
-0.118731
-0.119687
-0.119940
-0.150538
-0.152181
-0.155746
-0.161371
-0.169374
-0.180274
-0.194835
-0.214004
-0.238361
-0.266464
-0.292917
-0.307565
-0.298054
-0.258247
-0.195755
-0.129591
-0.081304
-0.068107
-0.085754
-0.105522
-0.117208
-0.122490
-0.124406
-0.124800
-0.124623
-0.124392
-0.127278
-0.128058
-0.129739
-0.132446
-0.136361
-0.141817
-0.149496
-0.160709
-0.177421
-0.200908
-0.228787
-0.251970
-0.257742
-0.239942
-0.204718
-0.166049
-0.138188
-0.131515
-0.139868
-0.145572
-0.144090
-0.139736
-0.135549
-0.132360
-0.130217
-0.129124
-0.104369
-0.104360
-0.104298
-0.104332
-0.104552
-0.105156
-0.106774
-0.111038
-0.121154
-0.141066
-0.171429
-0.204132
-0.227001
-0.234301
-0.229120
-0.218419
-0.208957
-0.205434
-0.202560
-0.191145
-0.173997
-0.158482
-0.147256
-0.139862
-0.135361
-0.133236
-0.082322
-0.081608
-0.079981
-0.077651
-0.074653
-0.071105
-0.067621
-0.066101
-0.070884
-0.089038
-0.123968
-0.167872
-0.209268
-0.241777
-0.264226
-0.277004
-0.280845
-0.276676
-0.261032
-0.231861
-0.199832
-0.174276
-0.156766
-0.145499
-0.138713
-0.135652
-0.061511
-0.060174
-0.057183
-0.052833
-0.047143
-0.040233
-0.032771
-0.026871
-0.027871
-0.047177
-0.089325
-0.145679
-0.204597
-0.258079
-0.301269
-0.329914
-0.340817
-0.332327
-0.302663
-0.257573
-0.215232
-0.183520
-0.161761
-0.147607
-0.139040
-0.135187
-0.042231
-0.040332
-0.036190
-0.030166
-0.022309
-0.012880
-0.002774
0.005652
0.006252
-0.017849
-0.069099
-0.136893
-0.208688
-0.275278
-0.329953
-0.365550
-0.377634
-0.359219
-0.315709
-0.264657
-0.219109
-0.184714
-0.160820
-0.145077
-0.135475
-0.131156
-0.024782
-0.022314
-0.017255
-0.009864
-0.000276
0.010871
0.022131
0.030553
0.029347
-0.002044
-0.061840
-0.136973
-0.214624
-0.285406
-0.342832
-0.376120
-0.377042
-0.352294
-0.307571
-0.256728
-0.211911
-0.177779
-0.153725
-0.137653
-0.127766
-0.123328
-0.009379
-0.006517
-0.000810
0.007643
0.018711
0.031414
0.042555
0.047811
0.041050
0.002294
-0.062760
-0.139619
-0.216460
-0.283282
-0.331614
-0.355306
-0.352531
-0.326154
-0.283488
-0.236546
-0.195378
-0.163715
-0.141068
-0.125715
-0.116187
-0.111933
0.003595
0.006550
0.012538
0.021521
0.033421
0.047228
0.059389
0.060705
0.045082
0.000102
-0.066329
-0.139784
-0.208550
-0.264465
-0.302931
-0.319547
-0.313303
-0.287336
-0.248862
-0.207828
-0.171994
-0.144174
-0.123988
-0.110108
-0.101424
-0.097581
0.013560
0.016332
0.022098
0.030835
0.042535
0.056382
0.068904
0.070724
0.044451
-0.005407
-0.068612
-0.133427
-0.191263
-0.236400
-0.265111
-0.274943
-0.266013
-0.241730
-0.208530
-0.174197
-0.144378
-0.121046
-0.103894
-0.091945
-0.084415
-0.081123
0.019950
0.022262
0.027193
0.034656
0.044700
0.056819
0.067632
0.067053
0.038774
-0.009780
-0.066596
-0.121737
-0.168438
-0.202754
-0.222387
-0.226368
-0.215743
-0.193949
-0.166351
-0.138707
-0.114884
-0.096143
-0.082216
-0.072402
-0.066181
-0.063503
0.022420
0.024011
0.027452
0.032516
0.039332
0.048007
0.055725
0.052569
0.027180
-0.014911
-0.062646
-0.107122
-0.142726
-0.166809
-0.178387
-0.177645
-0.166226
-0.147328
-0.125150
-0.103694
-0.085415
-0.071014
-0.060231
-0.052567
-0.047689
-0.045627
0.021084
0.021737
0.023110
0.024763
0.026948
0.030788
0.034840
0.030829
0.010926
-0.021749
-0.058542
-0.091758
-0.116617
-0.131359
-0.136012
-0.131592
-0.120032
-0.104084
-0.086813
-0.070780
-0.057366
-0.046849
-0.038962
-0.033336
-0.029751
-0.028265
0.016678
0.016252
0.015180
0.012749
0.009278
0.007211
0.007354
0.004003
-0.009022
-0.030819
-0.055630
-0.077402
-0.092117
-0.098543
-0.097352
-0.090090
-0.078746
-0.065525
-0.052459
-0.040970
-0.031650
-0.024466
-0.019135
-0.015359
-0.012964
-0.011989
0.010504
0.008979
0.005406
-0.001234
-0.010752
-0.019446
-0.023606
-0.025938
-0.031820
-0.042425
-0.054966
-0.065434
-0.070711
-0.069834
-0.063735
-0.054211
-0.043169
-0.032251
-0.022604
-0.014769
-0.008766
-0.004341
-0.001185
0.000969
0.002305
0.002845
0.004131
0.001658
-0.004082
-0.014351
-0.029371
-0.044805
-0.053954
-0.056101
-0.055872
-0.056224
-0.057131
-0.056853
-0.053436
-0.046144
-0.035868
-0.024408
-0.013520
-0.004356
0.002667
0.007694
0.011113
0.013338
0.014707
0.015487
0.015907
0.016089
-0.001031
-0.004084
-0.011331
-0.023943
-0.042799
-0.064033
-0.078870
-0.082508
-0.078420
-0.070776
-0.061856
-0.052091
-0.040908
-0.027972
-0.014032
-0.000720
0.010358
0.018399
0.023564
0.026552
0.028054
0.028603
0.028566
0.028227
0.027880
0.027778
-0.003811
-0.007172
-0.015138
-0.028491
-0.048379
-0.073152
-0.094058
-0.100903
-0.096005
-0.083633
-0.067800
-0.050729
-0.033189
-0.015452
0.001761
0.017015
0.028796
0.036431
0.040467
0.042106
0.042287
0.041640
0.040565
0.039366
0.038402
0.038081
-0.003695
-0.007106
-0.015118
-0.028241
-0.047446
-0.071584
-0.094879
-0.108204
-0.105690
-0.092104
-0.072874
-0.051429
-0.029562
-0.008212
0.011760
0.029044
0.042121
0.050169
0.053812
0.054735
0.054131
0.052725
0.050962
0.049167
0.047741
0.047258
-0.000873
-0.004117
-0.011714
-0.023926
-0.041479
-0.063588
-0.085816
-0.101033
-0.104616
-0.094245
-0.074996
-0.052352
-0.028575
-0.005211
0.016661
0.035794
0.050623
0.059939
0.063992
0.064821
0.063930
0.062170
0.060052
0.057929
0.056208
0.055604
0.004123
0.001187
-0.005715
-0.016633
-0.032039
-0.051422
-0.071557
-0.086877
-0.092798
-0.087817
-0.072780
-0.051897
-0.028483
-0.004859
0.017729
0.038098
0.054725
0.065973
0.071285
0.072668
0.071988
0.070267
0.068118
0.065937
0.064118
0.063380
0.010581
0.008018
0.001949
-0.007520
-0.020647
-0.037113
-0.054689
-0.069203
-0.076656
-0.075120
-0.064979
-0.048645
-0.027776
-0.005475
0.016577
0.037243
0.055197
0.068586
0.075868
0.078456
0.078521
0.077236
0.075389
0.073413
0.071695
0.070789
0.017752
0.015576
0.010379
0.002367
-0.008564
-0.022232
-0.037177
-0.050411
-0.058682
-0.059960
-0.053947
-0.041781
-0.025064
-0.005795
0.014694
0.034659
0.053143
0.068315
0.077880
0.082203
0.083674
0.083386
0.081972
0.080284
0.078823
0.078089
0.024960
0.023151
0.018811
0.012189
0.003269
-0.007866
-0.020325
-0.032065
-0.040573
-0.043920
-0.041341
-0.033183
-0.020477
-0.004601
0.013151
0.031554
0.049679
0.065795
0.077521
0.084600
0.087714
0.088264
0.087521
0.086384
0.085404
0.085049
0.031670
0.030191
0.026670
0.021344
0.014223
0.005310
-0.004908
-0.015110
-0.023435
-0.028183
-0.028337
-0.023705
-0.014748
-0.002336
0.012538
0.028899
0.045825
0.062066
0.075697
0.084905
0.089731
0.091550
0.091773
0.091433
0.091130
0.091289
0.037517
0.036332
0.033583
0.029460
0.023935
0.016938
0.008675
-0.000058
-0.007948
-0.013572
-0.015833
-0.014177
-0.008596
0.000504
0.012489
0.026627
0.042114
0.057869
0.072156
0.082974
0.089604
0.092924
0.094335
0.094982
0.095502
0.096259
0.042318
0.041391
0.039374
0.036364
0.032249
0.026882
0.020281
0.012867
0.005520
-0.000628
-0.004503
-0.005333
-0.002739
0.003278
0.012439
0.024270
0.038098
0.052925
0.067171
0.078944
0.087113
0.091958
0.094671
0.096425
0.097858
0.099244
0.046062
0.045362
0.044039
0.042048
0.039162
0.035160
0.029930
0.023632
0.016808
0.010322
0.005164
0.002228
0.002166
0.005322
0.011742
0.021197
0.033164
0.046724
0.060441
0.072576
0.081840
0.088064
0.092108
0.095038
0.097428
0.099427
0.048883
0.048388
0.047713
0.046626
0.044779
0.041885
0.037738
0.032314
0.025894
0.019106
0.012832
0.008027
0.005540
0.005990
0.009704
0.016683
0.026558
0.038522
0.051288
0.063280
0.073192
0.080573
0.085930
0.090090
0.093462
0.096027
0.051030
0.050719
0.050621
0.050286
0.049266
0.047221
0.043872
0.039051
0.032829
0.025638
0.018256
0.011663
0.006847
0.004637
0.005589
0.009916
0.017422
0.027452
0.038893
0.050350
0.060565
0.068916
0.075581
0.081048
0.085446
0.088521
0.052816
0.052667
0.053029
0.053244
0.052812
0.051351
0.048508
0.043979
0.037662
0.029833
0.021192
0.012734
0.005540
0.000594
-0.001360
0.000090
0.004947
0.012755
0.022609
0.033303
0.043653
0.052915
0.060954
0.067859
0.073369
0.076919
0.054559
0.054545
0.055186
0.055704
0.055597
0.054440
0.051779
0.047170
0.040358
0.031526
0.021340
0.010815
0.001095
-0.006726
-0.011746
-0.013354
-0.011320
-0.005865
0.002337
0.012263
0.022794
0.033069
0.042653
0.051194
0.057959
0.061996
0.056489
0.056618
0.057289
0.057831
0.057764
0.056594
0.053734
0.048580
0.040776
0.030490
0.018421
0.005609
-0.006762
-0.017529
-0.025652
-0.030324
-0.031074
-0.027861
-0.021131
-0.011747
-0.000792
0.010748
0.022139
0.032562
0.040758
0.045355
0.058768
0.059003
0.059457
0.059734
0.059399
0.057851
0.054335
0.048104
0.038786
0.026647
0.012464
-0.002700
-0.017666
-0.031235
-0.042260
-0.049743
-0.052966
-0.051636
-0.045981
-0.036738
-0.024984
-0.011845
0.001643
0.014181
0.023945
0.029185
0.061578
0.061605
0.061726
0.061461
0.060538
0.058217
0.053564
0.045760
0.034557
0.020403
0.004157
-0.013142
-0.030368
-0.046324
-0.059777
-0.069552
-0.074700
-0.074693
-0.069577
-0.059992
-0.047022
-0.031958
-0.016155
-0.001390
0.009914
0.015742
0.064756
0.064443
0.064095
0.063196
0.061215
0.057758
0.051579
0.041923
0.028786
0.012813
-0.005115
-0.024047
-0.042947
-0.060639
-0.075813
-0.087140
-0.093476
-0.094103
-0.088941
-0.078548
-0.063991
-0.046788
-0.028683
-0.011794
0.000727
0.006684
0.068158
0.067442
0.066517
0.064912
0.061822
0.056689
0.048825
0.037371
0.022620
0.005334
-0.013671
-0.033563
-0.053393
-0.071999
-0.088013
-0.099983
-0.106634
-0.107127
-0.101384
-0.089870
-0.073449
-0.054100
-0.033720
-0.015871
-0.002961
0.003057
0.071629
0.070491
0.068937
0.066528
0.062436
0.055728
0.045926
0.033032
0.017240
-0.000716
-0.020116
-0.040229
-0.060166
-0.078775
-0.094649
-0.106247
-0.112297
-0.111818
-0.104528
-0.091216
-0.073457
-0.053005
-0.032261
-0.014259
-0.001403
0.004488
0.074958
0.073414
0.071237
0.068004
0.062861
0.054918
0.043820
0.029837
0.013521
-0.004487
-0.023578
-0.043084
-0.062139
-0.079605
-0.094116
-0.104228
-0.108719
-0.106814
-0.098453
-0.084411
-0.066146
-0.045608
-0.025279
-0.007869
0.004445
0.009993
0.077828
0.075923
0.073185
0.069206
0.063155
0.054300
0.042500
0.028187
0.012012
-0.005400
-0.023477
-0.041587
-0.058913
-0.074404
-0.086822
-0.094904
-0.097606
-0.094346
-0.085200
-0.070960
-0.053052
-0.033412
-0.014358
0.001778
0.013122
0.018159
0.079790
0.077588
0.074389
0.069811
0.063115
0.053768
0.041818
0.027782
0.012332
-0.003906
-0.020367
-0.036449
-0.051416
-0.064351
-0.074212
-0.079975
-0.080829
-0.076396
-0.066868
-0.053053
-0.036309
-0.018413
-0.001364
0.012952
0.023000
0.027432
0.080284
0.077866
0.074317
0.069332
0.062311
0.052912
0.041315
0.028072
0.013847
-0.000736
-0.015119
-0.028741
-0.040964
-0.051040
-0.058158
-0.061556
-0.060681
-0.055355
-0.045878
-0.033054
-0.018117
-0.002587
0.011947
0.024069
0.032608
0.036401
0.078757
0.076205
0.072422
0.067235
0.060219
0.051192
0.040408
0.028412
0.015838
0.003287
-0.008704
-0.019629
-0.028958
-0.036126
-0.040555
-0.041744
-0.039391
-0.033502
-0.024467
-0.013058
-0.000341
0.012471
0.024215
0.033942
0.040859
0.044024
0.074838
0.072229
0.068304
0.063101
0.056387
0.048106
0.038539
0.028186
0.017618
0.007382
-0.002032
-0.010186
-0.016664
-0.021067
-0.023037
-0.022310
-0.018800
-0.012671
-0.004372
0.005382
0.015711
0.025711
0.034618
0.041906
0.047171
0.049738
0.068557
0.065929
0.061899
0.056796
0.050596
0.043342
0.035306
0.026908
0.018619
0.010893
0.004139
-0.001287
-0.005079
-0.006987
-0.006832
-0.004543
-0.000209
0.005893
0.013282
0.021324
0.029321
0.036644
0.042865
0.047813
0.051462
0.053466
0.060502
0.057817
0.053620
0.048612
0.042997
0.036901
0.030564
0.024302
0.018452
0.013335
0.009244
0.006430
0.005091
0.005358
0.007272
0.010765
0.015629
0.021514
0.027945
0.034373
0.040268
0.045229
0.049079
0.051921
0.054062
0.055534
0.051826
0.048951
0.044403
0.039327
0.034181
0.029176
0.024509
0.020381
0.016971
0.014438
0.012925
0.012553
0.013412
0.015532
0.018863
0.023247
0.028412
0.033981
0.039507
0.044533
0.048674
0.051704
0.053625
0.054718
0.055539
0.056511
0.044010
0.040792
0.035608
0.030139
0.025153
0.020953
0.017704
0.015488
0.014322
0.014186
0.015050
0.016890
0.019678
0.023357
0.027812
0.032843
0.038159
0.043394
0.048147
0.052051
0.054842
0.056427
0.056928
0.056726
0.056502
0.057023
0.038389
0.034912
0.028744
0.022461
0.017178
0.013309
0.011018
0.010276
0.010948
0.012838
0.015740
0.019475
0.023893
0.028851
0.034188
0.039691
0.045081
0.050027
0.054189
0.057280
0.059135
0.059759
0.059357
0.058352
0.057435
0.057576
0.035879
0.032274
0.025172
0.017550
0.011517
0.007400
0.005475
0.005600
0.007524
0.010903
0.015362
0.020574
0.026268
0.032217
0.038220
0.044063
0.049497
0.054239
0.058011
0.060595
0.061901
0.062004
0.061166
0.059825
0.058607
0.058446
0.036420
0.032721
0.025276
0.016810
0.009203
0.004153
0.002036
0.002338
0.004821
0.009039
0.014464
0.020645
0.027202
0.033827
0.040278
0.046342
0.051803
0.056430
0.060002
0.062356
0.063450
0.063405
0.062515
0.061228
0.060112
0.059617
0.039374
0.035687
0.028100
0.019207
0.011035
0.004963
0.001453
0.001169
0.003506
0.007908
0.013651
0.020245
0.027215
0.034177
0.040845
0.047002
0.052462
0.057040
0.060563
0.062909
0.064061
0.064159
0.063502
0.062529
0.061629
0.061218
0.043740
0.040179
0.032760
0.023870
0.015422
0.008721
0.004491
0.003107
0.004336
0.008045
0.013436
0.019898
0.026841
0.033797
0.040444
0.046560
0.051972
0.056532
0.060105
0.062596
0.064000
0.064445
0.064207
0.063703
0.063159
0.062996
0.048376
0.045041
0.038137
0.029743
0.021495
0.014565
0.009721
0.007378
0.007571
0.010108
0.014484
0.020123
0.026518
0.033148
0.039540
0.045483
0.050796
0.055342
0.059015
0.061740
0.063509
0.064476
0.064805
0.064750
0.064639
0.064776
0.052277
0.049248
0.043204
0.035806
0.028280
0.021577
0.016426
0.013304
0.012406
0.013666
0.016775
0.021287
0.026720
0.032593
0.038486
0.044110
0.049258
0.053792
0.057612
0.060650
0.062881
0.064361
0.065221
0.065689
0.066036
0.066479
0.054819
0.052168
0.047286
0.041308
0.034962
0.028919
0.023814
0.020161
0.018283
0.018272
0.020002
0.023182
0.027431
0.032339
0.037522
0.042677
0.047575
0.052056
0.056011
0.059355
0.062036
0.064054
0.065486
0.066498
0.067299
0.068038
0.055897
0.053694
0.050185
0.045890
0.041023
0.035958
0.031204
0.027279
0.024597
0.023404
0.023752
0.025518
0.028454
0.032246
0.036569
0.041130
0.045692
0.050076
0.054144
0.057788
0.060919
0.063484
0.065497
0.067055
0.068295
0.069321
0.055905
0.054212
0.052136
0.049559
0.046249
0.042310
0.038104
0.034111
0.030806
0.028559
0.027584
0.027927
0.029488
0.032065
0.035408
0.039263
0.043399
0.047624
0.051773
0.055702
0.059279
0.062395
0.064995
0.067098
0.068772
0.070078
0.055539
0.054386
0.053610
0.052545
0.050650
0.047805
0.044210
0.040272
0.036480
0.033300
0.031083
0.030029
0.030186
0.031475
0.033736
0.036773
0.040381
0.044363
0.048536
0.052718
0.056726
0.060390
0.063579
0.066230
0.068340
0.069930
0.055483
0.054846
0.055057
0.055118
0.054335
0.052410
0.049372
0.045515
0.041310
0.037278
0.033883
0.031460
0.030192
0.030125
0.031205
0.033305
0.036264
0.039900
0.044014
0.048389
0.052793
0.056986
0.060759
0.063961
0.066514
0.068392
0.056138
0.055947
0.056729
0.057457
0.057412
0.056152
0.053522
0.049687
0.045066
0.040211
0.035667
0.031878
0.029153
0.027661
0.027453
0.028492
0.030672
0.033838
0.037787
0.042274
0.047012
0.051694
0.056027
0.059771
0.062768
0.064929
0.057495
0.057728
0.058639
0.059613
0.059940
0.059053
0.056621
0.052670
0.047563
0.041856
0.036148
0.030974
0.026749
0.023756
0.022158
0.022010
0.023279
0.025844
0.029509
0.034004
0.038991
0.044097
0.048942
0.053198
0.056622
0.059046
0.059463
0.059819
0.060629
0.061536
0.061915
0.061103
0.058616
0.054359
0.048639
0.042006
0.035093
0.028500
0.022730
0.018170
0.015091
0.013646
0.013877
0.015713
0.018970
0.023357
0.028491
0.033929
0.039213
0.043924
0.047731
0.050379
0.061740
0.061945
0.062510
0.063137
0.063303
0.062275
0.059459
0.054678
0.048192
0.040543
0.032380
0.024342
0.017002
0.010833
0.006206
0.003372
0.002456
0.003442
0.006165
0.010320
0.015482
0.021142
0.026763
0.031843
0.035965
0.038774
0.064024
0.064010
0.064212
0.064364
0.064096
0.062580
0.059170
0.053649
0.046256
0.037518
0.028082
0.018606
0.009702
0.001914
-0.004301
-0.008592
-0.010748
-0.010724
-0.008657
-0.004863
0.000194
0.005944
0.011776
0.017112
0.021453
0.024346
0.066228
0.065972
0.065751
0.065287
0.064383
0.062139
0.057905
0.051470
0.043069
0.033212
0.022524
0.011654
0.001231
-0.008154
-0.015964
-0.021757
-0.025229
-0.026269
-0.024982
-0.021686
-0.016882
-0.011196
-0.005302
0.000152
0.004600
0.007489
0.068413
0.067906
0.067216
0.066075
0.064354
0.061195
0.055975
0.048520
0.039075
0.028122
0.016248
0.004069
-0.007792
-0.018714
-0.028096
-0.035405
-0.040250
-0.042445
-0.042057
-0.039406
-0.035021
-0.029574
-0.023793
-0.018380
-0.013955
-0.011155
0.070739
0.069978
0.068793
0.066955
0.064268
0.060087
0.053800
0.045300
0.034839
0.022865
0.009911
-0.003454
-0.016630
-0.028987
-0.039872
-0.048675
-0.054915
-0.058338
-0.058968
-0.057116
-0.053334
-0.048327
-0.042861
-0.037672
-0.033408
-0.030775
0.073415
0.072399
0.070712
0.068183
0.064401
0.059172
0.051818
0.042315
0.030921
0.018040
0.004150
-0.010235
-0.024557
-0.038187
-0.050446
-0.060662
-0.068280
-0.072976
-0.074731
-0.073843
-0.070869
-0.066532
-0.061614
-0.056855
-0.052904
-0.050503
0.076677
0.075395
0.073181
0.069910
0.065134
0.058774
0.050398
0.039980
0.027769
0.014130
-0.000518
-0.015718
-0.030957
-0.045634
-0.059065
-0.070547
-0.079468
-0.085448
-0.088422
-0.088665
-0.086724
-0.083319
-0.079218
-0.075133
-0.071671
-0.069571
0.080780
0.079209
0.076421
0.072361
0.066692
0.059152
0.049783
0.038564
0.025670
0.011443
-0.003758
-0.019528
-0.035407
-0.050842
-0.065176
-0.077707
-0.087800
-0.095033
-0.099298
-0.100835
-0.100165
-0.097981
-0.095010
-0.091893
-0.089146
-0.087468
0.086018
0.084112
0.080668
0.075725
0.069076
0.060562
0.050222
0.038203
0.024745
0.010110
-0.005431
-0.021506
-0.037723
-0.053591
-0.068515
-0.081830
-0.092912
-0.101320
-0.106911
-0.109881
-0.110714
-0.110060
-0.108581
-0.106817
-0.105084
-0.104118
0.092749
0.090441
0.086210
0.080237
0.072492
0.062955
0.051727
0.039003
0.025030
0.010074
-0.005589
-0.021713
-0.037974
-0.053963
-0.069163
-0.082983
-0.094839
-0.104298
-0.111194
-0.115684
-0.118212
-0.119391
-0.119822
-0.119883
-0.119782
-0.119950
0.101427
0.098646
0.093429
0.086180
0.077138
0.066447
0.054278
0.040861
0.026453
0.011304
-0.004360
-0.020340
-0.036415
-0.052286
-0.067540
-0.081659
-0.094106
-0.104456
-0.112529
-0.118477
-0.122757
-0.126018
-0.128889
-0.131691
-0.134229
-0.136117
0.116427
0.113239
0.105878
0.096123
0.084837
0.072268
0.058608
0.044120
0.029081
0.013727
-0.001782
-0.017371
-0.032995
-0.048543
-0.063765
-0.078239
-0.091451
-0.102935
-0.112454
-0.120143
-0.126553
-0.132596
-0.139386
-0.147850
-0.157792
-0.165702
