# vtk DataFile Version 3.0
Vector Field
ASCII
DATASET RECTILINEAR_GRID
DIMENSIONS 26 100 1
X_COORDINATES 26 double
0.050000 0.150000 0.250000 0.350000 0.450000 0.550000 0.650000 0.750000 0.850000 0.950000 1.050000 1.150000 1.250000 1.350000 1.450000 1.550000 1.650000 1.750000 1.850000 1.950000 2.050000 2.150000 2.250000 2.350000 2.450000 2.550000 
Y_COORDINATES 100 double
0.050000 0.150000 0.250000 0.350000 0.450000 0.550000 0.650000 0.750000 0.850000 0.950000 1.050000 1.150000 1.250000 1.350000 1.450000 1.550000 1.650000 1.750000 1.850000 1.950000 2.050000 2.150000 2.250000 2.350000 2.450000 2.550000 2.650000 2.750000 2.850000 2.950000 3.050000 3.150000 3.250000 3.350000 3.450000 3.550000 3.650000 3.750000 3.850000 3.950000 4.050000 4.150000 4.250000 4.350000 4.450000 4.550000 4.650000 4.750000 4.850000 4.950000 5.050000 5.150000 5.250000 5.350000 5.450000 5.550000 5.650000 5.750000 5.850000 5.950000 6.050000 6.150000 6.250000 6.350000 6.450000 6.550000 6.650000 6.750000 6.850000 6.950000 7.050000 7.150000 7.250000 7.350000 7.450000 7.550000 7.650000 7.750000 7.850000 7.950000 8.050000 8.150000 8.250000 8.350000 8.450000 8.550000 8.650000 8.750000 8.850000 8.950000 9.050000 9.150000 9.250000 9.350000 9.450000 9.550000 9.650000 9.750000 9.850000 9.950000 
Z_COORDINATES 1 double
0.0
POINT_DATA 2600
VECTORS Vektorfeld double
-0.000909 1.000909 0.0
-0.003279 1.001461 0.0
-0.006094 1.001354 0.0
-0.008759 1.001311 0.0
-0.011317 1.001248 0.0
-0.013681 1.001116 0.0
-0.015670 1.000873 0.0
-0.017029 1.000486 0.0
-0.017474 0.999958 0.0
-0.016774 0.999342 0.0
-0.014863 0.998747 0.0
-0.011911 0.998301 0.0
-0.008305 0.998093 0.0
-0.004530 0.998131 0.0
-0.001026 0.998364 0.0
0.001913 0.998697 0.0
0.004136 0.999080 0.0
0.005595 0.999462 0.0
0.006332 0.999801 0.0
0.006449 1.000081 0.0
0.006070 1.000298 0.0
0.005312 1.000460 0.0
0.004272 1.000580 0.0
0.003006 1.000686 0.0
0.001478 1.000842 0.0
0.000318 1.000318 0.0
-0.003196 1.005015 0.0
-0.010453 1.006982 0.0
-0.018525 1.006720 0.0
-0.026502 1.006586 0.0
-0.034284 1.006314 0.0
-0.041552 1.005682 0.0
-0.047732 1.004475 0.0
-0.052015 1.002526 0.0
-0.053478 0.999828 0.0
-0.051362 0.996657 0.0
-0.045429 0.993588 0.0
-0.036227 0.991307 0.0
-0.025014 0.990268 0.0
-0.013338 0.990504 0.0
-0.002579 0.991729 0.0
0.006369 0.993445 0.0
0.013070 0.995408 0.0
0.017404 0.997341 0.0
0.019538 0.999051 0.0
0.019798 1.000452 0.0
0.018571 1.001533 0.0
0.016221 1.002332 0.0
0.013056 1.002914 0.0
0.009299 1.003375 0.0
0.005081 1.003899 0.0
0.001433 1.002069 0.0
-0.005641 1.013852 0.0
-0.017898 1.017658 0.0
-0.031204 1.017422 0.0
-0.044628 1.017284 0.0
-0.057969 1.016738 0.0
-0.070681 1.015238 0.0
-0.081760 1.012179 0.0
-0.089714 1.007059 0.0
-0.092751 0.999795 0.0
-0.089288 0.991110 0.0
-0.078730 0.982644 0.0
-0.062097 0.976416 0.0
-0.041882 0.973730 0.0
-0.021093 0.974577 0.0
-0.002255 0.978059 0.0
0.013113 0.982799 0.0
0.024350 0.988118 0.0
0.031379 0.993268 0.0
0.034598 0.997771 0.0
0.034651 1.001420 0.0
0.032238 1.004206 0.0
0.028009 1.006237 0.0
0.022500 1.007683 0.0
0.016116 1.008748 0.0
0.009147 1.009714 0.0
0.002773 1.006276 0.0
-0.008114 1.027607 0.0
-0.025393 1.033439 0.0
-0.043985 1.033539 0.0
-0.063102 1.033708 0.0
-0.082558 1.033111 0.0
-0.101659 1.030678 0.0
-0.118959 1.025116 0.0
-0.132097 1.015213 0.0
-0.137963 1.000543 0.0
-0.133495 0.982431 0.0
-0.117221 0.964491 0.0
-0.090790 0.951504 0.0
-0.058805 0.946442 0.0
-0.026627 0.948899 0.0
0.001733 0.956539 0.0
0.024145 0.966540 0.0
0.039885 0.977399 0.0
0.049180 0.987663 0.0
0.052866 0.996470 0.0
0.052045 1.003490 0.0
0.047832 1.008762 0.0
0.041206 1.012536 0.0
0.032947 1.015153 0.0
0.023630 1.016978 0.0
0.013666 1.018415 0.0
0.004283 1.013332 0.0
-0.010509 1.046230 0.0
-0.032672 1.054258 0.0
-0.056524 1.055164 0.0
-0.081585 1.056261 0.0
-0.107863 1.056292 0.0
-0.134704 1.053440 0.0
-0.160334 1.045283 0.0
-0.181365 1.029216 0.0
-0.192662 1.003703 0.0
-0.188316 0.970456 0.0
-0.164601 0.936478 0.0
-0.123977 0.912462 0.0
-0.075212 0.904734 0.0
-0.027917 0.911135 0.0
0.011967 0.926058 0.0
0.042038 0.944539 0.0
0.061953 0.963744 0.0
0.072644 0.981331 0.0
0.075722 0.996040 0.0
0.072965 1.007499 0.0
0.066016 1.015914 0.0
0.056233 1.021793 0.0
0.044638 1.025750 0.0
0.031953 1.028384 0.0
0.018656 1.030270 0.0
0.005951 1.023566 0.0
-0.012689 1.069429 0.0
-0.039344 1.079877 0.0
-0.068207 1.082260 0.0
-0.099283 1.085302 0.0
-0.133049 1.087295 0.0
-0.169275 1.085505 0.0
-0.206276 1.075850 0.0
-0.239788 1.053193 0.0
-0.261803 1.013039 0.0
-0.260848 0.955820 0.0
-0.227182 0.893733 0.0
-0.163946 0.851346 0.0
-0.089321 0.842459 0.0
-0.021322 0.858118 0.0
0.032397 0.885472 0.0
0.070331 0.917121 0.0
0.093322 0.948256 0.0
0.103780 0.975670 0.0
0.104523 0.997879 0.0
0.098257 1.014682 0.0
0.087274 1.026662 0.0
0.073333 1.034770 0.0
0.057674 1.040027 0.0
0.041101 1.043365 0.0
0.024098 1.045588 0.0
0.007767 1.037284 0.0
-0.014477 1.096595 0.0
-0.044866 1.109754 0.0
-0.078089 1.114470 0.0
-0.114804 1.120882 0.0
-0.156308 1.126985 0.0
-0.203455 1.129188 0.0
-0.255700 1.121413 0.0
-0.309066 1.094508 0.0
-0.352518 1.037190 0.0
-0.364076 0.942272 0.0
-0.317153 0.826692 0.0
-0.213661 0.751660 0.0
-0.096409 0.750268 0.0
0.000054 0.785848 0.0
0.069473 0.834602 0.0
0.113746 0.885784 0.0
0.137243 0.933104 0.0
0.144649 0.972959 0.0
0.140442 1.004053 0.0
0.128484 1.026732 0.0
0.111786 1.042293 0.0
0.092481 1.052385 0.0
0.071939 1.058614 0.0
0.050948 1.062342 0.0
0.029897 1.064664 0.0
0.009693 1.054743 0.0
-0.015664 1.126735 0.0
-0.048578 1.142917 0.0
-0.084933 1.150887 0.0
-0.126088 1.162335 0.0
-0.174414 1.175362 0.0
-0.232530 1.186074 0.0
-0.302662 1.186904 0.0
-0.384496 1.164216 0.0
-0.468454 1.094890 0.0
-0.517596 0.945272 0.0
-0.458549 0.717721 0.0
-0.275414 0.574004 0.0
-0.081638 0.616895 0.0
0.048761 0.692359 0.0
0.131681 0.775752 0.0
0.177929 0.854114 0.0
0.197136 0.922068 0.0
0.197059 0.976666 0.0
0.184184 1.017429 0.0
0.163677 1.045822 0.0
0.139247 1.064331 0.0
0.113259 1.075639 0.0
0.087034 1.082126 0.0
0.061178 1.085677 0.0
0.035852 1.087707 0.0
0.011660 1.076097 0.0
-0.016053 1.158452 0.0
-0.049836 1.177897 0.0
-0.087447 1.189873 0.0
-0.130844 1.207902 0.0
-0.183793 1.231070 0.0
-0.252590 1.257279 0.0
-0.348501 1.281744 0.0
-0.489490 1.292199 0.0
-0.691555 1.252931 0.0
-0.907067 1.051885 0.0
-0.789605 0.434599 0.0
-0.338899 0.223286 0.0
-0.005308 0.440245 0.0
0.147643 0.585660 0.0
0.230507 0.716666 0.0
0.268676 0.828783 0.0
0.275874 0.920994 0.0
0.261998 0.991694 0.0
0.235525 1.041750 0.0
0.202997 1.074536 0.0
0.168637 1.094406 0.0
0.134721 1.105469 0.0
0.102202 1.111041 0.0
0.071255 1.113564 0.0
0.041645 1.114757 0.0
0.013563 1.101320 0.0
-0.015523 1.190029 0.0
-0.048208 1.212788 0.0
-0.084602 1.228987 0.0
-0.126509 1.254091 0.0
-0.177087 1.288407 0.0
-0.239909 1.331559 0.0
-0.315656 1.379122 0.0
-0.391044 1.411197 0.0
-0.418164 1.363118 0.0
-0.205363 1.054034 0.0
0.286543 0.194808 0.0
0.286543 0.128426 0.0
0.152745 0.183231 0.0
0.336479 0.499954 0.0
0.380800 0.675187 0.0
0.392262 0.820631 0.0
0.375827 0.938384 0.0
0.339264 1.024743 0.0
0.292786 1.081651 0.0
0.244286 1.115664 0.0
0.197949 1.133974 0.0
0.155268 1.142497 0.0
0.116288 1.145511 0.0
0.080420 1.145908 0.0
0.046846 1.145597 0.0
0.015262 1.130145 0.0
-0.014093 1.219645 0.0
-0.043759 1.245522 0.0
-0.076563 1.265452 0.0
-0.113596 1.296566 0.0
-0.156520 1.339435 0.0
-0.205461 1.392295 0.0
-0.254531 1.443204 0.0
-0.283835 1.451806 0.0
-0.254090 1.319885 0.0
-0.109148 0.861356 0.0
0.000000 0.072977 0.0
-0.000000 0.221094 0.0
0.000000 0.140498 0.0
0.229372 0.251817 0.0
0.493035 0.627566 0.0
0.522675 0.827149 0.0
0.489842 0.981134 0.0
0.424708 1.083690 0.0
0.351591 1.142300 0.0
0.283442 1.171664 0.0
0.223939 1.183813 0.0
0.172607 1.186672 0.0
0.127788 1.185137 0.0
0.087749 1.182190 0.0
0.050958 1.179680 0.0
0.016599 1.162006 0.0
-0.011915 1.245653 0.0
-0.037014 1.274279 0.0
-0.064478 1.296963 0.0
-0.094581 1.332189 0.0
-0.127783 1.379937 0.0
-0.162633 1.435584 0.0
-0.192792 1.479144 0.0
-0.203840 1.456217 0.0
-0.175617 1.257507 0.0
-0.102805 0.718185 0.0
-0.028287 -0.052511 0.0
0.000000 0.086442 0.0
-0.000000 0.213546 0.0
0.000000 0.116047 0.0
0.288978 0.321633 0.0
0.602996 0.806758 0.0
0.591374 1.045980 0.0
0.501523 1.173829 0.0
0.400102 1.226700 0.0
0.312643 1.242872 0.0
0.241762 1.242988 0.0
0.183859 1.236732 0.0
0.135033 1.228722 0.0
0.092308 1.221369 0.0
0.053507 1.216093 0.0
0.017427 1.196032 0.0
-0.009219 1.266787 0.0
-0.028716 1.297741 0.0
-0.049815 1.322066 0.0
-0.072102 1.359476 0.0
-0.095377 1.409128 0.0
-0.118078 1.463944 0.0
-0.135988 1.498852 0.0
-0.141487 1.453056 0.0
-0.124989 1.215947 0.0
-0.083942 0.645885 0.0
-0.072033 -0.066448 0.0
-0.043097 -0.042307 0.0
0.000000 0.084104 0.0
-0.000000 0.179051 0.0
0.000000 0.081377 0.0
0.352669 0.454044 0.0
0.661064 1.126917 0.0
0.545762 1.298045 0.0
0.418718 1.330948 0.0
0.320569 1.324232 0.0
0.245695 1.307383 0.0
0.186232 1.289703 0.0
0.136653 1.274156 0.0
0.093416 1.261896 0.0
0.054171 1.253612 0.0
0.017652 1.231111 0.0
-0.006243 1.282249 0.0
-0.019615 1.315147 0.0
-0.033936 1.340081 0.0
-0.048250 1.378061 0.0
-0.062037 1.427605 0.0
-0.074137 1.480269 0.0
-0.082753 1.509053 0.0
-0.086297 1.451897 0.0
-0.084451 1.198761 0.0
-0.080404 0.617977 0.0
-0.121504 -0.009349 0.0
-0.159745 -0.088932 0.0
-0.077524 -0.076097 0.0
0.000000 0.076575 0.0
-0.000000 0.126545 0.0
0.000000 0.099521 0.0
0.157253 1.077123 0.0
0.330986 1.352592 0.0
0.329057 1.405374 0.0
0.283289 1.393722 0.0
0.229043 1.367013 0.0
0.177975 1.340603 0.0
0.132203 1.318607 0.0
0.090957 1.301928 0.0
0.052919 1.290863 0.0
0.017267 1.266030 0.0
-0.003209 1.291702 0.0
-0.010378 1.326233 0.0
-0.017968 1.350905 0.0
-0.024602 1.388185 0.0
-0.029545 1.436212 0.0
-0.031920 1.486137 0.0
-0.031423 1.511304 0.0
-0.029916 1.451683 0.0
-0.035391 1.202604 0.0
-0.064777 0.639473 0.0
-0.140012 0.085490 0.0
-0.194489 -0.091053 0.0
-0.184548 -0.162375 0.0
-0.086014 -0.087133 0.0
0.012170 0.063752 0.0
0.012170 0.027751 0.0
0.085231 0.906410 0.0
0.206488 1.300085 0.0
0.245728 1.420570 0.0
0.235430 1.434592 0.0
0.202501 1.413318 0.0
0.162841 1.385025 0.0
0.123234 1.359564 0.0
0.085639 1.339813 0.0
0.050065 1.326591 0.0
0.016361 1.299658 0.0
-0.000311 1.295223 0.0
-0.001563 1.331132 0.0
-0.002822 1.354856 0.0
-0.002402 1.390448 0.0
0.000598 1.435892 0.0
0.006977 1.482454 0.0
0.016727 1.504741 0.0
0.027513 1.445953 0.0
0.031262 1.210060 0.0
0.003180 0.689485 0.0
-0.071705 0.185598 0.0
-0.133687 -0.074703 0.0
-0.142561 -0.179792 0.0
-0.130237 -0.174161 0.0
-0.077451 -0.058183 0.0
-0.010531 -0.038729 0.0
0.059312 0.781480 0.0
0.142617 1.229038 0.0
0.189024 1.405970 0.0
0.195025 1.453489 0.0
0.175918 1.446456 0.0
0.145591 1.421874 0.0
0.112018 1.395895 0.0
0.078553 1.374542 0.0
0.046108 1.359880 0.0
0.015081 1.331100 0.0
0.002294 1.293240 0.0
0.006368 1.330293 0.0
0.010756 1.352566 0.0
0.017377 1.385697 0.0
0.027353 1.427666 0.0
0.041634 1.470019 0.0
0.060375 1.488684 0.0
0.081338 1.430261 0.0
0.096334 1.207007 0.0
0.083946 0.733008 0.0
0.033395 0.267512 0.0
-0.022191 -0.039048 0.0
-0.045882 -0.182882 0.0
-0.039541 -0.189736 0.0
-0.019632 -0.115303 0.0
-0.018521 -0.049641 0.0
0.022387 0.681641 0.0
0.108014 1.159946 0.0
0.155456 1.381213 0.0
0.166699 1.461002 0.0
0.153949 1.470801 0.0
0.129252 1.452553 0.0
0.100272 1.427770 0.0
0.070616 1.405789 0.0
0.041489 1.390205 0.0
0.013556 1.359737 0.0
0.004485 1.286461 0.0
0.013037 1.324447 0.0
0.022154 1.344906 0.0
0.033945 1.374944 0.0
0.049758 1.412630 0.0
0.070766 1.449766 0.0
0.097405 1.463557 0.0
0.127679 1.404152 0.0
0.153409 1.192388 0.0
0.155280 0.758144 0.0
0.127362 0.320844 0.0
0.091793 -0.001225 0.0
0.068017 -0.173238 0.0
0.057188 -0.194892 0.0
0.045843 -0.118711 0.0
0.005793 -0.007294 0.0
0.021452 0.582728 0.0
0.099452 1.095233 0.0
0.141181 1.356755 0.0
0.149688 1.465708 0.0
0.137246 1.491289 0.0
0.114666 1.479342 0.0
0.088638 1.455991 0.0
0.062237 1.433625 0.0
0.036431 1.417301 0.0
0.011856 1.385149 0.0
0.006162 1.275814 0.0
0.018138 1.314567 0.0
0.030871 1.332936 0.0
0.046613 1.359383 0.0
0.066898 1.392094 0.0
0.093125 1.423067 0.0
0.126037 1.430705 0.0
0.164028 1.368741 0.0
0.199524 1.166573 0.0
0.216219 0.765394 0.0
0.210489 0.347241 0.0
0.196824 0.021612 0.0
0.182615 -0.158089 0.0
0.165901 -0.182499 0.0
0.138526 -0.092384 0.0
0.081571 0.063384 0.0
0.065887 0.512074 0.0
0.111726 1.042047 0.0
0.139848 1.340090 0.0
0.139879 1.473835 0.0
0.123656 1.511827 0.0
0.100851 1.504188 0.0
0.076724 1.481299 0.0
0.053287 1.458154 0.0
0.030901 1.440964 0.0
0.009978 1.406983 0.0
0.007245 1.262406 0.0
0.021435 1.301808 0.0
0.036512 1.317885 0.0
0.054818 1.340386 0.0
0.078021 1.367602 0.0
0.107711 1.391641 0.0
0.144968 1.391961 0.0
0.188770 1.325691 0.0
0.232796 1.130101 0.0
0.264911 0.753056 0.0
0.283023 0.347197 0.0
0.293380 0.024964 0.0
0.293032 -0.146884 0.0
0.277342 -0.161300 0.0
0.242725 -0.051590 0.0
0.180790 0.141480 0.0
0.133731 0.496720 0.0
0.135300 1.009995 0.0
0.142762 1.336557 0.0
0.131001 1.489098 0.0
0.109291 1.534497 0.0
0.085660 1.527955 0.0
0.063453 1.503866 0.0
0.043266 1.479211 0.0
0.024689 1.460872 0.0
0.007863 1.424825 0.0
0.007680 1.247481 0.0
0.022763 1.287460 0.0
0.038799 1.301121 0.0
0.058162 1.319482 0.0
0.082586 1.340879 0.0
0.113825 1.357434 0.0
0.153326 1.349411 0.0
0.200876 1.276889 0.0
0.251983 1.083771 0.0
0.300074 0.719181 0.0
0.343792 0.319243 0.0
0.378219 0.008134 0.0
0.391029 -0.142517 0.0
0.377560 -0.136508 0.0
0.337723 -0.001927 0.0
0.269814 0.221662 0.0
0.197577 0.535834 0.0
0.158944 1.007946 0.0
0.140609 1.349479 0.0
0.116041 1.512504 0.0
0.089723 1.559118 0.0
0.066652 1.550036 0.0
0.047595 1.523049 0.0
0.031595 1.496213 0.0
0.017546 1.476495 0.0
0.005443 1.438131 0.0
0.007439 1.232361 0.0
0.022035 1.272901 0.0
0.037582 1.284097 0.0
0.056427 1.298298 0.0
0.080295 1.313771 0.0
0.111076 1.322522 0.0
0.150628 1.305271 0.0
0.199782 1.224326 0.0
0.256499 1.028510 0.0
0.321322 0.661528 0.0
0.390830 0.263669 0.0
0.444528 -0.024416 0.0
0.464243 -0.142491 0.0
0.449342 -0.108164 0.0
0.401639 0.057268 0.0
0.323633 0.308381 0.0
0.233582 0.611401 0.0
0.165675 1.038918 0.0
0.123185 1.379332 0.0
0.088436 1.541968 0.0
0.061331 1.583077 0.0
0.042090 1.568388 0.0
0.028372 1.537472 0.0
0.017936 1.508226 0.0
0.009345 1.487122 0.0
0.002689 1.446262 0.0
0.006523 1.218399 0.0
0.019252 1.259539 0.0
0.032857 1.268307 0.0
0.049589 1.278511 0.0
0.071100 1.288179 0.0
0.099399 1.289033 0.0
0.136789 1.261817 0.0
0.185404 1.170011 0.0
0.246806 0.964705 0.0
0.329036 0.578280 0.0
0.419866 0.186578 0.0
0.481277 -0.062433 0.0
0.497329 -0.140242 0.0
0.472495 -0.070678 0.0
0.410594 0.129387 0.0
0.321429 0.403433 0.0
0.222584 0.705245 0.0
0.138816 1.096749 0.0
0.081219 1.421589 0.0
0.044132 1.571549 0.0
0.023066 1.601667 0.0
0.011968 1.580137 0.0
0.005949 1.545461 0.0
0.002413 1.514210 0.0
0.000184 1.491958 0.0
-0.000343 1.448609 0.0
0.004965 1.206911 0.0
0.014518 1.248745 0.0
0.024778 1.255235 0.0
0.037831 1.261798 0.0
0.055224 1.265989 0.0
0.079092 1.259056 0.0
0.112202 1.221295 0.0
0.158209 1.115912 0.0
0.224894 0.890717 0.0
0.323303 0.471629 0.0
0.422592 0.103110 0.0
0.474493 -0.092277 0.0
0.474891 -0.126849 0.0
0.428784 -0.013130 0.0
0.347931 0.214594 0.0
0.253634 0.501688 0.0
0.155678 0.803792 0.0
0.068555 1.169093 0.0
0.011513 1.463884 0.0
-0.014128 1.591981 0.0
-0.021845 1.610019 0.0
-0.021775 1.582813 0.0
-0.018624 1.545652 0.0
-0.014393 1.513324 0.0
-0.009645 1.490326 0.0
-0.003572 1.444695 0.0
0.002833 1.199113 0.0
0.008055 1.241769 0.0
0.013691 1.246316 0.0
0.021547 1.249807 0.0
0.033135 1.248999 0.0
0.050859 1.234452 0.0
0.077960 1.185687 0.0
0.119555 1.063917 0.0
0.193344 0.802238 0.0
0.301019 0.354023 0.0
0.388182 0.034263 0.0
0.413712 -0.100861 0.0
0.381826 -0.086778 0.0
0.308443 0.066288 0.0
0.219077 0.305396 0.0
0.128047 0.596213 0.0
0.037310 0.897960 0.0
-0.035118 1.234475 0.0
-0.070531 1.490958 0.0
-0.076606 1.596623 0.0
-0.068977 1.605466 0.0
-0.056817 1.575135 0.0
-0.043953 1.537315 0.0
-0.031624 1.505100 0.0
-0.019685 1.481863 0.0
-0.006862 1.434261 0.0
0.000236 1.196044 0.0
0.000239 1.239613 0.0
0.000180 1.242895 0.0
0.001379 1.244172 0.0
0.005494 1.238932 0.0
0.015693 1.216596 0.0
0.036141 1.155994 0.0
0.072884 1.015273 0.0
0.152251 0.697726 0.0
0.253314 0.249797 0.0
0.308024 -0.003383 0.0
0.300255 -0.080976 0.0
0.237481 -0.012004 0.0
0.146003 0.156376 0.0
0.055894 0.394783 0.0
-0.025125 0.678874 0.0
-0.092884 0.973794 0.0
-0.137862 1.276045 0.0
-0.149599 1.496538 0.0
-0.136898 1.584416 0.0
-0.114525 1.587671 0.0
-0.090703 1.556948 0.0
-0.068460 1.520394 0.0
-0.048294 1.489527 0.0
-0.029392 1.466595 0.0
-0.010042 1.417357 0.0
-0.002590 1.198398 0.0
-0.008319 1.242984 0.0
-0.014845 1.246109 0.0
-0.021526 1.246441 0.0
-0.026567 1.237590 0.0
-0.025557 1.206729 0.0
-0.011350 1.131206 0.0
0.023631 0.968339 0.0
0.098871 0.590054 0.0
0.170662 0.184616 0.0
0.178977 -0.001226 0.0
0.131692 -0.028080 0.0
0.057713 0.071854 0.0
-0.020967 0.242678 0.0
-0.096408 0.474031 0.0
-0.159315 0.743552 0.0
-0.205854 1.023415 0.0
-0.227608 1.293157 0.0
-0.219040 1.482596 0.0
-0.190263 1.556881 0.0
-0.155174 1.557744 0.0
-0.121181 1.529061 0.0
-0.090632 1.495489 0.0
-0.063436 1.467071 0.0
-0.038226 1.444938 0.0
-0.012939 1.394376 0.0
-0.005322 1.206310 0.0
-0.016740 1.252218 0.0
-0.029968 1.256629 0.0
-0.045138 1.257771 0.0
-0.060495 1.246657 0.0
-0.070474 1.206630 0.0
-0.064642 1.111265 0.0
-0.028969 0.917626 0.0
0.030188 0.506369 0.0
0.057382 0.169315 0.0
0.027686 0.035456 0.0
-0.028965 0.039173 0.0
-0.094335 0.143949 0.0
-0.161064 0.315993 0.0
-0.222173 0.537265 0.0
-0.269578 0.790631 0.0
-0.297548 1.050845 0.0
-0.299745 1.289678 0.0
-0.274851 1.452612 0.0
-0.233532 1.516769 0.0
-0.188537 1.517772 0.0
-0.146497 1.492999 0.0
-0.109231 1.463736 0.0
-0.076223 1.438619 0.0
-0.045715 1.417672 0.0
-0.015399 1.366039 0.0
-0.007589 1.219221 0.0
-0.023893 1.267029 0.0
-0.043176 1.274330 0.0
-0.066348 1.278413 0.0
-0.091913 1.266937 0.0
-0.113420 1.217836 0.0
-0.118162 1.098970 0.0
-0.091132 0.867219 0.0
-0.058774 0.465261 0.0
-0.068308 0.192764 0.0
-0.112715 0.086110 0.0
-0.166646 0.099102 0.0
-0.222966 0.205709 0.0
-0.277028 0.375024 0.0
-0.323317 0.585631 0.0
-0.354998 0.821351 0.0
-0.366204 1.059301 0.0
-0.352492 1.269707 0.0
-0.315286 1.410483 0.0
-0.265066 1.467359 0.0
-0.213200 1.470321 0.0
-0.165502 1.450712 0.0
-0.123380 1.426635 0.0
-0.086039 1.405372 0.0
-0.051494 1.385866 0.0
-0.017303 1.333336 0.0
-0.009002 1.235812 0.0
-0.028531 1.286272 0.0
-0.052105 1.297944 0.0
-0.081304 1.307169 0.0
-0.115223 1.297666 0.0
-0.147268 1.240659 0.0
-0.164407 1.098027 0.0
-0.156881 0.833605 0.0
-0.155973 0.465609 0.0
-0.188621 0.234598 0.0
-0.236321 0.136381 0.0
-0.284131 0.150572 0.0
-0.328640 0.255068 0.0
-0.368097 0.419185 0.0
-0.398932 0.618594 0.0
-0.415331 0.836468 0.0
-0.411925 1.051984 0.0
-0.385864 1.237251 0.0
-0.340118 1.359988 0.0
-0.284416 1.411933 0.0
-0.228593 1.418057 0.0
-0.177623 1.404308 0.0
-0.132573 1.385865 0.0
-0.092495 1.368724 0.0
-0.055321 1.350795 0.0
-0.018569 1.297465 0.0
-0.009243 1.254056 0.0
-0.029588 1.307901 0.0
-0.054639 1.324939 0.0
-0.086408 1.341142 0.0
-0.125104 1.336308 0.0
-0.165423 1.274382 0.0
-0.196316 1.112336 0.0
-0.213537 0.828991 0.0
-0.240731 0.496509 0.0
-0.288105 0.283720 0.0
-0.337213 0.184067 0.0
-0.378611 0.192094 0.0
-0.410632 0.290076 0.0
-0.434507 0.447509 0.0
-0.449614 0.636212 0.0
-0.451720 0.837355 0.0
-0.436120 1.032090 0.0
-0.401052 1.196017 0.0
-0.350129 1.304553 0.0
-0.291959 1.353497 0.0
-0.234792 1.363503 0.0
-0.182756 1.355856 0.0
-0.136630 1.343140 0.0
-0.095412 1.330155 0.0
-0.057070 1.313848 0.0
-0.019153 1.259743 0.0
-0.008166 1.271465 0.0
-0.026543 1.329215 0.0
-0.049653 1.351786 0.0
-0.079539 1.375950 0.0
-0.117980 1.378637 0.0
-0.162708 1.317099 0.0
-0.206411 1.144215 0.0
-0.247141 0.855064 0.0
-0.297242 0.547732 0.0
-0.356480 0.339109 0.0
-0.409326 0.230631 0.0
-0.447521 0.225124 0.0
-0.469289 0.310835 0.0
-0.478160 0.459496 0.0
-0.477630 0.638802 0.0
-0.466497 0.825739 0.0
-0.441041 1.002650 0.0
-0.399935 1.149282 0.0
-0.346699 1.247129 0.0
-0.288597 1.294649 0.0
-0.232309 1.308896 0.0
-0.181142 1.307260 0.0
-0.135628 1.300096 0.0
-0.094785 1.291138 0.0
-0.056717 1.276454 0.0
-0.019044 1.221546 0.0
-0.005874 1.285505 0.0
-0.019659 1.347338 0.0
-0.037554 1.374669 0.0
-0.061058 1.406456 0.0
-0.093372 1.418888 0.0
-0.136511 1.364714 0.0
-0.188425 1.192217 0.0
-0.247269 0.906636 0.0
-0.315128 0.614120 0.0
-0.385834 0.402665 0.0
-0.446335 0.280422 0.0
-0.487428 0.254623 0.0
-0.504846 0.320522 0.0
-0.502054 0.455889 0.0
-0.486750 0.626576 0.0
-0.463005 0.803087 0.0
-0.429453 0.966293 0.0
-0.384726 1.099806 0.0
-0.331503 1.190147 0.0
-0.275510 1.237535 0.0
-0.221918 1.256131 0.0
-0.173247 1.260188 0.0
-0.129822 1.258230 0.0
-0.090737 1.253078 0.0
-0.054314 1.240024 0.0
-0.018257 1.184245 0.0
-0.002707 1.294085 0.0
-0.009923 1.359760 0.0
-0.020220 1.390439 0.0
-0.034074 1.428043 0.0
-0.054959 1.450501 0.0
-0.088781 1.410060 0.0
-0.140331 1.250336 0.0
-0.209144 0.976174 0.0
-0.289555 0.692852 0.0
-0.371150 0.476235 0.0
-0.442455 0.338659 0.0
-0.493321 0.288345 0.0
-0.515507 0.326404 0.0
-0.508626 0.440332 0.0
-0.481779 0.599981 0.0
-0.445715 0.769872 0.0
-0.404574 0.924814 0.0
-0.357759 1.049743 0.0
-0.306289 1.135516 0.0
-0.253978 1.183861 0.0
-0.204514 1.206750 0.0
-0.159667 1.216051 0.0
-0.119582 1.218856 0.0
-0.083478 1.217262 0.0
-0.049963 1.205902 0.0
-0.016821 1.149167 0.0
0.000918 1.295873 0.0
0.001362 1.364744 0.0
-0.000258 1.397371 0.0
-0.003374 1.438080 0.0
-0.010226 1.468202 0.0
-0.027839 1.443795 0.0
-0.067574 1.307887 0.0
-0.135236 1.055097 0.0
-0.222060 0.781163 0.0
-0.312664 0.560122 0.0
-0.395390 0.408802 0.0
-0.460368 0.334045 0.0
-0.496517 0.339039 0.0
-0.497012 0.421311 0.0
-0.466666 0.561810 0.0
-0.420185 0.725500 0.0
-0.370494 0.878354 0.0
-0.321510 1.000404 0.0
-0.272769 1.084644 0.0
-0.225268 1.134920 0.0
-0.181011 1.161969 0.0
-0.141038 1.176011 0.0
-0.105333 1.183107 0.0
-0.073264 1.184838 0.0
-0.043795 1.175342 0.0
-0.014778 1.117568 0.0
0.004691 1.290264 0.0
0.013045 1.361557 0.0
0.020087 1.395136 0.0
0.027135 1.436383 0.0
0.033345 1.470542 0.0
0.032997 1.459416 0.0
0.014021 1.350977 0.0
-0.038048 1.131738 0.0
-0.121640 0.874939 0.0
-0.217440 0.652750 0.0
-0.309487 0.490947 0.0
-0.388278 0.395670 0.0
-0.442917 0.368201 0.0
-0.461760 0.411487 0.0
-0.440871 0.520398 0.0
-0.391152 0.670711 0.0
-0.332551 0.824850 0.0
-0.279097 0.951471 0.0
-0.232668 1.038408 0.0
-0.190620 1.091609 0.0
-0.152293 1.122697 0.0
-0.117983 1.140999 0.0
-0.087506 1.151936 0.0
-0.060369 1.156803 0.0
-0.035946 1.149486 0.0
-0.012165 1.090626 0.0
0.008317 1.277255 0.0
0.024181 1.350348 0.0
0.039223 1.384260 0.0
0.055221 1.424214 0.0
0.072362 1.459360 0.0
0.086041 1.457267 0.0
0.085385 1.372760 0.0
0.056337 1.191072 0.0
-0.008205 0.963738 0.0
-0.098949 0.750495 0.0
-0.195925 0.582225 0.0
-0.284399 0.471657 0.0
-0.355209 0.417663 0.0
-0.396639 0.422298 0.0
-0.397567 0.489626 0.0
-0.358093 0.612291 0.0
-0.295672 0.762249 0.0
-0.234941 0.899886 0.0
-0.188202 0.996825 0.0
-0.151367 1.054309 0.0
-0.119195 1.089497 0.0
-0.091044 1.111737 0.0
-0.066482 1.126160 0.0
-0.045053 1.134013 0.0
-0.026532 1.129333 0.0
-0.008998 1.069463 0.0
0.011571 1.257368 0.0
0.034100 1.331842 0.0
0.056063 1.365760 0.0
0.079459 1.403320 0.0
0.105168 1.437403 0.0
0.129524 1.441188 0.0
0.142774 1.376244 0.0
0.131755 1.227655 0.0
0.089309 1.034143 0.0
0.018555 0.841588 0.0
-0.070556 0.677218 0.0
-0.162054 0.556636 0.0
-0.242250 0.483690 0.0
-0.301819 0.457271 0.0
-0.328595 0.482357 0.0
-0.312855 0.564346 0.0
-0.259584 0.694503 0.0
-0.193644 0.840960 0.0
-0.142810 0.958178 0.0
-0.109198 1.022509 0.0
-0.082522 1.062450 0.0
-0.060619 1.088730 0.0
-0.042536 1.106522 0.0
-0.027555 1.117240 0.0
-0.015639 1.115668 0.0
-0.005255 1.055210 0.0
0.014305 1.231492 0.0
0.042381 1.307112 0.0
0.069971 1.340937 0.0
0.099117 1.375601 0.0
0.131127 1.407403 0.0
0.163143 1.414817 0.0
0.186621 1.365887 0.0
0.189550 1.246103 0.0
0.164578 1.083113 0.0
0.113571 0.914380 0.0
0.043545 0.763562 0.0
-0.037372 0.642707 0.0
-0.117957 0.558400 0.0
-0.186586 0.510758 0.0
-0.233142 0.502201 0.0
-0.245449 0.541068 0.0
-0.215847 0.634908 0.0
-0.155768 0.774536 0.0
-0.100493 0.918493 0.0
-0.066191 0.994280 0.0
-0.043094 1.040906 0.0
-0.026970 1.072247 0.0
-0.015806 1.093758 0.0
-0.008080 1.107297 0.0
-0.003385 1.109000 0.0
-0.000923 1.049032 0.0
0.016441 1.200746 0.0
0.048807 1.277416 0.0
0.080659 1.311192 0.0
0.113976 1.342882 0.0
0.150296 1.371793 0.0
0.187483 1.381225 0.0
0.218291 1.345192 0.0
0.232106 1.250053 0.0
0.221669 1.114571 0.0
0.187368 0.968230 0.0
0.134731 0.832375 0.0
0.070749 0.718794 0.0
0.001915 0.631732 0.0
-0.064824 0.572793 0.0
-0.120406 0.542305 0.0
-0.153916 0.546781 0.0
-0.153455 0.599132 0.0
-0.114507 0.711286 0.0
-0.062026 0.873987 0.0
-0.023961 0.966419 0.0
-0.001752 1.023461 0.0
0.009554 1.062262 0.0
0.013551 1.088582 0.0
0.013210 1.105089 0.0
0.009907 1.109816 0.0
0.003776 1.051886 0.0
0.017947 1.166358 0.0
0.053308 1.244077 0.0
0.088078 1.277910 0.0
0.124130 1.306794 0.0
0.163097 1.332593 0.0
0.203482 1.342854 0.0
0.239346 1.316892 0.0
0.261607 1.242278 0.0
0.263399 1.130991 0.0
0.243923 1.005587 0.0
0.207049 0.884529 0.0
0.158446 0.779225 0.0
0.103726 0.694854 0.0
0.047824 0.632312 0.0
-0.004574 0.590765 0.0
-0.046908 0.574165 0.0
-0.068998 0.593377 0.0
-0.059290 0.668384 0.0
-0.021403 0.826521 0.0
0.018106 0.936311 0.0
0.040786 1.008681 0.0
0.048033 1.058490 0.0
0.044897 1.091492 0.0
0.035945 1.111471 0.0
0.023851 1.118830 0.0
0.008596 1.064258 0.0
0.018824 1.129587 0.0
0.055901 1.208410 0.0
0.092314 1.242393 0.0
0.129830 1.268743 0.0
0.170087 1.291420 0.0
0.212130 1.301599 0.0
0.251256 1.283156 0.0
0.279915 1.225094 0.0
0.291853 1.134445 0.0
0.285439 1.028024 0.0
0.263065 0.921341 0.0
0.229033 0.825047 0.0
0.187966 0.744818 0.0
0.143982 0.682235 0.0
0.100464 0.636760 0.0
0.060690 0.610279 0.0
0.029426 0.610617 0.0
0.015465 0.655397 0.0
0.031444 0.785642 0.0
0.063339 0.905785 0.0
0.083676 0.996189 0.0
0.086932 1.060480 0.0
0.076994 1.102577 0.0
0.059327 1.127006 0.0
0.037977 1.136738 0.0
0.013363 1.086218 0.0
0.019089 1.091674 0.0
0.056652 1.171683 0.0
0.093516 1.205843 0.0
0.131381 1.229913 0.0
0.171824 1.249549 0.0
0.214323 1.258929 0.0
0.255275 1.245749 0.0
0.288574 1.200544 0.0
0.308713 1.126918 0.0
0.313570 1.037109 0.0
0.304342 0.943858 0.0
0.284080 0.856822 0.0
0.256418 0.781774 0.0
0.224748 0.720932 0.0
0.191687 0.674642 0.0
0.158981 0.644877 0.0
0.128349 0.637914 0.0
0.104116 0.666294 0.0
0.100021 0.762860 0.0
0.114945 0.881747 0.0
0.127261 0.987573 0.0
0.125000 1.068101 0.0
0.108289 1.121604 0.0
0.082145 1.151790 0.0
0.051592 1.163858 0.0
0.017862 1.117443 0.0
0.018767 1.053818 0.0
0.055640 1.135104 0.0
0.091846 1.169351 0.0
0.129080 1.191307 0.0
0.168805 1.207986 0.0
0.210811 1.215987 0.0
0.252424 1.206124 0.0
0.288842 1.170452 0.0
0.315382 1.110331 0.0
0.329733 1.034488 0.0
0.332220 0.953222 0.0
0.324861 0.875079 0.0
0.310393 0.805648 0.0
0.291463 0.747658 0.0
0.269877 0.702564 0.0
0.246252 0.673287 0.0
0.220662 0.665726 0.0
0.194668 0.688710 0.0
0.177214 0.761994 0.0
0.173259 0.871644 0.0
0.172128 0.986491 0.0
0.161346 1.082227 0.0
0.137169 1.148366 0.0
0.102905 1.185436 0.0
0.063774 1.199895 0.0
0.021803 1.157107 0.0
0.017881 1.017170 0.0
0.052941 1.099819 0.0
0.087461 1.133909 0.0
0.123200 1.153777 0.0
0.161453 1.167537 0.0
0.202197 1.173686 0.0
0.243511 1.165498 0.0
0.281733 1.136439 0.0
0.313043 1.086495 0.0
0.335229 1.021786 0.0
0.348101 0.950565 0.0
0.352924 0.880272 0.0
0.351624 0.816222 0.0
0.345915 0.761723 0.0
0.336451 0.719549 0.0
0.322594 0.693783 0.0
0.303237 0.690176 0.0
0.278471 0.715020 0.0
0.253152 0.778457 0.0
0.233256 0.879032 0.0
0.216515 0.996974 0.0
0.194466 1.104576 0.0
0.161815 1.182846 0.0
0.119906 1.227130 0.0
0.073413 1.243823 0.0
0.024826 1.203737 0.0
0.016449 0.982840 0.0
0.048622 1.066916 0.0
0.080506 1.100407 0.0
0.113994 1.118052 0.0
0.150130 1.128873 0.0
0.188963 1.132774 0.0
0.229160 1.124898 0.0
0.268043 1.099933 0.0
0.302705 1.057029 0.0
0.331367 1.000405 0.0
0.353728 0.936713 0.0
0.370503 0.872526 0.0
0.382633 0.813137 0.0
0.390399 0.762751 0.0
0.392816 0.725567 0.0
0.387877 0.706560 0.0
0.373681 0.710952 0.0
0.349815 0.742875 0.0
0.319157 0.806580 0.0
0.287037 0.902925 0.0
0.255672 1.021187 0.0
0.221429 1.136656 0.0
0.179908 1.224938 0.0
0.131268 1.275587 0.0
0.079304 1.293823 0.0
0.026533 1.255096 0.0
0.014483 0.951908 0.0
0.042741 1.037417 0.0
0.071135 1.069627 0.0
0.101711 1.084769 0.0
0.135155 1.092576 0.0
0.171492 1.093901 0.0
0.209855 1.085211 0.0
0.248429 1.062164 0.0
0.285393 1.023170 0.0
0.319877 0.971117 0.0
0.351737 0.911779 0.0
0.380867 0.851556 0.0
0.406521 0.796322 0.0
0.426868 0.751454 0.0
0.439082 0.722232 0.0
0.440203 0.713714 0.0
0.428312 0.729885 0.0
0.403399 0.772721 0.0
0.367932 0.842860 0.0
0.326581 0.940116 0.0
0.283326 1.058617 0.0
0.238130 1.178664 0.0
0.188683 1.273897 0.0
0.135071 1.328879 0.0
0.080302 1.347264 0.0
0.026550 1.308179 0.0
0.011978 0.925448 0.0
0.035356 1.012241 0.0
0.059529 1.042236 0.0
0.086608 1.054505 0.0
0.116809 1.059194 0.0
0.150105 1.057650 0.0
0.186042 1.047162 0.0
0.223668 1.024014 0.0
0.262724 0.985300 0.0
0.303684 0.933544 0.0
0.346044 0.875132 0.0
0.387724 0.817394 0.0
0.425337 0.767217 0.0
0.454781 0.730768 0.0
0.472134 0.713350 0.0
0.474646 0.718965 0.0
0.461403 0.749768 0.0
0.433398 0.805756 0.0
0.393324 0.885366 0.0
0.345327 0.986958 0.0
0.293690 1.106666 0.0
0.240436 1.229065 0.0
0.185475 1.327904 0.0
0.129692 1.384267 0.0
0.075559 1.400779 0.0
0.024623 1.359352 0.0
0.008916 0.904554 0.0
0.026546 0.992127 0.0
0.045922 1.018801 0.0
0.068951 1.027832 0.0
0.095359 1.029259 0.0
0.125161 1.024487 0.0
0.158385 1.011164 0.0
0.195261 0.985510 0.0
0.237752 0.942256 0.0
0.287130 0.886250 0.0
0.340553 0.826643 0.0
0.392509 0.772247 0.0
0.436961 0.730299 0.0
0.468832 0.706371 0.0
0.484870 0.704356 0.0
0.483912 0.726405 0.0
0.466580 0.772903 0.0
0.434730 0.842476 0.0
0.391080 0.932369 0.0
0.339165 1.039866 0.0
0.282926 1.161633 0.0
0.225413 1.284866 0.0
0.168506 1.383970 0.0
0.114313 1.438175 0.0
0.064834 1.450483 0.0
0.020721 1.404696 0.0
0.005288 0.890349 0.0