# vtk DataFile Version 3.0
Scalar Field
ASCII
DATASET RECTILINEAR_GRID
DIMENSIONS 26 100 1
X_COORDINATES 26 double
0.050000 0.150000 0.250000 0.350000 0.450000 0.550000 0.650000 0.750000 0.850000 0.950000 1.050000 1.150000 1.250000 1.350000 1.450000 1.550000 1.650000 1.750000 1.850000 1.950000 2.050000 2.150000 2.250000 2.350000 2.450000 2.550000 
Y_COORDINATES 100 double
0.050000 0.150000 0.250000 0.350000 0.450000 0.550000 0.650000 0.750000 0.850000 0.950000 1.050000 1.150000 1.250000 1.350000 1.450000 1.550000 1.650000 1.750000 1.850000 1.950000 2.050000 2.150000 2.250000 2.350000 2.450000 2.550000 2.650000 2.750000 2.850000 2.950000 3.050000 3.150000 3.250000 3.350000 3.450000 3.550000 3.650000 3.750000 3.850000 3.950000 4.050000 4.150000 4.250000 4.350000 4.450000 4.550000 4.650000 4.750000 4.850000 4.950000 5.050000 5.150000 5.250000 5.350000 5.450000 5.550000 5.650000 5.750000 5.850000 5.950000 6.050000 6.150000 6.250000 6.350000 6.450000 6.550000 6.650000 6.750000 6.850000 6.950000 7.050000 7.150000 7.250000 7.350000 7.450000 7.550000 7.650000 7.750000 7.850000 7.950000 8.050000 8.150000 8.250000 8.350000 8.450000 8.550000 8.650000 8.750000 8.850000 8.950000 9.050000 9.150000 9.250000 9.350000 9.450000 9.550000 9.650000 9.750000 9.850000 9.950000 
Z_COORDINATES 1 double
0.0
POINT_DATA 2600
SCALARS Skalarfeld double 1
LOOKUP_TABLE default
0.168386
0.171743
0.180588
0.194512
0.213344
0.236833
0.264459
0.295267
0.327746
0.359837
0.389148
0.413386
0.430872
0.440870
0.443613
0.440044
0.431502
0.419543
0.405692
0.391296
0.377455
0.365021
0.354621
0.346725
0.341738
0.340257
0.164503
0.168720
0.177779
0.191791
0.210755
0.234525
0.262670
0.294303
0.327913
0.361326
0.391907
0.417081
0.434979
0.444855
0.447083
0.442778
0.433383
0.420586
0.405996
0.390996
0.376689
0.363909
0.353253
0.345136
0.339830
0.337431
0.156322
0.160764
0.169923
0.184026
0.203268
0.227740
0.257281
0.291231
0.328122
0.365461
0.399864
0.427830
0.446895
0.456322
0.456999
0.450476
0.438574
0.423361
0.406667
0.389968
0.374368
0.360644
0.349314
0.340702
0.334979
0.332179
0.143453
0.147838
0.156856
0.170848
0.190260
0.215571
0.247125
0.284787
0.327362
0.371906
0.413547
0.446730
0.467738
0.476032
0.473771
0.463139
0.446784
0.427412
0.407199
0.387732
0.370074
0.354891
0.342560
0.333274
0.327101
0.324037
0.125693
0.129780
0.138280
0.151674
0.170720
0.196437
0.230004
0.272372
0.323295
0.379626
0.433847
0.475900
0.499517
0.505225
0.497906
0.480539
0.457307
0.431817
0.406639
0.383415
0.363075
0.346066
0.332544
0.322510
0.315894
0.312622
0.102988
0.106484
0.113899
0.125830
0.143332
0.168039
0.202301
0.249054
0.310688
0.385522
0.461913
0.519063
0.545210
0.545499
0.529561
0.501737
0.468632
0.434895
0.403400
0.375659
0.352277
0.333327
0.318629
0.307921
0.300949
0.297539
0.075519
0.078065
0.083624
0.092798
0.106749
0.127525
0.158644
0.205907
0.277629
0.380119
0.498475
0.582768
0.608298
0.598259
0.567439
0.524170
0.477781
0.433789
0.395019
0.362494
0.336184
0.315575
0.300019
0.288918
0.281801
0.278375
0.043823
0.045024
0.047835
0.052624
0.060217
0.072304
0.092416
0.128203
0.196807
0.332347
0.540180
0.678206
0.690757
0.661828
0.606639
0.542137
0.479384
0.423937
0.377909
0.341260
0.312913
0.291514
0.275830
0.264887
0.257993
0.254741
0.008900
0.008421
0.007665
0.006469
0.004652
0.002104
-0.001018
-0.004069
-0.001047
0.100974
0.625290
0.809844
0.787314
0.722986
0.634199
0.544744
0.464638
0.398556
0.347170
0.308627
0.280298
0.259777
0.245210
0.235290
0.229162
0.226350
-0.027753
-0.030075
-0.034839
-0.043006
-0.056530
-0.079530
-0.121339
-0.204114
-0.382618
-0.716063
-0.045387
0.843633
0.877422
0.744848
0.624800
0.514508
0.420468
0.348220
0.296608
0.260839
0.236190
0.219187
0.207541
0.199819
0.195158
0.193115
-0.064270
-0.068309
-0.076795
-0.091287
-0.114836
-0.153163
-0.216528
-0.320578
-0.478107
-0.659452
-0.591804
0.000000
0.790391
0.703360
0.560197
0.433843
0.329841
0.260529
0.219097
0.194355
0.179024
0.169170
0.162724
0.158589
0.156189
0.155268
-0.098714
-0.104083
-0.115390
-0.134380
-0.164221
-0.210010
-0.278459
-0.373203
-0.479111
-0.542635
-0.524157
-0.519294
0.000000
0.589170
0.474979
0.294714
0.170346
0.119664
0.108019
0.107333
0.108825
0.110349
0.111512
0.112342
0.112952
0.113472
-0.129400
-0.135582
-0.148541
-0.169896
-0.202372
-0.249748
-0.315520
-0.397704
-0.478465
-0.522092
-0.522543
-0.514431
-0.500962
0.000000
0.313046
0.151114
-0.105277
-0.093672
-0.037251
0.002974
0.028747
0.045214
0.055813
0.062585
0.066716
0.068881
-0.155122
-0.161589
-0.175060
-0.196872
-0.229151
-0.274510
-0.334649
-0.406487
-0.476192
-0.518305
-0.526095
-0.508240
-0.487492
-0.468377
0.000000
-0.257062
-0.665239
-0.357740
-0.193840
-0.105494
-0.053598
-0.021590
-0.001303
0.011548
0.019276
0.023103
-0.175237
-0.181525
-0.194539
-0.215295
-0.245349
-0.286448
-0.339422
-0.401527
-0.462421
-0.509813
-0.524203
-0.504505
-0.473890
-0.449262
-0.440302
-0.457441
-0.518087
-0.392947
-0.275956
-0.187465
-0.125583
-0.083828
-0.056116
-0.038150
-0.027258
-0.021957
-0.189636
-0.195376
-0.207178
-0.225756
-0.252171
-0.287547
-0.332285
-0.384186
-0.439559
-0.485658
-0.505461
-0.494724
-0.466880
-0.442389
-0.431341
-0.396795
-0.401103
-0.380398
-0.317873
-0.245873
-0.184329
-0.138230
-0.105836
-0.084159
-0.070814
-0.064346
-0.198661
-0.203581
-0.213626
-0.229238
-0.251066
-0.279793
-0.315686
-0.358157
-0.404869
-0.446419
-0.471132
-0.473497
-0.463178
-0.451087
-0.439498
-0.411976
-0.401653
-0.397037
-0.355314
-0.292739
-0.232411
-0.184158
-0.148883
-0.124693
-0.109598
-0.102285
-0.202993
-0.206913
-0.214848
-0.226990
-0.243636
-0.265173
-0.291850
-0.323889
-0.360757
-0.397300
-0.427023
-0.448191
-0.463609
-0.473781
-0.474031
-0.459837
-0.451710
-0.442194
-0.398639
-0.334244
-0.271948
-0.221593
-0.184307
-0.158446
-0.142183
-0.134305
-0.203538
-0.206372
-0.212024
-0.220443
-0.231580
-0.245540
-0.262745
-0.283770
-0.310455
-0.343174
-0.380902
-0.424625
-0.470826
-0.510958
-0.532499
-0.534575
-0.528085
-0.503812
-0.443453
-0.369196
-0.302474
-0.249953
-0.211297
-0.184445
-0.167508
-0.159320
-0.201324
-0.203084
-0.206471
-0.211184
-0.216792
-0.223032
-0.230657
-0.240569
-0.256869
-0.286795
-0.335402
-0.403866
-0.482495
-0.555260
-0.604065
-0.620751
-0.609755
-0.560113
-0.475703
-0.391318
-0.321540
-0.268150
-0.229138
-0.202038
-0.184896
-0.176684
-0.197395
-0.198202
-0.199568
-0.200936
-0.201437
-0.200235
-0.197874
-0.197817
-0.203844
-0.231596
-0.292474
-0.384452
-0.491574
-0.590502
-0.662680
-0.686733
-0.658533
-0.579976
-0.484238
-0.397068
-0.327517
-0.275158
-0.237135
-0.210746
-0.194028
-0.186049
-0.192706
-0.192798
-0.192642
-0.191467
-0.187978
-0.180587
-0.168873
-0.157748
-0.157291
-0.183165
-0.256439
-0.365812
-0.491126
-0.602299
-0.675085
-0.687068
-0.646494
-0.563916
-0.469152
-0.385631
-0.320008
-0.270958
-0.235425
-0.210760
-0.195119
-0.187675
-0.188001
-0.187725
-0.186796
-0.184361
-0.178891
-0.168146
-0.150264
-0.128205
-0.119963
-0.148689
-0.232722
-0.348552
-0.471613
-0.572672
-0.633839
-0.639130
-0.595080
-0.517427
-0.432245
-0.358123
-0.300003
-0.256497
-0.224896
-0.202895
-0.188917
-0.182284
-0.183702
-0.183463
-0.182668
-0.180599
-0.175905
-0.166247
-0.148698
-0.123879
-0.108791
-0.139216
-0.220008
-0.325138
-0.432853
-0.517500
-0.562240
-0.559445
-0.516721
-0.449787
-0.379120
-0.318005
-0.269858
-0.233553
-0.206997
-0.188402
-0.176550
-0.170944
-0.179828
-0.180008
-0.180220
-0.180114
-0.178992
-0.175167
-0.165260
-0.147056
-0.133562
-0.155027
-0.218819
-0.301426
-0.384515
-0.447963
-0.474500
-0.463842
-0.424837
-0.370972
-0.316502
-0.269741
-0.232662
-0.204410
-0.183539
-0.168812
-0.159386
-0.154939
-0.176009
-0.176853
-0.178696
-0.181646
-0.185992
-0.191334
-0.194514
-0.189651
-0.181605
-0.191342
-0.228242
-0.281978
-0.335106
-0.373260
-0.382329
-0.364810
-0.330346
-0.289441
-0.250541
-0.217712
-0.191590
-0.171472
-0.156441
-0.145741
-0.138864
-0.135623
-0.171568
-0.173180
-0.176855
-0.183091
-0.193158
-0.208254
-0.226298
-0.238179
-0.237671
-0.237248
-0.247606
-0.268630
-0.290130
-0.302187
-0.294896
-0.271276
-0.240927
-0.211356
-0.186022
-0.165568
-0.149440
-0.136935
-0.127494
-0.120720
-0.116355
-0.114292
-0.165656
-0.167968
-0.173277
-0.182305
-0.196777
-0.218783
-0.248648
-0.277549
-0.286587
-0.279749
-0.268466
-0.259392
-0.252156
-0.240451
-0.218413
-0.188962
-0.161317
-0.140627
-0.126197
-0.115987
-0.108399
-0.102600
-0.098213
-0.095062
-0.093050
-0.092081
-0.157672
-0.160465
-0.166868
-0.177667
-0.194699
-0.220141
-0.254474
-0.291857
-0.315912
-0.308063
-0.283577
-0.253244
-0.222789
-0.191388
-0.156480
-0.121067
-0.093978
-0.079321
-0.072955
-0.070685
-0.069989
-0.069796
-0.069761
-0.069807
-0.069907
-0.069913
-0.147321
-0.150327
-0.157222
-0.168711
-0.186475
-0.212430
-0.246813
-0.284171
-0.310939
-0.314885
-0.287059
-0.245865
-0.201035
-0.155596
-0.110277
-0.068833
-0.039848
-0.028155
-0.027132
-0.030583
-0.035134
-0.039405
-0.042961
-0.045716
-0.047643
-0.048494
-0.134661
-0.137635
-0.144479
-0.155740
-0.172798
-0.197163
-0.228807
-0.262969
-0.288439
-0.294109
-0.275902
-0.234355
-0.184215
-0.131400
-0.078998
-0.031955
0.000967
0.012980
0.011122
0.003963
-0.004299
-0.011944
-0.018347
-0.023316
-0.026776
-0.028349
-0.120061
-0.122813
-0.129198
-0.139579
-0.155001
-0.176585
-0.204162
-0.233861
-0.256820
-0.263655
-0.250084
-0.217604
-0.169870
-0.115830
-0.060284
-0.008941
0.028967
0.044461
0.041938
0.032919
0.022364
0.012326
0.003742
-0.002982
-0.007683
-0.009892
-0.104106
-0.106515
-0.112178
-0.121294
-0.134608
-0.152931
-0.176091
-0.201168
-0.221472
-0.229401
-0.220615
-0.195071
-0.155739
-0.105682
-0.050802
0.002542
0.045325
0.066247
0.065353
0.056370
0.044883
0.033285
0.023047
0.014966
0.009338
0.006473
-0.087476
-0.089485
-0.094292
-0.101971
-0.113032
-0.128071
-0.146997
-0.167774
-0.185571
-0.194431
-0.190184
-0.171625
-0.139997
-0.097790
-0.047080
0.005265
0.051466
0.078061
0.081187
0.075354
0.063450
0.050457
0.038943
0.029909
0.023674
0.020499
-0.070847
-0.072447
-0.076357
-0.082572
-0.091440
-0.103415
-0.118525
-0.135478
-0.150958
-0.160454
-0.160167
-0.148143
-0.124291
-0.089767
-0.046405
0.002021
0.049072
0.080592
0.093354
0.088581
0.076221
0.062608
0.050577
0.041200
0.034799
0.031621
-0.054809
-0.056020
-0.059053
-0.063865
-0.070705
-0.079946
-0.091727
-0.105356
-0.118704
-0.128503
-0.131475
-0.125275
-0.108819
-0.082103
-0.046016
-0.003077
0.041299
0.077284
0.095670
0.093036
0.081629
0.068582
0.057041
0.048094
0.042051
0.039164
-0.039811
-0.040675
-0.042881
-0.046395
-0.051420
-0.058285
-0.067229
-0.078009
-0.089421
-0.099251
-0.104827
-0.103694
-0.094055
-0.074888
-0.046090
-0.009283
0.030909
0.066163
0.086637
0.087443
0.078399
0.067273
0.057422
0.049824
0.044732
0.042418
-0.026142
-0.026704
-0.028152
-0.030493
-0.033928
-0.038772
-0.045339
-0.053724
-0.063429
-0.073135
-0.080817
-0.084107
-0.080711
-0.068770
-0.047348
-0.017452
0.016821
0.048160
0.067817
0.071596
0.065846
0.057942
0.051061
0.045815
0.042302
0.040820
-0.013921
-0.014229
-0.014992
-0.016292
-0.018364
-0.021523
-0.026144
-0.032565
-0.040837
-0.050415
-0.059927
-0.067200
-0.069611
-0.064666
-0.050848
-0.028753
-0.001949
0.023400
0.040373
0.045884
0.043953
0.040488
0.037858
0.035966
0.034643
0.034218
-0.003113
-0.003212
-0.003366
-0.003764
-0.004696
-0.006489
-0.009561
-0.014438
-0.021606
-0.031220
-0.042548
-0.053645
-0.061674
-0.063744
-0.058006
-0.044709
-0.026647
-0.008496
0.004842
0.011334
0.013659
0.015778
0.018584
0.020937
0.022323
0.023132
0.006446
0.006515
0.006893
0.007249
0.007232
0.006505
0.004607
0.000860
-0.005594
-0.015620
-0.029080
-0.044200
-0.058015
-0.067447
-0.070447
-0.066777
-0.058108
-0.047377
-0.037607
-0.029982
-0.022773
-0.014054
-0.004884
0.002320
0.006737
0.008887
0.015017
0.015221
0.016043
0.016988
0.017663
0.017714
0.016633
0.013588
0.007335
-0.003796
-0.020110
-0.039841
-0.059906
-0.077129
-0.089230
-0.095264
-0.095565
-0.091353
-0.084124
-0.074487
-0.061587
-0.045544
-0.029611
-0.017452
-0.009999
-0.006519
0.022912
0.023228
0.024389
0.025739
0.026876
0.027422
0.026793
0.023965
0.017131
0.003775
-0.016459
-0.041518
-0.068118
-0.092992
-0.113578
-0.128165
-0.135816
-0.136296
-0.129966
-0.117107
-0.097785
-0.074285
-0.052031
-0.035524
-0.025451
-0.020829
0.030430
0.030869
0.032233
0.033787
0.035143
0.035871
0.035278
0.032023
0.023424
0.006447
-0.018661
-0.049220
-0.081743
-0.112987
-0.140204
-0.161069
-0.173625
-0.176463
-0.169186
-0.151957
-0.125877
-0.095771
-0.068739
-0.049293
-0.037410
-0.032098
0.037750
0.038450
0.039823
0.041361
0.042663
0.043174
0.042080
0.037525
0.025744
0.004069
-0.025973
-0.061041
-0.097734
-0.133061
-0.164226
-0.188498
-0.203205
-0.205895
-0.195988
-0.173730
-0.141162
-0.106494
-0.077614
-0.057180
-0.044489
-0.038857
0.045221
0.045854
0.047143
0.048598
0.049596
0.049223
0.046952
0.040075
0.024095
-0.002271
-0.035997
-0.073575
-0.112060
-0.148853
-0.181035
-0.205696
-0.220059
-0.220025
-0.205465
-0.177081
-0.142121
-0.107437
-0.079032
-0.058846
-0.046178
-0.040555
0.052603
0.052953
0.053936
0.055098
0.055761
0.054553
0.049486
0.039506
0.019361
-0.010349
-0.045660
-0.083486
-0.121430
-0.157377
-0.187745
-0.209778
-0.218922
-0.214355
-0.196436
-0.167404
-0.133161
-0.100390
-0.073864
-0.054904
-0.042897
-0.037585
0.059417
0.059342
0.059806
0.060407
0.060413
0.058213
0.050978
0.036278
0.013107
-0.017857
-0.052642
-0.088757
-0.124015
-0.155590
-0.181238
-0.198041
-0.203169
-0.195644
-0.176338
-0.148267
-0.116701
-0.087273
-0.063597
-0.046531
-0.035628
-0.030838
0.064984
0.064406
0.064172
0.063966
0.063013
0.059446
0.050249
0.032642
0.007370
-0.022879
-0.055251
-0.087680
-0.118250
-0.144772
-0.165013
-0.176672
-0.177928
-0.168310
-0.149083
-0.123351
-0.095631
-0.070315
-0.049985
-0.035178
-0.025633
-0.021479
0.068513
0.067420
0.066386
0.065223
0.063167
0.058165
0.047229
0.028549
0.003690
-0.024458
-0.053410
-0.081353
-0.106661
-0.127591
-0.142344
-0.149274
-0.147331
-0.136581
-0.118510
-0.095970
-0.072596
-0.051605
-0.034732
-0.022300
-0.014214
-0.010729
0.069252
0.067696
0.065832
0.063669
0.060554
0.054431
0.042692
0.024470
0.001511
-0.023515
-0.048362
-0.071395
-0.091272
-0.106678
-0.116341
-0.119244
-0.114948
-0.103925
-0.087703
-0.068704
-0.049676
-0.032835
-0.019270
-0.009163
-0.002529
0.000313
0.066695
0.064754
0.062059
0.058893
0.054873
0.048183
0.036729
0.020157
0.000095
-0.021120
-0.041464
-0.059476
-0.074086
-0.084391
-0.089627
-0.089315
-0.083480
-0.072833
-0.058799
-0.043303
-0.028299
-0.015211
-0.004662
0.003268
0.008524
0.010780
0.060805
0.058530
0.054963
0.050748
0.045967
0.039270
0.029022
0.015018
-0.001414
-0.018334
-0.033982
-0.047083
-0.056809
-0.062614
-0.064172
-0.061426
-0.054716
-0.044850
-0.033056
-0.020772
-0.009297
0.000532
0.008416
0.014363
0.018346
0.020089
0.052188
0.049563
0.045001
0.039580
0.034047
0.027693
0.019252
0.008446
-0.003827
-0.016116
-0.026999
-0.035415
-0.040737
-0.042696
-0.041289
-0.036767
-0.029653
-0.020749
-0.011043
-0.001540
0.006967
0.014051
0.019634
0.023811
0.026640
0.027941
0.042084
0.039031
0.033307
0.026413
0.019920
0.013909
0.007459
0.000112
-0.007744
-0.015231
-0.021369
-0.025364
-0.026767
-0.025486
-0.021727
-0.015925
-0.008689
-0.000748
0.007150
0.014361
0.020460
0.025296
0.028939
0.031568
0.033362
0.034287
0.032106
0.028586
0.021607
0.012963
0.005096
-0.000954
-0.005704
-0.009792
-0.013356
-0.016138
-0.017683
-0.017543
-0.015456
-0.011443
-0.005805
0.000946
0.008187
0.015293
0.021732
0.027141
0.031359
0.034415
0.036473
0.037787
0.038671
0.039276
0.023759
0.019969
0.011858
0.001374
-0.008339
-0.015112
-0.018893
-0.020419
-0.020285
-0.018838
-0.016182
-0.012280
-0.007097
-0.000749
0.006438
0.013956
0.021220
0.027706
0.033060
0.037135
0.039955
0.041667
0.042495
0.042747
0.042857
0.043190
0.018189
0.014352
0.005695
-0.006313
-0.018194
-0.026448
-0.030266
-0.030339
-0.027551
-0.022778
-0.016646
-0.009545
-0.001713
0.006624
0.015133
0.023349
0.030750
0.036894
0.041549
0.044726
0.046583
0.047354
0.047307
0.046780
0.046276
0.046381
0.015874
0.012080
0.003448
-0.008824
-0.022481
-0.033155
-0.037932
-0.037886
-0.033773
-0.026926
-0.018370
-0.008889
0.001003
0.010935
0.020553
0.029441
0.037138
0.043246
0.047593
0.050283
0.051577
0.051781
0.051204
0.050200
0.049278
0.049202
0.016410
0.012802
0.004528
-0.007365
-0.020906
-0.032831
-0.040484
-0.041719
-0.037550
-0.030057
-0.020318
-0.009481
0.001710
0.012726
0.023165
0.032648
0.040760
0.047120
0.051535
0.054133
0.055237
0.055221
0.054443
0.053269
0.052166
0.051945
0.019064
0.015756
0.008117
-0.002933
-0.015798
-0.027826
-0.036404
-0.039943
-0.037797
-0.031173
-0.021419
-0.010331
0.001310
0.012798
0.023663
0.033547
0.042079
0.048879
0.053680
0.056548
0.057815
0.057903
0.057226
0.056177
0.055180
0.054761
0.022943
0.020001
0.013186
0.003310
-0.008392
-0.019854
-0.028786
-0.033531
-0.033425
-0.029012
-0.020793
-0.010591
0.000721
0.012050
0.022880
0.032874
0.041690
0.048964
0.054345
0.057773
0.059514
0.060002
0.059695
0.059017
0.058264
0.057890
0.027174
0.024622
0.018743
0.010244
0.000037
-0.010362
-0.019109
-0.024657
-0.026183
-0.023692
-0.017699
-0.009284
0.000675
0.011272
0.021594
0.031393
0.040272
0.047906
0.053902
0.058063
0.060514
0.061648
0.062009
0.061795
0.061416
0.061303
0.031042
0.028874
0.023988
0.016972
0.008446
-0.000566
-0.008678
-0.014559
-0.017312
-0.016639
-0.012771
-0.006357
0.001836
0.011011
0.020453
0.029721
0.038433
0.046230
0.052738
0.057684
0.061089
0.063133
0.064120
0.064470
0.064589
0.064836
0.034071
0.032269
0.028400
0.022902
0.016120
0.008665
0.001499
-0.004306
-0.007867
-0.008701
-0.006759
-0.002365
0.003943
0.011536
0.019811
0.028287
0.036581
0.044364
0.051296
0.057014
0.061306
0.064205
0.065968
0.066999
0.067691
0.068340
0.036056
0.034600
0.031751
0.027753
0.022680
0.016814
0.010756
0.005324
0.001319
-0.000672
-0.000379
0.002145
0.006608
0.012571
0.019558
0.027127
0.034900
0.042544
0.049713
0.056010
0.061107
0.064888
0.067495
0.069267
0.070564
0.071627
0.037048
0.035922
0.034077
0.031502
0.028022
0.023659
0.018735
0.013836
0.009654
0.006815
0.005744
0.006610
0.009349
0.013721
0.019389
0.025987
0.033164
0.040578
0.047866
0.054610
0.060416
0.065046
0.068508
0.071042
0.072950
0.074421
0.037300
0.036498
0.035600
0.034304
0.032220
0.029183
0.025305
0.020975
0.016768
0.013304
0.011110
0.010527
0.011689
0.014542
0.018897
0.024486
0.031000
0.038106
0.045425
0.052517
0.058941
0.064361
0.068657
0.071950
0.074464
0.076331
0.037184
0.036697
0.036629
0.036389
0.035437
0.033481
0.030477
0.026649
0.022458
0.018494
0.015344
0.013476
0.013186
0.014589
0.017640
0.022179
0.027960
0.034672
0.041931
0.049279
0.056232
0.062373
0.067464
0.071500
0.074610
0.076855
0.037069
0.036875
0.037444
0.037967
0.037839
0.036681
0.034321
0.030848
0.026619
0.022184
0.018160
0.015105
0.013445
0.013436
0.015173
0.018606
0.023569
0.029787
0.036886
0.044393
0.051785
0.058571
0.064408
0.069164
0.072856
0.075453
0.037209
0.037276
0.038218
0.039175
0.039550
0.038889
0.036907
0.033580
0.029180
0.024218
0.019321
0.015109
0.012104
0.010686
0.011074
0.013334
0.017386
0.023010
0.029847
0.037418
0.045162
0.052523
0.059054
0.064503
0.068759
0.071671
0.037648
0.038002
0.038993
0.040066
0.040630
0.040159
0.038264
0.034829
0.030065
0.024453
0.018622
0.013229
0.008868
0.006018
0.005014
0.006036
0.009098
0.014043
0.020539
0.028102
0.036136
0.044016
0.051201
0.057317
0.062117
0.065297
0.038438
0.038848
0.039697
0.040619
0.041088
0.040501
0.038383
0.034559
0.029209
0.022795
0.015942
0.009325
0.003585
-0.000717
-0.003140
-0.003393
-0.001362
0.002863
0.008985
0.016512
0.024811
0.033189
0.041011
0.047783
0.053114
0.056518
0.039439
0.039674
0.040236
0.040800
0.040921
0.039924
0.037279
0.032794
0.026649
0.019299
0.011358
0.003496
-0.003617
-0.009356
-0.013184
-0.014698
-0.013686
-0.010163
-0.004393
0.003126
0.011717
0.020615
0.029092
0.036537
0.042414
0.046021
0.040447
0.040436
0.040628
0.040624
0.040177
0.038512
0.035082
0.029724
0.022643
0.014293
0.005258
-0.003810
-0.012234
-0.019337
-0.024495
-0.027197
-0.027127
-0.024225
-0.018725
-0.011134
-0.002178
0.007305
0.016496
0.024675
0.031154
0.034996
0.041393
0.041113
0.040880
0.040275
0.038994
0.036477
0.032097
0.025765
0.017720
0.008404
-0.001641
-0.011800
-0.021400
-0.029725
-0.036065
-0.039808
-0.040537
-0.038119
-0.032758
-0.024976
-0.015548
-0.005382
0.004618
0.013634
0.020822
0.024986
0.042283
0.041739
0.041070
0.039906
0.037643
0.034153
0.028782
0.021509
0.012593
0.002446
-0.008441
-0.019494
-0.030051
-0.039363
-0.046650
-0.051205
-0.052519
-0.050395
-0.045008
-0.036897
-0.026881
-0.015929
-0.005008
0.004997
0.013039
0.017584
0.043137
0.042347
0.041258
0.039515
0.036550
0.031939
0.025605
0.017557
0.007964
-0.002798
-0.014278
-0.025944
-0.037141
-0.047101
-0.054993
-0.060036
-0.061651
-0.059586
-0.053993
-0.045422
-0.034721
-0.022902
-0.010979
0.000207
0.009281
0.014004
0.043929
0.042923
0.041456
0.039174
0.035546
0.030202
0.023104
0.014397
0.004336
-0.006764
-0.018520
-0.030434
-0.041857
-0.052019
-0.060067
-0.065182
-0.066745
-0.064470
-0.058487
-0.049360
-0.037917
-0.025124
-0.011989
0.000205
0.009971
0.014873
0.044535
0.043351
0.041574
0.038849
0.034706
0.028865
0.021346
0.012345
0.002130
-0.008998
-0.020673
-0.032421
-0.043613
-0.053476
-0.061157
-0.065843
-0.066926
-0.064139
-0.057625
-0.047925
-0.035849
-0.022347
-0.008462
0.004520
0.014835
0.019885
0.044708
0.043388
0.041382
0.038349
0.033894
0.027830
0.020225
0.011298
0.001324
-0.009397
-0.020513
-0.031570
-0.041978
-0.051007
-0.057856
-0.061764
-0.062163
-0.058805
-0.051824
-0.041715
-0.029235
-0.015294
-0.000936
0.012505
0.023108
0.028182
0.044088
0.042680
0.040536
0.037351
0.032814
0.026812
0.019452
0.010962
0.001621
-0.008273
-0.018376
-0.028261
-0.037391
-0.045114
-0.050717
-0.053530
-0.053054
-0.049073
-0.041709
-0.031405
-0.018847
-0.004884
0.009474
0.022896
0.033437
0.038404
0.042264
0.040823
0.038638
0.035471
0.031088
0.025436
0.018643
0.010936
0.002591
-0.006098
-0.014799
-0.023120
-0.030587
-0.036641
-0.040685
-0.042165
-0.040676
-0.036052
-0.028416
-0.018167
-0.005923
0.007543
0.021297
0.034111
0.044178
0.048925
0.038867
0.037455
0.035330
0.032350
0.028353
0.023326
0.017401
0.010794
0.003762
-0.003409
-0.010411
-0.016889
-0.022438
-0.026599
-0.028902
-0.028919
-0.026354
-0.021113
-0.013340
-0.003410
0.008114
0.020539
0.033052
0.044627
0.053775
0.058209
0.033690
0.032367
0.030394
0.027752
0.024346
0.020186
0.015391
0.010151
0.004693
-0.000727
-0.005828
-0.010303
-0.013812
-0.015998
-0.016509
-0.015046
-0.011429
-0.005644
0.002123
0.011496
0.021951
0.032872
0.043588
0.053356
0.061154
0.065177
0.026799
0.025598
0.023831
0.021634
0.018972
0.015861
0.012397
0.008725
0.005027
0.001513
-0.001579
-0.003994
-0.005460
-0.005707
-0.004492
-0.001633
0.002942
0.009163
0.016793
0.025442
0.034607
0.043739
0.052316
0.059893
0.066002
0.069502
0.018581
0.017479
0.015912
0.014195
0.012346
0.010381
0.008358
0.006368
0.004529
0.002993
0.001936
0.001554
0.002053
0.003622
0.006416
0.010518
0.015911
0.022449
0.029849
0.037703
0.045526
0.052829
0.059222
0.064529
0.068798
0.071661
0.009685
0.008604
0.007156
0.005859
0.004793
0.003963
0.003386
0.003088
0.003114
0.003540
0.004470
0.006031
0.008359
0.011576
0.015761
0.020925
0.026982
0.033732
0.040861
0.047954
0.054552
0.060225
0.064696
0.067988
0.070534
0.072686
0.000834
-0.000290
-0.001771
-0.002793
-0.003207
-0.003016
-0.002251
-0.000953
0.000845
0.003133
0.005934
0.009298
0.013291
0.017968
0.023352
0.029400
0.035983
0.042874
0.049746
0.056199
0.061812
0.066222
0.069249
0.071043
0.072234
0.073688
-0.007450
-0.008491
-0.010241
-0.011178
-0.011125
-0.010103
-0.008182
-0.005469
-0.002077
0.001899
0.006396
0.011384
0.016856
0.022808
0.029213
0.035994
0.043000
0.049998
0.056675
0.062662
0.067591
0.071172
0.073305
0.074213
0.074559
0.075432
-0.014883
-0.015854
-0.017762
-0.018887
-0.018519
-0.016870
-0.014010
-0.010109
-0.005352
0.000087
0.006063
0.012467
0.019224
0.026272
0.033543
0.040936
0.048295
0.055401
0.061971
0.067684
0.072230
0.075390
0.077129
0.077698
0.077701
0.078179
-0.021819
-0.022693
-0.024455
-0.025525
-0.025154
-0.023037
-0.019410
-0.014528
-0.008638
-0.001973
0.005250
0.012854
0.020699
0.028674
0.036675
0.044585
0.052254
0.059487
0.066043
0.071657
0.076079
0.079148
0.080872
0.081501
0.081552
0.081815
-0.028881
-0.029593
-0.031017
-0.031646
-0.030820
-0.028411
-0.024199
-0.018462
-0.011620
-0.003935
0.004326
0.012927
0.021680
0.030428
0.039041
0.047391
0.055339
0.062721
0.069343
0.074995
0.079486
0.082696
0.084654
0.085588
0.085936
0.086094
-0.036870
-0.037346
-0.038154
-0.037979
-0.036303
-0.033019
-0.028166
-0.021767
-0.014072
-0.005493
0.003654
0.013093
0.022602
0.031996
0.041121
0.049848
0.058050
0.065594
0.072335
0.078117
0.082797
0.086289
0.088616
0.089961
0.090654
0.090978
-0.046572
-0.046721
-0.046571
-0.045142
-0.042157
-0.037613
-0.031598
-0.024248
-0.015829
-0.006432
0.003543
0.013721
0.023885
0.033827
0.043388
0.052440
0.060872
0.068581
0.075467
0.081423
0.086351
0.090187
0.092942
0.094743
0.095811
0.096348
-0.058536
-0.058243
-0.056785
-0.053650
-0.048879
-0.042621
-0.035048
-0.026349
-0.016750
-0.006474
0.004222
0.015095
0.025876
0.036311
0.046253
0.055590
0.064227
0.072092
0.079124
0.085262
0.090447
0.094636
0.097825
0.100083
0.101539
0.102293
-0.072932
-0.072056
-0.069017
-0.063830
-0.056848
-0.048409
-0.038814
-0.028334
-0.017224
-0.005723
0.005936
0.017526
0.028841
0.039740
0.050024
0.059619
0.068433
0.076432
0.083592
0.089891
0.095309
0.099824
0.103427
0.106141
0.107985
0.108972
-0.089611
-0.087998
-0.083272
-0.075857
-0.066337
-0.055266
-0.043149
-0.030406
-0.017372
-0.004313
0.008555
0.021051
0.033026
0.044364
0.054955
0.064738
0.073689
0.081786
0.089034
0.095452
0.101055
0.105854
0.109847
0.113022
0.115310
0.116580
-0.108393
-0.105864
-0.099579
-0.089925
-0.077582
-0.063411
-0.048227
-0.032686
-0.017259
-0.002264
0.012093
0.025680
0.038412
0.050239
0.061130
0.071081
0.080107
0.088236
0.095511
0.101982
0.107703
0.112726
0.117088
0.120779
0.123662
0.125364
-0.134322
-0.132186
-0.125223
-0.112677
-0.095885
-0.076613
-0.056374
-0.036262
-0.016976
0.001090
0.017755
0.032975
0.046783
0.059254
0.070475
0.080544
0.089556
0.097607
0.104786
0.111186
0.116903
0.122054
0.126783
0.131248
0.135452
0.138762
