# vtk DataFile Version 3.0
Vector Field
ASCII
DATASET RECTILINEAR_GRID
DIMENSIONS 26 100 1
X_COORDINATES 26 double
0.050000 0.150000 0.250000 0.350000 0.450000 0.550000 0.650000 0.750000 0.850000 0.950000 1.050000 1.150000 1.250000 1.350000 1.450000 1.550000 1.650000 1.750000 1.850000 1.950000 2.050000 2.150000 2.250000 2.350000 2.450000 2.550000 
Y_COORDINATES 100 double
0.050000 0.150000 0.250000 0.350000 0.450000 0.550000 0.650000 0.750000 0.850000 0.950000 1.050000 1.150000 1.250000 1.350000 1.450000 1.550000 1.650000 1.750000 1.850000 1.950000 2.050000 2.150000 2.250000 2.350000 2.450000 2.550000 2.650000 2.750000 2.850000 2.950000 3.050000 3.150000 3.250000 3.350000 3.450000 3.550000 3.650000 3.750000 3.850000 3.950000 4.050000 4.150000 4.250000 4.350000 4.450000 4.550000 4.650000 4.750000 4.850000 4.950000 5.050000 5.150000 5.250000 5.350000 5.450000 5.550000 5.650000 5.750000 5.850000 5.950000 6.050000 6.150000 6.250000 6.350000 6.450000 6.550000 6.650000 6.750000 6.850000 6.950000 7.050000 7.150000 7.250000 7.350000 7.450000 7.550000 7.650000 7.750000 7.850000 7.950000 8.050000 8.150000 8.250000 8.350000 8.450000 8.550000 8.650000 8.750000 8.850000 8.950000 9.050000 9.150000 9.250000 9.350000 9.450000 9.550000 9.650000 9.750000 9.850000 9.950000 
Z_COORDINATES 1 double
0.0
POINT_DATA 2600
VECTORS Vektorfeld double
-0.000858 1.000858 0.0
-0.003125 1.001409 0.0
-0.005833 1.001299 0.0
-0.008384 1.001252 0.0
-0.010821 1.001185 0.0
-0.013056 1.001050 0.0
-0.014911 1.000805 0.0
-0.016134 1.000419 0.0
-0.016448 0.999895 0.0
-0.015630 0.999287 0.0
-0.013619 0.998703 0.0
-0.010595 0.998273 0.0
-0.006951 0.998083 0.0
-0.003176 0.998142 0.0
0.000285 0.998397 0.0
0.003145 0.998744 0.0
0.005261 0.999140 0.0
0.006592 0.999529 0.0
0.007192 0.999872 0.0
0.007170 1.000150 0.0
0.006655 1.000364 0.0
0.005770 1.000521 0.0
0.004614 1.000636 0.0
0.003242 1.000736 0.0
0.001616 1.000890 0.0
0.000363 1.000363 0.0
-0.003092 1.004808 0.0
-0.010136 1.006770 0.0
-0.017989 1.006498 0.0
-0.025736 1.006350 0.0
-0.033275 1.006063 0.0
-0.040287 1.005419 0.0
-0.046203 1.004205 0.0
-0.050218 1.002257 0.0
-0.051417 0.999571 0.0
-0.049049 0.996424 0.0
-0.042887 0.993392 0.0
-0.033490 0.991163 0.0
-0.022135 0.990194 0.0
-0.010395 0.990517 0.0
0.000328 0.991839 0.0
0.009136 0.993634 0.0
0.015614 0.995655 0.0
0.019673 0.997624 0.0
0.021500 0.999351 0.0
0.021443 1.000751 0.0
0.019903 1.001818 0.0
0.017261 1.002594 0.0
0.013827 1.003152 0.0
0.009827 1.003592 0.0
0.005388 1.004099 0.0
0.001534 1.002261 0.0
-0.005535 1.013435 0.0
-0.017580 1.017232 0.0
-0.030669 1.016978 0.0
-0.043869 1.016817 0.0
-0.056979 1.016246 0.0
-0.069454 1.014724 0.0
-0.080290 1.011651 0.0
-0.087991 1.006527 0.0
-0.090762 0.999272 0.0
-0.087019 0.990611 0.0
-0.076166 0.982189 0.0
-0.059230 0.976035 0.0
-0.038734 0.973471 0.0
-0.017737 0.974503 0.0
0.001167 0.978225 0.0
0.016424 0.983182 0.0
0.027417 0.988636 0.0
0.034123 0.993877 0.0
0.036970 0.998424 0.0
0.036627 1.002077 0.0
0.033825 1.004833 0.0
0.029231 1.006815 0.0
0.023394 1.008203 0.0
0.016720 1.009215 0.0
0.009495 1.010141 0.0
0.002887 1.006681 0.0
-0.008064 1.027035 0.0
-0.025245 1.032857 0.0
-0.043744 1.032941 0.0
-0.062780 1.033090 0.0
-0.082169 1.032472 0.0
-0.101213 1.030019 0.0
-0.118457 1.024435 0.0
-0.131516 1.014504 0.0
-0.137251 0.999802 0.0
-0.132576 0.981662 0.0
-0.116001 0.963710 0.0
-0.089169 0.950747 0.0
-0.056709 0.945802 0.0
-0.024073 0.948538 0.0
0.004548 0.956665 0.0
0.026955 0.967077 0.0
0.042527 0.978176 0.0
0.051550 0.988608 0.0
0.054893 0.997503 0.0
0.053697 1.004535 0.0
0.049115 1.009759 0.0
0.042153 1.013445 0.0
0.033606 1.015958 0.0
0.024054 1.017686 0.0
0.013900 1.019049 0.0
0.004356 1.013924 0.0
-0.010572 1.045672 0.0
-0.032870 1.053699 0.0
-0.056883 1.054613 0.0
-0.082152 1.055723 0.0
-0.108694 1.055769 0.0
-0.135848 1.052920 0.0
-0.161798 1.044728 0.0
-0.183094 1.028566 0.0
-0.194527 1.002907 0.0
-0.190138 0.969492 0.0
-0.166178 0.935346 0.0
-0.125066 0.911168 0.0
-0.075563 0.903418 0.0
-0.027420 0.910143 0.0
0.013044 0.925975 0.0
0.043301 0.945102 0.0
0.063201 0.964679 0.0
0.073752 0.982532 0.0
0.076602 0.997387 0.0
0.073580 1.008870 0.0
0.066377 1.017208 0.0
0.056388 1.022947 0.0
0.044656 1.026736 0.0
0.031902 1.029214 0.0
0.018596 1.030981 0.0
0.005925 1.024206 0.0
-0.012921 1.069165 0.0
-0.040056 1.079638 0.0
-0.069465 1.082096 0.0
-0.101198 1.085242 0.0
-0.135754 1.087348 0.0
-0.172882 1.085621 0.0
-0.210804 1.075900 0.0
-0.245106 1.052992 0.0
-0.267633 1.012441 0.0
-0.266856 0.954793 0.0
-0.233064 0.892294 0.0
-0.169310 0.849354 0.0
-0.093575 0.839994 0.0
-0.024121 0.855972 0.0
0.030614 0.884947 0.0
0.068992 0.917495 0.0
0.092208 0.949171 0.0
0.102722 0.976976 0.0
0.103416 0.999398 0.0
0.097067 1.016229 0.0
0.086033 1.028085 0.0
0.072120 1.035972 0.0
0.056588 1.040975 0.0
0.040240 1.044077 0.0
0.023541 1.046123 0.0
0.007572 1.037704 0.0
-0.014922 1.097008 0.0
-0.046236 1.110244 0.0
-0.080514 1.115176 0.0
-0.118505 1.121886 0.0
-0.161555 1.128310 0.0
-0.210477 1.130709 0.0
-0.264539 1.122797 0.0
-0.319435 1.095292 0.0
-0.363816 1.037049 0.0
-0.375685 0.941276 0.0
-0.328828 0.825161 0.0
-0.225032 0.748936 0.0
-0.105959 0.745603 0.0
-0.007226 0.782177 0.0
0.063572 0.833207 0.0
0.108791 0.885638 0.0
0.132840 0.933764 0.0
0.140530 0.974180 0.0
0.136476 1.005554 0.0
0.124661 1.028237 0.0
0.108191 1.043581 0.0
0.089252 1.053328 0.0
0.069229 1.059174 0.0
0.048896 1.062558 0.0
0.028609 1.064629 0.0
0.009250 1.054526 0.0
-0.016348 1.128278 0.0
-0.050696 1.144637 0.0
-0.088711 1.153076 0.0
-0.131916 1.165181 0.0
-0.182773 1.178922 0.0
-0.243828 1.190075 0.0
-0.316948 1.190613 0.0
-0.401198 1.166621 0.0
-0.486389 1.095292 0.0
-0.535565 0.944079 0.0
-0.476946 0.716882 0.0
-0.295226 0.571699 0.0
-0.098677 0.607218 0.0
0.036200 0.686952 0.0
0.120922 0.772912 0.0
0.168578 0.853059 0.0
0.188631 0.922241 0.0
0.189015 0.977629 0.0
0.176454 1.018720 0.0
0.156320 1.047019 0.0
0.132455 1.065134 0.0
0.107277 1.075892 0.0
0.082105 1.081806 0.0
0.057501 1.084862 0.0
0.033569 1.086544 0.0
0.010881 1.074658 0.0
-0.016970 1.161596 0.0
-0.052694 1.181392 0.0
-0.092617 1.194258 0.0
-0.139007 1.213594 0.0
-0.195945 1.238304 0.0
-0.269945 1.265747 0.0
-0.372024 1.290141 0.0
-0.518769 1.298089 0.0
-0.723608 1.253853 0.0
-0.937101 1.048188 0.0
-0.819264 0.436317 0.0
-0.372224 0.223503 0.0
-0.034161 0.420804 0.0
0.127598 0.576730 0.0
0.214313 0.711697 0.0
0.254444 0.826487 0.0
0.262642 0.920560 0.0
0.249219 0.992349 0.0
0.223074 1.042705 0.0
0.191091 1.075150 0.0
0.157675 1.094284 0.0
0.125135 1.104459 0.0
0.094368 1.109178 0.0
0.065458 1.111003 0.0
0.038068 1.111724 0.0
0.012347 1.097886 0.0
-0.016613 1.195179 0.0
-0.051635 1.218554 0.0
-0.090896 1.236280 0.0
-0.136649 1.263716 0.0
-0.192475 1.300947 0.0
-0.261945 1.346573 0.0
-0.344359 1.393808 0.0
-0.422957 1.419764 0.0
-0.445411 1.359470 0.0
-0.216570 1.038660 0.0
0.305498 0.194014 0.0
0.305498 0.126181 0.0
0.140747 0.170546 0.0
0.312201 0.488727 0.0
0.357815 0.667371 0.0
0.371938 0.816560 0.0
0.356953 0.937274 0.0
0.320788 1.025224 0.0
0.274481 1.082282 0.0
0.226613 1.115425 0.0
0.181656 1.132382 0.0
0.141078 1.139479 0.0
0.104764 1.141238 0.0
0.071944 1.140674 0.0
0.041643 1.139743 0.0
0.013499 1.123733 0.0
-0.015234 1.227026 0.0
-0.047386 1.253881 0.0
-0.083345 1.276172 0.0
-0.124742 1.310973 0.0
-0.173713 1.358487 0.0
-0.230184 1.414974 0.0
-0.286310 1.463948 0.0
-0.318049 1.459962 0.0
-0.281752 1.305430 0.0
-0.119992 0.826717 0.0
0.000000 0.069395 0.0
-0.000000 0.220005 0.0
0.000000 0.136278 0.0
0.222977 0.247417 0.0
0.477575 0.620843 0.0
0.503108 0.823433 0.0
0.467671 0.980822 0.0
0.400479 1.085032 0.0
0.326257 1.143004 0.0
0.258496 1.170333 0.0
0.200887 1.180040 0.0
0.152633 1.180653 0.0
0.111685 1.177326 0.0
0.075985 1.173106 0.0
0.043777 1.169820 0.0
0.014173 1.151404 0.0
-0.012923 1.255182 0.0
-0.040280 1.285235 0.0
-0.070762 1.311259 0.0
-0.105243 1.351765 0.0
-0.144769 1.406192 0.0
-0.187870 1.466841 0.0
-0.226395 1.506733 0.0
-0.241338 1.463859 0.0
-0.206576 1.230475 0.0
-0.116404 0.662920 0.0
-0.029710 -0.057281 0.0
0.000000 0.089986 0.0
-0.000000 0.216660 0.0
0.000000 0.111527 0.0
0.286165 0.321465 0.0
0.592504 0.809347 0.0
0.571330 1.051520 0.0
0.473215 1.179641 0.0
0.366859 1.228973 0.0
0.278643 1.240341 0.0
0.210227 1.236058 0.0
0.156748 1.226368 0.0
0.113393 1.215915 0.0
0.076635 1.206974 0.0
0.043999 1.200797 0.0
0.014226 1.179803 0.0
-0.009857 1.277962 0.0
-0.030901 1.310857 0.0
-0.054337 1.339555 0.0
-0.080358 1.383971 0.0
-0.109546 1.442700 0.0
-0.140942 1.504829 0.0
-0.169635 1.535964 0.0
-0.183685 1.463620 0.0
-0.163847 1.176113 0.0
-0.100615 0.563878 0.0
-0.076132 -0.070626 0.0
-0.046854 -0.047204 0.0
0.000000 0.095529 0.0
-0.000000 0.189565 0.0
0.000000 0.074712 0.0
0.352371 0.463655 0.0
0.650576 1.147035 0.0
0.516288 1.316529 0.0
0.376499 1.338230 0.0
0.275245 1.320553 0.0
0.203644 1.295865 0.0
0.150544 1.273140 0.0
0.108552 1.254490 0.0
0.073282 1.240427 0.0
0.042047 1.231215 0.0
0.013587 1.207617 0.0
-0.006250 1.294069 0.0
-0.019915 1.329459 0.0
-0.035269 1.359743 0.0
-0.051883 1.406417 0.0
-0.070142 1.467701 0.0
-0.090278 1.531360 0.0
-0.111968 1.559817 0.0
-0.132474 1.474323 0.0
-0.141339 1.154438 0.0
-0.137211 0.518193 0.0
-0.176506 -0.010129 0.0
-0.202779 -0.113477 0.0
-0.093066 -0.088440 0.0
0.000000 0.097363 0.0
-0.000000 0.140756 0.0
0.000000 0.121733 0.0
0.144214 1.126056 0.0
0.292412 1.392666 0.0
0.273329 1.420966 0.0
0.223945 1.388454 0.0
0.174694 1.348817 0.0
0.132576 1.315406 0.0
0.096992 1.289800 0.0
0.066027 1.271351 0.0
0.038027 1.259527 0.0
0.012294 1.233498 0.0
-0.002332 1.302651 0.0
-0.008006 1.340216 0.0
-0.014712 1.371048 0.0
-0.021416 1.418429 0.0
-0.028162 1.480695 0.0
-0.035742 1.546081 0.0
-0.047010 1.578054 0.0
-0.068837 1.498419 0.0
-0.109433 1.179802 0.0
-0.180671 0.559939 0.0
-0.280889 0.087639 0.0
-0.339901 -0.125961 0.0
-0.311281 -0.215206 0.0
-0.139249 -0.132950 0.0
0.039057 0.088433 0.0
0.039057 0.047881 0.0
0.061734 0.993961 0.0
0.146619 1.365529 0.0
0.169626 1.444179 0.0
0.158778 1.425473 0.0
0.134427 1.385401 0.0
0.107180 1.348186 0.0
0.080776 1.319007 0.0
0.055951 1.297934 0.0
0.032480 1.284415 0.0
0.010515 1.256307 0.0
0.001654 1.303329 0.0
0.004152 1.342713 0.0
0.006203 1.373206 0.0
0.009353 1.419824 0.0
0.014090 1.481309 0.0
0.019971 1.547167 0.0
0.024184 1.584023 0.0
0.018300 1.520161 0.0
-0.020060 1.237016 0.0
-0.123360 0.677263 0.0
-0.266372 0.213545 0.0
-0.368730 -0.090498 0.0
-0.395033 -0.252984 0.0
-0.359694 -0.298078 0.0
-0.198335 -0.139945 0.0
-0.066846 -0.010042 0.0
-0.020250 0.890890 0.0
0.051114 1.317134 0.0
0.087664 1.433018 0.0
0.099248 1.435899 0.0
0.093894 1.404680 0.0
0.080118 1.369931 0.0
0.062948 1.340837 0.0
0.044682 1.319196 0.0
0.026219 1.305087 0.0
0.008498 1.275321 0.0
0.005493 1.296182 0.0
0.015856 1.337000 0.0
0.026284 1.366440 0.0
0.038783 1.410941 0.0
0.054481 1.469757 0.0
0.073633 1.533687 0.0
0.094287 1.572635 0.0
0.109622 1.522098 0.0
0.101740 1.281320 0.0
0.036150 0.801849 0.0
-0.084961 0.353082 0.0
-0.210274 -0.002364 0.0
-0.280650 -0.244439 0.0
-0.280314 -0.342299 0.0
-0.230033 -0.307364 0.0
-0.175753 -0.028391 0.0
-0.104971 0.791862 0.0
-0.019820 1.259646 0.0
0.029350 1.404786 0.0
0.053047 1.428848 0.0
0.059756 1.410376 0.0
0.055836 1.381930 0.0
0.046220 1.355624 0.0
0.033790 1.335107 0.0
0.020058 1.321371 0.0
0.006497 1.290317 0.0
0.008969 1.281719 0.0
0.026454 1.323615 0.0
0.044436 1.351416 0.0
0.065291 1.392611 0.0
0.090701 1.446978 0.0
0.121576 1.506439 0.0
0.156782 1.544022 0.0
0.190443 1.501715 0.0
0.206604 1.293424 0.0
0.176889 0.885051 0.0
0.098592 0.469287 0.0
-0.008688 0.114024 0.0
-0.127546 -0.171593 0.0
-0.210106 -0.332921 0.0
-0.238153 -0.338976 0.0
-0.227772 -0.061440 0.0
-0.153945 0.680302 0.0
-0.060834 1.192944 0.0
-0.006739 1.368224 0.0
0.022466 1.412509 0.0
0.034976 1.407497 0.0
0.036818 1.386885 0.0
0.032347 1.364755 0.0
0.024390 1.346363 0.0
0.014608 1.333627 0.0
0.004707 1.301522 0.0
0.011899 1.260851 0.0
0.035388 1.303510 0.0
0.059711 1.329216 0.0
0.087482 1.366185 0.0
0.120752 1.414723 0.0
0.160842 1.467730 0.0
0.207084 1.501283 0.0
0.253933 1.463943 0.0
0.286219 1.282748 0.0
0.278404 0.933258 0.0
0.222810 0.554971 0.0
0.136160 0.222270 0.0
0.023587 -0.048408 0.0
-0.097242 -0.252718 0.0
-0.185612 -0.302763 0.0
-0.212730 -0.080915 0.0
-0.154787 0.568007 0.0
-0.070300 1.127641 0.0
-0.021185 1.330317 0.0
0.006613 1.393412 0.0
0.019873 1.400824 0.0
0.023760 1.387828 0.0
0.022003 1.370041 0.0
0.016991 1.354046 0.0
0.010179 1.342539 0.0
0.003231 1.309460 0.0
0.014144 1.234808 0.0
0.042242 1.277966 0.0
0.071415 1.301263 0.0
0.104376 1.333406 0.0
0.143348 1.375260 0.0
0.189808 1.420645 0.0
0.243261 1.448673 0.0
0.298336 1.414629 0.0
0.340648 1.257465 0.0
0.347461 0.959544 0.0
0.309328 0.622413 0.0
0.237186 0.313619 0.0
0.145287 0.064715 0.0
0.034263 -0.133989 0.0
-0.079378 -0.219481 0.0
-0.143723 -0.072733 0.0
-0.117578 0.475736 0.0
-0.055491 1.073338 0.0
-0.018066 1.298080 0.0
0.003090 1.376694 0.0
0.013013 1.394361 0.0
0.015957 1.387460 0.0
0.014910 1.373214 0.0
0.011520 1.359274 0.0
0.006765 1.348879 0.0
0.002071 1.314762 0.0
0.015631 1.205033 0.0
0.046796 1.248478 0.0
0.079191 1.269182 0.0
0.115512 1.296205 0.0
0.157994 1.331008 0.0
0.208097 1.368334 0.0
0.265345 1.390282 0.0
0.324614 1.358676 0.0
0.372747 1.222973 0.0
0.390183 0.969786 0.0
0.367610 0.672877 0.0
0.312382 0.390524 0.0
0.236951 0.155141 0.0
0.145015 -0.021454 0.0
0.042012 -0.115373 0.0
-0.042978 -0.027505 0.0
-0.058351 0.419735 0.0
-0.026044 1.034945 0.0
-0.003029 1.276032 0.0
0.008000 1.366556 0.0
0.011520 1.391057 0.0
0.011617 1.387723 0.0
0.010056 1.375559 0.0
0.007442 1.362932 0.0
0.004111 1.353307 0.0
0.001153 1.317986 0.0
0.016360 1.173042 0.0
0.049058 1.216606 0.0
0.083064 1.234652 0.0
0.120966 1.256513 0.0
0.164915 1.284270 0.0
0.216270 1.313613 0.0
0.274538 1.329487 0.0
0.334994 1.299746 0.0
0.386063 1.182700 0.0
0.411336 0.967350 0.0
0.402153 0.707069 0.0
0.362805 0.450907 0.0
0.302325 0.230668 0.0
0.229230 0.068050 0.0
0.145285 -0.017929 0.0
0.058345 0.046982 0.0
0.009665 0.409301 0.0
0.010197 1.012541 0.0
0.017592 1.268027 0.0
0.015286 1.365839 0.0
0.011264 1.392276 0.0
0.008248 1.389423 0.0
0.006007 1.377661 0.0
0.003960 1.365491 0.0
0.001819 1.356220 0.0
0.000356 1.319494 0.0
0.016409 1.140273 0.0
0.049259 1.183828 0.0
0.083424 1.199260 0.0
0.121313 1.216114 0.0
0.164946 1.237087 0.0
0.215568 1.258819 0.0
0.272707 1.268875 0.0
0.332178 1.240432 0.0
0.384080 1.139043 0.0
0.414800 0.955014 0.0
0.416403 0.726985 0.0
0.390763 0.495979 0.0
0.344183 0.292657 0.0
0.283435 0.139905 0.0
0.213052 0.064544 0.0
0.136180 0.128321 0.0
0.071154 0.441666 0.0
0.042023 1.008774 0.0
0.030269 1.276153 0.0
0.016442 1.373845 0.0
0.007701 1.397033 0.0
0.003376 1.392007 0.0
0.001365 1.379328 0.0
0.000277 1.366959 0.0
-0.000518 1.357689 0.0
-0.000440 1.319410 0.0
0.015912 1.107952 0.0
0.047803 1.151408 0.0
0.080948 1.164370 0.0
0.117527 1.176536 0.0
0.159397 1.191163 0.0
0.207717 1.205801 0.0
0.262113 1.210357 0.0
0.319003 1.182588 0.0
0.370059 1.093929 0.0
0.403985 0.935481 0.0
0.413504 0.735396 0.0
0.398706 0.528005 0.0
0.363782 0.342135 0.0
0.314291 0.200666 0.0
0.254054 0.134403 0.0
0.182749 0.206640 0.0
0.106546 0.504576 0.0
0.052233 1.029307 0.0
0.023663 1.295944 0.0
0.006255 1.385289 0.0
-0.001644 1.402231 0.0
-0.004411 1.393901 0.0
-0.004762 1.379796 0.0
-0.004159 1.366976 0.0
-0.003206 1.357514 0.0
-0.001335 1.317635 0.0
0.015027 1.077012 0.0
0.045172 1.120311 0.0
0.076459 1.131034 0.0
0.110792 1.138959 0.0
0.149845 1.147816 0.0
0.194716 1.155958 0.0
0.245188 1.155333 0.0
0.298285 1.127626 0.0
0.347039 1.049082 0.0
0.381991 0.911450 0.0
0.396409 0.735490 0.0
0.389072 0.550046 0.0
0.362507 0.381585 0.0
0.320948 0.252267 0.0
0.265821 0.198166 0.0
0.192939 0.287065 0.0
0.103228 0.590066 0.0
0.030744 1.070613 0.0
-0.002283 1.316234 0.0
-0.013469 1.393594 0.0
-0.016171 1.404528 0.0
-0.015149 1.393349 0.0
-0.012567 1.378117 0.0
-0.009533 1.365017 0.0
-0.006367 1.355354 0.0
-0.002372 1.313929 0.0
0.013903 1.048082 0.0
0.041816 1.091184 0.0
0.070738 1.099953 0.0
0.102263 1.104182 0.0
0.137851 1.107952 0.0
0.178533 1.110269 0.0
0.224261 1.104823 0.0
0.272610 1.076690 0.0
0.317738 1.006135 0.0
0.351593 0.885590 0.0
0.367884 0.730642 0.0
0.364435 0.565679 0.0
0.342497 0.414455 0.0
0.304669 0.298783 0.0
0.248762 0.262684 0.0
0.166922 0.377269 0.0
0.062497 0.693997 0.0
-0.012996 1.114659 0.0
-0.035795 1.328014 0.0
-0.037824 1.395030 0.0
-0.033876 1.401845 0.0
-0.027952 1.389085 0.0
-0.021676 1.373524 0.0
-0.015698 1.360597 0.0
-0.009947 1.350857 0.0
-0.003537 1.308020 0.0
0.012648 1.021531 0.0
0.038073 1.064396 0.0
0.064381 1.071511 0.0
0.092844 1.072636 0.0
0.124666 1.072088 0.0
0.160771 1.069346 0.0
0.201232 1.059557 0.0
0.244083 1.030755 0.0
0.284385 0.966641 0.0
0.315170 0.860444 0.0
0.330518 0.724150 0.0
0.327639 0.578499 0.0
0.306894 0.444318 0.0
0.268784 0.344857 0.0
0.206840 0.334461 0.0
0.111532 0.482639 0.0
0.004567 0.800017 0.0
-0.057832 1.146532 0.0
-0.068948 1.330056 0.0
-0.062929 1.388999 0.0
-0.052502 1.393501 0.0
-0.041560 1.380562 0.0
-0.031404 1.365615 0.0
-0.022287 1.353410 0.0
-0.013766 1.343772 0.0
-0.004777 1.299706 0.0
0.011326 0.997557 0.0
0.034139 1.040133 0.0
0.057742 1.045864 0.0
0.083078 1.044484 0.0
0.111065 1.040431 0.0
0.142461 1.033502 0.0
0.177369 1.020033 0.0
0.214169 0.990627 0.0
0.248642 0.931995 0.0
0.274686 0.838262 0.0
0.286760 0.718909 0.0
0.281818 0.591561 0.0
0.259623 0.474196 0.0
0.218025 0.394687 0.0
0.147003 0.417597 0.0
0.043856 0.597958 0.0
-0.050614 0.886132 0.0
-0.094646 1.166848 0.0
-0.098250 1.324460 0.0
-0.086045 1.376371 0.0
-0.070179 1.379836 0.0
-0.054773 1.367880 0.0
-0.041005 1.354373 0.0
-0.028851 1.343382 0.0
-0.017581 1.334010 0.0
-0.006015 1.288913 0.0
0.009969 0.976261 0.0
0.030105 1.018480 0.0
0.050970 1.023049 0.0
0.073198 1.019735 0.0
0.097394 1.012997 0.0
0.124094 1.002838 0.0
0.153343 0.986540 0.0
0.183756 0.956907 0.0
0.211700 0.903298 0.0
0.231810 0.820805 0.0
0.238984 0.717117 0.0
0.230271 0.607008 0.0
0.204851 0.506364 0.0
0.157605 0.451363 0.0
0.077679 0.511869 0.0
-0.019449 0.703963 0.0
-0.093493 0.948642 0.0
-0.124625 1.179502 0.0
-0.122493 1.313278 0.0
-0.105702 1.358557 0.0
-0.085663 1.361744 0.0
-0.066661 1.351564 0.0
-0.049822 1.340083 0.0
-0.034954 1.330651 0.0
-0.021142 1.321659 0.0
-0.007171 1.275727 0.0
0.008592 0.957700 0.0
0.026010 0.999488 0.0
0.044120 1.003065 0.0
0.063270 0.998341 0.0
0.083749 0.989717 0.0
0.105845 0.977322 0.0
0.129480 0.959172 0.0
0.153417 0.929924 0.0
0.174522 0.881233 0.0
0.188082 0.809199 0.0
0.189527 0.720103 0.0
0.176237 0.626026 0.0
0.146452 0.542551 0.0
0.092410 0.516465 0.0
0.011284 0.607819 0.0
-0.071003 0.787427 0.0
-0.126668 0.994886 0.0
-0.148156 1.185879 0.0
-0.141362 1.297976 0.0
-0.121252 1.336958 0.0
-0.098253 1.340304 0.0
-0.076601 1.332350 0.0
-0.057361 1.323219 0.0
-0.040238 1.315524 0.0
-0.024232 1.306968 0.0
-0.008171 1.260385 0.0
0.007213 0.941895 0.0
0.021898 0.983190 0.0
0.037244 0.985906 0.0
0.053346 0.980248 0.0
0.070195 0.970483 0.0
0.087837 0.956818 0.0
0.106047 0.937832 0.0
0.123686 0.909687 0.0
0.138048 0.866004 0.0
0.145026 0.803890 0.0
0.140656 0.728337 0.0
0.122660 0.649079 0.0
0.087870 0.584073 0.0
0.028981 0.587872 0.0
-0.045088 0.691608 0.0
-0.110368 0.851206 0.0
-0.152398 1.028800 0.0
-0.165682 1.186738 0.0
-0.154960 1.279601 0.0
-0.132534 1.312797 0.0
-0.107643 1.316574 0.0
-0.084246 1.311032 0.0
-0.063298 1.304348 0.0
-0.044447 1.298420 0.0
-0.026692 1.290311 0.0
-0.008962 1.243252 0.0
0.005857 0.928825 0.0
0.017840 0.969593 0.0
0.030441 0.971556 0.0
0.043547 0.965389 0.0
0.056889 0.955152 0.0
0.070302 0.941094 0.0
0.083425 0.922224 0.0
0.095193 0.895887 0.0
0.103275 0.857359 0.0
0.104132 0.804700 0.0
0.094424 0.741605 0.0
0.071963 0.676268 0.0
0.032280 0.631358 0.0
-0.025842 0.657597 0.0
-0.088980 0.759089 0.0
-0.140453 0.900478 0.0
-0.171258 1.052364 0.0
-0.177499 1.182699 0.0
-0.163558 1.258978 0.0
-0.139668 1.287105 0.0
-0.113797 1.291505 0.0
-0.089464 1.288372 0.0
-0.067468 1.284064 0.0
-0.047435 1.279820 0.0
-0.028424 1.272144 0.0
-0.009512 1.224778 0.0
0.004557 0.918410 0.0
0.013929 0.958653 0.0
0.023859 0.959966 0.0
0.034071 0.953660 0.0
0.044091 0.943519 0.0
0.053593 0.929811 0.0
0.062109 0.911868 0.0
0.068642 0.887942 0.0
0.071188 0.854676 0.0
0.066752 0.810963 0.0
0.052551 0.759252 0.0
0.026125 0.707508 0.0
-0.015762 0.681688 0.0
-0.069364 0.718991 0.0
-0.121888 0.813358 0.0
-0.162094 0.937888 0.0
-0.183529 1.067194 0.0
-0.183921 1.174500 0.0
-0.167532 1.236847 0.0
-0.142937 1.260750 0.0
-0.116862 1.265914 0.0
-0.092291 1.265059 0.0
-0.069848 1.262937 0.0
-0.049161 1.260225 0.0
-0.029398 1.252964 0.0
-0.009809 1.205457 0.0
0.003344 0.910509 0.0
0.010265 0.950261 0.0
0.017664 0.951029 0.0
0.025154 0.944895 0.0
0.032115 0.935304 0.0
0.038116 0.922524 0.0
0.042620 0.906136 0.0
0.044699 0.885062 0.0
0.042646 0.857062 0.0
0.033985 0.821673 0.0
0.016351 0.780378 0.0
-0.012664 0.741822 0.0
-0.053958 0.730554 0.0
-0.101562 0.771330 0.0
-0.144896 0.856876 0.0
-0.175773 0.965454 0.0
-0.189572 1.074862 0.0
-0.185364 1.163015 0.0
-0.167346 1.213925 0.0
-0.142742 1.234473 0.0
-0.117114 1.240489 0.0
-0.092892 1.241692 0.0
-0.070527 1.241496 0.0
-0.049673 1.240125 0.0
-0.029641 1.233268 0.0
-0.009862 1.185786 0.0
0.002246 0.904920 0.0
0.006933 0.944243 0.0
0.012009 0.944572 0.0
0.017015 0.938855 0.0
0.021252 0.930146 0.0
0.024233 0.918700 0.0
0.025394 0.904294 0.0
0.023885 0.886334 0.0
0.018270 0.863458 0.0
0.006578 0.835630 0.0
-0.013273 0.803907 0.0
-0.043068 0.777102 0.0
-0.081873 0.775373 0.0
-0.123324 0.815567 0.0
-0.158822 0.891471 0.0
-0.182104 0.985018 0.0
-0.189926 1.076919 0.0
-0.182372 1.149195 0.0
-0.163549 1.190903 0.0
-0.139561 1.208903 0.0
-0.114921 1.215791 0.0
-0.091526 1.218773 0.0
-0.069682 1.220205 0.0
-0.049092 1.219972 0.0
-0.029226 1.213523 0.0
-0.009699 1.166225 0.0
0.001278 0.901396 0.0
0.003993 0.940365 0.0
0.007005 0.940361 0.0
0.009823 0.935241 0.0
0.011722 0.927625 0.0
0.012204 0.917758 0.0
0.010714 0.905564 0.0
0.006499 0.890790 0.0
-0.001616 0.872732 0.0
-0.015202 0.851634 0.0
-0.035956 0.828507 0.0
-0.064905 0.811247 0.0
-0.100168 0.815296 0.0
-0.135776 0.852704 0.0
-0.164671 0.918728 0.0
-0.181920 0.998293 0.0
-0.185305 1.074851 0.0
-0.175599 1.134003 0.0
-0.156755 1.168429 0.0
-0.133928 1.184563 0.0
-0.110703 1.192266 0.0
-0.088511 1.196711 0.0
-0.067548 1.199461 0.0
-0.047586 1.200165 0.0
-0.028261 1.194141 0.0
-0.009354 1.147173 0.0
0.000445 0.899673 0.0
0.001473 0.938345 0.0
0.002721 0.938121 0.0
0.003677 0.933708 0.0
0.003645 0.927291 0.0
0.002154 0.919101 0.0
-0.001310 0.909174 0.0
-0.007402 0.897488 0.0
-0.017061 0.883807 0.0
-0.031485 0.868570 0.0
-0.051938 0.852779 0.0
-0.078866 0.842853 0.0
-0.110077 0.850162 0.0
-0.140299 0.883668 0.0
-0.163675 0.940034 0.0
-0.176257 1.006817 0.0
-0.176568 1.070022 0.0
-0.165789 1.118347 0.0
-0.147624 1.147077 0.0
-0.126398 1.161863 0.0
-0.104907 1.170249 0.0
-0.084195 1.175823 0.0
-0.064393 1.179584 0.0
-0.045350 1.181036 0.0
-0.026867 1.175461 0.0
-0.008870 1.128949 0.0
-0.000254 0.899482 0.0
-0.000619 0.937871 0.0
-0.000823 0.937550 0.0
-0.001395 0.933895 0.0
-0.002951 0.928691 0.0
-0.005918 0.922158 0.0
-0.010751 0.914412 0.0
-0.017994 0.905585 0.0
-0.028370 0.895745 0.0
-0.042746 0.885432 0.0
-0.061985 0.875608 0.0
-0.086155 0.871122 0.0
-0.113143 0.880091 0.0
-0.138468 0.909286 0.0
-0.157254 0.956578 0.0
-0.166309 1.011910 0.0
-0.164685 1.063616 0.0
-0.153739 1.103027 0.0
-0.136824 1.127317 0.0
-0.117524 1.141098 0.0
-0.097974 1.149973 0.0
-0.078928 1.156341 0.0
-0.060487 1.160824 0.0
-0.042584 1.162850 0.0
-0.025169 1.157749 0.0
-0.008291 1.111788 0.0
-0.000809 0.900546 0.0
-0.002285 0.938649 0.0
-0.003652 0.938344 0.0
-0.005424 0.935445 0.0
-0.008125 0.931399 0.0
-0.012124 0.926417 0.0
-0.017806 0.920668 0.0
-0.025604 0.914371 0.0
-0.036045 0.907777 0.0
-0.049717 0.901448 0.0
-0.067151 0.896264 0.0
-0.088202 0.895688 0.0
-0.111026 0.905336 0.0
-0.131941 0.930282 0.0
-0.146918 0.969345 0.0
-0.153358 1.014639 0.0
-0.150684 1.056590 0.0
-0.140266 1.088689 0.0
-0.125013 1.109486 0.0
-0.107829 1.122444 0.0
-0.090322 1.131570 0.0
-0.073042 1.138416 0.0
-0.056091 1.143357 0.0
-0.039477 1.145799 0.0
-0.023284 1.141190 0.0
-0.007656 1.095841 0.0
-0.001227 0.902581 0.0
-0.003554 0.940416 0.0
-0.005818 0.940208 0.0
-0.008487 0.938021 0.0
-0.011995 0.935032 0.0
-0.016649 0.931438 0.0
-0.022758 0.927437 0.0
-0.030651 0.923293 0.0
-0.040691 0.919336 0.0
-0.053238 0.916109 0.0
-0.068572 0.914372 0.0
-0.086440 0.916499 0.0
-0.105332 0.926241 0.0
-0.122328 0.947289 0.0
-0.134148 0.979134 0.0
-0.138678 1.015820 0.0
-0.135586 1.049643 0.0
-0.126154 1.075787 0.0
-0.112793 1.093775 0.0
-0.097783 1.105961 0.0
-0.082324 1.115089 0.0
-0.066834 1.122126 0.0
-0.051432 1.127295 0.0
-0.036196 1.130012 0.0
-0.021312 1.125899 0.0
-0.006997 1.081189 0.0
-0.001524 0.905332 0.0
-0.004469 0.942937 0.0
-0.007389 0.942872 0.0
-0.010690 0.941327 0.0
-0.014717 0.939262 0.0
-0.019718 0.936863 0.0
-0.025932 0.934335 0.0
-0.033594 0.931951 0.0
-0.042933 0.930057 0.0
-0.054141 0.929144 0.0
-0.067315 0.929845 0.0
-0.082155 0.933734 0.0
-0.097480 0.943223 0.0
-0.111051 0.960874 0.0
-0.120267 0.986585 0.0
-0.123416 1.016048 0.0
-0.120317 1.043224 0.0
-0.112106 1.064563 0.0
-0.100688 1.080219 0.0
-0.087786 1.091604 0.0
-0.074297 1.100499 0.0
-0.060556 1.107484 0.0
-0.046706 1.112686 0.0
-0.032877 1.115555 0.0
-0.019334 1.111929 0.0
-0.006341 1.067851 0.0
-0.001718 0.908574 0.0
-0.005079 0.946001 0.0
-0.008447 0.946098 0.0
-0.012151 0.945106 0.0
-0.016464 0.943822 0.0
-0.021576 0.942415 0.0
-0.027662 0.941083 0.0
-0.034880 0.940083 0.0
-0.043358 0.939741 0.0
-0.053168 0.940478 0.0
-0.064285 0.942802 0.0
-0.076399 0.947733 0.0
-0.088609 0.956758 0.0
-0.099254 0.971555 0.0
-0.106340 0.992205 0.0
-0.108498 1.015735 0.0
-0.105625 1.037565 0.0
-0.098681 1.055068 0.0
-0.089109 1.068725 0.0
-0.078156 1.079244 0.0
-0.066494 1.087708 0.0
-0.054410 1.094448 0.0
-0.042066 1.099528 0.0
-0.029627 1.102444 0.0
-0.017410 1.099280 0.0
-0.005706 1.055804 0.0
-0.001827 0.912119 0.0
-0.005435 0.949424 0.0
-0.009073 0.949680 0.0
-0.012996 0.949151 0.0
-0.017410 0.948505 0.0
-0.022458 0.947892 0.0
-0.028262 0.947495 0.0
-0.034916 0.947543 0.0
-0.042475 0.948319 0.0
-0.050935 0.950169 0.0
-0.060196 0.953488 0.0
-0.069962 0.958926 0.0
-0.079547 0.967360 0.0
-0.087761 0.979812 0.0
-0.093124 0.996397 0.0
-0.094572 1.015151 0.0
-0.092031 1.032735 0.0
-0.086272 1.047195 0.0
-0.078345 1.059098 0.0
-0.069120 1.068692 0.0
-0.059103 1.076581 0.0
-0.048547 1.082935 0.0
-0.037626 1.087777 0.0
-0.026523 1.090653 0.0
-0.015582 1.087913 0.0
-0.005106 1.044992 0.0
-0.001869 0.915815 0.0
-0.005586 0.953053 0.0
-0.009350 0.953454 0.0
-0.013345 0.953295 0.0
-0.017723 0.953152 0.0
-0.022585 0.953155 0.0
-0.028011 0.953462 0.0
-0.034049 0.954268 0.0
-0.040705 0.955809 0.0
-0.047926 0.958359 0.0
-0.055577 0.962212 0.0
-0.063385 0.967775 0.0
-0.070833 0.975545 0.0
-0.077081 0.986088 0.0
-0.081075 0.999477 0.0
-0.082013 1.014457 0.0
-0.079823 1.028696 0.0
-0.075093 1.040744 0.0
-0.068562 1.051093 0.0
-0.060820 1.059731 0.0
-0.052247 1.066953 0.0
-0.043071 1.072831 0.0
-0.033465 1.077354 0.0
-0.023616 1.080123 0.0
-0.013877 1.077763 0.0
-0.004548 1.035338 0.0
-0.001858 0.919542 0.0
-0.005577 0.956762 0.0
-0.009353 0.957285 0.0
-0.013309 0.957414 0.0
-0.017551 0.957654 0.0
-0.022149 0.958114 0.0
-0.027148 0.958928 0.0
-0.032565 0.960256 0.0
-0.038375 0.962286 0.0
-0.044498 0.965226 0.0
-0.050791 0.969289 0.0
-0.057011 0.974725 0.0
-0.062766 0.981798 0.0
-0.067470 0.990786 0.0
-0.070395 1.001698 0.0
-0.070962 1.013741 0.0
-0.069094 1.025355 0.0
-0.065213 1.035475 0.0
-0.059825 1.044444 0.0
-0.053323 1.052134 0.0
-0.045995 1.058650 0.0
-0.038042 1.064004 0.0
-0.029628 1.068160 0.0
-0.020936 1.070775 0.0
-0.012309 1.068745 0.0
-0.004036 1.026754 0.0
-0.001809 0.923209 0.0
-0.005447 0.960452 0.0
-0.009149 0.961073 0.0
-0.012983 0.961415 0.0
-0.017023 0.961934 0.0
-0.021311 0.962719 0.0
-0.025869 0.963880 0.0
-0.030690 0.965542 0.0
-0.035732 0.967852 0.0
-0.040908 0.970960 0.0
-0.046077 0.975017 0.0
-0.051031 0.980171 0.0
-0.055473 0.986549 0.0
-0.058994 0.994261 0.0
-0.061103 1.003258 0.0
-0.061396 1.013039 0.0
-0.059798 1.022592 0.0
-0.056594 1.031152 0.0
-0.052120 1.038906 0.0
-0.046639 1.045688 0.0
-0.040371 1.051501 0.0
-0.033487 1.056316 0.0
-0.026139 1.060086 0.0
-0.018496 1.062515 0.0
-0.010883 1.060766 0.0
-0.003570 1.019147 0.0
-0.001731 0.926749 0.0
-0.005230 0.964050 0.0
-0.008795 0.964743 0.0
-0.012452 0.965236 0.0
-0.016247 0.965948 0.0
-0.020203 0.966950 0.0
-0.024326 0.968329 0.0
-0.028593 0.970182 0.0
-0.032956 0.972617 0.0
-0.037326 0.975742 0.0
-0.041578 0.979656 0.0
-0.045536 0.984444 0.0
-0.048973 0.990155 0.0
-0.051605 0.996807 0.0
-0.053103 1.004319 0.0
-0.053193 1.012361 0.0
-0.051812 1.020291 0.0
-0.049135 1.027571 0.0
-0.045384 1.034263 0.0
-0.040737 1.040204 0.0
-0.035363 1.045343 0.0
-0.029405 1.049632 0.0
-0.022999 1.053016 0.0
-0.016298 1.055241 0.0
-0.009599 1.053727 0.0
-0.003151 1.012426 0.0
-0.001635 0.930115 0.0
-0.004953 0.967500 0.0
-0.008338 0.968243 0.0
-0.011781 0.968836 0.0
-0.015309 0.969671 0.0
-0.018930 0.970805 0.0
-0.022637 0.972303 0.0
-0.026402 0.974240 0.0
-0.030171 0.976691 0.0
-0.033865 0.979733 0.0
-0.037373 0.983425 0.0
-0.040551 0.987811 0.0
-0.043227 0.992901 0.0
-0.045197 0.998664 0.0
-0.046245 1.005008 0.0
-0.046188 1.011706 0.0
-0.044974 1.018349 0.0
-0.042706 1.024567 0.0
-0.039527 1.030338 0.0
-0.035562 1.035517 0.0
-0.030939 1.040032 0.0
-0.025779 1.043824 0.0
-0.020198 1.046836 0.0
-0.014332 1.048853 0.0
-0.008450 1.047534 0.0
-0.002776 1.006498 0.0
-0.001528 0.933277 0.0
-0.004639 0.970767 0.0
-0.007817 0.971540 0.0
-0.011026 0.972191 0.0
-0.014278 0.973095 0.0
-0.017571 0.974295 0.0
-0.020891 0.975839 0.0
-0.024205 0.977782 0.0
-0.027463 0.980176 0.0
-0.030592 0.983071 0.0
-0.033498 0.986501 0.0
-0.036066 0.990482 0.0
-0.038164 0.995003 0.0
-0.039646 1.000014 0.0
-0.040366 1.005426 0.0
-0.040205 1.011071 0.0
-0.039121 1.016686 0.0
-0.037172 1.022014 0.0
-0.034450 1.026991 0.0
-0.031044 1.031493 0.0