# vtk DataFile Version 3.0
Scalar Field
ASCII
DATASET RECTILINEAR_GRID
DIMENSIONS 26 100 1
X_COORDINATES 26 double
0.050000 0.150000 0.250000 0.350000 0.450000 0.550000 0.650000 0.750000 0.850000 0.950000 1.050000 1.150000 1.250000 1.350000 1.450000 1.550000 1.650000 1.750000 1.850000 1.950000 2.050000 2.150000 2.250000 2.350000 2.450000 2.550000 
Y_COORDINATES 100 double
0.050000 0.150000 0.250000 0.350000 0.450000 0.550000 0.650000 0.750000 0.850000 0.950000 1.050000 1.150000 1.250000 1.350000 1.450000 1.550000 1.650000 1.750000 1.850000 1.950000 2.050000 2.150000 2.250000 2.350000 2.450000 2.550000 2.650000 2.750000 2.850000 2.950000 3.050000 3.150000 3.250000 3.350000 3.450000 3.550000 3.650000 3.750000 3.850000 3.950000 4.050000 4.150000 4.250000 4.350000 4.450000 4.550000 4.650000 4.750000 4.850000 4.950000 5.050000 5.150000 5.250000 5.350000 5.450000 5.550000 5.650000 5.750000 5.850000 5.950000 6.050000 6.150000 6.250000 6.350000 6.450000 6.550000 6.650000 6.750000 6.850000 6.950000 7.050000 7.150000 7.250000 7.350000 7.450000 7.550000 7.650000 7.750000 7.850000 7.950000 8.050000 8.150000 8.250000 8.350000 8.450000 8.550000 8.650000 8.750000 8.850000 8.950000 9.050000 9.150000 9.250000 9.350000 9.450000 9.550000 9.650000 9.750000 9.850000 9.950000 
Z_COORDINATES 1 double
0.0
POINT_DATA 2600
SCALARS Skalarfeld double 1
LOOKUP_TABLE default
0.198668
0.201645
0.209710
0.222420
0.239559
0.260823
0.285643
0.313029
0.341475
0.368975
0.393247
0.412166
0.424246
0.428947
0.426684
0.418454
0.405707
0.390056
0.373043
0.356005
0.340011
0.325872
0.314174
0.305344
0.299755
0.297979
0.195007
0.198854
0.207151
0.219976
0.237278
0.258849
0.284205
0.312415
0.341961
0.370717
0.396165
0.415906
0.428286
0.432766
0.429953
0.420926
0.407294
0.390797
0.373053
0.355428
0.338991
0.324531
0.312598
0.303567
0.297672
0.294985
0.187430
0.191531
0.199985
0.212977
0.230645
0.253006
0.279818
0.310349
0.343098
0.375598
0.404591
0.426795
0.440019
0.443783
0.439288
0.427880
0.411658
0.392722
0.372896
0.353624
0.335960
0.320626
0.308085
0.298612
0.292338
0.289270
0.175536
0.179632
0.188043
0.201063
0.219066
0.242434
0.271392
0.305679
0.343998
0.383391
0.419121
0.445938
0.460521
0.462750
0.455019
0.439247
0.418447
0.395329
0.372035
0.350090
0.330487
0.313817
0.300390
0.290336
0.283678
0.280381
0.159087
0.162962
0.171007
0.183648
0.201557
0.225627
0.256861
0.295995
0.342558
0.393279
0.440773
0.475451
0.491688
0.490882
0.477511
0.454680
0.426863
0.397626
0.369464
0.343922
0.321824
0.303519
0.289073
0.278411
0.271409
0.267957
0.137962
0.141353
0.148528
0.160027
0.176809
0.200355
0.232777
0.276663
0.333951
0.402565
0.470920
0.519025
0.536302
0.529619
0.506735
0.473089
0.435274
0.397841
0.363535
0.333723
0.308863
0.288893
0.273517
0.262378
0.255158
0.251638
0.112219
0.114798
0.120408
0.129596
0.143435
0.163810
0.193961
0.239193
0.306991
0.402578
0.510720
0.583070
0.597545
0.579916
0.541204
0.491730
0.440561
0.393011
0.351715
0.317490
0.290105
0.268864
0.252968
0.241705
0.234524
0.231079
0.082201
0.083608
0.086839
0.092230
0.100543
0.113352
0.133955
0.169475
0.235781
0.364146
0.557839
0.678242
0.677185
0.639330
0.575573
0.504671
0.437195
0.378458
0.330341
0.292534
0.263681
0.242185
0.226618
0.215869
0.209150
0.205997
0.048635
0.048561
0.048670
0.048796
0.048770
0.048484
0.048089
0.048240
0.054621
0.152947
0.649318
0.807633
0.769643
0.693698
0.596652
0.500878
0.416214
0.347251
0.294427
0.255512
0.227477
0.207586
0.193743
0.184478
0.178831
0.176264
0.012667
0.010968
0.007557
0.001529
-0.008923
-0.027585
-0.062959
-0.135273
-0.295898
-0.606064
0.021627
0.829165
0.850697
0.707832
0.579610
0.462826
0.364288
0.289709
0.237641
0.202662
0.179439
0.164053
0.153924
0.147441
0.143642
0.142020
-0.024233
-0.027434
-0.034085
-0.045626
-0.064818
-0.096760
-0.150414
-0.239455
-0.376190
-0.537620
-0.472152
0.000000
0.754519
0.658341
0.506173
0.372361
0.263597
0.192795
0.152571
0.130449
0.118181
0.111271
0.107355
0.105182
0.104100
0.103808
-0.060518
-0.064861
-0.073913
-0.089240
-0.113607
-0.151305
-0.207704
-0.285448
-0.372348
-0.424600
-0.406684
-0.409292
0.000000
0.535392
0.412442
0.219929
0.089677
0.039110
0.032007
0.037055
0.044022
0.050260
0.055208
0.058849
0.061297
0.062678
-0.094835
-0.099853
-0.110251
-0.127412
-0.153549
-0.191487
-0.243380
-0.306994
-0.369360
-0.405843
-0.410444
-0.411899
-0.417592
0.000000
0.238084
0.063726
-0.209798
-0.194462
-0.125732
-0.074204
-0.039372
-0.015904
-0.000051
0.010458
0.016967
0.020229
-0.126196
-0.131445
-0.142226
-0.159581
-0.185004
-0.219944
-0.264548
-0.315474
-0.363942
-0.396874
-0.409336
-0.414884
-0.423286
-0.440081
0.000000
-0.382249
-0.828224
-0.493069
-0.299702
-0.189852
-0.123540
-0.081729
-0.054649
-0.037188
-0.026607
-0.021480
-0.154025
-0.159166
-0.169625
-0.186067
-0.209281
-0.239586
-0.275846
-0.314706
-0.351045
-0.378983
-0.399768
-0.415505
-0.434077
-0.456877
-0.511258
-0.643656
-0.704527
-0.552274
-0.395330
-0.275571
-0.193888
-0.139769
-0.104061
-0.080909
-0.066893
-0.060184
-0.178092
-0.182933
-0.192688
-0.207682
-0.228100
-0.253337
-0.281274
-0.308666
-0.333657
-0.356974
-0.382336
-0.414134
-0.449783
-0.493939
-0.565638
-0.582784
-0.602781
-0.556127
-0.441553
-0.330036
-0.245082
-0.185407
-0.144754
-0.117942
-0.101580
-0.093765
-0.198397
-0.202892
-0.211885
-0.225438
-0.243291
-0.264105
-0.284823
-0.301881
-0.315884
-0.334714
-0.365313
-0.411449
-0.468032
-0.538013
-0.611441
-0.642009
-0.642985
-0.576580
-0.466195
-0.360415
-0.277318
-0.216947
-0.174738
-0.146409
-0.128944
-0.120583
-0.215020
-0.219254
-0.227694
-0.240275
-0.256506
-0.274581
-0.290518
-0.299641
-0.303448
-0.317571
-0.351981
-0.406888
-0.484383
-0.577001
-0.666144
-0.710497
-0.674500
-0.577424
-0.466536
-0.368829
-0.291650
-0.234274
-0.193313
-0.165401
-0.148018
-0.139670
-0.228009
-0.232142
-0.240414
-0.252785
-0.268835
-0.286731
-0.301842
-0.307589
-0.304215
-0.313471
-0.346502
-0.404493
-0.489978
-0.590827
-0.674734
-0.698509
-0.647767
-0.549446
-0.446063
-0.358268
-0.289577
-0.238062
-0.200724
-0.174881
-0.158593
-0.150784
-0.237298
-0.241504
-0.250028
-0.262993
-0.280376
-0.300962
-0.320287
-0.329648
-0.325405
-0.329140
-0.355458
-0.406016
-0.480306
-0.563978
-0.626579
-0.633683
-0.579772
-0.492481
-0.404676
-0.331059
-0.273422
-0.229805
-0.197787
-0.175363
-0.161092
-0.154220
-0.242720
-0.247093
-0.256194
-0.270288
-0.289973
-0.315301
-0.343356
-0.364491
-0.367910
-0.368117
-0.381802
-0.414045
-0.461095
-0.512641
-0.546264
-0.537079
-0.485242
-0.414834
-0.347119
-0.290607
-0.245974
-0.211736
-0.186238
-0.168152
-0.156534
-0.150903
-0.243900
-0.248516
-0.258261
-0.273612
-0.295690
-0.325638
-0.363284
-0.402187
-0.421682
-0.423559
-0.422694
-0.427636
-0.439327
-0.452181
-0.453487
-0.427965
-0.379259
-0.326881
-0.280132
-0.241517
-0.210623
-0.186458
-0.168113
-0.154893
-0.146310
-0.142108
-0.240665
-0.245426
-0.255602
-0.271827
-0.295606
-0.328791
-0.372271
-0.422236
-0.465641
-0.476479
-0.464704
-0.442801
-0.418574
-0.393722
-0.363252
-0.321482
-0.274413
-0.238092
-0.210414
-0.188549
-0.170886
-0.156679
-0.145573
-0.137377
-0.131976
-0.129282
-0.233031
-0.237767
-0.247994
-0.264401
-0.288625
-0.322779
-0.368187
-0.421922
-0.471732
-0.499572
-0.488307
-0.448221
-0.397043
-0.343232
-0.285589
-0.228367
-0.180199
-0.155838
-0.143482
-0.135843
-0.129951
-0.124938
-0.120706
-0.117379
-0.115109
-0.113907
-0.221278
-0.225790
-0.235626
-0.251422
-0.274719
-0.307506
-0.351011
-0.402580
-0.451190
-0.479910
-0.477848
-0.438728
-0.375242
-0.301894
-0.225929
-0.154703
-0.102867
-0.084842
-0.083114
-0.086495
-0.090393
-0.093415
-0.095388
-0.096547
-0.097198
-0.097407
-0.205954
-0.210058
-0.219097
-0.233580
-0.254809
-0.284449
-0.323443
-0.369407
-0.413077
-0.439873
-0.439208
-0.408316
-0.348992
-0.270151
-0.183781
-0.101784
-0.044614
-0.026829
-0.031236
-0.042471
-0.054083
-0.063874
-0.071240
-0.076354
-0.079591
-0.081101
-0.187820
-0.191381
-0.199314
-0.211979
-0.230389
-0.255842
-0.289018
-0.327974
-0.365473
-0.389794
-0.391306
-0.366189
-0.315713
-0.241968
-0.153447
-0.066708
-0.003156
0.018635
0.011463
-0.004889
-0.022298
-0.037707
-0.049692
-0.058155
-0.063533
-0.066152
-0.167761
-0.170699
-0.177338
-0.187900
-0.203128
-0.223992
-0.251013
-0.282803
-0.314122
-0.336067
-0.340298
-0.322114
-0.280442
-0.216183
-0.133578
-0.045416
0.024421
0.050886
0.045116
0.026334
0.003296
-0.016892
-0.032393
-0.043295
-0.050204
-0.053559
-0.146676
-0.148967
-0.154236
-0.162601
-0.174586
-0.190910
-0.212022
-0.237115
-0.262726
-0.282474
-0.289443
-0.278480
-0.246745
-0.193285
-0.120463
-0.037845
0.036409
0.071175
0.069447
0.046049
0.019346
-0.003486
-0.020808
-0.032927
-0.040575
-0.044249
-0.125388
-0.127053
-0.130963
-0.137176
-0.146061
-0.158159
-0.173906
-0.193026
-0.213549
-0.231254
-0.240690
-0.236658
-0.215003
-0.172969
-0.111166
-0.037443
0.031954
0.072794
0.073180
0.049800
0.023185
0.000735
-0.016162
-0.027964
-0.035399
-0.038930
-0.104577
-0.105665
-0.108286
-0.112485
-0.118532
-0.126849
-0.137891
-0.151830
-0.167913
-0.183747
-0.195335
-0.197759
-0.185944
-0.155654
-0.106220
-0.044405
0.015042
0.051983
0.055318
0.035933
0.013434
-0.005190
-0.019092
-0.028858
-0.035050
-0.037964
-0.084739
-0.085316
-0.086755
-0.089129
-0.092660
-0.097695
-0.104713
-0.114250
-0.126535
-0.140746
-0.154306
-0.162785
-0.160509
-0.142242
-0.106658
-0.059743
-0.014240
0.014528
0.018600
0.005544
-0.009378
-0.020898
-0.029304
-0.035377
-0.039349
-0.041215
-0.066176
-0.066312
-0.066696
-0.067464
-0.068827
-0.071087
-0.074745
-0.080621
-0.089747
-0.102717
-0.118341
-0.132732
-0.139880
-0.134135
-0.114006
-0.084419
-0.055054
-0.036187
-0.032487
-0.037963
-0.042653
-0.044436
-0.045352
-0.046430
-0.047426
-0.047922
-0.049006
-0.048773
-0.048237
-0.047630
-0.047182
-0.047167
-0.048109
-0.051039
-0.057655
-0.069985
-0.088172
-0.108766
-0.125646
-0.133256
-0.129963
-0.118858
-0.105742
-0.096214
-0.092211
-0.089084
-0.081788
-0.072276
-0.064656
-0.060095
-0.057744
-0.056715
-0.033203
-0.032663
-0.031341
-0.029599
-0.027692
-0.025896
-0.024760
-0.025475
-0.030296
-0.042977
-0.064802
-0.092422
-0.119696
-0.141274
-0.154908
-0.161213
-0.162117
-0.159459
-0.153329
-0.140563
-0.120611
-0.099758
-0.083874
-0.073899
-0.068319
-0.065827
-0.018638
-0.017839
-0.015865
-0.013222
-0.010201
-0.007105
-0.004553
-0.003876
-0.007860
-0.022541
-0.049631
-0.085269
-0.123114
-0.157781
-0.186058
-0.206208
-0.217076
-0.217764
-0.207322
-0.184173
-0.152333
-0.122005
-0.099606
-0.085343
-0.077117
-0.073474
-0.005151
-0.004108
-0.001612
0.001707
0.005528
0.009450
0.012704
0.013748
0.009039
-0.009885
-0.043761
-0.087478
-0.134337
-0.178928
-0.217336
-0.246149
-0.262150
-0.262369
-0.245772
-0.212155
-0.171011
-0.135138
-0.109342
-0.092559
-0.082539
-0.078131
0.007364
0.008722
0.011590
0.015391
0.019743
0.024036
0.027222
0.027390
0.019625
-0.005519
-0.046372
-0.096316
-0.148724
-0.198558
-0.241705
-0.273545
-0.290142
-0.286178
-0.260585
-0.219186
-0.175600
-0.138850
-0.112129
-0.094355
-0.083533
-0.078744
0.019025
0.020620
0.023736
0.027932
0.032685
0.036857
0.039089
0.037233
0.024154
-0.007868
-0.053957
-0.106852
-0.160708
-0.211028
-0.254102
-0.283380
-0.293805
-0.282127
-0.252620
-0.211377
-0.169233
-0.134072
-0.108254
-0.090763
-0.079955
-0.075165
0.029738
0.031288
0.034442
0.038810
0.043850
0.048210
0.048791
0.043110
0.024107
-0.013660
-0.062071
-0.114586
-0.166423
-0.212957
-0.249465
-0.271076
-0.275380
-0.260945
-0.231044
-0.192462
-0.154161
-0.122354
-0.098744
-0.082470
-0.072290
-0.067794
0.038974
0.040274
0.043184
0.047349
0.052239
0.056388
0.056280
0.045234
0.020493
-0.020141
-0.067809
-0.116835
-0.162347
-0.201474
-0.230368
-0.245532
-0.245025
-0.228948
-0.200663
-0.166380
-0.133193
-0.105695
-0.085047
-0.070580
-0.061432
-0.057424
0.045992
0.046877
0.049204
0.052660
0.056767
0.059938
0.058155
0.044412
0.014804
-0.025326
-0.069097
-0.111945
-0.150376
-0.181653
-0.202982
-0.212054
-0.207873
-0.191378
-0.165906
-0.136676
-0.109012
-0.086121
-0.068736
-0.056368
-0.048474
-0.045054
0.049968
0.050316
0.051712
0.053919
0.056620
0.058215
0.054299
0.038390
0.009134
-0.027778
-0.066242
-0.102268
-0.133109
-0.156649
-0.171015
-0.174917
-0.168203
-0.152284
-0.130227
-0.106152
-0.083846
-0.065415
-0.051275
-0.041076
-0.034516
-0.031707
0.050243
0.049975
0.050122
0.050585
0.051392
0.051184
0.045621
0.029591
0.003203
-0.028689
-0.060843
-0.089685
-0.112999
-0.129327
-0.137626
-0.137429
-0.129197
-0.114525
-0.096037
-0.076798
-0.059353
-0.044983
-0.033874
-0.025774
-0.020527
-0.018305
0.046611
0.045676
0.044300
0.042579
0.041093
0.039105
0.032902
0.018638
-0.003309
-0.029088
-0.054360
-0.075984
-0.092173
-0.102051
-0.105260
-0.101962
-0.092994
-0.079920
-0.064835
-0.049882
-0.036646
-0.025821
-0.017430
-0.011274
-0.007263
-0.005572
0.039549
0.037899
0.034778
0.030475
0.026301
0.022569
0.016611
0.005395
-0.011048
-0.029999
-0.048085
-0.062673
-0.072324
-0.076590
-0.075633
-0.070049
-0.060861
-0.049464
-0.037412
-0.026087
-0.016369
-0.008546
-0.002524
0.001883
0.004767
0.005994
0.030247
0.027843
0.022852
0.015669
0.008380
0.002728
-0.002637
-0.010225
-0.020624
-0.032351
-0.043131
-0.050954
-0.054688
-0.054147
-0.049810
-0.042534
-0.033395
-0.023546
-0.014046
-0.005673
0.001196
0.006546
0.010552
0.013422
0.015298
0.016132
0.020366
0.017231
0.010452
0.000350
-0.010410
-0.018445
-0.023536
-0.027698
-0.032179
-0.036755
-0.040347
-0.041727
-0.040109
-0.035445
-0.028336
-0.019746
-0.010713
-0.002143
0.005331
0.011397
0.016032
0.019400
0.021738
0.023289
0.024282
0.024790
0.011580
0.007905
-0.000278
-0.012852
-0.027114
-0.038130
-0.043857
-0.045563
-0.045034
-0.043188
-0.040142
-0.035560
-0.029109
-0.020857
-0.011398
-0.001669
0.007367
0.015018
0.020995
0.025347
0.028300
0.030139
0.031147
0.031606
0.031842
0.032083
0.005107
0.001317
-0.007568
-0.021523
-0.038749
-0.053103
-0.060716
-0.061522
-0.057599
-0.050792
-0.042258
-0.032552
-0.021883
-0.010501
0.001039
0.011887
0.021170
0.028334
0.033334
0.036507
0.038268
0.038994
0.039004
0.038611
0.038223
0.038250
0.001914
-0.001906
-0.010819
-0.024768
-0.042873
-0.060686
-0.071429
-0.072998
-0.067717
-0.057982
-0.045690
-0.032170
-0.018173
-0.004206
0.009168
0.021188
0.031043
0.038213
0.042760
0.045247
0.046257
0.046253
0.045590
0.044600
0.043738
0.043600
0.001836
-0.001817
-0.010323
-0.023553
-0.040854
-0.058970
-0.073031
-0.077985
-0.073319
-0.062949
-0.048939
-0.033286
-0.017175
-0.001395
0.013426
0.026589
0.037312
0.044998
0.049638
0.051920
0.052592
0.052216
0.051196
0.049880
0.048718
0.048459
0.004309
0.000969
-0.006829
-0.018865
-0.034658
-0.051790
-0.066057
-0.073534
-0.073120
-0.064364
-0.050504
-0.034512
-0.017665
-0.001058
0.014606
0.028663
0.040361
0.048979
0.054250
0.056814
0.057556
0.057155
0.056088
0.054725
0.053478
0.053113
0.008542
0.005593
-0.001325
-0.011908
-0.025780
-0.041223
-0.054959
-0.063636
-0.065478
-0.060372
-0.049233
-0.034685
-0.018349
-0.001960
0.013802
0.028276
0.040770
0.050492
0.056824
0.060142
0.061365
0.061290
0.060483
0.059354
0.058283
0.057718
0.013688
0.011154
0.005189
-0.003849
-0.015649
-0.029053
-0.041661
-0.050728
-0.054361
-0.051981
-0.044179
-0.032535
-0.018149
-0.003012
0.012147
0.026476
0.039342
0.050029
0.057612
0.062061
0.064158
0.064758
0.064556
0.063826
0.063017
0.062620
0.018979
0.016849
0.011844
0.004341
-0.005407
-0.016668
-0.027790
-0.036649
-0.041490
-0.041453
-0.036646
-0.027919
-0.016343
-0.003221
0.010518
0.024219
0.036923
0.048199
0.056943
0.062718
0.066187
0.067847
0.068251
0.068042
0.067695
0.067648
0.023815
0.022056
0.017990
0.011964
0.004157
-0.005017
-0.014499
-0.022738
-0.028233
-0.030005
-0.027779
-0.021906
-0.013111
-0.002314
0.009640
0.022039
0.034211
0.045603
0.055379
0.062701
0.067472
0.070145
0.071395
0.071902
0.072169
0.072577
0.027803
0.026380
0.023221
0.018596
0.012578
0.005343
-0.002495
-0.009873
-0.015582
-0.018642
-0.018528
-0.015210
-0.009043
-0.000622
0.009394
0.020378
0.031750
0.042954
0.053226
0.061643
0.067704
0.071570
0.073836
0.075198
0.076177
0.077097
0.030768
0.029648
0.027364
0.024058
0.019662
0.014169
0.007870
0.001444
-0.004185
-0.008111
-0.009668
-0.008545
-0.004770
0.001365
0.009425
0.018915
0.029329
0.040115
0.050538
0.059690
0.066873
0.071943
0.075301
0.077592
0.079333
0.080784
0.032735
0.031892
0.030450
0.028364
0.025407
0.021426
0.016491
0.010988
0.005589
0.001088
-0.001789
-0.002531
-0.000898
0.003092
0.009231
0.017182
0.026519
0.036712
0.047049
0.056650
0.064726
0.070903
0.075351
0.078597
0.081110
0.083083
0.033891
0.033308
0.032656
0.031658
0.029930
0.027211
0.023417
0.018717
0.013570
0.008648
0.004687
0.002332
0.002032
0.004007
0.008263
0.014626
0.022767
0.032201
0.042246
0.052051
0.060786
0.067917
0.073399
0.077592
0.080867
0.083330
0.034531
0.034196
0.034243
0.034144
0.033402
0.031678
0.028772
0.024688
0.019709
0.014393
0.009460
0.005639
0.003542
0.003581
0.005954
0.010648
0.017449
0.025940
0.035486
0.045270
0.054444
0.062365
0.068803
0.073920
0.077941
0.080846
0.034983
0.034874
0.035467
0.036025
0.035997
0.034986
0.032694
0.028985
0.024001
0.018202
0.012287
0.007039
0.003186
0.001295
0.001732
0.004641
0.009935
0.017291
0.026139
0.035706
0.045140
0.053714
0.061036
0.067061
0.071814
0.075104
0.035516
0.035610
0.036527
0.037457
0.037854
0.037265
0.035286
0.031657
0.026409
0.019938
0.012925
0.006191
0.000542
-0.003332
-0.004919
-0.003923
-0.000288
0.005773
0.013776
0.022995
0.032579
0.041731
0.049906
0.056842
0.062332
0.065953
0.036251
0.036577
0.037528
0.038534
0.039062
0.038586
0.036584
0.032681
0.026842
0.019437
0.011148
0.002816
-0.004700
-0.010618
-0.014301
-0.015300
-0.013412
-0.008720
-0.001616
0.007226
0.016951
0.026687
0.035742
0.043639
0.049903
0.053825
0.037306
0.037690
0.038477
0.039286
0.039654
0.038963
0.036561
0.031994
0.025214
0.016610
0.006880
-0.003130
-0.012538
-0.020500
-0.026266
-0.029246
-0.029078
-0.025711
-0.019437
-0.010886
-0.000929
0.009486
0.019518
0.028474
0.035597
0.039843
0.038653
0.038845
0.039332
0.039703
0.039639
0.038397
0.035217
0.029620
0.021613
0.011644
0.000419
-0.011234
-0.022442
-0.032326
-0.040040
-0.044852
-0.046248
-0.044034
-0.038408
-0.029965
-0.019602
-0.008348
0.002814
0.012977
0.021090
0.025742
0.040101
0.040009
0.040095
0.039872
0.039054
0.036966
0.032699
0.025831
0.016481
0.005161
-0.007438
-0.020541
-0.033314
-0.044856
-0.054240
-0.060602
-0.063274
-0.061931
-0.056686
-0.048108
-0.037127
-0.024843
-0.012371
-0.000836
0.008404
0.013542
0.041536
0.041129
0.040746
0.039956
0.038057
0.034898
0.029382
0.021208
0.010619
-0.001838
-0.015522
-0.029739
-0.043701
-0.056499
-0.067136
-0.074627
-0.078174
-0.077332
-0.072145
-0.063172
-0.051385
-0.037892
-0.023945
-0.010921
-0.000449
0.005019
0.042886
0.042163
0.041289
0.039867
0.037171
0.032513
0.025799
0.016512
0.004975
-0.008259
-0.022626
-0.037511
-0.052171
-0.065692
-0.077024
-0.085098
-0.089007
-0.088228
-0.082759
-0.073152
-0.060481
-0.045669
-0.030147
-0.015575
-0.004208
0.001375
0.044061
0.043048
0.041703
0.039647
0.036156
0.030548
0.022600
0.012417
0.000322
-0.013255
-0.027832
-0.042864
-0.057636
-0.071239
-0.082599
-0.090601
-0.094282
-0.093097
-0.087015
-0.076532
-0.062530
-0.046534
-0.029986
-0.014694
-0.002937
0.002720
0.044909
0.043649
0.041898
0.039280
0.035099
0.028772
0.020174
0.009548
-0.002719
-0.016219
-0.030527
-0.045127
-0.059331
-0.072244
-0.082814
-0.089958
-0.092770
-0.090739
-0.083874
-0.072702
-0.058175
-0.041624
-0.024601
-0.009031
0.002790
0.008359
0.045172
0.043724
0.041658
0.038613
0.033960
0.027251
0.018467
0.007910
-0.004017
-0.016910
-0.030361
-0.043881
-0.056826
-0.068368
-0.077539
-0.083359
-0.085022
-0.082084
-0.074582
-0.063035
-0.048370
-0.031845
-0.015005
0.000261
0.011741
0.017049
0.044492
0.042921
0.040646
0.037347
0.032494
0.025768
0.017232
0.007205
-0.003904
-0.015694
-0.027763
-0.039649
-0.050771
-0.060402
-0.067707
-0.071857
-0.072184
-0.068338
-0.060389
-0.048837
-0.034553
-0.018713
-0.002759
0.011584
0.022314
0.027227
0.042477
0.040849
0.038472
0.035107
0.030339
0.023956
0.016068
0.006992
-0.002875
-0.013137
-0.023402
-0.033241
-0.042149
-0.049517
-0.054675
-0.056969
-0.055893
-0.051213
-0.043045
-0.031873
-0.018498
-0.003977
0.010431
0.023281
0.032898
0.037330
0.038814
0.037192
0.034803
0.031547
0.027132
0.021422
0.014542
0.006787
-0.001479
-0.009878
-0.018039
-0.025575
-0.032060
-0.037014
-0.039933
-0.040348
-0.037923
-0.032549
-0.024402
-0.013956
-0.001935
0.010753
0.023091
0.033988
0.042200
0.046107
0.033430
0.031847
0.029498
0.026482
0.022630
0.017860
0.012285
0.006151
-0.000231
-0.006527
-0.012404
-0.017525
-0.021545
-0.024107
-0.024861
-0.023513
-0.019889
-0.014002
-0.006092
0.003375
0.013752
0.024291
0.034239
0.042889
0.049491
0.052850
0.026610
0.025043
0.022715
0.019982
0.016806
0.013141
0.009067
0.004759
0.000450
-0.003599
-0.007116
-0.009829
-0.011469
-0.011788
-0.010569
-0.007669
-0.003052
0.003163
0.010679
0.019039
0.027673
0.035988
0.043476
0.049794
0.054693
0.057488
0.019031
0.017385
0.014961
0.012433
0.009909
0.007373
0.004857
0.002451
0.000286
-0.001477
-0.002651
-0.003043
-0.002467
-0.000765
0.002171
0.006371
0.011764
0.018148
0.025192
0.032454
0.039440
0.045694
0.050914
0.055048
0.058290
0.060508
0.011621
0.009777
0.007048
0.004509
0.002457
0.000905
-0.000160
-0.000743
-0.000831
-0.000380
0.000685
0.002461
0.005049
0.008525
0.012915
0.018171
0.024148
0.030599
0.037177
0.043471
0.049062
0.053613
0.056975
0.059298
0.061084
0.062733
0.005240
0.003257
-0.000077
-0.002952
-0.004844
-0.005711
-0.005596
-0.004599
-0.002823
-0.000356
0.002755
0.006495
0.010871
0.015882
0.021492
0.027600
0.034026
0.040504
0.046701
0.052247
0.056798
0.060117
0.062166
0.063208
0.063890
0.065017
0.000530
-0.001525
-0.005561
-0.009190
-0.011256
-0.011844
-0.010942
-0.008739
-0.005447
-0.001277
0.003598
0.009044
0.014969
0.021296
0.027934
0.034749
0.041552
0.048085
0.054044
0.059112
0.063017
0.065603
0.066914
0.067258
0.067284
0.067989
-0.002580
-0.004716
-0.009030
-0.013341
-0.016190
-0.016956
-0.015678
-0.012720
-0.008348
-0.002876
0.003407
0.010255
0.017476
0.024914
0.032428
0.039862
0.047026
0.053690
0.059590
0.064465
0.068108
0.070426
0.071513
0.071689
0.071523
0.071926
-0.004600
-0.006751
-0.011192
-0.015758
-0.019040
-0.020433
-0.019401
-0.016144
-0.011146
-0.004815
0.002487
0.010403
0.018656
0.027015
0.035283
0.043286
0.050838
0.057739
0.063770
0.068724
0.072442
0.074879
0.076152
0.076574
0.076641
0.076766
-0.006338
-0.008423
-0.012753
-0.017289
-0.020684
-0.022218
-0.021519
-0.018655
-0.013539
-0.006772
0.001183
0.009828
0.018860
0.027964
0.036890
0.045439
0.053430
0.060687
0.067031
0.072299
0.076372
0.079225
0.080974
0.081901
0.082327
0.082580
-0.008721
-0.010663
-0.014576
-0.018674
-0.021801
-0.023269
-0.022689
-0.019941
-0.015066
-0.008419
-0.000187
0.008848
0.018452
0.028157
0.037667
0.046765
0.055262
0.062995
0.069817
0.075596
0.080237
0.083718
0.086131
0.087699
0.088618
0.089160
-0.012557
-0.014274
-0.017431
-0.020641
-0.023064
-0.024127
-0.023425
-0.020737
-0.016028
-0.009473
-0.001355
0.007846
0.017745
0.027955
0.037995
0.047671
0.056757
0.065093
0.072543
0.078996
0.084365
0.088618
0.091837
0.094104
0.095576
0.096450
-0.018290
-0.019688
-0.021775
-0.023698
-0.025019
-0.025330
-0.024233
-0.021429
-0.016780
-0.010336
-0.002308
0.006951
0.017051
0.027587
0.038155
0.048457
0.058248
0.067326
0.075552
0.082823
0.089061
0.094210
0.098262
0.101265
0.103319
0.104531
-0.025869
-0.026849
-0.027654
-0.028049
-0.028010
-0.027305
-0.025569
-0.022446
-0.017703
-0.011273
-0.003269
0.006056
0.016359
0.027256
0.038364
0.049349
0.059931
0.069886
0.079047
0.087287
0.094504
0.100615
0.105566
0.109347
0.111991
0.113538
-0.034813
-0.035290
-0.034784
-0.033642
-0.032186
-0.030349
-0.027813
-0.024197
-0.019189
-0.012629
-0.004525
0.004957
0.015540
0.026879
0.038608
0.050379
0.061883
0.072863
0.083114
0.092471
0.100794
0.107963
0.113876
0.118469
0.121712
0.123594
-0.044485
-0.044426
-0.042781
-0.040324
-0.037597
-0.034663
-0.031271
-0.027041
-0.021617
-0.014764
-0.006404
0.003380
0.014378
0.026288
0.038766
0.051461
0.064042
0.076215
0.087727
0.098365
0.107940
0.116280
0.123236
0.128688
0.132551
0.134777
-0.054422
-0.053863
-0.051405
-0.048008
-0.044289
-0.040411
-0.036198
-0.031298
-0.025337
-0.018033
-0.009243
0.001019
0.012603
0.025253
0.038648
0.052439
0.066275
0.079825
0.092786
0.104886
0.115874
0.125522
0.133623
0.140002
0.144527
0.147115
-0.064541
-0.063562
-0.060679
-0.056754
-0.052375
-0.047772
-0.042837
-0.037260
-0.030675
-0.022776
-0.013378
-0.002443
0.009928
0.023520
0.038034
0.053124
0.068419
0.083552
0.098167
0.111924
0.124507
0.135618
0.144988
0.152384
0.157630
0.160608
-0.075118
-0.073745
-0.070843
-0.066759
-0.062046
-0.056957
-0.051434
-0.045208
-0.037938
-0.029312
-0.019127
-0.007311
0.006073
0.020840
0.036710
0.053336
0.070328
0.087278
0.103773
0.119404
0.133780
0.146528
0.157308
0.165831
0.171871
0.175271
-0.086290
-0.084979
-0.082245
-0.078289
-0.073535
-0.068200
-0.062240
-0.055417
-0.047416
-0.037941
-0.026785
-0.013861
0.000788
0.016999
0.034501
0.052941
0.071907
0.090944
0.109578
0.127327
0.143717
0.158295
0.170647
0.180419
0.187335
0.191191
-0.098476
-0.097431
-0.095102
-0.091564
-0.087065
-0.081732
-0.075498
-0.068140
-0.059370
-0.048920
-0.036598
-0.022320
-0.006121
0.011842
0.031299
0.051883
0.073149
0.094590
0.115665
0.135812
0.154469
0.171097
0.185202
0.196361
0.204242
0.208588
-0.111739
-0.111120
-0.109513
-0.106732
-0.102817
-0.097755
-0.091419
-0.083588
-0.074008
-0.062448
-0.048746
-0.032836
-0.014764
0.005308
0.027097
0.050212
0.074163
0.098385
0.122257
0.145131
0.166350
0.185284
0.201351
0.214052
0.222996
0.227866
-0.125815
-0.125882
-0.125415
-0.123862
-0.120938
-0.116444
-0.110181
-0.101933
-0.091484
-0.078655
-0.063329
-0.045472
-0.025154
-0.002559
0.022005
0.048107
0.075201
0.102647
0.129738
0.155726
0.179858
0.201401
0.219678
0.234105
0.244221
0.249649
-0.140072
-0.141282
-0.142683
-0.143028
-0.141598
-0.137996
-0.131970
-0.123328
-0.111915
-0.097620
-0.080382
-0.060214
-0.037219
-0.011616
0.016245
0.045874
0.076652
0.107848
0.138654
0.168216
0.195674
0.220190
0.240984
0.257366
0.268770
0.274780
-0.154854
-0.159743
-0.165555
-0.169611
-0.170789
-0.168649
-0.163016
-0.153813
-0.140998
-0.124552
-0.104480
-0.080838
-0.053767
-0.023528
0.009456
0.044594
0.081133
0.118189
0.154796
0.189945
0.222631
0.251884
0.276800
0.296566
0.310391
0.317127
