# vtk DataFile Version 3.0
Vector Field
ASCII
DATASET RECTILINEAR_GRID
DIMENSIONS 26 100 1
X_COORDINATES 26 double
0.050000 0.150000 0.250000 0.350000 0.450000 0.550000 0.650000 0.750000 0.850000 0.950000 1.050000 1.150000 1.250000 1.350000 1.450000 1.550000 1.650000 1.750000 1.850000 1.950000 2.050000 2.150000 2.250000 2.350000 2.450000 2.550000 
Y_COORDINATES 100 double
0.050000 0.150000 0.250000 0.350000 0.450000 0.550000 0.650000 0.750000 0.850000 0.950000 1.050000 1.150000 1.250000 1.350000 1.450000 1.550000 1.650000 1.750000 1.850000 1.950000 2.050000 2.150000 2.250000 2.350000 2.450000 2.550000 2.650000 2.750000 2.850000 2.950000 3.050000 3.150000 3.250000 3.350000 3.450000 3.550000 3.650000 3.750000 3.850000 3.950000 4.050000 4.150000 4.250000 4.350000 4.450000 4.550000 4.650000 4.750000 4.850000 4.950000 5.050000 5.150000 5.250000 5.350000 5.450000 5.550000 5.650000 5.750000 5.850000 5.950000 6.050000 6.150000 6.250000 6.350000 6.450000 6.550000 6.650000 6.750000 6.850000 6.950000 7.050000 7.150000 7.250000 7.350000 7.450000 7.550000 7.650000 7.750000 7.850000 7.950000 8.050000 8.150000 8.250000 8.350000 8.450000 8.550000 8.650000 8.750000 8.850000 8.950000 9.050000 9.150000 9.250000 9.350000 9.450000 9.550000 9.650000 9.750000 9.850000 9.950000 
Z_COORDINATES 1 double
0.0
POINT_DATA 2600
VECTORS Vektorfeld double
-0.000814 1.000814 0.0
-0.002990 1.001362 0.0
-0.005597 1.001246 0.0
-0.008034 1.001191 0.0
-0.010338 1.001114 0.0
-0.012422 1.000969 0.0
-0.014109 1.000717 0.0
-0.015158 1.000331 0.0
-0.015305 0.999816 0.0
-0.014348 0.999227 0.0
-0.012246 0.998672 0.0
-0.009192 0.998274 0.0
-0.005582 0.998115 0.0
-0.001895 0.998197 0.0
0.001453 0.998455 0.0
0.004190 0.998808 0.0
0.006174 0.999208 0.0
0.007371 0.999595 0.0
0.007843 0.999933 0.0
0.007703 1.000206 0.0
0.007082 1.000414 0.0
0.006103 1.000565 0.0
0.004862 1.000676 0.0
0.003413 1.000773 0.0
0.001716 1.000924 0.0
0.000396 1.000396 0.0
-0.002956 1.004584 0.0
-0.009717 1.006529 0.0
-0.017254 1.006223 0.0
-0.024634 1.006029 0.0
-0.031741 1.005688 0.0
-0.038253 1.004991 0.0
-0.043609 1.003739 0.0
-0.047038 1.001787 0.0
-0.047677 0.999147 0.0
-0.044841 0.996103 0.0
-0.038370 0.993223 0.0
-0.028871 0.991169 0.0
-0.017624 0.990363 0.0
-0.006169 0.990807 0.0
0.004175 0.992154 0.0
0.012572 0.993975 0.0
0.018617 0.996012 0.0
0.022238 0.997973 0.0
0.023645 0.999677 0.0
0.023201 1.001047 0.0
0.021312 1.002083 0.0
0.018357 1.002831 0.0
0.014644 1.003365 0.0
0.010391 1.003786 0.0
0.005719 1.004280 0.0
0.001643 1.002436 0.0
-0.005311 1.012851 0.0
-0.016885 1.016598 0.0
-0.029442 1.016247 0.0
-0.042007 1.015949 0.0
-0.054352 1.015219 0.0
-0.065921 1.013540 0.0
-0.075728 1.010354 0.0
-0.082340 1.005212 0.0
-0.084061 0.998083 0.0
-0.079440 0.989710 0.0
-0.068009 0.981715 0.0
-0.050884 0.976054 0.0
-0.030598 0.973946 0.0
-0.010141 0.975312 0.0
0.008052 0.979112 0.0
0.022552 0.984119 0.0
0.032762 0.989613 0.0
0.038683 0.994830 0.0
0.040782 0.999314 0.0
0.039749 1.002886 0.0
0.036325 1.005558 0.0
0.031175 1.007461 0.0
0.024841 1.008783 0.0
0.017719 1.009743 0.0
0.010080 1.010633 0.0
0.003080 1.007159 0.0
-0.007765 1.025927 0.0
-0.024314 1.031646 0.0
-0.042077 1.031519 0.0
-0.060205 1.031370 0.0
-0.078460 1.030399 0.0
-0.096124 1.027594 0.0
-0.111765 1.021749 0.0
-0.123097 1.011762 0.0
-0.127153 0.997311 0.0
-0.121066 0.979773 0.0
-0.103566 0.962720 0.0
-0.076446 0.950803 0.0
-0.044354 0.946819 0.0
-0.012622 0.950250 0.0
0.014848 0.958512 0.0
0.036076 0.968992 0.0
0.050454 0.980152 0.0
0.058296 0.990527 0.0
0.060522 0.999292 0.0
0.058304 1.006159 0.0
0.052800 1.011212 0.0
0.045016 1.014740 0.0
0.035736 1.017119 0.0
0.025523 1.018742 0.0
0.014761 1.020033 0.0
0.004641 1.014879 0.0
-0.010227 1.043919 0.0
-0.031782 1.051757 0.0
-0.054892 1.052280 0.0
-0.078988 1.052832 0.0
-0.103999 1.052203 0.0
-0.129212 1.048667 0.0
-0.152845 1.039948 0.0
-0.171589 1.023639 0.0
-0.180505 0.998406 0.0
-0.173985 0.966071 0.0
-0.148624 0.933562 0.0
-0.107108 0.911325 0.0
-0.058243 0.905339 0.0
-0.011571 0.913326 0.0
0.027147 0.929249 0.0
0.055717 0.948457 0.0
0.073932 0.968093 0.0
0.082853 0.985822 0.0
0.084182 1.000441 0.0
0.079773 1.011638 0.0
0.071328 1.019682 0.0
0.060232 1.025150 0.0
0.047513 1.028709 0.0
0.033872 1.031007 0.0
0.019752 1.032650 0.0
0.006308 1.025828 0.0
-0.012576 1.066723 0.0
-0.038945 1.076877 0.0
-0.067352 1.078677 0.0
-0.097683 1.080864 0.0
-0.130290 1.081788 0.0
-0.164822 1.078828 0.0
-0.199525 1.068122 0.0
-0.230185 1.044869 0.0
-0.249053 1.004961 0.0
-0.245141 0.949083 0.0
-0.209254 0.889302 0.0
-0.144937 0.849752 0.0
-0.070415 0.843525 0.0
-0.003271 0.861325 0.0
0.048983 0.890278 0.0
0.084979 0.922863 0.0
0.105929 0.954523 0.0
0.114317 0.982082 0.0
0.113055 1.004115 0.0
0.104935 1.020493 0.0
0.092317 1.031891 0.0
0.076996 1.039358 0.0
0.060211 1.044004 0.0
0.042737 1.046826 0.0
0.025006 1.048680 0.0
0.008057 1.040192 0.0
-0.014647 1.093946 0.0
-0.045306 1.106681 0.0
-0.078599 1.110572 0.0
-0.115037 1.115739 0.0
-0.155727 1.120210 0.0
-0.201297 1.120508 0.0
-0.250992 1.110840 0.0
-0.300770 1.082590 0.0
-0.339900 1.025238 0.0
-0.347227 0.932221 0.0
-0.297166 0.820215 0.0
-0.192411 0.749767 0.0
-0.075616 0.752192 0.0
0.019192 0.790707 0.0
0.086441 0.841393 0.0
0.128510 0.893682 0.0
0.149666 0.941597 0.0
0.154714 0.981571 0.0
0.148256 1.012347 0.0
0.134273 1.034363 0.0
0.115866 1.049045 0.0
0.095205 1.058186 0.0
0.073651 1.063516 0.0
0.051943 1.066496 0.0
0.030398 1.068286 0.0
0.009842 1.058091 0.0
-0.016244 1.124838 0.0
-0.050243 1.140446 0.0
-0.087473 1.147331 0.0
-0.129133 1.157078 0.0
-0.177322 1.167750 0.0
-0.234275 1.175491 0.0
-0.301749 1.173026 0.0
-0.379064 1.147497 0.0
-0.456814 1.077211 0.0
-0.499471 0.930234 0.0
-0.435481 0.708151 0.0
-0.251105 0.572700 0.0
-0.059420 0.620779 0.0
0.068168 0.699723 0.0
0.148413 0.784882 0.0
0.192058 0.864480 0.0
0.208595 0.933107 0.0
0.205834 0.987774 0.0
0.190430 1.028006 0.0
0.167732 1.055385 0.0
0.141569 1.072593 0.0
0.114347 1.082521 0.0
0.087354 1.087728 0.0
0.061117 1.090229 0.0
0.035692 1.091523 0.0
0.011584 1.079518 0.0
-0.017172 1.158254 0.0
-0.053122 1.176978 0.0
-0.092730 1.187637 0.0
-0.137817 1.203518 0.0
-0.191836 1.223518 0.0
-0.260489 1.245328 0.0
-0.353938 1.264111 0.0
-0.488497 1.268285 0.0
-0.679112 1.224787 0.0
-0.881430 1.027633 0.0
-0.757603 0.422934 0.0
-0.309008 0.224945 0.0
0.018230 0.449613 0.0
0.165702 0.595829 0.0
0.245904 0.728329 0.0
0.281420 0.841872 0.0
0.285653 0.934945 0.0
0.268667 1.005683 0.0
0.239277 1.054891 0.0
0.204343 1.086132 0.0
0.168269 1.104082 0.0
0.133354 1.113169 0.0
0.100471 1.116956 0.0
0.069661 1.118047 0.0
0.040536 1.118254 0.0
0.013165 1.104267 0.0
-0.017291 1.192717 0.0
-0.053467 1.214641 0.0
-0.093284 1.229400 0.0
-0.138487 1.252044 0.0
-0.191941 1.282465 0.0
-0.256498 1.319591 0.0
-0.331488 1.358288 0.0
-0.402186 1.379367 0.0
-0.420822 1.322957 0.0
-0.204189 1.018850 0.0
0.272572 0.180932 0.0
0.272572 0.130203 0.0
0.159871 0.191508 0.0
0.350654 0.511619 0.0
0.393972 0.689019 0.0
0.403060 0.836577 0.0
0.383330 0.955737 0.0
0.343001 1.042207 0.0
0.292979 1.097779 0.0
0.241751 1.129407 0.0
0.193762 1.144872 0.0
0.150470 1.150586 0.0
0.111737 1.151155 0.0
0.076746 1.149650 0.0
0.044464 1.148058 0.0
0.014433 1.131865 0.0
-0.016582 1.226591 0.0
-0.051227 1.251588 0.0
-0.089098 1.270142 0.0
-0.131341 1.298748 0.0
-0.179341 1.337216 0.0
-0.232302 1.382357 0.0
-0.282534 1.420745 0.0
-0.308231 1.413305 0.0
-0.269967 1.269390 0.0
-0.114422 0.815920 0.0
0.000000 0.065250 0.0
-0.000000 0.202192 0.0
0.000000 0.138322 0.0
0.235277 0.259218 0.0
0.504682 0.642486 0.0
0.532457 0.846248 0.0
0.495341 1.002913 0.0
0.424908 1.105792 0.0
0.346968 1.162154 0.0
0.275527 1.187701 0.0
0.214510 1.195584 0.0
0.163196 1.194479 0.0
0.119525 1.189666 0.0
0.081386 1.184268 0.0
0.046951 1.180156 0.0
0.015225 1.161523 0.0
-0.015139 1.258312 0.0
-0.046741 1.286114 0.0
-0.080998 1.307745 0.0
-0.118378 1.340768 0.0
-0.159094 1.383912 0.0
-0.200516 1.430044 0.0
-0.233737 1.456511 0.0
-0.241159 1.410657 0.0
-0.201830 1.194444 0.0
-0.116103 0.661575 0.0
-0.032100 -0.056501 0.0
0.000000 0.068370 0.0
-0.000000 0.194148 0.0
0.000000 0.110744 0.0
0.295874 0.331350 0.0
0.614587 0.829761 0.0
0.596583 1.074520 0.0
0.498069 1.203132 0.0
0.389132 1.251691 0.0
0.297357 1.261380 0.0
0.225276 1.255003 0.0
0.168423 1.243227 0.0
0.122063 1.230951 0.0
0.082615 1.220569 0.0
0.047520 1.213386 0.0
0.015396 1.192144 0.0
-0.013107 1.286558 0.0
-0.040509 1.316872 0.0
-0.070043 1.340777 0.0
-0.101673 1.376745 0.0
-0.135087 1.422063 0.0
-0.167429 1.465658 0.0
-0.191025 1.477715 0.0
-0.192665 1.398515 0.0
-0.158770 1.133361 0.0
-0.092497 0.570659 0.0
-0.057131 -0.085395 0.0
-0.030389 -0.030754 0.0
0.000000 0.070860 0.0
-0.000000 0.164712 0.0
0.000000 0.073015 0.0
0.361012 0.473080 0.0
0.670558 1.166829 0.0
0.539599 1.340296 0.0
0.399354 1.363710 0.0
0.295187 1.345304 0.0
0.219868 1.318479 0.0
0.163172 1.293299 0.0
0.117955 1.272457 0.0
0.079792 1.256674 0.0
0.045894 1.246274 0.0
0.014868 1.222407 0.0
-0.010633 1.310299 0.0
-0.032993 1.342893 0.0
-0.057093 1.368391 0.0
-0.082606 1.406274 0.0
-0.109234 1.452577 0.0
-0.134888 1.493141 0.0
-0.154066 1.493006 0.0
-0.156979 1.387776 0.0
-0.132326 1.085552 0.0
-0.081479 0.501349 0.0
-0.081548 -0.051382 0.0
-0.104892 -0.069409 0.0
-0.048935 -0.048417 0.0
0.000000 0.074805 0.0
-0.000000 0.124751 0.0
0.000000 0.117277 0.0
0.152250 1.135664 0.0
0.311393 1.412897 0.0
0.295053 1.447695 0.0
0.244006 1.416533 0.0
0.191448 1.375125 0.0
0.145808 1.338989 0.0
0.106949 1.310844 0.0
0.072983 1.290416 0.0
0.042169 1.277243 0.0
0.013679 1.250954 0.0
-0.007833 1.328765 0.0
-0.024539 1.363491 0.0
-0.042706 1.390060 0.0
-0.061831 1.429242 0.0
-0.081926 1.476332 0.0
-0.102187 1.515301 0.0
-0.119890 1.507728 0.0
-0.128768 1.384845 0.0
-0.119421 1.054483 0.0
-0.100293 0.462443 0.0
-0.133534 0.020833 0.0
-0.180553 -0.071261 0.0
-0.164382 -0.120666 0.0
-0.071521 -0.071677 0.0
-0.023993 0.083009 0.0
-0.023993 0.039810 0.0
0.070907 0.989974 0.0
0.167043 1.380775 0.0
0.191529 1.471671 0.0
0.178612 1.456521 0.0
0.151130 1.415176 0.0
0.120613 1.375095 0.0
0.091079 1.343132 0.0
0.063269 1.319905 0.0
0.036892 1.304945 0.0
0.012001 1.276633 0.0
-0.004801 1.341400 0.0
-0.015409 1.378170 0.0
-0.027236 1.405374 0.0
-0.039601 1.445419 0.0
-0.052817 1.493467 0.0
-0.067397 1.533006 0.0
-0.083768 1.524097 0.0
-0.100352 1.393939 0.0
-0.111268 1.046958 0.0
-0.129860 0.469432 0.0
-0.182925 0.100150 0.0
-0.228250 -0.058234 0.0
-0.219883 -0.158231 0.0
-0.165368 -0.185591 0.0
-0.033128 -0.085745 0.0
0.025693 0.019432 0.0
0.023040 0.894440 0.0
0.077791 1.333269 0.0
0.109574 1.462908 0.0
0.117926 1.469849 0.0
0.109806 1.437451 0.0
0.093348 1.399795 0.0
0.073440 1.367873 0.0
0.052332 1.344081 0.0
0.030915 1.328562 0.0
0.010094 1.298728 0.0
-0.001631 1.347832 0.0
-0.005850 1.386566 0.0
-0.011023 1.413976 0.0
-0.016220 1.454378 0.0
-0.021781 1.503286 0.0
-0.028962 1.544947 0.0
-0.040815 1.540380 0.0
-0.061990 1.415415 0.0
-0.094040 1.068447 0.0
-0.145278 0.517772 0.0
-0.209650 0.169247 0.0
-0.245526 -0.046130 0.0
-0.232740 -0.191489 0.0
-0.181569 -0.258018 0.0
-0.114212 -0.212915 0.0
-0.090305 0.063873 0.0
-0.061387 0.823734 0.0
0.004064 1.283774 0.0
0.046769 1.437916 0.0
0.068447 1.464810 0.0
0.073986 1.445072 0.0
0.068600 1.414018 0.0
0.056927 1.385232 0.0
0.041892 1.362865 0.0
0.025143 1.347944 0.0
0.008244 1.317067 0.0
0.001572 1.347890 0.0
0.003861 1.388439 0.0
0.005489 1.415648 0.0
0.007656 1.455737 0.0
0.010300 1.504846 0.0
0.012276 1.548592 0.0
0.010111 1.550752 0.0
-0.004710 1.441040 0.0
-0.047998 1.118161 0.0
-0.126318 0.597616 0.0
-0.208825 0.236282 0.0
-0.255476 -0.030637 0.0
-0.260916 -0.214328 0.0
-0.242836 -0.304429 0.0
-0.222552 -0.254145 0.0
-0.201303 0.059947 0.0
-0.137086 0.734524 0.0
-0.052581 1.223027 0.0
0.001493 1.401884 0.0
0.032831 1.447825 0.0
0.047172 1.442177 0.0
0.049374 1.420097 0.0
0.043700 1.396500 0.0
0.033335 1.376997 0.0
0.020343 1.363552 0.0
0.006695 1.332005 0.0
0.004704 1.341614 0.0
0.013378 1.383753 0.0
0.021709 1.410374 0.0
0.031210 1.449343 0.0
0.042262 1.497543 0.0
0.054168 1.542013 0.0
0.063996 1.549668 0.0
0.063931 1.457010 0.0
0.036009 1.173400 0.0
-0.044697 0.701403 0.0
-0.147773 0.318078 0.0
-0.223869 0.010315 0.0
-0.263082 -0.210627 0.0
-0.278499 -0.310793 0.0
-0.285532 -0.261032 0.0
-0.264791 0.024844 0.0
-0.182064 0.622683 0.0
-0.084559 1.152857 0.0
-0.024622 1.358044 0.0
0.011940 1.423766 0.0
0.031001 1.432833 0.0
0.037328 1.420912 0.0
0.035083 1.403605 0.0
0.027569 1.387771 0.0
0.017031 1.376308 0.0
0.005614 1.344314 0.0
0.007643 1.329267 0.0
0.022317 1.372752 0.0
0.036970 1.398391 0.0
0.053428 1.435367 0.0
0.072560 1.481335 0.0
0.094212 1.524662 0.0
0.116125 1.535278 0.0
0.131436 1.456154 0.0
0.124197 1.209417 0.0
0.071982 0.798309 0.0
-0.019773 0.416002 0.0
-0.121597 0.090311 0.0
-0.203256 -0.169750 0.0
-0.255189 -0.284320 0.0
-0.284933 -0.250728 0.0
-0.274974 -0.016159 0.0
-0.191689 0.497674 0.0
-0.091237 1.079910 0.0
-0.031484 1.311301 0.0
0.005858 1.396606 0.0
0.025963 1.420826 0.0
0.033080 1.419474 0.0
0.031616 1.408752 0.0
0.024983 1.396771 0.0
0.015437 1.387392 0.0
0.005078 1.355007 0.0
0.010263 1.311361 0.0
0.030289 1.355958 0.0
0.050579 1.380243 0.0
0.073235 1.414401 0.0
0.099544 1.456860 0.0
0.129836 1.497193 0.0
0.162404 1.508267 0.0
0.191045 1.439213 0.0
0.200931 1.223711 0.0
0.171988 0.865172 0.0
0.106051 0.506832 0.0
0.019967 0.187388 0.0
-0.081792 -0.083410 0.0
-0.170657 -0.229862 0.0
-0.223219 -0.222881 0.0
-0.234014 -0.043170 0.0
-0.169487 0.376872 0.0
-0.078253 1.009027 0.0
-0.021410 1.265587 0.0
0.013798 1.369771 0.0
0.031646 1.409708 0.0
0.036367 1.418754 0.0
0.033119 1.414185 0.0
0.025455 1.405635 0.0
0.015488 1.398040 0.0
0.005060 1.365145 0.0
0.012449 1.288649 0.0
0.036935 1.334158 0.0
0.061909 1.356778 0.0
0.089675 1.387445 0.0
0.121832 1.425350 0.0
0.159063 1.461179 0.0
0.200080 1.470695 0.0
0.239177 1.409047 0.0
0.262679 1.220490 0.0
0.252372 0.907642 0.0
0.206201 0.576470 0.0
0.137363 0.272672 0.0
0.051680 0.018749 0.0
-0.038779 -0.152698 0.0
-0.110687 -0.175576 0.0
-0.147606 -0.042760 0.0
-0.120497 0.284827 0.0
-0.051836 0.941177 0.0
0.003097 1.221661 0.0
0.034903 1.346682 0.0
0.046880 1.402973 0.0
0.046064 1.421583 0.0
0.038688 1.421980 0.0
0.028352 1.415840 0.0
0.016811 1.409344 0.0
0.005438 1.375643 0.0
0.014103 1.262097 0.0
0.041958 1.308369 0.0
0.070455 1.329095 0.0
0.102019 1.355798 0.0
0.138447 1.388412 0.0
0.180659 1.418674 0.0
0.227702 1.425141 0.0
0.274445 1.368761 0.0
0.308683 1.203036 0.0
0.314489 0.929597 0.0
0.288164 0.627011 0.0
0.239362 0.339771 0.0
0.177866 0.098829 0.0
0.106752 -0.071206 0.0
0.034436 -0.112844 0.0
-0.024130 -0.010007 0.0
-0.045882 0.246716 0.0
-0.009668 0.874412 0.0
0.043229 1.180599 0.0
0.067409 1.331757 0.0
0.069173 1.404158 0.0
0.059927 1.430460 0.0
0.046620 1.433786 0.0
0.032529 1.428460 0.0
0.018752 1.422041 0.0
0.005995 1.387076 0.0
0.015153 1.232841 0.0
0.045142 1.279782 0.0
0.075860 1.298468 0.0
0.109788 1.320934 0.0
0.148811 1.347826 0.0
0.194004 1.371855 0.0
0.244735 1.374186 0.0
0.296622 1.321086 0.0
0.339262 1.173834 0.0
0.359350 0.932905 0.0
0.352945 0.656433 0.0
0.327126 0.384970 0.0
0.289602 0.152651 0.0
0.240407 -0.004718 0.0
0.181253 -0.047861 0.0
0.117225 0.047605 0.0
0.057187 0.270894 0.0
0.057547 0.813660 0.0
0.096367 1.149634 0.0
0.105208 1.329700 0.0
0.093536 1.416124 0.0
0.074278 1.446998 0.0
0.054396 1.450437 0.0
0.036392 1.443904 0.0
0.020433 1.436334 0.0
0.006451 1.399523 0.0
0.015554 1.202133 0.0
0.046352 1.249703 0.0
0.077915 1.266266 0.0
0.112723 1.284399 0.0
0.152659 1.305402 0.0
0.198900 1.322846 0.0
0.251153 1.320212 0.0
0.305952 1.268374 0.0
0.354931 1.134927 0.0
0.387582 0.919072 0.0
0.400645 0.663607 0.0
0.399148 0.405112 0.0
0.386872 0.182308 0.0
0.361654 0.040037 0.0
0.316418 0.011774 0.0
0.250892 0.117524 0.0
0.174971 0.336933 0.0
0.141804 0.780427 0.0
0.148269 1.137582 0.0
0.138111 1.343069 0.0
0.112830 1.439708 0.0
0.084345 1.471157 0.0
0.058982 1.471522 0.0
0.038125 1.461679 0.0
0.020890 1.451753 0.0
0.006501 1.412475 0.0
0.015283 1.171296 0.0
0.045525 1.219500 0.0
0.076534 1.233897 0.0
0.110745 1.247747 0.0
0.149958 1.262905 0.0
0.195410 1.273650 0.0
0.247182 1.265383 0.0
0.302852 1.212733 0.0
0.356239 1.088202 0.0
0.399861 0.889523 0.0
0.432043 0.647910 0.0
0.455777 0.398572 0.0
0.468963 0.187939 0.0
0.462077 0.066510 0.0
0.425653 0.066961 0.0
0.360018 0.193498 0.0
0.276457 0.420441 0.0
0.215280 0.791263 0.0
0.186375 1.149185 0.0
0.156505 1.371494 0.0
0.120003 1.473066 0.0
0.085481 1.500806 0.0
0.057542 1.495176 0.0
0.036096 1.480328 0.0
0.019280 1.467155 0.0
0.005883 1.424859 0.0
0.014339 1.141673 0.0
0.042664 1.190555 0.0
0.071737 1.202762 0.0
0.103917 1.212491 0.0
0.140841 1.222024 0.0
0.183772 1.226147 0.0
0.233183 1.211704 0.0
0.287813 1.156112 0.0
0.343809 1.035441 0.0
0.397396 0.845076 0.0
0.449228 0.608343 0.0
0.498085 0.365548 0.0
0.531769 0.174094 0.0
0.533462 0.085546 0.0
0.495631 0.122181 0.0
0.424639 0.274906 0.0
0.335031 0.512201 0.0
0.255111 0.840601 0.0
0.199306 1.184558 0.0
0.153097 1.412201 0.0
0.110012 1.511947 0.0
0.074560 1.531899 0.0
0.048291 1.518291 0.0
0.029323 1.497626 0.0
0.015114 1.480881 0.0
0.004451 1.435193 0.0
0.012741 1.114593 0.0
0.037828 1.164223 0.0
0.063637 1.174211 0.0
0.092421 1.180079 0.0
0.125579 1.184354 0.0
0.164365 1.182099 0.0
0.209642 1.161064 0.0
0.261410 1.100355 0.0
0.318627 0.977986 0.0
0.382829 0.784741 0.0
0.455603 0.544071 0.0
0.524803 0.311762 0.0
0.565766 0.153233 0.0
0.561367 0.109112 0.0
0.512972 0.184842 0.0
0.433948 0.362262 0.0
0.339923 0.608478 0.0
0.250432 0.913735 0.0
0.179239 1.238422 0.0
0.123931 1.459853 0.0
0.081172 1.550139 0.0
0.051118 1.559212 0.0
0.031172 1.537192 0.0
0.017803 1.511062 0.0
0.008408 1.491049 0.0
0.002227 1.441870 0.0
0.010521 1.091331 0.0
0.031122 1.141797 0.0
0.052427 1.149522 0.0
0.076543 1.151868 0.0
0.104577 1.151372 0.0
0.137741 1.143131 0.0
0.177259 1.115237 0.0
0.224436 1.047236 0.0
0.282924 0.915399 0.0
0.360987 0.705063 0.0
0.453382 0.458581 0.0
0.529711 0.251721 0.0
0.559874 0.142148 0.0
0.536976 0.147493 0.0
0.473683 0.258149 0.0
0.387316 0.454345 0.0
0.291711 0.706025 0.0
0.199892 0.997498 0.0
0.124022 1.301722 0.0
0.069840 1.506042 0.0
0.036360 1.580189 0.0
0.017931 1.577644 0.0
0.007987 1.548650 0.0
0.002498 1.518463 0.0
-0.000350 1.495891 0.0
-0.000619 1.443478 0.0
0.007725 1.073085 0.0
0.022699 1.124469 0.0
0.038369 1.129877 0.0
0.056650 1.129117 0.0
0.078355 1.124385 0.0
0.104709 1.110600 0.0
0.137247 1.075712 0.0
0.178477 0.998354 0.0
0.241360 0.842911 0.0
0.336569 0.604279 0.0
0.437515 0.366023 0.0
0.499298 0.206167 0.0
0.502588 0.154250 0.0
0.456648 0.204228 0.0
0.380768 0.340589 0.0
0.290764 0.548276 0.0
0.196927 0.801536 0.0
0.108372 1.082361 0.0
0.039073 1.362028 0.0
-0.000680 1.539671 0.0
-0.016400 1.595759 0.0
-0.019936 1.584039 0.0
-0.018505 1.550769 0.0
-0.015094 1.518421 0.0
-0.010438 1.494126 0.0
-0.003892 1.438967 0.0
0.004393 1.060967 0.0
0.012752 1.113253 0.0
0.021797 1.116378 0.0
0.033130 1.113001 0.0
0.047470 1.104456 0.0
0.066379 1.085266 0.0
0.091876 1.043011 0.0
0.127670 0.954031 0.0
0.199828 0.752192 0.0
0.307167 0.492449 0.0
0.393840 0.290234 0.0
0.422339 0.191674 0.0
0.394990 0.192803 0.0
0.330886 0.275719 0.0
0.247612 0.428252 0.0
0.157086 0.641143 0.0
0.068045 0.891548 0.0
-0.007537 1.156486 0.0
-0.055106 1.404770 0.0
-0.071996 1.553572 0.0
-0.069241 1.594824 0.0
-0.058478 1.577747 0.0
-0.045869 1.543020 0.0
-0.033453 1.510343 0.0
-0.021025 1.485120 0.0
-0.007337 1.427738 0.0
0.000577 1.055998 0.0
0.001552 1.108888 0.0
0.003137 1.110113 0.0
0.006367 1.104702 0.0
0.012379 1.092403 0.0
0.023926 1.066863 0.0
0.044499 1.015345 0.0
0.079790 0.910613 0.0
0.160168 0.643073 0.0
0.260050 0.394348 0.0
0.311020 0.250693 0.0
0.303223 0.210513 0.0
0.253417 0.251120 0.0
0.179390 0.355532 0.0
0.093589 0.517514 0.0
0.008421 0.727575 0.0
-0.063662 0.966241 0.0
-0.115257 1.208970 0.0
-0.139567 1.424167 0.0
-0.136675 1.548173 0.0
-0.118047 1.578840 0.0
-0.094726 1.559647 0.0
-0.072020 1.525806 0.0
-0.051201 1.494323 0.0
-0.031333 1.468844 0.0
-0.010704 1.409698 0.0
-0.003486 1.058907 0.0
-0.010400 1.111918 0.0
-0.017046 1.112144 0.0
-0.023019 1.105413 0.0
-0.026304 1.088964 0.0
-0.021911 1.054362 0.0
-0.002699 0.988062 0.0
0.039883 0.860022 0.0
0.116659 0.536510 0.0
0.183798 0.333891 0.0
0.194237 0.249740 0.0
0.160513 0.252987 0.0
0.099348 0.319618 0.0
0.024220 0.436189 0.0
-0.052308 0.599186 0.0
-0.120374 0.799137 0.0
-0.173290 1.019678 0.0
-0.204987 1.238824 0.0
-0.210129 1.423766 0.0
-0.191293 1.526846 0.0
-0.160011 1.550256 0.0
-0.126500 1.531398 0.0
-0.095336 1.500185 0.0
-0.067224 1.471013 0.0
-0.040709 1.445770 0.0
-0.013780 1.385214 0.0
-0.007469 1.069862 0.0
-0.022365 1.122773 0.0
-0.037727 1.123297 0.0
-0.053596 1.116102 0.0
-0.066796 1.094761 0.0
-0.069827 1.047203 0.0
-0.051346 0.957529 0.0
0.000048 0.796579 0.0
0.059081 0.464144 0.0
0.081210 0.316989 0.0
0.061197 0.276215 0.0
0.015081 0.306352 0.0
-0.044817 0.387314 0.0
-0.109491 0.508295 0.0
-0.171779 0.665896 0.0
-0.224470 0.853184 0.0
-0.260930 1.055007 0.0
-0.275626 1.249887 0.0
-0.265311 1.407530 0.0
-0.234285 1.493220 0.0
-0.193596 1.511911 0.0
-0.152434 1.495069 0.0
-0.114710 1.467626 0.0
-0.080714 1.441465 0.0
-0.048668 1.416757 0.0
-0.016402 1.355032 0.0
-0.011012 1.088343 0.0
-0.033292 1.141468 0.0
-0.057117 1.143789 0.0
-0.082712 1.137073 0.0
-0.105689 1.109967 0.0
-0.116365 1.045703 0.0
-0.101730 0.925915 0.0
-0.054213 0.729282 0.0
-0.021101 0.439296 0.0
-0.033664 0.332272 0.0
-0.067970 0.315252 0.0
-0.113853 0.359314 0.0
-0.165964 0.446361 0.0
-0.219269 0.567227 0.0
-0.268068 0.718051 0.0
-0.306089 0.891741 0.0
-0.327448 1.074270 0.0
-0.327620 1.245491 0.0
-0.305178 1.379170 0.0
-0.265342 1.450717 0.0
-0.218229 1.466611 0.0
-0.171858 1.452836 0.0
-0.129509 1.429786 0.0
-0.091167 1.406968 0.0
-0.054888 1.382928 0.0
-0.018461 1.320169 0.0
-0.013692 1.113047 0.0
-0.041837 1.167190 0.0
-0.072771 1.172828 0.0
-0.106764 1.167622 0.0
-0.138559 1.134190 0.0
-0.157262 1.050859 0.0
-0.151231 0.900094 0.0
-0.123704 0.680058 0.0
-0.117210 0.448914 0.0
-0.144803 0.362808 0.0
-0.181444 0.355663 0.0
-0.222271 0.405612 0.0
-0.265043 0.494947 0.0
-0.306548 0.613451 0.0
-0.342071 0.756150 0.0
-0.366209 0.915801 0.0
-0.374031 1.079391 0.0
-0.362184 1.228696 0.0
-0.330651 1.341991 0.0
-0.284952 1.402361 0.0
-0.234012 1.416914 0.0
-0.184630 1.406780 0.0
-0.139482 1.388344 0.0
-0.098333 1.368918 0.0
-0.059195 1.345561 0.0
-0.019897 1.281811 0.0
-0.015087 1.141825 0.0
-0.046601 1.198070 0.0
-0.082102 1.208382 0.0
-0.122035 1.205994 0.0
-0.161222 1.166800 0.0
-0.189070 1.064800 0.0
-0.197191 0.888242 0.0
-0.195289 0.662480 0.0
-0.210251 0.474961 0.0
-0.242918 0.397021 0.0
-0.277015 0.392188 0.0
-0.310361 0.443260 0.0
-0.342570 0.532280 0.0
-0.371931 0.646984 0.0
-0.394662 0.780871 0.0
-0.406123 0.926680 0.0
-0.402308 1.072517 0.0
-0.380976 1.202392 0.0
-0.343093 1.298879 0.0
-0.294045 1.350724 0.0
-0.241467 1.365033 0.0
-0.190965 1.358777 0.0
-0.144659 1.344894 0.0
-0.102161 1.328722 0.0
-0.061535 1.305994 0.0
-0.020685 1.241229 0.0
-0.014891 1.171803 0.0
-0.046534 1.231251 0.0
-0.083068 1.247235 0.0
-0.125463 1.249469 0.0
-0.170006 1.207053 0.0
-0.207864 1.090252 0.0
-0.233344 0.896391 0.0
-0.255305 0.674391 0.0
-0.286436 0.509145 0.0
-0.322136 0.431204 0.0
-0.353067 0.423032 0.0
-0.378478 0.471173 0.0
-0.399662 0.557760 0.0
-0.416792 0.667996 0.0
-0.427409 0.793206 0.0
-0.427650 0.926048 0.0
-0.414263 1.055946 0.0
-0.385885 1.169253 0.0
-0.344070 1.252320 0.0
-0.293774 1.297939 0.0
-0.241349 1.312815 0.0
-0.191301 1.310445 0.0
-0.145257 1.300877 0.0
-0.102739 1.287722 0.0
-0.061934 1.265561 0.0
-0.020833 1.199712 0.0
-0.013032 1.199725 0.0
-0.041319 1.263259 0.0
-0.074845 1.285287 0.0
-0.115319 1.294286 0.0
-0.161917 1.253376 0.0
-0.208805 1.128676 0.0
-0.251280 0.925922 0.0
-0.293187 0.708727 0.0
-0.337481 0.550234 0.0
-0.377733 0.466066 0.0
-0.407760 0.449128 0.0
-0.427057 0.489785 0.0
-0.438102 0.571377 0.0
-0.443375 0.676783 0.0
-0.442585 0.794245 0.0
-0.433040 0.915704 0.0
-0.412082 1.031945 0.0
-0.378877 1.131671 0.0
-0.335190 1.204399 0.0
-0.285358 1.245732 0.0
-0.234516 1.261755 0.0
-0.186194 1.263134 0.0
-0.141605 1.257556 0.0
-0.100244 1.247165 0.0
-0.060476 1.225545 0.0
-0.020364 1.158515 0.0
-0.009739 1.222497 0.0
-0.031588 1.290623 0.0
-0.058299 1.318161 0.0
-0.092019 1.335607 0.0
-0.135645 1.302278 0.0
-0.187697 1.178715 0.0
-0.243694 0.974356 0.0
-0.301430 0.759936 0.0
-0.357537 0.599427 0.0
-0.404998 0.504587 0.0
-0.438294 0.473931 0.0
-0.455786 0.501771 0.0
-0.459757 0.574408 0.0
-0.454618 0.673887 0.0
-0.443161 0.784895 0.0
-0.424914 0.897263 0.0
-0.398039 1.002554 0.0
-0.361873 1.091691 0.0
-0.318002 1.156821 0.0
-0.269990 1.195467 0.0
-0.221845 1.213033 0.0
-0.176251 1.217941 0.0
-0.134094 1.216003 0.0
-0.094903 1.208165 0.0
-0.057279 1.187152 0.0
-0.019317 1.118834 0.0
-0.005509 1.237745 0.0
-0.018797 1.310512 0.0
-0.035962 1.342149 0.0
-0.058757 1.368134 0.0
-0.093188 1.347806 0.0
-0.143458 1.235508 0.0
-0.206810 1.036912 0.0
-0.275933 0.824238 0.0
-0.342660 0.657958 0.0
-0.399473 0.550331 0.0
-0.440613 0.502623 0.0
-0.462467 0.512424 0.0
-0.465226 0.570484 0.0
-0.453396 0.660841 0.0
-0.432733 0.765819 0.0
-0.406397 0.871755 0.0
-0.374527 0.969317 0.0
-0.336705 1.050940 0.0
-0.293933 1.110928 0.0
-0.248779 1.148194 0.0
-0.204175 1.167558 0.0
-0.162086 1.175734 0.0
-0.123142 1.177108 0.0
-0.086974 1.171702 0.0
-0.052476 1.151492 0.0
-0.017731 1.081787 0.0
-0.000953 1.244207 0.0
-0.004743 1.321127 0.0
-0.011250 1.355204 0.0
-0.021093 1.387717 0.0
-0.040922 1.382484 0.0
-0.080425 1.290603 0.0
-0.142205 1.106949 0.0
-0.217072 0.898191 0.0
-0.292276 0.725935 0.0
-0.358884 0.605775 0.0
-0.410863 0.540298 0.0
-0.443007 0.528748 0.0
-0.452340 0.566254 0.0
-0.440750 0.641652 0.0
-0.414698 0.738292 0.0
-0.381229 0.839477 0.0
-0.344366 0.932862 0.0
-0.305234 1.010441 0.0
-0.264292 1.067713 0.0
-0.222727 1.104690 0.0
-0.182284 1.126016 0.0
-0.144288 1.137191 0.0
-0.109174 1.141593 0.0
-0.076723 1.138599 0.0
-0.046201 1.119574 0.0
-0.015648 1.048407 0.0
0.003537 1.241624 0.0
0.009168 1.321870 0.0
0.012922 1.357215 0.0
0.015318 1.393153 0.0
0.011610 1.400587 0.0
-0.009540 1.333153 0.0
-0.058546 1.175184 0.0
-0.130949 0.977227 0.0
-0.210717 0.801872 0.0
-0.285498 0.671228 0.0
-0.348444 0.589769 0.0
-0.393882 0.556860 0.0
-0.416499 0.570092 0.0
-0.414045 0.623770 0.0
-0.390066 0.706143 0.0
-0.352877 0.800968 0.0
-0.311060 0.892691 0.0
-0.269769 0.970190 0.0
-0.230449 1.027702 0.0
-0.192773 1.065460 0.0
-0.156871 1.088901 0.0
-0.123400 1.102839 0.0
-0.092604 1.110033 0.0
-0.064422 1.109526 0.0
-0.038581 1.092284 0.0
-0.013097 1.019661 0.0
0.007713 1.230374 0.0
0.022031 1.313169 0.0
0.034964 1.349229 0.0
0.047754 1.385952 0.0
0.057531 1.401719 0.0
0.054521 1.356180 0.0
0.026645 1.229039 0.0
-0.030900 1.053320 0.0
-0.107679 0.882325 0.0
-0.186902 0.744780 0.0
-0.258275 0.650535 0.0
-0.315952 0.599209 0.0
-0.354198 0.588606 0.0
-0.367801 0.616405 0.0
-0.355356 0.677083 0.0
-0.321956 0.759441 0.0
-0.277825 0.848270 0.0
-0.233345 0.928839 0.0
-0.194216 0.990603 0.0
-0.159942 1.030609 0.0
-0.128585 1.056491 0.0
-0.099890 1.073084 0.0
-0.073807 1.082909 0.0
-0.050342 1.085004 0.0
-0.029720 1.070343 0.0
-0.010083 0.996481 0.0
0.011376 1.211286 0.0
0.033245 1.296070 0.0
0.053948 1.332692 0.0
0.075092 1.368556 0.0
0.095318 1.389112 0.0
0.106511 1.360604 0.0
0.097127 1.261876 0.0
0.060588 1.114567 0.0
-0.000256 0.958700 0.0
-0.075047 0.822418 0.0
-0.150207 0.719429 0.0
-0.216109 0.653894 0.0
-0.267341 0.623398 0.0
-0.298296 0.626171 0.0
-0.304075 0.660652 0.0
-0.284047 0.722445 0.0
-0.244770 0.801858 0.0
-0.198701 0.884702 0.0
-0.158007 0.954918 0.0
-0.125562 0.999576 0.0
-0.098123 1.028727 0.0
-0.074158 1.048189 0.0
-0.053089 1.060651 0.0
-0.034752 1.065460 0.0
-0.019718 1.054232 0.0
-0.006581 0.979817 0.0
0.014409 1.185500 0.0
0.042472 1.271924 0.0
0.069404 1.309203 0.0
0.096907 1.343399 0.0
0.124748 1.366202 0.0
0.146485 1.350584 0.0
0.151623 1.276140 0.0
0.132761 1.155704 0.0
0.090518 1.020650 0.0
0.031148 0.894629 0.0
-0.037356 0.790883 0.0
-0.105260 0.716247 0.0
-0.163987 0.671004 0.0
-0.208099 0.653632 0.0
-0.232268 0.663138 0.0
-0.231843 0.699506 0.0
-0.206836 0.760514 0.0
-0.165569 0.838708 0.0
-0.123833 0.918481 0.0
-0.091221 0.970955 0.0
-0.066338 1.005027 0.0
-0.046604 1.028191 0.0
-0.030686 1.043662 0.0
-0.017911 1.051337 0.0
-0.008716 1.044128 0.0
-0.002584 0.970652 0.0
0.016761 1.154329 0.0
0.049585 1.242209 0.0
0.081209 1.280362 0.0
0.113264 1.312682 0.0
0.146290 1.336051 0.0
0.175436 1.329852 0.0
0.191595 1.275575 0.0
0.187212 1.179515 0.0
0.161137 1.065157 0.0
0.117597 0.953032 0.0
0.062852 0.855728 0.0
0.003146 0.779011 0.0
-0.055238 0.725350 0.0
-0.105804 0.693964 0.0
-0.142924 0.684095 0.0
-0.161298 0.696498 0.0
-0.156395 0.733612 0.0
-0.128928 0.796876 0.0
-0.091092 0.880744 0.0
-0.058006 0.942994 0.0
-0.034163 0.984263 0.0
-0.017728 1.012785 0.0
-0.006829 1.032251 0.0
-0.000014 1.043159 0.0
0.002970 1.040126 0.0
0.001712 0.969780 0.0
0.018429 1.119139 0.0
0.054594 1.208410 0.0
0.089459 1.247673 0.0
0.124507 1.278269 0.0
0.160762 1.301183 0.0
0.194784 1.301552 0.0
0.219018 1.263482 0.0
0.226273 1.188736 0.0
0.214182 1.094103 0.0
0.185174 0.996634 0.0
0.144009 0.908036 0.0
0.095870 0.834548 0.0
0.045548 0.778520 0.0
-0.002784 0.739692 0.0
-0.044880 0.717583 0.0
-0.075666 0.712170 0.0
-0.089462 0.726832 0.0
-0.081576 0.768302 0.0
-0.055401 0.845307 0.0
-0.025148 0.915091 0.0
-0.002087 0.965263 0.0
0.011883 1.001379 0.0
0.018116 1.026524 0.0
0.018728 1.041459 0.0
0.014949 1.042619 0.0
0.006001 0.977493 0.0
0.019433 1.081277 0.0
0.057586 1.171954 0.0
0.094357 1.212493 0.0
0.131092 1.241667 0.0
0.169064 1.263558 0.0
0.206003 1.268215 0.0
0.235898 1.242690 0.0
0.252266 1.185906 0.0
0.252023 1.109266 0.0
0.236129 1.026371 0.0
0.207932 0.947662 0.0
0.171554 0.879440 0.0
0.130940 0.824563 0.0
0.089463 0.783458 0.0
0.050051 0.755325 0.0
0.015729 0.739537 0.0
-0.009442 0.738431 0.0
-0.019794 0.759170 0.0
-0.010824 0.819295 0.0
0.010659 0.889367 0.0
0.030627 0.947959 0.0
0.041801 0.993538 0.0
0.043562 1.026372 0.0