# vtk DataFile Version 3.0
Vector Field
ASCII
DATASET RECTILINEAR_GRID
DIMENSIONS 26 100 1
X_COORDINATES 26 double
0.050000 0.150000 0.250000 0.350000 0.450000 0.550000 0.650000 0.750000 0.850000 0.950000 1.050000 1.150000 1.250000 1.350000 1.450000 1.550000 1.650000 1.750000 1.850000 1.950000 2.050000 2.150000 2.250000 2.350000 2.450000 2.550000 
Y_COORDINATES 100 double
0.050000 0.150000 0.250000 0.350000 0.450000 0.550000 0.650000 0.750000 0.850000 0.950000 1.050000 1.150000 1.250000 1.350000 1.450000 1.550000 1.650000 1.750000 1.850000 1.950000 2.050000 2.150000 2.250000 2.350000 2.450000 2.550000 2.650000 2.750000 2.850000 2.950000 3.050000 3.150000 3.250000 3.350000 3.450000 3.550000 3.650000 3.750000 3.850000 3.950000 4.050000 4.150000 4.250000 4.350000 4.450000 4.550000 4.650000 4.750000 4.850000 4.950000 5.050000 5.150000 5.250000 5.350000 5.450000 5.550000 5.650000 5.750000 5.850000 5.950000 6.050000 6.150000 6.250000 6.350000 6.450000 6.550000 6.650000 6.750000 6.850000 6.950000 7.050000 7.150000 7.250000 7.350000 7.450000 7.550000 7.650000 7.750000 7.850000 7.950000 8.050000 8.150000 8.250000 8.350000 8.450000 8.550000 8.650000 8.750000 8.850000 8.950000 9.050000 9.150000 9.250000 9.350000 9.450000 9.550000 9.650000 9.750000 9.850000 9.950000 
Z_COORDINATES 1 double
0.0
POINT_DATA 2600
VECTORS Vektorfeld double
-0.000838 1.000838 0.0
-0.003064 1.001389 0.0
-0.005734 1.001280 0.0
-0.008250 1.001236 0.0
-0.010657 1.001172 0.0
-0.012869 1.001040 0.0
-0.014709 1.000799 0.0
-0.015929 1.000421 0.0
-0.016255 0.999906 0.0
-0.015470 0.999309 0.0
-0.013518 0.998739 0.0
-0.010576 0.998319 0.0
-0.007028 0.998133 0.0
-0.003349 0.998187 0.0
0.000045 0.998419 0.0
0.002875 0.998751 0.0
0.004987 0.999137 0.0
0.006333 0.999517 0.0
0.006963 0.999853 0.0
0.006980 1.000129 0.0
0.006508 1.000343 0.0
0.005664 1.000502 0.0
0.004542 1.000620 0.0
0.003197 1.000724 0.0
0.001592 1.000881 0.0
0.000356 1.000356 0.0
-0.002950 1.004626 0.0
-0.009710 1.006587 0.0
-0.017274 1.006315 0.0
-0.024727 1.006170 0.0
-0.031968 1.005887 0.0
-0.038683 1.005252 0.0
-0.044313 1.004057 0.0
-0.048076 1.002146 0.0
-0.049091 0.999521 0.0
-0.046643 0.996460 0.0
-0.040536 0.993529 0.0
-0.031343 0.991394 0.0
-0.020314 0.990483 0.0
-0.008966 0.990809 0.0
0.001412 0.992025 0.0
0.009969 0.993758 0.0
0.016253 0.995734 0.0
0.020168 0.997659 0.0
0.021897 0.999352 0.0
0.021778 1.000732 0.0
0.020197 1.001793 0.0
0.017519 1.002574 0.0
0.014046 1.003144 0.0
0.009995 1.003596 0.0
0.005495 1.004114 0.0
0.001571 1.002282 0.0
-0.005193 1.012769 0.0
-0.016546 1.016558 0.0
-0.028924 1.016286 0.0
-0.041377 1.016105 0.0
-0.053703 1.015518 0.0
-0.065366 1.013998 0.0
-0.075390 1.010966 0.0
-0.082340 1.005950 0.0
-0.084501 0.998894 0.0
-0.080383 0.990522 0.0
-0.069474 0.982451 0.0
-0.052839 0.976643 0.0
-0.032961 0.974328 0.0
-0.012789 0.975444 0.0
0.005329 0.978894 0.0
0.019954 0.983707 0.0
0.030394 0.989060 0.0
0.036622 0.994191 0.0
0.039070 0.998644 0.0
0.038397 1.002232 0.0
0.035310 1.004960 0.0
0.030455 1.006941 0.0
0.024360 1.008346 0.0
0.017422 1.009382 0.0
0.009923 1.010328 0.0
0.003031 1.006884 0.0
-0.007446 1.025407 0.0
-0.023376 1.031203 0.0
-0.040570 1.031214 0.0
-0.058212 1.031273 0.0
-0.076103 1.030568 0.0
-0.093562 1.028071 0.0
-0.109192 1.022547 0.0
-0.120726 1.012853 0.0
-0.125187 0.998613 0.0
-0.119662 0.981160 0.0
-0.102815 0.964056 0.0
-0.076374 0.951962 0.0
-0.044924 0.947682 0.0
-0.013736 0.950730 0.0
0.013466 0.958288 0.0
0.034700 0.968455 0.0
0.049195 0.979377 0.0
0.057246 0.989596 0.0
0.059737 0.998298 0.0
0.057795 1.005192 0.0
0.052541 1.010341 0.0
0.044948 1.014007 0.0
0.035787 1.016536 0.0
0.025621 1.018295 0.0
0.014848 1.019687 0.0
0.004675 1.014591 0.0
-0.009614 1.042467 0.0
-0.029965 1.050424 0.0
-0.051925 1.051147 0.0
-0.074959 1.052013 0.0
-0.099050 1.051809 0.0
-0.123559 1.048799 0.0
-0.146784 1.040674 0.0
-0.165483 1.024958 0.0
-0.174724 1.000208 0.0
-0.168825 0.968141 0.0
-0.144263 0.935666 0.0
-0.103640 0.913287 0.0
-0.055729 0.906996 0.0
-0.009898 0.914396 0.0
0.028323 0.929199 0.0
0.056669 0.947964 0.0
0.074798 0.967242 0.0
0.083750 0.984729 0.0
0.085174 0.999249 0.0
0.080869 1.010488 0.0
0.072482 1.018687 0.0
0.061363 1.024373 0.0
0.048526 1.028169 0.0
0.034674 1.030680 0.0
0.020270 1.032479 0.0
0.006488 1.025754 0.0
-0.011577 1.063658 0.0
-0.035970 1.073978 0.0
-0.062445 1.076028 0.0
-0.090916 1.078636 0.0
-0.121812 1.080173 0.0
-0.154913 1.078045 0.0
-0.188634 1.068374 0.0
-0.218925 1.046247 0.0
-0.238082 1.007318 0.0
-0.234960 0.952011 0.0
-0.200084 0.892359 0.0
-0.136860 0.852746 0.0
-0.063670 0.846435 0.0
0.002278 0.863177 0.0
0.053757 0.890718 0.0
0.089190 0.922666 0.0
0.109797 0.953804 0.0
0.118000 0.981014 0.0
0.116623 1.002917 0.0
0.108373 1.019376 0.0
0.095542 1.031017 0.0
0.079884 1.038818 0.0
0.062629 1.043816 0.0
0.044564 1.046949 0.0
0.026149 1.049028 0.0
0.008448 1.040689 0.0
-0.013177 1.088411 0.0
-0.040910 1.101352 0.0
-0.071287 1.105506 0.0
-0.104824 1.111165 0.0
-0.142730 1.116446 0.0
-0.185845 1.117988 0.0
-0.233753 1.110059 0.0
-0.282787 1.083887 0.0
-0.322381 1.028429 0.0
-0.331024 0.936421 0.0
-0.282340 0.824389 0.0
-0.178601 0.753754 0.0
-0.063457 0.757094 0.0
0.029450 0.793664 0.0
0.095475 0.842728 0.0
0.136635 0.894063 0.0
0.157218 0.941216 0.0
0.161904 0.980713 0.0
0.155142 1.011356 0.0
0.140781 1.033549 0.0
0.121830 1.048627 0.0
0.100425 1.058271 0.0
0.077932 1.064111 0.0
0.055125 1.067527 0.0
0.032365 1.069625 0.0
0.010511 1.059648 0.0
-0.014235 1.115823 0.0
-0.044210 1.131648 0.0
-0.077352 1.138727 0.0
-0.114818 1.148948 0.0
-0.158831 1.160583 0.0
-0.211962 1.170098 0.0
-0.276585 1.170480 0.0
-0.352795 1.148711 0.0
-0.431669 1.082074 0.0
-0.477024 0.936774 0.0
-0.415420 0.713746 0.0
-0.231574 0.576812 0.0
-0.040526 0.627844 0.0
0.084501 0.704980 0.0
0.162196 0.787692 0.0
0.204448 0.865687 0.0
0.220282 0.933175 0.0
0.217125 0.987226 0.0
0.201335 1.027394 0.0
0.178045 1.055163 0.0
0.150971 1.073038 0.0
0.122504 1.083733 0.0
0.093980 1.089667 0.0
0.065998 1.092760 0.0
0.038690 1.094459 0.0
0.012599 1.082759 0.0
-0.014589 1.144647 0.0
-0.045331 1.163541 0.0
-0.079527 1.174173 0.0
-0.118838 1.190281 0.0
-0.166692 1.211117 0.0
-0.228976 1.234978 0.0
-0.316624 1.257871 0.0
-0.447945 1.268851 0.0
-0.640777 1.233640 0.0
-0.850785 1.040571 0.0
-0.729965 0.427526 0.0
-0.276249 0.225471 0.0
0.047201 0.464688 0.0
0.185816 0.604493 0.0
0.263411 0.732888 0.0
0.297762 0.843889 0.0
0.301589 0.935313 0.0
0.284514 1.005320 0.0
0.254899 1.054704 0.0
0.219262 1.086779 0.0
0.181881 1.105876 0.0
0.145108 1.116136 0.0
0.109949 1.120946 0.0
0.076593 1.122818 0.0
0.044769 1.123532 0.0
0.014593 1.109952 0.0
-0.014157 1.173393 0.0
-0.043966 1.195345 0.0
-0.077031 1.209631 0.0
-0.114809 1.231912 0.0
-0.160103 1.262633 0.0
-0.216328 1.301971 0.0
-0.284926 1.347124 0.0
-0.355409 1.381402 0.0
-0.384923 1.343435 0.0
-0.190628 1.051569 0.0
0.254630 0.190661 0.0
0.254630 0.124907 0.0
0.169869 0.202280 0.0
0.371751 0.520963 0.0
0.415531 0.695043 0.0
0.423656 0.839258 0.0
0.403798 0.955974 0.0
0.363962 1.041570 0.0
0.314171 1.097860 0.0
0.262251 1.131181 0.0
0.212494 1.148612 0.0
0.166557 1.156110 0.0
0.124603 1.158084 0.0
0.086077 1.157563 0.0
0.050123 1.156568 0.0
0.016335 1.140880 0.0
-0.012993 1.200544 0.0
-0.040293 1.225303 0.0
-0.070229 1.242675 0.0
-0.103538 1.269955 0.0
-0.141559 1.307904 0.0
-0.184430 1.355797 0.0
-0.227359 1.404824 0.0
-0.253412 1.420239 0.0
-0.227685 1.308385 0.0
-0.098150 0.878495 0.0
0.000000 0.074956 0.0
-0.000000 0.213675 0.0
0.000000 0.135787 0.0
0.240274 0.262161 0.0
0.517568 0.646257 0.0
0.550391 0.847095 0.0
0.517478 1.000908 0.0
0.450626 1.103324 0.0
0.374645 1.161878 0.0
0.302878 1.190850 0.0
0.239495 1.202083 0.0
0.184445 1.203628 0.0
0.136311 1.200654 0.0
0.093423 1.196405 0.0
0.054186 1.192917 0.0
0.017644 1.174859 0.0
-0.011280 1.224817 0.0
-0.034921 1.251970 0.0
-0.060398 1.271421 0.0
-0.087633 1.301753 0.0
-0.116709 1.343202 0.0
-0.146007 1.392669 0.0
-0.169801 1.434674 0.0
-0.176022 1.422664 0.0
-0.149107 1.253317 0.0
-0.085763 0.751310 0.0
-0.023052 -0.043441 0.0
0.000000 0.082467 0.0
-0.000000 0.202304 0.0
0.000000 0.108816 0.0
0.297232 0.329693 0.0
0.622467 0.823287 0.0
0.615372 1.064726 0.0
0.527100 1.194630 0.0
0.424276 1.249377 0.0
0.333224 1.266169 0.0
0.257895 1.265475 0.0
0.195699 1.257481 0.0
0.143211 1.247424 0.0
0.097539 1.238195 0.0
0.056384 1.231519 0.0
0.018340 1.210843 0.0
-0.009265 1.245362 0.0
-0.028648 1.274449 0.0
-0.049100 1.294870 0.0
-0.069857 1.326295 0.0
-0.090204 1.368083 0.0
-0.107938 1.414819 0.0
-0.118338 1.446718 0.0
-0.114599 1.413103 0.0
-0.092279 1.213642 0.0
-0.060692 0.696055 0.0
-0.055294 -0.055433 0.0
-0.032746 -0.032005 0.0
0.000000 0.077539 0.0
-0.000000 0.165191 0.0
0.000000 0.073443 0.0
0.359614 0.460743 0.0
0.679436 1.139617 0.0
0.570481 1.316964 0.0
0.444116 1.356233 0.0
0.342109 1.352372 0.0
0.261770 1.334940 0.0
0.197209 1.314774 0.0
0.143629 1.296199 0.0
0.097515 1.281206 0.0
0.056259 1.270919 0.0
0.018281 1.247465 0.0
-0.007193 1.261820 0.0
-0.022249 1.292431 0.0
-0.037751 1.312842 0.0
-0.052432 1.343762 0.0
-0.065128 1.383659 0.0
-0.073531 1.425379 0.0
-0.073987 1.447014 0.0
-0.062856 1.397936 0.0
-0.041325 1.184959 0.0
-0.013990 0.665817 0.0
-0.045419 0.000836 0.0
-0.075785 -0.077992 0.0
-0.030040 -0.031491 0.0
0.000000 0.070584 0.0
-0.000000 0.117264 0.0
0.000000 0.093535 0.0
0.167711 1.074801 0.0
0.355927 1.365621 0.0
0.356389 1.433479 0.0
0.305283 1.428238 0.0
0.243797 1.400899 0.0
0.186615 1.370558 0.0
0.136654 1.343956 0.0
0.092922 1.323295 0.0
0.053601 1.309408 0.0
0.017404 1.283150 0.0
-0.005276 1.274289 0.0
-0.016367 1.306109 0.0
-0.027462 1.325760 0.0
-0.036961 1.355025 0.0
-0.043455 1.391586 0.0
-0.044685 1.427085 0.0
-0.037761 1.438840 0.0
-0.020802 1.378019 0.0
0.007120 1.155423 0.0
0.045450 0.629687 0.0
0.032644 0.081201 0.0
-0.002869 -0.092478 0.0
0.017651 -0.079792 0.0
0.019694 0.014429 0.0
-0.119240 0.067206 0.0
-0.119240 0.021258 0.0
0.103415 0.875952 0.0
0.244170 1.307775 0.0
0.279348 1.455685 0.0
0.257507 1.478979 0.0
0.213798 1.455353 0.0
0.166799 1.420286 0.0
0.123217 1.387772 0.0
0.084095 1.362332 0.0
0.048532 1.345254 0.0
0.015739 1.316293 0.0
-0.003670 1.283235 0.0
-0.011472 1.316056 0.0
-0.019012 1.334448 0.0
-0.024501 1.361324 0.0
-0.026404 1.393683 0.0
-0.022511 1.422326 0.0
-0.010336 1.424501 0.0
0.012528 1.352535 0.0
0.047316 1.118198 0.0
0.097402 0.578496 0.0
0.126411 0.116189 0.0
0.130287 -0.095830 0.0
0.154888 -0.121561 0.0
0.215560 -0.004827 0.0
0.242744 0.010078 0.0
0.160888 0.050049 0.0
0.136523 0.737678 0.0
0.205458 1.245534 0.0
0.229347 1.458859 0.0
0.213460 1.513532 0.0
0.179365 1.498603 0.0
0.141179 1.462220 0.0
0.104867 1.425732 0.0
0.071764 1.396598 0.0
0.041390 1.376925 0.0
0.013386 1.345419 0.0
-0.002475 1.289381 0.0
-0.007855 1.323093 0.0
-0.012876 1.339972 0.0
-0.015671 1.364084 0.0
-0.014637 1.391791 0.0
-0.007534 1.413223 0.0
0.008312 1.405583 0.0
0.035595 1.321307 0.0
0.075638 1.074596 0.0
0.135168 0.512482 0.0
0.190286 0.098076 0.0
0.225152 -0.116459 0.0
0.259002 -0.159382 0.0
0.297163 -0.065838 0.0
0.299351 0.041715 0.0
0.223321 0.176296 0.0
0.172591 0.686526 0.0
0.188498 1.211844 0.0
0.191215 1.465942 0.0
0.171373 1.542178 0.0
0.141960 1.533466 0.0
0.111358 1.496143 0.0
0.082762 1.456717 0.0
0.056665 1.424812 0.0
0.032576 1.403174 0.0
0.010473 1.369278 0.0
-0.001731 1.293587 0.0
-0.005643 1.328178 0.0
-0.009256 1.343521 0.0
-0.010733 1.364808 0.0
-0.008422 1.387721 0.0
0.000102 1.401666 0.0
0.017808 1.383588 0.0
0.047732 1.286094 0.0
0.092123 1.025375 0.0
0.157437 0.436859 0.0
0.227020 0.048998 0.0
0.280178 -0.155406 0.0
0.320286 -0.194394 0.0
0.346071 -0.094772 0.0
0.336145 0.078386 0.0
0.268190 0.283610 0.0
0.198238 0.699895 0.0
0.169943 1.210862 0.0
0.150029 1.484121 0.0
0.124947 1.568923 0.0
0.100105 1.560977 0.0
0.077691 1.521648 0.0
0.057660 1.479840 0.0
0.039452 1.445994 0.0
0.022500 1.423033 0.0
0.007136 1.386888 0.0
-0.001425 1.296743 0.0
-0.004791 1.332299 0.0
-0.008091 1.346313 0.0
-0.009627 1.365030 0.0
-0.007734 1.383295 0.0
0.000335 1.389498 0.0
0.018031 1.360354 0.0
0.048957 1.248478 0.0
0.097850 0.969708 0.0
0.167559 0.357502 0.0
0.240006 -0.013674 0.0
0.295849 -0.201734 0.0
0.334178 -0.226502 0.0
0.353829 -0.108100 0.0
0.338529 0.116941 0.0
0.272604 0.378935 0.0
0.189324 0.757802 0.0
0.130201 1.240374 0.0
0.093574 1.511151 0.0
0.069058 1.591492 0.0
0.052793 1.579515 0.0
0.040713 1.537604 0.0
0.030405 1.494223 0.0
0.020832 1.459391 0.0
0.011612 1.435807 0.0
0.003533 1.397557 0.0
-0.001480 1.299648 0.0
-0.005081 1.336362 0.0
-0.009036 1.349504 0.0
-0.011929 1.366268 0.0
-0.012189 1.380424 0.0
-0.006677 1.378788 0.0
0.009030 1.337662 0.0
0.039150 1.210125 0.0
0.091688 0.906630 0.0
0.162256 0.280303 0.0
0.225410 -0.072076 0.0
0.268801 -0.242566 0.0
0.294198 -0.249397 0.0
0.299878 -0.110536 0.0
0.274121 0.160434 0.0
0.208132 0.467355 0.0
0.121532 0.839262 0.0
0.051678 1.287891 0.0
0.016383 1.535555 0.0
0.004521 1.603465 0.0
0.002049 1.586278 0.0
0.002170 1.542799 0.0
0.002277 1.499230 0.0
0.001668 1.464566 0.0
0.000438 1.441082 0.0
-0.000145 1.400944 0.0
-0.001755 1.302883 0.0
-0.006095 1.341070 0.0
-0.011398 1.354053 0.0
-0.016703 1.369917 0.0
-0.020776 1.381109 0.0
-0.020305 1.372120 0.0
-0.009142 1.317459 0.0
0.018238 1.172828 0.0
0.070685 0.838941 0.0
0.132206 0.215902 0.0
0.174199 -0.112822 0.0
0.195156 -0.266167 0.0
0.197409 -0.253446 0.0
0.175184 -0.089942 0.0
0.131538 0.209243 0.0
0.068419 0.547654 0.0
-0.006794 0.920776 0.0
-0.057147 1.326583 0.0
-0.068820 1.543832 0.0
-0.061370 1.599601 0.0
-0.048303 1.579549 0.0
-0.035641 1.536744 0.0
-0.025206 1.494743 0.0
-0.017045 1.461500 0.0
-0.010457 1.438790 0.0
-0.003718 1.397081 0.0
-0.002051 1.306688 0.0
-0.007221 1.346775 0.0
-0.014095 1.360524 0.0
-0.022328 1.376983 0.0
-0.031378 1.387166 0.0
-0.038341 1.372555 0.0
-0.036132 1.303652 0.0
-0.014347 1.137470 0.0
0.032587 0.774919 0.0
0.072824 0.178166 0.0
0.084741 -0.128996 0.0
0.078883 -0.265093 0.0
0.052953 -0.230843 0.0
0.006317 -0.043684 0.0
-0.046142 0.259090 0.0
-0.095652 0.610435 0.0
-0.141485 0.979041 0.0
-0.161809 1.338996 0.0
-0.149336 1.530618 0.0
-0.122751 1.578779 0.0
-0.094850 1.559403 0.0
-0.070479 1.519856 0.0
-0.050515 1.481233 0.0
-0.034293 1.450628 0.0
-0.020505 1.429286 0.0
-0.007011 1.386352 0.0
-0.002131 1.310870 0.0
-0.007710 1.353342 0.0
-0.015724 1.368845 0.0
-0.026476 1.387647 0.0
-0.040431 1.399508 0.0
-0.055842 1.382587 0.0
-0.066152 1.301720 0.0
-0.058245 1.109710 0.0
-0.025247 0.722748 0.0
-0.012135 0.176988 0.0
-0.033499 -0.118371 0.0
-0.063589 -0.239769 0.0
-0.104876 -0.188950 0.0
-0.153124 0.009308 0.0
-0.198508 0.303941 0.0
-0.233917 0.650504 0.0
-0.255194 1.006083 0.0
-0.249553 1.326636 0.0
-0.216795 1.497747 0.0
-0.174498 1.542768 0.0
-0.134342 1.527357 0.0
-0.100205 1.493395 0.0
-0.072218 1.459743 0.0
-0.049141 1.432819 0.0
-0.029178 1.413343 0.0
-0.009858 1.369482 0.0
-0.001776 1.314777 0.0
-0.006841 1.360080 0.0
-0.014848 1.378128 0.0
-0.026562 1.400829 0.0
-0.043473 1.417191 0.0
-0.065514 1.402357 0.0
-0.087933 1.314679 0.0
-0.098595 1.099507 0.0
-0.093594 0.694952 0.0
-0.110380 0.208457 0.0
-0.154435 -0.084422 0.0
-0.198415 -0.199649 0.0
-0.242311 -0.143888 0.0
-0.283002 0.053185 0.0
-0.316141 0.338587 0.0
-0.336828 0.671954 0.0
-0.338518 1.007599 0.0
-0.313581 1.294541 0.0
-0.266391 1.449895 0.0
-0.213185 1.495117 0.0
-0.164382 1.486048 0.0
-0.123161 1.459347 0.0
-0.089179 1.431821 0.0
-0.060844 1.409330 0.0
-0.036048 1.392073 0.0
-0.012120 1.347504 0.0
-0.000854 1.317407 0.0
-0.004136 1.365797 0.0
-0.010468 1.386751 0.0
-0.020693 1.414146 0.0
-0.036904 1.436996 0.0
-0.060825 1.428514 0.0
-0.090937 1.341053 0.0
-0.119315 1.112173 0.0
-0.145409 0.703379 0.0
-0.190323 0.261732 0.0
-0.251736 -0.032229 0.0
-0.305760 -0.153838 0.0
-0.347743 -0.103819 0.0
-0.378036 0.084100 0.0
-0.397012 0.359785 0.0
-0.402921 0.677353 0.0
-0.389515 0.990484 0.0
-0.351894 1.249098 0.0
-0.296333 1.392587 0.0
-0.237230 1.440115 0.0
-0.183689 1.438706 0.0
-0.138367 1.420147 0.0
-0.100681 1.399353 0.0
-0.068909 1.381691 0.0
-0.040829 1.366837 0.0
-0.013700 1.321684 0.0
0.000660 1.317600 0.0
0.000499 1.369047 0.0
-0.002438 1.392770 0.0
-0.008622 1.424535 0.0
-0.019949 1.454144 0.0
-0.039285 1.454621 0.0
-0.069194 1.374966 0.0
-0.108821 1.146265 0.0
-0.159389 0.745950 0.0
-0.227106 0.331793 0.0
-0.304131 0.036148 0.0
-0.370453 -0.101869 0.0
-0.415073 -0.069184 0.0
-0.437365 0.102051 0.0
-0.442713 0.366158 0.0
-0.434778 0.668954 0.0
-0.410221 0.960919 0.0
-0.365619 1.196439 0.0
-0.307063 1.331130 0.0
-0.246641 1.382046 0.0
-0.192062 1.388655 0.0
-0.145548 1.378361 0.0
-0.106461 1.364365 0.0
-0.073128 1.351574 0.0
-0.043388 1.339134 0.0
-0.014556 1.293427 0.0
0.002694 1.314246 0.0
0.006772 1.368485 0.0
0.008563 1.394477 0.0
0.008181 1.429395 0.0
0.004581 1.464213 0.0
-0.004736 1.473204 0.0
-0.024804 1.406361 0.0
-0.063496 1.193189 0.0
-0.127407 0.813504 0.0
-0.212345 0.416894 0.0
-0.303362 0.119090 0.0
-0.385356 -0.036496 0.0
-0.441309 -0.033985 0.0
-0.462657 0.110490 0.0
-0.457736 0.358147 0.0
-0.437384 0.648678 0.0
-0.404715 0.923970 0.0
-0.357668 1.141739 0.0
-0.300504 1.270110 0.0
-0.242594 1.324735 0.0
-0.190164 1.338958 0.0
-0.145050 1.336432 0.0
-0.106681 1.328839 0.0
-0.073566 1.320652 0.0
-0.043747 1.310496 0.0
-0.014692 1.264178 0.0
0.005069 1.306483 0.0
0.014095 1.363144 0.0
0.021376 1.390745 0.0
0.027615 1.427271 0.0
0.032594 1.464956 0.0
0.034610 1.479762 0.0
0.029241 1.425242 0.0
0.005550 1.236690 0.0
-0.055402 0.894867 0.0
-0.151963 0.517031 0.0
-0.258656 0.216662 0.0
-0.355545 0.044814 0.0
-0.426265 0.011378 0.0
-0.456670 0.116881 0.0
-0.448101 0.338266 0.0
-0.417385 0.617489 0.0
-0.378127 0.883231 0.0
-0.331805 1.089109 0.0
-0.279429 1.213201 0.0
-0.227010 1.271315 0.0
-0.179266 1.292203 0.0
-0.137685 1.296492 0.0
-0.101841 1.294565 0.0
-0.070516 1.290486 0.0
-0.042059 1.282386 0.0
-0.014155 1.235330 0.0
0.007579 1.293835 0.0
0.021805 1.352541 0.0
0.034770 1.381101 0.0
0.047659 1.417788 0.0
0.060914 1.456205 0.0
0.073324 1.474087 0.0
0.080690 1.428920 0.0
0.072641 1.264751 0.0
0.030328 0.970072 0.0
-0.060242 0.628957 0.0
-0.178947 0.330133 0.0
-0.291791 0.141076 0.0
-0.378828 0.072872 0.0
-0.423739 0.130704 0.0
-0.419989 0.312124 0.0
-0.382424 0.575351 0.0
-0.336348 0.840036 0.0
-0.292093 1.041728 0.0
-0.247031 1.163145 0.0
-0.202231 1.224153 0.0
-0.161016 1.250405 0.0
-0.124576 1.260270 0.0
-0.092682 1.263049 0.0
-0.064441 1.262435 0.0
-0.038576 1.256115 0.0
-0.013026 1.208149 0.0
0.010029 1.276227 0.0
0.029296 1.336656 0.0
0.047661 1.365656 0.0
0.066644 1.401360 0.0
0.087134 1.438888 0.0
0.108144 1.457984 0.0
0.125382 1.420419 0.0
0.128407 1.278275 0.0
0.101101 1.026166 0.0
0.031135 0.733399 0.0
-0.079694 0.455225 0.0
-0.202373 0.251508 0.0
-0.304184 0.151289 0.0
-0.367109 0.160123 0.0
-0.377128 0.288974 0.0
-0.339596 0.523405 0.0
-0.286056 0.792364 0.0
-0.242856 1.001945 0.0
-0.206749 1.121758 0.0
-0.170820 1.184811 0.0
-0.137250 1.214961 0.0
-0.107008 1.229033 0.0
-0.080080 1.235463 0.0
-0.055906 1.237607 0.0
-0.033615 1.232787 0.0
-0.011406 1.183717 0.0
0.012263 1.253934 0.0
0.036093 1.315852 0.0
0.059235 1.344954 0.0
0.083405 1.378908 0.0
0.109759 1.414496 0.0
0.137390 1.433735 0.0
0.161881 1.402941 0.0
0.172912 1.281698 0.0
0.155963 1.066998 0.0
0.102836 0.815660 0.0
0.013402 0.573228 0.0
-0.101021 0.370607 0.0
-0.211263 0.244243 0.0
-0.290300 0.209131 0.0
-0.320104 0.279789 0.0
-0.292940 0.467893 0.0
-0.234181 0.735577 0.0
-0.189373 0.970725 0.0
-0.162281 1.089778 0.0
-0.135409 1.153990 0.0
-0.109826 1.186627 0.0
-0.086291 1.203590 0.0
-0.064947 1.212634 0.0
-0.045518 1.216834 0.0
-0.027523 1.213273 0.0
-0.009406 1.162905 0.0
0.014171 1.227500 0.0
0.041866 1.290762 0.0
0.068967 1.319801 0.0
0.097262 1.351595 0.0
0.128054 1.384664 0.0
0.160490 1.403499 0.0
0.190167 1.379010 0.0
0.207286 1.277479 0.0
0.198943 1.096508 0.0
0.158336 0.879883 0.0
0.088247 0.668528 0.0
-0.006266 0.484242 0.0
-0.110894 0.345480 0.0
-0.199827 0.275864 0.0
-0.249349 0.292382 0.0
-0.242141 0.420928 0.0
-0.186132 0.667773 0.0
-0.138398 0.945988 0.0
-0.117434 1.066459 0.0
-0.098444 1.131448 0.0
-0.080408 1.165550 0.0
-0.063604 1.184330 0.0
-0.048132 1.195078 0.0
-0.033862 1.200692 0.0
-0.020642 1.198200 0.0
-0.007140 1.146359 0.0
0.015687 1.197642 0.0
0.046429 1.262182 0.0
0.076578 1.291131 0.0
0.107917 1.320631 0.0
0.141817 1.350937 0.0
0.177509 1.369098 0.0
0.210802 1.350441 0.0
0.232737 1.266994 0.0
0.232036 1.116037 0.0
0.202681 0.930317 0.0
0.147060 0.743804 0.0
0.071881 0.578657 0.0
-0.016649 0.444222 0.0
-0.104536 0.353942 0.0
-0.168361 0.327652 0.0
-0.184968 0.395057 0.0
-0.143839 0.596506 0.0
-0.095880 0.921563 0.0
-0.075280 1.049320 0.0
-0.061722 1.116039 0.0
-0.050193 1.151392 0.0
-0.039856 1.171347 0.0
-0.030352 1.183084 0.0
-0.021470 1.189533 0.0
-0.013295 1.187964 0.0
-0.004711 1.134508 0.0
0.016781 1.165174 0.0
0.049704 1.230986 0.0
0.081978 1.259905 0.0
0.115332 1.287164 0.0
0.151161 1.314674 0.0
0.188826 1.332003 0.0
0.224505 1.318564 0.0
0.250251 1.251190 0.0
0.256326 1.126466 0.0
0.237262 0.968307 0.0
0.194498 0.804199 0.0
0.133752 0.654187 0.0
0.061823 0.529151 0.0
-0.015007 0.433730 0.0
-0.083624 0.380305 0.0
-0.121211 0.396597 0.0
-0.104969 0.537596 0.0
-0.062611 0.890154 0.0
-0.037114 1.034631 0.0
-0.025959 1.106017 0.0
-0.019714 1.143640 0.0
-0.015608 1.164657 0.0
-0.012174 1.176837 0.0
-0.008828 1.183553 0.0
-0.005778 1.182719 0.0
-0.002203 1.127594 0.0
0.017451 1.130942 0.0
0.051687 1.198059 0.0
0.085196 1.227049 0.0
0.119630 1.252233 0.0
0.156372 1.277033 0.0
0.194947 1.293404 0.0
0.231999 1.284432 0.0
0.260645 1.230929 0.0
0.272534 1.128764 0.0
0.262637 0.994969 0.0
0.231479 0.851459 0.0
0.183410 0.715742 0.0
0.124294 0.598641 0.0
0.059958 0.505407 0.0
-0.003478 0.440681 0.0
-0.053206 0.423536 0.0
-0.064281 0.505491 0.0
-0.033829 0.849449 0.0
-0.002343 1.018352 0.0
0.009124 1.099675 0.0
0.010875 1.141985 0.0
0.008692 1.164389 0.0
0.005862 1.176500 0.0
0.003568 1.182839 0.0
0.001602 1.182349 0.0
0.000301 1.125692 0.0
0.017708 1.095783 0.0
0.052426 1.164263 0.0
0.086340 1.193422 0.0
0.121022 1.216744 0.0
0.157817 1.238984 0.0
0.196419 1.254277 0.0
0.233981 1.248946 0.0
0.264649 1.207100 0.0
0.281299 1.124055 0.0
0.279302 1.011573 0.0
0.258428 0.886888 0.0
0.221790 0.765021 0.0
0.174106 0.656161 0.0
0.120353 0.565976 0.0
0.065134 0.498767 0.0
0.014109 0.466202 0.0
-0.017621 0.505630 0.0
-0.002746 0.803984 0.0
0.031372 0.998213 0.0
0.043450 1.096271 0.0
0.040682 1.146405 0.0
0.032128 1.170706 0.0
0.022994 1.182146 0.0
0.015150 1.187330 0.0
0.008417 1.186556 0.0
0.002606 1.128598 0.0
0.017572 1.060503 0.0
0.051988 1.130409 0.0
0.085549 1.159801 0.0
0.119758 1.181474 0.0
0.155890 1.201328 0.0
0.193792 1.215428 0.0
0.231117 1.212907 0.0
0.262968 1.180620 0.0
0.283299 1.113554 0.0
0.287875 1.019495 0.0
0.275919 0.911795 0.0
0.249532 0.803139 0.0
0.212405 0.702854 0.0
0.168650 0.616792 0.0
0.121935 0.549883 0.0
0.075453 0.512592 0.0
0.035285 0.531138 0.0
0.035647 0.763239 0.0
0.064504 0.975982 0.0
0.075040 1.095888 0.0
0.067815 1.156781 0.0
0.053206 1.183493 0.0
0.038141 1.193558 0.0
0.025201 1.196703 0.0
0.014208 1.194910 0.0
0.004530 1.135733 0.0
0.017065 1.025865 0.0
0.050447 1.097249 0.0
0.082976 1.126871 0.0
0.116100 1.147072 0.0
0.150985 1.164714 0.0
0.187599 1.177526 0.0
0.224051 1.177033 0.0
0.256302 1.152392 0.0
0.279267 1.098485 0.0
0.289120 1.020135 0.0
0.284736 0.927496 0.0
0.267451 0.831110 0.0
0.240122 0.739339 0.0
0.206101 0.658085 0.0
0.168304 0.593102 0.0
0.128764 0.555396 0.0
0.090134 0.567132 0.0
0.079205 0.737812 0.0
0.095513 0.956244 0.0
0.101658 1.098945 0.0
0.089937 1.172671 0.0
0.070026 1.202123 0.0
0.049981 1.210037 0.0
0.032892 1.210253 0.0
0.018517 1.206728 0.0
0.005923 1.146186 0.0
0.016209 0.992590 0.0
0.047884 1.065467 0.0
0.078783 1.095224 0.0
0.110311 1.114067 0.0
0.143488 1.129657 0.0
0.178347 1.141109 0.0
0.213396 1.141950 0.0
0.245353 1.123266 0.0
0.269984 1.080015 0.0
0.283902 1.014834 0.0
0.285819 0.935265 0.0
0.276536 0.849909 0.0
0.258259 0.766146 0.0
0.233682 0.689876 0.0
0.205020 0.627768 0.0
0.173446 0.591844 0.0
0.140079 0.602682 0.0
0.121469 0.731801 0.0
0.123335 0.944082 0.0
0.121704 1.106593 0.0
0.104929 1.193519 0.0
0.080712 1.225404 0.0
0.057209 1.230304 0.0
0.037448 1.226836 0.0
0.020950 1.221018 0.0
0.006666 1.158775 0.0
0.015032 0.961349 0.0
0.044395 1.035671 0.0
0.073155 1.065361 0.0
0.102672 1.082885 0.0
0.133779 1.096556 0.0
0.166528 1.106602 0.0
0.199750 1.108187 0.0
0.230819 1.094003 0.0
0.256263 1.059204 0.0
0.273160 1.004830 0.0
0.280218 0.936294 0.0
0.277895 0.860485 0.0
0.267885 0.783858 0.0
0.252250 0.712375 0.0
0.232407 0.653773 0.0
0.208541 0.621279 0.0
0.180495 0.634659 0.0
0.157014 0.741913 0.0
0.145517 0.943601 0.0
0.133585 1.120636 0.0
0.111068 1.218768 0.0
0.083823 1.251616 0.0
0.058890 1.252527 0.0
0.038349 1.244914 0.0
0.021270 1.236516 0.0
0.006695 1.172136 0.0
0.013579 0.932738 0.0
0.040121 1.008377 0.0
0.066327 1.037690 0.0
0.093506 1.053858 0.0
0.122270 1.065712 0.0
0.152641 1.074327 0.0
0.183710 1.076171 0.0
0.213411 1.065249 0.0
0.238952 1.036973 0.0
0.257897 0.991218 0.0
0.269068 0.931678 0.0
0.272723 0.863770 0.0
0.270110 0.793196 0.0
0.262602 0.726181 0.0
0.250621 0.671791 0.0
0.233165 0.644583 0.0
0.208852 0.663714 0.0
0.181647 0.763545 0.0
0.158443 0.956671 0.0
0.135326 1.142614 0.0
0.107121 1.247514 0.0
0.078716 1.278520 0.0
0.054772 1.274501 0.0
0.035521 1.262732 0.0
0.019480 1.251819 0.0
0.006029 1.184860 0.0
0.011916 0.907243 0.0
0.035261 0.983985 0.0
0.058613 1.012525 0.0
0.083213 1.027243 0.0
0.109429 1.037347 0.0
0.137231 1.044519 0.0
0.165913 1.046227 0.0
0.193882 1.037523 0.0
0.218955 1.014085 0.0
0.239180 0.974936 0.0
0.253569 0.922399 0.0
0.262250 0.860713 0.0
0.266019 0.795097 0.0
0.265418 0.732390 0.0
0.259657 0.683323 0.0
0.246444 0.663721 0.0
0.223422 0.691911 0.0
0.192081 0.793894 0.0
0.158490 0.983118 0.0
0.125037 1.172736 0.0
0.092756 1.277879 0.0
0.065898 1.303417 0.0
0.045479 1.293968 0.0
0.029412 1.278583 0.0
0.015861 1.265559 0.0
0.004772 1.195660 0.0
0.010136 0.885190 0.0
0.030077 0.962751 0.0
0.050404 0.990080 0.0
0.072271 1.003221 0.0
0.095804 1.011619 0.0
0.120913 1.017338 0.0
0.147058 1.018581 0.0
0.173048 1.011209 0.0
0.197232 0.991141 0.0
0.218117 0.956770 0.0
0.234923 0.909370 0.0
0.247642 0.852343 0.0
0.256536 0.790803 0.0
0.261125 0.732696 0.0
0.259224 0.690679 0.0
0.247367 0.681436 0.0
0.222723 0.721862 0.0
0.185971 0.832036 0.0
0.143171 1.021367 0.0
0.102043 1.209067 0.0
0.069234 1.306639 0.0
0.047221 1.323527 0.0
0.032445 1.309054 0.0
0.020909 1.291100 0.0
0.010925 1.276576 0.0
0.003112 1.203545 0.0
0.008340 0.866714 0.0
0.024855 0.944772 0.0
0.042129 0.970458 0.0
0.061206 0.981900 0.0
0.081995 0.988618 0.0
0.104356 0.992868 0.0
0.127896 0.993366 0.0
0.151757 0.986574 0.0
0.174746 0.968604 0.0
0.195768 0.937398 0.0
0.214202 0.893502 0.0
0.229835 0.839859 0.0
0.242261 0.781965 0.0
0.249762 0.729444 0.0
0.248727 0.696868 0.0
0.234924 0.700908 0.0
0.205765 0.756192 0.0
0.162391 0.877832 0.0
0.112223 1.068541 0.0
0.068126 1.247118 0.0
0.039847 1.329675 0.0
0.025612 1.336738 0.0
0.017559 1.318672 0.0
0.011113 1.299464 0.0
0.005299 1.284011 0.0
0.001282 1.207939 0.0
0.006625 0.851749 0.0
0.019865 0.929982 0.0
0.034190 0.953649 0.0
0.050522 0.963299 0.0
0.068586 0.968366 0.0
0.088217 0.971128 0.0
0.109148 0.970636 0.0
0.130801 0.963790 0.0
0.152348 0.946853 0.0
0.172997 0.917478 0.0
0.192187 0.875800 0.0
0.209398 0.824717 0.0
0.223379 0.770701 0.0
0.231023 0.725563 0.0
0.227533 0.705273 0.0
0.208631 0.725207 0.0
0.172787 0.796897 0.0
0.122649 0.930639 0.0
0.068633 1.119918 0.0
0.028161 1.280310 0.0
0.009403 1.343519 0.0
0.004180 1.342352 0.0
0.002616 1.322675 0.0
0.001081 1.303442 0.0
-0.000448 1.287377 0.0
-0.000540 1.208681 0.0
0.005060 0.840064 0.0
0.015307 0.918180 0.0
0.026898 0.939536 0.0
0.040622 0.947356 0.0
0.056057 0.950811 0.0
0.073034 0.952075 0.0
0.091397 0.950394 0.0
0.110785 0.942991 0.0
0.130635 0.926257 0.0
0.150336 0.897724 0.0
0.169273 0.857426 0.0
0.186497 0.808655 0.0
0.199739 0.759540 0.0
0.204539 0.724280 0.0
0.195514 0.719071 0.0
0.169265 0.756561 0.0
0.126051 0.844602 0.0
0.070999 0.988124 0.0
0.019284 1.168164 0.0
-0.010506 1.302328 0.0
-0.017631 1.347384 0.0
-0.015049 1.341127 0.0
-0.011191 1.321606 0.0
-0.008379 1.303234 0.0
-0.005913 1.286648 0.0
-0.002276 1.205865 0.0
0.003683 0.831320 0.0
0.011291 0.909069 0.0
0.020429 0.927918 0.0
0.031746 0.933932 0.0
0.044701 0.935846 0.0
0.059135 0.935628 0.0
0.074982 0.932631 0.0
0.092027 0.924321 0.0
0.109867 0.907237 0.0
0.127950 0.878959 0.0
0.145503 0.839702 0.0
0.161023 0.793635 0.0
0.171132 0.751208 0.0
0.170366 0.728579 0.0
0.153681 0.740481 0.0
0.119424 0.795656 0.0
0.070179 0.897965 0.0
0.015482 1.044508 0.0
-0.025772 1.204748 0.0
-0.041897 1.311658 0.0
-0.039761 1.343043 0.0
-0.031349 1.334474 0.0
-0.023229 1.316280 0.0
-0.016764 1.299284 0.0
-0.010803 1.282171 0.0
-0.003843 1.199746 0.0
0.002497 0.825140 0.0
0.007833 0.902305 0.0
0.014826 0.918549 0.0
0.023961 0.922848 0.0
0.034605 0.923332 0.0
0.046613 0.921700 0.0
0.059972 0.917353 0.0
0.074551 0.907974 0.0
0.090005 0.890290 0.0
0.105741 0.862087 0.0
0.120744 0.824020 0.0
0.132855 0.781685 0.0
0.137681 0.748222 0.0
0.129472 0.740540 0.0
0.104546 0.770131 0.0
0.063590 0.841219 0.0
0.013058 0.952180 0.0
-0.032993 1.091040 0.0
-0.060391 1.226869 0.0
-0.065743 1.311015 0.0
-0.057011 1.332819 0.0
-0.044500 1.323775 0.0
-0.033195 1.307553 0.0
-0.023804 1.292155 0.0
-0.014940 1.274475 0.0
-0.005180 1.190722 0.0
0.001474 0.821170 0.0
0.004880 0.897534 0.0
0.010027 0.911179 0.0
0.017193 0.913917 0.0
0.025684 0.913129 0.0
0.035360 0.910219 0.0
0.046228 0.904607 0.0
0.058176 0.894194 0.0
0.070846 0.875946 0.0
0.083535 0.848004 0.0
0.094916 0.811719 0.0
0.102138 0.774653 0.0
0.100172 0.752395 0.0
0.083957 0.760790 0.0
0.052005 0.806760 0.0
0.008690 0.888862 0.0
-0.035596 0.999356 0.0
-0.069577 1.123897 0.0
-0.085559 1.237392 0.0
-0.083009 1.303294 0.0
-0.069837 1.318635 0.0
-0.054610 1.310220 0.0
-0.041041 1.296234 0.0
-0.029410 1.282453 0.0
-0.018252 1.264156 0.0
-0.006256 1.179286 0.0
0.000577 0.819118 0.0
0.002348 0.894409 0.0