# vtk DataFile Version 3.0
Vector Field
ASCII
DATASET RECTILINEAR_GRID
DIMENSIONS 26 100 1
X_COORDINATES 26 double
0.050000 0.150000 0.250000 0.350000 0.450000 0.550000 0.650000 0.750000 0.850000 0.950000 1.050000 1.150000 1.250000 1.350000 1.450000 1.550000 1.650000 1.750000 1.850000 1.950000 2.050000 2.150000 2.250000 2.350000 2.450000 2.550000 
Y_COORDINATES 100 double
0.050000 0.150000 0.250000 0.350000 0.450000 0.550000 0.650000 0.750000 0.850000 0.950000 1.050000 1.150000 1.250000 1.350000 1.450000 1.550000 1.650000 1.750000 1.850000 1.950000 2.050000 2.150000 2.250000 2.350000 2.450000 2.550000 2.650000 2.750000 2.850000 2.950000 3.050000 3.150000 3.250000 3.350000 3.450000 3.550000 3.650000 3.750000 3.850000 3.950000 4.050000 4.150000 4.250000 4.350000 4.450000 4.550000 4.650000 4.750000 4.850000 4.950000 5.050000 5.150000 5.250000 5.350000 5.450000 5.550000 5.650000 5.750000 5.850000 5.950000 6.050000 6.150000 6.250000 6.350000 6.450000 6.550000 6.650000 6.750000 6.850000 6.950000 7.050000 7.150000 7.250000 7.350000 7.450000 7.550000 7.650000 7.750000 7.850000 7.950000 8.050000 8.150000 8.250000 8.350000 8.450000 8.550000 8.650000 8.750000 8.850000 8.950000 9.050000 9.150000 9.250000 9.350000 9.450000 9.550000 9.650000 9.750000 9.850000 9.950000 
Z_COORDINATES 1 double
0.0
POINT_DATA 2600
VECTORS Vektorfeld double
-0.000886 1.000886 0.0
-0.003209 1.001438 0.0
-0.005978 1.001332 0.0
-0.008600 1.001290 0.0
-0.011118 1.001229 0.0
-0.013446 1.001099 0.0
-0.015404 1.000859 0.0
-0.016740 1.000477 0.0
-0.017170 0.999954 0.0
-0.016467 0.999343 0.0
-0.014565 0.998755 0.0
-0.011635 0.998315 0.0
-0.008061 0.998111 0.0
-0.004321 0.998150 0.0
-0.000852 0.998381 0.0
0.002060 0.998708 0.0
0.004262 0.999090 0.0
0.005702 0.999470 0.0
0.006424 0.999808 0.0
0.006530 1.000087 0.0
0.006139 1.000303 0.0
0.005371 1.000465 0.0
0.004319 1.000586 0.0
0.003041 1.000692 0.0
0.001500 1.000849 0.0
0.000325 1.000325 0.0
-0.003103 1.004875 0.0
-0.010174 1.006843 0.0
-0.018061 1.006583 0.0
-0.025855 1.006454 0.0
-0.033460 1.006188 0.0
-0.040559 1.005567 0.0
-0.046584 1.004374 0.0
-0.050733 1.002446 0.0
-0.052096 0.999778 0.0
-0.049923 0.996643 0.0
-0.043985 0.993615 0.0
-0.034834 0.991373 0.0
-0.023721 0.990365 0.0
-0.012177 0.990613 0.0
-0.001554 0.991824 0.0
0.007275 0.993524 0.0
0.013863 0.995484 0.0
0.018090 0.997409 0.0
0.020126 0.999111 0.0
0.020299 1.000506 0.0
0.018990 1.001583 0.0
0.016564 1.002380 0.0
0.013323 1.002963 0.0
0.009491 1.003426 0.0
0.005197 1.003951 0.0
0.001472 1.002122 0.0
-0.005456 1.013434 0.0
-0.017343 1.017241 0.0
-0.030279 1.017007 0.0
-0.043330 1.016875 0.0
-0.056300 1.016341 0.0
-0.068650 1.014862 0.0
-0.079386 1.011840 0.0
-0.087036 1.006780 0.0
-0.089832 0.999603 0.0
-0.086217 0.991029 0.0
-0.075616 0.982691 0.0
-0.059056 0.976588 0.0
-0.039023 0.974002 0.0
-0.018497 0.974907 0.0
0.000075 0.978335 0.0
0.015196 0.983063 0.0
0.026180 0.988373 0.0
0.032968 0.993504 0.0
0.035963 0.997985 0.0
0.035807 1.001615 0.0
0.033202 1.004388 0.0
0.028790 1.006413 0.0
0.023104 1.007857 0.0
0.016547 1.008922 0.0
0.009406 1.009890 0.0
0.002860 1.006454 0.0
-0.007818 1.026708 0.0
-0.024504 1.032541 0.0
-0.042496 1.032636 0.0
-0.061002 1.032805 0.0
-0.079839 1.032218 0.0
-0.098323 1.029819 0.0
-0.115030 1.024327 0.0
-0.127635 1.014548 0.0
-0.133071 1.000066 0.0
-0.128320 0.982200 0.0
-0.111946 0.964544 0.0
-0.085611 0.951840 0.0
-0.053907 0.947012 0.0
-0.022152 0.949617 0.0
0.005754 0.957146 0.0
0.027740 0.967144 0.0
0.043059 0.977989 0.0
0.051943 0.988216 0.0
0.055242 0.996979 0.0
0.054059 1.003959 0.0
0.049508 1.009202 0.0
0.042560 1.012959 0.0
0.033990 1.015567 0.0
0.024371 1.017389 0.0
0.014111 1.018825 0.0
0.004431 1.013745 0.0
-0.010086 1.044612 0.0
-0.031401 1.052637 0.0
-0.054388 1.053518 0.0
-0.078554 1.054594 0.0
-0.103910 1.054621 0.0
-0.129819 1.051809 0.0
-0.154542 1.043767 0.0
-0.174753 1.027924 0.0
-0.185386 1.002759 0.0
-0.180597 0.969968 0.0
-0.156711 0.936516 0.0
-0.116213 0.913035 0.0
-0.067853 0.905753 0.0
-0.021213 0.912482 0.0
0.017982 0.927180 0.0
0.047430 0.945676 0.0
0.066707 0.964860 0.0
0.076789 0.982380 0.0
0.079294 0.997012 0.0
0.075998 1.008403 0.0
0.068540 1.016766 0.0
0.058271 1.022612 0.0
0.046208 1.026547 0.0
0.033066 1.029169 0.0
0.019323 1.031048 0.0
0.006174 1.024351 0.0
-0.012130 1.066828 0.0
-0.037660 1.077265 0.0
-0.065365 1.079583 0.0
-0.095224 1.082556 0.0
-0.127713 1.084505 0.0
-0.162625 1.082746 0.0
-0.198336 1.073264 0.0
-0.230677 1.050979 0.0
-0.251752 1.011412 0.0
-0.250178 0.954952 0.0
-0.216262 0.893731 0.0
-0.153203 0.852262 0.0
-0.079240 0.844203 0.0
-0.012092 0.860244 0.0
0.040730 0.887401 0.0
0.077695 0.919043 0.0
0.099800 0.950110 0.0
0.109438 0.977409 0.0
0.109417 0.999500 0.0
0.102427 1.016201 0.0
0.090751 1.028102 0.0
0.076143 1.036154 0.0
0.059836 1.041374 0.0
0.042634 1.044686 0.0
0.025016 1.046892 0.0
0.008073 1.038598 0.0
-0.013782 1.092740 0.0
-0.042765 1.105865 0.0
-0.074524 1.110446 0.0
-0.109670 1.116698 0.0
-0.149490 1.122671 0.0
-0.194863 1.124866 0.0
-0.245342 1.117332 0.0
-0.297110 1.091020 0.0
-0.339314 1.034650 0.0
-0.350082 0.940908 0.0
-0.302809 0.826586 0.0
-0.199447 0.752985 0.0
-0.083015 0.753086 0.0
0.012003 0.789195 0.0
0.079971 0.837659 0.0
0.123053 0.888740 0.0
0.145462 0.935900 0.0
0.151870 0.975573 0.0
0.146726 1.006502 0.0
0.133866 1.029049 0.0
0.116289 1.044507 0.0
0.096124 1.054522 0.0
0.074743 1.060693 0.0
0.052934 1.064378 0.0
0.031084 1.066667 0.0
0.010089 1.056761 0.0
-0.014844 1.121366 0.0
-0.046094 1.137472 0.0
-0.080687 1.145192 0.0
-0.119912 1.156324 0.0
-0.166109 1.169061 0.0
-0.221932 1.179674 0.0
-0.289752 1.180823 0.0
-0.369507 1.159052 0.0
-0.451901 1.091215 0.0
-0.500136 0.943346 0.0
-0.440645 0.717384 0.0
-0.257435 0.575615 0.0
-0.064645 0.621234 0.0
0.063600 0.697784 0.0
0.144377 0.780324 0.0
0.189053 0.858317 0.0
0.207006 0.925960 0.0
0.205815 0.980296 0.0
0.191876 1.020861 0.0
0.170315 1.049111 0.0
0.144824 1.067512 0.0
0.117776 1.078729 0.0
0.090507 1.085136 0.0
0.063633 1.088618 0.0
0.037317 1.090593 0.0
0.012149 1.078998 0.0
-0.015140 1.151351 0.0
-0.047055 1.170652 0.0
-0.082648 1.182198 0.0
-0.123755 1.199651 0.0
-0.174025 1.222200 0.0
-0.239640 1.247972 0.0
-0.331876 1.272580 0.0
-0.469122 1.284296 0.0
-0.668420 1.247664 0.0
-0.883128 1.049839 0.0
-0.765074 0.433345 0.0
-0.312779 0.224149 0.0
0.016699 0.450432 0.0
0.163501 0.593539 0.0
0.244373 0.722920 0.0
0.281129 0.834291 0.0
0.287148 0.926015 0.0
0.272184 0.996396 0.0
0.244612 1.046272 0.0
0.210915 1.078959 0.0
0.175318 1.098751 0.0
0.140132 1.109724 0.0
0.106351 1.115192 0.0
0.074177 1.117610 0.0
0.043381 1.118713 0.0
0.014141 1.105288 0.0
-0.014569 1.181060 0.0
-0.045284 1.203572 0.0
-0.079508 1.219094 0.0
-0.118886 1.243240 0.0
-0.166445 1.276440 0.0
-0.225781 1.318684 0.0
-0.298149 1.366471 0.0
-0.371881 1.401383 0.0
-0.401573 1.359568 0.0
-0.198411 1.058101 0.0
0.273062 0.195656 0.0
0.273062 0.127515 0.0
0.159917 0.191204 0.0
0.351382 0.508482 0.0
0.395674 0.682813 0.0
0.405933 0.827383 0.0
0.388376 0.944462 0.0
0.350818 1.030471 0.0
0.303277 1.087310 0.0
0.253526 1.121369 0.0
0.205767 1.139697 0.0
0.161577 1.148153 0.0
0.121093 1.151030 0.0
0.083777 1.151262 0.0
0.048828 1.150805 0.0
0.015918 1.135347 0.0
-0.013171 1.208801 0.0
-0.040918 1.234293 0.0
-0.071558 1.253237 0.0
-0.106007 1.282924 0.0
-0.145797 1.324106 0.0
-0.191168 1.375726 0.0
-0.237013 1.427642 0.0
-0.265220 1.442150 0.0
-0.238766 1.322038 0.0
-0.102993 0.876778 0.0
0.000000 0.075574 0.0
-0.000000 0.221131 0.0
0.000000 0.139552 0.0
0.233755 0.255813 0.0
0.503141 0.634438 0.0
0.534595 0.834044 0.0
0.502376 0.987577 0.0
0.437229 1.090060 0.0
0.363472 1.149020 0.0
0.294082 1.178801 0.0
0.232933 1.191174 0.0
0.179793 1.194006 0.0
0.133185 1.192269 0.0
0.091470 1.189053 0.0
0.053131 1.186302 0.0
0.017313 1.168578 0.0
-0.011124 1.233096 0.0
-0.034547 1.261166 0.0
-0.060053 1.282511 0.0
-0.087721 1.315767 0.0
-0.117841 1.361172 0.0
-0.148980 1.415169 0.0
-0.175395 1.460459 0.0
-0.184374 1.446520 0.0
-0.158462 1.265303 0.0
-0.092442 0.743186 0.0
-0.025190 -0.047443 0.0
0.000000 0.086923 0.0
-0.000000 0.211395 0.0
0.000000 0.114284 0.0
0.291940 0.324214 0.0
0.610629 0.811470 0.0
0.602089 1.050910 0.0
0.514288 1.179675 0.0
0.413322 1.234128 0.0
0.324796 1.251608 0.0
0.251967 1.252345 0.0
0.191842 1.246101 0.0
0.140880 1.237744 0.0
0.096245 1.229929 0.0
0.055763 1.224248 0.0
0.018161 1.204051 0.0
-0.008673 1.252894 0.0
-0.026968 1.283087 0.0
-0.046556 1.305684 0.0
-0.066805 1.340511 0.0
-0.087252 1.386995 0.0
-0.106083 1.439316 0.0
-0.119113 1.475757 0.0
-0.119914 1.441003 0.0
-0.103014 1.228006 0.0
-0.071337 0.682786 0.0
-0.067456 -0.057503 0.0
-0.040956 -0.039857 0.0
0.000000 0.082030 0.0
-0.000000 0.174537 0.0
0.000000 0.079592 0.0
0.354729 0.454802 0.0
0.668413 1.127244 0.0
0.558449 1.301105 0.0
0.433643 1.338470 0.0
0.334543 1.334893 0.0
0.257127 1.319305 0.0
0.194809 1.301584 0.0
0.142661 1.285371 0.0
0.097302 1.272297 0.0
0.056328 1.263336 0.0
0.018340 1.240552 0.0
-0.006072 1.267639 0.0
-0.018977 1.299542 0.0
-0.032509 1.322348 0.0
-0.045495 1.357082 0.0
-0.057061 1.402437 0.0
-0.065481 1.451126 0.0
-0.068141 1.479636 0.0
-0.062879 1.432663 0.0
-0.051964 1.208529 0.0
-0.047264 0.665887 0.0
-0.089815 -0.001935 0.0
-0.124746 -0.084548 0.0
-0.059282 -0.059744 0.0
0.000000 0.073168 0.0
-0.000000 0.121741 0.0
0.000000 0.094448 0.0
0.162965 1.067766 0.0
0.345670 1.350282 0.0
0.346941 1.412828 0.0
0.299417 1.407159 0.0
0.241456 1.382415 0.0
0.186636 1.355612 0.0
0.137825 1.332301 0.0
0.094338 1.314212 0.0
0.054682 1.302051 0.0
0.017807 1.276700 0.0
-0.003547 1.277259 0.0
-0.011260 1.310540 0.0
-0.019085 1.332706 0.0
-0.025458 1.366083 0.0
-0.029271 1.408815 0.0
-0.028964 1.452861 0.0
-0.022999 1.474596 0.0
-0.010930 1.420373 0.0
0.003710 1.195264 0.0
0.007356 0.670807 0.0
-0.053566 0.096618 0.0
-0.106019 -0.095718 0.0
-0.086189 -0.129438 0.0
-0.035673 -0.038326 0.0
-0.051475 0.060750 0.0
-0.051475 0.022831 0.0
0.095641 0.880778 0.0
0.229701 1.292122 0.0
0.269456 1.429963 0.0
0.254135 1.452869 0.0
0.215194 1.433607 0.0
0.170574 1.403859 0.0
0.127532 1.375906 0.0
0.087805 1.353821 0.0
0.051001 1.338902 0.0
0.016609 1.311116 0.0
-0.001282 1.282088 0.0
-0.004360 1.316502 0.0
-0.007180 1.337389 0.0
-0.007899 1.368492 0.0
-0.005285 1.407604 0.0
0.002141 1.446339 0.0
0.015793 1.461501 0.0
0.035836 1.401355 0.0
0.058605 1.176874 0.0
0.072472 0.671684 0.0
0.052621 0.176514 0.0
0.017758 -0.088298 0.0
0.014823 -0.153752 0.0
0.047198 -0.090693 0.0
0.081078 -0.023395 0.0
0.065917 0.007786 0.0
0.094257 0.739835 0.0
0.181443 1.220995 0.0
0.220003 1.422776 0.0
0.215182 1.480198 0.0
0.186978 1.473423 0.0
0.150552 1.445090 0.0
0.113537 1.414732 0.0
0.078500 1.389760 0.0
0.045633 1.372634 0.0
0.014842 1.342567 0.0
0.000579 1.282790 0.0
0.001310 1.318148 0.0
0.002559 1.337314 0.0
0.006323 1.365522 0.0
0.013988 1.400294 0.0
0.027151 1.433062 0.0
0.047359 1.440918 0.0
0.074908 1.374346 0.0
0.106336 1.149686 0.0
0.131550 0.659791 0.0
0.138063 0.201744 0.0
0.134172 -0.074774 0.0
0.137306 -0.167474 0.0
0.149871 -0.121911 0.0
0.150949 -0.027136 0.0
0.105214 0.072423 0.0
0.102390 0.649682 0.0
0.162119 1.164233 0.0
0.189738 1.413359 0.0
0.183895 1.500280 0.0
0.159556 1.505885 0.0
0.128550 1.480060 0.0
0.097017 1.448309 0.0
0.067076 1.421161 0.0
0.038905 1.402270 0.0
0.012608 1.370018 0.0
0.001938 1.280273 0.0
0.005447 1.316426 0.0
0.009636 1.333598 0.0
0.016610 1.358500 0.0
0.027879 1.388382 0.0
0.045216 1.414474 0.0
0.070427 1.414086 0.0
0.104167 1.339888 0.0
0.143537 1.113345 0.0
0.181563 0.632893 0.0
0.211529 0.192163 0.0
0.232769 -0.082542 0.0
0.245996 -0.176066 0.0
0.248909 -0.128796 0.0
0.230308 -0.002729 0.0
0.170097 0.153962 0.0
0.136527 0.604537 0.0
0.158445 1.127731 0.0
0.168804 1.411882 0.0
0.156023 1.520382 0.0
0.131755 1.534391 0.0
0.104589 1.509725 0.0
0.078307 1.476459 0.0
0.053859 1.447402 0.0
0.031029 1.427030 0.0
0.009979 1.392605 0.0
0.002732 1.275603 0.0
0.007858 1.312461 0.0
0.013737 1.327494 0.0
0.022527 1.348838 0.0
0.035832 1.373470 0.0
0.055606 1.392276 0.0
0.083969 1.382712 0.0
0.122202 1.299289 0.0
0.168505 1.068272 0.0
0.220662 0.587784 0.0
0.273444 0.154524 0.0
0.314357 -0.107056 0.0
0.334968 -0.185391 0.0
0.334555 -0.121970 0.0
0.306943 0.036658 0.0
0.240601 0.241127 0.0
0.179031 0.612512 0.0
0.159111 1.117759 0.0
0.147288 1.423317 0.0
0.125389 1.543627 0.0
0.100657 1.560146 0.0
0.077650 1.534143 0.0
0.057234 1.498738 0.0
0.038951 1.467854 0.0
0.022132 1.446226 0.0
0.007004 1.409588 0.0
0.002930 1.269942 0.0
0.008450 1.307476 0.0
0.014701 1.320349 0.0
0.023827 1.338068 0.0
0.037493 1.357269 0.0
0.057828 1.368367 0.0
0.087326 1.348761 0.0
0.128192 1.254142 0.0
0.180636 1.014671 0.0
0.248210 0.521654 0.0
0.321032 0.095049 0.0
0.373258 -0.140719 0.0
0.395165 -0.194246 0.0
0.391012 -0.108549 0.0
0.356643 0.085219 0.0
0.284831 0.330720 0.0
0.203049 0.666270 0.0
0.148704 1.138264 0.0
0.114649 1.448690 0.0
0.085770 1.569033 0.0
0.063480 1.581762 0.0
0.046841 1.552173 0.0
0.033691 1.514274 0.0
0.022486 1.481807 0.0
0.012356 1.459221 0.0
0.003743 1.420335 0.0
0.002538 1.264474 0.0
0.007237 1.302724 0.0
0.012531 1.313555 0.0
0.020473 1.327795 0.0
0.032755 1.341594 0.0
0.051694 1.344768 0.0
0.080222 1.314334 0.0
0.121739 1.206187 0.0
0.180048 0.951872 0.0
0.262955 0.433971 0.0
0.347789 0.025074 0.0
0.398662 -0.173844 0.0
0.413316 -0.197682 0.0
0.399348 -0.086993 0.0
0.354311 0.143069 0.0
0.276308 0.422686 0.0
0.184229 0.748165 0.0
0.109015 1.185928 0.0
0.061086 1.483011 0.0
0.033495 1.591183 0.0
0.019631 1.595767 0.0
0.012499 1.561938 0.0
0.008142 1.522015 0.0
0.004834 1.488580 0.0
0.001961 1.465451 0.0
0.000301 1.424378 0.0
0.001605 1.260331 0.0
0.004367 1.299406 0.0
0.007438 1.308507 0.0
0.012674 1.319665 0.0
0.021796 1.328319 0.0
0.037377 1.323522 0.0
0.062822 1.281606 0.0
0.102834 1.157387 0.0
0.167076 0.878122 0.0
0.260554 0.331337 0.0
0.342658 -0.039229 0.0
0.378300 -0.196056 0.0
0.377366 -0.189190 0.0
0.344138 -0.048289 0.0
0.282117 0.211423 0.0
0.200348 0.514106 0.0
0.106656 0.842516 0.0
0.027069 1.246377 0.0
-0.014887 1.512445 0.0
-0.027817 1.602270 0.0
-0.027936 1.598662 0.0
-0.023622 1.561862 0.0
-0.018351 1.521176 0.0
-0.013344 1.487721 0.0
-0.008685 1.464524 0.0
-0.003200 1.421479 0.0
0.000232 1.258494 0.0
0.000151 1.298563 0.0
-0.000100 1.306531 0.0
0.000960 1.315345 0.0
0.005102 1.319375 0.0
0.015410 1.306577 0.0
0.035932 1.252584 0.0
0.072284 1.110045 0.0
0.141013 0.792493 0.0
0.232861 0.231640 0.0
0.293950 -0.082725 0.0
0.304173 -0.198426 0.0
0.280082 -0.161796 0.0
0.220986 0.016640 0.0
0.141648 0.287853 0.0
0.060170 0.600924 0.0
-0.021442 0.931002 0.0
-0.078764 1.294800 0.0
-0.096802 1.524016 0.0
-0.090679 1.597507 0.0
-0.075814 1.588679 0.0
-0.059531 1.551249 0.0
-0.044493 1.511479 0.0
-0.031206 1.479125 0.0
-0.019114 1.456369 0.0
-0.006622 1.411657 0.0
-0.001391 1.259652 0.0
-0.004884 1.300979 0.0
-0.009260 1.308743 0.0
-0.013614 1.316427 0.0
-0.016326 1.316863 0.0
-0.013528 1.295982 0.0
0.000707 1.228423 0.0
0.032571 1.065990 0.0
0.099981 0.700410 0.0
0.172629 0.159227 0.0
0.197692 -0.096464 0.0
0.177753 -0.174971 0.0
0.122128 -0.105534 0.0
0.045414 0.096187 0.0
-0.029407 0.362465 0.0
-0.094740 0.673123 0.0
-0.149626 0.995301 0.0
-0.178872 1.317069 0.0
-0.173809 1.514721 0.0
-0.149574 1.576443 0.0
-0.120514 1.565819 0.0
-0.093000 1.530312 0.0
-0.068835 1.493214 0.0
-0.047828 1.463095 0.0
-0.028814 1.441292 0.0
-0.009804 1.395231 0.0
-0.002998 1.264040 0.0
-0.009970 1.307057 0.0
-0.018754 1.315825 0.0
-0.029192 1.324136 0.0
-0.040184 1.322859 0.0
-0.047563 1.294566 0.0
-0.042959 1.211001 0.0
-0.015165 1.023753 0.0
0.041902 0.618168 0.0
0.078984 0.131737 0.0
0.063677 -0.078730 0.0
0.017888 -0.126977 0.0
-0.048224 -0.031790 0.0
-0.116808 0.167741 0.0
-0.176892 0.425816 0.0
-0.226316 0.724529 0.0
-0.258824 1.031288 0.0
-0.263815 1.315318 0.0
-0.239222 1.486817 0.0
-0.199908 1.540798 0.0
-0.158978 1.531475 0.0
-0.121972 1.500135 0.0
-0.090002 1.467256 0.0
-0.062322 1.440366 0.0
-0.037285 1.419970 0.0
-0.012585 1.372843 0.0
-0.004275 1.271314 0.0
-0.014128 1.316609 0.0
-0.026799 1.327727 0.0
-0.042960 1.338833 0.0
-0.062404 1.338600 0.0
-0.081291 1.305091 0.0
-0.089900 1.204482 0.0
-0.073430 0.986009 0.0
-0.037846 0.563262 0.0
-0.038263 0.149979 0.0
-0.083140 -0.036787 0.0
-0.137355 -0.068916 0.0
-0.195409 0.034316 0.0
-0.250462 0.225272 0.0
-0.297125 0.475033 0.0
-0.330246 0.757857 0.0
-0.343075 1.043298 0.0
-0.328667 1.293890 0.0
-0.289181 1.444167 0.0
-0.238714 1.493667 0.0
-0.189018 1.487980 0.0
-0.144866 1.462471 0.0
-0.106881 1.434965 0.0
-0.073950 1.412047 0.0
-0.044102 1.393404 0.0
-0.014826 1.345432 0.0
-0.004902 1.280491 0.0
-0.016318 1.328701 0.0
-0.031391 1.343379 0.0
-0.051489 1.359441 0.0
-0.077532 1.363479 0.0
-0.106691 1.328257 0.0
-0.129257 1.212490 0.0
-0.131573 0.963846 0.0
-0.129052 0.547320 0.0
-0.159814 0.197099 0.0
-0.217084 0.018239 0.0
-0.272723 -0.014088 0.0
-0.319105 0.083924 0.0
-0.357305 0.268916 0.0
-0.387977 0.508724 0.0
-0.404697 0.774006 0.0
-0.400763 1.036045 0.0
-0.371781 1.257753 0.0
-0.322118 1.391155 0.0
-0.264571 1.438664 0.0
-0.209410 1.438126 0.0
-0.160694 1.419457 0.0
-0.118720 1.398020 0.0
-0.082182 1.379522 0.0
-0.048953 1.362851 0.0
-0.016426 1.314181 0.0
-0.004631 1.290023 0.0
-0.015722 1.341676 0.0
-0.030868 1.360622 0.0
-0.051751 1.383179 0.0
-0.080446 1.394479 0.0
-0.116076 1.362046 0.0
-0.151132 1.236323 0.0
-0.175830 0.967028 0.0
-0.205125 0.570913 0.0
-0.257751 0.256894 0.0
-0.319913 0.077875 0.0
-0.372883 0.034885 0.0
-0.410635 0.119086 0.0
-0.435129 0.296447 0.0
-0.449351 0.526087 0.0
-0.450463 0.774475 0.0
-0.432864 1.014044 0.0
-0.393731 1.211639 0.0
-0.338165 1.332039 0.0
-0.277290 1.379358 0.0
-0.219788 1.384768 0.0
-0.169042 1.373353 0.0
-0.125138 1.358248 0.0
-0.086717 1.344337 0.0
-0.051648 1.329739 0.0
-0.017319 1.280436 0.0
-0.003385 1.298040 0.0
-0.012028 1.353394 0.0
-0.024543 1.376564 0.0
-0.042368 1.405944 0.0
-0.068356 1.426397 0.0
-0.104398 1.401801 0.0
-0.147672 1.274898 0.0
-0.192776 0.998254 0.0
-0.247984 0.624190 0.0
-0.317818 0.326078 0.0
-0.387181 0.140216 0.0
-0.441538 0.079871 0.0
-0.473882 0.144196 0.0
-0.485851 0.307799 0.0
-0.483908 0.527014 0.0
-0.470365 0.761118 0.0
-0.441915 0.981351 0.0
-0.396420 1.159705 0.0
-0.338564 1.270552 0.0
-0.277549 1.318954 0.0
-0.220444 1.330564 0.0
-0.169972 1.326339 0.0
-0.126081 1.317467 0.0
-0.087466 1.308081 0.0
-0.052114 1.295574 0.0
-0.017480 1.245638 0.0
-0.001287 1.302712 0.0
-0.005553 1.361631 0.0
-0.013025 1.388314 0.0
-0.024405 1.423399 0.0
-0.042385 1.452910 0.0
-0.071289 1.440235 0.0
-0.114780 1.323228 0.0
-0.173007 1.053255 0.0
-0.247091 0.698482 0.0
-0.331551 0.406079 0.0
-0.411668 0.209695 0.0
-0.473895 0.126977 0.0
-0.507969 0.163508 0.0
-0.512511 0.304998 0.0
-0.496332 0.511693 0.0
-0.468778 0.735343 0.0
-0.431375 0.941273 0.0
-0.382455 1.105368 0.0
-0.325167 1.209745 0.0
-0.266559 1.260139 0.0
-0.212108 1.277823 0.0
-0.163888 1.280388 0.0
-0.121750 1.277390 0.0
-0.084511 1.272304 0.0
-0.050379 1.261867 0.0
-0.016914 1.211245 0.0
0.001444 1.302555 0.0
0.002953 1.364545 0.0
0.002074 1.393752 0.0
-0.000999 1.432414 0.0
-0.007777 1.468652 0.0
-0.022916 1.468536 0.0
-0.055551 1.371052 0.0
-0.114572 1.122679 0.0
-0.199153 0.787722 0.0
-0.295744 0.497889 0.0
-0.388496 0.290753 0.0
-0.464331 0.183981 0.0
-0.509627 0.185873 0.0
-0.516733 0.294282 0.0
-0.492074 0.481572 0.0
-0.451498 0.697334 0.0
-0.405438 0.895819 0.0
-0.354755 1.051218 0.0
-0.300095 1.151947 0.0
-0.245796 1.205031 0.0
-0.195760 1.228445 0.0
-0.151410 1.237195 0.0
-0.112516 1.239551 0.0
-0.078060 1.238448 0.0
-0.046543 1.230074 0.0
-0.015651 1.178680 0.0
0.004543 1.296568 0.0
0.012552 1.361014 0.0
0.018908 1.391807 0.0
0.024541 1.431799 0.0
0.029138 1.471448 0.0
0.029250 1.480767 0.0
0.015815 1.404891 0.0
-0.027838 1.191515 0.0
-0.110207 0.885837 0.0
-0.214609 0.600767 0.0
-0.319206 0.385224 0.0
-0.410708 0.256848 0.0
-0.474495 0.222087 0.0
-0.496473 0.287152 0.0
-0.474653 0.442223 0.0
-0.425158 0.646611 0.0
-0.369385 0.844710 0.0
-0.316498 0.998756 0.0
-0.265524 1.098774 0.0
-0.216812 1.155192 0.0
-0.172477 1.183914 0.0
-0.133263 1.198162 0.0
-0.098850 1.205277 0.0
-0.068396 1.207812 0.0
-0.040754 1.201551 0.0
-0.013737 1.149293 0.0
0.007725 1.284300 0.0
0.022336 1.350662 0.0
0.035855 1.382283 0.0
0.049751 1.421794 0.0
0.064587 1.462021 0.0
0.077799 1.476870 0.0
0.081335 1.418687 0.0
0.059971 1.242736 0.0
-0.001846 0.978802 0.0
-0.101046 0.711404 0.0
-0.213515 0.491655 0.0
-0.318080 0.346484 0.0
-0.401193 0.279351 0.0
-0.446590 0.297264 0.0
-0.442134 0.405835 0.0
-0.394393 0.585762 0.0
-0.329643 0.785037 0.0
-0.271581 0.947479 0.0
-0.223624 1.051121 0.0
-0.181145 1.111653 0.0
-0.143335 1.145308 0.0
-0.110182 1.164400 0.0
-0.081247 1.175692 0.0
-0.055832 1.181528 0.0
-0.033174 1.177536 0.0
-0.011220 1.124337 0.0
0.010747 1.265827 0.0
0.031565 1.333706 0.0
0.051658 1.365627 0.0
0.072819 1.403393 0.0
0.096188 1.442218 0.0
0.119808 1.459841 0.0
0.136363 1.415625 0.0
0.131853 1.271671 0.0
0.092827 1.050710 0.0
0.016329 0.815194 0.0
-0.088183 0.604846 0.0
-0.198937 0.448613 0.0
-0.295723 0.357121 0.0
-0.364170 0.333337 0.0
-0.387227 0.388362 0.0
-0.357142 0.525408 0.0
-0.291299 0.714798 0.0
-0.225081 0.893436 0.0
-0.176847 1.008975 0.0
-0.140368 1.074842 0.0
-0.109347 1.113289 0.0
-0.082830 1.136748 0.0
-0.060164 1.151742 0.0
-0.040679 1.160576 0.0
-0.023960 1.159111 0.0
-0.008135 1.104982 0.0
0.013429 1.241651 0.0
0.039708 1.310786 0.0
0.065453 1.342709 0.0
0.092603 1.378001 0.0
0.122635 1.414210 0.0
0.154029 1.432835 0.0
0.180177 1.399929 0.0
0.188350 1.283703 0.0
0.166290 1.099765 0.0
0.111588 0.897339 0.0
0.029584 0.709217 0.0
-0.070493 0.555074 0.0
-0.171133 0.448086 0.0
-0.254253 0.393938 0.0
-0.304069 0.400635 0.0
-0.303924 0.482906 0.0
-0.252870 0.640404 0.0
-0.181703 0.830444 0.0
-0.128681 0.970710 0.0
-0.096303 1.044249 0.0
-0.071426 1.087985 0.0
-0.051694 1.115804 0.0
-0.035946 1.134273 0.0
-0.023227 1.145841 0.0
-0.013244 1.147145 0.0
-0.004484 1.092363 0.0
0.015657 1.212565 0.0
0.046433 1.282816 0.0
0.076736 1.314630 0.0
0.108522 1.347144 0.0
0.143442 1.380115 0.0
0.180340 1.398638 0.0
0.213394 1.374924 0.0
0.231346 1.282582 0.0
0.223088 1.131205 0.0
0.185661 0.958027 0.0
0.123832 0.792361 0.0
0.044824 0.651015 0.0
-0.043752 0.541362 0.0
-0.129395 0.469426 0.0
-0.195823 0.441391 0.0
-0.225738 0.471920 0.0
-0.204340 0.578937 0.0
-0.141486 0.757890 0.0
-0.083526 0.932283 0.0
-0.051064 1.017837 0.0
-0.030354 1.068811 0.0
-0.017057 1.101949 0.0
-0.008799 1.124121 0.0
-0.003746 1.138221 0.0
-0.001191 1.142227 0.0
-0.000275 1.087604 0.0
0.017366 1.179542 0.0
0.051566 1.250863 0.0
0.085272 1.282574 0.0
0.120388 1.312297 0.0
0.158632 1.341798 0.0
0.199181 1.359507 0.0
0.237078 1.343105 0.0
0.262651 1.270876 0.0
0.266051 1.147768 0.0
0.243786 1.001155 0.0
0.199097 0.855751 0.0
0.138262 0.727470 0.0
0.067943 0.623802 0.0
-0.005886 0.546458 0.0
-0.074553 0.499455 0.0
-0.123571 0.492789 0.0
-0.134615 0.547713 0.0
-0.097252 0.688897 0.0
-0.042839 0.888902 0.0
-0.006142 0.992059 0.0
0.013216 1.054520 0.0
0.020746 1.095412 0.0
0.021014 1.122132 0.0
0.017507 1.138664 0.0
0.011833 1.144904 0.0
0.004258 1.091587 0.0
0.018530 1.143646 0.0
0.055041 1.216048 0.0
0.091007 1.247717 0.0
0.128250 1.274796 0.0
0.168484 1.300821 0.0
0.211206 1.317213 0.0
0.252339 1.306370 0.0
0.283801 1.250576 0.0
0.297037 1.151432 0.0
0.288252 1.028541 0.0
0.259224 0.902082 0.0
0.214757 0.786442 0.0
0.160451 0.689455 0.0
0.101453 0.613631 0.0
0.042639 0.559763 0.0
-0.009318 0.533455 0.0
-0.042200 0.550973 0.0
-0.038471 0.644547 0.0
-0.000108 0.840476 0.0
0.039375 0.964305 0.0
0.058310 1.043981 0.0
0.060544 1.096187 0.0
0.052678 1.128954 0.0
0.040000 1.148027 0.0
0.025372 1.155843 0.0
0.008875 1.104720 0.0
0.019148 1.105968 0.0
0.056863 1.179499 0.0
0.093988 1.211174 0.0
0.132271 1.235814 0.0
0.173379 1.258460 0.0
0.217090 1.273141 0.0
0.260172 1.266228 0.0
0.296038 1.223391 0.0
0.317408 1.144011 0.0
0.320409 1.041746 0.0
0.305624 0.932689 0.0
0.276432 0.829494 0.0
0.237252 0.739887 0.0
0.192403 0.667046 0.0
0.145581 0.611984 0.0
0.100240 0.578530 0.0
0.061443 0.577577 0.0
0.040928 0.634729 0.0
0.055720 0.797139 0.0
0.087369 0.936510 0.0
0.103322 1.036888 0.0
0.100409 1.103960 0.0
0.084662 1.144794 0.0
0.062701 1.166826 0.0
0.038804 1.175569 0.0
0.013350 1.126945 0.0
0.019226 1.067594 0.0
0.057064 1.142320 0.0
0.094304 1.173988 0.0
0.132655 1.196367 0.0
0.173699 1.215756 0.0
0.217441 1.228392 0.0
0.261413 1.223923 0.0
0.300376 1.190866 0.0
0.328262 1.127279 0.0
0.341328 1.042411 0.0
0.339274 0.948863 0.0
0.324261 0.857526 0.0
0.299612 0.775684 0.0
0.268784 0.706927 0.0
0.234562 0.653148 0.0
0.198751 0.618518 0.0
0.163098 0.612040 0.0
0.133249 0.650631 0.0
0.126557 0.773136 0.0
0.140060 0.915361 0.0
0.147639 1.034506 0.0
0.138360 1.118534 0.0
0.114919 1.169408 0.0
0.084073 1.195019 0.0
0.051234 1.204112 0.0
0.017397 1.157692 0.0
0.018779 1.029589 0.0
0.055686 1.105580 0.0
0.092053 1.137121 0.0
0.129602 1.157332 0.0
0.169787 1.173561 0.0
0.212773 1.183857 0.0
0.256745 1.180515 0.0
0.297645 1.154413 0.0
0.330541 1.102950 0.0
0.352000 1.032215 0.0
0.361163 0.951949 0.0
0.359261 0.871355 0.0
0.348681 0.797085 0.0
0.331978 0.733056 0.0
0.310863 0.682355 0.0
0.285745 0.650239 0.0
0.256561 0.645155 0.0
0.225514 0.678413 0.0
0.203995 0.773565 0.0
0.196978 0.908447 0.0
0.190735 1.040083 0.0
0.172537 1.140434 0.0
0.141161 1.202324 0.0
0.102206 1.231905 0.0
0.061509 1.240761 0.0
0.020650 1.195739 0.0
0.017815 0.992995 0.0
0.052766 1.070315 0.0
0.087323 1.101463 0.0
0.123290 1.119475 0.0
0.161936 1.132587 0.0
0.203504 1.140278 0.0
0.246712 1.136915 0.0
0.288523 1.115301 0.0
0.325074 1.072615 0.0
0.353419 1.012747 0.0
0.372495 0.943178 0.0
0.382916 0.871607 0.0
0.386217 0.804112 0.0
0.383789 0.745161 0.0
0.375827 0.699326 0.0
0.361171 0.673044 0.0
0.338463 0.674242 0.0
0.308271 0.710566 0.0
0.277225 0.793977 0.0
0.252376 0.919902 0.0
0.229903 1.057344 0.0
0.200475 1.170799 0.0
0.160857 1.242951 0.0
0.114989 1.276102 0.0
0.068335 1.283914 0.0
0.022696 1.239085 0.0
0.016339 0.958841 0.0
0.048324 1.037533 0.0
0.080191 1.067821 0.0
0.113878 1.083463 0.0
0.150389 1.093441 0.0
0.189957 1.098288 0.0
0.231731 1.093922 0.0
0.273558 1.074655 0.0
0.312629 1.037638 0.0
0.346753 0.985254 0.0
0.375020 0.923327 0.0
0.397571 0.858487 0.0
0.414789 0.796713 0.0
0.426260 0.743517 0.0
0.430165 0.705026 0.0
0.423821 0.688345 0.0
0.405218 0.700251 0.0
0.374608 0.745359 0.0
0.336438 0.828400 0.0
0.297555 0.949211 0.0
0.259762 1.088301 0.0
0.218594 1.210438 0.0
0.171202 1.290321 0.0
0.120322 1.325480 0.0
0.070467 1.331046 0.0
0.023140 1.284921 0.0
0.014342 0.928160 0.0
0.042368 1.008202 0.0
0.070733 1.036921 0.0
0.101515 1.049894 0.0
0.135341 1.056673 0.0
0.172372 1.058457 0.0
0.212125 1.052227 0.0
0.253259 1.033391 0.0
0.294194 0.998896 0.0
0.333867 0.950200 0.0
0.371602 0.892379 0.0
0.406550 0.831935 0.0
0.437041 0.775556 0.0
0.460177 0.730067 0.0
0.472201 0.702546 0.0
0.469751 0.699619 0.0
0.451279 0.726051 0.0
0.417800 0.783648 0.0
0.373282 0.872799 0.0
0.323897 0.993081 0.0
0.273857 1.132264 0.0
0.222701 1.258799 0.0
0.169448 1.342604 0.0
0.116471 1.377054 0.0
0.066996 1.378801 0.0
0.021714 1.329775 0.0
0.011796 0.902023 0.0
0.034899 0.983209 0.0
0.059048 1.009399 0.0
0.086346 1.019336 0.0
0.116941 1.022811 0.0
0.150943 1.021285 0.0
0.188250 1.012338 0.0
0.228465 0.991930 0.0
0.271680 0.956208 0.0
0.318032 0.906863 0.0
0.366113 0.849900 0.0
0.412670 0.792909 0.0
0.453098 0.743664 0.0
0.482307 0.709615 0.0
0.495953 0.697328 0.0
0.491619 0.711622 0.0
0.469325 0.754815 0.0
0.431252 0.826436 0.0
0.381344 0.924435 0.0
0.324935 1.047239 0.0
0.266834 1.186246 0.0
0.209278 1.313530 0.0
0.153674 1.396730 0.0
0.102609 1.426970 0.0
0.057680 1.423289 0.0
0.018380 1.369869 0.0
0.008659 0.881568 0.0
0.025938 0.963281 0.0
0.045281 0.985836 0.0
0.068507 0.992375 0.0
0.095326 0.992358 0.0
0.125958 0.987104 0.0
0.160847 0.974323 0.0
0.201023 0.949553 0.0
0.248512 0.907882 0.0
0.303264 0.854084 0.0
0.360831 0.797031 0.0
0.414396 0.745655 0.0
0.457137 0.707749 0.0
0.483869 0.689590 0.0
0.491913 0.695663 0.0
0.481093 0.728441 0.0
0.453079 0.788305 0.0
0.410641 0.873457 0.0
0.357331 0.980631 0.0
0.297544 1.107240 0.0
0.235992 1.245898 0.0
0.176802 1.370625 0.0
0.123710 1.448332 0.0
0.079379 1.470764 0.0
0.043210 1.460593 0.0
0.013413 1.401662 0.0
0.004906 0.868004 0.0
0.015589 0.948883 0.0
0.029644 0.966837 0.0
0.048156 0.969636 0.0
0.070760 0.965675 0.0
0.098106 0.955810 0.0
0.131520 0.937315 0.0
0.174016 0.903889 0.0
0.228244 0.851830 0.0
0.290560 0.793068 0.0
0.351752 0.739289 0.0
0.402834 0.698751 0.0
0.437831 0.676914 0.0
0.454267 0.677257 0.0
0.452372 0.701848 0.0
0.433840 0.751608 0.0
0.400878 0.826113 0.0
0.355919 0.923045 0.0
0.301831 1.038441 0.0
0.242267 1.168782 0.0
0.181957 1.306217 0.0
0.126698 1.424754 0.0
0.081907 1.492086 0.0
0.049194 1.504055 0.0
0.025249 1.487416 0.0
0.007405 1.422480 0.0
0.000648 0.862450 0.0
0.004132 0.940268 0.0
0.012415 0.953114 0.0
0.025584 0.951678 0.0
0.043867 0.942745 0.0
0.068720 0.926540 0.0
0.102646 0.899245 0.0
0.150006 0.852103 0.0
0.210346 0.789048 0.0
0.273487 0.730392 0.0
0.327568 0.686692 0.0
0.365676 0.662159 0.0
0.385820 0.658365 0.0
0.388994 0.676195 0.0
0.377252 0.716546 0.0
0.352582 0.780113 0.0
0.316689 0.866464 0.0
0.271389 0.972953 0.0
0.219077 1.094933 0.0
0.163167 1.227765 0.0
0.109020 1.361692 0.0
0.063969 1.469589 0.0
0.033361 1.522649 0.0
0.015905 1.523662 0.0
0.006033 1.501625 0.0
0.001131 1.431016 0.0
-0.003720 0.865523 0.0
-0.007873 0.937864 0.0
-0.006049 0.945412 0.0
0.001370 0.938793 0.0
0.015731 0.922987 0.0
0.039478 0.897699 0.0
0.075864 0.857774 0.0
0.127546 0.794531 0.0
0.187223 0.726602 0.0
0.240095 0.676824 0.0
0.277286 0.648988 0.0
0.297232 0.641809 0.0
0.301801 0.654001 0.0
0.293513 0.685673 0.0
0.274338 0.737986 0.0
0.245617 0.812064 0.0
0.208530 0.907492 0.0
0.164723 1.021031 0.0
0.116652 1.147238 0.0
0.068117 1.279903 0.0
0.025855 1.405963 0.0
-0.002578 1.498802 0.0
-0.015118 1.536583 0.0
-0.016561 1.528627 0.0
-0.012639 1.502609 0.0
-0.004926 1.427222 0.0
-0.007958 0.877200 0.0
-0.019976 0.942357 0.0