# vtk DataFile Version 3.0
Vector Field
ASCII
DATASET RECTILINEAR_GRID
DIMENSIONS 26 100 1
X_COORDINATES 26 double
0.050000 0.150000 0.250000 0.350000 0.450000 0.550000 0.650000 0.750000 0.850000 0.950000 1.050000 1.150000 1.250000 1.350000 1.450000 1.550000 1.650000 1.750000 1.850000 1.950000 2.050000 2.150000 2.250000 2.350000 2.450000 2.550000 
Y_COORDINATES 100 double
0.050000 0.150000 0.250000 0.350000 0.450000 0.550000 0.650000 0.750000 0.850000 0.950000 1.050000 1.150000 1.250000 1.350000 1.450000 1.550000 1.650000 1.750000 1.850000 1.950000 2.050000 2.150000 2.250000 2.350000 2.450000 2.550000 2.650000 2.750000 2.850000 2.950000 3.050000 3.150000 3.250000 3.350000 3.450000 3.550000 3.650000 3.750000 3.850000 3.950000 4.050000 4.150000 4.250000 4.350000 4.450000 4.550000 4.650000 4.750000 4.850000 4.950000 5.050000 5.150000 5.250000 5.350000 5.450000 5.550000 5.650000 5.750000 5.850000 5.950000 6.050000 6.150000 6.250000 6.350000 6.450000 6.550000 6.650000 6.750000 6.850000 6.950000 7.050000 7.150000 7.250000 7.350000 7.450000 7.550000 7.650000 7.750000 7.850000 7.950000 8.050000 8.150000 8.250000 8.350000 8.450000 8.550000 8.650000 8.750000 8.850000 8.950000 9.050000 9.150000 9.250000 9.350000 9.450000 9.550000 9.650000 9.750000 9.850000 9.950000 
Z_COORDINATES 1 double
0.0
POINT_DATA 2600
VECTORS Vektorfeld double
-0.000767 1.000767 0.0
-0.002849 1.001315 0.0
-0.005366 1.001202 0.0
-0.007719 1.001151 0.0
-0.009949 1.001080 0.0
-0.011970 1.000942 0.0
-0.013609 1.000698 0.0
-0.014628 1.000321 0.0
-0.014766 0.999817 0.0
-0.013824 0.999241 0.0
-0.011765 0.998699 0.0
-0.008776 0.998313 0.0
-0.005248 0.998159 0.0
-0.001648 0.998241 0.0
0.001632 0.998480 0.0
0.004324 0.998828 0.0
0.006274 0.999222 0.0
0.007448 0.999604 0.0
0.007906 0.999938 0.0
0.007760 1.000208 0.0
0.007136 1.000415 0.0
0.006153 1.000567 0.0
0.004906 1.000680 0.0
0.003448 1.000778 0.0
0.001739 1.000931 0.0
0.000404 1.000404 0.0
-0.002748 1.004282 0.0
-0.009097 1.006231 0.0
-0.016228 1.005934 0.0
-0.023211 1.005754 0.0
-0.029938 1.005434 0.0
-0.036095 1.004766 0.0
-0.041135 1.003553 0.0
-0.044303 1.001653 0.0
-0.044760 0.999081 0.0
-0.041846 0.996121 0.0
-0.035417 0.993331 0.0
-0.026082 0.991358 0.0
-0.015100 0.990604 0.0
-0.003974 0.991068 0.0
0.006070 0.992329 0.0
0.014218 0.994138 0.0
0.020027 0.996154 0.0
0.023436 0.998089 0.0
0.024660 0.999770 0.0
0.024059 1.001124 0.0
0.022032 1.002151 0.0
0.018947 1.002899 0.0
0.015107 1.003436 0.0
0.010726 1.003862 0.0
0.005922 1.004361 0.0
0.001711 1.002520 0.0
-0.004882 1.011912 0.0
-0.015600 1.015668 0.0
-0.027302 1.015329 0.0
-0.039015 1.015055 0.0
-0.050521 1.014365 0.0
-0.061280 1.012750 0.0
-0.070334 1.009663 0.0
-0.076292 1.004669 0.0
-0.077517 0.997747 0.0
-0.072611 0.989635 0.0
-0.061155 0.981932 0.0
-0.044278 0.976544 0.0
-0.024474 0.974632 0.0
-0.004664 0.976104 0.0
0.012899 0.979686 0.0
0.026841 0.984691 0.0
0.036493 0.990142 0.0
0.041891 0.995295 0.0
0.043514 0.999716 0.0
0.042055 1.003238 0.0
0.038241 1.005879 0.0
0.032728 1.007769 0.0
0.026043 1.009090 0.0
0.018577 1.010055 0.0
0.010597 1.010951 0.0
0.003253 1.007484 0.0
-0.007057 1.023851 0.0
-0.022191 1.029581 0.0
-0.038529 1.029456 0.0
-0.055214 1.029327 0.0
-0.072020 1.028405 0.0
-0.088255 1.025704 0.0
-0.102541 1.020049 0.0
-0.112673 1.010374 0.0
-0.115785 0.996378 0.0
-0.109113 0.979426 0.0
-0.091469 0.963040 0.0
-0.064683 0.951772 0.0
-0.033366 0.948284 0.0
-0.002674 0.951951 0.0
0.023754 0.959848 0.0
0.043991 0.970351 0.0
0.057379 0.981441 0.0
0.064283 0.991694 0.0
0.065644 1.000332 0.0
0.062631 1.007094 0.0
0.056393 1.012075 0.0
0.047917 1.015563 0.0
0.037972 1.017925 0.0
0.027112 1.019546 0.0
0.015715 1.020838 0.0
0.004960 1.015696 0.0
-0.009193 1.040101 0.0
-0.028675 1.047947 0.0
-0.049681 1.048435 0.0
-0.071617 1.048969 0.0
-0.094421 1.048373 0.0
-0.117424 1.044974 0.0
-0.138932 1.036572 0.0
-0.155777 1.020828 0.0
-0.163183 0.996442 0.0
-0.155697 0.965204 0.0
-0.130032 0.933953 0.0
-0.088949 0.912991 0.0
-0.041267 0.908066 0.0
0.003859 0.916350 0.0
0.041022 0.931858 0.0
0.068032 0.951095 0.0
0.084734 0.970605 0.0
0.092233 0.988127 0.0
0.092241 1.002530 0.0
0.086603 1.013546 0.0
0.077005 1.021460 0.0
0.064813 1.026845 0.0
0.051041 1.030360 0.0
0.036375 1.032636 0.0
0.021253 1.034268 0.0
0.006809 1.027465 0.0
-0.011182 1.060476 0.0
-0.034749 1.070622 0.0
-0.060286 1.072303 0.0
-0.087628 1.074379 0.0
-0.117126 1.075265 0.0
-0.148496 1.072454 0.0
-0.180129 1.062232 0.0
-0.208038 1.039922 0.0
-0.224730 1.001447 0.0
-0.219416 0.947399 0.0
-0.183021 0.889698 0.0
-0.119201 0.852342 0.0
-0.046372 0.848203 0.0
0.018421 0.866294 0.0
0.068378 0.894794 0.0
0.102176 0.927350 0.0
0.121052 0.958772 0.0
0.127513 0.986001 0.0
0.124453 1.007709 0.0
0.114639 1.023818 0.0
0.100406 1.035019 0.0
0.083531 1.042353 0.0
0.065242 1.046914 0.0
0.046304 1.049685 0.0
0.027143 1.051504 0.0
0.008771 1.043045 0.0
-0.012882 1.084539 0.0
-0.039979 1.097223 0.0
-0.069583 1.100843 0.0
-0.102110 1.105708 0.0
-0.138648 1.109973 0.0
-0.179908 1.110376 0.0
-0.225368 1.101403 0.0
-0.271367 1.074660 0.0
-0.307586 1.019619 0.0
-0.313108 0.929434 0.0
-0.262304 0.820466 0.0
-0.157846 0.753295 0.0
-0.043579 0.760154 0.0
0.047523 0.798449 0.0
0.111606 0.848599 0.0
0.150728 0.900625 0.0
0.169264 0.948085 0.0
0.171931 0.987561 0.0
0.163240 1.017899 0.0
0.147110 1.039572 0.0
0.126609 1.054000 0.0
0.103900 1.062957 0.0
0.080345 1.068155 0.0
0.056685 1.071040 0.0
0.033235 1.072761 0.0
0.010790 1.062605 0.0
-0.014128 1.111548 0.0
-0.043836 1.127020 0.0
-0.076559 1.133374 0.0
-0.113339 1.142483 0.0
-0.156225 1.152623 0.0
-0.207568 1.160328 0.0
-0.269487 1.158829 0.0
-0.341896 1.135643 0.0
-0.416012 1.068972 0.0
-0.456583 0.926174 0.0
-0.391856 0.708196 0.0
-0.207589 0.576840 0.0
-0.018212 0.632966 0.0
0.104158 0.712165 0.0
0.179132 0.795826 0.0
0.218969 0.874441 0.0
0.232483 0.942219 0.0
0.227052 0.996191 0.0
0.209100 1.035911 0.0
0.183860 1.062929 0.0
0.155133 1.079871 0.0
0.125342 1.089585 0.0
0.095815 1.094610 0.0
0.067102 1.096957 0.0
0.039267 1.098129 0.0
0.012777 1.086172 0.0
-0.014768 1.140444 0.0
-0.045813 1.158877 0.0
-0.080169 1.168596 0.0
-0.119383 1.183254 0.0
-0.166664 1.202021 0.0
-0.227513 1.223121 0.0
-0.312174 1.242616 0.0
-0.438008 1.250098 0.0
-0.622431 1.213056 0.0
-0.823277 1.023508 0.0
-0.698548 0.421406 0.0
-0.246055 0.226870 0.0
0.072191 0.475312 0.0
0.204949 0.614689 0.0
0.279841 0.743435 0.0
0.311839 0.854997 0.0
0.313228 0.946760 0.0
0.293648 1.016662 0.0
0.261621 1.065419 0.0
0.223855 1.096426 0.0
0.184760 1.114197 0.0
0.146728 1.123080 0.0
0.110738 1.126633 0.0
0.076898 1.127486 0.0
0.044844 1.127490 0.0
0.014598 1.113547 0.0
-0.014720 1.169932 0.0
-0.045607 1.191321 0.0
-0.079653 1.204553 0.0
-0.118241 1.225099 0.0
-0.163989 1.253205 0.0
-0.219944 1.288740 0.0
-0.286974 1.328688 0.0
-0.354250 1.357136 0.0
-0.379951 1.316141 0.0
-0.187243 1.030751 0.0
0.240039 0.185164 0.0
0.240039 0.128884 0.0
0.177158 0.211077 0.0
0.386740 0.532286 0.0
0.430246 0.707442 0.0
0.436566 0.852673 0.0
0.414223 0.970038 0.0
0.371577 1.055610 0.0
0.319028 1.111047 0.0
0.264757 1.142835 0.0
0.213263 1.158378 0.0
0.166238 1.163956 0.0
0.123768 1.164217 0.0
0.085171 1.162338 0.0
0.049449 1.160414 0.0
0.016086 1.144231 0.0
-0.014026 1.198678 0.0
-0.043361 1.222797 0.0
-0.075304 1.239065 0.0
-0.110590 1.264463 0.0
-0.150408 1.299406 0.0
-0.194499 1.342585 0.0
-0.237361 1.384736 0.0
-0.261397 1.392401 0.0
-0.231983 1.277164 0.0
-0.099235 0.856741 0.0
0.000000 0.072696 0.0
-0.000000 0.205421 0.0
0.000000 0.137481 0.0
0.245824 0.268847 0.0
0.529147 0.658862 0.0
0.561582 0.862497 0.0
0.526255 1.017883 0.0
0.456057 1.120608 0.0
0.376686 1.177968 0.0
0.302213 1.204657 0.0
0.237111 1.213152 0.0
0.181296 1.212023 0.0
0.133162 1.206754 0.0
0.090820 1.200741 0.0
0.052477 1.196076 0.0
0.017046 1.177363 0.0
-0.012845 1.225550 0.0
-0.039605 1.252019 0.0
-0.068256 1.270437 0.0
-0.098790 1.298910 0.0
-0.131142 1.337128 0.0
-0.163181 1.380993 0.0
-0.188126 1.414133 0.0
-0.192515 1.391429 0.0
-0.160054 1.216262 0.0
-0.089981 0.725100 0.0
-0.023648 -0.043955 0.0
0.000000 0.071989 0.0
-0.000000 0.193953 0.0
0.000000 0.107861 0.0
0.302874 0.337405 0.0
0.632911 0.840398 0.0
0.622942 1.085279 0.0
0.530017 1.216335 0.0
0.422438 1.269191 0.0
0.328012 1.282334 0.0
0.251035 1.277554 0.0
0.188633 1.265838 0.0
0.136942 1.252765 0.0
0.092697 1.241318 0.0
0.053331 1.233207 0.0
0.017292 1.211702 0.0
-0.011390 1.249785 0.0
-0.035035 1.278188 0.0
-0.059895 1.297780 0.0
-0.085333 1.327538 0.0
-0.110474 1.365994 0.0
-0.132459 1.406152 0.0
-0.145149 1.426608 0.0
-0.139572 1.377765 0.0
-0.109028 1.166922 0.0
-0.062116 0.657454 0.0
-0.035652 -0.068856 0.0
-0.017075 -0.016867 0.0
0.000000 0.070575 0.0
-0.000000 0.159517 0.0
0.000000 0.070028 0.0
0.365582 0.474378 0.0
0.688425 1.165149 0.0
0.571780 1.346035 0.0
0.437356 1.381494 0.0
0.330598 1.371216 0.0
0.248776 1.347470 0.0
0.184950 1.322150 0.0
0.133359 1.299734 0.0
0.089876 1.282077 0.0
0.051554 1.270136 0.0
0.016686 1.245680 0.0
-0.009869 1.271045 0.0
-0.030314 1.301018 0.0
-0.051446 1.320942 0.0
-0.072181 1.350550 0.0
-0.091175 1.387117 0.0
-0.105345 1.421184 0.0
-0.109384 1.428305 0.0
-0.097164 1.358271 0.0
-0.066372 1.125080 0.0
-0.019769 0.605780 0.0
-0.010393 -0.053021 0.0
-0.013773 -0.047192 0.0
0.000092 -0.001319 0.0
0.000000 0.070570 0.0
-0.000000 0.118819 0.0
0.000000 0.103334 0.0
0.167498 1.108149 0.0
0.350024 1.404914 0.0
0.341137 1.465925 0.0
0.284867 1.449814 0.0
0.222732 1.412830 0.0
0.167834 1.375515 0.0
0.121547 1.344246 0.0
0.082001 1.320595 0.0
0.046995 1.304946 0.0
0.015184 1.277550 0.0
-0.008449 1.289362 0.0
-0.025955 1.320651 0.0
-0.043815 1.340301 0.0
-0.060673 1.368784 0.0
-0.074924 1.402128 0.0
-0.083406 1.428825 0.0
-0.081313 1.422610 0.0
-0.063920 1.334354 0.0
-0.030956 1.085241 0.0
0.028608 0.539451 0.0
0.044237 -0.011697 0.0
0.031983 -0.072883 0.0
0.070519 -0.028027 0.0
0.048661 0.043711 0.0
-0.148188 0.080461 0.0
-0.148188 0.025976 0.0
0.100052 0.917957 0.0
0.229784 1.360207 0.0
0.252583 1.496719 0.0
0.225299 1.502574 0.0
0.182680 1.464823 0.0
0.140345 1.420754 0.0
0.102673 1.382966 0.0
0.069604 1.354491 0.0
0.039906 1.335752 0.0
0.012863 1.305597 0.0
-0.007233 1.305044 0.0
-0.022278 1.337520 0.0
-0.037554 1.356570 0.0
-0.051587 1.383407 0.0
-0.062660 1.412829 0.0
-0.067546 1.431492 0.0
-0.061588 1.411893 0.0
-0.040695 1.306784 0.0
-0.002754 1.041907 0.0
0.065501 0.454966 0.0
0.107780 0.014879 0.0
0.120614 -0.100039 0.0
0.170819 -0.089611 0.0
0.263349 0.029679 0.0
0.307041 0.023945 0.0
0.206023 0.067766 0.0
0.144483 0.802080 0.0
0.181335 1.319098 0.0
0.186341 1.510024 0.0
0.165907 1.536987 0.0
0.136429 1.502507 0.0
0.106426 1.455408 0.0
0.078784 1.413626 0.0
0.053782 1.381902 0.0
0.030836 1.360985 0.0
0.009892 1.328351 0.0
-0.006259 1.318536 0.0
-0.019394 1.352207 0.0
-0.032850 1.370614 0.0
-0.045189 1.395734 0.0
-0.054713 1.421100 0.0
-0.058106 1.431500 0.0
-0.050403 1.398224 0.0
-0.026968 1.276124 0.0
0.015499 0.992159 0.0
0.085259 0.366699 0.0
0.141722 0.004405 0.0
0.175022 -0.135697 0.0
0.225595 -0.154732 0.0
0.289385 -0.061521 0.0
0.309604 0.051232 0.0
0.234820 0.216282 0.0
0.159551 0.790373 0.0
0.138630 1.314874 0.0
0.122645 1.525228 0.0
0.104752 1.560110 0.0
0.086587 1.527027 0.0
0.068827 1.478650 0.0
0.051868 1.434985 0.0
0.035798 1.401615 0.0
0.020480 1.379535 0.0
0.006492 1.344735 0.0
-0.005494 1.330289 0.0
-0.017202 1.365298 0.0
-0.029526 1.383303 0.0
-0.041227 1.407087 0.0
-0.050810 1.428855 0.0
-0.054940 1.431267 0.0
-0.048003 1.383818 0.0
-0.023531 1.242624 0.0
0.022740 0.936922 0.0
0.086925 0.287990 0.0
0.138305 -0.024730 0.0
0.174758 -0.176315 0.0
0.218873 -0.208801 0.0
0.262392 -0.114760 0.0
0.272665 0.073980 0.0
0.210622 0.330361 0.0
0.121932 0.840251 0.0
0.069499 1.338350 0.0
0.047631 1.539606 0.0
0.039562 1.571694 0.0
0.034839 1.538331 0.0
0.029820 1.490126 0.0
0.023787 1.446501 0.0
0.016927 1.413029 0.0
0.009573 1.390793 0.0
0.002906 1.354132 0.0
-0.004837 1.340619 0.0
-0.015394 1.377234 0.0
-0.027034 1.395329 0.0
-0.038885 1.418613 0.0
-0.049918 1.437944 0.0
-0.057086 1.433475 0.0
-0.054199 1.371785 0.0
-0.032045 1.208030 0.0
0.015717 0.877483 0.0
0.067076 0.231885 0.0
0.098667 -0.051597 0.0
0.123528 -0.210761 0.0
0.151258 -0.246200 0.0
0.172563 -0.142186 0.0
0.163110 0.100587 0.0
0.095268 0.433640 0.0
0.009276 0.911654 0.0
-0.032297 1.360954 0.0
-0.034824 1.541397 0.0
-0.025510 1.568659 0.0
-0.015512 1.536090 0.0
-0.008101 1.489974 0.0
-0.003656 1.448242 0.0
-0.001614 1.416106 0.0
-0.001161 1.394617 0.0
-0.000611 1.356427 0.0
-0.004135 1.349591 0.0
-0.013490 1.388175 0.0
-0.024487 1.407025 0.0
-0.036742 1.431023 0.0
-0.050007 1.449832 0.0
-0.062100 1.440849 0.0
-0.067029 1.366453 0.0
-0.053707 1.177888 0.0
-0.010865 0.817022 0.0
0.020025 0.210097 0.0
0.021910 -0.063287 0.0
0.025599 -0.227622 0.0
0.027351 -0.258822 0.0
0.014305 -0.137823 0.0
-0.020999 0.140979 0.0
-0.075676 0.515767 0.0
-0.123883 0.963724 0.0
-0.133841 1.360415 0.0
-0.113183 1.523805 0.0
-0.085974 1.549727 0.0
-0.061715 1.520764 0.0
-0.042784 1.478958 0.0
-0.028814 1.440843 0.0
-0.018677 1.411327 0.0
-0.011055 1.391321 0.0
-0.003848 1.351967 0.0
-0.003213 1.356939 0.0
-0.010919 1.397888 0.0
-0.020786 1.418175 0.0
-0.032906 1.444248 0.0
-0.048037 1.465002 0.0
-0.065504 1.455239 0.0
-0.080668 1.372155 0.0
-0.082477 1.160673 0.0
-0.059410 0.768328 0.0
-0.058201 0.226691 0.0
-0.087127 -0.052839 0.0
-0.107767 -0.221118 0.0
-0.129421 -0.245424 0.0
-0.158706 -0.108889 0.0
-0.191810 0.180453 0.0
-0.222317 0.561478 0.0
-0.237456 0.981359 0.0
-0.220177 1.335459 0.0
-0.179709 1.487635 0.0
-0.137180 1.516159 0.0
-0.100856 1.493750 0.0
-0.072224 1.458410 0.0
-0.050239 1.425437 0.0
-0.033258 1.399615 0.0
-0.019528 1.381679 0.0
-0.006622 1.341497 0.0
-0.001918 1.362070 0.0
-0.007174 1.405719 0.0
-0.014897 1.427934 0.0
-0.025476 1.457188 0.0
-0.040602 1.482317 0.0
-0.061559 1.476349 0.0
-0.086407 1.391058 0.0
-0.106484 1.163657 0.0
-0.116683 0.752476 0.0
-0.150808 0.275458 0.0
-0.205312 -0.018175 0.0
-0.245997 -0.194456 0.0
-0.278434 -0.217995 0.0
-0.305339 -0.080127 0.0
-0.324065 0.203522 0.0
-0.331967 0.576817 0.0
-0.321483 0.970674 0.0
-0.283770 1.291153 0.0
-0.229044 1.436748 0.0
-0.175585 1.471058 0.0
-0.130540 1.457483 0.0
-0.094752 1.430256 0.0
-0.066745 1.403598 0.0
-0.044547 1.382276 0.0
-0.026106 1.366847 0.0
-0.008779 1.326096 0.0
-0.000180 1.364168 0.0
-0.001965 1.410662 0.0
-0.006212 1.434962 0.0
-0.013273 1.467800 0.0
-0.025245 1.498803 0.0
-0.045257 1.500832 0.0
-0.075537 1.421702 0.0
-0.112932 1.190485 0.0
-0.157327 0.780243 0.0
-0.224716 0.349205 0.0
-0.302312 0.040178 0.0
-0.360735 -0.153702 0.0
-0.398725 -0.188323 0.0
-0.418110 -0.063510 0.0
-0.419074 0.206595 0.0
-0.404670 0.567242 0.0
-0.373630 0.938724 0.0
-0.321953 1.233713 0.0
-0.258832 1.376341 0.0
-0.199290 1.418463 0.0
-0.149300 1.415042 0.0
-0.109262 1.396871 0.0
-0.077517 1.377231 0.0
-0.051972 1.360900 0.0
-0.030451 1.348260 0.0
-0.010206 1.307111 0.0
0.002013 1.362336 0.0
0.004715 1.411577 0.0
0.005224 1.437785 0.0
0.003541 1.473721 0.0
-0.001995 1.510389 0.0
-0.015041 1.522305 0.0
-0.042014 1.457483 0.0
-0.088451 1.238536 0.0
-0.157043 0.845179 0.0
-0.248344 0.442958 0.0
-0.346955 0.122633 0.0
-0.427814 -0.096875 0.0
-0.477221 -0.157752 0.0
-0.493151 -0.058765 0.0
-0.479160 0.188823 0.0
-0.443960 0.535408 0.0
-0.395705 0.891263 0.0
-0.335297 1.169091 0.0
-0.269050 1.311596 0.0
-0.207929 1.362546 0.0
-0.156644 1.369685 0.0
-0.115270 1.360817 0.0
-0.082142 1.348413 0.0
-0.055219 1.337250 0.0
-0.032364 1.327533 0.0
-0.010838 1.286067 0.0
0.004569 1.355754 0.0
0.012547 1.407477 0.0
0.018772 1.435152 0.0
0.023745 1.473064 0.0
0.026584 1.513741 0.0
0.024486 1.534097 0.0
0.010979 1.486171 0.0
-0.027619 1.294883 0.0
-0.103413 0.933218 0.0
-0.207289 0.550096 0.0
-0.318718 0.225536 0.0
-0.424249 -0.013389 0.0
-0.499614 -0.116465 0.0
-0.526227 -0.057509 0.0
-0.507141 0.154490 0.0
-0.455554 0.482954 0.0
-0.392001 0.831910 0.0
-0.326321 1.102356 0.0
-0.261239 1.247000 0.0
-0.202296 1.307077 0.0
-0.152906 1.324479 0.0
-0.112858 1.324600 0.0
-0.080590 1.319234 0.0
-0.054220 1.313136 0.0
-0.031788 1.306360 0.0
-0.010652 1.264578 0.0
0.007329 1.343857 0.0
0.021011 1.397714 0.0
0.033433 1.426268 0.0
0.045630 1.464779 0.0
0.057520 1.507297 0.0
0.067173 1.532987 0.0
0.069242 1.498720 0.0
0.051391 1.338782 0.0
-0.007087 1.023589 0.0
-0.109009 0.665524 0.0
-0.228757 0.341286 0.0
-0.346618 0.094252 0.0
-0.449608 -0.045750 0.0
-0.508077 -0.043142 0.0
-0.502862 0.115821 0.0
-0.446004 0.413178 0.0
-0.369050 0.761180 0.0
-0.298942 1.037297 0.0
-0.237980 1.186015 0.0
-0.183983 1.255123 0.0
-0.139012 1.282072 0.0
-0.102543 1.290490 0.0
-0.073132 1.291664 0.0
-0.049111 1.290315 0.0
-0.028783 1.286421 0.0
-0.009664 1.244262 0.0
0.010106 1.326422 0.0
0.029514 1.382059 0.0
0.048115 1.410899 0.0
0.067397 1.448669 0.0
0.087967 1.490947 0.0
0.108568 1.519083 0.0
0.124539 1.494585 0.0
0.124593 1.360715 0.0
0.091041 1.093686 0.0
0.013463 0.774927 0.0
-0.101550 0.466643 0.0
-0.230189 0.215396 0.0
-0.348334 0.054241 0.0
-0.435240 0.002242 0.0
-0.462850 0.092832 0.0
-0.419578 0.336037 0.0
-0.335073 0.676862 0.0
-0.258855 0.975288 0.0
-0.202557 1.130764 0.0
-0.155047 1.208868 0.0
-0.116234 1.244542 0.0
-0.085101 1.260417 0.0
-0.060248 1.267474 0.0
-0.040180 1.270416 0.0
-0.023499 1.269310 0.0
-0.007921 1.226676 0.0
0.012722 1.303594 0.0
0.037501 1.360700 0.0
0.061820 1.389337 0.0
0.087501 1.425268 0.0
0.115648 1.465630 0.0
0.145452 1.493994 0.0
0.172633 1.476521 0.0
0.186543 1.364815 0.0
0.170956 1.138724 0.0
0.117021 0.861402 0.0
0.026153 0.586049 0.0
-0.094969 0.345751 0.0
-0.223167 0.170228 0.0
-0.329910 0.079904 0.0
-0.388975 0.101845 0.0
-0.375335 0.270111 0.0
-0.296822 0.579771 0.0
-0.213577 0.912916 0.0
-0.158517 1.081777 0.0
-0.117679 1.169508 0.0
-0.085935 1.213345 0.0
-0.061395 1.235942 0.0
-0.042509 1.248211 0.0
-0.027812 1.254915 0.0
-0.016150 1.256468 0.0
-0.005483 1.213272 0.0
0.015029 1.275843 0.0
0.044518 1.334184 0.0
0.073775 1.362278 0.0
0.104815 1.395607 0.0
0.139077 1.432882 0.0
0.176038 1.459977 0.0
0.211713 1.447682 0.0
0.236125 1.355333 0.0
0.234352 1.165568 0.0
0.197506 0.925340 0.0
0.127776 0.682708 0.0
0.030771 0.467219 0.0
-0.085589 0.293318 0.0
-0.199923 0.177891 0.0
-0.283215 0.146215 0.0
-0.306899 0.235785 0.0
-0.253918 0.482603 0.0
-0.168942 0.841864 0.0
-0.109193 1.038020 0.0
-0.073939 1.137173 0.0
-0.049306 1.189303 0.0
-0.032179 1.218316 0.0
-0.020488 1.235260 0.0
-0.012467 1.245147 0.0
-0.006995 1.249101 0.0
-0.002406 1.205383 0.0
0.016918 1.243895 0.0
0.050242 1.303318 0.0
0.083449 1.330681 0.0
0.118646 1.360967 0.0
0.157460 1.394446 0.0
0.199591 1.419321 0.0
0.241389 1.410865 0.0
0.273765 1.335362 0.0
0.283343 1.177733 0.0
0.261428 0.971936 0.0
0.209019 0.758251 0.0
0.132686 0.565014 0.0
0.039808 0.404761 0.0
-0.062046 0.282637 0.0
-0.154630 0.217344 0.0
-0.209483 0.243193 0.0
-0.196498 0.409229 0.0
-0.123830 0.757593 0.0
-0.058090 0.996800 0.0
-0.025601 1.110650 0.0
-0.007118 1.172711 0.0
0.001991 1.208673 0.0
0.005246 1.229957 0.0
0.005313 1.242362 0.0
0.003600 1.248127 0.0
0.001196 1.204173 0.0
0.018319 1.208659 0.0
0.054468 1.269082 0.0
0.090537 1.295639 0.0
0.128645 1.322703 0.0
0.170513 1.352027 0.0
0.216032 1.374090 0.0
0.261985 1.368345 0.0
0.300365 1.307126 0.0
0.319520 1.177236 0.0
0.311292 1.002576 0.0
0.275530 0.815782 0.0
0.217514 0.641831 0.0
0.144476 0.493861 0.0
0.063269 0.376599 0.0
-0.019030 0.298265 0.0
-0.087486 0.285581 0.0
-0.113114 0.379485 0.0
-0.070928 0.672484 0.0
-0.007716 0.952957 0.0
0.026713 1.087577 0.0
0.040120 1.163894 0.0
0.040277 1.208223 0.0
0.033822 1.233607 0.0
0.024804 1.247664 0.0
0.015055 1.254288 0.0
0.005051 1.210420 0.0
0.019192 1.171148 0.0
0.057088 1.232548 0.0
0.094899 1.258293 0.0
0.134709 1.282132 0.0
0.178261 1.307179 0.0
0.225632 1.326049 0.0
0.274112 1.321952 0.0
0.316888 1.272363 0.0
0.344069 1.165666 0.0
0.348250 1.018193 0.0
0.328392 0.855785 0.0
0.288305 0.699931 0.0
0.233937 0.563167 0.0
0.171276 0.451161 0.0
0.105537 0.371740 0.0
0.042756 0.343343 0.0
-0.004188 0.394294 0.0
-0.000147 0.611447 0.0
0.047073 0.903561 0.0
0.082467 1.067151 0.0
0.090009 1.163371 0.0
0.080596 1.218002 0.0
0.063639 1.247239 0.0
0.044855 1.261834 0.0
0.026616 1.268106 0.0
0.008875 1.224346 0.0
0.019523 1.132433 0.0
0.058064 1.194825 0.0
0.096503 1.219767 0.0
0.136880 1.240472 0.0
0.180900 1.261266 0.0
0.228808 1.276683 0.0
0.278443 1.273202 0.0
0.324209 1.232571 0.0
0.357922 1.144565 0.0
0.373056 1.019978 0.0
0.367970 0.878944 0.0
0.345166 0.739664 0.0
0.309279 0.613689 0.0
0.265101 0.507479 0.0
0.216128 0.430134 0.0
0.164952 0.398906 0.0
0.116029 0.434598 0.0
0.093234 0.589897 0.0
0.112811 0.858315 0.0
0.138380 1.051433 0.0
0.138499 1.171427 0.0
0.119521 1.238339 0.0
0.092160 1.271219 0.0
0.063737 1.285061 0.0
0.037265 1.289589 0.0
0.012324 1.245545 0.0
0.019308 1.093602 0.0
0.057396 1.157026 0.0
0.095383 1.181140 0.0
0.135274 1.198831 0.0
0.178687 1.215474 0.0
0.226005 1.227250 0.0
0.275610 1.223393 0.0
0.323086 1.189138 0.0
0.361864 1.115507 0.0
0.386391 1.009375 0.0
0.394733 0.886291 0.0
0.388400 0.761454 0.0
0.370873 0.645311 0.0
0.345521 0.545388 0.0
0.313757 0.472962 0.0
0.275493 0.445518 0.0
0.231950 0.480451 0.0
0.195562 0.603226 0.0
0.187133 0.833839 0.0
0.192400 1.045074 0.0
0.181499 1.188568 0.0
0.152889 1.268787 0.0
0.116084 1.304937 0.0
0.079222 1.316629 0.0
0.045753 1.317962 0.0
0.014999 1.272868 0.0
0.018553 1.055741 0.0
0.055105 1.120247 0.0
0.091601 1.143436 0.0
0.130036 1.158209 0.0
0.171889 1.170829 0.0
0.217632 1.178833 0.0
0.266155 1.173682 0.0
0.314148 1.143381 0.0
0.356578 1.080054 0.0
0.388974 0.987905 0.0
0.409486 0.878907 0.0
0.419039 0.765619 0.0
0.419972 0.657740 0.0
0.413572 0.564712 0.0
0.398412 0.500560 0.0
0.371844 0.482752 0.0
0.333468 0.525136 0.0
0.290138 0.638261 0.0
0.259086 0.838285 0.0
0.240372 1.054076 0.0
0.214821 1.216018 0.0
0.176394 1.308374 0.0
0.131860 1.346689 0.0
0.088894 1.354704 0.0
0.050758 1.351492 0.0
0.016491 1.304358 0.0
0.017265 1.019923 0.0
0.051216 1.085562 0.0
0.085226 1.107615 0.0
0.121314 1.119507 0.0
0.160751 1.128241 0.0
0.204038 1.132391 0.0
0.250513 1.125125 0.0
0.297896 1.096561 0.0
0.342661 1.039678 0.0
0.381679 0.956868 0.0
0.413694 0.857416 0.0
0.439243 0.752008 0.0
0.458778 0.650882 0.0
0.470162 0.566586 0.0
0.468515 0.515493 0.0
0.449411 0.513491 0.0
0.412434 0.569751 0.0
0.363147 0.686263 0.0
0.314947 0.869533 0.0
0.274530 1.081959 0.0
0.233420 1.254795 0.0
0.185913 1.355530 0.0
0.136302 1.393680 0.0
0.090665 1.396316 0.0
0.051176 1.387504 0.0
0.016469 1.337319 0.0
0.015449 0.987210 0.0
0.045754 1.054019 0.0
0.076331 1.074571 0.0
0.109248 1.083547 0.0
0.145484 1.088529 0.0
0.185507 1.088795 0.0
0.229040 1.078713 0.0
0.274735 1.049894 0.0
0.320783 0.995531 0.0
0.366055 0.916726 0.0
0.410217 0.821381 0.0
0.452437 0.720274 0.0
0.489252 0.626266 0.0
0.513870 0.555200 0.0
0.518856 0.523540 0.0
0.500292 0.543111 0.0
0.459764 0.617635 0.0
0.403659 0.743772 0.0
0.342900 0.920983 0.0
0.286064 1.127763 0.0
0.232009 1.304156 0.0
0.178100 1.407585 0.0
0.127322 1.442015 0.0
0.083373 1.437566 0.0
0.046469 1.422647 0.0
0.014782 1.368571 0.0
0.013099 0.958662 0.0
0.038729 1.026632 0.0
0.064984 1.045127 0.0
0.093966 1.051092 0.0
0.126266 1.052447 0.0
0.162290 1.048830 0.0
0.202104 1.035330 0.0
0.245234 1.004452 0.0
0.292435 0.947725 0.0
0.345495 0.866202 0.0
0.403613 0.769626 0.0
0.461427 0.671995 0.0
0.509517 0.589640 0.0
0.537655 0.539071 0.0
0.539336 0.533002 0.0
0.514175 0.577375 0.0
0.466787 0.671286 0.0
0.404289 0.808724 0.0
0.335528 0.985550 0.0
0.268655 1.186905 0.0
0.206920 1.360804 0.0
0.151482 1.460283 0.0
0.104731 1.486845 0.0
0.067298 1.474118 0.0
0.036912 1.453386 0.0
0.011538 1.394891 0.0
0.010188 0.935374 0.0
0.030137 1.004341 0.0
0.051252 1.020048 0.0
0.075560 1.022881 0.0
0.103227 1.020689 0.0
0.134671 1.013121 0.0
0.170356 0.995540 0.0
0.210941 0.960528 0.0
0.261355 0.894034 0.0
0.325506 0.802683 0.0
0.397160 0.703372 0.0
0.463163 0.614432 0.0
0.509902 0.552374 0.0
0.528811 0.529290 0.0
0.518577 0.551335 0.0
0.483345 0.619435 0.0
0.429355 0.730605 0.0
0.362962 0.878297 0.0
0.290912 1.056788 0.0
0.220480 1.252972 0.0
0.157930 1.419021 0.0
0.107680 1.507755 0.0
0.070864 1.522940 0.0
0.044337 1.501983 0.0
0.023632 1.476613 0.0
0.007120 1.413549 0.0
0.006660 0.918526 0.0
0.019965 0.987937 0.0
0.035208 1.000094 0.0
0.054054 0.999682 0.0
0.076449 0.993826 0.0
0.103102 0.981886 0.0
0.135145 0.959047 0.0
0.175445 0.916136 0.0
0.233395 0.830063 0.0
0.309401 0.726496 0.0
0.386122 0.631183 0.0
0.445168 0.561572 0.0
0.475867 0.527795 0.0
0.476702 0.534125 0.0
0.452122 0.581316 0.0
0.408224 0.668583 0.0
0.350373 0.793298 0.0
0.283305 0.949066 0.0
0.212323 1.129050 0.0
0.144744 1.318721 0.0
0.089523 1.471043 0.0
0.052208 1.543299 0.0
0.030504 1.545915 0.0
0.017575 1.518463 0.0
0.008316 1.490096 0.0
0.002112 1.422781 0.0
0.002476 0.909389 0.0
0.008265 0.977979 0.0
0.016939 0.986135 0.0
0.029431 0.982303 0.0
0.046083 0.972158 0.0
0.068426 0.954557 0.0
0.098749 0.924011 0.0
0.143484 0.866137 0.0
0.211387 0.754210 0.0
0.290821 0.646909 0.0
0.355853 0.569017 0.0
0.392689 0.527855 0.0
0.399858 0.523644 0.0
0.382447 0.554851 0.0
0.346695 0.620922 0.0
0.297489 0.722082 0.0
0.238489 0.856650 0.0
0.173582 1.017689 0.0
0.107963 1.197028 0.0
0.050582 1.375704 0.0
0.011867 1.507996 0.0
-0.006113 1.561641 0.0
-0.010635 1.553800 0.0
-0.009829 1.522702 0.0
-0.007449 1.492736 0.0
-0.002998 1.421895 0.0
-0.002171 0.909084 0.0
-0.004672 0.974996 0.0
-0.003423 0.979195 0.0
0.001834 0.971494 0.0
0.012644 0.955505 0.0
0.031997 0.929515 0.0
0.063706 0.887021 0.0
0.116349 0.805748 0.0
0.188283 0.674761 0.0
0.254227 0.580980 0.0
0.292926 0.531215 0.0
0.302606 0.519142 0.0
0.289102 0.538692 0.0
0.258768 0.587549 0.0
0.216087 0.666657 0.0
0.164205 0.777435 0.0
0.106239 0.918262 0.0
0.046818 1.080403 0.0
-0.006552 1.253302 0.0
-0.044478 1.414738 0.0
-0.061288 1.524488 0.0
-0.059934 1.561773 0.0
-0.049003 1.547259 0.0
-0.035806 1.515240 0.0
-0.022542 1.484554 0.0
-0.007906 1.410991 0.0
-0.006956 0.918212 0.0
-0.018380 0.979793 0.0
-0.025487 0.980257 0.0
-0.027994 0.967682 0.0
-0.022690 0.943205 0.0
-0.004725 0.904497 0.0
0.030741 0.844863 0.0
0.087799 0.738206 0.0
0.149445 0.608723 0.0
0.188155 0.542363 0.0
0.198252 0.521036 0.0
0.186628 0.531265 0.0
0.159843 0.566857 0.0
0.121961 0.627601 0.0
0.075554 0.715693 0.0
0.023987 0.831848 0.0
-0.027685 0.973489 0.0
-0.074022 1.130933 0.0
-0.109141 1.291261 0.0
-0.126626 1.432190 0.0
-0.124016 1.521236 0.0
-0.106419 1.546073 0.0
-0.082675 1.528284 0.0
-0.058959 1.497302 0.0
-0.036123 1.466392 0.0
-0.012345 1.390740 0.0
-0.011678 0.936846 0.0
-0.032325 0.993229 0.0
-0.048315 0.989918 0.0
-0.058572 0.970784 0.0
-0.058230 0.934458 0.0
-0.041266 0.878314 0.0
-0.003606 0.797920 0.0
0.047325 0.677160 0.0
0.085578 0.569870 0.0
0.096001 0.532084 0.0
0.085557 0.531664 0.0
0.061509 0.556309 0.0
0.027922 0.602186 0.0
-0.012499 0.670575 0.0
-0.056890 0.763516 0.0
-0.101742 0.880444 0.0
-0.142684 1.017507 0.0
-0.174770 1.165337 0.0
-0.192884 1.310092 0.0
-0.192671 1.430631 0.0
-0.174257 1.501770 0.0
-0.144051 1.517736 0.0
-0.110443 1.499270 0.0
-0.078363 1.470521 0.0
-0.047609 1.439582 0.0
-0.016117 1.362279 0.0
-0.016101 0.964624 0.0
-0.045712 1.015709 0.0
-0.070487 1.008203 0.0
-0.088107 0.980375 0.0
-0.092563 0.928980 0.0
-0.078384 0.852650 0.0
-0.045753 0.753292 0.0
-0.011609 0.636713 0.0
0.001164 0.559292 0.0
-0.008075 0.541477 0.0
-0.029021 0.553661 0.0
-0.057673 0.587012 0.0
-0.091873 0.639271 0.0
-0.129708 0.711745 0.0
-0.168580 0.805608 0.0
-0.204983 0.919607 0.0
-0.234681 1.048985 0.0
-0.253201 1.184463 0.0
-0.256410 1.312289 0.0
-0.241862 1.413673 0.0
-0.211543 1.469995 0.0
-0.172341 1.480103 0.0
-0.131766 1.462722 0.0
-0.093521 1.436744 0.0
-0.056667 1.405751 0.0
-0.019106 1.327056 0.0
-0.019915 1.000640 0.0
-0.057544 1.046934 0.0
-0.090451 1.034661 0.0
-0.115112 0.996200 0.0
-0.125270 0.927769 0.0
-0.117731 0.832144 0.0
-0.098351 0.721786 0.0
-0.085160 0.620883 0.0
-0.090479 0.567667 0.0
-0.108722 0.560583 0.0
-0.132933 0.579712 0.0
-0.161471 0.618151 0.0
-0.193101 0.673961 0.0
-0.226067 0.747855 0.0
-0.257780 0.840084 0.0
-0.284867 0.948620 0.0
-0.303448 1.068252 0.0
-0.309675 1.189943 0.0
-0.300501 1.300845 0.0
-0.275054 1.385122 0.0
-0.236490 1.429663 0.0
-0.191551 1.436293 0.0
-0.146620 1.421026 0.0
-0.104287 1.397862 0.0
-0.063168 1.366659 0.0
-0.021265 1.286684 0.0
-0.022758 1.043313 0.0
-0.066739 1.085870 0.0
-0.106712 1.068605 0.0
-0.138380 1.018584 0.0
-0.156103 0.933266 0.0
-0.159435 0.822440 0.0
-0.156983 0.709658 0.0
-0.161590 0.624428 0.0
-0.177022 0.584874 0.0
-0.198124 0.582721 0.0
-0.221763 0.605425 0.0
-0.247474 0.646688 0.0
-0.274464 0.704044 0.0
-0.301050 0.777324 0.0
-0.324703 0.865981 0.0
-0.342298 0.967404 0.0
-0.350452 1.076202 0.0
-0.346063 1.183831 0.0
-0.327134 1.278855 0.0
-0.293984 1.348515 0.0
-0.250353 1.384076 0.0
-0.202411 1.388999 0.0
-0.155328 1.376305 0.0
-0.110769 1.355691 0.0
-0.067135 1.324076 0.0
-0.022595 1.242825 0.0
-0.024249 1.090320 0.0
-0.072194 1.130787 0.0
-0.117731 1.109198 0.0
-0.156370 1.048297 0.0
-0.183408 0.948314 0.0
-0.199977 0.827293 0.0
-0.213667 0.716044 0.0
-0.231131 0.640112 0.0
-0.252031 0.605521 0.0
-0.273339 0.604485 0.0
-0.294330 0.628291 0.0
-0.315411 0.670614 0.0
-0.336299 0.727997 0.0
-0.355552 0.799211 0.0
-0.370815 0.883009 0.0
-0.379282 0.976437 0.0
-0.378121 1.074163 0.0
-0.365000 1.168361 0.0
-0.338841 1.249238 0.0
-0.300774 1.306914 0.0
-0.254670 1.335941 0.0
-0.205878 1.340400 0.0
-0.158413 1.330355 0.0
-0.113229 1.311898 0.0
-0.068692 1.279700 0.0
-0.023131 1.197099 0.0
-0.024039 1.138609 0.0
-0.072848 1.179252 0.0
-0.121811 1.155234 0.0
-0.166788 1.085877 0.0
-0.203749 0.974734 0.0
-0.233605 0.847299 0.0
-0.260919 0.737041 0.0
-0.287752 0.663411 0.0
-0.312340 0.627711 0.0
-0.333163 0.624426 0.0
-0.350706 0.646884 0.0
-0.366170 0.688566 0.0
-0.380038 0.744800 0.0
-0.391436 0.813060 0.0
-0.398385 0.891372 0.0
-0.398450 0.976606 0.0
-0.389332 1.063715 0.0
-0.369390 1.145746 0.0
-0.338274 1.214578 0.0
-0.297586 1.262820 0.0
-0.251003 1.287347 0.0
-0.202964 1.292164 0.0
-0.156477 1.284638 0.0