# vtk DataFile Version 3.0
Scalar Field
ASCII
DATASET RECTILINEAR_GRID
DIMENSIONS 26 100 1
X_COORDINATES 26 double
0.050000 0.150000 0.250000 0.350000 0.450000 0.550000 0.650000 0.750000 0.850000 0.950000 1.050000 1.150000 1.250000 1.350000 1.450000 1.550000 1.650000 1.750000 1.850000 1.950000 2.050000 2.150000 2.250000 2.350000 2.450000 2.550000 
Y_COORDINATES 100 double
0.050000 0.150000 0.250000 0.350000 0.450000 0.550000 0.650000 0.750000 0.850000 0.950000 1.050000 1.150000 1.250000 1.350000 1.450000 1.550000 1.650000 1.750000 1.850000 1.950000 2.050000 2.150000 2.250000 2.350000 2.450000 2.550000 2.650000 2.750000 2.850000 2.950000 3.050000 3.150000 3.250000 3.350000 3.450000 3.550000 3.650000 3.750000 3.850000 3.950000 4.050000 4.150000 4.250000 4.350000 4.450000 4.550000 4.650000 4.750000 4.850000 4.950000 5.050000 5.150000 5.250000 5.350000 5.450000 5.550000 5.650000 5.750000 5.850000 5.950000 6.050000 6.150000 6.250000 6.350000 6.450000 6.550000 6.650000 6.750000 6.850000 6.950000 7.050000 7.150000 7.250000 7.350000 7.450000 7.550000 7.650000 7.750000 7.850000 7.950000 8.050000 8.150000 8.250000 8.350000 8.450000 8.550000 8.650000 8.750000 8.850000 8.950000 9.050000 9.150000 9.250000 9.350000 9.450000 9.550000 9.650000 9.750000 9.850000 9.950000 
Z_COORDINATES 1 double
0.0
POINT_DATA 2600
SCALARS Skalarfeld double 1
LOOKUP_TABLE default
0.152496
0.155954
0.164998
0.179214
0.198421
0.222356
0.250486
0.281832
0.314859
0.347467
0.377211
0.401745
0.419340
0.429237
0.431688
0.427731
0.418753
0.406353
0.392091
0.377341
0.363217
0.350570
0.340023
0.332032
0.326990
0.325485
0.148588
0.152909
0.162172
0.176485
0.195835
0.220063
0.248723
0.280909
0.315084
0.349031
0.380064
0.405544
0.423547
0.433301
0.435179
0.430455
0.420597
0.407339
0.392325
0.376967
0.362379
0.349393
0.338598
0.330396
0.325043
0.322623
0.140268
0.144818
0.154194
0.168616
0.188265
0.213221
0.243307
0.277848
0.315357
0.353301
0.388236
0.416577
0.435774
0.445044
0.445199
0.438185
0.425752
0.410020
0.392865
0.375790
0.359911
0.345998
0.334553
0.325879
0.320127
0.317316
0.127111
0.131609
0.140864
0.155200
0.175049
0.200874
0.233007
0.271307
0.314575
0.359848
0.402191
0.435920
0.457151
0.465252
0.462135
0.450917
0.433919
0.413932
0.393192
0.373322
0.355393
0.340053
0.327651
0.318346
0.312177
0.309119
0.108847
0.113053
0.121811
0.135580
0.155091
0.181338
0.215485
0.258496
0.310169
0.367400
0.422642
0.465628
0.489713
0.495160
0.486482
0.468435
0.444400
0.418144
0.392342
0.368684
0.348094
0.330987
0.317468
0.307486
0.300927
0.297688
0.085321
0.088940
0.096634
0.108964
0.126934
0.152128
0.186864
0.234108
0.296390
0.372276
0.450277
0.509263
0.536545
0.536115
0.518538
0.489881
0.455708
0.420974
0.388718
0.360511
0.336930
0.317985
0.303410
0.292865
0.286033
0.282693
0.056576
0.059243
0.065094
0.074663
0.089024
0.110110
0.141334
0.188500
0.260226
0.363632
0.484679
0.573017
0.601535
0.589003
0.557295
0.512821
0.464908
0.419565
0.379851
0.346841
0.320437
0.300004
0.284760
0.273989
0.267130
0.263828
0.022994
0.024305
0.027388
0.032509
0.040329
0.052298
0.071640
0.105765
0.172158
0.307256
0.519732
0.667495
0.686441
0.652954
0.598028
0.531661
0.466653
0.409341
0.362143
0.325037
0.296792
0.275845
0.260755
0.250383
0.243915
0.240862
-0.014559
-0.014966
-0.015531
-0.016572
-0.018535
-0.021991
-0.027608
-0.036219
-0.043254
0.052318
0.591584
0.800342
0.781937
0.718578
0.628282
0.535550
0.452103
0.383473
0.330687
0.291821
0.263943
0.244300
0.230734
0.221715
0.216236
0.213722
-0.054655
-0.056985
-0.061760
-0.070196
-0.084751
-0.110507
-0.158378
-0.252766
-0.453152
-0.822075
-0.115246
0.832364
0.864385
0.741600
0.621349
0.506789
0.408080
0.332436
0.279274
0.243539
0.219935
0.204440
0.194353
0.187959
0.184225
0.182601
-0.095356
-0.099541
-0.108379
-0.123766
-0.149402
-0.191991
-0.262449
-0.375029
-0.538905
-0.722604
-0.639006
0.000000
0.785890
0.707396
0.559957
0.427332
0.317037
0.243499
0.200736
0.176843
0.163529
0.156071
0.151890
0.149590
0.148432
0.148065
-0.134479
-0.140210
-0.152367
-0.173089
-0.206228
-0.257547
-0.332774
-0.430031
-0.527128
-0.578049
-0.555407
-0.563085
0.000000
0.590639
0.473882
0.284843
0.153468
0.099212
0.088111
0.090189
0.095269
0.100360
0.104598
0.107783
0.109935
0.111134
-0.169927
-0.176787
-0.191306
-0.215557
-0.253008
-0.307891
-0.381441
-0.462569
-0.522151
-0.540647
-0.551405
-0.570763
-0.588341
0.000000
0.303554
0.133225
-0.136510
-0.124005
-0.060168
-0.012770
0.019118
0.040556
0.054990
0.064511
0.070371
0.073282
-0.199941
-0.207525
-0.223518
-0.249829
-0.289547
-0.346031
-0.418834
-0.494100
-0.538848
-0.539599
-0.556010
-0.579470
-0.605920
-0.611736
0.000000
-0.304865
-0.742955
-0.415559
-0.223916
-0.118042
-0.056013
-0.017674
0.006810
0.022423
0.031801
0.036316
-0.223252
-0.231203
-0.247938
-0.275191
-0.315847
-0.373248
-0.448050
-0.529882
-0.586517
-0.592536
-0.598091
-0.611046
-0.613827
-0.617552
-0.589232
-0.638906
-0.669249
-0.480503
-0.308352
-0.190631
-0.115243
-0.066925
-0.035654
-0.015638
-0.003627
0.002100
-0.239149
-0.247131
-0.264023
-0.291268
-0.331536
-0.388206
-0.463854
-0.555715
-0.643675
-0.683120
-0.680304
-0.667066
-0.638351
-0.601944
-0.560912
-0.608563
-0.574848
-0.460719
-0.330160
-0.226210
-0.152857
-0.102923
-0.069399
-0.047467
-0.034150
-0.027793
-0.247254
-0.254948
-0.271234
-0.297357
-0.335823
-0.390137
-0.463913
-0.557338
-0.658561
-0.735809
-0.750304
-0.712041
-0.652063
-0.589696
-0.552704
-0.552030
-0.500636
-0.408538
-0.314211
-0.232652
-0.170316
-0.125128
-0.093388
-0.071978
-0.058728
-0.052355
-0.247969
-0.255050
-0.270069
-0.294061
-0.329243
-0.378836
-0.446391
-0.532709
-0.628227
-0.704455
-0.731353
-0.701466
-0.627781
-0.550743
-0.488967
-0.451015
-0.401838
-0.340597
-0.277056
-0.219734
-0.172297
-0.135490
-0.108261
-0.089204
-0.077123
-0.071244
-0.242158
-0.248371
-0.261594
-0.282619
-0.313228
-0.356020
-0.413798
-0.486953
-0.567366
-0.632277
-0.656611
-0.633264
-0.570952
-0.487400
-0.404579
-0.340253
-0.297044
-0.265641
-0.231484
-0.196587
-0.164362
-0.137145
-0.115694
-0.100003
-0.089766
-0.084710
-0.231012
-0.236190
-0.247259
-0.264760
-0.289979
-0.324777
-0.371046
-0.428696
-0.491300
-0.542224
-0.562515
-0.544550
-0.491607
-0.415189
-0.325704
-0.249195
-0.209609
-0.198449
-0.187138
-0.170486
-0.151665
-0.133440
-0.117779
-0.105679
-0.097514
-0.093408
-0.215881
-0.219949
-0.228701
-0.242447
-0.262014
-0.288584
-0.323274
-0.365751
-0.411412
-0.449011
-0.465123
-0.452513
-0.411274
-0.346117
-0.265616
-0.186338
-0.148726
-0.147733
-0.150567
-0.147193
-0.138449
-0.127328
-0.116532
-0.107625
-0.101383
-0.098183
-0.198111
-0.201084
-0.207534
-0.217599
-0.231730
-0.250579
-0.274715
-0.303779
-0.334815
-0.360790
-0.372684
-0.364243
-0.333707
-0.283461
-0.219916
-0.152087
-0.112998
-0.114137
-0.126195
-0.130683
-0.127638
-0.120960
-0.113544
-0.107044
-0.102334
-0.099885
-0.178922
-0.180881
-0.185195
-0.191885
-0.201134
-0.213228
-0.228394
-0.246362
-0.265491
-0.281804
-0.289666
-0.284248
-0.263271
-0.227570
-0.181096
-0.132509
-0.103601
-0.105897
-0.118704
-0.122729
-0.120452
-0.115408
-0.109779
-0.104789
-0.101123
-0.099234
-0.159326
-0.160401
-0.162847
-0.166623
-0.171741
-0.178259
-0.186221
-0.195486
-0.205360
-0.213980
-0.218253
-0.214968
-0.202234
-0.180360
-0.152110
-0.124400
-0.111144
-0.117199
-0.122881
-0.120700
-0.115941
-0.110602
-0.105545
-0.101316
-0.098271
-0.096731
-0.140109
-0.140455
-0.141358
-0.142754
-0.144567
-0.146733
-0.149212
-0.151993
-0.155011
-0.157793
-0.159101
-0.157281
-0.151289
-0.141547
-0.130224
-0.122298
-0.124925
-0.133312
-0.128121
-0.119596
-0.112030
-0.105748
-0.100672
-0.096765
-0.094062
-0.092736
-0.121840
-0.121616
-0.121315
-0.120880
-0.120199
-0.119164
-0.117715
-0.115944
-0.114170
-0.112785
-0.111845
-0.111016
-0.110210
-0.110198
-0.112689
-0.120545
-0.135272
-0.137972
-0.127688
-0.116221
-0.106977
-0.100030
-0.094880
-0.091154
-0.088669
-0.087490
-0.104896
-0.104256
-0.103074
-0.101317
-0.098881
-0.095655
-0.091597
-0.086874
-0.082014
-0.077905
-0.075447
-0.075314
-0.078242
-0.085295
-0.097434
-0.114545
-0.132520
-0.131951
-0.121193
-0.109402
-0.099934
-0.092981
-0.087998
-0.084508
-0.082233
-0.081186
-0.089495
-0.088576
-0.086797
-0.084165
-0.080601
-0.076020
-0.070416
-0.064000
-0.057401
-0.051748
-0.048443
-0.048835
-0.054258
-0.065894
-0.083782
-0.105650
-0.118177
-0.118630
-0.109793
-0.099444
-0.090891
-0.084564
-0.080057
-0.076933
-0.074920
-0.074019
-0.075727
-0.074644
-0.072507
-0.069365
-0.065177
-0.059894
-0.053548
-0.046381
-0.039045
-0.032755
-0.029144
-0.029942
-0.036822
-0.050799
-0.070653
-0.091140
-0.101979
-0.102456
-0.095697
-0.087411
-0.080363
-0.075068
-0.071271
-0.068637
-0.066947
-0.066214
-0.063580
-0.062426
-0.060121
-0.056754
-0.052321
-0.046815
-0.040301
-0.033040
-0.025665
-0.019368
-0.015823
-0.016907
-0.024404
-0.038941
-0.058568
-0.075426
-0.084600
-0.085350
-0.080543
-0.074390
-0.069028
-0.064934
-0.061969
-0.059900
-0.058575
-0.058026
-0.052973
-0.051816
-0.049487
-0.046104
-0.041699
-0.036296
-0.029994
-0.023057
-0.016076
-0.010153
-0.006872
-0.008087
-0.015539
-0.029558
-0.046586
-0.060313
-0.067694
-0.068635
-0.065495
-0.061279
-0.057532
-0.054635
-0.052517
-0.051030
-0.050083
-0.049722
-0.043774
-0.042664
-0.040412
-0.037160
-0.032961
-0.027869
-0.022003
-0.015622
-0.009262
-0.003887
-0.000906
-0.002027
-0.008766
-0.021645
-0.035464
-0.046187
-0.051981
-0.053081
-0.051311
-0.048736
-0.046406
-0.044591
-0.043259
-0.042325
-0.041743
-0.041560
-0.035831
-0.034799
-0.032692
-0.029663
-0.025778
-0.021111
-0.015792
-0.010065
-0.004399
0.000399
0.003142
0.002365
-0.003987
-0.014422
-0.025108
-0.033297
-0.037849
-0.039123
-0.038456
-0.037205
-0.036040
-0.035138
-0.034486
-0.034043
-0.033790
-0.033764
-0.028988
-0.028050
-0.026128
-0.023371
-0.019856
-0.015662
-0.010922
-0.005861
-0.000870
0.003405
0.006018
0.005124
-0.000012
-0.007787
-0.015737
-0.021897
-0.025537
-0.026995
-0.027186
-0.026952
-0.026693
-0.026515
-0.026418
-0.026383
-0.026410
-0.026516
-0.023097
-0.022259
-0.020538
-0.018075
-0.014945
-0.011229
-0.007055
-0.002619
0.001754
0.005587
0.007676
0.007104
0.003590
-0.001891
-0.007604
-0.012193
-0.015174
-0.016789
-0.017607
-0.018107
-0.018510
-0.018872
-0.019197
-0.019482
-0.019732
-0.019939
-0.018026
-0.017287
-0.015768
-0.013598
-0.010843
-0.007585
-0.003940
-0.000065
0.003717
0.006884
0.008806
0.008802
0.006677
0.003063
-0.000895
-0.004288
-0.006776
-0.008482
-0.009709
-0.010695
-0.011541
-0.012273
-0.012896
-0.013414
-0.013828
-0.014107
-0.013664
-0.013014
-0.011689
-0.009797
-0.007396
-0.004560
-0.001407
0.001889
0.005098
0.007853
0.009695
0.010175
0.009141
0.006956
0.004326
0.001839
-0.000249
-0.001956
-0.003399
-0.004658
-0.005763
-0.006719
-0.007530
-0.008199
-0.008720
-0.009043
-0.009920
-0.009336
-0.008196
-0.006563
-0.004494
-0.002061
0.000634
0.003448
0.006191
0.008606
0.010376
0.011199
0.010947
0.009792
0.008133
0.006334
0.004596
0.002978
0.001483
0.000120
-0.001096
-0.002157
-0.003062
-0.003811
-0.004391
-0.004734
-0.006694
-0.006191
-0.005216
-0.003819
-0.002049
0.000028
0.002324
0.004722
0.007075
0.009195
0.010869
0.011889
0.012141
0.011682
0.010707
0.009430
0.008013
0.006559
0.005132
0.003792
0.002575
0.001502
0.000577
-0.000195
-0.000792
-0.001135
-0.003927
-0.003503
-0.002675
-0.001488
0.000018
0.001783
0.003733
0.005775
0.007792
0.009649
0.011196
0.012287
0.012826
0.012802
0.012291
0.011411
0.010288
0.009043
0.007764
0.006530
0.005389
0.004367
0.003476
0.002727
0.002144
0.001817
-0.001566
-0.001212
-0.000515
0.000489
0.001763
0.003258
0.004911
0.006646
0.008371
0.009987
0.011385
0.012459
0.013127
0.013350
0.013142
0.012559
0.011700
0.010679
0.009588
0.008507
0.007487
0.006558
0.005738
0.005040
0.004495
0.004194
0.000438
0.000732
0.001315
0.002160
0.003235
0.004496
0.005893
0.007362
0.008833
0.010228
0.011466
0.012467
0.013164
0.013510
0.013489
0.013126
0.012493
0.011689
0.010796
0.009885
0.009007
0.008193
0.007464
0.006837
0.006343
0.006074
0.002130
0.002372
0.002858
0.003566
0.004468
0.005530
0.006706
0.007947
0.009196
0.010391
0.011470
0.012370
0.013037
0.013428
0.013518
0.013314
0.012867
0.012255
0.011548
0.010805
0.010071
0.009379
0.008750
0.008202
0.007767
0.007533
0.003549
0.003747
0.004150
0.004741
0.005496
0.006386
0.007374
0.008419
0.009474
0.010491
0.011419
0.012211
0.012820
0.013212
0.013362
0.013269
0.012969
0.012519
0.011975
0.011385
0.010787
0.010213
0.009682
0.009215
0.008841
0.008641
0.004730
0.004892
0.005225
0.005716
0.006346
0.007090
0.007918
0.008795
0.009683
0.010543
0.011335
0.012019
0.012562
0.012932
0.013110
0.013093
0.012904
0.012584
0.012176
0.011718
0.011242
0.010774
0.010336
0.009945
0.009629
0.009462
0.005706
0.005837
0.006111
0.006519
0.007043
0.007663
0.008355
0.009088
0.009834
0.010558
0.011229
0.011816
0.012291
0.012629
0.012816
0.012849
0.012741
0.012522
0.012224
0.011875
0.011503
0.011129
0.010774
0.010453
0.010189
0.010051
0.006505
0.006612
0.006836
0.007173
0.007608
0.008124
0.008700
0.009313
0.009937
0.010545
0.011112
0.011612
0.012023
0.012327
0.012512
0.012575
0.012526
0.012383
0.012171
0.011910
0.011624
0.011330
0.011046
0.010786
0.010570
0.010457
0.007154
0.007239
0.007423
0.007701
0.008061
0.008490
0.008969
0.009479
0.010000
0.010510
0.010988
0.011413
0.011768
0.012038
0.012215
0.012295
0.012286
0.012199
0.012052
0.011862
0.011645
0.011418
0.011193
0.010985
0.010809
0.010718
0.007674
0.007743
0.007892
0.008121
0.008419
0.008774
0.009172
0.009597
0.010032
0.010459
0.010861
0.011221
0.011527
0.011765
0.011930
0.012020
0.012037
0.011990
0.011893
0.011757
0.011596
0.011422
0.011247
0.011082
0.010940
0.010868
0.008086
0.008141
0.008262
0.008450
0.008696
0.008990
0.009320
0.009674
0.010036
0.010394
0.010732
0.011038
0.011300
0.011510
0.011662
0.011754
0.011788
0.011770
0.011710
0.011615
0.011497
0.011366
0.011232
0.011102
0.010988
0.010931
0.008406
0.008450
0.008548
0.008702
0.008905
0.009148
0.009422
0.009716
0.010018
0.010318
0.010602
0.010862
0.011088
0.011272
0.011410
0.011501
0.011545
0.011547
0.011513
0.011450
0.011366
0.011269
0.011166
0.011065
0.010974
0.010929
0.008649
0.008684
0.008764
0.008890
0.009057
0.009258
0.009485
0.009730
0.009982
0.010233
0.010473
0.010693
0.010887
0.011048
0.011173
0.011260
0.011310
0.011325
0.011310
0.011270
0.011212
0.011141
0.011063
0.010985
0.010914
0.010878
0.008828
0.008855
0.008920
0.009023
0.009160
0.009327
0.009515
0.009719
0.009930
0.010140
0.010342
0.010530
0.010696
0.010837
0.010949
0.011031
0.011083
0.011107
0.011105
0.011083
0.011044
0.010993
0.010935
0.010875
0.010819
0.010791
0.008953
0.008975
0.009026
0.009111
0.009224
0.009362
0.009518
0.009688
0.009864
0.010040
0.010211
0.010371
0.010514
0.010637
0.010737
0.010813
0.010865
0.010894
0.010902
0.010891
0.010867
0.010831
0.010789
0.010743
0.010699
0.010677
0.009034
0.009050
0.009092
0.009161
0.009254
0.009368
0.009498
0.009639
0.009787
0.009935
0.010080
0.010216
0.010339
0.010446
0.010535
0.010605
0.010655
0.010687
0.010700
0.010699
0.010685
0.010661
0.010631
0.010596
0.010561
0.010545
0.009077
0.009089
0.009123
0.009179
0.009256
0.009350
0.009458
0.009576
0.009700
0.009825
0.009947
0.010063
0.010169
0.010263
0.010342
0.010405
0.010453
0.010485
0.010503
0.010507
0.010501
0.010486
0.010464
0.010438
0.010411
0.010398
0.009088
0.009098
0.009125
0.009171
0.009234
0.009313
0.009403
0.009501
0.009605
0.009710
0.009814
0.009913
0.010004
0.010086
0.010156
0.010213
0.010258
0.010289
0.010309
0.010318
0.010317
0.010308
0.010293
0.010274
0.010252
0.010243
0.009074
0.009082
0.009103
0.009141
0.009193
0.009258
0.009333
0.009415
0.009503
0.009592
0.009680
0.009764
0.009843
0.009914
0.009975
0.010027
0.010068
0.010099
0.010119
0.010131
0.010134
0.010129
0.010119
0.010105
0.010088
0.010081
0.009038
0.009044
0.009061
0.009092
0.009135
0.009189
0.009252
0.009321
0.009394
0.009469
0.009544
0.009616
0.009684
0.009746
0.009800
0.009847
0.009884
0.009913
0.009934
0.009946
0.009952
0.009951
0.009945
0.009934
0.009921
0.009915
0.008985
0.008989
0.009003
0.009028
0.009064
0.009108
0.009161
0.009219
0.009280
0.009344
0.009408
0.009470
0.009528
0.009582
0.009630
0.009671
0.009705
0.009732
0.009752
0.009765
0.009772
0.009773
0.009770
0.009762
0.009752
0.009748
0.008916
0.008919
0.008930
0.008951
0.008980
0.009017
0.009061
0.009110
0.009162
0.009216
0.009270
0.009323
0.009374
0.009420
0.009462
0.009499
0.009530
0.009555
0.009574
0.009587
0.009595
0.009598
0.009596
0.009591
0.009582
0.009579
0.008835
0.008837
0.008846
0.008863
0.008887
0.008918
0.008955
0.008996
0.009040
0.009086
0.009132
0.009177
0.009221
0.009261
0.009298
0.009331
0.009358
0.009381
0.009399
0.009412
0.009420
0.009424
0.009423
0.009420
0.009413
0.009411
0.008743
0.008745
0.008752
0.008765
0.008786
0.008812
0.008842
0.008877
0.008914
0.008953
0.008993
0.009031
0.009069
0.009104
0.009137
0.009165
0.009190
0.009211
0.009227
0.009239
0.009247
0.009252
0.009252
0.009250
0.009245
0.009243
0.008643
0.008644
0.008649
0.008660
0.008677
0.008699
0.008725
0.008754
0.008786
0.008819
0.008852
0.008886
0.008918
0.008949
0.008977
0.009002
0.009024
0.009043
0.009058
0.009069
0.009077
0.009082
0.009083
0.009081
0.009077
0.009076
0.008535
0.008536
0.008540
0.008549
0.008563
0.008581
0.008603
0.008628
0.008654
0.008682
0.008711
0.008740
0.008768
0.008794
0.008819
0.008841
0.008861
0.008878
0.008891
0.008902
0.008909
0.008914
0.008915
0.008914
0.008911
0.008910
0.008421
0.008421
0.008425
0.008432
0.008444
0.008459
0.008477
0.008498
0.008521
0.008545
0.008569
0.008594
0.008618
0.008641
0.008663
0.008682
0.008700
0.008714
0.008727
0.008736
0.008743
0.008748
0.008749
0.008749
0.008746
0.008746
0.008302
0.008302
0.008305
0.008311
0.008321
0.008333
0.008349
0.008366
0.008386
0.008406
0.008427
0.008448
0.008469
0.008489
0.008508
0.008525
0.008540
0.008553
0.008564
0.008573
0.008579
0.008583
0.008585
0.008585
0.008583
0.008582
0.008178
0.008178
0.008180
0.008186
0.008194
0.008204
0.008217
0.008232
0.008249
0.008266
0.008284
0.008302
0.008320
0.008337
0.008354
0.008368
0.008382
0.008393
0.008403
0.008411
0.008417
0.008421
0.008423
0.008423
0.008421
0.008420
0.008051
0.008051
0.008053
0.008057
0.008064
0.008073
0.008083
0.008096
0.008110
0.008125
0.008140
0.008156
0.008171
0.008186
0.008200
0.008213
0.008225
0.008235
0.008244
0.008251
0.008256
0.008260
0.008261
0.008262
0.008260
0.008260
0.007921
0.007921
0.007922
0.007925
0.007931
0.007939
0.007948
0.007958
0.007970
0.007983
0.007996
0.008010
0.008023
0.008036
0.008048
0.008059
0.008069
0.008078
0.008086
0.008092
0.008097
0.008100
0.008102
0.008102
0.008101
0.008100
0.007788
0.007788
0.007789
0.007792
0.007796
0.007803
0.007810
0.007819
0.007830
0.007840
0.007852
0.007863
0.007874
0.007886
0.007896
0.007906
0.007915
0.007923
0.007929
0.007935
0.007939
0.007942
0.007943
0.007943
0.007942
0.007942
0.007653
0.007653
0.007653
0.007656
0.007660
0.007665
0.007672
0.007679
0.007688
0.007697
0.007707
0.007716
0.007726
0.007736
0.007745
0.007753
0.007761
0.007768
0.007774
0.007778
0.007782
0.007784
0.007786
0.007786
0.007785
0.007785
0.007516
0.007516
0.007516
0.007518
0.007521
0.007526
0.007531
0.007538
0.007545
0.007553
0.007561
0.007570
0.007578
0.007586
0.007594
0.007601
0.007608
0.007614
0.007619
0.007623
0.007626
0.007628
0.007629
0.007629
0.007628
0.007628
0.007378
0.007377
0.007378
0.007379
0.007382
0.007386
0.007390
0.007396
0.007402
0.007409
0.007416
0.007423
0.007430
0.007437
0.007444
0.007450
0.007456
0.007461
0.007465
0.007468
0.007471
0.007473
0.007474
0.007474
0.007473
0.007473
0.007238
0.007237
0.007237
0.007239
0.007241
0.007244
0.007248
0.007253
0.007258
0.007264
0.007270
0.007276
0.007282
0.007288
0.007294
0.007299
0.007304
0.007308
0.007311
0.007314
0.007317
0.007318
0.007319
0.007319
0.007318
0.007318
0.007097
0.007096
0.007096
0.007097
0.007099
0.007102
0.007105
0.007109
0.007114
0.007119
0.007124
0.007129
0.007134
0.007139
0.007144
0.007148
0.007152
0.007156
0.007159
0.007161
0.007163
0.007164
0.007165
0.007164
0.007164
0.007163
0.006954
0.006954
0.006954
0.006955
0.006957
0.006959
0.006962
0.006965
0.006969
0.006973
0.006978
0.006982
0.006986
0.006990
0.006994
0.006998
0.007001
0.007004
0.007007
0.007008
0.007010
0.007011
0.007011
0.007011
0.007010
0.007010
0.006811
0.006811
0.006811
0.006812
0.006813
0.006815
0.006818
0.006821
0.006824
0.006828
0.006831
0.006835
0.006839
0.006842
0.006845
0.006848
0.006851
0.006853
0.006855
0.006856
0.006857
0.006858
0.006858
0.006857
0.006857
0.006856
0.006668
0.006667
0.006668
0.006668
0.006669
0.006671
0.006673
0.006676
0.006679
0.006682
0.006685
0.006688
0.006691
0.006694
0.006696
0.006699
0.006701
0.006702
0.006704
0.006704
0.006705
0.006705
0.006705
0.006705
0.006704
0.006703
0.006523
0.006523
0.006523
0.006524
0.006525
0.006527
0.006528
0.006531
0.006533
0.006536
0.006538
0.006541
0.006543
0.006546
0.006548
0.006549
0.006551
0.006552
0.006553
0.006553
0.006553
0.006553
0.006553
0.006552
0.006551
0.006551
0.006378
0.006378
0.006378
0.006379
0.006380
0.006381
0.006383
0.006385
0.006388
0.006390
0.006392
0.006394
0.006396
0.006398
0.006399
0.006400
0.006401
0.006402
0.006402
0.006402
0.006402
0.006401
0.006400
0.006399
0.006398
0.006398
0.006233
0.006233
0.006233
0.006234
0.006235
0.006236
0.006238
0.006240
0.006242
0.006244
0.006246
0.006247
0.006249
0.006250
0.006251
0.006252
0.006252
0.006252
0.006252
0.006251
0.006250
0.006249
0.006248
0.006247
0.006246
0.006246
0.006087
0.006087
0.006087
0.006088
0.006089
0.006090
0.006092
0.006094
0.006096
0.006098
0.006100
0.006101
0.006102
0.006103
0.006103
0.006103
0.006103
0.006102
0.006101
0.006100
0.006099
0.006097
0.006096
0.006095
0.006093
0.006093
0.005940
0.005940
0.005940
0.005941
0.005943
0.005945
0.005946
0.005948
0.005950
0.005952
0.005954
0.005955
0.005956
0.005956
0.005956
0.005955
0.005954
0.005953
0.005951
0.005950
0.005948
0.005946
0.005944
0.005942
0.005941
0.005940
0.005793
0.005793
0.005794
0.005795
0.005796
0.005798
0.005801
0.005803
0.005805
0.005807
0.005808
0.005809
0.005809
0.005809
0.005809
0.005808
0.005806
0.005804
0.005802
0.005799
0.005796
0.005794
0.005791
0.005789
0.005787
0.005787
0.005645
0.005645
0.005646
0.005648
0.005650
0.005652
0.005655
0.005657
0.005659
0.005661
0.005663
0.005664
0.005664
0.005664
0.005662
0.005661
0.005658
0.005655
0.005652
0.005649
0.005645
0.005642
0.005639
0.005636
0.005634
0.005633
0.005496
0.005497
0.005498
0.005500
0.005503
0.005506
0.005509
0.005512
0.005514
0.005517
0.005518
0.005519
0.005519
0.005518
0.005517
0.005514
0.005511
0.005507
0.005503
0.005498
0.005494
0.005489
0.005485
0.005482
0.005479
0.005478
0.005346
0.005347
0.005349
0.005352
0.005355
0.005359
0.005363
0.005367
0.005370
0.005373
0.005374
0.005375
0.005375
0.005374
0.005372
0.005368
0.005364
0.005359
0.005354
0.005348
0.005342
0.005337
0.005332
0.005327
0.005324
0.005323
0.005196
0.005197
0.005199
0.005203
0.005208
0.005213
0.005218
0.005222
0.005226
0.005229
0.005231
0.005232
0.005232
0.005230
0.005227
0.005223
0.005218
0.005212
0.005205
0.005198
0.005191
0.005184
0.005177
0.005172
0.005168
0.005166
0.005043
0.005045
0.005049
0.005054
0.005060
0.005066
0.005072
0.005078
0.005083
0.005087
0.005090
0.005091
0.005090
0.005088
0.005085
0.005079
0.005073
0.005066
0.005057
0.005048
0.005039
0.005030
0.005021
0.005014
0.005009
0.005007
0.004889
0.004891
0.004896
0.004903
0.004911
0.004920
0.004928
0.004935
0.004941
0.004946
0.004949
0.004951
0.004950
0.004947
0.004943
0.004937
0.004929
0.004920
0.004909
0.004898
0.004886
0.004875
0.004864
0.004855
0.004849
0.004845
0.004732
0.004736
0.004743
0.004752
0.004762
0.004773
0.004784
0.004793
0.004801
0.004807
0.004811
0.004812
0.004812
0.004809
0.004804
0.004796
0.004787
0.004775
0.004763
0.004749
0.004734
0.004720
0.004706
0.004694
0.004685
0.004681
0.004571
0.004576
0.004586
0.004599
0.004613
0.004627
0.004641
0.004653
0.004662
0.004670
0.004674
0.004676
0.004676
0.004672
0.004666
0.004657
0.004646
0.004632
0.004617
0.004600
0.004582
0.004563
0.004545
0.004530
0.004518
0.004512
0.004405
0.004413
0.004427
0.004445
0.004464
0.004482
0.004499
0.004514
0.004526
0.004535
0.004541
0.004543
0.004542
0.004538
0.004531
0.004521
0.004508
0.004492
0.004473
0.004452
0.004429
0.004406
0.004383
0.004362
0.004346
0.004337
0.004231
0.004244
0.004264
0.004289
0.004315
0.004339
0.004360
0.004379
0.004393
0.004404
0.004411
0.004413
0.004412
0.004408
0.004400
0.004388
0.004372
0.004353
0.004331
0.004306
0.004278
0.004248
0.004218
0.004190
0.004167
0.004153
0.004046
0.004066
0.004098
0.004133
0.004167
0.004198
0.004225
0.004247
0.004264
0.004276
0.004284
0.004287
0.004286
0.004281
0.004271
0.004258
0.004240
0.004218
0.004192
0.004162
0.004128
0.004091
0.004052
0.004013
0.003978
0.003957
0.003841
0.003878
0.003927
0.003977
0.004023
0.004062
0.004094
0.004120
0.004139
0.004153
0.004162
0.004166
0.004164
0.004158
0.004147
0.004132
0.004112
0.004087
0.004058
0.004023
0.003982
0.003936
0.003885
0.003830
0.003778
0.003740
0.003603
0.003677
0.003756
0.003826
0.003884
0.003932
0.003970
0.003999
0.004021
0.004036
0.004045
0.004049
0.004047
0.004040
0.004028
0.004011
0.003989
0.003961
0.003928
0.003888
0.003841
0.003786
0.003721
0.003646
0.003563
0.003488
0.003297
0.003471
0.003595
0.003687
0.003757
0.003812
0.003854
0.003885
0.003909
0.003925
0.003934
0.003937
0.003935
0.003927
0.003914
0.003895
0.003871
0.003841
0.003805
0.003761
0.003709
0.003646
0.003568
0.003471
0.003343
0.003167
0.003119
0.003304
0.003443
0.003546
0.003622
0.003680
0.003724
0.003756
0.003780
0.003795
0.003804
0.003806
0.003802
0.003793
0.003778
0.003758
0.003732
0.003701
0.003662
0.003616
0.003560
0.003491
0.003406
0.003298
0.003154
0.002967
