# vtk DataFile Version 3.0
Vector Field
ASCII
DATASET RECTILINEAR_GRID
DIMENSIONS 26 100 1
X_COORDINATES 26 double
0.050000 0.150000 0.250000 0.350000 0.450000 0.550000 0.650000 0.750000 0.850000 0.950000 1.050000 1.150000 1.250000 1.350000 1.450000 1.550000 1.650000 1.750000 1.850000 1.950000 2.050000 2.150000 2.250000 2.350000 2.450000 2.550000 
Y_COORDINATES 100 double
0.050000 0.150000 0.250000 0.350000 0.450000 0.550000 0.650000 0.750000 0.850000 0.950000 1.050000 1.150000 1.250000 1.350000 1.450000 1.550000 1.650000 1.750000 1.850000 1.950000 2.050000 2.150000 2.250000 2.350000 2.450000 2.550000 2.650000 2.750000 2.850000 2.950000 3.050000 3.150000 3.250000 3.350000 3.450000 3.550000 3.650000 3.750000 3.850000 3.950000 4.050000 4.150000 4.250000 4.350000 4.450000 4.550000 4.650000 4.750000 4.850000 4.950000 5.050000 5.150000 5.250000 5.350000 5.450000 5.550000 5.650000 5.750000 5.850000 5.950000 6.050000 6.150000 6.250000 6.350000 6.450000 6.550000 6.650000 6.750000 6.850000 6.950000 7.050000 7.150000 7.250000 7.350000 7.450000 7.550000 7.650000 7.750000 7.850000 7.950000 8.050000 8.150000 8.250000 8.350000 8.450000 8.550000 8.650000 8.750000 8.850000 8.950000 9.050000 9.150000 9.250000 9.350000 9.450000 9.550000 9.650000 9.750000 9.850000 9.950000 
Z_COORDINATES 1 double
0.0
POINT_DATA 2600
VECTORS Vektorfeld double
-0.000734 1.000734 0.0
-0.002749 1.001280 0.0
-0.005192 1.001163 0.0
-0.007462 1.001106 0.0
-0.009597 1.001029 0.0
-0.011511 1.000885 0.0
-0.013031 1.000636 0.0
-0.013926 1.000258 0.0
-0.013942 0.999758 0.0
-0.012892 0.999192 0.0
-0.010749 0.998665 0.0
-0.007711 0.998297 0.0
-0.004170 0.998163 0.0
-0.000597 0.998263 0.0
0.002628 0.998513 0.0
0.005242 0.998873 0.0
0.007095 0.999274 0.0
0.008161 0.999659 0.0
0.008510 0.999992 0.0
0.008258 1.000260 0.0
0.007535 1.000463 0.0
0.006462 1.000610 0.0
0.005134 1.000718 0.0
0.003604 1.000812 0.0
0.001830 1.000962 0.0
0.000434 1.000434 0.0
-0.002676 1.004144 0.0
-0.008873 1.006083 0.0
-0.015835 1.005766 0.0
-0.022622 1.005559 0.0
-0.029117 1.005207 0.0
-0.035005 1.004508 0.0
-0.039743 1.003271 0.0
-0.042588 1.001363 0.0
-0.042723 0.998806 0.0
-0.039517 0.995887 0.0
-0.032856 0.993165 0.0
-0.023373 0.991276 0.0
-0.012341 0.990613 0.0
-0.001264 0.991163 0.0
0.008646 0.992479 0.0
0.016595 0.994343 0.0
0.022154 0.996392 0.0
0.025286 0.998341 0.0
0.026226 1.000021 0.0
0.025347 1.001362 0.0
0.023059 1.002371 0.0
0.019739 1.003095 0.0
0.015689 1.003610 0.0
0.011122 1.004017 0.0
0.006152 1.004502 0.0
0.001787 1.002654 0.0
-0.004800 1.011619 0.0
-0.015345 1.015350 0.0
-0.026844 1.014960 0.0
-0.038309 1.014616 0.0
-0.049506 1.013843 0.0
-0.059890 1.012144 0.0
-0.068507 1.008990 0.0
-0.073986 1.003967 0.0
-0.074720 0.997072 0.0
-0.069360 0.989055 0.0
-0.057534 0.981510 0.0
-0.040411 0.976325 0.0
-0.020511 0.974633 0.0
-0.000751 0.976305 0.0
0.016625 0.980050 0.0
0.030266 0.985182 0.0
0.039549 0.990712 0.0
0.044539 0.995900 0.0
0.045743 1.000319 0.0
0.043875 1.003811 0.0
0.039682 1.006404 0.0
0.033828 1.008237 0.0
0.026844 1.009502 0.0
0.019117 1.010419 0.0
0.010908 1.011280 0.0
0.003354 1.007795 0.0
-0.007004 1.023423 0.0
-0.022016 1.029104 0.0
-0.038192 1.028882 0.0
-0.054649 1.028616 0.0
-0.071138 1.027530 0.0
-0.086954 1.024657 0.0
-0.100718 1.018858 0.0
-0.110245 1.009105 0.0
-0.112714 0.995138 0.0
-0.105430 0.978345 0.0
-0.087274 0.962239 0.0
-0.060138 0.951336 0.0
-0.028664 0.948248 0.0
0.001981 0.952286 0.0
0.028169 0.960506 0.0
0.048027 0.971228 0.0
0.060955 0.982455 0.0
0.067353 0.992769 0.0
0.068197 1.001401 0.0
0.064686 1.008107 0.0
0.057991 1.012996 0.0
0.049113 1.016377 0.0
0.038826 1.018633 0.0
0.027678 1.020162 0.0
0.016036 1.021389 0.0
0.005064 1.016213 0.0
-0.009211 1.039638 0.0
-0.028712 1.047401 0.0
-0.049683 1.047732 0.0
-0.071498 1.048038 0.0
-0.094059 1.047158 0.0
-0.116668 1.043454 0.0
-0.137616 1.034773 0.0
-0.153749 1.018850 0.0
-0.160351 0.994463 0.0
-0.152068 0.963451 0.0
-0.125728 0.932637 0.0
-0.084181 0.912254 0.0
-0.036270 0.907945 0.0
0.008799 0.916873 0.0
0.045659 0.932871 0.0
0.072230 0.952434 0.0
0.088403 0.972147 0.0
0.095324 0.989757 0.0
0.094748 1.004146 0.0
0.088558 1.015063 0.0
0.078468 1.022825 0.0
0.065861 1.028033 0.0
0.051753 1.031372 0.0
0.036826 1.033499 0.0
0.021498 1.035022 0.0
0.006886 1.028163 0.0
-0.011322 1.060172 0.0
-0.035147 1.070193 0.0
-0.060879 1.071642 0.0
-0.088309 1.073372 0.0
-0.117737 1.073813 0.0
-0.148821 1.070492 0.0
-0.179904 1.059765 0.0
-0.206990 1.037077 0.0
-0.222657 0.998505 0.0
-0.216283 0.944752 0.0
-0.178993 0.887706 0.0
-0.114593 0.851237 0.0
-0.041504 0.847962 0.0
0.023217 0.867065 0.0
0.072812 0.896225 0.0
0.106103 0.929217 0.0
0.124384 0.960910 0.0
0.130208 0.988250 0.0
0.126518 1.009920 0.0
0.116127 1.025869 0.0
0.101407 1.036830 0.0
0.084152 1.043890 0.0
0.065592 1.048183 0.0
0.046479 1.050727 0.0
0.027215 1.052385 0.0
0.008789 1.043838 0.0
-0.013199 1.084693 0.0
-0.040903 1.097201 0.0
-0.071045 1.100507 0.0
-0.103994 1.104887 0.0
-0.140761 1.108494 0.0
-0.181954 1.108087 0.0
-0.226934 1.098232 0.0
-0.271962 1.070725 0.0
-0.306786 1.015348 0.0
-0.310793 0.925542 0.0
-0.258739 0.817573 0.0
-0.153642 0.751873 0.0
-0.039179 0.759775 0.0
0.051806 0.799547 0.0
0.115436 0.850519 0.0
0.153980 0.903088 0.0
0.171851 0.950886 0.0
0.173815 0.990486 0.0
0.164449 1.020740 0.0
0.147734 1.042154 0.0
0.126785 1.056215 0.0
0.103783 1.064763 0.0
0.080082 1.069572 0.0
0.056403 1.072132 0.0
0.033024 1.073623 0.0
0.010712 1.063339 0.0
-0.014675 1.112567 0.0
-0.045452 1.127808 0.0
-0.079183 1.133773 0.0
-0.116863 1.142250 0.0
-0.160439 1.151474 0.0
-0.212086 1.157948 0.0
-0.273684 1.154949 0.0
-0.344910 1.130263 0.0
-0.416976 1.062700 0.0
-0.455190 0.920412 0.0
-0.388421 0.703880 0.0
-0.203548 0.575596 0.0
-0.014596 0.632638 0.0
0.107462 0.713641 0.0
0.181980 0.798277 0.0
0.221198 0.877569 0.0
0.233961 0.945771 0.0
0.227726 0.999873 0.0
0.209024 1.039420 0.0
0.183190 1.066022 0.0
0.154082 1.082404 0.0
0.124138 1.091520 0.0
0.094660 1.095992 0.0
0.066160 1.097890 0.0
0.038651 1.098752 0.0
0.012561 1.086612 0.0
-0.015596 1.142838 0.0
-0.048276 1.160995 0.0
-0.084239 1.170280 0.0
-0.125009 1.184193 0.0
-0.173703 1.201801 0.0
-0.235610 1.221176 0.0
-0.320520 1.238229 0.0
-0.444946 1.242636 0.0
-0.625448 1.202895 0.0
-0.820990 1.013973 0.0
-0.693600 0.416161 0.0
-0.242439 0.227281 0.0
0.074379 0.475182 0.0
0.206956 0.616462 0.0
0.281490 0.746404 0.0
0.312843 0.858870 0.0
0.313337 0.951212 0.0
0.292753 1.021251 0.0
0.259818 1.069679 0.0
0.221412 1.100004 0.0
0.182024 1.116918 0.0
0.144041 1.124933 0.0
0.108381 1.127717 0.0
0.075077 1.127968 0.0
0.043693 1.127567 0.0
0.014203 1.113376 0.0
-0.015862 1.174296 0.0
-0.049032 1.195387 0.0
-0.085387 1.208205 0.0
-0.126333 1.227985 0.0
-0.174401 1.254770 0.0
-0.232328 1.288041 0.0
-0.300233 1.324179 0.0
-0.366091 1.346968 0.0
-0.387102 1.300077 0.0
-0.189201 1.013987 0.0
0.238748 0.177872 0.0
0.238748 0.128095 0.0
0.177568 0.211492 0.0
0.387364 0.534363 0.0
0.430485 0.710847 0.0
0.436186 0.857372 0.0
0.412755 0.975647 0.0
0.368755 1.061401 0.0
0.314992 1.116229 0.0
0.259972 1.146879 0.0
0.208305 1.161098 0.0
0.161618 1.165422 0.0
0.119867 1.164640 0.0
0.082236 1.161980 0.0
0.047627 1.159549 0.0
0.015466 1.143045 0.0
-0.015494 1.205653 0.0
-0.047786 1.229492 0.0
-0.082792 1.245461 0.0
-0.121316 1.270199 0.0
-0.164447 1.303754 0.0
-0.211494 1.344030 0.0
-0.255965 1.380565 0.0
-0.278890 1.379365 0.0
-0.244677 1.254479 0.0
-0.103889 0.830836 0.0
0.000000 0.067933 0.0
-0.000000 0.196426 0.0
0.000000 0.134926 0.0
0.246821 0.270568 0.0
0.530575 0.663023 0.0
0.561474 0.868597 0.0
0.523907 1.025420 0.0
0.451222 1.128313 0.0
0.369851 1.184451 0.0
0.294365 1.209162 0.0
0.229263 1.215584 0.0
0.174220 1.212666 0.0
0.127347 1.206020 0.0
0.086537 1.199041 0.0
0.049857 1.193778 0.0
0.016161 1.174673 0.0
-0.014616 1.235764 0.0
-0.044971 1.262028 0.0
-0.077423 1.280383 0.0
-0.112079 1.308456 0.0
-0.148770 1.345320 0.0
-0.184808 1.385549 0.0
-0.212192 1.410901 0.0
-0.215801 1.375564 0.0
-0.178154 1.186419 0.0
-0.099861 0.690199 0.0
-0.026365 -0.047545 0.0
0.000000 0.065330 0.0
-0.000000 0.185904 0.0
0.000000 0.104417 0.0
0.304891 0.340699 0.0
0.635314 0.849099 0.0
0.621216 1.096583 0.0
0.523405 1.227646 0.0
0.412108 1.277786 0.0
0.316131 1.287290 0.0
0.239463 1.279227 0.0
0.178517 1.265013 0.0
0.128852 1.250210 0.0
0.086862 1.237652 0.0
0.049811 1.228897 0.0
0.016113 1.206947 0.0
-0.013399 1.263779 0.0
-0.041157 1.292126 0.0
-0.070458 1.312038 0.0
-0.100849 1.341847 0.0
-0.131368 1.379139 0.0
-0.158517 1.414917 0.0
-0.174691 1.425091 0.0
-0.168754 1.359045 0.0
-0.132099 1.128635 0.0
-0.073100 0.610690 0.0
-0.035224 -0.079822 0.0
-0.014863 -0.014938 0.0
0.000000 0.067136 0.0
-0.000000 0.154716 0.0
0.000000 0.065416 0.0
0.368704 0.482518 0.0
0.690031 1.183590 0.0
0.563904 1.364577 0.0
0.422368 1.393688 0.0
0.313264 1.376469 0.0
0.232443 1.347537 0.0
0.171201 1.318892 0.0
0.122709 1.294487 0.0
0.082374 1.275701 0.0
0.047100 1.263172 0.0
0.015205 1.238265 0.0
-0.012000 1.289177 0.0
-0.036855 1.319341 0.0
-0.062878 1.340147 0.0
-0.089267 1.370518 0.0
-0.114682 1.406401 0.0
-0.135420 1.435542 0.0
-0.144516 1.429737 0.0
-0.133006 1.336952 0.0
-0.095317 1.076384 0.0
-0.037822 0.546447 0.0
-0.014872 -0.076407 0.0
-0.014872 -0.039617 0.0
-0.002979 -0.003837 0.0
0.000000 0.072463 0.0
-0.000000 0.118850 0.0
0.000000 0.112195 0.0
0.163036 1.138666 0.0
0.335073 1.434324 0.0
0.317904 1.482645 0.0
0.260078 1.454442 0.0
0.200668 1.409795 0.0
0.150096 1.368448 0.0
0.108292 1.335226 0.0
0.072903 1.310687 0.0
0.041686 1.294677 0.0
0.013435 1.266906 0.0
-0.010525 1.311702 0.0
-0.032396 1.343544 0.0
-0.055282 1.364853 0.0
-0.078246 1.395165 0.0
-0.099892 1.428814 0.0
-0.116644 1.450619 0.0
-0.122048 1.429159 0.0
-0.108037 1.312008 0.0
-0.069597 1.025200 0.0
-0.005717 0.476258 0.0
0.009306 -0.044192 0.0
-0.006906 -0.055620 0.0
0.027369 -0.036665 0.0
0.027277 0.023980 0.0
-0.145656 0.089714 0.0
-0.145656 0.031806 0.0
0.089904 0.966115 0.0
0.202190 1.402940 0.0
0.216722 1.516667 0.0
0.191006 1.503962 0.0
0.154407 1.456284 0.0
0.118826 1.408111 0.0
0.087214 1.368978 0.0
0.059284 1.340253 0.0
0.033993 1.321618 0.0
0.010934 1.291275 0.0
-0.009013 1.331239 0.0
-0.027899 1.364764 0.0
-0.047854 1.386475 0.0
-0.067999 1.416652 0.0
-0.087164 1.448138 0.0
-0.102164 1.463048 0.0
-0.106972 1.426943 0.0
-0.093531 1.286772 0.0
-0.055705 0.974172 0.0
0.004665 0.403036 0.0
0.023436 -0.004765 0.0
0.022932 -0.078332 0.0
0.081795 -0.107091 0.0
0.199424 -0.031756 0.0
0.284346 0.006715 0.0
0.204993 0.070579 0.0
0.121372 0.879599 0.0
0.132063 1.376133 0.0
0.133098 1.527909 0.0
0.121380 1.530154 0.0
0.102863 1.485209 0.0
0.082348 1.435282 0.0
0.062175 1.393593 0.0
0.043008 1.362735 0.0
0.024783 1.342651 0.0
0.007938 1.310147 0.0
-0.007443 1.347695 0.0
-0.023277 1.383028 0.0
-0.040394 1.405282 0.0
-0.058114 1.435710 0.0
-0.075759 1.465890 0.0
-0.090862 1.475399 0.0
-0.097968 1.426506 0.0
-0.088579 1.264379 0.0
-0.054349 0.924509 0.0
-0.007408 0.345388 0.0
0.009485 0.017220 0.0
0.023279 -0.113607 0.0
0.079653 -0.187054 0.0
0.159743 -0.149512 0.0
0.216607 -0.017316 0.0
0.163784 0.226787 0.0
0.074549 0.896247 0.0
0.050654 1.372689 0.0
0.051603 1.529370 0.0
0.053550 1.538464 0.0
0.051160 1.497807 0.0
0.044756 1.449603 0.0
0.035897 1.408303 0.0
0.025743 1.377347 0.0
0.014958 1.357049 0.0
0.004734 1.322819 0.0
-0.005743 1.360881 0.0
-0.018298 1.398232 0.0
-0.032413 1.421309 0.0
-0.047686 1.452677 0.0
-0.064145 1.483027 0.0
-0.080470 1.489690 0.0
-0.092303 1.431153 0.0
-0.090917 1.248957 0.0
-0.066225 0.881009 0.0
-0.042333 0.318055 0.0
-0.040857 0.026183 0.0
-0.028095 -0.149126 0.0
0.010654 -0.246658 0.0
0.054865 -0.214209 0.0
0.068710 -0.023328 0.0
0.013268 0.341064 0.0
-0.044440 0.928912 0.0
-0.045677 1.365156 0.0
-0.026749 1.517025 0.0
-0.008651 1.530763 0.0
0.003384 1.495862 0.0
0.009369 1.451966 0.0
0.010763 1.413404 0.0
0.009053 1.384111 0.0
0.005402 1.364720 0.0
0.001610 1.329163 0.0
-0.003829 1.370453 0.0
-0.012672 1.410057 0.0
-0.023303 1.434231 0.0
-0.035552 1.467277 0.0
-0.050237 1.499570 0.0
-0.067626 1.506861 0.0
-0.085444 1.443633 0.0
-0.096068 1.245715 0.0
-0.090611 0.854101 0.0
-0.097263 0.327724 0.0
-0.119832 0.037607 0.0
-0.123265 -0.169880 0.0
-0.111976 -0.275942 0.0
-0.106326 -0.234787 0.0
-0.118783 -0.004138 0.0
-0.147161 0.405694 0.0
-0.158441 0.933269 0.0
-0.133993 1.337587 0.0
-0.096025 1.487698 0.0
-0.062511 1.508478 0.0
-0.037836 1.481438 0.0
-0.021381 1.443950 0.0
-0.011310 1.409954 0.0
-0.005761 1.383722 0.0
-0.003119 1.366118 0.0
-0.001168 1.329606 0.0
-0.001644 1.375926 0.0
-0.006176 1.417959 0.0
-0.012569 1.443353 0.0
-0.020703 1.478537 0.0
-0.031979 1.514272 0.0
-0.048397 1.525967 0.0
-0.071036 1.464983 0.0
-0.096014 1.259968 0.0
-0.118462 0.856840 0.0
-0.159357 0.372532 0.0
-0.209466 0.065478 0.0
-0.236834 -0.166950 0.0
-0.250211 -0.276784 0.0
-0.261333 -0.228473 0.0
-0.269664 0.010337 0.0
-0.269551 0.419484 0.0
-0.248864 0.910073 0.0
-0.203429 1.290901 0.0
-0.150181 1.443167 0.0
-0.104592 1.473907 0.0
-0.070167 1.456910 0.0
-0.045687 1.427543 0.0
-0.028910 1.399513 0.0
-0.017658 1.377363 0.0
-0.009990 1.362167 0.0
-0.003411 1.325027 0.0
0.000815 1.376755 0.0
0.001245 1.421233 0.0
-0.000057 1.447775 0.0
-0.002812 1.485002 0.0
-0.008407 1.524677 0.0
-0.019855 1.543429 0.0
-0.042099 1.492404 0.0
-0.078543 1.293970 0.0
-0.129252 0.895996 0.0
-0.201770 0.446788 0.0
-0.279111 0.118672 0.0
-0.332344 -0.139543 0.0
-0.364491 -0.258668 0.0
-0.381903 -0.218055 0.0
-0.379678 0.006026 0.0
-0.354837 0.398840 0.0
-0.309297 0.864491 0.0
-0.248355 1.230106 0.0
-0.185449 1.387808 0.0
-0.132399 1.430627 0.0
-0.091852 1.425218 0.0
-0.062214 1.405117 0.0
-0.041014 1.383962 0.0
-0.025904 1.366553 0.0
-0.014773 1.354177 0.0
-0.004975 1.316640 0.0
0.003520 1.372420 0.0
0.009468 1.419189 0.0
0.013961 1.446628 0.0
0.017614 1.485251 0.0
0.019509 1.528128 0.0
0.016977 1.553958 0.0
0.004047 1.517049 0.0
-0.031272 1.341088 0.0
-0.098818 0.967134 0.0
-0.193966 0.543316 0.0
-0.294238 0.199757 0.0
-0.377385 -0.084248 0.0
-0.432623 -0.226578 0.0
-0.457547 -0.207809 0.0
-0.449158 -0.014833 0.0
-0.405372 0.351072 0.0
-0.339205 0.800553 0.0
-0.267407 1.161303 0.0
-0.200578 1.326875 0.0
-0.144875 1.382807 0.0
-0.102015 1.389632 0.0
-0.070233 1.379283 0.0
-0.047031 1.365395 0.0
-0.030058 1.353037 0.0
-0.017195 1.343700 0.0
-0.005770 1.305895 0.0
0.006365 1.362534 0.0
0.018149 1.411343 0.0
0.028859 1.439270 0.0
0.039531 1.478285 0.0
0.049907 1.522824 0.0
0.058007 1.553694 0.0
0.058743 1.529506 0.0
0.040799 1.381892 0.0
-0.017530 1.052205 0.0
-0.119118 0.654980 0.0
-0.235370 0.304617 0.0
-0.348860 0.007529 0.0
-0.437931 -0.174046 0.0
-0.482003 -0.191345 0.0
-0.478356 -0.043334 0.0
-0.424825 0.282255 0.0
-0.341834 0.720212 0.0
-0.262219 1.090231 0.0
-0.196468 1.265369 0.0
-0.142366 1.334508 0.0
-0.100692 1.353396 0.0
-0.069625 1.352671 0.0
-0.046793 1.345974 0.0
-0.029964 1.338655 0.0
-0.017151 1.332407 0.0
-0.005757 1.294368 0.0
0.009210 1.346959 0.0
0.026835 1.397510 0.0
0.043789 1.425439 0.0
0.061535 1.463698 0.0
0.080484 1.508087 0.0
0.099388 1.541429 0.0
0.114010 1.526413 0.0
0.114149 1.402789 0.0
0.081368 1.122419 0.0
0.002559 0.765164 0.0
-0.111602 0.424845 0.0
-0.239812 0.129001 0.0
-0.365004 -0.081254 0.0
-0.448973 -0.156095 0.0
-0.465407 -0.065798 0.0
-0.416851 0.202633 0.0
-0.323544 0.623537 0.0
-0.237337 1.021083 0.0
-0.175780 1.207209 0.0
-0.126362 1.289147 0.0
-0.088674 1.319394 0.0
-0.060791 1.327723 0.0
-0.040493 1.327792 0.0
-0.025718 1.325232 0.0
-0.014680 1.321978 0.0
-0.004945 1.283667 0.0
0.011899 1.325851 0.0
0.035038 1.377854 0.0
0.057861 1.405318 0.0
0.082189 1.441745 0.0
0.108992 1.484288 0.0
0.137596 1.517721 0.0
0.164334 1.508761 0.0
0.179730 1.404906 0.0
0.167007 1.165806 0.0
0.114920 0.852673 0.0
0.026087 0.540331 0.0
-0.093079 0.260890 0.0
-0.225287 0.044256 0.0
-0.341223 -0.081699 0.0
-0.401516 -0.063467 0.0
-0.380578 0.130808 0.0
-0.291679 0.513156 0.0
-0.200502 0.954079 0.0
-0.142371 1.154526 0.0
-0.099055 1.249097 0.0
-0.067216 1.289918 0.0
-0.044463 1.306564 0.0
-0.028593 1.312783 0.0
-0.017623 1.314496 0.0
-0.009948 1.314000 0.0
-0.003381 1.275342 0.0
0.014289 1.299663 0.0
0.042317 1.352874 0.0
0.070292 1.379499 0.0
0.100289 1.413239 0.0
0.133684 1.452595 0.0
0.170203 1.484290 0.0
0.206562 1.479095 0.0
0.233842 1.391897 0.0
0.236479 1.188901 0.0
0.203067 0.915076 0.0
0.135482 0.634346 0.0
0.040370 0.381152 0.0
-0.075460 0.172032 0.0
-0.192951 0.023952 0.0
-0.281617 -0.020160 0.0
-0.307478 0.092425 0.0
-0.248419 0.403580 0.0
-0.159578 0.883636 0.0
-0.100152 1.107412 0.0
-0.062749 1.215492 0.0
-0.037638 1.266572 0.0
-0.021481 1.291000 0.0
-0.011717 1.302713 0.0
-0.006163 1.308043 0.0
-0.003241 1.309857 0.0
-0.001142 1.270819 0.0
0.016265 1.269109 0.0
0.048316 1.323349 0.0
0.080481 1.348883 0.0
0.114977 1.379362 0.0
0.153440 1.414614 0.0
0.195874 1.443319 0.0
0.239324 1.440257 0.0
0.275535 1.367244 0.0
0.290344 1.196108 0.0
0.272540 0.959086 0.0
0.222087 0.708375 0.0
0.146065 0.478257 0.0
0.052704 0.284118 0.0
-0.050957 0.133018 0.0
-0.147405 0.055887 0.0
-0.205446 0.100281 0.0
-0.189739 0.320958 0.0
-0.115898 0.803577 0.0
-0.052188 1.064335 0.0
-0.019180 1.188158 0.0
-0.000867 1.250481 0.0
0.007355 1.282711 0.0
0.009348 1.299246 0.0
0.007996 1.307308 0.0
0.004993 1.310672 0.0
0.001610 1.271287 0.0
0.017742 1.235103 0.0
0.052786 1.290260 0.0
0.088026 1.314567 0.0
0.125736 1.341473 0.0
0.167688 1.372087 0.0
0.214091 1.397010 0.0
0.262354 1.394853 0.0
0.305078 1.333712 0.0
0.329768 1.190140 0.0
0.325981 0.986645 0.0
0.292374 0.764876 0.0
0.234544 0.555608 0.0
0.160360 0.374313 0.0
0.077215 0.229630 0.0
-0.007805 0.140743 0.0
-0.079808 0.145468 0.0
-0.107005 0.287261 0.0
-0.063126 0.719554 0.0
0.000022 1.021500 0.0
0.031584 1.166423 0.0
0.042418 1.243069 0.0
0.040825 1.283494 0.0
0.033379 1.303916 0.0
0.023900 1.313468 0.0
0.014101 1.317314 0.0
0.004616 1.277514 0.0
0.018668 1.198693 0.0
0.055577 1.254716 0.0
0.092706 1.277742 0.0
0.132324 1.300971 0.0
0.176249 1.326711 0.0
0.224855 1.347378 0.0
0.275969 1.345108 0.0
0.323213 1.293490 0.0
0.355913 1.172971 0.0
0.364747 0.998766 0.0
0.347576 0.803534 0.0
0.308445 0.613911 0.0
0.253924 0.444713 0.0
0.190200 0.306099 0.0
0.122093 0.217402 0.0
0.055073 0.207832 0.0
0.001724 0.305444 0.0
0.009265 0.649951 0.0
0.060140 0.977079 0.0
0.088089 1.151333 0.0
0.089294 1.246120 0.0
0.076376 1.294955 0.0
0.058400 1.317877 0.0
0.040137 1.327250 0.0
0.023217 1.330251 0.0
0.007574 1.289704 0.0
0.019017 1.161008 0.0
0.056616 1.217893 0.0
0.094429 1.239623 0.0
0.134691 1.259210 0.0
0.179191 1.280046 0.0
0.228439 1.296190 0.0
0.280729 1.292891 0.0
0.330791 1.248401 0.0
0.369812 1.146339 0.0
0.389772 0.996604 0.0
0.388134 0.824505 0.0
0.367630 0.652576 0.0
0.333452 0.494747 0.0
0.290107 0.363135 0.0
0.239709 0.278871 0.0
0.183725 0.269366 0.0
0.126459 0.354524 0.0
0.105158 0.614631 0.0
0.127774 0.938907 0.0
0.144053 1.145277 0.0
0.134353 1.260671 0.0
0.109905 1.317770 0.0
0.081486 1.341456 0.0
0.054768 1.348652 0.0
0.031233 1.349303 0.0
0.010125 1.307403 0.0
0.018780 1.123212 0.0
0.055884 1.180986 0.0
0.093196 1.201405 0.0
0.132905 1.217458 0.0
0.176712 1.233490 0.0
0.225231 1.244979 0.0
0.277240 1.239805 0.0
0.328611 1.200054 0.0
0.372361 1.111915 0.0
0.401884 0.981545 0.0
0.414647 0.828440 0.0
0.412486 0.671306 0.0
0.399220 0.523460 0.0
0.376986 0.400001 0.0
0.344622 0.324767 0.0
0.300579 0.323497 0.0
0.247183 0.411055 0.0
0.206629 0.619955 0.0
0.197219 0.920376 0.0
0.193628 1.151120 0.0
0.171439 1.286717 0.0
0.136365 1.351246 0.0
0.099044 1.373720 0.0
0.065506 1.376645 0.0
0.036904 1.373447 0.0
0.011872 1.329400 0.0
0.017961 1.086471 0.0
0.053400 1.145183 0.0
0.089063 1.164232 0.0
0.127100 1.176886 0.0
0.169062 1.188293 0.0
0.215632 1.195086 0.0
0.266058 1.187263 0.0
0.317349 1.149934 0.0
0.364322 1.071312 0.0
0.401936 0.955011 0.0
0.428169 0.815978 0.0
0.444397 0.669700 0.0
0.452498 0.530231 0.0
0.450818 0.417144 0.0
0.434218 0.356589 0.0
0.399060 0.370875 0.0
0.347588 0.468546 0.0
0.293944 0.656663 0.0
0.257291 0.929731 0.0
0.230461 1.172187 0.0
0.194667 1.323633 0.0
0.150787 1.393284 0.0
0.107521 1.412269 0.0
0.070144 1.409013 0.0
0.039070 1.400754 0.0
0.012461 1.353733 0.0
0.016572 1.051939 0.0
0.049202 1.111646 0.0
0.082119 1.129189 0.0
0.117443 1.138568 0.0
0.156509 1.145582 0.0
0.200017 1.147719 0.0
0.247654 1.136566 0.0
0.297538 1.099456 0.0
0.346347 1.026008 0.0
0.391019 0.918029 0.0
0.430712 0.787034 0.0
0.466025 0.647103 0.0
0.494877 0.515874 0.0
0.510011 0.418047 0.0
0.502873 0.379423 0.0
0.470048 0.416024 0.0
0.415701 0.529217 0.0
0.351593 0.713743 0.0
0.294497 0.966399 0.0
0.246954 1.209891 0.0
0.198800 1.369877 0.0
0.149264 1.440457 0.0
0.104299 1.453327 0.0
0.067153 1.442479 0.0
0.036968 1.428546 0.0
0.011663 1.377856 0.0
0.014627 1.020741 0.0
0.043342 1.081498 0.0
0.072474 1.097288 0.0
0.104122 1.103497 0.0
0.139324 1.106385 0.0
0.178742 1.103990 0.0
0.222446 1.088954 0.0
0.269601 1.050029 0.0
0.319197 0.977030 0.0
0.371228 0.870304 0.0
0.425997 0.740297 0.0
0.480572 0.603952 0.0
0.525631 0.485115 0.0
0.548447 0.410857 0.0
0.540587 0.401611 0.0
0.502445 0.464804 0.0
0.441505 0.595724 0.0
0.368979 0.783871 0.0
0.298464 1.023882 0.0
0.236434 1.261981 0.0
0.180224 1.422150 0.0
0.129949 1.487994 0.0
0.088575 1.492128 0.0
0.056234 1.473165 0.0
0.030507 1.453772 0.0
0.009463 1.398982 0.0
0.012137 0.993977 0.0
0.035874 1.055810 0.0
0.060252 1.069467 0.0
0.087334 1.072588 0.0
0.117785 1.071641 0.0
0.152199 1.064903 0.0
0.190961 1.045576 0.0
0.234174 1.003039 0.0
0.284740 0.923859 0.0
0.346972 0.809212 0.0
0.418690 0.674903 0.0
0.487907 0.545554 0.0
0.537364 0.448997 0.0
0.553990 0.407532 0.0
0.535148 0.431636 0.0
0.487068 0.521000 0.0
0.419360 0.668176 0.0
0.341772 0.861534 0.0
0.264660 1.093846 0.0
0.195869 1.322839 0.0
0.138500 1.474872 0.0
0.094079 1.529969 0.0
0.061937 1.523670 0.0
0.038565 1.497335 0.0
0.020363 1.473530 0.0
0.006094 1.414538 0.0
0.009101 0.972738 0.0
0.026844 1.035568 0.0
0.045583 1.046592 0.0
0.067258 1.046706 0.0
0.092161 1.042170 0.0
0.120905 1.031218 0.0
0.154211 1.007193 0.0
0.193205 0.959214 0.0
0.247671 0.862652 0.0
0.324223 0.731634 0.0
0.409108 0.595878 0.0
0.478997 0.485473 0.0
0.515723 0.422894 0.0
0.514080 0.418652 0.0
0.479796 0.473643 0.0
0.422493 0.584375 0.0
0.350827 0.744174 0.0
0.272174 0.941777 0.0
0.194629 1.168259 0.0
0.127443 1.384402 0.0
0.077840 1.520281 0.0
0.046604 1.560216 0.0
0.028274 1.543895 0.0
0.016507 1.512249 0.0
0.007806 1.485518 0.0
0.001997 1.422628 0.0
0.005484 0.958154 0.0
0.016293 1.021601 0.0
0.028599 1.029515 0.0
0.043995 1.026711 0.0
0.062655 1.018601 0.0
0.085578 1.003119 0.0
0.114128 0.973435 0.0
0.151470 0.916636 0.0
0.214863 0.787371 0.0
0.304036 0.641190 0.0
0.386906 0.518567 0.0
0.438041 0.441761 0.0
0.449456 0.418465 0.0
0.426602 0.447577 0.0
0.379450 0.526154 0.0
0.316530 0.652087 0.0
0.244034 0.820624 0.0
0.167858 1.020156 0.0
0.095942 1.239342 0.0
0.040089 1.436359 0.0
0.008055 1.549962 0.0
-0.004622 1.574448 0.0
-0.007553 1.550923 0.0
-0.007248 1.516683 0.0
-0.005800 1.488338 0.0
-0.002404 1.422221 0.0
0.001273 0.951397 0.0
0.004324 1.014497 0.0
0.009445 1.019193 0.0
0.017561 1.013521 0.0
0.029414 1.001277 0.0
0.047120 0.979814 0.0
0.073382 0.941928 0.0
0.115172 0.869011 0.0
0.188653 0.698122 0.0
0.275912 0.554007 0.0
0.335975 0.462816 0.0
0.356360 0.425991 0.0
0.342061 0.437119 0.0
0.303208 0.490629 0.0
0.248134 0.585329 0.0
0.182705 0.721260 0.0
0.111926 0.894726 0.0
0.042583 1.091574 0.0
-0.014315 1.296737 0.0
-0.048355 1.468857 0.0
-0.058541 1.559684 0.0
-0.053290 1.572152 0.0
-0.042203 1.545064 0.0
-0.030633 1.510667 0.0
-0.019333 1.481607 0.0
-0.006797 1.413020 0.0
-0.003301 0.953426 0.0
-0.008708 1.014823 0.0
-0.011680 1.016718 0.0
-0.011853 1.008053 0.0
-0.007159 0.990198 0.0
0.006540 0.959488 0.0
0.034085 0.908447 0.0
0.085299 0.809488 0.0
0.160032 0.609432 0.0
0.224126 0.491344 0.0
0.250006 0.439536 0.0
0.241870 0.437022 0.0
0.209786 0.472472 0.0
0.161709 0.542206 0.0
0.102720 0.647815 0.0
0.038090 0.788834 0.0
-0.024426 0.960447 0.0
-0.077106 1.147876 0.0
-0.112679 1.332906 0.0
-0.125239 1.479287 0.0
-0.116722 1.550924 0.0
-0.096495 1.555433 0.0
-0.073567 1.527768 0.0
-0.052144 1.494969 0.0
-0.031906 1.465766 0.0
-0.010902 1.395321 0.0
-0.007938 0.964665 0.0
-0.022284 1.023335 0.0
-0.034205 1.023100 0.0
-0.043312 1.010951 0.0
-0.045780 0.985073 0.0
-0.035107 0.940241 0.0
-0.003928 0.868970 0.0
0.053453 0.740371 0.0
0.113634 0.543636 0.0
0.142763 0.463917 0.0
0.138663 0.445184 0.0
0.112160 0.466012 0.0
0.070666 0.517060 0.0
0.019348 0.597013 0.0
-0.036685 0.708030 0.0
-0.091883 0.848449 0.0
-0.140349 1.011815 0.0
-0.176024 1.184863 0.0
-0.192913 1.348381 0.0
-0.187659 1.471118 0.0
-0.164308 1.527225 0.0
-0.132470 1.527067 0.0
-0.100227 1.500963 0.0
-0.070722 1.470847 0.0
-0.042869 1.441798 0.0
-0.014501 1.369917 0.0
-0.012369 0.984973 0.0
-0.035649 1.040652 0.0
-0.056838 1.038894 0.0
-0.074878 1.022305 0.0
-0.084101 0.985410 0.0
-0.076373 0.921504 0.0
-0.044107 0.824260 0.0
0.007736 0.675857 0.0
0.042124 0.513582 0.0
0.040553 0.466412 0.0
0.018601 0.468742 0.0
-0.015818 0.503375 0.0
-0.058236 0.563610 0.0
-0.105330 0.648875 0.0
-0.153404 0.760274 0.0
-0.197663 0.895662 0.0
-0.232657 1.048061 0.0
-0.252982 1.204617 0.0
-0.254098 1.346632 0.0
-0.234858 1.448373 0.0
-0.200567 1.492327 0.0
-0.160430 1.489990 0.0
-0.121411 1.466778 0.0
-0.085729 1.439845 0.0
-0.051811 1.411028 0.0
-0.017454 1.337962 0.0
-0.016250 1.013592 0.0
-0.047695 1.066756 0.0
-0.077645 1.063929 0.0
-0.104010 1.041675 0.0
-0.119652 0.990904 0.0
-0.116225 0.904856 0.0
-0.090173 0.782591 0.0
-0.056718 0.632228 0.0
-0.047798 0.513904 0.0
-0.065904 0.485766 0.0
-0.094007 0.499444 0.0
-0.128552 0.541637 0.0
-0.167358 0.606571 0.0
-0.207935 0.693585 0.0
-0.246884 0.802587 0.0
-0.279849 0.930575 0.0
-0.301997 1.070289 0.0
-0.308794 1.209511 0.0
-0.297131 1.331192 0.0
-0.267516 1.414959 0.0
-0.225798 1.449732 0.0
-0.180326 1.446977 0.0
-0.136873 1.427319 0.0
-0.096881 1.403629 0.0
-0.058525 1.374970 0.0
-0.019685 1.300823 0.0
-0.019162 1.049004 0.0
-0.057086 1.100714 0.0
-0.094446 1.097281 0.0
-0.128241 1.068482 0.0
-0.150692 1.002190 0.0
-0.154783 0.894233 0.0
-0.142401 0.754780 0.0
-0.131594 0.615777 0.0
-0.140330 0.530171 0.0
-0.163786 0.511059 0.0
-0.191821 0.530289 0.0
-0.222952 0.576469 0.0
-0.255946 0.643539 0.0
-0.288651 0.729900 0.0
-0.317878 0.834447 0.0
-0.339726 0.953528 0.0
-0.350084 1.079841 0.0
-0.345402 1.202074 0.0
-0.323855 1.305420 0.0
-0.287078 1.374339 0.0
-0.240910 1.402467 0.0
-0.192594 1.400455 0.0
-0.146735 1.384528 0.0
-0.104157 1.363849 0.0
-0.062961 1.335198 0.0
-0.021172 1.259967 0.0
-0.020679 1.088845 0.0
-0.062484 1.140603 0.0
-0.105137 1.137406 0.0
-0.145304 1.102319 0.0
-0.175506 1.021005 0.0
-0.190635 0.894638 0.0
-0.195587 0.746945 0.0
-0.204259 0.621476 0.0
-0.223507 0.552455 0.0
-0.247903 0.536627 0.0
-0.273014 0.557867 0.0
-0.298657 0.605665 0.0
-0.324373 0.673054 0.0
-0.348407 0.757124 0.0
-0.367848 0.855890 0.0
-0.379255 0.965340 0.0
-0.379258 1.078390 0.0
-0.365269 1.184853 0.0
-0.336523 1.272348 0.0
-0.295316 1.329427 0.0
-0.247105 1.352999 0.0
-0.197932 1.352435 0.0
-0.151346 1.340103 0.0
-0.107711 1.322062 0.0
-0.065179 1.293258 0.0
-0.021928 1.216867 0.0
-0.020462 1.129985 0.0
-0.062792 1.183598 0.0
-0.107873 1.182145 0.0
-0.152881 1.142755 0.0
-0.191384 1.049275 0.0
-0.219489 0.909603 0.0
-0.241565 0.759008 0.0
-0.265268 0.641789 0.0
-0.291354 0.577477 0.0
-0.315779 0.560425 0.0
-0.337124 0.580526 0.0
-0.356308 0.627833 0.0
-0.373895 0.694188 0.0
-0.388893 0.775021 0.0
-0.398872 0.867412 0.0
-0.400862 0.967215 0.0
-0.392160 1.067816 0.0
-0.371013 1.160291 0.0
-0.337446 1.234596 0.0
-0.294046 1.282572 0.0
-0.245652 1.303248 0.0
-0.197145 1.304507 0.0
-0.151175 1.295475 0.0
-0.107800 1.279680 0.0
-0.065307 1.250614 0.0
-0.021993 1.172945 0.0
-0.018371 1.168818 0.0
-0.057444 1.226169 0.0
-0.101352 1.228563 0.0
-0.148673 1.188666 0.0
-0.194650 1.087844 0.0
-0.235446 0.939934 0.0
-0.272555 0.787861 0.0
-0.308202 0.672286 0.0
-0.340271 0.605135 0.0
-0.365693 0.582613 0.0
-0.384105 0.598095 0.0
-0.397119 0.642462 0.0
-0.406470 0.706497 0.0
-0.412431 0.783671 0.0
-0.413475 0.869786 0.0
-0.407208 0.960563 0.0
-0.391480 1.050038 0.0
-0.365168 1.130611 0.0
-0.328799 1.194340 0.0
-0.284959 1.235588 0.0
-0.237762 1.254641 0.0
-0.191040 1.257886 0.0
-0.146733 1.251819 0.0
-0.104727 1.237955 0.0
-0.063502 1.208622 0.0
-0.021415 1.129537 0.0
-0.014557 1.201745 0.0
-0.046703 1.264462 0.0
-0.085339 1.272814 0.0
-0.131109 1.237506 0.0
-0.181775 1.135647 0.0
-0.232965 0.984116 0.0
-0.282404 0.830227 0.0
-0.328215 0.711377 0.0
-0.366872 0.636770 0.0
-0.395474 0.605002 0.0
-0.413411 0.612055 0.0
-0.422192 0.650296 0.0
-0.424379 0.710202 0.0
-0.421824 0.783372 0.0
-0.414527 0.863832 0.0
-0.401055 0.946778 0.0
-0.379805 1.026844 0.0
-0.350044 1.097732 0.0
-0.312507 1.153313 0.0
-0.269550 1.189818 0.0
-0.224531 1.208195 0.0
-0.180390 1.213468 0.0
-0.138536 1.210074 0.0
-0.098809 1.197966 0.0
-0.059933 1.168511 0.0
-0.020247 1.087875 0.0
-0.009500 1.225802 0.0
-0.031840 1.294892 0.0
-0.061248 1.310427 0.0
-0.100497 1.284911 0.0
-0.150966 1.189377 0.0
-0.208457 1.039067 0.0
-0.267080 0.883339 0.0
-0.321651 0.758647 0.0
-0.367702 0.674208 0.0
-0.402049 0.630513 0.0
-0.423153 0.625585 0.0
-0.431463 0.653857 0.0
-0.429376 0.706743 0.0
-0.419954 0.774854 0.0
-0.405176 0.850275 0.0
-0.385292 0.926980 0.0
-0.359603 0.999704 0.0
-0.327691 1.063200 0.0
-0.290217 1.112835 0.0
-0.249095 1.146217 0.0
-0.206929 1.164612 0.0
-0.165914 1.171896 0.0
-0.127091 1.170969 0.0
-0.090365 1.160617 0.0
-0.054768 1.131387 0.0
-0.018541 1.049087 0.0
-0.003935 1.239237 0.0
-0.014933 1.314794 0.0
-0.032279 1.337279 0.0
-0.060011 1.325040 0.0
-0.103700 1.243407 0.0
-0.161559 1.100387 0.0
-0.225379 0.944461 0.0
-0.286851 0.813568 0.0
-0.340340 0.718827 0.0
-0.382264 0.662166 0.0
-0.410149 0.642922 0.0
-0.422866 0.657548 0.0
-0.421405 0.699504 0.0
-0.408752 0.760017 0.0
-0.388446 0.830028 0.0
-0.362984 0.901880 0.0
-0.333401 0.969532 0.0
-0.300008 1.028066 0.0
-0.263346 1.073832 0.0
-0.224677 1.105430 0.0
-0.185802 1.124356 0.0
-0.148285 1.133620 0.0