# vtk DataFile Version 3.0
Vector Field
ASCII
DATASET RECTILINEAR_GRID
DIMENSIONS 26 100 1
X_COORDINATES 26 double
0.050000 0.150000 0.250000 0.350000 0.450000 0.550000 0.650000 0.750000 0.850000 0.950000 1.050000 1.150000 1.250000 1.350000 1.450000 1.550000 1.650000 1.750000 1.850000 1.950000 2.050000 2.150000 2.250000 2.350000 2.450000 2.550000 
Y_COORDINATES 100 double
0.050000 0.150000 0.250000 0.350000 0.450000 0.550000 0.650000 0.750000 0.850000 0.950000 1.050000 1.150000 1.250000 1.350000 1.450000 1.550000 1.650000 1.750000 1.850000 1.950000 2.050000 2.150000 2.250000 2.350000 2.450000 2.550000 2.650000 2.750000 2.850000 2.950000 3.050000 3.150000 3.250000 3.350000 3.450000 3.550000 3.650000 3.750000 3.850000 3.950000 4.050000 4.150000 4.250000 4.350000 4.450000 4.550000 4.650000 4.750000 4.850000 4.950000 5.050000 5.150000 5.250000 5.350000 5.450000 5.550000 5.650000 5.750000 5.850000 5.950000 6.050000 6.150000 6.250000 6.350000 6.450000 6.550000 6.650000 6.750000 6.850000 6.950000 7.050000 7.150000 7.250000 7.350000 7.450000 7.550000 7.650000 7.750000 7.850000 7.950000 8.050000 8.150000 8.250000 8.350000 8.450000 8.550000 8.650000 8.750000 8.850000 8.950000 9.050000 9.150000 9.250000 9.350000 9.450000 9.550000 9.650000 9.750000 9.850000 9.950000 
Z_COORDINATES 1 double
0.0
POINT_DATA 2600
VECTORS Vektorfeld double
-0.000754 1.000754 0.0
-0.002809 1.001300 0.0
-0.005290 1.001181 0.0
-0.007594 1.001122 0.0
-0.009758 1.001042 0.0
-0.011694 1.000894 0.0
-0.013229 1.000641 0.0
-0.014129 1.000259 0.0
-0.014142 0.999754 0.0
-0.013077 0.999182 0.0
-0.010909 0.998649 0.0
-0.007836 0.998278 0.0
-0.004257 0.998143 0.0
-0.000646 0.998246 0.0
0.002606 0.998503 0.0
0.005237 0.998866 0.0
0.007101 0.999270 0.0
0.008173 0.999657 0.0
0.008523 0.999993 0.0
0.008268 1.000262 0.0
0.007541 1.000465 0.0
0.006464 1.000612 0.0
0.005133 1.000719 0.0
0.003602 1.000813 0.0
0.001827 1.000962 0.0
0.000433 1.000433 0.0
-0.002766 1.004275 0.0
-0.009143 1.006211 0.0
-0.016279 1.005888 0.0
-0.023233 1.005673 0.0
-0.029886 1.005308 0.0
-0.035916 1.004593 0.0
-0.040775 1.003337 0.0
-0.043715 1.001404 0.0
-0.043909 0.998816 0.0
-0.040715 0.995861 0.0
-0.034017 0.993102 0.0
-0.024447 0.991183 0.0
-0.013291 0.990503 0.0
-0.002072 0.991055 0.0
0.007962 0.992408 0.0
0.016013 0.994279 0.0
0.021666 0.996339 0.0
0.024880 0.998302 0.0
0.025887 0.999992 0.0
0.025063 1.001341 0.0
0.022823 1.002354 0.0
0.019545 1.003078 0.0
0.015536 1.003592 0.0
0.011011 1.003996 0.0
0.006084 1.004479 0.0
0.001764 1.002630 0.0
-0.004990 1.012030 0.0
-0.015913 1.015755 0.0
-0.027787 1.015355 0.0
-0.039620 1.014994 0.0
-0.051175 1.014195 0.0
-0.061897 1.012459 0.0
-0.070821 1.009254 0.0
-0.076557 1.004161 0.0
-0.077477 0.997173 0.0
-0.072209 0.989043 0.0
-0.060364 0.981376 0.0
-0.043107 0.976081 0.0
-0.022976 0.974318 0.0
-0.002938 0.975984 0.0
0.014698 0.979808 0.0
0.028580 0.984946 0.0
0.038098 0.990501 0.0
0.043304 0.995721 0.0
0.044699 1.000171 0.0
0.043001 1.003685 0.0
0.038959 1.006292 0.0
0.033244 1.008132 0.0
0.026394 1.009398 0.0
0.018796 1.010313 0.0
0.010715 1.011171 0.0
0.003290 1.007683 0.0
-0.007322 1.024342 0.0
-0.022968 1.030013 0.0
-0.039778 1.029781 0.0
-0.056870 1.029493 0.0
-0.073988 1.028369 0.0
-0.090415 1.025434 0.0
-0.104745 1.019535 0.0
-0.114762 1.009633 0.0
-0.117604 0.995462 0.0
-0.110532 0.978414 0.0
-0.092399 0.962027 0.0
-0.065081 0.950856 0.0
-0.033234 0.947566 0.0
-0.002139 0.951605 0.0
0.024486 0.959926 0.0
0.044781 0.970653 0.0
0.058134 0.981922 0.0
0.064930 0.992298 0.0
0.066137 1.000991 0.0
0.062956 1.007745 0.0
0.056563 1.012668 0.0
0.047965 1.016068 0.0
0.037944 1.018333 0.0
0.027053 1.019865 0.0
0.015662 1.021091 0.0
0.004939 1.015911 0.0
-0.009681 1.041345 0.0
-0.030121 1.049096 0.0
-0.052039 1.049426 0.0
-0.074815 1.049716 0.0
-0.098345 1.048794 0.0
-0.121909 1.044998 0.0
-0.143758 1.036150 0.0
-0.160679 1.019957 0.0
-0.167889 0.995189 0.0
-0.159973 0.963699 0.0
-0.133713 0.932350 0.0
-0.091936 0.911437 0.0
-0.043486 0.906688 0.0
0.002291 0.915612 0.0
0.039843 0.931740 0.0
0.067079 0.951309 0.0
0.083900 0.971091 0.0
0.091432 0.988801 0.0
0.091421 1.003290 0.0
0.085755 1.014293 0.0
0.076151 1.022117 0.0
0.064001 1.027366 0.0
0.050328 1.030730 0.0
0.035818 1.032869 0.0
0.020896 1.034401 0.0
0.006685 1.027536 0.0
-0.011962 1.062988 0.0
-0.037068 1.072998 0.0
-0.064101 1.074475 0.0
-0.092873 1.076216 0.0
-0.123675 1.076626 0.0
-0.156133 1.073187 0.0
-0.188524 1.062200 0.0
-0.216756 1.039061 0.0
-0.233304 0.999844 0.0
-0.227468 0.945292 0.0
-0.190326 0.887356 0.0
-0.125659 0.849986 0.0
-0.051800 0.845828 0.0
0.013996 0.864899 0.0
0.064607 0.894289 0.0
0.098831 0.927301 0.0
0.118004 0.959105 0.0
0.124662 0.986597 0.0
0.121750 1.008417 0.0
0.112090 1.024493 0.0
0.098061 1.035551 0.0
0.081465 1.042680 0.0
0.063534 1.047021 0.0
0.045026 1.049596 0.0
0.026348 1.051274 0.0
0.008499 1.042720 0.0
-0.014015 1.088964 0.0
-0.043361 1.101474 0.0
-0.075190 1.104861 0.0
-0.109904 1.109316 0.0
-0.148515 1.112939 0.0
-0.191584 1.112402 0.0
-0.238368 1.102159 0.0
-0.284966 1.073931 0.0
-0.320961 1.017517 0.0
-0.325655 0.926476 0.0
-0.273809 0.817185 0.0
-0.168509 0.750190 0.0
-0.052868 0.756124 0.0
0.039757 0.796185 0.0
0.104712 0.847438 0.0
0.144524 0.900115 0.0
0.163532 0.948110 0.0
0.166535 0.987931 0.0
0.158144 1.018385 0.0
0.142364 1.039964 0.0
0.122320 1.054153 0.0
0.100191 1.062802 0.0
0.077333 1.067688 0.0
0.054464 1.070306 0.0
0.031869 1.071839 0.0
0.010327 1.061546 0.0
-0.015663 1.118643 0.0
-0.048436 1.133914 0.0
-0.084245 1.140058 0.0
-0.124141 1.148730 0.0
-0.170080 1.158074 0.0
-0.224172 1.164428 0.0
-0.288129 1.160873 0.0
-0.361378 1.135064 0.0
-0.434888 1.065890 0.0
-0.473897 0.921806 0.0
-0.407215 0.703327 0.0
-0.222113 0.573646 0.0
-0.032141 0.627054 0.0
0.092132 0.708357 0.0
0.168850 0.793592 0.0
0.209714 0.873284 0.0
0.223801 0.941847 0.0
0.218740 0.996253 0.0
0.201159 1.036035 0.0
0.176439 1.062815 0.0
0.148445 1.079342 0.0
0.119601 1.088585 0.0
0.091193 1.093170 0.0
0.063722 1.095163 0.0
0.037201 1.096098 0.0
0.012079 1.083951 0.0
-0.016732 1.151038 0.0
-0.051722 1.169283 0.0
-0.090130 1.178906 0.0
-0.133588 1.193236 0.0
-0.185296 1.211214 0.0
-0.250600 1.230684 0.0
-0.339214 1.247189 0.0
-0.467170 1.249953 0.0
-0.649986 1.207327 0.0
-0.845928 1.015320 0.0
-0.718615 0.415818 0.0
-0.268998 0.226436 0.0
0.051336 0.463959 0.0
0.190081 0.608434 0.0
0.266968 0.739909 0.0
0.299874 0.853197 0.0
0.301622 0.946098 0.0
0.282187 1.016499 0.0
0.250422 1.065134 0.0
0.213267 1.095590 0.0
0.175198 1.112629 0.0
0.138554 1.120787 0.0
0.104203 1.123728 0.0
0.072152 1.124128 0.0
0.041961 1.123846 0.0
0.013628 1.109658 0.0
-0.017099 1.184868 0.0
-0.052800 1.206144 0.0
-0.091884 1.219537 0.0
-0.135898 1.240078 0.0
-0.187450 1.267633 0.0
-0.249145 1.301263 0.0
-0.320377 1.336457 0.0
-0.387410 1.355674 0.0
-0.404881 1.301893 0.0
-0.196438 1.007820 0.0
0.252468 0.174681 0.0
0.252468 0.128182 0.0
0.170265 0.203044 0.0
0.372079 0.525542 0.0
0.415075 0.702919 0.0
0.421956 0.850402 0.0
0.399664 0.969437 0.0
0.356693 1.055566 0.0
0.304068 1.110457 0.0
0.250413 1.141078 0.0
0.200288 1.155334 0.0
0.155209 1.159805 0.0
0.115028 1.159242 0.0
0.078878 1.156814 0.0
0.045653 1.154576 0.0
0.014814 1.138100 0.0
-0.016757 1.218724 0.0
-0.051657 1.242889 0.0
-0.089532 1.259751 0.0
-0.131350 1.285695 0.0
-0.178247 1.320465 0.0
-0.229226 1.361104 0.0
-0.276766 1.395388 0.0
-0.300059 1.387070 0.0
-0.261548 1.249456 0.0
-0.110559 0.811442 0.0
0.000000 0.064061 0.0
-0.000000 0.193318 0.0
0.000000 0.134679 0.0
0.242367 0.266392 0.0
0.520227 0.655977 0.0
0.549144 0.861545 0.0
0.510826 1.018904 0.0
0.438079 1.121817 0.0
0.357412 1.177499 0.0
0.283335 1.201768 0.0
0.220062 1.208042 0.0
0.166964 1.205275 0.0
0.121958 1.198959 0.0
0.082854 1.192351 0.0
0.047719 1.187398 0.0
0.015460 1.168375 0.0
-0.015801 1.251282 0.0
-0.048636 1.278067 0.0
-0.083902 1.297714 0.0
-0.121904 1.327552 0.0
-0.162547 1.366150 0.0
-0.202822 1.406673 0.0
-0.233669 1.428206 0.0
-0.238119 1.381996 0.0
-0.196844 1.174745 0.0
-0.111411 0.660784 0.0
-0.030129 -0.052837 0.0
0.000000 0.062489 0.0
-0.000000 0.183823 0.0
0.000000 0.105149 0.0
0.301917 0.337961 0.0
0.627562 0.844394 0.0
0.610045 1.091890 0.0
0.509864 1.221757 0.0
0.398153 1.269937 0.0
0.303533 1.278027 0.0
0.229111 1.269478 0.0
0.170575 1.255472 0.0
0.123124 1.241218 0.0
0.083048 1.229273 0.0
0.047642 1.221018 0.0
0.015410 1.199245 0.0
-0.014370 1.281453 0.0
-0.044215 1.310576 0.0
-0.076018 1.332274 0.0
-0.109592 1.364569 0.0
-0.144177 1.404361 0.0
-0.176139 1.440698 0.0
-0.196982 1.445870 0.0
-0.193543 1.365344 0.0
-0.154240 1.110819 0.0
-0.085804 0.570842 0.0
-0.045623 -0.084958 0.0
-0.022116 -0.022335 0.0
0.000000 0.065330 0.0
-0.000000 0.154129 0.0
0.000000 0.066358 0.0
0.366832 0.481554 0.0
0.682344 1.184455 0.0
0.549973 1.361745 0.0
0.406304 1.385330 0.0
0.298791 1.364767 0.0
0.221045 1.334907 0.0
0.162904 1.306721 0.0
0.117022 1.283302 0.0
0.078752 1.265536 0.0
0.045113 1.253800 0.0
0.014576 1.229232 0.0
-0.012591 1.308414 0.0
-0.038802 1.339671 0.0
-0.066674 1.362853 0.0
-0.095765 1.396655 0.0
-0.125176 1.436271 0.0
-0.151496 1.467070 0.0
-0.167350 1.456195 0.0
-0.161860 1.346090 0.0
-0.125500 1.054410 0.0
-0.061629 0.494943 0.0
-0.045827 -0.065041 0.0
-0.060279 -0.052727 0.0
-0.026712 -0.026917 0.0
0.000000 0.071422 0.0
-0.000000 0.119120 0.0
0.000000 0.117447 0.0
0.155984 1.151011 0.0
0.317735 1.437030 0.0
0.298221 1.473228 0.0
0.243601 1.439001 0.0
0.188749 1.393271 0.0
0.142151 1.353095 0.0
0.103304 1.321656 0.0
0.069981 1.298774 0.0
0.040197 1.283986 0.0
0.012986 1.256793 0.0
-0.010542 1.331546 0.0
-0.032641 1.364849 0.0
-0.056280 1.389185 0.0
-0.080966 1.424100 0.0
-0.106068 1.463339 0.0
-0.128954 1.489208 0.0
-0.143650 1.464608 0.0
-0.140763 1.329299 0.0
-0.111167 1.005245 0.0
-0.061420 0.430489 0.0
-0.068989 -0.008820 0.0
-0.104259 -0.059226 0.0
-0.081973 -0.079317 0.0
-0.029665 -0.032632 0.0
-0.098918 0.089540 0.0
-0.098918 0.036778 0.0
0.075424 1.000271 0.0
0.172666 1.409445 0.0
0.190602 1.502392 0.0
0.172869 1.482190 0.0
0.143233 1.434570 0.0
0.112509 1.389117 0.0
0.083950 1.353041 0.0
0.057789 1.326874 0.0
0.033434 1.310024 0.0
0.010810 1.280590 0.0
-0.008256 1.350343 0.0
-0.025809 1.385705 0.0
-0.044893 1.411053 0.0
-0.065077 1.447103 0.0
-0.086256 1.486616 0.0
-0.107008 1.509570 0.0
-0.123152 1.475087 0.0
-0.126650 1.319431 0.0
-0.108642 0.967510 0.0
-0.086447 0.396282 0.0
-0.106730 0.053239 0.0
-0.128453 -0.064292 0.0
-0.089043 -0.135948 0.0
0.007870 -0.134281 0.0
0.139179 -0.050266 0.0
0.127458 0.061208 0.0
0.058170 0.923479 0.0
0.082995 1.373618 0.0
0.102245 1.501033 0.0
0.104768 1.498759 0.0
0.095143 1.457264 0.0
0.079671 1.412618 0.0
0.062052 1.375719 0.0
0.043876 1.348534 0.0
0.025694 1.330900 0.0
0.008316 1.299716 0.0
-0.005737 1.364336 0.0
-0.018293 1.401823 0.0
-0.032379 1.428106 0.0
-0.047618 1.465472 0.0
-0.064504 1.506311 0.0
-0.083122 1.529245 0.0
-0.101748 1.490182 0.0
-0.114472 1.320559 0.0
-0.113394 0.947296 0.0
-0.119852 0.400758 0.0
-0.149186 0.098380 0.0
-0.158351 -0.078546 0.0
-0.119219 -0.200236 0.0
-0.048424 -0.237701 0.0
0.015066 -0.141644 0.0
-0.005910 0.185283 0.0
-0.034804 0.897586 0.0
-0.001837 1.341719 0.0
0.027949 1.483897 0.0
0.045215 1.496106 0.0
0.050886 1.463871 0.0
0.048269 1.424099 0.0
0.040589 1.389537 0.0
0.030040 1.363441 0.0
0.017936 1.346280 0.0
0.005809 1.313841 0.0
-0.002994 1.373066 0.0
-0.010086 1.412741 0.0
-0.018624 1.439812 0.0
-0.028152 1.478532 0.0
-0.039580 1.521565 0.0
-0.054451 1.547481 0.0
-0.074276 1.510398 0.0
-0.097376 1.336167 0.0
-0.118843 0.952077 0.0
-0.155322 0.438913 0.0
-0.201837 0.136075 0.0
-0.218640 -0.090274 0.0
-0.200489 -0.245790 0.0
-0.170369 -0.293061 0.0
-0.155016 -0.165127 0.0
-0.155799 0.230526 0.0
-0.130740 0.856178 0.0
-0.078473 1.297892 0.0
-0.033587 1.453052 0.0
-0.003034 1.479133 0.0
0.014279 1.457860 0.0
0.021550 1.425457 0.0
0.021921 1.395488 0.0
0.017827 1.372133 0.0
0.011029 1.356490 0.0
0.003569 1.323219 0.0
-0.000077 1.376137 0.0
-0.001285 1.417970 0.0
-0.003730 1.445567 0.0
-0.006735 1.485310 0.0
-0.011157 1.530637 0.0
-0.019229 1.561353 0.0
-0.035484 1.532606 0.0
-0.065275 1.366848 0.0
-0.110015 0.987604 0.0
-0.175528 0.505379 0.0
-0.243590 0.184187 0.0
-0.281247 -0.083928 0.0
-0.291140 -0.260394 0.0
-0.291352 -0.308365 0.0
-0.286906 -0.169622 0.0
-0.263942 0.212840 0.0
-0.206904 0.791767 0.0
-0.135895 1.239027 0.0
-0.078613 1.409748 0.0
-0.038191 1.451461 0.0
-0.012641 1.442668 0.0
0.001555 1.419182 0.0
0.007697 1.395249 0.0
0.008393 1.375769 0.0
0.005652 1.362394 0.0
0.001820 1.328607 0.0
0.002943 1.373271 0.0
0.007892 1.417095 0.0
0.011904 1.444875 0.0
0.015972 1.484938 0.0
0.019651 1.531750 0.0
0.021002 1.566962 0.0
0.015265 1.548989 0.0
-0.008268 1.403789 0.0
-0.064622 1.051757 0.0
-0.152563 0.594679 0.0
-0.242046 0.252431 0.0
-0.307658 -0.048903 0.0
-0.346567 -0.246617 0.0
-0.367154 -0.301342 0.0
-0.368213 -0.180032 0.0
-0.331387 0.163460 0.0
-0.252695 0.705416 0.0
-0.167842 1.169516 0.0
-0.104101 1.358238 0.0
-0.058528 1.416976 0.0
-0.028567 1.421642 0.0
-0.010523 1.407969 0.0
-0.001067 1.390864 0.0
0.002488 1.375902 0.0
0.002258 1.365233 0.0
0.000715 1.331143 0.0
0.005965 1.364362 0.0
0.017093 1.409927 0.0
0.027646 1.437479 0.0
0.038995 1.476918 0.0
0.051274 1.523812 0.0
0.063156 1.561668 0.0
0.070604 1.552570 0.0
0.063945 1.430400 0.0
0.023591 1.121856 0.0
-0.064162 0.700274 0.0
-0.170011 0.342168 0.0
-0.266064 0.023027 0.0
-0.339842 -0.205861 0.0
-0.383248 -0.278107 0.0
-0.395199 -0.190258 0.0
-0.357285 0.098947 0.0
-0.266754 0.600706 0.0
-0.173611 1.096229 0.0
-0.109637 1.303810 0.0
-0.063685 1.379879 0.0
-0.033066 1.398158 0.0
-0.014201 1.394546 0.0
-0.003902 1.384532 0.0
0.000481 1.374295 0.0
0.001079 1.366471 0.0
0.000334 1.332192 0.0
0.008852 1.349546 0.0
0.025891 1.396576 0.0
0.042721 1.423448 0.0
0.061091 1.461229 0.0
0.081724 1.506589 0.0
0.103953 1.544780 0.0
0.124469 1.541493 0.0
0.134637 1.437967 0.0
0.117278 1.172002 0.0
0.057534 0.797625 0.0
-0.036933 0.445134 0.0
-0.148296 0.127477 0.0
-0.258665 -0.126163 0.0
-0.337404 -0.235660 0.0
-0.368510 -0.189648 0.0
-0.344006 0.035919 0.0
-0.254204 0.483402 0.0
-0.158201 1.024388 0.0
-0.097578 1.251053 0.0
-0.054793 1.343899 0.0
-0.026588 1.375314 0.0
-0.009599 1.381537 0.0
-0.000819 1.378460 0.0
0.002391 1.372773 0.0
0.002134 1.367653 0.0
0.000682 1.333208 0.0
0.011461 1.329233 0.0
0.033843 1.377468 0.0
0.056334 1.403235 0.0
0.081001 1.438404 0.0
0.109057 1.480727 0.0
0.140371 1.517100 0.0
0.172211 1.516817 0.0
0.196614 1.428073 0.0
0.197634 1.198235 0.0
0.160945 0.867824 0.0
0.091081 0.539265 0.0
-0.004426 0.240215 0.0
-0.126048 -0.006910 0.0
-0.233924 -0.168298 0.0
-0.291328 -0.168500 0.0
-0.292934 -0.008128 0.0
-0.221499 0.366212 0.0
-0.130069 0.954146 0.0
-0.071922 1.202525 0.0
-0.033873 1.311593 0.0
-0.010098 1.355639 0.0
0.002727 1.371398 0.0
0.007768 1.374778 0.0
0.007915 1.373099 0.0
0.005232 1.370267 0.0
0.001694 1.335583 0.0
0.013666 1.304105 0.0
0.040551 1.353328 0.0
0.067787 1.377648 0.0
0.097661 1.409449 0.0
0.131739 1.447548 0.0
0.170272 1.480431 0.0
0.210957 1.480959 0.0
0.246401 1.404084 0.0
0.261858 1.205745 0.0
0.243317 0.915545 0.0
0.191368 0.613358 0.0
0.115638 0.337359 0.0
0.025272 0.107934 0.0
-0.080142 -0.069853 0.0
-0.169134 -0.120548 0.0
-0.204309 -0.019299 0.0
-0.170139 0.271778 0.0
-0.094649 0.881660 0.0
-0.036221 1.158436 0.0
-0.002585 1.283996 0.0
0.015533 1.341342 0.0
0.021896 1.366507 0.0
0.021044 1.375481 0.0
0.016419 1.376875 0.0
0.009971 1.375622 0.0
0.003230 1.340507 0.0
0.015362 1.275077 0.0
0.045702 1.325131 0.0
0.076544 1.347768 0.0
0.110304 1.375695 0.0
0.148762 1.408767 0.0
0.192427 1.437015 0.0
0.239351 1.436766 0.0
0.282819 1.369367 0.0
0.309598 1.198224 0.0
0.306690 0.944515 0.0
0.272643 0.670384 0.0
0.215485 0.413220 0.0
0.144966 0.192959 0.0
0.066884 0.028618 0.0
-0.013258 -0.049885 0.0
-0.077447 0.009402 0.0
-0.094257 0.225716 0.0
-0.049180 0.807154 0.0
0.009141 1.116194 0.0
0.039398 1.262346 0.0
0.049162 1.335110 0.0
0.046330 1.369209 0.0
0.037621 1.382340 0.0
0.026864 1.385397 0.0
0.015710 1.384703 0.0
0.005070 1.348807 0.0
0.016478 1.243237 0.0
0.049079 1.294030 0.0
0.082256 1.314851 0.0
0.118472 1.338635 0.0
0.159603 1.366238 0.0
0.206329 1.389154 0.0
0.257064 1.386967 0.0
0.305937 1.326825 0.0
0.341524 1.178401 0.0
0.352388 0.956382 0.0
0.336189 0.708764 0.0
0.299160 0.469028 0.0
0.249478 0.257352 0.0
0.193177 0.098608 0.0
0.130354 0.023090 0.0
0.063692 0.067279 0.0
0.008097 0.240244 0.0
0.017522 0.738124 0.0
0.068077 1.076347 0.0
0.089806 1.250208 0.0
0.087385 1.339906 0.0
0.073146 1.381485 0.0
0.055294 1.396624 0.0
0.037730 1.399434 0.0
0.021559 1.397992 0.0
0.006920 1.360797 0.0
0.016970 1.209789 0.0
0.050558 1.261288 0.0
0.084738 1.280235 0.0
0.121962 1.299811 0.0
0.164101 1.321793 0.0
0.211958 1.339016 0.0
0.264333 1.333994 0.0
0.316346 1.278912 0.0
0.358549 1.148525 0.0
0.381370 0.952572 0.0
0.382310 0.727833 0.0
0.366162 0.503136 0.0
0.339109 0.299979 0.0
0.303388 0.148003 0.0
0.256512 0.083394 0.0
0.197324 0.132826 0.0
0.130785 0.296831 0.0
0.109736 0.693162 0.0
0.133440 1.047049 0.0
0.139995 1.251223 0.0
0.123850 1.357457 0.0
0.097831 1.404192 0.0
0.070986 1.418614 0.0
0.047056 1.418937 0.0
0.026427 1.415289 0.0
0.008425 1.376141 0.0
0.016822 1.175998 0.0
0.050097 1.228217 0.0
0.083945 1.245277 0.0
0.120765 1.260725 0.0
0.162347 1.277157 0.0
0.209573 1.288569 0.0
0.261658 1.279981 0.0
0.314805 1.227765 0.0
0.361614 1.110659 0.0
0.394565 0.934666 0.0
0.411743 0.727621 0.0
0.417087 0.514152 0.0
0.413958 0.319145 0.0
0.399530 0.178985 0.0
0.367441 0.131378 0.0
0.315455 0.196015 0.0
0.248857 0.366778 0.0
0.203992 0.689129 0.0
0.193500 1.037870 0.0
0.180452 1.266894 0.0
0.151055 1.387327 0.0
0.115049 1.436347 0.0
0.081194 1.447161 0.0
0.052715 1.442799 0.0
0.029178 1.435593 0.0
0.009226 1.393792 0.0
0.016041 1.143135 0.0
0.047720 1.196126 0.0
0.079938 1.211301 0.0
0.115015 1.222805 0.0
0.154590 1.233920 0.0
0.199588 1.239582 0.0
0.249645 1.226826 0.0
0.302098 1.175320 0.0
0.351622 1.066773 0.0
0.393065 0.904158 0.0
0.426094 0.707922 0.0
0.453785 0.500817 0.0
0.474258 0.315136 0.0
0.477837 0.193843 0.0
0.455313 0.171133 0.0
0.406085 0.257475 0.0
0.338227 0.439773 0.0
0.276045 0.723180 0.0
0.236443 1.053913 0.0
0.203159 1.297183 0.0
0.162482 1.427113 0.0
0.120047 1.475001 0.0
0.082843 1.479565 0.0
0.052898 1.468818 0.0
0.028880 1.457127 0.0
0.009036 1.412055 0.0
0.014650 1.112444 0.0
0.043502 1.166287 0.0
0.072861 1.179562 0.0
0.104951 1.187377 0.0
0.141187 1.193536 0.0
0.182499 1.193656 0.0
0.228931 1.176264 0.0
0.278986 1.123374 0.0
0.329494 1.018688 0.0
0.378566 0.861728 0.0
0.428455 0.667433 0.0
0.478984 0.463087 0.0
0.519033 0.292343 0.0
0.532328 0.199762 0.0
0.510585 0.209480 0.0
0.457789 0.321152 0.0
0.385329 0.516414 0.0
0.311256 0.782795 0.0
0.251447 1.093709 0.0
0.201911 1.340207 0.0
0.153838 1.472839 0.0
0.109940 1.515609 0.0
0.074205 1.511896 0.0
0.046653 1.493984 0.0
0.025063 1.477569 0.0
0.007715 1.428806 0.0
0.012687 1.085107 0.0
0.037561 1.139898 0.0
0.062926 1.151226 0.0
0.090890 1.155660 0.0
0.122578 1.157328 0.0
0.158877 1.152252 0.0
0.200208 1.129905 0.0
0.246261 1.073625 0.0
0.296532 0.967657 0.0
0.354391 0.805828 0.0
0.423486 0.604349 0.0
0.493784 0.405343 0.0
0.542600 0.261221 0.0
0.552524 0.207665 0.0
0.522102 0.253743 0.0
0.461523 0.390264 0.0
0.383941 0.597343 0.0
0.303223 0.856656 0.0
0.232229 1.150651 0.0
0.173444 1.391586 0.0
0.123940 1.519036 0.0
0.084632 1.552619 0.0
0.055548 1.539705 0.0
0.034232 1.515043 0.0
0.017888 1.494444 0.0
0.005323 1.441844 0.0
0.010200 1.062220 0.0
0.030052 1.118059 0.0
0.050403 1.127348 0.0
0.073218 1.128760 0.0
0.099278 1.126480 0.0
0.129409 1.116669 0.0
0.164351 1.089216 0.0
0.204951 1.027662 0.0
0.255489 0.912811 0.0
0.326245 0.732058 0.0
0.414440 0.520830 0.0
0.492818 0.340187 0.0
0.533272 0.237107 0.0
0.527136 0.227991 0.0
0.483040 0.307936 0.0
0.414940 0.464750 0.0
0.334671 0.680709 0.0
0.252362 0.936319 0.0
0.178180 1.216164 0.0
0.118662 1.444376 0.0
0.075574 1.558839 0.0
0.047297 1.580402 0.0
0.029262 1.559041 0.0
0.017056 1.529229 0.0
0.008116 1.505541 0.0
0.002130 1.449297 0.0
0.007243 1.044777 0.0
0.021160 1.101733 0.0
0.035613 1.108871 0.0
0.052360 1.107676 0.0
0.071858 1.102006 0.0
0.094964 1.087906 0.0
0.122732 1.055269 0.0
0.157058 0.986683 0.0
0.211708 0.848603 0.0
0.299372 0.637846 0.0
0.396771 0.429449 0.0
0.463249 0.286711 0.0
0.480130 0.233247 0.0
0.452989 0.265128 0.0
0.396666 0.371219 0.0
0.324078 0.542153 0.0
0.244103 0.763550 0.0
0.164313 1.015577 0.0
0.094280 1.281121 0.0
0.044105 1.489112 0.0
0.016292 1.585004 0.0
0.003996 1.594809 0.0
-0.000862 1.567527 0.0
-0.002771 1.534859 0.0
-0.003185 1.509265 0.0
-0.001526 1.449901 0.0
0.003857 1.033677 0.0
0.011101 1.091671 0.0
0.018930 1.096651 0.0
0.028729 1.093349 0.0
0.040854 1.084709 0.0
0.056604 1.066348 0.0
0.077684 1.027978 0.0
0.107153 0.950178 0.0
0.171214 0.766396 0.0
0.271280 0.532323 0.0
0.357007 0.351846 0.0
0.394537 0.260306 0.0
0.383922 0.253386 0.0
0.339543 0.316509 0.0
0.275346 0.440359 0.0
0.200931 0.620016 0.0
0.123410 0.843183 0.0
0.050511 1.088632 0.0
-0.005506 1.334116 0.0
-0.035441 1.516227 0.0
-0.043249 1.593511 0.0
-0.039349 1.594699 0.0
-0.031530 1.564676 0.0
-0.023295 1.531383 0.0
-0.014990 1.504850 0.0
-0.005354 1.443021 0.0
0.000107 1.029713 0.0
0.000174 1.088324 0.0
0.000810 1.091533 0.0
0.002733 1.086745 0.0
0.006721 1.075200 0.0
0.015394 1.051435 0.0
0.032272 1.004933 0.0
0.062466 0.913561 0.0
0.135199 0.666219 0.0
0.229697 0.437937 0.0
0.284676 0.305524 0.0
0.290148 0.263627 0.0
0.258529 0.292299 0.0
0.203686 0.376817 0.0
0.135474 0.512460 0.0
0.061698 0.696107 0.0
-0.007752 0.914064 0.0
-0.063353 1.146251 0.0
-0.097601 1.366762 0.0
-0.106956 1.522870 0.0
-0.097393 1.585112 0.0
-0.079491 1.581296 0.0
-0.060463 1.551233 0.0
-0.042942 1.519070 0.0
-0.026399 1.492316 0.0
-0.009074 1.428593 0.0
-0.003730 1.033336 0.0
-0.011075 1.091979 0.0
-0.018154 1.094323 0.0
-0.024925 1.088803 0.0
-0.029748 1.073976 0.0
-0.027836 1.042074 0.0
-0.011877 0.981458 0.0
0.026477 0.868488 0.0
0.097703 0.567333 0.0
0.164310 0.375718 0.0
0.184042 0.293033 0.0
0.165682 0.289006 0.0
0.122095 0.342125 0.0
0.062817 0.441112 0.0
-0.003340 0.582534 0.0
-0.066910 0.763379 0.0
-0.120527 0.969859 0.0
-0.158346 1.183875 0.0
-0.174241 1.379282 0.0
-0.166774 1.512238 0.0
-0.143303 1.562710 0.0
-0.114202 1.556694 0.0
-0.085964 1.528571 0.0
-0.060515 1.498761 0.0
-0.036698 1.472264 0.0
-0.012449 1.407070 0.0
-0.007339 1.044406 0.0
-0.021908 1.102822 0.0
-0.036909 1.105560 0.0
-0.052728 1.100156 0.0
-0.066602 1.081319 0.0
-0.071349 1.037564 0.0
-0.055960 0.954621 0.0
-0.008556 0.809566 0.0
0.049326 0.497147 0.0
0.077532 0.351090 0.0
0.069895 0.305565 0.0
0.038176 0.326553 0.0
-0.008753 0.395094 0.0
-0.063404 0.502072 0.0
-0.119517 0.643844 0.0
-0.170775 0.816896 0.0
-0.210566 1.009750 0.0
-0.233127 1.204363 0.0
-0.233892 1.375454 0.0
-0.213388 1.488094 0.0
-0.179576 1.529571 0.0
-0.142190 1.523346 0.0
-0.106946 1.498437 0.0
-0.075194 1.471693 0.0
-0.045382 1.445705 0.0
-0.015311 1.379310 0.0
-0.010387 1.062132 0.0
-0.031343 1.120621 0.0
-0.053736 1.125156 0.0
-0.078095 1.120738 0.0
-0.100523 1.097039 0.0
-0.111821 1.037890 0.0
-0.099403 0.926490 0.0
-0.054252 0.745142 0.0
-0.017247 0.466683 0.0
-0.019314 0.355415 0.0
-0.042026 0.331589 0.0
-0.076891 0.367115 0.0
-0.119806 0.444375 0.0
-0.166687 0.554323 0.0
-0.212636 0.693656 0.0
-0.251991 0.857697 0.0
-0.278873 1.035623 0.0
-0.288198 1.210376 0.0
-0.276856 1.358865 0.0
-0.246777 1.454100 0.0
-0.205883 1.488859 0.0
-0.162947 1.483736 0.0
-0.122861 1.462716 0.0
-0.086514 1.439315 0.0
-0.052148 1.413905 0.0
-0.017554 1.346445 0.0
-0.012515 1.085033 0.0
-0.038209 1.144369 0.0
-0.066461 1.152053 0.0
-0.097792 1.149531 0.0
-0.127567 1.120449 0.0
-0.145476 1.043687 0.0
-0.139793 0.902592 0.0
-0.110639 0.694735 0.0
-0.096636 0.466082 0.0
-0.113614 0.375063 0.0
-0.140633 0.361671 0.0
-0.173309 0.404574 0.0
-0.210036 0.486558 0.0
-0.248260 0.597244 0.0
-0.283848 0.732273 0.0
-0.311736 0.886323 0.0
-0.326835 1.048977 0.0
-0.324994 1.204505 0.0
-0.304380 1.332780 0.0
-0.267776 1.413502 0.0
-0.222617 1.443403 0.0
-0.176529 1.440168 0.0
-0.133582 1.423251 0.0
-0.094301 1.403153 0.0
-0.056860 1.378259 0.0
-0.019127 1.309763 0.0
-0.013397 1.110945 0.0
-0.041404 1.172159 0.0
-0.072990 1.184103 0.0
-0.108768 1.184590 0.0
-0.144287 1.150683 0.0
-0.169481 1.056556 0.0
-0.175097 0.889656 0.0
-0.167577 0.670996 0.0
-0.173244 0.481485 0.0
-0.196491 0.399886 0.0
-0.222998 0.390374 0.0
-0.250824 0.436373 0.0
-0.279864 0.520526 0.0
-0.308784 0.630420 0.0
-0.334147 0.760049 0.0
-0.351417 0.903706 0.0
-0.356244 1.051521 0.0
-0.345431 1.189306 0.0
-0.318175 1.300110 0.0
-0.277669 1.369061 0.0
-0.230586 1.395603 0.0
-0.183360 1.394655 0.0
-0.139281 1.381739 0.0
-0.098594 1.364698 0.0
-0.059513 1.340192 0.0
-0.020025 1.270611 0.0
-0.012847 1.137189 0.0
-0.040246 1.201320 0.0
-0.071930 1.218212 0.0
-0.108848 1.223176 0.0
-0.148018 1.186785 0.0
-0.181032 1.078662 0.0
-0.200922 0.893056 0.0
-0.214391 0.673544 0.0
-0.235465 0.505679 0.0
-0.262641 0.426115 0.0
-0.287593 0.415603 0.0
-0.309726 0.461104 0.0
-0.330308 0.545417 0.0
-0.349566 0.653706 0.0
-0.365098 0.777657 0.0
-0.372901 0.911170 0.0
-0.369216 1.045199 0.0
-0.351645 1.167243 0.0
-0.320126 1.263398 0.0
-0.277918 1.323058 0.0
-0.230807 1.347413 0.0
-0.184074 1.348884 0.0
-0.140318 1.339675 0.0
-0.099583 1.325342 0.0
-0.060195 1.301078 0.0
-0.020272 1.230314 0.0
-0.010898 1.160935 0.0
-0.034752 1.228827 0.0
-0.063091 1.250728 0.0
-0.097284 1.261772 0.0
-0.137044 1.227119 0.0
-0.176979 1.111277 0.0
-0.211345 0.914698 0.0
-0.242989 0.697015 0.0
-0.276717 0.537009 0.0
-0.308559 0.453803 0.0
-0.333288 0.437596 0.0
-0.350689 0.478645 0.0
-0.363081 0.560850 0.0
-0.372672 0.667123 0.0
-0.378842 0.785942 0.0
-0.378417 0.910264 0.0
-0.368037 1.032040 0.0
-0.345813 1.140607 0.0
-0.312113 1.224815 0.0
-0.270009 1.277329 0.0
-0.224362 1.300384 0.0
-0.179410 1.304228 0.0
-0.137166 1.298331 0.0
-0.097550 1.286334 0.0
-0.059055 1.262203 0.0
-0.019915 1.190126 0.0
-0.007830 1.179662 0.0
-0.025721 1.251845 0.0
-0.047718 1.278045 0.0
-0.075269 1.296199 0.0
-0.111330 1.268513 0.0
-0.154936 1.153424 0.0
-0.201299 0.953280 0.0
-0.247981 0.736759 0.0
-0.293116 0.576128 0.0
-0.331543 0.484952 0.0
-0.358933 0.458567 0.0
-0.374385 0.490527 0.0
-0.380328 0.567302 0.0
-0.380860 0.670794 0.0
-0.378064 0.785645 0.0
-0.370435 0.902507 0.0
-0.355021 1.014003 0.0
-0.330040 1.111441 0.0
-0.295923 1.186163 0.0
-0.255364 1.233318 0.0
-0.212326 1.255709 0.0
-0.170142 1.261766 0.0
-0.130353 1.258761 0.0
-0.092831 1.248767 0.0
-0.056279 1.224723 0.0
-0.019012 1.151199 0.0
-0.004121 1.191613 0.0
-0.014533 1.268198 0.0
-0.028244 1.297400 0.0
-0.046146 1.322297 0.0
-0.073602 1.305932 0.0
-0.115112 1.201120 0.0
-0.168498 1.005333 0.0
-0.226787 0.789677 0.0
-0.282601 0.624159 0.0
-0.329558 0.522304 0.0
-0.363110 0.482158 0.0
-0.380875 0.500153 0.0
-0.383986 0.566729 0.0
-0.377308 0.665221 0.0
-0.366021 0.777135 0.0
-0.351689 0.889055 0.0
-0.332453 0.992804 0.0
-0.306291 1.081498 0.0
-0.273198 1.148896 0.0
-0.235302 1.192129 0.0
-0.195725 1.214284 0.0
-0.157042 1.222324 0.0
-0.120435 1.221807 0.0
-0.085796 1.213560 0.0
-0.052076 1.189657 0.0
-0.017632 1.114555 0.0
-0.000293 1.196028 0.0
-0.002699 1.276601 0.0
-0.007535 1.307544 0.0
-0.014720 1.337241 0.0
-0.029758 1.333483 0.0
-0.061937 1.247257 0.0
-0.114855 1.065500 0.0
-0.180231 0.853175 0.0
-0.245473 0.681717 0.0
-0.302005 0.568236 0.0
-0.344617 0.512389 0.0
-0.369344 0.512414 0.0
-0.374893 0.563128 0.0
-0.364855 0.652107 0.0
-0.346417 0.760524 0.0
-0.325365 0.870282 0.0
-0.302678 0.969653 0.0
-0.276393 1.052202 0.0
-0.245435 1.114143 0.0
-0.211028 1.154579 0.0
-0.175522 1.176752 0.0
-0.140862 1.186512 0.0
-0.107972 1.188122 0.0
-0.076827 1.181461 0.0
-0.046663 1.157871 0.0
-0.015844 1.081078 0.0
0.003385 1.192936 0.0
0.008709 1.276774 0.0
0.012173 1.308743 0.0
0.014689 1.340711 0.0
0.012532 1.347209 0.0
-0.004627 1.282869 0.0
-0.047687 1.125866 0.0
-0.113297 0.923796 0.0
-0.185223 0.748264 0.0
-0.250839 0.623837 0.0
-0.303713 0.552274 0.0
-0.338827 0.532370 0.0
-0.352377 0.562270 0.0
-0.344817 0.635368 0.0
-0.322629 0.736638 0.0
-0.295170 0.845657 0.0
-0.268379 0.944799 0.0
-0.242145 1.024537 0.0
-0.214007 1.082712 0.0
-0.183640 1.121234 0.0
-0.152606 1.143558 0.0
-0.122319 1.154759 0.0
-0.093517 1.158184 0.0
-0.066309 1.153046 0.0
-0.040263 1.130077 0.0
-0.013722 1.051512 0.0
0.006730 1.182820 0.0
0.019022 1.269274 0.0
0.029736 1.302066 0.0
0.040250 1.334359 0.0
0.048421 1.347547 0.0
0.045481 1.302630 0.0
0.019316 1.175330 0.0
-0.035927 0.995186 0.0
-0.108745 0.821618 0.0
-0.181100 0.688454 0.0
-0.243314 0.602745 0.0
-0.289753 0.563452 0.0
-0.315118 0.570103 0.0
-0.316329 0.621186 0.0
-0.296266 0.708567 0.0
-0.264662 0.814665 0.0
-0.232794 0.917133 0.0
-0.205556 0.998731 0.0
-0.180233 1.055058 0.0
-0.154140 1.092427 0.0
-0.127780 1.114971 0.0
-0.102071 1.127348 0.0
-0.077599 1.132321 0.0
-0.054619 1.128720 0.0
-0.033090 1.106829 0.0
-0.011331 1.026460 0.0
0.009608 1.166482 0.0
0.027834 1.255095 0.0
0.044555 1.288810 0.0
0.061307 1.320348 0.0
0.077178 1.337515 0.0
0.084930 1.307849 0.0
0.073472 1.207734 0.0
0.035400 1.056097 0.0
-0.027164 0.896089 0.0
-0.100456 0.759630 0.0
-0.169127 0.662453 0.0
-0.225195 0.606252 0.0
-0.263022 0.590496 0.0
-0.277279 0.616262 0.0
-0.266165 0.682313 0.0
-0.235671 0.778822 0.0
-0.199261 0.884699 0.0
-0.169074 0.973739 0.0
-0.145491 1.031145 0.0
-0.123465 1.068221 0.0
-0.101750 1.091104 0.0
-0.080693 1.104449 0.0
-0.060694 1.110749 0.0
-0.042112 1.108731 0.0
-0.025334 1.088511 0.0
-0.008722 1.006407 0.0
0.011953 1.144920 0.0
0.034968 1.235415 0.0
0.056417 1.270320 0.0
0.077789 1.300712 0.0
0.099054 1.320016 0.0
0.114458 1.302191 0.0
0.114110 1.225198 0.0
0.090504 1.100309 0.0
0.043935 0.961010 0.0
-0.019632 0.831568 0.0
-0.088666 0.728220 0.0
-0.150744 0.658631 0.0
-0.198643 0.623843 0.0
-0.226545 0.625074 0.0
-0.229289 0.665131 0.0
-0.206951 0.743172 0.0
-0.169772 0.846762 0.0
-0.135344 0.947060 0.0
-0.111338 1.010236 0.0
-0.092541 1.048306 0.0
-0.075117 1.071879 0.0