# vtk DataFile Version 3.0
Vector Field
ASCII
DATASET RECTILINEAR_GRID
DIMENSIONS 100 26 1
X_COORDINATES 100 double
0.050000 0.150000 0.250000 0.350000 0.450000 0.550000 0.650000 0.750000 0.850000 0.950000 1.050000 1.150000 1.250000 1.350000 1.450000 1.550000 1.650000 1.750000 1.850000 1.950000 2.050000 2.150000 2.250000 2.350000 2.450000 2.550000 2.650000 2.750000 2.850000 2.950000 3.050000 3.150000 3.250000 3.350000 3.450000 3.550000 3.650000 3.750000 3.850000 3.950000 4.050000 4.150000 4.250000 4.350000 4.450000 4.550000 4.650000 4.750000 4.850000 4.950000 5.050000 5.150000 5.250000 5.350000 5.450000 5.550000 5.650000 5.750000 5.850000 5.950000 6.050000 6.150000 6.250000 6.350000 6.450000 6.550000 6.650000 6.750000 6.850000 6.950000 7.050000 7.150000 7.250000 7.350000 7.450000 7.550000 7.650000 7.750000 7.850000 7.950000 8.050000 8.150000 8.250000 8.350000 8.450000 8.550000 8.650000 8.750000 8.850000 8.950000 9.050000 9.150000 9.250000 9.350000 9.450000 9.550000 9.650000 9.750000 9.850000 9.950000 
Y_COORDINATES 26 double
0.050000 0.150000 0.250000 0.350000 0.450000 0.550000 0.650000 0.750000 0.850000 0.950000 1.050000 1.150000 1.250000 1.350000 1.450000 1.550000 1.650000 1.750000 1.850000 1.950000 2.050000 2.150000 2.250000 2.350000 2.450000 2.550000 
Z_COORDINATES 1 double
0.0
POINT_DATA 2600
VECTORS Vektorfeld double
-0.964450 -0.000276 0.0
-0.963997 -0.000177 0.0
-0.963730 -0.000090 0.0
-0.963585 -0.000055 0.0
-0.963491 -0.000039 0.0
-0.963423 -0.000030 0.0
-0.963369 -0.000025 0.0
-0.963322 -0.000022 0.0
-0.963280 -0.000020 0.0
-0.963240 -0.000020 0.0
-0.963200 -0.000020 0.0
-0.963158 -0.000021 0.0
-0.963113 -0.000023 0.0
-0.963065 -0.000025 0.0
-0.963013 -0.000028 0.0
-0.962955 -0.000031 0.0
-0.962890 -0.000034 0.0
-0.962817 -0.000038 0.0
-0.962736 -0.000043 0.0
-0.962644 -0.000049 0.0
-0.962541 -0.000055 0.0
-0.962424 -0.000062 0.0
-0.962293 -0.000070 0.0
-0.962145 -0.000078 0.0
-0.961978 -0.000088 0.0
-0.961790 -0.000100 0.0
-0.961578 -0.000113 0.0
-0.961338 -0.000127 0.0
-0.961067 -0.000143 0.0
-0.960762 -0.000162 0.0
-0.960418 -0.000182 0.0
-0.960031 -0.000205 0.0
-0.959594 -0.000232 0.0
-0.959101 -0.000261 0.0
-0.958547 -0.000294 0.0
-0.957922 -0.000331 0.0
-0.957220 -0.000372 0.0
-0.956431 -0.000418 0.0
-0.955544 -0.000469 0.0
-0.954548 -0.000526 0.0
-0.953432 -0.000590 0.0
-0.952181 -0.000660 0.0
-0.950783 -0.000738 0.0
-0.949223 -0.000823 0.0
-0.947484 -0.000916 0.0
-0.945551 -0.001017 0.0
-0.943410 -0.001125 0.0
-0.941045 -0.001240 0.0
-0.938444 -0.001361 0.0
-0.935598 -0.001485 0.0
-0.932502 -0.001611 0.0
-0.929157 -0.001733 0.0
-0.925577 -0.001847 0.0
-0.921784 -0.001946 0.0
-0.917818 -0.002020 0.0
-0.913738 -0.002060 0.0
-0.909627 -0.002051 0.0
-0.905596 -0.001980 0.0
-0.901787 -0.001829 0.0
-0.898377 -0.001581 0.0
-0.895579 -0.001217 0.0
-0.893642 -0.000720 0.0
-0.892843 -0.000079 0.0
-0.893471 0.000707 0.0
-0.895800 0.001621 0.0
-0.900083 0.002661 0.0
-0.906561 0.003817 0.0
-0.915446 0.005068 0.0
-0.926902 0.006388 0.0
-0.941043 0.007753 0.0
-0.957939 0.009143 0.0
-0.977633 0.010551 0.0
-1.000152 0.011968 0.0
-1.025495 0.013375 0.0
-1.053585 0.014715 0.0
-1.084185 0.015885 0.0
-1.116807 0.016737 0.0
-1.150646 0.017101 0.0
-1.184572 0.016825 0.0
-1.217202 0.015806 0.0
-1.247018 0.014010 0.0
-1.272507 0.011479 0.0
-1.292304 0.008317 0.0
-1.305303 0.004681 0.0
-1.310749 0.000765 0.0
-1.308295 -0.003220 0.0
-1.298004 -0.007070 0.0
-1.280380 -0.010555 0.0
-1.256355 -0.013469 0.0
-1.227264 -0.015622 0.0
-1.194786 -0.016855 0.0
-1.160841 -0.017089 0.0
-1.127378 -0.016373 0.0
-1.096123 -0.014882 0.0
-1.068398 -0.012842 0.0
-1.045079 -0.010477 0.0
-1.026634 -0.007969 0.0
-1.013209 -0.005456 0.0
-1.004715 -0.003038 0.0
-1.000839 -0.000839 0.0
-1.002872 -0.000538 0.0
-1.002875 -0.000366 0.0
-1.002824 -0.000218 0.0
-1.002750 -0.000147 0.0
-1.002684 -0.000107 0.0
-1.002628 -0.000085 0.0
-1.002580 -0.000072 0.0
-1.002536 -0.000065 0.0
-1.002495 -0.000061 0.0
-1.002454 -0.000061 0.0
-1.002412 -0.000062 0.0
-1.002367 -0.000066 0.0
-1.002320 -0.000071 0.0
-1.002267 -0.000077 0.0
-1.002210 -0.000085 0.0
-1.002146 -0.000095 0.0
-1.002075 -0.000106 0.0
-1.001995 -0.000119 0.0
-1.001905 -0.000134 0.0
-1.001804 -0.000151 0.0
-1.001690 -0.000170 0.0
-1.001561 -0.000191 0.0
-1.001416 -0.000216 0.0
-1.001253 -0.000243 0.0
-1.001069 -0.000275 0.0
-1.000861 -0.000310 0.0
-1.000626 -0.000350 0.0
-1.000362 -0.000394 0.0
-1.000064 -0.000445 0.0
-0.999728 -0.000501 0.0
-0.999349 -0.000565 0.0
-0.998923 -0.000637 0.0
-0.998443 -0.000717 0.0
-0.997902 -0.000808 0.0
-0.997294 -0.000909 0.0
-0.996610 -0.001023 0.0
-0.995842 -0.001150 0.0
-0.994979 -0.001292 0.0
-0.994012 -0.001450 0.0
-0.992928 -0.001626 0.0
-0.991715 -0.001820 0.0
-0.990359 -0.002036 0.0
-0.988847 -0.002273 0.0
-0.987163 -0.002532 0.0
-0.985293 -0.002815 0.0
-0.983221 -0.003121 0.0
-0.980934 -0.003449 0.0
-0.978418 -0.003797 0.0
-0.975663 -0.004160 0.0
-0.972664 -0.004532 0.0
-0.969418 -0.004905 0.0
-0.965935 -0.005266 0.0
-0.962231 -0.005599 0.0
-0.958338 -0.005881 0.0
-0.954303 -0.006086 0.0
-0.950195 -0.006182 0.0
-0.946106 -0.006129 0.0
-0.942157 -0.005883 0.0
-0.938495 -0.005397 0.0
-0.935299 -0.004619 0.0
-0.932777 -0.003499 0.0
-0.931160 -0.001992 0.0
-0.930700 -0.000065 0.0
-0.931671 0.002294 0.0
-0.934375 0.005067 0.0
-0.939110 0.008232 0.0
-0.946126 0.011740 0.0
-0.955615 0.015520 0.0
-0.967712 0.019489 0.0
-0.982492 0.023573 0.0
-0.999994 0.027721 0.0
-1.020240 0.031913 0.0
-1.043249 0.036134 0.0
-1.069020 0.040323 0.0
-1.097475 0.044311 0.0
-1.128367 0.047781 0.0
-1.161186 0.050282 0.0
-1.195100 0.051308 0.0
-1.228959 0.050403 0.0
-1.261361 0.047260 0.0
-1.290768 0.041778 0.0
-1.315636 0.034068 0.0
-1.334551 0.024440 0.0
-1.346358 0.013364 0.0
-1.350252 0.001425 0.0
-1.345868 -0.010719 0.0
-1.333318 -0.022411 0.0
-1.313138 -0.033019 0.0
-1.286235 -0.041932 0.0
-1.253932 -0.048553 0.0
-1.217983 -0.052352 0.0
-1.180484 -0.053037 0.0
-1.143617 -0.050756 0.0
-1.109270 -0.046102 0.0
-1.078809 -0.039807 0.0
-1.053067 -0.032573 0.0
-1.032433 -0.024953 0.0
-1.016994 -0.017336 0.0
-1.006672 -0.009972 0.0
-1.001388 -0.003065 0.0
-1.003113 -0.000503 0.0
-1.003134 -0.000377 0.0
-1.003119 -0.000273 0.0
-1.003082 -0.000203 0.0
-1.003041 -0.000158 0.0
-1.003000 -0.000130 0.0
-1.002960 -0.000114 0.0
-1.002923 -0.000104 0.0
-1.002885 -0.000100 0.0
-1.002847 -0.000101 0.0
-1.002808 -0.000104 0.0
-1.002766 -0.000111 0.0
-1.002720 -0.000120 0.0
-1.002669 -0.000131 0.0
-1.002614 -0.000145 0.0
-1.002552 -0.000161 0.0
-1.002482 -0.000181 0.0
-1.002405 -0.000203 0.0
-1.002317 -0.000228 0.0
-1.002218 -0.000256 0.0
-1.002107 -0.000289 0.0
-1.001982 -0.000326 0.0
-1.001841 -0.000367 0.0
-1.001681 -0.000415 0.0
-1.001501 -0.000468 0.0
-1.001299 -0.000528 0.0
-1.001070 -0.000595 0.0
-1.000812 -0.000671 0.0
-1.000521 -0.000757 0.0
-1.000193 -0.000853 0.0
-0.999823 -0.000962 0.0
-0.999406 -0.001084 0.0
-0.998937 -0.001220 0.0
-0.998409 -0.001374 0.0
-0.997814 -0.001546 0.0
-0.997146 -0.001739 0.0
-0.996394 -0.001954 0.0
-0.995550 -0.002194 0.0
-0.994602 -0.002462 0.0
-0.993540 -0.002760 0.0
-0.992350 -0.003089 0.0
-0.991019 -0.003453 0.0
-0.989532 -0.003854 0.0
-0.987875 -0.004292 0.0
-0.986031 -0.004770 0.0
-0.983984 -0.005285 0.0
-0.981719 -0.005837 0.0
-0.979222 -0.006422 0.0
-0.976480 -0.007032 0.0
-0.973483 -0.007657 0.0
-0.970228 -0.008281 0.0
-0.966718 -0.008884 0.0
-0.962966 -0.009437 0.0
-0.959000 -0.009903 0.0
-0.954864 -0.010236 0.0
-0.950624 -0.010380 0.0
-0.946374 -0.010269 0.0
-0.942238 -0.009828 0.0
-0.938377 -0.008975 0.0
-0.934986 -0.007626 0.0
-0.932302 -0.005698 0.0
-0.930592 -0.003120 0.0
-0.930152 0.000162 0.0
-0.931290 0.004175 0.0
-0.934311 0.008911 0.0
-0.939499 0.014311 0.0
-0.947096 0.020275 0.0
-0.957291 0.026670 0.0
-0.970207 0.033352 0.0
-0.985916 0.040200 0.0
-1.004464 0.047144 0.0
-1.025895 0.054168 0.0
-1.050267 0.061261 0.0
-1.077623 0.068322 0.0
-1.107909 0.075053 0.0
-1.140876 0.080898 0.0
-1.175975 0.085084 0.0
-1.212314 0.086759 0.0
-1.248675 0.085171 0.0
-1.283585 0.079806 0.0
-1.315424 0.070478 0.0
-1.342537 0.057349 0.0
-1.363375 0.040913 0.0
-1.376630 0.021953 0.0
-1.381365 0.001465 0.0
-1.377076 -0.019433 0.0
-1.363721 -0.039601 0.0
-1.341733 -0.057996 0.0
-1.312003 -0.073589 0.0
-1.275893 -0.085309 0.0
-1.235368 -0.092070 0.0
-1.193046 -0.093141 0.0
-1.151810 -0.088755 0.0
-1.114019 -0.080240 0.0
-1.081141 -0.069008 0.0
-1.053900 -0.056356 0.0
-1.032469 -0.043235 0.0
-1.016716 -0.030247 0.0
-1.006391 -0.017707 0.0
-1.001277 -0.005730 0.0
-1.003015 -0.000461 0.0
-1.003042 -0.000370 0.0
-1.003045 -0.000293 0.0
-1.003030 -0.000234 0.0
-1.003007 -0.000193 0.0
-1.002979 -0.000165 0.0
-1.002949 -0.000148 0.0
-1.002918 -0.000138 0.0
-1.002886 -0.000135 0.0
-1.002853 -0.000137 0.0
-1.002817 -0.000143 0.0
-1.002778 -0.000153 0.0
-1.002735 -0.000166 0.0
-1.002687 -0.000182 0.0
-1.002635 -0.000202 0.0
-1.002576 -0.000225 0.0
-1.002510 -0.000252 0.0
-1.002436 -0.000283 0.0
-1.002352 -0.000318 0.0
-1.002258 -0.000359 0.0
-1.002152 -0.000404 0.0
-1.002032 -0.000456 0.0
-1.001897 -0.000514 0.0
-1.001744 -0.000580 0.0
-1.001572 -0.000654 0.0
-1.001378 -0.000738 0.0
-1.001159 -0.000833 0.0
-1.000912 -0.000939 0.0
-1.000633 -0.001059 0.0
-1.000318 -0.001194 0.0
-0.999964 -0.001345 0.0
-0.999565 -0.001516 0.0
-0.999114 -0.001707 0.0
-0.998607 -0.001922 0.0
-0.998036 -0.002163 0.0
-0.997394 -0.002433 0.0
-0.996671 -0.002734 0.0
-0.995858 -0.003071 0.0
-0.994944 -0.003446 0.0
-0.993919 -0.003863 0.0
-0.992769 -0.004326 0.0
-0.991481 -0.004837 0.0
-0.990039 -0.005399 0.0
-0.988428 -0.006016 0.0
-0.986630 -0.006688 0.0
-0.984629 -0.007415 0.0
-0.982406 -0.008195 0.0
-0.979944 -0.009023 0.0
-0.977226 -0.009890 0.0
-0.974238 -0.010782 0.0
-0.970971 -0.011678 0.0
-0.967418 -0.012550 0.0
-0.963585 -0.013356 0.0
-0.959487 -0.014047 0.0
-0.955158 -0.014557 0.0
-0.950652 -0.014805 0.0
-0.946051 -0.014695 0.0
-0.941472 -0.014117 0.0
-0.937071 -0.012949 0.0
-0.933048 -0.011065 0.0
-0.929652 -0.008339 0.0
-0.927179 -0.004662 0.0
-0.925963 0.000048 0.0
-0.926367 0.005831 0.0
-0.928761 0.012669 0.0
-0.933496 0.020475 0.0
-0.940883 0.029096 0.0
-0.951171 0.038331 0.0
-0.964537 0.047971 0.0
-0.981094 0.057847 0.0
-1.000925 0.067875 0.0
-1.024109 0.078052 0.0
-1.050739 0.088378 0.0
-1.080882 0.098704 0.0
-1.114495 0.108571 0.0
-1.151297 0.117150 0.0
-1.190681 0.123315 0.0
-1.231671 0.125856 0.0
-1.272946 0.123709 0.0
-1.312900 0.116133 0.0
-1.349719 0.102809 0.0
-1.381476 0.083889 0.0
-1.406285 0.060019 0.0
-1.422502 0.032319 0.0
-1.428935 0.002266 0.0
-1.424941 -0.028517 0.0
-1.410424 -0.058389 0.0
-1.385827 -0.085794 0.0
-1.351978 -0.109370 0.0
-1.310082 -0.127534 0.0
-1.262215 -0.138236 0.0
-1.211882 -0.139629 0.0
-1.163530 -0.131855 0.0
-1.120452 -0.118009 0.0
-1.084101 -0.100468 0.0
-1.054894 -0.081345 0.0
-1.032551 -0.062018 0.0
-1.016522 -0.043246 0.0
-1.006232 -0.025323 0.0
-1.001227 -0.008234 0.0
-1.002940 -0.000420 0.0
-1.002972 -0.000352 0.0
-1.002986 -0.000295 0.0
-1.002985 -0.000248 0.0
-1.002974 -0.000213 0.0
-1.002957 -0.000189 0.0
-1.002937 -0.000174 0.0
-1.002913 -0.000167 0.0
-1.002887 -0.000165 0.0
-1.002858 -0.000170 0.0
-1.002826 -0.000179 0.0
-1.002791 -0.000192 0.0
-1.002752 -0.000209 0.0
-1.002708 -0.000230 0.0
-1.002659 -0.000256 0.0
-1.002605 -0.000285 0.0
-1.002543 -0.000320 0.0
-1.002473 -0.000359 0.0
-1.002395 -0.000404 0.0
-1.002307 -0.000455 0.0
-1.002207 -0.000513 0.0
-1.002094 -0.000579 0.0
-1.001967 -0.000653 0.0
-1.001824 -0.000737 0.0
-1.001662 -0.000831 0.0
-1.001479 -0.000938 0.0
-1.001273 -0.001058 0.0
-1.001041 -0.001193 0.0
-1.000778 -0.001346 0.0
-1.000482 -0.001517 0.0
-1.000148 -0.001710 0.0
-0.999771 -0.001927 0.0
-0.999346 -0.002171 0.0
-0.998867 -0.002445 0.0
-0.998327 -0.002751 0.0
-0.997719 -0.003095 0.0
-0.997035 -0.003480 0.0
-0.996264 -0.003909 0.0
-0.995397 -0.004388 0.0
-0.994421 -0.004922 0.0
-0.993325 -0.005513 0.0
-0.992094 -0.006168 0.0
-0.990713 -0.006891 0.0
-0.989165 -0.007684 0.0
-0.987431 -0.008551 0.0
-0.985493 -0.009492 0.0
-0.983329 -0.010505 0.0
-0.980919 -0.011586 0.0
-0.978240 -0.012724 0.0
-0.975273 -0.013904 0.0
-0.971997 -0.015101 0.0
-0.968397 -0.016279 0.0
-0.964466 -0.017391 0.0
-0.960203 -0.018372 0.0
-0.955625 -0.019138 0.0
-0.950768 -0.019585 0.0
-0.945697 -0.019586 0.0
-0.940512 -0.018990 0.0
-0.935358 -0.017632 0.0
-0.930434 -0.015330 0.0
-0.925999 -0.011905 0.0
-0.922375 -0.007193 0.0
-0.919944 -0.001067 0.0
-0.919135 0.006542 0.0
-0.920407 0.015624 0.0
-0.924220 0.026068 0.0
-0.930999 0.037670 0.0
-0.941109 0.050156 0.0
-0.954832 0.063236 0.0
-0.972371 0.076679 0.0
-0.993869 0.090372 0.0
-1.019445 0.104315 0.0
-1.049205 0.118505 0.0
-1.083209 0.132724 0.0
-1.121378 0.146332 0.0
-1.163379 0.158193 0.0
-1.208537 0.166814 0.0
-1.255802 0.170611 0.0
-1.303756 0.168183 0.0
-1.350636 0.158493 0.0
-1.394351 0.140982 0.0
-1.432547 0.115669 0.0
-1.462784 0.083285 0.0
-1.482864 0.045351 0.0
-1.491243 0.004046 0.0
-1.487259 -0.038276 0.0
-1.471100 -0.079305 0.0
-1.443557 -0.117018 0.0
-1.405274 -0.150278 0.0
-1.356505 -0.177292 0.0
-1.298500 -0.194351 0.0
-1.235852 -0.196495 0.0
-1.176740 -0.182453 0.0
-1.126517 -0.160712 0.0
-1.085976 -0.134657 0.0
-1.054799 -0.107541 0.0
-1.031856 -0.081109 0.0
-1.015914 -0.056126 0.0
-1.005931 -0.032715 0.0
-1.001158 -0.010619 0.0
-1.002886 -0.000377 0.0
-1.002920 -0.000328 0.0
-1.002940 -0.000285 0.0
-1.002949 -0.000250 0.0
-1.002948 -0.000223 0.0
-1.002940 -0.000204 0.0
-1.002927 -0.000193 0.0
-1.002910 -0.000189 0.0
-1.002890 -0.000190 0.0
-1.002866 -0.000197 0.0
-1.002839 -0.000210 0.0
-1.002808 -0.000226 0.0
-1.002773 -0.000248 0.0
-1.002734 -0.000274 0.0
-1.002690 -0.000305 0.0
-1.002640 -0.000341 0.0
-1.002584 -0.000382 0.0
-1.002520 -0.000430 0.0
-1.002448 -0.000484 0.0
-1.002367 -0.000545 0.0
-1.002275 -0.000615 0.0
-1.002172 -0.000694 0.0
-1.002055 -0.000782 0.0
-1.001922 -0.000883 0.0
-1.001773 -0.000996 0.0
-1.001605 -0.001124 0.0
-1.001414 -0.001268 0.0
-1.001199 -0.001431 0.0
-1.000957 -0.001614 0.0
-1.000683 -0.001820 0.0
-1.000374 -0.002051 0.0
-1.000025 -0.002312 0.0
-0.999632 -0.002605 0.0
-0.999188 -0.002934 0.0
-0.998687 -0.003303 0.0
-0.998122 -0.003717 0.0
-0.997485 -0.004180 0.0
-0.996766 -0.004698 0.0
-0.995957 -0.005277 0.0
-0.995044 -0.005921 0.0
-0.994016 -0.006638 0.0
-0.992858 -0.007433 0.0
-0.991555 -0.008311 0.0
-0.990088 -0.009279 0.0
-0.988437 -0.010339 0.0
-0.986583 -0.011496 0.0
-0.984500 -0.012747 0.0
-0.982163 -0.014091 0.0
-0.979544 -0.015516 0.0
-0.976615 -0.017009 0.0
-0.973346 -0.018541 0.0
-0.969709 -0.020076 0.0
-0.965678 -0.021558 0.0
-0.961234 -0.022912 0.0
-0.956371 -0.024039 0.0
-0.951099 -0.024813 0.0
-0.945457 -0.025072 0.0
-0.939519 -0.024627 0.0
-0.933412 -0.023256 0.0
-0.927326 -0.020716 0.0
-0.921526 -0.016754 0.0
-0.916363 -0.011132 0.0
-0.912272 -0.003650 0.0
-0.909771 0.005815 0.0
-0.909435 0.017287 0.0
-0.911866 0.030649 0.0
-0.917651 0.045653 0.0
-0.927319 0.061950 0.0
-0.941304 0.079151 0.0
-0.959930 0.096929 0.0
-0.983412 0.115103 0.0
-1.011883 0.133631 0.0
-1.045406 0.152471 0.0
-1.083953 0.171308 0.0
-1.127343 0.189307 0.0
-1.175163 0.205040 0.0
-1.226697 0.216660 0.0
-1.280879 0.222212 0.0
-1.336251 0.219907 0.0
-1.390895 0.208293 0.0
-1.442376 0.186378 0.0
-1.487738 0.153832 0.0
-1.523712 0.111332 0.0
-1.547247 0.060918 0.0
-1.556342 0.005954 0.0
-1.550720 -0.049789 0.0
-1.532150 -0.102521 0.0
-1.503052 -0.150443 0.0
-1.463627 -0.194560 0.0
-1.411121 -0.234284 0.0
-1.342685 -0.263799 0.0
-1.262285 -0.270093 0.0
-1.187242 -0.243011 0.0
-1.128504 -0.209115 0.0
-1.084000 -0.171298 0.0
-1.051807 -0.134269 0.0
-1.029326 -0.099805 0.0
-1.014356 -0.068341 0.0
-1.005275 -0.039564 0.0
-1.001020 -0.012798 0.0
-1.002846 -0.000335 0.0
-1.002882 -0.000299 0.0
-1.002907 -0.000269 0.0
-1.002922 -0.000243 0.0
-1.002928 -0.000224 0.0
-1.002927 -0.000211 0.0
-1.002921 -0.000205 0.0
-1.002910 -0.000204 0.0
-1.002896 -0.000210 0.0
-1.002877 -0.000220 0.0
-1.002855 -0.000236 0.0
-1.002829 -0.000257 0.0
-1.002799 -0.000282 0.0
-1.002765 -0.000313 0.0
-1.002726 -0.000349 0.0
-1.002682 -0.000391 0.0
-1.002632 -0.000439 0.0
-1.002575 -0.000494 0.0
-1.002510 -0.000556 0.0
-1.002438 -0.000627 0.0
-1.002355 -0.000707 0.0
-1.002262 -0.000798 0.0
-1.002157 -0.000900 0.0
-1.002038 -0.001016 0.0
-1.001903 -0.001147 0.0
-1.001751 -0.001294 0.0
-1.001580 -0.001460 0.0
-1.001386 -0.001647 0.0
-1.001167 -0.001858 0.0
-1.000920 -0.002096 0.0
-1.000640 -0.002363 0.0
-1.000324 -0.002664 0.0
-0.999968 -0.003003 0.0
-0.999565 -0.003383 0.0
-0.999110 -0.003810 0.0
-0.998597 -0.004289 0.0
-0.998016 -0.004826 0.0
-0.997360 -0.005427 0.0
-0.996620 -0.006099 0.0
-0.995783 -0.006849 0.0
-0.994837 -0.007684 0.0
-0.993768 -0.008613 0.0
-0.992559 -0.009643 0.0
-0.991193 -0.010780 0.0
-0.989648 -0.012033 0.0
-0.987901 -0.013404 0.0
-0.985924 -0.014898 0.0
-0.983688 -0.016513 0.0
-0.981158 -0.018242 0.0
-0.978297 -0.020073 0.0
-0.975064 -0.021980 0.0
-0.971414 -0.023925 0.0
-0.967302 -0.025851 0.0
-0.962685 -0.027679 0.0
-0.957526 -0.029295 0.0
-0.951801 -0.030553 0.0
-0.945512 -0.031263 0.0
-0.938696 -0.031190 0.0
-0.931446 -0.030050 0.0
-0.923930 -0.027524 0.0
-0.916411 -0.023265 0.0
-0.909266 -0.016930 0.0
-0.902991 -0.008217 0.0
-0.898204 0.003093 0.0
-0.895618 0.017088 0.0
-0.896017 0.033677 0.0
-0.900187 0.052580 0.0
-0.908858 0.073362 0.0
-0.922643 0.095509 0.0
-0.941993 0.118546 0.0
-0.967171 0.142146 0.0
-0.998257 0.166146 0.0
-1.035168 0.190391 0.0
-1.077675 0.214442 0.0
-1.125399 0.237288 0.0
-1.177795 0.257275 0.0
-1.234111 0.272275 0.0
-1.293318 0.279986 0.0
-1.353988 0.278175 0.0
-1.414129 0.264811 0.0
-1.470996 0.238208 0.0
-1.520977 0.197346 0.0
-1.559746 0.142562 0.0
-1.582991 0.076468 0.0
-1.588025 0.004533 0.0
-1.576077 -0.065939 0.0
-1.554123 -0.126896 0.0
-1.529017 -0.180272 0.0
-1.499725 -0.233448 0.0
-1.457339 -0.290289 0.0
-1.387953 -0.345617 0.0
-1.285446 -0.371182 0.0
-1.187101 -0.315311 0.0
-1.120205 -0.262449 0.0
-1.074065 -0.208607 0.0
-1.043501 -0.159717 0.0
-1.023686 -0.116654 0.0
-1.011258 -0.078890 0.0
-1.004052 -0.045304 0.0
-1.000773 -0.014591 0.0
-1.002818 -0.000292 0.0
-1.002856 -0.000268 0.0
-1.002884 -0.000247 0.0
-1.002904 -0.000231 0.0
-1.002915 -0.000219 0.0
-1.002921 -0.000212 0.0
-1.002920 -0.000211 0.0
-1.002915 -0.000215 0.0
-1.002905 -0.000224 0.0
-1.002892 -0.000238 0.0
-1.002875 -0.000257 0.0
-1.002854 -0.000282 0.0
-1.002830 -0.000312 0.0
-1.002801 -0.000347 0.0
-1.002768 -0.000387 0.0
-1.002730 -0.000435 0.0
-1.002687 -0.000489 0.0
-1.002637 -0.000550 0.0
-1.002581 -0.000620 0.0
-1.002518 -0.000699 0.0
-1.002446 -0.000789 0.0
-1.002365 -0.000891 0.0
-1.002273 -0.001005 0.0
-1.002169 -0.001134 0.0
-1.002051 -0.001281 0.0
-1.001918 -0.001445 0.0
-1.001768 -0.001631 0.0
-1.001598 -0.001840 0.0
-1.001405 -0.002076 0.0
-1.001188 -0.002342 0.0
-1.000942 -0.002642 0.0
-1.000665 -0.002979 0.0
-1.000350 -0.003358 0.0
-0.999995 -0.003785 0.0
-0.999593 -0.004264 0.0
-0.999138 -0.004803 0.0
-0.998623 -0.005407 0.0
-0.998039 -0.006084 0.0
-0.997379 -0.006843 0.0
-0.996630 -0.007691 0.0
-0.995780 -0.008638 0.0
-0.994817 -0.009693 0.0
-0.993722 -0.010866 0.0
-0.992477 -0.012168 0.0
-0.991061 -0.013606 0.0
-0.989448 -0.015191 0.0
-0.987608 -0.016928 0.0
-0.985507 -0.018821 0.0
-0.983104 -0.020868 0.0
-0.980352 -0.023060 0.0
-0.977198 -0.025380 0.0
-0.973580 -0.027793 0.0
-0.969431 -0.030245 0.0
-0.964678 -0.032656 0.0
-0.959246 -0.034909 0.0
-0.953068 -0.036842 0.0
-0.946093 -0.038239 0.0
-0.938303 -0.038820 0.0
-0.929738 -0.038235 0.0
-0.920521 -0.036072 0.0
-0.910891 -0.031865 0.0
-0.901233 -0.025133 0.0
-0.892098 -0.015423 0.0
-0.884205 -0.002381 0.0
-0.878411 0.014184 0.0
-0.875680 0.034249 0.0
-0.877010 0.057508 0.0
-0.883332 0.083427 0.0
-0.895432 0.111328 0.0
-0.913864 0.140509 0.0
-0.938891 0.170388 0.0
-0.970456 0.200554 0.0
-1.008203 0.230641 0.0
-1.051548 0.260044 0.0
-1.099758 0.287620 0.0
-1.152004 0.311585 0.0
-1.207370 0.329647 0.0
-1.264792 0.339242 0.0
-1.322912 0.337709 0.0
-1.379845 0.322351 0.0
-1.432856 0.290546 0.0
-1.477999 0.240131 0.0
-1.509834 0.170380 0.0
-1.522020 0.084080 0.0
-1.510412 -0.009653 0.0
-1.482305 -0.091807 0.0
-1.458022 -0.147265 0.0
-1.449948 -0.193084 0.0
-1.452621 -0.247255 0.0
-1.450483 -0.321007 0.0
-1.411853 -0.422915 0.0
-1.292196 -0.516049 0.0
-1.162605 -0.398379 0.0
-1.092468 -0.316415 0.0
-1.051059 -0.242189 0.0
-1.027303 -0.180455 0.0
-1.013744 -0.129291 0.0
-1.006133 -0.086292 0.0
-1.002104 -0.049137 0.0
-1.000388 -0.015752 0.0
-1.002800 -0.000248 0.0
-1.002839 -0.000234 0.0
-1.002870 -0.000222 0.0
-1.002893 -0.000213 0.0
-1.002909 -0.000208 0.0
-1.002919 -0.000207 0.0
-1.002924 -0.000211 0.0
-1.002924 -0.000219 0.0
-1.002919 -0.000233 0.0
-1.002911 -0.000251 0.0
-1.002899 -0.000274 0.0
-1.002883 -0.000302 0.0
-1.002864 -0.000335 0.0
-1.002841 -0.000374 0.0
-1.002814 -0.000420 0.0
-1.002783 -0.000472 0.0
-1.002747 -0.000531 0.0
-1.002706 -0.000598 0.0
-1.002660 -0.000675 0.0
-1.002607 -0.000761 0.0
-1.002546 -0.000859 0.0
-1.002478 -0.000970 0.0
-1.002401 -0.001095 0.0
-1.002313 -0.001236 0.0
-1.002214 -0.001396 0.0
-1.002102 -0.001575 0.0
-1.001975 -0.001778 0.0
-1.001831 -0.002007 0.0
-1.001669 -0.002265 0.0
-1.001485 -0.002555 0.0
-1.001277 -0.002883 0.0
-1.001041 -0.003252 0.0
-1.000774 -0.003667 0.0
-1.000471 -0.004134 0.0
-1.000128 -0.004660 0.0
-0.999739 -0.005251 0.0
-0.999298 -0.005915 0.0
-0.998796 -0.006661 0.0
-0.998226 -0.007497 0.0
-0.997577 -0.008434 0.0
-0.996839 -0.009482 0.0
-0.995996 -0.010654 0.0
-0.995034 -0.011962 0.0
-0.993933 -0.013417 0.0
-0.992672 -0.015034 0.0
-0.991223 -0.016825 0.0
-0.989554 -0.018802 0.0
-0.987628 -0.020974 0.0
-0.985398 -0.023347 0.0
-0.982810 -0.025921 0.0
-0.979796 -0.028687 0.0
-0.976279 -0.031621 0.0
-0.972165 -0.034680 0.0
-0.967349 -0.037791 0.0
-0.961712 -0.040842 0.0
-0.955131 -0.043668 0.0
-0.947485 -0.046034 0.0
-0.938678 -0.047621 0.0
-0.928662 -0.048015 0.0
-0.917475 -0.046697 0.0
-0.905285 -0.043060 0.0
-0.892438 -0.036443 0.0
-0.879497 -0.026189 0.0
-0.867257 -0.011749 0.0
-0.856717 0.007219 0.0
-0.849004 0.030769 0.0
-0.845295 0.058608 0.0
-0.846716 0.090071 0.0
-0.854196 0.124263 0.0
-0.868355 0.160165 0.0
-0.889401 0.196805 0.0
-0.917052 0.233353 0.0
-0.950548 0.269085 0.0
-0.988744 0.303141 0.0
-1.030263 0.334252 0.0
-1.073648 0.360583 0.0
-1.117434 0.379801 0.0
-1.160160 0.389235 0.0
-1.200283 0.385959 0.0
-1.236005 0.366754 0.0
-1.264905 0.328054 0.0
-1.283254 0.266116 0.0
-1.284986 0.177963 0.0
-1.261233 0.064930 0.0
-1.204889 -0.058456 0.0
-1.146069 -0.129931 0.0
-1.129354 -0.150139 0.0
-1.158769 -0.168867 0.0
-1.217597 -0.209971 0.0
-1.294924 -0.283104 0.0
-1.350642 -0.443728 0.0
-1.247439 -0.718096 0.0
-1.091245 -0.482116 0.0
-1.034303 -0.359757 0.0
-1.010605 -0.263955 0.0
-1.001727 -0.191322 0.0
-0.999100 -0.134610 0.0
-0.998911 -0.088773 0.0
-0.999432 -0.050163 0.0
-0.999867 -0.016007 0.0
-1.002790 -0.000204 0.0
-1.002830 -0.000198 0.0
-1.002864 -0.000194 0.0
-1.002890 -0.000192 0.0
-1.002910 -0.000193 0.0
-1.002924 -0.000198 0.0
-1.002932 -0.000207 0.0
-1.002937 -0.000220 0.0
-1.002937 -0.000237 0.0
-1.002933 -0.000259 0.0
-1.002926 -0.000285 0.0
-1.002916 -0.000317 0.0
-1.002902 -0.000353 0.0
-1.002885 -0.000396 0.0
-1.002865 -0.000445 0.0
-1.002841 -0.000501 0.0
-1.002813 -0.000565 0.0
-1.002781 -0.000637 0.0
-1.002744 -0.000719 0.0
-1.002702 -0.000812 0.0
-1.002655 -0.000917 0.0
-1.002601 -0.001035 0.0
-1.002539 -0.001169 0.0
-1.002469 -0.001320 0.0
-1.002390 -0.001490 0.0
-1.002301 -0.001682 0.0
-1.002199 -0.001899 0.0
-1.002084 -0.002144 0.0
-1.001954 -0.002420 0.0
-1.001806 -0.002732 0.0
-1.001639 -0.003082 0.0
-1.001449 -0.003478 0.0
-1.001233 -0.003924 0.0
-1.000988 -0.004425 0.0
-1.000710 -0.004991 0.0
-1.000393 -0.005627 0.0
-1.000032 -0.006342 0.0
-0.999621 -0.007147 0.0
-0.999152 -0.008051 0.0
-0.998615 -0.009065 0.0
-0.998001 -0.010204 0.0
-0.997296 -0.011480 0.0
-0.996485 -0.012909 0.0
-0.995550 -0.014506 0.0
-0.994470 -0.016288 0.0
-0.993216 -0.018274 0.0
-0.991757 -0.020481 0.0
-0.990052 -0.022926 0.0
-0.988051 -0.025625 0.0
-0.985692 -0.028590 0.0
-0.982898 -0.031825 0.0
-0.979574 -0.035324 0.0
-0.975602 -0.039062 0.0
-0.970841 -0.042985 0.0
-0.965125 -0.047001 0.0
-0.958261 -0.050954 0.0
-0.950046 -0.054609 0.0
-0.940273 -0.057625 0.0
-0.928772 -0.059528 0.0
-0.915443 -0.059699 0.0
-0.900323 -0.057369 0.0
-0.883645 -0.051659 0.0
-0.865912 -0.041648 0.0
-0.847936 -0.026508 0.0
-0.830826 -0.005671 0.0
-0.815883 0.021002 0.0
-0.804427 0.053210 0.0
-0.797699 0.090163 0.0
-0.796760 0.130711 0.0
-0.802314 0.173431 0.0
-0.814532 0.216802 0.0
-0.832902 0.259378 0.0
-0.856196 0.299850 0.0
-0.882563 0.336938 0.0
-0.909738 0.369150 0.0
-0.935272 0.394603 0.0
-0.956698 0.410994 0.0
-0.971612 0.415682 0.0
-0.977684 0.405708 0.0
-0.972627 0.377670 0.0
-0.954026 0.327437 0.0
-0.918614 0.249669 0.0
-0.859802 0.137330 0.0
-0.761671 -0.016320 0.0
-0.632393 -0.162827 0.0
-0.526044 -0.190729 0.0
-0.496535 -0.135566 0.0
-0.551030 -0.099530 0.0
-0.653999 -0.117511 0.0
-0.819010 -0.133225 0.0
-1.031913 -0.324985 0.0
-1.043085 -0.928870 0.0
-0.940737 -0.529885 0.0
-0.939017 -0.370650 0.0
-0.953295 -0.262483 0.0
-0.968538 -0.186428 0.0
-0.981099 -0.129570 0.0
-0.990322 -0.084779 0.0
-0.996313 -0.047646 0.0
-0.999264 -0.015138 0.0
-1.002787 -0.000159 0.0
-1.002829 -0.000161 0.0
-1.002864 -0.000163 0.0
-1.002893 -0.000168 0.0
-1.002915 -0.000175 0.0
-1.002933 -0.000185 0.0
-1.002945 -0.000198 0.0
-1.002954 -0.000215 0.0
-1.002958 -0.000236 0.0
-1.002959 -0.000262 0.0
-1.002957 -0.000291 0.0
-1.002952 -0.000326 0.0
-1.002944 -0.000366 0.0
-1.002933 -0.000412 0.0
-1.002919 -0.000464 0.0
-1.002903 -0.000523 0.0
-1.002883 -0.000590 0.0
-1.002861 -0.000667 0.0
-1.002834 -0.000753 0.0
-1.002804 -0.000850 0.0
-1.002770 -0.000960 0.0
-1.002730 -0.001085 0.0
-1.002685 -0.001225 0.0
-1.002635 -0.001384 0.0
-1.002577 -0.001563 0.0
-1.002511 -0.001765 0.0
-1.002437 -0.001993 0.0
-1.002352 -0.002250 0.0
-1.002256 -0.002541 0.0
-1.002147 -0.002868 0.0
-1.002023 -0.003237 0.0
-1.001882 -0.003654 0.0
-1.001721 -0.004124 0.0
-1.001538 -0.004653 0.0
-1.001329 -0.005250 0.0
-1.001091 -0.005923 0.0
-1.000818 -0.006680 0.0
-1.000504 -0.007533 0.0
-1.000145 -0.008493 0.0
-0.999731 -0.009573 0.0
-0.999253 -0.010788 0.0
-0.998701 -0.012154 0.0
-0.998060 -0.013687 0.0
-0.997313 -0.015409 0.0
-0.996440 -0.017339 0.0
-0.995415 -0.019502 0.0
-0.994206 -0.021922 0.0
-0.992772 -0.024625 0.0
-0.991062 -0.027638 0.0
-0.989010 -0.030989 0.0
-0.986530 -0.034700 0.0
-0.983516 -0.038788 0.0
-0.979829 -0.043257 0.0
-0.975294 -0.048086 0.0
-0.969694 -0.053216 0.0
-0.962768 -0.058527 0.0
-0.954214 -0.063806 0.0
-0.943702 -0.068713 0.0
-0.930906 -0.072739 0.0
-0.915547 -0.075175 0.0
-0.897463 -0.075097 0.0
-0.876687 -0.071385 0.0
-0.853536 -0.062806 0.0
-0.828699 -0.048162 0.0
-0.803317 -0.026509 0.0
-0.778976 0.002555 0.0
-0.757425 0.038650 0.0
-0.740076 0.080647 0.0
-0.727880 0.127092 0.0
-0.721457 0.176181 0.0
-0.720978 0.225792 0.0
-0.725903 0.273684 0.0
-0.734777 0.317712 0.0
-0.745248 0.355915 0.0
-0.754310 0.386411 0.0
-0.758657 0.407223 0.0
-0.755021 0.416164 0.0
-0.740405 0.410810 0.0
-0.712232 0.388480 0.0
-0.668529 0.346138 0.0
-0.608296 0.280135 0.0
-0.531845 0.185107 0.0
-0.436894 0.048129 0.0
-0.318937 -0.143206 0.0
-0.190519 -0.293636 0.0
-0.077215 -0.279573 0.0
0.014052 -0.167498 0.0
0.071725 -0.070776 0.0
0.044089 -0.028649 0.0
0.464332 -0.109603 0.0
0.464332 -0.255801 0.0
-0.323419 -0.809598 0.0
-0.714544 -0.470046 0.0
-0.823709 -0.323044 0.0
-0.891346 -0.228174 0.0
-0.934743 -0.162096 0.0
-0.963356 -0.112729 0.0
-0.982009 -0.073743 0.0
-0.993324 -0.041376 0.0
-0.998689 -0.013092 0.0
-1.002792 -0.000113 0.0
-1.002834 -0.000122 0.0
-1.002871 -0.000131 0.0
-1.002901 -0.000141 0.0
-1.002927 -0.000154 0.0
-1.002947 -0.000169 0.0
-1.002963 -0.000186 0.0
-1.002975 -0.000207 0.0
-1.002983 -0.000232 0.0
-1.002988 -0.000260 0.0
-1.002990 -0.000293 0.0
-1.002990 -0.000330 0.0
-1.002988 -0.000372 0.0
-1.002983 -0.000420 0.0
-1.002976 -0.000475 0.0
-1.002968 -0.000537 0.0
-1.002957 -0.000607 0.0
-1.002944 -0.000686 0.0
-1.002928 -0.000775 0.0
-1.002910 -0.000876 0.0
-1.002889 -0.000990 0.0
-1.002865 -0.001119 0.0
-1.002838 -0.001264 0.0
-1.002807 -0.001428 0.0
-1.002771 -0.001613 0.0
-1.002731 -0.001821 0.0
-1.002684 -0.002057 0.0
-1.002632 -0.002323 0.0
-1.002572 -0.002624 0.0
-1.002503 -0.002963 0.0
-1.002425 -0.003345 0.0
-1.002335 -0.003777 0.0
-1.002232 -0.004264 0.0
-1.002114 -0.004814 0.0
-1.001979 -0.005434 0.0
-1.001823 -0.006133 0.0
-1.001643 -0.006922 0.0
-1.001434 -0.007812 0.0
-1.001192 -0.008816 0.0
-1.000910 -0.009947 0.0
-1.000581 -0.011222 0.0
-1.000195 -0.012659 0.0
-0.999740 -0.014278 0.0
-0.999202 -0.016102 0.0
-0.998563 -0.018158 0.0
-0.997799 -0.020472 0.0
-0.996880 -0.023079 0.0
-0.995769 -0.026013 0.0
-0.994415 -0.029314 0.0
-0.992754 -0.033027 0.0
-0.990699 -0.037196 0.0
-0.988136 -0.041869 0.0
-0.984914 -0.047085 0.0
-0.980837 -0.052870 0.0
-0.975650 -0.059219 0.0
-0.969037 -0.066064 0.0
-0.960617 -0.073243 0.0
-0.949958 -0.080446 0.0
-0.936604 -0.087157 0.0
-0.920116 -0.092605 0.0
-0.900131 -0.095736 0.0
-0.876426 -0.095226 0.0
-0.848986 -0.089557 0.0
-0.818080 -0.077154 0.0
-0.784377 -0.056602 0.0
-0.749136 -0.026933 0.0
-0.714488 0.011940 0.0
-0.683253 0.058773 0.0
-0.657328 0.110844 0.0
-0.637046 0.165723 0.0
-0.622107 0.220833 0.0
-0.611755 0.273215 0.0
-0.604501 0.319800 0.0
-0.597913 0.357710 0.0
-0.588687 0.384450 0.0
-0.573050 0.397894 0.0
-0.547314 0.396123 0.0
-0.508360 0.377280 0.0
-0.453954 0.339430 0.0
-0.382895 0.280426 0.0
-0.295353 0.198072 0.0
-0.195641 0.091007 0.0
-0.077024 -0.071339 0.0
0.035247 -0.253968 0.0
0.100039 -0.376084 0.0
0.121370 -0.331760 0.0
0.107086 -0.192295 0.0
0.045332 -0.040671 0.0
0.000000 -0.083628 0.0
-0.000000 -0.218748 0.0
0.000000 -0.150712 0.0
-0.228484 -0.362784 0.0
-0.571488 -0.287819 0.0
-0.748653 -0.218942 0.0
-0.849110 -0.164182 0.0
-0.910997 -0.120803 0.0
-0.950644 -0.085763 0.0
-0.975984 -0.056716 0.0
-0.991145 -0.031927 0.0
-0.998270 -0.010051 0.0
-1.002802 -0.000067 0.0
-1.002846 -0.000082 0.0
-1.002883 -0.000096 0.0
-1.002916 -0.000112 0.0