# vtk DataFile Version 3.0
Vector Field
ASCII
DATASET RECTILINEAR_GRID
DIMENSIONS 100 26 1
X_COORDINATES 100 double
0.050000 0.150000 0.250000 0.350000 0.450000 0.550000 0.650000 0.750000 0.850000 0.950000 1.050000 1.150000 1.250000 1.350000 1.450000 1.550000 1.650000 1.750000 1.850000 1.950000 2.050000 2.150000 2.250000 2.350000 2.450000 2.550000 2.650000 2.750000 2.850000 2.950000 3.050000 3.150000 3.250000 3.350000 3.450000 3.550000 3.650000 3.750000 3.850000 3.950000 4.050000 4.150000 4.250000 4.350000 4.450000 4.550000 4.650000 4.750000 4.850000 4.950000 5.050000 5.150000 5.250000 5.350000 5.450000 5.550000 5.650000 5.750000 5.850000 5.950000 6.050000 6.150000 6.250000 6.350000 6.450000 6.550000 6.650000 6.750000 6.850000 6.950000 7.050000 7.150000 7.250000 7.350000 7.450000 7.550000 7.650000 7.750000 7.850000 7.950000 8.050000 8.150000 8.250000 8.350000 8.450000 8.550000 8.650000 8.750000 8.850000 8.950000 9.050000 9.150000 9.250000 9.350000 9.450000 9.550000 9.650000 9.750000 9.850000 9.950000 
Y_COORDINATES 26 double
0.050000 0.150000 0.250000 0.350000 0.450000 0.550000 0.650000 0.750000 0.850000 0.950000 1.050000 1.150000 1.250000 1.350000 1.450000 1.550000 1.650000 1.750000 1.850000 1.950000 2.050000 2.150000 2.250000 2.350000 2.450000 2.550000 
Z_COORDINATES 1 double
0.0
POINT_DATA 2600
VECTORS Vektorfeld double
-0.980443 -0.006487 0.0
-0.966324 -0.007632 0.0
-0.949974 -0.008718 0.0
-0.932103 -0.009154 0.0
-0.913917 -0.009032 0.0
-0.896391 -0.008494 0.0
-0.880178 -0.007720 0.0
-0.865579 -0.006878 0.0
-0.852595 -0.006106 0.0
-0.841003 -0.005486 0.0
-0.830484 -0.005034 0.0
-0.820752 -0.004699 0.0
-0.811695 -0.004358 0.0
-0.803523 -0.003815 0.0
-0.796900 -0.002808 0.0
-0.793094 -0.000998 0.0
-0.794052 0.001956 0.0
-0.801983 0.005975 0.0
-0.818589 0.010630 0.0
-0.844593 0.015374 0.0
-0.879579 0.019613 0.0
-0.922032 0.022840 0.0
-0.969601 0.024728 0.0
-1.019472 0.025143 0.0
-1.068711 0.024096 0.0
-1.114489 0.021682 0.0
-1.154224 0.018053 0.0
-1.185682 0.013405 0.0
-1.207060 0.007973 0.0
-1.217056 0.002023 0.0
-1.214876 -0.004202 0.0
-1.200383 -0.010291 0.0
-1.174658 -0.015434 0.0
-1.140185 -0.019040 0.0
-1.100177 -0.020969 0.0
-1.057798 -0.021410 0.0
-1.015686 -0.020702 0.0
-0.975784 -0.019200 0.0
-0.939391 -0.017192 0.0
-0.907337 -0.014862 0.0
-0.880188 -0.012288 0.0
-0.858430 -0.009470 0.0
-0.842595 -0.006364 0.0
-0.833325 -0.002906 0.0
-0.831356 0.000937 0.0
-0.837258 0.004965 0.0
-0.850938 0.008715 0.0
-0.871617 0.011963 0.0
-0.898210 0.014630 0.0
-0.929548 0.016707 0.0
-0.964465 0.018209 0.0
-1.001823 0.019149 0.0
-1.040498 0.019526 0.0
-1.079348 0.019325 0.0
-1.117194 0.018521 0.0
-1.152802 0.017087 0.0
-1.184890 0.015001 0.0
-1.212158 0.012266 0.0
-1.233347 0.008923 0.0
-1.247345 0.005075 0.0
-1.253319 0.000900 0.0
-1.250879 -0.003341 0.0
-1.240182 -0.007356 0.0
-1.222202 -0.010623 0.0
-1.198942 -0.012637 0.0
-1.173187 -0.013119 0.0
-1.147990 -0.012078 0.0
-1.126146 -0.009767 0.0
-1.109799 -0.006579 0.0
-1.100289 -0.002931 0.0
-1.098166 0.000808 0.0
-1.103279 0.004304 0.0
-1.114915 0.007332 0.0
-1.132067 0.009819 0.0
-1.153588 0.011702 0.0
-1.178221 0.012932 0.0
-1.204630 0.013478 0.0
-1.231442 0.013334 0.0
-1.257291 0.012515 0.0
-1.280869 0.011064 0.0
-1.300978 0.009045 0.0
-1.316571 0.006549 0.0
-1.326805 0.003685 0.0
-1.331063 0.000573 0.0
-1.328973 -0.002663 0.0
-1.320403 -0.005906 0.0
-1.305486 -0.009010 0.0
-1.284641 -0.011835 0.0
-1.258580 -0.014225 0.0
-1.228352 -0.016004 0.0
-1.195346 -0.017002 0.0
-1.161230 -0.017114 0.0
-1.127761 -0.016354 0.0
-1.096543 -0.014865 0.0
-1.068831 -0.012847 0.0
-1.045475 -0.010508 0.0
-1.026945 -0.008021 0.0
-1.013410 -0.005514 0.0
-1.004808 -0.003087 0.0
-1.000861 -0.000861 0.0
-0.968434 -0.019626 0.0
-0.953526 -0.023520 0.0
-0.936878 -0.025827 0.0
-0.920537 -0.026258 0.0
-0.905588 -0.025061 0.0
-0.892899 -0.022679 0.0
-0.883004 -0.019644 0.0
-0.876076 -0.016480 0.0
-0.871952 -0.013612 0.0
-0.870233 -0.011291 0.0
-0.870431 -0.009549 0.0
-0.872148 -0.008197 0.0
-0.875235 -0.006828 0.0
-0.879916 -0.004836 0.0
-0.886821 -0.001504 0.0
-0.896796 0.003867 0.0
-0.910509 0.011762 0.0
-0.928484 0.022076 0.0
-0.951373 0.034024 0.0
-0.979691 0.046302 0.0
-1.013375 0.057355 0.0
-1.051587 0.065762 0.0
-1.092743 0.070530 0.0
-1.134696 0.071167 0.0
-1.174970 0.067585 0.0
-1.210972 0.059972 0.0
-1.240172 0.048699 0.0
-1.260256 0.034301 0.0
-1.269256 0.017455 0.0
-1.265678 -0.001041 0.0
-1.248989 -0.020006 0.0
-1.220794 -0.037175 0.0
-1.184557 -0.050512 0.0
-1.143993 -0.058999 0.0
-1.102348 -0.062663 0.0
-1.062206 -0.062235 0.0
-1.025439 -0.058756 0.0
-0.993224 -0.053264 0.0
-0.966169 -0.046575 0.0
-0.944520 -0.039182 0.0
-0.928369 -0.031268 0.0
-0.917795 -0.022823 0.0
-0.912861 -0.013781 0.0
-0.913517 -0.004103 0.0
-0.919521 0.006170 0.0
-0.930528 0.016640 0.0
-0.946435 0.026628 0.0
-0.967317 0.035611 0.0
-0.992986 0.043245 0.0
-1.022900 0.049344 0.0
-1.056244 0.053834 0.0
-1.092044 0.056683 0.0
-1.129237 0.057860 0.0
-1.166701 0.057305 0.0
-1.203249 0.054934 0.0
-1.237618 0.050651 0.0
-1.268468 0.044376 0.0
-1.294399 0.036091 0.0
-1.314007 0.025896 0.0
-1.325985 0.014078 0.0
-1.329282 0.001168 0.0
-1.323330 -0.012001 0.0
-1.308447 -0.024276 0.0
-1.286068 -0.034062 0.0
-1.258647 -0.039879 0.0
-1.229351 -0.040928 0.0
-1.201503 -0.037313 0.0
-1.177961 -0.029918 0.0
-1.160687 -0.020048 0.0
-1.150635 -0.009025 0.0
-1.147924 0.002069 0.0
-1.152206 0.012438 0.0
-1.162914 0.021543 0.0
-1.179215 0.029061 0.0
-1.199996 0.034762 0.0
-1.223980 0.038488 0.0
-1.249794 0.040145 0.0
-1.276024 0.039708 0.0
-1.301259 0.037224 0.0
-1.324141 0.032815 0.0
-1.343419 0.026680 0.0
-1.358003 0.019090 0.0
-1.367007 0.010381 0.0
-1.369795 0.000923 0.0
-1.366004 -0.008894 0.0
-1.355555 -0.018694 0.0
-1.338602 -0.028093 0.0
-1.315510 -0.036690 0.0
-1.286923 -0.044018 0.0
-1.253839 -0.049523 0.0
-1.217686 -0.052642 0.0
-1.180285 -0.052992 0.0
-1.143617 -0.050612 0.0
-1.109452 -0.045990 0.0
-1.079102 -0.039784 0.0
-1.053386 -0.032644 0.0
-1.032707 -0.025094 0.0
-1.017179 -0.017504 0.0
-1.006761 -0.010117 0.0
-1.001409 -0.003131 0.0
-0.909239 -0.032520 0.0
-0.895606 -0.039167 0.0
-0.880791 -0.041642 0.0
-0.866595 -0.040981 0.0
-0.854271 -0.037610 0.0
-0.844839 -0.032251 0.0
-0.839036 -0.025771 0.0
-0.837250 -0.019068 0.0
-0.839482 -0.012917 0.0
-0.845372 -0.007814 0.0
-0.854326 -0.003873 0.0
-0.865724 -0.000759 0.0
-0.879180 0.002277 0.0
-0.894665 0.006224 0.0
-0.912416 0.012091 0.0
-0.932798 0.020629 0.0
-0.956190 0.032105 0.0
-0.982787 0.046306 0.0
-1.012435 0.062331 0.0
-1.044674 0.078552 0.0
-1.078823 0.092938 0.0
-1.113949 0.103516 0.0
-1.148783 0.108765 0.0
-1.181682 0.107785 0.0
-1.210690 0.100250 0.0
-1.233675 0.086293 0.0
-1.248507 0.066410 0.0
-1.253252 0.041419 0.0
-1.246366 0.012451 0.0
-1.227044 -0.018937 0.0
-1.196743 -0.049100 0.0
-1.159052 -0.073968 0.0
-1.117719 -0.091289 0.0
-1.076020 -0.100484 0.0
-1.036648 -0.102196 0.0
-1.001651 -0.097840 0.0
-0.972383 -0.089188 0.0
-0.949455 -0.077977 0.0
-0.932801 -0.065571 0.0
-0.921903 -0.052734 0.0
-0.916146 -0.039624 0.0
-0.915129 -0.026057 0.0
-0.918757 -0.011854 0.0
-0.927089 0.002959 0.0
-0.940082 0.018106 0.0
-0.957486 0.033114 0.0
-0.978930 0.047504 0.0
-1.004016 0.060703 0.0
-1.032383 0.072190 0.0
-1.063643 0.081574 0.0
-1.097302 0.088606 0.0
-1.132717 0.093127 0.0
-1.169116 0.095008 0.0
-1.205601 0.094106 0.0
-1.241163 0.090243 0.0
-1.274670 0.083218 0.0
-1.304856 0.072844 0.0
-1.330324 0.059022 0.0
-1.349585 0.041834 0.0
-1.361141 0.021673 0.0
-1.363633 -0.000639 0.0
-1.356019 -0.023760 0.0
-1.338002 -0.045417 0.0
-1.310829 -0.062472 0.0
-1.277536 -0.072182 0.0
-1.242239 -0.073219 0.0
-1.209124 -0.065985 0.0
-1.181639 -0.052274 0.0
-1.162028 -0.034577 0.0
-1.151245 -0.015331 0.0
-1.149192 0.003610 0.0
-1.155109 0.021096 0.0
-1.167936 0.036420 0.0
-1.186519 0.049067 0.0
-1.209638 0.058657 0.0
-1.235984 0.064922 0.0
-1.264160 0.067700 0.0
-1.292715 0.066939 0.0
-1.320192 0.062705 0.0
-1.345168 0.055193 0.0
-1.366320 0.044733 0.0
-1.382487 0.031787 0.0
-1.392728 0.016929 0.0
-1.396365 0.000801 0.0
-1.392990 -0.015939 0.0
-1.382436 -0.032651 0.0
-1.364776 -0.048748 0.0
-1.340293 -0.063610 0.0
-1.309501 -0.076476 0.0
-1.273311 -0.086338 0.0
-1.233260 -0.092031 0.0
-1.191612 -0.092653 0.0
-1.151012 -0.088220 0.0
-1.113709 -0.079849 0.0
-1.081148 -0.068836 0.0
-1.054065 -0.056391 0.0
-1.032669 -0.043422 0.0
-1.016871 -0.030502 0.0
-1.006471 -0.017937 0.0
-1.001297 -0.005837 0.0
-0.857448 -0.044444 0.0
-0.845282 -0.053042 0.0
-0.832345 -0.055519 0.0
-0.820121 -0.053526 0.0
-0.809834 -0.047677 0.0
-0.802551 -0.038898 0.0
-0.799166 -0.028312 0.0
-0.800334 -0.017145 0.0
-0.806370 -0.006572 0.0
-0.817174 0.002534 0.0
-0.832278 0.009837 0.0
-0.851001 0.015652 0.0
-0.872590 0.020912 0.0
-0.896428 0.026910 0.0
-0.922194 0.034922 0.0
-0.949839 0.045826 0.0
-0.979379 0.059841 0.0
-1.010646 0.076435 0.0
-1.043137 0.094341 0.0
-1.076045 0.111689 0.0
-1.108370 0.126276 0.0
-1.138998 0.135932 0.0
-1.166688 0.138873 0.0
-1.190026 0.133915 0.0
-1.207423 0.120525 0.0
-1.217192 0.098772 0.0
-1.217696 0.069267 0.0
-1.207551 0.033161 0.0
-1.185876 -0.007852 0.0
-1.153760 -0.050072 0.0
-1.114643 -0.087384 0.0
-1.072219 -0.115800 0.0
-1.029478 -0.133532 0.0
-0.988942 -0.140475 0.0
-0.952774 -0.137745 0.0
-0.922789 -0.127272 0.0
-0.900351 -0.111462 0.0
-0.886150 -0.092831 0.0
-0.879968 -0.073551 0.0
-0.880679 -0.054940 0.0
-0.886665 -0.037189 0.0
-0.896496 -0.019678 0.0
-0.909381 -0.001720 0.0
-0.925193 0.016969 0.0
-0.944176 0.036071 0.0
-0.966545 0.054924 0.0
-0.992238 0.072830 0.0
-1.020939 0.089164 0.0
-1.052258 0.103414 0.0
-1.085812 0.115164 0.0
-1.121220 0.124081 0.0
-1.158044 0.129891 0.0
-1.195745 0.132342 0.0
-1.233644 0.131157 0.0
-1.270895 0.126005 0.0
-1.306435 0.116503 0.0
-1.338943 0.102251 0.0
-1.366790 0.082930 0.0
-1.388044 0.058442 0.0
-1.400537 0.029115 0.0
-1.402047 -0.004078 0.0
-1.390649 -0.039334 0.0
-1.366023 -0.072486 0.0
-1.330720 -0.097879 0.0
-1.289469 -0.111318 0.0
-1.247511 -0.111339 0.0
-1.209417 -0.099073 0.0
-1.178631 -0.077457 0.0
-1.157319 -0.050317 0.0
-1.146307 -0.021385 0.0
-1.145268 0.006572 0.0
-1.153165 0.031949 0.0
-1.168707 0.053937 0.0
-1.190585 0.072011 0.0
-1.217461 0.085709 0.0
-1.247907 0.094662 0.0
-1.280399 0.098629 0.0
-1.313351 0.097518 0.0
-1.345150 0.091400 0.0
-1.374203 0.080526 0.0
-1.399000 0.065350 0.0
-1.418204 0.046542 0.0
-1.430745 0.024956 0.0
-1.435887 0.001553 0.0
-1.433221 -0.022733 0.0
-1.422604 -0.047028 0.0
-1.404110 -0.070526 0.0
-1.377901 -0.092525 0.0
-1.344168 -0.112085 0.0
-1.303440 -0.127648 0.0
-1.257214 -0.136998 0.0
-1.208531 -0.138016 0.0
-1.161525 -0.130463 0.0
-1.119409 -0.117025 0.0
-1.083687 -0.099944 0.0
-1.054832 -0.081221 0.0
-1.032641 -0.062179 0.0
-1.016632 -0.043551 0.0
-1.006299 -0.025622 0.0
-1.001246 -0.008379 0.0
-0.815970 -0.055190 0.0
-0.805344 -0.065087 0.0
-0.794357 -0.067398 0.0
-0.784200 -0.064028 0.0
-0.775938 -0.055722 0.0
-0.770543 -0.043530 0.0
-0.768888 -0.028720 0.0
-0.771719 -0.012738 0.0
-0.779597 0.002936 0.0
-0.792843 0.017076 0.0
-0.811405 0.028960 0.0
-0.834724 0.038571 0.0
-0.861846 0.046704 0.0
-0.891680 0.054790 0.0
-0.923269 0.064396 0.0
-0.955910 0.076637 0.0
-0.989092 0.091752 0.0
-1.022306 0.109004 0.0
-1.054874 0.126830 0.0
-1.085897 0.143130 0.0
-1.114312 0.155576 0.0
-1.138976 0.161925 0.0
-1.158705 0.160299 0.0
-1.172275 0.149396 0.0
-1.178431 0.128597 0.0
-1.175959 0.097997 0.0
-1.163829 0.058415 0.0
-1.141411 0.011451 0.0
-1.109246 -0.039982 0.0
-1.070297 -0.089007 0.0
-1.028229 -0.129633 0.0
-0.985585 -0.158618 0.0
-0.944407 -0.174633 0.0
-0.906445 -0.177873 0.0
-0.873305 -0.169655 0.0
-0.846566 -0.152086 0.0
-0.827795 -0.127857 0.0
-0.818351 -0.100081 0.0
-0.818878 -0.071956 0.0
-0.828688 -0.046016 0.0
-0.845633 -0.023183 0.0
-0.866870 -0.002616 0.0
-0.890115 0.017348 0.0
-0.914427 0.038025 0.0
-0.939995 0.059565 0.0
-0.967413 0.081218 0.0
-0.997121 0.101936 0.0
-1.029197 0.120836 0.0
-1.063454 0.137317 0.0
-1.099601 0.150962 0.0
-1.137327 0.161417 0.0
-1.176284 0.168337 0.0
-1.216025 0.171339 0.0
-1.255933 0.169968 0.0
-1.295148 0.163659 0.0
-1.332478 0.151720 0.0
-1.366316 0.133379 0.0
-1.394555 0.107889 0.0
-1.414559 0.074740 0.0
-1.423217 0.033967 0.0
-1.417204 -0.013433 0.0
-1.394424 -0.064158 0.0
-1.357112 -0.109599 0.0
-1.311619 -0.141560 0.0
-1.264714 -0.155793 0.0
-1.221455 -0.152081 0.0
-1.184982 -0.132897 0.0
-1.157214 -0.102186 0.0
-1.139390 -0.064724 0.0
-1.131989 -0.025392 0.0
-1.134602 0.012153 0.0
-1.146270 0.045932 0.0
-1.165927 0.075152 0.0
-1.192464 0.099209 0.0
-1.224555 0.117478 0.0
-1.260661 0.129444 0.0
-1.299093 0.134771 0.0
-1.338072 0.133309 0.0
-1.375769 0.125106 0.0
-1.410340 0.110443 0.0
-1.440000 0.089890 0.0
-1.463144 0.064350 0.0
-1.478505 0.035051 0.0
-1.485314 0.003409 0.0
-1.483310 -0.029259 0.0
-1.472618 -0.061811 0.0
-1.453568 -0.093287 0.0
-1.426217 -0.123323 0.0
-1.390002 -0.151235 0.0
-1.344234 -0.174994 0.0
-1.289541 -0.190571 0.0
-1.229968 -0.192699 0.0
-1.173199 -0.179554 0.0
-1.124548 -0.158700 0.0
-1.085033 -0.133507 0.0
-1.054454 -0.107090 0.0
-1.031808 -0.081148 0.0
-1.015968 -0.056431 0.0
-1.005981 -0.033063 0.0
-1.001174 -0.010798 0.0
-0.784854 -0.064703 0.0
-0.775736 -0.075319 0.0
-0.766658 -0.077230 0.0
-0.758575 -0.072437 0.0
-0.752385 -0.061765 0.0
-0.748930 -0.046338 0.0
-0.748995 -0.027503 0.0
-0.753306 -0.006813 0.0
-0.762539 0.014121 0.0
-0.777231 0.033830 0.0
-0.797552 0.051089 0.0
-0.823128 0.065337 0.0
-0.853045 0.076976 0.0
-0.886007 0.087315 0.0
-0.920616 0.098069 0.0
-0.955623 0.110611 0.0
-0.990018 0.125355 0.0
-1.022952 0.141550 0.0
-1.053591 0.157491 0.0
-1.081018 0.170918 0.0
-1.104229 0.179413 0.0
-1.122182 0.180705 0.0
-1.133854 0.172919 0.0
-1.138278 0.154768 0.0
-1.134586 0.125689 0.0
-1.122096 0.085944 0.0
-1.100467 0.036709 0.0
-1.069944 -0.019784 0.0
-1.032852 -0.078002 0.0
-0.992667 -0.130121 0.0
-0.951824 -0.171430 0.0
-0.912047 -0.199242 0.0
-0.874652 -0.212582 0.0
-0.840694 -0.211844 0.0
-0.811126 -0.198391 0.0
-0.786999 -0.174218 0.0
-0.769657 -0.141838 0.0
-0.760828 -0.104373 0.0
-0.762313 -0.065650 0.0
-0.775081 -0.029744 0.0
-0.798110 0.000520 0.0
-0.828309 0.025118 0.0
-0.861878 0.046427 0.0
-0.895902 0.067283 0.0
-0.929276 0.089248 0.0
-0.962442 0.112119 0.0
-0.996330 0.134632 0.0
-1.031577 0.155463 0.0
-1.068343 0.173713 0.0
-1.106473 0.188843 0.0
-1.145656 0.200446 0.0
-1.185472 0.208081 0.0
-1.225343 0.211206 0.0
-1.264455 0.209121 0.0
-1.301667 0.200932 0.0
-1.335420 0.185530 0.0
-1.363639 0.161627 0.0
-1.383648 0.127889 0.0
-1.392114 0.083209 0.0
-1.385099 0.027142 0.0
-1.358582 -0.039136 0.0
-1.314118 -0.105700 0.0
-1.260835 -0.158654 0.0
-1.208812 -0.190021 0.0
-1.164886 -0.198164 0.0
-1.132062 -0.185793 0.0
-1.110316 -0.157405 0.0
-1.098198 -0.117564 0.0
-1.094469 -0.070899 0.0
-1.098430 -0.022657 0.0
-1.109514 0.023116 0.0
-1.127691 0.064814 0.0
-1.153330 0.101567 0.0
-1.186140 0.132141 0.0
-1.224951 0.155448 0.0
-1.268105 0.170734 0.0
-1.313728 0.177536 0.0
-1.359831 0.175626 0.0
-1.404343 0.164996 0.0
-1.445132 0.145913 0.0
-1.480069 0.119018 0.0
-1.507172 0.085468 0.0
-1.524888 0.047010 0.0
-1.532453 0.005824 0.0
-1.530083 -0.036049 0.0
-1.518976 -0.076821 0.0
-1.500585 -0.115718 0.0
-1.475045 -0.153783 0.0
-1.440312 -0.191723 0.0
-1.392723 -0.227863 0.0
-1.329269 -0.255850 0.0
-1.253598 -0.262665 0.0
-1.182098 -0.237858 0.0
-1.125568 -0.205577 0.0
-1.082502 -0.169213 0.0
-1.051162 -0.133302 0.0
-1.029131 -0.099614 0.0
-1.014348 -0.068588 0.0
-1.005305 -0.039935 0.0
-1.001033 -0.013005 0.0
-0.764058 -0.073019 0.0
-0.756321 -0.083860 0.0
-0.748963 -0.085124 0.0
-0.742762 -0.078828 0.0
-0.738489 -0.065837 0.0
-0.736886 -0.047322 0.0
-0.738660 -0.024679 0.0
-0.744478 0.000492 0.0
-0.754984 0.026555 0.0
-0.770684 0.051788 0.0
-0.791763 0.074530 0.0
-0.817963 0.093673 0.0
-0.848490 0.109085 0.0
-0.882059 0.121737 0.0
-0.917107 0.133303 0.0
-0.952067 0.145344 0.0
-0.985566 0.158517 0.0
-1.016468 0.172224 0.0
-1.043797 0.184785 0.0
-1.066645 0.193899 0.0
-1.084118 0.197117 0.0
-1.095354 0.192191 0.0
-1.099569 0.177321 0.0
-1.096115 0.151336 0.0
-1.084548 0.113862 0.0
-1.064728 0.065461 0.0
-1.036965 0.007800 0.0
-1.002757 -0.055607 0.0
-0.965166 -0.116863 0.0
-0.926984 -0.169628 0.0
-0.889818 -0.209932 0.0
-0.854792 -0.235544 0.0
-0.822639 -0.245828 0.0
-0.793811 -0.241384 0.0
-0.768643 -0.223586 0.0
-0.747588 -0.194205 0.0
-0.731477 -0.155304 0.0
-0.721740 -0.109473 0.0
-0.720483 -0.060322 0.0
-0.730086 -0.012701 0.0
-0.752044 0.028464 0.0
-0.785422 0.060751 0.0
-0.826296 0.085237 0.0
-0.869529 0.105729 0.0
-0.911495 0.126142 0.0
-0.951191 0.148088 0.0
-0.989402 0.170762 0.0
-1.027234 0.192411 0.0
-1.065271 0.211568 0.0
-1.103493 0.227340 0.0
-1.141479 0.239118 0.0
-1.178539 0.246285 0.0
-1.213730 0.248064 0.0
-1.245804 0.243449 0.0
-1.273152 0.231165 0.0
-1.293755 0.209653 0.0
-1.305124 0.177092 0.0
-1.304218 0.131526 0.0
-1.287358 0.071178 0.0
-1.250117 -0.005084 0.0
-1.192588 -0.090956 0.0
-1.124754 -0.166178 0.0
-1.059517 -0.216696 0.0
-1.006055 -0.237464 0.0
-0.970427 -0.230274 0.0
-0.955467 -0.201466 0.0
-0.959837 -0.159110 0.0
-0.978015 -0.109799 0.0
-1.002985 -0.057423 0.0
-1.029137 -0.006020 0.0
-1.054662 0.043089 0.0
-1.082596 0.090953 0.0
-1.116617 0.135089 0.0
-1.157545 0.172357 0.0
-1.204286 0.200783 0.0
-1.255032 0.219299 0.0
-1.307749 0.227311 0.0
-1.360299 0.224504 0.0
-1.410448 0.210779 0.0
-1.455848 0.186319 0.0
-1.494055 0.151755 0.0
-1.522670 0.108450 0.0
-1.539741 0.058815 0.0
-1.544546 0.006388 0.0
-1.538492 -0.045037 0.0
-1.525899 -0.091534 0.0
-1.511169 -0.134125 0.0
-1.494698 -0.177387 0.0
-1.472284 -0.225265 0.0
-1.435309 -0.278885 0.0
-1.371170 -0.332422 0.0
-1.274454 -0.358479 0.0
-1.180747 -0.307252 0.0
-1.116517 -0.256942 0.0
-1.072123 -0.205307 0.0
-1.042609 -0.158062 0.0
-1.023364 -0.116130 0.0
-1.011195 -0.079024 0.0
-1.004064 -0.045673 0.0
-1.000783 -0.014821 0.0
-0.753462 -0.080229 0.0
-0.746924 -0.090925 0.0
-0.741005 -0.091336 0.0
-0.736361 -0.083461 0.0
-0.733673 -0.068166 0.0
-0.733625 -0.046645 0.0
-0.736865 -0.020342 0.0
-0.743996 0.009103 0.0
-0.755542 0.039996 0.0
-0.771853 0.070359 0.0
-0.793018 0.098203 0.0
-0.818780 0.121962 0.0
-0.848436 0.140978 0.0
-0.880807 0.155784 0.0
-0.914356 0.167853 0.0
-0.947415 0.178813 0.0
-0.978422 0.189554 0.0
-1.006056 0.199723 0.0
-1.029246 0.207806 0.0
-1.047109 0.211588 0.0
-1.058886 0.208677 0.0
-1.063929 0.196910 0.0
-1.061732 0.174621 0.0
-1.051990 0.140840 0.0
-1.034678 0.095479 0.0
-1.010173 0.039519 0.0
-0.979442 -0.024751 0.0
-0.945020 -0.091686 0.0
-0.909846 -0.153548 0.0
-0.875689 -0.205281 0.0
-0.843690 -0.243445 0.0
-0.814486 -0.266262 0.0
-0.788280 -0.273469 0.0
-0.764974 -0.265877 0.0
-0.744403 -0.244831 0.0
-0.726611 -0.211808 0.0
-0.712079 -0.168345 0.0
-0.701902 -0.116345 0.0
-0.697928 -0.058682 0.0
-0.702809 0.000143 0.0
-0.719458 0.054226 0.0
-0.749297 0.098206 0.0
-0.790520 0.129880 0.0
-0.838244 0.152043 0.0
-0.886841 0.170392 0.0
-0.932681 0.189374 0.0
-0.974939 0.209945 0.0
-1.014395 0.230515 0.0
-1.051874 0.248980 0.0
-1.087522 0.263798 0.0
-1.120810 0.273934 0.0
-1.150745 0.278465 0.0
-1.175988 0.276318 0.0
-1.194890 0.266170 0.0
-1.205504 0.246407 0.0
-1.205601 0.215111 0.0
-1.192667 0.170068 0.0
-1.163841 0.108818 0.0
-1.115724 0.028909 0.0
-1.046703 -0.069078 0.0
-0.965669 -0.165525 0.0
-0.885770 -0.239341 0.0
-0.814335 -0.280206 0.0
-0.756564 -0.285187 0.0
-0.717575 -0.257168 0.0
-0.703543 -0.203565 0.0
-0.720662 -0.135522 0.0
-0.768697 -0.067174 0.0
-0.832609 -0.011166 0.0
-0.891300 0.032566 0.0
-0.938847 0.077576 0.0
-0.982923 0.128476 0.0
-1.029966 0.178630 0.0
-1.081620 0.221399 0.0
-1.136802 0.253665 0.0
-1.193725 0.274086 0.0
-1.250431 0.281948 0.0
-1.304858 0.276845 0.0
-1.354855 0.258583 0.0
-1.398152 0.227212 0.0
-1.432281 0.183199 0.0
-1.454522 0.127862 0.0
-1.462317 0.064270 0.0
-1.455016 -0.001563 0.0
-1.437944 -0.060213 0.0
-1.422870 -0.104025 0.0
-1.418068 -0.141167 0.0
-1.422855 -0.182029 0.0
-1.431272 -0.234620 0.0
-1.431541 -0.306236 0.0
-1.395277 -0.405474 0.0
-1.280506 -0.496913 0.0
-1.155932 -0.387099 0.0
-1.088540 -0.308718 0.0
-1.048945 -0.237520 0.0
-1.026299 -0.178010 0.0
-1.013357 -0.128369 0.0
-1.006036 -0.086275 0.0
-1.002104 -0.049485 0.0
-1.000395 -0.015999 0.0
-0.752787 -0.086453 0.0
-0.747254 -0.096771 0.0
-0.742461 -0.096200 0.0
-0.738997 -0.086705 0.0
-0.737493 -0.069114 0.0
-0.738602 -0.044637 0.0
-0.742932 -0.014778 0.0
-0.751012 0.018750 0.0
-0.763219 0.054101 0.0
-0.779710 0.089055 0.0
-0.800409 0.121370 0.0
-0.824983 0.149131 0.0
-0.852770 0.171251 0.0
-0.882721 0.187834 0.0
-0.913433 0.200065 0.0
-0.943297 0.209525 0.0
-0.970722 0.217273 0.0
-0.994317 0.223232 0.0
-1.012979 0.226148 0.0
-1.025872 0.224002 0.0
-1.032381 0.214550 0.0
-1.032080 0.195780 0.0
-1.024746 0.166219 0.0
-1.010407 0.125161 0.0
-0.989439 0.072877 0.0
-0.962687 0.010864 0.0
-0.931921 -0.057594 0.0
-0.899858 -0.125329 0.0
-0.868770 -0.186167 0.0
-0.839898 -0.235690 0.0
-0.813939 -0.270995 0.0
-0.791031 -0.290824 0.0
-0.770827 -0.295316 0.0
-0.752727 -0.285436 0.0
-0.736212 -0.262359 0.0
-0.721153 -0.227132 0.0
-0.707991 -0.180716 0.0
-0.697777 -0.124366 0.0
-0.692185 -0.060227 0.0
-0.693537 0.007922 0.0
-0.704614 0.074173 0.0
-0.727836 0.131321 0.0
-0.763714 0.173866 0.0
-0.809461 0.201526 0.0
-0.859568 0.219613 0.0
-0.908519 0.234944 0.0
-0.953160 0.251274 0.0
-0.992843 0.268325 0.0
-1.028001 0.283807 0.0
-1.058818 0.295437 0.0
-1.084780 0.301545 0.0
-1.104774 0.300783 0.0
-1.117302 0.291771 0.0
-1.120617 0.272934 0.0
-1.112817 0.242457 0.0
-1.091928 0.198269 0.0
-1.055952 0.138000 0.0
-1.002761 0.058869 0.0
-0.930172 -0.041847 0.0
-0.845215 -0.152299 0.0
-0.760446 -0.248107 0.0
-0.682229 -0.314875 0.0
-0.613345 -0.344991 0.0
-0.554793 -0.336725 0.0
-0.506286 -0.293125 0.0
-0.467388 -0.220538 0.0
-0.440228 -0.128590 0.0
-0.434094 -0.032205 0.0
-0.465769 0.049453 0.0
-0.545233 0.110101 0.0
-0.655974 0.158328 0.0
-0.765551 0.201377 0.0
-0.855932 0.243154 0.0
-0.929345 0.281941 0.0
-0.993562 0.312522 0.0
-1.052177 0.330766 0.0
-1.104986 0.334781 0.0
-1.150437 0.323889 0.0
-1.186744 0.297843 0.0
-1.212079 0.256584 0.0
-1.224411 0.200289 0.0
-1.221211 0.129812 0.0
-1.199543 0.048447 0.0
-1.158977 -0.033606 0.0
-1.119580 -0.084639 0.0
-1.105599 -0.108654 0.0
-1.120576 -0.126364 0.0
-1.158896 -0.153724 0.0
-1.215186 -0.198219 0.0
-1.287772 -0.269781 0.0
-1.339679 -0.426285 0.0
-1.237612 -0.692940 0.0
-1.085431 -0.467827 0.0
-1.030826 -0.349987 0.0
-1.008708 -0.257964 0.0
-1.000818 -0.188102 0.0
-0.998745 -0.133292 0.0
-0.998820 -0.088599 0.0
-0.999430 -0.050482 0.0
-0.999873 -0.016267 0.0
-0.761657 -0.091812 0.0
-0.756945 -0.101658 0.0
-0.752991 -0.100060 0.0
-0.750357 -0.088943 0.0
-0.749659 -0.069078 0.0
-0.751532 -0.041692 0.0
-0.756546 -0.008378 0.0
-0.765152 0.029036 0.0
-0.777570 0.068440 0.0
-0.793757 0.107393 0.0
-0.813462 0.143437 0.0
-0.836242 0.174419 0.0
-0.861441 0.198950 0.0
-0.888141 0.216785 0.0
-0.915122 0.228807 0.0
-0.940942 0.236467 0.0
-0.964103 0.240916 0.0
-0.983251 0.242333 0.0
-0.997312 0.239770 0.0
-1.005526 0.231486 0.0
-1.007421 0.215469 0.0
-1.002782 0.189922 0.0
-0.991654 0.153615 0.0
-0.974382 0.106155 0.0
-0.951707 0.048240 0.0
-0.924896 -0.018061 0.0
-0.896248 -0.088083 0.0
-0.868226 -0.154924 0.0
-0.842372 -0.213515 0.0
-0.819575 -0.260010 0.0
-0.800078 -0.292131 0.0
-0.783452 -0.309221 0.0
-0.768786 -0.311789 0.0
-0.755065 -0.300784 0.0
-0.741597 -0.276994 0.0
-0.728291 -0.240860 0.0
-0.715732 -0.192708 0.0
-0.705092 -0.133227 0.0
-0.697994 -0.064055 0.0
-0.696428 0.011536 0.0
-0.702676 0.087884 0.0
-0.719139 0.157294 0.0
-0.747490 0.212123 0.0
-0.787027 0.248552 0.0
-0.833756 0.269425 0.0
-0.881819 0.282146 0.0
-0.926243 0.293137 0.0
-0.964515 0.304418 0.0
-0.996054 0.314410 0.0
-1.020822 0.320419 0.0
-1.038402 0.320105 0.0
-1.047815 0.311632 0.0
-1.047706 0.293341 0.0
-1.036548 0.263521 0.0
-1.012810 0.220332 0.0
-0.975062 0.161758 0.0
-0.921980 0.085454 0.0
-0.852007 -0.011749 0.0
-0.769609 -0.126216 0.0
-0.685871 -0.236625 0.0
-0.608547 -0.325874 0.0
-0.540746 -0.383126 0.0
-0.483446 -0.402924 0.0
-0.435296 -0.385494 0.0
-0.393214 -0.334945 0.0
-0.353990 -0.256840 0.0
-0.316326 -0.157113 0.0
-0.283365 -0.042779 0.0
-0.267179 0.075516 0.0
-0.285487 0.181810 0.0
-0.349369 0.261243 0.0
-0.452080 0.310750 0.0
-0.568854 0.340937 0.0
-0.674262 0.362978 0.0
-0.757435 0.378876 0.0
-0.819144 0.384737 0.0
-0.862244 0.376718 0.0
-0.887701 0.352861 0.0
-0.894971 0.312449 0.0
-0.882911 0.255252 0.0
-0.850075 0.181117 0.0
-0.793976 0.089685 0.0
-0.708602 -0.018466 0.0
-0.612758 -0.103103 0.0
-0.540481 -0.126816 0.0
-0.508665 -0.112273 0.0
-0.526730 -0.089704 0.0
-0.586021 -0.092773 0.0
-0.674046 -0.114855 0.0
-0.827527 -0.127078 0.0
-1.030813 -0.313796 0.0
-1.037727 -0.900583 0.0
-0.936769 -0.513322 0.0
-0.936620 -0.359246 0.0
-0.952014 -0.255430 0.0
-0.967949 -0.182590 0.0
-0.980887 -0.127939 0.0
-0.990280 -0.084484 0.0
-0.996321 -0.047947 0.0
-0.999271 -0.015410 0.0
-0.779662 -0.096404 0.0
-0.775634 -0.105806 0.0
-0.772301 -0.103201 0.0
-0.770240 -0.090497 0.0
-0.770064 -0.068399 0.0
-0.772389 -0.038173 0.0
-0.777738 -0.001534 0.0
-0.786447 0.039508 0.0
-0.798584 0.082524 0.0
-0.813933 0.124845 0.0
-0.832079 0.163836 0.0
-0.852483 0.197203 0.0
-0.874502 0.223384 0.0
-0.897341 0.241889 0.0
-0.919989 0.253334 0.0
-0.941226 0.258998 0.0
-0.959733 0.260053 0.0
-0.974274 0.256886 0.0
-0.983862 0.248866 0.0
-0.987834 0.234576 0.0
-0.985857 0.212299 0.0
-0.977912 0.180508 0.0
-0.964281 0.138268 0.0
-0.945593 0.085542 0.0
-0.922912 0.023498 0.0
-0.897913 -0.045130 0.0
-0.872910 -0.114666 0.0
-0.849906 -0.179367 0.0
-0.830035 -0.234797 0.0
-0.813771 -0.277789 0.0
-0.800787 -0.306834 0.0
-0.790034 -0.321898 0.0
-0.780099 -0.323712 0.0
-0.769733 -0.312948 0.0
-0.758270 -0.289762 0.0
-0.745807 -0.253862 0.0
-0.733137 -0.204935 0.0
-0.721572 -0.143206 0.0
-0.712736 -0.070010 0.0
-0.708412 0.011601 0.0
-0.710465 0.096120 0.0
-0.720853 0.175908 0.0
-0.741404 0.242411 0.0
-0.772695 0.289092 0.0
-0.812557 0.315477 0.0
-0.856032 0.327631 0.0
-0.897425 0.333470 0.0
-0.932628 0.337558 0.0
-0.959750 0.339931 0.0
-0.978231 0.338147 0.0
-0.987713 0.329438 0.0
-0.987521 0.311520 0.0
-0.976673 0.282495 0.0
-0.954082 0.240618 0.0
-0.918747 0.184161 0.0
-0.869851 0.111285 0.0
-0.806674 0.019668 0.0
-0.731104 -0.091505 0.0
-0.652007 -0.207954 0.0
-0.578671 -0.311961 0.0
-0.515562 -0.390971 0.0
-0.464874 -0.436519 0.0
-0.425514 -0.446191 0.0
-0.393193 -0.422698 0.0
-0.362311 -0.370706 0.0
-0.328318 -0.294296 0.0
-0.289198 -0.196441 0.0
-0.246036 -0.079574 0.0
-0.203695 0.053785 0.0
-0.173650 0.191803 0.0
-0.171480 0.312962 0.0
-0.208953 0.399214 0.0
-0.284480 0.444775 0.0
-0.378980 0.459048 0.0
-0.466962 0.453961 0.0
-0.532119 0.436519 0.0
-0.570090 0.406008 0.0
-0.581412 0.360351 0.0
-0.567578 0.298395 0.0
-0.530111 0.219778 0.0
-0.470629 0.124272 0.0
-0.388862 0.008663 0.0
-0.295318 -0.116362 0.0
-0.209994 -0.186377 0.0
-0.130529 -0.195284 0.0
-0.043930 -0.162220 0.0
0.038012 -0.103634 0.0
0.081682 -0.063222 0.0
0.044530 -0.031576 0.0
0.465746 -0.099809 0.0
0.465746 -0.248432 0.0
-0.321581 -0.779436 0.0
-0.712013 -0.451442 0.0
-0.822752 -0.310536 0.0
-0.891002 -0.220495 0.0
-0.934663 -0.157929 0.0
-0.963377 -0.110949 0.0
-0.982052 -0.073405 0.0
-0.993352 -0.041684 0.0
-0.998697 -0.013378 0.0
-0.806391 -0.100291 0.0
-0.802983 -0.109355 0.0
-0.800165 -0.105803 0.0
-0.798552 -0.091569 0.0
-0.798742 -0.067314 0.0
-0.801304 -0.034372 0.0
-0.806679 0.005388 0.0
-0.815081 0.049697 0.0
-0.826421 0.095811 0.0
-0.840337 0.140823 0.0
-0.856301 0.181970 0.0
-0.873729 0.216901 0.0
-0.892014 0.243990 0.0
-0.910497 0.262606 0.0
-0.928384 0.273153 0.0
-0.944699 0.276730 0.0
-0.958348 0.274475 0.0
-0.968271 0.266928 0.0
-0.973610 0.253751 0.0
-0.973818 0.233871 0.0
-0.968698 0.205907 0.0
-0.958398 0.168654 0.0
-0.943409 0.121503 0.0
-0.924597 0.064808 0.0
-0.903281 0.000234 0.0
-0.881406 -0.068740 0.0
-0.861084 -0.136380 0.0
-0.843840 -0.197900 0.0
-0.830465 -0.249510 0.0
-0.820900 -0.288905 0.0
-0.814164 -0.315437 0.0
-0.808625 -0.329587 0.0
-0.802557 -0.332024 0.0
-0.794706 -0.322853 0.0
-0.784596 -0.301430 0.0
-0.772546 -0.266707 0.0
-0.759505 -0.217800 0.0
-0.746837 -0.154574 0.0
-0.736135 -0.078181 0.0
-0.729062 0.008376 0.0
-0.727227 0.099564 0.0
-0.732127 0.187753 0.0
-0.745238 0.264227 0.0
-0.767597 0.320926 0.0
-0.798485 0.354392 0.0
-0.834454 0.368159 0.0
-0.870189 0.370071 0.0
-0.900710 0.366680 0.0
-0.922907 0.360129 0.0
-0.935468 0.348990 0.0
-0.937937 0.330546 0.0
-0.929957 0.302240 0.0
-0.911032 0.262001 0.0
-0.880621 0.208110 0.0
-0.838311 0.139025 0.0
-0.783949 0.053165 0.0
-0.718097 -0.051242 0.0
-0.647121 -0.167142 0.0
-0.580353 -0.278182 0.0
-0.524056 -0.371367 0.0
-0.482270 -0.436460 0.0
-0.455015 -0.468974 0.0
-0.437514 -0.470598 0.0
-0.422301 -0.445823 0.0
-0.402522 -0.398241 0.0
-0.373915 -0.329361 0.0
-0.334988 -0.239423 0.0
-0.286298 -0.128445 0.0
-0.229498 0.003516 0.0
-0.170634 0.153163 0.0
-0.121610 0.300407 0.0
-0.095866 0.423498 0.0
-0.103575 0.503727 0.0
-0.144952 0.535971 0.0
-0.203151 0.523218 0.0
-0.253839 0.483107 0.0
-0.282219 0.425770 0.0
-0.283633 0.353324 0.0
-0.258558 0.266512 0.0
-0.210320 0.165956 0.0
-0.143634 0.051927 0.0
-0.063118 -0.081275 0.0
0.003054 -0.186139 0.0
0.036633 -0.235502 0.0
0.059841 -0.248831 0.0
0.079072 -0.214503 0.0
0.078736 -0.132956 0.0
0.035884 -0.034412 0.0
0.000000 -0.075117 0.0
-0.000000 -0.213467 0.0
0.000000 -0.146815 0.0
-0.228825 -0.330648 0.0
-0.572592 -0.267648 0.0
-0.749958 -0.206226 0.0
-0.849988 -0.156525 0.0
-0.911523 -0.116703 0.0
-0.950932 -0.084053 0.0
-0.976120 -0.056438 0.0
-0.991194 -0.032277 0.0
-0.998279 -0.010355 0.0
-0.841413 -0.103478 0.0
-0.838647 -0.112343 0.0
-0.836367 -0.107912 0.0
-0.835213 -0.092227 0.0
-0.835734 -0.065944 0.0
-0.838406 -0.030507 0.0
-0.843544 0.012036 0.0
-0.851222 0.059129 0.0
-0.861205 0.107702 0.0
-0.873026 0.154668 0.0
-0.886124 0.197187 0.0
-0.899934 0.232921 0.0
-0.913940 0.260260 0.0
-0.927632 0.278512 0.0
-0.940427 0.287929 0.0
-0.951597 0.289439 0.0
-0.960291 0.284109 0.0
-0.965655 0.272581 0.0
-0.966990 0.254771 0.0
-0.963879 0.229947 0.0