# vtk DataFile Version 3.0
Scalar Field
ASCII
DATASET RECTILINEAR_GRID
DIMENSIONS 100 26 1
X_COORDINATES 100 double
0.050000 0.150000 0.250000 0.350000 0.450000 0.550000 0.650000 0.750000 0.850000 0.950000 1.050000 1.150000 1.250000 1.350000 1.450000 1.550000 1.650000 1.750000 1.850000 1.950000 2.050000 2.150000 2.250000 2.350000 2.450000 2.550000 2.650000 2.750000 2.850000 2.950000 3.050000 3.150000 3.250000 3.350000 3.450000 3.550000 3.650000 3.750000 3.850000 3.950000 4.050000 4.150000 4.250000 4.350000 4.450000 4.550000 4.650000 4.750000 4.850000 4.950000 5.050000 5.150000 5.250000 5.350000 5.450000 5.550000 5.650000 5.750000 5.850000 5.950000 6.050000 6.150000 6.250000 6.350000 6.450000 6.550000 6.650000 6.750000 6.850000 6.950000 7.050000 7.150000 7.250000 7.350000 7.450000 7.550000 7.650000 7.750000 7.850000 7.950000 8.050000 8.150000 8.250000 8.350000 8.450000 8.550000 8.650000 8.750000 8.850000 8.950000 9.050000 9.150000 9.250000 9.350000 9.450000 9.550000 9.650000 9.750000 9.850000 9.950000 
Y_COORDINATES 26 double
0.050000 0.150000 0.250000 0.350000 0.450000 0.550000 0.650000 0.750000 0.850000 0.950000 1.050000 1.150000 1.250000 1.350000 1.450000 1.550000 1.650000 1.750000 1.850000 1.950000 2.050000 2.150000 2.250000 2.350000 2.450000 2.550000 
Z_COORDINATES 1 double
0.0
POINT_DATA 2600
SCALARS Skalarfeld double 1
LOOKUP_TABLE default
0.057982
0.048217
0.043741
0.040990
0.039446
0.038715
0.038478
0.038460
0.038426
0.038206
0.037730
0.037084
0.036574
0.036528
0.037060
0.038209
0.039597
0.040542
0.040344
0.038597
0.035410
0.031416
0.027622
0.025163
0.025019
0.027799
0.033534
0.041317
0.049839
0.057682
0.063762
0.067544
0.069031
0.068598
0.066789
0.064144
0.061088
0.057915
0.054810
0.051905
0.049327
0.047238
0.045517
0.043999
0.042476
0.040645
0.038189
0.034847
0.030465
0.025038
0.018731
0.011892
0.005045
-0.001135
-0.005891
-0.008488
-0.008363
-0.005281
0.000298
0.007215
0.014061
0.019235
0.021388
0.019744
0.014170
0.005025
-0.007099
-0.021596
-0.038019
-0.056242
-0.076021
-0.097148
-0.119364
-0.142288
-0.165376
-0.187903
-0.208979
-0.227589
-0.242671
-0.253210
-0.258335
-0.257402
-0.250046
-0.236227
-0.216252
-0.190500
-0.159558
-0.124234
-0.085603
-0.045046
-0.004198
0.035215
0.071647
0.103953
0.131460
0.153898
0.171285
0.183804
0.191736
0.195509
0.054101
0.045564
0.041733
0.039462
0.038290
0.037868
0.037907
0.038146
0.038357
0.038366
0.038093
0.037586
0.036948
0.036467
0.036540
0.037159
0.037993
0.038421
0.037773
0.035658
0.032179
0.027978
0.024077
0.021622
0.021581
0.024484
0.030486
0.038588
0.047276
0.055159
0.061249
0.065082
0.066694
0.066466
0.064937
0.062635
0.059967
0.057200
0.054487
0.051920
0.049562
0.047406
0.045528
0.043867
0.042177
0.040157
0.037492
0.033920
0.029280
0.023560
0.016922
0.009714
0.002478
-0.004083
-0.009160
-0.011948
-0.011807
-0.008460
-0.002358
0.005459
0.013361
0.019582
0.022662
0.021754
0.016681
0.007782
-0.004353
-0.019137
-0.036102
-0.054821
-0.075142
-0.096888
-0.119806
-0.143513
-0.167450
-0.190867
-0.212832
-0.232284
-0.248105
-0.259231
-0.264755
-0.264028
-0.256710
-0.242849
-0.222750
-0.196812
-0.165561
-0.129692
-0.090170
-0.048323
-0.005870
0.035241
0.073202
0.106712
0.135053
0.157990
0.175606
0.188135
0.195815
0.198718
0.046625
0.040795
0.038171
0.036791
0.036324
0.036495
0.037075
0.037815
0.038483
0.038897
0.038968
0.038681
0.038124
0.037500
0.036993
0.036614
0.036136
0.035121
0.033100
0.029836
0.025528
0.020851
0.016822
0.014540
0.014857
0.018720
0.025637
0.034309
0.043291
0.051300
0.057464
0.061418
0.063245
0.063345
0.062255
0.060489
0.058422
0.056268
0.054124
0.052031
0.050020
0.048089
0.046208
0.044284
0.042139
0.039538
0.036216
0.031938
0.026557
0.020056
0.012593
0.004521
-0.003599
-0.011011
-0.016814
-0.020066
-0.019950
-0.015986
-0.008480
0.001405
0.011726
0.020342
0.025484
0.026109
0.021959
0.013395
0.001107
-0.014193
-0.031924
-0.051636
-0.073147
-0.096279
-0.120770
-0.146209
-0.171994
-0.197313
-0.221153
-0.242351
-0.259680
-0.271975
-0.278265
-0.277895
-0.270572
-0.256484
-0.236098
-0.209790
-0.177950
-0.141023
-0.099688
-0.055121
-0.009198
0.035596
0.076779
0.112728
0.142666
0.166490
0.184481
0.197054
0.204578
0.207247
0.037615
0.034486
0.033297
0.033032
0.033490
0.034453
0.035787
0.037243
0.038574
0.039565
0.040064
0.040020
0.039498
0.038603
0.037413
0.035898
0.033902
0.031168
0.027477
0.022823
0.017564
0.012440
0.008450
0.006613
0.007801
0.012910
0.020555
0.029538
0.038524
0.046391
0.052423
0.056365
0.058367
0.058847
0.058326
0.057278
0.056013
0.054648
0.053208
0.051762
0.050307
0.048658
0.046775
0.044567
0.041883
0.038531
0.034299
0.028993
0.022489
0.014777
0.006008
-0.003462
-0.013051
-0.021933
-0.029068
-0.033292
-0.033503
-0.028934
-0.019235
-0.005879
0.008496
0.021079
0.029587
0.032660
0.029912
0.021766
0.009131
-0.007029
-0.025914
-0.047044
-0.070294
-0.095501
-0.122386
-0.150495
-0.179157
-0.207463
-0.234272
-0.258253
-0.277992
-0.292139
-0.299603
-0.299727
-0.292351
-0.277893
-0.257068
-0.230334
-0.197887
-0.159698
-0.115832
-0.067000
-0.015190
0.036049
0.082670
0.122522
0.154829
0.179822
0.198201
0.210749
0.218103
0.220656
0.027894
0.026910
0.027094
0.027967
0.029495
0.031594
0.033941
0.036294
0.038382
0.039958
0.040843
0.040968
0.040355
0.039058
0.037107
0.034468
0.031053
0.026771
0.021622
0.015822
0.009882
0.004596
0.000906
-0.000346
0.002343
0.008085
0.015933
0.024687
0.033157
0.040410
0.045908
0.049530
0.051502
0.052273
0.052357
0.052176
0.051929
0.051547
0.051236
0.050841
0.049986
0.048624
0.046722
0.044206
0.040947
0.036775
0.031505
0.024970
0.017054
0.007745
-0.002819
-0.014294
-0.026070
-0.037227
-0.046512
-0.052416
-0.053381
-0.047820
-0.034424
-0.015836
0.004249
0.022177
0.035123
0.041400
0.040448
0.032732
0.019509
0.002135
-0.018190
-0.041119
-0.066648
-0.094646
-0.124810
-0.156630
-0.189349
-0.221932
-0.253052
-0.281133
-0.304445
-0.321311
-0.330397
-0.331025
-0.323340
-0.308134
-0.286585
-0.259532
-0.226959
-0.188016
-0.141534
-0.086957
-0.025868
0.036313
0.091572
0.137138
0.172491
0.198657
0.217144
0.229355
0.236339
0.238727
0.017485
0.018160
0.019537
0.021583
0.024279
0.027423
0.030800
0.034120
0.037052
0.039283
0.040589
0.040871
0.040134
0.038427
0.035784
0.032208
0.027693
0.022290
0.016179
0.009740
0.003591
-0.001463
-0.004560
-0.004807
-0.001319
0.004591
0.012043
0.019954
0.027319
0.033415
0.037892
0.040769
0.042359
0.043155
0.043688
0.044364
0.045301
0.046479
0.047774
0.048510
0.048442
0.047480
0.045614
0.042815
0.038988
0.033981
0.027616
0.019727
0.010196
-0.001005
-0.013755
-0.027711
-0.042212
-0.056188
-0.068086
-0.075901
-0.077349
-0.068166
-0.049286
-0.024530
0.001522
0.024763
0.042139
0.051727
0.052651
0.045206
0.031154
0.012484
-0.009120
-0.034032
-0.062342
-0.093896
-0.128326
-0.165048
-0.203203
-0.241608
-0.278707
-0.312567
-0.340974
-0.361664
-0.372794
-0.373561
-0.364706
-0.347588
-0.324541
-0.297470
-0.266186
-0.228561
-0.181184
-0.120480
-0.045465
0.036071
0.104961
0.158431
0.197130
0.223893
0.241695
0.252893
0.259078
0.261152
0.006362
0.008336
0.010704
0.013759
0.017399
0.021517
0.025890
0.030183
0.033996
0.036945
0.038749
0.039277
0.038530
0.036574
0.033483
0.029322
0.024177
0.018215
0.011745
0.005252
-0.000607
-0.005075
-0.007470
-0.006475
-0.002892
0.002584
0.009044
0.015532
0.021245
0.025674
0.028656
0.030342
0.031133
0.031572
0.032230
0.033560
0.035723
0.038715
0.041636
0.043864
0.044930
0.044641
0.043000
0.040043
0.035734
0.029951
0.022529
0.013301
0.002151
-0.010947
-0.025852
-0.042171
-0.059132
-0.075442
-0.089177
-0.097855
-0.096463
-0.081636
-0.057754
-0.028849
0.000638
0.027014
0.047519
0.060029
0.062911
0.055602
0.040822
0.022374
0.000319
-0.026478
-0.057986
-0.093857
-0.133573
-0.176440
-0.221497
-0.267408
-0.312358
-0.353967
-0.389305
-0.415123
-0.428516
-0.428160
-0.415757
-0.393422
-0.367061
-0.340549
-0.313500
-0.282063
-0.239687
-0.176948
-0.083336
0.035064
0.126013
0.189632
0.230883
0.256553
0.272088
0.281121
0.285828
0.287357
-0.005321
-0.002394
0.000733
0.004502
0.008911
0.013870
0.019142
0.024355
0.029051
0.032775
0.035190
0.036131
0.035596
0.033679
0.030506
0.026213
0.020971
0.015037
0.008800
0.002790
-0.002349
-0.005939
-0.007342
-0.005870
-0.002533
0.002035
0.007014
0.011613
0.015239
0.017590
0.018673
0.018765
0.018346
0.018015
0.018401
0.020037
0.023218
0.027555
0.032176
0.036173
0.038764
0.039542
0.038458
0.035606
0.031031
0.024678
0.016418
0.006123
-0.006284
-0.020765
-0.037093
-0.054749
-0.072784
-0.089646
-0.102983
-0.109456
-0.102117
-0.084610
-0.059841
-0.031739
-0.003916
0.021092
0.041706
0.056337
0.061942
0.054821
0.043508
0.029034
0.007871
-0.020477
-0.055427
-0.096149
-0.141878
-0.191790
-0.244826
-0.299509
-0.353775
-0.404761
-0.448637
-0.480654
-0.495904
-0.491479
-0.469447
-0.435184
-0.403187
-0.378660
-0.360411
-0.342913
-0.317905
-0.270010
-0.161256
0.033165
0.161798
0.236132
0.276410
0.297411
0.308075
0.313301
0.315647
0.316337
-0.017320
-0.013809
-0.010217
-0.005945
-0.000933
0.004734
0.010807
0.016884
0.022459
0.027025
0.030188
0.031750
0.031703
0.030167
0.027319
0.023359
0.018528
0.013145
0.007634
0.002520
-0.001625
-0.004292
-0.004662
-0.003179
-0.000471
0.002819
0.005973
0.008372
0.009621
0.009603
0.008477
0.006627
0.004613
0.003104
0.002800
0.004310
0.007995
0.013319
0.019457
0.025279
0.029662
0.031898
0.031789
0.029437
0.024978
0.018455
0.009829
-0.000944
-0.013835
-0.028680
-0.045101
-0.062414
-0.079511
-0.094722
-0.105631
-0.106050
-0.096917
-0.080539
-0.059767
-0.037798
-0.017098
0.001016
0.016010
0.027304
0.033849
0.035833
0.033738
0.025632
0.007624
-0.021179
-0.058955
-0.104060
-0.155406
-0.212009
-0.272661
-0.335720
-0.398885
-0.458876
-0.510981
-0.548629
-0.563775
-0.549900
-0.504034
-0.455416
-0.419015
-0.399130
-0.393512
-0.395382
-0.401239
-0.410965
-0.333934
0.035195
0.228566
0.305729
0.335806
0.346054
0.348362
0.347913
0.346990
0.346556
-0.029394
-0.025667
-0.021867
-0.017267
-0.011784
-0.005503
0.001313
0.008231
0.014712
0.020202
0.024266
0.026669
0.027391
0.026570
0.024421
0.021199
0.017195
0.012760
0.008320
0.004361
0.001377
-0.000212
-0.000086
0.001144
0.002965
0.004756
0.005909
0.005963
0.004695
0.002142
-0.001422
-0.005515
-0.009491
-0.012585
-0.013998
-0.013030
-0.009262
-0.003282
0.004110
0.011648
0.017934
0.021932
0.023219
0.021846
0.018023
0.011911
0.003602
-0.006813
-0.019159
-0.033107
-0.048114
-0.063357
-0.077666
-0.089509
-0.095168
-0.092924
-0.084973
-0.073148
-0.059978
-0.047703
-0.037576
-0.029798
-0.023941
-0.019398
-0.015327
-0.009807
-0.006041
-0.006900
-0.017407
-0.040587
-0.076129
-0.121980
-0.176017
-0.236496
-0.301713
-0.369662
-0.437744
-0.502399
-0.558412
-0.597700
-0.608654
-0.571541
-0.511252
-0.457974
-0.420342
-0.403409
-0.407234
-0.420739
-0.446870
-0.574667
-0.666061
0.131379
0.359398
0.404311
0.407200
0.399244
0.389969
0.382452
0.377684
0.375962
-0.041336
-0.037713
-0.033906
-0.029114
-0.023243
-0.016388
-0.008836
-0.001049
0.006399
0.012920
0.018039
0.021488
0.023228
0.023399
0.022246
0.020059
0.017159
0.013910
0.010714
0.007994
0.006130
0.005392
0.005773
0.006614
0.007431
0.007662
0.006803
0.004528
0.000743
-0.004408
-0.010563
-0.017158
-0.023442
-0.028523
-0.031457
-0.031414
-0.027881
-0.021482
-0.013036
-0.003890
0.004348
0.010347
0.013428
0.013539
0.010935
0.005904
-0.001313
-0.010472
-0.021239
-0.033130
-0.045477
-0.057389
-0.067716
-0.074869
-0.076718
-0.074567
-0.069808
-0.064423
-0.060368
-0.058866
-0.060123
-0.063536
-0.068056
-0.072375
-0.074812
-0.073044
-0.068774
-0.065432
-0.068215
-0.082438
-0.110413
-0.151195
-0.202321
-0.261153
-0.325168
-0.391763
-0.457995
-0.520316
-0.573986
-0.610817
-0.607894
-0.564903
-0.511155
-0.465509
-0.433281
-0.419199
-0.419107
-0.424910
-0.424340
-0.499504
-0.010957
0.644148
0.560305
0.517198
0.479052
0.449531
0.428076
0.413581
0.405142
0.402208
-0.052966
-0.049689
-0.046004
-0.041102
-0.034875
-0.027435
-0.019102
-0.010378
-0.001874
0.005790
0.012103
0.016763
0.019705
0.021063
0.021092
0.020106
0.018441
0.016457
0.014522
0.012981
0.012096
0.012066
0.012458
0.012813
0.012625
0.011374
0.008640
0.004189
-0.001992
-0.009702
-0.018523
-0.027812
-0.036701
-0.044131
-0.048969
-0.050198
-0.047163
-0.040490
-0.031079
-0.020350
-0.010078
-0.001851
0.003397
0.005477
0.004658
0.001345
-0.004074
-0.011205
-0.019581
-0.028610
-0.037574
-0.045652
-0.052009
-0.054869
-0.055145
-0.054138
-0.053423
-0.054758
-0.059411
-0.067779
-0.079453
-0.093487
-0.108572
-0.123044
-0.134862
-0.141816
-0.141397
-0.137481
-0.134462
-0.138523
-0.154769
-0.184696
-0.226538
-0.277194
-0.333403
-0.392035
-0.449917
-0.503801
-0.550669
-0.579398
-0.572926
-0.545753
-0.510242
-0.479094
-0.455242
-0.439404
-0.433063
-0.430659
-0.427500
0.000000
0.846659
0.822519
0.690404
0.595174
0.530948
0.487078
0.457276
0.437910
0.426879
0.423086
-0.064075
-0.061278
-0.057778
-0.052791
-0.046193
-0.038115
-0.028925
-0.019176
-0.009523
-0.000623
0.006979
0.012948
0.017192
0.019827
0.021109
0.021358
0.020920
0.020144
0.019361
0.018853
0.018799
0.019166
0.019501
0.019380
0.018295
0.015759
0.011404
0.005043
-0.003310
-0.013437
-0.024893
-0.036962
-0.048644
-0.058692
-0.065742
-0.068544
-0.066251
-0.059394
-0.049028
-0.036661
-0.024225
-0.013540
-0.005786
-0.001315
0.000124
-0.000972
-0.004080
-0.008680
-0.014208
-0.020022
-0.025419
-0.029692
-0.032146
-0.032656
-0.032568
-0.033314
-0.036564
-0.043718
-0.055481
-0.071824
-0.092189
-0.115620
-0.140732
-0.165632
-0.187925
-0.204884
-0.213488
-0.211461
-0.204426
-0.197796
-0.198458
-0.211274
-0.236957
-0.273036
-0.315835
-0.361783
-0.407554
-0.449849
-0.488458
-0.509905
-0.523213
-0.521462
-0.510430
-0.494304
-0.475874
-0.458143
-0.447613
-0.439136
0.000000
0.780691
0.870800
0.788636
0.695694
0.614466
0.551609
0.505906
0.474054
0.453127
0.441154
0.437034
-0.074377
-0.072054
-0.068749
-0.063653
-0.056631
-0.047845
-0.037721
-0.026873
-0.016010
-0.005830
0.003091
0.010385
0.015930
0.019823
0.022310
0.023713
0.024378
0.024645
0.024817
0.025127
0.025696
0.026279
0.026539
0.026026
0.024231
0.020687
0.015048
0.007131
-0.003069
-0.015355
-0.029271
-0.044043
-0.058538
-0.071311
-0.080753
-0.085352
-0.084033
-0.077076
-0.065755
-0.051683
-0.036959
-0.023622
-0.013097
-0.005920
-0.001901
-0.000483
-0.001032
-0.002923
-0.005532
-0.008211
-0.010336
-0.011421
-0.011021
-0.010290
-0.010420
-0.013000
-0.019556
-0.031107
-0.048044
-0.070276
-0.097368
-0.128497
-0.162312
-0.196822
-0.229392
-0.256907
-0.276124
-0.278940
-0.269560
-0.252370
-0.234794
-0.224738
-0.226947
-0.241733
-0.266419
-0.297340
-0.330296
-0.364032
-0.398464
-0.432959
-0.469153
-0.501694
-0.522669
-0.523196
-0.503903
-0.477541
-0.462577
0.000000
0.568662
0.690582
0.734816
0.718228
0.658988
0.597382
0.546121
0.506772
0.478078
0.458659
0.447360
0.443447
-0.083410
-0.081502
-0.078341
-0.073074
-0.065560
-0.056005
-0.044901
-0.032930
-0.020860
-0.009429
0.000753
0.009293
0.016040
0.021070
0.024614
0.026993
0.028554
0.029631
0.030512
0.031393
0.032333
0.033086
0.033298
0.032518
0.030242
0.026011
0.019474
0.010418
-0.001211
-0.015260
-0.031287
-0.048474
-0.065577
-0.080968
-0.092802
-0.099305
-0.099165
-0.092226
-0.080012
-0.064246
-0.047197
-0.031124
-0.017692
-0.007651
-0.000912
0.003095
0.005089
0.005776
0.005825
0.005867
0.006453
0.007956
0.009812
0.011059
0.010294
0.005981
-0.003104
-0.017660
-0.037961
-0.064027
-0.095637
-0.132175
-0.172443
-0.214520
-0.255690
-0.292477
-0.320668
-0.333992
-0.323571
-0.297250
-0.261689
-0.226586
-0.200651
-0.188608
-0.191197
-0.206875
-0.229909
-0.257225
-0.298354
-0.352390
-0.418823
-0.490447
-0.550440
-0.575201
-0.556569
-0.517055
0.000000
0.271452
0.446742
0.538885
0.608707
0.622522
0.598003
0.561204
0.525229
0.494941
0.471765
0.455609
0.446039
0.442698
-0.090594
-0.089033
-0.085931
-0.080410
-0.072347
-0.062001
-0.049931
-0.036889
-0.023695
-0.011131
0.000168
0.009783
0.017541
0.023498
0.027873
0.030983
0.033182
0.034807
0.036142
0.037371
0.038532
0.039374
0.039567
0.038650
0.036124
0.031530
0.024497
0.014767
0.002218
-0.013059
-0.030659
-0.049746
-0.069002
-0.086658
-0.100667
-0.109023
-0.110198
-0.103468
-0.090542
-0.073242
-0.054003
-0.035288
-0.019004
-0.006128
0.003278
0.009748
0.014049
0.016953
0.019161
0.021284
0.023781
0.026742
0.029298
0.030312
0.028440
0.022440
0.011489
-0.004856
-0.026859
-0.054706
-0.088401
-0.127579
-0.171296
-0.217851
-0.264647
-0.308114
-0.343690
-0.365886
-0.359668
-0.327969
-0.278611
-0.222038
-0.169559
-0.130134
-0.109289
-0.108898
-0.126496
-0.159043
-0.209364
-0.280029
-0.370273
-0.471211
-0.559838
-0.608211
-0.607927
-0.660668
-0.353562
0.096162
0.253630
0.404275
0.491728
0.526930
0.528123
0.513122
0.493007
0.473552
0.457406
0.445583
0.438375
0.435827
-0.095353
-0.094101
-0.090964
-0.085116
-0.076477
-0.065369
-0.052417
-0.038432
-0.024283
-0.010783
0.001409
0.011855
0.020366
0.026979
0.031907
0.035470
0.038027
0.039931
0.041477
0.042852
0.044091
0.044968
0.045160
0.044212
0.041636
0.036978
0.029846
0.019930
0.007039
-0.008811
-0.027272
-0.047534
-0.068255
-0.087582
-0.103331
-0.113321
-0.115842
-0.109592
-0.096275
-0.077791
-0.056712
-0.035678
-0.016818
-0.001345
0.010489
0.019133
0.025357
0.029978
0.033725
0.037192
0.040810
0.044164
0.046287
0.046128
0.042627
0.035016
0.022858
0.005852
-0.016336
-0.044045
-0.077469
-0.116464
-0.160353
-0.207727
-0.256253
-0.302488
-0.341706
-0.367667
-0.372020
-0.340612
-0.285269
-0.216309
-0.145927
-0.085653
-0.045586
-0.033736
-0.050101
-0.092358
-0.149992
-0.225477
-0.318491
-0.419202
-0.509079
-0.570087
-0.609288
-0.713409
-0.803286
-0.178890
0.121717
0.294036
0.392335
0.442018
0.461013
0.462738
0.456189
0.446842
0.437763
0.430538
0.425929
0.424269
-0.097298
-0.096360
-0.093103
-0.086876
-0.077673
-0.065883
-0.052191
-0.037454
-0.022575
-0.008393
0.004417
0.015404
0.024368
0.031337
0.036523
0.040248
0.042891
0.044823
0.046358
0.047697
0.048878
0.049719
0.049897
0.048979
0.046504
0.042034
0.035167
0.025551
0.012929
-0.002763
-0.021257
-0.041816
-0.063135
-0.083358
-0.100242
-0.111511
-0.115355
-0.109844
-0.096566
-0.077424
-0.055068
-0.032268
-0.011336
0.006285
0.020135
0.030525
0.038189
0.043957
0.048553
0.052488
0.056050
0.058602
0.059146
0.057047
0.051759
0.042948
0.030374
0.013716
-0.007450
-0.033546
-0.064847
-0.101329
-0.142502
-0.187228
-0.233510
-0.278290
-0.317267
-0.344863
-0.354698
-0.333280
-0.281761
-0.213028
-0.138997
-0.071830
-0.023360
-0.006080
-0.029765
-0.074797
-0.130548
-0.198736
-0.276515
-0.356198
-0.426258
-0.477317
-0.512250
-0.527595
-0.463030
-0.162343
0.070153
0.222017
0.316989
0.372777
0.402442
0.415697
0.419486
0.418473
0.415593
0.412592
0.410444
0.409638
-0.096411
-0.095809
-0.092356
-0.085718
-0.075987
-0.063624
-0.049361
-0.034088
-0.018732
-0.004145
0.008990
0.020218
0.029331
0.036359
0.041513
0.045132
0.047612
0.049349
0.050678
0.051811
0.052793
0.053500
0.053609
0.052729
0.050448
0.046359
0.040066
0.031194
0.019433
0.004638
-0.013027
-0.032938
-0.053903
-0.074146
-0.091454
-0.103523
-0.108478
-0.104115
-0.091376
-0.072222
-0.049313
-0.025485
-0.003188
0.015937
0.031211
0.042776
0.051276
0.057504
0.062132
0.065495
0.067412
0.068014
0.066461
0.062511
0.055999
0.046750
0.034497
0.018859
-0.000598
-0.024268
-0.052395
-0.084964
-0.121560
-0.161218
-0.202240
-0.242033
-0.276974
-0.302425
-0.313032
-0.303389
-0.265158
-0.208169
-0.144240
-0.085658
-0.043846
-0.027945
-0.041970
-0.079399
-0.127231
-0.181006
-0.238823
-0.294705
-0.341147
-0.372133
-0.379560
-0.351888
-0.262851
-0.092304
0.062783
0.181241
0.264556
0.319858
0.354502
0.374810
0.385763
0.391015
0.393081
0.393597
0.393556
0.393491
-0.093142
-0.092850
-0.089114
-0.082033
-0.071813
-0.058982
-0.044312
-0.028713
-0.013120
0.001612
0.014799
0.025987
0.034973
0.041789
0.046660
0.049940
0.052049
0.053405
0.054359
0.055131
0.055765
0.056215
0.056168
0.055293
0.053241
0.049656
0.044169
0.036402
0.026012
0.012778
-0.003255
-0.021621
-0.041305
-0.060694
-0.077695
-0.090024
-0.095669
-0.093141
-0.081318
-0.062829
-0.040172
-0.016166
0.006656
0.026487
0.042439
0.054462
0.063059
0.068936
0.072690
0.074585
0.074508
0.072571
0.069347
0.064208
0.057123
0.047919
0.036304
0.021904
0.004337
-0.016716
-0.041427
-0.069729
-0.101210
-0.134992
-0.169608
-0.202893
-0.231946
-0.253231
-0.262968
-0.258076
-0.234577
-0.194387
-0.147187
-0.103269
-0.071724
-0.058879
-0.066670
-0.091437
-0.126472
-0.166077
-0.205851
-0.241610
-0.267890
-0.278883
-0.268037
-0.227766
-0.150435
-0.039894
0.068079
0.159161
0.229624
0.281080
0.316961
0.340980
0.356457
0.366064
0.371790
0.375020
0.376649
0.377177
-0.088385
-0.088248
-0.084100
-0.076517
-0.065824
-0.052607
-0.037662
-0.021906
-0.006274
0.008387
0.021400
0.032319
0.040952
0.047342
0.051731
0.054495
0.056076
0.056910
0.057356
0.057635
0.057784
0.057854
0.057547
0.056611
0.054770
0.051736
0.047189
0.040773
0.032128
0.020965
0.007200
-0.008887
-0.026504
-0.044274
-0.060302
-0.072428
-0.078641
-0.077585
-0.067394
-0.050301
-0.028698
-0.005368
0.017108
0.036793
0.052618
0.064342
0.072317
0.077163
0.079475
0.079659
0.077916
0.074320
0.069744
0.063851
0.056526
0.047562
0.036662
0.023486
0.007708
-0.010922
-0.032507
-0.056934
-0.083780
-0.112235
-0.141019
-0.168345
-0.191943
-0.209213
-0.217568
-0.215007
-0.200721
-0.174970
-0.143659
-0.114000
-0.092438
-0.083239
-0.087555
-0.103276
-0.126340
-0.152489
-0.177731
-0.198069
-0.209381
-0.207273
-0.187491
-0.146543
-0.083523
-0.004381
0.075586
0.147299
0.206735
0.253366
0.288458
0.313996
0.332055
0.344476
0.352737
0.357934
0.360807
0.361784
-0.083372
-0.082998
-0.078229
-0.070047
-0.058865
-0.045306
-0.030174
-0.014380
0.001154
0.015592
0.028272
0.038764
0.046889
0.052711
0.056492
0.058631
0.059588
0.059812
0.059667
0.059374
0.058979
0.058529
0.057863
0.056779
0.055086
0.052578
0.049006
0.044054
0.037356
0.028558
0.017437
0.004080
-0.010960
-0.026563
-0.041083
-0.052546
-0.059029
-0.059160
-0.051018
-0.035886
-0.016005
0.005916
0.027284
0.046073
0.061073
0.071892
0.078772
0.082298
0.083136
0.081850
0.078840
0.074385
0.068770
0.062420
0.055023
0.046367
0.036165
0.024106
0.009903
-0.006648
-0.025617
-0.046864
-0.069983
-0.094233
-0.118507
-0.141330
-0.160932
-0.175406
-0.183002
-0.182521
-0.173769
-0.157845
-0.138123
-0.119192
-0.105245
-0.099044
-0.101342
-0.110887
-0.125099
-0.140879
-0.155022
-0.164296
-0.165499
-0.155597
-0.132116
-0.093797
-0.041674
0.019639
0.082448
0.140946
0.191821
0.233890
0.267353
0.293150
0.312497
0.326605
0.336524
0.343074
0.346832
0.348133
-0.079534
-0.078131
-0.072435
-0.063523
-0.051820
-0.037939
-0.022668
-0.006898
0.008465
0.022602
0.034870
0.044855
0.052403
0.057599
0.060730
0.062213
0.062525
0.062120
0.061360
0.060472
0.059529
0.058486
0.057394
0.056070
0.054427
0.052364
0.049716
0.046217
0.041488
0.035090
0.026662
0.016102
0.003752
-0.009500
-0.022237
-0.032679
-0.039005
-0.039781
-0.033818
-0.020866
-0.003100
0.016941
0.036701
0.054108
0.067857
0.077459
0.083092
0.085334
0.084896
0.082431
0.078441
0.073287
0.067202
0.060514
0.053110
0.044766
0.035201
0.024119
0.011249
-0.003601
-0.020491
-0.039286
-0.059609
-0.080794
-0.101881
-0.121640
-0.138657
-0.151498
-0.158938
-0.160245
-0.155461
-0.145804
-0.133546
-0.121576
-0.112574
-0.108307
-0.109257
-0.114622
-0.122650
-0.131073
-0.137408
-0.139134
-0.133858
-0.119529
-0.094778
-0.059371
-0.014708
0.035909
0.087965
0.137584
0.182180
0.220471
0.252167
0.277613
0.297475
0.312518
0.323464
0.330910
0.335282
0.336818
-0.078385
-0.074408
-0.067471
-0.057731
-0.045496
-0.031311
-0.015921
-0.000191
0.014991
0.028824
0.040681
0.050171
0.057160
0.061761
0.064284
0.065167
0.064892
0.063912
0.062584
0.061131
0.059649
0.058138
0.056567
0.054920
0.053223
0.051506
0.049685
0.047521
0.044589
0.040344
0.034285
0.026162
0.016157
0.004995
-0.006078
-0.015438
-0.021365
-0.022408
-0.017735
-0.006830
0.008857
0.026968
0.045028
0.060955
0.073388
0.081773
0.086238
0.087345
0.085825
0.082379
0.077582
0.071853
0.065449
0.058520
0.051138
0.043085
0.034077
0.023811
0.012011
-0.001521
-0.016851
-0.033862
-0.052207
-0.071289
-0.090258
-0.108059
-0.123522
-0.135506
-0.143099
-0.145824
-0.143827
-0.138129
-0.130417
-0.122630
-0.116554
-0.113359
-0.113347
-0.115936
-0.119846
-0.123352
-0.124512
-0.121361
-0.112103
-0.095332
-0.070301
-0.037207
0.002608
0.046704
0.092050
0.135871
0.176115
0.211570
0.241739
0.266645
0.286619
0.302135
0.313690
0.321719
0.326535
0.328273
-0.080835
-0.072069
-0.063796
-0.053263
-0.040560
-0.026114
-0.010613
0.005102
0.020154
0.033752
0.045281
0.054369
0.060905
0.065026
0.067064
0.067473
0.066739
0.065308
0.063524
0.061607
0.059657
0.057705
0.055768
0.053896
0.052102
0.050698
0.049594
0.048510
0.046940
0.044242
0.039828
0.033367
0.024966
0.015262
0.005401
-0.003101
-0.008611
-0.009712
-0.005549
0.004053
0.018243
0.034888
0.051636
0.066417
0.077823
0.085245
0.088774
0.088959
0.086547
0.082284
0.076803
0.070572
0.063885
0.056832
0.049515
0.041732
0.033163
0.023489
0.012427
-0.000225
-0.014536
-0.030397
-0.047486
-0.065250
-0.082919
-0.099549
-0.114120
-0.125668
-0.133456
-0.137140
-0.136904
-0.133585
-0.128468
-0.123019
-0.118548
-0.115893
-0.115245
-0.116131
-0.117526
-0.118031
-0.116059
-0.110011
-0.098471
-0.080414
-0.055419
-0.023852
0.013066
0.053383
0.094788
0.135101
0.172606
0.206179
0.235246
0.259668
0.279591
0.295321
0.307220
0.315634
0.320829
0.322872
-0.084857
-0.071282
-0.061849
-0.050749
-0.037733
-0.023083
-0.007442
0.008350
0.023408
0.036936
0.048319
0.057195
0.063469
0.067298
0.069032
0.069139
0.068112
0.066394
0.064321
0.062104
0.059846
0.057593
0.055409
0.053466
0.052005
0.050914
0.050203
0.049587
0.048531
0.046377
0.042533
0.036671
0.028893
0.019811
0.010528
0.002496
-0.002720
-0.003741
0.000342
0.009757
0.023355
0.039400
0.055640
0.069975
0.080936
0.087871
0.090853
0.090440
0.087412
0.082559
0.076561
0.069941
0.063061
0.056148
0.048966
0.041298
0.032881
0.023413
0.012619
0.000306
-0.013591
-0.028963
-0.045498
-0.062663
-0.079725
-0.095798
-0.109939
-0.121272
-0.129141
-0.133261
-0.133818
-0.131484
-0.127511
-0.123100
-0.119336
-0.116906
-0.115948
-0.116028
-0.116234
-0.115319
-0.111869
-0.104465
-0.091877
-0.073251
-0.048304
-0.017461
0.018125
0.056716
0.096297
0.134948
0.171114
0.203727
0.232196
0.256319
0.276164
0.291960
0.304015
0.312660
0.318237
0.321191
