# vtk DataFile Version 3.0
Vector Field
ASCII
DATASET RECTILINEAR_GRID
DIMENSIONS 100 26 1
X_COORDINATES 100 double
0.050000 0.150000 0.250000 0.350000 0.450000 0.550000 0.650000 0.750000 0.850000 0.950000 1.050000 1.150000 1.250000 1.350000 1.450000 1.550000 1.650000 1.750000 1.850000 1.950000 2.050000 2.150000 2.250000 2.350000 2.450000 2.550000 2.650000 2.750000 2.850000 2.950000 3.050000 3.150000 3.250000 3.350000 3.450000 3.550000 3.650000 3.750000 3.850000 3.950000 4.050000 4.150000 4.250000 4.350000 4.450000 4.550000 4.650000 4.750000 4.850000 4.950000 5.050000 5.150000 5.250000 5.350000 5.450000 5.550000 5.650000 5.750000 5.850000 5.950000 6.050000 6.150000 6.250000 6.350000 6.450000 6.550000 6.650000 6.750000 6.850000 6.950000 7.050000 7.150000 7.250000 7.350000 7.450000 7.550000 7.650000 7.750000 7.850000 7.950000 8.050000 8.150000 8.250000 8.350000 8.450000 8.550000 8.650000 8.750000 8.850000 8.950000 9.050000 9.150000 9.250000 9.350000 9.450000 9.550000 9.650000 9.750000 9.850000 9.950000 
Y_COORDINATES 26 double
0.050000 0.150000 0.250000 0.350000 0.450000 0.550000 0.650000 0.750000 0.850000 0.950000 1.050000 1.150000 1.250000 1.350000 1.450000 1.550000 1.650000 1.750000 1.850000 1.950000 2.050000 2.150000 2.250000 2.350000 2.450000 2.550000 
Z_COORDINATES 1 double
0.0
POINT_DATA 2600
VECTORS Vektorfeld double
-0.806189 0.001828 0.0
-0.810475 0.002457 0.0
-0.817698 0.004766 0.0
-0.830104 0.007640 0.0
-0.848500 0.010756 0.0
-0.873017 0.013762 0.0
-0.903095 0.016316 0.0
-0.937529 0.018118 0.0
-0.974607 0.018961 0.0
-1.012324 0.018756 0.0
-1.048605 0.017525 0.0
-1.081499 0.015368 0.0
-1.109301 0.012435 0.0
-1.130635 0.008899 0.0
-1.144485 0.004950 0.0
-1.150210 0.000775 0.0
-1.147523 -0.003461 0.0
-1.136573 -0.007489 0.0
-1.118246 -0.010837 0.0
-1.094215 -0.013195 0.0
-1.066489 -0.014531 0.0
-1.036957 -0.015000 0.0
-1.007131 -0.014826 0.0
-0.978089 -0.014216 0.0
-0.950554 -0.013319 0.0
-0.925035 -0.012201 0.0
-0.901977 -0.010857 0.0
-0.881897 -0.009223 0.0
-0.865486 -0.007189 0.0
-0.853687 -0.004610 0.0
-0.847745 -0.001332 0.0
-0.849127 0.002715 0.0
-0.858957 0.007114 0.0
-0.877421 0.011350 0.0
-0.903886 0.015115 0.0
-0.937219 0.018218 0.0
-0.975991 0.020554 0.0
-1.018611 0.022066 0.0
-1.063381 0.022704 0.0
-1.108504 0.022418 0.0
-1.152071 0.021149 0.0
-1.192074 0.018854 0.0
-1.226453 0.015524 0.0
-1.253185 0.011208 0.0
-1.270418 0.006025 0.0
-1.276603 0.000160 0.0
-1.270592 -0.006172 0.0
-1.251858 -0.012562 0.0
-1.221163 -0.018133 0.0
-1.180888 -0.022142 0.0
-1.134505 -0.024240 0.0
-1.085827 -0.024437 0.0
-1.038414 -0.022976 0.0
-0.995234 -0.020203 0.0
-0.958549 -0.016482 0.0
-0.929915 -0.012152 0.0
-0.910262 -0.007501 0.0
-0.900009 -0.002752 0.0
-0.899162 0.001905 0.0
-0.907233 0.006166 0.0
-0.923177 0.009779 0.0
-0.945717 0.012761 0.0
-0.973653 0.015175 0.0
-1.005884 0.017055 0.0
-1.041353 0.018414 0.0
-1.079016 0.019249 0.0
-1.117817 0.019553 0.0
-1.156691 0.019321 0.0
-1.194561 0.018550 0.0
-1.230363 0.017252 0.0
-1.263070 0.015455 0.0
-1.291746 0.013221 0.0
-1.315615 0.010647 0.0
-1.334137 0.007875 0.0
-1.347097 0.005084 0.0
-1.354655 0.002473 0.0
-1.357355 0.000228 0.0
-1.356061 -0.001522 0.0
-1.351780 -0.002759 0.0
-1.345483 -0.003538 0.0
-1.337938 -0.004007 0.0
-1.329566 -0.004365 0.0
-1.320401 -0.004801 0.0
-1.310144 -0.005456 0.0
-1.298279 -0.006408 0.0
-1.284204 -0.007667 0.0
-1.267363 -0.009174 0.0
-1.247383 -0.010806 0.0
-1.224192 -0.012385 0.0
-1.198118 -0.013689 0.0
-1.169933 -0.014496 0.0
-1.140796 -0.014642 0.0
-1.112075 -0.014079 0.0
-1.085107 -0.012889 0.0
-1.060994 -0.011225 0.0
-1.040515 -0.009254 0.0
-1.024139 -0.007122 0.0
-1.012077 -0.004939 0.0
-1.004351 -0.002788 0.0
-1.000782 -0.000782 0.0
-0.968621 0.006059 0.0
-0.974260 0.008151 0.0
-0.982429 0.014465 0.0
-0.994378 0.022296 0.0
-1.010598 0.030715 0.0
-1.031007 0.038729 0.0
-1.054988 0.045408 0.0
-1.081492 0.049963 0.0
-1.109149 0.051851 0.0
-1.136380 0.050814 0.0
-1.161502 0.046870 0.0
-1.182829 0.040243 0.0
-1.198768 0.031302 0.0
-1.207907 0.020505 0.0
-1.209083 0.008371 0.0
-1.201479 -0.004526 0.0
-1.185262 -0.017064 0.0
-1.162244 -0.027856 0.0
-1.135123 -0.035918 0.0
-1.106359 -0.040908 0.0
-1.077842 -0.043061 0.0
-1.050889 -0.042954 0.0
-1.026328 -0.041259 0.0
-1.004600 -0.038553 0.0
-0.985905 -0.035212 0.0
-0.970360 -0.031372 0.0
-0.958139 -0.026964 0.0
-0.949546 -0.021789 0.0
-0.944999 -0.015580 0.0
-0.944958 -0.008058 0.0
-0.949805 0.001021 0.0
-0.959675 0.011614 0.0
-0.974664 0.023033 0.0
-0.995133 0.034366 0.0
-1.021343 0.044774 0.0
-1.053031 0.053578 0.0
-1.089380 0.060315 0.0
-1.129143 0.064688 0.0
-1.170771 0.066481 0.0
-1.212502 0.065495 0.0
-1.252397 0.061535 0.0
-1.288370 0.054444 0.0
-1.318225 0.044166 0.0
-1.339730 0.030805 0.0
-1.350746 0.014677 0.0
-1.349378 -0.003674 0.0
-1.334375 -0.023352 0.0
-1.306166 -0.042325 0.0
-1.267229 -0.058003 0.0
-1.221234 -0.068543 0.0
-1.172176 -0.073280 0.0
-1.123728 -0.072523 0.0
-1.078903 -0.067129 0.0
-1.039991 -0.058142 0.0
-1.008624 -0.046597 0.0
-0.985807 -0.033488 0.0
-0.971884 -0.019741 0.0
-0.966525 -0.006124 0.0
-0.968920 0.006825 0.0
-0.978241 0.018638 0.0
-0.993955 0.028964 0.0
-1.015561 0.037721 0.0
-1.042327 0.044917 0.0
-1.073350 0.050566 0.0
-1.107642 0.054665 0.0
-1.144178 0.057196 0.0
-1.181906 0.058135 0.0
-1.219750 0.057457 0.0
-1.256618 0.055152 0.0
-1.291408 0.051242 0.0
-1.323044 0.045808 0.0
-1.350518 0.039020 0.0
-1.372971 0.031169 0.0
-1.389778 0.022683 0.0
-1.400659 0.014117 0.0
-1.405756 0.006096 0.0
-1.405672 -0.000778 0.0
-1.401418 -0.006064 0.0
-1.394254 -0.009662 0.0
-1.385391 -0.011795 0.0
-1.375708 -0.012978 0.0
-1.365621 -0.013854 0.0
-1.355081 -0.015018 0.0
-1.343672 -0.016905 0.0
-1.330746 -0.019750 0.0
-1.315570 -0.023576 0.0
-1.297466 -0.028209 0.0
-1.275941 -0.033276 0.0
-1.250824 -0.038223 0.0
-1.222394 -0.042355 0.0
-1.191462 -0.044947 0.0
-1.159344 -0.045447 0.0
-1.127636 -0.043702 0.0
-1.097857 -0.040012 0.0
-1.071185 -0.034887 0.0
-1.048389 -0.028866 0.0
-1.029886 -0.022391 0.0
-1.015842 -0.015774 0.0
-1.006303 -0.009218 0.0
-1.001331 -0.002894 0.0
-1.041007 0.011892 0.0
-1.049928 0.016877 0.0
-1.062190 0.026170 0.0
-1.076830 0.037180 0.0
-1.093416 0.048637 0.0
-1.111396 0.059196 0.0
-1.130068 0.067595 0.0
-1.148564 0.072776 0.0
-1.165857 0.073988 0.0
-1.180792 0.070843 0.0
-1.192130 0.063302 0.0
-1.198614 0.051622 0.0
-1.199044 0.036293 0.0
-1.192368 0.017976 0.0
-1.177791 -0.002500 0.0
-1.155728 -0.023322 0.0
-1.128460 -0.041751 0.0
-1.098837 -0.055809 0.0
-1.069182 -0.064741 0.0
-1.041308 -0.068723 0.0
-1.016540 -0.068533 0.0
-0.995713 -0.065262 0.0
-0.979184 -0.060041 0.0
-0.966884 -0.053798 0.0
-0.958463 -0.047084 0.0
-0.953500 -0.040008 0.0
-0.951730 -0.032319 0.0
-0.953168 -0.023589 0.0
-0.958104 -0.013390 0.0
-0.966969 -0.001424 0.0
-0.980088 0.012353 0.0
-0.997511 0.027575 0.0
-1.019128 0.043677 0.0
-1.044760 0.059825 0.0
-1.074180 0.074944 0.0
-1.107071 0.087986 0.0
-1.142904 0.098089 0.0
-1.180832 0.104604 0.0
-1.219658 0.107019 0.0
-1.257849 0.104878 0.0
-1.293556 0.097754 0.0
-1.324645 0.085288 0.0
-1.348749 0.067281 0.0
-1.363364 0.043810 0.0
-1.366014 0.015337 0.0
-1.354482 -0.017234 0.0
-1.328121 -0.051156 0.0
-1.289283 -0.081567 0.0
-1.242473 -0.104508 0.0
-1.192519 -0.117987 0.0
-1.143481 -0.121933 0.0
-1.098243 -0.117556 0.0
-1.058589 -0.106575 0.0
-1.025539 -0.090658 0.0
-0.999757 -0.071230 0.0
-0.981815 -0.049613 0.0
-0.972153 -0.027200 0.0
-0.970835 -0.005342 0.0
-0.977382 0.014983 0.0
-0.990892 0.033311 0.0
-1.010366 0.049479 0.0
-1.034936 0.063383 0.0
-1.063862 0.074948 0.0
-1.096413 0.084110 0.0
-1.131805 0.090806 0.0
-1.169185 0.094970 0.0
-1.207630 0.096533 0.0
-1.246155 0.095428 0.0
-1.283712 0.091606 0.0
-1.319203 0.085069 0.0
-1.351499 0.075911 0.0
-1.379487 0.064379 0.0
-1.402158 0.050933 0.0
-1.418723 0.036291 0.0
-1.428761 0.021427 0.0
-1.432370 0.007492 0.0
-1.430246 -0.004382 0.0
-1.423644 -0.013317 0.0
-1.414187 -0.019031 0.0
-1.403485 -0.021990 0.0
-1.392703 -0.023248 0.0
-1.382314 -0.024060 0.0
-1.372135 -0.025530 0.0
-1.361510 -0.028427 0.0
-1.349519 -0.033145 0.0
-1.335156 -0.039720 0.0
-1.317472 -0.047854 0.0
-1.295712 -0.056916 0.0
-1.269476 -0.065936 0.0
-1.238915 -0.073632 0.0
-1.204939 -0.078577 0.0
-1.169278 -0.079596 0.0
-1.134162 -0.076376 0.0
-1.101605 -0.069674 0.0
-1.072956 -0.060546 0.0
-1.048935 -0.050022 0.0
-1.029794 -0.038879 0.0
-1.015520 -0.027604 0.0
-1.006013 -0.016435 0.0
-1.001219 -0.005443 0.0
-1.084732 0.019093 0.0
-1.094364 0.028229 0.0
-1.107017 0.039733 0.0
-1.121013 0.052253 0.0
-1.135365 0.064503 0.0
-1.149163 0.075108 0.0
-1.161550 0.082742 0.0
-1.171691 0.086265 0.0
-1.178741 0.084842 0.0
-1.181832 0.078015 0.0
-1.180078 0.065713 0.0
-1.172600 0.048216 0.0
-1.158577 0.026106 0.0
-1.137336 0.000245 0.0
-1.109452 -0.027231 0.0
-1.077538 -0.052569 0.0
-1.044518 -0.072792 0.0
-1.012458 -0.086452 0.0
-0.982981 -0.093230 0.0
-0.957415 -0.093673 0.0
-0.936836 -0.088930 0.0
-0.922018 -0.080510 0.0
-0.913312 -0.070029 0.0
-0.910517 -0.058904 0.0
-0.912884 -0.048034 0.0
-0.919324 -0.037581 0.0
-0.928790 -0.027049 0.0
-0.940608 -0.015603 0.0
-0.954618 -0.002431 0.0
-0.971105 0.012968 0.0
-0.990518 0.030493 0.0
-1.013213 0.049553 0.0
-1.039262 0.069364 0.0
-1.068424 0.088932 0.0
-1.100303 0.107136 0.0
-1.134437 0.122820 0.0
-1.170244 0.134895 0.0
-1.206900 0.142382 0.0
-1.243226 0.144394 0.0
-1.277623 0.140091 0.0
-1.308055 0.128680 0.0
-1.332089 0.109484 0.0
-1.346981 0.082081 0.0
-1.349839 0.046482 0.0
-1.337852 0.003328 0.0
-1.309439 -0.045170 0.0
-1.267049 -0.091971 0.0
-1.216550 -0.130089 0.0
-1.163890 -0.155456 0.0
-1.113866 -0.167017 0.0
-1.069774 -0.166034 0.0
-1.033381 -0.155086 0.0
-1.005057 -0.137022 0.0
-0.984166 -0.114151 0.0
-0.969755 -0.087929 0.0
-0.961272 -0.059339 0.0
-0.958827 -0.029580 0.0
-0.962849 -0.000258 0.0
-0.973540 0.027138 0.0
-0.990617 0.051744 0.0
-1.013416 0.073319 0.0
-1.041158 0.091855 0.0
-1.073093 0.107336 0.0
-1.108510 0.119689 0.0
-1.146687 0.128796 0.0
-1.186853 0.134526 0.0
-1.228162 0.136731 0.0
-1.269670 0.135263 0.0
-1.310327 0.129985 0.0
-1.348962 0.120816 0.0
-1.384295 0.107793 0.0
-1.414975 0.091167 0.0
-1.439671 0.071514 0.0
-1.457234 0.049838 0.0
-1.466930 0.027614 0.0
-1.468707 0.006691 0.0
-1.463404 -0.011007 0.0
-1.452831 -0.023866 0.0
-1.439544 -0.031227 0.0
-1.426053 -0.033986 0.0
-1.413970 -0.034117 0.0
-1.403733 -0.033817 0.0
-1.394811 -0.034873 0.0
-1.386093 -0.038426 0.0
-1.376216 -0.045015 0.0
-1.363757 -0.054672 0.0
-1.347362 -0.066982 0.0
-1.325849 -0.081062 0.0
-1.298378 -0.095497 0.0
-1.264750 -0.108258 0.0
-1.225891 -0.116786 0.0
-1.184279 -0.118661 0.0
-1.143538 -0.113168 0.0
-1.106663 -0.102314 0.0
-1.075163 -0.088056 0.0
-1.049553 -0.072143 0.0
-1.029713 -0.055739 0.0
-1.015270 -0.039461 0.0
-1.005842 -0.023514 0.0
-1.001169 -0.007831 0.0
-1.109879 0.026431 0.0
-1.118586 0.039230 0.0
-1.129329 0.052127 0.0
-1.140379 0.064905 0.0
-1.150557 0.076381 0.0
-1.158813 0.085283 0.0
-1.164225 0.090365 0.0
-1.165982 0.090539 0.0
-1.163363 0.084998 0.0
-1.155710 0.073298 0.0
-1.142421 0.055387 0.0
-1.122947 0.031591 0.0
-1.096832 0.002594 0.0
-1.064779 -0.029536 0.0
-1.029542 -0.060570 0.0
-0.993971 -0.086714 0.0
-0.959774 -0.105863 0.0
-0.928216 -0.117000 0.0
-0.900319 -0.120056 0.0
-0.877013 -0.115718 0.0
-0.859229 -0.105249 0.0
-0.847891 -0.090347 0.0
-0.843785 -0.073004 0.0
-0.847260 -0.055248 0.0
-0.857884 -0.038699 0.0
-0.874323 -0.024037 0.0
-0.894628 -0.010823 0.0
-0.916911 0.002271 0.0
-0.940119 0.016914 0.0
-0.964182 0.034173 0.0
-0.989570 0.054090 0.0
-1.016826 0.075908 0.0
-1.046219 0.098450 0.0
-1.077637 0.120425 0.0
-1.110669 0.140555 0.0
-1.144705 0.157571 0.0
-1.178942 0.170188 0.0
-1.212310 0.177114 0.0
-1.243374 0.177053 0.0
-1.270271 0.168726 0.0
-1.290722 0.150929 0.0
-1.302111 0.122659 0.0
-1.301642 0.083329 0.0
-1.286600 0.033050 0.0
-1.254872 -0.026955 0.0
-1.208417 -0.089755 0.0
-1.153528 -0.144664 0.0
-1.096585 -0.184837 0.0
-1.042669 -0.207285 0.0
-0.995662 -0.212219 0.0
-0.958391 -0.202195 0.0
-0.932510 -0.181199 0.0
-0.918151 -0.153593 0.0
-0.913697 -0.122925 0.0
-0.916302 -0.090961 0.0
-0.923257 -0.057836 0.0
-0.933210 -0.023575 0.0
-0.946240 0.010788 0.0
-0.963144 0.043687 0.0
-0.984705 0.073833 0.0
-1.011230 0.100554 0.0
-1.042499 0.123630 0.0
-1.077986 0.142983 0.0
-1.117041 0.158514 0.0
-1.158959 0.170067 0.0
-1.202980 0.177443 0.0
-1.248263 0.180406 0.0
-1.293853 0.178687 0.0
-1.338645 0.172010 0.0
-1.381354 0.160135 0.0
-1.420497 0.142949 0.0
-1.454405 0.120599 0.0
-1.481307 0.093680 0.0
-1.499523 0.063450 0.0
-1.507812 0.031987 0.0
-1.505857 0.002140 0.0
-1.494740 -0.022877 0.0
-1.477559 -0.039749 0.0
-1.458790 -0.047401 0.0
-1.442244 -0.047848 0.0
-1.429851 -0.044732 0.0
-1.421598 -0.041693 0.0
-1.416171 -0.041346 0.0
-1.411702 -0.045140 0.0
-1.406228 -0.053652 0.0
-1.397849 -0.066872 0.0
-1.384729 -0.084297 0.0
-1.365103 -0.104886 0.0
-1.337361 -0.126886 0.0
-1.300399 -0.147458 0.0
-1.254611 -0.162234 0.0
-1.203538 -0.165898 0.0
-1.154040 -0.156169 0.0
-1.111177 -0.139051 0.0
-1.076211 -0.117786 0.0
-1.049055 -0.095179 0.0
-1.028847 -0.072751 0.0
-1.014607 -0.051130 0.0
-1.005532 -0.030349 0.0
-1.001100 -0.010100 0.0
-1.120462 0.033005 0.0
-1.127342 0.048244 0.0
-1.135043 0.061556 0.0
-1.142045 0.073528 0.0
-1.147192 0.083084 0.0
-1.149451 0.089096 0.0
-1.147941 0.090455 0.0
-1.141935 0.086200 0.0
-1.130848 0.075631 0.0
-1.114223 0.058388 0.0
-1.091712 0.034495 0.0
-1.063051 0.004348 0.0
-1.029000 -0.030329 0.0
-0.992294 -0.065374 0.0
-0.955694 -0.096570 0.0
-0.920690 -0.121289 0.0
-0.888291 -0.137885 0.0
-0.859210 -0.145618 0.0
-0.834003 -0.144542 0.0
-0.813204 -0.135335 0.0
-0.797451 -0.119169 0.0
-0.787572 -0.097645 0.0
-0.784580 -0.072804 0.0
-0.789481 -0.047072 0.0
-0.802793 -0.022939 0.0
-0.823970 -0.002181 0.0
-0.851301 0.014957 0.0
-0.882452 0.029926 0.0
-0.915094 0.045109 0.0
-0.947600 0.062547 0.0
-0.979517 0.083021 0.0
-1.011210 0.105926 0.0
-1.043161 0.129776 0.0
-1.075498 0.152855 0.0
-1.107888 0.173547 0.0
-1.139609 0.190336 0.0
-1.169636 0.201687 0.0
-1.196644 0.205991 0.0
-1.218987 0.201581 0.0
-1.234697 0.186804 0.0
-1.241547 0.160152 0.0
-1.237181 0.120459 0.0
-1.219320 0.067199 0.0
-1.186109 0.000927 0.0
-1.138450 -0.074218 0.0
-1.081898 -0.145499 0.0
-1.022858 -0.202849 0.0
-0.965716 -0.240736 0.0
-0.913804 -0.257214 0.0
-0.869878 -0.253223 0.0
-0.836452 -0.231888 0.0
-0.815919 -0.197920 0.0
-0.810103 -0.157048 0.0
-0.818988 -0.115039 0.0
-0.839441 -0.075788 0.0
-0.865946 -0.039548 0.0
-0.893408 -0.004447 0.0
-0.919568 0.030849 0.0
-0.945287 0.066248 0.0
-0.972779 0.100325 0.0
-1.003771 0.131579 0.0
-1.038958 0.159062 0.0
-1.078222 0.182303 0.0
-1.121014 0.201042 0.0
-1.166613 0.215055 0.0
-1.214214 0.224076 0.0
-1.262932 0.227773 0.0
-1.311765 0.225743 0.0
-1.359550 0.217531 0.0
-1.404910 0.202682 0.0
-1.446194 0.180828 0.0
-1.481434 0.151869 0.0
-1.508367 0.116246 0.0
-1.524606 0.075340 0.0
-1.528112 0.031891 0.0
-1.518023 -0.009808 0.0
-1.496512 -0.043558 0.0
-1.469954 -0.062808 0.0
-1.445756 -0.067311 0.0
-1.428621 -0.061617 0.0
-1.419898 -0.052079 0.0
-1.418191 -0.044306 0.0
-1.420714 -0.041637 0.0
-1.424589 -0.045444 0.0
-1.427336 -0.056075 0.0
-1.426762 -0.073401 0.0
-1.420719 -0.096931 0.0
-1.406893 -0.125704 0.0
-1.382594 -0.158109 0.0
-1.344711 -0.191080 0.0
-1.291051 -0.218060 0.0
-1.225303 -0.226894 0.0
-1.162191 -0.207782 0.0
-1.111866 -0.180626 0.0
-1.073574 -0.149470 0.0
-1.045757 -0.118468 0.0
-1.026199 -0.089228 0.0
-1.013017 -0.062075 0.0
-1.004873 -0.036626 0.0
-1.000964 -0.012164 0.0
-1.119578 0.038265 0.0
-1.124243 0.054530 0.0
-1.128539 0.067268 0.0
-1.131247 0.077527 0.0
-1.131340 0.084324 0.0
-1.127902 0.086676 0.0
-1.120171 0.083634 0.0
-1.107554 0.074398 0.0
-1.089629 0.058421 0.0
-1.066136 0.035480 0.0
-1.036934 0.005689 0.0
-1.002751 -0.029689 0.0
-0.966152 -0.066941 0.0
-0.929780 -0.101839 0.0
-0.895055 -0.131432 0.0
-0.862902 -0.153584 0.0
-0.833912 -0.166979 0.0
-0.808424 -0.171092 0.0
-0.786648 -0.166052 0.0
-0.768790 -0.152482 0.0
-0.755183 -0.131382 0.0
-0.746381 -0.104113 0.0
-0.743221 -0.072487 0.0
-0.746807 -0.038901 0.0
-0.758335 -0.006270 0.0
-0.778720 0.022711 0.0
-0.807864 0.046539 0.0
-0.843875 0.065507 0.0
-0.883468 0.081762 0.0
-0.923391 0.098323 0.0
-0.961590 0.117361 0.0
-0.997460 0.139149 0.0
-1.031248 0.162291 0.0
-1.063237 0.184666 0.0
-1.093267 0.204156 0.0
-1.120659 0.218841 0.0
-1.144325 0.226874 0.0
-1.162873 0.226360 0.0
-1.174686 0.215368 0.0
-1.177992 0.192034 0.0
-1.170981 0.154761 0.0
-1.151985 0.102487 0.0
-1.119755 0.035080 0.0
-1.074117 -0.045803 0.0
-1.019412 -0.129851 0.0
-0.962009 -0.203822 0.0
-0.905774 -0.259803 0.0
-0.853304 -0.293395 0.0
-0.806426 -0.303345 0.0
-0.766499 -0.290944 0.0
-0.734829 -0.259261 0.0
-0.713342 -0.212567 0.0
-0.705227 -0.156332 0.0
-0.714497 -0.097600 0.0
-0.742947 -0.044326 0.0
-0.785792 -0.001661 0.0
-0.832914 0.032250 0.0
-0.876433 0.063830 0.0
-0.914735 0.097289 0.0
-0.950420 0.132460 0.0
-0.986876 0.166891 0.0
-1.026152 0.198213 0.0
-1.068748 0.225010 0.0
-1.114235 0.246614 0.0
-1.161817 0.262663 0.0
-1.210571 0.272823 0.0
-1.259501 0.276675 0.0
-1.307524 0.273697 0.0
-1.353426 0.263265 0.0
-1.395806 0.244687 0.0
-1.432976 0.217276 0.0
-1.462829 0.180514 0.0
-1.482707 0.134411 0.0
-1.489425 0.080132 0.0
-1.479789 0.020969 0.0
-1.452574 -0.036189 0.0
-1.415039 -0.076222 0.0
-1.380087 -0.091654 0.0
-1.356348 -0.086402 0.0
-1.346947 -0.069061 0.0
-1.350772 -0.049532 0.0
-1.363628 -0.035704 0.0
-1.380559 -0.030785 0.0
-1.397901 -0.035078 0.0
-1.413355 -0.048241 0.0
-1.425178 -0.069986 0.0
-1.431554 -0.100015 0.0
-1.430268 -0.137733 0.0
-1.417993 -0.182653 0.0
-1.388592 -0.233821 0.0
-1.332278 -0.285292 0.0
-1.245633 -0.312055 0.0
-1.161174 -0.270193 0.0
-1.103168 -0.226546 0.0
-1.063503 -0.181506 0.0
-1.037434 -0.140316 0.0
-1.020583 -0.103788 0.0
-1.009947 -0.071333 0.0
-1.003665 -0.041794 0.0
-1.000721 -0.013848 0.0
-1.110068 0.041956 0.0
-1.112483 0.057918 0.0
-1.113507 0.069200 0.0
-1.112229 0.077024 0.0
-1.107800 0.080490 0.0
-1.099476 0.078748 0.0
-1.086659 0.071014 0.0
-1.068923 0.056666 0.0
-1.046027 0.035333 0.0
-1.017877 0.006925 0.0
-0.985088 -0.027747 0.0
-0.949915 -0.065608 0.0
-0.914819 -0.102719 0.0
-0.881214 -0.136038 0.0
-0.850061 -0.163111 0.0
-0.821947 -0.182171 0.0
-0.797131 -0.192198 0.0
-0.775647 -0.192846 0.0
-0.757440 -0.184282 0.0
-0.742512 -0.167036 0.0
-0.731046 -0.141902 0.0
-0.723472 -0.109970 0.0
-0.720511 -0.072751 0.0
-0.723200 -0.032362 0.0
-0.732893 0.008412 0.0
-0.751006 0.046527 0.0
-0.778194 0.079056 0.0
-0.813568 0.104377 0.0
-0.854558 0.123474 0.0
-0.897572 0.139549 0.0
-0.939310 0.156073 0.0
-0.977766 0.174763 0.0
-1.012272 0.194971 0.0
-1.042813 0.214516 0.0
-1.069291 0.230814 0.0
-1.091178 0.241462 0.0
-1.107521 0.244261 0.0
-1.117090 0.237091 0.0
-1.118531 0.217891 0.0
-1.110500 0.184786 0.0
-1.091821 0.136319 0.0
-1.061683 0.071794 0.0
-1.019915 -0.008225 0.0
-0.969410 -0.098641 0.0
-0.915707 -0.185422 0.0
-0.863001 -0.258360 0.0
-0.813674 -0.310827 0.0
-0.769218 -0.339296 0.0
-0.730318 -0.343222 0.0
-0.696952 -0.324361 0.0
-0.668783 -0.285683 0.0
-0.645898 -0.230518 0.0
-0.629783 -0.162611 0.0
-0.624426 -0.087407 0.0
-0.636577 -0.013918 0.0
-0.672165 0.046366 0.0
-0.729262 0.088444 0.0
-0.795556 0.117449 0.0
-0.857062 0.143478 0.0
-0.908633 0.173526 0.0
-0.953699 0.207348 0.0
-0.997339 0.240673 0.0
-1.042009 0.269817 0.0
-1.087762 0.293047 0.0
-1.133667 0.309717 0.0
-1.178565 0.319420 0.0
-1.221230 0.321674 0.0
-1.260379 0.315871 0.0
-1.294665 0.301279 0.0
-1.322650 0.277038 0.0
-1.342720 0.242166 0.0
-1.352863 0.195621 0.0
-1.350291 0.136610 0.0
-1.330974 0.065334 0.0
-1.289873 -0.014970 0.0
-1.232738 -0.084599 0.0
-1.178913 -0.119171 0.0
-1.144398 -0.118172 0.0
-1.134926 -0.093096 0.0
-1.148861 -0.057834 0.0
-1.179457 -0.026338 0.0
-1.216821 -0.008678 0.0
-1.253537 -0.004163 0.0
-1.287233 -0.010662 0.0
-1.317425 -0.027013 0.0
-1.344113 -0.052702 0.0
-1.366995 -0.088040 0.0
-1.385497 -0.132493 0.0
-1.398257 -0.187407 0.0
-1.398419 -0.258306 0.0
-1.362282 -0.353259 0.0
-1.254031 -0.438984 0.0
-1.138389 -0.343366 0.0
-1.076609 -0.273159 0.0
-1.041269 -0.209900 0.0
-1.021717 -0.157543 0.0
-1.010915 -0.114214 0.0
-1.004954 -0.077504 0.0
-1.001764 -0.045094 0.0
-1.000344 -0.014913 0.0
-1.094501 0.044049 0.0
-1.094864 0.058603 0.0
-1.093046 0.067722 0.0
-1.088416 0.072595 0.0
-1.080322 0.072396 0.0
-1.068209 0.066405 0.0
-1.051665 0.053996 0.0
-1.030452 0.034734 0.0
-1.004493 0.008409 0.0
-0.974258 -0.024537 0.0
-0.941611 -0.061722 0.0
-0.908754 -0.099662 0.0
-0.877102 -0.135413 0.0
-0.847671 -0.166380 0.0
-0.821096 -0.190497 0.0
-0.797630 -0.206365 0.0
-0.777208 -0.213241 0.0
-0.759592 -0.210904 0.0
-0.744543 -0.199481 0.0
-0.731993 -0.179314 0.0
-0.722145 -0.150938 0.0
-0.715492 -0.115162 0.0
-0.712786 -0.073226 0.0
-0.715005 -0.026979 0.0
-0.723319 0.021036 0.0
-0.738920 0.067618 0.0
-0.762662 0.108894 0.0
-0.794502 0.141753 0.0
-0.832913 0.165498 0.0
-0.874853 0.182479 0.0
-0.916663 0.196691 0.0
-0.955301 0.211240 0.0
-0.989023 0.226722 0.0
-1.017166 0.241447 0.0
-1.039471 0.252666 0.0
-1.055549 0.257575 0.0
-1.064705 0.253647 0.0
-1.066034 0.238602 0.0
-1.058596 0.210382 0.0
-1.041598 0.167268 0.0
-1.014591 0.108151 0.0
-0.977706 0.032939 0.0
-0.932318 -0.056525 0.0
-0.882931 -0.150233 0.0
-0.834452 -0.236011 0.0
-0.789415 -0.305514 0.0
-0.749401 -0.353015 0.0
-0.715059 -0.375907 0.0
-0.685963 -0.374606 0.0
-0.660807 -0.351498 0.0
-0.638041 -0.309481 0.0
-0.616635 -0.251011 0.0
-0.596682 -0.178186 0.0
-0.580027 -0.093845 0.0
-0.571584 -0.003772 0.0
-0.580494 0.080718 0.0
-0.615674 0.146369 0.0
-0.677209 0.187353 0.0
-0.753218 0.211090 0.0
-0.827526 0.231793 0.0
-0.891114 0.257735 0.0
-0.944535 0.287347 0.0
-0.991834 0.315112 0.0
-1.035393 0.337064 0.0
-1.075294 0.351506 0.0
-1.110470 0.357706 0.0
-1.139482 0.355065 0.0
-1.160770 0.342917 0.0
-1.172754 0.320502 0.0
-1.173886 0.286932 0.0
-1.162622 0.241078 0.0
-1.137162 0.181391 0.0
-1.094579 0.105684 0.0
-1.028734 0.011098 0.0
-0.940053 -0.090516 0.0
-0.847724 -0.158517 0.0
-0.773022 -0.173781 0.0
-0.730362 -0.140738 0.0
-0.731054 -0.079309 0.0
-0.771365 -0.017374 0.0
-0.831001 0.023434 0.0
-0.893641 0.041553 0.0
-0.954171 0.042852 0.0
-1.010042 0.031890 0.0
-1.059733 0.010318 0.0
-1.101920 -0.021158 0.0
-1.139313 -0.059309 0.0
-1.178306 -0.103730 0.0
-1.225408 -0.156308 0.0
-1.284699 -0.229952 0.0
-1.322417 -0.380032 0.0
-1.217612 -0.625267 0.0
-1.071835 -0.418501 0.0
-1.021542 -0.310096 0.0
-1.002732 -0.227114 0.0
-0.997272 -0.165340 0.0
-0.996876 -0.117616 0.0
-0.998006 -0.078934 0.0
-0.999182 -0.045677 0.0
-0.999838 -0.015096 0.0
-1.075074 0.044669 0.0
-1.073719 0.056990 0.0
-1.069648 0.063445 0.0
-1.062468 0.065062 0.0
-1.051721 0.061088 0.0
-1.037047 0.050926 0.0
-1.018229 0.034113 0.0
-0.995215 0.010389 0.0
-0.968332 -0.020087 0.0
-0.939028 -0.055579 0.0
-0.909214 -0.093140 0.0
-0.880276 -0.130038 0.0
-0.853271 -0.163695 0.0
-0.828898 -0.191901 0.0
-0.807438 -0.213010 0.0
-0.788771 -0.225986 0.0
-0.772500 -0.230312 0.0
-0.758164 -0.225785 0.0
-0.745456 -0.212355 0.0
-0.734386 -0.190060 0.0
-0.725321 -0.159106 0.0
-0.718932 -0.120037 0.0
-0.716076 -0.073912 0.0
-0.717688 -0.022463 0.0
-0.724686 0.031831 0.0
-0.737911 0.085649 0.0
-0.758071 0.134765 0.0
-0.785457 0.175108 0.0
-0.819321 0.204419 0.0
-0.857458 0.223636 0.0
-0.896521 0.236407 0.0
-0.933061 0.246702 0.0
-0.964519 0.256440 0.0
-0.989518 0.264871 0.0
-1.007485 0.269515 0.0
-1.018089 0.267409 0.0
-1.020924 0.255805 0.0
-1.015487 0.232336 0.0
-1.001320 0.195043 0.0
-0.978209 0.142499 0.0
-0.946394 0.074097 0.0
-0.906826 -0.009459 0.0
-0.862709 -0.103633 0.0
-0.818644 -0.196578 0.0
-0.777931 -0.278857 0.0
-0.742566 -0.343070 0.0
-0.713551 -0.384487 0.0
-0.690536 -0.401792 0.0
-0.671768 -0.396585 0.0
-0.654734 -0.371708 0.0
-0.637184 -0.329587 0.0
-0.617895 -0.271600 0.0
-0.596955 -0.198489 0.0
-0.575834 -0.111318 0.0
-0.557750 -0.012826 0.0
-0.548791 0.089723 0.0
-0.558041 0.181794 0.0
-0.593764 0.249185 0.0
-0.655776 0.287279 0.0
-0.732009 0.306145 0.0
-0.806277 0.321239 0.0
-0.869011 0.339999 0.0
-0.919244 0.359991 0.0
-0.959328 0.375828 0.0
-0.990598 0.383913 0.0
-1.012686 0.382563 0.0
-1.024323 0.370856 0.0
-1.023967 0.348058 0.0
-1.010105 0.313483 0.0
-0.981436 0.266413 0.0
-0.936925 0.205822 0.0
-0.875341 0.129602 0.0
-0.792556 0.032105 0.0
-0.685564 -0.088159 0.0
-0.569817 -0.195687 0.0
-0.461361 -0.254131 0.0
-0.363282 -0.250949 0.0
-0.281250 -0.188262 0.0
-0.220450 -0.091893 0.0
-0.187777 0.002848 0.0
-0.193398 0.068469 0.0
-0.237535 0.103295 0.0
-0.308554 0.112659 0.0
-0.393351 0.102750 0.0
-0.480391 0.076189 0.0
-0.559926 0.034693 0.0
-0.621270 -0.016423 0.0
-0.668622 -0.060272 0.0
-0.733077 -0.088209 0.0
-0.862993 -0.108843 0.0
-1.036057 -0.290358 0.0
-1.027503 -0.828300 0.0
-0.928592 -0.460156 0.0
-0.931015 -0.316311 0.0
-0.948443 -0.222281 0.0
-0.965872 -0.158202 0.0
-0.979824 -0.111199 0.0
-0.989841 -0.074205 0.0
-0.996200 -0.042869 0.0
-0.999257 -0.014191 0.0
-1.053569 0.044039 0.0
-1.050895 0.053591 0.0
-1.045218 0.057096 0.0
-1.036338 0.055352 0.0
-1.023980 0.047693 0.0
-1.007980 0.033646 0.0
-0.988320 0.012915 0.0
-0.965227 -0.014519 0.0
-0.939786 -0.047503 0.0
-0.913610 -0.083643 0.0
-0.888024 -0.120477 0.0
-0.864098 -0.155565 0.0
-0.842590 -0.186681 0.0
-0.823821 -0.212057 0.0
-0.807639 -0.230496 0.0
-0.793514 -0.241292 0.0
-0.780767 -0.244025 0.0
-0.768838 -0.238338 0.0
-0.757512 -0.223835 0.0
-0.747013 -0.200148 0.0
-0.737960 -0.167136 0.0
-0.731234 -0.125123 0.0
-0.727806 -0.075109 0.0
-0.728574 -0.018886 0.0
-0.734242 0.040921 0.0
-0.745310 0.100851 0.0
-0.762171 0.156584 0.0
-0.785056 0.203560 0.0
-0.813630 0.238405 0.0
-0.846451 0.260607 0.0
-0.880837 0.272885 0.0
-0.913478 0.279404 0.0
-0.941427 0.283144 0.0
-0.962747 0.284487 0.0
-0.976498 0.281616 0.0
-0.982322 0.271735 0.0
-0.980059 0.252051 0.0
-0.969608 0.220201 0.0
-0.951001 0.174403 0.0
-0.924583 0.113610 0.0
-0.891257 0.037845 0.0
-0.852917 -0.051114 0.0
-0.813445 -0.145568 0.0
-0.776891 -0.235262 0.0
-0.745769 -0.312008 0.0
-0.721691 -0.369362 0.0
-0.704793 -0.404107 0.0
-0.693310 -0.416670 0.0
-0.684064 -0.409722 0.0
-0.673718 -0.385951 0.0
-0.659929 -0.346684 0.0
-0.641799 -0.291922 0.0
-0.619747 -0.221158 0.0
-0.595235 -0.134282 0.0
-0.570709 -0.032472 0.0
-0.550262 0.079962 0.0
-0.540572 0.191116 0.0
-0.550345 0.285359 0.0
-0.586155 0.348927 0.0
-0.645481 0.380056 0.0
-0.715226 0.391340 0.0
-0.780134 0.397539 0.0
-0.831556 0.404105 0.0
-0.867951 0.408193 0.0
-0.890362 0.405229 0.0
-0.899233 0.392207 0.0
-0.893945 0.367562 0.0
-0.873369 0.330420 0.0
-0.836353 0.280243 0.0
-0.782006 0.216638 0.0
-0.709645 0.138727 0.0
-0.616689 0.042157 0.0
-0.499488 -0.080435 0.0
-0.372943 -0.209155 0.0
-0.255747 -0.307634 0.0
-0.150158 -0.356228 0.0
-0.060079 -0.337011 0.0
0.009316 -0.253626 0.0
0.057142 -0.135155 0.0
0.082087 -0.011508 0.0
0.082236 0.088297 0.0
0.059537 0.150305 0.0
0.021775 0.174430 0.0
-0.016537 0.164087 0.0
-0.033394 0.118750 0.0
-0.007094 0.045367 0.0
0.041646 -0.014492 0.0
0.065263 -0.038467 0.0
0.033130 -0.023716 0.0
0.474838 -0.096058 0.0
0.474838 -0.237125 0.0
-0.319991 -0.704442 0.0
-0.709524 -0.396171 0.0
-0.821404 -0.265993 0.0
-0.890341 -0.186235 0.0
-0.934369 -0.132791 0.0
-0.963287 -0.093739 0.0
-0.982059 -0.062877 0.0
-0.993380 -0.036516 0.0
-0.998709 -0.012157 0.0
-1.031357 0.042426 0.0
-1.027774 0.048947 0.0
-1.021126 0.049414 0.0
-1.011367 0.044395 0.0
-0.998396 0.033322 0.0
-0.982241 0.015861 0.0
-0.963099 -0.008102 0.0
-0.941770 -0.037923 0.0
-0.919578 -0.071732 0.0
-0.897778 -0.107390 0.0
-0.877438 -0.142657 0.0
-0.859360 -0.175390 0.0
-0.843912 -0.203811 0.0
-0.830939 -0.226670 0.0
-0.819807 -0.243197 0.0
-0.809635 -0.252887 0.0
-0.799600 -0.255211 0.0
-0.789233 -0.249448 0.0
-0.778559 -0.234725 0.0
-0.768086 -0.210231 0.0
-0.758672 -0.175519 0.0
-0.751349 -0.130788 0.0
-0.747140 -0.077081 0.0
-0.746899 -0.016387 0.0
-0.751180 0.048372 0.0
-0.760207 0.113495 0.0
-0.774015 0.174608 0.0
-0.792586 0.226992 0.0
-0.815696 0.266657 0.0
-0.842463 0.291943 0.0
-0.870960 0.304433 0.0
-0.898390 0.307928 0.0
-0.921843 0.306021 0.0
-0.939080 0.300168 0.0
-0.948847 0.289454 0.0
-0.950689 0.271564 0.0
-0.944611 0.243881 0.0
-0.930857 0.204166 0.0
-0.909901 0.150875 0.0
-0.882578 0.083397 0.0
-0.850342 0.002495 0.0
-0.816042 -0.088405 0.0
-0.783542 -0.180249 0.0
-0.756144 -0.264532 0.0
-0.736168 -0.333836 0.0
-0.724541 -0.383239 0.0
-0.719946 -0.411722 0.0
-0.718961 -0.421524 0.0
-0.717386 -0.415691 0.0
-0.711813 -0.395901 0.0
-0.700403 -0.361932 0.0
-0.682792 -0.312415 0.0
-0.659659 -0.245851 0.0
-0.632393 -0.161367 0.0
-0.603000 -0.059305 0.0
-0.574429 0.057776 0.0
-0.551538 0.180721 0.0
-0.540997 0.294986 0.0
-0.550166 0.384279 0.0
-0.583083 0.436947 0.0
-0.634494 0.455605 0.0
-0.690881 0.454568 0.0
-0.738809 0.446426 0.0
-0.771091 0.434550 0.0
-0.786051 0.416243 0.0
-0.783973 0.387985 0.0
-0.764961 0.347484 0.0
-0.728620 0.293581 0.0
-0.674381 0.225827 0.0
-0.601727 0.144052 0.0
-0.508851 0.046075 0.0
-0.391693 -0.075306 0.0
-0.261883 -0.209983 0.0
-0.139725 -0.328311 0.0
-0.031272 -0.414128 0.0
0.058394 -0.444989 0.0
0.123549 -0.403485 0.0
0.171083 -0.304081 0.0
0.208637 -0.170080 0.0
0.232167 -0.025058 0.0
0.233553 0.100312 0.0
0.211778 0.182764 0.0
0.175124 0.216388 0.0
0.135308 0.200256 0.0
0.102828 0.131918 0.0
0.078550 0.030177 0.0
0.052810 -0.022302 0.0
0.019000 -0.020902 0.0
0.000000 -0.075478 0.0
-0.000000 -0.208115 0.0
0.000000 -0.138911 0.0
-0.231153 -0.251511 0.0
-0.576932 -0.212005 0.0
-0.753502 -0.161709 0.0
-0.852514 -0.122570 0.0
-0.913109 -0.091833 0.0
-0.951843 -0.067045 0.0
-0.976580 -0.046063 0.0
-0.991371 -0.027218 0.0
-0.998315 -0.009181 0.0
-1.009446 0.040106 0.0
-1.005338 0.043576 0.0
-0.998302 0.041101 0.0
-0.988413 0.033060 0.0
-0.975735 0.019009 0.0
-0.960489 -0.001227 0.0
-0.943272 -0.027373 0.0
-0.925158 -0.058094 0.0
-0.907338 -0.091573 0.0
-0.890867 -0.125821 0.0
-0.876588 -0.158845 0.0
-0.864932 -0.188936 0.0
-0.855769 -0.214876 0.0
-0.848408 -0.235940 0.0
-0.841800 -0.251667 0.0
-0.834876 -0.261514 0.0
-0.826893 -0.264600 0.0
-0.817637 -0.259682 0.0
-0.807435 -0.245367 0.0