# vtk DataFile Version 3.0
Vector Field
ASCII
DATASET RECTILINEAR_GRID
DIMENSIONS 100 26 1
X_COORDINATES 100 double
0.050000 0.150000 0.250000 0.350000 0.450000 0.550000 0.650000 0.750000 0.850000 0.950000 1.050000 1.150000 1.250000 1.350000 1.450000 1.550000 1.650000 1.750000 1.850000 1.950000 2.050000 2.150000 2.250000 2.350000 2.450000 2.550000 2.650000 2.750000 2.850000 2.950000 3.050000 3.150000 3.250000 3.350000 3.450000 3.550000 3.650000 3.750000 3.850000 3.950000 4.050000 4.150000 4.250000 4.350000 4.450000 4.550000 4.650000 4.750000 4.850000 4.950000 5.050000 5.150000 5.250000 5.350000 5.450000 5.550000 5.650000 5.750000 5.850000 5.950000 6.050000 6.150000 6.250000 6.350000 6.450000 6.550000 6.650000 6.750000 6.850000 6.950000 7.050000 7.150000 7.250000 7.350000 7.450000 7.550000 7.650000 7.750000 7.850000 7.950000 8.050000 8.150000 8.250000 8.350000 8.450000 8.550000 8.650000 8.750000 8.850000 8.950000 9.050000 9.150000 9.250000 9.350000 9.450000 9.550000 9.650000 9.750000 9.850000 9.950000 
Y_COORDINATES 26 double
0.050000 0.150000 0.250000 0.350000 0.450000 0.550000 0.650000 0.750000 0.850000 0.950000 1.050000 1.150000 1.250000 1.350000 1.450000 1.550000 1.650000 1.750000 1.850000 1.950000 2.050000 2.150000 2.250000 2.350000 2.450000 2.550000 
Z_COORDINATES 1 double
0.0
POINT_DATA 2600
VECTORS Vektorfeld double
-1.247525 0.002014 0.0
-1.253236 0.003698 0.0
-1.258131 0.001197 0.0
-1.256901 -0.002428 0.0
-1.247790 -0.006683 0.0
-1.230191 -0.010916 0.0
-1.204726 -0.014549 0.0
-1.172950 -0.017227 0.0
-1.136889 -0.018834 0.0
-1.098642 -0.019413 0.0
-1.060127 -0.019102 0.0
-1.022944 -0.018081 0.0
-0.988306 -0.016557 0.0
-0.957003 -0.014746 0.0
-0.929402 -0.012855 0.0
-0.905481 -0.011066 0.0
-0.884907 -0.009508 0.0
-0.867166 -0.008233 0.0
-0.851717 -0.007215 0.0
-0.838156 -0.006346 0.0
-0.826362 -0.005448 0.0
-0.816632 -0.004283 0.0
-0.809787 -0.002563 0.0
-0.807243 0.000019 0.0
-0.810850 0.003588 0.0
-0.822185 0.007747 0.0
-0.841966 0.012035 0.0
-0.870015 0.016014 0.0
-0.905349 0.019320 0.0
-0.946379 0.021710 0.0
-0.991146 0.023056 0.0
-1.037508 0.023306 0.0
-1.083256 0.022442 0.0
-1.126165 0.020467 0.0
-1.164045 0.017413 0.0
-1.194819 0.013362 0.0
-1.216632 0.008451 0.0
-1.227962 0.002878 0.0
-1.227701 -0.003139 0.0
-1.215241 -0.009321 0.0
-1.190979 -0.014941 0.0
-1.156813 -0.019226 0.0
-1.115784 -0.021803 0.0
-1.071296 -0.022686 0.0
-1.026492 -0.022119 0.0
-0.983952 -0.020421 0.0
-0.945645 -0.017886 0.0
-0.913020 -0.014740 0.0
-0.887133 -0.011147 0.0
-0.868758 -0.007228 0.0
-0.858463 -0.003067 0.0
-0.856637 0.001241 0.0
-0.863304 0.005426 0.0
-0.877829 0.009099 0.0
-0.899091 0.012163 0.0
-0.925893 0.014639 0.0
-0.957097 0.016565 0.0
-0.991630 0.017967 0.0
-1.028452 0.018854 0.0
-1.066527 0.019221 0.0
-1.104805 0.019057 0.0
-1.142210 0.018348 0.0
-1.177640 0.017082 0.0
-1.209984 0.015261 0.0
-1.238157 0.012911 0.0
-1.261165 0.010097 0.0
-1.278204 0.006941 0.0
-1.288776 0.003631 0.0
-1.292831 0.000424 0.0
-1.290876 -0.002379 0.0
-1.283985 -0.004513 0.0
-1.273769 -0.005703 0.0
-1.262243 -0.005822 0.0
-1.251461 -0.004960 0.0
-1.243122 -0.003379 0.0
-1.238325 -0.001417 0.0
-1.237500 0.000592 0.0
-1.240449 0.002357 0.0
-1.246486 0.003679 0.0
-1.254615 0.004450 0.0
-1.263676 0.004611 0.0
-1.272430 0.004143 0.0
-1.279636 0.003064 0.0
-1.284124 0.001424 0.0
-1.284849 -0.000699 0.0
-1.280948 -0.003202 0.0
-1.271815 -0.005931 0.0
-1.257188 -0.008696 0.0
-1.237222 -0.011270 0.0
-1.212552 -0.013400 0.0
-1.184308 -0.014844 0.0
-1.154034 -0.015431 0.0
-1.123478 -0.015125 0.0
-1.094318 -0.014035 0.0
-1.067936 -0.012346 0.0
-1.045331 -0.010259 0.0
-1.027126 -0.007946 0.0
-1.013639 -0.005541 0.0
-1.004948 -0.003150 0.0
-1.000899 -0.000899 0.0
-1.294120 0.003397 0.0
-1.291241 0.005147 0.0
-1.283701 -0.002896 0.0
-1.269313 -0.013954 0.0
-1.247492 -0.026087 0.0
-1.219140 -0.037464 0.0
-1.185826 -0.046781 0.0
-1.149266 -0.053331 0.0
-1.111149 -0.056909 0.0
-1.073084 -0.057650 0.0
-1.036568 -0.055897 0.0
-1.002920 -0.052116 0.0
-0.973216 -0.046864 0.0
-0.948202 -0.040755 0.0
-0.928232 -0.034417 0.0
-0.913235 -0.028424 0.0
-0.902760 -0.023200 0.0
-0.896112 -0.018931 0.0
-0.892554 -0.015524 0.0
-0.891520 -0.012632 0.0
-0.892767 -0.009708 0.0
-0.896439 -0.006081 0.0
-0.903025 -0.001024 0.0
-0.913095 0.006008 0.0
-0.927024 0.015135 0.0
-0.945290 0.025800 0.0
-0.968565 0.037038 0.0
-0.997202 0.047695 0.0
-1.030930 0.056700 0.0
-1.068824 0.063256 0.0
-1.109428 0.066881 0.0
-1.150906 0.067321 0.0
-1.191182 0.064450 0.0
-1.228038 0.058223 0.0
-1.259196 0.048695 0.0
-1.282408 0.036067 0.0
-1.295571 0.020722 0.0
-1.296865 0.003231 0.0
-1.285016 -0.015603 0.0
-1.260375 -0.033958 0.0
-1.225495 -0.049444 0.0
-1.184053 -0.060330 0.0
-1.139747 -0.066033 0.0
-1.095773 -0.066918 0.0
-1.054606 -0.063858 0.0
-1.018002 -0.057826 0.0
-0.987147 -0.049643 0.0
-0.962841 -0.039913 0.0
-0.945605 -0.029096 0.0
-0.935655 -0.017603 0.0
-0.932823 -0.005819 0.0
-0.936571 0.005915 0.0
-0.946274 0.017122 0.0
-0.961586 0.027240 0.0
-0.982287 0.035985 0.0
-1.007913 0.043245 0.0
-1.037737 0.048988 0.0
-1.070869 0.053209 0.0
-1.106336 0.055901 0.0
-1.143126 0.057040 0.0
-1.180194 0.056585 0.0
-1.216460 0.054490 0.0
-1.250804 0.050713 0.0
-1.282077 0.045247 0.0
-1.309129 0.038151 0.0
-1.330868 0.029605 0.0
-1.346353 0.019957 0.0
-1.354928 0.009763 0.0
-1.356388 -0.000192 0.0
-1.351170 -0.008935 0.0
-1.340545 -0.015474 0.0
-1.326541 -0.018963 0.0
-1.311555 -0.019073 0.0
-1.297893 -0.016154 0.0
-1.287338 -0.011080 0.0
-1.280905 -0.004945 0.0
-1.278833 0.001222 0.0
-1.280766 0.006609 0.0
-1.285958 0.010657 0.0
-1.293377 0.013021 0.0
-1.301795 0.013519 0.0
-1.309907 0.012100 0.0
-1.316413 0.008819 0.0
-1.320080 0.003824 0.0
-1.319808 -0.002647 0.0
-1.314699 -0.010264 0.0
-1.304109 -0.018592 0.0
-1.287698 -0.027072 0.0
-1.265541 -0.035016 0.0
-1.238232 -0.041633 0.0
-1.206954 -0.046134 0.0
-1.173424 -0.047945 0.0
-1.139641 -0.046950 0.0
-1.107477 -0.043535 0.0
-1.078392 -0.038313 0.0
-1.053367 -0.031922 0.0
-1.032964 -0.024890 0.0
-1.017449 -0.017600 0.0
-1.006917 -0.010314 0.0
-1.001451 -0.003249 0.0
-1.263852 -0.000504 0.0
-1.253683 -0.004001 0.0
-1.236889 -0.018081 0.0
-1.214395 -0.035652 0.0
-1.186942 -0.053662 0.0
-1.155491 -0.069693 0.0
-1.121107 -0.082250 0.0
-1.084944 -0.090584 0.0
-1.048223 -0.094493 0.0
-1.012210 -0.094144 0.0
-0.978171 -0.089960 0.0
-0.947320 -0.082551 0.0
-0.920767 -0.072688 0.0
-0.899429 -0.061284 0.0
-0.883934 -0.049353 0.0
-0.874510 -0.037910 0.0
-0.870903 -0.027795 0.0
-0.872424 -0.019462 0.0
-0.878139 -0.012835 0.0
-0.887151 -0.007342 0.0
-0.898857 -0.002044 0.0
-0.913072 0.004142 0.0
-0.929889 0.012157 0.0
-0.949512 0.022519 0.0
-0.972188 0.035228 0.0
-0.998040 0.049826 0.0
-1.026979 0.065227 0.0
-1.058776 0.079940 0.0
-1.093027 0.092434 0.0
-1.129035 0.101425 0.0
-1.165713 0.105993 0.0
-1.201566 0.105540 0.0
-1.234746 0.099688 0.0
-1.263145 0.088240 0.0
-1.284509 0.071200 0.0
-1.296572 0.048837 0.0
-1.297222 0.021764 0.0
-1.284693 -0.009045 0.0
-1.258800 -0.041070 0.0
-1.222195 -0.069738 0.0
-1.179232 -0.091506 0.0
-1.134210 -0.104733 0.0
-1.090663 -0.109484 0.0
-1.051108 -0.106995 0.0
-1.017044 -0.099012 0.0
-0.989102 -0.087217 0.0
-0.967354 -0.072855 0.0
-0.951691 -0.056670 0.0
-0.942124 -0.039143 0.0
-0.938822 -0.020809 0.0
-0.941905 -0.002364 0.0
-0.951194 0.015498 0.0
-0.966163 0.032211 0.0
-0.986116 0.047414 0.0
-1.010399 0.060794 0.0
-1.038448 0.072112 0.0
-1.069708 0.081205 0.0
-1.103552 0.087968 0.0
-1.139263 0.092320 0.0
-1.176030 0.094178 0.0
-1.212962 0.093448 0.0
-1.249089 0.090020 0.0
-1.283355 0.083794 0.0
-1.314624 0.074709 0.0
-1.341696 0.062813 0.0
-1.363355 0.048342 0.0
-1.378468 0.031818 0.0
-1.386139 0.014146 0.0
-1.385908 -0.003346 0.0
-1.377982 -0.018925 0.0
-1.363540 -0.030551 0.0
-1.344939 -0.036491 0.0
-1.325327 -0.036142 0.0
-1.307804 -0.030270 0.0
-1.294673 -0.020649 0.0
-1.287100 -0.009382 0.0
-1.285190 0.001676 0.0
-1.288282 0.011181 0.0
-1.295264 0.018259 0.0
-1.304803 0.022376 0.0
-1.315486 0.023264 0.0
-1.325872 0.020854 0.0
-1.334552 0.015251 0.0
-1.340200 0.006706 0.0
-1.341611 -0.004391 0.0
-1.337724 -0.017516 0.0
-1.327687 -0.031967 0.0
-1.310962 -0.046833 0.0
-1.287438 -0.060936 0.0
-1.257613 -0.072845 0.0
-1.222802 -0.081011 0.0
-1.185198 -0.084202 0.0
-1.147509 -0.082165 0.0
-1.112150 -0.075843 0.0
-1.080764 -0.066477 0.0
-1.054276 -0.055271 0.0
-1.033072 -0.043148 0.0
-1.017220 -0.030711 0.0
-1.006658 -0.018296 0.0
-1.001345 -0.006046 0.0
-1.212005 -0.008691 0.0
-1.198261 -0.019727 0.0
-1.178042 -0.039368 0.0
-1.153211 -0.061690 0.0
-1.124743 -0.083544 0.0
-1.093516 -0.102490 0.0
-1.060379 -0.116974 0.0
-1.026227 -0.126175 0.0
-0.992024 -0.129825 0.0
-0.958789 -0.128058 0.0
-0.927577 -0.121297 0.0
-0.899445 -0.110195 0.0
-0.875433 -0.095610 0.0
-0.856521 -0.078611 0.0
-0.843568 -0.060472 0.0
-0.837183 -0.042599 0.0
-0.837559 -0.026336 0.0
-0.844335 -0.012625 0.0
-0.856621 -0.001671 0.0
-0.873265 0.007149 0.0
-0.893180 0.015085 0.0
-0.915567 0.023614 0.0
-0.940023 0.033958 0.0
-0.966477 0.046794 0.0
-0.994958 0.062110 0.0
-1.025375 0.079213 0.0
-1.057431 0.096835 0.0
-1.090652 0.113350 0.0
-1.124412 0.127035 0.0
-1.157886 0.136307 0.0
-1.189965 0.139868 0.0
-1.219187 0.136740 0.0
-1.243747 0.126227 0.0
-1.261569 0.107922 0.0
-1.270439 0.081752 0.0
-1.268169 0.048078 0.0
-1.252823 0.007827 0.0
-1.223665 -0.036795 0.0
-1.183390 -0.079489 0.0
-1.137101 -0.114213 0.0
-1.089488 -0.137607 0.0
-1.044369 -0.148773 0.0
-1.004636 -0.148724 0.0
-0.972241 -0.139704 0.0
-0.948124 -0.124484 0.0
-0.932149 -0.105661 0.0
-0.923267 -0.085041 0.0
-0.920040 -0.063373 0.0
-0.921351 -0.040696 0.0
-0.926807 -0.017102 0.0
-0.936608 0.006812 0.0
-0.951088 0.030091 0.0
-0.970336 0.051835 0.0
-0.994067 0.071475 0.0
-1.021745 0.088694 0.0
-1.052779 0.103296 0.0
-1.086617 0.115118 0.0
-1.122717 0.124000 0.0
-1.160503 0.129783 0.0
-1.199318 0.132297 0.0
-1.238408 0.131351 0.0
-1.276893 0.126729 0.0
-1.313750 0.118207 0.0
-1.347783 0.105598 0.0
-1.377621 0.088833 0.0
-1.401733 0.068093 0.0
-1.418525 0.043973 0.0
-1.426521 0.017657 0.0
-1.424649 -0.008960 0.0
-1.412658 -0.033228 0.0
-1.391971 -0.051377 0.0
-1.366097 -0.060141 0.0
-1.339659 -0.058543 0.0
-1.316928 -0.048122 0.0
-1.300797 -0.032060 0.0
-1.292426 -0.013916 0.0
-1.291518 0.003391 0.0
-1.296878 0.017919 0.0
-1.306933 0.028558 0.0
-1.320027 0.034710 0.0
-1.334494 0.036080 0.0
-1.348688 0.032618 0.0
-1.361019 0.024498 0.0
-1.369991 0.012079 0.0
-1.374226 -0.004117 0.0
-1.372474 -0.023429 0.0
-1.363630 -0.044936 0.0
-1.346815 -0.067404 0.0
-1.321534 -0.089170 0.0
-1.287957 -0.108014 0.0
-1.247430 -0.121181 0.0
-1.202975 -0.126091 0.0
-1.158846 -0.122093 0.0
-1.118524 -0.111594 0.0
-1.083805 -0.096831 0.0
-1.055388 -0.079821 0.0
-1.033257 -0.061932 0.0
-1.017093 -0.043944 0.0
-1.006530 -0.026187 0.0
-1.001303 -0.008694 0.0
-1.153722 -0.019230 0.0
-1.138911 -0.037743 0.0
-1.118315 -0.062168 0.0
-1.093836 -0.088201 0.0
-1.066481 -0.112857 0.0
-1.037083 -0.133802 0.0
-1.006400 -0.149482 0.0
-0.975191 -0.159027 0.0
-0.944254 -0.162113 0.0
-0.914426 -0.158833 0.0
-0.886572 -0.149590 0.0
-0.861573 -0.135033 0.0
-0.840325 -0.116032 0.0
-0.823728 -0.093698 0.0
-0.812659 -0.069408 0.0
-0.807907 -0.044801 0.0
-0.810028 -0.021636 0.0
-0.819172 -0.001405 0.0
-0.834973 0.015197 0.0
-0.856504 0.028456 0.0
-0.882367 0.039557 0.0
-0.911089 0.050252 0.0
-0.941541 0.062229 0.0
-0.973079 0.076514 0.0
-1.005382 0.093175 0.0
-1.038195 0.111378 0.0
-1.071125 0.129655 0.0
-1.103575 0.146201 0.0
-1.134744 0.159114 0.0
-1.163624 0.166583 0.0
-1.188968 0.167015 0.0
-1.209261 0.159108 0.0
-1.222740 0.141899 0.0
-1.227486 0.114820 0.0
-1.221574 0.077813 0.0
-1.203320 0.031493 0.0
-1.171715 -0.022538 0.0
-1.129048 -0.078254 0.0
-1.080443 -0.126911 0.0
-1.030436 -0.163088 0.0
-0.982527 -0.184253 0.0
-0.939503 -0.190269 0.0
-0.903664 -0.182801 0.0
-0.876922 -0.164764 0.0
-0.860648 -0.139815 0.0
-0.855203 -0.111751 0.0
-0.859419 -0.083618 0.0
-0.870695 -0.056748 0.0
-0.886070 -0.030635 0.0
-0.903514 -0.004262 0.0
-0.922460 0.022720 0.0
-0.943513 0.049717 0.0
-0.967595 0.075539 0.0
-0.995217 0.099125 0.0
-1.026350 0.119855 0.0
-1.060630 0.137450 0.0
-1.097579 0.151751 0.0
-1.136700 0.162589 0.0
-1.177475 0.169754 0.0
-1.219318 0.172985 0.0
-1.261537 0.171971 0.0
-1.303282 0.166340 0.0
-1.343500 0.155672 0.0
-1.380880 0.139547 0.0
-1.413798 0.117639 0.0
-1.440292 0.089894 0.0
-1.458122 0.056794 0.0
-1.464971 0.019680 0.0
-1.458858 -0.018968 0.0
-1.439285 -0.054783 0.0
-1.409080 -0.080713 0.0
-1.374083 -0.091676 0.0
-1.340664 -0.086866 0.0
-1.313913 -0.069280 0.0
-1.296816 -0.044131 0.0
-1.290075 -0.016957 0.0
-1.292595 0.008044 0.0
-1.302421 0.028453 0.0
-1.317545 0.043203 0.0
-1.336085 0.051699 0.0
-1.356162 0.053635 0.0
-1.375901 0.048996 0.0
-1.393489 0.038038 0.0
-1.407228 0.021250 0.0
-1.415585 -0.000696 0.0
-1.417180 -0.027008 0.0
-1.410650 -0.056731 0.0
-1.394660 -0.088414 0.0
-1.368028 -0.120072 0.0
-1.329986 -0.148730 0.0
-1.281243 -0.169735 0.0
-1.225917 -0.177319 0.0
-1.171810 -0.169101 0.0
-1.124629 -0.152090 0.0
-1.085825 -0.129859 0.0
-1.055449 -0.105586 0.0
-1.032686 -0.081060 0.0
-1.016564 -0.057101 0.0
-1.006265 -0.033892 0.0
-1.001242 -0.011240 0.0
-1.096152 -0.030592 0.0
-1.081620 -0.055725 0.0
-1.062126 -0.084276 0.0
-1.039342 -0.113354 0.0
-1.014221 -0.140180 0.0
-0.987543 -0.162554 0.0
-0.959998 -0.178959 0.0
-0.932249 -0.188508 0.0
-0.904970 -0.190848 0.0
-0.878854 -0.186042 0.0
-0.854618 -0.174471 0.0
-0.833005 -0.156763 0.0
-0.814787 -0.133768 0.0
-0.800761 -0.106586 0.0
-0.791738 -0.076612 0.0
-0.788512 -0.045575 0.0
-0.791802 -0.015450 0.0
-0.802142 0.011894 0.0
-0.819633 0.035190 0.0
-0.843608 0.053969 0.0
-0.872652 0.068951 0.0
-0.905000 0.081927 0.0
-0.938999 0.095005 0.0
-0.973423 0.109698 0.0
-1.007488 0.126359 0.0
-1.040653 0.144171 0.0
-1.072370 0.161509 0.0
-1.101932 0.176359 0.0
-1.128431 0.186623 0.0
-1.150760 0.190284 0.0
-1.167636 0.185533 0.0
-1.177619 0.170865 0.0
-1.179177 0.145179 0.0
-1.170802 0.107910 0.0
-1.151200 0.059209 0.0
-1.119575 0.000217 0.0
-1.077364 -0.065079 0.0
-1.029066 -0.126677 0.0
-0.979224 -0.176934 0.0
-0.930797 -0.211499 0.0
-0.885967 -0.228581 0.0
-0.846427 -0.228505 0.0
-0.813677 -0.213153 0.0
-0.789337 -0.185493 0.0
-0.775336 -0.149360 0.0
-0.773622 -0.109364 0.0
-0.785037 -0.070374 0.0
-0.807812 -0.035941 0.0
-0.837439 -0.006440 0.0
-0.868894 0.020442 0.0
-0.899415 0.047483 0.0
-0.929017 0.075609 0.0
-0.959122 0.103835 0.0
-0.991176 0.130505 0.0
-1.025911 0.154343 0.0
-1.063372 0.174702 0.0
-1.103225 0.191299 0.0
-1.144993 0.203931 0.0
-1.188141 0.212335 0.0
-1.232057 0.216163 0.0
-1.276010 0.214965 0.0
-1.319099 0.208180 0.0
-1.360192 0.195142 0.0
-1.397836 0.175100 0.0
-1.430153 0.147320 0.0
-1.454735 0.111288 0.0
-1.468609 0.067105 0.0
-1.468440 0.016050 0.0
-1.451191 -0.038700 0.0
-1.418141 -0.087672 0.0
-1.376611 -0.119560 0.0
-1.335298 -0.129139 0.0
-1.300763 -0.117357 0.0
-1.276981 -0.089322 0.0
-1.265709 -0.052458 0.0
-1.266461 -0.014618 0.0
-1.276870 0.018633 0.0
-1.294445 0.045266 0.0
-1.317382 0.064450 0.0
-1.343831 0.075442 0.0
-1.371729 0.077866 0.0
-1.398970 0.071745 0.0
-1.423531 0.057439 0.0
-1.443550 0.035608 0.0
-1.457402 0.007154 0.0
-1.463747 -0.026918 0.0
-1.461265 -0.065833 0.0
-1.448396 -0.108172 0.0
-1.423094 -0.152249 0.0
-1.382457 -0.195232 0.0
-1.324136 -0.230297 0.0
-1.252077 -0.244142 0.0
-1.182612 -0.225849 0.0
-1.126923 -0.198212 0.0
-1.084113 -0.165351 0.0
-1.052657 -0.131927 0.0
-1.030293 -0.099847 0.0
-1.015086 -0.069643 0.0
-1.005643 -0.041090 0.0
-1.001113 -0.013595 0.0
-1.043312 -0.041800 0.0
-1.029842 -0.072518 0.0
-1.012228 -0.104592 0.0
-0.991853 -0.136198 0.0
-0.969571 -0.164740 0.0
-0.946091 -0.188152 0.0
-0.922026 -0.204971 0.0
-0.897949 -0.214322 0.0
-0.874422 -0.215841 0.0
-0.852017 -0.209570 0.0
-0.831338 -0.195858 0.0
-0.813035 -0.175291 0.0
-0.797811 -0.148681 0.0
-0.786410 -0.117100 0.0
-0.779594 -0.081939 0.0
-0.778113 -0.044955 0.0
-0.782684 -0.008209 0.0
-0.793919 0.026227 0.0
-0.812051 0.056479 0.0
-0.836637 0.081240 0.0
-0.866493 0.100581 0.0
-0.899888 0.116040 0.0
-0.934929 0.129932 0.0
-0.969960 0.144226 0.0
-1.003747 0.159685 0.0
-1.035404 0.175667 0.0
-1.064177 0.190503 0.0
-1.089268 0.202018 0.0
-1.109739 0.207934 0.0
-1.124521 0.206084 0.0
-1.132451 0.194539 0.0
-1.132341 0.171732 0.0
-1.123076 0.136605 0.0
-1.103765 0.088799 0.0
-1.073971 0.028925 0.0
-1.034263 -0.040832 0.0
-0.988290 -0.112215 0.0
-0.940715 -0.175414 0.0
-0.894316 -0.224439 0.0
-0.850951 -0.255786 0.0
-0.811799 -0.268276 0.0
-0.777548 -0.262601 0.0
-0.748684 -0.240673 0.0
-0.725910 -0.205087 0.0
-0.710669 -0.159009 0.0
-0.705508 -0.106590 0.0
-0.713710 -0.053532 0.0
-0.737263 -0.006455 0.0
-0.774134 0.030573 0.0
-0.818315 0.059065 0.0
-0.863006 0.084073 0.0
-0.904369 0.109983 0.0
-0.942643 0.137838 0.0
-0.979999 0.165911 0.0
-1.018266 0.191940 0.0
-1.058158 0.214458 0.0
-1.099558 0.232795 0.0
-1.141957 0.246603 0.0
-1.184679 0.255534 0.0
-1.226928 0.259130 0.0
-1.267773 0.256795 0.0
-1.306110 0.247777 0.0
-1.340621 0.231149 0.0
-1.369684 0.205801 0.0
-1.391239 0.170493 0.0
-1.402573 0.124031 0.0
-1.400080 0.065743 0.0
-1.379162 -0.003676 0.0
-1.338491 -0.076895 0.0
-1.286874 -0.134144 0.0
-1.237877 -0.163616 0.0
-1.200559 -0.163713 0.0
-1.178703 -0.139174 0.0
-1.172294 -0.097695 0.0
-1.179423 -0.048227 0.0
-1.196746 -0.000774 0.0
-1.220761 0.039212 0.0
-1.250216 0.071717 0.0
-1.284463 0.095182 0.0
-1.321673 0.108369 0.0
-1.359631 0.110795 0.0
-1.396096 0.102522 0.0
-1.428915 0.084041 0.0
-1.456131 0.056240 0.0
-1.476137 0.020381 0.0
-1.487891 -0.022044 0.0
-1.491089 -0.069992 0.0
-1.485357 -0.122615 0.0
-1.468604 -0.179860 0.0
-1.434645 -0.242217 0.0
-1.372299 -0.303979 0.0
-1.276923 -0.337894 0.0
-1.183808 -0.294677 0.0
-1.119395 -0.249485 0.0
-1.074620 -0.201663 0.0
-1.044600 -0.157091 0.0
-1.024789 -0.116859 0.0
-1.012056 -0.080571 0.0
-1.004448 -0.047214 0.0
-1.000871 -0.015579 0.0
-0.997788 -0.052228 0.0
-0.985813 -0.087534 0.0
-0.970448 -0.122556 0.0
-0.952815 -0.156242 0.0
-0.933649 -0.186143 0.0
-0.913565 -0.210313 0.0
-0.893087 -0.227353 0.0
-0.872684 -0.236420 0.0
-0.852803 -0.237152 0.0
-0.833903 -0.229564 0.0
-0.816501 -0.213946 0.0
-0.801195 -0.190813 0.0
-0.788669 -0.160910 0.0
-0.779663 -0.125278 0.0
-0.774923 -0.085318 0.0
-0.775150 -0.042829 0.0
-0.780969 0.000055 0.0
-0.792878 0.041105 0.0
-0.811052 0.077908 0.0
-0.835153 0.108497 0.0
-0.864230 0.132257 0.0
-0.896735 0.150264 0.0
-0.930770 0.164783 0.0
-0.964460 0.178096 0.0
-0.996243 0.191384 0.0
-1.024924 0.204305 0.0
-1.049562 0.215277 0.0
-1.069298 0.222070 0.0
-1.083248 0.222304 0.0
-1.090487 0.213735 0.0
-1.090098 0.194428 0.0
-1.081261 0.162896 0.0
-1.063374 0.118289 0.0
-1.036214 0.060645 0.0
-1.000165 -0.008764 0.0
-0.957817 -0.085199 0.0
-0.913429 -0.158210 0.0
-0.870168 -0.220253 0.0
-0.829885 -0.266283 0.0
-0.793642 -0.293551 0.0
-0.761789 -0.301516 0.0
-0.734124 -0.291276 0.0
-0.710229 -0.264758 0.0
-0.689920 -0.224084 0.0
-0.673711 -0.171462 0.0
-0.663264 -0.109745 0.0
-0.661839 -0.043600 0.0
-0.674213 0.019539 0.0
-0.704366 0.071603 0.0
-0.751136 0.108985 0.0
-0.807024 0.134733 0.0
-0.862761 0.156424 0.0
-0.913018 0.179928 0.0
-0.957840 0.206000 0.0
-0.999746 0.232024 0.0
-1.040684 0.255203 0.0
-1.081148 0.273914 0.0
-1.120656 0.287389 0.0
-1.158277 0.295091 0.0
-1.192867 0.296411 0.0
-1.223105 0.290597 0.0
-1.247514 0.276721 0.0
-1.264446 0.253648 0.0
-1.272055 0.219974 0.0
-1.268155 0.173975 0.0
-1.249876 0.113603 0.0
-1.213064 0.036866 0.0
-1.153428 -0.055353 0.0
-1.079439 -0.139878 0.0
-1.008984 -0.193233 0.0
-0.954750 -0.207758 0.0
-0.925236 -0.186402 0.0
-0.924587 -0.138991 0.0
-0.949853 -0.079022 0.0
-0.990451 -0.019173 0.0
-1.034234 0.031278 0.0
-1.078720 0.075660 0.0
-1.126678 0.112682 0.0
-1.177055 0.138841 0.0
-1.227712 0.152577 0.0
-1.276615 0.153449 0.0
-1.321869 0.141587 0.0
-1.361671 0.117597 0.0
-1.394363 0.082593 0.0
-1.418651 0.038323 0.0
-1.434168 -0.012715 0.0
-1.442736 -0.067555 0.0
-1.448300 -0.125220 0.0
-1.452537 -0.189770 0.0
-1.447782 -0.271020 0.0
-1.406714 -0.378590 0.0
-1.288483 -0.476891 0.0
-1.161833 -0.375446 0.0
-1.092927 -0.302037 0.0
-1.052226 -0.234588 0.0
-1.028686 -0.177725 0.0
-1.014968 -0.129754 0.0
-1.006975 -0.088401 0.0
-1.002512 -0.051455 0.0
-1.000488 -0.016939 0.0
-0.960880 -0.061492 0.0
-0.950633 -0.100492 0.0
-0.937676 -0.137920 0.0
-0.922908 -0.173278 0.0
-0.906946 -0.204235 0.0
-0.890299 -0.228952 0.0
-0.873381 -0.246110 0.0
-0.856537 -0.254910 0.0
-0.840086 -0.254993 0.0
-0.824383 -0.246324 0.0
-0.809879 -0.229093 0.0
-0.797153 -0.203697 0.0
-0.786911 -0.170794 0.0
-0.779921 -0.131390 0.0
-0.776934 -0.086931 0.0
-0.778607 -0.039315 0.0
-0.785445 0.009198 0.0
-0.797754 0.056179 0.0
-0.815550 0.098804 0.0
-0.838483 0.134635 0.0
-0.865749 0.162463 0.0
-0.896019 0.182833 0.0
-0.927539 0.197768 0.0
-0.958410 0.209673 0.0
-0.986900 0.220080 0.0
-1.011613 0.229003 0.0
-1.031473 0.235076 0.0
-1.045607 0.236141 0.0
-1.053240 0.229817 0.0
-1.053664 0.213884 0.0
-1.046273 0.186499 0.0
-1.030663 0.146377 0.0
-1.006763 0.093020 0.0
-0.975036 0.027027 0.0
-0.936986 -0.049245 0.0
-0.896226 -0.127827 0.0
-0.856460 -0.199736 0.0
-0.819701 -0.258746 0.0
-0.787150 -0.300624 0.0
-0.759153 -0.323449 0.0
-0.735227 -0.327397 0.0
-0.714345 -0.313942 0.0
-0.695442 -0.284890 0.0
-0.677922 -0.241782 0.0
-0.661986 -0.185909 0.0
-0.648846 -0.118885 0.0
-0.641027 -0.043703 0.0
-0.642812 0.033802 0.0
-0.659608 0.104290 0.0
-0.695076 0.158535 0.0
-0.747326 0.193321 0.0
-0.808217 0.214464 0.0
-0.868038 0.231966 0.0
-0.921219 0.251966 0.0
-0.967407 0.274152 0.0
-1.008467 0.295072 0.0
-1.045657 0.311700 0.0
-1.078896 0.322350 0.0
-1.107205 0.326060 0.0
-1.129170 0.321997 0.0
-1.143163 0.309243 0.0
-1.147420 0.286741 0.0
-1.140103 0.253244 0.0
-1.119307 0.207191 0.0
-1.082887 0.146439 0.0
-1.027774 0.067747 0.0
-0.948691 -0.033172 0.0
-0.852350 -0.141292 0.0
-0.755877 -0.224402 0.0
-0.669026 -0.266015 0.0
-0.596627 -0.261610 0.0
-0.543647 -0.215044 0.0
-0.517733 -0.136912 0.0
-0.529331 -0.044237 0.0
-0.581541 0.038849 0.0
-0.665791 0.101289 0.0
-0.763287 0.147630 0.0
-0.854574 0.179958 0.0
-0.932836 0.200203 0.0
-0.999468 0.208503 0.0
-1.056688 0.203647 0.0
-1.105128 0.185084 0.0
-1.144460 0.153234 0.0
-1.174148 0.109335 0.0
-1.193888 0.055609 0.0
-1.204326 -0.004047 0.0
-1.211143 -0.060838 0.0
-1.228026 -0.109490 0.0
-1.265676 -0.163613 0.0
-1.323822 -0.243786 0.0
-1.362938 -0.407776 0.0
-1.251050 -0.677824 0.0
-1.093476 -0.458736 0.0
-1.036202 -0.344926 0.0
-1.012427 -0.256175 0.0
-1.003378 -0.188727 0.0
-1.000406 -0.135442 0.0
-0.999760 -0.091353 0.0
-0.999830 -0.052896 0.0
-0.999962 -0.017389 0.0
-0.932961 -0.069363 0.0
-0.924552 -0.111277 0.0
-0.914045 -0.150599 0.0
-0.902170 -0.187242 0.0
-0.889424 -0.218979 0.0
-0.876196 -0.244083 0.0
-0.862763 -0.261330 0.0
-0.849323 -0.269974 0.0
-0.836060 -0.269643 0.0
-0.823231 -0.260205 0.0
-0.811250 -0.241698 0.0
-0.800709 -0.214358 0.0
-0.792355 -0.178730 0.0
-0.786994 -0.135805 0.0
-0.785384 -0.087112 0.0
-0.788131 -0.034714 0.0
-0.795624 0.018928 0.0
-0.807972 0.071106 0.0
-0.824991 0.118692 0.0
-0.846241 0.158931 0.0
-0.870990 0.190182 0.0
-0.898109 0.212503 0.0
-0.926067 0.227575 0.0
-0.953088 0.237758 0.0
-0.977429 0.244826 0.0
-0.997610 0.249151 0.0
-1.012496 0.249674 0.0
-1.021246 0.244427 0.0
-1.023229 0.231147 0.0
-1.017981 0.207729 0.0
-1.005232 0.172514 0.0
-0.984998 0.124517 0.0
-0.957721 0.063704 0.0
-0.924485 -0.008619 0.0
-0.887989 -0.088145 0.0
-0.851815 -0.165863 0.0
-0.818547 -0.234734 0.0
-0.789694 -0.289359 0.0
-0.765827 -0.326430 0.0
-0.746452 -0.345015 0.0
-0.730186 -0.346023 0.0
-0.715296 -0.331087 0.0
-0.700372 -0.301570 0.0
-0.684800 -0.258194 0.0
-0.668912 -0.201320 0.0
-0.653943 -0.131584 0.0
-0.642010 -0.050757 0.0
-0.636319 0.036949 0.0
-0.641347 0.122967 0.0
-0.662106 0.196084 0.0
-0.701300 0.247216 0.0
-0.755679 0.275838 0.0
-0.816266 0.291000 0.0
-0.873644 0.303490 0.0
-0.922794 0.317965 0.0
-0.963162 0.332688 0.0
-0.995752 0.343865 0.0
-1.020932 0.348605 0.0
-1.038023 0.345204 0.0
-1.045690 0.332484 0.0
-1.042314 0.309372 0.0
-1.026204 0.274759 0.0
-0.995708 0.227413 0.0
-0.949201 0.165719 0.0
-0.884607 0.086897 0.0
-0.797654 -0.014779 0.0
-0.692884 -0.134500 0.0
-0.586374 -0.242815 0.0
-0.488557 -0.317169 0.0
-0.401999 -0.346656 0.0
-0.327020 -0.328347 0.0
-0.262246 -0.266061 0.0
-0.205853 -0.168203 0.0
-0.159922 -0.047278 0.0
-0.140259 0.074436 0.0
-0.165041 0.174735 0.0
-0.236364 0.243003 0.0
-0.339229 0.278738 0.0
-0.448429 0.288885 0.0
-0.543314 0.281338 0.0
-0.614906 0.259624 0.0
-0.662564 0.225204 0.0
-0.689012 0.178894 0.0
-0.697588 0.121938 0.0
-0.691523 0.056682 0.0
-0.671529 -0.014677 0.0
-0.655076 -0.059844 0.0
-0.672748 -0.075929 0.0
-0.736564 -0.095709 0.0
-0.873256 -0.116852 0.0
-1.058298 -0.310552 0.0
-1.051768 -0.893466 0.0
-0.944815 -0.507621 0.0
-0.941928 -0.356203 0.0
-0.955618 -0.254983 0.0
-0.970372 -0.184214 0.0
-0.982420 -0.130879 0.0
-0.991129 -0.087852 0.0
-0.996676 -0.050780 0.0
-0.999349 -0.016700 0.0
-0.913677 -0.075711 0.0
-0.907165 -0.119850 0.0
-0.899130 -0.160567 0.0
-0.890168 -0.198111 0.0
-0.880659 -0.230365 0.0
-0.870846 -0.255737 0.0
-0.860840 -0.273114 0.0
-0.850671 -0.281799 0.0
-0.840389 -0.281364 0.0
-0.830179 -0.271522 0.0
-0.820444 -0.252098 0.0
-0.811811 -0.223131 0.0
-0.805067 -0.185055 0.0
-0.801041 -0.138867 0.0
-0.800477 -0.086224 0.0
-0.803922 -0.029410 0.0
-0.811644 0.028839 0.0
-0.823570 0.085469 0.0
-0.839337 0.137113 0.0
-0.858402 0.180826 0.0
-0.880065 0.214699 0.0
-0.903376 0.238417 0.0
-0.927056 0.253299 0.0
-0.949547 0.261546 0.0
-0.969223 0.265055 0.0
-0.984633 0.264514 0.0
-0.994656 0.259220 0.0
-0.998520 0.247495 0.0
-0.995752 0.227295 0.0
-0.986137 0.196718 0.0
-0.969730 0.154370 0.0
-0.946949 0.099645 0.0
-0.918731 0.033081 0.0
-0.886837 -0.043124 0.0
-0.854394 -0.122579 0.0
-0.824515 -0.197482 0.0
-0.799079 -0.261820 0.0
-0.779062 -0.311143 0.0
-0.764235 -0.343340 0.0
-0.753126 -0.358588 0.0
-0.743513 -0.358329 0.0
-0.733243 -0.343942 0.0
-0.720920 -0.315963 0.0
-0.706183 -0.274110 0.0
-0.689640 -0.217836 0.0
-0.672645 -0.147031 0.0
-0.657146 -0.062743 0.0
-0.645693 0.031791 0.0
-0.641717 0.129178 0.0
-0.649580 0.218497 0.0
-0.673507 0.287925 0.0
-0.714446 0.330447 0.0
-0.767194 0.349727 0.0
-0.822212 0.357159 0.0
-0.871020 0.362255 0.0
-0.909538 0.367283 0.0
-0.937149 0.369470 0.0
-0.954170 0.365202 0.0
-0.960376 0.351905 0.0
-0.954850 0.327925 0.0
-0.936322 0.292028 0.0
-0.903451 0.243123 0.0
-0.854955 0.180057 0.0
-0.789394 0.101006 0.0
-0.703714 0.001336 0.0
-0.599980 -0.119905 0.0
-0.492149 -0.241976 0.0
-0.392629 -0.341369 0.0
-0.305493 -0.403569 0.0
-0.231663 -0.420644 0.0
-0.168654 -0.392348 0.0
-0.111623 -0.323864 0.0
-0.055662 -0.222754 0.0
0.000592 -0.094910 0.0
0.047692 0.055305 0.0
0.070821 0.195519 0.0
0.061867 0.302495 0.0
0.020370 0.363608 0.0
-0.045855 0.379441 0.0
-0.120677 0.360489 0.0
-0.186068 0.317456 0.0
-0.229807 0.258769 0.0
-0.246883 0.188853 0.0
-0.235120 0.108792 0.0
-0.188454 0.017098 0.0
-0.097350 -0.086189 0.0
0.002598 -0.104732 0.0
0.059775 -0.070545 0.0
0.037410 -0.026686 0.0
0.483578 -0.112918 0.0
0.483578 -0.257153 0.0
-0.325158 -0.775982 0.0
-0.718056 -0.448568 0.0
-0.826970 -0.309230 0.0
-0.893960 -0.221276 0.0
-0.936650 -0.160477 0.0
-0.964614 -0.114604 0.0
-0.982720 -0.077311 0.0
-0.993623 -0.044871 0.0
-0.998755 -0.014804 0.0
-0.902231 -0.080455 0.0
-0.897672 -0.126178 0.0
-0.892163 -0.167782 0.0
-0.886188 -0.205832 0.0
-0.879989 -0.238353 0.0
-0.873636 -0.263916 0.0
-0.867046 -0.281531 0.0
-0.860075 -0.290521 0.0
-0.852658 -0.290342 0.0
-0.844939 -0.280474 0.0
-0.837337 -0.260483 0.0
-0.830515 -0.230201 0.0
-0.825275 -0.189969 0.0
-0.822426 -0.140828 0.0
-0.822659 -0.084595 0.0
-0.826436 -0.023815 0.0
-0.833917 0.038446 0.0
-0.844881 0.098753 0.0
-0.858829 0.153544 0.0
-0.875151 0.199784 0.0
-0.893189 0.235442 0.0
-0.912164 0.259959 0.0
-0.931056 0.274329 0.0
-0.948579 0.280530 0.0
-0.963307 0.280476 0.0
-0.973911 0.275107 0.0
-0.979345 0.264085 0.0
-0.978937 0.246086 0.0
-0.972369 0.219369 0.0
-0.959659 0.182318 0.0
-0.941161 0.133866 0.0
-0.917651 0.073858 0.0
-0.890490 0.003488 0.0
-0.862077 -0.073838 0.0
-0.835455 -0.150930 0.0
-0.813079 -0.221386 0.0
-0.796399 -0.280033 0.0
-0.785657 -0.323690 0.0
-0.779593 -0.351684 0.0
-0.775772 -0.365175 0.0
-0.771448 -0.365679 0.0
-0.764474 -0.353836 0.0
-0.753769 -0.329097 0.0
-0.739314 -0.290168 0.0
-0.721904 -0.235732 0.0
-0.702918 -0.165116 0.0
-0.684161 -0.078913 0.0
-0.667847 0.020194 0.0
-0.656769 0.125719 0.0
-0.654261 0.227311 0.0
-0.664114 0.312890 0.0
-0.689230 0.371538 0.0
-0.728330 0.400485 0.0
-0.774542 0.407631 0.0
-0.818591 0.404640 0.0
-0.853472 0.398297 0.0
-0.876130 0.388725 0.0
-0.886004 0.372842 0.0
-0.883083 0.347550 0.0
-0.867024 0.310694 0.0
-0.837131 0.260836 0.0
-0.792575 0.196887 0.0
-0.732440 0.117662 0.0
-0.654948 0.020348 0.0
-0.560332 -0.098301 0.0
-0.459240 -0.225093 0.0
-0.364820 -0.339038 0.0
-0.283971 -0.424675 0.0
-0.220047 -0.471323 0.0
-0.170952 -0.475815 0.0
-0.129879 -0.441258 0.0
-0.088864 -0.372999 0.0
-0.042303 -0.276139 0.0
0.012970 -0.153051 0.0
0.075633 0.003683 0.0
0.132284 0.167363 0.0
0.166490 0.305398 0.0
0.172852 0.395840 0.0
0.155756 0.430530 0.0
0.124660 0.415318 0.0
0.090470 0.362210 0.0
0.063545 0.284680 0.0
0.051495 0.192068 0.0
0.058171 0.087139 0.0
0.082341 -0.032087 0.0
0.095022 -0.140789 0.0
0.087041 -0.142100 0.0
0.041140 -0.044976 0.0
0.000000 -0.089373 0.0
-0.000000 -0.228321 0.0
0.000000 -0.153862 0.0
-0.229863 -0.324253 0.0
-0.575073 -0.265479 0.0
-0.752583 -0.205893 0.0
-0.851999 -0.158207 0.0
-0.912878 -0.119977 0.0
-0.951750 -0.088268 0.0
-0.976542 -0.060749 0.0
-0.991355 -0.035716 0.0
-0.998311 -0.011870 0.0
-0.897598 -0.083528 0.0
-0.895070 -0.130192 0.0
-0.892199 -0.172148 0.0
-0.889346 -0.210294 0.0
-0.886592 -0.242845 0.0
-0.883799 -0.268569 0.0
-0.880676 -0.286590 0.0
-0.876917 -0.296192 0.0
-0.872373 -0.296631 0.0
-0.867181 -0.287095 0.0
-0.861784 -0.266861 0.0
-0.856859 -0.235571 0.0
-0.853181 -0.193518 0.0
-0.851484 -0.141825 0.0
-0.852351 -0.082499 0.0
-0.856133 -0.018351 0.0
-0.862876 0.047206 0.0