# vtk DataFile Version 3.0
Vector Field
ASCII
DATASET RECTILINEAR_GRID
DIMENSIONS 100 26 1
X_COORDINATES 100 double
0.050000 0.150000 0.250000 0.350000 0.450000 0.550000 0.650000 0.750000 0.850000 0.950000 1.050000 1.150000 1.250000 1.350000 1.450000 1.550000 1.650000 1.750000 1.850000 1.950000 2.050000 2.150000 2.250000 2.350000 2.450000 2.550000 2.650000 2.750000 2.850000 2.950000 3.050000 3.150000 3.250000 3.350000 3.450000 3.550000 3.650000 3.750000 3.850000 3.950000 4.050000 4.150000 4.250000 4.350000 4.450000 4.550000 4.650000 4.750000 4.850000 4.950000 5.050000 5.150000 5.250000 5.350000 5.450000 5.550000 5.650000 5.750000 5.850000 5.950000 6.050000 6.150000 6.250000 6.350000 6.450000 6.550000 6.650000 6.750000 6.850000 6.950000 7.050000 7.150000 7.250000 7.350000 7.450000 7.550000 7.650000 7.750000 7.850000 7.950000 8.050000 8.150000 8.250000 8.350000 8.450000 8.550000 8.650000 8.750000 8.850000 8.950000 9.050000 9.150000 9.250000 9.350000 9.450000 9.550000 9.650000 9.750000 9.850000 9.950000 
Y_COORDINATES 26 double
0.050000 0.150000 0.250000 0.350000 0.450000 0.550000 0.650000 0.750000 0.850000 0.950000 1.050000 1.150000 1.250000 1.350000 1.450000 1.550000 1.650000 1.750000 1.850000 1.950000 2.050000 2.150000 2.250000 2.350000 2.450000 2.550000 
Z_COORDINATES 1 double
0.0
POINT_DATA 2600
VECTORS Vektorfeld double
-0.929568 -0.000278 0.0
-0.929100 -0.000190 0.0
-0.928793 -0.000117 0.0
-0.928584 -0.000093 0.0
-0.928405 -0.000086 0.0
-0.928231 -0.000088 0.0
-0.928049 -0.000094 0.0
-0.927851 -0.000104 0.0
-0.927629 -0.000117 0.0
-0.927379 -0.000133 0.0
-0.927094 -0.000151 0.0
-0.926771 -0.000172 0.0
-0.926402 -0.000196 0.0
-0.925982 -0.000224 0.0
-0.925504 -0.000255 0.0
-0.924959 -0.000290 0.0
-0.924338 -0.000330 0.0
-0.923633 -0.000375 0.0
-0.922830 -0.000427 0.0
-0.921919 -0.000485 0.0
-0.920884 -0.000550 0.0
-0.919711 -0.000623 0.0
-0.918382 -0.000706 0.0
-0.916878 -0.000798 0.0
-0.915179 -0.000901 0.0
-0.913263 -0.001015 0.0
-0.911108 -0.001141 0.0
-0.908689 -0.001278 0.0
-0.905984 -0.001427 0.0
-0.902970 -0.001587 0.0
-0.899627 -0.001756 0.0
-0.895939 -0.001932 0.0
-0.891896 -0.002111 0.0
-0.887496 -0.002290 0.0
-0.882745 -0.002462 0.0
-0.877662 -0.002620 0.0
-0.872283 -0.002759 0.0
-0.866656 -0.002868 0.0
-0.860848 -0.002940 0.0
-0.854940 -0.002968 0.0
-0.849029 -0.002943 0.0
-0.843225 -0.002861 0.0
-0.837648 -0.002717 0.0
-0.832423 -0.002508 0.0
-0.827681 -0.002233 0.0
-0.823559 -0.001888 0.0
-0.820204 -0.001467 0.0
-0.817780 -0.000957 0.0
-0.816482 -0.000341 0.0
-0.816538 0.000398 0.0
-0.818185 0.001248 0.0
-0.821643 0.002210 0.0
-0.827176 0.003323 0.0
-0.835119 0.004620 0.0
-0.845851 0.006112 0.0
-0.859738 0.007774 0.0
-0.877057 0.009545 0.0
-0.897933 0.011331 0.0
-0.922291 0.013027 0.0
-0.949853 0.014534 0.0
-0.980162 0.015775 0.0
-1.012634 0.016697 0.0
-1.046604 0.017273 0.0
-1.081356 0.017480 0.0
-1.116136 0.017300 0.0
-1.150152 0.016715 0.0
-1.182579 0.015711 0.0
-1.212576 0.014286 0.0
-1.239321 0.012459 0.0
-1.262066 0.010286 0.0
-1.280214 0.007862 0.0
-1.293412 0.005335 0.0
-1.301645 0.002898 0.0
-1.305312 0.000769 0.0
-1.305236 -0.000845 0.0
-1.302565 -0.001826 0.0
-1.298576 -0.002163 0.0
-1.294455 -0.001957 0.0
-1.291074 -0.001424 0.0
-1.288831 -0.000820 0.0
-1.287634 -0.000377 0.0
-1.286984 -0.000272 0.0
-1.286098 -0.000614 0.0
-1.284031 -0.001453 0.0
-1.279796 -0.002782 0.0
-1.272471 -0.004543 0.0
-1.261305 -0.006623 0.0
-1.245826 -0.008856 0.0
-1.225948 -0.011022 0.0
-1.202060 -0.012866 0.0
-1.175058 -0.014136 0.0
-1.146275 -0.014647 0.0
-1.117284 -0.014344 0.0
-1.089628 -0.013312 0.0
-1.064597 -0.011719 0.0
-1.043132 -0.009747 0.0
-1.025827 -0.007558 0.0
-1.012992 -0.005277 0.0
-1.004712 -0.003002 0.0
-1.000855 -0.000855 0.0
-1.003198 -0.000576 0.0
-1.003122 -0.000437 0.0
-1.002973 -0.000325 0.0
-1.002780 -0.000287 0.0
-1.002569 -0.000282 0.0
-1.002339 -0.000296 0.0
-1.002084 -0.000323 0.0
-1.001798 -0.000360 0.0
-1.001475 -0.000406 0.0
-1.001110 -0.000460 0.0
-1.000697 -0.000522 0.0
-1.000227 -0.000594 0.0
-0.999695 -0.000675 0.0
-0.999092 -0.000768 0.0
-0.998408 -0.000873 0.0
-0.997635 -0.000991 0.0
-0.996760 -0.001124 0.0
-0.995773 -0.001275 0.0
-0.994658 -0.001444 0.0
-0.993403 -0.001634 0.0
-0.991989 -0.001848 0.0
-0.990401 -0.002087 0.0
-0.988618 -0.002354 0.0
-0.986623 -0.002650 0.0
-0.984392 -0.002978 0.0
-0.981907 -0.003339 0.0
-0.979145 -0.003734 0.0
-0.976086 -0.004163 0.0
-0.972711 -0.004623 0.0
-0.969005 -0.005111 0.0
-0.964957 -0.005622 0.0
-0.960562 -0.006148 0.0
-0.955824 -0.006676 0.0
-0.950757 -0.007192 0.0
-0.945389 -0.007678 0.0
-0.939762 -0.008112 0.0
-0.933938 -0.008470 0.0
-0.927995 -0.008726 0.0
-0.922031 -0.008855 0.0
-0.916162 -0.008831 0.0
-0.910517 -0.008635 0.0
-0.905235 -0.008253 0.0
-0.900461 -0.007676 0.0
-0.896330 -0.006905 0.0
-0.892968 -0.005941 0.0
-0.890481 -0.004790 0.0
-0.888954 -0.003448 0.0
-0.888453 -0.001901 0.0
-0.889032 -0.000116 0.0
-0.890757 0.001955 0.0
-0.893766 0.004346 0.0
-0.898314 0.007119 0.0
-0.904731 0.010364 0.0
-0.913361 0.014152 0.0
-0.924547 0.018498 0.0
-0.938595 0.023324 0.0
-0.955734 0.028453 0.0
-0.976065 0.033630 0.0
-0.999535 0.038557 0.0
-1.025926 0.042957 0.0
-1.054870 0.046605 0.0
-1.085877 0.049346 0.0
-1.118360 0.051077 0.0
-1.151655 0.051723 0.0
-1.185032 0.051214 0.0
-1.217702 0.049487 0.0
-1.248825 0.046490 0.0
-1.277528 0.042207 0.0
-1.302936 0.036691 0.0
-1.324227 0.030091 0.0
-1.340713 0.022691 0.0
-1.351943 0.014935 0.0
-1.357828 0.007416 0.0
-1.358739 0.000829 0.0
-1.355574 -0.004145 0.0
-1.349698 -0.007073 0.0
-1.342699 -0.007906 0.0
-1.336001 -0.007033 0.0
-1.330556 -0.005174 0.0
-1.326721 -0.003148 0.0
-1.324298 -0.001670 0.0
-1.322662 -0.001265 0.0
-1.320918 -0.002252 0.0
-1.318031 -0.004770 0.0
-1.312930 -0.008800 0.0
-1.304611 -0.014169 0.0
-1.292228 -0.020547 0.0
-1.275206 -0.027434 0.0
-1.253367 -0.034161 0.0
-1.227051 -0.039930 0.0
-1.197201 -0.043924 0.0
-1.165318 -0.045525 0.0
-1.133219 -0.044555 0.0
-1.102645 -0.041332 0.0
-1.074968 -0.036407 0.0
-1.051120 -0.030371 0.0
-1.031640 -0.023718 0.0
-1.016790 -0.016803 0.0
-1.006677 -0.009868 0.0
-1.001407 -0.003117 0.0
-1.004549 -0.000605 0.0
-1.004499 -0.000535 0.0
-1.004389 -0.000486 0.0
-1.004234 -0.000474 0.0
-1.004047 -0.000492 0.0
-1.003831 -0.000531 0.0
-1.003586 -0.000588 0.0
-1.003307 -0.000660 0.0
-1.002991 -0.000745 0.0
-1.002631 -0.000845 0.0
-1.002222 -0.000960 0.0
-1.001758 -0.001090 0.0
-1.001231 -0.001238 0.0
-1.000634 -0.001406 0.0
-0.999958 -0.001595 0.0
-0.999192 -0.001808 0.0
-0.998326 -0.002048 0.0
-0.997348 -0.002317 0.0
-0.996245 -0.002620 0.0
-0.995001 -0.002958 0.0
-0.993601 -0.003337 0.0
-0.992027 -0.003760 0.0
-0.990261 -0.004229 0.0
-0.988282 -0.004749 0.0
-0.986069 -0.005322 0.0
-0.983600 -0.005950 0.0
-0.980853 -0.006632 0.0
-0.977808 -0.007369 0.0
-0.974443 -0.008156 0.0
-0.970741 -0.008986 0.0
-0.966689 -0.009848 0.0
-0.962280 -0.010726 0.0
-0.957516 -0.011600 0.0
-0.952408 -0.012443 0.0
-0.946985 -0.013220 0.0
-0.941289 -0.013893 0.0
-0.935384 -0.014418 0.0
-0.929358 -0.014748 0.0
-0.923319 -0.014836 0.0
-0.917402 -0.014637 0.0
-0.911763 -0.014115 0.0
-0.906572 -0.013245 0.0
-0.902013 -0.012018 0.0
-0.898267 -0.010440 0.0
-0.895506 -0.008529 0.0
-0.893880 -0.006314 0.0
-0.893513 -0.003817 0.0
-0.894503 -0.001045 0.0
-0.896924 0.002028 0.0
-0.900853 0.005464 0.0
-0.906386 0.009379 0.0
-0.913663 0.013912 0.0
-0.922871 0.019195 0.0
-0.934237 0.025317 0.0
-0.947994 0.032276 0.0
-0.964341 0.039941 0.0
-0.983405 0.048038 0.0
-1.005211 0.056182 0.0
-1.029676 0.063939 0.0
-1.056607 0.070897 0.0
-1.085714 0.076716 0.0
-1.116613 0.081141 0.0
-1.148832 0.083984 0.0
-1.181811 0.085090 0.0
-1.214902 0.084314 0.0
-1.247365 0.081520 0.0
-1.278381 0.076595 0.0
-1.307054 0.069478 0.0
-1.332442 0.060216 0.0
-1.353601 0.049016 0.0
-1.369675 0.036324 0.0
-1.380020 0.022877 0.0
-1.384377 0.009715 0.0
-1.383046 -0.001890 0.0
-1.377012 -0.010625 0.0
-1.367954 -0.015526 0.0
-1.357976 -0.016430 0.0
-1.349027 -0.014156 0.0
-1.342362 -0.010160 0.0
-1.338353 -0.006005 0.0
-1.336615 -0.002973 0.0
-1.336269 -0.001943 0.0
-1.336167 -0.003419 0.0
-1.335045 -0.007613 0.0
-1.331620 -0.014483 0.0
-1.324670 -0.023755 0.0
-1.313115 -0.034899 0.0
-1.296133 -0.047086 0.0
-1.273317 -0.059164 0.0
-1.244884 -0.069676 0.0
-1.211883 -0.077028 0.0
-1.176267 -0.079921 0.0
-1.140536 -0.077990 0.0
-1.106967 -0.072040 0.0
-1.077129 -0.063213 0.0
-1.051912 -0.052631 0.0
-1.031690 -0.041161 0.0
-1.016537 -0.029364 0.0
-1.006412 -0.017544 0.0
-1.001300 -0.005823 0.0
-1.004529 -0.000621 0.0
-1.004489 -0.000609 0.0
-1.004401 -0.000610 0.0
-1.004272 -0.000635 0.0
-1.004108 -0.000683 0.0
-1.003913 -0.000752 0.0
-1.003685 -0.000840 0.0
-1.003423 -0.000948 0.0
-1.003123 -0.001074 0.0
-1.002781 -0.001219 0.0
-1.002391 -0.001385 0.0
-1.001947 -0.001573 0.0
-1.001442 -0.001786 0.0
-1.000870 -0.002027 0.0
-1.000220 -0.002299 0.0
-0.999485 -0.002605 0.0
-0.998653 -0.002948 0.0
-0.997713 -0.003334 0.0
-0.996651 -0.003767 0.0
-0.995454 -0.004252 0.0
-0.994104 -0.004794 0.0
-0.992584 -0.005397 0.0
-0.990876 -0.006067 0.0
-0.988958 -0.006808 0.0
-0.986809 -0.007625 0.0
-0.984406 -0.008519 0.0
-0.981724 -0.009491 0.0
-0.978740 -0.010540 0.0
-0.975430 -0.011660 0.0
-0.971772 -0.012841 0.0
-0.967747 -0.014068 0.0
-0.963344 -0.015318 0.0
-0.958555 -0.016561 0.0
-0.953388 -0.017757 0.0
-0.947860 -0.018857 0.0
-0.942011 -0.019802 0.0
-0.935899 -0.020526 0.0
-0.929610 -0.020956 0.0
-0.923259 -0.021017 0.0
-0.916991 -0.020640 0.0
-0.910978 -0.019763 0.0
-0.905421 -0.018344 0.0
-0.900536 -0.016363 0.0
-0.896546 -0.013830 0.0
-0.893670 -0.010777 0.0
-0.892104 -0.007258 0.0
-0.892016 -0.003328 0.0
-0.893537 0.000977 0.0
-0.896768 0.005660 0.0
-0.901794 0.010787 0.0
-0.908697 0.016494 0.0
-0.917581 0.022959 0.0
-0.928580 0.030355 0.0
-0.941854 0.038796 0.0
-0.957565 0.048264 0.0
-0.975840 0.058575 0.0
-0.996742 0.069370 0.0
-1.020250 0.080165 0.0
-1.046261 0.090433 0.0
-1.074602 0.099675 0.0
-1.105031 0.107472 0.0
-1.137236 0.113489 0.0
-1.170827 0.117447 0.0
-1.205314 0.119095 0.0
-1.240101 0.118187 0.0
-1.274470 0.114481 0.0
-1.307578 0.107758 0.0
-1.338449 0.097859 0.0
-1.365982 0.084755 0.0
-1.388984 0.068638 0.0
-1.406254 0.050046 0.0
-1.416747 0.029993 0.0
-1.419827 0.010036 0.0
-1.415571 -0.007798 0.0
-1.405117 -0.021205 0.0
-1.390939 -0.028182 0.0
-1.376337 -0.028354 0.0
-1.364226 -0.023291 0.0
-1.356256 -0.015660 0.0
-1.352652 -0.008118 0.0
-1.352606 -0.002644 0.0
-1.354776 -0.000448 0.0
-1.357634 -0.002159 0.0
-1.359607 -0.008023 0.0
-1.359132 -0.017972 0.0
-1.354692 -0.031655 0.0
-1.344861 -0.048385 0.0
-1.328402 -0.067041 0.0
-1.304464 -0.085963 0.0
-1.272904 -0.102871 0.0
-1.234789 -0.114949 0.0
-1.192861 -0.119545 0.0
-1.151109 -0.115849 0.0
-1.112868 -0.105990 0.0
-1.079894 -0.092075 0.0
-1.052873 -0.076007 0.0
-1.031801 -0.059080 0.0
-1.016380 -0.042019 0.0
-1.006275 -0.025119 0.0
-1.001257 -0.008379 0.0
-1.004539 -0.000634 0.0
-1.004507 -0.000668 0.0
-1.004434 -0.000711 0.0
-1.004325 -0.000772 0.0
-1.004183 -0.000852 0.0
-1.004008 -0.000953 0.0
-1.003801 -0.001074 0.0
-1.003559 -0.001217 0.0
-1.003280 -0.001383 0.0
-1.002961 -0.001572 0.0
-1.002595 -0.001788 0.0
-1.002178 -0.002032 0.0
-1.001703 -0.002307 0.0
-1.001164 -0.002618 0.0
-1.000552 -0.002969 0.0
-0.999858 -0.003363 0.0
-0.999073 -0.003807 0.0
-0.998184 -0.004305 0.0
-0.997178 -0.004864 0.0
-0.996043 -0.005489 0.0
-0.994761 -0.006188 0.0
-0.993315 -0.006968 0.0
-0.991686 -0.007834 0.0
-0.989853 -0.008793 0.0
-0.987792 -0.009850 0.0
-0.985478 -0.011010 0.0
-0.982886 -0.012274 0.0
-0.979987 -0.013640 0.0
-0.976754 -0.015103 0.0
-0.973159 -0.016651 0.0
-0.969176 -0.018266 0.0
-0.964783 -0.019918 0.0
-0.959965 -0.021568 0.0
-0.954716 -0.023166 0.0
-0.949044 -0.024646 0.0
-0.942978 -0.025929 0.0
-0.936567 -0.026922 0.0
-0.929893 -0.027522 0.0
-0.923071 -0.027623 0.0
-0.916255 -0.027118 0.0
-0.909640 -0.025913 0.0
-0.903454 -0.023937 0.0
-0.897956 -0.021153 0.0
-0.893423 -0.017564 0.0
-0.890126 -0.013217 0.0
-0.888319 -0.008192 0.0
-0.888218 -0.002583 0.0
-0.889994 0.003529 0.0
-0.893768 0.010112 0.0
-0.899620 0.017212 0.0
-0.907614 0.024965 0.0
-0.917813 0.033571 0.0
-0.930304 0.043233 0.0
-0.945197 0.054084 0.0
-0.962606 0.066096 0.0
-0.982622 0.079035 0.0
-1.005284 0.092473 0.0
-1.030561 0.105847 0.0
-1.058357 0.118559 0.0
-1.088514 0.130047 0.0
-1.120817 0.139832 0.0
-1.154986 0.147504 0.0
-1.190658 0.152694 0.0
-1.227366 0.155044 0.0
-1.264526 0.154185 0.0
-1.301413 0.149740 0.0
-1.337146 0.141340 0.0
-1.370663 0.128664 0.0
-1.400693 0.111514 0.0
-1.425755 0.089943 0.0
-1.444203 0.064460 0.0
-1.454412 0.036281 0.0
-1.455134 0.007551 0.0
-1.446032 -0.018671 0.0
-1.428726 -0.038092 0.0
-1.407379 -0.046820 0.0
-1.387213 -0.044484 0.0
-1.372311 -0.034174 0.0
-1.364464 -0.020594 0.0
-1.363279 -0.007973 0.0
-1.367093 0.000978 0.0
-1.373877 0.004885 0.0
-1.381658 0.003148 0.0
-1.388582 -0.004434 0.0
-1.392844 -0.017773 0.0
-1.392637 -0.036500 0.0
-1.386127 -0.059882 0.0
-1.371502 -0.086628 0.0
-1.347130 -0.114686 0.0
-1.311931 -0.140907 0.0
-1.266399 -0.160560 0.0
-1.214359 -0.167901 0.0
-1.163200 -0.160405 0.0
-1.118450 -0.144425 0.0
-1.081620 -0.123445 0.0
-1.052780 -0.100497 0.0
-1.031156 -0.077285 0.0
-1.015822 -0.054570 0.0
-1.006002 -0.032493 0.0
-1.001195 -0.010831 0.0
-1.004588 -0.000644 0.0
-1.004563 -0.000717 0.0
-1.004504 -0.000795 0.0
-1.004412 -0.000888 0.0
-1.004289 -0.001000 0.0
-1.004136 -0.001133 0.0
-1.003950 -0.001287 0.0
-1.003732 -0.001465 0.0
-1.003478 -0.001668 0.0
-1.003186 -0.001899 0.0
-1.002850 -0.002162 0.0
-1.002467 -0.002458 0.0
-1.002029 -0.002793 0.0
-1.001531 -0.003170 0.0
-1.000966 -0.003595 0.0
-1.000323 -0.004073 0.0
-0.999595 -0.004611 0.0
-0.998770 -0.005215 0.0
-0.997836 -0.005893 0.0
-0.996778 -0.006653 0.0
-0.995582 -0.007503 0.0
-0.994229 -0.008451 0.0
-0.992701 -0.009507 0.0
-0.990975 -0.010679 0.0
-0.989027 -0.011974 0.0
-0.986830 -0.013397 0.0
-0.984354 -0.014954 0.0
-0.981569 -0.016644 0.0
-0.978441 -0.018462 0.0
-0.974934 -0.020396 0.0
-0.971014 -0.022425 0.0
-0.966647 -0.024518 0.0
-0.961804 -0.026628 0.0
-0.956466 -0.028694 0.0
-0.950623 -0.030633 0.0
-0.944287 -0.032345 0.0
-0.937495 -0.033709 0.0
-0.930317 -0.034587 0.0
-0.922867 -0.034831 0.0
-0.915306 -0.034287 0.0
-0.907849 -0.032816 0.0
-0.900766 -0.030304 0.0
-0.894368 -0.026681 0.0
-0.889000 -0.021937 0.0
-0.885012 -0.016128 0.0
-0.882732 -0.009367 0.0
-0.882441 -0.001799 0.0
-0.884355 0.006435 0.0
-0.888613 0.015238 0.0
-0.895286 0.024611 0.0
-0.904394 0.034668 0.0
-0.915938 0.045612 0.0
-0.929930 0.057675 0.0
-0.946407 0.071011 0.0
-0.965424 0.085595 0.0
-0.987036 0.101163 0.0
-1.011261 0.117231 0.0
-1.038064 0.133170 0.0
-1.067345 0.148314 0.0
-1.098940 0.162044 0.0
-1.132618 0.173816 0.0
-1.168073 0.183144 0.0
-1.204915 0.189567 0.0
-1.242655 0.192618 0.0
-1.280691 0.191806 0.0
-1.318301 0.186615 0.0
-1.354612 0.176509 0.0
-1.388561 0.160960 0.0
-1.418817 0.139505 0.0
-1.443692 0.111890 0.0
-1.461091 0.078361 0.0
-1.468636 0.040133 0.0
-1.464128 -0.000087 0.0
-1.446813 -0.037450 0.0
-1.420156 -0.063276 0.0
-1.391480 -0.071659 0.0
-1.368004 -0.063289 0.0
-1.354289 -0.043987 0.0
-1.351340 -0.021577 0.0
-1.357202 -0.002314 0.0
-1.368752 0.010683 0.0
-1.383277 0.016489 0.0
-1.398664 0.014712 0.0
-1.412956 0.005218 0.0
-1.424238 -0.011881 0.0
-1.430628 -0.036210 0.0
-1.430070 -0.067239 0.0
-1.420193 -0.103772 0.0
-1.398298 -0.143809 0.0
-1.361281 -0.184000 0.0
-1.306909 -0.217371 0.0
-1.239041 -0.230997 0.0
-1.173228 -0.214281 0.0
-1.120311 -0.188214 0.0
-1.079680 -0.157117 0.0
-1.049876 -0.125469 0.0
-1.028715 -0.095097 0.0
-1.014327 -0.066480 0.0
-1.005376 -0.039353 0.0
-1.001064 -0.013090 0.0
-1.004670 -0.000648 0.0
-1.004653 -0.000754 0.0
-1.004606 -0.000863 0.0
-1.004531 -0.000987 0.0
-1.004427 -0.001129 0.0
-1.004294 -0.001291 0.0
-1.004133 -0.001476 0.0
-1.003941 -0.001686 0.0
-1.003715 -0.001925 0.0
-1.003454 -0.002196 0.0
-1.003154 -0.002502 0.0
-1.002809 -0.002847 0.0
-1.002415 -0.003236 0.0
-1.001966 -0.003674 0.0
-1.001455 -0.004168 0.0
-1.000875 -0.004723 0.0
-1.000215 -0.005349 0.0
-0.999466 -0.006052 0.0
-0.998616 -0.006841 0.0
-0.997652 -0.007727 0.0
-0.996559 -0.008719 0.0
-0.995319 -0.009828 0.0
-0.993914 -0.011065 0.0
-0.992319 -0.012442 0.0
-0.990510 -0.013968 0.0
-0.988459 -0.015652 0.0
-0.986132 -0.017501 0.0
-0.983495 -0.019519 0.0
-0.980506 -0.021704 0.0
-0.977122 -0.024044 0.0
-0.973298 -0.026521 0.0
-0.968986 -0.029101 0.0
-0.964140 -0.031733 0.0
-0.958719 -0.034347 0.0
-0.952694 -0.036847 0.0
-0.946051 -0.039109 0.0
-0.938805 -0.040983 0.0
-0.931008 -0.042288 0.0
-0.922762 -0.042826 0.0
-0.914232 -0.042384 0.0
-0.905652 -0.040756 0.0
-0.897336 -0.037764 0.0
-0.889666 -0.033288 0.0
-0.883078 -0.027286 0.0
-0.878030 -0.019816 0.0
-0.874957 -0.011032 0.0
-0.874227 -0.001153 0.0
-0.876112 0.009588 0.0
-0.880769 0.021000 0.0
-0.888246 0.032999 0.0
-0.898498 0.045640 0.0
-0.911426 0.059112 0.0
-0.926917 0.073659 0.0
-0.944882 0.089469 0.0
-0.965270 0.106542 0.0
-0.988054 0.124611 0.0
-1.013196 0.143151 0.0
-1.040616 0.161473 0.0
-1.070161 0.178838 0.0
-1.101595 0.194550 0.0
-1.134595 0.207987 0.0
-1.168748 0.218580 0.0
-1.203550 0.225776 0.0
-1.238414 0.229014 0.0
-1.272676 0.227709 0.0
-1.305601 0.221247 0.0
-1.336380 0.208967 0.0
-1.364082 0.190153 0.0
-1.387546 0.164031 0.0
-1.405172 0.129864 0.0
-1.414640 0.087254 0.0
-1.412777 0.036923 0.0
-1.396055 -0.018108 0.0
-1.365453 -0.067345 0.0
-1.329830 -0.095662 0.0
-1.299856 -0.097924 0.0
-1.282414 -0.077941 0.0
-1.280155 -0.045308 0.0
-1.291305 -0.012054 0.0
-1.310707 0.013428 0.0
-1.334233 0.030018 0.0
-1.359942 0.037388 0.0
-1.385948 0.035204 0.0
-1.410295 0.023365 0.0
-1.431055 0.002014 0.0
-1.446446 -0.028325 0.0
-1.454967 -0.067161 0.0
-1.454658 -0.114036 0.0
-1.442335 -0.167763 0.0
-1.411986 -0.227413 0.0
-1.353430 -0.286887 0.0
-1.262834 -0.319945 0.0
-1.174084 -0.279896 0.0
-1.112646 -0.236954 0.0
-1.070150 -0.191505 0.0
-1.041823 -0.149212 0.0
-1.023225 -0.111113 0.0
-1.011309 -0.076770 0.0
-1.004186 -0.045137 0.0
-1.000825 -0.014979 0.0
-1.004781 -0.000647 0.0
-1.004772 -0.000782 0.0
-1.004737 -0.000917 0.0
-1.004678 -0.001068 0.0
-1.004593 -0.001236 0.0
-1.004483 -0.001425 0.0
-1.004346 -0.001639 0.0
-1.004182 -0.001880 0.0
-1.003988 -0.002151 0.0
-1.003762 -0.002457 0.0
-1.003501 -0.002802 0.0
-1.003201 -0.003191 0.0
-1.002856 -0.003629 0.0
-1.002463 -0.004122 0.0
-1.002015 -0.004678 0.0
-1.001505 -0.005304 0.0
-1.000923 -0.006009 0.0
-1.000263 -0.006801 0.0
-0.999511 -0.007693 0.0
-0.998656 -0.008694 0.0
-0.997683 -0.009817 0.0
-0.996576 -0.011076 0.0
-0.995315 -0.012484 0.0
-0.993877 -0.014055 0.0
-0.992237 -0.015803 0.0
-0.990363 -0.017741 0.0
-0.988222 -0.019880 0.0
-0.985771 -0.022229 0.0
-0.982965 -0.024789 0.0
-0.979751 -0.027556 0.0
-0.976071 -0.030514 0.0
-0.971859 -0.033631 0.0
-0.967051 -0.036857 0.0
-0.961580 -0.040115 0.0
-0.955387 -0.043298 0.0
-0.948426 -0.046262 0.0
-0.940679 -0.048823 0.0
-0.932165 -0.050758 0.0
-0.922962 -0.051805 0.0
-0.913223 -0.051675 0.0
-0.903191 -0.050075 0.0
-0.893218 -0.046735 0.0
-0.883761 -0.041445 0.0
-0.875371 -0.034107 0.0
-0.868654 -0.024761 0.0
-0.864207 -0.013608 0.0
-0.862535 -0.000979 0.0
-0.863983 0.012748 0.0
-0.868729 0.027243 0.0
-0.876786 0.042290 0.0
-0.888024 0.057839 0.0
-0.902198 0.074015 0.0
-0.919009 0.091057 0.0
-0.938159 0.109187 0.0
-0.959402 0.128456 0.0
-0.982544 0.148622 0.0
-1.007409 0.169147 0.0
-1.033793 0.189281 0.0
-1.061413 0.208194 0.0
-1.089873 0.225088 0.0
-1.118658 0.239234 0.0
-1.147133 0.249961 0.0
-1.174561 0.256624 0.0
-1.200117 0.258585 0.0
-1.222925 0.255207 0.0
-1.242097 0.245846 0.0
-1.256775 0.229824 0.0
-1.266140 0.206364 0.0
-1.269342 0.174487 0.0
-1.265219 0.132911 0.0
-1.251689 0.080145 0.0
-1.224651 0.015132 0.0
-1.181368 -0.056323 0.0
-1.131978 -0.109122 0.0
-1.093349 -0.128137 0.0
-1.075222 -0.113551 0.0
-1.080246 -0.074732 0.0
-1.104657 -0.026365 0.0
-1.138858 0.014353 0.0
-1.176409 0.043974 0.0
-1.216476 0.063064 0.0
-1.257261 0.070835 0.0
-1.296701 0.067202 0.0
-1.333146 0.052159 0.0
-1.364919 0.025755 0.0
-1.390417 -0.011176 0.0
-1.409568 -0.056639 0.0
-1.423368 -0.111068 0.0
-1.431797 -0.174624 0.0
-1.428569 -0.254129 0.0
-1.388824 -0.358472 0.0
-1.274556 -0.453224 0.0
-1.152577 -0.357346 0.0
-1.086567 -0.286952 0.0
-1.048044 -0.222526 0.0
-1.026102 -0.168459 0.0
-1.013521 -0.123045 0.0
-1.006286 -0.083988 0.0
-1.002272 -0.049056 0.0
-1.000445 -0.016249 0.0
-1.004916 -0.000640 0.0
-1.004915 -0.000798 0.0
-1.004893 -0.000957 0.0
-1.004849 -0.001131 0.0
-1.004784 -0.001323 0.0
-1.004697 -0.001536 0.0
-1.004587 -0.001775 0.0
-1.004453 -0.002042 0.0
-1.004293 -0.002342 0.0
-1.004105 -0.002679 0.0
-1.003887 -0.003059 0.0
-1.003636 -0.003486 0.0
-1.003347 -0.003967 0.0
-1.003016 -0.004509 0.0
-1.002637 -0.005119 0.0
-1.002205 -0.005806 0.0
-1.001712 -0.006581 0.0
-1.001150 -0.007453 0.0
-1.000509 -0.008434 0.0
-0.999777 -0.009539 0.0
-0.998942 -0.010781 0.0
-0.997986 -0.012175 0.0
-0.996892 -0.013740 0.0
-0.995638 -0.015491 0.0
-0.994196 -0.017448 0.0
-0.992536 -0.019629 0.0
-0.990620 -0.022050 0.0
-0.988404 -0.024726 0.0
-0.985834 -0.027668 0.0
-0.982849 -0.030877 0.0
-0.979377 -0.034346 0.0
-0.975337 -0.038050 0.0
-0.970639 -0.041944 0.0
-0.965189 -0.045949 0.0
-0.958893 -0.049953 0.0
-0.951666 -0.053794 0.0
-0.943445 -0.057259 0.0
-0.934206 -0.060076 0.0
-0.923980 -0.061915 0.0
-0.912885 -0.062400 0.0
-0.901141 -0.061126 0.0
-0.889099 -0.057699 0.0
-0.877258 -0.051779 0.0
-0.866269 -0.043152 0.0
-0.856907 -0.031793 0.0
-0.850005 -0.017924 0.0
-0.846323 -0.002017 0.0
-0.846396 0.015307 0.0
-0.850463 0.033495 0.0
-0.858503 0.052135 0.0
-0.870269 0.070999 0.0
-0.885324 0.090085 0.0
-0.903103 0.109576 0.0
-0.923003 0.129718 0.0
-0.944464 0.150629 0.0
-0.967008 0.172134 0.0
-0.990223 0.193715 0.0
-1.013700 0.214574 0.0
-1.036962 0.233782 0.0
-1.059411 0.250409 0.0
-1.080298 0.263585 0.0
-1.098723 0.272511 0.0
-1.113655 0.276433 0.0
-1.123959 0.274635 0.0
-1.128436 0.266442 0.0
-1.125879 0.251228 0.0
-1.115147 0.228387 0.0
-1.095217 0.197236 0.0
-1.065143 0.156742 0.0
-1.023605 0.104993 0.0
-0.967042 0.037969 0.0
-0.890664 -0.046108 0.0
-0.805847 -0.123183 0.0
-0.732784 -0.164713 0.0
-0.682264 -0.161694 0.0
-0.662621 -0.117763 0.0
-0.679435 -0.048682 0.0
-0.726166 0.018727 0.0
-0.790566 0.067861 0.0
-0.862750 0.100203 0.0
-0.932719 0.116870 0.0
-0.994852 0.119948 0.0
-1.049029 0.111706 0.0
-1.096873 0.091943 0.0
-1.138546 0.059416 0.0
-1.172649 0.014763 0.0
-1.198328 -0.037747 0.0
-1.223677 -0.090812 0.0
-1.261429 -0.148698 0.0
-1.315859 -0.228853 0.0
-1.350694 -0.388657 0.0
-1.239412 -0.648588 0.0
-1.085759 -0.437614 0.0
-1.030905 -0.327548 0.0
-1.008948 -0.242411 0.0
-1.001234 -0.178229 0.0
-0.999208 -0.127882 0.0
-0.999192 -0.086402 0.0
-0.999633 -0.050215 0.0
-0.999928 -0.016621 0.0
-1.005071 -0.000626 0.0
-1.005080 -0.000805 0.0
-1.005070 -0.000983 0.0
-1.005043 -0.001176 0.0
-1.004998 -0.001388 0.0
-1.004934 -0.001622 0.0
-1.004852 -0.001882 0.0
-1.004749 -0.002172 0.0
-1.004626 -0.002496 0.0
-1.004479 -0.002860 0.0
-1.004308 -0.003268 0.0
-1.004109 -0.003727 0.0
-1.003879 -0.004244 0.0
-1.003615 -0.004826 0.0
-1.003313 -0.005482 0.0
-1.002966 -0.006221 0.0
-1.002570 -0.007055 0.0
-1.002116 -0.007994 0.0
-1.001597 -0.009053 0.0
-1.001002 -0.010247 0.0
-1.000320 -0.011591 0.0
-0.999535 -0.013105 0.0
-0.998631 -0.014808 0.0
-0.997586 -0.016722 0.0
-0.996375 -0.018870 0.0
-0.994966 -0.021276 0.0
-0.993320 -0.023964 0.0
-0.991392 -0.026957 0.0
-0.989122 -0.030276 0.0
-0.986442 -0.033934 0.0
-0.983268 -0.037935 0.0
-0.979505 -0.042266 0.0
-0.975040 -0.046890 0.0
-0.969755 -0.051738 0.0
-0.963521 -0.056694 0.0
-0.956216 -0.061585 0.0
-0.947733 -0.066173 0.0
-0.937995 -0.070140 0.0
-0.926979 -0.073092 0.0
-0.914736 -0.074562 0.0
-0.901415 -0.074029 0.0
-0.887296 -0.070956 0.0
-0.872821 -0.064837 0.0
-0.858626 -0.055278 0.0
-0.845568 -0.042088 0.0
-0.834702 -0.025397 0.0
-0.827187 -0.005741 0.0
-0.824033 0.015951 0.0
-0.825790 0.038675 0.0
-0.832481 0.061686 0.0
-0.843743 0.084477 0.0
-0.858901 0.106820 0.0
-0.877053 0.128772 0.0
-0.897188 0.150559 0.0
-0.918315 0.172376 0.0
-0.939546 0.194163 0.0
-0.960126 0.215481 0.0
-0.979379 0.235538 0.0
-0.996624 0.253326 0.0
-1.011088 0.267779 0.0
-1.021863 0.277875 0.0
-1.027885 0.282668 0.0
-1.027960 0.281283 0.0
-1.020787 0.272917 0.0
-1.005006 0.256856 0.0
-0.979252 0.232504 0.0
-0.942230 0.199356 0.0
-0.892727 0.156834 0.0
-0.829262 0.103605 0.0
-0.747703 0.035034 0.0
-0.643200 -0.053137 0.0
-0.529007 -0.145574 0.0
-0.425489 -0.212053 0.0
-0.338134 -0.236262 0.0
-0.265954 -0.212845 0.0
-0.208320 -0.143889 0.0
-0.168388 -0.045675 0.0
-0.157547 0.051610 0.0
-0.185808 0.127637 0.0
-0.248395 0.175198 0.0
-0.330087 0.193537 0.0
-0.414429 0.189756 0.0
-0.491842 0.173488 0.0
-0.558971 0.145135 0.0
-0.612630 0.101556 0.0
-0.650855 0.044951 0.0
-0.676003 -0.017107 0.0
-0.700178 -0.061929 0.0
-0.754116 -0.085892 0.0
-0.881752 -0.109593 0.0
-1.056072 -0.298761 0.0
-1.044928 -0.860910 0.0
-0.939623 -0.484249 0.0
-0.938319 -0.337071 0.0
-0.953253 -0.239912 0.0
-0.968921 -0.172775 0.0
-0.981612 -0.122672 0.0
-0.990748 -0.082493 0.0
-0.996544 -0.047886 0.0
-0.999326 -0.015874 0.0
-1.005244 -0.000605 0.0
-1.005262 -0.000800 0.0
-1.005265 -0.000994 0.0
-1.005255 -0.001203 0.0
-1.005230 -0.001431 0.0
-1.005191 -0.001682 0.0
-1.005137 -0.001959 0.0
-1.005067 -0.002267 0.0
-1.004981 -0.002611 0.0
-1.004878 -0.002995 0.0
-1.004755 -0.003427 0.0
-1.004612 -0.003911 0.0
-1.004446 -0.004456 0.0
-1.004253 -0.005070 0.0
-1.004032 -0.005762 0.0
-1.003777 -0.006542 0.0
-1.003485 -0.007423 0.0
-1.003148 -0.008416 0.0
-1.002761 -0.009537 0.0
-1.002315 -0.010803 0.0
-1.001800 -0.012232 0.0
-1.001203 -0.013845 0.0
-1.000510 -0.015666 0.0
-0.999700 -0.017719 0.0
-0.998751 -0.020034 0.0
-0.997632 -0.022640 0.0
-0.996307 -0.025571 0.0
-0.994727 -0.028859 0.0
-0.992834 -0.032537 0.0
-0.990555 -0.036632 0.0
-0.987802 -0.041163 0.0
-0.984470 -0.046133 0.0
-0.980437 -0.051520 0.0
-0.975568 -0.057264 0.0
-0.969716 -0.063253 0.0
-0.962736 -0.069310 0.0
-0.954491 -0.075177 0.0
-0.944862 -0.080502 0.0
-0.933769 -0.084838 0.0
-0.921182 -0.087646 0.0
-0.907142 -0.088307 0.0
-0.891782 -0.086158 0.0
-0.875364 -0.080529 0.0
-0.858329 -0.070815 0.0
-0.841368 -0.056571 0.0
-0.825498 -0.037649 0.0
-0.812120 -0.014383 0.0
-0.802912 0.012232 0.0
-0.799308 0.040547 0.0
-0.801887 0.069084 0.0
-0.810383 0.096836 0.0
-0.823935 0.123171 0.0
-0.841254 0.147890 0.0
-0.860816 0.171138 0.0
-0.881073 0.193180 0.0
-0.900604 0.214121 0.0
-0.918197 0.233696 0.0
-0.932841 0.251219 0.0
-0.943638 0.265687 0.0
-0.949709 0.275953 0.0
-0.950103 0.280870 0.0
-0.943773 0.279366 0.0
-0.929571 0.270458 0.0
-0.906272 0.253270 0.0
-0.872613 0.227062 0.0
-0.827322 0.191255 0.0
-0.769101 0.145362 0.0
-0.696173 0.088396 0.0
-0.603641 0.016047 0.0
-0.488415 -0.074192 0.0
-0.364621 -0.172208 0.0
-0.250629 -0.254688 0.0
-0.152239 -0.304846 0.0
-0.068798 -0.314265 0.0
0.002295 -0.278115 0.0
0.061240 -0.195198 0.0
0.105896 -0.078954 0.0
0.130954 0.048991 0.0
0.130072 0.159399 0.0
0.101874 0.234221 0.0
0.050394 0.267687 0.0
-0.015527 0.265869 0.0
-0.080739 0.240000 0.0
-0.127753 0.192765 0.0
-0.141735 0.121566 0.0
-0.102197 0.023629 0.0
-0.013380 -0.059454 0.0
0.052456 -0.061244 0.0
0.033025 -0.024016 0.0
0.484589 -0.109012 0.0
0.484589 -0.248024 0.0
-0.323386 -0.741221 0.0
-0.715305 -0.423533 0.0
-0.825413 -0.288983 0.0
-0.893028 -0.205450 0.0
-0.936090 -0.148507 0.0
-0.964304 -0.106033 0.0
-0.982576 -0.071724 0.0
-0.993576 -0.041860 0.0
-0.998748 -0.013948 0.0
-1.005430 -0.000576 0.0
-1.005457 -0.000783 0.0
-1.005474 -0.000989 0.0
-1.005481 -0.001211 0.0
-1.005477 -0.001452 0.0
-1.005462 -0.001715 0.0
-1.005437 -0.002005 0.0
-1.005401 -0.002326 0.0
-1.005354 -0.002684 0.0
-1.005295 -0.003084 0.0
-1.005224 -0.003532 0.0
-1.005138 -0.004034 0.0
-1.005038 -0.004600 0.0
-1.004921 -0.005236 0.0
-1.004785 -0.005954 0.0
-1.004627 -0.006763 0.0
-1.004443 -0.007677 0.0
-1.004231 -0.008710 0.0
-1.003984 -0.009877 0.0
-1.003697 -0.011197 0.0
-1.003362 -0.012689 0.0
-1.002969 -0.014378 0.0
-1.002505 -0.016290 0.0
-1.001955 -0.018454 0.0
-1.001299 -0.020904 0.0
-1.000510 -0.023677 0.0
-0.999556 -0.026814 0.0
-0.998392 -0.030359 0.0
-0.996965 -0.034357 0.0
-0.995207 -0.038849 0.0
-0.993033 -0.043872 0.0
-0.990343 -0.049445 0.0
-0.987022 -0.055562 0.0
-0.982939 -0.062175 0.0
-0.977951 -0.069181 0.0
-0.971913 -0.076401 0.0
-0.964677 -0.083568 0.0
-0.956103 -0.090313 0.0
-0.946064 -0.096159 0.0
-0.934450 -0.100526 0.0
-0.921178 -0.102740 0.0
-0.906207 -0.102057 0.0
-0.889561 -0.097694 0.0
-0.871374 -0.088872 0.0
-0.851965 -0.074885 0.0
-0.831958 -0.055213 0.0
-0.812448 -0.029708 0.0
-0.795193 0.001094 0.0
-0.782608 0.035494 0.0
-0.776701 0.070809 0.0
-0.778132 0.105038 0.0
-0.786392 0.136783 0.0
-0.800081 0.165285 0.0
-0.817193 0.190419 0.0
-0.835501 0.212464 0.0
-0.852876 0.231743 0.0
-0.867492 0.248283 0.0
-0.877876 0.261660 0.0
-0.882860 0.271027 0.0
-0.881462 0.275284 0.0
-0.872782 0.273254 0.0
-0.855929 0.263801 0.0
-0.829997 0.245888 0.0
-0.794051 0.218595 0.0
-0.747128 0.181155 0.0
-0.688171 0.132914 0.0
-0.615554 0.072865 0.0
-0.524801 -0.002787 0.0
-0.415338 -0.094764 0.0
-0.299876 -0.194069 0.0
-0.192238 -0.283762 0.0
-0.098319 -0.351045 0.0
-0.019468 -0.385731 0.0
0.046203 -0.382492 0.0
0.101271 -0.336048 0.0
0.150638 -0.245575 0.0
0.197692 -0.120288 0.0
0.237762 0.025197 0.0
0.258861 0.162975 0.0
0.254072 0.263632 0.0
0.226800 0.317028 0.0
0.185143 0.324106 0.0
0.140837 0.291281 0.0
0.106338 0.222997 0.0
0.092117 0.119536 0.0
0.096221 -0.017982 0.0
0.086180 -0.096620 0.0
0.035551 -0.040185 0.0
0.000000 -0.087395 0.0
-0.000000 -0.220714 0.0
0.000000 -0.147517 0.0
-0.230756 -0.287585 0.0
-0.576625 -0.239889 0.0
-0.753709 -0.185436 0.0
-0.852737 -0.142354 0.0
-0.913300 -0.107979 0.0
-0.951980 -0.079667 0.0
-0.976655 -0.055143 0.0
-0.991398 -0.032698 0.0
-0.998320 -0.011016 0.0
-1.005626 -0.000539 0.0
-1.005663 -0.000756 0.0
-1.005694 -0.000970 0.0
-1.005717 -0.001201 0.0
-1.005734 -0.001450 0.0
-1.005744 -0.001721 0.0
-1.005748 -0.002019 0.0
-1.005746 -0.002349 0.0
-1.005739 -0.002716 0.0