# vtk DataFile Version 3.0
Vector Field
ASCII
DATASET RECTILINEAR_GRID
DIMENSIONS 100 26 1
X_COORDINATES 100 double
0.050000 0.150000 0.250000 0.350000 0.450000 0.550000 0.650000 0.750000 0.850000 0.950000 1.050000 1.150000 1.250000 1.350000 1.450000 1.550000 1.650000 1.750000 1.850000 1.950000 2.050000 2.150000 2.250000 2.350000 2.450000 2.550000 2.650000 2.750000 2.850000 2.950000 3.050000 3.150000 3.250000 3.350000 3.450000 3.550000 3.650000 3.750000 3.850000 3.950000 4.050000 4.150000 4.250000 4.350000 4.450000 4.550000 4.650000 4.750000 4.850000 4.950000 5.050000 5.150000 5.250000 5.350000 5.450000 5.550000 5.650000 5.750000 5.850000 5.950000 6.050000 6.150000 6.250000 6.350000 6.450000 6.550000 6.650000 6.750000 6.850000 6.950000 7.050000 7.150000 7.250000 7.350000 7.450000 7.550000 7.650000 7.750000 7.850000 7.950000 8.050000 8.150000 8.250000 8.350000 8.450000 8.550000 8.650000 8.750000 8.850000 8.950000 9.050000 9.150000 9.250000 9.350000 9.450000 9.550000 9.650000 9.750000 9.850000 9.950000 
Y_COORDINATES 26 double
0.050000 0.150000 0.250000 0.350000 0.450000 0.550000 0.650000 0.750000 0.850000 0.950000 1.050000 1.150000 1.250000 1.350000 1.450000 1.550000 1.650000 1.750000 1.850000 1.950000 2.050000 2.150000 2.250000 2.350000 2.450000 2.550000 
Z_COORDINATES 1 double
0.0
POINT_DATA 2600
VECTORS Vektorfeld double
-0.979320 0.006777 0.0
-0.997906 0.011809 0.0
-1.025618 0.015902 0.0
-1.059619 0.018099 0.0
-1.096007 0.018290 0.0
-1.130967 0.016670 0.0
-1.161277 0.013639 0.0
-1.184545 0.009629 0.0
-1.199189 0.005015 0.0
-1.204291 0.000087 0.0
-1.199426 -0.004952 0.0
-1.184777 -0.009697 0.0
-1.161498 -0.013582 0.0
-1.131660 -0.016256 0.0
-1.097742 -0.017662 0.0
-1.062135 -0.017945 0.0
-1.026837 -0.017353 0.0
-0.993316 -0.016168 0.0
-0.962485 -0.014663 0.0
-0.934754 -0.013068 0.0
-0.910139 -0.011547 0.0
-0.888411 -0.010181 0.0
-0.869274 -0.008957 0.0
-0.852536 -0.007781 0.0
-0.838265 -0.006490 0.0
-0.826907 -0.004868 0.0
-0.819379 -0.002661 0.0
-0.817094 0.000376 0.0
-0.821711 0.004241 0.0
-0.834392 0.008440 0.0
-0.855365 0.012533 0.0
-0.884068 0.016170 0.0
-0.919340 0.019102 0.0
-0.959628 0.021186 0.0
-1.003172 0.022357 0.0
-1.048109 0.022580 0.0
-1.092513 0.021823 0.0
-1.134394 0.020058 0.0
-1.171731 0.017278 0.0
-1.202528 0.013519 0.0
-1.224925 0.008878 0.0
-1.237319 0.003516 0.0
-1.238476 -0.002360 0.0
-1.227597 -0.008519 0.0
-1.204741 -0.014337 0.0
-1.171425 -0.018980 0.0
-1.130505 -0.021940 0.0
-1.085469 -0.023097 0.0
-1.039760 -0.022612 0.0
-0.996366 -0.020781 0.0
-0.957663 -0.017922 0.0
-0.925413 -0.014327 0.0
-0.900841 -0.010245 0.0
-0.884717 -0.005879 0.0
-0.877454 -0.001384 0.0
-0.879137 0.003067 0.0
-0.889301 0.007098 0.0
-0.906906 0.010507 0.0
-0.930721 0.013308 0.0
-0.959581 0.015552 0.0
-0.992408 0.017274 0.0
-1.028167 0.018485 0.0
-1.065834 0.019182 0.0
-1.104376 0.019360 0.0
-1.142742 0.019007 0.0
-1.179868 0.018119 0.0
-1.214685 0.016699 0.0
-1.246154 0.014770 0.0
-1.273314 0.012389 0.0
-1.295357 0.009654 0.0
-1.311727 0.006716 0.0
-1.322223 0.003780 0.0
-1.327097 0.001093 0.0
-1.327093 -0.001097 0.0
-1.323387 -0.002610 0.0
-1.317415 -0.003361 0.0
-1.310667 -0.003387 0.0
-1.304405 -0.002875 0.0
-1.299433 -0.002096 0.0
-1.296010 -0.001327 0.0
-1.293888 -0.000794 0.0
-1.292440 -0.000654 0.0
-1.290793 -0.000994 0.0
-1.287956 -0.001843 0.0
-1.282935 -0.003179 0.0
-1.274824 -0.004932 0.0
-1.262907 -0.006985 0.0
-1.246752 -0.009170 0.0
-1.226309 -0.011273 0.0
-1.201990 -0.013046 0.0
-1.174697 -0.014247 0.0
-1.145755 -0.014696 0.0
-1.116715 -0.014344 0.0
-1.089091 -0.013279 0.0
-1.064146 -0.011666 0.0
-1.042792 -0.009688 0.0
-1.025602 -0.007502 0.0
-1.012867 -0.005232 0.0
-1.004662 -0.002973 0.0
-1.000845 -0.000845 0.0
-1.119512 0.019493 0.0
-1.134142 0.032310 0.0
-1.153131 0.042102 0.0
-1.174465 0.047234 0.0
-1.196117 0.047195 0.0
-1.215692 0.042301 0.0
-1.230794 0.033420 0.0
-1.239273 0.021594 0.0
-1.239378 0.007801 0.0
-1.229874 -0.007100 0.0
-1.210730 -0.021773 0.0
-1.183660 -0.034596 0.0
-1.151268 -0.044354 0.0
-1.116087 -0.050503 0.0
-1.080322 -0.053098 0.0
-1.045832 -0.052606 0.0
-1.014105 -0.049716 0.0
-0.986219 -0.045212 0.0
-0.962792 -0.039877 0.0
-0.943978 -0.034398 0.0
-0.929536 -0.029273 0.0
-0.918983 -0.024736 0.0
-0.911793 -0.020729 0.0
-0.907597 -0.016942 0.0
-0.906301 -0.012896 0.0
-0.908109 -0.008012 0.0
-0.913454 -0.001700 0.0
-0.922764 0.006441 0.0
-0.936268 0.016297 0.0
-0.954347 0.027144 0.0
-0.977569 0.038024 0.0
-1.006144 0.047957 0.0
-1.039690 0.056132 0.0
-1.077254 0.062009 0.0
-1.117455 0.065280 0.0
-1.158616 0.065757 0.0
-1.198862 0.063296 0.0
-1.236175 0.057779 0.0
-1.268434 0.049153 0.0
-1.293483 0.037490 0.0
-1.309219 0.023040 0.0
-1.313732 0.006261 0.0
-1.305493 -0.012187 0.0
-1.284163 -0.030901 0.0
-1.251462 -0.047512 0.0
-1.210684 -0.059900 0.0
-1.165611 -0.067012 0.0
-1.119819 -0.068853 0.0
-1.076280 -0.066104 0.0
-1.037262 -0.059701 0.0
-1.004410 -0.050558 0.0
-0.978860 -0.039491 0.0
-0.961272 -0.027242 0.0
-0.951779 -0.014499 0.0
-0.949972 -0.001833 0.0
-0.955092 0.010317 0.0
-0.966494 0.021415 0.0
-0.983815 0.031116 0.0
-1.006619 0.039316 0.0
-1.034214 0.046000 0.0
-1.065732 0.051172 0.0
-1.100214 0.054828 0.0
-1.136660 0.056951 0.0
-1.174040 0.057513 0.0
-1.211301 0.056481 0.0
-1.247362 0.053831 0.0
-1.281124 0.049565 0.0
-1.311495 0.043744 0.0
-1.337440 0.036520 0.0
-1.358052 0.028179 0.0
-1.372665 0.019173 0.0
-1.380975 0.010130 0.0
-1.383170 0.001813 0.0
-1.380024 -0.004966 0.0
-1.372912 -0.009560 0.0
-1.363618 -0.011677 0.0
-1.353937 -0.011501 0.0
-1.345287 -0.009674 0.0
-1.338480 -0.007076 0.0
-1.333681 -0.004571 0.0
-1.330506 -0.002847 0.0
-1.328193 -0.002362 0.0
-1.325760 -0.003366 0.0
-1.322132 -0.005935 0.0
-1.316241 -0.010000 0.0
-1.307109 -0.015355 0.0
-1.293934 -0.021653 0.0
-1.276193 -0.028397 0.0
-1.253750 -0.034932 0.0
-1.226974 -0.040483 0.0
-1.196816 -0.044261 0.0
-1.164767 -0.045673 0.0
-1.132620 -0.044554 0.0
-1.102084 -0.041229 0.0
-1.074499 -0.036247 0.0
-1.050768 -0.030192 0.0
-1.031407 -0.023549 0.0
-1.016662 -0.016666 0.0
-1.006626 -0.009779 0.0
-1.001396 -0.003086 0.0
-1.179760 0.030316 0.0
-1.190698 0.047054 0.0
-1.202558 0.058207 0.0
-1.213318 0.063223 0.0
-1.221694 0.061234 0.0
-1.226295 0.052437 0.0
-1.225683 0.037774 0.0
-1.218518 0.018553 0.0
-1.203732 -0.003838 0.0
-1.181296 -0.027403 0.0
-1.152696 -0.049214 0.0
-1.119967 -0.066954 0.0
-1.084952 -0.079404 0.0
-1.049361 -0.086225 0.0
-1.014796 -0.087705 0.0
-0.982737 -0.084548 0.0
-0.954504 -0.077734 0.0
-0.931171 -0.068413 0.0
-0.913466 -0.057809 0.0
-0.901654 -0.047092 0.0
-0.895492 -0.037183 0.0
-0.894311 -0.028562 0.0
-0.897248 -0.021157 0.0
-0.903542 -0.014415 0.0
-0.912755 -0.007507 0.0
-0.924831 0.000482 0.0
-0.939939 0.010259 0.0
-0.958240 0.022093 0.0
-0.979866 0.035775 0.0
-1.004857 0.050736 0.0
-1.033105 0.065903 0.0
-1.064421 0.079970 0.0
-1.098463 0.091707 0.0
-1.134618 0.100153 0.0
-1.171913 0.104631 0.0
-1.209004 0.104658 0.0
-1.244211 0.099848 0.0
-1.275566 0.089894 0.0
-1.300882 0.074614 0.0
-1.317844 0.054041 0.0
-1.324142 0.028523 0.0
-1.317652 -0.001199 0.0
-1.297128 -0.033490 0.0
-1.263899 -0.064157 0.0
-1.221903 -0.088954 0.0
-1.175782 -0.105356 0.0
-1.129664 -0.112747 0.0
-1.086602 -0.111972 0.0
-1.048512 -0.104614 0.0
-1.016392 -0.092328 0.0
-0.990706 -0.076468 0.0
-0.971768 -0.058069 0.0
-0.959931 -0.038089 0.0
-0.955489 -0.017588 0.0
-0.958423 0.002384 0.0
-0.968256 0.021053 0.0
-0.984178 0.038004 0.0
-1.005340 0.053010 0.0
-1.031017 0.065902 0.0
-1.060564 0.076558 0.0
-1.093323 0.084891 0.0
-1.128564 0.090831 0.0
-1.165477 0.094307 0.0
-1.203182 0.095243 0.0
-1.240728 0.093558 0.0
-1.277095 0.089182 0.0
-1.311199 0.082080 0.0
-1.341907 0.072308 0.0
-1.368079 0.060072 0.0
-1.388647 0.045807 0.0
-1.402741 0.030251 0.0
-1.409858 0.014479 0.0
-1.410061 -0.000139 0.0
-1.404131 -0.012090 0.0
-1.393653 -0.020026 0.0
-1.380888 -0.023270 0.0
-1.368252 -0.022225 0.0
-1.357637 -0.018214 0.0
-1.350018 -0.012960 0.0
-1.345443 -0.008062 0.0
-1.343268 -0.004706 0.0
-1.342447 -0.003636 0.0
-1.341748 -0.005224 0.0
-1.339883 -0.009570 0.0
-1.335592 -0.016547 0.0
-1.327705 -0.025826 0.0
-1.315212 -0.036849 0.0
-1.297365 -0.048790 0.0
-1.273819 -0.060527 0.0
-1.244831 -0.070651 0.0
-1.211464 -0.077618 0.0
-1.175655 -0.080173 0.0
-1.139873 -0.077982 0.0
-1.106351 -0.071859 0.0
-1.076619 -0.062935 0.0
-1.051532 -0.052322 0.0
-1.031440 -0.040871 0.0
-1.016400 -0.029130 0.0
-1.006357 -0.017393 0.0
-1.001288 -0.005770 0.0
-1.199133 0.038702 0.0
-1.205911 0.056384 0.0
-1.211203 0.066028 0.0
-1.213463 0.068421 0.0
-1.211770 0.062720 0.0
-1.205332 0.049115 0.0
-1.193424 0.028576 0.0
-1.175381 0.002542 0.0
-1.151123 -0.026870 0.0
-1.121896 -0.056034 0.0
-1.089441 -0.081637 0.0
-1.055133 -0.101568 0.0
-1.020213 -0.114725 0.0
-0.985872 -0.120836 0.0
-0.953292 -0.120240 0.0
-0.923648 -0.113715 0.0
-0.898099 -0.102350 0.0
-0.877743 -0.087485 0.0
-0.863528 -0.070657 0.0
-0.856092 -0.053492 0.0
-0.855563 -0.037473 0.0
-0.861428 -0.023588 0.0
-0.872619 -0.012004 0.0
-0.887836 -0.002056 0.0
-0.905988 0.007499 0.0
-0.926448 0.018013 0.0
-0.949032 0.030422 0.0
-0.973839 0.045038 0.0
-1.000984 0.061601 0.0
-1.030407 0.079323 0.0
-1.061860 0.097017 0.0
-1.094979 0.113290 0.0
-1.129294 0.126743 0.0
-1.164144 0.136122 0.0
-1.198569 0.140383 0.0
-1.231224 0.138653 0.0
-1.260357 0.130192 0.0
-1.283849 0.114397 0.0
-1.299305 0.090883 0.0
-1.304193 0.059621 0.0
-1.296050 0.021098 0.0
-1.272906 -0.023407 0.0
-1.235860 -0.068852 0.0
-1.189772 -0.108112 0.0
-1.140315 -0.136452 0.0
-1.092300 -0.151993 0.0
-1.049269 -0.155259 0.0
-1.013430 -0.148362 0.0
-0.985674 -0.134071 0.0
-0.965718 -0.114947 0.0
-0.952519 -0.092734 0.0
-0.944963 -0.068298 0.0
-0.942489 -0.042172 0.0
-0.945209 -0.015226 0.0
-0.953518 0.011266 0.0
-0.967602 0.036087 0.0
-0.987217 0.058506 0.0
-1.011784 0.078237 0.0
-1.040610 0.095178 0.0
-1.073031 0.109250 0.0
-1.108417 0.120344 0.0
-1.146127 0.128329 0.0
-1.185468 0.133063 0.0
-1.225662 0.134386 0.0
-1.265830 0.132130 0.0
-1.304977 0.126124 0.0
-1.341970 0.116235 0.0
-1.375541 0.102433 0.0
-1.404309 0.084888 0.0
-1.426853 0.064103 0.0
-1.441865 0.041060 0.0
-1.448397 0.017319 0.0
-1.446170 -0.005003 0.0
-1.435921 -0.023404 0.0
-1.419860 -0.035252 0.0
-1.401489 -0.039179 0.0
-1.384449 -0.035993 0.0
-1.371340 -0.028170 0.0
-1.363219 -0.018745 0.0
-1.359764 -0.010308 0.0
-1.359807 -0.004591 0.0
-1.361830 -0.002549 0.0
-1.364237 -0.004603 0.0
-1.365464 -0.010828 0.0
-1.364009 -0.021034 0.0
-1.358446 -0.034790 0.0
-1.347456 -0.051368 0.0
-1.329918 -0.069656 0.0
-1.305072 -0.088053 0.0
-1.272829 -0.104357 0.0
-1.234274 -0.115835 0.0
-1.192130 -0.119910 0.0
-1.150335 -0.115823 0.0
-1.112164 -0.105710 0.0
-1.079320 -0.091660 0.0
-1.052452 -0.075552 0.0
-1.031528 -0.058657 0.0
-1.016231 -0.041681 0.0
-1.006216 -0.024900 0.0
-1.001245 -0.008303 0.0
-1.193205 0.044293 0.0
-1.196145 0.060511 0.0
-1.195988 0.067037 0.0
-1.191751 0.065435 0.0
-1.182824 0.055086 0.0
-1.168811 0.036299 0.0
-1.149429 0.010101 0.0
-1.124658 -0.021798 0.0
-1.095607 -0.055839 0.0
-1.063931 -0.087969 0.0
-1.030805 -0.115282 0.0
-0.997209 -0.135827 0.0
-0.964027 -0.148568 0.0
-0.932111 -0.153249 0.0
-0.902314 -0.150204 0.0
-0.875512 -0.140197 0.0
-0.852622 -0.124308 0.0
-0.834608 -0.103898 0.0
-0.822456 -0.080613 0.0
-0.817068 -0.056359 0.0
-0.819056 -0.033146 0.0
-0.828450 -0.012656 0.0
-0.844548 0.004353 0.0
-0.866071 0.018327 0.0
-0.891459 0.030656 0.0
-0.919249 0.043106 0.0
-0.948477 0.057140 0.0
-0.978760 0.073409 0.0
-1.010044 0.091658 0.0
-1.042278 0.110921 0.0
-1.075233 0.129828 0.0
-1.108472 0.146838 0.0
-1.141350 0.160388 0.0
-1.172994 0.168971 0.0
-1.202223 0.171190 0.0
-1.227501 0.165778 0.0
-1.246923 0.151621 0.0
-1.258286 0.127823 0.0
-1.259218 0.093846 0.0
-1.247390 0.049718 0.0
-1.220816 -0.003715 0.0
-1.180050 -0.062504 0.0
-1.129916 -0.116935 0.0
-1.076523 -0.159512 0.0
-1.024669 -0.186363 0.0
-0.978073 -0.196692 0.0
-0.939586 -0.192077 0.0
-0.911260 -0.175709 0.0
-0.894134 -0.151605 0.0
-0.887814 -0.123689 0.0
-0.890294 -0.094711 0.0
-0.898625 -0.065545 0.0
-0.910299 -0.035725 0.0
-0.924214 -0.005038 0.0
-0.940583 0.025756 0.0
-0.960292 0.055390 0.0
-0.984127 0.082652 0.0
-1.012301 0.106831 0.0
-1.044538 0.127647 0.0
-1.080323 0.144986 0.0
-1.119067 0.158738 0.0
-1.160157 0.168737 0.0
-1.202934 0.174773 0.0
-1.246656 0.176591 0.0
-1.290458 0.173896 0.0
-1.333319 0.166366 0.0
-1.374022 0.153689 0.0
-1.411117 0.135646 0.0
-1.442911 0.112237 0.0
-1.467509 0.083895 0.0
-1.482973 0.051745 0.0
-1.487655 0.017849 0.0
-1.480694 -0.014721 0.0
-1.463013 -0.041615 0.0
-1.438430 -0.057686 0.0
-1.412682 -0.060863 0.0
-1.390990 -0.053042 0.0
-1.376509 -0.038710 0.0
-1.369917 -0.022918 0.0
-1.369988 -0.009520 0.0
-1.374640 -0.000683 0.0
-1.381714 0.002640 0.0
-1.389240 0.000140 0.0
-1.395423 -0.008161 0.0
-1.398569 -0.022010 0.0
-1.397013 -0.040933 0.0
-1.389087 -0.064141 0.0
-1.373144 -0.090364 0.0
-1.347681 -0.117655 0.0
-1.311684 -0.142995 0.0
-1.265661 -0.161775 0.0
-1.213410 -0.168365 0.0
-1.162250 -0.160323 0.0
-1.117620 -0.144010 0.0
-1.080962 -0.122862 0.0
-1.052307 -0.099873 0.0
-1.030854 -0.076713 0.0
-1.015659 -0.054116 0.0
-1.005938 -0.032202 0.0
-1.001181 -0.010729 0.0
-1.171719 0.047199 0.0
-1.171441 0.060267 0.0
-1.167074 0.062757 0.0
-1.158111 0.056515 0.0
-1.144223 0.041190 0.0
-1.125292 0.017251 0.0
-1.101348 -0.014177 0.0
-1.073364 -0.050276 0.0
-1.042965 -0.086811 0.0
-1.011348 -0.120289 0.0
-0.979415 -0.148022 0.0
-0.947914 -0.168185 0.0
-0.917499 -0.179807 0.0
-0.888775 -0.182649 0.0
-0.862343 -0.177034 0.0
-0.838826 -0.163685 0.0
-0.818913 -0.143623 0.0
-0.803372 -0.118137 0.0
-0.793066 -0.088832 0.0
-0.788913 -0.057680 0.0
-0.791776 -0.026974 0.0
-0.802253 0.001043 0.0
-0.820410 0.024910 0.0
-0.845402 0.044285 0.0
-0.875444 0.060126 0.0
-0.908422 0.074405 0.0
-0.942584 0.089231 0.0
-0.976870 0.105888 0.0
-1.010821 0.124415 0.0
-1.044230 0.143808 0.0
-1.076817 0.162484 0.0
-1.108060 0.178664 0.0
-1.137161 0.190542 0.0
-1.163048 0.196346 0.0
-1.184371 0.194368 0.0
-1.199511 0.183019 0.0
-1.206625 0.160917 0.0
-1.203756 0.127020 0.0
-1.189014 0.080840 0.0
-1.160863 0.022744 0.0
-1.119089 -0.045090 0.0
-1.067795 -0.113188 0.0
-1.013114 -0.171065 0.0
-0.959268 -0.212622 0.0
-0.909335 -0.235040 0.0
-0.865687 -0.238259 0.0
-0.830371 -0.224314 0.0
-0.805425 -0.196745 0.0
-0.792929 -0.160191 0.0
-0.794362 -0.119989 0.0
-0.809179 -0.081115 0.0
-0.833793 -0.046196 0.0
-0.862768 -0.014424 0.0
-0.891636 0.016443 0.0
-0.919056 0.048064 0.0
-0.946351 0.080086 0.0
-0.975473 0.110912 0.0
-1.007750 0.139023 0.0
-1.043593 0.163536 0.0
-1.082775 0.184064 0.0
-1.124774 0.200404 0.0
-1.168961 0.212348 0.0
-1.214643 0.219621 0.0
-1.261045 0.221866 0.0
-1.307270 0.218648 0.0
-1.352256 0.209461 0.0
-1.394713 0.193755 0.0
-1.433049 0.171012 0.0
-1.465283 0.140900 0.0
-1.489008 0.103554 0.0
-1.501487 0.060030 0.0
-1.500077 0.012836 0.0
-1.483150 -0.033597 0.0
-1.453410 -0.070160 0.0
-1.418565 -0.088569 0.0
-1.386936 -0.087357 0.0
-1.364430 -0.070745 0.0
-1.353706 -0.046211 0.0
-1.354080 -0.021635 0.0
-1.362570 -0.002242 0.0
-1.375777 0.009898 0.0
-1.391058 0.014415 0.0
-1.406390 0.011223 0.0
-1.419925 0.000474 0.0
-1.429950 -0.017474 0.0
-1.434803 -0.042173 0.0
-1.432634 -0.072996 0.0
-1.421308 -0.108776 0.0
-1.398286 -0.147728 0.0
-1.360501 -0.186704 0.0
-1.305707 -0.218883 0.0
-1.237729 -0.231485 0.0
-1.172026 -0.214066 0.0
-1.119321 -0.187603 0.0
-1.078926 -0.156322 0.0
-1.049348 -0.124647 0.0
-1.028383 -0.094358 0.0
-1.014150 -0.065900 0.0
-1.005307 -0.038983 0.0
-1.001050 -0.012961 0.0
-1.141518 0.047753 0.0
-1.138704 0.056621 0.0
-1.131268 0.054599 0.0
-1.119069 0.043512 0.0
-1.102012 0.023248 0.0
-1.080166 -0.005585 0.0
-1.054277 -0.041174 0.0
-1.025831 -0.079709 0.0
-0.996149 -0.117459 0.0
-0.966163 -0.151243 0.0
-0.936608 -0.178555 0.0
-0.908066 -0.197696 0.0
-0.881006 -0.207772 0.0
-0.855837 -0.208577 0.0
-0.832958 -0.200417 0.0
-0.812816 -0.183960 0.0
-0.795945 -0.160134 0.0
-0.782988 -0.130124 0.0
-0.774704 -0.095435 0.0
-0.771945 -0.057988 0.0
-0.775615 -0.020134 0.0
-0.786559 0.015624 0.0
-0.805213 0.047139 0.0
-0.831102 0.072937 0.0
-0.862726 0.093139 0.0
-0.897915 0.109559 0.0
-0.934452 0.124776 0.0
-0.970630 0.140805 0.0
-1.005416 0.158234 0.0
-1.038243 0.176225 0.0
-1.068650 0.193060 0.0
-1.096014 0.206695 0.0
-1.119457 0.215055 0.0
-1.137849 0.216113 0.0
-1.149859 0.207934 0.0
-1.154017 0.188751 0.0
-1.148818 0.157099 0.0
-1.132863 0.112014 0.0
-1.105089 0.053331 0.0
-1.065080 -0.017907 0.0
-1.015797 -0.095496 0.0
-0.962822 -0.167050 0.0
-0.910342 -0.224364 0.0
-0.860961 -0.262551 0.0
-0.816382 -0.279623 0.0
-0.777686 -0.276019 0.0
-0.745683 -0.253874 0.0
-0.721442 -0.216371 0.0
-0.706959 -0.167544 0.0
-0.705497 -0.112665 0.0
-0.720540 -0.058579 0.0
-0.752415 -0.012242 0.0
-0.795490 0.023672 0.0
-0.841231 0.052955 0.0
-0.883716 0.081457 0.0
-0.921875 0.112147 0.0
-0.958077 0.144175 0.0
-0.995073 0.175032 0.0
-1.034349 0.202646 0.0
-1.076142 0.225928 0.0
-1.120001 0.244399 0.0
-1.165210 0.257750 0.0
-1.210945 0.265635 0.0
-1.256295 0.267603 0.0
-1.300248 0.263089 0.0
-1.341652 0.251411 0.0
-1.379163 0.231772 0.0
-1.411132 0.203298 0.0
-1.435443 0.165159 0.0
-1.449307 0.116884 0.0
-1.449157 0.059029 0.0
-1.430958 -0.005773 0.0
-1.394661 -0.068213 0.0
-1.349747 -0.110197 0.0
-1.309119 -0.124004 0.0
-1.281002 -0.111669 0.0
-1.269061 -0.080880 0.0
-1.273317 -0.042545 0.0
-1.289878 -0.008366 0.0
-1.312828 0.015929 0.0
-1.338579 0.030684 0.0
-1.365516 0.035847 0.0
-1.391752 0.031358 0.0
-1.415369 0.017492 0.0
-1.434651 -0.005183 0.0
-1.448363 -0.035899 0.0
-1.455352 -0.074450 0.0
-1.453817 -0.120183 0.0
-1.440742 -0.172419 0.0
-1.410019 -0.230520 0.0
-1.351382 -0.288497 0.0
-1.260975 -0.320255 0.0
-1.172569 -0.279405 0.0
-1.111483 -0.236055 0.0
-1.069305 -0.190443 0.0
-1.041249 -0.148159 0.0
-1.022872 -0.110187 0.0
-1.011124 -0.076052 0.0
-1.004114 -0.044683 0.0
-1.000810 -0.014822 0.0
-1.107551 0.046383 0.0
-1.102868 0.050493 0.0
-1.093380 0.043804 0.0
-1.079216 0.027945 0.0
-1.060464 0.003006 0.0
-1.037611 -0.030042 0.0
-1.011902 -0.068314 0.0
-0.984727 -0.108189 0.0
-0.957075 -0.146312 0.0
-0.929739 -0.179712 0.0
-0.903316 -0.206063 0.0
-0.878234 -0.223812 0.0
-0.854789 -0.232161 0.0
-0.833213 -0.230934 0.0
-0.813749 -0.220403 0.0
-0.796726 -0.201138 0.0
-0.782615 -0.173939 0.0
-0.772025 -0.139864 0.0
-0.765684 -0.100319 0.0
-0.764389 -0.057159 0.0
-0.768961 -0.012722 0.0
-0.780178 0.030373 0.0
-0.798494 0.069361 0.0
-0.823696 0.101807 0.0
-0.854699 0.126895 0.0
-0.889588 0.145882 0.0
-0.926048 0.161450 0.0
-0.961945 0.176206 0.0
-0.995719 0.191393 0.0
-1.026367 0.206542 0.0
-1.053178 0.219959 0.0
-1.075437 0.229419 0.0
-1.092276 0.232613 0.0
-1.102659 0.227329 0.0
-1.105450 0.211518 0.0
-1.099518 0.183394 0.0
-1.083871 0.141609 0.0
-1.057824 0.085502 0.0
-1.021240 0.015485 0.0
-0.975699 -0.065611 0.0
-0.925882 -0.146891 0.0
-0.876512 -0.218001 0.0
-0.830092 -0.272313 0.0
-0.788163 -0.305912 0.0
-0.751399 -0.317604 0.0
-0.719752 -0.308380 0.0
-0.692786 -0.280482 0.0
-0.670237 -0.236554 0.0
-0.652674 -0.179407 0.0
-0.642246 -0.112692 0.0
-0.643350 -0.042405 0.0
-0.662030 0.022139 0.0
-0.701921 0.072258 0.0
-0.758569 0.106760 0.0
-0.820341 0.131910 0.0
-0.876930 0.156443 0.0
-0.925541 0.184693 0.0
-0.969197 0.215166 0.0
-1.011558 0.244150 0.0
-1.054250 0.268909 0.0
-1.097162 0.288189 0.0
-1.139431 0.301438 0.0
-1.179955 0.308207 0.0
-1.217527 0.307952 0.0
-1.250841 0.300006 0.0
-1.278506 0.283563 0.0
-1.299025 0.257650 0.0
-1.310727 0.221091 0.0
-1.311552 0.172502 0.0
-1.298604 0.110456 0.0
-1.267553 0.034255 0.0
-1.214353 -0.052398 0.0
-1.148923 -0.123316 0.0
-1.090852 -0.158079 0.0
-1.053016 -0.154588 0.0
-1.041782 -0.120437 0.0
-1.056622 -0.069212 0.0
-1.089719 -0.016860 0.0
-1.129643 0.022433 0.0
-1.171291 0.049727 0.0
-1.214498 0.065844 0.0
-1.257174 0.070299 0.0
-1.297321 0.063289 0.0
-1.333369 0.045226 0.0
-1.363797 0.016792 0.0
-1.387387 -0.020573 0.0
-1.405163 -0.065012 0.0
-1.418699 -0.117620 0.0
-1.427466 -0.179290 0.0
-1.424753 -0.257087 0.0
-1.385562 -0.359759 0.0
-1.272018 -0.452945 0.0
-1.150764 -0.356376 0.0
-1.085276 -0.285658 0.0
-1.047150 -0.221144 0.0
-1.025514 -0.167150 0.0
-1.013166 -0.121922 0.0
-1.006102 -0.083129 0.0
-1.002201 -0.048516 0.0
-1.000431 -0.016063 0.0
-1.073341 0.043545 0.0
-1.067413 0.042720 0.0
-1.056775 0.031452 0.0
-1.041750 0.011107 0.0
-1.022642 -0.018016 0.0
-1.000408 -0.054107 0.0
-0.976351 -0.094014 0.0
-0.951514 -0.134502 0.0
-0.926757 -0.172409 0.0
-0.902740 -0.204968 0.0
-0.879918 -0.230052 0.0
-0.858547 -0.246275 0.0
-0.838747 -0.252943 0.0
-0.820582 -0.249893 0.0
-0.804179 -0.237312 0.0
-0.789819 -0.215612 0.0
-0.777978 -0.185418 0.0
-0.769308 -0.147645 0.0
-0.764561 -0.103626 0.0
-0.764501 -0.055208 0.0
-0.769833 -0.004769 0.0
-0.781133 0.044938 0.0
-0.798704 0.090684 0.0
-0.822403 0.129385 0.0
-0.851445 0.159362 0.0
-0.884266 0.181126 0.0
-0.918706 0.197105 0.0
-0.952486 0.210229 0.0
-0.983686 0.222344 0.0
-1.010929 0.233483 0.0
-1.033262 0.242162 0.0
-1.049904 0.246118 0.0
-1.060070 0.242919 0.0
-1.062924 0.230259 0.0
-1.057639 0.206093 0.0
-1.043516 0.168764 0.0
-1.020135 0.117210 0.0
-0.987560 0.051279 0.0
-0.946647 -0.027789 0.0
-0.901024 -0.113502 0.0
-0.855430 -0.194410 0.0
-0.812740 -0.262542 0.0
-0.774674 -0.312257 0.0
-0.741966 -0.340606 0.0
-0.714322 -0.347319 0.0
-0.690631 -0.334004 0.0
-0.669511 -0.302944 0.0
-0.649959 -0.256194 0.0
-0.631848 -0.195440 0.0
-0.616305 -0.122631 0.0
-0.606319 -0.041348 0.0
-0.607715 0.041157 0.0
-0.628053 0.113469 0.0
-0.671619 0.165763 0.0
-0.734085 0.197143 0.0
-0.803389 0.217103 0.0
-0.867840 0.237094 0.0
-0.922929 0.261509 0.0
-0.970352 0.287591 0.0
-1.013011 0.310819 0.0
-1.052123 0.328302 0.0
-1.087268 0.338738 0.0
-1.117243 0.341406 0.0
-1.140549 0.335631 0.0
-1.155568 0.320661 0.0
-1.160635 0.295640 0.0
-1.154093 0.259551 0.0
-1.134265 0.211064 0.0
-1.099151 0.148240 0.0
-1.045458 0.068077 0.0
-0.966965 -0.032910 0.0
-0.871241 -0.134156 0.0
-0.777989 -0.200239 0.0
-0.699109 -0.218106 0.0
-0.643064 -0.188442 0.0
-0.620975 -0.119906 0.0
-0.641278 -0.034600 0.0
-0.695884 0.036232 0.0
-0.769262 0.082642 0.0
-0.848355 0.110260 0.0
-0.921955 0.122119 0.0
-0.986061 0.120807 0.0
-1.041159 0.108028 0.0
-1.088542 0.083917 0.0
-1.128587 0.048575 0.0
-1.161203 0.003851 0.0
-1.187166 -0.045697 0.0
-1.214508 -0.096057 0.0
-1.254458 -0.152135 0.0
-1.310496 -0.230917 0.0
-1.346436 -0.389180 0.0
-1.236357 -0.647147 0.0
-1.083832 -0.435953 0.0
-1.029624 -0.325777 0.0
-1.008095 -0.240681 0.0
-1.000686 -0.176659 0.0
-0.998882 -0.126565 0.0
-0.999024 -0.085407 0.0
-0.999569 -0.049594 0.0
-0.999915 -0.016408 0.0
-1.041271 0.039683 0.0
-1.034664 0.034046 0.0
-1.023664 0.018487 0.0
-1.008719 -0.005899 0.0
-0.990498 -0.038338 0.0
-0.970086 -0.076432 0.0
-0.948540 -0.117291 0.0
-0.926763 -0.157839 0.0
-0.905490 -0.195103 0.0
-0.885242 -0.226539 0.0
-0.866301 -0.250246 0.0
-0.848730 -0.265023 0.0
-0.832457 -0.270269 0.0
-0.817405 -0.265784 0.0
-0.803633 -0.251595 0.0
-0.791434 -0.227888 0.0
-0.781350 -0.195066 0.0
-0.774113 -0.153905 0.0
-0.770522 -0.105704 0.0
-0.771324 -0.052387 0.0
-0.777104 0.003521 0.0
-0.788221 0.059064 0.0
-0.804758 0.110665 0.0
-0.826494 0.154838 0.0
-0.852790 0.189248 0.0
-0.882395 0.213667 0.0
-0.913438 0.230047 0.0
-0.943727 0.241355 0.0
-0.971197 0.249888 0.0
-0.994233 0.256218 0.0
-1.011698 0.259225 0.0
-1.022782 0.256782 0.0
-1.026827 0.246466 0.0
-1.023250 0.225989 0.0
-1.011586 0.193415 0.0
-0.991598 0.147333 0.0
-0.963442 0.087103 0.0
-0.927893 0.013263 0.0
-0.887228 -0.071350 0.0
-0.845595 -0.157198 0.0
-0.806699 -0.235205 0.0
-0.772603 -0.298533 0.0
-0.744365 -0.342570 0.0
-0.721799 -0.365566 0.0
-0.703493 -0.368309 0.0
-0.687331 -0.352867 0.0
-0.671331 -0.321200 0.0
-0.654331 -0.274490 0.0
-0.636273 -0.213312 0.0
-0.618230 -0.138346 0.0
-0.602481 -0.051367 0.0
-0.593007 0.043098 0.0
-0.595978 0.134837 0.0
-0.618528 0.210511 0.0
-0.664172 0.260505 0.0
-0.727710 0.286585 0.0
-0.796705 0.301057 0.0
-0.859676 0.315607 0.0
-0.911921 0.333162 0.0
-0.954085 0.350072 0.0
-0.987827 0.361904 0.0
-1.013529 0.365983 0.0
-1.030336 0.360943 0.0
-1.036803 0.345868 0.0
-1.031299 0.319939 0.0
-1.012217 0.282346 0.0
-0.978095 0.232182 0.0
-0.927569 0.168079 0.0
-0.858602 0.087143 0.0
-0.765625 -0.017497 0.0
-0.653699 -0.137755 0.0
-0.541414 -0.237321 0.0
-0.439347 -0.292393 0.0
-0.348866 -0.295314 0.0
-0.269277 -0.246867 0.0
-0.201130 -0.151715 0.0
-0.149922 -0.033697 0.0
-0.132345 0.072359 0.0
-0.160998 0.148545 0.0
-0.228179 0.190630 0.0
-0.315562 0.202731 0.0
-0.404301 0.193040 0.0
-0.483199 0.169791 0.0
-0.548746 0.135083 0.0
-0.599792 0.088500 0.0
-0.636614 0.033363 0.0
-0.661930 -0.023930 0.0
-0.689854 -0.062558 0.0
-0.747998 -0.087540 0.0
-0.877176 -0.110296 0.0
-1.052396 -0.298642 0.0
-1.042187 -0.857972 0.0
-0.938006 -0.481835 0.0
-0.937273 -0.334835 0.0
-0.952564 -0.237861 0.0
-0.968481 -0.170972 0.0
-0.981352 -0.121185 0.0
-0.990615 -0.081382 0.0
-0.996494 -0.047196 0.0
-0.999316 -0.015639 0.0
-1.012778 0.035210 0.0
-1.005986 0.025120 0.0
-0.995298 0.005725 0.0
-0.981322 -0.022056 0.0
-0.964885 -0.056839 0.0
-0.946998 -0.096232 0.0
-0.928565 -0.137471 0.0
-0.910376 -0.177625 0.0
-0.893030 -0.213934 0.0
-0.876878 -0.244108 0.0
-0.861990 -0.266505 0.0
-0.848214 -0.280111 0.0
-0.835295 -0.284373 0.0
-0.823053 -0.278973 0.0
-0.811539 -0.263691 0.0
-0.801111 -0.238420 0.0
-0.792406 -0.203324 0.0
-0.786234 -0.159057 0.0
-0.783432 -0.106943 0.0
-0.784720 -0.049058 0.0
-0.790576 0.011829 0.0
-0.801158 0.072456 0.0
-0.816324 0.128976 0.0
-0.835716 0.177655 0.0
-0.858730 0.215742 0.0
-0.884361 0.242409 0.0
-0.911073 0.259060 0.0
-0.936917 0.268475 0.0
-0.959883 0.273205 0.0
-0.978266 0.274319 0.0
-0.990835 0.271158 0.0
-0.996786 0.261884 0.0
-0.995603 0.244226 0.0
-0.986974 0.216024 0.0
-0.970799 0.175542 0.0
-0.947292 0.121711 0.0
-0.917159 0.054436 0.0
-0.881863 -0.024914 0.0
-0.844734 -0.110968 0.0
-0.809681 -0.194267 0.0
-0.779311 -0.267401 0.0
-0.755226 -0.324518 0.0
-0.737675 -0.362374 0.0
-0.725293 -0.380710 0.0
-0.715490 -0.381274 0.0
-0.705437 -0.366117 0.0
-0.693031 -0.336356 0.0
-0.677368 -0.291998 0.0
-0.658718 -0.232512 0.0
-0.638295 -0.157614 0.0
-0.618094 -0.068049 0.0
-0.601037 0.033249 0.0
-0.591632 0.138253 0.0
-0.596090 0.234102 0.0
-0.620586 0.307054 0.0
-0.666627 0.349616 0.0
-0.727044 0.367436 0.0
-0.789192 0.374345 0.0
-0.842747 0.380224 0.0
-0.883597 0.386024 0.0
-0.911757 0.387853 0.0
-0.927900 0.381878 0.0
-0.931817 0.365773 0.0
-0.922521 0.338209 0.0
-0.898717 0.298290 0.0
-0.859127 0.245323 0.0
-0.802607 0.178563 0.0
-0.727688 0.096253 0.0
-0.629902 -0.007784 0.0
-0.512140 -0.133309 0.0
-0.391923 -0.254085 0.0
-0.282388 -0.342810 0.0
-0.186202 -0.385156 0.0
-0.103105 -0.376129 0.0
-0.030777 -0.317970 0.0
0.031744 -0.211279 0.0
0.082202 -0.075798 0.0
0.114201 0.064885 0.0
0.120103 0.178770 0.0
0.097545 0.250144 0.0
0.050915 0.277231 0.0
-0.009835 0.268028 0.0
-0.069817 0.233684 0.0
-0.112443 0.179363 0.0
-0.121340 0.104162 0.0
-0.073103 0.006286 0.0
0.007282 -0.051921 0.0
0.056290 -0.055652 0.0
0.033527 -0.024335 0.0
0.482563 -0.106345 0.0
0.482563 -0.247309 0.0
-0.322985 -0.737775 0.0
-0.714559 -0.420702 0.0
-0.824816 -0.286443 0.0
-0.892607 -0.203171 0.0
-0.935816 -0.146535 0.0
-0.964143 -0.104423 0.0
-0.982495 -0.070529 0.0
-0.993545 -0.041121 0.0
-0.998742 -0.013696 0.0
-0.988544 0.030484 0.0
-0.981973 0.016482 0.0
-0.972140 -0.006158 0.0
-0.959781 -0.036509 0.0
-0.945734 -0.072871 0.0
-0.930878 -0.112942 0.0
-0.916027 -0.154045 0.0
-0.901853 -0.193415 0.0
-0.888796 -0.228546 0.0
-0.876993 -0.257452 0.0
-0.866274 -0.278768 0.0
-0.856260 -0.291638 0.0
-0.846550 -0.295475 0.0
-0.836921 -0.289741 0.0
-0.827471 -0.273885 0.0
-0.818650 -0.247474 0.0
-0.811179 -0.210446 0.0
-0.805912 -0.163374 0.0
-0.803678 -0.107661 0.0
-0.805139 -0.045592 0.0
-0.810673 0.019753 0.0
-0.820281 0.084722 0.0
-0.833630 0.145226 0.0
-0.850228 0.197394 0.0
-0.869477 0.238266 0.0
-0.890566 0.266604 0.0
-0.912295 0.283306 0.0
-0.933048 0.290826 0.0
-0.951014 0.291785 0.0
-0.964542 0.287649 0.0
-0.972394 0.278249 0.0
-0.973802 0.262152 0.0
-0.968394 0.237368 0.0
-0.956109 0.201968 0.0
-0.937187 0.154500 0.0
-0.912257 0.094316 0.0
-0.882529 0.021970 0.0
-0.850274 -0.060000 0.0
-0.819008 -0.144277 0.0
-0.792053 -0.222966 0.0
-0.771558 -0.289567 0.0
-0.758402 -0.339594 0.0
-0.751618 -0.371632 0.0
-0.748504 -0.386947 0.0
-0.745607 -0.387737 0.0
-0.739959 -0.375357 0.0
-0.729821 -0.349661 0.0
-0.714747 -0.309430 0.0
-0.695285 -0.253192 0.0
-0.672677 -0.179964 0.0
-0.648710 -0.089866 0.0
-0.625765 0.015064 0.0
-0.607332 0.128601 0.0
-0.598042 0.238922 0.0
-0.603427 0.332115 0.0
-0.628045 0.395213 0.0
-0.670729 0.424939 0.0
-0.722567 0.430828 0.0
-0.771582 0.426312 0.0
-0.809216 0.418419 0.0
-0.832189 0.406591 0.0
-0.840209 0.387303 0.0
-0.833450 0.357507 0.0
-0.811610 0.315339 0.0
-0.774001 0.259747 0.0
-0.719827 0.190102 0.0
-0.648093 0.105529 0.0
-0.555691 0.001966 0.0
-0.443560 -0.123413 0.0
-0.325871 -0.253130 0.0
-0.217297 -0.363056 0.0
-0.124083 -0.436588 0.0
-0.048038 -0.463610 0.0
0.013960 -0.442769 0.0
0.066008 -0.375708 0.0
0.114168 -0.264222 0.0
0.162557 -0.121702 0.0
0.205648 0.035698 0.0
0.230612 0.177089 0.0
0.230653 0.274342 0.0
0.209583 0.320734 0.0
0.175189 0.319668 0.0
0.138098 0.279118 0.0
0.109506 0.205147 0.0
0.098372 0.098410 0.0
0.092442 -0.030269 0.0
0.075110 -0.078418 0.0
0.031682 -0.035536 0.0
0.000000 -0.084754 0.0
-0.000000 -0.219633 0.0
0.000000 -0.146781 0.0
-0.230730 -0.284588 0.0
-0.576509 -0.237065 0.0
-0.753545 -0.182788 0.0
-0.852612 -0.139969 0.0
-0.913217 -0.105922 0.0
-0.951932 -0.077994 0.0
-0.976632 -0.053905 0.0
-0.991391 -0.031936 0.0
-0.998319 -0.010757 0.0
-0.968683 0.025802 0.0
-0.962651 0.008561 0.0
-0.954106 -0.016615 0.0
-0.943801 -0.048715 0.0
-0.932535 -0.085977 0.0
-0.921103 -0.126125 0.0
-0.910226 -0.166591 0.0
-0.900439 -0.204829 0.0
-0.891982 -0.238645 0.0
-0.884736 -0.266401 0.0
-0.878276 -0.287000 0.0
-0.872024 -0.299672 0.0
-0.865489 -0.303687 0.0
-0.858465 -0.298183 0.0
-0.851133 -0.282226 0.0
-0.844025 -0.255063 0.0
-0.837901 -0.216452 0.0
-0.833592 -0.166943 0.0