# vtk DataFile Version 3.0
Scalar Field
ASCII
DATASET RECTILINEAR_GRID
DIMENSIONS 100 26 1
X_COORDINATES 100 double
0.050000 0.150000 0.250000 0.350000 0.450000 0.550000 0.650000 0.750000 0.850000 0.950000 1.050000 1.150000 1.250000 1.350000 1.450000 1.550000 1.650000 1.750000 1.850000 1.950000 2.050000 2.150000 2.250000 2.350000 2.450000 2.550000 2.650000 2.750000 2.850000 2.950000 3.050000 3.150000 3.250000 3.350000 3.450000 3.550000 3.650000 3.750000 3.850000 3.950000 4.050000 4.150000 4.250000 4.350000 4.450000 4.550000 4.650000 4.750000 4.850000 4.950000 5.050000 5.150000 5.250000 5.350000 5.450000 5.550000 5.650000 5.750000 5.850000 5.950000 6.050000 6.150000 6.250000 6.350000 6.450000 6.550000 6.650000 6.750000 6.850000 6.950000 7.050000 7.150000 7.250000 7.350000 7.450000 7.550000 7.650000 7.750000 7.850000 7.950000 8.050000 8.150000 8.250000 8.350000 8.450000 8.550000 8.650000 8.750000 8.850000 8.950000 9.050000 9.150000 9.250000 9.350000 9.450000 9.550000 9.650000 9.750000 9.850000 9.950000 
Y_COORDINATES 26 double
0.050000 0.150000 0.250000 0.350000 0.450000 0.550000 0.650000 0.750000 0.850000 0.950000 1.050000 1.150000 1.250000 1.350000 1.450000 1.550000 1.650000 1.750000 1.850000 1.950000 2.050000 2.150000 2.250000 2.350000 2.450000 2.550000 
Z_COORDINATES 1 double
0.0
POINT_DATA 2600
SCALARS Skalarfeld double 1
LOOKUP_TABLE default
0.001381
0.001559
0.001864
0.002101
0.002305
0.002490
0.002663
0.002829
0.002989
0.003146
0.003300
0.003452
0.003603
0.003752
0.003901
0.004049
0.004196
0.004343
0.004490
0.004635
0.004781
0.004925
0.005069
0.005213
0.005355
0.005497
0.005637
0.005776
0.005914
0.006049
0.006183
0.006313
0.006441
0.006564
0.006684
0.006797
0.006904
0.007004
0.007094
0.007172
0.007238
0.007287
0.007316
0.007322
0.007299
0.007242
0.007144
0.006997
0.006790
0.006513
0.006151
0.005689
0.005108
0.004388
0.003506
0.002435
0.001147
-0.000389
-0.002208
-0.004347
-0.006846
-0.009751
-0.013113
-0.016993
-0.021488
-0.026691
-0.032716
-0.039700
-0.047790
-0.057144
-0.067906
-0.080195
-0.094078
-0.109552
-0.126515
-0.144736
-0.163827
-0.183194
-0.202016
-0.219229
-0.233570
-0.243669
-0.248198
-0.246034
-0.236422
-0.219147
-0.194662
-0.163766
-0.127769
-0.088417
-0.047756
-0.007894
0.029313
0.062503
0.090864
0.114049
0.132034
0.144987
0.153182
0.157044
0.001566
0.001733
0.001937
0.002137
0.002325
0.002502
0.002671
0.002834
0.002993
0.003148
0.003302
0.003453
0.003604
0.003753
0.003901
0.004049
0.004196
0.004343
0.004489
0.004635
0.004780
0.004925
0.005069
0.005212
0.005355
0.005496
0.005637
0.005776
0.005913
0.006049
0.006182
0.006313
0.006440
0.006564
0.006683
0.006797
0.006905
0.007004
0.007095
0.007175
0.007241
0.007291
0.007323
0.007331
0.007311
0.007258
0.007165
0.007024
0.006825
0.006557
0.006207
0.005759
0.005196
0.004498
0.003641
0.002602
0.001351
-0.000140
-0.001907
-0.003984
-0.006414
-0.009243
-0.012531
-0.016345
-0.020753
-0.025861
-0.031791
-0.038688
-0.046713
-0.056036
-0.066821
-0.079208
-0.093286
-0.109074
-0.126488
-0.145314
-0.165164
-0.185437
-0.205280
-0.223579
-0.238998
-0.250079
-0.255398
-0.253752
-0.244332
-0.226956
-0.202059
-0.170426
-0.133310
-0.092441
-0.049964
-0.008221
0.030663
0.065175
0.094459
0.118209
0.136472
0.149466
0.157425
0.160423
0.001706
0.001857
0.002017
0.002187
0.002356
0.002523
0.002685
0.002844
0.002999
0.003153
0.003305
0.003456
0.003605
0.003754
0.003902
0.004050
0.004197
0.004343
0.004489
0.004635
0.004780
0.004925
0.005069
0.005212
0.005355
0.005496
0.005637
0.005776
0.005913
0.006049
0.006183
0.006314
0.006442
0.006566
0.006686
0.006801
0.006909
0.007011
0.007103
0.007185
0.007254
0.007308
0.007344
0.007358
0.007345
0.007301
0.007218
0.007090
0.006907
0.006659
0.006333
0.005914
0.005386
0.004730
0.003925
0.002946
0.001766
0.000358
-0.001310
-0.003274
-0.005574
-0.008257
-0.011383
-0.015019
-0.019241
-0.024156
-0.029899
-0.036632
-0.044538
-0.053819
-0.064674
-0.077285
-0.091787
-0.108247
-0.126625
-0.146736
-0.168200
-0.190390
-0.212386
-0.232963
-0.250629
-0.263740
-0.270684
-0.270097
-0.261055
-0.243378
-0.217640
-0.184497
-0.145041
-0.100919
-0.054472
-0.008616
0.033825
0.071029
0.102099
0.126870
0.145598
0.158695
0.166530
0.169306
0.001808
0.001948
0.002086
0.002236
0.002391
0.002547
0.002702
0.002856
0.003008
0.003160
0.003310
0.003459
0.003608
0.003756
0.003904
0.004051
0.004197
0.004344
0.004490
0.004635
0.004780
0.004925
0.005069
0.005213
0.005355
0.005497
0.005638
0.005777
0.005915
0.006051
0.006185
0.006317
0.006446
0.006571
0.006693
0.006809
0.006920
0.007024
0.007119
0.007205
0.007279
0.007339
0.007382
0.007404
0.007402
0.007371
0.007305
0.007197
0.007038
0.006819
0.006528
0.006152
0.005675
0.005080
0.004346
0.003453
0.002374
0.001083
-0.000448
-0.002255
-0.004374
-0.006852
-0.009748
-0.013135
-0.017090
-0.021728
-0.027198
-0.033685
-0.041409
-0.050612
-0.061553
-0.074477
-0.089597
-0.107057
-0.126889
-0.148964
-0.172921
-0.198109
-0.223517
-0.247752
-0.269074
-0.285524
-0.295163
-0.296366
-0.288076
-0.270119
-0.243250
-0.207981
-0.165041
-0.115704
-0.062468
-0.009390
0.039064
0.080595
0.114334
0.140479
0.159730
0.172884
0.180596
0.183269
0.001884
0.002018
0.002144
0.002281
0.002425
0.002572
0.002721
0.002870
0.003019
0.003167
0.003316
0.003464
0.003611
0.003758
0.003905
0.004052
0.004198
0.004345
0.004491
0.004636
0.004781
0.004926
0.005070
0.005214
0.005357
0.005499
0.005640
0.005780
0.005918
0.006055
0.006190
0.006323
0.006453
0.006580
0.006704
0.006823
0.006936
0.007044
0.007143
0.007234
0.007315
0.007382
0.007435
0.007469
0.007481
0.007467
0.007422
0.007339
0.007211
0.007030
0.006784
0.006462
0.006049
0.005531
0.004889
0.004102
0.003149
0.002005
0.000643
-0.000966
-0.002859
-0.005080
-0.007685
-0.010760
-0.014377
-0.018658
-0.023770
-0.029924
-0.037382
-0.046449
-0.057457
-0.070749
-0.086649
-0.105417
-0.127199
-0.151961
-0.179399
-0.208858
-0.239231
-0.268909
-0.295781
-0.317378
-0.331188
-0.335145
-0.328083
-0.309961
-0.281813
-0.244186
-0.197022
-0.140392
-0.076353
-0.010971
0.047036
0.094931
0.132152
0.159751
0.179286
0.192207
0.199601
0.202125
0.001941
0.002071
0.002191
0.002320
0.002456
0.002596
0.002739
0.002884
0.003029
0.003175
0.003322
0.003468
0.003615
0.003761
0.003907
0.004054
0.004200
0.004346
0.004492
0.004637
0.004782
0.004927
0.005072
0.005216
0.005359
0.005501
0.005643
0.005784
0.005923
0.006061
0.006197
0.006332
0.006463
0.006593
0.006718
0.006840
0.006957
0.007069
0.007174
0.007272
0.007360
0.007437
0.007501
0.007549
0.007578
0.007585
0.007564
0.007512
0.007420
0.007282
0.007089
0.006831
0.006494
0.006066
0.005529
0.004867
0.004059
0.003085
0.001920
0.000538
-0.001093
-0.003013
-0.005278
-0.007972
-0.011190
-0.015040
-0.019705
-0.025428
-0.032522
-0.041363
-0.052387
-0.066066
-0.082873
-0.103238
-0.127477
-0.155711
-0.187759
-0.223016
-0.260316
-0.297797
-0.332833
-0.362130
-0.382158
-0.389994
-0.384404
-0.365906
-0.336278
-0.296973
-0.246453
-0.181467
-0.101083
-0.013906
0.059178
0.115942
0.157106
0.185656
0.204707
0.216725
0.223374
0.225600
0.001984
0.002113
0.002228
0.002351
0.002482
0.002617
0.002756
0.002897
0.003039
0.003183
0.003328
0.003473
0.003618
0.003764
0.003910
0.004055
0.004201
0.004347
0.004493
0.004639
0.004784
0.004929
0.005074
0.005218
0.005362
0.005505
0.005647
0.005789
0.005929
0.006068
0.006206
0.006342
0.006476
0.006607
0.006736
0.006861
0.006983
0.007099
0.007211
0.007315
0.007412
0.007500
0.007577
0.007641
0.007689
0.007719
0.007726
0.007707
0.007656
0.007567
0.007433
0.007244
0.006991
0.006661
0.006241
0.005716
0.005067
0.004277
0.003324
0.002188
0.000841
-0.000750
-0.002636
-0.004892
-0.007665
-0.011022
-0.015158
-0.020350
-0.026965
-0.035472
-0.046432
-0.060479
-0.078285
-0.100504
-0.127690
-0.160201
-0.198073
-0.240858
-0.287414
-0.335655
-0.382294
-0.422777
-0.451721
-0.464359
-0.459152
-0.437648
-0.405322
-0.366964
-0.318604
-0.249451
-0.147306
-0.018831
0.078679
0.146989
0.191470
0.219323
0.236303
0.246247
0.251458
0.253149
0.002016
0.002144
0.002256
0.002377
0.002503
0.002635
0.002770
0.002908
0.003048
0.003190
0.003333
0.003477
0.003621
0.003766
0.003912
0.004057
0.004203
0.004349
0.004495
0.004640
0.004786
0.004931
0.005076
0.005221
0.005365
0.005509
0.005652
0.005795
0.005936
0.006077
0.006216
0.006354
0.006490
0.006624
0.006756
0.006885
0.007011
0.007133
0.007251
0.007364
0.007471
0.007570
0.007661
0.007741
0.007810
0.007864
0.007901
0.007917
0.007909
0.007872
0.007799
0.007685
0.007519
0.007293
0.006995
0.006611
0.006126
0.005524
0.004788
0.003898
0.002835
0.001574
0.000075
-0.001724
-0.004006
-0.006841
-0.010399
-0.014981
-0.021018
-0.029085
-0.039894
-0.054272
-0.073130
-0.097391
-0.127911
-0.165363
-0.210100
-0.261955
-0.319961
-0.381924
-0.443872
-0.499536
-0.540402
-0.557620
-0.547559
-0.512898
-0.474245
-0.442972
-0.411532
-0.358227
-0.238934
-0.026532
0.112844
0.193773
0.238136
0.261671
0.273908
0.280082
0.282938
0.283790
0.002038
0.002166
0.002277
0.002395
0.002519
0.002648
0.002781
0.002917
0.003055
0.003196
0.003337
0.003480
0.003624
0.003769
0.003913
0.004059
0.004204
0.004350
0.004496
0.004642
0.004788
0.004933
0.005079
0.005224
0.005369
0.005514
0.005658
0.005801
0.005944
0.006086
0.006227
0.006367
0.006505
0.006643
0.006778
0.006911
0.007042
0.007170
0.007295
0.007416
0.007532
0.007644
0.007749
0.007847
0.007936
0.008015
0.008082
0.008135
0.008170
0.008185
0.008175
0.008134
0.008057
0.007934
0.007757
0.007513
0.007188
0.006766
0.006231
0.005565
0.004753
0.003777
0.002613
0.001216
-0.000516
-0.002894
-0.005909
-0.009881
-0.015309
-0.022883
-0.033484
-0.048153
-0.068054
-0.094393
-0.128334
-0.170881
-0.222730
-0.284059
-0.354184
-0.430988
-0.510007
-0.583140
-0.637482
-0.656439
-0.626122
-0.559160
-0.512392
-0.498307
-0.504598
-0.517298
-0.434710
-0.032532
0.178873
0.264735
0.299538
0.312449
0.316299
0.316737
0.316274
0.315985
0.002052
0.002181
0.002291
0.002408
0.002531
0.002658
0.002789
0.002924
0.003061
0.003200
0.003341
0.003483
0.003626
0.003770
0.003915
0.004060
0.004206
0.004352
0.004498
0.004644
0.004790
0.004936
0.005082
0.005228
0.005373
0.005519
0.005664
0.005808
0.005952
0.006096
0.006239
0.006381
0.006522
0.006662
0.006801
0.006938
0.007074
0.007208
0.007340
0.007470
0.007596
0.007719
0.007839
0.007953
0.008063
0.008167
0.008263
0.008351
0.008428
0.008493
0.008543
0.008574
0.008580
0.008556
0.008493
0.008378
0.008198
0.007933
0.007564
0.007069
0.006428
0.005627
0.004656
0.003499
0.002120
0.000179
-0.002496
-0.006015
-0.010939
-0.018071
-0.028454
-0.043335
-0.064103
-0.092194
-0.128997
-0.175729
-0.233298
-0.302086
-0.381588
-0.469772
-0.561930
-0.648632
-0.712566
-0.726923
-0.650604
-0.560167
-0.512307
-0.516724
-0.554010
-0.696747
-0.798261
0.062126
0.312564
0.366753
0.374153
0.368526
0.360511
0.353684
0.349263
0.347648
0.002059
0.002189
0.002299
0.002416
0.002538
0.002664
0.002794
0.002928
0.003064
0.003202
0.003343
0.003484
0.003627
0.003771
0.003916
0.004061
0.004207
0.004353
0.004499
0.004645
0.004792
0.004938
0.005085
0.005231
0.005378
0.005524
0.005670
0.005816
0.005961
0.006106
0.006251
0.006395
0.006539
0.006682
0.006825
0.006966
0.007107
0.007247
0.007386
0.007523
0.007659
0.007794
0.007927
0.008058
0.008187
0.008313
0.008437
0.008557
0.008673
0.008784
0.008889
0.008985
0.009067
0.009132
0.009169
0.009165
0.009103
0.008958
0.008697
0.008284
0.007681
0.006860
0.005806
0.004528
0.003048
0.001374
-0.001308
-0.004740
-0.009446
-0.016291
-0.026440
-0.041285
-0.062358
-0.091215
-0.129308
-0.177870
-0.237784
-0.309375
-0.392051
-0.483682
-0.579572
-0.670378
-0.737298
-0.731617
-0.651173
-0.569882
-0.530998
-0.528142
-0.531623
-0.614185
-0.101114
0.596034
0.522264
0.485699
0.450489
0.422377
0.401635
0.387505
0.379240
0.376357
0.002060
0.002190
0.002302
0.002419
0.002540
0.002666
0.002796
0.002929
0.003065
0.003203
0.003343
0.003485
0.003628
0.003772
0.003916
0.004062
0.004207
0.004354
0.004500
0.004647
0.004794
0.004941
0.005088
0.005235
0.005382
0.005529
0.005676
0.005823
0.005970
0.006117
0.006264
0.006410
0.006556
0.006702
0.006848
0.006994
0.007139
0.007285
0.007430
0.007575
0.007720
0.007865
0.008011
0.008156
0.008303
0.008450
0.008597
0.008746
0.008896
0.009048
0.009199
0.009350
0.009496
0.009633
0.009750
0.009832
0.009853
0.009775
0.009546
0.009099
0.008358
0.007253
0.005737
0.003810
0.001535
-0.000974
-0.003598
-0.007617
-0.012568
-0.019327
-0.029113
-0.043350
-0.063585
-0.091355
-0.128041
-0.174755
-0.232231
-0.300658
-0.379315
-0.465950
-0.556104
-0.642032
-0.697911
-0.695847
-0.645531
-0.587703
-0.556419
-0.547216
-0.539419
0.000000
0.827868
0.798770
0.665987
0.571444
0.507567
0.463828
0.434049
0.414661
0.403606
0.399801
0.002054
0.002187
0.002299
0.002416
0.002538
0.002664
0.002794
0.002928
0.003064
0.003202
0.003342
0.003484
0.003627
0.003771
0.003916
0.004062
0.004208
0.004354
0.004501
0.004648
0.004796
0.004943
0.005091
0.005239
0.005387
0.005535
0.005683
0.005831
0.005979
0.006127
0.006276
0.006424
0.006573
0.006722
0.006871
0.007020
0.007170
0.007321
0.007472
0.007624
0.007777
0.007932
0.008088
0.008246
0.008408
0.008572
0.008740
0.008912
0.009090
0.009273
0.009461
0.009654
0.009848
0.010037
0.010209
0.010342
0.010402
0.010333
0.010053
0.009453
0.008402
0.006762
0.004423
0.001341
-0.002428
-0.006710
-0.011246
-0.015856
-0.021741
-0.028712
-0.037936
-0.050681
-0.068359
-0.092393
-0.124065
-0.164420
-0.214193
-0.273680
-0.342395
-0.418245
-0.496892
-0.572583
-0.625530
-0.643550
-0.625123
-0.596106
-0.584638
-0.565927
0.000000
0.776397
0.856965
0.775995
0.681622
0.597579
0.532991
0.486381
0.453955
0.432662
0.420482
0.416292
0.002044
0.002177
0.002291
0.002409
0.002532
0.002659
0.002790
0.002923
0.003060
0.003199
0.003339
0.003482
0.003625
0.003770
0.003915
0.004061
0.004208
0.004355
0.004502
0.004650
0.004797
0.004946
0.005094
0.005242
0.005391
0.005540
0.005689
0.005838
0.005988
0.006137
0.006288
0.006438
0.006589
0.006740
0.006892
0.007045
0.007199
0.007354
0.007511
0.007669
0.007829
0.007991
0.008157
0.008326
0.008499
0.008676
0.008860
0.009050
0.009247
0.009453
0.009666
0.009885
0.010107
0.010324
0.010520
0.010668
0.010720
0.010601
0.010200
0.009361
0.007893
0.005588
0.002257
-0.002215
-0.007824
-0.014408
-0.021663
-0.029232
-0.036799
-0.044619
-0.053489
-0.064020
-0.077275
-0.094545
-0.117179
-0.146487
-0.183639
-0.229564
-0.284711
-0.346973
-0.416559
-0.490820
-0.557126
-0.596856
-0.604610
-0.606194
-0.595416
0.000000
0.577353
0.695829
0.731887
0.710814
0.646601
0.583265
0.530946
0.490410
0.460800
0.440778
0.429141
0.425116
0.002027
0.002163
0.002278
0.002397
0.002521
0.002650
0.002782
0.002917
0.003054
0.003194
0.003335
0.003478
0.003622
0.003768
0.003913
0.004060
0.004207
0.004355
0.004502
0.004650
0.004799
0.004948
0.005097
0.005246
0.005395
0.005545
0.005695
0.005845
0.005996
0.006147
0.006299
0.006451
0.006604
0.006758
0.006912
0.007068
0.007226
0.007384
0.007545
0.007708
0.007874
0.008043
0.008215
0.008392
0.008574
0.008761
0.008955
0.009156
0.009365
0.009582
0.009806
0.010035
0.010264
0.010482
0.010669
0.010791
0.010790
0.010573
0.010005
0.008896
0.007011
0.004086
-0.000134
-0.005841
-0.013104
-0.021834
-0.031770
-0.042516
-0.053613
-0.064737
-0.074152
-0.082890
-0.090702
-0.098695
-0.108643
-0.122804
-0.143523
-0.172924
-0.213508
-0.261580
-0.331013
-0.418341
-0.511376
-0.582603
-0.592977
-0.599585
0.000000
0.286163
0.458877
0.546699
0.610030
0.618728
0.589916
0.550257
0.512208
0.480641
0.456619
0.439902
0.430006
0.426558
0.002006
0.002143
0.002259
0.002381
0.002507
0.002637
0.002770
0.002907
0.003046
0.003187
0.003330
0.003474
0.003619
0.003765
0.003911
0.004058
0.004206
0.004354
0.004502
0.004651
0.004800
0.004949
0.005099
0.005249
0.005399
0.005549
0.005700
0.005851
0.006003
0.006156
0.006309
0.006463
0.006617
0.006773
0.006930
0.007089
0.007249
0.007411
0.007575
0.007742
0.007912
0.008085
0.008263
0.008445
0.008632
0.008825
0.009024
0.009229
0.009441
0.009659
0.009881
0.010103
0.010317
0.010509
0.010655
0.010714
0.010619
0.010269
0.009515
0.008154
0.005932
0.002559
-0.002256
-0.008757
-0.017090
-0.027261
-0.039110
-0.052318
-0.066431
-0.080871
-0.094778
-0.104652
-0.108229
-0.106572
-0.102044
-0.098804
-0.101556
-0.114087
-0.137703
-0.186998
-0.260251
-0.362712
-0.482648
-0.590763
-0.654063
-0.681031
-0.332034
0.113448
0.267591
0.412734
0.494281
0.524763
0.522272
0.504516
0.482373
0.461500
0.444382
0.431918
0.424342
0.421672
0.001979
0.002118
0.002236
0.002360
0.002488
0.002621
0.002756
0.002895
0.003036
0.003179
0.003323
0.003468
0.003614
0.003761
0.003908
0.004056
0.004205
0.004353
0.004502
0.004651
0.004801
0.004951
0.005101
0.005251
0.005402
0.005553
0.005705
0.005857
0.006010
0.006163
0.006318
0.006473
0.006629
0.006787
0.006946
0.007106
0.007269
0.007433
0.007600
0.007770
0.007942
0.008119
0.008299
0.008484
0.008673
0.008867
0.009066
0.009270
0.009477
0.009686
0.009894
0.010093
0.010274
0.010418
0.010495
0.010461
0.010245
0.009741
0.008801
0.007227
0.004773
0.001155
-0.003917
-0.010704
-0.019397
-0.030075
-0.042681
-0.056996
-0.072628
-0.088953
-0.104936
-0.118605
-0.126084
-0.118859
-0.103046
-0.085040
-0.073531
-0.076323
-0.097825
-0.145081
-0.217602
-0.316467
-0.430139
-0.535522
-0.615652
-0.708000
-0.777516
-0.159631
0.135174
0.301665
0.394815
0.440490
0.456364
0.455665
0.447268
0.436559
0.426508
0.418631
0.413645
0.411861
0.001945
0.002087
0.002208
0.002334
0.002465
0.002601
0.002740
0.002881
0.003024
0.003169
0.003315
0.003461
0.003609
0.003757
0.003905
0.004054
0.004203
0.004352
0.004502
0.004651
0.004801
0.004952
0.005102
0.005253
0.005405
0.005557
0.005709
0.005862
0.006016
0.006170
0.006325
0.006482
0.006639
0.006798
0.006958
0.007121
0.007285
0.007451
0.007620
0.007791
0.007965
0.008143
0.008324
0.008509
0.008697
0.008889
0.009083
0.009280
0.009476
0.009668
0.009851
0.010016
0.010149
0.010229
0.010222
0.010079
0.009727
0.009064
0.007950
0.006202
0.003600
-0.000106
-0.005177
-0.011853
-0.020320
-0.030681
-0.042923
-0.056881
-0.072204
-0.088269
-0.104030
-0.117706
-0.126370
-0.127184
-0.111529
-0.089418
-0.072711
-0.073414
-0.099539
-0.141489
-0.202318
-0.278935
-0.361594
-0.435353
-0.490298
-0.511111
-0.443131
-0.145686
0.081256
0.228047
0.318858
0.371383
0.398456
0.409648
0.411820
0.409571
0.405787
0.402167
0.399658
0.398733
0.001905
0.002049
0.002173
0.002303
0.002439
0.002578
0.002720
0.002865
0.003011
0.003158
0.003306
0.003454
0.003603
0.003752
0.003901
0.004051
0.004201
0.004351
0.004501
0.004651
0.004802
0.004952
0.005104
0.005255
0.005407
0.005559
0.005712
0.005866
0.006020
0.006176
0.006332
0.006489
0.006647
0.006807
0.006969
0.007132
0.007297
0.007464
0.007634
0.007806
0.007981
0.008158
0.008338
0.008521
0.008706
0.008892
0.009078
0.009263
0.009442
0.009611
0.009763
0.009886
0.009962
0.009969
0.009869
0.009611
0.009123
0.008307
0.007035
0.005148
0.002456
-0.001251
-0.006185
-0.012541
-0.020471
-0.030051
-0.041253
-0.053909
-0.067664
-0.081906
-0.095670
-0.107504
-0.115454
-0.117487
-0.111976
-0.099205
-0.089040
-0.090938
-0.110434
-0.144123
-0.188549
-0.240325
-0.291920
-0.333350
-0.352226
-0.331302
-0.245536
-0.079162
0.071280
0.185700
0.265735
0.318400
0.350903
0.369472
0.379032
0.383196
0.384449
0.384400
0.384027
0.383851
0.001858
0.002005
0.002133
0.002267
0.002408
0.002552
0.002699
0.002847
0.002996
0.003146
0.003296
0.003446
0.003597
0.003747
0.003897
0.004048
0.004198
0.004349
0.004500
0.004650
0.004802
0.004953
0.005104
0.005256
0.005409
0.005562
0.005715
0.005869
0.006024
0.006180
0.006337
0.006494
0.006654
0.006814
0.006976
0.007140
0.007306
0.007473
0.007643
0.007815
0.007989
0.008165
0.008343
0.008521
0.008701
0.008879
0.009055
0.009224
0.009383
0.009525
0.009640
0.009716
0.009732
0.009663
0.009469
0.009099
0.008483
0.007529
0.006123
0.004126
0.001378
-0.002290
-0.007048
-0.013042
-0.020377
-0.029090
-0.039122
-0.050288
-0.062241
-0.074427
-0.086047
-0.096044
-0.103200
-0.106480
-0.105626
-0.101661
-0.099098
-0.103472
-0.117922
-0.141642
-0.171259
-0.202945
-0.230894
-0.247304
-0.243249
-0.208720
-0.135894
-0.029579
0.074575
0.162429
0.230243
0.279528
0.313616
0.336159
0.350438
0.359096
0.364101
0.366827
0.368157
0.368586
0.001801
0.001951
0.002085
0.002226
0.002373
0.002523
0.002675
0.002828
0.002981
0.003134
0.003286
0.003439
0.003590
0.003742
0.003894
0.004045
0.004196
0.004347
0.004498
0.004650
0.004801
0.004953
0.005105
0.005257
0.005410
0.005563
0.005717
0.005871
0.006027
0.006183
0.006340
0.006498
0.006658
0.006819
0.006981
0.007145
0.007311
0.007478
0.007647
0.007818
0.007991
0.008164
0.008338
0.008512
0.008685
0.008854
0.009016
0.009168
0.009304
0.009417
0.009494
0.009521
0.009477
0.009333
0.009050
0.008577
0.007846
0.006774
0.005257
0.003175
0.000394
-0.003224
-0.007811
-0.013474
-0.020281
-0.028235
-0.037253
-0.047147
-0.057597
-0.068138
-0.078155
-0.086924
-0.093727
-0.098092
-0.100135
-0.100918
-0.102720
-0.108269
-0.119071
-0.134578
-0.152546
-0.169597
-0.181274
-0.182236
-0.166862
-0.130409
-0.071487
0.003951
0.080726
0.149756
0.206968
0.251751
0.285307
0.309571
0.326587
0.338175
0.345801
0.350550
0.353157
0.354044
0.001731
0.001887
0.002029
0.002180
0.002335
0.002493
0.002652
0.002809
0.002966
0.003122
0.003277
0.003431
0.003584
0.003737
0.003890
0.004042
0.004194
0.004345
0.004497
0.004649
0.004801
0.004953
0.005105
0.005257
0.005410
0.005564
0.005718
0.005873
0.006028
0.006185
0.006342
0.006500
0.006660
0.006821
0.006984
0.007147
0.007313
0.007479
0.007648
0.007817
0.007987
0.008158
0.008327
0.008495
0.008660
0.008818
0.008967
0.009101
0.009214
0.009296
0.009336
0.009316
0.009214
0.009000
0.008636
0.008070
0.007240
0.006068
0.004462
0.002316
-0.000483
-0.004048
-0.008484
-0.013870
-0.020246
-0.027594
-0.035823
-0.044750
-0.054094
-0.063477
-0.072434
-0.080471
-0.087158
-0.092283
-0.096026
-0.099092
-0.102716
-0.108129
-0.115884
-0.125388
-0.134948
-0.142004
-0.143344
-0.135447
-0.115084
-0.080263
-0.031564
0.026611
0.086691
0.142874
0.191808
0.232255
0.264363
0.289033
0.307457
0.320826
0.330178
0.336328
0.339847
0.341068
0.001646
0.001809
0.001963
0.002128
0.002295
0.002463
0.002628
0.002791
0.002952
0.003111
0.003268
0.003424
0.003579
0.003733
0.003886
0.004039
0.004191
0.004344
0.004496
0.004648
0.004800
0.004952
0.005104
0.005257
0.005410
0.005564
0.005718
0.005873
0.006029
0.006185
0.006342
0.006501
0.006661
0.006821
0.006983
0.007147
0.007311
0.007477
0.007644
0.007811
0.007979
0.008146
0.008311
0.008473
0.008629
0.008776
0.008911
0.009027
0.009117
0.009171
0.009175
0.009111
0.008956
0.008679
0.008243
0.007597
0.006683
0.005429
0.003751
0.001557
-0.001249
-0.004765
-0.009073
-0.014234
-0.020270
-0.027155
-0.034795
-0.043023
-0.051596
-0.060202
-0.068483
-0.076086
-0.082729
-0.088293
-0.092904
-0.096961
-0.101063
-0.105718
-0.110966
-0.116170
-0.119992
-0.120530
-0.115535
-0.102754
-0.080404
-0.047802
-0.005997
0.041935
0.091604
0.139166
0.182017
0.218840
0.249309
0.273735
0.292761
0.307135
0.317568
0.324652
0.328808
0.330272
0.001536
0.001711
0.001888
0.002073
0.002256
0.002434
0.002607
0.002775
0.002940
0.003102
0.003261
0.003419
0.003575
0.003729
0.003883
0.004037
0.004190
0.004342
0.004494
0.004647
0.004799
0.004951
0.005104
0.005256
0.005410
0.005563
0.005717
0.005872
0.006028
0.006184
0.006342
0.006500
0.006659
0.006820
0.006981
0.007144
0.007307
0.007472
0.007637
0.007802
0.007967
0.008130
0.008290
0.008446
0.008594
0.008731
0.008853
0.008952
0.009021
0.009049
0.009021
0.008918
0.008716
0.008386
0.007888
0.007175
0.006191
0.004870
0.003136
0.000906
-0.001903
-0.005375
-0.009579
-0.014564
-0.020342
-0.026883
-0.034098
-0.041836
-0.049885
-0.057982
-0.065838
-0.073176
-0.079783
-0.085560
-0.090555
-0.094951
-0.098981
-0.102778
-0.106128
-0.108387
-0.108463
-0.104921
-0.096175
-0.080771
-0.057746
-0.027015
0.010341
0.052077
0.095280
0.137222
0.175857
0.209951
0.238981
0.262940
0.282139
0.297037
0.308119
0.315814
0.320430
0.322102
0.001392
0.001583
0.001805
0.002020
0.002221
0.002411
0.002590
0.002763
0.002931
0.003095
0.003256
0.003414
0.003571
0.003727
0.003881
0.004035
0.004188
0.004341
0.004493
0.004645
0.004798
0.004950
0.005103
0.005255
0.005408
0.005562
0.005716
0.005871
0.006026
0.006182
0.006339
0.006497
0.006656
0.006816
0.006977
0.007139
0.007301
0.007464
0.007628
0.007791
0.007953
0.008112
0.008268
0.008418
0.008559
0.008687
0.008797
0.008883
0.008935
0.008941
0.008887
0.008753
0.008515
0.008141
0.007595
0.006831
0.005794
0.004422
0.002645
0.000389
-0.002424
-0.005865
-0.009996
-0.014857
-0.020456
-0.026761
-0.033690
-0.041106
-0.048816
-0.056592
-0.064184
-0.071357
-0.077926
-0.083787
-0.088925
-0.093389
-0.097217
-0.100343
-0.102431
-0.102854
-0.100682
-0.094772
-0.083941
-0.067194
-0.044000
-0.014538
0.020168
0.058330
0.097749
0.136300
0.172284
0.204565
0.232550
0.256074
0.275263
0.290407
0.301859
0.309957
0.314965
0.316945
0.001205
0.001407
0.001729
0.001982
0.002200
0.002397
0.002581
0.002757
0.002926
0.003091
0.003253
0.003412
0.003569
0.003725
0.003880
0.004034
0.004187
0.004340
0.004492
0.004645
0.004797
0.004950
0.005102
0.005255
0.005408
0.005562
0.005716
0.005870
0.006026
0.006182
0.006339
0.006497
0.006655
0.006815
0.006975
0.007137
0.007299
0.007461
0.007624
0.007786
0.007946
0.008104
0.008258
0.008405
0.008542
0.008666
0.008771
0.008849
0.008892
0.008887
0.008819
0.008668
0.008409
0.008012
0.007439
0.006645
0.005577
0.004175
0.002370
0.000093
-0.002730
-0.006165
-0.010269
-0.015079
-0.020599
-0.026798
-0.033594
-0.040857
-0.048406
-0.056026
-0.063487
-0.070572
-0.077105
-0.082978
-0.088142
-0.092584
-0.096258
-0.098999
-0.100455
-0.099997
-0.096770
-0.089770
-0.078001
-0.060677
-0.037448
-0.008597
0.024891
0.061426
0.099099
0.136050
0.170741
0.202100
0.229519
0.252771
0.271904
0.287134
0.298757
0.307096
0.312490
0.315384
