# vtk DataFile Version 3.0
Vector Field
ASCII
DATASET RECTILINEAR_GRID
DIMENSIONS 100 26 1
X_COORDINATES 100 double
0.050000 0.150000 0.250000 0.350000 0.450000 0.550000 0.650000 0.750000 0.850000 0.950000 1.050000 1.150000 1.250000 1.350000 1.450000 1.550000 1.650000 1.750000 1.850000 1.950000 2.050000 2.150000 2.250000 2.350000 2.450000 2.550000 2.650000 2.750000 2.850000 2.950000 3.050000 3.150000 3.250000 3.350000 3.450000 3.550000 3.650000 3.750000 3.850000 3.950000 4.050000 4.150000 4.250000 4.350000 4.450000 4.550000 4.650000 4.750000 4.850000 4.950000 5.050000 5.150000 5.250000 5.350000 5.450000 5.550000 5.650000 5.750000 5.850000 5.950000 6.050000 6.150000 6.250000 6.350000 6.450000 6.550000 6.650000 6.750000 6.850000 6.950000 7.050000 7.150000 7.250000 7.350000 7.450000 7.550000 7.650000 7.750000 7.850000 7.950000 8.050000 8.150000 8.250000 8.350000 8.450000 8.550000 8.650000 8.750000 8.850000 8.950000 9.050000 9.150000 9.250000 9.350000 9.450000 9.550000 9.650000 9.750000 9.850000 9.950000 
Y_COORDINATES 26 double
0.050000 0.150000 0.250000 0.350000 0.450000 0.550000 0.650000 0.750000 0.850000 0.950000 1.050000 1.150000 1.250000 1.350000 1.450000 1.550000 1.650000 1.750000 1.850000 1.950000 2.050000 2.150000 2.250000 2.350000 2.450000 2.550000 
Z_COORDINATES 1 double
0.0
POINT_DATA 2600
VECTORS Vektorfeld double
-0.885435 -0.000496 0.0
-0.884579 -0.000360 0.0
-0.883851 -0.000368 0.0
-0.883042 -0.000440 0.0
-0.882058 -0.000544 0.0
-0.880845 -0.000669 0.0
-0.879368 -0.000808 0.0
-0.877597 -0.000962 0.0
-0.875508 -0.001128 0.0
-0.873077 -0.001304 0.0
-0.870285 -0.001488 0.0
-0.867119 -0.001678 0.0
-0.863570 -0.001870 0.0
-0.859642 -0.002059 0.0
-0.855345 -0.002238 0.0
-0.850706 -0.002401 0.0
-0.845763 -0.002541 0.0
-0.840571 -0.002651 0.0
-0.835196 -0.002724 0.0
-0.829718 -0.002754 0.0
-0.824225 -0.002739 0.0
-0.818807 -0.002679 0.0
-0.813552 -0.002576 0.0
-0.808541 -0.002436 0.0
-0.803837 -0.002268 0.0
-0.799489 -0.002080 0.0
-0.795527 -0.001882 0.0
-0.791967 -0.001678 0.0
-0.788826 -0.001463 0.0
-0.786138 -0.001225 0.0
-0.783981 -0.000932 0.0
-0.782509 -0.000539 0.0
-0.781987 0.000017 0.0
-0.782778 0.000775 0.0
-0.785270 0.001717 0.0
-0.789840 0.002853 0.0
-0.796891 0.004198 0.0
-0.806829 0.005741 0.0
-0.820006 0.007436 0.0
-0.836650 0.009207 0.0
-0.856810 0.010953 0.0
-0.880329 0.012566 0.0
-0.906849 0.013954 0.0
-0.935851 0.015048 0.0
-0.966698 0.015800 0.0
-0.998679 0.016181 0.0
-1.031027 0.016167 0.0
-1.062920 0.015726 0.0
-1.093470 0.014823 0.0
-1.121708 0.013414 0.0
-1.146584 0.011462 0.0
-1.166994 0.008947 0.0
-1.181830 0.005889 0.0
-1.190087 0.002367 0.0
-1.190980 -0.001475 0.0
-1.184047 -0.005457 0.0
-1.169366 -0.009224 0.0
-1.147926 -0.012217 0.0
-1.121729 -0.013980 0.0
-1.093469 -0.014279 0.0
-1.066061 -0.013129 0.0
-1.042175 -0.010757 0.0
-1.023911 -0.007507 0.0
-1.012662 -0.003741 0.0
-1.009140 0.000219 0.0
-1.013419 0.004060 0.0
-1.024990 0.007511 0.0
-1.043019 0.010518 0.0
-1.066591 0.013053 0.0
-1.094719 0.015075 0.0
-1.126334 0.016540 0.0
-1.160286 0.017411 0.0
-1.195362 0.017665 0.0
-1.230318 0.017291 0.0
-1.263907 0.016298 0.0
-1.294927 0.014721 0.0
-1.322271 0.012623 0.0
-1.344995 0.010100 0.0
-1.362373 0.007278 0.0
-1.373951 0.004300 0.0
-1.379563 0.001312 0.0
-1.379311 -0.001563 0.0
-1.373497 -0.004251 0.0
-1.362543 -0.006704 0.0
-1.346920 -0.008919 0.0
-1.327079 -0.010923 0.0
-1.303425 -0.012732 0.0
-1.276370 -0.014323 0.0
-1.246431 -0.015616 0.0
-1.214335 -0.016481 0.0
-1.181080 -0.016773 0.0
-1.147916 -0.016392 0.0
-1.116188 -0.015336 0.0
-1.087133 -0.013719 0.0
-1.061703 -0.011710 0.0
-1.040513 -0.009480 0.0
-1.023860 -0.007173 0.0
-1.011796 -0.004891 0.0
-1.004192 -0.002713 0.0
-1.000740 -0.000740 0.0
-0.985572 -0.001389 0.0
-0.984534 -0.001361 0.0
-0.983091 -0.001538 0.0
-0.981339 -0.001833 0.0
-0.979277 -0.002199 0.0
-0.976888 -0.002616 0.0
-0.974152 -0.003074 0.0
-0.971051 -0.003568 0.0
-0.967569 -0.004092 0.0
-0.963698 -0.004641 0.0
-0.959435 -0.005206 0.0
-0.954785 -0.005777 0.0
-0.949764 -0.006341 0.0
-0.944399 -0.006881 0.0
-0.938733 -0.007378 0.0
-0.932824 -0.007809 0.0
-0.926747 -0.008153 0.0
-0.920593 -0.008386 0.0
-0.914470 -0.008487 0.0
-0.908495 -0.008442 0.0
-0.902798 -0.008242 0.0
-0.897504 -0.007888 0.0
-0.892734 -0.007391 0.0
-0.888593 -0.006773 0.0
-0.885163 -0.006064 0.0
-0.882495 -0.005300 0.0
-0.880611 -0.004510 0.0
-0.879504 -0.003717 0.0
-0.879149 -0.002920 0.0
-0.879517 -0.002089 0.0
-0.880588 -0.001154 0.0
-0.882374 -0.000005 0.0
-0.884907 0.001493 0.0
-0.888283 0.003466 0.0
-0.892764 0.005997 0.0
-0.898775 0.009154 0.0
-0.906786 0.012960 0.0
-0.917232 0.017364 0.0
-0.930465 0.022223 0.0
-0.946706 0.027306 0.0
-0.966018 0.032327 0.0
-0.988295 0.036988 0.0
-1.013264 0.041022 0.0
-1.040507 0.044225 0.0
-1.069488 0.046451 0.0
-1.099574 0.047597 0.0
-1.130044 0.047570 0.0
-1.160094 0.046266 0.0
-1.188820 0.043559 0.0
-1.215211 0.039308 0.0
-1.238147 0.033381 0.0
-1.256413 0.025704 0.0
-1.268757 0.016314 0.0
-1.273989 0.005431 0.0
-1.271141 -0.006493 0.0
-1.259796 -0.018716 0.0
-1.240462 -0.029979 0.0
-1.214676 -0.038688 0.0
-1.184855 -0.043527 0.0
-1.153998 -0.043849 0.0
-1.125167 -0.039798 0.0
-1.100963 -0.032179 0.0
-1.083159 -0.022153 0.0
-1.072606 -0.010897 0.0
-1.069398 0.000643 0.0
-1.073254 0.011771 0.0
-1.083859 0.021977 0.0
-1.100772 0.030994 0.0
-1.123263 0.038640 0.0
-1.150397 0.044752 0.0
-1.181109 0.049190 0.0
-1.214235 0.051840 0.0
-1.248545 0.052623 0.0
-1.282760 0.051504 0.0
-1.315592 0.048505 0.0
-1.345780 0.043722 0.0
-1.372154 0.037342 0.0
-1.393704 0.029655 0.0
-1.409648 0.021046 0.0
-1.419504 0.011966 0.0
-1.423120 0.002873 0.0
-1.420663 -0.005833 0.0
-1.412569 -0.013889 0.0
-1.399400 -0.021189 0.0
-1.381686 -0.027769 0.0
-1.359859 -0.033741 0.0
-1.334248 -0.039180 0.0
-1.305148 -0.044029 0.0
-1.272953 -0.048043 0.0
-1.238307 -0.050797 0.0
-1.202221 -0.051798 0.0
-1.166071 -0.050682 0.0
-1.131404 -0.047440 0.0
-1.099609 -0.042465 0.0
-1.071696 -0.036307 0.0
-1.048254 -0.029514 0.0
-1.029526 -0.022520 0.0
-1.015518 -0.015617 0.0
-1.006127 -0.008983 0.0
-1.001285 -0.002764 0.0
-0.988463 -0.002173 0.0
-0.987473 -0.002606 0.0
-0.986090 -0.003119 0.0
-0.984363 -0.003731 0.0
-0.982299 -0.004425 0.0
-0.979892 -0.005186 0.0
-0.977125 -0.006006 0.0
-0.973985 -0.006878 0.0
-0.970456 -0.007793 0.0
-0.966529 -0.008739 0.0
-0.962199 -0.009701 0.0
-0.957471 -0.010660 0.0
-0.952357 -0.011592 0.0
-0.946886 -0.012466 0.0
-0.941099 -0.013246 0.0
-0.935056 -0.013893 0.0
-0.928837 -0.014366 0.0
-0.922542 -0.014622 0.0
-0.916291 -0.014626 0.0
-0.910223 -0.014346 0.0
-0.904490 -0.013768 0.0
-0.899253 -0.012892 0.0
-0.894671 -0.011738 0.0
-0.890891 -0.010346 0.0
-0.888041 -0.008772 0.0
-0.886221 -0.007080 0.0
-0.885499 -0.005336 0.0
-0.885912 -0.003584 0.0
-0.887476 -0.001842 0.0
-0.890197 -0.000078 0.0
-0.894080 0.001790 0.0
-0.899137 0.003894 0.0
-0.905417 0.006407 0.0
-0.913021 0.009532 0.0
-0.922084 0.013475 0.0
-0.932761 0.018364 0.0
-0.945228 0.024226 0.0
-0.959651 0.030966 0.0
-0.976158 0.038360 0.0
-0.994814 0.046065 0.0
-1.015603 0.053669 0.0
-1.038420 0.060740 0.0
-1.063069 0.066888 0.0
-1.089264 0.071797 0.0
-1.116633 0.075229 0.0
-1.144720 0.076991 0.0
-1.172980 0.076907 0.0
-1.200777 0.074776 0.0
-1.227361 0.070359 0.0
-1.251844 0.063383 0.0
-1.273181 0.053579 0.0
-1.290163 0.040754 0.0
-1.301442 0.024887 0.0
-1.305611 0.006257 0.0
-1.301329 -0.014449 0.0
-1.287616 -0.035819 0.0
-1.264610 -0.055216 0.0
-1.234134 -0.069713 0.0
-1.199344 -0.077113 0.0
-1.163934 -0.076531 0.0
-1.131419 -0.068462 0.0
-1.104661 -0.054477 0.0
-1.085590 -0.036731 0.0
-1.075082 -0.017380 0.0
-1.073093 0.001929 0.0
-1.078994 0.020243 0.0
-1.091941 0.037057 0.0
-1.111095 0.051980 0.0
-1.135628 0.064679 0.0
-1.164647 0.074866 0.0
-1.197149 0.082289 0.0
-1.232026 0.086744 0.0
-1.268079 0.088081 0.0
-1.304034 0.086217 0.0
-1.338571 0.081161 0.0
-1.370366 0.073049 0.0
-1.398148 0.062173 0.0
-1.420792 0.049017 0.0
-1.437414 0.034251 0.0
-1.447478 0.018681 0.0
-1.450851 0.003146 0.0
-1.447787 -0.011626 0.0
-1.438826 -0.025150 0.0
-1.424663 -0.037259 0.0
-1.405970 -0.048107 0.0
-1.383201 -0.057999 0.0
-1.356565 -0.067169 0.0
-1.326127 -0.075577 0.0
-1.292023 -0.082794 0.0
-1.254722 -0.087993 0.0
-1.215286 -0.090123 0.0
-1.175468 -0.088325 0.0
-1.137399 -0.082533 0.0
-1.102905 -0.073661 0.0
-1.073119 -0.062811 0.0
-1.048557 -0.051014 0.0
-1.029282 -0.039023 0.0
-1.015114 -0.027289 0.0
-1.005804 -0.016011 0.0
-1.001166 -0.005215 0.0
-0.989108 -0.002934 0.0
-0.988169 -0.003773 0.0
-0.986867 -0.004636 0.0
-0.985223 -0.005586 0.0
-0.983236 -0.006621 0.0
-0.980897 -0.007737 0.0
-0.978191 -0.008928 0.0
-0.975102 -0.010186 0.0
-0.971614 -0.011502 0.0
-0.967711 -0.012859 0.0
-0.963385 -0.014236 0.0
-0.958634 -0.015605 0.0
-0.953464 -0.016930 0.0
-0.947897 -0.018166 0.0
-0.941969 -0.019260 0.0
-0.935738 -0.020153 0.0
-0.929282 -0.020781 0.0
-0.922707 -0.021078 0.0
-0.916141 -0.020986 0.0
-0.909742 -0.020454 0.0
-0.903685 -0.019450 0.0
-0.898163 -0.017970 0.0
-0.893372 -0.016035 0.0
-0.889502 -0.013699 0.0
-0.886725 -0.011046 0.0
-0.885179 -0.008172 0.0
-0.884970 -0.005176 0.0
-0.886162 -0.002138 0.0
-0.888792 0.000906 0.0
-0.892875 0.003977 0.0
-0.898419 0.007161 0.0
-0.905446 0.010608 0.0
-0.914005 0.014532 0.0
-0.924161 0.019167 0.0
-0.935987 0.024729 0.0
-0.949552 0.031353 0.0
-0.964903 0.039056 0.0
-0.982055 0.047712 0.0
-1.000981 0.057047 0.0
-1.021611 0.066665 0.0
-1.043845 0.076092 0.0
-1.067553 0.084841 0.0
-1.092582 0.092464 0.0
-1.118746 0.098581 0.0
-1.145819 0.102887 0.0
-1.173514 0.105113 0.0
-1.201460 0.104991 0.0
-1.229168 0.102197 0.0
-1.255981 0.096333 0.0
-1.281006 0.086916 0.0
-1.303049 0.073426 0.0
-1.320559 0.055398 0.0
-1.331621 0.032585 0.0
-1.334055 0.005163 0.0
-1.325636 -0.026056 0.0
-1.305318 -0.058243 0.0
-1.274644 -0.086472 0.0
-1.237301 -0.106275 0.0
-1.197584 -0.115058 0.0
-1.159274 -0.112306 0.0
-1.125325 -0.099152 0.0
-1.097993 -0.077877 0.0
-1.078911 -0.051485 0.0
-1.068934 -0.023110 0.0
-1.068065 0.004802 0.0
-1.075668 0.030874 0.0
-1.090823 0.054529 0.0
-1.112604 0.075443 0.0
-1.140117 0.093262 0.0
-1.172421 0.107605 0.0
-1.208479 0.118111 0.0
-1.247151 0.124472 0.0
-1.287189 0.126444 0.0
-1.327242 0.123861 0.0
-1.365865 0.116677 0.0
-1.401550 0.105013 0.0
-1.432792 0.089233 0.0
-1.458198 0.070006 0.0
-1.476646 0.048331 0.0
-1.487458 0.025476 0.0
-1.490532 0.002799 0.0
-1.486333 -0.018541 0.0
-1.475785 -0.037746 0.0
-1.460052 -0.054559 0.0
-1.440122 -0.069430 0.0
-1.416464 -0.083102 0.0
-1.389009 -0.096159 0.0
-1.357336 -0.108698 0.0
-1.321006 -0.120107 0.0
-1.280011 -0.128976 0.0
-1.235351 -0.133237 0.0
-1.189479 -0.130901 0.0
-1.145872 -0.121633 0.0
-1.107240 -0.107688 0.0
-1.074794 -0.091017 0.0
-1.048813 -0.073350 0.0
-1.028979 -0.055796 0.0
-1.014747 -0.038915 0.0
-1.005587 -0.022855 0.0
-1.001107 -0.007489 0.0
-0.990060 -0.003666 0.0
-0.989172 -0.004868 0.0
-0.987947 -0.006068 0.0
-0.986388 -0.007356 0.0
-0.984488 -0.008737 0.0
-0.982234 -0.010213 0.0
-0.979608 -0.011783 0.0
-0.976590 -0.013439 0.0
-0.973157 -0.015171 0.0
-0.969290 -0.016960 0.0
-0.964972 -0.018780 0.0
-0.960191 -0.020595 0.0
-0.954944 -0.022357 0.0
-0.949244 -0.024007 0.0
-0.943118 -0.025473 0.0
-0.936617 -0.026673 0.0
-0.929816 -0.027517 0.0
-0.922822 -0.027911 0.0
-0.915775 -0.027764 0.0
-0.908851 -0.026999 0.0
-0.902255 -0.025558 0.0
-0.896217 -0.023422 0.0
-0.890983 -0.020608 0.0
-0.886794 -0.017185 0.0
-0.883870 -0.013261 0.0
-0.882396 -0.008975 0.0
-0.882506 -0.004472 0.0
-0.884284 0.000128 0.0
-0.887767 0.004754 0.0
-0.892961 0.009406 0.0
-0.899857 0.014171 0.0
-0.908449 0.019218 0.0
-0.918746 0.024778 0.0
-0.930771 0.031102 0.0
-0.944553 0.038402 0.0
-0.960108 0.046798 0.0
-0.977418 0.056273 0.0
-0.996428 0.066657 0.0
-1.017036 0.077635 0.0
-1.039106 0.088778 0.0
-1.062493 0.099599 0.0
-1.087049 0.109599 0.0
-1.112631 0.118318 0.0
-1.139092 0.125353 0.0
-1.166255 0.130351 0.0
-1.193875 0.132964 0.0
-1.221591 0.132801 0.0
-1.248858 0.129362 0.0
-1.274869 0.121992 0.0
-1.298456 0.109870 0.0
-1.317997 0.092056 0.0
-1.331339 0.067620 0.0
-1.335795 0.035881 0.0
-1.328283 -0.003210 0.0
-1.306559 -0.047826 0.0
-1.272376 -0.090975 0.0
-1.231403 -0.125388 0.0
-1.189580 -0.146525 0.0
-1.151115 -0.152990 0.0
-1.118158 -0.145639 0.0
-1.091479 -0.126447 0.0
-1.071438 -0.097955 0.0
-1.058574 -0.063353 0.0
-1.053456 -0.026338 0.0
-1.056311 0.010016 0.0
-1.066987 0.043939 0.0
-1.085129 0.074761 0.0
-1.110232 0.102095 0.0
-1.141569 0.125460 0.0
-1.178199 0.144340 0.0
-1.219020 0.158255 0.0
-1.262804 0.166784 0.0
-1.308200 0.169566 0.0
-1.353721 0.166313 0.0
-1.397730 0.156857 0.0
-1.438453 0.141240 0.0
-1.474036 0.119831 0.0
-1.502687 0.093465 0.0
-1.522903 0.063537 0.0
-1.533788 0.031967 0.0
-1.535327 0.000921 0.0
-1.528453 -0.027735 0.0
-1.515024 -0.052529 0.0
-1.497227 -0.073305 0.0
-1.476538 -0.091302 0.0
-1.453294 -0.108133 0.0
-1.426822 -0.125055 0.0
-1.395778 -0.142519 0.0
-1.358566 -0.159828 0.0
-1.313978 -0.174837 0.0
-1.262321 -0.183692 0.0
-1.207084 -0.181554 0.0
-1.154999 -0.166672 0.0
-1.110739 -0.145541 0.0
-1.075138 -0.121212 0.0
-1.047859 -0.096415 0.0
-1.027841 -0.072583 0.0
-1.013945 -0.050257 0.0
-1.005222 -0.029397 0.0
-1.001027 -0.009623 0.0
-0.991333 -0.004356 0.0
-0.990505 -0.005894 0.0
-0.989359 -0.007414 0.0
-0.987893 -0.009034 0.0
-0.986094 -0.010759 0.0
-0.983943 -0.012597 0.0
-0.981417 -0.014551 0.0
-0.978491 -0.016616 0.0
-0.975135 -0.018782 0.0
-0.971321 -0.021029 0.0
-0.967022 -0.023328 0.0
-0.962213 -0.025636 0.0
-0.956880 -0.027894 0.0
-0.951020 -0.030029 0.0
-0.944648 -0.031949 0.0
-0.937802 -0.033545 0.0
-0.930551 -0.034697 0.0
-0.923001 -0.035275 0.0
-0.915301 -0.035147 0.0
-0.907646 -0.034196 0.0
-0.900275 -0.032328 0.0
-0.893469 -0.029495 0.0
-0.887534 -0.025704 0.0
-0.882783 -0.021030 0.0
-0.879506 -0.015616 0.0
-0.877946 -0.009655 0.0
-0.878273 -0.003355 0.0
-0.880581 0.003097 0.0
-0.884895 0.009581 0.0
-0.891186 0.016064 0.0
-0.899399 0.022621 0.0
-0.909467 0.029428 0.0
-0.921334 0.036733 0.0
-0.934962 0.044802 0.0
-0.950325 0.053848 0.0
-0.967390 0.063971 0.0
-0.986096 0.075117 0.0
-1.006344 0.087070 0.0
-1.027987 0.099472 0.0
-1.050846 0.111870 0.0
-1.074722 0.123769 0.0
-1.099410 0.134672 0.0
-1.124696 0.144113 0.0
-1.150337 0.151660 0.0
-1.176022 0.156891 0.0
-1.201318 0.159340 0.0
-1.225611 0.158434 0.0
-1.248032 0.153417 0.0
-1.267378 0.143294 0.0
-1.282038 0.126815 0.0
-1.289912 0.102526 0.0
-1.288344 0.068924 0.0
-1.274102 0.024791 0.0
-1.243874 -0.029859 0.0
-1.199645 -0.087130 0.0
-1.149704 -0.135796 0.0
-1.102420 -0.168824 0.0
-1.063529 -0.183802 0.0
-1.035797 -0.181910 0.0
-1.019258 -0.166214 0.0
-1.011895 -0.139914 0.0
-1.010991 -0.105434 0.0
-1.014615 -0.065113 0.0
-1.022004 -0.022308 0.0
-1.033240 0.020077 0.0
-1.049307 0.060622 0.0
-1.071589 0.098503 0.0
-1.100795 0.132662 0.0
-1.136636 0.162070 0.0
-1.178187 0.185912 0.0
-1.224239 0.203555 0.0
-1.273437 0.214465 0.0
-1.324303 0.218147 0.0
-1.375201 0.214149 0.0
-1.424288 0.202117 0.0
-1.469498 0.181913 0.0
-1.508562 0.153807 0.0
-1.539159 0.118737 0.0
-1.559244 0.078567 0.0
-1.567576 0.036154 0.0
-1.564310 -0.004992 0.0
-1.551589 -0.041418 0.0
-1.533548 -0.070317 0.0
-1.514167 -0.092696 0.0
-1.495205 -0.111562 0.0
-1.476355 -0.129967 0.0
-1.455860 -0.150188 0.0
-1.430966 -0.173325 0.0
-1.398233 -0.198967 0.0
-1.353898 -0.224621 0.0
-1.295373 -0.244091 0.0
-1.226200 -0.245566 0.0
-1.161187 -0.219758 0.0
-1.110116 -0.187786 0.0
-1.071660 -0.153023 0.0
-1.044049 -0.119494 0.0
-1.024904 -0.088667 0.0
-1.012210 -0.060762 0.0
-1.004509 -0.035315 0.0
-1.000879 -0.011529 0.0
-0.992904 -0.004993 0.0
-0.992146 -0.006843 0.0
-0.991090 -0.008667 0.0
-0.989732 -0.010605 0.0
-0.988052 -0.012667 0.0
-0.986026 -0.014865 0.0
-0.983627 -0.017207 0.0
-0.980822 -0.019691 0.0
-0.977573 -0.022310 0.0
-0.973841 -0.025046 0.0
-0.969586 -0.027866 0.0
-0.964770 -0.030723 0.0
-0.959360 -0.033550 0.0
-0.953336 -0.036258 0.0
-0.946694 -0.038735 0.0
-0.939455 -0.040844 0.0
-0.931674 -0.042430 0.0
-0.923451 -0.043316 0.0
-0.914934 -0.043323 0.0
-0.906334 -0.042276 0.0
-0.897924 -0.040029 0.0
-0.890039 -0.036485 0.0
-0.883063 -0.031624 0.0
-0.877402 -0.025521 0.0
-0.873453 -0.018352 0.0
-0.871548 -0.010384 0.0
-0.871919 -0.001928 0.0
-0.874673 0.006732 0.0
-0.879807 0.015395 0.0
-0.887237 0.023972 0.0
-0.896821 0.032509 0.0
-0.908393 0.041179 0.0
-0.921794 0.050250 0.0
-0.936892 0.060011 0.0
-0.953578 0.070688 0.0
-0.971756 0.082373 0.0
-0.991311 0.094978 0.0
-1.012094 0.108240 0.0
-1.033903 0.121754 0.0
-1.056484 0.135029 0.0
-1.079538 0.147541 0.0
-1.102718 0.158769 0.0
-1.125622 0.168206 0.0
-1.147758 0.175345 0.0
-1.168510 0.179643 0.0
-1.187085 0.180460 0.0
-1.202466 0.176990 0.0
-1.213370 0.168187 0.0
-1.218208 0.152709 0.0
-1.215045 0.128897 0.0
-1.201538 0.094812 0.0
-1.174830 0.048361 0.0
-1.131546 -0.012172 0.0
-1.073732 -0.080938 0.0
-1.010899 -0.143113 0.0
-0.952299 -0.188353 0.0
-0.903967 -0.211883 0.0
-0.870121 -0.213480 0.0
-0.853666 -0.196420 0.0
-0.855670 -0.166240 0.0
-0.874002 -0.128919 0.0
-0.902872 -0.088464 0.0
-0.935046 -0.046284 0.0
-0.964553 -0.004241 0.0
-0.989554 0.038246 0.0
-1.013484 0.082451 0.0
-1.041186 0.126657 0.0
-1.075230 0.167758 0.0
-1.115812 0.203396 0.0
-1.161919 0.232244 0.0
-1.212156 0.253511 0.0
-1.265015 0.266567 0.0
-1.318899 0.270795 0.0
-1.372060 0.265559 0.0
-1.422525 0.250260 0.0
-1.468022 0.224476 0.0
-1.505938 0.188224 0.0
-1.533390 0.142369 0.0
-1.547611 0.089241 0.0
-1.546858 0.033059 0.0
-1.531713 -0.020307 0.0
-1.508119 -0.062419 0.0
-1.485073 -0.090402 0.0
-1.467774 -0.109292 0.0
-1.456745 -0.124958 0.0
-1.450077 -0.142088 0.0
-1.444620 -0.164018 0.0
-1.436303 -0.192705 0.0
-1.419941 -0.228683 0.0
-1.388114 -0.271067 0.0
-1.330284 -0.314000 0.0
-1.242512 -0.332601 0.0
-1.157613 -0.282634 0.0
-1.099889 -0.233705 0.0
-1.060698 -0.184750 0.0
-1.035224 -0.140852 0.0
-1.019022 -0.102657 0.0
-1.009016 -0.069473 0.0
-1.003256 -0.040065 0.0
-1.000628 -0.013037 0.0
-0.994751 -0.005566 0.0
-0.994076 -0.007703 0.0
-0.993126 -0.009811 0.0
-0.991893 -0.012052 0.0
-0.990355 -0.014439 0.0
-0.988484 -0.016990 0.0
-0.986247 -0.019719 0.0
-0.983602 -0.022630 0.0
-0.980504 -0.025719 0.0
-0.976901 -0.028971 0.0
-0.972741 -0.032356 0.0
-0.967969 -0.035822 0.0
-0.962533 -0.039297 0.0
-0.956392 -0.042677 0.0
-0.949519 -0.045830 0.0
-0.941915 -0.048592 0.0
-0.933612 -0.050765 0.0
-0.924690 -0.052126 0.0
-0.915286 -0.052433 0.0
-0.905609 -0.051443 0.0
-0.895945 -0.048935 0.0
-0.886668 -0.044741 0.0
-0.878232 -0.038781 0.0
-0.871156 -0.031101 0.0
-0.865975 -0.021901 0.0
-0.863182 -0.011533 0.0
-0.863135 -0.000455 0.0
-0.866005 0.010882 0.0
-0.871773 0.022147 0.0
-0.880277 0.033153 0.0
-0.891248 0.043882 0.0
-0.904363 0.054493 0.0
-0.919299 0.065274 0.0
-0.935768 0.076554 0.0
-0.953536 0.088598 0.0
-0.972404 0.101508 0.0
-0.992179 0.115174 0.0
-1.012640 0.129287 0.0
-1.033502 0.143378 0.0
-1.054411 0.156893 0.0
-1.074924 0.169243 0.0
-1.094509 0.179833 0.0
-1.112528 0.188064 0.0
-1.128212 0.193307 0.0
-1.140639 0.194859 0.0
-1.148704 0.191883 0.0
-1.151109 0.183352 0.0
-1.146361 0.167979 0.0
-1.132772 0.144165 0.0
-1.108449 0.109954 0.0
-1.071183 0.062982 0.0
-1.018215 0.000515 0.0
-0.951214 -0.074613 0.0
-0.879718 -0.147808 0.0
-0.812655 -0.206140 0.0
-0.754067 -0.242515 0.0
-0.706293 -0.253827 0.0
-0.671217 -0.240458 0.0
-0.651555 -0.205559 0.0
-0.651994 -0.154657 0.0
-0.678329 -0.095834 0.0
-0.731203 -0.039805 0.0
-0.797517 0.003544 0.0
-0.858183 0.036104 0.0
-0.904934 0.069651 0.0
-0.942205 0.112248 0.0
-0.978496 0.160852 0.0
-1.018945 0.208057 0.0
-1.064284 0.249019 0.0
-1.113304 0.281749 0.0
-1.164423 0.305361 0.0
-1.216019 0.319173 0.0
-1.266412 0.322467 0.0
-1.313808 0.314445 0.0
-1.356231 0.294263 0.0
-1.391416 0.261155 0.0
-1.416658 0.214703 0.0
-1.428703 0.155387 0.0
-1.423990 0.085729 0.0
-1.399663 0.011491 0.0
-1.360248 -0.053300 0.0
-1.322417 -0.090852 0.0
-1.299868 -0.107564 0.0
-1.293962 -0.115336 0.0
-1.301167 -0.122737 0.0
-1.317110 -0.135034 0.0
-1.337701 -0.155939 0.0
-1.358858 -0.187944 0.0
-1.376156 -0.232508 0.0
-1.381297 -0.293927 0.0
-1.350056 -0.380212 0.0
-1.245464 -0.458754 0.0
-1.132041 -0.354804 0.0
-1.071844 -0.279457 0.0
-1.037690 -0.212343 0.0
-1.019118 -0.157305 0.0
-1.009171 -0.112352 0.0
-1.003947 -0.075009 0.0
-1.001332 -0.042904 0.0
-1.000247 -0.013912 0.0
-0.996852 -0.006064 0.0
-0.996272 -0.008462 0.0
-0.995445 -0.010829 0.0
-0.994361 -0.013350 0.0
-0.992995 -0.016044 0.0
-0.991315 -0.018935 0.0
-0.989284 -0.022043 0.0
-0.986854 -0.025380 0.0
-0.983972 -0.028949 0.0
-0.980577 -0.032739 0.0
-0.976603 -0.036723 0.0
-0.971982 -0.040850 0.0
-0.966645 -0.045042 0.0
-0.960533 -0.049185 0.0
-0.953596 -0.053130 0.0
-0.945809 -0.056683 0.0
-0.937178 -0.059609 0.0
-0.927751 -0.061632 0.0
-0.917631 -0.062450 0.0
-0.906995 -0.061741 0.0
-0.896101 -0.059195 0.0
-0.885313 -0.054547 0.0
-0.875106 -0.047618 0.0
-0.866070 -0.038377 0.0
-0.858886 -0.026991 0.0
-0.854257 -0.013866 0.0
-0.852800 0.000374 0.0
-0.854890 0.015015 0.0
-0.860595 0.029489 0.0
-0.869706 0.043427 0.0
-0.881808 0.056682 0.0
-0.896358 0.069359 0.0
-0.912777 0.081762 0.0
-0.930531 0.094289 0.0
-0.949177 0.107277 0.0
-0.968356 0.120876 0.0
-0.987761 0.134985 0.0
-1.007077 0.149253 0.0
-1.025942 0.163139 0.0
-1.043901 0.176000 0.0
-1.060395 0.187144 0.0
-1.074744 0.195867 0.0
-1.086142 0.201447 0.0
-1.093647 0.203114 0.0
-1.096181 0.200013 0.0
-1.092538 0.191150 0.0
-1.081395 0.175348 0.0
-1.061349 0.151190 0.0
-1.030935 0.116952 0.0
-0.988568 0.070477 0.0
-0.932277 0.008902 0.0
-0.863323 -0.067326 0.0
-0.790447 -0.146649 0.0
-0.722187 -0.215528 0.0
-0.661796 -0.265873 0.0
-0.610579 -0.292587 0.0
-0.568392 -0.293715 0.0
-0.534143 -0.269894 0.0
-0.506476 -0.223452 0.0
-0.484711 -0.158090 0.0
-0.470605 -0.080172 0.0
-0.471734 -0.001463 0.0
-0.502833 0.062615 0.0
-0.573194 0.108061 0.0
-0.670991 0.142242 0.0
-0.769778 0.175715 0.0
-0.850964 0.214861 0.0
-0.914384 0.257917 0.0
-0.968370 0.298484 0.0
-1.018392 0.331327 0.0
-1.065407 0.353917 0.0
-1.108286 0.365092 0.0
-1.145324 0.363980 0.0
-1.174659 0.349664 0.0
-1.194336 0.321144 0.0
-1.202260 0.277382 0.0
-1.195958 0.217416 0.0
-1.172046 0.140807 0.0
-1.125662 0.049212 0.0
-1.054604 -0.047376 0.0
-0.980047 -0.108405 0.0
-0.929874 -0.123751 0.0
-0.912252 -0.114835 0.0
-0.924211 -0.102012 0.0
-0.956867 -0.096200 0.0
-1.001979 -0.100516 0.0
-1.054406 -0.117439 0.0
-1.111325 -0.148368 0.0
-1.174352 -0.191759 0.0
-1.247527 -0.256360 0.0
-1.298264 -0.398283 0.0
-1.203668 -0.639869 0.0
-1.063427 -0.427353 0.0
-1.015822 -0.314710 0.0
-0.998734 -0.228332 0.0
-0.994513 -0.164109 0.0
-0.995093 -0.114915 0.0
-0.997004 -0.075758 0.0
-0.998761 -0.043012 0.0
-0.999745 -0.013904 0.0
-0.999179 -0.006475 0.0
-0.998709 -0.009102 0.0
-0.998025 -0.011699 0.0
-0.997117 -0.014473 0.0
-0.995957 -0.017447 0.0
-0.994515 -0.020655 0.0
-0.992748 -0.024122 0.0
-0.990608 -0.027871 0.0
-0.988037 -0.031911 0.0
-0.984969 -0.036240 0.0
-0.981331 -0.040833 0.0
-0.977047 -0.045644 0.0
-0.972039 -0.050591 0.0
-0.966233 -0.055554 0.0
-0.959565 -0.060367 0.0
-0.951983 -0.064814 0.0
-0.943464 -0.068628 0.0
-0.934015 -0.071490 0.0
-0.923686 -0.073040 0.0
-0.912588 -0.072885 0.0
-0.900908 -0.070624 0.0
-0.888932 -0.065881 0.0
-0.877075 -0.058348 0.0
-0.865901 -0.047856 0.0
-0.856142 -0.034455 0.0
-0.848676 -0.018496 0.0
-0.844435 -0.000695 0.0
-0.844198 0.017937 0.0
-0.848342 0.036416 0.0
-0.856778 0.054047 0.0
-0.869038 0.070424 0.0
-0.884368 0.085497 0.0
-0.901872 0.099546 0.0
-0.920659 0.113047 0.0
-0.939958 0.126464 0.0
-0.959155 0.140065 0.0
-0.977766 0.153811 0.0
-0.995368 0.167346 0.0
-1.011528 0.180070 0.0
-1.025740 0.191241 0.0
-1.037394 0.200051 0.0
-1.045760 0.205674 0.0
-1.049986 0.207263 0.0
-1.049115 0.203931 0.0
-1.042096 0.194712 0.0
-1.027821 0.178531 0.0
-1.005157 0.154160 0.0
-0.972984 0.120160 0.0
-0.930186 0.074770 0.0
-0.875448 0.015553 0.0
-0.809537 -0.058375 0.0
-0.739752 -0.138788 0.0
-0.674189 -0.213626 0.0
-0.616402 -0.274598 0.0
-0.567983 -0.315611 0.0
-0.528744 -0.333305 0.0
-0.496893 -0.327036 0.0
-0.469728 -0.297988 0.0
-0.444631 -0.248123 0.0
-0.420050 -0.179766 0.0
-0.396565 -0.096089 0.0
-0.378698 -0.002283 0.0
-0.376830 0.092667 0.0
-0.404083 0.175624 0.0
-0.468017 0.236409 0.0
-0.561813 0.274131 0.0
-0.664227 0.300045 0.0
-0.754273 0.326199 0.0
-0.824432 0.354346 0.0
-0.877824 0.378879 0.0
-0.918668 0.394225 0.0
-0.948295 0.397289 0.0
-0.965961 0.386487 0.0
-0.970199 0.360730 0.0
-0.959483 0.319039 0.0
-0.932478 0.260406 0.0
-0.887880 0.183492 0.0
-0.823078 0.086016 0.0
-0.730746 -0.034713 0.0
-0.623012 -0.142244 0.0
-0.524411 -0.186695 0.0
-0.445330 -0.174714 0.0
-0.392357 -0.134466 0.0
-0.371070 -0.091710 0.0
-0.385376 -0.059540 0.0
-0.434947 -0.042493 0.0
-0.505307 -0.052675 0.0
-0.579858 -0.081663 0.0
-0.667302 -0.107993 0.0
-0.815101 -0.119151 0.0
-1.007579 -0.292276 0.0
-1.013225 -0.834826 0.0
-0.920204 -0.465657 0.0
-0.925367 -0.318849 0.0
-0.944572 -0.222076 0.0
-0.963267 -0.155890 0.0
-0.978182 -0.107639 0.0
-0.988940 -0.070366 0.0
-0.995829 -0.039759 0.0
-0.999177 -0.012825 0.0
-1.001702 -0.006787 0.0
-1.001355 -0.009606 0.0
-1.000836 -0.012397 0.0
-1.000134 -0.015385 0.0
-0.999224 -0.018603 0.0
-0.998075 -0.022090 0.0
-0.996647 -0.025881 0.0
-0.994895 -0.030005 0.0
-0.992761 -0.034482 0.0
-0.990182 -0.039316 0.0
-0.987088 -0.044489 0.0
-0.983402 -0.049958 0.0
-0.979045 -0.055642 0.0
-0.973938 -0.061416 0.0
-0.968004 -0.067107 0.0
-0.961174 -0.072485 0.0
-0.953389 -0.077261 0.0
-0.944609 -0.081087 0.0
-0.934821 -0.083560 0.0
-0.924051 -0.084233 0.0
-0.912383 -0.082624 0.0
-0.899986 -0.078253 0.0
-0.887145 -0.070675 0.0
-0.874304 -0.059546 0.0
-0.862110 -0.044718 0.0
-0.851448 -0.026360 0.0
-0.843429 -0.005091 0.0
-0.839255 0.017922 0.0
-0.839835 0.041154 0.0
-0.845485 0.063395 0.0
-0.855939 0.083790 0.0
-0.870427 0.101949 0.0
-0.887820 0.117991 0.0
-0.906846 0.132415 0.0
-0.926301 0.145849 0.0
-0.945184 0.158761 0.0
-0.962731 0.171273 0.0
-0.978352 0.183107 0.0
-0.991537 0.193655 0.0
-1.001770 0.202102 0.0
-1.008467 0.207540 0.0
-1.010950 0.209032 0.0
-1.008447 0.205630 0.0
-1.000120 0.196366 0.0
-0.985087 0.180227 0.0
-0.962473 0.156127 0.0
-0.931445 0.122872 0.0
-0.891238 0.079068 0.0
-0.841048 0.022874 0.0
-0.781245 -0.047091 0.0
-0.717568 -0.125319 0.0
-0.657418 -0.201778 0.0
-0.604866 -0.268752 0.0
-0.562212 -0.319914 0.0
-0.529718 -0.351209 0.0
-0.505402 -0.361262 0.0
-0.485689 -0.350643 0.0
-0.466673 -0.320561 0.0
-0.445334 -0.271985 0.0
-0.420244 -0.205575 0.0
-0.391866 -0.122145 0.0
-0.362849 -0.023112 0.0
-0.339153 0.087932 0.0
-0.330328 0.198788 0.0
-0.347431 0.294282 0.0
-0.397910 0.360534 0.0
-0.477124 0.395271 0.0
-0.566635 0.410531 0.0
-0.646061 0.419598 0.0
-0.704944 0.425902 0.0
-0.742407 0.425510 0.0
-0.760488 0.413711 0.0
-0.760293 0.387536 0.0
-0.741792 0.345417 0.0
-0.704693 0.286536 0.0
-0.649241 0.210452 0.0
-0.576419 0.116026 0.0
-0.483724 -0.004015 0.0
-0.376403 -0.144335 0.0
-0.274557 -0.242203 0.0
-0.193041 -0.266853 0.0
-0.135515 -0.231164 0.0
-0.098973 -0.167531 0.0
-0.071839 -0.107066 0.0
-0.034947 -0.066768 0.0
0.020418 -0.041058 0.0
0.069465 -0.032796 0.0
0.083682 -0.041208 0.0
0.040278 -0.028333 0.0
0.456058 -0.082426 0.0
0.456058 -0.225772 0.0
-0.315804 -0.706913 0.0
-0.702617 -0.398518 0.0
-0.816774 -0.266670 0.0
-0.887122 -0.184701 0.0
-0.932222 -0.129470 0.0
-0.961965 -0.089401 0.0
-0.981353 -0.058459 0.0
-0.993097 -0.033033 0.0
-0.998649 -0.010651 0.0
-1.004383 -0.006992 0.0
-1.004174 -0.009957 0.0
-1.003843 -0.012896 0.0
-1.003380 -0.016052 0.0
-1.002765 -0.019462 0.0
-1.001972 -0.023173 0.0
-1.000969 -0.027228 0.0
-0.999715 -0.031664 0.0
-0.998165 -0.036508 0.0
-0.996263 -0.041770 0.0
-0.993949 -0.047443 0.0
-0.991156 -0.053484 0.0
-0.987809 -0.059819 0.0
-0.983830 -0.066326 0.0
-0.979133 -0.072829 0.0
-0.973630 -0.079097 0.0
-0.967228 -0.084835 0.0
-0.959839 -0.089682 0.0
-0.951378 -0.093214 0.0
-0.941783 -0.094944 0.0
-0.931028 -0.094336 0.0
-0.919147 -0.090819 0.0
-0.906277 -0.083821 0.0
-0.892693 -0.072825 0.0
-0.878872 -0.057454 0.0
-0.865551 -0.037607 0.0
-0.853779 -0.013635 0.0
-0.844918 0.013431 0.0
-0.840390 0.041696 0.0
-0.841130 0.069243 0.0
-0.847346 0.094612 0.0
-0.858573 0.116843 0.0
-0.873740 0.135657 0.0
-0.891371 0.151406 0.0
-0.909872 0.164813 0.0
-0.927786 0.176595 0.0
-0.943947 0.187147 0.0
-0.957488 0.196395 0.0
-0.967765 0.203829 0.0
-0.974244 0.208640 0.0
-0.976406 0.209862 0.0
-0.973698 0.206485 0.0
-0.965520 0.197497 0.0
-0.951243 0.181894 0.0
-0.930243 0.158666 0.0
-0.901943 0.126775 0.0
-0.865857 0.085110 0.0
-0.821610 0.032376 0.0
-0.769447 -0.032788 0.0
-0.713707 -0.106971 0.0
-0.660945 -0.181877 0.0
-0.615704 -0.250611 0.0
-0.580999 -0.307177 0.0
-0.557641 -0.347500 0.0
-0.543630 -0.370128 0.0
-0.534715 -0.375574 0.0
-0.525949 -0.364811 0.0
-0.513264 -0.338094 0.0
-0.494270 -0.294784 0.0
-0.468260 -0.233876 0.0
-0.435890 -0.154593 0.0
-0.398890 -0.056681 0.0
-0.360300 0.059216 0.0
-0.326578 0.184957 0.0
-0.306669 0.305306 0.0
-0.309962 0.403282 0.0
-0.342769 0.464544 0.0
-0.400256 0.488256 0.0
-0.465828 0.486870 0.0
-0.521267 0.472952 0.0
-0.555895 0.450551 0.0
-0.566786 0.417642 0.0
-0.554511 0.371136 0.0
-0.520236 0.309041 0.0
-0.465038 0.230616 0.0
-0.390154 0.136037 0.0
-0.295016 0.022482 0.0
-0.179048 -0.119134 0.0
-0.059650 -0.255936 0.0
0.034974 -0.327073 0.0
0.092203 -0.320727 0.0
0.115688 -0.258300 0.0
0.112672 -0.173920 0.0
0.091746 -0.106885 0.0
0.068297 -0.080392 0.0
0.056129 -0.070631 0.0
0.046831 -0.042972 0.0
0.019832 -0.017644 0.0
0.000000 -0.060959 0.0
-0.000000 -0.190496 0.0
0.000000 -0.130174 0.0
-0.230012 -0.256695 0.0
-0.574219 -0.213313 0.0
-0.750629 -0.161309 0.0
-0.850308 -0.120034 0.0
-0.911644 -0.087702 0.0
-0.950976 -0.062094 0.0
-0.976142 -0.041212 0.0
-0.991206 -0.023471 0.0
-0.998283 -0.007583 0.0
-1.007180 -0.007079 0.0
-1.007121 -0.010137 0.0
-1.006999 -0.013170 0.0
-1.006807 -0.016434 0.0
-1.006532 -0.019971 0.0
-1.006156 -0.023833 0.0
-1.005659 -0.028069 0.0
-1.005012 -0.032723 0.0
-1.004184 -0.037827 0.0
-1.003135 -0.043401 0.0
-1.001821 -0.049441 0.0
-1.000186 -0.055915 0.0
-0.998166 -0.062755 0.0
-0.995686 -0.069850 0.0