# vtk DataFile Version 3.0
Vector Field
ASCII
DATASET RECTILINEAR_GRID
DIMENSIONS 200 75 1
X_COORDINATES 200 double
0.050000 0.150000 0.250000 0.350000 0.450000 0.550000 0.650000 0.750000 0.850000 0.950000 1.050000 1.150000 1.250000 1.350000 1.450000 1.550000 1.650000 1.750000 1.850000 1.950000 2.050000 2.150000 2.250000 2.350000 2.450000 2.550000 2.650000 2.750000 2.850000 2.950000 3.050000 3.150000 3.250000 3.350000 3.450000 3.550000 3.650000 3.750000 3.850000 3.950000 4.050000 4.150000 4.250000 4.350000 4.450000 4.550000 4.650000 4.750000 4.850000 4.950000 5.050000 5.150000 5.250000 5.350000 5.450000 5.550000 5.650000 5.750000 5.850000 5.950000 6.050000 6.150000 6.250000 6.350000 6.450000 6.550000 6.650000 6.750000 6.850000 6.950000 7.050000 7.150000 7.250000 7.350000 7.450000 7.550000 7.650000 7.750000 7.850000 7.950000 8.050000 8.150000 8.250000 8.350000 8.450000 8.550000 8.650000 8.750000 8.850000 8.950000 9.050000 9.150000 9.250000 9.350000 9.450000 9.550000 9.650000 9.750000 9.850000 9.950000 10.050000 10.150000 10.250000 10.350000 10.450000 10.550000 10.650000 10.750000 10.850000 10.950000 11.050000 11.150000 11.250000 11.350000 11.450000 11.550000 11.650000 11.750000 11.850000 11.950000 12.050000 12.150000 12.250000 12.350000 12.450000 12.550000 12.650000 12.750000 12.850000 12.950000 13.050000 13.150000 13.250000 13.350000 13.450000 13.550000 13.650000 13.750000 13.850000 13.950000 14.050000 14.150000 14.250000 14.350000 14.450000 14.550000 14.650000 14.750000 14.850000 14.950000 15.050000 15.150000 15.250000 15.350000 15.450000 15.550000 15.650000 15.750000 15.850000 15.950000 16.050000 16.150000 16.250000 16.350000 16.450000 16.550000 16.650000 16.750000 16.850000 16.950000 17.050000 17.150000 17.250000 17.350000 17.450000 17.550000 17.650000 17.750000 17.850000 17.950000 18.050000 18.150000 18.250000 18.350000 18.450000 18.550000 18.650000 18.750000 18.850000 18.950000 19.050000 19.150000 19.250000 19.350000 19.450000 19.550000 19.650000 19.750000 19.850000 19.950000 
Y_COORDINATES 75 double
0.050000 0.150000 0.250000 0.350000 0.450000 0.550000 0.650000 0.750000 0.850000 0.950000 1.050000 1.150000 1.250000 1.350000 1.450000 1.550000 1.650000 1.750000 1.850000 1.950000 2.050000 2.150000 2.250000 2.350000 2.450000 2.550000 2.650000 2.750000 2.850000 2.950000 3.050000 3.150000 3.250000 3.350000 3.450000 3.550000 3.650000 3.750000 3.850000 3.950000 4.050000 4.150000 4.250000 4.350000 4.450000 4.550000 4.650000 4.750000 4.850000 4.950000 5.050000 5.150000 5.250000 5.350000 5.450000 5.550000 5.650000 5.750000 5.850000 5.950000 6.050000 6.150000 6.250000 6.350000 6.450000 6.550000 6.650000 6.750000 6.850000 6.950000 7.050000 7.150000 7.250000 7.350000 7.450000 
Z_COORDINATES 1 double
0.0
POINT_DATA 15000
VECTORS Vektorfeld double
0.999658 0.000342 0.0
0.998744 0.000572 0.0
0.997523 0.000649 0.0
0.996210 0.000664 0.0
0.994896 0.000649 0.0
0.993631 0.000617 0.0
0.992443 0.000571 0.0
0.991356 0.000516 0.0
0.990385 0.000454 0.0
0.989544 0.000387 0.0
0.988840 0.000317 0.0
0.988275 0.000248 0.0
0.987846 0.000182 0.0
0.987541 0.000123 0.0
0.987345 0.000074 0.0
0.987231 0.000039 0.0
0.987170 0.000022 0.0
0.987122 0.000025 0.0
0.987048 0.000049 0.0
0.986904 0.000095 0.0
0.986648 0.000161 0.0
0.986242 0.000245 0.0
0.985655 0.000343 0.0
0.984863 0.000449 0.0
0.983857 0.000558 0.0
0.982635 0.000664 0.0
0.981208 0.000763 0.0
0.979596 0.000849 0.0
0.977826 0.000921 0.0
0.975931 0.000975 0.0
0.973945 0.001011 0.0
0.971906 0.001028 0.0
0.969851 0.001028 0.0
0.967813 0.001010 0.0
0.965826 0.000977 0.0
0.963921 0.000928 0.0
0.962126 0.000867 0.0
0.960464 0.000795 0.0
0.958955 0.000715 0.0
0.957610 0.000630 0.0
0.956433 0.000547 0.0
0.955418 0.000469 0.0
0.954546 0.000403 0.0
0.953791 0.000352 0.0
0.953117 0.000322 0.0
0.952482 0.000313 0.0
0.951842 0.000326 0.0
0.951158 0.000358 0.0
0.950397 0.000404 0.0
0.949535 0.000457 0.0
0.948567 0.000512 0.0
0.947495 0.000560 0.0
0.946340 0.000595 0.0
0.945131 0.000614 0.0
0.943904 0.000613 0.0
0.942701 0.000591 0.0
0.941563 0.000547 0.0
0.940533 0.000483 0.0
0.939647 0.000402 0.0
0.938941 0.000304 0.0
0.938443 0.000194 0.0
0.938175 0.000073 0.0
0.938159 -0.000057 0.0
0.938407 -0.000190 0.0
0.938917 -0.000319 0.0
0.939674 -0.000438 0.0
0.940654 -0.000542 0.0
0.941820 -0.000623 0.0
0.943121 -0.000678 0.0
0.944497 -0.000699 0.0
0.945880 -0.000684 0.0
0.947194 -0.000631 0.0
0.948366 -0.000541 0.0
0.949328 -0.000421 0.0
0.950027 -0.000279 0.0
0.950433 -0.000127 0.0
0.950540 0.000020 0.0
0.950367 0.000153 0.0
0.949948 0.000267 0.0
0.949323 0.000358 0.0
0.948541 0.000424 0.0
0.947651 0.000466 0.0
0.946697 0.000487 0.0
0.945721 0.000489 0.0
0.944756 0.000476 0.0
0.943829 0.000451 0.0
0.942958 0.000420 0.0
0.942154 0.000384 0.0
0.941420 0.000349 0.0
0.940753 0.000318 0.0
0.940142 0.000293 0.0
0.939571 0.000278 0.0
0.939016 0.000276 0.0
0.938453 0.000287 0.0
0.937852 0.000313 0.0
0.937186 0.000353 0.0
0.936427 0.000405 0.0
0.935556 0.000466 0.0
0.934559 0.000531 0.0
0.933431 0.000596 0.0
0.932180 0.000655 0.0
0.930820 0.000704 0.0
0.929378 0.000738 0.0
0.927885 0.000755 0.0
0.926378 0.000752 0.0
0.924897 0.000729 0.0
0.923482 0.000686 0.0
0.922171 0.000625 0.0
0.921000 0.000547 0.0
0.919999 0.000454 0.0
0.919195 0.000350 0.0
0.918606 0.000239 0.0
0.918245 0.000122 0.0
0.918120 0.000002 0.0
0.918233 -0.000115 0.0
0.918570 -0.000222 0.0
0.919105 -0.000313 0.0
0.919799 -0.000381 0.0
0.920604 -0.000423 0.0
0.921462 -0.000435 0.0
0.922313 -0.000416 0.0
0.923094 -0.000366 0.0
0.923750 -0.000290 0.0
0.924233 -0.000194 0.0
0.924515 -0.000088 0.0
0.924587 0.000016 0.0
0.924459 0.000111 0.0
0.924158 0.000190 0.0
0.923719 0.000249 0.0
0.923187 0.000284 0.0
0.922609 0.000295 0.0
0.922031 0.000283 0.0
0.921497 0.000251 0.0
0.921044 0.000202 0.0
0.920702 0.000140 0.0
0.920494 0.000068 0.0
0.920437 -0.000010 0.0
0.920537 -0.000090 0.0
0.920792 -0.000165 0.0
0.921186 -0.000229 0.0
0.921694 -0.000279 0.0
0.922282 -0.000310 0.0
0.922910 -0.000319 0.0
0.923533 -0.000304 0.0
0.924104 -0.000266 0.0
0.924575 -0.000205 0.0
0.924907 -0.000126 0.0
0.925065 -0.000032 0.0
0.925030 0.000067 0.0
0.924792 0.000170 0.0
0.924351 0.000271 0.0
0.923715 0.000365 0.0
0.922902 0.000448 0.0
0.921938 0.000516 0.0
0.920856 0.000567 0.0
0.919689 0.000600 0.0
0.918474 0.000615 0.0
0.917247 0.000613 0.0
0.916039 0.000595 0.0
0.914880 0.000564 0.0
0.913793 0.000523 0.0
0.912794 0.000475 0.0
0.911895 0.000424 0.0
0.911098 0.000373 0.0
0.910397 0.000327 0.0
0.909780 0.000290 0.0
0.909226 0.000264 0.0
0.908707 0.000255 0.0
0.908190 0.000262 0.0
0.907638 0.000289 0.0
0.907013 0.000335 0.0
0.906282 0.000397 0.0
0.905414 0.000471 0.0
0.904390 0.000552 0.0
0.903204 0.000634 0.0
0.901862 0.000709 0.0
0.900382 0.000772 0.0
0.898793 0.000817 0.0
0.897133 0.000843 0.0
0.895443 0.000847 0.0
0.893768 0.000829 0.0
0.892150 0.000789 0.0
0.890629 0.000731 0.0
0.889241 0.000657 0.0
0.888016 0.000568 0.0
0.886978 0.000469 0.0
0.886146 0.000363 0.0
0.885532 0.000252 0.0
0.885141 0.000139 0.0
0.884974 0.000028 0.0
0.885027 -0.000081 0.0
0.885287 -0.000179 0.0
0.885729 -0.000263 0.0
0.886321 -0.000328 0.0
0.887022 -0.000373 0.0
0.887792 -0.000397 0.0
0.888593 -0.000404 0.0
0.889403 -0.000406 0.0
0.890259 -0.000449 0.0
0.891188 -0.000481 0.0
1.000202 0.000482 0.0
1.000673 0.000875 0.0
1.001223 0.001017 0.0
1.001796 0.001036 0.0
1.002405 0.000983 0.0
1.003071 0.000882 0.0
1.003817 0.000747 0.0
1.004662 0.000583 0.0
1.005620 0.000399 0.0
1.006705 0.000198 0.0
1.007925 -0.000010 0.0
1.009283 -0.000218 0.0
1.010775 -0.000416 0.0
1.012392 -0.000593 0.0
1.014116 -0.000738 0.0
1.015923 -0.000841 0.0
1.017779 -0.000892 0.0
1.019646 -0.000881 0.0
1.021481 -0.000805 0.0
1.023238 -0.000663 0.0
1.024871 -0.000458 0.0
1.026341 -0.000199 0.0
1.027613 0.000102 0.0
1.028664 0.000429 0.0
1.029483 0.000765 0.0
1.030070 0.001092 0.0
1.030436 0.001395 0.0
1.030603 0.001661 0.0
1.030601 0.001881 0.0
1.030464 0.002048 0.0
1.030227 0.002160 0.0
1.029927 0.002218 0.0
1.029596 0.002224 0.0
1.029264 0.002183 0.0
1.028954 0.002100 0.0
1.028683 0.001981 0.0
1.028461 0.001832 0.0
1.028292 0.001660 0.0
1.028175 0.001476 0.0
1.028101 0.001288 0.0
1.028058 0.001109 0.0
1.028031 0.000950 0.0
1.027997 0.000826 0.0
1.027933 0.000747 0.0
1.027814 0.000721 0.0
1.027611 0.000753 0.0
1.027296 0.000841 0.0
1.026847 0.000977 0.0
1.026247 0.001147 0.0
1.025487 0.001334 0.0
1.024573 0.001518 0.0
1.023521 0.001677 0.0
1.022359 0.001795 0.0
1.021122 0.001860 0.0
1.019855 0.001862 0.0
1.018602 0.001798 0.0
1.017409 0.001670 0.0
1.016319 0.001480 0.0
1.015374 0.001236 0.0
1.014607 0.000943 0.0
1.014049 0.000612 0.0
1.013721 0.000251 0.0
1.013633 -0.000130 0.0
1.013785 -0.000517 0.0
1.014176 -0.000893 0.0
1.014797 -0.001243 0.0
1.015630 -0.001550 0.0
1.016645 -0.001795 0.0
1.017801 -0.001963 0.0
1.019046 -0.002035 0.0
1.020317 -0.002001 0.0
1.021544 -0.001855 0.0
1.022655 -0.001600 0.0
1.023584 -0.001252 0.0
1.024275 -0.000838 0.0
1.024694 -0.000393 0.0
1.024826 0.000047 0.0
1.024675 0.000449 0.0
1.024272 0.000794 0.0
1.023659 0.001068 0.0
1.022889 0.001267 0.0
1.022010 0.001393 0.0
1.021072 0.001453 0.0
1.020113 0.001457 0.0
1.019169 0.001416 0.0
1.018267 0.001341 0.0
1.017424 0.001244 0.0
1.016652 0.001136 0.0
1.015955 0.001028 0.0
1.015331 0.000931 0.0
1.014768 0.000854 0.0
1.014251 0.000807 0.0
1.013756 0.000797 0.0
1.013256 0.000829 0.0
1.012722 0.000907 0.0
1.012122 0.001027 0.0
1.011427 0.001185 0.0
1.010614 0.001371 0.0
1.009667 0.001571 0.0
1.008580 0.001771 0.0
1.007357 0.001954 0.0
1.006016 0.002106 0.0
1.004580 0.002214 0.0
1.003082 0.002269 0.0
1.001560 0.002266 0.0
1.000055 0.002201 0.0
0.998607 0.002077 0.0
0.997256 0.001896 0.0
0.996038 0.001664 0.0
0.994986 0.001389 0.0
0.994127 0.001079 0.0
0.993481 0.000745 0.0
0.993061 0.000396 0.0
0.992870 0.000044 0.0
0.992896 -0.000296 0.0
0.993125 -0.000607 0.0
0.993533 -0.000871 0.0
0.994090 -0.001074 0.0
0.994756 -0.001201 0.0
0.995480 -0.001241 0.0
0.996209 -0.001189 0.0
0.996884 -0.001049 0.0
0.997452 -0.000830 0.0
0.997868 -0.000553 0.0
0.998100 -0.000244 0.0
0.998135 0.000066 0.0
0.997974 0.000350 0.0
0.997640 0.000586 0.0
0.997171 0.000760 0.0
0.996613 0.000862 0.0
0.996017 0.000891 0.0
0.995429 0.000852 0.0
0.994893 0.000752 0.0
0.994448 0.000600 0.0
0.994124 0.000408 0.0
0.993942 0.000189 0.0
0.993913 -0.000045 0.0
0.994038 -0.000281 0.0
0.994311 -0.000502 0.0
0.994719 -0.000694 0.0
0.995241 -0.000844 0.0
0.995848 -0.000940 0.0
0.996504 -0.000972 0.0
0.997166 -0.000936 0.0
0.997791 -0.000830 0.0
0.998335 -0.000657 0.0
0.998756 -0.000426 0.0
0.999017 -0.000151 0.0
0.999087 0.000151 0.0
0.998946 0.000465 0.0
0.998588 0.000774 0.0
0.998023 0.001063 0.0
0.997268 0.001318 0.0
0.996349 0.001528 0.0
0.995298 0.001687 0.0
0.994153 0.001792 0.0
0.992949 0.001841 0.0
0.991723 0.001839 0.0
0.990510 0.001789 0.0
0.989340 0.001699 0.0
0.988237 0.001578 0.0
0.987220 0.001435 0.0
0.986303 0.001281 0.0
0.985488 0.001128 0.0
0.984773 0.000988 0.0
0.984146 0.000873 0.0
0.983588 0.000794 0.0
0.983069 0.000762 0.0
0.982558 0.000784 0.0
0.982013 0.000864 0.0
0.981396 0.001002 0.0
0.980667 0.001190 0.0
0.979796 0.001417 0.0
0.978760 0.001665 0.0
0.977551 0.001915 0.0
0.976174 0.002146 0.0
0.974649 0.002339 0.0
0.973007 0.002481 0.0
0.971287 0.002560 0.0
0.969533 0.002573 0.0
0.967791 0.002519 0.0
0.966105 0.002403 0.0
0.964516 0.002228 0.0
0.963060 0.002004 0.0
0.961769 0.001738 0.0
0.960667 0.001440 0.0
0.959773 0.001118 0.0
0.959101 0.000783 0.0
0.958656 0.000444 0.0
0.958434 0.000111 0.0
0.958422 -0.000206 0.0
0.958602 -0.000494 0.0
0.958950 -0.000739 0.0
0.959440 -0.000933 0.0
0.960036 -0.001066 0.0
0.960696 -0.001135 0.0
0.961376 -0.001147 0.0
0.962026 -0.001124 0.0
0.962568 -0.001129 0.0
0.962939 -0.001101 0.0
1.000085 0.000195 0.0
1.000346 0.000430 0.0
1.000745 0.000513 0.0
1.001228 0.000483 0.0
1.001784 0.000370 0.0
1.002420 0.000193 0.0
1.003150 -0.000039 0.0
1.003988 -0.000314 0.0
1.004951 -0.000625 0.0
1.006051 -0.000963 0.0
1.007296 -0.001314 0.0
1.008691 -0.001666 0.0
1.010235 -0.002003 0.0
1.011917 -0.002305 0.0
1.013722 -0.002555 0.0
1.015623 -0.002733 0.0
1.017588 -0.002821 0.0
1.019574 -0.002805 0.0
1.021535 -0.002677 0.0
1.023421 -0.002434 0.0
1.025182 -0.002082 0.0
1.026773 -0.001636 0.0
1.028157 -0.001118 0.0
1.029309 -0.000555 0.0
1.030217 0.000022 0.0
1.030881 0.000584 0.0
1.031318 0.001102 0.0
1.031551 0.001554 0.0
1.031615 0.001926 0.0
1.031548 0.002208 0.0
1.031387 0.002397 0.0
1.031171 0.002497 0.0
1.030932 0.002514 0.0
1.030699 0.002459 0.0
1.030492 0.002342 0.0
1.030325 0.002177 0.0
1.030206 0.001977 0.0
1.030135 0.001755 0.0
1.030107 0.001525 0.0
1.030116 0.001303 0.0
1.030149 0.001103 0.0
1.030192 0.000941 0.0
1.030226 0.000835 0.0
1.030230 0.000798 0.0
1.030178 0.000842 0.0
1.030042 0.000972 0.0
1.029791 0.001187 0.0
1.029397 0.001473 0.0
1.028840 0.001809 0.0
1.028107 0.002165 0.0
1.027201 0.002507 0.0
1.026140 0.002802 0.0
1.024951 0.003022 0.0
1.023675 0.003146 0.0
1.022356 0.003161 0.0
1.021044 0.003065 0.0
1.019784 0.002857 0.0
1.018621 0.002546 0.0
1.017595 0.002141 0.0
1.016743 0.001656 0.0
1.016094 0.001106 0.0
1.015672 0.000507 0.0
1.015496 -0.000121 0.0
1.015577 -0.000759 0.0
1.015916 -0.001383 0.0
1.016509 -0.001968 0.0
1.017338 -0.002487 0.0
1.018377 -0.002911 0.0
1.019583 -0.003210 0.0
1.020903 -0.003353 0.0
1.022268 -0.003319 0.0
1.023597 -0.003093 0.0
1.024804 -0.002680 0.0
1.025806 -0.002103 0.0
1.026538 -0.001409 0.0
1.026957 -0.000659 0.0
1.027053 0.000085 0.0
1.026846 0.000768 0.0
1.026377 0.001347 0.0
1.025700 0.001803 0.0
1.024871 0.002130 0.0
1.023946 0.002333 0.0
1.022972 0.002425 0.0
1.021991 0.002424 0.0
1.021036 0.002348 0.0
1.020131 0.002217 0.0
1.019295 0.002048 0.0
1.018540 0.001860 0.0
1.017868 0.001672 0.0
1.017279 0.001501 0.0
1.016761 0.001364 0.0
1.016299 0.001276 0.0
1.015870 0.001251 0.0
1.015445 0.001299 0.0
1.014993 0.001424 0.0
1.014479 0.001624 0.0
1.013870 0.001891 0.0
1.013138 0.002209 0.0
1.012264 0.002554 0.0
1.011239 0.002900 0.0
1.010066 0.003220 0.0
1.008761 0.003488 0.0
1.007348 0.003681 0.0
1.005863 0.003786 0.0
1.004342 0.003792 0.0
1.002826 0.003696 0.0
1.001356 0.003500 0.0
0.999971 0.003209 0.0
0.998706 0.002834 0.0
0.997594 0.002384 0.0
0.996662 0.001876 0.0
0.995933 0.001324 0.0
0.995421 0.000748 0.0
0.995137 0.000168 0.0
0.995082 -0.000391 0.0
0.995247 -0.000905 0.0
0.995613 -0.001348 0.0
0.996152 -0.001693 0.0
0.996820 -0.001916 0.0
0.997566 -0.001996 0.0
0.998327 -0.001923 0.0
0.999036 -0.001698 0.0
0.999627 -0.001339 0.0
1.000045 -0.000877 0.0
1.000253 -0.000360 0.0
1.000236 0.000164 0.0
1.000005 0.000644 0.0
0.999590 0.001041 0.0
0.999035 0.001329 0.0
0.998392 0.001493 0.0
0.997716 0.001534 0.0
0.997056 0.001458 0.0
0.996457 0.001280 0.0
0.995957 0.001016 0.0
0.995586 0.000687 0.0
0.995367 0.000312 0.0
0.995312 -0.000085 0.0
0.995429 -0.000482 0.0
0.995712 -0.000857 0.0
0.996150 -0.001185 0.0
0.996719 -0.001445 0.0
0.997389 -0.001616 0.0
0.998119 -0.001682 0.0
0.998864 -0.001633 0.0
0.999573 -0.001467 0.0
1.000196 -0.001187 0.0
1.000685 -0.000807 0.0
1.001001 -0.000348 0.0
1.001115 0.000164 0.0
1.001008 0.000699 0.0
1.000678 0.001228 0.0
1.000132 0.001721 0.0
0.999390 0.002157 0.0
0.998480 0.002518 0.0
0.997436 0.002792 0.0
0.996294 0.002974 0.0
0.995093 0.003064 0.0
0.993869 0.003065 0.0
0.992658 0.002987 0.0
0.991488 0.002841 0.0
0.990387 0.002641 0.0
0.989374 0.002402 0.0
0.988463 0.002144 0.0
0.987660 0.001884 0.0
0.986963 0.001644 0.0
0.986362 0.001444 0.0
0.985840 0.001304 0.0
0.985370 0.001241 0.0
0.984915 0.001271 0.0
0.984435 0.001401 0.0
0.983886 0.001632 0.0
0.983222 0.001952 0.0
0.982408 0.002341 0.0
0.981416 0.002769 0.0
0.980234 0.003202 0.0
0.978869 0.003602 0.0
0.977340 0.003937 0.0
0.975681 0.004183 0.0
0.973936 0.004323 0.0
0.972151 0.004349 0.0
0.970373 0.004263 0.0
0.968649 0.004070 0.0
0.967018 0.003781 0.0
0.965516 0.003408 0.0
0.964176 0.002966 0.0
0.963021 0.002469 0.0
0.962071 0.001932 0.0
0.961339 0.001373 0.0
0.960833 0.000806 0.0
0.960554 0.000251 0.0
0.960496 -0.000275 0.0
0.960646 -0.000754 0.0
0.960983 -0.001165 0.0
0.961479 -0.001492 0.0
0.962093 -0.001717 0.0
0.962777 -0.001829 0.0
0.963474 -0.001829 0.0
0.964116 -0.001734 0.0
0.964633 -0.001578 0.0
0.964969 -0.001359 0.0
1.000047 0.000063 0.0
1.000215 0.000134 0.0
1.000508 0.000116 0.0
1.000898 0.000007 0.0
1.001376 -0.000187 0.0
1.001945 -0.000455 0.0
1.002618 -0.000792 0.0
1.003408 -0.001190 0.0
1.004334 -0.001638 0.0
1.005408 -0.002124 0.0
1.006644 -0.002634 0.0
1.008048 -0.003146 0.0
1.009621 -0.003639 0.0
1.011355 -0.004086 0.0
1.013236 -0.004459 0.0
1.015236 -0.004730 0.0
1.017319 -0.004871 0.0
1.019438 -0.004861 0.0
1.021540 -0.004684 0.0
1.023565 -0.004337 0.0
1.025453 -0.003828 0.0
1.027148 -0.003177 0.0
1.028607 -0.002419 0.0
1.029797 -0.001596 0.0
1.030706 -0.000753 0.0
1.031336 0.000064 0.0
1.031706 0.000814 0.0
1.031851 0.001464 0.0
1.031810 0.001993 0.0
1.031628 0.002390 0.0
1.031353 0.002651 0.0
1.031027 0.002785 0.0
1.030688 0.002804 0.0
1.030367 0.002723 0.0
1.030089 0.002563 0.0
1.029869 0.002343 0.0
1.029717 0.002083 0.0
1.029636 0.001802 0.0
1.029621 0.001520 0.0
1.029667 0.001254 0.0
1.029762 0.001024 0.0
1.029890 0.000850 0.0
1.030030 0.000752 0.0
1.030156 0.000750 0.0
1.030236 0.000861 0.0
1.030231 0.001094 0.0
1.030099 0.001448 0.0
1.029799 0.001905 0.0
1.029300 0.002434 0.0
1.028583 0.002989 0.0
1.027650 0.003521 0.0
1.026521 0.003979 0.0
1.025234 0.004321 0.0
1.023838 0.004518 0.0
1.022390 0.004556 0.0
1.020945 0.004428 0.0
1.019557 0.004141 0.0
1.018276 0.003706 0.0
1.017146 0.003137 0.0
1.016204 0.002454 0.0
1.015483 0.001678 0.0
1.015009 0.000830 0.0
1.014803 -0.000063 0.0
1.014880 -0.000974 0.0
1.015244 -0.001871 0.0
1.015892 -0.002721 0.0
1.016812 -0.003484 0.0
1.017978 -0.004119 0.0
1.019348 -0.004579 0.0
1.020866 -0.004821 0.0
1.022453 -0.004802 0.0
1.024012 -0.004497 0.0
1.025434 -0.003904 0.0
1.026609 -0.003057 0.0
1.027447 -0.002026 0.0
1.027895 -0.000909 0.0
1.027946 0.000189 0.0
1.027636 0.001181 0.0
1.027028 0.002010 0.0
1.026198 0.002649 0.0
1.025217 0.003094 0.0
1.024153 0.003359 0.0
1.023059 0.003467 0.0
1.021980 0.003444 0.0
1.020948 0.003316 0.0
1.019990 0.003112 0.0
1.019122 0.002856 0.0
1.018356 0.002574 0.0
1.017695 0.002291 0.0
1.017136 0.002031 0.0
1.016669 0.001819 0.0
1.016275 0.001677 0.0
1.015928 0.001626 0.0
1.015595 0.001681 0.0
1.015238 0.001851 0.0
1.014813 0.002136 0.0
1.014279 0.002523 0.0
1.013600 0.002988 0.0
1.012749 0.003499 0.0
1.011714 0.004015 0.0
1.010500 0.004493 0.0
1.009125 0.004895 0.0
1.007621 0.005190 0.0
1.006029 0.005355 0.0
1.004395 0.005378 0.0
1.002764 0.005256 0.0
1.001183 0.004991 0.0
0.999694 0.004592 0.0
0.998335 0.004073 0.0
0.997143 0.003449 0.0
0.996146 0.002739 0.0
0.995371 0.001966 0.0
0.994835 0.001153 0.0
0.994551 0.000331 0.0
0.994523 -0.000470 0.0
0.994747 -0.001214 0.0
0.995205 -0.001863 0.0
0.995867 -0.002379 0.0
0.996689 -0.002721 0.0
0.997608 -0.002857 0.0
0.998549 -0.002766 0.0
0.999429 -0.002445 0.0
1.000162 -0.001916 0.0
1.000675 -0.001230 0.0
1.000918 -0.000458 0.0
1.000876 0.000321 0.0
1.000566 0.001029 0.0
1.000031 0.001606 0.0
0.999334 0.002016 0.0
0.998542 0.002241 0.0
0.997721 0.002284 0.0
0.996929 0.002159 0.0
0.996218 0.001889 0.0
0.995628 0.001498 0.0
0.995190 0.001014 0.0
0.994929 0.000466 0.0
0.994860 -0.000115 0.0
0.994988 -0.000697 0.0
0.995312 -0.001249 0.0
0.995817 -0.001736 0.0
0.996481 -0.002126 0.0
0.997266 -0.002390 0.0
0.998129 -0.002501 0.0
0.999015 -0.002445 0.0
0.999865 -0.002214 0.0
1.000617 -0.001815 0.0
1.001216 -0.001267 0.0
1.001613 -0.000601 0.0
1.001773 0.000143 0.0
1.001678 0.000922 0.0
1.001325 0.001689 0.0
1.000726 0.002405 0.0
0.999907 0.003035 0.0
0.998903 0.003555 0.0
0.997754 0.003949 0.0
0.996506 0.004209 0.0
0.995200 0.004336 0.0
0.993880 0.004337 0.0
0.992583 0.004224 0.0
0.991343 0.004013 0.0
0.990188 0.003724 0.0
0.989141 0.003379 0.0
0.988217 0.003002 0.0
0.987424 0.002622 0.0
0.986761 0.002266 0.0
0.986219 0.001964 0.0
0.985778 0.001746 0.0
0.985409 0.001639 0.0
0.985070 0.001667 0.0
0.984712 0.001844 0.0
0.984279 0.002172 0.0
0.983714 0.002639 0.0
0.982968 0.003214 0.0
0.982005 0.003851 0.0
0.980810 0.004497 0.0
0.979389 0.005094 0.0
0.977769 0.005594 0.0
0.975996 0.005959 0.0
0.974122 0.006166 0.0
0.972205 0.006208 0.0
0.970299 0.006087 0.0
0.968456 0.005814 0.0
0.966720 0.005404 0.0
0.965128 0.004877 0.0
0.963713 0.004252 0.0
0.962500 0.003550 0.0
0.961510 0.002791 0.0
0.960756 0.001999 0.0
0.960248 0.001195 0.0
0.959986 0.000403 0.0
0.959967 -0.000351 0.0
0.960180 -0.001041 0.0
0.960603 -0.001639 0.0
0.961207 -0.002117 0.0
0.961949 -0.002447 0.0
0.962771 -0.002605 0.0
0.963601 -0.002580 0.0
0.964355 -0.002380 0.0
0.964951 -0.002043 0.0
0.965318 -0.001597 0.0
1.000030 -0.000015 0.0
1.000146 -0.000071 0.0
1.000363 -0.000189 0.0
1.000670 -0.000386 0.0
1.001066 -0.000667 0.0
1.001557 -0.001035 0.0
1.002157 -0.001485 0.0
1.002883 -0.002014 0.0
1.003756 -0.002612 0.0
1.004794 -0.003263 0.0
1.006013 -0.003949 0.0
1.007424 -0.004645 0.0
1.009033 -0.005321 0.0
1.010835 -0.005941 0.0
1.012817 -0.006466 0.0
1.014951 -0.006857 0.0
1.017199 -0.007074 0.0
1.019506 -0.007085 0.0
1.021808 -0.006864 0.0
1.024031 -0.006405 0.0
1.026101 -0.005717 0.0
1.027947 -0.004829 0.0
1.029510 -0.003790 0.0
1.030753 -0.002659 0.0
1.031658 -0.001503 0.0
1.032233 -0.000390 0.0
1.032503 0.000625 0.0
1.032514 0.001498 0.0
1.032317 0.002198 0.0
1.031970 0.002713 0.0
1.031528 0.003045 0.0
1.031043 0.003203 0.0
1.030559 0.003209 0.0
1.030111 0.003086 0.0
1.029726 0.002862 0.0
1.029424 0.002565 0.0
1.029216 0.002221 0.0
1.029105 0.001856 0.0
1.029091 0.001494 0.0
1.029167 0.001157 0.0
1.029324 0.000869 0.0
1.029544 0.000656 0.0
1.029807 0.000543 0.0
1.030082 0.000559 0.0
1.030327 0.000728 0.0
1.030491 0.001069 0.0
1.030515 0.001581 0.0
1.030341 0.002246 0.0
1.029916 0.003016 0.0
1.029213 0.003827 0.0
1.028229 0.004601 0.0
1.026993 0.005265 0.0
1.025555 0.005760 0.0
1.023981 0.006048 0.0
1.022344 0.006112 0.0
1.020711 0.005950 0.0
1.019145 0.005573 0.0
1.017702 0.004998 0.0
1.016428 0.004248 0.0
1.015366 0.003348 0.0
1.014549 0.002322 0.0
1.014007 0.001201 0.0
1.013763 0.000016 0.0
1.013833 -0.001199 0.0
1.014229 -0.002405 0.0
1.014951 -0.003558 0.0
1.015991 -0.004607 0.0
1.017328 -0.005498 0.0
1.018925 -0.006167 0.0
1.020721 -0.006547 0.0
1.022629 -0.006571 0.0
1.024530 -0.006189 0.0
1.026278 -0.005382 0.0
1.027717 -0.004193 0.0
1.028716 -0.002726 0.0
1.029200 -0.001141 0.0
1.029172 0.000397 0.0
1.028696 0.001758 0.0
1.027874 0.002863 0.0
1.026814 0.003686 0.0
1.025615 0.004236 0.0
1.024355 0.004541 0.0
1.023095 0.004638 0.0
1.021881 0.004566 0.0
1.020746 0.004361 0.0
1.019715 0.004057 0.0
1.018803 0.003689 0.0
1.018022 0.003288 0.0
1.017374 0.002885 0.0
1.016856 0.002513 0.0
1.016456 0.002204 0.0
1.016156 0.001988 0.0
1.015924 0.001894 0.0
1.015722 0.001948 0.0
1.015500 0.002164 0.0
1.015205 0.002544 0.0
1.014780 0.003074 0.0
1.014175 0.003721 0.0
1.013355 0.004438 0.0
1.012303 0.005164 0.0
1.011022 0.005839 0.0
1.009540 0.006407 0.0
1.007898 0.006824 0.0
1.006148 0.007062 0.0
1.004347 0.007107 0.0
1.002550 0.006955 0.0
1.000809 0.006613 0.0
0.999174 0.006095 0.0
0.997685 0.005417 0.0
0.996383 0.004600 0.0
0.995299 0.003669 0.0
0.994462 0.002649 0.0
0.993895 0.001573 0.0
0.993614 0.000476 0.0
0.993628 -0.000602 0.0
0.993936 -0.001614 0.0
0.994523 -0.002509 0.0
0.995361 -0.003233 0.0
0.996402 -0.003728 0.0
0.997575 -0.003942 0.0
0.998788 -0.003835 0.0
0.999928 -0.003396 0.0
1.000880 -0.002650 0.0
1.001539 -0.001669 0.0
1.001837 -0.000561 0.0
1.001754 0.000549 0.0
1.001321 0.001544 0.0
1.000606 0.002340 0.0
0.999699 0.002886 0.0
0.998691 0.003170 0.0
0.997666 0.003202 0.0
0.996692 0.003007 0.0
0.995827 0.002618 0.0
0.995114 0.002072 0.0
0.994587 0.001405 0.0
0.994269 0.000653 0.0
0.994179 -0.000143 0.0
0.994324 -0.000943 0.0
0.994702 -0.001705 0.0
0.995300 -0.002384 0.0
0.996093 -0.002934 0.0
0.997041 -0.003315 0.0
0.998090 -0.003489 0.0
0.999177 -0.003430 0.0
1.000228 -0.003129 0.0
1.001168 -0.002592 0.0
1.001924 -0.001845 0.0
1.002437 -0.000933 0.0
1.002663 0.000088 0.0
1.002581 0.001154 0.0
1.002190 0.002201 0.0
1.001510 0.003172 0.0
1.000575 0.004021 0.0
0.999432 0.004716 0.0
0.998132 0.005236 0.0
0.996729 0.005574 0.0
0.995273 0.005732 0.0
0.993813 0.005721 0.0
0.992394 0.005557 0.0
0.991052 0.005262 0.0
0.989819 0.004862 0.0
0.988721 0.004386 0.0
0.987775 0.003865 0.0
0.986992 0.003335 0.0
0.986374 0.002834 0.0
0.985910 0.002401 0.0
0.985582 0.002078 0.0
0.985356 0.001903 0.0
0.985184 0.001914 0.0
0.985004 0.002135 0.0
0.984744 0.002575 0.0
0.984327 0.003219 0.0
0.983684 0.004024 0.0
0.982764 0.004924 0.0
0.981546 0.005838 0.0
0.980038 0.006682 0.0
0.978281 0.007383 0.0
0.976335 0.007889 0.0
0.974271 0.008173 0.0
0.972162 0.008228 0.0
0.970074 0.008061 0.0
0.968065 0.007692 0.0
0.966182 0.007145 0.0
0.964467 0.006444 0.0
0.962952 0.005616 0.0
0.961662 0.004688 0.0
0.960620 0.003686 0.0
0.959839 0.002638 0.0
0.959329 0.001573 0.0
0.959094 0.000521 0.0
0.959132 -0.000487 0.0
0.959432 -0.001417 0.0
0.959977 -0.002231 0.0
0.960736 -0.002889 0.0
0.961666 -0.003347 0.0
0.962702 -0.003562 0.0
0.963752 -0.003503 0.0
0.964705 -0.003165 0.0
0.965445 -0.002593 0.0
0.965868 -0.001839 0.0
1.000020 -0.000065 0.0
1.000097 -0.000214 0.0
1.000250 -0.000416 0.0
1.000476 -0.000693 0.0
1.000782 -0.001062 0.0
1.001180 -0.001530 0.0
1.001690 -0.002100 0.0
1.002333 -0.002770 0.0
1.003135 -0.003531 0.0
1.004119 -0.004366 0.0
1.005309 -0.005255 0.0
1.006723 -0.006165 0.0
1.008371 -0.007058 0.0
1.010254 -0.007890 0.0
1.012364 -0.008608 0.0
1.014673 -0.009159 0.0
1.017138 -0.009486 0.0
1.019698 -0.009540 0.0
1.022273 -0.009286 0.0
1.024771 -0.008705 0.0
1.027093 -0.007809 0.0
1.029147 -0.006637 0.0
1.030855 -0.005254 0.0
1.032167 -0.003748 0.0
1.033063 -0.002214 0.0
1.033555 -0.000745 0.0
1.033683 0.000582 0.0
1.033506 0.001707 0.0
1.033095 0.002596 0.0
1.032523 0.003235 0.0
1.031859 0.003629 0.0
1.031165 0.003799 0.0
1.030491 0.003772 0.0
1.029879 0.003583 0.0
1.029358 0.003270 0.0
1.028950 0.002868 0.0
1.028667 0.002410 0.0
1.028515 0.001930 0.0
1.028495 0.001455 0.0
1.028601 0.001013 0.0
1.028826 0.000632 0.0
1.029156 0.000343 0.0
1.029568 0.000181 0.0
1.030029 0.000185 0.0
1.030489 0.000396 0.0
1.030882 0.000844 0.0
1.031124 0.001540 0.0
1.031125 0.002461 0.0
1.030806 0.003544 0.0
1.030119 0.004690 0.0
1.029058 0.005782 0.0
1.027663 0.006714 0.0
1.026008 0.007403 0.0
1.024186 0.007801 0.0
1.022291 0.007893 0.0
1.020407 0.007686 0.0
1.018608 0.007201 0.0
1.016954 0.006466 0.0
1.015498 0.005511 0.0
1.014280 0.004365 0.0
1.013339 0.003063 0.0
1.012705 0.001637 0.0
1.012405 0.000124 0.0
1.012461 -0.001434 0.0
1.012887 -0.002992 0.0
1.013691 -0.004497 0.0
1.014873 -0.005889 0.0
1.016419 -0.007099 0.0
1.018300 -0.008044 0.0
1.020463 -0.008628 0.0
1.022812 -0.008747 0.0
1.025201 -0.008304 0.0
1.027431 -0.007244 0.0
1.029265 -0.005605 0.0
1.030498 -0.003546 0.0
1.031019 -0.001326 0.0
1.030845 0.000784 0.0
1.030102 0.002590 0.0
1.028957 0.003998 0.0
1.027570 0.004997 0.0
1.026072 0.005623 0.0
1.024555 0.005931 0.0
1.023084 0.005979 0.0
1.021703 0.005821 0.0
1.020440 0.005503 0.0
1.019319 0.005068 0.0
1.018353 0.004555 0.0
1.017553 0.004003 0.0
1.016921 0.003449 0.0
1.016456 0.002933 0.0
1.016144 0.002495 0.0
1.015966 0.002175 0.0
1.015889 0.002016 0.0
1.015866 0.002052 0.0
1.015835 0.002311 0.0
1.015724 0.002802 0.0
1.015458 0.003507 0.0
1.014965 0.004385 0.0
1.014193 0.005366 0.0
1.013117 0.006364 0.0
1.011745 0.007291 0.0
1.010113 0.008068 0.0
1.008280 0.008638 0.0
1.006315 0.008963 0.0
1.004291 0.009031 0.0
1.002275 0.008843 0.0
1.000327 0.008412 0.0
0.998502 0.007757 0.0
0.996846 0.006900 0.0
0.995399 0.005867 0.0
0.994200 0.004686 0.0
0.993279 0.003389 0.0
0.992665 0.002014 0.0
0.992380 0.000601 0.0
0.992437 -0.000798 0.0
0.992842 -0.002130 0.0
0.993588 -0.003327 0.0
0.994651 -0.004316 0.0
0.995981 -0.005017 0.0
0.997502 -0.005347 0.0
0.999097 -0.005237 0.0
1.000616 -0.004653 0.0
1.001890 -0.003618 0.0
1.002764 -0.002234 0.0
1.003136 -0.000666 0.0
1.002982 0.000891 0.0
1.002357 0.002260 0.0
1.001373 0.003322 0.0
1.000165 0.004020 0.0
0.998858 0.004351 0.0
0.997558 0.004346 0.0
0.996346 0.004047 0.0
0.995284 0.003505 0.0
0.994414 0.002767 0.0
0.993772 0.001879 0.0
0.993382 0.000886 0.0
0.993264 -0.000166 0.0
0.993426 -0.001227 0.0
0.993872 -0.002244 0.0
0.994588 -0.003159 0.0
0.995550 -0.003913 0.0
0.996712 -0.004446 0.0
0.998014 -0.004708 0.0
0.999375 -0.004659 0.0
1.000704 -0.004280 0.0
1.001902 -0.003578 0.0
1.002876 -0.002588 0.0
1.003547 -0.001373 0.0
1.003860 -0.000011 0.0
1.003791 0.001405 0.0
1.003343 0.002789 0.0
1.002547 0.004061 0.0
1.001451 0.005162 0.0
1.000118 0.006051 0.0
0.998613 0.006705 0.0
0.997003 0.007119 0.0
0.995348 0.007298 0.0
0.993706 0.007257 0.0
0.992125 0.007021 0.0
0.990649 0.006617 0.0
0.989313 0.006076 0.0
0.988146 0.005437 0.0
0.987169 0.004737 0.0
0.986395 0.004021 0.0
0.985829 0.003334 0.0
0.985464 0.002729 0.0
0.985282 0.002260 0.0
0.985247 0.001982 0.0
0.985304 0.001950 0.0
0.985375 0.002207 0.0
0.985364 0.002774 0.0
0.985165 0.003637 0.0
0.984675 0.004739 0.0
0.983821 0.005984 0.0
0.982569 0.007249 0.0
0.980935 0.008412 0.0
0.978979 0.009366 0.0
0.976789 0.010042 0.0
0.974463 0.010410 0.0
0.972096 0.010468 0.0
0.969767 0.010237 0.0
0.967543 0.009749 0.0
0.965475 0.009038 0.0
0.963603 0.008137 0.0
0.961961 0.007081 0.0
0.960574 0.005900 0.0
0.959464 0.004627 0.0
0.958647 0.003296 0.0
0.958133 0.001939 0.0
0.957928 0.000594 0.0
0.958032 -0.000702 0.0
0.958438 -0.001908 0.0
0.959133 -0.002979 0.0
0.960093 -0.003861 0.0
0.961277 -0.004490 0.0
0.962616 -0.004793 0.0
0.963999 -0.004704 0.0
0.965269 -0.004187 0.0
0.966246 -0.003287 0.0
0.966763 -0.002085 0.0
1.000011 -0.000095 0.0
1.000053 -0.000304 0.0
1.000141 -0.000566 0.0
1.000280 -0.000909 0.0
1.000484 -0.001356 0.0
1.000772 -0.001921 0.0
1.001168 -0.002614 0.0
1.001703 -0.003434 0.0
1.002408 -0.004373 0.0
1.003317 -0.005417 0.0
1.004459 -0.006537 0.0
1.005863 -0.007699 0.0
1.007548 -0.008856 0.0
1.009524 -0.009951 0.0
1.011786 -0.010918 0.0
1.014313 -0.011684 0.0
1.017057 -0.012170 0.0
1.019949 -0.012307 0.0