# vtk DataFile Version 3.0
Scalar Field
ASCII
DATASET RECTILINEAR_GRID
DIMENSIONS 200 75 1
X_COORDINATES 200 double
0.050000 0.150000 0.250000 0.350000 0.450000 0.550000 0.650000 0.750000 0.850000 0.950000 1.050000 1.150000 1.250000 1.350000 1.450000 1.550000 1.650000 1.750000 1.850000 1.950000 2.050000 2.150000 2.250000 2.350000 2.450000 2.550000 2.650000 2.750000 2.850000 2.950000 3.050000 3.150000 3.250000 3.350000 3.450000 3.550000 3.650000 3.750000 3.850000 3.950000 4.050000 4.150000 4.250000 4.350000 4.450000 4.550000 4.650000 4.750000 4.850000 4.950000 5.050000 5.150000 5.250000 5.350000 5.450000 5.550000 5.650000 5.750000 5.850000 5.950000 6.050000 6.150000 6.250000 6.350000 6.450000 6.550000 6.650000 6.750000 6.850000 6.950000 7.050000 7.150000 7.250000 7.350000 7.450000 7.550000 7.650000 7.750000 7.850000 7.950000 8.050000 8.150000 8.250000 8.350000 8.450000 8.550000 8.650000 8.750000 8.850000 8.950000 9.050000 9.150000 9.250000 9.350000 9.450000 9.550000 9.650000 9.750000 9.850000 9.950000 10.050000 10.150000 10.250000 10.350000 10.450000 10.550000 10.650000 10.750000 10.850000 10.950000 11.050000 11.150000 11.250000 11.350000 11.450000 11.550000 11.650000 11.750000 11.850000 11.950000 12.050000 12.150000 12.250000 12.350000 12.450000 12.550000 12.650000 12.750000 12.850000 12.950000 13.050000 13.150000 13.250000 13.350000 13.450000 13.550000 13.650000 13.750000 13.850000 13.950000 14.050000 14.150000 14.250000 14.350000 14.450000 14.550000 14.650000 14.750000 14.850000 14.950000 15.050000 15.150000 15.250000 15.350000 15.450000 15.550000 15.650000 15.750000 15.850000 15.950000 16.050000 16.150000 16.250000 16.350000 16.450000 16.550000 16.650000 16.750000 16.850000 16.950000 17.050000 17.150000 17.250000 17.350000 17.450000 17.550000 17.650000 17.750000 17.850000 17.950000 18.050000 18.150000 18.250000 18.350000 18.450000 18.550000 18.650000 18.750000 18.850000 18.950000 19.050000 19.150000 19.250000 19.350000 19.450000 19.550000 19.650000 19.750000 19.850000 19.950000 
Y_COORDINATES 75 double
0.050000 0.150000 0.250000 0.350000 0.450000 0.550000 0.650000 0.750000 0.850000 0.950000 1.050000 1.150000 1.250000 1.350000 1.450000 1.550000 1.650000 1.750000 1.850000 1.950000 2.050000 2.150000 2.250000 2.350000 2.450000 2.550000 2.650000 2.750000 2.850000 2.950000 3.050000 3.150000 3.250000 3.350000 3.450000 3.550000 3.650000 3.750000 3.850000 3.950000 4.050000 4.150000 4.250000 4.350000 4.450000 4.550000 4.650000 4.750000 4.850000 4.950000 5.050000 5.150000 5.250000 5.350000 5.450000 5.550000 5.650000 5.750000 5.850000 5.950000 6.050000 6.150000 6.250000 6.350000 6.450000 6.550000 6.650000 6.750000 6.850000 6.950000 7.050000 7.150000 7.250000 7.350000 7.450000 
Z_COORDINATES 1 double
0.0
POINT_DATA 15000
SCALARS Skalarfeld double 1
LOOKUP_TABLE default
0.167906
0.166612
0.165762
0.165057
0.164378
0.163666
0.162885
0.162011
0.161025
0.159913
0.158665
0.157276
0.155747
0.154084
0.152302
0.150420
0.148467
0.146478
0.144492
0.142551
0.140698
0.138976
0.137418
0.136052
0.134895
0.133952
0.133220
0.132680
0.132310
0.132078
0.131949
0.131888
0.131858
0.131827
0.131764
0.131645
0.131451
0.131166
0.130786
0.130308
0.129740
0.129094
0.128389
0.127651
0.126909
0.126196
0.125545
0.124988
0.124550
0.124247
0.124086
0.124063
0.124159
0.124349
0.124599
0.124872
0.125129
0.125332
0.125445
0.125437
0.125280
0.124952
0.124437
0.123724
0.122810
0.121699
0.120404
0.118946
0.117357
0.115678
0.113961
0.112263
0.110646
0.109172
0.107891
0.106842
0.106045
0.105497
0.105180
0.105061
0.105101
0.105256
0.105485
0.105750
0.106022
0.106274
0.106490
0.106658
0.106774
0.106840
0.106861
0.106851
0.106826
0.106806
0.106812
0.106868
0.106994
0.107207
0.107518
0.107930
0.108440
0.109033
0.109691
0.110389
0.111096
0.111784
0.112420
0.112979
0.113433
0.113763
0.113953
0.113990
0.113870
0.113592
0.113164
0.112599
0.111917
0.111146
0.110319
0.109478
0.108665
0.107926
0.107302
0.106828
0.106528
0.106411
0.106470
0.106688
0.107032
0.107465
0.107945
0.108432
0.108888
0.109281
0.109583
0.109775
0.109844
0.109785
0.109599
0.109296
0.108891
0.108406
0.107868
0.107310
0.106765
0.106266
0.105846
0.105531
0.105341
0.105289
0.105379
0.105605
0.105956
0.106412
0.106952
0.107550
0.108181
0.108820
0.109445
0.110037
0.110583
0.111072
0.111501
0.111871
0.112189
0.112467
0.112723
0.112980
0.113265
0.113607
0.114036
0.114578
0.115259
0.116093
0.117088
0.118240
0.119536
0.120954
0.122466
0.124037
0.125634
0.127221
0.128767
0.130243
0.131622
0.132883
0.134010
0.134987
0.135805
0.136461
0.136952
0.137281
0.137457
0.137490
0.137415
0.137254
0.137025
0.136751
0.136450
0.136275
0.166585
0.166169
0.165616
0.165031
0.164411
0.163735
0.162979
0.162124
0.161153
0.160051
0.158808
0.157418
0.155882
0.154205
0.152401
0.150491
0.148503
0.146473
0.144443
0.142459
0.140566
0.138807
0.137222
0.135838
0.134675
0.133738
0.133021
0.132506
0.132167
0.131970
0.131878
0.131854
0.131859
0.131858
0.131821
0.131723
0.131542
0.131266
0.130886
0.130402
0.129821
0.129155
0.128425
0.127656
0.126879
0.126131
0.125448
0.124863
0.124406
0.124097
0.123941
0.123934
0.124058
0.124282
0.124572
0.124886
0.125183
0.125424
0.125572
0.125593
0.125461
0.125151
0.124647
0.123939
0.123020
0.121896
0.120578
0.119086
0.117452
0.115719
0.113939
0.112174
0.110493
0.108963
0.107642
0.106573
0.105776
0.105248
0.104965
0.104889
0.104974
0.105173
0.105442
0.105741
0.106039
0.106311
0.106539
0.106713
0.106828
0.106886
0.106894
0.106866
0.106819
0.106774
0.106756
0.106789
0.106896
0.107096
0.107402
0.107819
0.108341
0.108956
0.109642
0.110372
0.111113
0.111834
0.112503
0.113090
0.113568
0.113918
0.114120
0.114165
0.114045
0.113761
0.113318
0.112731
0.112018
0.111208
0.110337
0.109446
0.108582
0.107796
0.107132
0.106631
0.106320
0.106208
0.106289
0.106540
0.106927
0.107406
0.107933
0.108463
0.108957
0.109380
0.109706
0.109913
0.109989
0.109929
0.109734
0.109413
0.108983
0.108466
0.107892
0.107295
0.106711
0.106176
0.105724
0.105385
0.105181
0.105124
0.105219
0.105459
0.105831
0.106313
0.106883
0.107511
0.108171
0.108837
0.109485
0.110095
0.110654
0.111149
0.111578
0.111941
0.112245
0.112503
0.112733
0.112960
0.113211
0.113517
0.113913
0.114427
0.115087
0.115912
0.116909
0.118075
0.119396
0.120847
0.122396
0.124008
0.125644
0.127270
0.128851
0.130357
0.131762
0.133045
0.134187
0.135176
0.136001
0.136657
0.137144
0.137464
0.137627
0.137652
0.137552
0.137354
0.137090
0.136791
0.136494
0.136249
0.166044
0.165863
0.165501
0.165039
0.164501
0.163883
0.163172
0.162354
0.161411
0.160329
0.159096
0.157706
0.156156
0.154450
0.152603
0.150634
0.148573
0.146460
0.144340
0.142264
0.140284
0.138450
0.136807
0.135388
0.134213
0.133288
0.132605
0.132143
0.131870
0.131748
0.131734
0.131786
0.131863
0.131927
0.131945
0.131889
0.131738
0.131478
0.131100
0.130603
0.129994
0.129286
0.128501
0.127665
0.126815
0.125992
0.125237
0.124593
0.124096
0.123771
0.123627
0.123658
0.123841
0.124141
0.124516
0.124918
0.125303
0.125625
0.125846
0.125930
0.125849
0.125578
0.125099
0.124399
0.123473
0.122322
0.120954
0.119389
0.117658
0.115805
0.113887
0.111975
0.110150
0.108495
0.107086
0.105974
0.105182
0.104702
0.104499
0.104520
0.104707
0.105003
0.105359
0.105731
0.106086
0.106399
0.106653
0.106838
0.106949
0.106990
0.106969
0.106900
0.106804
0.106705
0.106631
0.106612
0.106675
0.106846
0.107142
0.107568
0.108121
0.108785
0.109533
0.110335
0.111153
0.111949
0.112689
0.113340
0.113872
0.114264
0.114497
0.114557
0.114438
0.114139
0.113664
0.113026
0.112244
0.111348
0.110374
0.109370
0.108390
0.107493
0.106738
0.106175
0.105838
0.105741
0.105874
0.106206
0.106692
0.107279
0.107912
0.108541
0.109120
0.109613
0.109991
0.110233
0.110325
0.110261
0.110043
0.109682
0.109193
0.108603
0.107945
0.107258
0.106582
0.105962
0.105438
0.105044
0.104806
0.104740
0.104848
0.105123
0.105546
0.106092
0.106731
0.107432
0.108162
0.108891
0.109594
0.110248
0.110836
0.111348
0.111778
0.112125
0.112398
0.112610
0.112779
0.112932
0.113102
0.113324
0.113639
0.114085
0.114696
0.115497
0.116499
0.117698
0.119076
0.120603
0.122241
0.123946
0.125675
0.127389
0.129049
0.130626
0.132091
0.133422
0.134602
0.135617
0.136456
0.137115
0.137590
0.137887
0.138012
0.137984
0.137818
0.137544
0.137201
0.136834
0.136492
0.136156
0.165841
0.165737
0.165485
0.165123
0.164668
0.164121
0.163472
0.162705
0.161805
0.160754
0.159539
0.158149
0.156579
0.154832
0.152918
0.150860
0.148688
0.146445
0.144184
0.141964
0.139848
0.137897
0.136164
0.134690
0.133498
0.132595
0.131968
0.131590
0.131422
0.131416
0.131524
0.131694
0.131881
0.132043
0.132142
0.132150
0.132044
0.131808
0.131432
0.130916
0.130266
0.129495
0.128625
0.127688
0.126724
0.125781
0.124913
0.124174
0.123612
0.123261
0.123136
0.123227
0.123504
0.123924
0.124431
0.124969
0.125485
0.125929
0.126258
0.126435
0.126429
0.126216
0.125774
0.125089
0.124152
0.122961
0.121524
0.119854
0.117982
0.115950
0.113822
0.111681
0.109628
0.107775
0.106223
0.105045
0.104269
0.103873
0.103801
0.103979
0.104326
0.104772
0.105258
0.105737
0.106175
0.106548
0.106838
0.107037
0.107142
0.107157
0.107092
0.106963
0.106792
0.106609
0.106448
0.106347
0.106342
0.106466
0.106743
0.107183
0.107783
0.108522
0.109367
0.110279
0.111213
0.112124
0.112970
0.113714
0.114327
0.114781
0.115057
0.115142
0.115026
0.114705
0.114185
0.113474
0.112592
0.111567
0.110439
0.109263
0.108104
0.107036
0.106135
0.105473
0.105096
0.105024
0.105241
0.105703
0.106346
0.107099
0.107894
0.108671
0.109376
0.109972
0.110427
0.110718
0.110833
0.110764
0.110513
0.110090
0.109514
0.108815
0.108030
0.107204
0.106389
0.105639
0.105003
0.104526
0.104239
0.104159
0.104290
0.104618
0.105121
0.105764
0.106510
0.107320
0.108154
0.108978
0.109762
0.110480
0.111113
0.111648
0.112078
0.112404
0.112630
0.112772
0.112850
0.112892
0.112938
0.113030
0.113220
0.113559
0.114092
0.114855
0.115863
0.117113
0.118582
0.120228
0.122001
0.123848
0.125716
0.127559
0.129336
0.131015
0.132566
0.133968
0.135203
0.136256
0.137117
0.137779
0.138241
0.138503
0.138573
0.138464
0.138198
0.137807
0.137339
0.136853
0.136414
0.135997
0.165828
0.165760
0.165578
0.165298
0.164927
0.164461
0.163887
0.163189
0.162347
0.161341
0.160152
0.158766
0.157173
0.155372
0.153370
0.151189
0.148863
0.146438
0.143977
0.141551
0.139239
0.137118
0.135256
0.133704
0.132491
0.131623
0.131081
0.130827
0.130810
0.130972
0.131250
0.131586
0.131925
0.132220
0.132431
0.132526
0.132480
0.132276
0.131904
0.131363
0.130657
0.129799
0.128814
0.127735
0.126609
0.125493
0.124458
0.123576
0.122916
0.122526
0.122428
0.122608
0.123026
0.123618
0.124314
0.125042
0.125738
0.126347
0.126821
0.127122
0.127218
0.127081
0.126690
0.126027
0.125080
0.123844
0.122319
0.120516
0.118457
0.116183
0.113761
0.111290
0.108899
0.106746
0.104980
0.103711
0.102971
0.102717
0.102854
0.103267
0.103845
0.104500
0.105162
0.105784
0.106330
0.106779
0.107115
0.107331
0.107426
0.107405
0.107279
0.107066
0.106792
0.106491
0.106206
0.105985
0.105878
0.105931
0.106179
0.106638
0.107304
0.108150
0.109133
0.110201
0.111295
0.112361
0.113351
0.114222
0.114939
0.115476
0.115811
0.115928
0.115818
0.115473
0.114896
0.114092
0.113080
0.111886
0.110552
0.109137
0.107722
0.106405
0.105291
0.104480
0.104046
0.104014
0.104360
0.105015
0.105886
0.106876
0.107895
0.108870
0.109744
0.110473
0.111027
0.111383
0.111527
0.111451
0.111156
0.110653
0.109961
0.109113
0.108153
0.107137
0.106130
0.105198
0.104407
0.103813
0.103458
0.103363
0.103528
0.103935
0.104551
0.105330
0.106223
0.107180
0.108155
0.109106
0.109997
0.110799
0.111490
0.112055
0.112487
0.112783
0.112950
0.113000
0.112956
0.112850
0.112725
0.112636
0.112649
0.112832
0.113251
0.113957
0.114975
0.116300
0.117898
0.119713
0.121676
0.123717
0.125772
0.127786
0.129716
0.131525
0.133187
0.134679
0.135984
0.137087
0.137977
0.138648
0.139093
0.139314
0.139315
0.139105
0.138704
0.138149
0.137496
0.136825
0.136231
0.135718
0.165941
0.165895
0.165769
0.165565
0.165281
0.164907
0.164425
0.163815
0.163051
0.162107
0.160958
0.159584
0.157968
0.156103
0.153992
0.151654
0.149124
0.146455
0.143721
0.141012
0.138429
0.136071
0.134030
0.132372
0.131135
0.130321
0.129902
0.129825
0.130020
0.130410
0.130919
0.131474
0.132012
0.132481
0.132836
0.133042
0.133073
0.132911
0.132545
0.131972
0.131197
0.130230
0.129095
0.127828
0.126480
0.125122
0.123847
0.122755
0.121947
0.121498
0.121439
0.121752
0.122372
0.123208
0.124163
0.125146
0.126078
0.126898
0.127557
0.128014
0.128237
0.128199
0.127875
0.127245
0.126294
0.125009
0.123386
0.121424
0.119136
0.116553
0.113739
0.110804
0.107921
0.105318
0.103233
0.101840
0.101182
0.101168
0.101630
0.102387
0.103287
0.104219
0.105108
0.105905
0.106583
0.107121
0.107510
0.107745
0.107826
0.107758
0.107553
0.107231
0.106819
0.106358
0.105899
0.105508
0.105253
0.105201
0.105403
0.105885
0.106643
0.107639
0.108813
0.110092
0.111402
0.112674
0.113849
0.114880
0.115731
0.116372
0.116781
0.116942
0.116842
0.116472
0.115830
0.114918
0.113748
0.112342
0.110740
0.109008
0.107240
0.105566
0.104138
0.103108
0.102590
0.102624
0.103167
0.104108
0.105305
0.106620
0.107937
0.109169
0.110254
0.111149
0.111824
0.112259
0.112440
0.112356
0.112008
0.111403
0.110562
0.109520
0.108330
0.107060
0.105792
0.104613
0.103611
0.102860
0.102416
0.102304
0.102523
0.103042
0.103815
0.104778
0.105868
0.107021
0.108179
0.109292
0.110319
0.111227
0.111991
0.112596
0.113030
0.113292
0.113385
0.113323
0.113125
0.112827
0.112476
0.112140
0.111904
0.111865
0.112119
0.112741
0.113771
0.115203
0.116987
0.119038
0.121261
0.123560
0.125857
0.128087
0.130205
0.132175
0.133970
0.135572
0.136962
0.138126
0.139055
0.139738
0.140169
0.140346
0.140267
0.139935
0.139365
0.138588
0.137670
0.136719
0.135882
0.135225
0.166136
0.166111
0.166038
0.165913
0.165725
0.165459
0.165091
0.164592
0.163931
0.163073
0.161986
0.160638
0.159005
0.157070
0.154831
0.152299
0.149509
0.146522
0.143426
0.140333
0.137377
0.134695
0.132409
0.130611
0.129348
0.128618
0.128378
0.128549
0.129033
0.129730
0.130540
0.131377
0.132169
0.132855
0.133388
0.133732
0.133858
0.133749
0.133392
0.132783
0.131925
0.130826
0.129506
0.127998
0.126356
0.124666
0.123047
0.121646
0.120616
0.120076
0.120077
0.120586
0.121499
0.122678
0.123984
0.125298
0.126529
0.127610
0.128492
0.129138
0.129516
0.129599
0.129361
0.128780
0.127834
0.126507
0.124782
0.122647
0.120097
0.117140
0.113820
0.110249
0.106646
0.103354
0.100777
0.099222
0.098740
0.099138
0.100107
0.101361
0.102695
0.103979
0.105142
0.106147
0.106973
0.107613
0.108060
0.108313
0.108374
0.108248
0.107945
0.107484
0.106894
0.106220
0.105526
0.104894
0.104424
0.104215
0.104344
0.104855
0.105740
0.106946
0.108384
0.109951
0.111545
0.113081
0.114488
0.115717
0.116730
0.117497
0.117998
0.118215
0.118133
0.117741
0.117031
0.115998
0.114646
0.112988
0.111054
0.108908
0.106657
0.104473
0.102580
0.101219
0.100577
0.100721
0.101571
0.102940
0.104603
0.106360
0.108062
0.109613
0.110951
0.112042
0.112860
0.113389
0.113614
0.113524
0.113114
0.112386
0.111360
0.110073
0.108585
0.106979
0.105361
0.103848
0.102560
0.101599
0.101038
0.100913
0.101213
0.101894
0.102884
0.104098
0.105448
0.106854
0.108245
0.109561
0.110757
0.111796
0.112651
0.113304
0.113745
0.113968
0.113977
0.113780
0.113395
0.112855
0.112212
0.111544
0.110962
0.110604
0.110613
0.111109
0.112157
0.113745
0.115795
0.118179
0.120754
0.123393
0.125994
0.128489
0.130830
0.132987
0.134938
0.136666
0.138157
0.139396
0.140372
0.141075
0.141497
0.141630
0.141469
0.141003
0.140230
0.139167
0.137876
0.136499
0.135269
0.134371
0.166379
0.166374
0.166358
0.166321
0.166248
0.166113
0.165886
0.165531
0.165005
0.164266
0.163268
0.161969
0.160333
0.158331
0.155947
0.153185
0.150074
0.146680
0.143105
0.139497
0.136033
0.132904
0.130284
0.128301
0.127015
0.126418
0.126436
0.126954
0.127832
0.128933
0.130132
0.131325
0.132431
0.133382
0.134130
0.134638
0.134878
0.134832
0.134488
0.133841
0.132890
0.131640
0.130100
0.128296
0.126275
0.124132
0.122021
0.120158
0.118787
0.118107
0.118203
0.119012
0.120357
0.122018
0.123793
0.125530
0.127127
0.128519
0.129662
0.130527
0.131086
0.131315
0.131186
0.130672
0.129749
0.128392
0.126575
0.124270
0.121446
0.118069
0.114128
0.109697
0.105029
0.100644
0.097274
0.095506
0.095404
0.096526
0.098291
0.100252
0.102150
0.103859
0.105334
0.106564
0.107550
0.108295
0.108802
0.109073
0.109109
0.108914
0.108495
0.107867
0.107054
0.106102
0.105087
0.104117
0.103334
0.102886
0.102901
0.103446
0.104513
0.106016
0.107822
0.109777
0.111743
0.113611
0.115303
0.116768
0.117970
0.118886
0.119496
0.119783
0.119731
0.119325
0.118549
0.117393
0.115845
0.113902
0.111573
0.108901
0.105997
0.103077
0.100476
0.098598
0.097768
0.098102
0.099449
0.101471
0.103800
0.106148
0.108335
0.110264
0.111893
0.113203
0.114183
0.114821
0.115102
0.115011
0.114534
0.113665
0.112416
0.110824
0.108953
0.106906
0.104819
0.102854
0.101176
0.099931
0.099222
0.099090
0.099517
0.100431
0.101724
0.103276
0.104969
0.106698
0.108380
0.109948
0.111349
0.112546
0.113510
0.114224
0.114675
0.114858
0.114773
0.114424
0.113821
0.112988
0.111972
0.110859
0.109793
0.108970
0.108614
0.108918
0.109988
0.111810
0.114253
0.117110
0.120167
0.123244
0.126222
0.129028
0.131624
0.133991
0.136117
0.137988
0.139594
0.140921
0.141955
0.142687
0.143107
0.143207
0.142971
0.142375
0.141384
0.139970
0.138164
0.136131
0.134236
0.132909
0.166630
0.166649
0.166699
0.166767
0.166830
0.166857
0.166808
0.166637
0.166290
0.165711
0.164843
0.163630
0.162017
0.159959
0.157424
0.154399
0.150900
0.146991
0.142791
0.138487
0.134324
0.130577
0.127499
0.125272
0.123978
0.123589
0.123987
0.124992
0.126404
0.128034
0.129726
0.131360
0.132844
0.134111
0.135111
0.135810
0.136182
0.136211
0.135885
0.135199
0.134151
0.132737
0.130953
0.128801
0.126306
0.123554
0.120734
0.118166
0.116254
0.115351
0.115606
0.116894
0.118893
0.121236
0.123634
0.125898
0.127927
0.129671
0.131106
0.132216
0.132983
0.133382
0.133387
0.132966
0.132087
0.130722
0.128839
0.126394
0.123324
0.119530
0.114888
0.109335
0.103072
0.096863
0.092116
0.090080
0.090820
0.093254
0.096266
0.099199
0.101786
0.103968
0.105767
0.107223
0.108366
0.109215
0.109781
0.110066
0.110074
0.109803
0.109254
0.108432
0.107350
0.106046
0.104601
0.103152
0.101903
0.101091
0.100922
0.101510
0.102841
0.104778
0.107103
0.109585
0.112032
0.114310
0.116340
0.118075
0.119493
0.120577
0.121312
0.121686
0.121678
0.121271
0.120442
0.119170
0.117430
0.115191
0.112421
0.109110
0.105333
0.101337
0.097625
0.094902
0.093775
0.094453
0.096637
0.099682
0.102967
0.106089
0.108857
0.111210
0.113149
0.114690
0.115843
0.116604
0.116958
0.116879
0.116339
0.115317
0.113810
0.111845
0.109489
0.106864
0.104147
0.101562
0.099348
0.097720
0.096819
0.096701
0.097327
0.098581
0.100299
0.102307
0.104445
0.106584
0.108625
0.110495
0.112141
0.113524
0.114617
0.115403
0.115871
0.116015
0.115832
0.115320
0.114476
0.113303
0.111826
0.110127
0.108377
0.106862
0.105943
0.105946
0.107049
0.109233
0.112272
0.115819
0.119534
0.123173
0.126599
0.129756
0.132630
0.135222
0.137534
0.139563
0.141300
0.142728
0.143833
0.144603
0.145032
0.145112
0.144828
0.144136
0.142952
0.141158
0.138672
0.135615
0.132544
0.130399
0.166844
0.166893
0.167023
0.167218
0.167449
0.167677
0.167851
0.167915
0.167802
0.167440
0.166757
0.165678
0.164130
0.162046
0.159369
0.156058
0.152105
0.147556
0.142541
0.137294
0.132159
0.127541
0.123825
0.121279
0.120008
0.119952
0.120916
0.122614
0.124749
0.127066
0.129375
0.131541
0.133471
0.135102
0.136391
0.137306
0.137827
0.137939
0.137636
0.136913
0.135770
0.134195
0.132164
0.129636
0.126580
0.123026
0.119174
0.115492
0.112687
0.111418
0.111957
0.114051
0.117070
0.120391
0.123600
0.126494
0.129004
0.131125
0.132869
0.134242
0.135238
0.135835
0.136003
0.135702
0.134897
0.133554
0.131641
0.129116
0.125894
0.121794
0.116499
0.109600
0.100953
0.091499
0.084133
0.081784
0.084497
0.089370
0.094298
0.098480
0.101819
0.104454
0.106540
0.108191
0.109472
0.110416
0.111037
0.111337
0.111315
0.110968
0.110285
0.109253
0.107864
0.106127
0.104110
0.101980
0.100029
0.098644
0.098176
0.098818
0.100551
0.103140
0.106216
0.109417
0.112479
0.115250
0.117662
0.119694
0.121342
0.122608
0.123485
0.123961
0.124018
0.123628
0.122766
0.121404
0.119501
0.116994
0.113786
0.109758
0.104853
0.099269
0.093736
0.089560
0.087938
0.089262
0.092936
0.097629
0.102278
0.106371
0.109782
0.112560
0.114795
0.116558
0.117888
0.118789
0.119239
0.119200
0.118618
0.117445
0.115652
0.113244
0.110281
0.106898
0.103327
0.099881
0.096920
0.094763
0.093620
0.093556
0.094497
0.096254
0.098574
0.101198
0.103912
0.106560
0.109033
0.111260
0.113190
0.114787
0.116027
0.116897
0.117387
0.117495
0.117218
0.116547
0.115459
0.113919
0.111901
0.109441
0.106719
0.104148
0.102334
0.101848
0.103002
0.105766
0.109750
0.114327
0.118946
0.123285
0.127220
0.130745
0.133896
0.136711
0.139216
0.141416
0.143298
0.144844
0.146033
0.146851
0.147296
0.147373
0.147083
0.146379
0.145119
0.143025
0.139731
0.135087
0.129817
0.125998
0.166971
0.167054
0.167282
0.167632
0.168070
0.168547
0.169003
0.169366
0.169555
0.169483
0.169055
0.168179
0.166760
0.164703
0.161918
0.158322
0.153860
0.148536
0.142463
0.135926
0.129409
0.123541
0.118924
0.115958
0.114779
0.115264
0.117088
0.119782
0.122897
0.126097
0.129159
0.131949
0.134390
0.136431
0.138039
0.139192
0.139873
0.140076
0.139796
0.139040
0.137810
0.136097
0.133855
0.130982
0.127324
0.122761
0.117401
0.111893
0.107534
0.105635
0.106718
0.110254
0.114922
0.119638
0.123865
0.127460
0.130459
0.132946
0.134993
0.136636
0.137880
0.138705
0.139070
0.138925
0.138223
0.136930
0.135027
0.132500
0.129294
0.125192
0.119619
0.111461
0.099393
0.083744
0.070848
0.068226
0.075908
0.085373
0.093043
0.098580
0.102543
0.105478
0.107741
0.109522
0.110911
0.111938
0.112610
0.112925
0.112879
0.112465
0.111659
0.110427
0.108718
0.106480
0.103722
0.100612
0.097576
0.095263
0.094301
0.095018
0.097385
0.100996
0.105187
0.109372
0.113202
0.116535
0.119352
0.121683
0.123564
0.125018
0.126048
0.126646
0.126790
0.126444
0.125576
0.124159
0.122154
0.119473
0.115938
0.111237
0.104985
0.097064
0.088387
0.081555
0.079078
0.081649
0.088160
0.095579
0.102115
0.107310
0.111321
0.114438
0.116899
0.118848
0.120350
0.121412
0.121999
0.122050
0.121472
0.120174
0.118089
0.115177
0.111468
0.107097
0.102354
0.097691
0.093661
0.090766
0.089321
0.089386
0.090831
0.093348
0.096527
0.099983
0.103432
0.106697
0.109677
0.112312
0.114561
0.116398
0.117802
0.118763
0.119279
0.119355
0.118995
0.118188
0.116889
0.115003
0.112406
0.108999
0.104893
0.100654
0.097367
0.096071
0.097298
0.101025
0.106584
0.112744
0.118595
0.123761
0.128218
0.132078
0.135469
0.138487
0.141182
0.143564
0.145614
0.147300
0.148588
0.149457
0.149912
0.149989
0.149736
0.149158
0.148097
0.146059
0.142089
0.135101
0.125465
0.117972
0.166946
0.167072
0.167418
0.167957
0.168650
0.169436
0.170244
0.170986
0.171563
0.171868
0.171787
0.171203
0.170000
0.168054
0.165234
0.161400
0.156414
0.150186
0.142757
0.134435
0.125905
0.118187
0.112273
0.108764
0.107812
0.109193
0.112354
0.116498
0.120940
0.125247
0.129199
0.132696
0.135698
0.138182
0.140133
0.141538
0.142389
0.142683
0.142422
0.141625
0.140317
0.138510
0.136155
0.133081
0.128933
0.123229
0.115691
0.107037
0.099807
0.096786
0.098950
0.105269
0.112684
0.119341
0.124737
0.129000
0.132407
0.135192
0.137504
0.139412
0.140926
0.142015
0.142625
0.142678
0.142111
0.140882
0.138997
0.136518
0.133531
0.129975
0.125177
0.116945
0.100738
0.072321
0.046427
0.043855
0.065304
0.083051
0.093856
0.100219
0.104271
0.107160
0.109412
0.111238
0.112702
0.113807
0.114534
0.114868
0.114805
0.114345
0.113448
0.112068
0.110089
0.107338
0.103665
0.099147
0.094366
0.090508
0.088716
0.089534
0.092943
0.098240
0.104132
0.109655
0.114398
0.118314
0.121509
0.124105
0.126197
0.127833
0.129027
0.129767
0.130030
0.129754
0.128904
0.127471
0.125444
0.122760
0.119196
0.114184
0.106663
0.095433
0.080992
0.069004
0.065016
0.069958
0.082372
0.094337
0.103234
0.109390
0.113721
0.116945
0.119489
0.121560
0.123230
0.124487
0.125270
0.125492
0.125001
0.123647
0.121303
0.117860
0.113269
0.107626
0.101267
0.094845
0.089255
0.085312
0.083497
0.083821
0.086076
0.089763
0.094186
0.098756
0.103115
0.107100
0.110647
0.113729
0.116327
0.118422
0.120001
0.121057
0.121597
0.121638
0.121203
0.120306
0.118879
0.116776
0.113696
0.109227
0.103161
0.096173
0.090368
0.087716
0.089024
0.094374
0.102738
0.111397
0.118864
0.124894
0.129766
0.133838
0.137379
0.140553
0.143429
0.146012
0.148265
0.150126
0.151536
0.152453
0.152885
0.152911
0.152686
0.152383
0.151998
0.150938
0.147322
0.137472
0.118575
0.102502
0.166692
0.166869
0.167359
0.168130
0.169133
0.170300
0.171544
0.172761
0.173831
0.174622
0.174998
0.174819
0.173947
0.172232
0.169505
0.165553
0.160114
0.152916
0.143797
0.132978
0.121403
0.110845
0.103051
0.098863
0.098386
0.101268
0.106576
0.112867
0.119081
0.124725
0.129669
0.133920
0.137507
0.140451
0.142758
0.144425
0.145447
0.145824
0.145562
0.144700
0.143302
0.141445
0.139142
0.136207
0.132029
0.125412
0.114895
0.100495
0.087596
0.082546
0.086856
0.099068
0.111120
0.120249
0.126702
0.131365
0.134950
0.137889
0.140398
0.142559
0.144371
0.145779
0.146700
0.147014
0.146617
0.145443
0.143510
0.140988
0.138268
0.135889
0.133925
0.129791
0.112163
0.055103
-0.003939
-0.006244
0.057811
0.087365
0.098961
0.104092
0.107118
0.109447
0.111482
0.113290
0.114830
0.116031
0.116827
0.117183
0.117105
0.116615
0.115676
0.114260
0.112182
0.109068
0.104416
0.097929
0.090260
0.083703
0.080527
0.081453
0.086593
0.094851
0.103399
0.110667
0.116367
0.120765
0.124214
0.126985
0.129237
0.131042
0.132409
0.133313
0.133724
0.133539
0.132712
0.131269
0.129272
0.126787
0.123721
0.119392
0.111723
0.096577
0.070907
0.048456
0.041900
0.050612
0.076855
0.095982
0.106947
0.113179
0.117134
0.120053
0.122478
0.124602
0.126448
0.127955
0.129017
0.129511
0.129222
0.127933
0.125441
0.121523
0.115985
0.108782
0.100226
0.091240
0.083355
0.077929
0.075634
0.076406
0.079948
0.085474
0.091706
0.097725
0.103145
0.107901
0.112034
0.115577
0.118538
0.120903
0.122661
0.123807
0.124354
0.124338
0.123821
0.122867
0.121448
0.119424
0.116268
0.110959
0.102302
0.090540
0.080243
0.075428
0.076699
0.084649
0.098500
0.111130
0.120463
0.127090
0.132035
0.136056
0.139592
0.142853
0.145906
0.148728
0.151242
0.153340
0.154911
0.155870
0.156205
0.156028
0.155645
0.155586
0.156404
0.158059
0.158212
0.147624
0.107665
0.070766
0.166114
0.166354
0.167018
0.168069
0.169450
0.171082
0.172862
0.174670
0.176358
0.177767
0.178731
0.179087
0.178682
0.177356
0.174916
0.171081
0.165430
0.157374
0.146286
0.131960
0.115532
0.100404
0.089913
0.084978
0.085402
0.090769
0.099703
0.109236
0.117732
0.124858
0.130797
0.135774
0.139931
0.143331
0.145997
0.147931
0.149125
0.149574
0.149274
0.148278
0.146715
0.144789
0.142720
0.140510
0.137445
0.131258
0.117421
0.091696
0.066798
0.058424
0.066381
0.092753
0.112310
0.123728
0.130390
0.134760
0.138103
0.140981
0.143607
0.146023
0.148184
0.149992
0.151329
0.152001
0.151833
0.150691
0.148538
0.145586
0.142591
0.141257
0.144343
0.153841
0.157309
0.028970
-0.114490
-0.129976
0.080784
0.107762
0.109745
0.109692
0.110437
0.111867
0.113634
0.115467
0.117150
0.118505
0.119402
0.119775
0.119636
0.119032
0.118078
0.116787
0.114954
0.111972
0.106728
0.097914
0.085563
0.074283
0.068730
0.069620
0.077424
0.091228
0.103830
0.113052
0.119426
0.123956
0.127395
0.130180
0.132520
0.134479
0.136036
0.137122
0.137650
0.137530
0.136700
0.135190
0.133153
0.130908
0.128855
0.126921
0.122685
0.106173
0.057318
0.013532
0.004222
0.013694
0.077771
0.105020
0.114827
0.118851
0.121287
0.123412
0.125544
0.127696
0.129769
0.131613
0.133049
0.133894
0.133930
0.132879
0.130453
0.126279
0.119922
0.111017
0.099618
0.086885
0.075642
0.068226
0.065265
0.066679
0.072186
0.080682
0.089515
0.097280
0.103768
0.109218
0.113873
0.117849
0.121166
0.123804
0.125739
0.126960
0.127483
0.127358
0.126697
0.125622
0.124345
0.122864
0.120569
0.115578
0.104236
0.083730
0.065228
0.057530
0.058097
0.069172
0.095332
0.113882
0.124500
0.130747
0.135048
0.138606
0.141937
0.145219
0.148466
0.151595
0.154467
0.156903
0.158715
0.159734
0.159869
0.159200
0.158150
0.157733
0.159625
0.165714
0.176935
0.182259
0.089004
0.003069
0.165099
0.165414
0.166287
0.167676
0.169513
0.171708
0.174144
0.176676
0.179137
0.181321
0.183023
0.184057
0.184264
0.183501
0.181599
0.178265
0.172930
0.164553
0.151556
0.132388
0.107628
0.084656
0.070632
0.065223
0.067150
0.076418
0.092034
0.106505
0.117656
0.126107
0.132828
0.138401
0.143066
0.146903
0.149928
0.152136
0.153510
0.154025
0.153632
0.152379
0.150447
0.148236
0.146386
0.145574
0.145753
0.144183
0.130031
0.079630
0.027685
0.016746
0.025900
0.092490
0.121194
0.131735
0.136240
0.139097
0.141655
0.144266
0.146965
0.149679
0.152278
0.154602
0.156486
0.157671
0.157848
0.156767
0.154189
0.150085
0.145178
0.142121
0.147530
0.174494
0.255405
0.188540
0.000000
-0.376273
0.236797
0.147165
0.120665
0.113646
0.112579
0.113574
0.115371
0.117429
0.119404
0.121018
0.122068
0.122449
0.122174
0.121403
0.120413
0.119397
0.118294
0.116400
0.111801
0.100871
0.080194
0.060638
0.052020
0.052293
0.063131
0.088871
0.107230
0.117732
0.123778
0.127724
0.130747
0.133350
0.135706
0.137820
0.139609
0.140937
0.141640
0.141616
0.140764
0.139064
0.136707
0.134291
0.133095
0.135110
0.141523
0.141077
0.034279
-0.051778
-0.049115
-0.081533
0.109607
0.128191
0.126790
0.125140
0.125109
0.126261
0.128129
0.130394
0.132799
0.135098
0.137028
0.138283
0.138724
0.138121
0.136075
0.132063
0.125336
0.114915
0.100003
0.081457
0.065125
0.055365
0.051745
0.053912
0.062202
0.075932
0.088475
0.098027
0.105251
0.111095
0.116108
0.120456
0.124115
0.127023
0.129131
0.130413
0.130870
0.130549
0.129572
0.128225
0.127053
0.126551
0.126628
0.125090
0.113462
0.074757
0.040893
0.032686
0.030187
0.038800
0.099000
0.123651
0.132229
0.135878
0.138465
0.141115
0.144086
0.147374
0.150875
0.154421
0.157792
0.160724
0.162925
0.164097
0.163981
0.162468
0.159848
0.157524
0.158556
0.167343
0.192558
0.259054
0.186333
0.000000
0.163510
0.163915
0.165039
0.166829
0.169209
0.172079
0.175311
0.178739
0.182149
0.185300
0.187914
0.189768
0.190709
0.190655
0.189546
0.187222
0.183138
0.175830
0.162143
0.136842