# vtk DataFile Version 3.0
Scalar Field
ASCII
DATASET RECTILINEAR_GRID
DIMENSIONS 200 75 1
X_COORDINATES 200 double
0.050000 0.150000 0.250000 0.350000 0.450000 0.550000 0.650000 0.750000 0.850000 0.950000 1.050000 1.150000 1.250000 1.350000 1.450000 1.550000 1.650000 1.750000 1.850000 1.950000 2.050000 2.150000 2.250000 2.350000 2.450000 2.550000 2.650000 2.750000 2.850000 2.950000 3.050000 3.150000 3.250000 3.350000 3.450000 3.550000 3.650000 3.750000 3.850000 3.950000 4.050000 4.150000 4.250000 4.350000 4.450000 4.550000 4.650000 4.750000 4.850000 4.950000 5.050000 5.150000 5.250000 5.350000 5.450000 5.550000 5.650000 5.750000 5.850000 5.950000 6.050000 6.150000 6.250000 6.350000 6.450000 6.550000 6.650000 6.750000 6.850000 6.950000 7.050000 7.150000 7.250000 7.350000 7.450000 7.550000 7.650000 7.750000 7.850000 7.950000 8.050000 8.150000 8.250000 8.350000 8.450000 8.550000 8.650000 8.750000 8.850000 8.950000 9.050000 9.150000 9.250000 9.350000 9.450000 9.550000 9.650000 9.750000 9.850000 9.950000 10.050000 10.150000 10.250000 10.350000 10.450000 10.550000 10.650000 10.750000 10.850000 10.950000 11.050000 11.150000 11.250000 11.350000 11.450000 11.550000 11.650000 11.750000 11.850000 11.950000 12.050000 12.150000 12.250000 12.350000 12.450000 12.550000 12.650000 12.750000 12.850000 12.950000 13.050000 13.150000 13.250000 13.350000 13.450000 13.550000 13.650000 13.750000 13.850000 13.950000 14.050000 14.150000 14.250000 14.350000 14.450000 14.550000 14.650000 14.750000 14.850000 14.950000 15.050000 15.150000 15.250000 15.350000 15.450000 15.550000 15.650000 15.750000 15.850000 15.950000 16.050000 16.150000 16.250000 16.350000 16.450000 16.550000 16.650000 16.750000 16.850000 16.950000 17.050000 17.150000 17.250000 17.350000 17.450000 17.550000 17.650000 17.750000 17.850000 17.950000 18.050000 18.150000 18.250000 18.350000 18.450000 18.550000 18.650000 18.750000 18.850000 18.950000 19.050000 19.150000 19.250000 19.350000 19.450000 19.550000 19.650000 19.750000 19.850000 19.950000 
Y_COORDINATES 75 double
0.050000 0.150000 0.250000 0.350000 0.450000 0.550000 0.650000 0.750000 0.850000 0.950000 1.050000 1.150000 1.250000 1.350000 1.450000 1.550000 1.650000 1.750000 1.850000 1.950000 2.050000 2.150000 2.250000 2.350000 2.450000 2.550000 2.650000 2.750000 2.850000 2.950000 3.050000 3.150000 3.250000 3.350000 3.450000 3.550000 3.650000 3.750000 3.850000 3.950000 4.050000 4.150000 4.250000 4.350000 4.450000 4.550000 4.650000 4.750000 4.850000 4.950000 5.050000 5.150000 5.250000 5.350000 5.450000 5.550000 5.650000 5.750000 5.850000 5.950000 6.050000 6.150000 6.250000 6.350000 6.450000 6.550000 6.650000 6.750000 6.850000 6.950000 7.050000 7.150000 7.250000 7.350000 7.450000 
Z_COORDINATES 1 double
0.0
POINT_DATA 15000
SCALARS Skalarfeld double 1
LOOKUP_TABLE default
0.167837
0.166543
0.165693
0.164988
0.164308
0.163596
0.162814
0.161939
0.160953
0.159839
0.158590
0.157200
0.155670
0.154005
0.152221
0.150338
0.148383
0.146392
0.144404
0.142461
0.140606
0.138881
0.137321
0.135952
0.134793
0.133848
0.133113
0.132571
0.132198
0.131963
0.131832
0.131768
0.131736
0.131702
0.131636
0.131514
0.131316
0.131029
0.130645
0.130164
0.129592
0.128943
0.128235
0.127493
0.126747
0.126030
0.125375
0.124814
0.124371
0.124064
0.123900
0.123872
0.123964
0.124149
0.124395
0.124664
0.124917
0.125115
0.125224
0.125211
0.125049
0.124716
0.124196
0.123477
0.122557
0.121440
0.120139
0.118674
0.117078
0.115392
0.113667
0.111961
0.110337
0.108854
0.107566
0.106509
0.105704
0.105148
0.104824
0.104698
0.104731
0.104879
0.105101
0.105360
0.105624
0.105870
0.106079
0.106241
0.106350
0.106409
0.106423
0.106406
0.106374
0.106347
0.106347
0.106397
0.106517
0.106724
0.107030
0.107438
0.107943
0.108533
0.109189
0.109884
0.110590
0.111276
0.111913
0.112471
0.112925
0.113256
0.113445
0.113483
0.113363
0.113085
0.112657
0.112091
0.111407
0.110635
0.109806
0.108963
0.108148
0.107406
0.106780
0.106304
0.106002
0.105883
0.105942
0.106159
0.106503
0.106936
0.107417
0.107905
0.108362
0.108755
0.109058
0.109251
0.109322
0.109264
0.109079
0.108777
0.108373
0.107889
0.107353
0.106796
0.106253
0.105757
0.105339
0.105028
0.104842
0.104796
0.104891
0.105123
0.105481
0.105944
0.106491
0.107095
0.107731
0.108374
0.109001
0.109594
0.110137
0.110621
0.111042
0.111399
0.111701
0.111959
0.112191
0.112420
0.112673
0.112978
0.113365
0.113862
0.114494
0.115275
0.116214
0.117308
0.118544
0.119903
0.121356
0.122872
0.124419
0.125962
0.127473
0.128923
0.130287
0.131546
0.132682
0.133683
0.134539
0.135244
0.135797
0.136200
0.136460
0.136592
0.136643
0.136623
0.136552
0.136452
0.136348
0.136444
0.166516
0.166101
0.165547
0.164962
0.164342
0.163665
0.162908
0.162053
0.161080
0.159977
0.158733
0.157342
0.155805
0.154126
0.152320
0.150409
0.148419
0.146387
0.144355
0.142369
0.140473
0.138713
0.137125
0.135739
0.134573
0.133634
0.132914
0.132397
0.132055
0.131855
0.131761
0.131734
0.131736
0.131733
0.131693
0.131592
0.131408
0.131128
0.130745
0.130258
0.129674
0.129004
0.128270
0.127497
0.126717
0.125965
0.125277
0.124689
0.124228
0.123914
0.123755
0.123744
0.123863
0.124083
0.124369
0.124678
0.124972
0.125208
0.125351
0.125368
0.125231
0.124916
0.124407
0.123692
0.122768
0.121638
0.120313
0.118815
0.117174
0.115433
0.113645
0.111873
0.110184
0.108646
0.107317
0.106239
0.105434
0.104899
0.104608
0.104525
0.104604
0.104796
0.105058
0.105351
0.105642
0.105908
0.106129
0.106296
0.106404
0.106455
0.106456
0.106421
0.106367
0.106316
0.106291
0.106318
0.106418
0.106613
0.106914
0.107326
0.107844
0.108456
0.109139
0.109867
0.110607
0.111327
0.111995
0.112581
0.113061
0.113410
0.113613
0.113658
0.113538
0.113254
0.112811
0.112223
0.111509
0.110697
0.109824
0.108931
0.108065
0.107276
0.106610
0.106107
0.105794
0.105680
0.105761
0.106011
0.106398
0.106877
0.107405
0.107935
0.108430
0.108855
0.109181
0.109390
0.109468
0.109408
0.109214
0.108894
0.108465
0.107949
0.107377
0.106781
0.106198
0.105665
0.105216
0.104881
0.104680
0.104628
0.104728
0.104974
0.105353
0.105842
0.106417
0.107052
0.107717
0.108386
0.109036
0.109647
0.110202
0.110693
0.111113
0.111463
0.111751
0.111989
0.112194
0.112392
0.112610
0.112880
0.113234
0.113703
0.114314
0.115086
0.116027
0.117135
0.118397
0.119788
0.121280
0.122836
0.124424
0.126006
0.127552
0.129034
0.130425
0.131707
0.132860
0.133873
0.134736
0.135443
0.135993
0.136386
0.136637
0.136770
0.136788
0.136721
0.136598
0.136452
0.136321
0.136395
0.165976
0.165795
0.165432
0.164970
0.164431
0.163813
0.163102
0.162283
0.161339
0.160256
0.159022
0.157630
0.156079
0.154372
0.152523
0.150552
0.148489
0.146374
0.144252
0.142174
0.140192
0.138356
0.136710
0.135289
0.134112
0.133184
0.132499
0.132034
0.131758
0.131633
0.131617
0.131667
0.131741
0.131802
0.131817
0.131758
0.131604
0.131341
0.130959
0.130459
0.129847
0.129136
0.128346
0.127507
0.126653
0.125825
0.125066
0.124419
0.123918
0.123588
0.123440
0.123467
0.123646
0.123942
0.124312
0.124711
0.125091
0.125409
0.125625
0.125705
0.125619
0.125343
0.124859
0.124154
0.123222
0.122064
0.120690
0.119118
0.117380
0.115520
0.113594
0.111674
0.109840
0.108178
0.106760
0.105640
0.104841
0.104353
0.104142
0.104156
0.104336
0.104626
0.104975
0.105341
0.105689
0.105996
0.106243
0.106421
0.106525
0.106559
0.106531
0.106456
0.106353
0.106247
0.106166
0.106140
0.106197
0.106362
0.106652
0.107074
0.107623
0.108283
0.109029
0.109829
0.110645
0.111441
0.112181
0.112831
0.113365
0.113757
0.113990
0.114051
0.113933
0.113633
0.113158
0.112519
0.111736
0.110838
0.109862
0.108856
0.107874
0.106975
0.106217
0.105651
0.105312
0.105213
0.105345
0.105677
0.106163
0.106750
0.107384
0.108014
0.108594
0.109088
0.109468
0.109711
0.109804
0.109741
0.109524
0.109163
0.108675
0.108086
0.107428
0.106741
0.106066
0.105448
0.104925
0.104534
0.104299
0.104237
0.104349
0.104629
0.105057
0.105608
0.106252
0.106957
0.107690
0.108422
0.109125
0.109777
0.110361
0.110866
0.111285
0.111618
0.111874
0.112064
0.112207
0.112331
0.112467
0.112653
0.112927
0.113329
0.113893
0.114643
0.115592
0.116737
0.118061
0.119534
0.121120
0.122777
0.124463
0.126140
0.127772
0.129329
0.130785
0.132119
0.133313
0.134354
0.135232
0.135942
0.136480
0.136853
0.137066
0.137131
0.137067
0.136904
0.136678
0.136432
0.136213
0.136029
0.165773
0.165669
0.165417
0.165054
0.164599
0.164052
0.163402
0.162635
0.161733
0.160681
0.159465
0.158073
0.156502
0.154753
0.152838
0.150778
0.148604
0.146359
0.144096
0.141874
0.139756
0.137803
0.136067
0.134591
0.133397
0.132491
0.131862
0.131481
0.131310
0.131302
0.131407
0.131575
0.131759
0.131918
0.132015
0.132020
0.131910
0.131671
0.131292
0.130773
0.130119
0.129344
0.128471
0.127530
0.126562
0.125615
0.124743
0.124000
0.123433
0.123079
0.122949
0.123036
0.123310
0.123725
0.124228
0.124762
0.125274
0.125713
0.126038
0.126211
0.126201
0.125982
0.125535
0.124844
0.123901
0.122705
0.121260
0.119584
0.117705
0.115665
0.113529
0.111380
0.109319
0.107457
0.105897
0.104711
0.103926
0.103523
0.103444
0.103614
0.103955
0.104394
0.104874
0.105347
0.105779
0.106145
0.106429
0.106621
0.106719
0.106727
0.106655
0.106518
0.106341
0.106151
0.105983
0.105874
0.105863
0.105981
0.106252
0.106688
0.107283
0.108019
0.108862
0.109772
0.110704
0.111615
0.112461
0.113206
0.113819
0.114274
0.114551
0.114636
0.114521
0.114201
0.113680
0.112969
0.112085
0.111059
0.109929
0.108751
0.107588
0.106517
0.105614
0.104949
0.104570
0.104497
0.104712
0.105173
0.105816
0.106571
0.107367
0.108144
0.108851
0.109448
0.109904
0.110197
0.110312
0.110244
0.109993
0.109570
0.108995
0.108296
0.107510
0.106684
0.105870
0.105120
0.104485
0.104009
0.103724
0.103647
0.103780
0.104112
0.104618
0.105265
0.106014
0.106826
0.107662
0.108487
0.109269
0.109983
0.110610
0.111136
0.111554
0.111863
0.112071
0.112190
0.112241
0.112253
0.112264
0.112319
0.112469
0.112764
0.113251
0.113966
0.114926
0.116128
0.117549
0.119149
0.120879
0.122686
0.124520
0.126335
0.128092
0.129758
0.131307
0.132716
0.133968
0.135049
0.135949
0.136661
0.137182
0.137514
0.137663
0.137637
0.137458
0.137158
0.136781
0.136381
0.136019
0.135651
0.165761
0.165692
0.165510
0.165230
0.164859
0.164392
0.163817
0.163119
0.162276
0.161269
0.160079
0.158691
0.157097
0.155294
0.153291
0.151108
0.148780
0.146353
0.143889
0.141462
0.139147
0.137024
0.135160
0.133605
0.132390
0.131519
0.130974
0.130718
0.130699
0.130858
0.131134
0.131467
0.131803
0.132095
0.132304
0.132395
0.132346
0.132140
0.131765
0.131220
0.130510
0.129649
0.128660
0.127578
0.126447
0.125327
0.124288
0.123402
0.122737
0.122343
0.122241
0.122418
0.122831
0.123420
0.124111
0.124835
0.125528
0.126132
0.126602
0.126899
0.126990
0.126848
0.126452
0.125783
0.124831
0.123589
0.122057
0.120247
0.118180
0.115899
0.113469
0.110989
0.108590
0.106428
0.104653
0.103376
0.102628
0.102367
0.102496
0.102902
0.103474
0.104122
0.104779
0.105394
0.105934
0.106376
0.106706
0.106915
0.107004
0.106976
0.106843
0.106622
0.106341
0.106032
0.105740
0.105511
0.105397
0.105444
0.105686
0.106140
0.106802
0.107644
0.108625
0.109691
0.110784
0.111851
0.112841
0.113712
0.114431
0.114969
0.115305
0.115424
0.115314
0.114970
0.114393
0.113589
0.112576
0.111380
0.110043
0.108626
0.107208
0.105887
0.104770
0.103956
0.103520
0.103486
0.103831
0.104485
0.105356
0.106347
0.107367
0.108344
0.109219
0.109950
0.110505
0.110862
0.111006
0.110931
0.110636
0.110133
0.109440
0.108591
0.107631
0.106614
0.105606
0.104673
0.103882
0.103289
0.102935
0.102841
0.103008
0.103417
0.104035
0.104816
0.105710
0.106669
0.107644
0.108593
0.109481
0.110277
0.110961
0.111516
0.111934
0.112213
0.112359
0.112385
0.112313
0.112175
0.112015
0.111887
0.111858
0.111997
0.112372
0.113033
0.114006
0.115288
0.116846
0.118622
0.120551
0.122562
0.124591
0.126586
0.128503
0.130307
0.131972
0.133476
0.134801
0.135933
0.136862
0.137580
0.138082
0.138367
0.138436
0.138299
0.137973
0.137490
0.136905
0.136293
0.135740
0.135225
0.165874
0.165828
0.165702
0.165498
0.165213
0.164838
0.164356
0.163745
0.162980
0.162035
0.160885
0.159510
0.157893
0.156026
0.153913
0.151574
0.149041
0.146371
0.143635
0.140923
0.138337
0.135977
0.133934
0.132273
0.131034
0.130217
0.129796
0.129716
0.129909
0.130297
0.130802
0.131355
0.131891
0.132357
0.132709
0.132912
0.132940
0.132775
0.132406
0.131830
0.131051
0.130081
0.128942
0.127671
0.126318
0.124957
0.123677
0.122581
0.121769
0.121315
0.121253
0.121561
0.122177
0.123010
0.123961
0.124940
0.125868
0.126685
0.127339
0.127792
0.128010
0.127967
0.127638
0.127003
0.126046
0.124756
0.123125
0.121156
0.118861
0.116271
0.113448
0.110504
0.107612
0.104999
0.102905
0.101504
0.100837
0.100816
0.101271
0.102021
0.102915
0.103841
0.104724
0.105516
0.106187
0.106719
0.107102
0.107330
0.107404
0.107330
0.107117
0.106787
0.106367
0.105898
0.105432
0.105033
0.104771
0.104711
0.104907
0.105384
0.106137
0.107130
0.108302
0.109580
0.110889
0.112161
0.113337
0.114370
0.115222
0.115865
0.116276
0.116438
0.116340
0.115971
0.115329
0.114417
0.113246
0.111838
0.110234
0.108498
0.106727
0.105048
0.103617
0.102584
0.102063
0.102095
0.102636
0.103577
0.104775
0.106091
0.107410
0.108643
0.109729
0.110626
0.111303
0.111739
0.111920
0.111837
0.111488
0.110883
0.110040
0.108997
0.107806
0.106534
0.105263
0.104083
0.103079
0.102328
0.101883
0.101772
0.101991
0.102511
0.103285
0.104250
0.105341
0.106493
0.107650
0.108760
0.109783
0.110684
0.111440
0.112032
0.112452
0.112696
0.112767
0.112679
0.112452
0.112119
0.111731
0.111355
0.111076
0.110993
0.111203
0.111781
0.112771
0.114165
0.115914
0.117935
0.120131
0.122409
0.124688
0.126907
0.129019
0.130989
0.132792
0.134409
0.135822
0.137017
0.137984
0.138713
0.139198
0.139433
0.139417
0.139150
0.138643
0.137925
0.137058
0.136144
0.135323
0.134634
0.166070
0.166045
0.165971
0.165846
0.165658
0.165391
0.165023
0.164523
0.163861
0.163002
0.161913
0.160564
0.158930
0.156994
0.154752
0.152219
0.149427
0.146438
0.143339
0.140244
0.137286
0.134601
0.132313
0.130512
0.129247
0.128515
0.128272
0.128440
0.128922
0.129616
0.130424
0.131259
0.132048
0.132732
0.133262
0.133603
0.133726
0.133614
0.133254
0.132642
0.131780
0.130677
0.129353
0.127841
0.126195
0.124501
0.122877
0.121472
0.120438
0.119893
0.119891
0.120396
0.121305
0.122480
0.123782
0.125092
0.126320
0.127397
0.128276
0.128917
0.129291
0.129369
0.129126
0.128540
0.127589
0.126255
0.124523
0.122381
0.119823
0.116859
0.113530
0.109950
0.106337
0.103035
0.100449
0.098884
0.098394
0.098784
0.099746
0.100995
0.102323
0.103601
0.104759
0.105757
0.106578
0.107212
0.107653
0.107900
0.107954
0.107820
0.107510
0.107041
0.106443
0.105760
0.105057
0.104418
0.103940
0.103722
0.103845
0.104350
0.105231
0.106433
0.107869
0.109435
0.111029
0.112565
0.113975
0.115205
0.116220
0.116990
0.117493
0.117712
0.117633
0.117243
0.116533
0.115500
0.114148
0.112487
0.110551
0.108400
0.106145
0.103956
0.102058
0.100693
0.100047
0.100189
0.101039
0.102408
0.104071
0.105830
0.107535
0.109087
0.110428
0.111520
0.112340
0.112870
0.113096
0.113006
0.112595
0.111866
0.110839
0.109549
0.108058
0.106449
0.104828
0.103312
0.102021
0.101057
0.100496
0.100369
0.100669
0.101350
0.102341
0.103555
0.104906
0.106311
0.107700
0.109013
0.110203
0.111235
0.112080
0.112721
0.113146
0.113350
0.113335
0.113111
0.112695
0.112119
0.111436
0.110725
0.110098
0.109694
0.109659
0.110114
0.111123
0.112679
0.114701
0.117062
0.119618
0.122243
0.124834
0.127324
0.129665
0.131828
0.133790
0.135537
0.137053
0.138324
0.139338
0.140087
0.140560
0.140749
0.140646
0.140240
0.139523
0.138509
0.137256
0.135900
0.134669
0.133718
0.166314
0.166309
0.166293
0.166256
0.166181
0.166046
0.165818
0.165462
0.164936
0.164195
0.163196
0.161897
0.160259
0.158255
0.155869
0.153105
0.149993
0.146596
0.143019
0.139408
0.135942
0.132810
0.130188
0.128202
0.126914
0.126315
0.126331
0.126846
0.127722
0.128820
0.130016
0.131208
0.132310
0.133259
0.134005
0.134510
0.134747
0.134698
0.134351
0.133700
0.132746
0.131492
0.129948
0.128139
0.126115
0.123967
0.121852
0.119984
0.118609
0.117924
0.118016
0.118821
0.120163
0.121820
0.123591
0.125325
0.126919
0.128307
0.129447
0.130307
0.130863
0.131087
0.130953
0.130435
0.129506
0.128142
0.126318
0.124007
0.121175
0.117789
0.113839
0.109398
0.104719
0.100324
0.096944
0.095166
0.095055
0.096170
0.097928
0.099884
0.101776
0.103480
0.104950
0.106175
0.107156
0.107896
0.108397
0.108661
0.108690
0.108488
0.108061
0.107424
0.106603
0.105642
0.104618
0.103639
0.102846
0.102390
0.102397
0.102936
0.103998
0.105499
0.107302
0.109256
0.111223
0.113092
0.114787
0.116254
0.117460
0.118379
0.118992
0.119282
0.119233
0.118829
0.118055
0.116899
0.115351
0.113406
0.111073
0.108396
0.105486
0.102560
0.099953
0.098069
0.097234
0.097567
0.098913
0.100936
0.103267
0.105618
0.107807
0.109739
0.111371
0.112683
0.113664
0.114303
0.114585
0.114494
0.114016
0.113146
0.111895
0.110298
0.108423
0.106372
0.104280
0.102310
0.100628
0.099380
0.098668
0.098535
0.098961
0.099875
0.101169
0.102721
0.104413
0.106142
0.107821
0.109385
0.110780
0.111969
0.112924
0.113624
0.114059
0.114222
0.114112
0.113734
0.113098
0.112227
0.111167
0.110008
0.108893
0.108022
0.107620
0.107883
0.108919
0.110713
0.113135
0.115978
0.119023
0.122094
0.125069
0.127876
0.130477
0.132854
0.134994
0.136886
0.138519
0.139879
0.140952
0.141729
0.142200
0.142354
0.142175
0.141637
0.140698
0.139329
0.137554
0.135531
0.133623
0.132224
0.166565
0.166585
0.166635
0.166702
0.166765
0.166791
0.166742
0.166569
0.166221
0.165642
0.164773
0.163558
0.161943
0.159884
0.157347
0.154320
0.150819
0.146908
0.142705
0.138399
0.134234
0.130484
0.127403
0.125174
0.123877
0.123486
0.123881
0.124884
0.126293
0.127921
0.129611
0.131243
0.132724
0.133988
0.134986
0.135683
0.136052
0.136077
0.135748
0.135059
0.134008
0.132590
0.130802
0.128646
0.126147
0.123390
0.120565
0.117992
0.116076
0.115168
0.115418
0.116703
0.118698
0.121039
0.123433
0.125694
0.127720
0.129461
0.130893
0.131999
0.132761
0.133157
0.133157
0.132730
0.131847
0.130476
0.128585
0.126134
0.123056
0.119253
0.114601
0.109037
0.102763
0.096541
0.091783
0.089736
0.090467
0.092894
0.095900
0.098829
0.101412
0.103589
0.105384
0.106835
0.107973
0.108817
0.109377
0.109656
0.109657
0.109379
0.108822
0.107991
0.106899
0.105586
0.104130
0.102671
0.101411
0.100589
0.100412
0.100993
0.102320
0.104254
0.106577
0.109059
0.111507
0.113788
0.115820
0.117560
0.118981
0.120069
0.120810
0.121187
0.121184
0.120779
0.119952
0.118681
0.116941
0.114700
0.111925
0.108609
0.104825
0.100820
0.097099
0.094369
0.093236
0.093912
0.096097
0.099144
0.102432
0.105558
0.108329
0.110686
0.112628
0.114172
0.115327
0.116089
0.116444
0.116365
0.115824
0.114800
0.113289
0.111319
0.108957
0.106326
0.103602
0.101010
0.098791
0.097157
0.096253
0.096133
0.096758
0.098012
0.099731
0.101739
0.103878
0.106016
0.108054
0.109921
0.111561
0.112936
0.114019
0.114791
0.115242
0.115365
0.115157
0.114615
0.113735
0.112520
0.110996
0.109245
0.107441
0.105872
0.104904
0.104866
0.105939
0.108102
0.111129
0.114670
0.118383
0.122023
0.125453
0.128616
0.131498
0.134103
0.136432
0.138484
0.140248
0.141710
0.142854
0.143670
0.144150
0.144286
0.144060
0.143427
0.142298
0.140550
0.138092
0.135040
0.131946
0.129712
0.166781
0.166829
0.166960
0.167154
0.167385
0.167612
0.167786
0.167849
0.167734
0.167372
0.166687
0.165607
0.164058
0.161972
0.159293
0.155980
0.152025
0.147474
0.142456
0.137206
0.132068
0.127448
0.123729
0.121180
0.119907
0.119849
0.120810
0.122506
0.124639
0.126954
0.129261
0.131424
0.133352
0.134981
0.136267
0.137180
0.137697
0.137807
0.137500
0.136775
0.135628
0.134049
0.132014
0.129482
0.126421
0.122862
0.119005
0.115318
0.112508
0.111234
0.111768
0.113859
0.116875
0.120193
0.123399
0.126290
0.128798
0.130917
0.132658
0.134027
0.135019
0.135613
0.135776
0.135470
0.134659
0.133310
0.131391
0.128859
0.125629
0.121520
0.116215
0.109304
0.100644
0.091174
0.083795
0.081434
0.084138
0.089006
0.093930
0.098107
0.101443
0.104075
0.106157
0.107804
0.109081
0.110020
0.110635
0.110929
0.110901
0.110546
0.109855
0.108814
0.107414
0.105667
0.103638
0.101496
0.099533
0.098136
0.097658
0.098294
0.100022
0.102608
0.105683
0.108885
0.111949
0.114723
0.117139
0.119176
0.120830
0.122101
0.122984
0.123465
0.123527
0.123141
0.122282
0.120921
0.119018
0.116510
0.113297
0.109262
0.104347
0.098752
0.093205
0.089019
0.087392
0.088713
0.092389
0.097087
0.101741
0.105839
0.109255
0.112037
0.114276
0.116042
0.117374
0.118277
0.118728
0.118690
0.118106
0.116930
0.115132
0.112718
0.109748
0.106357
0.102776
0.099321
0.096351
0.094187
0.093040
0.092974
0.093914
0.095672
0.097993
0.100618
0.103333
0.105981
0.108453
0.110676
0.112600
0.114190
0.115420
0.116276
0.116749
0.116836
0.116534
0.115832
0.114705
0.113119
0.111048
0.108528
0.105743
0.103109
0.101241
0.100715
0.101844
0.104596
0.108580
0.113162
0.117789
0.122137
0.126082
0.129616
0.132779
0.135609
0.138132
0.140354
0.142265
0.143845
0.145074
0.145938
0.146435
0.146571
0.146343
0.145705
0.144508
0.142467
0.139207
0.134567
0.129268
0.125343
0.166909
0.166992
0.167219
0.167569
0.168007
0.168483
0.168939
0.169301
0.169489
0.169415
0.168987
0.168109
0.166688
0.164630
0.161843
0.158245
0.153781
0.148454
0.142379
0.135839
0.129319
0.123448
0.118828
0.115859
0.114678
0.115161
0.116982
0.119674
0.122787
0.125985
0.129044
0.131833
0.134272
0.136310
0.137916
0.139066
0.139745
0.139945
0.139662
0.138903
0.137669
0.135953
0.133707
0.130829
0.127167
0.122597
0.117233
0.111718
0.107353
0.105450
0.106528
0.110061
0.114726
0.119440
0.123665
0.127257
0.130254
0.132739
0.134783
0.136423
0.137664
0.138485
0.138846
0.138696
0.137989
0.136690
0.134780
0.132247
0.129033
0.124922
0.119339
0.111169
0.099084
0.083417
0.070501
0.067867
0.075541
0.085002
0.092670
0.098205
0.102166
0.105099
0.107359
0.109137
0.110522
0.111544
0.112212
0.112521
0.112468
0.112047
0.111232
0.109991
0.108271
0.106021
0.103249
0.100125
0.097074
0.094748
0.093774
0.094483
0.096845
0.100454
0.104644
0.108832
0.112665
0.116003
0.118825
0.121163
0.123050
0.124511
0.125548
0.126153
0.126304
0.125962
0.125098
0.123684
0.121679
0.118997
0.115458
0.110749
0.104484
0.096546
0.087849
0.081002
0.078519
0.081090
0.087606
0.095033
0.101576
0.106778
0.110795
0.113918
0.116382
0.118335
0.119840
0.120904
0.121492
0.121544
0.120964
0.119663
0.117571
0.114653
0.110934
0.106552
0.101797
0.097121
0.093079
0.090175
0.088726
0.088789
0.090234
0.092753
0.095935
0.099393
0.102844
0.106111
0.109090
0.111722
0.113966
0.115795
0.117189
0.118137
0.118637
0.118692
0.118307
0.117468
0.116127
0.114191
0.111533
0.108055
0.103871
0.099555
0.096206
0.094870
0.096080
0.099810
0.105385
0.111566
0.117437
0.122620
0.127091
0.130963
0.134367
0.137400
0.140113
0.142518
0.144596
0.146316
0.147644
0.148560
0.149069
0.149207
0.149023
0.148523
0.147540
0.145573
0.141654
0.134677
0.125005
0.117397
0.166885
0.167011
0.167357
0.167896
0.168588
0.169374
0.170181
0.170922
0.171498
0.171802
0.171720
0.171135
0.169930
0.167983
0.165161
0.161324
0.156336
0.150105
0.142674
0.134348
0.125815
0.118094
0.112177
0.108665
0.107711
0.109089
0.112248
0.116390
0.120830
0.125136
0.129085
0.132581
0.135581
0.138063
0.140012
0.141414
0.142262
0.142553
0.142289
0.141489
0.140178
0.138367
0.136008
0.132929
0.128777
0.123067
0.115522
0.106861
0.099624
0.096598
0.098758
0.105074
0.112487
0.119143
0.124538
0.128799
0.132204
0.134988
0.137297
0.139202
0.140713
0.141799
0.142404
0.142453
0.141881
0.140646
0.138755
0.136269
0.133274
0.129710
0.124903
0.116658
0.100432
0.071987
0.046067
0.043480
0.064925
0.082673
0.093478
0.099842
0.103894
0.106782
0.109032
0.110855
0.112316
0.113417
0.114139
0.114467
0.114399
0.113930
0.113025
0.111635
0.109645
0.106880
0.103192
0.098656
0.093857
0.089981
0.088177
0.088985
0.092389
0.097685
0.103579
0.109106
0.113853
0.117776
0.120977
0.123581
0.125681
0.127326
0.128528
0.129277
0.129549
0.129279
0.128434
0.127005
0.124980
0.122295
0.118727
0.113706
0.106170
0.094916
0.080445
0.068433
0.064439
0.069385
0.081809
0.093786
0.102695
0.108859
0.113197
0.116427
0.118976
0.121051
0.122723
0.123982
0.124767
0.124993
0.124497
0.123139
0.120789
0.117337
0.112735
0.107078
0.100703
0.094265
0.088661
0.084706
0.082884
0.083209
0.085465
0.089156
0.093584
0.098158
0.102522
0.106508
0.110055
0.113135
0.115729
0.117817
0.119386
0.120429
0.120952
0.120973
0.120516
0.119586
0.118113
0.115956
0.112809
0.108256
0.102090
0.094996
0.089119
0.086431
0.087736
0.093112
0.101517
0.110217
0.117716
0.123768
0.128656
0.132740
0.136293
0.139480
0.142372
0.144977
0.147256
0.149150
0.150599
0.151562
0.152050
0.152141
0.151992
0.151782
0.151499
0.150544
0.147016
0.137199
0.118255
0.102062
0.166633
0.166810
0.167299
0.168070
0.169073
0.170239
0.171482
0.172699
0.173768
0.174558
0.174932
0.174752
0.173878
0.172162
0.169433
0.165479
0.160038
0.152837
0.143715
0.132893
0.121313
0.110752
0.102954
0.098763
0.098284
0.101163
0.106469
0.112759
0.118971
0.124614
0.129557
0.133805
0.137391
0.140333
0.142637
0.144302
0.145322
0.145696
0.145432
0.144566
0.143165
0.141303
0.138997
0.136058
0.131875
0.125252
0.114726
0.100317
0.087410
0.082354
0.086660
0.098870
0.110922
0.120051
0.126503
0.131165
0.134750
0.137687
0.140194
0.142353
0.144161
0.145566
0.146484
0.146794
0.146391
0.145212
0.143273
0.140744
0.138016
0.135630
0.133659
0.129516
0.111867
0.054758
-0.004328
-0.006640
0.057417
0.086978
0.098579
0.103714
0.106742
0.109071
0.111104
0.112910
0.114447
0.115644
0.116436
0.116787
0.116705
0.116205
0.115257
0.113831
0.111742
0.108614
0.103944
0.097437
0.089744
0.083163
0.079973
0.080889
0.086024
0.094282
0.102833
0.110106
0.115814
0.120220
0.123677
0.126457
0.128718
0.130534
0.131911
0.132825
0.133248
0.133070
0.132249
0.130812
0.128818
0.126334
0.123265
0.118928
0.111243
0.096068
0.070352
0.047867
0.041305
0.050025
0.076285
0.095429
0.106407
0.112650
0.116612
0.119538
0.121968
0.124095
0.125944
0.127453
0.128516
0.129013
0.128720
0.127426
0.124927
0.121001
0.115451
0.108232
0.099658
0.090654
0.082752
0.077314
0.075010
0.075784
0.079329
0.084860
0.091098
0.097122
0.102546
0.107305
0.111438
0.114980
0.117936
0.120295
0.122042
0.123175
0.123705
0.123671
0.123136
0.122135
0.120674
0.118595
0.115369
0.109966
0.101190
0.089297
0.078897
0.074061
0.075355
0.083362
0.097280
0.109966
0.119337
0.125987
0.130945
0.134974
0.138517
0.141787
0.144853
0.147693
0.150231
0.152359
0.153967
0.154973
0.155363
0.155255
0.154955
0.155001
0.155949
0.157752
0.158067
0.147582
0.107563
0.070474
0.166056
0.166296
0.166960
0.168011
0.169392
0.171022
0.172802
0.174609
0.176297
0.177705
0.178667
0.179022
0.178616
0.177288
0.174846
0.171009
0.165355
0.157297
0.146204
0.131875
0.115443
0.100309
0.089815
0.084877
0.085299
0.090664
0.099596
0.109128
0.117622
0.124747
0.130685
0.135661
0.139816
0.143214
0.145878
0.147810
0.149002
0.149448
0.149145
0.148146
0.146580
0.144650
0.142577
0.140364
0.137294
0.131100
0.117254
0.091515
0.066605
0.058225
0.066180
0.092551
0.112110
0.123530
0.130192
0.134563
0.137905
0.140782
0.143406
0.145820
0.147978
0.149784
0.151117
0.151786
0.151612
0.150465
0.148306
0.145347
0.142345
0.141004
0.144086
0.153583
0.157046
0.028612
-0.114927
-0.130388
0.080369
0.107368
0.109361
0.109314
0.110062
0.111492
0.113259
0.115090
0.116770
0.118122
0.119014
0.119381
0.119235
0.118624
0.117661
0.116361
0.114517
0.111522
0.106260
0.097424
0.085044
0.073738
0.068164
0.069041
0.076838
0.090643
0.103250
0.112480
0.118863
0.123402
0.126851
0.129646
0.131997
0.133967
0.135536
0.136633
0.137172
0.137062
0.136242
0.134739
0.132707
0.130463
0.128408
0.126468
0.122219
0.105678
0.056759
0.012938
0.003618
0.013109
0.077195
0.104461
0.114285
0.118321
0.120765
0.122897
0.125033
0.127188
0.129263
0.131108
0.132543
0.133387
0.133419
0.132365
0.129933
0.125750
0.119383
0.110464
0.099049
0.086300
0.075043
0.067618
0.064650
0.066061
0.071569
0.080068
0.088905
0.096675
0.103165
0.108616
0.113271
0.117244
0.120555
0.123184
0.125108
0.126314
0.126819
0.126672
0.125982
0.124871
0.123552
0.122016
0.119647
0.114557
0.103087
0.082433
0.063840
0.056135
0.056765
0.067935
0.094160
0.112754
0.123401
0.129663
0.133970
0.137530
0.140861
0.144147
0.147401
0.150543
0.153434
0.155896
0.157742
0.158806
0.158996
0.158401
0.157446
0.157140
0.159175
0.165444
0.176920
0.182515
0.089271
0.002749
0.165043
0.165358
0.166231
0.167619
0.169456
0.171650
0.174085
0.176617
0.179077
0.181260
0.182961
0.183994
0.184199
0.183435
0.181531
0.178195
0.172857
0.164477
0.151477
0.132304
0.107538
0.084560
0.070532
0.065120
0.067044
0.076311
0.091927
0.106397
0.117547
0.125997
0.132717
0.138289
0.142953
0.146788
0.149811
0.152017
0.153389
0.153901
0.153506
0.152249
0.150314
0.148099
0.146245
0.145431
0.145606
0.144031
0.129868
0.079443
0.027481
0.016536
0.025691
0.092284
0.120992
0.131537
0.136044
0.138902
0.141460
0.144070
0.146768
0.149480
0.152077
0.154398
0.156280
0.157460
0.157632
0.156546
0.153961
0.149851
0.144936
0.141871
0.147277
0.174248
0.255178
0.188327
0.000000
-0.376749
0.236326
0.146761
0.120281
0.113268
0.112206
0.113201
0.114998
0.117055
0.119027
0.120637
0.121681
0.122055
0.121771
0.120994
0.119998
0.118973
0.117859
0.115953
0.111337
0.100383
0.079671
0.060085
0.051441
0.051700
0.062530
0.088269
0.106635
0.117145
0.123203
0.127159
0.130192
0.132807
0.135174
0.137301
0.139103
0.140444
0.141159
0.141148
0.140307
0.138617
0.136266
0.133854
0.132657
0.134667
0.141069
0.140608
0.033685
-0.052392
-0.049707
-0.082082
0.109010
0.127617
0.126239
0.124603
0.124583
0.125742
0.127614
0.129881
0.132287
0.134585
0.136511
0.137757
0.138200
0.137595
0.135544
0.131526
0.124789
0.114357
0.099432
0.080872
0.064531
0.054766
0.051146
0.053307
0.061596
0.075323
0.087865
0.097417
0.104641
0.110484
0.115494
0.119835
0.123486
0.126382
0.128476
0.129741
0.130178
0.129833
0.128815
0.127445
0.126236
0.125682
0.125683
0.124036
0.112264
0.073360
0.039464
0.031305
0.028951
0.037733
0.097900
0.122544
0.131135
0.134794
0.137384
0.140031
0.142998
0.146284
0.149786
0.153338
0.156721
0.159673
0.161903
0.163115
0.163053
0.161616
0.159089
0.156893
0.158084
0.167077
0.192573
0.259582
0.187111
0.000000
0.163456
0.163861
0.164984
0.166774
0.169154
0.172023
0.175255
0.178681
0.182091
0.185241
0.187854
0.189706
0.190646
0.190590
0.189480
0.187154
0.183067
0.175756
0.162066
0.136759