# vtk DataFile Version 3.0
Scalar Field
ASCII
DATASET RECTILINEAR_GRID
DIMENSIONS 200 75 1
X_COORDINATES 200 double
0.050000 0.150000 0.250000 0.350000 0.450000 0.550000 0.650000 0.750000 0.850000 0.950000 1.050000 1.150000 1.250000 1.350000 1.450000 1.550000 1.650000 1.750000 1.850000 1.950000 2.050000 2.150000 2.250000 2.350000 2.450000 2.550000 2.650000 2.750000 2.850000 2.950000 3.050000 3.150000 3.250000 3.350000 3.450000 3.550000 3.650000 3.750000 3.850000 3.950000 4.050000 4.150000 4.250000 4.350000 4.450000 4.550000 4.650000 4.750000 4.850000 4.950000 5.050000 5.150000 5.250000 5.350000 5.450000 5.550000 5.650000 5.750000 5.850000 5.950000 6.050000 6.150000 6.250000 6.350000 6.450000 6.550000 6.650000 6.750000 6.850000 6.950000 7.050000 7.150000 7.250000 7.350000 7.450000 7.550000 7.650000 7.750000 7.850000 7.950000 8.050000 8.150000 8.250000 8.350000 8.450000 8.550000 8.650000 8.750000 8.850000 8.950000 9.050000 9.150000 9.250000 9.350000 9.450000 9.550000 9.650000 9.750000 9.850000 9.950000 10.050000 10.150000 10.250000 10.350000 10.450000 10.550000 10.650000 10.750000 10.850000 10.950000 11.050000 11.150000 11.250000 11.350000 11.450000 11.550000 11.650000 11.750000 11.850000 11.950000 12.050000 12.150000 12.250000 12.350000 12.450000 12.550000 12.650000 12.750000 12.850000 12.950000 13.050000 13.150000 13.250000 13.350000 13.450000 13.550000 13.650000 13.750000 13.850000 13.950000 14.050000 14.150000 14.250000 14.350000 14.450000 14.550000 14.650000 14.750000 14.850000 14.950000 15.050000 15.150000 15.250000 15.350000 15.450000 15.550000 15.650000 15.750000 15.850000 15.950000 16.050000 16.150000 16.250000 16.350000 16.450000 16.550000 16.650000 16.750000 16.850000 16.950000 17.050000 17.150000 17.250000 17.350000 17.450000 17.550000 17.650000 17.750000 17.850000 17.950000 18.050000 18.150000 18.250000 18.350000 18.450000 18.550000 18.650000 18.750000 18.850000 18.950000 19.050000 19.150000 19.250000 19.350000 19.450000 19.550000 19.650000 19.750000 19.850000 19.950000 
Y_COORDINATES 75 double
0.050000 0.150000 0.250000 0.350000 0.450000 0.550000 0.650000 0.750000 0.850000 0.950000 1.050000 1.150000 1.250000 1.350000 1.450000 1.550000 1.650000 1.750000 1.850000 1.950000 2.050000 2.150000 2.250000 2.350000 2.450000 2.550000 2.650000 2.750000 2.850000 2.950000 3.050000 3.150000 3.250000 3.350000 3.450000 3.550000 3.650000 3.750000 3.850000 3.950000 4.050000 4.150000 4.250000 4.350000 4.450000 4.550000 4.650000 4.750000 4.850000 4.950000 5.050000 5.150000 5.250000 5.350000 5.450000 5.550000 5.650000 5.750000 5.850000 5.950000 6.050000 6.150000 6.250000 6.350000 6.450000 6.550000 6.650000 6.750000 6.850000 6.950000 7.050000 7.150000 7.250000 7.350000 7.450000 
Z_COORDINATES 1 double
0.0
POINT_DATA 15000
SCALARS Skalarfeld double 1
LOOKUP_TABLE default
0.168911
0.167618
0.166771
0.166070
0.165398
0.164693
0.163922
0.163060
0.162087
0.160990
0.159759
0.158388
0.156879
0.155238
0.153479
0.151623
0.149697
0.147736
0.145779
0.143869
0.142048
0.140358
0.138834
0.137503
0.136381
0.135474
0.134778
0.134275
0.133942
0.133748
0.133658
0.133636
0.133647
0.133657
0.133636
0.133560
0.133409
0.133171
0.132837
0.132408
0.131890
0.131295
0.130643
0.129959
0.129272
0.128615
0.128021
0.127521
0.127140
0.126896
0.126793
0.126827
0.126981
0.127229
0.127537
0.127869
0.128186
0.128450
0.128626
0.128683
0.128594
0.128337
0.127895
0.127260
0.126427
0.125401
0.124194
0.122829
0.121336
0.119757
0.118142
0.116549
0.115038
0.113670
0.112497
0.111556
0.110865
0.110423
0.110212
0.110199
0.110344
0.110605
0.110940
0.111313
0.111693
0.112053
0.112377
0.112652
0.112873
0.113041
0.113161
0.113245
0.113309
0.113371
0.113453
0.113577
0.113762
0.114026
0.114379
0.114825
0.115360
0.115972
0.116641
0.117341
0.118046
0.118723
0.119344
0.119881
0.120308
0.120605
0.120756
0.120749
0.120579
0.120244
0.119759
0.119139
0.118402
0.117577
0.116697
0.115804
0.114940
0.114150
0.113476
0.112954
0.112616
0.112472
0.112513
0.112721
0.113062
0.113497
0.113983
0.114478
0.114943
0.115342
0.115649
0.115841
0.115906
0.115837
0.115636
0.115312
0.114881
0.114367
0.113798
0.113209
0.112634
0.112109
0.111669
0.111343
0.111153
0.111112
0.111225
0.111487
0.111886
0.112401
0.113008
0.113680
0.114390
0.115110
0.115815
0.116484
0.117101
0.117654
0.118136
0.118548
0.118894
0.119188
0.119446
0.119693
0.119956
0.120266
0.120656
0.121156
0.121792
0.122582
0.123536
0.124651
0.125914
0.127304
0.128789
0.130336
0.131907
0.133467
0.134982
0.136422
0.137758
0.138969
0.140037
0.140948
0.141692
0.142266
0.142668
0.142905
0.142984
0.142921
0.142737
0.142461
0.142118
0.141727
0.141299
0.141043
0.167588
0.167174
0.166623
0.166043
0.165429
0.164761
0.164015
0.163171
0.162213
0.161126
0.159900
0.158529
0.157013
0.155358
0.153577
0.151692
0.149731
0.147730
0.145730
0.143776
0.141914
0.140189
0.138638
0.137289
0.136161
0.135260
0.134579
0.134101
0.133798
0.133639
0.133586
0.133601
0.133646
0.133686
0.133691
0.133636
0.133500
0.133269
0.132936
0.132501
0.131969
0.131355
0.130677
0.129962
0.129241
0.128549
0.127923
0.127396
0.126997
0.126745
0.126647
0.126698
0.126879
0.127161
0.127509
0.127881
0.128238
0.128540
0.128750
0.128837
0.128771
0.128532
0.128102
0.127470
0.126634
0.125594
0.124365
0.122966
0.121430
0.119797
0.118120
0.116461
0.114887
0.113465
0.112252
0.111291
0.110601
0.110180
0.110003
0.110033
0.110224
0.110530
0.110905
0.111312
0.111718
0.112098
0.112434
0.112715
0.112935
0.113096
0.113204
0.113271
0.113313
0.113352
0.113411
0.113512
0.113679
0.113931
0.114279
0.114730
0.115278
0.115910
0.116606
0.117338
0.118075
0.118785
0.119436
0.119999
0.120449
0.120764
0.120926
0.120926
0.120757
0.120423
0.119926
0.119280
0.118509
0.117640
0.116709
0.115760
0.114841
0.114002
0.113292
0.112752
0.112408
0.112270
0.112334
0.112576
0.112959
0.113441
0.113973
0.114511
0.115013
0.115443
0.115772
0.115979
0.116051
0.115981
0.115770
0.115428
0.114973
0.114427
0.113823
0.113193
0.112580
0.112019
0.111548
0.111199
0.110994
0.110949
0.111067
0.111343
0.111762
0.112303
0.112939
0.113642
0.114381
0.115127
0.115855
0.116543
0.117172
0.117732
0.118214
0.118619
0.118953
0.119227
0.119460
0.119676
0.119905
0.120181
0.120537
0.121009
0.121624
0.122404
0.123360
0.124488
0.125776
0.127197
0.128719
0.130305
0.131916
0.133513
0.135062
0.136531
0.137892
0.139124
0.140207
0.141129
0.141879
0.142453
0.142851
0.143076
0.143140
0.143059
0.142854
0.142550
0.142180
0.141781
0.141396
0.141076
0.167044
0.166864
0.166504
0.166047
0.165515
0.164905
0.164204
0.163397
0.162468
0.161401
0.160185
0.158813
0.157283
0.155600
0.153776
0.151832
0.149799
0.147714
0.145624
0.143579
0.141631
0.139831
0.138222
0.136837
0.135698
0.134809
0.134162
0.133736
0.133500
0.133415
0.133440
0.133531
0.133648
0.133752
0.133812
0.133799
0.133692
0.133477
0.133146
0.132698
0.132139
0.131483
0.130750
0.129969
0.129175
0.128407
0.127710
0.127124
0.126685
0.126417
0.126331
0.126419
0.126659
0.127017
0.127449
0.127909
0.128352
0.128735
0.129018
0.129166
0.129152
0.128951
0.128545
0.127923
0.127079
0.126013
0.124736
0.123266
0.121634
0.119883
0.118071
0.116268
0.114553
0.113010
0.111712
0.110712
0.110030
0.109658
0.109562
0.109689
0.109982
0.110384
0.110846
0.111325
0.111787
0.112207
0.112569
0.112860
0.113077
0.113221
0.113301
0.113330
0.113326
0.113313
0.113318
0.113369
0.113495
0.113719
0.114057
0.114517
0.115093
0.115772
0.116527
0.117326
0.118135
0.118915
0.119633
0.120255
0.120754
0.121106
0.121295
0.121308
0.121139
0.120787
0.120257
0.119562
0.118723
0.117769
0.116739
0.115682
0.114651
0.113708
0.112911
0.112313
0.111945
0.111823
0.111938
0.112257
0.112736
0.113320
0.113953
0.114584
0.115166
0.115662
0.116040
0.116280
0.116367
0.116293
0.116062
0.115682
0.115173
0.114559
0.113876
0.113163
0.112464
0.111823
0.111284
0.110883
0.110646
0.110591
0.110721
0.111028
0.111494
0.112093
0.112794
0.113562
0.114364
0.115169
0.115946
0.116673
0.117329
0.117903
0.118385
0.118776
0.119081
0.119313
0.119490
0.119639
0.119794
0.119991
0.120273
0.120681
0.121250
0.122008
0.122967
0.124125
0.125466
0.126958
0.128562
0.130235
0.131931
0.133609
0.135231
0.136764
0.138180
0.139456
0.140574
0.141519
0.142282
0.142858
0.143246
0.143449
0.143479
0.143349
0.143084
0.142714
0.142279
0.141827
0.141412
0.141010
0.166835
0.166733
0.166483
0.166125
0.165677
0.165138
0.164499
0.163744
0.162857
0.161821
0.160623
0.159251
0.157701
0.155976
0.154087
0.152054
0.149909
0.147695
0.145464
0.143276
0.141193
0.139275
0.137577
0.136137
0.134981
0.134114
0.133523
0.133181
0.133050
0.133082
0.133227
0.133436
0.133662
0.133864
0.134005
0.134056
0.133993
0.133802
0.133474
0.133006
0.132406
0.131686
0.130870
0.129988
0.129080
0.128194
0.127384
0.126703
0.126199
0.125906
0.125839
0.125986
0.126321
0.126796
0.127359
0.127954
0.128528
0.129031
0.129421
0.129662
0.129722
0.129578
0.129210
0.128602
0.127747
0.126644
0.125297
0.123724
0.121952
0.120026
0.118008
0.115979
0.114042
0.112304
0.110868
0.109805
0.109141
0.108855
0.108892
0.109175
0.109627
0.110177
0.110768
0.111352
0.111897
0.112376
0.112773
0.113080
0.113291
0.113412
0.113450
0.113421
0.113347
0.113254
0.113176
0.113150
0.113209
0.113388
0.113709
0.114182
0.114802
0.115552
0.116399
0.117303
0.118221
0.119108
0.119925
0.120634
0.121206
0.121615
0.121843
0.121876
0.121706
0.121331
0.120755
0.119989
0.119052
0.117974
0.116798
0.115575
0.114373
0.113265
0.112330
0.111637
0.111232
0.111135
0.111330
0.111773
0.112402
0.113145
0.113933
0.114704
0.115406
0.115999
0.116450
0.116737
0.116845
0.116767
0.116505
0.116069
0.115479
0.114763
0.113960
0.113118
0.112287
0.111524
0.110879
0.110398
0.110113
0.110044
0.110193
0.110550
0.111089
0.111777
0.112576
0.113444
0.114343
0.115234
0.116086
0.116872
0.117569
0.118165
0.118649
0.119021
0.119285
0.119454
0.119548
0.119597
0.119637
0.119715
0.119880
0.120187
0.120682
0.121402
0.122366
0.123571
0.124995
0.126597
0.128328
0.130132
0.131957
0.133756
0.135485
0.137112
0.138607
0.139947
0.141114
0.142094
0.142877
0.143456
0.143830
0.144002
0.143980
0.143779
0.143422
0.142945
0.142395
0.141835
0.141333
0.140860
0.166816
0.166748
0.166569
0.166294
0.165929
0.165471
0.164907
0.164220
0.163392
0.162401
0.161229
0.159862
0.158289
0.156510
0.154533
0.152378
0.150079
0.147684
0.145253
0.142859
0.140581
0.138494
0.136666
0.135149
0.133972
0.133140
0.132634
0.132416
0.132436
0.132635
0.132950
0.133324
0.133702
0.134036
0.134288
0.134425
0.134423
0.134264
0.133939
0.133446
0.132790
0.131985
0.131054
0.130030
0.128961
0.127903
0.126926
0.126104
0.125502
0.125170
0.125129
0.125367
0.125840
0.126487
0.127237
0.128020
0.128773
0.129439
0.129973
0.130336
0.130497
0.130429
0.130111
0.129526
0.128662
0.127513
0.126080
0.124375
0.122420
0.120255
0.117947
0.115593
0.113324
0.111292
0.109648
0.108497
0.107871
0.107729
0.107973
0.108490
0.109171
0.109928
0.110693
0.111418
0.112069
0.112624
0.113067
0.113392
0.113596
0.113684
0.113666
0.113558
0.113385
0.113180
0.112984
0.112842
0.112804
0.112914
0.113206
0.113696
0.114379
0.115231
0.116209
0.117262
0.118333
0.119369
0.120321
0.121149
0.121819
0.122305
0.122586
0.122647
0.122479
0.122077
0.121443
0.120585
0.119521
0.118278
0.116900
0.115447
0.113998
0.112649
0.111507
0.110670
0.110209
0.110151
0.110471
0.111102
0.111951
0.112922
0.113926
0.114889
0.115753
0.116475
0.117021
0.117371
0.117508
0.117425
0.117122
0.116611
0.115910
0.115053
0.114084
0.113060
0.112044
0.111105
0.110310
0.109715
0.109362
0.109275
0.109456
0.109885
0.110530
0.111346
0.112284
0.113293
0.114325
0.115336
0.116290
0.117155
0.117910
0.118536
0.119024
0.119372
0.119583
0.119669
0.119652
0.119563
0.119443
0.119349
0.119345
0.119502
0.119885
0.120548
0.121518
0.122792
0.124338
0.126101
0.128012
0.130000
0.132003
0.133963
0.135835
0.137585
0.139183
0.140607
0.141838
0.142864
0.143672
0.144258
0.144616
0.144749
0.144661
0.144364
0.143880
0.143247
0.142522
0.141786
0.141135
0.140569
0.166919
0.166875
0.166752
0.166552
0.166275
0.165908
0.165436
0.164837
0.164087
0.163158
0.162027
0.160672
0.159076
0.157234
0.155148
0.152836
0.150334
0.147695
0.144993
0.142316
0.139767
0.137444
0.135438
0.133816
0.132614
0.131836
0.131453
0.131412
0.131643
0.132070
0.132614
0.133207
0.133783
0.134291
0.134686
0.134934
0.135008
0.134891
0.134572
0.134048
0.133323
0.132409
0.131328
0.130117
0.128827
0.127529
0.126313
0.125282
0.124533
0.124142
0.124141
0.124510
0.125184
0.126073
0.127081
0.128116
0.129103
0.129978
0.130695
0.131212
0.131499
0.131529
0.131278
0.130725
0.129857
0.128660
0.127131
0.125269
0.123088
0.120618
0.117923
0.115113
0.112359
0.109884
0.107927
0.106657
0.106115
0.106212
0.106779
0.107638
0.108637
0.109667
0.110656
0.111555
0.112336
0.112980
0.113478
0.113823
0.114016
0.114061
0.113970
0.113758
0.113455
0.113097
0.112735
0.112430
0.112249
0.112256
0.112502
0.113013
0.113784
0.114779
0.115941
0.117198
0.118476
0.119708
0.120838
0.121818
0.122614
0.123196
0.123545
0.123645
0.123483
0.123053
0.122353
0.121386
0.120166
0.118716
0.117077
0.115313
0.113520
0.111824
0.110375
0.109324
0.108781
0.108786
0.109298
0.110207
0.111374
0.112663
0.113957
0.115170
0.116239
0.117122
0.117788
0.118216
0.118389
0.118300
0.117948
0.117340
0.116497
0.115455
0.114264
0.112993
0.111723
0.110543
0.109539
0.108788
0.108345
0.108238
0.108465
0.109001
0.109795
0.110789
0.111916
0.113114
0.114322
0.115491
0.116577
0.117547
0.118375
0.119043
0.119538
0.119858
0.120004
0.119987
0.119828
0.119558
0.119224
0.118893
0.118649
0.118588
0.118807
0.119384
0.120361
0.121735
0.123458
0.125447
0.127608
0.129846
0.132080
0.134248
0.136300
0.138202
0.139926
0.141453
0.142763
0.143846
0.144688
0.145284
0.145627
0.145715
0.145549
0.145135
0.144488
0.143640
0.142659
0.141651
0.140762
0.140050
0.167105
0.167080
0.167010
0.166889
0.166708
0.166450
0.166092
0.165605
0.164957
0.164114
0.163044
0.161715
0.160103
0.158192
0.155977
0.153472
0.150712
0.147755
0.144691
0.141632
0.138711
0.136064
0.133815
0.132053
0.130825
0.130132
0.129927
0.130133
0.130653
0.131385
0.132231
0.133105
0.133934
0.134658
0.135231
0.135615
0.135784
0.135719
0.135409
0.134849
0.134041
0.132996
0.131731
0.130280
0.128698
0.127069
0.125511
0.124172
0.123203
0.122722
0.122781
0.123344
0.124310
0.125539
0.126895
0.128259
0.129541
0.130675
0.131613
0.132317
0.132757
0.132907
0.132741
0.132237
0.131374
0.130135
0.128505
0.126473
0.124033
0.121194
0.118000
0.114562
0.111098
0.107946
0.105505
0.104077
0.103714
0.104220
0.105290
0.106640
0.108067
0.109445
0.110704
0.111807
0.112736
0.113481
0.114038
0.114405
0.114582
0.114575
0.114392
0.114051
0.113579
0.113018
0.112430
0.111893
0.111504
0.111357
0.111530
0.112066
0.112959
0.114156
0.115572
0.117106
0.118659
0.120145
0.121498
0.122668
0.123617
0.124319
0.124752
0.124901
0.124753
0.124297
0.123527
0.122439
0.121039
0.119340
0.117375
0.115206
0.112941
0.110746
0.108842
0.107464
0.106798
0.106910
0.107721
0.109048
0.110670
0.112391
0.114063
0.115589
0.116908
0.117983
0.118790
0.119311
0.119531
0.119438
0.119028
0.118304
0.117283
0.116004
0.114523
0.112925
0.111312
0.109802
0.108514
0.107551
0.106988
0.106861
0.107163
0.107852
0.108856
0.110092
0.111473
0.112917
0.114353
0.115722
0.116976
0.118078
0.118999
0.119719
0.120227
0.120516
0.120587
0.120448
0.120114
0.119616
0.119003
0.118350
0.117768
0.117392
0.117366
0.117813
0.118800
0.120321
0.122300
0.124611
0.127115
0.129683
0.132214
0.134638
0.136906
0.138988
0.140860
0.142507
0.143912
0.145062
0.145947
0.146558
0.146889
0.146932
0.146684
0.146139
0.145294
0.144167
0.142822
0.141397
0.140119
0.139163
0.167335
0.167331
0.167318
0.167286
0.167218
0.167091
0.166874
0.166531
0.166019
0.165295
0.164314
0.163035
0.161420
0.159441
0.157083
0.154348
0.151267
0.147904
0.144364
0.140790
0.137362
0.134270
0.131687
0.129741
0.128492
0.127931
0.127984
0.128536
0.129449
0.130584
0.131817
0.133046
0.134187
0.135176
0.135963
0.136511
0.136793
0.136791
0.136494
0.135895
0.134996
0.133799
0.132315
0.130569
0.128610
0.126530
0.124484
0.122686
0.121378
0.120757
0.120910
0.121772
0.123167
0.124875
0.126696
0.128480
0.130125
0.131566
0.132762
0.133683
0.134303
0.134596
0.134538
0.134101
0.133260
0.131992
0.130271
0.128072
0.125361
0.122107
0.118300
0.114013
0.109498
0.105269
0.102047
0.100412
0.100430
0.101654
0.103510
0.105558
0.107540
0.109336
0.110902
0.112228
0.113315
0.114168
0.114787
0.115174
0.115331
0.115262
0.114972
0.114474
0.113792
0.112968
0.112072
0.111209
0.110514
0.110134
0.110193
0.110758
0.111823
0.113307
0.115079
0.116988
0.118900
0.120708
0.122336
0.123732
0.124862
0.125704
0.126240
0.126452
0.126327
0.125852
0.125014
0.123801
0.122206
0.120226
0.117872
0.115188
0.112284
0.109369
0.106772
0.104884
0.104030
0.104323
0.105618
0.107583
0.109859
0.112160
0.114309
0.116208
0.117814
0.119107
0.120075
0.120704
0.120982
0.120891
0.120419
0.119561
0.118327
0.116751
0.114899
0.112869
0.110795
0.108838
0.107160
0.105911
0.105192
0.105050
0.105469
0.106379
0.107677
0.109242
0.110958
0.112720
0.114444
0.116062
0.117522
0.118783
0.119818
0.120605
0.121132
0.121391
0.121380
0.121102
0.120565
0.119790
0.118819
0.117737
0.116679
0.115842
0.115448
0.115695
0.116693
0.118436
0.120795
0.123569
0.126544
0.129542
0.132442
0.135170
0.137687
0.139972
0.142011
0.143794
0.145307
0.146538
0.147475
0.148109
0.148433
0.148439
0.148114
0.147438
0.146378
0.144909
0.143060
0.140992
0.139059
0.137668
0.167571
0.167592
0.167645
0.167717
0.167787
0.167822
0.167783
0.167623
0.167289
0.166726
0.165876
0.164681
0.163090
0.161056
0.158547
0.155550
0.152082
0.148206
0.144041
0.139774
0.135649
0.131941
0.128900
0.126711
0.125454
0.125101
0.125533
0.126572
0.128017
0.129680
0.131406
0.133073
0.134592
0.135894
0.136933
0.137671
0.138084
0.138157
0.137877
0.137240
0.136243
0.134883
0.133156
0.131065
0.128634
0.125949
0.123197
0.120697
0.118851
0.118009
0.118320
0.119660
0.121704
0.124090
0.126529
0.128835
0.130907
0.132697
0.134182
0.135345
0.136169
0.136632
0.136706
0.136360
0.135564
0.134289
0.132502
0.130164
0.127211
0.123545
0.119046
0.113652
0.107562
0.101533
0.096954
0.095055
0.095913
0.098436
0.101524
0.104530
0.107190
0.109450
0.111334
0.112882
0.114125
0.115083
0.115763
0.116170
0.116304
0.116167
0.115758
0.115081
0.114147
0.112988
0.111680
0.110355
0.109209
0.108470
0.108343
0.108943
0.110259
0.112162
0.114436
0.116857
0.119236
0.121442
0.123396
0.125053
0.126390
0.127391
0.128044
0.128334
0.128247
0.127765
0.126869
0.125538
0.123750
0.121477
0.118688
0.115380
0.111622
0.107657
0.103971
0.101250
0.100096
0.100716
0.102826
0.105793
0.109006
0.112070
0.114791
0.117110
0.119025
0.120549
0.121690
0.122445
0.122797
0.122721
0.122193
0.121191
0.119709
0.117772
0.115448
0.112852
0.110158
0.107587
0.105374
0.103733
0.102812
0.102670
0.103273
0.104509
0.106220
0.108232
0.110385
0.112552
0.114632
0.116552
0.118258
0.119710
0.120879
0.121747
0.122300
0.122533
0.122439
0.122014
0.121253
0.120157
0.118746
0.117095
0.115367
0.113842
0.112879
0.112811
0.113828
0.115915
0.118855
0.122306
0.125929
0.129481
0.132824
0.135898
0.138686
0.141189
0.143408
0.145340
0.146974
0.148299
0.149299
0.149965
0.150290
0.150270
0.149891
0.149116
0.147865
0.146024
0.143512
0.140442
0.137349
0.135135
0.167770
0.167820
0.167953
0.168152
0.168389
0.168625
0.168810
0.168885
0.168785
0.168439
0.167774
0.166714
0.165188
0.163128
0.160478
0.157196
0.153275
0.148760
0.143782
0.138574
0.133479
0.128903
0.125226
0.122718
0.121485
0.121464
0.122462
0.124192
0.126358
0.128707
0.131047
0.133244
0.135208
0.136874
0.138199
0.139153
0.139714
0.139869
0.139611
0.138938
0.137846
0.136326
0.134353
0.131888
0.128898
0.125415
0.121638
0.118030
0.115296
0.114089
0.114684
0.116826
0.119885
0.123242
0.126485
0.129415
0.131963
0.134126
0.135916
0.137339
0.138390
0.139048
0.139283
0.139057
0.138333
0.137080
0.135265
0.132848
0.129744
0.125778
0.120634
0.113911
0.105468
0.096236
0.089070
0.086863
0.089678
0.094617
0.099596
0.103828
0.107225
0.109928
0.112093
0.113833
0.115215
0.116269
0.117008
0.117434
0.117547
0.117342
0.116812
0.115944
0.114725
0.113158
0.111304
0.109321
0.107491
0.106188
0.105758
0.106398
0.108097
0.110628
0.113632
0.116753
0.119731
0.122416
0.124741
0.126684
0.128242
0.129417
0.130201
0.130586
0.130554
0.130083
0.129149
0.127723
0.125769
0.123229
0.120009
0.115998
0.111141
0.105628
0.100161
0.096007
0.094349
0.095584
0.099145
0.103727
0.108281
0.112302
0.115661
0.118404
0.120615
0.122363
0.123684
0.124580
0.125031
0.124998
0.124435
0.123292
0.121537
0.119175
0.116260
0.112924
0.109390
0.105966
0.103004
0.100823
0.099641
0.099531
0.100428
0.102150
0.104447
0.107063
0.109785
0.112456
0.114968
0.117246
0.119239
0.120910
0.122235
0.123196
0.123785
0.123996
0.123825
0.123259
0.122274
0.120833
0.118907
0.116521
0.113844
0.111267
0.109397
0.108821
0.109866
0.112511
0.116376
0.120841
0.125359
0.129605
0.133453
0.136891
0.139952
0.142673
0.145077
0.147170
0.148941
0.150374
0.151448
0.152152
0.152484
0.152452
0.152057
0.151261
0.149930
0.147796
0.144502
0.139887
0.134628
0.130735
0.167879
0.167964
0.168194
0.168548
0.168993
0.169478
0.169944
0.170319
0.170522
0.170464
0.170054
0.169198
0.167800
0.165768
0.163010
0.159444
0.155016
0.149727
0.143694
0.137199
0.130726
0.124902
0.120326
0.117400
0.116258
0.116779
0.118635
0.121358
0.124503
0.127731
0.130822
0.133643
0.136114
0.138188
0.139832
0.141022
0.141743
0.141988
0.141754
0.141045
0.139867
0.138209
0.136026
0.133217
0.129630
0.125143
0.119867
0.114443
0.110163
0.108330
0.109466
0.113044
0.117743
0.122486
0.126739
0.130362
0.133393
0.135917
0.138005
0.139695
0.140991
0.141874
0.142305
0.142233
0.141612
0.140409
0.138604
0.136186
0.133099
0.129131
0.123715
0.115751
0.103934
0.088588
0.075950
0.073467
0.081210
0.090691
0.098372
0.103932
0.107935
0.110928
0.113264
0.115133
0.116623
0.117764
0.118560
0.119007
0.119102
0.118838
0.118201
0.117156
0.115647
0.113613
0.111055
0.108128
0.105240
0.103022
0.102086
0.102776
0.105078
0.108599
0.112689
0.116771
0.120499
0.123733
0.126451
0.128685
0.130467
0.131820
0.132748
0.133244
0.133287
0.132853
0.131906
0.130420
0.128358
0.125639
0.122094
0.117424
0.111259
0.103477
0.094942
0.088169
0.085627
0.088052
0.094382
0.101639
0.108052
0.113165
0.117124
0.120210
0.122653
0.124592
0.126089
0.127150
0.127739
0.127796
0.127245
0.125992
0.123961
0.121116
0.117478
0.113178
0.108492
0.103861
0.099829
0.096895
0.095375
0.095361
0.096733
0.099191
0.102330
0.105766
0.109216
0.112502
0.115520
0.118209
0.120527
0.122446
0.123944
0.125010
0.125640
0.125836
0.125599
0.124917
0.123742
0.121987
0.119516
0.116220
0.112190
0.107960
0.104589
0.103170
0.104257
0.107835
0.113248
0.119279
0.125021
0.130095
0.134465
0.138238
0.141537
0.144455
0.147041
0.149305
0.151233
0.152794
0.153956
0.154700
0.155032
0.154987
0.154614
0.153925
0.152779
0.150701
0.146765
0.139889
0.130333
0.122737
0.167835
0.167962
0.168310
0.168855
0.169553
0.170348
0.171165
0.171919
0.172510
0.172830
0.172766
0.172203
0.171021
0.169100
0.166307
0.162504
0.157553
0.151363
0.143977
0.135701
0.127219
0.119549
0.113681
0.110213
0.109297
0.110713
0.113904
0.118074
0.122542
0.126875
0.130852
0.134377
0.137408
0.139924
0.141908
0.143350
0.144239
0.144574
0.144358
0.143609
0.142353
0.140601
0.138305
0.135295
0.131221
0.125601
0.118160
0.109608
0.102471
0.099518
0.101733
0.108081
0.115514
0.122186
0.127597
0.131879
0.135310
0.138127
0.140477
0.142428
0.143991
0.145135
0.145806
0.145933
0.145446
0.144307
0.142520
0.140149
0.137280
0.133854
0.129207
0.121177
0.105286
0.077349
0.051827
0.049363
0.070756
0.088431
0.099193
0.105549
0.109626
0.112564
0.114886
0.116800
0.118369
0.119593
0.120451
0.120925
0.121009
0.120702
0.119991
0.118828
0.117089
0.114582
0.111158
0.106880
0.102300
0.098554
0.096758
0.097506
0.100801
0.105962
0.111717
0.117110
0.121733
0.125538
0.128625
0.131116
0.133101
0.134629
0.135711
0.136337
0.136480
0.136113
0.135179
0.133669
0.131576
0.128842
0.125256
0.120278
0.112884
0.101902
0.087752
0.075889
0.071767
0.076452
0.088570
0.100306
0.109059
0.115134
0.119425
0.122631
0.125168
0.127238
0.128910
0.130171
0.130957
0.131180
0.130730
0.129437
0.127168
0.123815
0.119326
0.113784
0.107506
0.101125
0.095522
0.091518
0.089571
0.089768
0.091915
0.095516
0.099882
0.104423
0.108781
0.112788
0.116378
0.119521
0.122196
0.124384
0.126070
0.127247
0.127918
0.128099
0.127809
0.127054
0.125779
0.123838
0.120925
0.116619
0.110679
0.103710
0.097765
0.094933
0.096065
0.101233
0.109421
0.117937
0.125297
0.131242
0.136037
0.140028
0.143478
0.146546
0.149304
0.151757
0.153873
0.155594
0.156865
0.157646
0.157944
0.157834
0.157469
0.157026
0.156524
0.155401
0.151843
0.142259
0.123562
0.107225
0.167559
0.167738
0.168230
0.169006
0.170015
0.171190
0.172444
0.173673
0.174757
0.175563
0.175956
0.175797
0.174946
0.173256
0.170557
0.166636
0.161233
0.154076
0.145004
0.134237
0.122716
0.112213
0.104468
0.100323
0.099882
0.102796
0.108130
0.114444
0.120679
0.126344
0.131311
0.135585
0.139200
0.142173
0.144512
0.146214
0.147274
0.147692
0.147475
0.146660
0.145313
0.143510
0.141266
0.138395
0.134291
0.127766
0.117365
0.103102
0.090321
0.085343
0.089690
0.101912
0.113961
0.123087
0.129541
0.134213
0.137816
0.140781
0.143324
0.145526
0.147384
0.148844
0.149822
0.150209
0.149893
0.148809
0.146974
0.144560
0.141955
0.139695
0.137853
0.133880
0.116619
0.060474
0.002117
-0.000420
0.063395
0.092761
0.104263
0.109367
0.112408
0.114784
0.116888
0.118787
0.120438
0.121766
0.122704
0.123213
0.123289
0.122950
0.122217
0.121056
0.119257
0.116428
0.112082
0.105907
0.098506
0.092117
0.088863
0.089655
0.094612
0.102676
0.111046
0.118160
0.123729
0.128010
0.131349
0.134010
0.136151
0.137842
0.139090
0.139869
0.140139
0.139866
0.138948
0.137420
0.135345
0.132790
0.129674
0.125348
0.117815
0.103055
0.077921
0.055663
0.048855
0.057128
0.082912
0.101761
0.112594
0.118778
0.122723
0.125650
0.128087
0.130223
0.132082
0.133602
0.134675
0.135170
0.134945
0.133731
0.131333
0.127531
0.122123
0.115045
0.106578
0.097604
0.089643
0.084092
0.081610
0.082207
0.085612
0.091039
0.097215
0.103219
0.108655
0.113451
0.117644
0.121265
0.124319
0.126795
0.128678
0.129964
0.130664
0.130811
0.130465
0.129676
0.128446
0.126619
0.123669
0.118567
0.110073
0.098286
0.087692
0.082594
0.083677
0.091444
0.105123
0.117638
0.126900
0.133473
0.138363
0.142315
0.145763
0.148914
0.151838
0.154516
0.156875
0.158817
0.160235
0.161048
0.161240
0.160916
0.160377
0.160148
0.160820
0.162375
0.162570
0.152453
0.112639
0.074637
0.166958
0.167199
0.167866
0.168922
0.170310
0.171950
0.173740
0.175559
0.177261
0.178685
0.179666
0.180041
0.179658
0.178356
0.175943
0.172140
0.166526
0.158513
0.147476
0.133211
0.116849
0.101785
0.091349
0.086458
0.086917
0.092310
0.101265
0.110814
0.119324
0.126467
0.132423
0.137422
0.141603
0.145031
0.147728
0.149696
0.150927
0.151415
0.151160
0.150213
0.148700
0.146827
0.144813
0.142663
0.139667
0.133574
0.119882
0.094366
0.069635
0.061330
0.069291
0.095639
0.115161
0.126552
0.133200
0.137569
0.140923
0.143823
0.146479
0.148934
0.151140
0.152998
0.154381
0.155131
0.155046
0.153994
0.151941
0.149099
0.146222
0.144997
0.148155
0.157670
0.161264
0.034875
-0.107255
-0.124161
0.086443
0.113134
0.114996
0.114907
0.115665
0.117141
0.118980
0.120909
0.122709
0.124202
0.125257
0.125805
0.125853
0.125467
0.124740
0.123702
0.122131
0.119458
0.114570
0.106135
0.094100
0.082915
0.077280
0.077963
0.085504
0.099075
0.111488
0.120559
0.126807
0.131227
0.134561
0.137240
0.139470
0.141314
0.142751
0.143717
0.144129
0.143898
0.142967
0.141364
0.139237
0.136900
0.134757
0.132768
0.128610
0.112571
0.064537
0.020755
0.011107
0.019825
0.083427
0.110498
0.120266
0.124310
0.126784
0.128949
0.131117
0.133300
0.135403
0.137279
0.138755
0.139647
0.139761
0.138797
0.136485
0.132446
0.126231
0.117436
0.106061
0.093188
0.081650
0.073926
0.070758
0.071991
0.077381
0.085838
0.094698
0.102527
0.109097
0.114641
0.119400
0.123492
0.126937
0.129715
0.131803
0.133190
0.133888
0.133948
0.133482
0.132631
0.131589
0.130367
0.128352
0.123622
0.112380
0.091438
0.072019
0.063960
0.064443
0.075466
0.101717
0.120350
0.131007
0.137254
0.141526
0.145027
0.148272
0.151441
0.154550
0.157522
0.160225
0.162490
0.164137
0.165002
0.164989
0.164163
0.162926
0.162314
0.164085
0.170198
0.181677
0.188082
0.093185
0.002530
0.165918
0.166234
0.167110
0.168504
0.170348
0.172552
0.174998
0.177542
0.180015
0.182214
0.183933
0.184985
0.185213
0.184474
0.182599
0.179297
0.173998
0.165665
0.152726
0.133630
0.108956
0.086063
0.072100
0.066733
0.068693
0.077978
0.093606
0.108084
0.119242
0.127702
0.134437
0.140027
0.144715
0.148578
0.151633
0.153875
0.155284
0.155837
0.155490
0.154286
0.152404
0.150245
0.148445
0.147684
0.147915
0.146421
0.132442
0.082414
0.030718
0.019826
0.028895
0.095423
0.124049
0.134534
0.139009
0.141857
0.144421
0.147050
0.149779
0.152532
0.155178
0.157551
0.159472
0.160745
0.161008
0.160017
0.157539
0.153551
0.148773
0.145840
0.151316
0.178161
0.258849
0.191752
0.000000
-0.370067
0.243076
0.152628
0.125932
0.118857
0.117798
0.118837
0.120708
0.122868
0.124968
0.126731
0.127953
0.128533
0.128491
0.127974
0.127215
0.126420
0.125575
0.124022
0.119850
0.109411
0.089118
0.069431
0.060624
0.060547
0.071006
0.096586
0.114838
0.125238
0.131189
0.135045
0.137978
0.140488
0.142743
0.144749
0.146426
0.147646
0.148259
0.148117
0.147159
0.145361
0.142903
0.140374
0.139055
0.140975
0.147431
0.147489
0.041712
-0.045531
-0.042994
-0.077321
0.114746
0.133501
0.132149
0.130554
0.130588
0.131803
0.133731
0.136053
0.138516
0.140881
0.142897
0.144294
0.144798
0.144305
0.142400
0.138545
0.131957
0.121595
0.106551
0.087521
0.070430
0.060092
0.056156
0.058192
0.066478
0.080402
0.093206
0.102996
0.110424
0.116449
0.121637
0.126162
0.130005
0.133102
0.135405
0.136884
0.137538
0.137414
0.136646
0.135538
0.134642
0.134507
0.135069
0.134065
0.122625
0.082275
0.045371
0.037047
0.034791
0.043558
0.105048
0.130289
0.139036
0.142698
0.145243
0.147827
0.150711
0.153888
0.157252
0.160640
0.163838
0.166596
0.168631
0.169649
0.169386
0.167677
0.164763
0.162106
0.162959
0.172042
0.198544
0.268675
0.197617
0.000000
0.164302
0.164708
0.165835
0.167631
0.170018
0.172897
0.176140
0.179579
0.183001
0.186166
0.188797
0.190668
0.191630
0.191599
0.190516
0.188221
0.184171
0.176907
0.163282
0.138071