# vtk DataFile Version 3.0
Scalar Field
ASCII
DATASET RECTILINEAR_GRID
DIMENSIONS 200 75 1
X_COORDINATES 200 double
0.050000 0.150000 0.250000 0.350000 0.450000 0.550000 0.650000 0.750000 0.850000 0.950000 1.050000 1.150000 1.250000 1.350000 1.450000 1.550000 1.650000 1.750000 1.850000 1.950000 2.050000 2.150000 2.250000 2.350000 2.450000 2.550000 2.650000 2.750000 2.850000 2.950000 3.050000 3.150000 3.250000 3.350000 3.450000 3.550000 3.650000 3.750000 3.850000 3.950000 4.050000 4.150000 4.250000 4.350000 4.450000 4.550000 4.650000 4.750000 4.850000 4.950000 5.050000 5.150000 5.250000 5.350000 5.450000 5.550000 5.650000 5.750000 5.850000 5.950000 6.050000 6.150000 6.250000 6.350000 6.450000 6.550000 6.650000 6.750000 6.850000 6.950000 7.050000 7.150000 7.250000 7.350000 7.450000 7.550000 7.650000 7.750000 7.850000 7.950000 8.050000 8.150000 8.250000 8.350000 8.450000 8.550000 8.650000 8.750000 8.850000 8.950000 9.050000 9.150000 9.250000 9.350000 9.450000 9.550000 9.650000 9.750000 9.850000 9.950000 10.050000 10.150000 10.250000 10.350000 10.450000 10.550000 10.650000 10.750000 10.850000 10.950000 11.050000 11.150000 11.250000 11.350000 11.450000 11.550000 11.650000 11.750000 11.850000 11.950000 12.050000 12.150000 12.250000 12.350000 12.450000 12.550000 12.650000 12.750000 12.850000 12.950000 13.050000 13.150000 13.250000 13.350000 13.450000 13.550000 13.650000 13.750000 13.850000 13.950000 14.050000 14.150000 14.250000 14.350000 14.450000 14.550000 14.650000 14.750000 14.850000 14.950000 15.050000 15.150000 15.250000 15.350000 15.450000 15.550000 15.650000 15.750000 15.850000 15.950000 16.050000 16.150000 16.250000 16.350000 16.450000 16.550000 16.650000 16.750000 16.850000 16.950000 17.050000 17.150000 17.250000 17.350000 17.450000 17.550000 17.650000 17.750000 17.850000 17.950000 18.050000 18.150000 18.250000 18.350000 18.450000 18.550000 18.650000 18.750000 18.850000 18.950000 19.050000 19.150000 19.250000 19.350000 19.450000 19.550000 19.650000 19.750000 19.850000 19.950000 
Y_COORDINATES 75 double
0.050000 0.150000 0.250000 0.350000 0.450000 0.550000 0.650000 0.750000 0.850000 0.950000 1.050000 1.150000 1.250000 1.350000 1.450000 1.550000 1.650000 1.750000 1.850000 1.950000 2.050000 2.150000 2.250000 2.350000 2.450000 2.550000 2.650000 2.750000 2.850000 2.950000 3.050000 3.150000 3.250000 3.350000 3.450000 3.550000 3.650000 3.750000 3.850000 3.950000 4.050000 4.150000 4.250000 4.350000 4.450000 4.550000 4.650000 4.750000 4.850000 4.950000 5.050000 5.150000 5.250000 5.350000 5.450000 5.550000 5.650000 5.750000 5.850000 5.950000 6.050000 6.150000 6.250000 6.350000 6.450000 6.550000 6.650000 6.750000 6.850000 6.950000 7.050000 7.150000 7.250000 7.350000 7.450000 
Z_COORDINATES 1 double
0.0
POINT_DATA 15000
SCALARS Skalarfeld double 1
LOOKUP_TABLE default
0.169351
0.168059
0.167213
0.166515
0.165845
0.165145
0.164379
0.163522
0.162556
0.161466
0.160243
0.158882
0.157383
0.155754
0.154006
0.152162
0.150250
0.148303
0.146361
0.144466
0.142662
0.140989
0.139483
0.138169
0.137066
0.136179
0.135502
0.135020
0.134708
0.134535
0.134467
0.134468
0.134502
0.134536
0.134541
0.134490
0.134366
0.134155
0.133849
0.133449
0.132959
0.132394
0.131773
0.131119
0.130462
0.129836
0.129272
0.128803
0.128451
0.128236
0.128162
0.128224
0.128405
0.128680
0.129016
0.129374
0.129719
0.130011
0.130216
0.130303
0.130245
0.130019
0.129611
0.129007
0.128203
0.127205
0.126034
0.124705
0.123247
0.121700
0.120112
0.118540
0.117045
0.115684
0.114507
0.113551
0.112831
0.112359
0.112112
0.112057
0.112153
0.112357
0.112629
0.112932
0.113235
0.113514
0.113750
0.113934
0.114060
0.114130
0.114151
0.114135
0.114100
0.114064
0.114052
0.114085
0.114186
0.114372
0.114654
0.115036
0.115515
0.116078
0.116704
0.117368
0.118039
0.118687
0.119279
0.119787
0.120185
0.120450
0.120565
0.120519
0.120304
0.119921
0.119378
0.118693
0.117886
0.116984
0.116023
0.115046
0.114099
0.113228
0.112477
0.111891
0.111496
0.111303
0.111306
0.111485
0.111808
0.112235
0.112720
0.113221
0.113696
0.114110
0.114433
0.114643
0.114724
0.114668
0.114477
0.114166
0.113747
0.113244
0.112684
0.112101
0.111533
0.111015
0.110582
0.110263
0.110081
0.110058
0.110198
0.110495
0.110938
0.111505
0.112173
0.112913
0.113697
0.114497
0.115286
0.116043
0.116749
0.117393
0.117966
0.118469
0.118907
0.119291
0.119640
0.119978
0.120332
0.120736
0.121221
0.121821
0.122561
0.123461
0.124531
0.125769
0.127160
0.128684
0.130307
0.131996
0.133713
0.135421
0.137084
0.138672
0.140156
0.141516
0.142732
0.143791
0.144684
0.145407
0.145961
0.146352
0.146590
0.146701
0.146704
0.146624
0.146488
0.146320
0.146127
0.146221
0.168027
0.167614
0.167065
0.166486
0.165876
0.165211
0.164470
0.163632
0.162681
0.161601
0.160384
0.159022
0.157516
0.155872
0.154103
0.152231
0.150283
0.148296
0.146311
0.144373
0.142528
0.140820
0.139286
0.137955
0.136846
0.135964
0.135302
0.134845
0.134563
0.134426
0.134395
0.134432
0.134500
0.134565
0.134595
0.134565
0.134455
0.134252
0.133947
0.133540
0.133038
0.132453
0.131806
0.131121
0.130431
0.129770
0.129174
0.128677
0.128308
0.128086
0.128017
0.128096
0.128305
0.128615
0.128989
0.129389
0.129774
0.130104
0.130344
0.130461
0.130427
0.130220
0.129823
0.129226
0.128425
0.127424
0.126229
0.124862
0.123354
0.121746
0.120090
0.118446
0.116882
0.115463
0.114246
0.113275
0.112570
0.112122
0.111910
0.111898
0.112039
0.112287
0.112598
0.112933
0.113262
0.113559
0.113807
0.113995
0.114120
0.114182
0.114190
0.114156
0.114099
0.114040
0.114003
0.114014
0.114096
0.114269
0.114547
0.114934
0.115426
0.116010
0.116664
0.117360
0.118065
0.118746
0.119369
0.119905
0.120326
0.120610
0.120738
0.120698
0.120484
0.120098
0.119543
0.118834
0.117991
0.117046
0.116035
0.115004
0.114002
0.113082
0.112298
0.111688
0.111283
0.111096
0.111121
0.111334
0.111700
0.112174
0.112706
0.113251
0.113765
0.114210
0.114557
0.114782
0.114872
0.114819
0.114625
0.114295
0.113848
0.113309
0.112709
0.112082
0.111470
0.110911
0.110444
0.110102
0.109912
0.109886
0.110031
0.110342
0.110805
0.111399
0.112097
0.112868
0.113681
0.114508
0.115321
0.116096
0.116816
0.117467
0.118042
0.118539
0.118964
0.119329
0.119653
0.119959
0.120280
0.120648
0.121100
0.121671
0.122390
0.123280
0.124352
0.125603
0.127019
0.128575
0.130237
0.131966
0.133722
0.135467
0.137164
0.138782
0.140291
0.141671
0.142901
0.143970
0.144867
0.145589
0.146138
0.146519
0.146745
0.146832
0.146803
0.146691
0.146528
0.146353
0.146212
0.146256
0.167482
0.167302
0.166944
0.166489
0.165960
0.165354
0.164658
0.163857
0.162934
0.161874
0.160667
0.159305
0.157785
0.156113
0.154300
0.152369
0.150350
0.148279
0.146204
0.144175
0.142243
0.140460
0.138869
0.137502
0.136381
0.135511
0.134884
0.134479
0.134263
0.134200
0.134246
0.134360
0.134500
0.134629
0.134713
0.134726
0.134646
0.134458
0.134155
0.133736
0.133206
0.132580
0.131878
0.131128
0.130365
0.129629
0.128963
0.128407
0.127999
0.127762
0.127705
0.127822
0.128091
0.128477
0.128937
0.129427
0.129899
0.130312
0.130625
0.130806
0.130824
0.130657
0.130285
0.129698
0.128888
0.127857
0.126612
0.125173
0.123569
0.121844
0.120053
0.118266
0.116562
0.115024
0.113723
0.112711
0.112012
0.111613
0.111480
0.111562
0.111802
0.112144
0.112538
0.112943
0.113325
0.113661
0.113932
0.114130
0.114250
0.114295
0.114274
0.114202
0.114097
0.113986
0.113895
0.113856
0.113897
0.114042
0.114310
0.114707
0.115229
0.115860
0.116575
0.117340
0.118118
0.118871
0.119562
0.120158
0.120629
0.120952
0.121106
0.121080
0.120866
0.120463
0.119875
0.119116
0.118207
0.117177
0.116067
0.114927
0.113813
0.112789
0.111916
0.111246
0.110817
0.110644
0.110718
0.111010
0.111472
0.112049
0.112684
0.113323
0.113919
0.114431
0.114828
0.115087
0.115192
0.115136
0.114920
0.114552
0.114051
0.113442
0.112761
0.112048
0.111348
0.110708
0.110171
0.109776
0.109551
0.109514
0.109670
0.110012
0.110521
0.111173
0.111934
0.112771
0.113649
0.114534
0.115398
0.116213
0.116962
0.117628
0.118204
0.118689
0.119087
0.119410
0.119679
0.119920
0.120166
0.120457
0.120835
0.121342
0.122015
0.122883
0.123959
0.125240
0.126710
0.128338
0.130082
0.131898
0.133741
0.135567
0.137337
0.139017
0.140580
0.142002
0.143264
0.144353
0.145260
0.145981
0.146515
0.146869
0.147055
0.147088
0.146996
0.146813
0.146582
0.146354
0.146188
0.146170
0.167270
0.167168
0.166920
0.166565
0.166119
0.165584
0.164950
0.164201
0.163320
0.162292
0.161102
0.159740
0.158201
0.156487
0.154609
0.152589
0.150458
0.148259
0.146043
0.143870
0.141804
0.139903
0.138222
0.136801
0.135663
0.134815
0.134244
0.133922
0.133811
0.133864
0.134031
0.134262
0.134512
0.134737
0.134903
0.134980
0.134944
0.134780
0.134480
0.134042
0.133471
0.132783
0.131997
0.131147
0.130271
0.129417
0.128638
0.127989
0.127517
0.127255
0.127217
0.127394
0.127758
0.128263
0.128856
0.129481
0.130085
0.130620
0.131042
0.131316
0.131410
0.131301
0.130967
0.130394
0.129574
0.128504
0.127191
0.125648
0.123906
0.122005
0.120009
0.117999
0.116075
0.114344
0.112907
0.111833
0.111150
0.110834
0.110831
0.111065
0.111460
0.111946
0.112465
0.112972
0.113434
0.113825
0.114131
0.114341
0.114455
0.114474
0.114410
0.114278
0.114102
0.113909
0.113735
0.113616
0.113590
0.113690
0.113940
0.114351
0.114918
0.115623
0.116431
0.117303
0.118193
0.119056
0.119849
0.120535
0.121082
0.121463
0.121658
0.121653
0.121439
0.121014
0.120380
0.119549
0.118542
0.117388
0.116130
0.114822
0.113534
0.112343
0.111327
0.110559
0.110090
0.109940
0.110094
0.110510
0.111123
0.111862
0.112654
0.113436
0.114155
0.114767
0.115239
0.115547
0.115675
0.115615
0.115368
0.114944
0.114360
0.113648
0.112845
0.112001
0.111167
0.110401
0.109755
0.109277
0.109001
0.108948
0.109122
0.109511
0.110093
0.110834
0.111694
0.112632
0.113607
0.114581
0.115521
0.116397
0.117188
0.117879
0.118458
0.118925
0.119284
0.119546
0.119733
0.119874
0.120006
0.120177
0.120438
0.120843
0.121441
0.122271
0.123351
0.124680
0.126234
0.127973
0.129845
0.131795
0.133768
0.135715
0.137593
0.139367
0.141008
0.142492
0.143801
0.144921
0.145842
0.146561
0.147076
0.147391
0.147518
0.147472
0.147281
0.146983
0.146633
0.146295
0.146042
0.145964
0.167247
0.167180
0.167002
0.166730
0.166368
0.165913
0.165354
0.164674
0.163852
0.162869
0.161705
0.160347
0.158785
0.157017
0.155052
0.152910
0.150625
0.148244
0.145829
0.143452
0.141190
0.139120
0.137310
0.135811
0.134653
0.133839
0.133352
0.133154
0.133194
0.133413
0.133750
0.134146
0.134547
0.134906
0.135182
0.135345
0.135369
0.135238
0.134942
0.134479
0.133854
0.133080
0.132181
0.131189
0.130152
0.129128
0.128184
0.127393
0.126823
0.126523
0.126512
0.126780
0.127283
0.127960
0.128740
0.129555
0.130339
0.131038
0.131606
0.132004
0.132200
0.132168
0.131885
0.131336
0.130508
0.129394
0.127995
0.126322
0.124396
0.122260
0.119977
0.117644
0.115391
0.113368
0.111724
0.110563
0.109917
0.109742
0.109943
0.110406
0.111025
0.111713
0.112402
0.113046
0.113611
0.114074
0.114423
0.114649
0.114752
0.114736
0.114613
0.114400
0.114122
0.113815
0.113519
0.113282
0.113156
0.113186
0.113407
0.113836
0.114467
0.115277
0.116220
0.117244
0.118292
0.119307
0.120240
0.121048
0.121697
0.122157
0.122408
0.122433
0.122223
0.121772
0.121081
0.120158
0.119022
0.117702
0.116240
0.114698
0.113158
0.111719
0.110490
0.109572
0.109042
0.108928
0.109206
0.109809
0.110646
0.111616
0.112629
0.113608
0.114494
0.115240
0.115812
0.116186
0.116345
0.116281
0.115994
0.115493
0.114798
0.113942
0.112971
0.111941
0.110918
0.109972
0.109172
0.108576
0.108228
0.108154
0.108356
0.108817
0.109504
0.110373
0.111374
0.112454
0.113565
0.114661
0.115705
0.116665
0.117515
0.118239
0.118825
0.119270
0.119577
0.119758
0.119834
0.119836
0.119808
0.119806
0.119895
0.120147
0.120632
0.121403
0.122489
0.123887
0.125565
0.127466
0.129521
0.131658
0.133811
0.135921
0.137944
0.139842
0.141585
0.143151
0.144521
0.145683
0.146625
0.147343
0.147834
0.148101
0.148152
0.148000
0.147671
0.147207
0.146671
0.146150
0.145746
0.145582
0.167346
0.167302
0.167180
0.166983
0.166709
0.166346
0.165880
0.165287
0.164542
0.163622
0.162499
0.161153
0.159568
0.157737
0.155663
0.153365
0.150877
0.148253
0.145566
0.142906
0.140373
0.138068
0.136079
0.134475
0.133292
0.132533
0.132169
0.132147
0.132398
0.132845
0.133411
0.134025
0.134624
0.135156
0.135575
0.135849
0.135950
0.135861
0.135571
0.135077
0.134383
0.133501
0.132454
0.131276
0.130020
0.128756
0.127573
0.126575
0.125859
0.125500
0.125529
0.125928
0.126632
0.127551
0.128590
0.129657
0.130676
0.131586
0.132338
0.132892
0.133216
0.133283
0.133069
0.132555
0.131724
0.130565
0.129071
0.127243
0.125094
0.122655
0.119989
0.117204
0.114470
0.112009
0.110054
0.108774
0.108210
0.108270
0.108788
0.109587
0.110518
0.111474
0.112382
0.113196
0.113886
0.114437
0.114836
0.115079
0.115168
0.115106
0.114906
0.114585
0.114173
0.113708
0.113242
0.112838
0.112565
0.112490
0.112664
0.113114
0.113835
0.114792
0.115923
0.117157
0.118417
0.119635
0.120751
0.121718
0.122497
0.123059
0.123382
0.123448
0.123246
0.122768
0.122011
0.120980
0.119686
0.118155
0.116427
0.114569
0.112678
0.110882
0.109337
0.108196
0.107575
0.107519
0.107987
0.108870
0.110029
0.111322
0.112632
0.113869
0.114968
0.115882
0.116579
0.117036
0.117235
0.117168
0.116832
0.116234
0.115395
0.114351
0.113154
0.111873
0.110590
0.109397
0.108382
0.107624
0.107181
0.107082
0.107329
0.107894
0.108732
0.109779
0.110971
0.112243
0.113533
0.114791
0.115972
0.117039
0.117967
0.118736
0.119332
0.119751
0.119995
0.120074
0.120008
0.119829
0.119584
0.119342
0.119187
0.119218
0.119534
0.120216
0.121308
0.122806
0.124663
0.126794
0.129103
0.131494
0.133883
0.136205
0.138410
0.140461
0.142331
0.143998
0.145445
0.146659
0.147629
0.148349
0.148815
0.149027
0.148987
0.148703
0.148195
0.147500
0.146692
0.145887
0.145237
0.144932
0.167526
0.167502
0.167433
0.167315
0.167137
0.166883
0.166530
0.166048
0.165407
0.164573
0.163511
0.162192
0.160590
0.158690
0.156488
0.153997
0.151250
0.148309
0.145261
0.142219
0.139315
0.136686
0.134454
0.132710
0.131501
0.130826
0.130639
0.130865
0.131404
0.132155
0.133022
0.133917
0.134769
0.135517
0.136114
0.136524
0.136720
0.136684
0.136403
0.135874
0.135099
0.134086
0.132855
0.131439
0.129892
0.128298
0.126776
0.125471
0.124534
0.124085
0.124175
0.124768
0.125763
0.127022
0.128408
0.129804
0.131120
0.132290
0.133264
0.134007
0.134486
0.134676
0.134550
0.134087
0.133265
0.132066
0.130475
0.128480
0.126075
0.123271
0.120110
0.116703
0.113266
0.110134
0.107700
0.106261
0.105871
0.106334
0.107347
0.108630
0.109982
0.111279
0.112452
0.113465
0.114300
0.114947
0.115402
0.115663
0.115732
0.115614
0.115318
0.114862
0.114276
0.113602
0.112903
0.112262
0.111776
0.111542
0.111642
0.112117
0.112963
0.114125
0.115518
0.117036
0.118579
0.120059
0.121407
0.122570
0.123509
0.124196
0.124608
0.124729
0.124543
0.124041
0.123214
0.122061
0.120585
0.118801
0.116742
0.114471
0.112097
0.109790
0.107775
0.106293
0.105538
0.105580
0.106345
0.107648
0.109268
0.111002
0.112701
0.114261
0.115619
0.116735
0.117582
0.118139
0.118389
0.118321
0.117928
0.117214
0.116195
0.114910
0.113418
0.111803
0.110170
0.108640
0.107333
0.106356
0.105786
0.105662
0.105980
0.106698
0.107745
0.109037
0.110486
0.112008
0.113532
0.114995
0.116348
0.117552
0.118577
0.119403
0.120015
0.120407
0.120578
0.120536
0.120295
0.119886
0.119358
0.118790
0.118291
0.118000
0.118065
0.118612
0.119711
0.121356
0.123472
0.125931
0.128589
0.131316
0.134008
0.136592
0.139017
0.141251
0.143270
0.145057
0.146595
0.147872
0.148878
0.149605
0.150047
0.150201
0.150062
0.149628
0.148902
0.147905
0.146710
0.145465
0.144411
0.143863
0.167750
0.167747
0.167735
0.167705
0.167641
0.167518
0.167306
0.166968
0.166463
0.165747
0.164775
0.163505
0.161901
0.159934
0.157588
0.154867
0.151801
0.148454
0.144930
0.141373
0.137963
0.134889
0.132324
0.130396
0.129165
0.128622
0.128693
0.129264
0.130195
0.131349
0.132602
0.133852
0.135015
0.136027
0.136839
0.137413
0.137722
0.137749
0.137482
0.136915
0.136049
0.134886
0.133438
0.131728
0.129806
0.127763
0.125754
0.123991
0.122716
0.122128
0.122311
0.123201
0.124624
0.126360
0.128211
0.130027
0.131706
0.133184
0.134419
0.135381
0.136043
0.136379
0.136365
0.135973
0.135177
0.133953
0.132275
0.130116
0.127445
0.124230
0.120463
0.116216
0.111738
0.107539
0.104330
0.102684
0.102668
0.103838
0.105626
0.107595
0.109494
0.111202
0.112677
0.113908
0.114897
0.115647
0.116160
0.116438
0.116483
0.116297
0.115889
0.115271
0.114466
0.113520
0.112506
0.111530
0.110731
0.110258
0.110240
0.110745
0.111766
0.113222
0.114978
0.116882
0.118795
0.120607
0.122240
0.123639
0.124768
0.125602
0.126122
0.126311
0.126152
0.125633
0.124739
0.123460
0.121787
0.119718
0.117263
0.114468
0.111441
0.108396
0.105666
0.103653
0.102692
0.102906
0.104151
0.106097
0.108379
0.110708
0.112897
0.114845
0.116504
0.117850
0.118868
0.119542
0.119856
0.119794
0.119342
0.118492
0.117257
0.115671
0.113801
0.111746
0.109643
0.107655
0.105948
0.104675
0.103940
0.103795
0.104227
0.105166
0.106509
0.108134
0.109922
0.111769
0.113586
0.115305
0.116870
0.118240
0.119384
0.120282
0.120917
0.121283
0.121375
0.121195
0.120750
0.120062
0.119173
0.118167
0.117183
0.116420
0.116107
0.116447
0.117554
0.119421
0.121921
0.124850
0.127988
0.131155
0.134224
0.137120
0.139801
0.142242
0.144430
0.146353
0.147996
0.149349
0.150400
0.151140
0.151563
0.151663
0.151429
0.150842
0.149873
0.148504
0.146771
0.144846
0.143106
0.142118
0.167980
0.168001
0.168055
0.168130
0.168202
0.168242
0.168207
0.168053
0.167727
0.167172
0.166330
0.165145
0.163565
0.161543
0.159047
0.156064
0.152611
0.148751
0.144603
0.140354
0.136247
0.132557
0.129535
0.127364
0.126125
0.125789
0.126239
0.127295
0.128758
0.130439
0.132183
0.133871
0.135411
0.136737
0.137800
0.138564
0.139005
0.139106
0.138857
0.138253
0.137290
0.135966
0.134277
0.132223
0.129832
0.127186
0.124474
0.122012
0.120201
0.119390
0.119729
0.121094
0.123163
0.125576
0.128043
0.130380
0.132487
0.134315
0.135841
0.137048
0.137918
0.138428
0.138549
0.138254
0.137508
0.136282
0.134543
0.132252
0.129343
0.125722
0.121270
0.115927
0.109893
0.103912
0.099357
0.097443
0.098254
0.100704
0.103706
0.106620
0.109186
0.111351
0.113138
0.114588
0.115729
0.116580
0.117151
0.117444
0.117462
0.117203
0.116670
0.115864
0.114798
0.113508
0.112069
0.110618
0.109356
0.108516
0.108307
0.108846
0.110124
0.112007
0.114278
0.116706
0.119100
0.121325
0.123296
0.124968
0.126313
0.127316
0.127961
0.128233
0.128117
0.127593
0.126642
0.125245
0.123377
0.121010
0.118114
0.114682
0.110786
0.106667
0.102817
0.099938
0.098650
0.099176
0.101234
0.104189
0.107425
0.110534
0.113317
0.115705
0.117690
0.119282
0.120486
0.121296
0.121692
0.121650
0.121143
0.120148
0.118661
0.116710
0.114359
0.111729
0.108994
0.106377
0.104122
0.102444
0.101497
0.101345
0.101957
0.103223
0.104982
0.107059
0.109293
0.111552
0.113733
0.115762
0.117581
0.119149
0.120435
0.121419
0.122087
0.122430
0.122442
0.122117
0.121449
0.120437
0.119102
0.117518
0.115850
0.114383
0.113485
0.113498
0.114616
0.116829
0.119917
0.123533
0.127332
0.131067
0.134592
0.137844
0.140804
0.143470
0.145841
0.147913
0.149677
0.151118
0.152224
0.152984
0.153394
0.153451
0.153141
0.152428
0.151237
0.149457
0.147012
0.144028
0.141071
0.139233
0.168171
0.168221
0.168355
0.168557
0.168797
0.169037
0.169227
0.169308
0.169215
0.168877
0.168220
0.167170
0.165655
0.163608
0.160970
0.157703
0.153797
0.149300
0.144339
0.139150
0.134074
0.129517
0.125860
0.123370
0.122153
0.122149
0.123164
0.124910
0.127093
0.129458
0.131816
0.134033
0.136017
0.137706
0.139055
0.140035
0.140624
0.140809
0.140584
0.139944
0.138888
0.137405
0.135471
0.133046
0.130098
0.126658
0.122925
0.119358
0.116660
0.115484
0.116103
0.118265
0.121344
0.124723
0.127992
0.130952
0.133536
0.135739
0.137573
0.139044
0.140144
0.140854
0.141142
0.140972
0.140306
0.139109
0.137348
0.134983
0.131929
0.128012
0.122923
0.116268
0.107908
0.098761
0.091641
0.089411
0.092150
0.096983
0.101849
0.105971
0.109263
0.111864
0.113929
0.115567
0.116844
0.117789
0.118415
0.118723
0.118713
0.118382
0.117721
0.116716
0.115354
0.113642
0.111642
0.109516
0.107553
0.106135
0.105615
0.106195
0.107862
0.110386
0.113403
0.116549
0.119559
0.122280
0.124638
0.126610
0.128191
0.129377
0.130162
0.130535
0.130479
0.129970
0.128982
0.127489
0.125454
0.122816
0.119483
0.115338
0.110323
0.104626
0.098950
0.094584
0.092751
0.093871
0.097379
0.101965
0.106566
0.110661
0.114109
0.116946
0.119251
0.121087
0.122486
0.123450
0.123955
0.123961
0.123419
0.122280
0.120517
0.118132
0.115182
0.111799
0.108209
0.104723
0.101699
0.099466
0.098244
0.098116
0.099021
0.100775
0.103126
0.105816
0.108628
0.111402
0.114025
0.116422
0.118537
0.120334
0.121784
0.122869
0.123578
0.123905
0.123843
0.123380
0.122488
0.121130
0.119274
0.116944
0.114307
0.111762
0.109931
0.109415
0.110553
0.113325
0.117349
0.121995
0.126708
0.131156
0.135203
0.138834
0.142078
0.144970
0.147531
0.149766
0.151664
0.153209
0.154380
0.155167
0.155568
0.155593
0.155243
0.154481
0.153175
0.151056
0.147764
0.143147
0.137913
0.134321
0.168271
0.168356
0.168587
0.168944
0.169391
0.169881
0.170352
0.170733
0.170943
0.170893
0.170492
0.169645
0.168259
0.166239
0.163494
0.159944
0.155531
0.150261
0.144246
0.137771
0.131319
0.125515
0.120959
0.118051
0.116926
0.117462
0.119333
0.122071
0.125230
0.128474
0.131581
0.134420
0.136912
0.139008
0.140675
0.141892
0.142641
0.142917
0.142716
0.142043
0.140902
0.139283
0.137141
0.134375
0.130833
0.126395
0.121168
0.115791
0.111550
0.109744
0.110898
0.114488
0.119199
0.123957
0.128232
0.131884
0.134951
0.137518
0.139654
0.141396
0.142749
0.143689
0.144179
0.144170
0.143615
0.142477
0.140734
0.138374
0.135340
0.131425
0.126067
0.118188
0.106501
0.091319
0.078770
0.076247
0.083842
0.093158
0.100689
0.106121
0.110011
0.112899
0.115133
0.116899
0.118282
0.119311
0.119990
0.120315
0.120283
0.119888
0.119114
0.117923
0.116254
0.114056
0.111332
0.108241
0.105193
0.102839
0.101803
0.102434
0.104715
0.108247
0.112370
0.116501
0.120285
0.123576
0.126348
0.128628
0.130446
0.131823
0.132762
0.133254
0.133279
0.132809
0.131811
0.130258
0.128114
0.125296
0.121633
0.116822
0.110483
0.102479
0.093663
0.086586
0.083803
0.086086
0.092371
0.099662
0.106164
0.111393
0.115479
0.118693
0.121256
0.123306
0.124901
0.126044
0.126698
0.126800
0.126269
0.125016
0.122971
0.120095
0.116412
0.112050
0.107288
0.102573
0.098455
0.095444
0.093869
0.093831
0.095213
0.097710
0.100913
0.104434
0.107987
0.111388
0.114531
0.117351
0.119803
0.121857
0.123490
0.124688
0.125446
0.125764
0.125642
0.125065
0.123986
0.122313
0.119907
0.116655
0.112640
0.108400
0.105022
0.103631
0.104798
0.108509
0.114098
0.120336
0.126301
0.131601
0.136194
0.140179
0.143676
0.146775
0.149523
0.151933
0.153986
0.155654
0.156905
0.157720
0.158105
0.158095
0.157741
0.157057
0.155901
0.153789
0.149779
0.142771
0.133023
0.125527
0.168217
0.168344
0.168694
0.169241
0.169942
0.170741
0.171564
0.172323
0.172921
0.173249
0.173194
0.172641
0.171471
0.169561
0.166783
0.162995
0.158060
0.151890
0.144524
0.136270
0.127810
0.120162
0.114315
0.110864
0.109964
0.111394
0.114598
0.118781
0.123261
0.127607
0.131599
0.135141
0.138192
0.140729
0.142737
0.144205
0.145123
0.145490
0.145308
0.144597
0.143379
0.141668
0.139415
0.136451
0.132427
0.126862
0.119480
0.110987
0.103895
0.100962
0.103182
0.109527
0.116959
0.123637
0.129066
0.133375
0.136845
0.139708
0.142111
0.144121
0.145747
0.146956
0.147693
0.147891
0.147482
0.146419
0.144705
0.142399
0.139585
0.136206
0.131607
0.123663
0.107974
0.080389
0.055081
0.052463
0.073559
0.090977
0.101550
0.107766
0.111729
0.114565
0.116787
0.118599
0.120062
0.121172
0.121909
0.122257
0.122209
0.121766
0.120920
0.119596
0.117675
0.114985
0.111372
0.106896
0.102118
0.098198
0.096286
0.096979
0.100271
0.105469
0.111288
0.116761
0.121470
0.125359
0.128524
0.131081
0.133120
0.134686
0.135790
0.136420
0.136553
0.136152
0.135167
0.133590
0.131414
0.128581
0.124879
0.119760
0.112188
0.100952
0.086396
0.074052
0.069584
0.074104
0.086205
0.098040
0.106952
0.113206
0.117676
0.121050
0.123741
0.125949
0.127739
0.129099
0.129965
0.130243
0.129806
0.128507
0.126217
0.122823
0.118272
0.112646
0.106266
0.099769
0.094046
0.089929
0.087906
0.088084
0.090251
0.093905
0.098351
0.102995
0.107473
0.111613
0.115343
0.118632
0.121454
0.123789
0.125620
0.126937
0.127744
0.128054
0.127888
0.127240
0.126065
0.124211
0.121364
0.117090
0.111133
0.104090
0.098050
0.095194
0.096391
0.101704
0.110100
0.118864
0.126488
0.132697
0.137744
0.141969
0.145635
0.148897
0.151826
0.154427
0.156668
0.158492
0.159843
0.160682
0.161016
0.160920
0.160546
0.160080
0.159540
0.158347
0.154644
0.144761
0.125436
0.108646
0.167930
0.168109
0.168603
0.169381
0.170394
0.171573
0.172832
0.174067
0.175157
0.175971
0.176373
0.176224
0.175385
0.173707
0.171022
0.167117
0.161732
0.154595
0.145545
0.134803
0.123308
0.112830
0.105106
0.100979
0.100551
0.103476
0.108820
0.115144
0.121388
0.127064
0.132044
0.136334
0.139966
0.142961
0.145324
0.147053
0.148142
0.148592
0.148412
0.147636
0.146330
0.144569
0.142370
0.139546
0.135496
0.129034
0.118710
0.104533
0.091810
0.086836
0.091162
0.103354
0.115382
0.124503
0.130970
0.135671
0.139315
0.142332
0.144935
0.147205
0.149135
0.150668
0.151719
0.152186
0.151963
0.150972
0.149224
0.146886
0.144338
0.142109
0.140272
0.136325
0.119314
0.063975
0.006188
0.003084
0.066304
0.095305
0.106602
0.111577
0.114520
0.116806
0.118819
0.120622
0.122167
0.123381
0.124195
0.124571
0.124507
0.124028
0.123169
0.121826
0.119824
0.116797
0.112240
0.105831
0.098167
0.091529
0.088140
0.088885
0.093867
0.102006
0.110483
0.117720
0.123413
0.127811
0.131254
0.134005
0.136218
0.137962
0.139243
0.140034
0.140297
0.139992
0.139023
0.137428
0.135271
0.132620
0.129394
0.124941
0.117252
0.102243
0.076458
0.053309
0.046038
0.054157
0.080027
0.099128
0.110248
0.116701
0.120888
0.124029
0.126655
0.128958
0.130960
0.132601
0.133774
0.134346
0.134136
0.132920
0.130491
0.126625
0.121117
0.113901
0.105262
0.096097
0.087952
0.082251
0.079680
0.080291
0.083748
0.089259
0.095547
0.101682
0.107264
0.112215
0.116568
0.120351
0.123567
0.126201
0.128240
0.129675
0.130518
0.130803
0.130589
0.129911
0.128789
0.127062
0.124191
0.119123
0.110576
0.098592
0.087742
0.082532
0.083670
0.091606
0.105557
0.118396
0.127987
0.134873
0.140052
0.144268
0.147952
0.151312
0.154416
0.157247
0.159732
0.161772
0.163262
0.164121
0.164332
0.163997
0.163420
0.163147
0.163772
0.165264
0.165309
0.154763
0.113352
0.073376
0.167318
0.167559
0.168227
0.169286
0.170677
0.172321
0.174116
0.175941
0.177650
0.179082
0.180071
0.180457
0.180085
0.178796
0.176397
0.172610
0.167014
0.159023
0.148011
0.133774
0.117444
0.102408
0.091995
0.087121
0.087591
0.092992
0.101952
0.111506
0.120022
0.127172
0.133140
0.138152
0.142350
0.145799
0.148520
0.150515
0.151777
0.152299
0.152082
0.151176
0.149706
0.147878
0.145909
0.143806
0.140863
0.134840
0.121256
0.095886
0.071243
0.062911
0.070787
0.097058
0.116534
0.127911
0.134570
0.138971
0.142373
0.145333
0.148060
0.150594
0.152883
0.154826
0.156288
0.157123
0.157159
0.156224
0.154277
0.151529
0.148720
0.147513
0.150603
0.159950
0.163504
0.038912
-0.101715
-0.120622
0.089178
0.115497
0.117218
0.117051
0.117743
0.119149
0.120910
0.122750
0.124449
0.125829
0.126758
0.127168
0.127067
0.126524
0.125633
0.124407
0.122666
0.119804
0.114704
0.106019
0.093644
0.082097
0.076258
0.076910
0.084516
0.098209
0.110786
0.120031
0.126447
0.131016
0.134481
0.137270
0.139587
0.141496
0.142974
0.143954
0.144347
0.144082
0.143102
0.141436
0.139235
0.136816
0.134583
0.132501
0.128246
0.112051
0.062729
0.016984
0.007051
0.015749
0.079900
0.107590
0.117825
0.122218
0.124975
0.127385
0.129772
0.132151
0.134428
0.136456
0.138065
0.139085
0.139269
0.138328
0.135978
0.131833
0.125434
0.116367
0.104631
0.091352
0.079464
0.071557
0.068341
0.069662
0.075186
0.083812
0.092855
0.100870
0.107626
0.113355
0.118297
0.122568
0.126189
0.129138
0.131390
0.132933
0.133780
0.133983
0.133649
0.132919
0.132001
0.130901
0.129000
0.124341
0.113036
0.091651
0.071589
0.063324
0.063887
0.075123
0.101810
0.120926
0.132016
0.138638
0.143238
0.147029
0.150531
0.153927
0.157229
0.160362
0.163192
0.165554
0.167267
0.168168
0.168159
0.167280
0.165967
0.165293
0.167057
0.173251
0.184876
0.191389
0.092226
-0.004448
0.166265
0.166582
0.167459
0.168855
0.170703
0.172910
0.175362
0.177911
0.180391
0.182598
0.184325
0.185388
0.185627
0.184901
0.183040
0.179754
0.174473
0.166163
0.153252
0.134191
0.109557
0.086701
0.072763
0.067410
0.069377
0.078663
0.094289
0.108767
0.119926
0.128390
0.135132
0.140734
0.145438
0.149322
0.152402
0.154673
0.156113
0.156699
0.156395
0.155235
0.153401
0.151288
0.149533
0.148815
0.149092
0.147662
0.133826
0.084096
0.032547
0.021549
0.030380
0.096776
0.125340
0.135811
0.140304
0.143191
0.145812
0.148513
0.151325
0.154172
0.156919
0.159398
0.161413
0.162765
0.163202
0.162357
0.160010
0.156137
0.151448
0.148548
0.153939
0.180467
0.260712
0.193082
0.000000
-0.367005
0.245578
0.154743
0.127984
0.120874
0.119773
0.120759
0.122564
0.124645
0.126653
0.128311
0.129413
0.129858
0.129666
0.128983
0.128044
0.127115
0.126143
0.124431
0.120059
0.109333
0.088481
0.068178
0.059156
0.059148
0.069765
0.095555
0.114052
0.124684
0.130835
0.134859
0.137932
0.140557
0.142904
0.144978
0.146699
0.147937
0.148536
0.148349
0.147346
0.145492
0.142971
0.140385
0.139035
0.140989
0.147592
0.148168
0.038793
-0.053303
-0.049147
-0.083285
0.111118
0.130941
0.130038
0.128719
0.128988
0.130435
0.132594
0.135141
0.137817
0.140375
0.142559
0.144094
0.144763
0.144330
0.142399
0.138422
0.131585
0.120804
0.105132
0.085316
0.067541
0.056914
0.053035
0.055216
0.063778
0.078038
0.091154
0.101217
0.108884
0.115130
0.120526
0.125248
0.129279
0.132556
0.135028
0.136669
0.137475
0.137492
0.136838
0.135876
0.135128
0.135156
0.135903
0.135078
0.123656
0.082282
0.043724
0.035352
0.033335
0.042317
0.104824
0.130866
0.140150
0.144210
0.147089
0.149971
0.153127
0.156547
0.160125
0.163691
0.167033
0.169897
0.172000
0.173047
0.172771
0.170925
0.167841
0.164994
0.165820
0.175193
0.202584
0.275095
0.204741
0.000000
0.164635
0.165042
0.166170
0.167969
0.170360
0.173243
0.176491
0.179935
0.183364
0.186536
0.189176
0.191057
0.192030
0.192012
0.190943
0.188664
0.184632
0.177390
0.163795
0.138629