# vtk DataFile Version 3.0
Vector Field
ASCII
DATASET RECTILINEAR_GRID
DIMENSIONS 200 75 1
X_COORDINATES 200 double
0.050000 0.150000 0.250000 0.350000 0.450000 0.550000 0.650000 0.750000 0.850000 0.950000 1.050000 1.150000 1.250000 1.350000 1.450000 1.550000 1.650000 1.750000 1.850000 1.950000 2.050000 2.150000 2.250000 2.350000 2.450000 2.550000 2.650000 2.750000 2.850000 2.950000 3.050000 3.150000 3.250000 3.350000 3.450000 3.550000 3.650000 3.750000 3.850000 3.950000 4.050000 4.150000 4.250000 4.350000 4.450000 4.550000 4.650000 4.750000 4.850000 4.950000 5.050000 5.150000 5.250000 5.350000 5.450000 5.550000 5.650000 5.750000 5.850000 5.950000 6.050000 6.150000 6.250000 6.350000 6.450000 6.550000 6.650000 6.750000 6.850000 6.950000 7.050000 7.150000 7.250000 7.350000 7.450000 7.550000 7.650000 7.750000 7.850000 7.950000 8.050000 8.150000 8.250000 8.350000 8.450000 8.550000 8.650000 8.750000 8.850000 8.950000 9.050000 9.150000 9.250000 9.350000 9.450000 9.550000 9.650000 9.750000 9.850000 9.950000 10.050000 10.150000 10.250000 10.350000 10.450000 10.550000 10.650000 10.750000 10.850000 10.950000 11.050000 11.150000 11.250000 11.350000 11.450000 11.550000 11.650000 11.750000 11.850000 11.950000 12.050000 12.150000 12.250000 12.350000 12.450000 12.550000 12.650000 12.750000 12.850000 12.950000 13.050000 13.150000 13.250000 13.350000 13.450000 13.550000 13.650000 13.750000 13.850000 13.950000 14.050000 14.150000 14.250000 14.350000 14.450000 14.550000 14.650000 14.750000 14.850000 14.950000 15.050000 15.150000 15.250000 15.350000 15.450000 15.550000 15.650000 15.750000 15.850000 15.950000 16.050000 16.150000 16.250000 16.350000 16.450000 16.550000 16.650000 16.750000 16.850000 16.950000 17.050000 17.150000 17.250000 17.350000 17.450000 17.550000 17.650000 17.750000 17.850000 17.950000 18.050000 18.150000 18.250000 18.350000 18.450000 18.550000 18.650000 18.750000 18.850000 18.950000 19.050000 19.150000 19.250000 19.350000 19.450000 19.550000 19.650000 19.750000 19.850000 19.950000 
Y_COORDINATES 75 double
0.050000 0.150000 0.250000 0.350000 0.450000 0.550000 0.650000 0.750000 0.850000 0.950000 1.050000 1.150000 1.250000 1.350000 1.450000 1.550000 1.650000 1.750000 1.850000 1.950000 2.050000 2.150000 2.250000 2.350000 2.450000 2.550000 2.650000 2.750000 2.850000 2.950000 3.050000 3.150000 3.250000 3.350000 3.450000 3.550000 3.650000 3.750000 3.850000 3.950000 4.050000 4.150000 4.250000 4.350000 4.450000 4.550000 4.650000 4.750000 4.850000 4.950000 5.050000 5.150000 5.250000 5.350000 5.450000 5.550000 5.650000 5.750000 5.850000 5.950000 6.050000 6.150000 6.250000 6.350000 6.450000 6.550000 6.650000 6.750000 6.850000 6.950000 7.050000 7.150000 7.250000 7.350000 7.450000 
Z_COORDINATES 1 double
0.0
POINT_DATA 15000
VECTORS Vektorfeld double
0.999659 0.000341 0.0
0.998749 0.000569 0.0
0.997536 0.000644 0.0
0.996236 0.000657 0.0
0.994940 0.000640 0.0
0.993695 0.000605 0.0
0.992534 0.000557 0.0
0.991478 0.000499 0.0
0.990544 0.000435 0.0
0.989744 0.000365 0.0
0.989087 0.000292 0.0
0.988574 0.000220 0.0
0.988203 0.000151 0.0
0.987963 0.000089 0.0
0.987837 0.000037 0.0
0.987800 -0.000001 0.0
0.987822 -0.000021 0.0
0.987865 -0.000021 0.0
0.987886 -0.000000 0.0
0.987843 0.000043 0.0
0.987693 0.000107 0.0
0.987397 0.000189 0.0
0.986924 0.000285 0.0
0.986250 0.000389 0.0
0.985363 0.000497 0.0
0.984263 0.000603 0.0
0.982959 0.000701 0.0
0.981472 0.000787 0.0
0.979828 0.000857 0.0
0.978060 0.000910 0.0
0.976205 0.000945 0.0
0.974298 0.000961 0.0
0.972377 0.000960 0.0
0.970472 0.000944 0.0
0.968613 0.000915 0.0
0.966823 0.000875 0.0
0.965120 0.000828 0.0
0.963515 0.000777 0.0
0.962012 0.000726 0.0
0.960609 0.000677 0.0
0.959298 0.000635 0.0
0.958060 0.000603 0.0
0.956875 0.000583 0.0
0.955712 0.000579 0.0
0.954540 0.000593 0.0
0.953324 0.000624 0.0
0.952030 0.000671 0.0
0.950626 0.000732 0.0
0.949091 0.000803 0.0
0.947410 0.000878 0.0
0.945582 0.000950 0.0
0.943619 0.001014 0.0
0.941541 0.001064 0.0
0.939379 0.001097 0.0
0.937172 0.001110 0.0
0.934960 0.001102 0.0
0.932783 0.001074 0.0
0.930683 0.001026 0.0
0.928696 0.000961 0.0
0.926854 0.000881 0.0
0.925186 0.000788 0.0
0.923712 0.000686 0.0
0.922449 0.000577 0.0
0.921404 0.000467 0.0
0.920579 0.000359 0.0
0.919963 0.000257 0.0
0.919539 0.000167 0.0
0.919278 0.000094 0.0
0.919142 0.000043 0.0
0.919078 0.000020 0.0
0.919029 0.000029 0.0
0.918928 0.000072 0.0
0.918708 0.000148 0.0
0.918307 0.000253 0.0
0.917675 0.000379 0.0
0.916781 0.000516 0.0
0.915613 0.000653 0.0
0.914180 0.000780 0.0
0.912511 0.000890 0.0
0.910644 0.000978 0.0
0.908624 0.001042 0.0
0.906497 0.001085 0.0
0.904306 0.001106 0.0
0.902090 0.001110 0.0
0.899879 0.001100 0.0
0.897698 0.001081 0.0
0.895563 0.001054 0.0
0.893484 0.001025 0.0
0.891462 0.000997 0.0
0.889494 0.000972 0.0
0.887569 0.000954 0.0
0.885670 0.000945 0.0
0.883779 0.000947 0.0
0.881870 0.000962 0.0
0.879919 0.000990 0.0
0.877900 0.001029 0.0
0.875791 0.001079 0.0
0.873575 0.001136 0.0
0.871244 0.001195 0.0
0.868796 0.001252 0.0
0.866241 0.001303 0.0
0.863596 0.001342 0.0
0.860887 0.001367 0.0
0.858145 0.001375 0.0
0.855405 0.001365 0.0
0.852702 0.001337 0.0
0.850072 0.001293 0.0
0.847546 0.001233 0.0
0.845152 0.001160 0.0
0.842915 0.001077 0.0
0.840850 0.000987 0.0
0.838969 0.000893 0.0
0.837277 0.000799 0.0
0.835770 0.000708 0.0
0.834436 0.000625 0.0
0.833257 0.000554 0.0
0.832202 0.000500 0.0
0.831236 0.000466 0.0
0.830314 0.000456 0.0
0.829385 0.000473 0.0
0.828395 0.000517 0.0
0.827291 0.000587 0.0
0.826026 0.000678 0.0
0.824564 0.000784 0.0
0.822884 0.000896 0.0
0.820982 0.001006 0.0
0.818873 0.001103 0.0
0.816587 0.001183 0.0
0.814166 0.001238 0.0
0.811660 0.001268 0.0
0.809119 0.001272 0.0
0.806594 0.001252 0.0
0.804132 0.001210 0.0
0.801772 0.001150 0.0
0.799546 0.001076 0.0
0.797479 0.000992 0.0
0.795585 0.000902 0.0
0.793873 0.000811 0.0
0.792338 0.000723 0.0
0.790972 0.000643 0.0
0.789753 0.000575 0.0
0.788657 0.000521 0.0
0.787650 0.000485 0.0
0.786697 0.000468 0.0
0.785758 0.000471 0.0
0.784797 0.000490 0.0
0.783781 0.000525 0.0
0.782685 0.000571 0.0
0.781491 0.000623 0.0
0.780193 0.000675 0.0
0.778795 0.000723 0.0
0.777310 0.000762 0.0
0.775761 0.000787 0.0
0.774176 0.000797 0.0
0.772588 0.000791 0.0
0.771029 0.000769 0.0
0.769528 0.000732 0.0
0.768112 0.000684 0.0
0.766800 0.000628 0.0
0.765605 0.000567 0.0
0.764533 0.000504 0.0
0.763586 0.000443 0.0
0.762756 0.000386 0.0
0.762033 0.000337 0.0
0.761397 0.000299 0.0
0.760825 0.000274 0.0
0.760284 0.000267 0.0
0.759739 0.000279 0.0
0.759149 0.000311 0.0
0.758471 0.000366 0.0
0.757665 0.000440 0.0
0.756692 0.000532 0.0
0.755523 0.000637 0.0
0.754139 0.000747 0.0
0.752534 0.000858 0.0
0.750716 0.000960 0.0
0.748707 0.001049 0.0
0.746540 0.001119 0.0
0.744254 0.001167 0.0
0.741896 0.001191 0.0
0.739513 0.001191 0.0
0.737153 0.001169 0.0
0.734860 0.001125 0.0
0.732673 0.001062 0.0
0.730629 0.000982 0.0
0.728757 0.000890 0.0
0.727081 0.000786 0.0
0.725621 0.000674 0.0
0.724388 0.000559 0.0
0.723388 0.000442 0.0
0.722619 0.000327 0.0
0.722073 0.000218 0.0
0.721736 0.000119 0.0
0.721586 0.000031 0.0
0.721603 -0.000048 0.0
0.721759 -0.000107 0.0
0.722011 -0.000146 0.0
0.722328 -0.000171 0.0
0.722707 -0.000208 0.0
0.723116 -0.000201 0.0
1.000203 0.000479 0.0
1.000678 0.000866 0.0
1.001236 0.001001 0.0
1.001822 0.001013 0.0
1.002448 0.000954 0.0
1.003136 0.000846 0.0
1.003909 0.000704 0.0
1.004784 0.000533 0.0
1.005779 0.000340 0.0
1.006905 0.000132 0.0
1.008172 -0.000084 0.0
1.009582 -0.000300 0.0
1.011132 -0.000507 0.0
1.012813 -0.000694 0.0
1.014608 -0.000849 0.0
1.016491 -0.000961 0.0
1.018430 -0.001021 0.0
1.020386 -0.001020 0.0
1.022315 -0.000953 0.0
1.024172 -0.000818 0.0
1.025912 -0.000621 0.0
1.027492 -0.000368 0.0
1.028878 -0.000072 0.0
1.030047 0.000251 0.0
1.030985 0.000584 0.0
1.031693 0.000909 0.0
1.032183 0.001209 0.0
1.032476 0.001473 0.0
1.032601 0.001689 0.0
1.032595 0.001852 0.0
1.032495 0.001959 0.0
1.032339 0.002009 0.0
1.032165 0.002008 0.0
1.032007 0.001960 0.0
1.031893 0.001872 0.0
1.031847 0.001753 0.0
1.031889 0.001612 0.0
1.032028 0.001459 0.0
1.032269 0.001305 0.0
1.032611 0.001159 0.0
1.033042 0.001033 0.0
1.033548 0.000937 0.0
1.034103 0.000880 0.0
1.034678 0.000870 0.0
1.035238 0.000913 0.0
1.035747 0.001010 0.0
1.036167 0.001159 0.0
1.036465 0.001350 0.0
1.036616 0.001570 0.0
1.036605 0.001802 0.0
1.036430 0.002027 0.0
1.036105 0.002226 0.0
1.035652 0.002383 0.0
1.035107 0.002486 0.0
1.034508 0.002528 0.0
1.033898 0.002506 0.0
1.033322 0.002423 0.0
1.032820 0.002280 0.0
1.032429 0.002085 0.0
1.032183 0.001844 0.0
1.032110 0.001566 0.0
1.032231 0.001260 0.0
1.032562 0.000935 0.0
1.033112 0.000604 0.0
1.033883 0.000277 0.0
1.034867 -0.000030 0.0
1.036048 -0.000303 0.0
1.037395 -0.000524 0.0
1.038869 -0.000677 0.0
1.040418 -0.000745 0.0
1.041977 -0.000716 0.0
1.043476 -0.000581 0.0
1.044843 -0.000345 0.0
1.046008 -0.000019 0.0
1.046918 0.000371 0.0
1.047541 0.000794 0.0
1.047869 0.001215 0.0
1.047915 0.001604 0.0
1.047712 0.001938 0.0
1.047305 0.002204 0.0
1.046742 0.002399 0.0
1.046073 0.002524 0.0
1.045343 0.002587 0.0
1.044591 0.002598 0.0
1.043846 0.002568 0.0
1.043134 0.002507 0.0
1.042468 0.002428 0.0
1.041859 0.002340 0.0
1.041308 0.002255 0.0
1.040809 0.002181 0.0
1.040352 0.002127 0.0
1.039919 0.002102 0.0
1.039489 0.002111 0.0
1.039037 0.002159 0.0
1.038536 0.002246 0.0
1.037958 0.002370 0.0
1.037280 0.002525 0.0
1.036485 0.002701 0.0
1.035561 0.002885 0.0
1.034509 0.003063 0.0
1.033338 0.003219 0.0
1.032068 0.003341 0.0
1.030726 0.003419 0.0
1.029346 0.003446 0.0
1.027963 0.003418 0.0
1.026615 0.003336 0.0
1.025338 0.003202 0.0
1.024164 0.003023 0.0
1.023122 0.002806 0.0
1.022235 0.002557 0.0
1.021520 0.002287 0.0
1.020988 0.002006 0.0
1.020644 0.001723 0.0
1.020484 0.001452 0.0
1.020496 0.001203 0.0
1.020661 0.000991 0.0
1.020950 0.000829 0.0
1.021326 0.000728 0.0
1.021741 0.000701 0.0
1.022144 0.000755 0.0
1.022478 0.000892 0.0
1.022686 0.001108 0.0
1.022719 0.001389 0.0
1.022537 0.001716 0.0
1.022119 0.002062 0.0
1.021463 0.002398 0.0
1.020587 0.002697 0.0
1.019525 0.002938 0.0
1.018322 0.003107 0.0
1.017032 0.003197 0.0
1.015708 0.003208 0.0
1.014404 0.003146 0.0
1.013165 0.003018 0.0
1.012031 0.002836 0.0
1.011034 0.002613 0.0
1.010196 0.002359 0.0
1.009534 0.002090 0.0
1.009051 0.001818 0.0
1.008746 0.001556 0.0
1.008606 0.001317 0.0
1.008611 0.001115 0.0
1.008731 0.000958 0.0
1.008932 0.000855 0.0
1.009174 0.000810 0.0
1.009417 0.000825 0.0
1.009621 0.000894 0.0
1.009749 0.001009 0.0
1.009774 0.001158 0.0
1.009677 0.001327 0.0
1.009448 0.001498 0.0
1.009091 0.001656 0.0
1.008617 0.001788 0.0
1.008044 0.001883 0.0
1.007394 0.001935 0.0
1.006694 0.001942 0.0
1.005966 0.001905 0.0
1.005233 0.001829 0.0
1.004516 0.001721 0.0
1.003831 0.001588 0.0
1.003193 0.001441 0.0
1.002610 0.001285 0.0
1.002088 0.001132 0.0
1.001627 0.000988 0.0
1.001220 0.000865 0.0
1.000855 0.000771 0.0
1.000512 0.000718 0.0
1.000163 0.000713 0.0
0.999775 0.000765 0.0
0.999311 0.000879 0.0
0.998731 0.001056 0.0
0.997993 0.001294 0.0
0.997063 0.001582 0.0
0.995912 0.001907 0.0
0.994524 0.002249 0.0
0.992897 0.002588 0.0
0.991042 0.002902 0.0
0.988985 0.003173 0.0
0.986762 0.003385 0.0
0.984419 0.003530 0.0
0.982002 0.003602 0.0
0.979563 0.003602 0.0
0.977148 0.003533 0.0
0.974802 0.003400 0.0
0.972563 0.003211 0.0
0.970468 0.002973 0.0
0.968543 0.002695 0.0
0.966814 0.002385 0.0
0.965296 0.002053 0.0
0.964002 0.001708 0.0
0.962936 0.001359 0.0
0.962097 0.001018 0.0
0.961476 0.000694 0.0
0.961057 0.000399 0.0
0.960815 0.000143 0.0
0.960708 -0.000071 0.0
0.960694 -0.000226 0.0
0.960738 -0.000323 0.0
0.960799 -0.000373 0.0
0.960830 -0.000415 0.0
0.960800 -0.000372 0.0
1.000086 0.000190 0.0
1.000351 0.000415 0.0
1.000759 0.000487 0.0
1.001254 0.000446 0.0
1.001827 0.000322 0.0
1.002485 0.000133 0.0
1.003240 -0.000110 0.0
1.004109 -0.000398 0.0
1.005108 -0.000722 0.0
1.006248 -0.001072 0.0
1.007539 -0.001437 0.0
1.008986 -0.001804 0.0
1.010586 -0.002155 0.0
1.012331 -0.002472 0.0
1.014204 -0.002738 0.0
1.016180 -0.002931 0.0
1.018224 -0.003035 0.0
1.020297 -0.003035 0.0
1.022350 -0.002921 0.0
1.024333 -0.002691 0.0
1.026197 -0.002351 0.0
1.027895 -0.001915 0.0
1.029389 -0.001406 0.0
1.030655 -0.000850 0.0
1.031679 -0.000278 0.0
1.032462 0.000279 0.0
1.033018 0.000793 0.0
1.033373 0.001241 0.0
1.033562 0.001607 0.0
1.033621 0.001881 0.0
1.033594 0.002058 0.0
1.033520 0.002140 0.0
1.033438 0.002134 0.0
1.033382 0.002048 0.0
1.033383 0.001897 0.0
1.033464 0.001693 0.0
1.033642 0.001453 0.0
1.033930 0.001192 0.0
1.034331 0.000929 0.0
1.034844 0.000680 0.0
1.035459 0.000465 0.0
1.036160 0.000299 0.0
1.036922 0.000200 0.0
1.037716 0.000181 0.0
1.038505 0.000253 0.0
1.039248 0.000419 0.0
1.039905 0.000674 0.0
1.040437 0.001005 0.0
1.040814 0.001387 0.0
1.041020 0.001791 0.0
1.041052 0.002181 0.0
1.040923 0.002526 0.0
1.040660 0.002797 0.0
1.040302 0.002975 0.0
1.039890 0.003049 0.0
1.039470 0.003015 0.0
1.039086 0.002875 0.0
1.038778 0.002638 0.0
1.038583 0.002313 0.0
1.038532 0.001913 0.0
1.038653 0.001451 0.0
1.038964 0.000942 0.0
1.039483 0.000403 0.0
1.040217 -0.000149 0.0
1.041169 -0.000693 0.0
1.042331 -0.001207 0.0
1.043690 -0.001665 0.0
1.045221 -0.002040 0.0
1.046889 -0.002303 0.0
1.048647 -0.002425 0.0
1.050432 -0.002381 0.0
1.052173 -0.002157 0.0
1.053792 -0.001754 0.0
1.055213 -0.001195 0.0
1.056375 -0.000524 0.0
1.057238 0.000203 0.0
1.057794 0.000922 0.0
1.058064 0.001580 0.0
1.058090 0.002139 0.0
1.057923 0.002578 0.0
1.057619 0.002892 0.0
1.057229 0.003089 0.0
1.056799 0.003182 0.0
1.056365 0.003190 0.0
1.055956 0.003130 0.0
1.055592 0.003021 0.0
1.055288 0.002883 0.0
1.055049 0.002732 0.0
1.054878 0.002585 0.0
1.054769 0.002458 0.0
1.054710 0.002366 0.0
1.054686 0.002320 0.0
1.054675 0.002334 0.0
1.054652 0.002412 0.0
1.054588 0.002558 0.0
1.054455 0.002768 0.0
1.054227 0.003032 0.0
1.053884 0.003333 0.0
1.053413 0.003648 0.0
1.052813 0.003952 0.0
1.052093 0.004220 0.0
1.051272 0.004430 0.0
1.050379 0.004565 0.0
1.049447 0.004612 0.0
1.048513 0.004568 0.0
1.047612 0.004433 0.0
1.046780 0.004214 0.0
1.046046 0.003919 0.0
1.045437 0.003561 0.0
1.044975 0.003152 0.0
1.044675 0.002707 0.0
1.044548 0.002244 0.0
1.044598 0.001779 0.0
1.044824 0.001330 0.0
1.045218 0.000919 0.0
1.045763 0.000566 0.0
1.046435 0.000293 0.0
1.047200 0.000123 0.0
1.048017 0.000074 0.0
1.048835 0.000161 0.0
1.049597 0.000390 0.0
1.050243 0.000754 0.0
1.050721 0.001232 0.0
1.050988 0.001789 0.0
1.051018 0.002377 0.0
1.050809 0.002947 0.0
1.050381 0.003452 0.0
1.049770 0.003856 0.0
1.049025 0.004136 0.0
1.048200 0.004282 0.0
1.047349 0.004297 0.0
1.046519 0.004191 0.0
1.045752 0.003978 0.0
1.045084 0.003679 0.0
1.044540 0.003312 0.0
1.044139 0.002899 0.0
1.043891 0.002461 0.0
1.043800 0.002020 0.0
1.043860 0.001598 0.0
1.044058 0.001217 0.0
1.044371 0.000897 0.0
1.044769 0.000656 0.0
1.045217 0.000508 0.0
1.045672 0.000460 0.0
1.046091 0.000514 0.0
1.046429 0.000663 0.0
1.046647 0.000893 0.0
1.046714 0.001183 0.0
1.046605 0.001508 0.0
1.046308 0.001841 0.0
1.045824 0.002155 0.0
1.045161 0.002427 0.0
1.044340 0.002640 0.0
1.043385 0.002783 0.0
1.042329 0.002852 0.0
1.041204 0.002848 0.0
1.040043 0.002779 0.0
1.038877 0.002653 0.0
1.037735 0.002483 0.0
1.036640 0.002280 0.0
1.035610 0.002059 0.0
1.034658 0.001833 0.0
1.033787 0.001619 0.0
1.032996 0.001432 0.0
1.032277 0.001289 0.0
1.031614 0.001207 0.0
1.030986 0.001201 0.0
1.030364 0.001287 0.0
1.029713 0.001472 0.0
1.028997 0.001761 0.0
1.028174 0.002149 0.0
1.027208 0.002622 0.0
1.026069 0.003156 0.0
1.024737 0.003719 0.0
1.023206 0.004276 0.0
1.021485 0.004790 0.0
1.019597 0.005230 0.0
1.017576 0.005573 0.0
1.015460 0.005802 0.0
1.013294 0.005913 0.0
1.011120 0.005906 0.0
1.008976 0.005788 0.0
1.006900 0.005569 0.0
1.004921 0.005260 0.0
1.003066 0.004875 0.0
1.001357 0.004427 0.0
0.999811 0.003929 0.0
0.998442 0.003396 0.0
0.997260 0.002842 0.0
0.996268 0.002282 0.0
0.995468 0.001734 0.0
0.994854 0.001213 0.0
0.994414 0.000739 0.0
0.994130 0.000330 0.0
0.993975 0.000004 0.0
0.993913 -0.000226 0.0
0.993902 -0.000356 0.0
0.993894 -0.000394 0.0
0.993837 -0.000367 0.0
0.993703 -0.000257 0.0
1.000048 0.000056 0.0
1.000220 0.000113 0.0
1.000522 0.000079 0.0
1.000925 -0.000045 0.0
1.001419 -0.000254 0.0
1.002010 -0.000539 0.0
1.002708 -0.000892 0.0
1.003530 -0.001307 0.0
1.004491 -0.001772 0.0
1.005606 -0.002277 0.0
1.006888 -0.002805 0.0
1.008343 -0.003337 0.0
1.009973 -0.003851 0.0
1.011770 -0.004319 0.0
1.013719 -0.004713 0.0
1.015794 -0.005006 0.0
1.017957 -0.005169 0.0
1.020164 -0.005180 0.0
1.022358 -0.005023 0.0
1.024481 -0.004694 0.0
1.026471 -0.004201 0.0
1.028274 -0.003565 0.0
1.029843 -0.002819 0.0
1.031147 -0.002005 0.0
1.032171 -0.001170 0.0
1.032919 -0.000360 0.0
1.033410 0.000384 0.0
1.033676 0.001028 0.0
1.033760 0.001549 0.0
1.033707 0.001932 0.0
1.033567 0.002174 0.0
1.033386 0.002279 0.0
1.033207 0.002256 0.0
1.033069 0.002120 0.0
1.033003 0.001890 0.0
1.033036 0.001586 0.0
1.033186 0.001231 0.0
1.033465 0.000847 0.0
1.033878 0.000459 0.0
1.034424 0.000091 0.0
1.035094 -0.000231 0.0
1.035869 -0.000482 0.0
1.036725 -0.000638 0.0
1.037628 -0.000677 0.0
1.038534 -0.000584 0.0
1.039396 -0.000349 0.0
1.040160 0.000021 0.0
1.040779 0.000508 0.0
1.041211 0.001075 0.0
1.041432 0.001676 0.0
1.041441 0.002257 0.0
1.041253 0.002767 0.0
1.040905 0.003166 0.0
1.040444 0.003426 0.0
1.039922 0.003532 0.0
1.039394 0.003481 0.0
1.038907 0.003280 0.0
1.038508 0.002940 0.0
1.038235 0.002479 0.0
1.038121 0.001912 0.0
1.038193 0.001259 0.0
1.038473 0.000542 0.0
1.038978 -0.000220 0.0
1.039718 -0.001000 0.0
1.040698 -0.001773 0.0
1.041917 -0.002507 0.0
1.043364 -0.003169 0.0
1.045017 -0.003720 0.0
1.046842 -0.004117 0.0
1.048789 -0.004315 0.0
1.050790 -0.004276 0.0
1.052756 -0.003969 0.0
1.054587 -0.003392 0.0
1.056181 -0.002573 0.0
1.057454 -0.001580 0.0
1.058358 -0.000507 0.0
1.058887 0.000546 0.0
1.059079 0.001494 0.0
1.058996 0.002283 0.0
1.058710 0.002886 0.0
1.058294 0.003304 0.0
1.057809 0.003552 0.0
1.057305 0.003654 0.0
1.056821 0.003636 0.0
1.056385 0.003528 0.0
1.056018 0.003354 0.0
1.055731 0.003141 0.0
1.055530 0.002913 0.0
1.055416 0.002691 0.0
1.055381 0.002497 0.0
1.055414 0.002352 0.0
1.055497 0.002275 0.0
1.055604 0.002282 0.0
1.055707 0.002384 0.0
1.055772 0.002585 0.0
1.055763 0.002883 0.0
1.055647 0.003262 0.0
1.055396 0.003697 0.0
1.054995 0.004156 0.0
1.054438 0.004601 0.0
1.053737 0.004993 0.0
1.052917 0.005299 0.0
1.052011 0.005495 0.0
1.051060 0.005565 0.0
1.050107 0.005503 0.0
1.049192 0.005314 0.0
1.048353 0.005005 0.0
1.047624 0.004591 0.0
1.047031 0.004090 0.0
1.046597 0.003519 0.0
1.046338 0.002899 0.0
1.046266 0.002252 0.0
1.046387 0.001600 0.0
1.046699 0.000970 0.0
1.047198 0.000387 0.0
1.047868 -0.000118 0.0
1.048688 -0.000515 0.0
1.049624 -0.000771 0.0
1.050632 -0.000857 0.0
1.051655 -0.000749 0.0
1.052628 -0.000434 0.0
1.053478 0.000082 0.0
1.054134 0.000771 0.0
1.054538 0.001579 0.0
1.054660 0.002435 0.0
1.054494 0.003262 0.0
1.054070 0.003989 0.0
1.053437 0.004563 0.0
1.052659 0.004952 0.0
1.051802 0.005148 0.0
1.050928 0.005157 0.0
1.050091 0.004998 0.0
1.049334 0.004694 0.0
1.048693 0.004273 0.0
1.048191 0.003763 0.0
1.047846 0.003193 0.0
1.047668 0.002592 0.0
1.047659 0.001989 0.0
1.047812 0.001416 0.0
1.048114 0.000901 0.0
1.048539 0.000475 0.0
1.049055 0.000164 0.0
1.049621 -0.000013 0.0
1.050188 -0.000042 0.0
1.050706 0.000079 0.0
1.051123 0.000342 0.0
1.051391 0.000727 0.0
1.051473 0.001201 0.0
1.051343 0.001729 0.0
1.050989 0.002270 0.0
1.050416 0.002784 0.0
1.049638 0.003238 0.0
1.048682 0.003606 0.0
1.047582 0.003871 0.0
1.046376 0.004026 0.0
1.045103 0.004072 0.0
1.043801 0.004018 0.0
1.042506 0.003875 0.0
1.041250 0.003660 0.0
1.040056 0.003391 0.0
1.038946 0.003088 0.0
1.037932 0.002771 0.0
1.037021 0.002463 0.0
1.036212 0.002187 0.0
1.035499 0.001966 0.0
1.034866 0.001825 0.0
1.034292 0.001786 0.0
1.033745 0.001871 0.0
1.033188 0.002095 0.0
1.032575 0.002468 0.0
1.031857 0.002983 0.0
1.030988 0.003624 0.0
1.029926 0.004356 0.0
1.028644 0.005133 0.0
1.027135 0.005903 0.0
1.025409 0.006611 0.0
1.023494 0.007212 0.0
1.021433 0.007673 0.0
1.019275 0.007975 0.0
1.017069 0.008112 0.0
1.014863 0.008087 0.0
1.012698 0.007914 0.0
1.010610 0.007606 0.0
1.008630 0.007182 0.0
1.006781 0.006657 0.0
1.005084 0.006051 0.0
1.003555 0.005380 0.0
1.002207 0.004662 0.0
1.001049 0.003916 0.0
1.000087 0.003162 0.0
0.999322 0.002420 0.0
0.998751 0.001712 0.0
0.998365 0.001065 0.0
0.998148 0.000505 0.0
0.998074 0.000059 0.0
0.998103 -0.000248 0.0
0.998184 -0.000403 0.0
0.998254 -0.000408 0.0
0.998249 -0.000290 0.0
0.998125 -0.000076 0.0
1.000031 -0.000024 0.0
1.000151 -0.000099 0.0
1.000377 -0.000236 0.0
1.000697 -0.000453 0.0
1.001109 -0.000754 0.0
1.001621 -0.001142 0.0
1.002247 -0.001614 0.0
1.003005 -0.002164 0.0
1.003914 -0.002784 0.0
1.004992 -0.003459 0.0
1.006257 -0.004170 0.0
1.007720 -0.004891 0.0
1.009386 -0.005593 0.0
1.011251 -0.006239 0.0
1.013302 -0.006793 0.0
1.015511 -0.007211 0.0
1.017840 -0.007456 0.0
1.020234 -0.007493 0.0
1.022629 -0.007298 0.0
1.024951 -0.006863 0.0
1.027124 -0.006196 0.0
1.029076 -0.005326 0.0
1.030751 -0.004302 0.0
1.032107 -0.003183 0.0
1.033128 -0.002038 0.0
1.033821 -0.000932 0.0
1.034212 0.000075 0.0
1.034345 0.000938 0.0
1.034274 0.001626 0.0
1.034058 0.002124 0.0
1.033755 0.002426 0.0
1.033419 0.002543 0.0
1.033101 0.002488 0.0
1.032843 0.002284 0.0
1.032680 0.001955 0.0
1.032640 0.001529 0.0
1.032743 0.001035 0.0
1.033003 0.000504 0.0
1.033426 -0.000034 0.0
1.034009 -0.000546 0.0
1.034746 -0.000999 0.0
1.035617 -0.001360 0.0
1.036596 -0.001595 0.0
1.037645 -0.001672 0.0
1.038713 -0.001564 0.0
1.039739 -0.001257 0.0
1.040654 -0.000752 0.0
1.041391 -0.000074 0.0
1.041892 0.000724 0.0
1.042122 0.001574 0.0
1.042076 0.002395 0.0
1.041780 0.003112 0.0
1.041283 0.003667 0.0
1.040648 0.004021 0.0
1.039945 0.004161 0.0
1.039238 0.004087 0.0
1.038586 0.003812 0.0
1.038037 0.003355 0.0
1.037634 0.002739 0.0
1.037412 0.001988 0.0
1.037397 0.001126 0.0
1.037615 0.000178 0.0
1.038083 -0.000829 0.0
1.038815 -0.001864 0.0
1.039820 -0.002895 0.0
1.041100 -0.003884 0.0
1.042650 -0.004789 0.0
1.044453 -0.005557 0.0
1.046481 -0.006132 0.0
1.048682 -0.006449 0.0
1.050980 -0.006441 0.0
1.053266 -0.006057 0.0
1.055405 -0.005274 0.0
1.057249 -0.004129 0.0
1.058674 -0.002722 0.0
1.059610 -0.001204 0.0
1.060060 0.000264 0.0
1.060089 0.001555 0.0
1.059797 0.002596 0.0
1.059292 0.003363 0.0
1.058668 0.003867 0.0
1.058001 0.004141 0.0
1.057347 0.004223 0.0
1.056746 0.004153 0.0
1.056224 0.003968 0.0
1.055801 0.003705 0.0
1.055485 0.003393 0.0
1.055282 0.003064 0.0
1.055191 0.002745 0.0
1.055203 0.002465 0.0
1.055306 0.002249 0.0
1.055478 0.002124 0.0
1.055693 0.002112 0.0
1.055913 0.002231 0.0
1.056096 0.002490 0.0
1.056196 0.002887 0.0
1.056167 0.003403 0.0
1.055969 0.004004 0.0
1.055579 0.004642 0.0
1.054989 0.005261 0.0
1.054214 0.005808 0.0
1.053286 0.006233 0.0
1.052249 0.006504 0.0
1.051157 0.006600 0.0
1.050062 0.006517 0.0
1.049013 0.006263 0.0
1.048056 0.005852 0.0
1.047225 0.005304 0.0
1.046552 0.004643 0.0
1.046058 0.003893 0.0
1.045763 0.003079 0.0
1.045679 0.002228 0.0
1.045813 0.001369 0.0
1.046169 0.000533 0.0
1.046741 -0.000247 0.0
1.047519 -0.000932 0.0
1.048482 -0.001483 0.0
1.049597 -0.001855 0.0
1.050818 -0.002003 0.0
1.052079 -0.001888 0.0
1.053295 -0.001485 0.0
1.054370 -0.000792 0.0
1.055206 0.000154 0.0
1.055718 0.001278 0.0
1.055859 0.002474 0.0
1.055626 0.003622 0.0
1.055063 0.004618 0.0
1.054244 0.005387 0.0
1.053260 0.005891 0.0
1.052199 0.006127 0.0
1.051138 0.006112 0.0
1.050141 0.005877 0.0
1.049254 0.005458 0.0
1.048513 0.004892 0.0
1.047943 0.004216 0.0
1.047562 0.003467 0.0
1.047378 0.002680 0.0
1.047395 0.001894 0.0
1.047607 0.001147 0.0
1.047998 0.000478 0.0
1.048542 -0.000071 0.0
1.049203 -0.000467 0.0
1.049932 -0.000677 0.0
1.050670 -0.000684 0.0
1.051354 -0.000481 0.0
1.051919 -0.000079 0.0
1.052305 0.000493 0.0
1.052465 0.001193 0.0
1.052366 0.001966 0.0
1.051997 0.002755 0.0
1.051364 0.003505 0.0
1.050491 0.004168 0.0
1.049415 0.004708 0.0
1.048181 0.005103 0.0
1.046836 0.005344 0.0
1.045430 0.005433 0.0
1.044006 0.005382 0.0
1.042606 0.005206 0.0
1.041263 0.004928 0.0
1.040006 0.004573 0.0
1.038856 0.004166 0.0
1.037829 0.003735 0.0
1.036931 0.003308 0.0
1.036163 0.002917 0.0
1.035520 0.002592 0.0
1.034987 0.002365 0.0
1.034539 0.002267 0.0
1.034144 0.002331 0.0
1.033755 0.002581 0.0
1.033317 0.003033 0.0
1.032764 0.003687 0.0
1.032032 0.004521 0.0
1.031062 0.005490 0.0
1.029817 0.006526 0.0
1.028283 0.007553 0.0
1.026475 0.008494 0.0
1.024434 0.009284 0.0
1.022219 0.009878 0.0
1.019893 0.010254 0.0
1.017522 0.010410 0.0
1.015161 0.010356 0.0
1.012858 0.010113 0.0
1.010651 0.009702 0.0
1.008569 0.009148 0.0
1.006637 0.008472 0.0
1.004874 0.007696 0.0
1.003298 0.006840 0.0
1.001919 0.005928 0.0
1.000749 0.004979 0.0
0.999794 0.004017 0.0
0.999058 0.003066 0.0
0.998540 0.002155 0.0
0.998235 0.001313 0.0
0.998129 0.000579 0.0
0.998196 -0.000008 0.0
0.998392 -0.000406 0.0
0.998650 -0.000584 0.0
0.998884 -0.000531 0.0
0.999000 -0.000279 0.0
0.998919 0.000118 0.0
1.000021 -0.000076 0.0
1.000103 -0.000248 0.0
1.000263 -0.000473 0.0
1.000502 -0.000775 0.0
1.000825 -0.001168 0.0
1.001245 -0.001661 0.0
1.001781 -0.002257 0.0
1.002455 -0.002953 0.0
1.003292 -0.003742 0.0
1.004318 -0.004606 0.0
1.005554 -0.005524 0.0
1.007019 -0.006464 0.0
1.008724 -0.007390 0.0
1.010672 -0.008255 0.0
1.012850 -0.009007 0.0
1.015235 -0.009591 0.0
1.017782 -0.009952 0.0
1.020430 -0.010039 0.0
1.023098 -0.009816 0.0
1.025695 -0.009264 0.0
1.028121 -0.008393 0.0
1.030282 -0.007243 0.0
1.032101 -0.005879 0.0
1.033526 -0.004388 0.0
1.034538 -0.002866 0.0
1.035148 -0.001407 0.0
1.035396 -0.000090 0.0
1.035343 0.001023 0.0
1.035059 0.001896 0.0
1.034621 0.002510 0.0
1.034099 0.002866 0.0
1.033559 0.002978 0.0
1.033059 0.002871 0.0
1.032646 0.002573 0.0
1.032358 0.002117 0.0
1.032225 0.001540 0.0
1.032269 0.000877 0.0
1.032504 0.000167 0.0
1.032937 -0.000552 0.0
1.033567 -0.001242 0.0
1.034388 -0.001860 0.0
1.035382 -0.002364 0.0
1.036522 -0.002710 0.0
1.037767 -0.002850 0.0
1.039058 -0.002745 0.0
1.040317 -0.002362 0.0
1.041452 -0.001697 0.0
1.042364 -0.000778 0.0
1.042968 0.000323 0.0
1.043211 0.001502 0.0
1.043086 0.002638 0.0
1.042631 0.003620 0.0
1.041921 0.004367 0.0
1.041044 0.004832 0.0
1.040093 0.005004 0.0
1.039149 0.004894 0.0
1.038280 0.004526 0.0
1.037540 0.003930 0.0
1.036972 0.003136 0.0
1.036612 0.002175 0.0
1.036487 0.001078 0.0
1.036623 -0.000128 0.0
1.037040 -0.001409 0.0
1.037756 -0.002732 0.0
1.038783 -0.004059 0.0
1.040130 -0.005347 0.0
1.041798 -0.006544 0.0
1.043782 -0.007589 0.0
1.046061 -0.008407 0.0
1.048592 -0.008906 0.0
1.051295 -0.008984 0.0
1.054037 -0.008542 0.0
1.056630 -0.007520 0.0
1.058850 -0.005948 0.0
1.060497 -0.003975 0.0
1.061461 -0.001852 0.0
1.061765 0.000159 0.0
1.061529 0.001867 0.0
1.060922 0.003184 0.0
1.060100 0.004102 0.0
1.059192 0.004661 0.0
1.058284 0.004921 0.0
1.057438 0.004943 0.0
1.056689 0.004782 0.0
1.056062 0.004488 0.0
1.055569 0.004102 0.0
1.055218 0.003662 0.0
1.055012 0.003204 0.0
1.054948 0.002761 0.0
1.055018 0.002366 0.0
1.055208 0.002054 0.0
1.055496 0.001858 0.0
1.055850 0.001809 0.0
1.056227 0.001936 0.0
1.056572 0.002257 0.0
1.056823 0.002771 0.0
1.056914 0.003458 0.0
1.056789 0.004271 0.0
1.056411 0.005143 0.0
1.055768 0.005992 0.0
1.054880 0.006740 0.0
1.053790 0.007319 0.0
1.052563 0.007682 0.0
1.051267 0.007809 0.0
1.049971 0.007698 0.0
1.048737 0.007364 0.0
1.047614 0.006831 0.0
1.046643 0.006126 0.0
1.045857 0.005281 0.0
1.045278 0.004326 0.0
1.044926 0.003292 0.0
1.044816 0.002210 0.0
1.044956 0.001113 0.0
1.045352 0.000038 0.0
1.046005 -0.000976 0.0
1.046908 -0.001883 0.0
1.048044 -0.002632 0.0
1.049385 -0.003163 0.0
1.050881 -0.003412 0.0
1.052459 -0.003317 0.0
1.054013 -0.002826 0.0
1.055409 -0.001922 0.0
1.056501 -0.000643 0.0
1.057162 0.000903 0.0
1.057316 0.002554 0.0
1.056962 0.004128 0.0
1.056171 0.005466 0.0
1.055062 0.006466 0.0
1.053767 0.007091 0.0
1.052408 0.007348 0.0
1.051082 0.007278 0.0
1.049859 0.006931 0.0
1.048791 0.006359 0.0
1.047910 0.005612 0.0
1.047240 0.004735 0.0
1.046799 0.003771 0.0
1.046596 0.002762 0.0
1.046636 0.001755 0.0
1.046914 0.000796 0.0
1.047417 -0.000064 0.0
1.048116 -0.000773 0.0
1.048970 -0.001280 0.0
1.049921 -0.001543 0.0
1.050896 -0.001532 0.0
1.051815 -0.001235 0.0
1.052591 -0.000666 0.0
1.053147 0.000139 0.0
1.053418 0.001117 0.0
1.053365 0.002194 0.0
1.052974 0.003288 0.0
1.052259 0.004321 0.0
1.051256 0.005228 0.0
1.050015 0.005963 0.0
1.048598 0.006499 0.0
1.047066 0.006824 0.0
1.045479 0.006946 0.0
1.043892 0.006880 0.0
1.042350 0.006650 0.0
1.040892 0.006285 0.0
1.039549 0.005816 0.0
1.038344 0.005277 0.0
1.037294 0.004701 0.0
1.036408 0.004126 0.0
1.035688 0.003587 0.0
1.035130 0.003124 0.0
1.034720 0.002776 0.0
1.034435 0.002588 0.0
1.034237 0.002603 0.0
1.034073 0.002861 0.0
1.033872 0.003392 0.0
1.033548 0.004205 0.0
1.033008 0.005276 0.0
1.032167 0.006545 0.0
1.030965 0.007917 0.0
1.029383 0.009278 0.0
1.027445 0.010516 0.0
1.025210 0.011538 0.0
1.022763 0.012286 0.0
1.020195 0.012739 0.0
1.017588 0.012903 0.0
1.015012 0.012801 0.0
1.012517 0.012466 0.0
1.010145 0.011930 0.0
1.007924 0.011224 0.0
1.005876 0.010375 0.0
1.004020 0.009410 0.0
1.002372 0.008351 0.0
1.000945 0.007223 0.0
0.999749 0.006050 0.0
0.998793 0.004857 0.0
0.998083 0.003672 0.0
0.997623 0.002526 0.0
0.997414 0.001456 0.0
0.997448 0.000508 0.0
0.997705 -0.000261 0.0
0.998139 -0.000783 0.0
0.998665 -0.000992 0.0
0.999160 -0.000850 0.0
0.999473 -0.000388 0.0
0.999467 0.000313 0.0
1.000012 -0.000109 0.0
1.000058 -0.000344 0.0
1.000154 -0.000634 0.0
1.000306 -0.001005 0.0
1.000527 -0.001481 0.0
1.000836 -0.002076 0.0
1.001259 -0.002799 0.0
1.001825 -0.003651 0.0
1.002566 -0.004623 0.0
1.003516 -0.005700 0.0
1.004705 -0.006855 0.0
1.006161 -0.008054 0.0
1.007903 -0.009249 0.0
1.009943 -0.010383 0.0
1.012275 -0.011390 0.0
1.014878 -0.012195 0.0
1.017705 -0.012722 0.0
1.020685 -0.012897 0.0
1.023720 -0.012662 0.0
1.026690 -0.011984 0.0
1.029462 -0.010871 0.0
1.031909 -0.009373 0.0
1.033924 -0.007582 0.0