# vtk DataFile Version 3.0
Scalar Field
ASCII
DATASET RECTILINEAR_GRID
DIMENSIONS 200 75 1
X_COORDINATES 200 double
0.050000 0.150000 0.250000 0.350000 0.450000 0.550000 0.650000 0.750000 0.850000 0.950000 1.050000 1.150000 1.250000 1.350000 1.450000 1.550000 1.650000 1.750000 1.850000 1.950000 2.050000 2.150000 2.250000 2.350000 2.450000 2.550000 2.650000 2.750000 2.850000 2.950000 3.050000 3.150000 3.250000 3.350000 3.450000 3.550000 3.650000 3.750000 3.850000 3.950000 4.050000 4.150000 4.250000 4.350000 4.450000 4.550000 4.650000 4.750000 4.850000 4.950000 5.050000 5.150000 5.250000 5.350000 5.450000 5.550000 5.650000 5.750000 5.850000 5.950000 6.050000 6.150000 6.250000 6.350000 6.450000 6.550000 6.650000 6.750000 6.850000 6.950000 7.050000 7.150000 7.250000 7.350000 7.450000 7.550000 7.650000 7.750000 7.850000 7.950000 8.050000 8.150000 8.250000 8.350000 8.450000 8.550000 8.650000 8.750000 8.850000 8.950000 9.050000 9.150000 9.250000 9.350000 9.450000 9.550000 9.650000 9.750000 9.850000 9.950000 10.050000 10.150000 10.250000 10.350000 10.450000 10.550000 10.650000 10.750000 10.850000 10.950000 11.050000 11.150000 11.250000 11.350000 11.450000 11.550000 11.650000 11.750000 11.850000 11.950000 12.050000 12.150000 12.250000 12.350000 12.450000 12.550000 12.650000 12.750000 12.850000 12.950000 13.050000 13.150000 13.250000 13.350000 13.450000 13.550000 13.650000 13.750000 13.850000 13.950000 14.050000 14.150000 14.250000 14.350000 14.450000 14.550000 14.650000 14.750000 14.850000 14.950000 15.050000 15.150000 15.250000 15.350000 15.450000 15.550000 15.650000 15.750000 15.850000 15.950000 16.050000 16.150000 16.250000 16.350000 16.450000 16.550000 16.650000 16.750000 16.850000 16.950000 17.050000 17.150000 17.250000 17.350000 17.450000 17.550000 17.650000 17.750000 17.850000 17.950000 18.050000 18.150000 18.250000 18.350000 18.450000 18.550000 18.650000 18.750000 18.850000 18.950000 19.050000 19.150000 19.250000 19.350000 19.450000 19.550000 19.650000 19.750000 19.850000 19.950000 
Y_COORDINATES 75 double
0.050000 0.150000 0.250000 0.350000 0.450000 0.550000 0.650000 0.750000 0.850000 0.950000 1.050000 1.150000 1.250000 1.350000 1.450000 1.550000 1.650000 1.750000 1.850000 1.950000 2.050000 2.150000 2.250000 2.350000 2.450000 2.550000 2.650000 2.750000 2.850000 2.950000 3.050000 3.150000 3.250000 3.350000 3.450000 3.550000 3.650000 3.750000 3.850000 3.950000 4.050000 4.150000 4.250000 4.350000 4.450000 4.550000 4.650000 4.750000 4.850000 4.950000 5.050000 5.150000 5.250000 5.350000 5.450000 5.550000 5.650000 5.750000 5.850000 5.950000 6.050000 6.150000 6.250000 6.350000 6.450000 6.550000 6.650000 6.750000 6.850000 6.950000 7.050000 7.150000 7.250000 7.350000 7.450000 
Z_COORDINATES 1 double
0.0
POINT_DATA 15000
SCALARS Skalarfeld double 1
LOOKUP_TABLE default
0.169727
0.168436
0.167592
0.166898
0.166234
0.165541
0.164784
0.163938
0.162984
0.161908
0.160700
0.159356
0.157875
0.156265
0.154539
0.152719
0.150831
0.148911
0.146997
0.145132
0.143359
0.141720
0.140248
0.138972
0.137908
0.137062
0.136428
0.135992
0.135727
0.135604
0.135588
0.135642
0.135731
0.135821
0.135882
0.135889
0.135823
0.135669
0.135421
0.135077
0.134643
0.134131
0.133559
0.132952
0.132337
0.131746
0.131211
0.130760
0.130420
0.130206
0.130123
0.130168
0.130322
0.130559
0.130848
0.131150
0.131426
0.131639
0.131752
0.131733
0.131555
0.131195
0.130635
0.129871
0.128901
0.127728
0.126366
0.124838
0.123178
0.121430
0.119648
0.117892
0.116227
0.114714
0.113407
0.112342
0.111537
0.110995
0.110697
0.110607
0.110682
0.110877
0.111148
0.111457
0.111769
0.112060
0.112310
0.112506
0.112644
0.112723
0.112752
0.112741
0.112709
0.112676
0.112665
0.112700
0.112805
0.112999
0.113293
0.113694
0.114198
0.114793
0.115459
0.116168
0.116890
0.117593
0.118242
0.118806
0.119259
0.119575
0.119737
0.119729
0.119545
0.119181
0.118647
0.117959
0.117137
0.116208
0.115209
0.114184
0.113181
0.112252
0.111445
0.110801
0.110350
0.110106
0.110071
0.110228
0.110546
0.110983
0.111496
0.112038
0.112566
0.113043
0.113437
0.113723
0.113883
0.113911
0.113808
0.113580
0.113243
0.112819
0.112340
0.111838
0.111353
0.110924
0.110585
0.110370
0.110302
0.110403
0.110677
0.111120
0.111719
0.112453
0.113296
0.114219
0.115190
0.116180
0.117161
0.118108
0.119001
0.119827
0.120575
0.121244
0.121838
0.122368
0.122851
0.123310
0.123775
0.124277
0.124851
0.125531
0.126344
0.127312
0.128445
0.129745
0.131197
0.132779
0.134462
0.136208
0.137979
0.139738
0.141448
0.143077
0.144597
0.145984
0.147221
0.148295
0.149197
0.149926
0.150485
0.150889
0.151151
0.151292
0.151338
0.151321
0.151271
0.151213
0.151152
0.151492
0.168402
0.167989
0.167442
0.166868
0.166263
0.165606
0.164874
0.164046
0.163107
0.162041
0.160838
0.159493
0.158006
0.156382
0.154635
0.152786
0.150863
0.148902
0.146945
0.145037
0.143224
0.141548
0.140049
0.138756
0.137685
0.136844
0.136226
0.135814
0.135580
0.135492
0.135513
0.135604
0.135727
0.135849
0.135937
0.135965
0.135914
0.135769
0.135522
0.135173
0.134727
0.134197
0.133601
0.132964
0.132316
0.131692
0.131125
0.130648
0.130290
0.130070
0.129993
0.130054
0.130235
0.130507
0.130835
0.131177
0.131494
0.131744
0.131891
0.131901
0.131747
0.131407
0.130865
0.130106
0.129129
0.127938
0.126547
0.124979
0.123268
0.121459
0.119608
0.117781
0.116048
0.114478
0.113131
0.112049
0.111255
0.110741
0.110481
0.110435
0.110558
0.110798
0.111110
0.111453
0.111793
0.112104
0.112366
0.112568
0.112705
0.112778
0.112793
0.112765
0.112711
0.112653
0.112617
0.112628
0.112713
0.112893
0.113182
0.113586
0.114103
0.114719
0.115412
0.116154
0.116910
0.117647
0.118329
0.118924
0.119402
0.119739
0.119915
0.119916
0.119734
0.119369
0.118826
0.118115
0.117259
0.116287
0.115238
0.114158
0.113098
0.112115
0.111262
0.110585
0.110120
0.109883
0.109871
0.110062
0.110422
0.110906
0.111466
0.112053
0.112621
0.113131
0.113551
0.113855
0.114027
0.114058
0.113946
0.113700
0.113336
0.112878
0.112359
0.111815
0.111287
0.110816
0.110444
0.110205
0.110126
0.110222
0.110501
0.110958
0.111578
0.112339
0.113213
0.114168
0.115171
0.116190
0.117196
0.118164
0.119073
0.119908
0.120659
0.121324
0.121907
0.122419
0.122877
0.123306
0.123737
0.124203
0.124743
0.125393
0.126184
0.127140
0.128274
0.129585
0.131061
0.132675
0.134395
0.136181
0.137993
0.139789
0.141533
0.143192
0.144736
0.146143
0.147393
0.148475
0.149380
0.150108
0.150662
0.151049
0.151286
0.151396
0.151407
0.151354
0.151276
0.151217
0.151226
0.151545
0.167853
0.167674
0.167318
0.166867
0.166344
0.165745
0.165059
0.164268
0.163357
0.162311
0.161119
0.159773
0.158272
0.156620
0.154829
0.152921
0.150926
0.148882
0.146835
0.144835
0.142936
0.141186
0.139629
0.138300
0.137217
0.136388
0.135804
0.135444
0.135276
0.135262
0.135361
0.135529
0.135726
0.135912
0.136056
0.136129
0.136110
0.135984
0.135742
0.135384
0.134913
0.134344
0.133696
0.132996
0.132277
0.131579
0.130942
0.130409
0.130012
0.129776
0.129711
0.129809
0.130048
0.130395
0.130806
0.131235
0.131636
0.131966
0.132184
0.132255
0.132151
0.131846
0.131324
0.130571
0.129581
0.128358
0.126913
0.125268
0.123458
0.121528
0.119540
0.117568
0.115695
0.114006
0.112575
0.111455
0.110669
0.110205
0.110025
0.110077
0.110301
0.110638
0.111036
0.111451
0.111848
0.112200
0.112489
0.112703
0.112837
0.112895
0.112883
0.112816
0.112715
0.112604
0.112513
0.112473
0.112513
0.112662
0.112938
0.113349
0.113893
0.114554
0.115306
0.116117
0.116948
0.117759
0.118511
0.119170
0.119702
0.120083
0.120290
0.120309
0.120132
0.119755
0.119182
0.118425
0.117504
0.116449
0.115301
0.114111
0.112936
0.111842
0.110894
0.110149
0.109651
0.109419
0.109449
0.109711
0.110163
0.110748
0.111408
0.112090
0.112741
0.113320
0.113793
0.114134
0.114324
0.114355
0.114225
0.113943
0.113526
0.113001
0.112403
0.111773
0.111158
0.110605
0.110162
0.109867
0.109752
0.109836
0.110125
0.110611
0.111278
0.112097
0.113037
0.114060
0.115130
0.116212
0.117272
0.118285
0.119227
0.120081
0.120839
0.121495
0.122055
0.122529
0.122936
0.123301
0.123659
0.124049
0.124514
0.125098
0.125840
0.126770
0.127904
0.129243
0.130769
0.132452
0.134253
0.136124
0.138021
0.139897
0.141714
0.143435
0.145030
0.146477
0.147757
0.148855
0.149765
0.150485
0.151016
0.151368
0.151556
0.151604
0.151543
0.151413
0.151263
0.151152
0.151142
0.151428
0.167637
0.167535
0.167290
0.166938
0.166499
0.165971
0.165345
0.164607
0.163738
0.162724
0.161549
0.160204
0.158683
0.156989
0.155133
0.153136
0.151030
0.148857
0.146670
0.144527
0.142491
0.140624
0.138977
0.137593
0.136493
0.135685
0.135157
0.134880
0.134817
0.134920
0.135139
0.135426
0.135733
0.136019
0.136246
0.136385
0.136414
0.136315
0.136080
0.135706
0.135199
0.134571
0.133843
0.133046
0.132217
0.131403
0.130657
0.130030
0.129570
0.129309
0.129262
0.129418
0.129751
0.130214
0.130755
0.131317
0.131848
0.132298
0.132623
0.132785
0.132754
0.132504
0.132015
0.131271
0.130266
0.128998
0.127477
0.125721
0.123763
0.121651
0.119451
0.117251
0.115154
0.113271
0.111705
0.110526
0.109759
0.109382
0.109337
0.109546
0.109929
0.110415
0.110943
0.111465
0.111946
0.112358
0.112685
0.112915
0.113046
0.113080
0.113027
0.112902
0.112728
0.112535
0.112357
0.112234
0.112204
0.112303
0.112555
0.112976
0.113561
0.114292
0.115138
0.116056
0.117001
0.117925
0.118784
0.119538
0.120152
0.120598
0.120853
0.120901
0.120730
0.120337
0.119723
0.118898
0.117882
0.116704
0.115407
0.114046
0.112691
0.111421
0.110321
0.109466
0.108915
0.108693
0.108792
0.109171
0.109768
0.110512
0.111329
0.112155
0.112933
0.113616
0.114169
0.114563
0.114781
0.114813
0.114656
0.114320
0.113824
0.113196
0.112477
0.111715
0.110965
0.110284
0.109729
0.109348
0.109179
0.109244
0.109548
0.110082
0.110822
0.111732
0.112774
0.113902
0.115075
0.116251
0.117394
0.118474
0.119465
0.120351
0.121118
0.121763
0.122289
0.122707
0.123035
0.123303
0.123549
0.123818
0.124164
0.124642
0.125305
0.126192
0.127326
0.128707
0.130313
0.132106
0.134032
0.136037
0.138063
0.140061
0.141985
0.143799
0.145472
0.146978
0.148300
0.149424
0.150342
0.151049
0.151550
0.151850
0.151966
0.151920
0.151746
0.151490
0.151211
0.150984
0.150888
0.151124
0.167607
0.167541
0.167366
0.167097
0.166741
0.166294
0.165744
0.165074
0.164264
0.163294
0.162146
0.160805
0.159261
0.157514
0.155571
0.153452
0.151192
0.148837
0.146450
0.144102
0.141872
0.139834
0.138059
0.136596
0.135475
0.134701
0.134256
0.134103
0.134191
0.134460
0.134851
0.135303
0.135762
0.136183
0.136524
0.136752
0.136845
0.136782
0.136556
0.136162
0.135604
0.134897
0.134060
0.133127
0.132142
0.131161
0.130251
0.129485
0.128928
0.128628
0.128606
0.128850
0.129318
0.129951
0.130678
0.131428
0.132138
0.132751
0.133221
0.133507
0.133576
0.133400
0.132958
0.132232
0.131211
0.129889
0.128271
0.126372
0.124218
0.121856
0.119357
0.116825
0.114393
0.112216
0.110444
0.109181
0.108457
0.108226
0.108392
0.108837
0.109452
0.110148
0.110854
0.111519
0.112110
0.112601
0.112976
0.113227
0.113351
0.113353
0.113242
0.113036
0.112760
0.112450
0.112147
0.111902
0.111765
0.111787
0.112004
0.112435
0.113079
0.113912
0.114892
0.115963
0.117069
0.118151
0.119157
0.120042
0.120767
0.121302
0.121622
0.121709
0.121549
0.121138
0.120473
0.119562
0.118420
0.117077
0.115574
0.113973
0.112358
0.110828
0.109499
0.108479
0.107848
0.107645
0.107853
0.108410
0.109226
0.110200
0.111241
0.112268
0.113219
0.114042
0.114702
0.115169
0.115424
0.115457
0.115265
0.114857
0.114251
0.113482
0.112593
0.111643
0.110700
0.109835
0.109120
0.108617
0.108371
0.108411
0.108741
0.109346
0.110192
0.111234
0.112421
0.113697
0.115013
0.116319
0.117576
0.118748
0.119808
0.120736
0.121518
0.122149
0.122631
0.122973
0.123195
0.123328
0.123414
0.123509
0.123680
0.124001
0.124544
0.125365
0.126497
0.127941
0.129666
0.131618
0.133727
0.135919
0.138127
0.140291
0.142362
0.144300
0.146074
0.147660
0.149040
0.150198
0.151126
0.151820
0.152282
0.152516
0.152537
0.152364
0.152031
0.151588
0.151106
0.150683
0.150430
0.150580
0.167699
0.167655
0.167536
0.167343
0.167074
0.166719
0.166261
0.165678
0.164947
0.164039
0.162932
0.161603
0.160037
0.158226
0.156175
0.153900
0.151437
0.148839
0.146180
0.143550
0.141048
0.138775
0.136820
0.135251
0.134105
0.133385
0.133062
0.133084
0.133383
0.133880
0.134499
0.135171
0.135831
0.136426
0.136913
0.137256
0.137429
0.137414
0.137199
0.136780
0.136161
0.135352
0.134374
0.133261
0.132062
0.130846
0.129702
0.128730
0.128027
0.127667
0.127681
0.128052
0.128718
0.129590
0.130572
0.131574
0.132519
0.133344
0.133998
0.134441
0.134638
0.134560
0.134183
0.133485
0.132452
0.131072
0.129343
0.127271
0.124873
0.122189
0.119289
0.116290
0.113368
0.110749
0.108668
0.107291
0.106656
0.106671
0.107163
0.107955
0.108893
0.109867
0.110801
0.111646
0.112371
0.112956
0.113389
0.113663
0.113778
0.113737
0.113551
0.113239
0.112828
0.112357
0.111880
0.111460
0.111168
0.111074
0.111234
0.111678
0.112405
0.113381
0.114547
0.115831
0.117154
0.118447
0.119646
0.120700
0.121567
0.122216
0.122620
0.122759
0.122619
0.122189
0.121467
0.120453
0.119158
0.117605
0.115835
0.113913
0.111934
0.110032
0.108366
0.107097
0.106351
0.106184
0.106564
0.107390
0.108523
0.109821
0.111164
0.112457
0.113629
0.114631
0.115425
0.115984
0.116289
0.116325
0.116090
0.115588
0.114841
0.113883
0.112767
0.111562
0.110354
0.109235
0.108297
0.107624
0.107276
0.107285
0.107657
0.108366
0.109364
0.110589
0.111973
0.113450
0.114955
0.116433
0.117838
0.119130
0.120280
0.121264
0.122067
0.122683
0.123110
0.123358
0.123444
0.123400
0.123271
0.123124
0.123046
0.123138
0.123501
0.124223
0.125351
0.126887
0.128786
0.130966
0.133330
0.135778
0.138227
0.140606
0.142863
0.144958
0.146860
0.148545
0.149996
0.151198
0.152142
0.152822
0.153239
0.153394
0.153298
0.152965
0.152423
0.151721
0.150940
0.150210
0.149695
0.149699
0.167869
0.167846
0.167779
0.167665
0.167493
0.167246
0.166901
0.166431
0.165802
0.164981
0.163935
0.162633
0.161050
0.159171
0.156991
0.154523
0.151802
0.148888
0.145868
0.142855
0.139982
0.137384
0.135185
0.133476
0.132303
0.131665
0.131519
0.131787
0.132373
0.133175
0.134096
0.135049
0.135963
0.136777
0.137445
0.137929
0.138202
0.138244
0.138045
0.137599
0.136906
0.135975
0.134822
0.133479
0.131998
0.130460
0.128981
0.127704
0.126780
0.126327
0.126396
0.126955
0.127905
0.129111
0.130439
0.131770
0.133013
0.134101
0.134982
0.135617
0.135971
0.136015
0.135722
0.135069
0.134033
0.132597
0.130750
0.128486
0.125805
0.122728
0.119307
0.115664
0.112025
0.108729
0.106173
0.104648
0.104199
0.104630
0.105631
0.106920
0.108293
0.109621
0.110833
0.111889
0.112770
0.113462
0.113959
0.114258
0.114358
0.114265
0.113987
0.113541
0.112955
0.112272
0.111555
0.110888
0.110371
0.110105
0.110177
0.110634
0.111476
0.112653
0.114078
0.115650
0.117263
0.118828
0.120272
0.121537
0.122580
0.123369
0.123877
0.124084
0.123973
0.123530
0.122748
0.121620
0.120148
0.118346
0.116244
0.113902
0.111428
0.108994
0.106828
0.105185
0.104270
0.104170
0.104825
0.106059
0.107650
0.109394
0.111134
0.112762
0.114208
0.115425
0.116382
0.117053
0.117418
0.117462
0.117177
0.116563
0.115638
0.114439
0.113025
0.111481
0.109914
0.108447
0.107206
0.106302
0.105817
0.105794
0.106233
0.107092
0.108303
0.109779
0.111429
0.113167
0.114918
0.116616
0.118208
0.119652
0.120913
0.121968
0.122801
0.123402
0.123768
0.123904
0.123824
0.123555
0.123145
0.122671
0.122242
0.122000
0.122098
0.122669
0.123790
0.125463
0.127615
0.130121
0.132836
0.135627
0.138386
0.141034
0.143518
0.145801
0.147855
0.149659
0.151196
0.152452
0.153417
0.154085
0.154453
0.154520
0.154292
0.153771
0.152972
0.151927
0.150720
0.149515
0.148570
0.148319
0.168082
0.168080
0.168070
0.168044
0.167985
0.167870
0.167667
0.167340
0.166847
0.166144
0.165188
0.163936
0.162351
0.160405
0.158082
0.155385
0.152345
0.149024
0.145528
0.142001
0.138621
0.135578
0.133046
0.131150
0.129953
0.129446
0.129556
0.130168
0.131145
0.132349
0.133657
0.134965
0.136193
0.137274
0.138159
0.138811
0.139203
0.139316
0.139138
0.138663
0.137889
0.136818
0.135459
0.133834
0.131989
0.130013
0.128054
0.126323
0.125059
0.124460
0.124613
0.125458
0.126826
0.128503
0.130292
0.132044
0.133655
0.135057
0.136205
0.137065
0.137606
0.137800
0.137616
0.137027
0.136004
0.134523
0.132564
0.130103
0.127119
0.123591
0.119525
0.115010
0.110311
0.105944
0.102622
0.100906
0.100850
0.102006
0.103800
0.105793
0.107729
0.109485
0.111015
0.112304
0.113352
0.114159
0.114724
0.115048
0.115132
0.114977
0.114589
0.113982
0.113178
0.112220
0.111180
0.110166
0.109320
0.108797
0.108731
0.109200
0.110204
0.111666
0.113454
0.115416
0.117409
0.119321
0.121066
0.122586
0.123839
0.124795
0.125429
0.125721
0.125652
0.125205
0.124367
0.123123
0.121462
0.119379
0.116882
0.114011
0.110872
0.107674
0.104756
0.102533
0.101363
0.101392
0.102500
0.104364
0.106618
0.108965
0.111211
0.113246
0.115011
0.116476
0.117620
0.118423
0.118865
0.118925
0.118587
0.117843
0.116704
0.115203
0.113407
0.111415
0.109367
0.107427
0.105770
0.104553
0.103890
0.103835
0.104381
0.105461
0.106971
0.108787
0.110789
0.112866
0.114927
0.116898
0.118721
0.120349
0.121748
0.122892
0.123764
0.124354
0.124654
0.124665
0.124392
0.123851
0.123084
0.122170
0.121249
0.120520
0.120218
0.120559
0.121668
0.123548
0.126077
0.129053
0.132253
0.135493
0.138641
0.141614
0.144364
0.146863
0.149091
0.151031
0.152670
0.153991
0.154985
0.155642
0.155960
0.155937
0.155571
0.154850
0.153758
0.152287
0.150489
0.148552
0.146878
0.146165
0.168299
0.168320
0.168377
0.168456
0.168534
0.168581
0.168555
0.168412
0.168098
0.167557
0.166731
0.165564
0.164003
0.162002
0.159529
0.156571
0.153144
0.149312
0.145192
0.140973
0.136896
0.133237
0.130246
0.128106
0.126898
0.126595
0.127082
0.128178
0.129684
0.131414
0.133213
0.134960
0.136566
0.137964
0.139104
0.139952
0.140482
0.140677
0.140526
0.140024
0.139166
0.137946
0.136360
0.134407
0.132108
0.129544
0.126895
0.124468
0.122664
0.121833
0.122125
0.123426
0.125425
0.127768
0.130170
0.132446
0.134492
0.136255
0.137706
0.138822
0.139580
0.139951
0.139904
0.139405
0.138418
0.136914
0.134861
0.132225
0.128953
0.124962
0.120156
0.114499
0.108214
0.102061
0.097413
0.095462
0.096260
0.098721
0.101753
0.104711
0.107335
0.109568
0.111429
0.112954
0.114170
0.115092
0.115727
0.116077
0.116141
0.115919
0.115411
0.114620
0.113555
0.112249
0.110777
0.109274
0.107943
0.107025
0.106741
0.107220
0.108463
0.110341
0.112643
0.115136
0.117624
0.119966
0.122072
0.123889
0.125383
0.126531
0.127312
0.127708
0.127698
0.127263
0.126381
0.125030
0.123184
0.120811
0.117878
0.114371
0.110351
0.106050
0.101961
0.098804
0.097235
0.097517
0.099403
0.102266
0.105481
0.108628
0.111492
0.113992
0.116108
0.117842
0.119194
0.120149
0.120688
0.120780
0.120394
0.119510
0.118122
0.116254
0.113972
0.111394
0.108698
0.106111
0.103881
0.102238
0.101341
0.101264
0.101983
0.103389
0.105321
0.107600
0.110063
0.112570
0.115017
0.117321
0.119420
0.121268
0.122830
0.124082
0.125005
0.125590
0.125827
0.125708
0.125225
0.124373
0.123167
0.121676
0.120061
0.118606
0.117688
0.117668
0.118760
0.120966
0.124075
0.127739
0.131611
0.135433
0.139054
0.142401
0.145446
0.148182
0.150601
0.152696
0.154450
0.155850
0.156880
0.157531
0.157800
0.157689
0.157194
0.156290
0.154911
0.152961
0.150377
0.147305
0.144345
0.142743
0.168475
0.168526
0.168663
0.168869
0.169115
0.169362
0.169560
0.169652
0.169572
0.169248
0.168607
0.167575
0.166080
0.164055
0.161441
0.158199
0.154320
0.149851
0.144920
0.139761
0.134715
0.130187
0.126559
0.124098
0.122910
0.122936
0.123983
0.125767
0.127990
0.130403
0.132815
0.135092
0.137143
0.138907
0.140339
0.141408
0.142093
0.142380
0.142263
0.141738
0.140800
0.139438
0.137624
0.135319
0.132486
0.129149
0.125498
0.121980
0.119280
0.118064
0.118606
0.120673
0.123657
0.126953
0.130155
0.133059
0.135595
0.137749
0.139525
0.140922
0.141925
0.142507
0.142629
0.142252
0.141331
0.139830
0.137717
0.134955
0.131470
0.127106
0.121581
0.114537
0.105879
0.096556
0.089391
0.087181
0.089952
0.094827
0.099750
0.103942
0.107317
0.110009
0.112169
0.113904
0.115274
0.116307
0.117011
0.117386
0.117432
0.117144
0.116515
0.115529
0.114170
0.112442
0.110402
0.108207
0.106146
0.104612
0.103977
0.104462
0.106067
0.108575
0.111621
0.114841
0.117965
0.120829
0.123351
0.125498
0.127257
0.128618
0.129567
0.130087
0.130156
0.129751
0.128848
0.127414
0.125412
0.122780
0.119421
0.115210
0.110070
0.104166
0.098181
0.093430
0.091207
0.092003
0.095302
0.099792
0.104394
0.108560
0.112126
0.115109
0.117577
0.119583
0.121154
0.122284
0.122948
0.123100
0.122689
0.121667
0.120005
0.117703
0.114815
0.111472
0.107899
0.104414
0.101384
0.099151
0.097952
0.097879
0.098881
0.100775
0.103307
0.106215
0.109276
0.112322
0.115236
0.117935
0.120358
0.122462
0.124214
0.125591
0.126579
0.127169
0.127351
0.127112
0.126424
0.125243
0.123528
0.121296
0.118703
0.116144
0.114245
0.113645
0.114713
0.117452
0.121488
0.126189
0.130992
0.135550
0.139718
0.143468
0.146820
0.149800
0.152422
0.154684
0.156573
0.158066
0.159142
0.159789
0.160007
0.159811
0.159213
0.158187
0.156616
0.154241
0.150714
0.145898
0.140543
0.137107
0.168560
0.168645
0.168879
0.169240
0.169693
0.170190
0.170669
0.171061
0.171283
0.171248
0.170864
0.170036
0.168669
0.166672
0.163951
0.160427
0.156043
0.150802
0.144818
0.138374
0.131952
0.126177
0.121648
0.118766
0.117665
0.118226
0.120126
0.122896
0.126093
0.129381
0.132540
0.135440
0.138001
0.140176
0.141930
0.143242
0.144095
0.144483
0.144403
0.143859
0.142853
0.141373
0.139372
0.136749
0.133351
0.129050
0.123940
0.118634
0.114380
0.112501
0.113523
0.116963
0.121542
0.126200
0.130407
0.134016
0.137055
0.139598
0.141702
0.143396
0.144672
0.145500
0.145833
0.145618
0.144796
0.143326
0.141187
0.138367
0.134816
0.130345
0.124428
0.116038
0.103963
0.088591
0.076116
0.073724
0.081420
0.090814
0.098429
0.103959
0.107959
0.110965
0.113321
0.115208
0.116707
0.117842
0.118615
0.119020
0.119052
0.118707
0.117971
0.116806
0.115149
0.112939
0.110171
0.106992
0.103809
0.101281
0.100071
0.100557
0.102741
0.106239
0.110394
0.114616
0.118540
0.122007
0.124980
0.127473
0.129508
0.131095
0.132231
0.132897
0.133068
0.132717
0.131818
0.130338
0.128239
0.125441
0.121771
0.116918
0.110475
0.102257
0.093044
0.085404
0.082055
0.083908
0.089949
0.097164
0.103712
0.109065
0.113321
0.116727
0.119493
0.121747
0.123541
0.124873
0.125705
0.125967
0.125575
0.124445
0.122504
0.119710
0.116082
0.111745
0.106975
0.102221
0.098049
0.094990
0.093398
0.093389
0.094856
0.097495
0.100892
0.104653
0.108482
0.112187
0.115653
0.118808
0.121601
0.123995
0.125960
0.127479
0.128542
0.129145
0.129289
0.128958
0.128107
0.126635
0.124395
0.121257
0.117281
0.112989
0.109471
0.107912
0.108948
0.112591
0.118186
0.124494
0.130576
0.136021
0.140769
0.144906
0.148541
0.151753
0.154581
0.157028
0.159073
0.160680
0.161815
0.162458
0.162611
0.162317
0.161638
0.160607
0.159093
0.156627
0.152263
0.144893
0.134809
0.127297
0.168488
0.168616
0.168968
0.169519
0.170226
0.171032
0.171863
0.172633
0.173244
0.173587
0.173548
0.173014
0.171865
0.169979
0.167226
0.163465
0.158560
0.152420
0.145087
0.136866
0.128438
0.120819
0.114996
0.111566
0.110684
0.112134
0.115359
0.119567
0.124080
0.128468
0.132510
0.136113
0.139234
0.141853
0.143954
0.145525
0.146556
0.147045
0.146999
0.146433
0.145369
0.143816
0.141728
0.138936
0.135092
0.129715
0.122512
0.114141
0.107030
0.103955
0.105936
0.112041
0.119287
0.125847
0.131214
0.135505
0.138979
0.141854
0.144263
0.146258
0.147838
0.148959
0.149556
0.149552
0.148868
0.147449
0.145293
0.142454
0.139018
0.134939
0.129597
0.120933
0.104662
0.076796
0.051855
0.049666
0.070927
0.088438
0.099116
0.105459
0.109564
0.112550
0.114924
0.116886
0.118489
0.119728
0.120577
0.121017
0.121041
0.120653
0.119847
0.118563
0.116667
0.113979
0.110329
0.105751
0.100782
0.096599
0.094431
0.094906
0.098053
0.103197
0.109054
0.114646
0.119534
0.123646
0.127058
0.129877
0.132178
0.133997
0.135336
0.136173
0.136473
0.136202
0.135333
0.133841
0.131720
0.128920
0.125233
0.120113
0.112498
0.101092
0.086024
0.072770
0.067450
0.071438
0.083295
0.095120
0.104166
0.110628
0.115336
0.118961
0.121901
0.124350
0.126371
0.127945
0.129009
0.129462
0.129170
0.127999
0.125818
0.122507
0.118007
0.112391
0.105969
0.099377
0.093529
0.089293
0.087196
0.087372
0.089612
0.093414
0.098076
0.102990
0.107781
0.112263
0.116357
0.120020
0.123223
0.125936
0.128136
0.129807
0.130948
0.131569
0.131688
0.131311
0.130392
0.128773
0.126133
0.122013
0.116113
0.108964
0.102665
0.099500
0.100479
0.105683
0.114086
0.122952
0.130738
0.137140
0.142390
0.146811
0.150653
0.154060
0.157093
0.159749
0.161986
0.163744
0.164959
0.165590
0.165637
0.165181
0.164392
0.163477
0.162479
0.160832
0.156649
0.146177
0.126085
0.108877
0.168183
0.168363
0.168859
0.169641
0.170659
0.171844
0.173112
0.174357
0.175460
0.176289
0.176708
0.176579
0.175761
0.174108
0.171449
0.167573
0.162219
0.155115
0.146101
0.135395
0.123934
0.113486
0.105784
0.101671
0.101252
0.104187
0.109543
0.115884
0.122155
0.127868
0.132895
0.137245
0.140950
0.144031
0.146493
0.148332
0.149545
0.150130
0.150101
0.149490
0.148358
0.146778
0.144766
0.142142
0.138315
0.132114
0.122084
0.108154
0.095420
0.090153
0.094030
0.105831
0.117607
0.126603
0.133036
0.137760
0.141458
0.144539
0.147198
0.149500
0.151425
0.152904
0.153839
0.154117
0.153619
0.152252
0.150019
0.147072
0.143784
0.140678
0.137847
0.132836
0.114799
0.058785
0.002199
0.000274
0.063537
0.092568
0.103981
0.109118
0.112240
0.114711
0.116910
0.118893
0.120608
0.121975
0.122921
0.123403
0.123416
0.122991
0.122165
0.120880
0.118922
0.115926
0.111365
0.104870
0.096962
0.089895
0.086127
0.086553
0.091324
0.099385
0.107920
0.115321
0.121250
0.125931
0.129682
0.132752
0.135283
0.137333
0.138898
0.139939
0.140402
0.140236
0.139409
0.137907
0.135809
0.133200
0.130017
0.125627
0.117994
0.102902
0.076301
0.051351
0.042907
0.050583
0.076388
0.095686
0.107105
0.113883
0.118393
0.121847
0.124772
0.127355
0.129619
0.131500
0.132890
0.133659
0.133593
0.132507
0.130191
0.126413
0.120956
0.113739
0.105022
0.095685
0.087304
0.081378
0.078649
0.079222
0.082742
0.088416
0.094954
0.101405
0.107347
0.112690
0.117455
0.121661
0.125304
0.128363
0.130813
0.132642
0.133853
0.134476
0.134563
0.134183
0.133347
0.131897
0.129294
0.124459
0.116031
0.103877
0.092493
0.086754
0.087578
0.095370
0.109358
0.122367
0.132194
0.139343
0.144786
0.149252
0.153160
0.156706
0.159947
0.162854
0.165346
0.167316
0.168654
0.169271
0.169132
0.168347
0.167243
0.166397
0.166453
0.167422
0.166927
0.155542
0.112420
0.071024
0.167550
0.167792
0.168462
0.169525
0.170921
0.172571
0.174374
0.176209
0.177931
0.179378
0.180385
0.180790
0.180441
0.179178
0.176807
0.173051
0.167488
0.159533
0.148560
0.134365
0.118076
0.103072
0.092677
0.087808
0.088276
0.093671
0.102629
0.112190
0.120724
0.127905
0.133917
0.138988
0.143261
0.146801
0.149628
0.151744
0.153140
0.153810
0.153764
0.153046
0.151774
0.150147
0.148385
0.146502
0.143816
0.138141
0.125058
0.100258
0.075650
0.066684
0.073672
0.099322
0.118504
0.129793
0.136481
0.140975
0.144502
0.147594
0.150442
0.153068
0.155406
0.157338
0.158719
0.159391
0.159160
0.157839
0.155373
0.151950
0.148287
0.146018
0.147821
0.155632
0.157344
0.030511
-0.106143
-0.122111
0.086305
0.112510
0.114413
0.114471
0.115387
0.117015
0.118994
0.121043
0.122939
0.124494
0.125568
0.126089
0.126061
0.125559
0.124686
0.123496
0.121804
0.119013
0.113987
0.105310
0.092684
0.080542
0.074062
0.074265
0.081582
0.095178
0.107863
0.117354
0.124091
0.129023
0.132870
0.136047
0.138749
0.141029
0.142856
0.144154
0.144831
0.144799
0.143967
0.142395
0.140251
0.137895
0.135809
0.134042
0.130230
0.114057
0.062166
0.011382
0.000847
0.009907
0.075218
0.103703
0.114468
0.119289
0.122432
0.125203
0.127930
0.130627
0.133194
0.135481
0.137317
0.138558
0.138882
0.138069
0.135828
0.131774
0.125436
0.116371
0.104531
0.090978
0.078679
0.070397
0.066916
0.068144
0.073719
0.082540
0.091890
0.100286
0.107467
0.113648
0.119060
0.123813
0.127918
0.131346
0.134063
0.136048
0.137306
0.137878
0.137872
0.137469
0.136867
0.136104
0.134576
0.130290
0.119200
0.097399
0.076051
0.067006
0.067233
0.078344
0.105273
0.124742
0.136191
0.143161
0.148095
0.152199
0.155982
0.159612
0.163091
0.166328
0.169181
0.171475
0.173023
0.173656
0.173223
0.171788
0.169806
0.168390
0.169444
0.175120
0.186390
0.192275
0.089181
-0.011342
0.166476
0.166793
0.167673
0.169072
0.170924
0.173138
0.175597
0.178156
0.180648
0.182870
0.184615
0.185699
0.185962
0.185263
0.183432
0.180177
0.174932
0.166661
0.153795
0.134786
0.110207
0.087389
0.073463
0.068099
0.070046
0.079303
0.094910
0.109382
0.120549
0.129037
0.135819
0.141479
0.146261
0.150242
0.153437
0.155840
0.157427
0.158173
0.158065
0.157123
0.155512
0.153622
0.152087
0.151589
0.152117
0.151083
0.138068
0.089728
0.038315
0.025933
0.032868
0.098460
0.126844
0.137357
0.141992
0.145072
0.147909
0.150826
0.153838
0.156850
0.159711
0.162235
0.164212
0.165432
0.165619
0.164387
0.161502
0.156915
0.151300
0.147204
0.151080
0.175739
0.252483
0.183204
0.000000
-0.366130
0.242596
0.151566
0.125115
0.118309
0.117476
0.118710
0.120752
0.123058
0.125273
0.127108
0.128349
0.128885
0.128737
0.128059
0.127111
0.126160
0.125236
0.123651
0.119477
0.108951
0.087800
0.066364
0.056517
0.056003
0.066309
0.092083
0.110846
0.121872
0.128464
0.132944
0.136480
0.139569
0.142376
0.144898
0.147048
0.148689
0.149668
0.149791
0.148955
0.147179
0.144669
0.142119
0.141045
0.143909
0.152474
0.155286
0.038386
-0.069563
-0.061542
-0.094292
0.105961
0.127307
0.126900
0.125946
0.126583
0.128402
0.130928
0.133822
0.136813
0.139642
0.142043
0.143730
0.144574
0.144255
0.142419
0.138532
0.131775
0.121033
0.105278
0.085055
0.066544
0.055343
0.051137
0.053143
0.061763
0.076293
0.089823
0.100365
0.108539
0.115308
0.121241
0.126513
0.131099
0.134924
0.137929
0.140073
0.141341
0.141771
0.141500
0.140863
0.140455
0.140947
0.142368
0.142383
0.131452
0.088486
0.045922
0.037064
0.034991
0.043849
0.107781
0.134654
0.144430
0.148889
0.152150
0.155400
0.158895
0.162607
0.166409
0.170116
0.173501
0.176299
0.178222
0.178986
0.178196
0.175678
0.171750
0.167910
0.167753
0.176485
0.203630
0.276687
0.206638
0.000000
0.164824
0.165231
0.166361
0.168162
0.170557
0.173446
0.176700
0.180154
0.183595
0.186782
0.189439
0.191343
0.192341
0.192352
0.191315
0.189069
0.185074
0.177873
0.164330
0.139233