# vtk DataFile Version 3.0
Scalar Field
ASCII
DATASET RECTILINEAR_GRID
DIMENSIONS 200 75 1
X_COORDINATES 200 double
0.050000 0.150000 0.250000 0.350000 0.450000 0.550000 0.650000 0.750000 0.850000 0.950000 1.050000 1.150000 1.250000 1.350000 1.450000 1.550000 1.650000 1.750000 1.850000 1.950000 2.050000 2.150000 2.250000 2.350000 2.450000 2.550000 2.650000 2.750000 2.850000 2.950000 3.050000 3.150000 3.250000 3.350000 3.450000 3.550000 3.650000 3.750000 3.850000 3.950000 4.050000 4.150000 4.250000 4.350000 4.450000 4.550000 4.650000 4.750000 4.850000 4.950000 5.050000 5.150000 5.250000 5.350000 5.450000 5.550000 5.650000 5.750000 5.850000 5.950000 6.050000 6.150000 6.250000 6.350000 6.450000 6.550000 6.650000 6.750000 6.850000 6.950000 7.050000 7.150000 7.250000 7.350000 7.450000 7.550000 7.650000 7.750000 7.850000 7.950000 8.050000 8.150000 8.250000 8.350000 8.450000 8.550000 8.650000 8.750000 8.850000 8.950000 9.050000 9.150000 9.250000 9.350000 9.450000 9.550000 9.650000 9.750000 9.850000 9.950000 10.050000 10.150000 10.250000 10.350000 10.450000 10.550000 10.650000 10.750000 10.850000 10.950000 11.050000 11.150000 11.250000 11.350000 11.450000 11.550000 11.650000 11.750000 11.850000 11.950000 12.050000 12.150000 12.250000 12.350000 12.450000 12.550000 12.650000 12.750000 12.850000 12.950000 13.050000 13.150000 13.250000 13.350000 13.450000 13.550000 13.650000 13.750000 13.850000 13.950000 14.050000 14.150000 14.250000 14.350000 14.450000 14.550000 14.650000 14.750000 14.850000 14.950000 15.050000 15.150000 15.250000 15.350000 15.450000 15.550000 15.650000 15.750000 15.850000 15.950000 16.050000 16.150000 16.250000 16.350000 16.450000 16.550000 16.650000 16.750000 16.850000 16.950000 17.050000 17.150000 17.250000 17.350000 17.450000 17.550000 17.650000 17.750000 17.850000 17.950000 18.050000 18.150000 18.250000 18.350000 18.450000 18.550000 18.650000 18.750000 18.850000 18.950000 19.050000 19.150000 19.250000 19.350000 19.450000 19.550000 19.650000 19.750000 19.850000 19.950000 
Y_COORDINATES 75 double
0.050000 0.150000 0.250000 0.350000 0.450000 0.550000 0.650000 0.750000 0.850000 0.950000 1.050000 1.150000 1.250000 1.350000 1.450000 1.550000 1.650000 1.750000 1.850000 1.950000 2.050000 2.150000 2.250000 2.350000 2.450000 2.550000 2.650000 2.750000 2.850000 2.950000 3.050000 3.150000 3.250000 3.350000 3.450000 3.550000 3.650000 3.750000 3.850000 3.950000 4.050000 4.150000 4.250000 4.350000 4.450000 4.550000 4.650000 4.750000 4.850000 4.950000 5.050000 5.150000 5.250000 5.350000 5.450000 5.550000 5.650000 5.750000 5.850000 5.950000 6.050000 6.150000 6.250000 6.350000 6.450000 6.550000 6.650000 6.750000 6.850000 6.950000 7.050000 7.150000 7.250000 7.350000 7.450000 
Z_COORDINATES 1 double
0.0
POINT_DATA 15000
SCALARS Skalarfeld double 1
LOOKUP_TABLE default
0.168131
0.166838
0.165988
0.165284
0.164607
0.163896
0.163118
0.162246
0.161263
0.160155
0.158910
0.157526
0.156001
0.154343
0.152566
0.150690
0.148743
0.146761
0.144781
0.142847
0.141001
0.139286
0.137736
0.136378
0.135228
0.134294
0.133570
0.133039
0.132677
0.132453
0.132333
0.132281
0.132261
0.132239
0.132185
0.132076
0.131891
0.131617
0.131247
0.130781
0.130224
0.129590
0.128897
0.128171
0.127442
0.126742
0.126104
0.125560
0.125135
0.124846
0.124699
0.124688
0.124798
0.125001
0.125265
0.125552
0.125823
0.126040
0.126168
0.126175
0.126033
0.125722
0.125224
0.124529
0.123634
0.122544
0.121270
0.119834
0.118268
0.116613
0.114920
0.113247
0.111656
0.110207
0.108952
0.107929
0.107156
0.106633
0.106339
0.106244
0.106306
0.106483
0.106733
0.107020
0.107313
0.107587
0.107824
0.108014
0.108152
0.108240
0.108284
0.108296
0.108294
0.108296
0.108325
0.108403
0.108549
0.108782
0.109111
0.109540
0.110065
0.110672
0.111341
0.112049
0.112764
0.113458
0.114100
0.114663
0.115121
0.115455
0.115648
0.115688
0.115572
0.115299
0.114877
0.114318
0.113644
0.112881
0.112064
0.111234
0.110432
0.109705
0.109093
0.108632
0.108344
0.108240
0.108314
0.108546
0.108907
0.109360
0.109864
0.110378
0.110867
0.111297
0.111643
0.111885
0.112009
0.112011
0.111890
0.111654
0.111316
0.110910
0.110463
0.109997
0.109544
0.109131
0.108787
0.108535
0.108412
0.108428
0.108585
0.108878
0.109296
0.109819
0.110424
0.111086
0.111779
0.112477
0.113157
0.113800
0.114390
0.114917
0.115376
0.115767
0.116097
0.116378
0.116627
0.116869
0.117129
0.117437
0.117823
0.118317
0.118942
0.119716
0.120645
0.121727
0.122950
0.124289
0.125718
0.127202
0.128707
0.130197
0.131640
0.133006
0.134270
0.135409
0.136407
0.137249
0.137926
0.138434
0.138773
0.138945
0.138961
0.138834
0.138580
0.138236
0.137830
0.137381
0.136909
0.136564
0.166810
0.166395
0.165842
0.165258
0.164640
0.163965
0.163212
0.162359
0.161391
0.160292
0.159053
0.157667
0.156136
0.154464
0.152665
0.150760
0.148778
0.146755
0.144732
0.142755
0.140868
0.139118
0.137540
0.136164
0.135009
0.134080
0.133371
0.132864
0.132533
0.132345
0.132262
0.132246
0.132260
0.132269
0.132242
0.132153
0.131983
0.131717
0.131347
0.130875
0.130305
0.129651
0.128932
0.128175
0.127412
0.126677
0.126006
0.125435
0.124991
0.124695
0.124553
0.124560
0.124697
0.124934
0.125237
0.125565
0.125877
0.126132
0.126294
0.126331
0.126214
0.125920
0.125434
0.124743
0.123844
0.122740
0.121443
0.119973
0.118362
0.116652
0.114897
0.113158
0.111503
0.109999
0.108703
0.107659
0.106887
0.106384
0.106125
0.106072
0.106179
0.106400
0.106690
0.107011
0.107330
0.107623
0.107873
0.108068
0.108205
0.108285
0.108316
0.108310
0.108286
0.108265
0.108269
0.108324
0.108452
0.108672
0.108996
0.109430
0.109968
0.110596
0.111293
0.112032
0.112782
0.113509
0.114183
0.114774
0.115257
0.115609
0.115815
0.115863
0.115747
0.115467
0.115030
0.114449
0.113744
0.112943
0.112082
0.111203
0.110351
0.109577
0.108926
0.108438
0.108140
0.108042
0.108137
0.108404
0.108808
0.109307
0.109857
0.110415
0.110942
0.111403
0.111773
0.112030
0.112162
0.112163
0.112032
0.111781
0.111430
0.110994
0.110503
0.109988
0.109485
0.109028
0.108652
0.108388
0.108254
0.108266
0.108428
0.108735
0.109174
0.109723
0.110358
0.111050
0.111772
0.112496
0.113199
0.113859
0.114461
0.114994
0.115452
0.115836
0.116152
0.116413
0.116637
0.116847
0.117073
0.117346
0.117700
0.118166
0.118771
0.119536
0.120467
0.121564
0.122811
0.124183
0.125650
0.127174
0.128718
0.130246
0.131724
0.133120
0.134410
0.135571
0.136585
0.137438
0.138122
0.138631
0.138965
0.139128
0.139129
0.138983
0.138713
0.138343
0.137903
0.137431
0.136965
0.136508
0.166269
0.166088
0.165726
0.165265
0.164728
0.164112
0.163404
0.162588
0.161648
0.160569
0.159341
0.157955
0.156409
0.154708
0.152866
0.150903
0.148848
0.146741
0.144628
0.142559
0.140586
0.138760
0.137125
0.135714
0.134547
0.133630
0.132955
0.132501
0.132236
0.132122
0.132118
0.132179
0.132265
0.132338
0.132365
0.132319
0.132178
0.131928
0.131560
0.131075
0.130477
0.129781
0.129007
0.128184
0.127347
0.126536
0.125795
0.125164
0.124681
0.124369
0.124238
0.124283
0.124479
0.124792
0.125180
0.125597
0.125995
0.126331
0.126566
0.126665
0.126600
0.126345
0.125883
0.125202
0.124295
0.123163
0.121816
0.120274
0.118567
0.116737
0.114844
0.112958
0.111159
0.109531
0.108148
0.107062
0.106295
0.105839
0.105659
0.105703
0.105912
0.106230
0.106607
0.107000
0.107376
0.107710
0.107985
0.108191
0.108324
0.108387
0.108389
0.108344
0.108271
0.108195
0.108144
0.108147
0.108232
0.108424
0.108738
0.109181
0.109750
0.110426
0.111187
0.111997
0.112823
0.113626
0.114370
0.115025
0.115560
0.115955
0.116190
0.116254
0.116139
0.115844
0.115375
0.114744
0.113971
0.113085
0.112123
0.111132
0.110166
0.109284
0.108544
0.107996
0.107675
0.107594
0.107743
0.108093
0.108598
0.109207
0.109865
0.110523
0.111137
0.111669
0.112091
0.112383
0.112531
0.112528
0.112377
0.112086
0.111671
0.111158
0.110578
0.109968
0.109370
0.108825
0.108375
0.108056
0.107890
0.107892
0.108067
0.108407
0.108895
0.109504
0.110206
0.110967
0.111754
0.112539
0.113292
0.113992
0.114622
0.115168
0.115625
0.115992
0.116277
0.116491
0.116655
0.116794
0.116941
0.117134
0.117410
0.117811
0.118371
0.119113
0.120052
0.121182
0.122486
0.123935
0.125489
0.127105
0.128741
0.130355
0.131911
0.133377
0.134725
0.135934
0.136986
0.137866
0.138566
0.139079
0.139405
0.139546
0.139512
0.139318
0.138985
0.138543
0.138028
0.137486
0.136966
0.136368
0.166064
0.165960
0.165709
0.165348
0.164895
0.164349
0.163702
0.162938
0.162041
0.160994
0.159782
0.158396
0.156831
0.155089
0.153180
0.151128
0.148962
0.146726
0.144471
0.142259
0.140150
0.138206
0.136481
0.135015
0.133831
0.132936
0.132318
0.131948
0.131788
0.131791
0.131907
0.132086
0.132282
0.132452
0.132561
0.132579
0.132483
0.132256
0.131892
0.131387
0.130748
0.129988
0.129130
0.128206
0.127255
0.126325
0.125470
0.124745
0.124196
0.123859
0.123747
0.123851
0.124142
0.124575
0.125095
0.125646
0.126175
0.126633
0.126976
0.127168
0.127178
0.126980
0.126555
0.125888
0.124970
0.123800
0.122383
0.120736
0.118887
0.116880
0.114778
0.112663
0.110637
0.108811
0.107286
0.106134
0.105383
0.105012
0.104964
0.105163
0.105532
0.105999
0.106505
0.107005
0.107464
0.107857
0.108168
0.108388
0.108515
0.108553
0.108510
0.108405
0.108258
0.108099
0.107962
0.107883
0.107900
0.108046
0.108342
0.108800
0.109415
0.110167
0.111024
0.111945
0.112886
0.113802
0.114652
0.115400
0.116015
0.116471
0.116750
0.116837
0.116725
0.116409
0.115895
0.115192
0.114319
0.113306
0.112192
0.111031
0.109888
0.108837
0.107955
0.107311
0.106952
0.106899
0.107134
0.107615
0.108279
0.109056
0.109878
0.110684
0.111425
0.112060
0.112558
0.112900
0.113069
0.113059
0.112873
0.112520
0.112017
0.111392
0.110683
0.109935
0.109198
0.108524
0.107963
0.107560
0.107343
0.107331
0.107527
0.107919
0.108482
0.109184
0.109986
0.110850
0.111737
0.112610
0.113439
0.114198
0.114868
0.115434
0.115890
0.116234
0.116474
0.116621
0.116697
0.116730
0.116759
0.116827
0.116984
0.117283
0.117769
0.118476
0.119423
0.120604
0.121998
0.123563
0.125250
0.127005
0.128776
0.130517
0.132187
0.133752
0.135186
0.136464
0.137570
0.138490
0.139213
0.139732
0.140047
0.140158
0.140073
0.139805
0.139377
0.138822
0.138184
0.137521
0.136896
0.136196
0.166050
0.165981
0.165800
0.165522
0.165152
0.164687
0.164116
0.163421
0.162582
0.161579
0.160394
0.159012
0.157423
0.155627
0.153631
0.151456
0.149136
0.146718
0.144263
0.141845
0.139540
0.137427
0.135573
0.134029
0.132824
0.131964
0.131430
0.131184
0.131176
0.131346
0.131632
0.131976
0.132324
0.132628
0.132849
0.132953
0.132917
0.132723
0.132362
0.131832
0.131137
0.130292
0.129319
0.128252
0.127139
0.126037
0.125015
0.124147
0.123500
0.123124
0.123039
0.123233
0.123663
0.124268
0.124977
0.125718
0.126427
0.127049
0.127537
0.127853
0.127963
0.127842
0.127468
0.126823
0.125895
0.124679
0.123175
0.121394
0.119359
0.117111
0.114715
0.112270
0.109908
0.107782
0.106045
0.104802
0.104088
0.103859
0.104019
0.104453
0.105052
0.105727
0.106409
0.107051
0.107617
0.108085
0.108442
0.108679
0.108796
0.108798
0.108695
0.108506
0.108257
0.107981
0.107720
0.107523
0.107440
0.107515
0.107783
0.108260
0.108942
0.109801
0.110795
0.111871
0.112972
0.114043
0.115036
0.115909
0.116628
0.117166
0.117503
0.117622
0.117514
0.117174
0.116603
0.115808
0.114807
0.113625
0.112307
0.110910
0.109514
0.108217
0.107124
0.106335
0.105922
0.105911
0.106277
0.106952
0.107845
0.108859
0.109905
0.110910
0.111818
0.112586
0.113184
0.113589
0.113786
0.113769
0.113538
0.113103
0.112483
0.111711
0.110828
0.109891
0.108962
0.108108
0.107394
0.106874
0.106589
0.106560
0.106788
0.107254
0.107926
0.108758
0.109702
0.110708
0.111728
0.112722
0.113653
0.114491
0.115215
0.115810
0.116266
0.116582
0.116762
0.116821
0.116780
0.116670
0.116535
0.116428
0.116414
0.116563
0.116939
0.117593
0.118550
0.119806
0.121327
0.123059
0.124932
0.126878
0.128832
0.130741
0.132560
0.134254
0.135796
0.137163
0.138339
0.139309
0.140062
0.140591
0.140893
0.140967
0.140817
0.140454
0.139898
0.139183
0.138364
0.137518
0.136735
0.135931
0.166160
0.166115
0.165990
0.165787
0.165504
0.165132
0.164652
0.164044
0.163283
0.162343
0.161198
0.159828
0.158217
0.156357
0.154252
0.151920
0.149396
0.146734
0.144007
0.141305
0.138729
0.136379
0.134346
0.132696
0.131467
0.130661
0.130251
0.130182
0.130385
0.130783
0.131300
0.131863
0.132410
0.132888
0.133252
0.133467
0.133508
0.133356
0.133001
0.132439
0.131675
0.130720
0.129598
0.128344
0.127009
0.125665
0.124403
0.123325
0.122531
0.122096
0.122051
0.122376
0.123009
0.123858
0.124825
0.125820
0.126765
0.127598
0.128270
0.128741
0.128978
0.128955
0.128648
0.128036
0.127103
0.125839
0.124237
0.122297
0.120034
0.117477
0.114690
0.111784
0.108930
0.106356
0.104300
0.102935
0.102303
0.102314
0.102798
0.103576
0.104496
0.105447
0.106354
0.107171
0.107867
0.108425
0.108834
0.109090
0.109193
0.109148
0.108967
0.108669
0.108282
0.107847
0.107415
0.107049
0.106819
0.106790
0.107014
0.107515
0.108289
0.109298
0.110482
0.111770
0.113085
0.114361
0.115538
0.116570
0.117421
0.118062
0.118471
0.118633
0.118535
0.118169
0.117533
0.116630
0.115471
0.114080
0.112496
0.110784
0.109039
0.107389
0.105986
0.104981
0.104486
0.104543
0.105107
0.106068
0.107287
0.108626
0.109969
0.111230
0.112349
0.113282
0.114000
0.114483
0.114716
0.114691
0.114407
0.113871
0.113103
0.112138
0.111028
0.109839
0.108651
0.107552
0.106628
0.105952
0.105577
0.105530
0.105807
0.106382
0.107206
0.108217
0.109352
0.110546
0.111744
0.112894
0.113956
0.114896
0.115691
0.116322
0.116780
0.117062
0.117172
0.117122
0.116932
0.116636
0.116281
0.115935
0.115680
0.115612
0.115827
0.116400
0.117370
0.118733
0.120437
0.122401
0.124530
0.126730
0.128922
0.131043
0.133047
0.134898
0.136572
0.138047
0.139307
0.140339
0.141131
0.141675
0.141966
0.141999
0.141775
0.141296
0.140577
0.139649
0.138572
0.137452
0.136427
0.135474
0.166354
0.166328
0.166256
0.166132
0.165946
0.165681
0.165316
0.164820
0.164161
0.163307
0.162223
0.160880
0.159251
0.157322
0.155088
0.152562
0.149779
0.146799
0.143710
0.140625
0.137677
0.135002
0.132725
0.130935
0.129680
0.128958
0.128726
0.128905
0.129398
0.130102
0.130920
0.131766
0.132566
0.133261
0.133803
0.134155
0.134291
0.134192
0.133846
0.133248
0.132401
0.131314
0.130007
0.128512
0.126884
0.125207
0.123602
0.122216
0.121200
0.120674
0.120689
0.121211
0.122136
0.123327
0.124645
0.125970
0.127213
0.128307
0.129202
0.129860
0.130252
0.130350
0.130129
0.129565
0.128638
0.127330
0.125626
0.123515
0.120989
0.118059
0.114768
0.111227
0.107655
0.104395
0.101849
0.100322
0.099867
0.100289
0.101280
0.102554
0.103907
0.105208
0.106389
0.107410
0.108255
0.108913
0.109380
0.109654
0.109736
0.109633
0.109355
0.108919
0.108356
0.107709
0.107043
0.106439
0.105996
0.105812
0.105964
0.106495
0.107397
0.108616
0.110064
0.111637
0.113236
0.114773
0.116182
0.117410
0.118420
0.119186
0.119685
0.119902
0.119821
0.119432
0.118728
0.117704
0.116364
0.114722
0.112809
0.110686
0.108462
0.106307
0.104443
0.103111
0.102495
0.102663
0.103534
0.104923
0.106605
0.108384
0.110111
0.111690
0.113060
0.114188
0.115048
0.115625
0.115903
0.115871
0.115525
0.114868
0.113917
0.112710
0.111304
0.109783
0.108250
0.106821
0.105612
0.104726
0.104235
0.104171
0.104527
0.105257
0.106292
0.107548
0.108936
0.110377
0.111801
0.113150
0.114376
0.115444
0.116326
0.117005
0.117469
0.117714
0.117742
0.117561
0.117190
0.116659
0.116019
0.115349
0.114756
0.114377
0.114353
0.114802
0.115790
0.117306
0.119274
0.121566
0.124043
0.126577
0.129069
0.131450
0.133674
0.135710
0.137537
0.139138
0.140497
0.141603
0.142443
0.143009
0.143291
0.143285
0.142983
0.142378
0.141466
0.140261
0.138823
0.137288
0.135878
0.134681
0.166593
0.166589
0.166574
0.166538
0.166465
0.166332
0.166108
0.165755
0.165233
0.164496
0.163502
0.162208
0.160577
0.158580
0.156202
0.153446
0.150342
0.146955
0.143388
0.139787
0.136331
0.133211
0.130599
0.128624
0.127347
0.126758
0.126784
0.127310
0.128196
0.129304
0.130511
0.131712
0.132826
0.133786
0.134543
0.135059
0.135309
0.135273
0.134939
0.134303
0.133364
0.132125
0.130599
0.128807
0.126801
0.124672
0.122576
0.120729
0.119372
0.118706
0.118815
0.119638
0.120995
0.122666
0.124452
0.126201
0.127809
0.129211
0.130367
0.131244
0.131817
0.132060
0.131947
0.131450
0.130546
0.129208
0.127412
0.125131
0.122332
0.118982
0.115071
0.110672
0.106038
0.101688
0.098352
0.096615
0.096541
0.097686
0.099471
0.101450
0.103364
0.105089
0.106579
0.107825
0.108828
0.109591
0.110117
0.110408
0.110465
0.110293
0.109900
0.109298
0.108513
0.107591
0.106606
0.105667
0.104913
0.104494
0.104533
0.105100
0.106183
0.107700
0.109514
0.111474
0.113443
0.115311
0.117001
0.118463
0.119662
0.120574
0.121180
0.121464
0.121412
0.121007
0.120237
0.119089
0.117554
0.115629
0.113323
0.110679
0.107808
0.104923
0.102358
0.100512
0.099711
0.100069
0.101436
0.103474
0.105820
0.108187
0.110395
0.112351
0.114010
0.115356
0.116377
0.117061
0.117395
0.117363
0.116951
0.116156
0.114986
0.113477
0.111695
0.109738
0.107742
0.105865
0.104271
0.103102
0.102461
0.102388
0.102865
0.103822
0.105153
0.106738
0.108461
0.110219
0.111928
0.113522
0.114950
0.116172
0.117162
0.117901
0.118376
0.118582
0.118519
0.118191
0.117607
0.116791
0.115788
0.114684
0.113617
0.112781
0.112397
0.112658
0.113668
0.115414
0.117769
0.120529
0.123480
0.126448
0.129311
0.132000
0.134475
0.136718
0.138717
0.140459
0.141933
0.143125
0.144024
0.144619
0.144902
0.144864
0.144493
0.143764
0.142643
0.141103
0.139169
0.136998
0.134940
0.133314
0.166841
0.166861
0.166912
0.166981
0.167045
0.167074
0.167027
0.166858
0.166514
0.165939
0.165075
0.163866
0.162257
0.160205
0.157676
0.154657
0.151165
0.147263
0.143071
0.138776
0.134622
0.130883
0.127813
0.125595
0.124309
0.123929
0.124334
0.125348
0.126767
0.128404
0.130104
0.131745
0.133237
0.134512
0.135521
0.136229
0.136610
0.136648
0.136333
0.135658
0.134621
0.133219
0.131448
0.129310
0.126830
0.124093
0.121289
0.118737
0.116841
0.115952
0.116220
0.117521
0.119531
0.121885
0.124292
0.126566
0.128605
0.130359
0.131806
0.132928
0.133707
0.134120
0.134140
0.133735
0.132875
0.131530
0.129667
0.127246
0.124202
0.120435
0.115825
0.110306
0.104082
0.097913
0.093204
0.091201
0.091970
0.094425
0.097455
0.100403
0.103004
0.105199
0.107012
0.108481
0.109639
0.110505
0.111089
0.111394
0.111423
0.111175
0.110652
0.109858
0.108806
0.107534
0.106122
0.104707
0.103492
0.102711
0.102570
0.103180
0.104529
0.106479
0.108811
0.111296
0.113743
0.116019
0.118044
0.119774
0.121185
0.122262
0.122992
0.123359
0.123349
0.122941
0.122116
0.120853
0.119126
0.116907
0.114162
0.110885
0.107148
0.103196
0.099529
0.096845
0.095749
0.096449
0.098648
0.101704
0.105000
0.108137
0.110922
0.113299
0.115266
0.116842
0.118035
0.118842
0.119248
0.119228
0.118757
0.117812
0.116389
0.114514
0.112254
0.109728
0.107110
0.104622
0.102497
0.100946
0.100111
0.100047
0.100716
0.102004
0.103751
0.105783
0.107942
0.110102
0.112163
0.114054
0.115722
0.117128
0.118245
0.119055
0.119548
0.119717
0.119560
0.119074
0.118257
0.117110
0.115658
0.113979
0.112242
0.110727
0.109788
0.109749
0.110790
0.112892
0.115836
0.119277
0.122879
0.126401
0.129708
0.132743
0.135492
0.137956
0.140139
0.142036
0.143638
0.144931
0.145900
0.146534
0.146826
0.146771
0.146355
0.145538
0.144236
0.142333
0.139746
0.136587
0.133387
0.130952
0.167052
0.167101
0.167232
0.167428
0.167660
0.167889
0.168066
0.168133
0.168022
0.167664
0.166985
0.165910
0.164367
0.162289
0.159618
0.156313
0.152367
0.147826
0.142819
0.137581
0.132455
0.127847
0.124140
0.121602
0.120339
0.120292
0.121263
0.122969
0.125111
0.127435
0.129751
0.131924
0.133861
0.135501
0.136798
0.137721
0.138251
0.138373
0.138080
0.137368
0.136237
0.134674
0.132656
0.130142
0.127101
0.123563
0.119728
0.116064
0.113276
0.112021
0.112574
0.114680
0.117709
0.121039
0.124257
0.127159
0.129678
0.131809
0.133563
0.134947
0.135954
0.136565
0.136747
0.136462
0.135675
0.134351
0.132459
0.129957
0.126761
0.122690
0.117427
0.110566
0.101962
0.092556
0.085237
0.082924
0.085665
0.090557
0.095499
0.099691
0.103040
0.105685
0.107782
0.109445
0.110740
0.111700
0.112337
0.112655
0.112655
0.112331
0.111674
0.110672
0.109315
0.107613
0.105634
0.103543
0.101631
0.100281
0.099844
0.100512
0.102262
0.104862
0.107944
0.111145
0.114204
0.116969
0.119374
0.121396
0.123036
0.124291
0.125158
0.125626
0.125676
0.125284
0.124424
0.123068
0.121179
0.118693
0.115514
0.111525
0.106669
0.101144
0.095670
0.091542
0.089954
0.091294
0.094973
0.099668
0.104320
0.108420
0.111844
0.114642
0.116904
0.118700
0.120069
0.121016
0.121518
0.121538
0.121029
0.119937
0.118235
0.115927
0.113070
0.109799
0.106340
0.103002
0.100137
0.098061
0.096980
0.096962
0.097934
0.099714
0.102050
0.104686
0.107412
0.110072
0.112559
0.114801
0.116748
0.118366
0.119629
0.120523
0.121040
0.121176
0.120928
0.120289
0.119234
0.117731
0.115752
0.113330
0.110639
0.108084
0.106261
0.105736
0.106823
0.109496
0.113372
0.117831
0.122327
0.126541
0.130351
0.133749
0.136772
0.139457
0.141829
0.143894
0.145640
0.147049
0.148100
0.148781
0.149089
0.149032
0.148611
0.147786
0.146419
0.144236
0.140880
0.136192
0.130862
0.126788
0.167175
0.167259
0.167487
0.167838
0.168277
0.168756
0.169214
0.169580
0.169772
0.169703
0.169279
0.168408
0.166993
0.164942
0.162162
0.158574
0.154119
0.148803
0.142739
0.136211
0.129704
0.123846
0.119238
0.116282
0.115111
0.115604
0.117436
0.120136
0.123258
0.126464
0.129533
0.132330
0.134778
0.136826
0.138442
0.139603
0.140294
0.140506
0.140236
0.139490
0.138272
0.136572
0.134343
0.131484
0.127842
0.123296
0.117955
0.112466
0.108126
0.106244
0.107340
0.110887
0.115564
0.120287
0.124520
0.128122
0.131128
0.133624
0.135679
0.137332
0.138588
0.139425
0.139804
0.139674
0.138989
0.137715
0.135833
0.133329
0.130148
0.126075
0.120535
0.112417
0.100400
0.084815
0.071977
0.069396
0.077104
0.086581
0.094256
0.099798
0.103766
0.106708
0.108979
0.110771
0.112171
0.113212
0.113900
0.114233
0.114207
0.113816
0.113038
0.111837
0.110162
0.107962
0.105247
0.102183
0.099194
0.096925
0.095997
0.096740
0.099125
0.102745
0.106937
0.111119
0.114942
0.118266
0.121072
0.123391
0.125258
0.126698
0.127715
0.128299
0.128432
0.128081
0.127212
0.125800
0.123807
0.121147
0.117643
0.112988
0.106798
0.098956
0.090363
0.083597
0.081150
0.083726
0.090225
0.097630
0.104156
0.109350
0.113370
0.116504
0.118990
0.120972
0.122514
0.123620
0.124258
0.124365
0.123866
0.122658
0.120672
0.117871
0.114283
0.110041
0.105428
0.100890
0.096969
0.094159
0.092768
0.092865
0.094326
0.096849
0.100028
0.103482
0.106931
0.110199
0.113185
0.115829
0.118093
0.119948
0.121375
0.122362
0.122906
0.123013
0.122685
0.121913
0.120657
0.118822
0.116280
0.112933
0.108886
0.104687
0.101404
0.100071
0.101223
0.104843
0.110274
0.116298
0.122014
0.127048
0.131373
0.135103
0.138363
0.141248
0.143808
0.146051
0.147962
0.149509
0.150657
0.151388
0.151706
0.151646
0.151261
0.150562
0.149397
0.147287
0.143300
0.136365
0.126805
0.119157
0.167146
0.167272
0.167618
0.168159
0.168852
0.169641
0.170451
0.171195
0.171776
0.172084
0.172006
0.171428
0.170229
0.168289
0.165475
0.161647
0.156669
0.150450
0.143031
0.134719
0.126199
0.118492
0.112589
0.109089
0.108146
0.109534
0.112703
0.116852
0.121300
0.125613
0.129571
0.133075
0.136083
0.138574
0.140533
0.141946
0.142805
0.143108
0.142857
0.142070
0.140774
0.138979
0.136637
0.133577
0.129446
0.123761
0.116245
0.107614
0.100406
0.097402
0.099580
0.105908
0.113329
0.119991
0.125391
0.129658
0.133071
0.135863
0.138183
0.140099
0.141623
0.142724
0.143346
0.143415
0.142864
0.141653
0.139789
0.137332
0.134369
0.130841
0.126074
0.117882
0.101736
0.073412
0.047602
0.045077
0.066539
0.084284
0.095083
0.101443
0.105496
0.108387
0.110644
0.112478
0.113953
0.115071
0.115812
0.116162
0.116118
0.115680
0.114814
0.113465
0.111522
0.108813
0.105188
0.100725
0.096004
0.092201
0.090448
0.091293
0.094719
0.100021
0.105911
0.111425
0.116156
0.120059
0.123238
0.125818
0.127892
0.129510
0.130686
0.131407
0.131652
0.131369
0.130515
0.129085
0.127067
0.124401
0.120868
0.115906
0.108461
0.097339
0.083027
0.071133
0.067163
0.072085
0.084459
0.096388
0.105262
0.111409
0.115745
0.118985
0.121554
0.123659
0.125369
0.126671
0.127504
0.127776
0.127375
0.126120
0.123886
0.120565
0.116112
0.110617
0.104411
0.098134
0.092668
0.088818
0.087045
0.087380
0.089630
0.093302
0.097708
0.102260
0.106607
0.110585
0.114131
0.117219
0.119828
0.121942
0.123543
0.124627
0.125197
0.125272
0.124872
0.124012
0.122640
0.120598
0.117589
0.113208
0.107240
0.100337
0.094553
0.091862
0.093079
0.098296
0.106503
0.115003
0.122320
0.128210
0.132948
0.136887
0.140296
0.143334
0.146072
0.148514
0.150623
0.152342
0.153609
0.154386
0.154679
0.154568
0.154204
0.153770
0.153271
0.152137
0.148540
0.138885
0.120328
0.104346
0.166887
0.167064
0.167554
0.168327
0.169331
0.170500
0.171746
0.172966
0.174039
0.174833
0.175213
0.175038
0.174171
0.172462
0.169741
0.165795
0.160365
0.153176
0.144068
0.133260
0.121697
0.111152
0.103369
0.099191
0.098722
0.101611
0.106925
0.113222
0.119440
0.125090
0.130039
0.134295
0.137888
0.140839
0.143153
0.144827
0.145858
0.146244
0.145992
0.145140
0.143753
0.141907
0.139618
0.136697
0.132535
0.125939
0.115447
0.101078
0.088207
0.083176
0.087498
0.099715
0.111769
0.120899
0.127353
0.132018
0.135607
0.138551
0.141067
0.143236
0.145057
0.146475
0.147408
0.147737
0.147356
0.146200
0.144287
0.141787
0.139090
0.136735
0.134795
0.130692
0.113129
0.056230
-0.002669
-0.004952
0.059097
0.088625
0.100200
0.105320
0.108340
0.110669
0.112706
0.114520
0.116070
0.117282
0.118093
0.118464
0.118399
0.117936
0.117028
0.115643
0.113601
0.110530
0.105931
0.099510
0.091916
0.085435
0.082300
0.083257
0.088412
0.096671
0.105209
0.112462
0.118145
0.122525
0.125955
0.128705
0.130936
0.132720
0.134064
0.134944
0.135328
0.135135
0.134301
0.132856
0.130865
0.128395
0.125358
0.121076
0.113488
0.098478
0.072997
0.050671
0.044117
0.052769
0.078942
0.098016
0.108949
0.115170
0.119129
0.122065
0.124517
0.126677
0.128567
0.130125
0.131241
0.131782
0.131603
0.130421
0.128046
0.124260
0.118870
0.111827
0.103436
0.094603
0.086840
0.081503
0.079253
0.080013
0.083531
0.089024
0.095224
0.101216
0.106616
0.111360
0.115489
0.119037
0.122009
0.124394
0.126177
0.127354
0.127935
0.127956
0.127476
0.126566
0.125210
0.123250
0.120175
0.114980
0.106475
0.094858
0.084611
0.079743
0.080903
0.088682
0.102331
0.114775
0.123947
0.130431
0.135243
0.139134
0.142537
0.145661
0.148572
0.151248
0.153615
0.155565
0.156991
0.157809
0.158006
0.157691
0.157168
0.156957
0.157635
0.159168
0.159309
0.149063
0.109903
0.073564
0.166304
0.166544
0.167208
0.168261
0.169643
0.171276
0.173059
0.174869
0.176561
0.177973
0.178941
0.179301
0.178901
0.177581
0.175146
0.171319
0.165676
0.157629
0.146552
0.132240
0.115827
0.100713
0.090234
0.085310
0.085742
0.091115
0.100054
0.109591
0.118090
0.125220
0.131163
0.136146
0.140307
0.143714
0.146387
0.148328
0.149530
0.149988
0.149697
0.148712
0.147160
0.145246
0.143188
0.140992
0.137941
0.131774
0.117969
0.092290
0.067431
0.059077
0.067041
0.093412
0.112964
0.124378
0.131037
0.135406
0.138752
0.141633
0.144265
0.146689
0.148858
0.150676
0.152021
0.152709
0.152557
0.151433
0.149300
0.146369
0.143398
0.142085
0.145184
0.154685
0.158168
0.030144
-0.113058
-0.128631
0.082135
0.109046
0.110992
0.110919
0.111655
0.113081
0.114849
0.116687
0.118378
0.119745
0.120657
0.121048
0.120927
0.120354
0.119422
0.118159
0.116359
0.113420
0.108232
0.099490
0.087227
0.076027
0.070538
0.071466
0.079285
0.093088
0.105676
0.114878
0.121230
0.125738
0.129155
0.131917
0.134232
0.136166
0.137698
0.138759
0.139266
0.139127
0.138283
0.136766
0.134729
0.132495
0.130468
0.128581
0.124426
0.108054
0.059456
0.015762
0.006445
0.015785
0.079834
0.107042
0.116819
0.120831
0.123272
0.125415
0.127577
0.129769
0.131894
0.133801
0.135312
0.136237
0.136383
0.135442
0.133137
0.129096
0.122886
0.114135
0.102885
0.090277
0.079114
0.071740
0.068827
0.070225
0.075704
0.084172
0.092981
0.100727
0.107201
0.112643
0.117299
0.121284
0.124618
0.127281
0.129247
0.130505
0.131068
0.130984
0.130359
0.129360
0.128136
0.126715
0.124499
0.119638
0.108508
0.088221
0.069748
0.061979
0.062414
0.073271
0.099186
0.117536
0.127996
0.134108
0.138284
0.141717
0.144918
0.148063
0.151166
0.154146
0.156865
0.159151
0.160816
0.161695
0.161696
0.160896
0.159711
0.159140
0.160851
0.166750
0.177837
0.183443
0.091498
0.006654
0.165283
0.165598
0.166472
0.167862
0.169700
0.171897
0.174336
0.176871
0.179334
0.181521
0.183227
0.184265
0.184476
0.183719
0.181823
0.178496
0.173169
0.164802
0.151818
0.132666
0.107925
0.084971
0.070960
0.065561
0.067496
0.076768
0.092388
0.106861
0.118013
0.126466
0.133191
0.138767
0.143438
0.147281
0.150312
0.152528
0.153909
0.154432
0.154049
0.152806
0.150885
0.148685
0.146846
0.146045
0.146235
0.144681
0.130565
0.080244
0.028356
0.017436
0.026582
0.093164
0.121853
0.132382
0.136880
0.139735
0.142293
0.144907
0.147611
0.150332
0.152939
0.155272
0.157163
0.158364
0.158558
0.157493
0.154935
0.150854
0.145972
0.142939
0.148360
0.175298
0.256146
0.189234
0.000000
-0.374723
0.238328
0.148478
0.121916
0.114871
0.113793
0.114783
0.116580
0.118643
0.120625
0.122251
0.123317
0.123720
0.123475
0.122721
0.121752
0.120762
0.119689
0.117835
0.113290
0.102438
0.081870
0.062405
0.053860
0.054174
0.065030
0.090776
0.109119
0.119595
0.125616
0.129537
0.132536
0.135114
0.137444
0.139531
0.141292
0.142593
0.143277
0.143223
0.142349
0.140635
0.138272
0.135862
0.134686
0.136745
0.143241
0.142899
0.036626
-0.049469
-0.046982
-0.079699
0.111725
0.130277
0.128823
0.127148
0.127118
0.128289
0.130191
0.132503
0.134971
0.137349
0.139384
0.140801
0.141306
0.140808
0.138882
0.135004
0.128420
0.118147
0.103365
0.084903
0.068581
0.058796
0.055124
0.057280
0.065546
0.079283
0.091840
0.101400
0.108629
0.114479
0.119505
0.123872
0.127560
0.130504
0.132655
0.133984
0.134491
0.134219
0.133308
0.132023
0.130896
0.130449
0.130604
0.129207
0.117871
0.079456
0.045369
0.037108
0.034466
0.042773
0.102798
0.127296
0.135740
0.139270
0.141741
0.144273
0.147119
0.150273
0.153631
0.157028
0.160247
0.163029
0.165086
0.166124
0.165882
0.164247
0.161484
0.158982
0.159819
0.168470
0.193639
0.260357
0.187967
0.000000
0.163688
0.164093
0.165217
0.167009
0.169391
0.172263
0.175497
0.178927
0.182340
0.185494
0.188112
0.189970
0.190915
0.190866
0.189763
0.187446
0.183369
0.176071
0.162398
0.137117