# vtk DataFile Version 3.0
Vector Field
ASCII
DATASET RECTILINEAR_GRID
DIMENSIONS 200 75 1
X_COORDINATES 200 double
0.050000 0.150000 0.250000 0.350000 0.450000 0.550000 0.650000 0.750000 0.850000 0.950000 1.050000 1.150000 1.250000 1.350000 1.450000 1.550000 1.650000 1.750000 1.850000 1.950000 2.050000 2.150000 2.250000 2.350000 2.450000 2.550000 2.650000 2.750000 2.850000 2.950000 3.050000 3.150000 3.250000 3.350000 3.450000 3.550000 3.650000 3.750000 3.850000 3.950000 4.050000 4.150000 4.250000 4.350000 4.450000 4.550000 4.650000 4.750000 4.850000 4.950000 5.050000 5.150000 5.250000 5.350000 5.450000 5.550000 5.650000 5.750000 5.850000 5.950000 6.050000 6.150000 6.250000 6.350000 6.450000 6.550000 6.650000 6.750000 6.850000 6.950000 7.050000 7.150000 7.250000 7.350000 7.450000 7.550000 7.650000 7.750000 7.850000 7.950000 8.050000 8.150000 8.250000 8.350000 8.450000 8.550000 8.650000 8.750000 8.850000 8.950000 9.050000 9.150000 9.250000 9.350000 9.450000 9.550000 9.650000 9.750000 9.850000 9.950000 10.050000 10.150000 10.250000 10.350000 10.450000 10.550000 10.650000 10.750000 10.850000 10.950000 11.050000 11.150000 11.250000 11.350000 11.450000 11.550000 11.650000 11.750000 11.850000 11.950000 12.050000 12.150000 12.250000 12.350000 12.450000 12.550000 12.650000 12.750000 12.850000 12.950000 13.050000 13.150000 13.250000 13.350000 13.450000 13.550000 13.650000 13.750000 13.850000 13.950000 14.050000 14.150000 14.250000 14.350000 14.450000 14.550000 14.650000 14.750000 14.850000 14.950000 15.050000 15.150000 15.250000 15.350000 15.450000 15.550000 15.650000 15.750000 15.850000 15.950000 16.050000 16.150000 16.250000 16.350000 16.450000 16.550000 16.650000 16.750000 16.850000 16.950000 17.050000 17.150000 17.250000 17.350000 17.450000 17.550000 17.650000 17.750000 17.850000 17.950000 18.050000 18.150000 18.250000 18.350000 18.450000 18.550000 18.650000 18.750000 18.850000 18.950000 19.050000 19.150000 19.250000 19.350000 19.450000 19.550000 19.650000 19.750000 19.850000 19.950000 
Y_COORDINATES 75 double
0.050000 0.150000 0.250000 0.350000 0.450000 0.550000 0.650000 0.750000 0.850000 0.950000 1.050000 1.150000 1.250000 1.350000 1.450000 1.550000 1.650000 1.750000 1.850000 1.950000 2.050000 2.150000 2.250000 2.350000 2.450000 2.550000 2.650000 2.750000 2.850000 2.950000 3.050000 3.150000 3.250000 3.350000 3.450000 3.550000 3.650000 3.750000 3.850000 3.950000 4.050000 4.150000 4.250000 4.350000 4.450000 4.550000 4.650000 4.750000 4.850000 4.950000 5.050000 5.150000 5.250000 5.350000 5.450000 5.550000 5.650000 5.750000 5.850000 5.950000 6.050000 6.150000 6.250000 6.350000 6.450000 6.550000 6.650000 6.750000 6.850000 6.950000 7.050000 7.150000 7.250000 7.350000 7.450000 
Z_COORDINATES 1 double
0.0
POINT_DATA 15000
VECTORS Vektorfeld double
0.999659 0.000341 0.0
0.998749 0.000569 0.0
0.997536 0.000644 0.0
0.996235 0.000657 0.0
0.994937 0.000640 0.0
0.993692 0.000605 0.0
0.992529 0.000558 0.0
0.991471 0.000500 0.0
0.990535 0.000436 0.0
0.989734 0.000366 0.0
0.989074 0.000294 0.0
0.988558 0.000222 0.0
0.988184 0.000153 0.0
0.987941 0.000091 0.0
0.987811 0.000039 0.0
0.987771 0.000001 0.0
0.987789 -0.000019 0.0
0.987827 -0.000019 0.0
0.987844 0.000002 0.0
0.987796 0.000046 0.0
0.987641 0.000109 0.0
0.987340 0.000191 0.0
0.986862 0.000287 0.0
0.986182 0.000392 0.0
0.985290 0.000500 0.0
0.984184 0.000606 0.0
0.982874 0.000704 0.0
0.981380 0.000790 0.0
0.979729 0.000861 0.0
0.977955 0.000914 0.0
0.976093 0.000948 0.0
0.974180 0.000965 0.0
0.972251 0.000964 0.0
0.970338 0.000948 0.0
0.968471 0.000919 0.0
0.966673 0.000879 0.0
0.964962 0.000832 0.0
0.963348 0.000782 0.0
0.961836 0.000730 0.0
0.960424 0.000682 0.0
0.959102 0.000640 0.0
0.957855 0.000608 0.0
0.956658 0.000589 0.0
0.955485 0.000585 0.0
0.954302 0.000598 0.0
0.953074 0.000629 0.0
0.951767 0.000677 0.0
0.950352 0.000739 0.0
0.948804 0.000809 0.0
0.947110 0.000884 0.0
0.945269 0.000957 0.0
0.943292 0.001021 0.0
0.941200 0.001071 0.0
0.939025 0.001104 0.0
0.936803 0.001118 0.0
0.934575 0.001110 0.0
0.932383 0.001082 0.0
0.930267 0.001034 0.0
0.928263 0.000969 0.0
0.926404 0.000889 0.0
0.924718 0.000797 0.0
0.923226 0.000695 0.0
0.921944 0.000587 0.0
0.920879 0.000477 0.0
0.920032 0.000369 0.0
0.919395 0.000268 0.0
0.918948 0.000178 0.0
0.918664 0.000106 0.0
0.918503 0.000056 0.0
0.918414 0.000033 0.0
0.918339 0.000042 0.0
0.918211 0.000086 0.0
0.917963 0.000162 0.0
0.917534 0.000267 0.0
0.916873 0.000393 0.0
0.915949 0.000531 0.0
0.914751 0.000668 0.0
0.913288 0.000795 0.0
0.911587 0.000905 0.0
0.909689 0.000994 0.0
0.907636 0.001059 0.0
0.905477 0.001101 0.0
0.903253 0.001123 0.0
0.901003 0.001127 0.0
0.898757 0.001118 0.0
0.896541 0.001099 0.0
0.894369 0.001073 0.0
0.892252 0.001044 0.0
0.890191 0.001016 0.0
0.888183 0.000992 0.0
0.886216 0.000974 0.0
0.884276 0.000966 0.0
0.882341 0.000969 0.0
0.880387 0.000985 0.0
0.878390 0.001013 0.0
0.876324 0.001053 0.0
0.874167 0.001104 0.0
0.871903 0.001161 0.0
0.869522 0.001220 0.0
0.867023 0.001278 0.0
0.864417 0.001329 0.0
0.861720 0.001368 0.0
0.858958 0.001393 0.0
0.856163 0.001402 0.0
0.853369 0.001392 0.0
0.850612 0.001365 0.0
0.847927 0.001320 0.0
0.845346 0.001260 0.0
0.842898 0.001188 0.0
0.840607 0.001104 0.0
0.838489 0.001014 0.0
0.836557 0.000919 0.0
0.834815 0.000823 0.0
0.833261 0.000731 0.0
0.831886 0.000645 0.0
0.830669 0.000571 0.0
0.829586 0.000513 0.0
0.828600 0.000474 0.0
0.827669 0.000457 0.0
0.826745 0.000466 0.0
0.825777 0.000501 0.0
0.824716 0.000560 0.0
0.823518 0.000638 0.0
0.822152 0.000729 0.0
0.820600 0.000823 0.0
0.818865 0.000912 0.0
0.816965 0.000987 0.0
0.814937 0.001041 0.0
0.812827 0.001069 0.0
0.810690 0.001068 0.0
0.808582 0.001040 0.0
0.806559 0.000984 0.0
0.804668 0.000906 0.0
0.802955 0.000808 0.0
0.801452 0.000695 0.0
0.800183 0.000573 0.0
0.799164 0.000447 0.0
0.798396 0.000321 0.0
0.797872 0.000203 0.0
0.797574 0.000095 0.0
0.797484 -0.000005 0.0
0.797575 -0.000086 0.0
0.797798 -0.000137 0.0
0.798089 -0.000154 0.0
0.798382 -0.000139 0.0
0.798617 -0.000095 0.0
0.798742 -0.000030 0.0
0.798726 0.000046 0.0
0.798549 0.000130 0.0
0.798200 0.000219 0.0
0.797676 0.000306 0.0
0.796984 0.000386 0.0
0.796140 0.000457 0.0
0.795169 0.000514 0.0
0.794098 0.000557 0.0
0.792957 0.000583 0.0
0.791779 0.000595 0.0
0.790593 0.000592 0.0
0.789425 0.000577 0.0
0.788296 0.000552 0.0
0.787224 0.000520 0.0
0.786219 0.000485 0.0
0.785284 0.000450 0.0
0.784417 0.000417 0.0
0.783608 0.000392 0.0
0.782838 0.000378 0.0
0.782084 0.000376 0.0
0.781316 0.000392 0.0
0.780499 0.000425 0.0
0.779597 0.000477 0.0
0.778574 0.000546 0.0
0.777397 0.000631 0.0
0.776039 0.000727 0.0
0.774485 0.000827 0.0
0.772731 0.000927 0.0
0.770786 0.001018 0.0
0.768671 0.001097 0.0
0.766417 0.001157 0.0
0.764063 0.001197 0.0
0.761651 0.001215 0.0
0.759226 0.001211 0.0
0.756830 0.001186 0.0
0.754503 0.001142 0.0
0.752281 0.001080 0.0
0.750196 0.001005 0.0
0.748274 0.000916 0.0
0.746540 0.000818 0.0
0.745009 0.000713 0.0
0.743694 0.000602 0.0
0.742603 0.000489 0.0
0.741737 0.000377 0.0
0.741092 0.000268 0.0
0.740659 0.000166 0.0
0.740421 0.000072 0.0
0.740365 -0.000016 0.0
0.740472 -0.000091 0.0
0.740711 -0.000148 0.0
0.741050 -0.000190 0.0
0.741479 -0.000239 0.0
0.741928 -0.000211 0.0
1.000203 0.000479 0.0
1.000678 0.000866 0.0
1.001236 0.001002 0.0
1.001821 0.001014 0.0
1.002446 0.000955 0.0
1.003133 0.000848 0.0
1.003904 0.000706 0.0
1.004778 0.000536 0.0
1.005770 0.000344 0.0
1.006895 0.000136 0.0
1.008159 -0.000080 0.0
1.009566 -0.000296 0.0
1.011113 -0.000503 0.0
1.012791 -0.000689 0.0
1.014582 -0.000843 0.0
1.016462 -0.000956 0.0
1.018397 -0.001015 0.0
1.020348 -0.001013 0.0
1.022274 -0.000946 0.0
1.024126 -0.000811 0.0
1.025860 -0.000613 0.0
1.027435 -0.000360 0.0
1.028816 -0.000064 0.0
1.029979 0.000259 0.0
1.030912 0.000592 0.0
1.031615 0.000917 0.0
1.032098 0.001219 0.0
1.032385 0.001483 0.0
1.032504 0.001699 0.0
1.032491 0.001862 0.0
1.032384 0.001969 0.0
1.032221 0.002020 0.0
1.032040 0.002019 0.0
1.031874 0.001971 0.0
1.031752 0.001884 0.0
1.031699 0.001766 0.0
1.031731 0.001625 0.0
1.031862 0.001473 0.0
1.032094 0.001319 0.0
1.032426 0.001173 0.0
1.032848 0.001048 0.0
1.033343 0.000952 0.0
1.033887 0.000896 0.0
1.034452 0.000887 0.0
1.035001 0.000930 0.0
1.035498 0.001028 0.0
1.035906 0.001177 0.0
1.036192 0.001369 0.0
1.036330 0.001589 0.0
1.036306 0.001822 0.0
1.036118 0.002047 0.0
1.035779 0.002246 0.0
1.035313 0.002404 0.0
1.034753 0.002507 0.0
1.034139 0.002550 0.0
1.033515 0.002529 0.0
1.032923 0.002446 0.0
1.032405 0.002305 0.0
1.031998 0.002110 0.0
1.031735 0.001870 0.0
1.031644 0.001593 0.0
1.031746 0.001288 0.0
1.032058 0.000965 0.0
1.032588 0.000634 0.0
1.033338 0.000309 0.0
1.034300 0.000003 0.0
1.035458 -0.000268 0.0
1.036781 -0.000488 0.0
1.038230 -0.000639 0.0
1.039753 -0.000706 0.0
1.041286 -0.000675 0.0
1.042758 -0.000540 0.0
1.044096 -0.000302 0.0
1.045232 0.000025 0.0
1.046113 0.000416 0.0
1.046706 0.000839 0.0
1.047004 0.001260 0.0
1.047019 0.001650 0.0
1.046785 0.001985 0.0
1.046346 0.002252 0.0
1.045751 0.002447 0.0
1.045050 0.002573 0.0
1.044286 0.002638 0.0
1.043500 0.002650 0.0
1.042720 0.002621 0.0
1.041972 0.002562 0.0
1.041270 0.002484 0.0
1.040623 0.002398 0.0
1.040032 0.002314 0.0
1.039493 0.002242 0.0
1.038995 0.002190 0.0
1.038519 0.002167 0.0
1.038045 0.002178 0.0
1.037548 0.002227 0.0
1.037000 0.002316 0.0
1.036375 0.002441 0.0
1.035650 0.002598 0.0
1.034805 0.002775 0.0
1.033831 0.002960 0.0
1.032728 0.003139 0.0
1.031506 0.003297 0.0
1.030183 0.003420 0.0
1.028788 0.003499 0.0
1.027354 0.003526 0.0
1.025918 0.003499 0.0
1.024515 0.003417 0.0
1.023184 0.003284 0.0
1.021955 0.003105 0.0
1.020858 0.002887 0.0
1.019917 0.002638 0.0
1.019149 0.002366 0.0
1.018566 0.002082 0.0
1.018172 0.001795 0.0
1.017965 0.001519 0.0
1.017935 0.001263 0.0
1.018064 0.001041 0.0
1.018323 0.000867 0.0
1.018677 0.000751 0.0
1.019083 0.000705 0.0
1.019489 0.000736 0.0
1.019842 0.000846 0.0
1.020089 0.001029 0.0
1.020183 0.001273 0.0
1.020088 0.001555 0.0
1.019787 0.001850 0.0
1.019280 0.002127 0.0
1.018591 0.002362 0.0
1.017755 0.002531 0.0
1.016822 0.002621 0.0
1.015848 0.002627 0.0
1.014888 0.002549 0.0
1.013993 0.002393 0.0
1.013210 0.002170 0.0
1.012575 0.001893 0.0
1.012113 0.001575 0.0
1.011842 0.001233 0.0
1.011765 0.000883 0.0
1.011878 0.000540 0.0
1.012168 0.000219 0.0
1.012611 -0.000066 0.0
1.013161 -0.000305 0.0
1.013765 -0.000481 0.0
1.014379 -0.000578 0.0
1.014967 -0.000591 0.0
1.015492 -0.000521 0.0
1.015919 -0.000376 0.0
1.016215 -0.000170 0.0
1.016343 0.000075 0.0
1.016276 0.000345 0.0
1.016002 0.000626 0.0
1.015525 0.000900 0.0
1.014855 0.001153 0.0
1.014016 0.001373 0.0
1.013035 0.001551 0.0
1.011946 0.001681 0.0
1.010784 0.001762 0.0
1.009584 0.001795 0.0
1.008376 0.001785 0.0
1.007190 0.001738 0.0
1.006049 0.001661 0.0
1.004969 0.001563 0.0
1.003961 0.001455 0.0
1.003029 0.001346 0.0
1.002169 0.001248 0.0
1.001369 0.001171 0.0
1.000612 0.001126 0.0
0.999871 0.001123 0.0
0.999116 0.001169 0.0
0.998309 0.001271 0.0
0.997412 0.001430 0.0
0.996386 0.001643 0.0
0.995194 0.001903 0.0
0.993809 0.002197 0.0
0.992215 0.002506 0.0
0.990407 0.002810 0.0
0.988396 0.003091 0.0
0.986205 0.003330 0.0
0.983868 0.003514 0.0
0.981428 0.003635 0.0
0.978928 0.003688 0.0
0.976415 0.003675 0.0
0.973934 0.003599 0.0
0.971524 0.003465 0.0
0.969223 0.003280 0.0
0.967062 0.003051 0.0
0.965068 0.002785 0.0
0.963263 0.002490 0.0
0.961663 0.002172 0.0
0.960282 0.001839 0.0
0.959125 0.001500 0.0
0.958193 0.001163 0.0
0.957481 0.000838 0.0
0.956977 0.000533 0.0
0.956661 0.000259 0.0
0.956497 0.000019 0.0
0.956438 -0.000174 0.0
0.956444 -0.000311 0.0
0.956475 -0.000397 0.0
0.956478 -0.000463 0.0
0.956411 -0.000368 0.0
1.000086 0.000190 0.0
1.000351 0.000415 0.0
1.000758 0.000488 0.0
1.001253 0.000448 0.0
1.001825 0.000325 0.0
1.002481 0.000136 0.0
1.003235 -0.000106 0.0
1.004103 -0.000393 0.0
1.005099 -0.000717 0.0
1.006237 -0.001066 0.0
1.007526 -0.001431 0.0
1.008970 -0.001797 0.0
1.010567 -0.002147 0.0
1.012309 -0.002464 0.0
1.014179 -0.002729 0.0
1.016151 -0.002922 0.0
1.018192 -0.003025 0.0
1.020260 -0.003024 0.0
1.022309 -0.002909 0.0
1.024288 -0.002679 0.0
1.026146 -0.002338 0.0
1.027839 -0.001902 0.0
1.029329 -0.001392 0.0
1.030589 -0.000836 0.0
1.031608 -0.000264 0.0
1.032385 0.000294 0.0
1.032936 0.000808 0.0
1.033285 0.001257 0.0
1.033467 0.001624 0.0
1.033521 0.001897 0.0
1.033487 0.002075 0.0
1.033406 0.002158 0.0
1.033317 0.002152 0.0
1.033255 0.002067 0.0
1.033248 0.001916 0.0
1.033321 0.001713 0.0
1.033492 0.001474 0.0
1.033772 0.001214 0.0
1.034165 0.000952 0.0
1.034669 0.000704 0.0
1.035275 0.000489 0.0
1.035966 0.000324 0.0
1.036719 0.000226 0.0
1.037503 0.000208 0.0
1.038281 0.000281 0.0
1.039014 0.000448 0.0
1.039660 0.000704 0.0
1.040181 0.001035 0.0
1.040547 0.001419 0.0
1.040741 0.001823 0.0
1.040761 0.002214 0.0
1.040620 0.002559 0.0
1.040345 0.002831 0.0
1.039974 0.003010 0.0
1.039549 0.003085 0.0
1.039116 0.003052 0.0
1.038718 0.002914 0.0
1.038397 0.002677 0.0
1.038187 0.002354 0.0
1.038122 0.001955 0.0
1.038227 0.001495 0.0
1.038523 0.000988 0.0
1.039025 0.000451 0.0
1.039742 -0.000099 0.0
1.040675 -0.000641 0.0
1.041819 -0.001152 0.0
1.043158 -0.001609 0.0
1.044670 -0.001982 0.0
1.046317 -0.002242 0.0
1.048053 -0.002362 0.0
1.049816 -0.002316 0.0
1.051535 -0.002090 0.0
1.053131 -0.001686 0.0
1.054528 -0.001125 0.0
1.055665 -0.000452 0.0
1.056503 0.000275 0.0
1.057034 0.000995 0.0
1.057279 0.001655 0.0
1.057279 0.002214 0.0
1.057086 0.002654 0.0
1.056756 0.002970 0.0
1.056340 0.003168 0.0
1.055883 0.003263 0.0
1.055422 0.003272 0.0
1.054985 0.003214 0.0
1.054593 0.003108 0.0
1.054259 0.002972 0.0
1.053991 0.002824 0.0
1.053790 0.002680 0.0
1.053649 0.002555 0.0
1.053558 0.002466 0.0
1.053501 0.002423 0.0
1.053457 0.002439 0.0
1.053399 0.002520 0.0
1.053300 0.002669 0.0
1.053131 0.002882 0.0
1.052868 0.003148 0.0
1.052488 0.003450 0.0
1.051980 0.003767 0.0
1.051343 0.004073 0.0
1.050586 0.004343 0.0
1.049728 0.004554 0.0
1.048797 0.004690 0.0
1.047828 0.004738 0.0
1.046856 0.004695 0.0
1.045918 0.004561 0.0
1.045047 0.004343 0.0
1.044275 0.004048 0.0
1.043628 0.003689 0.0
1.043126 0.003279 0.0
1.042786 0.002833 0.0
1.042619 0.002366 0.0
1.042628 0.001896 0.0
1.042812 0.001441 0.0
1.043163 0.001020 0.0
1.043665 0.000655 0.0
1.044292 0.000366 0.0
1.045013 0.000176 0.0
1.045785 0.000103 0.0
1.046558 0.000160 0.0
1.047274 0.000353 0.0
1.047875 0.000674 0.0
1.048307 0.001102 0.0
1.048529 0.001599 0.0
1.048514 0.002121 0.0
1.048260 0.002616 0.0
1.047786 0.003037 0.0
1.047127 0.003350 0.0
1.046331 0.003531 0.0
1.045450 0.003573 0.0
1.044535 0.003479 0.0
1.043632 0.003261 0.0
1.042781 0.002937 0.0
1.042012 0.002530 0.0
1.041351 0.002061 0.0
1.040812 0.001557 0.0
1.040406 0.001042 0.0
1.040133 0.000540 0.0
1.039987 0.000075 0.0
1.039951 -0.000329 0.0
1.040005 -0.000648 0.0
1.040125 -0.000864 0.0
1.040281 -0.000965 0.0
1.040436 -0.000946 0.0
1.040551 -0.000806 0.0
1.040589 -0.000555 0.0
1.040514 -0.000211 0.0
1.040297 0.000204 0.0
1.039917 0.000663 0.0
1.039365 0.001134 0.0
1.038644 0.001591 0.0
1.037767 0.002009 0.0
1.036756 0.002368 0.0
1.035640 0.002653 0.0
1.034451 0.002856 0.0
1.033221 0.002977 0.0
1.031982 0.003019 0.0
1.030764 0.002988 0.0
1.029590 0.002895 0.0
1.028481 0.002754 0.0
1.027450 0.002580 0.0
1.026506 0.002389 0.0
1.025652 0.002199 0.0
1.024882 0.002026 0.0
1.024186 0.001889 0.0
1.023547 0.001805 0.0
1.022941 0.001791 0.0
1.022336 0.001861 0.0
1.021696 0.002025 0.0
1.020983 0.002286 0.0
1.020154 0.002642 0.0
1.019172 0.003078 0.0
1.018006 0.003572 0.0
1.016636 0.004094 0.0
1.015058 0.004608 0.0
1.013281 0.005081 0.0
1.011330 0.005482 0.0
1.009240 0.005789 0.0
1.007053 0.005988 0.0
1.004814 0.006074 0.0
1.002568 0.006049 0.0
1.000355 0.005920 0.0
0.998213 0.005697 0.0
0.996172 0.005391 0.0
0.994259 0.005014 0.0
0.992496 0.004579 0.0
0.990900 0.004097 0.0
0.989483 0.003581 0.0
0.988253 0.003042 0.0
0.987213 0.002494 0.0
0.986362 0.001952 0.0
0.985692 0.001430 0.0
0.985190 0.000946 0.0
0.984835 0.000517 0.0
0.984598 0.000162 0.0
0.984444 -0.000103 0.0
0.984326 -0.000271 0.0
0.984199 -0.000341 0.0
0.984009 -0.000333 0.0
0.983756 -0.000177 0.0
1.000048 0.000056 0.0
1.000219 0.000114 0.0
1.000521 0.000081 0.0
1.000923 -0.000043 0.0
1.001417 -0.000250 0.0
1.002006 -0.000534 0.0
1.002703 -0.000887 0.0
1.003523 -0.001300 0.0
1.004482 -0.001765 0.0
1.005596 -0.002269 0.0
1.006875 -0.002796 0.0
1.008327 -0.003328 0.0
1.009954 -0.003840 0.0
1.011748 -0.004307 0.0
1.013694 -0.004701 0.0
1.015765 -0.004993 0.0
1.017925 -0.005155 0.0
1.020127 -0.005165 0.0
1.022317 -0.005007 0.0
1.024435 -0.004678 0.0
1.026420 -0.004184 0.0
1.028218 -0.003547 0.0
1.029782 -0.002801 0.0
1.031080 -0.001986 0.0
1.032099 -0.001150 0.0
1.032842 -0.000339 0.0
1.033327 0.000405 0.0
1.033587 0.001050 0.0
1.033665 0.001571 0.0
1.033606 0.001955 0.0
1.033460 0.002198 0.0
1.033272 0.002303 0.0
1.033087 0.002281 0.0
1.032941 0.002146 0.0
1.032869 0.001917 0.0
1.032894 0.001614 0.0
1.033036 0.001260 0.0
1.033307 0.000877 0.0
1.033712 0.000490 0.0
1.034249 0.000124 0.0
1.034910 -0.000197 0.0
1.035676 -0.000447 0.0
1.036522 -0.000602 0.0
1.037415 -0.000640 0.0
1.038311 -0.000545 0.0
1.039162 -0.000310 0.0
1.039916 0.000062 0.0
1.040523 0.000549 0.0
1.040944 0.001118 0.0
1.041154 0.001719 0.0
1.041151 0.002301 0.0
1.040951 0.002813 0.0
1.040591 0.003213 0.0
1.040118 0.003474 0.0
1.039584 0.003580 0.0
1.039043 0.003531 0.0
1.038543 0.003331 0.0
1.038131 0.002994 0.0
1.037844 0.002534 0.0
1.037715 0.001969 0.0
1.037772 0.001319 0.0
1.038037 0.000604 0.0
1.038525 -0.000155 0.0
1.039249 -0.000933 0.0
1.040212 -0.001703 0.0
1.041412 -0.002435 0.0
1.042840 -0.003094 0.0
1.044473 -0.003641 0.0
1.046278 -0.004035 0.0
1.048204 -0.004231 0.0
1.050182 -0.004188 0.0
1.052126 -0.003880 0.0
1.053933 -0.003300 0.0
1.055503 -0.002479 0.0
1.056752 -0.001484 0.0
1.057631 -0.000410 0.0
1.058136 0.000644 0.0
1.058304 0.001594 0.0
1.058196 0.002383 0.0
1.057886 0.002988 0.0
1.057445 0.003407 0.0
1.056935 0.003657 0.0
1.056406 0.003761 0.0
1.055896 0.003746 0.0
1.055435 0.003640 0.0
1.055041 0.003469 0.0
1.054727 0.003259 0.0
1.054499 0.003034 0.0
1.054356 0.002815 0.0
1.054292 0.002625 0.0
1.054295 0.002484 0.0
1.054347 0.002410 0.0
1.054424 0.002420 0.0
1.054495 0.002526 0.0
1.054527 0.002730 0.0
1.054486 0.003030 0.0
1.054337 0.003412 0.0
1.054053 0.003849 0.0
1.053619 0.004310 0.0
1.053029 0.004756 0.0
1.052296 0.005150 0.0
1.051443 0.005458 0.0
1.050505 0.005655 0.0
1.049521 0.005726 0.0
1.048535 0.005665 0.0
1.047588 0.005477 0.0
1.046717 0.005169 0.0
1.045955 0.004756 0.0
1.045328 0.004255 0.0
1.044860 0.003683 0.0
1.044565 0.003062 0.0
1.044456 0.002413 0.0
1.044537 0.001758 0.0
1.044808 0.001122 0.0
1.045263 0.000533 0.0
1.045886 0.000017 0.0
1.046656 -0.000393 0.0
1.047537 -0.000667 0.0
1.048487 -0.000775 0.0
1.049447 -0.000694 0.0
1.050351 -0.000412 0.0
1.051125 0.000064 0.0
1.051699 0.000705 0.0
1.052015 0.001459 0.0
1.052039 0.002253 0.0
1.051766 0.003010 0.0
1.051223 0.003660 0.0
1.050459 0.004150 0.0
1.049536 0.004450 0.0
1.048518 0.004553 0.0
1.047466 0.004466 0.0
1.046432 0.004210 0.0
1.045459 0.003812 0.0
1.044580 0.003302 0.0
1.043819 0.002711 0.0
1.043195 0.002070 0.0
1.042718 0.001412 0.0
1.042393 0.000768 0.0
1.042215 0.000171 0.0
1.042174 -0.000347 0.0
1.042249 -0.000758 0.0
1.042412 -0.001037 0.0
1.042627 -0.001163 0.0
1.042849 -0.001126 0.0
1.043033 -0.000925 0.0
1.043130 -0.000571 0.0
1.043096 -0.000087 0.0
1.042898 0.000495 0.0
1.042512 0.001137 0.0
1.041930 0.001794 0.0
1.041156 0.002427 0.0
1.040209 0.002999 0.0
1.039116 0.003482 0.0
1.037911 0.003858 0.0
1.036633 0.004118 0.0
1.035320 0.004259 0.0
1.034008 0.004288 0.0
1.032728 0.004217 0.0
1.031507 0.004060 0.0
1.030368 0.003838 0.0
1.029326 0.003570 0.0
1.028389 0.003280 0.0
1.027561 0.002990 0.0
1.026839 0.002726 0.0
1.026211 0.002512 0.0
1.025659 0.002372 0.0
1.025159 0.002330 0.0
1.024678 0.002408 0.0
1.024174 0.002621 0.0
1.023601 0.002977 0.0
1.022907 0.003473 0.0
1.022046 0.004091 0.0
1.020975 0.004797 0.0
1.019669 0.005545 0.0
1.018120 0.006284 0.0
1.016341 0.006961 0.0
1.014363 0.007531 0.0
1.012231 0.007962 0.0
1.009996 0.008236 0.0
1.007711 0.008349 0.0
1.005426 0.008305 0.0
1.003185 0.008117 0.0
1.001026 0.007801 0.0
0.998980 0.007373 0.0
0.997073 0.006852 0.0
0.995323 0.006253 0.0
0.993748 0.005594 0.0
0.992357 0.004891 0.0
0.991159 0.004160 0.0
0.990155 0.003420 0.0
0.989345 0.002688 0.0
0.988722 0.001987 0.0
0.988276 0.001339 0.0
0.987985 0.000769 0.0
0.987823 0.000308 0.0
0.987750 -0.000021 0.0
0.987713 -0.000200 0.0
0.987654 -0.000226 0.0
0.987514 -0.000119 0.0
0.987266 0.000111 0.0
1.000031 -0.000023 0.0
1.000151 -0.000097 0.0
1.000376 -0.000234 0.0
1.000695 -0.000449 0.0
1.001107 -0.000749 0.0
1.001618 -0.001136 0.0
1.002242 -0.001607 0.0
1.002998 -0.002156 0.0
1.003905 -0.002775 0.0
1.004982 -0.003449 0.0
1.006244 -0.004158 0.0
1.007704 -0.004878 0.0
1.009367 -0.005579 0.0
1.011229 -0.006224 0.0
1.013276 -0.006776 0.0
1.015482 -0.007194 0.0
1.017807 -0.007438 0.0
1.020197 -0.007474 0.0
1.022587 -0.007278 0.0
1.024904 -0.006842 0.0
1.027072 -0.006173 0.0
1.029020 -0.005303 0.0
1.030689 -0.004278 0.0
1.032040 -0.003159 0.0
1.033055 -0.002013 0.0
1.033743 -0.000906 0.0
1.034128 0.000102 0.0
1.034256 0.000966 0.0
1.034179 0.001655 0.0
1.033956 0.002153 0.0
1.033647 0.002456 0.0
1.033304 0.002574 0.0
1.032980 0.002520 0.0
1.032715 0.002317 0.0
1.032544 0.001989 0.0
1.032497 0.001565 0.0
1.032593 0.001072 0.0
1.032845 0.000542 0.0
1.033259 0.000006 0.0
1.033834 -0.000504 0.0
1.034561 -0.000956 0.0
1.035423 -0.001315 0.0
1.036392 -0.001549 0.0
1.037431 -0.001624 0.0
1.038489 -0.001515 0.0
1.039504 -0.001206 0.0
1.040409 -0.000700 0.0
1.041134 -0.000022 0.0
1.041624 0.000779 0.0
1.041842 0.001630 0.0
1.041785 0.002452 0.0
1.041477 0.003170 0.0
1.040968 0.003725 0.0
1.040321 0.004081 0.0
1.039606 0.004222 0.0
1.038886 0.004150 0.0
1.038221 0.003877 0.0
1.037659 0.003422 0.0
1.037243 0.002809 0.0
1.037006 0.002060 0.0
1.036976 0.001200 0.0
1.037179 0.000256 0.0
1.037631 -0.000748 0.0
1.038346 -0.001780 0.0
1.039334 -0.002807 0.0
1.040596 -0.003793 0.0
1.042126 -0.004693 0.0
1.043910 -0.005458 0.0
1.045917 -0.006029 0.0
1.048096 -0.006342 0.0
1.050372 -0.006331 0.0
1.052635 -0.005943 0.0
1.054750 -0.005158 0.0
1.056570 -0.004011 0.0
1.057971 -0.002602 0.0
1.058882 -0.001083 0.0
1.059307 0.000387 0.0
1.059311 0.001679 0.0
1.058995 0.002721 0.0
1.058466 0.003489 0.0
1.057818 0.003995 0.0
1.057126 0.004271 0.0
1.056447 0.004355 0.0
1.055821 0.004287 0.0
1.055274 0.004106 0.0
1.054824 0.003846 0.0
1.054482 0.003538 0.0
1.054252 0.003213 0.0
1.054132 0.002898 0.0
1.054115 0.002622 0.0
1.054188 0.002411 0.0
1.054331 0.002290 0.0
1.054514 0.002282 0.0
1.054702 0.002405 0.0
1.054853 0.002668 0.0
1.054920 0.003067 0.0
1.054858 0.003586 0.0
1.054627 0.004189 0.0
1.054204 0.004828 0.0
1.053581 0.005450 0.0
1.052774 0.005997 0.0
1.051813 0.006424 0.0
1.050745 0.006695 0.0
1.049621 0.006793 0.0
1.048494 0.006711 0.0
1.047414 0.006458 0.0
1.046424 0.006048 0.0
1.045561 0.005502 0.0
1.044855 0.004842 0.0
1.044327 0.004092 0.0
1.043996 0.003279 0.0
1.043874 0.002428 0.0
1.043969 0.001568 0.0
1.044281 0.000729 0.0
1.044808 -0.000055 0.0
1.045536 -0.000747 0.0
1.046445 -0.001307 0.0
1.047502 -0.001691 0.0
1.048658 -0.001857 0.0
1.049849 -0.001763 0.0
1.050989 -0.001387 0.0
1.051980 -0.000728 0.0
1.052724 0.000179 0.0
1.053136 0.001257 0.0
1.053167 0.002400 0.0
1.052813 0.003489 0.0
1.052117 0.004420 0.0
1.051151 0.005120 0.0
1.050004 0.005551 0.0
1.048764 0.005710 0.0
1.047506 0.005618 0.0
1.046293 0.005306 0.0
1.045171 0.004812 0.0
1.044174 0.004178 0.0
1.043330 0.003440 0.0
1.042655 0.002639 0.0
1.042162 0.001813 0.0
1.041854 0.001000 0.0
1.041730 0.000242 0.0
1.041777 -0.000423 0.0
1.041973 -0.000954 0.0
1.042286 -0.001317 0.0
1.042671 -0.001482 0.0
1.043074 -0.001432 0.0
1.043435 -0.001163 0.0
1.043692 -0.000687 0.0
1.043789 -0.000035 0.0
1.043682 0.000749 0.0
1.043342 0.001610 0.0
1.042758 0.002488 0.0
1.041939 0.003326 0.0
1.040911 0.004075 0.0
1.039711 0.004699 0.0
1.038385 0.005173 0.0
1.036980 0.005486 0.0
1.035543 0.005641 0.0
1.034116 0.005646 0.0
1.032738 0.005518 0.0
1.031438 0.005279 0.0
1.030242 0.004954 0.0
1.029166 0.004571 0.0
1.028222 0.004159 0.0
1.027413 0.003748 0.0
1.026737 0.003368 0.0
1.026182 0.003052 0.0
1.025733 0.002833 0.0
1.025361 0.002741 0.0
1.025030 0.002809 0.0
1.024691 0.003062 0.0
1.024288 0.003514 0.0
1.023754 0.004165 0.0
1.023022 0.004992 0.0
1.022037 0.005951 0.0
1.020759 0.006975 0.0
1.019177 0.007986 0.0
1.017308 0.008907 0.0
1.015196 0.009675 0.0
1.012903 0.010245 0.0
1.010495 0.010596 0.0
1.008041 0.010728 0.0
1.005599 0.010653 0.0
1.003218 0.010391 0.0
1.000939 0.009965 0.0
0.998792 0.009401 0.0
0.996804 0.008721 0.0
0.994991 0.007946 0.0
0.993370 0.007098 0.0
0.991951 0.006197 0.0
0.990742 0.005262 0.0
0.989746 0.004317 0.0
0.988964 0.003383 0.0
0.988393 0.002486 0.0
0.988024 0.001656 0.0
0.987840 0.000926 0.0
0.987815 0.000338 0.0
0.987905 -0.000067 0.0
0.988044 -0.000256 0.0
0.988151 -0.000217 0.0
0.988138 0.000024 0.0
0.987938 0.000417 0.0
1.000021 -0.000076 0.0
1.000102 -0.000246 0.0
1.000262 -0.000470 0.0
1.000501 -0.000770 0.0
1.000823 -0.001162 0.0
1.001242 -0.001654 0.0
1.001776 -0.002248 0.0
1.002448 -0.002944 0.0
1.003284 -0.003730 0.0
1.004307 -0.004593 0.0
1.005541 -0.005510 0.0
1.007003 -0.006449 0.0
1.008706 -0.007373 0.0
1.010650 -0.008236 0.0
1.012825 -0.008987 0.0
1.015206 -0.009570 0.0
1.017749 -0.009929 0.0
1.020392 -0.010016 0.0
1.023056 -0.009791 0.0
1.025648 -0.009238 0.0
1.028069 -0.008366 0.0
1.030225 -0.007214 0.0
1.032038 -0.005849 0.0
1.033458 -0.004358 0.0
1.034464 -0.002835 0.0
1.035069 -0.001375 0.0
1.035311 -0.000058 0.0
1.035252 0.001057 0.0
1.034963 0.001930 0.0
1.034518 0.002545 0.0
1.033990 0.002902 0.0
1.033444 0.003016 0.0
1.032937 0.002910 0.0
1.032517 0.002613 0.0
1.032222 0.002159 0.0
1.032081 0.001583 0.0
1.032118 0.000922 0.0
1.032345 0.000214 0.0
1.032769 -0.000504 0.0
1.033391 -0.001191 0.0
1.034202 -0.001808 0.0
1.035187 -0.002310 0.0
1.036317 -0.002654 0.0
1.037552 -0.002793 0.0
1.038833 -0.002685 0.0
1.040081 -0.002301 0.0
1.041205 -0.001634 0.0
1.042106 -0.000714 0.0
1.042699 0.000389 0.0
1.042930 0.001569 0.0
1.042793 0.002706 0.0
1.042327 0.003690 0.0
1.041604 0.004437 0.0
1.040716 0.004904 0.0
1.039753 0.005078 0.0
1.038796 0.004970 0.0
1.037914 0.004604 0.0
1.037161 0.004010 0.0
1.036580 0.003219 0.0
1.036205 0.002262 0.0
1.036066 0.001167 0.0
1.036187 -0.000034 0.0
1.036588 -0.001311 0.0
1.037287 -0.002631 0.0
1.038297 -0.003954 0.0
1.039626 -0.005237 0.0
1.041275 -0.006429 0.0
1.043239 -0.007470 0.0
1.045497 -0.008283 0.0
1.048006 -0.008778 0.0
1.050687 -0.008851 0.0
1.053405 -0.008405 0.0
1.055974 -0.007380 0.0
1.058169 -0.005805 0.0
1.059790 -0.003830 0.0
1.060730 -0.001705 0.0
1.061008 0.000306 0.0
1.060748 0.002015 0.0
1.060116 0.003333 0.0
1.059270 0.004252 0.0
1.058337 0.004813 0.0
1.057406 0.005075 0.0
1.056536 0.005100 0.0
1.055762 0.004942 0.0
1.055109 0.004651 0.0
1.054590 0.004269 0.0
1.054213 0.003834 0.0
1.053979 0.003381 0.0
1.053887 0.002943 0.0
1.053928 0.002553 0.0
1.054089 0.002246 0.0
1.054346 0.002055 0.0
1.054669 0.002011 0.0
1.055013 0.002143 0.0
1.055325 0.002467 0.0
1.055542 0.002984 0.0
1.055599 0.003674 0.0
1.055441 0.004489 0.0
1.055030 0.005363 0.0
1.054354 0.006214 0.0
1.053432 0.006962 0.0
1.052310 0.007542 0.0
1.051050 0.007906 0.0
1.049723 0.008034 0.0
1.048395 0.007924 0.0
1.047129 0.007591 0.0
1.045974 0.007059 0.0
1.044971 0.006357 0.0
1.044151 0.005514 0.0
1.043538 0.004561 0.0
1.043150 0.003529 0.0
1.043001 0.002449 0.0
1.043100 0.001353 0.0
1.043452 0.000279 0.0
1.044057 -0.000736 0.0
1.044908 -0.001645 0.0
1.045987 -0.002398 0.0
1.047266 -0.002936 0.0
1.048694 -0.003197 0.0
1.050197 -0.003117 0.0
1.051669 -0.002645 0.0
1.052975 -0.001767 0.0
1.053969 -0.000519 0.0
1.054522 0.000990 0.0
1.054559 0.002599 0.0
1.054077 0.004126 0.0
1.053145 0.005412 0.0
1.051881 0.006358 0.0
1.050416 0.006924 0.0
1.048870 0.007123 0.0
1.047339 0.006994 0.0
1.045893 0.006589 0.0
1.044582 0.005963 0.0
1.043440 0.005166 0.0
1.042491 0.004246 0.0
1.041753 0.003247 0.0
1.041238 0.002214 0.0
1.040952 0.001193 0.0
1.040895 0.000231 0.0
1.041054 -0.000619 0.0
1.041407 -0.001308 0.0
1.041916 -0.001785 0.0
1.042526 -0.002009 0.0
1.043171 -0.001952 0.0
1.043771 -0.001604 0.0
1.044247 -0.000979 0.0
1.044521 -0.000116 0.0
1.044535 0.000923 0.0
1.044251 0.002061 0.0
1.043657 0.003214 0.0
1.042769 0.004306 0.0
1.041622 0.005269 0.0
1.040271 0.006056 0.0
1.038774 0.006639 0.0
1.037193 0.007006 0.0
1.035588 0.007164 0.0
1.034009 0.007128 0.0
1.032499 0.006923 0.0
1.031095 0.006577 0.0
1.029824 0.006124 0.0
1.028703 0.005598 0.0
1.027747 0.005034 0.0
1.026958 0.004470 0.0
1.026337 0.003944 0.0
1.025873 0.003495 0.0
1.025551 0.003163 0.0
1.025342 0.002992 0.0
1.025208 0.003024 0.0
1.025092 0.003300 0.0
1.024921 0.003849 0.0
1.024609 0.004677 0.0
1.024061 0.005760 0.0
1.023193 0.007037 0.0
1.021948 0.008412 0.0
1.020307 0.009771 0.0
1.018296 0.011001 0.0
1.015980 0.012009 0.0
1.013446 0.012738 0.0
1.010788 0.013168 0.0
1.008092 0.013307 0.0
1.005430 0.013179 0.0
1.002857 0.012818 0.0
1.000413 0.012260 0.0
0.998130 0.011536 0.0
0.996028 0.010676 0.0
0.994126 0.009705 0.0
0.992438 0.008648 0.0
0.990974 0.007529 0.0
0.989742 0.006371 0.0
0.988748 0.005199 0.0
0.987993 0.004038 0.0
0.987479 0.002917 0.0
0.987201 0.001871 0.0
0.987153 0.000943 0.0
0.987312 0.000188 0.0
0.987633 -0.000328 0.0
0.988036 -0.000538 0.0
0.988401 -0.000406 0.0
0.988585 0.000042 0.0
0.988459 0.000726 0.0
1.000012 -0.000108 0.0
1.000058 -0.000342 0.0
1.000154 -0.000630 0.0
1.000305 -0.001000 0.0
1.000525 -0.001474 0.0
1.000833 -0.002068 0.0
1.001254 -0.002789 0.0
1.001818 -0.003639 0.0
1.002557 -0.004610 0.0
1.003505 -0.005685 0.0
1.004692 -0.006839 0.0
1.006145 -0.008035 0.0
1.007884 -0.009229 0.0
1.009921 -0.010361 0.0
1.012249 -0.011366 0.0
1.014848 -0.012170 0.0
1.017671 -0.012695 0.0
1.020647 -0.012869 0.0
1.023677 -0.012632 0.0
1.026642 -0.011953 0.0
1.029409 -0.010839 0.0
1.031851 -0.009339 0.0