# vtk DataFile Version 3.0
Scalar Field
ASCII
DATASET RECTILINEAR_GRID
DIMENSIONS 100 20 1
X_COORDINATES 100 double
0.050000 0.150000 0.250000 0.350000 0.450000 0.550000 0.650000 0.750000 0.850000 0.950000 1.050000 1.150000 1.250000 1.350000 1.450000 1.550000 1.650000 1.750000 1.850000 1.950000 2.050000 2.150000 2.250000 2.350000 2.450000 2.550000 2.650000 2.750000 2.850000 2.950000 3.050000 3.150000 3.250000 3.350000 3.450000 3.550000 3.650000 3.750000 3.850000 3.950000 4.050000 4.150000 4.250000 4.350000 4.450000 4.550000 4.650000 4.750000 4.850000 4.950000 5.050000 5.150000 5.250000 5.350000 5.450000 5.550000 5.650000 5.750000 5.850000 5.950000 6.050000 6.150000 6.250000 6.350000 6.450000 6.550000 6.650000 6.750000 6.850000 6.950000 7.050000 7.150000 7.250000 7.350000 7.450000 7.550000 7.650000 7.750000 7.850000 7.950000 8.050000 8.150000 8.250000 8.350000 8.450000 8.550000 8.650000 8.750000 8.850000 8.950000 9.050000 9.150000 9.250000 9.350000 9.450000 9.550000 9.650000 9.750000 9.850000 9.950000 
Y_COORDINATES 20 double
0.050000 0.150000 0.250000 0.350000 0.450000 0.550000 0.650000 0.750000 0.850000 0.950000 1.050000 1.150000 1.250000 1.350000 1.450000 1.550000 1.650000 1.750000 1.850000 1.950000 
Z_COORDINATES 1 double
0.0
POINT_DATA 2000
SCALARS Skalarfeld double 1
LOOKUP_TABLE default
0.000000
0.000000
0.000000
0.000000
0.000000
0.000000
0.000000
0.000000
0.000000
-0.131849
-0.131849
-0.132393
-0.132837
-0.132982
-0.132801
-0.132310
-0.131519
-0.130420
-0.128988
-0.127185
-0.124954
-0.122220
-0.118888
-0.114854
-0.110008
-0.104256
-0.097538
-0.089834
-0.081182
-0.071668
-0.061431
-0.050699
-0.039661
-0.028519
-0.017461
-0.006658
0.003726
0.013551
0.022713
0.031147
0.038795
0.045614
0.051620
0.056810
0.061196
0.064831
0.067744
0.070001
0.071662
0.072789
0.073440
0.073670
0.073528
0.073061
0.072310
0.071312
0.070099
0.068704
0.067153
0.065475
0.063695
0.061836
0.059917
0.057954
0.055958
0.053929
0.051868
0.049773
0.047645
0.045485
0.043294
0.041076
0.038835
0.036574
0.034300
0.032018
0.029734
0.027456
0.025190
0.022941
0.020717
0.018524
0.016365
0.014245
0.012168
0.010137
0.008151
0.006213
0.004321
0.002475
0.000672
-0.001090
-0.002813
-0.004501
-0.006157
-0.007786
-0.009392
-0.010979
-0.012553
-0.014113
0.000000
0.000000
0.000000
0.000000
0.000000
0.000000
0.000000
0.000000
0.000000
-0.131305
-0.131305
-0.131894
-0.132234
-0.132301
-0.132091
-0.131602
-0.130822
-0.129734
-0.128312
-0.126523
-0.124319
-0.121635
-0.118388
-0.114475
-0.109787
-0.104220
-0.097697
-0.090188
-0.081714
-0.072366
-0.062308
-0.051694
-0.040745
-0.029674
-0.018671
-0.007900
0.002471
0.012297
0.021467
0.029929
0.037625
0.044477
0.050558
0.055844
0.060306
0.064005
0.066989
0.069316
0.071047
0.072241
0.072958
0.073250
0.073169
0.072759
0.072062
0.071114
0.069948
0.068593
0.067079
0.065431
0.063675
0.061835
0.059930
0.057981
0.055999
0.053983
0.051933
0.049847
0.047727
0.045573
0.043388
0.041174
0.038935
0.036675
0.034401
0.032117
0.029831
0.027549
0.025277
0.023023
0.020793
0.018592
0.016426
0.014299
0.012215
0.010177
0.008185
0.006241
0.004344
0.002493
0.000687
-0.001077
-0.002802
-0.004490
-0.006147
-0.007775
-0.009379
-0.010964
-0.012535
-0.014092
0.000000
0.000000
0.000000
0.000000
0.000000
0.000000
0.000000
0.000000
0.000000
-0.130975
-0.130975
-0.131766
-0.132115
-0.132154
-0.131930
-0.131443
-0.130676
-0.129609
-0.128220
-0.126485
-0.124370
-0.121824
-0.118767
-0.115094
-0.110667
-0.105357
-0.099051
-0.091706
-0.083343
-0.074017
-0.063920
-0.053262
-0.042259
-0.031138
-0.020095
-0.009258
0.001188
0.011077
0.020275
0.028815
0.036637
0.043603
0.049747
0.055076
0.059597
0.063352
0.066393
0.068776
0.070561
0.071808
0.072575
0.072916
0.072882
0.072518
0.071865
0.070958
0.069830
0.068508
0.067022
0.065397
0.063660
0.061836
0.059946
0.058021
0.056058
0.054056
0.052018
0.049942
0.047829
0.045681
0.043498
0.041285
0.039045
0.036782
0.034503
0.032212
0.029918
0.027626
0.025344
0.023080
0.020838
0.018627
0.016451
0.014314
0.012222
0.010175
0.008177
0.006227
0.004327
0.002473
0.000666
-0.001098
-0.002822
-0.004508
-0.006161
-0.007785
-0.009383
-0.010959
-0.012519
-0.014069
0.000000
0.000000
0.000000
0.000000
0.000000
0.000000
0.000000
0.000000
0.000000
-0.131436
-0.131436
-0.132399
-0.132769
-0.132786
-0.132534
-0.132022
-0.131239
-0.130169
-0.128800
-0.127122
-0.125120
-0.122758
-0.119960
-0.116603
-0.112489
-0.107465
-0.101343
-0.094002
-0.085494
-0.076057
-0.065844
-0.055080
-0.043974
-0.032781
-0.021717
-0.010757
-0.000204
0.009772
0.019096
0.027719
0.035579
0.042613
0.048817
0.054197
0.058773
0.062585
0.065682
0.068120
0.069961
0.071263
0.072084
0.072478
0.072497
0.072184
0.071580
0.070719
0.069633
0.068349
0.066894
0.065298
0.063587
0.061788
0.059938
0.058046
0.056108
0.054128
0.052105
0.050042
0.047938
0.045795
0.043615
0.041400
0.039157
0.036888
0.034600
0.032299
0.029993
0.027688
0.025393
0.023114
0.020859
0.018634
0.016445
0.014297
0.012195
0.010140
0.008135
0.006181
0.004277
0.002422
0.000615
-0.001148
-0.002869
-0.004552
-0.006199
-0.007815
-0.009404
-0.010967
-0.012507
-0.014050
0.000000
0.000000
0.000000
0.000000
0.000000
0.000000
0.000000
0.000000
0.000000
-0.133150
-0.133150
-0.134152
-0.134426
-0.134316
-0.133937
-0.133311
-0.132434
-0.131297
-0.129893
-0.128226
-0.126306
-0.124108
-0.121554
-0.118514
-0.114635
-0.109850
-0.103482
-0.095902
-0.087347
-0.077829
-0.067506
-0.056697
-0.045585
-0.034333
-0.023153
-0.012179
-0.001609
0.008406
0.017772
0.026422
0.034298
0.041359
0.047592
0.053006
0.057624
0.061484
0.064636
0.067134
0.069038
0.070406
0.071296
0.071760
0.071848
0.071605
0.071068
0.070270
0.069242
0.068012
0.066606
0.065056
0.063392
0.061653
0.059872
0.058026
0.056125
0.054174
0.052175
0.050129
0.048037
0.045902
0.043726
0.041511
0.039264
0.036988
0.034690
0.032378
0.030058
0.027738
0.025427
0.023132
0.020861
0.018621
0.016419
0.014259
0.012145
0.010082
0.008070
0.006110
0.004203
0.002347
0.000540
-0.001221
-0.002939
-0.004617
-0.006259
-0.007867
-0.009445
-0.010993
-0.012511
-0.014051
0.000000
0.000000
0.000000
0.000000
0.000000
0.000000
0.000000
0.000000
0.000000
-0.136506
-0.136506
-0.137260
-0.137109
-0.136592
-0.135880
-0.134992
-0.133915
-0.132636
-0.131127
-0.129391
-0.127480
-0.125359
-0.122921
-0.120147
-0.116227
-0.110912
-0.104539
-0.096963
-0.088346
-0.078807
-0.068527
-0.057744
-0.046660
-0.035460
-0.024334
-0.013446
-0.002963
0.006977
0.016276
0.024862
0.032682
0.039702
0.045912
0.051320
0.055951
0.059843
0.063042
0.065602
0.067579
0.069031
0.070011
0.070572
0.070759
0.070615
0.070176
0.069472
0.068532
0.067384
0.066056
0.064585
0.063028
0.061413
0.059708
0.057927
0.056080
0.054172
0.052207
0.050187
0.048116
0.045994
0.043825
0.041613
0.039364
0.037082
0.034776
0.032452
0.030118
0.027784
0.025457
0.023145
0.020858
0.018603
0.016386
0.014213
0.012088
0.010014
0.007995
0.006029
0.004118
0.002259
0.000451
-0.001310
-0.003027
-0.004703
-0.006341
-0.007944
-0.009513
-0.011049
-0.012548
-0.014093
0.000000
0.000000
0.000000
0.000000
0.000000
0.000000
0.000000
0.000000
0.000000
-0.142041
-0.142041
-0.141826
-0.140523
-0.139123
-0.137808
-0.136512
-0.135163
-0.133719
-0.132057
-0.130192
-0.128307
-0.126214
-0.123656
-0.120233
-0.116025
-0.110710
-0.104285
-0.096738
-0.088176
-0.078740
-0.068611
-0.057998
-0.047101
-0.036110
-0.025205
-0.014552
-0.004300
0.005425
0.014525
0.022931
0.030595
0.037488
0.043603
0.048949
0.053552
0.057447
0.060680
0.063301
0.065362
0.066917
0.068017
0.068710
0.069037
0.069036
0.068739
0.068173
0.067366
0.066348
0.065143
0.063871
0.062497
0.061002
0.059402
0.057712
0.055941
0.054096
0.052183
0.050204
0.048163
0.046064
0.043910
0.041707
0.039461
0.037178
0.034866
0.032534
0.030188
0.027840
0.025499
0.023172
0.020869
0.018598
0.016366
0.014179
0.012042
0.009958
0.007929
0.005955
0.004037
0.002173
0.000359
-0.001406
-0.003126
-0.004804
-0.006445
-0.008049
-0.009618
-0.011151
-0.012644
-0.014206
0.000000
0.000000
0.000000
0.000000
0.000000
0.000000
0.000000
0.000000
0.000000
-0.151029
-0.151029
-0.147753
-0.143884
-0.141019
-0.139062
-0.137346
-0.135644
-0.134123
-0.132373
-0.130369
-0.128076
-0.125509
-0.122622
-0.119042
-0.114637
-0.109235
-0.102788
-0.095311
-0.086893
-0.077672
-0.067818
-0.057523
-0.046977
-0.036361
-0.025845
-0.015586
-0.005721
0.003638
0.012400
0.020501
0.027899
0.034571
0.040511
0.045732
0.050257
0.054123
0.057370
0.060047
0.062201
0.063881
0.065133
0.065998
0.066513
0.066709
0.066611
0.066240
0.065624
0.064818
0.063944
0.062897
0.061699
0.060365
0.058910
0.057346
0.055684
0.053930
0.052092
0.050174
0.048181
0.046118
0.043991
0.041807
0.039572
0.037294
0.034982
0.032645
0.030292
0.027934
0.025579
0.023239
0.020921
0.018635
0.016388
0.014186
0.012035
0.009937
0.007894
0.005909
0.003979
0.002103
0.000279
-0.001497
-0.003229
-0.004920
-0.006572
-0.008190
-0.009772
-0.011319
-0.012825
-0.014418
0.000000
0.000000
0.000000
0.000000
0.000000
0.000000
0.000000
0.000000
0.000000
-0.166664
-0.166664
-0.154264
-0.145811
-0.141099
-0.138900
-0.136810
-0.135031
-0.133044
-0.130986
-0.128855
-0.126455
-0.123731
-0.120573
-0.116771
-0.112181
-0.106687
-0.100250
-0.092892
-0.084699
-0.075795
-0.066338
-0.056500
-0.046453
-0.036367
-0.026396
-0.016683
-0.007348
0.001506
0.009801
0.017481
0.024509
0.030869
0.036558
0.041590
0.045989
0.049790
0.053031
0.055757
0.058010
0.059834
0.061269
0.062349
0.063105
0.063558
0.063725
0.063619
0.063343
0.062947
0.062341
0.061547
0.060584
0.059465
0.058205
0.056813
0.055300
0.053674
0.051942
0.050111
0.048189
0.046182
0.044097
0.041944
0.039731
0.037466
0.035161
0.032824
0.030468
0.028102
0.025737
0.023384
0.021052
0.018750
0.016486
0.014267
0.012097
0.009980
0.007919
0.005914
0.003964
0.002068
0.000222
-0.001576
-0.003331
-0.005047
-0.006727
-0.008374
-0.009990
-0.011575
-0.013124
-0.014758
0.389965
0.262501
0.182390
0.120823
0.068104
0.020427
-0.024292
-0.067965
-0.113693
-0.177433
-0.194305
-0.156985
-0.144066
-0.139056
-0.135930
-0.134092
-0.132398
-0.130556
-0.128553
-0.126346
-0.123836
-0.120942
-0.117559
-0.113554
-0.108817
-0.103273
-0.096902
-0.089735
-0.081850
-0.073363
-0.064412
-0.055149
-0.045729
-0.036300
-0.027002
-0.017957
-0.009271
-0.001032
0.006693
0.013858
0.020434
0.026408
0.031784
0.036576
0.040809
0.044516
0.047732
0.050498
0.052855
0.054838
0.056484
0.057820
0.058868
0.059639
0.060140
0.060473
0.060636
0.060571
0.060292
0.059814
0.059148
0.058306
0.057296
0.056129
0.054812
0.053356
0.051767
0.050056
0.048231
0.046302
0.044278
0.042171
0.039990
0.037748
0.035456
0.033125
0.030768
0.028396
0.026021
0.023655
0.021306
0.018985
0.016699
0.014456
0.012261
0.010117
0.008027
0.005991
0.004009
0.002079
0.000198
-0.001638
-0.003432
-0.005190
-0.006916
-0.008613
-0.010286
-0.011937
-0.013566
-0.015251
0.389965
0.262501
0.182390
0.120823
0.068104
0.020427
-0.024292
-0.067965
-0.113693
-0.160560
-0.166237
-0.151492
-0.141377
-0.135937
-0.132758
-0.130704
-0.128958
-0.127154
-0.125159
-0.122894
-0.120279
-0.117239
-0.113692
-0.109550
-0.104743
-0.099228
-0.093006
-0.086113
-0.078623
-0.070640
-0.062285
-0.053689
-0.044986
-0.036305
-0.027764
-0.019468
-0.011508
-0.003954
0.003137
0.009730
0.015803
0.021349
0.026374
0.030894
0.034936
0.038528
0.041707
0.044509
0.046971
0.049126
0.051003
0.052626
0.054009
0.055155
0.056118
0.056895
0.057440
0.057762
0.057869
0.057765
0.057456
0.056947
0.056244
0.055353
0.054281
0.053037
0.051630
0.050072
0.048372
0.046544
0.044599
0.042552
0.040415
0.038203
0.035929
0.033606
0.031249
0.028870
0.026482
0.024096
0.021725
0.019377
0.017062
0.014785
0.012553
0.010369
0.008236
0.006154
0.004123
0.002142
0.000208
-0.001684
-0.003537
-0.005357
-0.007149
-0.008919
-0.010673
-0.012419
-0.014161
-0.015906
0.262893
0.221906
0.170119
0.119235
0.071160
0.025783
-0.017400
-0.058724
-0.096366
-0.126699
-0.138171
-0.136520
-0.132639
-0.129592
-0.127449
-0.125825
-0.124318
-0.122680
-0.120779
-0.118539
-0.115898
-0.112799
-0.109188
-0.105015
-0.100242
-0.094856
-0.088871
-0.082332
-0.075309
-0.067892
-0.060188
-0.052309
-0.044368
-0.036473
-0.028724
-0.021207
-0.013995
-0.007147
-0.000706
0.005302
0.010861
0.015970
0.020638
0.024882
0.028726
0.032201
0.035339
0.038175
0.040742
0.043072
0.045192
0.047120
0.048869
0.050437
0.051819
0.052989
0.053949
0.054698
0.055232
0.055547
0.055641
0.055511
0.055158
0.054584
0.053796
0.052800
0.051608
0.050229
0.048679
0.046971
0.045121
0.043145
0.041060
0.038882
0.036627
0.034312
0.031951
0.029559
0.027150
0.024738
0.022334
0.019948
0.017589
0.015265
0.012980
0.010740
0.008546
0.006399
0.004300
0.002248
0.000240
-0.001727
-0.003658
-0.005558
-0.007436
-0.009297
-0.011152
-0.013014
-0.014897
-0.016711
0.201796
0.186307
0.154755
0.116630
0.076351
0.036073
-0.002970
-0.039574
-0.071450
-0.096372
-0.111095
-0.117267
-0.119311
-0.119794
-0.119679
-0.119224
-0.118431
-0.117251
-0.115644
-0.113583
-0.111045
-0.108007
-0.104447
-0.100351
-0.095710
-0.090535
-0.084855
-0.078720
-0.072197
-0.065367
-0.058323
-0.051159
-0.043970
-0.036845
-0.029864
-0.023098
-0.016605
-0.010430
-0.004604
0.000853
0.005932
0.010635
0.014972
0.018963
0.022629
0.025998
0.029103
0.031975
0.034647
0.037148
0.039504
0.041735
0.043845
0.045747
0.047489
0.049059
0.050446
0.051637
0.052616
0.053369
0.053886
0.054157
0.054176
0.053942
0.053458
0.052731
0.051769
0.050587
0.049199
0.047622
0.045874
0.043975
0.041944
0.039799
0.037561
0.035247
0.032875
0.030461
0.028021
0.025570
0.023120
0.020681
0.018264
0.015876
0.013523
0.011208
0.008934
0.006704
0.004516
0.002375
0.000276
-0.001784
-0.003809
-0.005805
-0.007781
-0.009744
-0.011709
-0.013695
-0.015725
-0.017615
0.173930
0.165982
0.144672
0.115233
0.081535
0.046296
0.011499
-0.021186
-0.049907
-0.073057
-0.089422
-0.099662
-0.105713
-0.109223
-0.111180
-0.112095
-0.112207
-0.111632
-0.110433
-0.108645
-0.106294
-0.103396
-0.099964
-0.096013
-0.091562
-0.086641
-0.081291
-0.075567
-0.069534
-0.063266
-0.056842
-0.050341
-0.043842
-0.037416
-0.031128
-0.025033
-0.019176
-0.013589
-0.008298
-0.003314
0.001358
0.005723
0.009790
0.013577
0.017104
0.020398
0.023487
0.026401
0.029173
0.031832
0.034407
0.036922
0.039220
0.041421
0.043508
0.045462
0.047260
0.048875
0.050283
0.051461
0.052389
0.053050
0.053433
0.053532
0.053348
0.052885
0.052152
0.051163
0.049935
0.048486
0.046837
0.045010
0.043027
0.040910
0.038680
0.036358
0.033964
0.031517
0.029034
0.026531
0.024022
0.021518
0.019029
0.016563
0.014126
0.011722
0.009355
0.007026
0.004740
0.002495
0.000290
-0.001875
-0.004005
-0.006104
-0.008179
-0.010239
-0.012305
-0.014404
-0.016566
-0.018532
0.163969
0.158291
0.141335
0.116310
0.086414
0.054326
0.022272
-0.007870
-0.034548
-0.056690
-0.073715
-0.085935
-0.094319
-0.099897
-0.103467
-0.105562
-0.106513
-0.106530
-0.105745
-0.104252
-0.102118
-0.099394
-0.096124
-0.092348
-0.088108
-0.083448
-0.078420
-0.073081
-0.067493
-0.061723
-0.055840
-0.049909
-0.043995
-0.038156
-0.032441
-0.026893
-0.021547
-0.016428
-0.011551
-0.006927
-0.002557
0.001564
0.005444
0.009098
0.012543
0.015801
0.018898
0.021863
0.024727
0.027525
0.030293
0.032883
0.035384
0.037849
0.040243
0.042535
0.044692
0.046680
0.048466
0.050018
0.051308
0.052314
0.053019
0.053414
0.053496
0.053267
0.052737
0.051919
0.050831
0.049492
0.047927
0.046157
0.044209
0.042106
0.039873
0.037532
0.035105
0.032613
0.030076
0.027511
0.024933
0.022355
0.019788
0.017237
0.014714
0.012209
0.009736
0.007304
0.004915
0.002569
0.000265
-0.001999
-0.004225
-0.006418
-0.008585
-0.010735
-0.012881
-0.015065
-0.017320
-0.019356
0.166724
0.161104
0.144399
0.119869
0.090784
0.059895
0.029337
0.000763
-0.024611
-0.046021
-0.063164
-0.076248
-0.085856
-0.092678
-0.097330
-0.100289
-0.101899
-0.102405
-0.101982
-0.100759
-0.098834
-0.096288
-0.093187
-0.089592
-0.085559
-0.081143
-0.076402
-0.071395
-0.066180
-0.060819
-0.055368
-0.049886
-0.044422
-0.039025
-0.033734
-0.028583
-0.023598
-0.018798
-0.014197
-0.009802
-0.005614
-0.001632
0.002153
0.005750
0.009173
0.012439
0.015570
0.018594
0.021542
0.024458
0.027245
0.029923
0.032620
0.035305
0.037943
0.040500
0.042938
0.045217
0.047297
0.049140
0.050714
0.051990
0.052948
0.053574
0.053863
0.053817
0.053443
0.052756
0.051772
0.050514
0.049006
0.047273
0.045341
0.043237
0.040987
0.038615
0.036146
0.033603
0.031006
0.028376
0.025728
0.023078
0.020437
0.017797
0.015165
0.012571
0.010014
0.007498
0.005025
0.002595
0.000210
-0.002132
-0.004435
-0.006701
-0.008939
-0.011157
-0.013364
-0.015597
-0.017894
-0.019986
0.182094
0.174426
0.154097
0.126433
0.095378
0.063677
0.033220
0.005293
-0.019279
-0.040071
-0.057006
-0.070315
-0.080441
-0.087898
-0.093175
-0.096681
-0.098739
-0.099598
-0.099450
-0.098443
-0.096696
-0.094308
-0.091360
-0.087926
-0.084072
-0.079860
-0.075349
-0.070598
-0.065661
-0.060594
-0.055447
-0.050270
-0.045104
-0.039991
-0.034963
-0.030048
-0.025269
-0.020642
-0.016180
-0.011889
-0.007774
-0.003832
-0.000061
0.003545
0.006997
0.010308
0.013494
0.016583
0.019609
0.022533
0.025331
0.028166
0.031015
0.033856
0.036662
0.039397
0.042022
0.044495
0.046770
0.048808
0.050569
0.052024
0.053149
0.053927
0.054352
0.054423
0.054148
0.053540
0.052618
0.051404
0.049923
0.048201
0.046267
0.044147
0.041870
0.039461
0.036947
0.034352
0.031698
0.029008
0.026300
0.023590
0.020854
0.018137
0.015449
0.012795
0.010179
0.007604
0.005074
0.002589
0.000150
-0.002245
-0.004597
-0.006910
-0.009192
-0.011450
-0.013696
-0.015946
-0.018237
-0.020364
0.214804
0.199841
0.170075
0.135079
0.099381
0.065255
0.033936
0.006100
-0.017938
-0.038134
-0.054649
-0.067800
-0.077994
-0.085662
-0.091208
-0.094987
-0.097290
-0.098356
-0.098379
-0.097513
-0.095889
-0.093613
-0.090777
-0.087459
-0.083730
-0.079654
-0.075292
-0.070698
-0.065927
-0.061027
-0.056046
-0.051028
-0.046010
-0.041029
-0.036116
-0.031294
-0.026587
-0.022011
-0.017578
-0.013295
-0.009169
-0.005200
-0.001388
0.002272
0.005785
0.009163
0.012419
0.015578
0.018629
0.021558
0.024496
0.027443
0.030392
0.033332
0.036236
0.039073
0.041803
0.044380
0.046760
0.048898
0.050757
0.052303
0.053510
0.054362
0.054850
0.054974
0.054740
0.054163
0.053260
0.052054
0.050572
0.048840
0.046887
0.044742
0.042433
0.039988
0.037434
0.034794
0.032095
0.029360
0.026601
0.023814
0.021044
0.018296
0.015576
0.012890
0.010243
0.007639
0.005080
0.002568
0.000103
-0.002316
-0.004691
-0.007026
-0.009328
-0.011603
-0.013863
-0.016109
-0.018366
-0.020514
0.279644
0.239460
0.190195
0.143553
0.101571
0.064422
0.031986
0.004082
-0.019536
-0.039185
-0.055230
-0.068071
-0.078116
-0.085755
-0.091343
-0.095194
-0.097577
-0.098717
-0.098804
-0.097994
-0.096419
-0.094189
-0.091398
-0.088126
-0.084446
-0.080421
-0.076112
-0.071571
-0.066851
-0.061999
-0.057060
-0.052075
-0.047083
-0.042115
-0.037204
-0.032374
-0.027647
-0.023040
-0.018566
-0.014235
-0.010052
-0.006020
-0.002140
0.001592
0.005180
0.008633
0.011965
0.015173
0.018269
0.021325
0.024360
0.027388
0.030409
0.033414
0.036379
0.039272
0.042052
0.044676
0.047097
0.049272
0.051161
0.052732
0.053958
0.054822
0.055316
0.055440
0.055201
0.054613
0.053694
0.052469
0.050963
0.049204
0.047223
0.045047
0.042707
0.040230
0.037643
0.034971
0.032239
0.029468
0.026666
0.023867
0.021082
0.018320
0.015586
0.012889
0.010232
0.007620
0.005054
0.002537
0.000068
-0.002355
-0.004733
-0.007071
-0.009374
-0.011650
-0.013908
-0.016141
-0.018362
-0.020531
0.408534
0.281964
0.204575
0.147516
0.101231
0.062266
0.029173
0.001174
-0.022292
-0.041711
-0.057541
-0.070216
-0.080147
-0.087711
-0.093247
-0.097057
-0.099400
-0.100501
-0.100546
-0.099693
-0.098074
-0.095801
-0.092967
-0.089656
-0.085937
-0.081874
-0.077527
-0.072948
-0.068188
-0.063293
-0.058308
-0.053273
-0.048226
-0.043201
-0.038228
-0.033332
-0.028537
-0.023859
-0.019313
-0.014908
-0.010652
-0.006547
-0.002594
0.001211
0.004874
0.008401
0.011799
0.015083
0.018278
0.021420
0.024534
0.027636
0.030727
0.033795
0.036817
0.039759
0.042580
0.045235
0.047678
0.049865
0.051757
0.053322
0.054534
0.055378
0.055846
0.055938
0.055662
0.055035
0.054075
0.052806
0.051257
0.049456
0.047433
0.045219
0.042842
0.040331
0.037714
0.035016
0.032259
0.029458
0.026645
0.023833
0.021037
0.018265
0.015525
0.012824
0.010165
0.007554
0.004991
0.002478
0.000016
-0.002399
-0.004768
-0.007096
-0.009389
-0.011654
-0.013900
-0.016121
-0.018323
-0.020501
