# vtk DataFile Version 3.0
Vector Field
ASCII
DATASET RECTILINEAR_GRID
DIMENSIONS 100 20 1
X_COORDINATES 100 double
0.050000 0.150000 0.250000 0.350000 0.450000 0.550000 0.650000 0.750000 0.850000 0.950000 1.050000 1.150000 1.250000 1.350000 1.450000 1.550000 1.650000 1.750000 1.850000 1.950000 2.050000 2.150000 2.250000 2.350000 2.450000 2.550000 2.650000 2.750000 2.850000 2.950000 3.050000 3.150000 3.250000 3.350000 3.450000 3.550000 3.650000 3.750000 3.850000 3.950000 4.050000 4.150000 4.250000 4.350000 4.450000 4.550000 4.650000 4.750000 4.850000 4.950000 5.050000 5.150000 5.250000 5.350000 5.450000 5.550000 5.650000 5.750000 5.850000 5.950000 6.050000 6.150000 6.250000 6.350000 6.450000 6.550000 6.650000 6.750000 6.850000 6.950000 7.050000 7.150000 7.250000 7.350000 7.450000 7.550000 7.650000 7.750000 7.850000 7.950000 8.050000 8.150000 8.250000 8.350000 8.450000 8.550000 8.650000 8.750000 8.850000 8.950000 9.050000 9.150000 9.250000 9.350000 9.450000 9.550000 9.650000 9.750000 9.850000 9.950000 
Y_COORDINATES 20 double
0.050000 0.150000 0.250000 0.350000 0.450000 0.550000 0.650000 0.750000 0.850000 0.950000 1.050000 1.150000 1.250000 1.350000 1.450000 1.550000 1.650000 1.750000 1.850000 1.950000 
Z_COORDINATES 1 double
0.0
POINT_DATA 2000
VECTORS Vektorfeld double
0.500000 0.000000 0.0
0.000000 0.000000 0.0
0.000000 0.000000 0.0
0.000000 0.000000 0.0
0.000000 0.000000 0.0
0.000000 0.000000 0.0
0.000000 0.000000 0.0
0.000000 0.000000 0.0
0.000000 0.000000 0.0
0.000000 -0.000113 0.0
-0.000189 0.000189 0.0
-0.001946 0.001569 0.0
-0.005907 0.002393 0.0
-0.010991 0.002691 0.0
-0.016423 0.002741 0.0
-0.021889 0.002725 0.0
-0.027339 0.002725 0.0
-0.032827 0.002763 0.0
-0.038427 0.002837 0.0
-0.044198 0.002934 0.0
-0.050166 0.003034 0.0
-0.056307 0.003107 0.0
-0.062529 0.003116 0.0
-0.068670 0.003025 0.0
-0.074500 0.002805 0.0
-0.079754 0.002449 0.0
-0.084168 0.001966 0.0
-0.087511 0.001376 0.0
-0.089598 0.000711 0.0
-0.090328 0.000020 0.0
-0.089673 -0.000675 0.0
-0.087644 -0.001354 0.0
-0.084316 -0.001974 0.0
-0.079825 -0.002517 0.0
-0.074318 -0.002990 0.0
-0.067939 -0.003389 0.0
-0.060856 -0.003693 0.0
-0.053269 -0.003894 0.0
-0.045364 -0.004011 0.0
-0.037246 -0.004108 0.0
-0.029020 -0.004119 0.0
-0.020860 -0.004041 0.0
-0.012865 -0.003954 0.0
-0.005097 -0.003814 0.0
0.002342 -0.003625 0.0
0.009364 -0.003398 0.0
0.015924 -0.003163 0.0
0.022012 -0.002926 0.0
0.027628 -0.002689 0.0
0.032774 -0.002457 0.0
0.037461 -0.002230 0.0
0.041704 -0.002013 0.0
0.045522 -0.001805 0.0
0.048937 -0.001610 0.0
0.051974 -0.001427 0.0
0.054659 -0.001258 0.0
0.057019 -0.001102 0.0
0.059080 -0.000960 0.0
0.060870 -0.000831 0.0
0.062415 -0.000714 0.0
0.063740 -0.000610 0.0
0.064869 -0.000518 0.0
0.065823 -0.000437 0.0
0.066625 -0.000365 0.0
0.067293 -0.000303 0.0
0.067844 -0.000249 0.0
0.068296 -0.000203 0.0
0.068662 -0.000163 0.0
0.068955 -0.000130 0.0
0.069188 -0.000102 0.0
0.069370 -0.000080 0.0
0.069510 -0.000061 0.0
0.069617 -0.000046 0.0
0.069697 -0.000034 0.0
0.069757 -0.000025 0.0
0.069801 -0.000019 0.0
0.069835 -0.000014 0.0
0.069861 -0.000012 0.0
0.069882 -0.000010 0.0
0.069902 -0.000010 0.0
0.069923 -0.000011 0.0
0.069945 -0.000012 0.0
0.069971 -0.000014 0.0
0.070001 -0.000016 0.0
0.070037 -0.000019 0.0
0.070077 -0.000022 0.0
0.070124 -0.000024 0.0
0.070175 -0.000027 0.0
0.070232 -0.000030 0.0
0.070293 -0.000032 0.0
0.070358 -0.000033 0.0
0.070425 -0.000034 0.0
0.070493 -0.000034 0.0
0.070561 -0.000033 0.0
0.070625 -0.000031 0.0
0.070683 -0.000027 0.0
0.070731 -0.000021 0.0
0.070766 -0.000014 0.0
0.070786 -0.000006 0.0
0.070791 0.000000 0.0
0.500000 0.000000 0.0
0.000000 0.000000 0.0
0.000000 0.000000 0.0
0.000000 0.000000 0.0
0.000000 0.000000 0.0
0.000000 0.000000 0.0
0.000000 0.000000 0.0
0.000000 0.000000 0.0
0.000000 0.000000 0.0
0.000000 -0.000182 0.0
-0.001949 0.002327 0.0
-0.008563 0.007802 0.0
-0.019277 0.010835 0.0
-0.031845 0.011901 0.0
-0.044901 0.012019 0.0
-0.057845 0.011857 0.0
-0.070519 0.011718 0.0
-0.082956 0.011695 0.0
-0.095231 0.011779 0.0
-0.107385 0.011917 0.0
-0.119386 0.012020 0.0
-0.131098 0.011973 0.0
-0.142266 0.011640 0.0
-0.152516 0.010892 0.0
-0.161391 0.009643 0.0
-0.168414 0.007888 0.0
-0.173168 0.005695 0.0
-0.175336 0.003158 0.0
-0.174720 0.000400 0.0
-0.171245 -0.002413 0.0
-0.165022 -0.005119 0.0
-0.156346 -0.007616 0.0
-0.145576 -0.009812 0.0
-0.133061 -0.011686 0.0
-0.119104 -0.013284 0.0
-0.103964 -0.014613 0.0
-0.087915 -0.015601 0.0
-0.071257 -0.016232 0.0
-0.054277 -0.016558 0.0
-0.037151 -0.016805 0.0
-0.020032 -0.016766 0.0
-0.003098 -0.016487 0.0
0.013401 -0.016002 0.0
0.029227 -0.015361 0.0
0.044315 -0.014604 0.0
0.058634 -0.013759 0.0
0.072151 -0.012877 0.0
0.084830 -0.011979 0.0
0.096656 -0.011077 0.0
0.107625 -0.010184 0.0
0.117745 -0.009310 0.0
0.127032 -0.008464 0.0
0.135512 -0.007652 0.0
0.143215 -0.006881 0.0
0.150177 -0.006155 0.0
0.156438 -0.005475 0.0
0.162039 -0.004845 0.0
0.167024 -0.004264 0.0
0.171440 -0.003732 0.0
0.175329 -0.003248 0.0
0.178737 -0.002810 0.0
0.181708 -0.002417 0.0
0.184283 -0.002067 0.0
0.186502 -0.001756 0.0
0.188404 -0.001482 0.0
0.190024 -0.001242 0.0
0.191396 -0.001033 0.0
0.192549 -0.000853 0.0
0.193514 -0.000698 0.0
0.194315 -0.000568 0.0
0.194976 -0.000457 0.0
0.195518 -0.000366 0.0
0.195961 -0.000291 0.0
0.196320 -0.000230 0.0
0.196612 -0.000182 0.0
0.196849 -0.000144 0.0
0.197043 -0.000116 0.0
0.197204 -0.000096 0.0
0.197340 -0.000083 0.0
0.197459 -0.000076 0.0
0.197566 -0.000073 0.0
0.197668 -0.000074 0.0
0.197768 -0.000078 0.0
0.197869 -0.000084 0.0
0.197975 -0.000092 0.0
0.198087 -0.000101 0.0
0.198207 -0.000111 0.0
0.198334 -0.000120 0.0
0.198471 -0.000129 0.0
0.198615 -0.000137 0.0
0.198765 -0.000143 0.0
0.198921 -0.000147 0.0
0.199078 -0.000147 0.0
0.199234 -0.000144 0.0
0.199384 -0.000134 0.0
0.199522 -0.000119 0.0
0.199641 -0.000096 0.0
0.199732 -0.000066 0.0
0.199789 -0.000030 0.0
0.199808 0.000000 0.0
0.500000 0.000000 0.0
0.000000 0.000000 0.0
0.000000 0.000000 0.0
0.000000 0.000000 0.0
0.000000 0.000000 0.0
0.000000 0.000000 0.0
0.000000 0.000000 0.0
0.000000 0.000000 0.0
0.000000 0.000000 0.0
0.000000 0.000026 0.0
-0.003665 0.007941 0.0
-0.014600 0.019737 0.0
-0.030472 0.025485 0.0
-0.047852 0.027200 0.0
-0.065108 0.027033 0.0
-0.081614 0.026292 0.0
-0.097220 0.025563 0.0
-0.111958 0.025025 0.0
-0.125885 0.024651 0.0
-0.139011 0.024325 0.0
-0.151262 0.023864 0.0
-0.162453 0.023032 0.0
-0.172270 0.021566 0.0
-0.180272 0.019217 0.0
-0.185921 0.015842 0.0
-0.188674 0.011466 0.0
-0.188109 0.006305 0.0
-0.183952 0.000559 0.0
-0.176334 -0.005237 0.0
-0.165726 -0.010860 0.0
-0.152588 -0.016032 0.0
-0.137334 -0.020633 0.0
-0.120348 -0.024552 0.0
-0.102007 -0.027801 0.0
-0.082629 -0.030503 0.0
-0.062466 -0.032697 0.0
-0.041760 -0.034272 0.0
-0.020730 -0.035249 0.0
0.000483 -0.035733 0.0
0.021498 -0.035772 0.0
0.041974 -0.035393 0.0
0.061852 -0.034672 0.0
0.081090 -0.033554 0.0
0.099641 -0.032185 0.0
0.117419 -0.030646 0.0
0.134363 -0.028980 0.0
0.150427 -0.027237 0.0
0.165581 -0.025452 0.0
0.179805 -0.023654 0.0
0.193094 -0.021866 0.0
0.205454 -0.020108 0.0
0.216898 -0.018398 0.0
0.227448 -0.016748 0.0
0.237132 -0.015172 0.0
0.245982 -0.013676 0.0
0.254035 -0.012267 0.0
0.261331 -0.010950 0.0
0.267913 -0.009726 0.0
0.273824 -0.008596 0.0
0.279110 -0.007558 0.0
0.283814 -0.006612 0.0
0.287982 -0.005754 0.0
0.291658 -0.004981 0.0
0.294885 -0.004288 0.0
0.297704 -0.003670 0.0
0.300155 -0.003124 0.0
0.302275 -0.002643 0.0
0.304101 -0.002222 0.0
0.305665 -0.001857 0.0
0.306998 -0.001543 0.0
0.308131 -0.001275 0.0
0.309088 -0.001048 0.0
0.309894 -0.000857 0.0
0.310570 -0.000700 0.0
0.311138 -0.000571 0.0
0.311613 -0.000468 0.0
0.312013 -0.000387 0.0
0.312351 -0.000325 0.0
0.312640 -0.000279 0.0
0.312890 -0.000248 0.0
0.313111 -0.000229 0.0
0.313311 -0.000219 0.0
0.313496 -0.000218 0.0
0.313672 -0.000222 0.0
0.313845 -0.000232 0.0
0.314017 -0.000246 0.0
0.314193 -0.000261 0.0
0.314372 -0.000278 0.0
0.314558 -0.000294 0.0
0.314750 -0.000309 0.0
0.314949 -0.000320 0.0
0.315152 -0.000328 0.0
0.315357 -0.000329 0.0
0.315561 -0.000322 0.0
0.315759 -0.000304 0.0
0.315944 -0.000273 0.0
0.316108 -0.000225 0.0
0.316239 -0.000160 0.0
0.316325 -0.000079 0.0
0.316355 0.000000 0.0
0.500000 0.000000 0.0
0.000000 0.000000 0.0
0.000000 0.000000 0.0
0.000000 0.000000 0.0
0.000000 0.000000 0.0
0.000000 0.000000 0.0
0.000000 0.000000 0.0
0.000000 0.000000 0.0
0.000000 0.000000 0.0
0.000000 0.000445 0.0
-0.004933 0.016539 0.0
-0.018777 0.035918 0.0
-0.037450 0.043848 0.0
-0.056547 0.045314 0.0
-0.074383 0.044012 0.0
-0.090488 0.041925 0.0
-0.104844 0.039892 0.0
-0.117551 0.038140 0.0
-0.128683 0.036595 0.0
-0.138239 0.035063 0.0
-0.146139 0.033277 0.0
-0.152197 0.030868 0.0
-0.156108 0.027458 0.0
-0.157426 0.022646 0.0
-0.155577 0.016212 0.0
-0.149978 0.008250 0.0
-0.140277 -0.000746 0.0
-0.127160 -0.009663 0.0
-0.111730 -0.018062 0.0
-0.094443 -0.025930 0.0
-0.075621 -0.032920 0.0
-0.055581 -0.039040 0.0
-0.034568 -0.044144 0.0
-0.012798 -0.048320 0.0
0.009469 -0.051629 0.0
0.031826 -0.054093 0.0
0.054011 -0.055767 0.0
0.075935 -0.056709 0.0
0.097470 -0.057021 0.0
0.118542 -0.056572 0.0
0.139086 -0.055613 0.0
0.158976 -0.054221 0.0
0.178150 -0.052417 0.0
0.196573 -0.050296 0.0
0.214201 -0.047941 0.0
0.230992 -0.045420 0.0
0.246919 -0.042789 0.0
0.261961 -0.040096 0.0
0.276110 -0.037383 0.0
0.289366 -0.034682 0.0
0.301739 -0.032023 0.0
0.313243 -0.029431 0.0
0.323902 -0.026924 0.0
0.333741 -0.024519 0.0
0.342790 -0.022228 0.0
0.351082 -0.020061 0.0
0.358654 -0.018024 0.0
0.365541 -0.016121 0.0
0.371784 -0.014354 0.0
0.377420 -0.012722 0.0
0.382490 -0.011223 0.0
0.387032 -0.009854 0.0
0.391086 -0.008611 0.0
0.394690 -0.007488 0.0
0.397880 -0.006479 0.0
0.400693 -0.005578 0.0
0.403163 -0.004778 0.0
0.405322 -0.004072 0.0
0.407203 -0.003453 0.0
0.408834 -0.002913 0.0
0.410244 -0.002447 0.0
0.411457 -0.002046 0.0
0.412498 -0.001705 0.0
0.413388 -0.001418 0.0
0.414148 -0.001179 0.0
0.414796 -0.000983 0.0
0.415348 -0.000824 0.0
0.415821 -0.000698 0.0
0.416226 -0.000601 0.0
0.416577 -0.000528 0.0
0.416884 -0.000476 0.0
0.417155 -0.000443 0.0
0.417401 -0.000424 0.0
0.417626 -0.000418 0.0
0.417838 -0.000421 0.0
0.418042 -0.000432 0.0
0.418241 -0.000449 0.0
0.418439 -0.000468 0.0
0.418638 -0.000489 0.0
0.418840 -0.000508 0.0
0.419046 -0.000525 0.0
0.419254 -0.000535 0.0
0.419465 -0.000538 0.0
0.419676 -0.000528 0.0
0.419882 -0.000502 0.0
0.420078 -0.000456 0.0
0.420255 -0.000383 0.0
0.420402 -0.000280 0.0
0.420503 -0.000145 0.0
0.420539 0.000000 0.0
0.500000 0.000000 0.0
0.000000 0.000000 0.0
0.000000 0.000000 0.0
0.000000 0.000000 0.0
0.000000 0.000000 0.0
0.000000 0.000000 0.0
0.000000 0.000000 0.0
0.000000 0.000000 0.0
0.000000 0.000000 0.0
0.000000 0.001035 0.0
-0.005750 0.027222 0.0
-0.020899 0.054227 0.0
-0.039632 0.062944 0.0
-0.057053 0.062736 0.0
-0.071789 0.059162 0.0
-0.083736 0.054827 0.0
-0.093112 0.050722 0.0
-0.100141 0.047046 0.0
-0.104932 0.043612 0.0
-0.107450 0.040121 0.0
-0.107595 0.036263 0.0
-0.105152 0.031498 0.0
-0.099778 0.025365 0.0
-0.091047 0.017327 0.0
-0.078286 0.006920 0.0
-0.061488 -0.004856 0.0
-0.042228 -0.016600 0.0
-0.021758 -0.027396 0.0
-0.000229 -0.037288 0.0
0.021944 -0.046166 0.0
0.044363 -0.053925 0.0
0.066908 -0.060620 0.0
0.089469 -0.066137 0.0
0.111940 -0.070568 0.0
0.134188 -0.073895 0.0
0.156133 -0.076129 0.0
0.177675 -0.077457 0.0
0.198691 -0.077958 0.0
0.219084 -0.077700 0.0
0.238817 -0.076697 0.0
0.257866 -0.075082 0.0
0.276181 -0.072958 0.0
0.293727 -0.070399 0.0
0.310482 -0.067492 0.0
0.326431 -0.064321 0.0
0.341558 -0.060959 0.0
0.355855 -0.057473 0.0
0.369320 -0.053919 0.0
0.381958 -0.050346 0.0
0.393779 -0.046796 0.0
0.404801 -0.043304 0.0
0.415043 -0.039898 0.0
0.424532 -0.036604 0.0
0.433295 -0.033440 0.0
0.441362 -0.030423 0.0
0.448765 -0.027562 0.0
0.455538 -0.024868 0.0
0.461715 -0.022343 0.0
0.467330 -0.019990 0.0
0.472417 -0.017810 0.0
0.477012 -0.015800 0.0
0.481148 -0.013956 0.0
0.484857 -0.012273 0.0
0.488173 -0.010745 0.0
0.491125 -0.009365 0.0
0.493745 -0.008125 0.0
0.496060 -0.007017 0.0
0.498099 -0.006032 0.0
0.499888 -0.005162 0.0
0.501450 -0.004398 0.0
0.502809 -0.003731 0.0
0.503987 -0.003153 0.0
0.505005 -0.002656 0.0
0.505880 -0.002233 0.0
0.506631 -0.001875 0.0
0.507273 -0.001577 0.0
0.507821 -0.001331 0.0
0.508288 -0.001131 0.0
0.508687 -0.000972 0.0
0.509029 -0.000849 0.0
0.509323 -0.000756 0.0
0.509578 -0.000690 0.0
0.509802 -0.000646 0.0
0.510002 -0.000622 0.0
0.510184 -0.000612 0.0
0.510353 -0.000615 0.0
0.510514 -0.000626 0.0
0.510671 -0.000644 0.0
0.510825 -0.000666 0.0
0.510981 -0.000688 0.0
0.511139 -0.000708 0.0
0.511299 -0.000722 0.0
0.511464 -0.000726 0.0
0.511630 -0.000716 0.0
0.511797 -0.000686 0.0
0.511959 -0.000630 0.0
0.512111 -0.000539 0.0
0.512243 -0.000403 0.0
0.512337 -0.000217 0.0
0.512372 0.000000 0.0
0.500000 0.000000 0.0
0.000000 0.000000 0.0
0.000000 0.000000 0.0
0.000000 0.000000 0.0
0.000000 0.000000 0.0
0.000000 0.000000 0.0
0.000000 0.000000 0.0
0.000000 0.000000 0.0
0.000000 0.000000 0.0
0.000000 0.001809 0.0
-0.006365 0.039338 0.0
-0.021342 0.072237 0.0
-0.036976 0.079300 0.0
-0.048818 0.075644 0.0
-0.056496 0.068668 0.0
-0.060543 0.061314 0.0
-0.061451 0.054518 0.0
-0.059559 0.048387 0.0
-0.054995 0.042498 0.0
-0.047604 0.036361 0.0
-0.037170 0.029733 0.0
-0.023380 0.021795 0.0
-0.005431 0.011746 0.0
0.016972 -0.000187 0.0
0.041938 -0.013293 0.0
0.067110 -0.026613 0.0
0.091902 -0.038895 0.0
0.116460 -0.050130 0.0
0.140702 -0.060323 0.0
0.164573 -0.069174 0.0
0.188045 -0.076808 0.0
0.211006 -0.083243 0.0
0.233382 -0.088452 0.0
0.255126 -0.092468 0.0
0.276201 -0.095317 0.0
0.296596 -0.097047 0.0
0.316290 -0.097777 0.0
0.335242 -0.097606 0.0
0.353417 -0.096621 0.0
0.370802 -0.094893 0.0
0.387396 -0.092528 0.0
0.403193 -0.089624 0.0
0.418191 -0.086276 0.0
0.432390 -0.082572 0.0
0.445797 -0.078597 0.0
0.458418 -0.074431 0.0
0.470262 -0.070143 0.0
0.481344 -0.065796 0.0
0.491680 -0.061443 0.0
0.501291 -0.057131 0.0
0.510200 -0.052899 0.0
0.518433 -0.048778 0.0
0.526018 -0.044797 0.0
0.532986 -0.040977 0.0
0.539368 -0.037334 0.0
0.545196 -0.033881 0.0
0.550501 -0.030627 0.0
0.555315 -0.027575 0.0
0.559671 -0.024729 0.0
0.563599 -0.022087 0.0
0.567129 -0.019647 0.0
0.570290 -0.017405 0.0
0.573112 -0.015354 0.0
0.575621 -0.013488 0.0
0.577843 -0.011797 0.0
0.579802 -0.010273 0.0
0.581523 -0.008906 0.0
0.583027 -0.007686 0.0
0.584334 -0.006604 0.0
0.585465 -0.005649 0.0
0.586438 -0.004811 0.0
0.587269 -0.004082 0.0
0.587974 -0.003450 0.0
0.588567 -0.002908 0.0
0.589064 -0.002447 0.0
0.589474 -0.002058 0.0
0.589811 -0.001734 0.0
0.590084 -0.001468 0.0
0.590302 -0.001253 0.0
0.590475 -0.001082 0.0
0.590610 -0.000951 0.0
0.590714 -0.000854 0.0
0.590794 -0.000786 0.0
0.590854 -0.000743 0.0
0.590901 -0.000720 0.0
0.590938 -0.000713 0.0
0.590970 -0.000720 0.0
0.590999 -0.000736 0.0
0.591029 -0.000759 0.0
0.591061 -0.000784 0.0
0.591099 -0.000808 0.0
0.591143 -0.000827 0.0
0.591195 -0.000837 0.0
0.591256 -0.000832 0.0
0.591325 -0.000806 0.0
0.591400 -0.000749 0.0
0.591479 -0.000651 0.0
0.591555 -0.000498 0.0
0.591615 -0.000276 0.0
0.591639 0.000000 0.0
0.500000 0.000000 0.0
0.000000 0.000000 0.0
0.000000 0.000000 0.0
0.000000 0.000000 0.0
0.000000 0.000000 0.0
0.000000 0.000000 0.0
0.000000 0.000000 0.0
0.000000 0.000000 0.0
0.000000 0.000000 0.0
0.000000 0.002948 0.0
-0.007061 0.052765 0.0
-0.020035 0.086760 0.0
-0.027949 0.088326 0.0
-0.028872 0.079384 0.0
-0.024589 0.068322 0.0
-0.016496 0.057615 0.0
-0.005108 0.047737 0.0
0.009360 0.038809 0.0
0.026779 0.030094 0.0
0.047437 0.020716 0.0
0.072132 0.010250 0.0
0.100866 -0.001248 0.0
0.131723 -0.014018 0.0
0.162387 -0.027489 0.0
0.191954 -0.040524 0.0
0.220372 -0.052972 0.0
0.247587 -0.064543 0.0
0.273629 -0.075083 0.0
0.298515 -0.084498 0.0
0.322290 -0.092645 0.0
0.345010 -0.099530 0.0
0.366695 -0.105167 0.0
0.387356 -0.109565 0.0
0.407015 -0.112757 0.0
0.425697 -0.114786 0.0
0.443438 -0.115714 0.0
0.460267 -0.115633 0.0
0.476203 -0.114638 0.0
0.491264 -0.112824 0.0
0.505471 -0.110282 0.0
0.518848 -0.107111 0.0
0.531420 -0.103410 0.0
0.543208 -0.099276 0.0
0.554236 -0.094799 0.0
0.564526 -0.090066 0.0
0.574101 -0.085158 0.0
0.582986 -0.080146 0.0
0.591204 -0.075094 0.0
0.598782 -0.070059 0.0
0.605746 -0.065090 0.0
0.612125 -0.060227 0.0
0.617947 -0.055505 0.0
0.623243 -0.050952 0.0
0.628042 -0.046590 0.0
0.632375 -0.042436 0.0
0.636272 -0.038504 0.0
0.639762 -0.034800 0.0
0.642874 -0.031329 0.0
0.645638 -0.028093 0.0
0.648079 -0.025091 0.0
0.650224 -0.022318 0.0
0.652098 -0.019770 0.0
0.653724 -0.017438 0.0
0.655125 -0.015314 0.0
0.656323 -0.013389 0.0
0.657336 -0.011653 0.0
0.658183 -0.010093 0.0
0.658882 -0.008701 0.0
0.659448 -0.007463 0.0
0.659897 -0.006369 0.0
0.660241 -0.005408 0.0
0.660494 -0.004569 0.0
0.660666 -0.003841 0.0
0.660769 -0.003214 0.0
0.660811 -0.002679 0.0
0.660802 -0.002227 0.0
0.660748 -0.001849 0.0
0.660658 -0.001536 0.0
0.660538 -0.001282 0.0
0.660393 -0.001081 0.0
0.660230 -0.000924 0.0
0.660052 -0.000807 0.0
0.659864 -0.000725 0.0
0.659670 -0.000671 0.0
0.659473 -0.000642 0.0
0.659277 -0.000632 0.0
0.659084 -0.000639 0.0
0.658896 -0.000658 0.0
0.658715 -0.000686 0.0
0.658545 -0.000718 0.0
0.658387 -0.000752 0.0
0.658242 -0.000783 0.0
0.658114 -0.000805 0.0
0.658003 -0.000814 0.0
0.657913 -0.000802 0.0
0.657845 -0.000760 0.0
0.657800 -0.000674 0.0
0.657778 -0.000529 0.0
0.657774 -0.000302 0.0
0.657775 0.000000 0.0
0.500000 0.000000 0.0
0.000000 0.000000 0.0
0.000000 0.000000 0.0
0.000000 0.000000 0.0
0.000000 0.000000 0.0
0.000000 0.000000 0.0
0.000000 0.000000 0.0
0.000000 0.000000 0.0
0.000000 0.000000 0.0
0.000000 0.004996 0.0
-0.007061 0.066887 0.0
-0.012972 0.091521 0.0
-0.004129 0.082636 0.0
0.014416 0.067452 0.0
0.037471 0.052915 0.0
0.063013 0.039387 0.0
0.090973 0.026617 0.0
0.122034 0.014400 0.0
0.156533 0.002585 0.0
0.193308 -0.009208 0.0
0.230277 -0.021490 0.0
0.265970 -0.033936 0.0
0.300001 -0.046217 0.0
0.332262 -0.058214 0.0
0.362654 -0.069758 0.0
0.391150 -0.080653 0.0
0.417789 -0.090716 0.0
0.442646 -0.099808 0.0
0.465810 -0.107823 0.0
0.487386 -0.114671 0.0
0.507482 -0.120321 0.0
0.526191 -0.124769 0.0
0.543597 -0.128030 0.0
0.559780 -0.130134 0.0
0.574817 -0.131128 0.0
0.588781 -0.131077 0.0
0.601742 -0.130059 0.0
0.613757 -0.128164 0.0
0.624881 -0.125484 0.0
0.635165 -0.122113 0.0
0.644656 -0.118148 0.0
0.653399 -0.113687 0.0
0.661434 -0.108823 0.0
0.668801 -0.103646 0.0
0.675534 -0.098243 0.0
0.681670 -0.092692 0.0
0.687239 -0.087066 0.0
0.692275 -0.081428 0.0
0.696807 -0.075835 0.0
0.700865 -0.070337 0.0
0.704479 -0.064973 0.0
0.707678 -0.059780 0.0
0.710491 -0.054785 0.0
0.712945 -0.050010 0.0
0.715067 -0.045472 0.0
0.716884 -0.041182 0.0
0.718421 -0.037148 0.0
0.719702 -0.033374 0.0
0.720749 -0.029859 0.0
0.721586 -0.026602 0.0
0.722232 -0.023598 0.0
0.722707 -0.020839 0.0
0.723029 -0.018317 0.0
0.723215 -0.016023 0.0
0.723281 -0.013944 0.0
0.723242 -0.012071 0.0
0.723110 -0.010391 0.0
0.722899 -0.008891 0.0
0.722619 -0.007559 0.0
0.722281 -0.006383 0.0
0.721894 -0.005351 0.0
0.721465 -0.004450 0.0
0.721003 -0.003670 0.0
0.720513 -0.002999 0.0
0.720003 -0.002426 0.0
0.719476 -0.001943 0.0
0.718938 -0.001541 0.0
0.718392 -0.001209 0.0
0.717844 -0.000941 0.0
0.717295 -0.000729 0.0
0.716749 -0.000566 0.0
0.716209 -0.000447 0.0
0.715677 -0.000365 0.0
0.715154 -0.000314 0.0
0.714643 -0.000290 0.0
0.714144 -0.000289 0.0
0.713661 -0.000305 0.0
0.713193 -0.000336 0.0
0.712742 -0.000377 0.0
0.712311 -0.000426 0.0
0.711902 -0.000477 0.0
0.711516 -0.000527 0.0
0.711156 -0.000572 0.0
0.710826 -0.000607 0.0
0.710531 -0.000624 0.0
0.710275 -0.000614 0.0
0.710066 -0.000565 0.0
0.709911 -0.000460 0.0
0.709817 -0.000273 0.0
0.709786 0.000001 0.0
0.500000 -0.076758 0.0
0.000000 -0.050923 0.0
0.000000 -0.034684 0.0
0.000000 -0.022201 0.0
0.000000 -0.011508 0.0
0.000000 -0.001835 0.0
0.000000 0.007243 0.0
0.000000 0.016115 0.0
0.000000 0.025415 0.0
0.000000 0.005339 0.0
0.001482 0.072466 0.0
0.022400 0.070936 0.0
0.065370 0.051408 0.0
0.112761 0.032743 0.0
0.161251 0.016079 0.0
0.210420 0.001511 0.0
0.258613 -0.011659 0.0
0.304362 -0.024134 0.0
0.346920 -0.035938 0.0
0.386499 -0.047038 0.0
0.423521 -0.057650 0.0
0.458111 -0.068060 0.0
0.490250 -0.078263 0.0
0.519961 -0.088140 0.0
0.547306 -0.097568 0.0
0.572368 -0.106400 0.0
0.595254 -0.114494 0.0
0.616091 -0.121725 0.0
0.635013 -0.127993 0.0
0.652161 -0.133224 0.0
0.667674 -0.137376 0.0
0.681683 -0.140432 0.0
0.694311 -0.142401 0.0
0.705673 -0.143308 0.0
0.715876 -0.143194 0.0
0.725019 -0.142118 0.0
0.733193 -0.140152 0.0
0.740481 -0.137375 0.0
0.746959 -0.133874 0.0
0.752693 -0.129741 0.0
0.757748 -0.125066 0.0
0.762180 -0.119944 0.0
0.766042 -0.114463 0.0
0.769381 -0.108712 0.0
0.772242 -0.102772 0.0
0.774664 -0.096721 0.0
0.776686 -0.090628 0.0
0.778340 -0.084556 0.0
0.779660 -0.078559 0.0
0.780675 -0.072686 0.0
0.781412 -0.066976 0.0
0.781900 -0.061464 0.0
0.782161 -0.056176 0.0
0.782220 -0.051132 0.0
0.782097 -0.046350 0.0
0.781814 -0.041838 0.0
0.781389 -0.037604 0.0
0.780840 -0.033649 0.0
0.780182 -0.029974 0.0
0.779431 -0.026573 0.0
0.778600 -0.023442 0.0
0.777703 -0.020572 0.0
0.776750 -0.017953 0.0
0.775752 -0.015575 0.0
0.774718 -0.013425 0.0
0.773657 -0.011491 0.0
0.772577 -0.009760 0.0
0.771484 -0.008218 0.0
0.770384 -0.006853 0.0
0.769282 -0.005650 0.0
0.768184 -0.004598 0.0
0.767092 -0.003683 0.0
0.766010 -0.002893 0.0
0.764940 -0.002216 0.0
0.763884 -0.001642 0.0
0.762845 -0.001161 0.0
0.761824 -0.000764 0.0
0.760824 -0.000441 0.0
0.759847 -0.000183 0.0
0.758894 0.000016 0.0
0.757964 0.000164 0.0
0.757058 0.000269 0.0
0.756174 0.000335 0.0
0.755314 0.000369 0.0
0.754478 0.000374 0.0
0.753666 0.000356 0.0
0.752880 0.000319 0.0
0.752119 0.000267 0.0
0.751387 0.000202 0.0
0.750683 0.000129 0.0
0.750010 0.000051 0.0
0.749371 -0.000030 0.0
0.748769 -0.000108 0.0
0.748209 -0.000181 0.0
0.747697 -0.000243 0.0
0.747243 -0.000286 0.0
0.746858 -0.000300 0.0
0.746559 -0.000270 0.0
0.746365 -0.000175 0.0
0.746297 0.000001 0.0
0.028265 -0.076758 0.0
-0.902029 -0.050923 0.0
-0.819281 -0.034684 0.0
-0.741195 -0.022201 0.0
-0.673617 -0.011508 0.0
-0.618417 -0.001835 0.0
-0.576231 0.007243 0.0
-0.548212 0.016115 0.0
-0.539276 0.025415 0.0
-0.270286 -0.001286 0.0
0.063226 0.011209 0.0
0.177157 0.000796 0.0
0.267810 -0.012075 0.0
0.340855 -0.024210 0.0
0.401533 -0.036135 0.0
0.452957 -0.046868 0.0
0.498003 -0.056519 0.0
0.538375 -0.065396 0.0
0.574986 -0.073845 0.0
0.608331 -0.082057 0.0
0.638753 -0.090075 0.0
0.666490 -0.097962 0.0
0.691685 -0.105695 0.0
0.714452 -0.113186 0.0
0.734901 -0.120317 0.0
0.753151 -0.126962 0.0
0.769326 -0.132993 0.0
0.783561 -0.138297 0.0
0.795995 -0.142778 0.0
0.806771 -0.146363 0.0
0.816029 -0.149007 0.0
0.823903 -0.150685 0.0
0.830522 -0.151397 0.0
0.836007 -0.151160 0.0
0.840471 -0.150009 0.0
0.844020 -0.147995 0.0
0.846752 -0.145180 0.0
0.848755 -0.141637 0.0
0.850111 -0.137445 0.0
0.850895 -0.132689 0.0
0.851177 -0.127454 0.0
0.851017 -0.121828 0.0
0.850473 -0.115896 0.0
0.849597 -0.109741 0.0
0.848435 -0.103441 0.0
0.847029 -0.097069 0.0
0.845418 -0.090690 0.0
0.843634 -0.084364 0.0
0.841709 -0.078145 0.0
0.839670 -0.072075 0.0
0.837540 -0.066195 0.0
0.835343 -0.060535 0.0
0.833097 -0.055120 0.0
0.830818 -0.049968 0.0
0.828522 -0.045095 0.0
0.826222 -0.040509 0.0
0.823927 -0.036214 0.0
0.821649 -0.032211 0.0
0.819394 -0.028499 0.0
0.817169 -0.025072 0.0
0.814980 -0.021924 0.0
0.812832 -0.019045 0.0
0.810728 -0.016424 0.0
0.808672 -0.014049 0.0
0.806664 -0.011909 0.0
0.804709 -0.009989 0.0
0.802805 -0.008277 0.0
0.800954 -0.006757 0.0
0.799155 -0.005416 0.0
0.797409 -0.004239 0.0
0.795713 -0.003214 0.0
0.794066 -0.002327 0.0
0.792466 -0.001566 0.0
0.790912 -0.000919 0.0
0.789402 -0.000375 0.0
0.787936 0.000076 0.0
0.786512 0.000444 0.0
0.785128 0.000736 0.0
0.783783 0.000962 0.0
0.782475 0.001130 0.0
0.781207 0.001248 0.0
0.779978 0.001321 0.0
0.778789 0.001356 0.0
0.777640 0.001358 0.0
0.776530 0.001331 0.0
0.775460 0.001281 0.0
0.774428 0.001212 0.0
0.773436 0.001126 0.0
0.772484 0.001028 0.0
0.771572 0.000920 0.0
0.770701 0.000804 0.0
0.769875 0.000683 0.0
0.769095 0.000561 0.0
0.768367 0.000438 0.0
0.767697 0.000319 0.0
0.767096 0.000208 0.0
0.766578 0.000109 0.0
0.766166 0.000032 0.0
0.765892 -0.000009 0.0
0.765794 0.000001 0.0
0.971735 0.028265 0.0
0.902029 0.041441 0.0
0.819281 0.041307 0.0
0.741195 0.036780 0.0
0.673617 0.030798 0.0
0.618417 0.024401 0.0
0.576231 0.017785 0.0
0.548212 0.010233 0.0
0.539276 -0.001297 0.0
0.556739 -0.023069 0.0
0.582913 -0.058574 0.0
0.608698 -0.065686 0.0
0.642223 -0.069771 0.0
0.677174 -0.074510 0.0
0.710296 -0.079635 0.0
0.740636 -0.085132 0.0
0.768075 -0.090740 0.0
0.792865 -0.096338 0.0
0.815293 -0.101941 0.0
0.835561 -0.107575 0.0
0.853808 -0.113227 0.0
0.870130 -0.118870 0.0
0.884590 -0.124443 0.0
0.897240 -0.129855 0.0
0.908136 -0.134993 0.0
0.917342 -0.139742 0.0
0.924937 -0.143984 0.0
0.931009 -0.147614 0.0
0.935658 -0.150544 0.0
0.938989 -0.152704 0.0
0.941111 -0.154045 0.0
0.942134 -0.154543 0.0
0.942164 -0.154189 0.0
0.941307 -0.152996 0.0
0.939663 -0.150994 0.0
0.937329 -0.148225 0.0
0.934395 -0.144747 0.0
0.930946 -0.140624 0.0
0.927062 -0.135931 0.0
0.922819 -0.130744 0.0
0.918283 -0.125144 0.0
0.913518 -0.119214 0.0
0.908582 -0.113032 0.0
0.903528 -0.106675 0.0
0.898401 -0.100218 0.0
0.893243 -0.093728 0.0
0.888092 -0.087267 0.0
0.882979 -0.080890 0.0
0.877932 -0.074646 0.0
0.872975 -0.068577 0.0
0.868125 -0.062716 0.0
0.863400 -0.057092 0.0
0.858812 -0.051728 0.0
0.854370 -0.046640 0.0
0.850081 -0.041839 0.0
0.845948 -0.037332 0.0
0.841976 -0.033123 0.0
0.838163 -0.029210 0.0
0.834508 -0.025591 0.0
0.831011 -0.022258 0.0
0.827666 -0.019205 0.0
0.824471 -0.016420 0.0
0.821420 -0.013893 0.0
0.818508 -0.011612 0.0
0.815730 -0.009562 0.0
0.813079 -0.007730 0.0
0.810549 -0.006103 0.0
0.808134 -0.004664 0.0
0.805824 -0.003401 0.0
0.803613 -0.002297 0.0
0.801491 -0.001339 0.0
0.799448 -0.000512 0.0
0.797476 0.000191 0.0
0.795574 0.000781 0.0
0.793740 0.001269 0.0
0.791973 0.001666 0.0
0.790272 0.001980 0.0
0.788635 0.002221 0.0
0.787061 0.002397 0.0
0.785547 0.002516 0.0
0.784093 0.002585 0.0
0.782695 0.002610 0.0
0.781352 0.002598 0.0
0.780062 0.002554 0.0
0.778823 0.002483 0.0
0.777635 0.002389 0.0
0.776495 0.002276 0.0
0.775404 0.002147 0.0
0.774359 0.002005 0.0
0.773361 0.001852 0.0
0.772411 0.001692 0.0
0.771511 0.001524 0.0
0.770661 0.001350 0.0
0.769869 0.001170 0.0
0.769139 0.000986 0.0
0.768483 0.000797 0.0
0.767918 0.000603 0.0
0.767466 0.000402 0.0
0.767163 0.000197 0.0
0.767055 0.000001 0.0
1.012850 0.043680 0.0
1.034717 0.073865 0.0
1.046503 0.079844 0.0
1.047923 0.074910 0.0
1.043316 0.064852 0.0
1.036636 0.052227 0.0
1.030975 0.037806 0.0
1.028525 0.020679 0.0
1.028493 -0.002774 0.0
1.024710 -0.035272 0.0
1.014582 -0.062417 0.0
1.004473 -0.077519 0.0
0.999346 -0.086336 0.0
0.998989 -0.092538 0.0
1.001887 -0.097626 0.0
1.006692 -0.102286 0.0
1.012429 -0.106761 0.0
1.018467 -0.111144 0.0
1.024394 -0.115489 0.0
1.029923 -0.119824 0.0
1.034844 -0.124145 0.0
1.038994 -0.128424 0.0
1.042253 -0.132607 0.0
1.044530 -0.136618 0.0
1.045769 -0.140365 0.0
1.045941 -0.143749 0.0
1.045046 -0.146676 0.0
1.043106 -0.149054 0.0
1.040161 -0.150808 0.0
1.036268 -0.151878 0.0
1.031495 -0.152220 0.0
1.025917 -0.151812 0.0
1.019616 -0.150648 0.0
1.012677 -0.148740 0.0
1.005184 -0.146113 0.0
0.997223 -0.142811 0.0
0.988879 -0.138883 0.0
0.980233 -0.134393 0.0
0.971364 -0.129409 0.0
0.962346 -0.124003 0.0
0.953248 -0.118252 0.0
0.944137 -0.112230 0.0
0.935070 -0.106013 0.0
0.926102 -0.099671 0.0
0.917280 -0.093273 0.0
0.908645 -0.086882 0.0
0.900235 -0.080552 0.0
0.892077 -0.074335 0.0
0.884197 -0.068274 0.0
0.876613 -0.062407 0.0
0.869339 -0.056762 0.0
0.862384 -0.051366 0.0
0.855753 -0.046235 0.0
0.849448 -0.041385 0.0
0.843466 -0.036822 0.0
0.837803 -0.032553 0.0
0.832451 -0.028578 0.0
0.827402 -0.024894 0.0
0.822645 -0.021496 0.0
0.818168 -0.018378 0.0
0.813959 -0.015531 0.0
0.810004 -0.012944 0.0
0.806289 -0.010604 0.0
0.802801 -0.008501 0.0
0.799525 -0.006618 0.0
0.796445 -0.004943 0.0
0.793546 -0.003461 0.0
0.790809 -0.002153 0.0
0.788209 -0.001002 0.0
0.785726 -0.000002 0.0
0.783357 0.000858 0.0
0.781102 0.001589 0.0
0.778963 0.002200 0.0
0.776934 0.002702 0.0
0.775010 0.003106 0.0
0.773185 0.003421 0.0
0.771453 0.003657 0.0
0.769808 0.003824 0.0
0.768247 0.003929 0.0
0.766764 0.003981 0.0
0.765353 0.003985 0.0
0.764012 0.003950 0.0
0.762735 0.003879 0.0
0.761520 0.003779 0.0
0.760361 0.003654 0.0
0.759258 0.003509 0.0
0.758206 0.003346 0.0
0.757204 0.003169 0.0
0.756250 0.002981 0.0
0.755343 0.002781 0.0
0.754482 0.002573 0.0
0.753668 0.002357 0.0
0.752903 0.002131 0.0
0.752190 0.001895 0.0
0.751534 0.001647 0.0
0.750946 0.001381 0.0
0.750439 0.001092 0.0
0.750034 0.000770 0.0
0.749764 0.000402 0.0
0.749668 0.000001 0.0
1.008272 0.022557 0.0
1.031045 0.050349 0.0
1.060607 0.062011 0.0
1.089250 0.062680 0.0
1.114560 0.056379 0.0
1.136406 0.045535 0.0
1.155337 0.031230 0.0
1.171565 0.013477 0.0
1.183992 -0.007967 0.0
1.190066 -0.032369 0.0
1.189173 -0.054299 0.0
1.184256 -0.070611 0.0
1.178421 -0.082281 0.0
1.173108 -0.090923 0.0
1.168669 -0.097700 0.0
1.165002 -0.103350 0.0
1.161864 -0.108297 0.0
1.159002 -0.112785 0.0
1.156190 -0.116964 0.0
1.153229 -0.120917 0.0
1.149944 -0.124686 0.0
1.146186 -0.128275 0.0
1.141830 -0.131659 0.0
1.136778 -0.134791 0.0
1.130955 -0.137608 0.0
1.124318 -0.140041 0.0
1.116844 -0.142016 0.0
1.108539 -0.143467 0.0
1.099425 -0.144336 0.0
1.089544 -0.144577 0.0
1.078954 -0.144158 0.0
1.067722 -0.143065 0.0
1.055926 -0.141298 0.0
1.043649 -0.138873 0.0
1.030979 -0.135817 0.0
1.018005 -0.132173 0.0
1.004818 -0.127990 0.0
0.991506 -0.123329 0.0
0.978156 -0.118254 0.0
0.964850 -0.112834 0.0
0.951665 -0.107139 0.0
0.938672 -0.101238 0.0
0.925936 -0.095201 0.0
0.913513 -0.089092 0.0
0.901455 -0.082972 0.0
0.889803 -0.076897 0.0
0.878592 -0.070915 0.0
0.867849 -0.065072 0.0
0.857595 -0.059404 0.0
0.847844 -0.053942 0.0
0.838601 -0.048711 0.0
0.829871 -0.043731 0.0
0.821648 -0.039016 0.0
0.813925 -0.034576 0.0
0.806690 -0.030415 0.0