# vtk DataFile Version 3.0
Scalar Field
ASCII
DATASET RECTILINEAR_GRID
DIMENSIONS 100 20 1
X_COORDINATES 100 double
0.050000 0.150000 0.250000 0.350000 0.450000 0.550000 0.650000 0.750000 0.850000 0.950000 1.050000 1.150000 1.250000 1.350000 1.450000 1.550000 1.650000 1.750000 1.850000 1.950000 2.050000 2.150000 2.250000 2.350000 2.450000 2.550000 2.650000 2.750000 2.850000 2.950000 3.050000 3.150000 3.250000 3.350000 3.450000 3.550000 3.650000 3.750000 3.850000 3.950000 4.050000 4.150000 4.250000 4.350000 4.450000 4.550000 4.650000 4.750000 4.850000 4.950000 5.050000 5.150000 5.250000 5.350000 5.450000 5.550000 5.650000 5.750000 5.850000 5.950000 6.050000 6.150000 6.250000 6.350000 6.450000 6.550000 6.650000 6.750000 6.850000 6.950000 7.050000 7.150000 7.250000 7.350000 7.450000 7.550000 7.650000 7.750000 7.850000 7.950000 8.050000 8.150000 8.250000 8.350000 8.450000 8.550000 8.650000 8.750000 8.850000 8.950000 9.050000 9.150000 9.250000 9.350000 9.450000 9.550000 9.650000 9.750000 9.850000 9.950000 
Y_COORDINATES 20 double
0.050000 0.150000 0.250000 0.350000 0.450000 0.550000 0.650000 0.750000 0.850000 0.950000 1.050000 1.150000 1.250000 1.350000 1.450000 1.550000 1.650000 1.750000 1.850000 1.950000 
Z_COORDINATES 1 double
0.0
POINT_DATA 2000
SCALARS Skalarfeld double 1
LOOKUP_TABLE default
0.000000
0.000000
0.000000
0.000000
0.000000
0.000000
0.000000
0.000000
0.000000
-0.143856
-0.143856
-0.144415
-0.144873
-0.145028
-0.144851
-0.144352
-0.143529
-0.142362
-0.140813
-0.138827
-0.136333
-0.133247
-0.129475
-0.124921
-0.119500
-0.113152
-0.105854
-0.097627
-0.088534
-0.078690
-0.068270
-0.057480
-0.046502
-0.035521
-0.024701
-0.014200
-0.004159
0.005305
0.014117
0.022238
0.029599
0.036176
0.042006
0.047067
0.051382
0.055001
0.057952
0.060295
0.062089
0.063390
0.064255
0.064736
0.064882
0.064741
0.064355
0.063761
0.062995
0.062087
0.061065
0.059951
0.058766
0.057526
0.056247
0.054940
0.053615
0.052280
0.050942
0.049605
0.048273
0.046950
0.045635
0.044332
0.043040
0.041759
0.040490
0.039231
0.037982
0.036741
0.035508
0.034282
0.033061
0.031845
0.030631
0.029419
0.028208
0.026996
0.025783
0.024568
0.023350
0.022129
0.020903
0.019672
0.018436
0.017195
0.015949
0.014698
0.013442
0.012184
0.010923
0.009662
0.000000
0.000000
0.000000
0.000000
0.000000
0.000000
0.000000
0.000000
0.000000
-0.143299
-0.143299
-0.143901
-0.144254
-0.144332
-0.144128
-0.143634
-0.142831
-0.141687
-0.140164
-0.138212
-0.135766
-0.132752
-0.129080
-0.124655
-0.119385
-0.113203
-0.106076
-0.098014
-0.089067
-0.079375
-0.069092
-0.058396
-0.047495
-0.036577
-0.025807
-0.015336
-0.005313
0.004139
0.012940
0.021084
0.028467
0.035045
0.040943
0.046066
0.050433
0.054095
0.057096
0.059493
0.061340
0.062694
0.063611
0.064143
0.064339
0.064245
0.063904
0.063353
0.062628
0.061758
0.060771
0.059690
0.058535
0.057323
0.056069
0.054785
0.053481
0.052165
0.050843
0.049521
0.048202
0.046889
0.045585
0.044290
0.043005
0.041731
0.040466
0.039212
0.037966
0.036728
0.035498
0.034273
0.033054
0.031838
0.030625
0.029413
0.028202
0.026990
0.025777
0.024562
0.023344
0.022122
0.020895
0.019664
0.018428
0.017187
0.015941
0.014690
0.013435
0.012177
0.010918
0.009660
0.000000
0.000000
0.000000
0.000000
0.000000
0.000000
0.000000
0.000000
0.000000
-0.142960
-0.142960
-0.143765
-0.144128
-0.144182
-0.143973
-0.143495
-0.142724
-0.141628
-0.140171
-0.138308
-0.135986
-0.133133
-0.129658
-0.125451
-0.120396
-0.114400
-0.107423
-0.099469
-0.090568
-0.080846
-0.070508
-0.059755
-0.048805
-0.037854
-0.027046
-0.016520
-0.006452
0.003022
0.011791
0.020050
0.027492
0.034144
0.040046
0.045185
0.049579
0.053270
0.056303
0.058732
0.060614
0.062003
0.062956
0.063523
0.063755
0.063697
0.063392
0.062877
0.062187
0.061352
0.060398
0.059349
0.058225
0.057042
0.055816
0.054558
0.053279
0.051985
0.050684
0.049382
0.048081
0.046784
0.045494
0.044212
0.042939
0.041675
0.040420
0.039173
0.037935
0.036703
0.035478
0.034258
0.033042
0.031829
0.030618
0.029409
0.028199
0.026989
0.025776
0.024561
0.023343
0.022121
0.020894
0.019662
0.018425
0.017182
0.015934
0.014681
0.013424
0.012163
0.010901
0.009643
0.000000
0.000000
0.000000
0.000000
0.000000
0.000000
0.000000
0.000000
0.000000
-0.143425
-0.143425
-0.144401
-0.144787
-0.144826
-0.144603
-0.144122
-0.143365
-0.142307
-0.140919
-0.139165
-0.137002
-0.134361
-0.131143
-0.127203
-0.122381
-0.116530
-0.109650
-0.101539
-0.092498
-0.082630
-0.072167
-0.061300
-0.050271
-0.039295
-0.028440
-0.017811
-0.007700
0.001826
0.010699
0.018916
0.026369
0.033042
0.038947
0.044090
0.048495
0.052201
0.055254
0.057708
0.059617
0.061038
0.062025
0.062630
0.062901
0.062885
0.062623
0.062152
0.061507
0.060716
0.059808
0.058803
0.057723
0.056582
0.055397
0.054179
0.052936
0.051678
0.050411
0.049139
0.047867
0.046597
0.045331
0.044072
0.042819
0.041573
0.040334
0.039102
0.037877
0.036657
0.035442
0.034230
0.033022
0.031816
0.030610
0.029405
0.028199
0.026992
0.025781
0.024568
0.023350
0.022128
0.020900
0.019666
0.018427
0.017180
0.015927
0.014668
0.013403
0.012133
0.010862
0.009593
0.000000
0.000000
0.000000
0.000000
0.000000
0.000000
0.000000
0.000000
0.000000
-0.145154
-0.145154
-0.146165
-0.146458
-0.146378
-0.146044
-0.145476
-0.144666
-0.143594
-0.142235
-0.140559
-0.138539
-0.136093
-0.133121
-0.129409
-0.124750
-0.118867
-0.111555
-0.103292
-0.094201
-0.084149
-0.073597
-0.062715
-0.051649
-0.040594
-0.029698
-0.019110
-0.009009
0.000506
0.009367
0.017531
0.024944
0.031585
0.037457
0.042576
0.046967
0.050670
0.053731
0.056202
0.058138
0.059593
0.060621
0.061273
0.061597
0.061638
0.061437
0.061030
0.060450
0.059727
0.058885
0.057947
0.056932
0.055856
0.054733
0.053575
0.052390
0.051187
0.049971
0.048747
0.047520
0.046293
0.045066
0.043842
0.042622
0.041405
0.040193
0.038985
0.037781
0.036580
0.035382
0.034185
0.032990
0.031794
0.030598
0.029401
0.028202
0.026999
0.025793
0.024582
0.023366
0.022144
0.020915
0.019679
0.018435
0.017183
0.015921
0.014651
0.013371
0.012083
0.010789
0.009495
0.000000
0.000000
0.000000
0.000000
0.000000
0.000000
0.000000
0.000000
0.000000
-0.148530
-0.148530
-0.149287
-0.149154
-0.148675
-0.148023
-0.147223
-0.146257
-0.145104
-0.143713
-0.142043
-0.140105
-0.137749
-0.134944
-0.131278
-0.126233
-0.120009
-0.112672
-0.104311
-0.095067
-0.085036
-0.074484
-0.063609
-0.052586
-0.041594
-0.030792
-0.020330
-0.010349
-0.000953
0.007790
0.015831
0.023131
0.029675
0.035464
0.040518
0.044863
0.048539
0.051593
0.054074
0.056035
0.057530
0.058611
0.059326
0.059723
0.059844
0.059729
0.059412
0.058926
0.058297
0.057551
0.056709
0.055789
0.054805
0.053772
0.052700
0.051598
0.050473
0.049331
0.048178
0.047016
0.045848
0.044678
0.043505
0.042332
0.041158
0.039985
0.038812
0.037639
0.036466
0.035292
0.034118
0.032941
0.031762
0.030581
0.029395
0.028206
0.027012
0.025812
0.024605
0.023392
0.022171
0.020941
0.019702
0.018453
0.017192
0.015918
0.014631
0.013329
0.012012
0.010681
0.009339
0.000000
0.000000
0.000000
0.000000
0.000000
0.000000
0.000000
0.000000
0.000000
-0.154081
-0.154081
-0.153858
-0.152566
-0.151203
-0.149959
-0.148779
-0.147588
-0.146324
-0.144849
-0.143123
-0.141332
-0.138936
-0.135741
-0.131498
-0.126258
-0.119928
-0.112528
-0.104146
-0.094916
-0.084985
-0.074562
-0.063844
-0.053010
-0.042233
-0.031669
-0.021459
-0.011729
-0.002572
0.005943
0.013768
0.020875
0.027250
0.032900
0.037843
0.042108
0.045734
0.048765
0.051250
0.053240
0.054784
0.055931
0.056730
0.057222
0.057450
0.057450
0.057254
0.056893
0.056393
0.055776
0.055062
0.054267
0.053407
0.052494
0.051537
0.050544
0.049524
0.048481
0.047420
0.046345
0.045258
0.044161
0.043057
0.041946
0.040830
0.039708
0.038581
0.037450
0.036314
0.035173
0.034027
0.032876
0.031720
0.030557
0.029388
0.028212
0.027029
0.025838
0.024638
0.023429
0.022210
0.020980
0.019738
0.018483
0.017213
0.015925
0.014618
0.013288
0.011932
0.010549
0.009135
0.000000
0.000000
0.000000
0.000000
0.000000
0.000000
0.000000
0.000000
0.000000
-0.163076
-0.163076
-0.159772
-0.155898
-0.153061
-0.151191
-0.149606
-0.148093
-0.146819
-0.145306
-0.143471
-0.141071
-0.138254
-0.134754
-0.130345
-0.124955
-0.118544
-0.111137
-0.102823
-0.093729
-0.084012
-0.073856
-0.063444
-0.052952
-0.042541
-0.032359
-0.022536
-0.013183
-0.004385
0.003795
0.011314
0.018148
0.024290
0.029746
0.034537
0.038692
0.042247
0.045245
0.047732
0.049754
0.051358
0.052591
0.053494
0.054108
0.054471
0.054616
0.054574
0.054371
0.054032
0.053577
0.053023
0.052387
0.051681
0.050917
0.050103
0.049248
0.048357
0.047437
0.046490
0.045522
0.044534
0.043529
0.042509
0.041475
0.040428
0.039369
0.038299
0.037219
0.036128
0.035028
0.033918
0.032799
0.031669
0.030530
0.029381
0.028223
0.027054
0.025874
0.024683
0.023480
0.022264
0.021036
0.019792
0.018532
0.017252
0.015950
0.014622
0.013262
0.011863
0.010417
0.008913
0.000000
0.000000
0.000000
0.000000
0.000000
0.000000
0.000000
0.000000
0.000000
-0.178731
-0.178731
-0.166260
-0.157767
-0.153078
-0.150980
-0.149032
-0.147470
-0.145711
-0.143863
-0.141826
-0.139316
-0.136270
-0.132525
-0.127933
-0.122424
-0.115980
-0.108636
-0.100480
-0.091634
-0.082249
-0.072489
-0.062523
-0.052511
-0.042603
-0.032932
-0.023617
-0.014752
-0.006416
0.001338
0.008473
0.014970
0.020824
0.026046
0.030653
0.034675
0.038147
0.041107
0.043598
0.045661
0.047340
0.048675
0.049705
0.050466
0.050992
0.051311
0.051452
0.051438
0.051290
0.051026
0.050662
0.050212
0.049687
0.049098
0.048452
0.047756
0.047017
0.046238
0.045425
0.044581
0.043708
0.042808
0.041885
0.040939
0.039973
0.038987
0.037982
0.036961
0.035922
0.034868
0.033800
0.032717
0.031619
0.030508
0.029382
0.028242
0.027089
0.025922
0.024741
0.023546
0.022336
0.021110
0.019867
0.018603
0.017317
0.016003
0.014657
0.013270
0.011831
0.010325
0.008730
0.378725
0.251256
0.171130
0.109538
0.056781
0.009052
-0.035737
-0.079512
-0.125396
-0.189417
-0.206444
-0.168948
-0.155988
-0.151009
-0.147963
-0.146282
-0.144773
-0.143109
-0.141231
-0.139033
-0.136355
-0.133097
-0.129144
-0.124404
-0.118830
-0.112421
-0.105223
-0.097321
-0.088830
-0.079886
-0.070637
-0.061232
-0.051816
-0.042521
-0.033464
-0.024749
-0.016459
-0.008659
-0.001396
0.005300
0.011416
0.016948
0.021909
0.026316
0.030196
0.033580
0.036505
0.039007
0.041124
0.042892
0.044348
0.045525
0.046455
0.047165
0.047683
0.048030
0.048227
0.048293
0.048243
0.048091
0.047847
0.047523
0.047127
0.046666
0.046146
0.045573
0.044950
0.044283
0.043574
0.042826
0.042041
0.041223
0.040373
0.039493
0.038586
0.037653
0.036696
0.035716
0.034713
0.033688
0.032642
0.031578
0.030494
0.029393
0.028274
0.027138
0.025985
0.024816
0.023630
0.022426
0.021205
0.019963
0.018699
0.017410
0.016091
0.014734
0.013331
0.011865
0.010317
0.008654
0.378725
0.251256
0.171130
0.109538
0.056781
0.009052
-0.035737
-0.079512
-0.125396
-0.172390
-0.178203
-0.163429
-0.153283
-0.147860
-0.144743
-0.142791
-0.141159
-0.139445
-0.137477
-0.135130
-0.132286
-0.128857
-0.124764
-0.119950
-0.114395
-0.108114
-0.101156
-0.093603
-0.085561
-0.077151
-0.068502
-0.059745
-0.051003
-0.042394
-0.034016
-0.025959
-0.018292
-0.011070
-0.004330
0.001903
0.007619
0.012818
0.017511
0.021716
0.025458
0.028762
0.031661
0.034186
0.036370
0.038242
0.039835
0.041174
0.042288
0.043199
0.043929
0.044496
0.044919
0.045211
0.045387
0.045456
0.045429
0.045315
0.045120
0.044851
0.044513
0.044112
0.043651
0.043133
0.042564
0.041944
0.041277
0.040567
0.039815
0.039025
0.038198
0.037337
0.036444
0.035520
0.034567
0.033587
0.032580
0.031549
0.030495
0.029418
0.028321
0.027202
0.026065
0.024908
0.023731
0.022536
0.021320
0.020084
0.018823
0.017536
0.016218
0.014860
0.013454
0.011982
0.010422
0.008738
0.251664
0.210672
0.158871
0.107963
0.059854
0.014429
-0.028817
-0.070221
-0.107941
-0.138373
-0.149922
-0.148283
-0.144396
-0.141357
-0.139241
-0.137657
-0.136185
-0.134546
-0.132583
-0.130186
-0.127273
-0.123778
-0.119655
-0.114878
-0.109448
-0.103391
-0.096761
-0.089638
-0.082114
-0.074298
-0.066300
-0.058234
-0.050203
-0.042307
-0.034629
-0.027244
-0.020207
-0.013565
-0.007346
-0.001570
0.003756
0.008635
0.013076
0.017095
0.020714
0.023954
0.026843
0.029406
0.031669
0.033658
0.035397
0.036908
0.038212
0.039329
0.040275
0.041065
0.041714
0.042232
0.042631
0.042921
0.043107
0.043199
0.043202
0.043121
0.042962
0.042727
0.042423
0.042050
0.041618
0.041120
0.040564
0.039954
0.039295
0.038590
0.037841
0.037049
0.036218
0.035349
0.034445
0.033508
0.032539
0.031540
0.030514
0.029461
0.028384
0.027283
0.026160
0.025015
0.023849
0.022663
0.021455
0.020225
0.018971
0.017691
0.016381
0.015033
0.013639
0.012185
0.010649
0.009000
0.190587
0.175095
0.143534
0.105393
0.065090
0.024779
-0.014304
-0.050953
-0.082862
-0.107844
-0.122606
-0.128784
-0.130817
-0.131286
-0.131157
-0.130682
-0.129850
-0.128594
-0.126854
-0.124584
-0.121747
-0.118319
-0.114286
-0.109650
-0.104433
-0.098673
-0.092430
-0.085776
-0.078799
-0.071591
-0.064248
-0.056866
-0.049533
-0.042329
-0.035325
-0.028580
-0.022140
-0.016041
-0.010306
-0.004949
0.000026
0.004620
0.008843
0.012707
0.016230
0.019431
0.022329
0.024945
0.027299
0.029411
0.031299
0.032981
0.034473
0.035789
0.036942
0.037944
0.038806
0.039537
0.040145
0.040639
0.041023
0.041306
0.041490
0.041583
0.041585
0.041504
0.041345
0.041098
0.040771
0.040381
0.039928
0.039414
0.038842
0.038216
0.037537
0.036809
0.036035
0.035216
0.034356
0.033458
0.032523
0.031554
0.030552
0.029522
0.028463
0.027377
0.026267
0.025134
0.023977
0.022799
0.021600
0.020378
0.019134
0.017865
0.016568
0.015240
0.013872
0.012455
0.010973
0.009406
0.162747
0.154798
0.133484
0.104036
0.070327
0.035073
0.000260
-0.032445
-0.061179
-0.084343
-0.100709
-0.110929
-0.116944
-0.120406
-0.122304
-0.123143
-0.123155
-0.122443
-0.121057
-0.119022
-0.116358
-0.113080
-0.109209
-0.104774
-0.099814
-0.094379
-0.088532
-0.082344
-0.075894
-0.069263
-0.062533
-0.055783
-0.049087
-0.042511
-0.036111
-0.029935
-0.024019
-0.018392
-0.013070
-0.008066
-0.003382
0.000983
0.005037
0.008789
0.012252
0.015440
0.018368
0.021050
0.023502
0.025738
0.027771
0.029613
0.031278
0.032775
0.034114
0.035304
0.036355
0.037271
0.038062
0.038732
0.039286
0.039734
0.040072
0.040317
0.040455
0.040485
0.040421
0.040283
0.040066
0.039775
0.039412
0.038980
0.038483
0.037924
0.037305
0.036631
0.035904
0.035128
0.034305
0.033439
0.032532
0.031587
0.030607
0.029594
0.028550
0.027478
0.026379
0.025255
0.024107
0.022937
0.021745
0.020532
0.019298
0.018042
0.016763
0.015458
0.014124
0.012754
0.011343
0.009884
0.152815
0.147137
0.130181
0.105154
0.075255
0.043165
0.011111
-0.019023
-0.045688
-0.067809
-0.084801
-0.096971
-0.105286
-0.110780
-0.114248
-0.116219
-0.117020
-0.116852
-0.115841
-0.114075
-0.111619
-0.108526
-0.104847
-0.100632
-0.095937
-0.090821
-0.085348
-0.079587
-0.073610
-0.067488
-0.061292
-0.055086
-0.048932
-0.042883
-0.036983
-0.031272
-0.025778
-0.020523
-0.015522
-0.010785
-0.006314
-0.002109
0.001834
0.005522
0.008962
0.012165
0.015140
0.017897
0.020447
0.022799
0.024962
0.026946
0.028759
0.030409
0.031903
0.033248
0.034451
0.035518
0.036456
0.037266
0.037954
0.038543
0.038991
0.039313
0.039539
0.039674
0.039716
0.039670
0.039539
0.039326
0.039034
0.038666
0.038227
0.037720
0.037148
0.036516
0.035826
0.035082
0.034288
0.033447
0.032562
0.031635
0.030671
0.029671
0.028639
0.027576
0.026485
0.025368
0.024227
0.023064
0.021879
0.020674
0.019449
0.018206
0.016944
0.015663
0.014362
0.013040
0.011698
0.010342
0.155600
0.149981
0.133277
0.108752
0.079675
0.048798
0.018257
-0.010291
-0.035628
-0.056991
-0.074071
-0.087075
-0.096584
-0.103289
-0.107802
-0.110599
-0.112021
-0.112308
-0.111632
-0.110120
-0.107872
-0.104970
-0.101486
-0.097489
-0.093044
-0.088216
-0.083072
-0.077676
-0.072095
-0.066390
-0.060621
-0.054845
-0.049110
-0.043460
-0.037934
-0.032562
-0.027368
-0.022372
-0.017586
-0.013020
-0.008679
-0.004563
-0.000672
0.002997
0.006448
0.009688
0.012721
0.015554
0.018194
0.020648
0.022920
0.025018
0.026948
0.028716
0.030327
0.031788
0.033107
0.034283
0.035332
0.036249
0.037018
0.037642
0.038172
0.038593
0.038908
0.039122
0.039238
0.039259
0.039188
0.039030
0.038788
0.038466
0.038068
0.037598
0.037059
0.036456
0.035792
0.035072
0.034297
0.033473
0.032603
0.031689
0.030736
0.029745
0.028720
0.027664
0.026579
0.025467
0.024330
0.023171
0.021991
0.020792
0.019575
0.018342
0.017095
0.015833
0.014559
0.013275
0.011985
0.010705
0.170998
0.163332
0.143009
0.115355
0.084317
0.052640
0.022215
-0.005669
-0.030186
-0.050908
-0.067757
-0.080962
-0.090964
-0.098278
-0.103390
-0.106707
-0.108552
-0.109172
-0.108757
-0.107457
-0.105392
-0.102662
-0.099356
-0.095550
-0.091319
-0.086728
-0.081844
-0.076729
-0.071442
-0.066040
-0.060573
-0.055091
-0.049636
-0.044247
-0.038955
-0.033788
-0.028770
-0.023917
-0.019243
-0.014758
-0.010469
-0.006380
-0.002492
0.001195
0.004681
0.007970
0.011064
0.013968
0.016684
0.019219
0.021575
0.023757
0.025771
0.027623
0.029316
0.030855
0.032259
0.033502
0.034588
0.035538
0.036374
0.037084
0.037678
0.038160
0.038531
0.038796
0.038958
0.039021
0.038989
0.038866
0.038656
0.038363
0.037990
0.037543
0.037025
0.036440
0.035792
0.035086
0.034323
0.033510
0.032648
0.031742
0.030795
0.029810
0.028789
0.027736
0.026654
0.025544
0.024410
0.023254
0.022077
0.020882
0.019670
0.018444
0.017206
0.015957
0.014700
0.013439
0.012179
0.010937
0.203733
0.188773
0.159016
0.124037
0.088364
0.054272
0.022996
-0.004784
-0.028753
-0.048865
-0.065279
-0.078311
-0.088366
-0.095875
-0.101242
-0.104820
-0.106899
-0.107719
-0.107473
-0.106319
-0.104386
-0.101784
-0.098608
-0.094941
-0.090858
-0.086426
-0.081710
-0.076769
-0.071657
-0.066428
-0.061127
-0.055800
-0.050486
-0.045219
-0.040032
-0.034950
-0.029995
-0.025186
-0.020538
-0.016062
-0.011766
-0.007656
-0.003736
-0.000009
0.003525
0.006868
0.010019
0.012983
0.015760
0.018356
0.020773
0.023015
0.025086
0.026995
0.028742
0.030322
0.031734
0.033016
0.034159
0.035167
0.036046
0.036800
0.037433
0.037949
0.038351
0.038644
0.038832
0.038919
0.038908
0.038804
0.038611
0.038334
0.037975
0.037540
0.037033
0.036458
0.035818
0.035119
0.034362
0.033554
0.032697
0.031794
0.030849
0.029866
0.028847
0.027795
0.026713
0.025604
0.024471
0.023315
0.022138
0.020945
0.019735
0.018512
0.017278
0.016035
0.014786
0.013534
0.012285
0.011050
0.268592
0.228412
0.179160
0.132539
0.090587
0.053477
0.021092
-0.006751
-0.030294
-0.049853
-0.065792
-0.078509
-0.088412
-0.095888
-0.101294
-0.104943
-0.107103
-0.107999
-0.107823
-0.106730
-0.104855
-0.102310
-0.099191
-0.095583
-0.091560
-0.087191
-0.082536
-0.077654
-0.072597
-0.067417
-0.062158
-0.056864
-0.051573
-0.046319
-0.041134
-0.036044
-0.031072
-0.026237
-0.021556
-0.017040
-0.012699
-0.008541
-0.004571
-0.000791
0.002797
0.006192
0.009396
0.012410
0.015237
0.017879
0.020343
0.022627
0.024734
0.026666
0.028434
0.030050
0.031509
0.032823
0.033996
0.035032
0.035936
0.036713
0.037365
0.037898
0.038317
0.038624
0.038824
0.038922
0.038921
0.038825
0.038640
0.038368
0.038015
0.037585
0.037082
0.036509
0.035872
0.035174
0.034419
0.033611
0.032754
0.031851
0.030906
0.029922
0.028902
0.027849
0.026766
0.025655
0.024520
0.023363
0.022185
0.020990
0.019780
0.018556
0.017322
0.016079
0.014830
0.013579
0.012329
0.011085
0.397491
0.270926
0.193550
0.136514
0.090258
0.051333
0.018291
-0.009648
-0.033039
-0.052369
-0.068094
-0.080649
-0.090440
-0.097844
-0.103202
-0.106813
-0.108938
-0.109799
-0.109585
-0.108454
-0.106541
-0.103957
-0.100801
-0.097156
-0.093096
-0.088690
-0.083997
-0.079076
-0.073978
-0.068753
-0.063447
-0.058101
-0.052755
-0.047444
-0.042199
-0.037046
-0.032010
-0.027111
-0.022365
-0.017785
-0.013381
-0.009162
-0.005132
-0.001296
0.002346
0.005793
0.009045
0.012104
0.014973
0.017654
0.020149
0.022464
0.024603
0.026568
0.028367
0.030006
0.031489
0.032823
0.034014
0.035065
0.035982
0.036770
0.037432
0.037973
0.038398
0.038711
0.038916
0.039016
0.039018
0.038924
0.038739
0.038468
0.038114
0.037683
0.037178
0.036604
0.035964
0.035264
0.034506
0.033695
0.032835
0.031929
0.030980
0.029992
0.028969
0.027912
0.026826
0.025712
0.024573
0.023412
0.022231
0.021033
0.019819
0.018591
0.017353
0.016106
0.014853
0.013598
0.012342
0.011090
