# vtk DataFile Version 3.0
Scalar Field
ASCII
DATASET RECTILINEAR_GRID
DIMENSIONS 100 20 1
X_COORDINATES 100 double
0.050000 0.150000 0.250000 0.350000 0.450000 0.550000 0.650000 0.750000 0.850000 0.950000 1.050000 1.150000 1.250000 1.350000 1.450000 1.550000 1.650000 1.750000 1.850000 1.950000 2.050000 2.150000 2.250000 2.350000 2.450000 2.550000 2.650000 2.750000 2.850000 2.950000 3.050000 3.150000 3.250000 3.350000 3.450000 3.550000 3.650000 3.750000 3.850000 3.950000 4.050000 4.150000 4.250000 4.350000 4.450000 4.550000 4.650000 4.750000 4.850000 4.950000 5.050000 5.150000 5.250000 5.350000 5.450000 5.550000 5.650000 5.750000 5.850000 5.950000 6.050000 6.150000 6.250000 6.350000 6.450000 6.550000 6.650000 6.750000 6.850000 6.950000 7.050000 7.150000 7.250000 7.350000 7.450000 7.550000 7.650000 7.750000 7.850000 7.950000 8.050000 8.150000 8.250000 8.350000 8.450000 8.550000 8.650000 8.750000 8.850000 8.950000 9.050000 9.150000 9.250000 9.350000 9.450000 9.550000 9.650000 9.750000 9.850000 9.950000 
Y_COORDINATES 20 double
0.050000 0.150000 0.250000 0.350000 0.450000 0.550000 0.650000 0.750000 0.850000 0.950000 1.050000 1.150000 1.250000 1.350000 1.450000 1.550000 1.650000 1.750000 1.850000 1.950000 
Z_COORDINATES 1 double
0.0
POINT_DATA 2000
SCALARS Skalarfeld double 1
LOOKUP_TABLE default
0.000000
0.000000
0.000000
0.000000
0.000000
0.000000
0.000000
0.000000
0.000000
-0.143863
-0.143863
-0.144422
-0.144880
-0.145036
-0.144859
-0.144360
-0.143537
-0.142371
-0.140822
-0.138836
-0.136342
-0.133256
-0.129483
-0.124928
-0.119504
-0.113152
-0.105850
-0.097615
-0.088514
-0.078660
-0.068229
-0.057427
-0.046438
-0.035444
-0.024613
-0.014100
-0.004050
0.005423
0.014243
0.022369
0.029735
0.036315
0.042147
0.047209
0.051523
0.055140
0.058088
0.060428
0.062217
0.063514
0.064373
0.064849
0.064990
0.064843
0.064451
0.063852
0.063080
0.062167
0.061140
0.060021
0.058831
0.057587
0.056304
0.054993
0.053664
0.052326
0.050985
0.049646
0.048311
0.046985
0.045669
0.044364
0.043070
0.041788
0.040517
0.039258
0.038008
0.036766
0.035533
0.034307
0.033086
0.031869
0.030655
0.029444
0.028233
0.027022
0.025810
0.024596
0.023379
0.022158
0.020933
0.019704
0.018469
0.017230
0.015986
0.014737
0.013483
0.012227
0.010969
0.009711
0.000000
0.000000
0.000000
0.000000
0.000000
0.000000
0.000000
0.000000
0.000000
-0.143306
-0.143306
-0.143909
-0.144261
-0.144339
-0.144136
-0.143642
-0.142838
-0.141695
-0.140173
-0.138220
-0.135775
-0.132761
-0.129088
-0.124661
-0.119390
-0.113204
-0.106072
-0.098003
-0.089049
-0.079346
-0.069053
-0.058345
-0.047432
-0.036503
-0.025721
-0.015239
-0.005207
0.004254
0.013063
0.021213
0.028600
0.035181
0.041082
0.046206
0.050572
0.054232
0.057231
0.059623
0.061466
0.062816
0.063728
0.064254
0.064445
0.064346
0.063999
0.063443
0.062712
0.061837
0.060845
0.059759
0.058599
0.057383
0.056125
0.054837
0.053530
0.052210
0.050886
0.049561
0.048239
0.046924
0.045618
0.044321
0.043035
0.041759
0.040494
0.039238
0.037991
0.036753
0.035522
0.034297
0.033078
0.031862
0.030649
0.029437
0.028227
0.027016
0.025803
0.024589
0.023371
0.022150
0.020925
0.019695
0.018461
0.017221
0.015977
0.014728
0.013476
0.012220
0.010964
0.009708
0.000000
0.000000
0.000000
0.000000
0.000000
0.000000
0.000000
0.000000
0.000000
-0.142967
-0.142967
-0.143772
-0.144135
-0.144189
-0.143980
-0.143502
-0.142732
-0.141636
-0.140179
-0.138317
-0.135994
-0.133141
-0.129666
-0.125458
-0.120402
-0.114402
-0.107422
-0.099461
-0.090552
-0.080820
-0.070471
-0.059707
-0.048745
-0.037783
-0.026963
-0.016426
-0.006349
0.003133
0.011912
0.020176
0.027622
0.034278
0.040182
0.045321
0.049715
0.053404
0.056434
0.058860
0.060738
0.062122
0.063070
0.063632
0.063859
0.063796
0.063485
0.062965
0.062269
0.061429
0.060470
0.059416
0.058288
0.057101
0.055871
0.054609
0.053326
0.052030
0.050726
0.049420
0.048117
0.046818
0.045526
0.044243
0.042968
0.041703
0.040446
0.039199
0.037959
0.036727
0.035501
0.034281
0.033065
0.031852
0.030641
0.029432
0.028223
0.027013
0.025801
0.024587
0.023370
0.022148
0.020923
0.019692
0.018457
0.017216
0.015970
0.014719
0.013464
0.012205
0.010947
0.009692
0.000000
0.000000
0.000000
0.000000
0.000000
0.000000
0.000000
0.000000
0.000000
-0.143432
-0.143432
-0.144408
-0.144794
-0.144834
-0.144610
-0.144129
-0.143373
-0.142315
-0.140927
-0.139173
-0.137011
-0.134371
-0.131153
-0.127213
-0.122389
-0.116536
-0.109652
-0.101534
-0.092485
-0.082608
-0.072134
-0.061255
-0.050216
-0.039228
-0.028360
-0.017721
-0.007601
0.001934
0.010815
0.019037
0.026495
0.033171
0.039078
0.044222
0.048626
0.052330
0.055381
0.057831
0.059737
0.061153
0.062135
0.062735
0.063001
0.062980
0.062712
0.062236
0.061586
0.060791
0.059877
0.058868
0.057783
0.056639
0.055450
0.054228
0.052982
0.051721
0.050450
0.049176
0.047901
0.046629
0.045362
0.044101
0.042847
0.041600
0.040360
0.039127
0.037900
0.036680
0.035464
0.034252
0.033044
0.031838
0.030633
0.029428
0.028222
0.027015
0.025805
0.024592
0.023376
0.022154
0.020928
0.019696
0.018457
0.017213
0.015962
0.014704
0.013442
0.012175
0.010906
0.009642
0.000000
0.000000
0.000000
0.000000
0.000000
0.000000
0.000000
0.000000
0.000000
-0.145161
-0.145161
-0.146172
-0.146465
-0.146385
-0.146051
-0.145484
-0.144673
-0.143602
-0.142243
-0.140568
-0.138548
-0.136103
-0.133132
-0.129420
-0.124761
-0.118875
-0.111559
-0.103290
-0.094192
-0.084128
-0.073567
-0.062674
-0.051597
-0.040530
-0.029622
-0.019025
-0.008914
0.000609
0.009477
0.017647
0.025064
0.031708
0.037582
0.042701
0.047092
0.050793
0.053851
0.056319
0.058251
0.059702
0.060725
0.061372
0.061692
0.061728
0.061521
0.061110
0.060525
0.059797
0.058950
0.058008
0.056989
0.055910
0.054783
0.053621
0.052433
0.051227
0.050009
0.048783
0.047554
0.046324
0.045095
0.043870
0.042648
0.041431
0.040217
0.039009
0.037804
0.036602
0.035403
0.034206
0.033011
0.031815
0.030620
0.029423
0.028224
0.027021
0.025816
0.024606
0.023390
0.022169
0.020942
0.019707
0.018464
0.017213
0.015954
0.014685
0.013407
0.012122
0.010832
0.009544
0.000000
0.000000
0.000000
0.000000
0.000000
0.000000
0.000000
0.000000
0.000000
-0.148537
-0.148537
-0.149294
-0.149161
-0.148682
-0.148030
-0.147230
-0.146265
-0.145112
-0.143721
-0.142052
-0.140115
-0.137760
-0.134956
-0.131291
-0.126244
-0.120018
-0.112677
-0.104310
-0.095058
-0.085018
-0.074456
-0.063571
-0.052537
-0.041534
-0.030721
-0.020249
-0.010260
-0.000855
0.007895
0.015941
0.023245
0.029791
0.035582
0.040636
0.044980
0.048655
0.051706
0.054183
0.056141
0.057632
0.058708
0.059419
0.059811
0.059928
0.059807
0.059486
0.058995
0.058363
0.057612
0.056766
0.055842
0.054855
0.053818
0.052743
0.051638
0.050510
0.049366
0.048211
0.047047
0.045878
0.044705
0.043531
0.042357
0.041182
0.040008
0.038834
0.037661
0.036487
0.035313
0.034138
0.032961
0.031782
0.030601
0.029416
0.028226
0.027032
0.025833
0.024627
0.023414
0.022194
0.020965
0.019727
0.018479
0.017220
0.015948
0.014663
0.013363
0.012049
0.010721
0.009386
0.000000
0.000000
0.000000
0.000000
0.000000
0.000000
0.000000
0.000000
0.000000
-0.154088
-0.154088
-0.153865
-0.152573
-0.151210
-0.149967
-0.148786
-0.147595
-0.146332
-0.144857
-0.143132
-0.141342
-0.138947
-0.135753
-0.131509
-0.126269
-0.119936
-0.112532
-0.104145
-0.094906
-0.084967
-0.074535
-0.063806
-0.052962
-0.042175
-0.031601
-0.021382
-0.011644
-0.002479
0.006041
0.013871
0.020981
0.027359
0.033010
0.037953
0.042217
0.045841
0.048870
0.051352
0.053338
0.054878
0.056022
0.056816
0.057304
0.057527
0.057523
0.057323
0.056958
0.056453
0.055832
0.055114
0.054317
0.053453
0.052537
0.051577
0.050582
0.049559
0.048514
0.047451
0.046374
0.045285
0.044187
0.043082
0.041970
0.040852
0.039729
0.038602
0.037470
0.036333
0.035192
0.034046
0.032895
0.031738
0.030576
0.029407
0.028231
0.027048
0.025857
0.024658
0.023449
0.022231
0.021002
0.019761
0.018507
0.017238
0.015951
0.014646
0.013318
0.011965
0.010584
0.009177
0.000000
0.000000
0.000000
0.000000
0.000000
0.000000
0.000000
0.000000
0.000000
-0.163083
-0.163083
-0.159779
-0.155905
-0.153068
-0.151198
-0.149614
-0.148100
-0.146827
-0.145314
-0.143480
-0.141080
-0.138264
-0.134764
-0.130355
-0.124964
-0.118550
-0.111139
-0.102819
-0.093718
-0.083993
-0.073828
-0.063407
-0.052905
-0.042485
-0.032294
-0.022463
-0.013102
-0.004297
0.003888
0.011411
0.018248
0.024392
0.029849
0.034640
0.038793
0.042347
0.045343
0.047827
0.049845
0.051446
0.052674
0.053573
0.054184
0.054542
0.054684
0.054637
0.054431
0.054088
0.053629
0.053072
0.052433
0.051724
0.050957
0.050141
0.049283
0.048390
0.047468
0.046520
0.045549
0.044560
0.043554
0.042532
0.041497
0.040449
0.039390
0.038319
0.037238
0.036147
0.035046
0.033936
0.032816
0.031687
0.030548
0.029399
0.028240
0.027071
0.025891
0.024700
0.023498
0.022283
0.021054
0.019811
0.018552
0.017273
0.015972
0.014645
0.013287
0.011890
0.010447
0.008949
0.000000
0.000000
0.000000
0.000000
0.000000
0.000000
0.000000
0.000000
0.000000
-0.178739
-0.178739
-0.166268
-0.157774
-0.153084
-0.150988
-0.149039
-0.147477
-0.145718
-0.143871
-0.141834
-0.139325
-0.136279
-0.132533
-0.127941
-0.122430
-0.115982
-0.108634
-0.100472
-0.091620
-0.082227
-0.072459
-0.062484
-0.052463
-0.042546
-0.032868
-0.023545
-0.014674
-0.006332
0.001427
0.008565
0.015064
0.020920
0.026142
0.030749
0.034770
0.038240
0.041198
0.043686
0.045747
0.047422
0.048753
0.049780
0.050537
0.051059
0.051374
0.051512
0.051494
0.051342
0.051075
0.050708
0.050256
0.049728
0.049136
0.048488
0.047790
0.047049
0.046268
0.045454
0.044607
0.043733
0.042832
0.041908
0.040961
0.039994
0.039007
0.038002
0.036979
0.035940
0.034886
0.033817
0.032733
0.031635
0.030523
0.029397
0.028258
0.027104
0.025938
0.024757
0.023562
0.022352
0.021126
0.019882
0.018619
0.017333
0.016020
0.014675
0.013289
0.011852
0.010348
0.008757
0.378727
0.251258
0.171132
0.109539
0.056782
0.009053
-0.035738
-0.079514
-0.125400
-0.189425
-0.206453
-0.168955
-0.155996
-0.151016
-0.147969
-0.146289
-0.144779
-0.143115
-0.141238
-0.139039
-0.136362
-0.133103
-0.129150
-0.124408
-0.118831
-0.112419
-0.105216
-0.097308
-0.088811
-0.079859
-0.070602
-0.061190
-0.051766
-0.042463
-0.033399
-0.024678
-0.016382
-0.008577
-0.001310
0.005389
0.011506
0.017040
0.022001
0.026407
0.030286
0.033669
0.036591
0.039091
0.041204
0.042970
0.044422
0.045596
0.046522
0.047229
0.047743
0.048087
0.048281
0.048344
0.048291
0.048136
0.047890
0.047563
0.047165
0.046701
0.046179
0.045604
0.044980
0.044311
0.043600
0.042851
0.042065
0.041246
0.040395
0.039514
0.038606
0.037672
0.036713
0.035733
0.034729
0.033703
0.032657
0.031592
0.030508
0.029406
0.028287
0.027151
0.025998
0.024829
0.023642
0.022439
0.021217
0.019975
0.018711
0.017422
0.016103
0.014747
0.013343
0.011878
0.010330
0.008668
0.378727
0.251258
0.171132
0.109539
0.056782
0.009053
-0.035738
-0.079514
-0.125400
-0.172396
-0.178210
-0.163436
-0.153289
-0.147866
-0.144749
-0.142797
-0.141164
-0.139450
-0.137481
-0.135133
-0.132289
-0.128859
-0.124764
-0.119948
-0.114390
-0.108104
-0.101141
-0.093583
-0.085535
-0.077118
-0.068462
-0.059697
-0.050949
-0.042332
-0.033949
-0.025886
-0.018214
-0.010988
-0.004245
0.001990
0.007707
0.012907
0.017600
0.021805
0.025545
0.028847
0.031744
0.034267
0.036447
0.038317
0.039906
0.041243
0.042353
0.043261
0.043988
0.044553
0.044972
0.045262
0.045434
0.045501
0.045472
0.045355
0.045158
0.044887
0.044547
0.044144
0.043681
0.043161
0.042590
0.041969
0.041301
0.040590
0.039837
0.039045
0.038218
0.037356
0.036461
0.035536
0.034583
0.033602
0.032594
0.031563
0.030508
0.029431
0.028332
0.027214
0.026075
0.024918
0.023741
0.022545
0.021329
0.020092
0.018831
0.017543
0.016224
0.014867
0.013459
0.011987
0.010426
0.008741
0.251666
0.210674
0.158873
0.107965
0.059855
0.014430
-0.028817
-0.070223
-0.107943
-0.138376
-0.149926
-0.148288
-0.144400
-0.141361
-0.139244
-0.137660
-0.136186
-0.134547
-0.132583
-0.130185
-0.127270
-0.123773
-0.119648
-0.114868
-0.109434
-0.103372
-0.096738
-0.089609
-0.082080
-0.074257
-0.066253
-0.058180
-0.050144
-0.042241
-0.034559
-0.027168
-0.020128
-0.013482
-0.007261
-0.001484
0.003844
0.008723
0.013163
0.017182
0.020799
0.024038
0.026925
0.029485
0.031746
0.033732
0.035468
0.036976
0.038277
0.039391
0.040334
0.041122
0.041768
0.042284
0.042680
0.042967
0.043151
0.043241
0.043241
0.043158
0.042996
0.042760
0.042454
0.042079
0.041645
0.041146
0.040589
0.039977
0.039317
0.038611
0.037860
0.037067
0.036235
0.035365
0.034460
0.033522
0.032552
0.031553
0.030525
0.029472
0.028394
0.027292
0.026168
0.025023
0.023856
0.022668
0.021459
0.020229
0.018974
0.017693
0.016382
0.015033
0.013638
0.012182
0.010644
0.008991
0.190589
0.175097
0.143536
0.105395
0.065092
0.024780
-0.014303
-0.050952
-0.082862
-0.107845
-0.122607
-0.128786
-0.130818
-0.131287
-0.131156
-0.130680
-0.129847
-0.128590
-0.126848
-0.124576
-0.121737
-0.118306
-0.114270
-0.109632
-0.104410
-0.098646
-0.092398
-0.085739
-0.078756
-0.071542
-0.064194
-0.056806
-0.049468
-0.042259
-0.035251
-0.028502
-0.022059
-0.015957
-0.010220
-0.004861
0.000114
0.004708
0.008930
0.012794
0.016316
0.019514
0.022410
0.025024
0.027376
0.029485
0.031371
0.033050
0.034539
0.035853
0.037003
0.038003
0.038862
0.039590
0.040196
0.040687
0.041069
0.041349
0.041531
0.041621
0.041621
0.041537
0.041378
0.041129
0.040801
0.040408
0.039954
0.039438
0.038865
0.038237
0.037557
0.036828
0.036052
0.035232
0.034371
0.033471
0.032535
0.031565
0.030563
0.029531
0.028471
0.027384
0.026273
0.025138
0.023981
0.022802
0.021601
0.020378
0.019132
0.017862
0.016564
0.015233
0.013864
0.012444
0.010959
0.009387
0.162750
0.154801
0.133486
0.104039
0.070330
0.035075
0.000262
-0.032443
-0.061178
-0.084341
-0.100707
-0.110927
-0.116941
-0.120402
-0.122299
-0.123137
-0.123147
-0.122433
-0.121045
-0.119008
-0.116341
-0.113060
-0.109185
-0.104747
-0.099782
-0.094343
-0.088492
-0.082299
-0.075843
-0.069206
-0.062471
-0.055716
-0.049016
-0.042436
-0.036032
-0.029853
-0.023934
-0.018305
-0.012982
-0.007977
-0.003293
0.001073
0.005126
0.008877
0.012338
0.015524
0.018450
0.021130
0.023580
0.025813
0.027844
0.029684
0.031346
0.032840
0.034177
0.035365
0.036412
0.037327
0.038115
0.038782
0.039334
0.039780
0.040114
0.040356
0.040493
0.040523
0.040456
0.040316
0.040097
0.039803
0.039438
0.039005
0.038506
0.037945
0.037325
0.036649
0.035921
0.035143
0.034319
0.033451
0.032543
0.031597
0.030616
0.029601
0.028556
0.027482
0.026382
0.025256
0.024107
0.022936
0.021742
0.020528
0.019292
0.018034
0.016753
0.015446
0.014109
0.012737
0.011322
0.009856
0.152818
0.147140
0.130184
0.105158
0.075258
0.043168
0.011114
-0.019019
-0.045685
-0.067806
-0.084797
-0.096966
-0.105280
-0.110773
-0.114239
-0.116208
-0.117007
-0.116836
-0.115823
-0.114054
-0.111595
-0.108499
-0.104816
-0.100598
-0.095898
-0.090777
-0.085299
-0.079534
-0.073552
-0.067425
-0.061224
-0.055014
-0.048856
-0.042803
-0.036901
-0.031187
-0.025690
-0.020434
-0.015432
-0.010694
-0.006223
-0.002018
0.001924
0.005610
0.009049
0.012250
0.015223
0.017979
0.020526
0.022876
0.025037
0.027019
0.028829
0.030476
0.031968
0.033310
0.034511
0.035575
0.036510
0.037318
0.038003
0.038589
0.039036
0.039357
0.039580
0.039713
0.039752
0.039704
0.039570
0.039355
0.039060
0.038691
0.038250
0.037741
0.037168
0.036533
0.035842
0.035097
0.034301
0.033458
0.032571
0.031644
0.030678
0.029677
0.028643
0.027579
0.026486
0.025368
0.024225
0.023060
0.021873
0.020666
0.019440
0.018194
0.016930
0.015646
0.014342
0.013017
0.011671
0.010308
0.155604
0.149984
0.133281
0.108756
0.079679
0.048802
0.018261
-0.010286
-0.035623
-0.056985
-0.074064
-0.087067
-0.096575
-0.103278
-0.107790
-0.110584
-0.112004
-0.112288
-0.111609
-0.110094
-0.107842
-0.104936
-0.101449
-0.097448
-0.092998
-0.088166
-0.083017
-0.077617
-0.072031
-0.066322
-0.060549
-0.054769
-0.049030
-0.043378
-0.037849
-0.032474
-0.027279
-0.022281
-0.017495
-0.012928
-0.008587
-0.004472
-0.000582
0.003086
0.006536
0.009774
0.012806
0.015637
0.018275
0.020726
0.022997
0.025092
0.027020
0.028785
0.030394
0.031853
0.033169
0.034342
0.035387
0.036302
0.037070
0.037691
0.038219
0.038637
0.038950
0.039161
0.039274
0.039293
0.039220
0.039059
0.038815
0.038491
0.038091
0.037619
0.037078
0.036473
0.035807
0.035085
0.034309
0.033483
0.032611
0.031696
0.030741
0.029749
0.028722
0.027664
0.026577
0.025463
0.024325
0.023164
0.021982
0.020781
0.019562
0.018327
0.017077
0.015812
0.014535
0.013248
0.011954
0.010667
0.171002
0.163336
0.143013
0.115359
0.084322
0.052645
0.022220
-0.005663
-0.030180
-0.050901
-0.067748
-0.080952
-0.090953
-0.098265
-0.103374
-0.106689
-0.108532
-0.109149
-0.108731
-0.107427
-0.105358
-0.102625
-0.099314
-0.095505
-0.091269
-0.086674
-0.081786
-0.076667
-0.071376
-0.065969
-0.060499
-0.055013
-0.049555
-0.044163
-0.038868
-0.033700
-0.028680
-0.023826
-0.019151
-0.014666
-0.010377
-0.006288
-0.002401
0.001285
0.004770
0.008057
0.011150
0.014051
0.016766
0.019298
0.021652
0.023832
0.025844
0.027693
0.029383
0.030920
0.032321
0.033562
0.034647
0.035593
0.036426
0.037133
0.037725
0.038204
0.038572
0.038835
0.038994
0.039055
0.039020
0.038895
0.038682
0.038387
0.038012
0.037563
0.037043
0.036456
0.035806
0.035098
0.034334
0.033519
0.032655
0.031748
0.030799
0.029812
0.028789
0.027735
0.026651
0.025539
0.024403
0.023245
0.022066
0.020869
0.019655
0.018426
0.017185
0.015933
0.014673
0.013409
0.012146
0.010898
0.203737
0.188777
0.159020
0.124041
0.088369
0.054277
0.023002
-0.004777
-0.028746
-0.048856
-0.065269
-0.078299
-0.088353
-0.095860
-0.101225
-0.104799
-0.106876
-0.107694
-0.107444
-0.106286
-0.104349
-0.101744
-0.098564
-0.094893
-0.090806
-0.086370
-0.081650
-0.076705
-0.071589
-0.066356
-0.061052
-0.055721
-0.050404
-0.045135
-0.039945
-0.034861
-0.029905
-0.025095
-0.020447
-0.015970
-0.011674
-0.007565
-0.003646
0.000081
0.003614
0.006955
0.010105
0.013066
0.015842
0.018436
0.020851
0.023090
0.025158
0.027065
0.028810
0.030388
0.031798
0.033076
0.034217
0.035222
0.036098
0.036849
0.037479
0.037992
0.038392
0.038683
0.038868
0.038952
0.038939
0.038833
0.038637
0.038357
0.037997
0.037560
0.037050
0.036473
0.035831
0.035130
0.034372
0.033561
0.032702
0.031798
0.030851
0.029866
0.028845
0.027792
0.026708
0.025598
0.024462
0.023304
0.022126
0.020930
0.019718
0.018492
0.017256
0.016010
0.014758
0.013503
0.012250
0.011010
0.268597
0.228417
0.179165
0.132544
0.090593
0.053483
0.021098
-0.006743
-0.030286
-0.049843
-0.065781
-0.078497
-0.088398
-0.095872
-0.101276
-0.104922
-0.107079
-0.107973
-0.107793
-0.106697
-0.104818
-0.102270
-0.099147
-0.095535
-0.091508
-0.087134
-0.082475
-0.077589
-0.072529
-0.067345
-0.062083
-0.056786
-0.051492
-0.046236
-0.041048
-0.035956
-0.030983
-0.026147
-0.021465
-0.016949
-0.012608
-0.008450
-0.004480
-0.000702
0.002885
0.006279
0.009481
0.012494
0.015318
0.017959
0.020420
0.022702
0.024807
0.026736
0.028502
0.030115
0.031572
0.032883
0.034054
0.035087
0.035988
0.036762
0.037411
0.037942
0.038357
0.038662
0.038859
0.038954
0.038951
0.038853
0.038665
0.038391
0.038036
0.037603
0.037098
0.036523
0.035884
0.035184
0.034427
0.033618
0.032759
0.031854
0.030907
0.029921
0.028899
0.027844
0.026760
0.025647
0.024510
0.023351
0.022172
0.020974
0.019761
0.018535
0.017298
0.016053
0.014801
0.013547
0.012293
0.011046
0.397496
0.270931
0.193555
0.136519
0.090264
0.051339
0.018297
-0.009640
-0.033030
-0.052360
-0.068083
-0.080636
-0.090425
-0.097828
-0.103183
-0.106792
-0.108914
-0.109772
-0.109555
-0.108421
-0.106504
-0.103917
-0.100757
-0.097108
-0.093044
-0.088634
-0.083938
-0.079012
-0.073911
-0.068682
-0.063373
-0.058024
-0.052675
-0.047361
-0.042114
-0.036959
-0.031922
-0.027022
-0.022275
-0.017694
-0.013291
-0.009071
-0.005042
-0.001207
0.002434
0.005879
0.009130
0.012188
0.015054
0.017733
0.020226
0.022539
0.024676
0.026638
0.028434
0.030071
0.031552
0.032883
0.034071
0.035119
0.036034
0.036818
0.037478
0.038016
0.038438
0.038748
0.038950
0.039048
0.039047
0.038951
0.038763
0.038490
0.038134
0.037700
0.037193
0.036617
0.035975
0.035273
0.034513
0.033701
0.032838
0.031930
0.030980
0.029991
0.028965
0.027907
0.026819
0.025703
0.024563
0.023400
0.022217
0.021016
0.019800
0.018570
0.017329
0.016080
0.014824
0.013565
0.012306
0.011050
