# vtk DataFile Version 3.0
Vector Field
ASCII
DATASET RECTILINEAR_GRID
DIMENSIONS 100 20 1
X_COORDINATES 100 double
0.050000 0.150000 0.250000 0.350000 0.450000 0.550000 0.650000 0.750000 0.850000 0.950000 1.050000 1.150000 1.250000 1.350000 1.450000 1.550000 1.650000 1.750000 1.850000 1.950000 2.050000 2.150000 2.250000 2.350000 2.450000 2.550000 2.650000 2.750000 2.850000 2.950000 3.050000 3.150000 3.250000 3.350000 3.450000 3.550000 3.650000 3.750000 3.850000 3.950000 4.050000 4.150000 4.250000 4.350000 4.450000 4.550000 4.650000 4.750000 4.850000 4.950000 5.050000 5.150000 5.250000 5.350000 5.450000 5.550000 5.650000 5.750000 5.850000 5.950000 6.050000 6.150000 6.250000 6.350000 6.450000 6.550000 6.650000 6.750000 6.850000 6.950000 7.050000 7.150000 7.250000 7.350000 7.450000 7.550000 7.650000 7.750000 7.850000 7.950000 8.050000 8.150000 8.250000 8.350000 8.450000 8.550000 8.650000 8.750000 8.850000 8.950000 9.050000 9.150000 9.250000 9.350000 9.450000 9.550000 9.650000 9.750000 9.850000 9.950000 
Y_COORDINATES 20 double
0.050000 0.150000 0.250000 0.350000 0.450000 0.550000 0.650000 0.750000 0.850000 0.950000 1.050000 1.150000 1.250000 1.350000 1.450000 1.550000 1.650000 1.750000 1.850000 1.950000 
Z_COORDINATES 1 double
0.0
POINT_DATA 2000
VECTORS Vektorfeld double
0.500000 0.000000 0.0
0.000000 0.000000 0.0
0.000000 0.000000 0.0
0.000000 0.000000 0.0
0.000000 0.000000 0.0
0.000000 0.000000 0.0
0.000000 0.000000 0.0
0.000000 0.000000 0.0
0.000000 0.000000 0.0
0.000000 -0.000113 0.0
-0.000190 0.000190 0.0
-0.001949 0.001569 0.0
-0.005909 0.002392 0.0
-0.010989 0.002689 0.0
-0.016413 0.002735 0.0
-0.021865 0.002717 0.0
-0.027294 0.002712 0.0
-0.032749 0.002743 0.0
-0.038302 0.002810 0.0
-0.044009 0.002898 0.0
-0.049894 0.002987 0.0
-0.055931 0.003050 0.0
-0.062031 0.003050 0.0
-0.068034 0.002953 0.0
-0.073721 0.002733 0.0
-0.078835 0.002381 0.0
-0.083125 0.001909 0.0
-0.086370 0.001336 0.0
-0.088399 0.000693 0.0
-0.089118 0.000027 0.0
-0.088503 -0.000642 0.0
-0.086564 -0.001297 0.0
-0.083372 -0.001895 0.0
-0.079059 -0.002418 0.0
-0.073772 -0.002869 0.0
-0.067647 -0.003255 0.0
-0.060839 -0.003553 0.0
-0.053535 -0.003752 0.0
-0.045917 -0.003866 0.0
-0.038105 -0.003947 0.0
-0.030194 -0.003964 0.0
-0.022329 -0.003900 0.0
-0.014626 -0.003803 0.0
-0.007146 -0.003677 0.0
0.000038 -0.003507 0.0
0.006834 -0.003289 0.0
0.013185 -0.003062 0.0
0.019080 -0.002833 0.0
0.024518 -0.002605 0.0
0.029502 -0.002380 0.0
0.034043 -0.002161 0.0
0.038153 -0.001950 0.0
0.041851 -0.001748 0.0
0.045158 -0.001559 0.0
0.048097 -0.001381 0.0
0.050694 -0.001216 0.0
0.052973 -0.001063 0.0
0.054960 -0.000924 0.0
0.056682 -0.000798 0.0
0.058164 -0.000684 0.0
0.059428 -0.000581 0.0
0.060499 -0.000490 0.0
0.061398 -0.000409 0.0
0.062145 -0.000338 0.0
0.062759 -0.000276 0.0
0.063256 -0.000221 0.0
0.063652 -0.000175 0.0
0.063961 -0.000134 0.0
0.064195 -0.000100 0.0
0.064367 -0.000071 0.0
0.064485 -0.000047 0.0
0.064559 -0.000027 0.0
0.064596 -0.000010 0.0
0.064601 0.000004 0.0
0.064579 0.000018 0.0
0.064533 0.000028 0.0
0.064472 0.000034 0.0
0.064400 0.000038 0.0
0.064323 0.000039 0.0
0.064246 0.000039 0.0
0.064170 0.000037 0.0
0.064099 0.000034 0.0
0.064033 0.000031 0.0
0.063976 0.000027 0.0
0.063927 0.000022 0.0
0.063887 0.000017 0.0
0.063858 0.000012 0.0
0.063841 0.000006 0.0
0.063836 -0.000001 0.0
0.063845 -0.000008 0.0
0.063867 -0.000014 0.0
0.063902 -0.000021 0.0
0.063949 -0.000026 0.0
0.064006 -0.000031 0.0
0.064071 -0.000034 0.0
0.064139 -0.000034 0.0
0.064202 -0.000029 0.0
0.064251 -0.000019 0.0
0.064271 -0.000001 0.0
0.064251 0.000021 0.0
0.500000 0.000000 0.0
0.000000 0.000000 0.0
0.000000 0.000000 0.0
0.000000 0.000000 0.0
0.000000 0.000000 0.0
0.000000 0.000000 0.0
0.000000 0.000000 0.0
0.000000 0.000000 0.0
0.000000 0.000000 0.0
0.000000 -0.000181 0.0
-0.001949 0.002328 0.0
-0.008558 0.007798 0.0
-0.019260 0.010825 0.0
-0.031808 0.011884 0.0
-0.044834 0.011991 0.0
-0.057734 0.011814 0.0
-0.070346 0.011656 0.0
-0.082700 0.011608 0.0
-0.094866 0.011664 0.0
-0.106884 0.011769 0.0
-0.118721 0.011838 0.0
-0.130246 0.011760 0.0
-0.141211 0.011405 0.0
-0.151257 0.010649 0.0
-0.159945 0.009412 0.0
-0.166819 0.007690 0.0
-0.171480 0.005551 0.0
-0.173629 0.003088 0.0
-0.173082 0.000423 0.0
-0.169777 -0.002289 0.0
-0.163818 -0.004900 0.0
-0.155483 -0.007313 0.0
-0.145115 -0.009440 0.0
-0.133053 -0.011249 0.0
-0.119600 -0.012777 0.0
-0.105006 -0.014067 0.0
-0.089523 -0.015032 0.0
-0.073443 -0.015657 0.0
-0.057042 -0.015979 0.0
-0.040511 -0.016177 0.0
-0.024000 -0.016156 0.0
-0.007673 -0.015901 0.0
0.008271 -0.015450 0.0
0.023603 -0.014843 0.0
0.038206 -0.014128 0.0
0.052055 -0.013313 0.0
0.065124 -0.012458 0.0
0.077380 -0.011587 0.0
0.088804 -0.010713 0.0
0.099394 -0.009846 0.0
0.109156 -0.008997 0.0
0.118107 -0.008174 0.0
0.126269 -0.007384 0.0
0.133673 -0.006633 0.0
0.140351 -0.005924 0.0
0.146343 -0.005260 0.0
0.151687 -0.004643 0.0
0.156428 -0.004073 0.0
0.160607 -0.003550 0.0
0.164267 -0.003073 0.0
0.167453 -0.002641 0.0
0.170204 -0.002252 0.0
0.172562 -0.001904 0.0
0.174565 -0.001593 0.0
0.176250 -0.001318 0.0
0.177651 -0.001076 0.0
0.178799 -0.000864 0.0
0.179725 -0.000680 0.0
0.180456 -0.000520 0.0
0.181016 -0.000383 0.0
0.181428 -0.000266 0.0
0.181712 -0.000166 0.0
0.181886 -0.000081 0.0
0.181966 -0.000010 0.0
0.181968 0.000052 0.0
0.181905 0.000101 0.0
0.181790 0.000137 0.0
0.181636 0.000161 0.0
0.181452 0.000176 0.0
0.181249 0.000183 0.0
0.181033 0.000184 0.0
0.180812 0.000180 0.0
0.180591 0.000172 0.0
0.180375 0.000160 0.0
0.180168 0.000145 0.0
0.179975 0.000127 0.0
0.179798 0.000107 0.0
0.179640 0.000085 0.0
0.179504 0.000061 0.0
0.179391 0.000035 0.0
0.179304 0.000008 0.0
0.179245 -0.000019 0.0
0.179217 -0.000046 0.0
0.179218 -0.000069 0.0
0.179241 -0.000085 0.0
0.179280 -0.000090 0.0
0.179321 -0.000078 0.0
0.179346 -0.000044 0.0
0.179331 0.000018 0.0
0.179243 0.000110 0.0
0.500000 0.000000 0.0
0.000000 0.000000 0.0
0.000000 0.000000 0.0
0.000000 0.000000 0.0
0.000000 0.000000 0.0
0.000000 0.000000 0.0
0.000000 0.000000 0.0
0.000000 0.000000 0.0
0.000000 0.000000 0.0
0.000000 0.000026 0.0
-0.003661 0.007938 0.0
-0.014583 0.019720 0.0
-0.030432 0.025454 0.0
-0.047782 0.027152 0.0
-0.064997 0.026963 0.0
-0.081448 0.026192 0.0
-0.096984 0.025426 0.0
-0.111635 0.024842 0.0
-0.125458 0.024418 0.0
-0.138462 0.024036 0.0
-0.150577 0.023523 0.0
-0.161624 0.022648 0.0
-0.171304 0.021162 0.0
-0.179192 0.018826 0.0
-0.184772 0.015503 0.0
-0.187526 0.011226 0.0
-0.187051 0.006201 0.0
-0.183091 0.000627 0.0
-0.175769 -0.004985 0.0
-0.165543 -0.010413 0.0
-0.152860 -0.015419 0.0
-0.138117 -0.019873 0.0
-0.121684 -0.023681 0.0
-0.103922 -0.026832 0.0
-0.085155 -0.029414 0.0
-0.065627 -0.031553 0.0
-0.045570 -0.033085 0.0
-0.025212 -0.034041 0.0
-0.004699 -0.034508 0.0
0.015667 -0.034544 0.0
0.035553 -0.034185 0.0
0.054844 -0.033489 0.0
0.073490 -0.032452 0.0
0.091449 -0.031133 0.0
0.108654 -0.029646 0.0
0.125041 -0.028030 0.0
0.140567 -0.026336 0.0
0.155200 -0.024599 0.0
0.168921 -0.022847 0.0
0.181724 -0.021105 0.0
0.193613 -0.019390 0.0
0.204602 -0.017721 0.0
0.214711 -0.016109 0.0
0.223966 -0.014567 0.0
0.232399 -0.013102 0.0
0.240046 -0.011720 0.0
0.246945 -0.010426 0.0
0.253136 -0.009221 0.0
0.258662 -0.008107 0.0
0.263566 -0.007081 0.0
0.267891 -0.006144 0.0
0.271680 -0.005291 0.0
0.274976 -0.004519 0.0
0.277820 -0.003825 0.0
0.280252 -0.003203 0.0
0.282309 -0.002649 0.0
0.284028 -0.002159 0.0
0.285443 -0.001727 0.0
0.286586 -0.001348 0.0
0.287486 -0.001017 0.0
0.288171 -0.000729 0.0
0.288666 -0.000481 0.0
0.288994 -0.000267 0.0
0.289176 -0.000085 0.0
0.289235 0.000067 0.0
0.289193 0.000191 0.0
0.289067 0.000288 0.0
0.288872 0.000360 0.0
0.288621 0.000412 0.0
0.288325 0.000446 0.0
0.287995 0.000466 0.0
0.287640 0.000474 0.0
0.287268 0.000471 0.0
0.286887 0.000458 0.0
0.286504 0.000437 0.0
0.286125 0.000408 0.0
0.285756 0.000373 0.0
0.285402 0.000331 0.0
0.285068 0.000284 0.0
0.284759 0.000233 0.0
0.284479 0.000178 0.0
0.284228 0.000120 0.0
0.284009 0.000062 0.0
0.283822 0.000010 0.0
0.283667 -0.000032 0.0
0.283543 -0.000056 0.0
0.283442 -0.000051 0.0
0.283348 -0.000002 0.0
0.283231 0.000108 0.0
0.283047 0.000292 0.0
0.500000 0.000000 0.0
0.000000 0.000000 0.0
0.000000 0.000000 0.0
0.000000 0.000000 0.0
0.000000 0.000000 0.0
0.000000 0.000000 0.0
0.000000 0.000000 0.0
0.000000 0.000000 0.0
0.000000 0.000000 0.0
0.000000 0.000445 0.0
-0.004927 0.016525 0.0
-0.018753 0.035881 0.0
-0.037400 0.043790 0.0
-0.056467 0.045233 0.0
-0.074268 0.043899 0.0
-0.090334 0.041773 0.0
-0.104645 0.039693 0.0
-0.117302 0.037885 0.0
-0.128384 0.036280 0.0
-0.137892 0.034687 0.0
-0.145751 0.032846 0.0
-0.151782 0.030404 0.0
-0.155693 0.026996 0.0
-0.157061 0.022247 0.0
-0.155333 0.015935 0.0
-0.149959 0.008173 0.0
-0.140589 -0.000591 0.0
-0.127873 -0.009258 0.0
-0.112885 -0.017410 0.0
-0.096083 -0.025014 0.0
-0.077785 -0.031799 0.0
-0.058298 -0.037722 0.0
-0.037873 -0.042690 0.0
-0.016723 -0.046734 0.0
0.004945 -0.049946 0.0
0.026738 -0.052342 0.0
0.048344 -0.053959 0.0
0.069684 -0.054866 0.0
0.090642 -0.055156 0.0
0.111134 -0.054755 0.0
0.131096 -0.053822 0.0
0.150420 -0.052467 0.0
0.169031 -0.050730 0.0
0.186891 -0.048673 0.0
0.203962 -0.046383 0.0
0.220206 -0.043925 0.0
0.235595 -0.041356 0.0
0.250110 -0.038726 0.0
0.263742 -0.036072 0.0
0.276489 -0.033430 0.0
0.288361 -0.030826 0.0
0.299371 -0.028284 0.0
0.309542 -0.025825 0.0
0.318898 -0.023462 0.0
0.327467 -0.021209 0.0
0.335283 -0.019075 0.0
0.342378 -0.017066 0.0
0.348790 -0.015185 0.0
0.354555 -0.013434 0.0
0.359711 -0.011814 0.0
0.364296 -0.010321 0.0
0.368348 -0.008954 0.0
0.371903 -0.007708 0.0
0.375000 -0.006577 0.0
0.377673 -0.005555 0.0
0.379957 -0.004638 0.0
0.381884 -0.003817 0.0
0.383487 -0.003086 0.0
0.384795 -0.002439 0.0
0.385836 -0.001867 0.0
0.386636 -0.001365 0.0
0.387221 -0.000925 0.0
0.387612 -0.000543 0.0
0.387833 -0.000213 0.0
0.387907 0.000063 0.0
0.387856 0.000289 0.0
0.387700 0.000471 0.0
0.387456 0.000616 0.0
0.387135 0.000728 0.0
0.386749 0.000812 0.0
0.386309 0.000871 0.0
0.385824 0.000909 0.0
0.385305 0.000927 0.0
0.384760 0.000928 0.0
0.384197 0.000913 0.0
0.383624 0.000884 0.0
0.383049 0.000841 0.0
0.382478 0.000787 0.0
0.381919 0.000721 0.0
0.381377 0.000646 0.0
0.380859 0.000563 0.0
0.380370 0.000474 0.0
0.379913 0.000384 0.0
0.379493 0.000296 0.0
0.379111 0.000218 0.0
0.378767 0.000162 0.0
0.378456 0.000142 0.0
0.378171 0.000183 0.0
0.377894 0.000316 0.0
0.377599 0.000564 0.0
0.500000 0.000000 0.0
0.000000 0.000000 0.0
0.000000 0.000000 0.0
0.000000 0.000000 0.0
0.000000 0.000000 0.0
0.000000 0.000000 0.0
0.000000 0.000000 0.0
0.000000 0.000000 0.0
0.000000 0.000000 0.0
0.000000 0.001034 0.0
-0.005743 0.027195 0.0
-0.020875 0.054168 0.0
-0.039587 0.062862 0.0
-0.056989 0.062630 0.0
-0.071709 0.059023 0.0
-0.083644 0.054650 0.0
-0.093016 0.050498 0.0
-0.100051 0.046773 0.0
-0.104866 0.043288 0.0
-0.107431 0.039752 0.0
-0.107651 0.035859 0.0
-0.105321 0.031093 0.0
-0.100110 0.025006 0.0
-0.091612 0.017107 0.0
-0.079185 0.006921 0.0
-0.062815 -0.004557 0.0
-0.044022 -0.016023 0.0
-0.024032 -0.026532 0.0
-0.003014 -0.036142 0.0
0.018665 -0.044763 0.0
0.040615 -0.052299 0.0
0.062684 -0.058778 0.0
0.084761 -0.064137 0.0
0.106746 -0.068421 0.0
0.128498 -0.071680 0.0
0.149936 -0.073839 0.0
0.170980 -0.075110 0.0
0.191503 -0.075577 0.0
0.211411 -0.075311 0.0
0.230655 -0.074336 0.0
0.249210 -0.072758 0.0
0.267035 -0.070681 0.0
0.284092 -0.068184 0.0
0.300357 -0.065344 0.0
0.315817 -0.062242 0.0
0.330458 -0.058951 0.0
0.344273 -0.055534 0.0
0.357259 -0.052049 0.0
0.369420 -0.048542 0.0
0.380767 -0.045055 0.0
0.391315 -0.041621 0.0
0.401085 -0.038270 0.0
0.410099 -0.035024 0.0
0.418386 -0.031904 0.0
0.425973 -0.028924 0.0
0.432892 -0.026095 0.0
0.439176 -0.023425 0.0
0.444856 -0.020918 0.0
0.449966 -0.018576 0.0
0.454540 -0.016401 0.0
0.458609 -0.014389 0.0
0.462208 -0.012537 0.0
0.465366 -0.010839 0.0
0.468117 -0.009291 0.0
0.470488 -0.007885 0.0
0.472509 -0.006613 0.0
0.474208 -0.005468 0.0
0.475610 -0.004441 0.0
0.476741 -0.003523 0.0
0.477624 -0.002707 0.0
0.478282 -0.001983 0.0
0.478734 -0.001344 0.0
0.479003 -0.000784 0.0
0.479107 -0.000297 0.0
0.479071 0.000111 0.0
0.478913 0.000450 0.0
0.478646 0.000731 0.0
0.478283 0.000963 0.0
0.477835 0.001150 0.0
0.477312 0.001299 0.0
0.476725 0.001412 0.0
0.476082 0.001495 0.0
0.475393 0.001549 0.0
0.474666 0.001578 0.0
0.473910 0.001582 0.0
0.473133 0.001565 0.0
0.472343 0.001526 0.0
0.471547 0.001469 0.0
0.470753 0.001393 0.0
0.469968 0.001301 0.0
0.469200 0.001194 0.0
0.468456 0.001077 0.0
0.467742 0.000952 0.0
0.467064 0.000825 0.0
0.466429 0.000706 0.0
0.465841 0.000606 0.0
0.465303 0.000546 0.0
0.464817 0.000552 0.0
0.464380 0.000661 0.0
0.463986 0.000909 0.0
0.500000 0.000000 0.0
0.000000 0.000000 0.0
0.000000 0.000000 0.0
0.000000 0.000000 0.0
0.000000 0.000000 0.0
0.000000 0.000000 0.0
0.000000 0.000000 0.0
0.000000 0.000000 0.0
0.000000 0.000000 0.0
0.000000 0.001808 0.0
-0.006359 0.039298 0.0
-0.021323 0.072161 0.0
-0.036947 0.079205 0.0
-0.048787 0.075529 0.0
-0.056472 0.068530 0.0
-0.060542 0.061148 0.0
-0.061491 0.054321 0.0
-0.059663 0.048159 0.0
-0.055195 0.042248 0.0
-0.047942 0.036105 0.0
-0.037698 0.029482 0.0
-0.024166 0.021609 0.0
-0.006584 0.011696 0.0
0.015370 -0.000035 0.0
0.039877 -0.012869 0.0
0.064610 -0.025870 0.0
0.088974 -0.037867 0.0
0.113103 -0.048808 0.0
0.136931 -0.058713 0.0
0.160393 -0.067333 0.0
0.183455 -0.074740 0.0
0.206019 -0.080970 0.0
0.228007 -0.086011 0.0
0.249366 -0.089891 0.0
0.270054 -0.092650 0.0
0.290055 -0.094308 0.0
0.309358 -0.094988 0.0
0.327924 -0.094789 0.0
0.345716 -0.093799 0.0
0.362717 -0.092093 0.0
0.378925 -0.089764 0.0
0.394334 -0.086909 0.0
0.408943 -0.083620 0.0
0.422751 -0.079982 0.0
0.435765 -0.076078 0.0
0.447991 -0.071983 0.0
0.459441 -0.067766 0.0
0.470126 -0.063488 0.0
0.480063 -0.059201 0.0
0.489272 -0.054951 0.0
0.497775 -0.050776 0.0
0.505598 -0.046707 0.0
0.512767 -0.042771 0.0
0.519313 -0.038989 0.0
0.525263 -0.035378 0.0
0.530651 -0.031948 0.0
0.535505 -0.028709 0.0
0.539857 -0.025665 0.0
0.543737 -0.022819 0.0
0.547175 -0.020170 0.0
0.550200 -0.017715 0.0
0.552841 -0.015450 0.0
0.555124 -0.013368 0.0
0.557075 -0.011464 0.0
0.558720 -0.009728 0.0
0.560082 -0.008153 0.0
0.561183 -0.006728 0.0
0.562045 -0.005444 0.0
0.562686 -0.004292 0.0
0.563127 -0.003262 0.0
0.563384 -0.002343 0.0
0.563475 -0.001528 0.0
0.563417 -0.000810 0.0
0.563230 -0.000189 0.0
0.562932 0.000337 0.0
0.562529 0.000784 0.0
0.562029 0.001163 0.0
0.561441 0.001482 0.0
0.560773 0.001747 0.0
0.560033 0.001964 0.0
0.559230 0.002137 0.0
0.558372 0.002271 0.0
0.557467 0.002368 0.0
0.556522 0.002431 0.0
0.555545 0.002462 0.0
0.554542 0.002464 0.0
0.553523 0.002437 0.0
0.552493 0.002384 0.0
0.551460 0.002304 0.0
0.550433 0.002201 0.0
0.549418 0.002076 0.0
0.548425 0.001933 0.0
0.547460 0.001774 0.0
0.546534 0.001606 0.0
0.545655 0.001438 0.0
0.544834 0.001283 0.0
0.544082 0.001160 0.0
0.543411 0.001096 0.0
0.542835 0.001129 0.0
0.542369 0.001301 0.0
0.500000 0.000000 0.0
0.000000 0.000000 0.0
0.000000 0.000000 0.0
0.000000 0.000000 0.0
0.000000 0.000000 0.0
0.000000 0.000000 0.0
0.000000 0.000000 0.0
0.000000 0.000000 0.0
0.000000 0.000000 0.0
0.000000 0.002945 0.0
-0.007056 0.052713 0.0
-0.020023 0.086676 0.0
-0.027944 0.088234 0.0
-0.028888 0.079285 0.0
-0.024642 0.068213 0.0
-0.016610 0.057501 0.0
-0.005317 0.047623 0.0
0.009018 0.038694 0.0
0.026259 0.030003 0.0
0.046678 0.020678 0.0
0.071045 0.010298 0.0
0.099376 -0.001070 0.0
0.129813 -0.013644 0.0
0.160059 -0.026896 0.0
0.189214 -0.039670 0.0
0.217241 -0.051830 0.0
0.244088 -0.063117 0.0
0.269779 -0.073377 0.0
0.294334 -0.082526 0.0
0.317790 -0.090438 0.0
0.340200 -0.097108 0.0
0.361587 -0.102553 0.0
0.381961 -0.106790 0.0
0.401341 -0.109852 0.0
0.419749 -0.111784 0.0
0.437215 -0.112642 0.0
0.453772 -0.112514 0.0
0.469439 -0.111495 0.0
0.484233 -0.109679 0.0
0.498173 -0.107155 0.0
0.511282 -0.104019 0.0
0.523584 -0.100365 0.0
0.535099 -0.096288 0.0
0.545850 -0.091875 0.0
0.555861 -0.087209 0.0
0.565153 -0.082370 0.0
0.573751 -0.077426 0.0
0.581678 -0.072440 0.0
0.588959 -0.067468 0.0
0.595621 -0.062556 0.0
0.601691 -0.057744 0.0
0.607197 -0.053067 0.0
0.612167 -0.048551 0.0
0.616631 -0.044219 0.0
0.620618 -0.040086 0.0
0.624156 -0.036165 0.0
0.627275 -0.032465 0.0
0.630003 -0.028989 0.0
0.632365 -0.025738 0.0
0.634389 -0.022713 0.0
0.636100 -0.019908 0.0
0.637521 -0.017318 0.0
0.638675 -0.014937 0.0
0.639585 -0.012756 0.0
0.640269 -0.010766 0.0
0.640747 -0.008956 0.0
0.641037 -0.007316 0.0
0.641155 -0.005836 0.0
0.641117 -0.004504 0.0
0.640936 -0.003310 0.0
0.640627 -0.002243 0.0
0.640204 -0.001295 0.0
0.639683 -0.000464 0.0
0.639081 0.000253 0.0
0.638399 0.000875 0.0
0.637637 0.001412 0.0
0.636797 0.001875 0.0
0.635888 0.002269 0.0
0.634915 0.002602 0.0
0.633884 0.002880 0.0
0.632803 0.003106 0.0
0.631677 0.003286 0.0
0.630512 0.003422 0.0
0.629315 0.003518 0.0
0.628092 0.003575 0.0
0.626850 0.003596 0.0
0.625593 0.003581 0.0
0.624329 0.003533 0.0
0.623065 0.003452 0.0
0.621808 0.003339 0.0
0.620565 0.003196 0.0
0.619345 0.003026 0.0
0.618157 0.002832 0.0
0.617012 0.002619 0.0
0.615923 0.002394 0.0
0.614904 0.002168 0.0
0.613974 0.001958 0.0
0.613156 0.001787 0.0
0.612478 0.001690 0.0
0.611975 0.001709 0.0
0.500000 0.000000 0.0
0.000000 0.000000 0.0
0.000000 0.000000 0.0
0.000000 0.000000 0.0
0.000000 0.000000 0.0
0.000000 0.000000 0.0
0.000000 0.000000 0.0
0.000000 0.000000 0.0
0.000000 0.000000 0.0
0.000000 0.004991 0.0
-0.007057 0.066827 0.0
-0.012974 0.091446 0.0
-0.004165 0.082575 0.0
0.014320 0.067403 0.0
0.037291 0.052877 0.0
0.062718 0.039379 0.0
0.090515 0.026655 0.0
0.121344 0.014498 0.0
0.155549 0.002753 0.0
0.192000 -0.008942 0.0
0.228640 -0.021089 0.0
0.264002 -0.033376 0.0
0.297692 -0.045465 0.0
0.329613 -0.057242 0.0
0.359675 -0.068541 0.0
0.387862 -0.079174 0.0
0.414215 -0.088973 0.0
0.438809 -0.097806 0.0
0.461733 -0.105575 0.0
0.483087 -0.112199 0.0
0.502977 -0.117647 0.0
0.521494 -0.121917 0.0
0.538722 -0.125028 0.0
0.554738 -0.127010 0.0
0.569616 -0.127911 0.0
0.583426 -0.127792 0.0
0.596236 -0.126731 0.0
0.608105 -0.124815 0.0
0.619085 -0.122134 0.0
0.629226 -0.118781 0.0
0.638573 -0.114849 0.0
0.647169 -0.110433 0.0
0.655056 -0.105622 0.0
0.662271 -0.100506 0.0
0.668849 -0.095166 0.0
0.674824 -0.089680 0.0
0.680228 -0.084117 0.0
0.685093 -0.078540 0.0
0.689447 -0.073004 0.0
0.693321 -0.067555 0.0
0.696742 -0.062236 0.0
0.699740 -0.057079 0.0
0.702341 -0.052111 0.0
0.704572 -0.047354 0.0
0.706460 -0.042825 0.0
0.708030 -0.038535 0.0
0.709305 -0.034490 0.0
0.710310 -0.030695 0.0
0.711066 -0.027150 0.0
0.711595 -0.023853 0.0
0.711916 -0.020799 0.0
0.712047 -0.017980 0.0
0.712008 -0.015390 0.0
0.711813 -0.013018 0.0
0.711478 -0.010853 0.0
0.711017 -0.008885 0.0
0.710443 -0.007102 0.0
0.709768 -0.005493 0.0
0.709002 -0.004044 0.0
0.708156 -0.002744 0.0
0.707241 -0.001584 0.0
0.706270 -0.000559 0.0
0.705255 0.000337 0.0
0.704188 0.001121 0.0
0.703065 0.001812 0.0
0.701888 0.002415 0.0
0.700663 0.002937 0.0
0.699392 0.003386 0.0
0.698081 0.003769 0.0
0.696735 0.004090 0.0
0.695357 0.004355 0.0
0.693953 0.004568 0.0
0.692526 0.004732 0.0
0.691082 0.004850 0.0
0.689625 0.004924 0.0
0.688159 0.004956 0.0
0.686690 0.004947 0.0
0.685222 0.004898 0.0
0.683763 0.004810 0.0
0.682317 0.004684 0.0
0.680892 0.004519 0.0
0.679496 0.004319 0.0
0.678139 0.004084 0.0
0.676833 0.003818 0.0
0.675593 0.003525 0.0
0.674435 0.003213 0.0
0.673385 0.002893 0.0
0.672474 0.002582 0.0
0.671743 0.002304 0.0
0.671242 0.002099 0.0
0.500000 -0.076828 0.0
0.000000 -0.050996 0.0
0.000000 -0.034759 0.0
0.000000 -0.022278 0.0
0.000000 -0.011589 0.0
0.000000 -0.001919 0.0
0.000000 0.007154 0.0
0.000000 0.016020 0.0
0.000000 0.025311 0.0
0.000000 0.005338 0.0
0.001474 0.072410 0.0
0.022348 0.070905 0.0
0.065234 0.051422 0.0
0.112505 0.032800 0.0
0.160820 0.016194 0.0
0.209770 0.001686 0.0
0.257731 -0.011410 0.0
0.303258 -0.023792 0.0
0.345591 -0.035496 0.0
0.384929 -0.046481 0.0
0.421695 -0.056956 0.0
0.456023 -0.067200 0.0
0.487904 -0.077212 0.0
0.517366 -0.086878 0.0
0.544477 -0.096078 0.0
0.569325 -0.104672 0.0
0.592021 -0.112524 0.0
0.612693 -0.119520 0.0
0.631473 -0.125566 0.0
0.648501 -0.130591 0.0
0.663913 -0.134557 0.0
0.677839 -0.137451 0.0
0.690400 -0.139283 0.0
0.701707 -0.140078 0.0
0.711865 -0.139878 0.0
0.720971 -0.138741 0.0
0.729116 -0.136736 0.0
0.736379 -0.133941 0.0
0.742834 -0.130443 0.0
0.748549 -0.126327 0.0
0.753584 -0.121685 0.0
0.757996 -0.116605 0.0
0.761836 -0.111176 0.0
0.765150 -0.105482 0.0
0.767983 -0.099602 0.0
0.770373 -0.093610 0.0
0.772356 -0.087575 0.0
0.773967 -0.081557 0.0
0.775237 -0.075610 0.0
0.776194 -0.069780 0.0
0.776867 -0.064105 0.0
0.777279 -0.058619 0.0
0.777457 -0.053348 0.0
0.777421 -0.048312 0.0
0.777192 -0.043527 0.0
0.776791 -0.039001 0.0
0.776235 -0.034743 0.0
0.775542 -0.030753 0.0
0.774725 -0.027032 0.0
0.773801 -0.023576 0.0
0.772782 -0.020378 0.0
0.771680 -0.017431 0.0
0.770506 -0.014726 0.0
0.769271 -0.012251 0.0
0.767983 -0.009997 0.0
0.766651 -0.007949 0.0
0.765282 -0.006096 0.0
0.763882 -0.004424 0.0
0.762458 -0.002922 0.0
0.761014 -0.001577 0.0
0.759561 -0.000383 0.0
0.758100 0.000672 0.0
0.756615 0.001605 0.0
0.755103 0.002432 0.0
0.753567 0.003161 0.0
0.752010 0.003799 0.0
0.750436 0.004353 0.0
0.748846 0.004830 0.0
0.747244 0.005237 0.0
0.745632 0.005580 0.0
0.744013 0.005862 0.0
0.742389 0.006089 0.0
0.740763 0.006263 0.0
0.739139 0.006387 0.0
0.737518 0.006464 0.0
0.735904 0.006495 0.0
0.734301 0.006481 0.0
0.732712 0.006421 0.0
0.731141 0.006317 0.0
0.729595 0.006169 0.0
0.728078 0.005976 0.0
0.726600 0.005737 0.0
0.725167 0.005454 0.0
0.723793 0.005127 0.0
0.722493 0.004757 0.0
0.721286 0.004345 0.0
0.720199 0.003897 0.0
0.719270 0.003419 0.0
0.718546 0.002922 0.0
0.718092 0.002438 0.0
0.028266 -0.076828 0.0
-0.902026 -0.050996 0.0
-0.819272 -0.034759 0.0
-0.741177 -0.022278 0.0
-0.673586 -0.011589 0.0
-0.618368 -0.001919 0.0
-0.576157 0.007154 0.0
-0.548100 0.016020 0.0
-0.539099 0.025311 0.0
-0.270177 -0.001274 0.0
0.063136 0.011243 0.0
0.176891 0.000884 0.0
0.267378 -0.011930 0.0
0.340262 -0.024003 0.0
0.400792 -0.035849 0.0
0.452078 -0.046507 0.0
0.496976 -0.056077 0.0
0.537186 -0.064862 0.0
0.573628 -0.073201 0.0
0.606800 -0.081287 0.0
0.637047 -0.089162 0.0
0.664610 -0.096885 0.0
0.689639 -0.104436 0.0
0.712253 -0.111729 0.0
0.732567 -0.118652 0.0
0.750702 -0.125081 0.0
0.766786 -0.130896 0.0
0.780955 -0.135989 0.0
0.793347 -0.140270 0.0
0.804103 -0.143671 0.0
0.813362 -0.146148 0.0
0.821256 -0.147681 0.0
0.827913 -0.148270 0.0
0.833450 -0.147934 0.0
0.837979 -0.146708 0.0
0.841603 -0.144641 0.0
0.844417 -0.141794 0.0
0.846510 -0.138239 0.0
0.847962 -0.134052 0.0
0.848845 -0.129316 0.0
0.849227 -0.124114 0.0
0.849169 -0.118530 0.0
0.848727 -0.112648 0.0
0.847950 -0.106547 0.0
0.846885 -0.100303 0.0
0.845573 -0.093986 0.0
0.844051 -0.087661 0.0
0.842351 -0.081384 0.0
0.840505 -0.075207 0.0
0.838538 -0.069173 0.0
0.836474 -0.063320 0.0
0.834334 -0.057678 0.0
0.832136 -0.052270 0.0
0.829897 -0.047116 0.0
0.827631 -0.042229 0.0
0.825349 -0.037617 0.0
0.823064 -0.033286 0.0
0.820783 -0.029236 0.0
0.818514 -0.025465 0.0
0.816264 -0.021968 0.0
0.814037 -0.018740 0.0
0.811840 -0.015770 0.0
0.809674 -0.013048 0.0
0.807544 -0.010563 0.0
0.805450 -0.008303 0.0
0.803395 -0.006255 0.0
0.801379 -0.004405 0.0
0.799401 -0.002738 0.0
0.797460 -0.001243 0.0
0.795554 0.000094 0.0
0.793670 0.001283 0.0
0.791798 0.002341 0.0
0.789936 0.003282 0.0
0.788087 0.004115 0.0
0.786254 0.004847 0.0
0.784437 0.005486 0.0
0.782637 0.006040 0.0
0.780854 0.006516 0.0
0.779090 0.006919 0.0
0.777344 0.007256 0.0
0.775616 0.007532 0.0
0.773909 0.007750 0.0
0.772221 0.007914 0.0
0.770554 0.008027 0.0
0.768910 0.008090 0.0
0.767289 0.008104 0.0
0.765694 0.008071 0.0
0.764125 0.007989 0.0
0.762587 0.007858 0.0
0.761083 0.007679 0.0
0.759617 0.007448 0.0
0.758196 0.007165 0.0
0.756827 0.006828 0.0
0.755520 0.006434 0.0
0.754291 0.005980 0.0
0.753157 0.005463 0.0
0.752146 0.004878 0.0
0.751294 0.004219 0.0
0.750654 0.003484 0.0
0.750291 0.002693 0.0
0.971734 0.028266 0.0
0.902026 0.041443 0.0
0.819272 0.041311 0.0
0.741177 0.036785 0.0
0.673586 0.030806 0.0
0.618369 0.024412 0.0
0.576157 0.017800 0.0
0.548101 0.010256 0.0
0.539100 -0.001255 0.0
0.556467 -0.022998 0.0
0.582551 -0.058421 0.0
0.608260 -0.065474 0.0
0.641703 -0.069502 0.0
0.676567 -0.074178 0.0
0.709596 -0.079235 0.0
0.739841 -0.084652 0.0
0.767183 -0.090170 0.0
0.791874 -0.095670 0.0
0.814200 -0.101161 0.0
0.834368 -0.106668 0.0
0.852519 -0.112178 0.0
0.868752 -0.117665 0.0
0.883134 -0.123068 0.0
0.895721 -0.128298 0.0
0.906572 -0.133248 0.0
0.915756 -0.137803 0.0
0.923351 -0.141853 0.0
0.929447 -0.145297 0.0
0.934145 -0.148051 0.0
0.937548 -0.150048 0.0
0.939764 -0.151245 0.0
0.940900 -0.151615 0.0
0.941064 -0.151156 0.0
0.940356 -0.149879 0.0
0.938877 -0.147813 0.0
0.936719 -0.145003 0.0
0.933972 -0.141501 0.0
0.930721 -0.137373 0.0
0.927041 -0.132690 0.0
0.923007 -0.127527 0.0
0.918685 -0.121963 0.0
0.914137 -0.116075 0.0
0.909419 -0.109943 0.0
0.904581 -0.103639 0.0
0.899670 -0.097236 0.0
0.894727 -0.090798 0.0
0.889787 -0.084386 0.0
0.884881 -0.078053 0.0
0.880036 -0.071846 0.0
0.875276 -0.065806 0.0
0.870618 -0.059965 0.0
0.866077 -0.054352 0.0
0.861667 -0.048987 0.0
0.857395 -0.043888 0.0
0.853269 -0.039064 0.0
0.849291 -0.034523 0.0
0.845466 -0.030268 0.0
0.841792 -0.026298 0.0
0.838269 -0.022610 0.0
0.834895 -0.019198 0.0
0.831665 -0.016055 0.0
0.828578 -0.013169 0.0
0.825627 -0.010532 0.0
0.822808 -0.008130 0.0
0.820114 -0.005950 0.0
0.817538 -0.003978 0.0
0.815070 -0.002197 0.0
0.812692 -0.000590 0.0
0.810389 0.000853 0.0
0.808152 0.002142 0.0
0.805977 0.003294 0.0
0.803864 0.004317 0.0
0.801812 0.005221 0.0
0.799820 0.006017 0.0
0.797886 0.006712 0.0
0.796008 0.007316 0.0
0.794184 0.007834 0.0
0.792411 0.008276 0.0
0.790688 0.008646 0.0
0.789012 0.008951 0.0
0.787382 0.009195 0.0
0.785794 0.009382 0.0
0.784249 0.009516 0.0
0.782743 0.009598 0.0
0.781277 0.009630 0.0
0.779849 0.009613 0.0
0.778460 0.009547 0.0
0.777109 0.009431 0.0
0.775797 0.009265 0.0
0.774526 0.009047 0.0
0.773298 0.008774 0.0
0.772117 0.008442 0.0
0.770989 0.008049 0.0
0.769921 0.007588 0.0
0.768925 0.007052 0.0
0.768016 0.006433 0.0
0.767216 0.005718 0.0
0.766558 0.004889 0.0
0.766088 0.003926 0.0
0.765862 0.002841 0.0
1.012850 0.043682 0.0
1.034713 0.073871 0.0
1.046494 0.079855 0.0
1.047903 0.074927 0.0
1.043281 0.064876 0.0
1.036580 0.052261 0.0
1.030889 0.037853 0.0
1.028400 0.020748 0.0
1.028322 -0.002667 0.0
1.024491 -0.035121 0.0
1.014316 -0.062207 0.0
1.004166 -0.077247 0.0
0.998997 -0.086003 0.0
0.998596 -0.092139 0.0
1.001448 -0.097155 0.0
1.006207 -0.101735 0.0
1.011899 -0.106121 0.0
1.017892 -0.110404 0.0
1.023777 -0.114638 0.0
1.029270 -0.118851 0.0
1.034162 -0.123038 0.0
1.038294 -0.127171 0.0
1.041548 -0.131199 0.0
1.043838 -0.135045 0.0
1.045110 -0.138623 0.0
1.045337 -0.141838 0.0
1.044520 -0.144596 0.0
1.042683 -0.146813 0.0
1.039866 -0.148415 0.0
1.036126 -0.149346 0.0
1.031528 -0.149566 0.0
1.026149 -0.149052 0.0
1.020068 -0.147801 0.0
1.013366 -0.145825 0.0
1.006129 -0.143150 0.0
0.998439 -0.139818 0.0
0.990379 -0.135879 0.0
0.982029 -0.131393 0.0
0.973464 -0.126427 0.0
0.964759 -0.121050 0.0
0.955979 -0.115338 0.0
0.947190 -0.109362 0.0
0.938447 -0.103195 0.0
0.929805 -0.096906 0.0
0.921308 -0.090561 0.0
0.912997 -0.084219 0.0
0.904907 -0.077936 0.0
0.897068 -0.071759 0.0
0.889502 -0.065730 0.0
0.882227 -0.059887 0.0
0.875258 -0.054257 0.0
0.868602 -0.048864 0.0
0.862266 -0.043728 0.0
0.856249 -0.038859 0.0
0.850551 -0.034268 0.0
0.845166 -0.029958 0.0
0.840087 -0.025930 0.0
0.835306 -0.022182 0.0
0.830812 -0.018710 0.0
0.826595 -0.015507 0.0
0.822641 -0.012563 0.0
0.818938 -0.009870 0.0
0.815472 -0.007415 0.0
0.812227 -0.005183 0.0
0.809183 -0.003160 0.0
0.806312 -0.001320 0.0
0.803580 0.000345 0.0
0.800981 0.001845 0.0
0.798515 0.003186 0.0
0.796180 0.004381 0.0
0.793971 0.005440 0.0
0.791881 0.006373 0.0
0.789906 0.007192 0.0
0.788039 0.007905 0.0
0.786274 0.008523 0.0
0.784604 0.009052 0.0
0.783025 0.009501 0.0
0.781529 0.009877 0.0
0.780112 0.010185 0.0
0.778768 0.010432 0.0
0.777492 0.010621 0.0
0.776280 0.010756 0.0
0.775126 0.010841 0.0
0.774028 0.010876 0.0
0.772982 0.010864 0.0
0.771985 0.010804 0.0
0.771034 0.010696 0.0
0.770127 0.010540 0.0
0.769263 0.010333 0.0
0.768441 0.010073 0.0
0.767660 0.009756 0.0
0.766922 0.009378 0.0
0.766229 0.008933 0.0
0.765586 0.008414 0.0
0.764998 0.007810 0.0
0.764475 0.007107 0.0
0.764031 0.006287 0.0
0.763688 0.005321 0.0
0.763475 0.004177 0.0
0.763428 0.002862 0.0
1.008272 0.022560 0.0
1.031042 0.050359 0.0
1.060601 0.062029 0.0
1.089238 0.062707 0.0
1.114538 0.056418 0.0
1.136370 0.045588 0.0
1.155283 0.031304 0.0
1.171490 0.013580 0.0
1.183897 -0.007829 0.0
1.189955 -0.032186 0.0
1.189049 -0.054062 0.0
1.184124 -0.070316 0.0
1.178282 -0.081924 0.0
1.172963 -0.090499 0.0
1.168519 -0.097204 0.0
1.164849 -0.102775 0.0
1.161711 -0.107634 0.0
1.158853 -0.112026 0.0
1.156051 -0.116100 0.0
1.153108 -0.119939 0.0
1.149852 -0.123585 0.0
1.146136 -0.127041 0.0
1.141839 -0.130286 0.0
1.136865 -0.133274 0.0
1.131142 -0.135944 0.0
1.124628 -0.138230 0.0
1.117304 -0.140063 0.0
1.109173 -0.141378 0.0
1.100261 -0.142121 0.0
1.090609 -0.142248 0.0
1.080272 -0.141730 0.0
1.069319 -0.140554 0.0
1.057824 -0.138722 0.0
1.045869 -0.136248 0.0
1.033540 -0.133161 0.0
1.020925 -0.129503 0.0
1.008112 -0.125321 0.0
0.995186 -0.120675 0.0
0.982233 -0.115627 0.0
0.969332 -0.110243 0.0
0.956557 -0.104592 0.0
0.943979 -0.098740 0.0
0.931660 -0.092755 0.0
0.919655 -0.086699 0.0
0.908014 -0.080630 0.0
0.896777 -0.074602 0.0
0.885979 -0.068664 0.0
0.875645 -0.062857 0.0
0.865796 -0.057217 0.0
0.856444 -0.051774 0.0
0.847598 -0.046553 0.0
0.839258 -0.041573 0.0
0.831422 -0.036846 0.0
0.824081 -0.032383 0.0
0.817225 -0.028189 0.0
0.810840 -0.024266 0.0
0.804908 -0.020611 0.0
0.799412 -0.017223 0.0
0.794331 -0.014094 0.0
0.789644 -0.011217 0.0
0.785328 -0.008583 0.0
0.781359 -0.006178 0.0
0.777709 -0.003990 0.0
0.774336 -0.001989 0.0