# vtk DataFile Version 3.0
Vector Field
ASCII
DATASET RECTILINEAR_GRID
DIMENSIONS 100 20 1
X_COORDINATES 100 double
0.050000 0.150000 0.250000 0.350000 0.450000 0.550000 0.650000 0.750000 0.850000 0.950000 1.050000 1.150000 1.250000 1.350000 1.450000 1.550000 1.650000 1.750000 1.850000 1.950000 2.050000 2.150000 2.250000 2.350000 2.450000 2.550000 2.650000 2.750000 2.850000 2.950000 3.050000 3.150000 3.250000 3.350000 3.450000 3.550000 3.650000 3.750000 3.850000 3.950000 4.050000 4.150000 4.250000 4.350000 4.450000 4.550000 4.650000 4.750000 4.850000 4.950000 5.050000 5.150000 5.250000 5.350000 5.450000 5.550000 5.650000 5.750000 5.850000 5.950000 6.050000 6.150000 6.250000 6.350000 6.450000 6.550000 6.650000 6.750000 6.850000 6.950000 7.050000 7.150000 7.250000 7.350000 7.450000 7.550000 7.650000 7.750000 7.850000 7.950000 8.050000 8.150000 8.250000 8.350000 8.450000 8.550000 8.650000 8.750000 8.850000 8.950000 9.050000 9.150000 9.250000 9.350000 9.450000 9.550000 9.650000 9.750000 9.850000 9.950000 
Y_COORDINATES 20 double
0.050000 0.150000 0.250000 0.350000 0.450000 0.550000 0.650000 0.750000 0.850000 0.950000 1.050000 1.150000 1.250000 1.350000 1.450000 1.550000 1.650000 1.750000 1.850000 1.950000 
Z_COORDINATES 1 double
0.0
POINT_DATA 2000
VECTORS Vektorfeld double
0.500000 0.000000 0.0
0.000000 0.000000 0.0
0.000000 0.000000 0.0
0.000000 0.000000 0.0
0.000000 0.000000 0.0
0.000000 0.000000 0.0
0.000000 0.000000 0.0
0.000000 0.000000 0.0
0.000000 0.000000 0.0
0.000000 -0.000113 0.0
-0.000189 0.000189 0.0
-0.001946 0.001569 0.0
-0.005907 0.002393 0.0
-0.010991 0.002691 0.0
-0.016423 0.002740 0.0
-0.021888 0.002725 0.0
-0.027337 0.002724 0.0
-0.032824 0.002762 0.0
-0.038421 0.002835 0.0
-0.044189 0.002932 0.0
-0.050153 0.003032 0.0
-0.056288 0.003104 0.0
-0.062504 0.003113 0.0
-0.068638 0.003021 0.0
-0.074461 0.002802 0.0
-0.079708 0.002445 0.0
-0.084116 0.001963 0.0
-0.087453 0.001374 0.0
-0.089537 0.000710 0.0
-0.090267 0.000020 0.0
-0.089614 -0.000673 0.0
-0.087590 -0.001351 0.0
-0.084268 -0.001970 0.0
-0.079786 -0.002512 0.0
-0.074290 -0.002984 0.0
-0.067924 -0.003382 0.0
-0.060855 -0.003686 0.0
-0.053282 -0.003887 0.0
-0.045393 -0.004003 0.0
-0.037290 -0.004100 0.0
-0.029079 -0.004111 0.0
-0.020933 -0.004034 0.0
-0.012952 -0.003947 0.0
-0.005198 -0.003808 0.0
0.002228 -0.003619 0.0
0.009239 -0.003392 0.0
0.015790 -0.003158 0.0
0.021869 -0.002921 0.0
0.027476 -0.002686 0.0
0.032615 -0.002453 0.0
0.037295 -0.002227 0.0
0.041533 -0.002010 0.0
0.045345 -0.001803 0.0
0.048756 -0.001608 0.0
0.051789 -0.001425 0.0
0.054470 -0.001256 0.0
0.056826 -0.001100 0.0
0.058885 -0.000958 0.0
0.060673 -0.000829 0.0
0.062215 -0.000713 0.0
0.063538 -0.000610 0.0
0.064665 -0.000517 0.0
0.065618 -0.000436 0.0
0.066418 -0.000364 0.0
0.067084 -0.000302 0.0
0.067634 -0.000248 0.0
0.068084 -0.000202 0.0
0.068449 -0.000163 0.0
0.068741 -0.000129 0.0
0.068971 -0.000102 0.0
0.069152 -0.000079 0.0
0.069290 -0.000060 0.0
0.069395 -0.000045 0.0
0.069474 -0.000033 0.0
0.069532 -0.000024 0.0
0.069574 -0.000018 0.0
0.069605 -0.000013 0.0
0.069629 -0.000010 0.0
0.069648 -0.000009 0.0
0.069666 -0.000009 0.0
0.069684 -0.000009 0.0
0.069704 -0.000011 0.0
0.069727 -0.000013 0.0
0.069755 -0.000015 0.0
0.069788 -0.000018 0.0
0.069826 -0.000020 0.0
0.069870 -0.000023 0.0
0.069919 -0.000026 0.0
0.069973 -0.000028 0.0
0.070032 -0.000031 0.0
0.070095 -0.000032 0.0
0.070160 -0.000033 0.0
0.070227 -0.000033 0.0
0.070292 -0.000032 0.0
0.070355 -0.000030 0.0
0.070412 -0.000026 0.0
0.070459 -0.000021 0.0
0.070494 -0.000013 0.0
0.070512 -0.000005 0.0
0.070517 0.000001 0.0
0.500000 0.000000 0.0
0.000000 0.000000 0.0
0.000000 0.000000 0.0
0.000000 0.000000 0.0
0.000000 0.000000 0.0
0.000000 0.000000 0.0
0.000000 0.000000 0.0
0.000000 0.000000 0.0
0.000000 0.000000 0.0
0.000000 -0.000182 0.0
-0.001949 0.002327 0.0
-0.008563 0.007801 0.0
-0.019276 0.010834 0.0
-0.031843 0.011901 0.0
-0.044898 0.012018 0.0
-0.057840 0.011855 0.0
-0.070511 0.011715 0.0
-0.082944 0.011691 0.0
-0.095213 0.011774 0.0
-0.107360 0.011909 0.0
-0.119353 0.012011 0.0
-0.131056 0.011962 0.0
-0.142213 0.011628 0.0
-0.152452 0.010879 0.0
-0.161318 0.009632 0.0
-0.168334 0.007878 0.0
-0.173083 0.005688 0.0
-0.175250 0.003154 0.0
-0.174637 0.000401 0.0
-0.171170 -0.002407 0.0
-0.164962 -0.005107 0.0
-0.156303 -0.007601 0.0
-0.145552 -0.009793 0.0
-0.133060 -0.011664 0.0
-0.119129 -0.013259 0.0
-0.104016 -0.014586 0.0
-0.087996 -0.015573 0.0
-0.071367 -0.016203 0.0
-0.054415 -0.016527 0.0
-0.037318 -0.016775 0.0
-0.020229 -0.016736 0.0
-0.003324 -0.016459 0.0
0.013148 -0.015975 0.0
0.028951 -0.015336 0.0
0.044015 -0.014581 0.0
0.058312 -0.013738 0.0
0.071807 -0.012858 0.0
0.084467 -0.011961 0.0
0.096274 -0.011060 0.0
0.107226 -0.010169 0.0
0.117329 -0.009296 0.0
0.126602 -0.008451 0.0
0.135068 -0.007641 0.0
0.142758 -0.006871 0.0
0.149708 -0.006145 0.0
0.155957 -0.005467 0.0
0.161547 -0.004837 0.0
0.166523 -0.004256 0.0
0.170929 -0.003725 0.0
0.174810 -0.003241 0.0
0.178210 -0.002804 0.0
0.181172 -0.002412 0.0
0.183740 -0.002061 0.0
0.185952 -0.001751 0.0
0.187846 -0.001476 0.0
0.189459 -0.001237 0.0
0.190823 -0.001028 0.0
0.191970 -0.000848 0.0
0.192927 -0.000693 0.0
0.193721 -0.000562 0.0
0.194375 -0.000452 0.0
0.194910 -0.000360 0.0
0.195346 -0.000285 0.0
0.195698 -0.000224 0.0
0.195982 -0.000176 0.0
0.196212 -0.000138 0.0
0.196398 -0.000110 0.0
0.196551 -0.000090 0.0
0.196678 -0.000077 0.0
0.196789 -0.000069 0.0
0.196888 -0.000066 0.0
0.196981 -0.000067 0.0
0.197073 -0.000071 0.0
0.197166 -0.000077 0.0
0.197263 -0.000085 0.0
0.197367 -0.000094 0.0
0.197478 -0.000104 0.0
0.197597 -0.000114 0.0
0.197726 -0.000123 0.0
0.197862 -0.000131 0.0
0.198005 -0.000138 0.0
0.198153 -0.000142 0.0
0.198304 -0.000142 0.0
0.198454 -0.000139 0.0
0.198598 -0.000131 0.0
0.198731 -0.000116 0.0
0.198845 -0.000093 0.0
0.198932 -0.000063 0.0
0.198985 -0.000027 0.0
0.198999 0.000004 0.0
0.500000 0.000000 0.0
0.000000 0.000000 0.0
0.000000 0.000000 0.0
0.000000 0.000000 0.0
0.000000 0.000000 0.0
0.000000 0.000000 0.0
0.000000 0.000000 0.0
0.000000 0.000000 0.0
0.000000 0.000000 0.0
0.000000 0.000026 0.0
-0.003664 0.007941 0.0
-0.014599 0.019736 0.0
-0.030470 0.025483 0.0
-0.047849 0.027197 0.0
-0.065103 0.027030 0.0
-0.081606 0.026287 0.0
-0.097208 0.025557 0.0
-0.111942 0.025015 0.0
-0.125864 0.024640 0.0
-0.138984 0.024310 0.0
-0.151228 0.023847 0.0
-0.162411 0.023012 0.0
-0.172222 0.021546 0.0
-0.180218 0.019197 0.0
-0.185863 0.015824 0.0
-0.188616 0.011454 0.0
-0.188055 0.006300 0.0
-0.183908 0.000563 0.0
-0.176305 -0.005224 0.0
-0.165716 -0.010837 0.0
-0.152601 -0.016001 0.0
-0.137372 -0.020594 0.0
-0.120414 -0.024508 0.0
-0.102102 -0.027752 0.0
-0.082755 -0.030449 0.0
-0.062623 -0.032640 0.0
-0.041950 -0.034213 0.0
-0.020954 -0.035189 0.0
0.000227 -0.035673 0.0
0.021213 -0.035713 0.0
0.041659 -0.035335 0.0
0.061508 -0.034615 0.0
0.080718 -0.033501 0.0
0.099240 -0.032135 0.0
0.116991 -0.030598 0.0
0.133908 -0.028936 0.0
0.149948 -0.027195 0.0
0.165077 -0.025412 0.0
0.179278 -0.023617 0.0
0.192545 -0.021831 0.0
0.204883 -0.020076 0.0
0.216307 -0.018367 0.0
0.226837 -0.016720 0.0
0.236502 -0.015146 0.0
0.245334 -0.013652 0.0
0.253370 -0.012245 0.0
0.260650 -0.010929 0.0
0.267216 -0.009706 0.0
0.273111 -0.008577 0.0
0.278382 -0.007540 0.0
0.283071 -0.006595 0.0
0.287225 -0.005738 0.0
0.290887 -0.004965 0.0
0.294100 -0.004272 0.0
0.296906 -0.003655 0.0
0.299343 -0.003108 0.0
0.301450 -0.002627 0.0
0.303262 -0.002207 0.0
0.304813 -0.001842 0.0
0.306134 -0.001528 0.0
0.307253 -0.001259 0.0
0.308196 -0.001032 0.0
0.308989 -0.000841 0.0
0.309652 -0.000683 0.0
0.310206 -0.000554 0.0
0.310668 -0.000451 0.0
0.311054 -0.000370 0.0
0.311378 -0.000307 0.0
0.311652 -0.000262 0.0
0.311888 -0.000230 0.0
0.312094 -0.000211 0.0
0.312279 -0.000201 0.0
0.312450 -0.000199 0.0
0.312612 -0.000204 0.0
0.312770 -0.000214 0.0
0.312928 -0.000227 0.0
0.313089 -0.000243 0.0
0.313255 -0.000260 0.0
0.313427 -0.000277 0.0
0.313606 -0.000292 0.0
0.313791 -0.000305 0.0
0.313981 -0.000313 0.0
0.314175 -0.000315 0.0
0.314367 -0.000309 0.0
0.314554 -0.000292 0.0
0.314729 -0.000262 0.0
0.314884 -0.000215 0.0
0.315006 -0.000151 0.0
0.315085 -0.000070 0.0
0.315107 0.000011 0.0
0.500000 0.000000 0.0
0.000000 0.000000 0.0
0.000000 0.000000 0.0
0.000000 0.000000 0.0
0.000000 0.000000 0.0
0.000000 0.000000 0.0
0.000000 0.000000 0.0
0.000000 0.000000 0.0
0.000000 0.000000 0.0
0.000000 0.000445 0.0
-0.004933 0.016538 0.0
-0.018776 0.035916 0.0
-0.037447 0.043845 0.0
-0.056543 0.045310 0.0
-0.074377 0.044006 0.0
-0.090481 0.041917 0.0
-0.104835 0.039882 0.0
-0.117539 0.038127 0.0
-0.128668 0.036579 0.0
-0.138221 0.035044 0.0
-0.146119 0.033255 0.0
-0.152176 0.030845 0.0
-0.156086 0.027434 0.0
-0.157407 0.022625 0.0
-0.155564 0.016197 0.0
-0.149976 0.008246 0.0
-0.140291 -0.000738 0.0
-0.127194 -0.009643 0.0
-0.111787 -0.018029 0.0
-0.094523 -0.025884 0.0
-0.075728 -0.032864 0.0
-0.055715 -0.038973 0.0
-0.034731 -0.044071 0.0
-0.012992 -0.048240 0.0
0.009245 -0.051545 0.0
0.031575 -0.054006 0.0
0.053732 -0.055676 0.0
0.075628 -0.056617 0.0
0.097135 -0.056932 0.0
0.118178 -0.056484 0.0
0.138694 -0.055526 0.0
0.158558 -0.054136 0.0
0.177704 -0.052336 0.0
0.196101 -0.050218 0.0
0.213702 -0.047867 0.0
0.230468 -0.045349 0.0
0.246370 -0.042722 0.0
0.261388 -0.040033 0.0
0.275513 -0.037322 0.0
0.288746 -0.034625 0.0
0.301096 -0.031970 0.0
0.312579 -0.029380 0.0
0.323216 -0.026876 0.0
0.333034 -0.024473 0.0
0.342062 -0.022185 0.0
0.350334 -0.020020 0.0
0.357886 -0.017985 0.0
0.364754 -0.016084 0.0
0.370978 -0.014318 0.0
0.376595 -0.012687 0.0
0.381646 -0.011189 0.0
0.386169 -0.009821 0.0
0.390205 -0.008579 0.0
0.393790 -0.007456 0.0
0.396962 -0.006448 0.0
0.399756 -0.005547 0.0
0.402208 -0.004747 0.0
0.404349 -0.004041 0.0
0.406212 -0.003422 0.0
0.407825 -0.002882 0.0
0.409216 -0.002415 0.0
0.410410 -0.002014 0.0
0.411432 -0.001673 0.0
0.412304 -0.001386 0.0
0.413045 -0.001147 0.0
0.413674 -0.000950 0.0
0.414207 -0.000790 0.0
0.414660 -0.000664 0.0
0.415046 -0.000566 0.0
0.415378 -0.000493 0.0
0.415665 -0.000441 0.0
0.415917 -0.000408 0.0
0.416143 -0.000389 0.0
0.416349 -0.000383 0.0
0.416541 -0.000386 0.0
0.416726 -0.000397 0.0
0.416905 -0.000414 0.0
0.417084 -0.000434 0.0
0.417265 -0.000456 0.0
0.417449 -0.000476 0.0
0.417636 -0.000494 0.0
0.417828 -0.000506 0.0
0.418022 -0.000510 0.0
0.418216 -0.000501 0.0
0.418407 -0.000477 0.0
0.418589 -0.000433 0.0
0.418753 -0.000362 0.0
0.418887 -0.000261 0.0
0.418977 -0.000127 0.0
0.419003 0.000020 0.0
0.500000 0.000000 0.0
0.000000 0.000000 0.0
0.000000 0.000000 0.0
0.000000 0.000000 0.0
0.000000 0.000000 0.0
0.000000 0.000000 0.0
0.000000 0.000000 0.0
0.000000 0.000000 0.0
0.000000 0.000000 0.0
0.000000 0.001035 0.0
-0.005750 0.027221 0.0
-0.020898 0.054224 0.0
-0.039629 0.062940 0.0
-0.057050 0.062731 0.0
-0.071785 0.059155 0.0
-0.083731 0.054818 0.0
-0.093107 0.050711 0.0
-0.100136 0.047033 0.0
-0.104928 0.043596 0.0
-0.107449 0.040102 0.0
-0.107597 0.036242 0.0
-0.105160 0.031477 0.0
-0.099794 0.025347 0.0
-0.091075 0.017315 0.0
-0.078330 0.006919 0.0
-0.061553 -0.004841 0.0
-0.042316 -0.016572 0.0
-0.021870 -0.027353 0.0
-0.000366 -0.037230 0.0
0.021783 -0.046096 0.0
0.044178 -0.053844 0.0
0.066699 -0.060528 0.0
0.089237 -0.066038 0.0
0.111684 -0.070461 0.0
0.133908 -0.073785 0.0
0.155828 -0.076016 0.0
0.177347 -0.077341 0.0
0.198339 -0.077841 0.0
0.218709 -0.077585 0.0
0.238417 -0.076582 0.0
0.257443 -0.074969 0.0
0.275735 -0.072848 0.0
0.293258 -0.070293 0.0
0.309990 -0.067390 0.0
0.325916 -0.064223 0.0
0.341021 -0.060865 0.0
0.355295 -0.057383 0.0
0.368739 -0.053833 0.0
0.381355 -0.050264 0.0
0.393155 -0.046717 0.0
0.404156 -0.043228 0.0
0.414378 -0.039826 0.0
0.423846 -0.036535 0.0
0.432588 -0.033374 0.0
0.440634 -0.030359 0.0
0.448017 -0.027501 0.0
0.454770 -0.024808 0.0
0.460927 -0.022285 0.0
0.466522 -0.019934 0.0
0.471590 -0.017755 0.0
0.476164 -0.015746 0.0
0.480280 -0.013903 0.0
0.483969 -0.012221 0.0
0.487264 -0.010694 0.0
0.490196 -0.009314 0.0
0.492795 -0.008074 0.0
0.495090 -0.006966 0.0
0.497108 -0.005981 0.0
0.498875 -0.005111 0.0
0.500416 -0.004347 0.0
0.501754 -0.003679 0.0
0.502911 -0.003101 0.0
0.503907 -0.002604 0.0
0.504760 -0.002180 0.0
0.505489 -0.001822 0.0
0.506109 -0.001523 0.0
0.506635 -0.001276 0.0
0.507080 -0.001076 0.0
0.507456 -0.000917 0.0
0.507775 -0.000793 0.0
0.508046 -0.000700 0.0
0.508279 -0.000634 0.0
0.508480 -0.000590 0.0
0.508658 -0.000565 0.0
0.508817 -0.000556 0.0
0.508964 -0.000559 0.0
0.509103 -0.000571 0.0
0.509238 -0.000590 0.0
0.509371 -0.000613 0.0
0.509505 -0.000637 0.0
0.509642 -0.000658 0.0
0.509783 -0.000674 0.0
0.509927 -0.000680 0.0
0.510075 -0.000673 0.0
0.510223 -0.000645 0.0
0.510368 -0.000592 0.0
0.510504 -0.000504 0.0
0.510621 -0.000371 0.0
0.510701 -0.000187 0.0
0.510725 0.000030 0.0
0.500000 0.000000 0.0
0.000000 0.000000 0.0
0.000000 0.000000 0.0
0.000000 0.000000 0.0
0.000000 0.000000 0.0
0.000000 0.000000 0.0
0.000000 0.000000 0.0
0.000000 0.000000 0.0
0.000000 0.000000 0.0
0.000000 0.001809 0.0
-0.006365 0.039336 0.0
-0.021341 0.072233 0.0
-0.036974 0.079296 0.0
-0.048817 0.075638 0.0
-0.056494 0.068661 0.0
-0.060542 0.061306 0.0
-0.061453 0.054508 0.0
-0.059564 0.048376 0.0
-0.055005 0.042486 0.0
-0.047620 0.036348 0.0
-0.037196 0.029719 0.0
-0.023418 0.021784 0.0
-0.005487 0.011742 0.0
0.016893 -0.000180 0.0
0.041836 -0.013273 0.0
0.066986 -0.026577 0.0
0.091758 -0.038844 0.0
0.116295 -0.050065 0.0
0.140516 -0.060243 0.0
0.164367 -0.069082 0.0
0.187819 -0.076705 0.0
0.210761 -0.083130 0.0
0.233118 -0.088330 0.0
0.254844 -0.092341 0.0
0.275900 -0.095185 0.0
0.296276 -0.096912 0.0
0.315952 -0.097640 0.0
0.334885 -0.097468 0.0
0.353042 -0.096484 0.0
0.370408 -0.094758 0.0
0.386984 -0.092395 0.0
0.402763 -0.089494 0.0
0.417742 -0.086149 0.0
0.431923 -0.082449 0.0
0.445312 -0.078478 0.0
0.457915 -0.074316 0.0
0.469742 -0.070033 0.0
0.480806 -0.065690 0.0
0.491124 -0.061341 0.0
0.500717 -0.057033 0.0
0.509608 -0.052804 0.0
0.517823 -0.048687 0.0
0.525391 -0.044709 0.0
0.532342 -0.040892 0.0
0.538706 -0.037252 0.0
0.544515 -0.033801 0.0
0.549802 -0.030548 0.0
0.554598 -0.027498 0.0
0.558935 -0.024653 0.0
0.562844 -0.022013 0.0
0.566355 -0.019574 0.0
0.569498 -0.017333 0.0
0.572300 -0.015283 0.0
0.574789 -0.013416 0.0
0.576991 -0.011726 0.0
0.578931 -0.010201 0.0
0.580631 -0.008834 0.0
0.582114 -0.007614 0.0
0.583400 -0.006532 0.0
0.584510 -0.005577 0.0
0.585461 -0.004739 0.0
0.586270 -0.004008 0.0
0.586954 -0.003376 0.0
0.587526 -0.002834 0.0
0.587999 -0.002371 0.0
0.588388 -0.001982 0.0
0.588702 -0.001657 0.0
0.588952 -0.001390 0.0
0.589147 -0.001174 0.0
0.589297 -0.001004 0.0
0.589409 -0.000872 0.0
0.589490 -0.000775 0.0
0.589547 -0.000707 0.0
0.589584 -0.000663 0.0
0.589608 -0.000641 0.0
0.589623 -0.000635 0.0
0.589632 -0.000643 0.0
0.589639 -0.000660 0.0
0.589647 -0.000684 0.0
0.589658 -0.000711 0.0
0.589674 -0.000737 0.0
0.589697 -0.000759 0.0
0.589729 -0.000771 0.0
0.589770 -0.000770 0.0
0.589819 -0.000747 0.0
0.589877 -0.000694 0.0
0.589939 -0.000600 0.0
0.589999 -0.000451 0.0
0.590045 -0.000233 0.0
0.590058 0.000040 0.0
0.500000 0.000000 0.0
0.000000 0.000000 0.0
0.000000 0.000000 0.0
0.000000 0.000000 0.0
0.000000 0.000000 0.0
0.000000 0.000000 0.0
0.000000 0.000000 0.0
0.000000 0.000000 0.0
0.000000 0.000000 0.0
0.000000 0.002948 0.0
-0.007061 0.052762 0.0
-0.020034 0.086756 0.0
-0.027949 0.088321 0.0
-0.028873 0.079379 0.0
-0.024591 0.068317 0.0
-0.016502 0.057609 0.0
-0.005118 0.047731 0.0
0.009344 0.038803 0.0
0.026753 0.030089 0.0
0.047400 0.020713 0.0
0.072078 0.010252 0.0
0.100793 -0.001240 0.0
0.131629 -0.014000 0.0
0.162272 -0.027461 0.0
0.191819 -0.040482 0.0
0.220217 -0.052916 0.0
0.247414 -0.064472 0.0
0.273439 -0.074998 0.0
0.298309 -0.084400 0.0
0.322068 -0.092536 0.0
0.344774 -0.099410 0.0
0.366444 -0.105037 0.0
0.387092 -0.109428 0.0
0.406737 -0.112614 0.0
0.425407 -0.114638 0.0
0.443134 -0.115563 0.0
0.459950 -0.115480 0.0
0.475874 -0.114485 0.0
0.490922 -0.112671 0.0
0.505117 -0.110131 0.0
0.518482 -0.106962 0.0
0.531041 -0.103265 0.0
0.542817 -0.099134 0.0
0.553832 -0.094661 0.0
0.564109 -0.089932 0.0
0.573672 -0.085028 0.0
0.582544 -0.080020 0.0
0.590750 -0.074973 0.0
0.598315 -0.069942 0.0
0.605266 -0.064976 0.0
0.611631 -0.060117 0.0
0.617440 -0.055398 0.0
0.622723 -0.050848 0.0
0.627508 -0.046489 0.0
0.631827 -0.042338 0.0
0.635709 -0.038407 0.0
0.639185 -0.034705 0.0
0.642283 -0.031236 0.0
0.645031 -0.028001 0.0
0.647457 -0.025000 0.0
0.649586 -0.022228 0.0
0.651444 -0.019680 0.0
0.653054 -0.017348 0.0
0.654438 -0.015225 0.0
0.655618 -0.013299 0.0
0.656614 -0.011562 0.0
0.657443 -0.010003 0.0
0.658124 -0.008610 0.0
0.658672 -0.007371 0.0
0.659102 -0.006277 0.0
0.659427 -0.005315 0.0
0.659661 -0.004475 0.0
0.659813 -0.003746 0.0
0.659896 -0.003118 0.0
0.659918 -0.002583 0.0
0.659889 -0.002129 0.0
0.659815 -0.001750 0.0
0.659705 -0.001437 0.0
0.659564 -0.001182 0.0
0.659398 -0.000980 0.0
0.659214 -0.000823 0.0
0.659015 -0.000706 0.0
0.658807 -0.000623 0.0
0.658592 -0.000570 0.0
0.658375 -0.000541 0.0
0.658159 -0.000533 0.0
0.657946 -0.000541 0.0
0.657738 -0.000561 0.0
0.657538 -0.000591 0.0
0.657348 -0.000625 0.0
0.657169 -0.000661 0.0
0.657006 -0.000694 0.0
0.656858 -0.000720 0.0
0.656730 -0.000733 0.0
0.656622 -0.000725 0.0
0.656537 -0.000687 0.0
0.656476 -0.000607 0.0
0.656439 -0.000467 0.0
0.656422 -0.000247 0.0
0.656414 0.000050 0.0
0.500000 0.000000 0.0
0.000000 0.000000 0.0
0.000000 0.000000 0.0
0.000000 0.000000 0.0
0.000000 0.000000 0.0
0.000000 0.000000 0.0
0.000000 0.000000 0.0
0.000000 0.000000 0.0
0.000000 0.000000 0.0
0.000000 0.004996 0.0
-0.007061 0.066884 0.0
-0.012972 0.091518 0.0
-0.004131 0.082633 0.0
0.014411 0.067449 0.0
0.037462 0.052913 0.0
0.062999 0.039387 0.0
0.090950 0.026619 0.0
0.122000 0.014404 0.0
0.156485 0.002593 0.0
0.193244 -0.009195 0.0
0.230196 -0.021471 0.0
0.265874 -0.033910 0.0
0.299887 -0.046181 0.0
0.332131 -0.058167 0.0
0.362507 -0.069698 0.0
0.390988 -0.080580 0.0
0.417613 -0.090630 0.0
0.442457 -0.099709 0.0
0.465610 -0.107712 0.0
0.487175 -0.114549 0.0
0.507261 -0.120188 0.0
0.525960 -0.124628 0.0
0.543358 -0.127882 0.0
0.559534 -0.129980 0.0
0.574563 -0.130971 0.0
0.588521 -0.130916 0.0
0.601474 -0.129896 0.0
0.613483 -0.128001 0.0
0.624601 -0.125322 0.0
0.634878 -0.121953 0.0
0.644363 -0.117990 0.0
0.653099 -0.113532 0.0
0.661128 -0.108671 0.0
0.668488 -0.103498 0.0
0.675215 -0.098099 0.0
0.681344 -0.092553 0.0
0.686906 -0.086930 0.0
0.691935 -0.081296 0.0
0.696459 -0.075708 0.0
0.700510 -0.070213 0.0
0.704116 -0.064853 0.0
0.707308 -0.059663 0.0
0.710112 -0.054670 0.0
0.712558 -0.049898 0.0
0.714671 -0.045362 0.0
0.716479 -0.041074 0.0
0.718006 -0.037041 0.0
0.719276 -0.033268 0.0
0.720314 -0.029754 0.0
0.721139 -0.026498 0.0
0.721774 -0.023494 0.0
0.722237 -0.020735 0.0
0.722548 -0.018213 0.0
0.722721 -0.015918 0.0
0.722775 -0.013839 0.0
0.722722 -0.011966 0.0
0.722578 -0.010284 0.0
0.722353 -0.008784 0.0
0.722059 -0.007451 0.0
0.721706 -0.006274 0.0
0.721304 -0.005241 0.0
0.720860 -0.004339 0.0
0.720383 -0.003557 0.0
0.719878 -0.002885 0.0
0.719352 -0.002312 0.0
0.718809 -0.001828 0.0
0.718255 -0.001424 0.0
0.717693 -0.001091 0.0
0.717129 -0.000822 0.0
0.716564 -0.000610 0.0
0.716002 -0.000447 0.0
0.715446 -0.000328 0.0
0.714899 -0.000246 0.0
0.714362 -0.000196 0.0
0.713837 -0.000173 0.0
0.713323 -0.000172 0.0
0.712824 -0.000189 0.0
0.712339 -0.000221 0.0
0.711872 -0.000264 0.0
0.711424 -0.000314 0.0
0.710998 -0.000368 0.0
0.710596 -0.000421 0.0
0.710220 -0.000470 0.0
0.709875 -0.000509 0.0
0.709565 -0.000531 0.0
0.709296 -0.000527 0.0
0.709074 -0.000484 0.0
0.708906 -0.000386 0.0
0.708802 -0.000207 0.0
0.708763 0.000057 0.0
0.500000 -0.076757 0.0
0.000000 -0.050923 0.0
0.000000 -0.034683 0.0
0.000000 -0.022200 0.0
0.000000 -0.011508 0.0
0.000000 -0.001835 0.0
0.000000 0.007243 0.0
0.000000 0.016115 0.0
0.000000 0.025414 0.0
0.000000 0.005339 0.0
0.001482 0.072463 0.0
0.022397 0.070934 0.0
0.065363 0.051409 0.0
0.112749 0.032746 0.0
0.161230 0.016085 0.0
0.210388 0.001520 0.0
0.258570 -0.011647 0.0
0.304308 -0.024118 0.0
0.346855 -0.035917 0.0
0.386422 -0.047012 0.0
0.423431 -0.057616 0.0
0.458008 -0.068019 0.0
0.490135 -0.078212 0.0
0.519833 -0.088079 0.0
0.547167 -0.097495 0.0
0.572218 -0.106315 0.0
0.595095 -0.114397 0.0
0.615924 -0.121616 0.0
0.634839 -0.127873 0.0
0.651981 -0.133094 0.0
0.667489 -0.137237 0.0
0.681495 -0.140286 0.0
0.694120 -0.142248 0.0
0.705480 -0.143149 0.0
0.715681 -0.143032 0.0
0.724823 -0.141954 0.0
0.732996 -0.139985 0.0
0.740283 -0.137208 0.0
0.746760 -0.133709 0.0
0.752494 -0.129577 0.0
0.757549 -0.124905 0.0
0.761980 -0.119785 0.0
0.765842 -0.114308 0.0
0.769180 -0.108560 0.0
0.772041 -0.102625 0.0
0.774463 -0.096578 0.0
0.776483 -0.090489 0.0
0.778136 -0.084420 0.0
0.779455 -0.078427 0.0
0.780468 -0.072557 0.0
0.781203 -0.066851 0.0
0.781688 -0.061341 0.0
0.781947 -0.056055 0.0
0.782003 -0.051014 0.0
0.781877 -0.046233 0.0
0.781591 -0.041723 0.0
0.781162 -0.037490 0.0
0.780608 -0.033536 0.0
0.779945 -0.029861 0.0
0.779189 -0.026461 0.0
0.778353 -0.023329 0.0
0.777449 -0.020459 0.0
0.776490 -0.017840 0.0
0.775484 -0.015460 0.0
0.774443 -0.013310 0.0
0.773375 -0.011375 0.0
0.772287 -0.009642 0.0
0.771186 -0.008100 0.0
0.770077 -0.006733 0.0
0.768967 -0.005529 0.0
0.767860 -0.004476 0.0
0.766759 -0.003559 0.0
0.765667 -0.002768 0.0
0.764587 -0.002090 0.0
0.763521 -0.001515 0.0
0.762472 -0.001033 0.0
0.761441 -0.000634 0.0
0.760432 -0.000310 0.0
0.759447 -0.000053 0.0
0.758485 0.000147 0.0
0.757546 0.000296 0.0
0.756629 0.000401 0.0
0.755734 0.000467 0.0
0.754862 0.000500 0.0
0.754014 0.000505 0.0
0.753190 0.000487 0.0
0.752393 0.000449 0.0
0.751623 0.000396 0.0
0.750881 0.000329 0.0
0.750167 0.000254 0.0
0.749484 0.000173 0.0
0.748835 0.000089 0.0
0.748223 0.000007 0.0
0.747653 -0.000071 0.0
0.747131 -0.000138 0.0
0.746667 -0.000187 0.0
0.746272 -0.000208 0.0
0.745964 -0.000187 0.0
0.745763 -0.000101 0.0
0.745690 0.000062 0.0
0.028265 -0.076757 0.0
-0.902029 -0.050923 0.0
-0.819281 -0.034683 0.0
-0.741194 -0.022200 0.0
-0.673615 -0.011508 0.0
-0.618415 -0.001835 0.0
-0.576227 0.007243 0.0
-0.548207 0.016115 0.0
-0.539267 0.025414 0.0
-0.270281 -0.001285 0.0
0.063222 0.011210 0.0
0.177144 0.000800 0.0
0.267789 -0.012068 0.0
0.340826 -0.024200 0.0
0.401497 -0.036121 0.0
0.452914 -0.046850 0.0
0.497953 -0.056498 0.0
0.538317 -0.065370 0.0
0.574919 -0.073814 0.0
0.608256 -0.082020 0.0
0.638669 -0.090031 0.0
0.666398 -0.097910 0.0
0.691584 -0.105634 0.0
0.714343 -0.113114 0.0
0.734786 -0.120236 0.0
0.753030 -0.126870 0.0
0.769201 -0.132890 0.0
0.783433 -0.138183 0.0
0.795865 -0.142654 0.0
0.806640 -0.146231 0.0
0.815898 -0.148866 0.0
0.823774 -0.150537 0.0
0.830395 -0.151243 0.0
0.835883 -0.151002 0.0
0.840351 -0.149848 0.0
0.843904 -0.147832 0.0
0.846640 -0.145016 0.0
0.848648 -0.141473 0.0
0.850009 -0.137282 0.0
0.850799 -0.132528 0.0
0.851085 -0.127295 0.0
0.850931 -0.121672 0.0
0.850393 -0.115744 0.0
0.849522 -0.109593 0.0
0.848366 -0.103296 0.0
0.846965 -0.096927 0.0
0.845358 -0.090552 0.0
0.843579 -0.084230 0.0
0.841658 -0.078014 0.0
0.839623 -0.071948 0.0
0.837498 -0.066071 0.0
0.835305 -0.060413 0.0
0.833062 -0.055000 0.0
0.830786 -0.049850 0.0
0.828493 -0.044978 0.0
0.826194 -0.040393 0.0
0.823902 -0.036098 0.0
0.821624 -0.032096 0.0
0.819370 -0.028384 0.0
0.817146 -0.024957 0.0
0.814958 -0.021808 0.0
0.812809 -0.018928 0.0
0.810705 -0.016306 0.0
0.808648 -0.013931 0.0
0.806640 -0.011790 0.0
0.804682 -0.009869 0.0
0.802777 -0.008155 0.0
0.800924 -0.006633 0.0
0.799123 -0.005291 0.0
0.797374 -0.004113 0.0
0.795675 -0.003086 0.0
0.794025 -0.002198 0.0
0.792422 -0.001435 0.0
0.790864 -0.000786 0.0
0.789351 -0.000240 0.0
0.787880 0.000212 0.0
0.786452 0.000580 0.0
0.785062 0.000873 0.0
0.783711 0.001100 0.0
0.782397 0.001269 0.0
0.781123 0.001387 0.0
0.779889 0.001461 0.0
0.778694 0.001496 0.0
0.777540 0.001498 0.0
0.776425 0.001471 0.0
0.775349 0.001420 0.0
0.774312 0.001350 0.0
0.773315 0.001263 0.0
0.772358 0.001162 0.0
0.771441 0.001052 0.0
0.770566 0.000933 0.0
0.769735 0.000809 0.0
0.768952 0.000682 0.0
0.768220 0.000555 0.0
0.767547 0.000431 0.0
0.766943 0.000313 0.0
0.766424 0.000207 0.0
0.766010 0.000121 0.0
0.765734 0.000068 0.0
0.765635 0.000065 0.0
0.971735 0.028265 0.0
0.902029 0.041441 0.0
0.819281 0.041307 0.0
0.741194 0.036780 0.0
0.673615 0.030799 0.0
0.618415 0.024402 0.0
0.576227 0.017786 0.0
0.548207 0.010234 0.0
0.539267 -0.001295 0.0
0.556726 -0.023065 0.0
0.582895 -0.058567 0.0
0.608676 -0.065675 0.0
0.642197 -0.069757 0.0
0.677144 -0.074494 0.0
0.710262 -0.079615 0.0
0.740598 -0.085109 0.0
0.768031 -0.090712 0.0
0.792817 -0.096306 0.0
0.815239 -0.101903 0.0
0.835502 -0.107531 0.0
0.853744 -0.113176 0.0
0.870062 -0.118811 0.0
0.884518 -0.124376 0.0
0.897165 -0.129778 0.0
0.908059 -0.134908 0.0
0.917264 -0.139647 0.0
0.924858 -0.143879 0.0
0.930932 -0.147500 0.0
0.935584 -0.150421 0.0
0.938918 -0.152573 0.0
0.941046 -0.153908 0.0
0.942074 -0.154399 0.0
0.942111 -0.154040 0.0
0.941262 -0.152844 0.0
0.939626 -0.150839 0.0
0.937301 -0.148069 0.0
0.934376 -0.144590 0.0
0.930937 -0.140468 0.0
0.927064 -0.135776 0.0
0.922831 -0.130591 0.0
0.918306 -0.124994 0.0
0.913552 -0.119066 0.0
0.908627 -0.112887 0.0
0.903583 -0.106535 0.0
0.898467 -0.100081 0.0
0.893320 -0.093595 0.0
0.888180 -0.087137 0.0
0.883077 -0.080764 0.0
0.878040 -0.074523 0.0
0.873092 -0.068456 0.0
0.868253 -0.062598 0.0
0.863537 -0.056976 0.0
0.858958 -0.051614 0.0
0.854524 -0.046527 0.0
0.850243 -0.041727 0.0
0.846118 -0.037221 0.0
0.842153 -0.033012 0.0
0.838347 -0.029099 0.0
0.834700 -0.025480 0.0
0.831208 -0.022147 0.0
0.827870 -0.019092 0.0
0.824680 -0.016306 0.0
0.821635 -0.013778 0.0
0.818728 -0.011495 0.0
0.815955 -0.009444 0.0
0.813309 -0.007611 0.0
0.810784 -0.005982 0.0
0.808372 -0.004541 0.0
0.806066 -0.003276 0.0
0.803858 -0.002170 0.0
0.801738 -0.001209 0.0
0.799696 -0.000381 0.0
0.797725 0.000323 0.0
0.795824 0.000915 0.0
0.793991 0.001405 0.0
0.792225 0.001803 0.0
0.790525 0.002118 0.0
0.788890 0.002361 0.0
0.787317 0.002538 0.0
0.785805 0.002658 0.0
0.784351 0.002727 0.0
0.782955 0.002753 0.0
0.781613 0.002741 0.0
0.780324 0.002696 0.0
0.779087 0.002625 0.0
0.777900 0.002530 0.0
0.776762 0.002415 0.0
0.775672 0.002284 0.0
0.774629 0.002141 0.0
0.773633 0.001986 0.0
0.772685 0.001822 0.0
0.771786 0.001650 0.0
0.770939 0.001472 0.0
0.770149 0.001288 0.0
0.769422 0.001098 0.0
0.768768 0.000902 0.0
0.768205 0.000700 0.0
0.767756 0.000491 0.0
0.767456 0.000274 0.0
0.767350 0.000065 0.0
1.012850 0.043680 0.0
1.034717 0.073865 0.0
1.046503 0.079844 0.0
1.047922 0.074911 0.0
1.043314 0.064854 0.0
1.036633 0.052229 0.0
1.030970 0.037809 0.0
1.028519 0.020683 0.0
1.028485 -0.002769 0.0
1.024699 -0.035264 0.0
1.014569 -0.062407 0.0
1.004458 -0.077505 0.0
0.999329 -0.086320 0.0
0.998970 -0.092519 0.0
1.001865 -0.097603 0.0
1.006668 -0.102259 0.0
1.012403 -0.106730 0.0
1.018439 -0.111108 0.0
1.024364 -0.115448 0.0
1.029891 -0.119776 0.0
1.034810 -0.124091 0.0
1.038960 -0.128363 0.0
1.042218 -0.132538 0.0
1.044496 -0.136541 0.0
1.045736 -0.140279 0.0
1.045911 -0.143656 0.0
1.045020 -0.146573 0.0
1.043085 -0.148944 0.0
1.040147 -0.150691 0.0
1.036261 -0.151754 0.0
1.031497 -0.152090 0.0
1.025929 -0.151677 0.0
1.019639 -0.150509 0.0
1.012712 -0.148598 0.0
1.005232 -0.145970 0.0
0.997284 -0.142666 0.0
0.988955 -0.138739 0.0
0.980323 -0.134250 0.0
0.971469 -0.129267 0.0
0.962466 -0.123863 0.0
0.953385 -0.118114 0.0
0.944289 -0.112096 0.0
0.935238 -0.105882 0.0
0.926285 -0.099544 0.0
0.917479 -0.093150 0.0
0.908860 -0.086761 0.0
0.900465 -0.080435 0.0
0.892323 -0.074221 0.0
0.884458 -0.068164 0.0
0.876888 -0.062298 0.0
0.869628 -0.056656 0.0
0.862688 -0.051261 0.0
0.856071 -0.046132 0.0
0.849779 -0.041283 0.0
0.843810 -0.036721 0.0
0.838160 -0.032452 0.0
0.832821 -0.028477 0.0
0.827784 -0.024792 0.0
0.823039 -0.021394 0.0
0.818573 -0.018275 0.0
0.814375 -0.015427 0.0
0.810431 -0.012838 0.0
0.806727 -0.010497 0.0
0.803249 -0.008392 0.0
0.799983 -0.006508 0.0
0.796913 -0.004831 0.0
0.794023 -0.003347 0.0
0.791295 -0.002036 0.0
0.788702 -0.000882 0.0
0.786225 0.000121 0.0
0.783862 0.000983 0.0
0.781615 0.001716 0.0
0.779484 0.002328 0.0
0.777463 0.002832 0.0
0.775546 0.003237 0.0
0.773729 0.003554 0.0
0.772005 0.003791 0.0
0.770369 0.003959 0.0
0.768815 0.004066 0.0
0.767340 0.004118 0.0
0.765937 0.004123 0.0
0.764604 0.004087 0.0
0.763335 0.004017 0.0
0.762128 0.003916 0.0
0.760978 0.003791 0.0
0.759882 0.003645 0.0
0.758839 0.003481 0.0
0.757845 0.003302 0.0
0.756899 0.003111 0.0
0.756000 0.002910 0.0
0.755148 0.002699 0.0
0.754342 0.002478 0.0
0.753585 0.002248 0.0
0.752880 0.002008 0.0
0.752232 0.001753 0.0
0.751651 0.001481 0.0
0.751152 0.001184 0.0
0.750754 0.000853 0.0
0.750491 0.000475 0.0
0.750400 0.000061 0.0
1.008272 0.022557 0.0
1.031045 0.050350 0.0
1.060606 0.062012 0.0
1.089250 0.062681 0.0
1.114559 0.056381 0.0
1.136404 0.045537 0.0
1.155334 0.031233 0.0
1.171561 0.013482 0.0
1.183987 -0.007961 0.0
1.190061 -0.032360 0.0
1.189167 -0.054287 0.0
1.184250 -0.070597 0.0
1.178414 -0.082264 0.0
1.173101 -0.090902 0.0
1.168662 -0.097676 0.0
1.164994 -0.103322 0.0
1.161856 -0.108264 0.0
1.158995 -0.112748 0.0
1.156183 -0.116921 0.0
1.153223 -0.120870 0.0
1.149939 -0.124633 0.0
1.146183 -0.128215 0.0
1.141830 -0.131592 0.0
1.136782 -0.134716 0.0
1.130964 -0.137527 0.0
1.124333 -0.139952 0.0
1.116867 -0.141920 0.0
1.108570 -0.143365 0.0
1.099466 -0.144227 0.0
1.089597 -0.144463 0.0
1.079019 -0.144039 0.0
1.067801 -0.142943 0.0
1.056020 -0.141173 0.0
1.043759 -0.138745 0.0
1.031105 -0.135688 0.0
1.018149 -0.132044 0.0
1.004980 -0.127862 0.0
0.991688 -0.123202 0.0
0.978357 -0.118129 0.0
0.965071 -0.112712 0.0
0.951906 -0.107019 0.0
0.938933 -0.101122 0.0
0.926216 -0.095088 0.0
0.913814 -0.088983 0.0
0.901776 -0.082866 0.0
0.890143 -0.076794 0.0
0.878952 -0.070816 0.0
0.868229 -0.064975 0.0
0.857994 -0.059310 0.0
0.848261 -0.053850 0.0
0.839037 -0.048621 0.0
0.830324 -0.043642 0.0
0.822118 -0.038929 0.0
0.814413 -0.034489 0.0
0.807195 -0.030329 0.0