# vtk DataFile Version 3.0
Vector Field
ASCII
DATASET RECTILINEAR_GRID
DIMENSIONS 100 20 1
X_COORDINATES 100 double
0.050000 0.150000 0.250000 0.350000 0.450000 0.550000 0.650000 0.750000 0.850000 0.950000 1.050000 1.150000 1.250000 1.350000 1.450000 1.550000 1.650000 1.750000 1.850000 1.950000 2.050000 2.150000 2.250000 2.350000 2.450000 2.550000 2.650000 2.750000 2.850000 2.950000 3.050000 3.150000 3.250000 3.350000 3.450000 3.550000 3.650000 3.750000 3.850000 3.950000 4.050000 4.150000 4.250000 4.350000 4.450000 4.550000 4.650000 4.750000 4.850000 4.950000 5.050000 5.150000 5.250000 5.350000 5.450000 5.550000 5.650000 5.750000 5.850000 5.950000 6.050000 6.150000 6.250000 6.350000 6.450000 6.550000 6.650000 6.750000 6.850000 6.950000 7.050000 7.150000 7.250000 7.350000 7.450000 7.550000 7.650000 7.750000 7.850000 7.950000 8.050000 8.150000 8.250000 8.350000 8.450000 8.550000 8.650000 8.750000 8.850000 8.950000 9.050000 9.150000 9.250000 9.350000 9.450000 9.550000 9.650000 9.750000 9.850000 9.950000 
Y_COORDINATES 20 double
0.050000 0.150000 0.250000 0.350000 0.450000 0.550000 0.650000 0.750000 0.850000 0.950000 1.050000 1.150000 1.250000 1.350000 1.450000 1.550000 1.650000 1.750000 1.850000 1.950000 
Z_COORDINATES 1 double
0.0
POINT_DATA 2000
VECTORS Vektorfeld double
0.500000 0.000000 0.0
0.000000 0.000000 0.0
0.000000 0.000000 0.0
0.000000 0.000000 0.0
0.000000 0.000000 0.0
0.000000 0.000000 0.0
0.000000 0.000000 0.0
0.000000 0.000000 0.0
0.000000 0.000000 0.0
0.000000 -0.000113 0.0
-0.000189 0.000189 0.0
-0.001947 0.001569 0.0
-0.005908 0.002393 0.0
-0.010991 0.002691 0.0
-0.016421 0.002740 0.0
-0.021884 0.002723 0.0
-0.027330 0.002722 0.0
-0.032810 0.002758 0.0
-0.038399 0.002831 0.0
-0.044155 0.002926 0.0
-0.050104 0.003023 0.0
-0.056220 0.003093 0.0
-0.062414 0.003101 0.0
-0.068523 0.003008 0.0
-0.074320 0.002788 0.0
-0.079541 0.002433 0.0
-0.083927 0.001953 0.0
-0.087246 0.001367 0.0
-0.089320 0.000707 0.0
-0.090049 0.000022 0.0
-0.089403 -0.000667 0.0
-0.087395 -0.001341 0.0
-0.084099 -0.001956 0.0
-0.079649 -0.002494 0.0
-0.074193 -0.002962 0.0
-0.067873 -0.003358 0.0
-0.060854 -0.003661 0.0
-0.053331 -0.003861 0.0
-0.045494 -0.003976 0.0
-0.037446 -0.004071 0.0
-0.029291 -0.004084 0.0
-0.021197 -0.004010 0.0
-0.013268 -0.003920 0.0
-0.005564 -0.003784 0.0
0.001818 -0.003598 0.0
0.008790 -0.003374 0.0
0.015305 -0.003141 0.0
0.021351 -0.002906 0.0
0.026928 -0.002671 0.0
0.032040 -0.002440 0.0
0.036696 -0.002216 0.0
0.040911 -0.002000 0.0
0.044705 -0.001794 0.0
0.048098 -0.001600 0.0
0.051116 -0.001418 0.0
0.053783 -0.001250 0.0
0.056128 -0.001095 0.0
0.058175 -0.000953 0.0
0.059953 -0.000825 0.0
0.061487 -0.000709 0.0
0.062802 -0.000606 0.0
0.063921 -0.000513 0.0
0.064866 -0.000432 0.0
0.065659 -0.000361 0.0
0.066318 -0.000298 0.0
0.066861 -0.000245 0.0
0.067304 -0.000198 0.0
0.067662 -0.000159 0.0
0.067946 -0.000126 0.0
0.068169 -0.000098 0.0
0.068342 -0.000075 0.0
0.068472 -0.000056 0.0
0.068569 -0.000041 0.0
0.068639 -0.000029 0.0
0.068687 -0.000020 0.0
0.068720 -0.000013 0.0
0.068741 -0.000008 0.0
0.068754 -0.000005 0.0
0.068763 -0.000004 0.0
0.068770 -0.000003 0.0
0.068777 -0.000004 0.0
0.068786 -0.000005 0.0
0.068797 -0.000007 0.0
0.068813 -0.000009 0.0
0.068834 -0.000012 0.0
0.068861 -0.000015 0.0
0.068893 -0.000018 0.0
0.068931 -0.000020 0.0
0.068974 -0.000023 0.0
0.069023 -0.000026 0.0
0.069076 -0.000028 0.0
0.069133 -0.000029 0.0
0.069191 -0.000030 0.0
0.069250 -0.000029 0.0
0.069307 -0.000028 0.0
0.069359 -0.000024 0.0
0.069403 -0.000019 0.0
0.069434 -0.000012 0.0
0.069449 -0.000003 0.0
0.069448 0.000004 0.0
0.500000 0.000000 0.0
0.000000 0.000000 0.0
0.000000 0.000000 0.0
0.000000 0.000000 0.0
0.000000 0.000000 0.0
0.000000 0.000000 0.0
0.000000 0.000000 0.0
0.000000 0.000000 0.0
0.000000 0.000000 0.0
0.000000 -0.000182 0.0
-0.001949 0.002327 0.0
-0.008562 0.007801 0.0
-0.019273 0.010833 0.0
-0.031837 0.011898 0.0
-0.044886 0.012013 0.0
-0.057820 0.011847 0.0
-0.070480 0.011704 0.0
-0.082898 0.011675 0.0
-0.095148 0.011753 0.0
-0.107270 0.011882 0.0
-0.119233 0.011978 0.0
-0.130901 0.011923 0.0
-0.142022 0.011585 0.0
-0.152224 0.010835 0.0
-0.161056 0.009590 0.0
-0.168044 0.007842 0.0
-0.172776 0.005662 0.0
-0.174941 0.003142 0.0
-0.174340 0.000405 0.0
-0.170905 -0.002384 0.0
-0.164744 -0.005067 0.0
-0.156148 -0.007545 0.0
-0.145470 -0.009725 0.0
-0.133060 -0.011585 0.0
-0.119219 -0.013167 0.0
-0.104205 -0.014487 0.0
-0.088285 -0.015471 0.0
-0.071759 -0.016100 0.0
-0.054911 -0.016423 0.0
-0.037920 -0.016664 0.0
-0.020937 -0.016629 0.0
-0.004140 -0.016356 0.0
0.012235 -0.015879 0.0
0.027952 -0.015245 0.0
0.042933 -0.014499 0.0
0.057149 -0.013661 0.0
0.070567 -0.012786 0.0
0.083155 -0.011894 0.0
0.094894 -0.010999 0.0
0.105782 -0.010112 0.0
0.115826 -0.009244 0.0
0.125043 -0.008404 0.0
0.133456 -0.007597 0.0
0.141098 -0.006831 0.0
0.148002 -0.006109 0.0
0.154209 -0.005433 0.0
0.159759 -0.004806 0.0
0.164697 -0.004228 0.0
0.169066 -0.003698 0.0
0.172913 -0.003216 0.0
0.176280 -0.002780 0.0
0.179211 -0.002389 0.0
0.181747 -0.002039 0.0
0.183928 -0.001728 0.0
0.185793 -0.001455 0.0
0.187376 -0.001215 0.0
0.188710 -0.001006 0.0
0.189827 -0.000825 0.0
0.190754 -0.000671 0.0
0.191518 -0.000539 0.0
0.192141 -0.000428 0.0
0.192644 -0.000336 0.0
0.193047 -0.000260 0.0
0.193367 -0.000198 0.0
0.193618 -0.000149 0.0
0.193813 -0.000111 0.0
0.193964 -0.000082 0.0
0.194080 -0.000061 0.0
0.194172 -0.000047 0.0
0.194245 -0.000039 0.0
0.194306 -0.000036 0.0
0.194361 -0.000036 0.0
0.194413 -0.000040 0.0
0.194467 -0.000046 0.0
0.194525 -0.000054 0.0
0.194589 -0.000063 0.0
0.194662 -0.000073 0.0
0.194743 -0.000084 0.0
0.194834 -0.000094 0.0
0.194935 -0.000104 0.0
0.195044 -0.000112 0.0
0.195160 -0.000118 0.0
0.195281 -0.000121 0.0
0.195403 -0.000120 0.0
0.195522 -0.000113 0.0
0.195632 -0.000101 0.0
0.195726 -0.000080 0.0
0.195796 -0.000051 0.0
0.195831 -0.000014 0.0
0.195826 0.000022 0.0
0.500000 0.000000 0.0
0.000000 0.000000 0.0
0.000000 0.000000 0.0
0.000000 0.000000 0.0
0.000000 0.000000 0.0
0.000000 0.000000 0.0
0.000000 0.000000 0.0
0.000000 0.000000 0.0
0.000000 0.000000 0.0
0.000000 0.000026 0.0
-0.003664 0.007940 0.0
-0.014596 0.019733 0.0
-0.030463 0.025478 0.0
-0.047836 0.027189 0.0
-0.065083 0.027018 0.0
-0.081576 0.026269 0.0
-0.097166 0.025532 0.0
-0.111884 0.024983 0.0
-0.125787 0.024597 0.0
-0.138884 0.024258 0.0
-0.151104 0.023785 0.0
-0.162261 0.022942 0.0
-0.172046 0.021472 0.0
-0.180021 0.019126 0.0
-0.185653 0.015763 0.0
-0.188406 0.011410 0.0
-0.187862 0.006281 0.0
-0.183751 0.000576 0.0
-0.176201 -0.005178 0.0
-0.165681 -0.010756 0.0
-0.152649 -0.015890 0.0
-0.137512 -0.020456 0.0
-0.120653 -0.024351 0.0
-0.102445 -0.027578 0.0
-0.083207 -0.030253 0.0
-0.063189 -0.032435 0.0
-0.042632 -0.034000 0.0
-0.021755 -0.034973 0.0
-0.000698 -0.035456 0.0
0.020175 -0.035496 0.0
0.040518 -0.035122 0.0
0.060264 -0.034407 0.0
0.079371 -0.033309 0.0
0.097790 -0.031952 0.0
0.115442 -0.030425 0.0
0.132264 -0.028772 0.0
0.148211 -0.027041 0.0
0.163252 -0.025268 0.0
0.177368 -0.023481 0.0
0.190553 -0.021704 0.0
0.202813 -0.019957 0.0
0.214161 -0.018256 0.0
0.224619 -0.016616 0.0
0.234214 -0.015048 0.0
0.242979 -0.013560 0.0
0.250950 -0.012159 0.0
0.258167 -0.010847 0.0
0.264671 -0.009629 0.0
0.270507 -0.008503 0.0
0.275719 -0.007469 0.0
0.280352 -0.006526 0.0
0.284450 -0.005671 0.0
0.288056 -0.004899 0.0
0.291214 -0.004207 0.0
0.293965 -0.003591 0.0
0.296348 -0.003044 0.0
0.298400 -0.002563 0.0
0.300158 -0.002142 0.0
0.301654 -0.001777 0.0
0.302919 -0.001462 0.0
0.303981 -0.001192 0.0
0.304868 -0.000963 0.0
0.305603 -0.000771 0.0
0.306208 -0.000612 0.0
0.306703 -0.000481 0.0
0.307104 -0.000376 0.0
0.307429 -0.000293 0.0
0.307691 -0.000229 0.0
0.307903 -0.000182 0.0
0.308075 -0.000149 0.0
0.308217 -0.000129 0.0
0.308336 -0.000118 0.0
0.308441 -0.000115 0.0
0.308537 -0.000120 0.0
0.308629 -0.000130 0.0
0.308721 -0.000144 0.0
0.308817 -0.000161 0.0
0.308918 -0.000179 0.0
0.309027 -0.000199 0.0
0.309144 -0.000217 0.0
0.309270 -0.000233 0.0
0.309404 -0.000246 0.0
0.309543 -0.000252 0.0
0.309685 -0.000252 0.0
0.309824 -0.000240 0.0
0.309956 -0.000216 0.0
0.310070 -0.000174 0.0
0.310156 -0.000113 0.0
0.310201 -0.000032 0.0
0.310191 0.000055 0.0
0.500000 0.000000 0.0
0.000000 0.000000 0.0
0.000000 0.000000 0.0
0.000000 0.000000 0.0
0.000000 0.000000 0.0
0.000000 0.000000 0.0
0.000000 0.000000 0.0
0.000000 0.000000 0.0
0.000000 0.000000 0.0
0.000000 0.000445 0.0
-0.004932 0.016536 0.0
-0.018772 0.035910 0.0
-0.037438 0.043835 0.0
-0.056528 0.045296 0.0
-0.074357 0.043986 0.0
-0.090453 0.041890 0.0
-0.104799 0.039846 0.0
-0.117494 0.038081 0.0
-0.128614 0.036522 0.0
-0.138159 0.034975 0.0
-0.146048 0.033176 0.0
-0.152100 0.030759 0.0
-0.156010 0.027350 0.0
-0.157339 0.022552 0.0
-0.155517 0.016147 0.0
-0.149970 0.008232 0.0
-0.140344 -0.000710 0.0
-0.127320 -0.009569 0.0
-0.111991 -0.017911 0.0
-0.094815 -0.025718 0.0
-0.076114 -0.032661 0.0
-0.056199 -0.038736 0.0
-0.035321 -0.043809 0.0
-0.013692 -0.047955 0.0
0.008439 -0.051243 0.0
0.030669 -0.053693 0.0
0.052723 -0.055354 0.0
0.074517 -0.056290 0.0
0.095922 -0.056603 0.0
0.116863 -0.056163 0.0
0.137278 -0.055211 0.0
0.157043 -0.053829 0.0
0.176092 -0.052042 0.0
0.194391 -0.049937 0.0
0.211897 -0.047599 0.0
0.228570 -0.045093 0.0
0.244380 -0.042478 0.0
0.259308 -0.039800 0.0
0.273346 -0.037102 0.0
0.286494 -0.034416 0.0
0.298761 -0.031771 0.0
0.310163 -0.029191 0.0
0.320720 -0.026696 0.0
0.330459 -0.024303 0.0
0.339411 -0.022022 0.0
0.347607 -0.019864 0.0
0.355083 -0.017835 0.0
0.361877 -0.015939 0.0
0.368027 -0.014178 0.0
0.373571 -0.012551 0.0
0.378549 -0.011056 0.0
0.383000 -0.009690 0.0
0.386962 -0.008449 0.0
0.390475 -0.007328 0.0
0.393573 -0.006320 0.0
0.396295 -0.005419 0.0
0.398672 -0.004619 0.0
0.400739 -0.003912 0.0
0.402527 -0.003291 0.0
0.404064 -0.002750 0.0
0.405378 -0.002281 0.0
0.406496 -0.001878 0.0
0.407439 -0.001535 0.0
0.408232 -0.001245 0.0
0.408892 -0.001003 0.0
0.409440 -0.000804 0.0
0.409891 -0.000642 0.0
0.410261 -0.000513 0.0
0.410563 -0.000412 0.0
0.410809 -0.000337 0.0
0.411010 -0.000283 0.0
0.411175 -0.000248 0.0
0.411314 -0.000228 0.0
0.411432 -0.000222 0.0
0.411537 -0.000225 0.0
0.411635 -0.000238 0.0
0.411728 -0.000256 0.0
0.411822 -0.000279 0.0
0.411918 -0.000305 0.0
0.412020 -0.000330 0.0
0.412128 -0.000354 0.0
0.412242 -0.000373 0.0
0.412362 -0.000384 0.0
0.412485 -0.000385 0.0
0.412609 -0.000370 0.0
0.412727 -0.000335 0.0
0.412833 -0.000274 0.0
0.412914 -0.000180 0.0
0.412955 -0.000050 0.0
0.412939 0.000100 0.0
0.500000 0.000000 0.0
0.000000 0.000000 0.0
0.000000 0.000000 0.0
0.000000 0.000000 0.0
0.000000 0.000000 0.0
0.000000 0.000000 0.0
0.000000 0.000000 0.0
0.000000 0.000000 0.0
0.000000 0.000000 0.0
0.000000 0.001034 0.0
-0.005749 0.027216 0.0
-0.020894 0.054214 0.0
-0.039621 0.062925 0.0
-0.057039 0.062712 0.0
-0.071771 0.059130 0.0
-0.083715 0.054787 0.0
-0.093090 0.050670 0.0
-0.100120 0.046983 0.0
-0.104916 0.043536 0.0
-0.107445 0.040034 0.0
-0.107606 0.036168 0.0
-0.105189 0.031402 0.0
-0.099852 0.025280 0.0
-0.091174 0.017273 0.0
-0.078489 0.006918 0.0
-0.061788 -0.004788 0.0
-0.042635 -0.016468 0.0
-0.022274 -0.027197 0.0
-0.000862 -0.037024 0.0
0.021199 -0.045843 0.0
0.043511 -0.053551 0.0
0.065948 -0.060197 0.0
0.088400 -0.065679 0.0
0.110761 -0.070076 0.0
0.132897 -0.073389 0.0
0.154728 -0.075608 0.0
0.176159 -0.076924 0.0
0.197065 -0.077419 0.0
0.217350 -0.077163 0.0
0.236973 -0.076167 0.0
0.255913 -0.074562 0.0
0.274120 -0.072451 0.0
0.291559 -0.069908 0.0
0.308207 -0.067019 0.0
0.324050 -0.063865 0.0
0.339071 -0.060521 0.0
0.353265 -0.057053 0.0
0.366627 -0.053516 0.0
0.379164 -0.049961 0.0
0.390886 -0.046427 0.0
0.401808 -0.042950 0.0
0.411952 -0.039558 0.0
0.421344 -0.036278 0.0
0.430009 -0.033126 0.0
0.437979 -0.030120 0.0
0.445286 -0.027269 0.0
0.451962 -0.024583 0.0
0.458042 -0.022065 0.0
0.463560 -0.019719 0.0
0.468550 -0.017544 0.0
0.473047 -0.015537 0.0
0.477084 -0.013696 0.0
0.480693 -0.012015 0.0
0.483908 -0.010489 0.0
0.486759 -0.009109 0.0
0.489276 -0.007868 0.0
0.491487 -0.006759 0.0
0.493421 -0.005772 0.0
0.495103 -0.004900 0.0
0.496558 -0.004133 0.0
0.497809 -0.003463 0.0
0.498877 -0.002882 0.0
0.499783 -0.002381 0.0
0.500546 -0.001954 0.0
0.501183 -0.001592 0.0
0.501710 -0.001289 0.0
0.502141 -0.001039 0.0
0.502491 -0.000835 0.0
0.502771 -0.000672 0.0
0.502992 -0.000545 0.0
0.503165 -0.000449 0.0
0.503298 -0.000381 0.0
0.503401 -0.000336 0.0
0.503479 -0.000311 0.0
0.503539 -0.000302 0.0
0.503588 -0.000307 0.0
0.503629 -0.000322 0.0
0.503667 -0.000345 0.0
0.503705 -0.000373 0.0
0.503746 -0.000404 0.0
0.503791 -0.000433 0.0
0.503843 -0.000459 0.0
0.503901 -0.000476 0.0
0.503965 -0.000481 0.0
0.504033 -0.000467 0.0
0.504103 -0.000427 0.0
0.504168 -0.000353 0.0
0.504219 -0.000234 0.0
0.504243 -0.000061 0.0
0.504218 0.000152 0.0
0.500000 0.000000 0.0
0.000000 0.000000 0.0
0.000000 0.000000 0.0
0.000000 0.000000 0.0
0.000000 0.000000 0.0
0.000000 0.000000 0.0
0.000000 0.000000 0.0
0.000000 0.000000 0.0
0.000000 0.000000 0.0
0.000000 0.001809 0.0
-0.006364 0.039329 0.0
-0.021338 0.072220 0.0
-0.036969 0.079279 0.0
-0.048811 0.075618 0.0
-0.056490 0.068637 0.0
-0.060542 0.061276 0.0
-0.061460 0.054473 0.0
-0.059583 0.048334 0.0
-0.055041 0.042439 0.0
-0.047681 0.036300 0.0
-0.037290 0.029672 0.0
-0.023558 0.021748 0.0
-0.005692 0.011730 0.0
0.016609 -0.000156 0.0
0.041470 -0.013199 0.0
0.066541 -0.026444 0.0
0.091236 -0.038660 0.0
0.115697 -0.049827 0.0
0.139845 -0.059954 0.0
0.163624 -0.068752 0.0
0.187003 -0.076334 0.0
0.209875 -0.082723 0.0
0.232164 -0.087894 0.0
0.253822 -0.091880 0.0
0.274810 -0.094710 0.0
0.295118 -0.096425 0.0
0.314725 -0.097145 0.0
0.333592 -0.096970 0.0
0.351682 -0.095987 0.0
0.368982 -0.094267 0.0
0.385491 -0.091911 0.0
0.401203 -0.089021 0.0
0.416116 -0.085689 0.0
0.430231 -0.082002 0.0
0.443553 -0.078046 0.0
0.456089 -0.073898 0.0
0.467850 -0.069629 0.0
0.478848 -0.065301 0.0
0.489100 -0.060966 0.0
0.498627 -0.056670 0.0
0.507452 -0.052453 0.0
0.515601 -0.048348 0.0
0.523102 -0.044380 0.0
0.529986 -0.040572 0.0
0.536282 -0.036940 0.0
0.542023 -0.033497 0.0
0.547240 -0.030250 0.0
0.551966 -0.027205 0.0
0.556232 -0.024363 0.0
0.560068 -0.021726 0.0
0.563506 -0.019289 0.0
0.566573 -0.017049 0.0
0.569299 -0.014999 0.0
0.571711 -0.013132 0.0
0.573834 -0.011440 0.0
0.575692 -0.009913 0.0
0.577311 -0.008544 0.0
0.578711 -0.007321 0.0
0.579913 -0.006235 0.0
0.580936 -0.005276 0.0
0.581800 -0.004434 0.0
0.582521 -0.003699 0.0
0.583114 -0.003063 0.0
0.583594 -0.002515 0.0
0.583975 -0.002048 0.0
0.584270 -0.001654 0.0
0.584488 -0.001324 0.0
0.584642 -0.001053 0.0
0.584740 -0.000832 0.0
0.584792 -0.000658 0.0
0.584805 -0.000523 0.0
0.584787 -0.000423 0.0
0.584745 -0.000354 0.0
0.584684 -0.000310 0.0
0.584610 -0.000289 0.0
0.584527 -0.000286 0.0
0.584440 -0.000297 0.0
0.584352 -0.000320 0.0
0.584265 -0.000350 0.0
0.584182 -0.000385 0.0
0.584105 -0.000421 0.0
0.584037 -0.000454 0.0
0.583980 -0.000480 0.0
0.583933 -0.000494 0.0
0.583899 -0.000488 0.0
0.583877 -0.000453 0.0
0.583864 -0.000379 0.0
0.583855 -0.000251 0.0
0.583842 -0.000053 0.0
0.583806 0.000205 0.0
0.500000 0.000000 0.0
0.000000 0.000000 0.0
0.000000 0.000000 0.0
0.000000 0.000000 0.0
0.000000 0.000000 0.0
0.000000 0.000000 0.0
0.000000 0.000000 0.0
0.000000 0.000000 0.0
0.000000 0.000000 0.0
0.000000 0.002948 0.0
-0.007060 0.052753 0.0
-0.020032 0.086741 0.0
-0.027948 0.088305 0.0
-0.028876 0.079361 0.0
-0.024601 0.068297 0.0
-0.016522 0.057589 0.0
-0.005155 0.047710 0.0
0.009283 0.038781 0.0
0.026661 0.030071 0.0
0.047265 0.020704 0.0
0.071885 0.010257 0.0
0.100528 -0.001212 0.0
0.131289 -0.013937 0.0
0.161857 -0.027357 0.0
0.191330 -0.040331 0.0
0.219659 -0.052713 0.0
0.246791 -0.064218 0.0
0.272754 -0.074693 0.0
0.297565 -0.084047 0.0
0.321268 -0.092140 0.0
0.343920 -0.098976 0.0
0.365538 -0.104570 0.0
0.386136 -0.108933 0.0
0.405732 -0.112096 0.0
0.424354 -0.114104 0.0
0.442035 -0.115018 0.0
0.458804 -0.114929 0.0
0.474681 -0.113931 0.0
0.489684 -0.112119 0.0
0.503832 -0.109584 0.0
0.517152 -0.106423 0.0
0.529665 -0.102736 0.0
0.541395 -0.098617 0.0
0.552364 -0.094157 0.0
0.562595 -0.089443 0.0
0.572111 -0.084553 0.0
0.580935 -0.079560 0.0
0.589093 -0.074526 0.0
0.596610 -0.069509 0.0
0.603512 -0.064556 0.0
0.609829 -0.059709 0.0
0.615587 -0.055001 0.0
0.620818 -0.050460 0.0
0.625552 -0.046109 0.0
0.629817 -0.041965 0.0
0.633646 -0.038040 0.0
0.637065 -0.034343 0.0
0.640106 -0.030878 0.0
0.642796 -0.027645 0.0
0.645161 -0.024646 0.0
0.647228 -0.021874 0.0
0.649023 -0.019325 0.0
0.650567 -0.016992 0.0
0.651885 -0.014867 0.0
0.652997 -0.012939 0.0
0.653922 -0.011199 0.0
0.654680 -0.009635 0.0
0.655288 -0.008237 0.0
0.655761 -0.006994 0.0
0.656115 -0.005894 0.0
0.656363 -0.004927 0.0
0.656517 -0.004081 0.0
0.656589 -0.003347 0.0
0.656591 -0.002713 0.0
0.656530 -0.002171 0.0
0.656416 -0.001712 0.0
0.656257 -0.001326 0.0
0.656060 -0.001008 0.0
0.655832 -0.000748 0.0
0.655580 -0.000541 0.0
0.655309 -0.000381 0.0
0.655025 -0.000262 0.0
0.654732 -0.000179 0.0
0.654434 -0.000126 0.0
0.654135 -0.000099 0.0
0.653836 -0.000093 0.0
0.653539 -0.000105 0.0
0.653245 -0.000130 0.0
0.652959 -0.000166 0.0
0.652683 -0.000210 0.0
0.652419 -0.000256 0.0
0.652171 -0.000302 0.0
0.651939 -0.000343 0.0
0.651728 -0.000374 0.0
0.651540 -0.000386 0.0
0.651378 -0.000371 0.0
0.651245 -0.000316 0.0
0.651143 -0.000204 0.0
0.651070 -0.000014 0.0
0.651018 0.000254 0.0
0.500000 0.000000 0.0
0.000000 0.000000 0.0
0.000000 0.000000 0.0
0.000000 0.000000 0.0
0.000000 0.000000 0.0
0.000000 0.000000 0.0
0.000000 0.000000 0.0
0.000000 0.000000 0.0
0.000000 0.000000 0.0
0.000000 0.004995 0.0
-0.007060 0.066873 0.0
-0.012972 0.091505 0.0
-0.004137 0.082622 0.0
0.014394 0.067441 0.0
0.037431 0.052906 0.0
0.062947 0.039385 0.0
0.090870 0.026625 0.0
0.121878 0.014421 0.0
0.156311 0.002621 0.0
0.193012 -0.009150 0.0
0.229906 -0.021403 0.0
0.265523 -0.033813 0.0
0.299476 -0.046049 0.0
0.331659 -0.057996 0.0
0.361975 -0.069482 0.0
0.390402 -0.080317 0.0
0.416976 -0.090319 0.0
0.441774 -0.099352 0.0
0.464884 -0.107310 0.0
0.486411 -0.114107 0.0
0.506461 -0.119711 0.0
0.525128 -0.124120 0.0
0.542495 -0.127347 0.0
0.558642 -0.129425 0.0
0.573645 -0.130400 0.0
0.587576 -0.130335 0.0
0.600505 -0.129309 0.0
0.612489 -0.127412 0.0
0.623583 -0.124734 0.0
0.633836 -0.121371 0.0
0.643297 -0.117416 0.0
0.652010 -0.112968 0.0
0.660014 -0.108119 0.0
0.667350 -0.102959 0.0
0.674052 -0.097574 0.0
0.680155 -0.092041 0.0
0.685691 -0.086433 0.0
0.690693 -0.080812 0.0
0.695189 -0.075236 0.0
0.699212 -0.069753 0.0
0.702788 -0.064404 0.0
0.705949 -0.059224 0.0
0.708722 -0.054240 0.0
0.711134 -0.049475 0.0
0.713213 -0.044944 0.0
0.714984 -0.040661 0.0
0.716474 -0.036632 0.0
0.717705 -0.032861 0.0
0.718701 -0.029348 0.0
0.719484 -0.026091 0.0
0.720075 -0.023086 0.0
0.720492 -0.020325 0.0
0.720754 -0.017800 0.0
0.720878 -0.015501 0.0
0.720881 -0.013418 0.0
0.720775 -0.011539 0.0
0.720576 -0.009853 0.0
0.720295 -0.008346 0.0
0.719944 -0.007007 0.0
0.719532 -0.005824 0.0
0.719070 -0.004783 0.0
0.718565 -0.003874 0.0
0.718025 -0.003086 0.0
0.717456 -0.002406 0.0
0.716864 -0.001826 0.0
0.716256 -0.001334 0.0
0.715635 -0.000924 0.0
0.715008 -0.000586 0.0
0.714379 -0.000314 0.0
0.713754 -0.000099 0.0
0.713136 0.000066 0.0
0.712524 0.000187 0.0
0.711919 0.000270 0.0
0.711320 0.000321 0.0
0.710729 0.000344 0.0
0.710148 0.000343 0.0
0.709580 0.000324 0.0
0.709027 0.000288 0.0
0.708490 0.000239 0.0
0.707971 0.000181 0.0
0.707472 0.000116 0.0
0.706996 0.000050 0.0
0.706546 -0.000015 0.0
0.706128 -0.000073 0.0
0.705747 -0.000117 0.0
0.705409 -0.000140 0.0
0.705123 -0.000129 0.0
0.704900 -0.000066 0.0
0.704749 0.000072 0.0
0.704675 0.000294 0.0
0.500000 -0.076765 0.0
0.000000 -0.050932 0.0
0.000000 -0.034693 0.0
0.000000 -0.022210 0.0
0.000000 -0.011518 0.0
0.000000 -0.001846 0.0
0.000000 0.007231 0.0
0.000000 0.016102 0.0
0.000000 0.025400 0.0
0.000000 0.005338 0.0
0.001480 0.072453 0.0
0.022388 0.070929 0.0
0.065340 0.051411 0.0
0.112704 0.032756 0.0
0.161154 0.016105 0.0
0.210274 0.001550 0.0
0.258414 -0.011604 0.0
0.304113 -0.024058 0.0
0.346619 -0.035840 0.0
0.386144 -0.046915 0.0
0.423107 -0.057495 0.0
0.457637 -0.067868 0.0
0.489717 -0.078026 0.0
0.519371 -0.087856 0.0
0.546662 -0.097231 0.0
0.571675 -0.106008 0.0
0.594519 -0.114046 0.0
0.615319 -0.121223 0.0
0.634210 -0.127441 0.0
0.651331 -0.132625 0.0
0.666823 -0.136735 0.0
0.680814 -0.139755 0.0
0.693429 -0.141694 0.0
0.704780 -0.142577 0.0
0.714975 -0.142445 0.0
0.724111 -0.141357 0.0
0.732280 -0.139384 0.0
0.739565 -0.136606 0.0
0.746039 -0.133109 0.0
0.751771 -0.128982 0.0
0.756823 -0.124318 0.0
0.761253 -0.119208 0.0
0.765112 -0.113743 0.0
0.768449 -0.108008 0.0
0.771306 -0.102085 0.0
0.773724 -0.096051 0.0
0.775740 -0.089975 0.0
0.777388 -0.083920 0.0
0.778700 -0.077938 0.0
0.779706 -0.072079 0.0
0.780434 -0.066383 0.0
0.780910 -0.060882 0.0
0.781158 -0.055603 0.0
0.781202 -0.050568 0.0
0.781062 -0.045791 0.0
0.780761 -0.041284 0.0
0.780315 -0.037053 0.0
0.779743 -0.033099 0.0
0.779060 -0.029423 0.0
0.778283 -0.026021 0.0
0.777423 -0.022887 0.0
0.776494 -0.020013 0.0
0.775508 -0.017389 0.0
0.774475 -0.015004 0.0
0.773405 -0.012847 0.0
0.772305 -0.010906 0.0
0.771184 -0.009167 0.0
0.770049 -0.007616 0.0
0.768906 -0.006242 0.0
0.767760 -0.005031 0.0
0.766615 -0.003969 0.0
0.765475 -0.003044 0.0
0.764343 -0.002244 0.0
0.763222 -0.001558 0.0
0.762115 -0.000975 0.0
0.761026 -0.000487 0.0
0.759959 -0.000083 0.0
0.758913 0.000246 0.0
0.757887 0.000509 0.0
0.756878 0.000712 0.0
0.755887 0.000864 0.0
0.754915 0.000972 0.0
0.753965 0.001041 0.0
0.753039 0.001076 0.0
0.752137 0.001082 0.0
0.751261 0.001062 0.0
0.750411 0.001022 0.0
0.749590 0.000964 0.0
0.748798 0.000892 0.0
0.748037 0.000808 0.0
0.747308 0.000716 0.0
0.746615 0.000619 0.0
0.745961 0.000520 0.0
0.745350 0.000422 0.0
0.744789 0.000331 0.0
0.744286 0.000252 0.0
0.743854 0.000197 0.0
0.743510 0.000177 0.0
0.743276 0.000215 0.0
0.743179 0.000322 0.0
0.028265 -0.076766 0.0
-0.902028 -0.050932 0.0
-0.819279 -0.034693 0.0
-0.741191 -0.022210 0.0
-0.673610 -0.011518 0.0
-0.618406 -0.001846 0.0
-0.576214 0.007231 0.0
-0.548187 0.016102 0.0
-0.539236 0.025400 0.0
-0.270262 -0.001283 0.0
0.063206 0.011216 0.0
0.177097 0.000816 0.0
0.267713 -0.012042 0.0
0.340721 -0.024163 0.0
0.401366 -0.036071 0.0
0.452758 -0.046787 0.0
0.497771 -0.056420 0.0
0.538106 -0.065276 0.0
0.574678 -0.073701 0.0
0.607984 -0.081884 0.0
0.638366 -0.089870 0.0
0.666063 -0.097720 0.0
0.691220 -0.105411 0.0
0.713952 -0.112856 0.0
0.734370 -0.119940 0.0
0.752594 -0.126535 0.0
0.768749 -0.132517 0.0
0.782969 -0.137772 0.0
0.795395 -0.142208 0.0
0.806167 -0.145752 0.0
0.815426 -0.148358 0.0
0.823306 -0.150004 0.0
0.829935 -0.150689 0.0
0.835433 -0.150431 0.0
0.839914 -0.149265 0.0
0.843481 -0.147241 0.0
0.846233 -0.144421 0.0
0.848258 -0.140878 0.0
0.849637 -0.136690 0.0
0.850446 -0.131941 0.0
0.850751 -0.126717 0.0
0.850616 -0.121104 0.0
0.850097 -0.115187 0.0
0.849245 -0.109048 0.0
0.848107 -0.102764 0.0
0.846724 -0.096408 0.0
0.845135 -0.090045 0.0
0.843372 -0.083735 0.0
0.841467 -0.077530 0.0
0.839447 -0.071474 0.0
0.837335 -0.065605 0.0
0.835154 -0.059954 0.0
0.832922 -0.054547 0.0
0.830656 -0.049402 0.0
0.828371 -0.044533 0.0
0.826080 -0.039949 0.0
0.823793 -0.035655 0.0
0.821519 -0.031652 0.0
0.819268 -0.027937 0.0
0.817045 -0.024507 0.0
0.814856 -0.021353 0.0
0.812706 -0.018468 0.0
0.810598 -0.015840 0.0
0.808536 -0.013458 0.0
0.806523 -0.011309 0.0
0.804558 -0.009380 0.0
0.802645 -0.007658 0.0
0.800783 -0.006128 0.0
0.798972 -0.004777 0.0
0.797211 -0.003589 0.0
0.795499 -0.002553 0.0
0.793835 -0.001655 0.0
0.792216 -0.000883 0.0
0.790643 -0.000225 0.0
0.789113 0.000329 0.0
0.787622 0.000788 0.0
0.786169 0.001163 0.0
0.784752 0.001463 0.0
0.783373 0.001697 0.0
0.782033 0.001872 0.0
0.780732 0.001996 0.0
0.779472 0.002073 0.0
0.778250 0.002111 0.0
0.777068 0.002114 0.0
0.775926 0.002087 0.0
0.774824 0.002035 0.0
0.773761 0.001961 0.0
0.772738 0.001869 0.0
0.771755 0.001761 0.0
0.770813 0.001641 0.0
0.769915 0.001511 0.0
0.769061 0.001372 0.0
0.768256 0.001227 0.0
0.767503 0.001078 0.0
0.766811 0.000928 0.0
0.766190 0.000779 0.0
0.765655 0.000637 0.0
0.765228 0.000508 0.0
0.764942 0.000404 0.0
0.764835 0.000337 0.0
0.971735 0.028265 0.0
0.902028 0.041441 0.0
0.819279 0.041308 0.0
0.741191 0.036781 0.0
0.673610 0.030800 0.0
0.618406 0.024404 0.0
0.576214 0.017788 0.0
0.548187 0.010238 0.0
0.539236 -0.001287 0.0
0.556678 -0.023053 0.0
0.582831 -0.058540 0.0
0.608599 -0.065638 0.0
0.642105 -0.069710 0.0
0.677037 -0.074435 0.0
0.710138 -0.079545 0.0
0.740457 -0.085024 0.0
0.767873 -0.090611 0.0
0.792641 -0.096188 0.0
0.815046 -0.101765 0.0
0.835290 -0.107371 0.0
0.853515 -0.112990 0.0
0.869817 -0.118598 0.0
0.884259 -0.124132 0.0
0.896895 -0.129502 0.0
0.907780 -0.134598 0.0
0.916981 -0.139302 0.0
0.924576 -0.143500 0.0
0.930655 -0.147088 0.0
0.935315 -0.149978 0.0
0.938663 -0.152102 0.0
0.940808 -0.153411 0.0
0.941857 -0.153880 0.0
0.941919 -0.153503 0.0
0.941097 -0.152293 0.0
0.939491 -0.150278 0.0
0.937198 -0.147502 0.0
0.934307 -0.144021 0.0
0.930904 -0.139900 0.0
0.927068 -0.135211 0.0
0.922873 -0.130033 0.0
0.918386 -0.124444 0.0
0.913671 -0.118527 0.0
0.908786 -0.112359 0.0
0.903781 -0.106019 0.0
0.898703 -0.099577 0.0
0.893595 -0.093103 0.0
0.888492 -0.086658 0.0
0.883427 -0.080295 0.0
0.878426 -0.074064 0.0
0.873513 -0.068006 0.0
0.868708 -0.062155 0.0
0.864025 -0.056540 0.0
0.859478 -0.051182 0.0
0.855075 -0.046098 0.0
0.850824 -0.041300 0.0
0.846727 -0.036794 0.0
0.842789 -0.032584 0.0
0.839009 -0.028669 0.0
0.835386 -0.025045 0.0
0.831918 -0.021707 0.0
0.828602 -0.018647 0.0
0.825433 -0.015855 0.0
0.822407 -0.013319 0.0
0.819520 -0.011029 0.0
0.816765 -0.008969 0.0
0.814136 -0.007127 0.0
0.811627 -0.005489 0.0
0.809230 -0.004038 0.0
0.806937 -0.002763 0.0
0.804740 -0.001645 0.0
0.802626 -0.000672 0.0
0.800587 0.000167 0.0
0.798619 0.000882 0.0
0.796720 0.001483 0.0
0.794890 0.001982 0.0
0.793127 0.002389 0.0
0.791430 0.002713 0.0
0.789797 0.002963 0.0
0.788227 0.003147 0.0
0.786717 0.003272 0.0
0.785267 0.003347 0.0
0.783873 0.003377 0.0
0.782534 0.003368 0.0
0.781248 0.003325 0.0
0.780014 0.003253 0.0
0.778831 0.003156 0.0
0.777696 0.003038 0.0
0.776609 0.002902 0.0
0.775570 0.002750 0.0
0.774578 0.002585 0.0
0.773635 0.002409 0.0
0.772740 0.002222 0.0
0.771898 0.002024 0.0
0.771113 0.001818 0.0
0.770392 0.001601 0.0
0.769745 0.001374 0.0
0.769188 0.001134 0.0
0.768746 0.000880 0.0
0.768453 0.000611 0.0
0.768353 0.000337 0.0
1.012850 0.043681 0.0
1.034716 0.073866 0.0
1.046501 0.079846 0.0
1.047918 0.074914 0.0
1.043308 0.064858 0.0
1.036623 0.052235 0.0
1.030955 0.037817 0.0
1.028497 0.020695 0.0
1.028454 -0.002750 0.0
1.024661 -0.035238 0.0
1.014522 -0.062370 0.0
1.004404 -0.077457 0.0
0.999267 -0.086261 0.0
0.998900 -0.092448 0.0
1.001788 -0.097520 0.0
1.006582 -0.102162 0.0
1.012309 -0.106617 0.0
1.018337 -0.110978 0.0
1.024254 -0.115297 0.0
1.029775 -0.119604 0.0
1.034689 -0.123895 0.0
1.038835 -0.128141 0.0
1.042092 -0.132289 0.0
1.044372 -0.136262 0.0
1.045618 -0.139970 0.0
1.045804 -0.143316 0.0
1.044927 -0.146204 0.0
1.043010 -0.148546 0.0
1.040095 -0.150266 0.0
1.036237 -0.151304 0.0
1.031504 -0.151620 0.0
1.025972 -0.151189 0.0
1.019722 -0.150006 0.0
1.012837 -0.148084 0.0
1.005403 -0.145448 0.0
0.997504 -0.142141 0.0
0.989225 -0.138213 0.0
0.980647 -0.133726 0.0
0.971847 -0.128749 0.0
0.962900 -0.123353 0.0
0.953875 -0.117613 0.0
0.944836 -0.111605 0.0
0.935842 -0.105402 0.0
0.926947 -0.099076 0.0
0.918198 -0.092694 0.0
0.909636 -0.086317 0.0
0.901297 -0.080002 0.0
0.893210 -0.073799 0.0
0.885400 -0.067750 0.0
0.877884 -0.061892 0.0
0.870677 -0.056257 0.0
0.863788 -0.050867 0.0
0.857221 -0.045741 0.0
0.850979 -0.040894 0.0
0.845058 -0.036332 0.0
0.839455 -0.032062 0.0
0.834162 -0.028084 0.0
0.829171 -0.024396 0.0
0.824469 -0.020994 0.0
0.820047 -0.017869 0.0
0.815891 -0.015014 0.0
0.811988 -0.012417 0.0
0.808325 -0.010068 0.0
0.804887 -0.007955 0.0
0.801660 -0.006061 0.0
0.798628 -0.004374 0.0
0.795773 -0.002878 0.0
0.793073 -0.001552 0.0
0.790503 -0.000386 0.0
0.788048 0.000629 0.0
0.785713 0.001504 0.0
0.783497 0.002247 0.0
0.781397 0.002870 0.0
0.779407 0.003383 0.0
0.777522 0.003797 0.0
0.775736 0.004123 0.0
0.774043 0.004369 0.0
0.772438 0.004544 0.0
0.770917 0.004657 0.0
0.769473 0.004715 0.0
0.768103 0.004725 0.0
0.766802 0.004694 0.0
0.765565 0.004626 0.0
0.764391 0.004527 0.0
0.763274 0.004401 0.0
0.762211 0.004253 0.0
0.761201 0.004086 0.0
0.760241 0.003901 0.0
0.759328 0.003703 0.0
0.758462 0.003491 0.0
0.757643 0.003267 0.0
0.756870 0.003031 0.0
0.756146 0.002782 0.0
0.755473 0.002518 0.0
0.754857 0.002238 0.0
0.754307 0.001934 0.0
0.753837 0.001601 0.0
0.753467 0.001226 0.0
0.753228 0.000796 0.0
0.753157 0.000323 0.0
1.008272 0.022558 0.0
1.031044 0.050351 0.0
1.060605 0.062015 0.0
1.089248 0.062686 0.0
1.114555 0.056388 0.0
1.136398 0.045547 0.0
1.155325 0.031246 0.0
1.171548 0.013500 0.0
1.183971 -0.007936 0.0
1.190041 -0.032328 0.0
1.189145 -0.054245 0.0
1.184226 -0.070545 0.0
1.178390 -0.082201 0.0
1.173076 -0.090827 0.0
1.168635 -0.097589 0.0
1.164967 -0.103220 0.0
1.161829 -0.108147 0.0
1.158968 -0.112614 0.0
1.156158 -0.116769 0.0
1.153201 -0.120697 0.0
1.149922 -0.124438 0.0
1.146174 -0.127996 0.0
1.141831 -0.131348 0.0
1.136796 -0.134447 0.0
1.130997 -0.137231 0.0
1.124387 -0.139631 0.0
1.116948 -0.141574 0.0
1.108682 -0.142994 0.0
1.099615 -0.143835 0.0
1.089786 -0.144050 0.0
1.079254 -0.143610 0.0
1.068086 -0.142499 0.0
1.056359 -0.140718 0.0
1.044155 -0.138283 0.0
1.031562 -0.135222 0.0
1.018670 -0.131576 0.0
1.005568 -0.127396 0.0
0.992343 -0.122741 0.0
0.979083 -0.117674 0.0
0.965868 -0.112265 0.0
0.952775 -0.106582 0.0
0.939875 -0.100696 0.0
0.927232 -0.094674 0.0
0.914903 -0.088580 0.0
0.902937 -0.082475 0.0
0.891376 -0.076414 0.0
0.880256 -0.070446 0.0
0.869603 -0.064615 0.0
0.859437 -0.058957 0.0
0.849773 -0.053504 0.0
0.840616 -0.048281 0.0
0.831969 -0.043306 0.0
0.823828 -0.038595 0.0
0.816186 -0.034156 0.0
0.809031 -0.029995 0.0
0.802349 -0.026114 0.0