# vtk DataFile Version 3.0
Scalar Field
ASCII
DATASET RECTILINEAR_GRID
DIMENSIONS 100 20 1
X_COORDINATES 100 double
0.050000 0.150000 0.250000 0.350000 0.450000 0.550000 0.650000 0.750000 0.850000 0.950000 1.050000 1.150000 1.250000 1.350000 1.450000 1.550000 1.650000 1.750000 1.850000 1.950000 2.050000 2.150000 2.250000 2.350000 2.450000 2.550000 2.650000 2.750000 2.850000 2.950000 3.050000 3.150000 3.250000 3.350000 3.450000 3.550000 3.650000 3.750000 3.850000 3.950000 4.050000 4.150000 4.250000 4.350000 4.450000 4.550000 4.650000 4.750000 4.850000 4.950000 5.050000 5.150000 5.250000 5.350000 5.450000 5.550000 5.650000 5.750000 5.850000 5.950000 6.050000 6.150000 6.250000 6.350000 6.450000 6.550000 6.650000 6.750000 6.850000 6.950000 7.050000 7.150000 7.250000 7.350000 7.450000 7.550000 7.650000 7.750000 7.850000 7.950000 8.050000 8.150000 8.250000 8.350000 8.450000 8.550000 8.650000 8.750000 8.850000 8.950000 9.050000 9.150000 9.250000 9.350000 9.450000 9.550000 9.650000 9.750000 9.850000 9.950000 
Y_COORDINATES 20 double
0.050000 0.150000 0.250000 0.350000 0.450000 0.550000 0.650000 0.750000 0.850000 0.950000 1.050000 1.150000 1.250000 1.350000 1.450000 1.550000 1.650000 1.750000 1.850000 1.950000 
Z_COORDINATES 1 double
0.0
POINT_DATA 2000
SCALARS Skalarfeld double 1
LOOKUP_TABLE default
0.000000
0.000000
0.000000
0.000000
0.000000
0.000000
0.000000
0.000000
0.000000
-0.143863
-0.143863
-0.144421
-0.144880
-0.145035
-0.144859
-0.144359
-0.143537
-0.142371
-0.140822
-0.138836
-0.136342
-0.133256
-0.129483
-0.124927
-0.119504
-0.113152
-0.105849
-0.097615
-0.088513
-0.078659
-0.068229
-0.057426
-0.046437
-0.035443
-0.024612
-0.014099
-0.004049
0.005424
0.014244
0.022371
0.029736
0.036317
0.042149
0.047210
0.051524
0.055141
0.058090
0.060429
0.062218
0.063515
0.064375
0.064850
0.064991
0.064844
0.064452
0.063853
0.063081
0.062168
0.061141
0.060022
0.058832
0.057588
0.056304
0.054994
0.053665
0.052327
0.050986
0.049646
0.048312
0.046986
0.045670
0.044364
0.043071
0.041789
0.040518
0.039258
0.038008
0.036767
0.035534
0.034307
0.033086
0.031870
0.030656
0.029444
0.028234
0.027023
0.025810
0.024596
0.023379
0.022159
0.020934
0.019704
0.018470
0.017231
0.015986
0.014737
0.013484
0.012228
0.010970
0.009712
0.000000
0.000000
0.000000
0.000000
0.000000
0.000000
0.000000
0.000000
0.000000
-0.143305
-0.143305
-0.143908
-0.144261
-0.144338
-0.144135
-0.143642
-0.142838
-0.141695
-0.140172
-0.138220
-0.135775
-0.132760
-0.129088
-0.124661
-0.119389
-0.113203
-0.106072
-0.098003
-0.089048
-0.079346
-0.069052
-0.058344
-0.047431
-0.036502
-0.025720
-0.015238
-0.005205
0.004256
0.013064
0.021214
0.028601
0.035182
0.041084
0.046207
0.050573
0.054233
0.057232
0.059625
0.061468
0.062818
0.063729
0.064256
0.064446
0.064347
0.064000
0.063444
0.062713
0.061838
0.060846
0.059760
0.058600
0.057384
0.056126
0.054838
0.053531
0.052211
0.050886
0.049561
0.048240
0.046925
0.045619
0.044322
0.043036
0.041760
0.040494
0.039238
0.037992
0.036754
0.035523
0.034298
0.033078
0.031862
0.030649
0.029438
0.028227
0.027016
0.025804
0.024589
0.023372
0.022151
0.020926
0.019696
0.018461
0.017222
0.015978
0.014729
0.013476
0.012221
0.010964
0.009709
0.000000
0.000000
0.000000
0.000000
0.000000
0.000000
0.000000
0.000000
0.000000
-0.142966
-0.142966
-0.143772
-0.144134
-0.144189
-0.143980
-0.143502
-0.142731
-0.141636
-0.140179
-0.138316
-0.135994
-0.133141
-0.129666
-0.125458
-0.120402
-0.114402
-0.107421
-0.099460
-0.090551
-0.080820
-0.070471
-0.059706
-0.048745
-0.037782
-0.026962
-0.016425
-0.006347
0.003135
0.011913
0.020177
0.027623
0.034279
0.040184
0.045323
0.049716
0.053405
0.056436
0.058862
0.060739
0.062124
0.063071
0.063633
0.063860
0.063797
0.063486
0.062966
0.062270
0.061430
0.060471
0.059417
0.058289
0.057102
0.055872
0.054610
0.053327
0.052030
0.050727
0.049421
0.048118
0.046819
0.045527
0.044243
0.042969
0.041703
0.040447
0.039199
0.037960
0.036728
0.035502
0.034281
0.033065
0.031853
0.030642
0.029433
0.028223
0.027013
0.025802
0.024588
0.023370
0.022149
0.020923
0.019693
0.018457
0.017216
0.015970
0.014719
0.013464
0.012206
0.010947
0.009692
0.000000
0.000000
0.000000
0.000000
0.000000
0.000000
0.000000
0.000000
0.000000
-0.143431
-0.143431
-0.144407
-0.144793
-0.144833
-0.144610
-0.144129
-0.143373
-0.142315
-0.140926
-0.139173
-0.137011
-0.134370
-0.131153
-0.127212
-0.122389
-0.116535
-0.109651
-0.101534
-0.092485
-0.082607
-0.072133
-0.061254
-0.050215
-0.039227
-0.028359
-0.017720
-0.007600
0.001935
0.010816
0.019039
0.026496
0.033173
0.039079
0.044223
0.048627
0.052331
0.055382
0.057833
0.059738
0.061155
0.062136
0.062736
0.063002
0.062981
0.062713
0.062237
0.061587
0.060792
0.059878
0.058869
0.057784
0.056640
0.055451
0.054228
0.052983
0.051722
0.050451
0.049177
0.047902
0.046630
0.045363
0.044102
0.042847
0.041600
0.040360
0.039127
0.037901
0.036680
0.035465
0.034253
0.033045
0.031838
0.030633
0.029428
0.028223
0.027015
0.025806
0.024593
0.023376
0.022155
0.020928
0.019696
0.018458
0.017213
0.015962
0.014705
0.013442
0.012175
0.010907
0.009643
0.000000
0.000000
0.000000
0.000000
0.000000
0.000000
0.000000
0.000000
0.000000
-0.145160
-0.145160
-0.146172
-0.146465
-0.146385
-0.146051
-0.145483
-0.144673
-0.143601
-0.142242
-0.140567
-0.138548
-0.136103
-0.133132
-0.129420
-0.124761
-0.118874
-0.111558
-0.103290
-0.094191
-0.084128
-0.073567
-0.062674
-0.051596
-0.040529
-0.029621
-0.019023
-0.008913
0.000610
0.009478
0.017649
0.025066
0.031710
0.037584
0.042703
0.047093
0.050794
0.053853
0.056320
0.058252
0.059703
0.060726
0.061374
0.061693
0.061729
0.061523
0.061111
0.060526
0.059798
0.058951
0.058009
0.056990
0.055910
0.054784
0.053622
0.052434
0.051228
0.050009
0.048783
0.047554
0.046324
0.045096
0.043870
0.042649
0.041431
0.040218
0.039009
0.037804
0.036603
0.035404
0.034207
0.033011
0.031816
0.030620
0.029423
0.028224
0.027022
0.025816
0.024606
0.023391
0.022170
0.020942
0.019707
0.018465
0.017214
0.015954
0.014686
0.013408
0.012123
0.010832
0.009544
0.000000
0.000000
0.000000
0.000000
0.000000
0.000000
0.000000
0.000000
0.000000
-0.148536
-0.148536
-0.149294
-0.149161
-0.148681
-0.148030
-0.147230
-0.146265
-0.145111
-0.143721
-0.142052
-0.140114
-0.137759
-0.134956
-0.131290
-0.126244
-0.120018
-0.112676
-0.104309
-0.095057
-0.085018
-0.074456
-0.063570
-0.052536
-0.041533
-0.030720
-0.020248
-0.010258
-0.000854
0.007896
0.015942
0.023246
0.029792
0.035583
0.040637
0.044981
0.048656
0.051707
0.054185
0.056143
0.057634
0.058710
0.059420
0.059812
0.059929
0.059809
0.059487
0.058996
0.058363
0.057613
0.056767
0.055843
0.054856
0.053819
0.052744
0.051639
0.050511
0.049367
0.048211
0.047047
0.045878
0.044706
0.043532
0.042357
0.041183
0.040009
0.038835
0.037661
0.036487
0.035313
0.034138
0.032962
0.031783
0.030601
0.029416
0.028227
0.027033
0.025833
0.024628
0.023415
0.022195
0.020966
0.019728
0.018480
0.017220
0.015949
0.014663
0.013364
0.012050
0.010722
0.009387
0.000000
0.000000
0.000000
0.000000
0.000000
0.000000
0.000000
0.000000
0.000000
-0.154088
-0.154088
-0.153865
-0.152572
-0.151210
-0.149966
-0.148786
-0.147595
-0.146331
-0.144857
-0.143132
-0.141342
-0.138947
-0.135753
-0.131509
-0.126268
-0.119936
-0.112532
-0.104144
-0.094906
-0.084966
-0.074534
-0.063806
-0.052962
-0.042174
-0.031600
-0.021381
-0.011642
-0.002478
0.006042
0.013873
0.020983
0.027360
0.033011
0.037954
0.042219
0.045843
0.048871
0.051354
0.053339
0.054879
0.056023
0.056817
0.057305
0.057528
0.057524
0.057324
0.056959
0.056454
0.055833
0.055115
0.054318
0.053454
0.052538
0.051578
0.050583
0.049560
0.048515
0.047452
0.046375
0.045286
0.044188
0.043082
0.041970
0.040853
0.039730
0.038603
0.037471
0.036334
0.035193
0.034047
0.032896
0.031739
0.030576
0.029407
0.028232
0.027049
0.025858
0.024658
0.023450
0.022232
0.021003
0.019762
0.018507
0.017238
0.015952
0.014646
0.013318
0.011965
0.010585
0.009178
0.000000
0.000000
0.000000
0.000000
0.000000
0.000000
0.000000
0.000000
0.000000
-0.163083
-0.163083
-0.159779
-0.155905
-0.153068
-0.151198
-0.149613
-0.148100
-0.146827
-0.145314
-0.143479
-0.141080
-0.138264
-0.134764
-0.130355
-0.124964
-0.118549
-0.111139
-0.102818
-0.093718
-0.083992
-0.073827
-0.063406
-0.052904
-0.042484
-0.032293
-0.022462
-0.013100
-0.004296
0.003889
0.011412
0.018249
0.024393
0.029850
0.034641
0.038795
0.042348
0.045344
0.047828
0.049846
0.051447
0.052675
0.053574
0.054185
0.054543
0.054685
0.054638
0.054432
0.054089
0.053630
0.053073
0.052434
0.051725
0.050958
0.050142
0.049284
0.048391
0.047468
0.046520
0.045550
0.044561
0.043554
0.042533
0.041498
0.040450
0.039390
0.038320
0.037239
0.036148
0.035047
0.033937
0.032817
0.031688
0.030548
0.029400
0.028241
0.027071
0.025892
0.024701
0.023498
0.022283
0.021055
0.019812
0.018552
0.017274
0.015973
0.014646
0.013287
0.011890
0.010447
0.008950
0.000000
0.000000
0.000000
0.000000
0.000000
0.000000
0.000000
0.000000
0.000000
-0.178739
-0.178739
-0.166267
-0.157774
-0.153084
-0.150987
-0.149039
-0.147477
-0.145718
-0.143871
-0.141834
-0.139324
-0.136279
-0.132533
-0.127941
-0.122430
-0.115982
-0.108634
-0.100472
-0.091620
-0.082226
-0.072458
-0.062483
-0.052462
-0.042545
-0.032867
-0.023544
-0.014673
-0.006331
0.001428
0.008566
0.015066
0.020922
0.026143
0.030751
0.034772
0.038242
0.041200
0.043687
0.045748
0.047423
0.048754
0.049781
0.050538
0.051059
0.051375
0.051512
0.051495
0.051343
0.051076
0.050709
0.050256
0.049729
0.049137
0.048489
0.047791
0.047049
0.046269
0.045454
0.044608
0.043734
0.042833
0.041909
0.040962
0.039994
0.039007
0.038002
0.036980
0.035941
0.034886
0.033817
0.032733
0.031635
0.030523
0.029398
0.028258
0.027105
0.025938
0.024757
0.023562
0.022352
0.021126
0.019883
0.018620
0.017334
0.016021
0.014676
0.013290
0.011852
0.010348
0.008757
0.378727
0.251259
0.171132
0.109539
0.056782
0.009053
-0.035738
-0.079513
-0.125400
-0.189424
-0.206453
-0.168955
-0.155995
-0.151016
-0.147969
-0.146289
-0.144779
-0.143115
-0.141238
-0.139039
-0.136362
-0.133103
-0.129149
-0.124407
-0.118831
-0.112418
-0.105216
-0.097308
-0.088810
-0.079859
-0.070602
-0.061189
-0.051765
-0.042462
-0.033398
-0.024677
-0.016381
-0.008576
-0.001309
0.005390
0.011508
0.017041
0.022002
0.026408
0.030287
0.033670
0.036592
0.039092
0.041205
0.042971
0.044423
0.045597
0.046523
0.047230
0.047744
0.048088
0.048282
0.048345
0.048292
0.048137
0.047891
0.047564
0.047165
0.046702
0.046180
0.045605
0.044981
0.044311
0.043601
0.042851
0.042066
0.041247
0.040396
0.039515
0.038606
0.037672
0.036714
0.035733
0.034729
0.033704
0.032658
0.031593
0.030509
0.029407
0.028288
0.027152
0.025999
0.024829
0.023643
0.022439
0.021217
0.019976
0.018712
0.017423
0.016104
0.014747
0.013344
0.011878
0.010331
0.008669
0.378727
0.251259
0.171132
0.109539
0.056782
0.009053
-0.035738
-0.079513
-0.125400
-0.172395
-0.178210
-0.163436
-0.153289
-0.147866
-0.144749
-0.142796
-0.141163
-0.139450
-0.137481
-0.135133
-0.132289
-0.128858
-0.124763
-0.119947
-0.114389
-0.108103
-0.101141
-0.093582
-0.085534
-0.077117
-0.068461
-0.059696
-0.050948
-0.042332
-0.033948
-0.025885
-0.018213
-0.010987
-0.004244
0.001991
0.007708
0.012908
0.017601
0.021806
0.025546
0.028849
0.031745
0.034268
0.036448
0.038318
0.039907
0.041244
0.042354
0.043262
0.043989
0.044553
0.044973
0.045263
0.045435
0.045502
0.045473
0.045356
0.045159
0.044888
0.044548
0.044144
0.043681
0.043162
0.042591
0.041970
0.041301
0.040591
0.039837
0.039046
0.038218
0.037356
0.036462
0.035537
0.034583
0.033602
0.032595
0.031563
0.030508
0.029431
0.028333
0.027214
0.026076
0.024918
0.023742
0.022546
0.021330
0.020092
0.018831
0.017544
0.016225
0.014867
0.013460
0.011987
0.010427
0.008742
0.251666
0.210675
0.158873
0.107965
0.059855
0.014430
-0.028817
-0.070222
-0.107943
-0.138376
-0.149926
-0.148287
-0.144399
-0.141360
-0.139244
-0.137659
-0.136186
-0.134547
-0.132582
-0.130185
-0.127269
-0.123773
-0.119647
-0.114868
-0.109433
-0.103372
-0.096738
-0.089608
-0.082079
-0.074256
-0.066253
-0.058179
-0.050143
-0.042240
-0.034558
-0.027167
-0.020127
-0.013481
-0.007260
-0.001483
0.003845
0.008724
0.013164
0.017183
0.020800
0.024039
0.026926
0.029486
0.031747
0.033733
0.035469
0.036977
0.038278
0.039392
0.040335
0.041123
0.041768
0.042284
0.042681
0.042968
0.043152
0.043242
0.043242
0.043159
0.042997
0.042761
0.042455
0.042080
0.041645
0.041147
0.040590
0.039978
0.039318
0.038611
0.037861
0.037068
0.036236
0.035366
0.034461
0.033522
0.032552
0.031553
0.030526
0.029473
0.028395
0.027293
0.026169
0.025023
0.023856
0.022669
0.021460
0.020229
0.018974
0.017694
0.016382
0.015033
0.013638
0.012182
0.010644
0.008992
0.190590
0.175098
0.143536
0.105395
0.065092
0.024781
-0.014303
-0.050952
-0.082861
-0.107845
-0.122607
-0.128785
-0.130818
-0.131286
-0.131156
-0.130680
-0.129847
-0.128589
-0.126848
-0.124576
-0.121737
-0.118306
-0.114270
-0.109631
-0.104410
-0.098646
-0.092397
-0.085738
-0.078755
-0.071541
-0.064193
-0.056805
-0.049467
-0.042258
-0.035250
-0.028501
-0.022057
-0.015955
-0.010218
-0.004860
0.000115
0.004709
0.008932
0.012795
0.016317
0.019515
0.022411
0.025025
0.027377
0.029486
0.031372
0.033051
0.034540
0.035853
0.037004
0.038003
0.038863
0.039591
0.040197
0.040687
0.041070
0.041350
0.041532
0.041622
0.041622
0.041538
0.041378
0.041130
0.040802
0.040409
0.039954
0.039439
0.038866
0.038238
0.037558
0.036828
0.036052
0.035232
0.034371
0.033472
0.032535
0.031565
0.030563
0.029531
0.028471
0.027385
0.026273
0.025139
0.023981
0.022802
0.021601
0.020378
0.019132
0.017862
0.016564
0.015234
0.013864
0.012444
0.010959
0.009387
0.162750
0.154801
0.133487
0.104039
0.070330
0.035076
0.000262
-0.032443
-0.061177
-0.084341
-0.100707
-0.110927
-0.116941
-0.120402
-0.122299
-0.123136
-0.123146
-0.122433
-0.121044
-0.119007
-0.116340
-0.113059
-0.109185
-0.104746
-0.099782
-0.094343
-0.088491
-0.082298
-0.075842
-0.069205
-0.062470
-0.055715
-0.049015
-0.042435
-0.036031
-0.029852
-0.023933
-0.018304
-0.012981
-0.007976
-0.003292
0.001074
0.005127
0.008878
0.012339
0.015526
0.018451
0.021131
0.023581
0.025814
0.027845
0.029685
0.031347
0.032841
0.034178
0.035366
0.036413
0.037327
0.038115
0.038783
0.039335
0.039780
0.040115
0.040357
0.040494
0.040524
0.040456
0.040316
0.040098
0.039804
0.039439
0.039005
0.038506
0.037945
0.037325
0.036649
0.035921
0.035143
0.034319
0.033452
0.032544
0.031598
0.030616
0.029602
0.028557
0.027483
0.026382
0.025257
0.024108
0.022936
0.021743
0.020528
0.019292
0.018035
0.016753
0.015446
0.014109
0.012737
0.011322
0.009856
0.152819
0.147141
0.130185
0.105158
0.075258
0.043168
0.011115
-0.019019
-0.045685
-0.067805
-0.084797
-0.096966
-0.105280
-0.110772
-0.114239
-0.116208
-0.117007
-0.116836
-0.115823
-0.114054
-0.111594
-0.108498
-0.104815
-0.100597
-0.095897
-0.090776
-0.085299
-0.079533
-0.073551
-0.067425
-0.061223
-0.055013
-0.048855
-0.042802
-0.036900
-0.031185
-0.025689
-0.020433
-0.015431
-0.010693
-0.006222
-0.002017
0.001925
0.005611
0.009050
0.012252
0.015225
0.017980
0.020527
0.022877
0.025038
0.027020
0.028830
0.030477
0.031969
0.033311
0.034512
0.035576
0.036511
0.037319
0.038004
0.038590
0.039037
0.039358
0.039580
0.039713
0.039753
0.039705
0.039571
0.039355
0.039061
0.038692
0.038251
0.037741
0.037168
0.036534
0.035842
0.035097
0.034302
0.033459
0.032572
0.031644
0.030678
0.029677
0.028643
0.027579
0.026487
0.025368
0.024225
0.023060
0.021873
0.020666
0.019440
0.018194
0.016930
0.015646
0.014342
0.013017
0.011671
0.010308
0.155604
0.149985
0.133281
0.108756
0.079679
0.048802
0.018261
-0.010286
-0.035623
-0.056985
-0.074064
-0.087067
-0.096575
-0.103278
-0.107789
-0.110584
-0.112003
-0.112287
-0.111608
-0.110093
-0.107842
-0.104936
-0.101448
-0.097447
-0.092997
-0.088165
-0.083016
-0.077616
-0.072030
-0.066321
-0.060548
-0.054768
-0.049029
-0.043377
-0.037848
-0.032473
-0.027278
-0.022280
-0.017494
-0.012927
-0.008586
-0.004470
-0.000580
0.003087
0.006538
0.009775
0.012807
0.015638
0.018276
0.020727
0.022998
0.025093
0.027021
0.028786
0.030395
0.031853
0.033170
0.034343
0.035388
0.036303
0.037071
0.037692
0.038220
0.038638
0.038950
0.039162
0.039275
0.039293
0.039220
0.039060
0.038816
0.038492
0.038092
0.037619
0.037079
0.036474
0.035808
0.035085
0.034309
0.033484
0.032612
0.031697
0.030741
0.029749
0.028723
0.027665
0.026578
0.025464
0.024325
0.023164
0.021983
0.020782
0.019563
0.018328
0.017077
0.015813
0.014535
0.013248
0.011954
0.010667
0.171003
0.163336
0.143013
0.115359
0.084322
0.052645
0.022220
-0.005663
-0.030179
-0.050900
-0.067748
-0.080952
-0.090952
-0.098264
-0.103374
-0.106689
-0.108531
-0.109148
-0.108730
-0.107426
-0.105358
-0.102624
-0.099314
-0.095504
-0.091268
-0.086673
-0.081785
-0.076666
-0.071375
-0.065968
-0.060498
-0.055012
-0.049554
-0.044162
-0.038867
-0.033699
-0.028679
-0.023825
-0.019150
-0.014665
-0.010376
-0.006287
-0.002400
0.001286
0.004771
0.008058
0.011151
0.014052
0.016767
0.019299
0.021653
0.023833
0.025845
0.027694
0.029384
0.030921
0.032322
0.033563
0.034647
0.035594
0.036427
0.037134
0.037726
0.038205
0.038573
0.038835
0.038995
0.039055
0.039021
0.038895
0.038683
0.038387
0.038013
0.037564
0.037043
0.036457
0.035807
0.035098
0.034334
0.033519
0.032656
0.031748
0.030799
0.029812
0.028790
0.027735
0.026651
0.025540
0.024404
0.023245
0.022066
0.020869
0.019655
0.018427
0.017185
0.015934
0.014674
0.013409
0.012146
0.010898
0.203738
0.188778
0.159021
0.124042
0.088369
0.054278
0.023002
-0.004777
-0.028745
-0.048855
-0.065268
-0.078299
-0.088352
-0.095859
-0.101224
-0.104799
-0.106876
-0.107693
-0.107444
-0.106286
-0.104349
-0.101743
-0.098563
-0.094892
-0.090805
-0.086369
-0.081649
-0.076704
-0.071588
-0.066355
-0.061051
-0.055720
-0.050403
-0.045134
-0.039944
-0.034860
-0.029904
-0.025094
-0.020445
-0.015969
-0.011673
-0.007563
-0.003645
0.000082
0.003615
0.006956
0.010106
0.013067
0.015843
0.018437
0.020852
0.023091
0.025159
0.027066
0.028811
0.030389
0.031798
0.033077
0.034218
0.035222
0.036099
0.036850
0.037480
0.037993
0.038393
0.038684
0.038869
0.038953
0.038940
0.038833
0.038638
0.038358
0.037997
0.037560
0.037051
0.036473
0.035832
0.035130
0.034372
0.033562
0.032703
0.031798
0.030852
0.029867
0.028846
0.027792
0.026709
0.025598
0.024462
0.023304
0.022126
0.020930
0.019718
0.018493
0.017256
0.016010
0.014758
0.013503
0.012250
0.011010
0.268597
0.228417
0.179165
0.132544
0.090593
0.053484
0.021099
-0.006743
-0.030286
-0.049843
-0.065780
-0.078496
-0.088397
-0.095871
-0.101275
-0.104921
-0.107078
-0.107972
-0.107792
-0.106696
-0.104818
-0.102269
-0.099146
-0.095534
-0.091507
-0.087133
-0.082474
-0.077588
-0.072528
-0.067344
-0.062082
-0.056785
-0.051491
-0.046235
-0.041047
-0.035955
-0.030982
-0.026146
-0.021464
-0.016947
-0.012607
-0.008449
-0.004479
-0.000700
0.002886
0.006280
0.009482
0.012495
0.015319
0.017960
0.020421
0.022703
0.024808
0.026737
0.028503
0.030116
0.031573
0.032884
0.034054
0.035088
0.035989
0.036762
0.037412
0.037943
0.038358
0.038662
0.038860
0.038955
0.038951
0.038853
0.038665
0.038392
0.038036
0.037604
0.037098
0.036524
0.035884
0.035184
0.034428
0.033618
0.032759
0.031854
0.030907
0.029921
0.028900
0.027845
0.026760
0.025648
0.024511
0.023351
0.022172
0.020975
0.019762
0.018536
0.017299
0.016053
0.014801
0.013547
0.012293
0.011046
0.397496
0.270931
0.193555
0.136519
0.090264
0.051340
0.018298
-0.009640
-0.033030
-0.052359
-0.068083
-0.080635
-0.090425
-0.097827
-0.103183
-0.106791
-0.108913
-0.109772
-0.109555
-0.108421
-0.106504
-0.103916
-0.100756
-0.097107
-0.093044
-0.088633
-0.083937
-0.079012
-0.073910
-0.068681
-0.063372
-0.058023
-0.052674
-0.047360
-0.042112
-0.036958
-0.031921
-0.027020
-0.022273
-0.017693
-0.013289
-0.009070
-0.005041
-0.001205
0.002435
0.005881
0.009131
0.012189
0.015055
0.017734
0.020227
0.022540
0.024677
0.026639
0.028435
0.030072
0.031553
0.032884
0.034072
0.035120
0.036035
0.036819
0.037479
0.038017
0.038439
0.038749
0.038951
0.039049
0.039048
0.038951
0.038764
0.038490
0.038135
0.037701
0.037194
0.036617
0.035976
0.035273
0.034514
0.033701
0.032839
0.031931
0.030981
0.029991
0.028966
0.027907
0.026819
0.025703
0.024563
0.023400
0.022217
0.021016
0.019800
0.018570
0.017329
0.016080
0.014824
0.013565
0.012306
0.011050
