# vtk DataFile Version 3.0
Vector Field
ASCII
DATASET RECTILINEAR_GRID
DIMENSIONS 200 75 1
X_COORDINATES 200 double
0.050000 0.150000 0.250000 0.350000 0.450000 0.550000 0.650000 0.750000 0.850000 0.950000 1.050000 1.150000 1.250000 1.350000 1.450000 1.550000 1.650000 1.750000 1.850000 1.950000 2.050000 2.150000 2.250000 2.350000 2.450000 2.550000 2.650000 2.750000 2.850000 2.950000 3.050000 3.150000 3.250000 3.350000 3.450000 3.550000 3.650000 3.750000 3.850000 3.950000 4.050000 4.150000 4.250000 4.350000 4.450000 4.550000 4.650000 4.750000 4.850000 4.950000 5.050000 5.150000 5.250000 5.350000 5.450000 5.550000 5.650000 5.750000 5.850000 5.950000 6.050000 6.150000 6.250000 6.350000 6.450000 6.550000 6.650000 6.750000 6.850000 6.950000 7.050000 7.150000 7.250000 7.350000 7.450000 7.550000 7.650000 7.750000 7.850000 7.950000 8.050000 8.150000 8.250000 8.350000 8.450000 8.550000 8.650000 8.750000 8.850000 8.950000 9.050000 9.150000 9.250000 9.350000 9.450000 9.550000 9.650000 9.750000 9.850000 9.950000 10.050000 10.150000 10.250000 10.350000 10.450000 10.550000 10.650000 10.750000 10.850000 10.950000 11.050000 11.150000 11.250000 11.350000 11.450000 11.550000 11.650000 11.750000 11.850000 11.950000 12.050000 12.150000 12.250000 12.350000 12.450000 12.550000 12.650000 12.750000 12.850000 12.950000 13.050000 13.150000 13.250000 13.350000 13.450000 13.550000 13.650000 13.750000 13.850000 13.950000 14.050000 14.150000 14.250000 14.350000 14.450000 14.550000 14.650000 14.750000 14.850000 14.950000 15.050000 15.150000 15.250000 15.350000 15.450000 15.550000 15.650000 15.750000 15.850000 15.950000 16.050000 16.150000 16.250000 16.350000 16.450000 16.550000 16.650000 16.750000 16.850000 16.950000 17.050000 17.150000 17.250000 17.350000 17.450000 17.550000 17.650000 17.750000 17.850000 17.950000 18.050000 18.150000 18.250000 18.350000 18.450000 18.550000 18.650000 18.750000 18.850000 18.950000 19.050000 19.150000 19.250000 19.350000 19.450000 19.550000 19.650000 19.750000 19.850000 19.950000 
Y_COORDINATES 75 double
0.050000 0.150000 0.250000 0.350000 0.450000 0.550000 0.650000 0.750000 0.850000 0.950000 1.050000 1.150000 1.250000 1.350000 1.450000 1.550000 1.650000 1.750000 1.850000 1.950000 2.050000 2.150000 2.250000 2.350000 2.450000 2.550000 2.650000 2.750000 2.850000 2.950000 3.050000 3.150000 3.250000 3.350000 3.450000 3.550000 3.650000 3.750000 3.850000 3.950000 4.050000 4.150000 4.250000 4.350000 4.450000 4.550000 4.650000 4.750000 4.850000 4.950000 5.050000 5.150000 5.250000 5.350000 5.450000 5.550000 5.650000 5.750000 5.850000 5.950000 6.050000 6.150000 6.250000 6.350000 6.450000 6.550000 6.650000 6.750000 6.850000 6.950000 7.050000 7.150000 7.250000 7.350000 7.450000 
Z_COORDINATES 1 double
0.0
POINT_DATA 15000
VECTORS Vektorfeld double
0.999659 0.000341 0.0
0.998749 0.000569 0.0
0.997537 0.000643 0.0
0.996237 0.000656 0.0
0.994941 0.000639 0.0
0.993698 0.000604 0.0
0.992538 0.000556 0.0
0.991483 0.000499 0.0
0.990550 0.000434 0.0
0.989752 0.000364 0.0
0.989097 0.000292 0.0
0.988586 0.000219 0.0
0.988217 0.000150 0.0
0.987979 0.000088 0.0
0.987856 0.000036 0.0
0.987822 -0.000002 0.0
0.987847 -0.000023 0.0
0.987893 -0.000023 0.0
0.987918 -0.000002 0.0
0.987879 0.000041 0.0
0.987732 0.000105 0.0
0.987440 0.000187 0.0
0.986971 0.000283 0.0
0.986301 0.000387 0.0
0.985418 0.000495 0.0
0.984323 0.000601 0.0
0.983023 0.000699 0.0
0.981540 0.000784 0.0
0.979901 0.000855 0.0
0.978139 0.000908 0.0
0.976288 0.000942 0.0
0.974388 0.000959 0.0
0.972471 0.000958 0.0
0.970572 0.000941 0.0
0.968719 0.000912 0.0
0.966935 0.000872 0.0
0.965238 0.000825 0.0
0.963640 0.000774 0.0
0.962144 0.000722 0.0
0.960749 0.000673 0.0
0.959444 0.000631 0.0
0.958215 0.000599 0.0
0.957037 0.000579 0.0
0.955883 0.000575 0.0
0.954719 0.000588 0.0
0.953512 0.000619 0.0
0.952226 0.000667 0.0
0.950832 0.000728 0.0
0.949306 0.000798 0.0
0.947634 0.000873 0.0
0.945817 0.000945 0.0
0.943863 0.001009 0.0
0.941795 0.001059 0.0
0.939645 0.001092 0.0
0.937448 0.001105 0.0
0.935247 0.001097 0.0
0.933082 0.001068 0.0
0.930994 0.001020 0.0
0.929019 0.000955 0.0
0.927190 0.000874 0.0
0.925534 0.000781 0.0
0.924074 0.000679 0.0
0.922826 0.000570 0.0
0.921796 0.000459 0.0
0.920985 0.000351 0.0
0.920386 0.000249 0.0
0.919979 0.000158 0.0
0.919736 0.000085 0.0
0.919617 0.000034 0.0
0.919572 0.000011 0.0
0.919542 0.000019 0.0
0.919461 0.000062 0.0
0.919261 0.000138 0.0
0.918881 0.000242 0.0
0.918271 0.000368 0.0
0.917398 0.000505 0.0
0.916252 0.000642 0.0
0.914842 0.000768 0.0
0.913195 0.000878 0.0
0.911351 0.000966 0.0
0.909354 0.001031 0.0
0.907250 0.001073 0.0
0.905084 0.001094 0.0
0.902892 0.001098 0.0
0.900707 0.001088 0.0
0.898551 0.001068 0.0
0.896442 0.001041 0.0
0.894390 0.001012 0.0
0.892395 0.000983 0.0
0.890455 0.000957 0.0
0.888559 0.000939 0.0
0.886690 0.000930 0.0
0.884829 0.000932 0.0
0.882950 0.000946 0.0
0.881030 0.000974 0.0
0.879042 0.001014 0.0
0.876965 0.001063 0.0
0.874782 0.001120 0.0
0.872483 0.001179 0.0
0.870068 0.001236 0.0
0.867546 0.001286 0.0
0.864934 0.001326 0.0
0.862258 0.001350 0.0
0.859549 0.001358 0.0
0.856842 0.001348 0.0
0.854173 0.001321 0.0
0.851577 0.001276 0.0
0.849086 0.001216 0.0
0.846728 0.001142 0.0
0.844526 0.001059 0.0
0.842499 0.000968 0.0
0.840657 0.000874 0.0
0.839004 0.000779 0.0
0.837537 0.000688 0.0
0.836246 0.000604 0.0
0.835110 0.000532 0.0
0.834101 0.000477 0.0
0.833181 0.000442 0.0
0.832308 0.000432 0.0
0.831428 0.000448 0.0
0.830489 0.000491 0.0
0.829437 0.000560 0.0
0.828226 0.000651 0.0
0.826817 0.000757 0.0
0.825190 0.000870 0.0
0.823341 0.000980 0.0
0.821283 0.001078 0.0
0.819047 0.001158 0.0
0.816672 0.001216 0.0
0.814208 0.001248 0.0
0.811705 0.001255 0.0
0.809212 0.001238 0.0
0.806773 0.001201 0.0
0.804427 0.001146 0.0
0.802202 0.001078 0.0
0.800122 0.001002 0.0
0.798199 0.000921 0.0
0.796437 0.000841 0.0
0.794829 0.000766 0.0
0.793362 0.000701 0.0
0.792013 0.000649 0.0
0.790751 0.000614 0.0
0.789539 0.000599 0.0
0.788335 0.000605 0.0
0.787098 0.000632 0.0
0.785786 0.000680 0.0
0.784362 0.000745 0.0
0.782795 0.000822 0.0
0.781066 0.000907 0.0
0.779164 0.000994 0.0
0.777092 0.001078 0.0
0.774861 0.001153 0.0
0.772493 0.001215 0.0
0.770017 0.001261 0.0
0.767467 0.001289 0.0
0.764881 0.001298 0.0
0.762296 0.001288 0.0
0.759747 0.001261 0.0
0.757267 0.001219 0.0
0.754884 0.001164 0.0
0.752621 0.001099 0.0
0.750494 0.001028 0.0
0.748511 0.000955 0.0
0.746673 0.000883 0.0
0.744975 0.000816 0.0
0.743400 0.000759 0.0
0.741926 0.000715 0.0
0.740525 0.000687 0.0
0.739161 0.000677 0.0
0.737797 0.000687 0.0
0.736393 0.000716 0.0
0.734914 0.000763 0.0
0.733329 0.000822 0.0
0.731618 0.000889 0.0
0.729771 0.000958 0.0
0.727790 0.001023 0.0
0.725689 0.001077 0.0
0.723494 0.001117 0.0
0.721237 0.001140 0.0
0.718955 0.001143 0.0
0.716687 0.001126 0.0
0.714471 0.001090 0.0
0.712346 0.001036 0.0
0.710343 0.000967 0.0
0.708493 0.000884 0.0
0.706820 0.000790 0.0
0.705343 0.000687 0.0
0.704077 0.000579 0.0
0.703030 0.000468 0.0
0.702205 0.000357 0.0
0.701599 0.000249 0.0
0.701202 0.000147 0.0
0.701001 0.000054 0.0
0.700982 -0.000035 0.0
0.701123 -0.000107 0.0
0.701389 -0.000159 0.0
0.701738 -0.000190 0.0
0.702134 -0.000207 0.0
0.702571 -0.000230 0.0
0.703012 -0.000211 0.0
1.000203 0.000479 0.0
1.000679 0.000865 0.0
1.001237 0.001001 0.0
1.001823 0.001012 0.0
1.002450 0.000952 0.0
1.003139 0.000845 0.0
1.003913 0.000702 0.0
1.004789 0.000531 0.0
1.005785 0.000338 0.0
1.006914 0.000130 0.0
1.008182 -0.000087 0.0
1.009594 -0.000304 0.0
1.011146 -0.000511 0.0
1.012830 -0.000698 0.0
1.014627 -0.000853 0.0
1.016513 -0.000966 0.0
1.018455 -0.001026 0.0
1.020414 -0.001025 0.0
1.022347 -0.000958 0.0
1.024207 -0.000824 0.0
1.025950 -0.000626 0.0
1.027534 -0.000374 0.0
1.028924 -0.000078 0.0
1.030097 0.000245 0.0
1.031040 0.000577 0.0
1.031753 0.000902 0.0
1.032247 0.001203 0.0
1.032544 0.001466 0.0
1.032674 0.001682 0.0
1.032673 0.001845 0.0
1.032578 0.001951 0.0
1.032427 0.002001 0.0
1.032259 0.002000 0.0
1.032106 0.001951 0.0
1.031998 0.001863 0.0
1.031959 0.001744 0.0
1.032006 0.001602 0.0
1.032152 0.001449 0.0
1.032401 0.001294 0.0
1.032749 0.001148 0.0
1.033188 0.001022 0.0
1.033701 0.000925 0.0
1.034264 0.000868 0.0
1.034847 0.000858 0.0
1.035416 0.000900 0.0
1.035934 0.000997 0.0
1.036363 0.001145 0.0
1.036670 0.001336 0.0
1.036830 0.001556 0.0
1.036828 0.001788 0.0
1.036664 0.002012 0.0
1.036349 0.002211 0.0
1.035906 0.002367 0.0
1.035371 0.002470 0.0
1.034783 0.002511 0.0
1.034185 0.002490 0.0
1.033620 0.002405 0.0
1.033129 0.002262 0.0
1.032751 0.002066 0.0
1.032518 0.001825 0.0
1.032457 0.001546 0.0
1.032592 0.001239 0.0
1.032938 0.000913 0.0
1.033503 0.000581 0.0
1.034289 0.000254 0.0
1.035290 -0.000055 0.0
1.036487 -0.000328 0.0
1.037852 -0.000551 0.0
1.039344 -0.000704 0.0
1.040912 -0.000774 0.0
1.042490 -0.000745 0.0
1.044010 -0.000612 0.0
1.045397 -0.000376 0.0
1.046583 -0.000051 0.0
1.047515 0.000339 0.0
1.048160 0.000761 0.0
1.048510 0.001182 0.0
1.048579 0.001570 0.0
1.048398 0.001904 0.0
1.048014 0.002170 0.0
1.047474 0.002364 0.0
1.046829 0.002488 0.0
1.046123 0.002551 0.0
1.045395 0.002561 0.0
1.044676 0.002530 0.0
1.043989 0.002468 0.0
1.043350 0.002388 0.0
1.042768 0.002299 0.0
1.042244 0.002213 0.0
1.041774 0.002138 0.0
1.041345 0.002083 0.0
1.040942 0.002057 0.0
1.040543 0.002065 0.0
1.040121 0.002112 0.0
1.039651 0.002199 0.0
1.039105 0.002322 0.0
1.038460 0.002477 0.0
1.037697 0.002652 0.0
1.036806 0.002836 0.0
1.035787 0.003013 0.0
1.034649 0.003169 0.0
1.033412 0.003292 0.0
1.032103 0.003369 0.0
1.030756 0.003395 0.0
1.029407 0.003367 0.0
1.028094 0.003284 0.0
1.026851 0.003151 0.0
1.025712 0.002971 0.0
1.024706 0.002752 0.0
1.023855 0.002502 0.0
1.023178 0.002231 0.0
1.022684 0.001947 0.0
1.022380 0.001663 0.0
1.022261 0.001389 0.0
1.022316 0.001139 0.0
1.022525 0.000924 0.0
1.022860 0.000759 0.0
1.023282 0.000656 0.0
1.023747 0.000627 0.0
1.024200 0.000679 0.0
1.024585 0.000814 0.0
1.024846 0.001029 0.0
1.024932 0.001309 0.0
1.024804 0.001636 0.0
1.024440 0.001982 0.0
1.023837 0.002319 0.0
1.023012 0.002621 0.0
1.021999 0.002865 0.0
1.020844 0.003039 0.0
1.019597 0.003136 0.0
1.018311 0.003155 0.0
1.017039 0.003104 0.0
1.015824 0.002989 0.0
1.014704 0.002824 0.0
1.013709 0.002619 0.0
1.012860 0.002389 0.0
1.012170 0.002147 0.0
1.011641 0.001907 0.0
1.011266 0.001682 0.0
1.011032 0.001486 0.0
1.010913 0.001331 0.0
1.010877 0.001229 0.0
1.010886 0.001186 0.0
1.010897 0.001209 0.0
1.010866 0.001296 0.0
1.010750 0.001444 0.0
1.010510 0.001644 0.0
1.010116 0.001883 0.0
1.009547 0.002145 0.0
1.008794 0.002412 0.0
1.007861 0.002667 0.0
1.006760 0.002896 0.0
1.005516 0.003084 0.0
1.004160 0.003224 0.0
1.002727 0.003308 0.0
1.001255 0.003336 0.0
0.999784 0.003307 0.0
0.998347 0.003227 0.0
0.996979 0.003101 0.0
0.995706 0.002937 0.0
0.994549 0.002745 0.0
0.993525 0.002534 0.0
0.992639 0.002317 0.0
0.991890 0.002106 0.0
0.991271 0.001911 0.0
0.990764 0.001746 0.0
0.990344 0.001622 0.0
0.989977 0.001548 0.0
0.989625 0.001532 0.0
0.989245 0.001577 0.0
0.988791 0.001683 0.0
0.988222 0.001844 0.0
0.987501 0.002046 0.0
0.986602 0.002275 0.0
0.985511 0.002511 0.0
0.984227 0.002735 0.0
0.982764 0.002929 0.0
0.981147 0.003078 0.0
0.979410 0.003174 0.0
0.977590 0.003210 0.0
0.975730 0.003186 0.0
0.973871 0.003103 0.0
0.972053 0.002966 0.0
0.970312 0.002780 0.0
0.968679 0.002552 0.0
0.967184 0.002290 0.0
0.965847 0.002000 0.0
0.964688 0.001692 0.0
0.963718 0.001373 0.0
0.962943 0.001052 0.0
0.962364 0.000740 0.0
0.961973 0.000444 0.0
0.961757 0.000175 0.0
0.961684 -0.000063 0.0
0.961717 -0.000254 0.0
0.961826 -0.000387 0.0
0.961977 -0.000461 0.0
0.962134 -0.000488 0.0
0.962253 -0.000503 0.0
0.962301 -0.000428 0.0
1.000086 0.000190 0.0
1.000351 0.000414 0.0
1.000759 0.000486 0.0
1.001256 0.000445 0.0
1.001829 0.000320 0.0
1.002487 0.000130 0.0
1.003244 -0.000113 0.0
1.004114 -0.000401 0.0
1.005114 -0.000726 0.0
1.006256 -0.001076 0.0
1.007549 -0.001442 0.0
1.008997 -0.001809 0.0
1.010600 -0.002160 0.0
1.012347 -0.002479 0.0
1.014223 -0.002745 0.0
1.016201 -0.002938 0.0
1.018249 -0.003043 0.0
1.020325 -0.003043 0.0
1.022381 -0.002929 0.0
1.024368 -0.002700 0.0
1.026235 -0.002360 0.0
1.027936 -0.001925 0.0
1.029435 -0.001416 0.0
1.030704 -0.000860 0.0
1.031732 -0.000289 0.0
1.032519 0.000268 0.0
1.033080 0.000782 0.0
1.033440 0.001230 0.0
1.033632 0.001595 0.0
1.033697 0.001868 0.0
1.033674 0.002045 0.0
1.033605 0.002127 0.0
1.033528 0.002120 0.0
1.033478 0.002034 0.0
1.033484 0.001882 0.0
1.033570 0.001678 0.0
1.033755 0.001437 0.0
1.034049 0.001176 0.0
1.034456 0.000912 0.0
1.034976 0.000663 0.0
1.035598 0.000446 0.0
1.036305 0.000280 0.0
1.037075 0.000180 0.0
1.037876 0.000161 0.0
1.038673 0.000232 0.0
1.039424 0.000397 0.0
1.040089 0.000652 0.0
1.040629 0.000982 0.0
1.041015 0.001364 0.0
1.041229 0.001767 0.0
1.041270 0.002157 0.0
1.041150 0.002501 0.0
1.040896 0.002772 0.0
1.040547 0.002949 0.0
1.040145 0.003022 0.0
1.039735 0.002987 0.0
1.039360 0.002847 0.0
1.039063 0.002609 0.0
1.038879 0.002283 0.0
1.038839 0.001881 0.0
1.038971 0.001418 0.0
1.039295 0.000908 0.0
1.039825 0.000368 0.0
1.040573 -0.000185 0.0
1.041537 -0.000731 0.0
1.042713 -0.001247 0.0
1.044086 -0.001706 0.0
1.045632 -0.002083 0.0
1.047315 -0.002348 0.0
1.049089 -0.002471 0.0
1.050891 -0.002429 0.0
1.052649 -0.002206 0.0
1.054285 -0.001805 0.0
1.055724 -0.001247 0.0
1.056903 -0.000576 0.0
1.057785 0.000150 0.0
1.058360 0.000868 0.0
1.058649 0.001526 0.0
1.058693 0.002084 0.0
1.058545 0.002522 0.0
1.058260 0.002836 0.0
1.057890 0.003032 0.0
1.057480 0.003124 0.0
1.057066 0.003130 0.0
1.056677 0.003069 0.0
1.056334 0.002959 0.0
1.056051 0.002819 0.0
1.055834 0.002667 0.0
1.055685 0.002518 0.0
1.055598 0.002390 0.0
1.055563 0.002295 0.0
1.055563 0.002249 0.0
1.055576 0.002260 0.0
1.055577 0.002338 0.0
1.055538 0.002483 0.0
1.055430 0.002692 0.0
1.055227 0.002955 0.0
1.054909 0.003255 0.0
1.054464 0.003570 0.0
1.053889 0.003874 0.0
1.053194 0.004142 0.0
1.052398 0.004352 0.0
1.051530 0.004486 0.0
1.050622 0.004533 0.0
1.049713 0.004488 0.0
1.048837 0.004353 0.0
1.048029 0.004133 0.0
1.047320 0.003837 0.0
1.046736 0.003476 0.0
1.046298 0.003066 0.0
1.046024 0.002619 0.0
1.045923 0.002153 0.0
1.046000 0.001685 0.0
1.046253 0.001233 0.0
1.046675 0.000818 0.0
1.047249 0.000461 0.0
1.047951 0.000185 0.0
1.048748 0.000011 0.0
1.049598 -0.000041 0.0
1.050449 0.000043 0.0
1.051245 0.000269 0.0
1.051927 0.000631 0.0
1.052441 0.001107 0.0
1.052744 0.001663 0.0
1.052811 0.002252 0.0
1.052640 0.002823 0.0
1.052250 0.003332 0.0
1.051677 0.003740 0.0
1.050970 0.004027 0.0
1.050183 0.004182 0.0
1.049368 0.004208 0.0
1.048575 0.004116 0.0
1.047845 0.003922 0.0
1.047212 0.003644 0.0
1.046703 0.003304 0.0
1.046335 0.002922 0.0
1.046120 0.002521 0.0
1.046060 0.002123 0.0
1.046149 0.001751 0.0
1.046375 0.001426 0.0
1.046715 0.001170 0.0
1.047140 0.001001 0.0
1.047613 0.000932 0.0
1.048093 0.000972 0.0
1.048536 0.001121 0.0
1.048900 0.001372 0.0
1.049146 0.001711 0.0
1.049243 0.002114 0.0
1.049170 0.002556 0.0
1.048916 0.003007 0.0
1.048485 0.003437 0.0
1.047888 0.003822 0.0
1.047149 0.004141 0.0
1.046294 0.004378 0.0
1.045357 0.004524 0.0
1.044371 0.004577 0.0
1.043368 0.004540 0.0
1.042379 0.004420 0.0
1.041431 0.004226 0.0
1.040543 0.003973 0.0
1.039732 0.003676 0.0
1.039008 0.003352 0.0
1.038373 0.003020 0.0
1.037824 0.002700 0.0
1.037350 0.002410 0.0
1.036934 0.002171 0.0
1.036549 0.002002 0.0
1.036165 0.001919 0.0
1.035742 0.001936 0.0
1.035238 0.002058 0.0
1.034609 0.002285 0.0
1.033816 0.002605 0.0
1.032826 0.002997 0.0
1.031617 0.003433 0.0
1.030184 0.003878 0.0
1.028537 0.004299 0.0
1.026700 0.004664 0.0
1.024712 0.004949 0.0
1.022615 0.005138 0.0
1.020455 0.005225 0.0
1.018279 0.005207 0.0
1.016130 0.005091 0.0
1.014044 0.004883 0.0
1.012055 0.004594 0.0
1.010192 0.004235 0.0
1.008477 0.003818 0.0
1.006929 0.003356 0.0
1.005562 0.002861 0.0
1.004387 0.002348 0.0
1.003408 0.001830 0.0
1.002626 0.001323 0.0
1.002035 0.000842 0.0
1.001622 0.000406 0.0
1.001368 0.000033 0.0
1.001244 -0.000260 0.0
1.001216 -0.000461 0.0
1.001239 -0.000562 0.0
1.001268 -0.000573 0.0
1.001249 -0.000518 0.0
1.001159 -0.000371 0.0
1.000048 0.000055 0.0
1.000220 0.000112 0.0
1.000522 0.000078 0.0
1.000926 -0.000047 0.0
1.001421 -0.000257 0.0
1.002012 -0.000542 0.0
1.002712 -0.000896 0.0
1.003535 -0.001311 0.0
1.004497 -0.001778 0.0
1.005614 -0.002283 0.0
1.006898 -0.002812 0.0
1.008355 -0.003345 0.0
1.009987 -0.003859 0.0
1.011786 -0.004328 0.0
1.013738 -0.004723 0.0
1.015815 -0.005016 0.0
1.017982 -0.005180 0.0
1.020192 -0.005191 0.0
1.022389 -0.005035 0.0
1.024515 -0.004707 0.0
1.026509 -0.004214 0.0
1.028316 -0.003579 0.0
1.029889 -0.002833 0.0
1.031196 -0.002020 0.0
1.032225 -0.001185 0.0
1.032977 -0.000375 0.0
1.033472 0.000369 0.0
1.033743 0.001012 0.0
1.033831 0.001532 0.0
1.033783 0.001915 0.0
1.033648 0.002156 0.0
1.033471 0.002260 0.0
1.033298 0.002237 0.0
1.033165 0.002100 0.0
1.033105 0.001870 0.0
1.033143 0.001565 0.0
1.033298 0.001209 0.0
1.033583 0.000824 0.0
1.034003 0.000435 0.0
1.034556 0.000067 0.0
1.035232 -0.000256 0.0
1.036014 -0.000508 0.0
1.036877 -0.000665 0.0
1.037787 -0.000705 0.0
1.038701 -0.000613 0.0
1.039571 -0.000379 0.0
1.040344 -0.000009 0.0
1.040970 0.000477 0.0
1.041411 0.001043 0.0
1.041641 0.001643 0.0
1.041658 0.002223 0.0
1.041479 0.002733 0.0
1.041140 0.003132 0.0
1.040688 0.003391 0.0
1.040176 0.003495 0.0
1.039656 0.003443 0.0
1.039180 0.003241 0.0
1.038791 0.002901 0.0
1.038528 0.002438 0.0
1.038425 0.001869 0.0
1.038508 0.001215 0.0
1.038799 0.000496 0.0
1.039316 -0.000267 0.0
1.040068 -0.001050 0.0
1.041062 -0.001825 0.0
1.042294 -0.002561 0.0
1.043754 -0.003225 0.0
1.045422 -0.003778 0.0
1.047263 -0.004177 0.0
1.049226 -0.004378 0.0
1.051243 -0.004340 0.0
1.053226 -0.004036 0.0
1.055074 -0.003460 0.0
1.056686 -0.002642 0.0
1.057977 -0.001651 0.0
1.058899 -0.000578 0.0
1.059446 0.000474 0.0
1.059656 0.001421 0.0
1.059591 0.002209 0.0
1.059324 0.002812 0.0
1.058926 0.003229 0.0
1.058459 0.003476 0.0
1.057973 0.003576 0.0
1.057508 0.003557 0.0
1.057092 0.003447 0.0
1.056744 0.003272 0.0
1.056477 0.003057 0.0
1.056297 0.002826 0.0
1.056203 0.002602 0.0
1.056190 0.002406 0.0
1.056245 0.002259 0.0
1.056349 0.002180 0.0
1.056479 0.002185 0.0
1.056606 0.002286 0.0
1.056694 0.002486 0.0
1.056708 0.002782 0.0
1.056615 0.003160 0.0
1.056388 0.003595 0.0
1.056010 0.004054 0.0
1.055476 0.004498 0.0
1.054798 0.004890 0.0
1.054000 0.005197 0.0
1.053116 0.005393 0.0
1.052187 0.005463 0.0
1.051254 0.005401 0.0
1.050360 0.005211 0.0
1.049542 0.004901 0.0
1.048834 0.004486 0.0
1.048262 0.003983 0.0
1.047848 0.003410 0.0
1.047611 0.002787 0.0
1.047560 0.002137 0.0
1.047702 0.001482 0.0
1.048038 0.000847 0.0
1.048560 0.000260 0.0
1.049255 -0.000249 0.0
1.050099 -0.000651 0.0
1.051061 -0.000912 0.0
1.052096 -0.001003 0.0
1.053148 -0.000899 0.0
1.054151 -0.000587 0.0
1.055030 -0.000074 0.0
1.055716 0.000612 0.0
1.056153 0.001419 0.0
1.056306 0.002275 0.0
1.056173 0.003104 0.0
1.055782 0.003833 0.0
1.055183 0.004411 0.0
1.054439 0.004807 0.0
1.053618 0.005011 0.0
1.052781 0.005031 0.0
1.051983 0.004885 0.0
1.051268 0.004598 0.0
1.050671 0.004198 0.0
1.050216 0.003713 0.0
1.049923 0.003173 0.0
1.049801 0.002607 0.0
1.049853 0.002045 0.0
1.050074 0.001518 0.0
1.050450 0.001057 0.0
1.050959 0.000691 0.0
1.051568 0.000447 0.0
1.052238 0.000344 0.0
1.052921 0.000396 0.0
1.053568 0.000606 0.0
1.054128 0.000963 0.0
1.054556 0.001446 0.0
1.054814 0.002023 0.0
1.054878 0.002656 0.0
1.054738 0.003300 0.0
1.054397 0.003916 0.0
1.053872 0.004466 0.0
1.053188 0.004921 0.0
1.052380 0.005261 0.0
1.051483 0.005475 0.0
1.050534 0.005561 0.0
1.049569 0.005524 0.0
1.048618 0.005375 0.0
1.047708 0.005130 0.0
1.046859 0.004806 0.0
1.046086 0.004426 0.0
1.045399 0.004014 0.0
1.044801 0.003593 0.0
1.044286 0.003191 0.0
1.043846 0.002833 0.0
1.043461 0.002548 0.0
1.043108 0.002362 0.0
1.042754 0.002298 0.0
1.042357 0.002376 0.0
1.041873 0.002606 0.0
1.041251 0.002987 0.0
1.040444 0.003502 0.0
1.039414 0.004120 0.0
1.038136 0.004796 0.0
1.036605 0.005479 0.0
1.034834 0.006115 0.0
1.032858 0.006659 0.0
1.030721 0.007078 0.0
1.028477 0.007350 0.0
1.026180 0.007469 0.0
1.023880 0.007439 0.0
1.021621 0.007268 0.0
1.019443 0.006970 0.0
1.017377 0.006562 0.0
1.015449 0.006058 0.0
1.013681 0.005477 0.0
1.012091 0.004835 0.0
1.010692 0.004148 0.0
1.009494 0.003435 0.0
1.008502 0.002714 0.0
1.007718 0.002005 0.0
1.007138 0.001331 0.0
1.006753 0.000715 0.0
1.006545 0.000186 0.0
1.006486 -0.000231 0.0
1.006536 -0.000512 0.0
1.006642 -0.000641 0.0
1.006740 -0.000621 0.0
1.006768 -0.000479 0.0
1.006682 -0.000235 0.0
1.000031 -0.000024 0.0
1.000151 -0.000100 0.0
1.000377 -0.000238 0.0
1.000698 -0.000455 0.0
1.001111 -0.000758 0.0
1.001624 -0.001146 0.0
1.002251 -0.001619 0.0
1.003010 -0.002171 0.0
1.003920 -0.002791 0.0
1.005000 -0.003467 0.0
1.006267 -0.004178 0.0
1.007732 -0.004900 0.0
1.009400 -0.005603 0.0
1.011267 -0.006251 0.0
1.013321 -0.006805 0.0
1.015533 -0.007224 0.0
1.017865 -0.007470 0.0
1.020263 -0.007508 0.0
1.022661 -0.007314 0.0
1.024986 -0.006879 0.0
1.027162 -0.006212 0.0
1.029119 -0.005344 0.0
1.030797 -0.004320 0.0
1.032157 -0.003202 0.0
1.033182 -0.002057 0.0
1.033879 -0.000952 0.0
1.034275 0.000055 0.0
1.034413 0.000918 0.0
1.034346 0.001605 0.0
1.034135 0.002102 0.0
1.033836 0.002404 0.0
1.033505 0.002520 0.0
1.033192 0.002464 0.0
1.032939 0.002259 0.0
1.032781 0.001929 0.0
1.032747 0.001502 0.0
1.032856 0.001007 0.0
1.033122 0.000475 0.0
1.033551 -0.000064 0.0
1.034141 -0.000577 0.0
1.034884 -0.001031 0.0
1.035762 -0.001393 0.0
1.036749 -0.001629 0.0
1.037805 -0.001707 0.0
1.038880 -0.001601 0.0
1.039915 -0.001295 0.0
1.040838 -0.000790 0.0
1.041583 -0.000114 0.0
1.042093 0.000684 0.0
1.042331 0.001533 0.0
1.042294 0.002353 0.0
1.042007 0.003070 0.0
1.041518 0.003623 0.0
1.040893 0.003977 0.0
1.040199 0.004115 0.0
1.039501 0.004040 0.0
1.038858 0.003764 0.0
1.038320 0.003306 0.0
1.037927 0.002688 0.0
1.037715 0.001935 0.0
1.037712 0.001070 0.0
1.037940 0.000120 0.0
1.038420 -0.000888 0.0
1.039165 -0.001926 0.0
1.040183 -0.002960 0.0
1.041477 -0.003952 0.0
1.043040 -0.004859 0.0
1.044859 -0.005630 0.0
1.046901 -0.006208 0.0
1.049118 -0.006527 0.0
1.051433 -0.006522 0.0
1.053736 -0.006140 0.0
1.055893 -0.005360 0.0
1.057755 -0.004217 0.0
1.059199 -0.002811 0.0
1.060153 -0.001294 0.0
1.060621 0.000174 0.0
1.060668 0.001464 0.0
1.060394 0.002505 0.0
1.059907 0.003270 0.0
1.059301 0.003774 0.0
1.058652 0.004046 0.0
1.058017 0.004126 0.0
1.057434 0.004055 0.0
1.056931 0.003868 0.0
1.056527 0.003602 0.0
1.056231 0.003289 0.0
1.056049 0.002957 0.0
1.055978 0.002636 0.0
1.056011 0.002352 0.0
1.056136 0.002134 0.0
1.056331 0.002006 0.0
1.056568 0.001992 0.0
1.056811 0.002109 0.0
1.057018 0.002367 0.0
1.057141 0.002763 0.0
1.057135 0.003278 0.0
1.056961 0.003878 0.0
1.056594 0.004516 0.0
1.056028 0.005136 0.0
1.055275 0.005683 0.0
1.054368 0.006109 0.0
1.053353 0.006380 0.0
1.052282 0.006477 0.0
1.051207 0.006394 0.0
1.050179 0.006139 0.0
1.049241 0.005728 0.0
1.048430 0.005179 0.0
1.047776 0.004516 0.0
1.047303 0.003763 0.0
1.047028 0.002946 0.0
1.046964 0.002092 0.0
1.047119 0.001229 0.0
1.047496 0.000388 0.0
1.048091 -0.000397 0.0
1.048892 -0.001088 0.0
1.049880 -0.001645 0.0
1.051022 -0.002022 0.0
1.052270 -0.002176 0.0
1.053559 -0.002067 0.0
1.054804 -0.001668 0.0
1.055910 -0.000979 0.0
1.056776 -0.000036 0.0
1.057320 0.001087 0.0
1.057493 0.002281 0.0
1.057293 0.003430 0.0
1.056763 0.004428 0.0
1.055979 0.005200 0.0
1.055030 0.005710 0.0
1.054006 0.005953 0.0
1.052984 0.005947 0.0
1.052028 0.005723 0.0
1.051186 0.005318 0.0
1.050493 0.004769 0.0
1.049975 0.004115 0.0
1.049650 0.003390 0.0
1.049530 0.002632 0.0
1.049617 0.001880 0.0
1.049906 0.001172 0.0
1.050384 0.000549 0.0
1.051026 0.000049 0.0
1.051795 -0.000290 0.0
1.052644 -0.000438 0.0
1.053516 -0.000377 0.0
1.054349 -0.000100 0.0
1.055079 0.000380 0.0
1.055647 0.001034 0.0
1.056006 0.001818 0.0
1.056125 0.002677 0.0
1.055993 0.003551 0.0
1.055616 0.004383 0.0
1.055020 0.005121 0.0
1.054239 0.005730 0.0
1.053318 0.006182 0.0
1.052302 0.006467 0.0
1.051237 0.006583 0.0
1.050164 0.006541 0.0
1.049119 0.006355 0.0
1.048132 0.006047 0.0
1.047227 0.005643 0.0
1.046420 0.005169 0.0
1.045722 0.004656 0.0
1.045136 0.004135 0.0
1.044659 0.003639 0.0
1.044283 0.003202 0.0
1.043989 0.002858 0.0
1.043752 0.002642 0.0
1.043536 0.002589 0.0
1.043293 0.002725 0.0
1.042967 0.003068 0.0
1.042493 0.003620 0.0
1.041808 0.004360 0.0
1.040855 0.005244 0.0
1.039598 0.006207 0.0
1.038028 0.007170 0.0
1.036164 0.008059 0.0
1.034049 0.008807 0.0
1.031747 0.009369 0.0
1.029327 0.009723 0.0
1.026854 0.009866 0.0
1.024390 0.009807 0.0
1.021985 0.009564 0.0
1.019678 0.009159 0.0
1.017503 0.008614 0.0
1.015486 0.007951 0.0
1.013647 0.007191 0.0
1.012005 0.006354 0.0
1.010572 0.005461 0.0
1.009358 0.004534 0.0
1.008372 0.003594 0.0
1.007616 0.002666 0.0
1.007089 0.001777 0.0
1.006784 0.000959 0.0
1.006687 0.000247 0.0
1.006771 -0.000317 0.0
1.006989 -0.000694 0.0
1.007275 -0.000850 0.0
1.007539 -0.000775 0.0
1.007690 -0.000503 0.0
1.007649 -0.000085 0.0
1.000021 -0.000077 0.0
1.000103 -0.000250 0.0
1.000264 -0.000476 0.0
1.000503 -0.000778 0.0
1.000827 -0.001172 0.0
1.001248 -0.001666 0.0
1.001785 -0.002263 0.0
1.002460 -0.002961 0.0
1.003299 -0.003750 0.0
1.004326 -0.004615 0.0
1.005564 -0.005534 0.0
1.007031 -0.006476 0.0
1.008739 -0.007403 0.0
1.010688 -0.008268 0.0
1.012870 -0.009022 0.0
1.015257 -0.009607 0.0
1.017807 -0.009969 0.0
1.020458 -0.010057 0.0
1.023130 -0.009835 0.0
1.025730 -0.009284 0.0
1.028160 -0.008414 0.0
1.030325 -0.007264 0.0
1.032148 -0.005900 0.0
1.033577 -0.004410 0.0
1.034593 -0.002889 0.0
1.035207 -0.001431 0.0
1.035460 -0.000115 0.0
1.035411 0.000998 0.0
1.035132 0.001870 0.0
1.034698 0.002483 0.0
1.034181 0.002838 0.0
1.033646 0.002950 0.0
1.033151 0.002842 0.0
1.032743 0.002543 0.0
1.032460 0.002086 0.0
1.032333 0.001507 0.0
1.032382 0.000843 0.0
1.032623 0.000132 0.0
1.033062 -0.000589 0.0
1.033699 -0.001279 0.0
1.034526 -0.001899 0.0
1.035527 -0.002405 0.0
1.036675 -0.002752 0.0
1.037927 -0.002894 0.0
1.039226 -0.002789 0.0
1.040494 -0.002408 0.0
1.041637 -0.001744 0.0
1.042557 -0.000826 0.0
1.043170 0.000274 0.0
1.043422 0.001452 0.0
1.043306 0.002588 0.0
1.042860 0.003569 0.0
1.042158 0.004314 0.0
1.041290 0.004779 0.0
1.040348 0.004950 0.0
1.039414 0.004838 0.0
1.038554 0.004468 0.0
1.037824 0.003870 0.0
1.037266 0.003074 0.0
1.036915 0.002111 0.0
1.036802 0.001011 0.0
1.036949 -0.000197 0.0
1.037378 -0.001481 0.0
1.038106 -0.002807 0.0
1.039146 -0.004137 0.0
1.040506 -0.005428 0.0
1.042188 -0.006629 0.0
1.044187 -0.007677 0.0
1.046481 -0.008498 0.0
1.049029 -0.009001 0.0
1.051749 -0.009082 0.0
1.054508 -0.008643 0.0
1.057119 -0.007624 0.0
1.059358 -0.006053 0.0
1.061023 -0.004082 0.0
1.062006 -0.001960 0.0
1.062328 0.000050 0.0
1.062111 0.001758 0.0
1.061522 0.003074 0.0
1.060718 0.003991 0.0
1.059827 0.004550 0.0
1.058938 0.004808 0.0
1.058110 0.004828 0.0
1.057379 0.004666 0.0
1.056770 0.004369 0.0
1.056297 0.003980 0.0
1.055965 0.003538 0.0
1.055779 0.003076 0.0
1.055736 0.002630 0.0
1.055827 0.002232 0.0
1.056040 0.001917 0.0
1.056350 0.001718 0.0
1.056728 0.001667 0.0
1.057128 0.001791 0.0
1.057497 0.002110 0.0
1.057772 0.002623 0.0
1.057887 0.003309 0.0
1.057786 0.004122 0.0
1.057432 0.004994 0.0
1.056813 0.005844 0.0
1.055947 0.006593 0.0
1.054879 0.007173 0.0
1.053673 0.007538 0.0
1.052398 0.007666 0.0
1.051122 0.007555 0.0
1.049907 0.007221 0.0
1.048804 0.006687 0.0
1.047853 0.005982 0.0
1.047085 0.005135 0.0
1.046525 0.004177 0.0
1.046193 0.003140 0.0
1.046102 0.002053 0.0
1.046263 0.000951 0.0
1.046681 -0.000130 0.0
1.047356 -0.001150 0.0
1.048282 -0.002063 0.0
1.049443 -0.002819 0.0
1.050810 -0.003357 0.0
1.052335 -0.003614 0.0
1.053942 -0.003525 0.0
1.055526 -0.003039 0.0
1.056953 -0.002140 0.0
1.058077 -0.000865 0.0
1.058771 0.000679 0.0
1.058959 0.002329 0.0
1.058639 0.003902 0.0
1.057883 0.005241 0.0
1.056810 0.006244 0.0
1.055553 0.006872 0.0
1.054232 0.007135 0.0
1.052947 0.007072 0.0
1.051768 0.006733 0.0
1.050746 0.006172 0.0
1.049916 0.005439 0.0
1.049302 0.004577 0.0
1.048921 0.003632 0.0
1.048786 0.002646 0.0
1.048900 0.001665 0.0
1.049262 0.000736 0.0
1.049856 -0.000088 0.0
1.050658 -0.000758 0.0
1.051627 -0.001221 0.0
1.052705 -0.001435 0.0
1.053821 -0.001370 0.0
1.054896 -0.001015 0.0
1.055844 -0.000383 0.0
1.056587 0.000486 0.0
1.057064 0.001531 0.0
1.057235 0.002675 0.0
1.057087 0.003834 0.0
1.056632 0.004930 0.0
1.055908 0.005895 0.0
1.054964 0.006680 0.0
1.053860 0.007257 0.0
1.052656 0.007612 0.0
1.051409 0.007750 0.0
1.050170 0.007686 0.0
1.048980 0.007444 0.0
1.047874 0.007050 0.0
1.046880 0.006539 0.0
1.046015 0.005944 0.0
1.045292 0.005302 0.0
1.044716 0.004651 0.0
1.044285 0.004030 0.0
1.043991 0.003480 0.0
1.043819 0.003045 0.0
1.043741 0.002770 0.0
1.043720 0.002700 0.0
1.043699 0.002877 0.0
1.043606 0.003334 0.0
1.043357 0.004078 0.0
1.042857 0.005087 0.0
1.042026 0.006302 0.0
1.040806 0.007626 0.0
1.039180 0.008947 0.0
1.037177 0.010151 0.0
1.034860 0.011146 0.0
1.032318 0.011874 0.0
1.029645 0.012312 0.0
1.026929 0.012466 0.0
1.024240 0.012359 0.0
1.021635 0.012022 0.0
1.019157 0.011486 0.0
1.016836 0.010782 0.0
1.014698 0.009938 0.0
1.012762 0.008978 0.0
1.011046 0.007926 0.0
1.009563 0.006805 0.0
1.008325 0.005641 0.0
1.007340 0.004458 0.0
1.006613 0.003284 0.0
1.006148 0.002151 0.0
1.005943 0.001095 0.0
1.005991 0.000161 0.0
1.006270 -0.000593 0.0
1.006731 -0.001099 0.0
1.007291 -0.001290 0.0
1.007821 -0.001130 0.0
1.008174 -0.000650 0.0
1.008211 0.000067 0.0
1.000012 -0.000109 0.0
1.000059 -0.000346 0.0
1.000155 -0.000636 0.0
1.000307 -0.001009 0.0
1.000529 -0.001486 0.0
1.000839 -0.002083 0.0
1.001263 -0.002807 0.0
1.001830 -0.003659 0.0
1.002572 -0.004633 0.0
1.003524 -0.005711 0.0
1.004715 -0.006868 0.0
1.006172 -0.008068 0.0
1.007917 -0.009264 0.0
1.009960 -0.010399 0.0
1.012295 -0.011407 0.0
1.014900 -0.012214 0.0
1.017730 -0.012742 0.0
1.020714 -0.012918 0.0
1.023752 -0.012684 0.0
1.026726 -0.012008 0.0
1.029502 -0.010895 0.0
1.031953 -0.009398 0.0
1.033972 -0.007608 0.0