# vtk DataFile Version 3.0
Scalar Field
ASCII
DATASET RECTILINEAR_GRID
DIMENSIONS 200 75 1
X_COORDINATES 200 double
0.050000 0.150000 0.250000 0.350000 0.450000 0.550000 0.650000 0.750000 0.850000 0.950000 1.050000 1.150000 1.250000 1.350000 1.450000 1.550000 1.650000 1.750000 1.850000 1.950000 2.050000 2.150000 2.250000 2.350000 2.450000 2.550000 2.650000 2.750000 2.850000 2.950000 3.050000 3.150000 3.250000 3.350000 3.450000 3.550000 3.650000 3.750000 3.850000 3.950000 4.050000 4.150000 4.250000 4.350000 4.450000 4.550000 4.650000 4.750000 4.850000 4.950000 5.050000 5.150000 5.250000 5.350000 5.450000 5.550000 5.650000 5.750000 5.850000 5.950000 6.050000 6.150000 6.250000 6.350000 6.450000 6.550000 6.650000 6.750000 6.850000 6.950000 7.050000 7.150000 7.250000 7.350000 7.450000 7.550000 7.650000 7.750000 7.850000 7.950000 8.050000 8.150000 8.250000 8.350000 8.450000 8.550000 8.650000 8.750000 8.850000 8.950000 9.050000 9.150000 9.250000 9.350000 9.450000 9.550000 9.650000 9.750000 9.850000 9.950000 10.050000 10.150000 10.250000 10.350000 10.450000 10.550000 10.650000 10.750000 10.850000 10.950000 11.050000 11.150000 11.250000 11.350000 11.450000 11.550000 11.650000 11.750000 11.850000 11.950000 12.050000 12.150000 12.250000 12.350000 12.450000 12.550000 12.650000 12.750000 12.850000 12.950000 13.050000 13.150000 13.250000 13.350000 13.450000 13.550000 13.650000 13.750000 13.850000 13.950000 14.050000 14.150000 14.250000 14.350000 14.450000 14.550000 14.650000 14.750000 14.850000 14.950000 15.050000 15.150000 15.250000 15.350000 15.450000 15.550000 15.650000 15.750000 15.850000 15.950000 16.050000 16.150000 16.250000 16.350000 16.450000 16.550000 16.650000 16.750000 16.850000 16.950000 17.050000 17.150000 17.250000 17.350000 17.450000 17.550000 17.650000 17.750000 17.850000 17.950000 18.050000 18.150000 18.250000 18.350000 18.450000 18.550000 18.650000 18.750000 18.850000 18.950000 19.050000 19.150000 19.250000 19.350000 19.450000 19.550000 19.650000 19.750000 19.850000 19.950000 
Y_COORDINATES 75 double
0.050000 0.150000 0.250000 0.350000 0.450000 0.550000 0.650000 0.750000 0.850000 0.950000 1.050000 1.150000 1.250000 1.350000 1.450000 1.550000 1.650000 1.750000 1.850000 1.950000 2.050000 2.150000 2.250000 2.350000 2.450000 2.550000 2.650000 2.750000 2.850000 2.950000 3.050000 3.150000 3.250000 3.350000 3.450000 3.550000 3.650000 3.750000 3.850000 3.950000 4.050000 4.150000 4.250000 4.350000 4.450000 4.550000 4.650000 4.750000 4.850000 4.950000 5.050000 5.150000 5.250000 5.350000 5.450000 5.550000 5.650000 5.750000 5.850000 5.950000 6.050000 6.150000 6.250000 6.350000 6.450000 6.550000 6.650000 6.750000 6.850000 6.950000 7.050000 7.150000 7.250000 7.350000 7.450000 
Z_COORDINATES 1 double
0.0
POINT_DATA 15000
SCALARS Skalarfeld double 1
LOOKUP_TABLE default
0.170764
0.169474
0.168634
0.167945
0.167289
0.166607
0.165861
0.165029
0.164091
0.163033
0.161845
0.160521
0.159063
0.157476
0.155773
0.153977
0.152113
0.150218
0.148331
0.146495
0.144754
0.143150
0.141717
0.140483
0.139466
0.138670
0.138089
0.137708
0.137501
0.137437
0.137481
0.137595
0.137742
0.137888
0.138001
0.138053
0.138025
0.137899
0.137668
0.137330
0.136888
0.136356
0.135751
0.135098
0.134428
0.133774
0.133169
0.132646
0.132232
0.131944
0.131789
0.131762
0.131845
0.132012
0.132229
0.132458
0.132657
0.132789
0.132817
0.132708
0.132435
0.131975
0.131316
0.130447
0.129369
0.128087
0.126618
0.124987
0.123231
0.121396
0.119540
0.117724
0.116018
0.114485
0.113179
0.112140
0.111384
0.110910
0.110697
0.110707
0.110893
0.111207
0.111602
0.112036
0.112474
0.112886
0.113252
0.113558
0.113798
0.113972
0.114087
0.114155
0.114194
0.114227
0.114278
0.114372
0.114535
0.114786
0.115140
0.115603
0.116172
0.116835
0.117571
0.118353
0.119149
0.119926
0.120648
0.121285
0.121806
0.122186
0.122405
0.122452
0.122318
0.122002
0.121509
0.120854
0.120059
0.119153
0.118177
0.117175
0.116201
0.115307
0.114546
0.113962
0.113587
0.113437
0.113509
0.113788
0.114239
0.114821
0.115485
0.116181
0.116865
0.117495
0.118037
0.118465
0.118761
0.118915
0.118926
0.118804
0.118565
0.118235
0.117843
0.117428
0.117031
0.116691
0.116449
0.116337
0.116383
0.116605
0.117009
0.117591
0.118337
0.119225
0.120227
0.121313
0.122448
0.123600
0.124739
0.125839
0.126876
0.127836
0.128708
0.129489
0.130182
0.130799
0.131359
0.131886
0.132411
0.132969
0.133597
0.134332
0.135203
0.136233
0.137434
0.138806
0.140335
0.141996
0.143755
0.145575
0.147414
0.149231
0.150989
0.152654
0.154197
0.155596
0.156833
0.157897
0.158781
0.159488
0.160027
0.160409
0.160655
0.160791
0.160847
0.160860
0.160864
0.160886
0.160925
0.161474
0.169436
0.169025
0.168482
0.167913
0.167316
0.166669
0.165949
0.165136
0.164213
0.163165
0.161982
0.160658
0.159193
0.157592
0.155868
0.154043
0.152145
0.150209
0.148279
0.146399
0.144617
0.142976
0.141516
0.140266
0.139242
0.138452
0.137887
0.137531
0.137356
0.137328
0.137410
0.137561
0.137744
0.137922
0.138062
0.138137
0.138124
0.138008
0.137779
0.137436
0.136982
0.136431
0.135800
0.135117
0.134413
0.133724
0.133086
0.132537
0.132104
0.131809
0.131660
0.131650
0.131760
0.131962
0.132219
0.132488
0.132727
0.132896
0.132957
0.132876
0.132626
0.132185
0.131536
0.130669
0.129582
0.128282
0.126784
0.125114
0.123307
0.121412
0.119487
0.117602
0.115829
0.114239
0.112894
0.111838
0.111090
0.110644
0.110470
0.110527
0.110762
0.111124
0.111562
0.112033
0.112499
0.112933
0.113313
0.113626
0.113866
0.114033
0.114135
0.114185
0.114202
0.114210
0.114235
0.114305
0.114447
0.114683
0.115031
0.115497
0.116078
0.116762
0.117526
0.118340
0.119171
0.119982
0.120738
0.121404
0.121950
0.122351
0.122588
0.122644
0.122510
0.122187
0.121678
0.120998
0.120169
0.119222
0.118196
0.117140
0.116109
0.115161
0.114355
0.113738
0.113347
0.113201
0.113297
0.113611
0.114107
0.114738
0.115451
0.116194
0.116920
0.117585
0.118154
0.118600
0.118906
0.119061
0.119066
0.118927
0.118662
0.118298
0.117867
0.117409
0.116968
0.116588
0.116311
0.116173
0.116204
0.116420
0.116828
0.117424
0.118192
0.119109
0.120143
0.121262
0.122431
0.123614
0.124780
0.125902
0.126957
0.127927
0.128802
0.129579
0.130261
0.130859
0.131393
0.131888
0.132377
0.132898
0.133490
0.134193
0.135041
0.136059
0.137261
0.138647
0.140200
0.141895
0.143694
0.145556
0.147436
0.149292
0.151085
0.152779
0.154346
0.155762
0.157011
0.158080
0.158966
0.159668
0.160192
0.160553
0.160771
0.160872
0.160891
0.160866
0.160842
0.160867
0.160994
0.161543
0.168883
0.168705
0.168353
0.167908
0.167393
0.166804
0.166130
0.165354
0.164459
0.163432
0.162260
0.160935
0.159457
0.157828
0.156061
0.154178
0.152209
0.150191
0.148171
0.146201
0.144333
0.142618
0.141101
0.139814
0.138778
0.137999
0.137468
0.137164
0.137055
0.137102
0.137262
0.137492
0.137749
0.137993
0.138190
0.138311
0.138331
0.138235
0.138012
0.137659
0.137180
0.136590
0.135907
0.135159
0.134383
0.133620
0.132912
0.132304
0.131833
0.131522
0.131384
0.131410
0.131579
0.131855
0.132194
0.132548
0.132871
0.133117
0.133246
0.133223
0.133019
0.132610
0.131979
0.131114
0.130012
0.128678
0.127125
0.125377
0.123469
0.121453
0.119392
0.117362
0.115449
0.113741
0.112314
0.111221
0.110484
0.110090
0.110000
0.110156
0.110496
0.110958
0.111485
0.112030
0.112556
0.113033
0.113441
0.113768
0.114007
0.114161
0.114237
0.114250
0.114221
0.114176
0.114145
0.114163
0.114260
0.114465
0.114799
0.115270
0.115878
0.116606
0.117428
0.118311
0.119215
0.120099
0.120923
0.121650
0.122249
0.122692
0.122957
0.123029
0.122897
0.122560
0.122021
0.121294
0.120399
0.119368
0.118242
0.117075
0.115928
0.114869
0.113966
0.113281
0.112857
0.112717
0.112855
0.113242
0.113832
0.114567
0.115384
0.116225
0.117037
0.117774
0.118398
0.118883
0.119209
0.119365
0.119352
0.119178
0.118860
0.118428
0.117918
0.117374
0.116844
0.116380
0.116030
0.115836
0.115830
0.116033
0.116450
0.117076
0.117891
0.118867
0.119969
0.121159
0.122396
0.123644
0.124867
0.126036
0.127125
0.128117
0.129000
0.129769
0.130428
0.130988
0.131469
0.131898
0.132312
0.132753
0.133267
0.133902
0.134700
0.135692
0.136895
0.138309
0.139916
0.141682
0.143564
0.145514
0.147481
0.149418
0.151282
0.153037
0.154653
0.156106
0.157378
0.158459
0.159343
0.160029
0.160525
0.160844
0.161006
0.161038
0.160978
0.160870
0.160771
0.160743
0.160856
0.161389
0.168660
0.168560
0.168318
0.167973
0.167541
0.167024
0.166411
0.165687
0.164835
0.163840
0.162686
0.161362
0.159865
0.158195
0.156364
0.154393
0.152314
0.150168
0.148009
0.145896
0.143893
0.142061
0.140453
0.139109
0.138055
0.137296
0.136821
0.136600
0.136596
0.136760
0.137043
0.137393
0.137763
0.138109
0.138393
0.138583
0.138654
0.138587
0.138373
0.138006
0.137491
0.136841
0.136077
0.135230
0.134342
0.133459
0.132639
0.131936
0.131399
0.131062
0.130942
0.131027
0.131290
0.131683
0.132151
0.132639
0.133089
0.133453
0.133686
0.133751
0.133616
0.133258
0.132655
0.131796
0.130674
0.129291
0.127657
0.125794
0.123737
0.121535
0.119259
0.116999
0.114860
0.112958
0.111396
0.110246
0.109532
0.109231
0.109281
0.109601
0.110107
0.110724
0.111386
0.112044
0.112658
0.113200
0.113649
0.113996
0.114234
0.114366
0.114401
0.114356
0.114254
0.114126
0.114008
0.113940
0.113964
0.114117
0.114427
0.114907
0.115555
0.116353
0.117269
0.118259
0.119277
0.120274
0.121203
0.122025
0.122704
0.123209
0.123519
0.123616
0.123489
0.123133
0.122551
0.121754
0.120761
0.119604
0.118327
0.116987
0.115655
0.114417
0.113358
0.112560
0.112082
0.111952
0.112162
0.112670
0.113412
0.114311
0.115292
0.116285
0.117228
0.118074
0.118782
0.119324
0.119680
0.119839
0.119800
0.119571
0.119173
0.118636
0.118002
0.117322
0.116654
0.116058
0.115593
0.115309
0.115247
0.115430
0.115863
0.116538
0.117428
0.118498
0.119706
0.121005
0.122350
0.123697
0.125007
0.126247
0.127390
0.128416
0.129311
0.130069
0.130694
0.131196
0.131595
0.131923
0.132219
0.132533
0.132923
0.133448
0.134163
0.135112
0.136316
0.137776
0.139468
0.141349
0.143364
0.145451
0.147552
0.149612
0.151585
0.153432
0.155121
0.156628
0.157937
0.159035
0.159916
0.160581
0.161035
0.161291
0.161368
0.161295
0.161110
0.160865
0.160627
0.160477
0.160503
0.160991
0.168621
0.168557
0.168385
0.168122
0.167775
0.167338
0.166801
0.166146
0.165353
0.164403
0.163276
0.161958
0.160439
0.158717
0.156800
0.154709
0.152476
0.150151
0.147793
0.145476
0.143278
0.141276
0.139537
0.138114
0.137036
0.136310
0.135916
0.135819
0.135965
0.136297
0.136753
0.137271
0.137798
0.138284
0.138687
0.138972
0.139112
0.139087
0.138884
0.138500
0.137936
0.137206
0.136330
0.135344
0.134293
0.133237
0.132248
0.131401
0.130763
0.130387
0.130292
0.130466
0.130867
0.131432
0.132088
0.132764
0.133393
0.133919
0.134293
0.134477
0.134437
0.134147
0.133586
0.132738
0.131594
0.130151
0.128415
0.126402
0.124143
0.121685
0.119105
0.116507
0.114029
0.111830
0.110062
0.108831
0.108166
0.108019
0.108290
0.108857
0.109605
0.110441
0.111291
0.112100
0.112830
0.113456
0.113959
0.114329
0.114564
0.114665
0.114644
0.114518
0.114313
0.114065
0.113818
0.113625
0.113539
0.113612
0.113883
0.114373
0.115081
0.115981
0.117032
0.118178
0.119358
0.120513
0.121590
0.122542
0.123330
0.123922
0.124294
0.124427
0.124307
0.123930
0.123293
0.122406
0.121284
0.119957
0.118469
0.116883
0.115285
0.113780
0.112486
0.111516
0.110956
0.110847
0.111170
0.111864
0.112833
0.113974
0.115188
0.116392
0.117517
0.118511
0.119332
0.119951
0.120348
0.120510
0.120436
0.120134
0.119624
0.118941
0.118132
0.117259
0.116391
0.115604
0.114972
0.114561
0.114419
0.114575
0.115035
0.115782
0.116783
0.117990
0.119349
0.120803
0.122298
0.123783
0.125214
0.126554
0.127771
0.128844
0.129757
0.130503
0.131082
0.131506
0.131794
0.131980
0.132108
0.132238
0.132444
0.132804
0.133393
0.134273
0.135478
0.137008
0.138828
0.140879
0.143086
0.145370
0.147660
0.149890
0.152011
0.153981
0.155768
0.157348
0.158704
0.159825
0.160705
0.161342
0.161742
0.161915
0.161879
0.161661
0.161299
0.160850
0.160393
0.160034
0.159894
0.160296
0.168702
0.168660
0.168544
0.168357
0.168097
0.167752
0.167307
0.166741
0.166027
0.165140
0.164055
0.162750
0.161209
0.159425
0.157402
0.155156
0.152722
0.150155
0.147528
0.144930
0.142460
0.140221
0.138302
0.136770
0.135664
0.134987
0.134714
0.134790
0.135147
0.135707
0.136395
0.137137
0.137870
0.138538
0.139094
0.139502
0.139731
0.139761
0.139576
0.139171
0.138547
0.137714
0.136694
0.135521
0.134248
0.132949
0.131716
0.130655
0.129866
0.129427
0.129370
0.129676
0.130278
0.131087
0.132003
0.132933
0.133797
0.134533
0.135089
0.135424
0.135506
0.135306
0.134802
0.133974
0.132809
0.131300
0.129444
0.127250
0.124738
0.121950
0.118958
0.115884
0.112909
0.110262
0.108184
0.106843
0.106276
0.106386
0.106999
0.107927
0.109014
0.110142
0.111232
0.112231
0.113105
0.113832
0.114399
0.114797
0.115025
0.115086
0.114991
0.114757
0.114414
0.114002
0.113575
0.113201
0.112954
0.112907
0.113118
0.113620
0.114410
0.115456
0.116698
0.118059
0.119460
0.120829
0.122100
0.123221
0.124150
0.124853
0.125305
0.125487
0.125382
0.124982
0.124283
0.123288
0.122007
0.120465
0.118702
0.116785
0.114814
0.112924
0.111282
0.110055
0.109377
0.109303
0.109806
0.110779
0.112080
0.113560
0.115092
0.116576
0.117936
0.119118
0.120083
0.120800
0.121250
0.121418
0.121300
0.120902
0.120247
0.119370
0.118326
0.117188
0.116045
0.114994
0.114131
0.113542
0.113291
0.113414
0.113916
0.114771
0.115929
0.117327
0.118893
0.120558
0.122253
0.123921
0.125511
0.126980
0.128295
0.129430
0.130369
0.131101
0.131626
0.131951
0.132096
0.132093
0.131993
0.131868
0.131810
0.131928
0.132331
0.133109
0.134313
0.135944
0.137951
0.140247
0.142724
0.145279
0.147820
0.150273
0.152583
0.154708
0.156618
0.158289
0.159705
0.160856
0.161734
0.162339
0.162673
0.162746
0.162570
0.162168
0.161572
0.160838
0.160057
0.159368
0.158950
0.159202
0.168858
0.168837
0.168774
0.168665
0.168502
0.168266
0.167935
0.167481
0.166870
0.166071
0.165048
0.163771
0.162216
0.160365
0.158215
0.155779
0.153090
0.150209
0.147222
0.144243
0.141403
0.138838
0.136671
0.134994
0.133856
0.133258
0.133157
0.133476
0.134119
0.134985
0.135977
0.137007
0.138002
0.138898
0.139647
0.140207
0.140548
0.140646
0.140487
0.140060
0.139366
0.138410
0.137210
0.135798
0.134230
0.132594
0.131012
0.129635
0.128618
0.128084
0.128084
0.128584
0.129480
0.130632
0.131899
0.133162
0.134327
0.135323
0.136102
0.136622
0.136853
0.136765
0.136336
0.135542
0.134364
0.132788
0.130803
0.128406
0.125599
0.122405
0.118879
0.115148
0.111443
0.108111
0.105554
0.104069
0.103700
0.104244
0.105386
0.106834
0.108376
0.109877
0.111260
0.112483
0.113523
0.114366
0.115004
0.115433
0.115651
0.115662
0.115475
0.115106
0.114583
0.113953
0.113279
0.112650
0.112169
0.111943
0.112061
0.112574
0.113481
0.114733
0.116240
0.117895
0.119592
0.121238
0.122756
0.124089
0.125192
0.126033
0.126585
0.126829
0.126748
0.126328
0.125563
0.124448
0.122984
0.121185
0.119080
0.116731
0.114249
0.111810
0.109652
0.108037
0.107182
0.107177
0.107965
0.109364
0.111143
0.113091
0.115042
0.116880
0.118530
0.119941
0.121078
0.121915
0.122431
0.122609
0.122440
0.121928
0.121089
0.119963
0.118610
0.117120
0.115605
0.114192
0.113012
0.112181
0.111787
0.111873
0.112442
0.113452
0.114832
0.116491
0.118336
0.120277
0.122232
0.124134
0.125924
0.127557
0.128995
0.130210
0.131185
0.131905
0.132368
0.132576
0.132545
0.132304
0.131904
0.131430
0.131000
0.130766
0.130890
0.131514
0.132717
0.134499
0.136780
0.139425
0.142277
0.145194
0.148061
0.150793
0.153334
0.155646
0.157701
0.159480
0.160968
0.162155
0.163033
0.163602
0.163862
0.163820
0.163484
0.162863
0.161977
0.160866
0.159622
0.158424
0.157549
0.157537
0.169055
0.169054
0.169049
0.169029
0.168978
0.168874
0.168685
0.168374
0.167901
0.167220
0.166289
0.165064
0.163508
0.161593
0.159303
0.156641
0.153636
0.150352
0.146892
0.143401
0.140055
0.137043
0.134539
0.132670
0.131499
0.131023
0.131172
0.131830
0.132862
0.134131
0.135513
0.136906
0.138224
0.139400
0.140381
0.141126
0.141602
0.141785
0.141660
0.141215
0.140444
0.139348
0.137935
0.136228
0.134278
0.132182
0.130100
0.128252
0.126885
0.126204
0.126294
0.127092
0.128419
0.130055
0.131795
0.133484
0.135018
0.136327
0.137367
0.138105
0.138512
0.138562
0.138229
0.137486
0.136308
0.134674
0.132564
0.129957
0.126832
0.123171
0.118982
0.114360
0.109575
0.105156
0.101826
0.100156
0.100196
0.101492
0.103457
0.105640
0.107771
0.109723
0.111442
0.112913
0.114133
0.115101
0.115815
0.116276
0.116481
0.116434
0.116138
0.115606
0.114861
0.113947
0.112939
0.111951
0.111128
0.110634
0.110607
0.111131
0.112205
0.113749
0.115628
0.117684
0.119770
0.121769
0.123593
0.125181
0.126492
0.127496
0.128169
0.128491
0.128445
0.128014
0.127186
0.125947
0.124287
0.122198
0.119687
0.116794
0.113624
0.110396
0.107458
0.105243
0.104121
0.104247
0.105504
0.107559
0.110032
0.112614
0.115100
0.117369
0.119358
0.121034
0.122371
0.123350
0.123947
0.124144
0.123922
0.123276
0.122216
0.120778
0.119029
0.117074
0.115058
0.113153
0.111539
0.110380
0.109796
0.109846
0.110522
0.111760
0.113449
0.115464
0.117678
0.119975
0.122260
0.124452
0.126490
0.128323
0.129913
0.131229
0.132252
0.132965
0.133362
0.133440
0.133203
0.132670
0.131888
0.130945
0.129992
0.129242
0.128947
0.129334
0.130534
0.132546
0.135236
0.138385
0.141756
0.145150
0.148426
0.151495
0.154307
0.156833
0.159054
0.160956
0.162527
0.163757
0.164638
0.165168
0.165348
0.165182
0.164674
0.163817
0.162598
0.161016
0.159129
0.157146
0.155496
0.155003
0.169254
0.169277
0.169338
0.169422
0.169509
0.169566
0.169555
0.169429
0.169135
0.168617
0.167817
0.166679
0.165150
0.163184
0.160747
0.157827
0.154441
0.150650
0.146572
0.142392
0.138351
0.134721
0.131752
0.129629
0.128435
0.128152
0.128666
0.129800
0.131357
0.133151
0.135030
0.136870
0.138580
0.140089
0.141345
0.142306
0.142942
0.143228
0.143148
0.142690
0.141844
0.140600
0.138951
0.136897
0.134468
0.131753
0.128949
0.126381
0.124459
0.123545
0.123786
0.125060
0.127041
0.129363
0.131731
0.133954
0.135925
0.137593
0.138928
0.139911
0.140522
0.140736
0.140524
0.139854
0.138697
0.137023
0.134805
0.132007
0.128578
0.124435
0.119482
0.113688
0.107286
0.101054
0.096385
0.094487
0.095408
0.098049
0.101295
0.104483
0.107337
0.109793
0.111866
0.113590
0.114991
0.116084
0.116877
0.117370
0.117563
0.117452
0.117037
0.116318
0.115306
0.114034
0.112579
0.111084
0.109759
0.108854
0.108600
0.109132
0.110451
0.112424
0.114832
0.117435
0.120029
0.122468
0.124658
0.126544
0.128094
0.129284
0.130096
0.130514
0.130517
0.130088
0.129208
0.127855
0.126002
0.123615
0.120656
0.117106
0.113028
0.108659
0.104507
0.101320
0.099782
0.100165
0.102227
0.105322
0.108801
0.112225
0.115365
0.118130
0.120496
0.122460
0.124019
0.125160
0.125860
0.126092
0.125824
0.125033
0.123716
0.121897
0.119645
0.117082
0.114393
0.111813
0.109601
0.107994
0.107162
0.107183
0.108034
0.109606
0.111733
0.114231
0.116927
0.119678
0.122371
0.124919
0.127255
0.129328
0.131099
0.132538
0.133623
0.134339
0.134673
0.134614
0.134152
0.133283
0.132028
0.130465
0.128773
0.127256
0.126313
0.126329
0.127527
0.129900
0.133218
0.137107
0.141196
0.145209
0.148984
0.152443
0.155556
0.158315
0.160717
0.162755
0.164420
0.165700
0.166587
0.167075
0.167170
0.166878
0.166202
0.165120
0.163569
0.161452
0.158711
0.155510
0.152489
0.151068
0.169410
0.169462
0.169602
0.169814
0.170068
0.170326
0.170539
0.170648
0.170588
0.170289
0.169676
0.168675
0.167215
0.165227
0.162655
0.159457
0.155625
0.151205
0.146323
0.141210
0.136203
0.131703
0.128089
0.125629
0.124436
0.124465
0.125522
0.127330
0.129597
0.132074
0.134570
0.136951
0.139124
0.141020
0.142592
0.143802
0.144622
0.145029
0.145008
0.144548
0.143635
0.142251
0.140365
0.137935
0.134934
0.131402
0.127548
0.123847
0.121012
0.119715
0.120229
0.122304
0.125306
0.128611
0.131800
0.134662
0.137126
0.139179
0.140830
0.142080
0.142919
0.143324
0.143263
0.142696
0.141585
0.139897
0.137602
0.134662
0.131002
0.126463
0.120761
0.113540
0.104717
0.095265
0.088050
0.085905
0.088844
0.093963
0.099164
0.103640
0.107288
0.110235
0.112631
0.114582
0.116149
0.117363
0.118233
0.118761
0.118943
0.118772
0.118238
0.117322
0.116009
0.114302
0.112260
0.110048
0.107966
0.106421
0.105802
0.106339
0.108032
0.110654
0.113830
0.117183
0.120431
0.123404
0.126017
0.128235
0.130045
0.131440
0.132410
0.132940
0.133010
0.132600
0.131687
0.130244
0.128231
0.125578
0.122181
0.117906
0.112671
0.106642
0.100523
0.095678
0.093456
0.094363
0.097886
0.102674
0.107606
0.112106
0.115995
0.119281
0.122026
0.124283
0.126077
0.127404
0.128237
0.128532
0.128239
0.127308
0.125708
0.123439
0.120559
0.117202
0.113603
0.110089
0.107043
0.104817
0.103661
0.103675
0.104812
0.106885
0.109634
0.112787
0.116110
0.119429
0.122618
0.125588
0.128274
0.130627
0.132610
0.134194
0.135358
0.136089
0.136371
0.136187
0.135502
0.134275
0.132467
0.130104
0.127363
0.124675
0.122703
0.122122
0.123320
0.126285
0.130604
0.135606
0.140689
0.145487
0.149841
0.153720
0.157144
0.160142
0.162732
0.164917
0.166688
0.168028
0.168922
0.169366
0.169365
0.168944
0.168121
0.166874
0.165082
0.162480
0.158708
0.153634
0.148062
0.144710
0.169472
0.169559
0.169796
0.170162
0.170622
0.171129
0.171623
0.172032
0.172275
0.172266
0.171911
0.171117
0.169789
0.167834
0.165161
0.161688
0.157360
0.152179
0.146256
0.139870
0.133494
0.127745
0.123218
0.120314
0.119177
0.119715
0.121599
0.124374
0.127604
0.130954
0.134206
0.137224
0.139927
0.142261
0.144188
0.145676
0.146702
0.147247
0.147298
0.146848
0.145886
0.144392
0.142308
0.139530
0.135914
0.131349
0.125963
0.120409
0.115993
0.114040
0.115079
0.118588
0.123242
0.127952
0.132172
0.135752
0.138720
0.141154
0.143118
0.144645
0.145736
0.146364
0.146489
0.146061
0.145028
0.143351
0.141012
0.137997
0.134255
0.129587
0.123458
0.114834
0.102515
0.086920
0.074337
0.072030
0.079980
0.089726
0.097713
0.103597
0.107920
0.111216
0.113830
0.115948
0.117655
0.118980
0.119927
0.120493
0.120671
0.120452
0.119815
0.118720
0.117105
0.114904
0.112109
0.108878
0.105632
0.103056
0.101837
0.102375
0.104668
0.108312
0.112632
0.117018
0.121092
0.124686
0.127757
0.130321
0.132399
0.134009
0.135149
0.135809
0.135966
0.135596
0.134675
0.133180
0.131067
0.128249
0.124536
0.119600
0.113015
0.104588
0.095119
0.087264
0.083867
0.085860
0.092215
0.099835
0.106809
0.112573
0.117208
0.120958
0.124032
0.126559
0.128593
0.130134
0.131141
0.131549
0.131278
0.130237
0.128350
0.125574
0.121928
0.117541
0.112700
0.107870
0.103633
0.100541
0.098960
0.099023
0.100628
0.103467
0.107112
0.111153
0.115281
0.119294
0.123069
0.126528
0.129614
0.132286
0.134509
0.136259
0.137518
0.138278
0.138528
0.138248
0.137383
0.135832
0.133445
0.130096
0.125870
0.121332
0.117663
0.116094
0.117302
0.121267
0.127264
0.133984
0.140435
0.146179
0.151148
0.155431
0.159139
0.162359
0.165136
0.167479
0.169372
0.170786
0.171694
0.172082
0.171965
0.171394
0.170443
0.169146
0.167371
0.164624
0.159916
0.152098
0.141485
0.133804
0.169376
0.169505
0.169860
0.170415
0.171128
0.171943
0.172788
0.173575
0.174207
0.174577
0.174571
0.174073
0.172967
0.171129
0.168429
0.164729
0.159893
0.153829
0.146577
0.138433
0.130065
0.122472
0.116633
0.113146
0.112183
0.113565
0.116735
0.120923
0.125455
0.129903
0.134047
0.137786
0.141076
0.143889
0.146202
0.147995
0.149246
0.149942
0.150074
0.149643
0.148656
0.147104
0.144922
0.141937
0.137805
0.132067
0.124471
0.115742
0.108416
0.105295
0.107385
0.113663
0.121071
0.127741
0.133154
0.137426
0.140825
0.143577
0.145824
0.147628
0.148995
0.149888
0.150247
0.150004
0.149081
0.147433
0.145057
0.142009
0.138369
0.134077
0.128487
0.119510
0.102863
0.074577
0.049411
0.047349
0.069059
0.087109
0.098292
0.105074
0.109554
0.112861
0.115512
0.117716
0.119533
0.120966
0.121995
0.122605
0.122789
0.122543
0.121845
0.120634
0.118780
0.116092
0.112385
0.107707
0.102617
0.098314
0.096091
0.096626
0.099920
0.105262
0.111336
0.117137
0.122209
0.126467
0.129986
0.132872
0.135205
0.137029
0.138353
0.139162
0.139426
0.139116
0.138210
0.136699
0.134570
0.131761
0.128043
0.122834
0.115030
0.103293
0.087746
0.074031
0.068583
0.072788
0.085142
0.097555
0.107165
0.114131
0.119281
0.123291
0.126568
0.129312
0.131589
0.133382
0.134629
0.135230
0.135067
0.133988
0.131855
0.128546
0.123998
0.118287
0.111736
0.105000
0.099020
0.094694
0.092563
0.092784
0.095173
0.099208
0.104162
0.109405
0.114542
0.119375
0.123817
0.127821
0.131353
0.134378
0.136867
0.138800
0.140165
0.140963
0.141202
0.140877
0.139931
0.138199
0.135348
0.130915
0.124610
0.117025
0.110411
0.107199
0.108433
0.114122
0.123121
0.132564
0.140834
0.147604
0.153110
0.157687
0.161598
0.164997
0.167953
0.170470
0.172515
0.174031
0.174965
0.175282
0.174994
0.174199
0.173083
0.171863
0.170582
0.168635
0.164041
0.152870
0.131601
0.113519
0.169046
0.169226
0.169723
0.170508
0.171531
0.172724
0.174004
0.175265
0.176390
0.177247
0.177700
0.177611
0.176841
0.175242
0.172646
0.168843
0.163574
0.156568
0.147664
0.137068
0.125695
0.115278
0.107532
0.103304
0.102740
0.105532
0.110777
0.117063
0.123337
0.129112
0.134254
0.138765
0.142673
0.145989
0.148712
0.150829
0.152323
0.153179
0.153391
0.152974
0.151967
0.150414
0.148304
0.145441
0.141233
0.134527
0.123916
0.109419
0.096374
0.091144
0.095321
0.107477
0.119544
0.128720
0.135228
0.139936
0.143546
0.146480
0.148949
0.151025
0.152702
0.153917
0.154581
0.154588
0.153818
0.152194
0.149720
0.146551
0.143056
0.139739
0.136638
0.131209
0.112545
0.055618
-0.001471
-0.003007
0.061145
0.091031
0.103119
0.108779
0.112320
0.115135
0.117623
0.119853
0.121782
0.123343
0.124471
0.125132
0.125326
0.125072
0.124375
0.123176
0.121273
0.118271
0.113591
0.106894
0.098744
0.091449
0.087531
0.088052
0.093056
0.101416
0.110260
0.117941
0.124102
0.128955
0.132821
0.135951
0.138497
0.140527
0.142048
0.143032
0.143432
0.143199
0.142313
0.140793
0.138703
0.136114
0.132940
0.128493
0.120650
0.105065
0.077548
0.051576
0.042912
0.051006
0.077709
0.097904
0.110066
0.117447
0.122455
0.126329
0.129616
0.132512
0.135047
0.137159
0.138740
0.139653
0.139736
0.138754
0.136489
0.132699
0.127160
0.119788
0.110853
0.101263
0.092641
0.086540
0.083715
0.084300
0.088000
0.093971
0.100874
0.107721
0.114070
0.119816
0.124974
0.129563
0.133574
0.136984
0.139763
0.141890
0.143360
0.144189
0.144419
0.144099
0.143231
0.141640
0.138765
0.133494
0.124438
0.111499
0.099475
0.093656
0.094894
0.103462
0.118376
0.132203
0.142652
0.150233
0.155955
0.160576
0.164538
0.168051
0.171182
0.173909
0.176160
0.177833
0.178825
0.179054
0.178500
0.177296
0.175797
0.174607
0.174389
0.175125
0.174294
0.162015
0.116305
0.072014
0.168386
0.168628
0.169299
0.170362
0.171761
0.173416
0.175228
0.177078
0.178821
0.180296
0.181339
0.181790
0.181494
0.180293
0.177996
0.174326
0.168868
0.161041
0.150221
0.136194
0.120046
0.105089
0.094608
0.089529
0.089746
0.094879
0.103647
0.113113
0.121642
0.128892
0.135039
0.140304
0.144820
0.148646
0.151794
0.154255
0.156007
0.157028
0.157305
0.156865
0.155790
0.154239
0.152384
0.150210
0.147025
0.140638
0.126664
0.100853
0.075746
0.067059
0.074757
0.101080
0.120718
0.132254
0.139029
0.143493
0.146905
0.149816
0.152434
0.154792
0.156837
0.158463
0.159534
0.159898
0.159352
0.157740
0.155008
0.151351
0.147491
0.145057
0.146655
0.153992
0.154679
0.025267
-0.112371
-0.127197
0.083302
0.110860
0.113611
0.114257
0.115625
0.117619
0.119905
0.122213
0.124331
0.126085
0.127350
0.128065
0.128249
0.127973
0.127325
0.126327
0.124733
0.121867
0.116565
0.107296
0.093823
0.081051
0.074409
0.074849
0.082681
0.096958
0.110246
0.120191
0.127246
0.132387
0.136355
0.139582
0.142276
0.144503
0.146250
0.147454
0.148031
0.147894
0.147004
0.145404
0.143274
0.140977
0.138980
0.137271
0.133331
0.116528
0.062757
0.009514
-0.001080
0.008813
0.075983
0.105845
0.117534
0.123023
0.126693
0.129906
0.133012
0.136037
0.138889
0.141425
0.143475
0.144857
0.145380
0.144704
0.142536
0.138468
0.132001
0.122667
0.110405
0.096322
0.083511
0.074892
0.071267
0.072555
0.078427
0.087697
0.097561
0.106474
0.114151
0.120803
0.126665
0.131848
0.136367
0.140191
0.143281
0.145610
0.147170
0.147988
0.148155
0.147832
0.147205
0.146291
0.144452
0.139616
0.127599
0.104336
0.081645
0.072533
0.073524
0.085924
0.114378
0.135002
0.147204
0.154639
0.159843
0.164081
0.167891
0.171454
0.174782
0.177792
0.180347
0.182280
0.183411
0.183562
0.182611
0.180650
0.178174
0.176354
0.177169
0.182806
0.194201
0.199828
0.090810
-0.018124
0.167286
0.167602
0.168480
0.169877
0.171728
0.173943
0.176408
0.178979
0.181491
0.183741
0.185525
0.186658
0.186981
0.186355
0.184609
0.181458
0.176340
0.168232
0.155581
0.136835
0.112507
0.089769
0.075686
0.069965
0.071468
0.080274
0.095593
0.109943
0.121112
0.129692
0.136641
0.142533
0.147607
0.151933
0.155518
0.158346
0.160381
0.161577
0.161896
0.161346
0.160047
0.158315
0.156712
0.155872
0.155757
0.153727
0.139299
0.088866
0.036592
0.025222
0.033774
0.100542
0.129537
0.140321
0.145017
0.148027
0.150705
0.153396
0.156130
0.158822
0.161337
0.163505
0.165133
0.166019
0.165839
0.164286
0.161106
0.156254
0.150440
0.146283
0.150302
0.175101
0.251981
0.180729
0.000000
-0.375058
0.239119
0.150188
0.124529
0.118282
0.117914
0.119556
0.121954
0.124569
0.127050
0.129121
0.130580
0.131325
0.131411
0.131000
0.130321
0.129587
0.128800
0.127236
0.122703
0.110877
0.087339
0.063954
0.053885
0.053913
0.065452
0.093209
0.113380
0.125202
0.132221
0.136933
0.140584
0.143708
0.146484
0.148925
0.150956
0.152461
0.153293
0.153286
0.152346
0.150485
0.147951
0.145473
0.144600
0.147790
0.156662
0.159323
0.038117
-0.076361
-0.066319
-0.098242
0.106506
0.129734
0.130284
0.129975
0.131131
0.133404
0.136330
0.139579
0.142885
0.145999
0.148680
0.150699
0.151743
0.151621
0.149924
0.146062
0.139129
0.127877
0.111143
0.089536
0.069723
0.057835
0.053560
0.055944
0.065201
0.080646
0.095069
0.106370
0.115187
0.122524
0.128984
0.134754
0.139814
0.144092
0.147523
0.150062
0.151683
0.152403
0.152344
0.151822
0.151406
0.151755
0.152887
0.152339
0.140189
0.094298
0.048691
0.040237
0.039673
0.050630
0.117302
0.145703
0.156266
0.161138
0.164614
0.167953
0.171437
0.175044
0.178650
0.182075
0.185099
0.187469
0.188907
0.189086
0.187648
0.184453
0.179853
0.175456
0.175059
0.184030
0.212163
0.287473
0.217104
0.000000
0.165609
0.166014
0.167139
0.168934
0.171323
0.174207
0.177462
0.180923
0.184380
0.187596
0.190294
0.192252
0.193320
0.193415
0.192479
0.190353
0.186506
0.179503
0.166249
0.141574