# vtk DataFile Version 3.0
Scalar Field
ASCII
DATASET RECTILINEAR_GRID
DIMENSIONS 200 75 1
X_COORDINATES 200 double
0.050000 0.150000 0.250000 0.350000 0.450000 0.550000 0.650000 0.750000 0.850000 0.950000 1.050000 1.150000 1.250000 1.350000 1.450000 1.550000 1.650000 1.750000 1.850000 1.950000 2.050000 2.150000 2.250000 2.350000 2.450000 2.550000 2.650000 2.750000 2.850000 2.950000 3.050000 3.150000 3.250000 3.350000 3.450000 3.550000 3.650000 3.750000 3.850000 3.950000 4.050000 4.150000 4.250000 4.350000 4.450000 4.550000 4.650000 4.750000 4.850000 4.950000 5.050000 5.150000 5.250000 5.350000 5.450000 5.550000 5.650000 5.750000 5.850000 5.950000 6.050000 6.150000 6.250000 6.350000 6.450000 6.550000 6.650000 6.750000 6.850000 6.950000 7.050000 7.150000 7.250000 7.350000 7.450000 7.550000 7.650000 7.750000 7.850000 7.950000 8.050000 8.150000 8.250000 8.350000 8.450000 8.550000 8.650000 8.750000 8.850000 8.950000 9.050000 9.150000 9.250000 9.350000 9.450000 9.550000 9.650000 9.750000 9.850000 9.950000 10.050000 10.150000 10.250000 10.350000 10.450000 10.550000 10.650000 10.750000 10.850000 10.950000 11.050000 11.150000 11.250000 11.350000 11.450000 11.550000 11.650000 11.750000 11.850000 11.950000 12.050000 12.150000 12.250000 12.350000 12.450000 12.550000 12.650000 12.750000 12.850000 12.950000 13.050000 13.150000 13.250000 13.350000 13.450000 13.550000 13.650000 13.750000 13.850000 13.950000 14.050000 14.150000 14.250000 14.350000 14.450000 14.550000 14.650000 14.750000 14.850000 14.950000 15.050000 15.150000 15.250000 15.350000 15.450000 15.550000 15.650000 15.750000 15.850000 15.950000 16.050000 16.150000 16.250000 16.350000 16.450000 16.550000 16.650000 16.750000 16.850000 16.950000 17.050000 17.150000 17.250000 17.350000 17.450000 17.550000 17.650000 17.750000 17.850000 17.950000 18.050000 18.150000 18.250000 18.350000 18.450000 18.550000 18.650000 18.750000 18.850000 18.950000 19.050000 19.150000 19.250000 19.350000 19.450000 19.550000 19.650000 19.750000 19.850000 19.950000 
Y_COORDINATES 75 double
0.050000 0.150000 0.250000 0.350000 0.450000 0.550000 0.650000 0.750000 0.850000 0.950000 1.050000 1.150000 1.250000 1.350000 1.450000 1.550000 1.650000 1.750000 1.850000 1.950000 2.050000 2.150000 2.250000 2.350000 2.450000 2.550000 2.650000 2.750000 2.850000 2.950000 3.050000 3.150000 3.250000 3.350000 3.450000 3.550000 3.650000 3.750000 3.850000 3.950000 4.050000 4.150000 4.250000 4.350000 4.450000 4.550000 4.650000 4.750000 4.850000 4.950000 5.050000 5.150000 5.250000 5.350000 5.450000 5.550000 5.650000 5.750000 5.850000 5.950000 6.050000 6.150000 6.250000 6.350000 6.450000 6.550000 6.650000 6.750000 6.850000 6.950000 7.050000 7.150000 7.250000 7.350000 7.450000 
Z_COORDINATES 1 double
0.0
POINT_DATA 15000
SCALARS Skalarfeld double 1
LOOKUP_TABLE default
0.168002
0.166709
0.165859
0.165155
0.164476
0.163765
0.162985
0.162112
0.161127
0.160017
0.158770
0.157383
0.155856
0.154195
0.152415
0.150536
0.148586
0.146599
0.144616
0.142678
0.140829
0.139109
0.137554
0.136192
0.135038
0.134099
0.133370
0.132834
0.132467
0.132239
0.132114
0.132057
0.132031
0.132004
0.131945
0.131830
0.131640
0.131360
0.130984
0.130511
0.129948
0.129307
0.128608
0.127875
0.127138
0.126431
0.125786
0.125234
0.124801
0.124505
0.124350
0.124332
0.124434
0.124630
0.124886
0.125165
0.125428
0.125637
0.125756
0.125755
0.125604
0.125284
0.124776
0.124071
0.123165
0.122063
0.120777
0.119329
0.117750
0.116081
0.114374
0.112687
0.111082
0.109618
0.108349
0.107312
0.106525
0.105988
0.105681
0.105572
0.105622
0.105786
0.106025
0.106300
0.106580
0.106842
0.107068
0.107245
0.107371
0.107446
0.107477
0.107477
0.107462
0.107451
0.107468
0.107533
0.107668
0.107889
0.108208
0.108627
0.109143
0.109742
0.110405
0.111106
0.111817
0.112507
0.113146
0.113706
0.114161
0.114493
0.114683
0.114721
0.114603
0.114327
0.113901
0.113338
0.112658
0.111890
0.111068
0.110230
0.109421
0.108686
0.108065
0.107595
0.107297
0.107182
0.107243
0.107461
0.107804
0.108236
0.108715
0.109200
0.109654
0.110044
0.110344
0.110535
0.110603
0.110545
0.110360
0.110060
0.109659
0.109181
0.108652
0.108104
0.107572
0.107090
0.106689
0.106397
0.106235
0.106215
0.106341
0.106610
0.107009
0.107521
0.108122
0.108788
0.109492
0.110209
0.110914
0.111588
0.112214
0.112780
0.113282
0.113717
0.114093
0.114421
0.114718
0.115006
0.115311
0.115663
0.116091
0.116624
0.117285
0.118091
0.119050
0.120159
0.121406
0.122770
0.124221
0.125728
0.127257
0.128774
0.130246
0.131645
0.132947
0.134129
0.135174
0.136070
0.136807
0.137381
0.137790
0.138039
0.138136
0.138093
0.137928
0.137678
0.137362
0.136998
0.136603
0.136317
0.166681
0.166266
0.165713
0.165129
0.164509
0.163834
0.163079
0.162225
0.161255
0.160154
0.158913
0.157525
0.155991
0.154316
0.152514
0.150606
0.148621
0.146594
0.144567
0.142586
0.140696
0.138940
0.137358
0.135978
0.134818
0.133885
0.133171
0.132660
0.132324
0.132131
0.132043
0.132022
0.132031
0.132035
0.132002
0.131908
0.131732
0.131460
0.131084
0.130605
0.130029
0.129368
0.128643
0.127879
0.127108
0.126366
0.125688
0.125109
0.124658
0.124354
0.124205
0.124204
0.124333
0.124563
0.124858
0.125178
0.125482
0.125729
0.125883
0.125911
0.125785
0.125482
0.124986
0.124285
0.123375
0.122260
0.120951
0.119468
0.117845
0.116121
0.114352
0.112599
0.110929
0.109410
0.108100
0.107042
0.106256
0.105738
0.105466
0.105400
0.105495
0.105704
0.105982
0.106291
0.106598
0.106879
0.107117
0.107300
0.107424
0.107492
0.107510
0.107492
0.107455
0.107420
0.107412
0.107454
0.107570
0.107779
0.108093
0.108516
0.109045
0.109666
0.110357
0.111090
0.111834
0.112558
0.113228
0.113817
0.114297
0.114647
0.114850
0.114896
0.114777
0.114495
0.114054
0.113468
0.112759
0.111952
0.111084
0.110198
0.109338
0.108556
0.107896
0.107398
0.107090
0.106980
0.107062
0.107314
0.107700
0.108178
0.108703
0.109231
0.109723
0.110144
0.110468
0.110674
0.110750
0.110690
0.110497
0.110179
0.109754
0.109244
0.108679
0.108093
0.107523
0.107004
0.106572
0.106257
0.106080
0.106055
0.106187
0.106470
0.106890
0.107428
0.108059
0.108755
0.109489
0.110232
0.110960
0.111651
0.112289
0.112861
0.113362
0.113790
0.114152
0.114459
0.114729
0.114985
0.115256
0.115572
0.115967
0.116471
0.117112
0.117909
0.118870
0.119993
0.121265
0.122661
0.124150
0.125697
0.127266
0.128820
0.130327
0.131757
0.133085
0.134288
0.135350
0.136258
0.137001
0.137576
0.137981
0.138220
0.138302
0.138242
0.138062
0.137780
0.137432
0.137048
0.136667
0.136309
0.166141
0.165959
0.165597
0.165136
0.164598
0.163981
0.163272
0.162454
0.161513
0.160432
0.159201
0.157813
0.156264
0.154561
0.152716
0.150749
0.148691
0.146581
0.144464
0.142390
0.140413
0.138583
0.136944
0.135528
0.134356
0.133435
0.132756
0.132297
0.132027
0.131909
0.131899
0.131955
0.132036
0.132104
0.132125
0.132074
0.131927
0.131671
0.131298
0.130806
0.130202
0.129499
0.128718
0.127888
0.127044
0.126226
0.125477
0.124839
0.124348
0.124028
0.123890
0.123927
0.124115
0.124421
0.124802
0.125210
0.125601
0.125929
0.126156
0.126247
0.126172
0.125908
0.125437
0.124745
0.123827
0.122684
0.121326
0.119771
0.118050
0.116207
0.114300
0.112399
0.110585
0.108942
0.107544
0.106444
0.105663
0.105193
0.105000
0.105031
0.105228
0.105534
0.105899
0.106280
0.106644
0.106967
0.107230
0.107424
0.107545
0.107595
0.107584
0.107526
0.107440
0.107351
0.107287
0.107277
0.107350
0.107530
0.107833
0.108267
0.108826
0.109495
0.110249
0.111054
0.111875
0.112674
0.113415
0.114067
0.114600
0.114993
0.115226
0.115287
0.115169
0.114871
0.114398
0.113762
0.112983
0.112090
0.111121
0.110121
0.109146
0.108253
0.107503
0.106943
0.106609
0.106515
0.106649
0.106982
0.107468
0.108054
0.108686
0.109313
0.109890
0.110382
0.110759
0.111001
0.111094
0.111032
0.110817
0.110460
0.109978
0.109397
0.108749
0.108075
0.107415
0.106813
0.106310
0.105942
0.105733
0.105701
0.105847
0.106165
0.106636
0.107237
0.107936
0.108702
0.109502
0.110304
0.111082
0.111812
0.112474
0.113057
0.113553
0.113962
0.114289
0.114546
0.114753
0.114935
0.115123
0.115355
0.115670
0.116107
0.116699
0.117473
0.118440
0.119597
0.120927
0.122400
0.123979
0.125620
0.127283
0.128926
0.130514
0.132015
0.133403
0.134656
0.135757
0.136692
0.137450
0.138028
0.138423
0.138638
0.138683
0.138571
0.138326
0.137973
0.137550
0.137104
0.136685
0.136249
0.165937
0.165833
0.165581
0.165219
0.164765
0.164219
0.163571
0.162805
0.161906
0.160857
0.159643
0.158255
0.156687
0.154942
0.153031
0.150975
0.148805
0.146565
0.144307
0.142090
0.139978
0.138030
0.136300
0.134829
0.133641
0.132742
0.132118
0.131744
0.131579
0.131577
0.131688
0.131862
0.132053
0.132219
0.132322
0.132334
0.132232
0.132000
0.131630
0.131119
0.130473
0.129707
0.128842
0.127911
0.126952
0.126015
0.125153
0.124419
0.123863
0.123518
0.123399
0.123495
0.123779
0.124204
0.124716
0.125261
0.125782
0.126232
0.126567
0.126751
0.126752
0.126545
0.126111
0.125433
0.124505
0.123323
0.121894
0.120235
0.118372
0.116351
0.114234
0.112104
0.110063
0.108222
0.106682
0.105515
0.104750
0.104365
0.104303
0.104490
0.104847
0.105302
0.105797
0.106286
0.106733
0.107114
0.107414
0.107622
0.107737
0.107762
0.107707
0.107588
0.107428
0.107255
0.107105
0.107013
0.107017
0.107151
0.107436
0.107884
0.108490
0.109234
0.110085
0.111000
0.111936
0.112849
0.113696
0.114442
0.115054
0.115509
0.115786
0.115871
0.115755
0.115436
0.114917
0.114208
0.113329
0.112308
0.111185
0.110013
0.108859
0.107796
0.106900
0.106242
0.105869
0.105800
0.106019
0.106481
0.107124
0.107877
0.108672
0.109447
0.110152
0.110747
0.111202
0.111494
0.111611
0.111545
0.111298
0.110882
0.110315
0.109626
0.108853
0.108043
0.107246
0.106516
0.105905
0.105454
0.105198
0.105153
0.105323
0.105694
0.106245
0.106941
0.107744
0.108615
0.109514
0.110406
0.111258
0.112045
0.112746
0.113347
0.113839
0.114221
0.114499
0.114686
0.114800
0.114872
0.114938
0.115042
0.115234
0.115565
0.116082
0.116818
0.117793
0.119002
0.120422
0.122013
0.123727
0.125510
0.127311
0.129083
0.130788
0.132391
0.133866
0.135191
0.136347
0.137320
0.138102
0.138684
0.139066
0.139248
0.139238
0.139050
0.138707
0.138239
0.137696
0.137135
0.136624
0.136115
0.165923
0.165855
0.165673
0.165394
0.165024
0.164558
0.163985
0.163288
0.162448
0.161443
0.160256
0.158871
0.157280
0.155481
0.153482
0.151304
0.148980
0.146558
0.144100
0.141677
0.139369
0.137251
0.135392
0.133843
0.132634
0.131769
0.131230
0.130980
0.130967
0.131132
0.131414
0.131754
0.132096
0.132395
0.132610
0.132709
0.132668
0.132468
0.132101
0.131564
0.130863
0.130011
0.129031
0.127958
0.126837
0.125727
0.124697
0.123822
0.123167
0.122783
0.122691
0.122877
0.123300
0.123898
0.124599
0.125333
0.126035
0.126649
0.127130
0.127437
0.127539
0.127409
0.127025
0.126370
0.125431
0.124204
0.122688
0.120894
0.118846
0.116583
0.114173
0.111713
0.109334
0.107193
0.105440
0.104182
0.103453
0.103210
0.103357
0.103779
0.104367
0.105030
0.105702
0.106332
0.106887
0.107344
0.107689
0.107915
0.108020
0.108009
0.107893
0.107691
0.107427
0.107137
0.106863
0.106652
0.106555
0.106618
0.106875
0.107342
0.108014
0.108865
0.109853
0.110924
0.112020
0.113088
0.114079
0.114950
0.115667
0.116204
0.116538
0.116656
0.116545
0.116201
0.115625
0.114824
0.113815
0.112625
0.111295
0.109886
0.108477
0.107165
0.106057
0.105252
0.104822
0.104793
0.105141
0.105797
0.106668
0.107658
0.108676
0.109651
0.110524
0.111254
0.111808
0.112166
0.112312
0.112241
0.111952
0.111456
0.110775
0.109939
0.108994
0.107996
0.107008
0.106100
0.105335
0.104770
0.104448
0.104388
0.104592
0.105042
0.105704
0.106533
0.107481
0.108495
0.109531
0.110544
0.111498
0.112363
0.113118
0.113744
0.114234
0.114585
0.114801
0.114896
0.114890
0.114814
0.114712
0.114637
0.114654
0.114833
0.115237
0.115918
0.116903
0.118186
0.119734
0.121493
0.123395
0.125371
0.127357
0.129300
0.131156
0.132891
0.134476
0.135891
0.137117
0.138141
0.138952
0.139543
0.139910
0.140053
0.139975
0.139688
0.139212
0.138583
0.137858
0.137117
0.136454
0.135853
0.166035
0.165989
0.165864
0.165660
0.165377
0.165003
0.164523
0.163913
0.163150
0.162208
0.161061
0.159689
0.158075
0.156212
0.154104
0.151768
0.149241
0.146575
0.143844
0.141138
0.138558
0.136203
0.134166
0.132511
0.131278
0.130467
0.130052
0.129978
0.130177
0.130571
0.131082
0.131641
0.132183
0.132656
0.133014
0.133224
0.133260
0.133102
0.132741
0.132173
0.131402
0.130441
0.129312
0.128050
0.126707
0.125356
0.124086
0.123000
0.122198
0.121755
0.121702
0.122021
0.122646
0.123488
0.124448
0.125436
0.126374
0.127200
0.127864
0.128327
0.128556
0.128525
0.128208
0.127586
0.126643
0.125367
0.123753
0.121800
0.119523
0.116952
0.114149
0.111227
0.108356
0.105766
0.103693
0.102312
0.101666
0.101663
0.102135
0.102901
0.103810
0.104750
0.105647
0.106453
0.107139
0.107686
0.108084
0.108328
0.108418
0.108361
0.108166
0.107854
0.107454
0.107004
0.106557
0.106177
0.105933
0.105890
0.106102
0.106592
0.107356
0.108358
0.109536
0.110819
0.112131
0.113403
0.114579
0.115609
0.116459
0.117099
0.117507
0.117667
0.117567
0.117198
0.116557
0.115647
0.114479
0.113078
0.111481
0.109755
0.107994
0.106327
0.104906
0.103882
0.103369
0.103407
0.103952
0.104894
0.106091
0.107406
0.108723
0.109954
0.111038
0.111934
0.112610
0.113048
0.113232
0.113153
0.112812
0.112217
0.111387
0.110360
0.109187
0.107937
0.106691
0.105537
0.104563
0.103843
0.103432
0.103357
0.103614
0.104176
0.104993
0.106005
0.107146
0.108352
0.109566
0.110737
0.111822
0.112790
0.113614
0.114276
0.114766
0.115081
0.115224
0.115206
0.115048
0.114783
0.114458
0.114139
0.113912
0.113871
0.114111
0.114710
0.115706
0.117095
0.118827
0.120820
0.122979
0.125211
0.127437
0.129594
0.131637
0.133530
0.135249
0.136772
0.138084
0.139170
0.140020
0.140624
0.140977
0.141076
0.140920
0.140514
0.139870
0.139023
0.138036
0.137019
0.136117
0.135372
0.166230
0.166204
0.166131
0.166007
0.165820
0.165555
0.165187
0.164690
0.164030
0.163174
0.162088
0.160742
0.159110
0.157178
0.154941
0.152412
0.149625
0.146641
0.143548
0.140458
0.137506
0.134827
0.132544
0.130750
0.129490
0.128764
0.128527
0.128702
0.129190
0.129889
0.130703
0.131544
0.132339
0.133029
0.133566
0.133914
0.134044
0.133939
0.133587
0.132983
0.132130
0.131036
0.129721
0.128219
0.126583
0.124899
0.123286
0.121891
0.120867
0.120333
0.120340
0.120855
0.121774
0.122958
0.124268
0.125587
0.126824
0.127910
0.128798
0.129449
0.129833
0.129922
0.129692
0.129118
0.128181
0.126862
0.125146
0.123021
0.120481
0.117536
0.114229
0.110671
0.107081
0.103803
0.101240
0.099697
0.099227
0.099635
0.100613
0.101877
0.103219
0.104511
0.105681
0.106693
0.107528
0.108176
0.108632
0.108894
0.108965
0.108849
0.108557
0.108107
0.107529
0.106867
0.106184
0.105565
0.105107
0.104908
0.105047
0.105567
0.106459
0.107670
0.109112
0.110681
0.112277
0.113813
0.115220
0.116448
0.117458
0.118224
0.118723
0.118938
0.118855
0.118463
0.117753
0.116723
0.115374
0.113720
0.111792
0.109653
0.107411
0.105235
0.103351
0.101997
0.101361
0.101509
0.102362
0.103731
0.105394
0.107150
0.108851
0.110401
0.111739
0.112830
0.113650
0.114182
0.114411
0.114327
0.113925
0.113208
0.112196
0.110925
0.109455
0.107872
0.106278
0.104793
0.103535
0.102605
0.102080
0.101990
0.102328
0.103050
0.104083
0.105342
0.106741
0.108197
0.109639
0.111010
0.112261
0.113356
0.114268
0.114977
0.115472
0.115748
0.115807
0.115656
0.115313
0.114810
0.114197
0.113550
0.112981
0.112624
0.112623
0.113097
0.114109
0.115651
0.117646
0.119968
0.122476
0.125044
0.127572
0.129991
0.132255
0.134335
0.136208
0.137858
0.139270
0.140430
0.141327
0.141952
0.142296
0.142352
0.142115
0.141575
0.140731
0.139600
0.138244
0.136806
0.135513
0.134529
0.166471
0.166466
0.166451
0.166414
0.166341
0.166207
0.165981
0.165627
0.165103
0.164365
0.163368
0.162072
0.160438
0.158438
0.156056
0.153297
0.150189
0.146798
0.143226
0.139621
0.136161
0.133036
0.130419
0.128440
0.127158
0.126564
0.126586
0.127107
0.127988
0.129092
0.130295
0.131492
0.132600
0.133555
0.134307
0.134819
0.135063
0.135022
0.134682
0.134040
0.133094
0.131849
0.130315
0.128516
0.126501
0.124364
0.122260
0.120404
0.119039
0.118365
0.118466
0.119281
0.120632
0.122297
0.124077
0.125819
0.127421
0.128817
0.129966
0.130836
0.131401
0.131636
0.131514
0.131008
0.130092
0.128743
0.126935
0.124641
0.121828
0.118462
0.114535
0.110117
0.105464
0.101095
0.097739
0.095985
0.095895
0.097027
0.098800
0.100770
0.102674
0.104391
0.105873
0.107110
0.108103
0.108857
0.109372
0.109651
0.109697
0.109512
0.109105
0.108488
0.107687
0.106749
0.105747
0.104791
0.104020
0.103584
0.103610
0.104164
0.105238
0.106747
0.108556
0.110513
0.112479
0.114346
0.116037
0.117500
0.118699
0.119612
0.120219
0.120503
0.120450
0.120042
0.119267
0.118112
0.116567
0.114629
0.112307
0.109644
0.106750
0.103840
0.101251
0.099381
0.098559
0.098897
0.100246
0.102268
0.104596
0.106942
0.109127
0.111055
0.112684
0.113994
0.114975
0.115615
0.115901
0.115817
0.115349
0.114492
0.113259
0.111684
0.109834
0.107812
0.105753
0.103817
0.102172
0.100961
0.100286
0.100190
0.100654
0.101607
0.102940
0.104534
0.106271
0.108048
0.109779
0.111397
0.112851
0.114102
0.115121
0.115889
0.116395
0.116631
0.116597
0.116297
0.115740
0.114948
0.113968
0.112884
0.111836
0.111019
0.110654
0.110936
0.111969
0.113741
0.116124
0.118914
0.121898
0.124900
0.127800
0.130528
0.133045
0.135333
0.137379
0.139172
0.140698
0.141946
0.142901
0.143554
0.143896
0.143919
0.143607
0.142938
0.141877
0.140398
0.138533
0.136443
0.134493
0.133080
0.166720
0.166740
0.166790
0.166859
0.166923
0.166950
0.166902
0.166732
0.166386
0.165809
0.164943
0.163731
0.162120
0.160065
0.157532
0.154509
0.151014
0.147108
0.142911
0.138611
0.134452
0.130708
0.127634
0.125411
0.124120
0.123735
0.124136
0.125145
0.126560
0.128193
0.129889
0.131526
0.133013
0.134283
0.135287
0.135990
0.136366
0.136399
0.136077
0.135396
0.134353
0.132944
0.131166
0.129020
0.126531
0.123786
0.120973
0.118412
0.116507
0.115610
0.115870
0.117164
0.119167
0.121516
0.123917
0.126186
0.128219
0.129968
0.131408
0.132523
0.133294
0.133700
0.133711
0.133297
0.132427
0.131070
0.129196
0.126761
0.123702
0.119920
0.115292
0.109754
0.103507
0.097316
0.092585
0.090564
0.091316
0.093759
0.096779
0.099719
0.102312
0.104500
0.106305
0.107767
0.108917
0.109774
0.110348
0.110642
0.110659
0.110398
0.109861
0.109051
0.107982
0.106693
0.105262
0.103828
0.102594
0.101795
0.101638
0.102236
0.103575
0.105517
0.107845
0.110328
0.112774
0.115050
0.117077
0.118809
0.120223
0.121302
0.122034
0.122403
0.122392
0.121983
0.121153
0.119882
0.118146
0.115912
0.113149
0.109849
0.106085
0.102103
0.098406
0.095695
0.094575
0.095257
0.097442
0.100485
0.103767
0.106887
0.109651
0.112002
0.113940
0.115481
0.116635
0.117399
0.117758
0.117686
0.117156
0.116148
0.114657
0.112712
0.110380
0.107782
0.105096
0.102544
0.100365
0.098771
0.097906
0.097823
0.098484
0.099773
0.101528
0.103575
0.105754
0.107936
0.110023
0.111941
0.113637
0.115072
0.116220
0.117060
0.117583
0.117781
0.117652
0.117193
0.116400
0.115275
0.113842
0.112179
0.110456
0.108954
0.108030
0.108010
0.109073
0.111200
0.114172
0.117644
0.121280
0.124837
0.128182
0.131257
0.134049
0.136559
0.138790
0.140739
0.142395
0.143744
0.144769
0.145461
0.145811
0.145813
0.145452
0.144687
0.143434
0.141577
0.139037
0.135934
0.132818
0.130592
0.166934
0.166982
0.167113
0.167308
0.167539
0.167768
0.167944
0.168008
0.167896
0.167536
0.166855
0.165777
0.164232
0.162150
0.159476
0.156167
0.152217
0.147672
0.142660
0.137417
0.132286
0.127672
0.123960
0.121417
0.120150
0.120098
0.121065
0.122766
0.124904
0.127225
0.129537
0.131705
0.133638
0.135273
0.136566
0.137485
0.138009
0.138126
0.137826
0.137109
0.135971
0.134401
0.132375
0.129854
0.126804
0.123257
0.119412
0.115738
0.112941
0.111677
0.112222
0.114322
0.117345
0.120670
0.123883
0.126780
0.129294
0.131420
0.133168
0.134546
0.135547
0.136150
0.136323
0.136030
0.135232
0.133897
0.131994
0.129479
0.126267
0.122180
0.116899
0.110016
0.101388
0.091954
0.084609
0.082276
0.085001
0.089883
0.094817
0.099003
0.102347
0.104986
0.107077
0.108733
0.110021
0.110972
0.111600
0.111908
0.111896
0.111559
0.110888
0.109870
0.108494
0.106773
0.104773
0.102660
0.100726
0.099356
0.098902
0.099555
0.101296
0.103890
0.106968
0.110168
0.113228
0.115995
0.118403
0.120430
0.122073
0.123333
0.124204
0.124674
0.124726
0.124333
0.123470
0.122107
0.120207
0.117706
0.114507
0.110491
0.105602
0.100039
0.094525
0.090365
0.088753
0.090080
0.093752
0.098440
0.103083
0.107171
0.110578
0.113353
0.115585
0.117348
0.118679
0.119582
0.120037
0.120005
0.119434
0.118275
0.116500
0.114115
0.111178
0.107827
0.104290
0.100882
0.097959
0.095839
0.094731
0.094699
0.095671
0.097460
0.099811
0.102469
0.105220
0.107908
0.110424
0.112696
0.114675
0.116324
0.117618
0.118543
0.119090
0.119255
0.119036
0.118422
0.117390
0.115907
0.113943
0.111532
0.108849
0.106301
0.104488
0.103978
0.105085
0.107783
0.111689
0.116180
0.120711
0.124961
0.128809
0.132248
0.135314
0.138046
0.140468
0.142585
0.144387
0.145852
0.146961
0.147699
0.148064
0.148062
0.147693
0.146913
0.145583
0.143427
0.140085
0.135411
0.130119
0.126233
0.167059
0.167142
0.167370
0.167720
0.168159
0.168637
0.169094
0.169458
0.169648
0.169577
0.169151
0.168277
0.166860
0.164805
0.162023
0.158430
0.153971
0.148650
0.142581
0.136048
0.129536
0.123672
0.119059
0.116097
0.114921
0.115410
0.117238
0.119934
0.123052
0.126255
0.129319
0.132113
0.134557
0.136601
0.138212
0.139368
0.140054
0.140261
0.139985
0.139233
0.138009
0.136301
0.134065
0.131197
0.127547
0.122991
0.117640
0.112139
0.107789
0.105897
0.106985
0.110527
0.115198
0.119917
0.124147
0.127745
0.130747
0.133238
0.135289
0.136936
0.138185
0.139015
0.139386
0.139248
0.138553
0.137268
0.135374
0.132857
0.129662
0.125572
0.120014
0.111873
0.099827
0.084206
0.071334
0.068730
0.076424
0.085894
0.093567
0.099106
0.103071
0.106010
0.108276
0.110062
0.111456
0.112490
0.113169
0.113492
0.113455
0.113052
0.112258
0.111040
0.109346
0.107125
0.104385
0.101296
0.098280
0.095987
0.095039
0.095768
0.098144
0.101758
0.105949
0.110133
0.113959
0.117287
0.120098
0.122422
0.124296
0.125742
0.126764
0.127355
0.127492
0.127141
0.126269
0.124852
0.122848
0.120173
0.116647
0.111961
0.105730
0.097836
0.089189
0.082380
0.079913
0.082485
0.088988
0.096398
0.102924
0.108111
0.112116
0.115229
0.117687
0.119635
0.121138
0.122202
0.122793
0.122849
0.122283
0.121002
0.118936
0.116050
0.112371
0.108036
0.103333
0.098712
0.094724
0.091869
0.090457
0.090550
0.092021
0.094563
0.097769
0.101253
0.104733
0.108034
0.111054
0.113732
0.116030
0.117918
0.119377
0.120396
0.120971
0.121108
0.120808
0.120062
0.118829
0.117012
0.114482
0.111140
0.107092
0.102892
0.099613
0.098292
0.099462
0.103109
0.108572
0.114631
0.120382
0.125452
0.129815
0.133585
0.136889
0.139821
0.142431
0.144729
0.146696
0.148301
0.149508
0.150297
0.150672
0.150667
0.150332
0.149673
0.148535
0.146430
0.142418
0.135424
0.125811
0.118294
0.167032
0.167158
0.167503
0.168044
0.168737
0.169524
0.170332
0.171076
0.171654
0.171960
0.171881
0.171300
0.170098
0.168155
0.165337
0.161506
0.156523
0.150299
0.142874
0.134557
0.126031
0.118318
0.112409
0.108904
0.107955
0.109339
0.112504
0.116650
0.121095
0.125404
0.129358
0.132859
0.135864
0.138351
0.140305
0.141713
0.142568
0.142865
0.142608
0.141816
0.140514
0.138712
0.136362
0.133294
0.129154
0.123458
0.115929
0.107285
0.100064
0.097051
0.099222
0.105544
0.112961
0.119621
0.125019
0.129284
0.132693
0.135481
0.137797
0.139708
0.141226
0.142320
0.142935
0.142996
0.142435
0.141214
0.139338
0.136868
0.133892
0.130348
0.125563
0.117348
0.101168
0.072791
0.046933
0.044381
0.065837
0.083583
0.094386
0.100748
0.104800
0.107691
0.109945
0.111775
0.113244
0.114355
0.115088
0.115429
0.115375
0.114925
0.114042
0.112676
0.110713
0.107980
0.104328
0.099834
0.095079
0.091245
0.089471
0.090301
0.093718
0.099017
0.104908
0.110427
0.115164
0.119073
0.122259
0.124847
0.126930
0.128556
0.129740
0.130470
0.130723
0.130441
0.129587
0.128152
0.126125
0.123445
0.119890
0.114894
0.107399
0.096207
0.081812
0.069859
0.065880
0.070815
0.083214
0.095162
0.104045
0.110190
0.114513
0.117733
0.120274
0.122344
0.124014
0.125272
0.126058
0.126284
0.125807
0.124470
0.122147
0.118731
0.114175
0.108572
0.102259
0.095886
0.090343
0.086442
0.084660
0.085004
0.087276
0.090981
0.095423
0.100015
0.104401
0.108417
0.112001
0.115126
0.117772
0.119921
0.121557
0.122674
0.123277
0.123382
0.123012
0.122178
0.120833
0.118808
0.115809
0.111424
0.105443
0.098523
0.092736
0.090056
0.091293
0.096541
0.104786
0.113324
0.120676
0.126600
0.131374
0.135352
0.138803
0.141888
0.144677
0.147175
0.149343
0.151122
0.152450
0.153287
0.153638
0.153580
0.153267
0.152876
0.152400
0.151258
0.147592
0.137767
0.118985
0.102996
0.166775
0.166953
0.167443
0.168214
0.169218
0.170385
0.171631
0.172849
0.173920
0.174713
0.175090
0.174913
0.174043
0.172331
0.169606
0.165657
0.160222
0.153027
0.143913
0.133099
0.121529
0.110977
0.103187
0.099004
0.098530
0.101415
0.106726
0.113020
0.119235
0.124882
0.129828
0.134081
0.137671
0.140617
0.142927
0.144597
0.145623
0.146004
0.145747
0.144889
0.143496
0.141643
0.139347
0.136418
0.132247
0.125639
0.115132
0.100746
0.087859
0.082817
0.087132
0.099347
0.111399
0.120529
0.126982
0.131646
0.135233
0.138174
0.140686
0.142851
0.144667
0.146079
0.147005
0.147326
0.146935
0.145769
0.143844
0.141332
0.138622
0.136253
0.134299
0.130179
0.112579
0.055588
-0.003393
-0.005687
0.058366
0.087909
0.099496
0.104623
0.107646
0.109975
0.112011
0.113822
0.115367
0.116573
0.117376
0.117739
0.117666
0.117190
0.116264
0.114861
0.112800
0.109705
0.105076
0.098618
0.090981
0.084458
0.081301
0.082242
0.087388
0.095647
0.104191
0.111451
0.117143
0.121532
0.124971
0.127731
0.129972
0.131766
0.133121
0.134012
0.134410
0.134218
0.133384
0.131937
0.129940
0.127457
0.124399
0.120084
0.112442
0.097344
0.071743
0.049341
0.042792
0.051487
0.077707
0.096811
0.107758
0.113978
0.117924
0.120838
0.123260
0.125383
0.127230
0.128740
0.129804
0.130301
0.130030
0.128758
0.126288
0.122398
0.116896
0.109735
0.101227
0.092292
0.084452
0.079065
0.076807
0.077589
0.081142
0.086678
0.092923
0.098960
0.104404
0.109191
0.113360
0.116948
0.119959
0.122382
0.124201
0.125413
0.126029
0.126083
0.125634
0.124754
0.123426
0.121488
0.118421
0.113212
0.104670
0.093013
0.082751
0.077899
0.079083
0.086905
0.100606
0.113092
0.122297
0.128811
0.133654
0.137579
0.141022
0.144191
0.147155
0.149889
0.152317
0.154331
0.155820
0.156700
0.156954
0.156694
0.156220
0.156060
0.156765
0.158299
0.158356
0.147802
0.108132
0.071580
0.166195
0.166435
0.167099
0.168151
0.169533
0.171165
0.172946
0.174755
0.176445
0.177856
0.178821
0.179179
0.178776
0.177453
0.175015
0.171183
0.165536
0.157484
0.146400
0.132080
0.115659
0.100536
0.090051
0.085120
0.085548
0.090918
0.099854
0.109388
0.117886
0.125014
0.130954
0.135934
0.140092
0.143495
0.146164
0.148101
0.149299
0.149752
0.149456
0.148465
0.146906
0.144985
0.142921
0.140717
0.137658
0.131480
0.117656
0.091951
0.067070
0.058705
0.066665
0.093037
0.112591
0.124008
0.130668
0.135039
0.138383
0.141262
0.143891
0.146310
0.148474
0.150287
0.151627
0.152306
0.152145
0.151011
0.148866
0.145923
0.142938
0.141613
0.144705
0.154204
0.157679
0.029474
-0.113875
-0.129396
0.081367
0.108316
0.110283
0.110222
0.110963
0.112391
0.114159
0.115994
0.117681
0.119042
0.119946
0.120328
0.120198
0.119605
0.118662
0.117384
0.115566
0.112602
0.107383
0.098601
0.086289
0.075044
0.069521
0.070428
0.078240
0.092044
0.104640
0.113852
0.120215
0.124734
0.128161
0.130934
0.133262
0.135207
0.136751
0.137823
0.138339
0.138207
0.137369
0.135852
0.133811
0.131567
0.129520
0.127599
0.123389
0.106925
0.058166
0.014422
0.005122
0.014561
0.078628
0.105855
0.115643
0.119653
0.122080
0.124199
0.126329
0.128480
0.130555
0.132404
0.133849
0.134704
0.134755
0.133722
0.131317
0.127170
0.120847
0.111981
0.100626
0.087935
0.076725
0.069335
0.066395
0.067823
0.073340
0.081847
0.090697
0.098484
0.104998
0.110482
0.115178
0.119203
0.122577
0.125278
0.127281
0.128576
0.129174
0.129124
0.128533
0.127567
0.126373
0.124978
0.122777
0.117898
0.106692
0.086322
0.067842
0.060091
0.060554
0.071478
0.097468
0.115861
0.126346
0.132479
0.136678
0.140140
0.143377
0.146566
0.149721
0.152760
0.155542
0.157893
0.159623
0.160565
0.160623
0.159875
0.158739
0.158209
0.159964
0.165880
0.176898
0.182118
0.089374
0.004382
0.165178
0.165493
0.166366
0.167755
0.169593
0.171789
0.174226
0.176760
0.179222
0.181407
0.183111
0.184146
0.184355
0.183595
0.181695
0.178364
0.173033
0.164660
0.151669
0.132507
0.107756
0.084791
0.070773
0.065368
0.067298
0.076568
0.092186
0.106658
0.117809
0.126261
0.132984
0.138558
0.143226
0.147065
0.150093
0.152304
0.153681
0.154200
0.153811
0.152562
0.150635
0.148429
0.146583
0.145776
0.145960
0.144397
0.130260
0.079894
0.027974
0.017043
0.026193
0.092780
0.121477
0.132013
0.136516
0.139372
0.141930
0.144542
0.147244
0.149961
0.152563
0.154891
0.156778
0.157970
0.158154
0.157080
0.154510
0.150416
0.145519
0.142472
0.147887
0.174840
0.255724
0.188839
0.000000
-0.375605
0.237457
0.147731
0.121205
0.114175
0.113104
0.114096
0.115893
0.117954
0.119932
0.121552
0.122610
0.123001
0.122739
0.121975
0.120995
0.119991
0.118901
0.117025
0.112449
0.101554
0.080925
0.061410
0.052826
0.053119
0.063966
0.089709
0.108060
0.118549
0.124582
0.128516
0.131526
0.134116
0.136458
0.138558
0.140332
0.141645
0.142336
0.142295
0.141431
0.139722
0.137358
0.134941
0.133749
0.135775
0.142213
0.141797
0.035191
-0.050863
-0.048242
-0.080734
0.110496
0.129053
0.127622
0.125952
0.125911
0.127057
0.128923
0.131189
0.133599
0.135907
0.137850
0.139133
0.139580
0.138992
0.136966
0.132981
0.126284
0.115900
0.101024
0.082511
0.066199
0.056445
0.052818
0.054996
0.063296
0.077050
0.089623
0.099206
0.106465
0.112349
0.117409
0.121813
0.125536
0.128515
0.130700
0.132063
0.132601
0.132361
0.131481
0.130227
0.129127
0.128711
0.128891
0.127487
0.116047
0.077529
0.043533
0.035246
0.032614
0.041031
0.101106
0.125618
0.134072
0.137616
0.140107
0.142665
0.145545
0.148741
0.152149
0.155602
0.158883
0.161728
0.163849
0.164947
0.164759
0.163173
0.160468
0.158030
0.158913
0.167528
0.192504
0.258603
0.185781
0.000000
0.163587
0.163992
0.165115
0.166906
0.169287
0.172158
0.175391
0.178820
0.182231
0.185383
0.187999
0.189854
0.190797
0.190746
0.189639
0.187318
0.183237
0.175933
0.162253
0.136960