# vtk DataFile Version 3.0
Vector Field
ASCII
DATASET RECTILINEAR_GRID
DIMENSIONS 200 75 1
X_COORDINATES 200 double
0.050000 0.150000 0.250000 0.350000 0.450000 0.550000 0.650000 0.750000 0.850000 0.950000 1.050000 1.150000 1.250000 1.350000 1.450000 1.550000 1.650000 1.750000 1.850000 1.950000 2.050000 2.150000 2.250000 2.350000 2.450000 2.550000 2.650000 2.750000 2.850000 2.950000 3.050000 3.150000 3.250000 3.350000 3.450000 3.550000 3.650000 3.750000 3.850000 3.950000 4.050000 4.150000 4.250000 4.350000 4.450000 4.550000 4.650000 4.750000 4.850000 4.950000 5.050000 5.150000 5.250000 5.350000 5.450000 5.550000 5.650000 5.750000 5.850000 5.950000 6.050000 6.150000 6.250000 6.350000 6.450000 6.550000 6.650000 6.750000 6.850000 6.950000 7.050000 7.150000 7.250000 7.350000 7.450000 7.550000 7.650000 7.750000 7.850000 7.950000 8.050000 8.150000 8.250000 8.350000 8.450000 8.550000 8.650000 8.750000 8.850000 8.950000 9.050000 9.150000 9.250000 9.350000 9.450000 9.550000 9.650000 9.750000 9.850000 9.950000 10.050000 10.150000 10.250000 10.350000 10.450000 10.550000 10.650000 10.750000 10.850000 10.950000 11.050000 11.150000 11.250000 11.350000 11.450000 11.550000 11.650000 11.750000 11.850000 11.950000 12.050000 12.150000 12.250000 12.350000 12.450000 12.550000 12.650000 12.750000 12.850000 12.950000 13.050000 13.150000 13.250000 13.350000 13.450000 13.550000 13.650000 13.750000 13.850000 13.950000 14.050000 14.150000 14.250000 14.350000 14.450000 14.550000 14.650000 14.750000 14.850000 14.950000 15.050000 15.150000 15.250000 15.350000 15.450000 15.550000 15.650000 15.750000 15.850000 15.950000 16.050000 16.150000 16.250000 16.350000 16.450000 16.550000 16.650000 16.750000 16.850000 16.950000 17.050000 17.150000 17.250000 17.350000 17.450000 17.550000 17.650000 17.750000 17.850000 17.950000 18.050000 18.150000 18.250000 18.350000 18.450000 18.550000 18.650000 18.750000 18.850000 18.950000 19.050000 19.150000 19.250000 19.350000 19.450000 19.550000 19.650000 19.750000 19.850000 19.950000 
Y_COORDINATES 75 double
0.050000 0.150000 0.250000 0.350000 0.450000 0.550000 0.650000 0.750000 0.850000 0.950000 1.050000 1.150000 1.250000 1.350000 1.450000 1.550000 1.650000 1.750000 1.850000 1.950000 2.050000 2.150000 2.250000 2.350000 2.450000 2.550000 2.650000 2.750000 2.850000 2.950000 3.050000 3.150000 3.250000 3.350000 3.450000 3.550000 3.650000 3.750000 3.850000 3.950000 4.050000 4.150000 4.250000 4.350000 4.450000 4.550000 4.650000 4.750000 4.850000 4.950000 5.050000 5.150000 5.250000 5.350000 5.450000 5.550000 5.650000 5.750000 5.850000 5.950000 6.050000 6.150000 6.250000 6.350000 6.450000 6.550000 6.650000 6.750000 6.850000 6.950000 7.050000 7.150000 7.250000 7.350000 7.450000 
Z_COORDINATES 1 double
0.0
POINT_DATA 15000
VECTORS Vektorfeld double
0.999657 0.000343 0.0
0.998741 0.000573 0.0
0.997518 0.000650 0.0
0.996202 0.000665 0.0
0.994887 0.000650 0.0
0.993623 0.000615 0.0
0.992439 0.000568 0.0
0.991361 0.000511 0.0
0.990404 0.000446 0.0
0.989581 0.000377 0.0
0.988900 0.000305 0.0
0.988360 0.000235 0.0
0.987956 0.000170 0.0
0.987673 0.000113 0.0
0.987493 0.000067 0.0
0.987391 0.000035 0.0
0.987343 0.000014 0.0
0.987325 0.000004 0.0
0.987319 0.000002 0.0
0.987309 0.000008 0.0
0.987278 0.000023 0.0
0.987207 0.000048 0.0
0.987074 0.000085 0.0
0.986853 0.000135 0.0
0.986521 0.000197 0.0
0.986056 0.000267 0.0
0.985449 0.000340 0.0
0.984698 0.000411 0.0
0.983812 0.000474 0.0
0.982814 0.000525 0.0
0.981728 0.000560 0.0
0.980589 0.000579 0.0
0.979428 0.000581 0.0
0.978281 0.000567 0.0
0.977177 0.000537 0.0
0.976144 0.000496 0.0
0.975204 0.000444 0.0
0.974374 0.000386 0.0
0.973665 0.000324 0.0
0.973080 0.000262 0.0
0.972614 0.000204 0.0
0.972257 0.000153 0.0
0.971991 0.000114 0.0
0.971788 0.000089 0.0
0.971620 0.000080 0.0
0.971451 0.000089 0.0
0.971248 0.000114 0.0
0.970979 0.000155 0.0
0.970619 0.000205 0.0
0.970153 0.000261 0.0
0.969575 0.000317 0.0
0.968892 0.000366 0.0
0.968124 0.000403 0.0
0.967296 0.000425 0.0
0.966443 0.000429 0.0
0.965601 0.000413 0.0
0.964808 0.000379 0.0
0.964102 0.000327 0.0
0.963516 0.000259 0.0
0.963081 0.000176 0.0
0.962824 0.000081 0.0
0.962767 -0.000024 0.0
0.962927 -0.000136 0.0
0.963313 -0.000250 0.0
0.963924 -0.000362 0.0
0.964752 -0.000466 0.0
0.965776 -0.000558 0.0
0.966967 -0.000632 0.0
0.968281 -0.000682 0.0
0.969665 -0.000702 0.0
0.971057 -0.000689 0.0
0.972385 -0.000640 0.0
0.973581 -0.000556 0.0
0.974577 -0.000441 0.0
0.975322 -0.000304 0.0
0.975783 -0.000156 0.0
0.975947 -0.000008 0.0
0.975827 0.000128 0.0
0.975451 0.000248 0.0
0.974855 0.000348 0.0
0.974083 0.000424 0.0
0.973180 0.000479 0.0
0.972187 0.000514 0.0
0.971143 0.000531 0.0
0.970079 0.000533 0.0
0.969022 0.000524 0.0
0.967994 0.000505 0.0
0.967008 0.000481 0.0
0.966074 0.000453 0.0
0.965196 0.000424 0.0
0.964375 0.000397 0.0
0.963604 0.000374 0.0
0.962872 0.000357 0.0
0.962167 0.000348 0.0
0.961470 0.000348 0.0
0.960764 0.000357 0.0
0.960033 0.000374 0.0
0.959261 0.000397 0.0
0.958442 0.000423 0.0
0.957572 0.000447 0.0
0.956660 0.000466 0.0
0.955718 0.000476 0.0
0.954767 0.000474 0.0
0.953834 0.000459 0.0
0.952947 0.000428 0.0
0.952137 0.000382 0.0
0.951433 0.000322 0.0
0.950862 0.000249 0.0
0.950448 0.000165 0.0
0.950212 0.000072 0.0
0.950169 -0.000029 0.0
0.950332 -0.000134 0.0
0.950705 -0.000239 0.0
0.951283 -0.000339 0.0
0.952054 -0.000432 0.0
0.952998 -0.000512 0.0
0.954085 -0.000576 0.0
0.955279 -0.000618 0.0
0.956532 -0.000635 0.0
0.957791 -0.000624 0.0
0.958999 -0.000583 0.0
0.960096 -0.000514 0.0
0.961030 -0.000420 0.0
0.961757 -0.000307 0.0
0.962249 -0.000185 0.0
0.962497 -0.000062 0.0
0.962509 0.000050 0.0
0.962312 0.000147 0.0
0.961942 0.000223 0.0
0.961444 0.000275 0.0
0.960864 0.000304 0.0
0.960250 0.000310 0.0
0.959645 0.000295 0.0
0.959086 0.000263 0.0
0.958607 0.000216 0.0
0.958232 0.000159 0.0
0.957978 0.000095 0.0
0.957853 0.000029 0.0
0.957861 -0.000037 0.0
0.957994 -0.000097 0.0
0.958237 -0.000146 0.0
0.958565 -0.000182 0.0
0.958948 -0.000200 0.0
0.959348 -0.000200 0.0
0.959727 -0.000179 0.0
0.960045 -0.000139 0.0
0.960266 -0.000082 0.0
0.960358 -0.000011 0.0
0.960301 0.000068 0.0
0.960082 0.000151 0.0
0.959697 0.000234 0.0
0.959153 0.000310 0.0
0.958466 0.000378 0.0
0.957656 0.000432 0.0
0.956752 0.000472 0.0
0.955786 0.000495 0.0
0.954788 0.000502 0.0
0.953792 0.000494 0.0
0.952826 0.000472 0.0
0.951916 0.000438 0.0
0.951085 0.000394 0.0
0.950348 0.000343 0.0
0.949715 0.000289 0.0
0.949190 0.000236 0.0
0.948768 0.000186 0.0
0.948438 0.000144 0.0
0.948179 0.000114 0.0
0.947965 0.000099 0.0
0.947763 0.000102 0.0
0.947537 0.000124 0.0
0.947250 0.000164 0.0
0.946865 0.000221 0.0
0.946352 0.000291 0.0
0.945692 0.000369 0.0
0.944877 0.000447 0.0
0.943909 0.000521 0.0
0.942805 0.000583 0.0
0.941594 0.000629 0.0
0.940309 0.000656 0.0
0.938991 0.000662 0.0
0.937681 0.000648 0.0
0.936419 0.000614 0.0
0.935243 0.000562 0.0
0.934185 0.000495 0.0
0.933275 0.000415 0.0
0.932535 0.000325 0.0
0.931984 0.000227 0.0
0.931631 0.000125 0.0
0.931485 0.000021 0.0
0.931545 -0.000082 0.0
0.931807 -0.000180 0.0
0.932255 -0.000268 0.0
0.932865 -0.000342 0.0
0.933608 -0.000400 0.0
0.934446 -0.000438 0.0
0.935340 -0.000456 0.0
0.936255 -0.000459 0.0
0.937172 -0.000459 0.0
0.938137 -0.000506 0.0
0.939199 -0.000556 0.0
1.000201 0.000484 0.0
1.000671 0.000879 0.0
1.001218 0.001022 0.0
1.001789 0.001039 0.0
1.002396 0.000983 0.0
1.003063 0.000879 0.0
1.003813 0.000737 0.0
1.004666 0.000567 0.0
1.005638 0.000375 0.0
1.006741 0.000167 0.0
1.007984 -0.000046 0.0
1.009366 -0.000256 0.0
1.010881 -0.000451 0.0
1.012513 -0.000618 0.0
1.014237 -0.000746 0.0
1.016014 -0.000827 0.0
1.017795 -0.000857 0.0
1.019523 -0.000835 0.0
1.021135 -0.000765 0.0
1.022571 -0.000651 0.0
1.023780 -0.000497 0.0
1.024725 -0.000307 0.0
1.025384 -0.000086 0.0
1.025751 0.000160 0.0
1.025832 0.000424 0.0
1.025645 0.000692 0.0
1.025214 0.000953 0.0
1.024571 0.001193 0.0
1.023749 0.001399 0.0
1.022786 0.001562 0.0
1.021719 0.001675 0.0
1.020588 0.001736 0.0
1.019429 0.001744 0.0
1.018278 0.001702 0.0
1.017167 0.001616 0.0
1.016125 0.001492 0.0
1.015174 0.001338 0.0
1.014332 0.001163 0.0
1.013612 0.000976 0.0
1.013017 0.000790 0.0
1.012544 0.000614 0.0
1.012184 0.000460 0.0
1.011919 0.000340 0.0
1.011721 0.000262 0.0
1.011561 0.000235 0.0
1.011401 0.000262 0.0
1.011205 0.000340 0.0
1.010938 0.000464 0.0
1.010572 0.000621 0.0
1.010090 0.000794 0.0
1.009487 0.000965 0.0
1.008770 0.001116 0.0
1.007961 0.001231 0.0
1.007088 0.001297 0.0
1.006189 0.001309 0.0
1.005301 0.001262 0.0
1.004466 0.001158 0.0
1.003720 0.001000 0.0
1.003099 0.000793 0.0
1.002633 0.000542 0.0
1.002349 0.000257 0.0
1.002263 -0.000057 0.0
1.002389 -0.000389 0.0
1.002734 -0.000727 0.0
1.003299 -0.001060 0.0
1.004078 -0.001374 0.0
1.005054 -0.001651 0.0
1.006201 -0.001877 0.0
1.007482 -0.002032 0.0
1.008846 -0.002101 0.0
1.010232 -0.002069 0.0
1.011573 -0.001929 0.0
1.012794 -0.001683 0.0
1.013828 -0.001345 0.0
1.014620 -0.000938 0.0
1.015133 -0.000495 0.0
1.015351 -0.000052 0.0
1.015281 0.000362 0.0
1.014948 0.000724 0.0
1.014393 0.001023 0.0
1.013660 0.001254 0.0
1.012796 0.001418 0.0
1.011842 0.001522 0.0
1.010835 0.001574 0.0
1.009806 0.001582 0.0
1.008781 0.001556 0.0
1.007778 0.001504 0.0
1.006812 0.001434 0.0
1.005892 0.001353 0.0
1.005024 0.001270 0.0
1.004206 0.001191 0.0
1.003434 0.001123 0.0
1.002699 0.001074 0.0
1.001987 0.001049 0.0
1.001282 0.001050 0.0
1.000564 0.001079 0.0
0.999815 0.001132 0.0
0.999022 0.001204 0.0
0.998175 0.001283 0.0
0.997272 0.001359 0.0
0.996321 0.001418 0.0
0.995336 0.001451 0.0
0.994339 0.001447 0.0
0.993359 0.001400 0.0
0.992425 0.001307 0.0
0.991570 0.001168 0.0
0.990825 0.000986 0.0
0.990216 0.000765 0.0
0.989769 0.000510 0.0
0.989504 0.000229 0.0
0.989432 -0.000072 0.0
0.989562 -0.000383 0.0
0.989895 -0.000695 0.0
0.990429 -0.000995 0.0
0.991156 -0.001273 0.0
0.992057 -0.001516 0.0
0.993108 -0.001710 0.0
0.994273 -0.001842 0.0
0.995508 -0.001900 0.0
0.996763 -0.001873 0.0
0.997980 -0.001758 0.0
0.999099 -0.001556 0.0
1.000065 -0.001278 0.0
1.000832 -0.000944 0.0
1.001369 -0.000578 0.0
1.001664 -0.000211 0.0
1.001720 0.000130 0.0
1.001560 0.000424 0.0
1.001220 0.000654 0.0
1.000749 0.000814 0.0
1.000194 0.000901 0.0
0.999604 0.000918 0.0
0.999023 0.000874 0.0
0.998489 0.000777 0.0
0.998034 0.000637 0.0
0.997681 0.000466 0.0
0.997449 0.000275 0.0
0.997346 0.000077 0.0
0.997370 -0.000117 0.0
0.997515 -0.000294 0.0
0.997764 -0.000441 0.0
0.998095 -0.000547 0.0
0.998479 -0.000602 0.0
0.998881 -0.000601 0.0
0.999263 -0.000540 0.0
0.999587 -0.000421 0.0
0.999816 -0.000250 0.0
0.999918 -0.000038 0.0
0.999870 0.000201 0.0
0.999654 0.000453 0.0
0.999268 0.000703 0.0
0.998718 0.000935 0.0
0.998021 0.001138 0.0
0.997199 0.001302 0.0
0.996283 0.001421 0.0
0.995302 0.001492 0.0
0.994291 0.001514 0.0
0.993281 0.001489 0.0
0.992302 0.001422 0.0
0.991381 0.001319 0.0
0.990539 0.001186 0.0
0.989792 0.001034 0.0
0.989153 0.000871 0.0
0.988623 0.000708 0.0
0.988201 0.000558 0.0
0.987874 0.000430 0.0
0.987623 0.000338 0.0
0.987422 0.000291 0.0
0.987236 0.000298 0.0
0.987026 0.000363 0.0
0.986753 0.000486 0.0
0.986377 0.000660 0.0
0.985866 0.000875 0.0
0.985197 0.001113 0.0
0.984360 0.001355 0.0
0.983360 0.001581 0.0
0.982215 0.001771 0.0
0.980956 0.001912 0.0
0.979619 0.001994 0.0
0.978247 0.002013 0.0
0.976885 0.001970 0.0
0.975572 0.001867 0.0
0.974349 0.001710 0.0
0.973247 0.001506 0.0
0.972297 0.001264 0.0
0.971520 0.000992 0.0
0.970935 0.000697 0.0
0.970553 0.000390 0.0
0.970378 0.000078 0.0
0.970408 -0.000229 0.0
0.970632 -0.000520 0.0
0.971039 -0.000782 0.0
0.971606 -0.001006 0.0
0.972306 -0.001179 0.0
0.973104 -0.001294 0.0
0.973957 -0.001347 0.0
0.974820 -0.001345 0.0
0.975641 -0.001311 0.0
0.976336 -0.001314 0.0
0.976834 -0.001307 0.0
1.000085 0.000198 0.0
1.000344 0.000436 0.0
1.000740 0.000520 0.0
1.001221 0.000489 0.0
1.001775 0.000372 0.0
1.002411 0.000187 0.0
1.003145 -0.000054 0.0
1.003991 -0.000341 0.0
1.004967 -0.000665 0.0
1.006084 -0.001014 0.0
1.007351 -0.001374 0.0
1.008770 -0.001729 0.0
1.010336 -0.002059 0.0
1.012034 -0.002340 0.0
1.013838 -0.002551 0.0
1.015708 -0.002670 0.0
1.017596 -0.002683 0.0
1.019442 -0.002582 0.0
1.021181 -0.002369 0.0
1.022750 -0.002052 0.0
1.024092 -0.001647 0.0
1.025162 -0.001172 0.0
1.025931 -0.000649 0.0
1.026388 -0.000099 0.0
1.026534 0.000456 0.0
1.026386 0.000995 0.0
1.025971 0.001496 0.0
1.025324 0.001941 0.0
1.024484 0.002313 0.0
1.023492 0.002602 0.0
1.022392 0.002801 0.0
1.021225 0.002908 0.0
1.020031 0.002924 0.0
1.018847 0.002857 0.0
1.017706 0.002714 0.0
1.016638 0.002506 0.0
1.015665 0.002248 0.0
1.014807 0.001953 0.0
1.014077 0.001638 0.0
1.013480 0.001321 0.0
1.013014 0.001021 0.0
1.012670 0.000757 0.0
1.012430 0.000549 0.0
1.012268 0.000413 0.0
1.012149 0.000364 0.0
1.012034 0.000408 0.0
1.011880 0.000544 0.0
1.011646 0.000761 0.0
1.011301 0.001036 0.0
1.010823 0.001340 0.0
1.010204 0.001641 0.0
1.009456 0.001905 0.0
1.008601 0.002106 0.0
1.007674 0.002222 0.0
1.006714 0.002243 0.0
1.005766 0.002164 0.0
1.004869 0.001988 0.0
1.004065 0.001720 0.0
1.003388 0.001370 0.0
1.002870 0.000949 0.0
1.002536 0.000469 0.0
1.002408 -0.000056 0.0
1.002502 -0.000610 0.0
1.002829 -0.001178 0.0
1.003393 -0.001738 0.0
1.004189 -0.002270 0.0
1.005203 -0.002746 0.0
1.006413 -0.003139 0.0
1.007779 -0.003417 0.0
1.009251 -0.003551 0.0
1.010762 -0.003515 0.0
1.012232 -0.003293 0.0
1.013577 -0.002885 0.0
1.014711 -0.002312 0.0
1.015568 -0.001619 0.0
1.016103 -0.000862 0.0
1.016305 -0.000105 0.0
1.016190 0.000599 0.0
1.015798 0.001211 0.0
1.015180 0.001710 0.0
1.014389 0.002090 0.0
1.013476 0.002359 0.0
1.012485 0.002526 0.0
1.011453 0.002608 0.0
1.010410 0.002619 0.0
1.009379 0.002576 0.0
1.008377 0.002490 0.0
1.007417 0.002374 0.0
1.006507 0.002242 0.0
1.005652 0.002105 0.0
1.004850 0.001975 0.0
1.004097 0.001864 0.0
1.003382 0.001783 0.0
1.002691 0.001743 0.0
1.002006 0.001748 0.0
1.001304 0.001801 0.0
1.000565 0.001897 0.0
0.999772 0.002025 0.0
0.998912 0.002168 0.0
0.997983 0.002305 0.0
0.996993 0.002414 0.0
0.995959 0.002475 0.0
0.994906 0.002472 0.0
0.993865 0.002396 0.0
0.992870 0.002240 0.0
0.991955 0.002005 0.0
0.991152 0.001697 0.0
0.990491 0.001323 0.0
0.989995 0.000894 0.0
0.989686 0.000420 0.0
0.989580 -0.000085 0.0
0.989685 -0.000606 0.0
0.990009 -0.001129 0.0
0.990548 -0.001636 0.0
0.991296 -0.002108 0.0
0.992237 -0.002524 0.0
0.993345 -0.002861 0.0
0.994585 -0.003097 0.0
0.995912 -0.003208 0.0
0.997270 -0.003177 0.0
0.998593 -0.002993 0.0
0.999812 -0.002658 0.0
1.000860 -0.002190 0.0
1.001681 -0.001621 0.0
1.002239 -0.000996 0.0
1.002518 -0.000367 0.0
1.002529 0.000218 0.0
1.002306 0.000719 0.0
1.001895 0.001110 0.0
1.001348 0.001376 0.0
1.000722 0.001519 0.0
1.000069 0.001544 0.0
0.999434 0.001465 0.0
0.998857 0.001297 0.0
0.998368 0.001060 0.0
0.997992 0.000771 0.0
0.997746 0.000449 0.0
0.997639 0.000114 0.0
0.997672 -0.000212 0.0
0.997839 -0.000510 0.0
0.998123 -0.000758 0.0
0.998502 -0.000939 0.0
0.998942 -0.001034 0.0
0.999407 -0.001034 0.0
0.999852 -0.000933 0.0
1.000235 -0.000733 0.0
1.000513 -0.000445 0.0
1.000652 -0.000085 0.0
1.000625 0.000324 0.0
1.000417 0.000754 0.0
1.000025 0.001179 0.0
0.999458 0.001575 0.0
0.998735 0.001919 0.0
0.997880 0.002197 0.0
0.996927 0.002397 0.0
0.995909 0.002515 0.0
0.994861 0.002550 0.0
0.993817 0.002507 0.0
0.992808 0.002393 0.0
0.991860 0.002217 0.0
0.990998 0.001993 0.0
0.990238 0.001734 0.0
0.989592 0.001457 0.0
0.989065 0.001179 0.0
0.988656 0.000920 0.0
0.988352 0.000699 0.0
0.988137 0.000536 0.0
0.987981 0.000451 0.0
0.987849 0.000457 0.0
0.987698 0.000564 0.0
0.987484 0.000773 0.0
0.987159 0.001073 0.0
0.986687 0.001446 0.0
0.986038 0.001860 0.0
0.985202 0.002282 0.0
0.984183 0.002673 0.0
0.983003 0.003003 0.0
0.981696 0.003246 0.0
0.980305 0.003387 0.0
0.978877 0.003420 0.0
0.977459 0.003345 0.0
0.976094 0.003169 0.0
0.974821 0.002904 0.0
0.973674 0.002560 0.0
0.972682 0.002153 0.0
0.971867 0.001695 0.0
0.971246 0.001200 0.0
0.970832 0.000684 0.0
0.970631 0.000160 0.0
0.970644 -0.000354 0.0
0.970866 -0.000842 0.0
0.971284 -0.001285 0.0
0.971880 -0.001666 0.0
0.972624 -0.001963 0.0
0.973476 -0.002161 0.0
0.974388 -0.002246 0.0
0.975300 -0.002220 0.0
0.976142 -0.002099 0.0
0.976840 -0.001919 0.0
0.977329 -0.001688 0.0
1.000047 0.000067 0.0
1.000212 0.000143 0.0
1.000503 0.000126 0.0
1.000890 0.000015 0.0
1.001366 -0.000184 0.0
1.001936 -0.000463 0.0
1.002612 -0.000813 0.0
1.003410 -0.001227 0.0
1.004348 -0.001692 0.0
1.005440 -0.002195 0.0
1.006696 -0.002717 0.0
1.008123 -0.003233 0.0
1.009717 -0.003715 0.0
1.011465 -0.004129 0.0
1.013341 -0.004441 0.0
1.015307 -0.004616 0.0
1.017310 -0.004628 0.0
1.019288 -0.004461 0.0
1.021171 -0.004112 0.0
1.022887 -0.003593 0.0
1.024370 -0.002930 0.0
1.025566 -0.002155 0.0
1.026436 -0.001306 0.0
1.026960 -0.000423 0.0
1.027137 0.000456 0.0
1.026984 0.001296 0.0
1.026530 0.002064 0.0
1.025815 0.002735 0.0
1.024886 0.003289 0.0
1.023792 0.003712 0.0
1.022583 0.004000 0.0
1.021307 0.004152 0.0
1.020009 0.004172 0.0
1.018730 0.004072 0.0
1.017505 0.003863 0.0
1.016368 0.003563 0.0
1.015343 0.003189 0.0
1.014451 0.002761 0.0
1.013707 0.002304 0.0
1.013117 0.001841 0.0
1.012682 0.001401 0.0
1.012393 0.001010 0.0
1.012229 0.000698 0.0
1.012162 0.000492 0.0
1.012152 0.000414 0.0
1.012150 0.000476 0.0
1.012101 0.000679 0.0
1.011954 0.001006 0.0
1.011663 0.001426 0.0
1.011200 0.001892 0.0
1.010557 0.002351 0.0
1.009747 0.002754 0.0
1.008801 0.003058 0.0
1.007764 0.003234 0.0
1.006686 0.003268 0.0
1.005618 0.003156 0.0
1.004609 0.002902 0.0
1.003700 0.002518 0.0
1.002932 0.002018 0.0
1.002335 0.001417 0.0
1.001938 0.000732 0.0
1.001764 -0.000017 0.0
1.001832 -0.000811 0.0
1.002153 -0.001626 0.0
1.002736 -0.002437 0.0
1.003581 -0.003212 0.0
1.004676 -0.003915 0.0
1.006003 -0.004506 0.0
1.007524 -0.004938 0.0
1.009186 -0.005165 0.0
1.010914 -0.005141 0.0
1.012613 -0.004837 0.0
1.014174 -0.004246 0.0
1.015486 -0.003398 0.0
1.016456 -0.002360 0.0
1.017029 -0.001229 0.0
1.017196 -0.000106 0.0
1.016989 0.000922 0.0
1.016470 0.001799 0.0
1.015710 0.002500 0.0
1.014779 0.003023 0.0
1.013738 0.003381 0.0
1.012636 0.003596 0.0
1.011513 0.003693 0.0
1.010396 0.003694 0.0
1.009309 0.003620 0.0
1.008266 0.003490 0.0
1.007280 0.003320 0.0
1.006358 0.003128 0.0
1.005504 0.002929 0.0
1.004718 0.002739 0.0
1.003995 0.002576 0.0
1.003322 0.002458 0.0
1.002684 0.002398 0.0
1.002055 0.002407 0.0
1.001408 0.002490 0.0
1.000715 0.002640 0.0
0.999950 0.002841 0.0
0.999095 0.003067 0.0
0.998145 0.003284 0.0
0.997109 0.003461 0.0
0.996006 0.003565 0.0
0.994868 0.003573 0.0
0.993734 0.003470 0.0
0.992643 0.003251 0.0
0.991636 0.002917 0.0
0.990748 0.002476 0.0
0.990014 0.001941 0.0
0.989458 0.001327 0.0
0.989103 0.000650 0.0
0.988967 -0.000072 0.0
0.989061 -0.000819 0.0
0.989391 -0.001570 0.0
0.989960 -0.002302 0.0
0.990761 -0.002990 0.0
0.991781 -0.003602 0.0
0.992996 -0.004106 0.0
0.994372 -0.004468 0.0
0.995861 -0.004652 0.0
0.997398 -0.004628 0.0
0.998907 -0.004374 0.0
1.000301 -0.003890 0.0
1.001495 -0.003199 0.0
1.002413 -0.002351 0.0
1.003007 -0.001417 0.0
1.003261 -0.000479 0.0
1.003192 0.000387 0.0
1.002849 0.001118 0.0
1.002293 0.001678 0.0
1.001596 0.002052 0.0
1.000824 0.002241 0.0
1.000037 0.002261 0.0
0.999288 0.002132 0.0
0.998616 0.001879 0.0
0.998054 0.001528 0.0
0.997628 0.001104 0.0
0.997355 0.000634 0.0
0.997245 0.000146 0.0
0.997300 -0.000332 0.0
0.997513 -0.000770 0.0
0.997868 -0.001138 0.0
0.998338 -0.001408 0.0
0.998888 -0.001555 0.0
0.999472 -0.001562 0.0
1.000038 -0.001418 0.0
1.000535 -0.001128 0.0
1.000911 -0.000704 0.0
1.001122 -0.000175 0.0
1.001138 0.000426 0.0
1.000940 0.001058 0.0
1.000527 0.001681 0.0
0.999911 0.002257 0.0
0.999115 0.002756 0.0
0.998173 0.003156 0.0
0.997124 0.003441 0.0
0.996007 0.003606 0.0
0.994863 0.003651 0.0
0.993729 0.003584 0.0
0.992640 0.003414 0.0
0.991627 0.003156 0.0
0.990715 0.002828 0.0
0.989923 0.002450 0.0
0.989265 0.002044 0.0
0.988748 0.001635 0.0
0.988372 0.001250 0.0
0.988126 0.000918 0.0
0.987991 0.000668 0.0
0.987936 0.000529 0.0
0.987921 0.000525 0.0
0.987895 0.000672 0.0
0.987799 0.000975 0.0
0.987576 0.001419 0.0
0.987173 0.001975 0.0
0.986556 0.002597 0.0
0.985706 0.003230 0.0
0.984631 0.003818 0.0
0.983360 0.004310 0.0
0.981938 0.004669 0.0
0.980419 0.004875 0.0
0.978861 0.004919 0.0
0.977317 0.004807 0.0
0.975838 0.004551 0.0
0.974466 0.004167 0.0
0.973235 0.003674 0.0
0.972174 0.003092 0.0
0.971306 0.002438 0.0
0.970650 0.001734 0.0
0.970217 0.000997 0.0
0.970016 0.000249 0.0
0.970048 -0.000488 0.0
0.970310 -0.001192 0.0
0.970791 -0.001836 0.0
0.971474 -0.002393 0.0
0.972327 -0.002833 0.0
0.973310 -0.003126 0.0
0.974363 -0.003246 0.0
0.975412 -0.003181 0.0
0.976369 -0.002938 0.0
0.977146 -0.002555 0.0
0.977667 -0.002063 0.0
1.000030 -0.000010 0.0
1.000144 -0.000060 0.0
1.000358 -0.000176 0.0
1.000662 -0.000375 0.0
1.001056 -0.000664 0.0
1.001547 -0.001044 0.0
1.002150 -0.001512 0.0
1.002884 -0.002061 0.0
1.003768 -0.002680 0.0
1.004822 -0.003353 0.0
1.006061 -0.004054 0.0
1.007494 -0.004755 0.0
1.009121 -0.005415 0.0
1.010933 -0.005990 0.0
1.012906 -0.006430 0.0
1.015000 -0.006687 0.0
1.017160 -0.006721 0.0
1.019317 -0.006503 0.0
1.021391 -0.006026 0.0
1.023299 -0.005303 0.0
1.024961 -0.004365 0.0
1.026308 -0.003262 0.0
1.027290 -0.002050 0.0
1.027879 -0.000791 0.0
1.028070 0.000457 0.0
1.027880 0.001639 0.0
1.027346 0.002709 0.0
1.026516 0.003634 0.0
1.025448 0.004387 0.0
1.024201 0.004955 0.0
1.022834 0.005333 0.0
1.021404 0.005525 0.0
1.019960 0.005541 0.0
1.018548 0.005395 0.0
1.017208 0.005105 0.0
1.015974 0.004693 0.0
1.014875 0.004182 0.0
1.013935 0.003600 0.0
1.013169 0.002975 0.0
1.012589 0.002340 0.0
1.012194 0.001731 0.0
1.011979 0.001185 0.0
1.011922 0.000743 0.0
1.011992 0.000445 0.0
1.012140 0.000324 0.0
1.012305 0.000404 0.0
1.012416 0.000689 0.0
1.012399 0.001160 0.0
1.012192 0.001770 0.0
1.011753 0.002449 0.0
1.011071 0.003118 0.0
1.010168 0.003701 0.0
1.009087 0.004137 0.0
1.007890 0.004389 0.0
1.006642 0.004439 0.0
1.005407 0.004288 0.0
1.004239 0.003947 0.0
1.003188 0.003433 0.0
1.002295 0.002766 0.0
1.001592 0.001968 0.0
1.001110 0.001060 0.0
1.000872 0.000066 0.0
1.000900 -0.000989 0.0
1.001210 -0.002079 0.0
1.001813 -0.003170 0.0
1.002716 -0.004225 0.0
1.003914 -0.005196 0.0
1.005394 -0.006031 0.0
1.007124 -0.006664 0.0
1.009051 -0.007027 0.0
1.011092 -0.007048 0.0
1.013130 -0.006668 0.0
1.015019 -0.005865 0.0
1.016600 -0.004672 0.0
1.017739 -0.003195 0.0
1.018359 -0.001587 0.0
1.018458 -0.000013 0.0
1.018098 0.001396 0.0
1.017379 0.002564 0.0
1.016407 0.003468 0.0
1.015274 0.004118 0.0
1.014055 0.004545 0.0
1.012803 0.004785 0.0
1.011558 0.004873 0.0
1.010345 0.004843 0.0
1.009184 0.004720 0.0
1.008088 0.004529 0.0
1.007067 0.004289 0.0
1.006128 0.004020 0.0
1.005276 0.003742 0.0
1.004511 0.003476 0.0
1.003829 0.003245 0.0
1.003217 0.003073 0.0
1.002654 0.002984 0.0
1.002110 0.002994 0.0
1.001548 0.003112 0.0
1.000926 0.003333 0.0
1.000208 0.003633 0.0
0.999364 0.003973 0.0
0.998386 0.004306 0.0
0.997282 0.004580 0.0
0.996079 0.004751 0.0
0.994819 0.004785 0.0
0.993551 0.004662 0.0
0.992324 0.004376 0.0
0.991188 0.003934 0.0
0.990185 0.003349 0.0
0.989349 0.002638 0.0
0.988712 0.001823 0.0
0.988295 0.000925 0.0
0.988118 -0.000033 0.0
0.988193 -0.001027 0.0
0.988531 -0.002030 0.0
0.989134 -0.003014 0.0
0.990002 -0.003946 0.0
0.991124 -0.004787 0.0
0.992482 -0.005494 0.0
0.994043 -0.006018 0.0
0.995757 -0.006305 0.0
0.997551 -0.006307 0.0
0.999333 -0.005986 0.0
1.000989 -0.005330 0.0
1.002402 -0.004366 0.0
1.003467 -0.003167 0.0
1.004113 -0.001841 0.0
1.004323 -0.000517 0.0
1.004128 0.000688 0.0
1.003601 0.001688 0.0
1.002831 0.002433 0.0
1.001915 0.002911 0.0
1.000936 0.003133 0.0
0.999965 0.003126 0.0
0.999058 0.002924 0.0
0.998258 0.002559 0.0
0.997599 0.002068 0.0
0.997105 0.001483 0.0
0.996795 0.000838 0.0
0.996680 0.000168 0.0
0.996763 -0.000491 0.0
0.997039 -0.001099 0.0
0.997491 -0.001615 0.0
0.998090 -0.002000 0.0
0.998794 -0.002217 0.0
0.999549 -0.002238 0.0
1.000291 -0.002050 0.0
1.000953 -0.001654 0.0
1.001469 -0.001070 0.0
1.001786 -0.000337 0.0
1.001861 0.000496 0.0
1.001675 0.001371 0.0
1.001228 0.002228 0.0
1.000538 0.003016 0.0
0.999637 0.003693 0.0
0.998570 0.004228 0.0
0.997383 0.004605 0.0
0.996126 0.004816 0.0
0.994846 0.004865 0.0
0.993588 0.004762 0.0
0.992389 0.004523 0.0
0.991284 0.004165 0.0
0.990301 0.003714 0.0
0.989464 0.003194 0.0
0.988787 0.002634 0.0
0.988281 0.002067 0.0
0.987948 0.001528 0.0
0.987780 0.001055 0.0
0.987756 0.000689 0.0
0.987845 0.000473 0.0
0.987999 0.000443 0.0
0.988154 0.000627 0.0
0.988236 0.001035 0.0
0.988165 0.001653 0.0
0.987871 0.002438 0.0
0.987299 0.003323 0.0
0.986428 0.004225 0.0
0.985269 0.005058 0.0
0.983861 0.005748 0.0
0.982269 0.006245 0.0
0.980564 0.006522 0.0
0.978820 0.006574 0.0
0.977101 0.006413 0.0
0.975465 0.006060 0.0
0.973957 0.005540 0.0
0.972612 0.004878 0.0
0.971459 0.004101 0.0
0.970522 0.003234 0.0
0.969818 0.002299 0.0
0.969360 0.001323 0.0
0.969156 0.000329 0.0
0.969212 -0.000655 0.0
0.969526 -0.001600 0.0
0.970091 -0.002473 0.0
0.970890 -0.003237 0.0
0.971897 -0.003849 0.0
0.973068 -0.004263 0.0
0.974337 -0.004431 0.0
0.975612 -0.004319 0.0
0.976773 -0.003919 0.0
0.977698 -0.003276 0.0
0.978278 -0.002443 0.0
1.000019 -0.000059 0.0
1.000095 -0.000200 0.0
1.000244 -0.000399 0.0
1.000467 -0.000680 0.0
1.000771 -0.001057 0.0
1.001170 -0.001540 0.0
1.001682 -0.002131 0.0
1.002332 -0.002825 0.0
1.003145 -0.003613 0.0
1.004144 -0.004474 0.0
1.005353 -0.005380 0.0
1.006785 -0.006294 0.0
1.008449 -0.007167 0.0
1.010339 -0.007939 0.0
1.012433 -0.008547 0.0
1.014693 -0.008924 0.0
1.017059 -0.009011 0.0
1.019454 -0.008766 0.0
1.021786 -0.008170 0.0
1.023952 -0.007234 0.0
1.025853 -0.005997 0.0
1.027398 -0.004524 0.0
1.028521 -0.002894 0.0
1.029182 -0.001197 0.0
1.029371 0.000482 0.0
1.029113 0.002062 0.0
1.028452 0.003481 0.0
1.027452 0.004691 0.0
1.026187 0.005663 0.0
1.024729 0.006383 0.0
1.023149 0.006851 0.0
1.021513 0.007075 0.0
1.019878 0.007071 0.0
1.018293 0.006861 0.0
1.016803 0.006469 0.0
1.015445 0.005921 0.0
1.014250 0.005248 0.0
1.013244 0.004481 0.0
1.012447 0.003656 0.0
1.011873 0.002814 0.0
1.011527 0.001997 0.0
1.011405 0.001256 0.0
1.011489 0.000645 0.0
1.011743 0.000219 0.0
1.012111 0.000032 0.0
1.012516 0.000125 0.0
1.012858 0.000514 0.0
1.013035 0.001176 0.0
1.012952 0.002045 0.0
1.012548 0.003017 0.0
1.011808 0.003971 0.0
1.010766 0.004794 0.0
1.009490 0.005401 0.0
1.008067 0.005745 0.0
1.006586 0.005812 0.0
1.005126 0.005611 0.0
1.003753 0.005164 0.0
1.002519 0.004500 0.0
1.001467 0.003645 0.0
1.000629 0.002628 0.0
1.000037 0.001475 0.0
0.999715 0.000211 0.0
0.999686 -0.001134 0.0
0.999973 -0.002531 0.0
1.000591 -0.003941 0.0
1.001555 -0.005320 0.0
1.002870 -0.006614 0.0
1.004535 -0.007756 0.0
1.006527 -0.008662 0.0
1.008803 -0.009232 0.0
1.011273 -0.009354 0.0
1.013797 -0.008922 0.0
1.016170 -0.007872 0.0
1.018156 -0.006233 0.0
1.019542 -0.004160 0.0
1.020211 -0.001911 0.0
1.020178 0.000244 0.0
1.019567 0.002109 0.0
1.018542 0.003594 0.0
1.017264 0.004690 0.0
1.015855 0.005438 0.0
1.014404 0.005896 0.0
1.012964 0.006124 0.0
1.011570 0.006173 0.0
1.010243 0.006083 0.0
1.008995 0.005889 0.0
1.007835 0.005616 0.0
1.006772 0.005286 0.0
1.005812 0.004922 0.0
1.004960 0.004544 0.0
1.004221 0.004179 0.0
1.003592 0.003855 0.0
1.003061 0.003607 0.0
1.002604 0.003469 0.0
1.002184 0.003472 0.0
1.001747 0.003633 0.0
1.001235 0.003947 0.0
1.000590 0.004383 0.0
0.999768 0.004887 0.0
0.998753 0.005385 0.0
0.997554 0.005803 0.0
0.996210 0.006075 0.0
0.994779 0.006153 0.0
0.993325 0.006016 0.0
0.991915 0.005659 0.0
0.990608 0.005095 0.0
0.989452 0.004347 0.0
0.988488 0.003440 0.0
0.987745 0.002402 0.0
0.987248 0.001260 0.0
0.987015 0.000042 0.0
0.987064 -0.001225 0.0
0.987404 -0.002509 0.0
0.988044 -0.003779 0.0
0.988988 -0.004993 0.0
0.990233 -0.006107 0.0
0.991766 -0.007066 0.0
0.993562 -0.007803 0.0
0.995571 -0.008243 0.0
0.997717 -0.008309 0.0
0.999884 -0.007932 0.0
1.001921 -0.007077 0.0
1.003658 -0.005769 0.0
1.004938 -0.004109 0.0
1.005657 -0.002265 0.0
1.005790 -0.000437 0.0
1.005398 0.001196 0.0
1.004594 0.002512 0.0
1.003516 0.003456 0.0
1.002296 0.004026 0.0
1.001039 0.004254 0.0
0.999828 0.004188 0.0
0.998721 0.003876 0.0
0.997760 0.003367 0.0
0.996978 0.002702 0.0
0.996398 0.001923 0.0
0.996040 0.001067 0.0
0.995916 0.000177 0.0
0.996033 -0.000702 0.0
0.996389 -0.001520 0.0
0.996967 -0.002225 0.0
0.997737 -0.002760 0.0
0.998649 -0.003074 0.0
0.999638 -0.003125 0.0
1.000623 -0.002890 0.0
1.001515 -0.002368 0.0
1.002228 -0.001587 0.0
1.002689 -0.000598 0.0
1.002845 0.000525 0.0
1.002672 0.001700 0.0
1.002173 0.002845 0.0
1.001376 0.003887 0.0
1.000327 0.004771 0.0
0.999085 0.005460 0.0
0.997712 0.005934 0.0
0.996267 0.006188 0.0
0.994809 0.006231 0.0
0.993386 0.006078 0.0
0.992044 0.005749 0.0
0.990819 0.005269 0.0
0.989743 0.004668 0.0
0.988843 0.003977 0.0
0.988138 0.003232 0.0
0.987642 0.002471 0.0
0.987360 0.001739 0.0
0.987288 0.001084 0.0
0.987409 0.000562 0.0
0.987690 0.000230 0.0
0.988075 0.000146 0.0
0.988487 0.000356 0.0
0.988825 0.000885 0.0
0.988979 0.001719 0.0
0.988844 0.002802 0.0
0.988342 0.004033 0.0
0.987440 0.005288 0.0
0.986154 0.006439 0.0
0.984548 0.007380 0.0
0.982712 0.008041 0.0
0.980749 0.008394 0.0
0.978752 0.008443 0.0
0.976803 0.008212 0.0
0.974965 0.007736 0.0
0.973284 0.007053 0.0
0.971797 0.006197 0.0
0.970530 0.005201 0.0
0.969505 0.004095 0.0
0.968739 0.002907 0.0
0.968247 0.001665 0.0
0.968038 0.000398 0.0
0.968119 -0.000862 0.0
0.968492 -0.002081 0.0
0.969155 -0.003220 0.0
0.970098 -0.004233 0.0
0.971302 -0.005065 0.0
0.972728 -0.005646 0.0
0.974307 -0.005897 0.0
0.975924 -0.005744 0.0
0.977415 -0.005147 0.0
0.978588 -0.004147 0.0
0.979267 -0.002829 0.0
1.000010 -0.000088 0.0
1.000051 -0.000287 0.0
1.000135 -0.000546 0.0
1.000272 -0.000892 0.0
1.000473 -0.001350 0.0
1.000760 -0.001933 0.0
1.001159 -0.002649 0.0
1.001700 -0.003498 0.0
1.002415 -0.004468 0.0
1.003337 -0.005540 0.0
1.004497 -0.006681 0.0
1.005917 -0.007846 0.0
1.007615 -0.008976 0.0
1.009591 -0.009996 0.0
1.011830 -0.010824 0.0
1.014296 -0.011373 0.0
1.016927 -0.011560 0.0