# vtk DataFile Version 3.0
Scalar Field
ASCII
DATASET RECTILINEAR_GRID
DIMENSIONS 200 75 1
X_COORDINATES 200 double
0.050000 0.150000 0.250000 0.350000 0.450000 0.550000 0.650000 0.750000 0.850000 0.950000 1.050000 1.150000 1.250000 1.350000 1.450000 1.550000 1.650000 1.750000 1.850000 1.950000 2.050000 2.150000 2.250000 2.350000 2.450000 2.550000 2.650000 2.750000 2.850000 2.950000 3.050000 3.150000 3.250000 3.350000 3.450000 3.550000 3.650000 3.750000 3.850000 3.950000 4.050000 4.150000 4.250000 4.350000 4.450000 4.550000 4.650000 4.750000 4.850000 4.950000 5.050000 5.150000 5.250000 5.350000 5.450000 5.550000 5.650000 5.750000 5.850000 5.950000 6.050000 6.150000 6.250000 6.350000 6.450000 6.550000 6.650000 6.750000 6.850000 6.950000 7.050000 7.150000 7.250000 7.350000 7.450000 7.550000 7.650000 7.750000 7.850000 7.950000 8.050000 8.150000 8.250000 8.350000 8.450000 8.550000 8.650000 8.750000 8.850000 8.950000 9.050000 9.150000 9.250000 9.350000 9.450000 9.550000 9.650000 9.750000 9.850000 9.950000 10.050000 10.150000 10.250000 10.350000 10.450000 10.550000 10.650000 10.750000 10.850000 10.950000 11.050000 11.150000 11.250000 11.350000 11.450000 11.550000 11.650000 11.750000 11.850000 11.950000 12.050000 12.150000 12.250000 12.350000 12.450000 12.550000 12.650000 12.750000 12.850000 12.950000 13.050000 13.150000 13.250000 13.350000 13.450000 13.550000 13.650000 13.750000 13.850000 13.950000 14.050000 14.150000 14.250000 14.350000 14.450000 14.550000 14.650000 14.750000 14.850000 14.950000 15.050000 15.150000 15.250000 15.350000 15.450000 15.550000 15.650000 15.750000 15.850000 15.950000 16.050000 16.150000 16.250000 16.350000 16.450000 16.550000 16.650000 16.750000 16.850000 16.950000 17.050000 17.150000 17.250000 17.350000 17.450000 17.550000 17.650000 17.750000 17.850000 17.950000 18.050000 18.150000 18.250000 18.350000 18.450000 18.550000 18.650000 18.750000 18.850000 18.950000 19.050000 19.150000 19.250000 19.350000 19.450000 19.550000 19.650000 19.750000 19.850000 19.950000 
Y_COORDINATES 75 double
0.050000 0.150000 0.250000 0.350000 0.450000 0.550000 0.650000 0.750000 0.850000 0.950000 1.050000 1.150000 1.250000 1.350000 1.450000 1.550000 1.650000 1.750000 1.850000 1.950000 2.050000 2.150000 2.250000 2.350000 2.450000 2.550000 2.650000 2.750000 2.850000 2.950000 3.050000 3.150000 3.250000 3.350000 3.450000 3.550000 3.650000 3.750000 3.850000 3.950000 4.050000 4.150000 4.250000 4.350000 4.450000 4.550000 4.650000 4.750000 4.850000 4.950000 5.050000 5.150000 5.250000 5.350000 5.450000 5.550000 5.650000 5.750000 5.850000 5.950000 6.050000 6.150000 6.250000 6.350000 6.450000 6.550000 6.650000 6.750000 6.850000 6.950000 7.050000 7.150000 7.250000 7.350000 7.450000 
Z_COORDINATES 1 double
0.0
POINT_DATA 15000
SCALARS Skalarfeld double 1
LOOKUP_TABLE default
0.168308
0.167015
0.166166
0.165463
0.164787
0.164078
0.163301
0.162431
0.161451
0.160344
0.159103
0.157722
0.156201
0.154547
0.152773
0.150902
0.148960
0.146982
0.145007
0.143078
0.141239
0.139529
0.137985
0.136633
0.135490
0.134562
0.133844
0.133319
0.132963
0.132746
0.132633
0.132588
0.132574
0.132560
0.132514
0.132412
0.132235
0.131969
0.131607
0.131149
0.130601
0.129975
0.129292
0.128575
0.127856
0.127165
0.126538
0.126003
0.125588
0.125309
0.125172
0.125172
0.125292
0.125505
0.125779
0.126076
0.126358
0.126586
0.126725
0.126744
0.126614
0.126315
0.125831
0.125149
0.124269
0.123193
0.121935
0.120516
0.118967
0.117330
0.115655
0.114001
0.112429
0.110999
0.109763
0.108758
0.108004
0.107498
0.107221
0.107142
0.107220
0.107412
0.107677
0.107979
0.108286
0.108574
0.108826
0.109030
0.109183
0.109285
0.109343
0.109371
0.109383
0.109400
0.109443
0.109534
0.109694
0.109939
0.110279
0.110719
0.111252
0.111868
0.112545
0.113259
0.113981
0.114682
0.115331
0.115902
0.116370
0.116715
0.116922
0.116980
0.116885
0.116637
0.116243
0.115716
0.115078
0.114355
0.113583
0.112801
0.112056
0.111383
0.110825
0.110417
0.110181
0.110128
0.110251
0.110531
0.110937
0.111432
0.111973
0.112520
0.113035
0.113486
0.113843
0.114089
0.114208
0.114194
0.114046
0.113782
0.113418
0.112973
0.112473
0.111947
0.111430
0.110952
0.110545
0.110248
0.110082
0.110058
0.110181
0.110445
0.110839
0.111344
0.111936
0.112589
0.113277
0.113974
0.114656
0.115302
0.115898
0.116431
0.116897
0.117296
0.117632
0.117920
0.118175
0.118421
0.118686
0.118999
0.119390
0.119891
0.120524
0.121308
0.122250
0.123349
0.124591
0.125955
0.127412
0.128929
0.130470
0.132002
0.133491
0.134907
0.136226
0.137426
0.138487
0.139397
0.140147
0.140730
0.141146
0.141399
0.141495
0.141459
0.141313
0.141076
0.140772
0.140426
0.140054
0.139856
0.166987
0.166572
0.166020
0.165437
0.164819
0.164146
0.163394
0.162544
0.161577
0.160481
0.159245
0.157863
0.156335
0.154667
0.152872
0.150972
0.148995
0.146976
0.144958
0.142986
0.141106
0.139361
0.137789
0.136419
0.135270
0.134347
0.133645
0.133145
0.132820
0.132638
0.132562
0.132553
0.132574
0.132590
0.132570
0.132489
0.132326
0.132068
0.131707
0.131242
0.130681
0.130036
0.129327
0.128579
0.127825
0.127100
0.126439
0.125878
0.125445
0.125159
0.125027
0.125044
0.125190
0.125438
0.125752
0.126090
0.126412
0.126678
0.126851
0.126899
0.126794
0.126513
0.126040
0.125363
0.124478
0.123389
0.122107
0.120654
0.119061
0.117369
0.115632
0.113912
0.112276
0.110791
0.109514
0.108489
0.107735
0.107249
0.107007
0.106970
0.107093
0.107329
0.107634
0.107969
0.108303
0.108610
0.108874
0.109084
0.109235
0.109330
0.109375
0.109385
0.109376
0.109369
0.109387
0.109456
0.109597
0.109830
0.110166
0.110610
0.111157
0.111794
0.112499
0.113245
0.114001
0.114735
0.115417
0.116016
0.116508
0.116872
0.117093
0.117158
0.117064
0.116809
0.116400
0.115851
0.115182
0.114422
0.113606
0.112777
0.111978
0.111259
0.110663
0.110228
0.109982
0.109934
0.110079
0.110393
0.110841
0.111382
0.111969
0.112559
0.113111
0.113591
0.113972
0.114232
0.114358
0.114344
0.114195
0.113915
0.113522
0.113038
0.112494
0.111922
0.111360
0.110846
0.110418
0.110101
0.109921
0.109893
0.110020
0.110299
0.110714
0.111245
0.111867
0.112551
0.113268
0.113991
0.114696
0.115360
0.115968
0.116508
0.116973
0.117365
0.117688
0.117955
0.118184
0.118400
0.118630
0.118908
0.119267
0.119739
0.120352
0.121126
0.122071
0.123184
0.124451
0.125848
0.127343
0.128900
0.130481
0.132050
0.133574
0.135021
0.136365
0.137585
0.138663
0.139584
0.140339
0.140923
0.141335
0.141579
0.141670
0.141615
0.141437
0.141163
0.140825
0.140458
0.140104
0.139812
0.166445
0.166264
0.165903
0.165443
0.164907
0.164292
0.163586
0.162772
0.161834
0.160758
0.159532
0.158149
0.156607
0.154911
0.153073
0.151114
0.149064
0.146962
0.144854
0.142790
0.140823
0.139003
0.137374
0.135968
0.134808
0.133897
0.133229
0.132781
0.132523
0.132415
0.132417
0.132485
0.132578
0.132658
0.132692
0.132653
0.132520
0.132278
0.131919
0.131442
0.130853
0.130166
0.129401
0.128588
0.127760
0.126959
0.126228
0.125607
0.125134
0.124832
0.124712
0.124766
0.124972
0.125296
0.125694
0.126121
0.126529
0.126876
0.127122
0.127232
0.127178
0.126936
0.126487
0.125819
0.124927
0.123810
0.122480
0.120954
0.119264
0.117453
0.115578
0.113711
0.111932
0.110323
0.108960
0.107892
0.107144
0.106706
0.106542
0.106602
0.106826
0.107159
0.107550
0.107957
0.108347
0.108696
0.108985
0.109205
0.109353
0.109431
0.109448
0.109418
0.109360
0.109300
0.109264
0.109281
0.109380
0.109585
0.109911
0.110366
0.110945
0.111631
0.112400
0.113218
0.114052
0.114862
0.115615
0.116279
0.116826
0.117234
0.117485
0.117568
0.117475
0.117207
0.116768
0.116172
0.115437
0.114591
0.113673
0.112730
0.111814
0.110984
0.110297
0.109802
0.109531
0.109498
0.109694
0.110086
0.110632
0.111277
0.111967
0.112652
0.113286
0.113833
0.114263
0.114555
0.114695
0.114677
0.114503
0.114181
0.113728
0.113171
0.112542
0.111880
0.111229
0.110632
0.110133
0.109763
0.109552
0.109515
0.109656
0.109968
0.110433
0.111025
0.111713
0.112466
0.113249
0.114032
0.114788
0.115492
0.116127
0.116680
0.117145
0.117520
0.117812
0.118033
0.118203
0.118348
0.118500
0.118697
0.118979
0.119387
0.119955
0.120708
0.121660
0.122807
0.124132
0.125605
0.127188
0.128837
0.130509
0.132165
0.133766
0.135281
0.136682
0.137949
0.139061
0.140006
0.140773
0.141358
0.141758
0.141978
0.142027
0.141920
0.141676
0.141328
0.140914
0.140481
0.140080
0.139672
0.166239
0.166136
0.165885
0.165525
0.165072
0.164529
0.163883
0.163121
0.162226
0.161182
0.159973
0.158590
0.157029
0.155290
0.153386
0.151338
0.149177
0.146946
0.144697
0.142489
0.140387
0.138449
0.136730
0.135269
0.134092
0.133203
0.132591
0.132227
0.132074
0.132083
0.132206
0.132392
0.132594
0.132772
0.132888
0.132913
0.132824
0.132606
0.132249
0.131753
0.131122
0.130372
0.129524
0.128609
0.127667
0.126747
0.125903
0.125187
0.124649
0.124322
0.124220
0.124335
0.124635
0.125078
0.125608
0.126169
0.126709
0.127177
0.127530
0.127733
0.127755
0.127570
0.127157
0.126504
0.125600
0.124445
0.123044
0.121414
0.119583
0.117594
0.115511
0.113416
0.111410
0.109603
0.108098
0.106966
0.106233
0.105879
0.105848
0.106063
0.106446
0.106928
0.107448
0.107962
0.108434
0.108841
0.109166
0.109401
0.109543
0.109595
0.109568
0.109478
0.109347
0.109204
0.109082
0.109019
0.109051
0.109211
0.109521
0.109991
0.110617
0.111379
0.112246
0.113176
0.114125
0.115050
0.115910
0.116669
0.117295
0.117766
0.118062
0.118169
0.118079
0.117791
0.117308
0.116640
0.115806
0.114835
0.113766
0.112654
0.111562
0.110563
0.109733
0.109140
0.108830
0.108822
0.109099
0.109618
0.110315
0.111122
0.111969
0.112796
0.113551
0.114196
0.114699
0.115037
0.115197
0.115172
0.114963
0.114580
0.114042
0.113377
0.112623
0.111827
0.111041
0.110318
0.109709
0.109259
0.108999
0.108949
0.109111
0.109475
0.110015
0.110699
0.111489
0.112345
0.113227
0.114099
0.114931
0.115694
0.116370
0.116944
0.117408
0.117760
0.118007
0.118162
0.118245
0.118284
0.118318
0.118392
0.118556
0.118861
0.119355
0.120074
0.121034
0.122232
0.123646
0.125236
0.126951
0.128739
0.130547
0.132328
0.134042
0.135655
0.137139
0.138472
0.139636
0.140616
0.141403
0.141989
0.142374
0.142558
0.142551
0.142365
0.142024
0.141561
0.141024
0.140473
0.139972
0.139473
0.166224
0.166156
0.165975
0.165697
0.165329
0.164865
0.164296
0.163602
0.162766
0.161766
0.160584
0.159205
0.157620
0.155828
0.153836
0.151666
0.149350
0.146937
0.144488
0.142075
0.139776
0.137669
0.135821
0.134283
0.133084
0.132230
0.131703
0.131463
0.131461
0.131638
0.131931
0.132282
0.132636
0.132947
0.133174
0.133286
0.133257
0.133072
0.132719
0.132197
0.131511
0.130674
0.129711
0.128654
0.127550
0.126458
0.125447
0.124589
0.123953
0.123587
0.123512
0.123716
0.124156
0.124771
0.125489
0.126240
0.126959
0.127591
0.128089
0.128416
0.128538
0.128429
0.128067
0.127435
0.126522
0.125321
0.123833
0.122069
0.120052
0.117823
0.115447
0.113023
0.110681
0.108576
0.106859
0.105636
0.104940
0.104729
0.104905
0.105354
0.105968
0.106657
0.107352
0.108007
0.108586
0.109068
0.109438
0.109690
0.109822
0.109838
0.109751
0.109579
0.109346
0.109086
0.108843
0.108662
0.108594
0.108685
0.108967
0.109458
0.110151
0.111022
0.112026
0.113111
0.114221
0.115302
0.116305
0.117189
0.117921
0.118474
0.118828
0.118967
0.118884
0.118571
0.118032
0.117273
0.116312
0.115174
0.113903
0.112557
0.111214
0.109971
0.108931
0.108192
0.107825
0.107856
0.108259
0.108966
0.109886
0.110923
0.111987
0.113007
0.113926
0.114700
0.115298
0.115697
0.115884
0.115851
0.115598
0.115135
0.114482
0.113671
0.112747
0.111765
0.110789
0.109888
0.109126
0.108561
0.108234
0.108168
0.108363
0.108801
0.109450
0.110265
0.111196
0.112194
0.113211
0.114204
0.115138
0.115982
0.116713
0.117316
0.117781
0.118105
0.118295
0.118362
0.118329
0.118226
0.118096
0.117995
0.117987
0.118143
0.118527
0.119190
0.120160
0.121433
0.122974
0.124730
0.126631
0.128608
0.130598
0.132546
0.134408
0.136149
0.137740
0.139159
0.140390
0.141417
0.142230
0.142821
0.143188
0.143331
0.143253
0.142967
0.142493
0.141868
0.141148
0.140414
0.139758
0.139162
0.166333
0.166288
0.166163
0.165961
0.165679
0.165308
0.164830
0.164224
0.163466
0.162528
0.161386
0.160020
0.158412
0.156556
0.154455
0.152128
0.149609
0.146952
0.144230
0.141535
0.138964
0.136621
0.134594
0.132950
0.131727
0.130928
0.130523
0.130461
0.130670
0.131075
0.131598
0.132168
0.132721
0.133206
0.133576
0.133799
0.133847
0.133704
0.133357
0.132803
0.132047
0.131102
0.129989
0.128744
0.127419
0.126086
0.124835
0.123768
0.122984
0.122559
0.122524
0.122859
0.123502
0.124360
0.125337
0.126341
0.127295
0.128138
0.128819
0.129301
0.129550
0.129539
0.129243
0.128645
0.127727
0.126477
0.124891
0.122969
0.120724
0.118187
0.115420
0.112535
0.109704
0.107151
0.105117
0.103772
0.103159
0.103187
0.103687
0.104480
0.105413
0.106377
0.107297
0.108126
0.108835
0.109406
0.109828
0.110098
0.110215
0.110186
0.110021
0.109740
0.109370
0.108953
0.108539
0.108191
0.107979
0.107966
0.108205
0.108720
0.109507
0.110527
0.111722
0.113019
0.114344
0.115629
0.116816
0.117859
0.118723
0.119379
0.119806
0.119988
0.119914
0.119577
0.118974
0.118108
0.116991
0.115646
0.114113
0.112455
0.110766
0.109173
0.107825
0.106870
0.106421
0.106515
0.107110
0.108097
0.109336
0.110691
0.112046
0.113317
0.114441
0.115376
0.116092
0.116568
0.116790
0.116748
0.116442
0.115879
0.115079
0.114078
0.112927
0.111695
0.110462
0.109316
0.108346
0.107625
0.107208
0.107123
0.107368
0.107914
0.108715
0.109709
0.110832
0.112019
0.113214
0.114365
0.115431
0.116379
0.117182
0.117823
0.118292
0.118584
0.118704
0.118663
0.118482
0.118193
0.117845
0.117504
0.117254
0.117192
0.117414
0.117995
0.118977
0.120354
0.122077
0.124064
0.126220
0.128451
0.130678
0.132838
0.134883
0.136780
0.138501
0.140026
0.141338
0.142424
0.143272
0.143874
0.144225
0.144321
0.144163
0.143755
0.143112
0.142268
0.141287
0.140276
0.139380
0.138642
0.166524
0.166499
0.166427
0.166304
0.166119
0.165856
0.165492
0.164998
0.164342
0.163490
0.162410
0.161069
0.159445
0.157519
0.155290
0.152769
0.149991
0.147016
0.143932
0.140853
0.137911
0.135243
0.132972
0.131188
0.129940
0.129225
0.128998
0.129183
0.129682
0.130393
0.131217
0.132069
0.132876
0.133577
0.134126
0.134486
0.134629
0.134538
0.134199
0.133610
0.132772
0.131694
0.130396
0.128911
0.127293
0.125628
0.124034
0.122658
0.121653
0.121137
0.121163
0.121694
0.122629
0.123829
0.125155
0.126489
0.127741
0.128844
0.129748
0.130417
0.130820
0.130929
0.130720
0.130169
0.129257
0.127964
0.126276
0.124182
0.121676
0.118766
0.115496
0.111977
0.108429
0.105192
0.102670
0.101164
0.100728
0.101167
0.102173
0.103461
0.104826
0.106140
0.107331
0.108365
0.109221
0.109891
0.110371
0.110659
0.110756
0.110668
0.110406
0.109988
0.109444
0.108816
0.108169
0.107585
0.107161
0.106995
0.107164
0.107709
0.108624
0.109855
0.111313
0.112896
0.114503
0.116050
0.117468
0.118707
0.119730
0.120510
0.121026
0.121263
0.121206
0.120847
0.120176
0.119191
0.117896
0.116304
0.114445
0.112381
0.110219
0.108126
0.106320
0.105039
0.104467
0.104668
0.105563
0.106969
0.108664
0.110451
0.112185
0.113767
0.115140
0.116266
0.117123
0.117691
0.117957
0.117909
0.117541
0.116857
0.115876
0.114633
0.113188
0.111624
0.110045
0.108569
0.107313
0.106381
0.105847
0.105745
0.106067
0.106769
0.107782
0.109020
0.110397
0.111833
0.113255
0.114607
0.115839
0.116916
0.117809
0.118500
0.118977
0.119235
0.119274
0.119104
0.118742
0.118219
0.117586
0.116920
0.116331
0.115955
0.115935
0.116391
0.117387
0.118916
0.120901
0.123215
0.125717
0.128282
0.130808
0.133227
0.135492
0.137572
0.139445
0.141094
0.142504
0.143661
0.144553
0.145173
0.145511
0.145562
0.145319
0.144777
0.143932
0.142804
0.141454
0.140023
0.138740
0.137767
0.166762
0.166758
0.166743
0.166708
0.166636
0.166505
0.166282
0.165931
0.165411
0.164678
0.163687
0.162396
0.160769
0.158776
0.156402
0.153651
0.150552
0.147170
0.143609
0.140015
0.136565
0.133451
0.130846
0.128878
0.127607
0.127024
0.127056
0.127588
0.128480
0.129594
0.130807
0.132015
0.133134
0.134101
0.134864
0.135388
0.135645
0.135616
0.135291
0.134663
0.133733
0.132503
0.130986
0.129205
0.127209
0.125092
0.123007
0.121171
0.119826
0.119170
0.119290
0.120121
0.121487
0.123167
0.124962
0.126718
0.128334
0.129746
0.130910
0.131797
0.132380
0.132634
0.132533
0.132050
0.131159
0.129836
0.128057
0.125794
0.123014
0.119685
0.115796
0.111422
0.106813
0.102490
0.099179
0.097464
0.097409
0.098571
0.100370
0.102361
0.104286
0.106021
0.107522
0.108778
0.109792
0.110567
0.111105
0.111409
0.111480
0.111324
0.110948
0.110364
0.109599
0.108698
0.107735
0.106817
0.106085
0.105685
0.105743
0.106325
0.107421
0.108949
0.110773
0.112742
0.114718
0.116594
0.118294
0.119765
0.120975
0.121900
0.122523
0.122827
0.122798
0.122423
0.121687
0.120581
0.119093
0.117222
0.114976
0.112398
0.109597
0.106782
0.104282
0.102491
0.101731
0.102116
0.103497
0.105542
0.107890
0.110257
0.112465
0.114420
0.116078
0.117421
0.118436
0.119112
0.119434
0.119385
0.118953
0.118131
0.116931
0.115387
0.113564
0.111564
0.109522
0.107596
0.105953
0.104736
0.104050
0.103937
0.104379
0.105307
0.106616
0.108185
0.109898
0.111651
0.113361
0.114961
0.116397
0.117631
0.118635
0.119389
0.119879
0.120101
0.120052
0.119736
0.119164
0.118356
0.117359
0.116258
0.115192
0.114357
0.113973
0.114236
0.115251
0.117007
0.119376
0.122156
0.125132
0.128129
0.131026
0.133752
0.136269
0.138555
0.140599
0.142388
0.143910
0.145151
0.146100
0.146745
0.147078
0.147091
0.146772
0.146097
0.145033
0.143557
0.141699
0.139621
0.137683
0.136291
0.167007
0.167027
0.167078
0.167148
0.167214
0.167244
0.167199
0.167032
0.166690
0.166118
0.165257
0.164051
0.162446
0.160398
0.157874
0.154860
0.151373
0.147477
0.143291
0.139002
0.134855
0.131123
0.128060
0.125848
0.124569
0.124195
0.124606
0.125625
0.127050
0.128694
0.130399
0.132046
0.133544
0.134825
0.135841
0.136555
0.136944
0.136989
0.136682
0.136015
0.134987
0.133595
0.131834
0.129706
0.127237
0.124512
0.121720
0.119179
0.117295
0.116417
0.116696
0.118006
0.120024
0.122386
0.124800
0.127082
0.129128
0.130890
0.132345
0.133476
0.134265
0.134689
0.134720
0.134328
0.133482
0.132152
0.130305
0.127902
0.124878
0.121133
0.116546
0.111054
0.104858
0.098719
0.094039
0.092060
0.092850
0.095320
0.098361
0.101319
0.103929
0.106132
0.107953
0.109432
0.110600
0.111477
0.112072
0.112390
0.112432
0.112201
0.111695
0.110920
0.109890
0.108641
0.107252
0.105863
0.104672
0.103913
0.103791
0.104418
0.105780
0.107740
0.110081
0.112573
0.115026
0.117309
0.119341
0.121079
0.122500
0.123589
0.124333
0.124719
0.124732
0.124353
0.123564
0.122344
0.120668
0.118507
0.115830
0.112629
0.108974
0.105106
0.101516
0.098892
0.097834
0.098549
0.100748
0.103795
0.107081
0.110208
0.112987
0.115358
0.117323
0.118894
0.120082
0.120881
0.121275
0.121240
0.120749
0.119778
0.118324
0.116413
0.114113
0.111541
0.108875
0.106334
0.104157
0.102554
0.101672
0.101565
0.102197
0.103455
0.105179
0.107196
0.109348
0.111505
0.113570
0.115469
0.117150
0.118571
0.119706
0.120535
0.121047
0.121235
0.121095
0.120625
0.119819
0.118682
0.117236
0.115559
0.113819
0.112299
0.111354
0.111312
0.112354
0.114461
0.117416
0.120874
0.124500
0.128051
0.131392
0.134464
0.137254
0.139762
0.141989
0.143933
0.145582
0.146922
0.147938
0.148619
0.148957
0.148947
0.148574
0.147799
0.146541
0.144686
0.142156
0.139070
0.135972
0.133776
0.167216
0.167264
0.167396
0.167592
0.167826
0.168057
0.168235
0.168304
0.168196
0.167840
0.167164
0.166093
0.164554
0.162480
0.159813
0.156513
0.152573
0.148038
0.143037
0.137806
0.132687
0.128086
0.124386
0.121855
0.120599
0.120558
0.121535
0.123247
0.125394
0.127724
0.130045
0.132223
0.134167
0.135812
0.137115
0.138046
0.138582
0.138711
0.138426
0.137723
0.136600
0.135047
0.133038
0.130536
0.127506
0.123980
0.120159
0.116508
0.113732
0.112489
0.113052
0.115167
0.118203
0.121540
0.124764
0.127672
0.130198
0.132335
0.134097
0.135490
0.136506
0.137127
0.137320
0.137048
0.136274
0.134965
0.133090
0.130606
0.127429
0.123380
0.118142
0.111310
0.102740
0.093371
0.086085
0.083798
0.086560
0.091465
0.096414
0.100612
0.103967
0.106618
0.108722
0.110393
0.111696
0.112666
0.113314
0.113644
0.113657
0.113349
0.112711
0.111730
0.110396
0.108719
0.106767
0.104704
0.102820
0.101497
0.101081
0.101765
0.103528
0.106137
0.109224
0.112430
0.115493
0.118263
0.120672
0.122701
0.124348
0.125613
0.126493
0.126977
0.127048
0.126686
0.125863
0.124552
0.122716
0.120294
0.117192
0.113292
0.108537
0.103119
0.097744
0.093686
0.092128
0.093464
0.097118
0.101782
0.106406
0.110486
0.113898
0.116689
0.118947
0.120740
0.122105
0.123045
0.123537
0.123543
0.123014
0.121897
0.120165
0.117820
0.114921
0.111602
0.108089
0.104694
0.101771
0.099637
0.098504
0.098439
0.099373
0.101123
0.103436
0.106059
0.108778
0.111439
0.113933
0.116187
0.118152
0.119790
0.121076
0.121994
0.122535
0.122694
0.122467
0.121846
0.120806
0.119314
0.117340
0.114917
0.112220
0.109652
0.107815
0.107278
0.108359
0.111031
0.114915
0.119388
0.123907
0.128150
0.131994
0.135431
0.138495
0.141225
0.143643
0.145753
0.147546
0.149001
0.150098
0.150823
0.151173
0.151155
0.150768
0.149973
0.148631
0.146476
0.143150
0.138504
0.133236
0.129383
0.167335
0.167419
0.167647
0.167999
0.168440
0.168920
0.169380
0.169748
0.169943
0.169876
0.169455
0.168587
0.167176
0.165129
0.162355
0.158771
0.154323
0.149013
0.142955
0.136435
0.129936
0.124086
0.119485
0.116535
0.115371
0.115871
0.117708
0.120414
0.123541
0.126752
0.129825
0.132628
0.135081
0.137135
0.138757
0.139924
0.140622
0.140841
0.140579
0.139842
0.138632
0.136941
0.134722
0.131874
0.128245
0.123712
0.118386
0.112912
0.108586
0.106716
0.107822
0.111377
0.116060
0.120788
0.125026
0.128632
0.131644
0.134146
0.136208
0.137868
0.139132
0.139979
0.140369
0.140251
0.139580
0.138320
0.136454
0.133968
0.130807
0.126756
0.121241
0.113155
0.101178
0.085641
0.072847
0.070297
0.078021
0.087504
0.095183
0.100726
0.104696
0.107641
0.109917
0.111714
0.113122
0.114172
0.114870
0.115214
0.115201
0.114825
0.114066
0.112887
0.111238
0.109066
0.106382
0.103352
0.100395
0.098158
0.097253
0.098013
0.100409
0.104034
0.108230
0.112413
0.116237
0.119562
0.122370
0.124692
0.126566
0.128013
0.129039
0.129637
0.129787
0.129465
0.128634
0.127269
0.125332
0.122742
0.119323
0.114773
0.108711
0.101016
0.092566
0.085888
0.083452
0.085986
0.092418
0.099759
0.106237
0.111401
0.115404
0.118532
0.121017
0.122998
0.124539
0.125642
0.126272
0.126368
0.125849
0.124616
0.122600
0.119762
0.116129
0.111834
0.107162
0.102558
0.098569
0.095694
0.094245
0.094292
0.095712
0.098204
0.101362
0.104804
0.108249
0.111521
0.114519
0.117181
0.119468
0.121349
0.122805
0.123822
0.124397
0.124532
0.124229
0.123480
0.122242
0.120420
0.117884
0.114535
0.110476
0.106253
0.102941
0.101583
0.102719
0.106332
0.111766
0.117803
0.123540
0.128604
0.132966
0.136736
0.140040
0.142971
0.145577
0.147868
0.149826
0.151418
0.152612
0.153385
0.153743
0.153717
0.153357
0.152673
0.151514
0.149403
0.145412
0.138474
0.128893
0.121378
0.167302
0.167429
0.167775
0.168317
0.169012
0.169801
0.170613
0.171360
0.171942
0.172253
0.172179
0.171604
0.170409
0.168473
0.165664
0.161841
0.156870
0.150657
0.143245
0.134941
0.126430
0.118732
0.112837
0.109344
0.108407
0.109802
0.112975
0.117130
0.121582
0.125900
0.129862
0.133371
0.136384
0.138880
0.140845
0.142264
0.143130
0.143439
0.143196
0.142418
0.141131
0.139345
0.137013
0.133964
0.129846
0.124175
0.116675
0.108062
0.100871
0.097881
0.100068
0.106402
0.113827
0.120492
0.125895
0.130165
0.133582
0.136379
0.138705
0.140628
0.142160
0.143269
0.143902
0.143983
0.143445
0.142249
0.140400
0.137962
0.135018
0.131510
0.126767
0.118607
0.102509
0.074257
0.048510
0.046018
0.067487
0.085227
0.096020
0.102376
0.106427
0.109319
0.111578
0.113416
0.114897
0.116023
0.116773
0.117134
0.117101
0.116676
0.115831
0.114506
0.112590
0.109911
0.106323
0.101901
0.097224
0.093459
0.091730
0.092591
0.096024
0.101327
0.107214
0.112726
0.117453
0.121354
0.124533
0.127114
0.129191
0.130814
0.131997
0.132727
0.132981
0.132730
0.131915
0.130532
0.128573
0.125980
0.122539
0.117697
0.110413
0.099502
0.085415
0.073650
0.069644
0.074452
0.086690
0.098509
0.107315
0.113426
0.117748
0.120988
0.123562
0.125672
0.127387
0.128690
0.129518
0.129781
0.129361
0.128082
0.125816
0.122457
0.117957
0.112405
0.106132
0.099779
0.094232
0.090302
0.088465
0.088745
0.090952
0.094592
0.098977
0.103520
0.107867
0.111854
0.115417
0.118529
0.121168
0.123315
0.124954
0.126076
0.126684
0.126794
0.126425
0.125590
0.124244
0.122217
0.119215
0.114831
0.108846
0.101904
0.096063
0.093329
0.094520
0.099724
0.107927
0.116438
0.123779
0.129702
0.134480
0.138464
0.141920
0.145006
0.147792
0.150282
0.152440
0.154206
0.155520
0.156340
0.156673
0.156592
0.156248
0.155818
0.155303
0.154136
0.150489
0.140771
0.122016
0.105864
0.167040
0.167217
0.167708
0.168481
0.169487
0.170657
0.171905
0.173127
0.174202
0.174999
0.175382
0.175211
0.174347
0.172642
0.169926
0.165986
0.160562
0.153380
0.144280
0.133482
0.121928
0.111393
0.103618
0.099448
0.098985
0.101880
0.107199
0.113500
0.119722
0.125375
0.130328
0.134588
0.138186
0.141142
0.143461
0.145142
0.146178
0.146571
0.146327
0.145483
0.144105
0.142268
0.139989
0.137078
0.132930
0.126349
0.115877
0.101532
0.088682
0.083665
0.087995
0.100216
0.112271
0.121400
0.127854
0.132521
0.136113
0.139060
0.141581
0.143757
0.145585
0.147011
0.147954
0.148294
0.147926
0.146784
0.144887
0.142405
0.139726
0.137390
0.135470
0.131391
0.113880
0.057108
-0.001680
-0.003955
0.060084
0.089589
0.101146
0.106255
0.109270
0.111596
0.113634
0.115451
0.117005
0.118225
0.119044
0.119426
0.119371
0.118917
0.118035
0.116673
0.114658
0.111620
0.107062
0.100691
0.093152
0.086725
0.083612
0.084582
0.089740
0.097994
0.106524
0.113768
0.119444
0.123820
0.127247
0.129996
0.132228
0.134014
0.135363
0.136249
0.136631
0.136478
0.135685
0.134288
0.132356
0.129961
0.127018
0.122865
0.115463
0.100734
0.075610
0.053458
0.046786
0.055203
0.081153
0.100082
0.110942
0.117135
0.121092
0.124040
0.126507
0.128681
0.130583
0.132147
0.133261
0.133793
0.133597
0.132391
0.129984
0.126157
0.120718
0.113617
0.105156
0.096239
0.088382
0.082949
0.080620
0.081317
0.084786
0.090244
0.096423
0.102406
0.107809
0.112567
0.116718
0.120297
0.123307
0.125734
0.127564
0.128789
0.129417
0.129483
0.129041
0.128160
0.126836
0.124895
0.121829
0.116633
0.108110
0.096428
0.086075
0.081136
0.082265
0.090027
0.103668
0.116126
0.125329
0.131855
0.136714
0.140654
0.144108
0.147283
0.150246
0.152974
0.155392
0.157394
0.158869
0.159735
0.159973
0.159690
0.159186
0.158982
0.159641
0.161135
0.161197
0.150811
0.110943
0.073519
0.166453
0.166693
0.167358
0.168411
0.169795
0.171430
0.173214
0.175026
0.176720
0.178135
0.179105
0.179469
0.179073
0.177757
0.175327
0.171505
0.165869
0.157830
0.146762
0.132460
0.116059
0.100956
0.090487
0.085570
0.086009
0.091387
0.100329
0.109869
0.118371
0.125504
0.131450
0.136436
0.140602
0.144013
0.146691
0.148638
0.149847
0.150311
0.150028
0.149051
0.147507
0.145601
0.143553
0.141367
0.138328
0.132177
0.118396
0.092752
0.067923
0.059584
0.067553
0.093922
0.113469
0.124878
0.131534
0.135904
0.139250
0.142135
0.144771
0.147200
0.149376
0.151202
0.152553
0.153254
0.153115
0.152005
0.149888
0.146976
0.144023
0.142727
0.145838
0.155340
0.158837
0.031066
-0.111935
-0.127596
0.083169
0.110028
0.111943
0.111855
0.112582
0.114004
0.115771
0.117611
0.119306
0.120680
0.121601
0.122002
0.121892
0.121346
0.120426
0.119183
0.117408
0.114502
0.109357
0.100671
0.088471
0.077324
0.071871
0.072812
0.080630
0.094425
0.107002
0.116193
0.122537
0.127039
0.130452
0.133212
0.135528
0.137465
0.139003
0.140076
0.140602
0.140492
0.139684
0.138213
0.136235
0.134076
0.132146
0.130397
0.126449
0.110400
0.062317
0.018731
0.009169
0.018056
0.081908
0.109010
0.118738
0.122742
0.125198
0.127366
0.129555
0.131772
0.133916
0.135835
0.137346
0.138253
0.138390
0.137425
0.135085
0.131003
0.124745
0.115938
0.104622
0.091926
0.080655
0.073181
0.070154
0.071485
0.076909
0.085333
0.094116
0.101852
0.108330
0.113790
0.118472
0.122493
0.125872
0.128586
0.130608
0.131925
0.132545
0.132515
0.131938
0.130978
0.129790
0.128393
0.126191
0.121336
0.110195
0.089782
0.071082
0.063219
0.063646
0.074497
0.100423
0.118814
0.129327
0.135493
0.139722
0.143208
0.146462
0.149663
0.152821
0.155859
0.158637
0.160981
0.162704
0.163637
0.163683
0.162916
0.161746
0.161179
0.162924
0.168911
0.180116
0.185880
0.091486
0.003000
0.165428
0.165743
0.166617
0.168008
0.169848
0.172046
0.174486
0.177023
0.179489
0.181679
0.183388
0.184429
0.184644
0.183891
0.181999
0.178678
0.173357
0.164997
0.152024
0.132884
0.108159
0.085218
0.071219
0.065827
0.067768
0.077043
0.092665
0.107139
0.118293
0.126748
0.133475
0.139054
0.143729
0.147576
0.150612
0.152833
0.154221
0.154750
0.154375
0.153140
0.151227
0.149036
0.147205
0.146412
0.146611
0.145070
0.130982
0.080723
0.028879
0.017972
0.027111
0.093685
0.122361
0.132880
0.137373
0.140225
0.142784
0.145399
0.148107
0.150833
0.153447
0.155788
0.157684
0.158898
0.159105
0.158055
0.155512
0.151450
0.146589
0.143575
0.149006
0.175924
0.256725
0.189776
0.000000
-0.373540
0.239501
0.149483
0.122872
0.115807
0.114718
0.115703
0.117499
0.119563
0.121550
0.123184
0.124260
0.124677
0.124451
0.123713
0.122756
0.121782
0.120733
0.118910
0.114410
0.103619
0.083130
0.063717
0.055209
0.055531
0.066382
0.092128
0.110465
0.120932
0.126946
0.130862
0.133858
0.136436
0.138768
0.140860
0.142632
0.143952
0.144671
0.144635
0.143792
0.142120
0.139811
0.137469
0.136383
0.138577
0.145305
0.145286
0.040077
-0.046249
-0.044367
-0.078160
0.113659
0.132200
0.130703
0.129023
0.129014
0.130217
0.132154
0.134500
0.136995
0.139393
0.141438
0.142859
0.143327
0.142802
0.140845
0.136929
0.130302
0.119975
0.105120
0.086534
0.070046
0.060139
0.056386
0.058481
0.066699
0.080394
0.092929
0.102483
0.109720
0.115589
0.120643
0.125049
0.128786
0.131787
0.134001
0.135397
0.135969
0.135759
0.134902
0.133678
0.132586
0.132175
0.132367
0.131006
0.119683
0.080913
0.046216
0.037958
0.035420
0.043769
0.103977
0.128600
0.137120
0.140701
0.143216
0.145793
0.148691
0.151902
0.155321
0.158784
0.162073
0.164926
0.167053
0.168154
0.167959
0.166342
0.163562
0.161025
0.161892
0.170717
0.196454
0.264705
0.192758
0.000000
0.163828
0.164233
0.165358
0.167150
0.169534
0.172407
0.175644
0.179076
0.182490
0.185647
0.188268
0.190129
0.191078
0.191033
0.189934
0.187622
0.183551
0.176260
0.162598
0.137333