# vtk DataFile Version 3.0
Vector Field
ASCII
DATASET RECTILINEAR_GRID
DIMENSIONS 200 75 1
X_COORDINATES 200 double
0.050000 0.150000 0.250000 0.350000 0.450000 0.550000 0.650000 0.750000 0.850000 0.950000 1.050000 1.150000 1.250000 1.350000 1.450000 1.550000 1.650000 1.750000 1.850000 1.950000 2.050000 2.150000 2.250000 2.350000 2.450000 2.550000 2.650000 2.750000 2.850000 2.950000 3.050000 3.150000 3.250000 3.350000 3.450000 3.550000 3.650000 3.750000 3.850000 3.950000 4.050000 4.150000 4.250000 4.350000 4.450000 4.550000 4.650000 4.750000 4.850000 4.950000 5.050000 5.150000 5.250000 5.350000 5.450000 5.550000 5.650000 5.750000 5.850000 5.950000 6.050000 6.150000 6.250000 6.350000 6.450000 6.550000 6.650000 6.750000 6.850000 6.950000 7.050000 7.150000 7.250000 7.350000 7.450000 7.550000 7.650000 7.750000 7.850000 7.950000 8.050000 8.150000 8.250000 8.350000 8.450000 8.550000 8.650000 8.750000 8.850000 8.950000 9.050000 9.150000 9.250000 9.350000 9.450000 9.550000 9.650000 9.750000 9.850000 9.950000 10.050000 10.150000 10.250000 10.350000 10.450000 10.550000 10.650000 10.750000 10.850000 10.950000 11.050000 11.150000 11.250000 11.350000 11.450000 11.550000 11.650000 11.750000 11.850000 11.950000 12.050000 12.150000 12.250000 12.350000 12.450000 12.550000 12.650000 12.750000 12.850000 12.950000 13.050000 13.150000 13.250000 13.350000 13.450000 13.550000 13.650000 13.750000 13.850000 13.950000 14.050000 14.150000 14.250000 14.350000 14.450000 14.550000 14.650000 14.750000 14.850000 14.950000 15.050000 15.150000 15.250000 15.350000 15.450000 15.550000 15.650000 15.750000 15.850000 15.950000 16.050000 16.150000 16.250000 16.350000 16.450000 16.550000 16.650000 16.750000 16.850000 16.950000 17.050000 17.150000 17.250000 17.350000 17.450000 17.550000 17.650000 17.750000 17.850000 17.950000 18.050000 18.150000 18.250000 18.350000 18.450000 18.550000 18.650000 18.750000 18.850000 18.950000 19.050000 19.150000 19.250000 19.350000 19.450000 19.550000 19.650000 19.750000 19.850000 19.950000 
Y_COORDINATES 75 double
0.050000 0.150000 0.250000 0.350000 0.450000 0.550000 0.650000 0.750000 0.850000 0.950000 1.050000 1.150000 1.250000 1.350000 1.450000 1.550000 1.650000 1.750000 1.850000 1.950000 2.050000 2.150000 2.250000 2.350000 2.450000 2.550000 2.650000 2.750000 2.850000 2.950000 3.050000 3.150000 3.250000 3.350000 3.450000 3.550000 3.650000 3.750000 3.850000 3.950000 4.050000 4.150000 4.250000 4.350000 4.450000 4.550000 4.650000 4.750000 4.850000 4.950000 5.050000 5.150000 5.250000 5.350000 5.450000 5.550000 5.650000 5.750000 5.850000 5.950000 6.050000 6.150000 6.250000 6.350000 6.450000 6.550000 6.650000 6.750000 6.850000 6.950000 7.050000 7.150000 7.250000 7.350000 7.450000 
Z_COORDINATES 1 double
0.0
POINT_DATA 15000
VECTORS Vektorfeld double
0.999659 0.000341 0.0
0.998748 0.000570 0.0
0.997533 0.000645 0.0
0.996230 0.000658 0.0
0.994929 0.000642 0.0
0.993680 0.000607 0.0
0.992513 0.000560 0.0
0.991449 0.000503 0.0
0.990507 0.000439 0.0
0.989698 0.000370 0.0
0.989029 0.000298 0.0
0.988505 0.000226 0.0
0.988121 0.000158 0.0
0.987867 0.000096 0.0
0.987725 0.000045 0.0
0.987672 0.000008 0.0
0.987676 -0.000012 0.0
0.987700 -0.000012 0.0
0.987702 0.000010 0.0
0.987638 0.000054 0.0
0.987466 0.000118 0.0
0.987148 0.000200 0.0
0.986651 0.000297 0.0
0.985953 0.000402 0.0
0.985041 0.000510 0.0
0.983915 0.000616 0.0
0.982585 0.000714 0.0
0.981070 0.000801 0.0
0.979398 0.000872 0.0
0.977601 0.000925 0.0
0.975715 0.000960 0.0
0.973778 0.000977 0.0
0.971823 0.000977 0.0
0.969885 0.000961 0.0
0.967991 0.000933 0.0
0.966165 0.000894 0.0
0.964424 0.000847 0.0
0.962779 0.000797 0.0
0.961236 0.000746 0.0
0.959791 0.000699 0.0
0.958435 0.000657 0.0
0.957152 0.000626 0.0
0.955919 0.000607 0.0
0.954708 0.000604 0.0
0.953485 0.000618 0.0
0.952217 0.000650 0.0
0.950868 0.000698 0.0
0.949409 0.000761 0.0
0.947816 0.000832 0.0
0.946077 0.000908 0.0
0.944188 0.000981 0.0
0.942162 0.001045 0.0
0.940020 0.001097 0.0
0.937793 0.001131 0.0
0.935518 0.001145 0.0
0.933234 0.001138 0.0
0.930985 0.001111 0.0
0.928808 0.001065 0.0
0.926741 0.001002 0.0
0.924817 0.000923 0.0
0.923062 0.000832 0.0
0.921498 0.000732 0.0
0.920141 0.000626 0.0
0.918997 0.000518 0.0
0.918068 0.000412 0.0
0.917344 0.000312 0.0
0.916808 0.000224 0.0
0.916430 0.000154 0.0
0.916171 0.000106 0.0
0.915980 0.000085 0.0
0.915799 0.000096 0.0
0.915562 0.000141 0.0
0.915202 0.000219 0.0
0.914657 0.000325 0.0
0.913880 0.000452 0.0
0.912837 0.000590 0.0
0.911519 0.000728 0.0
0.909936 0.000855 0.0
0.908116 0.000965 0.0
0.906100 0.001052 0.0
0.903932 0.001116 0.0
0.901661 0.001156 0.0
0.899331 0.001175 0.0
0.896981 0.001175 0.0
0.894645 0.001161 0.0
0.892350 0.001135 0.0
0.890114 0.001101 0.0
0.887951 0.001062 0.0
0.885867 0.001021 0.0
0.883864 0.000982 0.0
0.881937 0.000945 0.0
0.880077 0.000915 0.0
0.878271 0.000891 0.0
0.876502 0.000877 0.0
0.874754 0.000871 0.0
0.873008 0.000874 0.0
0.871249 0.000885 0.0
0.869465 0.000899 0.0
0.867651 0.000915 0.0
0.865809 0.000928 0.0
0.863948 0.000934 0.0
0.862085 0.000929 0.0
0.860244 0.000912 0.0
0.858453 0.000880 0.0
0.856741 0.000832 0.0
0.855140 0.000769 0.0
0.853679 0.000692 0.0
0.852383 0.000603 0.0
0.851275 0.000504 0.0
0.850372 0.000398 0.0
0.849687 0.000287 0.0
0.849226 0.000174 0.0
0.848992 0.000061 0.0
0.848987 -0.000056 0.0
0.849206 -0.000163 0.0
0.849622 -0.000253 0.0
0.850195 -0.000320 0.0
0.850876 -0.000360 0.0
0.851605 -0.000369 0.0
0.852320 -0.000345 0.0
0.852954 -0.000288 0.0
0.853444 -0.000202 0.0
0.853738 -0.000093 0.0
0.853806 0.000024 0.0
0.853639 0.000143 0.0
0.853238 0.000258 0.0
0.852620 0.000361 0.0
0.851814 0.000445 0.0
0.850863 0.000506 0.0
0.849814 0.000543 0.0
0.848718 0.000553 0.0
0.847625 0.000540 0.0
0.846579 0.000506 0.0
0.845619 0.000454 0.0
0.844777 0.000388 0.0
0.844076 0.000313 0.0
0.843528 0.000234 0.0
0.843141 0.000154 0.0
0.842908 0.000078 0.0
0.842820 0.000010 0.0
0.842856 -0.000047 0.0
0.842987 -0.000084 0.0
0.843169 -0.000098 0.0
0.843353 -0.000087 0.0
0.843491 -0.000051 0.0
0.843537 0.000004 0.0
0.843459 0.000075 0.0
0.843225 0.000159 0.0
0.842815 0.000252 0.0
0.842215 0.000348 0.0
0.841425 0.000442 0.0
0.840454 0.000529 0.0
0.839319 0.000605 0.0
0.838048 0.000666 0.0
0.836671 0.000710 0.0
0.835223 0.000737 0.0
0.833741 0.000746 0.0
0.832257 0.000738 0.0
0.830805 0.000715 0.0
0.829412 0.000679 0.0
0.828100 0.000633 0.0
0.826887 0.000581 0.0
0.825781 0.000526 0.0
0.824783 0.000472 0.0
0.823888 0.000423 0.0
0.823081 0.000384 0.0
0.822338 0.000358 0.0
0.821631 0.000349 0.0
0.820924 0.000358 0.0
0.820177 0.000388 0.0
0.819352 0.000437 0.0
0.818411 0.000503 0.0
0.817325 0.000583 0.0
0.816072 0.000670 0.0
0.814645 0.000758 0.0
0.813047 0.000840 0.0
0.811295 0.000911 0.0
0.809418 0.000966 0.0
0.807450 0.001002 0.0
0.805431 0.001016 0.0
0.803405 0.001010 0.0
0.801412 0.000983 0.0
0.799491 0.000938 0.0
0.797676 0.000876 0.0
0.795999 0.000801 0.0
0.794485 0.000714 0.0
0.793153 0.000618 0.0
0.792018 0.000517 0.0
0.791088 0.000413 0.0
0.790367 0.000309 0.0
0.789848 0.000209 0.0
0.789524 0.000115 0.0
0.789378 0.000031 0.0
0.789392 -0.000045 0.0
0.789540 -0.000104 0.0
0.789787 -0.000144 0.0
0.790098 -0.000167 0.0
0.790450 -0.000185 0.0
0.790867 -0.000231 0.0
0.791362 -0.000264 0.0
1.000203 0.000480 0.0
1.000677 0.000868 0.0
1.001233 0.001005 0.0
1.001816 0.001019 0.0
1.002438 0.000961 0.0
1.003121 0.000855 0.0
1.003887 0.000714 0.0
1.004755 0.000545 0.0
1.005742 0.000354 0.0
1.006859 0.000147 0.0
1.008115 -0.000067 0.0
1.009513 -0.000282 0.0
1.011050 -0.000487 0.0
1.012717 -0.000672 0.0
1.014496 -0.000825 0.0
1.016363 -0.000936 0.0
1.018285 -0.000994 0.0
1.020223 -0.000991 0.0
1.022133 -0.000922 0.0
1.023970 -0.000787 0.0
1.025688 -0.000588 0.0
1.027245 -0.000333 0.0
1.028608 -0.000036 0.0
1.029753 0.000288 0.0
1.030666 0.000622 0.0
1.031349 0.000948 0.0
1.031812 0.001250 0.0
1.032077 0.001515 0.0
1.032174 0.001733 0.0
1.032138 0.001897 0.0
1.032008 0.002005 0.0
1.031821 0.002057 0.0
1.031615 0.002058 0.0
1.031422 0.002011 0.0
1.031274 0.001926 0.0
1.031192 0.001809 0.0
1.031196 0.001670 0.0
1.031295 0.001519 0.0
1.031496 0.001367 0.0
1.031795 0.001224 0.0
1.032183 0.001100 0.0
1.032643 0.001006 0.0
1.033150 0.000952 0.0
1.033676 0.000945 0.0
1.034186 0.000991 0.0
1.034642 0.001090 0.0
1.035008 0.001241 0.0
1.035250 0.001435 0.0
1.035344 0.001657 0.0
1.035274 0.001892 0.0
1.035039 0.002119 0.0
1.034651 0.002321 0.0
1.034135 0.002480 0.0
1.033523 0.002586 0.0
1.032856 0.002632 0.0
1.032176 0.002614 0.0
1.031526 0.002535 0.0
1.030948 0.002397 0.0
1.030478 0.002207 0.0
1.030149 0.001971 0.0
1.029989 0.001699 0.0
1.030020 0.001398 0.0
1.030257 0.001080 0.0
1.030709 0.000755 0.0
1.031375 0.000436 0.0
1.032250 0.000136 0.0
1.033316 -0.000129 0.0
1.034544 -0.000343 0.0
1.035894 -0.000489 0.0
1.037314 -0.000550 0.0
1.038739 -0.000514 0.0
1.040101 -0.000373 0.0
1.041325 -0.000131 0.0
1.042345 0.000199 0.0
1.043107 0.000593 0.0
1.043582 0.001018 0.0
1.043760 0.001440 0.0
1.043655 0.001830 0.0
1.043302 0.002163 0.0
1.042745 0.002427 0.0
1.042035 0.002618 0.0
1.041222 0.002738 0.0
1.040351 0.002793 0.0
1.039463 0.002794 0.0
1.038590 0.002750 0.0
1.037758 0.002673 0.0
1.036985 0.002572 0.0
1.036280 0.002458 0.0
1.035650 0.002340 0.0
1.035090 0.002226 0.0
1.034593 0.002125 0.0
1.034143 0.002045 0.0
1.033720 0.001990 0.0
1.033300 0.001966 0.0
1.032856 0.001975 0.0
1.032360 0.002014 0.0
1.031785 0.002079 0.0
1.031112 0.002162 0.0
1.030326 0.002252 0.0
1.029424 0.002335 0.0
1.028411 0.002400 0.0
1.027304 0.002433 0.0
1.026126 0.002427 0.0
1.024908 0.002374 0.0
1.023685 0.002273 0.0
1.022491 0.002123 0.0
1.021362 0.001928 0.0
1.020332 0.001693 0.0
1.019430 0.001425 0.0
1.018680 0.001130 0.0
1.018102 0.000818 0.0
1.017709 0.000498 0.0
1.017503 0.000177 0.0
1.017472 -0.000137 0.0
1.017595 -0.000424 0.0
1.017856 -0.000668 0.0
1.018232 -0.000854 0.0
1.018693 -0.000968 0.0
1.019201 -0.000999 0.0
1.019710 -0.000940 0.0
1.020171 -0.000789 0.0
1.020534 -0.000555 0.0
1.020753 -0.000253 0.0
1.020780 0.000089 0.0
1.020581 0.000445 0.0
1.020146 0.000791 0.0
1.019490 0.001101 0.0
1.018644 0.001355 0.0
1.017654 0.001538 0.0
1.016569 0.001644 0.0
1.015443 0.001673 0.0
1.014326 0.001630 0.0
1.013264 0.001524 0.0
1.012293 0.001366 0.0
1.011445 0.001166 0.0
1.010742 0.000940 0.0
1.010196 0.000700 0.0
1.009813 0.000459 0.0
1.009586 0.000233 0.0
1.009499 0.000032 0.0
1.009523 -0.000130 0.0
1.009628 -0.000237 0.0
1.009780 -0.000279 0.0
1.009941 -0.000251 0.0
1.010071 -0.000154 0.0
1.010128 0.000005 0.0
1.010064 0.000217 0.0
1.009844 0.000470 0.0
1.009444 0.000751 0.0
1.008850 0.001042 0.0
1.008061 0.001327 0.0
1.007087 0.001590 0.0
1.005947 0.001819 0.0
1.004668 0.002003 0.0
1.003282 0.002136 0.0
1.001824 0.002217 0.0
1.000329 0.002244 0.0
0.998831 0.002221 0.0
0.997361 0.002153 0.0
0.995946 0.002048 0.0
0.994606 0.001915 0.0
0.993356 0.001762 0.0
0.992204 0.001603 0.0
0.991149 0.001447 0.0
0.990184 0.001308 0.0
0.989294 0.001197 0.0
0.988456 0.001126 0.0
0.987639 0.001105 0.0
0.986809 0.001140 0.0
0.985926 0.001236 0.0
0.984951 0.001390 0.0
0.983847 0.001595 0.0
0.982586 0.001839 0.0
0.981148 0.002105 0.0
0.979526 0.002372 0.0
0.977730 0.002621 0.0
0.975779 0.002833 0.0
0.973707 0.002995 0.0
0.971551 0.003097 0.0
0.969357 0.003134 0.0
0.967167 0.003108 0.0
0.965025 0.003021 0.0
0.962969 0.002878 0.0
0.961034 0.002686 0.0
0.959251 0.002452 0.0
0.957642 0.002185 0.0
0.956228 0.001893 0.0
0.955021 0.001584 0.0
0.954029 0.001267 0.0
0.953255 0.000952 0.0
0.952692 0.000647 0.0
0.952331 0.000363 0.0
0.952152 0.000109 0.0
0.952123 -0.000108 0.0
0.952208 -0.000275 0.0
0.952374 -0.000385 0.0
0.952583 -0.000445 0.0
0.952794 -0.000471 0.0
0.952949 -0.000516 0.0
0.953001 -0.000526 0.0
1.000086 0.000191 0.0
1.000350 0.000418 0.0
1.000755 0.000493 0.0
1.001248 0.000455 0.0
1.001817 0.000333 0.0
1.002469 0.000147 0.0
1.003219 -0.000093 0.0
1.004081 -0.000378 0.0
1.005071 -0.000699 0.0
1.006202 -0.001047 0.0
1.007482 -0.001409 0.0
1.008917 -0.001773 0.0
1.010505 -0.002121 0.0
1.012236 -0.002436 0.0
1.014094 -0.002698 0.0
1.016054 -0.002889 0.0
1.018082 -0.002990 0.0
1.020136 -0.002987 0.0
1.022170 -0.002871 0.0
1.024134 -0.002638 0.0
1.025976 -0.002296 0.0
1.027652 -0.001858 0.0
1.029125 -0.001347 0.0
1.030367 -0.000789 0.0
1.031367 -0.000215 0.0
1.032126 0.000344 0.0
1.032657 0.000860 0.0
1.032987 0.001310 0.0
1.033148 0.001678 0.0
1.033180 0.001954 0.0
1.033124 0.002134 0.0
1.033021 0.002218 0.0
1.032909 0.002215 0.0
1.032822 0.002133 0.0
1.032791 0.001984 0.0
1.032838 0.001784 0.0
1.032982 0.001547 0.0
1.033234 0.001290 0.0
1.033598 0.001031 0.0
1.034072 0.000787 0.0
1.034646 0.000575 0.0
1.035305 0.000413 0.0
1.036025 0.000318 0.0
1.036774 0.000304 0.0
1.037517 0.000379 0.0
1.038213 0.000549 0.0
1.038820 0.000809 0.0
1.039302 0.001143 0.0
1.039628 0.001529 0.0
1.039782 0.001937 0.0
1.039760 0.002331 0.0
1.039576 0.002680 0.0
1.039257 0.002956 0.0
1.038841 0.003139 0.0
1.038370 0.003218 0.0
1.037889 0.003189 0.0
1.037441 0.003057 0.0
1.037068 0.002827 0.0
1.036806 0.002509 0.0
1.036685 0.002118 0.0
1.036732 0.001665 0.0
1.036968 0.001166 0.0
1.037407 0.000637 0.0
1.038058 0.000096 0.0
1.038924 -0.000437 0.0
1.039997 -0.000939 0.0
1.041264 -0.001386 0.0
1.042699 -0.001749 0.0
1.044267 -0.002000 0.0
1.045921 -0.002111 0.0
1.047599 -0.002056 0.0
1.049230 -0.001822 0.0
1.050735 -0.001411 0.0
1.052039 -0.000845 0.0
1.053081 -0.000167 0.0
1.053821 0.000564 0.0
1.054252 0.001286 0.0
1.054395 0.001945 0.0
1.054291 0.002504 0.0
1.053994 0.002941 0.0
1.053558 0.003251 0.0
1.053034 0.003441 0.0
1.052469 0.003526 0.0
1.051898 0.003521 0.0
1.051350 0.003444 0.0
1.050846 0.003316 0.0
1.050398 0.003151 0.0
1.050013 0.002968 0.0
1.049691 0.002782 0.0
1.049426 0.002609 0.0
1.049203 0.002462 0.0
1.049005 0.002355 0.0
1.048808 0.002299 0.0
1.048583 0.002302 0.0
1.048299 0.002367 0.0
1.047926 0.002491 0.0
1.047435 0.002667 0.0
1.046804 0.002879 0.0
1.046019 0.003106 0.0
1.045078 0.003324 0.0
1.043990 0.003511 0.0
1.042776 0.003643 0.0
1.041466 0.003705 0.0
1.040095 0.003684 0.0
1.038704 0.003578 0.0
1.037331 0.003384 0.0
1.036016 0.003111 0.0
1.034792 0.002764 0.0
1.033691 0.002357 0.0
1.032737 0.001902 0.0
1.031949 0.001412 0.0
1.031342 0.000905 0.0
1.030920 0.000397 0.0
1.030685 -0.000090 0.0
1.030629 -0.000538 0.0
1.030737 -0.000924 0.0
1.030986 -0.001224 0.0
1.031346 -0.001418 0.0
1.031776 -0.001485 0.0
1.032225 -0.001412 0.0
1.032640 -0.001192 0.0
1.032959 -0.000834 0.0
1.033128 -0.000360 0.0
1.033101 0.000196 0.0
1.032850 0.000788 0.0
1.032369 0.001364 0.0
1.031674 0.001879 0.0
1.030800 0.002297 0.0
1.029793 0.002594 0.0
1.028705 0.002761 0.0
1.027587 0.002800 0.0
1.026487 0.002721 0.0
1.025445 0.002538 0.0
1.024495 0.002271 0.0
1.023665 0.001939 0.0
1.022972 0.001563 0.0
1.022429 0.001165 0.0
1.022040 0.000767 0.0
1.021800 0.000392 0.0
1.021697 0.000062 0.0
1.021712 -0.000199 0.0
1.021816 -0.000375 0.0
1.021974 -0.000450 0.0
1.022148 -0.000415 0.0
1.022295 -0.000268 0.0
1.022370 -0.000013 0.0
1.022334 0.000334 0.0
1.022155 0.000752 0.0
1.021807 0.001217 0.0
1.021278 0.001699 0.0
1.020567 0.002170 0.0
1.019683 0.002605 0.0
1.018645 0.002982 0.0
1.017477 0.003286 0.0
1.016210 0.003507 0.0
1.014873 0.003641 0.0
1.013499 0.003689 0.0
1.012116 0.003657 0.0
1.010749 0.003554 0.0
1.009421 0.003391 0.0
1.008149 0.003184 0.0
1.006944 0.002947 0.0
1.005815 0.002700 0.0
1.004761 0.002459 0.0
1.003778 0.002244 0.0
1.002853 0.002076 0.0
1.001968 0.001971 0.0
1.001099 0.001946 0.0
1.000214 0.002014 0.0
0.999277 0.002181 0.0
0.998252 0.002445 0.0
0.997102 0.002793 0.0
0.995798 0.003206 0.0
0.994322 0.003652 0.0
0.992669 0.004099 0.0
0.990848 0.004511 0.0
0.988882 0.004858 0.0
0.986807 0.005117 0.0
0.984663 0.005274 0.0
0.982494 0.005322 0.0
0.980342 0.005263 0.0
0.978247 0.005103 0.0
0.976244 0.004853 0.0
0.974364 0.004524 0.0
0.972632 0.004129 0.0
0.971069 0.003680 0.0
0.969690 0.003191 0.0
0.968508 0.002675 0.0
0.967529 0.002146 0.0
0.966756 0.001620 0.0
0.966186 0.001111 0.0
0.965810 0.000636 0.0
0.965614 0.000212 0.0
0.965573 -0.000142 0.0
0.965659 -0.000412 0.0
0.965830 -0.000586 0.0
0.966041 -0.000664 0.0
0.966236 -0.000658 0.0
0.966353 -0.000600 0.0
0.966348 -0.000489 0.0
1.000048 0.000057 0.0
1.000218 0.000118 0.0
1.000518 0.000088 0.0
1.000918 -0.000033 0.0
1.001409 -0.000238 0.0
1.001994 -0.000519 0.0
1.002687 -0.000869 0.0
1.003501 -0.001279 0.0
1.004454 -0.001741 0.0
1.005560 -0.002242 0.0
1.006831 -0.002766 0.0
1.008275 -0.003294 0.0
1.009891 -0.003804 0.0
1.011675 -0.004268 0.0
1.013609 -0.004659 0.0
1.015667 -0.004947 0.0
1.017814 -0.005106 0.0
1.020002 -0.005114 0.0
1.022177 -0.004953 0.0
1.024279 -0.004621 0.0
1.026249 -0.004125 0.0
1.028029 -0.003486 0.0
1.029576 -0.002738 0.0
1.030857 -0.001921 0.0
1.031857 -0.001083 0.0
1.032581 -0.000270 0.0
1.033046 0.000477 0.0
1.033287 0.001124 0.0
1.033344 0.001647 0.0
1.033264 0.002033 0.0
1.033096 0.002279 0.0
1.032886 0.002387 0.0
1.032677 0.002367 0.0
1.032508 0.002236 0.0
1.032411 0.002010 0.0
1.032410 0.001711 0.0
1.032526 0.001361 0.0
1.032769 0.000982 0.0
1.033145 0.000599 0.0
1.033653 0.000237 0.0
1.034282 -0.000080 0.0
1.035016 -0.000325 0.0
1.035829 -0.000476 0.0
1.036687 -0.000510 0.0
1.037548 -0.000411 0.0
1.038363 -0.000171 0.0
1.039079 0.000205 0.0
1.039648 0.000696 0.0
1.040029 0.001269 0.0
1.040199 0.001874 0.0
1.040155 0.002460 0.0
1.039913 0.002976 0.0
1.039511 0.003381 0.0
1.038994 0.003647 0.0
1.038415 0.003760 0.0
1.037827 0.003716 0.0
1.037280 0.003524 0.0
1.036818 0.003194 0.0
1.036480 0.002743 0.0
1.036298 0.002187 0.0
1.036299 0.001547 0.0
1.036506 0.000842 0.0
1.036933 0.000094 0.0
1.037593 -0.000673 0.0
1.038490 -0.001431 0.0
1.039622 -0.002150 0.0
1.040977 -0.002797 0.0
1.042535 -0.003332 0.0
1.044261 -0.003713 0.0
1.046106 -0.003897 0.0
1.048000 -0.003842 0.0
1.049855 -0.003523 0.0
1.051573 -0.002933 0.0
1.053050 -0.002104 0.0
1.054204 -0.001103 0.0
1.054987 -0.000023 0.0
1.055395 0.001034 0.0
1.055463 0.001986 0.0
1.055254 0.002775 0.0
1.054842 0.003378 0.0
1.054297 0.003794 0.0
1.053681 0.004038 0.0
1.053043 0.004133 0.0
1.052422 0.004106 0.0
1.051846 0.003984 0.0
1.051333 0.003793 0.0
1.050895 0.003559 0.0
1.050537 0.003303 0.0
1.050256 0.003050 0.0
1.050046 0.002818 0.0
1.049890 0.002631 0.0
1.049770 0.002506 0.0
1.049657 0.002459 0.0
1.049521 0.002504 0.0
1.049323 0.002646 0.0
1.049028 0.002881 0.0
1.048599 0.003198 0.0
1.048007 0.003571 0.0
1.047234 0.003971 0.0
1.046277 0.004358 0.0
1.045147 0.004696 0.0
1.043868 0.004951 0.0
1.042477 0.005098 0.0
1.041016 0.005122 0.0
1.039532 0.005016 0.0
1.038070 0.004781 0.0
1.036670 0.004428 0.0
1.035372 0.003969 0.0
1.034207 0.003420 0.0
1.033200 0.002800 0.0
1.032373 0.002128 0.0
1.031741 0.001428 0.0
1.031312 0.000724 0.0
1.031090 0.000041 0.0
1.031070 -0.000593 0.0
1.031240 -0.001147 0.0
1.031578 -0.001589 0.0
1.032051 -0.001887 0.0
1.032616 -0.002011 0.0
1.033215 -0.001935 0.0
1.033780 -0.001648 0.0
1.034235 -0.001154 0.0
1.034508 -0.000482 0.0
1.034538 0.000315 0.0
1.034291 0.001167 0.0
1.033760 0.001996 0.0
1.032971 0.002731 0.0
1.031972 0.003318 0.0
1.030825 0.003727 0.0
1.029595 0.003946 0.0
1.028346 0.003983 0.0
1.027129 0.003855 0.0
1.025991 0.003585 0.0
1.024965 0.003200 0.0
1.024080 0.002726 0.0
1.023355 0.002194 0.0
1.022801 0.001631 0.0
1.022423 0.001068 0.0
1.022217 0.000536 0.0
1.022172 0.000066 0.0
1.022267 -0.000312 0.0
1.022471 -0.000570 0.0
1.022744 -0.000687 0.0
1.023039 -0.000648 0.0
1.023306 -0.000448 0.0
1.023492 -0.000094 0.0
1.023549 0.000393 0.0
1.023439 0.000984 0.0
1.023132 0.001640 0.0
1.022616 0.002321 0.0
1.021891 0.002985 0.0
1.020969 0.003595 0.0
1.019876 0.004123 0.0
1.018644 0.004546 0.0
1.017306 0.004852 0.0
1.015899 0.005038 0.0
1.014459 0.005106 0.0
1.013018 0.005065 0.0
1.011604 0.004927 0.0
1.010240 0.004710 0.0
1.008944 0.004433 0.0
1.007731 0.004116 0.0
1.006607 0.003784 0.0
1.005575 0.003461 0.0
1.004629 0.003172 0.0
1.003760 0.002943 0.0
1.002946 0.002801 0.0
1.002162 0.002769 0.0
1.001372 0.002867 0.0
1.000532 0.003105 0.0
0.999597 0.003482 0.0
0.998519 0.003983 0.0
0.997261 0.004578 0.0
0.995795 0.005222 0.0
0.994115 0.005863 0.0
0.992233 0.006451 0.0
0.990178 0.006938 0.0
0.987996 0.007294 0.0
0.985737 0.007499 0.0
0.983454 0.007548 0.0
0.981196 0.007446 0.0
0.979006 0.007205 0.0
0.976922 0.006839 0.0
0.974973 0.006367 0.0
0.973187 0.005805 0.0
0.971582 0.005172 0.0
0.970174 0.004485 0.0
0.968974 0.003762 0.0
0.967991 0.003021 0.0
0.967228 0.002282 0.0
0.966683 0.001565 0.0
0.966349 0.000892 0.0
0.966212 0.000289 0.0
0.966252 -0.000218 0.0
0.966436 -0.000604 0.0
0.966717 -0.000847 0.0
0.967036 -0.000933 0.0
0.967322 -0.000870 0.0
0.967502 -0.000686 0.0
0.967518 -0.000415 0.0
1.000031 -0.000022 0.0
1.000150 -0.000092 0.0
1.000373 -0.000225 0.0
1.000690 -0.000437 0.0
1.001099 -0.000733 0.0
1.001606 -0.001117 0.0
1.002226 -0.001584 0.0
1.002976 -0.002129 0.0
1.003877 -0.002744 0.0
1.004946 -0.003414 0.0
1.006200 -0.004119 0.0
1.007651 -0.004836 0.0
1.009304 -0.005532 0.0
1.011155 -0.006174 0.0
1.013191 -0.006722 0.0
1.015384 -0.007136 0.0
1.017695 -0.007376 0.0
1.020071 -0.007408 0.0
1.022446 -0.007209 0.0
1.024747 -0.006769 0.0
1.026899 -0.006098 0.0
1.028829 -0.005225 0.0
1.030481 -0.004197 0.0
1.031813 -0.003075 0.0
1.032811 -0.001927 0.0
1.033479 -0.000818 0.0
1.033845 0.000193 0.0
1.033952 0.001059 0.0
1.033855 0.001751 0.0
1.033612 0.002252 0.0
1.033280 0.002559 0.0
1.032916 0.002680 0.0
1.032568 0.002630 0.0
1.032279 0.002431 0.0
1.032085 0.002108 0.0
1.032012 0.001688 0.0
1.032081 0.001200 0.0
1.032305 0.000675 0.0
1.032691 0.000144 0.0
1.033236 -0.000361 0.0
1.033932 -0.000807 0.0
1.034762 -0.001161 0.0
1.035698 -0.001389 0.0
1.036702 -0.001459 0.0
1.037723 -0.001344 0.0
1.038702 -0.001030 0.0
1.039569 -0.000519 0.0
1.040256 0.000164 0.0
1.040705 0.000969 0.0
1.040884 0.001825 0.0
1.040785 0.002652 0.0
1.040436 0.003375 0.0
1.039884 0.003936 0.0
1.039194 0.004299 0.0
1.038434 0.004447 0.0
1.037669 0.004382 0.0
1.036956 0.004118 0.0
1.036346 0.003673 0.0
1.035878 0.003070 0.0
1.035588 0.002332 0.0
1.035504 0.001485 0.0
1.035649 0.000553 0.0
1.036041 -0.000437 0.0
1.036693 -0.001455 0.0
1.037615 -0.002467 0.0
1.038807 -0.003438 0.0
1.040266 -0.004323 0.0
1.041974 -0.005072 0.0
1.043901 -0.005627 0.0
1.045998 -0.005924 0.0
1.048188 -0.005898 0.0
1.050362 -0.005497 0.0
1.052385 -0.004699 0.0
1.054111 -0.003541 0.0
1.055414 -0.002124 0.0
1.056228 -0.000598 0.0
1.056553 0.000876 0.0
1.056457 0.002172 0.0
1.056040 0.003215 0.0
1.055407 0.003983 0.0
1.054653 0.004488 0.0
1.053854 0.004760 0.0
1.053064 0.004838 0.0
1.052323 0.004762 0.0
1.051657 0.004570 0.0
1.051083 0.004295 0.0
1.050611 0.003968 0.0
1.050242 0.003621 0.0
1.049975 0.003280 0.0
1.049801 0.002974 0.0
1.049703 0.002729 0.0
1.049660 0.002571 0.0
1.049640 0.002525 0.0
1.049606 0.002608 0.0
1.049514 0.002831 0.0
1.049314 0.003191 0.0
1.048959 0.003672 0.0
1.048409 0.004239 0.0
1.047640 0.004845 0.0
1.046643 0.005437 0.0
1.045432 0.005957 0.0
1.044042 0.006359 0.0
1.042517 0.006606 0.0
1.040914 0.006678 0.0
1.039287 0.006570 0.0
1.037691 0.006286 0.0
1.036173 0.005841 0.0
1.034774 0.005254 0.0
1.033527 0.004547 0.0
1.032462 0.003745 0.0
1.031599 0.002873 0.0
1.030955 0.001960 0.0
1.030541 0.001035 0.0
1.030363 0.000130 0.0
1.030419 -0.000718 0.0
1.030699 -0.001471 0.0
1.031184 -0.002087 0.0
1.031841 -0.002520 0.0
1.032622 -0.002724 0.0
1.033461 -0.002659 0.0
1.034271 -0.002299 0.0
1.034954 -0.001641 0.0
1.035408 -0.000721 0.0
1.035545 0.000386 0.0
1.035316 0.001573 0.0
1.034714 0.002723 0.0
1.033781 0.003728 0.0
1.032588 0.004514 0.0
1.031225 0.005041 0.0
1.029780 0.005306 0.0
1.028331 0.005323 0.0
1.026940 0.005122 0.0
1.025656 0.004739 0.0
1.024517 0.004210 0.0
1.023550 0.003569 0.0
1.022774 0.002853 0.0
1.022203 0.002098 0.0
1.021842 0.001341 0.0
1.021688 0.000622 0.0
1.021730 -0.000018 0.0
1.021945 -0.000538 0.0
1.022298 -0.000901 0.0
1.022742 -0.001074 0.0
1.023221 -0.001035 0.0
1.023669 -0.000776 0.0
1.024022 -0.000305 0.0
1.024217 0.000350 0.0
1.024205 0.001149 0.0
1.023951 0.002036 0.0
1.023439 0.002954 0.0
1.022673 0.003844 0.0
1.021673 0.004657 0.0
1.020473 0.005353 0.0
1.019115 0.005906 0.0
1.017643 0.006301 0.0
1.016103 0.006535 0.0
1.014538 0.006614 0.0
1.012983 0.006552 0.0
1.011473 0.006365 0.0
1.010032 0.006076 0.0
1.008684 0.005711 0.0
1.007441 0.005294 0.0
1.006314 0.004857 0.0
1.005307 0.004428 0.0
1.004415 0.004041 0.0
1.003627 0.003730 0.0
1.002925 0.003530 0.0
1.002276 0.003473 0.0
1.001640 0.003590 0.0
1.000962 0.003899 0.0
1.000179 0.004405 0.0
0.999228 0.005088 0.0
0.998052 0.005907 0.0
0.996613 0.006798 0.0
0.994897 0.007683 0.0
0.992922 0.008488 0.0
0.990730 0.009147 0.0
0.988382 0.009616 0.0
0.985944 0.009874 0.0
0.983484 0.009917 0.0
0.981060 0.009759 0.0
0.978722 0.009420 0.0
0.976508 0.008922 0.0
0.974451 0.008289 0.0
0.972576 0.007545 0.0
0.970901 0.006712 0.0
0.969443 0.005811 0.0
0.968214 0.004864 0.0
0.967222 0.003894 0.0
0.966471 0.002923 0.0
0.965962 0.001978 0.0
0.965690 0.001085 0.0
0.965646 0.000277 0.0
0.965809 -0.000409 0.0
0.966147 -0.000935 0.0
0.966607 -0.001258 0.0
0.967114 -0.001348 0.0
0.967570 -0.001197 0.0
0.967874 -0.000842 0.0
0.967936 -0.000337 0.0
1.000021 -0.000073 0.0
1.000101 -0.000240 0.0
1.000260 -0.000459 0.0
1.000496 -0.000755 0.0
1.000815 -0.001142 0.0
1.001230 -0.001630 0.0
1.001759 -0.002220 0.0
1.002426 -0.002910 0.0
1.003255 -0.003693 0.0
1.004271 -0.004551 0.0
1.005497 -0.005462 0.0
1.006950 -0.006397 0.0
1.008642 -0.007316 0.0
1.010575 -0.008174 0.0
1.012739 -0.008920 0.0
1.015107 -0.009499 0.0
1.017636 -0.009853 0.0
1.020265 -0.009935 0.0
1.022913 -0.009706 0.0
1.025489 -0.009149 0.0
1.027893 -0.008274 0.0
1.030031 -0.007119 0.0
1.031827 -0.005750 0.0
1.033229 -0.004256 0.0
1.034216 -0.002730 0.0
1.034801 -0.001267 0.0
1.035025 0.000053 0.0
1.034945 0.001171 0.0
1.034636 0.002047 0.0
1.034170 0.002666 0.0
1.033621 0.003027 0.0
1.033053 0.003145 0.0
1.032523 0.003043 0.0
1.032079 0.002751 0.0
1.031760 0.002302 0.0
1.031594 0.001732 0.0
1.031604 0.001077 0.0
1.031803 0.000374 0.0
1.032199 -0.000337 0.0
1.032791 -0.001018 0.0
1.033571 -0.001627 0.0
1.034523 -0.002123 0.0
1.035620 -0.002460 0.0
1.036820 -0.002592 0.0
1.038065 -0.002478 0.0
1.039276 -0.002087 0.0
1.040361 -0.001414 0.0
1.041223 -0.000488 0.0
1.041775 0.000620 0.0
1.041966 0.001805 0.0
1.041788 0.002948 0.0
1.041280 0.003937 0.0
1.040515 0.004691 0.0
1.039584 0.005165 0.0
1.038577 0.005347 0.0
1.037576 0.005248 0.0
1.036647 0.004892 0.0
1.035846 0.004310 0.0
1.035215 0.003531 0.0
1.034787 0.002587 0.0
1.034594 0.001508 0.0
1.034657 0.000322 0.0
1.034999 -0.000939 0.0
1.035635 -0.002241 0.0
1.036579 -0.003546 0.0
1.037838 -0.004811 0.0
1.039414 -0.005985 0.0
1.041302 -0.007006 0.0
1.043481 -0.007799 0.0
1.045906 -0.008275 0.0
1.048499 -0.008330 0.0
1.051127 -0.007867 0.0
1.053601 -0.006826 0.0
1.055699 -0.005238 0.0
1.057221 -0.003253 0.0
1.058060 -0.001121 0.0
1.058238 0.000896 0.0
1.057876 0.002609 0.0
1.057141 0.003930 0.0
1.056192 0.004851 0.0
1.055153 0.005413 0.0
1.054112 0.005674 0.0
1.053128 0.005697 0.0
1.052238 0.005535 0.0
1.051462 0.005238 0.0
1.050813 0.004848 0.0
1.050299 0.004402 0.0
1.049919 0.003935 0.0
1.049670 0.003481 0.0
1.049542 0.003075 0.0
1.049519 0.002749 0.0
1.049576 0.002537 0.0
1.049681 0.002474 0.0
1.049787 0.002587 0.0
1.049840 0.002893 0.0
1.049774 0.003395 0.0
1.049524 0.004072 0.0
1.049034 0.004878 0.0
1.048264 0.005746 0.0
1.047203 0.006594 0.0
1.045871 0.007343 0.0
1.044312 0.007923 0.0
1.042592 0.008287 0.0
1.040782 0.008411 0.0
1.038954 0.008292 0.0
1.037171 0.007943 0.0
1.035489 0.007385 0.0
1.033951 0.006647 0.0
1.032594 0.005757 0.0
1.031447 0.004747 0.0
1.030532 0.003648 0.0
1.029867 0.002493 0.0
1.029465 0.001317 0.0
1.029335 0.000157 0.0
1.029479 -0.000944 0.0
1.029892 -0.001938 0.0
1.030558 -0.002772 0.0
1.031450 -0.003384 0.0
1.032517 -0.003709 0.0
1.033684 -0.003681 0.0
1.034843 -0.003247 0.0
1.035857 -0.002390 0.0
1.036579 -0.001147 0.0
1.036877 0.000376 0.0
1.036672 0.002017 0.0
1.035960 0.003593 0.0
1.034807 0.004944 0.0
1.033332 0.005966 0.0
1.031664 0.006619 0.0
1.029926 0.006911 0.0
1.028213 0.006879 0.0
1.026597 0.006572 0.0
1.025131 0.006040 0.0
1.023849 0.005330 0.0
1.022779 0.004486 0.0
1.021940 0.003551 0.0
1.021345 0.002566 0.0
1.021003 0.001576 0.0
1.020914 0.000630 0.0
1.021067 -0.000220 0.0
1.021437 -0.000921 0.0
1.021987 -0.001421 0.0
1.022661 -0.001672 0.0
1.023388 -0.001642 0.0
1.024085 -0.001315 0.0
1.024666 -0.000700 0.0
1.025051 0.000166 0.0
1.025172 0.001225 0.0
1.024985 0.002401 0.0
1.024473 0.003613 0.0
1.023644 0.004780 0.0
1.022530 0.005835 0.0
1.021179 0.006727 0.0
1.019648 0.007423 0.0
1.017995 0.007909 0.0
1.016277 0.008185 0.0
1.014544 0.008263 0.0
1.012841 0.008161 0.0
1.011205 0.007903 0.0
1.009665 0.007519 0.0
1.008245 0.007037 0.0
1.006962 0.006493 0.0
1.005828 0.005919 0.0
1.004847 0.005354 0.0
1.004019 0.004836 0.0
1.003335 0.004408 0.0
1.002775 0.004115 0.0
1.002306 0.004005 0.0
1.001879 0.004121 0.0
1.001427 0.004499 0.0
1.000863 0.005151 0.0
1.000097 0.006059 0.0
0.999044 0.007166 0.0
0.997644 0.008379 0.0
0.995877 0.009585 0.0
0.993767 0.010671 0.0
0.991377 0.011545 0.0
0.988794 0.012149 0.0
0.986111 0.012461 0.0
0.983414 0.012487 0.0
0.980774 0.012254 0.0
0.978245 0.011792 0.0
0.975870 0.011138 0.0
0.973678 0.010322 0.0
0.971692 0.009374 0.0
0.969931 0.008319 0.0
0.968411 0.007183 0.0
0.967143 0.005990 0.0
0.966136 0.004767 0.0
0.965397 0.003540 0.0
0.964929 0.002338 0.0
0.964732 0.001194 0.0
0.964800 0.000145 0.0
0.965121 -0.000761 0.0
0.965667 -0.001466 0.0
0.966382 -0.001902 0.0
0.967174 -0.002002 0.0
0.967905 -0.001731 0.0
0.968415 -0.001123 0.0
0.968557 -0.000259 0.0
1.000011 -0.000105 0.0
1.000057 -0.000335 0.0
1.000151 -0.000617 0.0
1.000300 -0.000982 0.0
1.000517 -0.001451 0.0
1.000821 -0.002040 0.0
1.001237 -0.002756 0.0
1.001796 -0.003600 0.0
1.002529 -0.004565 0.0
1.003469 -0.005634 0.0
1.004647 -0.006783 0.0
1.006091 -0.007974 0.0
1.007821 -0.009161 0.0
1.009846 -0.010288 0.0
1.012163 -0.011287 0.0
1.014748 -0.012085 0.0
1.017557 -0.012605 0.0
1.020518 -0.012773 0.0
1.023533 -0.012531 0.0
1.026481 -0.011848 0.0
1.029231 -0.010729 0.0