# vtk DataFile Version 3.0
Vector Field
ASCII
DATASET RECTILINEAR_GRID
DIMENSIONS 200 75 1
X_COORDINATES 200 double
0.050000 0.150000 0.250000 0.350000 0.450000 0.550000 0.650000 0.750000 0.850000 0.950000 1.050000 1.150000 1.250000 1.350000 1.450000 1.550000 1.650000 1.750000 1.850000 1.950000 2.050000 2.150000 2.250000 2.350000 2.450000 2.550000 2.650000 2.750000 2.850000 2.950000 3.050000 3.150000 3.250000 3.350000 3.450000 3.550000 3.650000 3.750000 3.850000 3.950000 4.050000 4.150000 4.250000 4.350000 4.450000 4.550000 4.650000 4.750000 4.850000 4.950000 5.050000 5.150000 5.250000 5.350000 5.450000 5.550000 5.650000 5.750000 5.850000 5.950000 6.050000 6.150000 6.250000 6.350000 6.450000 6.550000 6.650000 6.750000 6.850000 6.950000 7.050000 7.150000 7.250000 7.350000 7.450000 7.550000 7.650000 7.750000 7.850000 7.950000 8.050000 8.150000 8.250000 8.350000 8.450000 8.550000 8.650000 8.750000 8.850000 8.950000 9.050000 9.150000 9.250000 9.350000 9.450000 9.550000 9.650000 9.750000 9.850000 9.950000 10.050000 10.150000 10.250000 10.350000 10.450000 10.550000 10.650000 10.750000 10.850000 10.950000 11.050000 11.150000 11.250000 11.350000 11.450000 11.550000 11.650000 11.750000 11.850000 11.950000 12.050000 12.150000 12.250000 12.350000 12.450000 12.550000 12.650000 12.750000 12.850000 12.950000 13.050000 13.150000 13.250000 13.350000 13.450000 13.550000 13.650000 13.750000 13.850000 13.950000 14.050000 14.150000 14.250000 14.350000 14.450000 14.550000 14.650000 14.750000 14.850000 14.950000 15.050000 15.150000 15.250000 15.350000 15.450000 15.550000 15.650000 15.750000 15.850000 15.950000 16.050000 16.150000 16.250000 16.350000 16.450000 16.550000 16.650000 16.750000 16.850000 16.950000 17.050000 17.150000 17.250000 17.350000 17.450000 17.550000 17.650000 17.750000 17.850000 17.950000 18.050000 18.150000 18.250000 18.350000 18.450000 18.550000 18.650000 18.750000 18.850000 18.950000 19.050000 19.150000 19.250000 19.350000 19.450000 19.550000 19.650000 19.750000 19.850000 19.950000 
Y_COORDINATES 75 double
0.050000 0.150000 0.250000 0.350000 0.450000 0.550000 0.650000 0.750000 0.850000 0.950000 1.050000 1.150000 1.250000 1.350000 1.450000 1.550000 1.650000 1.750000 1.850000 1.950000 2.050000 2.150000 2.250000 2.350000 2.450000 2.550000 2.650000 2.750000 2.850000 2.950000 3.050000 3.150000 3.250000 3.350000 3.450000 3.550000 3.650000 3.750000 3.850000 3.950000 4.050000 4.150000 4.250000 4.350000 4.450000 4.550000 4.650000 4.750000 4.850000 4.950000 5.050000 5.150000 5.250000 5.350000 5.450000 5.550000 5.650000 5.750000 5.850000 5.950000 6.050000 6.150000 6.250000 6.350000 6.450000 6.550000 6.650000 6.750000 6.850000 6.950000 7.050000 7.150000 7.250000 7.350000 7.450000 
Z_COORDINATES 1 double
0.0
POINT_DATA 15000
VECTORS Vektorfeld double
0.999658 0.000342 0.0
0.998746 0.000571 0.0
0.997528 0.000647 0.0
0.996220 0.000661 0.0
0.994914 0.000645 0.0
0.993656 0.000612 0.0
0.992479 0.000565 0.0
0.991405 0.000509 0.0
0.990449 0.000446 0.0
0.989626 0.000378 0.0
0.988941 0.000307 0.0
0.988398 0.000236 0.0
0.987994 0.000168 0.0
0.987717 0.000108 0.0
0.987552 0.000058 0.0
0.987473 0.000021 0.0
0.987449 0.000003 0.0
0.987443 0.000004 0.0
0.987412 0.000026 0.0
0.987315 0.000071 0.0
0.987108 0.000136 0.0
0.986752 0.000219 0.0
0.986216 0.000317 0.0
0.985476 0.000423 0.0
0.984521 0.000532 0.0
0.983349 0.000640 0.0
0.981970 0.000739 0.0
0.980404 0.000827 0.0
0.978678 0.000899 0.0
0.976824 0.000955 0.0
0.974878 0.000991 0.0
0.972876 0.001010 0.0
0.970853 0.001012 0.0
0.968843 0.000999 0.0
0.966872 0.000972 0.0
0.964964 0.000935 0.0
0.963137 0.000891 0.0
0.961402 0.000843 0.0
0.959764 0.000795 0.0
0.958221 0.000749 0.0
0.956764 0.000709 0.0
0.955377 0.000678 0.0
0.954039 0.000660 0.0
0.952721 0.000657 0.0
0.951393 0.000671 0.0
0.950020 0.000702 0.0
0.948570 0.000748 0.0
0.947014 0.000808 0.0
0.945329 0.000877 0.0
0.943504 0.000948 0.0
0.941540 0.001016 0.0
0.939450 0.001074 0.0
0.937259 0.001116 0.0
0.935004 0.001139 0.0
0.932728 0.001137 0.0
0.930480 0.001111 0.0
0.928309 0.001060 0.0
0.926265 0.000984 0.0
0.924394 0.000887 0.0
0.922737 0.000770 0.0
0.921331 0.000637 0.0
0.920201 0.000493 0.0
0.919366 0.000342 0.0
0.918836 0.000188 0.0
0.918615 0.000033 0.0
0.918701 -0.000118 0.0
0.919073 -0.000254 0.0
0.919692 -0.000365 0.0
0.920505 -0.000447 0.0
0.921445 -0.000493 0.0
0.922439 -0.000501 0.0
0.923411 -0.000470 0.0
0.924284 -0.000402 0.0
0.924988 -0.000303 0.0
0.925472 -0.000181 0.0
0.925704 -0.000051 0.0
0.925681 0.000074 0.0
0.925421 0.000186 0.0
0.924953 0.000282 0.0
0.924315 0.000356 0.0
0.923551 0.000408 0.0
0.922705 0.000438 0.0
0.921818 0.000449 0.0
0.920924 0.000445 0.0
0.920052 0.000428 0.0
0.919221 0.000403 0.0
0.918445 0.000373 0.0
0.917731 0.000342 0.0
0.917076 0.000313 0.0
0.916475 0.000288 0.0
0.915916 0.000271 0.0
0.915380 0.000265 0.0
0.914846 0.000269 0.0
0.914290 0.000286 0.0
0.913688 0.000316 0.0
0.913014 0.000357 0.0
0.912249 0.000408 0.0
0.911377 0.000464 0.0
0.910391 0.000522 0.0
0.909292 0.000577 0.0
0.908092 0.000624 0.0
0.906810 0.000658 0.0
0.905473 0.000678 0.0
0.904114 0.000681 0.0
0.902768 0.000665 0.0
0.901470 0.000632 0.0
0.900255 0.000583 0.0
0.899153 0.000519 0.0
0.898190 0.000444 0.0
0.897386 0.000360 0.0
0.896756 0.000270 0.0
0.896307 0.000179 0.0
0.896040 0.000088 0.0
0.895952 0.000000 0.0
0.896031 -0.000080 0.0
0.896258 -0.000146 0.0
0.896599 -0.000194 0.0
0.897013 -0.000220 0.0
0.897451 -0.000219 0.0
0.897862 -0.000191 0.0
0.898189 -0.000136 0.0
0.898382 -0.000057 0.0
0.898401 0.000037 0.0
0.898222 0.000142 0.0
0.897830 0.000250 0.0
0.897228 0.000352 0.0
0.896434 0.000441 0.0
0.895483 0.000510 0.0
0.894420 0.000553 0.0
0.893297 0.000570 0.0
0.892167 0.000561 0.0
0.891079 0.000527 0.0
0.890080 0.000472 0.0
0.889207 0.000401 0.0
0.888490 0.000317 0.0
0.887948 0.000225 0.0
0.887593 0.000130 0.0
0.887428 0.000034 0.0
0.887453 -0.000059 0.0
0.887652 -0.000141 0.0
0.887998 -0.000206 0.0
0.888454 -0.000250 0.0
0.888977 -0.000272 0.0
0.889517 -0.000269 0.0
0.890027 -0.000241 0.0
0.890459 -0.000191 0.0
0.890772 -0.000122 0.0
0.890933 -0.000039 0.0
0.890924 0.000048 0.0
0.890740 0.000137 0.0
0.890379 0.000223 0.0
0.889853 0.000303 0.0
0.889178 0.000372 0.0
0.888379 0.000427 0.0
0.887485 0.000467 0.0
0.886527 0.000491 0.0
0.885537 0.000500 0.0
0.884543 0.000495 0.0
0.883571 0.000478 0.0
0.882642 0.000451 0.0
0.881772 0.000419 0.0
0.880970 0.000383 0.0
0.880240 0.000347 0.0
0.879577 0.000316 0.0
0.878970 0.000291 0.0
0.878400 0.000278 0.0
0.877845 0.000278 0.0
0.877273 0.000294 0.0
0.876652 0.000328 0.0
0.875944 0.000380 0.0
0.875114 0.000450 0.0
0.874131 0.000533 0.0
0.872971 0.000627 0.0
0.871619 0.000725 0.0
0.870075 0.000820 0.0
0.868349 0.000906 0.0
0.866466 0.000977 0.0
0.864459 0.001029 0.0
0.862371 0.001059 0.0
0.860246 0.001066 0.0
0.858130 0.001050 0.0
0.856068 0.001012 0.0
0.854102 0.000955 0.0
0.852266 0.000881 0.0
0.850591 0.000793 0.0
0.849103 0.000695 0.0
0.847821 0.000588 0.0
0.846757 0.000476 0.0
0.845918 0.000362 0.0
0.845307 0.000249 0.0
0.844917 0.000140 0.0
0.844741 0.000036 0.0
0.844765 -0.000061 0.0
0.844969 -0.000144 0.0
0.845321 -0.000208 0.0
0.845783 -0.000254 0.0
0.846320 -0.000283 0.0
0.846909 -0.000306 0.0
0.847577 -0.000361 0.0
0.848324 -0.000387 0.0
1.000202 0.000481 0.0
1.000675 0.000871 0.0
1.001228 0.001011 0.0
1.001807 0.001027 0.0
1.002422 0.000971 0.0
1.003097 0.000868 0.0
1.003854 0.000729 0.0
1.004711 0.000563 0.0
1.005684 0.000375 0.0
1.006787 0.000171 0.0
1.008026 -0.000041 0.0
1.009406 -0.000253 0.0
1.010923 -0.000455 0.0
1.012568 -0.000637 0.0
1.014323 -0.000788 0.0
1.016164 -0.000895 0.0
1.018058 -0.000951 0.0
1.019966 -0.000945 0.0
1.021845 -0.000873 0.0
1.023648 -0.000735 0.0
1.025330 -0.000533 0.0
1.026850 -0.000276 0.0
1.028173 0.000025 0.0
1.029276 0.000352 0.0
1.030146 0.000689 0.0
1.030782 0.001019 0.0
1.031197 0.001325 0.0
1.031411 0.001594 0.0
1.031455 0.001816 0.0
1.031362 0.001985 0.0
1.031171 0.002098 0.0
1.030920 0.002156 0.0
1.030646 0.002163 0.0
1.030381 0.002123 0.0
1.030156 0.002044 0.0
1.029993 0.001934 0.0
1.029911 0.001802 0.0
1.029920 0.001658 0.0
1.030027 0.001512 0.0
1.030228 0.001374 0.0
1.030514 0.001254 0.0
1.030870 0.001164 0.0
1.031272 0.001111 0.0
1.031691 0.001104 0.0
1.032094 0.001149 0.0
1.032445 0.001246 0.0
1.032708 0.001392 0.0
1.032849 0.001580 0.0
1.032845 0.001795 0.0
1.032680 0.002020 0.0
1.032354 0.002235 0.0
1.031878 0.002422 0.0
1.031275 0.002563 0.0
1.030577 0.002645 0.0
1.029821 0.002662 0.0
1.029048 0.002608 0.0
1.028298 0.002485 0.0
1.027606 0.002295 0.0
1.027008 0.002045 0.0
1.026531 0.001744 0.0
1.026200 0.001401 0.0
1.026033 0.001026 0.0
1.026044 0.000632 0.0
1.026240 0.000231 0.0
1.026616 -0.000166 0.0
1.027156 -0.000544 0.0
1.027837 -0.000882 0.0
1.028640 -0.001160 0.0
1.029538 -0.001362 0.0
1.030493 -0.001472 0.0
1.031455 -0.001479 0.0
1.032368 -0.001377 0.0
1.033171 -0.001171 0.0
1.033809 -0.000876 0.0
1.034233 -0.000517 0.0
1.034416 -0.000129 0.0
1.034341 0.000250 0.0
1.034017 0.000594 0.0
1.033475 0.000884 0.0
1.032760 0.001107 0.0
1.031921 0.001260 0.0
1.031004 0.001347 0.0
1.030055 0.001377 0.0
1.029108 0.001358 0.0
1.028193 0.001302 0.0
1.027331 0.001221 0.0
1.026534 0.001126 0.0
1.025810 0.001027 0.0
1.025157 0.000934 0.0
1.024568 0.000856 0.0
1.024029 0.000802 0.0
1.023523 0.000777 0.0
1.023026 0.000788 0.0
1.022513 0.000837 0.0
1.021955 0.000926 0.0
1.021326 0.001050 0.0
1.020602 0.001204 0.0
1.019766 0.001376 0.0
1.018807 0.001554 0.0
1.017727 0.001723 0.0
1.016537 0.001868 0.0
1.015256 0.001977 0.0
1.013913 0.002039 0.0
1.012542 0.002049 0.0
1.011181 0.002004 0.0
1.009866 0.001906 0.0
1.008633 0.001757 0.0
1.007514 0.001566 0.0
1.006536 0.001338 0.0
1.005722 0.001084 0.0
1.005085 0.000813 0.0
1.004636 0.000535 0.0
1.004374 0.000260 0.0
1.004291 -0.000001 0.0
1.004370 -0.000237 0.0
1.004586 -0.000432 0.0
1.004912 -0.000575 0.0
1.005313 -0.000653 0.0
1.005745 -0.000657 0.0
1.006161 -0.000580 0.0
1.006508 -0.000421 0.0
1.006734 -0.000190 0.0
1.006785 0.000099 0.0
1.006620 0.000424 0.0
1.006217 0.000762 0.0
1.005578 0.001082 0.0
1.004723 0.001361 0.0
1.003689 0.001575 0.0
1.002526 0.001714 0.0
1.001289 0.001770 0.0
1.000036 0.001745 0.0
0.998820 0.001645 0.0
0.997691 0.001482 0.0
0.996688 0.001267 0.0
0.995844 0.001013 0.0
0.995180 0.000734 0.0
0.994711 0.000445 0.0
0.994436 0.000158 0.0
0.994343 -0.000114 0.0
0.994412 -0.000353 0.0
0.994619 -0.000547 0.0
0.994936 -0.000683 0.0
0.995326 -0.000752 0.0
0.995749 -0.000752 0.0
0.996163 -0.000681 0.0
0.996524 -0.000544 0.0
0.996795 -0.000352 0.0
0.996942 -0.000117 0.0
0.996936 0.000140 0.0
0.996758 0.000407 0.0
0.996404 0.000667 0.0
0.995884 0.000906 0.0
0.995217 0.001112 0.0
0.994427 0.001276 0.0
0.993546 0.001393 0.0
0.992606 0.001463 0.0
0.991639 0.001486 0.0
0.990676 0.001466 0.0
0.989743 0.001411 0.0
0.988861 0.001328 0.0
0.988047 0.001226 0.0
0.987311 0.001114 0.0
0.986654 0.001004 0.0
0.986072 0.000905 0.0
0.985553 0.000828 0.0
0.985078 0.000785 0.0
0.984622 0.000783 0.0
0.984151 0.000831 0.0
0.983630 0.000934 0.0
0.983017 0.001094 0.0
0.982274 0.001308 0.0
0.981365 0.001567 0.0
0.980261 0.001857 0.0
0.978947 0.002161 0.0
0.977419 0.002457 0.0
0.975688 0.002725 0.0
0.973781 0.002948 0.0
0.971733 0.003112 0.0
0.969590 0.003208 0.0
0.967399 0.003233 0.0
0.965209 0.003188 0.0
0.963067 0.003077 0.0
0.961016 0.002907 0.0
0.959094 0.002687 0.0
0.957333 0.002423 0.0
0.955760 0.002126 0.0
0.954393 0.001805 0.0
0.953249 0.001468 0.0
0.952334 0.001124 0.0
0.951651 0.000782 0.0
0.951195 0.000453 0.0
0.950952 0.000143 0.0
0.950897 -0.000137 0.0
0.951000 -0.000374 0.0
0.951229 -0.000559 0.0
0.951549 -0.000686 0.0
0.951919 -0.000759 0.0
0.952294 -0.000795 0.0
0.952604 -0.000849 0.0
0.952796 -0.000837 0.0
1.000086 0.000193 0.0
1.000348 0.000424 0.0
1.000750 0.000503 0.0
1.001239 0.000468 0.0
1.001802 0.000351 0.0
1.002446 0.000168 0.0
1.003186 -0.000068 0.0
1.004037 -0.000348 0.0
1.005014 -0.000665 0.0
1.006131 -0.001008 0.0
1.007395 -0.001366 0.0
1.008812 -0.001725 0.0
1.010380 -0.002068 0.0
1.012089 -0.002378 0.0
1.013924 -0.002636 0.0
1.015858 -0.002822 0.0
1.017859 -0.002918 0.0
1.019885 -0.002911 0.0
1.021888 -0.002789 0.0
1.023819 -0.002552 0.0
1.025627 -0.002206 0.0
1.027267 -0.001763 0.0
1.028702 -0.001246 0.0
1.029905 -0.000683 0.0
1.030864 -0.000104 0.0
1.031579 0.000460 0.0
1.032065 0.000982 0.0
1.032348 0.001439 0.0
1.032459 0.001815 0.0
1.032439 0.002098 0.0
1.032328 0.002287 0.0
1.032166 0.002381 0.0
1.031992 0.002387 0.0
1.031839 0.002316 0.0
1.031738 0.002178 0.0
1.031711 0.001989 0.0
1.031777 0.001764 0.0
1.031946 0.001518 0.0
1.032223 0.001268 0.0
1.032607 0.001033 0.0
1.033087 0.000828 0.0
1.033649 0.000673 0.0
1.034268 0.000581 0.0
1.034916 0.000568 0.0
1.035556 0.000642 0.0
1.036148 0.000808 0.0
1.036653 0.001062 0.0
1.037033 0.001389 0.0
1.037257 0.001766 0.0
1.037308 0.002162 0.0
1.037181 0.002545 0.0
1.036888 0.002881 0.0
1.036451 0.003144 0.0
1.035901 0.003312 0.0
1.035277 0.003375 0.0
1.034614 0.003330 0.0
1.033951 0.003177 0.0
1.033319 0.002925 0.0
1.032750 0.002583 0.0
1.032271 0.002163 0.0
1.031903 0.001680 0.0
1.031669 0.001148 0.0
1.031586 0.000583 0.0
1.031665 0.000005 0.0
1.031916 -0.000567 0.0
1.032340 -0.001107 0.0
1.032934 -0.001594 0.0
1.033680 -0.001999 0.0
1.034553 -0.002294 0.0
1.035510 -0.002452 0.0
1.036496 -0.002448 0.0
1.037445 -0.002270 0.0
1.038281 -0.001919 0.0
1.038932 -0.001417 0.0
1.039339 -0.000807 0.0
1.039466 -0.000148 0.0
1.039306 0.000503 0.0
1.038881 0.001090 0.0
1.038233 0.001578 0.0
1.037415 0.001947 0.0
1.036480 0.002194 0.0
1.035483 0.002328 0.0
1.034467 0.002362 0.0
1.033468 0.002317 0.0
1.032516 0.002210 0.0
1.031631 0.002062 0.0
1.030823 0.001890 0.0
1.030101 0.001711 0.0
1.029462 0.001543 0.0
1.028900 0.001400 0.0
1.028401 0.001295 0.0
1.027947 0.001243 0.0
1.027515 0.001251 0.0
1.027075 0.001327 0.0
1.026599 0.001471 0.0
1.026054 0.001679 0.0
1.025413 0.001940 0.0
1.024655 0.002236 0.0
1.023765 0.002543 0.0
1.022741 0.002837 0.0
1.021593 0.003092 0.0
1.020342 0.003285 0.0
1.019018 0.003398 0.0
1.017657 0.003422 0.0
1.016297 0.003353 0.0
1.014977 0.003192 0.0
1.013735 0.002946 0.0
1.012604 0.002627 0.0
1.011611 0.002247 0.0
1.010780 0.001821 0.0
1.010126 0.001366 0.0
1.009660 0.000898 0.0
1.009384 0.000435 0.0
1.009296 -0.000005 0.0
1.009385 -0.000400 0.0
1.009630 -0.000731 0.0
1.010004 -0.000977 0.0
1.010469 -0.001118 0.0
1.010980 -0.001136 0.0
1.011482 -0.001018 0.0
1.011913 -0.000761 0.0
1.012211 -0.000373 0.0
1.012317 0.000125 0.0
1.012187 0.000694 0.0
1.011794 0.001287 0.0
1.011135 0.001854 0.0
1.010233 0.002346 0.0
1.009129 0.002728 0.0
1.007877 0.002976 0.0
1.006538 0.003082 0.0
1.005173 0.003049 0.0
1.003840 0.002889 0.0
1.002587 0.002620 0.0
1.001458 0.002261 0.0
1.000484 0.001836 0.0
0.999691 0.001368 0.0
0.999093 0.000879 0.0
0.998697 0.000395 0.0
0.998499 -0.000060 0.0
0.998487 -0.000464 0.0
0.998637 -0.000795 0.0
0.998919 -0.001033 0.0
0.999293 -0.001166 0.0
0.999714 -0.001183 0.0
1.000134 -0.001083 0.0
1.000503 -0.000873 0.0
1.000778 -0.000568 0.0
1.000920 -0.000190 0.0
1.000902 0.000236 0.0
1.000712 0.000680 0.0
1.000345 0.001114 0.0
0.999813 0.001511 0.0
0.999134 0.001852 0.0
0.998338 0.002122 0.0
0.997454 0.002312 0.0
0.996518 0.002420 0.0
0.995563 0.002450 0.0
0.994619 0.002409 0.0
0.993714 0.002307 0.0
0.992870 0.002158 0.0
0.992103 0.001977 0.0
0.991422 0.001780 0.0
0.990833 0.001585 0.0
0.990330 0.001409 0.0
0.989903 0.001270 0.0
0.989535 0.001186 0.0
0.989198 0.001174 0.0
0.988862 0.001247 0.0
0.988485 0.001416 0.0
0.988026 0.001684 0.0
0.987440 0.002048 0.0
0.986684 0.002492 0.0
0.985725 0.002995 0.0
0.984539 0.003523 0.0
0.983122 0.004040 0.0
0.981483 0.004511 0.0
0.979648 0.004904 0.0
0.977657 0.005195 0.0
0.975556 0.005370 0.0
0.973395 0.005423 0.0
0.971226 0.005357 0.0
0.969094 0.005181 0.0
0.967044 0.004905 0.0
0.965112 0.004543 0.0
0.963330 0.004110 0.0
0.961723 0.003620 0.0
0.960314 0.003088 0.0
0.959115 0.002528 0.0
0.958137 0.001956 0.0
0.957383 0.001387 0.0
0.956850 0.000837 0.0
0.956528 0.000324 0.0
0.956401 -0.000135 0.0
0.956445 -0.000522 0.0
0.956627 -0.000821 0.0
0.956904 -0.001020 0.0
0.957225 -0.001116 0.0
0.957532 -0.001120 0.0
0.957758 -0.001062 0.0
0.957868 -0.000926 0.0
1.000048 0.000060 0.0
1.000217 0.000126 0.0
1.000513 0.000101 0.0
1.000909 -0.000014 0.0
1.001393 -0.000214 0.0
1.001971 -0.000489 0.0
1.002654 -0.000833 0.0
1.003457 -0.001237 0.0
1.004397 -0.001693 0.0
1.005488 -0.002188 0.0
1.006743 -0.002706 0.0
1.008169 -0.003227 0.0
1.009766 -0.003730 0.0
1.011527 -0.004188 0.0
1.013438 -0.004572 0.0
1.015471 -0.004854 0.0
1.017590 -0.005007 0.0
1.019749 -0.005007 0.0
1.021893 -0.004840 0.0
1.023962 -0.004502 0.0
1.025897 -0.003999 0.0
1.027642 -0.003354 0.0
1.029151 -0.002599 0.0
1.030392 -0.001775 0.0
1.031351 -0.000930 0.0
1.032032 -0.000110 0.0
1.032453 0.000645 0.0
1.032646 0.001301 0.0
1.032654 0.001834 0.0
1.032522 0.002231 0.0
1.032299 0.002488 0.0
1.032032 0.002609 0.0
1.031762 0.002603 0.0
1.031528 0.002486 0.0
1.031361 0.002276 0.0
1.031287 0.001992 0.0
1.031325 0.001657 0.0
1.031486 0.001293 0.0
1.031777 0.000925 0.0
1.032194 0.000575 0.0
1.032729 0.000270 0.0
1.033365 0.000033 0.0
1.034078 -0.000112 0.0
1.034833 -0.000143 0.0
1.035590 -0.000044 0.0
1.036300 0.000192 0.0
1.036911 0.000562 0.0
1.037374 0.001045 0.0
1.037650 0.001609 0.0
1.037713 0.002205 0.0
1.037559 0.002783 0.0
1.037202 0.003294 0.0
1.036673 0.003697 0.0
1.036014 0.003967 0.0
1.035272 0.004088 0.0
1.034493 0.004059 0.0
1.033719 0.003885 0.0
1.032989 0.003578 0.0
1.032335 0.003152 0.0
1.031786 0.002623 0.0
1.031366 0.002007 0.0
1.031098 0.001323 0.0
1.031000 0.000590 0.0
1.031087 -0.000168 0.0
1.031370 -0.000927 0.0
1.031855 -0.001656 0.0
1.032538 -0.002322 0.0
1.033407 -0.002886 0.0
1.034434 -0.003306 0.0
1.035576 -0.003539 0.0
1.036770 -0.003542 0.0
1.037933 -0.003288 0.0
1.038969 -0.002772 0.0
1.039779 -0.002024 0.0
1.040280 -0.001109 0.0
1.040428 -0.000120 0.0
1.040218 0.000845 0.0
1.039689 0.001702 0.0
1.038904 0.002399 0.0
1.037937 0.002912 0.0
1.036859 0.003241 0.0
1.035733 0.003404 0.0
1.034609 0.003426 0.0
1.033526 0.003335 0.0
1.032512 0.003158 0.0
1.031587 0.002925 0.0
1.030761 0.002659 0.0
1.030040 0.002385 0.0
1.029422 0.002126 0.0
1.028898 0.001903 0.0
1.028454 0.001735 0.0
1.028068 0.001642 0.0
1.027714 0.001638 0.0
1.027359 0.001734 0.0
1.026967 0.001933 0.0
1.026497 0.002231 0.0
1.025916 0.002611 0.0
1.025192 0.003047 0.0
1.024309 0.003506 0.0
1.023260 0.003947 0.0
1.022060 0.004331 0.0
1.020731 0.004625 0.0
1.019313 0.004801 0.0
1.017849 0.004846 0.0
1.016384 0.004754 0.0
1.014965 0.004529 0.0
1.013633 0.004182 0.0
1.012425 0.003730 0.0
1.011371 0.003191 0.0
1.010495 0.002585 0.0
1.009815 0.001936 0.0
1.009342 0.001267 0.0
1.009081 0.000602 0.0
1.009030 -0.000033 0.0
1.009179 -0.000609 0.0
1.009510 -0.001098 0.0
1.009995 -0.001470 0.0
1.010597 -0.001693 0.0
1.011263 -0.001739 0.0
1.011932 -0.001585 0.0
1.012529 -0.001222 0.0
1.012975 -0.000656 0.0
1.013194 0.000082 0.0
1.013126 0.000935 0.0
1.012734 0.001831 0.0
1.012017 0.002686 0.0
1.011006 0.003428 0.0
1.009755 0.004001 0.0
1.008337 0.004373 0.0
1.006829 0.004533 0.0
1.005302 0.004490 0.0
1.003823 0.004262 0.0
1.002446 0.003877 0.0
1.001215 0.003365 0.0
1.000165 0.002756 0.0
0.999322 0.002084 0.0
0.998701 0.001381 0.0
0.998310 0.000681 0.0
0.998146 0.000017 0.0
0.998194 -0.000577 0.0
0.998432 -0.001069 0.0
0.998823 -0.001432 0.0
0.999321 -0.001641 0.0
0.999875 -0.001682 0.0
1.000425 -0.001553 0.0
1.000914 -0.001261 0.0
1.001286 -0.000828 0.0
1.001498 -0.000285 0.0
1.001518 0.000328 0.0
1.001331 0.000967 0.0
1.000936 0.001589 0.0
1.000349 0.002156 0.0
0.999595 0.002639 0.0
0.998710 0.003016 0.0
0.997734 0.003277 0.0
0.996706 0.003419 0.0
0.995665 0.003447 0.0
0.994647 0.003373 0.0
0.993682 0.003212 0.0
0.992795 0.002984 0.0
0.992004 0.002709 0.0
0.991319 0.002412 0.0
0.990746 0.002115 0.0
0.990282 0.001845 0.0
0.989915 0.001627 0.0
0.989626 0.001486 0.0
0.989390 0.001447 0.0
0.989168 0.001532 0.0
0.988918 0.001758 0.0
0.988586 0.002133 0.0
0.988117 0.002654 0.0
0.987457 0.003301 0.0
0.986562 0.004041 0.0
0.985401 0.004823 0.0
0.983964 0.005594 0.0
0.982265 0.006296 0.0
0.980337 0.006882 0.0
0.978230 0.007316 0.0
0.976001 0.007579 0.0
0.973711 0.007665 0.0
0.971416 0.007580 0.0
0.969170 0.007336 0.0
0.967019 0.006952 0.0
0.964999 0.006447 0.0
0.963145 0.005842 0.0
0.961481 0.005157 0.0
0.960028 0.004413 0.0
0.958801 0.003628 0.0
0.957810 0.002825 0.0
0.957059 0.002024 0.0
0.956547 0.001246 0.0
0.956266 0.000517 0.0
0.956201 -0.000137 0.0
0.956328 -0.000692 0.0
0.956613 -0.001118 0.0
0.957005 -0.001392 0.0
0.957440 -0.001500 0.0
0.957845 -0.001447 0.0
0.958144 -0.001261 0.0
0.958281 -0.000973 0.0
1.000031 -0.000018 0.0
1.000148 -0.000082 0.0
1.000368 -0.000208 0.0
1.000681 -0.000413 0.0
1.001083 -0.000702 0.0
1.001582 -0.001078 0.0
1.002193 -0.001537 0.0
1.002932 -0.002075 0.0
1.003820 -0.002683 0.0
1.004874 -0.003344 0.0
1.006112 -0.004042 0.0
1.007545 -0.004750 0.0
1.009177 -0.005438 0.0
1.011007 -0.006071 0.0
1.013018 -0.006611 0.0
1.015186 -0.007016 0.0
1.017470 -0.007247 0.0
1.019816 -0.007271 0.0
1.022160 -0.007064 0.0
1.024428 -0.006616 0.0
1.026544 -0.005937 0.0
1.028439 -0.005056 0.0
1.030052 -0.004019 0.0
1.031345 -0.002889 0.0
1.032301 -0.001732 0.0
1.032927 -0.000614 0.0
1.033248 0.000407 0.0
1.033309 0.001285 0.0
1.033163 0.001989 0.0
1.032868 0.002503 0.0
1.032483 0.002825 0.0
1.032061 0.002962 0.0
1.031652 0.002929 0.0
1.031299 0.002748 0.0
1.031035 0.002444 0.0
1.030889 0.002044 0.0
1.030880 0.001576 0.0
1.031023 0.001071 0.0
1.031321 0.000558 0.0
1.031776 0.000070 0.0
1.032377 -0.000361 0.0
1.033107 -0.000703 0.0
1.033941 -0.000922 0.0
1.034840 -0.000987 0.0
1.035755 -0.000872 0.0
1.036626 -0.000560 0.0
1.037384 -0.000054 0.0
1.037961 0.000621 0.0
1.038300 0.001418 0.0
1.038365 0.002267 0.0
1.038150 0.003091 0.0
1.037677 0.003817 0.0
1.036990 0.004390 0.0
1.036149 0.004774 0.0
1.035216 0.004955 0.0
1.034250 0.004936 0.0
1.033302 0.004729 0.0
1.032415 0.004351 0.0
1.031626 0.003823 0.0
1.030964 0.003163 0.0
1.030457 0.002393 0.0
1.030127 0.001534 0.0
1.029995 0.000609 0.0
1.030079 -0.000358 0.0
1.030392 -0.001334 0.0
1.030944 -0.002285 0.0
1.031736 -0.003168 0.0
1.032760 -0.003932 0.0
1.033992 -0.004520 0.0
1.035390 -0.004865 0.0
1.036881 -0.004901 0.0
1.038362 -0.004574 0.0
1.039702 -0.003862 0.0
1.040758 -0.002799 0.0
1.041407 -0.001485 0.0
1.041583 -0.000068 0.0
1.041291 0.001294 0.0
1.040598 0.002475 0.0
1.039605 0.003404 0.0
1.038418 0.004060 0.0
1.037135 0.004455 0.0
1.035830 0.004622 0.0
1.034559 0.004603 0.0
1.033363 0.004437 0.0
1.032268 0.004164 0.0
1.031292 0.003820 0.0
1.030444 0.003437 0.0
1.029727 0.003045 0.0
1.029138 0.002674 0.0
1.028667 0.002350 0.0
1.028299 0.002101 0.0
1.028008 0.001952 0.0
1.027765 0.001925 0.0
1.027531 0.002037 0.0
1.027258 0.002296 0.0
1.026898 0.002698 0.0
1.026400 0.003222 0.0
1.025726 0.003834 0.0
1.024846 0.004482 0.0
1.023756 0.005109 0.0
1.022469 0.005657 0.0
1.021019 0.006077 0.0
1.019455 0.006331 0.0
1.017833 0.006402 0.0
1.016212 0.006284 0.0
1.014645 0.005985 0.0
1.013182 0.005522 0.0
1.011862 0.004918 0.0
1.010720 0.004199 0.0
1.009780 0.003393 0.0
1.009062 0.002527 0.0
1.008579 0.001632 0.0
1.008336 0.000740 0.0
1.008334 -0.000117 0.0
1.008565 -0.000904 0.0
1.009012 -0.001582 0.0
1.009650 -0.002109 0.0
1.010439 -0.002443 0.0
1.011325 -0.002540 0.0
1.012235 -0.002362 0.0
1.013078 -0.001885 0.0
1.013749 -0.001110 0.0
1.014143 -0.000077 0.0
1.014171 0.001135 0.0
1.013782 0.002412 0.0
1.012974 0.003630 0.0
1.011793 0.004677 0.0
1.010321 0.005474 0.0
1.008659 0.005980 0.0
1.006907 0.006187 0.0
1.005155 0.006114 0.0
1.003477 0.005794 0.0
1.001935 0.005265 0.0
1.000574 0.004568 0.0
0.999431 0.003746 0.0
0.998532 0.002838 0.0
0.997893 0.001887 0.0
0.997522 0.000937 0.0
0.997416 0.000031 0.0
0.997562 -0.000786 0.0
0.997933 -0.001469 0.0
0.998487 -0.001978 0.0
0.999172 -0.002279 0.0
0.999924 -0.002349 0.0
1.000670 -0.002182 0.0
1.001337 -0.001787 0.0
1.001857 -0.001194 0.0
1.002174 -0.000447 0.0
1.002250 0.000395 0.0
1.002067 0.001270 0.0
1.001629 0.002118 0.0
1.000959 0.002885 0.0
1.000093 0.003530 0.0
0.999078 0.004025 0.0
0.997963 0.004359 0.0
0.996800 0.004529 0.0
0.995634 0.004544 0.0
0.994506 0.004422 0.0
0.993452 0.004183 0.0
0.992499 0.003854 0.0
0.991668 0.003463 0.0
0.990970 0.003040 0.0
0.990413 0.002618 0.0
0.989993 0.002228 0.0
0.989700 0.001904 0.0
0.989515 0.001681 0.0
0.989410 0.001594 0.0
0.989344 0.001673 0.0
0.989265 0.001947 0.0
0.989108 0.002432 0.0
0.988803 0.003129 0.0
0.988276 0.004013 0.0
0.987464 0.005037 0.0
0.986324 0.006129 0.0
0.984841 0.007207 0.0
0.983034 0.008188 0.0
0.980949 0.009002 0.0
0.978653 0.009599 0.0
0.976221 0.009957 0.0
0.973729 0.010070 0.0
0.971245 0.009953 0.0
0.968828 0.009626 0.0
0.966527 0.009115 0.0
0.964382 0.008449 0.0
0.962424 0.007653 0.0
0.960681 0.006755 0.0
0.959170 0.005779 0.0
0.957909 0.004750 0.0
0.956907 0.003696 0.0
0.956169 0.002641 0.0
0.955696 0.001614 0.0
0.955482 0.000645 0.0
0.955516 -0.000233 0.0
0.955775 -0.000982 0.0
0.956223 -0.001560 0.0
0.956805 -0.001924 0.0
0.957440 -0.002040 0.0
0.958029 -0.001901 0.0
0.958464 -0.001542 0.0
0.958655 -0.001020 0.0
1.000020 -0.000069 0.0
1.000099 -0.000228 0.0
1.000255 -0.000438 0.0
1.000486 -0.000726 0.0
1.000799 -0.001104 0.0
1.001206 -0.001582 0.0
1.001726 -0.002163 0.0
1.002382 -0.002845 0.0
1.003198 -0.003617 0.0
1.004199 -0.004466 0.0
1.005408 -0.005367 0.0
1.006843 -0.006292 0.0
1.008515 -0.007200 0.0
1.010426 -0.008048 0.0
1.012565 -0.008784 0.0
1.014907 -0.009352 0.0
1.017408 -0.009696 0.0
1.020007 -0.009768 0.0
1.022624 -0.009528 0.0
1.025166 -0.008962 0.0
1.027534 -0.008077 0.0
1.029636 -0.006912 0.0
1.031394 -0.005534 0.0
1.032756 -0.004030 0.0
1.033702 -0.002494 0.0
1.034245 -0.001020 0.0
1.034424 0.000312 0.0
1.034299 0.001443 0.0
1.033941 0.002334 0.0
1.033424 0.002969 0.0
1.032821 0.003348 0.0
1.032197 0.003485 0.0
1.031607 0.003404 0.0
1.031099 0.003135 0.0
1.030711 0.002709 0.0
1.030472 0.002163 0.0
1.030405 0.001533 0.0
1.030522 0.000855 0.0
1.030830 0.000167 0.0
1.031331 -0.000493 0.0
1.032015 -0.001083 0.0
1.032867 -0.001563 0.0
1.033859 -0.001888 0.0
1.034952 -0.002013 0.0
1.036087 -0.001895 0.0
1.037186 -0.001506 0.0
1.038158 -0.000838 0.0
1.038904 0.000081 0.0
1.039340 0.001183 0.0
1.039412 0.002365 0.0
1.039109 0.003510 0.0
1.038468 0.004512 0.0
1.037558 0.005291 0.0
1.036464 0.005807 0.0
1.035272 0.006048 0.0
1.034056 0.006026 0.0
1.032879 0.005765 0.0
1.031788 0.005293 0.0
1.030821 0.004637 0.0
1.030011 0.003821 0.0
1.029383 0.002870 0.0
1.028963 0.001807 0.0
1.028774 0.000657 0.0
1.028835 -0.000552 0.0
1.029167 -0.001785 0.0
1.029782 -0.003001 0.0
1.030690 -0.004152 0.0
1.031892 -0.005174 0.0
1.033374 -0.005993 0.0
1.035099 -0.006514 0.0
1.036991 -0.006635 0.0
1.038923 -0.006253 0.0
1.040710 -0.005310 0.0
1.042135 -0.003832 0.0
1.043000 -0.001967 0.0
1.043201 0.000037 0.0
1.042760 0.001922 0.0
1.041801 0.003499 0.0
1.040492 0.004683 0.0
1.038992 0.005467 0.0
1.037427 0.005895 0.0
1.035886 0.006027 0.0
1.034429 0.005925 0.0
1.033093 0.005647 0.0
1.031901 0.005242 0.0
1.030864 0.004755 0.0
1.029991 0.004223 0.0
1.029282 0.003685 0.0
1.028732 0.003173 0.0
1.028330 0.002723 0.0
1.028060 0.002367 0.0
1.027896 0.002140 0.0
1.027804 0.002073 0.0
1.027735 0.002192 0.0
1.027632 0.002515 0.0
1.027429 0.003042 0.0
1.027057 0.003747 0.0
1.026457 0.004584 0.0
1.025590 0.005479 0.0
1.024442 0.006350 0.0
1.023034 0.007111 0.0
1.021413 0.007693 0.0
1.019646 0.008046 0.0
1.017809 0.008146 0.0
1.015976 0.007994 0.0
1.014213 0.007604 0.0
1.012577 0.007002 0.0
1.011113 0.006221 0.0
1.009856 0.005295 0.0
1.008833 0.004258 0.0
1.008065 0.003147 0.0
1.007566 0.001996 0.0
1.007342 0.000843 0.0
1.007396 -0.000272 0.0
1.007724 -0.001307 0.0
1.008314 -0.002215 0.0
1.009143 -0.002943 0.0
1.010175 -0.003431 0.0
1.011354 -0.003618 0.0
1.012597 -0.003438 0.0
1.013791 -0.002845 0.0
1.014792 -0.001823 0.0
1.015448 -0.000414 0.0
1.015624 0.001268 0.0
1.015240 0.003052 0.0
1.014293 0.004744 0.0
1.012861 0.006177 0.0
1.011068 0.007239 0.0
1.009061 0.007884 0.0
1.006975 0.008121 0.0
1.004921 0.007987 0.0
1.002985 0.007535 0.0
1.001231 0.006820 0.0
0.999706 0.005898 0.0
0.998445 0.004820 0.0
0.997473 0.003635 0.0
0.996809 0.002394 0.0
0.996461 0.001149 0.0
0.996430 -0.000044 0.0
0.996700 -0.001127 0.0
0.997245 -0.002042 0.0
0.998017 -0.002731 0.0
0.998953 -0.003147 0.0
0.999975 -0.003254 0.0
1.000990 -0.003039 0.0
1.001905 -0.002512 0.0
1.002629 -0.001713 0.0
1.003089 -0.000706 0.0
1.003238 0.000429 0.0
1.003056 0.001602 0.0
1.002552 0.002728 0.0
1.001762 0.003735 0.0
1.000738 0.004569 0.0
0.999542 0.005197 0.0
0.998239 0.005604 0.0
0.996894 0.005793 0.0
0.995561 0.005779 0.0
0.994289 0.005586 0.0
0.993118 0.005243 0.0
0.992079 0.004785 0.0
0.991194 0.004248 0.0
0.990478 0.003668 0.0
0.989938 0.003087 0.0
0.989573 0.002544 0.0
0.989373 0.002081 0.0
0.989321 0.001742 0.0
0.989387 0.001573 0.0
0.989528 0.001619 0.0
0.989683 0.001925 0.0
0.989773 0.002521 0.0
0.989704 0.003415 0.0
0.989373 0.004585 0.0
0.988686 0.005963 0.0
0.987581 0.007449 0.0
0.986033 0.008918 0.0
0.984071 0.010248 0.0
0.981761 0.011337 0.0
0.979198 0.012123 0.0
0.976487 0.012577 0.0
0.973723 0.012706 0.0
0.970990 0.012534 0.0
0.968352 0.012098 0.0
0.965862 0.011434 0.0
0.963558 0.010579 0.0
0.961472 0.009567 0.0
0.959627 0.008429 0.0
0.958045 0.007197 0.0
0.956739 0.005899 0.0
0.955721 0.004567 0.0
0.954997 0.003231 0.0
0.954569 0.001924 0.0
0.954436 0.000681 0.0
0.954591 -0.000458 0.0
0.955017 -0.001444 0.0
0.955686 -0.002215 0.0
0.956538 -0.002702 0.0
0.957476 -0.002835 0.0
0.958356 -0.002575 0.0
0.959013 -0.001959 0.0
0.959290 -0.001071 0.0
1.000011 -0.000100 0.0
1.000055 -0.000320 0.0
1.000146 -0.000592 0.0
1.000290 -0.000947 0.0
1.000501 -0.001406 0.0
1.000797 -0.001984 0.0
1.001204 -0.002689 0.0
1.001751 -0.003522 0.0
1.002471 -0.004476 0.0
1.003397 -0.005534 0.0
1.004558 -0.006670 0.0
1.005984 -0.007849 0.0
1.007693 -0.009024 0.0
1.009695 -0.010138 0.0
1.011988 -0.011125 0.0
1.014546 -0.011911 0.0
1.017327 -0.012418 0.0
1.020257 -0.012574 0.0
1.023239 -0.012321 0.0