# vtk DataFile Version 3.0
Vector Field
ASCII
DATASET RECTILINEAR_GRID
DIMENSIONS 200 75 1
X_COORDINATES 200 double
0.050000 0.150000 0.250000 0.350000 0.450000 0.550000 0.650000 0.750000 0.850000 0.950000 1.050000 1.150000 1.250000 1.350000 1.450000 1.550000 1.650000 1.750000 1.850000 1.950000 2.050000 2.150000 2.250000 2.350000 2.450000 2.550000 2.650000 2.750000 2.850000 2.950000 3.050000 3.150000 3.250000 3.350000 3.450000 3.550000 3.650000 3.750000 3.850000 3.950000 4.050000 4.150000 4.250000 4.350000 4.450000 4.550000 4.650000 4.750000 4.850000 4.950000 5.050000 5.150000 5.250000 5.350000 5.450000 5.550000 5.650000 5.750000 5.850000 5.950000 6.050000 6.150000 6.250000 6.350000 6.450000 6.550000 6.650000 6.750000 6.850000 6.950000 7.050000 7.150000 7.250000 7.350000 7.450000 7.550000 7.650000 7.750000 7.850000 7.950000 8.050000 8.150000 8.250000 8.350000 8.450000 8.550000 8.650000 8.750000 8.850000 8.950000 9.050000 9.150000 9.250000 9.350000 9.450000 9.550000 9.650000 9.750000 9.850000 9.950000 10.050000 10.150000 10.250000 10.350000 10.450000 10.550000 10.650000 10.750000 10.850000 10.950000 11.050000 11.150000 11.250000 11.350000 11.450000 11.550000 11.650000 11.750000 11.850000 11.950000 12.050000 12.150000 12.250000 12.350000 12.450000 12.550000 12.650000 12.750000 12.850000 12.950000 13.050000 13.150000 13.250000 13.350000 13.450000 13.550000 13.650000 13.750000 13.850000 13.950000 14.050000 14.150000 14.250000 14.350000 14.450000 14.550000 14.650000 14.750000 14.850000 14.950000 15.050000 15.150000 15.250000 15.350000 15.450000 15.550000 15.650000 15.750000 15.850000 15.950000 16.050000 16.150000 16.250000 16.350000 16.450000 16.550000 16.650000 16.750000 16.850000 16.950000 17.050000 17.150000 17.250000 17.350000 17.450000 17.550000 17.650000 17.750000 17.850000 17.950000 18.050000 18.150000 18.250000 18.350000 18.450000 18.550000 18.650000 18.750000 18.850000 18.950000 19.050000 19.150000 19.250000 19.350000 19.450000 19.550000 19.650000 19.750000 19.850000 19.950000 
Y_COORDINATES 75 double
0.050000 0.150000 0.250000 0.350000 0.450000 0.550000 0.650000 0.750000 0.850000 0.950000 1.050000 1.150000 1.250000 1.350000 1.450000 1.550000 1.650000 1.750000 1.850000 1.950000 2.050000 2.150000 2.250000 2.350000 2.450000 2.550000 2.650000 2.750000 2.850000 2.950000 3.050000 3.150000 3.250000 3.350000 3.450000 3.550000 3.650000 3.750000 3.850000 3.950000 4.050000 4.150000 4.250000 4.350000 4.450000 4.550000 4.650000 4.750000 4.850000 4.950000 5.050000 5.150000 5.250000 5.350000 5.450000 5.550000 5.650000 5.750000 5.850000 5.950000 6.050000 6.150000 6.250000 6.350000 6.450000 6.550000 6.650000 6.750000 6.850000 6.950000 7.050000 7.150000 7.250000 7.350000 7.450000 
Z_COORDINATES 1 double
0.0
POINT_DATA 15000
VECTORS Vektorfeld double
0.999659 0.000341 0.0
0.998748 0.000569 0.0
0.997535 0.000644 0.0
0.996233 0.000658 0.0
0.994934 0.000641 0.0
0.993687 0.000606 0.0
0.992522 0.000559 0.0
0.991462 0.000502 0.0
0.990524 0.000437 0.0
0.989719 0.000368 0.0
0.989056 0.000296 0.0
0.988537 0.000224 0.0
0.988158 0.000155 0.0
0.987910 0.000093 0.0
0.987776 0.000041 0.0
0.987731 0.000004 0.0
0.987743 -0.000016 0.0
0.987775 -0.000016 0.0
0.987786 0.000005 0.0
0.987732 0.000049 0.0
0.987570 0.000113 0.0
0.987262 0.000195 0.0
0.986776 0.000291 0.0
0.986089 0.000396 0.0
0.985188 0.000504 0.0
0.984074 0.000610 0.0
0.982756 0.000708 0.0
0.981253 0.000794 0.0
0.979594 0.000865 0.0
0.977811 0.000918 0.0
0.975939 0.000953 0.0
0.974016 0.000970 0.0
0.972076 0.000969 0.0
0.970154 0.000953 0.0
0.968276 0.000924 0.0
0.966466 0.000885 0.0
0.964743 0.000838 0.0
0.963116 0.000788 0.0
0.961592 0.000737 0.0
0.960167 0.000689 0.0
0.958831 0.000647 0.0
0.957570 0.000615 0.0
0.956359 0.000596 0.0
0.955170 0.000593 0.0
0.953971 0.000606 0.0
0.952727 0.000638 0.0
0.951404 0.000686 0.0
0.949971 0.000747 0.0
0.948405 0.000818 0.0
0.946694 0.000893 0.0
0.944834 0.000966 0.0
0.942838 0.001030 0.0
0.940726 0.001081 0.0
0.938531 0.001114 0.0
0.936289 0.001128 0.0
0.934040 0.001121 0.0
0.931826 0.001093 0.0
0.929687 0.001046 0.0
0.927659 0.000982 0.0
0.925776 0.000902 0.0
0.924064 0.000810 0.0
0.922545 0.000709 0.0
0.921235 0.000602 0.0
0.920141 0.000492 0.0
0.919264 0.000385 0.0
0.918595 0.000284 0.0
0.918116 0.000195 0.0
0.917797 0.000123 0.0
0.917600 0.000074 0.0
0.917475 0.000052 0.0
0.917361 0.000062 0.0
0.917193 0.000106 0.0
0.916905 0.000183 0.0
0.916433 0.000288 0.0
0.915730 0.000415 0.0
0.914761 0.000553 0.0
0.913518 0.000691 0.0
0.912009 0.000818 0.0
0.910261 0.000929 0.0
0.908314 0.001018 0.0
0.906212 0.001084 0.0
0.904002 0.001127 0.0
0.901726 0.001149 0.0
0.899422 0.001155 0.0
0.897121 0.001146 0.0
0.894847 0.001128 0.0
0.892617 0.001103 0.0
0.890439 0.001075 0.0
0.888317 0.001048 0.0
0.886245 0.001024 0.0
0.884213 0.001007 0.0
0.882206 0.000999 0.0
0.880204 0.001003 0.0
0.878184 0.001018 0.0
0.876121 0.001046 0.0
0.873990 0.001085 0.0
0.871771 0.001134 0.0
0.869449 0.001189 0.0
0.867015 0.001245 0.0
0.864471 0.001299 0.0
0.861827 0.001345 0.0
0.859104 0.001378 0.0
0.856331 0.001396 0.0
0.853540 0.001395 0.0
0.850771 0.001374 0.0
0.848062 0.001334 0.0
0.845454 0.001274 0.0
0.842984 0.001196 0.0
0.840684 0.001103 0.0
0.838585 0.000996 0.0
0.836710 0.000879 0.0
0.835075 0.000755 0.0
0.833693 0.000628 0.0
0.832564 0.000501 0.0
0.831685 0.000379 0.0
0.831037 0.000268 0.0
0.830598 0.000171 0.0
0.830334 0.000092 0.0
0.830211 0.000031 0.0
0.830187 -0.000006 0.0
0.830203 -0.000010 0.0
0.830196 0.000018 0.0
0.830107 0.000071 0.0
0.829892 0.000144 0.0
0.829522 0.000227 0.0
0.828985 0.000310 0.0
0.828290 0.000385 0.0
0.827459 0.000445 0.0
0.826530 0.000484 0.0
0.825545 0.000501 0.0
0.824548 0.000496 0.0
0.823584 0.000469 0.0
0.822691 0.000424 0.0
0.821904 0.000364 0.0
0.821247 0.000293 0.0
0.820739 0.000216 0.0
0.820387 0.000136 0.0
0.820194 0.000057 0.0
0.820155 -0.000019 0.0
0.820258 -0.000085 0.0
0.820477 -0.000134 0.0
0.820771 -0.000161 0.0
0.821096 -0.000164 0.0
0.821403 -0.000142 0.0
0.821642 -0.000097 0.0
0.821771 -0.000032 0.0
0.821759 0.000043 0.0
0.821587 0.000129 0.0
0.821236 0.000222 0.0
0.820698 0.000316 0.0
0.819976 0.000406 0.0
0.819081 0.000488 0.0
0.818034 0.000558 0.0
0.816864 0.000612 0.0
0.815601 0.000650 0.0
0.814281 0.000671 0.0
0.812935 0.000675 0.0
0.811595 0.000665 0.0
0.810289 0.000642 0.0
0.809037 0.000610 0.0
0.807857 0.000571 0.0
0.806756 0.000530 0.0
0.805736 0.000490 0.0
0.804792 0.000454 0.0
0.803910 0.000427 0.0
0.803071 0.000412 0.0
0.802247 0.000412 0.0
0.801405 0.000430 0.0
0.800510 0.000466 0.0
0.799522 0.000522 0.0
0.798404 0.000596 0.0
0.797124 0.000685 0.0
0.795656 0.000783 0.0
0.793987 0.000885 0.0
0.792117 0.000985 0.0
0.790059 0.001074 0.0
0.787839 0.001146 0.0
0.785495 0.001198 0.0
0.783070 0.001226 0.0
0.780615 0.001229 0.0
0.778179 0.001207 0.0
0.775810 0.001162 0.0
0.773552 0.001096 0.0
0.771444 0.001012 0.0
0.769518 0.000914 0.0
0.767801 0.000803 0.0
0.766312 0.000685 0.0
0.765064 0.000563 0.0
0.764064 0.000438 0.0
0.763310 0.000316 0.0
0.762796 0.000198 0.0
0.762510 0.000088 0.0
0.762439 -0.000017 0.0
0.762565 -0.000109 0.0
0.762853 -0.000179 0.0
0.763259 -0.000227 0.0
0.763738 -0.000253 0.0
0.764256 -0.000265 0.0
0.764812 -0.000291 0.0
0.765365 -0.000262 0.0
1.000203 0.000480 0.0
1.000678 0.000867 0.0
1.001235 0.001003 0.0
1.001819 0.001016 0.0
1.002443 0.000957 0.0
1.003128 0.000851 0.0
1.003897 0.000709 0.0
1.004769 0.000539 0.0
1.005759 0.000348 0.0
1.006880 0.000141 0.0
1.008141 -0.000075 0.0
1.009544 -0.000290 0.0
1.011088 -0.000496 0.0
1.012761 -0.000682 0.0
1.014547 -0.000836 0.0
1.016422 -0.000947 0.0
1.018351 -0.001006 0.0
1.020297 -0.001004 0.0
1.022216 -0.000936 0.0
1.024062 -0.000801 0.0
1.025790 -0.000603 0.0
1.027358 -0.000349 0.0
1.028731 -0.000053 0.0
1.029887 0.000271 0.0
1.030812 0.000604 0.0
1.031506 0.000930 0.0
1.031981 0.001231 0.0
1.032259 0.001496 0.0
1.032369 0.001713 0.0
1.032347 0.001876 0.0
1.032231 0.001984 0.0
1.032058 0.002035 0.0
1.031867 0.002035 0.0
1.031690 0.001988 0.0
1.031557 0.001901 0.0
1.031493 0.001783 0.0
1.031514 0.001643 0.0
1.031632 0.001491 0.0
1.031851 0.001338 0.0
1.032170 0.001194 0.0
1.032578 0.001069 0.0
1.033059 0.000974 0.0
1.033589 0.000918 0.0
1.034138 0.000910 0.0
1.034671 0.000954 0.0
1.035152 0.001053 0.0
1.035543 0.001202 0.0
1.035812 0.001395 0.0
1.035932 0.001616 0.0
1.035890 0.001849 0.0
1.035684 0.002075 0.0
1.035326 0.002275 0.0
1.034840 0.002433 0.0
1.034260 0.002538 0.0
1.033626 0.002581 0.0
1.032980 0.002562 0.0
1.032367 0.002480 0.0
1.031825 0.002340 0.0
1.031395 0.002147 0.0
1.031107 0.001908 0.0
1.030990 0.001633 0.0
1.031066 0.001329 0.0
1.031350 0.001007 0.0
1.031851 0.000679 0.0
1.032570 0.000356 0.0
1.033501 0.000052 0.0
1.034625 -0.000217 0.0
1.035914 -0.000435 0.0
1.037327 -0.000584 0.0
1.038812 -0.000649 0.0
1.040305 -0.000617 0.0
1.041737 -0.000479 0.0
1.043034 -0.000240 0.0
1.044127 0.000089 0.0
1.044964 0.000481 0.0
1.045513 0.000906 0.0
1.045765 0.001329 0.0
1.045734 0.001720 0.0
1.045453 0.002056 0.0
1.044965 0.002325 0.0
1.044321 0.002523 0.0
1.043569 0.002651 0.0
1.042753 0.002717 0.0
1.041912 0.002731 0.0
1.041078 0.002705 0.0
1.040272 0.002648 0.0
1.039511 0.002573 0.0
1.038804 0.002490 0.0
1.038151 0.002408 0.0
1.037548 0.002338 0.0
1.036984 0.002289 0.0
1.036443 0.002266 0.0
1.035902 0.002278 0.0
1.035338 0.002327 0.0
1.034725 0.002414 0.0
1.034035 0.002537 0.0
1.033247 0.002689 0.0
1.032344 0.002859 0.0
1.031317 0.003035 0.0
1.030168 0.003202 0.0
1.028908 0.003345 0.0
1.027558 0.003450 0.0
1.026149 0.003507 0.0
1.024716 0.003507 0.0
1.023298 0.003449 0.0
1.021937 0.003330 0.0
1.020670 0.003153 0.0
1.019534 0.002924 0.0
1.018560 0.002649 0.0
1.017776 0.002335 0.0
1.017199 0.001992 0.0
1.016845 0.001631 0.0
1.016717 0.001262 0.0
1.016812 0.000899 0.0
1.017120 0.000554 0.0
1.017619 0.000241 0.0
1.018283 -0.000025 0.0
1.019068 -0.000231 0.0
1.019912 -0.000367 0.0
1.020745 -0.000418 0.0
1.021504 -0.000375 0.0
1.022136 -0.000241 0.0
1.022587 -0.000033 0.0
1.022820 0.000229 0.0
1.022813 0.000518 0.0
1.022563 0.000805 0.0
1.022086 0.001062 0.0
1.021415 0.001269 0.0
1.020596 0.001409 0.0
1.019679 0.001478 0.0
1.018719 0.001475 0.0
1.017767 0.001406 0.0
1.016867 0.001278 0.0
1.016059 0.001104 0.0
1.015372 0.000896 0.0
1.014828 0.000666 0.0
1.014437 0.000428 0.0
1.014202 0.000194 0.0
1.014111 -0.000025 0.0
1.014142 -0.000213 0.0
1.014272 -0.000354 0.0
1.014474 -0.000437 0.0
1.014715 -0.000454 0.0
1.014957 -0.000402 0.0
1.015162 -0.000282 0.0
1.015289 -0.000102 0.0
1.015291 0.000122 0.0
1.015130 0.000383 0.0
1.014785 0.000664 0.0
1.014245 0.000951 0.0
1.013513 0.001226 0.0
1.012601 0.001476 0.0
1.011531 0.001687 0.0
1.010333 0.001852 0.0
1.009040 0.001966 0.0
1.007686 0.002029 0.0
1.006307 0.002042 0.0
1.004934 0.002010 0.0
1.003595 0.001941 0.0
1.002314 0.001843 0.0
1.001106 0.001726 0.0
0.999981 0.001601 0.0
0.998943 0.001478 0.0
0.997984 0.001369 0.0
0.997094 0.001285 0.0
0.996251 0.001237 0.0
0.995428 0.001235 0.0
0.994591 0.001285 0.0
0.993702 0.001395 0.0
0.992721 0.001563 0.0
0.991606 0.001787 0.0
0.990322 0.002057 0.0
0.988843 0.002358 0.0
0.987150 0.002671 0.0
0.985244 0.002975 0.0
0.983137 0.003249 0.0
0.980856 0.003473 0.0
0.978438 0.003634 0.0
0.975929 0.003723 0.0
0.973379 0.003737 0.0
0.970837 0.003677 0.0
0.968350 0.003548 0.0
0.965962 0.003356 0.0
0.963711 0.003111 0.0
0.961628 0.002822 0.0
0.959741 0.002499 0.0
0.958069 0.002151 0.0
0.956625 0.001788 0.0
0.955419 0.001420 0.0
0.954452 0.001055 0.0
0.953719 0.000705 0.0
0.953208 0.000378 0.0
0.952892 0.000080 0.0
0.952737 -0.000176 0.0
0.952711 -0.000374 0.0
0.952781 -0.000508 0.0
0.952910 -0.000580 0.0
0.953056 -0.000602 0.0
0.953162 -0.000616 0.0
0.953183 -0.000512 0.0
1.000086 0.000191 0.0
1.000350 0.000417 0.0
1.000757 0.000490 0.0
1.001251 0.000451 0.0
1.001822 0.000328 0.0
1.002476 0.000140 0.0
1.003228 -0.000101 0.0
1.004094 -0.000387 0.0
1.005088 -0.000710 0.0
1.006223 -0.001058 0.0
1.007508 -0.001422 0.0
1.008948 -0.001787 0.0
1.010542 -0.002136 0.0
1.012279 -0.002453 0.0
1.014144 -0.002716 0.0
1.016111 -0.002908 0.0
1.018147 -0.003011 0.0
1.020210 -0.003009 0.0
1.022252 -0.002894 0.0
1.024225 -0.002662 0.0
1.026077 -0.002321 0.0
1.027763 -0.001884 0.0
1.029246 -0.001374 0.0
1.030499 -0.000817 0.0
1.031510 -0.000244 0.0
1.032279 0.000314 0.0
1.032822 0.000829 0.0
1.033163 0.001279 0.0
1.033337 0.001646 0.0
1.033382 0.001920 0.0
1.033339 0.002099 0.0
1.033249 0.002182 0.0
1.033151 0.002177 0.0
1.033079 0.002094 0.0
1.033062 0.001944 0.0
1.033125 0.001742 0.0
1.033285 0.001503 0.0
1.033553 0.001245 0.0
1.033934 0.000984 0.0
1.034426 0.000737 0.0
1.035020 0.000524 0.0
1.035698 0.000360 0.0
1.036437 0.000263 0.0
1.037208 0.000246 0.0
1.037972 0.000320 0.0
1.038690 0.000488 0.0
1.039320 0.000745 0.0
1.039826 0.001078 0.0
1.040176 0.001462 0.0
1.040354 0.001868 0.0
1.040357 0.002260 0.0
1.040199 0.002607 0.0
1.039907 0.002880 0.0
1.039518 0.003060 0.0
1.039076 0.003136 0.0
1.038624 0.003105 0.0
1.038207 0.002968 0.0
1.037866 0.002734 0.0
1.037636 0.002413 0.0
1.037549 0.002016 0.0
1.037632 0.001558 0.0
1.037905 0.001054 0.0
1.038383 0.000520 0.0
1.039076 -0.000027 0.0
1.039984 -0.000566 0.0
1.041101 -0.001074 0.0
1.042413 -0.001527 0.0
1.043896 -0.001897 0.0
1.045514 -0.002154 0.0
1.047219 -0.002270 0.0
1.048951 -0.002221 0.0
1.050637 -0.001992 0.0
1.052199 -0.001585 0.0
1.053562 -0.001022 0.0
1.054664 -0.000347 0.0
1.055466 0.000383 0.0
1.055961 0.001105 0.0
1.056169 0.001767 0.0
1.056131 0.002329 0.0
1.055901 0.002771 0.0
1.055532 0.003090 0.0
1.055077 0.003291 0.0
1.054581 0.003389 0.0
1.054079 0.003402 0.0
1.053600 0.003348 0.0
1.053165 0.003246 0.0
1.052788 0.003114 0.0
1.052474 0.002970 0.0
1.052226 0.002829 0.0
1.052038 0.002709 0.0
1.051898 0.002622 0.0
1.051790 0.002582 0.0
1.051693 0.002599 0.0
1.051582 0.002680 0.0
1.051429 0.002828 0.0
1.051205 0.003037 0.0
1.050885 0.003297 0.0
1.050448 0.003591 0.0
1.049883 0.003896 0.0
1.049189 0.004186 0.0
1.048374 0.004436 0.0
1.047460 0.004623 0.0
1.046473 0.004729 0.0
1.045448 0.004743 0.0
1.044422 0.004658 0.0
1.043429 0.004475 0.0
1.042504 0.004200 0.0
1.041677 0.003841 0.0
1.040972 0.003410 0.0
1.040409 0.002921 0.0
1.040002 0.002389 0.0
1.039760 0.001831 0.0
1.039683 0.001266 0.0
1.039768 0.000714 0.0
1.040003 0.000196 0.0
1.040367 -0.000266 0.0
1.040831 -0.000647 0.0
1.041359 -0.000923 0.0
1.041909 -0.001071 0.0
1.042436 -0.001074 0.0
1.042886 -0.000928 0.0
1.043204 -0.000638 0.0
1.043341 -0.000225 0.0
1.043257 0.000273 0.0
1.042928 0.000811 0.0
1.042354 0.001337 0.0
1.041557 0.001804 0.0
1.040577 0.002177 0.0
1.039465 0.002432 0.0
1.038277 0.002560 0.0
1.037067 0.002563 0.0
1.035885 0.002451 0.0
1.034776 0.002241 0.0
1.033774 0.001952 0.0
1.032907 0.001603 0.0
1.032193 0.001217 0.0
1.031644 0.000816 0.0
1.031261 0.000422 0.0
1.031040 0.000059 0.0
1.030965 -0.000253 0.0
1.031015 -0.000493 0.0
1.031160 -0.000644 0.0
1.031363 -0.000691 0.0
1.031582 -0.000627 0.0
1.031774 -0.000453 0.0
1.031894 -0.000177 0.0
1.031901 0.000188 0.0
1.031761 0.000618 0.0
1.031449 0.001086 0.0
1.030956 0.001563 0.0
1.030279 0.002023 0.0
1.029432 0.002438 0.0
1.028435 0.002791 0.0
1.027316 0.003066 0.0
1.026107 0.003256 0.0
1.024840 0.003359 0.0
1.023551 0.003380 0.0
1.022269 0.003327 0.0
1.021022 0.003211 0.0
1.019832 0.003045 0.0
1.018716 0.002847 0.0
1.017687 0.002634 0.0
1.016747 0.002423 0.0
1.015896 0.002233 0.0
1.015124 0.002083 0.0
1.014415 0.001991 0.0
1.013744 0.001974 0.0
1.013081 0.002046 0.0
1.012388 0.002216 0.0
1.011624 0.002488 0.0
1.010744 0.002856 0.0
1.009709 0.003307 0.0
1.008484 0.003814 0.0
1.007046 0.004346 0.0
1.005388 0.004865 0.0
1.003516 0.005337 0.0
1.001455 0.005728 0.0
0.999238 0.006015 0.0
0.996906 0.006183 0.0
0.994506 0.006228 0.0
0.992083 0.006152 0.0
0.989681 0.005962 0.0
0.987339 0.005672 0.0
0.985092 0.005294 0.0
0.982972 0.004843 0.0
0.981004 0.004334 0.0
0.979209 0.003782 0.0
0.977607 0.003203 0.0
0.976207 0.002610 0.0
0.975019 0.002020 0.0
0.974043 0.001449 0.0
0.973274 0.000913 0.0
0.972702 0.000432 0.0
0.972308 0.000022 0.0
0.972062 -0.000299 0.0
0.971928 -0.000519 0.0
0.971862 -0.000632 0.0
0.971813 -0.000647 0.0
0.971724 -0.000588 0.0
0.971575 -0.000412 0.0
1.000048 0.000057 0.0
1.000219 0.000115 0.0
1.000520 0.000084 0.0
1.000921 -0.000039 0.0
1.001414 -0.000245 0.0
1.002001 -0.000528 0.0
1.002696 -0.000880 0.0
1.003514 -0.001292 0.0
1.004471 -0.001755 0.0
1.005581 -0.002258 0.0
1.006857 -0.002784 0.0
1.008306 -0.003314 0.0
1.009928 -0.003825 0.0
1.011718 -0.004291 0.0
1.013659 -0.004684 0.0
1.015725 -0.004974 0.0
1.017879 -0.005135 0.0
1.020076 -0.005144 0.0
1.022260 -0.004985 0.0
1.024371 -0.004655 0.0
1.026350 -0.004160 0.0
1.028141 -0.003522 0.0
1.029698 -0.002775 0.0
1.030989 -0.001960 0.0
1.032001 -0.001123 0.0
1.032735 -0.000311 0.0
1.033212 0.000434 0.0
1.033465 0.001080 0.0
1.033534 0.001602 0.0
1.033467 0.001987 0.0
1.033311 0.002231 0.0
1.033115 0.002337 0.0
1.032920 0.002316 0.0
1.032765 0.002183 0.0
1.032682 0.001955 0.0
1.032697 0.001653 0.0
1.032828 0.001301 0.0
1.033088 0.000919 0.0
1.033482 0.000534 0.0
1.034007 0.000169 0.0
1.034655 -0.000150 0.0
1.035408 -0.000398 0.0
1.036241 -0.000551 0.0
1.037120 -0.000588 0.0
1.038002 -0.000492 0.0
1.038838 -0.000254 0.0
1.039577 0.000119 0.0
1.040169 0.000608 0.0
1.040574 0.001177 0.0
1.040768 0.001780 0.0
1.040749 0.002364 0.0
1.040533 0.002877 0.0
1.040156 0.003278 0.0
1.039666 0.003541 0.0
1.039114 0.003650 0.0
1.038555 0.003602 0.0
1.038037 0.003405 0.0
1.037605 0.003070 0.0
1.037299 0.002613 0.0
1.037150 0.002051 0.0
1.037186 0.001405 0.0
1.037428 0.000693 0.0
1.037893 -0.000062 0.0
1.038593 -0.000836 0.0
1.039531 -0.001602 0.0
1.040705 -0.002329 0.0
1.042106 -0.002984 0.0
1.043711 -0.003527 0.0
1.045486 -0.003917 0.0
1.047381 -0.004108 0.0
1.049328 -0.004062 0.0
1.051239 -0.003749 0.0
1.053013 -0.003165 0.0
1.054550 -0.002341 0.0
1.055764 -0.001344 0.0
1.056608 -0.000267 0.0
1.057078 0.000790 0.0
1.057210 0.001742 0.0
1.057067 0.002534 0.0
1.056721 0.003142 0.0
1.056245 0.003564 0.0
1.055698 0.003818 0.0
1.055132 0.003925 0.0
1.054586 0.003915 0.0
1.054086 0.003813 0.0
1.053653 0.003648 0.0
1.053298 0.003443 0.0
1.053028 0.003223 0.0
1.052842 0.003010 0.0
1.052734 0.002825 0.0
1.052691 0.002689 0.0
1.052695 0.002619 0.0
1.052723 0.002632 0.0
1.052743 0.002738 0.0
1.052723 0.002943 0.0
1.052628 0.003241 0.0
1.052423 0.003617 0.0
1.052082 0.004047 0.0
1.051588 0.004497 0.0
1.050938 0.004929 0.0
1.050141 0.005304 0.0
1.049223 0.005589 0.0
1.048216 0.005758 0.0
1.047161 0.005795 0.0
1.046099 0.005694 0.0
1.045070 0.005460 0.0
1.044110 0.005099 0.0
1.043252 0.004627 0.0
1.042519 0.004061 0.0
1.041933 0.003419 0.0
1.041506 0.002724 0.0
1.041249 0.001997 0.0
1.041165 0.001262 0.0
1.041250 0.000548 0.0
1.041498 -0.000119 0.0
1.041891 -0.000707 0.0
1.042407 -0.001184 0.0
1.043012 -0.001518 0.0
1.043662 -0.001677 0.0
1.044303 -0.001636 0.0
1.044870 -0.001383 0.0
1.045293 -0.000924 0.0
1.045505 -0.000287 0.0
1.045451 0.000474 0.0
1.045102 0.001288 0.0
1.044458 0.002077 0.0
1.043548 0.002770 0.0
1.042426 0.003313 0.0
1.041158 0.003676 0.0
1.039814 0.003849 0.0
1.038458 0.003840 0.0
1.037147 0.003667 0.0
1.035928 0.003355 0.0
1.034836 0.002931 0.0
1.033902 0.002426 0.0
1.033143 0.001868 0.0
1.032570 0.001288 0.0
1.032188 0.000716 0.0
1.031992 0.000183 0.0
1.031967 -0.000278 0.0
1.032089 -0.000641 0.0
1.032326 -0.000878 0.0
1.032636 -0.000969 0.0
1.032969 -0.000902 0.0
1.033273 -0.000674 0.0
1.033493 -0.000296 0.0
1.033582 0.000212 0.0
1.033500 0.000816 0.0
1.033220 0.001479 0.0
1.032729 0.002156 0.0
1.032029 0.002806 0.0
1.031136 0.003394 0.0
1.030077 0.003891 0.0
1.028886 0.004276 0.0
1.027602 0.004540 0.0
1.026263 0.004680 0.0
1.024907 0.004704 0.0
1.023570 0.004622 0.0
1.022282 0.004451 0.0
1.021066 0.004210 0.0
1.019942 0.003922 0.0
1.018922 0.003609 0.0
1.018013 0.003296 0.0
1.017212 0.003011 0.0
1.016513 0.002777 0.0
1.015897 0.002622 0.0
1.015340 0.002571 0.0
1.014808 0.002644 0.0
1.014259 0.002860 0.0
1.013643 0.003225 0.0
1.012907 0.003735 0.0
1.011998 0.004372 0.0
1.010872 0.005100 0.0
1.009499 0.005871 0.0
1.007867 0.006631 0.0
1.005985 0.007324 0.0
1.003882 0.007904 0.0
1.001600 0.008337 0.0
0.999192 0.008601 0.0
0.996709 0.008692 0.0
0.994204 0.008615 0.0
0.991721 0.008383 0.0
0.989304 0.008011 0.0
0.986987 0.007519 0.0
0.984800 0.006925 0.0
0.982770 0.006250 0.0
0.980919 0.005512 0.0
0.979265 0.004731 0.0
0.977820 0.003926 0.0
0.976595 0.003118 0.0
0.975594 0.002329 0.0
0.974815 0.001581 0.0
0.974250 0.000901 0.0
0.973882 0.000315 0.0
0.973684 -0.000148 0.0
0.973615 -0.000466 0.0
0.973618 -0.000622 0.0
0.973629 -0.000618 0.0
0.973581 -0.000480 0.0
0.973436 -0.000225 0.0
1.000031 -0.000023 0.0
1.000150 -0.000095 0.0
1.000375 -0.000230 0.0
1.000693 -0.000444 0.0
1.001103 -0.000743 0.0
1.001613 -0.001128 0.0
1.002236 -0.001597 0.0
1.002989 -0.002145 0.0
1.003893 -0.002763 0.0
1.004967 -0.003435 0.0
1.006226 -0.004142 0.0
1.007682 -0.004861 0.0
1.009341 -0.005560 0.0
1.011199 -0.006204 0.0
1.013241 -0.006754 0.0
1.015442 -0.007170 0.0
1.017761 -0.007412 0.0
1.020146 -0.007447 0.0
1.022530 -0.007250 0.0
1.024840 -0.006812 0.0
1.027001 -0.006143 0.0
1.028942 -0.005271 0.0
1.030604 -0.004245 0.0
1.031947 -0.003125 0.0
1.032956 -0.001978 0.0
1.033635 -0.000870 0.0
1.034013 0.000139 0.0
1.034132 0.001004 0.0
1.034047 0.001694 0.0
1.033816 0.002193 0.0
1.033497 0.002498 0.0
1.033146 0.002617 0.0
1.032812 0.002565 0.0
1.032537 0.002363 0.0
1.032357 0.002037 0.0
1.032299 0.001614 0.0
1.032384 0.001124 0.0
1.032625 0.000596 0.0
1.033028 0.000061 0.0
1.033591 -0.000447 0.0
1.034306 -0.000896 0.0
1.035154 -0.001254 0.0
1.036110 -0.001485 0.0
1.037135 -0.001558 0.0
1.038178 -0.001447 0.0
1.039179 -0.001136 0.0
1.040069 -0.000628 0.0
1.040779 0.000052 0.0
1.041252 0.000854 0.0
1.041455 0.001707 0.0
1.041381 0.002530 0.0
1.041057 0.003250 0.0
1.040531 0.003808 0.0
1.039868 0.004166 0.0
1.039135 0.004309 0.0
1.038397 0.004239 0.0
1.037714 0.003969 0.0
1.037133 0.003518 0.0
1.036697 0.002908 0.0
1.036440 0.002163 0.0
1.036390 0.001308 0.0
1.036570 0.000367 0.0
1.036999 -0.000631 0.0
1.037691 -0.001658 0.0
1.038654 -0.002681 0.0
1.039890 -0.003661 0.0
1.041393 -0.004556 0.0
1.043149 -0.005316 0.0
1.045126 -0.005881 0.0
1.047274 -0.006188 0.0
1.049518 -0.006172 0.0
1.051748 -0.005779 0.0
1.053829 -0.004990 0.0
1.055615 -0.003839 0.0
1.056980 -0.002426 0.0
1.057856 -0.000904 0.0
1.058246 0.000568 0.0
1.058215 0.001863 0.0
1.057864 0.002908 0.0
1.057299 0.003679 0.0
1.056615 0.004188 0.0
1.055888 0.004468 0.0
1.055173 0.004556 0.0
1.054509 0.004494 0.0
1.053924 0.004319 0.0
1.053435 0.004065 0.0
1.053053 0.003764 0.0
1.052781 0.003445 0.0
1.052618 0.003137 0.0
1.052557 0.002868 0.0
1.052584 0.002662 0.0
1.052678 0.002547 0.0
1.052811 0.002544 0.0
1.052947 0.002670 0.0
1.053044 0.002934 0.0
1.053056 0.003334 0.0
1.052935 0.003849 0.0
1.052645 0.004446 0.0
1.052160 0.005077 0.0
1.051474 0.005686 0.0
1.050599 0.006218 0.0
1.049569 0.006624 0.0
1.048426 0.006871 0.0
1.047224 0.006939 0.0
1.046013 0.006823 0.0
1.044843 0.006530 0.0
1.043755 0.006076 0.0
1.042785 0.005480 0.0
1.041959 0.004766 0.0
1.041301 0.003960 0.0
1.040824 0.003087 0.0
1.040540 0.002175 0.0
1.040454 0.001255 0.0
1.040566 0.000357 0.0
1.040872 -0.000482 0.0
1.041359 -0.001224 0.0
1.042005 -0.001829 0.0
1.042778 -0.002251 0.0
1.043630 -0.002446 0.0
1.044499 -0.002375 0.0
1.045301 -0.002013 0.0
1.045943 -0.001358 0.0
1.046327 -0.000449 0.0
1.046376 0.000641 0.0
1.046042 0.001804 0.0
1.045326 0.002921 0.0
1.044273 0.003888 0.0
1.042961 0.004629 0.0
1.041483 0.005106 0.0
1.039931 0.005316 0.0
1.038384 0.005276 0.0
1.036908 0.005017 0.0
1.035555 0.004577 0.0
1.034362 0.003993 0.0
1.033357 0.003303 0.0
1.032561 0.002546 0.0
1.031984 0.001758 0.0
1.031631 0.000979 0.0
1.031498 0.000249 0.0
1.031570 -0.000391 0.0
1.031822 -0.000902 0.0
1.032215 -0.001247 0.0
1.032701 -0.001395 0.0
1.033218 -0.001327 0.0
1.033703 -0.001037 0.0
1.034086 -0.000537 0.0
1.034307 0.000143 0.0
1.034316 0.000959 0.0
1.034078 0.001854 0.0
1.033581 0.002769 0.0
1.032830 0.003644 0.0
1.031848 0.004431 0.0
1.030673 0.005088 0.0
1.029350 0.005592 0.0
1.027927 0.005931 0.0
1.026452 0.006103 0.0
1.024972 0.006118 0.0
1.023525 0.005992 0.0
1.022148 0.005748 0.0
1.020867 0.005411 0.0
1.019703 0.005009 0.0
1.018671 0.004573 0.0
1.017778 0.004135 0.0
1.017023 0.003727 0.0
1.016399 0.003385 0.0
1.015888 0.003142 0.0
1.015464 0.003032 0.0
1.015089 0.003089 0.0
1.014713 0.003339 0.0
1.014275 0.003799 0.0
1.013705 0.004467 0.0
1.012933 0.005321 0.0
1.011896 0.006313 0.0
1.010552 0.007375 0.0
1.008885 0.008426 0.0
1.006909 0.009387 0.0
1.004664 0.010189 0.0
1.002211 0.010786 0.0
0.999616 0.011154 0.0
0.996948 0.011290 0.0
0.994268 0.011204 0.0
0.991627 0.010917 0.0
0.989069 0.010452 0.0
0.986631 0.009833 0.0
0.984344 0.009085 0.0
0.982232 0.008232 0.0
0.980318 0.007295 0.0
0.978620 0.006300 0.0
0.977153 0.005269 0.0
0.975926 0.004227 0.0
0.974948 0.003200 0.0
0.974218 0.002218 0.0
0.973732 0.001314 0.0
0.973476 0.000525 0.0
0.973422 -0.000107 0.0
0.973524 -0.000540 0.0
0.973711 -0.000739 0.0
0.973893 -0.000694 0.0
0.973975 -0.000438 0.0
0.973878 -0.000025 0.0
1.000021 -0.000075 0.0
1.000102 -0.000244 0.0
1.000261 -0.000466 0.0
1.000499 -0.000764 0.0
1.000819 -0.001154 0.0
1.001237 -0.001644 0.0
1.001769 -0.002237 0.0
1.002439 -0.002930 0.0
1.003272 -0.003715 0.0
1.004293 -0.004576 0.0
1.005523 -0.005490 0.0
1.006982 -0.006428 0.0
1.008680 -0.007350 0.0
1.010619 -0.008211 0.0
1.012790 -0.008960 0.0
1.015165 -0.009541 0.0
1.017703 -0.009898 0.0
1.020340 -0.009983 0.0
1.022998 -0.009756 0.0
1.025583 -0.009202 0.0
1.027997 -0.008328 0.0
1.030146 -0.007175 0.0
1.031952 -0.005809 0.0
1.033364 -0.004316 0.0
1.034363 -0.002793 0.0
1.034960 -0.001331 0.0
1.035194 -0.000013 0.0
1.035127 0.001103 0.0
1.034829 0.001978 0.0
1.034376 0.002594 0.0
1.033839 0.002953 0.0
1.033284 0.003068 0.0
1.032768 0.002964 0.0
1.032339 0.002669 0.0
1.032034 0.002217 0.0
1.031883 0.001643 0.0
1.031908 0.000984 0.0
1.032124 0.000278 0.0
1.032537 -0.000437 0.0
1.033147 -0.001122 0.0
1.033946 -0.001735 0.0
1.034917 -0.002235 0.0
1.036034 -0.002576 0.0
1.037255 -0.002712 0.0
1.038521 -0.002602 0.0
1.039755 -0.002216 0.0
1.040863 -0.001547 0.0
1.041748 -0.000624 0.0
1.042325 0.000480 0.0
1.042541 0.001662 0.0
1.042387 0.002801 0.0
1.041904 0.003787 0.0
1.041165 0.004536 0.0
1.040260 0.005006 0.0
1.039280 0.005182 0.0
1.038306 0.005077 0.0
1.037406 0.004715 0.0
1.036634 0.004125 0.0
1.036034 0.003338 0.0
1.035639 0.002385 0.0
1.035479 0.001296 0.0
1.035578 0.000100 0.0
1.035957 -0.001172 0.0
1.036632 -0.002485 0.0
1.037617 -0.003802 0.0
1.038920 -0.005079 0.0
1.040542 -0.006264 0.0
1.042477 -0.007298 0.0
1.044706 -0.008104 0.0
1.047184 -0.008592 0.0
1.049832 -0.008659 0.0
1.052517 -0.008207 0.0
1.055050 -0.007177 0.0
1.057210 -0.005597 0.0
1.058795 -0.003619 0.0
1.059699 -0.001491 0.0
1.059941 0.000523 0.0
1.059646 0.002234 0.0
1.058979 0.003555 0.0
1.058098 0.004477 0.0
1.057130 0.005042 0.0
1.056163 0.005308 0.0
1.055257 0.005338 0.0
1.054446 0.005186 0.0
1.053756 0.004902 0.0
1.053198 0.004528 0.0
1.052780 0.004100 0.0
1.052505 0.003655 0.0
1.052369 0.003226 0.0
1.052365 0.002845 0.0
1.052478 0.002546 0.0
1.052687 0.002362 0.0
1.052958 0.002325 0.0
1.053249 0.002462 0.0
1.053505 0.002789 0.0
1.053664 0.003308 0.0
1.053661 0.003997 0.0
1.053441 0.004809 0.0
1.052965 0.005676 0.0
1.052221 0.006517 0.0
1.051230 0.007253 0.0
1.050034 0.007816 0.0
1.048696 0.008160 0.0
1.047285 0.008263 0.0
1.045869 0.008125 0.0
1.044506 0.007761 0.0
1.043246 0.007193 0.0
1.042128 0.006452 0.0
1.041181 0.005567 0.0
1.040427 0.004571 0.0
1.039884 0.003495 0.0
1.039563 0.002371 0.0
1.039472 0.001235 0.0
1.039615 0.000122 0.0
1.039990 -0.000927 0.0
1.040589 -0.001865 0.0
1.041397 -0.002642 0.0
1.042383 -0.003198 0.0
1.043500 -0.003470 0.0
1.044675 -0.003395 0.0
1.045805 -0.002925 0.0
1.046758 -0.002042 0.0
1.047394 -0.000786 0.0
1.047587 0.000737 0.0
1.047266 0.002364 0.0
1.046430 0.003913 0.0
1.045154 0.005226 0.0
1.043557 0.006200 0.0
1.041775 0.006796 0.0
1.039931 0.007023 0.0
1.038127 0.006921 0.0
1.036435 0.006540 0.0
1.034910 0.005934 0.0
1.033587 0.005152 0.0
1.032495 0.004242 0.0
1.031651 0.003248 0.0
1.031068 0.002215 0.0
1.030752 0.001191 0.0
1.030700 0.000223 0.0
1.030899 -0.000635 0.0
1.031320 -0.001331 0.0
1.031922 -0.001813 0.0
1.032645 -0.002037 0.0
1.033416 -0.001973 0.0
1.034151 -0.001609 0.0
1.034761 -0.000959 0.0
1.035166 -0.000061 0.0
1.035299 0.001021 0.0
1.035118 0.002210 0.0
1.034608 0.003420 0.0
1.033781 0.004571 0.0
1.032673 0.005594 0.0
1.031335 0.006438 0.0
1.029827 0.007073 0.0
1.028214 0.007486 0.0
1.026556 0.007680 0.0
1.024906 0.007670 0.0
1.023314 0.007479 0.0
1.021817 0.007136 0.0
1.020447 0.006674 0.0
1.019227 0.006129 0.0
1.018173 0.005538 0.0
1.017295 0.004941 0.0
1.016592 0.004378 0.0
1.016058 0.003892 0.0
1.015678 0.003526 0.0
1.015423 0.003327 0.0
1.015253 0.003340 0.0
1.015109 0.003608 0.0
1.014915 0.004162 0.0
1.014578 0.005010 0.0
1.013999 0.006128 0.0
1.013089 0.007452 0.0
1.011784 0.008885 0.0
1.010060 0.010307 0.0
1.007940 0.011602 0.0
1.005485 0.012673 0.0
1.002782 0.013459 0.0
0.999925 0.013934 0.0
0.997001 0.014103 0.0
0.994084 0.013989 0.0
0.991233 0.013624 0.0
0.988493 0.013042 0.0
0.985899 0.012274 0.0
0.983482 0.011349 0.0
0.981266 0.010296 0.0
0.979272 0.009139 0.0
0.977519 0.007907 0.0
0.976022 0.006626 0.0
0.974794 0.005324 0.0
0.973843 0.004032 0.0
0.973176 0.002784 0.0
0.972792 0.001619 0.0
0.972684 0.000584 0.0
0.972831 -0.000259 0.0
0.973182 -0.000841 0.0
0.973652 -0.001094 0.0
0.974109 -0.000979 0.0
0.974401 -0.000527 0.0
0.974386 0.000175 0.0
1.000011 -0.000107 0.0
1.000058 -0.000339 0.0
1.000153 -0.000625 0.0
1.000303 -0.000993 0.0
1.000522 -0.001465 0.0
1.000828 -0.002057 0.0
1.001247 -0.002776 0.0
1.001809 -0.003623 0.0
1.002546 -0.004591 0.0
1.003490 -0.005664 0.0
1.004673 -0.006816 0.0
1.006123 -0.008010 0.0
1.007858 -0.009201 0.0
1.009890 -0.010331 0.0
1.012214 -0.011334 0.0
1.014807 -0.012135 0.0
1.017624 -0.012658 0.0
1.020594 -0.012830 0.0
1.023618 -0.012591 0.0
1.026576 -0.011910 0.0
1.029337 -0.010794 0.0