# vtk DataFile Version 3.0
Vector Field
ASCII
DATASET RECTILINEAR_GRID
DIMENSIONS 200 75 1
X_COORDINATES 200 double
0.050000 0.150000 0.250000 0.350000 0.450000 0.550000 0.650000 0.750000 0.850000 0.950000 1.050000 1.150000 1.250000 1.350000 1.450000 1.550000 1.650000 1.750000 1.850000 1.950000 2.050000 2.150000 2.250000 2.350000 2.450000 2.550000 2.650000 2.750000 2.850000 2.950000 3.050000 3.150000 3.250000 3.350000 3.450000 3.550000 3.650000 3.750000 3.850000 3.950000 4.050000 4.150000 4.250000 4.350000 4.450000 4.550000 4.650000 4.750000 4.850000 4.950000 5.050000 5.150000 5.250000 5.350000 5.450000 5.550000 5.650000 5.750000 5.850000 5.950000 6.050000 6.150000 6.250000 6.350000 6.450000 6.550000 6.650000 6.750000 6.850000 6.950000 7.050000 7.150000 7.250000 7.350000 7.450000 7.550000 7.650000 7.750000 7.850000 7.950000 8.050000 8.150000 8.250000 8.350000 8.450000 8.550000 8.650000 8.750000 8.850000 8.950000 9.050000 9.150000 9.250000 9.350000 9.450000 9.550000 9.650000 9.750000 9.850000 9.950000 10.050000 10.150000 10.250000 10.350000 10.450000 10.550000 10.650000 10.750000 10.850000 10.950000 11.050000 11.150000 11.250000 11.350000 11.450000 11.550000 11.650000 11.750000 11.850000 11.950000 12.050000 12.150000 12.250000 12.350000 12.450000 12.550000 12.650000 12.750000 12.850000 12.950000 13.050000 13.150000 13.250000 13.350000 13.450000 13.550000 13.650000 13.750000 13.850000 13.950000 14.050000 14.150000 14.250000 14.350000 14.450000 14.550000 14.650000 14.750000 14.850000 14.950000 15.050000 15.150000 15.250000 15.350000 15.450000 15.550000 15.650000 15.750000 15.850000 15.950000 16.050000 16.150000 16.250000 16.350000 16.450000 16.550000 16.650000 16.750000 16.850000 16.950000 17.050000 17.150000 17.250000 17.350000 17.450000 17.550000 17.650000 17.750000 17.850000 17.950000 18.050000 18.150000 18.250000 18.350000 18.450000 18.550000 18.650000 18.750000 18.850000 18.950000 19.050000 19.150000 19.250000 19.350000 19.450000 19.550000 19.650000 19.750000 19.850000 19.950000 
Y_COORDINATES 75 double
0.050000 0.150000 0.250000 0.350000 0.450000 0.550000 0.650000 0.750000 0.850000 0.950000 1.050000 1.150000 1.250000 1.350000 1.450000 1.550000 1.650000 1.750000 1.850000 1.950000 2.050000 2.150000 2.250000 2.350000 2.450000 2.550000 2.650000 2.750000 2.850000 2.950000 3.050000 3.150000 3.250000 3.350000 3.450000 3.550000 3.650000 3.750000 3.850000 3.950000 4.050000 4.150000 4.250000 4.350000 4.450000 4.550000 4.650000 4.750000 4.850000 4.950000 5.050000 5.150000 5.250000 5.350000 5.450000 5.550000 5.650000 5.750000 5.850000 5.950000 6.050000 6.150000 6.250000 6.350000 6.450000 6.550000 6.650000 6.750000 6.850000 6.950000 7.050000 7.150000 7.250000 7.350000 7.450000 
Z_COORDINATES 1 double
0.0
POINT_DATA 15000
VECTORS Vektorfeld double
0.999659 0.000341 0.0
0.998749 0.000569 0.0
0.997537 0.000643 0.0
0.996238 0.000656 0.0
0.994943 0.000639 0.0
0.993700 0.000604 0.0
0.992541 0.000556 0.0
0.991487 0.000498 0.0
0.990555 0.000433 0.0
0.989758 0.000363 0.0
0.989104 0.000291 0.0
0.988595 0.000218 0.0
0.988227 0.000149 0.0
0.987991 0.000087 0.0
0.987870 0.000035 0.0
0.987838 -0.000003 0.0
0.987865 -0.000024 0.0
0.987913 -0.000024 0.0
0.987941 -0.000003 0.0
0.987904 0.000040 0.0
0.987760 0.000104 0.0
0.987471 0.000185 0.0
0.987004 0.000281 0.0
0.986337 0.000386 0.0
0.985458 0.000494 0.0
0.984365 0.000599 0.0
0.983069 0.000697 0.0
0.981589 0.000783 0.0
0.979953 0.000853 0.0
0.978194 0.000906 0.0
0.976348 0.000940 0.0
0.974451 0.000957 0.0
0.972538 0.000956 0.0
0.970643 0.000939 0.0
0.968794 0.000910 0.0
0.967015 0.000870 0.0
0.965323 0.000823 0.0
0.963729 0.000771 0.0
0.962238 0.000720 0.0
0.960847 0.000671 0.0
0.959548 0.000628 0.0
0.958324 0.000596 0.0
0.957152 0.000576 0.0
0.956003 0.000572 0.0
0.954846 0.000585 0.0
0.953645 0.000616 0.0
0.952365 0.000663 0.0
0.950977 0.000724 0.0
0.949458 0.000795 0.0
0.947794 0.000869 0.0
0.945983 0.000941 0.0
0.944036 0.001005 0.0
0.941976 0.001055 0.0
0.939833 0.001088 0.0
0.937644 0.001101 0.0
0.935451 0.001093 0.0
0.933294 0.001064 0.0
0.931214 0.001016 0.0
0.929247 0.000950 0.0
0.927427 0.000870 0.0
0.925781 0.000776 0.0
0.924331 0.000674 0.0
0.923092 0.000565 0.0
0.922073 0.000454 0.0
0.921274 0.000345 0.0
0.920685 0.000243 0.0
0.920290 0.000152 0.0
0.920059 0.000079 0.0
0.919953 0.000027 0.0
0.919922 0.000004 0.0
0.919905 0.000012 0.0
0.919838 0.000055 0.0
0.919653 0.000130 0.0
0.919287 0.000235 0.0
0.918692 0.000360 0.0
0.917835 0.000497 0.0
0.916704 0.000634 0.0
0.915310 0.000761 0.0
0.913679 0.000870 0.0
0.911851 0.000958 0.0
0.909870 0.001023 0.0
0.907783 0.001064 0.0
0.905633 0.001085 0.0
0.903459 0.001089 0.0
0.901290 0.001079 0.0
0.899153 0.001059 0.0
0.897062 0.001032 0.0
0.895028 0.001002 0.0
0.893053 0.000973 0.0
0.891132 0.000948 0.0
0.889255 0.000929 0.0
0.887407 0.000920 0.0
0.885566 0.000921 0.0
0.883708 0.000936 0.0
0.881809 0.000963 0.0
0.879843 0.001003 0.0
0.877787 0.001053 0.0
0.875626 0.001109 0.0
0.873349 0.001168 0.0
0.870955 0.001225 0.0
0.868454 0.001276 0.0
0.865863 0.001315 0.0
0.863208 0.001340 0.0
0.860521 0.001348 0.0
0.857835 0.001338 0.0
0.855187 0.001310 0.0
0.852612 0.001265 0.0
0.850142 0.001205 0.0
0.847806 0.001132 0.0
0.845626 0.001048 0.0
0.843620 0.000957 0.0
0.841801 0.000862 0.0
0.840171 0.000767 0.0
0.838729 0.000675 0.0
0.837462 0.000591 0.0
0.836352 0.000519 0.0
0.835369 0.000463 0.0
0.834478 0.000428 0.0
0.833633 0.000417 0.0
0.832783 0.000432 0.0
0.831875 0.000475 0.0
0.830856 0.000544 0.0
0.829678 0.000634 0.0
0.828304 0.000740 0.0
0.826712 0.000852 0.0
0.824900 0.000961 0.0
0.822880 0.001059 0.0
0.820682 0.001139 0.0
0.818347 0.001196 0.0
0.815924 0.001227 0.0
0.813463 0.001234 0.0
0.811012 0.001217 0.0
0.808617 0.001179 0.0
0.806315 0.001124 0.0
0.804135 0.001056 0.0
0.802101 0.000979 0.0
0.800224 0.000898 0.0
0.798507 0.000818 0.0
0.796946 0.000743 0.0
0.795525 0.000678 0.0
0.794221 0.000626 0.0
0.793002 0.000592 0.0
0.791832 0.000578 0.0
0.790668 0.000586 0.0
0.789466 0.000616 0.0
0.788185 0.000666 0.0
0.786786 0.000733 0.0
0.785238 0.000815 0.0
0.783518 0.000905 0.0
0.781616 0.000997 0.0
0.779531 0.001088 0.0
0.777273 0.001170 0.0
0.774861 0.001242 0.0
0.772322 0.001298 0.0
0.769686 0.001338 0.0
0.766987 0.001361 0.0
0.764259 0.001367 0.0
0.761535 0.001358 0.0
0.758842 0.001335 0.0
0.756205 0.001302 0.0
0.753642 0.001261 0.0
0.751166 0.001216 0.0
0.748780 0.001170 0.0
0.746482 0.001128 0.0
0.744263 0.001092 0.0
0.742104 0.001067 0.0
0.739981 0.001056 0.0
0.737863 0.001062 0.0
0.735716 0.001086 0.0
0.733501 0.001129 0.0
0.731182 0.001190 0.0
0.728727 0.001266 0.0
0.726110 0.001351 0.0
0.723319 0.001441 0.0
0.720351 0.001527 0.0
0.717222 0.001602 0.0
0.713959 0.001661 0.0
0.710599 0.001699 0.0
0.707190 0.001711 0.0
0.703782 0.001696 0.0
0.700430 0.001656 0.0
0.697185 0.001589 0.0
0.694096 0.001500 0.0
0.691205 0.001391 0.0
0.688551 0.001264 0.0
0.686164 0.001123 0.0
0.684069 0.000972 0.0
0.682284 0.000814 0.0
0.680816 0.000654 0.0
0.679668 0.000494 0.0
0.678834 0.000340 0.0
0.678299 0.000195 0.0
0.678045 0.000058 0.0
0.678063 -0.000076 0.0
0.678325 -0.000185 0.0
0.678768 -0.000259 0.0
0.679323 -0.000296 0.0
0.679919 -0.000301 0.0
0.680508 -0.000288 0.0
0.681054 -0.000257 0.0
1.000203 0.000479 0.0
1.000679 0.000865 0.0
1.001237 0.001000 0.0
1.001824 0.001012 0.0
1.002451 0.000952 0.0
1.003141 0.000844 0.0
1.003915 0.000701 0.0
1.004793 0.000530 0.0
1.005790 0.000336 0.0
1.006919 0.000128 0.0
1.008189 -0.000089 0.0
1.009602 -0.000306 0.0
1.011156 -0.000513 0.0
1.012842 -0.000700 0.0
1.014641 -0.000856 0.0
1.016529 -0.000969 0.0
1.018472 -0.001029 0.0
1.020433 -0.001028 0.0
1.022369 -0.000961 0.0
1.024232 -0.000828 0.0
1.025978 -0.000630 0.0
1.027564 -0.000378 0.0
1.028957 -0.000082 0.0
1.030133 0.000240 0.0
1.031079 0.000573 0.0
1.031795 0.000897 0.0
1.032292 0.001198 0.0
1.032592 0.001461 0.0
1.032726 0.001677 0.0
1.032728 0.001839 0.0
1.032637 0.001945 0.0
1.032490 0.001996 0.0
1.032326 0.001994 0.0
1.032177 0.001945 0.0
1.032073 0.001857 0.0
1.032038 0.001737 0.0
1.032090 0.001596 0.0
1.032241 0.001442 0.0
1.032494 0.001287 0.0
1.032847 0.001140 0.0
1.033292 0.001014 0.0
1.033810 0.000917 0.0
1.034379 0.000859 0.0
1.034968 0.000849 0.0
1.035543 0.000891 0.0
1.036066 0.000988 0.0
1.036501 0.001136 0.0
1.036815 0.001326 0.0
1.036982 0.001546 0.0
1.036987 0.001777 0.0
1.036830 0.002002 0.0
1.036521 0.002200 0.0
1.036086 0.002356 0.0
1.035559 0.002458 0.0
1.034978 0.002500 0.0
1.034388 0.002478 0.0
1.033831 0.002393 0.0
1.033349 0.002249 0.0
1.032979 0.002053 0.0
1.032755 0.001811 0.0
1.032704 0.001532 0.0
1.032848 0.001224 0.0
1.033204 0.000898 0.0
1.033780 0.000565 0.0
1.034577 0.000237 0.0
1.035589 -0.000072 0.0
1.036798 -0.000346 0.0
1.038176 -0.000569 0.0
1.039681 -0.000724 0.0
1.041261 -0.000794 0.0
1.042854 -0.000766 0.0
1.044388 -0.000633 0.0
1.045789 -0.000398 0.0
1.046991 -0.000073 0.0
1.047938 0.000316 0.0
1.048598 0.000738 0.0
1.048963 0.001158 0.0
1.049048 0.001546 0.0
1.048883 0.001880 0.0
1.048515 0.002145 0.0
1.047992 0.002339 0.0
1.047363 0.002463 0.0
1.046674 0.002525 0.0
1.045963 0.002535 0.0
1.045261 0.002503 0.0
1.044592 0.002441 0.0
1.043972 0.002360 0.0
1.043408 0.002271 0.0
1.042903 0.002184 0.0
1.042452 0.002108 0.0
1.042044 0.002053 0.0
1.041661 0.002027 0.0
1.041282 0.002034 0.0
1.040882 0.002081 0.0
1.040433 0.002167 0.0
1.039909 0.002290 0.0
1.039285 0.002445 0.0
1.038543 0.002620 0.0
1.037674 0.002804 0.0
1.036677 0.002981 0.0
1.035561 0.003137 0.0
1.034346 0.003259 0.0
1.033058 0.003337 0.0
1.031733 0.003364 0.0
1.030405 0.003335 0.0
1.029112 0.003253 0.0
1.027891 0.003119 0.0
1.026774 0.002939 0.0
1.025789 0.002719 0.0
1.024960 0.002469 0.0
1.024305 0.002197 0.0
1.023835 0.001913 0.0
1.023554 0.001627 0.0
1.023459 0.001353 0.0
1.023539 0.001101 0.0
1.023774 0.000885 0.0
1.024136 0.000718 0.0
1.024587 0.000614 0.0
1.025081 0.000583 0.0
1.025564 0.000633 0.0
1.025981 0.000766 0.0
1.026275 0.000979 0.0
1.026395 0.001258 0.0
1.026302 0.001583 0.0
1.025974 0.001928 0.0
1.025408 0.002263 0.0
1.024622 0.002563 0.0
1.023648 0.002806 0.0
1.022533 0.002979 0.0
1.021327 0.003074 0.0
1.020084 0.003092 0.0
1.018854 0.003039 0.0
1.017683 0.002923 0.0
1.016608 0.002757 0.0
1.015659 0.002551 0.0
1.014856 0.002320 0.0
1.014212 0.002078 0.0
1.013729 0.001837 0.0
1.013402 0.001613 0.0
1.013213 0.001418 0.0
1.013139 0.001265 0.0
1.013148 0.001164 0.0
1.013199 0.001125 0.0
1.013250 0.001152 0.0
1.013255 0.001246 0.0
1.013171 0.001401 0.0
1.012957 0.001611 0.0
1.012582 0.001861 0.0
1.012023 0.002136 0.0
1.011271 0.002420 0.0
1.010326 0.002695 0.0
1.009200 0.002947 0.0
1.007914 0.003163 0.0
1.006497 0.003334 0.0
1.004981 0.003454 0.0
1.003401 0.003523 0.0
1.001792 0.003541 0.0
1.000188 0.003513 0.0
0.998616 0.003445 0.0
0.997101 0.003344 0.0
0.995661 0.003221 0.0
0.994307 0.003086 0.0
0.993044 0.002949 0.0
0.991869 0.002822 0.0
0.990770 0.002716 0.0
0.989729 0.002642 0.0
0.988721 0.002611 0.0
0.987714 0.002631 0.0
0.986671 0.002707 0.0
0.985553 0.002841 0.0
0.984320 0.003030 0.0
0.982937 0.003263 0.0
0.981379 0.003528 0.0
0.979631 0.003804 0.0
0.977694 0.004069 0.0
0.975581 0.004302 0.0
0.973322 0.004484 0.0
0.970957 0.004600 0.0
0.968535 0.004640 0.0
0.966109 0.004600 0.0
0.963732 0.004481 0.0
0.961454 0.004287 0.0
0.959322 0.004024 0.0
0.957377 0.003702 0.0
0.955655 0.003329 0.0
0.954183 0.002916 0.0
0.952981 0.002475 0.0
0.952063 0.002015 0.0
0.951434 0.001549 0.0
0.951093 0.001088 0.0
0.951028 0.000645 0.0
0.951226 0.000228 0.0
0.951657 -0.000153 0.0
0.952262 -0.000488 0.0
0.952975 -0.000748 0.0
0.953751 -0.000915 0.0
0.954546 -0.000987 0.0
0.955311 -0.000971 0.0
0.955999 -0.000895 0.0
0.956457 -0.000654 0.0
1.000086 0.000190 0.0
1.000351 0.000413 0.0
1.000760 0.000485 0.0
1.001256 0.000443 0.0
1.001830 0.000319 0.0
1.002489 0.000129 0.0
1.003246 -0.000115 0.0
1.004118 -0.000404 0.0
1.005119 -0.000728 0.0
1.006262 -0.001079 0.0
1.007556 -0.001446 0.0
1.009006 -0.001813 0.0
1.010610 -0.002165 0.0
1.012359 -0.002483 0.0
1.014236 -0.002749 0.0
1.016217 -0.002944 0.0
1.018266 -0.003048 0.0
1.020344 -0.003048 0.0
1.022403 -0.002935 0.0
1.024392 -0.002706 0.0
1.026262 -0.002367 0.0
1.027966 -0.001932 0.0
1.029467 -0.001423 0.0
1.030740 -0.000867 0.0
1.031770 -0.000296 0.0
1.032560 0.000260 0.0
1.033124 0.000774 0.0
1.033487 0.001221 0.0
1.033683 0.001587 0.0
1.033750 0.001860 0.0
1.033731 0.002036 0.0
1.033665 0.002117 0.0
1.033592 0.002110 0.0
1.033546 0.002024 0.0
1.033556 0.001872 0.0
1.033646 0.001667 0.0
1.033835 0.001425 0.0
1.034133 0.001164 0.0
1.034545 0.000899 0.0
1.035069 0.000650 0.0
1.035696 0.000433 0.0
1.036408 0.000266 0.0
1.037183 0.000166 0.0
1.037990 0.000146 0.0
1.038792 0.000217 0.0
1.039549 0.000382 0.0
1.040219 0.000636 0.0
1.040765 0.000966 0.0
1.041157 0.001347 0.0
1.041377 0.001750 0.0
1.041424 0.002140 0.0
1.041311 0.002483 0.0
1.041064 0.002754 0.0
1.040721 0.002931 0.0
1.040326 0.003003 0.0
1.039922 0.002968 0.0
1.039555 0.002827 0.0
1.039265 0.002588 0.0
1.039088 0.002261 0.0
1.039057 0.001859 0.0
1.039196 0.001395 0.0
1.039529 0.000884 0.0
1.040068 0.000343 0.0
1.040824 -0.000211 0.0
1.041798 -0.000758 0.0
1.042984 -0.001275 0.0
1.044367 -0.001736 0.0
1.045923 -0.002114 0.0
1.047618 -0.002379 0.0
1.049402 -0.002504 0.0
1.051216 -0.002462 0.0
1.052986 -0.002241 0.0
1.054634 -0.001840 0.0
1.056086 -0.001283 0.0
1.057278 -0.000613 0.0
1.058172 0.000112 0.0
1.058761 0.000830 0.0
1.059063 0.001487 0.0
1.059121 0.002045 0.0
1.058986 0.002483 0.0
1.058715 0.002796 0.0
1.058358 0.002991 0.0
1.057961 0.003083 0.0
1.057561 0.003088 0.0
1.057187 0.003026 0.0
1.056858 0.002916 0.0
1.056590 0.002775 0.0
1.056389 0.002622 0.0
1.056255 0.002472 0.0
1.056184 0.002342 0.0
1.056165 0.002247 0.0
1.056181 0.002200 0.0
1.056211 0.002210 0.0
1.056229 0.002287 0.0
1.056207 0.002432 0.0
1.056116 0.002640 0.0
1.055931 0.002903 0.0
1.055630 0.003203 0.0
1.055202 0.003518 0.0
1.054644 0.003822 0.0
1.053965 0.004091 0.0
1.053186 0.004301 0.0
1.052334 0.004435 0.0
1.051443 0.004483 0.0
1.050549 0.004438 0.0
1.049688 0.004303 0.0
1.048896 0.004082 0.0
1.048202 0.003786 0.0
1.047634 0.003425 0.0
1.047212 0.003014 0.0
1.046953 0.002566 0.0
1.046868 0.002099 0.0
1.046962 0.001629 0.0
1.047232 0.001175 0.0
1.047671 0.000759 0.0
1.048264 0.000399 0.0
1.048985 0.000121 0.0
1.049801 -0.000056 0.0
1.050671 -0.000111 0.0
1.051544 -0.000030 0.0
1.052362 0.000194 0.0
1.053066 0.000553 0.0
1.053603 0.001027 0.0
1.053930 0.001580 0.0
1.054022 0.002166 0.0
1.053876 0.002736 0.0
1.053511 0.003242 0.0
1.052964 0.003648 0.0
1.052284 0.003933 0.0
1.051524 0.004086 0.0
1.050737 0.004110 0.0
1.049972 0.004016 0.0
1.049270 0.003819 0.0
1.048666 0.003540 0.0
1.048186 0.003198 0.0
1.047848 0.002815 0.0
1.047662 0.002413 0.0
1.047632 0.002015 0.0
1.047752 0.001643 0.0
1.048008 0.001320 0.0
1.048378 0.001066 0.0
1.048833 0.000900 0.0
1.049336 0.000836 0.0
1.049846 0.000881 0.0
1.050318 0.001039 0.0
1.050711 0.001300 0.0
1.050985 0.001652 0.0
1.051108 0.002071 0.0
1.051060 0.002532 0.0
1.050830 0.003006 0.0
1.050420 0.003464 0.0
1.049843 0.003881 0.0
1.049120 0.004237 0.0
1.048280 0.004517 0.0
1.047354 0.004713 0.0
1.046376 0.004822 0.0
1.045377 0.004849 0.0
1.044388 0.004799 0.0
1.043436 0.004683 0.0
1.042541 0.004516 0.0
1.041719 0.004312 0.0
1.040980 0.004088 0.0
1.040329 0.003862 0.0
1.039761 0.003652 0.0
1.039268 0.003478 0.0
1.038832 0.003357 0.0
1.038430 0.003307 0.0
1.038031 0.003341 0.0
1.037599 0.003471 0.0
1.037094 0.003700 0.0
1.036474 0.004023 0.0
1.035701 0.004425 0.0
1.034743 0.004882 0.0
1.033580 0.005360 0.0
1.032208 0.005823 0.0
1.030636 0.006233 0.0
1.028890 0.006559 0.0
1.027005 0.006775 0.0
1.025024 0.006867 0.0
1.022993 0.006830 0.0
1.020957 0.006665 0.0
1.018958 0.006380 0.0
1.017032 0.005988 0.0
1.015212 0.005502 0.0
1.013525 0.004938 0.0
1.011992 0.004313 0.0
1.010628 0.003643 0.0
1.009447 0.002946 0.0
1.008454 0.002240 0.0
1.007650 0.001543 0.0
1.007033 0.000873 0.0
1.006587 0.000249 0.0
1.006290 -0.000308 0.0
1.006121 -0.000769 0.0
1.006058 -0.001116 0.0
1.006068 -0.001333 0.0
1.006113 -0.001409 0.0
1.006148 -0.001350 0.0
1.006124 -0.001179 0.0
1.006052 -0.000758 0.0
1.000048 0.000055 0.0
1.000220 0.000111 0.0
1.000522 0.000077 0.0
1.000926 -0.000049 0.0
1.001422 -0.000259 0.0
1.002014 -0.000545 0.0
1.002714 -0.000899 0.0
1.003538 -0.001315 0.0
1.004502 -0.001782 0.0
1.005620 -0.002287 0.0
1.006905 -0.002817 0.0
1.008363 -0.003350 0.0
1.009997 -0.003864 0.0
1.011798 -0.004334 0.0
1.013751 -0.004730 0.0
1.015831 -0.005023 0.0
1.018000 -0.005187 0.0
1.020211 -0.005199 0.0
1.022411 -0.005043 0.0
1.024540 -0.004716 0.0
1.026536 -0.004224 0.0
1.028345 -0.003588 0.0
1.029921 -0.002843 0.0
1.031232 -0.002030 0.0
1.032263 -0.001195 0.0
1.033018 -0.000386 0.0
1.033517 0.000358 0.0
1.033790 0.001001 0.0
1.033881 0.001520 0.0
1.033837 0.001903 0.0
1.033705 0.002144 0.0
1.033532 0.002247 0.0
1.033362 0.002223 0.0
1.033233 0.002087 0.0
1.033176 0.001855 0.0
1.033218 0.001550 0.0
1.033378 0.001193 0.0
1.033667 0.000808 0.0
1.034092 0.000419 0.0
1.034649 0.000050 0.0
1.035330 -0.000274 0.0
1.036117 -0.000527 0.0
1.036985 -0.000684 0.0
1.037900 -0.000725 0.0
1.038820 -0.000633 0.0
1.039695 -0.000400 0.0
1.040474 -0.000031 0.0
1.041106 0.000454 0.0
1.041552 0.001021 0.0
1.041789 0.001620 0.0
1.041812 0.002200 0.0
1.041639 0.002709 0.0
1.041307 0.003107 0.0
1.040861 0.003366 0.0
1.040355 0.003470 0.0
1.039843 0.003417 0.0
1.039373 0.003214 0.0
1.038991 0.002873 0.0
1.038736 0.002409 0.0
1.038640 0.001839 0.0
1.038731 0.001184 0.0
1.039030 0.000463 0.0
1.039555 -0.000301 0.0
1.040316 -0.001085 0.0
1.041319 -0.001861 0.0
1.042561 -0.002599 0.0
1.044032 -0.003265 0.0
1.045710 -0.003819 0.0
1.047561 -0.004220 0.0
1.049536 -0.004422 0.0
1.051564 -0.004386 0.0
1.053559 -0.004082 0.0
1.055420 -0.003508 0.0
1.057044 -0.002691 0.0
1.058348 -0.001700 0.0
1.059282 -0.000629 0.0
1.059843 0.000423 0.0
1.060065 0.001370 0.0
1.060013 0.002157 0.0
1.059759 0.002759 0.0
1.059373 0.003176 0.0
1.058920 0.003422 0.0
1.058447 0.003522 0.0
1.057995 0.003502 0.0
1.057592 0.003391 0.0
1.057258 0.003214 0.0
1.057005 0.002998 0.0
1.056839 0.002766 0.0
1.056760 0.002540 0.0
1.056762 0.002343 0.0
1.056832 0.002195 0.0
1.056952 0.002115 0.0
1.057098 0.002119 0.0
1.057240 0.002218 0.0
1.057344 0.002418 0.0
1.057374 0.002714 0.0
1.057298 0.003092 0.0
1.057087 0.003527 0.0
1.056724 0.003986 0.0
1.056206 0.004430 0.0
1.055543 0.004823 0.0
1.054760 0.005130 0.0
1.053891 0.005327 0.0
1.052975 0.005397 0.0
1.052057 0.005336 0.0
1.051176 0.005146 0.0
1.050372 0.004836 0.0
1.049676 0.004421 0.0
1.049117 0.003917 0.0
1.048717 0.003343 0.0
1.048493 0.002720 0.0
1.048456 0.002068 0.0
1.048612 0.001411 0.0
1.048961 0.000774 0.0
1.049498 0.000184 0.0
1.050208 -0.000328 0.0
1.051069 -0.000733 0.0
1.052047 -0.000998 0.0
1.053100 -0.001092 0.0
1.054170 -0.000991 0.0
1.055190 -0.000683 0.0
1.056089 -0.000173 0.0
1.056795 0.000510 0.0
1.057252 0.001314 0.0
1.057425 0.002167 0.0
1.057313 0.002993 0.0
1.056943 0.003720 0.0
1.056365 0.004295 0.0
1.055642 0.004688 0.0
1.054842 0.004890 0.0
1.054027 0.004907 0.0
1.053251 0.004759 0.0
1.052558 0.004470 0.0
1.051983 0.004068 0.0
1.051551 0.003582 0.0
1.051280 0.003040 0.0
1.051181 0.002472 0.0
1.051257 0.001910 0.0
1.051502 0.001383 0.0
1.051903 0.000923 0.0
1.052436 0.000559 0.0
1.053071 0.000317 0.0
1.053767 0.000219 0.0
1.054476 0.000278 0.0
1.055150 0.000496 0.0
1.055739 0.000863 0.0
1.056195 0.001359 0.0
1.056484 0.001952 0.0
1.056580 0.002604 0.0
1.056473 0.003271 0.0
1.056167 0.003914 0.0
1.055680 0.004496 0.0
1.055037 0.004988 0.0
1.054274 0.005370 0.0
1.053428 0.005633 0.0
1.052535 0.005774 0.0
1.051632 0.005799 0.0
1.050751 0.005718 0.0
1.049920 0.005547 0.0
1.049161 0.005306 0.0
1.048489 0.005015 0.0
1.047916 0.004696 0.0
1.047446 0.004375 0.0
1.047075 0.004077 0.0
1.046794 0.003827 0.0
1.046588 0.003650 0.0
1.046430 0.003573 0.0
1.046289 0.003615 0.0
1.046125 0.003794 0.0
1.045890 0.004118 0.0
1.045533 0.004582 0.0
1.045006 0.005167 0.0
1.044268 0.005837 0.0
1.043289 0.006545 0.0
1.042062 0.007237 0.0
1.040597 0.007856 0.0
1.038922 0.008357 0.0
1.037078 0.008705 0.0
1.035116 0.008881 0.0
1.033084 0.008880 0.0
1.031029 0.008706 0.0
1.028994 0.008374 0.0
1.027014 0.007901 0.0
1.025118 0.007305 0.0
1.023332 0.006609 0.0
1.021676 0.005832 0.0
1.020165 0.004997 0.0
1.018815 0.004124 0.0
1.017633 0.003236 0.0
1.016628 0.002355 0.0
1.015803 0.001504 0.0
1.015155 0.000711 0.0
1.014678 0.000002 0.0
1.014360 -0.000593 0.0
1.014177 -0.001046 0.0
1.014096 -0.001331 0.0
1.014070 -0.001430 0.0
1.014045 -0.001340 0.0
1.013966 -0.001085 0.0
1.013826 -0.000639 0.0
1.000032 -0.000025 0.0
1.000151 -0.000101 0.0
1.000378 -0.000240 0.0
1.000698 -0.000457 0.0
1.001112 -0.000760 0.0
1.001626 -0.001149 0.0
1.002254 -0.001623 0.0
1.003013 -0.002175 0.0
1.003925 -0.002796 0.0
1.005006 -0.003472 0.0
1.006274 -0.004184 0.0
1.007740 -0.004907 0.0
1.009410 -0.005610 0.0
1.011279 -0.006259 0.0
1.013334 -0.006813 0.0
1.015549 -0.007233 0.0
1.017883 -0.007480 0.0
1.020282 -0.007518 0.0
1.022683 -0.007325 0.0
1.025011 -0.006890 0.0
1.027190 -0.006224 0.0
1.029149 -0.005356 0.0
1.030830 -0.004332 0.0
1.032193 -0.003215 0.0
1.033221 -0.002070 0.0
1.033921 -0.000966 0.0
1.034320 0.000041 0.0
1.034460 0.000903 0.0
1.034397 0.001590 0.0
1.034189 0.002086 0.0
1.033893 0.002388 0.0
1.033566 0.002503 0.0
1.033257 0.002447 0.0
1.033007 0.002241 0.0
1.032853 0.001911 0.0
1.032823 0.001483 0.0
1.032936 0.000988 0.0
1.033206 0.000454 0.0
1.033640 -0.000085 0.0
1.034235 -0.000599 0.0
1.034982 -0.001054 0.0
1.035865 -0.001417 0.0
1.036857 -0.001654 0.0
1.037918 -0.001732 0.0
1.038999 -0.001627 0.0
1.040039 -0.001321 0.0
1.040969 -0.000818 0.0
1.041720 -0.000142 0.0
1.042235 0.000656 0.0
1.042480 0.001504 0.0
1.042449 0.002324 0.0
1.042168 0.003039 0.0
1.041686 0.003592 0.0
1.041067 0.003945 0.0
1.040379 0.004083 0.0
1.039688 0.004007 0.0
1.039052 0.003730 0.0
1.038520 0.003270 0.0
1.038135 0.002652 0.0
1.037930 0.001897 0.0
1.037934 0.001031 0.0
1.038171 0.000080 0.0
1.038660 -0.000931 0.0
1.039413 -0.001970 0.0
1.040440 -0.003006 0.0
1.041743 -0.004000 0.0
1.043317 -0.004909 0.0
1.045146 -0.005682 0.0
1.047200 -0.006262 0.0
1.049428 -0.006583 0.0
1.051754 -0.006580 0.0
1.054070 -0.006199 0.0
1.056239 -0.005421 0.0
1.058114 -0.004278 0.0
1.059570 -0.002873 0.0
1.060537 -0.001357 0.0
1.061018 0.000110 0.0
1.061078 0.001400 0.0
1.060818 0.002440 0.0
1.060343 0.003205 0.0
1.059750 0.003708 0.0
1.059114 0.003980 0.0
1.058491 0.004059 0.0
1.057921 0.003986 0.0
1.057432 0.003799 0.0
1.057041 0.003531 0.0
1.056759 0.003216 0.0
1.056591 0.002882 0.0
1.056534 0.002559 0.0
1.056583 0.002274 0.0
1.056723 0.002055 0.0
1.056933 0.001925 0.0
1.057186 0.001910 0.0
1.057446 0.002026 0.0
1.057669 0.002283 0.0
1.057808 0.002678 0.0
1.057819 0.003193 0.0
1.057661 0.003794 0.0
1.057310 0.004432 0.0
1.056758 0.005053 0.0
1.056021 0.005601 0.0
1.055129 0.006028 0.0
1.054128 0.006300 0.0
1.053070 0.006397 0.0
1.052009 0.006316 0.0
1.050994 0.006062 0.0
1.050069 0.005650 0.0
1.049270 0.005101 0.0
1.048629 0.004438 0.0
1.048168 0.003684 0.0
1.047905 0.002866 0.0
1.047854 0.002010 0.0
1.048023 0.001144 0.0
1.048413 0.000300 0.0
1.049022 -0.000488 0.0
1.049838 -0.001183 0.0
1.050842 -0.001743 0.0
1.052000 -0.002124 0.0
1.053265 -0.002282 0.0
1.054571 -0.002177 0.0
1.055835 -0.001782 0.0
1.056960 -0.001097 0.0
1.057845 -0.000158 0.0
1.058409 0.000961 0.0
1.058602 0.002153 0.0
1.058423 0.003299 0.0
1.057913 0.004294 0.0
1.057148 0.005064 0.0
1.056220 0.005571 0.0
1.055216 0.005811 0.0
1.054215 0.005802 0.0
1.053279 0.005576 0.0
1.052457 0.005169 0.0
1.051785 0.004618 0.0
1.051289 0.003961 0.0
1.050986 0.003234 0.0
1.050888 0.002475 0.0
1.050998 0.001722 0.0
1.051311 0.001013 0.0
1.051813 0.000390 0.0
1.052479 -0.000108 0.0
1.053274 -0.000445 0.0
1.054150 -0.000590 0.0
1.055050 -0.000523 0.0
1.055911 -0.000239 0.0
1.056671 0.000250 0.0
1.057269 0.000916 0.0
1.057661 0.001715 0.0
1.057815 0.002591 0.0
1.057721 0.003486 0.0
1.057385 0.004341 0.0
1.056833 0.005108 0.0
1.056101 0.005749 0.0
1.055234 0.006239 0.0
1.054278 0.006566 0.0
1.053282 0.006730 0.0
1.052286 0.006741 0.0
1.051328 0.006614 0.0
1.050441 0.006370 0.0
1.049647 0.006036 0.0
1.048966 0.005637 0.0
1.048409 0.005204 0.0
1.047982 0.004766 0.0
1.047682 0.004357 0.0
1.047500 0.004009 0.0
1.047421 0.003755 0.0
1.047417 0.003629 0.0
1.047453 0.003663 0.0
1.047482 0.003882 0.0
1.047444 0.004303 0.0
1.047274 0.004924 0.0
1.046905 0.005721 0.0
1.046278 0.006648 0.0
1.045355 0.007637 0.0
1.044120 0.008607 0.0
1.042589 0.009482 0.0
1.040802 0.010193 0.0
1.038817 0.010697 0.0
1.036697 0.010971 0.0
1.034506 0.011013 0.0
1.032299 0.010834 0.0
1.030124 0.010457 0.0
1.028016 0.009905 0.0
1.026007 0.009205 0.0
1.024121 0.008382 0.0
1.022377 0.007460 0.0
1.020793 0.006464 0.0
1.019382 0.005419 0.0
1.018156 0.004349 0.0
1.017123 0.003279 0.0
1.016291 0.002238 0.0
1.015662 0.001254 0.0
1.015235 0.000363 0.0
1.015001 -0.000401 0.0
1.014938 -0.000994 0.0
1.015009 -0.001373 0.0
1.015152 -0.001505 0.0
1.015289 -0.001377 0.0
1.015337 -0.001018 0.0
1.015240 -0.000468 0.0
1.000021 -0.000077 0.0
1.000103 -0.000251 0.0
1.000264 -0.000477 0.0
1.000504 -0.000780 0.0
1.000828 -0.001175 0.0
1.001250 -0.001670 0.0
1.001787 -0.002268 0.0
1.002464 -0.002966 0.0
1.003303 -0.003756 0.0
1.004332 -0.004622 0.0
1.005571 -0.005542 0.0
1.007039 -0.006484 0.0
1.008749 -0.007412 0.0
1.010700 -0.008278 0.0
1.012883 -0.009032 0.0
1.015273 -0.009618 0.0
1.017825 -0.009981 0.0
1.020478 -0.010070 0.0
1.023153 -0.009848 0.0
1.025755 -0.009298 0.0
1.028188 -0.008428 0.0
1.030355 -0.007279 0.0
1.032181 -0.005916 0.0
1.033613 -0.004426 0.0
1.034632 -0.002906 0.0
1.035249 -0.001448 0.0
1.035505 -0.000132 0.0
1.035459 0.000981 0.0
1.035183 0.001852 0.0
1.034752 0.002464 0.0
1.034239 0.002819 0.0
1.033708 0.002930 0.0
1.033216 0.002821 0.0
1.032811 0.002521 0.0
1.032532 0.002064 0.0
1.032409 0.001484 0.0
1.032463 0.000820 0.0
1.032708 0.000107 0.0
1.033151 -0.000614 0.0
1.033793 -0.001306 0.0
1.034625 -0.001927 0.0
1.035631 -0.002433 0.0
1.036783 -0.002781 0.0
1.038041 -0.002924 0.0
1.039346 -0.002821 0.0
1.040619 -0.002440 0.0
1.041768 -0.001777 0.0
1.042694 -0.000860 0.0
1.043313 0.000240 0.0
1.043571 0.001417 0.0
1.043461 0.002552 0.0
1.043021 0.003532 0.0
1.042326 0.004277 0.0
1.041464 0.004741 0.0
1.040529 0.004911 0.0
1.039601 0.004798 0.0
1.038748 0.004427 0.0
1.038024 0.003828 0.0
1.037474 0.003030 0.0
1.037131 0.002066 0.0
1.037024 0.000964 0.0
1.037180 -0.000246 0.0
1.037617 -0.001531 0.0
1.038354 -0.002860 0.0
1.039403 -0.004192 0.0
1.040773 -0.005486 0.0
1.042465 -0.006689 0.0
1.044474 -0.007740 0.0
1.046779 -0.008563 0.0
1.049338 -0.009068 0.0
1.052070 -0.009152 0.0
1.054842 -0.008715 0.0
1.057466 -0.007698 0.0
1.059718 -0.006128 0.0
1.061396 -0.004158 0.0
1.062393 -0.002036 0.0
1.062728 -0.000027 0.0
1.062524 0.001681 0.0
1.061947 0.002997 0.0
1.061156 0.003914 0.0
1.060278 0.004471 0.0
1.059401 0.004729 0.0
1.058586 0.004748 0.0
1.057868 0.004584 0.0
1.057272 0.004286 0.0
1.056812 0.003895 0.0
1.056494 0.003451 0.0
1.056322 0.002988 0.0
1.056294 0.002539 0.0
1.056400 0.002139 0.0
1.056628 0.001822 0.0
1.056954 0.001621 0.0
1.057348 0.001568 0.0
1.057765 0.001692 0.0
1.058150 0.002009 0.0
1.058442 0.002522 0.0
1.058574 0.003208 0.0
1.058490 0.004021 0.0
1.058151 0.004894 0.0
1.057548 0.005746 0.0
1.056697 0.006496 0.0
1.055645 0.007077 0.0
1.054452 0.007444 0.0
1.053191 0.007573 0.0
1.051929 0.007464 0.0
1.050727 0.007131 0.0
1.049636 0.006597 0.0
1.048696 0.005892 0.0
1.047940 0.005045 0.0
1.047393 0.004086 0.0
1.047073 0.003047 0.0
1.046994 0.001958 0.0
1.047168 0.000854 0.0
1.047599 -0.000231 0.0
1.048288 -0.001255 0.0
1.049228 -0.002173 0.0
1.050405 -0.002933 0.0
1.051788 -0.003476 0.0
1.053329 -0.003738 0.0
1.054954 -0.003653 0.0
1.056557 -0.003173 0.0
1.058004 -0.002278 0.0
1.059148 -0.001007 0.0
1.059862 0.000533 0.0
1.060070 0.002180 0.0
1.059771 0.003751 0.0
1.059035 0.005087 0.0
1.057982 0.006088 0.0
1.056745 0.006713 0.0
1.055445 0.006973 0.0
1.054180 0.006907 0.0
1.053021 0.006566 0.0
1.052020 0.006002 0.0
1.051211 0.005265 0.0
1.050619 0.004402 0.0
1.050261 0.003454 0.0
1.050148 0.002466 0.0
1.050286 0.001483 0.0
1.050671 0.000553 0.0
1.051291 -0.000272 0.0
1.052119 -0.000941 0.0
1.053114 -0.001402 0.0
1.054220 -0.001614 0.0
1.055366 -0.001545 0.0
1.056471 -0.001184 0.0
1.057451 -0.000545 0.0
1.058229 0.000335 0.0
1.058741 0.001392 0.0
1.058950 0.002551 0.0
1.058842 0.003728 0.0
1.058432 0.004844 0.0
1.057756 0.005833 0.0
1.056866 0.006646 0.0
1.055821 0.007254 0.0
1.054683 0.007644 0.0
1.053509 0.007822 0.0
1.052353 0.007802 0.0
1.051256 0.007607 0.0
1.050256 0.007266 0.0
1.049379 0.006810 0.0
1.048647 0.006275 0.0
1.048072 0.005697 0.0
1.047661 0.005112 0.0
1.047413 0.004560 0.0
1.047321 0.004080 0.0
1.047369 0.003715 0.0
1.047530 0.003510 0.0
1.047766 0.003509 0.0
1.048020 0.003753 0.0
1.048219 0.004271 0.0
1.048275 0.005070 0.0
1.048093 0.006126 0.0
1.047587 0.007376 0.0
1.046697 0.008722 0.0
1.045404 0.010050 0.0
1.043731 0.011244 0.0
1.041738 0.012211 0.0
1.039509 0.012893 0.0
1.037134 0.013269 0.0
1.034696 0.013344 0.0
1.032263 0.013143 0.0
1.029887 0.012700 0.0
1.027607 0.012049 0.0
1.025453 0.011225 0.0
1.023445 0.010256 0.0
1.021605 0.009170 0.0
1.019947 0.007996 0.0
1.018487 0.006759 0.0
1.017235 0.005486 0.0
1.016204 0.004205 0.0
1.015401 0.002946 0.0
1.014834 0.001742 0.0
1.014507 0.000630 0.0
1.014417 -0.000344 0.0
1.014551 -0.001121 0.0
1.014866 -0.001632 0.0
1.015288 -0.001811 0.0
1.015698 -0.001618 0.0
1.015955 -0.001084 0.0
1.015935 -0.000284 0.0
1.000012 -0.000109 0.0
1.000059 -0.000347 0.0
1.000155 -0.000638 0.0
1.000308 -0.001012 0.0
1.000530 -0.001490 0.0
1.000841 -0.002087 0.0
1.001265 -0.002812 0.0
1.001833 -0.003666 0.0
1.002577 -0.004640 0.0
1.003529 -0.005719 0.0
1.004722 -0.006877 0.0
1.006181 -0.008077 0.0
1.007928 -0.009274 0.0
1.009971 -0.010411 0.0
1.012308 -0.011420 0.0
1.014916 -0.012228 0.0
1.017748 -0.012756 0.0
1.020734 -0.012933 0.0
1.023775 -0.012700 0.0
1.026751 -0.012024 0.0
1.029530 -0.010913 0.0
1.031984 -0.009416 0.0