# vtk DataFile Version 3.0
Vector Field
ASCII
DATASET RECTILINEAR_GRID
DIMENSIONS 200 75 1
X_COORDINATES 200 double
0.050000 0.150000 0.250000 0.350000 0.450000 0.550000 0.650000 0.750000 0.850000 0.950000 1.050000 1.150000 1.250000 1.350000 1.450000 1.550000 1.650000 1.750000 1.850000 1.950000 2.050000 2.150000 2.250000 2.350000 2.450000 2.550000 2.650000 2.750000 2.850000 2.950000 3.050000 3.150000 3.250000 3.350000 3.450000 3.550000 3.650000 3.750000 3.850000 3.950000 4.050000 4.150000 4.250000 4.350000 4.450000 4.550000 4.650000 4.750000 4.850000 4.950000 5.050000 5.150000 5.250000 5.350000 5.450000 5.550000 5.650000 5.750000 5.850000 5.950000 6.050000 6.150000 6.250000 6.350000 6.450000 6.550000 6.650000 6.750000 6.850000 6.950000 7.050000 7.150000 7.250000 7.350000 7.450000 7.550000 7.650000 7.750000 7.850000 7.950000 8.050000 8.150000 8.250000 8.350000 8.450000 8.550000 8.650000 8.750000 8.850000 8.950000 9.050000 9.150000 9.250000 9.350000 9.450000 9.550000 9.650000 9.750000 9.850000 9.950000 10.050000 10.150000 10.250000 10.350000 10.450000 10.550000 10.650000 10.750000 10.850000 10.950000 11.050000 11.150000 11.250000 11.350000 11.450000 11.550000 11.650000 11.750000 11.850000 11.950000 12.050000 12.150000 12.250000 12.350000 12.450000 12.550000 12.650000 12.750000 12.850000 12.950000 13.050000 13.150000 13.250000 13.350000 13.450000 13.550000 13.650000 13.750000 13.850000 13.950000 14.050000 14.150000 14.250000 14.350000 14.450000 14.550000 14.650000 14.750000 14.850000 14.950000 15.050000 15.150000 15.250000 15.350000 15.450000 15.550000 15.650000 15.750000 15.850000 15.950000 16.050000 16.150000 16.250000 16.350000 16.450000 16.550000 16.650000 16.750000 16.850000 16.950000 17.050000 17.150000 17.250000 17.350000 17.450000 17.550000 17.650000 17.750000 17.850000 17.950000 18.050000 18.150000 18.250000 18.350000 18.450000 18.550000 18.650000 18.750000 18.850000 18.950000 19.050000 19.150000 19.250000 19.350000 19.450000 19.550000 19.650000 19.750000 19.850000 19.950000 
Y_COORDINATES 75 double
0.050000 0.150000 0.250000 0.350000 0.450000 0.550000 0.650000 0.750000 0.850000 0.950000 1.050000 1.150000 1.250000 1.350000 1.450000 1.550000 1.650000 1.750000 1.850000 1.950000 2.050000 2.150000 2.250000 2.350000 2.450000 2.550000 2.650000 2.750000 2.850000 2.950000 3.050000 3.150000 3.250000 3.350000 3.450000 3.550000 3.650000 3.750000 3.850000 3.950000 4.050000 4.150000 4.250000 4.350000 4.450000 4.550000 4.650000 4.750000 4.850000 4.950000 5.050000 5.150000 5.250000 5.350000 5.450000 5.550000 5.650000 5.750000 5.850000 5.950000 6.050000 6.150000 6.250000 6.350000 6.450000 6.550000 6.650000 6.750000 6.850000 6.950000 7.050000 7.150000 7.250000 7.350000 7.450000 
Z_COORDINATES 1 double
0.0
POINT_DATA 15000
VECTORS Vektorfeld double
0.999659 0.000342 0.0
0.998747 0.000570 0.0
0.997531 0.000646 0.0
0.996226 0.000660 0.0
0.994923 0.000643 0.0
0.993670 0.000609 0.0
0.992499 0.000562 0.0
0.991431 0.000506 0.0
0.990483 0.000442 0.0
0.989668 0.000373 0.0
0.988993 0.000302 0.0
0.988461 0.000230 0.0
0.988069 0.000162 0.0
0.987805 0.000101 0.0
0.987654 0.000050 0.0
0.987591 0.000013 0.0
0.987583 -0.000006 0.0
0.987595 -0.000006 0.0
0.987584 0.000017 0.0
0.987507 0.000060 0.0
0.987322 0.000125 0.0
0.986989 0.000208 0.0
0.986477 0.000304 0.0
0.985763 0.000410 0.0
0.984835 0.000518 0.0
0.983692 0.000625 0.0
0.982344 0.000723 0.0
0.980811 0.000810 0.0
0.979120 0.000881 0.0
0.977304 0.000935 0.0
0.975398 0.000971 0.0
0.973439 0.000988 0.0
0.971462 0.000988 0.0
0.969500 0.000973 0.0
0.967582 0.000945 0.0
0.965730 0.000907 0.0
0.963962 0.000861 0.0
0.962289 0.000812 0.0
0.960716 0.000762 0.0
0.959240 0.000715 0.0
0.957852 0.000674 0.0
0.956534 0.000643 0.0
0.955265 0.000626 0.0
0.954015 0.000624 0.0
0.952753 0.000639 0.0
0.951443 0.000671 0.0
0.950051 0.000721 0.0
0.948546 0.000784 0.0
0.946906 0.000856 0.0
0.945116 0.000933 0.0
0.943176 0.001007 0.0
0.941096 0.001073 0.0
0.938897 0.001126 0.0
0.936611 0.001161 0.0
0.934274 0.001176 0.0
0.931926 0.001171 0.0
0.929611 0.001145 0.0
0.927366 0.001099 0.0
0.925230 0.001036 0.0
0.923236 0.000958 0.0
0.921411 0.000867 0.0
0.919778 0.000766 0.0
0.918354 0.000659 0.0
0.917146 0.000549 0.0
0.916158 0.000440 0.0
0.915381 0.000337 0.0
0.914800 0.000244 0.0
0.914388 0.000168 0.0
0.914108 0.000112 0.0
0.913914 0.000082 0.0
0.913751 0.000082 0.0
0.913557 0.000112 0.0
0.913274 0.000172 0.0
0.912847 0.000255 0.0
0.912236 0.000355 0.0
0.911419 0.000462 0.0
0.910392 0.000565 0.0
0.909173 0.000654 0.0
0.907795 0.000724 0.0
0.906300 0.000771 0.0
0.904736 0.000794 0.0
0.903148 0.000794 0.0
0.901580 0.000775 0.0
0.900065 0.000740 0.0
0.898632 0.000694 0.0
0.897298 0.000640 0.0
0.896076 0.000583 0.0
0.894968 0.000525 0.0
0.893973 0.000470 0.0
0.893081 0.000422 0.0
0.892278 0.000381 0.0
0.891545 0.000352 0.0
0.890859 0.000335 0.0
0.890193 0.000331 0.0
0.889522 0.000341 0.0
0.888818 0.000363 0.0
0.888057 0.000397 0.0
0.887223 0.000438 0.0
0.886302 0.000483 0.0
0.885291 0.000527 0.0
0.884198 0.000566 0.0
0.883036 0.000596 0.0
0.881826 0.000613 0.0
0.880597 0.000616 0.0
0.879378 0.000603 0.0
0.878201 0.000574 0.0
0.877097 0.000531 0.0
0.876092 0.000474 0.0
0.875214 0.000405 0.0
0.874480 0.000328 0.0
0.873907 0.000245 0.0
0.873505 0.000158 0.0
0.873277 0.000070 0.0
0.873226 -0.000019 0.0
0.873347 -0.000102 0.0
0.873623 -0.000174 0.0
0.874026 -0.000229 0.0
0.874516 -0.000261 0.0
0.875046 -0.000269 0.0
0.875562 -0.000248 0.0
0.876009 -0.000198 0.0
0.876330 -0.000123 0.0
0.876480 -0.000028 0.0
0.876432 0.000076 0.0
0.876170 0.000185 0.0
0.875693 0.000292 0.0
0.875013 0.000388 0.0
0.874158 0.000467 0.0
0.873165 0.000525 0.0
0.872080 0.000560 0.0
0.870947 0.000572 0.0
0.869813 0.000562 0.0
0.868718 0.000533 0.0
0.867696 0.000488 0.0
0.866776 0.000431 0.0
0.865979 0.000366 0.0
0.865317 0.000296 0.0
0.864795 0.000226 0.0
0.864411 0.000158 0.0
0.864154 0.000099 0.0
0.864006 0.000050 0.0
0.863941 0.000015 0.0
0.863932 -0.000005 0.0
0.863944 -0.000007 0.0
0.863941 0.000010 0.0
0.863886 0.000044 0.0
0.863748 0.000094 0.0
0.863500 0.000154 0.0
0.863123 0.000223 0.0
0.862608 0.000293 0.0
0.861954 0.000361 0.0
0.861169 0.000423 0.0
0.860272 0.000474 0.0
0.859285 0.000513 0.0
0.858234 0.000538 0.0
0.857149 0.000548 0.0
0.856057 0.000544 0.0
0.854987 0.000527 0.0
0.853960 0.000499 0.0
0.852998 0.000463 0.0
0.852113 0.000421 0.0
0.851315 0.000377 0.0
0.850604 0.000333 0.0
0.849978 0.000293 0.0
0.849423 0.000261 0.0
0.848923 0.000239 0.0
0.848453 0.000231 0.0
0.847982 0.000240 0.0
0.847475 0.000267 0.0
0.846894 0.000313 0.0
0.846202 0.000378 0.0
0.845366 0.000458 0.0
0.844357 0.000551 0.0
0.843157 0.000649 0.0
0.841761 0.000747 0.0
0.840175 0.000839 0.0
0.838418 0.000918 0.0
0.836519 0.000981 0.0
0.834513 0.001024 0.0
0.832443 0.001046 0.0
0.830349 0.001047 0.0
0.828273 0.001028 0.0
0.826254 0.000990 0.0
0.824328 0.000936 0.0
0.822524 0.000868 0.0
0.820870 0.000787 0.0
0.819386 0.000697 0.0
0.818090 0.000599 0.0
0.816992 0.000498 0.0
0.816101 0.000394 0.0
0.815415 0.000292 0.0
0.814930 0.000194 0.0
0.814634 0.000103 0.0
0.814511 0.000020 0.0
0.814543 -0.000052 0.0
0.814704 -0.000109 0.0
0.814965 -0.000152 0.0
0.815304 -0.000188 0.0
0.815744 -0.000252 0.0
0.816273 -0.000277 0.0
1.000203 0.000480 0.0
1.000676 0.000869 0.0
1.001231 0.001008 0.0
1.001812 0.001022 0.0
1.002431 0.000965 0.0
1.003111 0.000860 0.0
1.003874 0.000720 0.0
1.004737 0.000552 0.0
1.005718 0.000362 0.0
1.006829 0.000157 0.0
1.008078 -0.000057 0.0
1.009469 -0.000270 0.0
1.010998 -0.000474 0.0
1.012656 -0.000658 0.0
1.014425 -0.000810 0.0
1.016282 -0.000919 0.0
1.018192 -0.000977 0.0
1.020118 -0.000973 0.0
1.022016 -0.000903 0.0
1.023840 -0.000766 0.0
1.025544 -0.000566 0.0
1.027086 -0.000311 0.0
1.028434 -0.000013 0.0
1.029563 0.000312 0.0
1.030460 0.000647 0.0
1.031126 0.000974 0.0
1.031571 0.001277 0.0
1.031819 0.001543 0.0
1.031897 0.001761 0.0
1.031842 0.001927 0.0
1.031691 0.002036 0.0
1.031483 0.002090 0.0
1.031254 0.002092 0.0
1.031039 0.002047 0.0
1.030865 0.001963 0.0
1.030758 0.001848 0.0
1.030735 0.001711 0.0
1.030806 0.001563 0.0
1.030977 0.001413 0.0
1.031245 0.001272 0.0
1.031600 0.001151 0.0
1.032025 0.001059 0.0
1.032496 0.001008 0.0
1.032984 0.001003 0.0
1.033454 0.001052 0.0
1.033869 0.001154 0.0
1.034191 0.001308 0.0
1.034388 0.001504 0.0
1.034434 0.001730 0.0
1.034314 0.001968 0.0
1.034027 0.002199 0.0
1.033585 0.002404 0.0
1.033012 0.002567 0.0
1.032342 0.002677 0.0
1.031613 0.002726 0.0
1.030869 0.002712 0.0
1.030154 0.002635 0.0
1.029508 0.002500 0.0
1.028969 0.002311 0.0
1.028571 0.002076 0.0
1.028342 0.001803 0.0
1.028303 0.001501 0.0
1.028472 0.001179 0.0
1.028859 0.000849 0.0
1.029464 0.000522 0.0
1.030282 0.000212 0.0
1.031298 -0.000066 0.0
1.032485 -0.000296 0.0
1.033803 -0.000462 0.0
1.035202 -0.000548 0.0
1.036620 -0.000542 0.0
1.037988 -0.000438 0.0
1.039232 -0.000239 0.0
1.040285 0.000040 0.0
1.041091 0.000376 0.0
1.041615 0.000736 0.0
1.041844 0.001088 0.0
1.041791 0.001403 0.0
1.041484 0.001660 0.0
1.040966 0.001848 0.0
1.040282 0.001964 0.0
1.039480 0.002013 0.0
1.038601 0.002002 0.0
1.037684 0.001944 0.0
1.036760 0.001848 0.0
1.035852 0.001727 0.0
1.034980 0.001591 0.0
1.034154 0.001450 0.0
1.033381 0.001314 0.0
1.032659 0.001191 0.0
1.031983 0.001091 0.0
1.031340 0.001018 0.0
1.030715 0.000980 0.0
1.030085 0.000980 0.0
1.029428 0.001020 0.0
1.028720 0.001097 0.0
1.027938 0.001205 0.0
1.027067 0.001336 0.0
1.026096 0.001477 0.0
1.025025 0.001615 0.0
1.023861 0.001736 0.0
1.022622 0.001828 0.0
1.021332 0.001880 0.0
1.020023 0.001888 0.0
1.018726 0.001847 0.0
1.017477 0.001757 0.0
1.016306 0.001623 0.0
1.015243 0.001448 0.0
1.014315 0.001239 0.0
1.013540 0.001003 0.0
1.012935 0.000748 0.0
1.012510 0.000483 0.0
1.012265 0.000217 0.0
1.012194 -0.000043 0.0
1.012278 -0.000283 0.0
1.012497 -0.000489 0.0
1.012828 -0.000647 0.0
1.013238 -0.000743 0.0
1.013688 -0.000768 0.0
1.014135 -0.000712 0.0
1.014529 -0.000575 0.0
1.014821 -0.000360 0.0
1.014965 -0.000084 0.0
1.014915 0.000231 0.0
1.014644 0.000564 0.0
1.014146 0.000888 0.0
1.013438 0.001180 0.0
1.012550 0.001418 0.0
1.011525 0.001592 0.0
1.010410 0.001694 0.0
1.009256 0.001725 0.0
1.008109 0.001691 0.0
1.007010 0.001599 0.0
1.005994 0.001460 0.0
1.005088 0.001285 0.0
1.004312 0.001086 0.0
1.003677 0.000874 0.0
1.003186 0.000661 0.0
1.002834 0.000459 0.0
1.002610 0.000280 0.0
1.002492 0.000135 0.0
1.002452 0.000033 0.0
1.002455 -0.000018 0.0
1.002463 -0.000014 0.0
1.002437 0.000047 0.0
1.002338 0.000161 0.0
1.002132 0.000321 0.0
1.001790 0.000516 0.0
1.001296 0.000732 0.0
1.000642 0.000954 0.0
0.999830 0.001167 0.0
0.998874 0.001358 0.0
0.997795 0.001516 0.0
0.996622 0.001633 0.0
0.995385 0.001706 0.0
0.994118 0.001732 0.0
0.992853 0.001715 0.0
0.991621 0.001658 0.0
0.990448 0.001568 0.0
0.989354 0.001451 0.0
0.988355 0.001317 0.0
0.987461 0.001175 0.0
0.986673 0.001034 0.0
0.985987 0.000906 0.0
0.985389 0.000800 0.0
0.984862 0.000727 0.0
0.984379 0.000697 0.0
0.983907 0.000718 0.0
0.983409 0.000795 0.0
0.982844 0.000931 0.0
0.982171 0.001125 0.0
0.981353 0.001367 0.0
0.980358 0.001646 0.0
0.979168 0.001944 0.0
0.977775 0.002241 0.0
0.976187 0.002519 0.0
0.974424 0.002759 0.0
0.972516 0.002947 0.0
0.970503 0.003076 0.0
0.968427 0.003141 0.0
0.966332 0.003142 0.0
0.964259 0.003082 0.0
0.962248 0.002967 0.0
0.960331 0.002802 0.0
0.958541 0.002596 0.0
0.956901 0.002353 0.0
0.955432 0.002083 0.0
0.954150 0.001792 0.0
0.953065 0.001488 0.0
0.952182 0.001179 0.0
0.951500 0.000874 0.0
0.951015 0.000582 0.0
0.950712 0.000313 0.0
0.950569 0.000075 0.0
0.950553 -0.000124 0.0
0.950629 -0.000274 0.0
0.950759 -0.000377 0.0
0.950905 -0.000447 0.0
0.951002 -0.000530 0.0
0.951002 -0.000528 0.0
1.000086 0.000192 0.0
1.000349 0.000421 0.0
1.000753 0.000497 0.0
1.001244 0.000460 0.0
1.001811 0.000341 0.0
1.002460 0.000156 0.0
1.003205 -0.000083 0.0
1.004063 -0.000366 0.0
1.005048 -0.000685 0.0
1.006172 -0.001031 0.0
1.007446 -0.001392 0.0
1.008874 -0.001753 0.0
1.010453 -0.002099 0.0
1.012176 -0.002413 0.0
1.014024 -0.002673 0.0
1.015974 -0.002862 0.0
1.017991 -0.002961 0.0
1.020034 -0.002957 0.0
1.022055 -0.002839 0.0
1.024006 -0.002605 0.0
1.025835 -0.002261 0.0
1.027497 -0.001822 0.0
1.028955 -0.001309 0.0
1.030183 -0.000749 0.0
1.031167 -0.000174 0.0
1.031910 0.000386 0.0
1.032424 0.000904 0.0
1.032737 0.001356 0.0
1.032881 0.001726 0.0
1.032895 0.002003 0.0
1.032820 0.002185 0.0
1.032697 0.002272 0.0
1.032564 0.002271 0.0
1.032456 0.002191 0.0
1.032402 0.002046 0.0
1.032426 0.001849 0.0
1.032546 0.001615 0.0
1.032772 0.001362 0.0
1.033109 0.001106 0.0
1.033555 0.000865 0.0
1.034100 0.000657 0.0
1.034728 0.000500 0.0
1.035415 0.000409 0.0
1.036131 0.000398 0.0
1.036838 0.000479 0.0
1.037498 0.000653 0.0
1.038068 0.000917 0.0
1.038510 0.001256 0.0
1.038795 0.001648 0.0
1.038906 0.002060 0.0
1.038840 0.002460 0.0
1.038610 0.002814 0.0
1.038243 0.003096 0.0
1.037777 0.003285 0.0
1.037254 0.003370 0.0
1.036718 0.003347 0.0
1.036214 0.003219 0.0
1.035782 0.002994 0.0
1.035458 0.002680 0.0
1.035273 0.002290 0.0
1.035254 0.001837 0.0
1.035423 0.001337 0.0
1.035793 0.000804 0.0
1.036375 0.000256 0.0
1.037171 -0.000286 0.0
1.038175 -0.000801 0.0
1.039371 -0.001265 0.0
1.040736 -0.001649 0.0
1.042233 -0.001925 0.0
1.043812 -0.002064 0.0
1.045412 -0.002044 0.0
1.046958 -0.001849 0.0
1.048367 -0.001482 0.0
1.049561 -0.000964 0.0
1.050474 -0.000339 0.0
1.051063 0.000338 0.0
1.051316 0.001004 0.0
1.051250 0.001607 0.0
1.050902 0.002110 0.0
1.050323 0.002495 0.0
1.049568 0.002757 0.0
1.048687 0.002904 0.0
1.047727 0.002950 0.0
1.046729 0.002912 0.0
1.045724 0.002809 0.0
1.044740 0.002658 0.0
1.043796 0.002477 0.0
1.042904 0.002282 0.0
1.042071 0.002088 0.0
1.041299 0.001911 0.0
1.040581 0.001765 0.0
1.039907 0.001661 0.0
1.039259 0.001611 0.0
1.038615 0.001623 0.0
1.037950 0.001699 0.0
1.037238 0.001838 0.0
1.036455 0.002029 0.0
1.035581 0.002258 0.0
1.034603 0.002504 0.0
1.033520 0.002743 0.0
1.032340 0.002952 0.0
1.031083 0.003109 0.0
1.029773 0.003198 0.0
1.028444 0.003209 0.0
1.027130 0.003136 0.0
1.025866 0.002982 0.0
1.024683 0.002752 0.0
1.023610 0.002454 0.0
1.022671 0.002100 0.0
1.021885 0.001701 0.0
1.021267 0.001272 0.0
1.020825 0.000827 0.0
1.020560 0.000381 0.0
1.020470 -0.000047 0.0
1.020546 -0.000439 0.0
1.020769 -0.000776 0.0
1.021116 -0.001037 0.0
1.021554 -0.001201 0.0
1.022042 -0.001249 0.0
1.022530 -0.001166 0.0
1.022965 -0.000949 0.0
1.023287 -0.000601 0.0
1.023444 -0.000144 0.0
1.023393 0.000391 0.0
1.023110 0.000959 0.0
1.022590 0.001510 0.0
1.021854 0.002002 0.0
1.020938 0.002400 0.0
1.019890 0.002683 0.0
1.018763 0.002844 0.0
1.017609 0.002883 0.0
1.016475 0.002814 0.0
1.015400 0.002649 0.0
1.014418 0.002408 0.0
1.013553 0.002109 0.0
1.012820 0.001771 0.0
1.012230 0.001414 0.0
1.011782 0.001059 0.0
1.011471 0.000723 0.0
1.011282 0.000429 0.0
1.011193 0.000193 0.0
1.011176 0.000033 0.0
1.011193 -0.000039 0.0
1.011205 -0.000014 0.0
1.011171 0.000108 0.0
1.011050 0.000321 0.0
1.010805 0.000613 0.0
1.010408 0.000962 0.0
1.009842 0.001346 0.0
1.009099 0.001737 0.0
1.008187 0.002108 0.0
1.007120 0.002438 0.0
1.005926 0.002708 0.0
1.004636 0.002904 0.0
1.003286 0.003022 0.0
1.001911 0.003058 0.0
1.000546 0.003018 0.0
0.999224 0.002909 0.0
0.997972 0.002742 0.0
0.996811 0.002531 0.0
0.995758 0.002289 0.0
0.994822 0.002033 0.0
0.994006 0.001780 0.0
0.993305 0.001547 0.0
0.992710 0.001351 0.0
0.992202 0.001211 0.0
0.991756 0.001142 0.0
0.991339 0.001160 0.0
0.990915 0.001275 0.0
0.990439 0.001492 0.0
0.989870 0.001807 0.0
0.989165 0.002208 0.0
0.988289 0.002674 0.0
0.987220 0.003174 0.0
0.985949 0.003674 0.0
0.984484 0.004140 0.0
0.982846 0.004540 0.0
0.981068 0.004852 0.0
0.979190 0.005062 0.0
0.977257 0.005164 0.0
0.975311 0.005160 0.0
0.973392 0.005056 0.0
0.971536 0.004862 0.0
0.969772 0.004588 0.0
0.968127 0.004246 0.0
0.966621 0.003848 0.0
0.965272 0.003406 0.0
0.964090 0.002932 0.0
0.963086 0.002438 0.0
0.962261 0.001937 0.0
0.961616 0.001443 0.0
0.961144 0.000971 0.0
0.960834 0.000538 0.0
0.960667 0.000161 0.0
0.960615 -0.000142 0.0
0.960645 -0.000360 0.0
0.960711 -0.000488 0.0
0.960765 -0.000535 0.0
0.960748 -0.000523 0.0
0.960636 -0.000422 0.0
1.000048 0.000058 0.0
1.000218 0.000121 0.0
1.000516 0.000094 0.0
1.000914 -0.000025 0.0
1.001402 -0.000228 0.0
1.001985 -0.000507 0.0
1.002673 -0.000854 0.0
1.003483 -0.001262 0.0
1.004430 -0.001721 0.0
1.005530 -0.002220 0.0
1.006795 -0.002741 0.0
1.008231 -0.003267 0.0
1.009840 -0.003774 0.0
1.011614 -0.004235 0.0
1.013539 -0.004623 0.0
1.015587 -0.004910 0.0
1.017722 -0.005066 0.0
1.019899 -0.005071 0.0
1.022061 -0.004909 0.0
1.024151 -0.004574 0.0
1.026107 -0.004076 0.0
1.027873 -0.003435 0.0
1.029405 -0.002685 0.0
1.030671 -0.001866 0.0
1.031656 -0.001026 0.0
1.032363 -0.000211 0.0
1.032813 0.000537 0.0
1.033036 0.001186 0.0
1.033076 0.001712 0.0
1.032978 0.002101 0.0
1.032791 0.002349 0.0
1.032561 0.002460 0.0
1.032332 0.002444 0.0
1.032142 0.002316 0.0
1.032023 0.002095 0.0
1.031999 0.001800 0.0
1.032090 0.001453 0.0
1.032308 0.001079 0.0
1.032658 0.000701 0.0
1.033138 0.000344 0.0
1.033738 0.000033 0.0
1.034441 -0.000207 0.0
1.035222 -0.000352 0.0
1.036047 -0.000381 0.0
1.036873 -0.000276 0.0
1.037652 -0.000030 0.0
1.038331 0.000351 0.0
1.038861 0.000849 0.0
1.039202 0.001428 0.0
1.039330 0.002040 0.0
1.039243 0.002633 0.0
1.038957 0.003157 0.0
1.038507 0.003569 0.0
1.037942 0.003843 0.0
1.037312 0.003964 0.0
1.036671 0.003929 0.0
1.036069 0.003744 0.0
1.035549 0.003421 0.0
1.035150 0.002976 0.0
1.034905 0.002424 0.0
1.034840 0.001786 0.0
1.034979 0.001081 0.0
1.035336 0.000331 0.0
1.035924 -0.000441 0.0
1.036748 -0.001208 0.0
1.037804 -0.001940 0.0
1.039082 -0.002602 0.0
1.040562 -0.003156 0.0
1.042207 -0.003560 0.0
1.043966 -0.003769 0.0
1.045768 -0.003742 0.0
1.047524 -0.003453 0.0
1.049130 -0.002894 0.0
1.050481 -0.002097 0.0
1.051490 -0.001127 0.0
1.052103 -0.000077 0.0
1.052313 0.000955 0.0
1.052152 0.001883 0.0
1.051680 0.002654 0.0
1.050967 0.003243 0.0
1.050082 0.003649 0.0
1.049088 0.003887 0.0
1.048036 0.003978 0.0
1.046967 0.003950 0.0
1.045915 0.003827 0.0
1.044902 0.003635 0.0
1.043948 0.003398 0.0
1.043064 0.003137 0.0
1.042255 0.002874 0.0
1.041521 0.002631 0.0
1.040856 0.002427 0.0
1.040246 0.002282 0.0
1.039672 0.002213 0.0
1.039106 0.002231 0.0
1.038520 0.002343 0.0
1.037878 0.002547 0.0
1.037151 0.002830 0.0
1.036310 0.003171 0.0
1.035340 0.003538 0.0
1.034236 0.003895 0.0
1.033009 0.004206 0.0
1.031682 0.004439 0.0
1.030288 0.004571 0.0
1.028866 0.004586 0.0
1.027458 0.004480 0.0
1.026104 0.004257 0.0
1.024840 0.003925 0.0
1.023697 0.003497 0.0
1.022702 0.002991 0.0
1.021874 0.002424 0.0
1.021229 0.001814 0.0
1.020775 0.001182 0.0
1.020517 0.000549 0.0
1.020454 -0.000061 0.0
1.020578 -0.000623 0.0
1.020873 -0.001111 0.0
1.021317 -0.001493 0.0
1.021876 -0.001741 0.0
1.022504 -0.001825 0.0
1.023147 -0.001721 0.0
1.023736 -0.001417 0.0
1.024198 -0.000917 0.0
1.024463 -0.000249 0.0
1.024474 0.000537 0.0
1.024199 0.001372 0.0
1.023633 0.002181 0.0
1.022806 0.002895 0.0
1.021767 0.003462 0.0
1.020582 0.003855 0.0
1.019317 0.004064 0.0
1.018036 0.004099 0.0
1.016791 0.003977 0.0
1.015627 0.003724 0.0
1.014577 0.003365 0.0
1.013666 0.002928 0.0
1.012909 0.002440 0.0
1.012316 0.001928 0.0
1.011889 0.001420 0.0
1.011619 0.000943 0.0
1.011491 0.000525 0.0
1.011483 0.000194 0.0
1.011562 -0.000028 0.0
1.011686 -0.000119 0.0
1.011809 -0.000069 0.0
1.011881 0.000125 0.0
1.011853 0.000454 0.0
1.011681 0.000897 0.0
1.011329 0.001426 0.0
1.010777 0.002001 0.0
1.010016 0.002584 0.0
1.009056 0.003134 0.0
1.007917 0.003617 0.0
1.006633 0.004007 0.0
1.005241 0.004287 0.0
1.003785 0.004446 0.0
1.002307 0.004486 0.0
1.000848 0.004414 0.0
0.999442 0.004241 0.0
0.998121 0.003984 0.0
0.996909 0.003662 0.0
0.995823 0.003297 0.0
0.994873 0.002911 0.0
0.994064 0.002527 0.0
0.993392 0.002171 0.0
0.992847 0.001867 0.0
0.992410 0.001640 0.0
0.992054 0.001515 0.0
0.991745 0.001513 0.0
0.991439 0.001652 0.0
0.991086 0.001942 0.0
0.990633 0.002380 0.0
0.990025 0.002948 0.0
0.989219 0.003616 0.0
0.988183 0.004337 0.0
0.986907 0.005059 0.0
0.985399 0.005728 0.0
0.983690 0.006299 0.0
0.981822 0.006739 0.0
0.979846 0.007028 0.0
0.977815 0.007162 0.0
0.975777 0.007145 0.0
0.973777 0.006989 0.0
0.971853 0.006709 0.0
0.970034 0.006322 0.0
0.968347 0.005844 0.0
0.966811 0.005292 0.0
0.965442 0.004681 0.0
0.964252 0.004028 0.0
0.963248 0.003349 0.0
0.962436 0.002662 0.0
0.961815 0.001983 0.0
0.961381 0.001335 0.0
0.961124 0.000740 0.0
0.961026 0.000224 0.0
0.961060 -0.000187 0.0
0.961185 -0.000470 0.0
0.961347 -0.000608 0.0
0.961482 -0.000603 0.0
0.961524 -0.000480 0.0
0.961431 -0.000259 0.0
1.000031 -0.000020 0.0
1.000149 -0.000088 0.0
1.000371 -0.000218 0.0
1.000686 -0.000427 0.0
1.001092 -0.000721 0.0
1.001596 -0.001101 0.0
1.002212 -0.001565 0.0
1.002958 -0.002107 0.0
1.003853 -0.002719 0.0
1.004916 -0.003385 0.0
1.006164 -0.004088 0.0
1.007607 -0.004800 0.0
1.009252 -0.005494 0.0
1.011094 -0.006132 0.0
1.013120 -0.006677 0.0
1.015303 -0.007087 0.0
1.017603 -0.007324 0.0
1.019967 -0.007354 0.0
1.022330 -0.007152 0.0
1.024618 -0.006709 0.0
1.026755 -0.006035 0.0
1.028671 -0.005159 0.0
1.030308 -0.004129 0.0
1.031626 -0.003005 0.0
1.032607 -0.001854 0.0
1.033259 -0.000743 0.0
1.033609 0.000270 0.0
1.033700 0.001139 0.0
1.033585 0.001834 0.0
1.033324 0.002338 0.0
1.032974 0.002649 0.0
1.032590 0.002773 0.0
1.032222 0.002728 0.0
1.031912 0.002533 0.0
1.031695 0.002215 0.0
1.031599 0.001800 0.0
1.031644 0.001317 0.0
1.031843 0.000798 0.0
1.032202 0.000273 0.0
1.032720 -0.000225 0.0
1.033387 -0.000665 0.0
1.034186 -0.001012 0.0
1.035089 -0.001233 0.0
1.036060 -0.001296 0.0
1.037047 -0.001174 0.0
1.037989 -0.000853 0.0
1.038818 -0.000334 0.0
1.039466 0.000357 0.0
1.039876 0.001170 0.0
1.040012 0.002034 0.0
1.039871 0.002869 0.0
1.039477 0.003601 0.0
1.038878 0.004172 0.0
1.038140 0.004545 0.0
1.037330 0.004703 0.0
1.036512 0.004649 0.0
1.035744 0.004395 0.0
1.035075 0.003959 0.0
1.034546 0.003365 0.0
1.034192 0.002634 0.0
1.034041 0.001792 0.0
1.034116 0.000862 0.0
1.034436 -0.000127 0.0
1.035014 -0.001149 0.0
1.035859 -0.002168 0.0
1.036972 -0.003149 0.0
1.038348 -0.004047 0.0
1.039971 -0.004813 0.0
1.041810 -0.005386 0.0
1.043813 -0.005703 0.0
1.045901 -0.005698 0.0
1.047964 -0.005316 0.0
1.049864 -0.004537 0.0
1.051452 -0.003393 0.0
1.052599 -0.001986 0.0
1.053233 -0.000464 0.0
1.053352 0.001012 0.0
1.053021 0.002318 0.0
1.052335 0.003378 0.0
1.051399 0.004169 0.0
1.050306 0.004701 0.0
1.049132 0.005004 0.0
1.047932 0.005113 0.0
1.046750 0.005066 0.0
1.045616 0.004898 0.0
1.044551 0.004641 0.0
1.043572 0.004325 0.0
1.042689 0.003978 0.0
1.041904 0.003626 0.0
1.041218 0.003299 0.0
1.040622 0.003021 0.0
1.040101 0.002820 0.0
1.039631 0.002720 0.0
1.039180 0.002740 0.0
1.038709 0.002891 0.0
1.038175 0.003174 0.0
1.037532 0.003573 0.0
1.036745 0.004057 0.0
1.035787 0.004580 0.0
1.034652 0.005091 0.0
1.033352 0.005536 0.0
1.031920 0.005869 0.0
1.030398 0.006057 0.0
1.028837 0.006082 0.0
1.027290 0.005939 0.0
1.025805 0.005637 0.0
1.024424 0.005190 0.0
1.023182 0.004617 0.0
1.022106 0.003942 0.0
1.021220 0.003187 0.0
1.020537 0.002378 0.0
1.020070 0.001539 0.0
1.019823 0.000696 0.0
1.019799 -0.000121 0.0
1.019991 -0.000880 0.0
1.020388 -0.001546 0.0
1.020967 -0.002081 0.0
1.021697 -0.002442 0.0
1.022530 -0.002585 0.0
1.023399 -0.002472 0.0
1.024222 -0.002077 0.0
1.024901 -0.001399 0.0
1.025337 -0.000470 0.0
1.025448 0.000636 0.0
1.025185 0.001813 0.0
1.024545 0.002946 0.0
1.023572 0.003931 0.0
1.022341 0.004695 0.0
1.020944 0.005204 0.0
1.019470 0.005454 0.0
1.017997 0.005464 0.0
1.016587 0.005266 0.0
1.015289 0.004898 0.0
1.014136 0.004395 0.0
1.013152 0.003794 0.0
1.012355 0.003129 0.0
1.011752 0.002435 0.0
1.011346 0.001748 0.0
1.011129 0.001102 0.0
1.011087 0.000536 0.0
1.011193 0.000085 0.0
1.011412 -0.000216 0.0
1.011694 -0.000338 0.0
1.011985 -0.000264 0.0
1.012221 0.000011 0.0
1.012339 0.000476 0.0
1.012283 0.001103 0.0
1.012008 0.001847 0.0
1.011485 0.002655 0.0
1.010707 0.003468 0.0
1.009686 0.004231 0.0
1.008450 0.004894 0.0
1.007043 0.005422 0.0
1.005515 0.005792 0.0
1.003917 0.005994 0.0
1.002302 0.006031 0.0
1.000718 0.005914 0.0
0.999204 0.005660 0.0
0.997796 0.005294 0.0
0.996520 0.004841 0.0
0.995396 0.004329 0.0
0.994435 0.003789 0.0
0.993642 0.003251 0.0
0.993014 0.002747 0.0
0.992542 0.002309 0.0
0.992207 0.001971 0.0
0.991981 0.001766 0.0
0.991826 0.001727 0.0
0.991691 0.001880 0.0
0.991514 0.002244 0.0
0.991226 0.002819 0.0
0.990757 0.003586 0.0
0.990042 0.004499 0.0
0.989040 0.005492 0.0
0.987734 0.006486 0.0
0.986138 0.007403 0.0
0.984294 0.008177 0.0
0.982262 0.008761 0.0
0.980109 0.009135 0.0
0.977902 0.009294 0.0
0.975701 0.009252 0.0
0.973554 0.009029 0.0
0.971501 0.008647 0.0
0.969574 0.008130 0.0
0.967797 0.007500 0.0
0.966190 0.006779 0.0
0.964767 0.005986 0.0
0.963541 0.005140 0.0
0.962520 0.004262 0.0
0.961710 0.003372 0.0
0.961112 0.002492 0.0
0.960726 0.001647 0.0
0.960543 0.000868 0.0
0.960550 0.000187 0.0
0.960720 -0.000354 0.0
0.961007 -0.000715 0.0
0.961343 -0.000861 0.0
0.961640 -0.000782 0.0
0.961804 -0.000508 0.0
0.961754 -0.000088 0.0
1.000020 -0.000072 0.0
1.000101 -0.000235 0.0
1.000258 -0.000451 0.0
1.000492 -0.000743 0.0
1.000808 -0.001127 0.0
1.001220 -0.001610 0.0
1.001746 -0.002197 0.0
1.002408 -0.002883 0.0
1.003232 -0.003662 0.0
1.004242 -0.004516 0.0
1.005460 -0.005423 0.0
1.006906 -0.006354 0.0
1.008590 -0.007269 0.0
1.010514 -0.008123 0.0
1.012668 -0.008865 0.0
1.015025 -0.009439 0.0
1.017543 -0.009790 0.0
1.020159 -0.009868 0.0
1.022795 -0.009636 0.0
1.025358 -0.009075 0.0
1.027747 -0.008197 0.0
1.029872 -0.007039 0.0
1.031652 -0.005668 0.0
1.033039 -0.004170 0.0
1.034010 -0.002642 0.0
1.034580 -0.001176 0.0
1.034786 0.000147 0.0
1.034690 0.001268 0.0
1.034363 0.002148 0.0
1.033880 0.002770 0.0
1.033312 0.003135 0.0
1.032725 0.003258 0.0
1.032175 0.003161 0.0
1.031710 0.002875 0.0
1.031369 0.002431 0.0
1.031180 0.001867 0.0
1.031166 0.001219 0.0
1.031340 0.000524 0.0
1.031709 -0.000180 0.0
1.032273 -0.000853 0.0
1.033025 -0.001455 0.0
1.033946 -0.001943 0.0
1.035011 -0.002271 0.0
1.036177 -0.002394 0.0
1.037386 -0.002272 0.0
1.038561 -0.001872 0.0
1.039608 -0.001191 0.0
1.040430 -0.000256 0.0
1.040943 0.000861 0.0
1.041092 0.002056 0.0
1.040871 0.003209 0.0
1.040318 0.004209 0.0
1.039507 0.004974 0.0
1.038528 0.005460 0.0
1.037471 0.005655 0.0
1.036417 0.005569 0.0
1.035433 0.005226 0.0
1.034573 0.004656 0.0
1.033881 0.003889 0.0
1.033389 0.002955 0.0
1.033127 0.001884 0.0
1.033120 0.000703 0.0
1.033387 -0.000555 0.0
1.033946 -0.001858 0.0
1.034810 -0.003167 0.0
1.035985 -0.004439 0.0
1.037474 -0.005623 0.0
1.039270 -0.006656 0.0
1.041351 -0.007463 0.0
1.043673 -0.007951 0.0
1.046153 -0.008018 0.0
1.048657 -0.007563 0.0
1.050994 -0.006527 0.0
1.052939 -0.004936 0.0
1.054290 -0.002941 0.0
1.054935 -0.000789 0.0
1.054894 0.001258 0.0
1.054285 0.003012 0.0
1.053272 0.004383 0.0
1.052010 0.005362 0.0
1.050625 0.005987 0.0
1.049205 0.006313 0.0
1.047808 0.006399 0.0
1.046475 0.006295 0.0
1.045232 0.006047 0.0
1.044096 0.005693 0.0
1.043079 0.005269 0.0
1.042190 0.004807 0.0
1.041431 0.004340 0.0
1.040800 0.003902 0.0
1.040288 0.003526 0.0
1.039879 0.003246 0.0
1.039545 0.003098 0.0
1.039249 0.003109 0.0
1.038939 0.003302 0.0
1.038556 0.003681 0.0
1.038037 0.004227 0.0
1.037327 0.004900 0.0
1.036389 0.005634 0.0
1.035210 0.006352 0.0
1.033807 0.006977 0.0
1.032225 0.007443 0.0
1.030523 0.007706 0.0
1.028772 0.007745 0.0
1.027038 0.007558 0.0
1.025379 0.007162 0.0
1.023846 0.006579 0.0
1.022476 0.005840 0.0
1.021298 0.004972 0.0
1.020336 0.004006 0.0
1.019606 0.002972 0.0
1.019120 0.001899 0.0
1.018884 0.000818 0.0
1.018904 -0.000237 0.0
1.019177 -0.001228 0.0
1.019696 -0.002113 0.0
1.020445 -0.002843 0.0
1.021395 -0.003360 0.0
1.022497 -0.003602 0.0
1.023677 -0.003506 0.0
1.024831 -0.003021 0.0
1.025827 -0.002129 0.0
1.026518 -0.000867 0.0
1.026777 0.000662 0.0
1.026529 0.002298 0.0
1.025772 0.003858 0.0
1.024576 0.005187 0.0
1.023062 0.006184 0.0
1.021363 0.006812 0.0
1.019600 0.007082 0.0
1.017872 0.007036 0.0
1.016250 0.006726 0.0
1.014781 0.006205 0.0
1.013500 0.005522 0.0
1.012428 0.004722 0.0
1.011580 0.003846 0.0
1.010965 0.002936 0.0
1.010586 0.002033 0.0
1.010437 0.001182 0.0
1.010505 0.000430 0.0
1.010763 -0.000174 0.0
1.011169 -0.000582 0.0
1.011668 -0.000753 0.0
1.012188 -0.000660 0.0
1.012651 -0.000292 0.0
1.012974 0.000338 0.0
1.013080 0.001191 0.0
1.012909 0.002205 0.0
1.012424 0.003304 0.0
1.011618 0.004404 0.0
1.010507 0.005427 0.0
1.009133 0.006307 0.0
1.007554 0.006995 0.0
1.005836 0.007465 0.0
1.004046 0.007708 0.0
1.002248 0.007730 0.0
1.000498 0.007550 0.0
0.998843 0.007193 0.0
0.997321 0.006691 0.0
0.995963 0.006078 0.0
0.994789 0.005391 0.0
0.993812 0.004666 0.0
0.993039 0.003941 0.0
0.992466 0.003256 0.0
0.992086 0.002651 0.0
0.991882 0.002168 0.0
0.991824 0.001852 0.0
0.991873 0.001747 0.0
0.991970 0.001897 0.0
0.992040 0.002334 0.0
0.991989 0.003068 0.0
0.991719 0.004077 0.0
0.991140 0.005302 0.0
0.990186 0.006645 0.0
0.988835 0.007991 0.0
0.987108 0.009221 0.0
0.985068 0.010242 0.0
0.982802 0.010994 0.0
0.980404 0.011453 0.0
0.977960 0.011627 0.0
0.975542 0.011540 0.0
0.973205 0.011225 0.0
0.970991 0.010718 0.0
0.968928 0.010049 0.0
0.967040 0.009247 0.0
0.965343 0.008337 0.0
0.963853 0.007341 0.0
0.962580 0.006283 0.0
0.961534 0.005185 0.0
0.960722 0.004071 0.0
0.960148 0.002964 0.0
0.959815 0.001895 0.0
0.959722 0.000896 0.0
0.959862 0.000012 0.0
0.960214 -0.000700 0.0
0.960732 -0.001173 0.0
0.961332 -0.001339 0.0
0.961887 -0.001157 0.0
0.962247 -0.000656 0.0
0.962270 0.000086 0.0
1.000011 -0.000103 0.0
1.000056 -0.000329 0.0
1.000149 -0.000607 0.0
1.000296 -0.000968 0.0
1.000510 -0.001433 0.0
1.000811 -0.002017 0.0
1.001224 -0.002728 0.0
1.001778 -0.003568 0.0
1.002505 -0.004528 0.0
1.003439 -0.005593 0.0
1.004611 -0.006736 0.0
1.006047 -0.007923 0.0
1.007768 -0.009105 0.0
1.009784 -0.010227 0.0
1.012091 -0.011221 0.0
1.014666 -0.012015 0.0
1.017463 -0.012530 0.0
1.020411 -0.012694 0.0
1.023413 -0.012448 0.0
1.026348 -0.011760 0.0
1.029083 -0.010637 0.0
1.031492 -0.009131 0.0