# vtk DataFile Version 3.0
Scalar Field
ASCII
DATASET RECTILINEAR_GRID
DIMENSIONS 200 75 1
X_COORDINATES 200 double
0.050000 0.150000 0.250000 0.350000 0.450000 0.550000 0.650000 0.750000 0.850000 0.950000 1.050000 1.150000 1.250000 1.350000 1.450000 1.550000 1.650000 1.750000 1.850000 1.950000 2.050000 2.150000 2.250000 2.350000 2.450000 2.550000 2.650000 2.750000 2.850000 2.950000 3.050000 3.150000 3.250000 3.350000 3.450000 3.550000 3.650000 3.750000 3.850000 3.950000 4.050000 4.150000 4.250000 4.350000 4.450000 4.550000 4.650000 4.750000 4.850000 4.950000 5.050000 5.150000 5.250000 5.350000 5.450000 5.550000 5.650000 5.750000 5.850000 5.950000 6.050000 6.150000 6.250000 6.350000 6.450000 6.550000 6.650000 6.750000 6.850000 6.950000 7.050000 7.150000 7.250000 7.350000 7.450000 7.550000 7.650000 7.750000 7.850000 7.950000 8.050000 8.150000 8.250000 8.350000 8.450000 8.550000 8.650000 8.750000 8.850000 8.950000 9.050000 9.150000 9.250000 9.350000 9.450000 9.550000 9.650000 9.750000 9.850000 9.950000 10.050000 10.150000 10.250000 10.350000 10.450000 10.550000 10.650000 10.750000 10.850000 10.950000 11.050000 11.150000 11.250000 11.350000 11.450000 11.550000 11.650000 11.750000 11.850000 11.950000 12.050000 12.150000 12.250000 12.350000 12.450000 12.550000 12.650000 12.750000 12.850000 12.950000 13.050000 13.150000 13.250000 13.350000 13.450000 13.550000 13.650000 13.750000 13.850000 13.950000 14.050000 14.150000 14.250000 14.350000 14.450000 14.550000 14.650000 14.750000 14.850000 14.950000 15.050000 15.150000 15.250000 15.350000 15.450000 15.550000 15.650000 15.750000 15.850000 15.950000 16.050000 16.150000 16.250000 16.350000 16.450000 16.550000 16.650000 16.750000 16.850000 16.950000 17.050000 17.150000 17.250000 17.350000 17.450000 17.550000 17.650000 17.750000 17.850000 17.950000 18.050000 18.150000 18.250000 18.350000 18.450000 18.550000 18.650000 18.750000 18.850000 18.950000 19.050000 19.150000 19.250000 19.350000 19.450000 19.550000 19.650000 19.750000 19.850000 19.950000 
Y_COORDINATES 75 double
0.050000 0.150000 0.250000 0.350000 0.450000 0.550000 0.650000 0.750000 0.850000 0.950000 1.050000 1.150000 1.250000 1.350000 1.450000 1.550000 1.650000 1.750000 1.850000 1.950000 2.050000 2.150000 2.250000 2.350000 2.450000 2.550000 2.650000 2.750000 2.850000 2.950000 3.050000 3.150000 3.250000 3.350000 3.450000 3.550000 3.650000 3.750000 3.850000 3.950000 4.050000 4.150000 4.250000 4.350000 4.450000 4.550000 4.650000 4.750000 4.850000 4.950000 5.050000 5.150000 5.250000 5.350000 5.450000 5.550000 5.650000 5.750000 5.850000 5.950000 6.050000 6.150000 6.250000 6.350000 6.450000 6.550000 6.650000 6.750000 6.850000 6.950000 7.050000 7.150000 7.250000 7.350000 7.450000 
Z_COORDINATES 1 double
0.0
POINT_DATA 15000
SCALARS Skalarfeld double 1
LOOKUP_TABLE default
0.168564
0.167271
0.166422
0.165720
0.165045
0.164338
0.163564
0.162697
0.161720
0.160618
0.159381
0.158004
0.156488
0.154839
0.153072
0.151207
0.149271
0.147301
0.145333
0.143412
0.141581
0.139879
0.138344
0.137000
0.135866
0.134947
0.134238
0.133722
0.133376
0.133169
0.133065
0.133030
0.133026
0.133021
0.132986
0.132895
0.132729
0.132474
0.132124
0.131678
0.131142
0.130529
0.129859
0.129156
0.128450
0.127773
0.127160
0.126640
0.126239
0.125974
0.125852
0.125866
0.126000
0.126228
0.126516
0.126828
0.127125
0.127368
0.127522
0.127557
0.127444
0.127163
0.126696
0.126034
0.125173
0.124118
0.122881
0.121484
0.119958
0.118344
0.116694
0.115064
0.113516
0.112110
0.110897
0.109915
0.109182
0.108696
0.108438
0.108377
0.108471
0.108679
0.108959
0.109274
0.109595
0.109896
0.110161
0.110379
0.110545
0.110661
0.110735
0.110778
0.110807
0.110842
0.110904
0.111016
0.111199
0.111468
0.111835
0.112303
0.112867
0.113515
0.114227
0.114977
0.115737
0.116475
0.117161
0.117768
0.118270
0.118646
0.118879
0.118956
0.118872
0.118623
0.118232
0.117709
0.117070
0.116342
0.115557
0.114754
0.113976
0.113265
0.112662
0.112198
0.111911
0.111811
0.111893
0.112134
0.112505
0.112965
0.113474
0.113989
0.114474
0.114893
0.115220
0.115434
0.115522
0.115478
0.115303
0.115005
0.114602
0.114121
0.113588
0.113031
0.112484
0.111979
0.111553
0.111238
0.111054
0.111014
0.111122
0.111375
0.111759
0.112255
0.112840
0.113488
0.114170
0.114862
0.115539
0.116180
0.116771
0.117299
0.117759
0.118151
0.118482
0.118762
0.119010
0.119248
0.119503
0.119805
0.120185
0.120673
0.121293
0.122062
0.122991
0.124075
0.125303
0.126652
0.128093
0.129593
0.131117
0.132629
0.134097
0.135490
0.136784
0.137957
0.138991
0.139873
0.140594
0.141151
0.141544
0.141778
0.141862
0.141811
0.141656
0.141416
0.141115
0.140774
0.140403
0.140192
0.167241
0.166827
0.166275
0.165693
0.165078
0.164406
0.163657
0.162809
0.161847
0.160754
0.159522
0.158145
0.156622
0.154959
0.153170
0.151276
0.149306
0.147295
0.145284
0.143320
0.141447
0.139711
0.138147
0.136786
0.135646
0.134732
0.134039
0.133548
0.133233
0.133060
0.132994
0.132995
0.133025
0.133051
0.133042
0.132971
0.132819
0.132572
0.132223
0.131771
0.131222
0.130590
0.129893
0.129159
0.128419
0.127708
0.127061
0.126514
0.126095
0.125824
0.125706
0.125737
0.125898
0.126161
0.126488
0.126841
0.127178
0.127459
0.127648
0.127712
0.127623
0.127360
0.126904
0.126246
0.125381
0.124313
0.123053
0.121622
0.120051
0.118383
0.116671
0.114975
0.113363
0.111902
0.110649
0.109647
0.108914
0.108449
0.108225
0.108206
0.108346
0.108597
0.108917
0.109266
0.109613
0.109933
0.110211
0.110434
0.110599
0.110709
0.110770
0.110796
0.110804
0.110815
0.110854
0.110945
0.111109
0.111367
0.111730
0.112203
0.112781
0.113451
0.114191
0.114973
0.115766
0.116537
0.117255
0.117890
0.118415
0.118809
0.119054
0.119140
0.119059
0.118818
0.118413
0.117862
0.117185
0.116410
0.115571
0.114710
0.113873
0.113110
0.112468
0.111991
0.111701
0.111611
0.111715
0.111991
0.112404
0.112911
0.113466
0.114024
0.114546
0.114995
0.115345
0.115574
0.115669
0.115624
0.115440
0.115128
0.114704
0.114188
0.113612
0.113011
0.112422
0.111883
0.111430
0.111092
0.110893
0.110848
0.110962
0.111228
0.111633
0.112156
0.112770
0.113448
0.114160
0.114878
0.115578
0.116238
0.116842
0.117377
0.117837
0.118224
0.118541
0.118802
0.119025
0.119233
0.119454
0.119721
0.120069
0.120528
0.121128
0.121888
0.122818
0.123916
0.125168
0.126548
0.128026
0.129565
0.131127
0.132676
0.134177
0.135600
0.136919
0.138111
0.139160
0.140052
0.140778
0.141335
0.141722
0.141944
0.142014
0.141948
0.141764
0.141492
0.141165
0.140816
0.140489
0.140250
0.166699
0.166518
0.166158
0.165699
0.165164
0.164552
0.163848
0.163037
0.162102
0.161030
0.159809
0.158430
0.156893
0.155202
0.153370
0.151417
0.149375
0.147280
0.145179
0.143123
0.141164
0.139353
0.137732
0.136335
0.135183
0.134282
0.133623
0.133184
0.132935
0.132837
0.132848
0.132926
0.133029
0.133119
0.133163
0.133135
0.133013
0.132782
0.132435
0.131969
0.131393
0.130718
0.129967
0.129167
0.128354
0.127567
0.126849
0.126243
0.125784
0.125497
0.125391
0.125459
0.125680
0.126018
0.126430
0.126871
0.127294
0.127656
0.127917
0.128043
0.128006
0.127781
0.127350
0.126701
0.125828
0.124732
0.123423
0.121920
0.120253
0.118466
0.116617
0.114774
0.113020
0.111436
0.110097
0.109052
0.108325
0.107908
0.107763
0.107841
0.108082
0.108430
0.108836
0.109257
0.109662
0.110024
0.110328
0.110563
0.110726
0.110821
0.110855
0.110843
0.110806
0.110766
0.110753
0.110794
0.110918
0.111150
0.111504
0.111989
0.112598
0.113316
0.114118
0.114971
0.115839
0.116683
0.117470
0.118165
0.118741
0.119174
0.119447
0.119546
0.119465
0.119205
0.118766
0.118163
0.117414
0.116550
0.115608
0.114633
0.113681
0.112811
0.112082
0.111545
0.111233
0.111159
0.111315
0.111670
0.112181
0.112792
0.113450
0.114104
0.114708
0.115225
0.115625
0.115887
0.115997
0.115948
0.115743
0.115391
0.114909
0.114323
0.113665
0.112976
0.112298
0.111677
0.111153
0.110761
0.110530
0.110475
0.110601
0.110899
0.111351
0.111933
0.112613
0.113359
0.114137
0.114916
0.115668
0.116369
0.117002
0.117553
0.118016
0.118389
0.118679
0.118898
0.119064
0.119204
0.119350
0.119538
0.119810
0.120205
0.120759
0.121496
0.122429
0.123557
0.124862
0.126314
0.127875
0.129501
0.131149
0.132779
0.134353
0.135840
0.137213
0.138449
0.139530
0.140445
0.141182
0.141738
0.142112
0.142309
0.142340
0.142221
0.141975
0.141634
0.141240
0.140841
0.140493
0.140216
0.166492
0.166389
0.166138
0.165779
0.165329
0.164787
0.164144
0.163385
0.162493
0.161452
0.160248
0.158870
0.157313
0.155581
0.153683
0.151641
0.149486
0.147263
0.145021
0.142822
0.140727
0.138798
0.137087
0.135636
0.134467
0.133588
0.132984
0.132630
0.132486
0.132504
0.132636
0.132832
0.133044
0.133232
0.133358
0.133394
0.133316
0.133109
0.132764
0.132279
0.131661
0.130924
0.130088
0.129187
0.128260
0.127354
0.126524
0.125823
0.125299
0.124987
0.124899
0.125027
0.125342
0.125798
0.126342
0.126918
0.127472
0.127954
0.128323
0.128542
0.128579
0.128411
0.128017
0.127382
0.126498
0.125364
0.123985
0.122378
0.120570
0.118606
0.116548
0.114479
0.112499
0.110718
0.109238
0.108129
0.107418
0.107085
0.107073
0.107306
0.107706
0.108202
0.108738
0.109266
0.109753
0.110175
0.110515
0.110766
0.110925
0.110995
0.110988
0.110919
0.110810
0.110691
0.110595
0.110558
0.110618
0.110805
0.111144
0.111644
0.112301
0.113094
0.113992
0.114953
0.115933
0.116889
0.117778
0.118563
0.119215
0.119707
0.120020
0.120139
0.120058
0.119773
0.119287
0.118610
0.117761
0.116769
0.115676
0.114533
0.113406
0.112369
0.111500
0.110866
0.110516
0.110468
0.110706
0.111188
0.111850
0.112623
0.113437
0.114233
0.114958
0.115573
0.116047
0.116356
0.116488
0.116434
0.116197
0.115787
0.115222
0.114530
0.113750
0.112929
0.112117
0.111370
0.110737
0.110264
0.109983
0.109914
0.110058
0.110406
0.110932
0.111604
0.112385
0.113232
0.114109
0.114977
0.115806
0.116569
0.117245
0.117820
0.118285
0.118640
0.118890
0.119046
0.119129
0.119168
0.119199
0.119267
0.119422
0.119716
0.120195
0.120895
0.121833
0.123008
0.124397
0.125959
0.127646
0.129404
0.131181
0.132931
0.134613
0.136193
0.137644
0.138944
0.140073
0.141020
0.141774
0.142330
0.142686
0.142847
0.142821
0.142624
0.142282
0.141830
0.141320
0.140816
0.140387
0.140059
0.166475
0.166407
0.166227
0.165950
0.165583
0.165122
0.164554
0.163864
0.163031
0.162034
0.160857
0.159483
0.157903
0.156116
0.154131
0.151967
0.149658
0.147253
0.144811
0.142407
0.140116
0.138018
0.136178
0.134649
0.133459
0.132614
0.132096
0.131865
0.131873
0.132058
0.132361
0.132721
0.133085
0.133406
0.133643
0.133765
0.133748
0.133573
0.133232
0.132722
0.132048
0.131224
0.130274
0.129231
0.128142
0.127064
0.126067
0.125224
0.124602
0.124251
0.124190
0.124408
0.124863
0.125491
0.126222
0.126987
0.127720
0.128366
0.128879
0.129221
0.129359
0.129267
0.128923
0.128310
0.127416
0.126236
0.124771
0.123030
0.121037
0.118833
0.116484
0.114087
0.111772
0.109694
0.108003
0.106804
0.106131
0.105940
0.106135
0.106602
0.107232
0.107935
0.108646
0.109315
0.109909
0.110406
0.110793
0.111061
0.111212
0.111249
0.111183
0.111034
0.110826
0.110593
0.110377
0.110225
0.110187
0.110308
0.110620
0.111141
0.111864
0.112764
0.113797
0.114911
0.116049
0.117157
0.118185
0.119093
0.119846
0.120416
0.120784
0.120934
0.120855
0.120543
0.119998
0.119228
0.118249
0.117090
0.115793
0.114416
0.113039
0.111758
0.110680
0.109902
0.109496
0.109488
0.109852
0.110522
0.111406
0.112408
0.113440
0.114429
0.115316
0.116061
0.116631
0.117003
0.117164
0.117104
0.116825
0.116337
0.115660
0.114825
0.113877
0.112871
0.111872
0.110947
0.110161
0.109573
0.109224
0.109136
0.109310
0.109731
0.110363
0.111164
0.112084
0.113073
0.114084
0.115074
0.116007
0.116851
0.117586
0.118193
0.118664
0.118995
0.119192
0.119266
0.119237
0.119138
0.119010
0.118907
0.118893
0.119037
0.119405
0.120048
0.120994
0.122237
0.123748
0.125470
0.127336
0.129278
0.131232
0.133142
0.134967
0.136669
0.138222
0.139603
0.140796
0.141785
0.142562
0.143120
0.143456
0.143571
0.143473
0.143174
0.142697
0.142084
0.141394
0.140713
0.140141
0.139728
0.166581
0.166536
0.166412
0.166211
0.165931
0.165562
0.165087
0.164484
0.163729
0.162795
0.161658
0.160296
0.158693
0.156843
0.154748
0.152427
0.149915
0.147266
0.144553
0.141865
0.139303
0.136969
0.134950
0.133316
0.132102
0.131311
0.130916
0.130862
0.131081
0.131495
0.132027
0.132606
0.133169
0.133663
0.134044
0.134277
0.134336
0.134203
0.133867
0.133326
0.132583
0.131650
0.130551
0.129320
0.128010
0.126691
0.125454
0.124402
0.123633
0.123223
0.123202
0.123552
0.124208
0.125079
0.126069
0.127086
0.128054
0.128910
0.129606
0.130102
0.130367
0.130372
0.130095
0.129515
0.128616
0.127388
0.125825
0.123927
0.121706
0.119196
0.116457
0.113600
0.110797
0.108274
0.106266
0.104947
0.104357
0.104406
0.104924
0.105734
0.106682
0.107660
0.108595
0.109438
0.110161
0.110748
0.111187
0.111475
0.111612
0.111604
0.111462
0.111207
0.110866
0.110478
0.110095
0.109779
0.109598
0.109617
0.109887
0.110432
0.111247
0.112295
0.113517
0.114840
0.116190
0.117499
0.118709
0.119773
0.120655
0.121326
0.121765
0.121954
0.121883
0.121543
0.120932
0.120053
0.118917
0.117548
0.115987
0.114297
0.112573
0.110943
0.109557
0.108564
0.108076
0.108131
0.108688
0.109637
0.110840
0.112160
0.113482
0.114721
0.115815
0.116721
0.117410
0.117861
0.118057
0.117992
0.117662
0.117077
0.116255
0.115233
0.114061
0.112806
0.111551
0.110382
0.109388
0.108642
0.108201
0.108092
0.108314
0.108840
0.109622
0.110600
0.111710
0.112888
0.114076
0.115224
0.116290
0.117241
0.118050
0.118699
0.119178
0.119482
0.119615
0.119586
0.119416
0.119136
0.118795
0.118456
0.118203
0.118131
0.118336
0.118894
0.119847
0.121191
0.122877
0.124825
0.126939
0.129129
0.131313
0.133430
0.135432
0.137286
0.138964
0.140446
0.141716
0.142759
0.143567
0.144130
0.144444
0.144509
0.144324
0.143899
0.143249
0.142413
0.141459
0.140502
0.139691
0.139139
0.166770
0.166745
0.166674
0.166552
0.166369
0.166108
0.165746
0.165255
0.164602
0.163755
0.162678
0.161343
0.159723
0.157804
0.155580
0.153066
0.150296
0.147329
0.144253
0.141183
0.138249
0.135590
0.133328
0.131553
0.130314
0.129608
0.129391
0.129584
0.130092
0.130811
0.131645
0.132506
0.133322
0.134033
0.134591
0.134961
0.135115
0.135034
0.134708
0.134130
0.133305
0.132240
0.130956
0.129485
0.127882
0.126232
0.124653
0.123293
0.122303
0.121802
0.121841
0.122387
0.123335
0.124547
0.125885
0.127232
0.128497
0.129613
0.130531
0.131214
0.131632
0.131757
0.131566
0.131033
0.130141
0.128869
0.127205
0.125135
0.122654
0.119772
0.116532
0.113044
0.109527
0.106321
0.103828
0.102349
0.101937
0.102396
0.103419
0.104722
0.106101
0.107427
0.108632
0.109679
0.110550
0.111235
0.111732
0.112038
0.112156
0.112092
0.111856
0.111466
0.110952
0.110358
0.109745
0.109196
0.108807
0.108674
0.108875
0.109450
0.110392
0.111648
0.113130
0.114736
0.116366
0.117934
0.119372
0.120630
0.121670
0.122463
0.122990
0.123232
0.123177
0.122813
0.122132
0.121132
0.119815
0.118196
0.116306
0.114208
0.112010
0.109879
0.108036
0.106717
0.106106
0.106268
0.107125
0.108493
0.110151
0.111903
0.113603
0.115154
0.116496
0.117595
0.118425
0.118969
0.119211
0.119141
0.118753
0.118050
0.117050
0.115789
0.114325
0.112741
0.111142
0.109643
0.108363
0.107405
0.106844
0.106715
0.107010
0.107689
0.108679
0.109899
0.111262
0.112686
0.114102
0.115450
0.116684
0.117766
0.118669
0.119372
0.119864
0.120139
0.120197
0.120046
0.119703
0.119197
0.118576
0.117918
0.117330
0.116946
0.116909
0.117338
0.118301
0.119791
0.121732
0.123999
0.126454
0.128970
0.131449
0.133819
0.136036
0.138068
0.139892
0.141493
0.142855
0.143964
0.144811
0.145385
0.145680
0.145692
0.145415
0.144846
0.143986
0.142856
0.141527
0.140143
0.138939
0.138148
0.167005
0.167001
0.166986
0.166953
0.166883
0.166753
0.166533
0.166185
0.165668
0.164939
0.163952
0.162666
0.161044
0.159057
0.156690
0.153946
0.150855
0.147481
0.143928
0.140342
0.136902
0.133797
0.131202
0.129242
0.127981
0.127407
0.127448
0.127988
0.128889
0.130012
0.131233
0.132450
0.133578
0.134554
0.135327
0.135861
0.136128
0.136111
0.135796
0.135181
0.134263
0.133047
0.131544
0.129777
0.127796
0.125695
0.123626
0.121806
0.120476
0.119836
0.119970
0.120815
0.122193
0.123885
0.125691
0.127458
0.129087
0.130510
0.131687
0.132588
0.133186
0.133456
0.133372
0.132907
0.132036
0.130735
0.128979
0.126741
0.123988
0.120688
0.116831
0.112489
0.107915
0.103627
0.100348
0.098661
0.098631
0.099812
0.101626
0.103631
0.105567
0.107313
0.108825
0.110094
0.111121
0.111911
0.112466
0.112789
0.112882
0.112751
0.112402
0.111850
0.111119
0.110256
0.109331
0.108453
0.107759
0.107395
0.107485
0.108095
0.109216
0.110766
0.112611
0.114599
0.116595
0.118490
0.120208
0.121698
0.122924
0.123862
0.124494
0.124803
0.124775
0.124394
0.123647
0.122522
0.121010
0.119109
0.116828
0.114212
0.111372
0.108518
0.105980
0.104151
0.103354
0.103700
0.105042
0.107049
0.109359
0.111691
0.113865
0.115788
0.117416
0.118731
0.119721
0.120374
0.120674
0.120606
0.120156
0.119318
0.118103
0.116544
0.114707
0.112690
0.110628
0.108680
0.107011
0.105767
0.105050
0.104906
0.105318
0.106218
0.107501
0.109048
0.110744
0.112485
0.114187
0.115784
0.117224
0.118466
0.119482
0.120253
0.120764
0.121010
0.120987
0.120698
0.120153
0.119371
0.118395
0.117310
0.116250
0.115409
0.115008
0.115241
0.116216
0.117925
0.120243
0.122969
0.125890
0.128832
0.131676
0.134348
0.136811
0.139044
0.141034
0.142770
0.144238
0.145426
0.146321
0.146913
0.147195
0.147160
0.146795
0.146080
0.144987
0.143497
0.141645
0.139601
0.137731
0.136509
0.167246
0.167266
0.167319
0.167389
0.167457
0.167489
0.167446
0.167282
0.166944
0.166376
0.165519
0.164318
0.162719
0.160677
0.158159
0.155152
0.151673
0.147785
0.143608
0.139328
0.135191
0.131469
0.128415
0.126213
0.124943
0.124578
0.124998
0.126026
0.127459
0.129110
0.130824
0.132480
0.133986
0.135276
0.136301
0.137025
0.137424
0.137480
0.137184
0.136529
0.135514
0.134135
0.132388
0.130275
0.127822
0.125114
0.122339
0.119815
0.117947
0.117085
0.117378
0.118701
0.120730
0.123103
0.125528
0.127819
0.129876
0.131649
0.133116
0.134260
0.135063
0.135503
0.135551
0.135177
0.134351
0.133042
0.131220
0.128842
0.125845
0.122131
0.117578
0.112123
0.105967
0.099868
0.095225
0.093276
0.094089
0.096576
0.099630
0.102598
0.105216
0.107428
0.109258
0.110748
0.111928
0.112819
0.113431
0.113768
0.113833
0.113627
0.113152
0.112411
0.111420
0.110213
0.108869
0.107525
0.106378
0.105658
0.105568
0.106221
0.107603
0.109580
0.111936
0.114444
0.116913
0.119213
0.121263
0.123019
0.124456
0.125559
0.126314
0.126706
0.126718
0.126334
0.125532
0.124292
0.122588
0.120392
0.117674
0.114430
0.110731
0.106822
0.103194
0.100533
0.099439
0.100117
0.102277
0.105285
0.108532
0.111622
0.114366
0.116706
0.118640
0.120185
0.121348
0.122125
0.122500
0.122447
0.121941
0.120959
0.119495
0.117574
0.115262
0.112677
0.109994
0.107432
0.105228
0.103594
0.102676
0.102533
0.103129
0.104354
0.106048
0.108039
0.110170
0.112313
0.114370
0.116267
0.117952
0.119384
0.120536
0.121387
0.121926
0.122145
0.122040
0.121606
0.120838
0.119737
0.118325
0.116675
0.114950
0.113428
0.112464
0.112386
0.113380
0.115431
0.118324
0.121719
0.125282
0.128772
0.132054
0.135068
0.137799
0.140249
0.142418
0.144302
0.145891
0.147171
0.148126
0.148745
0.149022
0.148951
0.148518
0.147686
0.146379
0.144490
0.141945
0.138871
0.135823
0.133778
0.167451
0.167500
0.167632
0.167830
0.168065
0.168298
0.168479
0.168550
0.168446
0.168094
0.167422
0.166356
0.164822
0.162754
0.160094
0.156802
0.152870
0.148344
0.143352
0.138131
0.133022
0.128431
0.124741
0.122220
0.120974
0.120941
0.121927
0.123646
0.125801
0.128139
0.130468
0.132655
0.134606
0.136260
0.137572
0.138512
0.139058
0.139198
0.138924
0.138233
0.137123
0.135583
0.133589
0.131102
0.128088
0.124581
0.120778
0.117145
0.114388
0.113160
0.113737
0.115864
0.118911
0.122256
0.125489
0.128406
0.130941
0.133089
0.134861
0.136266
0.137296
0.137931
0.138141
0.137888
0.137134
0.135847
0.133995
0.131538
0.128389
0.124372
0.119170
0.112378
0.103855
0.094536
0.087295
0.085041
0.087824
0.092741
0.097698
0.101900
0.105260
0.107916
0.110027
0.111707
0.113021
0.114004
0.114668
0.115017
0.115052
0.114771
0.114165
0.113223
0.111933
0.110306
0.108406
0.106396
0.104563
0.103283
0.102899
0.103604
0.105380
0.107998
0.111094
0.114310
0.117385
0.120170
0.122598
0.124646
0.126311
0.127593
0.128486
0.128977
0.129049
0.128681
0.127846
0.126513
0.124645
0.122182
0.119030
0.115078
0.110272
0.104809
0.099395
0.095305
0.093714
0.095016
0.098632
0.103255
0.107839
0.111880
0.115257
0.118015
0.120243
0.122010
0.123351
0.124270
0.124744
0.124735
0.124195
0.123071
0.121334
0.118984
0.116080
0.112753
0.109227
0.105811
0.102859
0.100690
0.099515
0.099407
0.100298
0.102006
0.104283
0.106875
0.109571
0.112214
0.114699
0.116952
0.118922
0.120574
0.121882
0.122828
0.123403
0.123601
0.123419
0.122845
0.121855
0.120414
0.118491
0.116111
0.113443
0.110880
0.109020
0.108439
0.109460
0.112062
0.115871
0.120269
0.124717
0.128893
0.132673
0.136047
0.139049
0.141716
0.144070
0.146115
0.147841
0.149228
0.150256
0.150910
0.151187
0.151095
0.150631
0.149756
0.148341
0.146121
0.142749
0.138085
0.132837
0.129108
0.167566
0.167650
0.167879
0.168232
0.168674
0.169157
0.169619
0.169990
0.170188
0.170125
0.169709
0.168846
0.167440
0.165400
0.162632
0.159056
0.154616
0.149315
0.143268
0.136758
0.130270
0.124431
0.119841
0.116901
0.115747
0.116255
0.118100
0.120813
0.123948
0.127166
0.130247
0.133057
0.135518
0.137580
0.139210
0.140387
0.141094
0.141323
0.141073
0.140347
0.139150
0.137473
0.135268
0.132436
0.128824
0.124310
0.119005
0.113552
0.109246
0.107392
0.108513
0.112078
0.116769
0.121504
0.125749
0.129362
0.132381
0.134892
0.136964
0.138636
0.139913
0.140773
0.141180
0.141080
0.140429
0.139191
0.137349
0.134890
0.131757
0.127738
0.122260
0.114219
0.102300
0.086831
0.074097
0.071580
0.079319
0.088805
0.096481
0.102022
0.105992
0.108939
0.111219
0.113023
0.114441
0.115503
0.116216
0.116578
0.116586
0.116236
0.115513
0.114379
0.112780
0.110666
0.108046
0.105083
0.102187
0.099999
0.099123
0.099894
0.102291
0.105913
0.110106
0.114292
0.118125
0.121465
0.124293
0.126638
0.128534
0.130001
0.131045
0.131653
0.131807
0.131481
0.130639
0.129251
0.127278
0.124636
0.121156
0.116539
0.110413
0.102665
0.094176
0.087473
0.085017
0.087524
0.093918
0.101215
0.107650
0.112774
0.116741
0.119836
0.122290
0.124245
0.125763
0.126846
0.127460
0.127542
0.127017
0.125783
0.123767
0.120932
0.117302
0.113006
0.108326
0.103704
0.099683
0.096765
0.095265
0.095258
0.096625
0.099068
0.102182
0.105588
0.109005
0.112257
0.115244
0.117905
0.120199
0.122097
0.123578
0.124630
0.125248
0.125432
0.125185
0.124494
0.123320
0.121571
0.119111
0.115830
0.111819
0.107610
0.104270
0.102854
0.103912
0.107435
0.112775
0.118723
0.124381
0.129372
0.133667
0.137371
0.140610
0.143473
0.146009
0.148229
0.150113
0.151630
0.152745
0.153438
0.153711
0.153596
0.153139
0.152349
0.151084
0.148871
0.144790
0.137785
0.128178
0.120744
0.167528
0.167655
0.168002
0.168545
0.169241
0.170033
0.170847
0.171597
0.172183
0.172498
0.172428
0.171857
0.170668
0.168738
0.165936
0.162122
0.157158
0.150955
0.143555
0.135262
0.126764
0.119077
0.113194
0.109711
0.108784
0.110187
0.113368
0.117529
0.121988
0.126312
0.130281
0.133796
0.136817
0.139321
0.141294
0.142722
0.143597
0.143917
0.143684
0.142918
0.141643
0.139871
0.137554
0.134521
0.130420
0.124770
0.117295
0.108707
0.101539
0.098567
0.100768
0.107110
0.114539
0.121208
0.126614
0.130889
0.134312
0.137116
0.139451
0.141385
0.142929
0.144052
0.144700
0.144798
0.144281
0.143107
0.141283
0.138871
0.135956
0.132479
0.127772
0.119658
0.103633
0.075487
0.049824
0.047366
0.068830
0.086555
0.097333
0.103679
0.107723
0.110614
0.112875
0.114718
0.116207
0.117343
0.118108
0.118486
0.118472
0.118069
0.117265
0.115990
0.114131
0.111521
0.108013
0.103678
0.099086
0.095379
0.093667
0.094523
0.097936
0.103216
0.109086
0.114591
0.119325
0.123243
0.126445
0.129055
0.131162
0.132813
0.134019
0.134765
0.135025
0.134772
0.133953
0.132548
0.130546
0.127890
0.124368
0.119433
0.112061
0.101083
0.086960
0.075185
0.071187
0.075986
0.088183
0.099951
0.108709
0.114777
0.119061
0.122267
0.124810
0.126894
0.128586
0.129871
0.130684
0.130934
0.130511
0.129238
0.126982
0.123635
0.119147
0.113606
0.107333
0.100965
0.095383
0.091400
0.089498
0.089711
0.091852
0.095432
0.099764
0.104264
0.108578
0.112542
0.116093
0.119202
0.121851
0.124018
0.125687
0.126852
0.127512
0.127683
0.127383
0.126618
0.125350
0.123428
0.120530
0.116248
0.110348
0.103436
0.097543
0.094724
0.095813
0.100901
0.108987
0.117395
0.124649
0.130498
0.135209
0.139126
0.142514
0.145530
0.148241
0.150653
0.152730
0.154411
0.155637
0.156367
0.156605
0.156422
0.155959
0.155392
0.154737
0.153420
0.149621
0.139757
0.120889
0.104760
0.167260
0.167438
0.167930
0.168704
0.169711
0.170883
0.172134
0.173358
0.174437
0.175238
0.175625
0.175459
0.174601
0.172902
0.170193
0.166261
0.160846
0.153674
0.144586
0.133801
0.122261
0.111740
0.103978
0.099818
0.099365
0.102267
0.107593
0.113900
0.120127
0.125785
0.130744
0.135010
0.138615
0.141578
0.143905
0.145594
0.146640
0.147043
0.146810
0.145977
0.144612
0.142788
0.140523
0.137628
0.133498
0.126939
0.116496
0.102185
0.089365
0.084367
0.088708
0.100933
0.112987
0.122115
0.128570
0.133238
0.136834
0.139787
0.142316
0.144501
0.146341
0.147781
0.148736
0.149095
0.148748
0.147629
0.145756
0.143301
0.140651
0.138343
0.136452
0.132410
0.114981
0.058407
-0.000232
-0.002528
0.061476
0.090940
0.102469
0.107559
0.110563
0.112885
0.114922
0.116742
0.118303
0.119533
0.120366
0.120765
0.120728
0.120282
0.119457
0.118148
0.116196
0.113237
0.108776
0.102517
0.095088
0.088755
0.085627
0.086564
0.091669
0.099872
0.108369
0.115602
0.121286
0.125684
0.129144
0.131931
0.134203
0.136027
0.137410
0.138320
0.138713
0.138560
0.137776
0.136358
0.134378
0.131903
0.128849
0.124562
0.117024
0.102207
0.077064
0.054949
0.048336
0.056783
0.082660
0.101511
0.112311
0.118459
0.122378
0.125291
0.127727
0.129875
0.131754
0.133301
0.134402
0.134924
0.134726
0.133533
0.131145
0.127341
0.121928
0.114850
0.106401
0.097473
0.089576
0.084077
0.081663
0.082278
0.085668
0.091054
0.097171
0.103106
0.108473
0.113206
0.117343
0.120919
0.123939
0.126391
0.128258
0.129534
0.130227
0.130367
0.130008
0.129213
0.127999
0.126190
0.123256
0.118193
0.109780
0.098126
0.087661
0.082582
0.083585
0.091214
0.104736
0.117099
0.126227
0.132689
0.137486
0.141363
0.144749
0.147851
0.150734
0.153378
0.155706
0.157613
0.158992
0.159756
0.159888
0.159492
0.158846
0.158476
0.158963
0.160264
0.160096
0.149427
0.109249
0.071813
0.166667
0.166908
0.167573
0.168628
0.170014
0.171650
0.173437
0.175252
0.176950
0.178368
0.179343
0.179712
0.179320
0.178011
0.175588
0.171774
0.166147
0.158119
0.147063
0.132777
0.116393
0.101306
0.090851
0.085946
0.086393
0.091778
0.100726
0.110269
0.118775
0.125912
0.131863
0.136854
0.141026
0.144444
0.147130
0.149085
0.150303
0.150776
0.150504
0.149539
0.148007
0.146114
0.144079
0.141907
0.138886
0.132757
0.119012
0.093420
0.068633
0.060314
0.068285
0.094650
0.114189
0.125591
0.132243
0.136612
0.139960
0.142849
0.145492
0.147931
0.150118
0.151955
0.153320
0.154039
0.153921
0.152835
0.150743
0.147858
0.144935
0.143666
0.146795
0.156301
0.159826
0.032461
-0.110264
-0.126141
0.084617
0.111399
0.113272
0.113159
0.113872
0.115287
0.117052
0.118894
0.120596
0.121980
0.122916
0.123338
0.123255
0.122743
0.121863
0.120668
0.118959
0.116140
0.111108
0.102555
0.090481
0.079393
0.073934
0.074803
0.082525
0.096252
0.108797
0.117985
0.124349
0.128886
0.132344
0.135155
0.137523
0.139510
0.141094
0.142204
0.142750
0.142655
0.141853
0.140357
0.138322
0.136067
0.133994
0.132052
0.127884
0.111693
0.063605
0.020171
0.010779
0.019798
0.083434
0.110398
0.120063
0.124031
0.126455
0.128592
0.130751
0.132940
0.135062
0.136965
0.138470
0.139381
0.139509
0.138562
0.136247
0.132197
0.125975
0.117203
0.105908
0.093195
0.081861
0.074302
0.071175
0.072414
0.077750
0.086096
0.094817
0.102507
0.108953
0.114390
0.119062
0.123084
0.126478
0.129222
0.131290
0.132670
0.133368
0.133430
0.132956
0.132112
0.131083
0.129833
0.127807
0.123119
0.112045
0.091460
0.072402
0.064346
0.064651
0.075415
0.101384
0.119793
0.130282
0.136402
0.140577
0.144002
0.147189
0.150315
0.153391
0.156338
0.159019
0.161259
0.162873
0.163693
0.163621
0.162723
0.161373
0.160620
0.162183
0.167962
0.178894
0.184223
0.088955
0.000721
0.165636
0.165952
0.166827
0.168219
0.170060
0.172261
0.174703
0.177243
0.179712
0.181906
0.183619
0.184665
0.184885
0.184138
0.182253
0.178940
0.173628
0.165280
0.152320
0.133199
0.108495
0.085575
0.071591
0.066210
0.068159
0.077439
0.093064
0.107540
0.118695
0.127153
0.133883
0.139467
0.144147
0.148000
0.151045
0.153274
0.154670
0.155208
0.154844
0.153621
0.151721
0.149541
0.147723
0.146942
0.147154
0.145630
0.131584
0.081416
0.029636
0.018744
0.027867
0.094427
0.123084
0.133589
0.138073
0.140922
0.143481
0.146099
0.148814
0.151549
0.154175
0.156527
0.158433
0.159670
0.159898
0.158872
0.156355
0.152322
0.147493
0.144510
0.149958
0.176850
0.257597
0.190599
0.000000
-0.371922
0.241138
0.150891
0.124211
0.117114
0.116010
0.116988
0.118781
0.120849
0.122844
0.124490
0.125585
0.126027
0.125835
0.125155
0.124220
0.123291
0.122307
0.120580
0.116213
0.105593
0.085275
0.065876
0.057312
0.057484
0.068172
0.093867
0.112207
0.122699
0.128751
0.132716
0.135768
0.138408
0.140803
0.142957
0.144787
0.146159
0.146918
0.146912
0.146060
0.144358
0.141987
0.139539
0.138293
0.140267
0.146717
0.146460
0.040845
-0.045337
-0.042835
-0.076289
0.115094
0.133490
0.131975
0.130290
0.130266
0.131445
0.133356
0.135674
0.138147
0.140531
0.142571
0.144000
0.144492
0.143978
0.142048
0.138168
0.131580
0.121289
0.106449
0.087805
0.071169
0.061132
0.057273
0.059281
0.067419
0.081058
0.093560
0.103094
0.110319
0.116182
0.121239
0.125658
0.129421
0.132465
0.134738
0.136209
0.136872
0.136767
0.136029
0.134953
0.134009
0.133799
0.134267
0.133214
0.121949
0.082448
0.046533
0.038123
0.035502
0.043833
0.104770
0.129672
0.138217
0.141746
0.144196
0.146706
0.149536
0.152674
0.156013
0.159385
0.162572
0.165314
0.167322
0.168296
0.167971
0.166178
0.163198
0.160439
0.161092
0.169684
0.195121
0.262825
0.190661
0.000000
0.164029
0.164435
0.165561
0.167354
0.169739
0.172616
0.175854
0.179289
0.182707
0.185867
0.188492
0.190357
0.191312
0.191272
0.190180
0.187875
0.183813
0.176533
0.162887
0.137645