# vtk DataFile Version 3.0
Scalar Field
ASCII
DATASET RECTILINEAR_GRID
DIMENSIONS 26 100 1
X_COORDINATES 26 double
0.050000 0.150000 0.250000 0.350000 0.450000 0.550000 0.650000 0.750000 0.850000 0.950000 1.050000 1.150000 1.250000 1.350000 1.450000 1.550000 1.650000 1.750000 1.850000 1.950000 2.050000 2.150000 2.250000 2.350000 2.450000 2.550000 
Y_COORDINATES 100 double
0.050000 0.150000 0.250000 0.350000 0.450000 0.550000 0.650000 0.750000 0.850000 0.950000 1.050000 1.150000 1.250000 1.350000 1.450000 1.550000 1.650000 1.750000 1.850000 1.950000 2.050000 2.150000 2.250000 2.350000 2.450000 2.550000 2.650000 2.750000 2.850000 2.950000 3.050000 3.150000 3.250000 3.350000 3.450000 3.550000 3.650000 3.750000 3.850000 3.950000 4.050000 4.150000 4.250000 4.350000 4.450000 4.550000 4.650000 4.750000 4.850000 4.950000 5.050000 5.150000 5.250000 5.350000 5.450000 5.550000 5.650000 5.750000 5.850000 5.950000 6.050000 6.150000 6.250000 6.350000 6.450000 6.550000 6.650000 6.750000 6.850000 6.950000 7.050000 7.150000 7.250000 7.350000 7.450000 7.550000 7.650000 7.750000 7.850000 7.950000 8.050000 8.150000 8.250000 8.350000 8.450000 8.550000 8.650000 8.750000 8.850000 8.950000 9.050000 9.150000 9.250000 9.350000 9.450000 9.550000 9.650000 9.750000 9.850000 9.950000 
Z_COORDINATES 1 double
0.0
POINT_DATA 2600
SCALARS Skalarfeld double 1
LOOKUP_TABLE default
-0.158852
-0.164336
-0.171223
-0.176064
-0.177263
-0.174133
-0.166498
-0.154450
-0.138212
-0.118069
-0.094338
-0.067367
-0.037550
-0.005345
0.028707
0.063983
0.099778
0.135328
0.169831
0.202474
0.232451
0.258989
0.281386
0.299040
0.311426
0.317735
-0.145086
-0.146482
-0.148095
-0.148458
-0.146618
-0.142021
-0.134372
-0.123544
-0.109525
-0.092396
-0.072314
-0.049508
-0.024283
0.002979
0.031817
0.061693
0.092004
0.122095
0.151279
0.178857
0.204140
0.226471
0.245249
0.259953
0.270167
0.275558
-0.131566
-0.131666
-0.131184
-0.129431
-0.126011
-0.120611
-0.112986
-0.102940
-0.090349
-0.075172
-0.057463
-0.037369
-0.015131
0.008919
0.034367
0.060728
0.087458
0.113974
0.139668
0.163925
0.186143
0.205752
0.222234
0.235150
0.244158
0.248979
-0.118211
-0.117549
-0.115802
-0.112756
-0.108362
-0.102526
-0.095067
-0.085762
-0.074411
-0.060887
-0.045168
-0.027343
-0.007609
0.013736
0.036313
0.059675
0.083329
0.106752
0.129406
0.150757
0.170287
0.187506
0.201974
0.213317
0.221247
0.225538
-0.105553
-0.104441
-0.101977
-0.098189
-0.093296
-0.087355
-0.080228
-0.071670
-0.061426
-0.049315
-0.035263
-0.019324
-0.001675
0.017407
0.037561
0.058371
0.079382
0.100125
0.120129
0.138933
0.156096
0.171206
0.183891
0.193837
0.200803
0.204607
-0.093634
-0.092386
-0.089584
-0.085477
-0.080484
-0.074738
-0.068109
-0.060322
-0.051086
-0.040182
-0.027515
-0.013131
0.002800
0.020001
0.038122
0.056764
0.075506
0.093927
0.111616
0.128181
0.143254
0.156494
0.167595
0.176295
0.182394
0.185751
-0.082107
-0.081227
-0.078371
-0.074332
-0.069611
-0.064343
-0.058370
-0.051381
-0.043059
-0.033177
-0.021644
-0.008517
0.006018
0.021672
0.038095
0.054899
0.071694
0.088101
0.103766
0.118362
0.131588
0.143168
0.152855
0.160439
0.165756
0.168703
-0.070905
-0.070428
-0.067990
-0.064466
-0.060396
-0.055876
-0.050695
-0.044512
-0.037007
-0.027967
-0.017332
-0.005194
0.008228
0.022625
0.037638
0.052889
0.068015
0.082678
0.096576
0.109441
0.121035
0.131139
0.139559
0.146134
0.150741
0.153308
-0.059850
-0.059852
-0.058251
-0.055693
-0.052634
-0.049089
-0.044791
-0.039389
-0.032581
-0.024201
-0.014243
-0.002854
0.009703
0.023090
0.036939
0.050883
0.064581
0.077736
0.090097
0.101447
0.111599
0.120387
0.127663
0.133313
0.137264
0.139476
-0.049157
-0.049660
-0.049209
-0.047984
-0.046209
-0.043778
-0.040382
-0.035680
-0.029424
-0.021518
-0.012034
-0.001184
0.010715
0.023296
0.036185
0.049026
0.061504
0.073364
0.084394
0.094423
0.103303
0.110908
0.117137
0.121924
0.125250
0.127122
-0.039377
-0.040337
-0.041166
-0.041449
-0.041062
-0.039749
-0.037174
-0.033035
-0.027162
-0.019551
-0.010366
0.000111
0.011506
0.023434
0.035520
0.047425
0.058859
0.069608
0.079496
0.088378
0.096132
0.102664
0.107919
0.111883
0.114602
0.116137
-0.031145
-0.032473
-0.034500
-0.036220
-0.037113
-0.036766
-0.034830
-0.031068
-0.025406
-0.017940
-0.008933
0.001280
0.012258
0.023616
0.035008
0.046106
0.056628
0.066430
0.075345
0.083236
0.089988
0.095538
0.099884
0.103058
0.105175
0.106373
-0.024836
-0.026434
-0.029414
-0.032282
-0.034156
-0.034491
-0.032949
-0.029364
-0.023777
-0.016356
-0.007504
0.002499
0.013050
0.023846
0.034547
0.044888
0.054652
0.063668
0.071777
0.078833
0.084720
0.089376
0.092835
0.095264
0.096796
0.097656
-0.020347
-0.022131
-0.025739
-0.029341
-0.031794
-0.032471
-0.031078
-0.027500
-0.021955
-0.014518
-0.005825
0.003746
0.013745
0.023884
0.033897
0.043556
0.052662
0.061035
0.068494
0.074871
0.080032
0.083920
0.086604
0.088311
0.089291
0.089832
-0.017109
-0.019004
-0.022916
-0.026825
-0.029458
-0.030158
-0.028781
-0.025060
-0.019386
-0.012263
-0.004096
0.004779
0.014037
0.023424
0.032721
0.041734
0.050270
0.058130
0.065101
0.070977
0.075594
0.078885
0.080935
0.082016
0.082548
0.082836
-0.014274
-0.016205
-0.020144
-0.024008
-0.026536
-0.026976
-0.025224
-0.021556
-0.016352
-0.009935
-0.002627
0.005296
0.013600
0.022095
0.030613
0.038985
0.047020
0.054492
0.061149
0.066739
0.071053
0.073993
0.075636
0.076279
0.076442
0.076791
-0.010963
-0.012859
-0.016612
-0.020199
-0.022129
-0.022152
-0.020553
-0.017460
-0.013124
-0.007799
-0.001710
0.004960
0.012072
0.019510
0.027157
0.034867
0.042447
0.049649
0.056179
0.061732
0.066046
0.068970
0.070544
0.071068
0.071144
0.071758
-0.006490
-0.008329
-0.011746
-0.014448
-0.015986
-0.016194
-0.015177
-0.013066
-0.010017
-0.006178
-0.001662
0.003458
0.009138
0.015336
0.021990
0.028981
0.036122
0.043151
0.049739
0.055533
0.060204
0.063532
0.065497
0.066372
0.066813
0.067785
-0.000473
-0.002258
-0.004971
-0.007267
-0.008804
-0.009533
-0.009502
-0.008767
-0.007381
-0.005372
-0.002735
0.000567
0.004582
0.009345
0.014849
0.021018
0.027687
0.034600
0.041410
0.047721
0.053139
0.057357
0.060265
0.062063
0.063354
0.064811
0.006834
0.005230
0.002922
0.000737
-0.001150
-0.002735
-0.004015
-0.004960
-0.005512
-0.005584
-0.005057
-0.003795
-0.001664
0.001450
0.005606
0.010793
0.016897
0.023694
0.030844
0.037919
0.044460
0.050062
0.054492
0.057804
0.060379
0.062403
0.014740
0.013265
0.011113
0.008777
0.006289
0.003629
0.000846
-0.001943
-0.004578
-0.006867
-0.008598
-0.009549
-0.009504
-0.008269
-0.005694
-0.001699
0.003690
0.010309
0.017848
0.025865
0.033836
0.041247
0.047697
0.053004
0.057165
0.059779
0.022355
0.020894
0.018736
0.016104
0.012909
0.009107
0.004788
0.000143
-0.004580
-0.009109
-0.013158
-0.016439
-0.018657
-0.019524
-0.018774
-0.016205
-0.011723
-0.005401
0.002499
0.011530
0.021108
0.030591
0.039372
0.046946
0.052820
0.056010
0.028867
0.027357
0.025128
0.022183
0.018320
0.013460
0.007720
0.001348
-0.005345
-0.012030
-0.018375
-0.024032
-0.028633
-0.031779
-0.033066
-0.032138
-0.028760
-0.022894
-0.014740
-0.004748
0.006435
0.018027
0.029189
0.039048
0.046593
0.050329
0.033776
0.032223
0.029943
0.026771
0.022395
0.016682
0.009753
0.001894
-0.006546
-0.015208
-0.023727
-0.031713
-0.038718
-0.044223
-0.047671
-0.048534
-0.046421
-0.041175
-0.032940
-0.022169
-0.009578
0.003916
0.017239
0.029160
0.038195
0.042446
0.036964
0.035418
0.033159
0.029912
0.025255
0.018974
0.011171
0.002145
-0.007736
-0.018099
-0.028564
-0.038705
-0.047995
-0.055796
-0.061391
-0.064080
-0.063314
-0.058828
-0.050719
-0.039454
-0.025820
-0.010854
0.004180
0.017750
0.027996
0.032720
0.038621
0.037144
0.035006
0.031866
0.027197
0.020680
0.012366
0.002550
-0.008394
-0.020092
-0.032157
-0.044130
-0.055418
-0.065272
-0.072830
-0.077233
-0.077793
-0.074152
-0.066377
-0.054964
-0.040764
-0.024900
-0.008765
0.005911
0.017016
0.022146
0.039105
0.037763
0.035851
0.033000
0.028596
0.022194
0.013764
0.003578
-0.007996
-0.020585
-0.033792
-0.047129
-0.059953
-0.071432
-0.080591
-0.086444
-0.088190
-0.085407
-0.078151
-0.066940
-0.052687
-0.036561
-0.019994
-0.004815
0.006751
0.012175
0.038806
0.037658
0.036073
0.033674
0.029788
0.023848
0.015722
0.005624
-0.006105
-0.019087
-0.032898
-0.047013
-0.060765
-0.073284
-0.083533
-0.090446
-0.093128
-0.091155
-0.084555
-0.073857
-0.060022
-0.044228
-0.027855
-0.012763
-0.001147
0.004416
0.038044
0.037143
0.035968
0.034139
0.030960
0.025800
0.018413
0.008902
-0.002484
-0.015349
-0.029203
-0.043494
-0.057502
-0.070341
-0.080993
-0.088442
-0.091841
-0.090606
-0.084749
-0.074791
-0.061737
-0.046752
-0.031017
-0.016521
-0.005229
0.000303
0.037029
0.036414
0.035701
0.034492
0.032076
0.028000
0.021864
0.013241
0.002485
-0.009907
-0.023381
-0.037317
-0.050977
-0.063480
-0.073841
-0.081087
-0.084414
-0.083350
-0.077927
-0.068692
-0.056605
-0.042864
-0.028743
-0.015298
-0.004594
0.000817
0.035874
0.035565
0.035330
0.034726
0.033209
0.030454
0.025475
0.017986
0.008217
-0.003318
-0.015993
-0.029115
-0.041911
-0.053511
-0.062988
-0.069459
-0.072226
-0.070925
-0.065641
-0.056930
-0.045722
-0.033153
-0.020361
-0.008446
0.001103
0.006356
0.034640
0.034633
0.034849
0.034799
0.034300
0.032522
0.028703
0.022455
0.013895
0.003509
-0.008031
-0.019967
-0.031486
-0.041737
-0.049867
-0.055112
-0.056906
-0.055004
-0.049561
-0.041143
-0.030642
-0.019116
-0.007595
0.002956
0.011394
0.016191
0.033387
0.033645
0.034232
0.034774
0.034897
0.033883
0.031038
0.025941
0.018624
0.009526
-0.000667
-0.011155
-0.021103
-0.029688
-0.036145
-0.039838
-0.040344
-0.037544
-0.031672
-0.023313
-0.013321
-0.002671
0.007730
0.017087
0.024537
0.028902
0.032234
0.032656
0.033512
0.034427
0.034908
0.034352
0.032162
0.027951
0.021718
0.013867
0.005076
-0.003840
-0.012051
-0.018782
-0.023367
-0.025303
-0.024316
-0.020409
-0.013899
-0.005399
0.004265
0.014202
0.023632
0.031949
0.038545
0.042576
0.031396
0.031681
0.032677
0.033729
0.034299
0.033871
0.031969
0.028287
0.022850
0.016057
0.008584
0.001233
-0.005200
-0.010009
-0.012643
-0.012741
-0.010167
-0.005047
0.002221
0.010990
0.020452
0.029791
0.038363
0.045749
0.051592
0.055339
0.030833
0.030892
0.031786
0.032696
0.033063
0.032443
0.030471
0.026953
0.021987
0.016007
0.009693
0.003820
-0.000874
-0.003785
-0.004490
-0.002771
0.001370
0.007698
0.015738
0.024806
0.034108
0.042896
0.050661
0.057178
0.062317
0.065772
0.030477
0.030318
0.030829
0.031296
0.031163
0.030046
0.027683
0.024004
0.019221
0.013832
0.008531
0.004051
0.001038
-0.000032
0.001118
0.004559
0.010162
0.017596
0.026323
0.035625
0.044715
0.052922
0.059873
0.065535
0.069981
0.073099
0.030182
0.029781
0.029694
0.029432
0.028508
0.026601
0.023558
0.019450
0.014630
0.009688
0.005329
0.002218
0.000876
0.001617
0.004551
0.009599
0.016518
0.024899
0.034157
0.043549
0.052304
0.059832
0.065917
0.070710
0.074453
0.077178
0.029665
0.029003
0.028172
0.026940
0.024951
0.021976
0.017987
0.013236
0.008245
0.003707
0.000323
-0.001344
-0.000945
0.001638
0.006323
0.012883
0.020973
0.030130
0.039738
0.049037
0.057282
0.063997
0.069139
0.073037
0.076059
0.078340
0.028591
0.027655
0.025995
0.023614
0.020319
0.016012
0.010843
0.005292
0.000090
-0.003972
-0.006231
-0.006277
-0.003985
0.000530
0.006982
0.014991
0.024130
0.033906
0.043686
0.052692
0.060234
0.065989
0.070116
0.073097
0.075383
0.077182
0.026671
0.025444
0.022909
0.019250
0.014447
0.008569
0.002025
-0.004400
-0.009741
-0.013129
-0.013999
-0.012160
-0.007762
-0.001188
0.007067
0.016482
0.026568
0.036820
0.046590
0.055090
0.061726
0.066395
0.069467
0.071529
0.073071
0.074364
0.023735
0.022193
0.018752
0.013723
0.007237
-0.000415
-0.008463
-0.015732
-0.021007
-0.023395
-0.022510
-0.018463
-0.011732
-0.002980
0.007101
0.017862
0.028786
0.039355
0.048888
0.056623
0.062162
0.065678
0.067708
0.068883
0.069698
0.070483
0.019793
0.017902
0.013528
0.007055
-0.001264
-0.010846
-0.020435
-0.028385
-0.033245
-0.034192
-0.031127
-0.024548
-0.015301
-0.004329
0.007548
0.019525
0.031139
0.041821
0.050757
0.057400
0.061712
0.064115
0.065196
0.065567
0.065710
0.066011
0.015067
0.012793
0.007459
-0.000520
-0.010790
-0.022382
-0.033419
-0.041729
-0.045694
-0.044698
-0.039048
-0.029697
-0.017885
-0.004839
0.008746
0.021634
0.033667
0.044125
0.052148
0.057364
0.060308
0.061813
0.062127
0.061843
0.061418
0.061298
0.010003
0.007319
0.001017
-0.008501
-0.020777
-0.034339
-0.046561
-0.054753
-0.057247
-0.053854
-0.045357
-0.033204
-0.018987
-0.004169
0.010300
0.023767
0.035759
0.045586
0.052518
0.056575
0.058463
0.058930
0.058600
0.057861
0.057022
0.056601
0.005255
0.002160
-0.005079
-0.016104
-0.030321
-0.045624
-0.058550
-0.066028
-0.066433
-0.060432
-0.048788
-0.034180
-0.018641
-0.003100
0.011706
0.025179
0.036717
0.045634
0.051468
0.054573
0.055734
0.055647
0.054837
0.053696
0.052616
0.052119
0.001633
-0.001834
-0.009906
-0.022282
-0.038178
-0.054734
-0.067614
-0.073847
-0.071312
-0.061788
-0.048658
-0.033556
-0.017880
-0.002485
0.011994
0.024951
0.035717
0.043682
0.048663
0.051192
0.052007
0.051702
0.050716
0.049410
0.048211
0.047901
-0.000004
-0.003746
-0.012440
-0.025834
-0.042878
-0.059936
-0.071513
-0.074175
-0.069168
-0.059235
-0.046453
-0.032295
-0.017746
-0.003442
0.010062
0.022124
0.032038
0.039283
0.043843
0.046250
0.047118
0.046936
0.046079
0.044892
0.043837
0.043639
0.001104
-0.002758
-0.011733
-0.025604
-0.042948
-0.058323
-0.066176
-0.066995
-0.062185
-0.053760
-0.043267
-0.031658
-0.019471
-0.007101
0.004942
0.015949
0.025171
0.032112
0.036760
0.039511
0.040829
0.041116
0.040701
0.039914
0.039212
0.039152
0.005437
0.001634
-0.007156
-0.020627
-0.035885
-0.047892
-0.053818
-0.054599
-0.051877
-0.046953
-0.040553
-0.032920
-0.024105
-0.014299
-0.004020
0.005939
0.014754
0.021862
0.027106
0.030666
0.032845
0.033961
0.034309
0.034194
0.034017
0.034139
0.012887
0.009274
0.001409
-0.010198
-0.022484
-0.031591
-0.036620
-0.039077
-0.040242
-0.040501
-0.039591
-0.036970
-0.032243
-0.025460
-0.017171
-0.008232
0.000452
0.008164
0.014499
0.019355
0.022839
0.025174
0.026612
0.027424
0.027916
0.028269
0.022358
0.019328
0.012946
0.003887
-0.005234
-0.012104
-0.017337
-0.022785
-0.029117
-0.035651
-0.041072
-0.044100
-0.043983
-0.040668
-0.034666
-0.026819
-0.018089
-0.009394
-0.001474
0.005209
0.010496
0.014471
0.017333
0.019309
0.020601
0.021238
0.032483
0.030142
0.025485
0.019129
0.012917
0.007668
0.001540
-0.007571
-0.019646
-0.032890
-0.044991
-0.054056
-0.059050
-0.059753
-0.056501
-0.049987
-0.041172
-0.031189
-0.021185
-0.012089
-0.004440
0.001635
0.006261
0.009625
0.011841
0.012823
0.041538
0.039870
0.036917
0.033080
0.029380
0.025421
0.018314
0.005598
-0.012115
-0.031973
-0.050790
-0.066192
-0.076862
-0.082282
-0.082425
-0.077682
-0.068916
-0.057448
-0.044877
-0.032737
-0.022109
-0.013435
-0.006695
-0.001727
0.001537
0.002929
0.047973
0.046937
0.045532
0.043897
0.042360
0.039695
0.032156
0.016570
-0.006131
-0.032153
-0.057555
-0.079559
-0.096511
-0.107440
-0.111785
-0.109466
-0.101101
-0.088106
-0.072556
-0.056730
-0.042456
-0.030649
-0.021440
-0.014657
-0.010228
-0.008354
0.050810
0.050380
0.050324
0.050552
0.050909
0.049736
0.042776
0.025645
-0.000967
-0.032446
-0.064135
-0.092900
-0.116675
-0.133914
-0.143378
-0.144340
-0.136977
-0.122642
-0.103843
-0.083734
-0.065142
-0.049657
-0.037628
-0.028841
-0.023140
-0.020718
0.049801
0.049951
0.051019
0.052758
0.054736
0.055194
0.049879
0.033038
0.004066
-0.031802
-0.069205
-0.104648
-0.135583
-0.159812
-0.175330
-0.180578
-0.175069
-0.159866
-0.137789
-0.112948
-0.089434
-0.069771
-0.054617
-0.043677
-0.036635
-0.033610
0.045323
0.045995
0.047920
0.050766
0.053984
0.055924
0.052747
0.038166
0.009360
-0.029169
-0.071289
-0.112982
-0.151075
-0.182668
-0.205038
-0.215586
-0.212973
-0.197697
-0.172668
-0.142938
-0.114100
-0.089900
-0.071430
-0.058284
-0.049893
-0.046247
0.038125
0.039209
0.041688
0.045178
0.049107
0.051995
0.050486
0.038774
0.015338
-0.023423
-0.068849
-0.116013
-0.160807
-0.199532
-0.229237
-0.245843
-0.247220
-0.232969
-0.205791
-0.171501
-0.137334
-0.108536
-0.086777
-0.071526
-0.061886
-0.057653
0.029045
0.030385
0.033113
0.036805
0.040895
0.044060
0.043322
0.037893
0.019163
-0.016565
-0.062269
-0.112036
-0.161649
-0.207053
-0.244299
-0.266923
-0.273282
-0.261373
-0.233413
-0.195613
-0.156754
-0.123796
-0.099126
-0.082110
-0.071472
-0.066769
0.018795
0.020189
0.022906
0.026469
0.030334
0.033508
0.035006
0.032536
0.019531
-0.010531
-0.053534
-0.103059
-0.153816
-0.201615
-0.242648
-0.273118
-0.285947
-0.277680
-0.250893
-0.211593
-0.169571
-0.133592
-0.106874
-0.088741
-0.077549
-0.072590
0.007858
0.009010
0.011526
0.014790
0.018420
0.021827
0.024124
0.023478
0.015386
-0.008083
-0.045701
-0.091786
-0.140383
-0.186805
-0.227234
-0.257853
-0.274209
-0.273936
-0.253263
-0.215694
-0.172979
-0.135955
-0.108601
-0.090349
-0.079258
-0.074360
-0.003770
-0.002890
-0.000696
0.002167
0.005359
0.008482
0.010822
0.010936
0.005653
-0.012039
-0.042928
-0.082707
-0.125442
-0.166140
-0.201184
-0.227627
-0.242675
-0.244284
-0.230727
-0.202573
-0.164765
-0.129514
-0.103395
-0.086336
-0.076207
-0.071770
-0.016232
-0.015560
-0.013833
-0.011564
-0.009068
-0.006665
-0.004948
-0.005147
-0.009689
-0.023540
-0.048162
-0.080279
-0.114306
-0.145275
-0.170160
-0.187501
-0.196601
-0.197160
-0.188581
-0.169525
-0.141571
-0.113069
-0.091129
-0.076946
-0.068776
-0.065103
-0.029684
-0.029236
-0.028099
-0.026636
-0.025130
-0.023871
-0.023396
-0.024786
-0.029968
-0.041999
-0.061856
-0.086625
-0.110912
-0.129759
-0.140858
-0.144736
-0.143530
-0.139566
-0.133689
-0.123402
-0.106783
-0.088096
-0.073109
-0.063507
-0.058132
-0.055716
-0.044333
-0.044152
-0.043727
-0.043289
-0.043085
-0.043406
-0.044756
-0.048059
-0.054735
-0.066368
-0.082903
-0.101286
-0.116181
-0.122502
-0.118326
-0.106090
-0.091253
-0.079651
-0.074275
-0.071798
-0.066627
-0.058914
-0.052246
-0.048174
-0.046109
-0.045197
-0.060346
-0.060492
-0.060903
-0.061709
-0.063132
-0.065479
-0.069229
-0.075101
-0.083909
-0.095979
-0.110082
-0.122761
-0.128837
-0.123281
-0.104268
-0.075523
-0.045606
-0.024452
-0.017965
-0.022279
-0.027638
-0.030443
-0.032055
-0.033570
-0.034849
-0.035461
-0.077798
-0.078335
-0.079705
-0.081970
-0.085349
-0.090185
-0.096925
-0.106015
-0.117528
-0.130526
-0.142561
-0.149705
-0.147124
-0.130315
-0.097716
-0.053798
-0.009435
0.021276
0.029215
0.018825
0.004594
-0.007074
-0.015779
-0.022138
-0.026336
-0.028300
-0.096616
-0.097613
-0.100060
-0.103987
-0.109650
-0.117450
-0.127797
-0.140782
-0.155559
-0.169775
-0.179736
-0.181109
-0.169636
-0.141826
-0.096868
-0.039908
0.016639
0.054794
0.062751
0.046964
0.026150
0.008083
-0.005761
-0.015663
-0.022022
-0.025019
-0.116552
-0.118072
-0.121699
-0.127471
-0.135728
-0.146969
-0.161569
-0.179167
-0.197769
-0.213364
-0.220992
-0.216113
-0.195332
-0.156567
-0.100282
-0.032670
0.032547
0.073826
0.079053
0.059499
0.035009
0.013466
-0.003192
-0.015060
-0.022647
-0.026269
-0.137167
-0.139260
-0.144140
-0.151896
-0.163009
-0.178137
-0.197633
-0.220591
-0.243590
-0.260658
-0.265565
-0.253868
-0.223403
-0.173771
-0.107074
-0.031119
0.038591
0.073925
0.075889
0.055744
0.030963
0.008961
-0.008183
-0.020429
-0.028281
-0.032086
-0.157838
-0.160529
-0.166680
-0.176480
-0.190615
-0.209967
-0.234923
-0.263962
-0.291935
-0.310570
-0.312412
-0.293496
-0.253297
-0.193198
-0.116938
-0.035519
0.030797
0.058159
0.054046
0.037277
0.015401
-0.004417
-0.020032
-0.031257
-0.038497
-0.042051
-0.177797
-0.181067
-0.188429
-0.200205
-0.217344
-0.241034
-0.271777
-0.307439
-0.340892
-0.361267
-0.360001
-0.333993
-0.284874
-0.215155
-0.132713
-0.052166
0.008288
0.030467
0.023990
0.008105
-0.009251
-0.025008
-0.037570
-0.046663
-0.052559
-0.055464
-0.196190
-0.199969
-0.208371
-0.221870
-0.241711
-0.269446
-0.305804
-0.348135
-0.387251
-0.409590
-0.405732
-0.373621
-0.315474
-0.240131
-0.158354
-0.081859
-0.027638
-0.010212
-0.015112
-0.027182
-0.039895
-0.050903
-0.059467
-0.065599
-0.069587
-0.071462
-0.212168
-0.216325
-0.225472
-0.240222
-0.262080
-0.292952
-0.333867
-0.381846
-0.425855
-0.450021
-0.444526
-0.404674
-0.342392
-0.270663
-0.197146
-0.128153
-0.079245
-0.062988
-0.063315
-0.069032
-0.075274
-0.080445
-0.084252
-0.086849
-0.088498
-0.089193
-0.224993
-0.229347
-0.238834
-0.254140
-0.276911
-0.309249
-0.352377
-0.403102
-0.449082
-0.473181
-0.459858
-0.418502
-0.365803
-0.310054
-0.251561
-0.194363
-0.149252
-0.128537
-0.120268
-0.116694
-0.114461
-0.112529
-0.110757
-0.109269
-0.108229
-0.107627
-0.234137
-0.238481
-0.247846
-0.262886
-0.285158
-0.316613
-0.358233
-0.406213
-0.447523
-0.457372
-0.442934
-0.417275
-0.389255
-0.359783
-0.324677
-0.280683
-0.236705
-0.206088
-0.184764
-0.168753
-0.156008
-0.145723
-0.137616
-0.131587
-0.127600
-0.125594
-0.239341
-0.243490
-0.252318
-0.266318
-0.286692
-0.314763
-0.350639
-0.388345
-0.407690
-0.408997
-0.406442
-0.408501
-0.414931
-0.420175
-0.413369
-0.382903
-0.337134
-0.292340
-0.254012
-0.222775
-0.197798
-0.178174
-0.163193
-0.152340
-0.145268
-0.141800
-0.240619
-0.244465
-0.252496
-0.264970
-0.282523
-0.305406
-0.331144
-0.350221
-0.352717
-0.352880
-0.367172
-0.399469
-0.443262
-0.486375
-0.509388
-0.492689
-0.443239
-0.381540
-0.323516
-0.275241
-0.237033
-0.207604
-0.185577
-0.169875
-0.159748
-0.154835
-0.238185
-0.241754
-0.249027
-0.260037
-0.274716
-0.291884
-0.307254
-0.312480
-0.305469
-0.309630
-0.340066
-0.395855
-0.471716
-0.549002
-0.599882
-0.597648
-0.544653
-0.465606
-0.387284
-0.321748
-0.270406
-0.231434
-0.202684
-0.182437
-0.169487
-0.163243
-0.232434
-0.235877
-0.242723
-0.252805
-0.265532
-0.278917
-0.288339
-0.287781
-0.279601
-0.290159
-0.329825
-0.398380
-0.493221
-0.594509
-0.668478
-0.681416
-0.627791
-0.534577
-0.438460
-0.357540
-0.294457
-0.247030
-0.212425
-0.188298
-0.172984
-0.165633
-0.223594
-0.227104
-0.234026
-0.244104
-0.256570
-0.269334
-0.278395
-0.279931
-0.278093
-0.294466
-0.335607
-0.404278
-0.499297
-0.606140
-0.694880
-0.723873
-0.676694
-0.578222
-0.470725
-0.378393
-0.306088
-0.252011
-0.212932
-0.185944
-0.168956
-0.160828
-0.211697
-0.215496
-0.223008
-0.234057
-0.248026
-0.263224
-0.276644
-0.285939
-0.294935
-0.316225
-0.352246
-0.411030
-0.487573
-0.577796
-0.657811
-0.697240
-0.676802
-0.590212
-0.480780
-0.381752
-0.303032
-0.244500
-0.202720
-0.174262
-0.156542
-0.148035
-0.196601
-0.200851
-0.209334
-0.222089
-0.238882
-0.258690
-0.279458
-0.299368
-0.319950
-0.343458
-0.373950
-0.417842
-0.471150
-0.534099
-0.595769
-0.614696
-0.617262
-0.568973
-0.468098
-0.365788
-0.283674
-0.223536
-0.181357
-0.153012
-0.135523
-0.127147
-0.178034
-0.182788
-0.192380
-0.207157
-0.227411
-0.252902
-0.282366
-0.313729
-0.345035
-0.371047
-0.397602
-0.424164
-0.453625
-0.490444
-0.555081
-0.557714
-0.573159
-0.538632
-0.435615
-0.329838
-0.247389
-0.188898
-0.148885
-0.122445
-0.106294
-0.098569
-0.155716
-0.160883
-0.171422
-0.188036
-0.211639
-0.242869
-0.281240
-0.324110
-0.365800
-0.396806
-0.418733
-0.427841
-0.440079
-0.458017
-0.506549
-0.618108
-0.678502
-0.534601
-0.386898
-0.272521
-0.193589
-0.140992
-0.106209
-0.083637
-0.069965
-0.063409
-0.129498
-0.134841
-0.145843
-0.163584
-0.189658
-0.225759
-0.272485
-0.326906
-0.379575
-0.414893
-0.428582
-0.428918
-0.432987
-0.445502
0.000000
-0.370375
-0.810099
-0.479967
-0.292242
-0.186047
-0.121922
-0.081513
-0.055377
-0.038545
-0.028348
-0.023397
-0.099515
-0.104657
-0.115337
-0.132963
-0.159817
-0.198887
-0.252639
-0.319133
-0.384934
-0.423654
-0.428092
-0.427468
-0.430227
0.000000
0.241730
0.069348
-0.201376
-0.186915
-0.120350
-0.070683
-0.037285
-0.014908
0.000133
0.010069
0.016215
0.019311
-0.066295
-0.070766
-0.080105
-0.095890
-0.120922
-0.159587
-0.217469
-0.297505
-0.387399
-0.442090
-0.424611
-0.426039
0.000000
0.535909
0.414112
0.223486
0.094284
0.043751
0.035931
0.040052
0.046123
0.051582
0.055901
0.059074
0.061217
0.062456
-0.030818
-0.034136
-0.041045
-0.052987
-0.072733
-0.105415
-0.160116
-0.250767
-0.389897
-0.553934
-0.489272
0.000000
0.753342
0.657705
0.506784
0.374148
0.266241
0.195771
0.155394
0.132847
0.120054
0.112629
0.108264
0.105741
0.104424
0.104021
0.005540
0.003745
0.000122
-0.006227
-0.017100
-0.036273
-0.072253
-0.145340
-0.306973
-0.617511
0.012982
0.825960
0.848978
0.706710
0.579378
0.463546
0.365751
0.291582
0.239596
0.204468
0.180973
0.165275
0.154852
0.148129
0.144163
0.142461
0.041190
0.041044
0.040995
0.040889
0.040569
0.039960
0.039266
0.039252
0.045783
0.145153
0.643475
0.802943
0.766679
0.691732
0.595703
0.500812
0.416825
0.348296
0.295671
0.256770
0.228633
0.208584
0.194570
0.185156
0.179402
0.176782
0.074608
0.075967
0.079096
0.084339
0.092481
0.105125
0.125620
0.161181
0.227815
0.356973
0.551806
0.673554
0.673667
0.636960
0.574102
0.503993
0.437143
0.378848
0.330994
0.293305
0.264466
0.242922
0.227280
0.216454
0.209677
0.206495
0.104598
0.107150
0.112704
0.121819
0.135584
0.155914
0.186091
0.231484
0.299656
0.395898
0.504940
0.578324
0.593802
0.577197
0.539320
0.490569
0.439985
0.392877
0.351882
0.317840
0.290549
0.269339
0.253439
0.242156
0.234953
0.231498
0.130382
0.133764
0.140921
0.152405
0.169189
0.192776
0.225313
0.269427
0.327102
0.396287
0.465383
0.514332
0.532474
0.526658
0.504533
0.471551
0.434288
0.397291
0.363309
0.333724
0.309011
0.289128
0.273798
0.262682
0.255469
0.251952
0.151580
0.155460
0.163517
0.176186
0.194151
0.218323
0.249729
0.289129
0.336078
0.387317
0.435448
0.470843
0.487832
0.487764
0.475079
0.452859
0.425564
0.396755
0.368930
0.343642
0.321727
0.303548
0.289185
0.278575
0.271602
0.268163
0.168108
0.172219
0.180664
0.193741
0.211838
0.235348
0.264512
0.299087
0.337788
0.377661
0.413960
0.441409
0.456656
0.459537
0.452428
0.437222
0.416919
0.394221
0.371270
0.349596
0.330200
0.313683
0.300363
0.290382
0.283768
0.280492
0.180070
0.184193
0.192694
0.205764
0.223548
0.246075
0.273114
0.303944
0.337070
0.370025
0.399544
0.422324
0.436151
0.440516
0.436593
0.425720
0.409975
0.391450
0.371971
0.352980
0.335537
0.320372
0.307956
0.298569
0.292349
0.289307
0.187693
0.191566
0.199918
0.212832
0.230263
0.252014
0.277607
0.306120
0.336040
0.365237
0.391184
0.411469
0.424417
0.429467
0.427200
0.418687
0.405519
0.389429
0.372031
0.354693
0.338486
0.324204
0.312405
0.303468
0.297632
0.294974
0.191373
0.194378
0.202501
0.215304
0.232577
0.254025
0.279085
0.306776
0.335592
0.363527
0.388290
0.407740
0.420375
0.425634
0.423909
0.416185
0.403897
0.388651
0.371986
0.355236
0.339475
0.325518
0.313957
0.305224
0.299696
0.297950
