# vtk DataFile Version 3.0
Vector Field
ASCII
DATASET RECTILINEAR_GRID
DIMENSIONS 26 100 1
X_COORDINATES 26 double
0.050000 0.150000 0.250000 0.350000 0.450000 0.550000 0.650000 0.750000 0.850000 0.950000 1.050000 1.150000 1.250000 1.350000 1.450000 1.550000 1.650000 1.750000 1.850000 1.950000 2.050000 2.150000 2.250000 2.350000 2.450000 2.550000 
Y_COORDINATES 100 double
0.050000 0.150000 0.250000 0.350000 0.450000 0.550000 0.650000 0.750000 0.850000 0.950000 1.050000 1.150000 1.250000 1.350000 1.450000 1.550000 1.650000 1.750000 1.850000 1.950000 2.050000 2.150000 2.250000 2.350000 2.450000 2.550000 2.650000 2.750000 2.850000 2.950000 3.050000 3.150000 3.250000 3.350000 3.450000 3.550000 3.650000 3.750000 3.850000 3.950000 4.050000 4.150000 4.250000 4.350000 4.450000 4.550000 4.650000 4.750000 4.850000 4.950000 5.050000 5.150000 5.250000 5.350000 5.450000 5.550000 5.650000 5.750000 5.850000 5.950000 6.050000 6.150000 6.250000 6.350000 6.450000 6.550000 6.650000 6.750000 6.850000 6.950000 7.050000 7.150000 7.250000 7.350000 7.450000 7.550000 7.650000 7.750000 7.850000 7.950000 8.050000 8.150000 8.250000 8.350000 8.450000 8.550000 8.650000 8.750000 8.850000 8.950000 9.050000 9.150000 9.250000 9.350000 9.450000 9.550000 9.650000 9.750000 9.850000 9.950000 
Z_COORDINATES 1 double
0.0
POINT_DATA 2600
VECTORS Vektorfeld double
0.006777 -0.979320 0.0
0.019493 -1.119512 0.0
0.030316 -1.179760 0.0
0.038702 -1.199133 0.0
0.044293 -1.193205 0.0
0.047199 -1.171719 0.0
0.047753 -1.141518 0.0
0.046383 -1.107551 0.0
0.043545 -1.073341 0.0
0.039683 -1.041271 0.0
0.035210 -1.012778 0.0
0.030484 -0.988544 0.0
0.025802 -0.968683 0.0
0.021391 -0.952896 0.0
0.017418 -0.940625 0.0
0.013996 -0.931164 0.0
0.011188 -0.923761 0.0
0.009018 -0.917702 0.0
0.007474 -0.912407 0.0
0.006506 -0.907515 0.0
0.006022 -0.902965 0.0
0.005873 -0.899054 0.0
0.005833 -0.896366 0.0
0.005565 -0.895378 0.0
0.004566 -0.895184 0.0
0.001904 -0.848648 0.0
0.011809 -0.997906 0.0
0.032310 -1.134142 0.0
0.047054 -1.190698 0.0
0.056384 -1.205911 0.0
0.060511 -1.196145 0.0
0.060267 -1.171441 0.0
0.056621 -1.138704 0.0
0.050493 -1.102868 0.0
0.042720 -1.067413 0.0
0.034046 -1.034664 0.0
0.025120 -1.005986 0.0
0.016482 -0.981973 0.0
0.008561 -0.962651 0.0
0.001672 -0.947628 0.0
-0.003966 -0.936282 0.0
-0.008213 -0.927837 0.0
-0.010998 -0.921495 0.0
-0.012297 -0.916498 0.0
-0.012140 -0.912224 0.0
-0.010613 -0.908257 0.0
-0.007889 -0.904463 0.0
-0.004259 -0.901036 0.0
-0.000206 -0.898397 0.0
0.003466 -0.896749 0.0
0.005393 -0.894740 0.0
0.002853 -0.843891 0.0
0.015902 -1.025618 0.0
0.042102 -1.153131 0.0
0.058207 -1.202558 0.0
0.066028 -1.211203 0.0
0.067037 -1.195988 0.0
0.062757 -1.167074 0.0
0.054599 -1.131268 0.0
0.043804 -1.093380 0.0
0.031452 -1.056775 0.0
0.018487 -1.023664 0.0
0.005725 -0.995298 0.0
-0.006158 -0.972140 0.0
-0.016615 -0.954106 0.0
-0.025247 -0.940652 0.0
-0.031813 -0.931054 0.0
-0.036162 -0.924469 0.0
-0.038199 -0.920042 0.0
-0.037889 -0.916962 0.0
-0.035266 -0.914540 0.0
-0.030477 -0.912257 0.0
-0.023834 -0.909831 0.0
-0.015880 -0.907252 0.0
-0.007488 -0.904627 0.0
-0.000023 -0.901656 0.0
0.004460 -0.896244 0.0
0.002826 -0.838213 0.0
0.018099 -1.059619 0.0
0.047234 -1.174465 0.0
0.063223 -1.213318 0.0
0.068421 -1.213463 0.0
0.065435 -1.191751 0.0
0.056515 -1.158111 0.0
0.043512 -1.119069 0.0
0.027945 -1.079216 0.0
0.011107 -1.041750 0.0
-0.005899 -1.008719 0.0
-0.022056 -0.981322 0.0
-0.036509 -0.959781 0.0
-0.048715 -0.943801 0.0
-0.058337 -0.932703 0.0
-0.065118 -0.925657 0.0
-0.068867 -0.921768 0.0
-0.069449 -0.920122 0.0
-0.066810 -0.919831 0.0
-0.061014 -0.920090 0.0
-0.052306 -0.920204 0.0
-0.041183 -0.919650 0.0
-0.028487 -0.918084 0.0
-0.015506 -0.915169 0.0
-0.004094 -0.909990 0.0
0.003109 -0.899596 0.0
0.002635 -0.832752 0.0
0.018290 -1.096007 0.0
0.047195 -1.196117 0.0
0.061234 -1.221694 0.0
0.062720 -1.211770 0.0
0.055086 -1.182824 0.0
0.041190 -1.144223 0.0
0.023248 -1.102012 0.0
0.003006 -1.060464 0.0
-0.018016 -1.022642 0.0
-0.038338 -0.990498 0.0
-0.056839 -0.964885 0.0
-0.072871 -0.945734 0.0
-0.085977 -0.932535 0.0
-0.095803 -0.924521 0.0
-0.102057 -0.920802 0.0
-0.104503 -0.920427 0.0
-0.102980 -0.922404 0.0
-0.097439 -0.925730 0.0
-0.088002 -0.929424 0.0
-0.075036 -0.932544 0.0
-0.059236 -0.934232 0.0
-0.041727 -0.933708 0.0
-0.024154 -0.930098 0.0
-0.008772 -0.921854 0.0
0.001310 -0.905017 0.0
0.002285 -0.827833 0.0
0.016670 -1.130967 0.0
0.042301 -1.215692 0.0
0.052437 -1.226295 0.0
0.049115 -1.205332 0.0
0.036299 -1.168811 0.0
0.017251 -1.125292 0.0
-0.005585 -1.080166 0.0
-0.030042 -1.037611 0.0
-0.054107 -1.000408 0.0
-0.076432 -0.970086 0.0
-0.096232 -0.946998 0.0
-0.112942 -0.930878 0.0
-0.126125 -0.921103 0.0
-0.135408 -0.916844 0.0
-0.140473 -0.917161 0.0
-0.141062 -0.921033 0.0
-0.137017 -0.927366 0.0
-0.128325 -0.935001 0.0
-0.115184 -0.942731 0.0
-0.098074 -0.949313 0.0
-0.077844 -0.953493 0.0
-0.055809 -0.953991 0.0
-0.033858 -0.949338 0.0
-0.014537 -0.937317 0.0
-0.001318 -0.912855 0.0
0.001631 -0.823917 0.0
0.013639 -1.161277 0.0
0.033420 -1.230794 0.0
0.037774 -1.225683 0.0
0.028576 -1.193424 0.0
0.010101 -1.149429 0.0
-0.014177 -1.101348 0.0
-0.041174 -1.054277 0.0
-0.068314 -1.011902 0.0
-0.094014 -0.976351 0.0
-0.117291 -0.948540 0.0
-0.137471 -0.928565 0.0
-0.154045 -0.916027 0.0
-0.166591 -0.910226 0.0
-0.174741 -0.910287 0.0
-0.178179 -0.915215 0.0
-0.176668 -0.923902 0.0
-0.170083 -0.935127 0.0
-0.158464 -0.947551 0.0
-0.142062 -0.959723 0.0
-0.121414 -0.970079 0.0
-0.097419 -0.976953 0.0
-0.071448 -0.978536 0.0
-0.045477 -0.972715 0.0
-0.022231 -0.956507 0.0
-0.005501 -0.923615 0.0
0.000340 -0.821947 0.0
0.009629 -1.184545 0.0
0.021594 -1.239273 0.0
0.018553 -1.218518 0.0
0.002542 -1.175381 0.0
-0.021798 -1.124658 0.0
-0.050276 -1.073364 0.0
-0.079709 -1.025831 0.0
-0.108189 -0.984727 0.0
-0.134502 -0.951514 0.0
-0.157839 -0.926763 0.0
-0.177625 -0.910376 0.0
-0.193415 -0.901853 0.0
-0.204829 -0.900439 0.0
-0.211541 -0.905212 0.0
-0.213281 -0.915111 0.0
-0.209864 -0.928935 0.0
-0.201210 -0.945332 0.0
-0.187384 -0.962792 0.0
-0.168633 -0.979635 0.0
-0.145451 -0.993998 0.0
-0.118664 -1.003816 0.0
-0.089555 -1.006752 0.0
-0.060030 -0.999995 0.0
-0.032854 -0.979650 0.0
-0.012170 -0.937887 0.0
-0.002039 -0.823646 0.0
0.005015 -1.199189 0.0
0.007801 -1.239378 0.0
-0.003838 -1.203732 0.0
-0.026870 -1.151123 0.0
-0.055839 -1.095607 0.0
-0.086811 -1.042965 0.0
-0.117459 -0.996149 0.0
-0.146312 -0.957075 0.0
-0.172409 -0.926757 0.0
-0.195103 -0.905490 0.0
-0.213934 -0.893030 0.0
-0.228546 -0.888796 0.0
-0.238645 -0.891982 0.0
-0.243990 -0.901614 0.0
-0.244387 -0.916572 0.0
-0.239703 -0.935575 0.0
-0.229873 -0.957175 0.0
-0.214923 -0.979725 0.0
-0.195015 -1.001361 0.0
-0.170508 -1.019961 0.0
-0.142056 -1.033093 0.0
-0.110738 -1.037902 0.0
-0.078262 -1.030846 0.0
-0.047278 -1.006959 0.0
-0.022035 -0.956505 0.0
-0.005754 -0.831439 0.0
0.000087 -1.204291 0.0
-0.007100 -1.229874 0.0
-0.027403 -1.181296 0.0
-0.056034 -1.121896 0.0
-0.087969 -1.063931 0.0
-0.120289 -1.011348 0.0
-0.151243 -0.966163 0.0
-0.179712 -0.929739 0.0
-0.204968 -0.902740 0.0
-0.226539 -0.885242 0.0
-0.244108 -0.876878 0.0
-0.257452 -0.876993 0.0
-0.266401 -0.884736 0.0
-0.270816 -0.899100 0.0
-0.270574 -0.918931 0.0
-0.265552 -0.942922 0.0
-0.255635 -0.969575 0.0
-0.240746 -0.997163 0.0
-0.220898 -1.023679 0.0
-0.196265 -1.046782 0.0
-0.167280 -1.063710 0.0
-0.134760 -1.071122 0.0
-0.100107 -1.064755 0.0
-0.065655 -1.038486 0.0
-0.035225 -0.980651 0.0
-0.010803 -0.847995 0.0
-0.004952 -1.199426 0.0
-0.021773 -1.210730 0.0
-0.049214 -1.152696 0.0
-0.081637 -1.089441 0.0
-0.115282 -1.030805 0.0
-0.148022 -0.979415 0.0
-0.178555 -0.936608 0.0
-0.206063 -0.903316 0.0
-0.230052 -0.879918 0.0
-0.250246 -0.866301 0.0
-0.266505 -0.861990 0.0
-0.278768 -0.866274 0.0
-0.287000 -0.878276 0.0
-0.291146 -0.896998 0.0
-0.291099 -0.921322 0.0
-0.286682 -0.949970 0.0
-0.277674 -0.981452 0.0
-0.263854 -1.013994 0.0
-0.245078 -1.045474 0.0
-0.221342 -1.073356 0.0
-0.192864 -1.094599 0.0
-0.160171 -1.105446 0.0
-0.124267 -1.100988 0.0
-0.086919 -1.074052 0.0
-0.050912 -1.011523 0.0
-0.016830 -0.875628 0.0
-0.009697 -1.184777 0.0
-0.034596 -1.183660 0.0
-0.066954 -1.119967 0.0
-0.101568 -1.055133 0.0
-0.135827 -0.997209 0.0
-0.168185 -0.947914 0.0
-0.197696 -0.908066 0.0
-0.223812 -0.878234 0.0
-0.246275 -0.858547 0.0
-0.265023 -0.848730 0.0
-0.280111 -0.848214 0.0
-0.291638 -0.856260 0.0
-0.299672 -0.872024 0.0
-0.304186 -0.894590 0.0
-0.305021 -0.922942 0.0
-0.301897 -0.955890 0.0
-0.294461 -0.991976 0.0
-0.282367 -1.029383 0.0
-0.265351 -1.065877 0.0
-0.243281 -1.098758 0.0
-0.216187 -1.124769 0.0
-0.184299 -1.139857 0.0
-0.148133 -1.138647 0.0
-0.108648 -1.113226 0.0
-0.067195 -1.049808 0.0
-0.023081 -0.915540 0.0
-0.013582 -1.161498 0.0
-0.044354 -1.151268 0.0
-0.079404 -1.084952 0.0
-0.114725 -1.020213 0.0
-0.148568 -0.964027 0.0
-0.179807 -0.917499 0.0
-0.207772 -0.881006 0.0
-0.232161 -0.854789 0.0
-0.252943 -0.838747 0.0
-0.270269 -0.832457 0.0
-0.284373 -0.835295 0.0
-0.295475 -0.846550 0.0
-0.303687 -0.865489 0.0
-0.308943 -0.891356 0.0
-0.310988 -0.923295 0.0
-0.309427 -0.960223 0.0
-0.303805 -1.000702 0.0
-0.293705 -1.042852 0.0
-0.278808 -1.084321 0.0
-0.258911 -1.122282 0.0
-0.233891 -1.153358 0.0
-0.203674 -1.173374 0.0
-0.168217 -1.176753 0.0
-0.127532 -1.155290 0.0
-0.081499 -1.095230 0.0
-0.028555 -0.967175 0.0
-0.016256 -1.131660 0.0
-0.050503 -1.116087 0.0
-0.086225 -1.049361 0.0
-0.120836 -0.985872 0.0
-0.153249 -0.932111 0.0
-0.182649 -0.888775 0.0
-0.208577 -0.855837 0.0
-0.230934 -0.833213 0.0
-0.249893 -0.820582 0.0
-0.265784 -0.817405 0.0
-0.278973 -0.823053 0.0
-0.289741 -0.836921 0.0
-0.298183 -0.858465 0.0
-0.304156 -0.887150 0.0
-0.307311 -0.922300 0.0
-0.307169 -0.962921 0.0
-0.303235 -1.007560 0.0
-0.295088 -1.054241 0.0
-0.282420 -1.100497 0.0
-0.264999 -1.143424 0.0
-0.242581 -1.179653 0.0
-0.214787 -1.205091 0.0
-0.181006 -1.214274 0.0
-0.140322 -1.199138 0.0
-0.091392 -1.146345 0.0
-0.032333 -1.028063 0.0
-0.017662 -1.097742 0.0
-0.053098 -1.080322 0.0
-0.087705 -1.014796 0.0
-0.120240 -0.953292 0.0
-0.150204 -0.902314 0.0
-0.177034 -0.862343 0.0
-0.200417 -0.832958 0.0
-0.220403 -0.813749 0.0
-0.237312 -0.804179 0.0
-0.251595 -0.803633 0.0
-0.263691 -0.811539 0.0
-0.273885 -0.827471 0.0
-0.282226 -0.851133 0.0
-0.288503 -0.882232 0.0
-0.292309 -0.920257 0.0
-0.293148 -0.964266 0.0
-0.290551 -1.012746 0.0
-0.284152 -1.063602 0.0
-0.273692 -1.114264 0.0
-0.258947 -1.161823 0.0
-0.239576 -1.203044 0.0
-0.214932 -1.234137 0.0
-0.183896 -1.250045 0.0
-0.144772 -1.243176 0.0
-0.095350 -1.200659 0.0
-0.033880 -1.094277 0.0
-0.017945 -1.062135 0.0
-0.052606 -1.045832 0.0
-0.084548 -0.982737 0.0
-0.113715 -0.923648 0.0
-0.140197 -0.875512 0.0
-0.163685 -0.838826 0.0
-0.183960 -0.812816 0.0
-0.201138 -0.796726 0.0
-0.215612 -0.789819 0.0
-0.227888 -0.791434 0.0
-0.238420 -0.801111 0.0
-0.247474 -0.818650 0.0
-0.255063 -0.844025 0.0
-0.260954 -0.877173 0.0
-0.264750 -0.917714 0.0
-0.266008 -0.964713 0.0
-0.264336 -1.016567 0.0
-0.259459 -1.071058 0.0
-0.251190 -1.125536 0.0
-0.239328 -1.177158 0.0
-0.223472 -1.222937 0.0
-0.202776 -1.259584 0.0
-0.175731 -1.282680 0.0
-0.140074 -1.285321 0.0
-0.093012 -1.254999 0.0
-0.033131 -1.161288 0.0
-0.017353 -1.026837 0.0
-0.049716 -1.014105 0.0
-0.077734 -0.954504 0.0
-0.102350 -0.898099 0.0
-0.124308 -0.852622 0.0
-0.143623 -0.818913 0.0
-0.160134 -0.795945 0.0
-0.173939 -0.782615 0.0
-0.185418 -0.777978 0.0
-0.195066 -0.781350 0.0
-0.203324 -0.792406 0.0
-0.210446 -0.811179 0.0
-0.216452 -0.837901 0.0
-0.221154 -0.872704 0.0
-0.224241 -0.915300 0.0
-0.225379 -0.964732 0.0
-0.224294 -1.019303 0.0
-0.220812 -1.076681 0.0
-0.214819 -1.134174 0.0
-0.206139 -1.189062 0.0
-0.194345 -1.238683 0.0
-0.178484 -1.280395 0.0
-0.156810 -1.310587 0.0
-0.126694 -1.323187 0.0
-0.084931 -1.305959 0.0
-0.030361 -1.224779 0.0
-0.016168 -0.993316 0.0
-0.045212 -0.986219 0.0
-0.068413 -0.931171 0.0
-0.087485 -0.877743 0.0
-0.103898 -0.834608 0.0
-0.118137 -0.803372 0.0
-0.130124 -0.782988 0.0
-0.139864 -0.772025 0.0
-0.147645 -0.769308 0.0
-0.153905 -0.774113 0.0
-0.159057 -0.786234 0.0
-0.163374 -0.805912 0.0
-0.166943 -0.833592 0.0
-0.169692 -0.869561 0.0
-0.171457 -0.913590 0.0
-0.172064 -0.964698 0.0
-0.171379 -1.021108 0.0
-0.169325 -1.080413 0.0
-0.165838 -1.139922 0.0
-0.160749 -1.197084 0.0
-0.153627 -1.249577 0.0
-0.143497 -1.295494 0.0
-0.128530 -1.332128 0.0
-0.105919 -1.354372 0.0
-0.072135 -1.350320 0.0
-0.025992 -1.281132 0.0
-0.014663 -0.962485 0.0
-0.039877 -0.962792 0.0
-0.057809 -0.913466 0.0
-0.070657 -0.863528 0.0
-0.080613 -0.822456 0.0
-0.088832 -0.793066 0.0
-0.095435 -0.774704 0.0
-0.100319 -0.765684 0.0
-0.103626 -0.764561 0.0
-0.105704 -0.770522 0.0
-0.106943 -0.783432 0.0
-0.107661 -0.803678 0.0
-0.108060 -0.831859 0.0
-0.108239 -0.868368 0.0
-0.108237 -0.913020 0.0
-0.108074 -0.964824 0.0
-0.107768 -1.021972 0.0
-0.107327 -1.082044 0.0
-0.106696 -1.142409 0.0
-0.105669 -1.200712 0.0
-0.103806 -1.254933 0.0
-0.100168 -1.303907 0.0
-0.092989 -1.345860 0.0
-0.079455 -1.376786 0.0
-0.055799 -1.385346 0.0
-0.020462 -1.327586 0.0
-0.013068 -0.934754 0.0
-0.034398 -0.943978 0.0
-0.047092 -0.901654 0.0
-0.053492 -0.856092 0.0
-0.056359 -0.817068 0.0
-0.057680 -0.788913 0.0
-0.057988 -0.771945 0.0
-0.057159 -0.764389 0.0
-0.055208 -0.764501 0.0
-0.052387 -0.771324 0.0
-0.049058 -0.784720 0.0
-0.045592 -0.805139 0.0
-0.042327 -0.833264 0.0
-0.039560 -0.869550 0.0
-0.037561 -0.913838 0.0
-0.036569 -0.965162 0.0
-0.036757 -1.021752 0.0
-0.038193 -1.081268 0.0
-0.040785 -1.141224 0.0
-0.044249 -1.199461 0.0
-0.048087 -1.254210 0.0
-0.051422 -1.304933 0.0
-0.052671 -1.350763 0.0
-0.049188 -1.388900 0.0
-0.037103 -1.408972 0.0
-0.014177 -1.362225 0.0
-0.011547 -0.910139 0.0
-0.029273 -0.929536 0.0
-0.037183 -0.895492 0.0
-0.037473 -0.855563 0.0
-0.033146 -0.819056 0.0
-0.026974 -0.791776 0.0
-0.020134 -0.775615 0.0
-0.012722 -0.768961 0.0
-0.004769 -0.769833 0.0
0.003521 -0.777104 0.0
0.011829 -0.790576 0.0
0.019753 -0.810673 0.0
0.026839 -0.838080 0.0
0.032596 -0.873259 0.0
0.036538 -0.916068 0.0
0.038225 -0.965612 0.0
0.037353 -1.020242 0.0
0.033824 -1.077811 0.0
0.027786 -1.136051 0.0
0.019622 -1.193006 0.0
0.009935 -1.247140 0.0
-0.000460 -1.298273 0.0
-0.010228 -1.346405 0.0
-0.017043 -1.389927 0.0
-0.017182 -1.419891 0.0
-0.007506 -1.383908 0.0
-0.010181 -0.888411 0.0
-0.024736 -0.918983 0.0
-0.028562 -0.894311 0.0
-0.023588 -0.861428 0.0
-0.012656 -0.828450 0.0
0.001043 -0.802253 0.0
0.015624 -0.786559 0.0
0.030373 -0.780178 0.0
0.044938 -0.781133 0.0
0.059064 -0.788221 0.0
0.072456 -0.801158 0.0
0.084722 -0.820281 0.0
0.095351 -0.846188 0.0
0.103733 -0.879291 0.0
0.109228 -0.919473 0.0
0.111280 -0.965947 0.0
0.109513 -1.017269 0.0
0.103825 -1.071567 0.0
0.094412 -1.126845 0.0
0.081739 -1.181375 0.0
0.066494 -1.233839 0.0
0.049474 -1.284159 0.0
0.031728 -1.333006 0.0
0.015110 -1.379892 0.0
0.002922 -1.417600 0.0
-0.000770 -1.392184 0.0
-0.008957 -0.869274 0.0
-0.020729 -0.911793 0.0
-0.021157 -0.897248 0.0
-0.012004 -0.872619 0.0
0.004353 -0.844548 0.0
0.024910 -0.820410 0.0
0.047139 -0.805213 0.0
0.069361 -0.798494 0.0
0.090684 -0.798704 0.0
0.110665 -0.804758 0.0
0.128976 -0.816324 0.0
0.145226 -0.833630 0.0
0.158896 -0.857138 0.0
0.169349 -0.887175 0.0
0.175913 -0.923648 0.0
0.177994 -0.965905 0.0
0.175202 -1.012751 0.0
0.167435 -1.062629 0.0
0.154915 -1.113850 0.0
0.138140 -1.164922 0.0
0.117836 -1.214743 0.0
0.094850 -1.263249 0.0
0.070151 -1.311472 0.0
0.045146 -1.359802 0.0
0.022214 -1.402570 0.0
0.005823 -1.387131 0.0
-0.007781 -0.852536 0.0
-0.016942 -0.907597 0.0
-0.014415 -0.903542 0.0
-0.002056 -0.887836 0.0
0.018327 -0.866071 0.0
0.044285 -0.845402 0.0
0.072937 -0.831102 0.0
0.101807 -0.823696 0.0
0.129385 -0.822403 0.0
0.154838 -0.826494 0.0
0.177655 -0.835716 0.0
0.197394 -0.850228 0.0
0.213553 -0.870370 0.0
0.225544 -0.896388 0.0
0.232750 -0.928205 0.0
0.234627 -0.965307 0.0
0.230817 -1.006747 0.0
0.221226 -1.051276 0.0
0.206063 -1.097520 0.0
0.185817 -1.144230 0.0
0.161213 -1.190526 0.0
0.133134 -1.236401 0.0
0.102569 -1.283056 0.0
0.070707 -1.331351 0.0
0.039222 -1.376604 0.0
0.011913 -1.369395 0.0
-0.006490 -0.838265 0.0
-0.012896 -0.906301 0.0
-0.007507 -0.912755 0.0
0.007499 -0.905988 0.0
0.030656 -0.891459 0.0
0.060126 -0.875444 0.0
0.093139 -0.862726 0.0
0.126895 -0.854699 0.0
0.159362 -0.851445 0.0
0.189248 -0.852790 0.0
0.215742 -0.858730 0.0
0.238266 -0.869477 0.0
0.256308 -0.885323 0.0
0.269350 -0.906468 0.0
0.276875 -0.932856 0.0
0.278436 -0.964094 0.0
0.273736 -0.999449 0.0
0.262697 -1.037944 0.0
0.245503 -1.078496 0.0
0.222603 -1.120109 0.0
0.194692 -1.162132 0.0
0.162672 -1.204696 0.0
0.127583 -1.249106 0.0
0.090534 -1.296390 0.0
0.052752 -1.342298 0.0
0.016921 -1.340562 0.0
-0.004868 -0.826907 0.0
-0.008012 -0.908109 0.0
0.000482 -0.924831 0.0
0.018013 -0.926448 0.0
0.043106 -0.919249 0.0
0.074405 -0.908422 0.0
0.109559 -0.897915 0.0
0.145882 -0.889588 0.0
0.181126 -0.884266 0.0
0.213667 -0.882395 0.0
0.242409 -0.884361 0.0
0.266604 -0.890566 0.0
0.285695 -0.901366 0.0
0.299205 -0.916977 0.0
0.306716 -0.937383 0.0
0.307874 -0.962287 0.0
0.302449 -0.991130 0.0
0.290382 -1.023156 0.0
0.271826 -1.057534 0.0
0.247180 -1.093525 0.0
0.217101 -1.130726 0.0
0.182502 -1.169483 0.0
0.144478 -1.211206 0.0
0.104107 -1.256869 0.0
0.062268 -1.302196 0.0
0.020538 -1.303102 0.0
-0.002661 -0.819379 0.0
-0.001700 -0.913454 0.0
0.010259 -0.939939 0.0
0.030422 -0.949032 0.0
0.057140 -0.948477 0.0
0.089231 -0.942584 0.0
0.124776 -0.934452 0.0
0.161450 -0.926048 0.0
0.197105 -0.918706 0.0
0.230047 -0.913438 0.0
0.259060 -0.911073 0.0
0.283306 -0.912295 0.0
0.302196 -0.917617 0.0
0.315290 -0.927331 0.0
0.322236 -0.941484 0.0
0.322755 -0.959863 0.0
0.316662 -0.982036 0.0
0.303902 -1.007422 0.0
0.284595 -1.035406 0.0
0.259090 -1.065502 0.0
0.228014 -1.097593 0.0
0.192297 -1.132301 0.0
0.153083 -1.171151 0.0
0.111387 -1.214857 0.0
0.067740 -1.258722 0.0
0.022728 -1.259836 0.0
0.000376 -0.817094 0.0
0.006441 -0.922764 0.0
0.022093 -0.958240 0.0
0.045038 -0.973839 0.0
0.073409 -0.978760 0.0
0.105888 -0.976870 0.0
0.140805 -0.970630 0.0
0.176206 -0.961945 0.0
0.210229 -0.952486 0.0
0.241355 -0.943727 0.0
0.268475 -0.936917 0.0
0.290826 -0.933048 0.0
0.307894 -0.932822 0.0
0.319315 -0.936642 0.0
0.324813 -0.944617 0.0
0.324166 -0.956602 0.0
0.317216 -0.972254 0.0
0.303892 -0.991121 0.0
0.284277 -1.012784 0.0
0.258675 -1.037018 0.0
0.227708 -1.064034 0.0
0.192340 -1.094775 0.0
0.153726 -1.130849 0.0
0.112731 -1.172469 0.0
0.069457 -1.214189 0.0
0.023604 -1.213504 0.0
0.004241 -0.821711 0.0
0.016297 -0.936268 0.0
0.035775 -0.979866 0.0
0.061601 -1.000984 0.0
0.091658 -1.010044 0.0
0.124415 -1.010821 0.0
0.158234 -1.005416 0.0
0.191393 -0.995719 0.0
0.222344 -0.983686 0.0
0.249888 -0.971197 0.0
0.273205 -0.959883 0.0
0.291785 -0.951014 0.0
0.305327 -0.945466 0.0
0.313637 -0.943729 0.0
0.316564 -0.945954 0.0
0.313966 -0.952020 0.0
0.305710 -0.961629 0.0
0.291712 -0.974425 0.0
0.272017 -0.990169 0.0
0.246917 -1.008933 0.0
0.217063 -1.031298 0.0
0.183461 -1.058541 0.0
0.147207 -1.092215 0.0
0.108845 -1.131745 0.0
0.067932 -1.170727 0.0
0.023359 -1.166540 0.0
0.008440 -0.834392 0.0
0.027144 -0.954347 0.0
0.050736 -1.004857 0.0
0.079323 -1.030407 0.0
0.110921 -1.042278 0.0
0.143808 -1.044230 0.0
0.176225 -1.038243 0.0
0.206542 -1.026367 0.0
0.233483 -1.010929 0.0
0.256218 -0.994233 0.0
0.274319 -0.978266 0.0
0.287649 -0.964542 0.0
0.296230 -0.954061 0.0
0.300133 -0.947347 0.0
0.299401 -0.944532 0.0
0.294015 -0.945459 0.0
0.283900 -0.949820 0.0
0.268980 -0.957316 0.0
0.249302 -0.967904 0.0
0.225203 -0.981999 0.0
0.197414 -1.000588 0.0
0.166965 -1.025201 0.0
0.134737 -1.057073 0.0
0.100727 -1.094517 0.0
0.063831 -1.130146 0.0
0.022232 -1.120948 0.0
0.012533 -0.855365 0.0
0.038024 -0.977569 0.0
0.065903 -1.033105 0.0
0.097017 -1.061860 0.0
0.129828 -1.075233 0.0
0.162484 -1.076817 0.0
0.193060 -1.068650 0.0
0.219959 -1.053178 0.0
0.242162 -1.033262 0.0
0.259225 -1.011698 0.0
0.271158 -0.990835 0.0
0.278249 -0.972394 0.0
0.280900 -0.957441 0.0
0.279498 -0.946467 0.0
0.274327 -0.939509 0.0
0.265535 -0.936304 0.0
0.253145 -0.936471 0.0
0.237139 -0.939738 0.0
0.217636 -0.946301 0.0
0.195113 -0.956981 0.0
0.170430 -0.973134 0.0
0.144542 -0.996318 0.0
0.117856 -1.027040 0.0
0.089576 -1.062260 0.0
0.057904 -1.093836 0.0
0.020480 -1.078236 0.0
0.016170 -0.884068 0.0
0.047957 -1.006144 0.0
0.079970 -1.064421 0.0
0.113290 -1.094979 0.0
0.146838 -1.108472 0.0
0.178664 -1.108060 0.0
0.206695 -1.096014 0.0
0.229419 -1.075437 0.0
0.246118 -1.049904 0.0
0.256782 -1.022782 0.0
0.261884 -0.996786 0.0
0.262152 -0.973802 0.0
0.258373 -0.954905 0.0
0.251253 -0.940480 0.0
0.241326 -0.930398 0.0
0.228924 -0.924220 0.0
0.214205 -0.921446 0.0
0.197268 -0.921820 0.0
0.178415 -0.925863 0.0
0.158362 -0.934842 0.0
0.138073 -0.950300 0.0
0.118189 -0.973380 0.0
0.098297 -1.003399 0.0
0.076648 -1.035972 0.0
0.050891 -1.062696 0.0
0.018348 -1.039408 0.0
0.019102 -0.919340 0.0
0.056132 -1.039690 0.0
0.091707 -1.098463 0.0
0.126743 -1.129294 0.0
0.160388 -1.141350 0.0
0.190542 -1.137161 0.0
0.215055 -1.119457 0.0
0.232613 -1.092276 0.0
0.242919 -1.060070 0.0
0.246466 -1.026827 0.0
0.244226 -0.995603 0.0
0.237368 -0.968394 0.0
0.227043 -0.946209 0.0
0.214245 -0.929258 0.0
0.199735 -0.917183 0.0
0.184025 -0.909323 0.0
0.167437 -0.905037 0.0
0.150266 -0.904121 0.0
0.133102 -0.907545 0.0
0.116937 -0.916941 0.0
0.102630 -0.933605 0.0
0.090090 -0.957652 0.0
0.077774 -0.986919 0.0
0.063073 -1.016101 0.0
0.043416 -1.037154 0.0
0.016035 -1.005025 0.0
0.021186 -0.959628 0.0
0.062009 -1.077254 0.0
0.100153 -1.134618 0.0
0.136122 -1.164144 0.0
0.168971 -1.172994 0.0
0.196346 -1.163048 0.0
0.216113 -1.137849 0.0
0.227329 -1.102659 0.0
0.230259 -1.062924 0.0
0.225989 -1.023250 0.0
0.216024 -0.986974 0.0
0.201968 -0.956109 0.0
0.185307 -0.931509 0.0
0.167283 -0.913136 0.0
0.148844 -0.900356 0.0
0.130678 -0.892272 0.0
0.113314 -0.888135 0.0
0.097325 -0.887863 0.0
0.083642 -0.892958 0.0
0.073339 -0.905061 0.0
0.066674 -0.924512 0.0
0.062350 -0.949881 0.0
0.057685 -0.977710 0.0
0.049654 -1.002577 0.0
0.035889 -1.017258 0.0
0.013669 -0.975320 0.0
0.022357 -1.003172 0.0
0.065280 -1.117455 0.0
0.104631 -1.171913 0.0
0.140383 -1.198569 0.0
0.171190 -1.202223 0.0
0.194368 -1.184371 0.0
0.207934 -1.149859 0.0
0.211518 -1.105450 0.0
0.206093 -1.057639 0.0
0.193415 -1.011586 0.0
0.175542 -0.970799 0.0
0.154500 -0.937187 0.0
0.132074 -0.911345 0.0
0.109711 -0.892914 0.0
0.088527 -0.880957 0.0
0.069397 -0.874375 0.0
0.053112 -0.872383 0.0
0.040572 -0.875085 0.0
0.032873 -0.884355 0.0
0.030585 -0.901073 0.0
0.032684 -0.923934 0.0
0.036523 -0.949975 0.0
0.038794 -0.975222 0.0
0.036731 -0.994970 0.0
0.028457 -1.002826 0.0
0.011288 -0.950363 0.0
0.022580 -1.048109 0.0
0.065757 -1.158616 0.0
0.104658 -1.209004 0.0
0.138653 -1.231224 0.0
0.165778 -1.227501 0.0
0.183019 -1.199511 0.0
0.188751 -1.154017 0.0
0.183394 -1.099518 0.0
0.168764 -1.043516 0.0
0.147333 -0.991598 0.0
0.121711 -0.947292 0.0
0.094316 -0.912257 0.0
0.067188 -0.886720 0.0
0.041960 -0.869947 0.0
0.019910 -0.860691 0.0
0.002120 -0.857721 0.0
-0.010358 -0.860273 0.0
-0.016473 -0.868540 0.0
-0.015567 -0.884107 0.0
-0.008445 -0.906154 0.0
0.002258 -0.931656 0.0
0.013110 -0.956942 0.0
0.021087 -0.978503 0.0
0.024194 -0.992734 0.0
0.021016 -0.993610 0.0
0.008841 -0.930234 0.0
0.021823 -1.092513 0.0
0.063296 -1.198862 0.0
0.099848 -1.244211 0.0
0.130192 -1.260357 0.0
0.151621 -1.246923 0.0
0.160917 -1.206625 0.0
0.157099 -1.148818 0.0
0.141609 -1.083871 0.0
0.117210 -1.020135 0.0
0.087103 -0.963442 0.0
0.054436 -0.917159 0.0
0.021970 -0.882529 0.0
-0.008041 -0.859309 0.0
-0.033788 -0.846384 0.0
-0.053825 -0.842168 0.0
-0.066999 -0.845281 0.0
-0.072345 -0.854890 0.0
-0.069288 -0.870867 0.0
-0.058467 -0.893507 0.0
-0.042390 -0.919952 0.0
-0.024670 -0.946282 0.0
-0.008526 -0.969311 0.0
0.003964 -0.986601 0.0
0.011641 -0.995420 0.0
0.013291 -0.989397 0.0
0.006206 -0.915188 0.0
0.020058 -1.134394 0.0
0.057779 -1.236175 0.0
0.089894 -1.275566 0.0
0.114397 -1.283849 0.0
0.127823 -1.258286 0.0
0.127020 -1.203756 0.0
0.112014 -1.132863 0.0
0.085502 -1.057824 0.0
0.051279 -0.987560 0.0
0.013263 -0.927893 0.0
-0.024914 -0.881863 0.0
-0.060000 -0.850274 0.0
-0.089575 -0.831978 0.0
-0.112160 -0.825383 0.0
-0.126626 -0.828664 0.0
-0.132025 -0.840211 0.0
-0.127889 -0.858750 0.0
-0.114790 -0.883163 0.0
-0.094985 -0.911837 0.0
-0.072075 -0.940608 0.0
-0.049509 -0.965913 0.0
-0.029543 -0.985790 0.0
-0.013289 -0.998866 0.0
-0.001372 -1.002748 0.0
0.004936 -0.990025 0.0
0.003222 -0.905760 0.0
0.017278 -1.171731 0.0
0.049153 -1.268434 0.0
0.074614 -1.300882 0.0
0.090883 -1.299305 0.0
0.093846 -1.259218 0.0
0.080840 -1.189014 0.0
0.053331 -1.105089 0.0
0.015485 -1.021240 0.0
-0.027789 -0.946647 0.0
-0.071350 -0.887228 0.0
-0.110968 -0.844734 0.0
-0.144277 -0.819008 0.0
-0.169781 -0.808165 0.0
-0.186187 -0.810204 0.0
-0.192521 -0.823042 0.0
-0.188413 -0.844543 0.0
-0.174515 -0.872452 0.0
-0.152838 -0.904236 0.0
-0.126675 -0.936731 0.0
-0.099533 -0.965766 0.0
-0.073860 -0.988995 0.0
-0.050881 -1.005654 0.0
-0.031132 -1.015006 0.0
-0.015133 -1.014523 0.0
-0.004334 -0.995358 0.0
-0.000254 -0.902793 0.0
0.013519 -1.202528 0.0
0.037490 -1.293483 0.0
0.054041 -1.317844 0.0
0.059621 -1.304193 0.0
0.049718 -1.247390 0.0
0.022744 -1.160863 0.0
-0.017907 -1.065080 0.0
-0.065611 -0.975699 0.0
-0.113502 -0.901024 0.0
-0.157198 -0.845595 0.0
-0.194267 -0.809681 0.0
-0.222966 -0.792053 0.0
-0.241939 -0.790643 0.0
-0.250183 -0.803075 0.0
-0.247398 -0.826621 0.0
-0.234313 -0.858158 0.0
-0.212810 -0.894239 0.0
-0.185712 -0.931225 0.0
-0.156180 -0.965437 0.0
-0.126733 -0.993649 0.0
-0.098769 -1.014747 0.0
-0.072953 -1.028697 0.0
-0.049703 -1.034962 0.0
-0.029673 -1.030596 0.0
-0.014461 -1.005297 0.0
-0.004174 -0.907221 0.0
0.008878 -1.224925 0.0
0.023040 -1.309219 0.0
0.028523 -1.324142 0.0
0.021098 -1.296050 0.0
-0.003715 -1.220816 0.0
-0.045090 -1.119089 0.0
-0.095496 -1.015797 0.0
-0.146891 -0.925882 0.0
-0.194410 -0.855430 0.0
-0.235205 -0.806699 0.0
-0.267401 -0.779311 0.0
-0.289567 -0.771558 0.0
-0.300736 -0.780996 0.0
-0.300687 -0.804528 0.0
-0.290203 -0.838437 0.0
-0.271044 -0.878586 0.0
-0.245599 -0.920760 0.0
-0.216388 -0.961012 0.0
-0.185579 -0.995991 0.0
-0.154632 -1.023489 0.0
-0.124433 -1.043070 0.0
-0.095641 -1.054983 0.0
-0.068850 -1.058716 0.0
-0.044834 -1.050888 0.0
-0.024949 -1.020101 0.0
-0.008130 -0.919524 0.0
0.003516 -1.237319 0.0
0.006261 -1.313732 0.0
-0.001199 -1.317652 0.0
-0.023407 -1.272906 0.0
-0.062504 -1.180050 0.0
-0.113188 -1.067795 0.0
-0.167050 -0.962822 0.0
-0.218001 -0.876512 0.0
-0.262542 -0.812740 0.0
-0.298533 -0.772603 0.0
-0.324518 -0.755226 0.0
-0.339594 -0.758402 0.0
-0.343640 -0.778937 0.0
-0.337501 -0.812774 0.0
-0.322834 -0.855341 0.0
-0.301635 -0.902039 0.0
-0.275756 -0.948631 0.0
-0.246665 -0.991444 0.0
-0.215460 -1.027573 0.0
-0.183051 -1.055263 0.0
-0.150383 -1.074163 0.0
-0.118451 -1.084614 0.0
-0.088113 -1.086214 0.0
-0.060124 -1.075394 0.0
-0.035275 -1.040330 0.0
-0.011868 -0.939521 0.0
-0.002360 -1.238476 0.0
-0.012187 -1.305493 0.0
-0.033490 -1.297128 0.0
-0.068852 -1.235860 0.0
-0.116935 -1.129916 0.0
-0.171065 -1.013114 0.0
-0.224364 -0.910342 0.0
-0.272313 -0.830092 0.0
-0.312257 -0.774674 0.0
-0.342570 -0.744365 0.0
-0.362374 -0.737675 0.0
-0.371632 -0.751618 0.0
-0.371255 -0.782053 0.0
-0.362852 -0.824200 0.0
-0.348144 -0.873289 0.0
-0.328426 -0.925008 0.0
-0.304411 -0.975556 0.0
-0.276480 -1.021541 0.0
-0.245089 -1.060071 0.0
-0.211092 -1.089171 0.0
-0.175803 -1.108212 0.0
-0.140671 -1.117630 0.0
-0.106813 -1.117394 0.0
-0.074860 -1.104155 0.0
-0.044957 -1.066323 0.0
-0.015251 -0.966640 0.0
-0.008519 -1.227597 0.0
-0.030901 -1.284163 0.0
-0.064157 -1.263899 0.0
-0.108112 -1.189772 0.0
-0.159512 -1.076523 0.0
-0.212622 -0.959268 0.0
-0.262551 -0.860961 0.0
-0.305912 -0.788163 0.0
-0.340606 -0.741966 0.0
-0.365566 -0.721799 0.0
-0.380710 -0.725293 0.0
-0.386947 -0.748504 0.0
-0.385880 -0.786611 0.0
-0.379128 -0.834798 0.0
-0.367669 -0.888858 0.0
-0.351643 -0.945184 0.0
-0.330669 -1.000369 0.0
-0.304405 -1.050923 0.0
-0.273041 -1.093443 0.0
-0.237575 -1.125260 0.0
-0.199737 -1.145250 0.0
-0.161461 -1.154000 0.0
-0.124161 -1.152181 0.0
-0.088338 -1.137145 0.0
-0.053593 -1.097981 0.0
-0.018194 -1.000086 0.0
-0.014337 -1.204741 0.0
-0.047512 -1.251462 0.0
-0.088954 -1.221903 0.0
-0.136452 -1.140315 0.0
-0.186363 -1.024669 0.0
-0.235040 -0.909335 0.0
-0.279623 -0.816382 0.0
-0.317604 -0.751399 0.0
-0.347319 -0.714322 0.0
-0.368309 -0.703493 0.0
-0.381274 -0.715490 0.0
-0.387737 -0.745607 0.0
-0.389338 -0.788974 0.0
-0.387041 -0.841485 0.0
-0.380754 -0.899916 0.0
-0.369577 -0.961329 0.0
-0.352381 -1.022395 0.0
-0.328391 -1.079152 0.0
-0.297632 -1.127338 0.0
-0.261185 -1.163278 0.0
-0.221123 -1.185132 0.0
-0.179903 -1.193614 0.0
-0.139342 -1.190429 0.0
-0.099924 -1.174140 0.0
-0.060868 -1.134787 0.0
-0.020634 -1.038914 0.0
-0.018980 -1.171425 0.0
-0.059900 -1.210684 0.0
-0.105356 -1.175782 0.0
-0.151993 -1.092300 0.0
-0.196692 -0.978073 0.0
-0.238259 -0.865687 0.0
-0.276019 -0.777686 0.0
-0.308380 -0.719752 0.0
-0.334004 -0.690631 0.0
-0.352867 -0.687331 0.0
-0.366117 -0.705437 0.0
-0.375357 -0.739959 0.0
-0.381734 -0.786643 0.0
-0.385320 -0.842527 0.0
-0.385108 -0.905373 0.0
-0.379500 -0.972657 0.0
-0.366886 -1.040877 0.0
-0.346129 -1.105418 0.0
-0.316978 -1.160982 0.0
-0.280423 -1.202636 0.0
-0.238767 -1.227493 0.0
-0.195019 -1.236220 0.0
-0.151569 -1.231833 0.0
-0.109077 -1.214645 0.0
-0.066523 -1.175891 0.0
-0.022510 -1.082058 0.0
-0.021940 -1.130505 0.0
-0.067012 -1.165611 0.0
-0.112747 -1.129664 0.0
-0.155259 -1.049269 0.0
-0.192077 -0.939586 0.0
-0.224314 -0.830371 0.0
-0.253874 -0.745683 0.0
-0.280482 -0.692786 0.0
-0.302944 -0.669511 0.0
-0.321200 -0.671331 0.0
-0.336356 -0.693031 0.0
-0.349661 -0.729821 0.0
-0.361592 -0.778472 0.0
-0.371479 -0.837225 0.0
-0.377733 -0.904632 0.0
-0.378340 -0.978398 0.0
-0.371304 -1.054784 0.0
-0.355055 -1.128517 0.0
-0.328901 -1.193188 0.0