# vtk DataFile Version 3.0
Vector Field
ASCII
DATASET RECTILINEAR_GRID
DIMENSIONS 26 100 1
X_COORDINATES 26 double
0.050000 0.150000 0.250000 0.350000 0.450000 0.550000 0.650000 0.750000 0.850000 0.950000 1.050000 1.150000 1.250000 1.350000 1.450000 1.550000 1.650000 1.750000 1.850000 1.950000 2.050000 2.150000 2.250000 2.350000 2.450000 2.550000 
Y_COORDINATES 100 double
0.050000 0.150000 0.250000 0.350000 0.450000 0.550000 0.650000 0.750000 0.850000 0.950000 1.050000 1.150000 1.250000 1.350000 1.450000 1.550000 1.650000 1.750000 1.850000 1.950000 2.050000 2.150000 2.250000 2.350000 2.450000 2.550000 2.650000 2.750000 2.850000 2.950000 3.050000 3.150000 3.250000 3.350000 3.450000 3.550000 3.650000 3.750000 3.850000 3.950000 4.050000 4.150000 4.250000 4.350000 4.450000 4.550000 4.650000 4.750000 4.850000 4.950000 5.050000 5.150000 5.250000 5.350000 5.450000 5.550000 5.650000 5.750000 5.850000 5.950000 6.050000 6.150000 6.250000 6.350000 6.450000 6.550000 6.650000 6.750000 6.850000 6.950000 7.050000 7.150000 7.250000 7.350000 7.450000 7.550000 7.650000 7.750000 7.850000 7.950000 8.050000 8.150000 8.250000 8.350000 8.450000 8.550000 8.650000 8.750000 8.850000 8.950000 9.050000 9.150000 9.250000 9.350000 9.450000 9.550000 9.650000 9.750000 9.850000 9.950000 
Z_COORDINATES 1 double
0.0
POINT_DATA 2600
VECTORS Vektorfeld double
-0.006487 -0.980443 0.0
-0.019626 -0.968434 0.0
-0.032520 -0.909239 0.0
-0.044444 -0.857448 0.0
-0.055190 -0.815970 0.0
-0.064703 -0.784854 0.0
-0.073019 -0.764058 0.0
-0.080229 -0.753462 0.0
-0.086453 -0.752787 0.0
-0.091812 -0.761657 0.0
-0.096404 -0.779662 0.0
-0.100291 -0.806391 0.0
-0.103478 -0.841413 0.0
-0.105911 -0.884193 0.0
-0.107485 -0.933961 0.0
-0.108063 -0.989551 0.0
-0.107510 -1.049292 0.0
-0.105706 -1.111000 0.0
-0.102554 -1.172086 0.0
-0.097942 -1.229713 0.0
-0.091682 -1.280864 0.0
-0.083422 -1.322133 0.0
-0.072547 -1.348987 0.0
-0.058113 -1.354117 0.0
-0.038907 -1.323760 0.0
-0.013974 -1.224523 0.0
-0.007632 -0.966324 0.0
-0.023520 -0.953526 0.0
-0.039167 -0.895606 0.0
-0.053042 -0.845282 0.0
-0.065087 -0.805344 0.0
-0.075319 -0.775736 0.0
-0.083860 -0.756321 0.0
-0.090925 -0.746924 0.0
-0.096771 -0.747254 0.0
-0.101658 -0.756945 0.0
-0.105806 -0.775634 0.0
-0.109355 -0.802983 0.0
-0.112343 -0.838647 0.0
-0.114696 -0.882174 0.0
-0.116262 -0.932841 0.0
-0.116870 -0.989484 0.0
-0.116395 -1.050387 0.0
-0.114801 -1.113304 0.0
-0.112123 -1.175612 0.0
-0.108396 -1.234525 0.0
-0.103513 -1.287195 0.0
-0.097022 -1.330553 0.0
-0.087858 -1.360606 0.0
-0.074036 -1.370753 0.0
-0.052446 -1.347919 0.0
-0.019623 -1.258120 0.0
-0.008718 -0.949974 0.0
-0.025827 -0.936878 0.0
-0.041642 -0.880791 0.0
-0.055519 -0.832345 0.0
-0.067398 -0.794357 0.0
-0.077230 -0.766658 0.0
-0.085124 -0.748963 0.0
-0.091336 -0.741005 0.0
-0.096200 -0.742461 0.0
-0.100060 -0.752991 0.0
-0.103201 -0.772301 0.0
-0.105803 -0.800165 0.0
-0.107912 -0.836367 0.0
-0.109453 -0.880559 0.0
-0.110284 -0.932059 0.0
-0.110274 -0.989668 0.0
-0.109379 -1.051573 0.0
-0.107667 -1.115425 0.0
-0.105281 -1.178555 0.0
-0.102330 -1.238260 0.0
-0.098719 -1.291954 0.0
-0.093912 -1.337092 0.0
-0.086593 -1.370551 0.0
-0.074271 -1.386953 0.0
-0.053089 -1.374491 0.0
-0.019858 -1.297601 0.0
-0.009154 -0.932103 0.0
-0.026258 -0.920537 0.0
-0.040981 -0.866595 0.0
-0.053526 -0.820121 0.0
-0.064028 -0.784200 0.0
-0.072437 -0.758575 0.0
-0.078828 -0.742762 0.0
-0.083461 -0.736361 0.0
-0.086705 -0.738997 0.0
-0.088943 -0.750357 0.0
-0.090497 -0.770240 0.0
-0.091569 -0.798552 0.0
-0.092227 -0.835213 0.0
-0.092430 -0.879969 0.0
-0.092098 -0.932151 0.0
-0.091192 -0.990492 0.0
-0.089773 -1.053063 0.0
-0.088009 -1.117410 0.0
-0.086115 -1.180849 0.0
-0.084228 -1.240804 0.0
-0.082243 -1.295005 0.0
-0.079595 -1.341497 0.0
-0.074901 -1.378158 0.0
-0.065530 -1.401040 0.0
-0.047381 -1.399735 0.0
-0.017755 -1.335214 0.0
-0.009032 -0.913917 0.0
-0.025061 -0.905588 0.0
-0.037610 -0.854271 0.0
-0.047677 -0.809834 0.0
-0.055722 -0.775938 0.0
-0.061765 -0.752385 0.0
-0.065837 -0.738489 0.0
-0.068166 -0.733673 0.0
-0.069114 -0.737493 0.0
-0.069078 -0.749659 0.0
-0.068399 -0.770064 0.0
-0.067314 -0.798742 0.0
-0.065944 -0.835734 0.0
-0.064333 -0.880855 0.0
-0.062514 -0.933415 0.0
-0.060579 -0.992069 0.0
-0.058705 -1.054778 0.0
-0.057144 -1.119020 0.0
-0.056134 -1.182144 0.0
-0.055791 -1.241740 0.0
-0.055979 -1.295866 0.0
-0.056141 -1.343123 0.0
-0.054996 -1.382371 0.0
-0.050066 -1.411129 0.0
-0.037293 -1.420568 0.0
-0.014166 -1.367134 0.0
-0.008494 -0.896391 0.0
-0.022679 -0.892899 0.0
-0.032251 -0.844839 0.0
-0.038898 -0.802551 0.0
-0.043530 -0.770543 0.0
-0.046338 -0.748930 0.0
-0.047322 -0.736886 0.0
-0.046645 -0.733625 0.0
-0.044637 -0.738602 0.0
-0.041692 -0.751532 0.0
-0.038173 -0.772389 0.0
-0.034372 -0.801304 0.0
-0.030507 -0.838406 0.0
-0.026748 -0.883553 0.0
-0.023285 -0.935999 0.0
-0.020369 -0.994337 0.0
-0.018295 -1.056458 0.0
-0.017363 -1.119834 0.0
-0.017788 -1.181915 0.0
-0.019610 -1.240490 0.0
-0.022625 -1.293914 0.0
-0.026294 -1.341244 0.0
-0.029531 -1.382158 0.0
-0.030215 -1.415588 0.0
-0.024523 -1.434576 0.0
-0.009738 -1.391038 0.0
-0.007720 -0.880178 0.0
-0.019644 -0.883004 0.0
-0.025771 -0.839036 0.0
-0.028312 -0.799166 0.0
-0.028720 -0.768888 0.0
-0.027503 -0.748995 0.0
-0.024679 -0.738660 0.0
-0.020342 -0.736865 0.0
-0.014778 -0.742932 0.0
-0.008378 -0.756546 0.0
-0.001534 -0.777738 0.0
0.005388 -0.806679 0.0
0.012036 -0.843544 0.0
0.018076 -0.888214 0.0
0.023134 -0.939859 0.0
0.026796 -0.997055 0.0
0.028673 -1.057691 0.0
0.028461 -1.119320 0.0
0.026024 -1.179566 0.0
0.021439 -1.236431 0.0
0.015004 -1.288523 0.0
0.007243 -1.335205 0.0
-0.000966 -1.376749 0.0
-0.007955 -1.413323 0.0
-0.010343 -1.440145 0.0
-0.004910 -1.405686 0.0
-0.006878 -0.865579 0.0
-0.016480 -0.876076 0.0
-0.019068 -0.837250 0.0
-0.017145 -0.800334 0.0
-0.012738 -0.771719 0.0
-0.006813 -0.753306 0.0
0.000492 -0.744478 0.0
0.009103 -0.743996 0.0
0.018750 -0.751012 0.0
0.029036 -0.765152 0.0
0.039508 -0.786447 0.0
0.049697 -0.815081 0.0
0.059129 -0.851222 0.0
0.067280 -0.894726 0.0
0.073607 -0.944733 0.0
0.077595 -0.999831 0.0
0.078805 -1.058002 0.0
0.076984 -1.116976 0.0
0.072108 -1.174596 0.0
0.064376 -1.229085 0.0
0.054175 -1.279233 0.0
0.042027 -1.324587 0.0
0.028631 -1.365762 0.0
0.015166 -1.403856 0.0
0.004339 -1.436396 0.0
0.000034 -1.410563 0.0
-0.006106 -0.852595 0.0
-0.013612 -0.871952 0.0
-0.012917 -0.839482 0.0
-0.006572 -0.806370 0.0
0.002936 -0.779597 0.0
0.014121 -0.762539 0.0
0.026555 -0.754984 0.0
0.039996 -0.755542 0.0
0.054101 -0.763219 0.0
0.068440 -0.777570 0.0
0.082524 -0.798584 0.0
0.095811 -0.826421 0.0
0.107702 -0.861205 0.0
0.117546 -0.902737 0.0
0.124692 -0.950196 0.0
0.128560 -1.002224 0.0
0.128728 -1.056987 0.0
0.125013 -1.112456 0.0
0.117486 -1.166713 0.0
0.106440 -1.218190 0.0
0.092328 -1.265815 0.0
0.075704 -1.309234 0.0
0.057194 -1.349208 0.0
0.037640 -1.387391 0.0
0.018837 -1.423231 0.0
0.004972 -1.405557 0.0
-0.005486 -0.841003 0.0
-0.011291 -0.870233 0.0
-0.007814 -0.845372 0.0
0.002534 -0.817174 0.0
0.017076 -0.792843 0.0
0.033830 -0.777231 0.0
0.051788 -0.770684 0.0
0.070359 -0.771853 0.0
0.089055 -0.779710 0.0
0.107393 -0.793757 0.0
0.124845 -0.813933 0.0
0.140823 -0.840337 0.0
0.154668 -0.873026 0.0
0.165671 -0.911764 0.0
0.173145 -0.955790 0.0
0.176519 -1.003872 0.0
0.175416 -1.054403 0.0
0.169716 -1.105624 0.0
0.159556 -1.155858 0.0
0.145279 -1.203722 0.0
0.127378 -1.248269 0.0
0.106431 -1.289210 0.0
0.083053 -1.327343 0.0
0.057935 -1.364584 0.0
0.032242 -1.401543 0.0
0.009724 -1.390862 0.0
-0.005034 -0.830484 0.0
-0.009549 -0.870431 0.0
-0.003873 -0.854326 0.0
0.009837 -0.832278 0.0
0.028960 -0.811405 0.0
0.051089 -0.797552 0.0
0.074530 -0.791763 0.0
0.098203 -0.793018 0.0
0.121370 -0.800409 0.0
0.143437 -0.813462 0.0
0.163836 -0.832079 0.0
0.181970 -0.856301 0.0
0.197187 -0.886124 0.0
0.208804 -0.921286 0.0
0.216176 -0.961113 0.0
0.218788 -1.004534 0.0
0.216327 -1.050178 0.0
0.208723 -1.096546 0.0
0.196142 -1.142195 0.0
0.178944 -1.185912 0.0
0.157631 -1.226864 0.0
0.132792 -1.264829 0.0
0.105058 -1.300613 0.0
0.075087 -1.336225 0.0
0.043732 -1.372854 0.0
0.013919 -1.367219 0.0
-0.004699 -0.820752 0.0
-0.008197 -0.872148 0.0
-0.000759 -0.865724 0.0
0.015652 -0.851001 0.0
0.038571 -0.834724 0.0
0.065337 -0.823128 0.0
0.093673 -0.817963 0.0
0.121962 -0.818780 0.0
0.149131 -0.824983 0.0
0.174419 -0.836242 0.0
0.197203 -0.852483 0.0
0.216901 -0.873729 0.0
0.232921 -0.899934 0.0
0.244670 -0.930841 0.0
0.251601 -0.965862 0.0
0.253294 -1.004090 0.0
0.249505 -1.044373 0.0
0.240202 -1.085445 0.0
0.225559 -1.126072 0.0
0.205926 -1.165203 0.0
0.181788 -1.202121 0.0
0.153736 -1.236681 0.0
0.122426 -1.269718 0.0
0.088541 -1.303264 0.0
0.052803 -1.338723 0.0
0.017283 -1.336018 0.0
-0.004358 -0.811695 0.0
-0.006828 -0.875235 0.0
0.002277 -0.879180 0.0
0.020912 -0.872590 0.0
0.046704 -0.861846 0.0
0.076976 -0.853045 0.0
0.109085 -0.848490 0.0
0.140978 -0.848436 0.0
0.171251 -0.852770 0.0
0.198950 -0.861441 0.0
0.223384 -0.874502 0.0
0.243990 -0.892014 0.0
0.260260 -0.913940 0.0
0.271720 -0.940044 0.0
0.277955 -0.969825 0.0
0.278650 -1.002515 0.0
0.273637 -1.037146 0.0
0.262916 -1.072647 0.0
0.246656 -1.107966 0.0
0.225180 -1.142200 0.0
0.198948 -1.174755 0.0
0.168542 -1.205588 0.0
0.134648 -1.235606 0.0
0.097995 -1.266838 0.0
0.059240 -1.300657 0.0
0.019706 -1.299029 0.0
-0.003815 -0.803523 0.0
-0.004836 -0.879916 0.0
0.006224 -0.894665 0.0
0.026910 -0.896428 0.0
0.054790 -0.891680 0.0
0.087315 -0.886007 0.0
0.121737 -0.882059 0.0
0.155784 -0.880807 0.0
0.187834 -0.882721 0.0
0.216785 -0.888141 0.0
0.241889 -0.897341 0.0
0.262606 -0.910497 0.0
0.278512 -0.927632 0.0
0.289255 -0.948556 0.0
0.294548 -0.972840 0.0
0.294185 -0.999831 0.0
0.288068 -1.028700 0.0
0.276226 -1.058530 0.0
0.258818 -1.088416 0.0
0.236136 -1.117594 0.0
0.208610 -1.145604 0.0
0.176816 -1.172538 0.0
0.141468 -1.199414 0.0
0.103338 -1.228246 0.0
0.063022 -1.260178 0.0
0.021185 -1.258137 0.0
-0.002808 -0.796900 0.0
-0.001504 -0.886821 0.0
0.012091 -0.912416 0.0
0.034922 -0.922194 0.0
0.064396 -0.923269 0.0
0.098069 -0.920616 0.0
0.133303 -0.917107 0.0
0.167853 -0.914356 0.0
0.200065 -0.913433 0.0
0.228807 -0.915122 0.0
0.253334 -0.919989 0.0
0.273153 -0.928384 0.0
0.287929 -0.940427 0.0
0.297419 -0.955995 0.0
0.301450 -0.974724 0.0
0.299910 -0.996043 0.0
0.292761 -1.019223 0.0
0.280053 -1.043457 0.0
0.261933 -1.067960 0.0
0.238664 -1.092099 0.0
0.210653 -1.115562 0.0
0.178474 -1.138607 0.0
0.142874 -1.162397 0.0
0.104639 -1.188898 0.0
0.064257 -1.218827 0.0
0.021779 -1.215173 0.0
-0.000998 -0.793094 0.0
0.003867 -0.896796 0.0
0.020629 -0.932798 0.0
0.045826 -0.949839 0.0
0.076637 -0.955910 0.0
0.110611 -0.955623 0.0
0.145344 -0.952067 0.0
0.178813 -0.947415 0.0
0.209525 -0.943297 0.0
0.236467 -0.940942 0.0
0.258998 -0.941226 0.0
0.276730 -0.944699 0.0
0.289439 -0.951597 0.0
0.296991 -0.961868 0.0
0.299312 -0.975202 0.0
0.296366 -0.991080 0.0
0.288162 -1.008834 0.0
0.274761 -1.027735 0.0
0.256295 -1.047095 0.0
0.233007 -1.066407 0.0
0.205291 -1.085526 0.0
0.173735 -1.104908 0.0
0.139104 -1.125866 0.0
0.102151 -1.150241 0.0
0.063168 -1.178119 0.0
0.021580 -1.171815 0.0
0.001956 -0.794052 0.0
0.011762 -0.910509 0.0
0.032105 -0.956190 0.0
0.059841 -0.979379 0.0
0.091752 -0.989092 0.0
0.125355 -0.990018 0.0
0.158517 -0.985566 0.0
0.189554 -0.978422 0.0
0.217273 -0.970722 0.0
0.240916 -0.964103 0.0
0.260053 -0.959733 0.0
0.274475 -0.958348 0.0
0.284109 -0.960291 0.0
0.288949 -0.965566 0.0
0.289017 -0.973892 0.0
0.284345 -0.984772 0.0
0.274977 -0.997569 0.0
0.260978 -1.011599 0.0
0.242469 -1.026257 0.0
0.219682 -1.041170 0.0
0.193016 -1.056381 0.0
0.163082 -1.072562 0.0
0.130638 -1.091138 0.0
0.096311 -1.113689 0.0
0.060081 -1.139457 0.0
0.020714 -1.129522 0.0
0.005975 -0.801983 0.0
0.022076 -0.928484 0.0
0.046306 -0.982787 0.0
0.076435 -1.010646 0.0
0.109004 -1.022306 0.0
0.141550 -1.022952 0.0
0.172224 -1.016468 0.0
0.199723 -1.006056 0.0
0.223232 -0.994317 0.0
0.242333 -0.983251 0.0
0.256886 -0.974274 0.0
0.266928 -0.968271 0.0
0.272581 -0.965655 0.0
0.273990 -0.966451 0.0
0.271287 -0.970372 0.0
0.264571 -0.976906 0.0
0.253920 -0.985415 0.0
0.239406 -0.995239 0.0
0.221148 -1.005851 0.0
0.199385 -1.017027 0.0
0.174544 -1.029018 0.0
0.147249 -1.042696 0.0
0.118189 -1.059501 0.0
0.087737 -1.080547 0.0
0.055420 -1.104051 0.0
0.019334 -1.089474 0.0
0.010630 -0.818589 0.0
0.034024 -0.951373 0.0
0.062331 -1.012435 0.0
0.094341 -1.043137 0.0
0.126830 -1.054874 0.0
0.157491 -1.053591 0.0
0.184785 -1.043797 0.0
0.207806 -1.029246 0.0
0.226148 -1.012979 0.0
0.239770 -0.997312 0.0
0.248866 -0.983862 0.0
0.253751 -0.973610 0.0
0.254771 -0.966990 0.0
0.252244 -0.963999 0.0
0.246421 -0.964298 0.0
0.237481 -0.967324 0.0
0.225539 -0.972404 0.0
0.210688 -0.978885 0.0
0.193066 -0.986325 0.0
0.172947 -0.994671 0.0
0.150794 -1.004380 0.0
0.127208 -1.016454 0.0
0.102694 -1.032170 0.0
0.077199 -1.051932 0.0
0.049684 -1.072834 0.0
0.017610 -1.052531 0.0
0.015374 -0.844593 0.0
0.046302 -0.979691 0.0
0.078552 -1.044674 0.0
0.111689 -1.076045 0.0
0.143130 -1.085897 0.0
0.170918 -1.081018 0.0
0.193899 -1.066645 0.0
0.211588 -1.047109 0.0
0.224002 -1.025872 0.0
0.231486 -1.005526 0.0
0.234576 -0.987834 0.0
0.233871 -0.973818 0.0
0.229947 -0.963879 0.0
0.223296 -0.957932 0.0
0.214296 -0.955541 0.0
0.203207 -0.956052 0.0
0.190201 -0.958729 0.0
0.175411 -0.962919 0.0
0.159023 -0.968281 0.0
0.141368 -0.974940 0.0
0.122925 -0.983513 0.0
0.104176 -0.994985 0.0
0.085267 -1.010214 0.0
0.065556 -1.028681 0.0
0.043391 -1.046404 0.0
0.015713 -1.019208 0.0
0.019613 -0.879579 0.0
0.057355 -1.013375 0.0
0.092938 -1.078823 0.0
0.126276 -1.108370 0.0
0.155576 -1.114312 0.0
0.179413 -1.104229 0.0
0.197117 -1.084118 0.0
0.208677 -1.058886 0.0
0.214550 -1.032381 0.0
0.215469 -1.007421 0.0
0.212299 -0.985857 0.0
0.205907 -0.968698 0.0
0.197085 -0.956253 0.0
0.186485 -0.948307 0.0
0.174602 -0.944283 0.0
0.161784 -0.943404 0.0
0.148272 -0.944859 0.0
0.134265 -0.947992 0.0
0.120025 -0.952580 0.0
0.105928 -0.958890 0.0
0.092383 -0.967575 0.0
0.079579 -0.979372 0.0
0.067109 -0.994449 0.0
0.053649 -1.011276 0.0
0.037010 -1.025006 0.0
0.013789 -0.989706 0.0
0.022840 -0.922032 0.0
0.065762 -1.051587 0.0
0.103516 -1.113949 0.0
0.135932 -1.138998 0.0
0.161925 -1.138976 0.0
0.180705 -1.122182 0.0
0.192191 -1.095354 0.0
0.196910 -1.063929 0.0
0.195780 -1.032080 0.0
0.189922 -1.002782 0.0
0.180508 -0.977912 0.0
0.168654 -0.958398 0.0
0.155330 -0.944407 0.0
0.141326 -0.935548 0.0
0.127238 -0.931071 0.0
0.113501 -0.930060 0.0
0.100436 -0.931626 0.0
0.088329 -0.935112 0.0
0.077505 -0.940396 0.0
0.068304 -0.947776 0.0
0.060881 -0.957720 0.0
0.054914 -0.970457 0.0
0.049312 -0.985292 0.0
0.042140 -0.999800 0.0
0.030869 -1.008573 0.0
0.011934 -0.963984 0.0
0.024728 -0.969601 0.0
0.070530 -1.092743 0.0
0.108765 -1.148783 0.0
0.138873 -1.166688 0.0
0.160299 -1.158705 0.0
0.172919 -1.133854 0.0
0.177321 -1.099569 0.0
0.174621 -1.061732 0.0
0.166219 -1.024746 0.0
0.153615 -0.991654 0.0
0.138268 -0.964281 0.0
0.121503 -0.943409 0.0
0.104438 -0.929008 0.0
0.087965 -0.920469 0.0
0.072757 -0.916853 0.0
0.059324 -0.917107 0.0
0.048071 -0.920262 0.0
0.039349 -0.925647 0.0
0.033461 -0.933149 0.0
0.030517 -0.942877 0.0
0.030175 -0.954853 0.0
0.031441 -0.968623 0.0
0.032596 -0.982679 0.0
0.031351 -0.993995 0.0
0.025079 -0.996835 0.0
0.010171 -0.941878 0.0
0.025143 -1.019472 0.0
0.071167 -1.134696 0.0
0.107785 -1.181682 0.0
0.133915 -1.190026 0.0
0.149396 -1.172275 0.0
0.154768 -1.138278 0.0
0.151336 -1.096115 0.0
0.140840 -1.051990 0.0
0.125161 -1.010407 0.0
0.106155 -0.974382 0.0
0.085542 -0.945593 0.0
0.064808 -0.924597 0.0
0.045177 -0.911124 0.0
0.027595 -0.904297 0.0
0.012774 -0.902996 0.0
0.001273 -0.906030 0.0
-0.006476 -0.912336 0.0
-0.010164 -0.921162 0.0
-0.009702 -0.932209 0.0
-0.005454 -0.945121 0.0
0.001576 -0.959298 0.0
0.009774 -0.973642 0.0
0.017072 -0.986113 0.0
0.021165 -0.993408 0.0
0.019493 -0.989478 0.0
0.008436 -0.923271 0.0
0.024096 -1.068711 0.0
0.067585 -1.174970 0.0
0.100250 -1.210690 0.0
0.120525 -1.207423 0.0
0.128597 -1.178431 0.0
0.125689 -1.134586 0.0
0.113862 -1.084548 0.0
0.095479 -1.034678 0.0
0.072877 -0.989439 0.0
0.048240 -0.951707 0.0
0.023498 -0.922912 0.0
0.000234 -0.903281 0.0
-0.020309 -0.892266 0.0
-0.037180 -0.888703 0.0
-0.049700 -0.891250 0.0
-0.057403 -0.898573 0.0
-0.059977 -0.909471 0.0
-0.057339 -0.922977 0.0
-0.049834 -0.938361 0.0
-0.038409 -0.954641 0.0
-0.024612 -0.970606 0.0
-0.010387 -0.984756 0.0
0.002197 -0.994881 0.0
0.011057 -0.997593 0.0
0.013721 -0.986284 0.0
0.006574 -0.908261 0.0
0.021682 -1.114489 0.0
0.059972 -1.210972 0.0
0.086293 -1.233675 0.0
0.098772 -1.217192 0.0
0.097997 -1.175959 0.0
0.085944 -1.122096 0.0
0.065461 -1.064728 0.0
0.039519 -1.010173 0.0
0.010864 -0.962687 0.0
-0.018061 -0.924896 0.0
-0.045130 -0.897913 0.0
-0.068740 -0.881406 0.0
-0.087907 -0.874430 0.0
-0.101980 -0.875595 0.0
-0.110450 -0.883367 0.0
-0.112968 -0.896235 0.0
-0.109447 -0.912756 0.0
-0.100196 -0.931580 0.0
-0.086064 -0.951396 0.0
-0.068453 -0.970642 0.0
-0.049137 -0.987718 0.0
-0.030027 -1.000979 0.0
-0.012961 -1.008307 0.0
0.000263 -1.006251 0.0
0.007197 -0.987223 0.0
0.004354 -0.897333 0.0
0.018053 -1.154224 0.0
0.048699 -1.240172 0.0
0.066410 -1.248507 0.0
0.069267 -1.217696 0.0
0.058415 -1.163829 0.0
0.036709 -1.100467 0.0
0.007800 -1.036965 0.0
-0.024751 -0.979442 0.0
-0.057594 -0.931921 0.0
-0.088083 -0.896248 0.0
-0.114666 -0.872910 0.0
-0.136380 -0.861084 0.0
-0.152492 -0.859474 0.0
-0.162451 -0.866520 0.0
-0.165905 -0.880519 0.0
-0.162773 -0.899697 0.0
-0.153346 -0.922243 0.0
-0.138350 -0.946340 0.0
-0.118972 -0.970146 0.0
-0.096730 -0.991744 0.0
-0.073279 -1.009384 0.0
-0.050267 -1.021436 0.0
-0.029282 -1.025901 0.0
-0.011955 -1.019209 0.0
-0.000709 -0.992445 0.0
0.001501 -0.891478 0.0
0.013405 -1.185682 0.0
0.034301 -1.260256 0.0
0.041419 -1.253252 0.0
0.033161 -1.207551 0.0
0.011451 -1.141411 0.0
-0.019784 -1.069944 0.0
-0.055607 -1.002757 0.0
-0.091686 -0.945020 0.0
-0.125329 -0.899858 0.0
-0.154924 -0.868226 0.0
-0.179367 -0.849906 0.0
-0.197900 -0.843840 0.0
-0.209974 -0.848532 0.0
-0.215267 -0.862209 0.0
-0.213742 -0.882902 0.0
-0.205685 -0.908503 0.0
-0.191718 -0.936831 0.0
-0.172770 -0.965695 0.0
-0.150008 -0.992932 0.0
-0.124728 -1.016480 0.0
-0.098273 -1.034554 0.0
-0.072017 -1.045533 0.0
-0.047389 -1.047416 0.0
-0.026031 -1.036378 0.0
-0.010409 -1.002144 0.0
-0.002210 -0.892188 0.0
0.007973 -1.207060 0.0
0.017455 -1.269256 0.0
0.012451 -1.246366 0.0
-0.007852 -1.185876 0.0
-0.039982 -1.109246 0.0
-0.078002 -1.032852 0.0
-0.116863 -0.965166 0.0
-0.153548 -0.909846 0.0
-0.186167 -0.868770 0.0
-0.213515 -0.842372 0.0
-0.234797 -0.830035 0.0
-0.249510 -0.830465 0.0
-0.257418 -0.841926 0.0
-0.258566 -0.862372 0.0
-0.253283 -0.889547 0.0
-0.242115 -0.921083 0.0
-0.225749 -0.954584 0.0
-0.204953 -0.987686 0.0
-0.180560 -1.018097 0.0
-0.153482 -1.043674 0.0
-0.124767 -1.062530 0.0
-0.095642 -1.072937 0.0
-0.067519 -1.072764 0.0
-0.042085 -1.057822 0.0
-0.021709 -1.016698 0.0
-0.006572 -0.900970 0.0
0.002023 -1.217056 0.0
-0.001041 -1.265678 0.0
-0.018937 -1.227044 0.0
-0.050072 -1.153760 0.0
-0.089007 -1.070297 0.0
-0.130121 -0.992667 0.0
-0.169628 -0.926984 0.0
-0.205281 -0.875689 0.0
-0.235690 -0.839898 0.0
-0.260010 -0.819575 0.0
-0.277789 -0.813771 0.0
-0.288905 -0.820900 0.0
-0.293542 -0.838947 0.0
-0.292121 -0.865623 0.0
-0.285179 -0.898522 0.0
-0.273226 -0.935229 0.0
-0.256670 -0.973359 0.0
-0.235846 -1.010531 0.0
-0.211126 -1.044365 0.0
-0.183073 -1.072537 0.0
-0.152560 -1.092896 0.0
-0.120806 -1.103450 0.0
-0.089299 -1.101879 0.0
-0.059727 -1.083714 0.0
-0.033984 -1.036925 0.0
-0.011161 -0.918703 0.0
-0.004202 -1.214876 0.0
-0.020006 -1.248989 0.0
-0.049100 -1.196743 0.0
-0.087384 -1.114643 0.0
-0.129633 -1.028229 0.0
-0.171430 -0.951824 0.0
-0.209932 -0.889818 0.0
-0.243445 -0.843690 0.0
-0.270995 -0.813939 0.0
-0.292131 -0.800078 0.0
-0.306834 -0.800787 0.0
-0.315437 -0.814164 0.0
-0.318513 -0.837970 0.0
-0.316673 -0.869860 0.0
-0.310362 -0.907538 0.0
-0.299741 -0.948787 0.0
-0.284727 -0.991372 0.0
-0.265151 -1.032919 0.0
-0.240985 -1.070863 0.0
-0.212546 -1.102531 0.0
-0.180626 -1.125334 0.0
-0.146496 -1.136895 0.0
-0.111740 -1.134696 0.0
-0.077964 -1.114246 0.0
-0.046416 -1.063684 0.0
-0.015659 -0.945524 0.0
-0.010291 -1.200383 0.0
-0.037175 -1.220794 0.0
-0.073968 -1.159052 0.0
-0.115800 -1.072219 0.0
-0.158618 -0.985585 0.0
-0.199242 -0.912047 0.0
-0.235544 -0.854792 0.0
-0.266262 -0.814486 0.0
-0.290824 -0.791031 0.0
-0.309221 -0.783452 0.0
-0.321898 -0.790034 0.0
-0.329587 -0.808625 0.0
-0.333052 -0.836968 0.0
-0.332809 -0.872945 0.0
-0.328946 -0.914628 0.0
-0.321127 -0.960136 0.0
-0.308767 -1.007396 0.0
-0.291284 -1.053953 0.0
-0.268353 -1.096925 0.0
-0.240112 -1.133150 0.0
-0.207281 -1.159467 0.0
-0.171159 -1.173015 0.0
-0.133390 -1.171101 0.0
-0.095477 -1.149531 0.0
-0.058104 -1.097320 0.0
-0.019783 -0.980966 0.0
-0.015434 -1.174658 0.0
-0.050512 -1.184557 0.0
-0.091289 -1.117719 0.0
-0.133532 -1.029478 0.0
-0.174633 -0.944407 0.0
-0.212582 -0.874652 0.0
-0.245828 -0.822639 0.0
-0.273469 -0.788280 0.0
-0.295316 -0.770827 0.0
-0.311789 -0.768786 0.0
-0.323712 -0.780099 0.0
-0.332024 -0.802557 0.0
-0.337429 -0.834166 0.0
-0.340129 -0.873291 0.0
-0.339761 -0.918514 0.0
-0.335533 -0.968296 0.0
-0.326479 -1.020649 0.0
-0.311726 -1.072937 0.0
-0.290720 -1.121878 0.0
-0.263415 -1.163744 0.0
-0.230391 -1.194727 0.0
-0.192886 -1.211382 0.0
-0.152570 -1.210819 0.0
-0.110891 -1.189404 0.0
-0.068214 -1.137497 0.0
-0.023288 -1.024037 0.0
-0.019040 -1.140185 0.0
-0.058999 -1.143993 0.0
-0.100484 -1.076020 0.0
-0.140475 -0.988942 0.0
-0.177873 -0.906445 0.0
-0.211844 -0.840694 0.0
-0.241384 -0.793811 0.0
-0.265877 -0.764974 0.0
-0.285436 -0.752727 0.0
-0.300784 -0.755065 0.0
-0.312948 -0.769733 0.0
-0.322853 -0.794706 0.0
-0.330966 -0.828498 0.0
-0.337124 -0.870102 0.0
-0.340583 -0.918613 0.0
-0.340241 -0.972767 0.0
-0.334893 -1.030581 0.0
-0.323460 -1.089193 0.0
-0.305179 -1.144908 0.0
-0.279765 -1.193433 0.0
-0.247558 -1.230268 0.0
-0.209622 -1.251281 0.0
-0.167592 -1.253267 0.0
-0.122970 -1.233256 0.0
-0.076060 -1.183232 0.0
-0.025981 -1.073306 0.0
-0.020969 -1.100177 0.0
-0.062663 -1.102348 0.0
-0.102196 -1.036648 0.0
-0.137745 -0.952774 0.0
-0.169655 -0.873305 0.0
-0.198391 -0.811126 0.0
-0.223586 -0.768643 0.0
-0.244831 -0.744403 0.0
-0.262359 -0.736212 0.0
-0.276994 -0.741597 0.0
-0.289762 -0.758270 0.0
-0.301430 -0.784596 0.0
-0.312196 -0.819728 0.0
-0.321612 -0.863298 0.0
-0.328715 -0.914855 0.0
-0.332243 -0.973338 0.0
-0.330860 -1.036741 0.0
-0.323332 -1.101993 0.0
-0.308688 -1.165033 0.0
-0.286354 -1.221057 0.0
-0.256318 -1.264887 0.0
-0.219329 -1.291587 0.0
-0.176904 -1.297415 0.0
-0.130674 -1.279961 0.0
-0.081099 -1.233013 0.0
-0.027708 -1.126994 0.0
-0.021410 -1.057798 0.0
-0.062235 -1.062206 0.0
-0.097840 -1.001651 0.0
-0.127272 -0.922789 0.0
-0.152086 -0.846566 0.0
-0.174218 -0.786999 0.0
-0.194205 -0.747588 0.0
-0.211808 -0.726611 0.0
-0.227132 -0.721153 0.0
-0.240860 -0.728291 0.0
-0.253862 -0.745807 0.0
-0.266707 -0.772546 0.0
-0.279403 -0.808316 0.0
-0.291368 -0.853328 0.0
-0.301577 -0.907514 0.0
-0.308734 -0.969993 0.0
-0.311447 -1.038756 0.0
-0.308375 -1.110577 0.0
-0.298352 -1.181116 0.0
-0.280487 -1.245173 0.0
-0.254321 -1.296973 0.0
-0.220121 -1.330690 0.0
-0.179142 -1.341716 0.0
-0.133145 -1.327888 0.0
-0.082894 -1.284912 0.0
-0.028339 -1.183042 0.0
-0.020702 -1.015686 0.0
-0.058756 -1.025439 0.0
-0.089188 -0.972383 0.0
-0.111462 -0.900351 0.0
-0.127857 -0.827795 0.0
-0.141838 -0.769657 0.0
-0.155304 -0.731477 0.0
-0.168345 -0.712079 0.0
-0.180716 -0.707991 0.0
-0.192708 -0.715732 0.0
-0.204935 -0.733137 0.0
-0.217800 -0.759505 0.0
-0.231241 -0.795222 0.0
-0.244697 -0.841001 0.0
-0.257210 -0.897120 0.0
-0.267548 -0.962892 0.0
-0.274334 -1.036357 0.0
-0.276174 -1.114208 0.0
-0.271752 -1.191931 0.0
-0.259871 -1.264104 0.0
-0.239547 -1.324532 0.0
-0.210389 -1.366489 0.0
-0.173174 -1.384113 0.0
-0.129699 -1.374964 0.0
-0.081104 -1.336682 0.0
-0.027774 -1.239155 0.0
-0.019200 -0.975784 0.0
-0.053264 -0.993224 0.0
-0.077977 -0.949455 0.0
-0.092831 -0.886150 0.0
-0.100081 -0.818351 0.0
-0.104373 -0.760828 0.0
-0.109473 -0.721740 0.0
-0.116345 -0.701902 0.0
-0.124366 -0.697777 0.0
-0.133227 -0.705092 0.0
-0.143206 -0.721572 0.0
-0.154574 -0.746837 0.0
-0.167293 -0.781730 0.0
-0.180943 -0.827388 0.0
-0.194740 -0.884423 0.0
-0.207602 -0.952389 0.0
-0.218248 -1.029428 0.0
-0.225298 -1.112247 0.0
-0.227350 -1.196264 0.0
-0.222947 -1.276055 0.0
-0.210554 -1.345298 0.0
-0.188955 -1.396480 0.0
-0.158180 -1.422112 0.0
-0.119860 -1.418759 0.0
-0.075501 -1.385840 0.0
-0.025949 -1.292879 0.0
-0.017192 -0.939391 0.0
-0.046575 -0.966169 0.0
-0.065571 -0.932801 0.0
-0.073551 -0.879968 0.0
-0.071956 -0.818878 0.0
-0.065650 -0.762313 0.0
-0.060322 -0.720483 0.0
-0.058682 -0.697928 0.0
-0.060227 -0.692185 0.0
-0.064055 -0.697994 0.0
-0.070010 -0.712736 0.0
-0.078181 -0.736135 0.0
-0.088576 -0.769318 0.0
-0.100972 -0.813754 0.0
-0.114856 -0.870376 0.0
-0.129380 -0.939050 0.0
-0.143452 -1.018049 0.0
-0.155786 -1.104241 0.0
-0.164946 -1.193058 0.0
-0.169298 -1.279311 0.0
-0.166794 -1.356938 0.0
-0.155292 -1.417941 0.0
-0.133786 -1.452931 0.0
-0.103437 -1.456610 0.0
-0.066025 -1.429761 0.0
-0.022854 -1.341682 0.0
-0.014862 -0.907337 0.0
-0.039182 -0.944520 0.0
-0.052734 -0.921903 0.0
-0.054940 -0.880679 0.0
-0.046016 -0.828688 0.0
-0.029744 -0.775081 0.0
-0.012701 -0.730086 0.0
0.000143 -0.702809 0.0
0.007922 -0.693537 0.0
0.011536 -0.696428 0.0
0.011601 -0.708412 0.0
0.008376 -0.729062 0.0
0.001920 -0.759540 0.0
-0.007733 -0.801482 0.0
-0.020384 -0.856114 0.0
-0.035503 -0.923668 0.0
-0.052296 -1.002566 0.0
-0.069665 -1.090022 0.0
-0.086174 -1.181607 0.0
-0.100076 -1.272509 0.0
-0.108953 -1.357367 0.0
-0.109758 -1.428209 0.0
-0.100214 -1.473711 0.0
-0.080618 -1.485776 0.0
-0.052825 -1.465799 0.0
-0.018552 -1.383087 0.0
-0.012288 -0.880188 0.0
-0.031268 -0.928369 0.0
-0.039624 -0.916146 0.0
-0.037189 -0.886665 0.0
-0.023183 -0.845633 0.0
0.000520 -0.798110 0.0
0.028464 -0.752044 0.0
0.054226 -0.719458 0.0
0.074173 -0.704614 0.0
0.087884 -0.702676 0.0
0.096120 -0.710465 0.0
0.099564 -0.727227 0.0
0.098521 -0.753876 0.0
0.093026 -0.791998 0.0
0.083031 -0.842954 0.0
0.068596 -0.907273 0.0
0.050145 -0.983717 0.0
0.028523 -1.069881 0.0
0.005041 -1.161758 0.0
-0.018432 -1.254983 0.0
-0.039287 -1.345159 0.0
-0.053834 -1.425065 0.0
-0.058423 -1.481810 0.0
-0.052042 -1.503654 0.0
-0.036299 -1.491457 0.0
-0.013182 -1.414820 0.0
-0.009470 -0.858430 0.0
-0.022823 -0.917795 0.0
-0.026057 -0.915129 0.0
-0.019678 -0.896496 0.0
-0.002616 -0.866870 0.0
0.025118 -0.828309 0.0
0.060751 -0.785422 0.0
0.098206 -0.749297 0.0
0.131321 -0.727836 0.0
0.157294 -0.719139 0.0
0.175908 -0.720853 0.0
0.187753 -0.732127 0.0
0.193349 -0.753528 0.0
0.192889 -0.786390 0.0
0.186332 -0.832011 0.0
0.173586 -0.891034 0.0
0.154792 -0.962711 0.0
0.130518 -1.044991 0.0
0.101787 -1.134435 0.0
0.070176 -1.227223 0.0
0.038142 -1.320030 0.0
0.009701 -1.407207 0.0
-0.010199 -1.475179 0.0
-0.018831 -1.508033 0.0
-0.017090 -1.504563 0.0
-0.006960 -1.434962 0.0
-0.006364 -0.842595 0.0
-0.013781 -0.912861 0.0
-0.011854 -0.918757 0.0
-0.001720 -0.909381 0.0
0.017348 -0.890115 0.0
0.046427 -0.861878 0.0
0.085237 -0.826296 0.0
0.129880 -0.790520 0.0
0.173866 -0.763714 0.0
0.212123 -0.747490 0.0
0.242411 -0.741404 0.0
0.264227 -0.745238 0.0
0.277745 -0.759531 0.0
0.283193 -0.785376 0.0
0.280644 -0.823920 0.0
0.270071 -0.875805 0.0
0.251569 -0.940644 0.0
0.225592 -1.016805 0.0
0.193115 -1.101412 0.0
0.155704 -1.191224 0.0
0.115547 -1.283837 0.0
0.075946 -1.375357 0.0
0.041751 -1.452934 0.0
0.017463 -1.497359 0.0
0.003952 -1.503468 0.0
-0.000157 -1.442079 0.0
-0.002906 -0.833325 0.0
-0.004103 -0.913517 0.0
0.002959 -0.927089 0.0
0.016969 -0.925193 0.0
0.038025 -0.914427 0.0
0.067283 -0.895902 0.0
0.105729 -0.869529 0.0
0.152043 -0.838244 0.0
0.201526 -0.809461 0.0
0.248552 -0.787027 0.0
0.289092 -0.772695 0.0
0.320926 -0.767597 0.0
0.343098 -0.772861 0.0
0.355313 -0.789709 0.0
0.357533 -0.819258 0.0
0.349811 -0.862173 0.0
0.332348 -0.918313 0.0
0.305664 -0.986475 0.0
0.270790 -1.064391 0.0
0.229355 -1.149399 0.0
0.183555 -1.239706 0.0
0.136308 -1.332640 0.0
0.091641 -1.416789 0.0
0.054043 -1.471618 0.0
0.025742 -1.487397 0.0
0.006968 -1.435267 0.0
0.000937 -0.831356 0.0
0.006170 -0.919521 0.0
0.018106 -0.940082 0.0
0.036071 -0.944176 0.0
0.059565 -0.939995 0.0
0.089248 -0.929276 0.0
0.126142 -0.911495 0.0
0.170392 -0.886841 0.0
0.219613 -0.859568 0.0
0.269425 -0.833756 0.0
0.315477 -0.812557 0.0
0.354392 -0.798485 0.0
0.383919 -0.793671 0.0
0.402741 -0.799936 0.0
0.410209 -0.818720 0.0
0.406138 -0.850919 0.0
0.390721 -0.896687 0.0
0.364571 -0.955266 0.0
0.328829 -1.024983 0.0
0.285254 -1.103797 0.0
0.236210 -1.190465 0.0
0.184524 -1.282948 0.0
0.133421 -1.370710 0.0
0.086442 -1.433118 0.0
0.046163 -1.457317 0.0
0.013944 -1.414354 0.0
0.004965 -0.837258 0.0
0.016640 -0.930528 0.0
0.033114 -0.957486 0.0
0.054924 -0.966545 0.0
0.081218 -0.967413 0.0
0.112119 -0.962442 0.0
0.148088 -0.951191 0.0
0.189374 -0.932681 0.0
0.234944 -0.908519 0.0
0.282146 -0.881819 0.0
0.327631 -0.856032 0.0
0.368159 -0.834454 0.0
0.400986 -0.820055 0.0
0.423995 -0.815382 0.0
0.435728 -0.822474 0.0
0.435374 -0.842740 0.0
0.422767 -0.876842 0.0
0.398389 -0.924583 0.0
0.363407 -0.984942 0.0
0.319736 -1.056593 0.0
0.269994 -1.138884 0.0
0.217050 -1.229900 0.0
0.163385 -1.318990 0.0
0.111242 -1.385715 0.0
0.062805 -1.416004 0.0
0.019883 -1.380527 0.0
0.008715 -0.850938 0.0
0.026628 -0.946435 0.0
0.047504 -0.978930 0.0
0.072830 -0.992238 0.0
0.101936 -0.997121 0.0
0.134632 -0.996330 0.0
0.170762 -0.989402 0.0
0.209945 -0.974939 0.0
0.251274 -0.953160 0.0
0.293137 -0.926243 0.0
0.333470 -0.897425 0.0
0.370071 -0.870189 0.0
0.400765 -0.847841 0.0
0.423499 -0.833339 0.0
0.436452 -0.829204 0.0
0.438233 -0.837436 0.0
0.428083 -0.859389 0.0
0.406054 -0.895630 0.0
0.373133 -0.945992 0.0
0.331332 -1.010071 0.0
0.283536 -1.087868 0.0
0.232568 -1.177004 0.0
0.180011 -1.265664 0.0
0.126699 -1.333586 0.0