# vtk DataFile Version 3.0
Vector Field
ASCII
DATASET RECTILINEAR_GRID
DIMENSIONS 26 100 1
X_COORDINATES 26 double
0.050000 0.150000 0.250000 0.350000 0.450000 0.550000 0.650000 0.750000 0.850000 0.950000 1.050000 1.150000 1.250000 1.350000 1.450000 1.550000 1.650000 1.750000 1.850000 1.950000 2.050000 2.150000 2.250000 2.350000 2.450000 2.550000 
Y_COORDINATES 100 double
0.050000 0.150000 0.250000 0.350000 0.450000 0.550000 0.650000 0.750000 0.850000 0.950000 1.050000 1.150000 1.250000 1.350000 1.450000 1.550000 1.650000 1.750000 1.850000 1.950000 2.050000 2.150000 2.250000 2.350000 2.450000 2.550000 2.650000 2.750000 2.850000 2.950000 3.050000 3.150000 3.250000 3.350000 3.450000 3.550000 3.650000 3.750000 3.850000 3.950000 4.050000 4.150000 4.250000 4.350000 4.450000 4.550000 4.650000 4.750000 4.850000 4.950000 5.050000 5.150000 5.250000 5.350000 5.450000 5.550000 5.650000 5.750000 5.850000 5.950000 6.050000 6.150000 6.250000 6.350000 6.450000 6.550000 6.650000 6.750000 6.850000 6.950000 7.050000 7.150000 7.250000 7.350000 7.450000 7.550000 7.650000 7.750000 7.850000 7.950000 8.050000 8.150000 8.250000 8.350000 8.450000 8.550000 8.650000 8.750000 8.850000 8.950000 9.050000 9.150000 9.250000 9.350000 9.450000 9.550000 9.650000 9.750000 9.850000 9.950000 
Z_COORDINATES 1 double
0.0
POINT_DATA 2600
VECTORS Vektorfeld double
-0.000906 -0.762000 0.0
-0.002598 -0.859050 0.0
-0.004152 -0.861290 0.0
-0.005721 -0.860208 0.0
-0.007399 -0.858516 0.0
-0.009265 -0.856424 0.0
-0.011411 -0.854494 0.0
-0.013923 -0.854084 0.0
-0.016857 -0.857328 0.0
-0.020198 -0.866330 0.0
-0.023867 -0.882210 0.0
-0.027740 -0.904923 0.0
-0.031675 -0.933745 0.0
-0.035507 -0.967757 0.0
-0.039035 -1.005989 0.0
-0.042018 -1.047333 0.0
-0.044171 -1.090394 0.0
-0.045190 -1.133381 0.0
-0.044775 -1.174049 0.0
-0.042690 -1.209676 0.0
-0.038828 -1.237136 0.0
-0.033292 -1.253017 0.0
-0.026447 -1.253481 0.0
-0.018887 -1.232301 0.0
-0.011276 -1.172439 0.0
-0.003770 -1.012444 0.0
-0.000608 -0.760486 0.0
-0.001851 -0.857630 0.0
-0.002977 -0.860030 0.0
-0.003955 -0.858920 0.0
-0.004991 -0.857091 0.0
-0.006235 -0.854738 0.0
-0.007879 -0.852390 0.0
-0.010157 -0.851397 0.0
-0.013271 -0.853967 0.0
-0.017279 -0.862342 0.0
-0.022069 -0.877740 0.0
-0.027447 -0.900142 0.0
-0.033206 -0.928831 0.0
-0.039129 -0.962915 0.0
-0.044951 -1.001480 0.0
-0.050323 -1.043487 0.0
-0.054808 -1.087602 0.0
-0.057894 -1.132069 0.0
-0.059042 -1.174627 0.0
-0.057762 -1.212462 0.0
-0.053736 -1.242239 0.0
-0.046982 -1.260205 0.0
-0.037993 -1.262127 0.0
-0.027680 -1.241527 0.0
-0.017100 -1.181404 0.0
-0.005936 -1.022150 0.0
-0.000476 -0.759401 0.0
-0.001320 -0.856628 0.0
-0.001874 -0.859351 0.0
-0.002206 -0.858290 0.0
-0.002530 -0.856361 0.0
-0.003017 -0.853738 0.0
-0.003896 -0.850869 0.0
-0.005486 -0.849050 0.0
-0.008121 -0.850565 0.0
-0.011994 -0.857864 0.0
-0.017068 -0.872352 0.0
-0.023148 -0.894071 0.0
-0.029988 -0.922303 0.0
-0.037325 -0.956183 0.0
-0.044837 -0.994878 0.0
-0.052105 -1.037449 0.0
-0.058593 -1.082669 0.0
-0.063660 -1.128850 0.0
-0.066612 -1.173746 0.0
-0.066781 -1.214455 0.0
-0.063665 -1.247389 0.0
-0.057135 -1.268339 0.0
-0.047609 -1.272509 0.0
-0.035963 -1.253103 0.0
-0.022988 -1.193382 0.0
-0.008119 -1.036206 0.0
-0.000376 -0.758549 0.0
-0.000838 -0.856175 0.0
-0.000761 -0.859326 0.0
-0.000345 -0.858400 0.0
0.000182 -0.856454 0.0
0.000658 -0.853634 0.0
0.000850 -0.850286 0.0
0.000393 -0.847586 0.0
-0.001174 -0.847828 0.0
-0.004220 -0.853683 0.0
-0.008859 -0.866822 0.0
-0.014958 -0.887423 0.0
-0.022269 -0.914799 0.0
-0.030501 -0.948118 0.0
-0.039302 -0.986631 0.0
-0.048208 -1.029522 0.0
-0.056620 -1.075696 0.0
-0.063807 -1.123568 0.0
-0.068943 -1.170939 0.0
-0.071183 -1.214853 0.0
-0.069801 -1.251489 0.0
-0.064420 -1.276149 0.0
-0.055250 -1.283395 0.0
-0.042985 -1.266129 0.0
-0.028107 -1.208209 0.0
-0.010015 -1.054339 0.0
-0.000295 -0.757879 0.0
-0.000396 -0.856283 0.0
0.000335 -0.860025 0.0
0.001571 -0.859354 0.0
0.003066 -0.857521 0.0
0.004680 -0.854656 0.0
0.006205 -0.850982 0.0
0.007272 -0.847498 0.0
0.007331 -0.846408 0.0
0.005820 -0.850546 0.0
0.002403 -0.861903 0.0
-0.002936 -0.880904 0.0
-0.009996 -0.906946 0.0
-0.018488 -0.939246 0.0
-0.028052 -0.977139 0.0
-0.038217 -1.019942 0.0
-0.048360 -1.066720 0.0
-0.057697 -1.116021 0.0
-0.065302 -1.165745 0.0
-0.070159 -1.212950 0.0
-0.071278 -1.253655 0.0
-0.067948 -1.282693 0.0
-0.060051 -1.293918 0.0
-0.048014 -1.279909 0.0
-0.032010 -1.225311 0.0
-0.011493 -1.075847 0.0
-0.000231 -0.757353 0.0
-0.000003 -0.856935 0.0
0.001376 -0.861481 0.0
0.003471 -0.861229 0.0
0.006016 -0.859686 0.0
0.008895 -0.856984 0.0
0.011946 -0.853230 0.0
0.014828 -0.849197 0.0
0.016953 -0.846892 0.0
0.017604 -0.849203 0.0
0.016207 -0.858431 0.0
0.012503 -0.875333 0.0
0.006532 -0.899487 0.0
-0.001470 -0.930211 0.0
-0.011151 -0.966929 0.0
-0.022065 -1.009074 0.0
-0.033611 -1.055899 0.0
-0.044991 -1.106124 0.0
-0.055218 -1.157809 0.0
-0.063121 -1.208127 0.0
-0.067422 -1.253058 0.0
-0.067001 -1.287041 0.0
-0.061305 -1.303163 0.0
-0.050431 -1.293576 0.0
-0.034276 -1.243802 0.0
-0.012404 -1.099744 0.0
-0.000186 -0.756936 0.0
0.000320 -0.858086 0.0
0.002311 -0.863700 0.0
0.005275 -0.864070 0.0
0.008912 -0.863027 0.0
0.013130 -0.860740 0.0
0.017816 -0.857211 0.0
0.022687 -0.852969 0.0
0.027167 -0.849726 0.0
0.030435 -0.850289 0.0
0.031692 -0.857204 0.0
0.030426 -0.871590 0.0
0.026473 -0.893307 0.0
0.019903 -0.921819 0.0
0.010922 -0.956658 0.0
-0.000092 -0.997417 0.0
-0.012555 -1.043548 0.0
-0.025699 -1.093950 0.0
-0.038526 -1.146930 0.0
-0.049740 -1.199890 0.0
-0.057784 -1.248950 0.0
-0.061064 -1.288290 0.0
-0.058497 -1.310177 0.0
-0.049791 -1.306142 0.0
-0.034600 -1.262583 0.0
-0.012643 -1.124792 0.0
-0.000169 -0.756581 0.0
0.000548 -0.859664 0.0
0.003094 -0.866660 0.0
0.006909 -0.867890 0.0
0.011646 -0.867581 0.0
0.017222 -0.865979 0.0
0.023570 -0.863007 0.0
0.030479 -0.858952 0.0
0.037429 -0.855172 0.0
0.043565 -0.854247 0.0
0.047905 -0.858843 0.0
0.049671 -0.870450 0.0
0.048452 -0.889275 0.0
0.044150 -0.914978 0.0
0.036843 -0.947211 0.0
0.026716 -0.985723 0.0
0.014103 -1.030167 0.0
-0.000322 -1.079760 0.0
-0.015508 -1.133107 0.0
-0.030082 -1.187925 0.0
-0.042248 -1.240705 0.0
-0.049915 -1.285587 0.0
-0.051372 -1.313991 0.0
-0.045867 -1.316539 0.0
-0.032835 -1.280409 0.0
-0.012161 -1.149597 0.0
-0.000182 -0.756230 0.0
0.000665 -0.861579 0.0
0.003694 -0.870321 0.0
0.008327 -0.872676 0.0
0.014145 -0.873350 0.0
0.021056 -0.872698 0.0
0.029023 -0.870604 0.0
0.037902 -0.867143 0.0
0.047261 -0.863291 0.0
0.056276 -0.861278 0.0
0.063862 -0.863738 0.0
0.069003 -0.872462 0.0
0.071015 -0.888056 0.0
0.069576 -0.910457 0.0
0.064613 -0.939462 0.0
0.056186 -0.974918 0.0
0.044480 -1.016654 0.0
0.029847 -1.064215 0.0
0.012986 -1.116606 0.0
-0.004707 -1.172159 0.0
-0.021124 -1.227889 0.0
-0.033683 -1.278177 0.0
-0.039970 -1.313657 0.0
-0.038672 -1.323675 0.0
-0.029000 -1.295975 0.0
-0.010973 -1.172731 0.0
-0.000230 -0.755818 0.0
0.000668 -0.863736 0.0
0.004110 -0.874635 0.0
0.009523 -0.878406 0.0
0.016395 -0.880310 0.0
0.024598 -0.880852 0.0
0.034093 -0.879912 0.0
0.044784 -0.877404 0.0
0.056334 -0.873940 0.0
0.068008 -0.871319 0.0
0.078704 -0.871979 0.0
0.087243 -0.877900 0.0
0.092685 -0.890072 0.0
0.094454 -0.908771 0.0
0.092278 -0.934007 0.0
0.086078 -0.965746 0.0
0.075908 -1.003950 0.0
0.061977 -1.048355 0.0
0.044742 -1.098369 0.0
0.025072 -1.153032 0.0
0.004810 -1.210337 0.0
-0.012877 -1.265483 0.0
-0.024633 -1.308308 0.0
-0.028451 -1.326504 0.0
-0.023267 -1.308001 0.0
-0.009148 -1.192852 0.0
-0.000305 -0.755283 0.0
0.000578 -0.866052 0.0
0.004380 -0.879564 0.0
0.010551 -0.885061 0.0
0.018459 -0.888436 0.0
0.027908 -0.890377 0.0
0.038824 -0.890798 0.0
0.051121 -0.889506 0.0
0.064539 -0.886806 0.0
0.078458 -0.884045 0.0
0.091849 -0.883340 0.0
0.103471 -0.886702 0.0
0.112193 -0.895434 0.0
0.117192 -0.910177 0.0
0.117973 -0.931207 0.0
0.114288 -0.958661 0.0
0.106060 -0.992637 0.0
0.093376 -1.033054 0.0
0.076542 -1.079601 0.0
0.056203 -1.131790 0.0
0.033659 -1.188772 0.0
0.011555 -1.247256 0.0
-0.005991 -1.297234 0.0
-0.015654 -1.324098 0.0
-0.015932 -1.315312 0.0
-0.006796 -1.208796 0.0
-0.000396 -0.754582 0.0
0.000443 -0.868475 0.0
0.004592 -0.885092 0.0
0.011531 -0.892643 0.0
0.020486 -0.897718 0.0
0.031155 -0.901214 0.0
0.043393 -0.903114 0.0
0.057082 -0.903175 0.0
0.071999 -0.901472 0.0
0.087637 -0.898937 0.0
0.103096 -0.897298 0.0
0.117185 -0.898454 0.0
0.128684 -0.903903 0.0
0.136586 -0.914609 0.0
0.140178 -0.931148 0.0
0.139027 -0.953882 0.0
0.132911 -0.983072 0.0
0.121801 -1.018825 0.0
0.105886 -1.061082 0.0
0.085655 -1.109740 0.0
0.062118 -1.164741 0.0
0.037328 -1.224392 0.0
0.014927 -1.280151 0.0
-0.000875 -1.315716 0.0
-0.007377 -1.316914 0.0
-0.004057 -1.219649 0.0
-0.000471 -0.753715 0.0
0.000353 -0.871005 0.0
0.004887 -0.891244 0.0
0.012651 -0.901194 0.0
0.022701 -0.908173 0.0
0.034599 -0.913326 0.0
0.048090 -0.916731 0.0
0.062980 -0.918138 0.0
0.079036 -0.917482 0.0
0.095833 -0.915364 0.0
0.112626 -0.913124 0.0
0.128358 -0.912448 0.0
0.141845 -0.914895 0.0
0.151991 -0.921665 0.0
0.157927 -0.933620 0.0
0.159039 -0.951372 0.0
0.154957 -0.975384 0.0
0.145526 -1.005972 0.0
0.130832 -1.043325 0.0
0.111249 -1.087684 0.0
0.087595 -1.139606 0.0
0.061504 -1.198647 0.0
0.035957 -1.257948 0.0
0.014942 -1.301103 0.0
0.001966 -1.312050 0.0
-0.001081 -1.224787 0.0
-0.000483 -0.752761 0.0
0.000440 -0.873706 0.0
0.005462 -0.898100 0.0
0.014158 -0.910798 0.0
0.025395 -0.919855 0.0
0.038561 -0.926707 0.0
0.053264 -0.931544 0.0
0.069202 -0.934151 0.0
0.086080 -0.934402 0.0
0.103515 -0.932676 0.0
0.120902 -0.929991 0.0
0.137372 -0.927783 0.0
0.151881 -0.927555 0.0
0.163366 -0.930636 0.0
0.170890 -0.938108 0.0
0.173718 -0.950824 0.0
0.171337 -0.969469 0.0
0.163469 -0.994588 0.0
0.150089 -1.026635 0.0
0.131483 -1.066186 0.0
0.108346 -1.114312 0.0
0.082018 -1.171522 0.0
0.054857 -1.232365 0.0
0.030219 -1.281033 0.0
0.011499 -1.300424 0.0
0.002000 -1.223867 0.0
-0.000354 -0.751924 0.0
0.000886 -0.876706 0.0
0.006560 -0.905797 0.0
0.016345 -0.921582 0.0
0.028886 -0.932849 0.0
0.043378 -0.941372 0.0
0.059272 -0.947477 0.0
0.076127 -0.951010 0.0
0.093557 -0.951852 0.0
0.111174 -0.950278 0.0
0.128486 -0.947088 0.0
0.144822 -0.943493 0.0
0.159345 -0.940877 0.0
0.171138 -0.940592 0.0
0.179308 -0.943847 0.0
0.183075 -0.951681 0.0
0.181835 -0.964991 0.0
0.175197 -0.984559 0.0
0.163032 -1.011121 0.0
0.145545 -1.045608 0.0
0.123359 -1.089566 0.0
0.097620 -1.144201 0.0
0.070137 -1.205042 0.0
0.043469 -1.257049 0.0
0.020457 -1.282677 0.0
0.005104 -1.216762 0.0
0.000018 -0.751589 0.0
0.001918 -0.880181 0.0
0.008455 -0.914532 0.0
0.019521 -0.933698 0.0
0.033490 -0.947243 0.0
0.049357 -0.957337 0.0
0.066405 -0.964454 0.0
0.084042 -0.968525 0.0
0.101774 -0.969499 0.0
0.119178 -0.967653 0.0
0.135841 -0.963688 0.0
0.151276 -0.958664 0.0
0.164883 -0.953836 0.0
0.175961 -0.950504 0.0
0.183764 -0.949907 0.0
0.187568 -0.953192 0.0
0.186744 -0.961416 0.0
0.180827 -0.975579 0.0
0.169608 -0.996717 0.0
0.153233 -1.026150 0.0
0.132290 -1.065895 0.0
0.107790 -1.117633 0.0
0.081049 -1.177386 0.0
0.053771 -1.230759 0.0
0.028113 -1.260297 0.0
0.007991 -1.203667 0.0
0.000722 -0.752329 0.0
0.003759 -0.884378 0.0
0.011430 -0.924541 0.0
0.023973 -0.947298 0.0
0.039468 -0.963109 0.0
0.056717 -0.974586 0.0
0.074833 -0.982368 0.0
0.093076 -0.986492 0.0
0.110841 -0.987028 0.0
0.127662 -0.984349 0.0
0.143182 -0.979174 0.0
0.157074 -0.972504 0.0
0.168971 -0.965500 0.0
0.178426 -0.959373 0.0
0.184908 -0.955322 0.0
0.187835 -0.954508 0.0
0.186635 -0.958076 0.0
0.180833 -0.967200 0.0
0.170181 -0.983224 0.0
0.154810 -1.007897 0.0
0.135316 -1.043711 0.0
0.112595 -1.092596 0.0
0.087470 -1.150557 0.0
0.060783 -1.203623 0.0
0.033960 -1.234952 0.0
0.010373 -1.185304 0.0
0.001769 -0.754820 0.0
0.006556 -0.889713 0.0
0.015744 -0.936065 0.0
0.029925 -0.962498 0.0
0.046986 -0.980465 0.0
0.065551 -0.993044 0.0
0.084572 -1.001047 0.0
0.103167 -1.004651 0.0
0.120635 -1.004101 0.0
0.136481 -0.999944 0.0
0.150402 -0.993019 0.0
0.162211 -0.984360 0.0
0.171757 -0.975087 0.0
0.178848 -0.966331 0.0
0.183202 -0.959200 0.0
0.184439 -0.954795 0.0
0.182116 -0.954266 0.0
0.175815 -0.958908 0.0
0.165324 -0.970373 0.0
0.150833 -0.990886 0.0
0.132986 -1.023381 0.0
0.112532 -1.069751 0.0
0.089741 -1.125486 0.0
0.064597 -1.176863 0.0
0.037823 -1.208115 0.0
0.012100 -1.162830 0.0
0.003162 -0.759750 0.0
0.010383 -0.896791 0.0
0.021535 -0.949326 0.0
0.037477 -0.979359 0.0
0.056067 -0.999254 0.0
0.075794 -1.012547 0.0
0.095458 -1.020230 0.0
0.114052 -1.022658 0.0
0.130806 -1.020315 0.0
0.145227 -1.013998 0.0
0.157083 -1.004742 0.0
0.166327 -0.993690 0.0
0.173006 -0.981981 0.0
0.177165 -0.970687 0.0
0.178774 -0.960808 0.0
0.177683 -0.953333 0.0
0.173625 -0.949347 0.0
0.166312 -0.950212 0.0
0.155654 -0.957920 0.0
0.141999 -0.975193 0.0
0.126068 -1.005296 0.0
0.108370 -1.049685 0.0
0.088496 -1.102888 0.0
0.065600 -1.151422 0.0
0.039814 -1.180996 0.0
0.013159 -1.137571 0.0
0.004890 -0.767802 0.0
0.015217 -0.906287 0.0
0.028769 -0.964533 0.0
0.046552 -0.997877 0.0
0.066562 -1.019336 0.0
0.087205 -1.032836 0.0
0.107147 -1.039548 0.0
0.125279 -1.040065 0.0
0.140801 -1.035184 0.0
0.153269 -1.026019 0.0
0.162557 -1.013865 0.0
0.168772 -1.000026 0.0
0.172150 -0.985702 0.0
0.172957 -0.971932 0.0
0.171397 -0.959612 0.0
0.167547 -0.949588 0.0
0.161347 -0.942835 0.0
0.152689 -0.940753 0.0
0.141718 -0.945750 0.0
0.129048 -0.961037 0.0
0.115458 -0.989931 0.0
0.101026 -1.032919 0.0
0.084514 -1.083268 0.0
0.064335 -1.127967 0.0
0.040213 -1.154541 0.0
0.013627 -1.110785 0.0
0.006906 -0.779599 0.0
0.020912 -0.918824 0.0
0.037227 -0.981863 0.0
0.056881 -1.017983 0.0
0.078131 -1.040490 0.0
0.099360 -1.053554 0.0
0.119117 -1.058529 0.0
0.136222 -1.056321 0.0
0.149899 -1.048128 0.0
0.159807 -1.035451 0.0
0.165973 -1.019887 0.0
0.168689 -1.002934 0.0
0.168387 -0.985871 0.0
0.165536 -0.969719 0.0
0.160551 -0.955279 0.0
0.153727 -0.943246 0.0
0.145214 -0.934464 0.0
0.135138 -0.930391 0.0
0.123994 -0.933998 0.0
0.112753 -0.948877 0.0
0.102123 -0.977872 0.0
0.091460 -1.019882 0.0
0.078588 -1.066922 0.0
0.061375 -1.106922 0.0
0.039367 -1.129457 0.0
0.013620 -1.083537 0.0
0.009123 -0.795629 0.0
0.027194 -0.934871 0.0
0.046500 -1.001437 0.0
0.067993 -1.039556 0.0
0.090248 -1.062423 0.0
0.111656 -1.074258 0.0
0.130676 -1.076603 0.0
0.146100 -1.070777 0.0
0.157235 -1.058483 0.0
0.163908 -1.041676 0.0
0.166361 -1.022282 0.0
0.165104 -1.001998 0.0
0.160780 -0.982181 0.0
0.154058 -0.963836 0.0
0.145548 -0.947668 0.0
0.135743 -0.934227 0.0
0.125012 -0.924240 0.0
0.113766 -0.919293 0.0
0.102972 -0.923158 0.0
0.093967 -0.939470 0.0
0.087073 -0.969756 0.0
0.080579 -1.010841 0.0
0.071415 -1.053927 0.0
0.057221 -1.088508 0.0
0.037599 -1.106241 0.0
0.013254 -1.056662 0.0
0.011414 -0.816166 0.0
0.033686 -0.954676 0.0
0.056033 -1.023285 0.0
0.079252 -1.062418 0.0
0.102217 -1.084780 0.0
0.123330 -1.094422 0.0
0.140979 -1.093108 0.0
0.153986 -1.082702 0.0
0.161817 -1.065523 0.0
0.164542 -1.044035 0.0
0.162674 -1.020509 0.0
0.156984 -0.996824 0.0
0.148347 -0.974394 0.0
0.137636 -0.954190 0.0
0.125650 -0.936819 0.0
0.113080 -0.922701 0.0
0.100535 -0.912491 0.0
0.088772 -0.908033 0.0
0.079317 -0.914169 0.0
0.073684 -0.933820 0.0
0.071298 -0.966126 0.0
0.069129 -1.005807 0.0
0.063502 -1.044171 0.0
0.052242 -1.072810 0.0
0.035163 -1.085238 0.0
0.012625 -1.030783 0.0
0.013628 -0.841209 0.0
0.039948 -0.978224 0.0
0.065181 -1.047318 0.0
0.089908 -1.086331 0.0
0.113217 -1.107141 0.0
0.133481 -1.113439 0.0
0.149043 -1.107303 0.0
0.158829 -1.091300 0.0
0.162551 -1.068478 0.0
0.160603 -1.041856 0.0
0.153827 -1.014043 0.0
0.143293 -0.987066 0.0
0.130133 -0.962355 0.0
0.115438 -0.940822 0.0
0.100210 -0.922972 0.0
0.085360 -0.909128 0.0
0.071790 -0.899948 0.0
0.060674 -0.897696 0.0
0.054027 -0.908405 0.0
0.053037 -0.932962 0.0
0.055636 -0.967198 0.0
0.057563 -1.004493 0.0
0.055108 -1.037404 0.0
0.046639 -1.059847 0.0
0.032218 -1.066701 0.0
0.011797 -1.006361 0.0
0.015613 -0.870450 0.0
0.045541 -1.005230 0.0
0.073286 -1.073291 0.0
0.099167 -1.110966 0.0
0.122348 -1.128996 0.0
0.141109 -1.130610 0.0
0.153780 -1.118364 0.0
0.159480 -1.095724 0.0
0.158272 -1.066569 0.0
0.150950 -1.034495 0.0
0.138740 -1.002419 0.0
0.123049 -0.972466 0.0
0.105290 -0.946036 0.0
0.086798 -0.923954 0.0
0.068817 -0.906632 0.0
0.052542 -0.894345 0.0
0.039245 -0.887865 0.0
0.030533 -0.889951 0.0
0.028485 -0.907455 0.0
0.033107 -0.937542 0.0
0.040554 -0.972664 0.0
0.045958 -1.006359 0.0
0.046227 -1.033351 0.0
0.040453 -1.049657 0.0
0.028828 -1.050845 0.0
0.010798 -0.983766 0.0
0.017232 -0.903295 0.0
0.050069 -1.035150 0.0
0.079737 -1.100784 0.0
0.106247 -1.135864 0.0
0.128682 -1.149715 0.0
0.145155 -1.145125 0.0
0.154030 -1.125395 0.0
0.154736 -1.095100 0.0
0.147787 -1.059037 0.0
0.134454 -1.021372 0.0
0.116398 -0.985277 0.0
0.095396 -0.952914 0.0
0.073175 -0.925608 0.0
0.051366 -0.904081 0.0
0.031524 -0.888682 0.0
0.015205 -0.879701 0.0
0.004093 -0.878099 0.0
0.000022 -0.886934 0.0
0.004188 -0.912592 0.0
0.014537 -0.947375 0.0
0.025952 -0.981692 0.0
0.034005 -1.010788 0.0
0.036647 -1.031832 0.0
0.033600 -1.042354 0.0
0.024969 -1.037892 0.0
0.009623 -0.963344 0.0
0.018373 -0.938900 0.0
0.053200 -1.067209 0.0
0.083990 -1.129181 0.0
0.110407 -1.160394 0.0
0.131294 -1.168506 0.0
0.144535 -1.156047 0.0
0.148613 -1.127425 0.0
0.143387 -1.088549 0.0
0.129934 -1.045185 0.0
0.110072 -1.002028 0.0
0.085938 -0.962432 0.0
0.059719 -0.928537 0.0
0.033524 -0.901570 0.0
0.009361 -0.882147 0.0
-0.010819 -0.870593 0.0
-0.025075 -0.867214 0.0
-0.031566 -0.872982 0.0
-0.028940 -0.890606 0.0
-0.017961 -0.924065 0.0
-0.002883 -0.961329 0.0
0.011168 -0.993203 0.0
0.021150 -1.017312 0.0
0.026052 -1.032853 0.0
0.025920 -1.038154 0.0
0.020546 -1.028087 0.0
0.008232 -0.945489 0.0
0.018947 -0.976220 0.0
0.054662 -1.100431 0.0
0.085575 -1.157661 0.0
0.110964 -1.183720 0.0
0.129286 -1.184389 0.0
0.138186 -1.162306 0.0
0.136375 -1.123433 0.0
0.124288 -1.075228 0.0
0.103667 -1.024433 0.0
0.076940 -0.976191 0.0
0.046769 -0.933964 0.0
0.015824 -0.899841 0.0
-0.013281 -0.874965 0.0
-0.037948 -0.859922 0.0
-0.055912 -0.854674 0.0
-0.065447 -0.859342 0.0
-0.065266 -0.874545 0.0
-0.055268 -0.901667 0.0
-0.038444 -0.940807 0.0
-0.020256 -0.977853 0.0
-0.004709 -1.006276 0.0
0.006832 -1.025763 0.0
0.014142 -1.036614 0.0
0.017229 -1.037347 0.0
0.015403 -1.021695 0.0
0.006547 -0.930711 0.0
0.018881 -1.014049 0.0
0.054224 -1.133661 0.0
0.084078 -1.185197 0.0
0.107283 -1.204777 0.0
0.121811 -1.196183 0.0
0.125102 -1.162703 0.0
0.116255 -1.112378 0.0
0.096434 -1.054376 0.0
0.068142 -0.996372 0.0
0.034490 -0.943873 0.0
-0.001259 -0.900363 0.0
-0.035570 -0.868186 0.0
-0.065012 -0.848074 0.0
-0.087162 -0.839996 0.0
-0.100353 -0.843446 0.0
-0.103312 -0.858077 0.0
-0.095735 -0.883568 0.0
-0.079310 -0.919066 0.0
-0.058711 -0.960832 0.0
-0.039053 -0.995675 0.0
-0.022540 -1.020514 0.0
-0.009326 -1.036280 0.0
0.000709 -1.043444 0.0
0.007337 -1.040233 0.0
0.009325 -1.018971 0.0
0.004456 -0.919708 0.0
0.018114 -1.051044 0.0
0.051694 -1.165590 0.0
0.079136 -1.210563 0.0
0.098797 -1.222278 0.0
0.108104 -1.202518 0.0
0.104395 -1.155950 0.0
0.087361 -1.093250 0.0
0.059065 -1.025386 0.0
0.022862 -0.960867 0.0
-0.017282 -0.905581 0.0
-0.056568 -0.863621 0.0
-0.090764 -0.836420 0.0
-0.117410 -0.823753 0.0
-0.134763 -0.824813 0.0
-0.141510 -0.838691 0.0
-0.137253 -0.864130 0.0
-0.123184 -0.899160 0.0
-0.102595 -0.940486 0.0
-0.080485 -0.982121 0.0
-0.060386 -1.014142 0.0
-0.042834 -1.036112 0.0
-0.027491 -1.049239 0.0
-0.014341 -1.053669 0.0
-0.003933 -1.047044 0.0
0.002063 -1.020142 0.0
0.001824 -0.913429 0.0
0.016603 -1.085761 0.0
0.046926 -1.194776 0.0
0.070460 -1.232352 0.0
0.085042 -1.234732 0.0
0.087545 -1.201875 0.0
0.075382 -1.140720 0.0
0.049079 -1.065143 0.0
0.011759 -0.987877 0.0
-0.031769 -0.918646 0.0
-0.075302 -0.864124 0.0
-0.113922 -0.827172 0.0
-0.145069 -0.807526 0.0
-0.166873 -0.804197 0.0
-0.177944 -0.815945 0.0
-0.177784 -0.840972 0.0
-0.167313 -0.876577 0.0
-0.149109 -0.918987 0.0
-0.127052 -0.963304 0.0
-0.105042 -1.003424 0.0
-0.084694 -1.033286 0.0
-0.065628 -1.053586 0.0
-0.047613 -1.065124 0.0
-0.030988 -1.067558 0.0
-0.016665 -1.057887 0.0
-0.006557 -1.025404 0.0
-0.001441 -0.913046 0.0
0.014332 -1.116696 0.0
0.039846 -1.219678 0.0
0.057880 -1.249019 0.0
0.065720 -1.240487 0.0
0.059747 -1.192652 0.0
0.037706 -1.115739 0.0
0.001238 -1.027354 0.0
-0.044131 -0.942976 0.0
-0.090800 -0.873349 0.0
-0.133181 -0.823506 0.0
-0.168479 -0.793872 0.0
-0.194711 -0.783448 0.0
-0.210405 -0.790777 0.0
-0.214945 -0.813753 0.0
-0.209035 -0.849234 0.0
-0.194813 -0.893008 0.0
-0.175407 -0.940167 0.0
-0.154002 -0.985586 0.0
-0.132697 -1.024457 0.0
-0.111718 -1.053580 0.0
-0.090590 -1.073487 0.0
-0.069500 -1.084328 0.0
-0.049177 -1.085302 0.0
-0.030803 -1.072840 0.0
-0.016295 -1.035066 0.0
-0.005154 -0.919640 0.0
0.011324 -1.142352 0.0
0.030495 -1.238707 0.0
0.041403 -1.258930 0.0
0.040794 -1.237806 0.0
0.024699 -1.173265 0.0
-0.008384 -1.080000 0.0
-0.053507 -0.981502 0.0
-0.101878 -0.895087 0.0
-0.147105 -0.829341 0.0
-0.185943 -0.786295 0.0
-0.216271 -0.765458 0.0
-0.236572 -0.765329 0.0
-0.246128 -0.783646 0.0
-0.245438 -0.817033 0.0
-0.236321 -0.860982 0.0
-0.221402 -0.910400 0.0
-0.203238 -0.960345 0.0
-0.183531 -1.006519 0.0
-0.162797 -1.045563 0.0
-0.140700 -1.075549 0.0
-0.117142 -1.096205 0.0
-0.092779 -1.107062 0.0
-0.068672 -1.106997 0.0
-0.046119 -1.092072 0.0
-0.026665 -1.049796 0.0
-0.008961 -0.933755 0.0
0.007651 -1.161328 0.0
0.019055 -1.250306 0.0
0.021285 -1.260468 0.0
0.010622 -1.224996 0.0
-0.016821 -1.142537 0.0
-0.058900 -1.035566 0.0
-0.107155 -0.932557 0.0
-0.154133 -0.848683 0.0
-0.195731 -0.788921 0.0
-0.229604 -0.754006 0.0
-0.254205 -0.742818 0.0
-0.268748 -0.753124 0.0
-0.273553 -0.781490 0.0
-0.270175 -0.823256 0.0
-0.260909 -0.873143 0.0
-0.247888 -0.926180 0.0
-0.232356 -0.978261 0.0
-0.214541 -1.026125 0.0
-0.194061 -1.067171 0.0
-0.170603 -1.099495 0.0
-0.144525 -1.121895 0.0
-0.116871 -1.133389 0.0
-0.088957 -1.132691 0.0
-0.062072 -1.115817 0.0
-0.037212 -1.070366 0.0
-0.012692 -0.955408 0.0
0.003436 -1.172416 0.0
0.005871 -1.253057 0.0
-0.001925 -1.252152 0.0
-0.023538 -1.201036 0.0
-0.059968 -1.102625 0.0
-0.105662 -0.987706 0.0
-0.152863 -0.884961 0.0
-0.196257 -0.805907 0.0
-0.232954 -0.753401 0.0
-0.261315 -0.727292 0.0
-0.280500 -0.725745 0.0
-0.290671 -0.745484 0.0
-0.293146 -0.781850 0.0
-0.290005 -0.829416 0.0
-0.283170 -0.883083 0.0
-0.273611 -0.938820 0.0
-0.261201 -0.993563 0.0
-0.245196 -1.044643 0.0
-0.224904 -1.089426 0.0
-0.200204 -1.125399 0.0
-0.171779 -1.150494 0.0
-0.140954 -1.163269 0.0
-0.109261 -1.162418 0.0
-0.077937 -1.144299 0.0
-0.047479 -1.097203 0.0
-0.016235 -0.984336 0.0
-0.001160 -1.174692 0.0
-0.008540 -1.245834 0.0
-0.026759 -1.233359 0.0
-0.057156 -1.167819 0.0
-0.097850 -1.058718 0.0
-0.142929 -0.940840 0.0
-0.186584 -0.840971 0.0
-0.225093 -0.767995 0.0
-0.256427 -0.723282 0.0
-0.279622 -0.705857 0.0
-0.294664 -0.712953 0.0
-0.302625 -0.740144 0.0
-0.305408 -0.781932 0.0
-0.304902 -0.832983 0.0
-0.302061 -0.889192 0.0
-0.296601 -0.947729 0.0
-0.287428 -1.006237 0.0
-0.273332 -1.062069 0.0
-0.253548 -1.112077 0.0
-0.228057 -1.152938 0.0
-0.197686 -1.181751 0.0
-0.163956 -1.196567 0.0
-0.128614 -1.196155 0.0
-0.092911 -1.177588 0.0
-0.057013 -1.130270 0.0
-0.019477 -1.020048 0.0
-0.005973 -1.167560 0.0
-0.023093 -1.228467 0.0
-0.050001 -1.205599 0.0
-0.085415 -1.129769 0.0
-0.126135 -1.015354 0.0
-0.167556 -0.897705 0.0
-0.206020 -0.801986 0.0
-0.239037 -0.735454 0.0
-0.265231 -0.698295 0.0
-0.284289 -0.688590 0.0
-0.296963 -0.702504 0.0
-0.304918 -0.734676 0.0
-0.310067 -0.779468 0.0
-0.313584 -0.832436 0.0
-0.315343 -0.890821 0.0
-0.314137 -0.952765 0.0
-0.308357 -1.016156 0.0
-0.296587 -1.078016 0.0
-0.277969 -1.134531 0.0
-0.252416 -1.181527 0.0
-0.220739 -1.215210 0.0
-0.184581 -1.232996 0.0
-0.145928 -1.233721 0.0
-0.106178 -1.215473 0.0
-0.065362 -1.169098 0.0
-0.022296 -1.061822 0.0
-0.010609 -1.150978 0.0
-0.036118 -1.202419 0.0
-0.068757 -1.172099 0.0
-0.105469 -1.091142 0.0
-0.142857 -0.975874 0.0
-0.178364 -0.860259 0.0
-0.210511 -0.768822 0.0
-0.237873 -0.708238 0.0
-0.259555 -0.677634 0.0
-0.275754 -0.673993 0.0
-0.287716 -0.692466 0.0
-0.297251 -0.727224 0.0
-0.305834 -0.773189 0.0
-0.313787 -0.827244 0.0
-0.320157 -0.887885 0.0
-0.323230 -0.953834 0.0
-0.321162 -1.022936 0.0
-0.312377 -1.091791 0.0
-0.295823 -1.155928 0.0
-0.271195 -1.210311 0.0
-0.239152 -1.250147 0.0
-0.201358 -1.272011 0.0
-0.160052 -1.274665 0.0
-0.116932 -1.257400 0.0
-0.072083 -1.212836 0.0
-0.024558 -1.108675 0.0
-0.014450 -1.125920 0.0
-0.046127 -1.170290 0.0
-0.081435 -1.136281 0.0
-0.116412 -1.055271 0.0
-0.148016 -0.942754 0.0
-0.175845 -0.830042 0.0
-0.200718 -0.742019 0.0
-0.222364 -0.686032 0.0
-0.240184 -0.660339 0.0
-0.254557 -0.660716 0.0
-0.266838 -0.681500 0.0
-0.278602 -0.716892 0.0
-0.290720 -0.762820 0.0
-0.302832 -0.817547 0.0
-0.313522 -0.880521 0.0
-0.320875 -0.950772 0.0
-0.322917 -1.026024 0.0
-0.317888 -1.102516 0.0
-0.304464 -1.175182 0.0
-0.282017 -1.238131 0.0
-0.250907 -1.285480 0.0
-0.212684 -1.312695 0.0
-0.169800 -1.318170 0.0
-0.124376 -1.302440 0.0
-0.076729 -1.260292 0.0
-0.026120 -1.159353 0.0
-0.017089 -1.094382 0.0
-0.052348 -1.134892 0.0
-0.087705 -1.101013 0.0
-0.118860 -1.024406 0.0
-0.143105 -0.917771 0.0
-0.161804 -0.808496 0.0
-0.178272 -0.722226 0.0
-0.193843 -0.668608 0.0
-0.208074 -0.645712 0.0
-0.221048 -0.647995 0.0
-0.233833 -0.669153 0.0
-0.247563 -0.703745 0.0
-0.262580 -0.748832 0.0
-0.278136 -0.803868 0.0
-0.292663 -0.868983 0.0
-0.304203 -0.943417 0.0
-0.310699 -1.024841 0.0
-0.310197 -1.109230 0.0
-0.301079 -1.191010 0.0
-0.282323 -1.263506 0.0
-0.253842 -1.319697 0.0
-0.216877 -1.353665 0.0
-0.173971 -1.362989 0.0
-0.127729 -1.349288 0.0
-0.078862 -1.309958 0.0
-0.026842 -1.212316 0.0
-0.018403 -1.058890 0.0
-0.054719 -1.098808 0.0
-0.088135 -1.068325 0.0
-0.114349 -0.999724 0.0
-0.130581 -0.901975 0.0
-0.139067 -0.797106 0.0
-0.145603 -0.710612 0.0
-0.154032 -0.656222 0.0
-0.164253 -0.633646 0.0
-0.175478 -0.635861 0.0
-0.188130 -0.655850 0.0
-0.202849 -0.688600 0.0
-0.219628 -0.732181 0.0
-0.237605 -0.786986 0.0
-0.255263 -0.853680 0.0
-0.270702 -0.931741 0.0
-0.281824 -1.018899 0.0
-0.286527 -1.110970 0.0
-0.282927 -1.201989 0.0
-0.269573 -1.284637 0.0
-0.245790 -1.350831 0.0
-0.212259 -1.393027 0.0
-0.171393 -1.407400 0.0
-0.126249 -1.396262 0.0
-0.078072 -1.360028 0.0
-0.026590 -1.265748 0.0
-0.018466 -1.022021 0.0
-0.053628 -1.064199 0.0
-0.083702 -1.039444 0.0
-0.104674 -0.981418 0.0
-0.113252 -0.895471 0.0
-0.111220 -0.797157 0.0
-0.106072 -0.709174 0.0
-0.105303 -0.650000 0.0
-0.110103 -0.624848 0.0
-0.118383 -0.625154 0.0
-0.129569 -0.642719 0.0
-0.143798 -0.672784 0.0
-0.160862 -0.714153 0.0
-0.179969 -0.767931 0.0
-0.199782 -0.835264 0.0
-0.218551 -0.915951 0.0
-0.234222 -1.007897 0.0
-0.244626 -1.106865 0.0
-0.247684 -1.206637 0.0
-0.241536 -1.299490 0.0
-0.224792 -1.376506 0.0
-0.197297 -1.428377 0.0
-0.161007 -1.449206 0.0
-0.119289 -1.441319 0.0
-0.074015 -1.408422 0.0
-0.025256 -1.317594 0.0
-0.017451 -0.986104 0.0
-0.049623 -1.032784 0.0
-0.075377 -1.015030 0.0
-0.091318 -0.968920 0.0
-0.093530 -0.897180 0.0
-0.082094 -0.808916 0.0
-0.064220 -0.720437 0.0
-0.051414 -0.652312 0.0
-0.048046 -0.621103 0.0
-0.051152 -0.617512 0.0
-0.058915 -0.631412 0.0
-0.070831 -0.657946 0.0
-0.086474 -0.696283 0.0
-0.105178 -0.747990 0.0
-0.125880 -0.814689 0.0
-0.147087 -0.896550 0.0
-0.166920 -0.991793 0.0
-0.183249 -1.096236 0.0
-0.193901 -1.203556 0.0
-0.196677 -1.305942 0.0
-0.189407 -1.394067 0.0
-0.170816 -1.456902 0.0
-0.142008 -1.485780 0.0
-0.106378 -1.482094 0.0
-0.066459 -1.452840 0.0
-0.022772 -1.365622 0.0
-0.015549 -0.953103 0.0
-0.043248 -1.005913 0.0
-0.063916 -0.995478 0.0
-0.075130 -0.961318 0.0
-0.072705 -0.904994 0.0
-0.054605 -0.830638 0.0
-0.025348 -0.745847 0.0
0.001727 -0.666783 0.0
0.017442 -0.625715 0.0
0.023123 -0.615475 0.0
0.021451 -0.624015 0.0
0.013974 -0.645948 0.0
0.001634 -0.680298 0.0
-0.014942 -0.728695 0.0
-0.034986 -0.793239 0.0
-0.057388 -0.874391 0.0
-0.080637 -0.970871 0.0
-0.102758 -1.078708 0.0
-0.121570 -1.191619 0.0
-0.134648 -1.302025 0.0
-0.139084 -1.400819 0.0
-0.132269 -1.475556 0.0
-0.114011 -1.514191 0.0
-0.087329 -1.515994 0.0
-0.055345 -1.490842 0.0
-0.019129 -1.407523 0.0
-0.012937 -0.924618 0.0
-0.035000 -0.984637 0.0
-0.049914 -0.981173 0.0
-0.056447 -0.957875 0.0
-0.050771 -0.916538 0.0
-0.029445 -0.858519 0.0
0.006630 -0.783299 0.0
0.047295 -0.697071 0.0
0.079412 -0.643259 0.0
0.098348 -0.622547 0.0
0.106212 -0.623136 0.0
0.105758 -0.638896 0.0
0.098832 -0.668084 0.0
0.086397 -0.711897 0.0
0.068897 -0.772495 0.0
0.046898 -0.850734 0.0
0.021468 -0.945848 0.0
-0.005829 -1.054314 0.0
-0.032786 -1.170245 0.0
-0.056851 -1.286257 0.0
-0.074610 -1.394392 0.0
-0.082033 -1.481374 0.0
-0.077242 -1.531421 0.0
-0.062338 -1.540351 0.0
-0.040828 -1.519980 0.0
-0.014389 -1.441041 0.0
-0.009770 -0.901911 0.0
-0.025361 -0.969689 0.0
-0.033994 -0.972575 0.0
-0.035565 -0.958369 0.0
-0.027175 -0.930111 0.0
-0.005352 -0.888094 0.0
0.031996 -0.827148 0.0
0.081521 -0.743412 0.0
0.130043 -0.677556 0.0
0.165762 -0.642905 0.0
0.187212 -0.632092 0.0
0.196879 -0.639154 0.0
0.197417 -0.661438 0.0
0.190545 -0.699235 0.0
0.177036 -0.754148 0.0
0.157270 -0.827316 0.0
0.131744 -0.918309 0.0
0.101367 -1.024178 0.0
0.067598 -1.139654 0.0
0.032957 -1.258142 0.0
0.001447 -1.373238 0.0
-0.021715 -1.471942 0.0
-0.032690 -1.534669 0.0
-0.032068 -1.552630 0.0
-0.023321 -1.537959 0.0
-0.008696 -1.464126 0.0
-0.006172 -0.885968 0.0
-0.014795 -0.961419 0.0
-0.016919 -0.970089 0.0
-0.013135 -0.963068 0.0
-0.001799 -0.945137 0.0
0.019702 -0.916391 0.0
0.054680 -0.871178 0.0
0.105738 -0.799965 0.0
0.164647 -0.728434 0.0
0.216663 -0.679762 0.0
0.254579 -0.654600 0.0
0.277860 -0.649594 0.0
0.288530 -0.662206 0.0
0.288785 -0.691848 0.0
0.280049 -0.739291 0.0
0.263027 -0.805386 0.0
0.238145 -0.889831 0.0
0.206059 -0.990192 0.0
0.168037 -1.101849 0.0
0.126190 -1.219459 0.0
0.083736 -1.337956 0.0
0.045666 -1.445992 0.0
0.017791 -1.521769 0.0
0.002326 -1.550686 0.0