# vtk DataFile Version 3.0
Scalar Field
ASCII
DATASET RECTILINEAR_GRID
DIMENSIONS 26 100 1
X_COORDINATES 26 double
0.050000 0.150000 0.250000 0.350000 0.450000 0.550000 0.650000 0.750000 0.850000 0.950000 1.050000 1.150000 1.250000 1.350000 1.450000 1.550000 1.650000 1.750000 1.850000 1.950000 2.050000 2.150000 2.250000 2.350000 2.450000 2.550000 
Y_COORDINATES 100 double
0.050000 0.150000 0.250000 0.350000 0.450000 0.550000 0.650000 0.750000 0.850000 0.950000 1.050000 1.150000 1.250000 1.350000 1.450000 1.550000 1.650000 1.750000 1.850000 1.950000 2.050000 2.150000 2.250000 2.350000 2.450000 2.550000 2.650000 2.750000 2.850000 2.950000 3.050000 3.150000 3.250000 3.350000 3.450000 3.550000 3.650000 3.750000 3.850000 3.950000 4.050000 4.150000 4.250000 4.350000 4.450000 4.550000 4.650000 4.750000 4.850000 4.950000 5.050000 5.150000 5.250000 5.350000 5.450000 5.550000 5.650000 5.750000 5.850000 5.950000 6.050000 6.150000 6.250000 6.350000 6.450000 6.550000 6.650000 6.750000 6.850000 6.950000 7.050000 7.150000 7.250000 7.350000 7.450000 7.550000 7.650000 7.750000 7.850000 7.950000 8.050000 8.150000 8.250000 8.350000 8.450000 8.550000 8.650000 8.750000 8.850000 8.950000 9.050000 9.150000 9.250000 9.350000 9.450000 9.550000 9.650000 9.750000 9.850000 9.950000 
Z_COORDINATES 1 double
0.0
POINT_DATA 2600
SCALARS Skalarfeld double 1
LOOKUP_TABLE default
-0.079368
-0.080162
-0.080662
-0.077826
-0.070761
-0.059836
-0.046025
-0.030492
-0.014332
0.001561
0.016546
0.030228
0.042421
0.053107
0.062377
0.070386
0.077307
0.083287
0.088442
0.092978
0.097289
0.101944
0.107428
0.113629
0.119489
0.123127
-0.068077
-0.067523
-0.065441
-0.061283
-0.054683
-0.045742
-0.034921
-0.022851
-0.010186
0.002499
0.014761
0.026292
0.036919
0.046574
0.055268
0.063059
0.070026
0.076252
0.081818
0.086835
0.091457
0.095863
0.100160
0.104243
0.107676
0.109735
-0.058448
-0.057864
-0.055451
-0.051184
-0.045098
-0.037345
-0.028228
-0.018150
-0.007538
0.003213
0.013780
0.023925
0.033493
0.042405
0.050636
0.058195
0.065111
0.071412
0.077109
0.082214
0.086767
0.090827
0.094443
0.097594
0.100101
0.101595
-0.049058
-0.048615
-0.046353
-0.042406
-0.037019
-0.030390
-0.022732
-0.014294
-0.005346
0.003848
0.013052
0.022073
0.030772
0.039061
0.046888
0.054226
0.061057
0.067363
0.073061
0.078075
0.082394
0.086053
0.089093
0.091574
0.093470
0.094606
-0.039920
-0.039707
-0.037899
-0.034596
-0.030098
-0.024603
-0.018255
-0.011199
-0.003601
0.004357
0.012491
0.020634
0.028651
0.036443
0.043943
0.051098
0.057845
0.064078
0.069669
0.074477
0.078423
0.081633
0.084157
0.086097
0.087537
0.088417
-0.031147
-0.031199
-0.030042
-0.027625
-0.024171
-0.019828
-0.014673
-0.008783
-0.002263
0.004742
0.012071
0.019558
0.027055
0.034500
0.041766
0.048746
0.055353
0.061451
0.066848
0.071362
0.074908
0.077571
0.079606
0.081068
0.082121
0.082791
-0.022977
-0.023294
-0.022902
-0.021517
-0.019195
-0.015981
-0.011890
-0.006957
-0.001268
0.005037
0.011792
0.018814
0.025986
0.033150
0.040184
0.046988
0.053435
0.059345
0.064478
0.068628
0.071727
0.073873
0.075376
0.076390
0.077080
0.077553
-0.015718
-0.016279
-0.016683
-0.016373
-0.015176
-0.013004
-0.009811
-0.005620
-0.000531
0.005288
0.011680
0.018419
0.025293
0.032191
0.039004
0.045618
0.051875
0.057552
0.062372
0.066128
0.068771
0.070433
0.071393
0.071972
0.072304
0.072577
-0.009647
-0.010422
-0.011576
-0.012280
-0.012100
-0.010808
-0.008311
-0.004644
0.000050
0.005617
0.011759
0.018189
0.024766
0.031389
0.037959
0.044354
0.050388
0.055800
0.060297
0.063675
0.065900
0.067117
0.067611
0.067744
0.067722
0.067793
-0.004896
-0.005853
-0.007655
-0.009218
-0.009865
-0.009235
-0.007210
-0.003867
0.000679
0.006052
0.011867
0.017940
0.024159
0.030446
0.036721
0.042854
0.048635
0.053781
0.057990
0.061064
0.062966
0.063831
0.063939
0.063672
0.063328
0.063218
-0.001384
-0.002490
-0.004799
-0.007012
-0.008241
-0.008029
-0.006268
-0.002966
0.001450
0.006466
0.011839
0.017429
0.023169
0.029020
0.034920
0.040738
0.046251
0.051163
0.055173
0.058077
0.059814
0.060480
0.060324
0.059732
0.059193
0.059025
0.001191
-0.000032
-0.002690
-0.005316
-0.006871
-0.006850
-0.005010
-0.001758
0.002264
0.006735
0.011466
0.016382
0.021477
0.026756
0.032181
0.037626
0.042866
0.047606
0.051548
0.054467
0.056258
0.056955
0.056754
0.056034
0.055356
0.055566
0.003294
0.001992
-0.000856
-0.003664
-0.005314
-0.005070
-0.003165
-0.000327
0.003047
0.006701
0.010528
0.014535
0.018784
0.023328
0.028156
0.033157
0.038118
0.042758
0.046780
0.049934
0.052055
0.053099
0.053196
0.052705
0.052279
0.052875
0.005455
0.004120
0.001230
-0.001564
-0.002842
-0.002376
-0.000850
0.001277
0.003679
0.006198
0.008829
0.011669
0.014850
0.018471
0.022552
0.027008
0.031659
0.036249
0.040492
0.044113
0.046883
0.048673
0.049531
0.049766
0.050047
0.051149
0.008155
0.006836
0.004021
0.001681
0.000802
0.001020
0.001862
0.002936
0.004025
0.005092
0.006242
0.007658
0.009533
0.012011
0.015150
0.018913
0.023170
0.027714
0.032285
0.036590
0.040345
0.043333
0.045496
0.047040
0.048501
0.050217
0.011731
0.010448
0.007994
0.006161
0.005265
0.004960
0.004800
0.004503
0.003980
0.003321
0.002736
0.002482
0.002802
0.003884
0.005839
0.008699
0.012417
0.016859
0.021807
0.026971
0.032018
0.036640
0.040646
0.044056
0.047086
0.049463
0.016327
0.015001
0.013013
0.011404
0.010260
0.009172
0.007756
0.005850
0.003501
0.000919
-0.001603
-0.003749
-0.005236
-0.005830
-0.005344
-0.003645
-0.000668
0.003552
0.008862
0.014983
0.021541
0.028131
0.034393
0.040066
0.044891
0.047917
0.021501
0.020303
0.018575
0.016984
0.015398
0.013358
0.010546
0.006915
0.002640
-0.001974
-0.006567
-0.010790
-0.014323
-0.016871
-0.018147
-0.017886
-0.015882
-0.012049
-0.006466
0.000610
0.008762
0.017471
0.026171
0.034254
0.040902
0.044531
0.026839
0.025727
0.024122
0.022414
0.020300
0.017272
0.013063
0.007729
0.001545
-0.005106
-0.011828
-0.018250
-0.024016
-0.028752
-0.032046
-0.033473
-0.032667
-0.029407
-0.023694
-0.015771
-0.006110
0.004641
0.015690
0.026058
0.034384
0.038559
0.031832
0.030731
0.029161
0.027296
0.024691
0.020777
0.015309
0.008419
0.000461
-0.008131
-0.016945
-0.025594
-0.033683
-0.040744
-0.046218
-0.049505
-0.050067
-0.047550
-0.041883
-0.033312
-0.022382
-0.009880
0.003179
0.015482
0.025215
0.029882
0.036061
0.034933
0.033370
0.031394
0.028443
0.023861
0.017388
0.009200
-0.000292
-0.010626
-0.021379
-0.032159
-0.042520
-0.051893
-0.059567
-0.064761
-0.066769
-0.065112
-0.059666
-0.050701
-0.038854
-0.025053
-0.010499
0.003240
0.014035
0.019139
0.039295
0.038150
0.036625
0.034647
0.031568
0.026622
0.019483
0.010341
-0.000354
-0.012123
-0.024543
-0.037205
-0.049616
-0.061106
-0.070820
-0.077813
-0.081222
-0.080465
-0.075385
-0.066297
-0.053939
-0.039369
-0.023920
-0.009311
0.002166
0.007629
0.041492
0.040376
0.038960
0.037126
0.034171
0.029209
0.021803
0.012123
0.000636
-0.012169
-0.025859
-0.040005
-0.054065
-0.067285
-0.078691
-0.087208
-0.091847
-0.091945
-0.087333
-0.078373
-0.065908
-0.051096
-0.035346
-0.020428
-0.008655
-0.002946
0.042735
0.041714
0.040504
0.038963
0.036373
0.031748
0.024508
0.014770
0.002976
-0.010390
-0.024863
-0.039970
-0.055120
-0.069506
-0.082086
-0.091704
-0.097292
-0.098134
-0.094052
-0.085439
-0.073220
-0.058628
-0.043083
-0.028348
-0.016640
-0.010832
0.043162
0.042304
0.041399
0.040281
0.038241
0.034244
0.027619
0.018379
0.006831
-0.006580
-0.021304
-0.036774
-0.052350
-0.067215
-0.080328
-0.090527
-0.096726
-0.098171
-0.094653
-0.086562
-0.074869
-0.060852
-0.045850
-0.031665
-0.020324
-0.014561
0.042907
0.042272
0.041752
0.041141
0.039743
0.036496
0.031086
0.022907
0.011925
-0.001184
-0.015740
-0.031081
-0.046507
-0.061171
-0.074055
-0.084045
-0.090127
-0.091608
-0.088326
-0.080700
-0.069679
-0.056564
-0.042789
-0.029638
-0.018887
-0.013198
0.042085
0.041717
0.041628
0.041555
0.040808
0.038654
0.034691
0.027643
0.017620
0.005261
-0.008663
-0.023383
-0.038114
-0.051986
-0.064018
-0.073190
-0.078603
-0.079679
-0.076319
-0.068966
-0.058544
-0.046293
-0.033549
-0.021603
-0.011918
-0.006419
0.040802
0.040724
0.041072
0.041512
0.041382
0.040541
0.037715
0.031952
0.023173
0.011941
-0.000934
-0.014583
-0.028142
-0.040717
-0.051383
-0.059237
-0.063530
-0.063818
-0.060089
-0.052808
-0.042860
-0.031401
-0.019660
-0.008810
-0.000067
0.005014
0.039186
0.039392
0.040136
0.040998
0.041614
0.041553
0.039695
0.035151
0.027715
0.017843
0.006344
-0.005862
-0.017852
-0.028729
-0.037633
-0.043796
-0.046625
-0.045824
-0.041478
-0.034078
-0.024465
-0.013701
-0.002884
0.006973
0.014877
0.019594
0.037412
0.037854
0.038899
0.040120
0.041216
0.041572
0.040348
0.036752
0.030531
0.022056
0.012098
0.001584
-0.008552
-0.017439
-0.024304
-0.028517
-0.029647
-0.027546
-0.022394
-0.014713
-0.005309
0.004856
0.014826
0.023768
0.030919
0.035345
0.035731
0.036280
0.037460
0.038893
0.040122
0.040580
0.039603
0.036569
0.031267
0.024035
0.015602
0.006867
-0.001270
-0.008004
-0.012675
-0.014797
-0.014101
-0.010578
-0.004505
0.003562
0.012848
0.022485
0.031662
0.039739
0.046182
0.050335
0.034486
0.034723
0.035921
0.037324
0.038393
0.038628
0.037522
0.034647
0.029909
0.023662
0.016612
0.009608
0.003479
-0.001071
-0.003518
-0.003530
-0.000993
0.003969
0.010990
0.019477
0.028681
0.037817
0.046223
0.053454
0.059198
0.063051
0.033537
0.033492
0.034406
0.035449
0.036040
0.035735
0.034167
0.031105
0.026607
0.021095
0.015258
0.009884
0.005698
0.003271
0.002977
0.004986
0.009268
0.015582
0.023482
0.032341
0.041428
0.050041
0.057664
0.064045
0.069084
0.072582
0.032862
0.032533
0.032870
0.033212
0.032995
0.031839
0.029519
0.025998
0.021511
0.016562
0.011833
0.008023
0.005722
0.005337
0.007076
0.010953
0.016807
0.024302
0.032929
0.042035
0.050907
0.058925
0.065723
0.071238
0.075559
0.078652
0.032251
0.031611
0.031147
0.030469
0.029113
0.026805
0.023475
0.019300
0.014697
0.010260
0.006641
0.004420
0.004009
0.005623
0.009288
0.014868
0.022092
0.030555
0.039710
0.048886
0.057396
0.064714
0.070627
0.075258
0.078853
0.081499
0.031353
0.030381
0.028967
0.027002
0.024206
0.020459
0.015904
0.010956
0.006221
0.002366
-0.000021
-0.000528
0.001040
0.004669
0.010194
0.017336
0.025739
0.034959
0.044431
0.053482
0.061463
0.067957
0.072923
0.076655
0.079520
0.081693
0.029794
0.028470
0.026014
0.022567
0.018074
0.012648
0.006714
0.000968
-0.003796
-0.006875
-0.007801
-0.006382
-0.002691
0.003012
0.010362
0.018956
0.028374
0.038160
0.047753
0.056484
0.063763
0.069315
0.073285
0.076113
0.078247
0.079930
0.027285
0.025584
0.022032
0.016969
0.010588
0.003310
-0.004065
-0.010513
-0.015071
-0.017065
-0.016215
-0.012617
-0.006640
0.001191
0.010331
0.020274
0.030561
0.040739
0.050258
0.058464
0.064870
0.069388
0.072342
0.074278
0.075688
0.076874
0.023716
0.021605
0.016924
0.010164
0.001770
-0.007435
-0.016182
-0.023093
-0.027080
-0.027588
-0.024613
-0.018595
-0.010212
-0.000259
0.010582
0.021748
0.032748
0.043129
0.052342
0.059774
0.065152
0.068597
0.070569
0.071657
0.072368
0.073063
0.019222
0.016667
0.010842
0.002349
-0.008095
-0.019173
-0.029066
-0.036051
-0.039003
-0.037591
-0.032178
-0.023606
-0.012804
-0.000880
0.011463
0.023676
0.035195
0.045543
0.054127
0.060456
0.064711
0.067150
0.068251
0.068586
0.068659
0.068893
0.014214
0.011192
0.004238
-0.005959
-0.018378
-0.031110
-0.041745
-0.048294
-0.049705
-0.046016
-0.037985
-0.026996
-0.013874
-0.000393
0.013095
0.025891
0.037576
0.047629
0.055424
0.060685
0.063692
0.065076
0.065517
0.065257
0.064802
0.064642
0.009384
0.005897
-0.002121
-0.013896
-0.028058
-0.042029
-0.052824
-0.058382
-0.057805
-0.051727
-0.041050
-0.027755
-0.013438
0.000961
0.014901
0.027864
0.039355
0.048803
0.055683
0.059966
0.062114
0.062762
0.062480
0.061761
0.060941
0.060525
0.005637
0.001730
-0.007202
-0.020291
-0.035759
-0.050358
-0.060545
-0.064716
-0.061447
-0.052597
-0.040617
-0.026760
-0.012189
0.002294
0.016133
0.028815
0.039784
0.048467
0.054503
0.058060
0.059664
0.059896
0.059256
0.058183
0.057137
0.056738
0.003980
-0.000243
-0.009835
-0.023812
-0.039905
-0.054459
-0.062851
-0.063614
-0.058872
-0.049813
-0.038072
-0.024856
-0.011063
0.002667
0.015812
0.027822
0.038088
0.046068
0.051539
0.054751
0.056192
0.056353
0.055662
0.054520
0.053426
0.053213
0.005340
0.000960
-0.008930
-0.023257
-0.038908
-0.050770
-0.056587
-0.056656
-0.052179
-0.044389
-0.034440
-0.023183
-0.011215
0.000995
0.012953
0.024056
0.033645
0.041193
0.046516
0.049825
0.051503
0.051950
0.051532
0.050632
0.049775
0.049708
0.010350
0.005983
-0.003721
-0.017108
-0.030283
-0.039775
-0.044555
-0.045221
-0.042697
-0.037788
-0.031094
-0.022988
-0.013734
-0.003643
0.006800
0.016930
0.026027
0.033520
0.039158
0.043016
0.045341
0.046441
0.046636
0.046286
0.045894
0.046010
0.019054
0.014804
0.006102
-0.005271
-0.015983
-0.023813
-0.028702
-0.031355
-0.032263
-0.031600
-0.029313
-0.025252
-0.019357
-0.011810
-0.003097
0.006066
0.014894
0.022720
0.029132
0.033997
0.037396
0.039537
0.040693
0.041189
0.041445
0.041791
0.030319
0.026587
0.019296
0.010142
0.001575
-0.005410
-0.011449
-0.017189
-0.022577
-0.027061
-0.029901
-0.030445
-0.028357
-0.023712
-0.016960
-0.008810
-0.000086
0.008412
0.016042
0.022398
0.027336
0.030935
0.033403
0.035014
0.036067
0.036689
0.042648
0.039479
0.033666
0.026564
0.019665
0.012888
0.005051
-0.004369
-0.014734
-0.024749
-0.033029
-0.038507
-0.040620
-0.039298
-0.034859
-0.027901
-0.019235
-0.009796
-0.000514
0.007853
0.014847
0.020351
0.024483
0.027451
0.029431
0.030383
0.054123
0.051444
0.046969
0.041607
0.035991
0.029147
0.019383
0.006253
-0.009051
-0.024551
-0.038327
-0.048984
-0.055741
-0.058290
-0.056676
-0.051261
-0.042757
-0.032209
-0.020864
-0.009935
-0.000316
0.007576
0.013726
0.018276
0.021304
0.022646
0.063013
0.060770
0.057459
0.053563
0.049058
0.042279
0.030981
0.014620
-0.005178
-0.025846
-0.045045
-0.061119
-0.073022
-0.080100
-0.081976
-0.078639
-0.070589
-0.058904
-0.045156
-0.031106
-0.018253
-0.007457
0.001069
0.007417
0.011611
0.013411
0.068212
0.066422
0.064161
0.061569
0.058189
0.051929
0.039932
0.021215
-0.002348
-0.027706
-0.052173
-0.073854
-0.091399
-0.103700
-0.109844
-0.109305
-0.102216
-0.089566
-0.073208
-0.055533
-0.038829
-0.024593
-0.013328
-0.004977
0.000496
0.002827
0.069393
0.068119
0.066854
0.065483
0.063324
0.058154
0.046596
0.026725
0.000362
-0.029043
-0.058479
-0.085816
-0.109368
-0.127527
-0.138748
-0.141864
-0.136466
-0.123278
-0.104326
-0.082662
-0.061552
-0.043362
-0.029014
-0.018481
-0.011633
-0.008705
0.066902
0.066198
0.065872
0.065642
0.064742
0.061084
0.051127
0.031639
0.003831
-0.028706
-0.062567
-0.095340
-0.125004
-0.149455
-0.166454
-0.174118
-0.171319
-0.158300
-0.137088
-0.111341
-0.085444
-0.062891
-0.045193
-0.032357
-0.024081
-0.020509
0.061504
0.061367
0.061864
0.062607
0.062846
0.060759
0.053056
0.035795
0.008752
-0.025572
-0.062999
-0.100606
-0.136078
-0.166899
-0.190042
-0.203006
-0.203778
-0.191881
-0.169152
-0.139652
-0.108936
-0.081853
-0.060698
-0.045555
-0.035879
-0.031657
0.054119
0.054473
0.055596
0.057038
0.058094
0.057201
0.051323
0.038674
0.015194
-0.018990
-0.058566
-0.099930
-0.140309
-0.177137
-0.206055
-0.224710
-0.229923
-0.220214
-0.197178
-0.164841
-0.129827
-0.098468
-0.074037
-0.056773
-0.045847
-0.041037
0.045604
0.046309
0.047816
0.049636
0.051126
0.050960
0.047765
0.039674
0.020391
-0.011116
-0.050255
-0.092828
-0.135621
-0.175906
-0.210705
-0.235029
-0.245335
-0.238617
-0.217020
-0.183413
-0.145384
-0.110620
-0.083517
-0.064587
-0.052731
-0.047481
0.036610
0.037462
0.039118
0.041033
0.042655
0.043414
0.042307
0.037113
0.022751
-0.003939
-0.040158
-0.081531
-0.124188
-0.164909
-0.200526
-0.227369
-0.242346
-0.241899
-0.224478
-0.191522
-0.152702
-0.116143
-0.087474
-0.067658
-0.055391
-0.049953
0.027541
0.028225
0.029848
0.031758
0.033535
0.034705
0.034450
0.031114
0.021002
-0.000087
-0.031288
-0.068838
-0.108483
-0.146555
-0.179883
-0.205438
-0.220436
-0.222466
-0.210493
-0.185430
-0.149440
-0.113294
-0.084596
-0.065000
-0.053047
-0.047761
0.018277
0.018766
0.020225
0.021961
0.023581
0.024691
0.024621
0.022116
0.014679
-0.001559
-0.026981
-0.058742
-0.092678
-0.124921
-0.152454
-0.172976
-0.184749
-0.186628
-0.178216
-0.159445
-0.131344
-0.100351
-0.074223
-0.056245
-0.045545
-0.040762
0.008584
0.008940
0.010075
0.011434
0.012632
0.013315
0.012915
0.010417
0.004082
-0.008889
-0.029194
-0.054588
-0.081171
-0.105109
-0.123735
-0.135750
-0.140934
-0.139750
-0.132844
-0.119915
-0.100313
-0.077150
-0.056579
-0.042198
-0.033724
-0.029870
-0.001792
-0.001580
-0.000886
-0.000101
0.000424
0.000353
-0.000819
-0.003941
-0.010278
-0.021518
-0.037977
-0.057566
-0.076536
-0.091104
-0.098956
-0.099917
-0.095640
-0.088669
-0.081174
-0.072962
-0.061708
-0.047502
-0.034151
-0.024680
-0.019171
-0.016635
-0.013151
-0.013119
-0.012966
-0.012940
-0.013340
-0.014491
-0.016856
-0.021130
-0.028172
-0.038730
-0.052423
-0.067018
-0.078861
-0.084229
-0.081000
-0.069896
-0.054461
-0.039682
-0.029832
-0.025139
-0.021517
-0.016153
-0.010431
-0.006355
-0.004123
-0.003051
-0.025763
-0.025953
-0.026437
-0.027344
-0.028923
-0.031495
-0.035485
-0.041407
-0.049663
-0.060146
-0.071678
-0.081743
-0.086861
-0.083568
-0.069928
-0.047210
-0.020455
0.002904
0.016043
0.017979
0.014918
0.012383
0.011062
0.010018
0.009100
0.008749
-0.039807
-0.040271
-0.041484
-0.043490
-0.046507
-0.050861
-0.056931
-0.064998
-0.074898
-0.085629
-0.095185
-0.100744
-0.099130
-0.087450
-0.064209
-0.031080
0.005884
0.037132
0.053278
0.052393
0.043646
0.034654
0.027532
0.022200
0.018604
0.017002
-0.055337
-0.056131
-0.058162
-0.061429
-0.066146
-0.072664
-0.081301
-0.092026
-0.103958
-0.115072
-0.122521
-0.123251
-0.114555
-0.094413
-0.062122
-0.019905
0.025431
0.062498
0.080045
0.075649
0.062343
0.048614
0.037286
0.028818
0.023221
0.020632
-0.072246
-0.073425
-0.076362
-0.081041
-0.087721
-0.096802
-0.108530
-0.122459
-0.136779
-0.148266
-0.153231
-0.148560
-0.132243
-0.103380
-0.062378
-0.012301
0.039158
0.078593
0.094600
0.086519
0.070128
0.053546
0.039730
0.029389
0.022555
0.019296
-0.090254
-0.091867
-0.095780
-0.102004
-0.110895
-0.122943
-0.138315
-0.156029
-0.173085
-0.184826
-0.186762
-0.175979
-0.151457
-0.113610
-0.064178
-0.007319
0.047872
0.084016
0.095154
0.084809
0.067262
0.049769
0.035130
0.024129
0.016816
0.013231
-0.108904
-0.110983
-0.115909
-0.123767
-0.135068
-0.150455
-0.170022
-0.192132
-0.212284
-0.224123
-0.222438
-0.204862
-0.171715
-0.124788
-0.067364
-0.004456
0.050237
0.078972
0.081458
0.071566
0.054941
0.038309
0.024288
0.013680
0.006567
0.003005
-0.127584
-0.130131
-0.136051
-0.145544
-0.159349
-0.178330
-0.202564
-0.229663
-0.253298
-0.265141
-0.259385
-0.234627
-0.192995
-0.137294
-0.073537
-0.009653
0.041403
0.064573
0.061719
0.049696
0.035019
0.020530
0.008225
-0.001154
-0.007494
-0.010690
-0.145577
-0.148548
-0.155352
-0.166341
-0.182538
-0.205122
-0.234248
-0.266765
-0.294245
-0.306160
-0.296268
-0.264479
-0.214051
-0.152100
-0.086550
-0.024794
0.020837
0.038263
0.034154
0.022678
0.009770
-0.002182
-0.012076
-0.019583
-0.024695
-0.027153
-0.162130
-0.165423
-0.172880
-0.185021
-0.203181
-0.228923
-0.262619
-0.300478
-0.331895
-0.344090
-0.330542
-0.290817
-0.234385
-0.172533
-0.109877
-0.052848
-0.012618
0.000998
-0.001832
-0.010506
-0.020067
-0.028615
-0.035533
-0.040725
-0.044250
-0.045866
-0.176561
-0.180009
-0.187753
-0.200454
-0.219713
-0.247470
-0.284424
-0.326393
-0.360874
-0.373172
-0.353561
-0.308842
-0.256436
-0.201866
-0.147227
-0.096772
-0.060872
-0.047228
-0.046102
-0.049748
-0.054311
-0.058372
-0.061576
-0.063936
-0.065536
-0.066221
-0.188363
-0.191748
-0.199297
-0.211727
-0.230753
-0.258514
-0.295951
-0.338690
-0.372982
-0.378202
-0.354691
-0.319732
-0.282230
-0.243376
-0.201534
-0.158610
-0.124831
-0.106873
-0.098589
-0.094723
-0.092489
-0.090848
-0.089531
-0.088533
-0.087893
-0.087521
-0.197297
-0.200386
-0.207214
-0.218418
-0.235553
-0.260561
-0.294173
-0.331432
-0.352232
-0.349859
-0.337723
-0.324433
-0.311842
-0.297407
-0.273278
-0.238339
-0.203781
-0.177550
-0.158643
-0.144594
-0.133697
-0.125123
-0.118502
-0.113660
-0.110504
-0.108950
-0.203441
-0.206041
-0.211703
-0.220829
-0.234478
-0.253886
-0.278242
-0.297857
-0.302618
-0.301925
-0.309337
-0.327767
-0.349040
-0.364096
-0.360090
-0.333274
-0.295385
-0.257438
-0.224543
-0.197735
-0.176445
-0.159856
-0.147281
-0.138222
-0.132349
-0.129517
-0.207148
-0.209175
-0.213447
-0.220044
-0.229294
-0.240728
-0.251167
-0.252823
-0.245416
-0.250562
-0.282634
-0.334515
-0.392183
-0.438592
-0.456069
-0.437849
-0.395161
-0.342859
-0.293185
-0.251545
-0.218572
-0.193238
-0.174327
-0.160866
-0.152196
-0.148043
-0.208948
-0.210544
-0.213652
-0.218006
-0.223002
-0.226852
-0.225459
-0.213929
-0.199228
-0.213289
-0.268024
-0.347423
-0.437256
-0.512603
-0.552021
-0.543271
-0.495758
-0.427885
-0.359903
-0.302413
-0.257268
-0.223036
-0.197804
-0.180022
-0.168639
-0.163197
-0.209398
-0.210763
-0.213254
-0.216310
-0.218746
-0.218129
-0.210597
-0.194033
-0.179085
-0.201252
-0.267371
-0.364517
-0.476835
-0.575182
-0.635213
-0.636831
-0.586342
-0.504142
-0.418557
-0.345913
-0.289281
-0.246764
-0.215720
-0.194014
-0.180188
-0.173582
-0.208720
-0.210174
-0.212797
-0.215926
-0.218246
-0.217434
-0.210680
-0.198373
-0.193305
-0.216426
-0.281517
-0.381202
-0.501477
-0.613181
-0.688972
-0.701682
-0.652722
-0.561320
-0.462208
-0.377383
-0.311334
-0.261971
-0.226134
-0.201217
-0.185410
-0.177858
-0.206831
-0.208710
-0.212218
-0.216788
-0.221340
-0.224165
-0.223794
-0.222370
-0.230703
-0.252708
-0.307122
-0.393574
-0.501974
-0.611513
-0.692924
-0.719722
-0.679502
-0.589161
-0.484730
-0.392965
-0.320737
-0.266617
-0.227406
-0.200254
-0.183096
-0.174896
-0.203323
-0.205896
-0.210882
-0.217937
-0.226396
-0.235280
-0.244077
-0.255012
-0.271671
-0.296982
-0.340963
-0.408532
-0.492288
-0.577659
-0.637375
-0.661007
-0.650045
-0.581915
-0.483570
-0.390931
-0.315998
-0.259375
-0.218398
-0.190161
-0.172421
-0.163921
-0.197536
-0.200961
-0.207770
-0.217893
-0.231130
-0.247115
-0.265702
-0.287835
-0.313513
-0.342348
-0.377529
-0.423924
-0.477457
-0.530719
-0.566387
-0.573488
-0.569712
-0.536329
-0.458650
-0.371354
-0.296759
-0.239833
-0.198799
-0.170707
-0.153166
-0.144726
-0.188679
-0.192989
-0.201694
-0.215023
-0.233241
-0.256504
-0.284767
-0.317552
-0.352239
-0.385762
-0.414598
-0.439957
-0.463979
-0.488877
-0.509873
-0.497878
-0.494967
-0.481803
-0.418235
-0.336369
-0.263907
-0.208566
-0.169047
-0.142266
-0.125666
-0.117682
-0.175973
-0.181072
-0.191484
-0.207752
-0.230630
-0.260812
-0.298396
-0.341753
-0.385228
-0.424084
-0.448127
-0.454432
-0.454528
-0.461620
-0.489248
-0.462021
-0.468998
-0.450254
-0.375775
-0.290015
-0.218595
-0.166212
-0.129833
-0.105629
-0.090785
-0.083645
-0.158782
-0.164452
-0.176129
-0.194691
-0.221430
-0.257711
-0.304031
-0.357989
-0.411308
-0.451420
-0.472306
-0.463157
-0.450964
-0.445365
-0.467307
-0.522336
-0.582651
-0.453889
-0.327670
-0.229341
-0.160104
-0.113373
-0.082326
-0.062159
-0.049930
-0.044025
-0.136754
-0.142658
-0.154909
-0.174726
-0.204004
-0.245000
-0.299083
-0.363483
-0.426433
-0.467188
-0.480592
-0.467514
-0.456603
-0.450984
0.000000
-0.307043
-0.727826
-0.411749
-0.239215
-0.143937
-0.086954
-0.051317
-0.028459
-0.013842
-0.005013
-0.000684
-0.109942
-0.115634
-0.127529
-0.147141
-0.176988
-0.220511
-0.280851
-0.356334
-0.431589
-0.475308
-0.477945
-0.471388
-0.463995
0.000000
0.279936
0.113740
-0.148362
-0.135942
-0.075628
-0.031643
-0.002754
0.016163
0.028617
0.036716
0.041697
0.044254
-0.078892
-0.083856
-0.094280
-0.111821
-0.139456
-0.181943
-0.245527
-0.333761
-0.433289
-0.494380
-0.476923
-0.474155
0.000000
0.563748
0.446131
0.261564
0.135380
0.084822
0.074744
0.076002
0.079336
0.082439
0.084869
0.086639
0.087866
0.088676
-0.044678
-0.048404
-0.056210
-0.069583
-0.091415
-0.127110
-0.186345
-0.284031
-0.433107
-0.606963
-0.541943
0.000000
0.773073
0.681365
0.534789
0.405845
0.300364
0.230689
0.189733
0.165878
0.151543
0.142630
0.136985
0.133469
0.131486
0.130766
-0.008829
-0.010934
-0.015230
-0.022635
-0.035001
-0.056230
-0.095169
-0.172940
-0.342391
-0.662382
-0.012953
0.835940
0.864782
0.726912
0.603356
0.490683
0.395130
0.322137
0.270380
0.234844
0.210614
0.194083
0.182879
0.175517
0.171108
0.169190
0.026880
0.026526
0.026033
0.025251
0.024029
0.022307
0.020331
0.018929
0.024226
0.125827
0.636476
0.807099
0.778034
0.708300
0.616180
0.524341
0.442580
0.375461
0.323528
0.284785
0.256469
0.236073
0.221669
0.211905
0.205895
0.203148
0.060735
0.061981
0.064875
0.069783
0.077524
0.089768
0.109992
0.145674
0.213424
0.345936
0.547097
0.676739
0.682991
0.650545
0.591655
0.524580
0.459994
0.403278
0.356418
0.319263
0.290635
0.269102
0.253370
0.242423
0.235542
0.232303
0.091364
0.093885
0.099382
0.108440
0.122198
0.142651
0.173221
0.219512
0.289472
0.388863
0.502533
0.581330
0.601828
0.588896
0.554676
0.508843
0.460524
0.415103
0.375301
0.342051
0.315246
0.294310
0.278544
0.267315
0.260128
0.256673
0.117852
0.121269
0.128509
0.140151
0.157216
0.181285
0.214618
0.260008
0.319646
0.391659
0.464416
0.517502
0.539725
0.537184
0.518321
0.488072
0.453028
0.417772
0.385111
0.356492
0.332459
0.313039
0.298010
0.287080
0.279973
0.276502
0.139718
0.143685
0.151928
0.164910
0.183358
0.208244
0.240678
0.281526
0.330446
0.384237
0.435443
0.474229
0.494636
0.497545
0.487768
0.468094
0.442946
0.415895
0.389468
0.365261
0.344161
0.326578
0.312636
0.302310
0.295509
0.292150
0.156813
0.161047
0.169752
0.183249
0.201961
0.226328
0.256649
0.292742
0.333371
0.375592
0.414597
0.444976
0.463194
0.468872
0.464350
0.451545
0.433319
0.412374
0.390863
0.370344
0.351853
0.336023
0.323208
0.313579
0.307186
0.304016
0.169201
0.173473
0.182281
0.195839
0.214320
0.237787
0.266050
0.298423
0.333429
0.368593
0.400590
0.426022
0.442548
0.449536
0.448033
0.439440
0.425712
0.408927
0.390909
0.373118
0.356636
0.342218
0.330362
0.321371
0.315405
0.312486
0.177090
0.181126
0.189814
0.203253
0.221424
0.244159
0.271007
0.301069
0.332836
0.364159
0.392460
0.415245
0.430742
0.438292
0.438373
0.432061
0.420870
0.406507
0.390581
0.374466
0.359251
0.345749
0.334542
0.326028
0.320464
0.317939
0.180870
0.184042
0.192510
0.205851
0.223879
0.246324
0.272649
0.301889
0.332540
0.362571
0.389644
0.411543
0.426674
0.434387
0.434990
0.429437
0.419111
0.405587
0.390396
0.374878
0.360120
0.346955
0.335996
0.327695
0.322445
0.320836
