# vtk DataFile Version 3.0
Vector Field
ASCII
DATASET RECTILINEAR_GRID
DIMENSIONS 26 100 1
X_COORDINATES 26 double
0.050000 0.150000 0.250000 0.350000 0.450000 0.550000 0.650000 0.750000 0.850000 0.950000 1.050000 1.150000 1.250000 1.350000 1.450000 1.550000 1.650000 1.750000 1.850000 1.950000 2.050000 2.150000 2.250000 2.350000 2.450000 2.550000 
Y_COORDINATES 100 double
0.050000 0.150000 0.250000 0.350000 0.450000 0.550000 0.650000 0.750000 0.850000 0.950000 1.050000 1.150000 1.250000 1.350000 1.450000 1.550000 1.650000 1.750000 1.850000 1.950000 2.050000 2.150000 2.250000 2.350000 2.450000 2.550000 2.650000 2.750000 2.850000 2.950000 3.050000 3.150000 3.250000 3.350000 3.450000 3.550000 3.650000 3.750000 3.850000 3.950000 4.050000 4.150000 4.250000 4.350000 4.450000 4.550000 4.650000 4.750000 4.850000 4.950000 5.050000 5.150000 5.250000 5.350000 5.450000 5.550000 5.650000 5.750000 5.850000 5.950000 6.050000 6.150000 6.250000 6.350000 6.450000 6.550000 6.650000 6.750000 6.850000 6.950000 7.050000 7.150000 7.250000 7.350000 7.450000 7.550000 7.650000 7.750000 7.850000 7.950000 8.050000 8.150000 8.250000 8.350000 8.450000 8.550000 8.650000 8.750000 8.850000 8.950000 9.050000 9.150000 9.250000 9.350000 9.450000 9.550000 9.650000 9.750000 9.850000 9.950000 
Z_COORDINATES 1 double
0.0
POINT_DATA 2600
VECTORS Vektorfeld double
-0.002544 -0.936093 0.0
-0.007109 -0.947062 0.0
-0.010280 -0.888508 0.0
-0.011881 -0.825473 0.0
-0.012332 -0.771825 0.0
-0.012014 -0.732539 0.0
-0.011104 -0.707620 0.0
-0.009711 -0.695636 0.0
-0.007978 -0.694907 0.0
-0.006069 -0.703895 0.0
-0.004143 -0.721479 0.0
-0.002322 -0.747248 0.0
-0.000675 -0.781526 0.0
0.000774 -0.825069 0.0
0.002022 -0.878456 0.0
0.003055 -0.941397 0.0
0.003822 -1.012384 0.0
0.004225 -1.088727 0.0
0.004151 -1.167059 0.0
0.003509 -1.244024 0.0
0.002274 -1.316900 0.0
0.000501 -1.383975 0.0
-0.001606 -1.444280 0.0
-0.003537 -1.497244 0.0
-0.004027 -1.537311 0.0
-0.001844 -1.509363 0.0
-0.003976 -0.929574 0.0
-0.010820 -0.942173 0.0
-0.014342 -0.886703 0.0
-0.014177 -0.825843 0.0
-0.011939 -0.773242 0.0
-0.008821 -0.734558 0.0
-0.005101 -0.710231 0.0
-0.000754 -0.698765 0.0
0.004093 -0.698358 0.0
0.009175 -0.707435 0.0
0.014205 -0.724896 0.0
0.018975 -0.750420 0.0
0.023380 -0.784406 0.0
0.027395 -0.827653 0.0
0.030986 -0.880711 0.0
0.034012 -0.943201 0.0
0.036196 -1.013531 0.0
0.037185 -1.088972 0.0
0.036648 -1.166202 0.0
0.034379 -1.241970 0.0
0.030322 -1.313661 0.0
0.024540 -1.379659 0.0
0.017210 -1.439159 0.0
0.008873 -1.492098 0.0
0.001695 -1.534788 0.0
-0.000584 -1.511791 0.0
-0.004933 -0.920665 0.0
-0.012632 -0.936538 0.0
-0.015198 -0.886248 0.0
-0.012647 -0.829014 0.0
-0.007090 -0.777866 0.0
-0.000470 -0.739672 0.0
0.006632 -0.715938 0.0
0.014302 -0.705075 0.0
0.022439 -0.705032 0.0
0.030754 -0.714158 0.0
0.038952 -0.731402 0.0
0.046807 -0.756538 0.0
0.054166 -0.790053 0.0
0.060891 -0.832747 0.0
0.066752 -0.885069 0.0
0.071375 -0.946491 0.0
0.074266 -1.015317 0.0
0.074930 -1.088839 0.0
0.073005 -1.163873 0.0
0.068344 -1.237369 0.0
0.061007 -1.306870 0.0
0.051186 -1.370848 0.0
0.039185 -1.428639 0.0
0.025558 -1.480654 0.0
0.011998 -1.525494 0.0
0.002783 -1.509591 0.0
-0.005529 -0.910204 0.0
-0.013554 -0.931275 0.0
-0.014878 -0.887622 0.0
-0.009630 -0.835440 0.0
-0.000267 -0.786360 0.0
0.010549 -0.748615 0.0
0.021808 -0.725357 0.0
0.033445 -0.714964 0.0
0.045317 -0.715152 0.0
0.057166 -0.724202 0.0
0.068726 -0.741116 0.0
0.079768 -0.765721 0.0
0.090068 -0.798529 0.0
0.099324 -0.840252 0.0
0.107087 -0.891189 0.0
0.112770 -0.950677 0.0
0.115735 -1.016987 0.0
0.115437 -1.087535 0.0
0.111553 -1.159368 0.0
0.104032 -1.229692 0.0
0.093063 -1.296240 0.0
0.078968 -1.357561 0.0
0.062161 -1.413117 0.0
0.043197 -1.463585 0.0
0.023300 -1.509105 0.0
0.006671 -1.500137 0.0
-0.005891 -0.898784 0.0
-0.013941 -0.926619 0.0
-0.013988 -0.890908 0.0
-0.006113 -0.845277 0.0
0.007160 -0.799159 0.0
0.022683 -0.762154 0.0
0.038810 -0.739203 0.0
0.055017 -0.728960 0.0
0.071052 -0.729063 0.0
0.086678 -0.737765 0.0
0.101667 -0.754102 0.0
0.115792 -0.777903 0.0
0.128753 -0.809608 0.0
0.140103 -0.849778 0.0
0.149221 -0.898544 0.0
0.155376 -0.955160 0.0
0.157861 -1.017954 0.0
0.156144 -1.084552 0.0
0.149970 -1.152292 0.0
0.139382 -1.218660 0.0
0.124667 -1.281588 0.0
0.106256 -1.339708 0.0
0.084659 -1.392565 0.0
0.060459 -1.440974 0.0
0.034591 -1.485951 0.0
0.010697 -1.482768 0.0
-0.006115 -0.886777 0.0
-0.014044 -0.922646 0.0
-0.012932 -0.895948 0.0
-0.002816 -0.858228 0.0
0.014100 -0.816397 0.0
0.034491 -0.780829 0.0
0.055904 -0.758069 0.0
0.077146 -0.747543 0.0
0.097694 -0.747064 0.0
0.117252 -0.754948 0.0
0.135609 -0.770264 0.0
0.152539 -0.792795 0.0
0.167700 -0.822838 0.0
0.180562 -0.860761 0.0
0.190419 -0.906536 0.0
0.196488 -0.959392 0.0
0.198064 -1.017785 0.0
0.194662 -1.079602 0.0
0.186093 -1.142499 0.0
0.172467 -1.204240 0.0
0.154133 -1.262960 0.0
0.131597 -1.317389 0.0
0.105445 -1.367134 0.0
0.076314 -1.413075 0.0
0.045014 -1.456682 0.0
0.014471 -1.457600 0.0
-0.006245 -0.874417 0.0
-0.013947 -0.919375 0.0
-0.011795 -0.902484 0.0
0.000111 -0.873713 0.0
0.020074 -0.837790 0.0
0.044942 -0.804695 0.0
0.071570 -0.782246 0.0
0.097977 -0.771014 0.0
0.123167 -0.769330 0.0
0.146661 -0.775735 0.0
0.168201 -0.789374 0.0
0.187556 -0.809971 0.0
0.204383 -0.837651 0.0
0.218153 -0.872580 0.0
0.228172 -0.914592 0.0
0.233697 -0.962928 0.0
0.234080 -1.016208 0.0
0.228899 -1.072596 0.0
0.218019 -1.130055 0.0
0.201587 -1.186625 0.0
0.179983 -1.240637 0.0
0.153747 -1.290941 0.0
0.123525 -1.337208 0.0
0.090018 -1.380363 0.0
0.054002 -1.422078 0.0
0.017735 -1.425394 0.0
-0.006263 -0.861909 0.0
-0.013533 -0.916911 0.0
-0.010281 -0.910351 0.0
0.003121 -0.891153 0.0
0.025377 -0.862569 0.0
0.053793 -0.833200 0.0
0.084918 -0.811495 0.0
0.116040 -0.799294 0.0
0.145580 -0.795780 0.0
0.172739 -0.799938 0.0
0.197119 -0.811090 0.0
0.218455 -0.828945 0.0
0.236429 -0.853478 0.0
0.250579 -0.884672 0.0
0.260304 -0.922245 0.0
0.264968 -0.965464 0.0
0.264024 -1.013112 0.0
0.257122 -1.063610 0.0
0.244170 -1.115208 0.0
0.225327 -1.166198 0.0
0.200978 -1.215110 0.0
0.171675 -1.260930 0.0
0.138098 -1.303421 0.0
0.101009 -1.343553 0.0
0.061193 -1.383055 0.0
0.020351 -1.387308 0.0
-0.006080 -0.849566 0.0
-0.012493 -0.915572 0.0
-0.007766 -0.919668 0.0
0.007161 -0.910165 0.0
0.031061 -0.889714 0.0
0.061799 -0.865209 0.0
0.096078 -0.844889 0.0
0.130759 -0.831704 0.0
0.163741 -0.825893 0.0
0.193845 -0.827088 0.0
0.220457 -0.834931 0.0
0.243225 -0.849208 0.0
0.261847 -0.869811 0.0
0.275948 -0.896589 0.0
0.285063 -0.929169 0.0
0.288700 -0.966840 0.0
0.286434 -1.008524 0.0
0.277996 -1.052859 0.0
0.263329 -1.098340 0.0
0.242595 -1.143490 0.0
0.216162 -1.187035 0.0
0.184578 -1.228117 0.0
0.148545 -1.266625 0.0
0.108874 -1.303590 0.0
0.066364 -1.340694 0.0
0.022247 -1.344710 0.0
-0.005546 -0.837940 0.0
-0.010363 -0.915969 0.0
-0.003439 -0.930921 0.0
0.013411 -0.930689 0.0
0.038615 -0.918294 0.0
0.070494 -0.899246 0.0
0.106241 -0.880877 0.0
0.142730 -0.866886 0.0
0.177598 -0.858561 0.0
0.209370 -0.856295 0.0
0.237204 -0.860170 0.0
0.260628 -0.870161 0.0
0.279320 -0.886172 0.0
0.292974 -0.907983 0.0
0.301252 -0.935168 0.0
0.303802 -0.967029 0.0
0.300322 -1.002590 0.0
0.290624 -1.040658 0.0
0.274681 -1.079930 0.0
0.252650 -1.119135 0.0
0.224880 -1.157187 0.0
0.191906 -1.193406 0.0
0.154443 -1.227840 0.0
0.113340 -1.261600 0.0
0.069392 -1.296226 0.0
0.023397 -1.299066 0.0
-0.004437 -0.827956 0.0
-0.006554 -0.919018 0.0
0.003521 -0.944871 0.0
0.022891 -0.952959 0.0
0.049376 -0.947714 0.0
0.081536 -0.933865 0.0
0.117131 -0.917599 0.0
0.153448 -0.902970 0.0
0.188224 -0.892123 0.0
0.219903 -0.886184 0.0
0.247516 -0.885729 0.0
0.270490 -0.891001 0.0
0.288467 -0.902001 0.0
0.301173 -0.918515 0.0
0.308357 -0.940098 0.0
0.309775 -0.966067 0.0
0.305221 -0.995517 0.0
0.294570 -1.027380 0.0
0.277819 -1.060514 0.0
0.255119 -1.093822 0.0
0.226797 -1.126408 0.0
0.193376 -1.157789 0.0
0.155584 -1.188202 0.0
0.114291 -1.218841 0.0
0.070246 -1.250992 0.0
0.023805 -1.251864 0.0
-0.002451 -0.821068 0.0
-0.000392 -0.925849 0.0
0.013708 -0.962215 0.0
0.036069 -0.977345 0.0
0.063979 -0.977724 0.0
0.095907 -0.967942 0.0
0.130090 -0.953301 0.0
0.164449 -0.937945 0.0
0.197134 -0.924609 0.0
0.226773 -0.915015 0.0
0.252448 -0.910187 0.0
0.273582 -0.910651 0.0
0.289810 -0.916555 0.0
0.300877 -0.927735 0.0
0.306578 -0.943762 0.0
0.306730 -0.963973 0.0
0.301185 -0.987512 0.0
0.289852 -1.013402 0.0
0.272737 -1.040626 0.0
0.249977 -1.068249 0.0
0.221883 -1.095564 0.0
0.188973 -1.122302 0.0
0.151987 -1.148911 0.0
0.111784 -1.176636 0.0
0.069003 -1.206372 0.0
0.023509 -1.204549 0.0
0.000779 -0.819397 0.0
0.008622 -0.937423 0.0
0.027235 -0.983354 0.0
0.052769 -1.004101 0.0
0.082081 -1.008190 0.0
0.113391 -1.000713 0.0
0.145286 -0.986609 0.0
0.176338 -0.970048 0.0
0.205275 -0.954127 0.0
0.231117 -0.940978 0.0
0.253183 -0.931965 0.0
0.271022 -0.927847 0.0
0.284341 -0.928905 0.0
0.292928 -0.935039 0.0
0.296612 -0.945843 0.0
0.295241 -0.960673 0.0
0.288686 -0.978711 0.0
0.276862 -0.999046 0.0
0.259762 -1.020768 0.0
0.237506 -1.043093 0.0
0.210393 -1.065513 0.0
0.178943 -1.087994 0.0
0.143898 -1.111188 0.0
0.106057 -1.136315 0.0
0.065850 -1.163705 0.0
0.022584 -1.158456 0.0
0.005346 -0.825522 0.0
0.020441 -0.954234 0.0
0.043672 -1.008387 0.0
0.072141 -1.033071 0.0
0.102395 -1.038787 0.0
0.132554 -1.031585 0.0
0.161475 -1.016553 0.0
0.188293 -0.997973 0.0
0.212320 -0.979166 0.0
0.233063 -0.962523 0.0
0.250194 -0.949617 0.0
0.263507 -0.941349 0.0
0.272866 -0.938080 0.0
0.278156 -0.939740 0.0
0.279259 -0.945929 0.0
0.276050 -0.956006 0.0
0.268399 -0.969173 0.0
0.256209 -0.984569 0.0
0.239450 -1.001385 0.0
0.218224 -1.018993 0.0
0.192825 -1.037101 0.0
0.163781 -1.055913 0.0
0.131800 -1.076244 0.0
0.097537 -1.099155 0.0
0.061090 -1.124211 0.0
0.021139 -1.114733 0.0
0.010721 -0.841590 0.0
0.034172 -0.976712 0.0
0.062021 -1.036989 0.0
0.092654 -1.063571 0.0
0.122925 -1.068812 0.0
0.151107 -1.059900 0.0
0.176353 -1.042405 0.0
0.198256 -1.020841 0.0
0.216642 -0.998713 0.0
0.231487 -0.978564 0.0
0.242854 -0.962073 0.0
0.250838 -0.950191 0.0
0.255518 -0.943279 0.0
0.256928 -0.941241 0.0
0.255035 -0.943640 0.0
0.249754 -0.949804 0.0
0.240963 -0.958934 0.0
0.228551 -0.970206 0.0
0.212470 -0.982909 0.0
0.192817 -0.996590 0.0
0.169894 -1.011182 0.0
0.144219 -1.027112 0.0
0.116405 -1.045252 0.0
0.086832 -1.066310 0.0
0.055129 -1.088906 0.0
0.019318 -1.074276 0.0
0.016238 -0.868549 0.0
0.048297 -1.005264 0.0
0.080429 -1.068417 0.0
0.112159 -1.094507 0.0
0.141231 -1.097219 0.0
0.166380 -1.084825 0.0
0.187146 -1.063494 0.0
0.203542 -1.038050 0.0
0.215827 -1.012174 0.0
0.224383 -0.988503 0.0
0.229631 -0.968748 0.0
0.231962 -0.953831 0.0
0.231689 -0.944046 0.0
0.229010 -0.939205 0.0
0.224006 -0.938779 0.0
0.216651 -0.942028 0.0
0.206849 -0.948119 0.0
0.194495 -0.956254 0.0
0.179548 -0.965833 0.0
0.162121 -0.976586 0.0
0.142527 -0.988669 0.0
0.121233 -1.002655 0.0
0.098643 -1.019305 0.0
0.074700 -1.038740 0.0
0.048449 -1.058522 0.0
0.017279 -1.037679 0.0
0.021155 -0.905942 0.0
0.060919 -1.039694 0.0
0.096493 -1.101691 0.0
0.128126 -1.124596 0.0
0.154708 -1.122784 0.0
0.175690 -1.105389 0.0
0.191128 -1.079134 0.0
0.201467 -1.049144 0.0
0.207350 -1.019248 0.0
0.209502 -0.992138 0.0
0.208644 -0.969503 0.0
0.205421 -0.952185 0.0
0.200352 -0.940350 0.0
0.193794 -0.933664 0.0
0.185937 -0.931459 0.0
0.176829 -0.932885 0.0
0.166424 -0.937055 0.0
0.154655 -0.943194 0.0
0.141521 -0.950813 0.0
0.127172 -0.959830 0.0
0.111906 -0.970566 0.0
0.096042 -0.983601 0.0
0.079615 -0.999343 0.0
0.061975 -1.017120 0.0
0.041542 -1.033457 0.0
0.015183 -1.005216 0.0
0.024807 -0.951904 0.0
0.070237 -1.078926 0.0
0.107825 -1.135622 0.0
0.138049 -1.152521 0.0
0.160889 -1.144281 0.0
0.176636 -1.120620 0.0
0.185963 -1.088669 0.0
0.189779 -1.053764 0.0
0.189094 -1.019826 0.0
0.184931 -0.989549 0.0
0.178255 -0.964557 0.0
0.169911 -0.945564 0.0
0.160574 -0.932565 0.0
0.150722 -0.925039 0.0
0.140641 -0.922146 0.0
0.130456 -0.922905 0.0
0.120190 -0.926366 0.0
0.109848 -0.931772 0.0
0.099500 -0.938752 0.0
0.089315 -0.947357 0.0
0.079494 -0.957951 0.0
0.070047 -0.970904 0.0
0.060466 -0.986030 0.0
0.049440 -1.001767 0.0
0.034831 -1.013767 0.0
0.013158 -0.976875 0.0
0.026760 -1.003471 0.0
0.074994 -1.121022 0.0
0.112608 -1.168729 0.0
0.139923 -1.176953 0.0
0.157798 -1.160565 0.0
0.167360 -1.129647 0.0
0.169938 -1.091548 0.0
0.166922 -1.051685 0.0
0.159677 -1.013975 0.0
0.149490 -0.981051 0.0
0.137525 -0.954415 0.0
0.124769 -0.934606 0.0
0.111998 -0.921414 0.0
0.099766 -0.914107 0.0
0.088427 -0.911657 0.0
0.078176 -0.912957 0.0
0.069126 -0.916998 0.0
0.061376 -0.923047 0.0
0.055052 -0.930805 0.0
0.050268 -0.940336 0.0
0.046957 -0.951839 0.0
0.044637 -0.965249 0.0
0.042166 -0.979634 0.0
0.037648 -0.992620 0.0
0.028570 -0.999227 0.0
0.011273 -0.952445 0.0
0.026864 -1.057096 0.0
0.074648 -1.163414 0.0
0.109889 -1.199193 0.0
0.132576 -1.196491 0.0
0.144245 -1.170570 0.0
0.146787 -1.131746 0.0
0.142162 -1.087401 0.0
0.132222 -1.042876 0.0
0.118658 -1.001974 0.0
0.102986 -0.967193 0.0
0.086522 -0.939844 0.0
0.070337 -0.920235 0.0
0.055247 -0.907924 0.0
0.041839 -0.901957 0.0
0.030497 -0.901125 0.0
0.021480 -0.904221 0.0
0.014994 -0.910198 0.0
0.011211 -0.918314 0.0
0.010235 -0.928238 0.0
0.011957 -0.939842 0.0
0.015854 -0.952920 0.0
0.020842 -0.966836 0.0
0.025223 -0.979956 0.0
0.026757 -0.989314 0.0
0.022766 -0.989464 0.0
0.009514 -0.931658 0.0
0.025196 -1.109156 0.0
0.069269 -1.203210 0.0
0.099551 -1.224921 0.0
0.115750 -1.209650 0.0
0.119973 -1.173303 0.0
0.114789 -1.126371 0.0
0.102726 -1.076088 0.0
0.086043 -1.027566 0.0
0.066704 -0.984380 0.0
0.046403 -0.948815 0.0
0.026552 -0.921907 0.0
0.008228 -0.903663 0.0
-0.007777 -0.893403 0.0
-0.020906 -0.889940 0.0
-0.030772 -0.891934 0.0
-0.037070 -0.898098 0.0
-0.039560 -0.907346 0.0
-0.038089 -0.918854 0.0
-0.032735 -0.932075 0.0
-0.023991 -0.946470 0.0
-0.012906 -0.961275 0.0
-0.001083 -0.975293 0.0
0.009465 -0.986427 0.0
0.016442 -0.991355 0.0
0.017141 -0.984131 0.0
0.007773 -0.914371 0.0
0.021964 -1.156316 0.0
0.059328 -1.237488 0.0
0.082123 -1.243719 0.0
0.090004 -1.214932 0.0
0.085651 -1.167891 0.0
0.072253 -1.113200 0.0
0.052815 -1.057757 0.0
0.029932 -1.006331 0.0
0.005763 -0.962107 0.0
-0.017908 -0.927117 0.0
-0.039633 -0.902029 0.0
-0.058406 -0.886443 0.0
-0.073622 -0.879403 0.0
-0.084870 -0.879563 0.0
-0.091796 -0.885519 0.0
-0.094087 -0.895923 0.0
-0.091529 -0.909590 0.0
-0.084130 -0.925479 0.0
-0.072287 -0.942647 0.0
-0.056920 -0.960010 0.0
-0.039475 -0.976266 0.0
-0.021799 -0.989801 0.0
-0.005932 -0.998333 0.0
0.005961 -0.998320 0.0
0.011155 -0.983059 0.0
0.005839 -0.900758 0.0
0.017440 -1.195719 0.0
0.045526 -1.263536 0.0
0.058581 -1.253520 0.0
0.056573 -1.211005 0.0
0.042815 -1.153707 0.0
0.021092 -1.092262 0.0
-0.005219 -1.032947 0.0
-0.033252 -0.980226 0.0
-0.060570 -0.936725 0.0
-0.085490 -0.903907 0.0
-0.107040 -0.881965 0.0
-0.124603 -0.870171 0.0
-0.137709 -0.867354 0.0
-0.145959 -0.872113 0.0
-0.149009 -0.882992 0.0
-0.146616 -0.898552 0.0
-0.138740 -0.917396 0.0
-0.125673 -0.938140 0.0
-0.108144 -0.959357 0.0
-0.087346 -0.979464 0.0
-0.064846 -0.996757 0.0
-0.042451 -1.009381 0.0
-0.022058 -1.015013 0.0
-0.005628 -1.009963 0.0
0.004092 -0.986331 0.0
0.003420 -0.891499 0.0
0.011927 -1.225086 0.0
0.028702 -1.279030 0.0
0.030230 -1.252608 0.0
0.017257 -1.196936 0.0
-0.006191 -1.130571 0.0
-0.035659 -1.064208 0.0
-0.067097 -1.003252 0.0
-0.097712 -0.951272 0.0
-0.125822 -0.910251 0.0
-0.150325 -0.880957 0.0
-0.170516 -0.863174 0.0
-0.185900 -0.856015 0.0
-0.196084 -0.858221 0.0
-0.200744 -0.868335 0.0
-0.199661 -0.884803 0.0
-0.192790 -0.906006 0.0
-0.180344 -0.930264 0.0
-0.162856 -0.955827 0.0
-0.141203 -0.980851 0.0
-0.116575 -1.003396 0.0
-0.090391 -1.021508 0.0
-0.064240 -1.033177 0.0
-0.039840 -1.036010 0.0
-0.019115 -1.026121 0.0
-0.004784 -0.994224 0.0
0.000181 -0.887898 0.0
0.005743 -1.242756 0.0
0.009781 -1.282173 0.0
-0.001361 -1.239851 0.0
-0.025534 -1.172547 0.0
-0.057307 -1.099737 0.0
-0.091719 -1.031162 0.0
-0.125609 -0.970970 0.0
-0.157020 -0.921529 0.0
-0.184693 -0.884212 0.0
-0.207828 -0.859358 0.0
-0.225909 -0.846501 0.0
-0.238583 -0.844630 0.0
-0.245607 -0.852400 0.0
-0.246846 -0.868257 0.0
-0.242308 -0.890501 0.0
-0.232175 -0.917312 0.0
-0.216813 -0.946766 0.0
-0.196785 -0.976842 0.0
-0.172843 -1.005429 0.0
-0.145932 -1.030358 0.0
-0.117191 -1.049471 0.0
-0.087981 -1.060576 0.0
-0.059900 -1.061092 0.0
-0.034904 -1.046762 0.0
-0.015790 -1.007028 0.0
-0.004065 -0.891783 0.0
-0.000818 -1.247680 0.0
-0.010263 -1.271841 0.0
-0.033808 -1.215496 0.0
-0.066835 -1.139704 0.0
-0.103835 -1.063807 0.0
-0.140928 -0.995588 0.0
-0.175749 -0.937834 0.0
-0.206826 -0.892177 0.0
-0.233233 -0.859483 0.0
-0.254421 -0.839763 0.0
-0.270088 -0.832347 0.0
-0.280107 -0.836091 0.0
-0.284484 -0.849538 0.0
-0.283343 -0.871020 0.0
-0.276900 -0.898718 0.0
-0.265422 -0.930706 0.0
-0.249201 -0.964953 0.0
-0.228573 -0.999312 0.0
-0.203964 -1.031509 0.0
-0.175983 -1.059170 0.0
-0.145504 -1.079877 0.0
-0.113736 -1.091149 0.0
-0.082240 -1.090096 0.0
-0.052981 -1.072012 0.0
-0.028533 -1.025340 0.0
-0.008940 -0.904787 0.0
-0.007467 -1.239396 0.0
-0.029564 -1.248583 0.0
-0.062824 -1.181949 0.0
-0.101564 -1.101484 0.0
-0.141468 -1.025122 0.0
-0.179623 -0.959026 0.0
-0.214219 -0.904979 0.0
-0.244148 -0.864025 0.0
-0.268782 -0.836595 0.0
-0.287844 -0.822402 0.0
-0.301320 -0.820565 0.0
-0.309385 -0.829790 0.0
-0.312332 -0.848516 0.0
-0.310483 -0.875031 0.0
-0.304094 -0.907539 0.0
-0.293289 -0.944170 0.0
-0.278066 -0.982933 0.0
-0.258386 -1.021641 0.0
-0.234306 -1.057868 0.0
-0.206133 -1.088966 0.0
-0.174547 -1.112147 0.0
-0.140669 -1.124525 0.0
-0.106045 -1.122839 0.0
-0.072554 -1.102018 0.0
-0.042185 -1.050152 0.0
-0.014013 -0.927740 0.0
-0.013494 -1.218436 0.0
-0.045753 -1.215186 0.0
-0.085278 -1.142561 0.0
-0.127011 -1.060399 0.0
-0.167886 -0.985428 0.0
-0.205746 -0.922706 0.0
-0.239189 -0.873260 0.0
-0.267410 -0.837592 0.0
-0.290082 -0.815721 0.0
-0.307250 -0.807045 0.0
-0.319234 -0.810461 0.0
-0.326515 -0.824548 0.0
-0.329584 -0.847742 0.0
-0.328785 -0.878452 0.0
-0.324205 -0.915088 0.0
-0.315646 -0.955985 0.0
-0.302725 -0.999261 0.0
-0.285031 -1.042687 0.0
-0.262315 -1.083618 0.0
-0.234657 -1.119048 0.0
-0.202582 -1.145726 0.0
-0.167121 -1.160284 0.0
-0.129752 -1.159073 0.0
-0.092155 -1.136872 0.0
-0.055635 -1.082188 0.0
-0.018880 -0.960632 0.0
-0.018120 -1.186823 0.0
-0.057314 -1.175345 0.0
-0.099869 -1.100323 0.0
-0.142157 -1.018616 0.0
-0.182251 -0.946242 0.0
-0.218611 -0.887672 0.0
-0.250144 -0.843319 0.0
-0.276317 -0.813139 0.0
-0.297109 -0.796710 0.0
-0.312898 -0.793100 0.0
-0.324310 -0.801009 0.0
-0.332031 -0.818999 0.0
-0.336579 -0.845675 0.0
-0.338138 -0.879759 0.0
-0.336489 -0.920011 0.0
-0.331079 -0.965030 0.0
-0.321190 -1.013027 0.0
-0.306136 -1.061669 0.0
-0.285448 -1.108039 0.0
-0.259015 -1.148718 0.0
-0.227191 -1.179955 0.0
-0.190848 -1.197860 0.0
-0.151309 -1.198405 0.0
-0.110004 -1.176442 0.0
-0.067698 -1.121445 0.0
-0.023159 -1.002670 0.0
-0.021012 -1.147691 0.0
-0.063827 -1.132466 0.0
-0.106573 -1.057902 0.0
-0.147195 -0.978128 0.0
-0.184856 -0.908974 0.0
-0.218598 -0.854838 0.0
-0.247585 -0.815633 0.0
-0.271509 -0.790728 0.0
-0.290618 -0.779220 0.0
-0.305563 -0.779857 0.0
-0.317165 -0.791236 0.0
-0.326156 -0.812060 0.0
-0.332933 -0.841289 0.0
-0.337422 -0.878096 0.0
-0.339103 -0.921642 0.0
-0.337148 -0.970763 0.0
-0.330619 -1.023711 0.0
-0.318658 -1.078001 0.0
-0.300631 -1.130423 0.0
-0.276241 -1.177157 0.0
-0.245608 -1.213972 0.0
-0.209346 -1.236449 0.0
-0.168538 -1.240164 0.0
-0.124375 -1.220150 0.0
-0.077327 -1.167091 0.0
-0.026531 -1.052360 0.0
-0.022241 -1.104438 0.0
-0.065695 -1.089451 0.0
-0.106220 -1.017646 0.0
-0.143167 -0.940814 0.0
-0.176802 -0.874992 0.0
-0.206825 -0.825056 0.0
-0.232652 -0.790600 0.0
-0.254118 -0.770370 0.0
-0.271631 -0.762955 0.0
-0.285983 -0.766826 0.0
-0.298050 -0.780598 0.0
-0.308482 -0.803274 0.0
-0.317487 -0.834294 0.0
-0.324763 -0.873326 0.0
-0.329586 -0.919907 0.0
-0.330980 -0.973059 0.0
-0.327902 -1.031022 0.0
-0.319397 -1.091157 0.0
-0.304701 -1.149989 0.0
-0.283314 -1.203367 0.0
-0.255059 -1.246650 0.0
-0.220185 -1.274907 0.0
-0.179447 -1.283252 0.0
-0.133831 -1.266839 0.0
-0.083725 -1.217555 0.0
-0.028763 -1.107654 0.0
-0.022100 -1.060096 0.0
-0.063796 -1.048644 0.0
-0.100175 -0.981549 0.0
-0.131697 -0.908442 0.0
-0.159744 -0.845682 0.0
-0.184867 -0.799220 0.0
-0.206800 -0.768676 0.0
-0.225409 -0.752220 0.0
-0.241089 -0.747912 0.0
-0.254617 -0.753990 0.0
-0.266799 -0.769186 0.0
-0.278154 -0.792898 0.0
-0.288736 -0.825083 0.0
-0.298116 -0.865881 0.0
-0.305499 -0.915147 0.0
-0.309879 -0.972044 0.0
-0.310198 -1.034796 0.0
-0.305459 -1.100628 0.0
-0.294798 -1.165874 0.0
-0.277510 -1.226157 0.0
-0.253071 -1.276555 0.0
-0.221267 -1.311680 0.0
-0.182416 -1.326068 0.0
-0.137298 -1.314757 0.0
-0.086341 -1.270701 0.0
-0.029698 -1.166114 0.0
-0.020962 -1.017034 0.0
-0.059198 -1.011774 0.0
-0.090090 -0.951146 0.0
-0.114806 -0.882609 0.0
-0.135761 -0.822513 0.0
-0.154626 -0.778399 0.0
-0.171650 -0.750541 0.0
-0.186655 -0.736742 0.0
-0.199832 -0.734532 0.0
-0.211777 -0.741898 0.0
-0.223157 -0.757717 0.0
-0.234379 -0.781790 0.0
-0.245431 -0.814557 0.0
-0.255885 -0.856572 0.0
-0.264998 -0.907961 0.0
-0.271834 -0.968013 0.0
-0.275384 -1.034958 0.0
-0.274661 -1.105929 0.0
-0.268738 -1.177157 0.0
-0.256728 -1.244173 0.0
-0.237740 -1.301966 0.0
-0.211007 -1.344807 0.0
-0.176281 -1.366518 0.0
-0.134057 -1.361649 0.0
-0.084832 -1.323990 0.0
-0.029244 -1.225056 0.0
-0.019193 -0.976879 0.0
-0.052963 -0.979924 0.0
-0.077683 -0.927383 0.0
-0.094766 -0.864574 0.0
-0.107341 -0.807016 0.0
-0.118403 -0.763969 0.0
-0.129105 -0.737246 0.0
-0.139314 -0.724823 0.0
-0.148860 -0.723728 0.0
-0.158021 -0.731594 0.0
-0.167284 -0.747376 0.0
-0.176985 -0.771208 0.0
-0.187145 -0.803928 0.0
-0.197452 -0.846440 0.0
-0.207317 -0.899115 0.0
-0.215956 -0.961384 0.0
-0.222468 -1.031525 0.0
-0.225926 -1.106627 0.0
-0.225385 -1.182922 0.0
-0.219812 -1.255992 0.0
-0.207972 -1.320975 0.0
-0.188484 -1.372018 0.0
-0.160383 -1.402132 0.0
-0.123735 -1.404908 0.0
-0.079048 -1.374643 0.0
-0.027370 -1.281670 0.0
-0.017098 -0.940588 0.0
-0.045982 -0.953562 0.0
-0.064490 -0.910516 0.0
-0.073869 -0.854979 0.0
-0.077345 -0.800560 0.0
-0.079109 -0.757600 0.0
-0.081705 -0.730316 0.0
-0.085428 -0.717820 0.0
-0.089779 -0.716834 0.0
-0.094637 -0.724469 0.0
-0.100260 -0.739615 0.0
-0.106929 -0.762599 0.0
-0.114757 -0.794548 0.0
-0.123627 -0.836643 0.0
-0.133190 -0.889484 0.0
-0.142889 -0.952678 0.0
-0.151991 -1.024618 0.0
-0.159675 -1.102392 0.0
-0.165012 -1.182362 0.0
-0.166866 -1.260272 0.0
-0.163721 -1.331680 0.0
-0.153588 -1.390934 0.0
-0.134653 -1.430252 0.0
-0.106342 -1.441748 0.0
-0.069050 -1.419780 0.0
-0.024111 -1.333151 0.0
-0.014879 -0.908611 0.0
-0.038848 -0.932686 0.0
-0.051595 -0.900137 0.0
-0.054019 -0.853556 0.0
-0.048697 -0.803829 0.0
-0.040336 -0.760928 0.0
-0.033023 -0.731705 0.0
-0.028142 -0.717590 0.0
-0.025318 -0.715537 0.0
-0.024128 -0.722098 0.0
-0.024545 -0.735945 0.0
-0.026730 -0.757415 0.0
-0.030869 -0.787765 0.0
-0.037065 -0.828360 0.0
-0.045269 -0.880000 0.0
-0.055220 -0.942513 0.0
-0.066421 -1.014480 0.0
-0.078195 -1.093070 0.0
-0.089644 -1.174898 0.0
-0.099556 -1.255970 0.0
-0.106232 -1.332452 0.0
-0.107188 -1.399338 0.0
-0.099700 -1.448271 0.0
-0.082320 -1.469420 0.0
-0.055131 -1.456588 0.0
-0.019576 -1.376838 0.0
-0.012626 -0.881106 0.0
-0.031802 -0.917045 0.0
-0.039428 -0.895405 0.0
-0.036202 -0.859091 0.0
-0.023604 -0.816214 0.0
-0.005739 -0.774769 0.0
0.012476 -0.743390 0.0
0.028041 -0.726351 0.0
0.040229 -0.721788 0.0
0.049316 -0.726125 0.0
0.055603 -0.737788 0.0
0.059152 -0.756937 0.0
0.059811 -0.784762 0.0
0.057316 -0.822672 0.0
0.051435 -0.871602 0.0
0.042090 -0.931615 0.0
0.029451 -1.001539 0.0
0.014034 -1.078820 0.0
-0.003324 -1.160341 0.0
-0.021346 -1.242593 0.0
-0.038230 -1.322269 0.0
-0.051263 -1.395532 0.0
-0.056887 -1.453941 0.0
-0.052577 -1.485441 0.0
-0.037834 -1.482498 0.0
-0.013952 -1.410366 0.0
-0.010322 -0.858159 0.0
-0.024770 -0.906368 0.0
-0.027791 -0.895434 0.0
-0.020232 -0.869847 0.0
-0.002594 -0.835694 0.0
0.022585 -0.798333 0.0
0.050907 -0.766363 0.0
0.077930 -0.745967 0.0
0.101060 -0.737489 0.0
0.119709 -0.738160 0.0
0.134075 -0.746406 0.0
0.144361 -0.762155 0.0
0.150524 -0.786366 0.0
0.152288 -0.820336 0.0
0.149282 -0.865051 0.0
0.141195 -0.920735 0.0
0.127947 -0.986531 0.0
0.109854 -1.060317 0.0
0.087657 -1.139289 0.0
0.062463 -1.220430 0.0
0.035988 -1.301072 0.0
0.011029 -1.378736 0.0
-0.008364 -1.445720 0.0
-0.018479 -1.487857 0.0
-0.017933 -1.495370 0.0
-0.007496 -1.431814 0.0
-0.007878 -0.839959 0.0
-0.017494 -0.900504 0.0
-0.016150 -0.899620 0.0
-0.005142 -0.884228 0.0
0.015517 -0.859610 0.0
0.045040 -0.829120 0.0
0.080514 -0.799372 0.0
0.117244 -0.776712 0.0
0.151162 -0.763791 0.0
0.180186 -0.759531 0.0
0.203694 -0.762910 0.0
0.221601 -0.773845 0.0
0.233841 -0.793080 0.0
0.240176 -0.821722 0.0
0.240231 -0.860715 0.0
0.233637 -0.910390 0.0
0.220209 -0.970199 0.0
0.200153 -1.038500 0.0
0.174173 -1.112930 0.0
0.143426 -1.190848 0.0
0.109537 -1.270291 0.0
0.074824 -1.349845 0.0
0.042895 -1.423290 0.0
0.018228 -1.475504 0.0
0.003635 -1.493676 0.0
-0.000501 -1.439810 0.0
-0.005161 -0.826920 0.0
-0.009668 -0.899421 0.0
-0.003987 -0.907728 0.0
0.010155 -0.901271 0.0
0.032718 -0.885789 0.0
0.063953 -0.863699 0.0
0.102601 -0.838915 0.0
0.145122 -0.816421 0.0
0.187147 -0.800024 0.0
0.225320 -0.790496 0.0
0.257763 -0.787896 0.0
0.283563 -0.792566 0.0
0.302251 -0.805286 0.0
0.313469 -0.827069 0.0
0.316851 -0.858804 0.0
0.312062 -0.900919 0.0
0.298944 -0.953123 0.0
0.277691 -1.014267 0.0
0.248992 -1.082484 0.0
0.214053 -1.155607 0.0
0.174549 -1.232139 0.0
0.132633 -1.311368 0.0
0.091314 -1.388518 0.0
0.054570 -1.448864 0.0
0.025710 -1.476863 0.0
0.006767 -1.433544 0.0
-0.002030 -0.819729 0.0
-0.001034 -0.903101 0.0
0.008984 -0.919747 0.0
0.026314 -0.920723 0.0
0.050534 -0.913120 0.0
0.082115 -0.899184 0.0
0.120862 -0.880826 0.0
0.164808 -0.860976 0.0
0.210450 -0.843135 0.0
0.254147 -0.829255 0.0
0.293109 -0.820542 0.0
0.325475 -0.818086 0.0
0.350061 -0.823041 0.0
0.366095 -0.836565 0.0
0.373031 -0.859625 0.0
0.370505 -0.892784 0.0
0.358384 -0.936019 0.0
0.336892 -0.988625 0.0
0.306730 -1.049264 0.0
0.269144 -1.116303 0.0
0.225902 -1.188697 0.0
0.179195 -1.266187 0.0
0.131618 -1.344805 0.0
0.086275 -1.410491 0.0
0.046124 -1.446225 0.0
0.013832 -1.412945 0.0
0.001600 -0.819299 0.0
0.008483 -0.911409 0.0
0.022668 -0.935643 0.0
0.043266 -0.942754 0.0
0.069412 -0.941456 0.0
0.101260 -0.934277 0.0
0.138886 -0.922106 0.0
0.181358 -0.906113 0.0
0.226375 -0.888658 0.0
0.270912 -0.871966 0.0
0.312120 -0.858000 0.0
0.347694 -0.848568 0.0
0.375900 -0.845352 0.0
0.395466 -0.849854 0.0
0.405484 -0.863290 0.0
0.405362 -0.886471 0.0
0.394852 -0.919702 0.0
0.374122 -0.962721 0.0
0.343852 -1.014736 0.0
0.305320 -1.074712 0.0
0.260414 -1.142141 0.0
0.211445 -1.217066 0.0
0.160718 -1.295622 0.0
0.110387 -1.364000 0.0
0.062602 -1.404780 0.0
0.019809 -1.379305 0.0
0.005492 -0.826392 0.0
0.018472 -0.924179 0.0
0.036689 -0.955275 0.0
0.060510 -0.967540 0.0
0.088843 -0.971150 0.0
0.121463 -0.969052 0.0
0.158201 -0.961694 0.0
0.198350 -0.949145 0.0
0.240346 -0.932639 0.0
0.282000 -0.914177 0.0
0.321044 -0.896041 0.0
0.355445 -0.880503 0.0
0.383486 -0.869663 0.0
0.403734 -0.865357 0.0
0.415016 -0.869088 0.0
0.416447 -0.881982 0.0
0.407503 -0.904736 0.0
0.388136 -0.937589 0.0
0.358900 -0.980362 0.0
0.321067 -1.032721 0.0
0.276660 -1.094819 0.0
0.228095 -1.166854 0.0
0.177327 -1.244339 0.0
0.125507 -1.313132 0.0
0.073804 -1.356160 0.0
0.024084 -1.335412 0.0
0.009194 -0.841078 0.0
0.028242 -0.941520 0.0
0.050512 -0.978420 0.0
0.077330 -0.995035 0.0
0.107872 -1.002530 0.0
0.141699 -1.004119 0.0
0.178236 -0.999901 0.0
0.216448 -0.989299 0.0
0.254858 -0.972891 0.0
0.291790 -0.952512 0.0
0.325674 -0.930632 0.0
0.355162 -0.909801 0.0
0.379094 -0.892338 0.0
0.396393 -0.880229 0.0
0.406011 -0.875116 0.0
0.406967 -0.878341 0.0
0.398498 -0.890965 0.0
0.380267 -0.913763 0.0
0.352614 -0.947298 0.0
0.316789 -0.992126 0.0
0.274945 -1.049163 0.0
0.229464 -1.118465 0.0
0.181671 -1.194168 0.0
0.131574 -1.261386 0.0
0.079408 -1.304036 0.0
0.026460 -1.284868 0.0
0.012456 -0.862729 0.0
0.037183 -0.963643 0.0
0.063430 -1.004812 0.0
0.092978 -1.025009 0.0
0.125563 -1.035683 0.0
0.160727 -1.039958 0.0
0.197499 -1.037371 0.0
0.234297 -1.026840 0.0
0.269325 -1.008787 0.0
0.301039 -0.985263 0.0
0.328379 -0.959105 0.0
0.350725 -0.933162 0.0
0.367695 -0.909879 0.0
0.378915 -0.891207 0.0
0.383851 -0.878691 0.0
0.381777 -0.873648 0.0
0.371925 -0.877336 0.0
0.353785 -0.891021 0.0
0.327570 -0.916174 0.0
0.294618 -0.954473 0.0
0.257205 -1.007560 0.0
0.217346 -1.074728 0.0
0.175227 -1.147993 0.0
0.129556 -1.211793 0.0
0.079865 -1.251771 0.0
0.027045 -1.231364 0.0
0.015154 -0.890340 0.0
0.044836 -0.990441 0.0
0.074773 -1.034198 0.0
0.106777 -1.057176 0.0
0.141171 -1.070495 0.0
0.177569 -1.076708 0.0
0.214601 -1.074425 0.0
0.250068 -1.062052 0.0
0.281734 -1.040268 0.0
0.308035 -1.011797 0.0
0.328279 -0.980156 0.0
0.342467 -0.948645 0.0
0.350969 -0.919867 0.0
0.354186 -0.895655 0.0
0.352274 -0.877267 0.0
0.345015 -0.865739 0.0
0.331909 -0.862286 0.0
0.312531 -0.868553 0.0
0.287279 -0.887176 0.0
0.257895 -0.921134 0.0
0.226715 -0.972307 0.0
0.194739 -1.038146 0.0
0.160384 -1.108102 0.0
0.121081 -1.166710 0.0
0.076086 -1.202168 0.0
0.026129 -1.178189 0.0
0.017245 -0.922740 0.0
0.050931 -1.021409 0.0
0.084027 -1.066263 0.0
0.118163 -1.091251 0.0
0.154118 -1.106768 0.0
0.191528 -1.114242 0.0
0.228529 -1.110924 0.0
0.262244 -1.094736 0.0
0.290031 -1.067037 0.0
0.310378 -1.031676 0.0
0.323000 -0.993143 0.0
0.328491 -0.955337 0.0
0.327884 -0.921071 0.0
0.322264 -0.892048 0.0
0.312448 -0.869146 0.0
0.298789 -0.852943 0.0
0.281226 -0.844413 0.0
0.259694 -0.845515 0.0
0.235294 -0.860562 0.0
0.210619 -0.893690 0.0
0.187657 -0.945609 0.0
0.165364 -1.010574 0.0
0.139941 -1.075896 0.0
0.108018 -1.127689 0.0
0.069153 -1.157330 0.0
0.024071 -1.127989 0.0
0.018729 -0.958714 0.0
0.055345 -1.055736 0.0
0.090863 -1.100552 0.0