# vtk DataFile Version 3.0
Vector Field
ASCII
DATASET RECTILINEAR_GRID
DIMENSIONS 26 100 1
X_COORDINATES 26 double
0.050000 0.150000 0.250000 0.350000 0.450000 0.550000 0.650000 0.750000 0.850000 0.950000 1.050000 1.150000 1.250000 1.350000 1.450000 1.550000 1.650000 1.750000 1.850000 1.950000 2.050000 2.150000 2.250000 2.350000 2.450000 2.550000 
Y_COORDINATES 100 double
0.050000 0.150000 0.250000 0.350000 0.450000 0.550000 0.650000 0.750000 0.850000 0.950000 1.050000 1.150000 1.250000 1.350000 1.450000 1.550000 1.650000 1.750000 1.850000 1.950000 2.050000 2.150000 2.250000 2.350000 2.450000 2.550000 2.650000 2.750000 2.850000 2.950000 3.050000 3.150000 3.250000 3.350000 3.450000 3.550000 3.650000 3.750000 3.850000 3.950000 4.050000 4.150000 4.250000 4.350000 4.450000 4.550000 4.650000 4.750000 4.850000 4.950000 5.050000 5.150000 5.250000 5.350000 5.450000 5.550000 5.650000 5.750000 5.850000 5.950000 6.050000 6.150000 6.250000 6.350000 6.450000 6.550000 6.650000 6.750000 6.850000 6.950000 7.050000 7.150000 7.250000 7.350000 7.450000 7.550000 7.650000 7.750000 7.850000 7.950000 8.050000 8.150000 8.250000 8.350000 8.450000 8.550000 8.650000 8.750000 8.850000 8.950000 9.050000 9.150000 9.250000 9.350000 9.450000 9.550000 9.650000 9.750000 9.850000 9.950000 
Z_COORDINATES 1 double
0.0
POINT_DATA 2600
VECTORS Vektorfeld double
0.001828 -0.806189 0.0
0.006059 -0.968621 0.0
0.011892 -1.041007 0.0
0.019093 -1.084732 0.0
0.026431 -1.109879 0.0
0.033005 -1.120462 0.0
0.038265 -1.119578 0.0
0.041956 -1.110068 0.0
0.044049 -1.094501 0.0
0.044669 -1.075074 0.0
0.044039 -1.053569 0.0
0.042426 -1.031357 0.0
0.040106 -1.009446 0.0
0.037339 -0.988556 0.0
0.034347 -0.969205 0.0
0.031309 -0.951805 0.0
0.028351 -0.936803 0.0
0.025567 -0.924901 0.0
0.023047 -0.917468 0.0
0.020887 -0.916250 0.0
0.019110 -0.922963 0.0
0.017540 -0.938601 0.0
0.015711 -0.961649 0.0
0.012983 -0.986505 0.0
0.008869 -1.004388 0.0
0.003213 -0.956422 0.0
0.002457 -0.810475 0.0
0.008151 -0.974260 0.0
0.016877 -1.049928 0.0
0.028229 -1.094364 0.0
0.039230 -1.118586 0.0
0.048244 -1.127342 0.0
0.054530 -1.124243 0.0
0.057918 -1.112483 0.0
0.058603 -1.094864 0.0
0.056990 -1.073719 0.0
0.053591 -1.050895 0.0
0.048947 -1.027774 0.0
0.043576 -1.005338 0.0
0.037940 -0.984261 0.0
0.032427 -0.964995 0.0
0.027335 -0.947883 0.0
0.022872 -0.933304 0.0
0.019191 -0.921934 0.0
0.016507 -0.915232 0.0
0.015119 -0.914938 0.0
0.015163 -0.922541 0.0
0.016233 -0.938524 0.0
0.017137 -0.960802 0.0
0.016229 -0.983717 0.0
0.012199 -0.999032 0.0
0.004643 -0.948566 0.0
0.004766 -0.817698 0.0
0.014465 -0.982429 0.0
0.026170 -1.062190 0.0
0.039733 -1.107017 0.0
0.052127 -1.129329 0.0
0.061556 -1.135043 0.0
0.067268 -1.128539 0.0
0.069200 -1.113507 0.0
0.067722 -1.093046 0.0
0.063445 -1.069648 0.0
0.057096 -1.045218 0.0
0.049414 -1.021126 0.0
0.041101 -0.998302 0.0
0.032782 -0.977342 0.0
0.024985 -0.958605 0.0
0.018138 -0.942335 0.0
0.012574 -0.928826 0.0
0.008582 -0.918739 0.0
0.006530 -0.913692 0.0
0.006776 -0.915336 0.0
0.009251 -0.924662 0.0
0.013027 -0.941250 0.0
0.016262 -0.962213 0.0
0.016870 -0.982006 0.0
0.013400 -0.993241 0.0
0.005261 -0.938662 0.0
0.007640 -0.830104 0.0
0.022296 -0.994378 0.0
0.037180 -1.076830 0.0
0.052253 -1.121013 0.0
0.064905 -1.140379 0.0
0.073528 -1.142045 0.0
0.077527 -1.131247 0.0
0.077024 -1.112229 0.0
0.072595 -1.088416 0.0
0.065062 -1.062468 0.0
0.055352 -1.036338 0.0
0.044395 -1.011367 0.0
0.033060 -0.988413 0.0
0.022124 -0.967976 0.0
0.012263 -0.950312 0.0
0.004045 -0.935562 0.0
-0.002051 -0.923938 0.0
-0.005583 -0.916102 0.0
-0.006080 -0.913779 0.0
-0.003320 -0.918255 0.0
0.002178 -0.929715 0.0
0.008874 -0.946670 0.0
0.014427 -0.965581 0.0
0.016578 -0.981399 0.0
0.013882 -0.987681 0.0
0.005600 -0.927801 0.0
0.010756 -0.848500 0.0
0.030715 -1.010598 0.0
0.048637 -1.093416 0.0
0.064503 -1.135365 0.0
0.076381 -1.150557 0.0
0.083084 -1.147192 0.0
0.084324 -1.131340 0.0
0.080490 -1.107800 0.0
0.072396 -1.080322 0.0
0.061088 -1.051721 0.0
0.047693 -1.023980 0.0
0.033322 -0.998396 0.0
0.019009 -0.975735 0.0
0.005688 -0.956397 0.0
-0.005810 -0.940532 0.0
-0.014747 -0.928188 0.0
-0.020500 -0.919463 0.0
-0.022548 -0.914998 0.0
-0.020485 -0.916449 0.0
-0.014440 -0.924391 0.0
-0.005554 -0.937964 0.0
0.004066 -0.954736 0.0
0.011843 -0.970844 0.0
0.015566 -0.982009 0.0
0.013842 -0.982650 0.0
0.005746 -0.916455 0.0
0.013762 -0.873017 0.0
0.038729 -1.031007 0.0
0.059196 -1.111396 0.0
0.075108 -1.149163 0.0
0.085283 -1.158813 0.0
0.089096 -1.149451 0.0
0.086676 -1.127902 0.0
0.078748 -1.099476 0.0
0.066405 -1.068209 0.0
0.050926 -1.037047 0.0
0.033646 -1.007980 0.0
0.015861 -0.982241 0.0
-0.001227 -0.960489 0.0
-0.016466 -0.943083 0.0
-0.028805 -0.930010 0.0
-0.037447 -0.921130 0.0
-0.041784 -0.916431 0.0
-0.041305 -0.916462 0.0
-0.035844 -0.922509 0.0
-0.026081 -0.934138 0.0
-0.013778 -0.949406 0.0
-0.001420 -0.965272 0.0
0.008460 -0.977966 0.0
0.013852 -0.984002 0.0
0.013346 -0.978428 0.0
0.005736 -0.904972 0.0
0.016316 -0.903095 0.0
0.045408 -1.054988 0.0
0.067595 -1.130068 0.0
0.082742 -1.161550 0.0
0.090365 -1.164225 0.0
0.090455 -1.147941 0.0
0.083634 -1.120171 0.0
0.071014 -1.086659 0.0
0.053996 -1.051665 0.0
0.034113 -1.018229 0.0
0.012915 -0.988320 0.0
-0.008102 -0.963099 0.0
-0.027373 -0.943272 0.0
-0.043513 -0.928922 0.0
-0.055582 -0.919764 0.0
-0.062858 -0.915457 0.0
-0.064748 -0.915877 0.0
-0.060901 -0.921341 0.0
-0.051599 -0.932394 0.0
-0.038152 -0.947464 0.0
-0.022768 -0.963768 0.0
-0.007978 -0.978058 0.0
0.003957 -0.986994 0.0
0.011241 -0.987649 0.0
0.012312 -0.975346 0.0
0.005552 -0.893684 0.0
0.018118 -0.937529 0.0
0.049963 -1.081492 0.0
0.072776 -1.148564 0.0
0.086265 -1.171691 0.0
0.090539 -1.165982 0.0
0.086200 -1.141935 0.0
0.074398 -1.107554 0.0
0.056666 -1.068923 0.0
0.034734 -1.030452 0.0
0.010389 -0.995215 0.0
-0.014519 -0.965227 0.0
-0.037923 -0.941770 0.0
-0.058094 -0.925158 0.0
-0.073962 -0.915027 0.0
-0.084697 -0.910856 0.0
-0.089622 -0.912164 0.0
-0.088288 -0.918614 0.0
-0.080693 -0.930046 0.0
-0.067686 -0.945998 0.0
-0.051080 -0.963913 0.0
-0.033194 -0.980588 0.0
-0.016284 -0.992937 0.0
-0.002212 -0.998123 0.0
0.007356 -0.993372 0.0
0.010517 -0.973855 0.0
0.005117 -0.883015 0.0
0.018961 -0.974607 0.0
0.051851 -1.109149 0.0
0.073988 -1.165857 0.0
0.084842 -1.178741 0.0
0.084998 -1.163363 0.0
0.075631 -1.130848 0.0
0.058421 -1.089629 0.0
0.035333 -1.046027 0.0
0.008409 -1.004493 0.0
-0.020087 -0.968332 0.0
-0.047503 -0.939786 0.0
-0.071732 -0.919578 0.0
-0.091573 -0.907338 0.0
-0.106102 -0.902449 0.0
-0.114572 -0.904229 0.0
-0.116466 -0.911972 0.0
-0.111647 -0.924960 0.0
-0.100587 -0.942354 0.0
-0.084617 -0.962667 0.0
-0.065721 -0.982746 0.0
-0.045959 -0.999404 0.0
-0.027117 -1.009874 0.0
-0.010709 -1.011665 0.0
0.001647 -1.001754 0.0
0.007574 -0.974561 0.0
0.004282 -0.873616 0.0
0.018756 -1.012324 0.0
0.050814 -1.136380 0.0
0.070843 -1.180792 0.0
0.078015 -1.181832 0.0
0.073298 -1.155710 0.0
0.058388 -1.114223 0.0
0.035480 -1.066136 0.0
0.006925 -1.017877 0.0
-0.024537 -0.974258 0.0
-0.055579 -0.939028 0.0
-0.083643 -0.913610 0.0
-0.107390 -0.897778 0.0
-0.125821 -0.890867 0.0
-0.138133 -0.892078 0.0
-0.143766 -0.900496 0.0
-0.142513 -0.915064 0.0
-0.134650 -0.934551 0.0
-0.121071 -0.957402 0.0
-0.103297 -0.981364 0.0
-0.083077 -1.003164 0.0
-0.061944 -1.019881 0.0
-0.041199 -1.028984 0.0
-0.022170 -1.027992 0.0
-0.006526 -1.013428 0.0
0.002910 -0.978250 0.0
0.002805 -0.866530 0.0
0.017525 -1.048605 0.0
0.046870 -1.161502 0.0
0.063302 -1.192130 0.0
0.065713 -1.180078 0.0
0.055387 -1.142421 0.0
0.034495 -1.091712 0.0
0.005689 -1.036934 0.0
-0.027747 -0.985088 0.0
-0.061722 -0.941611 0.0
-0.093140 -0.909214 0.0
-0.120477 -0.888024 0.0
-0.142657 -0.877438 0.0
-0.158845 -0.876588 0.0
-0.168463 -0.884428 0.0
-0.171273 -0.899703 0.0
-0.167458 -0.920926 0.0
-0.157656 -0.946354 0.0
-0.142935 -0.973899 0.0
-0.124611 -1.000964 0.0
-0.103895 -1.024500 0.0
-0.081729 -1.041844 0.0
-0.059039 -1.050455 0.0
-0.037084 -1.047504 0.0
-0.017761 -1.028883 0.0
-0.004189 -0.985803 0.0
0.000333 -0.863392 0.0
0.015368 -1.081499 0.0
0.040243 -1.182829 0.0
0.051622 -1.198614 0.0
0.048216 -1.172600 0.0
0.031591 -1.122947 0.0
0.004348 -1.063051 0.0
-0.029689 -1.002751 0.0
-0.065608 -0.949915 0.0
-0.099662 -0.908754 0.0
-0.130038 -0.880276 0.0
-0.155565 -0.864098 0.0
-0.175390 -0.859360 0.0
-0.188936 -0.864932 0.0
-0.195967 -0.879434 0.0
-0.196636 -0.901218 0.0
-0.191456 -0.928407 0.0
-0.181200 -0.958929 0.0
-0.166757 -0.990489 0.0
-0.148936 -1.020519 0.0
-0.128316 -1.046282 0.0
-0.105360 -1.065185 0.0
-0.080763 -1.074402 0.0
-0.055766 -1.070509 0.0
-0.032447 -1.048520 0.0
-0.014238 -0.997948 0.0
-0.003473 -0.866533 0.0
0.012435 -1.109301 0.0
0.031302 -1.198768 0.0
0.036293 -1.199044 0.0
0.026106 -1.158577 0.0
0.002594 -1.096832 0.0
-0.030329 -1.029000 0.0
-0.066941 -0.966152 0.0
-0.102719 -0.914819 0.0
-0.135413 -0.877102 0.0
-0.163695 -0.853271 0.0
-0.186681 -0.842590 0.0
-0.203811 -0.843912 0.0
-0.214876 -0.855769 0.0
-0.220037 -0.876403 0.0
-0.219771 -0.903845 0.0
-0.214706 -0.936026 0.0
-0.205438 -0.970833 0.0
-0.192397 -1.006069 0.0
-0.175788 -1.039368 0.0
-0.155669 -1.068172 0.0
-0.132200 -1.089719 0.0
-0.105940 -1.100724 0.0
-0.078078 -1.097046 0.0
-0.050702 -1.072679 0.0
-0.027161 -1.015539 0.0
-0.008431 -0.878437 0.0
0.008899 -1.130635 0.0
0.020505 -1.207907 0.0
0.017976 -1.192368 0.0
0.000245 -1.137336 0.0
-0.029536 -1.064779 0.0
-0.065374 -0.992294 0.0
-0.101839 -0.929780 0.0
-0.136038 -0.881214 0.0
-0.166380 -0.847671 0.0
-0.191901 -0.828898 0.0
-0.212057 -0.823821 0.0
-0.226670 -0.830939 0.0
-0.235940 -0.848408 0.0
-0.240365 -0.874177 0.0
-0.240541 -0.906163 0.0
-0.236925 -0.942390 0.0
-0.229693 -0.980969 0.0
-0.218726 -1.019942 0.0
-0.203732 -1.057099 0.0
-0.184442 -1.089850 0.0
-0.160851 -1.115103 0.0
-0.133397 -1.129055 0.0
-0.103119 -1.126855 0.0
-0.071849 -1.101517 0.0
-0.042278 -1.039812 0.0
-0.014152 -0.901020 0.0
0.004950 -1.144485 0.0
0.008371 -1.209083 0.0
-0.002500 -1.177791 0.0
-0.027231 -1.109452 0.0
-0.060570 -1.029542 0.0
-0.096570 -0.955694 0.0
-0.131432 -0.895055 0.0
-0.163111 -0.850061 0.0
-0.190497 -0.821096 0.0
-0.213010 -0.807438 0.0
-0.230496 -0.807639 0.0
-0.243197 -0.819807 0.0
-0.251667 -0.841800 0.0
-0.256550 -0.871477 0.0
-0.258301 -0.906935 0.0
-0.256995 -0.946539 0.0
-0.252311 -0.988736 0.0
-0.243682 -1.031771 0.0
-0.230509 -1.073437 0.0
-0.212368 -1.110942 0.0
-0.189148 -1.140822 0.0
-0.161127 -1.158810 0.0
-0.129049 -1.159456 0.0
-0.094219 -1.135016 0.0
-0.058271 -1.071831 0.0
-0.020113 -0.935285 0.0
0.000775 -1.150210 0.0
-0.004526 -1.201479 0.0
-0.023322 -1.155728 0.0
-0.052569 -1.077538 0.0
-0.086714 -0.993971 0.0
-0.121289 -0.920690 0.0
-0.153584 -0.862902 0.0
-0.182171 -0.821947 0.0
-0.206365 -0.797630 0.0
-0.225986 -0.788771 0.0
-0.241292 -0.793514 0.0
-0.252887 -0.809635 0.0
-0.261514 -0.834876 0.0
-0.267735 -0.867299 0.0
-0.271673 -0.905425 0.0
-0.272956 -0.948072 0.0
-0.270859 -0.993984 0.0
-0.264546 -1.041465 0.0
-0.253294 -1.088168 0.0
-0.236612 -1.131033 0.0
-0.214288 -1.166276 0.0
-0.186377 -1.189288 0.0
-0.153210 -1.194224 0.0
-0.115366 -1.172922 0.0
-0.073345 -1.111894 0.0
-0.025663 -0.981062 0.0
-0.003461 -1.147523 0.0
-0.017064 -1.185262 0.0
-0.041751 -1.128460 0.0
-0.072792 -1.044518 0.0
-0.105863 -0.959774 0.0
-0.137885 -0.888291 0.0
-0.166979 -0.833912 0.0
-0.192198 -0.797131 0.0
-0.213241 -0.777208 0.0
-0.230312 -0.772500 0.0
-0.244025 -0.780767 0.0
-0.255211 -0.799600 0.0
-0.264600 -0.826893 0.0
-0.272500 -0.861161 0.0
-0.278645 -0.901479 0.0
-0.282299 -0.947081 0.0
-0.282502 -0.996870 0.0
-0.278322 -1.049072 0.0
-0.269012 -1.101124 0.0
-0.254054 -1.149716 0.0
-0.233123 -1.190848 0.0
-0.206012 -1.219737 0.0
-0.172565 -1.230389 0.0
-0.132592 -1.214572 0.0
-0.085613 -1.159244 0.0
-0.030140 -1.036866 0.0
-0.007489 -1.136573 0.0
-0.027856 -1.162244 0.0
-0.055809 -1.098837 0.0
-0.086452 -1.012458 0.0
-0.117000 -0.928216 0.0
-0.145618 -0.859210 0.0
-0.171092 -0.808424 0.0
-0.192846 -0.775647 0.0
-0.210904 -0.759592 0.0
-0.225785 -0.758164 0.0
-0.238338 -0.768838 0.0
-0.249448 -0.789233 0.0
-0.259682 -0.817637 0.0
-0.269034 -0.853166 0.0
-0.276923 -0.895439 0.0
-0.282405 -0.943985 0.0
-0.284443 -0.997725 0.0
-0.282116 -1.054724 0.0
-0.274710 -1.112189 0.0
-0.261695 -1.166624 0.0
-0.242637 -1.213930 0.0
-0.217062 -1.249341 0.0
-0.184334 -1.266961 0.0
-0.143565 -1.258743 0.0
-0.093539 -1.212078 0.0
-0.033018 -1.100025 0.0
-0.010837 -1.118246 0.0
-0.035918 -1.135123 0.0
-0.064741 -1.069182 0.0
-0.093230 -0.982981 0.0
-0.120056 -0.900319 0.0
-0.144542 -0.834003 0.0
-0.166052 -0.786648 0.0
-0.184282 -0.757440 0.0
-0.199481 -0.744543 0.0
-0.212355 -0.745456 0.0
-0.223835 -0.757512 0.0
-0.234725 -0.778559 0.0
-0.245367 -0.807435 0.0
-0.255500 -0.843883 0.0
-0.264367 -0.887966 0.0
-0.270968 -0.939375 0.0
-0.274302 -0.996962 0.0
-0.273519 -1.058596 0.0
-0.267962 -1.121280 0.0
-0.257110 -1.181399 0.0
-0.240448 -1.234875 0.0
-0.217274 -1.277145 0.0
-0.186533 -1.302626 0.0
-0.146763 -1.303617 0.0
-0.096217 -1.267776 0.0
-0.034010 -1.167053 0.0
-0.013195 -1.094215 0.0
-0.040908 -1.106359 0.0
-0.068723 -1.041308 0.0
-0.093673 -0.957415 0.0
-0.115718 -0.877013 0.0
-0.135335 -0.813204 0.0
-0.152482 -0.768790 0.0
-0.167036 -0.742512 0.0
-0.179314 -0.731993 0.0
-0.190060 -0.734386 0.0
-0.200148 -0.747013 0.0
-0.210231 -0.768086 0.0
-0.220460 -0.797037 0.0
-0.230439 -0.834169 0.0
-0.239382 -0.879869 0.0
-0.246354 -0.933899 0.0
-0.250456 -0.995002 0.0
-0.250938 -1.060857 0.0
-0.247225 -1.128290 0.0
-0.238831 -1.193635 0.0
-0.225197 -1.252934 0.0
-0.205459 -1.301999 0.0
-0.178232 -1.335740 0.0
-0.141606 -1.346900 0.0
-0.093416 -1.323230 0.0
-0.033079 -1.234143 0.0
-0.014531 -1.066489 0.0
-0.043061 -1.077842 0.0
-0.068533 -1.016540 0.0
-0.088930 -0.936836 0.0
-0.105249 -0.859229 0.0
-0.119169 -0.797451 0.0
-0.131382 -0.755183 0.0
-0.141902 -0.731046 0.0
-0.150938 -0.722145 0.0
-0.159106 -0.725321 0.0
-0.167136 -0.737960 0.0
-0.175519 -0.758672 0.0
-0.184307 -0.787434 0.0
-0.193101 -0.824999 0.0
-0.201214 -0.871983 0.0
-0.207856 -0.928172 0.0
-0.212276 -0.992209 0.0
-0.213845 -1.061598 0.0
-0.212085 -1.133022 0.0
-0.206560 -1.202823 0.0
-0.196708 -1.267232 0.0
-0.181569 -1.322579 0.0
-0.159529 -1.364426 0.0
-0.128332 -1.386036 0.0
-0.085438 -1.375177 0.0
-0.030375 -1.297597 0.0
-0.015000 -1.036957 0.0
-0.042954 -1.050889 0.0
-0.065262 -0.995713 0.0
-0.080510 -0.922018 0.0
-0.090347 -0.847891 0.0
-0.097645 -0.787572 0.0
-0.104113 -0.746381 0.0
-0.109970 -0.723472 0.0
-0.115162 -0.715492 0.0
-0.120037 -0.718932 0.0
-0.125123 -0.731234 0.0
-0.130788 -0.751349 0.0
-0.137072 -0.779686 0.0
-0.143691 -0.817334 0.0
-0.150151 -0.865075 0.0
-0.155871 -0.922718 0.0
-0.160282 -0.988833 0.0
-0.162900 -1.060786 0.0
-0.163342 -1.135152 0.0
-0.161213 -1.208347 0.0
-0.155964 -1.276809 0.0
-0.146603 -1.337502 0.0
-0.131380 -1.386766 0.0
-0.107792 -1.418482 0.0
-0.072929 -1.420488 0.0
-0.026153 -1.354125 0.0
-0.014826 -1.007131 0.0
-0.041259 -1.026328 0.0
-0.060041 -0.979184 0.0
-0.070029 -0.913312 0.0
-0.073004 -0.843785 0.0
-0.072804 -0.784580 0.0
-0.072487 -0.743221 0.0
-0.072751 -0.720511 0.0
-0.073226 -0.712786 0.0
-0.073912 -0.716076 0.0
-0.075109 -0.727806 0.0
-0.077081 -0.747140 0.0
-0.079918 -0.774775 0.0
-0.083520 -0.812024 0.0
-0.087651 -0.859794 0.0
-0.091998 -0.917933 0.0
-0.096215 -0.984990 0.0
-0.099977 -1.058249 0.0
-0.102983 -1.134240 0.0
-0.104838 -1.209532 0.0
-0.104983 -1.280729 0.0
-0.102435 -1.345492 0.0
-0.095408 -1.401024 0.0
-0.081259 -1.441960 0.0
-0.056732 -1.456400 0.0
-0.020721 -1.400999 0.0
-0.014216 -0.978089 0.0
-0.038553 -1.004600 0.0
-0.053798 -0.966884 0.0
-0.058904 -0.910517 0.0
-0.055248 -0.847260 0.0
-0.047072 -0.789481 0.0
-0.038901 -0.746807 0.0
-0.032362 -0.723200 0.0
-0.026979 -0.715005 0.0
-0.022463 -0.717688 0.0
-0.018886 -0.728574 0.0
-0.016387 -0.746899 0.0
-0.015087 -0.773478 0.0
-0.015081 -0.809724 0.0
-0.016424 -0.856619 0.0
-0.019114 -0.914071 0.0
-0.023077 -0.980673 0.0
-0.028160 -1.053722 0.0
-0.034107 -1.129813 0.0
-0.040476 -1.205734 0.0
-0.046647 -1.278210 0.0
-0.051638 -1.345569 0.0
-0.053736 -1.405876 0.0
-0.050299 -1.454695 0.0
-0.037807 -1.480684 0.0
-0.014406 -1.436126 0.0
-0.013319 -0.950554 0.0
-0.035212 -0.985905 0.0
-0.047084 -0.958463 0.0
-0.048034 -0.912884 0.0
-0.038699 -0.857884 0.0
-0.022939 -0.802793 0.0
-0.006270 -0.758335 0.0
0.008412 -0.732893 0.0
0.021036 -0.723319 0.0
0.031831 -0.724686 0.0
0.040921 -0.734242 0.0
0.048372 -0.751180 0.0
0.054121 -0.776244 0.0
0.057946 -0.810790 0.0
0.059530 -0.855794 0.0
0.058551 -0.911227 0.0
0.054793 -0.975796 0.0
0.048241 -1.046963 0.0
0.039144 -1.121528 0.0
0.027988 -1.196496 0.0
0.015510 -1.268800 0.0
0.002719 -1.337197 0.0
-0.008837 -1.400594 0.0
-0.016660 -1.455591 0.0
-0.017170 -1.491770 0.0
-0.007540 -1.458072 0.0
-0.012201 -0.925035 0.0
-0.031372 -0.970360 0.0
-0.040008 -0.953500 0.0
-0.037581 -0.919324 0.0
-0.024037 -0.874323 0.0
-0.002181 -0.823970 0.0
0.022711 -0.778720 0.0
0.046527 -0.751006 0.0
0.067618 -0.738920 0.0
0.085649 -0.737911 0.0
0.100851 -0.745310 0.0
0.113495 -0.760207 0.0
0.123637 -0.783108 0.0
0.131032 -0.815147 0.0
0.135211 -0.857198 0.0
0.135632 -0.909265 0.0
0.131865 -0.970234 0.0
0.123769 -1.037877 0.0
0.111579 -1.109327 0.0
0.095823 -1.181784 0.0
0.077349 -1.252560 0.0
0.057192 -1.320488 0.0
0.036636 -1.385191 0.0
0.017832 -1.444367 0.0
0.004177 -1.488829 0.0
-0.000427 -1.466039 0.0
-0.010857 -0.901977 0.0
-0.026964 -0.958139 0.0
-0.032319 -0.951730 0.0
-0.027049 -0.928790 0.0
-0.010823 -0.894628 0.0
0.014957 -0.851301 0.0
0.046539 -0.807864 0.0
0.079056 -0.778194 0.0
0.108894 -0.762662 0.0
0.134765 -0.758071 0.0
0.156584 -0.762171 0.0
0.174608 -0.774015 0.0
0.188984 -0.793818 0.0
0.199535 -0.822384 0.0
0.205788 -0.860393 0.0
0.207144 -0.907846 0.0
0.203088 -0.963830 0.0
0.193399 -1.026496 0.0
0.178274 -1.093393 0.0
0.158287 -1.161974 0.0
0.134339 -1.229947 0.0
0.107532 -1.296136 0.0
0.079108 -1.360564 0.0
0.050787 -1.421868 0.0
0.025179 -1.472065 0.0
0.006723 -1.459743 0.0
-0.009223 -0.881897 0.0
-0.021789 -0.949546 0.0
-0.023589 -0.953168 0.0
-0.015603 -0.940608 0.0
0.002271 -0.916911 0.0
0.029926 -0.882452 0.0
0.065507 -0.843875 0.0
0.104377 -0.813568 0.0
0.141753 -0.794502 0.0
0.175108 -0.785457 0.0
0.203560 -0.785056 0.0
0.226992 -0.792586 0.0
0.245457 -0.808087 0.0
0.258837 -0.832046 0.0
0.266760 -0.864907 0.0
0.268708 -0.906636 0.0
0.264212 -0.956488 0.0
0.253050 -1.012987 0.0
0.235384 -1.074112 0.0
0.211780 -1.137665 0.0
0.183154 -1.201681 0.0
0.150656 -1.265097 0.0
0.115569 -1.328093 0.0
0.079393 -1.389841 0.0
0.044077 -1.443169 0.0
0.013457 -1.439564 0.0
-0.007189 -0.865486 0.0
-0.015580 -0.944999 0.0
-0.013390 -0.958104 0.0
-0.002431 -0.954618 0.0
0.016914 -0.940119 0.0
0.045109 -0.915094 0.0
0.081762 -0.883468 0.0
0.123474 -0.854558 0.0
0.165498 -0.832913 0.0
0.204419 -0.819321 0.0
0.238405 -0.813630 0.0
0.266657 -0.815696 0.0
0.288864 -0.825650 0.0
0.304817 -0.843816 0.0
0.314215 -0.870457 0.0
0.316670 -0.905489 0.0
0.311829 -0.948299 0.0
0.299531 -0.997715 0.0
0.279934 -1.052120 0.0
0.253576 -1.109696 0.0
0.221354 -1.168802 0.0
0.184451 -1.228574 0.0
0.144212 -1.289291 0.0
0.102040 -1.350294 0.0
0.059408 -1.404767 0.0
0.019085 -1.407022 0.0
-0.004610 -0.853687 0.0
-0.008058 -0.944958 0.0
-0.001424 -0.966969 0.0
0.012968 -0.971105 0.0
0.034173 -0.964182 0.0
0.062547 -0.947600 0.0
0.098323 -0.923391 0.0
0.139549 -0.897572 0.0
0.182479 -0.874853 0.0
0.223636 -0.857458 0.0
0.260607 -0.846451 0.0
0.291943 -0.842463 0.0
0.316831 -0.845979 0.0
0.334785 -0.857394 0.0
0.345432 -0.876924 0.0
0.348434 -0.904479 0.0
0.343526 -0.939560 0.0
0.330612 -0.981242 0.0
0.309866 -1.028251 0.0
0.281801 -1.079143 0.0
0.247293 -1.132626 0.0
0.207549 -1.188104 0.0
0.163981 -1.245954 0.0
0.117923 -1.305400 0.0
0.070444 -1.359551 0.0
0.023233 -1.364704 0.0
-0.001332 -0.847745 0.0
0.001021 -0.949805 0.0
0.012353 -0.980088 0.0
0.030493 -0.990518 0.0
0.054090 -0.989570 0.0
0.083021 -0.979517 0.0
0.117361 -0.961590 0.0
0.156073 -0.939310 0.0
0.196691 -0.916663 0.0
0.236407 -0.896521 0.0
0.272885 -0.880837 0.0
0.304433 -0.870960 0.0
0.329898 -0.867837 0.0
0.348502 -0.872095 0.0
0.359685 -0.884052 0.0
0.363026 -0.903694 0.0
0.358242 -0.930653 0.0
0.345234 -0.964226 0.0
0.324158 -1.003445 0.0
0.295502 -1.047227 0.0
0.260131 -1.094661 0.0
0.219289 -1.145483 0.0
0.174434 -1.200152 0.0
0.126795 -1.257505 0.0
0.077016 -1.310190 0.0
0.025817 -1.315655 0.0
0.002715 -0.849127 0.0
0.011614 -0.959675 0.0
0.027575 -0.997511 0.0
0.049553 -1.013213 0.0
0.075908 -1.016826 0.0
0.105926 -1.011210 0.0
0.139149 -0.997460 0.0
0.174763 -0.977766 0.0
0.211240 -0.955301 0.0
0.246702 -0.933061 0.0
0.279404 -0.913478 0.0
0.307928 -0.898390 0.0
0.331172 -0.889116 0.0
0.348276 -0.886523 0.0
0.358551 -0.891081 0.0
0.361446 -0.902902 0.0
0.356564 -0.921779 0.0
0.343704 -0.947232 0.0
0.322942 -0.978601 0.0
0.294712 -1.015185 0.0
0.259881 -1.056501 0.0
0.219740 -1.102660 0.0
0.175743 -1.154123 0.0
0.128893 -1.209044 0.0
0.079335 -1.259314 0.0
0.026921 -1.262917 0.0
0.007114 -0.858957 0.0
0.023033 -0.974664 0.0
0.043677 -1.019128 0.0
0.069364 -1.039262 0.0
0.098450 -1.046219 0.0
0.129776 -1.043161 0.0
0.162291 -1.031248 0.0
0.194971 -1.012272 0.0
0.226722 -0.989023 0.0
0.256440 -0.964519 0.0
0.283144 -0.941427 0.0
0.306021 -0.921843 0.0
0.324385 -0.907272 0.0
0.337609 -0.898694 0.0
0.345079 -0.896655 0.0
0.346211 -0.901355 0.0
0.340494 -0.912727 0.0
0.327587 -0.930518 0.0
0.307438 -0.954405 0.0
0.280417 -0.984131 0.0
0.247402 -1.019709 0.0
0.209715 -1.061623 0.0
0.168692 -1.110141 0.0
0.124909 -1.162393 0.0
0.077891 -1.209388 0.0
0.026729 -1.209267 0.0
0.011350 -0.877421 0.0
0.034366 -0.995133 0.0
0.059825 -1.044760 0.0
0.088932 -1.068424 0.0
0.120425 -1.077637 0.0
0.152855 -1.075498 0.0
0.184666 -1.063237 0.0
0.214516 -1.042813 0.0
0.241447 -1.017166 0.0
0.264871 -0.989518 0.0
0.284487 -0.962747 0.0
0.300168 -0.939080 0.0
0.311819 -0.920051 0.0
0.319269 -0.906587 0.0
0.322197 -0.899161 0.0
0.320148 -0.897932 0.0
0.312605 -0.902890 0.0
0.299135 -0.913977 0.0
0.279593 -0.931253 0.0
0.254331 -0.954999 0.0
0.224277 -0.985772 0.0
0.190720 -1.024316 0.0
0.154649 -1.070355 0.0
0.115935 -1.119682 0.0
0.073394 -1.162541 0.0
0.025490 -1.157047 0.0
0.015115 -0.903886 0.0
0.044774 -1.021343 0.0
0.074944 -1.074180 0.0
0.107136 -1.100303 0.0
0.140555 -1.110669 0.0
0.173547 -1.107888 0.0
0.204156 -1.093267 0.0
0.230814 -1.069291 0.0
0.252666 -1.039471 0.0
0.269515 -1.007485 0.0
0.281616 -0.976498 0.0
0.289454 -0.948847 0.0
0.293525 -0.926006 0.0
0.294169 -0.908726 0.0
0.291470 -0.897252 0.0
0.285230 -0.891552 0.0
0.275054 -0.891551 0.0
0.260532 -0.897326 0.0
0.241552 -0.909383 0.0
0.218583 -0.928639 0.0
0.192650 -0.956144 0.0
0.164842 -0.992579 0.0
0.135444 -1.036625 0.0
0.103344 -1.082598 0.0
0.066680 -1.120420 0.0
0.023486 -1.108071 0.0
0.018218 -0.937219 0.0
0.053578 -1.053031 0.0
0.087986 -1.107071 0.0
0.122820 -1.134437 0.0
0.157571 -1.144705 0.0
0.190336 -1.139609 0.0
0.218841 -1.120659 0.0
0.241462 -1.091178 0.0
0.257575 -1.055549 0.0
0.267409 -1.018089 0.0
0.271735 -0.982322 0.0
0.271564 -0.950689 0.0
0.267891 -0.924562 0.0
0.261514 -0.904437 0.0
0.252900 -0.890227 0.0
0.242150 -0.881586 0.0
0.229077 -0.878267 0.0
0.213428 -0.880440 0.0
0.195313 -0.889174 0.0
0.175500 -0.906066 0.0
0.155080 -0.932364 0.0
0.134591 -0.968063 0.0
0.113168 -1.010320 0.0
0.088602 -1.052236 0.0
0.058594 -1.084110 0.0
0.020996 -1.063589 0.0
0.020554 -0.975991 0.0
0.060315 -1.089380 0.0
0.098089 -1.142904 0.0
0.134895 -1.170244 0.0
0.170188 -1.178942 0.0
0.201687 -1.169636 0.0
0.226874 -1.144325 0.0
0.244261 -1.107521 0.0
0.253647 -1.064705 0.0
0.255805 -1.020924 0.0
0.252051 -0.980059 0.0
0.243881 -0.944611 0.0
0.232705 -0.915793 0.0
0.219670 -0.893793 0.0
0.205542 -0.878129 0.0
0.190689 -0.868081 0.0
0.175178 -0.863187 0.0
0.159043 -0.863736 0.0
0.142824 -0.871543 0.0
0.127686 -0.888745 0.0
0.114498 -0.916077 0.0
0.102667 -0.952030 0.0
0.089856 -0.992118 0.0
0.073012 -1.029027 0.0
0.049852 -1.054152 0.0
0.018248 -1.024345 0.0
0.022066 -1.018611 0.0
0.064688 -1.129143 0.0
0.104604 -1.180832 0.0
0.142382 -1.206900 0.0
0.177114 -1.212310 0.0
0.205991 -1.196644 0.0
0.226360 -1.162873 0.0
0.237091 -1.117090 0.0
0.238602 -1.066034 0.0
0.232336 -1.015487 0.0
0.220201 -0.969608 0.0
0.204166 -0.930857 0.0
0.185989 -0.900194 0.0
0.167065 -0.877433 0.0
0.148372 -0.861669 0.0
0.130498 -0.851815 0.0
0.113812 -0.847255 0.0
0.098783 -0.848504 0.0
0.086502 -0.858276 0.0
0.078287 -0.878659 0.0
0.074069 -0.908758 0.0
0.071547 -0.944996 0.0
0.067084 -0.981879 0.0
0.057476 -1.012815 0.0
0.040928 -1.030656 0.0
0.015394 -0.990703 0.0
0.022704 -1.063381 0.0
0.066481 -1.170771 0.0
0.107019 -1.219658 0.0
0.144394 -1.243226 0.0
0.177053 -1.243374 0.0
0.201581 -1.218987 0.0
0.215368 -1.174686 0.0
0.217891 -1.118531 0.0
0.210382 -1.058596 0.0
0.195043 -1.001320 0.0
0.174403 -0.951001 0.0
0.150875 -0.909901 0.0
0.126504 -0.878602 0.0
0.102867 -0.856464 0.0
0.081087 -0.842164 0.0
0.061983 -0.834343 0.0
0.046325 -0.832383 0.0
0.035130 -0.837152 0.0
0.029822 -0.852039 0.0
0.030977 -0.877834 0.0
0.036658 -0.911047 0.0
0.042882 -0.946407 0.0
0.045623 -0.978745 0.0
0.042368 -1.003086 0.0
0.032008 -1.013477 0.0
0.012485 -0.962824 0.0
0.022418 -1.108504 0.0
0.065495 -1.212502 0.0
0.104878 -1.257849 0.0
0.140091 -1.277623 0.0
0.168726 -1.270271 0.0
0.186804 -1.234697 0.0
0.192034 -1.177992 0.0
0.184786 -1.110500 0.0
0.167268 -1.041598 0.0
0.142499 -0.978209 0.0
0.113610 -0.924583 0.0
0.083397 -0.882578 0.0
0.054141 -0.852298 0.0
0.027555 -0.832545 0.0
0.004899 -0.821646 0.0
-0.012705 -0.818154 0.0
-0.024023 -0.821597 0.0
-0.027671 -0.833096 0.0
-0.022826 -0.855632 0.0
-0.010978 -0.887244 0.0
0.003806 -0.922103 0.0
0.016978 -0.954747 0.0
0.025371 -0.981540 0.0
0.027595 -0.999261 0.0
0.023031 -1.002380 0.0
0.009486 -0.940853 0.0
0.021149 -1.152071 0.0
0.061535 -1.252397 0.0
0.097754 -1.293556 0.0
0.128680 -1.308055 0.0
0.150929 -1.290722 0.0
0.160152 -1.241547 0.0
0.154761 -1.170981 0.0
0.136319 -1.091821 0.0
0.108151 -1.014591 0.0
0.074097 -0.946394 0.0
0.037845 -0.891257 0.0
0.002495 -0.850342 0.0
-0.029510 -0.823273 0.0
-0.056265 -0.808230 0.0
-0.076359 -0.803210 0.0
-0.088519 -0.806826 0.0
-0.091426 -0.818700 0.0
-0.084224 -0.839546 0.0
-0.067964 -0.870287 0.0
-0.046552 -0.905848 0.0
-0.025044 -0.939789 0.0
-0.007078 -0.968198 0.0
0.005701 -0.989261 0.0
0.012840 -1.000904 0.0
0.013787 -0.997120 0.0
0.006293 -0.925074 0.0
0.018854 -1.192074 0.0
0.054444 -1.288370 0.0
0.085288 -1.324645 0.0
0.109484 -1.332089 0.0
0.122659 -1.302111 0.0
0.120459 -1.237181 0.0
0.102487 -1.151985 0.0
0.071794 -1.061683 0.0
0.032939 -0.977706 0.0
-0.009459 -0.906826 0.0
-0.051114 -0.852917 0.0
-0.088405 -0.816042 0.0
-0.119124 -0.794849 0.0
-0.141929 -0.787094 0.0
-0.155491 -0.790689 0.0
-0.158479 -0.804199 0.0
-0.150142 -0.826756 0.0
-0.131282 -0.857552 0.0
-0.105298 -0.894525 0.0
-0.077380 -0.930939 0.0
-0.051787 -0.961800 0.0
-0.030505 -0.985436 0.0
-0.013968 -1.001339 0.0
-0.002188 -1.007745 0.0
0.004031 -0.997444 0.0
0.002778 -0.916003 0.0
0.015524 -1.226453 0.0
0.044166 -1.318225 0.0
0.067281 -1.348749 0.0
0.082081 -1.346981 0.0
0.083329 -1.301642 0.0
0.067199 -1.219320 0.0
0.035080 -1.119755 0.0
-0.008225 -1.019915 0.0
-0.056525 -0.932318 0.0
-0.103633 -0.862709 0.0
-0.145568 -0.813445 0.0
-0.180249 -0.783542 0.0
-0.206108 -0.770771 0.0
-0.221670 -0.772803 0.0
-0.225609 -0.787479 0.0
-0.217300 -0.812730 0.0
-0.197595 -0.846267 0.0
-0.169377 -0.885120 0.0
-0.137355 -0.924963 0.0
-0.106115 -0.959659 0.0
-0.078148 -0.986641 0.0
-0.054088 -1.005937 0.0
-0.033870 -1.017592 0.0
-0.017589 -1.019552 0.0
-0.006378 -1.003067 0.0
-0.001140 -0.914365 0.0
0.011208 -1.253185 0.0
0.030805 -1.339730 0.0
0.043810 -1.363364 0.0
0.046482 -1.349839 0.0
0.033050 -1.286600 0.0
0.000927 -1.186109 0.0
-0.045803 -1.074117 0.0
-0.098641 -0.969410 0.0
-0.150233 -0.882931 0.0
-0.196578 -0.818644 0.0
-0.235262 -0.776891 0.0
-0.264532 -0.756144 0.0
-0.282809 -0.754033 0.0
-0.288778 -0.768010 0.0
-0.281944 -0.795169 0.0
-0.263236 -0.832056 0.0
-0.235265 -0.874617 0.0
-0.201960 -0.918294 0.0
-0.167524 -0.958248 0.0
-0.134830 -0.990307 0.0
-0.104918 -1.013870 0.0
-0.077945 -1.029742 0.0
-0.053940 -1.038010 0.0
-0.033260 -1.036095 0.0
-0.017201 -1.013794 0.0
-0.005286 -0.920790 0.0
0.006025 -1.270418 0.0
0.014677 -1.350746 0.0
0.015337 -1.366014 0.0
0.003328 -1.337852 0.0
-0.026955 -1.254872 0.0
-0.074218 -1.138450 0.0
-0.129851 -1.019412 0.0
-0.185422 -0.915707 0.0
-0.236011 -0.834452 0.0
-0.278857 -0.777931 0.0
-0.312008 -0.745769 0.0
-0.333836 -0.736168 0.0
-0.343101 -0.746466 0.0
-0.339435 -0.773274 0.0
-0.323837 -0.812338 0.0
-0.298687 -0.858745 0.0
-0.267227 -0.907360 0.0
-0.232773 -0.953310 0.0
-0.197935 -0.992506 0.0
-0.164122 -1.022557 0.0
-0.131917 -1.043736 0.0
-0.101716 -1.057050 0.0
-0.073884 -1.062539 0.0
-0.048945 -1.057185 0.0
-0.027890 -1.029818 0.0
-0.009248 -0.935324 0.0
0.000160 -1.276603 0.0
-0.003674 -1.349378 0.0
-0.017234 -1.354482 0.0
-0.045170 -1.309439 0.0
-0.089755 -1.208417 0.0
-0.145499 -1.081898 0.0
-0.203822 -0.962009 0.0
-0.258360 -0.863001 0.0
-0.305514 -0.789415 0.0
-0.343070 -0.742566 0.0
-0.369362 -0.721691 0.0
-0.383239 -0.724541 0.0
-0.384474 -0.747593 0.0
-0.374124 -0.786163 0.0
-0.354375 -0.834796 0.0
-0.327871 -0.887941 0.0
-0.297001 -0.940492 0.0
-0.263551 -0.988082 0.0
-0.228717 -1.027406 0.0
-0.193373 -1.056814 0.0
-0.158425 -1.076632 0.0
-0.124804 -1.087975 0.0
-0.093207 -1.091044 0.0
-0.064130 -1.082696 0.0
-0.037978 -1.051515 0.0
-0.012838 -0.957409 0.0
-0.006172 -1.270592 0.0
-0.023352 -1.334375 0.0
-0.051156 -1.328121 0.0
-0.091971 -1.267049 0.0
-0.144664 -1.153528 0.0
-0.202849 -1.022858 0.0
-0.259803 -0.905774 0.0
-0.310827 -0.813674 0.0
-0.353015 -0.749401 0.0
-0.384487 -0.713551 0.0
-0.404107 -0.704793 0.0
-0.411722 -0.719946 0.0
-0.408419 -0.754255 0.0
-0.396246 -0.802023 0.0
-0.377416 -0.857515 0.0
-0.353554 -0.915589 0.0
-0.325507 -0.971760 0.0
-0.293702 -1.022070 0.0
-0.258677 -1.063276 0.0
-0.221464 -1.093501 0.0
-0.183578 -1.112780 0.0
-0.146529 -1.122496 0.0
-0.111290 -1.123361 0.0
-0.078213 -1.112534 0.0