# vtk DataFile Version 3.0
Scalar Field
ASCII
DATASET RECTILINEAR_GRID
DIMENSIONS 26 100 1
X_COORDINATES 26 double
0.050000 0.150000 0.250000 0.350000 0.450000 0.550000 0.650000 0.750000 0.850000 0.950000 1.050000 1.150000 1.250000 1.350000 1.450000 1.550000 1.650000 1.750000 1.850000 1.950000 2.050000 2.150000 2.250000 2.350000 2.450000 2.550000 
Y_COORDINATES 100 double
0.050000 0.150000 0.250000 0.350000 0.450000 0.550000 0.650000 0.750000 0.850000 0.950000 1.050000 1.150000 1.250000 1.350000 1.450000 1.550000 1.650000 1.750000 1.850000 1.950000 2.050000 2.150000 2.250000 2.350000 2.450000 2.550000 2.650000 2.750000 2.850000 2.950000 3.050000 3.150000 3.250000 3.350000 3.450000 3.550000 3.650000 3.750000 3.850000 3.950000 4.050000 4.150000 4.250000 4.350000 4.450000 4.550000 4.650000 4.750000 4.850000 4.950000 5.050000 5.150000 5.250000 5.350000 5.450000 5.550000 5.650000 5.750000 5.850000 5.950000 6.050000 6.150000 6.250000 6.350000 6.450000 6.550000 6.650000 6.750000 6.850000 6.950000 7.050000 7.150000 7.250000 7.350000 7.450000 7.550000 7.650000 7.750000 7.850000 7.950000 8.050000 8.150000 8.250000 8.350000 8.450000 8.550000 8.650000 8.750000 8.850000 8.950000 9.050000 9.150000 9.250000 9.350000 9.450000 9.550000 9.650000 9.750000 9.850000 9.950000 
Z_COORDINATES 1 double
0.0
POINT_DATA 2600
SCALARS Skalarfeld double 1
LOOKUP_TABLE default
0.050385
0.050685
0.050653
0.050325
0.049748
0.048951
0.047949
0.046760
0.045397
0.043879
0.042226
0.040461
0.038615
0.036720
0.034816
0.032944
0.031146
0.029461
0.027921
0.026558
0.025398
0.024466
0.023788
0.023396
0.023294
0.023198
0.048970
0.049022
0.048907
0.048593
0.048084
0.047392
0.046529
0.045507
0.044340
0.043043
0.041635
0.040137
0.038573
0.036970
0.035359
0.033773
0.032243
0.030801
0.029475
0.028291
0.027269
0.026429
0.025779
0.025314
0.024991
0.024764
0.047987
0.047933
0.047760
0.047442
0.046970
0.046345
0.045575
0.044669
0.043638
0.042495
0.041256
0.039939
0.038564
0.037156
0.035739
0.034340
0.032986
0.031704
0.030518
0.029450
0.028518
0.027735
0.027109
0.026636
0.026304
0.026130
0.047041
0.046950
0.046752
0.046438
0.046000
0.045435
0.044748
0.043945
0.043034
0.042027
0.040937
0.039779
0.038571
0.037331
0.036081
0.034843
0.033641
0.032496
0.031430
0.030462
0.029607
0.028878
0.028281
0.027818
0.027494
0.027336
0.046156
0.046053
0.045851
0.045550
0.045146
0.044637
0.044024
0.043313
0.042510
0.041624
0.040666
0.039648
0.038585
0.037492
0.036387
0.035289
0.034217
0.033190
0.032228
0.031345
0.030558
0.029876
0.029309
0.028863
0.028547
0.028398
0.045336
0.045232
0.045035
0.044754
0.044385
0.043928
0.043383
0.042755
0.042049
0.041271
0.040430
0.039537
0.038601
0.037637
0.036659
0.035681
0.034722
0.033797
0.032923
0.032114
0.031385
0.030745
0.030205
0.029774
0.029467
0.029321
0.044575
0.044474
0.044288
0.044029
0.043695
0.043287
0.042806
0.042253
0.041634
0.040953
0.040217
0.039434
0.038612
0.037761
0.036894
0.036022
0.035160
0.034323
0.033525
0.032779
0.032099
0.031494
0.030976
0.030557
0.030254
0.030111
0.043862
0.043767
0.043594
0.043358
0.043059
0.042698
0.042274
0.041790
0.041250
0.040656
0.040015
0.039330
0.038609
0.037859
0.037089
0.036309
0.035532
0.034771
0.034038
0.033346
0.032706
0.032130
0.031628
0.031215
0.030914
0.030771
0.043186
0.043097
0.042938
0.042726
0.042460
0.042141
0.041770
0.041349
0.040880
0.040366
0.039809
0.039213
0.038582
0.037921
0.037237
0.036539
0.035837
0.035142
0.034465
0.033818
0.033211
0.032655
0.032162
0.031750
0.031446
0.031302
0.042533
0.042451
0.042306
0.042115
0.041880
0.041601
0.041278
0.040914
0.040509
0.040065
0.039584
0.039067
0.038516
0.037935
0.037329
0.036703
0.036068
0.035431
0.034802
0.034193
0.033612
0.033070
0.032581
0.032163
0.031851
0.031704
0.041890
0.041814
0.041682
0.041511
0.041304
0.041060
0.040781
0.040467
0.040118
0.039737
0.039322
0.038875
0.038396
0.037887
0.037349
0.036790
0.036214
0.035629
0.035044
0.034467
0.033906
0.033373
0.032880
0.032451
0.032126
0.031975
0.041243
0.041173
0.041052
0.040899
0.040716
0.040503
0.040261
0.039989
0.039689
0.039361
0.039003
0.038616
0.038200
0.037753
0.037279
0.036780
0.036260
0.035725
0.035180
0.034632
0.034088
0.033558
0.033057
0.032611
0.032269
0.032112
0.040580
0.040514
0.040403
0.040265
0.040102
0.039913
0.039700
0.039462
0.039201
0.038914
0.038602
0.038264
0.037900
0.037509
0.037092
0.036650
0.036184
0.035698
0.035193
0.034674
0.034146
0.033618
0.033105
0.032639
0.032275
0.032112
0.039887
0.039825
0.039722
0.039595
0.039446
0.039274
0.039081
0.038867
0.038631
0.038372
0.038091
0.037788
0.037464
0.037119
0.036754
0.036367
0.035957
0.035523
0.035062
0.034575
0.034066
0.033541
0.033017
0.032527
0.032141
0.031973
0.039157
0.039096
0.038998
0.038878
0.038736
0.038573
0.038389
0.038183
0.037956
0.037708
0.037439
0.037153
0.036854
0.036544
0.036225
0.035893
0.035543
0.035167
0.034759
0.034313
0.033830
0.033314
0.032782
0.032272
0.031864
0.031695
0.038381
0.038321
0.038224
0.038104
0.037962
0.037796
0.037608
0.037394
0.037156
0.036893
0.036611
0.036318
0.036024
0.035736
0.035455
0.035179
0.034895
0.034591
0.034249
0.033859
0.033416
0.032921
0.032391
0.031868
0.031444
0.031277
0.037556
0.037495
0.037396
0.037270
0.037118
0.036937
0.036727
0.036484
0.036208
0.035902
0.035575
0.035244
0.034927
0.034641
0.034390
0.034170
0.033962
0.033745
0.033491
0.033179
0.032798
0.032344
0.031834
0.031312
0.030883
0.030727
0.036684
0.036619
0.036514
0.036375
0.036202
0.035992
0.035741
0.035444
0.035100
0.034713
0.034299
0.033889
0.033516
0.033204
0.032969
0.032802
0.032682
0.032573
0.032435
0.032234
0.031946
0.031564
0.031101
0.030604
0.030188
0.030053
0.035769
0.035699
0.035583
0.035424
0.035220
0.034966
0.034653
0.034274
0.033825
0.033311
0.032762
0.032222
0.031745
0.031373
0.031129
0.031010
0.030988
0.031013
0.031027
0.030977
0.030826
0.030559
0.030182
0.029744
0.029368
0.029266
0.034824
0.034747
0.034616
0.034431
0.034185
0.033871
0.033476
0.032985
0.032390
0.031701
0.030956
0.030224
0.029583
0.029100
0.028814
0.028729
0.028811
0.028997
0.029205
0.029361
0.029404
0.029306
0.029068
0.028736
0.028434
0.028382
0.033865
0.033780
0.033631
0.033413
0.033118
0.032731
0.032234
0.031604
0.030823
0.029902
0.028895
0.027897
0.027020
0.026360
0.025981
0.025900
0.026085
0.026457
0.026909
0.027333
0.027642
0.027784
0.027752
0.027583
0.027399
0.027415
0.032912
0.032818
0.032650
0.032397
0.032047
0.031580
0.030967
0.030174
0.029171
0.027965
0.026626
0.025279
0.024076
0.023155
0.022612
0.022488
0.022758
0.023332
0.024077
0.024843
0.025502
0.025971
0.026223
0.026288
0.026275
0.026377
0.031989
0.031887
0.031701
0.031414
0.031010
0.030460
0.029726
0.028757
0.027506
0.025971
0.024232
0.022449
0.020820
0.019534
0.018732
0.018491
0.018804
0.019583
0.020664
0.021848
0.022952
0.023846
0.024477
0.024855
0.025069
0.025279
0.031121
0.031014
0.030813
0.030498
0.030045
0.029420
0.028571
0.027429
0.025923
0.024032
0.021839
0.019537
0.017378
0.015608
0.014427
0.013962
0.014247
0.015202
0.016645
0.018322
0.019973
0.021402
0.022511
0.023288
0.023789
0.024126
0.030330
0.030221
0.030014
0.029681
0.029194
0.028510
0.027567
0.026274
0.024533
0.022290
0.019618
0.016734
0.013944
0.011563
0.009861
0.009036
0.009179
0.010247
0.012047
0.014272
0.016570
0.018646
0.020338
0.021598
0.022445
0.022927
0.029634
0.029529
0.029325
0.028990
0.028490
0.027775
0.026772
0.025373
0.023449
0.020903
0.017770
0.014279
0.010783
0.007671
0.005299
0.003948
0.003797
0.004861
0.006968
0.009763
0.012787
0.015617
0.017990
0.019811
0.021056
0.021700
0.029042
0.028948
0.028763
0.028447
0.027960
0.027248
0.026230
0.024785
0.022766
0.020019
0.016511
0.012449
0.008217
0.004286
0.001105
-0.000948
-0.001582
-0.000688
0.001613
0.004943
0.008735
0.012403
0.015541
0.017985
0.019666
0.020483
0.028556
0.028483
0.028332
0.028058
0.027614
0.026943
0.025962
0.024551
0.022536
0.019732
0.016027
0.011520
0.006586
0.001808
-0.002270
-0.005188
-0.006505
-0.005995
-0.003682
0.000075
0.004613
0.009157
0.013113
0.016216
0.018355
0.019351
0.028167
0.028124
0.028027
0.027819
0.027458
0.026877
0.025992
0.024677
0.022757
0.020016
0.016293
0.011615
0.006274
0.000723
-0.004333
-0.008246
-0.010402
-0.010512
-0.008435
-0.004448
0.000725
0.006116
0.010896
0.014660
0.017252
0.018422
0.027856
0.027854
0.027830
0.027720
0.027473
0.027021
0.026278
0.025121
0.023374
0.020813
0.017234
0.012600
0.007131
0.001273
-0.004387
-0.009311
-0.012644
-0.013601
-0.012042
-0.008102
-0.002512
0.003604
0.009148
0.013527
0.016536
0.017864
0.027600
0.027647
0.027715
0.027726
0.027621
0.027328
0.026761
0.025806
0.024292
0.022000
0.018710
0.014331
0.009011
0.003142
-0.002734
-0.008024
-0.012071
-0.014351
-0.013870
-0.010271
-0.004600
0.002015
0.008182
0.013077
0.016433
0.017890
0.027377
0.027479
0.027647
0.027799
0.027854
0.027737
0.027367
0.026634
0.025384
0.023415
0.020511
0.016554
0.011633
0.006073
0.000364
-0.004930
-0.009218
-0.011930
-0.012476
-0.010303
-0.005038
0.001766
0.008336
0.013592
0.017188
0.018727
0.027177
0.027309
0.027592
0.027895
0.028117
0.028181
0.028006
0.027494
0.026509
0.024873
0.022396
0.018962
0.014624
0.009649
0.004464
-0.000423
-0.004491
-0.007241
-0.008189
-0.006875
-0.003042
0.003228
0.009915
0.015323
0.019024
0.020587
0.026995
0.027118
0.027519
0.027969
0.028354
0.028586
0.028589
0.028275
0.027527
0.026200
0.024141
0.021260
0.017603
0.013399
0.009019
0.004903
0.001484
-0.000857
-0.001783
-0.000958
0.001974
0.007052
0.013124
0.018436
0.022084
0.023617
0.026787
0.026916
0.027404
0.027983
0.028506
0.028878
0.029025
0.028868
0.028311
0.027243
0.025557
0.023204
0.020250
0.016908
0.013508
0.010423
0.007991
0.006461
0.005993
0.006748
0.009020
0.013034
0.018167
0.022947
0.026352
0.027866
0.026560
0.026684
0.027226
0.027896
0.028518
0.028987
0.029228
0.029173
0.028747
0.027875
0.026500
0.024623
0.022345
0.019881
0.017533
0.015621
0.014393
0.013962
0.014306
0.015376
0.017325
0.020470
0.024603
0.028645
0.031604
0.033048
0.026314
0.026415
0.026965
0.027673
0.028336
0.028839
0.029110
0.029091
0.028730
0.027988
0.026861
0.025406
0.023761
0.022151
0.020863
0.020167
0.020236
0.021058
0.022434
0.024097
0.026020
0.028539
0.031759
0.035010
0.037471
0.038721
0.026043
0.026098
0.026602
0.027275
0.027900
0.028360
0.028583
0.028524
0.028155
0.027482
0.026555
0.025483
0.024439
0.023660
0.023409
0.023917
0.025286
0.027399
0.029887
0.032275
0.034357
0.036456
0.038913
0.041420
0.043380
0.044428
0.025725
0.025714
0.026104
0.026652
0.027146
0.027466
0.027549
0.027364
0.026917
0.026260
0.025502
0.024802
0.024361
0.024412
0.025189
0.026871
0.029497
0.032854
0.036421
0.039526
0.041813
0.043607
0.045439
0.047290
0.048787
0.049658
0.025306
0.025210
0.025417
0.025743
0.025995
0.026066
0.025904
0.025500
0.024902
0.024222
0.023629
0.023327
0.023531
0.024452
0.026274
0.029117
0.032948
0.037464
0.041997
0.045693
0.048099
0.049602
0.050893
0.052167
0.053244
0.053959
0.024696
0.024502
0.024459
0.024460
0.024354
0.024057
0.023535
0.022813
0.021997
0.021272
0.020872
0.021035
0.021970
0.023845
0.026773
0.030790
0.035787
0.041367
0.046701
0.050770
0.053110
0.054257
0.055031
0.055774
0.056457
0.057016
0.023772
0.023469
0.023117
0.022697
0.022119
0.021328
0.020321
0.019179
0.018090
0.017327
0.017188
0.017929
0.019731
0.022687
0.026813
0.032047
0.038188
0.044734
0.050673
0.054820
0.056852
0.057536
0.057776
0.058001
0.058295
0.058677
0.022396
0.021971
0.021262
0.020336
0.019173
0.017759
0.016139
0.014479
0.013081
0.012325
0.012565
0.014052
0.016903
0.021104
0.026550
0.033057
0.040323
0.047716
0.054017
0.057888
0.059374
0.059491
0.059167
0.058872
0.058768
0.058946
0.020435
0.019877
0.018769
0.017263
0.015406
0.013235
0.010867
0.008598
0.006888
0.006236
0.007036
0.009496
0.013622
0.019264
0.026166
0.034004
0.042348
0.050393
0.056720
0.059953
0.060722
0.060206
0.059306
0.058499
0.057996
0.057942
0.017796
0.017088
0.015545
0.013389
0.010729
0.007656
0.004398
0.001444
-0.000539
-0.000925
0.000687
0.004404
0.010075
0.017370
0.025871
0.035091
0.044416
0.052746
0.058574
0.060923
0.060919
0.059775
0.058330
0.057045
0.056157
0.055858
0.014450
0.013570
0.011553
0.008676
0.005092
0.000954
-0.003346
-0.007043
-0.009205
-0.009085
-0.006337
-0.001024
0.006483
0.015638
0.025871
0.036523
0.046743
0.054680
0.059168
0.060682
0.059987
0.058298
0.056387
0.054692
0.053456
0.052916
0.010455
0.009375
0.006841
0.003163
-0.001487
-0.006883
-0.012392
-0.016863
-0.019043
-0.018096
-0.013821
-0.006542
0.003090
0.014236
0.026312
0.038191
0.048750
0.056050
0.058911
0.059232
0.057994
0.055886
0.053622
0.051607
0.050085
0.049339
0.005973
0.004661
0.001560
-0.003013
-0.008897
-0.015778
-0.022673
-0.027912
-0.029871
-0.027700
-0.021469
-0.011872
0.000163
0.013430
0.026945
0.039589
0.049971
0.056219
0.057861
0.057007
0.055056
0.052644
0.050151
0.047918
0.046198
0.045327
0.001274
-0.000301
-0.004019
-0.009586
-0.016896
-0.025510
-0.033966
-0.039910
-0.041323
-0.037469
-0.028875
-0.016486
-0.002045
0.012843
0.027298
0.040166
0.049855
0.054824
0.055422
0.053887
0.051457
0.048729
0.046050
0.043684
0.041872
0.041055
-0.003260
-0.005119
-0.009490
-0.016142
-0.025063
-0.035650
-0.045791
-0.052285
-0.052731
-0.046713
-0.034943
-0.019957
-0.004012
0.011833
0.026645
0.039159
0.047794
0.051545
0.051469
0.049582
0.046951
0.044117
0.041384
0.038973
0.037159
0.036500
-0.007159
-0.009301
-0.014323
-0.022101
-0.032756
-0.045463
-0.057282
-0.064008
-0.062959
-0.053486
-0.038996
-0.022804
-0.006302
0.009633
0.024088
0.035757
0.043244
0.046131
0.045805
0.043907
0.041351
0.038631
0.036020
0.033727
0.032050
0.031482
-0.009902
-0.012289
-0.017890
-0.026727
-0.039083
-0.053824
-0.067032
-0.073390
-0.068748
-0.056572
-0.041467
-0.025516
-0.009730
0.005289
0.018708
0.029248
0.035775
0.038305
0.038154
0.036591
0.034404
0.032046
0.029770
0.027776
0.026355
0.025892
-0.010994
-0.013533
-0.019531
-0.029190
-0.042943
-0.059192
-0.073016
-0.075733
-0.068492
-0.056448
-0.042742
-0.028859
-0.015233
-0.002120
0.009725
0.019072
0.025011
0.027700
0.028145
0.027290
0.025804
0.024097
0.022403
0.020908
0.019865
0.019540
-0.010061
-0.012607
-0.018678
-0.028698
-0.043241
-0.059754
-0.069869
-0.069998
-0.063149
-0.053585
-0.043594
-0.033708
-0.023634
-0.013299
-0.003427
0.004788
0.010534
0.013847
0.015326
0.015608
0.015217
0.014499
0.013667
0.012885
0.012349
0.012208
-0.006962
-0.009359
-0.014996
-0.024625
-0.038241
-0.051870
-0.058812
-0.058043
-0.053664
-0.048994
-0.044928
-0.040766
-0.035446
-0.028651
-0.021113
-0.013999
-0.008141
-0.003784
-0.000786
0.001140
0.002308
0.002972
0.003315
0.003473
0.003579
0.003678
-0.002188
-0.004203
-0.008799
-0.016759
-0.027658
-0.037443
-0.041584
-0.041468
-0.041554
-0.043819
-0.047432
-0.050342
-0.050786
-0.048285
-0.043539
-0.037640
-0.031493
-0.025706
-0.020648
-0.016487
-0.013215
-0.010719
-0.008859
-0.007521
-0.006628
-0.006226
0.003412
0.002067
-0.000985
-0.006369
-0.013474
-0.019040
-0.020906
-0.022523
-0.028404
-0.038924
-0.051337
-0.062274
-0.069390
-0.072028
-0.070706
-0.066334
-0.059873
-0.052315
-0.044619
-0.037552
-0.031549
-0.026714
-0.022968
-0.020201
-0.018373
-0.017595
0.008763
0.008211
0.006978
0.004615
0.001666
0.000214
0.000325
-0.003295
-0.015400
-0.034662
-0.056371
-0.075982
-0.090636
-0.099366
-0.102294
-0.099984
-0.093367
-0.083788
-0.072871
-0.062163
-0.052730
-0.045001
-0.038978
-0.034532
-0.031617
-0.030387
0.012671
0.012918
0.013509
0.014137
0.015136
0.017444
0.019574
0.014645
-0.003227
-0.030933
-0.061870
-0.090527
-0.113512
-0.129345
-0.137507
-0.138026
-0.131636
-0.119940
-0.105275
-0.090165
-0.076554
-0.065345
-0.056649
-0.050283
-0.046142
-0.044381
0.014154
0.015123
0.017313
0.020519
0.024859
0.030396
0.034730
0.030015
0.007611
-0.027396
-0.066901
-0.104628
-0.136556
-0.160453
-0.174934
-0.179264
-0.173742
-0.160058
-0.141247
-0.121015
-0.102482
-0.087218
-0.075482
-0.066990
-0.061509
-0.059150
0.012663
0.014224
0.017634
0.022751
0.029544
0.037542
0.043976
0.041021
0.016283
-0.023609
-0.070273
-0.116642
-0.157816
-0.190570
-0.212440
-0.221713
-0.217957
-0.202699
-0.179580
-0.153653
-0.129548
-0.109738
-0.094678
-0.083928
-0.077048
-0.074049
0.008138
0.010127
0.014308
0.020559
0.028755
0.038135
0.045880
0.044655
0.021659
-0.018661
-0.070407
-0.124553
-0.174907
-0.217004
-0.247134
-0.262494
-0.261577
-0.245481
-0.218247
-0.186356
-0.156271
-0.131629
-0.113131
-0.100123
-0.091873
-0.088237
0.000887
0.003116
0.007637
0.014294
0.022890
0.032486
0.040199
0.038818
0.025390
-0.011916
-0.065666
-0.126186
-0.185268
-0.236700
-0.275396
-0.297783
-0.300763
-0.284882
-0.254226
-0.216628
-0.180617
-0.151228
-0.129463
-0.114402
-0.104946
-0.100744
-0.008620
-0.006352
-0.001851
0.004666
0.012960
0.022121
0.029594
0.032124
0.025436
-0.006302
-0.058702
-0.121360
-0.185351
-0.244755
-0.292790
-0.322861
-0.330409
-0.316122
-0.283407
-0.241185
-0.200043
-0.166578
-0.142136
-0.125507
-0.115187
-0.110579
-0.019924
-0.017862
-0.013651
-0.007638
-0.000068
0.008427
0.016617
0.022397
0.020772
-0.004484
-0.052320
-0.113346
-0.177896
-0.238937
-0.290764
-0.328502
-0.344015
-0.333341
-0.300738
-0.256174
-0.211721
-0.175637
-0.149645
-0.132275
-0.121637
-0.116888
-0.032772
-0.031097
-0.027369
-0.022062
-0.015349
-0.007545
0.000569
0.007265
0.008065
-0.010683
-0.051222
-0.106301
-0.166291
-0.223663
-0.273004
-0.309576
-0.328193
-0.326391
-0.300777
-0.257843
-0.212989
-0.176633
-0.150790
-0.133859
-0.123657
-0.119124
-0.047175
-0.045834
-0.042773
-0.038392
-0.032830
-0.026272
-0.019311
-0.013559
-0.012988
-0.027004
-0.059632
-0.105594
-0.155968
-0.203457
-0.243494
-0.272894
-0.288820
-0.289450
-0.273103
-0.240995
-0.201977
-0.168539
-0.144989
-0.129962
-0.121124
-0.117223
-0.063062
-0.062087
-0.059861
-0.056678
-0.052660
-0.047966
-0.043137
-0.039691
-0.040997
-0.052995
-0.079121
-0.115174
-0.152711
-0.184975
-0.209106
-0.224769
-0.232390
-0.232432
-0.223716
-0.203750
-0.176288
-0.150885
-0.132636
-0.121204
-0.114677
-0.111733
-0.080417
-0.079872
-0.078655
-0.076963
-0.074922
-0.072714
-0.070872
-0.070753
-0.074994
-0.087151
-0.108837
-0.135911
-0.159934
-0.174208
-0.177699
-0.173964
-0.168005
-0.163845
-0.161001
-0.153718
-0.140230
-0.126051
-0.115560
-0.109146
-0.105617
-0.104031
-0.099194
-0.099158
-0.099125
-0.099222
-0.099595
-0.100483
-0.102421
-0.106521
-0.114569
-0.128231
-0.147085
-0.166388
-0.177673
-0.173910
-0.155113
-0.128676
-0.105080
-0.093446
-0.094743
-0.099704
-0.100554
-0.098606
-0.096817
-0.096000
-0.095756
-0.095665
-0.119254
-0.119808
-0.121128
-0.123298
-0.126513
-0.131099
-0.137593
-0.146787
-0.159473
-0.175474
-0.192373
-0.204608
-0.203985
-0.183495
-0.143522
-0.094224
-0.051235
-0.030128
-0.034445
-0.050480
-0.064255
-0.073526
-0.079835
-0.084230
-0.087032
-0.088330
-0.140311
-0.141535
-0.144355
-0.148851
-0.155309
-0.164178
-0.176006
-0.191189
-0.209330
-0.228227
-0.243481
-0.248791
-0.236652
-0.200879
-0.142309
-0.072775
-0.011619
0.018855
0.011389
-0.013594
-0.037273
-0.055092
-0.067594
-0.075978
-0.081110
-0.083482
-0.161897
-0.163858
-0.168291
-0.175315
-0.185359
-0.199050
-0.216969
-0.239043
-0.263431
-0.285596
-0.299139
-0.297307
-0.273766
-0.223980
-0.149884
-0.064660
0.010000
0.046645
0.035657
0.005522
-0.023586
-0.046116
-0.062054
-0.072650
-0.079075
-0.082058
-0.183352
-0.186092
-0.192196
-0.201865
-0.215734
-0.234675
-0.259351
-0.289158
-0.320526
-0.346177
-0.357721
-0.348387
-0.313581
-0.251043
-0.164563
-0.068930
0.011757
0.044208
0.033687
0.004394
-0.024660
-0.047579
-0.063906
-0.074744
-0.081298
-0.084361
-0.203845
-0.207365
-0.215116
-0.227420
-0.245176
-0.269575
-0.301438
-0.339617
-0.378534
-0.407760
-0.416973
-0.399914
-0.354325
-0.280423
-0.184922
-0.083084
-0.008524
0.014470
0.006440
-0.015477
-0.039296
-0.058697
-0.072652
-0.081906
-0.087488
-0.090107
-0.222420
-0.226670
-0.235936
-0.250690
-0.272127
-0.301816
-0.340827
-0.387524
-0.434161
-0.466878
-0.473681
-0.449272
-0.394386
-0.310468
-0.210172
-0.115386
-0.046882
-0.026166
-0.033561
-0.048660
-0.064248
-0.077435
-0.086927
-0.093137
-0.096826
-0.098551
-0.238076
-0.242947
-0.253476
-0.270279
-0.294836
-0.329091
-0.374412
-0.428796
-0.482392
-0.518044
-0.522893
-0.492617
-0.426927
-0.339806
-0.247143
-0.160180
-0.099336
-0.080144
-0.081589
-0.088674
-0.095878
-0.101321
-0.104920
-0.107032
-0.108139
-0.108616
-0.249875
-0.255202
-0.266625
-0.284862
-0.311584
-0.348984
-0.398633
-0.458222
-0.516100
-0.552523
-0.555782
-0.515120
-0.449151
-0.375605
-0.297495
-0.224390
-0.169359
-0.146775
-0.138324
-0.134172
-0.130920
-0.127710
-0.124621
-0.121954
-0.120025
-0.119005
-0.257042
-0.262624
-0.274499
-0.293405
-0.321022
-0.359497
-0.410217
-0.470339
-0.526780
-0.557650
-0.546367
-0.510708
-0.464919
-0.415508
-0.363525
-0.310053
-0.258594
-0.225624
-0.201992
-0.183136
-0.167430
-0.154402
-0.143966
-0.136130
-0.130915
-0.128299
-0.259048
-0.264686
-0.276575
-0.295381
-0.322564
-0.359797
-0.407560
-0.461747
-0.504547
-0.513674
-0.506265
-0.491158
-0.475082
-0.461005
-0.443631
-0.412555
-0.361926
-0.312501
-0.268864
-0.232340
-0.202589
-0.178963
-0.160841
-0.147709
-0.139167
-0.134971
-0.255652
-0.261188
-0.272748
-0.290870
-0.316634
-0.350894
-0.392329
-0.431914
-0.451630
-0.453772
-0.455385
-0.463601
-0.481182
-0.507805
-0.529015
-0.519925
-0.467997
-0.399114
-0.332985
-0.277363
-0.232958
-0.198636
-0.172978
-0.154786
-0.143131
-0.137470
-0.246867
-0.252265
-0.263348
-0.280573
-0.304525
-0.334872
-0.367908
-0.393295
-0.400125
-0.401591
-0.413505
-0.440269
-0.484295
-0.545902
-0.602849
-0.614397
-0.561578
-0.474795
-0.387204
-0.313174
-0.254773
-0.210524
-0.178085
-0.155503
-0.141255
-0.134362
-0.233054
-0.238332
-0.249054
-0.265540
-0.287951
-0.315121
-0.342392
-0.360556
-0.363734
-0.368314
-0.388426
-0.424049
-0.480458
-0.560575
-0.643486
-0.673719
-0.626426
-0.529496
-0.425047
-0.335083
-0.264367
-0.211677
-0.174032
-0.148316
-0.132278
-0.124558
-0.214496
-0.219731
-0.230318
-0.246531
-0.268386
-0.294492
-0.320331
-0.338295
-0.344696
-0.352843
-0.377547
-0.414581
-0.466929
-0.540378
-0.623664
-0.675922
-0.651288
-0.559162
-0.443172
-0.338842
-0.258218
-0.200000
-0.159404
-0.132186
-0.115415
-0.107386
-0.191485
-0.196759
-0.207427
-0.223876
-0.246299
-0.273645
-0.302135
-0.325295
-0.339088
-0.350108
-0.375562
-0.408925
-0.448922
-0.501547
-0.579731
-0.623435
-0.646718
-0.568971
-0.436914
-0.319756
-0.233526
-0.173783
-0.133329
-0.106730
-0.090528
-0.082795
-0.164318
-0.169638
-0.180451
-0.197402
-0.221151
-0.251451
-0.285664
-0.318041
-0.342658
-0.359371
-0.380683
-0.404603
-0.429746
-0.457073
-0.518402
-0.684426
-0.745418
-0.572802
-0.399480
-0.272474
-0.187878
-0.132439
-0.096038
-0.072499
-0.058273
-0.051475
-0.133333
-0.138583
-0.149333
-0.166581
-0.191668
-0.225556
-0.267234
-0.311735
-0.350307
-0.375360
-0.388265
-0.401177
-0.414848
-0.435961
0.000000
-0.395961
-0.851615
-0.507424
-0.304890
-0.189914
-0.120865
-0.077416
-0.049280
-0.031138
-0.020151
-0.014842
-0.099016
-0.103931
-0.114078
-0.130809
-0.156234
-0.192860
-0.242085
-0.300656
-0.355973
-0.387605
-0.392585
-0.397012
-0.405930
0.000000
0.236946
0.059692
-0.218536
-0.201342
-0.129308
-0.075172
-0.038400
-0.013483
0.003432
0.014681
0.021652
0.025127
-0.062109
-0.066302
-0.075008
-0.089790
-0.113381
-0.149936
-0.204430
-0.278827
-0.360830
-0.408668
-0.389280
-0.393146
0.000000
0.538537
0.414201
0.218962
0.086686
0.035893
0.029734
0.036056
0.044280
0.051621
0.057461
0.061764
0.064640
0.066221
-0.023684
-0.026724
-0.033014
-0.044011
-0.062505
-0.093613
-0.146222
-0.233698
-0.367968
-0.526370
-0.457825
0.000000
0.758682
0.662873
0.509032
0.373372
0.263035
0.191499
0.151353
0.129789
0.118270
0.112123
0.108878
0.107231
0.106501
0.106375
0.014890
0.013341
0.010265
0.004728
-0.005129
-0.023198
-0.058156
-0.130475
-0.292220
-0.607355
0.023205
0.834419
0.854491
0.711980
0.582875
0.464679
0.364888
0.289551
0.237264
0.202465
0.179644
0.164739
0.155073
0.148973
0.145438
0.143941
0.052095
0.052150
0.052546
0.053092
0.053569
0.053786
0.053722
0.053711
0.058973
0.155192
0.653764
0.814347
0.774784
0.698460
0.600223
0.503223
0.417532
0.347881
0.294732
0.255792
0.227929
0.208309
0.194756
0.185745
0.180280
0.177801
0.086524
0.088035
0.091498
0.097219
0.105924
0.119121
0.140008
0.175578
0.241601
0.369565
0.563708
0.684226
0.682832
0.643602
0.579125
0.507305
0.439009
0.379669
0.331197
0.293255
0.264427
0.243051
0.227642
0.217044
0.210440
0.207342
0.117112
0.119772
0.125558
0.134996
0.149128
0.169794
0.200174
0.245512
0.313262
0.408723
0.516819
0.588967
0.603061
0.584152
0.544785
0.494579
0.442741
0.394667
0.353016
0.318596
0.291143
0.269919
0.254086
0.242896
0.235775
0.232361
0.143209
0.146661
0.153965
0.165646
0.182638
0.206391
0.238981
0.282957
0.340235
0.408746
0.476924
0.524718
0.541542
0.533901
0.510396
0.476123
0.437739
0.399841
0.365190
0.335153
0.310167
0.290145
0.274763
0.263642
0.256442
0.252934
0.164540
0.168461
0.176598
0.189366
0.207420
0.231629
0.262970
0.302153
0.348687
0.399288
0.446564
0.480908
0.496691
0.495179
0.481243
0.457862
0.429547
0.399889
0.371395
0.345612
0.323354
0.304951
0.290454
0.279770
0.272759
0.269305
0.181102
0.185231
0.193708
0.206815
0.224914
0.248368
0.277384
0.311680
0.349941
0.389196
0.424697
0.451189
0.465352
0.467032
0.458797
0.442538
0.421291
0.397785
0.374172
0.351979
0.332195
0.315399
0.301890
0.291787
0.285102
0.281793
0.193053
0.197179
0.205678
0.218731
0.236461
0.258872
0.285707
0.316217
0.348885
0.381235
0.409999
0.431894
0.444733
0.448049
0.443093
0.431245
0.414612
0.395311
0.375177
0.355654
0.337797
0.322320
0.309679
0.300139
0.293826
0.290740
0.200654
0.204519
0.212852
0.225721
0.243065
0.264666
0.290023
0.318194
0.347647
0.376246
0.401468
0.420913
0.432934
0.437011
0.433776
0.424335
0.410315
0.393467
0.375420
0.357544
0.340908
0.326296
0.314253
0.305146
0.299204
0.296495
0.204317
0.207310
0.215406
0.228155
0.245330
0.266615
0.291429
0.318769
0.347118
0.374460
0.398509
0.417140
0.428873
0.433186
0.430515
0.421883
0.408756
0.392759
0.375447
0.358157
0.341962
0.327667
0.315854
0.306945
0.301307
0.299508
