# vtk DataFile Version 3.0
Scalar Field
ASCII
DATASET RECTILINEAR_GRID
DIMENSIONS 200 75 1
X_COORDINATES 200 double
0.050000 0.150000 0.250000 0.350000 0.450000 0.550000 0.650000 0.750000 0.850000 0.950000 1.050000 1.150000 1.250000 1.350000 1.450000 1.550000 1.650000 1.750000 1.850000 1.950000 2.050000 2.150000 2.250000 2.350000 2.450000 2.550000 2.650000 2.750000 2.850000 2.950000 3.050000 3.150000 3.250000 3.350000 3.450000 3.550000 3.650000 3.750000 3.850000 3.950000 4.050000 4.150000 4.250000 4.350000 4.450000 4.550000 4.650000 4.750000 4.850000 4.950000 5.050000 5.150000 5.250000 5.350000 5.450000 5.550000 5.650000 5.750000 5.850000 5.950000 6.050000 6.150000 6.250000 6.350000 6.450000 6.550000 6.650000 6.750000 6.850000 6.950000 7.050000 7.150000 7.250000 7.350000 7.450000 7.550000 7.650000 7.750000 7.850000 7.950000 8.050000 8.150000 8.250000 8.350000 8.450000 8.550000 8.650000 8.750000 8.850000 8.950000 9.050000 9.150000 9.250000 9.350000 9.450000 9.550000 9.650000 9.750000 9.850000 9.950000 10.050000 10.150000 10.250000 10.350000 10.450000 10.550000 10.650000 10.750000 10.850000 10.950000 11.050000 11.150000 11.250000 11.350000 11.450000 11.550000 11.650000 11.750000 11.850000 11.950000 12.050000 12.150000 12.250000 12.350000 12.450000 12.550000 12.650000 12.750000 12.850000 12.950000 13.050000 13.150000 13.250000 13.350000 13.450000 13.550000 13.650000 13.750000 13.850000 13.950000 14.050000 14.150000 14.250000 14.350000 14.450000 14.550000 14.650000 14.750000 14.850000 14.950000 15.050000 15.150000 15.250000 15.350000 15.450000 15.550000 15.650000 15.750000 15.850000 15.950000 16.050000 16.150000 16.250000 16.350000 16.450000 16.550000 16.650000 16.750000 16.850000 16.950000 17.050000 17.150000 17.250000 17.350000 17.450000 17.550000 17.650000 17.750000 17.850000 17.950000 18.050000 18.150000 18.250000 18.350000 18.450000 18.550000 18.650000 18.750000 18.850000 18.950000 19.050000 19.150000 19.250000 19.350000 19.450000 19.550000 19.650000 19.750000 19.850000 19.950000 
Y_COORDINATES 75 double
0.050000 0.150000 0.250000 0.350000 0.450000 0.550000 0.650000 0.750000 0.850000 0.950000 1.050000 1.150000 1.250000 1.350000 1.450000 1.550000 1.650000 1.750000 1.850000 1.950000 2.050000 2.150000 2.250000 2.350000 2.450000 2.550000 2.650000 2.750000 2.850000 2.950000 3.050000 3.150000 3.250000 3.350000 3.450000 3.550000 3.650000 3.750000 3.850000 3.950000 4.050000 4.150000 4.250000 4.350000 4.450000 4.550000 4.650000 4.750000 4.850000 4.950000 5.050000 5.150000 5.250000 5.350000 5.450000 5.550000 5.650000 5.750000 5.850000 5.950000 6.050000 6.150000 6.250000 6.350000 6.450000 6.550000 6.650000 6.750000 6.850000 6.950000 7.050000 7.150000 7.250000 7.350000 7.450000 
Z_COORDINATES 1 double
0.0
POINT_DATA 15000
SCALARS Skalarfeld double 1
LOOKUP_TABLE default
1.067267
1.065836
1.064597
1.063255
1.061692
1.059849
1.057695
1.055204
1.052354
1.049126
1.045497
1.041446
1.036948
1.031979
1.026509
1.020508
1.013942
1.006775
0.998965
0.990471
0.981244
0.971235
0.960388
0.948645
0.935941
0.922211
0.907382
0.891377
0.874115
0.855513
0.835481
0.813928
0.790758
0.765875
0.739182
0.710581
0.679980
0.647287
0.612419
0.575304
0.535881
0.494105
0.449952
0.403424
0.354547
0.303384
0.250032
0.194626
0.137346
0.078411
0.018086
-0.043328
-0.105488
-0.168026
-0.230548
-0.292648
-0.353919
-0.413962
-0.472404
-0.528901
-0.583156
-0.634919
-0.683998
-0.730257
-0.773616
-0.814045
-0.851563
-0.886225
-0.918120
-0.947356
-0.974061
-0.998366
-1.020407
-1.040316
-1.058217
-1.074222
-1.088428
-1.100919
-1.111761
-1.120973
-1.128566
-1.134537
-1.138854
-1.141461
-1.142285
-1.141231
-1.138194
-1.133062
-1.125723
-1.116069
-1.104009
-1.089474
-1.072422
-1.052847
-1.030780
-1.006294
-0.979502
-0.950561
-0.919663
-0.887033
-0.852926
-0.817615
-0.781387
-0.744535
-0.707348
-0.670109
-0.633083
-0.596519
-0.560637
-0.525635
-0.491679
-0.458907
-0.427430
-0.397330
-0.368662
-0.341459
-0.315731
-0.291473
-0.268658
-0.247252
-0.227204
-0.208459
-0.190953
-0.174617
-0.159380
-0.145168
-0.131908
-0.119528
-0.107955
-0.097125
-0.086973
-0.077441
-0.068479
-0.060042
-0.052090
-0.044593
-0.037524
-0.030861
-0.024588
-0.018689
-0.013152
-0.007964
-0.003116
0.001412
0.005646
0.009591
0.013259
0.016664
0.019824
0.022753
0.025468
0.027984
0.030315
0.032476
0.034479
0.036337
0.038060
0.039659
0.041143
0.042522
0.043802
0.044992
0.046098
0.047127
0.048083
0.048973
0.049800
0.050570
0.051286
0.051952
0.052571
0.053147
0.053682
0.054179
0.054640
0.055068
0.055465
0.055832
0.056172
0.056485
0.056774
0.057039
0.057282
0.057504
0.057706
0.057889
0.058053
0.058199
0.058329
0.058441
0.058537
0.058616
0.058680
0.058726
0.058756
0.058767
0.058757
0.058721
0.058646
0.058666
1.066197
1.065644
1.064701
1.063477
1.061970
1.060163
1.058034
1.055563
1.052732
1.049522
1.045912
1.041880
1.037403
1.032455
1.027007
1.021030
1.014488
1.007345
0.999562
0.991095
0.981895
0.971914
0.961095
0.949379
0.936702
0.922998
0.908192
0.892209
0.874966
0.856378
0.836356
0.814806
0.791633
0.766739
0.740025
0.711393
0.680747
0.647996
0.613055
0.575848
0.536315
0.494408
0.450104
0.403401
0.354328
0.302946
0.249353
0.193687
0.136127
0.076898
0.016268
-0.045456
-0.107926
-0.170766
-0.233575
-0.295939
-0.357444
-0.417685
-0.476281
-0.532886
-0.587199
-0.638971
-0.688012
-0.734190
-0.777429
-0.817708
-0.855053
-0.889526
-0.921223
-0.950260
-0.976769
-1.000887
-1.022754
-1.042505
-1.060267
-1.076154
-1.090265
-1.102679
-1.113451
-1.122632
-1.130235
-1.136245
-1.140628
-1.143328
-1.144267
-1.143348
-1.140461
-1.135487
-1.128308
-1.118811
-1.106896
-1.092489
-1.075543
-1.056045
-1.034024
-1.009551
-0.982738
-0.953741
-0.922755
-0.890009
-0.855760
-0.820285
-0.783876
-0.746831
-0.709444
-0.672001
-0.634773
-0.598009
-0.561936
-0.526750
-0.492621
-0.459689
-0.428063
-0.397825
-0.369032
-0.341716
-0.315886
-0.291535
-0.268638
-0.247158
-0.227045
-0.208242
-0.190684
-0.174303
-0.159026
-0.144780
-0.131490
-0.119085
-0.107492
-0.096645
-0.086481
-0.076942
-0.067976
-0.059539
-0.051591
-0.044102
-0.037044
-0.030396
-0.024140
-0.018261
-0.012745
-0.007577
-0.002740
0.001777
0.005983
0.009896
0.013535
0.016914
0.020049
0.022957
0.025654
0.028153
0.030470
0.032618
0.034609
0.036456
0.038170
0.039761
0.041238
0.042610
0.043884
0.045069
0.046170
0.047194
0.048146
0.049031
0.049855
0.050621
0.051334
0.051997
0.052613
0.053187
0.053719
0.054214
0.054673
0.055100
0.055495
0.055860
0.056198
0.056510
0.056798
0.057062
0.057304
0.057525
0.057726
0.057908
0.058072
0.058217
0.058346
0.058458
0.058554
0.058634
0.058697
0.058745
0.058776
0.058791
0.058788
0.058768
0.058737
0.058738
1.066160
1.065839
1.065084
1.063978
1.062547
1.060792
1.058704
1.056270
1.053473
1.050297
1.046723
1.042728
1.038290
1.033383
1.027980
1.022049
1.015556
1.008465
1.000735
0.992323
0.983182
0.973260
0.962501
0.950846
0.938230
0.924585
0.909838
0.893909
0.876717
0.858175
0.838190
0.816669
0.793512
0.768620
0.741891
0.713224
0.682520
0.649684
0.614628
0.577272
0.537552
0.495419
0.450844
0.403824
0.354385
0.302589
0.248533
0.192358
0.134247
0.074431
0.013184
-0.049173
-0.112282
-0.175752
-0.239167
-0.302095
-0.364107
-0.424782
-0.483726
-0.540583
-0.595047
-0.646868
-0.695860
-0.741897
-0.784918
-0.824914
-0.861925
-0.896031
-0.927342
-0.955987
-0.982109
-1.005858
-1.027380
-1.046817
-1.064302
-1.079954
-1.093874
-1.106148
-1.116838
-1.125989
-1.133621
-1.139717
-1.144243
-1.147140
-1.148326
-1.147695
-1.145129
-1.140498
-1.133669
-1.124515
-1.112926
-1.098810
-1.082111
-1.062805
-1.040913
-1.016501
-0.989678
-0.960602
-0.929470
-0.896514
-0.861999
-0.826211
-0.789450
-0.752022
-0.714232
-0.676373
-0.638725
-0.601544
-0.565062
-0.529480
-0.494973
-0.461681
-0.429716
-0.399162
-0.370076
-0.342488
-0.316408
-0.291828
-0.268722
-0.247051
-0.226765
-0.207805
-0.190105
-0.173596
-0.158206
-0.143859
-0.130482
-0.118002
-0.106348
-0.095452
-0.085253
-0.075693
-0.066720
-0.058289
-0.050361
-0.042903
-0.035888
-0.029291
-0.023093
-0.017277
-0.011826
-0.006724
-0.001955
0.002495
0.006640
0.010497
0.014082
0.017412
0.020504
0.023372
0.026032
0.028499
0.030786
0.032908
0.034877
0.036703
0.038398
0.039972
0.041434
0.042791
0.044053
0.045226
0.046316
0.047330
0.048273
0.049150
0.049966
0.050725
0.051431
0.052088
0.052698
0.053266
0.053794
0.054285
0.054740
0.055162
0.055553
0.055916
0.056251
0.056560
0.056845
0.057107
0.057347
0.057566
0.057765
0.057946
0.058108
0.058253
0.058381
0.058492
0.058588
0.058668
0.058732
0.058781
0.058814
0.058833
0.058837
0.058829
0.058814
0.058801
1.066714
1.066468
1.065816
1.064800
1.063441
1.061745
1.059709
1.057323
1.054575
1.051447
1.047924
1.043983
1.039602
1.034756
1.029417
1.023554
1.017134
1.010119
1.002470
0.994142
0.985088
0.975255
0.964588
0.953027
0.940505
0.926954
0.912298
0.896458
0.879349
0.860882
0.840963
0.819494
0.796373
0.771498
0.744761
0.716057
0.685283
0.652337
0.617127
0.579567
0.539586
0.497129
0.452164
0.404683
0.354709
0.302301
0.247557
0.190621
0.131681
0.070976
0.008794
-0.054530
-0.118619
-0.183059
-0.247408
-0.311211
-0.374010
-0.435361
-0.494848
-0.552101
-0.606803
-0.658703
-0.707621
-0.753444
-0.796129
-0.835689
-0.872190
-0.905734
-0.936455
-0.964504
-0.990040
-1.013229
-1.034228
-1.053191
-1.070256
-1.085551
-1.099183
-1.111242
-1.121797
-1.130897
-1.138564
-1.144784
-1.149520
-1.152711
-1.154266
-1.154071
-1.151992
-1.147881
-1.141586
-1.132959
-1.121867
-1.108200
-1.091882
-1.072873
-1.051184
-1.026871
-1.000041
-0.970851
-0.939502
-0.906234
-0.871322
-0.835065
-0.797775
-0.759773
-0.721376
-0.682893
-0.644613
-0.606804
-0.569705
-0.533527
-0.498449
-0.464615
-0.432140
-0.401110
-0.371581
-0.343584
-0.317128
-0.292204
-0.268783
-0.246826
-0.226281
-0.207087
-0.189177
-0.172482
-0.156926
-0.142435
-0.128935
-0.116352
-0.104615
-0.093658
-0.083419
-0.073839
-0.064866
-0.056455
-0.048566
-0.041163
-0.034216
-0.027698
-0.021588
-0.015865
-0.010508
-0.005502
-0.000827
0.003532
0.007592
0.011369
0.014881
0.018144
0.021173
0.023985
0.026594
0.029015
0.031261
0.033345
0.035279
0.037075
0.038742
0.040290
0.041728
0.043065
0.044307
0.045462
0.046536
0.047534
0.048463
0.049328
0.050132
0.050880
0.051576
0.052224
0.052826
0.053386
0.053906
0.054390
0.054839
0.055255
0.055641
0.055999
0.056329
0.056634
0.056915
0.057174
0.057410
0.057627
0.057824
0.058002
0.058162
0.058305
0.058432
0.058542
0.058637
0.058717
0.058782
0.058832
0.058868
0.058890
0.058899
0.058898
0.058888
0.058871
1.067716
1.067502
1.066910
1.065960
1.064666
1.063031
1.061053
1.058725
1.056036
1.052970
1.049512
1.045641
1.041335
1.036568
1.031315
1.025542
1.019218
1.012306
1.004763
0.996548
0.987610
0.977899
0.967356
0.955922
0.943529
0.930106
0.915577
0.899859
0.882867
0.864508
0.844684
0.823295
0.800233
0.775390
0.748655
0.719915
0.689061
0.655983
0.620581
0.582762
0.542447
0.499572
0.454097
0.406008
0.355323
0.302098
0.246432
0.188469
0.128407
0.066494
0.003036
-0.061613
-0.127047
-0.192822
-0.258462
-0.323474
-0.387362
-0.449647
-0.509883
-0.567676
-0.622697
-0.674693
-0.723491
-0.769001
-0.811204
-0.850148
-0.885932
-0.918694
-0.948599
-0.975827
-1.000561
-1.022984
-1.043273
-1.061591
-1.078088
-1.092897
-1.106136
-1.117900
-1.128267
-1.137289
-1.144996
-1.151377
-1.156394
-1.159981
-1.162040
-1.162441
-1.161030
-1.157636
-1.152077
-1.144177
-1.133772
-1.120723
-1.104928
-1.086327
-1.064912
-1.040729
-1.013882
-0.984525
-0.952868
-0.919163
-0.883697
-0.846787
-0.808765
-0.769971
-0.730743
-0.691406
-0.652266
-0.613606
-0.575678
-0.538700
-0.502860
-0.468306
-0.435159
-0.403503
-0.373396
-0.344869
-0.317928
-0.292563
-0.268744
-0.246427
-0.225558
-0.206076
-0.187911
-0.170990
-0.155239
-0.140580
-0.126940
-0.114243
-0.102418
-0.091400
-0.081123
-0.071531
-0.062570
-0.054192
-0.046356
-0.039023
-0.032161
-0.025740
-0.019734
-0.014120
-0.008876
-0.003981
0.000583
0.004836
0.008795
0.012478
0.015902
0.019082
0.022037
0.024779
0.027325
0.029688
0.031882
0.033918
0.035809
0.037565
0.039196
0.040711
0.042118
0.043427
0.044643
0.045775
0.046827
0.047806
0.048716
0.049564
0.050352
0.051086
0.051768
0.052404
0.052994
0.053544
0.054054
0.054529
0.054969
0.055378
0.055757
0.056108
0.056432
0.056732
0.057008
0.057262
0.057494
0.057707
0.057900
0.058076
0.058233
0.058374
0.058499
0.058608
0.058702
0.058781
0.058846
0.058897
0.058935
0.058959
0.058972
0.058974
0.058967
0.058949
1.069109
1.068912
1.068361
1.067463
1.066226
1.064651
1.062736
1.060474
1.057854
1.054863
1.051484
1.047698
1.043484
1.038817
1.033669
1.028009
1.021805
1.015020
1.007612
0.999537
0.990747
0.981188
0.970803
0.959530
0.947301
0.934043
0.919677
0.904119
0.887280
0.869063
0.849368
0.828087
0.805110
0.780320
0.753600
0.724830
0.693889
0.660661
0.625034
0.586904
0.546181
0.502792
0.456685
0.407838
0.356262
0.302006
0.245170
0.185899
0.124400
0.060936
-0.004169
-0.070532
-0.137713
-0.205227
-0.272550
-0.339139
-0.404448
-0.467948
-0.529152
-0.587634
-0.643047
-0.695134
-0.743739
-0.788799
-0.830334
-0.868438
-0.903260
-0.934982
-0.963812
-0.989967
-1.013659
-1.035097
-1.054473
-1.071965
-1.087735
-1.101923
-1.114656
-1.126039
-1.136157
-1.145072
-1.152820
-1.159400
-1.164774
-1.168873
-1.171585
-1.172765
-1.172232
-1.169782
-1.165196
-1.158257
-1.148761
-1.136529
-1.121426
-1.103361
-1.082305
-1.058291
-1.031413
-1.001832
-0.969762
-0.935473
-0.899272
-0.861499
-0.822513
-0.782681
-0.742366
-0.701918
-0.661667
-0.621912
-0.582921
-0.544926
-0.508122
-0.472666
-0.438679
-0.406250
-0.375434
-0.346262
-0.318738
-0.292847
-0.268556
-0.245819
-0.224579
-0.204768
-0.186316
-0.169147
-0.153184
-0.138347
-0.124561
-0.111750
-0.099841
-0.088767
-0.078462
-0.068868
-0.059929
-0.051596
-0.043825
-0.036574
-0.029808
-0.023494
-0.017603
-0.012109
-0.006987
-0.002214
0.002231
0.006367
0.010216
0.013793
0.017118
0.020207
0.023075
0.025739
0.028212
0.030508
0.032640
0.034620
0.036458
0.038167
0.039753
0.041228
0.042599
0.043874
0.045059
0.046161
0.047187
0.048141
0.049029
0.049856
0.050625
0.051340
0.052007
0.052626
0.053203
0.053739
0.054238
0.054701
0.055131
0.055530
0.055900
0.056243
0.056560
0.056853
0.057123
0.057371
0.057598
0.057806
0.057995
0.058167
0.058321
0.058459
0.058582
0.058689
0.058782
0.058860
0.058925
0.058976
0.059015
0.059041
0.059056
0.059060
0.059054
0.059036
1.070862
1.070677
1.070156
1.069302
1.068119
1.066604
1.064756
1.062567
1.060026
1.057121
1.053835
1.050150
1.046045
1.041495
1.036473
1.030949
1.024889
1.018256
1.011010
1.003105
0.994493
0.985120
0.974927
0.963851
0.951822
0.938767
0.924603
0.909244
0.892596
0.874560
0.855029
0.833891
0.811028
0.786316
0.759630
0.730838
0.699811
0.666418
0.630536
0.592048
0.550848
0.506850
0.459989
0.410230
0.357574
0.302063
0.243793
0.182913
0.119636
0.054244
-0.012917
-0.081426
-0.150803
-0.220508
-0.289957
-0.358541
-0.425645
-0.490675
-0.553086
-0.612409
-0.668273
-0.720420
-0.768714
-0.813134
-0.853758
-0.890742
-0.924299
-0.954675
-0.982130
-1.006926
-1.029312
-1.049521
-1.067767
-1.084241
-1.099114
-1.112538
-1.124645
-1.135551
-1.145352
-1.154122
-1.161908
-1.168726
-1.174538
-1.179273
-1.182812
-1.184984
-1.185575
-1.184339
-1.181009
-1.175312
-1.166992
-1.155819
-1.141612
-1.124243
-1.103653
-1.079857
-1.052943
-1.023073
-0.990474
-0.955436
-0.918293
-0.879419
-0.839206
-0.798056
-0.756367
-0.714522
-0.672876
-0.631755
-0.591447
-0.552198
-0.514215
-0.477660
-0.442661
-0.409304
-0.377648
-0.347717
-0.319513
-0.293016
-0.268189
-0.244979
-0.223325
-0.203156
-0.184395
-0.166963
-0.150780
-0.135763
-0.121834
-0.108914
-0.096930
-0.085810
-0.075488
-0.065904
-0.056999
-0.048722
-0.041025
-0.033866
-0.027204
-0.021006
-0.015237
-0.009870
-0.004877
-0.000233
0.004085
0.008099
0.011828
0.015293
0.018511
0.021499
0.024274
0.026850
0.029242
0.031463
0.033526
0.035441
0.037221
0.038874
0.040411
0.041839
0.043167
0.044402
0.045550
0.046619
0.047613
0.048539
0.049400
0.050202
0.050948
0.051643
0.052289
0.052891
0.053451
0.053971
0.054455
0.054905
0.055323
0.055711
0.056071
0.056404
0.056712
0.056996
0.057259
0.057500
0.057721
0.057924
0.058108
0.058275
0.058425
0.058560
0.058680
0.058785
0.058875
0.058953
0.059016
0.059068
0.059107
0.059134
0.059150
0.059155
0.059151
0.059133
1.072952
1.072777
1.072282
1.071469
1.070337
1.068885
1.067108
1.064998
1.062545
1.059737
1.056557
1.052988
1.049009
1.044595
1.039720
1.034353
1.028461
1.022007
1.014951
1.007246
0.998844
0.989689
0.979724
0.968882
0.957093
0.944279
0.930359
0.915240
0.898825
0.881011
0.861685
0.840728
0.818015
0.793412
0.766783
0.737986
0.706878
0.673314
0.637154
0.598264
0.556523
0.511824
0.464086
0.413257
0.359324
0.302320
0.242334
0.179517
0.114090
0.046352
-0.023319
-0.094464
-0.166547
-0.238962
-0.311047
-0.382107
-0.451438
-0.518357
-0.582242
-0.642564
-0.698919
-0.751051
-0.798856
-0.842374
-0.881763
-0.917268
-0.949188
-0.977848
-1.003576
-1.026687
-1.047470
-1.066187
-1.083069
-1.098320
-1.112119
-1.124623
-1.135974
-1.146297
-1.155702
-1.164278
-1.172092
-1.179180
-1.185515
-1.191030
-1.195593
-1.199007
-1.201017
-1.201322
-1.199590
-1.195480
-1.188663
-1.178847
-1.165789
-1.149314
-1.129327
-1.105818
-1.078867
-1.048639
-1.015380
-0.979405
-0.941087
-0.900838
-0.859096
-0.816311
-0.772923
-0.729355
-0.686000
-0.643212
-0.601305
-0.560543
-0.521145
-0.483282
-0.447085
-0.412642
-0.380007
-0.349202
-0.320222
-0.293041
-0.267615
-0.243884
-0.221781
-0.201227
-0.182141
-0.164438
-0.148032
-0.132837
-0.118771
-0.105752
-0.093703
-0.082551
-0.072226
-0.062664
-0.053805
-0.045595
-0.037984
-0.030925
-0.024376
-0.018299
-0.012660
-0.007426
-0.002567
0.001942
0.006128
0.010012
0.013617
0.016962
0.020067
0.022948
0.025622
0.028103
0.030407
0.032546
0.034532
0.036376
0.038090
0.039682
0.041162
0.042538
0.043818
0.045008
0.046115
0.047145
0.048104
0.048996
0.049827
0.050600
0.051320
0.051991
0.052615
0.053195
0.053736
0.054239
0.054706
0.055141
0.055545
0.055919
0.056267
0.056589
0.056887
0.057162
0.057416
0.057649
0.057863
0.058059
0.058237
0.058399
0.058545
0.058676
0.058792
0.058894
0.058983
0.059058
0.059121
0.059171
0.059210
0.059238
0.059254
0.059261
0.059257
0.059239
1.075361
1.075195
1.074725
1.073951
1.072872
1.071484
1.069782
1.067759
1.065403
1.062703
1.059642
1.056204
1.052367
1.048108
1.043399
1.038212
1.032513
1.026264
1.019426
1.011951
1.003791
0.994890
0.985189
0.974619
0.963110
0.950581
0.936947
0.922113
0.905978
0.888432
0.869356
0.848624
0.826101
0.801645
0.775105
0.746327
0.715152
0.681417
0.644964
0.605637
0.563294
0.517806
0.469068
0.417009
0.361596
0.302848
0.240842
0.175730
0.107740
0.037190
-0.035508
-0.109847
-0.185225
-0.260953
-0.336274
-0.410378
-0.482445
-0.551674
-0.617336
-0.678821
-0.735681
-0.787661
-0.834711
-0.876961
-0.914683
-0.948244
-0.978061
-1.004558
-1.028145
-1.049198
-1.068049
-1.084988
-1.100259
-1.114073
-1.126612
-1.138036
-1.148490
-1.158110
-1.167023
-1.175341
-1.183156
-1.190537
-1.197482
-1.203932
-1.209747
-1.214702
-1.218489
-1.220735
-1.221023
-1.218923
-1.214017
-1.205926
-1.194333
-1.179002
-1.159791
-1.136661
-1.109681
-1.079023
-1.044954
-1.007826
-0.968058
-0.926117
-0.882500
-0.837713
-0.792252
-0.746593
-0.701172
-0.656381
-0.612562
-0.570002
-0.528932
-0.489536
-0.451944
-0.416245
-0.382488
-0.350689
-0.320836
-0.292893
-0.266807
-0.242510
-0.219924
-0.198964
-0.179540
-0.161560
-0.144932
-0.129566
-0.115372
-0.102266
-0.090166
-0.078995
-0.068681
-0.059155
-0.050356
-0.042226
-0.034710
-0.027761
-0.021334
-0.015387
-0.009883
-0.004788
-0.000070
0.004299
0.008346
0.012096
0.015570
0.018790
0.021775
0.024543
0.027109
0.029490
0.031699
0.033749
0.035652
0.037419
0.039061
0.040586
0.042004
0.043322
0.044548
0.045688
0.046749
0.047736
0.048655
0.049511
0.050307
0.051049
0.051740
0.052383
0.052981
0.053539
0.054057
0.054540
0.054989
0.055407
0.055794
0.056154
0.056488
0.056798
0.057084
0.057349
0.057593
0.057817
0.058023
0.058212
0.058384
0.058539
0.058680
0.058806
0.058918
0.059017
0.059103
0.059176
0.059237
0.059287
0.059325
0.059353
0.059370
0.059376
0.059373
0.059356
1.078074
1.077916
1.077471
1.076737
1.075712
1.074391
1.072770
1.070839
1.068590
1.066008
1.063080
1.059787
1.056109
1.052022
1.047501
1.042516
1.037034
1.031017
1.024424
1.017211
1.009326
1.000715
0.991314
0.981058
0.969871
0.957672
0.944371
0.929870
0.914064
0.896836
0.878061
0.857604
0.835321
0.811056
0.784646
0.755921
0.724702
0.690807
0.654056
0.614267
0.571270
0.524910
0.475054
0.421602
0.364496
0.303735
0.239383
0.171583
0.100571
0.026683
-0.049631
-0.127809
-0.207172
-0.286929
-0.366198
-0.444030
-0.519446
-0.591491
-0.659288
-0.722110
-0.779445
-0.831046
-0.876946
-0.917411
-0.952883
-0.983899
-1.011027
-1.034819
-1.055780
-1.074353
-1.090913
-1.105768
-1.119173
-1.131333
-1.142423
-1.152598
-1.162005
-1.170787
-1.179091
-1.187060
-1.194825
-1.202502
-1.210134
-1.217687
-1.225022
-1.231876
-1.237876
-1.242557
-1.245391
-1.245831
-1.243342
-1.237438
-1.227706
-1.213833
-1.195618
-1.172989
-1.145998
-1.114829
-1.079778
-1.041243
-0.999705
-0.955700
-0.909799
-0.862583
-0.814619
-0.766444
-0.718551
-0.671377
-0.625296
-0.580621
-0.537601
-0.496425
-0.457228
-0.420094
-0.385066
-0.352151
-0.321326
-0.292543
-0.265738
-0.240830
-0.217731
-0.196345
-0.176573
-0.158314
-0.141468
-0.125938
-0.111628
-0.098449
-0.086313
-0.075139
-0.064850
-0.055377
-0.046651
-0.038613
-0.031206
-0.024378
-0.018081
-0.012272
-0.006912
-0.001963
0.002608
0.006831
0.010734
0.014342
0.017680
0.020769
0.023628
0.026276
0.028729
0.031002
0.033110
0.035065
0.036880
0.038564
0.040128
0.041581
0.042931
0.044186
0.045353
0.046439
0.047450
0.048390
0.049265
0.050080
0.050839
0.051546
0.052204
0.052817
0.053387
0.053919
0.054414
0.054874
0.055303
0.055701
0.056071
0.056415
0.056734
0.057029
0.057303
0.057556
0.057789
0.058004
0.058201
0.058381
0.058545
0.058695
0.058830
0.058951
0.059058
0.059153
0.059236
0.059306
0.059366
0.059414
0.059451
0.059478
0.059495
0.059502
0.059499
0.059483
1.081073
1.080925
1.080505
1.079812
1.078843
1.077594
1.076058
1.074228
1.072093
1.069641
1.066857
1.063723
1.060220
1.056325
1.052012
1.047251
1.042010
1.036251
1.029934
1.023013
1.015438
1.007152
0.998092
0.988191
0.977370
0.965547
0.952629
0.938514
0.923091
0.906237
0.887820
0.867696
0.845708
0.821689
0.795460
0.766831
0.735605
0.701575
0.664532
0.624266
0.580576
0.533270
0.482181
0.427173
0.368157
0.305100
0.238046
0.167126
0.092578
0.014755
-0.065854
-0.148625
-0.232786
-0.317426
-0.401509
-0.483903
-0.563426
-0.638910
-0.709275
-0.773621
-0.831336
-0.882192
-0.926353
-0.964304
-0.996736
-1.024421
-1.048127
-1.068561
-1.086334
-1.101956
-1.115838
-1.128298
-1.139582
-1.149876
-1.159335
-1.168095
-1.176295
-1.184084
-1.191632
-1.199124
-1.206749
-1.214684
-1.223061
-1.231893
-1.241052
-1.250239
-1.258994
-1.266726
-1.272765
-1.276409
-1.276973
-1.273834
-1.266460
-1.254442
-1.237506
-1.215535
-1.188568
-1.156798
-1.120561
-1.080318
-1.036627
-0.990116
-0.941450
-0.891302
-0.840330
-0.789149
-0.738318
-0.688327
-0.639591
-0.592451
-0.547172
-0.503951
-0.462921
-0.424163
-0.387708
-0.353550
-0.321653
-0.291953
-0.264371
-0.238811
-0.215172
-0.193343
-0.173216
-0.154678
-0.137620
-0.121936
-0.107524
-0.094287
-0.082131
-0.070972
-0.060727
-0.051321
-0.042685
-0.034754
-0.027468
-0.020773
-0.014617
-0.008957
-0.003748
0.001046
0.005462
0.009532
0.013284
0.016745
0.019940
0.022891
0.025619
0.028141
0.030474
0.032634
0.034635
0.036489
0.038209
0.039805
0.041285
0.042661
0.043938
0.045126
0.046230
0.047257
0.048213
0.049102
0.049930
0.050701
0.051419
0.052087
0.052710
0.053290
0.053831
0.054334
0.054803
0.055239
0.055645
0.056022
0.056373
0.056699
0.057002
0.057282
0.057542
0.057782
0.058003
0.058207
0.058395
0.058566
0.058722
0.058864
0.058993
0.059108
0.059211
0.059301
0.059380
0.059448
0.059505
0.059551
0.059587
0.059614
0.059630
0.059637
0.059635
0.059620
1.084344
1.084204
1.083810
1.083160
1.082250
1.081077
1.079632
1.077910
1.075899
1.073586
1.070959
1.067999
1.064688
1.061002
1.056916
1.052402
1.047426
1.041952
1.035940
1.029344
1.022112
1.014189
1.005511
0.996007
0.985600
0.974203
0.961720
0.948047
0.933065
0.916647
0.898652
0.878925
0.857298
0.833590
0.807604
0.779130
0.747946
0.713818
0.676507
0.635767
0.591357
0.543044
0.490615
0.433892
0.372740
0.307088
0.236949
0.162433
0.083772
0.001334
-0.084355
-0.172602
-0.262534
-0.353091
-0.443046
-0.531034
-0.615609
-0.695320
-0.768797
-0.834875
-0.892776
-0.942299
-0.983839
-1.018233
-1.046545
-1.069878
-1.089253
-1.105552
-1.119499
-1.131662
-1.142471
-1.152234
-1.161164
-1.169406
-1.177070
-1.184259
-1.191089
-1.197709
-1.204312
-1.211140
-1.218467
-1.226569
-1.235699
-1.245978
-1.257309
-1.269355
-1.281539
-1.293102
-1.303175
-1.310855
-1.315269
-1.315621
-1.311233
-1.301572
-1.286277
-1.265174
-1.238283
-1.205813
-1.168153
-1.125842
-1.079541
-1.029993
-0.977985
-0.924312
-0.869738
-0.814978
-0.760670
-0.707368
-0.655534
-0.605537
-0.557660
-0.512104
-0.468999
-0.428416
-0.390372
-0.354843
-0.321773
-0.291080
-0.262665
-0.236415
-0.212210
-0.189927
-0.169441
-0.150627
-0.133366
-0.117541
-0.103043
-0.089765
-0.077609
-0.066482
-0.056299
-0.046980
-0.038450
-0.030641
-0.023491
-0.016942
-0.010941
-0.005439
-0.000393
0.004238
0.008490
0.012398
0.015992
0.019299
0.022345
0.025151
0.027740
0.030130
0.032338
0.034379
0.036267
0.038015
0.039634
0.041135
0.042528
0.043821
0.045021
0.046136
0.047173
0.048137
0.049034
0.049869
0.050646
0.051370
0.052044
0.052672
0.053257
0.053802
0.054309
0.054782
0.055223
0.055633
0.056015
0.056370
0.056700
0.057007
0.057292
0.057556
0.057800
0.058026
0.058235
0.058427
0.058604
0.058766
0.058913
0.059048
0.059169
0.059278
0.059375
0.059461
0.059536
0.059600
0.059655
0.059699
0.059734
0.059759
0.059775
0.059782
0.059780
0.059766
1.087867
1.087738
1.087371
1.086766
1.085919
1.084825
1.083478
1.081870
1.079991
1.077829
1.075371
1.072599
1.069494
1.066035
1.062197
1.057951
1.053265
1.048103
1.042425
1.036185
1.029332
1.021810
1.013554
1.004493
0.994548
0.983629
0.971639
0.958466
0.943990
0.928076
0.910572
0.891316
0.870126
0.846805
0.821137
0.792890
0.761814
0.727646
0.690109
0.648916
0.603778
0.554413
0.500552
0.441960
0.378445
0.309886
0.236247
0.157609
0.074188
-0.013642
-0.105322
-0.200089
-0.296953
-0.394684
-0.491814
-0.586679
-0.677493
-0.762435
-0.839737
-0.907800
-0.965526
-1.012768
-1.050340
-1.079673
-1.102400
-1.120070
-1.134009
-1.145281
-1.154706
-1.162889
-1.170251
-1.177057
-1.183454
-1.189510
-1.195261
-1.200751
-1.206055
-1.211307
-1.216724
-1.222614
-1.229376
-1.237456
-1.247260
-1.259113
-1.273002
-1.288551
-1.305014
-1.321390
-1.336541
-1.349303
-1.358564
-1.363318
-1.362703
-1.356039
-1.342851
-1.322896
-1.296168
-1.262897
-1.223537
-1.178731
-1.129271
-1.076052
-1.020016
-0.962108
-0.903233
-0.844224
-0.785817
-0.728640
-0.673205
-0.619915
-0.569067
-0.520863
-0.475425
-0.432807
-0.393006
-0.355975
-0.321632
-0.289872
-0.260572
-0.233597
-0.208807
-0.186060
-0.165215
-0.146133
-0.128681
-0.112731
-0.098164
-0.084866
-0.072730
-0.061657
-0.051557
-0.042343
-0.033938
-0.026269
-0.019271
-0.012883
-0.007049
-0.001719
0.003153
0.007610
0.011690
0.015427
0.018854
0.021999
0.024887
0.027543
0.029987
0.032238
0.034314
0.036229
0.037999
0.039635
0.041149
0.042551
0.043850
0.045055
0.046174
0.047213
0.048178
0.049076
0.049911
0.050688
0.051411
0.052084
0.052711
0.053296
0.053840
0.054348
0.054821
0.055261
0.055672
0.056054
0.056410
0.056741
0.057049
0.057335
0.057601
0.057848
0.058077
0.058288
0.058483
0.058663
0.058828
0.058980
0.059118
0.059244
0.059357
0.059460
0.059551
0.059632
0.059702
0.059763
0.059814
0.059856
0.059889
0.059913
0.059929
0.059936
0.059935
0.059922
1.091627
1.091508
1.091170
1.090612
1.089830
1.088820
1.087576
1.086090
1.084352
1.082351
1.080074
1.077503
1.074621
1.071406
1.067834
1.063878
1.059506
1.054683
1.049368
1.043517
1.037079
1.029996
1.022205
1.013633
1.004199
0.993814
0.982374
0.969767
0.955865
0.940527
0.923594
0.904891
0.884223
0.861377
0.836117
0.808186
0.777305
0.743174
0.705475
0.663873
0.618025
0.567586
0.512219
0.451618
0.385517
0.313723
0.236142
0.152803
0.063893
-0.030216
-0.128941
-0.231455
-0.336643
-0.443070
-0.548971
-0.652289
-0.750805
-0.842253
-0.924361
-0.994780
-1.051702
-1.095097
-1.126617
-1.148720
-1.163900
-1.174279
-1.181503
-1.186783
-1.190985
-1.194706
-1.198320
-1.202005
-1.205790
-1.209620
-1.213420
-1.217139
-1.220788
-1.224466
-1.228394
-1.232953
-1.238703
-1.246353
-1.256640
-1.270093
-1.286946
-1.306787
-1.328602
-1.351031
-1.372567
-1.391705
-1.407045
-1.417328
-1.421475
-1.418623
-1.408155
-1.389733
-1.363315
-1.329155
-1.287788
-1.239991
-1.186727
-1.129084
-1.068204
-1.005226
-0.941228
-0.877192
-0.813968
-0.752272
-0.692673
-0.635606
-0.581378
-0.530189
-0.482144
-0.437272
-0.395543
-0.356878
-0.321165
-0.288269
-0.258036
-0.230307
-0.204917
-0.181703
-0.160503
-0.141164
-0.123537
-0.107482
-0.092868
-0.079572
-0.067479
-0.056483
-0.046487
-0.037401
-0.029140
-0.021631
-0.014803
-0.008592
-0.002941
0.002204
0.006890
0.011161
0.015057
0.018615
0.021866
0.024840
0.027563
0.030060
0.032352
0.034457
0.036395
0.038179
0.039824
0.041343
0.042746
0.044044
0.045246
0.046359
0.047392
0.048350
0.049241
0.050068
0.050837
0.051553
0.052219
0.052840
0.053418
0.053956
0.054458
0.054926
0.055362
0.055768
0.056147
0.056500
0.056829
0.057135
0.057419
0.057684
0.057930
0.058158
0.058370
0.058565
0.058746
0.058913
0.059066
0.059206
0.059335
0.059451
0.059557
0.059652
0.059737
0.059812
0.059878
0.059935
0.059983
0.060022
0.060053
0.060076
0.060091
0.060098
0.060097
0.060086
1.095605
1.095496
1.095188
1.094679
1.093967
1.093046
1.091910
1.090553
1.088964
1.087134
1.085048
1.082691
1.080047
1.077093
1.073807
1.070162
1.066128
1.061669
1.056746
1.051316
1.045327
1.038723
1.031440
1.023404
1.014534
1.004738
0.993912
0.981937
0.968683
0.954000
0.937723
0.919664
0.899617
0.877348
0.852602
0.825094
0.794513
0.760521
0.722752
0.680816
0.634305
0.582800
0.525881
0.463149
0.394247
0.318886
0.236887
0.148210
0.052996
-0.048401
-0.155385
-0.267071
-0.382222
-0.499165
-0.615750
-0.729382
-0.837301
-0.936786
-1.025146
-1.098674
-1.153716
-1.190610
-1.212810
-1.224603
-1.229719
-1.230917
-1.230079
-1.228440
-1.226811
-1.225712
-1.225426
-1.225995
-1.227261
-1.228978
-1.230912
-1.232889