# vtk DataFile Version 3.0
Scalar Field
ASCII
DATASET RECTILINEAR_GRID
DIMENSIONS 200 75 1
X_COORDINATES 200 double
0.050000 0.150000 0.250000 0.350000 0.450000 0.550000 0.650000 0.750000 0.850000 0.950000 1.050000 1.150000 1.250000 1.350000 1.450000 1.550000 1.650000 1.750000 1.850000 1.950000 2.050000 2.150000 2.250000 2.350000 2.450000 2.550000 2.650000 2.750000 2.850000 2.950000 3.050000 3.150000 3.250000 3.350000 3.450000 3.550000 3.650000 3.750000 3.850000 3.950000 4.050000 4.150000 4.250000 4.350000 4.450000 4.550000 4.650000 4.750000 4.850000 4.950000 5.050000 5.150000 5.250000 5.350000 5.450000 5.550000 5.650000 5.750000 5.850000 5.950000 6.050000 6.150000 6.250000 6.350000 6.450000 6.550000 6.650000 6.750000 6.850000 6.950000 7.050000 7.150000 7.250000 7.350000 7.450000 7.550000 7.650000 7.750000 7.850000 7.950000 8.050000 8.150000 8.250000 8.350000 8.450000 8.550000 8.650000 8.750000 8.850000 8.950000 9.050000 9.150000 9.250000 9.350000 9.450000 9.550000 9.650000 9.750000 9.850000 9.950000 10.050000 10.150000 10.250000 10.350000 10.450000 10.550000 10.650000 10.750000 10.850000 10.950000 11.050000 11.150000 11.250000 11.350000 11.450000 11.550000 11.650000 11.750000 11.850000 11.950000 12.050000 12.150000 12.250000 12.350000 12.450000 12.550000 12.650000 12.750000 12.850000 12.950000 13.050000 13.150000 13.250000 13.350000 13.450000 13.550000 13.650000 13.750000 13.850000 13.950000 14.050000 14.150000 14.250000 14.350000 14.450000 14.550000 14.650000 14.750000 14.850000 14.950000 15.050000 15.150000 15.250000 15.350000 15.450000 15.550000 15.650000 15.750000 15.850000 15.950000 16.050000 16.150000 16.250000 16.350000 16.450000 16.550000 16.650000 16.750000 16.850000 16.950000 17.050000 17.150000 17.250000 17.350000 17.450000 17.550000 17.650000 17.750000 17.850000 17.950000 18.050000 18.150000 18.250000 18.350000 18.450000 18.550000 18.650000 18.750000 18.850000 18.950000 19.050000 19.150000 19.250000 19.350000 19.450000 19.550000 19.650000 19.750000 19.850000 19.950000 
Y_COORDINATES 75 double
0.050000 0.150000 0.250000 0.350000 0.450000 0.550000 0.650000 0.750000 0.850000 0.950000 1.050000 1.150000 1.250000 1.350000 1.450000 1.550000 1.650000 1.750000 1.850000 1.950000 2.050000 2.150000 2.250000 2.350000 2.450000 2.550000 2.650000 2.750000 2.850000 2.950000 3.050000 3.150000 3.250000 3.350000 3.450000 3.550000 3.650000 3.750000 3.850000 3.950000 4.050000 4.150000 4.250000 4.350000 4.450000 4.550000 4.650000 4.750000 4.850000 4.950000 5.050000 5.150000 5.250000 5.350000 5.450000 5.550000 5.650000 5.750000 5.850000 5.950000 6.050000 6.150000 6.250000 6.350000 6.450000 6.550000 6.650000 6.750000 6.850000 6.950000 7.050000 7.150000 7.250000 7.350000 7.450000 
Z_COORDINATES 1 double
0.0
POINT_DATA 15000
SCALARS Skalarfeld double 1
LOOKUP_TABLE default
1.757817
1.756368
1.755078
1.753653
1.751972
1.749980
1.747642
1.744932
1.741827
1.738307
1.734350
1.729931
1.725026
1.719608
1.713645
1.707106
1.699954
1.692150
1.683653
1.674416
1.664389
1.653519
1.641746
1.629010
1.615242
1.600371
1.584320
1.567010
1.548354
1.528263
1.506642
1.483395
1.458421
1.431618
1.402883
1.372114
1.339212
1.304081
1.266635
1.226796
1.184501
1.139703
1.092377
1.042526
0.990178
0.935399
0.878293
0.819003
0.757716
0.694666
0.630129
0.564423
0.497904
0.430961
0.364003
0.297454
0.231735
0.167259
0.104412
0.043544
-0.015043
-0.071101
-0.124442
-0.174938
-0.222524
-0.267190
-0.308974
-0.347961
-0.384266
-0.418033
-0.449423
-0.478608
-0.505764
-0.531069
-0.554693
-0.576799
-0.597541
-0.617060
-0.635481
-0.652917
-0.669465
-0.685203
-0.700198
-0.714496
-0.728131
-0.741123
-0.753474
-0.765161
-0.776166
-0.786458
-0.795996
-0.804732
-0.812611
-0.819576
-0.825563
-0.830506
-0.834335
-0.836974
-0.838344
-0.838362
-0.836939
-0.833983
-0.829399
-0.823092
-0.814966
-0.804932
-0.792907
-0.778817
-0.762608
-0.744241
-0.723699
-0.700992
-0.676155
-0.649251
-0.620370
-0.589628
-0.557165
-0.523142
-0.487735
-0.451135
-0.413538
-0.375146
-0.336161
-0.296781
-0.257200
-0.217602
-0.178165
-0.139056
-0.100433
-0.062445
-0.025235
0.011062
0.046314
0.080390
0.113154
0.144449
0.174273
0.202538
0.229073
0.253727
0.276348
0.296779
0.314863
0.330435
0.343330
0.353381
0.360425
0.364303
0.364865
0.361974
0.355512
0.345382
0.331514
0.313868
0.292437
0.267250
0.238375
0.205916
0.170016
0.130855
0.088645
0.043632
-0.003911
-0.053688
-0.105381
-0.158656
-0.213169
-0.268565
-0.324489
-0.380582
-0.436492
-0.491873
-0.546391
-0.599729
-0.651587
-0.701692
-0.749796
-0.795686
-0.839184
-0.880150
-0.918487
-0.954146
-0.987125
-1.017471
-1.045292
-1.070703
-1.093818
-1.114892
-1.134208
-1.152076
-1.168840
-1.184872
-1.200577
-1.216386
-1.232758
-1.250191
-1.269230
-1.290512
-1.314880
-1.357459
1.756780
1.756209
1.755215
1.753908
1.752285
1.750328
1.748014
1.745325
1.742239
1.738738
1.734799
1.730400
1.725515
1.720117
1.714177
1.707660
1.700533
1.692754
1.684283
1.675072
1.665072
1.654228
1.642482
1.629772
1.616029
1.601182
1.585154
1.567863
1.549223
1.529144
1.507530
1.484283
1.459302
1.432484
1.403724
1.372918
1.339966
1.304771
1.267244
1.227306
1.184892
1.139955
1.092468
1.042432
0.989876
0.934867
0.877507
0.817942
0.756363
0.693004
0.628149
0.562119
0.495279
0.428023
0.360769
0.293948
0.227992
0.163318
0.100320
0.039351
-0.019283
-0.075334
-0.128617
-0.179008
-0.226447
-0.270931
-0.312508
-0.351268
-0.387336
-0.420860
-0.452009
-0.480959
-0.507890
-0.532981
-0.556407
-0.578332
-0.598910
-0.618282
-0.636575
-0.653902
-0.670358
-0.686025
-0.700965
-0.715226
-0.728839
-0.741817
-0.754161
-0.765866
-0.776905
-0.787240
-0.796829
-0.805622
-0.813565
-0.820599
-0.826660
-0.831682
-0.835596
-0.838325
-0.839793
-0.839914
-0.838601
-0.835759
-0.831294
-0.825107
-0.817101
-0.807181
-0.795262
-0.781267
-0.765136
-0.746827
-0.726320
-0.703620
-0.678761
-0.651805
-0.622841
-0.591987
-0.559384
-0.525194
-0.489598
-0.452789
-0.414968
-0.376340
-0.337111
-0.297484
-0.257653
-0.217809
-0.178130
-0.138785
-0.099935
-0.061731
-0.024314
0.012178
0.047615
0.081872
0.114833
0.146425
0.176485
0.204872
0.231474
0.256156
0.278773
0.299172
0.317197
0.332685
0.345472
0.355393
0.362285
0.365988
0.366354
0.363248
0.356552
0.346171
0.332039
0.314116
0.292401
0.266925
0.237759
0.205012
0.168829
0.129394
0.086923
0.041663
-0.006112
-0.056102
-0.107991
-0.161443
-0.216113
-0.271650
-0.327695
-0.383894
-0.439892
-0.495346
-0.549922
-0.603303
-0.655189
-0.705306
-0.753407
-0.799278
-0.842738
-0.883647
-0.921907
-0.957465
-0.990313
-1.020488
-1.048057
-1.073158
-1.096016
-1.116820
-1.135839
-1.153381
-1.169788
-1.185434
-1.200720
-1.216073
-1.231946
-1.248818
-1.267191
-1.287579
-1.310469
-1.349143
1.756808
1.756469
1.755664
1.754475
1.752927
1.751023
1.748751
1.746098
1.743048
1.739581
1.735678
1.731316
1.726470
1.721114
1.715217
1.708747
1.701668
1.693941
1.685523
1.676367
1.666424
1.655639
1.643952
1.631301
1.617618
1.602829
1.586856
1.569618
1.551026
1.530988
1.509408
1.486185
1.461215
1.434392
1.405610
1.374762
1.341743
1.306452
1.268799
1.228699
1.186084
1.140903
1.093127
1.042754
0.989811
0.934364
0.876516
0.816416
0.754258
0.690284
0.624784
0.558094
0.490589
0.422679
0.354800
0.287400
0.220927
0.155816
0.092474
0.031266
-0.027499
-0.083569
-0.136764
-0.186970
-0.234136
-0.278276
-0.319453
-0.357773
-0.393376
-0.426425
-0.457099
-0.485586
-0.512072
-0.536744
-0.559779
-0.581344
-0.601597
-0.620679
-0.638719
-0.655829
-0.672105
-0.687627
-0.702459
-0.716647
-0.730220
-0.743191
-0.755559
-0.767310
-0.778417
-0.788842
-0.798536
-0.807448
-0.815521
-0.822695
-0.828907
-0.834090
-0.838176
-0.841091
-0.842758
-0.843093
-0.842007
-0.839405
-0.835188
-0.829255
-0.821501
-0.811827
-0.800137
-0.786349
-0.770390
-0.752212
-0.731786
-0.709111
-0.684216
-0.657158
-0.628027
-0.596940
-0.564042
-0.529500
-0.493501
-0.456245
-0.417941
-0.378803
-0.339045
-0.298877
-0.258503
-0.218119
-0.177909
-0.138050
-0.098704
-0.060028
-0.022165
0.014747
0.050577
0.085203
0.118510
0.150396
0.180701
0.209292
0.236046
0.260831
0.283506
0.303920
0.321918
0.337337
0.350012
0.359778
0.366468
0.369924
0.369996
0.366549
0.359467
0.348659
0.334060
0.315637
0.293393
0.267367
0.237638
0.204321
0.167570
0.127574
0.084557
0.038771
-0.009505
-0.059967
-0.112296
-0.166156
-0.221201
-0.277077
-0.333428
-0.389899
-0.446137
-0.501797
-0.556547
-0.610068
-0.662061
-0.712250
-0.760385
-0.806250
-0.849663
-0.890479
-0.928599
-0.963964
-0.996562
-1.026428
-1.053639
-1.078328
-1.100688
-1.120936
-1.139339
-1.156206
-1.171878
-1.186725
-1.201146
-1.215562
-1.230417
-1.246168
-1.263272
-1.282149
-1.303103
-1.337700
1.757459
1.757196
1.756494
1.755395
1.753920
1.752075
1.749855
1.747251
1.744249
1.740831
1.736979
1.732671
1.727883
1.722588
1.716756
1.710355
1.703348
1.695697
1.687359
1.678287
1.668430
1.657734
1.646138
1.633579
1.619988
1.605291
1.589408
1.572255
1.553743
1.533776
1.512256
1.489079
1.464139
1.437325
1.408525
1.377629
1.344527
1.309113
1.271288
1.230965
1.188068
1.142541
1.094348
1.043484
0.989974
0.933879
0.875306
0.814405
0.751376
0.686471
0.619992
0.552292
0.483767
0.414852
0.346006
0.277707
0.210431
0.144639
0.080760
0.019174
-0.039797
-0.095903
-0.148967
-0.198888
-0.245638
-0.289252
-0.329818
-0.367467
-0.402364
-0.434694
-0.464652
-0.492440
-0.518259
-0.542301
-0.564750
-0.585779
-0.605546
-0.624196
-0.641857
-0.658643
-0.674650
-0.689958
-0.704629
-0.718708
-0.732223
-0.745185
-0.757587
-0.769410
-0.780622
-0.791182
-0.801034
-0.810122
-0.818388
-0.825768
-0.832201
-0.837621
-0.841960
-0.845149
-0.847110
-0.847762
-0.847014
-0.844770
-0.840926
-0.835375
-0.828005
-0.818704
-0.807367
-0.793895
-0.778207
-0.760236
-0.739944
-0.717319
-0.692381
-0.665182
-0.635810
-0.604385
-0.571055
-0.535995
-0.499400
-0.461483
-0.422464
-0.382571
-0.342029
-0.301062
-0.259885
-0.218704
-0.177713
-0.137096
-0.097023
-0.057655
-0.019142
0.018378
0.054772
0.089914
0.123687
0.155972
0.186632
0.215527
0.242528
0.267504
0.290312
0.310804
0.328822
0.344202
0.356777
0.366376
0.372830
0.375978
0.375668
0.371765
0.364153
0.352745
0.337481
0.318337
0.295324
0.268492
0.237929
0.203764
0.166162
0.125324
0.081482
0.034899
-0.014139
-0.065324
-0.118330
-0.172819
-0.228444
-0.284850
-0.341682
-0.398584
-0.455203
-0.511196
-0.566229
-0.619983
-0.672156
-0.722470
-0.770672
-0.816542
-0.859893
-0.900578
-0.938491
-0.973569
-1.005798
-1.035208
-1.061876
-1.085930
-1.107545
-1.126956
-1.144436
-1.160296
-1.174875
-1.188540
-1.201686
-1.214732
-1.228114
-1.242283
-1.257681
-1.274716
-1.293688
-1.325910
1.758592
1.758360
1.757718
1.756686
1.755276
1.753492
1.751331
1.748785
1.745842
1.742487
1.738701
1.734464
1.729751
1.724536
1.718789
1.712479
1.705569
1.698020
1.689788
1.680828
1.671088
1.660512
1.649040
1.636607
1.623142
1.608571
1.592812
1.575779
1.557379
1.537515
1.516085
1.492980
1.468090
1.441299
1.412489
1.381544
1.348345
1.312781
1.274744
1.234137
1.190878
1.144900
1.096162
1.044651
0.990387
0.933429
0.873882
0.811900
0.747692
0.681520
0.613706
0.544623
0.474697
0.404396
0.334216
0.264675
0.196288
0.129554
0.064933
0.002832
-0.056415
-0.112556
-0.165422
-0.214935
-0.261094
-0.303968
-0.343682
-0.380404
-0.414330
-0.445674
-0.474657
-0.501501
-0.526418
-0.549613
-0.571278
-0.591589
-0.610708
-0.628781
-0.645938
-0.662293
-0.677943
-0.692966
-0.707426
-0.721365
-0.734807
-0.747760
-0.760213
-0.772139
-0.783498
-0.794241
-0.804307
-0.813633
-0.822154
-0.829808
-0.836531
-0.842260
-0.846932
-0.850478
-0.852827
-0.853897
-0.853598
-0.851833
-0.848491
-0.843457
-0.836608
-0.827819
-0.816967
-0.803937
-0.788625
-0.770950
-0.750854
-0.728310
-0.703327
-0.675951
-0.646267
-0.614396
-0.580494
-0.544745
-0.507360
-0.468565
-0.428598
-0.387704
-0.346126
-0.304104
-0.261868
-0.219638
-0.177621
-0.136010
-0.094985
-0.054712
-0.015348
0.022966
0.060093
0.095906
0.130284
0.163106
0.194245
0.223552
0.250900
0.276155
0.299175
0.319810
0.337899
0.353274
0.365762
0.375185
0.381370
0.384148
0.383364
0.378883
0.370590
0.358401
0.342265
0.322168
0.298134
0.270228
0.238554
0.203256
0.164517
0.122551
0.077606
0.029956
-0.020103
-0.072254
-0.126168
-0.181502
-0.237907
-0.295027
-0.352508
-0.409993
-0.467132
-0.523581
-0.579005
-0.633083
-0.685510
-0.736005
-0.784311
-0.830200
-0.873480
-0.913999
-0.951644
-0.986350
-1.018094
-1.046903
-1.072851
-1.096057
-1.116684
-1.134967
-1.151213
-1.165730
-1.178855
-1.190953
-1.202416
-1.213661
-1.225127
-1.237268
-1.250550
-1.265434
-1.282346
-1.312835
1.760148
1.759933
1.759332
1.758352
1.756999
1.755276
1.753178
1.750699
1.747826
1.744546
1.740840
1.736689
1.732068
1.726953
1.721313
1.715116
1.708326
1.700904
1.692808
1.683988
1.674395
1.663971
1.652656
1.640383
1.627081
1.612672
1.597074
1.580196
1.561945
1.542218
1.520909
1.497905
1.473089
1.446340
1.417531
1.386538
1.353234
1.317497
1.279208
1.238260
1.194559
1.148028
1.098615
1.046296
0.991085
0.933036
0.872254
0.808896
0.743177
0.675378
0.605840
0.534968
0.463223
0.391117
0.319198
0.248035
0.178198
0.110238
0.044659
-0.018098
-0.077680
-0.133833
-0.186404
-0.235344
-0.280694
-0.322571
-0.361149
-0.396646
-0.429303
-0.459369
-0.487097
-0.512731
-0.536502
-0.558626
-0.579302
-0.598710
-0.617016
-0.634367
-0.650894
-0.666711
-0.681915
-0.696587
-0.710785
-0.724554
-0.737913
-0.750866
-0.763393
-0.775459
-0.787015
-0.797998
-0.808341
-0.817969
-0.826812
-0.834805
-0.841885
-0.847994
-0.853072
-0.857059
-0.859885
-0.861476
-0.861741
-0.860579
-0.857877
-0.853507
-0.847333
-0.839210
-0.828996
-0.816550
-0.801745
-0.784472
-0.764650
-0.742233
-0.717214
-0.689630
-0.659562
-0.627134
-0.592512
-0.555894
-0.517509
-0.477604
-0.436441
-0.394286
-0.351405
-0.308059
-0.264497
-0.220957
-0.177660
-0.134813
-0.092605
-0.051211
-0.010792
0.028503
0.066536
0.103179
0.138308
0.171804
0.203545
0.233375
0.261168
0.286790
0.310099
0.330942
0.349154
0.364560
0.376976
0.386217
0.392097
0.394441
0.393087
0.387898
0.378762
0.365601
0.348375
0.327083
0.301767
0.272511
0.239443
0.202727
0.162566
0.119196
0.072879
0.023905
-0.027417
-0.080764
-0.135798
-0.192174
-0.249540
-0.307542
-0.365825
-0.424035
-0.481822
-0.538841
-0.594758
-0.649248
-0.702005
-0.752740
-0.801189
-0.847119
-0.890329
-0.930658
-0.967987
-1.002244
-1.033402
-1.061483
-1.086555
-1.108728
-1.128153
-1.145032
-1.159743
-1.172592
-1.183913
-1.194069
-1.203448
-1.212467
-1.221569
-1.231223
-1.241931
-1.254233
-1.268721
-1.297014
1.762095
1.761892
1.761322
1.760386
1.759088
1.757425
1.755395
1.752989
1.750196
1.747003
1.743391
1.739341
1.734831
1.729833
1.724320
1.718259
1.711614
1.704346
1.696412
1.687763
1.678348
1.668109
1.656985
1.644909
1.631806
1.617597
1.602198
1.585515
1.567450
1.547898
1.526746
1.503875
1.479163
1.452477
1.423686
1.392652
1.359239
1.323310
1.284736
1.243394
1.199174
1.151987
1.101766
1.048475
0.992117
0.932740
0.870444
0.805390
0.737804
0.667982
0.596293
0.523179
0.449148
0.374767
0.300650
0.227435
0.155767
0.086264
0.019492
-0.044064
-0.104026
-0.160136
-0.212268
-0.260415
-0.304676
-0.345237
-0.382339
-0.416265
-0.447309
-0.475770
-0.501937
-0.526078
-0.548445
-0.569263
-0.588739
-0.607058
-0.624385
-0.640867
-0.656637
-0.671809
-0.686480
-0.700731
-0.714622
-0.728194
-0.741466
-0.754433
-0.767068
-0.779324
-0.791137
-0.802429
-0.813120
-0.823120
-0.832353
-0.840751
-0.848253
-0.854805
-0.860359
-0.864861
-0.868254
-0.870465
-0.871410
-0.870986
-0.869071
-0.865526
-0.860199
-0.852922
-0.843525
-0.831835
-0.817693
-0.800957
-0.781513
-0.759289
-0.734256
-0.706440
-0.675917
-0.642816
-0.607315
-0.569632
-0.530020
-0.488753
-0.446122
-0.402424
-0.357952
-0.312993
-0.267822
-0.222695
-0.177852
-0.133515
-0.089884
-0.047144
-0.005464
0.035004
0.074119
0.111750
0.147775
0.182076
0.214539
0.245000
0.273334
0.299410
0.323084
0.344202
0.362592
0.378067
0.390432
0.399484
0.405026
0.406869
0.404845
0.398813
0.388664
0.374330
0.355786
0.333051
0.306191
0.275317
0.240581
0.202176
0.160331
0.115303
0.067376
0.016855
-0.035939
-0.090674
-0.147005
-0.204586
-0.263063
-0.322085
-0.381297
-0.440348
-0.498890
-0.556580
-0.613081
-0.668066
-0.721223
-0.772257
-0.820896
-0.866896
-0.910047
-0.950179
-0.987162
-1.020917
-1.051412
-1.078665
-1.102739
-1.123742
-1.141816
-1.157091
-1.169994
-1.180879
-1.190075
-1.197939
-1.204858
-1.211245
-1.217544
-1.224234
-1.231845
-1.240985
-1.252380
-1.277114
1.764412
1.764219
1.763675
1.762780
1.761534
1.759935
1.757976
1.755650
1.752947
1.749851
1.746346
1.742414
1.738030
1.733170
1.727805
1.721902
1.715427
1.708338
1.700594
1.692146
1.682941
1.672922
1.662025
1.650181
1.637317
1.623349
1.608189
1.591743
1.573906
1.554569
1.533614
1.510915
1.486339
1.459747
1.430995
1.399935
1.366414
1.330283
1.291395
1.249610
1.204800
1.156856
1.105695
1.051263
0.993550
0.932591
0.868483
0.801388
0.731541
0.659259
0.584942
0.509076
0.432226
0.355032
0.278189
0.202428
0.128487
0.057079
-0.011149
-0.075651
-0.136013
-0.191982
-0.243464
-0.290518
-0.333329
-0.372172
-0.407383
-0.439324
-0.468361
-0.494849
-0.519116
-0.541461
-0.562151
-0.581423
-0.599486
-0.616525
-0.632705
-0.648173
-0.663059
-0.677478
-0.691529
-0.705292
-0.718831
-0.732184
-0.745369
-0.758375
-0.771165
-0.783675
-0.795822
-0.807507
-0.818628
-0.829080
-0.838775
-0.847641
-0.855621
-0.862674
-0.868762
-0.873848
-0.877887
-0.880817
-0.882560
-0.883012
-0.882045
-0.879507
-0.875223
-0.869001
-0.860633
-0.849910
-0.836627
-0.820598
-0.801668
-0.779729
-0.754726
-0.726664
-0.695616
-0.661719
-0.625166
-0.586201
-0.545108
-0.502199
-0.457802
-0.412249
-0.365872
-0.318987
-0.271899
-0.224890
-0.178219
-0.132124
-0.086821
-0.042504
0.000651
0.042487
0.082859
0.121637
0.158699
0.193931
0.227231
0.258425
0.287391
0.314003
0.338119
0.359580
0.378206
0.393796
0.406135
0.415000
0.420172
0.421449
0.418651
0.411636
0.400301
0.384593
0.364508
0.340092
0.311442
0.278703
0.242059
0.201736
0.157990
0.111104
0.061383
0.009146
-0.045273
-0.101533
-0.159287
-0.218187
-0.277880
-0.338018
-0.398249
-0.458228
-0.517607
-0.576044
-0.633203
-0.688752
-0.742374
-0.793764
-0.842641
-0.888748
-0.931864
-0.971805
-1.008432
-1.041657
-1.071441
-1.097799
-1.120795
-1.140539
-1.157169
-1.170835
-1.181708
-1.190394
-1.197203
-1.202487
-1.206626
-1.210026
-1.213122
-1.216389
-1.220360
-1.225663
-1.233078
-1.252203
1.767080
1.766897
1.766378
1.765523
1.764330
1.762795
1.760913
1.758674
1.756068
1.753082
1.749698
1.745897
1.741658
1.736954
1.731757
1.726036
1.719754
1.712872
1.705347
1.697130
1.688168
1.678403
1.667770
1.656199
1.643613
1.629928
1.615052
1.598887
1.581325
1.562249
1.541535
1.519050
1.494652
1.468190
1.439507
1.408441
1.374824
1.338488
1.299266
1.256996
1.211529
1.162733
1.110499
1.054754
0.995466
0.932659
0.866418
0.796904
0.724362
0.649130
0.571645
0.492443
0.412161
0.331526
0.251337
0.172445
0.095711
0.021973
-0.048011
-0.113608
-0.174362
-0.230021
-0.280550
-0.326103
-0.366985
-0.403601
-0.436407
-0.465871
-0.492444
-0.516543
-0.538541
-0.558764
-0.577495
-0.594973
-0.611407
-0.626978
-0.641845
-0.656152
-0.670028
-0.683586
-0.696928
-0.710137
-0.723278
-0.736395
-0.749502
-0.762583
-0.775590
-0.788440
-0.801021
-0.813204
-0.824855
-0.835848
-0.846080
-0.855474
-0.863982
-0.871576
-0.878242
-0.883965
-0.888721
-0.892463
-0.895123
-0.896597
-0.896753
-0.895424
-0.892411
-0.887488
-0.880407
-0.870908
-0.858730
-0.843629
-0.825395
-0.803870
-0.778962
-0.750656
-0.719016
-0.684189
-0.646390
-0.605899
-0.563042
-0.518175
-0.471675
-0.423922
-0.375291
-0.326137
-0.276800
-0.227589
-0.178788
-0.130654
-0.083418
-0.037283
0.007566
0.050967
0.092773
0.132852
0.171088
0.207372
0.241613
0.273633
0.303315
0.330539
0.355169
0.377043
0.395971
0.411730
0.424079
0.432766
0.437544
0.438192
0.434520
0.426385
0.413698
0.396427
0.374598
0.348294
0.317652
0.282853
0.244123
0.201719
0.155928
0.107056
0.055427
0.001376
-0.054755
-0.112618
-0.171866
-0.232148
-0.293118
-0.354428
-0.415735
-0.476695
-0.536965
-0.596205
-0.654077
-0.710245
-0.764385
-0.816183
-0.865344
-0.911598
-0.954709
-0.994478
-1.030754
-1.063439
-1.092487
-1.117911
-1.139778
-1.158208
-1.173365
-1.185457
-1.194301
-1.200661
-1.204918
-1.207429
-1.208567
-1.208724
-1.208314
-1.207785
-1.207636
-1.208453
-1.210967
-1.222168
1.770084
1.769909
1.769415
1.768600
1.767461
1.765995
1.764194
1.762050
1.759552
1.756686
1.753435
1.749781
1.745703
1.741173
1.736166
1.730648
1.724585
1.717937
1.710661
1.702706
1.694021
1.684546
1.674215
1.662957
1.650693
1.637336
1.622791
1.606956
1.589717
1.570953
1.550532
1.528311
1.504137
1.477849
1.449275
1.418235
1.384543
1.348009
1.308443
1.265657
1.219474
1.169733
1.116297
1.059063
0.997976
0.933036
0.864314
0.791967
0.716247
0.637513
0.556241
0.473029
0.388596
0.303777
0.219504
0.136776
0.056621
-0.019959
-0.092051
-0.158902
-0.219989
-0.275074
-0.324209
-0.367695
-0.406014
-0.439749
-0.469514
-0.495910
-0.519486
-0.540730
-0.560059
-0.577820
-0.594302
-0.609741
-0.624335
-0.638253
-0.651646
-0.664650
-0.677389
-0.689978
-0.702520
-0.715105
-0.727804
-0.740667
-0.753711
-0.766919
-0.780227
-0.793528
-0.806676
-0.819494
-0.831801
-0.843441
-0.854288
-0.864262
-0.873328
-0.881484
-0.888749
-0.895141
-0.900667
-0.905304
-0.908996
-0.911646
-0.913115
-0.913221
-0.911741
-0.908411
-0.902930
-0.894975
-0.884214
-0.870327
-0.853028
-0.832095
-0.807385
-0.778853
-0.746556
-0.710652
-0.671389
-0.629092
-0.584143
-0.536958
-0.487975
-0.437633
-0.386359
-0.334558
-0.282607
-0.230850
-0.179597
-0.129126
-0.079681
-0.031479
0.015289
0.060454
0.103869
0.145402
0.184941
0.222387
0.257654
0.290587
0.321054
0.348955
0.374163
0.396520
0.415821
0.431816
0.444224
0.452753
0.457123
0.457087
0.452448
0.443071
0.428885
0.409894
0.386163
0.357820
0.325048
0.288073
0.247156
0.202590
0.154687
0.103775
0.050193
-0.005711
-0.063589
-0.123090
-0.183863
-0.245561
-0.307839
-0.370356
-0.432771
-0.494747
-0.555946
-0.616027
-0.674651
-0.731481
-0.786182
-0.838430
-0.887916
-0.934353
-0.977489
-1.017108
-1.053046
-1.085189
-1.113487
-1.137948
-1.158644
-1.175706
-1.189312
-1.199674
-1.206983
-1.210951
-1.212595
-1.212262
-1.210311
-1.207112
-1.203046
-1.198510
-1.193935
-1.189804
-1.186696
-1.188085
1.773405
1.773240
1.772771
1.771998
1.770917
1.769523
1.767809
1.765766
1.763384
1.760649
1.757545
1.754053
1.750152
1.745816
1.741019
1.735728
1.729908
1.723521
1.716522
1.708863
1.700489
1.691341
1.681352
1.670449
1.658552
1.645570
1.631407
1.615954
1.599094
1.580698
1.560626
1.538725
1.514833
1.488772
1.460356
1.429385
1.395651
1.358940
1.319033
1.275712
1.228765
1.177997
1.123233
1.064336
1.001213
0.933838
0.862261
0.786624
0.707185
0.624321
0.538552
0.450542
0.361108
0.271216
0.181961
0.094537
0.010185
-0.069868
-0.144497
-0.212768
-0.274061
-0.328157
-0.375254
-0.415884
-0.450789
-0.480799
-0.506736
-0.529358
-0.549328
-0.567202
-0.583435
-0.598386
-0.612336
-0.625500
-0.638056
-0.650150
-0.661916
-0.673478
-0.684956
-0.696466
-0.708115
-0.720001
-0.732208
-0.744798
-0.757799
-0.771196
-0.784914
-0.798818
-0.812709
-0.826347
-0.839476
-0.851888
-0.863434
-0.874028
-0.883656
-0.892360
-0.900208
-0.907270
-0.913596
-0.919195
-0.924031
-0.928013
-0.931001
-0.932798
-0.933154
-0.931762
-0.928263
-0.922254
-0.913311
-0.901010
-0.884966
-0.864868
-0.840504
-0.811789
-0.778771
-0.741627
-0.700648
-0.656220
-0.608799
-0.558880
-0.506979
-0.453606
-0.399254
-0.344385
-0.289422
-0.234746
-0.180697
-0.127572
-0.075633
-0.025106
0.023811
0.070943
0.116141
0.159274
0.200233
0.238930
0.275299
0.309204
0.340502
0.369120
0.394957
0.417862
0.437613
0.453921
0.466452
0.474858
0.478816
0.478055
0.472373
0.461651
0.445857
0.425035
0.399303
0.368841
0.333879
0.294685
0.251556
0.204813
0.154788
0.101828
0.046285
-0.011487
-0.071129
-0.132288
-0.194610
-0.257748
-0.321359
-0.385107
-0.448655
-0.511671
-0.573821
-0.634768
-0.694171
-0.751690
-0.806982
-0.859710
-0.909551
-0.956200
-0.999386
-1.038875
-1.074484
-1.106087
-1.133623
-1.157097
-1.176583
-1.192221
-1.204210
-1.212797
-1.218265
-1.220419
-1.219486
-1.216355
-1.211364
-1.204855
-1.197167
-1.188633
-1.179589
-1.170379
-1.161360
-1.152199
1.777029
1.776873
1.776431
1.775701
1.774680
1.773363
1.771742
1.769809
1.767552
1.764959
1.762014
1.758698
1.754991
1.750867
1.746300
1.741259
1.735708
1.729609
1.722918
1.715586
1.707558
1.698776
1.689170
1.678667
1.667183
1.654628
1.640900
1.625886
1.609464
1.591497
1.571839
1.550325
1.526779
1.501010
1.472813
1.441967
1.408239
1.371386
1.331157
1.287297
1.239554
1.187688
1.131480
1.070744
1.005346
0.935218
0.860377
0.780948
0.697181
0.609473
0.518383
0.424650
0.329202
0.233160
0.137825
0.044637
-0.044882
-0.129210
-0.206915
-0.276792
-0.338049
-0.390508
-0.434615
-0.471273
-0.501616
-0.526815
-0.547954
-0.565973
-0.581649
-0.595601
-0.608304
-0.620109
-0.631266
-0.641950
-0.652296
-0.662416
-0.672417
-0.682409
-0.692507
-0.702826
-0.713482
-0.724586
-0.736240
-0.748529
-0.761504
-0.775164
-0.789429
-0.804133
-0.819010
-0.833722
-0.847902
-0.861244
-0.873575
-0.884806
-0.894959
-0.904145
-0.912509
-0.920198
-0.927321
-0.933928
-0.940007
-0.945480
-0.950205
-0.953975
-0.956514
-0.957471
-0.956418
-0.952859
-0.946247
-0.936023
-0.921663
-0.902732
-0.878926
-0.850106
-0.816308
-0.777737
-0.734745
-0.687805
-0.637468
-0.584331
-0.529009
-0.472104
-0.414186
-0.355783
-0.297373
-0.239377
-0.182164
-0.126055
-0.071323
-0.018206
0.033092
0.082394
0.129547
0.174417
0.216898
0.256913
0.294420
0.329325
0.361456
0.390790
0.417272
0.440773
0.461053
0.477765
0.490497
0.498827
0.502379
0.500859
0.494073
0.481935
0.464459
0.441746
0.413973
0.381371
0.344215
0.302810
0.257482
0.208573
0.156435
0.101427
0.043913
-0.015741
-0.077169
-0.140008
-0.203902
-0.268501
-0.333463
-0.398454
-0.463142
-0.527202
-0.590304
-0.652116
-0.712299
-0.770509
-0.826396
-0.879613
-0.929820
-0.976695
-1.019945
-1.059316
-1.094606
-1.125672
-1.152441
-1.174911
-1.193157
-1.207325
-1.217627
-1.224331
-1.227728
-1.228083
-1.224966
-1.219155
-1.211269
-1.201622
-1.190509
-1.178200
-1.164931
-1.150901
-1.136241
-1.117305
1.780938
1.780792
1.780378
1.779694
1.778736
1.777499
1.775977
1.774161
1.772039
1.769599
1.766826
1.763700
1.760203
1.756310
1.751994
1.747224
1.741967
1.736184
1.729830
1.722858
1.715214
1.706835
1.697655
1.687597
1.676578
1.664502
1.651265
1.636751
1.620832
1.603364
1.584190
1.563136
1.540013
1.514612
1.486709
1.456059
1.422403
1.385462
1.344950
1.300567
1.252013
1.198996
1.141239
1.078498
1.010580
0.937364
0.858820
0.775043
0.686267
0.592898
0.495533
0.394985
0.292307
0.188807
0.086037
-0.014243
-0.110152
-0.199779
-0.281275
-0.352979
-0.413779
-0.463570
-0.503249
-0.534344
-0.558579
-0.577586
-0.592762
-0.605232
-0.615872
-0.625339
-0.634101
-0.642470
-0.650629
-0.658682
-0.666696
-0.674730
-0.682856
-0.691167
-0.699772
-0.708790
-0.718347
-0.728570
-0.739588
-0.751525
-0.764474
-0.778468
-0.793442
-0.809197
-0.825387
-0.841534
-0.857094
-0.871573
-0.884783
-0.896630
-0.907207
-0.916732
-0.925474
-0.933686
-0.941558
-0.949192
-0.956601
-0.963719
-0.970406
-0.976450
-0.981558
-0.985339
-0.987296
-0.986817
-0.983198
-0.975697
-0.963596
-0.946288
-0.923341
-0.894540
-0.859910
-0.819701
-0.774351
-0.724447
-0.670672
-0.613757
-0.554440
-0.493434
-0.431405
-0.368959
-0.306631
-0.244886
-0.184126
-0.124690
-0.066863
-0.010890
0.043023
0.094696
0.143970
0.190707
0.234794
0.276155
0.314772
0.350655
0.383551
0.413525
0.440608
0.464719
0.485596
0.502807
0.515825
0.524128
0.527277
0.524963
0.517018
0.503403
0.484196
0.459563
0.429737
0.395000
0.355666
0.312070
0.264562
0.213502
0.159258
0.102204
0.042718
-0.018822
-0.082039
-0.146561
-0.212024
-0.278073
-0.344366
-0.410571
-0.476364
-0.541426
-0.605435
-0.668065
-0.728982
-0.787841
-0.844288
-0.897965
-0.948518
-0.995607
-1.038918
-1.078173
-1.113151
-1.143689
-1.169700
-1.191172
-1.208175
-1.220859
-1.229447
-1.234219
-1.235489
-1.233557
-1.228668
-1.220365
-1.209764
-1.197208
-1.182967
-1.167256
-1.150228
-1.131967
-1.112440
-1.085770
1.785114
1.784978
1.784593
1.783957
1.783066
1.781915
1.780498
1.778806
1.776828
1.774551
1.771961
1.769041
1.765770
1.762125
1.758080
1.753605
1.748666
1.743225
1.737240
1.730661
1.723436
1.715501
1.706790
1.697225
1.686721
1.675180
1.662496
1.648547
1.633200
1.616305
1.597695
1.577185
1.554571
1.529628
1.502109
1.471745
1.438243
1.401292
1.360557
1.315692
1.266339
1.212140
1.152749
1.087848
1.017167
0.940514
0.857796
0.769058
0.674507
0.574544
0.469797
0.361150
0.249789
0.137241
0.025377
-0.083628
-0.187439
-0.283673
-0.369947
-0.443817
-0.503444
-0.548885
-0.581932
-0.605188
-0.621265
-0.632381
-0.640256
-0.646163
-0.651024
-0.655488
-0.659977
-0.664718
-0.669781
-0.675150
-0.680789
-0.686685
-0.692868
-0.699412
-0.706427
-0.714041
-0.722389
-0.731615
-0.741882
-0.753370
-0.766247
-0.780617
-0.796461
-0.813568
-0.831499
-0.849582
-0.867005
-0.882937
-0.897121
-0.909509
-0.920310
-0.929922
-0.938805
-0.947364
-0.955891
-0.964541
-0.973348
-0.982251
-0.991114
-0.999733
-1.007816
-1.014954
-1.020584
-1.023963
-1.024188
-1.020261
-1.011195
-0.996135
-0.974467
-0.945879
-0.910385
-0.868300
-0.820189
-0.766798
-0.708983
-0.647648
-0.583686
-0.517950
-0.451215
-0.384176
-0.317433
-0.251498
-0.186800
-0.123694
-0.062475
-0.003388
0.053362
0.107595
0.159148
0.207872
0.253634
0.296332
0.335942
0.372686
0.406169
0.436588
0.464120
0.488782
0.510297
0.528095
0.541472
0.549768
0.552481
0.549305
0.540116
0.524949
0.503955
0.477369
0.445483
0.408626
0.367146
0.321404
0.271768
0.218614
0.162323
0.103282
0.041881
-0.021486
-0.086431
-0.152568
-0.219525
-0.286943
-0.354478
-0.421801
-0.488596
-0.554550
-0.619355
-0.682692
-0.744236
-0.803643
-0.860559
-0.914618
-0.965454
-1.012708
-1.056046
-1.095170
-1.129835
-1.159858
-1.185135
-1.205641
-1.221439
-1.232678
-1.239587
-1.242457
-1.241626
-1.237434
-1.230203
-1.220024
-1.206837
-1.191597
-1.174547
-1.155863
-1.135646
-1.113915
-1.090569
-1.058723
1.789538
1.789413
1.789058
1.788473
1.787652
1.786592
1.785286
1.783724
1.781899
1.779796
1.777402
1.774700
1.771670
1.768291
1.764536
1.760378
1.755782
1.750711
1.745124
1.738972
1.732202
1.724752
1.716554
1.707530
1.697594
1.686647
1.674579
1.661265
1.646566
1.630324
1.612365
1.592492
1.570486
1.546104
1.519076
1.489104
1.455865
1.419002
1.378136
1.332860
1.282749
1.227368
1.166286
1.099089
1.025412
0.944963
0.857566
0.763194