# vtk DataFile Version 3.0
Scalar Field
ASCII
DATASET RECTILINEAR_GRID
DIMENSIONS 200 75 1
X_COORDINATES 200 double
0.050000 0.150000 0.250000 0.350000 0.450000 0.550000 0.650000 0.750000 0.850000 0.950000 1.050000 1.150000 1.250000 1.350000 1.450000 1.550000 1.650000 1.750000 1.850000 1.950000 2.050000 2.150000 2.250000 2.350000 2.450000 2.550000 2.650000 2.750000 2.850000 2.950000 3.050000 3.150000 3.250000 3.350000 3.450000 3.550000 3.650000 3.750000 3.850000 3.950000 4.050000 4.150000 4.250000 4.350000 4.450000 4.550000 4.650000 4.750000 4.850000 4.950000 5.050000 5.150000 5.250000 5.350000 5.450000 5.550000 5.650000 5.750000 5.850000 5.950000 6.050000 6.150000 6.250000 6.350000 6.450000 6.550000 6.650000 6.750000 6.850000 6.950000 7.050000 7.150000 7.250000 7.350000 7.450000 7.550000 7.650000 7.750000 7.850000 7.950000 8.050000 8.150000 8.250000 8.350000 8.450000 8.550000 8.650000 8.750000 8.850000 8.950000 9.050000 9.150000 9.250000 9.350000 9.450000 9.550000 9.650000 9.750000 9.850000 9.950000 10.050000 10.150000 10.250000 10.350000 10.450000 10.550000 10.650000 10.750000 10.850000 10.950000 11.050000 11.150000 11.250000 11.350000 11.450000 11.550000 11.650000 11.750000 11.850000 11.950000 12.050000 12.150000 12.250000 12.350000 12.450000 12.550000 12.650000 12.750000 12.850000 12.950000 13.050000 13.150000 13.250000 13.350000 13.450000 13.550000 13.650000 13.750000 13.850000 13.950000 14.050000 14.150000 14.250000 14.350000 14.450000 14.550000 14.650000 14.750000 14.850000 14.950000 15.050000 15.150000 15.250000 15.350000 15.450000 15.550000 15.650000 15.750000 15.850000 15.950000 16.050000 16.150000 16.250000 16.350000 16.450000 16.550000 16.650000 16.750000 16.850000 16.950000 17.050000 17.150000 17.250000 17.350000 17.450000 17.550000 17.650000 17.750000 17.850000 17.950000 18.050000 18.150000 18.250000 18.350000 18.450000 18.550000 18.650000 18.750000 18.850000 18.950000 19.050000 19.150000 19.250000 19.350000 19.450000 19.550000 19.650000 19.750000 19.850000 19.950000 
Y_COORDINATES 75 double
0.050000 0.150000 0.250000 0.350000 0.450000 0.550000 0.650000 0.750000 0.850000 0.950000 1.050000 1.150000 1.250000 1.350000 1.450000 1.550000 1.650000 1.750000 1.850000 1.950000 2.050000 2.150000 2.250000 2.350000 2.450000 2.550000 2.650000 2.750000 2.850000 2.950000 3.050000 3.150000 3.250000 3.350000 3.450000 3.550000 3.650000 3.750000 3.850000 3.950000 4.050000 4.150000 4.250000 4.350000 4.450000 4.550000 4.650000 4.750000 4.850000 4.950000 5.050000 5.150000 5.250000 5.350000 5.450000 5.550000 5.650000 5.750000 5.850000 5.950000 6.050000 6.150000 6.250000 6.350000 6.450000 6.550000 6.650000 6.750000 6.850000 6.950000 7.050000 7.150000 7.250000 7.350000 7.450000 
Z_COORDINATES 1 double
0.0
POINT_DATA 15000
SCALARS Skalarfeld double 1
LOOKUP_TABLE default
0.898471
0.897046
0.895823
0.894509
0.892984
0.891192
0.889098
0.886680
0.883915
0.880783
0.877264
0.873337
0.868977
0.864161
0.858861
0.853048
0.846689
0.839749
0.832190
0.823972
0.815050
0.805376
0.794898
0.783562
0.771308
0.758074
0.743793
0.728394
0.711804
0.693944
0.674734
0.654090
0.631925
0.608151
0.582680
0.555421
0.526287
0.495192
0.462054
0.426802
0.389372
0.349715
0.307802
0.263626
0.217208
0.168604
0.117908
0.065253
0.010822
-0.045157
-0.102407
-0.160605
-0.219386
-0.278350
-0.337066
-0.395088
-0.451963
-0.507245
-0.560507
-0.611356
-0.659440
-0.704456
-0.746163
-0.784374
-0.818966
-0.849871
-0.877072
-0.900600
-0.920524
-0.936947
-0.950005
-0.959789
-0.966456
-0.970164
-0.971067
-0.969317
-0.965058
-0.958429
-0.949562
-0.938582
-0.925612
-0.910767
-0.894162
-0.875913
-0.856135
-0.834951
-0.812485
-0.788869
-0.764242
-0.738750
-0.712543
-0.685778
-0.658611
-0.631203
-0.603711
-0.576288
-0.549080
-0.522227
-0.495854
-0.470077
-0.444998
-0.420703
-0.397265
-0.374741
-0.353172
-0.332588
-0.313003
-0.294421
-0.276832
-0.260220
-0.244560
-0.229818
-0.215960
-0.202947
-0.190737
-0.179291
-0.168569
-0.158531
-0.149142
-0.140366
-0.132170
-0.124522
-0.117393
-0.110753
-0.104575
-0.098830
-0.093494
-0.088540
-0.083944
-0.079683
-0.075734
-0.072076
-0.068687
-0.065550
-0.062644
-0.059954
-0.057463
-0.055157
-0.053022
-0.051044
-0.049211
-0.047514
-0.045941
-0.044483
-0.043131
-0.041878
-0.040716
-0.039638
-0.038639
-0.037711
-0.036851
-0.036052
-0.035311
-0.034624
-0.033986
-0.033395
-0.032846
-0.032337
-0.031865
-0.031427
-0.031022
-0.030647
-0.030300
-0.029979
-0.029682
-0.029409
-0.029157
-0.028925
-0.028711
-0.028516
-0.028337
-0.028174
-0.028026
-0.027892
-0.027771
-0.027663
-0.027567
-0.027482
-0.027408
-0.027344
-0.027291
-0.027247
-0.027212
-0.027187
-0.027171
-0.027163
-0.027164
-0.027174
-0.027192
-0.027219
-0.027255
-0.027301
-0.027357
-0.027424
-0.027503
-0.027597
-0.027711
-0.027852
-0.028041
-0.028145
0.897391
0.896843
0.895917
0.894720
0.893252
0.891494
0.889425
0.887027
0.884281
0.881168
0.877667
0.873759
0.869420
0.864626
0.859348
0.853558
0.847224
0.840310
0.832779
0.824588
0.815694
0.806049
0.795600
0.784293
0.772067
0.758861
0.744605
0.729230
0.712661
0.694818
0.675619
0.654981
0.632814
0.609030
0.583537
0.556245
0.527063
0.495904
0.462686
0.427334
0.389784
0.349985
0.307908
0.263545
0.216917
0.168081
0.117130
0.064203
0.009482
-0.046801
-0.104365
-0.162881
-0.221980
-0.281254
-0.340267
-0.398565
-0.455688
-0.511184
-0.564623
-0.615604
-0.663775
-0.708834
-0.750539
-0.788710
-0.823226
-0.854025
-0.881099
-0.904483
-0.924251
-0.940505
-0.953356
-0.962975
-0.969495
-0.973068
-0.973849
-0.971989
-0.967633
-0.960919
-0.951979
-0.940938
-0.927913
-0.913019
-0.896370
-0.878076
-0.858253
-0.837019
-0.814497
-0.790818
-0.766119
-0.740546
-0.714248
-0.687383
-0.660109
-0.632587
-0.604975
-0.577429
-0.550097
-0.523118
-0.496622
-0.470724
-0.445527
-0.421119
-0.397574
-0.374948
-0.353284
-0.332612
-0.312946
-0.294289
-0.276632
-0.259960
-0.244245
-0.229457
-0.215559
-0.202513
-0.190277
-0.178812
-0.168077
-0.158033
-0.148643
-0.139872
-0.131685
-0.124050
-0.116937
-0.110315
-0.104156
-0.098433
-0.093119
-0.088187
-0.083613
-0.079373
-0.075445
-0.071806
-0.068436
-0.065316
-0.062427
-0.059753
-0.057277
-0.054984
-0.052861
-0.050895
-0.049073
-0.047386
-0.045822
-0.044373
-0.043029
-0.041784
-0.040628
-0.039557
-0.038563
-0.037641
-0.036785
-0.035991
-0.035255
-0.034571
-0.033937
-0.033349
-0.032803
-0.032297
-0.031828
-0.031393
-0.030990
-0.030617
-0.030272
-0.029953
-0.029658
-0.029386
-0.029135
-0.028904
-0.028692
-0.028498
-0.028320
-0.028158
-0.028011
-0.027878
-0.027758
-0.027650
-0.027554
-0.027470
-0.027396
-0.027333
-0.027280
-0.027237
-0.027203
-0.027178
-0.027161
-0.027154
-0.027155
-0.027164
-0.027183
-0.027209
-0.027245
-0.027290
-0.027345
-0.027410
-0.027486
-0.027575
-0.027679
-0.027797
-0.027926
-0.028031
0.897332
0.897016
0.896278
0.895199
0.893806
0.892101
0.890074
0.887712
0.885000
0.881921
0.878456
0.874585
0.870286
0.865533
0.860300
0.854557
0.848272
0.841410
0.833933
0.825799
0.816964
0.807379
0.796992
0.785747
0.773585
0.760440
0.746245
0.730927
0.714411
0.696615
0.677456
0.656848
0.634699
0.610917
0.585409
0.558080
0.528836
0.497587
0.464245
0.428733
0.390982
0.350939
0.308572
0.263870
0.216854
0.167580
0.116143
0.062682
0.007387
-0.049506
-0.107707
-0.166879
-0.226640
-0.286568
-0.346213
-0.405106
-0.462771
-0.518743
-0.572578
-0.623867
-0.672252
-0.717429
-0.759160
-0.797271
-0.831651
-0.862253
-0.889078
-0.912178
-0.931640
-0.947578
-0.960128
-0.969446
-0.975678
-0.978984
-0.979523
-0.977449
-0.972907
-0.966036
-0.956964
-0.945813
-0.932697
-0.917727
-0.901008
-0.882647
-0.862754
-0.841441
-0.818828
-0.795041
-0.770215
-0.744493
-0.718026
-0.690971
-0.663488
-0.635739
-0.607888
-0.580092
-0.552502
-0.525262
-0.498503
-0.472345
-0.446894
-0.422238
-0.398453
-0.375598
-0.353717
-0.332840
-0.312982
-0.294148
-0.276330
-0.259510
-0.243665
-0.228763
-0.214768
-0.201643
-0.189345
-0.177834
-0.167070
-0.157012
-0.147621
-0.138861
-0.130695
-0.123090
-0.116012
-0.109431
-0.103316
-0.097638
-0.092369
-0.087483
-0.082954
-0.078758
-0.074871
-0.071272
-0.067939
-0.064855
-0.061999
-0.059355
-0.056907
-0.054641
-0.052543
-0.050599
-0.048799
-0.047131
-0.045586
-0.044153
-0.042825
-0.041594
-0.040452
-0.039393
-0.038410
-0.037499
-0.036653
-0.035869
-0.035141
-0.034465
-0.033838
-0.033256
-0.032717
-0.032217
-0.031753
-0.031323
-0.030924
-0.030556
-0.030214
-0.029899
-0.029608
-0.029339
-0.029091
-0.028863
-0.028653
-0.028461
-0.028286
-0.028126
-0.027980
-0.027848
-0.027730
-0.027624
-0.027529
-0.027446
-0.027373
-0.027311
-0.027259
-0.027216
-0.027183
-0.027158
-0.027142
-0.027135
-0.027136
-0.027146
-0.027164
-0.027190
-0.027225
-0.027269
-0.027322
-0.027384
-0.027456
-0.027538
-0.027630
-0.027730
-0.027832
-0.027932
0.897853
0.897612
0.896977
0.895988
0.894667
0.893021
0.891046
0.888733
0.886069
0.883038
0.879625
0.875808
0.871565
0.866873
0.861705
0.856031
0.849819
0.843035
0.835639
0.827590
0.818844
0.809350
0.799057
0.787907
0.775841
0.762792
0.748691
0.733464
0.717033
0.699316
0.680225
0.659671
0.637559
0.613795
0.588278
0.560909
0.531590
0.500223
0.466716
0.430984
0.392954
0.352566
0.309783
0.264592
0.217009
0.167091
0.114932
0.060677
0.004518
-0.053296
-0.112467
-0.172640
-0.233416
-0.294353
-0.354976
-0.414792
-0.473301
-0.530015
-0.584468
-0.636239
-0.684959
-0.730322
-0.772093
-0.810111
-0.844281
-0.874573
-0.901014
-0.923675
-0.942663
-0.958116
-0.970187
-0.979040
-0.984830
-0.987729
-0.987901
-0.985503
-0.980684
-0.973579
-0.964314
-0.953006
-0.939762
-0.924684
-0.907871
-0.889422
-0.869435
-0.848016
-0.825277
-0.801339
-0.776332
-0.750397
-0.723684
-0.696351
-0.668560
-0.640478
-0.612272
-0.584104
-0.556131
-0.528502
-0.501353
-0.474809
-0.448978
-0.423954
-0.399815
-0.376622
-0.354420
-0.333243
-0.313105
-0.294013
-0.275960
-0.258930
-0.242898
-0.227835
-0.213704
-0.200466
-0.188082
-0.176508
-0.165702
-0.155623
-0.146230
-0.137483
-0.129344
-0.121776
-0.114745
-0.108216
-0.102158
-0.096540
-0.091332
-0.086507
-0.082038
-0.077900
-0.074069
-0.070523
-0.067242
-0.064205
-0.061394
-0.058792
-0.056384
-0.054155
-0.052091
-0.050179
-0.048409
-0.046768
-0.045248
-0.043840
-0.042534
-0.041323
-0.040200
-0.039158
-0.038192
-0.037296
-0.036464
-0.035693
-0.034977
-0.034312
-0.033696
-0.033124
-0.032593
-0.032101
-0.031645
-0.031222
-0.030830
-0.030468
-0.030132
-0.029822
-0.029535
-0.029271
-0.029027
-0.028803
-0.028597
-0.028408
-0.028236
-0.028078
-0.027936
-0.027806
-0.027690
-0.027585
-0.027493
-0.027411
-0.027340
-0.027279
-0.027228
-0.027187
-0.027154
-0.027130
-0.027115
-0.027108
-0.027109
-0.027119
-0.027136
-0.027162
-0.027196
-0.027238
-0.027289
-0.027348
-0.027415
-0.027491
-0.027574
-0.027661
-0.027750
-0.027845
0.898812
0.898603
0.898028
0.897105
0.895849
0.894263
0.892347
0.890091
0.887486
0.884518
0.881170
0.877423
0.873256
0.868644
0.863561
0.857979
0.851864
0.845182
0.837894
0.829959
0.821331
0.811960
0.801793
0.790773
0.778837
0.765918
0.751947
0.736845
0.720534
0.702927
0.683934
0.663462
0.641410
0.617679
0.592162
0.564754
0.535348
0.503840
0.470127
0.434118
0.395731
0.354897
0.311573
0.265738
0.217407
0.166631
0.113508
0.058183
0.000860
-0.058206
-0.118696
-0.180239
-0.242407
-0.304731
-0.366702
-0.427794
-0.487470
-0.545209
-0.600516
-0.652947
-0.702120
-0.747726
-0.789538
-0.827408
-0.861269
-0.891117
-0.917010
-0.939052
-0.957379
-0.972155
-0.983557
-0.991765
-0.996949
-0.999289
-0.998962
-0.996127
-0.990935
-0.983518
-0.974000
-0.962487
-0.949079
-0.933868
-0.916940
-0.898381
-0.878279
-0.856727
-0.833828
-0.809694
-0.784449
-0.758232
-0.731190
-0.703484
-0.675279
-0.646749
-0.618065
-0.589399
-0.560914
-0.532765
-0.505098
-0.478042
-0.451711
-0.426203
-0.401601
-0.377970
-0.355356
-0.333794
-0.313302
-0.293887
-0.275541
-0.258250
-0.241990
-0.226729
-0.212433
-0.199062
-0.186572
-0.174922
-0.164065
-0.153959
-0.144560
-0.135826
-0.127716
-0.120189
-0.113210
-0.106740
-0.100747
-0.095197
-0.090059
-0.085304
-0.080905
-0.076835
-0.073071
-0.069589
-0.066368
-0.063389
-0.060633
-0.058083
-0.055723
-0.053539
-0.051517
-0.049645
-0.047912
-0.046306
-0.044818
-0.043439
-0.042161
-0.040976
-0.039877
-0.038857
-0.037912
-0.037035
-0.036221
-0.035466
-0.034765
-0.034115
-0.033512
-0.032952
-0.032433
-0.031952
-0.031505
-0.031092
-0.030709
-0.030354
-0.030025
-0.029722
-0.029442
-0.029183
-0.028945
-0.028725
-0.028524
-0.028340
-0.028171
-0.028017
-0.027878
-0.027751
-0.027638
-0.027536
-0.027446
-0.027366
-0.027297
-0.027238
-0.027188
-0.027148
-0.027116
-0.027093
-0.027079
-0.027072
-0.027074
-0.027083
-0.027101
-0.027126
-0.027159
-0.027199
-0.027248
-0.027303
-0.027367
-0.027437
-0.027512
-0.027592
-0.027673
-0.027764
0.900151
0.899960
0.899424
0.898554
0.897355
0.895830
0.893976
0.891786
0.889251
0.886357
0.883089
0.879428
0.875353
0.870840
0.865864
0.860395
0.854401
0.847847
0.840695
0.832902
0.824422
0.815206
0.805199
0.794342
0.782572
0.769821
0.756015
0.741077
0.724921
0.707459
0.688598
0.668236
0.646270
0.622592
0.597089
0.569645
0.540146
0.508475
0.474521
0.438180
0.399359
0.357979
0.313986
0.267352
0.218084
0.166231
0.111888
0.055207
-0.003604
-0.064272
-0.126460
-0.189770
-0.253742
-0.317867
-0.381594
-0.444348
-0.505545
-0.564616
-0.621029
-0.674306
-0.724046
-0.769939
-0.811766
-0.849406
-0.882823
-0.912056
-0.937205
-0.958415
-0.975861
-0.989743
-1.000267
-1.007632
-1.012028
-1.013650
-1.012684
-1.009296
-1.003635
-0.995833
-0.986004
-0.974248
-0.960650
-0.945289
-0.928235
-0.909558
-0.889329
-0.867627
-0.844539
-0.820168
-0.794631
-0.768060
-0.740604
-0.712424
-0.683693
-0.654590
-0.625297
-0.595995
-0.566858
-0.538051
-0.509728
-0.482028
-0.455071
-0.428963
-0.403790
-0.379620
-0.356504
-0.334478
-0.313562
-0.293762
-0.275072
-0.257477
-0.240952
-0.225466
-0.210982
-0.197458
-0.184850
-0.173112
-0.162198
-0.152060
-0.142653
-0.133931
-0.125850
-0.118367
-0.111442
-0.105036
-0.099112
-0.093636
-0.088575
-0.083898
-0.079576
-0.075583
-0.071893
-0.068483
-0.065331
-0.062418
-0.059725
-0.057234
-0.054931
-0.052800
-0.050828
-0.049002
-0.047312
-0.045747
-0.044297
-0.042954
-0.041709
-0.040555
-0.039484
-0.038492
-0.037571
-0.036718
-0.035925
-0.035190
-0.034508
-0.033875
-0.033288
-0.032744
-0.032238
-0.031770
-0.031335
-0.030933
-0.030560
-0.030214
-0.029895
-0.029600
-0.029327
-0.029075
-0.028844
-0.028631
-0.028435
-0.028255
-0.028092
-0.027942
-0.027807
-0.027684
-0.027574
-0.027475
-0.027388
-0.027311
-0.027244
-0.027187
-0.027139
-0.027100
-0.027070
-0.027048
-0.027034
-0.027029
-0.027031
-0.027040
-0.027057
-0.027082
-0.027114
-0.027153
-0.027199
-0.027252
-0.027311
-0.027377
-0.027447
-0.027521
-0.027597
-0.027685
0.901839
0.901659
0.901155
0.900328
0.899183
0.897719
0.895931
0.893814
0.891358
0.888551
0.885376
0.881815
0.877850
0.873455
0.868606
0.863273
0.857424
0.851024
0.844035
0.836413
0.828113
0.819084
0.809271
0.798614
0.787047
0.774501
0.760901
0.746164
0.730203
0.712925
0.694230
0.674013
0.652163
0.628563
0.603090
0.575620
0.546025
0.514177
0.479950
0.443227
0.403899
0.361875
0.317086
0.269494
0.219096
0.165934
0.110103
0.051757
-0.008886
-0.071538
-0.135837
-0.201353
-0.267585
-0.333975
-0.399914
-0.464764
-0.527878
-0.588626
-0.646417
-0.700735
-0.751152
-0.797353
-0.839138
-0.876420
-0.909213
-0.937610
-0.961769
-0.981889
-0.998197
-1.010934
-1.020342
-1.026643
-1.030052
-1.030784
-1.029032
-1.024970
-1.018748
-1.010490
-1.000304
-0.988275
-0.974475
-0.958962
-0.941788
-0.923000
-0.902649
-0.880793
-0.857502
-0.832863
-0.806984
-0.779991
-0.752032
-0.723273
-0.693895
-0.664085
-0.634040
-0.603953
-0.574012
-0.544397
-0.515271
-0.486785
-0.459069
-0.432236
-0.406376
-0.381565
-0.357855
-0.335284
-0.313874
-0.293629
-0.274545
-0.256605
-0.239783
-0.224044
-0.209351
-0.195658
-0.182920
-0.171087
-0.160110
-0.149938
-0.140521
-0.131810
-0.123759
-0.116322
-0.109455
-0.103116
-0.097267
-0.091871
-0.086892
-0.082299
-0.078062
-0.074152
-0.070544
-0.067214
-0.064139
-0.061300
-0.058677
-0.056253
-0.054013
-0.051942
-0.050026
-0.048254
-0.046614
-0.045096
-0.043690
-0.042387
-0.041181
-0.040062
-0.039025
-0.038064
-0.037172
-0.036345
-0.035578
-0.034867
-0.034206
-0.033594
-0.033025
-0.032498
-0.032009
-0.031556
-0.031135
-0.030746
-0.030385
-0.030051
-0.029742
-0.029456
-0.029192
-0.028949
-0.028725
-0.028519
-0.028330
-0.028156
-0.027998
-0.027854
-0.027723
-0.027605
-0.027498
-0.027404
-0.027319
-0.027246
-0.027181
-0.027127
-0.027081
-0.027044
-0.027016
-0.026995
-0.026982
-0.026977
-0.026980
-0.026990
-0.027007
-0.027031
-0.027062
-0.027099
-0.027143
-0.027194
-0.027250
-0.027312
-0.027378
-0.027448
-0.027520
-0.027607
0.903853
0.903683
0.903205
0.902419
0.901326
0.899924
0.898207
0.896170
0.893802
0.891092
0.888023
0.884579
0.880740
0.876482
0.871779
0.866604
0.860925
0.854705
0.847906
0.840486
0.832398
0.823590
0.814006
0.803585
0.792261
0.779960
0.766606
0.752112
0.736388
0.719335
0.700848
0.680815
0.659115
0.635624
0.610206
0.582725
0.553039
0.521005
0.486480
0.449329
0.409426
0.366662
0.320951
0.272239
0.220511
0.165800
0.108196
0.047855
-0.014996
-0.080050
-0.146920
-0.215133
-0.284141
-0.353320
-0.421992
-0.489438
-0.554925
-0.617739
-0.677216
-0.732781
-0.783974
-0.830475
-0.872111
-0.908848
-0.940767
-0.968040
-0.990901
-1.009619
-1.024481
-1.035779
-1.043800
-1.048789
-1.050993
-1.050647
-1.047955
-1.043097
-1.036220
-1.027444
-1.016864
-1.004549
-0.990551
-0.974905
-0.957638
-0.938769
-0.918322
-0.896329
-0.872836
-0.847912
-0.821649
-0.794169
-0.765619
-0.736170
-0.706012
-0.675351
-0.644397
-0.613361
-0.582450
-0.551860
-0.521771
-0.492346
-0.463727
-0.436034
-0.409367
-0.383805
-0.359404
-0.336204
-0.314226
-0.293477
-0.273948
-0.255621
-0.238467
-0.222451
-0.207529
-0.193654
-0.180775
-0.168841
-0.157796
-0.147587
-0.138160
-0.129463
-0.121445
-0.114057
-0.107252
-0.100986
-0.095217
-0.089906
-0.085016
-0.080514
-0.076368
-0.072549
-0.069030
-0.065787
-0.062797
-0.060039
-0.057493
-0.055144
-0.052975
-0.050970
-0.049118
-0.047405
-0.045821
-0.044355
-0.042999
-0.041742
-0.040579
-0.039501
-0.038502
-0.037576
-0.036717
-0.035921
-0.035182
-0.034497
-0.033861
-0.033272
-0.032725
-0.032218
-0.031747
-0.031311
-0.030906
-0.030531
-0.030184
-0.029863
-0.029566
-0.029291
-0.029038
-0.028804
-0.028588
-0.028390
-0.028209
-0.028042
-0.027891
-0.027752
-0.027627
-0.027514
-0.027412
-0.027321
-0.027241
-0.027171
-0.027110
-0.027058
-0.027015
-0.026980
-0.026953
-0.026934
-0.026923
-0.026919
-0.026922
-0.026932
-0.026949
-0.026973
-0.027003
-0.027039
-0.027081
-0.027130
-0.027183
-0.027242
-0.027305
-0.027372
-0.027442
-0.027526
0.906176
0.906015
0.905562
0.904816
0.903775
0.902437
0.900796
0.898845
0.896574
0.893972
0.891022
0.887709
0.884013
0.879910
0.875375
0.870381
0.864894
0.858881
0.852301
0.845113
0.837269
0.828716
0.819398
0.809252
0.798210
0.786198
0.773133
0.758927
0.743486
0.726704
0.708471
0.688665
0.667157
0.643811
0.618480
0.591012
0.561249
0.529028
0.494189
0.456573
0.416033
0.372439
0.325681
0.275686
0.222422
0.165908
0.106227
0.043533
-0.021937
-0.089859
-0.159812
-0.231281
-0.303654
-0.376233
-0.448246
-0.518871
-0.587265
-0.652601
-0.714116
-0.771152
-0.823204
-0.869950
-0.911258
-0.947173
-0.977878
-1.003651
-1.024824
-1.041756
-1.054806
-1.064324
-1.070646
-1.074041
-1.074798
-1.073171
-1.069376
-1.063597
-1.055978
-1.046630
-1.035633
-1.023036
-1.008867
-0.993133
-0.975828
-0.956938
-0.936451
-0.914364
-0.890694
-0.865483
-0.838807
-0.810779
-0.781546
-0.751287
-0.720209
-0.688534
-0.656495
-0.624329
-0.592264
-0.560516
-0.529287
-0.498754
-0.469073
-0.440377
-0.412772
-0.386341
-0.361147
-0.337228
-0.314607
-0.293288
-0.273262
-0.254506
-0.236988
-0.220667
-0.205498
-0.191427
-0.178399
-0.166357
-0.155243
-0.144998
-0.135563
-0.126883
-0.118902
-0.111568
-0.104830
-0.098643
-0.092960
-0.087742
-0.082949
-0.078545
-0.074498
-0.070777
-0.067356
-0.064207
-0.061309
-0.058639
-0.056179
-0.053911
-0.051819
-0.049888
-0.048105
-0.046458
-0.044936
-0.043529
-0.042227
-0.041022
-0.039906
-0.038873
-0.037916
-0.037029
-0.036207
-0.035445
-0.034739
-0.034083
-0.033475
-0.032911
-0.032388
-0.031903
-0.031453
-0.031036
-0.030649
-0.030291
-0.029960
-0.029653
-0.029369
-0.029106
-0.028864
-0.028641
-0.028435
-0.028246
-0.028073
-0.027915
-0.027770
-0.027638
-0.027519
-0.027411
-0.027315
-0.027229
-0.027153
-0.027086
-0.027029
-0.026980
-0.026940
-0.026907
-0.026883
-0.026866
-0.026856
-0.026853
-0.026857
-0.026868
-0.026885
-0.026908
-0.026937
-0.026973
-0.027014
-0.027060
-0.027112
-0.027168
-0.027229
-0.027293
-0.027361
-0.027443
0.908791
0.908639
0.908211
0.907504
0.906517
0.905246
0.903686
0.901828
0.899664
0.897180
0.894363
0.891195
0.887658
0.883728
0.879382
0.874590
0.869321
0.863540
0.857209
0.850283
0.842716
0.834454
0.825440
0.815609
0.804892
0.793211
0.780483
0.766614
0.751505
0.735045
0.717116
0.697588
0.676321
0.653166
0.627962
0.600540
0.570723
0.538326
0.503166
0.465058
0.423829
0.379320
0.331395
0.279955
0.224943
0.166360
0.104276
0.038841
-0.029703
-0.101012
-0.174632
-0.249996
-0.326420
-0.403113
-0.479188
-0.553691
-0.625632
-0.694038
-0.758003
-0.816756
-0.869726
-0.916589
-0.957285
-0.991979
-1.021001
-1.044776
-1.063770
-1.078447
-1.089248
-1.096588
-1.100852
-1.102339
-1.101383
-1.098255
-1.093185
-1.086358
-1.077915
-1.067955
-1.056537
-1.043687
-1.029402
-1.013656
-0.996404
-0.977591
-0.957158
-0.935057
-0.911264
-0.885789
-0.858685
-0.830053
-0.800042
-0.768844
-0.736685
-0.703814
-0.670494
-0.636991
-0.603562
-0.570452
-0.537884
-0.506057
-0.475142
-0.445284
-0.416598
-0.389174
-0.363075
-0.338344
-0.315000
-0.293045
-0.272466
-0.253238
-0.235322
-0.218672
-0.203236
-0.188956
-0.175772
-0.163620
-0.152435
-0.142155
-0.132716
-0.124058
-0.116120
-0.108847
-0.102185
-0.096084
-0.090496
-0.085378
-0.080690
-0.076393
-0.072453
-0.068839
-0.065523
-0.062477
-0.059678
-0.057105
-0.054738
-0.052558
-0.050551
-0.048700
-0.046993
-0.045418
-0.043964
-0.042620
-0.041378
-0.040229
-0.039167
-0.038183
-0.037272
-0.036428
-0.035646
-0.034922
-0.034250
-0.033627
-0.033049
-0.032514
-0.032017
-0.031556
-0.031129
-0.030733
-0.030366
-0.030026
-0.029712
-0.029420
-0.029151
-0.028902
-0.028673
-0.028461
-0.028266
-0.028087
-0.027923
-0.027773
-0.027636
-0.027512
-0.027400
-0.027298
-0.027207
-0.027126
-0.027055
-0.026993
-0.026939
-0.026894
-0.026857
-0.026827
-0.026805
-0.026790
-0.026782
-0.026780
-0.026785
-0.026797
-0.026814
-0.026837
-0.026866
-0.026901
-0.026941
-0.026986
-0.027036
-0.027090
-0.027149
-0.027211
-0.027277
-0.027357
0.911683
0.911540
0.911136
0.910471
0.909540
0.908341
0.906866
0.905109
0.903059
0.900705
0.898032
0.895024
0.891662
0.887924
0.883786
0.879218
0.874191
0.868670
0.862615
0.855983
0.848727
0.840792
0.832120
0.822647
0.812299
0.800998
0.788655
0.775175
0.760453
0.744371
0.726803
0.707609
0.686640
0.663731
0.638705
0.611374
0.581538
0.548989
0.513514
0.474901
0.432941
0.387443
0.338238
0.285191
0.228215
0.167284
0.102449
0.033850
-0.038272
-0.113553
-0.191507
-0.271507
-0.352787
-0.434444
-0.515450
-0.594679
-0.670954
-0.743100
-0.810017
-0.870764
-0.924667
-0.971410
-1.011046
-1.043934
-1.070625
-1.091752
-1.107948
-1.119803
-1.127844
-1.132547
-1.134342
-1.133572
-1.130612
-1.125749
-1.119224
-1.111225
-1.101886
-1.091288
-1.079468
-1.066420
-1.052110
-1.036470
-1.019409
-1.000820
-0.980586
-0.958599
-0.934781
-0.909095
-0.881566
-0.852281
-0.821393
-0.789110
-0.755688
-0.721411
-0.686582
-0.651504
-0.616474
-0.581769
-0.547640
-0.514309
-0.481969
-0.450775
-0.420853
-0.392299
-0.365179
-0.339534
-0.315383
-0.292723
-0.271536
-0.251791
-0.233442
-0.216438
-0.200719
-0.186219
-0.172872
-0.160607
-0.149354
-0.139043
-0.129606
-0.120976
-0.113090
-0.105887
-0.099310
-0.093305
-0.087822
-0.082815
-0.078240
-0.074059
-0.070236
-0.066738
-0.063536
-0.060601
-0.057911
-0.055442
-0.053174
-0.051091
-0.049175
-0.047411
-0.045786
-0.044289
-0.042908
-0.041633
-0.040456
-0.039368
-0.038363
-0.037432
-0.036571
-0.035774
-0.035036
-0.034352
-0.033718
-0.033131
-0.032586
-0.032081
-0.031613
-0.031179
-0.030776
-0.030404
-0.030058
-0.029738
-0.029441
-0.029167
-0.028914
-0.028680
-0.028464
-0.028265
-0.028082
-0.027914
-0.027760
-0.027619
-0.027491
-0.027375
-0.027269
-0.027175
-0.027090
-0.027015
-0.026948
-0.026891
-0.026842
-0.026800
-0.026766
-0.026740
-0.026720
-0.026708
-0.026701
-0.026701
-0.026708
-0.026720
-0.026738
-0.026761
-0.026790
-0.026824
-0.026863
-0.026907
-0.026955
-0.027008
-0.027064
-0.027125
-0.027189
-0.027268
0.914834
0.914701
0.914323
0.913700
0.912829
0.911705
0.910321
0.908671
0.906745
0.904531
0.902015
0.899181
0.896011
0.892482
0.888571
0.884251
0.879490
0.874254
0.868505
0.862199
0.855287
0.847717
0.839428
0.830355
0.820423
0.809550
0.797647
0.784611
0.770334
0.754691
0.737548
0.718755
0.698149
0.675550
0.650764
0.623581
0.593777
0.561114
0.525349
0.486232
0.443517
0.396970
0.346380
0.291570
0.232411
0.168843
0.100884
0.028656
-0.047602
-0.127519
-0.210571
-0.296072
-0.383163
-0.470807
-0.557799
-0.642801
-0.724387
-0.801117
-0.871613
-0.934677
-0.989461
-1.035661
-1.073533
-1.103756
-1.127218
-1.144842
-1.157473
-1.165835
-1.170533
-1.172084
-1.170951
-1.167552
-1.162275
-1.155426
-1.147259
-1.137967
-1.127673
-1.116437
-1.104263
-1.091111
-1.076907
-1.061540
-1.044867
-1.026716
-1.006894
-0.985216
-0.961525
-0.935726
-0.907801
-0.877822
-0.845948
-0.812414
-0.777516
-0.741587
-0.704981
-0.668054
-0.631147
-0.594580
-0.558637
-0.523570
-0.489589
-0.456868
-0.425542
-0.395711
-0.367443
-0.340778
-0.315730
-0.292293
-0.270441
-0.250134
-0.231320
-0.213937
-0.197918
-0.183190
-0.169676
-0.157299
-0.145981
-0.135646
-0.126219
-0.117627
-0.109803
-0.102682
-0.096200
-0.090303
-0.084935
-0.080049
-0.075600
-0.071546
-0.067849
-0.064477
-0.061398
-0.058583
-0.056009
-0.053653
-0.051494
-0.049513
-0.047695
-0.046025
-0.044489
-0.043075
-0.041773
-0.040572
-0.039465
-0.038442
-0.037498
-0.036625
-0.035818
-0.035071
-0.034380
-0.033740
-0.033147
-0.032597
-0.032088
-0.031616
-0.031178
-0.030773
-0.030397
-0.030049
-0.029726
-0.029427
-0.029151
-0.028895
-0.028658
-0.028440
-0.028239
-0.028054
-0.027883
-0.027727
-0.027584
-0.027453
-0.027334
-0.027226
-0.027129
-0.027041
-0.026963
-0.026894
-0.026833
-0.026781
-0.026736
-0.026699
-0.026669
-0.026646
-0.026629
-0.026619
-0.026615
-0.026616
-0.026624
-0.026637
-0.026655
-0.026679
-0.026708
-0.026742
-0.026780
-0.026823
-0.026870
-0.026921
-0.026976
-0.027035
-0.027098
-0.027175
0.918229
0.918105
0.917754
0.917176
0.916367
0.915323
0.914036
0.912501
0.910707
0.908643
0.906296
0.903650
0.900686
0.897385
0.893721
0.889669
0.885199
0.880275
0.874861
0.868912
0.862380
0.855212
0.847348
0.838719
0.829251
0.818859
0.807450
0.794919
0.781150
0.766014
0.749366
0.731047
0.710880
0.688668
0.664198
0.637236
0.607530
0.574811
0.538797
0.499198
0.455722
0.408085
0.356022
0.299302
0.237744
0.171236
0.099756
0.023394
-0.057626
-0.142928
-0.231960
-0.323977
-0.418015
-0.512882
-0.607157
-0.699225
-0.787347
-0.869733
-0.944627
-1.010406
-1.065896
-1.110815
-1.145802
-1.172083
-1.191071
-1.204089
-1.212229
-1.216339
-1.217060
-1.214911
-1.210366
-1.203957
-1.196034
-1.186931
-1.176930
-1.166235
-1.154954
-1.143111
-1.130670
-1.117548
-1.103630
-1.088764
-1.072751
-1.055339
-1.036239
-1.015156
-0.991828
-0.966073
-0.937817
-0.907113
-0.874133
-0.839153
-0.802525
-0.764651
-0.725953
-0.686852
-0.647748
-0.609011
-0.570967
-0.533898
-0.498039
-0.463579
-0.430663
-0.399395
-0.369845
-0.342047
-0.316011
-0.291722
-0.269146
-0.248233
-0.228921
-0.211138
-0.194806
-0.179841
-0.166159
-0.153673
-0.142296
-0.131946
-0.122540
-0.113999
-0.106250
-0.099222
-0.092851
-0.087073
-0.081835
-0.077083
-0.072770
-0.068854
-0.065296
-0.062059
-0.059113
-0.056429
-0.053980
-0.051744
-0.049700
-0.047831
-0.046118
-0.044547
-0.043106
-0.041781
-0.040563
-0.039442
-0.038409
-0.037456
-0.036577
-0.035766
-0.035016
-0.034322
-0.033681
-0.033087
-0.032538
-0.032029
-0.031557
-0.031120
-0.030715
-0.030340
-0.029992
-0.029670
-0.029372
-0.029096
-0.028840
-0.028604
-0.028386
-0.028185
-0.027999
-0.027828
-0.027671
-0.027527
-0.027396
-0.027275
-0.027166
-0.027067
-0.026978
-0.026899
-0.026828
-0.026765
-0.026710
-0.026663
-0.026624
-0.026591
-0.026565
-0.026545
-0.026531
-0.026524
-0.026522
-0.026526
-0.026535
-0.026549
-0.026568
-0.026592
-0.026621
-0.026655
-0.026693
-0.026735
-0.026781
-0.026831
-0.026885
-0.026942
-0.027003
-0.027078
0.921848
0.921734
0.921413
0.920882
0.920138
0.919178
0.917994
0.916580
0.914927
0.913024
0.910857
0.908411
0.905670
0.902612
0.899216
0.895454
0.891297
0.886713
0.881661
0.876102
0.869985
0.863258
0.855859
0.847721
0.838766
0.828910
0.818054
0.806091
0.792900
0.778343
0.762269
0.744506
0.724862
0.703126
0.679062
0.652410
0.622888
0.590191
0.553995
0.513962
0.469745
0.421000
0.367398
0.308637
0.244468
0.174712
0.099288
0.018241
-0.068237
-0.159775
-0.255804
-0.355522
-0.457861
-0.561444
-0.664583
-0.765303
-0.861466
-0.950867
-1.031270
-1.100323
-1.156126
-1.198466
-1.228753
-1.249187
-1.261996
-1.269022
-1.271616
-1.270680
-1.266802
-1.260404
-1.252054
-1.242250
-1.231332
-1.219688
-1.207662
-1.195475
-1.183212
-1.170845
-1.158273
-1.145364
-1.131969
-1.117902
-1.102912
-1.086661
-1.068728
-1.048663
-1.026051
-1.000584
-0.972113
-0.940669
-0.906449
-0.869790
-0.831127
-0.790955
-0.749787
-0.708129
-0.666455
-0.625193
-0.584719
-0.545351
-0.507348
-0.470916
-0.436209
-0.403334
-0.372356
-0.343307
-0.316187
-0.290971
-0.267613
-0.246051
-0.226210
-0.208006
-0.191349
-0.176145
-0.162296
-0.149707
-0.138282
-0.127928
-0.118556
-0.110081
-0.102422
-0.095504
-0.089257
-0.083616
-0.078520
-0.073916
-0.069754
-0.065989
-0.062579
-0.059490
-0.056687
-0.054142
-0.051828
-0.049721
-0.047801
-0.046049
-0.044448
-0.042984
-0.041643
-0.040413
-0.039284
-0.038247
-0.037293
-0.036414
-0.035604
-0.034857
-0.034168
-0.033531
-0.032943
-0.032398
-0.031894
-0.031428
-0.030996
-0.030596
-0.030226
-0.029883
-0.029565
-0.029270
-0.028998
-0.028746
-0.028512
-0.028297
-0.028098
-0.027914
-0.027745
-0.027589
-0.027447
-0.027316
-0.027196
-0.027087
-0.026989
-0.026899
-0.026819
-0.026748
-0.026684
-0.026628
-0.026580
-0.026539
-0.026504
-0.026476
-0.026454
-0.026438
-0.026428
-0.026423
-0.026424
-0.026429