# vtk DataFile Version 3.0
Vector Field
ASCII
DATASET RECTILINEAR_GRID
DIMENSIONS 200 75 1
X_COORDINATES 200 double
0.050000 0.150000 0.250000 0.350000 0.450000 0.550000 0.650000 0.750000 0.850000 0.950000 1.050000 1.150000 1.250000 1.350000 1.450000 1.550000 1.650000 1.750000 1.850000 1.950000 2.050000 2.150000 2.250000 2.350000 2.450000 2.550000 2.650000 2.750000 2.850000 2.950000 3.050000 3.150000 3.250000 3.350000 3.450000 3.550000 3.650000 3.750000 3.850000 3.950000 4.050000 4.150000 4.250000 4.350000 4.450000 4.550000 4.650000 4.750000 4.850000 4.950000 5.050000 5.150000 5.250000 5.350000 5.450000 5.550000 5.650000 5.750000 5.850000 5.950000 6.050000 6.150000 6.250000 6.350000 6.450000 6.550000 6.650000 6.750000 6.850000 6.950000 7.050000 7.150000 7.250000 7.350000 7.450000 7.550000 7.650000 7.750000 7.850000 7.950000 8.050000 8.150000 8.250000 8.350000 8.450000 8.550000 8.650000 8.750000 8.850000 8.950000 9.050000 9.150000 9.250000 9.350000 9.450000 9.550000 9.650000 9.750000 9.850000 9.950000 10.050000 10.150000 10.250000 10.350000 10.450000 10.550000 10.650000 10.750000 10.850000 10.950000 11.050000 11.150000 11.250000 11.350000 11.450000 11.550000 11.650000 11.750000 11.850000 11.950000 12.050000 12.150000 12.250000 12.350000 12.450000 12.550000 12.650000 12.750000 12.850000 12.950000 13.050000 13.150000 13.250000 13.350000 13.450000 13.550000 13.650000 13.750000 13.850000 13.950000 14.050000 14.150000 14.250000 14.350000 14.450000 14.550000 14.650000 14.750000 14.850000 14.950000 15.050000 15.150000 15.250000 15.350000 15.450000 15.550000 15.650000 15.750000 15.850000 15.950000 16.050000 16.150000 16.250000 16.350000 16.450000 16.550000 16.650000 16.750000 16.850000 16.950000 17.050000 17.150000 17.250000 17.350000 17.450000 17.550000 17.650000 17.750000 17.850000 17.950000 18.050000 18.150000 18.250000 18.350000 18.450000 18.550000 18.650000 18.750000 18.850000 18.950000 19.050000 19.150000 19.250000 19.350000 19.450000 19.550000 19.650000 19.750000 19.850000 19.950000 
Y_COORDINATES 75 double
0.050000 0.150000 0.250000 0.350000 0.450000 0.550000 0.650000 0.750000 0.850000 0.950000 1.050000 1.150000 1.250000 1.350000 1.450000 1.550000 1.650000 1.750000 1.850000 1.950000 2.050000 2.150000 2.250000 2.350000 2.450000 2.550000 2.650000 2.750000 2.850000 2.950000 3.050000 3.150000 3.250000 3.350000 3.450000 3.550000 3.650000 3.750000 3.850000 3.950000 4.050000 4.150000 4.250000 4.350000 4.450000 4.550000 4.650000 4.750000 4.850000 4.950000 5.050000 5.150000 5.250000 5.350000 5.450000 5.550000 5.650000 5.750000 5.850000 5.950000 6.050000 6.150000 6.250000 6.350000 6.450000 6.550000 6.650000 6.750000 6.850000 6.950000 7.050000 7.150000 7.250000 7.350000 7.450000 
Z_COORDINATES 1 double
0.0
POINT_DATA 15000
VECTORS Vektorfeld double
0.999722 0.000278 0.0
0.999065 0.000379 0.0
0.998359 0.000328 0.0
0.997816 0.000215 0.0
0.997526 0.000074 0.0
0.997539 -0.000086 0.0
0.997884 -0.000259 0.0
0.998586 -0.000443 0.0
0.999665 -0.000637 0.0
1.001143 -0.000841 0.0
1.003040 -0.001056 0.0
1.005376 -0.001281 0.0
1.008175 -0.001518 0.0
1.011459 -0.001767 0.0
1.015255 -0.002029 0.0
1.019588 -0.002304 0.0
1.024487 -0.002595 0.0
1.029982 -0.002900 0.0
1.036105 -0.003222 0.0
1.042888 -0.003561 0.0
1.050366 -0.003917 0.0
1.058576 -0.004292 0.0
1.067554 -0.004686 0.0
1.077340 -0.005099 0.0
1.087971 -0.005532 0.0
1.099489 -0.005985 0.0
1.111933 -0.006459 0.0
1.125344 -0.006952 0.0
1.139759 -0.007464 0.0
1.155218 -0.007995 0.0
1.171758 -0.008544 0.0
1.189411 -0.009109 0.0
1.208208 -0.009688 0.0
1.228176 -0.010280 0.0
1.249337 -0.010881 0.0
1.271706 -0.011488 0.0
1.295291 -0.012097 0.0
1.320091 -0.012704 0.0
1.346098 -0.013303 0.0
1.373290 -0.013889 0.0
1.401634 -0.014456 0.0
1.431086 -0.014996 0.0
1.461583 -0.015502 0.0
1.493052 -0.015967 0.0
1.525401 -0.016382 0.0
1.558521 -0.016739 0.0
1.592289 -0.017029 0.0
1.626564 -0.017247 0.0
1.661194 -0.017383 0.0
1.696009 -0.017432 0.0
1.730832 -0.017390 0.0
1.765475 -0.017253 0.0
1.799748 -0.017020 0.0
1.833458 -0.016691 0.0
1.866418 -0.016269 0.0
1.898449 -0.015761 0.0
1.929384 -0.015174 0.0
1.959074 -0.014517 0.0
1.987392 -0.013802 0.0
2.014236 -0.013042 0.0
2.039529 -0.012251 0.0
2.063220 -0.011441 0.0
2.085289 -0.010627 0.0
2.105738 -0.009821 0.0
2.124593 -0.009033 0.0
2.141899 -0.008273 0.0
2.157719 -0.007547 0.0
2.172128 -0.006862 0.0
2.185210 -0.006220 0.0
2.197053 -0.005624 0.0
2.207752 -0.005074 0.0
2.217397 -0.004571 0.0
2.226083 -0.004114 0.0
2.233896 -0.003700 0.0
2.240923 -0.003327 0.0
2.247245 -0.002994 0.0
2.252936 -0.002697 0.0
2.258067 -0.002433 0.0
2.262700 -0.002200 0.0
2.266891 -0.001992 0.0
2.270688 -0.001805 0.0
2.274128 -0.001635 0.0
2.277236 -0.001474 0.0
2.280026 -0.001316 0.0
2.282493 -0.001152 0.0
2.284620 -0.000975 0.0
2.286369 -0.000774 0.0
2.287686 -0.000542 0.0
2.288499 -0.000271 0.0
2.288729 0.000041 0.0
2.288283 0.000405 0.0
2.287048 0.000830 0.0
2.284898 0.001320 0.0
2.281698 0.001880 0.0
2.277307 0.002511 0.0
2.271583 0.003213 0.0
2.264385 0.003984 0.0
2.255579 0.004821 0.0
2.245038 0.005719 0.0
2.232647 0.006672 0.0
2.218305 0.007671 0.0
2.201926 0.008708 0.0
2.183443 0.009774 0.0
2.162810 0.010859 0.0
2.140000 0.011951 0.0
2.115010 0.013039 0.0
2.087859 0.014112 0.0
2.058587 0.015159 0.0
2.027260 0.016168 0.0
1.993963 0.017129 0.0
1.958804 0.018030 0.0
1.921910 0.018864 0.0
1.883427 0.019620 0.0
1.843517 0.020291 0.0
1.802355 0.020871 0.0
1.760130 0.021355 0.0
1.717037 0.021738 0.0
1.673278 0.022020 0.0
1.629057 0.022200 0.0
1.584578 0.022279 0.0
1.540039 0.022260 0.0
1.495633 0.022146 0.0
1.451541 0.021945 0.0
1.407933 0.021663 0.0
1.364962 0.021307 0.0
1.322771 0.020884 0.0
1.281485 0.020402 0.0
1.241216 0.019866 0.0
1.202068 0.019282 0.0
1.164133 0.018653 0.0
1.127498 0.017982 0.0
1.092247 0.017269 0.0
1.058461 0.016517 0.0
1.026217 0.015727 0.0
0.995589 0.014900 0.0
0.966648 0.014041 0.0
0.939454 0.013152 0.0
0.914061 0.012240 0.0
0.890510 0.011311 0.0
0.868829 0.010370 0.0
0.849036 0.009424 0.0
0.831133 0.008479 0.0
0.815114 0.007540 0.0
0.800961 0.006613 0.0
0.788646 0.005702 0.0
0.778132 0.004812 0.0
0.769372 0.003948 0.0
0.762310 0.003114 0.0
0.756880 0.002315 0.0
0.753017 0.001548 0.0
0.750678 0.000791 0.0
0.749874 0.000012 0.0
0.750560 -0.000698 0.0
0.752547 -0.001289 0.0
0.755591 -0.001755 0.0
0.759449 -0.002103 0.0
0.763898 -0.002346 0.0
0.768746 -0.002501 0.0
0.773830 -0.002583 0.0
0.779019 -0.002605 0.0
0.784205 -0.002581 0.0
0.789305 -0.002520 0.0
0.794258 -0.002432 0.0
0.799015 -0.002326 0.0
0.803547 -0.002206 0.0
0.807830 -0.002078 0.0
0.811855 -0.001947 0.0
0.815616 -0.001815 0.0
0.819116 -0.001685 0.0
0.822360 -0.001559 0.0
0.825358 -0.001439 0.0
0.828121 -0.001324 0.0
0.830662 -0.001217 0.0
0.832997 -0.001117 0.0
0.835139 -0.001025 0.0
0.837103 -0.000939 0.0
0.838904 -0.000861 0.0
0.840554 -0.000790 0.0
0.842068 -0.000724 0.0
0.843458 -0.000665 0.0
0.844734 -0.000611 0.0
0.845909 -0.000563 0.0
0.846991 -0.000519 0.0
0.847989 -0.000479 0.0
0.848912 -0.000444 0.0
0.849768 -0.000412 0.0
0.850562 -0.000383 0.0
0.851301 -0.000357 0.0
0.851991 -0.000333 0.0
0.852636 -0.000312 0.0
0.853241 -0.000293 0.0
0.853811 -0.000276 0.0
0.854348 -0.000261 0.0
0.854857 -0.000247 0.0
0.855340 -0.000235 0.0
0.855799 -0.000225 0.0
0.856240 -0.000216 0.0
0.856667 -0.000211 0.0
0.857099 -0.000221 0.0
0.857526 -0.000206 0.0
1.000267 0.000289 0.0
1.000996 0.000295 0.0
1.002062 0.000052 0.0
1.003409 -0.000312 0.0
1.005044 -0.000745 0.0
1.006987 -0.001223 0.0
1.009256 -0.001736 0.0
1.011866 -0.002278 0.0
1.014834 -0.002849 0.0
1.018177 -0.003449 0.0
1.021911 -0.004078 0.0
1.026054 -0.004738 0.0
1.030626 -0.005430 0.0
1.035645 -0.006158 0.0
1.041134 -0.006922 0.0
1.047116 -0.007726 0.0
1.053616 -0.008572 0.0
1.060660 -0.009462 0.0
1.068276 -0.010399 0.0
1.076495 -0.011385 0.0
1.085346 -0.012423 0.0
1.094865 -0.013515 0.0
1.105084 -0.014661 0.0
1.116040 -0.015865 0.0
1.127770 -0.017128 0.0
1.140311 -0.018449 0.0
1.153703 -0.019831 0.0
1.167984 -0.021271 0.0
1.183194 -0.022770 0.0
1.199371 -0.024325 0.0
1.216552 -0.025934 0.0
1.234774 -0.027593 0.0
1.254068 -0.029296 0.0
1.274466 -0.031038 0.0
1.295993 -0.032810 0.0
1.318669 -0.034603 0.0
1.342508 -0.036405 0.0
1.367516 -0.038204 0.0
1.393690 -0.039984 0.0
1.421018 -0.041728 0.0
1.449474 -0.043417 0.0
1.479020 -0.045032 0.0
1.509605 -0.046549 0.0
1.541162 -0.047945 0.0
1.573606 -0.049196 0.0
1.606839 -0.050277 0.0
1.640744 -0.051163 0.0
1.675187 -0.051832 0.0
1.710020 -0.052260 0.0
1.745081 -0.052431 0.0
1.780194 -0.052328 0.0
1.815176 -0.051941 0.0
1.849837 -0.051266 0.0
1.883988 -0.050305 0.0
1.917440 -0.049067 0.0
1.950014 -0.047568 0.0
1.981542 -0.045830 0.0
2.011874 -0.043883 0.0
2.040882 -0.041762 0.0
2.068463 -0.039506 0.0
2.094539 -0.037155 0.0
2.119062 -0.034751 0.0
2.142008 -0.032333 0.0
2.163383 -0.029939 0.0
2.183212 -0.027600 0.0
2.201543 -0.025344 0.0
2.218438 -0.023192 0.0
2.233973 -0.021161 0.0
2.248231 -0.019260 0.0
2.261301 -0.017497 0.0
2.273275 -0.015873 0.0
2.284244 -0.014387 0.0
2.294298 -0.013037 0.0
2.303523 -0.011816 0.0
2.312002 -0.010718 0.0
2.319814 -0.009737 0.0
2.327033 -0.008864 0.0
2.333725 -0.008090 0.0
2.339952 -0.007404 0.0
2.345770 -0.006797 0.0
2.351226 -0.006253 0.0
2.356358 -0.005758 0.0
2.361194 -0.005294 0.0
2.365747 -0.004838 0.0
2.370020 -0.004369 0.0
2.373997 -0.003861 0.0
2.377647 -0.003287 0.0
2.380920 -0.002620 0.0
2.383747 -0.001835 0.0
2.386034 -0.000911 0.0
2.387662 0.000175 0.0
2.388511 0.001446 0.0
2.388448 0.002916 0.0
2.387335 0.004597 0.0
2.385029 0.006492 0.0
2.381386 0.008601 0.0
2.376261 0.010919 0.0
2.369519 0.013435 0.0
2.361031 0.016135 0.0
2.350680 0.018998 0.0
2.338363 0.022003 0.0
2.323994 0.025123 0.0
2.307506 0.028330 0.0
2.288851 0.031592 0.0
2.268002 0.034876 0.0
2.244956 0.038150 0.0
2.219731 0.041378 0.0
2.192369 0.044527 0.0
2.162935 0.047562 0.0
2.131515 0.050452 0.0
2.098216 0.053165 0.0
2.063168 0.055672 0.0
2.026515 0.057947 0.0
1.988420 0.059968 0.0
1.949060 0.061715 0.0
1.908623 0.063173 0.0
1.867304 0.064331 0.0
1.825307 0.065184 0.0
1.782836 0.065729 0.0
1.740095 0.065970 0.0
1.697285 0.065917 0.0
1.654599 0.065581 0.0
1.612221 0.064981 0.0
1.570323 0.064135 0.0
1.529064 0.063065 0.0
1.488588 0.061794 0.0
1.449024 0.060343 0.0
1.410489 0.058730 0.0
1.373083 0.056972 0.0
1.336899 0.055082 0.0
1.302019 0.053067 0.0
1.268518 0.050936 0.0
1.236463 0.048692 0.0
1.205919 0.046341 0.0
1.176943 0.043890 0.0
1.149586 0.041349 0.0
1.123896 0.038729 0.0
1.099909 0.036044 0.0
1.077655 0.033312 0.0
1.057154 0.030550 0.0
1.038415 0.027777 0.0
1.021435 0.025008 0.0
1.006203 0.022262 0.0
0.992695 0.019552 0.0
0.980878 0.016895 0.0
0.970705 0.014306 0.0
0.962122 0.011798 0.0
0.955062 0.009387 0.0
0.949450 0.007085 0.0
0.945194 0.004897 0.0
0.942163 0.002813 0.0
0.940137 0.000819 0.0
0.938948 -0.001002 0.0
0.938528 -0.002552 0.0
0.938795 -0.003804 0.0
0.939660 -0.004777 0.0
0.941035 -0.005496 0.0
0.942831 -0.005995 0.0
0.944963 -0.006306 0.0
0.947352 -0.006460 0.0
0.949926 -0.006486 0.0
0.952620 -0.006409 0.0
0.955377 -0.006252 0.0
0.958148 -0.006034 0.0
0.960892 -0.005772 0.0
0.963575 -0.005479 0.0
0.966170 -0.005166 0.0
0.968656 -0.004843 0.0
0.971017 -0.004518 0.0
0.973243 -0.004196 0.0
0.975328 -0.003883 0.0
0.977267 -0.003582 0.0
0.979062 -0.003296 0.0
0.980715 -0.003026 0.0
0.982231 -0.002774 0.0
0.983616 -0.002539 0.0
0.984877 -0.002323 0.0
0.986023 -0.002124 0.0
0.987062 -0.001943 0.0
0.988003 -0.001778 0.0
0.988855 -0.001628 0.0
0.989626 -0.001493 0.0
0.990326 -0.001371 0.0
0.990960 -0.001261 0.0
0.991538 -0.001163 0.0
0.992064 -0.001075 0.0
0.992546 -0.000996 0.0
0.992989 -0.000926 0.0
0.993398 -0.000863 0.0
0.993778 -0.000807 0.0
0.994132 -0.000757 0.0
0.994463 -0.000713 0.0
0.994776 -0.000674 0.0
0.995072 -0.000639 0.0
0.995353 -0.000608 0.0
0.995622 -0.000580 0.0
0.995878 -0.000557 0.0
0.996118 -0.000538 0.0
0.996326 -0.000534 0.0
0.996476 -0.000469 0.0
1.000150 -0.000128 0.0
1.000671 -0.000538 0.0
1.001588 -0.001098 0.0
1.002845 -0.001765 0.0
1.004426 -0.002508 0.0
1.006333 -0.003309 0.0
1.008575 -0.004159 0.0
1.011165 -0.005054 0.0
1.014115 -0.005992 0.0
1.017440 -0.006975 0.0
1.021157 -0.008003 0.0
1.025282 -0.009081 0.0
1.029833 -0.010210 0.0
1.034831 -0.011395 0.0
1.040296 -0.012639 0.0
1.046252 -0.013947 0.0
1.052723 -0.015322 0.0
1.059735 -0.016768 0.0
1.067316 -0.018291 0.0
1.075496 -0.019893 0.0
1.084306 -0.021578 0.0
1.093780 -0.023351 0.0
1.103951 -0.025215 0.0
1.114857 -0.027173 0.0
1.126534 -0.029227 0.0
1.139021 -0.031379 0.0
1.152357 -0.033629 0.0
1.166581 -0.035979 0.0
1.181735 -0.038426 0.0
1.197858 -0.040968 0.0
1.214987 -0.043602 0.0
1.233162 -0.046321 0.0
1.252416 -0.049117 0.0
1.272782 -0.051981 0.0
1.294287 -0.054899 0.0
1.316954 -0.057857 0.0
1.340800 -0.060836 0.0
1.365833 -0.063814 0.0
1.392053 -0.066768 0.0
1.419450 -0.069668 0.0
1.448002 -0.072485 0.0
1.477673 -0.075182 0.0
1.508414 -0.077724 0.0
1.540159 -0.080071 0.0
1.572825 -0.082181 0.0
1.606314 -0.084013 0.0
1.640507 -0.085525 0.0
1.675269 -0.086676 0.0
1.710450 -0.087430 0.0
1.745881 -0.087753 0.0
1.781383 -0.087620 0.0
1.816764 -0.087012 0.0
1.851827 -0.085920 0.0
1.886372 -0.084347 0.0
1.920203 -0.082307 0.0
1.953129 -0.079827 0.0
1.984974 -0.076944 0.0
2.015581 -0.073708 0.0
2.044815 -0.070179 0.0
2.072568 -0.066423 0.0
2.098761 -0.062508 0.0
2.123345 -0.058505 0.0
2.146303 -0.054483 0.0
2.167642 -0.050503 0.0
2.187396 -0.046620 0.0
2.205620 -0.042879 0.0
2.222383 -0.039316 0.0
2.237768 -0.035957 0.0
2.251866 -0.032820 0.0
2.264771 -0.029913 0.0
2.276579 -0.027239 0.0
2.287386 -0.024797 0.0
2.297285 -0.022579 0.0
2.306362 -0.020577 0.0
2.314705 -0.018779 0.0
2.322391 -0.017174 0.0
2.329494 -0.015749 0.0
2.336086 -0.014488 0.0
2.342228 -0.013376 0.0
2.347977 -0.012394 0.0
2.353385 -0.011520 0.0
2.358492 -0.010730 0.0
2.363329 -0.009994 0.0
2.367915 -0.009277 0.0
2.372253 -0.008542 0.0
2.376332 -0.007745 0.0
2.380121 -0.006842 0.0
2.383571 -0.005788 0.0
2.386614 -0.004537 0.0
2.389163 -0.003044 0.0
2.391117 -0.001274 0.0
2.392359 0.000805 0.0
2.392760 0.003219 0.0
2.392182 0.005984 0.0
2.390485 0.009108 0.0
2.387524 0.012589 0.0
2.383161 0.016418 0.0
2.377260 0.020578 0.0
2.369697 0.025043 0.0
2.360357 0.029781 0.0
2.349142 0.034753 0.0
2.335970 0.039915 0.0
2.320775 0.045221 0.0
2.303515 0.050617 0.0
2.284166 0.056049 0.0
2.262727 0.061462 0.0
2.239219 0.066799 0.0
2.213685 0.072002 0.0
2.186190 0.077016 0.0
2.156822 0.081787 0.0
2.125687 0.086263 0.0
2.092910 0.090399 0.0
2.058633 0.094149 0.0
2.023015 0.097479 0.0
1.986225 0.100355 0.0
1.948444 0.102753 0.0
1.909858 0.104656 0.0
1.870660 0.106054 0.0
1.831044 0.106945 0.0
1.791203 0.107336 0.0
1.751324 0.107240 0.0
1.711589 0.106679 0.0
1.672171 0.105679 0.0
1.633232 0.104273 0.0
1.594920 0.102497 0.0
1.557370 0.100388 0.0
1.520700 0.097981 0.0
1.485016 0.095311 0.0
1.450409 0.092404 0.0
1.416956 0.089287 0.0
1.384722 0.085976 0.0
1.353763 0.082488 0.0
1.324124 0.078833 0.0
1.295845 0.075023 0.0
1.268959 0.071071 0.0
1.243493 0.066991 0.0
1.219467 0.062802 0.0
1.196898 0.058526 0.0
1.175796 0.054187 0.0
1.156162 0.049811 0.0
1.137991 0.045426 0.0
1.121269 0.041060 0.0
1.105973 0.036738 0.0
1.092069 0.032487 0.0
1.079515 0.028332 0.0
1.068258 0.024298 0.0
1.058238 0.020409 0.0
1.049384 0.016689 0.0
1.041617 0.013161 0.0
1.034849 0.009844 0.0
1.028979 0.006767 0.0
1.023900 0.003970 0.0
1.019476 0.001460 0.0
1.015613 -0.000730 0.0
1.012306 -0.002586 0.0
1.009550 -0.004104 0.0
1.007305 -0.005299 0.0
1.005522 -0.006205 0.0
1.004148 -0.006855 0.0
1.003132 -0.007285 0.0
1.002423 -0.007526 0.0
1.001972 -0.007611 0.0
1.001731 -0.007567 0.0
1.001660 -0.007419 0.0
1.001719 -0.007190 0.0
1.001875 -0.006899 0.0
1.002098 -0.006564 0.0
1.002365 -0.006198 0.0
1.002654 -0.005813 0.0
1.002948 -0.005421 0.0
1.003235 -0.005030 0.0
1.003505 -0.004645 0.0
1.003751 -0.004274 0.0
1.003968 -0.003919 0.0
1.004154 -0.003583 0.0
1.004309 -0.003269 0.0
1.004432 -0.002978 0.0
1.004527 -0.002709 0.0
1.004594 -0.002464 0.0
1.004638 -0.002241 0.0
1.004661 -0.002039 0.0
1.004666 -0.001858 0.0
1.004658 -0.001696 0.0
1.004639 -0.001551 0.0
1.004612 -0.001423 0.0
1.004581 -0.001309 0.0
1.004547 -0.001209 0.0
1.004513 -0.001121 0.0
1.004480 -0.001044 0.0
1.004451 -0.000976 0.0
1.004427 -0.000918 0.0
1.004408 -0.000866 0.0
1.004396 -0.000822 0.0
1.004392 -0.000783 0.0
1.004395 -0.000749 0.0
1.004406 -0.000719 0.0
1.004423 -0.000691 0.0
1.004444 -0.000665 0.0
1.004464 -0.000635 0.0
1.004498 -0.000552 0.0
1.000113 -0.000391 0.0
1.000545 -0.001227 0.0
1.001366 -0.002147 0.0
1.002541 -0.003149 0.0
1.004056 -0.004221 0.0
1.005908 -0.005356 0.0
1.008101 -0.006548 0.0
1.010644 -0.007797 0.0
1.013547 -0.009103 0.0
1.016824 -0.010467 0.0
1.020491 -0.011894 0.0
1.024562 -0.013387 0.0
1.029056 -0.014950 0.0
1.033994 -0.016590 0.0
1.039394 -0.018311 0.0
1.045281 -0.020118 0.0
1.051680 -0.022019 0.0
1.058615 -0.024018 0.0
1.066116 -0.026122 0.0
1.074211 -0.028337 0.0
1.082934 -0.030667 0.0
1.092317 -0.033119 0.0
1.102395 -0.035697 0.0
1.113204 -0.038406 0.0
1.124784 -0.041250 0.0
1.137173 -0.044231 0.0
1.150412 -0.047351 0.0
1.164541 -0.050611 0.0
1.179603 -0.054009 0.0
1.195639 -0.057543 0.0
1.212689 -0.061207 0.0
1.230792 -0.064994 0.0
1.249988 -0.068894 0.0
1.270309 -0.072892 0.0
1.291788 -0.076972 0.0
1.314449 -0.081113 0.0
1.338315 -0.085290 0.0
1.363396 -0.089474 0.0
1.389697 -0.093629 0.0
1.417211 -0.097718 0.0
1.445920 -0.101696 0.0
1.475792 -0.105515 0.0
1.506781 -0.109121 0.0
1.538822 -0.112460 0.0
1.571836 -0.115473 0.0
1.605723 -0.118097 0.0
1.640365 -0.120275 0.0
1.675622 -0.121946 0.0
1.711340 -0.123058 0.0
1.747344 -0.123560 0.0
1.783445 -0.123415 0.0
1.819440 -0.122594 0.0
1.855122 -0.121083 0.0
1.890274 -0.118883 0.0
1.924685 -0.116014 0.0
1.958151 -0.112512 0.0
1.990480 -0.108433 0.0
2.021503 -0.103849 0.0
2.051075 -0.098845 0.0
2.079082 -0.093516 0.0
2.105441 -0.087966 0.0
2.130106 -0.082296 0.0
2.153063 -0.076606 0.0
2.174328 -0.070985 0.0
2.193947 -0.065511 0.0
2.211984 -0.060248 0.0
2.228523 -0.055248 0.0
2.243656 -0.050544 0.0
2.257486 -0.046160 0.0
2.270114 -0.042107 0.0
2.281646 -0.038386 0.0
2.292180 -0.034992 0.0
2.301815 -0.031916 0.0
2.310640 -0.029143 0.0
2.318744 -0.026658 0.0
2.326205 -0.024443 0.0
2.333101 -0.022480 0.0
2.339502 -0.020749 0.0
2.345474 -0.019228 0.0
2.351077 -0.017894 0.0
2.356365 -0.016716 0.0
2.361385 -0.015661 0.0
2.366174 -0.014688 0.0
2.370754 -0.013749 0.0
2.375136 -0.012790 0.0
2.379311 -0.011750 0.0
2.383251 -0.010566 0.0
2.386907 -0.009170 0.0
2.390208 -0.007498 0.0
2.393065 -0.005489 0.0
2.395370 -0.003088 0.0
2.396996 -0.000249 0.0
2.397806 0.003062 0.0
2.397655 0.006869 0.0
2.396391 0.011183 0.0
2.393863 0.016002 0.0
2.389923 0.021310 0.0
2.384429 0.027082 0.0
2.377250 0.033281 0.0
2.368271 0.039862 0.0
2.357390 0.046768 0.0
2.344525 0.053938 0.0
2.329615 0.061303 0.0
2.312620 0.068790 0.0
2.293523 0.076322 0.0
2.272331 0.083820 0.0
2.249075 0.091204 0.0
2.223811 0.098395 0.0
2.196615 0.105313 0.0
2.167588 0.111884 0.0
2.136852 0.118038 0.0
2.104545 0.123708 0.0
2.070824 0.128837 0.0
2.035859 0.133374 0.0
1.999833 0.137276 0.0
1.962934 0.140512 0.0
1.925357 0.143059 0.0
1.887300 0.144906 0.0
1.848956 0.146053 0.0
1.810519 0.146509 0.0
1.772171 0.146295 0.0
1.734089 0.145441 0.0
1.696436 0.143987 0.0
1.659362 0.141978 0.0
1.623005 0.139463 0.0
1.587483 0.136495 0.0
1.552902 0.133125 0.0
1.519350 0.129403 0.0
1.486898 0.125371 0.0
1.455603 0.121068 0.0
1.425509 0.116523 0.0
1.396647 0.111763 0.0
1.369036 0.106807 0.0
1.342691 0.101674 0.0
1.317615 0.096382 0.0
1.293810 0.090952 0.0
1.271272 0.085406 0.0
1.249993 0.079770 0.0
1.229963 0.074075 0.0
1.211166 0.068353 0.0
1.193583 0.062638 0.0
1.177190 0.056963 0.0
1.161956 0.051365 0.0
1.147843 0.045876 0.0
1.134811 0.040530 0.0
1.122808 0.035359 0.0
1.111782 0.030395 0.0
1.101675 0.025666 0.0
1.092423 0.021202 0.0
1.083963 0.017032 0.0
1.076229 0.013184 0.0
1.069167 0.009694 0.0
1.062736 0.006589 0.0
1.056888 0.003852 0.0
1.051551 0.001476 0.0
1.046679 -0.000538 0.0
1.042264 -0.002206 0.0
1.038300 -0.003551 0.0
1.034764 -0.004599 0.0
1.031623 -0.005383 0.0
1.028840 -0.005936 0.0
1.026381 -0.006290 0.0
1.024211 -0.006477 0.0
1.022295 -0.006522 0.0
1.020603 -0.006454 0.0
1.019105 -0.006294 0.0
1.017775 -0.006063 0.0
1.016588 -0.005779 0.0
1.015525 -0.005458 0.0
1.014567 -0.005113 0.0
1.013699 -0.004757 0.0
1.012908 -0.004397 0.0
1.012184 -0.004043 0.0
1.011518 -0.003700 0.0
1.010902 -0.003372 0.0
1.010331 -0.003064 0.0
1.009801 -0.002777 0.0
1.009309 -0.002512 0.0
1.008851 -0.002271 0.0
1.008425 -0.002052 0.0
1.008030 -0.001856 0.0
1.007665 -0.001681 0.0
1.007327 -0.001527 0.0
1.007017 -0.001391 0.0
1.006732 -0.001272 0.0
1.006473 -0.001169 0.0
1.006239 -0.001081 0.0
1.006028 -0.001005 0.0
1.005839 -0.000940 0.0
1.005673 -0.000885 0.0
1.005528 -0.000839 0.0
1.005403 -0.000801 0.0
1.005297 -0.000769 0.0
1.005210 -0.000743 0.0
1.005141 -0.000722 0.0
1.005089 -0.000703 0.0
1.005052 -0.000687 0.0
1.005030 -0.000669 0.0
1.005024 -0.000645 0.0
1.005045 -0.000598 0.0
1.000098 -0.000603 0.0
1.000485 -0.001834 0.0
1.001243 -0.003118 0.0
1.002353 -0.004464 0.0
1.003806 -0.005874 0.0
1.005599 -0.007347 0.0
1.007735 -0.008885 0.0
1.010220 -0.010488 0.0
1.013064 -0.012159 0.0
1.016279 -0.013903 0.0
1.019879 -0.015724 0.0
1.023879 -0.017628 0.0
1.028298 -0.019622 0.0
1.033154 -0.021711 0.0
1.038468 -0.023904 0.0
1.044263 -0.026207 0.0
1.050563 -0.028629 0.0
1.057395 -0.031176 0.0
1.064786 -0.033857 0.0
1.072767 -0.036679 0.0
1.081370 -0.039650 0.0
1.090629 -0.042777 0.0
1.100578 -0.046067 0.0
1.111256 -0.049525 0.0
1.122701 -0.053157 0.0
1.134954 -0.056967 0.0
1.148057 -0.060957 0.0
1.162053 -0.065130 0.0
1.176984 -0.069484 0.0
1.192894 -0.074015 0.0
1.209828 -0.078719 0.0
1.227827 -0.083585 0.0
1.246932 -0.088603 0.0
1.267181 -0.093754 0.0
1.288611 -0.099018 0.0
1.311251 -0.104369 0.0
1.335127 -0.109775 0.0
1.360256 -0.115199 0.0
1.386648 -0.120597 0.0
1.414302 -0.125918 0.0
1.443204 -0.131107 0.0
1.473328 -0.136100 0.0
1.504632 -0.140829 0.0
1.537056 -0.145219 0.0
1.570521 -0.149193 0.0
1.604929 -0.152672 0.0
1.640161 -0.155573 0.0
1.676074 -0.157819 0.0
1.712506 -0.159335 0.0
1.749275 -0.160055 0.0
1.786180 -0.159925 0.0
1.823003 -0.158903 0.0
1.859519 -0.156969 0.0
1.895492 -0.154122 0.0
1.930691 -0.150384 0.0
1.964888 -0.145805 0.0
1.997873 -0.140456 0.0
2.029458 -0.134434 0.0
2.059483 -0.127856 0.0
2.087825 -0.120852 0.0
2.114397 -0.113562 0.0
2.139156 -0.106124 0.0
2.162094 -0.098673 0.0
2.183241 -0.091330 0.0
2.202657 -0.084199 0.0
2.220425 -0.077364 0.0
2.236643 -0.070889 0.0
2.251423 -0.064816 0.0
2.264879 -0.059173 0.0
2.277127 -0.053970 0.0
2.288279 -0.049206 0.0
2.298443 -0.044871 0.0
2.307721 -0.040949 0.0
2.316207 -0.037421 0.0
2.323989 -0.034265 0.0
2.331149 -0.031458 0.0
2.337765 -0.028976 0.0
2.343908 -0.026796 0.0
2.349648 -0.024892 0.0
2.355049 -0.023234 0.0
2.360171 -0.021786 0.0
2.365067 -0.020507 0.0
2.369782 -0.019345 0.0
2.374348 -0.018239 0.0
2.378782 -0.017116 0.0
2.383080 -0.015898 0.0
2.387220 -0.014497 0.0
2.391152 -0.012826 0.0
2.394803 -0.010795 0.0
2.398077 -0.008323 0.0
2.400856 -0.005337 0.0
2.403004 -0.001774 0.0
2.404370 0.002410 0.0
2.404794 0.007248 0.0
2.404109 0.012752 0.0
2.402151 0.018919 0.0
2.398758 0.025727 0.0
2.393775 0.033142 0.0
2.387062 0.041113 0.0
2.378491 0.049580 0.0
2.367953 0.058468 0.0
2.355361 0.067694 0.0
2.340648 0.077169 0.0
2.323772 0.086795 0.0
2.304715 0.096471 0.0
2.283486 0.106092 0.0
2.260122 0.115553 0.0
2.234683 0.124750 0.0
2.207256 0.133580 0.0
2.177954 0.141946 0.0
2.146911 0.149756 0.0
2.114283 0.156925 0.0
2.080243 0.163380 0.0
2.044981 0.169057 0.0
2.008697 0.173903 0.0
1.971600 0.177880 0.0
1.933904 0.180964 0.0
1.895821 0.183142 0.0
1.857561 0.184419 0.0
1.819329 0.184812 0.0
1.781316 0.184351 0.0
1.743704 0.183079 0.0
1.706658 0.181048 0.0
1.670327 0.178321 0.0
1.634842 0.174962 0.0
1.600316 0.171043 0.0
1.566841 0.166633 0.0
1.534491 0.161797 0.0
1.503323 0.156597 0.0
1.473376 0.151085 0.0
1.444671 0.145305 0.0
1.417218 0.139296 0.0
1.391015 0.133087 0.0
1.366048 0.126705 0.0
1.342301 0.120174 0.0
1.319748 0.113517 0.0
1.298364 0.106762 0.0
1.278119 0.099937 0.0
1.258984 0.093074 0.0
1.240928 0.086208 0.0
1.223917 0.079376 0.0
1.207918 0.072617 0.0
1.192893 0.065970 0.0
1.178805 0.059472 0.0
1.165611 0.053161 0.0
1.153268 0.047074 0.0
1.141729 0.041244 0.0
1.130950 0.035704 0.0
1.120883 0.030484 0.0
1.111483 0.025611 0.0
1.102707 0.021113 0.0
1.094522 0.017012 0.0
1.086900 0.013324 0.0
1.079817 0.010049 0.0
1.073252 0.007182 0.0
1.067180 0.004700 0.0
1.061569 0.002582 0.0
1.056387 0.000808 0.0
1.051613 -0.000648 0.0
1.047232 -0.001813 0.0
1.043228 -0.002720 0.0
1.039579 -0.003398 0.0
1.036259 -0.003878 0.0
1.033241 -0.004188 0.0
1.030500 -0.004355 0.0
1.028012 -0.004406 0.0
1.025753 -0.004361 0.0
1.023702 -0.004243 0.0
1.021839 -0.004068 0.0
1.020147 -0.003853 0.0
1.018608 -0.003611 0.0
1.017208 -0.003353 0.0
1.015935 -0.003090 0.0
1.014776 -0.002828 0.0
1.013722 -0.002574 0.0
1.012763 -0.002332 0.0
1.011890 -0.002106 0.0
1.011097 -0.001897 0.0
1.010377 -0.001708 0.0
1.009724 -0.001537 0.0
1.009133 -0.001385 0.0
1.008598 -0.001252 0.0
1.008115 -0.001136 0.0
1.007681 -0.001037 0.0
1.007291 -0.000952 0.0
1.006942 -0.000882 0.0
1.006632 -0.000823 0.0
1.006357 -0.000776 0.0
1.006114 -0.000738 0.0
1.005902 -0.000709 0.0
1.005719 -0.000687 0.0
1.005562 -0.000671 0.0
1.005430 -0.000661 0.0
1.005321 -0.000656 0.0
1.005234 -0.000653 0.0
1.005167 -0.000653 0.0
1.005121 -0.000654 0.0
1.005094 -0.000653 0.0
1.005088 -0.000649 0.0
1.005108 -0.000636 0.0
1.000090 -0.000792 0.0
1.000450 -0.002392 0.0
1.001161 -0.004030 0.0
1.002217 -0.005719 0.0
1.003612 -0.007467 0.0
1.005344 -0.009280 0.0
1.007417 -0.011161 0.0
1.009835 -0.013115 0.0
1.012608 -0.015149 0.0
1.015747 -0.017268 0.0
1.019266 -0.019478 0.0
1.023179 -0.021788 0.0
1.027504 -0.024205 0.0
1.032258 -0.026739 0.0
1.037464 -0.029397 0.0
1.043144 -0.032189 0.0
1.049321 -0.035124 0.0
1.056022 -0.038213 0.0
1.063275 -0.041465 0.0
1.071111 -0.044888 0.0
1.079562 -0.048494 0.0
1.088661 -0.052291 0.0
1.098447 -0.056287 0.0
1.108956 -0.060491 0.0
1.120228 -0.064909 0.0
1.132306 -0.069546 0.0
1.145233 -0.074408 0.0
1.159054 -0.079495 0.0
1.173813 -0.084809 0.0
1.189559 -0.090346 0.0
1.206336 -0.096099 0.0
1.224192 -0.102059 0.0
1.243171 -0.108213 0.0
1.263318 -0.114540 0.0
1.284671 -0.121016 0.0
1.307268 -0.127609 0.0
1.331140 -0.134283 0.0
1.356312 -0.140992 0.0
1.382800 -0.147683 0.0
1.410609 -0.154295 0.0
1.439735 -0.160758 0.0
1.470158 -0.166995 0.0
1.501840 -0.172920 0.0
1.534728 -0.178440 0.0
1.568746 -0.183457 0.0
1.603799 -0.187869 0.0
1.639764 -0.191573 0.0
1.676498 -0.194466 0.0
1.713831 -0.196453 0.0
1.751568 -0.197444 0.0
1.789495 -0.197367 0.0
1.827375 -0.196165 0.0
1.864959 -0.193807 0.0
1.901988 -0.190286 0.0
1.938199 -0.185630 0.0
1.973339 -0.179896 0.0
2.007168 -0.173179 0.0
2.039472 -0.165601 0.0
2.070073 -0.157316 0.0
2.098833 -0.148494 0.0
2.125662 -0.139321 0.0
2.150517 -0.129979 0.0
2.173405 -0.120645 0.0
2.194373 -0.111474 0.0
2.213500 -0.102600 0.0
2.230895 -0.094127 0.0
2.246681 -0.086131 0.0
2.260989 -0.078662 0.0
2.273954 -0.071748 0.0
2.285705 -0.065395 0.0
2.296368 -0.059596 0.0
2.306058 -0.054335 0.0
2.314882 -0.049587 0.0
2.322938 -0.045325 0.0
2.330315 -0.041520 0.0
2.337095 -0.038143 0.0
2.343356 -0.035167 0.0
2.349172 -0.032565 0.0
2.354614 -0.030306 0.0
2.359752 -0.028359 0.0
2.364653 -0.026684 0.0
2.369380 -0.025233 0.0
2.373989 -0.023943 0.0
2.378523 -0.022741 0.0
2.383010 -0.021535 0.0
2.387457 -0.020225 0.0
2.391845 -0.018698 0.0
2.396126 -0.016838 0.0
2.400224 -0.014532 0.0
2.404034 -0.011671 0.0
2.407427 -0.008160 0.0
2.410249 -0.003920 0.0
2.412332 0.001107 0.0
2.413497 0.006962 0.0
2.413560 0.013660 0.0
2.412336 0.021194 0.0
2.409645 0.029537 0.0
2.405318 0.038642 0.0
2.399197 0.048447 0.0
2.391143 0.058871 0.0
2.381036 0.069821 0.0
2.368777 0.081192 0.0
2.354294 0.092868 0.0
2.337538 0.104728 0.0
2.318489 0.116643 0.0
2.297155 0.128482 0.0
2.273572 0.140111 0.0
2.247805 0.151398 0.0
2.219948 0.162215 0.0
2.190121 0.172440 0.0
2.158470 0.181956 0.0
2.125166 0.190659 0.0
2.090397 0.198456 0.0
2.054372 0.205269 0.0
2.017311 0.211036 0.0
1.979444 0.215711 0.0
1.941007 0.219267 0.0
1.902234 0.221695 0.0
1.863355 0.223005 0.0
1.824592 0.223222 0.0
1.786154 0.222392 0.0
1.748234 0.220571 0.0
1.711008 0.217830 0.0
1.674629 0.214249 0.0
1.639231 0.209917 0.0
1.604924 0.204922 0.0
1.571796 0.199357 0.0
1.539913 0.193306 0.0
1.509320 0.186849 0.0
1.480041 0.180059 0.0
1.452083 0.172994 0.0
1.425438 0.165705 0.0
1.400084 0.158235 0.0
1.375990 0.150617 0.0
1.353117 0.142882 0.0
1.331422 0.135057 0.0
1.310859 0.127170 0.0
1.291381 0.119252 0.0
1.272941 0.111334 0.0
1.255494 0.103452 0.0
1.238995 0.095642 0.0
1.223401 0.087945 0.0
1.208669 0.080399 0.0
1.194757 0.073043 0.0
1.181624 0.065917 0.0
1.169228 0.059057 0.0
1.157529 0.052497 0.0
1.146489 0.046269 0.0
1.136072 0.040402 0.0
1.126245 0.034921 0.0
1.116976 0.029847 0.0
1.108244 0.025196 0.0
1.100028 0.020979 0.0
1.092313 0.017193 0.0
1.085083 0.013832 0.0
1.078324 0.010880 0.0
1.072020 0.008317 0.0
1.066156 0.006119 0.0
1.060713 0.004258 0.0
1.055671 0.002704 0.0
1.051009 0.001429 0.0
1.046707 0.000404 0.0
1.042747 -0.000400 0.0
1.039110 -0.001011 0.0
1.035777 -0.001458 0.0
1.032728 -0.001766 0.0
1.029943 -0.001957 0.0
1.027402 -0.002055 0.0
1.025089 -0.002078 0.0
1.022983 -0.002044 0.0
1.021070 -0.001967 0.0
1.019334 -0.001860 0.0
1.017760 -0.001735 0.0
1.016334 -0.001599 0.0
1.015045 -0.001460 0.0
1.013880 -0.001323 0.0
1.012829 -0.001192 0.0
1.011882 -0.001071 0.0
1.011029 -0.000961 0.0
1.010263 -0.000864 0.0
1.009576 -0.000779 0.0
1.008960 -0.000707 0.0
1.008410 -0.000648 0.0
1.007918 -0.000600 0.0
1.007481 -0.000562 0.0
1.007093 -0.000535 0.0
1.006750 -0.000516 0.0
1.006449 -0.000506 0.0
1.006184 -0.000502 0.0
1.005955 -0.000504 0.0
1.005756 -0.000511 0.0
1.005588 -0.000522 0.0
1.005446 -0.000537 0.0
1.005330 -0.000555 0.0
1.005237 -0.000574 0.0
1.005167 -0.000595 0.0
1.005118 -0.000616 0.0
1.005092 -0.000636 0.0
1.005087 -0.000655 0.0
1.005108 -0.000672 0.0