# vtk DataFile Version 3.0
Scalar Field
ASCII
DATASET RECTILINEAR_GRID
DIMENSIONS 200 75 1
X_COORDINATES 200 double
0.050000 0.150000 0.250000 0.350000 0.450000 0.550000 0.650000 0.750000 0.850000 0.950000 1.050000 1.150000 1.250000 1.350000 1.450000 1.550000 1.650000 1.750000 1.850000 1.950000 2.050000 2.150000 2.250000 2.350000 2.450000 2.550000 2.650000 2.750000 2.850000 2.950000 3.050000 3.150000 3.250000 3.350000 3.450000 3.550000 3.650000 3.750000 3.850000 3.950000 4.050000 4.150000 4.250000 4.350000 4.450000 4.550000 4.650000 4.750000 4.850000 4.950000 5.050000 5.150000 5.250000 5.350000 5.450000 5.550000 5.650000 5.750000 5.850000 5.950000 6.050000 6.150000 6.250000 6.350000 6.450000 6.550000 6.650000 6.750000 6.850000 6.950000 7.050000 7.150000 7.250000 7.350000 7.450000 7.550000 7.650000 7.750000 7.850000 7.950000 8.050000 8.150000 8.250000 8.350000 8.450000 8.550000 8.650000 8.750000 8.850000 8.950000 9.050000 9.150000 9.250000 9.350000 9.450000 9.550000 9.650000 9.750000 9.850000 9.950000 10.050000 10.150000 10.250000 10.350000 10.450000 10.550000 10.650000 10.750000 10.850000 10.950000 11.050000 11.150000 11.250000 11.350000 11.450000 11.550000 11.650000 11.750000 11.850000 11.950000 12.050000 12.150000 12.250000 12.350000 12.450000 12.550000 12.650000 12.750000 12.850000 12.950000 13.050000 13.150000 13.250000 13.350000 13.450000 13.550000 13.650000 13.750000 13.850000 13.950000 14.050000 14.150000 14.250000 14.350000 14.450000 14.550000 14.650000 14.750000 14.850000 14.950000 15.050000 15.150000 15.250000 15.350000 15.450000 15.550000 15.650000 15.750000 15.850000 15.950000 16.050000 16.150000 16.250000 16.350000 16.450000 16.550000 16.650000 16.750000 16.850000 16.950000 17.050000 17.150000 17.250000 17.350000 17.450000 17.550000 17.650000 17.750000 17.850000 17.950000 18.050000 18.150000 18.250000 18.350000 18.450000 18.550000 18.650000 18.750000 18.850000 18.950000 19.050000 19.150000 19.250000 19.350000 19.450000 19.550000 19.650000 19.750000 19.850000 19.950000 
Y_COORDINATES 75 double
0.050000 0.150000 0.250000 0.350000 0.450000 0.550000 0.650000 0.750000 0.850000 0.950000 1.050000 1.150000 1.250000 1.350000 1.450000 1.550000 1.650000 1.750000 1.850000 1.950000 2.050000 2.150000 2.250000 2.350000 2.450000 2.550000 2.650000 2.750000 2.850000 2.950000 3.050000 3.150000 3.250000 3.350000 3.450000 3.550000 3.650000 3.750000 3.850000 3.950000 4.050000 4.150000 4.250000 4.350000 4.450000 4.550000 4.650000 4.750000 4.850000 4.950000 5.050000 5.150000 5.250000 5.350000 5.450000 5.550000 5.650000 5.750000 5.850000 5.950000 6.050000 6.150000 6.250000 6.350000 6.450000 6.550000 6.650000 6.750000 6.850000 6.950000 7.050000 7.150000 7.250000 7.350000 7.450000 
Z_COORDINATES 1 double
0.0
POINT_DATA 15000
SCALARS Skalarfeld double 1
LOOKUP_TABLE default
1.160185
1.158753
1.157511
1.156165
1.154595
1.152744
1.150580
1.148076
1.145213
1.141968
1.138321
1.134250
1.129730
1.124736
1.119240
1.113209
1.106612
1.099410
1.091563
1.083029
1.073759
1.063703
1.052806
1.041008
1.028245
1.014450
0.999549
0.983465
0.966117
0.947419
0.927280
0.905606
0.882302
0.857269
0.830407
0.801617
0.770803
0.737872
0.702737
0.665324
0.625569
0.583424
0.538863
0.491884
0.442514
0.390811
0.336871
0.280829
0.222863
0.163192
0.102079
0.039829
-0.023219
-0.086693
-0.150200
-0.213335
-0.275690
-0.336868
-0.396498
-0.454240
-0.509800
-0.562938
-0.613468
-0.661264
-0.706260
-0.748441
-0.787843
-0.824542
-0.858649
-0.890300
-0.919651
-0.946868
-0.972128
-0.995607
-1.017481
-1.037922
-1.057096
-1.075161
-1.092264
-1.108542
-1.124115
-1.139088
-1.153544
-1.167540
-1.181107
-1.194240
-1.206902
-1.219020
-1.230482
-1.241146
-1.250809
-1.259255
-1.266246
-1.271526
-1.274828
-1.275883
-1.274433
-1.270235
-1.263070
-1.252755
-1.239145
-1.222140
-1.201694
-1.177811
-1.150550
-1.120028
-1.086413
-1.049925
-1.010829
-0.969430
-0.926068
-0.881105
-0.834924
-0.787912
-0.740456
-0.692933
-0.645703
-0.599101
-0.553431
-0.508962
-0.465927
-0.424516
-0.384882
-0.347138
-0.311363
-0.277598
-0.245860
-0.216135
-0.188389
-0.162566
-0.138598
-0.116399
-0.095876
-0.076925
-0.059438
-0.043302
-0.028404
-0.014632
-0.001879
0.009961
0.020984
0.031279
0.040927
0.050000
0.058562
0.066669
0.074365
0.081688
0.088668
0.095325
0.101671
0.107706
0.113503
0.119096
0.124440
0.129507
0.134282
0.138757
0.142933
0.146816
0.150417
0.153750
0.156829
0.159671
0.162293
0.164711
0.166941
0.168998
0.170897
0.172650
0.174270
0.175768
0.177156
0.178441
0.179633
0.180739
0.181767
0.182723
0.183613
0.184441
0.185213
0.185933
0.186604
0.187231
0.187816
0.188362
0.188873
0.189349
0.189795
0.190211
0.190599
0.190963
0.191302
0.191620
0.191918
0.192198
0.192461
0.192710
0.192943
0.193338
1.159117
1.158563
1.157617
1.156389
1.154876
1.153060
1.150920
1.148437
1.145592
1.142366
1.138737
1.134685
1.130186
1.125213
1.119739
1.113732
1.107158
1.099981
1.092161
1.083653
1.074410
1.064381
1.053511
1.041740
1.029003
1.015232
1.000354
0.984290
0.966959
0.948274
0.928142
0.906471
0.883161
0.858114
0.831228
0.802404
0.771541
0.738548
0.703335
0.665826
0.625956
0.583676
0.538958
0.491800
0.442227
0.390300
0.336113
0.279804
0.221553
0.161583
0.100161
0.037596
-0.025764
-0.089543
-0.153339
-0.216738
-0.279325
-0.340697
-0.400475
-0.458316
-0.513925
-0.567058
-0.617534
-0.665230
-0.710086
-0.752094
-0.791296
-0.827776
-0.861652
-0.893067
-0.922180
-0.949164
-0.974197
-0.997458
-1.019124
-1.039369
-1.058360
-1.076255
-1.093205
-1.109347
-1.124805
-1.139686
-1.154077
-1.168039
-1.181606
-1.194777
-1.207518
-1.219752
-1.231364
-1.242194
-1.252066
-1.260758
-1.268018
-1.273582
-1.277174
-1.278520
-1.277352
-1.273421
-1.266503
-1.256407
-1.242985
-1.226134
-1.205803
-1.181995
-1.154769
-1.124240
-1.090579
-1.054007
-1.014792
-0.973242
-0.929702
-0.884538
-0.838137
-0.790891
-0.743192
-0.695423
-0.647948
-0.601105
-0.555202
-0.510511
-0.467267
-0.425661
-0.385849
-0.347942
-0.312019
-0.278123
-0.246267
-0.216437
-0.188598
-0.162693
-0.138650
-0.116385
-0.095802
-0.076797
-0.059260
-0.043079
-0.028140
-0.014331
-0.001543
0.010327
0.021376
0.031693
0.041359
0.050446
0.059018
0.067130
0.074829
0.082152
0.089128
0.095783
0.102139
0.108242
0.114058
0.119615
0.124904
0.129914
0.134633
0.139058
0.143189
0.147033
0.150601
0.153906
0.156962
0.159785
0.162391
0.164796
0.167015
0.169063
0.170955
0.172702
0.174317
0.175812
0.177195
0.178478
0.179667
0.180772
0.181798
0.182752
0.183640
0.184467
0.185238
0.185957
0.186628
0.187253
0.187837
0.188383
0.188892
0.189368
0.189813
0.190228
0.190616
0.190978
0.191317
0.191633
0.191930
0.192209
0.192472
0.192724
0.192975
0.193319
1.159084
1.158762
1.158004
1.156893
1.155456
1.153692
1.151594
1.149147
1.146337
1.143145
1.139552
1.135536
1.131076
1.126144
1.120714
1.114753
1.108228
1.101102
1.093334
1.084882
1.075696
1.065726
1.054915
1.043203
1.030526
1.016813
1.001992
0.985981
0.968699
0.950055
0.929959
0.908312
0.885015
0.859965
0.833060
0.804195
0.773269
0.740184
0.704850
0.667185
0.627120
0.584604
0.539606
0.492121
0.442173
0.389821
0.335161
0.278333
0.219521
0.158953
0.096906
0.033699
-0.030307
-0.094721
-0.159124
-0.223087
-0.286177
-0.347976
-0.408091
-0.466169
-0.521908
-0.575065
-0.625461
-0.672983
-0.717580
-0.759258
-0.798076
-0.834132
-0.867559
-0.898510
-0.927158
-0.953683
-0.978269
-1.001100
-1.022358
-1.042216
-1.060845
-1.078406
-1.095050
-1.110920
-1.126146
-1.140841
-1.155098
-1.168989
-1.182553
-1.195796
-1.208687
-1.221152
-1.233076
-1.244298
-1.254625
-1.263830
-1.271651
-1.277806
-1.282005
-1.283958
-1.283384
-1.280019
-1.273627
-1.264006
-1.250999
-1.234495
-1.214436
-1.190823
-1.163711
-1.133216
-1.099508
-1.062813
-1.023402
-0.981590
-0.937727
-0.892189
-0.845371
-0.797673
-0.749498
-0.701237
-0.653261
-0.605918
-0.559524
-0.514355
-0.470652
-0.428611
-0.388388
-0.350100
-0.313824
-0.279602
-0.247447
-0.217344
-0.189254
-0.163119
-0.138864
-0.116402
-0.095637
-0.076462
-0.058767
-0.042441
-0.027369
-0.013439
-0.000544
0.011420
0.022548
0.032931
0.042648
0.051772
0.060368
0.068490
0.076185
0.083494
0.090447
0.097073
0.103396
0.109442
0.115229
0.120707
0.125883
0.130784
0.135398
0.139724
0.143767
0.147534
0.151034
0.154281
0.157287
0.160068
0.162639
0.165014
0.167208
0.169236
0.171109
0.172841
0.174444
0.175928
0.177302
0.178577
0.179759
0.180858
0.181878
0.182828
0.183712
0.184535
0.185302
0.186018
0.186685
0.187308
0.187889
0.188432
0.188939
0.189413
0.189855
0.190268
0.190654
0.191014
0.191350
0.191664
0.191958
0.192233
0.192492
0.192738
0.192976
0.193241
1.159643
1.159396
1.158741
1.157720
1.156355
1.154651
1.152604
1.150206
1.147443
1.144300
1.140757
1.136796
1.132392
1.127521
1.122154
1.116261
1.109808
1.102758
1.095070
1.086700
1.077601
1.067719
1.056999
1.045379
1.032794
1.019174
1.004441
0.988516
0.971314
0.952742
0.932707
0.911108
0.887842
0.862803
0.835884
0.806975
0.775970
0.742768
0.707269
0.669389
0.629052
0.586201
0.540800
0.492840
0.442342
0.389363
0.334000
0.276395
0.216738
0.155267
0.092270
0.028084
-0.036912
-0.102303
-0.167645
-0.232482
-0.296354
-0.358818
-0.419460
-0.477909
-0.533856
-0.587054
-0.637331
-0.684586
-0.728787
-0.769962
-0.808194
-0.843606
-0.876350
-0.906601
-0.934548
-0.960383
-0.984300
-1.006489
-1.027135
-1.046416
-1.064504
-1.081562
-1.097747
-1.113207
-1.128079
-1.142487
-1.156536
-1.170310
-1.183860
-1.197204
-1.210316
-1.223126
-1.235515
-1.247320
-1.258332
-1.268308
-1.276972
-1.284015
-1.289126
-1.291992
-1.292309
-1.289793
-1.284191
-1.275283
-1.262899
-1.246916
-1.227269
-1.203949
-1.177012
-1.146571
-1.112799
-1.075924
-1.036225
-0.994025
-0.949684
-0.903590
-0.856149
-0.807777
-0.758888
-0.709887
-0.661160
-0.613064
-0.565926
-0.520034
-0.475633
-0.432928
-0.392079
-0.353205
-0.316384
-0.281659
-0.249042
-0.218514
-0.190034
-0.163540
-0.138956
-0.116191
-0.095145
-0.075711
-0.057779
-0.041234
-0.025965
-0.011860
0.001189
0.013284
0.024521
0.034989
0.044768
0.053933
0.062546
0.070665
0.078337
0.085604
0.092499
0.099052
0.105286
0.111222
0.116869
0.122221
0.127288
0.132055
0.136532
0.140732
0.144660
0.148323
0.151731
0.154896
0.157832
0.160552
0.163069
0.165398
0.167553
0.169546
0.171390
0.173097
0.174678
0.176142
0.177499
0.178759
0.179928
0.181015
0.182025
0.182965
0.183840
0.184655
0.185415
0.186124
0.186785
0.187402
0.187979
0.188516
0.189019
0.189488
0.189926
0.190335
0.190717
0.191073
0.191405
0.191715
0.192004
0.192273
0.192525
0.192760
0.192979
0.193200
1.160653
1.160437
1.159843
1.158889
1.157587
1.155944
1.153955
1.151615
1.148911
1.145829
1.142352
1.138460
1.134130
1.129338
1.124056
1.118254
1.111896
1.104947
1.097365
1.089107
1.080123
1.070361
1.059763
1.048269
1.035810
1.022315
1.007706
0.991901
0.974811
0.956343
0.936398
0.914873
0.891659
0.866646
0.839719
0.810766
0.779671
0.746325
0.710623
0.672470
0.631783
0.588498
0.542570
0.493984
0.442755
0.388939
0.332633
0.273981
0.213180
0.150481
0.086189
0.020662
-0.045694
-0.112430
-0.179068
-0.245113
-0.310067
-0.373450
-0.434816
-0.493774
-0.549998
-0.603240
-0.653337
-0.700207
-0.743846
-0.784315
-0.821731
-0.856250
-0.888057
-0.917353
-0.944348
-0.969252
-0.992269
-1.013597
-1.033425
-1.051935
-1.069299
-1.085683
-1.101249
-1.116151
-1.130538
-1.144546
-1.158301
-1.171901
-1.185419
-1.198885
-1.212287
-1.225557
-1.238577
-1.251171
-1.263114
-1.274139
-1.283949
-1.292202
-1.298553
-1.302659
-1.304184
-1.302819
-1.298283
-1.290336
-1.278789
-1.263503
-1.244401
-1.221468
-1.194753
-1.164370
-1.130492
-1.093356
-1.053247
-1.010502
-0.965493
-0.918625
-0.870322
-0.821019
-0.771147
-0.721132
-0.671375
-0.622252
-0.574103
-0.527229
-0.481887
-0.438288
-0.396599
-0.356942
-0.319396
-0.284006
-0.250779
-0.219695
-0.190708
-0.163754
-0.138750
-0.115602
-0.094208
-0.074458
-0.056238
-0.039436
-0.023937
-0.009630
0.003592
0.015831
0.027183
0.037737
0.047574
0.056768
0.065384
0.073480
0.081106
0.088303
0.095110
0.101555
0.107664
0.113456
0.118944
0.124135
0.129035
0.133646
0.137978
0.142037
0.145832
0.149373
0.152670
0.155738
0.158586
0.161229
0.163678
0.165948
0.168050
0.169997
0.171800
0.173472
0.175020
0.176457
0.177790
0.179027
0.180177
0.181245
0.182240
0.183165
0.184027
0.184830
0.185579
0.186277
0.186929
0.187537
0.188105
0.188636
0.189131
0.189594
0.190026
0.190429
0.190805
0.191156
0.191483
0.191787
0.192069
0.192332
0.192574
0.192798
0.193001
0.193199
1.162055
1.161857
1.161303
1.160400
1.159157
1.157573
1.155647
1.153372
1.150738
1.147730
1.144332
1.140525
1.136287
1.131593
1.126416
1.120726
1.114487
1.107665
1.100216
1.092097
1.083259
1.073648
1.063206
1.051871
1.039573
1.026239
1.011790
0.996141
0.979199
0.960868
0.941045
0.919622
0.896485
0.871516
0.844595
0.815599
0.784406
0.750895
0.714953
0.676472
0.635360
0.591540
0.544958
0.495591
0.443447
0.388575
0.331071
0.271085
0.208820
0.144544
0.078580
0.011317
-0.056803
-0.125290
-0.193618
-0.261239
-0.327604
-0.392183
-0.454487
-0.514091
-0.570651
-0.623918
-0.673743
-0.720073
-0.762942
-0.802459
-0.838788
-0.872131
-0.902714
-0.930774
-0.956548
-0.980264
-1.002142
-1.022385
-1.041187
-1.058728
-1.075182
-1.090717
-1.105495
-1.119681
-1.133436
-1.146917
-1.160271
-1.173625
-1.187076
-1.200679
-1.214436
-1.228288
-1.242114
-1.255724
-1.268871
-1.281256
-1.292543
-1.302363
-1.310319
-1.316026
-1.319110
-1.319226
-1.316060
-1.309346
-1.298868
-1.284471
-1.266061
-1.243614
-1.217173
-1.186848
-1.152819
-1.115327
-1.074671
-1.031201
-0.985309
-0.937422
-0.887985
-0.837459
-0.786301
-0.734960
-0.683864
-0.633408
-0.583953
-0.535817
-0.489269
-0.444532
-0.401779
-0.361137
-0.322686
-0.286471
-0.252495
-0.220735
-0.191140
-0.163639
-0.138145
-0.114558
-0.092771
-0.072670
-0.054139
-0.037061
-0.021323
-0.006811
0.006582
0.018960
0.030417
0.041045
0.050924
0.060130
0.068730
0.076781
0.084337
0.091443
0.098136
0.104449
0.110410
0.116039
0.121355
0.126369
0.131092
0.135531
0.139698
0.143601
0.147249
0.150654
0.153829
0.156784
0.159531
0.162084
0.164454
0.166652
0.168690
0.170581
0.172334
0.173961
0.175469
0.176870
0.178171
0.179379
0.180503
0.181548
0.182521
0.183427
0.184271
0.185057
0.185791
0.186476
0.187115
0.187712
0.188270
0.188790
0.189276
0.189731
0.190154
0.190550
0.190919
0.191263
0.191583
0.191880
0.192155
0.192410
0.192643
0.192856
0.193047
0.193231
1.163819
1.163633
1.163109
1.162251
1.161060
1.159537
1.157678
1.155476
1.152920
1.149997
1.146692
1.142985
1.138856
1.134279
1.129228
1.123671
1.117576
1.110905
1.103617
1.095667
1.087005
1.077577
1.067325
1.056184
1.044084
1.030950
1.016698
1.001243
0.984487
0.966331
0.946665
0.925376
0.902344
0.877443
0.850544
0.821513
0.790218
0.756527
0.720311
0.681451
0.639840
0.595387
0.548026
0.497718
0.444463
0.388304
0.329334
0.267705
0.203630
0.137392
0.069344
-0.000093
-0.070431
-0.141126
-0.211588
-0.281202
-0.349349
-0.415432
-0.478903
-0.539294
-0.596237
-0.649480
-0.698896
-0.744475
-0.786309
-0.824568
-0.859483
-0.891318
-0.920352
-0.946864
-0.971124
-0.993382
-1.013870
-1.032800
-1.050363
-1.066739
-1.082096
-1.096599
-1.110413
-1.123711
-1.136670
-1.149472
-1.162295
-1.175304
-1.188633
-1.202371
-1.216544
-1.231106
-1.245929
-1.260809
-1.275467
-1.289563
-1.302707
-1.314497
-1.324468
-1.332181
-1.337217
-1.339183
-1.337727
-1.332548
-1.323402
-1.310108
-1.292556
-1.270708
-1.244598
-1.214338
-1.180109
-1.142161
-1.100807
-1.056417
-1.009406
-0.960227
-0.909356
-0.857284
-0.804502
-0.751492
-0.698710
-0.646582
-0.595495
-0.545786
-0.497745
-0.451605
-0.407549
-0.365708
-0.326166
-0.288963
-0.254101
-0.221550
-0.191252
-0.163129
-0.137087
-0.113018
-0.090807
-0.070337
-0.051486
-0.034133
-0.018161
-0.003455
0.010095
0.022593
0.034137
0.044816
0.054716
0.063912
0.072472
0.080458
0.087924
0.094917
0.101478
0.107642
0.113440
0.118896
0.124030
0.128859
0.133397
0.137657
0.141651
0.145389
0.148883
0.152146
0.155188
0.158021
0.160657
0.163109
0.165386
0.167503
0.169467
0.171292
0.172986
0.174559
0.176020
0.177377
0.178639
0.179812
0.180904
0.181920
0.182866
0.183748
0.184570
0.185337
0.186052
0.186720
0.187344
0.187926
0.188470
0.188979
0.189454
0.189897
0.190311
0.190698
0.191058
0.191393
0.191705
0.191995
0.192262
0.192508
0.192733
0.192937
0.193117
0.193291
1.165922
1.165746
1.165248
1.164431
1.163292
1.161831
1.160042
1.157919
1.155451
1.152625
1.149426
1.145834
1.141830
1.137389
1.132483
1.127083
1.121155
1.114662
1.107562
1.099810
1.091356
1.082145
1.072118
1.061208
1.049344
1.036448
1.022435
1.007214
0.990686
0.972744
0.953275
0.932158
0.909265
0.884461
0.857606
0.828555
0.797161
0.763279
0.726764
0.687479
0.645299
0.600117
0.551847
0.500436
0.445869
0.388178
0.327453
0.263846
0.197580
0.128957
0.058360
-0.013745
-0.086817
-0.160241
-0.233349
-0.305437
-0.375794
-0.443733
-0.508628
-0.569951
-0.627300
-0.680425
-0.729232
-0.773775
-0.814224
-0.850843
-0.883947
-0.913880
-0.940988
-0.965602
-0.988028
-1.008541
-1.027383
-1.044769
-1.060884
-1.075900
-1.089973
-1.103261
-1.115927
-1.128148
-1.140121
-1.152058
-1.164184
-1.176713
-1.189834
-1.203685
-1.218327
-1.233731
-1.249767
-1.266207
-1.282731
-1.298942
-1.314388
-1.328599
-1.341054
-1.351239
-1.358670
-1.362904
-1.363542
-1.360240
-1.352720
-1.340774
-1.324268
-1.303149
-1.277443
-1.247259
-1.212781
-1.174270
-1.132058
-1.086535
-1.038146
-0.987375
-0.934737
-0.880762
-0.825982
-0.770918
-0.716068
-0.661894
-0.608814
-0.557193
-0.507342
-0.459511
-0.413894
-0.370627
-0.329796
-0.291438
-0.255550
-0.222093
-0.191002
-0.162188
-0.135546
-0.110960
-0.088306
-0.067458
-0.048288
-0.030669
-0.014479
0.000401
0.014085
0.026678
0.038281
0.048987
0.058882
0.068042
0.076540
0.084439
0.091795
0.098658
0.105072
0.111075
0.116699
0.121973
0.126919
0.131559
0.135909
0.139984
0.143800
0.147369
0.150703
0.153816
0.156718
0.159423
0.161941
0.164284
0.166464
0.168490
0.170373
0.172124
0.173750
0.175263
0.176668
0.177976
0.179192
0.180324
0.181378
0.182360
0.183275
0.184128
0.184924
0.185667
0.186360
0.187008
0.187613
0.188178
0.188706
0.189200
0.189662
0.190093
0.190495
0.190871
0.191222
0.191548
0.191851
0.192131
0.192390
0.192628
0.192845
0.193040
0.193212
0.193378
1.168347
1.168180
1.167707
1.166928
1.165842
1.164445
1.162732
1.160694
1.158323
1.155605
1.152524
1.149063
1.145200
1.140913
1.136173
1.130952
1.125215
1.118926
1.112042
1.104518
1.096305
1.087345
1.077579
1.066938
1.055350
1.042734
1.029003
1.014061
0.997805
0.980123
0.960896
0.939994
0.917279
0.892608
0.865826
0.836777
0.805297
0.771222
0.734389
0.694640
0.651828
0.605822
0.556516
0.503835
0.447745
0.388264
0.325473
0.259521
0.190643
0.119161
0.045492
-0.029848
-0.106248
-0.183010
-0.259364
-0.334493
-0.407565
-0.477773
-0.544385
-0.606787
-0.664536
-0.717384
-0.765293
-0.808406
-0.847014
-0.881502
-0.912303
-0.939864
-0.964611
-0.986934
-1.007180
-1.025646
-1.042582
-1.058195
-1.072662
-1.086131
-1.098742
-1.110634
-1.121958
-1.132895
-1.143660
-1.154505
-1.165714
-1.177576
-1.190357
-1.204265
-1.219415
-1.235803
-1.253296
-1.271633
-1.290438
-1.309242
-1.327509
-1.344665
-1.360151
-1.373338
-1.383675
-1.390653
-1.393819
-1.392783
-1.387225
-1.376905
-1.361663
-1.341426
-1.316211
-1.286122
-1.251349
-1.212164
-1.168919
-1.122030
-1.071977
-1.019284
-0.964509
-0.908233
-0.851037
-0.793494
-0.736150
-0.679512
-0.624038
-0.570129
-0.518122
-0.468286
-0.420829
-0.375893
-0.333564
-0.293875
-0.256817
-0.222339
-0.190364
-0.160792
-0.133504
-0.108372
-0.085261
-0.064033
-0.044552
-0.026683
-0.010296
0.004733
0.018522
0.031182
0.042815
0.053518
0.063379
0.072479
0.080892
0.088682
0.095909
0.102626
0.108880
0.114710
0.120151
0.125236
0.129990
0.134437
0.138595
0.142484
0.146119
0.149515
0.152685
0.155643
0.158402
0.160972
0.163366
0.165595
0.167669
0.169599
0.171394
0.173064
0.174617
0.176062
0.177407
0.178659
0.179824
0.180910
0.181921
0.182864
0.183743
0.184564
0.185330
0.186045
0.186713
0.187337
0.187921
0.188467
0.188977
0.189454
0.189900
0.190317
0.190707
0.191070
0.191409
0.191725
0.192018
0.192290
0.192540
0.192769
0.192978
0.193165
0.193331
0.193490
1.171077
1.170918
1.170470
1.169731
1.168698
1.167369
1.165736
1.163791
1.161525
1.158925
1.155976
1.152660
1.148955
1.144840
1.140287
1.135267
1.129745
1.123686
1.117047
1.109783
1.101842
1.093169
1.083701
1.073370
1.062100
1.049809
1.036405
1.021790
1.005856
0.988484
0.969548
0.948909
0.926421
0.901926
0.875257
0.846241
0.814695
0.780436
0.743276
0.703033
0.659533
0.612617
0.562149
0.508029
0.450197
0.388650
0.323455
0.254758
0.182799
0.107921
0.030582
-0.048647
-0.129071
-0.209890
-0.290207
-0.369059
-0.445454
-0.518428
-0.587099
-0.650736
-0.708832
-0.761151
-0.807738
-0.848878
-0.885033
-0.916760
-0.944650
-0.969273
-0.991153
-1.010748
-1.028443
-1.044551
-1.059322
-1.072950
-1.085583
-1.097341
-1.108329
-1.118652
-1.128441
-1.137866
-1.147161
-1.156628
-1.166630
-1.177560
-1.189800
-1.203661
-1.219336
-1.236858
-1.256089
-1.276721
-1.298303
-1.320267
-1.341968
-1.362713
-1.381846
-1.398648
-1.412472
-1.422738
-1.428929
-1.430601
-1.427390
-1.419016
-1.405289
-1.386116
-1.361498
-1.331536
-1.296425
-1.256450
-1.211984
-1.163477
-1.111444
-1.056460
-0.999137
-0.940113
-0.880032
-0.819530
-0.759212
-0.699644
-0.641331
-0.584716
-0.530169
-0.477985
-0.428384
-0.381516
-0.337466
-0.296263
-0.257884
-0.222268
-0.189321
-0.158926
-0.130950
-0.105247
-0.081668
-0.060063
-0.040282
-0.022181
-0.005622
0.009527
0.023391
0.036085
0.047717
0.058386
0.068186
0.077199
0.085501
0.093161
0.100242
0.106797
0.112877
0.118523
0.123775
0.128665
0.133222
0.137472
0.141437
0.145136
0.148588
0.151808
0.154812
0.157612
0.160222
0.162654
0.164919
0.167028
0.168992
0.170820
0.172521
0.174105
0.175579
0.176952
0.178230
0.179420
0.180530
0.181564
0.182528
0.183428
0.184268
0.185052
0.185784
0.186469
0.187108
0.187707
0.188266
0.188790
0.189280
0.189738
0.190167
0.190568
0.190943
0.191294
0.191620
0.191925
0.192207
0.192469
0.192710
0.192931
0.193132
0.193312
0.193472
0.193625
1.174096
1.173946
1.173523
1.172825
1.171848
1.170590
1.169042
1.167198
1.165047
1.162576
1.159770
1.156612
1.153083
1.149158
1.144811
1.140014
1.134733
1.128930
1.122565
1.115591
1.107958
1.099607
1.090477
1.080496
1.069589
1.057669
1.044642
1.030406
1.014846
0.997840
0.979251
0.958932
0.936725
0.912460
0.885953
0.857012
0.825435
0.791012
0.753529
0.712775
0.668541
0.620635
0.568886
0.513156
0.453354
0.389449
0.321487
0.249601
0.174036
0.095155
0.013455
-0.070424
-0.155697
-0.241435
-0.326582
-0.409989
-0.490460
-0.566812
-0.637958
-0.702994
-0.761317
-0.812708
-0.857353
-0.895758
-0.928638
-0.956792
-0.981011
-1.002022
-1.020456
-1.036839
-1.051591
-1.065032
-1.077397
-1.088850
-1.099499
-1.109417
-1.118654
-1.127264
-1.135330
-1.142999
-1.150516
-1.158239
-1.166642
-1.176267
-1.187664
-1.201301
-1.217484
-1.236301
-1.257599
-1.281006
-1.305960
-1.331764
-1.357632
-1.382732
-1.406222
-1.427351
-1.445330
-1.459500
-1.469280
-1.474166
-1.473741
-1.467682
-1.455764
-1.437869
-1.413981
-1.384197
-1.348713
-1.307831
-1.261946
-1.211544
-1.157187
-1.099503
-1.039169
-0.976895
-0.913401
-0.849397
-0.785565
-0.722538
-0.660884
-0.601097
-0.543585
-0.488672
-0.436596
-0.387512
-0.341504
-0.298591
-0.258737
-0.221863
-0.187855
-0.156575
-0.127869
-0.101574
-0.077521
-0.055543
-0.035478
-0.017168
-0.000464
0.014775
0.028681
0.041376
0.052975
0.063580
0.073289
0.082187
0.090356
0.097865
0.104780
0.111158
0.117051
0.122504
0.127557
0.132246
0.136601
0.140651
0.144419
0.147927
0.151193
0.154236
0.157069
0.159709
0.162167
0.164457
0.166589
0.168574
0.170422
0.172144
0.173746
0.175239
0.176629
0.177924
0.179131
0.180256
0.181305
0.182283
0.183196
0.184049
0.184845
0.185589
0.186285
0.186936
0.187544
0.188114
0.188647
0.189146
0.189614
0.190052
0.190462
0.190846
0.191205
0.191540
0.191854
0.192146
0.192417
0.192669
0.192901
0.193113
0.193307
0.193481
0.193634
0.193783
1.177387
1.177247
1.176850
1.176194
1.175277
1.174093
1.172637
1.170900
1.168872
1.166541
1.163891
1.160907
1.157568
1.153851
1.149731
1.145179
1.140162
1.134643
1.128581
1.121930
1.114638
1.106647
1.097894
1.088308
1.077809
1.066310
1.053713
1.039911
1.024785
1.008204
0.990025
0.970090
0.948230
0.924257
0.897973
0.869163
0.837602
0.803051
0.765265
0.723997
0.678999
0.630035
0.576891
0.519384
0.457380
0.390808
0.319682
0.244120
0.164360
0.080781
-0.006077
-0.095505
-0.186607
-0.278305
-0.369345
-0.458340
-0.543824
-0.624328
-0.698472
-0.765089
-0.823408
-0.873248
-0.915030
-0.949621
-0.978116
-1.001646
-1.021259
-1.037861
-1.052196
-1.064851
-1.076265
-1.086748
-1.096501
-1.105637
-1.114205
-1.122211
-1.129629
-1.136430
-1.142619
-1.148284
-1.153662
-1.159176
-1.165445
-1.173231
-1.183337
-1.196466
-1.213093
-1.233375
-1.257137
-1.283896
-1.312939
-1.343391
-1.374286
-1.404618
-1.433377
-1.459620
-1.482497
-1.501263
-1.515265
-1.523934
-1.526797
-1.523479
-1.513715
-1.497355
-1.474368
-1.444838
-1.408968
-1.367071
-1.319568
-1.266982
-1.209927
-1.149095
-1.085237
-1.019150
-0.951644
-0.883524
-0.815564
-0.748482
-0.682920
-0.619435
-0.558484
-0.500422
-0.445506
-0.393899
-0.345678
-0.300851
-0.259361
-0.221106
-0.185947
-0.153722
-0.124249
-0.097343
-0.072812
-0.050472
-0.030140
-0.011645
0.005175
0.020472
0.034388
0.047051
0.058583
0.069093
0.078682
0.087439
0.095449
0.102786
0.109517
0.115702
0.121395
0.126643
0.131489
0.135969
0.140118
0.143964
0.147532
0.150845
0.153923
0.156785
0.159447
0.161922
0.164226
0.166370
0.168365
0.170222
0.171951
0.173561
0.175061
0.176458
0.177759
0.178973
0.180104
0.181159
0.182143
0.183062
0.183921
0.184723
0.185472
0.186173
0.186829
0.187443
0.188018
0.188556
0.189061
0.189534
0.189977
0.190393
0.190782
0.191147
0.191489
0.191809
0.192108
0.192387
0.192647
0.192888
0.193111
0.193315
0.193501
0.193669
0.193817
0.193962
1.180935
1.180804
1.180434
1.179823
1.178968
1.177864
1.176505
1.174883
1.172987
1.170805
1.168324
1.165527
1.162394
1.158903
1.155030
1.150745
1.146017
1.140808
1.135078
1.128781
1.121865
1.114273
1.105939
1.096792
1.086750
1.075723
1.063612
1.050303
1.035674
1.019586
1.001887
0.982410
0.960970
0.937365
0.911377
0.882769
0.851288
0.816663
0.778613
0.736847
0.691072
0.641001
0.586362
0.526917
0.462473
0.392909
0.318195
0.238416
0.153797
0.064729
-0.028214
-0.124247
-0.222356
-0.321279
-0.419521
-0.515386
-0.607061
-0.692704
-0.770534
-0.838949
-0.896863
-0.944157
-0.981686
-1.010919
-1.033529
-1.051096
-1.064976
-1.076259
-1.085788
-1.094188
-1.101895
-1.109179
-1.116178
-1.122928
-1.129400
-1.135511
-1.141135
-1.146125
-1.150352
-1.153792
-1.156629
-1.159345
-1.162755
-1.167941
-1.176094
-1.188277
-1.205213
-1.227152
-1.253854
-1.284668
-1.318651
-1.354689
-1.391590
-1.428149
-1.463176
-1.495502
-1.524097
-1.548209
-1.567127
-1.580214
-1.586930
-1.586841
-1.579637
-1.565130
-1.543266
-1.514118
-1.477888
-1.434900
-1.385599
-1.330547
-1.270411
-1.205954
-1.138018
-1.067496
-0.995313
-0.922387
-0.849605
-0.777791
-0.707682
-0.639909
-0.574987
-0.513310
-0.455155
-0.400690
-0.349985
-0.303026
-0.259733
-0.219973
-0.183576
-0.150347
-0.120074
-0.092542
-0.067534
-0.044842
-0.024264
-0.005611
0.011295
0.026617
0.040508
0.053106
0.064539
0.074922
0.084361
0.092951
0.100778
0.107921
0.114449
0.120425
0.125904
0.130936
0.135565
0.139831
0.143766
0.147403
0.150767
0.153882
0.156769
0.159448
0.161934
0.164243
0.166389
0.168383
0.170238
0.171964
0.173570
0.175065
0.176458
0.177755
0.178964
0.180092
0.181143
0.182125
0.183041
0.183897
0.184697
0.185445
0.186145
0.186800
0.187413
0.187988
0.188527
0.189032
0.189506
0.189950
0.190368
0.190759
0.191127
0.191472
0.191796
0.192099
0.192383
0.192648
0.192896
0.193126
0.193339
0.193534
0.193713
0.193875
0.194020
0.194161
1.184720
1.184600
1.184259
1.183695
1.182905
1.181886
1.180629
1.179128
1.177372
1.175351
1.173050
1.170454
1.167543
1.164295
1.160688
1.156692
1.152276
1.147404
1.142036
1.136125
1.129621
1.122465
1.114593
1.105931
1.096396
1.085897
1.074330
1.061579
1.047515
1.031993
1.014852
0.995913
0.974979
0.951830
0.926227
0.897908
0.866589
0.831965
0.793713
0.751491
0.704951
0.653744
0.597529
0.535995
0.468877
0.395983
0.317221
0.232630
0.142409
0.046945
-0.053156
-0.157040
-0.263560
-0.371245
-0.478289
-0.582597
-0.681916
-0.773952
-0.856416
-0.926955
-0.983779
-1.026906
-1.058046
-1.079713
-1.094443
-1.104396
-1.111247
-1.116233
-1.120247
-1.123909
-1.127614
-1.131555
-1.135763
-1.140167
-1.144636
-1.148990
-1.152986
-1.156316
-1.158641
-1.159723
-1.159607
-1.158804
-1.158382
-1.159894
-1.165130
-1.175716
-1.192743
-1.216560
-1.246789
-1.282494
-1.322393
-1.365049
-1.408999
-1.452816
-1.495138
-1.534661
-1.569941
-1.600153
-1.624711
-1.642895
-1.654087
-1.657783
-1.653616
-1.641356
-1.620920
-1.592365
-1.555884
-1.511807
-1.460597
-1.402847
-1.339280
-1.270734
-1.198149
-1.122536
-1.044954
-0.966463
-0.888090
-0.810791
-0.735418
-0.662697
-0.593213
-0.527406
-0.465576
-0.407893
-0.354412
-0.305095
-0.259827
-0.218438
-0.180717
-0.146428
-0.115325
-0.087157
-0.061677
-0.038649
-0.017848
0.000935
0.017894
0.033208
0.047040
0.059538
0.070838
0.081063
0.090324
0.098719
0.106340
0.113268
0.119574
0.125324
0.130576
0.135380
0.139783
0.143825
0.147540
0.150962
0.154117
0.157030
0.159723
0.162214
0.164522
0.166662
0.168646
0.170489
0.172201
0.173792
0.175271
0.176648
0.177930
0.179124
0.180237
0.181275
0.182244
0.183148
0.183993
0.184782
0.185521
0.186212
0.186859
0.187466
0.188034
0.188567
0.189068
0.189538
0.189979
0.190394
0.190783
0.191150
0.191494
0.191818
0.192122
0.192408
0.192676
0.192927
0.193162
0.193380
0.193583
0.193771
0.193943
0.194099
0.194240
0.194378
1.188726
1.188616
1.188305
1.187790
1.187070
1.186138
1.184990
1.183617
1.182011
1.180160
1.178050
1.175667
1.172993
1.170006
1.166684
1.162998
1.158918
1.154409
1.149431
1.143939
1.137883
1.131203
1.123835
1.115705
1.106729
1.096814
1.085854
1.073728
1.060302
1.045425
1.028927
1.010618
0.990285
0.967693
0.942580
0.914656
0.883605
0.849082
0.810715
0.768107
0.720845
0.668503
0.610657
0.546905
0.476886
0.400314
0.317014
0.226956
0.130296
0.027407
-0.081087
-0.194267
-0.310857
-0.429135
-0.546899
-0.661506
-0.770152
-0.870084
-0.958591
-1.031949
-1.086537
-1.122774
-1.144205
-1.155189
-1.159503
-1.159941
-1.158409
-1.156169
-1.154056
-1.152623
-1.152181
-1.152799
-1.154340
-1.156577
-1.159265
-1.162142
-1.164860
-1.166912
-1.167648
-1.166446
-1.163046
-1.157903
-1.152383