# vtk DataFile Version 3.0
Scalar Field
ASCII
DATASET RECTILINEAR_GRID
DIMENSIONS 200 75 1
X_COORDINATES 200 double
0.050000 0.150000 0.250000 0.350000 0.450000 0.550000 0.650000 0.750000 0.850000 0.950000 1.050000 1.150000 1.250000 1.350000 1.450000 1.550000 1.650000 1.750000 1.850000 1.950000 2.050000 2.150000 2.250000 2.350000 2.450000 2.550000 2.650000 2.750000 2.850000 2.950000 3.050000 3.150000 3.250000 3.350000 3.450000 3.550000 3.650000 3.750000 3.850000 3.950000 4.050000 4.150000 4.250000 4.350000 4.450000 4.550000 4.650000 4.750000 4.850000 4.950000 5.050000 5.150000 5.250000 5.350000 5.450000 5.550000 5.650000 5.750000 5.850000 5.950000 6.050000 6.150000 6.250000 6.350000 6.450000 6.550000 6.650000 6.750000 6.850000 6.950000 7.050000 7.150000 7.250000 7.350000 7.450000 7.550000 7.650000 7.750000 7.850000 7.950000 8.050000 8.150000 8.250000 8.350000 8.450000 8.550000 8.650000 8.750000 8.850000 8.950000 9.050000 9.150000 9.250000 9.350000 9.450000 9.550000 9.650000 9.750000 9.850000 9.950000 10.050000 10.150000 10.250000 10.350000 10.450000 10.550000 10.650000 10.750000 10.850000 10.950000 11.050000 11.150000 11.250000 11.350000 11.450000 11.550000 11.650000 11.750000 11.850000 11.950000 12.050000 12.150000 12.250000 12.350000 12.450000 12.550000 12.650000 12.750000 12.850000 12.950000 13.050000 13.150000 13.250000 13.350000 13.450000 13.550000 13.650000 13.750000 13.850000 13.950000 14.050000 14.150000 14.250000 14.350000 14.450000 14.550000 14.650000 14.750000 14.850000 14.950000 15.050000 15.150000 15.250000 15.350000 15.450000 15.550000 15.650000 15.750000 15.850000 15.950000 16.050000 16.150000 16.250000 16.350000 16.450000 16.550000 16.650000 16.750000 16.850000 16.950000 17.050000 17.150000 17.250000 17.350000 17.450000 17.550000 17.650000 17.750000 17.850000 17.950000 18.050000 18.150000 18.250000 18.350000 18.450000 18.550000 18.650000 18.750000 18.850000 18.950000 19.050000 19.150000 19.250000 19.350000 19.450000 19.550000 19.650000 19.750000 19.850000 19.950000 
Y_COORDINATES 75 double
0.050000 0.150000 0.250000 0.350000 0.450000 0.550000 0.650000 0.750000 0.850000 0.950000 1.050000 1.150000 1.250000 1.350000 1.450000 1.550000 1.650000 1.750000 1.850000 1.950000 2.050000 2.150000 2.250000 2.350000 2.450000 2.550000 2.650000 2.750000 2.850000 2.950000 3.050000 3.150000 3.250000 3.350000 3.450000 3.550000 3.650000 3.750000 3.850000 3.950000 4.050000 4.150000 4.250000 4.350000 4.450000 4.550000 4.650000 4.750000 4.850000 4.950000 5.050000 5.150000 5.250000 5.350000 5.450000 5.550000 5.650000 5.750000 5.850000 5.950000 6.050000 6.150000 6.250000 6.350000 6.450000 6.550000 6.650000 6.750000 6.850000 6.950000 7.050000 7.150000 7.250000 7.350000 7.450000 
Z_COORDINATES 1 double
0.0
POINT_DATA 15000
SCALARS Skalarfeld double 1
LOOKUP_TABLE default
1.666958
1.665546
1.664364
1.663114
1.661680
1.660005
1.658056
1.655807
1.653240
1.650333
1.647068
1.643424
1.639377
1.634905
1.629981
1.624576
1.618659
1.612197
1.605152
1.597485
1.589154
1.580110
1.570305
1.559684
1.548189
1.535760
1.522329
1.507828
1.492182
1.475315
1.457144
1.437586
1.416553
1.393958
1.369711
1.343722
1.315905
1.286176
1.254459
1.220683
1.184793
1.146745
1.106516
1.064101
1.019526
0.972842
0.924134
0.873524
0.821170
0.767271
0.712064
0.655823
0.598855
0.541497
0.484107
0.427052
0.370706
0.315430
0.261568
0.209433
0.159297
0.111389
0.065886
0.022914
-0.017455
-0.055195
-0.090322
-0.122891
-0.152987
-0.180717
-0.206205
-0.229588
-0.251010
-0.270615
-0.288550
-0.304961
-0.319988
-0.333769
-0.346440
-0.358129
-0.368964
-0.379067
-0.388557
-0.397550
-0.406158
-0.414493
-0.422663
-0.430772
-0.438927
-0.447228
-0.455778
-0.464675
-0.474017
-0.483899
-0.494415
-0.505654
-0.517705
-0.530649
-0.544566
-0.559530
-0.575608
-0.592862
-0.611343
-0.631097
-0.652156
-0.674546
-0.698276
-0.723346
-0.749740
-0.777427
-0.806362
-0.836481
-0.867706
-0.899940
-0.933068
-0.966959
-1.001465
-1.036418
-1.071637
-1.106923
-1.142064
-1.176835
-1.210998
-1.244306
-1.276504
-1.307332
-1.336525
-1.363819
-1.388951
-1.411666
-1.431715
-1.448864
-1.462896
-1.473620
-1.480872
-1.484399
-1.484090
-1.479844
-1.471582
-1.459249
-1.442816
-1.422283
-1.397677
-1.369052
-1.336492
-1.300107
-1.260036
-1.216443
-1.169519
-1.119482
-1.066570
-1.011047
-0.953196
-0.893322
-0.831745
-0.768799
-0.704831
-0.640199
-0.575265
-0.510393
-0.445950
-0.382297
-0.319790
-0.258777
-0.199595
-0.142566
-0.088002
-0.036198
0.012568
0.058035
0.099958
0.138115
0.172307
0.202359
0.228130
0.249517
0.266463
0.278967
0.287095
0.290994
0.290912
0.287210
0.280393
0.271126
0.260253
0.248805
0.237961
0.228863
0.222269
0.218265
0.216355
0.216224
0.217229
0.219065
0.221440
0.224126
0.226978
0.229948
0.233093
0.236724
1.665852
1.665318
1.664431
1.663299
1.661922
1.660281
1.658356
1.656128
1.653579
1.650691
1.647445
1.643820
1.639794
1.635343
1.630441
1.625060
1.619169
1.612733
1.605715
1.598077
1.589774
1.580760
1.570985
1.560393
1.548928
1.536527
1.523124
1.508648
1.493025
1.476176
1.458020
1.438472
1.417442
1.394842
1.370581
1.344568
1.316714
1.286936
1.255154
1.221297
1.185308
1.147141
1.106773
1.064199
1.019441
0.972553
0.923621
0.872766
0.820151
0.765976
0.710481
0.653947
0.596687
0.539043
0.481380
0.424073
0.367503
0.312037
0.258026
0.205784
0.155589
0.107668
0.062196
0.019296
-0.020965
-0.058566
-0.093531
-0.125921
-0.155827
-0.183360
-0.208652
-0.231841
-0.253072
-0.272494
-0.290253
-0.306495
-0.321361
-0.334990
-0.347513
-0.359062
-0.369762
-0.379735
-0.389099
-0.397970
-0.406460
-0.414679
-0.422736
-0.430736
-0.438784
-0.446981
-0.455430
-0.464230
-0.473479
-0.483273
-0.493707
-0.504871
-0.516853
-0.529738
-0.543606
-0.558531
-0.574582
-0.591821
-0.610301
-0.630067
-0.651154
-0.673586
-0.697375
-0.722518
-0.749000
-0.776790
-0.805842
-0.836092
-0.867461
-0.899851
-0.933146
-0.967214
-1.001904
-1.037049
-1.072467
-1.107957
-1.143306
-1.178287
-1.212663
-1.246185
-1.278596
-1.309637
-1.339041
-1.366544
-1.391882
-1.414797
-1.435041
-1.452376
-1.466577
-1.477432
-1.484736
-1.488382
-1.488199
-1.484072
-1.475918
-1.463680
-1.447331
-1.426870
-1.402324
-1.373748
-1.341226
-1.304868
-1.264813
-1.221226
-1.174298
-1.124246
-1.071310
-1.015754
-0.957862
-0.897938
-0.836304
-0.773294
-0.709259
-0.644554
-0.579545
-0.514598
-0.450080
-0.386353
-0.323776
-0.262695
-0.203450
-0.146363
-0.091744
-0.039889
0.008927
0.054442
0.096414
0.134623
0.168869
0.198980
0.224815
0.246270
0.263287
0.275863
0.284060
0.288025
0.288000
0.284349
0.277579
0.268364
0.257564
0.246249
0.235651
0.226931
0.220805
0.217310
0.215948
0.215760
0.216757
0.218625
0.221002
0.223634
0.226364
0.229113
0.231908
0.235071
1.665742
1.665441
1.664741
1.663727
1.662425
1.660836
1.658952
1.656761
1.654246
1.651392
1.648181
1.644593
1.640606
1.636197
1.631340
1.626006
1.620164
1.613780
1.606818
1.599237
1.590994
1.582041
1.572329
1.561802
1.550401
1.538064
1.524723
1.510307
1.494740
1.477943
1.459831
1.440318
1.419314
1.396725
1.372460
1.346424
1.318526
1.288678
1.256797
1.222810
1.186654
1.148283
1.107668
1.064803
1.019709
0.972438
0.923076
0.871747
0.818618
0.763893
0.707821
0.650692
0.592831
0.534593
0.476357
0.418517
0.361465
0.305586
0.251240
0.198753
0.148407
0.100431
0.054997
0.012219
-0.027843
-0.065183
-0.099837
-0.131881
-0.161416
-0.188567
-0.213473
-0.236280
-0.257139
-0.276200
-0.293614
-0.309525
-0.324076
-0.337402
-0.349638
-0.360910
-0.371344
-0.381061
-0.390178
-0.398810
-0.407068
-0.415061
-0.422897
-0.430682
-0.438520
-0.446513
-0.454764
-0.463373
-0.472438
-0.482058
-0.492328
-0.503341
-0.515186
-0.527950
-0.541714
-0.556555
-0.572544
-0.589745
-0.608212
-0.627992
-0.649121
-0.671624
-0.695513
-0.720787
-0.747430
-0.775411
-0.804682
-0.835181
-0.866824
-0.899513
-0.933132
-0.967544
-1.002598
-1.038124
-1.073936
-1.109833
-1.145599
-1.181005
-1.215811
-1.249766
-1.282611
-1.314085
-1.343918
-1.371844
-1.397598
-1.420918
-1.441552
-1.459261
-1.473817
-1.485011
-1.492654
-1.496601
-1.496693
-1.492820
-1.484899
-1.472874
-1.456719
-1.436432
-1.412041
-1.383602
-1.351199
-1.314943
-1.274972
-1.231452
-1.184575
-1.134557
-1.081639
-1.026085
-0.968179
-0.908226
-0.846549
-0.783486
-0.719385
-0.654607
-0.589519
-0.524489
-0.459886
-0.396077
-0.333420
-0.272265
-0.212949
-0.155797
-0.101117
-0.049201
-0.000322
0.045263
0.087318
0.125628
0.160000
0.190269
0.216298
0.237989
0.255288
0.268195
0.276779
0.281188
0.281676
0.278616
0.272532
0.264113
0.254237
0.243956
0.234399
0.226532
0.220884
0.217456
0.215955
0.216072
0.217196
0.218699
0.220801
0.223099
0.225375
0.227467
0.229273
0.230760
1.666186
1.665960
1.665364
1.664440
1.663209
1.661680
1.659848
1.657704
1.655237
1.652432
1.649271
1.645737
1.641808
1.637460
1.632667
1.627402
1.621634
1.615328
1.608447
1.600952
1.592798
1.583938
1.574320
1.563890
1.552587
1.540348
1.527105
1.512783
1.497306
1.480592
1.462555
1.443105
1.422148
1.399589
1.375331
1.349274
1.321325
1.291388
1.259376
1.225211
1.188824
1.150162
1.109193
1.065907
1.020321
0.972485
0.922486
0.870450
0.816548
0.760994
0.704047
0.646012
0.587231
0.528080
0.468964
0.410297
0.352500
0.295977
0.241111
0.188242
0.137660
0.089597
0.044219
0.001630
-0.038128
-0.075068
-0.109249
-0.140764
-0.169738
-0.196311
-0.220636
-0.242870
-0.263171
-0.281696
-0.298595
-0.314015
-0.328097
-0.340977
-0.352786
-0.363649
-0.373690
-0.383029
-0.391781
-0.400059
-0.407973
-0.415633
-0.423144
-0.430612
-0.438139
-0.445831
-0.453789
-0.462114
-0.470908
-0.480269
-0.490296
-0.501082
-0.512722
-0.525303
-0.538910
-0.553623
-0.569516
-0.586654
-0.605096
-0.624890
-0.646075
-0.668677
-0.692708
-0.718170
-0.745045
-0.773303
-0.802896
-0.833757
-0.865804
-0.898935
-0.933031
-0.967953
-1.003547
-1.039639
-1.076039
-1.112544
-1.148933
-1.184974
-1.220424
-1.255027
-1.288524
-1.320645
-1.351122
-1.379682
-1.406057
-1.429982
-1.451200
-1.469468
-1.484554
-1.496248
-1.504363
-1.508748
-1.509239
-1.505733
-1.498148
-1.486431
-1.470555
-1.450520
-1.426355
-1.398116
-1.365888
-1.329781
-1.289935
-1.246517
-1.199717
-1.149753
-1.096865
-1.041318
-0.983396
-0.923405
-0.861669
-0.798528
-0.734333
-0.669448
-0.604241
-0.539087
-0.474357
-0.410421
-0.347640
-0.286368
-0.226941
-0.169684
-0.114903
-0.062886
-0.013901
0.031805
0.074003
0.112491
0.147088
0.177640
0.204025
0.226156
0.243993
0.257546
0.266895
0.272203
0.273731
0.271865
0.267129
0.260203
0.251921
0.243227
0.235070
0.228223
0.223126
0.219860
0.218254
0.217998
0.218718
0.220212
0.221747
0.223233
0.224600
0.225521
0.225722
0.224626
1.667044
1.666849
1.666313
1.665455
1.664289
1.662820
1.661045
1.658959
1.656551
1.653808
1.650713
1.647248
1.643394
1.639126
1.634419
1.629246
1.623574
1.617371
1.610599
1.603218
1.595183
1.586446
1.576957
1.566657
1.555488
1.543383
1.530272
1.516081
1.500729
1.484132
1.466202
1.446843
1.425959
1.403449
1.379211
1.353140
1.325134
1.295092
1.262920
1.228530
1.191847
1.152810
1.111380
1.067539
1.021301
0.972713
0.921860
0.868873
0.813926
0.757246
0.699107
0.639832
0.579789
0.519384
0.459053
0.399247
0.340419
0.283010
0.227429
0.174039
0.123142
0.074972
0.029688
-0.012624
-0.051947
-0.088322
-0.121839
-0.152623
-0.180824
-0.206607
-0.230143
-0.251603
-0.271156
-0.288963
-0.305177
-0.319945
-0.333407
-0.345696
-0.356939
-0.367262
-0.376784
-0.385623
-0.393893
-0.401704
-0.409166
-0.416384
-0.423465
-0.430513
-0.437630
-0.444921
-0.452490
-0.460438
-0.468870
-0.477886
-0.487587
-0.498071
-0.509434
-0.521769
-0.535164
-0.549702
-0.565462
-0.582513
-0.600917
-0.620725
-0.641979
-0.664707
-0.688924
-0.714631
-0.741813
-0.770437
-0.800454
-0.831798
-0.864382
-0.898101
-0.932834
-0.968437
-1.004752
-1.041600
-1.078789
-1.116107
-1.153331
-1.190223
-1.226535
-1.262009
-1.296377
-1.329369
-1.360709
-1.390120
-1.417328
-1.442063
-1.464064
-1.483080
-1.498875
-1.511233
-1.519962
-1.524911
-1.525921
-1.522889
-1.515738
-1.504416
-1.488897
-1.469182
-1.445299
-1.417307
-1.385290
-1.349360
-1.309658
-1.266349
-1.219624
-1.169701
-1.116820
-1.061246
-1.003263
-0.943178
-0.881317
-0.818021
-0.753646
-0.688557
-0.623130
-0.557742
-0.492772
-0.428592
-0.365571
-0.304063
-0.244410
-0.186934
-0.131941
-0.079713
-0.030511
0.015426
0.057885
0.096676
0.131637
0.162631
0.189556
0.212345
0.230975
0.245476
0.255943
0.262550
0.265566
0.265373
0.262476
0.257506
0.251208
0.244387
0.237817
0.232123
0.227692
0.224650
0.222920
0.222286
0.222461
0.223145
0.223989
0.224685
0.224770
0.224101
0.222309
0.218250
1.668256
1.668078
1.667582
1.666776
1.665668
1.664258
1.662547
1.660526
1.658187
1.655518
1.652502
1.649123
1.645360
1.641191
1.636591
1.631531
1.625980
1.619906
1.613269
1.606031
1.598146
1.589565
1.580237
1.570103
1.559102
1.547168
1.534227
1.520204
1.505015
1.488572
1.470782
1.451547
1.430764
1.408327
1.384126
1.358049
1.329986
1.299827
1.267468
1.232810
1.195768
1.156272
1.114271
1.069740
1.022685
0.973149
0.921215
0.867016
0.810735
0.752609
0.692933
0.632055
0.570376
0.508341
0.446428
0.385136
0.324967
0.266406
0.209902
0.155849
0.104566
0.056289
0.011163
-0.030749
-0.069468
-0.105075
-0.137704
-0.167520
-0.194709
-0.219468
-0.241990
-0.262465
-0.281070
-0.297974
-0.313331
-0.327287
-0.339978
-0.351533
-0.362076
-0.371728
-0.380606
-0.388825
-0.396496
-0.403728
-0.410628
-0.417300
-0.423847
-0.430371
-0.436977
-0.443768
-0.450849
-0.458325
-0.466302
-0.474883
-0.484174
-0.494276
-0.505289
-0.517310
-0.530434
-0.544749
-0.560336
-0.577272
-0.595623
-0.615444
-0.636780
-0.659663
-0.684110
-0.710123
-0.737686
-0.766769
-0.797320
-0.829270
-0.862529
-0.896990
-0.932525
-0.968987
-1.006211
-1.044014
-1.082196
-1.120540
-1.158817
-1.196783
-1.234184
-1.270755
-1.306224
-1.340314
-1.372742
-1.403228
-1.431489
-1.457249
-1.480239
-1.500200
-1.516889
-1.530080
-1.539575
-1.545209
-1.546853
-1.544402
-1.537783
-1.526944
-1.511860
-1.492531
-1.468989
-1.441289
-1.409519
-1.373791
-1.334245
-1.291047
-1.244388
-1.194484
-1.141575
-1.085924
-1.027816
-0.967558
-0.905477
-0.841916
-0.777233
-0.711801
-0.646000
-0.580213
-0.514826
-0.450221
-0.386770
-0.324835
-0.264761
-0.206874
-0.151476
-0.098848
-0.049244
-0.002890
0.040012
0.079292
0.114805
0.146439
0.174113
0.197784
0.217451
0.233165
0.245037
0.253250
0.258072
0.259868
0.259102
0.256337
0.252210
0.247389
0.242502
0.238061
0.234403
0.231680
0.229878
0.228859
0.228403
0.228242
0.228066
0.227551
0.226367
0.224080
0.220224
0.213327
1.669792
1.669626
1.669160
1.668398
1.667343
1.665994
1.664349
1.662400
1.660140
1.657556
1.654634
1.651355
1.647701
1.643650
1.639176
1.634251
1.628846
1.622925
1.616452
1.609386
1.601681
1.593289
1.584156
1.574225
1.563430
1.551705
1.538974
1.525158
1.510170
1.493920
1.476309
1.457234
1.436585
1.414248
1.390106
1.364038
1.335923
1.305639
1.273070
1.238105
1.200645
1.160607
1.117926
1.072566
1.024524
0.973834
0.920577
0.864888
0.806957
0.747036
0.685444
0.622561
0.558828
0.494739
0.430830
0.367662
0.305801
0.245793
0.188142
0.133281
0.081553
0.033194
-0.011667
-0.053010
-0.090903
-0.125487
-0.156953
-0.185521
-0.211425
-0.234898
-0.256162
-0.275426
-0.292878
-0.308691
-0.323019
-0.336004
-0.347775
-0.358457
-0.368167
-0.377020
-0.385131
-0.392611
-0.399570
-0.406112
-0.412343
-0.418363
-0.424271
-0.430170
-0.436162
-0.442351
-0.448845
-0.455751
-0.463176
-0.471231
-0.480023
-0.489659
-0.500244
-0.511881
-0.524672
-0.538709
-0.554083
-0.570873
-0.589154
-0.608984
-0.630415
-0.653482
-0.678203
-0.704584
-0.732610
-0.762248
-0.793446
-0.826131
-0.860211
-0.895572
-0.932083
-0.969588
-1.007917
-1.046880
-1.086268
-1.125858
-1.165413
-1.204682
-1.243403
-1.281305
-1.318109
-1.353530
-1.387280
-1.419069
-1.448608
-1.475614
-1.499807
-1.520920
-1.538697
-1.552900
-1.563316
-1.569764
-1.572152
-1.570388
-1.564399
-1.554134
-1.539565
-1.520693
-1.497548
-1.470189
-1.438703
-1.403203
-1.363830
-1.320747
-1.274147
-1.224241
-1.171269
-1.115490
-1.057189
-0.996671
-0.934263
-0.870311
-0.805176
-0.739234
-0.672873
-0.606485
-0.540464
-0.475201
-0.411078
-0.348466
-0.287715
-0.229157
-0.173096
-0.119811
-0.069550
-0.022531
0.021059
0.061066
0.097366
0.129870
0.158520
0.183299
0.204229
0.221381
0.234879
0.244911
0.251737
0.255694
0.257198
0.256733
0.254834
0.252046
0.248878
0.245751
0.242959
0.240660
0.238880
0.237538
0.236471
0.235458
0.234227
0.232475
0.229856
0.225965
0.220336
0.211151
1.671629
1.671473
1.671033
1.670312
1.669308
1.668021
1.666446
1.664577
1.662404
1.659917
1.657100
1.653937
1.650409
1.646493
1.642166
1.637399
1.632162
1.626422
1.620140
1.613275
1.605783
1.597613
1.588711
1.579018
1.568469
1.556993
1.544513
1.530947
1.516205
1.500190
1.482800
1.463924
1.443446
1.421243
1.397189
1.371150
1.342993
1.312583
1.279788
1.244483
1.206550
1.165889
1.122420
1.076090
1.026882
0.974822
0.919984
0.862503
0.802578
0.740477
0.676546
0.611204
0.544941
0.478315
0.411935
0.346441
0.282484
0.220693
0.161644
0.105826
0.053611
0.005238
-0.039199
-0.079734
-0.116508
-0.149743
-0.179707
-0.206694
-0.230994
-0.252886
-0.272625
-0.290438
-0.306525
-0.321058
-0.334187
-0.346046
-0.356756
-0.366429
-0.375176
-0.383106
-0.390329
-0.396953
-0.403086
-0.408831
-0.414288
-0.419553
-0.424722
-0.429893
-0.435168
-0.440652
-0.446455
-0.452689
-0.459465
-0.466897
-0.475097
-0.484178
-0.494253
-0.505431
-0.517820
-0.531523
-0.546636
-0.563248
-0.581438
-0.601274
-0.622811
-0.646090
-0.671133
-0.697946
-0.726517
-0.756810
-0.788773
-0.822329
-0.857381
-0.893809
-0.931474
-0.970214
-1.009850
-1.050183
-1.090995
-1.132055
-1.173116
-1.213919
-1.254194
-1.293661
-1.332034
-1.369021
-1.404325
-1.437648
-1.468694
-1.497169
-1.522785
-1.545261
-1.564329
-1.579735
-1.591242
-1.598641
-1.601877
-1.600908
-1.595653
-1.586056
-1.572086
-1.553744
-1.531061
-1.504095
-1.472936
-1.437697
-1.398518
-1.355564
-1.309022
-1.259102
-1.206040
-1.150090
-1.091534
-1.030674
-0.967834
-0.903361
-0.837620
-0.770992
-0.703870
-0.636656
-0.569755
-0.503570
-0.438496
-0.374914
-0.313185
-0.253649
-0.196615
-0.142364
-0.091141
-0.043157
0.001412
0.042427
0.079782
0.113409
0.143276
0.169387
0.191787
0.210564
0.225853
0.237843
0.246779
0.252969
0.256776
0.258611
0.258916
0.258135
0.256681
0.254900
0.253046
0.251271
0.249626
0.248072
0.246492
0.244709
0.242494
0.239575
0.235633
0.230295
0.223131
0.212182
1.673750
1.673602
1.673188
1.672505
1.671553
1.670330
1.668830
1.667047
1.664971
1.662590
1.659892
1.656859
1.653473
1.649712
1.645552
1.640964
1.635921
1.630386
1.624323
1.617690
1.610442
1.602529
1.593895
1.584479
1.574215
1.563031
1.550846
1.537575
1.523124
1.507392
1.490269
1.471638
1.451375
1.429346
1.405414
1.379432
1.351253
1.320724
1.287696
1.252023
1.213568
1.172209
1.127844
1.080401
1.029845
0.976185
0.919489
0.859888
0.797588
0.732876
0.666128
0.597808
0.528468
0.458743
0.389333
0.320983
0.254455
0.190488
0.129757
0.072827
0.020112
-0.028154
-0.071923
-0.111315
-0.146577
-0.178041
-0.206084
-0.231086
-0.253412
-0.273392
-0.291314
-0.307425
-0.321930
-0.334996
-0.346764
-0.357352
-0.366866
-0.375403
-0.383064
-0.389948
-0.396163
-0.401816
-0.407014
-0.411857
-0.416440
-0.420851
-0.425181
-0.429523
-0.433977
-0.438650
-0.443658
-0.449114
-0.455137
-0.461846
-0.469357
-0.477791
-0.487268
-0.497906
-0.509822
-0.523127
-0.537928
-0.554323
-0.572400
-0.592234
-0.613888
-0.637407
-0.662819
-0.690131
-0.719332
-0.750387
-0.783237
-0.817803
-0.853982
-0.891647
-0.930649
-0.970818
-1.011963
-1.053875
-1.096327
-1.139076
-1.181865
-1.224426
-1.266479
-1.307736
-1.347901
-1.386676
-1.423754
-1.458831
-1.491601
-1.521760
-1.549010
-1.573059
-1.593625
-1.610434
-1.623223
-1.631738
-1.635928
-1.635865
-1.631454
-1.622627
-1.609348
-1.591617
-1.569464
-1.542953
-1.512173
-1.477240
-1.438293
-1.395496
-1.349032
-1.299106
-1.245947
-1.189803
-1.130949
-1.069681
-1.006319
-0.941209
-0.874715
-0.807224
-0.739136
-0.670863
-0.602823
-0.535433
-0.469104
-0.404231
-0.341191
-0.280335
-0.221982
-0.166419
-0.113891
-0.064608
-0.018738
0.023592
0.062292
0.097313
0.128643
0.156307
0.180368
0.200928
0.218131
0.232163
0.243255
0.251684
0.257764
0.261842
0.264284
0.265451
0.265677
0.265249
0.264385
0.263227
0.261838
0.260208
0.258259
0.255854
0.252807
0.248886
0.243810
0.237253
0.228838
0.216470
1.676138
1.675999
1.675609
1.674966
1.674068
1.672911
1.671491
1.669800
1.667829
1.665567
1.663000
1.660111
1.656883
1.653294
1.649321
1.644936
1.640108
1.634806
1.628990
1.622620
1.615649
1.608028
1.599699
1.590600
1.580664
1.569816
1.557973
1.545046
1.530936
1.515537
1.498733
1.480399
1.460401
1.438594
1.414827
1.388940
1.360767
1.330136
1.296877
1.260820
1.221803
1.179676
1.134312
1.085612
1.033516
0.978015
0.919161
0.857081
0.791984
0.724176
0.654065
0.582169
0.509112
0.435623
0.362518
0.290677
0.221007
0.154392
0.091646
0.033442
-0.019749
-0.067699
-0.110439
-0.148216
-0.181435
-0.210583
-0.236176
-0.258708
-0.278628
-0.296324
-0.312117
-0.326267
-0.338976
-0.350399
-0.360656
-0.369842
-0.378039
-0.385325
-0.391782
-0.397503
-0.402592
-0.407160
-0.411314
-0.415157
-0.418773
-0.422240
-0.425637
-0.429049
-0.432577
-0.436332
-0.440433
-0.445005
-0.450170
-0.456051
-0.462773
-0.470463
-0.479249
-0.489260
-0.500624
-0.513464
-0.527898
-0.544035
-0.561972
-0.581795
-0.603574
-0.627361
-0.653189
-0.681069
-0.710987
-0.742907
-0.776769
-0.812485
-0.849945
-0.889013
-0.929529
-0.971312
-1.014158
-1.057846
-1.102135
-1.146772
-1.191487
-1.236002
-1.280026
-1.323264
-1.365412
-1.406161
-1.445200
-1.482215
-1.516892
-1.548920
-1.577990
-1.603799
-1.626053
-1.644464
-1.658744
-1.668596
-1.673860
-1.674832
-1.671385
-1.663438
-1.650950
-1.633918
-1.612379
-1.586398
-1.556069
-1.521509
-1.482859
-1.440279
-1.393947
-1.344060
-1.290838
-1.234518
-1.175363
-1.113661
-1.049724
-0.983891
-0.916527
-0.848019
-0.778776
-0.709220
-0.639784
-0.570902
-0.503004
-0.436506
-0.371803
-0.309264
-0.249223
-0.191977
-0.137779
-0.086840
-0.039325
0.004646
0.044995
0.081687
0.114727
0.144157
0.170055
0.192535
0.211747
0.227873
0.241130
0.251767
0.260057
0.266295
0.270784
0.273819
0.275676
0.276592
0.276754
0.276292
0.275276
0.273716
0.271564
0.268722
0.265043
0.260337
0.254370
0.246867
0.237508
0.224110
1.678777
1.678647
1.678282
1.677680
1.676837
1.675751
1.674416
1.672824
1.670967
1.668833
1.666409
1.663680
1.660626
1.657227
1.653460
1.649298
1.644712
1.639668
1.634128
1.628051
1.621391
1.614097
1.606112
1.597372
1.587808
1.577343
1.565891
1.553360
1.539646
1.524637
1.508209
1.490230
1.470554
1.449025
1.425477
1.399733
1.371606
1.340903
1.307428
1.270982
1.231372
1.188418
1.141957
1.091856
1.038026
0.980428
0.919095
0.854140
0.785775
0.714320
0.640220
0.564050
0.486520
0.408473
0.330870
0.254761
0.181243
0.111400
0.046236
-0.013416
-0.066995
-0.114291
-0.155461
-0.190956
-0.221411
-0.247531
-0.270014
-0.289492
-0.306510
-0.321511
-0.334846
-0.346776
-0.357488
-0.367112
-0.375734
-0.383413
-0.390195
-0.396129
-0.401276
-0.405719
-0.409563
-0.412930
-0.415938
-0.418689
-0.421260
-0.423706
-0.426085
-0.428473
-0.430968
-0.433692
-0.436777
-0.440354
-0.444554
-0.449505
-0.455335
-0.462181
-0.470179
-0.479474
-0.490205
-0.502509
-0.516517
-0.532350
-0.550118
-0.569919
-0.591830
-0.615913
-0.642204
-0.670716
-0.701436
-0.734324
-0.769314
-0.806310
-0.845193
-0.885814
-0.928000
-0.971555
-1.016262
-1.061884
-1.108166
-1.154841
-1.201629
-1.248237
-1.294369
-1.339717
-1.383972
-1.426819
-1.467939
-1.507013
-1.543720
-1.577740
-1.608757
-1.636461
-1.660549
-1.680725
-1.696697
-1.708163
-1.714686
-1.716836
-1.714481
-1.707530
-1.695937
-1.679706
-1.658877
-1.633524
-1.603745
-1.569664
-1.531419
-1.489167
-1.443078
-1.393341
-1.340157
-1.283751
-1.224369
-1.162280
-1.097784
-1.031211
-0.962919
-0.893295
-0.822753
-0.751728
-0.680667
-0.610026
-0.540258
-0.471804
-0.405086
-0.340494
-0.278386
-0.219076
-0.162829
-0.109865
-0.060351
-0.014406
0.027900
0.066541
0.101535
0.132937
0.160838
0.185361
0.206658
0.224911
0.240322
0.253119
0.263542
0.271846
0.278283
0.283102
0.286531
0.288768
0.289978
0.290278
0.289742
0.288394
0.286212
0.283130
0.279039
0.273790
0.267195
0.259032
0.249039
0.235005
1.681652
1.681531
1.681192
1.680631
1.679848
1.678836
1.677591
1.676106
1.674371
1.672376
1.670107
1.667550
1.664686
1.661495
1.657954
1.654038
1.649716
1.644956
1.639720
1.633968
1.627653
1.620723
1.613121
1.604783
1.595636
1.585603
1.574595
1.562515
1.549255
1.534697
1.518710
1.501151
1.481865
1.460680
1.437416
1.411874
1.383848
1.353117
1.319455
1.282630
1.242414
1.198584
1.150937
1.099298
1.043534
0.983572
0.919412
0.851148
0.778985
0.703258
0.624444
0.543182
0.460278
0.376713
0.293627
0.212289
0.134044
0.060241
-0.007846
-0.069139
-0.122923
-0.169020
-0.207807
-0.240063
-0.266769
-0.288935
-0.307489
-0.323223
-0.336778
-0.348647
-0.359193
-0.368662
-0.377208
-0.384915
-0.391817
-0.397921
-0.403225
-0.407735
-0.411480
-0.414532
-0.417007
-0.419052
-0.420813
-0.422401
-0.423873
-0.425248
-0.426543
-0.427817
-0.429173
-0.430753
-0.432708
-0.435186
-0.438321
-0.442244
-0.447085
-0.452989
-0.460105
-0.468593
-0.478609
-0.490307
-0.503831
-0.519316
-0.536887
-0.556652
-0.578702
-0.603105
-0.629901
-0.659105
-0.690700
-0.724644
-0.760859
-0.799241
-0.839657
-0.881942
-0.925908
-0.971342
-1.018010
-1.065658
-1.114017
-1.162804
-1.211726
-1.260483
-1.308767
-1.356266
-1.402663
-1.447640
-1.490873
-1.532039
-1.570812
-1.606865
-1.639876
-1.669529
-1.695515
-1.717540
-1.735324
-1.748602
-1.756790
-1.760230
-1.759082
-1.753232
-1.742636
-1.727306
-1.707295
-1.682687
-1.653592
-1.620137
-1.582463
-1.540719
-1.495068
-1.445681
-1.392740
-1.336446
-1.277021
-1.214709
-1.149789
-1.082571
-1.013400
-0.942661
-0.870767
-0.798164
-0.725318
-0.652706
-0.580810
-0.510104
-0.441040
-0.374043
-0.309499
-0.247747
-0.189075
-0.133718
-0.081852
-0.033600
0.010969
0.051834
0.089020
0.122593
0.152652
0.179328
0.202777
0.223178
0.240726
0.255629
0.268107
0.278381
0.286671
0.293188
0.298126
0.301657
0.303925
0.305040
0.305077
0.304072
0.302024
0.298895
0.294610
0.289059
0.282098
0.273553
0.263221
0.248906
1.684745
1.684634
1.684321
1.683805
1.683083
1.682150
1.681001
1.679629
1.678026
1.676179
1.674077
1.671705
1.669046
1.666080
1.662785
1.659135
1.655101
1.650651
1.645749
1.640352
1.634416
1.627888
1.620709
1.612816
1.604135
1.594586
1.584077
1.572507
1.559765
1.545724
1.530248
1.513183
1.494361
1.473599
1.450694
1.425430
1.397574
1.366876
1.333075
1.295902
1.255082
1.210346
1.161438
1.108129
1.050233
0.987626
0.920266
0.848215
0.771664
0.690950
0.606584
0.519265
0.429910
0.339659
0.249878
0.162115
0.078036
-0.000662
-0.072335
-0.135499
-0.189148
-0.233165
-0.268325
-0.295960
-0.317578
-0.334601
-0.348234
-0.359433
-0.368919
-0.377214
-0.384665
-0.391478
-0.397745
-0.403479
-0.408640
-0.413163
-0.416978
-0.420030
-0.422304
-0.423857
-0.424826
-0.425414
-0.425830
-0.426212
-0.426584
-0.426886
-0.427064
-0.427145
-0.427254
-0.427573
-0.428293
-0.429581
-0.431572
-0.434390
-0.438162
-0.443037
-0.449185
-0.456786
-0.466016
-0.477046
-0.490035
-0.505134
-0.522481
-0.542200
-0.564393
-0.589134
-0.616468
-0.646407
-0.678931
-0.713987
-0.751488
-0.791315
-0.833317
-0.877313
-0.923097
-0.970437
-1.019079
-1.068754
-1.119177
-1.170052
-1.221076
-1.271938
-1.322325
-1.371920
-1.420404
-1.467455
-1.512749
-1.555958
-1.596753
-1.634802
-1.669775
-1.701350
-1.729212
-1.753067
-1.772646
-1.787711
-1.798022
-1.802846
-1.802987
-1.798303
-1.788765
-1.774407
-1.755304
-1.731557
-1.703290
-1.670638
-1.633744
-1.592753
-1.547813
-1.499075
-1.446696
-1.390844
-1.331703
-1.269485
-1.204431
-1.136823
-1.066983
-0.995279
-0.922124
-0.847966
-0.773289
-0.698597
-0.624402
-0.551218
-0.479538
-0.409829
-0.342515
-0.277972
-0.216519
-0.158416
-0.103857
-0.052977
-0.005850
0.037502
0.077108
0.113040
0.145403
0.174335
0.199995
0.222562
0.242226
0.259185
0.273642
0.285799
0.295850
0.303983
0.310369
0.315161
0.318490
0.320459
0.321147
0.320600
0.318835
0.315837
0.311561
0.305933
0.298849
0.290179
0.279769
0.265484
1.688039
1.687938
1.687654
1.687184
1.686527
1.685677
1.684629
1.683377
1.681912
1.680224
1.678300
1.676127
1.673688
1.670963
1.667932
1.664569
1.660847
1.656733
1.652192
1.647183
1.641659
1.635570
1.628857
1.621454
1.613288
1.604275
1.594322
1.583326
1.571168
1.557718
1.542830
1.526340
1.508069
1.487816
1.465362
1.440467
1.412868
1.382285
1.348416
1.310947
1.269551
1.223901
1.173676
1.118580
1.058357
0.992817
0.921857
0.845495
0.763891
0.677379
0.586488
0.491980
0.394882
0.296528
0.198563
0.102905
0.011624
-0.073163
-0.149333
-0.214706
-0.267623
-0.308101
-0.337705
-0.358724
-0.373461
-0.383865
-0.391431
-0.397243
-0.402059
-0.406379
-0.410501
-0.414552
-0.418525
-0.422325
-0.425814
-0.428837
-0.431233
-0.432861
-0.433634
-0.433580
-0.432877
-0.431839
-0.430808
-0.429995
-0.429362
-0.428685
-0.427764
-0.426587
-0.425332
-0.424272
-0.423668
-0.423712
-0.424526
-0.426206
-0.428864
-0.432653
-0.437770
-0.444425
-0.452821
-0.463145
-0.475568
-0.490254
-0.507359
-0.527023
-0.549359
-0.574449
-0.602335
-0.633026
-0.666493
-0.702671
-0.741458
-0.782719
-0.826285
-0.871956
-0.919506
-0.968686
-1.019225
-1.070839
-1.123230
-1.176090
-1.229108
-1.281967
-1.334348
-1.385933
-1.436401
-1.485429
-1.532692
-1.577861
-1.620601
-1.660576
-1.697447
-1.730879
-1.760547
-1.786151
-1.807425
-1.824171
-1.836307
-1.842736
-1.844181
-1.840626
-1.832108
-1.818700
-1.800509
-1.777664
-1.750309
-1.718594
-1.682666
-1.642670
-1.598738
-1.551000
-1.499578
-1.444598
-1.386198
-1.324537
-1.259807
-1.192242
-1.122127
-1.049801
-0.975657
-0.900146
-0.823759
-0.747026
-0.670497
-0.594726
-0.520258
-0.447611
-0.377262
-0.309635
-0.245092
-0.183927
-0.126364
-0.072559
-0.022601
0.023485
0.065723
0.104188
0.138990
0.170271
0.198196
0.222945
0.244706
0.263674
0.280042
0.294001
0.305731
0.315405
0.323180
0.329198
0.333582
0.336435
0.337837
0.337845
0.336490
0.333780
0.329695
0.324191
0.317199
0.308629
0.298370
0.284374
1.691516
1.691426
1.691171
1.690750
1.690160
1.689397
1.688456
1.687331
1.686013
1.684492
1.682758
1.680796
1.678590
1.676123
1.673374
1.670319
1.666931
1.663178
1.659026
1.654434
1.649358
1.643746
1.637539
1.630672
1.623070
1.614650
1.605314
1.594956
1.583455
1.570673
1.556456
1.540632
1.523007
1.503366
1.481468
1.457049
1.429816
1.399451
1.365610
1.327926
1.286011
1.239467
1.187897
1.130917
1.068184
0.999417
0.924434
0.843186
0.755789
0.662555
0.564024