# vtk DataFile Version 3.0
Vector Field
ASCII
DATASET RECTILINEAR_GRID
DIMENSIONS 200 75 1
X_COORDINATES 200 double
0.050000 0.150000 0.250000 0.350000 0.450000 0.550000 0.650000 0.750000 0.850000 0.950000 1.050000 1.150000 1.250000 1.350000 1.450000 1.550000 1.650000 1.750000 1.850000 1.950000 2.050000 2.150000 2.250000 2.350000 2.450000 2.550000 2.650000 2.750000 2.850000 2.950000 3.050000 3.150000 3.250000 3.350000 3.450000 3.550000 3.650000 3.750000 3.850000 3.950000 4.050000 4.150000 4.250000 4.350000 4.450000 4.550000 4.650000 4.750000 4.850000 4.950000 5.050000 5.150000 5.250000 5.350000 5.450000 5.550000 5.650000 5.750000 5.850000 5.950000 6.050000 6.150000 6.250000 6.350000 6.450000 6.550000 6.650000 6.750000 6.850000 6.950000 7.050000 7.150000 7.250000 7.350000 7.450000 7.550000 7.650000 7.750000 7.850000 7.950000 8.050000 8.150000 8.250000 8.350000 8.450000 8.550000 8.650000 8.750000 8.850000 8.950000 9.050000 9.150000 9.250000 9.350000 9.450000 9.550000 9.650000 9.750000 9.850000 9.950000 10.050000 10.150000 10.250000 10.350000 10.450000 10.550000 10.650000 10.750000 10.850000 10.950000 11.050000 11.150000 11.250000 11.350000 11.450000 11.550000 11.650000 11.750000 11.850000 11.950000 12.050000 12.150000 12.250000 12.350000 12.450000 12.550000 12.650000 12.750000 12.850000 12.950000 13.050000 13.150000 13.250000 13.350000 13.450000 13.550000 13.650000 13.750000 13.850000 13.950000 14.050000 14.150000 14.250000 14.350000 14.450000 14.550000 14.650000 14.750000 14.850000 14.950000 15.050000 15.150000 15.250000 15.350000 15.450000 15.550000 15.650000 15.750000 15.850000 15.950000 16.050000 16.150000 16.250000 16.350000 16.450000 16.550000 16.650000 16.750000 16.850000 16.950000 17.050000 17.150000 17.250000 17.350000 17.450000 17.550000 17.650000 17.750000 17.850000 17.950000 18.050000 18.150000 18.250000 18.350000 18.450000 18.550000 18.650000 18.750000 18.850000 18.950000 19.050000 19.150000 19.250000 19.350000 19.450000 19.550000 19.650000 19.750000 19.850000 19.950000 
Y_COORDINATES 75 double
0.050000 0.150000 0.250000 0.350000 0.450000 0.550000 0.650000 0.750000 0.850000 0.950000 1.050000 1.150000 1.250000 1.350000 1.450000 1.550000 1.650000 1.750000 1.850000 1.950000 2.050000 2.150000 2.250000 2.350000 2.450000 2.550000 2.650000 2.750000 2.850000 2.950000 3.050000 3.150000 3.250000 3.350000 3.450000 3.550000 3.650000 3.750000 3.850000 3.950000 4.050000 4.150000 4.250000 4.350000 4.450000 4.550000 4.650000 4.750000 4.850000 4.950000 5.050000 5.150000 5.250000 5.350000 5.450000 5.550000 5.650000 5.750000 5.850000 5.950000 6.050000 6.150000 6.250000 6.350000 6.450000 6.550000 6.650000 6.750000 6.850000 6.950000 7.050000 7.150000 7.250000 7.350000 7.450000 
Z_COORDINATES 1 double
0.0
POINT_DATA 15000
VECTORS Vektorfeld double
0.999725 0.000275 0.0
0.999080 0.000371 0.0
0.998392 0.000316 0.0
0.997873 0.000202 0.0
0.997611 0.000060 0.0
0.997650 -0.000099 0.0
0.998018 -0.000269 0.0
0.998737 -0.000450 0.0
0.999825 -0.000638 0.0
1.001300 -0.000836 0.0
1.003179 -0.001043 0.0
1.005482 -0.001260 0.0
1.008228 -0.001486 0.0
1.011438 -0.001724 0.0
1.015135 -0.001973 0.0
1.019344 -0.002236 0.0
1.024091 -0.002511 0.0
1.029403 -0.002801 0.0
1.035310 -0.003106 0.0
1.041843 -0.003427 0.0
1.049035 -0.003765 0.0
1.056920 -0.004120 0.0
1.065533 -0.004493 0.0
1.074912 -0.004885 0.0
1.085094 -0.005297 0.0
1.096118 -0.005727 0.0
1.108022 -0.006177 0.0
1.120846 -0.006647 0.0
1.134628 -0.007135 0.0
1.149405 -0.007642 0.0
1.165214 -0.008167 0.0
1.182088 -0.008707 0.0
1.200058 -0.009263 0.0
1.219151 -0.009830 0.0
1.239388 -0.010407 0.0
1.260787 -0.010991 0.0
1.283355 -0.011577 0.0
1.307095 -0.012162 0.0
1.331997 -0.012740 0.0
1.358043 -0.013306 0.0
1.385203 -0.013853 0.0
1.413431 -0.014375 0.0
1.442671 -0.014864 0.0
1.472848 -0.015313 0.0
1.503875 -0.015714 0.0
1.535646 -0.016057 0.0
1.568040 -0.016337 0.0
1.600920 -0.016543 0.0
1.634135 -0.016671 0.0
1.667518 -0.016713 0.0
1.700895 -0.016664 0.0
1.734080 -0.016521 0.0
1.766884 -0.016283 0.0
1.799117 -0.015950 0.0
1.830592 -0.015525 0.0
1.861131 -0.015013 0.0
1.890566 -0.014422 0.0
1.918747 -0.013760 0.0
1.945547 -0.013039 0.0
1.970858 -0.012272 0.0
1.994603 -0.011472 0.0
2.016726 -0.010652 0.0
2.037202 -0.009824 0.0
2.056027 -0.009001 0.0
2.073222 -0.008193 0.0
2.088825 -0.007410 0.0
2.102891 -0.006657 0.0
2.115487 -0.005940 0.0
2.126690 -0.005263 0.0
2.136580 -0.004627 0.0
2.145242 -0.004034 0.0
2.152760 -0.003484 0.0
2.159217 -0.002974 0.0
2.164695 -0.002504 0.0
2.169270 -0.002072 0.0
2.173017 -0.001676 0.0
2.176007 -0.001314 0.0
2.178304 -0.000984 0.0
2.179973 -0.000685 0.0
2.181073 -0.000415 0.0
2.181662 -0.000173 0.0
2.181795 0.000040 0.0
2.181528 0.000228 0.0
2.180907 0.000393 0.0
2.179976 0.000538 0.0
2.178773 0.000665 0.0
2.177331 0.000777 0.0
2.175679 0.000875 0.0
2.173843 0.000962 0.0
2.171841 0.001040 0.0
2.169692 0.001110 0.0
2.167408 0.001174 0.0
2.165003 0.001232 0.0
2.162487 0.001284 0.0
2.159872 0.001330 0.0
2.157173 0.001369 0.0
2.154405 0.001399 0.0
2.151588 0.001418 0.0
2.148745 0.001424 0.0
2.145906 0.001415 0.0
2.143101 0.001389 0.0
2.140370 0.001343 0.0
2.137754 0.001274 0.0
2.135298 0.001181 0.0
2.133055 0.001062 0.0
2.131080 0.000914 0.0
2.129433 0.000733 0.0
2.128185 0.000515 0.0
2.127420 0.000250 0.0
2.127234 -0.000064 0.0
2.127711 -0.000413 0.0
2.128916 -0.000792 0.0
2.130910 -0.001201 0.0
2.133750 -0.001639 0.0
2.137494 -0.002105 0.0
2.142198 -0.002599 0.0
2.147914 -0.003118 0.0
2.154690 -0.003658 0.0
2.162564 -0.004216 0.0
2.171567 -0.004787 0.0
2.181720 -0.005366 0.0
2.193031 -0.005945 0.0
2.205497 -0.006520 0.0
2.219101 -0.007084 0.0
2.233816 -0.007630 0.0
2.249600 -0.008153 0.0
2.266400 -0.008647 0.0
2.284153 -0.009106 0.0
2.302783 -0.009525 0.0
2.322207 -0.009899 0.0
2.342330 -0.010225 0.0
2.363053 -0.010498 0.0
2.384264 -0.010714 0.0
2.405850 -0.010872 0.0
2.427689 -0.010967 0.0
2.449654 -0.010998 0.0
2.471613 -0.010961 0.0
2.493430 -0.010856 0.0
2.514967 -0.010681 0.0
2.536082 -0.010434 0.0
2.556629 -0.010114 0.0
2.576464 -0.009721 0.0
2.595441 -0.009255 0.0
2.613411 -0.008716 0.0
2.630231 -0.008104 0.0
2.645756 -0.007421 0.0
2.659846 -0.006669 0.0
2.672363 -0.005849 0.0
2.683178 -0.004965 0.0
2.692164 -0.004021 0.0
2.699206 -0.003021 0.0
2.704202 -0.001974 0.0
2.707071 -0.000896 0.0
2.707785 0.000182 0.0
2.706326 0.001277 0.0
2.702655 0.002394 0.0
2.696728 0.003532 0.0
2.688508 0.004688 0.0
2.677963 0.005857 0.0
2.665070 0.007036 0.0
2.649815 0.008220 0.0
2.632190 0.009405 0.0
2.612196 0.010588 0.0
2.589843 0.011765 0.0
2.565145 0.012933 0.0
2.538125 0.014087 0.0
2.508815 0.015223 0.0
2.477252 0.016340 0.0
2.443480 0.017432 0.0
2.407551 0.018497 0.0
2.369523 0.019531 0.0
2.329460 0.020532 0.0
2.287432 0.021495 0.0
2.243518 0.022419 0.0
2.197797 0.023301 0.0
2.150358 0.024138 0.0
2.101292 0.024929 0.0
2.050692 0.025671 0.0
1.998659 0.026362 0.0
1.945295 0.027002 0.0
1.890705 0.027588 0.0
1.834998 0.028118 0.0
1.778291 0.028589 0.0
1.720704 0.028998 0.0
1.662368 0.029338 0.0
1.603425 0.029605 0.0
1.544032 0.029788 0.0
1.484366 0.029878 0.0
1.424628 0.029860 0.0
1.365049 0.029720 0.0
1.305889 0.029440 0.0
1.247444 0.029005 0.0
1.190039 0.028400 0.0
1.134037 0.027602 0.0
1.079898 0.026538 0.0
1.028354 0.025006 0.0
0.980722 0.022626 0.0
0.939146 0.018950 0.0
0.906580 0.013616 0.0
0.884342 0.008622 0.0
1.000270 0.000280 0.0
1.001010 0.000271 0.0
1.002096 0.000018 0.0
1.003466 -0.000352 0.0
1.005129 -0.000786 0.0
1.007098 -0.001261 0.0
1.009389 -0.001767 0.0
1.012017 -0.002299 0.0
1.014996 -0.002855 0.0
1.018338 -0.003436 0.0
1.022058 -0.004043 0.0
1.026173 -0.004677 0.0
1.030699 -0.005340 0.0
1.035654 -0.006035 0.0
1.041057 -0.006763 0.0
1.046930 -0.007528 0.0
1.053295 -0.008331 0.0
1.060178 -0.009176 0.0
1.067604 -0.010064 0.0
1.075601 -0.010999 0.0
1.084200 -0.011983 0.0
1.093430 -0.013017 0.0
1.103326 -0.014105 0.0
1.113920 -0.015247 0.0
1.125249 -0.016446 0.0
1.137348 -0.017701 0.0
1.150255 -0.019015 0.0
1.164008 -0.020386 0.0
1.178644 -0.021814 0.0
1.194201 -0.023297 0.0
1.210714 -0.024834 0.0
1.228219 -0.026420 0.0
1.246749 -0.028050 0.0
1.266333 -0.029719 0.0
1.286996 -0.031419 0.0
1.308759 -0.033141 0.0
1.331636 -0.034873 0.0
1.355634 -0.036604 0.0
1.380751 -0.038318 0.0
1.406975 -0.039999 0.0
1.434283 -0.041628 0.0
1.462639 -0.043185 0.0
1.491994 -0.044649 0.0
1.522283 -0.045995 0.0
1.553425 -0.047201 0.0
1.585323 -0.048240 0.0
1.617864 -0.049089 0.0
1.650919 -0.049725 0.0
1.684341 -0.050126 0.0
1.717972 -0.050272 0.0
1.751639 -0.050148 0.0
1.785162 -0.049745 0.0
1.818354 -0.049056 0.0
1.851026 -0.048083 0.0
1.882993 -0.046834 0.0
1.914075 -0.045324 0.0
1.944105 -0.043576 0.0
1.972934 -0.041616 0.0
2.000431 -0.039480 0.0
2.026490 -0.037204 0.0
2.051033 -0.034827 0.0
2.074004 -0.032392 0.0
2.095379 -0.029935 0.0
2.115156 -0.027492 0.0
2.133355 -0.025096 0.0
2.150017 -0.022772 0.0
2.165197 -0.020541 0.0
2.178963 -0.018418 0.0
2.191391 -0.016415 0.0
2.202562 -0.014536 0.0
2.212558 -0.012784 0.0
2.221463 -0.011157 0.0
2.229359 -0.009653 0.0
2.236323 -0.008267 0.0
2.242431 -0.006992 0.0
2.247754 -0.005825 0.0
2.252359 -0.004758 0.0
2.256310 -0.003787 0.0
2.259666 -0.002907 0.0
2.262485 -0.002112 0.0
2.264818 -0.001399 0.0
2.266715 -0.000764 0.0
2.268217 -0.000203 0.0
2.269368 0.000293 0.0
2.270210 0.000727 0.0
2.270780 0.001109 0.0
2.271113 0.001443 0.0
2.271235 0.001737 0.0
2.271172 0.001999 0.0
2.270944 0.002233 0.0
2.270566 0.002444 0.0
2.270051 0.002638 0.0
2.269411 0.002814 0.0
2.268655 0.002974 0.0
2.267794 0.003116 0.0
2.266842 0.003236 0.0
2.265812 0.003330 0.0
2.264725 0.003392 0.0
2.263603 0.003415 0.0
2.262475 0.003393 0.0
2.261372 0.003319 0.0
2.260331 0.003185 0.0
2.259395 0.002984 0.0
2.258610 0.002711 0.0
2.258025 0.002360 0.0
2.257694 0.001923 0.0
2.257670 0.001395 0.0
2.258003 0.000767 0.0
2.258734 0.000032 0.0
2.259887 -0.000813 0.0
2.261502 -0.001757 0.0
2.263645 -0.002797 0.0
2.266385 -0.003930 0.0
2.269792 -0.005157 0.0
2.273933 -0.006473 0.0
2.278872 -0.007874 0.0
2.284667 -0.009354 0.0
2.291372 -0.010903 0.0
2.299035 -0.012509 0.0
2.307694 -0.014158 0.0
2.317382 -0.015835 0.0
2.328118 -0.017523 0.0
2.339914 -0.019204 0.0
2.352769 -0.020859 0.0
2.366670 -0.022471 0.0
2.381593 -0.024020 0.0
2.397503 -0.025490 0.0
2.414352 -0.026864 0.0
2.432083 -0.028127 0.0
2.450626 -0.029264 0.0
2.469904 -0.030261 0.0
2.489829 -0.031108 0.0
2.510307 -0.031793 0.0
2.531235 -0.032306 0.0
2.552503 -0.032639 0.0
2.573995 -0.032783 0.0
2.595590 -0.032731 0.0
2.617163 -0.032477 0.0
2.638583 -0.032017 0.0
2.659718 -0.031346 0.0
2.680431 -0.030462 0.0
2.700586 -0.029363 0.0
2.720045 -0.028048 0.0
2.738670 -0.026518 0.0
2.756324 -0.024776 0.0
2.772874 -0.022824 0.0
2.788188 -0.020670 0.0
2.802141 -0.018319 0.0
2.814613 -0.015781 0.0
2.825490 -0.013069 0.0
2.834669 -0.010195 0.0
2.842050 -0.007178 0.0
2.847534 -0.004045 0.0
2.850985 -0.000832 0.0
2.852275 0.002461 0.0
2.851327 0.005828 0.0
2.848093 0.009259 0.0
2.842535 0.012740 0.0
2.834625 0.016260 0.0
2.824344 0.019807 0.0
2.811681 0.023368 0.0
2.796630 0.026932 0.0
2.779196 0.030489 0.0
2.759389 0.034025 0.0
2.737228 0.037532 0.0
2.712738 0.040997 0.0
2.685951 0.044410 0.0
2.656906 0.047761 0.0
2.625650 0.051039 0.0
2.592234 0.054234 0.0
2.556720 0.057337 0.0
2.519172 0.060337 0.0
2.479663 0.063226 0.0
2.438270 0.065996 0.0
2.395078 0.068638 0.0
2.350173 0.071145 0.0
2.303649 0.073513 0.0
2.255601 0.075734 0.0
2.206129 0.077804 0.0
2.155337 0.079718 0.0
2.103330 0.081470 0.0
2.050219 0.083054 0.0
1.996118 0.084461 0.0
1.941151 0.085680 0.0
1.885446 0.086696 0.0
1.829147 0.087489 0.0
1.772413 0.088031 0.0
1.715424 0.088290 0.0
1.658388 0.088222 0.0
1.601546 0.087779 0.0
1.545185 0.086902 0.0
1.489646 0.085527 0.0
1.435354 0.083575 0.0
1.382851 0.080932 0.0
1.332841 0.077357 0.0
1.286202 0.072368 0.0
1.243915 0.065184 0.0
1.206913 0.054970 0.0
1.175843 0.041231 0.0
1.153098 0.025991 0.0
1.000153 -0.000143 0.0
1.000685 -0.000578 0.0
1.001621 -0.001154 0.0
1.002903 -0.001831 0.0
1.004510 -0.002576 0.0
1.006443 -0.003373 0.0
1.008708 -0.004212 0.0
1.011315 -0.005089 0.0
1.014275 -0.006003 0.0
1.017600 -0.006955 0.0
1.021303 -0.007948 0.0
1.025399 -0.008983 0.0
1.029904 -0.010065 0.0
1.034837 -0.011197 0.0
1.040216 -0.012383 0.0
1.046062 -0.013627 0.0
1.052397 -0.014933 0.0
1.059247 -0.016306 0.0
1.066638 -0.017750 0.0
1.074596 -0.019269 0.0
1.083152 -0.020867 0.0
1.092337 -0.022548 0.0
1.102183 -0.024316 0.0
1.112726 -0.026173 0.0
1.124000 -0.028123 0.0
1.136043 -0.030166 0.0
1.148892 -0.032306 0.0
1.162586 -0.034541 0.0
1.177164 -0.036872 0.0
1.192663 -0.039295 0.0
1.209121 -0.041808 0.0
1.226576 -0.044405 0.0
1.245060 -0.047079 0.0
1.264607 -0.049820 0.0
1.285242 -0.052617 0.0
1.306990 -0.055454 0.0
1.329867 -0.058314 0.0
1.353882 -0.061176 0.0
1.379037 -0.064017 0.0
1.405322 -0.066809 0.0
1.432717 -0.069521 0.0
1.461189 -0.072120 0.0
1.490690 -0.074569 0.0
1.521156 -0.076830 0.0
1.552510 -0.078861 0.0
1.584653 -0.080621 0.0
1.617473 -0.082069 0.0
1.650837 -0.083164 0.0
1.684598 -0.083869 0.0
1.718591 -0.084151 0.0
1.752639 -0.083984 0.0
1.786555 -0.083348 0.0
1.820144 -0.082234 0.0
1.853208 -0.080642 0.0
1.885551 -0.078586 0.0
1.916987 -0.076090 0.0
1.947337 -0.073191 0.0
1.976445 -0.069937 0.0
2.004175 -0.066385 0.0
2.030415 -0.062598 0.0
2.055086 -0.058645 0.0
2.078134 -0.054593 0.0
2.099535 -0.050509 0.0
2.119294 -0.046453 0.0
2.137437 -0.042477 0.0
2.154012 -0.038627 0.0
2.169082 -0.034936 0.0
2.182722 -0.031429 0.0
2.195014 -0.028124 0.0
2.206045 -0.025028 0.0
2.215902 -0.022145 0.0
2.224671 -0.019471 0.0
2.232437 -0.017001 0.0
2.239279 -0.014726 0.0
2.245274 -0.012636 0.0
2.250493 -0.010723 0.0
2.255003 -0.008975 0.0
2.258866 -0.007385 0.0
2.262143 -0.005943 0.0
2.264889 -0.004641 0.0
2.267159 -0.003473 0.0
2.269002 -0.002430 0.0
2.270468 -0.001505 0.0
2.271601 -0.000690 0.0
2.272444 0.000026 0.0
2.273033 0.000652 0.0
2.273400 0.001200 0.0
2.273575 0.001683 0.0
2.273579 0.002112 0.0
2.273430 0.002497 0.0
2.273142 0.002846 0.0
2.272725 0.003168 0.0
2.272186 0.003463 0.0
2.271532 0.003734 0.0
2.270771 0.003977 0.0
2.269912 0.004186 0.0
2.268967 0.004354 0.0
2.267951 0.004470 0.0
2.266886 0.004524 0.0
2.265795 0.004504 0.0
2.264709 0.004398 0.0
2.263661 0.004194 0.0
2.262689 0.003882 0.0
2.261837 0.003451 0.0
2.261151 0.002892 0.0
2.260677 0.002196 0.0
2.260468 0.001355 0.0
2.260576 0.000365 0.0
2.261057 -0.000777 0.0
2.261971 -0.002071 0.0
2.263382 -0.003525 0.0
2.265351 -0.005140 0.0
2.267941 -0.006916 0.0
2.271214 -0.008851 0.0
2.275234 -0.010939 0.0
2.280062 -0.013174 0.0
2.285757 -0.015544 0.0
2.292373 -0.018034 0.0
2.299959 -0.020626 0.0
2.308557 -0.023298 0.0
2.318200 -0.026026 0.0
2.328912 -0.028781 0.0
2.340704 -0.031535 0.0
2.353577 -0.034257 0.0
2.367519 -0.036917 0.0
2.382506 -0.039485 0.0
2.398502 -0.041931 0.0
2.415458 -0.044229 0.0
2.433317 -0.046351 0.0
2.452008 -0.048274 0.0
2.471453 -0.049974 0.0
2.491563 -0.051432 0.0
2.512242 -0.052627 0.0
2.533386 -0.053544 0.0
2.554885 -0.054167 0.0
2.576620 -0.054482 0.0
2.598470 -0.054477 0.0
2.620308 -0.054142 0.0
2.642003 -0.053467 0.0
2.663420 -0.052447 0.0
2.684421 -0.051077 0.0
2.704870 -0.049352 0.0
2.724625 -0.047273 0.0
2.743547 -0.044841 0.0
2.761500 -0.042059 0.0
2.778345 -0.038936 0.0
2.793951 -0.035479 0.0
2.808190 -0.031702 0.0
2.820940 -0.027620 0.0
2.832085 -0.023252 0.0
2.841518 -0.018622 0.0
2.849140 -0.013755 0.0
2.854864 -0.008676 0.0
2.858620 -0.003407 0.0
2.860350 0.002016 0.0
2.860005 0.007565 0.0
2.857545 0.013216 0.0
2.852938 0.018947 0.0
2.846162 0.024739 0.0
2.837201 0.030570 0.0
2.826048 0.036422 0.0
2.812703 0.042275 0.0
2.797171 0.048112 0.0
2.779467 0.053913 0.0
2.759612 0.059661 0.0
2.737631 0.065338 0.0
2.713559 0.070928 0.0
2.687436 0.076411 0.0
2.659308 0.081773 0.0
2.629230 0.086994 0.0
2.597261 0.092061 0.0
2.563467 0.096956 0.0
2.527920 0.101664 0.0
2.490697 0.106173 0.0
2.451881 0.110469 0.0
2.411559 0.114540 0.0
2.369824 0.118378 0.0
2.326769 0.121971 0.0
2.282493 0.125314 0.0
2.237097 0.128396 0.0
2.190684 0.131211 0.0
2.143360 0.133747 0.0
2.095236 0.135992 0.0
2.046426 0.137927 0.0
1.997052 0.139528 0.0
1.947248 0.140760 0.0
1.897161 0.141581 0.0
1.846957 0.141933 0.0
1.796830 0.141743 0.0
1.747008 0.140922 0.0
1.697767 0.139362 0.0
1.649441 0.136930 0.0
1.602450 0.133455 0.0
1.557312 0.128693 0.0
1.514654 0.122265 0.0
1.475159 0.113593 0.0
1.439475 0.101929 0.0
1.408134 0.086568 0.0
1.381597 0.067241 0.0
1.361450 0.042874 0.0
1.000116 -0.000413 0.0
1.000559 -0.001282 0.0
1.001398 -0.002226 0.0
1.002598 -0.003240 0.0
1.004139 -0.004316 0.0
1.006017 -0.005444 0.0
1.008232 -0.006621 0.0
1.010792 -0.007846 0.0
1.013704 -0.009118 0.0
1.016979 -0.010441 0.0
1.020631 -0.011817 0.0
1.024673 -0.013252 0.0
1.029120 -0.014750 0.0
1.033991 -0.016316 0.0
1.039304 -0.017956 0.0
1.045079 -0.019676 0.0
1.051341 -0.021482 0.0
1.058112 -0.023379 0.0
1.065419 -0.025375 0.0
1.073290 -0.027474 0.0
1.081755 -0.029683 0.0
1.090846 -0.032008 0.0
1.100595 -0.034452 0.0
1.111038 -0.037022 0.0
1.122210 -0.039721 0.0
1.134151 -0.042552 0.0
1.146897 -0.045517 0.0
1.160490 -0.048617 0.0
1.174969 -0.051852 0.0
1.190374 -0.055219 0.0
1.206745 -0.058714 0.0
1.224121 -0.062330 0.0
1.242538 -0.066056 0.0
1.262031 -0.069882 0.0
1.282630 -0.073790 0.0
1.304362 -0.077760 0.0
1.327248 -0.081769 0.0
1.351300 -0.085788 0.0
1.376523 -0.089783 0.0
1.402912 -0.093717 0.0
1.430452 -0.097547 0.0
1.459111 -0.101225 0.0
1.488846 -0.104700 0.0
1.519596 -0.107916 0.0
1.551283 -0.110816 0.0
1.583811 -0.113339 0.0
1.617066 -0.115426 0.0
1.650912 -0.117018 0.0
1.685198 -0.118061 0.0
1.719753 -0.118507 0.0
1.754390 -0.118315 0.0
1.788913 -0.117456 0.0
1.823114 -0.115915 0.0
1.856781 -0.113692 0.0
1.889705 -0.110803 0.0
1.921681 -0.107284 0.0
1.952521 -0.103187 0.0
1.982053 -0.098581 0.0
2.010131 -0.093549 0.0
2.036639 -0.088184 0.0
2.061493 -0.082584 0.0
2.084641 -0.076850 0.0
2.106064 -0.071077 0.0
2.125774 -0.065354 0.0
2.143809 -0.059755 0.0
2.160227 -0.054343 0.0
2.175103 -0.049166 0.0
2.188524 -0.044259 0.0
2.200580 -0.039643 0.0
2.211368 -0.035328 0.0
2.220982 -0.031316 0.0
2.229513 -0.027601 0.0
2.237049 -0.024173 0.0
2.243672 -0.021019 0.0
2.249459 -0.018125 0.0
2.254481 -0.015475 0.0
2.258806 -0.013056 0.0
2.262494 -0.010855 0.0
2.265604 -0.008860 0.0
2.268193 -0.007059 0.0
2.270314 -0.005445 0.0
2.272018 -0.004006 0.0
2.273354 -0.002732 0.0
2.274368 -0.001611 0.0
2.275103 -0.000631 0.0
2.275598 0.000225 0.0
2.275886 0.000972 0.0
2.275996 0.001628 0.0
2.275949 0.002210 0.0
2.275761 0.002735 0.0
2.275443 0.003214 0.0
2.275002 0.003658 0.0
2.274442 0.004072 0.0
2.273766 0.004455 0.0
2.272978 0.004805 0.0
2.272084 0.005112 0.0
2.271093 0.005364 0.0
2.270020 0.005548 0.0
2.268883 0.005648 0.0
2.267706 0.005647 0.0
2.266520 0.005527 0.0
2.265359 0.005274 0.0
2.264262 0.004871 0.0
2.263272 0.004304 0.0
2.262437 0.003561 0.0
2.261806 0.002631 0.0
2.261432 0.001503 0.0
2.261371 0.000171 0.0
2.261680 -0.001372 0.0
2.262421 -0.003131 0.0
2.263656 -0.005111 0.0
2.265449 -0.007316 0.0
2.267865 -0.009746 0.0
2.270970 -0.012400 0.0
2.274830 -0.015271 0.0
2.279511 -0.018351 0.0
2.285074 -0.021625 0.0
2.291579 -0.025074 0.0
2.299080 -0.028673 0.0
2.307622 -0.032391 0.0
2.317242 -0.036195 0.0
2.327965 -0.040046 0.0
2.339806 -0.043902 0.0
2.352765 -0.047721 0.0
2.366830 -0.051460 0.0
2.381977 -0.055075 0.0
2.398167 -0.058527 0.0
2.415350 -0.061774 0.0
2.433466 -0.064781 0.0
2.452443 -0.067512 0.0
2.472198 -0.069936 0.0
2.492641 -0.072023 0.0
2.513674 -0.073747 0.0
2.535190 -0.075084 0.0
2.557075 -0.076011 0.0
2.579211 -0.076509 0.0
2.601472 -0.076562 0.0
2.623731 -0.076153 0.0
2.645852 -0.075272 0.0
2.667701 -0.073908 0.0
2.689137 -0.072054 0.0
2.710019 -0.069705 0.0
2.730205 -0.066861 0.0
2.749554 -0.063524 0.0
2.767925 -0.059699 0.0
2.785178 -0.055395 0.0
2.801178 -0.050626 0.0
2.815793 -0.045409 0.0
2.828898 -0.039767 0.0
2.840374 -0.033726 0.0
2.850110 -0.027317 0.0
2.858005 -0.020577 0.0
2.863971 -0.013544 0.0
2.867933 -0.006258 0.0
2.869836 0.001233 0.0
2.869636 0.008892 0.0
2.867303 0.016684 0.0
2.862811 0.024579 0.0
2.856147 0.032548 0.0
2.847304 0.040564 0.0
2.836285 0.048599 0.0
2.823100 0.056627 0.0
2.807770 0.064621 0.0
2.790322 0.072555 0.0
2.770791 0.080405 0.0
2.749220 0.088146 0.0
2.725659 0.095753 0.0
2.700166 0.103202 0.0
2.672807 0.110469 0.0
2.643653 0.117530 0.0
2.612783 0.124363 0.0
2.580284 0.130946 0.0
2.546247 0.137258 0.0
2.510771 0.143279 0.0
2.473957 0.148992 0.0
2.435914 0.154382 0.0
2.396751 0.159434 0.0
2.356582 0.164138 0.0
2.315522 0.168483 0.0
2.273687 0.172459 0.0
2.231193 0.176056 0.0
2.188156 0.179263 0.0
2.144695 0.182063 0.0
2.100927 0.184435 0.0
2.056973 0.186347 0.0
2.012962 0.187757 0.0
1.969028 0.188606 0.0
1.925321 0.188818 0.0
1.882013 0.188293 0.0
1.839301 0.186906 0.0
1.797420 0.184501 0.0
1.756656 0.180881 0.0
1.717353 0.175798 0.0
1.679920 0.168920 0.0
1.644815 0.159802 0.0
1.612496 0.147869 0.0
1.583365 0.132468 0.0
1.557734 0.113002 0.0
1.535876 0.089202 0.0
1.518574 0.058361 0.0
1.000101 -0.000631 0.0
1.000499 -0.001905 0.0
1.001275 -0.003218 0.0
1.002409 -0.004581 0.0
1.003888 -0.005995 0.0
1.005706 -0.007461 0.0
1.007863 -0.008978 0.0
1.010364 -0.010550 0.0
1.013216 -0.012178 0.0
1.016428 -0.013868 0.0
1.020012 -0.015625 0.0
1.023982 -0.017455 0.0
1.028352 -0.019364 0.0
1.033140 -0.021360 0.0
1.038364 -0.023449 0.0
1.044045 -0.025640 0.0
1.050206 -0.027940 0.0
1.056871 -0.030357 0.0
1.064066 -0.032899 0.0
1.071820 -0.035574 0.0
1.080161 -0.038390 0.0
1.089123 -0.041353 0.0
1.098739 -0.044472 0.0
1.109045 -0.047751 0.0
1.120078 -0.051197 0.0
1.131877 -0.054814 0.0
1.144481 -0.058605 0.0
1.157933 -0.062573 0.0
1.172273 -0.066716 0.0
1.187545 -0.071032 0.0
1.203791 -0.075517 0.0
1.221052 -0.080163 0.0
1.239369 -0.084957 0.0
1.258779 -0.089885 0.0
1.279318 -0.094926 0.0
1.301016 -0.100055 0.0
1.323899 -0.105243 0.0
1.347984 -0.110452 0.0
1.373284 -0.115642 0.0
1.399797 -0.120762 0.0
1.427514 -0.125758 0.0
1.456408 -0.130568 0.0
1.486441 -0.135125 0.0
1.517555 -0.139356 0.0
1.549676 -0.143184 0.0
1.582708 -0.146531 0.0
1.616536 -0.149316 0.0
1.651021 -0.151460 0.0
1.686006 -0.152890 0.0
1.721312 -0.153539 0.0
1.756742 -0.153350 0.0
1.792082 -0.152284 0.0
1.827110 -0.150316 0.0
1.861594 -0.147443 0.0
1.895304 -0.143686 0.0
1.928015 -0.139089 0.0
1.959517 -0.133724 0.0
1.989621 -0.127681 0.0
2.018168 -0.121074 0.0
2.045030 -0.114029 0.0
2.070120 -0.106682 0.0
2.093388 -0.099168 0.0
2.114823 -0.091618 0.0
2.134449 -0.084149 0.0
2.152318 -0.076863 0.0
2.168505 -0.069840 0.0
2.183103 -0.063143 0.0
2.196212 -0.056812 0.0
2.207939 -0.050874 0.0
2.218391 -0.045337 0.0
2.227671 -0.040200 0.0
2.235878 -0.035454 0.0
2.243103 -0.031081 0.0
2.249431 -0.027062 0.0
2.254940 -0.023377 0.0
2.259701 -0.020006 0.0
2.263778 -0.016928 0.0
2.267233 -0.014127 0.0
2.270124 -0.011589 0.0
2.272503 -0.009299 0.0
2.274426 -0.007248 0.0
2.275942 -0.005423 0.0
2.277102 -0.003811 0.0
2.277955 -0.002399 0.0
2.278545 -0.001169 0.0
2.278914 -0.000101 0.0
2.279096 0.000827 0.0
2.279119 0.001639 0.0
2.279005 0.002360 0.0
2.278768 0.003011 0.0
2.278414 0.003610 0.0
2.277945 0.004172 0.0
2.277361 0.004703 0.0
2.276659 0.005203 0.0
2.275837 0.005667 0.0
2.274898 0.006083 0.0
2.273848 0.006434 0.0
2.272697 0.006702 0.0
2.271464 0.006864 0.0
2.270172 0.006898 0.0
2.268853 0.006782 0.0
2.267540 0.006493 0.0
2.266275 0.006013 0.0
2.265103 0.005323 0.0
2.264072 0.004408 0.0
2.263235 0.003252 0.0
2.262645 0.001845 0.0
2.262361 0.000175 0.0
2.262441 -0.001766 0.0
2.262948 -0.003985 0.0
2.263946 -0.006490 0.0
2.265500 -0.009285 0.0
2.267679 -0.012372 0.0
2.270551 -0.015751 0.0
2.274189 -0.019417 0.0
2.278661 -0.023357 0.0
2.284036 -0.027557 0.0
2.290379 -0.031991 0.0
2.297751 -0.036628 0.0
2.306202 -0.041429 0.0
2.315773 -0.046349 0.0
2.326495 -0.051337 0.0
2.338383 -0.056339 0.0
2.351440 -0.061299 0.0
2.365651 -0.066159 0.0
2.380992 -0.070863 0.0
2.397421 -0.075358 0.0
2.414885 -0.079591 0.0
2.433321 -0.083515 0.0
2.452652 -0.087085 0.0
2.472793 -0.090259 0.0
2.493650 -0.093000 0.0
2.515120 -0.095273 0.0
2.537094 -0.097047 0.0
2.559454 -0.098294 0.0
2.582080 -0.098988 0.0
2.604843 -0.099108 0.0
2.627612 -0.098634 0.0
2.650251 -0.097551 0.0
2.672620 -0.095846 0.0
2.694579 -0.093510 0.0
2.715984 -0.090536 0.0
2.736691 -0.086924 0.0
2.756556 -0.082675 0.0
2.775435 -0.077797 0.0
2.793187 -0.072301 0.0
2.809672 -0.066205 0.0
2.824757 -0.059530 0.0
2.838312 -0.052306 0.0
2.850214 -0.044565 0.0
2.860347 -0.036348 0.0
2.868607 -0.027702 0.0
2.874901 -0.018678 0.0
2.879149 -0.009334 0.0
2.881293 0.000263 0.0
2.881293 0.010061 0.0
2.879121 0.020020 0.0
2.874756 0.030099 0.0
2.868185 0.040263 0.0
2.859403 0.050474 0.0
2.848415 0.060696 0.0
2.835236 0.070894 0.0
2.819887 0.081032 0.0
2.802403 0.091077 0.0
2.782823 0.100995 0.0
2.761198 0.110753 0.0
2.737587 0.120318 0.0
2.712058 0.129658 0.0
2.684690 0.138741 0.0
2.655567 0.147534 0.0
2.624788 0.156008 0.0
2.592456 0.164132 0.0
2.558685 0.171879 0.0
2.523598 0.179222 0.0
2.487323 0.186138 0.0
2.449997 0.192607 0.0
2.411759 0.198611 0.0
2.372754 0.204136 0.0
2.333129 0.209170 0.0
2.293032 0.213704 0.0
2.252608 0.217728 0.0
2.212004 0.221231 0.0
2.171361 0.224198 0.0
2.130822 0.226607 0.0
2.090523 0.228427 0.0
2.050602 0.229610 0.0
2.011199 0.230091 0.0
1.972457 0.229781 0.0
1.934530 0.228564 0.0
1.897587 0.226290 0.0
1.861818 0.222766 0.0
1.827444 0.217755 0.0
1.794714 0.210957 0.0
1.763907 0.202001 0.0
1.735310 0.190425 0.0
1.709183 0.175692 0.0
1.685725 0.157235 0.0
1.665058 0.134533 0.0
1.647240 0.107346 0.0
1.632494 0.072264 0.0
1.000093 -0.000826 0.0
1.000463 -0.002478 0.0
1.001193 -0.004151 0.0
1.002272 -0.005861 0.0
1.003692 -0.007614 0.0
1.005449 -0.009416 0.0
1.007542 -0.011273 0.0
1.009975 -0.013189 0.0
1.012755 -0.015170 0.0
1.015890 -0.017223 0.0
1.019391 -0.019355 0.0
1.023271 -0.021574 0.0
1.027545 -0.023889 0.0
1.032230 -0.026307 0.0
1.037344 -0.028839 0.0
1.042907 -0.031494 0.0
1.048942 -0.034282 0.0
1.055473 -0.037211 0.0
1.062526 -0.040294 0.0
1.070131 -0.043538 0.0
1.078316 -0.046954 0.0
1.087115 -0.050551 0.0
1.096562 -0.054338 0.0
1.106694 -0.058322 0.0
1.117548 -0.062512 0.0
1.129164 -0.066914 0.0
1.141585 -0.071531 0.0
1.154854 -0.076367 0.0
1.169015 -0.081422 0.0
1.184112 -0.086695 0.0
1.200192 -0.092180 0.0
1.217299 -0.097868 0.0
1.235478 -0.103747 0.0
1.254772 -0.109799 0.0
1.275221 -0.115999 0.0
1.296862 -0.122320 0.0
1.319725 -0.128724 0.0
1.343837 -0.135169 0.0
1.369215 -0.141602 0.0
1.395866 -0.147966 0.0
1.423787 -0.154191 0.0
1.452959 -0.160202 0.0
1.483350 -0.165914 0.0
1.514907 -0.171238 0.0
1.547560 -0.176076 0.0
1.581215 -0.180327 0.0
1.615756 -0.183888 0.0
1.651042 -0.186659 0.0
1.686908 -0.188542 0.0
1.723165 -0.189449 0.0
1.759602 -0.189306 0.0
1.795987 -0.188054 0.0
1.832075 -0.185661 0.0
1.867609 -0.182116 0.0
1.902331 -0.177444 0.0
1.935989 -0.171699 0.0
1.968343 -0.164970 0.0
1.999181 -0.157377 0.0
2.028323 -0.149066 0.0
2.055628 -0.140205 0.0
2.081004 -0.130972 0.0
2.104404 -0.121546 0.0
2.125828 -0.112099 0.0
2.145317 -0.102783 0.0
2.162944 -0.093726 0.0
2.178809 -0.085029 0.0
2.193026 -0.076768 0.0
2.205718 -0.068988 0.0
2.217010 -0.061716 0.0
2.227022 -0.054959 0.0
2.235871 -0.048707 0.0
2.243662 -0.042944 0.0
2.250492 -0.037645 0.0
2.256448 -0.032782 0.0
2.261608 -0.028326 0.0
2.266042 -0.024251 0.0
2.269812 -0.020531 0.0
2.272979 -0.017145 0.0
2.275595 -0.014076 0.0
2.277713 -0.011310 0.0
2.279386 -0.008833 0.0
2.280665 -0.006633 0.0
2.281603 -0.004698 0.0
2.282251 -0.003012 0.0
2.282657 -0.001552 0.0
2.282865 -0.000294 0.0
2.282914 0.000790 0.0
2.282831 0.001735 0.0
2.282638 0.002571 0.0
2.282345 0.003330 0.0
2.281954 0.004036 0.0
2.281461 0.004708 0.0
2.280856 0.005355 0.0
2.280130 0.005978 0.0
2.279275 0.006568 0.0
2.278286 0.007109 0.0
2.277165 0.007580 0.0
2.275920 0.007952 0.0
2.274569 0.008199 0.0
2.273133 0.008290 0.0
2.271645 0.008197 0.0
2.270142 0.007893 0.0
2.268665 0.007354 0.0
2.267263 0.006557 0.0
2.265987 0.005482 0.0
2.264889 0.004113 0.0
2.264028 0.002435 0.0
2.263461 0.000436 0.0
2.263251 -0.001896 0.0
2.263460 -0.004570 0.0
2.264154 -0.007596 0.0
2.265401 -0.010980 0.0
2.267273 -0.014727 0.0
2.269843 -0.018839 0.0
2.273186 -0.023309 0.0
2.277379 -0.028129 0.0
2.282498 -0.033279 0.0
2.288617 -0.038731 0.0
2.295804 -0.044446 0.0
2.304116 -0.050375 0.0
2.313604 -0.056462 0.0
2.324299 -0.062642 0.0
2.336220 -0.068845 0.0
2.349371 -0.075000 0.0
2.363737 -0.081035 0.0
2.379288 -0.086879 0.0
2.395981 -0.092464 0.0
2.413756 -0.097726 0.0
2.432544 -0.102605 0.0
2.452265 -0.107047 0.0
2.472826 -0.111000 0.0
2.494129 -0.114419 0.0
2.516065 -0.117261 0.0
2.538521 -0.119489 0.0
2.561376 -0.121068 0.0
2.584505 -0.121968 0.0
2.607777 -0.122163 0.0
2.631058 -0.121629 0.0
2.654210 -0.120348 0.0
2.677093 -0.118303 0.0
2.699566 -0.115484 0.0
2.721484 -0.111885 0.0
2.742703 -0.107502 0.0
2.763079 -0.102338 0.0
2.782469 -0.096403 0.0
2.800731 -0.089709 0.0
2.817725 -0.082277 0.0
2.833315 -0.074133 0.0
2.847370 -0.065312 0.0
2.859763 -0.055854 0.0
2.870377 -0.045806 0.0
2.879098 -0.035225 0.0
2.885827 -0.024176 0.0
2.890478 -0.012734 0.0
2.892982 -0.000986 0.0
2.893299 0.010993 0.0
2.891402 0.023156 0.0
2.887271 0.035459 0.0
2.880893 0.047854 0.0
2.872264 0.060296 0.0
2.861387 0.072739 0.0
2.848278 0.085139 0.0
2.832960 0.097453 0.0
2.815466 0.109635 0.0
2.795838 0.121645 0.0
2.774128 0.133439 0.0
2.750396 0.144975 0.0
2.724716 0.156211 0.0
2.697168 0.167105 0.0
2.667846 0.177615 0.0
2.636854 0.187699 0.0
2.604309 0.197318 0.0
2.570339 0.206434 0.0
2.535082 0.215011 0.0
2.498689 0.223017 0.0
2.461319 0.230424 0.0
2.423139 0.237210 0.0
2.384326 0.243355 0.0
2.345057 0.248845 0.0
2.305515 0.253669 0.0
2.265883 0.257819 0.0
2.226342 0.261286 0.0
2.187069 0.264058 0.0
2.148240 0.266117 0.0
2.110019 0.267436 0.0
2.072570 0.267970 0.0
2.036047 0.267656 0.0
2.000603 0.266402 0.0
1.966386 0.264087 0.0
1.933547 0.260549 0.0
1.902241 0.255581 0.0
1.872627 0.248928 0.0
1.844870 0.240271 0.0
1.819132 0.229231 0.0
1.795557 0.215366 0.0
1.774246 0.198188 0.0
1.755234 0.177208 0.0
1.738478 0.151982 0.0
1.723854 0.122339 0.0
1.711232 0.084639 0.0
1.000088 -0.001007 0.0