# vtk DataFile Version 3.0
Scalar Field
ASCII
DATASET RECTILINEAR_GRID
DIMENSIONS 200 75 1
X_COORDINATES 200 double
0.050000 0.150000 0.250000 0.350000 0.450000 0.550000 0.650000 0.750000 0.850000 0.950000 1.050000 1.150000 1.250000 1.350000 1.450000 1.550000 1.650000 1.750000 1.850000 1.950000 2.050000 2.150000 2.250000 2.350000 2.450000 2.550000 2.650000 2.750000 2.850000 2.950000 3.050000 3.150000 3.250000 3.350000 3.450000 3.550000 3.650000 3.750000 3.850000 3.950000 4.050000 4.150000 4.250000 4.350000 4.450000 4.550000 4.650000 4.750000 4.850000 4.950000 5.050000 5.150000 5.250000 5.350000 5.450000 5.550000 5.650000 5.750000 5.850000 5.950000 6.050000 6.150000 6.250000 6.350000 6.450000 6.550000 6.650000 6.750000 6.850000 6.950000 7.050000 7.150000 7.250000 7.350000 7.450000 7.550000 7.650000 7.750000 7.850000 7.950000 8.050000 8.150000 8.250000 8.350000 8.450000 8.550000 8.650000 8.750000 8.850000 8.950000 9.050000 9.150000 9.250000 9.350000 9.450000 9.550000 9.650000 9.750000 9.850000 9.950000 10.050000 10.150000 10.250000 10.350000 10.450000 10.550000 10.650000 10.750000 10.850000 10.950000 11.050000 11.150000 11.250000 11.350000 11.450000 11.550000 11.650000 11.750000 11.850000 11.950000 12.050000 12.150000 12.250000 12.350000 12.450000 12.550000 12.650000 12.750000 12.850000 12.950000 13.050000 13.150000 13.250000 13.350000 13.450000 13.550000 13.650000 13.750000 13.850000 13.950000 14.050000 14.150000 14.250000 14.350000 14.450000 14.550000 14.650000 14.750000 14.850000 14.950000 15.050000 15.150000 15.250000 15.350000 15.450000 15.550000 15.650000 15.750000 15.850000 15.950000 16.050000 16.150000 16.250000 16.350000 16.450000 16.550000 16.650000 16.750000 16.850000 16.950000 17.050000 17.150000 17.250000 17.350000 17.450000 17.550000 17.650000 17.750000 17.850000 17.950000 18.050000 18.150000 18.250000 18.350000 18.450000 18.550000 18.650000 18.750000 18.850000 18.950000 19.050000 19.150000 19.250000 19.350000 19.450000 19.550000 19.650000 19.750000 19.850000 19.950000 
Y_COORDINATES 75 double
0.050000 0.150000 0.250000 0.350000 0.450000 0.550000 0.650000 0.750000 0.850000 0.950000 1.050000 1.150000 1.250000 1.350000 1.450000 1.550000 1.650000 1.750000 1.850000 1.950000 2.050000 2.150000 2.250000 2.350000 2.450000 2.550000 2.650000 2.750000 2.850000 2.950000 3.050000 3.150000 3.250000 3.350000 3.450000 3.550000 3.650000 3.750000 3.850000 3.950000 4.050000 4.150000 4.250000 4.350000 4.450000 4.550000 4.650000 4.750000 4.850000 4.950000 5.050000 5.150000 5.250000 5.350000 5.450000 5.550000 5.650000 5.750000 5.850000 5.950000 6.050000 6.150000 6.250000 6.350000 6.450000 6.550000 6.650000 6.750000 6.850000 6.950000 7.050000 7.150000 7.250000 7.350000 7.450000 
Z_COORDINATES 1 double
0.0
POINT_DATA 15000
SCALARS Skalarfeld double 1
LOOKUP_TABLE default
1.432731
1.431328
1.430170
1.428961
1.427583
1.425981
1.424119
1.421975
1.419528
1.416760
1.413650
1.410178
1.406322
1.402057
1.397359
1.392198
1.386543
1.380360
1.373613
1.366260
1.358260
1.349563
1.340120
1.329875
1.318769
1.306739
1.293718
1.279633
1.264409
1.247964
1.230215
1.211075
1.190452
1.168254
1.144389
1.118761
1.091280
1.061857
1.030411
0.996868
0.961167
0.923260
0.883121
0.840742
0.796144
0.749379
0.700531
0.649721
0.597109
0.542894
0.487318
0.430656
0.373221
0.315352
0.257410
0.199766
0.142793
0.086853
0.032286
-0.020602
-0.071545
-0.120329
-0.166791
-0.210826
-0.252384
-0.291464
-0.328114
-0.362419
-0.394499
-0.424498
-0.452581
-0.478926
-0.503719
-0.527153
-0.549424
-0.570728
-0.591262
-0.611223
-0.630807
-0.650207
-0.669618
-0.689227
-0.709221
-0.729775
-0.751059
-0.773224
-0.796407
-0.820723
-0.846259
-0.873076
-0.901202
-0.930630
-0.961317
-0.993186
-1.026123
-1.059977
-1.094567
-1.129679
-1.165072
-1.200476
-1.235605
-1.270150
-1.303791
-1.336196
-1.367031
-1.395957
-1.422645
-1.446771
-1.468031
-1.486141
-1.500857
-1.511885
-1.518999
-1.522034
-1.520851
-1.515346
-1.505452
-1.491138
-1.472415
-1.449331
-1.421974
-1.390469
-1.354977
-1.315696
-1.272855
-1.226717
-1.177570
-1.125728
-1.071527
-1.015318
-0.957468
-0.898350
-0.838341
-0.777820
-0.717158
-0.656715
-0.596837
-0.537855
-0.480072
-0.423771
-0.369206
-0.316601
-0.266151
-0.218021
-0.172343
-0.129221
-0.088727
-0.050906
-0.015775
0.016674
0.046476
0.073686
0.098385
0.120673
0.140668
0.158509
0.174354
0.188374
0.200759
0.211711
0.221443
0.230176
0.238127
0.245509
0.252516
0.259322
0.266069
0.272872
0.279819
0.286978
0.294402
0.302063
0.310297
0.318818
0.327396
0.335862
0.344098
0.352032
0.359619
0.366838
0.373682
0.380156
0.386271
0.392046
0.397501
0.402662
0.407554
0.412205
0.416647
0.420909
0.425025
0.429033
0.432970
0.436882
0.440819
0.444841
0.449018
0.453433
0.458184
0.463894
1.431609
1.431084
1.430222
1.429131
1.427809
1.426240
1.424403
1.422279
1.419851
1.417101
1.414009
1.410556
1.406720
1.402477
1.397800
1.392662
1.387031
1.380873
1.374152
1.366826
1.358853
1.350184
1.340768
1.330550
1.319471
1.307467
1.294469
1.280405
1.265199
1.248769
1.231030
1.211893
1.191268
1.169059
1.145173
1.119514
1.091989
1.062509
1.030991
0.997358
0.961550
0.923516
0.883228
0.840680
0.795892
0.748915
0.699834
0.648771
0.595889
0.541392
0.485522
0.428564
0.370833
0.312677
0.254464
0.196573
0.139383
0.083264
0.028562
-0.024414
-0.075396
-0.124167
-0.170570
-0.214501
-0.255916
-0.294820
-0.331268
-0.365352
-0.397197
-0.426955
-0.454794
-0.480894
-0.505446
-0.528644
-0.550684
-0.571762
-0.592076
-0.611822
-0.631195
-0.650392
-0.669605
-0.689026
-0.708842
-0.729234
-0.750372
-0.772415
-0.795501
-0.819749
-0.845251
-0.872069
-0.900232
-0.929734
-0.960532
-0.992547
-1.025661
-1.059722
-1.094544
-1.129911
-1.165576
-1.201268
-1.236694
-1.271545
-1.305495
-1.338210
-1.369352
-1.398581
-1.425563
-1.449973
-1.471499
-1.489846
-1.504724
-1.515924
-1.523222
-1.526429
-1.525397
-1.520021
-1.510233
-1.496003
-1.477341
-1.454296
-1.426956
-1.395447
-1.359930
-1.320604
-1.277699
-1.231479
-1.182232
-1.130275
-1.075943
-1.019592
-0.961588
-0.902307
-0.842129
-0.781434
-0.720594
-0.659973
-0.599920
-0.540765
-0.482814
-0.426352
-0.371632
-0.318881
-0.268294
-0.220034
-0.174235
-0.130998
-0.090397
-0.052475
-0.017248
0.015294
0.045184
0.072481
0.097264
0.119635
0.139712
0.157634
0.173557
0.187655
0.200117
0.211144
0.220951
0.229757
0.237782
0.245237
0.252316
0.259191
0.266006
0.272873
0.279879
0.287109
0.294674
0.302693
0.310889
0.319324
0.327802
0.336173
0.344326
0.352189
0.359718
0.366889
0.373694
0.380135
0.386224
0.391976
0.397413
0.402556
0.407433
0.412069
0.416494
0.420739
0.424835
0.428817
0.432723
0.436595
0.440480
0.444434
0.448526
0.452843
0.457515
0.463445
1.431468
1.431176
1.430501
1.429527
1.428281
1.426763
1.424967
1.422879
1.420485
1.417768
1.414711
1.411294
1.407496
1.403293
1.398659
1.393566
1.387983
1.381876
1.375207
1.367936
1.360019
1.351408
1.342051
1.331893
1.320874
1.308928
1.295987
1.281977
1.266821
1.250434
1.232732
1.213623
1.193013
1.170806
1.146905
1.121212
1.093630
1.064068
1.032437
0.998660
0.962670
0.924417
0.883866
0.841011
0.795870
0.748493
0.698965
0.647413
0.594002
0.538941
0.482483
0.424920
0.366582
0.307830
0.249047
0.190629
0.132972
0.076459
0.021448
-0.031739
-0.082830
-0.131608
-0.177918
-0.221664
-0.262813
-0.301383
-0.337442
-0.371096
-0.402486
-0.431771
-0.459131
-0.484753
-0.508833
-0.531567
-0.553152
-0.573787
-0.593667
-0.612989
-0.631948
-0.650741
-0.669563
-0.688609
-0.708071
-0.728136
-0.748982
-0.770775
-0.793663
-0.817771
-0.843198
-0.870011
-0.898242
-0.927886
-0.958899
-0.991198
-1.024661
-1.059130
-1.094412
-1.130284
-1.166491
-1.202755
-1.238777
-1.274237
-1.308805
-1.342140
-1.373897
-1.403730
-1.431300
-1.456275
-1.478338
-1.497193
-1.512562
-1.524212
-1.531917
-1.535487
-1.534778
-1.529681
-1.520131
-1.506097
-1.487590
-1.464659
-1.437393
-1.405918
-1.370398
-1.331030
-1.288047
-1.241713
-1.192319
-1.140183
-1.085642
-1.029054
-0.970788
-0.911224
-0.850746
-0.789735
-0.728569
-0.667615
-0.607225
-0.547733
-0.489450
-0.432660
-0.377621
-0.324560
-0.273671
-0.225121
-0.179040
-0.135530
-0.094663
-0.056480
-0.020995
0.011802
0.041950
0.069505
0.094551
0.117188
0.137537
0.155737
0.171943
0.186328
0.199079
0.210397
0.220491
0.229578
0.237872
0.245579
0.252892
0.259977
0.266981
0.274018
0.281189
0.288582
0.296278
0.304344
0.312573
0.320803
0.329061
0.337217
0.345176
0.352869
0.360250
0.367295
0.373993
0.380342
0.386352
0.392037
0.397413
0.402503
0.407330
0.411920
0.416299
0.420495
0.424539
0.428461
0.432297
0.436083
0.439860
0.443677
0.447591
0.451673
0.456023
0.461357
1.431867
1.431649
1.431077
1.430193
1.429018
1.427559
1.425814
1.423773
1.421425
1.418756
1.415748
1.412384
1.408641
1.404497
1.399927
1.394900
1.389388
1.383355
1.376764
1.369575
1.361743
1.353220
1.343953
1.333886
1.322958
1.311103
1.298252
1.284328
1.269252
1.252939
1.235300
1.216241
1.195666
1.173475
1.149566
1.123837
1.096187
1.066518
1.034737
1.000762
0.964519
0.925952
0.885025
0.841725
0.796067
0.748100
0.697910
0.645627
0.591420
0.535508
0.478156
0.419672
0.360404
0.300735
0.241073
0.181838
0.123454
0.066327
0.010836
-0.042683
-0.093949
-0.142742
-0.188912
-0.232377
-0.273119
-0.311179
-0.346647
-0.379651
-0.410350
-0.438924
-0.465565
-0.490472
-0.513846
-0.535889
-0.556799
-0.576775
-0.596011
-0.614703
-0.633046
-0.651236
-0.669473
-0.687956
-0.706884
-0.726454
-0.746856
-0.768268
-0.790851
-0.814743
-0.840053
-0.866855
-0.895185
-0.925041
-0.956375
-0.989100
-1.023087
-1.058169
-1.094143
-1.130773
-1.167796
-1.204920
-1.241834
-1.278210
-1.313706
-1.347970
-1.380648
-1.411386
-1.439834
-1.465653
-1.488520
-1.508133
-1.524213
-1.536518
-1.544820
-1.548923
-1.548683
-1.543995
-1.534791
-1.521042
-1.502762
-1.479998
-1.452841
-1.421418
-1.385894
-1.346467
-1.303372
-1.256873
-1.207265
-1.154866
-1.100018
-1.043081
-0.984429
-0.924446
-0.863519
-0.802037
-0.740381
-0.678926
-0.618028
-0.558026
-0.499235
-0.441944
-0.386414
-0.332873
-0.281518
-0.232513
-0.185992
-0.142052
-0.100764
-0.062166
-0.026271
0.006938
0.037498
0.065473
0.090945
0.114018
0.134813
0.153469
0.170142
0.185001
0.198230
0.210025
0.220589
0.230129
0.238853
0.246956
0.254624
0.262019
0.269285
0.276538
0.283876
0.291377
0.299092
0.307030
0.315132
0.323241
0.331205
0.339069
0.346753
0.354194
0.361349
0.368195
0.374717
0.380914
0.386790
0.392356
0.397627
0.402622
0.407362
0.411869
0.416167
0.420282
0.424240
0.428068
0.431796
0.435454
0.439075
0.442695
0.446353
0.450092
0.453957
0.458435
1.432663
1.432477
1.431965
1.431146
1.430035
1.428636
1.426947
1.424963
1.422673
1.420064
1.417120
1.413823
1.410153
1.406087
1.401599
1.396661
1.391242
1.385308
1.378821
1.371741
1.364022
1.355616
1.346470
1.336527
1.325724
1.313994
1.301265
1.287461
1.272498
1.256290
1.238743
1.219761
1.199243
1.177083
1.153176
1.127411
1.099683
1.069886
1.037919
1.003692
0.967125
0.928154
0.886734
0.842847
0.796503
0.747750
0.696673
0.643403
0.588120
0.531052
0.472480
0.412734
0.352189
0.291257
0.230382
0.170020
0.110630
0.052654
-0.003500
-0.057472
-0.108969
-0.157771
-0.203734
-0.246796
-0.286965
-0.324312
-0.358958
-0.391065
-0.420819
-0.448425
-0.474093
-0.498038
-0.520468
-0.541589
-0.561603
-0.580704
-0.599086
-0.616942
-0.634464
-0.651850
-0.669302
-0.687026
-0.705231
-0.724128
-0.743923
-0.764811
-0.786973
-0.810565
-0.835708
-0.862490
-0.890954
-0.921095
-0.952866
-0.986170
-1.020869
-1.056782
-1.093693
-1.131350
-1.169474
-1.207759
-1.245878
-1.283489
-1.320234
-1.355750
-1.389668
-1.421621
-1.451249
-1.478202
-1.502147
-1.522771
-1.539793
-1.552960
-1.562049
-1.566851
-1.567226
-1.563068
-1.554313
-1.540932
-1.522938
-1.500382
-1.473354
-1.441983
-1.406434
-1.366909
-1.323642
-1.276901
-1.226982
-1.174206
-1.118920
-1.061487
-1.002287
-0.941708
-0.880147
-0.817998
-0.755651
-0.693486
-0.631870
-0.571147
-0.511640
-0.453643
-0.397421
-0.343207
-0.291198
-0.241561
-0.194427
-0.149894
-0.108028
-0.068865
-0.032412
0.001349
0.032462
0.060993
0.087028
0.110672
0.132050
0.151299
0.168574
0.184042
0.197882
0.210282
0.221437
0.231544
0.240796
0.249381
0.257473
0.265228
0.272782
0.280250
0.287723
0.295268
0.302923
0.310690
0.318526
0.326366
0.334126
0.341656
0.349016
0.356149
0.363022
0.369610
0.375902
0.381893
0.387584
0.392986
0.398109
0.402969
0.407584
0.411973
0.416157
0.420158
0.423998
0.427699
0.431285
0.434780
0.438205
0.441585
0.444939
0.448281
0.451612
0.455247
1.433799
1.433630
1.433157
1.432390
1.431335
1.429995
1.428368
1.426448
1.424226
1.421688
1.418822
1.415608
1.412027
1.408056
1.403671
1.398842
1.393540
1.387729
1.381373
1.374429
1.366853
1.358596
1.349603
1.339816
1.329172
1.317602
1.305032
1.291382
1.276567
1.260497
1.243074
1.224198
1.203761
1.181652
1.157759
1.131964
1.104151
1.074207
1.042022
1.007494
0.970533
0.931064
0.889034
0.844415
0.797211
0.747465
0.695262
0.640736
0.584075
0.525522
0.465377
0.403997
0.341793
0.279218
0.216760
0.154926
0.094224
0.035143
-0.021866
-0.076415
-0.128192
-0.176974
-0.222634
-0.265135
-0.304522
-0.340910
-0.374467
-0.405396
-0.433922
-0.460281
-0.484707
-0.507431
-0.528671
-0.548639
-0.567533
-0.585546
-0.602866
-0.619679
-0.636175
-0.652552
-0.669012
-0.685771
-0.703050
-0.721079
-0.740086
-0.760291
-0.781901
-0.805095
-0.830017
-0.856768
-0.885399
-0.915909
-0.948242
-0.982293
-1.017908
-1.054890
-1.093002
-1.131974
-1.171505
-1.211271
-1.250925
-1.290107
-1.328441
-1.365546
-1.401038
-1.434535
-1.465659
-1.494048
-1.519354
-1.541255
-1.559457
-1.573701
-1.583767
-1.589437
-1.590573
-1.587071
-1.578868
-1.565936
-1.548291
-1.525982
-1.499103
-1.467781
-1.432185
-1.392516
-1.349012
-1.301941
-1.251602
-1.198321
-1.142447
-1.084350
-1.024415
-0.963040
-0.900627
-0.837582
-0.774305
-0.711187
-0.648604
-0.586912
-0.526441
-0.467496
-0.410346
-0.355231
-0.302353
-0.251878
-0.203937
-0.158628
-0.116014
-0.076127
-0.038970
-0.004519
0.027274
0.056481
0.083191
0.107515
0.129575
0.149513
0.167481
0.183643
0.198172
0.211248
0.223056
0.233782
0.243608
0.252709
0.261248
0.269372
0.277212
0.284874
0.292446
0.299990
0.307541
0.315106
0.322663
0.330170
0.337575
0.344842
0.351861
0.358655
0.365208
0.371501
0.377522
0.383266
0.388734
0.393933
0.398871
0.403562
0.408019
0.412259
0.416299
0.420157
0.423851
0.427398
0.430815
0.434119
0.437324
0.440439
0.443468
0.446405
0.449223
0.452122
1.435243
1.435086
1.434643
1.433920
1.432917
1.431636
1.430074
1.428225
1.426079
1.423625
1.420849
1.417732
1.414257
1.410400
1.406137
1.401439
1.396276
1.390614
1.384414
1.377636
1.370232
1.362155
1.353348
1.343752
1.333302
1.321929
1.309554
1.296097
1.281467
1.265572
1.248308
1.229569
1.209242
1.187209
1.163347
1.137530
1.109633
1.079529
1.047097
1.012221
0.974798
0.934740
0.891981
0.846481
0.798236
0.747280
0.693698
0.637625
0.579258
0.518858
0.456749
0.393323
0.329034
0.264386
0.199928
0.136231
0.073871
0.013401
-0.044675
-0.099924
-0.152013
-0.200719
-0.245935
-0.287663
-0.326005
-0.361136
-0.393283
-0.422709
-0.449686
-0.474490
-0.497383
-0.518616
-0.538416
-0.556995
-0.574550
-0.591264
-0.607317
-0.622884
-0.638150
-0.653306
-0.668560
-0.684134
-0.700268
-0.717213
-0.735227
-0.754566
-0.775471
-0.798154
-0.822788
-0.849493
-0.878331
-0.909301
-0.942339
-0.977324
-1.014082
-1.052393
-1.091996
-1.132594
-1.173862
-1.215452
-1.256994
-1.298105
-1.338388
-1.377441
-1.414861
-1.450246
-1.483201
-1.513344
-1.540313
-1.563769
-1.583403
-1.598945
-1.610180
-1.616887
-1.618931
-1.616212
-1.608667
-1.596270
-1.579036
-1.557018
-1.530307
-1.499035
-1.463368
-1.423512
-1.379703
-1.332213
-1.281343
-1.227422
-1.170804
-1.111863
-1.050993
-0.988601
-0.925100
-0.860907
-0.796436
-0.732091
-0.668262
-0.605318
-0.543604
-0.483434
-0.425089
-0.368815
-0.314819
-0.263273
-0.214309
-0.168023
-0.124476
-0.083696
-0.045681
-0.010402
0.022196
0.052189
0.079672
0.104759
0.127578
0.148268
0.166982
0.183881
0.199133
0.212910
0.225389
0.236745
0.247147
0.256760
0.265737
0.274215
0.282317
0.290147
0.297788
0.305302
0.312726
0.320077
0.327349
0.334522
0.341567
0.348453
0.355147
0.361608
0.367824
0.373798
0.379523
0.384993
0.390209
0.395177
0.399902
0.404395
0.408668
0.412734
0.416606
0.420297
0.423823
0.427195
0.430424
0.433521
0.436491
0.439334
0.442042
0.444595
0.446953
0.449243
1.436974
1.436826
1.436410
1.435726
1.434774
1.433553
1.432060
1.430288
1.428228
1.425868
1.423194
1.420190
1.416836
1.413111
1.408989
1.404444
1.399444
1.393954
1.387938
1.381353
1.374153
1.366288
1.357701
1.348332
1.338114
1.326975
1.314835
1.301610
1.287207
1.271526
1.254460
1.235897
1.215714
1.193785
1.169978
1.144155
1.116178
1.085907
1.053205
1.017940
0.979991
0.939255
0.895648
0.849115
0.799638
0.747243
0.692008
0.634072
0.573641
0.510993
0.446483
0.380544
0.313682
0.246470
0.179530
0.113521
0.049103
-0.013083
-0.072458
-0.128534
-0.180947
-0.229475
-0.274045
-0.314719
-0.351674
-0.385171
-0.415521
-0.443059
-0.468121
-0.491028
-0.512078
-0.531536
-0.549640
-0.566600
-0.582601
-0.597815
-0.612403
-0.626528
-0.640360
-0.654083
-0.667906
-0.682060
-0.696805
-0.712421
-0.729207
-0.747463
-0.767480
-0.789515
-0.813780
-0.840421
-0.869512
-0.901048
-0.934954
-0.971086
-1.009244
-1.049174
-1.090586
-1.133150
-1.176514
-1.220298
-1.264106
-1.307527
-1.350142
-1.391525
-1.431248
-1.468887
-1.504027
-1.536264
-1.565215
-1.590521
-1.611854
-1.628925
-1.641519
-1.649433
-1.652535
-1.650728
-1.643951
-1.632178
-1.615424
-1.593742
-1.567225
-1.536004
-1.500248
-1.460162
-1.415985
-1.367989
-1.316476
-1.261778
-1.204253
-1.144284
-1.082270
-1.018629
-0.953787
-0.888175
-0.822223
-0.756353
-0.690972
-0.626468
-0.563201
-0.501501
-0.441663
-0.383943
-0.328558
-0.275684
-0.225457
-0.177973
-0.133292
-0.091438
-0.052404
-0.016155
0.017370
0.048253
0.076597
0.102518
0.126150
0.147634
0.167122
0.184773
0.200753
0.215227
0.228363
0.240327
0.251281
0.261377
0.270760
0.279560
0.287894
0.295862
0.303546
0.311009
0.318295
0.325429
0.332421
0.339268
0.345956
0.352469
0.358788
0.364897
0.370784
0.376429
0.381845
0.387025
0.391971
0.396687
0.401179
0.405455
0.409524
0.413395
0.417080
0.420588
0.423929
0.427111
0.430142
0.433024
0.435756
0.438333
0.440738
0.442944
0.444906
0.446703
1.438974
1.438835
1.438443
1.437797
1.436897
1.435738
1.434318
1.432629
1.430663
1.428407
1.425849
1.422971
1.419755
1.416179
1.412219
1.407847
1.403033
1.397742
1.391936
1.385574
1.378609
1.370988
1.362656
1.353551
1.343604
1.332740
1.320878
1.307929
1.293796
1.278373
1.261549
1.243203
1.223203
1.201415
1.177693
1.151888
1.123844
1.093407
1.060419
1.024730
0.986198
0.944697
0.900123
0.852401
0.801495
0.747416
0.690236
0.630092
0.567198
0.501854
0.434447
0.365460
0.295464
0.225112
0.155125
0.086270
0.019324
-0.044961
-0.105902
-0.162933
-0.215651
-0.263837
-0.307470
-0.346703
-0.381825
-0.413213
-0.441290
-0.466485
-0.489210
-0.509841
-0.528710
-0.546102
-0.562255
-0.577371
-0.591618
-0.605144
-0.618086
-0.630584
-0.642785
-0.654862
-0.667019
-0.679497
-0.692580
-0.706586
-0.721865
-0.738778
-0.757683
-0.778903
-0.802699
-0.829253
-0.858649
-0.890880
-0.925846
-0.963373
-1.003220
-1.045096
-1.088669
-1.133574
-1.179420
-1.225795
-1.272272
-1.318411
-1.363764
-1.407878
-1.450299
-1.490579
-1.528277
-1.562966
-1.594239
-1.621711
-1.645029
-1.663876
-1.678017
-1.687305
-1.691618
-1.690858
-1.684964
-1.673909
-1.657708
-1.636415
-1.610122
-1.578963
-1.543106
-1.502756
-1.458152
-1.409567
-1.357304
-1.301696
-1.243105
-1.181918
-1.118544
-1.053412
-0.986963
-0.919644
-0.851906
-0.784191
-0.716928
-0.650527
-0.585370
-0.521808
-0.460151
-0.400672
-0.343600
-0.289119
-0.237369
-0.188450
-0.142419
-0.099299
-0.059078
-0.021713
0.012862
0.044738
0.074023
0.100841
0.125329
0.147633
0.167906
0.186308
0.203001
0.218146
0.231906
0.244441
0.255903
0.266439
0.276185
0.285266
0.293796
0.301871
0.309574
0.316971
0.324112
0.331032
0.337753
0.344284
0.350626
0.356777
0.362730
0.368477
0.374011
0.379332
0.384431
0.389312
0.393977
0.398430
0.402676
0.406721
0.410571
0.414235
0.417719
0.421032
0.424179
0.427164
0.429990
0.432657
0.435158
0.437482
0.439609
0.441510
0.443141
0.444546
1.441228
1.441098
1.440729
1.440122
1.439273
1.438181
1.436838
1.435239
1.433375
1.431234
1.428803
1.426065
1.423002
1.419594
1.415814
1.411637
1.407032
1.401965
1.396398
1.390288
1.383589
1.376248
1.368208
1.359405
1.349769
1.339224
1.327684
1.315057
1.301241
1.286126
1.269593
1.251512
1.231743
1.210139
1.186541
1.160785
1.132698
1.102104
1.068825
1.032686
0.993520
0.951175
0.905517
0.856447
0.803906
0.747885
0.688441
0.625709
0.559909
0.491360
0.420490
0.347835
0.274045
0.199874
0.126165
0.053823
-0.016222
-0.083065
-0.145885
-0.204004
-0.256959
-0.304545
-0.346825
-0.384086
-0.416781
-0.445452
-0.470667
-0.492975
-0.512879
-0.530815
-0.547149
-0.562177
-0.576133
-0.589197
-0.601511
-0.613187
-0.624327
-0.635032
-0.645419
-0.655640
-0.665888
-0.676414
-0.687528
-0.699595
-0.713030
-0.728281
-0.745796
-0.765988
-0.789191
-0.815630
-0.845403
-0.878484
-0.914741
-0.953950
-0.995820
-1.040007
-1.086130
-1.133779
-1.182521
-1.231908
-1.281477
-1.330757
-1.379267
-1.426527
-1.472054
-1.515372
-1.556012
-1.593523
-1.627471
-1.657442
-1.683054
-1.703952
-1.719834
-1.730663
-1.736340
-1.736768
-1.731880
-1.721649
-1.706085
-1.685243
-1.659218
-1.628142
-1.592186
-1.551552
-1.506480
-1.457239
-1.404131
-1.347490
-1.287680
-1.225092
-1.160144
-1.093275
-1.024943
-0.955617
-0.885767
-0.815864
-0.746364
-0.677704
-0.610293
-0.544506
-0.480679
-0.419103
-0.360021
-0.303630
-0.250079
-0.199470
-0.151861
-0.107273
-0.065688
-0.027058
0.008693
0.041662
0.071967
0.099738
0.125119
0.148261
0.169322
0.188461
0.205840
0.221621
0.235962
0.249018
0.260938
0.271862
0.281922
0.291241
0.299927
0.308077
0.315776
0.323093
0.330084
0.336793
0.343251
0.349479
0.355491
0.361294
0.366891
0.372283
0.377470
0.382454
0.387232
0.391811
0.396191
0.400374
0.404366
0.408171
0.411794
0.415242
0.418519
0.421629
0.424576
0.427362
0.429985
0.432441
0.434721
0.436812
0.438691
0.440330
0.441688
0.442786
1.443719
1.443598
1.443254
1.442686
1.441892
1.440868
1.439608
1.438106
1.436353
1.434336
1.432044
1.429460
1.426566
1.423342
1.419763
1.415802
1.411430
1.406612
1.401310
1.395483
1.389082
1.382055
1.374344
1.365884
1.356603
1.346421
1.335251
1.322996
1.309551
1.294797
1.278609
1.260848
1.241365
1.219997
1.196572
1.170908
1.142811
1.112083
1.078520
1.041918
1.002078
0.958814
0.911962
0.861386
0.806995
0.748756
0.686705
0.620965
0.551761
0.479432
0.404444
0.327397
0.249034
0.170228
0.091976
0.015363
-0.058485
-0.128456
-0.193532
-0.252874
-0.305931
-0.352520
-0.392837
-0.427387
-0.456862
-0.482032
-0.503657
-0.522434
-0.538964
-0.553747
-0.567176
-0.579550
-0.591083
-0.601921
-0.612159
-0.621864
-0.631082
-0.639864
-0.648281
-0.656448
-0.664541
-0.672816
-0.681613
-0.691355
-0.702540
-0.715727
-0.731498
-0.750394
-0.772852
-0.799150
-0.829393
-0.863523
-0.901348
-0.942577
-0.986847
-1.033748
-1.082838
-1.133655
-1.185721
-1.238547
-1.291632
-1.344472
-1.396554
-1.447365
-1.496394
-1.543134
-1.587092
-1.627786
-1.664756
-1.697563
-1.725790
-1.749039
-1.766926
-1.779444
-1.786643
-1.788411
-1.784667
-1.775378
-1.760553
-1.740246
-1.714553
-1.683609
-1.647582
-1.606676
-1.561124
-1.511192
-1.457177
-1.399411
-1.338255
-1.274102
-1.207379
-1.138536
-1.068048
-0.996406
-0.924110
-0.851659
-0.779544
-0.708236
-0.638179
-0.569779
-0.503401
-0.439360
-0.377922
-0.319297
-0.263646
-0.211076
-0.161647
-0.115378
-0.072245
-0.032194
0.004860
0.039024
0.070424
0.099202
0.125509
0.149502
0.171345
0.191203
0.209238
0.225614
0.240488
0.254013
0.266335
0.277593
0.287916
0.297425
0.306228
0.314422
0.322094
0.329316
0.336152
0.342651
0.348854
0.354791
0.360486
0.365954
0.371208
0.376257
0.381105
0.385757
0.390218
0.394489
0.398578
0.402490
0.406224
0.409786
0.413178
0.416405
0.419471
0.422376
0.425123
0.427711
0.430135
0.432390
0.434464
0.436343
0.438004
0.439421
0.440556
0.441416
1.446433
1.446320
1.446001
1.445475
1.444738
1.443786
1.442615
1.441216
1.439582
1.437700
1.435559
1.433142
1.430432
1.427409
1.424049
1.420326
1.416209
1.411666
1.406659
1.401144
1.395075
1.388398
1.381055
1.372979
1.364097
1.354326
1.343577
1.331748
1.318729
1.304396
1.288615
1.271237
1.252101
1.231032
1.207841
1.182324
1.154265
1.123440
1.089614
1.052549
1.012008
0.967766
0.919614
0.867375
0.810917
0.750168
0.685136
0.615926
0.542759
0.465991
0.386127
0.303837
0.219967
0.135539
0.051738
-0.030121
-0.108651
-0.182468
-0.250276
-0.310987
-0.363899
-0.408870
-0.446328
-0.477123
-0.502308
-0.522972
-0.540115
-0.554603
-0.567141
-0.578286
-0.588445
-0.597902
-0.606828
-0.615315
-0.623395
-0.631064
-0.638301
-0.645086
-0.651420
-0.657364
-0.663063
-0.668775
-0.674871
-0.681840
-0.690279
-0.700898
-0.714469
-0.731726
-0.753252
-0.779391
-0.810240
-0.845673
-0.885406
-0.929045
-0.976131
-1.026171
-1.078654
-1.133059
-1.188859
-1.245522
-1.302512
-1.359288
-1.415306
-1.470022
-1.522894
-1.573388
-1.620982
-1.665169
-1.705466
-1.741412
-1.772564
-1.798491
-1.818734
-1.833103
-1.841998
-1.845274
-1.842832
-1.834629
-1.820671
-1.801015
-1.775760
-1.745041
-1.709028
-1.667917
-1.621937
-1.571344
-1.516425
-1.457503
-1.394932
-1.329105
-1.260449
-1.189429
-1.116535
-1.042284
-0.967209
-0.891847
-0.816727
-0.742365
-0.669246
-0.597818
-0.528481
-0.461584
-0.397417
-0.336212
-0.278141
-0.223322
-0.171818
-0.123644
-0.078773
-0.037141
0.001346
0.036807
0.069380
0.099216
0.126478
0.151334
0.173953
0.194507
0.213166
0.230093
0.245450
0.259391
0.272061
0.283599
0.294135
0.303788
0.312667
0.320873
0.328494
0.335607
0.342280
0.348569
0.354522
0.360177
0.365566
0.370713
0.375638
0.380353
0.384871
0.389201
0.393349
0.397320
0.401121
0.404755
0.408230
0.411547
0.414707
0.417713
0.420567
0.423269
0.425818
0.428212
0.430445
0.432510
0.434395
0.436084
0.437556
0.438786
0.439742
0.440421
1.449352
1.449248
1.448956
1.448472
1.447795
1.446920
1.445842
1.444554
1.443047
1.441310
1.439331
1.437094
1.434584
1.431778
1.428656
1.425191
1.421354
1.417111
1.412425
1.407254
1.401550
1.395260
1.388324
1.380675
1.372238
1.362929
1.352654
1.341309
1.328778
1.314930
1.299624
1.282700
1.263985
1.243288
1.220402
1.195101
1.167145
1.136277
1.102227
1.064719
1.023469
0.978204
0.928660
0.874608
0.815860
0.752295
0.683878
0.610686
0.532928
0.450967
0.365346
0.276806
0.186311
0.095058
0.004468
-0.083846
-0.168165
-0.246746
-0.317910
-0.380161
-0.432506
-0.474878
-0.508129
-0.533683
-0.553144
-0.568023
-0.579614
-0.588952
-0.596836
-0.603857
-0.610415
-0.616749
-0.622959
-0.629052
-0.634972
-0.640630
-0.645916
-0.650713
-0.654929
-0.658536
-0.661631
-0.664467
-0.667456
-0.671150
-0.676255
-0.683668
-0.694446
-0.709625
-0.730001
-0.755995
-0.787650
-0.824719
-0.866763
-0.913244
-0.963580
-1.017177
-1.073444
-1.131802
-1.191673
-1.252486
-1.313670
-1.374652
-1.434859
-1.493717
-1.550656
-1.605114
-1.656544
-1.704420
-1.748238
-1.787526
-1.821837
-1.850744
-1.873795
-1.890271
-1.901055
-1.906025
-1.905065
-1.898119
-1.885197
-1.866361
-1.841713
-1.811392
-1.775565
-1.734421
-1.688175
-1.637068
-1.581368
-1.521379
-1.457440
-1.389934
-1.319286
-1.245967
-1.170485
-1.093385
-1.015236
-0.936619
-0.858114
-0.780290
-0.703684
-0.628797
-0.556074
-0.485906
-0.418616
-0.354463
-0.293637
-0.236266
-0.182417
-0.132106
-0.085297
-0.041920
-0.001867
0.034994
0.068815
0.099761
0.128007
0.153734
0.177122
0.198352
0.217599
0.235037
0.250829
0.265132
0.278097
0.289863
0.300561
0.310314
0.319232
0.327418
0.334963
0.341950
0.348450
0.354525
0.360231
0.365611
0.370704
0.375541
0.380146
0.384540
0.388738
0.392754
0.396596
0.400273
0.403790
0.407154
0.410368
0.413439
0.416368
0.419155
0.421799
0.424300
0.426656
0.428864
0.430916
0.432804
0.434516
0.436036
0.437346
0.438421
0.439235
0.439779
1.452459
1.452366
1.452101
1.451662
1.451048
1.450254
1.449275
1.448103
1.446731
1.445148
1.443342
1.441299
1.439002
1.436431
1.433566
1.430379
1.426843
1.422926
1.418589
1.413792
1.408487
1.402620
1.396132
1.388955
1.381011
1.372216
1.362473
1.351673
1.339695
1.326403
1.311647
1.295256
1.277044
1.256805
1.234311
1.209312
1.181540
1.150703
1.116492
1.078582
1.036639
0.990326
0.939317
0.883312
0.822054
0.755354
0.683119
0.605381
0.522323
0.434308
0.341907
0.245932
0.147473
0.047933
-0.050966
-0.147224
-0.238698
-0.323208
-0.398589
-0.462635
-0.513706
-0.551893
-0.578876
-0.597076
-0.608916
-0.616447
-0.621260
-0.624532
-0.627106
-0.629568
-0.632278
-0.635392
-0.638895
-0.642669
-0.646544
-0.650330
-0.653815
-0.656763
-0.658943
-0.660196
-0.660536
-0.660217
-0.659709
-0.659622
-0.660724
-0.664130
-0.671338
-0.683880
-0.702873
-0.728802
-0.761570
-0.800700
-0.845519
-0.895289
-0.949276
-1.006774
-1.067114
-1.129656
-1.193785
-1.258894
-1.324386
-1.389661
-1.454121
-1.517167
-1.578205
-1.636651
-1.691935
-1.743511
-1.790865
-1.833521
-1.871045
-1.903049
-1.929186
-1.948519
-1.961307
-1.968151
-1.968861
-1.963371
-1.951695
-1.933909
-1.910126
-1.880487
-1.845153
-1.804302
-1.758126
-1.706837
-1.650674
-1.589905
-1.524841
-1.455840
-1.383316
-1.307736
-1.229624
-1.149550
-1.068124
-0.985981
-0.903761
-0.822098
-0.741599
-0.662826
-0.586287
-0.512424
-0.441605
-0.374122
-0.310190
-0.249951
-0.193480
-0.140790
-0.091841
-0.046550
-0.004795
0.033569
0.068713
0.100819
0.130077
0.156684
0.180832
0.202715
0.222520
0.240426
0.256606
0.271223
0.284431
0.296375
0.307189
0.316998
0.325917
0.334052
0.341497
0.348339
0.354655
0.360512
0.365970
0.371078
0.375882
0.380416
0.384712
0.388794
0.392681
0.396391
0.399934
0.403323
0.406563
0.409661
0.412623
0.415450
0.418147
0.420717
0.423156
0.425462
0.427632
0.429661
0.431543
0.433267
0.434823
0.436196
0.437367
0.438316
0.439019
0.439465
1.455738
1.455654
1.455418
1.455027
1.454479
1.453770
1.452894
1.451846
1.450617
1.449197
1.447575
1.445737
1.443667
1.441347
1.438755
1.435867
1.432656
1.429088
1.425129
1.420736
1.415863
1.410457
1.404458
1.397796
1.390396
1.382169
1.373016
1.362826
1.351472
1.338813
1.324688
1.308918
1.291304
1.271620
1.249619
1.225026
1.197540
1.166832
1.132547
1.094307
1.051713
1.004359
0.951837
0.893759
0.829778
0.759616
0.683098
0.600192
0.511039
0.415990
0.315633
0.210842
0.102836
-0.006738
-0.115771
-0.221731
-0.321939
-0.413776
-0.494664
-0.561085
-0.609705
-0.641061
-0.658599
-0.666486
-0.668306
-0.666703
-0.663477
-0.659821
-0.656530
-0.654128
-0.652901
-0.652876
-0.653858
-0.655546