# vtk DataFile Version 3.0
Vector Field
ASCII
DATASET RECTILINEAR_GRID
DIMENSIONS 200 75 1
X_COORDINATES 200 double
0.050000 0.150000 0.250000 0.350000 0.450000 0.550000 0.650000 0.750000 0.850000 0.950000 1.050000 1.150000 1.250000 1.350000 1.450000 1.550000 1.650000 1.750000 1.850000 1.950000 2.050000 2.150000 2.250000 2.350000 2.450000 2.550000 2.650000 2.750000 2.850000 2.950000 3.050000 3.150000 3.250000 3.350000 3.450000 3.550000 3.650000 3.750000 3.850000 3.950000 4.050000 4.150000 4.250000 4.350000 4.450000 4.550000 4.650000 4.750000 4.850000 4.950000 5.050000 5.150000 5.250000 5.350000 5.450000 5.550000 5.650000 5.750000 5.850000 5.950000 6.050000 6.150000 6.250000 6.350000 6.450000 6.550000 6.650000 6.750000 6.850000 6.950000 7.050000 7.150000 7.250000 7.350000 7.450000 7.550000 7.650000 7.750000 7.850000 7.950000 8.050000 8.150000 8.250000 8.350000 8.450000 8.550000 8.650000 8.750000 8.850000 8.950000 9.050000 9.150000 9.250000 9.350000 9.450000 9.550000 9.650000 9.750000 9.850000 9.950000 10.050000 10.150000 10.250000 10.350000 10.450000 10.550000 10.650000 10.750000 10.850000 10.950000 11.050000 11.150000 11.250000 11.350000 11.450000 11.550000 11.650000 11.750000 11.850000 11.950000 12.050000 12.150000 12.250000 12.350000 12.450000 12.550000 12.650000 12.750000 12.850000 12.950000 13.050000 13.150000 13.250000 13.350000 13.450000 13.550000 13.650000 13.750000 13.850000 13.950000 14.050000 14.150000 14.250000 14.350000 14.450000 14.550000 14.650000 14.750000 14.850000 14.950000 15.050000 15.150000 15.250000 15.350000 15.450000 15.550000 15.650000 15.750000 15.850000 15.950000 16.050000 16.150000 16.250000 16.350000 16.450000 16.550000 16.650000 16.750000 16.850000 16.950000 17.050000 17.150000 17.250000 17.350000 17.450000 17.550000 17.650000 17.750000 17.850000 17.950000 18.050000 18.150000 18.250000 18.350000 18.450000 18.550000 18.650000 18.750000 18.850000 18.950000 19.050000 19.150000 19.250000 19.350000 19.450000 19.550000 19.650000 19.750000 19.850000 19.950000 
Y_COORDINATES 75 double
0.050000 0.150000 0.250000 0.350000 0.450000 0.550000 0.650000 0.750000 0.850000 0.950000 1.050000 1.150000 1.250000 1.350000 1.450000 1.550000 1.650000 1.750000 1.850000 1.950000 2.050000 2.150000 2.250000 2.350000 2.450000 2.550000 2.650000 2.750000 2.850000 2.950000 3.050000 3.150000 3.250000 3.350000 3.450000 3.550000 3.650000 3.750000 3.850000 3.950000 4.050000 4.150000 4.250000 4.350000 4.450000 4.550000 4.650000 4.750000 4.850000 4.950000 5.050000 5.150000 5.250000 5.350000 5.450000 5.550000 5.650000 5.750000 5.850000 5.950000 6.050000 6.150000 6.250000 6.350000 6.450000 6.550000 6.650000 6.750000 6.850000 6.950000 7.050000 7.150000 7.250000 7.350000 7.450000 
Z_COORDINATES 1 double
0.0
POINT_DATA 15000
VECTORS Vektorfeld double
0.999722 0.000278 0.0
0.999062 0.000381 0.0
0.998350 0.000331 0.0
0.997799 0.000221 0.0
0.997497 0.000081 0.0
0.997493 -0.000077 0.0
0.997818 -0.000248 0.0
0.998495 -0.000429 0.0
0.999545 -0.000621 0.0
1.000989 -0.000823 0.0
1.002846 -0.001035 0.0
1.005139 -0.001258 0.0
1.007889 -0.001492 0.0
1.011120 -0.001738 0.0
1.014856 -0.001997 0.0
1.019123 -0.002270 0.0
1.023950 -0.002557 0.0
1.029365 -0.002858 0.0
1.035398 -0.003175 0.0
1.042083 -0.003509 0.0
1.049452 -0.003860 0.0
1.057540 -0.004228 0.0
1.066383 -0.004615 0.0
1.076019 -0.005020 0.0
1.086484 -0.005445 0.0
1.097817 -0.005889 0.0
1.110058 -0.006352 0.0
1.123243 -0.006834 0.0
1.137412 -0.007335 0.0
1.152600 -0.007854 0.0
1.168844 -0.008390 0.0
1.186175 -0.008942 0.0
1.204624 -0.009507 0.0
1.224216 -0.010085 0.0
1.244973 -0.010671 0.0
1.266908 -0.011264 0.0
1.290030 -0.011858 0.0
1.314338 -0.012450 0.0
1.339822 -0.013034 0.0
1.366461 -0.013605 0.0
1.394224 -0.014157 0.0
1.423063 -0.014682 0.0
1.452918 -0.015173 0.0
1.483715 -0.015623 0.0
1.515362 -0.016023 0.0
1.547750 -0.016365 0.0
1.580757 -0.016641 0.0
1.614242 -0.016844 0.0
1.648051 -0.016965 0.0
1.682016 -0.016999 0.0
1.715957 -0.016942 0.0
1.749688 -0.016789 0.0
1.783016 -0.016539 0.0
1.815748 -0.016193 0.0
1.847696 -0.015754 0.0
1.878677 -0.015227 0.0
1.908524 -0.014620 0.0
1.937086 -0.013942 0.0
1.964232 -0.013204 0.0
1.989856 -0.012420 0.0
2.013877 -0.011602 0.0
2.036243 -0.010764 0.0
2.056926 -0.009919 0.0
2.075924 -0.009079 0.0
2.093256 -0.008253 0.0
2.108961 -0.007452 0.0
2.123094 -0.006681 0.0
2.135720 -0.005945 0.0
2.146912 -0.005247 0.0
2.156746 -0.004587 0.0
2.165299 -0.003966 0.0
2.172647 -0.003381 0.0
2.178856 -0.002829 0.0
2.183991 -0.002305 0.0
2.188102 -0.001806 0.0
2.191232 -0.001324 0.0
2.193412 -0.000855 0.0
2.194660 -0.000393 0.0
2.194991 0.000063 0.0
2.194407 0.000522 0.0
2.192891 0.000994 0.0
2.190407 0.001489 0.0
2.186907 0.002012 0.0
2.182327 0.002568 0.0
2.176596 0.003163 0.0
2.169632 0.003800 0.0
2.161350 0.004482 0.0
2.151658 0.005209 0.0
2.140469 0.005980 0.0
2.127696 0.006793 0.0
2.113262 0.007642 0.0
2.097099 0.008521 0.0
2.079156 0.009423 0.0
2.059395 0.010338 0.0
2.037799 0.011258 0.0
2.014372 0.012170 0.0
1.989138 0.013064 0.0
1.962145 0.013929 0.0
1.933463 0.014754 0.0
1.903181 0.015528 0.0
1.871409 0.016243 0.0
1.838275 0.016890 0.0
1.803923 0.017462 0.0
1.768507 0.017954 0.0
1.732193 0.018360 0.0
1.695152 0.018680 0.0
1.657562 0.018910 0.0
1.619600 0.019052 0.0
1.581440 0.019108 0.0
1.543254 0.019078 0.0
1.505209 0.018967 0.0
1.467462 0.018780 0.0
1.430162 0.018520 0.0
1.393449 0.018193 0.0
1.357451 0.017804 0.0
1.322287 0.017359 0.0
1.288065 0.016863 0.0
1.254882 0.016321 0.0
1.222825 0.015737 0.0
1.191972 0.015116 0.0
1.162392 0.014463 0.0
1.134149 0.013780 0.0
1.107298 0.013072 0.0
1.081886 0.012340 0.0
1.057959 0.011587 0.0
1.035555 0.010817 0.0
1.014708 0.010031 0.0
0.995446 0.009232 0.0
0.977789 0.008425 0.0
0.961751 0.007613 0.0
0.947333 0.006804 0.0
0.934526 0.006004 0.0
0.923301 0.005221 0.0
0.913614 0.004466 0.0
0.905402 0.003746 0.0
0.898584 0.003072 0.0
0.893061 0.002451 0.0
0.888721 0.001890 0.0
0.885440 0.001392 0.0
0.883088 0.000960 0.0
0.881534 0.000593 0.0
0.880652 0.000289 0.0
0.880325 0.000038 0.0
0.880448 -0.000161 0.0
0.880916 -0.000307 0.0
0.881629 -0.000406 0.0
0.882500 -0.000465 0.0
0.883460 -0.000495 0.0
0.884455 -0.000500 0.0
0.885445 -0.000489 0.0
0.886400 -0.000466 0.0
0.887302 -0.000435 0.0
0.888136 -0.000400 0.0
0.888897 -0.000361 0.0
0.889582 -0.000323 0.0
0.890190 -0.000285 0.0
0.890725 -0.000250 0.0
0.891191 -0.000216 0.0
0.891593 -0.000186 0.0
0.891936 -0.000158 0.0
0.892227 -0.000133 0.0
0.892472 -0.000111 0.0
0.892676 -0.000092 0.0
0.892844 -0.000076 0.0
0.892982 -0.000062 0.0
0.893093 -0.000050 0.0
0.893183 -0.000040 0.0
0.893254 -0.000031 0.0
0.893311 -0.000025 0.0
0.893354 -0.000019 0.0
0.893388 -0.000015 0.0
0.893414 -0.000011 0.0
0.893435 -0.000009 0.0
0.893450 -0.000007 0.0
0.893463 -0.000006 0.0
0.893474 -0.000005 0.0
0.893484 -0.000005 0.0
0.893494 -0.000005 0.0
0.893505 -0.000006 0.0
0.893517 -0.000006 0.0
0.893531 -0.000008 0.0
0.893548 -0.000009 0.0
0.893567 -0.000010 0.0
0.893590 -0.000012 0.0
0.893616 -0.000014 0.0
0.893646 -0.000016 0.0
0.893680 -0.000018 0.0
0.893719 -0.000021 0.0
0.893764 -0.000024 0.0
0.893814 -0.000026 0.0
0.893870 -0.000030 0.0
0.893933 -0.000033 0.0
0.894004 -0.000038 0.0
0.894085 -0.000043 0.0
0.894176 -0.000049 0.0
0.894283 -0.000057 0.0
0.894409 -0.000069 0.0
0.894568 -0.000090 0.0
0.894793 -0.000135 0.0
0.895103 -0.000175 0.0
1.000266 0.000291 0.0
1.000993 0.000301 0.0
1.002054 0.000062 0.0
1.003392 -0.000297 0.0
1.005015 -0.000724 0.0
1.006942 -0.001195 0.0
1.009190 -0.001702 0.0
1.011776 -0.002238 0.0
1.014716 -0.002802 0.0
1.018026 -0.003395 0.0
1.021723 -0.004017 0.0
1.025824 -0.004670 0.0
1.030349 -0.005355 0.0
1.035317 -0.006074 0.0
1.040750 -0.006830 0.0
1.046670 -0.007625 0.0
1.053102 -0.008460 0.0
1.060071 -0.009339 0.0
1.067606 -0.010263 0.0
1.075734 -0.011235 0.0
1.084486 -0.012256 0.0
1.093895 -0.013329 0.0
1.103992 -0.014456 0.0
1.114814 -0.015637 0.0
1.126395 -0.016875 0.0
1.138773 -0.018169 0.0
1.151983 -0.019522 0.0
1.166065 -0.020931 0.0
1.181055 -0.022396 0.0
1.196990 -0.023916 0.0
1.213907 -0.025488 0.0
1.231839 -0.027108 0.0
1.250820 -0.028771 0.0
1.270876 -0.030471 0.0
1.292035 -0.032200 0.0
1.314313 -0.033949 0.0
1.337726 -0.035707 0.0
1.362277 -0.037461 0.0
1.387964 -0.039195 0.0
1.414774 -0.040894 0.0
1.442681 -0.042538 0.0
1.471647 -0.044107 0.0
1.501621 -0.045578 0.0
1.532535 -0.046929 0.0
1.564307 -0.048135 0.0
1.596836 -0.049171 0.0
1.630006 -0.050013 0.0
1.663685 -0.050636 0.0
1.697724 -0.051020 0.0
1.731959 -0.051145 0.0
1.766217 -0.050996 0.0
1.800314 -0.050562 0.0
1.834059 -0.049839 0.0
1.867262 -0.048828 0.0
1.899734 -0.047538 0.0
1.931292 -0.045984 0.0
1.961769 -0.044188 0.0
1.991013 -0.042179 0.0
2.018892 -0.039992 0.0
2.045299 -0.037663 0.0
2.070154 -0.035235 0.0
2.093403 -0.032746 0.0
2.115019 -0.030236 0.0
2.135002 -0.027741 0.0
2.153370 -0.025292 0.0
2.170165 -0.022914 0.0
2.185441 -0.020628 0.0
2.199264 -0.018447 0.0
2.211707 -0.016380 0.0
2.222847 -0.014429 0.0
2.232761 -0.012592 0.0
2.241523 -0.010864 0.0
2.249203 -0.009235 0.0
2.255861 -0.007692 0.0
2.261554 -0.006222 0.0
2.266323 -0.004807 0.0
2.270202 -0.003431 0.0
2.273210 -0.002074 0.0
2.275342 -0.000720 0.0
2.276579 0.000652 0.0
2.276892 0.002067 0.0
2.276245 0.003547 0.0
2.274588 0.005111 0.0
2.271858 0.006777 0.0
2.267985 0.008559 0.0
2.262885 0.010468 0.0
2.256471 0.012511 0.0
2.248652 0.014691 0.0
2.239337 0.017003 0.0
2.228440 0.019440 0.0
2.215882 0.021987 0.0
2.201594 0.024626 0.0
2.185520 0.027334 0.0
2.167625 0.030083 0.0
2.147890 0.032844 0.0
2.126318 0.035584 0.0
2.102932 0.038269 0.0
2.077781 0.040867 0.0
2.050934 0.043345 0.0
2.022480 0.045673 0.0
1.992529 0.047821 0.0
1.961210 0.049766 0.0
1.928664 0.051485 0.0
1.895047 0.052964 0.0
1.860523 0.054189 0.0
1.825263 0.055152 0.0
1.789441 0.055850 0.0
1.753233 0.056284 0.0
1.716811 0.056458 0.0
1.680344 0.056380 0.0
1.643996 0.056059 0.0
1.607922 0.055510 0.0
1.572266 0.054745 0.0
1.537165 0.053782 0.0
1.502744 0.052634 0.0
1.469118 0.051320 0.0
1.436389 0.049854 0.0
1.404651 0.048251 0.0
1.373986 0.046528 0.0
1.344468 0.044696 0.0
1.316161 0.042769 0.0
1.289120 0.040757 0.0
1.263396 0.038671 0.0
1.239028 0.036519 0.0
1.216052 0.034311 0.0
1.194495 0.032054 0.0
1.174379 0.029757 0.0
1.155717 0.027430 0.0
1.138514 0.025086 0.0
1.122765 0.022739 0.0
1.108453 0.020407 0.0
1.095552 0.018110 0.0
1.084018 0.015873 0.0
1.073798 0.013721 0.0
1.064823 0.011678 0.0
1.057013 0.009768 0.0
1.050279 0.008012 0.0
1.044521 0.006426 0.0
1.039639 0.005019 0.0
1.035529 0.003796 0.0
1.032086 0.002753 0.0
1.029214 0.001884 0.0
1.026812 0.001173 0.0
1.024785 0.000608 0.0
1.023062 0.000179 0.0
1.021591 -0.000132 0.0
1.020325 -0.000344 0.0
1.019225 -0.000476 0.0
1.018257 -0.000545 0.0
1.017389 -0.000566 0.0
1.016597 -0.000553 0.0
1.015860 -0.000514 0.0
1.015165 -0.000460 0.0
1.014499 -0.000396 0.0
1.013854 -0.000328 0.0
1.013226 -0.000261 0.0
1.012612 -0.000195 0.0
1.012011 -0.000135 0.0
1.011423 -0.000080 0.0
1.010848 -0.000032 0.0
1.010288 0.000010 0.0
1.009744 0.000045 0.0
1.009217 0.000074 0.0
1.008710 0.000097 0.0
1.008224 0.000115 0.0
1.007758 0.000128 0.0
1.007314 0.000137 0.0
1.006893 0.000142 0.0
1.006495 0.000144 0.0
1.006119 0.000144 0.0
1.005765 0.000142 0.0
1.005433 0.000138 0.0
1.005123 0.000132 0.0
1.004834 0.000125 0.0
1.004565 0.000118 0.0
1.004315 0.000110 0.0
1.004085 0.000101 0.0
1.003872 0.000091 0.0
1.003677 0.000082 0.0
1.003499 0.000072 0.0
1.003336 0.000062 0.0
1.003189 0.000052 0.0
1.003056 0.000042 0.0
1.002938 0.000032 0.0
1.002833 0.000021 0.0
1.002741 0.000011 0.0
1.002661 -0.000000 0.0
1.002594 -0.000011 0.0
1.002539 -0.000022 0.0
1.002496 -0.000034 0.0
1.002465 -0.000047 0.0
1.002445 -0.000060 0.0
1.002437 -0.000075 0.0
1.002442 -0.000091 0.0
1.002459 -0.000110 0.0
1.002490 -0.000134 0.0
1.002536 -0.000165 0.0
1.002594 -0.000211 0.0
1.002646 -0.000292 0.0
1.002681 -0.000362 0.0
1.000150 -0.000125 0.0
1.000668 -0.000529 0.0
1.001580 -0.001081 0.0
1.002829 -0.001739 0.0
1.004397 -0.002473 0.0
1.006288 -0.003264 0.0
1.008510 -0.004103 0.0
1.011075 -0.004987 0.0
1.013997 -0.005914 0.0
1.017289 -0.006886 0.0
1.020968 -0.007903 0.0
1.025051 -0.008969 0.0
1.029556 -0.010086 0.0
1.034502 -0.011258 0.0
1.039911 -0.012488 0.0
1.045804 -0.013780 0.0
1.052206 -0.015139 0.0
1.059143 -0.016567 0.0
1.066642 -0.018068 0.0
1.074731 -0.019647 0.0
1.083442 -0.021306 0.0
1.092805 -0.023050 0.0
1.102854 -0.024882 0.0
1.113624 -0.026803 0.0
1.125152 -0.028817 0.0
1.137473 -0.030926 0.0
1.150626 -0.033129 0.0
1.164649 -0.035428 0.0
1.179581 -0.037821 0.0
1.195460 -0.040305 0.0
1.212323 -0.042878 0.0
1.230206 -0.045533 0.0
1.249142 -0.048263 0.0
1.269164 -0.051057 0.0
1.290297 -0.053904 0.0
1.312563 -0.056789 0.0
1.335978 -0.059694 0.0
1.360550 -0.062597 0.0
1.386278 -0.065474 0.0
1.413153 -0.068298 0.0
1.441151 -0.071038 0.0
1.470237 -0.073659 0.0
1.500361 -0.076125 0.0
1.531459 -0.078395 0.0
1.563448 -0.080430 0.0
1.596228 -0.082186 0.0
1.629684 -0.083623 0.0
1.663679 -0.084700 0.0
1.698064 -0.085379 0.0
1.732670 -0.085628 0.0
1.767318 -0.085419 0.0
1.801818 -0.084735 0.0
1.835971 -0.083565 0.0
1.869577 -0.081912 0.0
1.902440 -0.079788 0.0
1.934367 -0.077219 0.0
1.965181 -0.074244 0.0
1.994724 -0.070909 0.0
2.022857 -0.067273 0.0
2.049469 -0.063402 0.0
2.074480 -0.059362 0.0
2.097835 -0.055223 0.0
2.119512 -0.051052 0.0
2.139514 -0.046909 0.0
2.157868 -0.042846 0.0
2.174621 -0.038907 0.0
2.189836 -0.035125 0.0
2.203587 -0.031523 0.0
2.215953 -0.028113 0.0
2.227018 -0.024900 0.0
2.236863 -0.021880 0.0
2.245566 -0.019042 0.0
2.253201 -0.016371 0.0
2.259832 -0.013846 0.0
2.265515 -0.011443 0.0
2.270294 -0.009135 0.0
2.274204 -0.006892 0.0
2.277265 -0.004681 0.0
2.279485 -0.002467 0.0
2.280862 -0.000215 0.0
2.281374 0.002109 0.0
2.280989 0.004539 0.0
2.279659 0.007107 0.0
2.277324 0.009845 0.0
2.273914 0.012775 0.0
2.269348 0.015918 0.0
2.263539 0.019284 0.0
2.256397 0.022878 0.0
2.247832 0.026695 0.0
2.237757 0.030719 0.0
2.226096 0.034928 0.0
2.212779 0.039291 0.0
2.197753 0.043768 0.0
2.180983 0.048314 0.0
2.162451 0.052879 0.0
2.142163 0.057409 0.0
2.120143 0.061849 0.0
2.096440 0.066142 0.0
2.071124 0.070235 0.0
2.044285 0.074076 0.0
2.016033 0.077620 0.0
1.986492 0.080826 0.0
1.955802 0.083660 0.0
1.924115 0.086094 0.0
1.891588 0.088109 0.0
1.858386 0.089693 0.0
1.824675 0.090841 0.0
1.790621 0.091555 0.0
1.756386 0.091843 0.0
1.722129 0.091718 0.0
1.687999 0.091198 0.0
1.654139 0.090305 0.0
1.620681 0.089063 0.0
1.587750 0.087497 0.0
1.555455 0.085635 0.0
1.523898 0.083503 0.0
1.493169 0.081128 0.0
1.463347 0.078537 0.0
1.434501 0.075753 0.0
1.406691 0.072799 0.0
1.379967 0.069697 0.0
1.354370 0.066466 0.0
1.329933 0.063124 0.0
1.306682 0.059686 0.0
1.284634 0.056169 0.0
1.263799 0.052587 0.0
1.244180 0.048958 0.0
1.225771 0.045300 0.0
1.208559 0.041632 0.0
1.192523 0.037979 0.0
1.177634 0.034368 0.0
1.163855 0.030830 0.0
1.151143 0.027399 0.0
1.139449 0.024109 0.0
1.128718 0.020995 0.0
1.118893 0.018086 0.0
1.109914 0.015408 0.0
1.101720 0.012981 0.0
1.094251 0.010815 0.0
1.087447 0.008914 0.0
1.081251 0.007273 0.0
1.075607 0.005881 0.0
1.070463 0.004722 0.0
1.065770 0.003777 0.0
1.061484 0.003019 0.0
1.057561 0.002423 0.0
1.053960 0.001966 0.0
1.050648 0.001625 0.0
1.047591 0.001379 0.0
1.044762 0.001207 0.0
1.042136 0.001092 0.0
1.039692 0.001022 0.0
1.037410 0.000982 0.0
1.035276 0.000963 0.0
1.033275 0.000958 0.0
1.031397 0.000959 0.0
1.029632 0.000964 0.0
1.027972 0.000967 0.0
1.026410 0.000968 0.0
1.024940 0.000965 0.0
1.023557 0.000956 0.0
1.022257 0.000943 0.0
1.021035 0.000924 0.0
1.019888 0.000901 0.0
1.018811 0.000874 0.0
1.017801 0.000843 0.0
1.016856 0.000810 0.0
1.015972 0.000774 0.0
1.015146 0.000737 0.0
1.014374 0.000699 0.0
1.013655 0.000660 0.0
1.012986 0.000621 0.0
1.012362 0.000582 0.0
1.011783 0.000544 0.0
1.011246 0.000506 0.0
1.010748 0.000469 0.0
1.010287 0.000433 0.0
1.009861 0.000398 0.0
1.009468 0.000364 0.0
1.009105 0.000331 0.0
1.008772 0.000299 0.0
1.008467 0.000268 0.0
1.008187 0.000238 0.0
1.007932 0.000209 0.0
1.007700 0.000181 0.0
1.007490 0.000153 0.0
1.007300 0.000126 0.0
1.007131 0.000099 0.0
1.006980 0.000073 0.0
1.006848 0.000046 0.0
1.006733 0.000019 0.0
1.006636 -0.000008 0.0
1.006555 -0.000037 0.0
1.006490 -0.000068 0.0
1.006441 -0.000101 0.0
1.006407 -0.000140 0.0
1.006387 -0.000185 0.0
1.006378 -0.000240 0.0
1.006370 -0.000309 0.0
1.006364 -0.000374 0.0
1.000113 -0.000388 0.0
1.000542 -0.001214 0.0
1.001357 -0.002124 0.0
1.002524 -0.003112 0.0
1.004027 -0.004171 0.0
1.005863 -0.005292 0.0
1.008035 -0.006470 0.0
1.010553 -0.007704 0.0
1.013428 -0.008994 0.0
1.016672 -0.010343 0.0
1.020300 -0.011754 0.0
1.024329 -0.013230 0.0
1.028777 -0.014776 0.0
1.033662 -0.016398 0.0
1.039005 -0.018100 0.0
1.044829 -0.019886 0.0
1.051158 -0.021764 0.0
1.058017 -0.023738 0.0
1.065434 -0.025813 0.0
1.073438 -0.027995 0.0
1.082059 -0.030289 0.0
1.091329 -0.032701 0.0
1.101283 -0.035234 0.0
1.111955 -0.037893 0.0
1.123382 -0.040682 0.0
1.135603 -0.043603 0.0
1.148656 -0.046658 0.0
1.162580 -0.049847 0.0
1.177416 -0.053169 0.0
1.193203 -0.056623 0.0
1.209982 -0.060202 0.0
1.227789 -0.063899 0.0
1.246661 -0.067706 0.0
1.266633 -0.071607 0.0
1.287733 -0.075588 0.0
1.309987 -0.079627 0.0
1.333415 -0.083699 0.0
1.358028 -0.087777 0.0
1.383830 -0.091825 0.0
1.410815 -0.095806 0.0
1.438963 -0.099676 0.0
1.468243 -0.103387 0.0
1.498608 -0.106887 0.0
1.529996 -0.110119 0.0
1.562326 -0.113025 0.0
1.595500 -0.115545 0.0
1.629399 -0.117619 0.0
1.663886 -0.119187 0.0
1.698806 -0.120196 0.0
1.733985 -0.120597 0.0
1.769236 -0.120349 0.0
1.804356 -0.119425 0.0
1.839136 -0.117809 0.0
1.873363 -0.115501 0.0
1.906823 -0.112521 0.0
1.939313 -0.108903 0.0
1.970640 -0.104701 0.0
2.000632 -0.099986 0.0
2.029144 -0.094841 0.0
2.056057 -0.089360 0.0
2.081287 -0.083644 0.0
2.104782 -0.077793 0.0
2.126525 -0.071903 0.0
2.146527 -0.066062 0.0
2.164826 -0.060346 0.0
2.181481 -0.054816 0.0
2.196566 -0.049518 0.0
2.210168 -0.044483 0.0
2.222375 -0.039727 0.0
2.233281 -0.035256 0.0
2.242975 -0.031062 0.0
2.251542 -0.027130 0.0
2.259058 -0.023435 0.0
2.265594 -0.019949 0.0
2.271206 -0.016636 0.0
2.275942 -0.013458 0.0
2.279837 -0.010374 0.0
2.282914 -0.007336 0.0
2.285180 -0.004298 0.0
2.286632 -0.001211 0.0
2.287248 0.001976 0.0
2.286994 0.005311 0.0
2.285820 0.008840 0.0
2.283661 0.012606 0.0
2.280442 0.016644 0.0
2.276075 0.020982 0.0
2.270468 0.025636 0.0
2.263524 0.030613 0.0
2.255145 0.035904 0.0
2.245240 0.041488 0.0
2.233727 0.047334 0.0
2.220535 0.053394 0.0
2.205610 0.059615 0.0
2.188918 0.065929 0.0
2.170448 0.072266 0.0
2.150209 0.078550 0.0
2.128236 0.084700 0.0
2.104589 0.090640 0.0
2.079349 0.096292 0.0
2.052620 0.101587 0.0
2.024525 0.106459 0.0
1.995201 0.110853 0.0
1.964801 0.114723 0.0
1.933487 0.118033 0.0
1.901425 0.120758 0.0
1.868787 0.122884 0.0
1.835743 0.124406 0.0
1.802458 0.125329 0.0
1.769094 0.125668 0.0
1.735803 0.125442 0.0
1.702730 0.124678 0.0
1.670006 0.123409 0.0
1.637754 0.121669 0.0
1.606082 0.119495 0.0
1.575088 0.116926 0.0
1.544857 0.114000 0.0
1.515463 0.110755 0.0
1.486969 0.107227 0.0
1.459426 0.103451 0.0
1.432876 0.099460 0.0
1.407353 0.095284 0.0
1.382880 0.090950 0.0
1.359474 0.086483 0.0
1.337142 0.081909 0.0
1.315886 0.077250 0.0
1.295699 0.072528 0.0
1.276569 0.067767 0.0
1.258478 0.062992 0.0
1.241401 0.058229 0.0
1.225308 0.053510 0.0
1.210167 0.048867 0.0
1.195941 0.044336 0.0
1.182590 0.039955 0.0
1.170076 0.035762 0.0
1.158358 0.031791 0.0
1.147398 0.028074 0.0
1.137158 0.024638 0.0
1.127603 0.021501 0.0
1.118695 0.018672 0.0
1.110402 0.016154 0.0
1.102691 0.013941 0.0
1.095528 0.012020 0.0
1.088881 0.010374 0.0
1.082718 0.008980 0.0
1.077009 0.007811 0.0
1.071721 0.006842 0.0
1.066825 0.006044 0.0
1.062291 0.005394 0.0
1.058091 0.004866 0.0
1.054200 0.004439 0.0
1.050593 0.004093 0.0
1.047248 0.003811 0.0
1.044144 0.003578 0.0
1.041263 0.003382 0.0
1.038588 0.003214 0.0
1.036102 0.003066 0.0
1.033793 0.002931 0.0
1.031646 0.002806 0.0
1.029652 0.002686 0.0
1.027798 0.002570 0.0
1.026076 0.002456 0.0
1.024476 0.002343 0.0
1.022990 0.002232 0.0
1.021610 0.002121 0.0
1.020330 0.002011 0.0
1.019142 0.001903 0.0
1.018040 0.001797 0.0
1.017019 0.001693 0.0
1.016073 0.001591 0.0
1.015198 0.001492 0.0
1.014387 0.001396 0.0
1.013637 0.001304 0.0
1.012944 0.001215 0.0
1.012304 0.001130 0.0
1.011714 0.001048 0.0
1.011169 0.000970 0.0
1.010666 0.000895 0.0
1.010204 0.000824 0.0
1.009779 0.000756 0.0
1.009389 0.000691 0.0
1.009031 0.000630 0.0
1.008703 0.000571 0.0
1.008404 0.000514 0.0
1.008132 0.000461 0.0
1.007884 0.000409 0.0
1.007660 0.000359 0.0
1.007458 0.000311 0.0
1.007277 0.000264 0.0
1.007116 0.000219 0.0
1.006975 0.000174 0.0
1.006851 0.000130 0.0
1.006744 0.000085 0.0
1.006654 0.000040 0.0
1.006581 -0.000007 0.0
1.006522 -0.000055 0.0
1.006478 -0.000108 0.0
1.006447 -0.000165 0.0
1.006425 -0.000228 0.0
1.006410 -0.000297 0.0
1.006401 -0.000369 0.0
1.000098 -0.000598 0.0
1.000482 -0.001818 0.0
1.001234 -0.003087 0.0
1.002336 -0.004417 0.0
1.003777 -0.005810 0.0
1.005553 -0.007265 0.0
1.007669 -0.008784 0.0
1.010129 -0.010368 0.0
1.012943 -0.012019 0.0
1.016125 -0.013743 0.0
1.019687 -0.015544 0.0
1.023644 -0.017427 0.0
1.028015 -0.019398 0.0
1.032819 -0.021465 0.0
1.038074 -0.023632 0.0
1.043805 -0.025909 0.0
1.050035 -0.028300 0.0
1.056789 -0.030815 0.0
1.064096 -0.033459 0.0
1.071983 -0.036240 0.0
1.080482 -0.039164 0.0
1.089625 -0.042239 0.0
1.099448 -0.045471 0.0
1.109985 -0.048865 0.0
1.121275 -0.052427 0.0
1.133356 -0.056160 0.0
1.146269 -0.060066 0.0
1.160055 -0.064148 0.0
1.174755 -0.068405 0.0
1.190413 -0.072832 0.0
1.207069 -0.077427 0.0
1.224765 -0.082178 0.0
1.243541 -0.087075 0.0
1.263434 -0.092102 0.0
1.284478 -0.097237 0.0
1.306703 -0.102456 0.0
1.330134 -0.107728 0.0
1.354787 -0.113015 0.0
1.380671 -0.118274 0.0
1.407786 -0.123457 0.0
1.436119 -0.128506 0.0
1.465642 -0.133360 0.0
1.496314 -0.137951 0.0
1.528076 -0.142205 0.0
1.560850 -0.146044 0.0
1.594539 -0.149389 0.0
1.629022 -0.152158 0.0
1.664162 -0.154274 0.0
1.699795 -0.155662 0.0
1.735740 -0.156256 0.0
1.771799 -0.155999 0.0
1.807755 -0.154851 0.0
1.843382 -0.152790 0.0
1.878448 -0.149813 0.0
1.912719 -0.145942 0.0
1.945971 -0.141223 0.0
1.977990 -0.135728 0.0
2.008589 -0.129551 0.0
2.037606 -0.122804 0.0
2.064914 -0.115618 0.0
2.090426 -0.108127 0.0
2.114091 -0.100470 0.0
2.135900 -0.092777 0.0
2.155877 -0.085166 0.0
2.174074 -0.077738 0.0
2.190568 -0.070573 0.0
2.205451 -0.063729 0.0
2.218824 -0.057245 0.0
2.230793 -0.051141 0.0
2.241461 -0.045418 0.0
2.250930 -0.040064 0.0
2.259293 -0.035057 0.0
2.266631 -0.030363 0.0
2.273020 -0.025944 0.0
2.278520 -0.021753 0.0
2.283183 -0.017740 0.0
2.287043 -0.013849 0.0
2.290127 -0.010021 0.0
2.292442 -0.006195 0.0
2.293984 -0.002307 0.0
2.294732 0.001708 0.0
2.294647 0.005916 0.0
2.293677 0.010379 0.0
2.291749 0.015153 0.0
2.288779 0.020286 0.0
2.284671 0.025815 0.0
2.279318 0.031763 0.0
2.272611 0.038138 0.0
2.264440 0.044929 0.0
2.254699 0.052108 0.0
2.243295 0.059631 0.0
2.230148 0.067437 0.0
2.215196 0.075449 0.0
2.198400 0.083582 0.0
2.179747 0.091738 0.0
2.159249 0.099816 0.0
2.136946 0.107710 0.0
2.112906 0.115317 0.0
2.087223 0.122538 0.0
2.060014 0.129279 0.0
2.031419 0.135457 0.0
2.001594 0.141003 0.0
1.970710 0.145857 0.0
1.938946 0.149977 0.0
1.906487 0.153334 0.0
1.873519 0.155914 0.0
1.840226 0.157714 0.0
1.806784 0.158747 0.0
1.773363 0.159035 0.0
1.740120 0.158608 0.0
1.707199 0.157506 0.0
1.674732 0.155772 0.0
1.642835 0.153455 0.0
1.611610 0.150605 0.0
1.581146 0.147274 0.0
1.551516 0.143512 0.0
1.522781 0.139371 0.0
1.494990 0.134897 0.0
1.468179 0.130135 0.0
1.442376 0.125129 0.0
1.417597 0.119917 0.0
1.393851 0.114535 0.0
1.371139 0.109017 0.0
1.349453 0.103393 0.0
1.328780 0.097694 0.0
1.309101 0.091948 0.0
1.290393 0.086184 0.0
1.272626 0.080432 0.0
1.255768 0.074723 0.0
1.239785 0.069091 0.0
1.224641 0.063571 0.0
1.210301 0.058200 0.0
1.196728 0.053016 0.0
1.183889 0.048055 0.0
1.171753 0.043351 0.0
1.160292 0.038935 0.0
1.149479 0.034830 0.0
1.139291 0.031053 0.0
1.129705 0.027613 0.0
1.120700 0.024510 0.0
1.112256 0.021740 0.0
1.104351 0.019289 0.0
1.096964 0.017139 0.0
1.090073 0.015268 0.0
1.083655 0.013650 0.0
1.077685 0.012259 0.0
1.072141 0.011068 0.0
1.066996 0.010049 0.0
1.062228 0.009179 0.0
1.057812 0.008434 0.0
1.053725 0.007792 0.0
1.049945 0.007237 0.0
1.046450 0.006751 0.0
1.043220 0.006321 0.0
1.040236 0.005936 0.0
1.037480 0.005586 0.0
1.034935 0.005266 0.0
1.032585 0.004968 0.0
1.030416 0.004688 0.0
1.028414 0.004424 0.0
1.026566 0.004172 0.0
1.024860 0.003932 0.0
1.023286 0.003703 0.0
1.021834 0.003482 0.0
1.020493 0.003271 0.0
1.019256 0.003068 0.0
1.018115 0.002874 0.0
1.017062 0.002689 0.0
1.016091 0.002512 0.0
1.015195 0.002343 0.0
1.014369 0.002182 0.0
1.013607 0.002029 0.0
1.012906 0.001884 0.0
1.012259 0.001747 0.0
1.011664 0.001617 0.0
1.011116 0.001494 0.0
1.010612 0.001377 0.0
1.010148 0.001267 0.0
1.009723 0.001163 0.0
1.009333 0.001065 0.0
1.008976 0.000971 0.0
1.008649 0.000883 0.0
1.008351 0.000799 0.0
1.008080 0.000720 0.0
1.007833 0.000644 0.0
1.007610 0.000571 0.0
1.007409 0.000502 0.0
1.007229 0.000435 0.0
1.007069 0.000370 0.0
1.006927 0.000307 0.0
1.006803 0.000245 0.0
1.006696 0.000184 0.0
1.006605 0.000122 0.0
1.006530 0.000061 0.0
1.006468 -0.000003 0.0
1.006420 -0.000068 0.0
1.006385 -0.000137 0.0
1.006359 -0.000209 0.0
1.006341 -0.000284 0.0
1.006332 -0.000364 0.0
1.000090 -0.000786 0.0
1.000447 -0.002371 0.0
1.001153 -0.003992 0.0
1.002200 -0.005662 0.0
1.003583 -0.007389 0.0
1.005298 -0.009179 0.0
1.007350 -0.011037 0.0
1.009743 -0.012968 0.0
1.012487 -0.014977 0.0
1.015592 -0.017071 0.0
1.019072 -0.019257 0.0
1.022941 -0.021541 0.0
1.027217 -0.023931 0.0
1.031918 -0.026436 0.0
1.037065 -0.029064 0.0
1.042679 -0.031822 0.0
1.048784 -0.034722 0.0
1.055406 -0.037770 0.0
1.062572 -0.040976 0.0
1.070312 -0.044349 0.0
1.078657 -0.047898 0.0
1.087639 -0.051631 0.0
1.097295 -0.055557 0.0
1.107660 -0.059682 0.0
1.118773 -0.064013 0.0
1.130675 -0.068556 0.0
1.143407 -0.073315 0.0
1.157013 -0.078291 0.0
1.171537 -0.083486 0.0
1.187023 -0.088895 0.0
1.203517 -0.094514 0.0
1.221063 -0.100333 0.0
1.239706 -0.106339 0.0
1.259488 -0.112513 0.0
1.280447 -0.118830 0.0
1.302621 -0.125262 0.0
1.326038 -0.131770 0.0
1.350725 -0.138311 0.0
1.376695 -0.144833 0.0
1.403956 -0.151274 0.0
1.432502 -0.157567 0.0
1.462313 -0.163634 0.0
1.493354 -0.169390 0.0
1.525571 -0.174744 0.0
1.558889 -0.179597 0.0
1.593214 -0.183848 0.0
1.628426 -0.187394 0.0
1.664382 -0.190133 0.0
1.700914 -0.191968 0.0
1.737830 -0.192811 0.0
1.774917 -0.192588 0.0
1.811940 -0.191242 0.0
1.848653 -0.188739 0.0
1.884796 -0.185073 0.0
1.920110 -0.180268 0.0
1.954342 -0.174380 0.0
1.987251 -0.167501 0.0
2.018625 -0.159750 0.0
2.048281 -0.151278 0.0
2.076081 -0.142253 0.0
2.101932 -0.132854 0.0
2.125787 -0.123264 0.0
2.147646 -0.113653 0.0
2.167553 -0.104174 0.0
2.185581 -0.094956 0.0
2.201830 -0.086098 0.0
2.216417 -0.077673 0.0
2.229463 -0.069722 0.0
2.241095 -0.062265 0.0
2.251433 -0.055300 0.0
2.260590 -0.048807 0.0
2.268668 -0.042754 0.0
2.275759 -0.037096 0.0
2.281942 -0.031783 0.0
2.287281 -0.026755 0.0
2.291832 -0.021950 0.0
2.295633 -0.017300 0.0
2.298710 -0.012731 0.0
2.301075 -0.008166 0.0
2.302722 -0.003526 0.0
2.303630 0.001271 0.0
2.303760 0.006309 0.0
2.303051 0.011667 0.0
2.301425 0.017419 0.0
2.298786 0.023628 0.0
2.295024 0.030343 0.0
2.290016 0.037596 0.0
2.283634 0.045394 0.0
2.275750 0.053727 0.0
2.266242 0.062559 0.0
2.254997 0.071830 0.0
2.241921 0.081461 0.0
2.226941 0.091356 0.0
2.210009 0.101402 0.0
2.191106 0.111474 0.0
2.170244 0.121440 0.0
2.147465 0.131167 0.0
2.122846 0.140520 0.0
2.096489 0.149374 0.0
2.068529 0.157611 0.0
2.039122 0.165128 0.0
2.008442 0.171836 0.0
1.976683 0.177667 0.0
1.944044 0.182570 0.0
1.910732 0.186513 0.0
1.876951 0.189483 0.0
1.842904 0.191485 0.0
1.808782 0.192540 0.0
1.774767 0.192679 0.0
1.741025 0.191949 0.0
1.707707 0.190403 0.0
1.674948 0.188101 0.0
1.642864 0.185107 0.0
1.611556 0.181487 0.0
1.581105 0.177308 0.0
1.551578 0.172635 0.0
1.523027 0.167533 0.0
1.495490 0.162062 0.0
1.468993 0.156278 0.0
1.443549 0.150233 0.0
1.419164 0.143977 0.0
1.395831 0.137553 0.0
1.373540 0.131003 0.0
1.352271 0.124363 0.0
1.331999 0.117670 0.0
1.312694 0.110956 0.0
1.294324 0.104256 0.0
1.276851 0.097601 0.0
1.260239 0.091025 0.0
1.244447 0.084563 0.0
1.229439 0.078251 0.0
1.215176 0.072123 0.0
1.201625 0.066216 0.0
1.188755 0.060563 0.0
1.176537 0.055196 0.0
1.164948 0.050141 0.0
1.153965 0.045419 0.0
1.143572 0.041045 0.0
1.133751 0.037027 0.0
1.124487 0.033365 0.0
1.115766 0.030052 0.0
1.107571 0.027077 0.0
1.099888 0.024422 0.0
1.092700 0.022065 0.0
1.085988 0.019984 0.0
1.079733 0.018150 0.0
1.073915 0.016539 0.0
1.068513 0.015124 0.0
1.063505 0.013880 0.0
1.058869 0.012784 0.0
1.054583 0.011815 0.0
1.050624 0.010953 0.0
1.046972 0.010181 0.0
1.043605 0.009486 0.0
1.040504 0.008856 0.0
1.037648 0.008278 0.0
1.035020 0.007747 0.0
1.032601 0.007254 0.0
1.030377 0.006795 0.0
1.028330 0.006365 0.0
1.026448 0.005961 0.0
1.024717 0.005581 0.0
1.023124 0.005221 0.0
1.021659 0.004882 0.0
1.020310 0.004560 0.0
1.019070 0.004257 0.0
1.017927 0.003969 0.0
1.016876 0.003698 0.0
1.015908 0.003442 0.0
1.015017 0.003200 0.0
1.014197 0.002972 0.0
1.013442 0.002757 0.0
1.012747 0.002554 0.0
1.012108 0.002364 0.0
1.011520 0.002184 0.0
1.010979 0.002015 0.0
1.010482 0.001857 0.0
1.010025 0.001708 0.0
1.009607 0.001567 0.0
1.009223 0.001435 0.0
1.008871 0.001310 0.0
1.008550 0.001192 0.0
1.008257 0.001081 0.0
1.007990 0.000976 0.0
1.007748 0.000876 0.0
1.007529 0.000781 0.0
1.007331 0.000690 0.0
1.007154 0.000603 0.0
1.006996 0.000520 0.0
1.006856 0.000439 0.0
1.006733 0.000360 0.0
1.006627 0.000282 0.0
1.006536 0.000206 0.0
1.006460 0.000129 0.0
1.006397 0.000052 0.0
1.006347 -0.000026 0.0
1.006309 -0.000105 0.0
1.006281 -0.000187 0.0
1.006262 -0.000270 0.0
1.006252 -0.000358 0.0
1.000084 -0.000960 0.0
1.000421 -0.002890 0.0
1.001090 -0.004849 0.0
1.002089 -0.006851 0.0
1.003415 -0.008907 0.0
1.005067 -0.011028 0.0
1.007050 -0.013221 0.0
1.009368 -0.015495 0.0
1.012029 -0.017856 0.0
1.015046 -0.020314 0.0