# vtk DataFile Version 3.0
Vector Field
ASCII
DATASET RECTILINEAR_GRID
DIMENSIONS 200 75 1
X_COORDINATES 200 double
0.050000 0.150000 0.250000 0.350000 0.450000 0.550000 0.650000 0.750000 0.850000 0.950000 1.050000 1.150000 1.250000 1.350000 1.450000 1.550000 1.650000 1.750000 1.850000 1.950000 2.050000 2.150000 2.250000 2.350000 2.450000 2.550000 2.650000 2.750000 2.850000 2.950000 3.050000 3.150000 3.250000 3.350000 3.450000 3.550000 3.650000 3.750000 3.850000 3.950000 4.050000 4.150000 4.250000 4.350000 4.450000 4.550000 4.650000 4.750000 4.850000 4.950000 5.050000 5.150000 5.250000 5.350000 5.450000 5.550000 5.650000 5.750000 5.850000 5.950000 6.050000 6.150000 6.250000 6.350000 6.450000 6.550000 6.650000 6.750000 6.850000 6.950000 7.050000 7.150000 7.250000 7.350000 7.450000 7.550000 7.650000 7.750000 7.850000 7.950000 8.050000 8.150000 8.250000 8.350000 8.450000 8.550000 8.650000 8.750000 8.850000 8.950000 9.050000 9.150000 9.250000 9.350000 9.450000 9.550000 9.650000 9.750000 9.850000 9.950000 10.050000 10.150000 10.250000 10.350000 10.450000 10.550000 10.650000 10.750000 10.850000 10.950000 11.050000 11.150000 11.250000 11.350000 11.450000 11.550000 11.650000 11.750000 11.850000 11.950000 12.050000 12.150000 12.250000 12.350000 12.450000 12.550000 12.650000 12.750000 12.850000 12.950000 13.050000 13.150000 13.250000 13.350000 13.450000 13.550000 13.650000 13.750000 13.850000 13.950000 14.050000 14.150000 14.250000 14.350000 14.450000 14.550000 14.650000 14.750000 14.850000 14.950000 15.050000 15.150000 15.250000 15.350000 15.450000 15.550000 15.650000 15.750000 15.850000 15.950000 16.050000 16.150000 16.250000 16.350000 16.450000 16.550000 16.650000 16.750000 16.850000 16.950000 17.050000 17.150000 17.250000 17.350000 17.450000 17.550000 17.650000 17.750000 17.850000 17.950000 18.050000 18.150000 18.250000 18.350000 18.450000 18.550000 18.650000 18.750000 18.850000 18.950000 19.050000 19.150000 19.250000 19.350000 19.450000 19.550000 19.650000 19.750000 19.850000 19.950000 
Y_COORDINATES 75 double
0.050000 0.150000 0.250000 0.350000 0.450000 0.550000 0.650000 0.750000 0.850000 0.950000 1.050000 1.150000 1.250000 1.350000 1.450000 1.550000 1.650000 1.750000 1.850000 1.950000 2.050000 2.150000 2.250000 2.350000 2.450000 2.550000 2.650000 2.750000 2.850000 2.950000 3.050000 3.150000 3.250000 3.350000 3.450000 3.550000 3.650000 3.750000 3.850000 3.950000 4.050000 4.150000 4.250000 4.350000 4.450000 4.550000 4.650000 4.750000 4.850000 4.950000 5.050000 5.150000 5.250000 5.350000 5.450000 5.550000 5.650000 5.750000 5.850000 5.950000 6.050000 6.150000 6.250000 6.350000 6.450000 6.550000 6.650000 6.750000 6.850000 6.950000 7.050000 7.150000 7.250000 7.350000 7.450000 
Z_COORDINATES 1 double
0.0
POINT_DATA 15000
VECTORS Vektorfeld double
0.999709 0.000291 0.0
0.998999 0.000419 0.0
0.998187 0.000393 0.0
0.997488 0.000306 0.0
0.996991 0.000190 0.0
0.996746 0.000055 0.0
0.996784 -0.000093 0.0
0.997130 -0.000253 0.0
0.997806 -0.000424 0.0
0.998835 -0.000605 0.0
1.000237 -0.000797 0.0
1.002034 -0.001001 0.0
1.004252 -0.001216 0.0
1.006913 -0.001445 0.0
1.010045 -0.001687 0.0
1.013675 -0.001943 0.0
1.017834 -0.002215 0.0
1.022552 -0.002503 0.0
1.027862 -0.002807 0.0
1.033798 -0.003129 0.0
1.040396 -0.003469 0.0
1.047693 -0.003828 0.0
1.055729 -0.004207 0.0
1.064541 -0.004605 0.0
1.074170 -0.005024 0.0
1.084658 -0.005463 0.0
1.096045 -0.005923 0.0
1.108372 -0.006404 0.0
1.121679 -0.006904 0.0
1.136006 -0.007423 0.0
1.151390 -0.007961 0.0
1.167866 -0.008515 0.0
1.185466 -0.009085 0.0
1.204218 -0.009667 0.0
1.224145 -0.010260 0.0
1.245265 -0.010860 0.0
1.267588 -0.011463 0.0
1.291115 -0.012065 0.0
1.315840 -0.012660 0.0
1.341745 -0.013245 0.0
1.368801 -0.013811 0.0
1.396965 -0.014353 0.0
1.426182 -0.014863 0.0
1.456380 -0.015334 0.0
1.487472 -0.015758 0.0
1.519357 -0.016127 0.0
1.551917 -0.016433 0.0
1.585018 -0.016668 0.0
1.618513 -0.016826 0.0
1.652241 -0.016902 0.0
1.686032 -0.016889 0.0
1.719706 -0.016785 0.0
1.753080 -0.016589 0.0
1.785972 -0.016302 0.0
1.818202 -0.015927 0.0
1.849598 -0.015469 0.0
1.880003 -0.014936 0.0
1.909276 -0.014337 0.0
1.937298 -0.013684 0.0
1.963973 -0.012990 0.0
1.989230 -0.012268 0.0
2.013028 -0.011530 0.0
2.035350 -0.010791 0.0
2.056204 -0.010063 0.0
2.075622 -0.009355 0.0
2.093654 -0.008677 0.0
2.110369 -0.008037 0.0
2.125846 -0.007440 0.0
2.140177 -0.006890 0.0
2.153456 -0.006389 0.0
2.165785 -0.005940 0.0
2.177265 -0.005541 0.0
2.188000 -0.005194 0.0
2.198091 -0.004897 0.0
2.207638 -0.004650 0.0
2.216740 -0.004452 0.0
2.225492 -0.004301 0.0
2.233991 -0.004197 0.0
2.242327 -0.004139 0.0
2.250592 -0.004126 0.0
2.258873 -0.004155 0.0
2.267254 -0.004226 0.0
2.275816 -0.004336 0.0
2.284634 -0.004481 0.0
2.293774 -0.004659 0.0
2.303295 -0.004863 0.0
2.313247 -0.005088 0.0
2.323663 -0.005328 0.0
2.334567 -0.005575 0.0
2.345964 -0.005822 0.0
2.357846 -0.006059 0.0
2.370184 -0.006279 0.0
2.382937 -0.006474 0.0
2.396044 -0.006634 0.0
2.409432 -0.006753 0.0
2.423010 -0.006825 0.0
2.436677 -0.006842 0.0
2.450318 -0.006799 0.0
2.463810 -0.006693 0.0
2.477021 -0.006518 0.0
2.489812 -0.006273 0.0
2.502040 -0.005955 0.0
2.513559 -0.005564 0.0
2.524220 -0.005098 0.0
2.533876 -0.004558 0.0
2.542379 -0.003945 0.0
2.549586 -0.003262 0.0
2.555359 -0.002511 0.0
2.559566 -0.001696 0.0
2.562087 -0.000825 0.0
2.562828 0.000084 0.0
2.561715 0.001029 0.0
2.558669 0.002017 0.0
2.553610 0.003043 0.0
2.546465 0.004103 0.0
2.537170 0.005192 0.0
2.525674 0.006304 0.0
2.511934 0.007436 0.0
2.495918 0.008580 0.0
2.477606 0.009732 0.0
2.456986 0.010887 0.0
2.434060 0.012039 0.0
2.408839 0.013182 0.0
2.381345 0.014312 0.0
2.351611 0.015422 0.0
2.319680 0.016508 0.0
2.285607 0.017565 0.0
2.249456 0.018586 0.0
2.211303 0.019567 0.0
2.171231 0.020504 0.0
2.129336 0.021392 0.0
2.085718 0.022226 0.0
2.040489 0.023003 0.0
1.993766 0.023720 0.0
1.945673 0.024374 0.0
1.896337 0.024962 0.0
1.845892 0.025483 0.0
1.794474 0.025936 0.0
1.742219 0.026319 0.0
1.689267 0.026633 0.0
1.635755 0.026878 0.0
1.581823 0.027054 0.0
1.527608 0.027162 0.0
1.473244 0.027202 0.0
1.418866 0.027176 0.0
1.364606 0.027084 0.0
1.310597 0.026926 0.0
1.256969 0.026702 0.0
1.203853 0.026414 0.0
1.151380 0.026059 0.0
1.099685 0.025637 0.0
1.048903 0.025146 0.0
0.999172 0.024584 0.0
0.950638 0.023950 0.0
0.903446 0.023241 0.0
0.857753 0.022453 0.0
0.813718 0.021582 0.0
0.771512 0.020624 0.0
0.731315 0.019573 0.0
0.693315 0.018426 0.0
0.657707 0.017181 0.0
0.624685 0.015841 0.0
0.594428 0.014415 0.0
0.567096 0.012917 0.0
0.542813 0.011366 0.0
0.521667 0.009780 0.0
0.503708 0.008179 0.0
0.488961 0.006568 0.0
0.477472 0.004920 0.0
0.469405 0.003147 0.0
0.465114 0.001145 0.0
0.464831 -0.000861 0.0
0.468154 -0.002462 0.0
0.474283 -0.003668 0.0
0.482492 -0.004541 0.0
0.492183 -0.005150 0.0
0.502888 -0.005556 0.0
0.514252 -0.005808 0.0
0.526002 -0.005942 0.0
0.537932 -0.005988 0.0
0.549883 -0.005964 0.0
0.561732 -0.005886 0.0
0.573385 -0.005766 0.0
0.584764 -0.005613 0.0
0.595811 -0.005434 0.0
0.606477 -0.005232 0.0
0.616723 -0.005013 0.0
0.626516 -0.004779 0.0
0.635827 -0.004532 0.0
0.644631 -0.004272 0.0
0.652903 -0.004000 0.0
0.660616 -0.003714 0.0
0.667742 -0.003412 0.0
0.674247 -0.003092 0.0
0.680087 -0.002748 0.0
0.685208 -0.002373 0.0
0.689540 -0.001960 0.0
0.693002 -0.001503 0.0
0.695515 -0.001011 0.0
0.697204 -0.000678 0.0
1.000253 0.000329 0.0
1.000930 0.000414 0.0
1.001891 0.000249 0.0
1.003081 -0.000040 0.0
1.004510 -0.000397 0.0
1.006199 -0.000801 0.0
1.008166 -0.001242 0.0
1.010429 -0.001713 0.0
1.013005 -0.002216 0.0
1.015912 -0.002748 0.0
1.019166 -0.003311 0.0
1.022788 -0.003907 0.0
1.026798 -0.004537 0.0
1.031215 -0.005204 0.0
1.036065 -0.005909 0.0
1.041369 -0.006656 0.0
1.047155 -0.007447 0.0
1.053450 -0.008284 0.0
1.060283 -0.009169 0.0
1.067684 -0.010105 0.0
1.075686 -0.011094 0.0
1.084322 -0.012138 0.0
1.093628 -0.013238 0.0
1.103639 -0.014398 0.0
1.114395 -0.015617 0.0
1.125932 -0.016896 0.0
1.138292 -0.018237 0.0
1.151512 -0.019638 0.0
1.165634 -0.021099 0.0
1.180696 -0.022617 0.0
1.196737 -0.024191 0.0
1.213793 -0.025817 0.0
1.231899 -0.027489 0.0
1.251085 -0.029202 0.0
1.271380 -0.030948 0.0
1.292805 -0.032717 0.0
1.315377 -0.034499 0.0
1.339102 -0.036281 0.0
1.363983 -0.038049 0.0
1.390008 -0.039786 0.0
1.417156 -0.041474 0.0
1.445393 -0.043092 0.0
1.474672 -0.044620 0.0
1.504930 -0.046034 0.0
1.536089 -0.047311 0.0
1.568056 -0.048426 0.0
1.600719 -0.049356 0.0
1.633952 -0.050079 0.0
1.667613 -0.050572 0.0
1.701548 -0.050819 0.0
1.735589 -0.050803 0.0
1.769562 -0.050517 0.0
1.803284 -0.049954 0.0
1.836573 -0.049119 0.0
1.869250 -0.048018 0.0
1.901144 -0.046669 0.0
1.932096 -0.045093 0.0
1.961963 -0.043320 0.0
1.990624 -0.041384 0.0
2.017983 -0.039323 0.0
2.043968 -0.037178 0.0
2.068538 -0.034987 0.0
2.091674 -0.032792 0.0
2.113385 -0.030628 0.0
2.133704 -0.028526 0.0
2.152681 -0.026515 0.0
2.170383 -0.024616 0.0
2.186890 -0.022846 0.0
2.202291 -0.021215 0.0
2.216680 -0.019732 0.0
2.230156 -0.018401 0.0
2.242816 -0.017221 0.0
2.254761 -0.016193 0.0
2.266087 -0.015315 0.0
2.276891 -0.014583 0.0
2.287266 -0.013995 0.0
2.297304 -0.013548 0.0
2.307094 -0.013239 0.0
2.316725 -0.013065 0.0
2.326281 -0.013022 0.0
2.335847 -0.013106 0.0
2.345503 -0.013312 0.0
2.355325 -0.013634 0.0
2.365385 -0.014061 0.0
2.375749 -0.014583 0.0
2.386473 -0.015185 0.0
2.397604 -0.015850 0.0
2.409179 -0.016558 0.0
2.421219 -0.017289 0.0
2.433732 -0.018019 0.0
2.446710 -0.018722 0.0
2.460130 -0.019375 0.0
2.473952 -0.019953 0.0
2.488122 -0.020432 0.0
2.502569 -0.020790 0.0
2.517210 -0.021008 0.0
2.531951 -0.021066 0.0
2.546684 -0.020949 0.0
2.561294 -0.020645 0.0
2.575657 -0.020141 0.0
2.589646 -0.019430 0.0
2.603124 -0.018506 0.0
2.615958 -0.017365 0.0
2.628007 -0.016007 0.0
2.639137 -0.014433 0.0
2.649210 -0.012647 0.0
2.658096 -0.010654 0.0
2.665667 -0.008463 0.0
2.671801 -0.006086 0.0
2.676381 -0.003536 0.0
2.679275 -0.000839 0.0
2.680345 0.001995 0.0
2.679483 0.004959 0.0
2.676603 0.008040 0.0
2.671631 0.011223 0.0
2.664506 0.014492 0.0
2.655175 0.017832 0.0
2.643595 0.021227 0.0
2.629737 0.024662 0.0
2.613579 0.028120 0.0
2.595113 0.031585 0.0
2.574339 0.035041 0.0
2.551268 0.038471 0.0
2.525925 0.041860 0.0
2.498342 0.045191 0.0
2.468564 0.048449 0.0
2.436645 0.051616 0.0
2.402652 0.054679 0.0
2.366658 0.057621 0.0
2.328750 0.060429 0.0
2.289023 0.063089 0.0
2.247579 0.065589 0.0
2.204529 0.067918 0.0
2.159993 0.070065 0.0
2.114093 0.072022 0.0
2.066960 0.073782 0.0
2.018726 0.075341 0.0
1.969528 0.076694 0.0
1.919504 0.077840 0.0
1.868791 0.078777 0.0
1.817530 0.079507 0.0
1.765856 0.080031 0.0
1.713907 0.080350 0.0
1.661816 0.080468 0.0
1.609717 0.080387 0.0
1.557740 0.080109 0.0
1.506013 0.079636 0.0
1.454666 0.078968 0.0
1.403825 0.078105 0.0
1.353619 0.077046 0.0
1.304177 0.075787 0.0
1.255631 0.074324 0.0
1.208115 0.072652 0.0
1.161769 0.070764 0.0
1.116736 0.068651 0.0
1.073168 0.066304 0.0
1.031222 0.063712 0.0
0.991060 0.060861 0.0
0.952853 0.057740 0.0
0.916773 0.054340 0.0
0.882990 0.050658 0.0
0.851672 0.046705 0.0
0.822974 0.042506 0.0
0.797035 0.038098 0.0
0.773973 0.033531 0.0
0.753875 0.028859 0.0
0.736802 0.024132 0.0
0.722786 0.019378 0.0
0.711806 0.014579 0.0
0.703699 0.009662 0.0
0.698033 0.004587 0.0
0.694390 -0.000377 0.0
0.692738 -0.004617 0.0
0.693064 -0.007969 0.0
0.695152 -0.010537 0.0
0.698761 -0.012453 0.0
0.703644 -0.013840 0.0
0.709563 -0.014805 0.0
0.716301 -0.015434 0.0
0.723671 -0.015796 0.0
0.731509 -0.015944 0.0
0.739676 -0.015923 0.0
0.748058 -0.015764 0.0
0.756558 -0.015494 0.0
0.765092 -0.015134 0.0
0.773594 -0.014700 0.0
0.782004 -0.014203 0.0
0.790274 -0.013653 0.0
0.798361 -0.013056 0.0
0.806225 -0.012416 0.0
0.813831 -0.011733 0.0
0.821145 -0.011007 0.0
0.828130 -0.010231 0.0
0.834749 -0.009397 0.0
0.840959 -0.008493 0.0
0.846707 -0.007497 0.0
0.851925 -0.006386 0.0
0.856516 -0.005129 0.0
0.860323 -0.003704 0.0
0.862726 -0.002076 0.0
1.000137 -0.000061 0.0
1.000605 -0.000341 0.0
1.001418 -0.000771 0.0
1.002520 -0.001312 0.0
1.003897 -0.001931 0.0
1.005551 -0.002610 0.0
1.007492 -0.003341 0.0
1.009735 -0.004119 0.0
1.012293 -0.004944 0.0
1.015183 -0.005815 0.0
1.018421 -0.006736 0.0
1.022026 -0.007708 0.0
1.026017 -0.008735 0.0
1.030414 -0.009821 0.0
1.035241 -0.010968 0.0
1.040520 -0.012182 0.0
1.046279 -0.013466 0.0
1.052543 -0.014824 0.0
1.059343 -0.016260 0.0
1.066707 -0.017779 0.0
1.074670 -0.019383 0.0
1.083263 -0.021077 0.0
1.092523 -0.022864 0.0
1.102486 -0.024747 0.0
1.113191 -0.026727 0.0
1.124676 -0.028808 0.0
1.136981 -0.030989 0.0
1.150146 -0.033272 0.0
1.164214 -0.035654 0.0
1.179223 -0.038133 0.0
1.195213 -0.040706 0.0
1.212223 -0.043368 0.0
1.230288 -0.046110 0.0
1.249443 -0.048923 0.0
1.269716 -0.051795 0.0
1.291132 -0.054711 0.0
1.313709 -0.057654 0.0
1.337458 -0.060602 0.0
1.362382 -0.063533 0.0
1.388475 -0.066419 0.0
1.415716 -0.069230 0.0
1.444074 -0.071932 0.0
1.473505 -0.074489 0.0
1.503946 -0.076864 0.0
1.535322 -0.079016 0.0
1.567538 -0.080904 0.0
1.600483 -0.082487 0.0
1.634029 -0.083727 0.0
1.668030 -0.084587 0.0
1.702328 -0.085036 0.0
1.736750 -0.085049 0.0
1.771113 -0.084607 0.0
1.805228 -0.083702 0.0
1.838904 -0.082337 0.0
1.871952 -0.080525 0.0
1.904191 -0.078294 0.0
1.935453 -0.075681 0.0
1.965588 -0.072734 0.0
1.994469 -0.069513 0.0
2.021995 -0.066080 0.0
2.048094 -0.062505 0.0
2.072722 -0.058857 0.0
2.095867 -0.055203 0.0
2.117541 -0.051603 0.0
2.137783 -0.048112 0.0
2.156650 -0.044774 0.0
2.174217 -0.041627 0.0
2.190571 -0.038696 0.0
2.205805 -0.036001 0.0
2.220021 -0.033552 0.0
2.233320 -0.031355 0.0
2.245804 -0.029411 0.0
2.257575 -0.027718 0.0
2.268731 -0.026272 0.0
2.279368 -0.025067 0.0
2.289580 -0.024099 0.0
2.299460 -0.023362 0.0
2.309096 -0.022852 0.0
2.318577 -0.022563 0.0
2.327989 -0.022491 0.0
2.337416 -0.022629 0.0
2.346941 -0.022969 0.0
2.356643 -0.023500 0.0
2.366596 -0.024208 0.0
2.376870 -0.025073 0.0
2.387523 -0.026072 0.0
2.398608 -0.027179 0.0
2.410163 -0.028359 0.0
2.422213 -0.029578 0.0
2.434766 -0.030796 0.0
2.447817 -0.031973 0.0
2.461342 -0.033068 0.0
2.475300 -0.034040 0.0
2.489635 -0.034849 0.0
2.504275 -0.035460 0.0
2.519135 -0.035839 0.0
2.534116 -0.035956 0.0
2.549109 -0.035785 0.0
2.563995 -0.035305 0.0
2.578647 -0.034497 0.0
2.592935 -0.033349 0.0
2.606719 -0.031850 0.0
2.619862 -0.029996 0.0
2.632223 -0.027786 0.0
2.643661 -0.025222 0.0
2.654039 -0.022310 0.0
2.663222 -0.019060 0.0
2.671082 -0.015487 0.0
2.677493 -0.011608 0.0
2.682340 -0.007441 0.0
2.685516 -0.003004 0.0
2.686927 0.001678 0.0
2.686486 0.006578 0.0
2.684116 0.011671 0.0
2.679749 0.016930 0.0
2.673328 0.022330 0.0
2.664807 0.027846 0.0
2.654150 0.033450 0.0
2.641332 0.039117 0.0
2.626336 0.044819 0.0
2.609157 0.050531 0.0
2.589800 0.056226 0.0
2.568281 0.061876 0.0
2.544624 0.067455 0.0
2.518867 0.072937 0.0
2.491055 0.078294 0.0
2.461244 0.083501 0.0
2.429501 0.088532 0.0
2.395901 0.093362 0.0
2.360529 0.097968 0.0
2.323480 0.102327 0.0
2.284856 0.106420 0.0
2.244766 0.110227 0.0
2.203325 0.113733 0.0
2.160656 0.116923 0.0
2.116885 0.119786 0.0
2.072140 0.122316 0.0
2.026553 0.124505 0.0
1.980256 0.126351 0.0
1.933381 0.127853 0.0
1.886060 0.129014 0.0
1.838422 0.129835 0.0
1.790595 0.130322 0.0
1.742702 0.130479 0.0
1.694866 0.130312 0.0
1.647204 0.129824 0.0
1.599832 0.129019 0.0
1.552864 0.127900 0.0
1.506413 0.126466 0.0
1.460589 0.124715 0.0
1.415504 0.122644 0.0
1.371270 0.120247 0.0
1.328001 0.117514 0.0
1.285815 0.114434 0.0
1.244832 0.110996 0.0
1.205175 0.107184 0.0
1.166972 0.102982 0.0
1.130351 0.098373 0.0
1.095443 0.093344 0.0
1.062374 0.087886 0.0
1.031267 0.082002 0.0
1.002237 0.075710 0.0
0.975386 0.069049 0.0
0.950804 0.062075 0.0
0.928561 0.054860 0.0
0.908704 0.047485 0.0
0.891250 0.040032 0.0
0.876176 0.032569 0.0
0.863386 0.025157 0.0
0.852700 0.017877 0.0
0.843846 0.010892 0.0
0.836447 0.004359 0.0
0.830323 -0.001577 0.0
0.825642 -0.006652 0.0
0.822489 -0.010788 0.0
0.820761 -0.014084 0.0
0.820320 -0.016652 0.0
0.821012 -0.018604 0.0
0.822677 -0.020039 0.0
0.825161 -0.021044 0.0
0.828320 -0.021693 0.0
0.832025 -0.022046 0.0
0.836158 -0.022156 0.0
0.840619 -0.022063 0.0
0.845319 -0.021800 0.0
0.850181 -0.021397 0.0
0.855138 -0.020873 0.0
0.860131 -0.020246 0.0
0.865111 -0.019528 0.0
0.870030 -0.018727 0.0
0.874849 -0.017847 0.0
0.879528 -0.016886 0.0
0.884029 -0.015839 0.0
0.888315 -0.014695 0.0
0.892345 -0.013435 0.0
0.896072 -0.012030 0.0
0.899440 -0.010439 0.0
0.902370 -0.008598 0.0
0.904750 -0.006422 0.0
0.906365 -0.003377 0.0
1.000100 -0.000298 0.0
1.000479 -0.000951 0.0
1.001196 -0.001691 0.0
1.002217 -0.002516 0.0
1.003528 -0.003415 0.0
1.005128 -0.004380 0.0
1.007021 -0.005407 0.0
1.009218 -0.006493 0.0
1.011730 -0.007641 0.0
1.014573 -0.008851 0.0
1.017761 -0.010127 0.0
1.021313 -0.011474 0.0
1.025248 -0.012895 0.0
1.029586 -0.014396 0.0
1.034349 -0.015983 0.0
1.039562 -0.017660 0.0
1.045249 -0.019434 0.0
1.051439 -0.021310 0.0
1.058159 -0.023294 0.0
1.065441 -0.025392 0.0
1.073316 -0.027608 0.0
1.081820 -0.029950 0.0
1.090988 -0.032420 0.0
1.100857 -0.035023 0.0
1.111466 -0.037764 0.0
1.122855 -0.040645 0.0
1.135064 -0.043667 0.0
1.148136 -0.046831 0.0
1.162112 -0.050137 0.0
1.177035 -0.053581 0.0
1.192946 -0.057160 0.0
1.209886 -0.060864 0.0
1.227893 -0.064686 0.0
1.247004 -0.068612 0.0
1.267250 -0.072625 0.0
1.288660 -0.076706 0.0
1.311255 -0.080831 0.0
1.335051 -0.084970 0.0
1.360054 -0.089092 0.0
1.386260 -0.093158 0.0
1.413654 -0.097126 0.0
1.442209 -0.100949 0.0
1.471882 -0.104576 0.0
1.502615 -0.107952 0.0
1.534331 -0.111020 0.0
1.566937 -0.113722 0.0
1.600321 -0.115998 0.0
1.634352 -0.117792 0.0
1.668880 -0.119052 0.0
1.703739 -0.119729 0.0
1.738748 -0.119786 0.0
1.773713 -0.119197 0.0
1.808433 -0.117947 0.0
1.842703 -0.116038 0.0
1.876319 -0.113489 0.0
1.909086 -0.110337 0.0
1.940821 -0.106636 0.0
1.971363 -0.102456 0.0
2.000574 -0.097883 0.0
2.028346 -0.093009 0.0
2.054606 -0.087935 0.0
2.079310 -0.082761 0.0
2.102451 -0.077585 0.0
2.124050 -0.072494 0.0
2.144154 -0.067566 0.0
2.162833 -0.062866 0.0
2.180172 -0.058442 0.0
2.196270 -0.054332 0.0
2.211230 -0.050560 0.0
2.225160 -0.047139 0.0
2.238169 -0.044076 0.0
2.250364 -0.041370 0.0
2.261848 -0.039015 0.0
2.272722 -0.037005 0.0
2.283084 -0.035332 0.0
2.293027 -0.033989 0.0
2.302642 -0.032967 0.0
2.312020 -0.032261 0.0
2.321248 -0.031863 0.0
2.330413 -0.031769 0.0
2.339602 -0.031969 0.0
2.348900 -0.032453 0.0
2.358391 -0.033208 0.0
2.368152 -0.034214 0.0
2.378259 -0.035446 0.0
2.388778 -0.036871 0.0
2.399764 -0.038451 0.0
2.411261 -0.040139 0.0
2.423299 -0.041885 0.0
2.435889 -0.043633 0.0
2.449026 -0.045325 0.0
2.462686 -0.046902 0.0
2.476828 -0.048306 0.0
2.491392 -0.049482 0.0
2.506304 -0.050379 0.0
2.521473 -0.050949 0.0
2.536796 -0.051150 0.0
2.552159 -0.050947 0.0
2.567439 -0.050308 0.0
2.582503 -0.049210 0.0
2.597214 -0.047634 0.0
2.611430 -0.045566 0.0
2.625008 -0.043001 0.0
2.637800 -0.039935 0.0
2.649664 -0.036374 0.0
2.660456 -0.032327 0.0
2.670037 -0.027808 0.0
2.678273 -0.022836 0.0
2.685039 -0.017436 0.0
2.690213 -0.011634 0.0
2.693689 -0.005462 0.0
2.695369 0.001046 0.0
2.695165 0.007854 0.0
2.693004 0.014927 0.0
2.688818 0.022227 0.0
2.682555 0.029718 0.0
2.674172 0.037363 0.0
2.663636 0.045125 0.0
2.650928 0.052968 0.0
2.636037 0.060854 0.0
2.618966 0.068746 0.0
2.599727 0.076607 0.0
2.578343 0.084398 0.0
2.554851 0.092082 0.0
2.529297 0.099622 0.0
2.501737 0.106981 0.0
2.472241 0.114122 0.0
2.440885 0.121009 0.0
2.407760 0.127609 0.0
2.372962 0.133889 0.0
2.336601 0.139817 0.0
2.298790 0.145366 0.0
2.259652 0.150509 0.0
2.219316 0.155227 0.0
2.177915 0.159499 0.0
2.135586 0.163311 0.0
2.092466 0.166655 0.0
2.048697 0.169522 0.0
2.004415 0.171912 0.0
1.959757 0.173824 0.0
1.914857 0.175264 0.0
1.869842 0.176237 0.0
1.824838 0.176752 0.0
1.779961 0.176818 0.0
1.735326 0.176445 0.0
1.691039 0.175640 0.0
1.647201 0.174412 0.0
1.603910 0.172766 0.0
1.561258 0.170703 0.0
1.519334 0.168226 0.0
1.478225 0.165328 0.0
1.438016 0.162006 0.0
1.398791 0.158248 0.0
1.360635 0.154042 0.0
1.323633 0.149374 0.0
1.287870 0.144226 0.0
1.253431 0.138581 0.0
1.220403 0.132423 0.0
1.188865 0.125740 0.0
1.158895 0.118528 0.0
1.130563 0.110797 0.0
1.103932 0.102576 0.0
1.079054 0.093912 0.0
1.055972 0.084877 0.0
1.034713 0.075560 0.0
1.015291 0.066064 0.0
0.997695 0.056501 0.0
0.981885 0.046985 0.0
0.967781 0.037636 0.0
0.955266 0.028600 0.0
0.944217 0.020072 0.0
0.934542 0.012253 0.0
0.926049 0.005146 0.0
0.918574 -0.001219 0.0
0.912227 -0.006722 0.0
0.907107 -0.011302 0.0
0.903156 -0.015042 0.0
0.900284 -0.018034 0.0
0.898385 -0.020375 0.0
0.897347 -0.022154 0.0
0.897056 -0.023451 0.0
0.897404 -0.024340 0.0
0.898287 -0.024880 0.0
0.899613 -0.025126 0.0
0.901298 -0.025121 0.0
0.903265 -0.024904 0.0
0.905447 -0.024505 0.0
0.907785 -0.023947 0.0
0.910227 -0.023249 0.0
0.912725 -0.022424 0.0
0.915236 -0.021480 0.0
0.917723 -0.020418 0.0
0.920147 -0.019233 0.0
0.922475 -0.017915 0.0
0.924671 -0.016441 0.0
0.926701 -0.014780 0.0
0.928526 -0.012881 0.0
0.930107 -0.010667 0.0
0.931408 -0.008033 0.0
0.932430 -0.004404 0.0
1.000085 -0.000483 0.0
1.000420 -0.001479 0.0
1.001073 -0.002532 0.0
1.002030 -0.003652 0.0
1.003280 -0.004840 0.0
1.004821 -0.006096 0.0
1.006658 -0.007421 0.0
1.008798 -0.008816 0.0
1.011253 -0.010285 0.0
1.014034 -0.011831 0.0
1.017158 -0.013460 0.0
1.020641 -0.015176 0.0
1.024502 -0.016988 0.0
1.028761 -0.018900 0.0
1.033439 -0.020921 0.0
1.038562 -0.023057 0.0
1.044153 -0.025316 0.0
1.050241 -0.027705 0.0
1.056854 -0.030232 0.0
1.064023 -0.032905 0.0
1.071781 -0.035730 0.0
1.080163 -0.038714 0.0
1.089205 -0.041865 0.0
1.098944 -0.045187 0.0
1.109421 -0.048686 0.0
1.120676 -0.052366 0.0
1.132751 -0.056230 0.0
1.145691 -0.060279 0.0
1.159538 -0.064513 0.0
1.174338 -0.068928 0.0
1.190134 -0.073520 0.0
1.206970 -0.078280 0.0
1.224888 -0.083195 0.0
1.243927 -0.088252 0.0
1.264124 -0.093428 0.0
1.285511 -0.098700 0.0
1.308116 -0.104036 0.0
1.331957 -0.109402 0.0
1.357048 -0.114754 0.0
1.383389 -0.120044 0.0
1.410972 -0.125217 0.0
1.439773 -0.130213 0.0
1.469753 -0.134965 0.0
1.500859 -0.139401 0.0
1.533016 -0.143445 0.0
1.566132 -0.147019 0.0
1.600094 -0.150046 0.0
1.634765 -0.152447 0.0
1.669993 -0.154152 0.0
1.705600 -0.155095 0.0
1.741395 -0.155224 0.0
1.777170 -0.154499 0.0
1.812706 -0.152900 0.0
1.847779 -0.150427 0.0
1.882164 -0.147101 0.0
1.915646 -0.142972 0.0
1.948021 -0.138111 0.0
1.979109 -0.132612 0.0
2.008761 -0.126589 0.0
2.036858 -0.120172 0.0
2.063321 -0.113495 0.0
2.088113 -0.106697 0.0
2.111230 -0.099907 0.0
2.132706 -0.093246 0.0
2.152605 -0.086816 0.0
2.171010 -0.080700 0.0
2.188025 -0.074962 0.0
2.203763 -0.069647 0.0
2.218340 -0.064782 0.0
2.231877 -0.060384 0.0
2.244490 -0.056453 0.0
2.256291 -0.052988 0.0
2.267388 -0.049978 0.0
2.277884 -0.047412 0.0
2.287876 -0.045279 0.0
2.297457 -0.043567 0.0
2.306719 -0.042266 0.0
2.315749 -0.041369 0.0
2.324636 -0.040870 0.0
2.333469 -0.040760 0.0
2.342335 -0.041033 0.0
2.351323 -0.041676 0.0
2.360522 -0.042675 0.0
2.370018 -0.044005 0.0
2.379892 -0.045636 0.0
2.390218 -0.047526 0.0
2.401062 -0.049625 0.0
2.412473 -0.051873 0.0
2.424486 -0.054202 0.0
2.437117 -0.056537 0.0
2.450363 -0.058803 0.0
2.464200 -0.060920 0.0
2.478584 -0.062813 0.0
2.493452 -0.064408 0.0
2.508724 -0.065637 0.0
2.524304 -0.066440 0.0
2.540083 -0.066762 0.0
2.555939 -0.066555 0.0
2.571742 -0.065782 0.0
2.587353 -0.064411 0.0
2.602628 -0.062419 0.0
2.617419 -0.059788 0.0
2.631574 -0.056511 0.0
2.644941 -0.052585 0.0
2.657371 -0.048017 0.0
2.668714 -0.042818 0.0
2.678825 -0.037008 0.0
2.687565 -0.030612 0.0
2.694802 -0.023662 0.0
2.700413 -0.016194 0.0
2.704286 -0.008251 0.0
2.706320 0.000121 0.0
2.706426 0.008875 0.0
2.704530 0.017964 0.0
2.700567 0.027339 0.0
2.694483 0.036953 0.0
2.686234 0.046759 0.0
2.675790 0.056709 0.0
2.663130 0.066753 0.0
2.648246 0.076844 0.0
2.631140 0.086934 0.0
2.611827 0.096971 0.0
2.590335 0.106909 0.0
2.566700 0.116697 0.0
2.540975 0.126286 0.0
2.513222 0.135629 0.0
2.483515 0.144676 0.0
2.451943 0.153383 0.0
2.418603 0.161702 0.0
2.383604 0.169592 0.0
2.347068 0.177012 0.0
2.309124 0.183926 0.0
2.269909 0.190301 0.0
2.229570 0.196110 0.0
2.188257 0.201329 0.0
2.146124 0.205943 0.0
2.103329 0.209938 0.0
2.060028 0.213310 0.0
2.016376 0.216058 0.0
1.972525 0.218187 0.0
1.928621 0.219706 0.0
1.884804 0.220627 0.0
1.841206 0.220965 0.0
1.797950 0.220737 0.0
1.755151 0.219960 0.0
1.712913 0.218649 0.0
1.671334 0.216820 0.0
1.630499 0.214484 0.0
1.590487 0.211649 0.0
1.551371 0.208320 0.0
1.513216 0.204498 0.0
1.476082 0.200180 0.0
1.440025 0.195357 0.0
1.405096 0.190018 0.0
1.371345 0.184151 0.0
1.338819 0.177738 0.0
1.307561 0.170765 0.0
1.277611 0.163219 0.0
1.249003 0.155090 0.0
1.221768 0.146383 0.0
1.195928 0.137114 0.0
1.171499 0.127319 0.0
1.148492 0.117054 0.0
1.126909 0.106400 0.0
1.106746 0.095458 0.0
1.087990 0.084344 0.0
1.070616 0.073190 0.0
1.054586 0.062135 0.0
1.039847 0.051329 0.0
1.026335 0.040934 0.0
1.013996 0.031126 0.0
1.002799 0.022071 0.0
0.992736 0.013885 0.0
0.983714 0.006538 0.0
0.975583 -0.000002 0.0
0.968377 -0.005695 0.0
0.962182 -0.010503 0.0
0.956966 -0.014484 0.0
0.952662 -0.017723 0.0
0.949195 -0.020300 0.0
0.946478 -0.022298 0.0
0.944427 -0.023789 0.0
0.942956 -0.024842 0.0
0.941983 -0.025517 0.0
0.941435 -0.025866 0.0
0.941242 -0.025933 0.0
0.941342 -0.025757 0.0
0.941678 -0.025368 0.0
0.942200 -0.024791 0.0
0.942864 -0.024043 0.0
0.943629 -0.023137 0.0
0.944458 -0.022076 0.0
0.945320 -0.020861 0.0
0.946185 -0.019479 0.0
0.947025 -0.017913 0.0
0.947820 -0.016131 0.0
0.948550 -0.014085 0.0
0.949209 -0.011704 0.0
0.949811 -0.008899 0.0
0.950438 -0.005188 0.0
1.000077 -0.000646 0.0
1.000384 -0.001959 0.0
1.000993 -0.003315 0.0
1.001896 -0.004728 0.0
1.003088 -0.006206 0.0
1.004570 -0.007753 0.0
1.006345 -0.009375 0.0
1.008420 -0.011077 0.0
1.010805 -0.012863 0.0
1.013512 -0.014741 0.0
1.016557 -0.016717 0.0
1.019954 -0.018799 0.0
1.023723 -0.020995 0.0
1.027883 -0.023312 0.0
1.032456 -0.025760 0.0
1.037466 -0.028349 0.0
1.042937 -0.031086 0.0
1.048897 -0.033982 0.0
1.055375 -0.037046 0.0
1.062402 -0.040287 0.0
1.070011 -0.043715 0.0
1.078238 -0.047337 0.0
1.087118 -0.051164 0.0
1.096692 -0.055201 0.0
1.106999 -0.059456 0.0
1.118082 -0.063934 0.0
1.129984 -0.068640 0.0
1.142752 -0.073576 0.0
1.156430 -0.078742 0.0
1.171067 -0.084136 0.0
1.186709 -0.089751 0.0
1.203404 -0.095579 0.0
1.221197 -0.101607 0.0
1.240133 -0.107816 0.0
1.260254 -0.114182 0.0
1.281597 -0.120677 0.0
1.304196 -0.127263 0.0
1.328077 -0.133898 0.0
1.353260 -0.140531 0.0
1.379752 -0.147101 0.0
1.407552 -0.153543 0.0
1.436642 -0.159780 0.0
1.466992 -0.165729 0.0
1.498550 -0.171301 0.0
1.531248 -0.176399 0.0
1.564993 -0.180926 0.0
1.599672 -0.184779 0.0
1.635146 -0.187860 0.0
1.671253 -0.190074 0.0
1.707808 -0.191336 0.0
1.744602 -0.191573 0.0
1.781410 -0.190733 0.0
1.817990 -0.188783 0.0
1.854093 -0.185719 0.0
1.889467 -0.181568 0.0
1.923867 -0.176387 0.0
1.957064 -0.170268 0.0
1.988852 -0.163332 0.0
2.019062 -0.155730 0.0
2.047562 -0.147629 0.0
2.074270 -0.139210 0.0
2.099149 -0.130652 0.0
2.122208 -0.122129 0.0
2.143499 -0.113792 0.0
2.163104 -0.105774 0.0
2.181133 -0.098177 0.0
2.197710 -0.091077 0.0
2.212967 -0.084527 0.0
2.227042 -0.078555 0.0
2.240066 -0.073172 0.0
2.252168 -0.068378 0.0
2.263466 -0.064162 0.0
2.274072 -0.060507 0.0
2.284090 -0.057397 0.0
2.293617 -0.054813 0.0
2.302745 -0.052742 0.0
2.311562 -0.051170 0.0
2.320155 -0.050089 0.0
2.328612 -0.049493 0.0
2.337020 -0.049377 0.0
2.345472 -0.049733 0.0
2.354060 -0.050552 0.0
2.362880 -0.051818 0.0
2.372025 -0.053504 0.0
2.381589 -0.055575 0.0
2.391657 -0.057982 0.0
2.402304 -0.060660 0.0
2.413590 -0.063536 0.0
2.425559 -0.066521 0.0
2.438231 -0.069522 0.0
2.451606 -0.072439 0.0
2.465659 -0.075174 0.0
2.480343 -0.077627 0.0
2.495589 -0.079708 0.0
2.511311 -0.081331 0.0
2.527405 -0.082420 0.0
2.543752 -0.082908 0.0
2.560224 -0.082737 0.0
2.576681 -0.081860 0.0
2.592975 -0.080239 0.0
2.608954 -0.077845 0.0
2.624461 -0.074659 0.0
2.639338 -0.070671 0.0
2.653424 -0.065879 0.0
2.666561 -0.060290 0.0
2.678593 -0.053920 0.0
2.689368 -0.046793 0.0
2.698740 -0.038940 0.0
2.706571 -0.030402 0.0
2.712731 -0.021225 0.0
2.717102 -0.011464 0.0
2.719582 -0.001178 0.0
2.720079 0.009571 0.0
2.718518 0.020725 0.0
2.714835 0.032224 0.0
2.708975 0.044012 0.0
2.700897 0.056028 0.0
2.690567 0.068214 0.0
2.677965 0.080510 0.0
2.663082 0.092855 0.0
2.645921 0.105190 0.0
2.626496 0.117453 0.0
2.604835 0.129582 0.0
2.580976 0.141517 0.0
2.554972 0.153196 0.0
2.526888 0.164557 0.0
2.496801 0.175541 0.0
2.464803 0.186089 0.0
2.430997 0.196142 0.0
2.395500 0.205647 0.0
2.358442 0.214552 0.0
2.319961 0.222811 0.0
2.280209 0.230382 0.0
2.239346 0.237231 0.0
2.197538 0.243329 0.0
2.154957 0.248656 0.0
2.111778 0.253198 0.0
2.068178 0.256951 0.0
2.024329 0.259917 0.0
1.980404 0.262105 0.0
1.936566 0.263530 0.0
1.892971 0.264214 0.0
1.849767 0.264180 0.0
1.807090 0.263456 0.0
1.765063 0.262068 0.0
1.723797 0.260045 0.0
1.683390 0.257411 0.0
1.643930 0.254189 0.0
1.605488 0.250397 0.0
1.568127 0.246049 0.0
1.531898 0.241153 0.0
1.496843 0.235713 0.0
1.462995 0.229728 0.0
1.430381 0.223190 0.0
1.399020 0.216091 0.0
1.368923 0.208420 0.0
1.340099 0.200166 0.0
1.312548 0.191319 0.0
1.286266 0.181879 0.0
1.261241 0.171854 0.0
1.237457 0.161267 0.0
1.214893 0.150159 0.0
1.193522 0.138592 0.0
1.173316 0.126651 0.0
1.154246 0.114441 0.0
1.136280 0.102084 0.0
1.119383 0.089720 0.0
1.103523 0.077496 0.0
1.088661 0.065569 0.0
1.074768 0.054099 0.0
1.061823 0.043246 0.0
1.049821 0.033150 0.0
1.038774 0.023917 0.0
1.028694 0.015608 0.0
1.019549 0.008204 0.0
1.011219 0.001634 0.0
1.003677 -0.004096 0.0
0.996985 -0.008982 0.0
0.991127 -0.013064 0.0
0.986051 -0.016416 0.0
0.981697 -0.019111 0.0
0.977997 -0.021224 0.0
0.974883 -0.022823 0.0
0.972288 -0.023970 0.0
0.970148 -0.024725 0.0
0.968402 -0.025136 0.0
0.966995 -0.025247 0.0
0.965876 -0.025095 0.0
0.965000 -0.024710 0.0
0.964325 -0.024114 0.0
0.963817 -0.023323 0.0
0.963442 -0.022346 0.0
0.963175 -0.021186 0.0
0.962991 -0.019835 0.0
0.962873 -0.018280 0.0
0.962809 -0.016495 0.0
0.962797 -0.014440 0.0
0.962851 -0.012061 0.0
0.963007 -0.009300 0.0