# vtk DataFile Version 3.0
Vector Field
ASCII
DATASET RECTILINEAR_GRID
DIMENSIONS 200 75 1
X_COORDINATES 200 double
0.050000 0.150000 0.250000 0.350000 0.450000 0.550000 0.650000 0.750000 0.850000 0.950000 1.050000 1.150000 1.250000 1.350000 1.450000 1.550000 1.650000 1.750000 1.850000 1.950000 2.050000 2.150000 2.250000 2.350000 2.450000 2.550000 2.650000 2.750000 2.850000 2.950000 3.050000 3.150000 3.250000 3.350000 3.450000 3.550000 3.650000 3.750000 3.850000 3.950000 4.050000 4.150000 4.250000 4.350000 4.450000 4.550000 4.650000 4.750000 4.850000 4.950000 5.050000 5.150000 5.250000 5.350000 5.450000 5.550000 5.650000 5.750000 5.850000 5.950000 6.050000 6.150000 6.250000 6.350000 6.450000 6.550000 6.650000 6.750000 6.850000 6.950000 7.050000 7.150000 7.250000 7.350000 7.450000 7.550000 7.650000 7.750000 7.850000 7.950000 8.050000 8.150000 8.250000 8.350000 8.450000 8.550000 8.650000 8.750000 8.850000 8.950000 9.050000 9.150000 9.250000 9.350000 9.450000 9.550000 9.650000 9.750000 9.850000 9.950000 10.050000 10.150000 10.250000 10.350000 10.450000 10.550000 10.650000 10.750000 10.850000 10.950000 11.050000 11.150000 11.250000 11.350000 11.450000 11.550000 11.650000 11.750000 11.850000 11.950000 12.050000 12.150000 12.250000 12.350000 12.450000 12.550000 12.650000 12.750000 12.850000 12.950000 13.050000 13.150000 13.250000 13.350000 13.450000 13.550000 13.650000 13.750000 13.850000 13.950000 14.050000 14.150000 14.250000 14.350000 14.450000 14.550000 14.650000 14.750000 14.850000 14.950000 15.050000 15.150000 15.250000 15.350000 15.450000 15.550000 15.650000 15.750000 15.850000 15.950000 16.050000 16.150000 16.250000 16.350000 16.450000 16.550000 16.650000 16.750000 16.850000 16.950000 17.050000 17.150000 17.250000 17.350000 17.450000 17.550000 17.650000 17.750000 17.850000 17.950000 18.050000 18.150000 18.250000 18.350000 18.450000 18.550000 18.650000 18.750000 18.850000 18.950000 19.050000 19.150000 19.250000 19.350000 19.450000 19.550000 19.650000 19.750000 19.850000 19.950000 
Y_COORDINATES 75 double
0.050000 0.150000 0.250000 0.350000 0.450000 0.550000 0.650000 0.750000 0.850000 0.950000 1.050000 1.150000 1.250000 1.350000 1.450000 1.550000 1.650000 1.750000 1.850000 1.950000 2.050000 2.150000 2.250000 2.350000 2.450000 2.550000 2.650000 2.750000 2.850000 2.950000 3.050000 3.150000 3.250000 3.350000 3.450000 3.550000 3.650000 3.750000 3.850000 3.950000 4.050000 4.150000 4.250000 4.350000 4.450000 4.550000 4.650000 4.750000 4.850000 4.950000 5.050000 5.150000 5.250000 5.350000 5.450000 5.550000 5.650000 5.750000 5.850000 5.950000 6.050000 6.150000 6.250000 6.350000 6.450000 6.550000 6.650000 6.750000 6.850000 6.950000 7.050000 7.150000 7.250000 7.350000 7.450000 
Z_COORDINATES 1 double
0.0
POINT_DATA 15000
VECTORS Vektorfeld double
0.999706 0.000294 0.0
0.998982 0.000429 0.0
0.998142 0.000411 0.0
0.997397 0.000333 0.0
0.996837 0.000226 0.0
0.996509 0.000102 0.0
0.996441 -0.000035 0.0
0.996658 -0.000183 0.0
0.997181 -0.000340 0.0
0.998030 -0.000508 0.0
0.999224 -0.000686 0.0
1.000786 -0.000875 0.0
1.002737 -0.001076 0.0
1.005101 -0.001288 0.0
1.007904 -0.001514 0.0
1.011172 -0.001754 0.0
1.014933 -0.002008 0.0
1.019219 -0.002278 0.0
1.024061 -0.002564 0.0
1.029493 -0.002868 0.0
1.035550 -0.003189 0.0
1.042269 -0.003530 0.0
1.049688 -0.003889 0.0
1.057846 -0.004269 0.0
1.066784 -0.004669 0.0
1.076542 -0.005089 0.0
1.087162 -0.005531 0.0
1.098684 -0.005992 0.0
1.111151 -0.006474 0.0
1.124601 -0.006976 0.0
1.139072 -0.007496 0.0
1.154601 -0.008033 0.0
1.171220 -0.008586 0.0
1.188959 -0.009153 0.0
1.207842 -0.009730 0.0
1.227887 -0.010315 0.0
1.249106 -0.010904 0.0
1.271504 -0.011493 0.0
1.295074 -0.012077 0.0
1.319802 -0.012650 0.0
1.345660 -0.013207 0.0
1.372607 -0.013741 0.0
1.400592 -0.014244 0.0
1.429545 -0.014709 0.0
1.459383 -0.015129 0.0
1.490007 -0.015495 0.0
1.521303 -0.015800 0.0
1.553140 -0.016037 0.0
1.585375 -0.016198 0.0
1.617851 -0.016278 0.0
1.650401 -0.016272 0.0
1.682849 -0.016176 0.0
1.715016 -0.015991 0.0
1.746722 -0.015715 0.0
1.777789 -0.015352 0.0
1.808049 -0.014908 0.0
1.837345 -0.014389 0.0
1.865537 -0.013804 0.0
1.892507 -0.013166 0.0
1.918158 -0.012485 0.0
1.942419 -0.011776 0.0
1.965244 -0.011050 0.0
1.986615 -0.010321 0.0
2.006536 -0.009600 0.0
2.025035 -0.008898 0.0
2.042158 -0.008224 0.0
2.057966 -0.007584 0.0
2.072535 -0.006985 0.0
2.085948 -0.006429 0.0
2.098295 -0.005919 0.0
2.109671 -0.005457 0.0
2.120169 -0.005042 0.0
2.129887 -0.004676 0.0
2.138919 -0.004356 0.0
2.147358 -0.004083 0.0
2.155295 -0.003855 0.0
2.162820 -0.003671 0.0
2.170022 -0.003531 0.0
2.176986 -0.003434 0.0
2.183799 -0.003379 0.0
2.190544 -0.003366 0.0
2.197305 -0.003395 0.0
2.204163 -0.003464 0.0
2.211200 -0.003573 0.0
2.218494 -0.003720 0.0
2.226118 -0.003904 0.0
2.234146 -0.004123 0.0
2.242642 -0.004373 0.0
2.251666 -0.004651 0.0
2.261269 -0.004953 0.0
2.271495 -0.005273 0.0
2.282377 -0.005608 0.0
2.293936 -0.005951 0.0
2.306184 -0.006296 0.0
2.319118 -0.006638 0.0
2.332726 -0.006970 0.0
2.346982 -0.007286 0.0
2.361850 -0.007581 0.0
2.377281 -0.007850 0.0
2.393216 -0.008086 0.0
2.409587 -0.008285 0.0
2.426313 -0.008442 0.0
2.443309 -0.008554 0.0
2.460478 -0.008616 0.0
2.477718 -0.008625 0.0
2.494920 -0.008578 0.0
2.511971 -0.008472 0.0
2.528750 -0.008307 0.0
2.545136 -0.008079 0.0
2.561003 -0.007788 0.0
2.576224 -0.007433 0.0
2.590670 -0.007014 0.0
2.604213 -0.006530 0.0
2.616726 -0.005983 0.0
2.628083 -0.005373 0.0
2.638159 -0.004703 0.0
2.646834 -0.003973 0.0
2.653994 -0.003187 0.0
2.659529 -0.002347 0.0
2.663336 -0.001459 0.0
2.665328 -0.000533 0.0
2.665448 0.000413 0.0
2.663647 0.001389 0.0
2.659861 0.002397 0.0
2.654032 0.003433 0.0
2.646105 0.004494 0.0
2.636032 0.005578 0.0
2.623773 0.006681 0.0
2.609294 0.007798 0.0
2.592568 0.008927 0.0
2.573577 0.010064 0.0
2.552307 0.011205 0.0
2.528755 0.012347 0.0
2.502924 0.013485 0.0
2.474824 0.014616 0.0
2.444473 0.015736 0.0
2.411897 0.016840 0.0
2.377130 0.017927 0.0
2.340214 0.018990 0.0
2.301198 0.020026 0.0
2.260141 0.021031 0.0
2.217108 0.022002 0.0
2.172172 0.022934 0.0
2.125414 0.023825 0.0
2.076919 0.024670 0.0
2.026780 0.025468 0.0
1.975097 0.026216 0.0
1.921970 0.026911 0.0
1.867507 0.027552 0.0
1.811817 0.028138 0.0
1.755011 0.028668 0.0
1.697202 0.029141 0.0
1.638504 0.029557 0.0
1.579032 0.029915 0.0
1.518902 0.030215 0.0
1.458231 0.030456 0.0
1.397139 0.030637 0.0
1.335747 0.030755 0.0
1.274182 0.030809 0.0
1.212578 0.030795 0.0
1.151075 0.030708 0.0
1.089824 0.030542 0.0
1.028991 0.030291 0.0
0.968755 0.029945 0.0
0.909314 0.029496 0.0
0.850886 0.028932 0.0
0.793711 0.028243 0.0
0.738053 0.027416 0.0
0.684199 0.026438 0.0
0.632463 0.025298 0.0
0.583179 0.023985 0.0
0.536705 0.022489 0.0
0.493415 0.020802 0.0
0.453687 0.018926 0.0
0.417890 0.016871 0.0
0.386370 0.014649 0.0
0.359474 0.012247 0.0
0.337637 0.009589 0.0
0.321500 0.006548 0.0
0.311849 0.003103 0.0
0.309041 -0.000295 0.0
0.311998 -0.002662 0.0
0.318855 -0.004195 0.0
0.328264 -0.005215 0.0
0.339373 -0.005894 0.0
0.351600 -0.006333 0.0
0.364526 -0.006593 0.0
0.377835 -0.006716 0.0
0.391277 -0.006727 0.0
0.404648 -0.006644 0.0
0.417772 -0.006480 0.0
0.430494 -0.006241 0.0
0.442664 -0.005929 0.0
0.454134 -0.005541 0.0
0.464744 -0.005070 0.0
0.474316 -0.004502 0.0
0.482637 -0.003819 0.0
0.489452 -0.002997 0.0
0.494464 -0.002016 0.0
0.497517 -0.001037 0.0
1.000250 0.000339 0.0
1.000913 0.000445 0.0
1.001846 0.000303 0.0
1.002991 0.000041 0.0
1.004357 -0.000288 0.0
1.005962 -0.000661 0.0
1.007826 -0.001068 0.0
1.009964 -0.001504 0.0
1.012392 -0.001969 0.0
1.015125 -0.002462 0.0
1.018182 -0.002984 0.0
1.021578 -0.003536 0.0
1.025335 -0.004122 0.0
1.029471 -0.004742 0.0
1.034009 -0.005400 0.0
1.038971 -0.006098 0.0
1.044384 -0.006838 0.0
1.050273 -0.007623 0.0
1.056667 -0.008455 0.0
1.063596 -0.009337 0.0
1.071091 -0.010272 0.0
1.079185 -0.011261 0.0
1.087913 -0.012306 0.0
1.097312 -0.013409 0.0
1.107418 -0.014572 0.0
1.118269 -0.015796 0.0
1.129905 -0.017080 0.0
1.142366 -0.018426 0.0
1.155690 -0.019832 0.0
1.169918 -0.021296 0.0
1.185088 -0.022817 0.0
1.201237 -0.024390 0.0
1.218399 -0.026011 0.0
1.236607 -0.027675 0.0
1.255889 -0.029373 0.0
1.276268 -0.031096 0.0
1.297761 -0.032835 0.0
1.320377 -0.034577 0.0
1.344119 -0.036306 0.0
1.368979 -0.038008 0.0
1.394937 -0.039665 0.0
1.421962 -0.041256 0.0
1.450010 -0.042760 0.0
1.479020 -0.044156 0.0
1.508919 -0.045419 0.0
1.539614 -0.046526 0.0
1.571001 -0.047453 0.0
1.602956 -0.048177 0.0
1.635342 -0.048679 0.0
1.668008 -0.048939 0.0
1.700790 -0.048943 0.0
1.733517 -0.048681 0.0
1.766012 -0.048148 0.0
1.798097 -0.047347 0.0
1.829593 -0.046284 0.0
1.860333 -0.044975 0.0
1.890159 -0.043443 0.0
1.918931 -0.041714 0.0
1.946527 -0.039822 0.0
1.972850 -0.037803 0.0
1.997830 -0.035697 0.0
2.021419 -0.033543 0.0
2.043599 -0.031379 0.0
2.064375 -0.029240 0.0
2.083774 -0.027157 0.0
2.101841 -0.025156 0.0
2.118640 -0.023259 0.0
2.134244 -0.021482 0.0
2.148734 -0.019835 0.0
2.162201 -0.018326 0.0
2.174734 -0.016958 0.0
2.186426 -0.015732 0.0
2.197370 -0.014647 0.0
2.207656 -0.013702 0.0
2.217372 -0.012892 0.0
2.226606 -0.012216 0.0
2.235442 -0.011671 0.0
2.243964 -0.011254 0.0
2.252253 -0.010963 0.0
2.260389 -0.010798 0.0
2.268452 -0.010755 0.0
2.276518 -0.010834 0.0
2.284666 -0.011032 0.0
2.292971 -0.011347 0.0
2.301507 -0.011775 0.0
2.310344 -0.012311 0.0
2.319550 -0.012949 0.0
2.329187 -0.013680 0.0
2.339312 -0.014493 0.0
2.349974 -0.015377 0.0
2.361215 -0.016317 0.0
2.373067 -0.017298 0.0
2.385552 -0.018305 0.0
2.398681 -0.019319 0.0
2.412455 -0.020323 0.0
2.426862 -0.021300 0.0
2.441882 -0.022232 0.0
2.457480 -0.023102 0.0
2.473614 -0.023894 0.0
2.490230 -0.024593 0.0
2.507266 -0.025184 0.0
2.524649 -0.025653 0.0
2.542299 -0.025989 0.0
2.560130 -0.026180 0.0
2.578045 -0.026216 0.0
2.595944 -0.026088 0.0
2.613722 -0.025790 0.0
2.631268 -0.025315 0.0
2.648468 -0.024657 0.0
2.665205 -0.023814 0.0
2.681362 -0.022784 0.0
2.696818 -0.021565 0.0
2.711455 -0.020158 0.0
2.725153 -0.018566 0.0
2.737796 -0.016790 0.0
2.749270 -0.014836 0.0
2.759465 -0.012711 0.0
2.768276 -0.010420 0.0
2.775603 -0.007975 0.0
2.781350 -0.005386 0.0
2.785420 -0.002670 0.0
2.787698 0.000151 0.0
2.788073 0.003077 0.0
2.786469 0.006099 0.0
2.782821 0.009208 0.0
2.777074 0.012393 0.0
2.769180 0.015645 0.0
2.759101 0.018953 0.0
2.746802 0.022304 0.0
2.732259 0.025690 0.0
2.715452 0.029099 0.0
2.696371 0.032521 0.0
2.675011 0.035943 0.0
2.651376 0.039355 0.0
2.625476 0.042745 0.0
2.597331 0.046102 0.0
2.566966 0.049414 0.0
2.534416 0.052669 0.0
2.499723 0.055856 0.0
2.462938 0.058961 0.0
2.424118 0.061973 0.0
2.383330 0.064881 0.0
2.340648 0.067674 0.0
2.296151 0.070341 0.0
2.249928 0.072872 0.0
2.202072 0.075260 0.0
2.152682 0.077497 0.0
2.101861 0.079577 0.0
2.049717 0.081494 0.0
1.996359 0.083245 0.0
1.941899 0.084827 0.0
1.886452 0.086238 0.0
1.830131 0.087478 0.0
1.773053 0.088544 0.0
1.715333 0.089436 0.0
1.657088 0.090150 0.0
1.598439 0.090684 0.0
1.539507 0.091032 0.0
1.480419 0.091186 0.0
1.421308 0.091134 0.0
1.362315 0.090864 0.0
1.303593 0.090358 0.0
1.245307 0.089594 0.0
1.187636 0.088548 0.0
1.130779 0.087191 0.0
1.074952 0.085492 0.0
1.020392 0.083418 0.0
0.967358 0.080934 0.0
0.916126 0.078005 0.0
0.866995 0.074599 0.0
0.820277 0.070687 0.0
0.776292 0.066245 0.0
0.735366 0.061262 0.0
0.697819 0.055741 0.0
0.663962 0.049709 0.0
0.634096 0.043197 0.0
0.608491 0.036202 0.0
0.587292 0.028669 0.0
0.570326 0.020572 0.0
0.556905 0.012152 0.0
0.546255 0.004114 0.0
0.538838 -0.002612 0.0
0.535404 -0.007668 0.0
0.535528 -0.011275 0.0
0.538431 -0.013845 0.0
0.543470 -0.015647 0.0
0.550126 -0.016861 0.0
0.557980 -0.017611 0.0
0.566691 -0.017985 0.0
0.575979 -0.018044 0.0
0.585606 -0.017832 0.0
0.595369 -0.017374 0.0
0.605087 -0.016684 0.0
0.614591 -0.015760 0.0
0.623718 -0.014588 0.0
0.632296 -0.013134 0.0
0.640139 -0.011349 0.0
0.647016 -0.009158 0.0
0.652622 -0.006473 0.0
0.656113 -0.003123 0.0
1.000134 -0.000045 0.0
1.000588 -0.000289 0.0
1.001373 -0.000680 0.0
1.002431 -0.001177 0.0
1.003744 -0.001749 0.0
1.005316 -0.002377 0.0
1.007155 -0.003054 0.0
1.009273 -0.003774 0.0
1.011683 -0.004537 0.0
1.014400 -0.005344 0.0
1.017440 -0.006197 0.0
1.020820 -0.007099 0.0
1.024558 -0.008053 0.0
1.028674 -0.009063 0.0
1.033189 -0.010133 0.0
1.038128 -0.011266 0.0
1.043513 -0.012468 0.0
1.049372 -0.013741 0.0
1.055733 -0.015091 0.0
1.062626 -0.016522 0.0
1.070082 -0.018037 0.0
1.078134 -0.019641 0.0
1.086817 -0.021337 0.0
1.096167 -0.023127 0.0
1.106222 -0.025015 0.0
1.117021 -0.027003 0.0
1.128603 -0.029091 0.0
1.141008 -0.031281 0.0
1.154277 -0.033571 0.0
1.168451 -0.035959 0.0
1.183569 -0.038442 0.0
1.199670 -0.041014 0.0
1.216791 -0.043670 0.0
1.234964 -0.046398 0.0
1.254221 -0.049188 0.0
1.274587 -0.052026 0.0
1.296081 -0.054893 0.0
1.318717 -0.057771 0.0
1.342498 -0.060635 0.0
1.367419 -0.063460 0.0
1.393464 -0.066216 0.0
1.420604 -0.068870 0.0
1.448796 -0.071386 0.0
1.477982 -0.073727 0.0
1.508089 -0.075853 0.0
1.539026 -0.077724 0.0
1.570686 -0.079301 0.0
1.602945 -0.080543 0.0
1.635663 -0.081416 0.0
1.668683 -0.081887 0.0
1.701838 -0.081932 0.0
1.734949 -0.081531 0.0
1.767831 -0.080676 0.0
1.800296 -0.079368 0.0
1.832159 -0.077622 0.0
1.863241 -0.075460 0.0
1.893377 -0.072920 0.0
1.922418 -0.070049 0.0
1.950236 -0.066902 0.0
1.976732 -0.063542 0.0
2.001831 -0.060036 0.0
2.025488 -0.056451 0.0
2.047687 -0.052850 0.0
2.068437 -0.049294 0.0
2.087771 -0.045835 0.0
2.105743 -0.042517 0.0
2.122422 -0.039375 0.0
2.137887 -0.036435 0.0
2.152228 -0.033714 0.0
2.165538 -0.031223 0.0
2.177912 -0.028968 0.0
2.189445 -0.026948 0.0
2.200233 -0.025162 0.0
2.210366 -0.023605 0.0
2.219933 -0.022273 0.0
2.229023 -0.021159 0.0
2.237718 -0.020260 0.0
2.246102 -0.019571 0.0
2.254256 -0.019089 0.0
2.262259 -0.018811 0.0
2.270190 -0.018735 0.0
2.278128 -0.018858 0.0
2.286151 -0.019178 0.0
2.294334 -0.019689 0.0
2.302753 -0.020388 0.0
2.311481 -0.021264 0.0
2.320587 -0.022308 0.0
2.330136 -0.023507 0.0
2.340187 -0.024842 0.0
2.350791 -0.026295 0.0
2.361993 -0.027842 0.0
2.373825 -0.029458 0.0
2.386311 -0.031116 0.0
2.399463 -0.032789 0.0
2.413281 -0.034446 0.0
2.427756 -0.036059 0.0
2.442864 -0.037600 0.0
2.458572 -0.039040 0.0
2.474835 -0.040354 0.0
2.491600 -0.041515 0.0
2.508803 -0.042500 0.0
2.526369 -0.043286 0.0
2.544218 -0.043855 0.0
2.562260 -0.044186 0.0
2.580400 -0.044264 0.0
2.598535 -0.044074 0.0
2.616558 -0.043605 0.0
2.634356 -0.042845 0.0
2.651815 -0.041786 0.0
2.668816 -0.040424 0.0
2.685240 -0.038754 0.0
2.700964 -0.036775 0.0
2.715868 -0.034488 0.0
2.729832 -0.031897 0.0
2.742737 -0.029007 0.0
2.754469 -0.025825 0.0
2.764915 -0.022363 0.0
2.773969 -0.018633 0.0
2.781529 -0.014649 0.0
2.787500 -0.010429 0.0
2.791792 -0.005989 0.0
2.794329 -0.001343 0.0
2.795041 0.003484 0.0
2.793864 0.008472 0.0
2.790742 0.013604 0.0
2.785627 0.018860 0.0
2.778476 0.024223 0.0
2.769256 0.029675 0.0
2.757938 0.035198 0.0
2.744503 0.040775 0.0
2.728936 0.046388 0.0
2.711229 0.052019 0.0
2.691384 0.057650 0.0
2.669407 0.063261 0.0
2.645312 0.068834 0.0
2.619121 0.074350 0.0
2.590862 0.079790 0.0
2.560572 0.085134 0.0
2.528294 0.090361 0.0
2.494081 0.095453 0.0
2.457991 0.100390 0.0
2.420090 0.105152 0.0
2.380454 0.109722 0.0
2.339161 0.114081 0.0
2.296300 0.118216 0.0
2.251963 0.122110 0.0
2.206248 0.125753 0.0
2.159256 0.129134 0.0
2.111093 0.132244 0.0
2.061865 0.135080 0.0
2.011682 0.137635 0.0
1.960653 0.139907 0.0
1.908887 0.141895 0.0
1.856494 0.143598 0.0
1.803584 0.145013 0.0
1.750264 0.146137 0.0
1.696645 0.146966 0.0
1.642837 0.147490 0.0
1.588954 0.147698 0.0
1.535115 0.147572 0.0
1.481443 0.147091 0.0
1.428072 0.146225 0.0
1.375144 0.144941 0.0
1.322817 0.143199 0.0
1.271258 0.140955 0.0
1.220655 0.138159 0.0
1.171207 0.134759 0.0
1.123132 0.130703 0.0
1.076659 0.125940 0.0
1.032029 0.120425 0.0
0.989488 0.114120 0.0
0.949283 0.107002 0.0
0.911651 0.099064 0.0
0.876811 0.090325 0.0
0.844960 0.080833 0.0
0.816250 0.070650 0.0
0.790751 0.059854 0.0
0.768400 0.048567 0.0
0.748978 0.037062 0.0
0.732211 0.025850 0.0
0.717818 0.015459 0.0
0.705295 0.005984 0.0
0.694685 -0.002220 0.0
0.686737 -0.008900 0.0
0.681640 -0.014026 0.0
0.679033 -0.017898 0.0
0.678518 -0.020752 0.0
0.679718 -0.022774 0.0
0.682290 -0.024105 0.0
0.685931 -0.024853 0.0
0.690376 -0.025095 0.0
0.695390 -0.024888 0.0
0.700765 -0.024263 0.0
0.706311 -0.023231 0.0
0.711850 -0.021782 0.0
0.717209 -0.019878 0.0
0.722210 -0.017449 0.0
0.726653 -0.014380 0.0
0.730308 -0.010512 0.0
0.732805 -0.005072 0.0
1.000097 -0.000276 0.0
1.000463 -0.000879 0.0
1.001151 -0.001564 0.0
1.002127 -0.002327 0.0
1.003376 -0.003160 0.0
1.004893 -0.004055 0.0
1.006684 -0.005006 0.0
1.008755 -0.006012 0.0
1.011119 -0.007074 0.0
1.013789 -0.008195 0.0
1.016780 -0.009377 0.0
1.020107 -0.010626 0.0
1.023789 -0.011946 0.0
1.027845 -0.013343 0.0
1.032297 -0.014821 0.0
1.037168 -0.016387 0.0
1.042481 -0.018046 0.0
1.048265 -0.019805 0.0
1.054546 -0.021670 0.0
1.061355 -0.023645 0.0
1.068723 -0.025738 0.0
1.076685 -0.027954 0.0
1.085274 -0.030297 0.0
1.094528 -0.032772 0.0
1.104486 -0.035383 0.0
1.115186 -0.038134 0.0
1.126670 -0.041026 0.0
1.138979 -0.044060 0.0
1.152155 -0.047236 0.0
1.166240 -0.050552 0.0
1.181275 -0.054002 0.0
1.197302 -0.057582 0.0
1.214360 -0.061280 0.0
1.232485 -0.065086 0.0
1.251710 -0.068983 0.0
1.272065 -0.072951 0.0
1.293571 -0.076968 0.0
1.316246 -0.081007 0.0
1.340099 -0.085033 0.0
1.365126 -0.089011 0.0
1.391316 -0.092900 0.0
1.418643 -0.096652 0.0
1.447068 -0.100219 0.0
1.476534 -0.103546 0.0
1.506971 -0.106577 0.0
1.538287 -0.109254 0.0
1.570375 -0.111519 0.0
1.603107 -0.113316 0.0
1.636340 -0.114593 0.0
1.669910 -0.115301 0.0
1.703641 -0.115404 0.0
1.737344 -0.114873 0.0
1.770823 -0.113694 0.0
1.803875 -0.111868 0.0
1.836302 -0.109411 0.0
1.867909 -0.106360 0.0
1.898517 -0.102765 0.0
1.927966 -0.098694 0.0
1.956119 -0.094229 0.0
1.982869 -0.089461 0.0
2.008138 -0.084486 0.0
2.031884 -0.079403 0.0
2.054093 -0.074306 0.0
2.074785 -0.069280 0.0
2.094000 -0.064400 0.0
2.111805 -0.059729 0.0
2.128277 -0.055315 0.0
2.143510 -0.051193 0.0
2.157599 -0.047387 0.0
2.170648 -0.043909 0.0
2.182756 -0.040765 0.0
2.194025 -0.037953 0.0
2.204551 -0.035470 0.0
2.214427 -0.033307 0.0
2.223744 -0.031456 0.0
2.232588 -0.029909 0.0
2.241043 -0.028660 0.0
2.249191 -0.027703 0.0
2.257112 -0.027032 0.0
2.264885 -0.026644 0.0
2.272589 -0.026537 0.0
2.280303 -0.026708 0.0
2.288105 -0.027153 0.0
2.296074 -0.027867 0.0
2.304287 -0.028843 0.0
2.312821 -0.030070 0.0
2.321747 -0.031534 0.0
2.331135 -0.033217 0.0
2.341047 -0.035095 0.0
2.351539 -0.037139 0.0
2.362658 -0.039318 0.0
2.374439 -0.041595 0.0
2.386908 -0.043934 0.0
2.400078 -0.046293 0.0
2.413949 -0.048632 0.0
2.428512 -0.050910 0.0
2.443742 -0.053087 0.0
2.459605 -0.055124 0.0
2.476055 -0.056984 0.0
2.493036 -0.058631 0.0
2.510482 -0.060032 0.0
2.528317 -0.061156 0.0
2.546458 -0.061975 0.0
2.564813 -0.062463 0.0
2.583283 -0.062597 0.0
2.601763 -0.062357 0.0
2.620144 -0.061726 0.0
2.638312 -0.060689 0.0
2.656146 -0.059236 0.0
2.673528 -0.057357 0.0
2.690333 -0.055049 0.0
2.706438 -0.052309 0.0
2.721718 -0.049139 0.0
2.736052 -0.045544 0.0
2.749318 -0.041531 0.0
2.761398 -0.037112 0.0
2.772177 -0.032302 0.0
2.781545 -0.027117 0.0
2.789399 -0.021579 0.0
2.795641 -0.015712 0.0
2.800182 -0.009540 0.0
2.802943 -0.003090 0.0
2.803854 0.003608 0.0
2.802853 0.010526 0.0
2.799888 0.017637 0.0
2.794913 0.024917 0.0
2.787890 0.032339 0.0
2.778789 0.039880 0.0
2.767586 0.047513 0.0
2.754267 0.055215 0.0
2.738824 0.062960 0.0
2.721257 0.070722 0.0
2.701574 0.078476 0.0
2.679790 0.086195 0.0
2.655930 0.093855 0.0
2.630025 0.101426 0.0
2.602114 0.108883 0.0
2.572247 0.116198 0.0
2.540479 0.123343 0.0
2.506875 0.130290 0.0
2.471508 0.137011 0.0
2.434457 0.143481 0.0
2.395812 0.149674 0.0
2.355668 0.155566 0.0
2.314125 0.161135 0.0
2.271291 0.166361 0.0
2.227278 0.171230 0.0
2.182201 0.175726 0.0
2.136176 0.179841 0.0
2.089321 0.183566 0.0
2.041755 0.186898 0.0
1.993594 0.189834 0.0
1.944953 0.192375 0.0
1.895943 0.194521 0.0
1.846673 0.196271 0.0
1.797249 0.197624 0.0
1.747773 0.198575 0.0
1.698345 0.199117 0.0
1.649065 0.199235 0.0
1.600032 0.198909 0.0
1.551347 0.198111 0.0
1.503115 0.196807 0.0
1.455448 0.194953 0.0
1.408464 0.192499 0.0
1.362290 0.189387 0.0
1.317064 0.185556 0.0
1.272933 0.180941 0.0
1.230052 0.175477 0.0
1.188586 0.169105 0.0
1.148703 0.161773 0.0
1.110571 0.153445 0.0
1.074349 0.144104 0.0
1.040185 0.133758 0.0
1.008205 0.122450 0.0
0.978504 0.110260 0.0
0.951132 0.097305 0.0
0.926076 0.083753 0.0
0.903248 0.069846 0.0
0.882510 0.055942 0.0
0.863742 0.042505 0.0
0.846914 0.030024 0.0
0.832049 0.018808 0.0
0.818877 0.008738 0.0
0.807118 -0.000151 0.0
0.797137 -0.007696 0.0
0.789284 -0.013767 0.0
0.783438 -0.018522 0.0
0.779381 -0.022147 0.0
0.776876 -0.024799 0.0
0.775686 -0.026609 0.0
0.775581 -0.027679 0.0
0.776350 -0.028087 0.0
0.777794 -0.027883 0.0
0.779731 -0.027094 0.0
0.781991 -0.025719 0.0
0.784415 -0.023724 0.0
0.786850 -0.021038 0.0
0.789152 -0.017536 0.0
0.791189 -0.013048 0.0
0.792854 -0.006698 0.0
1.000082 -0.000455 0.0
1.000403 -0.001387 0.0
1.001029 -0.002369 0.0
1.001940 -0.003410 0.0
1.003127 -0.004513 0.0
1.004587 -0.005679 0.0
1.006321 -0.006906 0.0
1.008336 -0.008198 0.0
1.010642 -0.009558 0.0
1.013251 -0.010989 0.0
1.016176 -0.012498 0.0
1.019434 -0.014090 0.0
1.023042 -0.015772 0.0
1.027019 -0.017550 0.0
1.031386 -0.019432 0.0
1.036166 -0.021426 0.0
1.041383 -0.023538 0.0
1.047065 -0.025778 0.0
1.053238 -0.028152 0.0
1.059934 -0.030668 0.0
1.067183 -0.033334 0.0
1.075022 -0.036157 0.0
1.083483 -0.039144 0.0
1.092607 -0.042302 0.0
1.102430 -0.045635 0.0
1.112995 -0.049147 0.0
1.124343 -0.052844 0.0
1.136517 -0.056725 0.0
1.149561 -0.060791 0.0
1.163519 -0.065040 0.0
1.178436 -0.069467 0.0
1.194354 -0.074064 0.0
1.211318 -0.078819 0.0
1.229366 -0.083719 0.0
1.248535 -0.088744 0.0
1.268860 -0.093869 0.0
1.290369 -0.099065 0.0
1.313081 -0.104298 0.0
1.337012 -0.109525 0.0
1.362165 -0.114700 0.0
1.388532 -0.119769 0.0
1.416093 -0.124672 0.0
1.444813 -0.129344 0.0
1.474639 -0.133714 0.0
1.505502 -0.137709 0.0
1.537314 -0.141250 0.0
1.569964 -0.144261 0.0
1.603322 -0.146666 0.0
1.637238 -0.148392 0.0
1.671542 -0.149376 0.0
1.706046 -0.149564 0.0
1.740546 -0.148917 0.0
1.774829 -0.147412 0.0
1.808675 -0.145048 0.0
1.841863 -0.141846 0.0
1.874180 -0.137850 0.0
1.905427 -0.133130 0.0
1.935426 -0.127776 0.0
1.964025 -0.121899 0.0
1.991109 -0.115623 0.0
2.016596 -0.109080 0.0
2.040445 -0.102404 0.0
2.062651 -0.095721 0.0
2.083243 -0.089148 0.0
2.102279 -0.082783 0.0
2.119837 -0.076709 0.0
2.136015 -0.070985 0.0
2.150918 -0.065657 0.0
2.164656 -0.060751 0.0
2.177343 -0.056280 0.0
2.189088 -0.052247 0.0
2.199995 -0.048648 0.0
2.210167 -0.045473 0.0
2.219698 -0.042711 0.0
2.228679 -0.040349 0.0
2.237195 -0.038376 0.0
2.245329 -0.036783 0.0
2.253161 -0.035560 0.0
2.260770 -0.034704 0.0
2.268235 -0.034210 0.0
2.275633 -0.034075 0.0
2.283045 -0.034296 0.0
2.290549 -0.034871 0.0
2.298227 -0.035795 0.0
2.306159 -0.037060 0.0
2.314425 -0.038652 0.0
2.323103 -0.040556 0.0
2.332267 -0.042747 0.0
2.341986 -0.045195 0.0
2.352320 -0.047864 0.0
2.363319 -0.050711 0.0
2.375025 -0.053689 0.0
2.387463 -0.056748 0.0
2.400649 -0.059835 0.0
2.414585 -0.062897 0.0
2.429258 -0.065880 0.0
2.444644 -0.068733 0.0
2.460706 -0.071404 0.0
2.477398 -0.073845 0.0
2.494659 -0.076011 0.0
2.512421 -0.077859 0.0
2.530606 -0.079348 0.0
2.549126 -0.080443 0.0
2.567887 -0.081110 0.0
2.586788 -0.081320 0.0
2.605719 -0.081046 0.0
2.624567 -0.080267 0.0
2.643215 -0.078963 0.0
2.661540 -0.077121 0.0
2.679418 -0.074730 0.0
2.696721 -0.071784 0.0
2.713324 -0.068281 0.0
2.729097 -0.064222 0.0
2.743915 -0.059613 0.0
2.757653 -0.054466 0.0
2.770190 -0.048794 0.0
2.781406 -0.042616 0.0
2.791189 -0.035955 0.0
2.799432 -0.028838 0.0
2.806034 -0.021297 0.0
2.810904 -0.013365 0.0
2.813959 -0.005081 0.0
2.815131 0.003516 0.0
2.814358 0.012390 0.0
2.811590 0.021507 0.0
2.806781 0.030832 0.0
2.799893 0.040334 0.0
2.790898 0.049981 0.0
2.779771 0.059740 0.0
2.766500 0.069578 0.0
2.751077 0.079463 0.0
2.733503 0.089360 0.0
2.713788 0.099236 0.0
2.691951 0.109056 0.0
2.668018 0.118787 0.0
2.642025 0.128392 0.0
2.614016 0.137836 0.0
2.584046 0.147082 0.0
2.552179 0.156094 0.0
2.518488 0.164834 0.0
2.483057 0.173266 0.0
2.445979 0.181355 0.0
2.407356 0.189068 0.0
2.367301 0.196372 0.0
2.325931 0.203240 0.0
2.283374 0.209647 0.0
2.239761 0.215571 0.0
2.195228 0.220996 0.0
2.149915 0.225910 0.0
2.103960 0.230306 0.0
2.057502 0.234181 0.0
2.010679 0.237535 0.0
1.963622 0.240372 0.0
1.916459 0.242696 0.0
1.869310 0.244513 0.0
1.822292 0.245824 0.0
1.775510 0.246632 0.0
1.729065 0.246932 0.0
1.683051 0.246713 0.0
1.637557 0.245957 0.0
1.592669 0.244637 0.0
1.548467 0.242715 0.0
1.505034 0.240145 0.0
1.462452 0.236873 0.0
1.420806 0.232834 0.0
1.380182 0.227960 0.0
1.340672 0.222179 0.0
1.302369 0.215422 0.0
1.265368 0.207626 0.0
1.229763 0.198740 0.0
1.195645 0.188731 0.0
1.163093 0.177592 0.0
1.132175 0.165351 0.0
1.102938 0.152073 0.0
1.075406 0.137870 0.0
1.049570 0.122903 0.0
1.025389 0.107394 0.0
1.002790 0.091632 0.0
0.981702 0.075982 0.0
0.962082 0.060853 0.0
0.943950 0.046637 0.0
0.927375 0.033636 0.0
0.912437 0.022020 0.0
0.899047 0.011715 0.0
0.886889 0.002577 0.0
0.876006 -0.005305 0.0
0.866718 -0.011850 0.0
0.859048 -0.017092 0.0
0.852871 -0.021172 0.0
0.848041 -0.024215 0.0
0.844400 -0.026328 0.0
0.841787 -0.027594 0.0
0.840045 -0.028078 0.0
0.839023 -0.027815 0.0
0.838581 -0.026816 0.0
0.838590 -0.025059 0.0
0.838936 -0.022484 0.0
0.839527 -0.018984 0.0
0.840308 -0.014419 0.0
0.841301 -0.007983 0.0
1.000074 -0.000611 0.0
1.000368 -0.001846 0.0
1.000948 -0.003115 0.0
1.001806 -0.004433 0.0
1.002936 -0.005807 0.0
1.004335 -0.007244 0.0
1.006007 -0.008747 0.0
1.007957 -0.010323 0.0
1.010194 -0.011976 0.0
1.012729 -0.013715 0.0
1.015575 -0.015545 0.0
1.018748 -0.017474 0.0
1.022263 -0.019512 0.0
1.026142 -0.021666 0.0
1.030403 -0.023945 0.0
1.035069 -0.026360 0.0
1.040166 -0.028919 0.0
1.045719 -0.031632 0.0
1.051757 -0.034509 0.0
1.058309 -0.037559 0.0
1.065410 -0.040793 0.0
1.073091 -0.044218 0.0
1.081391 -0.047845 0.0
1.090347 -0.051680 0.0
1.099999 -0.055732 0.0
1.110390 -0.060005 0.0
1.121562 -0.064506 0.0
1.133561 -0.069236 0.0
1.146432 -0.074196 0.0
1.160224 -0.079385 0.0
1.174982 -0.084797 0.0
1.190755 -0.090425 0.0
1.207588 -0.096255 0.0
1.225527 -0.102271 0.0
1.244614 -0.108449 0.0
1.264887 -0.114762 0.0
1.286381 -0.121175 0.0
1.309123 -0.127644 0.0
1.333135 -0.134121 0.0
1.358427 -0.140548 0.0
1.384998 -0.146859 0.0
1.412835 -0.152979 0.0
1.441908 -0.158829 0.0
1.472170 -0.164318 0.0
1.503556 -0.169354 0.0
1.535979 -0.173838 0.0
1.569327 -0.177671 0.0
1.603469 -0.180755 0.0
1.638245 -0.182995 0.0
1.673477 -0.184308 0.0
1.708962 -0.184620 0.0
1.744479 -0.183877 0.0
1.779791 -0.182047 0.0
1.814655 -0.179122 0.0
1.848823 -0.175127 0.0
1.882054 -0.170117 0.0
1.914121 -0.164178 0.0
1.944822 -0.157428 0.0
1.973987 -0.150012 0.0
2.001487 -0.142093 0.0
2.027235 -0.133846 0.0
2.051194 -0.125446 0.0
2.073368 -0.117060 0.0
2.093804 -0.108837 0.0
2.112579 -0.100905 0.0
2.129796 -0.093363 0.0
2.145572 -0.086285 0.0
2.160034 -0.079722 0.0
2.173309 -0.073700 0.0
2.185524 -0.068232 0.0
2.196798 -0.063313 0.0
2.207244 -0.058935 0.0
2.216966 -0.055080 0.0
2.226061 -0.051730 0.0
2.234618 -0.048868 0.0
2.242723 -0.046478 0.0
2.250454 -0.044547 0.0
2.257891 -0.043065 0.0
2.265109 -0.042027 0.0
2.272186 -0.041428 0.0
2.279199 -0.041267 0.0
2.286227 -0.041543 0.0
2.293352 -0.042254 0.0
2.300656 -0.043395 0.0
2.308225 -0.044961 0.0
2.316144 -0.046937 0.0
2.324498 -0.049304 0.0
2.333368 -0.052034 0.0
2.342829 -0.055089 0.0
2.352950 -0.058425 0.0
2.363788 -0.061987 0.0
2.375385 -0.065716 0.0
2.387774 -0.069548 0.0
2.400970 -0.073417 0.0
2.414975 -0.077255 0.0
2.429775 -0.080996 0.0
2.445346 -0.084574 0.0
2.461647 -0.087927 0.0
2.478628 -0.090995 0.0
2.496226 -0.093722 0.0
2.514370 -0.096054 0.0
2.532976 -0.097944 0.0
2.551955 -0.099346 0.0
2.571207 -0.100220 0.0
2.590626 -0.100529 0.0
2.610100 -0.100242 0.0
2.629510 -0.099330 0.0
2.648736 -0.097773 0.0
2.667650 -0.095551 0.0
2.686125 -0.092652 0.0
2.704028 -0.089069 0.0
2.721229 -0.084799 0.0
2.737595 -0.079844 0.0
2.752998 -0.074212 0.0
2.767308 -0.067915 0.0
2.780399 -0.060972 0.0
2.792149 -0.053404 0.0
2.802442 -0.045242 0.0
2.811165 -0.036517 0.0
2.818215 -0.027270 0.0
2.823496 -0.017543 0.0
2.826924 -0.007386 0.0
2.828426 0.003147 0.0
2.827945 0.014012 0.0
2.825430 0.025167 0.0
2.820838 0.036573 0.0
2.814131 0.048189 0.0
2.805278 0.059976 0.0
2.794256 0.071893 0.0
2.781052 0.083901 0.0
2.765657 0.095958 0.0
2.748072 0.108022 0.0
2.728308 0.120052 0.0
2.706380 0.132004 0.0
2.682318 0.143835 0.0
2.656155 0.155500 0.0
2.627938 0.166954 0.0
2.597723 0.178150 0.0
2.565576 0.189041 0.0
2.531574 0.199579 0.0
2.495806 0.209719 0.0
2.458373 0.219413 0.0
2.419386 0.228619 0.0
2.378968 0.237295 0.0
2.337252 0.245403 0.0
2.294381 0.252912 0.0
2.250503 0.259795 0.0
2.205776 0.266031 0.0
2.160361 0.271604 0.0
2.114419 0.276509 0.0
2.068113 0.280741 0.0
2.021605 0.284307 0.0
1.975050 0.287213 0.0
1.928598 0.289471 0.0
1.882390 0.291094 0.0
1.836559 0.292093 0.0
1.791226 0.292479 0.0
1.746502 0.292255 0.0
1.702486 0.291420 0.0
1.659266 0.289963 0.0
1.616922 0.287864 0.0
1.575521 0.285090 0.0
1.535126 0.281599 0.0
1.495790 0.277337 0.0
1.457563 0.272243 0.0
1.420490 0.266247 0.0
1.384613 0.259279 0.0
1.349969 0.251269 0.0
1.316593 0.242156 0.0
1.284514 0.231894 0.0
1.253753 0.220456 0.0
1.224322 0.207849 0.0
1.196224 0.194111 0.0
1.169444 0.179329 0.0
1.143957 0.163634 0.0
1.119717 0.147214 0.0
1.096672 0.130310 0.0
1.074766 0.113221 0.0
1.053958 0.096290 0.0
1.034243 0.079879 0.0
1.015660 0.064325 0.0
0.998283 0.049899 0.0
0.982198 0.036781 0.0
0.967478 0.025065 0.0
0.954129 0.014734 0.0
0.941946 0.005603 0.0
0.930799 -0.002323 0.0
0.920870 -0.009020 0.0
0.912268 -0.014466 0.0
0.904933 -0.018757 0.0
0.898774 -0.021986 0.0
0.893688 -0.024236 0.0
0.889566 -0.025572 0.0
0.886302 -0.026035 0.0
0.883794 -0.025645 0.0
0.881950 -0.024394 0.0
0.880697 -0.022241 0.0
0.879988 -0.019109 0.0
0.879818 -0.014905 0.0