# vtk DataFile Version 3.0
Vector Field
ASCII
DATASET RECTILINEAR_GRID
DIMENSIONS 200 75 1
X_COORDINATES 200 double
0.050000 0.150000 0.250000 0.350000 0.450000 0.550000 0.650000 0.750000 0.850000 0.950000 1.050000 1.150000 1.250000 1.350000 1.450000 1.550000 1.650000 1.750000 1.850000 1.950000 2.050000 2.150000 2.250000 2.350000 2.450000 2.550000 2.650000 2.750000 2.850000 2.950000 3.050000 3.150000 3.250000 3.350000 3.450000 3.550000 3.650000 3.750000 3.850000 3.950000 4.050000 4.150000 4.250000 4.350000 4.450000 4.550000 4.650000 4.750000 4.850000 4.950000 5.050000 5.150000 5.250000 5.350000 5.450000 5.550000 5.650000 5.750000 5.850000 5.950000 6.050000 6.150000 6.250000 6.350000 6.450000 6.550000 6.650000 6.750000 6.850000 6.950000 7.050000 7.150000 7.250000 7.350000 7.450000 7.550000 7.650000 7.750000 7.850000 7.950000 8.050000 8.150000 8.250000 8.350000 8.450000 8.550000 8.650000 8.750000 8.850000 8.950000 9.050000 9.150000 9.250000 9.350000 9.450000 9.550000 9.650000 9.750000 9.850000 9.950000 10.050000 10.150000 10.250000 10.350000 10.450000 10.550000 10.650000 10.750000 10.850000 10.950000 11.050000 11.150000 11.250000 11.350000 11.450000 11.550000 11.650000 11.750000 11.850000 11.950000 12.050000 12.150000 12.250000 12.350000 12.450000 12.550000 12.650000 12.750000 12.850000 12.950000 13.050000 13.150000 13.250000 13.350000 13.450000 13.550000 13.650000 13.750000 13.850000 13.950000 14.050000 14.150000 14.250000 14.350000 14.450000 14.550000 14.650000 14.750000 14.850000 14.950000 15.050000 15.150000 15.250000 15.350000 15.450000 15.550000 15.650000 15.750000 15.850000 15.950000 16.050000 16.150000 16.250000 16.350000 16.450000 16.550000 16.650000 16.750000 16.850000 16.950000 17.050000 17.150000 17.250000 17.350000 17.450000 17.550000 17.650000 17.750000 17.850000 17.950000 18.050000 18.150000 18.250000 18.350000 18.450000 18.550000 18.650000 18.750000 18.850000 18.950000 19.050000 19.150000 19.250000 19.350000 19.450000 19.550000 19.650000 19.750000 19.850000 19.950000 
Y_COORDINATES 75 double
0.050000 0.150000 0.250000 0.350000 0.450000 0.550000 0.650000 0.750000 0.850000 0.950000 1.050000 1.150000 1.250000 1.350000 1.450000 1.550000 1.650000 1.750000 1.850000 1.950000 2.050000 2.150000 2.250000 2.350000 2.450000 2.550000 2.650000 2.750000 2.850000 2.950000 3.050000 3.150000 3.250000 3.350000 3.450000 3.550000 3.650000 3.750000 3.850000 3.950000 4.050000 4.150000 4.250000 4.350000 4.450000 4.550000 4.650000 4.750000 4.850000 4.950000 5.050000 5.150000 5.250000 5.350000 5.450000 5.550000 5.650000 5.750000 5.850000 5.950000 6.050000 6.150000 6.250000 6.350000 6.450000 6.550000 6.650000 6.750000 6.850000 6.950000 7.050000 7.150000 7.250000 7.350000 7.450000 
Z_COORDINATES 1 double
0.0
POINT_DATA 15000
VECTORS Vektorfeld double
0.999717 0.000283 0.0
0.999039 0.000395 0.0
0.998291 0.000353 0.0
0.997689 0.000250 0.0
0.997322 0.000117 0.0
0.997240 -0.000035 0.0
0.997474 -0.000200 0.0
0.998050 -0.000376 0.0
0.998991 -0.000564 0.0
1.000317 -0.000762 0.0
1.002050 -0.000971 0.0
1.004212 -0.001191 0.0
1.006827 -0.001424 0.0
1.009920 -0.001669 0.0
1.013516 -0.001927 0.0
1.017644 -0.002200 0.0
1.022332 -0.002488 0.0
1.027612 -0.002792 0.0
1.033515 -0.003112 0.0
1.040076 -0.003449 0.0
1.047329 -0.003804 0.0
1.055311 -0.004178 0.0
1.064061 -0.004571 0.0
1.073615 -0.004984 0.0
1.084015 -0.005416 0.0
1.095300 -0.005869 0.0
1.107510 -0.006341 0.0
1.120685 -0.006834 0.0
1.134865 -0.007346 0.0
1.150087 -0.007876 0.0
1.166388 -0.008425 0.0
1.183802 -0.008989 0.0
1.202360 -0.009568 0.0
1.222087 -0.010160 0.0
1.243007 -0.010760 0.0
1.265135 -0.011367 0.0
1.288479 -0.011977 0.0
1.313041 -0.012584 0.0
1.338810 -0.013185 0.0
1.365767 -0.013772 0.0
1.393881 -0.014341 0.0
1.423106 -0.014884 0.0
1.453385 -0.015394 0.0
1.484643 -0.015863 0.0
1.516790 -0.016284 0.0
1.549721 -0.016647 0.0
1.583315 -0.016946 0.0
1.617434 -0.017172 0.0
1.651925 -0.017319 0.0
1.686626 -0.017381 0.0
1.721359 -0.017353 0.0
1.755943 -0.017231 0.0
1.790189 -0.017015 0.0
1.823909 -0.016706 0.0
1.856921 -0.016306 0.0
1.889048 -0.015821 0.0
1.920128 -0.015260 0.0
1.950019 -0.014631 0.0
1.978597 -0.013947 0.0
2.005764 -0.013220 0.0
2.031448 -0.012464 0.0
2.055606 -0.011694 0.0
2.078221 -0.010921 0.0
2.099299 -0.010158 0.0
2.118874 -0.009417 0.0
2.136996 -0.008706 0.0
2.153734 -0.008032 0.0
2.169169 -0.007403 0.0
2.183392 -0.006820 0.0
2.196499 -0.006287 0.0
2.208591 -0.005805 0.0
2.219770 -0.005374 0.0
2.230137 -0.004993 0.0
2.239791 -0.004661 0.0
2.248829 -0.004377 0.0
2.257345 -0.004139 0.0
2.265430 -0.003945 0.0
2.273169 -0.003794 0.0
2.280644 -0.003682 0.0
2.287934 -0.003608 0.0
2.295109 -0.003568 0.0
2.302235 -0.003558 0.0
2.309368 -0.003575 0.0
2.316555 -0.003612 0.0
2.323832 -0.003665 0.0
2.331221 -0.003724 0.0
2.338728 -0.003783 0.0
2.346342 -0.003832 0.0
2.354035 -0.003862 0.0
2.361761 -0.003864 0.0
2.369455 -0.003829 0.0
2.377032 -0.003748 0.0
2.384393 -0.003613 0.0
2.391423 -0.003417 0.0
2.397994 -0.003154 0.0
2.403967 -0.002819 0.0
2.409195 -0.002409 0.0
2.413526 -0.001922 0.0
2.416807 -0.001359 0.0
2.418886 -0.000721 0.0
2.419630 -0.000022 0.0
2.418918 0.000734 0.0
2.416631 0.001553 0.0
2.412647 0.002431 0.0
2.406852 0.003364 0.0
2.399143 0.004346 0.0
2.389428 0.005369 0.0
2.377632 0.006427 0.0
2.363691 0.007513 0.0
2.347558 0.008619 0.0
2.329201 0.009738 0.0
2.308602 0.010861 0.0
2.285762 0.011980 0.0
2.260693 0.013089 0.0
2.233426 0.014178 0.0
2.204006 0.015242 0.0
2.172493 0.016272 0.0
2.138959 0.017262 0.0
2.103492 0.018205 0.0
2.066190 0.019097 0.0
2.027162 0.019931 0.0
1.986528 0.020703 0.0
1.944417 0.021408 0.0
1.900964 0.022045 0.0
1.856311 0.022609 0.0
1.810602 0.023099 0.0
1.763988 0.023515 0.0
1.716619 0.023855 0.0
1.668645 0.024119 0.0
1.620216 0.024309 0.0
1.571482 0.024425 0.0
1.522589 0.024468 0.0
1.473681 0.024440 0.0
1.424898 0.024343 0.0
1.376378 0.024177 0.0
1.328259 0.023943 0.0
1.280675 0.023642 0.0
1.233760 0.023273 0.0
1.187652 0.022836 0.0
1.142487 0.022329 0.0
1.098407 0.021751 0.0
1.055556 0.021100 0.0
1.014080 0.020376 0.0
0.974123 0.019581 0.0
0.935826 0.018717 0.0
0.899320 0.017790 0.0
0.864722 0.016808 0.0
0.832135 0.015779 0.0
0.801643 0.014713 0.0
0.773315 0.013615 0.0
0.747206 0.012493 0.0
0.723361 0.011352 0.0
0.701815 0.010195 0.0
0.682592 0.009029 0.0
0.665702 0.007861 0.0
0.651143 0.006699 0.0
0.638889 0.005554 0.0
0.628900 0.004434 0.0
0.621126 0.003340 0.0
0.615536 0.002250 0.0
0.612186 0.001100 0.0
0.611227 -0.000140 0.0
0.612635 -0.001268 0.0
0.616110 -0.002207 0.0
0.621267 -0.002950 0.0
0.627729 -0.003513 0.0
0.635161 -0.003920 0.0
0.643277 -0.004196 0.0
0.651838 -0.004365 0.0
0.660651 -0.004448 0.0
0.669561 -0.004462 0.0
0.678443 -0.004420 0.0
0.687199 -0.004336 0.0
0.695755 -0.004219 0.0
0.704051 -0.004077 0.0
0.712043 -0.003915 0.0
0.719699 -0.003740 0.0
0.726996 -0.003557 0.0
0.733919 -0.003367 0.0
0.740462 -0.003175 0.0
0.746620 -0.002983 0.0
0.752398 -0.002794 0.0
0.757800 -0.002608 0.0
0.762837 -0.002428 0.0
0.767520 -0.002254 0.0
0.771862 -0.002088 0.0
0.775879 -0.001929 0.0
0.779586 -0.001778 0.0
0.783000 -0.001635 0.0
0.786135 -0.001500 0.0
0.789007 -0.001372 0.0
0.791630 -0.001251 0.0
0.794016 -0.001135 0.0
0.796172 -0.001022 0.0
0.798106 -0.000912 0.0
0.799819 -0.000801 0.0
0.801306 -0.000686 0.0
0.802557 -0.000566 0.0
0.803567 -0.000444 0.0
0.804347 -0.000336 0.0
1.000261 0.000305 0.0
1.000970 0.000342 0.0
1.001995 0.000128 0.0
1.003282 -0.000209 0.0
1.004840 -0.000616 0.0
1.006690 -0.001069 0.0
1.008850 -0.001559 0.0
1.011337 -0.002081 0.0
1.014169 -0.002632 0.0
1.017364 -0.003214 0.0
1.020939 -0.003827 0.0
1.024912 -0.004472 0.0
1.029305 -0.005151 0.0
1.034137 -0.005867 0.0
1.039432 -0.006621 0.0
1.045213 -0.007416 0.0
1.051506 -0.008254 0.0
1.058338 -0.009138 0.0
1.065739 -0.010069 0.0
1.073738 -0.011051 0.0
1.082367 -0.012085 0.0
1.091660 -0.013173 0.0
1.101651 -0.014317 0.0
1.112377 -0.015519 0.0
1.123875 -0.016779 0.0
1.136182 -0.018099 0.0
1.149339 -0.019478 0.0
1.163383 -0.020917 0.0
1.178354 -0.022414 0.0
1.194291 -0.023967 0.0
1.211230 -0.025574 0.0
1.229209 -0.027232 0.0
1.248259 -0.028934 0.0
1.268412 -0.030674 0.0
1.289692 -0.032446 0.0
1.312121 -0.034239 0.0
1.335713 -0.036042 0.0
1.360475 -0.037842 0.0
1.386405 -0.039625 0.0
1.413490 -0.041374 0.0
1.441706 -0.043070 0.0
1.471018 -0.044693 0.0
1.501375 -0.046221 0.0
1.532710 -0.047630 0.0
1.564944 -0.048898 0.0
1.597977 -0.049998 0.0
1.631695 -0.050908 0.0
1.665969 -0.051603 0.0
1.700651 -0.052063 0.0
1.735583 -0.052269 0.0
1.770593 -0.052207 0.0
1.805500 -0.051867 0.0
1.840118 -0.051244 0.0
1.874262 -0.050341 0.0
1.907746 -0.049166 0.0
1.940395 -0.047737 0.0
1.972047 -0.046076 0.0
2.002555 -0.044213 0.0
2.031797 -0.042184 0.0
2.059672 -0.040025 0.0
2.086108 -0.037780 0.0
2.111061 -0.035489 0.0
2.134514 -0.033192 0.0
2.156475 -0.030926 0.0
2.176977 -0.028725 0.0
2.196071 -0.026614 0.0
2.213825 -0.024617 0.0
2.230321 -0.022749 0.0
2.245647 -0.021023 0.0
2.259900 -0.019445 0.0
2.273178 -0.018018 0.0
2.285580 -0.016742 0.0
2.297205 -0.015616 0.0
2.308148 -0.014635 0.0
2.318502 -0.013796 0.0
2.328358 -0.013093 0.0
2.337802 -0.012520 0.0
2.346917 -0.012073 0.0
2.355781 -0.011743 0.0
2.364469 -0.011524 0.0
2.373050 -0.011407 0.0
2.381587 -0.011381 0.0
2.390135 -0.011433 0.0
2.398742 -0.011548 0.0
2.407443 -0.011707 0.0
2.416261 -0.011888 0.0
2.425204 -0.012068 0.0
2.434264 -0.012221 0.0
2.443418 -0.012320 0.0
2.452621 -0.012336 0.0
2.461815 -0.012244 0.0
2.470922 -0.012017 0.0
2.479848 -0.011632 0.0
2.488487 -0.011067 0.0
2.496720 -0.010307 0.0
2.504417 -0.009336 0.0
2.511441 -0.008145 0.0
2.517653 -0.006729 0.0
2.522908 -0.005087 0.0
2.527061 -0.003224 0.0
2.529953 -0.001154 0.0
2.531417 0.001113 0.0
2.531304 0.003574 0.0
2.529483 0.006214 0.0
2.525840 0.009019 0.0
2.520271 0.011969 0.0
2.512685 0.015046 0.0
2.503005 0.018227 0.0
2.491170 0.021490 0.0
2.477131 0.024814 0.0
2.460857 0.028174 0.0
2.442332 0.031548 0.0
2.421554 0.034911 0.0
2.398541 0.038240 0.0
2.373321 0.041513 0.0
2.345941 0.044707 0.0
2.316461 0.047800 0.0
2.284956 0.050773 0.0
2.251512 0.053606 0.0
2.216230 0.056281 0.0
2.179220 0.058784 0.0
2.140602 0.061100 0.0
2.100507 0.063218 0.0
2.059069 0.065126 0.0
2.016431 0.066818 0.0
1.972740 0.068289 0.0
1.928145 0.069534 0.0
1.882797 0.070553 0.0
1.836846 0.071346 0.0
1.790442 0.071914 0.0
1.743734 0.072262 0.0
1.696867 0.072391 0.0
1.649984 0.072308 0.0
1.603225 0.072017 0.0
1.556727 0.071520 0.0
1.510623 0.070822 0.0
1.465048 0.069922 0.0
1.420132 0.068822 0.0
1.376009 0.067518 0.0
1.332812 0.066009 0.0
1.290674 0.064289 0.0
1.249731 0.062356 0.0
1.210120 0.060209 0.0
1.171973 0.057852 0.0
1.135423 0.055293 0.0
1.100593 0.052549 0.0
1.067601 0.049638 0.0
1.036550 0.046586 0.0
1.007533 0.043415 0.0
0.980624 0.040149 0.0
0.955884 0.036809 0.0
0.933355 0.033411 0.0
0.913060 0.029976 0.0
0.895008 0.026523 0.0
0.879188 0.023075 0.0
0.865576 0.019657 0.0
0.854130 0.016296 0.0
0.844797 0.013014 0.0
0.837510 0.009820 0.0
0.832177 0.006693 0.0
0.828608 0.003575 0.0
0.826503 0.000449 0.0
0.825665 -0.002429 0.0
0.826016 -0.004871 0.0
0.827439 -0.006864 0.0
0.829815 -0.008436 0.0
0.833019 -0.009633 0.0
0.836926 -0.010506 0.0
0.841414 -0.011105 0.0
0.846370 -0.011477 0.0
0.851689 -0.011661 0.0
0.857277 -0.011692 0.0
0.863053 -0.011598 0.0
0.868944 -0.011405 0.0
0.874889 -0.011132 0.0
0.880834 -0.010797 0.0
0.886732 -0.010414 0.0
0.892546 -0.009994 0.0
0.898242 -0.009549 0.0
0.903792 -0.009086 0.0
0.909173 -0.008613 0.0
0.914367 -0.008136 0.0
0.919358 -0.007660 0.0
0.924134 -0.007190 0.0
0.928686 -0.006728 0.0
0.933008 -0.006279 0.0
0.937096 -0.005843 0.0
0.940948 -0.005423 0.0
0.944563 -0.005019 0.0
0.947942 -0.004632 0.0
0.951089 -0.004260 0.0
0.954006 -0.003903 0.0
0.956697 -0.003558 0.0
0.959164 -0.003223 0.0
0.961411 -0.002892 0.0
0.963436 -0.002558 0.0
0.965235 -0.002215 0.0
0.966794 -0.001848 0.0
0.968076 -0.001453 0.0
0.968900 -0.000931 0.0
1.000145 -0.000101 0.0
1.000645 -0.000461 0.0
1.001522 -0.000972 0.0
1.002720 -0.001594 0.0
1.004224 -0.002294 0.0
1.006038 -0.003055 0.0
1.008172 -0.003867 0.0
1.010638 -0.004727 0.0
1.013453 -0.005633 0.0
1.016630 -0.006586 0.0
1.020188 -0.007587 0.0
1.024143 -0.008640 0.0
1.028516 -0.009748 0.0
1.033327 -0.010913 0.0
1.038599 -0.012140 0.0
1.044354 -0.013433 0.0
1.050619 -0.014795 0.0
1.057420 -0.016230 0.0
1.064786 -0.017743 0.0
1.072747 -0.019337 0.0
1.081335 -0.021016 0.0
1.090584 -0.022783 0.0
1.100529 -0.024642 0.0
1.111205 -0.026596 0.0
1.122651 -0.028645 0.0
1.134905 -0.030793 0.0
1.148006 -0.033041 0.0
1.161994 -0.035387 0.0
1.176910 -0.037831 0.0
1.192793 -0.040370 0.0
1.209682 -0.043000 0.0
1.227614 -0.045716 0.0
1.246625 -0.048510 0.0
1.266746 -0.051372 0.0
1.288005 -0.054289 0.0
1.310426 -0.057246 0.0
1.334026 -0.060226 0.0
1.358813 -0.063207 0.0
1.384789 -0.066166 0.0
1.411945 -0.069074 0.0
1.440258 -0.071900 0.0
1.469695 -0.074612 0.0
1.500208 -0.077171 0.0
1.531732 -0.079540 0.0
1.564188 -0.081677 0.0
1.597477 -0.083541 0.0
1.631484 -0.085091 0.0
1.666078 -0.086287 0.0
1.701108 -0.087092 0.0
1.736410 -0.087475 0.0
1.771808 -0.087409 0.0
1.807114 -0.086877 0.0
1.842133 -0.085871 0.0
1.876670 -0.084394 0.0
1.910532 -0.082459 0.0
1.943532 -0.080094 0.0
1.975500 -0.077338 0.0
2.006281 -0.074241 0.0
2.035745 -0.070862 0.0
2.063789 -0.067267 0.0
2.090340 -0.063526 0.0
2.115352 -0.059709 0.0
2.138812 -0.055885 0.0
2.160733 -0.052116 0.0
2.181155 -0.048458 0.0
2.200135 -0.044955 0.0
2.217750 -0.041645 0.0
2.234088 -0.038554 0.0
2.249245 -0.035701 0.0
2.263321 -0.033096 0.0
2.276421 -0.030744 0.0
2.288647 -0.028643 0.0
2.300098 -0.026790 0.0
2.310874 -0.025179 0.0
2.321068 -0.023800 0.0
2.330771 -0.022647 0.0
2.340069 -0.021709 0.0
2.349047 -0.020977 0.0
2.357784 -0.020440 0.0
2.366355 -0.020086 0.0
2.374832 -0.019903 0.0
2.383280 -0.019871 0.0
2.391759 -0.019971 0.0
2.400319 -0.020177 0.0
2.408999 -0.020459 0.0
2.417826 -0.020781 0.0
2.426811 -0.021103 0.0
2.435949 -0.021384 0.0
2.445215 -0.021577 0.0
2.454569 -0.021636 0.0
2.463947 -0.021517 0.0
2.473272 -0.021176 0.0
2.482446 -0.020574 0.0
2.491358 -0.019677 0.0
2.499886 -0.018457 0.0
2.507894 -0.016891 0.0
2.515242 -0.014963 0.0
2.521783 -0.012665 0.0
2.527370 -0.009994 0.0
2.531855 -0.006955 0.0
2.535093 -0.003554 0.0
2.536949 0.000193 0.0
2.537293 0.004264 0.0
2.536003 0.008635 0.0
2.532968 0.013276 0.0
2.528091 0.018158 0.0
2.521286 0.023248 0.0
2.512481 0.028509 0.0
2.501619 0.033905 0.0
2.488659 0.039399 0.0
2.473571 0.044951 0.0
2.456346 0.050522 0.0
2.436984 0.056075 0.0
2.415506 0.061568 0.0
2.391944 0.066966 0.0
2.366347 0.072231 0.0
2.338775 0.077327 0.0
2.309305 0.082221 0.0
2.278024 0.086882 0.0
2.245032 0.091280 0.0
2.210439 0.095390 0.0
2.174363 0.099188 0.0
2.136933 0.102656 0.0
2.098281 0.105777 0.0
2.058546 0.108539 0.0
2.017871 0.110934 0.0
1.976401 0.112955 0.0
1.934280 0.114602 0.0
1.891653 0.115875 0.0
1.848663 0.116779 0.0
1.805450 0.117318 0.0
1.762151 0.117501 0.0
1.718899 0.117335 0.0
1.675821 0.116828 0.0
1.633043 0.115987 0.0
1.590684 0.114818 0.0
1.548862 0.113324 0.0
1.507691 0.111506 0.0
1.467284 0.109364 0.0
1.427750 0.106894 0.0
1.389200 0.104091 0.0
1.351743 0.100953 0.0
1.315485 0.097481 0.0
1.280533 0.093678 0.0
1.246991 0.089559 0.0
1.214958 0.085145 0.0
1.184528 0.080464 0.0
1.155788 0.075551 0.0
1.128813 0.070443 0.0
1.103664 0.065179 0.0
1.080386 0.059797 0.0
1.059005 0.054334 0.0
1.039527 0.048826 0.0
1.021939 0.043313 0.0
1.006210 0.037833 0.0
0.992292 0.032429 0.0
0.980123 0.027139 0.0
0.969626 0.022001 0.0
0.960705 0.017041 0.0
0.953234 0.012278 0.0
0.947043 0.007750 0.0
0.941904 0.003520 0.0
0.937613 -0.000372 0.0
0.934152 -0.003819 0.0
0.931551 -0.006739 0.0
0.929763 -0.009148 0.0
0.928724 -0.011086 0.0
0.928367 -0.012602 0.0
0.928618 -0.013747 0.0
0.929400 -0.014573 0.0
0.930641 -0.015124 0.0
0.932270 -0.015445 0.0
0.934221 -0.015571 0.0
0.936433 -0.015535 0.0
0.938851 -0.015365 0.0
0.941426 -0.015084 0.0
0.944114 -0.014713 0.0
0.946875 -0.014269 0.0
0.949674 -0.013768 0.0
0.952480 -0.013223 0.0
0.955268 -0.012645 0.0
0.958013 -0.012043 0.0
0.960695 -0.011426 0.0
0.963298 -0.010802 0.0
0.965806 -0.010177 0.0
0.968209 -0.009555 0.0
0.970496 -0.008942 0.0
0.972660 -0.008340 0.0
0.974695 -0.007752 0.0
0.976598 -0.007181 0.0
0.978365 -0.006625 0.0
0.979996 -0.006085 0.0
0.981489 -0.005559 0.0
0.982844 -0.005044 0.0
0.984060 -0.004533 0.0
0.985136 -0.004018 0.0
0.986068 -0.003486 0.0
0.986849 -0.002917 0.0
0.987463 -0.002280 0.0
0.987903 -0.001367 0.0
1.000108 -0.000354 0.0
1.000519 -0.001119 0.0
1.001299 -0.001972 0.0
1.002416 -0.002909 0.0
1.003855 -0.003921 0.0
1.005614 -0.005000 0.0
1.007699 -0.006140 0.0
1.010119 -0.007341 0.0
1.012887 -0.008601 0.0
1.016017 -0.009925 0.0
1.019524 -0.011313 0.0
1.023427 -0.012772 0.0
1.027744 -0.014305 0.0
1.032495 -0.015918 0.0
1.037702 -0.017615 0.0
1.043390 -0.019401 0.0
1.049583 -0.021284 0.0
1.056308 -0.023268 0.0
1.063594 -0.025358 0.0
1.071472 -0.027561 0.0
1.079974 -0.029882 0.0
1.089133 -0.032325 0.0
1.098984 -0.034896 0.0
1.109566 -0.037599 0.0
1.120916 -0.040437 0.0
1.133073 -0.043413 0.0
1.146078 -0.046528 0.0
1.159972 -0.049783 0.0
1.174798 -0.053176 0.0
1.190595 -0.056705 0.0
1.207405 -0.060364 0.0
1.225267 -0.064147 0.0
1.244220 -0.068043 0.0
1.264298 -0.072038 0.0
1.285532 -0.076116 0.0
1.307949 -0.080257 0.0
1.331569 -0.084435 0.0
1.356406 -0.088622 0.0
1.382464 -0.092785 0.0
1.409737 -0.096883 0.0
1.438208 -0.100875 0.0
1.467848 -0.104713 0.0
1.498609 -0.108344 0.0
1.530431 -0.111714 0.0
1.563235 -0.114763 0.0
1.596923 -0.117432 0.0
1.631379 -0.119663 0.0
1.666468 -0.121397 0.0
1.702035 -0.122580 0.0
1.737910 -0.123165 0.0
1.773906 -0.123113 0.0
1.809825 -0.122398 0.0
1.845461 -0.121006 0.0
1.880602 -0.118938 0.0
1.915042 -0.116216 0.0
1.948580 -0.112875 0.0
1.981028 -0.108973 0.0
2.012222 -0.104581 0.0
2.042020 -0.099785 0.0
2.070314 -0.094681 0.0
2.097025 -0.089373 0.0
2.122112 -0.083961 0.0
2.145565 -0.078546 0.0
2.167407 -0.073218 0.0
2.187685 -0.068055 0.0
2.206471 -0.063123 0.0
2.223852 -0.058473 0.0
2.239928 -0.054140 0.0
2.254804 -0.050149 0.0
2.268590 -0.046512 0.0
2.281396 -0.043234 0.0
2.293330 -0.040312 0.0
2.304496 -0.037739 0.0
2.314994 -0.035504 0.0
2.324919 -0.033595 0.0
2.334363 -0.032000 0.0
2.343414 -0.030705 0.0
2.352155 -0.029699 0.0
2.360668 -0.028967 0.0
2.369030 -0.028493 0.0
2.377315 -0.028259 0.0
2.385595 -0.028243 0.0
2.393933 -0.028416 0.0
2.402384 -0.028744 0.0
2.410995 -0.029183 0.0
2.419797 -0.029685 0.0
2.428807 -0.030194 0.0
2.438023 -0.030647 0.0
2.447423 -0.030980 0.0
2.456964 -0.031127 0.0
2.466584 -0.031023 0.0
2.476197 -0.030607 0.0
2.485704 -0.029823 0.0
2.494987 -0.028623 0.0
2.503914 -0.026966 0.0
2.512344 -0.024820 0.0
2.520127 -0.022164 0.0
2.527110 -0.018987 0.0
2.533135 -0.015284 0.0
2.538048 -0.011062 0.0
2.541698 -0.006336 0.0
2.543944 -0.001127 0.0
2.544649 0.004535 0.0
2.543690 0.010613 0.0
2.540954 0.017068 0.0
2.536342 0.023855 0.0
2.529771 0.030928 0.0
2.521168 0.038236 0.0
2.510482 0.045726 0.0
2.497673 0.053347 0.0
2.482721 0.061042 0.0
2.465620 0.068758 0.0
2.446381 0.076439 0.0
2.425032 0.084031 0.0
2.401618 0.091480 0.0
2.376196 0.098736 0.0
2.348843 0.105747 0.0
2.319645 0.112469 0.0
2.288704 0.118856 0.0
2.256132 0.124869 0.0
2.222054 0.130472 0.0
2.186601 0.135634 0.0
2.149914 0.140328 0.0
2.112139 0.144533 0.0
2.073425 0.148233 0.0
2.033924 0.151416 0.0
1.993789 0.154078 0.0
1.953172 0.156217 0.0
1.912222 0.157837 0.0
1.871084 0.158945 0.0
1.829898 0.159551 0.0
1.788798 0.159667 0.0
1.747911 0.159308 0.0
1.707357 0.158486 0.0
1.667250 0.157214 0.0
1.627697 0.155503 0.0
1.588796 0.153361 0.0
1.550641 0.150794 0.0
1.513321 0.147804 0.0
1.476919 0.144390 0.0
1.441515 0.140550 0.0
1.407184 0.136283 0.0
1.374000 0.131592 0.0
1.342034 0.126484 0.0
1.311354 0.120976 0.0
1.282026 0.115090 0.0
1.254111 0.108863 0.0
1.227667 0.102336 0.0
1.202742 0.095558 0.0
1.179374 0.088581 0.0
1.157587 0.081460 0.0
1.137390 0.074249 0.0
1.118774 0.067005 0.0
1.101713 0.059783 0.0
1.086166 0.052639 0.0
1.072078 0.045629 0.0
1.059382 0.038805 0.0
1.047998 0.032216 0.0
1.037836 0.025908 0.0
1.028791 0.019926 0.0
1.020754 0.014329 0.0
1.013634 0.009200 0.0
1.007320 0.004553 0.0
1.001663 0.000374 0.0
0.996632 -0.003300 0.0
0.992271 -0.006437 0.0
0.988564 -0.009053 0.0
0.985474 -0.011189 0.0
0.982957 -0.012894 0.0
0.980965 -0.014217 0.0
0.979448 -0.015204 0.0
0.978356 -0.015901 0.0
0.977638 -0.016348 0.0
0.977247 -0.016580 0.0
0.977138 -0.016630 0.0
0.977269 -0.016525 0.0
0.977601 -0.016291 0.0
0.978100 -0.015950 0.0
0.978733 -0.015519 0.0
0.979470 -0.015016 0.0
0.980288 -0.014456 0.0
0.981161 -0.013850 0.0
0.982070 -0.013211 0.0
0.982997 -0.012547 0.0
0.983926 -0.011869 0.0
0.984844 -0.011183 0.0
0.985740 -0.010496 0.0
0.986604 -0.009813 0.0
0.987428 -0.009139 0.0
0.988206 -0.008475 0.0
0.988934 -0.007825 0.0
0.989607 -0.007189 0.0
0.990222 -0.006564 0.0
0.990777 -0.005949 0.0
0.991271 -0.005337 0.0
0.991701 -0.004720 0.0
0.992068 -0.004084 0.0
0.992373 -0.003405 0.0
0.992623 -0.002655 0.0
0.992863 -0.001672 0.0
1.000093 -0.000555 0.0
1.000459 -0.001695 0.0
1.001176 -0.002892 0.0
1.002228 -0.004157 0.0
1.003605 -0.005490 0.0
1.005306 -0.006892 0.0
1.007334 -0.008362 0.0
1.009697 -0.009903 0.0
1.012407 -0.011516 0.0
1.015475 -0.013207 0.0
1.018917 -0.014980 0.0
1.022749 -0.016841 0.0
1.026991 -0.018795 0.0
1.031662 -0.020850 0.0
1.036784 -0.023012 0.0
1.042380 -0.025288 0.0
1.048476 -0.027686 0.0
1.055099 -0.030213 0.0
1.062277 -0.032877 0.0
1.070042 -0.035685 0.0
1.078425 -0.038643 0.0
1.087460 -0.041759 0.0
1.097185 -0.045039 0.0
1.107636 -0.048489 0.0
1.118853 -0.052113 0.0
1.130875 -0.055916 0.0
1.143746 -0.059900 0.0
1.157508 -0.064066 0.0
1.172204 -0.068413 0.0
1.187878 -0.072938 0.0
1.204573 -0.077636 0.0
1.222332 -0.082497 0.0
1.241196 -0.087509 0.0
1.261204 -0.092657 0.0
1.282390 -0.097918 0.0
1.304787 -0.103268 0.0
1.328419 -0.108676 0.0
1.353305 -0.114104 0.0
1.379455 -0.119511 0.0
1.406869 -0.124845 0.0
1.435535 -0.130051 0.0
1.465427 -0.135068 0.0
1.496505 -0.139828 0.0
1.528710 -0.144257 0.0
1.561965 -0.148279 0.0
1.596175 -0.151814 0.0
1.631221 -0.154783 0.0
1.666965 -0.157108 0.0
1.703246 -0.158716 0.0
1.739884 -0.159542 0.0
1.776683 -0.159531 0.0
1.813427 -0.158644 0.0
1.849894 -0.156862 0.0
1.885854 -0.154183 0.0
1.921077 -0.150633 0.0
1.955341 -0.146259 0.0
1.988440 -0.141136 0.0
2.020189 -0.135360 0.0
2.050434 -0.129049 0.0
2.079056 -0.122332 0.0
2.105973 -0.115350 0.0
2.131145 -0.108243 0.0
2.154571 -0.101144 0.0
2.176285 -0.094175 0.0
2.196350 -0.087441 0.0
2.214854 -0.081027 0.0
2.231901 -0.074997 0.0
2.247607 -0.069396 0.0
2.262092 -0.064253 0.0
2.275477 -0.059579 0.0
2.287882 -0.055377 0.0
2.299419 -0.051640 0.0
2.310198 -0.048356 0.0
2.320322 -0.045508 0.0
2.329886 -0.043080 0.0
2.338984 -0.041056 0.0
2.347701 -0.039418 0.0
2.356124 -0.038150 0.0
2.364333 -0.037237 0.0
2.372411 -0.036661 0.0
2.380434 -0.036400 0.0
2.388479 -0.036427 0.0
2.396618 -0.036708 0.0
2.404914 -0.037199 0.0
2.413422 -0.037846 0.0
2.422183 -0.038585 0.0
2.431219 -0.039340 0.0
2.440533 -0.040031 0.0
2.450108 -0.040570 0.0
2.459899 -0.040869 0.0
2.469840 -0.040842 0.0
2.479843 -0.040406 0.0
2.489800 -0.039488 0.0
2.499582 -0.038024 0.0
2.509050 -0.035960 0.0
2.518049 -0.033255 0.0
2.526420 -0.029883 0.0
2.533998 -0.025827 0.0
2.540614 -0.021085 0.0
2.546105 -0.015665 0.0
2.550309 -0.009589 0.0
2.553076 -0.002887 0.0
2.554264 0.004402 0.0
2.553741 0.012228 0.0
2.551391 0.020539 0.0
2.547110 0.029276 0.0
2.540812 0.038377 0.0
2.532424 0.047776 0.0
2.521891 0.057405 0.0
2.509174 0.067194 0.0
2.494251 0.077070 0.0
2.477120 0.086963 0.0
2.457794 0.096799 0.0
2.436305 0.106508 0.0
2.412702 0.116021 0.0
2.387050 0.125268 0.0
2.359433 0.134186 0.0
2.329947 0.142714 0.0
2.298705 0.150794 0.0
2.265833 0.158375 0.0
2.231467 0.165410 0.0
2.195756 0.171860 0.0
2.158855 0.177690 0.0
2.120927 0.182874 0.0
2.082138 0.187394 0.0
2.042659 0.191235 0.0
2.002657 0.194395 0.0
1.962301 0.196873 0.0
1.921754 0.198678 0.0
1.881173 0.199823 0.0
1.840708 0.200324 0.0
1.800503 0.200201 0.0
1.760687 0.199477 0.0
1.721384 0.198173 0.0
1.682705 0.196312 0.0
1.644750 0.193913 0.0
1.607609 0.190993 0.0
1.571363 0.187564 0.0
1.536081 0.183636 0.0
1.501826 0.179214 0.0
1.468653 0.174303 0.0
1.436608 0.168905 0.0
1.405735 0.163027 0.0
1.376072 0.156679 0.0
1.347652 0.149880 0.0
1.320509 0.142658 0.0
1.294669 0.135049 0.0
1.270160 0.127103 0.0
1.246999 0.118876 0.0
1.225199 0.110431 0.0
1.204762 0.101834 0.0
1.185678 0.093156 0.0
1.167925 0.084467 0.0
1.151468 0.075839 0.0
1.136259 0.067339 0.0
1.122243 0.059034 0.0
1.109353 0.050986 0.0
1.097518 0.043254 0.0
1.086661 0.035890 0.0
1.076702 0.028948 0.0
1.067565 0.022481 0.0
1.059189 0.016544 0.0
1.051532 0.011180 0.0
1.044551 0.006385 0.0
1.038151 0.002120 0.0
1.032268 -0.001613 0.0
1.026923 -0.004825 0.0
1.022127 -0.007530 0.0
1.017858 -0.009766 0.0
1.014084 -0.011579 0.0
1.010774 -0.013015 0.0
1.007892 -0.014116 0.0
1.005402 -0.014925 0.0
1.003267 -0.015477 0.0
1.001453 -0.015809 0.0
0.999925 -0.015949 0.0
0.998651 -0.015926 0.0
0.997601 -0.015764 0.0
0.996747 -0.015484 0.0
0.996062 -0.015105 0.0
0.995524 -0.014646 0.0
0.995111 -0.014120 0.0
0.994804 -0.013542 0.0
0.994585 -0.012924 0.0
0.994439 -0.012276 0.0
0.994352 -0.011608 0.0
0.994312 -0.010928 0.0
0.994309 -0.010243 0.0
0.994334 -0.009558 0.0
0.994379 -0.008879 0.0
0.994438 -0.008208 0.0
0.994505 -0.007546 0.0
0.994575 -0.006893 0.0
0.994647 -0.006247 0.0
0.994715 -0.005602 0.0
0.994780 -0.004951 0.0
0.994843 -0.004283 0.0
0.994910 -0.003578 0.0
0.994995 -0.002818 0.0
0.995141 -0.001896 0.0
1.000085 -0.000733 0.0
1.000424 -0.002222 0.0
1.001096 -0.003754 0.0
1.002093 -0.005344 0.0
1.003413 -0.006999 0.0
1.005053 -0.008724 0.0
1.007018 -0.010523 0.0
1.009315 -0.012402 0.0
1.011955 -0.014365 0.0
1.014948 -0.016420 0.0
1.018309 -0.018572 0.0
1.022055 -0.020828 0.0
1.026204 -0.023198 0.0
1.030775 -0.025689 0.0
1.035790 -0.028309 0.0
1.041272 -0.031069 0.0
1.047246 -0.033976 0.0
1.053740 -0.037040 0.0
1.060781 -0.040270 0.0
1.068402 -0.043676 0.0
1.076635 -0.047267 0.0
1.085514 -0.051050 0.0
1.095076 -0.055035 0.0
1.105360 -0.059228 0.0
1.116405 -0.063637 0.0
1.128255 -0.068265 0.0
1.140951 -0.073119 0.0
1.154540 -0.078198 0.0
1.169066 -0.083504 0.0
1.184577 -0.089032 0.0
1.201118 -0.094778 0.0
1.218736 -0.100732 0.0
1.237476 -0.106879 0.0
1.257382 -0.113201 0.0
1.278494 -0.119673 0.0
1.300849 -0.126266 0.0
1.324479 -0.132941 0.0
1.349410 -0.139656 0.0
1.375657 -0.146357 0.0
1.403229 -0.152984 0.0
1.432119 -0.159469 0.0
1.462311 -0.165734 0.0
1.493767 -0.171696 0.0
1.526437 -0.177263 0.0
1.560246 -0.182338 0.0
1.595100 -0.186819 0.0
1.630880 -0.190605 0.0
1.667444 -0.193594 0.0
1.704623 -0.195691 0.0
1.742229 -0.196810 0.0
1.780046 -0.196878 0.0
1.817844 -0.195840 0.0
1.855376 -0.193665 0.0
1.892385 -0.190349 0.0
1.928615 -0.185920 0.0
1.963814 -0.180436 0.0
1.997749 -0.173993 0.0
2.030209 -0.166714 0.0
2.061021 -0.158752 0.0
2.090051 -0.150280 0.0
2.117213 -0.141482 0.0
2.142471 -0.132541 0.0
2.165834 -0.123634 0.0
2.187354 -0.114918 0.0
2.207116 -0.106526 0.0
2.225231 -0.098562 0.0
2.241828 -0.091106 0.0
2.257042 -0.084208 0.0
2.271013 -0.077897 0.0
2.283876 -0.072183 0.0
2.295762 -0.067063 0.0
2.306792 -0.062522 0.0
2.317079 -0.058541 0.0
2.326729 -0.055096 0.0
2.335839 -0.052166 0.0
2.344499 -0.049727 0.0
2.352797 -0.047761 0.0
2.360816 -0.046249 0.0
2.368639 -0.045173 0.0
2.376351 -0.044515 0.0
2.384033 -0.044252 0.0
2.391771 -0.044357 0.0
2.399643 -0.044789 0.0
2.407728 -0.045498 0.0
2.416090 -0.046417 0.0
2.424782 -0.047466 0.0
2.433838 -0.048551 0.0
2.443268 -0.049565 0.0
2.453056 -0.050399 0.0
2.463160 -0.050936 0.0
2.473510 -0.051066 0.0
2.484009 -0.050684 0.0
2.494538 -0.049696 0.0
2.504959 -0.048019 0.0
2.515117 -0.045589 0.0
2.524844 -0.042353 0.0
2.533966 -0.038278 0.0
2.542303 -0.033346 0.0
2.549674 -0.027554 0.0
2.555902 -0.020914 0.0
2.560812 -0.013455 0.0
2.564243 -0.005217 0.0
2.566041 0.003746 0.0
2.566072 0.013376 0.0
2.564211 0.023603 0.0
2.560349 0.034354 0.0
2.554396 0.045551 0.0
2.546276 0.057111 0.0
2.535931 0.068949 0.0
2.523321 0.080977 0.0
2.508423 0.093107 0.0
2.491235 0.105246 0.0
2.471770 0.117307 0.0
2.450062 0.129198 0.0
2.426163 0.140833 0.0
2.400144 0.152127 0.0
2.372091 0.162998 0.0
2.342109 0.173370 0.0
2.310317 0.183171 0.0
2.276853 0.192335 0.0
2.241862 0.200806 0.0
2.205506 0.208531 0.0
2.167955 0.215471 0.0
2.129386 0.221591 0.0
2.089982 0.226869 0.0
2.049930 0.231292 0.0
2.009415 0.234854 0.0
1.968623 0.237562 0.0
1.927735 0.239426 0.0
1.886922 0.240468 0.0
1.846352 0.240713 0.0
1.806178 0.240191 0.0
1.766544 0.238936 0.0
1.727578 0.236982 0.0
1.689398 0.234363 0.0
1.652105 0.231110 0.0
1.615787 0.227254 0.0
1.580520 0.222817 0.0
1.546363 0.217821 0.0
1.513365 0.212281 0.0
1.481564 0.206210 0.0
1.450988 0.199619 0.0
1.421654 0.192520 0.0
1.393576 0.184928 0.0
1.366760 0.176867 0.0
1.341209 0.168366 0.0
1.316924 0.159466 0.0
1.293899 0.150221 0.0
1.272128 0.140691 0.0
1.251597 0.130947 0.0
1.232288 0.121064 0.0
1.214174 0.111124 0.0
1.197219 0.101208 0.0
1.181379 0.091396 0.0
1.166602 0.081766 0.0
1.152831 0.072393 0.0
1.140003 0.063344 0.0
1.128052 0.054681 0.0
1.116914 0.046459 0.0
1.106525 0.038728 0.0
1.096829 0.031534 0.0
1.087782 0.024915 0.0
1.079350 0.018897 0.0
1.071510 0.013489 0.0
1.064242 0.008684 0.0
1.057510 0.004439 0.0
1.051253 0.000724 0.0
1.045452 -0.002482 0.0
1.040118 -0.005210 0.0
1.035246 -0.007490 0.0
1.030815 -0.009363 0.0
1.026801 -0.010872 0.0
1.023177 -0.012056 0.0
1.019918 -0.012953 0.0
1.016996 -0.013597 0.0
1.014383 -0.014020 0.0
1.012054 -0.014252 0.0
1.009982 -0.014317 0.0
1.008145 -0.014239 0.0
1.006520 -0.014040 0.0
1.005084 -0.013738 0.0
1.003820 -0.013351 0.0
1.002709 -0.012893 0.0
1.001735 -0.012379 0.0
1.000882 -0.011821 0.0
1.000138 -0.011231 0.0
0.999491 -0.010617 0.0
0.998929 -0.009988 0.0
0.998443 -0.009351 0.0
0.998024 -0.008712 0.0
0.997665 -0.008074 0.0
0.997359 -0.007440 0.0
0.997100 -0.006811 0.0
0.996884 -0.006184 0.0
0.996708 -0.005557 0.0
0.996569 -0.004923 0.0
0.996471 -0.004275 0.0
0.996419 -0.003600 0.0
0.996426 -0.002888 0.0