# vtk DataFile Version 3.0
Vector Field
ASCII
DATASET RECTILINEAR_GRID
DIMENSIONS 100 20 1
X_COORDINATES 100 double
0.050000 0.150000 0.250000 0.350000 0.450000 0.550000 0.650000 0.750000 0.850000 0.950000 1.050000 1.150000 1.250000 1.350000 1.450000 1.550000 1.650000 1.750000 1.850000 1.950000 2.050000 2.150000 2.250000 2.350000 2.450000 2.550000 2.650000 2.750000 2.850000 2.950000 3.050000 3.150000 3.250000 3.350000 3.450000 3.550000 3.650000 3.750000 3.850000 3.950000 4.050000 4.150000 4.250000 4.350000 4.450000 4.550000 4.650000 4.750000 4.850000 4.950000 5.050000 5.150000 5.250000 5.350000 5.450000 5.550000 5.650000 5.750000 5.850000 5.950000 6.050000 6.150000 6.250000 6.350000 6.450000 6.550000 6.650000 6.750000 6.850000 6.950000 7.050000 7.150000 7.250000 7.350000 7.450000 7.550000 7.650000 7.750000 7.850000 7.950000 8.050000 8.150000 8.250000 8.350000 8.450000 8.550000 8.650000 8.750000 8.850000 8.950000 9.050000 9.150000 9.250000 9.350000 9.450000 9.550000 9.650000 9.750000 9.850000 9.950000 
Y_COORDINATES 20 double
0.050000 0.150000 0.250000 0.350000 0.450000 0.550000 0.650000 0.750000 0.850000 0.950000 1.050000 1.150000 1.250000 1.350000 1.450000 1.550000 1.650000 1.750000 1.850000 1.950000 
Z_COORDINATES 1 double
0.0
POINT_DATA 2000
VECTORS Vektorfeld double
0.500000 0.000000 0.0
0.000000 0.000000 0.0
0.000000 0.000000 0.0
0.000000 0.000000 0.0
0.000000 0.000000 0.0
0.000000 0.000000 0.0
0.000000 0.000000 0.0
0.000000 0.000000 0.0
0.000000 0.000000 0.0
0.000000 -0.000113 0.0
-0.000189 0.000189 0.0
-0.001946 0.001569 0.0
-0.005907 0.002393 0.0
-0.010991 0.002691 0.0
-0.016423 0.002741 0.0
-0.021889 0.002725 0.0
-0.027339 0.002725 0.0
-0.032827 0.002763 0.0
-0.038427 0.002837 0.0
-0.044198 0.002934 0.0
-0.050166 0.003034 0.0
-0.056306 0.003107 0.0
-0.062528 0.003116 0.0
-0.068669 0.003025 0.0
-0.074499 0.002805 0.0
-0.079752 0.002449 0.0
-0.084166 0.001966 0.0
-0.087508 0.001376 0.0
-0.089595 0.000711 0.0
-0.090326 0.000020 0.0
-0.089671 -0.000675 0.0
-0.087642 -0.001354 0.0
-0.084314 -0.001974 0.0
-0.079823 -0.002517 0.0
-0.074317 -0.002989 0.0
-0.067938 -0.003389 0.0
-0.060856 -0.003693 0.0
-0.053269 -0.003894 0.0
-0.045365 -0.004010 0.0
-0.037247 -0.004107 0.0
-0.029022 -0.004118 0.0
-0.020863 -0.004041 0.0
-0.012868 -0.003954 0.0
-0.005100 -0.003814 0.0
0.002338 -0.003624 0.0
0.009359 -0.003397 0.0
0.015919 -0.003162 0.0
0.022007 -0.002925 0.0
0.027622 -0.002689 0.0
0.032768 -0.002457 0.0
0.037455 -0.002230 0.0
0.041698 -0.002013 0.0
0.045516 -0.001805 0.0
0.048931 -0.001610 0.0
0.051967 -0.001427 0.0
0.054652 -0.001258 0.0
0.057011 -0.001102 0.0
0.059073 -0.000960 0.0
0.060863 -0.000831 0.0
0.062408 -0.000714 0.0
0.063732 -0.000610 0.0
0.064861 -0.000518 0.0
0.065816 -0.000437 0.0
0.066617 -0.000365 0.0
0.067285 -0.000303 0.0
0.067836 -0.000249 0.0
0.068288 -0.000203 0.0
0.068654 -0.000163 0.0
0.068947 -0.000130 0.0
0.069180 -0.000102 0.0
0.069361 -0.000079 0.0
0.069502 -0.000061 0.0
0.069609 -0.000046 0.0
0.069689 -0.000034 0.0
0.069749 -0.000025 0.0
0.069793 -0.000019 0.0
0.069826 -0.000014 0.0
0.069852 -0.000012 0.0
0.069874 -0.000010 0.0
0.069894 -0.000010 0.0
0.069914 -0.000011 0.0
0.069936 -0.000012 0.0
0.069962 -0.000014 0.0
0.069992 -0.000016 0.0
0.070028 -0.000019 0.0
0.070068 -0.000022 0.0
0.070114 -0.000024 0.0
0.070166 -0.000027 0.0
0.070222 -0.000030 0.0
0.070283 -0.000032 0.0
0.070348 -0.000033 0.0
0.070415 -0.000034 0.0
0.070483 -0.000034 0.0
0.070551 -0.000033 0.0
0.070615 -0.000031 0.0
0.070673 -0.000027 0.0
0.070721 -0.000021 0.0
0.070756 -0.000014 0.0
0.070776 -0.000006 0.0
0.070781 0.000000 0.0
0.500000 0.000000 0.0
0.000000 0.000000 0.0
0.000000 0.000000 0.0
0.000000 0.000000 0.0
0.000000 0.000000 0.0
0.000000 0.000000 0.0
0.000000 0.000000 0.0
0.000000 0.000000 0.0
0.000000 0.000000 0.0
0.000000 -0.000182 0.0
-0.001949 0.002327 0.0
-0.008563 0.007802 0.0
-0.019277 0.010835 0.0
-0.031845 0.011901 0.0
-0.044901 0.012019 0.0
-0.057845 0.011857 0.0
-0.070519 0.011718 0.0
-0.082956 0.011695 0.0
-0.095230 0.011779 0.0
-0.107384 0.011916 0.0
-0.119385 0.012020 0.0
-0.131097 0.011972 0.0
-0.142264 0.011640 0.0
-0.152513 0.010891 0.0
-0.161388 0.009643 0.0
-0.168411 0.007887 0.0
-0.173165 0.005695 0.0
-0.175333 0.003158 0.0
-0.174716 0.000400 0.0
-0.171242 -0.002413 0.0
-0.165020 -0.005118 0.0
-0.156345 -0.007615 0.0
-0.145575 -0.009811 0.0
-0.133061 -0.011685 0.0
-0.119105 -0.013283 0.0
-0.103966 -0.014612 0.0
-0.087918 -0.015600 0.0
-0.071262 -0.016231 0.0
-0.054283 -0.016557 0.0
-0.037157 -0.016804 0.0
-0.020039 -0.016765 0.0
-0.003107 -0.016486 0.0
0.013391 -0.016001 0.0
0.029217 -0.015360 0.0
0.044304 -0.014603 0.0
0.058622 -0.013759 0.0
0.072138 -0.012877 0.0
0.084817 -0.011978 0.0
0.096642 -0.011077 0.0
0.107610 -0.010184 0.0
0.117729 -0.009310 0.0
0.127016 -0.008463 0.0
0.135496 -0.007652 0.0
0.143198 -0.006881 0.0
0.150160 -0.006154 0.0
0.156420 -0.005475 0.0
0.162021 -0.004844 0.0
0.167006 -0.004263 0.0
0.171420 -0.003731 0.0
0.175310 -0.003248 0.0
0.178718 -0.002810 0.0
0.181688 -0.002417 0.0
0.184263 -0.002067 0.0
0.186482 -0.001756 0.0
0.188383 -0.001481 0.0
0.190003 -0.001241 0.0
0.191374 -0.001033 0.0
0.192528 -0.000853 0.0
0.193492 -0.000698 0.0
0.194293 -0.000567 0.0
0.194953 -0.000457 0.0
0.195495 -0.000366 0.0
0.195938 -0.000290 0.0
0.196297 -0.000230 0.0
0.196589 -0.000181 0.0
0.196826 -0.000144 0.0
0.197019 -0.000116 0.0
0.197180 -0.000096 0.0
0.197316 -0.000083 0.0
0.197434 -0.000075 0.0
0.197541 -0.000073 0.0
0.197643 -0.000074 0.0
0.197742 -0.000078 0.0
0.197843 -0.000084 0.0
0.197949 -0.000092 0.0
0.198061 -0.000101 0.0
0.198180 -0.000110 0.0
0.198307 -0.000120 0.0
0.198443 -0.000129 0.0
0.198587 -0.000137 0.0
0.198737 -0.000143 0.0
0.198893 -0.000147 0.0
0.199050 -0.000147 0.0
0.199206 -0.000143 0.0
0.199355 -0.000134 0.0
0.199493 -0.000119 0.0
0.199611 -0.000096 0.0
0.199703 -0.000066 0.0
0.199759 -0.000030 0.0
0.199778 0.000000 0.0
0.500000 0.000000 0.0
0.000000 0.000000 0.0
0.000000 0.000000 0.0
0.000000 0.000000 0.0
0.000000 0.000000 0.0
0.000000 0.000000 0.0
0.000000 0.000000 0.0
0.000000 0.000000 0.0
0.000000 0.000000 0.0
0.000000 0.000026 0.0
-0.003665 0.007941 0.0
-0.014600 0.019737 0.0
-0.030472 0.025485 0.0
-0.047852 0.027199 0.0
-0.065108 0.027033 0.0
-0.081614 0.026292 0.0
-0.097220 0.025563 0.0
-0.111957 0.025024 0.0
-0.125884 0.024651 0.0
-0.139010 0.024324 0.0
-0.151261 0.023864 0.0
-0.162451 0.023031 0.0
-0.172269 0.021565 0.0
-0.180270 0.019216 0.0
-0.185919 0.015841 0.0
-0.188672 0.011465 0.0
-0.188107 0.006305 0.0
-0.183950 0.000560 0.0
-0.176333 -0.005237 0.0
-0.165725 -0.010859 0.0
-0.152589 -0.016031 0.0
-0.137335 -0.020631 0.0
-0.120350 -0.024550 0.0
-0.102011 -0.027799 0.0
-0.082634 -0.030501 0.0
-0.062472 -0.032695 0.0
-0.041767 -0.034270 0.0
-0.020738 -0.035247 0.0
0.000473 -0.035731 0.0
0.021488 -0.035770 0.0
0.041962 -0.035391 0.0
0.061840 -0.034670 0.0
0.081076 -0.033552 0.0
0.099626 -0.032183 0.0
0.117403 -0.030644 0.0
0.134346 -0.028979 0.0
0.150409 -0.027236 0.0
0.165562 -0.025451 0.0
0.179785 -0.023652 0.0
0.193074 -0.021864 0.0
0.205433 -0.020107 0.0
0.216876 -0.018396 0.0
0.227425 -0.016747 0.0
0.237108 -0.015171 0.0
0.245957 -0.013675 0.0
0.254010 -0.012267 0.0
0.261306 -0.010949 0.0
0.267887 -0.009725 0.0
0.273798 -0.008595 0.0
0.279082 -0.007558 0.0
0.283786 -0.006612 0.0
0.287954 -0.005754 0.0
0.291629 -0.004980 0.0
0.294856 -0.004287 0.0
0.297674 -0.003670 0.0
0.300124 -0.003123 0.0
0.302244 -0.002642 0.0
0.304069 -0.002222 0.0
0.305633 -0.001857 0.0
0.306966 -0.001543 0.0
0.308098 -0.001274 0.0
0.309055 -0.001047 0.0
0.309860 -0.000857 0.0
0.310536 -0.000699 0.0
0.311103 -0.000570 0.0
0.311578 -0.000467 0.0
0.311978 -0.000386 0.0
0.312315 -0.000324 0.0
0.312604 -0.000279 0.0
0.312853 -0.000248 0.0
0.313074 -0.000228 0.0
0.313273 -0.000218 0.0
0.313457 -0.000217 0.0
0.313633 -0.000222 0.0
0.313805 -0.000232 0.0
0.313977 -0.000245 0.0
0.314152 -0.000260 0.0
0.314331 -0.000277 0.0
0.314517 -0.000293 0.0
0.314708 -0.000308 0.0
0.314906 -0.000320 0.0
0.315109 -0.000327 0.0
0.315314 -0.000329 0.0
0.315517 -0.000321 0.0
0.315715 -0.000303 0.0
0.315899 -0.000272 0.0
0.316063 -0.000225 0.0
0.316194 -0.000160 0.0
0.316280 -0.000079 0.0
0.316309 0.000000 0.0
0.500000 0.000000 0.0
0.000000 0.000000 0.0
0.000000 0.000000 0.0
0.000000 0.000000 0.0
0.000000 0.000000 0.0
0.000000 0.000000 0.0
0.000000 0.000000 0.0
0.000000 0.000000 0.0
0.000000 0.000000 0.0
0.000000 0.000445 0.0
-0.004933 0.016539 0.0
-0.018777 0.035918 0.0
-0.037449 0.043848 0.0
-0.056546 0.045314 0.0
-0.074383 0.044012 0.0
-0.090488 0.041925 0.0
-0.104844 0.039892 0.0
-0.117551 0.038139 0.0
-0.128682 0.036595 0.0
-0.138238 0.035062 0.0
-0.146138 0.033276 0.0
-0.152196 0.030867 0.0
-0.156107 0.027457 0.0
-0.157426 0.022645 0.0
-0.155576 0.016211 0.0
-0.149978 0.008250 0.0
-0.140277 -0.000745 0.0
-0.127161 -0.009662 0.0
-0.111733 -0.018061 0.0
-0.094446 -0.025929 0.0
-0.075625 -0.032918 0.0
-0.055586 -0.039037 0.0
-0.034574 -0.044142 0.0
-0.012805 -0.048317 0.0
0.009460 -0.051626 0.0
0.031817 -0.054090 0.0
0.054000 -0.055763 0.0
0.075924 -0.056705 0.0
0.097458 -0.057018 0.0
0.118528 -0.056569 0.0
0.139071 -0.055610 0.0
0.158961 -0.054218 0.0
0.178133 -0.052414 0.0
0.196555 -0.050293 0.0
0.214182 -0.047939 0.0
0.230973 -0.045417 0.0
0.246898 -0.042786 0.0
0.261940 -0.040094 0.0
0.276087 -0.037380 0.0
0.289343 -0.034680 0.0
0.301714 -0.032021 0.0
0.313218 -0.029429 0.0
0.323876 -0.026922 0.0
0.333714 -0.024517 0.0
0.342762 -0.022227 0.0
0.351054 -0.020060 0.0
0.358625 -0.018023 0.0
0.365512 -0.016120 0.0
0.371754 -0.014353 0.0
0.377389 -0.012721 0.0
0.382458 -0.011222 0.0
0.387000 -0.009853 0.0
0.391053 -0.008610 0.0
0.394656 -0.007487 0.0
0.397846 -0.006478 0.0
0.400658 -0.005577 0.0
0.403127 -0.004777 0.0
0.405286 -0.004071 0.0
0.407166 -0.003452 0.0
0.408797 -0.002912 0.0
0.410206 -0.002445 0.0
0.411418 -0.002045 0.0
0.412458 -0.001704 0.0
0.413348 -0.001417 0.0
0.414107 -0.001178 0.0
0.414754 -0.000982 0.0
0.415306 -0.000823 0.0
0.415778 -0.000697 0.0
0.416183 -0.000599 0.0
0.416533 -0.000527 0.0
0.416839 -0.000475 0.0
0.417110 -0.000442 0.0
0.417354 -0.000423 0.0
0.417579 -0.000417 0.0
0.417791 -0.000420 0.0
0.417994 -0.000431 0.0
0.418192 -0.000447 0.0
0.418389 -0.000467 0.0
0.418588 -0.000487 0.0
0.418789 -0.000507 0.0
0.418994 -0.000524 0.0
0.419202 -0.000534 0.0
0.419412 -0.000537 0.0
0.419622 -0.000527 0.0
0.419828 -0.000501 0.0
0.420023 -0.000455 0.0
0.420200 -0.000383 0.0
0.420347 -0.000280 0.0
0.420447 -0.000145 0.0
0.420483 0.000001 0.0
0.500000 0.000000 0.0
0.000000 0.000000 0.0
0.000000 0.000000 0.0
0.000000 0.000000 0.0
0.000000 0.000000 0.0
0.000000 0.000000 0.0
0.000000 0.000000 0.0
0.000000 0.000000 0.0
0.000000 0.000000 0.0
0.000000 0.001035 0.0
-0.005750 0.027222 0.0
-0.020899 0.054227 0.0
-0.039632 0.062943 0.0
-0.057053 0.062736 0.0
-0.071789 0.059161 0.0
-0.083736 0.054827 0.0
-0.093111 0.050721 0.0
-0.100140 0.047046 0.0
-0.104932 0.043611 0.0
-0.107450 0.040120 0.0
-0.107595 0.036262 0.0
-0.105152 0.031497 0.0
-0.099779 0.025365 0.0
-0.091048 0.017326 0.0
-0.078288 0.006920 0.0
-0.061490 -0.004855 0.0
-0.042231 -0.016599 0.0
-0.021762 -0.027394 0.0
-0.000234 -0.037285 0.0
0.021938 -0.046163 0.0
0.044356 -0.053922 0.0
0.066900 -0.060617 0.0
0.089460 -0.066134 0.0
0.111930 -0.070564 0.0
0.134177 -0.073891 0.0
0.156121 -0.076125 0.0
0.177663 -0.077453 0.0
0.198678 -0.077953 0.0
0.219070 -0.077696 0.0
0.238802 -0.076692 0.0
0.257850 -0.075078 0.0
0.276164 -0.072954 0.0
0.293709 -0.070395 0.0
0.310464 -0.067489 0.0
0.326412 -0.064317 0.0
0.341538 -0.060956 0.0
0.355834 -0.057470 0.0
0.369298 -0.053916 0.0
0.381935 -0.050343 0.0
0.393756 -0.046793 0.0
0.404777 -0.043301 0.0
0.415019 -0.039895 0.0
0.424506 -0.036601 0.0
0.433268 -0.033438 0.0
0.441334 -0.030420 0.0
0.448737 -0.027560 0.0
0.455509 -0.024865 0.0
0.461685 -0.022341 0.0
0.467300 -0.019988 0.0
0.472387 -0.017808 0.0
0.476981 -0.015798 0.0
0.481116 -0.013954 0.0
0.484824 -0.012271 0.0
0.488139 -0.010743 0.0
0.491091 -0.009363 0.0
0.493710 -0.008123 0.0
0.496024 -0.007015 0.0
0.498062 -0.006030 0.0
0.499850 -0.005160 0.0
0.501411 -0.004396 0.0
0.502770 -0.003729 0.0
0.503948 -0.003151 0.0
0.504964 -0.002655 0.0
0.505839 -0.002231 0.0
0.506589 -0.001874 0.0
0.507230 -0.001575 0.0
0.507777 -0.001329 0.0
0.508244 -0.001129 0.0
0.508642 -0.000970 0.0
0.508982 -0.000847 0.0
0.509275 -0.000754 0.0
0.509530 -0.000688 0.0
0.509753 -0.000644 0.0
0.509952 -0.000620 0.0
0.510134 -0.000610 0.0
0.510302 -0.000613 0.0
0.510462 -0.000624 0.0
0.510618 -0.000642 0.0
0.510772 -0.000664 0.0
0.510927 -0.000686 0.0
0.511084 -0.000706 0.0
0.511244 -0.000720 0.0
0.511407 -0.000724 0.0
0.511573 -0.000715 0.0
0.511739 -0.000685 0.0
0.511901 -0.000628 0.0
0.512053 -0.000537 0.0
0.512183 -0.000402 0.0
0.512277 -0.000216 0.0
0.512312 0.000001 0.0
0.500000 0.000000 0.0
0.000000 0.000000 0.0
0.000000 0.000000 0.0
0.000000 0.000000 0.0
0.000000 0.000000 0.0
0.000000 0.000000 0.0
0.000000 0.000000 0.0
0.000000 0.000000 0.0
0.000000 0.000000 0.0
0.000000 0.001809 0.0
-0.006365 0.039338 0.0
-0.021342 0.072237 0.0
-0.036976 0.079300 0.0
-0.048818 0.075643 0.0
-0.056496 0.068668 0.0
-0.060543 0.061314 0.0
-0.061451 0.054518 0.0
-0.059559 0.048387 0.0
-0.054995 0.042498 0.0
-0.047604 0.036361 0.0
-0.037171 0.029732 0.0
-0.023381 0.021794 0.0
-0.005433 0.011746 0.0
0.016969 -0.000186 0.0
0.041934 -0.013292 0.0
0.067105 -0.026612 0.0
0.091897 -0.038893 0.0
0.116454 -0.050128 0.0
0.140695 -0.060320 0.0
0.164565 -0.069171 0.0
0.188037 -0.076804 0.0
0.210997 -0.083239 0.0
0.233372 -0.088447 0.0
0.255116 -0.092464 0.0
0.276190 -0.095312 0.0
0.296584 -0.097042 0.0
0.316278 -0.097772 0.0
0.335229 -0.097601 0.0
0.353403 -0.096615 0.0
0.370787 -0.094888 0.0
0.387381 -0.092523 0.0
0.403177 -0.089620 0.0
0.418174 -0.086271 0.0
0.432373 -0.082567 0.0
0.445779 -0.078593 0.0
0.458399 -0.074427 0.0
0.470243 -0.070139 0.0
0.481324 -0.065792 0.0
0.491660 -0.061440 0.0
0.501269 -0.057128 0.0
0.510177 -0.052895 0.0
0.518410 -0.048775 0.0
0.525995 -0.044794 0.0
0.532962 -0.040974 0.0
0.539344 -0.037331 0.0
0.545170 -0.033878 0.0
0.550475 -0.030624 0.0
0.555289 -0.027572 0.0
0.559643 -0.024726 0.0
0.563570 -0.022084 0.0
0.567100 -0.019645 0.0
0.570261 -0.017403 0.0
0.573082 -0.015352 0.0
0.575590 -0.013485 0.0
0.577811 -0.011794 0.0
0.579770 -0.010270 0.0
0.581490 -0.008903 0.0
0.582993 -0.007683 0.0
0.584300 -0.006601 0.0
0.585430 -0.005646 0.0
0.586401 -0.004809 0.0
0.587232 -0.004079 0.0
0.587936 -0.003448 0.0
0.588529 -0.002906 0.0
0.589024 -0.002444 0.0
0.589434 -0.002055 0.0
0.589770 -0.001731 0.0
0.590042 -0.001465 0.0
0.590259 -0.001250 0.0
0.590431 -0.001079 0.0
0.590566 -0.000948 0.0
0.590669 -0.000851 0.0
0.590748 -0.000783 0.0
0.590808 -0.000740 0.0
0.590854 -0.000717 0.0
0.590890 -0.000711 0.0
0.590921 -0.000717 0.0
0.590949 -0.000734 0.0
0.590978 -0.000756 0.0
0.591010 -0.000781 0.0
0.591047 -0.000805 0.0
0.591090 -0.000825 0.0
0.591142 -0.000835 0.0
0.591201 -0.000830 0.0
0.591269 -0.000803 0.0
0.591344 -0.000747 0.0
0.591423 -0.000649 0.0
0.591498 -0.000497 0.0
0.591558 -0.000275 0.0
0.591581 0.000002 0.0
0.500000 0.000000 0.0
0.000000 0.000000 0.0
0.000000 0.000000 0.0
0.000000 0.000000 0.0
0.000000 0.000000 0.0
0.000000 0.000000 0.0
0.000000 0.000000 0.0
0.000000 0.000000 0.0
0.000000 0.000000 0.0
0.000000 0.002948 0.0
-0.007061 0.052764 0.0
-0.020035 0.086760 0.0
-0.027949 0.088326 0.0
-0.028873 0.079383 0.0
-0.024589 0.068322 0.0
-0.016496 0.057615 0.0
-0.005108 0.047737 0.0
0.009360 0.038808 0.0
0.026778 0.030094 0.0
0.047436 0.020715 0.0
0.072130 0.010250 0.0
0.100864 -0.001248 0.0
0.131720 -0.014017 0.0
0.162382 -0.027488 0.0
0.191949 -0.040522 0.0
0.220366 -0.052970 0.0
0.247581 -0.064540 0.0
0.273622 -0.075080 0.0
0.298507 -0.084494 0.0
0.322281 -0.092641 0.0
0.345002 -0.099525 0.0
0.366686 -0.105162 0.0
0.387346 -0.109560 0.0
0.407004 -0.112752 0.0
0.425686 -0.114780 0.0
0.443427 -0.115708 0.0
0.460255 -0.115627 0.0
0.476191 -0.114632 0.0
0.491251 -0.112818 0.0
0.505457 -0.110276 0.0
0.518835 -0.107105 0.0
0.531406 -0.103405 0.0
0.543194 -0.099270 0.0
0.554221 -0.094794 0.0
0.564510 -0.090061 0.0
0.574085 -0.085153 0.0
0.582970 -0.080141 0.0
0.591187 -0.075090 0.0
0.598765 -0.070055 0.0
0.605728 -0.065086 0.0
0.612107 -0.060223 0.0
0.617928 -0.055501 0.0
0.623223 -0.050948 0.0
0.628022 -0.046586 0.0
0.632354 -0.042433 0.0
0.636251 -0.038500 0.0
0.639740 -0.034796 0.0
0.642852 -0.031326 0.0
0.645615 -0.028090 0.0
0.648056 -0.025088 0.0
0.650200 -0.022315 0.0
0.652073 -0.019766 0.0
0.653699 -0.017435 0.0
0.655100 -0.015311 0.0
0.656296 -0.013386 0.0
0.657309 -0.011649 0.0
0.658156 -0.010090 0.0
0.658854 -0.008697 0.0
0.659420 -0.007460 0.0
0.659867 -0.006366 0.0
0.660211 -0.005405 0.0
0.660463 -0.004565 0.0
0.660635 -0.003837 0.0
0.660737 -0.003211 0.0
0.660778 -0.002676 0.0
0.660768 -0.002223 0.0
0.660714 -0.001845 0.0
0.660623 -0.001533 0.0
0.660502 -0.001279 0.0
0.660357 -0.001077 0.0
0.660192 -0.000921 0.0
0.660014 -0.000804 0.0
0.659825 -0.000721 0.0
0.659630 -0.000667 0.0
0.659433 -0.000638 0.0
0.659236 -0.000629 0.0
0.659042 -0.000636 0.0
0.658853 -0.000655 0.0
0.658672 -0.000683 0.0
0.658501 -0.000715 0.0
0.658342 -0.000749 0.0
0.658197 -0.000779 0.0
0.658067 -0.000802 0.0
0.657957 -0.000811 0.0
0.657866 -0.000799 0.0
0.657797 -0.000757 0.0
0.657751 -0.000672 0.0
0.657729 -0.000526 0.0
0.657724 -0.000300 0.0
0.657726 0.000002 0.0
0.500000 0.000000 0.0
0.000000 0.000000 0.0
0.000000 0.000000 0.0
0.000000 0.000000 0.0
0.000000 0.000000 0.0
0.000000 0.000000 0.0
0.000000 0.000000 0.0
0.000000 0.000000 0.0
0.000000 0.000000 0.0
0.000000 0.004996 0.0
-0.007061 0.066887 0.0
-0.012972 0.091521 0.0
-0.004129 0.082636 0.0
0.014416 0.067452 0.0
0.037471 0.052915 0.0
0.063013 0.039387 0.0
0.090972 0.026617 0.0
0.122033 0.014400 0.0
0.156532 0.002585 0.0
0.193305 -0.009207 0.0
0.230274 -0.021489 0.0
0.265967 -0.033935 0.0
0.299997 -0.046216 0.0
0.332257 -0.058212 0.0
0.362648 -0.069756 0.0
0.391144 -0.080650 0.0
0.417783 -0.090713 0.0
0.442639 -0.099805 0.0
0.465803 -0.107819 0.0
0.487378 -0.114666 0.0
0.507474 -0.120316 0.0
0.526182 -0.124764 0.0
0.543588 -0.128024 0.0
0.559771 -0.130128 0.0
0.574807 -0.131123 0.0
0.588772 -0.131071 0.0
0.601732 -0.130053 0.0
0.613747 -0.128158 0.0
0.624871 -0.125478 0.0
0.635154 -0.122107 0.0
0.644645 -0.118143 0.0
0.653388 -0.113681 0.0
0.661423 -0.108817 0.0
0.668789 -0.103641 0.0
0.675522 -0.098238 0.0
0.681658 -0.092687 0.0
0.687227 -0.087061 0.0
0.692262 -0.081423 0.0
0.696794 -0.075830 0.0
0.700852 -0.070332 0.0
0.704466 -0.064969 0.0
0.707665 -0.059776 0.0
0.710477 -0.054781 0.0
0.712931 -0.050006 0.0
0.715053 -0.045468 0.0
0.716869 -0.041178 0.0
0.718406 -0.037144 0.0
0.719686 -0.033370 0.0
0.720733 -0.029855 0.0
0.721569 -0.026599 0.0
0.722215 -0.023594 0.0
0.722689 -0.020835 0.0
0.723011 -0.018313 0.0
0.723197 -0.016019 0.0
0.723262 -0.013941 0.0
0.723223 -0.012067 0.0
0.723091 -0.010387 0.0
0.722879 -0.008887 0.0
0.722599 -0.007555 0.0
0.722260 -0.006379 0.0
0.721872 -0.005347 0.0
0.721443 -0.004446 0.0
0.720980 -0.003666 0.0
0.720490 -0.002995 0.0
0.719979 -0.002422 0.0
0.719451 -0.001939 0.0
0.718913 -0.001536 0.0
0.718367 -0.001205 0.0
0.717817 -0.000936 0.0
0.717268 -0.000725 0.0
0.716722 -0.000562 0.0
0.716181 -0.000443 0.0
0.715648 -0.000361 0.0
0.715125 -0.000310 0.0
0.714613 -0.000286 0.0
0.714114 -0.000285 0.0
0.713630 -0.000301 0.0
0.713161 -0.000332 0.0
0.712710 -0.000373 0.0
0.712279 -0.000422 0.0
0.711868 -0.000473 0.0
0.711482 -0.000523 0.0
0.711122 -0.000569 0.0
0.710791 -0.000603 0.0
0.710496 -0.000621 0.0
0.710239 -0.000611 0.0
0.710030 -0.000563 0.0
0.709874 -0.000457 0.0
0.709780 -0.000271 0.0
0.709749 0.000003 0.0
0.500000 -0.076757 0.0
0.000000 -0.050923 0.0
0.000000 -0.034683 0.0
0.000000 -0.022200 0.0
0.000000 -0.011508 0.0
0.000000 -0.001834 0.0
0.000000 0.007243 0.0
0.000000 0.016115 0.0
0.000000 0.025415 0.0
0.000000 0.005339 0.0
0.001482 0.072466 0.0
0.022400 0.070936 0.0
0.065370 0.051408 0.0
0.112761 0.032743 0.0
0.161250 0.016079 0.0
0.210419 0.001511 0.0
0.258611 -0.011659 0.0
0.304360 -0.024134 0.0
0.346917 -0.035937 0.0
0.386496 -0.047037 0.0
0.423518 -0.057649 0.0
0.458107 -0.068059 0.0
0.490246 -0.078261 0.0
0.519957 -0.088138 0.0
0.547301 -0.097566 0.0
0.572362 -0.106397 0.0
0.595248 -0.114490 0.0
0.616085 -0.121721 0.0
0.635007 -0.127989 0.0
0.652154 -0.133219 0.0
0.667667 -0.137370 0.0
0.681676 -0.140427 0.0
0.694304 -0.142396 0.0
0.705666 -0.143302 0.0
0.715869 -0.143188 0.0
0.725011 -0.142112 0.0
0.733186 -0.140145 0.0
0.740474 -0.137368 0.0
0.746951 -0.133868 0.0
0.752686 -0.129735 0.0
0.757740 -0.125060 0.0
0.762172 -0.119938 0.0
0.766034 -0.114457 0.0
0.769374 -0.108706 0.0
0.772234 -0.102767 0.0
0.774657 -0.096716 0.0
0.776678 -0.090623 0.0
0.778333 -0.084551 0.0
0.779652 -0.078554 0.0
0.780667 -0.072681 0.0
0.781405 -0.066972 0.0
0.781892 -0.061459 0.0
0.782153 -0.056171 0.0
0.782211 -0.051128 0.0
0.782089 -0.046345 0.0
0.781806 -0.041834 0.0
0.781381 -0.037600 0.0
0.780831 -0.033645 0.0
0.780173 -0.029970 0.0
0.779422 -0.026569 0.0
0.778591 -0.023438 0.0
0.777693 -0.020568 0.0
0.776740 -0.017949 0.0
0.775742 -0.015571 0.0
0.774708 -0.013421 0.0
0.773646 -0.011486 0.0
0.772566 -0.009755 0.0
0.771473 -0.008214 0.0
0.770372 -0.006848 0.0
0.769271 -0.005646 0.0
0.768172 -0.004593 0.0
0.767080 -0.003678 0.0
0.765997 -0.002888 0.0
0.764927 -0.002212 0.0
0.763871 -0.001638 0.0
0.762831 -0.001157 0.0
0.761810 -0.000759 0.0
0.760809 -0.000436 0.0
0.759832 -0.000179 0.0
0.758879 0.000020 0.0
0.757949 0.000169 0.0
0.757042 0.000274 0.0
0.756158 0.000340 0.0
0.755297 0.000373 0.0
0.754461 0.000379 0.0
0.753649 0.000361 0.0
0.752862 0.000324 0.0
0.752102 0.000271 0.0
0.751368 0.000207 0.0
0.750664 0.000134 0.0
0.749991 0.000055 0.0
0.749351 -0.000025 0.0
0.748749 -0.000104 0.0
0.748188 -0.000177 0.0
0.747676 -0.000239 0.0
0.747222 -0.000282 0.0
0.746837 -0.000297 0.0
0.746537 -0.000267 0.0
0.746343 -0.000172 0.0
0.746275 0.000003 0.0
0.028265 -0.076757 0.0
-0.902029 -0.050923 0.0
-0.819281 -0.034683 0.0
-0.741195 -0.022200 0.0
-0.673617 -0.011508 0.0
-0.618417 -0.001834 0.0
-0.576231 0.007243 0.0
-0.548212 0.016115 0.0
-0.539276 0.025415 0.0
-0.270286 -0.001286 0.0
0.063226 0.011209 0.0
0.177157 0.000796 0.0
0.267810 -0.012074 0.0
0.340854 -0.024209 0.0
0.401531 -0.036134 0.0
0.452955 -0.046867 0.0
0.498001 -0.056518 0.0
0.538373 -0.065395 0.0
0.574983 -0.073844 0.0
0.608328 -0.082056 0.0
0.638750 -0.090074 0.0
0.666487 -0.097960 0.0
0.691682 -0.105693 0.0
0.714448 -0.113183 0.0
0.734897 -0.120314 0.0
0.753146 -0.126959 0.0
0.769321 -0.132990 0.0
0.783556 -0.138293 0.0
0.795990 -0.142773 0.0
0.806766 -0.146358 0.0
0.816024 -0.149001 0.0
0.823898 -0.150679 0.0
0.830517 -0.151391 0.0
0.836002 -0.151154 0.0
0.840467 -0.150003 0.0
0.844016 -0.147989 0.0
0.846748 -0.145174 0.0
0.848751 -0.141631 0.0
0.850107 -0.137439 0.0
0.850892 -0.132683 0.0
0.851173 -0.127448 0.0
0.851014 -0.121822 0.0
0.850470 -0.115891 0.0
0.849595 -0.109736 0.0
0.848433 -0.103436 0.0
0.847027 -0.097063 0.0
0.845415 -0.090685 0.0
0.843632 -0.084359 0.0
0.841707 -0.078140 0.0
0.839668 -0.072071 0.0
0.837539 -0.066191 0.0
0.835342 -0.060530 0.0
0.833096 -0.055115 0.0
0.830817 -0.049964 0.0
0.828521 -0.045091 0.0
0.826221 -0.040504 0.0
0.823926 -0.036209 0.0
0.821648 -0.032207 0.0
0.819393 -0.028495 0.0
0.817168 -0.025068 0.0
0.814979 -0.021920 0.0
0.812831 -0.019040 0.0
0.810727 -0.016419 0.0
0.808671 -0.014045 0.0
0.806664 -0.011905 0.0
0.804708 -0.009985 0.0
0.802804 -0.008272 0.0
0.800953 -0.006752 0.0
0.799154 -0.005411 0.0
0.797407 -0.004235 0.0
0.795711 -0.003209 0.0
0.794064 -0.002323 0.0
0.792464 -0.001561 0.0
0.790910 -0.000914 0.0
0.789400 -0.000370 0.0
0.787934 0.000081 0.0
0.786510 0.000449 0.0
0.785126 0.000741 0.0
0.783780 0.000967 0.0
0.782473 0.001135 0.0
0.781204 0.001253 0.0
0.779975 0.001326 0.0
0.778786 0.001361 0.0
0.777636 0.001363 0.0
0.776526 0.001336 0.0
0.775456 0.001286 0.0
0.774424 0.001217 0.0
0.773432 0.001131 0.0
0.772480 0.001033 0.0
0.771567 0.000924 0.0
0.770697 0.000809 0.0
0.769870 0.000688 0.0
0.769090 0.000565 0.0
0.768362 0.000442 0.0
0.767692 0.000323 0.0
0.767091 0.000211 0.0
0.766573 0.000112 0.0
0.766161 0.000035 0.0
0.765887 -0.000007 0.0
0.765789 0.000003 0.0
0.971735 0.028265 0.0
0.902029 0.041441 0.0
0.819281 0.041307 0.0
0.741195 0.036780 0.0
0.673617 0.030798 0.0
0.618417 0.024401 0.0
0.576231 0.017785 0.0
0.548212 0.010233 0.0
0.539276 -0.001297 0.0
0.556738 -0.023069 0.0
0.582912 -0.058574 0.0
0.608697 -0.065685 0.0
0.642222 -0.069770 0.0
0.677173 -0.074509 0.0
0.710295 -0.079634 0.0
0.740635 -0.085131 0.0
0.768073 -0.090738 0.0
0.792864 -0.096337 0.0
0.815291 -0.101940 0.0
0.835559 -0.107573 0.0
0.853805 -0.113225 0.0
0.870127 -0.118867 0.0
0.884587 -0.124440 0.0
0.897238 -0.129852 0.0
0.908133 -0.134990 0.0
0.917339 -0.139738 0.0
0.924934 -0.143980 0.0
0.931006 -0.147610 0.0
0.935655 -0.150539 0.0
0.938986 -0.152699 0.0
0.941109 -0.154040 0.0
0.942131 -0.154537 0.0
0.942162 -0.154183 0.0
0.941305 -0.152990 0.0
0.939662 -0.150988 0.0
0.937328 -0.148219 0.0
0.934394 -0.144741 0.0
0.930945 -0.140619 0.0
0.927063 -0.135925 0.0
0.922819 -0.130738 0.0
0.918284 -0.125139 0.0
0.913519 -0.119208 0.0
0.908584 -0.113026 0.0
0.903530 -0.106670 0.0
0.898403 -0.100213 0.0
0.893246 -0.093723 0.0
0.888095 -0.087262 0.0
0.882983 -0.080886 0.0
0.877936 -0.074642 0.0
0.872979 -0.068572 0.0
0.868130 -0.062711 0.0
0.863406 -0.057088 0.0
0.858818 -0.051724 0.0
0.854376 -0.046635 0.0
0.850087 -0.041835 0.0
0.845955 -0.037328 0.0
0.841982 -0.033119 0.0
0.838169 -0.029206 0.0
0.834515 -0.025587 0.0
0.831018 -0.022254 0.0
0.827674 -0.019201 0.0
0.824479 -0.016416 0.0
0.821428 -0.013889 0.0
0.818516 -0.011607 0.0
0.815738 -0.009558 0.0
0.813088 -0.007726 0.0
0.810558 -0.006098 0.0
0.808143 -0.004659 0.0
0.805833 -0.003396 0.0
0.803623 -0.002292 0.0
0.801501 -0.001334 0.0
0.799457 -0.000508 0.0
0.797485 0.000195 0.0
0.795583 0.000786 0.0
0.793749 0.001274 0.0
0.791982 0.001670 0.0
0.790281 0.001985 0.0
0.788644 0.002226 0.0
0.787070 0.002402 0.0
0.785557 0.002521 0.0
0.784102 0.002590 0.0
0.782704 0.002615 0.0
0.781361 0.002603 0.0
0.780072 0.002559 0.0
0.778833 0.002488 0.0
0.777645 0.002394 0.0
0.776505 0.002281 0.0
0.775414 0.002152 0.0
0.774369 0.002010 0.0
0.773372 0.001857 0.0
0.772422 0.001696 0.0
0.771521 0.001528 0.0
0.770672 0.001354 0.0
0.769879 0.001175 0.0
0.769150 0.000990 0.0
0.768494 0.000801 0.0
0.767928 0.000606 0.0
0.767477 0.000406 0.0
0.767174 0.000200 0.0
0.767066 0.000003 0.0
1.012850 0.043680 0.0
1.034717 0.073865 0.0
1.046503 0.079844 0.0
1.047923 0.074910 0.0
1.043316 0.064852 0.0
1.036636 0.052227 0.0
1.030974 0.037807 0.0
1.028525 0.020679 0.0
1.028493 -0.002774 0.0
1.024710 -0.035271 0.0
1.014581 -0.062417 0.0
1.004472 -0.077518 0.0
0.999346 -0.086335 0.0
0.998988 -0.092538 0.0
1.001886 -0.097625 0.0
1.006691 -0.102285 0.0
1.012428 -0.106760 0.0
1.018466 -0.111143 0.0
1.024393 -0.115488 0.0
1.029922 -0.119822 0.0
1.034842 -0.124143 0.0
1.038993 -0.128422 0.0
1.042251 -0.132605 0.0
1.044529 -0.136615 0.0
1.045768 -0.140361 0.0
1.045940 -0.143746 0.0
1.045045 -0.146672 0.0
1.043105 -0.149050 0.0
1.040160 -0.150804 0.0
1.036268 -0.151873 0.0
1.031495 -0.152216 0.0
1.025918 -0.151807 0.0
1.019617 -0.150643 0.0
1.012678 -0.148734 0.0
1.005186 -0.146108 0.0
0.997226 -0.142805 0.0
0.988882 -0.138878 0.0
0.980237 -0.134388 0.0
0.971368 -0.129404 0.0
0.962350 -0.123998 0.0
0.953254 -0.118247 0.0
0.944142 -0.112225 0.0
0.935076 -0.106008 0.0
0.926109 -0.099666 0.0
0.917287 -0.093269 0.0
0.908653 -0.086877 0.0
0.900243 -0.080548 0.0
0.892086 -0.074331 0.0
0.884207 -0.068270 0.0
0.876623 -0.062403 0.0
0.869349 -0.056758 0.0
0.862395 -0.051362 0.0
0.855765 -0.046231 0.0
0.849460 -0.041381 0.0
0.843479 -0.036819 0.0
0.837816 -0.032549 0.0
0.832465 -0.028574 0.0
0.827417 -0.024890 0.0
0.822660 -0.021492 0.0
0.818184 -0.018374 0.0
0.813974 -0.015527 0.0
0.810019 -0.012940 0.0
0.806305 -0.010600 0.0
0.802817 -0.008497 0.0
0.799542 -0.006614 0.0
0.796462 -0.004939 0.0
0.793563 -0.003457 0.0
0.790827 -0.002149 0.0
0.788227 -0.000998 0.0
0.785745 0.000003 0.0
0.783375 0.000863 0.0
0.781121 0.001594 0.0
0.778982 0.002205 0.0
0.776954 0.002707 0.0
0.775030 0.003111 0.0
0.773205 0.003426 0.0
0.771473 0.003662 0.0
0.769829 0.003829 0.0
0.768268 0.003934 0.0
0.766785 0.003986 0.0
0.765375 0.003990 0.0
0.764034 0.003954 0.0
0.762757 0.003884 0.0
0.761542 0.003784 0.0
0.760384 0.003659 0.0
0.759281 0.003514 0.0
0.758230 0.003351 0.0
0.757228 0.003174 0.0
0.756275 0.002985 0.0
0.755368 0.002786 0.0
0.754507 0.002578 0.0
0.753693 0.002361 0.0
0.752928 0.002135 0.0
0.752215 0.001899 0.0
0.751560 0.001650 0.0
0.750972 0.001385 0.0
0.750465 0.001095 0.0
0.750061 0.000773 0.0
0.749791 0.000404 0.0
0.749695 0.000003 0.0
1.008272 0.022557 0.0
1.031045 0.050349 0.0
1.060607 0.062011 0.0
1.089250 0.062680 0.0
1.114560 0.056379 0.0
1.136406 0.045535 0.0
1.155337 0.031230 0.0
1.171564 0.013478 0.0
1.183992 -0.007967 0.0
1.190066 -0.032369 0.0
1.189173 -0.054298 0.0
1.184256 -0.070611 0.0
1.178421 -0.082281 0.0
1.173108 -0.090922 0.0
1.168669 -0.097700 0.0
1.165002 -0.103349 0.0
1.161863 -0.108295 0.0
1.159002 -0.112784 0.0
1.156190 -0.116962 0.0
1.153228 -0.120916 0.0
1.149944 -0.124684 0.0
1.146186 -0.128273 0.0
1.141830 -0.131656 0.0
1.136778 -0.134788 0.0
1.130956 -0.137605 0.0
1.124318 -0.140037 0.0
1.116845 -0.142013 0.0
1.108540 -0.143463 0.0
1.099426 -0.144332 0.0
1.089546 -0.144572 0.0
1.078957 -0.144154 0.0
1.067725 -0.143061 0.0
1.055930 -0.141294 0.0
1.043653 -0.138868 0.0
1.030983 -0.135812 0.0
1.018010 -0.132168 0.0
1.004824 -0.127985 0.0
0.991513 -0.123324 0.0
0.978164 -0.118250 0.0
0.964858 -0.112829 0.0
0.951674 -0.107134 0.0
0.938682 -0.101234 0.0
0.925946 -0.095197 0.0
0.913524 -0.089088 0.0
0.901467 -0.082968 0.0
0.889815 -0.076893 0.0
0.878605 -0.070912 0.0
0.867863 -0.065068 0.0
0.857610 -0.059400 0.0
0.847859 -0.053938 0.0
0.838618 -0.048708 0.0
0.829888 -0.043728 0.0
0.821665 -0.039013 0.0
0.813943 -0.034573 0.0
0.806709 -0.030412 0.0