# vtk DataFile Version 3.0
Scalar Field
ASCII
DATASET RECTILINEAR_GRID
DIMENSIONS 100 20 1
X_COORDINATES 100 double
0.050000 0.150000 0.250000 0.350000 0.450000 0.550000 0.650000 0.750000 0.850000 0.950000 1.050000 1.150000 1.250000 1.350000 1.450000 1.550000 1.650000 1.750000 1.850000 1.950000 2.050000 2.150000 2.250000 2.350000 2.450000 2.550000 2.650000 2.750000 2.850000 2.950000 3.050000 3.150000 3.250000 3.350000 3.450000 3.550000 3.650000 3.750000 3.850000 3.950000 4.050000 4.150000 4.250000 4.350000 4.450000 4.550000 4.650000 4.750000 4.850000 4.950000 5.050000 5.150000 5.250000 5.350000 5.450000 5.550000 5.650000 5.750000 5.850000 5.950000 6.050000 6.150000 6.250000 6.350000 6.450000 6.550000 6.650000 6.750000 6.850000 6.950000 7.050000 7.150000 7.250000 7.350000 7.450000 7.550000 7.650000 7.750000 7.850000 7.950000 8.050000 8.150000 8.250000 8.350000 8.450000 8.550000 8.650000 8.750000 8.850000 8.950000 9.050000 9.150000 9.250000 9.350000 9.450000 9.550000 9.650000 9.750000 9.850000 9.950000 
Y_COORDINATES 20 double
0.050000 0.150000 0.250000 0.350000 0.450000 0.550000 0.650000 0.750000 0.850000 0.950000 1.050000 1.150000 1.250000 1.350000 1.450000 1.550000 1.650000 1.750000 1.850000 1.950000 
Z_COORDINATES 1 double
0.0
POINT_DATA 2000
SCALARS Skalarfeld double 1
LOOKUP_TABLE default
0.000000
0.000000
0.000000
0.000000
0.000000
0.000000
0.000000
0.000000
0.000000
-0.143864
-0.143864
-0.144423
-0.144881
-0.145037
-0.144860
-0.144360
-0.143538
-0.142371
-0.140823
-0.138837
-0.136343
-0.133256
-0.129484
-0.124929
-0.119506
-0.113155
-0.105853
-0.097620
-0.088521
-0.078668
-0.068240
-0.057440
-0.046454
-0.035463
-0.024634
-0.014123
-0.004075
0.005396
0.014214
0.022339
0.029704
0.036284
0.042115
0.047177
0.051491
0.055108
0.058057
0.060398
0.062188
0.063486
0.064346
0.064823
0.064965
0.064819
0.064428
0.063830
0.063060
0.062148
0.061122
0.060004
0.058815
0.057572
0.056289
0.054979
0.053652
0.052314
0.050974
0.049635
0.048301
0.046975
0.045660
0.044355
0.043061
0.041780
0.040509
0.039250
0.038000
0.036759
0.035526
0.034299
0.033078
0.031862
0.030648
0.029436
0.028226
0.027014
0.025802
0.024588
0.023371
0.022150
0.020925
0.019695
0.018461
0.017221
0.015976
0.014727
0.013473
0.012216
0.010957
0.009699
0.000000
0.000000
0.000000
0.000000
0.000000
0.000000
0.000000
0.000000
0.000000
-0.143307
-0.143307
-0.143909
-0.144262
-0.144340
-0.144136
-0.143643
-0.142839
-0.141696
-0.140173
-0.138221
-0.135776
-0.132761
-0.129089
-0.124662
-0.119391
-0.113206
-0.106075
-0.098008
-0.089055
-0.079355
-0.069063
-0.058358
-0.047448
-0.036521
-0.025742
-0.015262
-0.005231
0.004228
0.013035
0.021184
0.028570
0.035150
0.041051
0.046174
0.050540
0.054201
0.057200
0.059594
0.061438
0.062788
0.063701
0.064229
0.064420
0.064322
0.063976
0.063422
0.062692
0.061818
0.060827
0.059742
0.058584
0.057368
0.056111
0.054824
0.053517
0.052198
0.050874
0.049550
0.048229
0.046915
0.045609
0.044312
0.043026
0.041751
0.040486
0.039230
0.037984
0.036746
0.035515
0.034290
0.033070
0.031855
0.030641
0.029430
0.028219
0.027008
0.025796
0.024581
0.023363
0.022142
0.020917
0.019687
0.018452
0.017212
0.015968
0.014718
0.013465
0.012210
0.010952
0.009697
0.000000
0.000000
0.000000
0.000000
0.000000
0.000000
0.000000
0.000000
0.000000
-0.142968
-0.142968
-0.143773
-0.144135
-0.144190
-0.143981
-0.143503
-0.142732
-0.141637
-0.140180
-0.138317
-0.135995
-0.133142
-0.129667
-0.125459
-0.120403
-0.114404
-0.107424
-0.099465
-0.090558
-0.080828
-0.070481
-0.059719
-0.048760
-0.037800
-0.026983
-0.016448
-0.006372
0.003108
0.011884
0.020147
0.027592
0.034248
0.040151
0.045291
0.049684
0.053373
0.056404
0.058831
0.060709
0.062095
0.063044
0.063607
0.063835
0.063773
0.063463
0.062944
0.062250
0.061410
0.060453
0.059400
0.058272
0.057086
0.055857
0.054596
0.053314
0.052018
0.050715
0.049410
0.048107
0.046809
0.045517
0.044234
0.042960
0.041694
0.040438
0.039191
0.037952
0.036720
0.035494
0.034274
0.033058
0.031845
0.030634
0.029425
0.028216
0.027006
0.025794
0.024580
0.023362
0.022141
0.020915
0.019684
0.018448
0.017207
0.015960
0.014709
0.013453
0.012195
0.010935
0.009680
0.000000
0.000000
0.000000
0.000000
0.000000
0.000000
0.000000
0.000000
0.000000
-0.143433
-0.143433
-0.144409
-0.144795
-0.144834
-0.144611
-0.144130
-0.143374
-0.142316
-0.140927
-0.139174
-0.137012
-0.134371
-0.131154
-0.127213
-0.122390
-0.116537
-0.109654
-0.101537
-0.092490
-0.082615
-0.072143
-0.061267
-0.050230
-0.039245
-0.028379
-0.017742
-0.007624
0.001909
0.010788
0.019010
0.026466
0.033142
0.039048
0.044192
0.048596
0.052301
0.055352
0.057803
0.059709
0.061127
0.062110
0.062710
0.062978
0.062958
0.062691
0.062216
0.061567
0.060773
0.059860
0.058852
0.057768
0.056625
0.055437
0.054215
0.052970
0.051709
0.050440
0.049166
0.047892
0.046620
0.045353
0.044092
0.042838
0.041592
0.040352
0.039119
0.037893
0.036673
0.035457
0.034245
0.033037
0.031831
0.030626
0.029421
0.028215
0.027008
0.025798
0.024585
0.023368
0.022147
0.020920
0.019687
0.018449
0.017204
0.015953
0.014695
0.013432
0.012164
0.010895
0.009631
0.000000
0.000000
0.000000
0.000000
0.000000
0.000000
0.000000
0.000000
0.000000
-0.145162
-0.145162
-0.146173
-0.146466
-0.146386
-0.146052
-0.145485
-0.144674
-0.143602
-0.142243
-0.140568
-0.138549
-0.136103
-0.133132
-0.129421
-0.124761
-0.118875
-0.111560
-0.103293
-0.094196
-0.084135
-0.073576
-0.062685
-0.051610
-0.040546
-0.029641
-0.019045
-0.008937
0.000585
0.009451
0.017621
0.025037
0.031680
0.037554
0.042673
0.047064
0.050765
0.053824
0.056292
0.058225
0.059677
0.060701
0.061349
0.061670
0.061707
0.061501
0.061091
0.060507
0.059780
0.058934
0.057993
0.056975
0.055896
0.054770
0.053609
0.052422
0.051216
0.049998
0.048773
0.047544
0.046315
0.045087
0.043862
0.042640
0.041423
0.040210
0.039001
0.037797
0.036595
0.035396
0.034200
0.033004
0.031809
0.030613
0.029416
0.028217
0.027015
0.025809
0.024599
0.023383
0.022162
0.020934
0.019699
0.018456
0.017205
0.015945
0.014676
0.013398
0.012112
0.010821
0.009532
0.000000
0.000000
0.000000
0.000000
0.000000
0.000000
0.000000
0.000000
0.000000
-0.148537
-0.148537
-0.149295
-0.149162
-0.148683
-0.148031
-0.147231
-0.146266
-0.145112
-0.143722
-0.142052
-0.140115
-0.137760
-0.134956
-0.131290
-0.126244
-0.120019
-0.112678
-0.104312
-0.095062
-0.085024
-0.074465
-0.063581
-0.052550
-0.041549
-0.030738
-0.020268
-0.010281
-0.000878
0.007871
0.015916
0.023219
0.029764
0.035555
0.040609
0.044953
0.048628
0.051680
0.054158
0.056117
0.057609
0.058686
0.059397
0.059791
0.059908
0.059789
0.059468
0.058978
0.058347
0.057597
0.056752
0.055828
0.054842
0.053806
0.052732
0.051627
0.050500
0.049357
0.048201
0.047038
0.045869
0.044697
0.043524
0.042349
0.041175
0.040001
0.038827
0.037654
0.036480
0.035306
0.034131
0.032955
0.031776
0.030594
0.029409
0.028220
0.027026
0.025826
0.024620
0.023408
0.022187
0.020958
0.019720
0.018472
0.017212
0.015940
0.014654
0.013354
0.012039
0.010711
0.009374
0.000000
0.000000
0.000000
0.000000
0.000000
0.000000
0.000000
0.000000
0.000000
-0.154089
-0.154089
-0.153866
-0.152574
-0.151211
-0.149967
-0.148787
-0.147596
-0.146332
-0.144858
-0.143133
-0.141343
-0.138947
-0.135753
-0.131509
-0.126269
-0.119937
-0.112534
-0.104147
-0.094911
-0.084973
-0.074543
-0.063816
-0.052975
-0.042190
-0.031618
-0.021401
-0.011664
-0.002501
0.006018
0.013848
0.020957
0.027334
0.032985
0.037928
0.042192
0.045817
0.048846
0.051329
0.053315
0.054856
0.056000
0.056795
0.057285
0.057509
0.057505
0.057306
0.056942
0.056438
0.055818
0.055101
0.054304
0.053441
0.052525
0.051566
0.050572
0.049550
0.048505
0.047442
0.046366
0.045277
0.044180
0.043074
0.041963
0.040845
0.039723
0.038595
0.037463
0.036327
0.035186
0.034040
0.032889
0.031732
0.030570
0.029401
0.028225
0.027042
0.025851
0.024651
0.023443
0.022225
0.020995
0.019754
0.018500
0.017230
0.015944
0.014638
0.013310
0.011956
0.010575
0.009167
0.000000
0.000000
0.000000
0.000000
0.000000
0.000000
0.000000
0.000000
0.000000
-0.163084
-0.163084
-0.159780
-0.155906
-0.153069
-0.151199
-0.149614
-0.148101
-0.146828
-0.145315
-0.143480
-0.141080
-0.138265
-0.134764
-0.130355
-0.124964
-0.118551
-0.111141
-0.102822
-0.093723
-0.083999
-0.073836
-0.063417
-0.052917
-0.042499
-0.032310
-0.022480
-0.013121
-0.004318
0.003866
0.011388
0.018225
0.024368
0.029825
0.034616
0.038770
0.042324
0.045320
0.047804
0.049824
0.051425
0.052654
0.053554
0.054165
0.054525
0.054667
0.054622
0.054416
0.054074
0.053616
0.053060
0.052421
0.051713
0.050946
0.050131
0.049273
0.048381
0.047459
0.046511
0.045541
0.044552
0.043546
0.042525
0.041490
0.040442
0.039383
0.038313
0.037232
0.036141
0.035040
0.033930
0.032810
0.031681
0.030542
0.029393
0.028234
0.027065
0.025885
0.024694
0.023492
0.022277
0.021048
0.019805
0.018545
0.017267
0.015966
0.014638
0.013279
0.011882
0.010439
0.008940
0.000000
0.000000
0.000000
0.000000
0.000000
0.000000
0.000000
0.000000
0.000000
-0.178740
-0.178740
-0.166268
-0.157775
-0.153085
-0.150989
-0.149040
-0.147478
-0.145719
-0.143872
-0.141835
-0.139325
-0.136280
-0.132534
-0.127942
-0.122431
-0.115984
-0.108637
-0.100476
-0.091625
-0.082234
-0.072467
-0.062494
-0.052475
-0.042560
-0.032884
-0.023562
-0.014693
-0.006352
0.001406
0.008544
0.015042
0.020898
0.026120
0.030727
0.034748
0.038219
0.041177
0.043665
0.045726
0.047403
0.048735
0.049762
0.050520
0.051042
0.051359
0.051497
0.051480
0.051329
0.051063
0.050696
0.050244
0.049717
0.049126
0.048478
0.047781
0.047040
0.046260
0.045445
0.044600
0.043725
0.042825
0.041901
0.040954
0.039987
0.039000
0.037995
0.036973
0.035934
0.034880
0.033811
0.032727
0.031629
0.030517
0.029392
0.028252
0.027099
0.025932
0.024751
0.023556
0.022346
0.021120
0.019877
0.018614
0.017328
0.016015
0.014669
0.013283
0.011845
0.010341
0.008749
0.378724
0.251256
0.171129
0.109536
0.056779
0.009050
-0.035740
-0.079516
-0.125402
-0.189425
-0.206454
-0.168956
-0.155996
-0.151017
-0.147970
-0.146290
-0.144780
-0.143116
-0.141239
-0.139040
-0.136363
-0.133104
-0.129151
-0.124409
-0.118833
-0.112422
-0.105220
-0.097313
-0.088817
-0.079867
-0.070612
-0.061201
-0.051779
-0.042477
-0.033415
-0.024695
-0.016401
-0.008597
-0.001331
0.005368
0.011485
0.017019
0.021979
0.026385
0.030264
0.033648
0.036571
0.039071
0.041185
0.042951
0.044404
0.045579
0.046506
0.047214
0.047728
0.048073
0.048268
0.048331
0.048279
0.048124
0.047879
0.047553
0.047154
0.046692
0.046170
0.045595
0.044971
0.044303
0.043592
0.042843
0.042058
0.041239
0.040388
0.039507
0.038599
0.037665
0.036707
0.035727
0.034723
0.033698
0.032652
0.031587
0.030503
0.029401
0.028282
0.027146
0.025993
0.024824
0.023637
0.022434
0.021212
0.019970
0.018707
0.017418
0.016098
0.014742
0.013338
0.011873
0.010325
0.008663
0.378724
0.251256
0.171129
0.109536
0.056779
0.009050
-0.035740
-0.079516
-0.125402
-0.172397
-0.178211
-0.163437
-0.153290
-0.147867
-0.144750
-0.142798
-0.141165
-0.139451
-0.137483
-0.135135
-0.132291
-0.128861
-0.124766
-0.119951
-0.114393
-0.108108
-0.101147
-0.093590
-0.085543
-0.077127
-0.068472
-0.059709
-0.050963
-0.042348
-0.033966
-0.025904
-0.018233
-0.011007
-0.004265
0.001969
0.007686
0.012886
0.017579
0.021784
0.025524
0.028827
0.031725
0.034248
0.036429
0.038299
0.039889
0.041226
0.042337
0.043246
0.043973
0.044539
0.044959
0.045249
0.045422
0.045489
0.045461
0.045344
0.045148
0.044877
0.044538
0.044135
0.043672
0.043153
0.042583
0.041961
0.041293
0.040583
0.039830
0.039039
0.038211
0.037349
0.036455
0.035531
0.034577
0.033596
0.032589
0.031558
0.030503
0.029426
0.028328
0.027209
0.026071
0.024913
0.023737
0.022541
0.021325
0.020088
0.018827
0.017540
0.016221
0.014863
0.013456
0.011984
0.010423
0.008738
0.251663
0.210672
0.158870
0.107962
0.059852
0.014427
-0.028820
-0.070225
-0.107945
-0.138378
-0.149928
-0.148289
-0.144401
-0.141362
-0.139246
-0.137662
-0.136188
-0.134549
-0.132585
-0.130188
-0.127273
-0.123776
-0.119652
-0.114873
-0.109439
-0.103379
-0.096746
-0.089617
-0.082089
-0.074268
-0.066266
-0.058194
-0.050159
-0.042257
-0.034576
-0.027186
-0.020147
-0.013502
-0.007281
-0.001504
0.003823
0.008702
0.013143
0.017162
0.020779
0.024018
0.026905
0.029466
0.031727
0.033714
0.035450
0.036959
0.038261
0.039376
0.040319
0.041108
0.041754
0.042271
0.042668
0.042955
0.043140
0.043230
0.043231
0.043148
0.042987
0.042751
0.042445
0.042071
0.041637
0.041139
0.040582
0.039970
0.039310
0.038604
0.037854
0.037061
0.036229
0.035360
0.034455
0.033516
0.032547
0.031548
0.030521
0.029468
0.028390
0.027288
0.026164
0.025019
0.023852
0.022665
0.021456
0.020225
0.018971
0.017690
0.016379
0.015031
0.013636
0.012180
0.010642
0.008991
0.190586
0.175094
0.143533
0.105392
0.065089
0.024778
-0.014306
-0.050955
-0.082864
-0.107847
-0.122609
-0.128788
-0.130820
-0.131289
-0.131159
-0.130683
-0.129850
-0.128593
-0.126852
-0.124580
-0.121742
-0.118311
-0.114276
-0.109638
-0.104417
-0.098654
-0.092407
-0.085749
-0.078767
-0.071554
-0.064208
-0.056821
-0.049484
-0.042276
-0.035269
-0.028520
-0.022078
-0.015977
-0.010240
-0.004882
0.000093
0.004687
0.008910
0.012774
0.016296
0.019495
0.022391
0.025005
0.027357
0.029467
0.031354
0.033034
0.034523
0.035837
0.036988
0.037988
0.038848
0.039577
0.040183
0.040674
0.041057
0.041338
0.041520
0.041611
0.041611
0.041528
0.041368
0.041120
0.040792
0.040400
0.039946
0.039431
0.038858
0.038230
0.037551
0.036821
0.036046
0.035226
0.034366
0.033466
0.032530
0.031560
0.030558
0.029526
0.028467
0.027380
0.026270
0.025135
0.023978
0.022799
0.021598
0.020375
0.019130
0.017860
0.016562
0.015232
0.013863
0.012444
0.010959
0.009388
0.162747
0.154798
0.133483
0.104036
0.070327
0.035073
0.000259
-0.032446
-0.061181
-0.084344
-0.100710
-0.110930
-0.116944
-0.120405
-0.122303
-0.123140
-0.123151
-0.122438
-0.121049
-0.119013
-0.116347
-0.113066
-0.109193
-0.104755
-0.099791
-0.094353
-0.088502
-0.082311
-0.075856
-0.069220
-0.062486
-0.055733
-0.049033
-0.042454
-0.036051
-0.029872
-0.023955
-0.018325
-0.013003
-0.007998
-0.003314
0.001052
0.005105
0.008856
0.012318
0.015504
0.018431
0.021111
0.023561
0.025795
0.027826
0.029667
0.031330
0.032824
0.034162
0.035350
0.036398
0.037313
0.038101
0.038769
0.039322
0.039768
0.040103
0.040346
0.040483
0.040513
0.040446
0.040307
0.040088
0.039795
0.039431
0.038997
0.038499
0.037938
0.037318
0.036643
0.035915
0.035137
0.034314
0.033446
0.032539
0.031593
0.030612
0.029597
0.028553
0.027479
0.026379
0.025254
0.024105
0.022933
0.021740
0.020526
0.019291
0.018033
0.016753
0.015446
0.014110
0.012738
0.011324
0.009859
0.152815
0.147137
0.130181
0.105155
0.075255
0.043165
0.011111
-0.019022
-0.045688
-0.067809
-0.084800
-0.096970
-0.105284
-0.110777
-0.114243
-0.116213
-0.117012
-0.116842
-0.115829
-0.114061
-0.111602
-0.108507
-0.104825
-0.100607
-0.095909
-0.090789
-0.085312
-0.079547
-0.073566
-0.067441
-0.061241
-0.055032
-0.048874
-0.042822
-0.036920
-0.031207
-0.025711
-0.020455
-0.015453
-0.010715
-0.006244
-0.002040
0.001903
0.005589
0.009029
0.012230
0.015204
0.017959
0.020507
0.022858
0.025019
0.027001
0.028812
0.030460
0.031952
0.033295
0.034497
0.035561
0.036496
0.037305
0.037990
0.038577
0.039024
0.039346
0.039569
0.039702
0.039742
0.039695
0.039562
0.039346
0.039052
0.038683
0.038243
0.037734
0.037161
0.036527
0.035836
0.035091
0.034296
0.033454
0.032567
0.031640
0.030674
0.029673
0.028640
0.027576
0.026484
0.025365
0.024223
0.023058
0.021872
0.020665
0.019439
0.018194
0.016930
0.015647
0.014344
0.013019
0.011674
0.010312
0.155601
0.149981
0.133278
0.108752
0.079676
0.048798
0.018258
-0.010289
-0.035627
-0.056989
-0.074068
-0.087071
-0.096580
-0.103283
-0.107795
-0.110590
-0.112010
-0.112294
-0.111616
-0.110102
-0.107851
-0.104946
-0.101459
-0.097459
-0.093010
-0.088179
-0.083031
-0.077632
-0.072047
-0.066339
-0.060567
-0.054787
-0.049049
-0.043397
-0.037869
-0.032495
-0.027300
-0.022302
-0.017516
-0.012950
-0.008608
-0.004493
-0.000603
0.003065
0.006516
0.009754
0.012786
0.015618
0.018256
0.020708
0.022978
0.025074
0.027002
0.028768
0.030378
0.031837
0.033154
0.034327
0.035373
0.036289
0.037057
0.037678
0.038207
0.038626
0.038939
0.039151
0.039264
0.039283
0.039211
0.039051
0.038807
0.038484
0.038084
0.037612
0.037072
0.036467
0.035802
0.035080
0.034304
0.033479
0.032607
0.031692
0.030737
0.029746
0.028720
0.027662
0.026575
0.025462
0.024324
0.023163
0.021982
0.020781
0.019563
0.018328
0.017078
0.015814
0.014537
0.013250
0.011958
0.010672
0.170999
0.163332
0.143009
0.115356
0.084318
0.052641
0.022216
-0.005667
-0.030183
-0.050905
-0.067752
-0.080957
-0.090958
-0.098270
-0.103380
-0.106695
-0.108538
-0.109156
-0.108739
-0.107436
-0.105368
-0.102635
-0.099325
-0.095517
-0.091281
-0.086688
-0.081801
-0.076682
-0.071392
-0.065986
-0.060517
-0.055032
-0.049574
-0.044183
-0.038889
-0.033721
-0.028701
-0.023847
-0.019173
-0.014688
-0.010399
-0.006309
-0.002422
0.001264
0.004749
0.008037
0.011130
0.014032
0.016747
0.019279
0.021634
0.023814
0.025827
0.027676
0.029367
0.030904
0.032306
0.033547
0.034632
0.035579
0.036413
0.037120
0.037713
0.038192
0.038562
0.038824
0.038984
0.039045
0.039011
0.038886
0.038674
0.038379
0.038005
0.037557
0.037037
0.036450
0.035801
0.035093
0.034329
0.033514
0.032652
0.031744
0.030796
0.029809
0.028787
0.027733
0.026649
0.025538
0.024402
0.023244
0.022066
0.020869
0.019655
0.018427
0.017187
0.015936
0.014676
0.013412
0.012150
0.010903
0.203734
0.188774
0.159017
0.124038
0.088366
0.054274
0.022998
-0.004781
-0.028750
-0.048860
-0.065273
-0.078304
-0.088358
-0.095865
-0.101231
-0.104806
-0.106883
-0.107701
-0.107453
-0.106295
-0.104359
-0.101755
-0.098576
-0.094905
-0.090819
-0.086384
-0.081665
-0.076720
-0.071606
-0.066373
-0.061070
-0.055740
-0.050424
-0.045155
-0.039966
-0.034882
-0.029926
-0.025117
-0.020468
-0.015991
-0.011695
-0.007586
-0.003667
0.000060
0.003593
0.006934
0.010085
0.013047
0.015823
0.018417
0.020832
0.023072
0.025141
0.027048
0.028793
0.030372
0.031782
0.033061
0.034203
0.035208
0.036085
0.036837
0.037467
0.037981
0.038381
0.038672
0.038858
0.038943
0.038930
0.038824
0.038630
0.038350
0.037990
0.037553
0.037044
0.036467
0.035826
0.035125
0.034367
0.033557
0.032699
0.031795
0.030848
0.029864
0.028843
0.027790
0.026707
0.025597
0.024461
0.023304
0.022126
0.020930
0.019719
0.018494
0.017258
0.016012
0.014761
0.013506
0.012254
0.011015
0.268594
0.228414
0.179161
0.132540
0.090589
0.053479
0.021094
-0.006747
-0.030290
-0.049848
-0.065785
-0.078502
-0.088403
-0.095878
-0.101282
-0.104929
-0.107086
-0.107981
-0.107801
-0.106706
-0.104829
-0.102280
-0.099159
-0.095547
-0.091521
-0.087148
-0.082490
-0.077605
-0.072546
-0.067363
-0.062101
-0.056805
-0.051511
-0.046255
-0.041068
-0.035977
-0.031004
-0.026168
-0.021486
-0.016970
-0.012629
-0.008472
-0.004502
-0.000723
0.002864
0.006259
0.009461
0.012474
0.015299
0.017940
0.020402
0.022684
0.024790
0.026719
0.028486
0.030099
0.031556
0.032868
0.034039
0.035073
0.035975
0.036749
0.037399
0.037931
0.038347
0.038652
0.038850
0.038945
0.038942
0.038845
0.038657
0.038384
0.038029
0.037597
0.037092
0.036518
0.035879
0.035179
0.034423
0.033614
0.032755
0.031851
0.030904
0.029919
0.028897
0.027843
0.026758
0.025647
0.024510
0.023351
0.022172
0.020975
0.019763
0.018537
0.017301
0.016056
0.014805
0.013551
0.012297
0.011051
0.397492
0.270927
0.193551
0.136515
0.090260
0.051336
0.018294
-0.009644
-0.033035
-0.052364
-0.068088
-0.080641
-0.090431
-0.097833
-0.103189
-0.106799
-0.108921
-0.109780
-0.109564
-0.108431
-0.106514
-0.103928
-0.100768
-0.097120
-0.093058
-0.088648
-0.083953
-0.079028
-0.073927
-0.068699
-0.063390
-0.058042
-0.052694
-0.047381
-0.042134
-0.036980
-0.031943
-0.027043
-0.022296
-0.017715
-0.013312
-0.009093
-0.005063
-0.001227
0.002413
0.005859
0.009110
0.012168
0.015035
0.017714
0.020207
0.022521
0.024659
0.026621
0.028418
0.030055
0.031536
0.032868
0.034057
0.035106
0.036021
0.036806
0.037466
0.038005
0.038428
0.038738
0.038941
0.039039
0.039039
0.038943
0.038756
0.038483
0.038128
0.037695
0.037188
0.036612
0.035971
0.035269
0.034509
0.033697
0.032835
0.031928
0.030978
0.029989
0.028964
0.027906
0.026818
0.025702
0.024562
0.023400
0.022217
0.021017
0.019801
0.018572
0.017332
0.016083
0.014827
0.013569
0.012310
0.011055
