# vtk DataFile Version 3.0
Vector Field
ASCII
DATASET RECTILINEAR_GRID
DIMENSIONS 100 20 1
X_COORDINATES 100 double
0.050000 0.150000 0.250000 0.350000 0.450000 0.550000 0.650000 0.750000 0.850000 0.950000 1.050000 1.150000 1.250000 1.350000 1.450000 1.550000 1.650000 1.750000 1.850000 1.950000 2.050000 2.150000 2.250000 2.350000 2.450000 2.550000 2.650000 2.750000 2.850000 2.950000 3.050000 3.150000 3.250000 3.350000 3.450000 3.550000 3.650000 3.750000 3.850000 3.950000 4.050000 4.150000 4.250000 4.350000 4.450000 4.550000 4.650000 4.750000 4.850000 4.950000 5.050000 5.150000 5.250000 5.350000 5.450000 5.550000 5.650000 5.750000 5.850000 5.950000 6.050000 6.150000 6.250000 6.350000 6.450000 6.550000 6.650000 6.750000 6.850000 6.950000 7.050000 7.150000 7.250000 7.350000 7.450000 7.550000 7.650000 7.750000 7.850000 7.950000 8.050000 8.150000 8.250000 8.350000 8.450000 8.550000 8.650000 8.750000 8.850000 8.950000 9.050000 9.150000 9.250000 9.350000 9.450000 9.550000 9.650000 9.750000 9.850000 9.950000 
Y_COORDINATES 20 double
0.050000 0.150000 0.250000 0.350000 0.450000 0.550000 0.650000 0.750000 0.850000 0.950000 1.050000 1.150000 1.250000 1.350000 1.450000 1.550000 1.650000 1.750000 1.850000 1.950000 
Z_COORDINATES 1 double
0.0
POINT_DATA 2000
VECTORS Vektorfeld double
0.500000 0.000000 0.0
0.000000 0.000000 0.0
0.000000 0.000000 0.0
0.000000 0.000000 0.0
0.000000 0.000000 0.0
0.000000 0.000000 0.0
0.000000 0.000000 0.0
0.000000 0.000000 0.0
0.000000 0.000000 0.0
0.000000 -0.000113 0.0
-0.000189 0.000189 0.0
-0.001946 0.001569 0.0
-0.005907 0.002393 0.0
-0.010991 0.002691 0.0
-0.016423 0.002741 0.0
-0.021889 0.002725 0.0
-0.027340 0.002725 0.0
-0.032828 0.002763 0.0
-0.038427 0.002837 0.0
-0.044198 0.002934 0.0
-0.050166 0.003034 0.0
-0.056307 0.003107 0.0
-0.062529 0.003116 0.0
-0.068670 0.003025 0.0
-0.074500 0.002805 0.0
-0.079754 0.002449 0.0
-0.084169 0.001966 0.0
-0.087511 0.001376 0.0
-0.089598 0.000711 0.0
-0.090329 0.000020 0.0
-0.089674 -0.000675 0.0
-0.087645 -0.001354 0.0
-0.084316 -0.001974 0.0
-0.079825 -0.002517 0.0
-0.074318 -0.002990 0.0
-0.067939 -0.003389 0.0
-0.060856 -0.003694 0.0
-0.053269 -0.003894 0.0
-0.045364 -0.004011 0.0
-0.037245 -0.004108 0.0
-0.029019 -0.004119 0.0
-0.020859 -0.004041 0.0
-0.012864 -0.003954 0.0
-0.005096 -0.003814 0.0
0.002343 -0.003625 0.0
0.009365 -0.003398 0.0
0.015925 -0.003163 0.0
0.022014 -0.002926 0.0
0.027629 -0.002689 0.0
0.032775 -0.002457 0.0
0.037462 -0.002230 0.0
0.041706 -0.002013 0.0
0.045524 -0.001805 0.0
0.048939 -0.001610 0.0
0.051976 -0.001427 0.0
0.054661 -0.001258 0.0
0.057020 -0.001102 0.0
0.059082 -0.000960 0.0
0.060872 -0.000831 0.0
0.062417 -0.000714 0.0
0.063742 -0.000610 0.0
0.064870 -0.000518 0.0
0.065825 -0.000437 0.0
0.066626 -0.000365 0.0
0.067294 -0.000303 0.0
0.067846 -0.000249 0.0
0.068297 -0.000203 0.0
0.068663 -0.000163 0.0
0.068957 -0.000130 0.0
0.069189 -0.000102 0.0
0.069371 -0.000080 0.0
0.069512 -0.000061 0.0
0.069619 -0.000046 0.0
0.069699 -0.000034 0.0
0.069759 -0.000025 0.0
0.069803 -0.000019 0.0
0.069836 -0.000014 0.0
0.069862 -0.000012 0.0
0.069884 -0.000010 0.0
0.069904 -0.000010 0.0
0.069925 -0.000011 0.0
0.069947 -0.000012 0.0
0.069973 -0.000014 0.0
0.070003 -0.000016 0.0
0.070039 -0.000019 0.0
0.070079 -0.000022 0.0
0.070126 -0.000024 0.0
0.070177 -0.000027 0.0
0.070234 -0.000030 0.0
0.070295 -0.000032 0.0
0.070360 -0.000033 0.0
0.070427 -0.000034 0.0
0.070495 -0.000034 0.0
0.070563 -0.000033 0.0
0.070627 -0.000031 0.0
0.070685 -0.000027 0.0
0.070733 -0.000021 0.0
0.070768 -0.000014 0.0
0.070788 -0.000006 0.0
0.070793 0.000000 0.0
0.500000 0.000000 0.0
0.000000 0.000000 0.0
0.000000 0.000000 0.0
0.000000 0.000000 0.0
0.000000 0.000000 0.0
0.000000 0.000000 0.0
0.000000 0.000000 0.0
0.000000 0.000000 0.0
0.000000 0.000000 0.0
0.000000 -0.000182 0.0
-0.001949 0.002327 0.0
-0.008563 0.007802 0.0
-0.019277 0.010835 0.0
-0.031845 0.011901 0.0
-0.044901 0.012019 0.0
-0.057845 0.011857 0.0
-0.070519 0.011718 0.0
-0.082956 0.011695 0.0
-0.095231 0.011779 0.0
-0.107385 0.011917 0.0
-0.119386 0.012020 0.0
-0.131099 0.011973 0.0
-0.142266 0.011640 0.0
-0.152516 0.010892 0.0
-0.161391 0.009644 0.0
-0.168415 0.007888 0.0
-0.173168 0.005695 0.0
-0.175337 0.003158 0.0
-0.174720 0.000400 0.0
-0.171245 -0.002414 0.0
-0.165023 -0.005119 0.0
-0.156347 -0.007616 0.0
-0.145576 -0.009812 0.0
-0.133061 -0.011686 0.0
-0.119104 -0.013285 0.0
-0.103964 -0.014613 0.0
-0.087915 -0.015601 0.0
-0.071257 -0.016232 0.0
-0.054276 -0.016558 0.0
-0.037149 -0.016806 0.0
-0.020030 -0.016766 0.0
-0.003096 -0.016487 0.0
0.013403 -0.016002 0.0
0.029229 -0.015361 0.0
0.044317 -0.014604 0.0
0.058637 -0.013760 0.0
0.072153 -0.012878 0.0
0.084833 -0.011979 0.0
0.096659 -0.011077 0.0
0.107628 -0.010184 0.0
0.117748 -0.009310 0.0
0.127036 -0.008464 0.0
0.135516 -0.007652 0.0
0.143219 -0.006881 0.0
0.150181 -0.006155 0.0
0.156442 -0.005475 0.0
0.162043 -0.004845 0.0
0.167029 -0.004264 0.0
0.171444 -0.003732 0.0
0.175333 -0.003248 0.0
0.178742 -0.002810 0.0
0.181712 -0.002418 0.0
0.184287 -0.002067 0.0
0.186507 -0.001756 0.0
0.188409 -0.001482 0.0
0.190029 -0.001242 0.0
0.191400 -0.001033 0.0
0.192554 -0.000853 0.0
0.193518 -0.000699 0.0
0.194319 -0.000568 0.0
0.194980 -0.000457 0.0
0.195523 -0.000366 0.0
0.195966 -0.000291 0.0
0.196325 -0.000230 0.0
0.196617 -0.000182 0.0
0.196854 -0.000144 0.0
0.197048 -0.000116 0.0
0.197209 -0.000096 0.0
0.197345 -0.000083 0.0
0.197464 -0.000076 0.0
0.197572 -0.000073 0.0
0.197673 -0.000074 0.0
0.197773 -0.000078 0.0
0.197875 -0.000084 0.0
0.197981 -0.000092 0.0
0.198093 -0.000101 0.0
0.198212 -0.000111 0.0
0.198340 -0.000120 0.0
0.198477 -0.000129 0.0
0.198621 -0.000137 0.0
0.198771 -0.000143 0.0
0.198927 -0.000147 0.0
0.199084 -0.000147 0.0
0.199240 -0.000144 0.0
0.199390 -0.000135 0.0
0.199528 -0.000119 0.0
0.199647 -0.000096 0.0
0.199739 -0.000066 0.0
0.199795 -0.000030 0.0
0.199814 0.000000 0.0
0.500000 0.000000 0.0
0.000000 0.000000 0.0
0.000000 0.000000 0.0
0.000000 0.000000 0.0
0.000000 0.000000 0.0
0.000000 0.000000 0.0
0.000000 0.000000 0.0
0.000000 0.000000 0.0
0.000000 0.000000 0.0
0.000000 0.000026 0.0
-0.003665 0.007941 0.0
-0.014600 0.019737 0.0
-0.030472 0.025485 0.0
-0.047852 0.027200 0.0
-0.065108 0.027034 0.0
-0.081614 0.026292 0.0
-0.097220 0.025563 0.0
-0.111958 0.025025 0.0
-0.125885 0.024652 0.0
-0.139011 0.024325 0.0
-0.151262 0.023864 0.0
-0.162453 0.023032 0.0
-0.172271 0.021566 0.0
-0.180273 0.019217 0.0
-0.185921 0.015842 0.0
-0.188674 0.011466 0.0
-0.188109 0.006305 0.0
-0.183952 0.000559 0.0
-0.176334 -0.005237 0.0
-0.165726 -0.010860 0.0
-0.152588 -0.016032 0.0
-0.137334 -0.020633 0.0
-0.120347 -0.024552 0.0
-0.102006 -0.027802 0.0
-0.082628 -0.030504 0.0
-0.062465 -0.032698 0.0
-0.041758 -0.034272 0.0
-0.020728 -0.035249 0.0
0.000485 -0.035734 0.0
0.021501 -0.035773 0.0
0.041977 -0.035394 0.0
0.061855 -0.034672 0.0
0.081093 -0.033555 0.0
0.099644 -0.032186 0.0
0.117423 -0.030646 0.0
0.134366 -0.028981 0.0
0.150431 -0.027238 0.0
0.165585 -0.025453 0.0
0.179809 -0.023654 0.0
0.193099 -0.021866 0.0
0.205459 -0.020108 0.0
0.216903 -0.018398 0.0
0.227453 -0.016749 0.0
0.237137 -0.015172 0.0
0.245987 -0.013676 0.0
0.254040 -0.012268 0.0
0.261337 -0.010950 0.0
0.267919 -0.009726 0.0
0.273830 -0.008596 0.0
0.279115 -0.007559 0.0
0.283820 -0.006612 0.0
0.287988 -0.005754 0.0
0.291664 -0.004981 0.0
0.294891 -0.004288 0.0
0.297710 -0.003670 0.0
0.300161 -0.003124 0.0
0.302282 -0.002643 0.0
0.304107 -0.002222 0.0
0.305672 -0.001858 0.0
0.307005 -0.001543 0.0
0.308138 -0.001275 0.0
0.309095 -0.001048 0.0
0.309901 -0.000857 0.0
0.310578 -0.000700 0.0
0.311145 -0.000571 0.0
0.311621 -0.000468 0.0
0.312021 -0.000387 0.0
0.312359 -0.000325 0.0
0.312648 -0.000280 0.0
0.312898 -0.000248 0.0
0.313119 -0.000229 0.0
0.313319 -0.000219 0.0
0.313504 -0.000218 0.0
0.313681 -0.000223 0.0
0.313854 -0.000232 0.0
0.314026 -0.000246 0.0
0.314201 -0.000261 0.0
0.314381 -0.000278 0.0
0.314567 -0.000294 0.0
0.314760 -0.000309 0.0
0.314958 -0.000321 0.0
0.315161 -0.000328 0.0
0.315366 -0.000329 0.0
0.315570 -0.000322 0.0
0.315768 -0.000304 0.0
0.315953 -0.000273 0.0
0.316117 -0.000225 0.0
0.316249 -0.000160 0.0
0.316335 -0.000079 0.0
0.316365 0.000000 0.0
0.500000 0.000000 0.0
0.000000 0.000000 0.0
0.000000 0.000000 0.0
0.000000 0.000000 0.0
0.000000 0.000000 0.0
0.000000 0.000000 0.0
0.000000 0.000000 0.0
0.000000 0.000000 0.0
0.000000 0.000000 0.0
0.000000 0.000445 0.0
-0.004933 0.016539 0.0
-0.018777 0.035918 0.0
-0.037450 0.043848 0.0
-0.056547 0.045314 0.0
-0.074383 0.044012 0.0
-0.090489 0.041925 0.0
-0.104845 0.039893 0.0
-0.117551 0.038140 0.0
-0.128683 0.036595 0.0
-0.138239 0.035063 0.0
-0.146139 0.033277 0.0
-0.152197 0.030868 0.0
-0.156108 0.027458 0.0
-0.157427 0.022646 0.0
-0.155577 0.016212 0.0
-0.149978 0.008250 0.0
-0.140277 -0.000746 0.0
-0.127160 -0.009663 0.0
-0.111730 -0.018062 0.0
-0.094442 -0.025931 0.0
-0.075621 -0.032921 0.0
-0.055579 -0.039040 0.0
-0.034566 -0.044145 0.0
-0.012796 -0.048320 0.0
0.009470 -0.051630 0.0
0.031828 -0.054094 0.0
0.054013 -0.055767 0.0
0.075938 -0.056709 0.0
0.097473 -0.057022 0.0
0.118545 -0.056573 0.0
0.139089 -0.055614 0.0
0.158980 -0.054221 0.0
0.178153 -0.052418 0.0
0.196577 -0.050296 0.0
0.214205 -0.047942 0.0
0.230997 -0.045421 0.0
0.246923 -0.042789 0.0
0.261966 -0.040097 0.0
0.276115 -0.037383 0.0
0.289371 -0.034683 0.0
0.301744 -0.032024 0.0
0.313249 -0.029431 0.0
0.323907 -0.026924 0.0
0.333746 -0.024519 0.0
0.342796 -0.022229 0.0
0.351088 -0.020062 0.0
0.358660 -0.018025 0.0
0.365548 -0.016122 0.0
0.371790 -0.014354 0.0
0.377427 -0.012722 0.0
0.382497 -0.011223 0.0
0.387039 -0.009854 0.0
0.391093 -0.008611 0.0
0.394697 -0.007488 0.0
0.397887 -0.006480 0.0
0.400700 -0.005579 0.0
0.403170 -0.004778 0.0
0.405330 -0.004072 0.0
0.407211 -0.003453 0.0
0.408843 -0.002913 0.0
0.410252 -0.002447 0.0
0.411465 -0.002046 0.0
0.412506 -0.001706 0.0
0.413397 -0.001419 0.0
0.414157 -0.001180 0.0
0.414805 -0.000983 0.0
0.415357 -0.000824 0.0
0.415830 -0.000698 0.0
0.416236 -0.000601 0.0
0.416587 -0.000528 0.0
0.416893 -0.000477 0.0
0.417165 -0.000443 0.0
0.417411 -0.000425 0.0
0.417637 -0.000418 0.0
0.417849 -0.000422 0.0
0.418053 -0.000433 0.0
0.418252 -0.000449 0.0
0.418450 -0.000468 0.0
0.418649 -0.000489 0.0
0.418851 -0.000508 0.0
0.419057 -0.000525 0.0
0.419266 -0.000536 0.0
0.419477 -0.000538 0.0
0.419687 -0.000528 0.0
0.419893 -0.000502 0.0
0.420089 -0.000456 0.0
0.420267 -0.000383 0.0
0.420414 -0.000280 0.0
0.420515 -0.000146 0.0
0.420552 0.000000 0.0
0.500000 0.000000 0.0
0.000000 0.000000 0.0
0.000000 0.000000 0.0
0.000000 0.000000 0.0
0.000000 0.000000 0.0
0.000000 0.000000 0.0
0.000000 0.000000 0.0
0.000000 0.000000 0.0
0.000000 0.000000 0.0
0.000000 0.001035 0.0
-0.005750 0.027222 0.0
-0.020899 0.054227 0.0
-0.039632 0.062944 0.0
-0.057053 0.062737 0.0
-0.071789 0.059162 0.0
-0.083736 0.054827 0.0
-0.093112 0.050722 0.0
-0.100141 0.047046 0.0
-0.104932 0.043612 0.0
-0.107450 0.040121 0.0
-0.107595 0.036263 0.0
-0.105152 0.031498 0.0
-0.099778 0.025366 0.0
-0.091047 0.017327 0.0
-0.078286 0.006920 0.0
-0.061487 -0.004856 0.0
-0.042227 -0.016601 0.0
-0.021757 -0.027396 0.0
-0.000228 -0.037288 0.0
0.021946 -0.046166 0.0
0.044365 -0.053926 0.0
0.066909 -0.060621 0.0
0.089471 -0.066138 0.0
0.111942 -0.070568 0.0
0.134190 -0.073896 0.0
0.156135 -0.076130 0.0
0.177678 -0.077458 0.0
0.198694 -0.077959 0.0
0.219087 -0.077701 0.0
0.238820 -0.076697 0.0
0.257869 -0.075083 0.0
0.276185 -0.072959 0.0
0.293730 -0.070400 0.0
0.310486 -0.067493 0.0
0.326435 -0.064322 0.0
0.341562 -0.060960 0.0
0.355859 -0.057474 0.0
0.369325 -0.053920 0.0
0.381963 -0.050347 0.0
0.393785 -0.046797 0.0
0.404806 -0.043304 0.0
0.415049 -0.039899 0.0
0.424538 -0.036604 0.0
0.433300 -0.033441 0.0
0.441367 -0.030423 0.0
0.448771 -0.027563 0.0
0.455544 -0.024868 0.0
0.461721 -0.022343 0.0
0.467336 -0.019991 0.0
0.472424 -0.017810 0.0
0.477019 -0.015800 0.0
0.481155 -0.013956 0.0
0.484864 -0.012273 0.0
0.488180 -0.010745 0.0
0.491133 -0.009365 0.0
0.493753 -0.008125 0.0
0.496068 -0.007017 0.0
0.498107 -0.006032 0.0
0.499896 -0.005162 0.0
0.501458 -0.004398 0.0
0.502818 -0.003731 0.0
0.503996 -0.003154 0.0
0.505014 -0.002657 0.0
0.505889 -0.002233 0.0
0.506640 -0.001876 0.0
0.507282 -0.001577 0.0
0.507831 -0.001331 0.0
0.508298 -0.001131 0.0
0.508697 -0.000972 0.0
0.509039 -0.000849 0.0
0.509333 -0.000757 0.0
0.509588 -0.000690 0.0
0.509812 -0.000647 0.0
0.510013 -0.000622 0.0
0.510195 -0.000612 0.0
0.510364 -0.000615 0.0
0.510526 -0.000627 0.0
0.510682 -0.000645 0.0
0.510837 -0.000666 0.0
0.510993 -0.000688 0.0
0.511150 -0.000708 0.0
0.511311 -0.000722 0.0
0.511476 -0.000726 0.0
0.511642 -0.000716 0.0
0.511809 -0.000687 0.0
0.511972 -0.000630 0.0
0.512124 -0.000539 0.0
0.512256 -0.000404 0.0
0.512350 -0.000217 0.0
0.512385 0.000000 0.0
0.500000 0.000000 0.0
0.000000 0.000000 0.0
0.000000 0.000000 0.0
0.000000 0.000000 0.0
0.000000 0.000000 0.0
0.000000 0.000000 0.0
0.000000 0.000000 0.0
0.000000 0.000000 0.0
0.000000 0.000000 0.0
0.000000 0.001809 0.0
-0.006365 0.039338 0.0
-0.021342 0.072237 0.0
-0.036976 0.079300 0.0
-0.048818 0.075644 0.0
-0.056496 0.068668 0.0
-0.060543 0.061314 0.0
-0.061451 0.054518 0.0
-0.059559 0.048387 0.0
-0.054995 0.042498 0.0
-0.047604 0.036361 0.0
-0.037170 0.029733 0.0
-0.023379 0.021795 0.0
-0.005430 0.011746 0.0
0.016973 -0.000187 0.0
0.041939 -0.013293 0.0
0.067111 -0.026613 0.0
0.091903 -0.038895 0.0
0.116462 -0.050131 0.0
0.140703 -0.060324 0.0
0.164575 -0.069175 0.0
0.188047 -0.076809 0.0
0.211008 -0.083244 0.0
0.233384 -0.088453 0.0
0.255129 -0.092469 0.0
0.276204 -0.095318 0.0
0.296599 -0.097048 0.0
0.316293 -0.097778 0.0
0.335245 -0.097607 0.0
0.353420 -0.096622 0.0
0.370805 -0.094895 0.0
0.387399 -0.092529 0.0
0.403197 -0.089626 0.0
0.418194 -0.086277 0.0
0.432394 -0.082573 0.0
0.445801 -0.078598 0.0
0.458422 -0.074432 0.0
0.470266 -0.070144 0.0
0.481349 -0.065797 0.0
0.491685 -0.061444 0.0
0.501296 -0.057132 0.0
0.510204 -0.052899 0.0
0.518437 -0.048779 0.0
0.526023 -0.044798 0.0
0.532992 -0.040978 0.0
0.539374 -0.037335 0.0
0.545201 -0.033882 0.0
0.550506 -0.030627 0.0
0.555321 -0.027575 0.0
0.559677 -0.024729 0.0
0.563605 -0.022087 0.0
0.567135 -0.019648 0.0
0.570297 -0.017406 0.0
0.573119 -0.015355 0.0
0.575628 -0.013488 0.0
0.577850 -0.011797 0.0
0.579809 -0.010273 0.0
0.581530 -0.008906 0.0
0.583034 -0.007687 0.0
0.584342 -0.006604 0.0
0.585473 -0.005649 0.0
0.586445 -0.004812 0.0
0.587277 -0.004082 0.0
0.587982 -0.003451 0.0
0.588576 -0.002909 0.0
0.589072 -0.002448 0.0
0.589483 -0.002059 0.0
0.589820 -0.001735 0.0
0.590093 -0.001468 0.0
0.590311 -0.001253 0.0
0.590484 -0.001083 0.0
0.590619 -0.000952 0.0
0.590724 -0.000855 0.0
0.590804 -0.000787 0.0
0.590864 -0.000743 0.0
0.590911 -0.000720 0.0
0.590949 -0.000714 0.0
0.590981 -0.000721 0.0
0.591010 -0.000737 0.0
0.591040 -0.000759 0.0
0.591073 -0.000784 0.0
0.591110 -0.000808 0.0
0.591155 -0.000828 0.0
0.591207 -0.000838 0.0
0.591268 -0.000833 0.0
0.591337 -0.000806 0.0
0.591412 -0.000749 0.0
0.591491 -0.000651 0.0
0.591567 -0.000499 0.0
0.591628 -0.000277 0.0
0.591652 0.000000 0.0
0.500000 0.000000 0.0
0.000000 0.000000 0.0
0.000000 0.000000 0.0
0.000000 0.000000 0.0
0.000000 0.000000 0.0
0.000000 0.000000 0.0
0.000000 0.000000 0.0
0.000000 0.000000 0.0
0.000000 0.000000 0.0
0.000000 0.002948 0.0
-0.007061 0.052765 0.0
-0.020035 0.086760 0.0
-0.027949 0.088326 0.0
-0.028872 0.079384 0.0
-0.024589 0.068322 0.0
-0.016496 0.057615 0.0
-0.005108 0.047737 0.0
0.009360 0.038809 0.0
0.026779 0.030094 0.0
0.047438 0.020716 0.0
0.072132 0.010250 0.0
0.100867 -0.001248 0.0
0.131724 -0.014018 0.0
0.162388 -0.027490 0.0
0.191955 -0.040524 0.0
0.220373 -0.052973 0.0
0.247588 -0.064543 0.0
0.273631 -0.075084 0.0
0.298517 -0.084499 0.0
0.322291 -0.092646 0.0
0.345012 -0.099531 0.0
0.366697 -0.105168 0.0
0.387358 -0.109566 0.0
0.407017 -0.112758 0.0
0.425700 -0.114787 0.0
0.443441 -0.115715 0.0
0.460269 -0.115634 0.0
0.476206 -0.114639 0.0
0.491266 -0.112825 0.0
0.505473 -0.110283 0.0
0.518851 -0.107112 0.0
0.531423 -0.103411 0.0
0.543211 -0.099277 0.0
0.554239 -0.094800 0.0
0.564529 -0.090067 0.0
0.574105 -0.085159 0.0
0.582990 -0.080147 0.0
0.591208 -0.075095 0.0
0.598786 -0.070060 0.0
0.605750 -0.065091 0.0
0.612129 -0.060228 0.0
0.617951 -0.055506 0.0
0.623247 -0.050953 0.0
0.628046 -0.046591 0.0
0.632379 -0.042437 0.0
0.636276 -0.038504 0.0
0.639766 -0.034800 0.0
0.642879 -0.031330 0.0
0.645642 -0.028094 0.0
0.648084 -0.025092 0.0
0.650229 -0.022319 0.0
0.652103 -0.019770 0.0
0.653729 -0.017439 0.0
0.655131 -0.015315 0.0
0.656328 -0.013390 0.0
0.657341 -0.011653 0.0
0.658189 -0.010094 0.0
0.658888 -0.008701 0.0
0.659455 -0.007464 0.0
0.659903 -0.006370 0.0
0.660248 -0.005409 0.0
0.660501 -0.004570 0.0
0.660673 -0.003842 0.0
0.660776 -0.003215 0.0
0.660818 -0.002680 0.0
0.660809 -0.002228 0.0
0.660756 -0.001849 0.0
0.660666 -0.001537 0.0
0.660546 -0.001283 0.0
0.660401 -0.001081 0.0
0.660238 -0.000925 0.0
0.660060 -0.000808 0.0
0.659872 -0.000725 0.0
0.659679 -0.000672 0.0
0.659482 -0.000642 0.0
0.659286 -0.000633 0.0
0.659093 -0.000640 0.0
0.658905 -0.000659 0.0
0.658725 -0.000687 0.0
0.658554 -0.000719 0.0
0.658396 -0.000753 0.0
0.658252 -0.000783 0.0
0.658124 -0.000806 0.0
0.658013 -0.000815 0.0
0.657923 -0.000803 0.0
0.657855 -0.000760 0.0
0.657810 -0.000675 0.0
0.657788 -0.000529 0.0
0.657784 -0.000303 0.0
0.657786 0.000000 0.0
0.500000 0.000000 0.0
0.000000 0.000000 0.0
0.000000 0.000000 0.0
0.000000 0.000000 0.0
0.000000 0.000000 0.0
0.000000 0.000000 0.0
0.000000 0.000000 0.0
0.000000 0.000000 0.0
0.000000 0.000000 0.0
0.000000 0.004996 0.0
-0.007061 0.066887 0.0
-0.012972 0.091522 0.0
-0.004129 0.082636 0.0
0.014416 0.067452 0.0
0.037471 0.052915 0.0
0.063013 0.039387 0.0
0.090973 0.026617 0.0
0.122034 0.014400 0.0
0.156534 0.002585 0.0
0.193308 -0.009208 0.0
0.230277 -0.021490 0.0
0.265971 -0.033937 0.0
0.300002 -0.046217 0.0
0.332263 -0.058215 0.0
0.362655 -0.069758 0.0
0.391152 -0.080653 0.0
0.417791 -0.090717 0.0
0.442647 -0.099809 0.0
0.465812 -0.107824 0.0
0.487388 -0.114672 0.0
0.507484 -0.120322 0.0
0.526193 -0.124770 0.0
0.543599 -0.128031 0.0
0.559782 -0.130135 0.0
0.574819 -0.131130 0.0
0.588784 -0.131078 0.0
0.601744 -0.130060 0.0
0.613759 -0.128165 0.0
0.624884 -0.125485 0.0
0.635168 -0.122114 0.0
0.644659 -0.118150 0.0
0.653401 -0.113688 0.0
0.661437 -0.108824 0.0
0.668803 -0.103647 0.0
0.675537 -0.098244 0.0
0.681672 -0.092693 0.0
0.687242 -0.087067 0.0
0.692278 -0.081429 0.0
0.696810 -0.075836 0.0
0.700868 -0.070338 0.0
0.704482 -0.064974 0.0
0.707681 -0.059781 0.0
0.710494 -0.054786 0.0
0.712948 -0.050011 0.0
0.715071 -0.045473 0.0
0.716888 -0.041183 0.0
0.718424 -0.037149 0.0
0.719705 -0.033375 0.0
0.720753 -0.029860 0.0
0.721589 -0.026603 0.0
0.722235 -0.023599 0.0
0.722710 -0.020840 0.0
0.723033 -0.018318 0.0
0.723219 -0.016023 0.0
0.723285 -0.013945 0.0
0.723246 -0.012072 0.0
0.723115 -0.010392 0.0
0.722904 -0.008892 0.0
0.722624 -0.007560 0.0
0.722286 -0.006384 0.0
0.721898 -0.005352 0.0
0.721470 -0.004451 0.0
0.721008 -0.003671 0.0
0.720519 -0.003000 0.0
0.720008 -0.002427 0.0
0.719481 -0.001944 0.0
0.718943 -0.001541 0.0
0.718398 -0.001210 0.0
0.717849 -0.000942 0.0
0.717301 -0.000730 0.0
0.716755 -0.000567 0.0
0.716215 -0.000448 0.0
0.715683 -0.000366 0.0
0.715160 -0.000315 0.0
0.714649 -0.000291 0.0
0.714151 -0.000290 0.0
0.713667 -0.000306 0.0
0.713200 -0.000337 0.0
0.712749 -0.000378 0.0
0.712318 -0.000426 0.0
0.711909 -0.000478 0.0
0.711523 -0.000528 0.0
0.711163 -0.000573 0.0
0.710834 -0.000608 0.0
0.710539 -0.000624 0.0
0.710283 -0.000615 0.0
0.710074 -0.000566 0.0
0.709919 -0.000460 0.0
0.709825 -0.000274 0.0
0.709794 0.000000 0.0
0.500000 -0.076758 0.0
0.000000 -0.050923 0.0
0.000000 -0.034684 0.0
0.000000 -0.022201 0.0
0.000000 -0.011508 0.0
0.000000 -0.001835 0.0
0.000000 0.007243 0.0
0.000000 0.016115 0.0
0.000000 0.025415 0.0
0.000000 0.005339 0.0
0.001482 0.072466 0.0
0.022400 0.070936 0.0
0.065370 0.051408 0.0
0.112761 0.032743 0.0
0.161251 0.016079 0.0
0.210420 0.001511 0.0
0.258613 -0.011659 0.0
0.304362 -0.024135 0.0
0.346920 -0.035938 0.0
0.386500 -0.047039 0.0
0.423522 -0.057650 0.0
0.458112 -0.068061 0.0
0.490251 -0.078263 0.0
0.519963 -0.088141 0.0
0.547307 -0.097569 0.0
0.572369 -0.106401 0.0
0.595256 -0.114495 0.0
0.616092 -0.121726 0.0
0.635015 -0.127994 0.0
0.652162 -0.133225 0.0
0.667675 -0.137377 0.0
0.681684 -0.140434 0.0
0.694313 -0.142403 0.0
0.705675 -0.143309 0.0
0.715878 -0.143196 0.0
0.725020 -0.142120 0.0
0.733195 -0.140153 0.0
0.740483 -0.137376 0.0
0.746960 -0.133876 0.0
0.752695 -0.129742 0.0
0.757749 -0.125068 0.0
0.762181 -0.119945 0.0
0.766043 -0.114464 0.0
0.769383 -0.108713 0.0
0.772244 -0.102773 0.0
0.774666 -0.096722 0.0
0.776687 -0.090629 0.0
0.778342 -0.084557 0.0
0.779662 -0.078560 0.0
0.780676 -0.072687 0.0
0.781414 -0.066977 0.0
0.781901 -0.061465 0.0
0.782163 -0.056177 0.0
0.782221 -0.051133 0.0
0.782099 -0.046350 0.0
0.781816 -0.041839 0.0
0.781391 -0.037605 0.0
0.780842 -0.033650 0.0
0.780184 -0.029975 0.0
0.779433 -0.026574 0.0
0.778602 -0.023443 0.0
0.777705 -0.020573 0.0
0.776752 -0.017954 0.0
0.775754 -0.015576 0.0
0.774720 -0.013426 0.0
0.773659 -0.011492 0.0
0.772579 -0.009760 0.0
0.771486 -0.008219 0.0
0.770386 -0.006854 0.0
0.769285 -0.005651 0.0
0.768187 -0.004599 0.0
0.767095 -0.003684 0.0
0.766013 -0.002894 0.0
0.764943 -0.002217 0.0
0.763887 -0.001643 0.0
0.762848 -0.001162 0.0
0.761827 -0.000765 0.0
0.760827 -0.000442 0.0
0.759850 -0.000184 0.0
0.758897 0.000015 0.0
0.757968 0.000163 0.0
0.757061 0.000268 0.0
0.756177 0.000334 0.0
0.755317 0.000368 0.0
0.754481 0.000373 0.0
0.753670 0.000355 0.0
0.752883 0.000318 0.0
0.752123 0.000266 0.0
0.751391 0.000201 0.0
0.750687 0.000128 0.0
0.750014 0.000050 0.0
0.749375 -0.000030 0.0
0.748773 -0.000109 0.0
0.748213 -0.000182 0.0
0.747701 -0.000243 0.0
0.747248 -0.000286 0.0
0.746863 -0.000301 0.0
0.746564 -0.000271 0.0
0.746370 -0.000175 0.0
0.746302 0.000000 0.0
0.028265 -0.076758 0.0
-0.902029 -0.050923 0.0
-0.819281 -0.034684 0.0
-0.741195 -0.022201 0.0
-0.673617 -0.011508 0.0
-0.618417 -0.001835 0.0
-0.576231 0.007243 0.0
-0.548212 0.016115 0.0
-0.539276 0.025415 0.0
-0.270286 -0.001286 0.0
0.063227 0.011209 0.0
0.177158 0.000796 0.0
0.267810 -0.012075 0.0
0.340855 -0.024210 0.0
0.401533 -0.036135 0.0
0.452957 -0.046868 0.0
0.498003 -0.056519 0.0
0.538375 -0.065396 0.0
0.574986 -0.073845 0.0
0.608332 -0.082057 0.0
0.638754 -0.090076 0.0
0.666491 -0.097962 0.0
0.691686 -0.105696 0.0
0.714453 -0.113186 0.0
0.734902 -0.120318 0.0
0.753152 -0.126963 0.0
0.769327 -0.132994 0.0
0.783562 -0.138298 0.0
0.795996 -0.142779 0.0
0.806772 -0.146364 0.0
0.816030 -0.149008 0.0
0.823904 -0.150686 0.0
0.830523 -0.151398 0.0
0.836008 -0.151161 0.0
0.840472 -0.150011 0.0
0.844021 -0.147996 0.0
0.846753 -0.145182 0.0
0.848755 -0.141638 0.0
0.850112 -0.137447 0.0
0.850896 -0.132690 0.0
0.851177 -0.127455 0.0
0.851018 -0.121829 0.0
0.850474 -0.115898 0.0
0.849598 -0.109743 0.0
0.848436 -0.103442 0.0
0.847030 -0.097070 0.0
0.845418 -0.090691 0.0
0.843634 -0.084365 0.0
0.841709 -0.078146 0.0
0.839670 -0.072076 0.0
0.837541 -0.066196 0.0
0.835344 -0.060536 0.0
0.833097 -0.055121 0.0
0.830819 -0.049969 0.0
0.828523 -0.045096 0.0
0.826222 -0.040510 0.0
0.823928 -0.036215 0.0
0.821649 -0.032212 0.0
0.819394 -0.028500 0.0
0.817169 -0.025073 0.0
0.814980 -0.021925 0.0
0.812832 -0.019045 0.0
0.810728 -0.016425 0.0
0.808672 -0.014050 0.0
0.806665 -0.011910 0.0
0.804709 -0.009990 0.0
0.802805 -0.008278 0.0
0.800954 -0.006758 0.0
0.799155 -0.005417 0.0
0.797409 -0.004240 0.0
0.795713 -0.003215 0.0
0.794066 -0.002328 0.0
0.792466 -0.001567 0.0
0.790912 -0.000920 0.0
0.789403 -0.000376 0.0
0.787937 0.000075 0.0
0.786513 0.000443 0.0
0.785129 0.000735 0.0
0.783783 0.000961 0.0
0.782476 0.001129 0.0
0.781208 0.001247 0.0
0.779979 0.001320 0.0
0.778790 0.001355 0.0
0.777641 0.001356 0.0
0.776531 0.001330 0.0
0.775460 0.001280 0.0
0.774429 0.001211 0.0
0.773437 0.001125 0.0
0.772485 0.001027 0.0
0.771573 0.000919 0.0
0.770702 0.000803 0.0
0.769876 0.000683 0.0
0.769096 0.000560 0.0
0.768368 0.000437 0.0
0.767698 0.000318 0.0
0.767097 0.000207 0.0
0.766579 0.000108 0.0
0.766167 0.000032 0.0
0.765893 -0.000010 0.0
0.765796 0.000000 0.0
0.971735 0.028265 0.0
0.902029 0.041441 0.0
0.819281 0.041307 0.0
0.741195 0.036780 0.0
0.673617 0.030798 0.0
0.618417 0.024401 0.0
0.576231 0.017785 0.0
0.548212 0.010233 0.0
0.539276 -0.001297 0.0
0.556739 -0.023069 0.0
0.582913 -0.058574 0.0
0.608698 -0.065686 0.0
0.642223 -0.069771 0.0
0.677174 -0.074510 0.0
0.710296 -0.079635 0.0
0.740637 -0.085132 0.0
0.768075 -0.090740 0.0
0.792866 -0.096338 0.0
0.815293 -0.101941 0.0
0.835561 -0.107575 0.0
0.853808 -0.113227 0.0
0.870130 -0.118870 0.0
0.884591 -0.124443 0.0
0.897241 -0.129855 0.0
0.908136 -0.134994 0.0
0.917343 -0.139742 0.0
0.924937 -0.143984 0.0
0.931009 -0.147615 0.0
0.935658 -0.150545 0.0
0.938990 -0.152705 0.0
0.941112 -0.154047 0.0
0.942134 -0.154544 0.0
0.942165 -0.154190 0.0
0.941307 -0.152997 0.0
0.939664 -0.150995 0.0
0.937329 -0.148227 0.0
0.934395 -0.144748 0.0
0.930946 -0.140626 0.0
0.927062 -0.135932 0.0
0.922818 -0.130745 0.0
0.918283 -0.125146 0.0
0.913518 -0.119215 0.0
0.908582 -0.113033 0.0
0.903527 -0.106676 0.0
0.898400 -0.100219 0.0
0.893243 -0.093729 0.0
0.888091 -0.087268 0.0
0.882979 -0.080892 0.0
0.877932 -0.074647 0.0
0.872974 -0.068578 0.0
0.868124 -0.062717 0.0
0.863399 -0.057093 0.0
0.858811 -0.051729 0.0
0.854369 -0.046640 0.0
0.850079 -0.041840 0.0
0.845947 -0.037333 0.0
0.841974 -0.033124 0.0
0.838161 -0.029211 0.0
0.834507 -0.025592 0.0
0.831009 -0.022259 0.0
0.827664 -0.019206 0.0
0.824469 -0.016421 0.0
0.821418 -0.013894 0.0
0.818506 -0.011613 0.0
0.815728 -0.009563 0.0
0.813077 -0.007731 0.0
0.810548 -0.006104 0.0
0.808132 -0.004665 0.0
0.805822 -0.003402 0.0
0.803611 -0.002298 0.0
0.801489 -0.001340 0.0
0.799446 -0.000514 0.0
0.797474 0.000189 0.0
0.795572 0.000780 0.0
0.793738 0.001268 0.0
0.791971 0.001664 0.0
0.790270 0.001979 0.0
0.788633 0.002220 0.0
0.787059 0.002396 0.0
0.785545 0.002515 0.0
0.784091 0.002584 0.0
0.782693 0.002609 0.0
0.781350 0.002597 0.0
0.780060 0.002553 0.0
0.778821 0.002482 0.0
0.777633 0.002388 0.0
0.776493 0.002275 0.0
0.775401 0.002146 0.0
0.774357 0.002004 0.0
0.773359 0.001851 0.0
0.772409 0.001691 0.0
0.771508 0.001523 0.0
0.770659 0.001349 0.0
0.769866 0.001170 0.0
0.769137 0.000985 0.0
0.768481 0.000796 0.0
0.767915 0.000602 0.0
0.767463 0.000402 0.0
0.767161 0.000196 0.0
0.767052 0.000000 0.0
1.012850 0.043680 0.0
1.034717 0.073865 0.0
1.046503 0.079844 0.0
1.047923 0.074910 0.0
1.043316 0.064852 0.0
1.036636 0.052227 0.0
1.030975 0.037806 0.0
1.028525 0.020679 0.0
1.028493 -0.002774 0.0
1.024710 -0.035272 0.0
1.014582 -0.062417 0.0
1.004473 -0.077519 0.0
0.999346 -0.086336 0.0
0.998989 -0.092539 0.0
1.001887 -0.097626 0.0
1.006692 -0.102286 0.0
1.012429 -0.106762 0.0
1.018467 -0.111145 0.0
1.024394 -0.115490 0.0
1.029924 -0.119824 0.0
1.034844 -0.124145 0.0
1.038994 -0.128424 0.0
1.042253 -0.132608 0.0
1.044530 -0.136618 0.0
1.045769 -0.140365 0.0
1.045942 -0.143750 0.0
1.045047 -0.146676 0.0
1.043106 -0.149055 0.0
1.040161 -0.150809 0.0
1.036268 -0.151879 0.0
1.031495 -0.152221 0.0
1.025917 -0.151814 0.0
1.019616 -0.150649 0.0
1.012676 -0.148741 0.0
1.005183 -0.146115 0.0
0.997223 -0.142812 0.0
0.988879 -0.138885 0.0
0.980233 -0.134395 0.0
0.971363 -0.129410 0.0
0.962345 -0.124005 0.0
0.953247 -0.118253 0.0
0.944135 -0.112231 0.0
0.935069 -0.106014 0.0
0.926100 -0.099672 0.0
0.917278 -0.093274 0.0
0.908644 -0.086883 0.0
0.900233 -0.080553 0.0
0.892075 -0.074336 0.0
0.884195 -0.068275 0.0
0.876610 -0.062408 0.0
0.869336 -0.056763 0.0
0.862381 -0.051366 0.0
0.855750 -0.046236 0.0
0.849445 -0.041385 0.0
0.843463 -0.036823 0.0
0.837800 -0.032554 0.0
0.832448 -0.028578 0.0
0.827399 -0.024894 0.0
0.822642 -0.021497 0.0
0.818165 -0.018379 0.0
0.813955 -0.015532 0.0
0.810000 -0.012944 0.0
0.806285 -0.010605 0.0
0.802797 -0.008502 0.0
0.799521 -0.006619 0.0
0.796441 -0.004944 0.0
0.793542 -0.003462 0.0
0.790805 -0.002154 0.0
0.788205 -0.001003 0.0
0.785722 -0.000003 0.0
0.783352 0.000857 0.0
0.781098 0.001588 0.0
0.778959 0.002199 0.0
0.776930 0.002701 0.0
0.775006 0.003105 0.0
0.773180 0.003420 0.0
0.771448 0.003656 0.0
0.769804 0.003823 0.0
0.768243 0.003928 0.0
0.766759 0.003980 0.0
0.765349 0.003984 0.0
0.764007 0.003948 0.0
0.762730 0.003878 0.0
0.761515 0.003778 0.0
0.760357 0.003653 0.0
0.759253 0.003508 0.0
0.758201 0.003345 0.0
0.757199 0.003168 0.0
0.756245 0.002980 0.0
0.755338 0.002781 0.0
0.754477 0.002572 0.0
0.753663 0.002356 0.0
0.752898 0.002130 0.0
0.752184 0.001894 0.0
0.751529 0.001646 0.0
0.750940 0.001380 0.0
0.750433 0.001091 0.0
0.750028 0.000769 0.0
0.749759 0.000401 0.0
0.749662 0.000000 0.0
1.008272 0.022557 0.0
1.031045 0.050349 0.0
1.060607 0.062011 0.0
1.089250 0.062680 0.0
1.114560 0.056379 0.0
1.136406 0.045535 0.0
1.155337 0.031230 0.0
1.171565 0.013477 0.0
1.183992 -0.007967 0.0
1.190066 -0.032369 0.0
1.189173 -0.054299 0.0
1.184257 -0.070611 0.0
1.178421 -0.082282 0.0
1.173108 -0.090923 0.0
1.168669 -0.097701 0.0
1.165002 -0.103350 0.0
1.161864 -0.108297 0.0
1.159002 -0.112786 0.0
1.156190 -0.116964 0.0
1.153229 -0.120918 0.0
1.149944 -0.124687 0.0
1.146186 -0.128276 0.0
1.141830 -0.131659 0.0
1.136777 -0.134791 0.0
1.130955 -0.137609 0.0
1.124318 -0.140041 0.0
1.116844 -0.142017 0.0
1.108539 -0.143468 0.0
1.099424 -0.144337 0.0
1.089544 -0.144578 0.0
1.078954 -0.144159 0.0
1.067722 -0.143066 0.0
1.055925 -0.141299 0.0
1.043648 -0.138874 0.0
1.030978 -0.135818 0.0
1.018004 -0.132174 0.0
1.004816 -0.127991 0.0
0.991505 -0.123330 0.0
0.978155 -0.118255 0.0
0.964848 -0.112835 0.0
0.951663 -0.107140 0.0
0.938670 -0.101239 0.0
0.925933 -0.095202 0.0
0.913511 -0.089093 0.0
0.901452 -0.082973 0.0
0.889800 -0.076897 0.0
0.878589 -0.070916 0.0
0.867846 -0.065073 0.0
0.857592 -0.059404 0.0
0.847840 -0.053942 0.0
0.838598 -0.048712 0.0
0.829867 -0.043732 0.0
0.821644 -0.039017 0.0
0.813921 -0.034576 0.0
0.806686 -0.030416 0.0