# vtk DataFile Version 3.0
Scalar Field
ASCII
DATASET RECTILINEAR_GRID
DIMENSIONS 100 20 1
X_COORDINATES 100 double
0.050000 0.150000 0.250000 0.350000 0.450000 0.550000 0.650000 0.750000 0.850000 0.950000 1.050000 1.150000 1.250000 1.350000 1.450000 1.550000 1.650000 1.750000 1.850000 1.950000 2.050000 2.150000 2.250000 2.350000 2.450000 2.550000 2.650000 2.750000 2.850000 2.950000 3.050000 3.150000 3.250000 3.350000 3.450000 3.550000 3.650000 3.750000 3.850000 3.950000 4.050000 4.150000 4.250000 4.350000 4.450000 4.550000 4.650000 4.750000 4.850000 4.950000 5.050000 5.150000 5.250000 5.350000 5.450000 5.550000 5.650000 5.750000 5.850000 5.950000 6.050000 6.150000 6.250000 6.350000 6.450000 6.550000 6.650000 6.750000 6.850000 6.950000 7.050000 7.150000 7.250000 7.350000 7.450000 7.550000 7.650000 7.750000 7.850000 7.950000 8.050000 8.150000 8.250000 8.350000 8.450000 8.550000 8.650000 8.750000 8.850000 8.950000 9.050000 9.150000 9.250000 9.350000 9.450000 9.550000 9.650000 9.750000 9.850000 9.950000 
Y_COORDINATES 20 double
0.050000 0.150000 0.250000 0.350000 0.450000 0.550000 0.650000 0.750000 0.850000 0.950000 1.050000 1.150000 1.250000 1.350000 1.450000 1.550000 1.650000 1.750000 1.850000 1.950000 
Z_COORDINATES 1 double
0.0
POINT_DATA 2000
SCALARS Skalarfeld double 1
LOOKUP_TABLE default
0.000000
0.000000
0.000000
0.000000
0.000000
0.000000
0.000000
0.000000
0.000000
-0.143864
-0.143864
-0.144423
-0.144881
-0.145037
-0.144860
-0.144360
-0.143538
-0.142372
-0.140823
-0.138837
-0.136343
-0.133257
-0.129484
-0.124929
-0.119505
-0.113153
-0.105851
-0.097617
-0.088516
-0.078662
-0.068232
-0.057430
-0.046442
-0.035449
-0.024618
-0.014105
-0.004055
0.005417
0.014237
0.022363
0.029729
0.036309
0.042141
0.047202
0.051516
0.055133
0.058082
0.060421
0.062211
0.063508
0.064368
0.064843
0.064985
0.064838
0.064446
0.063847
0.063076
0.062163
0.061136
0.060017
0.058827
0.057584
0.056300
0.054990
0.053661
0.052323
0.050982
0.049643
0.048309
0.046983
0.045666
0.044361
0.043068
0.041786
0.040515
0.039255
0.038005
0.036764
0.035531
0.034305
0.033084
0.031867
0.030653
0.029442
0.028231
0.027020
0.025808
0.024593
0.023376
0.022156
0.020931
0.019701
0.018467
0.017228
0.015983
0.014734
0.013481
0.012224
0.010966
0.009708
0.000000
0.000000
0.000000
0.000000
0.000000
0.000000
0.000000
0.000000
0.000000
-0.143307
-0.143307
-0.143909
-0.144262
-0.144340
-0.144136
-0.143643
-0.142839
-0.141696
-0.140174
-0.138221
-0.135776
-0.132762
-0.129089
-0.124662
-0.119391
-0.113205
-0.106073
-0.098005
-0.089050
-0.079349
-0.069055
-0.058348
-0.047436
-0.036507
-0.025726
-0.015244
-0.005212
0.004249
0.013057
0.021207
0.028594
0.035174
0.041076
0.046199
0.050565
0.054225
0.057224
0.059617
0.061460
0.062810
0.063722
0.064249
0.064440
0.064341
0.063994
0.063438
0.062708
0.061833
0.060841
0.059755
0.058596
0.057380
0.056122
0.054834
0.053527
0.052207
0.050883
0.049558
0.048237
0.046922
0.045616
0.044319
0.043033
0.041757
0.040491
0.039236
0.037989
0.036751
0.035520
0.034295
0.033075
0.031860
0.030647
0.029435
0.028225
0.027013
0.025801
0.024586
0.023369
0.022148
0.020923
0.019693
0.018458
0.017219
0.015975
0.014726
0.013473
0.012218
0.010961
0.009706
0.000000
0.000000
0.000000
0.000000
0.000000
0.000000
0.000000
0.000000
0.000000
-0.142968
-0.142968
-0.143773
-0.144135
-0.144190
-0.143981
-0.143503
-0.142733
-0.141637
-0.140180
-0.138317
-0.135995
-0.133142
-0.129667
-0.125459
-0.120403
-0.114403
-0.107423
-0.099462
-0.090554
-0.080823
-0.070474
-0.059710
-0.048749
-0.037787
-0.026967
-0.016431
-0.006354
0.003128
0.011906
0.020170
0.027616
0.034272
0.040176
0.045315
0.049709
0.053397
0.056428
0.058854
0.060732
0.062117
0.063064
0.063627
0.063854
0.063791
0.063480
0.062960
0.062265
0.061425
0.060466
0.059413
0.058284
0.057098
0.055868
0.054606
0.053323
0.052027
0.050723
0.049418
0.048114
0.046816
0.045524
0.044240
0.042966
0.041700
0.040444
0.039196
0.037957
0.036725
0.035499
0.034279
0.033063
0.031850
0.030639
0.029430
0.028221
0.027011
0.025799
0.024585
0.023368
0.022146
0.020921
0.019690
0.018454
0.017213
0.015967
0.014716
0.013461
0.012203
0.010944
0.009689
0.000000
0.000000
0.000000
0.000000
0.000000
0.000000
0.000000
0.000000
0.000000
-0.143433
-0.143433
-0.144409
-0.144795
-0.144834
-0.144611
-0.144130
-0.143374
-0.142316
-0.140928
-0.139174
-0.137012
-0.134371
-0.131154
-0.127213
-0.122390
-0.116537
-0.109653
-0.101535
-0.092487
-0.082610
-0.072136
-0.061258
-0.050219
-0.039232
-0.028364
-0.017726
-0.007606
0.001929
0.010809
0.019032
0.026489
0.033165
0.039072
0.044215
0.048620
0.052324
0.055375
0.057825
0.059731
0.061148
0.062130
0.062730
0.062996
0.062975
0.062708
0.062232
0.061582
0.060787
0.059873
0.058864
0.057780
0.056636
0.055447
0.054225
0.052979
0.051718
0.050448
0.049174
0.047899
0.046627
0.045360
0.044099
0.042844
0.041597
0.040358
0.039125
0.037898
0.036678
0.035462
0.034250
0.033042
0.031836
0.030631
0.029426
0.028220
0.027013
0.025803
0.024590
0.023374
0.022152
0.020926
0.019693
0.018455
0.017210
0.015959
0.014702
0.013439
0.012172
0.010903
0.009640
0.000000
0.000000
0.000000
0.000000
0.000000
0.000000
0.000000
0.000000
0.000000
-0.145162
-0.145162
-0.146173
-0.146466
-0.146386
-0.146052
-0.145485
-0.144674
-0.143603
-0.142244
-0.140569
-0.138549
-0.136104
-0.133133
-0.129421
-0.124762
-0.118876
-0.111560
-0.103291
-0.094193
-0.084130
-0.073570
-0.062677
-0.051600
-0.040534
-0.029626
-0.019029
-0.008919
0.000604
0.009471
0.017642
0.025059
0.031702
0.037577
0.042696
0.047086
0.050787
0.053846
0.056314
0.058245
0.059696
0.060720
0.061367
0.061687
0.061723
0.061517
0.061105
0.060521
0.059793
0.058947
0.058005
0.056986
0.055906
0.054780
0.053618
0.052430
0.051224
0.050006
0.048780
0.047551
0.046321
0.045093
0.043868
0.042646
0.041428
0.040215
0.039007
0.037802
0.036600
0.035401
0.034204
0.033009
0.031813
0.030618
0.029421
0.028222
0.027019
0.025814
0.024604
0.023388
0.022167
0.020939
0.019705
0.018462
0.017211
0.015951
0.014682
0.013405
0.012120
0.010829
0.009541
0.000000
0.000000
0.000000
0.000000
0.000000
0.000000
0.000000
0.000000
0.000000
-0.148538
-0.148538
-0.149295
-0.149162
-0.148683
-0.148031
-0.147231
-0.146266
-0.145112
-0.143722
-0.142053
-0.140115
-0.137761
-0.134957
-0.131291
-0.126245
-0.120019
-0.112678
-0.104311
-0.095059
-0.085020
-0.074459
-0.063573
-0.052540
-0.041537
-0.030725
-0.020253
-0.010264
-0.000860
0.007890
0.015936
0.023240
0.029785
0.035576
0.040630
0.044974
0.048649
0.051700
0.054178
0.056136
0.057627
0.058704
0.059415
0.059807
0.059923
0.059803
0.059482
0.058991
0.058359
0.057609
0.056763
0.055839
0.054852
0.053815
0.052740
0.051635
0.050508
0.049364
0.048208
0.047044
0.045875
0.044703
0.043529
0.042355
0.041180
0.040006
0.038832
0.037659
0.036485
0.035311
0.034136
0.032959
0.031780
0.030599
0.029414
0.028224
0.027030
0.025831
0.024625
0.023412
0.022192
0.020963
0.019725
0.018477
0.017218
0.015946
0.014661
0.013361
0.012046
0.010719
0.009383
0.000000
0.000000
0.000000
0.000000
0.000000
0.000000
0.000000
0.000000
0.000000
-0.154089
-0.154089
-0.153866
-0.152574
-0.151211
-0.149968
-0.148787
-0.147596
-0.146333
-0.144858
-0.143133
-0.141343
-0.138948
-0.135754
-0.131510
-0.126269
-0.119937
-0.112533
-0.104146
-0.094908
-0.084969
-0.074537
-0.063809
-0.052965
-0.042178
-0.031605
-0.021387
-0.011648
-0.002484
0.006036
0.013866
0.020976
0.027354
0.033005
0.037948
0.042212
0.045836
0.048865
0.051347
0.053333
0.054873
0.056017
0.056811
0.057300
0.057523
0.057519
0.057319
0.056954
0.056450
0.055829
0.055111
0.054314
0.053451
0.052534
0.051574
0.050579
0.049557
0.048512
0.047449
0.046372
0.045283
0.044185
0.043080
0.041968
0.040850
0.039727
0.038600
0.037468
0.036331
0.035190
0.034044
0.032893
0.031736
0.030574
0.029405
0.028229
0.027046
0.025855
0.024656
0.023447
0.022229
0.021000
0.019759
0.018505
0.017236
0.015949
0.014644
0.013316
0.011963
0.010582
0.009174
0.000000
0.000000
0.000000
0.000000
0.000000
0.000000
0.000000
0.000000
0.000000
-0.163084
-0.163084
-0.159780
-0.155906
-0.153069
-0.151199
-0.149614
-0.148101
-0.146828
-0.145315
-0.143481
-0.141081
-0.138265
-0.134765
-0.130356
-0.124965
-0.118551
-0.111140
-0.102820
-0.093720
-0.083995
-0.073830
-0.063409
-0.052908
-0.042488
-0.032297
-0.022466
-0.013106
-0.004302
0.003883
0.011406
0.018243
0.024387
0.029844
0.034635
0.038788
0.042342
0.045338
0.047822
0.049841
0.051442
0.052670
0.053569
0.054180
0.054539
0.054680
0.054634
0.054428
0.054085
0.053626
0.053069
0.052430
0.051722
0.050954
0.050138
0.049281
0.048388
0.047465
0.046517
0.045547
0.044558
0.043552
0.042530
0.041495
0.040447
0.039388
0.038317
0.037236
0.036145
0.035044
0.033934
0.032815
0.031685
0.030546
0.029397
0.028238
0.027069
0.025889
0.024698
0.023496
0.022281
0.021053
0.019810
0.018550
0.017271
0.015970
0.014643
0.013285
0.011888
0.010445
0.008947
0.000000
0.000000
0.000000
0.000000
0.000000
0.000000
0.000000
0.000000
0.000000
-0.178740
-0.178740
-0.166269
-0.157775
-0.153085
-0.150989
-0.149040
-0.147478
-0.145719
-0.143872
-0.141835
-0.139326
-0.136280
-0.132534
-0.127942
-0.122431
-0.115983
-0.108635
-0.100474
-0.091622
-0.082229
-0.072461
-0.062486
-0.052466
-0.042550
-0.032872
-0.023549
-0.014678
-0.006336
0.001422
0.008560
0.015060
0.020916
0.026137
0.030745
0.034766
0.038236
0.041194
0.043682
0.045742
0.047418
0.048749
0.049776
0.050533
0.051055
0.051371
0.051508
0.051491
0.051339
0.051072
0.050706
0.050253
0.049726
0.049134
0.048485
0.047787
0.047046
0.046266
0.045451
0.044605
0.043731
0.042830
0.041906
0.040959
0.039992
0.039005
0.038000
0.036978
0.035938
0.034884
0.033815
0.032731
0.031633
0.030521
0.029395
0.028256
0.027103
0.025936
0.024755
0.023560
0.022350
0.021124
0.019881
0.018618
0.017332
0.016019
0.014673
0.013287
0.011850
0.010346
0.008755
0.378726
0.251257
0.171130
0.109538
0.056781
0.009051
-0.035739
-0.079515
-0.125401
-0.189426
-0.206454
-0.168956
-0.155997
-0.151017
-0.147970
-0.146290
-0.144780
-0.143116
-0.141239
-0.139040
-0.136363
-0.133104
-0.129151
-0.124409
-0.118832
-0.112420
-0.105218
-0.097310
-0.088813
-0.079861
-0.070605
-0.061193
-0.051769
-0.042466
-0.033403
-0.024682
-0.016386
-0.008582
-0.001315
0.005385
0.011502
0.017036
0.021996
0.026402
0.030281
0.033664
0.036587
0.039086
0.041200
0.042966
0.044418
0.045592
0.046518
0.047226
0.047740
0.048084
0.048278
0.048341
0.048288
0.048133
0.047887
0.047561
0.047162
0.046699
0.046177
0.045602
0.044978
0.044309
0.043598
0.042848
0.042063
0.041244
0.040393
0.039512
0.038604
0.037670
0.036712
0.035731
0.034727
0.033702
0.032656
0.031590
0.030507
0.029405
0.028286
0.027149
0.025997
0.024827
0.023641
0.022437
0.021215
0.019974
0.018710
0.017421
0.016102
0.014745
0.013342
0.011876
0.010329
0.008667
0.378726
0.251257
0.171130
0.109538
0.056781
0.009051
-0.035739
-0.079515
-0.125401
-0.172397
-0.178211
-0.163437
-0.153290
-0.147867
-0.144750
-0.142798
-0.141165
-0.139451
-0.137482
-0.135134
-0.132290
-0.128860
-0.124765
-0.119949
-0.114391
-0.108105
-0.101143
-0.093585
-0.085537
-0.077120
-0.068464
-0.059700
-0.050952
-0.042336
-0.033953
-0.025890
-0.018219
-0.010992
-0.004250
0.001985
0.007702
0.012902
0.017596
0.021800
0.025540
0.028843
0.031740
0.034263
0.036443
0.038313
0.039902
0.041239
0.042350
0.043258
0.043984
0.044549
0.044969
0.045259
0.045431
0.045498
0.045469
0.045352
0.045155
0.044884
0.044545
0.044141
0.043678
0.043159
0.042588
0.041967
0.041299
0.040588
0.039835
0.039043
0.038216
0.037354
0.036459
0.035535
0.034581
0.033600
0.032593
0.031561
0.030506
0.029429
0.028331
0.027212
0.026074
0.024916
0.023740
0.022544
0.021328
0.020090
0.018829
0.017542
0.016223
0.014865
0.013458
0.011986
0.010425
0.008740
0.251664
0.210673
0.158872
0.107963
0.059853
0.014429
-0.028819
-0.070224
-0.107944
-0.138377
-0.149927
-0.148289
-0.144401
-0.141362
-0.139245
-0.137661
-0.136187
-0.134548
-0.132584
-0.130186
-0.127271
-0.123774
-0.119649
-0.114870
-0.109436
-0.103374
-0.096740
-0.089611
-0.082082
-0.074260
-0.066256
-0.058183
-0.050147
-0.042245
-0.034563
-0.027172
-0.020132
-0.013486
-0.007266
-0.001488
0.003839
0.008718
0.013159
0.017178
0.020795
0.024034
0.026920
0.029481
0.031742
0.033728
0.035464
0.036972
0.038274
0.039388
0.040331
0.041118
0.041764
0.042280
0.042677
0.042964
0.043148
0.043238
0.043239
0.043156
0.042994
0.042758
0.042452
0.042077
0.041643
0.041144
0.040587
0.039975
0.039315
0.038609
0.037858
0.037065
0.036233
0.035363
0.034458
0.033520
0.032550
0.031551
0.030524
0.029471
0.028393
0.027291
0.026167
0.025021
0.023855
0.022667
0.021458
0.020227
0.018973
0.017692
0.016380
0.015032
0.013637
0.012181
0.010643
0.008990
0.190588
0.175096
0.143535
0.105393
0.065090
0.024779
-0.014305
-0.050954
-0.082863
-0.107846
-0.122608
-0.128787
-0.130819
-0.131288
-0.131157
-0.130682
-0.129849
-0.128591
-0.126850
-0.124578
-0.121739
-0.118308
-0.114272
-0.109633
-0.104412
-0.098648
-0.092400
-0.085741
-0.078758
-0.071545
-0.064197
-0.056810
-0.049471
-0.042263
-0.035255
-0.028506
-0.022063
-0.015961
-0.010224
-0.004866
0.000109
0.004704
0.008926
0.012790
0.016311
0.019510
0.022406
0.025020
0.027372
0.029481
0.031367
0.033047
0.034536
0.035849
0.036999
0.037999
0.038859
0.039587
0.040193
0.040684
0.041066
0.041346
0.041528
0.041618
0.041619
0.041534
0.041375
0.041127
0.040799
0.040406
0.039952
0.039436
0.038863
0.038235
0.037555
0.036826
0.036050
0.035230
0.034369
0.033469
0.032533
0.031563
0.030561
0.029529
0.028469
0.027383
0.026272
0.025137
0.023980
0.022800
0.021599
0.020377
0.019131
0.017861
0.016563
0.015232
0.013863
0.012443
0.010958
0.009386
0.162749
0.154799
0.133485
0.104038
0.070328
0.035074
0.000260
-0.032445
-0.061179
-0.084343
-0.100708
-0.110929
-0.116943
-0.120404
-0.122301
-0.123138
-0.123148
-0.122435
-0.121046
-0.119010
-0.116342
-0.113061
-0.109187
-0.104749
-0.099785
-0.094346
-0.088494
-0.082301
-0.075846
-0.069210
-0.062475
-0.055720
-0.049020
-0.042440
-0.036036
-0.029857
-0.023939
-0.018309
-0.012987
-0.007981
-0.003297
0.001068
0.005121
0.008872
0.012334
0.015520
0.018446
0.021126
0.023576
0.025809
0.027840
0.029680
0.031342
0.032837
0.034173
0.035361
0.036409
0.037323
0.038111
0.038779
0.039331
0.039777
0.040112
0.040354
0.040491
0.040521
0.040453
0.040313
0.040095
0.039801
0.039436
0.039003
0.038504
0.037943
0.037323
0.036647
0.035919
0.035141
0.034317
0.033450
0.032542
0.031596
0.030614
0.029600
0.028555
0.027481
0.026381
0.025255
0.024106
0.022935
0.021741
0.020527
0.019291
0.018033
0.016752
0.015445
0.014108
0.012736
0.011322
0.009856
0.152817
0.147139
0.130183
0.105156
0.075257
0.043166
0.011113
-0.019021
-0.045686
-0.067807
-0.084798
-0.096968
-0.105282
-0.110774
-0.114241
-0.116210
-0.117009
-0.116838
-0.115825
-0.114056
-0.111597
-0.108501
-0.104818
-0.100600
-0.095901
-0.090780
-0.085302
-0.079537
-0.073555
-0.067429
-0.061228
-0.055018
-0.048860
-0.042807
-0.036905
-0.031191
-0.025695
-0.020438
-0.015437
-0.010699
-0.006228
-0.002023
0.001919
0.005606
0.009045
0.012246
0.015219
0.017975
0.020522
0.022872
0.025033
0.027015
0.028825
0.030473
0.031964
0.033307
0.034508
0.035572
0.036507
0.037315
0.038000
0.038586
0.039033
0.039354
0.039577
0.039710
0.039749
0.039701
0.039568
0.039352
0.039058
0.038689
0.038248
0.037739
0.037166
0.036531
0.035840
0.035095
0.034299
0.033457
0.032570
0.031642
0.030676
0.029675
0.028642
0.027577
0.026485
0.025367
0.024224
0.023058
0.021872
0.020665
0.019439
0.018193
0.016929
0.015645
0.014342
0.013017
0.011671
0.010308
0.155602
0.149983
0.133279
0.108754
0.079678
0.048800
0.018260
-0.010288
-0.035625
-0.056986
-0.074066
-0.087069
-0.096577
-0.103280
-0.107791
-0.110586
-0.112005
-0.112290
-0.111611
-0.110096
-0.107845
-0.104939
-0.101452
-0.097450
-0.093001
-0.088169
-0.083020
-0.077621
-0.072035
-0.066326
-0.060553
-0.054773
-0.049035
-0.043382
-0.037853
-0.032479
-0.027283
-0.022286
-0.017499
-0.012933
-0.008591
-0.004476
-0.000586
0.003082
0.006532
0.009770
0.012801
0.015633
0.018271
0.020722
0.022993
0.025088
0.027016
0.028781
0.030390
0.031849
0.033165
0.034339
0.035384
0.036299
0.037067
0.037688
0.038216
0.038634
0.038947
0.039159
0.039272
0.039290
0.039217
0.039057
0.038813
0.038489
0.038089
0.037617
0.037076
0.036471
0.035806
0.035083
0.034307
0.033482
0.032610
0.031695
0.030740
0.029747
0.028721
0.027663
0.026576
0.025462
0.024324
0.023163
0.021981
0.020780
0.019562
0.018327
0.017076
0.015812
0.014535
0.013247
0.011954
0.010667
0.171001
0.163334
0.143011
0.115358
0.084320
0.052643
0.022218
-0.005665
-0.030181
-0.050902
-0.067750
-0.080954
-0.090954
-0.098266
-0.103376
-0.106691
-0.108534
-0.109151
-0.108733
-0.107429
-0.105361
-0.102628
-0.099317
-0.095508
-0.091272
-0.086677
-0.081789
-0.076670
-0.071379
-0.065973
-0.060503
-0.055017
-0.049559
-0.044167
-0.038873
-0.033705
-0.028684
-0.023830
-0.019156
-0.014671
-0.010382
-0.006293
-0.002405
0.001280
0.004766
0.008053
0.011146
0.014047
0.016762
0.019294
0.021648
0.023828
0.025840
0.027689
0.029380
0.030916
0.032318
0.033559
0.034643
0.035590
0.036423
0.037130
0.037722
0.038201
0.038570
0.038832
0.038992
0.039052
0.039018
0.038892
0.038680
0.038385
0.038010
0.037561
0.037041
0.036454
0.035805
0.035096
0.034332
0.033517
0.032654
0.031746
0.030797
0.029810
0.028788
0.027734
0.026650
0.025538
0.024402
0.023244
0.022065
0.020868
0.019654
0.018426
0.017185
0.015933
0.014673
0.013409
0.012145
0.010898
0.203736
0.188776
0.159019
0.124040
0.088368
0.054276
0.023001
-0.004779
-0.028747
-0.048857
-0.065270
-0.078301
-0.088354
-0.095861
-0.101227
-0.104801
-0.106878
-0.107696
-0.107447
-0.106289
-0.104352
-0.101747
-0.098567
-0.094896
-0.090809
-0.086373
-0.081653
-0.076708
-0.071593
-0.066360
-0.061056
-0.055726
-0.050408
-0.045140
-0.039950
-0.034866
-0.029910
-0.025100
-0.020451
-0.015974
-0.011678
-0.007569
-0.003650
0.000076
0.003609
0.006950
0.010101
0.013062
0.015838
0.018431
0.020846
0.023086
0.025154
0.027061
0.028806
0.030384
0.031794
0.033073
0.034214
0.035218
0.036095
0.036846
0.037476
0.037990
0.038390
0.038680
0.038866
0.038950
0.038937
0.038830
0.038635
0.038355
0.037995
0.037558
0.037048
0.036471
0.035830
0.035128
0.034370
0.033560
0.032701
0.031796
0.030850
0.029865
0.028844
0.027791
0.026707
0.025597
0.024461
0.023303
0.022125
0.020929
0.019717
0.018492
0.017255
0.016009
0.014757
0.013502
0.012250
0.011010
0.268595
0.228416
0.179163
0.132542
0.090591
0.053482
0.021097
-0.006745
-0.030288
-0.049845
-0.065782
-0.078499
-0.088399
-0.095874
-0.101278
-0.104924
-0.107081
-0.107975
-0.107795
-0.106699
-0.104821
-0.102272
-0.099150
-0.095538
-0.091511
-0.087137
-0.082479
-0.077593
-0.072533
-0.067349
-0.062087
-0.056790
-0.051496
-0.046240
-0.041053
-0.035961
-0.030987
-0.026152
-0.021469
-0.016953
-0.012613
-0.008455
-0.004485
-0.000706
0.002881
0.006275
0.009477
0.012489
0.015314
0.017955
0.020416
0.022698
0.024803
0.026732
0.028498
0.030111
0.031568
0.032880
0.034050
0.035084
0.035985
0.036759
0.037408
0.037939
0.038355
0.038659
0.038857
0.038952
0.038948
0.038851
0.038663
0.038389
0.038034
0.037601
0.037096
0.036521
0.035882
0.035182
0.034426
0.033616
0.032757
0.031853
0.030906
0.029920
0.028898
0.027843
0.026759
0.025647
0.024510
0.023350
0.022171
0.020974
0.019761
0.018535
0.017298
0.016052
0.014801
0.013546
0.012293
0.011046
0.397494
0.270929
0.193553
0.136517
0.090263
0.051338
0.018296
-0.009642
-0.033032
-0.052361
-0.068085
-0.080638
-0.090427
-0.097829
-0.103185
-0.106794
-0.108916
-0.109775
-0.109558
-0.108424
-0.106507
-0.103920
-0.100760
-0.097111
-0.093048
-0.088637
-0.083941
-0.079016
-0.073915
-0.068686
-0.063377
-0.058028
-0.052679
-0.047366
-0.042118
-0.036964
-0.031926
-0.027026
-0.022279
-0.017699
-0.013295
-0.009076
-0.005047
-0.001211
0.002430
0.005875
0.009126
0.012183
0.015050
0.017729
0.020222
0.022535
0.024672
0.026635
0.028430
0.030067
0.031548
0.032880
0.034068
0.035116
0.036031
0.036815
0.037475
0.038013
0.038436
0.038746
0.038948
0.039046
0.039045
0.038948
0.038761
0.038488
0.038132
0.037699
0.037192
0.036615
0.035974
0.035271
0.034512
0.033699
0.032837
0.031929
0.030979
0.029990
0.028964
0.027906
0.026818
0.025702
0.024562
0.023399
0.022216
0.021015
0.019799
0.018570
0.017329
0.016079
0.014824
0.013565
0.012306
0.011050
