# vtk DataFile Version 3.0
Scalar Field
ASCII
DATASET RECTILINEAR_GRID
DIMENSIONS 100 20 1
X_COORDINATES 100 double
0.050000 0.150000 0.250000 0.350000 0.450000 0.550000 0.650000 0.750000 0.850000 0.950000 1.050000 1.150000 1.250000 1.350000 1.450000 1.550000 1.650000 1.750000 1.850000 1.950000 2.050000 2.150000 2.250000 2.350000 2.450000 2.550000 2.650000 2.750000 2.850000 2.950000 3.050000 3.150000 3.250000 3.350000 3.450000 3.550000 3.650000 3.750000 3.850000 3.950000 4.050000 4.150000 4.250000 4.350000 4.450000 4.550000 4.650000 4.750000 4.850000 4.950000 5.050000 5.150000 5.250000 5.350000 5.450000 5.550000 5.650000 5.750000 5.850000 5.950000 6.050000 6.150000 6.250000 6.350000 6.450000 6.550000 6.650000 6.750000 6.850000 6.950000 7.050000 7.150000 7.250000 7.350000 7.450000 7.550000 7.650000 7.750000 7.850000 7.950000 8.050000 8.150000 8.250000 8.350000 8.450000 8.550000 8.650000 8.750000 8.850000 8.950000 9.050000 9.150000 9.250000 9.350000 9.450000 9.550000 9.650000 9.750000 9.850000 9.950000 
Y_COORDINATES 20 double
0.050000 0.150000 0.250000 0.350000 0.450000 0.550000 0.650000 0.750000 0.850000 0.950000 1.050000 1.150000 1.250000 1.350000 1.450000 1.550000 1.650000 1.750000 1.850000 1.950000 
Z_COORDINATES 1 double
0.0
POINT_DATA 2000
SCALARS Skalarfeld double 1
LOOKUP_TABLE default
0.000000
0.000000
0.000000
0.000000
0.000000
0.000000
0.000000
0.000000
0.000000
-0.143299
-0.143299
-0.143856
-0.144313
-0.144465
-0.144284
-0.143779
-0.142951
-0.141778
-0.140223
-0.138231
-0.135736
-0.132656
-0.128900
-0.124376
-0.119004
-0.112730
-0.105533
-0.097435
-0.088501
-0.078844
-0.068631
-0.058060
-0.047310
-0.036556
-0.025959
-0.015664
-0.005812
0.003486
0.012152
0.020147
0.027416
0.033930
0.039710
0.044761
0.049082
0.052737
0.055741
0.058151
0.060025
0.061416
0.062378
0.062962
0.063215
0.063184
0.062908
0.062424
0.061767
0.060965
0.060046
0.059031
0.057941
0.056792
0.055598
0.054370
0.053120
0.051853
0.050577
0.049295
0.048013
0.046731
0.045452
0.044177
0.042906
0.041638
0.040376
0.039121
0.037873
0.036630
0.035392
0.034156
0.032920
0.031683
0.030442
0.029196
0.027943
0.026681
0.025409
0.024126
0.022829
0.021519
0.020193
0.018852
0.017494
0.016120
0.014728
0.013319
0.011894
0.010453
0.008999
0.007542
0.000000
0.000000
0.000000
0.000000
0.000000
0.000000
0.000000
0.000000
0.000000
-0.142742
-0.142742
-0.143344
-0.143695
-0.143770
-0.143564
-0.143066
-0.142258
-0.141109
-0.139582
-0.137626
-0.135180
-0.132171
-0.128513
-0.124115
-0.118891
-0.112776
-0.105744
-0.097805
-0.089012
-0.079500
-0.069419
-0.058940
-0.048262
-0.037568
-0.027019
-0.016755
-0.006919
0.002369
0.011028
0.019040
0.026333
0.032857
0.038680
0.043799
0.048176
0.051871
0.054924
0.057385
0.059310
0.060752
0.061765
0.062398
0.062700
0.062714
0.062482
0.062040
0.061422
0.060658
0.059773
0.058790
0.057730
0.056608
0.055439
0.054234
0.053004
0.051756
0.050496
0.049230
0.047960
0.046691
0.045422
0.044156
0.042893
0.041632
0.040375
0.039124
0.037880
0.036641
0.035405
0.034171
0.032937
0.031701
0.030461
0.029215
0.027962
0.026699
0.025427
0.024142
0.022845
0.021533
0.020206
0.018862
0.017502
0.016126
0.014732
0.013322
0.011895
0.010454
0.009000
0.007542
0.000000
0.000000
0.000000
0.000000
0.000000
0.000000
0.000000
0.000000
0.000000
-0.142405
-0.142405
-0.143209
-0.143570
-0.143623
-0.143411
-0.142930
-0.142155
-0.141055
-0.139592
-0.137726
-0.135401
-0.132548
-0.129081
-0.124893
-0.119874
-0.113937
-0.107047
-0.099207
-0.090457
-0.080917
-0.070781
-0.060245
-0.049515
-0.038784
-0.028203
-0.017881
-0.007998
0.001318
0.009960
0.018050
0.025412
0.032003
0.037855
0.042980
0.047384
0.051106
0.054188
0.056681
0.058639
0.060115
0.061161
0.061828
0.062164
0.062212
0.062014
0.061606
0.061021
0.060290
0.059436
0.058484
0.057453
0.056359
0.055217
0.054037
0.052831
0.051605
0.050365
0.049118
0.047866
0.046612
0.045359
0.044106
0.042855
0.041605
0.040356
0.039113
0.037877
0.036645
0.035415
0.034186
0.032956
0.031724
0.030487
0.029243
0.027992
0.026731
0.025459
0.024175
0.022877
0.021565
0.020238
0.018894
0.017533
0.016154
0.014757
0.013341
0.011907
0.010457
0.008994
0.007509
0.000000
0.000000
0.000000
0.000000
0.000000
0.000000
0.000000
0.000000
0.000000
-0.142871
-0.142871
-0.143846
-0.144230
-0.144268
-0.144042
-0.143558
-0.142798
-0.141735
-0.140341
-0.138580
-0.136410
-0.133762
-0.130542
-0.126610
-0.121812
-0.116011
-0.109211
-0.101218
-0.092324
-0.082642
-0.072379
-0.061729
-0.050913
-0.040141
-0.029539
-0.019100
-0.009168
0.000197
0.008929
0.017014
0.024377
0.030986
0.036849
0.041978
0.046392
0.050128
0.053229
0.055746
0.057729
0.059234
0.060313
0.061014
0.061387
0.061474
0.061315
0.060948
0.060405
0.059715
0.058904
0.057993
0.057003
0.055948
0.054844
0.053701
0.052530
0.051337
0.050130
0.048912
0.047688
0.046460
0.045229
0.043998
0.042767
0.041535
0.040304
0.039076
0.037854
0.036635
0.035416
0.034197
0.032976
0.031751
0.030520
0.029282
0.028036
0.026779
0.025510
0.024229
0.022934
0.021623
0.020296
0.018952
0.017589
0.016207
0.014804
0.013380
0.011934
0.010466
0.008975
0.007426
0.000000
0.000000
0.000000
0.000000
0.000000
0.000000
0.000000
0.000000
0.000000
-0.144599
-0.144599
-0.145609
-0.145901
-0.145820
-0.145483
-0.144913
-0.144098
-0.143021
-0.141655
-0.139970
-0.137937
-0.135477
-0.132491
-0.128781
-0.124134
-0.118306
-0.111076
-0.102926
-0.093970
-0.084122
-0.073756
-0.063075
-0.052225
-0.041384
-0.030709
-0.020314
-0.010389
-0.001031
0.007693
0.015741
0.023066
0.029645
0.035481
0.040587
0.044988
0.048720
0.051828
0.054360
0.056367
0.057903
0.059020
0.059765
0.060186
0.060326
0.060224
0.059916
0.059434
0.058806
0.058057
0.057208
0.056279
0.055285
0.054239
0.053153
0.052035
0.050894
0.049735
0.048564
0.047382
0.046194
0.045001
0.043804
0.042604
0.041401
0.040197
0.038998
0.037800
0.036601
0.035401
0.034198
0.032991
0.031778
0.030559
0.029331
0.028093
0.026844
0.025583
0.024307
0.023017
0.021710
0.020386
0.019043
0.017679
0.016294
0.014884
0.013448
0.011984
0.010485
0.008949
0.007307
0.000000
0.000000
0.000000
0.000000
0.000000
0.000000
0.000000
0.000000
0.000000
-0.147972
-0.147972
-0.148729
-0.148595
-0.148115
-0.147462
-0.146659
-0.145690
-0.144530
-0.143132
-0.141452
-0.139496
-0.137123
-0.134291
-0.130635
-0.125610
-0.119426
-0.112174
-0.103925
-0.094823
-0.084971
-0.074605
-0.063927
-0.053110
-0.042325
-0.031725
-0.021448
-0.011636
-0.002387
0.006228
0.014162
0.021382
0.027869
0.033627
0.038671
0.043027
0.046734
0.049832
0.052372
0.054403
0.055976
0.057140
0.057944
0.058433
0.058647
0.058625
0.058402
0.058007
0.057468
0.056809
0.056050
0.055209
0.054302
0.053340
0.052336
0.051296
0.050229
0.049141
0.048035
0.046916
0.045786
0.044646
0.043498
0.042343
0.041182
0.040025
0.038866
0.037702
0.036533
0.035360
0.034180
0.032995
0.031801
0.030599
0.029386
0.028162
0.026926
0.025676
0.024410
0.023129
0.021830
0.020512
0.019172
0.017811
0.016423
0.015007
0.013559
0.012071
0.010536
0.008942
0.007192
0.000000
0.000000
0.000000
0.000000
0.000000
0.000000
0.000000
0.000000
0.000000
-0.153519
-0.153519
-0.153296
-0.152005
-0.150642
-0.149398
-0.148216
-0.147020
-0.145751
-0.144268
-0.142530
-0.140717
-0.138306
-0.135102
-0.130862
-0.125644
-0.119361
-0.112042
-0.103771
-0.094678
-0.084912
-0.074668
-0.064138
-0.053499
-0.042915
-0.032538
-0.022501
-0.012926
-0.003907
0.004491
0.012222
0.019256
0.025583
0.031207
0.036144
0.040422
0.044078
0.047154
0.049695
0.051751
0.053368
0.054595
0.055476
0.056054
0.056369
0.056455
0.056346
0.056069
0.055651
0.055114
0.054476
0.053755
0.052965
0.052117
0.051222
0.050287
0.049320
0.048326
0.047310
0.046273
0.045220
0.044152
0.043070
0.041976
0.040878
0.039782
0.038672
0.037552
0.036423
0.035285
0.034138
0.032981
0.031814
0.030635
0.029444
0.028240
0.027021
0.025788
0.024538
0.023270
0.021983
0.020676
0.019345
0.017990
0.016605
0.015186
0.013726
0.012217
0.010646
0.008994
0.007139
0.000000
0.000000
0.000000
0.000000
0.000000
0.000000
0.000000
0.000000
0.000000
-0.162505
-0.162505
-0.159206
-0.155336
-0.152501
-0.150629
-0.149045
-0.147529
-0.146244
-0.144728
-0.142879
-0.140472
-0.137639
-0.134134
-0.129735
-0.124374
-0.118016
-0.110691
-0.102486
-0.093526
-0.083964
-0.073976
-0.063741
-0.053429
-0.043197
-0.033185
-0.023520
-0.014308
-0.005634
0.002442
0.009877
0.016650
0.022751
0.028187
0.032976
0.037146
0.040732
0.043773
0.046313
0.048397
0.050070
0.051376
0.052355
0.053048
0.053490
0.053715
0.053751
0.053625
0.053360
0.052977
0.052493
0.051924
0.051281
0.050576
0.049819
0.049016
0.048174
0.047298
0.046392
0.045459
0.044502
0.043523
0.042523
0.041514
0.040500
0.039467
0.038416
0.037350
0.036269
0.035175
0.034068
0.032947
0.031813
0.030664
0.029501
0.028323
0.027128
0.025917
0.024688
0.023440
0.022171
0.020880
0.019565
0.018221
0.016845
0.015431
0.013969
0.012448
0.010851
0.009154
0.007221
0.000000
0.000000
0.000000
0.000000
0.000000
0.000000
0.000000
0.000000
0.000000
-0.178145
-0.178145
-0.165689
-0.157207
-0.152521
-0.150415
-0.148474
-0.146907
-0.145150
-0.143291
-0.141247
-0.138732
-0.135683
-0.131944
-0.127373
-0.121904
-0.115520
-0.108262
-0.100214
-0.091498
-0.082259
-0.072656
-0.062854
-0.053007
-0.043261
-0.033745
-0.024570
-0.015832
-0.007604
0.000059
0.007123
0.013568
0.019390
0.024597
0.029207
0.033246
0.036748
0.039749
0.042290
0.044412
0.046153
0.047556
0.048655
0.049487
0.050084
0.050475
0.050686
0.050741
0.050660
0.050460
0.050159
0.049769
0.049301
0.048765
0.048170
0.047522
0.046827
0.046090
0.045314
0.044503
0.043659
0.042784
0.041894
0.040984
0.040048
0.039088
0.038104
0.037100
0.036075
0.035033
0.033972
0.032895
0.031799
0.030687
0.029558
0.028411
0.027246
0.026062
0.024859
0.023637
0.022392
0.021124
0.019831
0.018508
0.017150
0.015751
0.014301
0.012785
0.011184
0.009469
0.007509
0.379107
0.251640
0.171517
0.109931
0.057184
0.009469
-0.035303
-0.079051
-0.124895
-0.188844
-0.205832
-0.168377
-0.155426
-0.150450
-0.147414
-0.145729
-0.144221
-0.142559
-0.140681
-0.138484
-0.135811
-0.132564
-0.128631
-0.123925
-0.118402
-0.112063
-0.104955
-0.097161
-0.088795
-0.079989
-0.070886
-0.061632
-0.052366
-0.043215
-0.034295
-0.025705
-0.017525
-0.009818
-0.002632
0.004005
0.010079
0.015586
0.020538
0.024950
0.028849
0.032263
0.035227
0.037776
0.039946
0.041772
0.043288
0.044528
0.045521
0.046296
0.046876
0.047286
0.047545
0.047670
0.047678
0.047581
0.047392
0.047119
0.046772
0.046357
0.045881
0.045349
0.044765
0.044133
0.043456
0.042738
0.041993
0.041211
0.040394
0.039544
0.038663
0.037753
0.036817
0.035855
0.034869
0.033861
0.032831
0.031780
0.030708
0.029617
0.028506
0.027375
0.026224
0.025052
0.023860
0.022645
0.021407
0.020143
0.018849
0.017520
0.016150
0.014729
0.013241
0.011666
0.009975
0.008057
0.379107
0.251640
0.171517
0.109931
0.057184
0.009469
-0.035303
-0.079051
-0.124895
-0.171856
-0.177634
-0.162866
-0.152731
-0.147317
-0.144210
-0.142264
-0.140639
-0.138935
-0.136977
-0.134643
-0.131818
-0.128413
-0.124355
-0.119589
-0.114096
-0.107892
-0.101027
-0.093582
-0.085660
-0.077379
-0.068865
-0.060244
-0.051637
-0.043156
-0.034898
-0.026948
-0.019376
-0.012232
-0.005557
0.000628
0.006311
0.011493
0.016182
0.020396
0.024156
0.027490
0.030425
0.032994
0.035225
0.037150
0.038796
0.040192
0.041362
0.042330
0.043116
0.043739
0.044216
0.044562
0.044789
0.044909
0.044931
0.044863
0.044714
0.044489
0.044193
0.043832
0.043407
0.042926
0.042391
0.041807
0.041175
0.040498
0.039779
0.039020
0.038223
0.037390
0.036524
0.035628
0.034702
0.033748
0.032768
0.031764
0.030736
0.029685
0.028612
0.027518
0.026402
0.025266
0.024108
0.022928
0.021724
0.020496
0.019239
0.017950
0.016622
0.015247
0.013812
0.012298
0.010678
0.008881
0.252043
0.211053
0.159255
0.108353
0.060252
0.014840
-0.028390
-0.069773
-0.107473
-0.137880
-0.149410
-0.147770
-0.143890
-0.140862
-0.138758
-0.137188
-0.135731
-0.134111
-0.132168
-0.129797
-0.126915
-0.123459
-0.119384
-0.114666
-0.109306
-0.103332
-0.096798
-0.089780
-0.082371
-0.074675
-0.066801
-0.058857
-0.050945
-0.043161
-0.035587
-0.028293
-0.021336
-0.014760
-0.008593
-0.002855
0.002446
0.007313
0.011754
0.015784
0.019423
0.022691
0.025614
0.028216
0.030523
0.032558
0.034345
0.035906
0.037260
0.038427
0.039424
0.040264
0.040961
0.041528
0.041975
0.042311
0.042543
0.042680
0.042726
0.042688
0.042570
0.042377
0.042109
0.041766
0.041361
0.040898
0.040380
0.039808
0.039187
0.038517
0.037803
0.037047
0.036251
0.035418
0.034551
0.033652
0.032722
0.031764
0.030779
0.029769
0.028735
0.027678
0.026599
0.025498
0.024377
0.023233
0.022068
0.020879
0.019666
0.018424
0.017150
0.015836
0.014475
0.013051
0.011546
0.009943
0.190961
0.175469
0.143911
0.105774
0.065477
0.025175
-0.013898
-0.050536
-0.082437
-0.107404
-0.122158
-0.128338
-0.130379
-0.130862
-0.130750
-0.130295
-0.129487
-0.128258
-0.126550
-0.124317
-0.121523
-0.118145
-0.114171
-0.109603
-0.104463
-0.098791
-0.092642
-0.086092
-0.079223
-0.072126
-0.064895
-0.057623
-0.050394
-0.043288
-0.036372
-0.029705
-0.023332
-0.017287
-0.011593
-0.006266
-0.001309
0.003278
0.007504
0.011380
0.014923
0.018150
0.021079
0.023731
0.026124
0.028277
0.030209
0.031936
0.033472
0.034834
0.036032
0.037080
0.037987
0.038763
0.039416
0.039954
0.040383
0.040708
0.040938
0.041073
0.041119
0.041060
0.040920
0.040708
0.040427
0.040080
0.039668
0.039195
0.038664
0.038078
0.037441
0.036755
0.036024
0.035251
0.034439
0.033590
0.032706
0.031792
0.030847
0.029875
0.028878
0.027856
0.026812
0.025746
0.024659
0.023552
0.022425
0.021278
0.020110
0.018919
0.017703
0.016460
0.015184
0.013870
0.012508
0.011143
0.163114
0.155165
0.133852
0.104407
0.070701
0.035450
0.000641
-0.032059
-0.060790
-0.083951
-0.100319
-0.110547
-0.116576
-0.120057
-0.121979
-0.122846
-0.122890
-0.122215
-0.120870
-0.118883
-0.116272
-0.113054
-0.109251
-0.104891
-0.100013
-0.094667
-0.088915
-0.082827
-0.076478
-0.069949
-0.063321
-0.056668
-0.050064
-0.043573
-0.037249
-0.031138
-0.025278
-0.019694
-0.014407
-0.009425
-0.004754
-0.000392
0.003667
0.007431
0.010913
0.014125
0.017082
0.019796
0.022284
0.024557
0.026629
0.028513
0.030218
0.031757
0.033138
0.034371
0.035464
0.036424
0.037258
0.037972
0.038574
0.039062
0.039454
0.039713
0.039863
0.039934
0.039921
0.039827
0.039654
0.039407
0.039088
0.038701
0.038249
0.037735
0.037165
0.036540
0.035865
0.035144
0.034378
0.033573
0.032730
0.031852
0.030943
0.030005
0.029039
0.028049
0.027035
0.026000
0.024946
0.023872
0.022780
0.021672
0.020547
0.019405
0.018247
0.017072
0.015882
0.014678
0.013462
0.012335
0.153175
0.147497
0.130541
0.105515
0.075616
0.043526
0.011472
-0.018664
-0.045333
-0.067460
-0.084462
-0.096647
-0.104983
-0.110502
-0.114001
-0.116008
-0.116849
-0.116726
-0.115766
-0.114057
-0.111662
-0.108638
-0.105033
-0.100898
-0.096288
-0.091261
-0.085881
-0.080215
-0.074334
-0.068307
-0.062202
-0.056083
-0.050010
-0.044034
-0.038199
-0.032544
-0.027096
-0.021878
-0.016904
-0.012185
-0.007723
-0.003520
0.000429
0.004129
0.007588
0.010813
0.013815
0.016602
0.019184
0.021571
0.023771
0.025792
0.027644
0.029333
0.030867
0.032254
0.033499
0.034609
0.035590
0.036445
0.037192
0.037787
0.038247
0.038620
0.038894
0.039075
0.039164
0.039165
0.039080
0.038914
0.038669
0.038350
0.037961
0.037506
0.036989
0.036413
0.035782
0.035102
0.034374
0.033603
0.032792
0.031944
0.031063
0.030152
0.029212
0.028247
0.027259
0.026249
0.025221
0.024175
0.023113
0.022038
0.020949
0.019850
0.018741
0.017626
0.016509
0.015397
0.014303
0.013364
0.155952
0.150333
0.133628
0.109102
0.080023
0.049143
0.018597
-0.009957
-0.035305
-0.056680
-0.073777
-0.086803
-0.096339
-0.103075
-0.107626
-0.110465
-0.111934
-0.112274
-0.111656
-0.110207
-0.108027
-0.105198
-0.101792
-0.097877
-0.093517
-0.088778
-0.083723
-0.078418
-0.072926
-0.067308
-0.061623
-0.055924
-0.050261
-0.044676
-0.039206
-0.033882
-0.028728
-0.023763
-0.019001
-0.014450
-0.010115
-0.006000
-0.002103
0.001578
0.005046
0.008306
0.011365
0.014226
0.016897
0.019383
0.021690
0.023823
0.025790
0.027597
0.029248
0.030751
0.032110
0.033332
0.034429
0.035363
0.036145
0.036832
0.037405
0.037872
0.038235
0.038497
0.038661
0.038730
0.038709
0.038602
0.038411
0.038142
0.037799
0.037386
0.036907
0.036367
0.035769
0.035118
0.034418
0.033672
0.032885
0.032059
0.031198
0.030306
0.029385
0.028439
0.027469
0.026478
0.025469
0.024444
0.023405
0.022354
0.021294
0.020226
0.019155
0.018083
0.017018
0.015968
0.014952
0.014112
0.171343
0.163676
0.143352
0.115695
0.084653
0.052970
0.022536
-0.005359
-0.029890
-0.050630
-0.067501
-0.080734
-0.090768
-0.098119
-0.103272
-0.106637
-0.108534
-0.109211
-0.108859
-0.107625
-0.105631
-0.102977
-0.099749
-0.096025
-0.091878
-0.087373
-0.082575
-0.077545
-0.072341
-0.067019
-0.061629
-0.056218
-0.050828
-0.045496
-0.040256
-0.035133
-0.030150
-0.025325
-0.020672
-0.016201
-0.011918
-0.007829
-0.003935
-0.000237
0.003265
0.006574
0.009692
0.012622
0.015368
0.017933
0.020323
0.022540
0.024591
0.026481
0.028212
0.029799
0.031237
0.032507
0.033622
0.034626
0.035501
0.036260
0.036902
0.037432
0.037852
0.038167
0.038380
0.038494
0.038515
0.038446
0.038291
0.038054
0.037741
0.037356
0.036902
0.036385
0.035809
0.035178
0.034495
0.033766
0.032994
0.032183
0.031336
0.030456
0.029547
0.028613
0.027654
0.026676
0.025679
0.024667
0.023642
0.022607
0.021564
0.020516
0.019468
0.018422
0.017385
0.016366
0.015380
0.014544
0.204071
0.189111
0.159351
0.124368
0.088689
0.054588
0.023301
-0.004494
-0.028480
-0.048613
-0.065053
-0.078115
-0.088205
-0.095754
-0.101166
-0.104793
-0.106927
-0.107806
-0.107623
-0.106536
-0.104674
-0.102147
-0.099049
-0.095462
-0.091460
-0.087111
-0.082477
-0.077616
-0.072584
-0.067429
-0.062201
-0.056940
-0.051687
-0.046475
-0.041336
-0.036295
-0.031374
-0.026593
-0.021964
-0.017501
-0.013212
-0.009103
-0.005179
-0.001441
0.002108
0.005470
0.008644
0.011633
0.014439
0.017066
0.019516
0.021792
0.023898
0.025849
0.027628
0.029237
0.030694
0.032018
0.033202
0.034256
0.035181
0.035983
0.036665
0.037231
0.037684
0.038030
0.038271
0.038411
0.038456
0.038409
0.038274
0.038057
0.037762
0.037392
0.036953
0.036450
0.035886
0.035266
0.034594
0.033874
0.033110
0.032307
0.031467
0.030594
0.029691
0.028762
0.027810
0.026837
0.025846
0.024840
0.023821
0.022793
0.021758
0.020719
0.019680
0.018644
0.017617
0.016604
0.015617
0.014723
0.268926
0.228745
0.179489
0.132863
0.090904
0.053783
0.021385
-0.006473
-0.030036
-0.049617
-0.065583
-0.078331
-0.088269
-0.095786
-0.101237
-0.104935
-0.107149
-0.108104
-0.107990
-0.106964
-0.105159
-0.102687
-0.099644
-0.096114
-0.092170
-0.087880
-0.083305
-0.078501
-0.073521
-0.068414
-0.063224
-0.057995
-0.052763
-0.047563
-0.042426
-0.037376
-0.032439
-0.027631
-0.022970
-0.018468
-0.014135
-0.009979
-0.006004
-0.002215
0.001387
0.004800
0.008026
0.011066
0.013921
0.016594
0.019091
0.021408
0.023549
0.025512
0.027322
0.028976
0.030478
0.031835
0.033053
0.034135
0.035087
0.035912
0.036615
0.037200
0.037671
0.038032
0.038287
0.038441
0.038498
0.038462
0.038337
0.038129
0.037842
0.037480
0.037048
0.036551
0.035992
0.035377
0.034709
0.033993
0.033232
0.032432
0.031594
0.030723
0.029822
0.028894
0.027942
0.026969
0.025979
0.024972
0.023954
0.022925
0.021890
0.020850
0.019811
0.018774
0.017744
0.016726
0.015727
0.014768
0.397822
0.271256
0.193876
0.136835
0.090572
0.051637
0.018581
-0.009373
-0.032783
-0.052136
-0.067887
-0.080472
-0.090298
-0.097741
-0.103143
-0.106803
-0.108981
-0.109899
-0.109747
-0.108682
-0.106837
-0.104325
-0.101244
-0.097675
-0.093694
-0.089366
-0.084752
-0.079908
-0.074886
-0.069734
-0.064497
-0.059216
-0.053930
-0.048673
-0.043476
-0.038365
-0.033364
-0.028493
-0.023768
-0.019203
-0.014808
-0.010591
-0.006557
-0.002712
0.000943
0.004408
0.007682
0.010767
0.013664
0.016375
0.018902
0.021252
0.023427
0.025427
0.027265
0.028945
0.030471
0.031850
0.033086
0.034184
0.035150
0.035988
0.036702
0.037296
0.037775
0.038144
0.038405
0.038564
0.038625
0.038593
0.038472
0.038266
0.037981
0.037620
0.037189
0.036692
0.036134
0.035518
0.034850
0.034133
0.033372
0.032569
0.031730
0.030857
0.029953
0.029022
0.028068
0.027091
0.026097
0.025086
0.024062
0.023028
0.021987
0.020940
0.019893
0.018848
0.017810
0.016783
0.015774
0.014785
