# vtk DataFile Version 3.0
Scalar Field
ASCII
DATASET RECTILINEAR_GRID
DIMENSIONS 100 20 1
X_COORDINATES 100 double
0.050000 0.150000 0.250000 0.350000 0.450000 0.550000 0.650000 0.750000 0.850000 0.950000 1.050000 1.150000 1.250000 1.350000 1.450000 1.550000 1.650000 1.750000 1.850000 1.950000 2.050000 2.150000 2.250000 2.350000 2.450000 2.550000 2.650000 2.750000 2.850000 2.950000 3.050000 3.150000 3.250000 3.350000 3.450000 3.550000 3.650000 3.750000 3.850000 3.950000 4.050000 4.150000 4.250000 4.350000 4.450000 4.550000 4.650000 4.750000 4.850000 4.950000 5.050000 5.150000 5.250000 5.350000 5.450000 5.550000 5.650000 5.750000 5.850000 5.950000 6.050000 6.150000 6.250000 6.350000 6.450000 6.550000 6.650000 6.750000 6.850000 6.950000 7.050000 7.150000 7.250000 7.350000 7.450000 7.550000 7.650000 7.750000 7.850000 7.950000 8.050000 8.150000 8.250000 8.350000 8.450000 8.550000 8.650000 8.750000 8.850000 8.950000 9.050000 9.150000 9.250000 9.350000 9.450000 9.550000 9.650000 9.750000 9.850000 9.950000 
Y_COORDINATES 20 double
0.050000 0.150000 0.250000 0.350000 0.450000 0.550000 0.650000 0.750000 0.850000 0.950000 1.050000 1.150000 1.250000 1.350000 1.450000 1.550000 1.650000 1.750000 1.850000 1.950000 
Z_COORDINATES 1 double
0.0
POINT_DATA 2000
SCALARS Skalarfeld double 1
LOOKUP_TABLE default
0.000000
0.000000
0.000000
0.000000
0.000000
0.000000
0.000000
0.000000
0.000000
-0.143775
-0.143775
-0.144333
-0.144791
-0.144946
-0.144768
-0.144267
-0.143443
-0.142276
-0.140725
-0.138738
-0.136243
-0.133158
-0.129389
-0.124841
-0.119429
-0.113095
-0.105816
-0.097613
-0.088551
-0.078742
-0.068362
-0.057613
-0.046679
-0.035741
-0.024964
-0.014501
-0.004496
0.004938
0.013722
0.021820
0.029165
0.035731
0.041552
0.046611
0.050928
0.054555
0.057516
0.059873
0.061682
0.063000
0.063883
0.064383
0.064550
0.064429
0.064063
0.063489
0.062743
0.061854
0.060850
0.059753
0.058585
0.057361
0.056096
0.054803
0.053491
0.052168
0.050840
0.049513
0.048190
0.046874
0.045567
0.044269
0.042982
0.041706
0.040440
0.039184
0.037937
0.036698
0.035465
0.034239
0.033017
0.031799
0.030583
0.029368
0.028154
0.026938
0.025721
0.024500
0.023276
0.022048
0.020815
0.019576
0.018332
0.017082
0.015826
0.014564
0.013296
0.012025
0.010750
0.009476
0.000000
0.000000
0.000000
0.000000
0.000000
0.000000
0.000000
0.000000
0.000000
-0.143218
-0.143218
-0.143820
-0.144172
-0.144250
-0.144046
-0.143551
-0.142746
-0.141602
-0.140078
-0.138124
-0.135679
-0.132666
-0.128996
-0.124575
-0.119314
-0.113145
-0.106036
-0.097997
-0.089080
-0.079422
-0.069177
-0.058523
-0.047664
-0.036789
-0.026061
-0.015628
-0.005641
0.003781
0.012554
0.020675
0.028041
0.034610
0.040494
0.045618
0.049987
0.053656
0.056668
0.059077
0.060939
0.062310
0.063245
0.063796
0.064011
0.063937
0.063616
0.063085
0.062379
0.061528
0.060559
0.059496
0.058357
0.057161
0.055921
0.054651
0.053360
0.052055
0.050744
0.049431
0.048121
0.046817
0.045519
0.044230
0.042950
0.041680
0.040419
0.039168
0.037924
0.036688
0.035458
0.034233
0.033013
0.031795
0.030580
0.029366
0.028151
0.026935
0.025718
0.024497
0.023273
0.022044
0.020810
0.019571
0.018326
0.017076
0.015819
0.014558
0.013291
0.012020
0.010747
0.009474
0.000000
0.000000
0.000000
0.000000
0.000000
0.000000
0.000000
0.000000
0.000000
-0.142879
-0.142879
-0.143684
-0.144046
-0.144100
-0.143891
-0.143412
-0.142640
-0.141544
-0.140085
-0.138221
-0.135899
-0.133045
-0.129572
-0.125368
-0.120320
-0.114335
-0.107375
-0.099442
-0.090570
-0.080883
-0.070583
-0.059871
-0.048963
-0.038054
-0.027289
-0.016802
-0.006768
0.002677
0.011420
0.019649
0.027077
0.033718
0.039611
0.044748
0.049145
0.052842
0.055885
0.058327
0.060223
0.061629
0.062599
0.063185
0.063436
0.063398
0.063112
0.062617
0.061945
0.061129
0.060193
0.059161
0.058052
0.056885
0.055674
0.054429
0.053162
0.051880
0.050590
0.049296
0.048004
0.046715
0.045432
0.044156
0.042888
0.041628
0.040376
0.039132
0.037896
0.036665
0.035441
0.034221
0.033004
0.031790
0.030577
0.029365
0.028152
0.026937
0.025720
0.024500
0.023276
0.022047
0.020813
0.019573
0.018327
0.017075
0.015816
0.014552
0.013283
0.012009
0.010733
0.009457
0.000000
0.000000
0.000000
0.000000
0.000000
0.000000
0.000000
0.000000
0.000000
-0.143344
-0.143344
-0.144320
-0.144706
-0.144745
-0.144521
-0.144040
-0.143282
-0.142223
-0.140833
-0.139078
-0.136914
-0.134271
-0.131053
-0.127114
-0.122295
-0.116454
-0.109589
-0.101500
-0.092488
-0.082656
-0.072230
-0.061405
-0.050417
-0.039479
-0.028672
-0.018079
-0.008002
0.001494
0.010340
0.018533
0.025970
0.032632
0.038529
0.043670
0.048078
0.051790
0.054853
0.057319
0.059242
0.060679
0.061683
0.062306
0.062596
0.062599
0.062356
0.061904
0.061277
0.060504
0.059613
0.058625
0.057560
0.056434
0.055263
0.054057
0.052826
0.051579
0.050322
0.049059
0.047795
0.046533
0.045274
0.044020
0.042772
0.041530
0.040295
0.039066
0.037842
0.036623
0.035408
0.034197
0.032988
0.031780
0.030573
0.029365
0.028156
0.026945
0.025730
0.024511
0.023288
0.022059
0.020824
0.019583
0.018335
0.017079
0.015816
0.014545
0.013268
0.011984
0.010697
0.009407
0.000000
0.000000
0.000000
0.000000
0.000000
0.000000
0.000000
0.000000
0.000000
-0.145073
-0.145073
-0.146084
-0.146377
-0.146297
-0.145962
-0.145394
-0.144582
-0.143510
-0.142149
-0.140471
-0.138449
-0.135999
-0.133025
-0.129313
-0.124656
-0.118783
-0.111486
-0.103245
-0.094180
-0.084167
-0.073651
-0.062807
-0.051782
-0.040767
-0.029913
-0.019362
-0.009294
0.000191
0.009026
0.017170
0.024566
0.031196
0.037063
0.042179
0.046573
0.050282
0.053352
0.055835
0.057785
0.059255
0.060300
0.060969
0.061312
0.061371
0.061188
0.060799
0.060236
0.059529
0.058704
0.057782
0.056781
0.055720
0.054610
0.053463
0.052290
0.051096
0.049890
0.048675
0.047456
0.046235
0.045014
0.043796
0.042580
0.041368
0.040159
0.038953
0.037751
0.036551
0.035353
0.034156
0.032960
0.031763
0.030566
0.029366
0.028164
0.026958
0.025748
0.024532
0.023311
0.022083
0.020847
0.019604
0.018352
0.017090
0.015819
0.014537
0.013244
0.011942
0.010632
0.009310
0.000000
0.000000
0.000000
0.000000
0.000000
0.000000
0.000000
0.000000
0.000000
-0.148449
-0.148449
-0.149206
-0.149073
-0.148593
-0.147941
-0.147140
-0.146174
-0.145020
-0.143627
-0.141955
-0.140013
-0.137654
-0.134843
-0.131179
-0.126137
-0.119921
-0.112600
-0.104260
-0.095043
-0.085047
-0.074530
-0.063693
-0.052709
-0.041757
-0.030993
-0.020566
-0.010617
-0.001248
0.007471
0.015493
0.022778
0.029311
0.035096
0.040148
0.044496
0.048178
0.051241
0.053733
0.055708
0.057218
0.058314
0.059046
0.059460
0.059598
0.059500
0.059200
0.058730
0.058117
0.057387
0.056559
0.055652
0.054681
0.053660
0.052599
0.051507
0.050392
0.049259
0.048113
0.046959
0.045798
0.044633
0.043465
0.042296
0.041126
0.039955
0.038784
0.037613
0.036441
0.035268
0.034093
0.032916
0.031736
0.030553
0.029366
0.028174
0.026977
0.025773
0.024563
0.023345
0.022118
0.020883
0.019637
0.018380
0.017111
0.015828
0.014531
0.013217
0.011885
0.010536
0.009164
0.000000
0.000000
0.000000
0.000000
0.000000
0.000000
0.000000
0.000000
0.000000
-0.153999
-0.153999
-0.153776
-0.152484
-0.151121
-0.149878
-0.148697
-0.147505
-0.146240
-0.144764
-0.143035
-0.141240
-0.138840
-0.135643
-0.131400
-0.126164
-0.119843
-0.112458
-0.104097
-0.094893
-0.084994
-0.074605
-0.063923
-0.053126
-0.042386
-0.031857
-0.021681
-0.011979
-0.002848
0.005645
0.013453
0.020546
0.026913
0.032559
0.037501
0.041770
0.045402
0.048442
0.050938
0.052940
0.054498
0.055661
0.056474
0.056983
0.057227
0.057242
0.057062
0.056716
0.056231
0.055627
0.054926
0.054145
0.053296
0.052394
0.051447
0.050464
0.049452
0.048417
0.047364
0.046295
0.045213
0.044122
0.043022
0.041915
0.040801
0.039682
0.038557
0.037427
0.036292
0.035152
0.034006
0.032855
0.031698
0.030535
0.029364
0.028187
0.027002
0.025808
0.024605
0.023392
0.022169
0.020934
0.019686
0.018425
0.017147
0.015852
0.014535
0.013194
0.011824
0.010423
0.008978
0.000000
0.000000
0.000000
0.000000
0.000000
0.000000
0.000000
0.000000
0.000000
-0.162992
-0.162992
-0.159689
-0.155816
-0.152980
-0.151109
-0.149525
-0.148011
-0.146735
-0.145221
-0.143383
-0.140981
-0.138161
-0.134659
-0.130252
-0.124867
-0.118466
-0.111075
-0.102781
-0.093713
-0.084025
-0.073901
-0.063524
-0.053066
-0.042689
-0.032539
-0.022746
-0.013419
-0.004644
0.003516
0.011020
0.017843
0.023978
0.029431
0.034222
0.038380
0.041942
0.044949
0.047446
0.049480
0.051098
0.052344
0.053261
0.053890
0.054268
0.054428
0.054400
0.054211
0.053885
0.053442
0.052901
0.052276
0.051581
0.050826
0.050022
0.049175
0.048292
0.047379
0.046439
0.045477
0.044494
0.043494
0.042477
0.041447
0.040403
0.039346
0.038278
0.037199
0.036110
0.035010
0.033900
0.032781
0.031653
0.030514
0.029365
0.028205
0.027034
0.025852
0.024659
0.023454
0.022236
0.021003
0.019755
0.018490
0.017205
0.015897
0.014561
0.013191
0.011781
0.010321
0.008788
0.000000
0.000000
0.000000
0.000000
0.000000
0.000000
0.000000
0.000000
0.000000
-0.178644
-0.178644
-0.166176
-0.157686
-0.152997
-0.150898
-0.148951
-0.147388
-0.145629
-0.143779
-0.141741
-0.139229
-0.136182
-0.132438
-0.127850
-0.122348
-0.115915
-0.108587
-0.100451
-0.091631
-0.082273
-0.072543
-0.062608
-0.052628
-0.042750
-0.033109
-0.023820
-0.014979
-0.006663
0.001074
0.008197
0.014684
0.020533
0.025752
0.030361
0.034387
0.037865
0.040834
0.043334
0.045409
0.047100
0.048448
0.049492
0.050266
0.050805
0.051137
0.051291
0.051289
0.051153
0.050901
0.050548
0.050109
0.049594
0.049013
0.048376
0.047688
0.046956
0.046184
0.045377
0.044538
0.043670
0.042775
0.041856
0.040913
0.039949
0.038966
0.037963
0.036943
0.035907
0.034857
0.033791
0.032708
0.031611
0.030499
0.029373
0.028232
0.027078
0.025910
0.024728
0.023531
0.022319
0.021091
0.019845
0.018579
0.017289
0.015972
0.014621
0.013229
0.011783
0.010266
0.008649
0.378773
0.251305
0.171179
0.109588
0.056834
0.009107
-0.035679
-0.079448
-0.125326
-0.189333
-0.206353
-0.168864
-0.155906
-0.150928
-0.147883
-0.146202
-0.144693
-0.143029
-0.141151
-0.138953
-0.136276
-0.133019
-0.129070
-0.124336
-0.118771
-0.112375
-0.105194
-0.097313
-0.088845
-0.079927
-0.070706
-0.061330
-0.051942
-0.042674
-0.033643
-0.024952
-0.016682
-0.008899
-0.001650
0.005036
0.011144
0.016673
0.021632
0.026040
0.029925
0.033316
0.036249
0.038760
0.040887
0.042667
0.044135
0.045324
0.046266
0.046989
0.047518
0.047877
0.048086
0.048163
0.048123
0.047981
0.047747
0.047432
0.047044
0.046591
0.046079
0.045512
0.044896
0.044235
0.043531
0.042788
0.042008
0.041194
0.040347
0.039470
0.038567
0.037638
0.036684
0.035706
0.034704
0.033681
0.032637
0.031573
0.030491
0.029390
0.028271
0.027136
0.025983
0.024814
0.023627
0.022424
0.021202
0.019959
0.018695
0.017405
0.016085
0.014727
0.013321
0.011852
0.010299
0.008627
0.378773
0.251305
0.171179
0.109588
0.056834
0.009107
-0.035679
-0.079448
-0.125326
-0.172313
-0.178119
-0.163347
-0.153203
-0.147782
-0.144667
-0.142716
-0.141085
-0.139373
-0.137407
-0.135061
-0.132221
-0.128796
-0.124709
-0.119904
-0.114361
-0.108093
-0.101153
-0.093621
-0.085601
-0.077215
-0.068592
-0.059860
-0.051144
-0.042559
-0.034204
-0.026166
-0.018517
-0.011309
-0.004581
0.001644
0.007354
0.012551
0.017244
0.021452
0.025198
0.028509
0.031415
0.033949
0.036142
0.038025
0.039629
0.040979
0.042104
0.043026
0.043767
0.044345
0.044778
0.045081
0.045266
0.045345
0.045327
0.045221
0.045035
0.044774
0.044443
0.044049
0.043594
0.043083
0.042518
0.041903
0.041242
0.040536
0.039788
0.039002
0.038179
0.037322
0.036432
0.035511
0.034560
0.033582
0.032578
0.031549
0.030497
0.029422
0.028326
0.027209
0.026073
0.024917
0.023743
0.022549
0.021335
0.020099
0.018841
0.017555
0.016238
0.014883
0.013478
0.012008
0.010449
0.008770
0.251712
0.210720
0.158920
0.108013
0.059905
0.014483
-0.028760
-0.070160
-0.107876
-0.138303
-0.149849
-0.148210
-0.144324
-0.141287
-0.139174
-0.137593
-0.136123
-0.134488
-0.132528
-0.130136
-0.127228
-0.123740
-0.119626
-0.114860
-0.109442
-0.103401
-0.096789
-0.089686
-0.082184
-0.074390
-0.066416
-0.058372
-0.050363
-0.042488
-0.034830
-0.027461
-0.020439
-0.013808
-0.007599
-0.001829
0.003493
0.008371
0.012813
0.016835
0.020458
0.023705
0.026601
0.029172
0.031444
0.033443
0.035192
0.036713
0.038027
0.039154
0.040110
0.040911
0.041569
0.042097
0.042506
0.042804
0.043000
0.043100
0.043111
0.043038
0.042886
0.042660
0.042361
0.041996
0.041568
0.041075
0.040522
0.039918
0.039265
0.038565
0.037820
0.037033
0.036206
0.035340
0.034440
0.033506
0.032540
0.031545
0.030521
0.029472
0.028397
0.027299
0.026179
0.025037
0.023874
0.022691
0.021486
0.020260
0.019010
0.017734
0.016428
0.015086
0.013698
0.012250
0.010721
0.009088
0.190634
0.175142
0.143581
0.105441
0.065139
0.024830
-0.014251
-0.050898
-0.082805
-0.107785
-0.122545
-0.128724
-0.130758
-0.131230
-0.131104
-0.130633
-0.129805
-0.128554
-0.126820
-0.124556
-0.121727
-0.118308
-0.114286
-0.109663
-0.104460
-0.098716
-0.092490
-0.085856
-0.078899
-0.071712
-0.064390
-0.057028
-0.049714
-0.042529
-0.035541
-0.028810
-0.022382
-0.016292
-0.010564
-0.005211
-0.000239
0.004354
0.008579
0.012447
0.015974
0.019181
0.022086
0.024709
0.027072
0.029193
0.031091
0.032782
0.034283
0.035609
0.036771
0.037783
0.038654
0.039394
0.040012
0.040514
0.040908
0.041199
0.041391
0.041493
0.041502
0.041432
0.041275
0.041032
0.040712
0.040329
0.039883
0.039375
0.038810
0.038189
0.037515
0.036792
0.036022
0.035208
0.034353
0.033459
0.032528
0.031563
0.030566
0.029539
0.028484
0.027403
0.026297
0.025168
0.024016
0.022843
0.021649
0.020433
0.019194
0.017932
0.016642
0.015322
0.013963
0.012557
0.011087
0.009545
0.162793
0.154844
0.133530
0.104083
0.070374
0.035121
0.000308
-0.032396
-0.061130
-0.084293
-0.100659
-0.110881
-0.116898
-0.120364
-0.122266
-0.123110
-0.123128
-0.122423
-0.121044
-0.119018
-0.116364
-0.113097
-0.109238
-0.104817
-0.099872
-0.094454
-0.088625
-0.082455
-0.076024
-0.069411
-0.062700
-0.055968
-0.049289
-0.042728
-0.036342
-0.030178
-0.024272
-0.018651
-0.013336
-0.008335
-0.003652
0.000714
0.004769
0.008525
0.011993
0.015186
0.018120
0.020810
0.023270
0.025514
0.027555
0.029407
0.031081
0.032587
0.033935
0.035135
0.036194
0.037120
0.037920
0.038599
0.039163
0.039619
0.039964
0.040222
0.040363
0.040396
0.040343
0.040213
0.040003
0.039719
0.039363
0.038939
0.038448
0.037895
0.037282
0.036614
0.035893
0.035122
0.034304
0.033443
0.032542
0.031602
0.030627
0.029619
0.028580
0.027513
0.026420
0.025301
0.024160
0.022996
0.021811
0.020605
0.019379
0.018131
0.016861
0.015567
0.014244
0.012889
0.011494
0.010066
0.152860
0.147181
0.130226
0.105199
0.075299
0.043209
0.011156
-0.018978
-0.045645
-0.067767
-0.084761
-0.096933
-0.105253
-0.110751
-0.114225
-0.116202
-0.117011
-0.116850
-0.115849
-0.114094
-0.111649
-0.108568
-0.104903
-0.100703
-0.096024
-0.090924
-0.085468
-0.079725
-0.073765
-0.067661
-0.061481
-0.055291
-0.049152
-0.043116
-0.037228
-0.031526
-0.026040
-0.020791
-0.015795
-0.011059
-0.006589
-0.002383
0.001562
0.005253
0.008698
0.011906
0.014887
0.017652
0.020209
0.022569
0.024740
0.026733
0.028554
0.030213
0.031715
0.033070
0.034283
0.035359
0.036306
0.037125
0.037826
0.038419
0.038875
0.039200
0.039438
0.039582
0.039633
0.039596
0.039473
0.039268
0.038983
0.038623
0.038191
0.037691
0.037126
0.036500
0.035817
0.035079
0.034291
0.033456
0.032577
0.031656
0.030698
0.029704
0.028678
0.027622
0.026537
0.025427
0.024293
0.023137
0.021960
0.020763
0.019548
0.018315
0.017064
0.015795
0.014507
0.013201
0.011878
0.010555
0.155643
0.150024
0.133320
0.108795
0.079718
0.048839
0.018298
-0.010251
-0.035591
-0.056955
-0.074038
-0.087047
-0.096561
-0.103271
-0.107792
-0.110596
-0.112027
-0.112324
-0.111658
-0.110158
-0.107922
-0.105034
-0.101564
-0.097582
-0.093153
-0.088342
-0.083214
-0.077835
-0.072270
-0.066581
-0.060827
-0.055065
-0.049343
-0.043705
-0.038188
-0.032824
-0.027637
-0.022645
-0.017863
-0.013299
-0.008958
-0.004841
-0.000948
0.002725
0.006180
0.009425
0.012464
0.015304
0.017952
0.020412
0.022693
0.024799
0.026737
0.028514
0.030134
0.031604
0.032932
0.034117
0.035177
0.036100
0.036874
0.037511
0.038051
0.038480
0.038805
0.039028
0.039153
0.039183
0.039121
0.038972
0.038738
0.038424
0.038034
0.037571
0.037040
0.036444
0.035787
0.035073
0.034305
0.033488
0.032624
0.031717
0.030770
0.029786
0.028768
0.027719
0.026640
0.025536
0.024407
0.023256
0.022085
0.020896
0.019690
0.018468
0.017232
0.015983
0.014724
0.013456
0.012186
0.010938
0.171040
0.163373
0.143050
0.115396
0.084357
0.052679
0.022252
-0.005634
-0.030154
-0.050879
-0.067732
-0.080942
-0.090950
-0.098271
-0.103390
-0.106716
-0.108571
-0.109202
-0.108798
-0.107510
-0.105458
-0.102743
-0.099450
-0.095660
-0.091444
-0.086869
-0.082001
-0.076902
-0.071630
-0.066242
-0.060789
-0.055319
-0.049876
-0.044497
-0.039214
-0.034054
-0.029042
-0.024193
-0.019522
-0.015039
-0.010750
-0.006659
-0.002769
0.000921
0.004412
0.007705
0.010805
0.013715
0.016439
0.018980
0.021344
0.023535
0.025557
0.027418
0.029119
0.030667
0.032082
0.033332
0.034424
0.035386
0.036230
0.036950
0.037555
0.038046
0.038427
0.038702
0.038873
0.038946
0.038923
0.038809
0.038607
0.038322
0.037958
0.037519
0.037009
0.036431
0.035791
0.035091
0.034336
0.033530
0.032675
0.031776
0.030836
0.029858
0.028844
0.027799
0.026724
0.025623
0.024497
0.023349
0.022182
0.020997
0.019796
0.018582
0.017356
0.016120
0.014878
0.013634
0.012393
0.011179
0.203773
0.188813
0.159056
0.124076
0.088402
0.054308
0.023030
-0.004753
-0.028725
-0.048840
-0.065259
-0.078297
-0.088358
-0.095875
-0.101251
-0.104837
-0.106927
-0.107758
-0.107523
-0.106381
-0.104461
-0.101873
-0.098712
-0.095059
-0.090991
-0.086575
-0.081874
-0.076947
-0.071850
-0.066633
-0.061346
-0.056031
-0.050727
-0.045470
-0.040291
-0.035216
-0.030266
-0.025462
-0.020816
-0.016341
-0.012045
-0.007935
-0.004013
-0.000283
0.003256
0.006603
0.009760
0.012730
0.015514
0.018117
0.020542
0.022791
0.024870
0.026789
0.028544
0.030133
0.031552
0.032844
0.033996
0.035014
0.035903
0.036667
0.037310
0.037836
0.038249
0.038552
0.038749
0.038846
0.038844
0.038750
0.038566
0.038297
0.037947
0.037520
0.037021
0.036453
0.035821
0.035129
0.034380
0.033579
0.032729
0.031833
0.030896
0.029920
0.028908
0.027864
0.026791
0.025690
0.024565
0.023418
0.022251
0.021068
0.019869
0.018658
0.017437
0.016207
0.014973
0.013737
0.012506
0.011293
0.268632
0.228452
0.179199
0.132577
0.090624
0.053512
0.021124
-0.006721
-0.030269
-0.049831
-0.065775
-0.078499
-0.088408
-0.095891
-0.101306
-0.104964
-0.107133
-0.108041
-0.107876
-0.106796
-0.104934
-0.102402
-0.099297
-0.095703
-0.091695
-0.087340
-0.082699
-0.077831
-0.072789
-0.067622
-0.062376
-0.057093
-0.051812
-0.046568
-0.041391
-0.036307
-0.031341
-0.026510
-0.021832
-0.017317
-0.012977
-0.008818
-0.004846
-0.001063
0.002528
0.005928
0.009138
0.012158
0.014991
0.017641
0.020112
0.022404
0.024520
0.026459
0.028236
0.029861
0.031329
0.032652
0.033835
0.034881
0.035795
0.036582
0.037245
0.037788
0.038217
0.038534
0.038744
0.038851
0.038860
0.038774
0.038597
0.038335
0.037990
0.037568
0.037073
0.036509
0.035879
0.035189
0.034441
0.033641
0.032791
0.031896
0.030958
0.029981
0.028968
0.027923
0.026848
0.025746
0.024620
0.023471
0.022304
0.021119
0.019919
0.018707
0.017486
0.016256
0.015022
0.013787
0.012553
0.011329
0.397530
0.270965
0.193588
0.136551
0.090294
0.051367
0.018322
-0.009619
-0.033014
-0.052348
-0.068078
-0.080638
-0.090436
-0.097847
-0.103213
-0.106833
-0.108968
-0.109840
-0.109637
-0.108519
-0.106618
-0.104047
-0.100905
-0.097273
-0.093228
-0.088836
-0.084158
-0.079251
-0.074167
-0.068955
-0.063661
-0.058327
-0.052992
-0.047690
-0.042453
-0.037307
-0.032277
-0.027382
-0.022639
-0.018061
-0.013658
-0.009438
-0.005406
-0.001567
0.002079
0.005530
0.008788
0.011853
0.014728
0.017417
0.019919
0.022242
0.024390
0.026363
0.028170
0.029819
0.031311
0.032654
0.033855
0.034916
0.035843
0.036641
0.037314
0.037866
0.038301
0.038624
0.038838
0.038949
0.038960
0.038876
0.038700
0.038438
0.038093
0.037670
0.037174
0.036607
0.035976
0.035283
0.034533
0.033729
0.032876
0.031977
0.031036
0.030056
0.029040
0.027991
0.026912
0.025807
0.024676
0.023525
0.022353
0.021165
0.019961
0.018746
0.017520
0.016286
0.015048
0.013808
0.012569
0.011334
