# vtk DataFile Version 3.0
Vector Field
ASCII
DATASET RECTILINEAR_GRID
DIMENSIONS 100 20 1
X_COORDINATES 100 double
0.050000 0.150000 0.250000 0.350000 0.450000 0.550000 0.650000 0.750000 0.850000 0.950000 1.050000 1.150000 1.250000 1.350000 1.450000 1.550000 1.650000 1.750000 1.850000 1.950000 2.050000 2.150000 2.250000 2.350000 2.450000 2.550000 2.650000 2.750000 2.850000 2.950000 3.050000 3.150000 3.250000 3.350000 3.450000 3.550000 3.650000 3.750000 3.850000 3.950000 4.050000 4.150000 4.250000 4.350000 4.450000 4.550000 4.650000 4.750000 4.850000 4.950000 5.050000 5.150000 5.250000 5.350000 5.450000 5.550000 5.650000 5.750000 5.850000 5.950000 6.050000 6.150000 6.250000 6.350000 6.450000 6.550000 6.650000 6.750000 6.850000 6.950000 7.050000 7.150000 7.250000 7.350000 7.450000 7.550000 7.650000 7.750000 7.850000 7.950000 8.050000 8.150000 8.250000 8.350000 8.450000 8.550000 8.650000 8.750000 8.850000 8.950000 9.050000 9.150000 9.250000 9.350000 9.450000 9.550000 9.650000 9.750000 9.850000 9.950000 
Y_COORDINATES 20 double
0.050000 0.150000 0.250000 0.350000 0.450000 0.550000 0.650000 0.750000 0.850000 0.950000 1.050000 1.150000 1.250000 1.350000 1.450000 1.550000 1.650000 1.750000 1.850000 1.950000 
Z_COORDINATES 1 double
0.0
POINT_DATA 2000
VECTORS Vektorfeld double
0.500000 0.000000 0.0
0.000000 0.000000 0.0
0.000000 0.000000 0.0
0.000000 0.000000 0.0
0.000000 0.000000 0.0
0.000000 0.000000 0.0
0.000000 0.000000 0.0
0.000000 0.000000 0.0
0.000000 0.000000 0.0
0.000000 -0.000113 0.0
-0.000189 0.000189 0.0
-0.001946 0.001569 0.0
-0.005907 0.002393 0.0
-0.010991 0.002691 0.0
-0.016423 0.002741 0.0
-0.021889 0.002725 0.0
-0.027340 0.002725 0.0
-0.032828 0.002763 0.0
-0.038427 0.002837 0.0
-0.044198 0.002934 0.0
-0.050166 0.003034 0.0
-0.056307 0.003107 0.0
-0.062530 0.003116 0.0
-0.068670 0.003025 0.0
-0.074500 0.002805 0.0
-0.079754 0.002449 0.0
-0.084169 0.001966 0.0
-0.087511 0.001376 0.0
-0.089598 0.000711 0.0
-0.090329 0.000020 0.0
-0.089674 -0.000675 0.0
-0.087645 -0.001354 0.0
-0.084316 -0.001974 0.0
-0.079825 -0.002517 0.0
-0.074318 -0.002990 0.0
-0.067939 -0.003389 0.0
-0.060856 -0.003694 0.0
-0.053269 -0.003894 0.0
-0.045364 -0.004011 0.0
-0.037245 -0.004108 0.0
-0.029019 -0.004119 0.0
-0.020859 -0.004041 0.0
-0.012864 -0.003954 0.0
-0.005096 -0.003814 0.0
0.002343 -0.003625 0.0
0.009365 -0.003398 0.0
0.015926 -0.003163 0.0
0.022014 -0.002926 0.0
0.027629 -0.002689 0.0
0.032775 -0.002457 0.0
0.037463 -0.002230 0.0
0.041706 -0.002013 0.0
0.045524 -0.001805 0.0
0.048939 -0.001610 0.0
0.051976 -0.001427 0.0
0.054661 -0.001258 0.0
0.057021 -0.001102 0.0
0.059082 -0.000960 0.0
0.060872 -0.000831 0.0
0.062417 -0.000714 0.0
0.063742 -0.000610 0.0
0.064871 -0.000518 0.0
0.065825 -0.000437 0.0
0.066627 -0.000365 0.0
0.067295 -0.000303 0.0
0.067846 -0.000249 0.0
0.068298 -0.000203 0.0
0.068664 -0.000163 0.0
0.068957 -0.000130 0.0
0.069190 -0.000102 0.0
0.069372 -0.000080 0.0
0.069512 -0.000061 0.0
0.069619 -0.000046 0.0
0.069699 -0.000034 0.0
0.069759 -0.000025 0.0
0.069804 -0.000019 0.0
0.069837 -0.000014 0.0
0.069863 -0.000012 0.0
0.069885 -0.000010 0.0
0.069905 -0.000010 0.0
0.069925 -0.000011 0.0
0.069948 -0.000012 0.0
0.069974 -0.000014 0.0
0.070004 -0.000016 0.0
0.070039 -0.000019 0.0
0.070080 -0.000022 0.0
0.070126 -0.000024 0.0
0.070178 -0.000027 0.0
0.070234 -0.000030 0.0
0.070295 -0.000032 0.0
0.070360 -0.000033 0.0
0.070428 -0.000034 0.0
0.070496 -0.000034 0.0
0.070563 -0.000033 0.0
0.070627 -0.000031 0.0
0.070685 -0.000027 0.0
0.070734 -0.000021 0.0
0.070769 -0.000014 0.0
0.070788 -0.000006 0.0
0.070794 0.000000 0.0
0.500000 0.000000 0.0
0.000000 0.000000 0.0
0.000000 0.000000 0.0
0.000000 0.000000 0.0
0.000000 0.000000 0.0
0.000000 0.000000 0.0
0.000000 0.000000 0.0
0.000000 0.000000 0.0
0.000000 0.000000 0.0
0.000000 -0.000182 0.0
-0.001949 0.002327 0.0
-0.008563 0.007802 0.0
-0.019277 0.010835 0.0
-0.031845 0.011901 0.0
-0.044901 0.012019 0.0
-0.057845 0.011857 0.0
-0.070519 0.011718 0.0
-0.082956 0.011695 0.0
-0.095231 0.011779 0.0
-0.107385 0.011917 0.0
-0.119386 0.012020 0.0
-0.131099 0.011973 0.0
-0.142266 0.011640 0.0
-0.152516 0.010892 0.0
-0.161392 0.009644 0.0
-0.168415 0.007888 0.0
-0.173169 0.005695 0.0
-0.175337 0.003158 0.0
-0.174720 0.000400 0.0
-0.171245 -0.002414 0.0
-0.165023 -0.005119 0.0
-0.156347 -0.007616 0.0
-0.145576 -0.009812 0.0
-0.133061 -0.011686 0.0
-0.119104 -0.013285 0.0
-0.103964 -0.014613 0.0
-0.087914 -0.015601 0.0
-0.071256 -0.016232 0.0
-0.054276 -0.016558 0.0
-0.037149 -0.016806 0.0
-0.020030 -0.016766 0.0
-0.003096 -0.016488 0.0
0.013403 -0.016002 0.0
0.029230 -0.015361 0.0
0.044318 -0.014604 0.0
0.058638 -0.013760 0.0
0.072154 -0.012878 0.0
0.084834 -0.011979 0.0
0.096660 -0.011077 0.0
0.107629 -0.010184 0.0
0.117749 -0.009310 0.0
0.127037 -0.008464 0.0
0.135517 -0.007652 0.0
0.143220 -0.006881 0.0
0.150182 -0.006155 0.0
0.156443 -0.005475 0.0
0.162044 -0.004845 0.0
0.167030 -0.004264 0.0
0.171445 -0.003732 0.0
0.175334 -0.003248 0.0
0.178743 -0.002810 0.0
0.181714 -0.002418 0.0
0.184289 -0.002067 0.0
0.186508 -0.001756 0.0
0.188410 -0.001482 0.0
0.190030 -0.001242 0.0
0.191401 -0.001033 0.0
0.192555 -0.000853 0.0
0.193520 -0.000699 0.0
0.194321 -0.000568 0.0
0.194982 -0.000457 0.0
0.195524 -0.000366 0.0
0.195967 -0.000291 0.0
0.196327 -0.000230 0.0
0.196619 -0.000182 0.0
0.196856 -0.000144 0.0
0.197050 -0.000116 0.0
0.197211 -0.000096 0.0
0.197347 -0.000083 0.0
0.197466 -0.000076 0.0
0.197573 -0.000073 0.0
0.197675 -0.000074 0.0
0.197775 -0.000078 0.0
0.197876 -0.000084 0.0
0.197982 -0.000092 0.0
0.198094 -0.000101 0.0
0.198214 -0.000111 0.0
0.198342 -0.000120 0.0
0.198478 -0.000129 0.0
0.198622 -0.000137 0.0
0.198773 -0.000143 0.0
0.198928 -0.000147 0.0
0.199086 -0.000147 0.0
0.199242 -0.000144 0.0
0.199392 -0.000135 0.0
0.199530 -0.000119 0.0
0.199649 -0.000096 0.0
0.199740 -0.000066 0.0
0.199797 -0.000030 0.0
0.199816 0.000000 0.0
0.500000 0.000000 0.0
0.000000 0.000000 0.0
0.000000 0.000000 0.0
0.000000 0.000000 0.0
0.000000 0.000000 0.0
0.000000 0.000000 0.0
0.000000 0.000000 0.0
0.000000 0.000000 0.0
0.000000 0.000000 0.0
0.000000 0.000026 0.0
-0.003665 0.007941 0.0
-0.014600 0.019737 0.0
-0.030472 0.025485 0.0
-0.047852 0.027200 0.0
-0.065108 0.027034 0.0
-0.081614 0.026292 0.0
-0.097220 0.025563 0.0
-0.111958 0.025025 0.0
-0.125885 0.024652 0.0
-0.139011 0.024325 0.0
-0.151262 0.023864 0.0
-0.162453 0.023032 0.0
-0.172271 0.021566 0.0
-0.180273 0.019217 0.0
-0.185921 0.015842 0.0
-0.188674 0.011466 0.0
-0.188109 0.006305 0.0
-0.183952 0.000559 0.0
-0.176334 -0.005237 0.0
-0.165726 -0.010860 0.0
-0.152588 -0.016032 0.0
-0.137333 -0.020633 0.0
-0.120347 -0.024552 0.0
-0.102006 -0.027802 0.0
-0.082628 -0.030504 0.0
-0.062464 -0.032698 0.0
-0.041758 -0.034272 0.0
-0.020727 -0.035249 0.0
0.000485 -0.035734 0.0
0.021501 -0.035773 0.0
0.041977 -0.035394 0.0
0.061856 -0.034673 0.0
0.081094 -0.033555 0.0
0.099645 -0.032186 0.0
0.117424 -0.030646 0.0
0.134367 -0.028981 0.0
0.150432 -0.027238 0.0
0.165586 -0.025453 0.0
0.179811 -0.023654 0.0
0.193100 -0.021866 0.0
0.205460 -0.020108 0.0
0.216904 -0.018398 0.0
0.227454 -0.016749 0.0
0.237138 -0.015172 0.0
0.245988 -0.013676 0.0
0.254042 -0.012268 0.0
0.261338 -0.010950 0.0
0.267920 -0.009726 0.0
0.273832 -0.008596 0.0
0.279117 -0.007559 0.0
0.283821 -0.006612 0.0
0.287990 -0.005755 0.0
0.291666 -0.004981 0.0
0.294893 -0.004288 0.0
0.297712 -0.003670 0.0
0.300163 -0.003124 0.0
0.302283 -0.002643 0.0
0.304109 -0.002222 0.0
0.305673 -0.001858 0.0
0.307007 -0.001543 0.0
0.308140 -0.001275 0.0
0.309097 -0.001048 0.0
0.309903 -0.000857 0.0
0.310580 -0.000700 0.0
0.311147 -0.000571 0.0
0.311623 -0.000468 0.0
0.312023 -0.000387 0.0
0.312361 -0.000325 0.0
0.312650 -0.000280 0.0
0.312900 -0.000248 0.0
0.313121 -0.000229 0.0
0.313321 -0.000219 0.0
0.313506 -0.000218 0.0
0.313683 -0.000223 0.0
0.313856 -0.000232 0.0
0.314028 -0.000246 0.0
0.314204 -0.000261 0.0
0.314384 -0.000278 0.0
0.314570 -0.000294 0.0
0.314762 -0.000309 0.0
0.314960 -0.000321 0.0
0.315163 -0.000328 0.0
0.315369 -0.000329 0.0
0.315573 -0.000322 0.0
0.315771 -0.000304 0.0
0.315956 -0.000273 0.0
0.316120 -0.000225 0.0
0.316251 -0.000160 0.0
0.316338 -0.000079 0.0
0.316368 0.000000 0.0
0.500000 0.000000 0.0
0.000000 0.000000 0.0
0.000000 0.000000 0.0
0.000000 0.000000 0.0
0.000000 0.000000 0.0
0.000000 0.000000 0.0
0.000000 0.000000 0.0
0.000000 0.000000 0.0
0.000000 0.000000 0.0
0.000000 0.000445 0.0
-0.004933 0.016539 0.0
-0.018777 0.035918 0.0
-0.037450 0.043848 0.0
-0.056547 0.045314 0.0
-0.074383 0.044012 0.0
-0.090489 0.041925 0.0
-0.104845 0.039893 0.0
-0.117551 0.038140 0.0
-0.128683 0.036595 0.0
-0.138239 0.035063 0.0
-0.146139 0.033277 0.0
-0.152197 0.030868 0.0
-0.156108 0.027458 0.0
-0.157427 0.022646 0.0
-0.155577 0.016212 0.0
-0.149978 0.008250 0.0
-0.140277 -0.000746 0.0
-0.127159 -0.009663 0.0
-0.111730 -0.018062 0.0
-0.094442 -0.025931 0.0
-0.075620 -0.032921 0.0
-0.055579 -0.039040 0.0
-0.034566 -0.044145 0.0
-0.012796 -0.048320 0.0
0.009471 -0.051630 0.0
0.031829 -0.054094 0.0
0.054014 -0.055768 0.0
0.075938 -0.056710 0.0
0.097474 -0.057022 0.0
0.118546 -0.056573 0.0
0.139090 -0.055614 0.0
0.158981 -0.054222 0.0
0.178154 -0.052418 0.0
0.196578 -0.050297 0.0
0.214206 -0.047942 0.0
0.230998 -0.045421 0.0
0.246925 -0.042789 0.0
0.261967 -0.040097 0.0
0.276116 -0.037383 0.0
0.289372 -0.034683 0.0
0.301745 -0.032024 0.0
0.313250 -0.029431 0.0
0.323909 -0.026924 0.0
0.333748 -0.024519 0.0
0.342797 -0.022229 0.0
0.351090 -0.020062 0.0
0.358661 -0.018025 0.0
0.365549 -0.016122 0.0
0.371792 -0.014354 0.0
0.377429 -0.012722 0.0
0.382499 -0.011223 0.0
0.387041 -0.009855 0.0
0.391095 -0.008611 0.0
0.394699 -0.007488 0.0
0.397889 -0.006480 0.0
0.400702 -0.005579 0.0
0.403172 -0.004779 0.0
0.405332 -0.004072 0.0
0.407213 -0.003453 0.0
0.408845 -0.002913 0.0
0.410254 -0.002447 0.0
0.411468 -0.002046 0.0
0.412508 -0.001706 0.0
0.413399 -0.001419 0.0
0.414159 -0.001180 0.0
0.414807 -0.000983 0.0
0.415360 -0.000824 0.0
0.415832 -0.000698 0.0
0.416238 -0.000601 0.0
0.416589 -0.000528 0.0
0.416896 -0.000477 0.0
0.417168 -0.000443 0.0
0.417413 -0.000425 0.0
0.417639 -0.000418 0.0
0.417852 -0.000422 0.0
0.418055 -0.000433 0.0
0.418255 -0.000449 0.0
0.418453 -0.000468 0.0
0.418652 -0.000489 0.0
0.418854 -0.000508 0.0
0.419060 -0.000525 0.0
0.419269 -0.000536 0.0
0.419480 -0.000538 0.0
0.419690 -0.000528 0.0
0.419896 -0.000502 0.0
0.420093 -0.000456 0.0
0.420270 -0.000384 0.0
0.420417 -0.000281 0.0
0.420518 -0.000146 0.0
0.420555 0.000000 0.0
0.500000 0.000000 0.0
0.000000 0.000000 0.0
0.000000 0.000000 0.0
0.000000 0.000000 0.0
0.000000 0.000000 0.0
0.000000 0.000000 0.0
0.000000 0.000000 0.0
0.000000 0.000000 0.0
0.000000 0.000000 0.0
0.000000 0.001035 0.0
-0.005750 0.027222 0.0
-0.020899 0.054227 0.0
-0.039632 0.062944 0.0
-0.057053 0.062737 0.0
-0.071789 0.059162 0.0
-0.083736 0.054827 0.0
-0.093112 0.050722 0.0
-0.100141 0.047046 0.0
-0.104932 0.043612 0.0
-0.107450 0.040121 0.0
-0.107595 0.036263 0.0
-0.105152 0.031498 0.0
-0.099778 0.025366 0.0
-0.091047 0.017327 0.0
-0.078286 0.006920 0.0
-0.061487 -0.004856 0.0
-0.042227 -0.016601 0.0
-0.021756 -0.027396 0.0
-0.000227 -0.037288 0.0
0.021946 -0.046167 0.0
0.044365 -0.053926 0.0
0.066910 -0.060621 0.0
0.089471 -0.066138 0.0
0.111942 -0.070569 0.0
0.134191 -0.073896 0.0
0.156136 -0.076131 0.0
0.177679 -0.077459 0.0
0.198694 -0.077959 0.0
0.219088 -0.077702 0.0
0.238821 -0.076698 0.0
0.257870 -0.075083 0.0
0.276185 -0.072959 0.0
0.293731 -0.070401 0.0
0.310487 -0.067494 0.0
0.326436 -0.064322 0.0
0.341563 -0.060960 0.0
0.355861 -0.057474 0.0
0.369326 -0.053920 0.0
0.381964 -0.050347 0.0
0.393786 -0.046797 0.0
0.404808 -0.043304 0.0
0.415050 -0.039899 0.0
0.424539 -0.036604 0.0
0.433302 -0.033441 0.0
0.441369 -0.030423 0.0
0.448772 -0.027563 0.0
0.455546 -0.024868 0.0
0.461723 -0.022343 0.0
0.467338 -0.019991 0.0
0.472426 -0.017810 0.0
0.477021 -0.015800 0.0
0.481157 -0.013956 0.0
0.484866 -0.012273 0.0
0.488182 -0.010746 0.0
0.491135 -0.009365 0.0
0.493755 -0.008126 0.0
0.496070 -0.007017 0.0
0.498109 -0.006033 0.0
0.499898 -0.005162 0.0
0.501460 -0.004398 0.0
0.502820 -0.003731 0.0
0.503998 -0.003154 0.0
0.505016 -0.002657 0.0
0.505892 -0.002234 0.0
0.506643 -0.001876 0.0
0.507285 -0.001577 0.0
0.507833 -0.001331 0.0
0.508301 -0.001132 0.0
0.508700 -0.000973 0.0
0.509041 -0.000849 0.0
0.509335 -0.000757 0.0
0.509591 -0.000691 0.0
0.509815 -0.000647 0.0
0.510015 -0.000622 0.0
0.510198 -0.000613 0.0
0.510367 -0.000615 0.0
0.510529 -0.000627 0.0
0.510685 -0.000645 0.0
0.510840 -0.000666 0.0
0.510996 -0.000689 0.0
0.511154 -0.000708 0.0
0.511315 -0.000722 0.0
0.511479 -0.000727 0.0
0.511646 -0.000717 0.0
0.511812 -0.000687 0.0
0.511975 -0.000630 0.0
0.512128 -0.000539 0.0
0.512259 -0.000404 0.0
0.512353 -0.000217 0.0
0.512388 0.000000 0.0
0.500000 0.000000 0.0
0.000000 0.000000 0.0
0.000000 0.000000 0.0
0.000000 0.000000 0.0
0.000000 0.000000 0.0
0.000000 0.000000 0.0
0.000000 0.000000 0.0
0.000000 0.000000 0.0
0.000000 0.000000 0.0
0.000000 0.001809 0.0
-0.006365 0.039338 0.0
-0.021342 0.072237 0.0
-0.036976 0.079300 0.0
-0.048818 0.075644 0.0
-0.056496 0.068668 0.0
-0.060543 0.061314 0.0
-0.061451 0.054518 0.0
-0.059559 0.048387 0.0
-0.054995 0.042498 0.0
-0.047603 0.036361 0.0
-0.037170 0.029733 0.0
-0.023379 0.021795 0.0
-0.005430 0.011746 0.0
0.016973 -0.000187 0.0
0.041939 -0.013293 0.0
0.067111 -0.026613 0.0
0.091904 -0.038895 0.0
0.116462 -0.050131 0.0
0.140704 -0.060324 0.0
0.164575 -0.069175 0.0
0.188048 -0.076809 0.0
0.211009 -0.083244 0.0
0.233385 -0.088453 0.0
0.255129 -0.092470 0.0
0.276204 -0.095319 0.0
0.296599 -0.097048 0.0
0.316294 -0.097778 0.0
0.335246 -0.097607 0.0
0.353421 -0.096622 0.0
0.370806 -0.094895 0.0
0.387400 -0.092529 0.0
0.403198 -0.089626 0.0
0.418195 -0.086277 0.0
0.432395 -0.082573 0.0
0.445802 -0.078598 0.0
0.458423 -0.074432 0.0
0.470268 -0.070144 0.0
0.481350 -0.065797 0.0
0.491686 -0.061444 0.0
0.501297 -0.057132 0.0
0.510206 -0.052900 0.0
0.518439 -0.048779 0.0
0.526025 -0.044798 0.0
0.532993 -0.040978 0.0
0.539375 -0.037335 0.0
0.545203 -0.033882 0.0
0.550508 -0.030627 0.0
0.555323 -0.027576 0.0
0.559678 -0.024729 0.0
0.563606 -0.022088 0.0
0.567136 -0.019648 0.0
0.570298 -0.017406 0.0
0.573120 -0.015355 0.0
0.575629 -0.013488 0.0
0.577851 -0.011797 0.0
0.579811 -0.010273 0.0
0.581532 -0.008906 0.0
0.583036 -0.007687 0.0
0.584344 -0.006604 0.0
0.585475 -0.005650 0.0
0.586447 -0.004812 0.0
0.587279 -0.004082 0.0
0.587984 -0.003451 0.0
0.588578 -0.002909 0.0
0.589074 -0.002448 0.0
0.589485 -0.002059 0.0
0.589822 -0.001735 0.0
0.590095 -0.001469 0.0
0.590314 -0.001253 0.0
0.590487 -0.001083 0.0
0.590622 -0.000952 0.0
0.590726 -0.000855 0.0
0.590806 -0.000787 0.0
0.590867 -0.000743 0.0
0.590914 -0.000721 0.0
0.590952 -0.000714 0.0
0.590983 -0.000721 0.0
0.591013 -0.000737 0.0
0.591043 -0.000759 0.0
0.591076 -0.000784 0.0
0.591113 -0.000808 0.0
0.591158 -0.000828 0.0
0.591210 -0.000838 0.0
0.591271 -0.000833 0.0
0.591340 -0.000806 0.0
0.591415 -0.000749 0.0
0.591495 -0.000651 0.0
0.591571 -0.000499 0.0
0.591631 -0.000277 0.0
0.591655 0.000000 0.0
0.500000 0.000000 0.0
0.000000 0.000000 0.0
0.000000 0.000000 0.0
0.000000 0.000000 0.0
0.000000 0.000000 0.0
0.000000 0.000000 0.0
0.000000 0.000000 0.0
0.000000 0.000000 0.0
0.000000 0.000000 0.0
0.000000 0.002948 0.0
-0.007061 0.052765 0.0
-0.020035 0.086760 0.0
-0.027949 0.088326 0.0
-0.028872 0.079384 0.0
-0.024589 0.068322 0.0
-0.016496 0.057615 0.0
-0.005108 0.047737 0.0
0.009360 0.038809 0.0
0.026779 0.030094 0.0
0.047438 0.020716 0.0
0.072132 0.010250 0.0
0.100867 -0.001248 0.0
0.131724 -0.014018 0.0
0.162388 -0.027490 0.0
0.191955 -0.040524 0.0
0.220373 -0.052973 0.0
0.247589 -0.064544 0.0
0.273631 -0.075084 0.0
0.298517 -0.084499 0.0
0.322292 -0.092646 0.0
0.345013 -0.099531 0.0
0.366698 -0.105168 0.0
0.387359 -0.109567 0.0
0.407018 -0.112759 0.0
0.425700 -0.114787 0.0
0.443441 -0.115715 0.0
0.460270 -0.115634 0.0
0.476206 -0.114640 0.0
0.491267 -0.112826 0.0
0.505474 -0.110283 0.0
0.518852 -0.107112 0.0
0.531424 -0.103412 0.0
0.543212 -0.099277 0.0
0.554240 -0.094800 0.0
0.564530 -0.090068 0.0
0.574106 -0.085159 0.0
0.582991 -0.080147 0.0
0.591209 -0.075095 0.0
0.598787 -0.070061 0.0
0.605751 -0.065091 0.0
0.612130 -0.060228 0.0
0.617952 -0.055506 0.0
0.623248 -0.050953 0.0
0.628047 -0.046591 0.0
0.632380 -0.042437 0.0
0.636277 -0.038505 0.0
0.639768 -0.034800 0.0
0.642880 -0.031330 0.0
0.645644 -0.028094 0.0
0.648085 -0.025092 0.0
0.650230 -0.022319 0.0
0.652104 -0.019771 0.0
0.653731 -0.017439 0.0
0.655132 -0.015315 0.0
0.656330 -0.013390 0.0
0.657343 -0.011654 0.0
0.658191 -0.010094 0.0
0.658890 -0.008702 0.0
0.659456 -0.007464 0.0
0.659905 -0.006370 0.0
0.660250 -0.005409 0.0
0.660502 -0.004570 0.0
0.660675 -0.003842 0.0
0.660778 -0.003215 0.0
0.660820 -0.002680 0.0
0.660811 -0.002228 0.0
0.660758 -0.001850 0.0
0.660668 -0.001537 0.0
0.660548 -0.001283 0.0
0.660403 -0.001082 0.0
0.660240 -0.000925 0.0
0.660062 -0.000808 0.0
0.659875 -0.000726 0.0
0.659681 -0.000672 0.0
0.659484 -0.000643 0.0
0.659288 -0.000633 0.0
0.659095 -0.000640 0.0
0.658907 -0.000659 0.0
0.658727 -0.000687 0.0
0.658557 -0.000719 0.0
0.658399 -0.000753 0.0
0.658254 -0.000783 0.0
0.658126 -0.000806 0.0
0.658016 -0.000815 0.0
0.657926 -0.000803 0.0
0.657858 -0.000760 0.0
0.657813 -0.000675 0.0
0.657791 -0.000529 0.0
0.657787 -0.000303 0.0
0.657789 0.000000 0.0
0.500000 0.000000 0.0
0.000000 0.000000 0.0
0.000000 0.000000 0.0
0.000000 0.000000 0.0
0.000000 0.000000 0.0
0.000000 0.000000 0.0
0.000000 0.000000 0.0
0.000000 0.000000 0.0
0.000000 0.000000 0.0
0.000000 0.004996 0.0
-0.007061 0.066887 0.0
-0.012972 0.091522 0.0
-0.004129 0.082636 0.0
0.014416 0.067452 0.0
0.037471 0.052915 0.0
0.063013 0.039387 0.0
0.090973 0.026617 0.0
0.122034 0.014400 0.0
0.156534 0.002585 0.0
0.193308 -0.009208 0.0
0.230277 -0.021490 0.0
0.265971 -0.033937 0.0
0.300002 -0.046217 0.0
0.332263 -0.058215 0.0
0.362655 -0.069758 0.0
0.391152 -0.080653 0.0
0.417791 -0.090717 0.0
0.442648 -0.099809 0.0
0.465812 -0.107824 0.0
0.487389 -0.114672 0.0
0.507484 -0.120322 0.0
0.526193 -0.124771 0.0
0.543599 -0.128031 0.0
0.559782 -0.130136 0.0
0.574819 -0.131130 0.0
0.588784 -0.131078 0.0
0.601744 -0.130060 0.0
0.613760 -0.128165 0.0
0.624884 -0.125485 0.0
0.635168 -0.122115 0.0
0.644659 -0.118150 0.0
0.653402 -0.113688 0.0
0.661437 -0.108824 0.0
0.668804 -0.103648 0.0
0.675538 -0.098244 0.0
0.681673 -0.092694 0.0
0.687243 -0.087067 0.0
0.692278 -0.081429 0.0
0.696810 -0.075837 0.0
0.700869 -0.070338 0.0
0.704483 -0.064975 0.0
0.707682 -0.059781 0.0
0.710495 -0.054786 0.0
0.712949 -0.050011 0.0
0.715071 -0.045473 0.0
0.716888 -0.041183 0.0
0.718425 -0.037149 0.0
0.719706 -0.033375 0.0
0.720754 -0.029860 0.0
0.721590 -0.026603 0.0
0.722236 -0.023599 0.0
0.722711 -0.020840 0.0
0.723034 -0.018318 0.0
0.723220 -0.016024 0.0
0.723286 -0.013946 0.0
0.723247 -0.012072 0.0
0.723116 -0.010392 0.0
0.722905 -0.008892 0.0
0.722625 -0.007560 0.0
0.722287 -0.006384 0.0
0.721900 -0.005352 0.0
0.721471 -0.004451 0.0
0.721009 -0.003671 0.0
0.720520 -0.003000 0.0
0.720009 -0.002428 0.0
0.719483 -0.001945 0.0
0.718945 -0.001542 0.0
0.718399 -0.001210 0.0
0.717851 -0.000942 0.0
0.717302 -0.000730 0.0
0.716757 -0.000568 0.0
0.716217 -0.000448 0.0
0.715685 -0.000366 0.0
0.715162 -0.000315 0.0
0.714651 -0.000292 0.0
0.714153 -0.000290 0.0
0.713669 -0.000307 0.0
0.713201 -0.000337 0.0
0.712751 -0.000379 0.0
0.712320 -0.000427 0.0
0.711911 -0.000478 0.0
0.711525 -0.000528 0.0
0.711165 -0.000573 0.0
0.710836 -0.000608 0.0
0.710541 -0.000625 0.0
0.710285 -0.000615 0.0
0.710076 -0.000566 0.0
0.709921 -0.000460 0.0
0.709827 -0.000274 0.0
0.709796 0.000000 0.0
0.500000 -0.076758 0.0
0.000000 -0.050923 0.0
0.000000 -0.034684 0.0
0.000000 -0.022201 0.0
0.000000 -0.011508 0.0
0.000000 -0.001835 0.0
0.000000 0.007243 0.0
0.000000 0.016115 0.0
0.000000 0.025415 0.0
0.000000 0.005339 0.0
0.001482 0.072466 0.0
0.022400 0.070936 0.0
0.065370 0.051408 0.0
0.112761 0.032743 0.0
0.161251 0.016079 0.0
0.210420 0.001511 0.0
0.258613 -0.011659 0.0
0.304362 -0.024135 0.0
0.346920 -0.035938 0.0
0.386500 -0.047039 0.0
0.423522 -0.057650 0.0
0.458112 -0.068061 0.0
0.490251 -0.078263 0.0
0.519963 -0.088141 0.0
0.547308 -0.097569 0.0
0.572369 -0.106401 0.0
0.595256 -0.114495 0.0
0.616093 -0.121726 0.0
0.635015 -0.127994 0.0
0.652163 -0.133226 0.0
0.667675 -0.137377 0.0
0.681685 -0.140434 0.0
0.694313 -0.142403 0.0
0.705675 -0.143309 0.0
0.715878 -0.143196 0.0
0.725021 -0.142120 0.0
0.733195 -0.140153 0.0
0.740483 -0.137376 0.0
0.746961 -0.133876 0.0
0.752695 -0.129742 0.0
0.757750 -0.125068 0.0
0.762182 -0.119945 0.0
0.766044 -0.114464 0.0
0.769383 -0.108713 0.0
0.772244 -0.102774 0.0
0.774667 -0.096722 0.0
0.776688 -0.090629 0.0
0.778342 -0.084557 0.0
0.779662 -0.078560 0.0
0.780677 -0.072687 0.0
0.781414 -0.066977 0.0
0.781902 -0.061465 0.0
0.782163 -0.056177 0.0
0.782222 -0.051133 0.0
0.782099 -0.046351 0.0
0.781816 -0.041839 0.0
0.781391 -0.037605 0.0
0.780842 -0.033650 0.0
0.780184 -0.029975 0.0
0.779434 -0.026575 0.0
0.778603 -0.023443 0.0
0.777705 -0.020573 0.0
0.776752 -0.017954 0.0
0.775754 -0.015576 0.0
0.774721 -0.013426 0.0
0.773660 -0.011492 0.0
0.772579 -0.009761 0.0
0.771487 -0.008219 0.0
0.770387 -0.006854 0.0
0.769286 -0.005651 0.0
0.768187 -0.004599 0.0
0.767095 -0.003684 0.0
0.766013 -0.002894 0.0
0.764944 -0.002217 0.0
0.763888 -0.001644 0.0
0.762849 -0.001163 0.0
0.761828 -0.000765 0.0
0.760828 -0.000442 0.0
0.759851 -0.000185 0.0
0.758898 0.000015 0.0
0.757969 0.000163 0.0
0.757062 0.000268 0.0
0.756178 0.000334 0.0
0.755318 0.000367 0.0
0.754482 0.000373 0.0
0.753671 0.000355 0.0
0.752884 0.000318 0.0
0.752124 0.000266 0.0
0.751392 0.000201 0.0
0.750688 0.000128 0.0
0.750015 0.000050 0.0
0.749376 -0.000031 0.0
0.748774 -0.000109 0.0
0.748214 -0.000182 0.0
0.747703 -0.000244 0.0
0.747249 -0.000287 0.0
0.746864 -0.000301 0.0
0.746565 -0.000271 0.0
0.746371 -0.000175 0.0
0.746303 0.000000 0.0
0.028265 -0.076758 0.0
-0.902029 -0.050923 0.0
-0.819281 -0.034684 0.0
-0.741195 -0.022201 0.0
-0.673617 -0.011508 0.0
-0.618417 -0.001835 0.0
-0.576231 0.007243 0.0
-0.548213 0.016115 0.0
-0.539276 0.025415 0.0
-0.270286 -0.001286 0.0
0.063227 0.011209 0.0
0.177158 0.000796 0.0
0.267811 -0.012075 0.0
0.340855 -0.024210 0.0
0.401533 -0.036135 0.0
0.452957 -0.046868 0.0
0.498003 -0.056519 0.0
0.538375 -0.065396 0.0
0.574986 -0.073845 0.0
0.608332 -0.082057 0.0
0.638754 -0.090076 0.0
0.666491 -0.097963 0.0
0.691686 -0.105696 0.0
0.714453 -0.113186 0.0
0.734902 -0.120318 0.0
0.753152 -0.126963 0.0
0.769327 -0.132995 0.0
0.783562 -0.138298 0.0
0.795997 -0.142779 0.0
0.806772 -0.146365 0.0
0.816030 -0.149008 0.0
0.823904 -0.150686 0.0
0.830523 -0.151398 0.0
0.836008 -0.151161 0.0
0.840473 -0.150011 0.0
0.844022 -0.147997 0.0
0.846753 -0.145182 0.0
0.848756 -0.141639 0.0
0.850112 -0.137447 0.0
0.850896 -0.132690 0.0
0.851178 -0.127456 0.0
0.851018 -0.121830 0.0
0.850474 -0.115898 0.0
0.849598 -0.109743 0.0
0.848436 -0.103443 0.0
0.847030 -0.097070 0.0
0.845418 -0.090691 0.0
0.843635 -0.084366 0.0
0.841709 -0.078146 0.0
0.839670 -0.072077 0.0
0.837541 -0.066196 0.0
0.835344 -0.060536 0.0
0.833097 -0.055121 0.0
0.830819 -0.049970 0.0
0.828523 -0.045096 0.0
0.826222 -0.040510 0.0
0.823928 -0.036215 0.0
0.821649 -0.032212 0.0
0.819394 -0.028500 0.0
0.817169 -0.025074 0.0
0.814980 -0.021925 0.0
0.812832 -0.019046 0.0
0.810728 -0.016425 0.0
0.808672 -0.014051 0.0
0.806665 -0.011910 0.0
0.804709 -0.009991 0.0
0.802805 -0.008278 0.0
0.800954 -0.006758 0.0
0.799155 -0.005417 0.0
0.797409 -0.004241 0.0
0.795713 -0.003215 0.0
0.794066 -0.002329 0.0
0.792466 -0.001567 0.0
0.790912 -0.000920 0.0
0.789403 -0.000376 0.0
0.787937 0.000075 0.0
0.786513 0.000442 0.0
0.785129 0.000735 0.0
0.783783 0.000961 0.0
0.782476 0.001129 0.0
0.781208 0.001246 0.0
0.779979 0.001320 0.0
0.778790 0.001354 0.0
0.777641 0.001356 0.0
0.776531 0.001330 0.0
0.775461 0.001280 0.0
0.774429 0.001211 0.0
0.773438 0.001125 0.0
0.772485 0.001027 0.0
0.771573 0.000918 0.0
0.770703 0.000803 0.0
0.769876 0.000682 0.0
0.769096 0.000560 0.0
0.768368 0.000437 0.0
0.767698 0.000318 0.0
0.767097 0.000207 0.0
0.766580 0.000108 0.0
0.766168 0.000031 0.0
0.765894 -0.000010 0.0
0.765796 0.000000 0.0
0.971735 0.028265 0.0
0.902029 0.041441 0.0
0.819281 0.041307 0.0
0.741195 0.036780 0.0
0.673617 0.030798 0.0
0.618417 0.024401 0.0
0.576231 0.017785 0.0
0.548213 0.010233 0.0
0.539276 -0.001297 0.0
0.556739 -0.023069 0.0
0.582913 -0.058574 0.0
0.608698 -0.065686 0.0
0.642223 -0.069771 0.0
0.677174 -0.074510 0.0
0.710297 -0.079635 0.0
0.740637 -0.085132 0.0
0.768075 -0.090740 0.0
0.792866 -0.096338 0.0
0.815293 -0.101941 0.0
0.835561 -0.107575 0.0
0.853808 -0.113227 0.0
0.870131 -0.118870 0.0
0.884591 -0.124444 0.0
0.897241 -0.129855 0.0
0.908137 -0.134994 0.0
0.917343 -0.139743 0.0
0.924937 -0.143985 0.0
0.931010 -0.147615 0.0
0.935659 -0.150545 0.0
0.938990 -0.152705 0.0
0.941112 -0.154047 0.0
0.942134 -0.154544 0.0
0.942165 -0.154190 0.0
0.941308 -0.152998 0.0
0.939664 -0.150995 0.0
0.937329 -0.148227 0.0
0.934395 -0.144749 0.0
0.930946 -0.140626 0.0
0.927062 -0.135932 0.0
0.922818 -0.130746 0.0
0.918283 -0.125146 0.0
0.913518 -0.119215 0.0
0.908582 -0.113033 0.0
0.903527 -0.106677 0.0
0.898400 -0.100220 0.0
0.893242 -0.093730 0.0
0.888091 -0.087269 0.0
0.882978 -0.080892 0.0
0.877931 -0.074648 0.0
0.872973 -0.068578 0.0
0.868124 -0.062717 0.0
0.863399 -0.057093 0.0
0.858811 -0.051729 0.0
0.854368 -0.046641 0.0
0.850079 -0.041840 0.0
0.845947 -0.037333 0.0
0.841974 -0.033124 0.0
0.838161 -0.029211 0.0
0.834506 -0.025592 0.0
0.831009 -0.022259 0.0
0.827664 -0.019206 0.0
0.824469 -0.016421 0.0
0.821418 -0.013894 0.0
0.818506 -0.011613 0.0
0.815728 -0.009563 0.0
0.813077 -0.007731 0.0
0.810547 -0.006104 0.0
0.808131 -0.004665 0.0
0.805822 -0.003402 0.0
0.803611 -0.002298 0.0
0.801489 -0.001340 0.0
0.799445 -0.000514 0.0
0.797473 0.000189 0.0
0.795571 0.000780 0.0
0.793737 0.001268 0.0
0.791970 0.001664 0.0
0.790269 0.001978 0.0
0.788632 0.002220 0.0
0.787058 0.002396 0.0
0.785545 0.002515 0.0
0.784090 0.002584 0.0
0.782692 0.002609 0.0
0.781349 0.002597 0.0
0.780059 0.002553 0.0
0.778821 0.002482 0.0
0.777632 0.002387 0.0
0.776493 0.002274 0.0
0.775401 0.002145 0.0
0.774356 0.002004 0.0
0.773359 0.001851 0.0
0.772409 0.001690 0.0
0.771508 0.001522 0.0
0.770659 0.001348 0.0
0.769866 0.001169 0.0
0.769136 0.000985 0.0
0.768480 0.000796 0.0
0.767915 0.000602 0.0
0.767463 0.000402 0.0
0.767160 0.000196 0.0
0.767052 0.000000 0.0
1.012850 0.043680 0.0
1.034717 0.073865 0.0
1.046503 0.079844 0.0
1.047923 0.074910 0.0
1.043316 0.064852 0.0
1.036636 0.052227 0.0
1.030975 0.037806 0.0
1.028525 0.020679 0.0
1.028493 -0.002774 0.0
1.024710 -0.035272 0.0
1.014582 -0.062417 0.0
1.004473 -0.077519 0.0
0.999346 -0.086336 0.0
0.998989 -0.092539 0.0
1.001887 -0.097627 0.0
1.006692 -0.102286 0.0
1.012429 -0.106762 0.0
1.018467 -0.111145 0.0
1.024394 -0.115490 0.0
1.029924 -0.119824 0.0
1.034844 -0.124145 0.0
1.038995 -0.128425 0.0
1.042253 -0.132608 0.0
1.044530 -0.136619 0.0
1.045769 -0.140365 0.0
1.045942 -0.143750 0.0
1.045047 -0.146677 0.0
1.043106 -0.149055 0.0
1.040161 -0.150809 0.0
1.036268 -0.151879 0.0
1.031495 -0.152222 0.0
1.025917 -0.151814 0.0
1.019616 -0.150650 0.0
1.012676 -0.148741 0.0
1.005183 -0.146115 0.0
0.997223 -0.142812 0.0
0.988878 -0.138885 0.0
0.980232 -0.134395 0.0
0.971363 -0.129411 0.0
0.962345 -0.124005 0.0
0.953247 -0.118253 0.0
0.944135 -0.112231 0.0
0.935068 -0.106014 0.0
0.926100 -0.099672 0.0
0.917278 -0.093275 0.0
0.908643 -0.086883 0.0
0.900232 -0.080553 0.0
0.892075 -0.074336 0.0
0.884194 -0.068276 0.0
0.876610 -0.062408 0.0
0.869336 -0.056763 0.0
0.862380 -0.051367 0.0
0.855750 -0.046236 0.0
0.849444 -0.041386 0.0
0.843462 -0.036823 0.0
0.837799 -0.032554 0.0
0.832448 -0.028579 0.0
0.827398 -0.024895 0.0
0.822641 -0.021497 0.0
0.818164 -0.018379 0.0
0.813955 -0.015532 0.0
0.809999 -0.012945 0.0
0.806284 -0.010605 0.0
0.802796 -0.008502 0.0
0.799520 -0.006620 0.0
0.796440 -0.004944 0.0
0.793541 -0.003462 0.0
0.790804 -0.002154 0.0
0.788204 -0.001004 0.0
0.785721 -0.000003 0.0
0.783351 0.000857 0.0
0.781097 0.001588 0.0
0.778958 0.002199 0.0
0.776929 0.002701 0.0
0.775004 0.003105 0.0
0.773179 0.003420 0.0
0.771447 0.003656 0.0
0.769803 0.003823 0.0
0.768241 0.003928 0.0
0.766758 0.003980 0.0
0.765347 0.003984 0.0
0.764006 0.003948 0.0
0.762729 0.003878 0.0
0.761513 0.003778 0.0
0.760355 0.003653 0.0
0.759252 0.003508 0.0
0.758200 0.003345 0.0
0.757198 0.003168 0.0
0.756244 0.002979 0.0
0.755337 0.002780 0.0
0.754476 0.002572 0.0
0.753662 0.002355 0.0
0.752896 0.002130 0.0
0.752183 0.001894 0.0
0.751527 0.001646 0.0
0.750939 0.001380 0.0
0.750432 0.001091 0.0
0.750027 0.000769 0.0
0.749757 0.000401 0.0
0.749661 0.000000 0.0
1.008272 0.022557 0.0
1.031045 0.050349 0.0
1.060607 0.062011 0.0
1.089250 0.062680 0.0
1.114560 0.056379 0.0
1.136406 0.045535 0.0
1.155337 0.031230 0.0
1.171565 0.013477 0.0
1.183992 -0.007967 0.0
1.190066 -0.032369 0.0
1.189173 -0.054299 0.0
1.184257 -0.070611 0.0
1.178421 -0.082282 0.0
1.173108 -0.090923 0.0
1.168669 -0.097701 0.0
1.165002 -0.103350 0.0
1.161864 -0.108297 0.0
1.159002 -0.112786 0.0
1.156190 -0.116964 0.0
1.153229 -0.120918 0.0
1.149944 -0.124687 0.0
1.146186 -0.128276 0.0
1.141830 -0.131660 0.0
1.136777 -0.134792 0.0
1.130955 -0.137609 0.0
1.124318 -0.140042 0.0
1.116844 -0.142017 0.0
1.108538 -0.143468 0.0
1.099424 -0.144337 0.0
1.089544 -0.144578 0.0
1.078954 -0.144159 0.0
1.067722 -0.143067 0.0
1.055925 -0.141300 0.0
1.043648 -0.138874 0.0
1.030977 -0.135818 0.0
1.018003 -0.132174 0.0
1.004816 -0.127992 0.0
0.991504 -0.123330 0.0
0.978154 -0.118256 0.0
0.964848 -0.112835 0.0
0.951663 -0.107140 0.0
0.938669 -0.101239 0.0
0.925933 -0.095202 0.0
0.913510 -0.089093 0.0
0.901451 -0.082973 0.0
0.889799 -0.076898 0.0
0.878588 -0.070916 0.0
0.867845 -0.065073 0.0
0.857591 -0.059405 0.0
0.847839 -0.053943 0.0
0.838597 -0.048712 0.0
0.829866 -0.043732 0.0
0.821643 -0.039017 0.0
0.813920 -0.034577 0.0
0.806685 -0.030416 0.0