# vtk DataFile Version 3.0
Vector Field
ASCII
DATASET RECTILINEAR_GRID
DIMENSIONS 100 20 1
X_COORDINATES 100 double
0.050000 0.150000 0.250000 0.350000 0.450000 0.550000 0.650000 0.750000 0.850000 0.950000 1.050000 1.150000 1.250000 1.350000 1.450000 1.550000 1.650000 1.750000 1.850000 1.950000 2.050000 2.150000 2.250000 2.350000 2.450000 2.550000 2.650000 2.750000 2.850000 2.950000 3.050000 3.150000 3.250000 3.350000 3.450000 3.550000 3.650000 3.750000 3.850000 3.950000 4.050000 4.150000 4.250000 4.350000 4.450000 4.550000 4.650000 4.750000 4.850000 4.950000 5.050000 5.150000 5.250000 5.350000 5.450000 5.550000 5.650000 5.750000 5.850000 5.950000 6.050000 6.150000 6.250000 6.350000 6.450000 6.550000 6.650000 6.750000 6.850000 6.950000 7.050000 7.150000 7.250000 7.350000 7.450000 7.550000 7.650000 7.750000 7.850000 7.950000 8.050000 8.150000 8.250000 8.350000 8.450000 8.550000 8.650000 8.750000 8.850000 8.950000 9.050000 9.150000 9.250000 9.350000 9.450000 9.550000 9.650000 9.750000 9.850000 9.950000 
Y_COORDINATES 20 double
0.050000 0.150000 0.250000 0.350000 0.450000 0.550000 0.650000 0.750000 0.850000 0.950000 1.050000 1.150000 1.250000 1.350000 1.450000 1.550000 1.650000 1.750000 1.850000 1.950000 
Z_COORDINATES 1 double
0.0
POINT_DATA 2000
VECTORS Vektorfeld double
0.500000 0.000000 0.0
0.000000 0.000000 0.0
0.000000 0.000000 0.0
0.000000 0.000000 0.0
0.000000 0.000000 0.0
0.000000 0.000000 0.0
0.000000 0.000000 0.0
0.000000 0.000000 0.0
0.000000 0.000000 0.0
0.000000 -0.000113 0.0
-0.000189 0.000189 0.0
-0.001946 0.001569 0.0
-0.005907 0.002393 0.0
-0.010991 0.002691 0.0
-0.016423 0.002741 0.0
-0.021889 0.002725 0.0
-0.027339 0.002725 0.0
-0.032827 0.002763 0.0
-0.038426 0.002837 0.0
-0.044196 0.002934 0.0
-0.050163 0.003033 0.0
-0.056303 0.003106 0.0
-0.062524 0.003115 0.0
-0.068663 0.003024 0.0
-0.074492 0.002805 0.0
-0.079744 0.002448 0.0
-0.084157 0.001965 0.0
-0.087499 0.001376 0.0
-0.089585 0.000711 0.0
-0.090316 0.000020 0.0
-0.089661 -0.000674 0.0
-0.087633 -0.001354 0.0
-0.084306 -0.001973 0.0
-0.079817 -0.002516 0.0
-0.074312 -0.002988 0.0
-0.067936 -0.003388 0.0
-0.060856 -0.003692 0.0
-0.053272 -0.003893 0.0
-0.045370 -0.004009 0.0
-0.037255 -0.004106 0.0
-0.029032 -0.004117 0.0
-0.020875 -0.004040 0.0
-0.012883 -0.003952 0.0
-0.005118 -0.003813 0.0
0.002318 -0.003623 0.0
0.009338 -0.003396 0.0
0.015896 -0.003162 0.0
0.021982 -0.002925 0.0
0.027596 -0.002689 0.0
0.032741 -0.002456 0.0
0.037426 -0.002230 0.0
0.041668 -0.002012 0.0
0.045485 -0.001805 0.0
0.048900 -0.001609 0.0
0.051936 -0.001427 0.0
0.054620 -0.001257 0.0
0.056978 -0.001102 0.0
0.059039 -0.000959 0.0
0.060829 -0.000830 0.0
0.062373 -0.000714 0.0
0.063698 -0.000610 0.0
0.064826 -0.000518 0.0
0.065780 -0.000436 0.0
0.066582 -0.000365 0.0
0.067249 -0.000303 0.0
0.067801 -0.000249 0.0
0.068252 -0.000202 0.0
0.068617 -0.000163 0.0
0.068911 -0.000130 0.0
0.069143 -0.000102 0.0
0.069324 -0.000079 0.0
0.069464 -0.000061 0.0
0.069571 -0.000046 0.0
0.069651 -0.000034 0.0
0.069710 -0.000025 0.0
0.069754 -0.000019 0.0
0.069787 -0.000014 0.0
0.069813 -0.000011 0.0
0.069834 -0.000010 0.0
0.069853 -0.000010 0.0
0.069873 -0.000010 0.0
0.069895 -0.000012 0.0
0.069921 -0.000014 0.0
0.069951 -0.000016 0.0
0.069985 -0.000019 0.0
0.070025 -0.000021 0.0
0.070071 -0.000024 0.0
0.070122 -0.000027 0.0
0.070178 -0.000029 0.0
0.070239 -0.000031 0.0
0.070304 -0.000033 0.0
0.070370 -0.000034 0.0
0.070438 -0.000034 0.0
0.070505 -0.000033 0.0
0.070569 -0.000031 0.0
0.070627 -0.000027 0.0
0.070675 -0.000021 0.0
0.070710 -0.000014 0.0
0.070729 -0.000006 0.0
0.070735 0.000000 0.0
0.500000 0.000000 0.0
0.000000 0.000000 0.0
0.000000 0.000000 0.0
0.000000 0.000000 0.0
0.000000 0.000000 0.0
0.000000 0.000000 0.0
0.000000 0.000000 0.0
0.000000 0.000000 0.0
0.000000 0.000000 0.0
0.000000 -0.000182 0.0
-0.001949 0.002327 0.0
-0.008563 0.007801 0.0
-0.019277 0.010835 0.0
-0.031844 0.011901 0.0
-0.044900 0.012019 0.0
-0.057844 0.011856 0.0
-0.070517 0.011717 0.0
-0.082954 0.011694 0.0
-0.095227 0.011778 0.0
-0.107380 0.011915 0.0
-0.119379 0.012018 0.0
-0.131089 0.011971 0.0
-0.142255 0.011637 0.0
-0.152503 0.010889 0.0
-0.161376 0.009641 0.0
-0.168397 0.007886 0.0
-0.173150 0.005693 0.0
-0.175318 0.003157 0.0
-0.174702 0.000400 0.0
-0.171229 -0.002412 0.0
-0.165010 -0.005116 0.0
-0.156337 -0.007613 0.0
-0.145571 -0.009808 0.0
-0.133061 -0.011681 0.0
-0.119109 -0.013279 0.0
-0.103975 -0.014607 0.0
-0.087932 -0.015595 0.0
-0.071280 -0.016226 0.0
-0.054306 -0.016551 0.0
-0.037186 -0.016799 0.0
-0.020073 -0.016760 0.0
-0.003145 -0.016481 0.0
0.013348 -0.015996 0.0
0.029169 -0.015355 0.0
0.044252 -0.014599 0.0
0.058567 -0.013755 0.0
0.072079 -0.012873 0.0
0.084754 -0.011975 0.0
0.096576 -0.011074 0.0
0.107542 -0.010181 0.0
0.117658 -0.009307 0.0
0.126942 -0.008461 0.0
0.135419 -0.007650 0.0
0.143120 -0.006879 0.0
0.150079 -0.006153 0.0
0.156338 -0.005473 0.0
0.161936 -0.004843 0.0
0.166920 -0.004262 0.0
0.171333 -0.003730 0.0
0.175221 -0.003246 0.0
0.178627 -0.002809 0.0
0.181597 -0.002416 0.0
0.184170 -0.002066 0.0
0.186388 -0.001755 0.0
0.188288 -0.001481 0.0
0.189907 -0.001241 0.0
0.191277 -0.001032 0.0
0.192429 -0.000852 0.0
0.193392 -0.000697 0.0
0.194191 -0.000566 0.0
0.194851 -0.000456 0.0
0.195392 -0.000365 0.0
0.195833 -0.000289 0.0
0.196191 -0.000229 0.0
0.196482 -0.000180 0.0
0.196717 -0.000143 0.0
0.196910 -0.000115 0.0
0.197069 -0.000095 0.0
0.197203 -0.000082 0.0
0.197320 -0.000074 0.0
0.197426 -0.000072 0.0
0.197526 -0.000072 0.0
0.197624 -0.000076 0.0
0.197724 -0.000083 0.0
0.197828 -0.000091 0.0
0.197939 -0.000100 0.0
0.198056 -0.000109 0.0
0.198183 -0.000119 0.0
0.198317 -0.000128 0.0
0.198460 -0.000136 0.0
0.198609 -0.000142 0.0
0.198763 -0.000146 0.0
0.198919 -0.000146 0.0
0.199074 -0.000143 0.0
0.199223 -0.000134 0.0
0.199359 -0.000118 0.0
0.199477 -0.000096 0.0
0.199568 -0.000065 0.0
0.199624 -0.000029 0.0
0.199641 0.000001 0.0
0.500000 0.000000 0.0
0.000000 0.000000 0.0
0.000000 0.000000 0.0
0.000000 0.000000 0.0
0.000000 0.000000 0.0
0.000000 0.000000 0.0
0.000000 0.000000 0.0
0.000000 0.000000 0.0
0.000000 0.000000 0.0
0.000000 0.000026 0.0
-0.003665 0.007941 0.0
-0.014600 0.019736 0.0
-0.030471 0.025484 0.0
-0.047851 0.027199 0.0
-0.065107 0.027033 0.0
-0.081612 0.026291 0.0
-0.097218 0.025562 0.0
-0.111955 0.025023 0.0
-0.125881 0.024649 0.0
-0.139005 0.024322 0.0
-0.151255 0.023861 0.0
-0.162444 0.023028 0.0
-0.172260 0.021562 0.0
-0.180261 0.019213 0.0
-0.185909 0.015838 0.0
-0.188662 0.011463 0.0
-0.188097 0.006304 0.0
-0.183943 0.000560 0.0
-0.176328 -0.005234 0.0
-0.165724 -0.010855 0.0
-0.152591 -0.016026 0.0
-0.137342 -0.020625 0.0
-0.120361 -0.024543 0.0
-0.102027 -0.027791 0.0
-0.082656 -0.030492 0.0
-0.062499 -0.032685 0.0
-0.041800 -0.034259 0.0
-0.020776 -0.035236 0.0
0.000429 -0.035721 0.0
0.021439 -0.035760 0.0
0.041908 -0.035381 0.0
0.061781 -0.034660 0.0
0.081013 -0.033543 0.0
0.099557 -0.032175 0.0
0.117330 -0.030636 0.0
0.134268 -0.028971 0.0
0.150327 -0.027228 0.0
0.165476 -0.025444 0.0
0.179695 -0.023646 0.0
0.192980 -0.021858 0.0
0.205335 -0.020101 0.0
0.216775 -0.018391 0.0
0.227321 -0.016743 0.0
0.237000 -0.015166 0.0
0.245847 -0.013671 0.0
0.253896 -0.012263 0.0
0.261189 -0.010946 0.0
0.267768 -0.009722 0.0
0.273676 -0.008592 0.0
0.278958 -0.007555 0.0
0.283659 -0.006609 0.0
0.287825 -0.005751 0.0
0.291498 -0.004978 0.0
0.294722 -0.004285 0.0
0.297538 -0.003667 0.0
0.299986 -0.003121 0.0
0.302103 -0.002640 0.0
0.303926 -0.002219 0.0
0.305488 -0.001854 0.0
0.306819 -0.001540 0.0
0.307948 -0.001272 0.0
0.308903 -0.001044 0.0
0.309706 -0.000854 0.0
0.310380 -0.000696 0.0
0.310945 -0.000568 0.0
0.311417 -0.000464 0.0
0.311815 -0.000383 0.0
0.312150 -0.000321 0.0
0.312436 -0.000276 0.0
0.312683 -0.000245 0.0
0.312901 -0.000225 0.0
0.313098 -0.000216 0.0
0.313280 -0.000214 0.0
0.313454 -0.000219 0.0
0.313623 -0.000229 0.0
0.313793 -0.000242 0.0
0.313965 -0.000258 0.0
0.314142 -0.000274 0.0
0.314325 -0.000291 0.0
0.314515 -0.000305 0.0
0.314711 -0.000317 0.0
0.314911 -0.000325 0.0
0.315114 -0.000326 0.0
0.315316 -0.000319 0.0
0.315511 -0.000301 0.0
0.315694 -0.000270 0.0
0.315856 -0.000223 0.0
0.315986 -0.000158 0.0
0.316070 -0.000077 0.0
0.316099 0.000002 0.0
0.500000 0.000000 0.0
0.000000 0.000000 0.0
0.000000 0.000000 0.0
0.000000 0.000000 0.0
0.000000 0.000000 0.0
0.000000 0.000000 0.0
0.000000 0.000000 0.0
0.000000 0.000000 0.0
0.000000 0.000000 0.0
0.000000 0.000445 0.0
-0.004933 0.016539 0.0
-0.018777 0.035917 0.0
-0.037449 0.043847 0.0
-0.056546 0.045313 0.0
-0.074382 0.044011 0.0
-0.090487 0.041923 0.0
-0.104842 0.039890 0.0
-0.117548 0.038137 0.0
-0.128680 0.036592 0.0
-0.138235 0.035059 0.0
-0.146134 0.033272 0.0
-0.152192 0.030863 0.0
-0.156103 0.027453 0.0
-0.157422 0.022642 0.0
-0.155574 0.016209 0.0
-0.149978 0.008249 0.0
-0.140280 -0.000744 0.0
-0.127167 -0.009659 0.0
-0.111742 -0.018055 0.0
-0.094460 -0.025921 0.0
-0.075644 -0.032908 0.0
-0.055609 -0.039026 0.0
-0.034602 -0.044129 0.0
-0.012838 -0.048303 0.0
0.009422 -0.051611 0.0
0.031774 -0.054075 0.0
0.053953 -0.055748 0.0
0.075871 -0.056689 0.0
0.097400 -0.057002 0.0
0.118466 -0.056554 0.0
0.139004 -0.055595 0.0
0.158889 -0.054203 0.0
0.178057 -0.052400 0.0
0.196474 -0.050280 0.0
0.214097 -0.047926 0.0
0.230883 -0.045405 0.0
0.246804 -0.042775 0.0
0.261841 -0.040083 0.0
0.275985 -0.037370 0.0
0.289237 -0.034670 0.0
0.301604 -0.032012 0.0
0.313105 -0.029420 0.0
0.323759 -0.026914 0.0
0.333593 -0.024509 0.0
0.342638 -0.022219 0.0
0.350926 -0.020053 0.0
0.358494 -0.018016 0.0
0.365377 -0.016114 0.0
0.371616 -0.014346 0.0
0.377248 -0.012715 0.0
0.382314 -0.011216 0.0
0.386853 -0.009847 0.0
0.390903 -0.008604 0.0
0.394502 -0.007482 0.0
0.397689 -0.006473 0.0
0.400498 -0.005572 0.0
0.402964 -0.004772 0.0
0.405120 -0.004066 0.0
0.406997 -0.003446 0.0
0.408625 -0.002907 0.0
0.410030 -0.002440 0.0
0.411240 -0.002040 0.0
0.412277 -0.001699 0.0
0.413163 -0.001412 0.0
0.413919 -0.001173 0.0
0.414563 -0.000976 0.0
0.415112 -0.000817 0.0
0.415581 -0.000691 0.0
0.415982 -0.000594 0.0
0.416329 -0.000521 0.0
0.416632 -0.000469 0.0
0.416900 -0.000436 0.0
0.417141 -0.000417 0.0
0.417363 -0.000411 0.0
0.417571 -0.000414 0.0
0.417771 -0.000425 0.0
0.417966 -0.000442 0.0
0.418160 -0.000461 0.0
0.418356 -0.000482 0.0
0.418554 -0.000502 0.0
0.418756 -0.000518 0.0
0.418961 -0.000530 0.0
0.419168 -0.000532 0.0
0.419376 -0.000522 0.0
0.419579 -0.000497 0.0
0.419772 -0.000451 0.0
0.419947 -0.000379 0.0
0.420091 -0.000276 0.0
0.420190 -0.000142 0.0
0.420224 0.000004 0.0
0.500000 0.000000 0.0
0.000000 0.000000 0.0
0.000000 0.000000 0.0
0.000000 0.000000 0.0
0.000000 0.000000 0.0
0.000000 0.000000 0.0
0.000000 0.000000 0.0
0.000000 0.000000 0.0
0.000000 0.000000 0.0
0.000000 0.001035 0.0
-0.005750 0.027222 0.0
-0.020899 0.054226 0.0
-0.039631 0.062943 0.0
-0.057052 0.062735 0.0
-0.071788 0.059160 0.0
-0.083735 0.054825 0.0
-0.093111 0.050719 0.0
-0.100140 0.047043 0.0
-0.104931 0.043609 0.0
-0.107450 0.040117 0.0
-0.107595 0.036259 0.0
-0.105153 0.031493 0.0
-0.099781 0.025362 0.0
-0.091053 0.017324 0.0
-0.078296 0.006920 0.0
-0.061501 -0.004853 0.0
-0.042247 -0.016594 0.0
-0.021781 -0.027387 0.0
-0.000257 -0.037276 0.0
0.021911 -0.046151 0.0
0.044325 -0.053908 0.0
0.066864 -0.060601 0.0
0.089420 -0.066117 0.0
0.111886 -0.070545 0.0
0.134129 -0.073872 0.0
0.156069 -0.076106 0.0
0.177607 -0.077433 0.0
0.198617 -0.077933 0.0
0.219006 -0.077676 0.0
0.238733 -0.076673 0.0
0.257777 -0.075058 0.0
0.276088 -0.072935 0.0
0.293629 -0.070377 0.0
0.310380 -0.067471 0.0
0.326324 -0.064300 0.0
0.341446 -0.060940 0.0
0.355738 -0.057454 0.0
0.369199 -0.053901 0.0
0.381832 -0.050329 0.0
0.393649 -0.046780 0.0
0.404666 -0.043288 0.0
0.414905 -0.039883 0.0
0.424389 -0.036589 0.0
0.433147 -0.033427 0.0
0.441210 -0.030410 0.0
0.448609 -0.027550 0.0
0.455378 -0.024855 0.0
0.461551 -0.022331 0.0
0.467162 -0.019979 0.0
0.472245 -0.017799 0.0
0.476836 -0.015789 0.0
0.480967 -0.013945 0.0
0.484673 -0.012262 0.0
0.487984 -0.010735 0.0
0.490932 -0.009355 0.0
0.493547 -0.008115 0.0
0.495859 -0.007007 0.0
0.497893 -0.006022 0.0
0.499677 -0.005152 0.0
0.501235 -0.004387 0.0
0.502590 -0.003720 0.0
0.503764 -0.003143 0.0
0.504777 -0.002646 0.0
0.505648 -0.002222 0.0
0.506395 -0.001865 0.0
0.507032 -0.001566 0.0
0.507576 -0.001320 0.0
0.508038 -0.001120 0.0
0.508433 -0.000961 0.0
0.508770 -0.000837 0.0
0.509059 -0.000745 0.0
0.509309 -0.000679 0.0
0.509529 -0.000635 0.0
0.509725 -0.000610 0.0
0.509902 -0.000601 0.0
0.510067 -0.000604 0.0
0.510224 -0.000615 0.0
0.510376 -0.000634 0.0
0.510526 -0.000655 0.0
0.510677 -0.000678 0.0
0.510831 -0.000698 0.0
0.510988 -0.000712 0.0
0.511148 -0.000717 0.0
0.511310 -0.000707 0.0
0.511473 -0.000678 0.0
0.511633 -0.000622 0.0
0.511782 -0.000532 0.0
0.511910 -0.000397 0.0
0.512001 -0.000211 0.0
0.512034 0.000006 0.0
0.500000 0.000000 0.0
0.000000 0.000000 0.0
0.000000 0.000000 0.0
0.000000 0.000000 0.0
0.000000 0.000000 0.0
0.000000 0.000000 0.0
0.000000 0.000000 0.0
0.000000 0.000000 0.0
0.000000 0.000000 0.0
0.000000 0.001809 0.0
-0.006365 0.039337 0.0
-0.021342 0.072236 0.0
-0.036975 0.079299 0.0
-0.048818 0.075642 0.0
-0.056495 0.068667 0.0
-0.060543 0.061313 0.0
-0.061451 0.054516 0.0
-0.059560 0.048385 0.0
-0.054997 0.042496 0.0
-0.047607 0.036359 0.0
-0.037175 0.029730 0.0
-0.023388 0.021792 0.0
-0.005442 0.011745 0.0
0.016956 -0.000185 0.0
0.041917 -0.013289 0.0
0.067084 -0.026606 0.0
0.091872 -0.038884 0.0
0.116426 -0.050117 0.0
0.140663 -0.060307 0.0
0.164530 -0.069155 0.0
0.187998 -0.076786 0.0
0.210955 -0.083219 0.0
0.233327 -0.088426 0.0
0.255067 -0.092442 0.0
0.276138 -0.095290 0.0
0.296529 -0.097019 0.0
0.316220 -0.097748 0.0
0.335168 -0.097577 0.0
0.353339 -0.096592 0.0
0.370720 -0.094865 0.0
0.387310 -0.092500 0.0
0.403103 -0.089597 0.0
0.418097 -0.086249 0.0
0.432293 -0.082546 0.0
0.445696 -0.078572 0.0
0.458313 -0.074407 0.0
0.470154 -0.070120 0.0
0.481232 -0.065774 0.0
0.491564 -0.061422 0.0
0.501171 -0.057111 0.0
0.510076 -0.052879 0.0
0.518306 -0.048759 0.0
0.525888 -0.044779 0.0
0.532852 -0.040960 0.0
0.539230 -0.037317 0.0
0.545054 -0.033865 0.0
0.550355 -0.030610 0.0
0.555166 -0.027559 0.0
0.559518 -0.024713 0.0
0.563442 -0.022072 0.0
0.566968 -0.019632 0.0
0.570126 -0.017390 0.0
0.572943 -0.015340 0.0
0.575448 -0.013473 0.0
0.577666 -0.011782 0.0
0.579621 -0.010258 0.0
0.581338 -0.008891 0.0
0.582837 -0.007671 0.0
0.584141 -0.006589 0.0
0.585267 -0.005634 0.0
0.586235 -0.004797 0.0
0.587062 -0.004067 0.0
0.587762 -0.003435 0.0
0.588352 -0.002893 0.0
0.588843 -0.002432 0.0
0.589249 -0.002043 0.0
0.589581 -0.001719 0.0
0.589850 -0.001452 0.0
0.590063 -0.001237 0.0
0.590232 -0.001066 0.0
0.590362 -0.000935 0.0
0.590461 -0.000838 0.0
0.590536 -0.000770 0.0
0.590592 -0.000727 0.0
0.590635 -0.000704 0.0
0.590667 -0.000698 0.0
0.590694 -0.000705 0.0
0.590719 -0.000721 0.0
0.590744 -0.000744 0.0
0.590773 -0.000769 0.0
0.590806 -0.000794 0.0
0.590846 -0.000813 0.0
0.590894 -0.000824 0.0
0.590950 -0.000820 0.0
0.591015 -0.000794 0.0
0.591087 -0.000738 0.0
0.591163 -0.000641 0.0
0.591236 -0.000489 0.0
0.591293 -0.000268 0.0
0.591315 0.000008 0.0
0.500000 0.000000 0.0
0.000000 0.000000 0.0
0.000000 0.000000 0.0
0.000000 0.000000 0.0
0.000000 0.000000 0.0
0.000000 0.000000 0.0
0.000000 0.000000 0.0
0.000000 0.000000 0.0
0.000000 0.000000 0.0
0.000000 0.002948 0.0
-0.007061 0.052764 0.0
-0.020035 0.086759 0.0
-0.027949 0.088325 0.0
-0.028873 0.079383 0.0
-0.024589 0.068321 0.0
-0.016497 0.057614 0.0
-0.005110 0.047736 0.0
0.009357 0.038807 0.0
0.026774 0.030093 0.0
0.047429 0.020715 0.0
0.072121 0.010251 0.0
0.100851 -0.001247 0.0
0.131704 -0.014014 0.0
0.162363 -0.027484 0.0
0.191926 -0.040515 0.0
0.220340 -0.052961 0.0
0.247551 -0.064528 0.0
0.273590 -0.075065 0.0
0.298472 -0.084478 0.0
0.322243 -0.092622 0.0
0.344961 -0.099505 0.0
0.366643 -0.105140 0.0
0.387301 -0.109536 0.0
0.406957 -0.112727 0.0
0.425637 -0.114755 0.0
0.443375 -0.115682 0.0
0.460201 -0.115601 0.0
0.476134 -0.114606 0.0
0.491192 -0.112792 0.0
0.505397 -0.110250 0.0
0.518772 -0.107080 0.0
0.531341 -0.103380 0.0
0.543127 -0.099246 0.0
0.554152 -0.094770 0.0
0.564439 -0.090038 0.0
0.574012 -0.085131 0.0
0.582894 -0.080120 0.0
0.591110 -0.075069 0.0
0.598685 -0.070035 0.0
0.605646 -0.065066 0.0
0.612022 -0.060204 0.0
0.617842 -0.055483 0.0
0.623134 -0.050931 0.0
0.627931 -0.046569 0.0
0.632261 -0.042416 0.0
0.636155 -0.038484 0.0
0.639642 -0.034780 0.0
0.642751 -0.031310 0.0
0.645511 -0.028074 0.0
0.647949 -0.025072 0.0
0.650091 -0.022300 0.0
0.651962 -0.019751 0.0
0.653585 -0.017420 0.0
0.654983 -0.015296 0.0
0.656176 -0.013371 0.0
0.657186 -0.011634 0.0
0.658030 -0.010075 0.0
0.658725 -0.008682 0.0
0.659287 -0.007444 0.0
0.659732 -0.006350 0.0
0.660073 -0.005389 0.0
0.660321 -0.004550 0.0
0.660490 -0.003822 0.0
0.660588 -0.003195 0.0
0.660626 -0.002660 0.0
0.660613 -0.002207 0.0
0.660555 -0.001829 0.0
0.660461 -0.001516 0.0
0.660337 -0.001262 0.0
0.660188 -0.001060 0.0
0.660020 -0.000904 0.0
0.659838 -0.000787 0.0
0.659646 -0.000704 0.0
0.659448 -0.000651 0.0
0.659247 -0.000622 0.0
0.659046 -0.000613 0.0
0.658849 -0.000620 0.0
0.658657 -0.000639 0.0
0.658473 -0.000667 0.0
0.658298 -0.000700 0.0
0.658136 -0.000734 0.0
0.657988 -0.000765 0.0
0.657855 -0.000788 0.0
0.657741 -0.000798 0.0
0.657648 -0.000787 0.0
0.657576 -0.000745 0.0
0.657528 -0.000661 0.0
0.657503 -0.000516 0.0
0.657496 -0.000291 0.0
0.657496 0.000010 0.0
0.500000 0.000000 0.0
0.000000 0.000000 0.0
0.000000 0.000000 0.0
0.000000 0.000000 0.0
0.000000 0.000000 0.0
0.000000 0.000000 0.0
0.000000 0.000000 0.0
0.000000 0.000000 0.0
0.000000 0.000000 0.0
0.000000 0.004996 0.0
-0.007061 0.066886 0.0
-0.012972 0.091521 0.0
-0.004130 0.082635 0.0
0.014415 0.067451 0.0
0.037469 0.052915 0.0
0.063010 0.039387 0.0
0.090968 0.026617 0.0
0.122027 0.014401 0.0
0.156523 0.002587 0.0
0.193294 -0.009205 0.0
0.230260 -0.021486 0.0
0.265950 -0.033931 0.0
0.299977 -0.046209 0.0
0.332235 -0.058204 0.0
0.362623 -0.069745 0.0
0.391117 -0.080638 0.0
0.417752 -0.090698 0.0
0.442606 -0.099788 0.0
0.465768 -0.107800 0.0
0.487342 -0.114645 0.0
0.507436 -0.120293 0.0
0.526143 -0.124740 0.0
0.543547 -0.127999 0.0
0.559728 -0.130102 0.0
0.574764 -0.131095 0.0
0.588727 -0.131043 0.0
0.601686 -0.130025 0.0
0.613700 -0.128130 0.0
0.624823 -0.125450 0.0
0.635105 -0.122080 0.0
0.644595 -0.118115 0.0
0.653336 -0.113655 0.0
0.661370 -0.108791 0.0
0.668735 -0.103615 0.0
0.675468 -0.098213 0.0
0.681602 -0.092663 0.0
0.687170 -0.087038 0.0
0.692204 -0.081401 0.0
0.696734 -0.075809 0.0
0.700791 -0.070311 0.0
0.704404 -0.064948 0.0
0.707601 -0.059756 0.0
0.710412 -0.054761 0.0
0.712864 -0.049987 0.0
0.714985 -0.045449 0.0
0.716800 -0.041160 0.0
0.718335 -0.037126 0.0
0.719613 -0.033352 0.0
0.720659 -0.029838 0.0
0.721493 -0.026581 0.0
0.722137 -0.023576 0.0
0.722609 -0.020818 0.0
0.722929 -0.018296 0.0
0.723113 -0.016001 0.0
0.723176 -0.013923 0.0
0.723134 -0.012050 0.0
0.723000 -0.010369 0.0
0.722786 -0.008869 0.0
0.722503 -0.007537 0.0
0.722162 -0.006361 0.0
0.721772 -0.005328 0.0
0.721340 -0.004428 0.0
0.720875 -0.003647 0.0
0.720382 -0.002976 0.0
0.719868 -0.002403 0.0
0.719338 -0.001920 0.0
0.718797 -0.001517 0.0
0.718248 -0.001185 0.0
0.717696 -0.000917 0.0
0.717144 -0.000705 0.0
0.716595 -0.000542 0.0
0.716052 -0.000423 0.0
0.715516 -0.000341 0.0
0.714990 -0.000290 0.0
0.714476 -0.000267 0.0
0.713974 -0.000265 0.0
0.713487 -0.000282 0.0
0.713016 -0.000313 0.0
0.712563 -0.000355 0.0
0.712128 -0.000403 0.0
0.711715 -0.000455 0.0
0.711326 -0.000506 0.0
0.710964 -0.000552 0.0
0.710631 -0.000587 0.0
0.710333 -0.000605 0.0
0.710074 -0.000597 0.0
0.709862 -0.000549 0.0
0.709705 -0.000445 0.0
0.709609 -0.000260 0.0
0.709576 0.000012 0.0
0.500000 -0.076757 0.0
0.000000 -0.050923 0.0
0.000000 -0.034683 0.0
0.000000 -0.022200 0.0
0.000000 -0.011508 0.0
0.000000 -0.001834 0.0
0.000000 0.007244 0.0
0.000000 0.016116 0.0
0.000000 0.025415 0.0
0.000000 0.005339 0.0
0.001482 0.072465 0.0
0.022399 0.070936 0.0
0.065369 0.051409 0.0
0.112759 0.032744 0.0
0.161246 0.016080 0.0
0.210413 0.001513 0.0
0.258604 -0.011657 0.0
0.304351 -0.024131 0.0
0.346906 -0.035934 0.0
0.386483 -0.047033 0.0
0.423502 -0.057643 0.0
0.458090 -0.068052 0.0
0.490226 -0.078252 0.0
0.519935 -0.088128 0.0
0.547277 -0.097553 0.0
0.572336 -0.106383 0.0
0.595221 -0.114474 0.0
0.616056 -0.121702 0.0
0.634977 -0.127968 0.0
0.652123 -0.133197 0.0
0.667635 -0.137347 0.0
0.681644 -0.140402 0.0
0.694271 -0.142369 0.0
0.705633 -0.143275 0.0
0.715835 -0.143160 0.0
0.724978 -0.142084 0.0
0.733152 -0.140117 0.0
0.740440 -0.137340 0.0
0.746917 -0.133840 0.0
0.752652 -0.129707 0.0
0.757706 -0.125033 0.0
0.762138 -0.119911 0.0
0.766000 -0.114431 0.0
0.769339 -0.108680 0.0
0.772200 -0.102741 0.0
0.774622 -0.096691 0.0
0.776644 -0.090599 0.0
0.778298 -0.084527 0.0
0.779617 -0.078532 0.0
0.780632 -0.072659 0.0
0.781369 -0.066950 0.0
0.781856 -0.061438 0.0
0.782116 -0.056151 0.0
0.782175 -0.051108 0.0
0.782052 -0.046325 0.0
0.781768 -0.041814 0.0
0.781342 -0.037580 0.0
0.780792 -0.033626 0.0
0.780133 -0.029951 0.0
0.779381 -0.026550 0.0
0.778549 -0.023419 0.0
0.777650 -0.020549 0.0
0.776696 -0.017930 0.0
0.775696 -0.015551 0.0
0.774661 -0.013401 0.0
0.773599 -0.011467 0.0
0.772517 -0.009736 0.0
0.771422 -0.008194 0.0
0.770320 -0.006828 0.0
0.769217 -0.005626 0.0
0.768117 -0.004573 0.0
0.767023 -0.003658 0.0
0.765939 -0.002867 0.0
0.764867 -0.002191 0.0
0.763809 -0.001617 0.0
0.762768 -0.001135 0.0
0.761745 -0.000737 0.0
0.760743 -0.000414 0.0
0.759765 -0.000157 0.0
0.758810 0.000042 0.0
0.757878 0.000191 0.0
0.756970 0.000295 0.0
0.756084 0.000362 0.0
0.755222 0.000395 0.0
0.754383 0.000401 0.0
0.753570 0.000383 0.0
0.752781 0.000345 0.0
0.752019 0.000293 0.0
0.751284 0.000228 0.0
0.750578 0.000154 0.0
0.749903 0.000075 0.0
0.749262 -0.000006 0.0
0.748657 -0.000085 0.0
0.748095 -0.000159 0.0
0.747581 -0.000222 0.0
0.747125 -0.000266 0.0
0.746739 -0.000282 0.0
0.746438 -0.000253 0.0
0.746242 -0.000160 0.0
0.746174 0.000013 0.0
0.028265 -0.076757 0.0
-0.902029 -0.050923 0.0
-0.819281 -0.034683 0.0
-0.741194 -0.022200 0.0
-0.673616 -0.011508 0.0
-0.618416 -0.001834 0.0
-0.576230 0.007244 0.0
-0.548211 0.016116 0.0
-0.539274 0.025415 0.0
-0.270285 -0.001285 0.0
0.063226 0.011209 0.0
0.177155 0.000797 0.0
0.267806 -0.012073 0.0
0.340849 -0.024208 0.0
0.401525 -0.036132 0.0
0.452948 -0.046864 0.0
0.497992 -0.056515 0.0
0.538363 -0.065391 0.0
0.574972 -0.073839 0.0
0.608316 -0.082049 0.0
0.638736 -0.090066 0.0
0.666471 -0.097951 0.0
0.691664 -0.105682 0.0
0.714429 -0.113171 0.0
0.734877 -0.120300 0.0
0.753125 -0.126943 0.0
0.769300 -0.132972 0.0
0.783534 -0.138273 0.0
0.795968 -0.142752 0.0
0.806744 -0.146336 0.0
0.816001 -0.148977 0.0
0.823876 -0.150654 0.0
0.830495 -0.151365 0.0
0.835981 -0.151127 0.0
0.840446 -0.149976 0.0
0.843996 -0.147961 0.0
0.846728 -0.145146 0.0
0.848732 -0.141603 0.0
0.850090 -0.137411 0.0
0.850875 -0.132655 0.0
0.851158 -0.127421 0.0
0.850999 -0.121796 0.0
0.850457 -0.115865 0.0
0.849582 -0.109710 0.0
0.848421 -0.103411 0.0
0.847016 -0.097039 0.0
0.845405 -0.090661 0.0
0.843623 -0.084337 0.0
0.841698 -0.078117 0.0
0.839660 -0.072049 0.0
0.837532 -0.066169 0.0
0.835335 -0.060510 0.0
0.833090 -0.055095 0.0
0.830812 -0.049944 0.0
0.828516 -0.045071 0.0
0.826216 -0.040485 0.0
0.823922 -0.036190 0.0
0.821644 -0.032188 0.0
0.819389 -0.028475 0.0
0.817164 -0.025049 0.0
0.814976 -0.021900 0.0
0.812827 -0.019021 0.0
0.810724 -0.016400 0.0
0.808667 -0.014025 0.0
0.806660 -0.011885 0.0
0.804703 -0.009965 0.0
0.802799 -0.008252 0.0
0.800948 -0.006731 0.0
0.799149 -0.005390 0.0
0.797402 -0.004214 0.0
0.795705 -0.003188 0.0
0.794058 -0.002301 0.0
0.792457 -0.001539 0.0
0.790902 -0.000892 0.0
0.789392 -0.000347 0.0
0.787925 0.000104 0.0
0.786500 0.000471 0.0
0.785115 0.000764 0.0
0.783768 0.000990 0.0
0.782460 0.001158 0.0
0.781190 0.001276 0.0
0.779961 0.001349 0.0
0.778770 0.001384 0.0
0.777620 0.001386 0.0
0.776509 0.001359 0.0
0.775438 0.001309 0.0
0.774406 0.001240 0.0
0.773413 0.001154 0.0
0.772459 0.001055 0.0
0.771546 0.000946 0.0
0.770675 0.000830 0.0
0.769847 0.000709 0.0
0.769067 0.000585 0.0
0.768338 0.000462 0.0
0.767668 0.000342 0.0
0.767066 0.000229 0.0
0.766548 0.000129 0.0
0.766136 0.000050 0.0
0.765861 0.000006 0.0
0.765763 0.000014 0.0
0.971735 0.028265 0.0
0.902029 0.041441 0.0
0.819281 0.041307 0.0
0.741194 0.036780 0.0
0.673616 0.030798 0.0
0.618416 0.024401 0.0
0.576230 0.017785 0.0
0.548211 0.010233 0.0
0.539274 -0.001296 0.0
0.556736 -0.023068 0.0
0.582909 -0.058573 0.0
0.608693 -0.065684 0.0
0.642217 -0.069768 0.0
0.677168 -0.074507 0.0
0.710289 -0.079631 0.0
0.740628 -0.085127 0.0
0.768066 -0.090734 0.0
0.792855 -0.096331 0.0
0.815282 -0.101933 0.0
0.835549 -0.107565 0.0
0.853795 -0.113216 0.0
0.870116 -0.118857 0.0
0.884575 -0.124429 0.0
0.897225 -0.129839 0.0
0.908120 -0.134976 0.0
0.917326 -0.139722 0.0
0.924920 -0.143962 0.0
0.930993 -0.147590 0.0
0.935642 -0.150518 0.0
0.938974 -0.152677 0.0
0.941097 -0.154017 0.0
0.942121 -0.154513 0.0
0.942153 -0.154158 0.0
0.941298 -0.152964 0.0
0.939656 -0.150961 0.0
0.937323 -0.148193 0.0
0.934391 -0.144714 0.0
0.930944 -0.140592 0.0
0.927063 -0.135898 0.0
0.922821 -0.130712 0.0
0.918288 -0.125113 0.0
0.913525 -0.119183 0.0
0.908592 -0.113001 0.0
0.903539 -0.106646 0.0
0.898414 -0.100190 0.0
0.893259 -0.093701 0.0
0.888110 -0.087240 0.0
0.883000 -0.080864 0.0
0.877955 -0.074621 0.0
0.872999 -0.068552 0.0
0.868152 -0.062691 0.0
0.863429 -0.057068 0.0
0.858843 -0.051704 0.0
0.854402 -0.046616 0.0
0.850114 -0.041816 0.0
0.845984 -0.037309 0.0
0.842013 -0.033100 0.0
0.838201 -0.029187 0.0
0.834548 -0.025568 0.0
0.831052 -0.022235 0.0
0.827709 -0.019182 0.0
0.824514 -0.016397 0.0
0.821465 -0.013870 0.0
0.818554 -0.011588 0.0
0.815777 -0.009538 0.0
0.813127 -0.007706 0.0
0.810598 -0.006078 0.0
0.808184 -0.004639 0.0
0.805875 -0.003375 0.0
0.803665 -0.002271 0.0
0.801543 -0.001312 0.0
0.799500 -0.000486 0.0
0.797528 0.000217 0.0
0.795626 0.000808 0.0
0.793792 0.001297 0.0
0.792026 0.001693 0.0
0.790325 0.002008 0.0
0.788688 0.002249 0.0
0.787114 0.002426 0.0
0.785601 0.002545 0.0
0.784147 0.002614 0.0
0.782749 0.002639 0.0
0.781406 0.002627 0.0
0.780117 0.002583 0.0
0.778879 0.002511 0.0
0.777691 0.002417 0.0
0.776551 0.002303 0.0
0.775460 0.002174 0.0
0.774416 0.002032 0.0
0.773419 0.001879 0.0
0.772469 0.001718 0.0
0.771569 0.001549 0.0
0.770720 0.001374 0.0
0.769928 0.001194 0.0
0.769199 0.001009 0.0
0.768543 0.000818 0.0
0.767978 0.000622 0.0
0.767527 0.000420 0.0
0.767225 0.000212 0.0
0.767117 0.000014 0.0
1.012850 0.043680 0.0
1.034717 0.073865 0.0
1.046503 0.079844 0.0
1.047922 0.074911 0.0
1.043316 0.064853 0.0
1.036635 0.052228 0.0
1.030974 0.037807 0.0
1.028524 0.020680 0.0
1.028491 -0.002773 0.0
1.024708 -0.035270 0.0
1.014579 -0.062415 0.0
1.004470 -0.077516 0.0
0.999343 -0.086333 0.0
0.998985 -0.092534 0.0
1.001882 -0.097622 0.0
1.006687 -0.102281 0.0
1.012424 -0.106755 0.0
1.018461 -0.111137 0.0
1.024388 -0.115481 0.0
1.029917 -0.119814 0.0
1.034837 -0.124134 0.0
1.038987 -0.128411 0.0
1.042245 -0.132593 0.0
1.044523 -0.136602 0.0
1.045762 -0.140347 0.0
1.045935 -0.143730 0.0
1.045041 -0.146654 0.0
1.043102 -0.149031 0.0
1.040158 -0.150784 0.0
1.036267 -0.151852 0.0
1.031495 -0.152193 0.0
1.025920 -0.151784 0.0
1.019621 -0.150619 0.0
1.012684 -0.148710 0.0
1.005194 -0.146083 0.0
0.997236 -0.142780 0.0
0.988895 -0.138853 0.0
0.980252 -0.134363 0.0
0.971386 -0.129379 0.0
0.962371 -0.123974 0.0
0.953277 -0.118223 0.0
0.944168 -0.112202 0.0
0.935105 -0.105985 0.0
0.926140 -0.099645 0.0
0.917321 -0.093248 0.0
0.908690 -0.086857 0.0
0.900283 -0.080528 0.0
0.892128 -0.074312 0.0
0.884251 -0.068251 0.0
0.876670 -0.062384 0.0
0.869399 -0.056740 0.0
0.862447 -0.051344 0.0
0.855819 -0.046214 0.0
0.849517 -0.041364 0.0
0.843538 -0.036802 0.0
0.837877 -0.032532 0.0
0.832528 -0.028557 0.0
0.827482 -0.024873 0.0
0.822727 -0.021475 0.0
0.818253 -0.018357 0.0
0.814046 -0.015509 0.0
0.810093 -0.012922 0.0
0.806380 -0.010582 0.0
0.802894 -0.008479 0.0
0.799620 -0.006596 0.0
0.796542 -0.004920 0.0
0.793645 -0.003438 0.0
0.790910 -0.002129 0.0
0.788311 -0.000978 0.0
0.785830 0.000023 0.0
0.783462 0.000883 0.0
0.781209 0.001615 0.0
0.779071 0.002226 0.0
0.777044 0.002729 0.0
0.775122 0.003132 0.0
0.773298 0.003448 0.0
0.771567 0.003684 0.0
0.769925 0.003851 0.0
0.768365 0.003957 0.0
0.766883 0.004008 0.0
0.765475 0.004013 0.0
0.764135 0.003977 0.0
0.762860 0.003907 0.0
0.761646 0.003807 0.0
0.760489 0.003682 0.0
0.759387 0.003536 0.0
0.758338 0.003373 0.0
0.757337 0.003196 0.0
0.756385 0.003007 0.0
0.755479 0.002807 0.0
0.754620 0.002598 0.0
0.753808 0.002381 0.0
0.753044 0.002154 0.0
0.752333 0.001918 0.0
0.751679 0.001668 0.0
0.751092 0.001401 0.0
0.750586 0.001110 0.0
0.750183 0.000786 0.0
0.749915 0.000416 0.0
0.749819 0.000013 0.0
1.008272 0.022557 0.0
1.031045 0.050349 0.0
1.060607 0.062011 0.0
1.089250 0.062680 0.0
1.114560 0.056380 0.0
1.136406 0.045535 0.0
1.155336 0.031230 0.0
1.171564 0.013478 0.0
1.183991 -0.007966 0.0
1.190065 -0.032367 0.0
1.189172 -0.054296 0.0
1.184255 -0.070608 0.0
1.178420 -0.082278 0.0
1.173107 -0.090918 0.0
1.168668 -0.097695 0.0
1.165000 -0.103344 0.0
1.161862 -0.108290 0.0
1.159001 -0.112778 0.0
1.156189 -0.116955 0.0
1.153227 -0.120907 0.0
1.149943 -0.124675 0.0
1.146185 -0.128262 0.0
1.141830 -0.131645 0.0
1.136778 -0.134775 0.0
1.130957 -0.137591 0.0
1.124321 -0.140022 0.0
1.116849 -0.141996 0.0
1.108545 -0.143446 0.0
1.099433 -0.144313 0.0
1.089555 -0.144553 0.0
1.078968 -0.144133 0.0
1.067739 -0.143040 0.0
1.055946 -0.141272 0.0
1.043672 -0.138846 0.0
1.031005 -0.135790 0.0
1.018035 -0.132146 0.0
1.004852 -0.127964 0.0
0.991544 -0.123303 0.0
0.978198 -0.118228 0.0
0.964896 -0.112809 0.0
0.951715 -0.107114 0.0
0.938726 -0.101214 0.0
0.925994 -0.095178 0.0
0.913576 -0.089069 0.0
0.901522 -0.082950 0.0
0.889874 -0.076875 0.0
0.878667 -0.070895 0.0
0.867928 -0.065052 0.0
0.857678 -0.059384 0.0
0.847931 -0.053923 0.0
0.838692 -0.048692 0.0
0.829965 -0.043713 0.0
0.821746 -0.038998 0.0
0.814026 -0.034558 0.0
0.806796 -0.030397 0.0