# vtk DataFile Version 3.0
Vector Field
ASCII
DATASET RECTILINEAR_GRID
DIMENSIONS 100 20 1
X_COORDINATES 100 double
0.050000 0.150000 0.250000 0.350000 0.450000 0.550000 0.650000 0.750000 0.850000 0.950000 1.050000 1.150000 1.250000 1.350000 1.450000 1.550000 1.650000 1.750000 1.850000 1.950000 2.050000 2.150000 2.250000 2.350000 2.450000 2.550000 2.650000 2.750000 2.850000 2.950000 3.050000 3.150000 3.250000 3.350000 3.450000 3.550000 3.650000 3.750000 3.850000 3.950000 4.050000 4.150000 4.250000 4.350000 4.450000 4.550000 4.650000 4.750000 4.850000 4.950000 5.050000 5.150000 5.250000 5.350000 5.450000 5.550000 5.650000 5.750000 5.850000 5.950000 6.050000 6.150000 6.250000 6.350000 6.450000 6.550000 6.650000 6.750000 6.850000 6.950000 7.050000 7.150000 7.250000 7.350000 7.450000 7.550000 7.650000 7.750000 7.850000 7.950000 8.050000 8.150000 8.250000 8.350000 8.450000 8.550000 8.650000 8.750000 8.850000 8.950000 9.050000 9.150000 9.250000 9.350000 9.450000 9.550000 9.650000 9.750000 9.850000 9.950000 
Y_COORDINATES 20 double
0.050000 0.150000 0.250000 0.350000 0.450000 0.550000 0.650000 0.750000 0.850000 0.950000 1.050000 1.150000 1.250000 1.350000 1.450000 1.550000 1.650000 1.750000 1.850000 1.950000 
Z_COORDINATES 1 double
0.0
POINT_DATA 2000
VECTORS Vektorfeld double
0.500000 0.000000 0.0
0.000000 0.000000 0.0
0.000000 0.000000 0.0
0.000000 0.000000 0.0
0.000000 0.000000 0.0
0.000000 0.000000 0.0
0.000000 0.000000 0.0
0.000000 0.000000 0.0
0.000000 0.000000 0.0
0.000000 -0.000110 0.0
-0.000183 0.000183 0.0
-0.001899 0.001533 0.0
-0.005774 0.002341 0.0
-0.010746 0.002630 0.0
-0.016045 0.002669 0.0
-0.021353 0.002640 0.0
-0.026618 0.002625 0.0
-0.031894 0.002652 0.0
-0.037269 0.002723 0.0
-0.042824 0.002832 0.0
-0.048618 0.002961 0.0
-0.054663 0.003084 0.0
-0.060910 0.003162 0.0
-0.067223 0.003151 0.0
-0.073386 0.003011 0.0
-0.079117 0.002719 0.0
-0.084108 0.002272 0.0
-0.088070 0.001691 0.0
-0.090773 0.001012 0.0
-0.092068 0.000282 0.0
-0.091897 -0.000453 0.0
-0.090247 -0.001197 0.0
-0.087159 -0.001892 0.0
-0.082762 -0.002505 0.0
-0.077228 -0.003029 0.0
-0.070723 -0.003476 0.0
-0.063421 -0.003826 0.0
-0.055530 -0.004064 0.0
-0.047267 -0.004199 0.0
-0.038798 -0.004271 0.0
-0.030254 -0.004273 0.0
-0.021805 -0.004176 0.0
-0.013588 -0.004041 0.0
-0.005688 -0.003860 0.0
0.001793 -0.003621 0.0
0.008760 -0.003345 0.0
0.015168 -0.003064 0.0
0.021015 -0.002783 0.0
0.026303 -0.002506 0.0
0.031045 -0.002236 0.0
0.035259 -0.001977 0.0
0.038968 -0.001731 0.0
0.042198 -0.001499 0.0
0.044979 -0.001282 0.0
0.047341 -0.001079 0.0
0.049311 -0.000891 0.0
0.050920 -0.000718 0.0
0.052196 -0.000559 0.0
0.053172 -0.000417 0.0
0.053883 -0.000293 0.0
0.054366 -0.000190 0.0
0.054663 -0.000107 0.0
0.054814 -0.000045 0.0
0.054861 -0.000002 0.0
0.054833 0.000029 0.0
0.054748 0.000056 0.0
0.054612 0.000080 0.0
0.054428 0.000103 0.0
0.054199 0.000125 0.0
0.053928 0.000146 0.0
0.053616 0.000166 0.0
0.053265 0.000185 0.0
0.052878 0.000202 0.0
0.052457 0.000218 0.0
0.052006 0.000233 0.0
0.051529 0.000244 0.0
0.051031 0.000254 0.0
0.050516 0.000260 0.0
0.049992 0.000264 0.0
0.049462 0.000265 0.0
0.048934 0.000263 0.0
0.048412 0.000258 0.0
0.047903 0.000251 0.0
0.047411 0.000241 0.0
0.046940 0.000229 0.0
0.046495 0.000216 0.0
0.046077 0.000202 0.0
0.045689 0.000187 0.0
0.045331 0.000171 0.0
0.045003 0.000156 0.0
0.044705 0.000142 0.0
0.044435 0.000128 0.0
0.044190 0.000116 0.0
0.043969 0.000105 0.0
0.043768 0.000096 0.0
0.043586 0.000087 0.0
0.043421 0.000078 0.0
0.043274 0.000068 0.0
0.043148 0.000057 0.0
0.043044 0.000047 0.0
0.500000 0.000000 0.0
0.000000 0.000000 0.0
0.000000 0.000000 0.0
0.000000 0.000000 0.0
0.000000 0.000000 0.0
0.000000 0.000000 0.0
0.000000 0.000000 0.0
0.000000 0.000000 0.0
0.000000 0.000000 0.0
0.000000 -0.000177 0.0
-0.001909 0.002275 0.0
-0.008396 0.007644 0.0
-0.018914 0.010624 0.0
-0.031256 0.011662 0.0
-0.044070 0.011750 0.0
-0.056756 0.011553 0.0
-0.069163 0.011382 0.0
-0.081336 0.011345 0.0
-0.093381 0.011450 0.0
-0.105381 0.011661 0.0
-0.117357 0.011901 0.0
-0.129224 0.012058 0.0
-0.140773 0.011983 0.0
-0.151651 0.011522 0.0
-0.161390 0.010542 0.0
-0.169460 0.008989 0.0
-0.175348 0.006881 0.0
-0.178636 0.004332 0.0
-0.179056 0.001494 0.0
-0.176481 -0.001480 0.0
-0.170950 -0.004393 0.0
-0.162723 -0.007133 0.0
-0.152175 -0.009591 0.0
-0.139684 -0.011693 0.0
-0.125612 -0.013447 0.0
-0.110261 -0.014915 0.0
-0.093918 -0.016032 0.0
-0.076904 -0.016762 0.0
-0.059541 -0.017126 0.0
-0.042091 -0.017263 0.0
-0.024748 -0.017168 0.0
-0.007700 -0.016777 0.0
0.008781 -0.016137 0.0
0.024430 -0.015313 0.0
0.039140 -0.014359 0.0
0.052883 -0.013316 0.0
0.065624 -0.012242 0.0
0.077333 -0.011159 0.0
0.087999 -0.010084 0.0
0.097628 -0.009030 0.0
0.106240 -0.008009 0.0
0.113863 -0.007031 0.0
0.120535 -0.006101 0.0
0.126296 -0.005223 0.0
0.131193 -0.004397 0.0
0.135274 -0.003625 0.0
0.138590 -0.002908 0.0
0.141195 -0.002251 0.0
0.143154 -0.001660 0.0
0.144536 -0.001143 0.0
0.145421 -0.000708 0.0
0.145896 -0.000359 0.0
0.146047 -0.000095 0.0
0.145951 0.000097 0.0
0.145659 0.000249 0.0
0.145202 0.000379 0.0
0.144603 0.000493 0.0
0.143879 0.000598 0.0
0.143044 0.000694 0.0
0.142109 0.000783 0.0
0.141084 0.000865 0.0
0.139981 0.000940 0.0
0.138810 0.001006 0.0
0.137582 0.001063 0.0
0.136310 0.001111 0.0
0.135007 0.001147 0.0
0.133685 0.001172 0.0
0.132357 0.001184 0.0
0.131038 0.001185 0.0
0.129740 0.001173 0.0
0.128474 0.001149 0.0
0.127253 0.001115 0.0
0.126087 0.001071 0.0
0.124982 0.001018 0.0
0.123946 0.000959 0.0
0.122983 0.000895 0.0
0.122096 0.000828 0.0
0.121284 0.000760 0.0
0.120546 0.000693 0.0
0.119879 0.000629 0.0
0.119278 0.000569 0.0
0.118736 0.000514 0.0
0.118245 0.000465 0.0
0.117799 0.000424 0.0
0.117389 0.000388 0.0
0.117008 0.000358 0.0
0.116652 0.000329 0.0
0.116317 0.000299 0.0
0.116006 0.000264 0.0
0.115715 0.000237 0.0
0.500000 0.000000 0.0
0.000000 0.000000 0.0
0.000000 0.000000 0.0
0.000000 0.000000 0.0
0.000000 0.000000 0.0
0.000000 0.000000 0.0
0.000000 0.000000 0.0
0.000000 0.000000 0.0
0.000000 0.000000 0.0
0.000000 0.000027 0.0
-0.003611 0.007795 0.0
-0.014392 0.019391 0.0
-0.030046 0.025049 0.0
-0.047185 0.026719 0.0
-0.064189 0.026511 0.0
-0.080435 0.025724 0.0
-0.095781 0.024963 0.0
-0.110279 0.024435 0.0
-0.124021 0.024147 0.0
-0.137066 0.024010 0.0
-0.149403 0.023864 0.0
-0.160909 0.023469 0.0
-0.171321 0.022533 0.0
-0.180227 0.020756 0.0
-0.187072 0.017892 0.0
-0.191255 0.013892 0.0
-0.192221 0.008832 0.0
-0.189574 0.003022 0.0
-0.183262 -0.003088 0.0
-0.173674 -0.009062 0.0
-0.161351 -0.014666 0.0
-0.146740 -0.019698 0.0
-0.130238 -0.024076 0.0
-0.112232 -0.027705 0.0
-0.093104 -0.030635 0.0
-0.073149 -0.033033 0.0
-0.052626 -0.034780 0.0
-0.031798 -0.035857 0.0
-0.010872 -0.036320 0.0
0.009856 -0.036247 0.0
0.030009 -0.035681 0.0
0.049382 -0.034684 0.0
0.067921 -0.033249 0.0
0.085568 -0.031498 0.0
0.102237 -0.029553 0.0
0.117848 -0.027476 0.0
0.132349 -0.025324 0.0
0.145703 -0.023141 0.0
0.157896 -0.020961 0.0
0.168927 -0.018814 0.0
0.178812 -0.016723 0.0
0.187577 -0.014706 0.0
0.195256 -0.012777 0.0
0.201890 -0.010942 0.0
0.207522 -0.009207 0.0
0.212201 -0.007574 0.0
0.215977 -0.006050 0.0
0.218908 -0.004645 0.0
0.221060 -0.003375 0.0
0.222510 -0.002260 0.0
0.223350 -0.001316 0.0
0.223679 -0.000555 0.0
0.223603 0.000026 0.0
0.223201 0.000475 0.0
0.222522 0.000842 0.0
0.221611 0.001154 0.0
0.220502 0.001426 0.0
0.219224 0.001667 0.0
0.217801 0.001883 0.0
0.216254 0.002077 0.0
0.214601 0.002249 0.0
0.212860 0.002400 0.0
0.211049 0.002528 0.0
0.209186 0.002632 0.0
0.207289 0.002711 0.0
0.205377 0.002763 0.0
0.203466 0.002788 0.0
0.201575 0.002786 0.0
0.199721 0.002756 0.0
0.197921 0.002700 0.0
0.196188 0.002620 0.0
0.194535 0.002518 0.0
0.192973 0.002396 0.0
0.191511 0.002259 0.0
0.190154 0.002111 0.0
0.188905 0.001955 0.0
0.187765 0.001796 0.0
0.186731 0.001638 0.0
0.185799 0.001485 0.0
0.184961 0.001341 0.0
0.184210 0.001209 0.0
0.183534 0.001091 0.0
0.182923 0.000990 0.0
0.182363 0.000905 0.0
0.181844 0.000837 0.0
0.181351 0.000782 0.0
0.180876 0.000737 0.0
0.180408 0.000693 0.0
0.179944 0.000645 0.0
0.179475 0.000617 0.0
0.500000 0.000000 0.0
0.000000 0.000000 0.0
0.000000 0.000000 0.0
0.000000 0.000000 0.0
0.000000 0.000000 0.0
0.000000 0.000000 0.0
0.000000 0.000000 0.0
0.000000 0.000000 0.0
0.000000 0.000000 0.0
0.000000 0.000441 0.0
-0.004887 0.016293 0.0
-0.018601 0.035388 0.0
-0.037088 0.043193 0.0
-0.055972 0.044598 0.0
-0.073575 0.043239 0.0
-0.089425 0.041093 0.0
-0.103513 0.039028 0.0
-0.115960 0.037315 0.0
-0.126883 0.035932 0.0
-0.136343 0.034731 0.0
-0.144338 0.033475 0.0
-0.150777 0.031802 0.0
-0.155427 0.029262 0.0
-0.157908 0.025413 0.0
-0.157636 0.019809 0.0
-0.153962 0.012483 0.0
-0.146306 0.003551 0.0
-0.134861 -0.005789 0.0
-0.120686 -0.014764 0.0
-0.104550 -0.023110 0.0
-0.086802 -0.030688 0.0
-0.067770 -0.037319 0.0
-0.047724 -0.043003 0.0
-0.026906 -0.047602 0.0
-0.005521 -0.051252 0.0
0.016079 -0.053972 0.0
0.037495 -0.055780 0.0
0.058557 -0.056747 0.0
0.079141 -0.056941 0.0
0.099133 -0.056346 0.0
0.118444 -0.055046 0.0
0.136960 -0.053209 0.0
0.154583 -0.050886 0.0
0.171253 -0.048178 0.0
0.186908 -0.045196 0.0
0.201490 -0.042027 0.0
0.214958 -0.038743 0.0
0.227287 -0.035406 0.0
0.238468 -0.032069 0.0
0.248507 -0.028776 0.0
0.257425 -0.025563 0.0
0.265252 -0.022458 0.0
0.272027 -0.019479 0.0
0.277793 -0.016639 0.0
0.282597 -0.013946 0.0
0.286489 -0.011406 0.0
0.289521 -0.009027 0.0
0.291748 -0.006827 0.0
0.293233 -0.004831 0.0
0.294053 -0.003074 0.0
0.294300 -0.001588 0.0
0.294079 -0.000392 0.0
0.293473 0.000544 0.0
0.292532 0.001300 0.0
0.291301 0.001927 0.0
0.289825 0.002456 0.0
0.288146 0.002912 0.0
0.286296 0.003308 0.0
0.284307 0.003654 0.0
0.282204 0.003956 0.0
0.280011 0.004216 0.0
0.277751 0.004435 0.0
0.275443 0.004612 0.0
0.273108 0.004746 0.0
0.270766 0.004836 0.0
0.268437 0.004881 0.0
0.266139 0.004880 0.0
0.263891 0.004833 0.0
0.261711 0.004743 0.0
0.259614 0.004611 0.0
0.257615 0.004441 0.0
0.255725 0.004238 0.0
0.253955 0.004007 0.0
0.252312 0.003754 0.0
0.250798 0.003486 0.0
0.249416 0.003210 0.0
0.248163 0.002934 0.0
0.247036 0.002662 0.0
0.246025 0.002404 0.0
0.245123 0.002163 0.0
0.244317 0.001945 0.0
0.243594 0.001754 0.0
0.242940 0.001593 0.0
0.242337 0.001463 0.0
0.241772 0.001364 0.0
0.241225 0.001293 0.0
0.240682 0.001245 0.0
0.240124 0.001209 0.0
0.239538 0.001178 0.0
0.238911 0.001181 0.0
0.500000 0.000000 0.0
0.000000 0.000000 0.0
0.000000 0.000000 0.0
0.000000 0.000000 0.0
0.000000 0.000000 0.0
0.000000 0.000000 0.0
0.000000 0.000000 0.0
0.000000 0.000000 0.0
0.000000 0.000000 0.0
0.000000 0.001027 0.0
-0.005726 0.026907 0.0
-0.020803 0.053565 0.0
-0.039423 0.062124 0.0
-0.056700 0.061828 0.0
-0.071258 0.058169 0.0
-0.082991 0.053748 0.0
-0.092124 0.049594 0.0
-0.098905 0.045976 0.0
-0.103492 0.042780 0.0
-0.105930 0.039780 0.0
-0.106216 0.036707 0.0
-0.104289 0.033080 0.0
-0.099917 0.028263 0.0
-0.092780 0.021756 0.0
-0.082341 0.012757 0.0
-0.067794 0.001314 0.0
-0.049971 -0.010758 0.0
-0.030700 -0.022196 0.0
-0.010549 -0.032682 0.0
0.010302 -0.042179 0.0
0.031502 -0.050566 0.0
0.052823 -0.057793 0.0
0.074136 -0.063887 0.0
0.095334 -0.068733 0.0
0.116285 -0.072458 0.0
0.136864 -0.074945 0.0
0.156984 -0.076341 0.0
0.176506 -0.076770 0.0
0.195303 -0.076299 0.0
0.213293 -0.074969 0.0
0.230428 -0.072869 0.0
0.246652 -0.070127 0.0
0.261907 -0.066846 0.0
0.276149 -0.063130 0.0
0.289338 -0.059089 0.0
0.301443 -0.054821 0.0
0.312440 -0.050414 0.0
0.322320 -0.045944 0.0
0.331087 -0.041479 0.0
0.338758 -0.037077 0.0
0.345363 -0.032785 0.0
0.350940 -0.028640 0.0
0.355540 -0.024670 0.0
0.359217 -0.020891 0.0
0.362029 -0.017312 0.0
0.364038 -0.013941 0.0
0.365304 -0.010790 0.0
0.365896 -0.007881 0.0
0.365885 -0.005252 0.0
0.365363 -0.002952 0.0
0.364435 -0.001029 0.0
0.363185 0.000520 0.0
0.361640 0.001784 0.0
0.359815 0.002827 0.0
0.357751 0.003695 0.0
0.355489 0.004424 0.0
0.353072 0.005041 0.0
0.350534 0.005566 0.0
0.347908 0.006012 0.0
0.345222 0.006388 0.0
0.342498 0.006700 0.0
0.339760 0.006950 0.0
0.337026 0.007138 0.0
0.334314 0.007265 0.0
0.331643 0.007329 0.0
0.329029 0.007330 0.0
0.326488 0.007269 0.0
0.324035 0.007145 0.0
0.321684 0.006962 0.0
0.319449 0.006724 0.0
0.317341 0.006436 0.0
0.315368 0.006106 0.0
0.313538 0.005740 0.0
0.311854 0.005349 0.0
0.310317 0.004941 0.0
0.308927 0.004527 0.0
0.307679 0.004117 0.0
0.306565 0.003720 0.0
0.305576 0.003345 0.0
0.304699 0.003000 0.0
0.303921 0.002692 0.0
0.303225 0.002426 0.0
0.302595 0.002206 0.0
0.302012 0.002035 0.0
0.301456 0.001913 0.0
0.300908 0.001839 0.0
0.300344 0.001807 0.0
0.299742 0.001808 0.0
0.299075 0.001833 0.0
0.298326 0.001903 0.0
0.500000 0.000000 0.0
0.000000 0.000000 0.0
0.000000 0.000000 0.0
0.000000 0.000000 0.0
0.000000 0.000000 0.0
0.000000 0.000000 0.0
0.000000 0.000000 0.0
0.000000 0.000000 0.0
0.000000 0.000000 0.0
0.000000 0.001802 0.0
-0.006371 0.039004 0.0
-0.021359 0.071531 0.0
-0.036994 0.078411 0.0
-0.048816 0.074639 0.0
-0.056451 0.067550 0.0
-0.060430 0.060078 0.0
-0.061251 0.053217 0.0
-0.059281 0.047164 0.0
-0.054706 0.041605 0.0
-0.047481 0.036168 0.0
-0.037501 0.030627 0.0
-0.024668 0.024400 0.0
-0.008545 0.016447 0.0
0.011692 0.006197 0.0
0.035397 -0.005828 0.0
0.059913 -0.019165 0.0
0.083765 -0.031954 0.0
0.107165 -0.043671 0.0
0.130191 -0.054384 0.0
0.152774 -0.063912 0.0
0.174885 -0.072144 0.0
0.196471 -0.079122 0.0
0.217437 -0.084839 0.0
0.237720 -0.089262 0.0
0.257266 -0.092427 0.0
0.276038 -0.094328 0.0
0.294014 -0.095054 0.0
0.311143 -0.094708 0.0
0.327366 -0.093381 0.0
0.342641 -0.091153 0.0
0.356942 -0.088121 0.0
0.370243 -0.084400 0.0
0.382519 -0.080103 0.0
0.393748 -0.075343 0.0
0.403912 -0.070229 0.0
0.412995 -0.064869 0.0
0.420993 -0.059360 0.0
0.427904 -0.053790 0.0
0.433743 -0.048239 0.0
0.438532 -0.042777 0.0
0.442306 -0.037463 0.0
0.445110 -0.032345 0.0
0.447002 -0.027457 0.0
0.448046 -0.022824 0.0
0.448312 -0.018458 0.0
0.447875 -0.014368 0.0
0.446817 -0.010571 0.0
0.445228 -0.007102 0.0
0.443216 -0.004008 0.0
0.440915 -0.001372 0.0
0.438420 0.000815 0.0
0.435717 0.002628 0.0
0.432797 0.004141 0.0
0.429694 0.005397 0.0
0.426449 0.006435 0.0
0.423103 0.007292 0.0
0.419698 0.007998 0.0
0.416268 0.008577 0.0
0.412845 0.009049 0.0
0.409455 0.009427 0.0
0.406121 0.009718 0.0
0.402861 0.009930 0.0
0.399691 0.010063 0.0
0.396623 0.010120 0.0
0.393669 0.010100 0.0
0.390840 0.010004 0.0
0.388144 0.009832 0.0
0.385590 0.009588 0.0
0.383186 0.009274 0.0
0.380938 0.008896 0.0
0.378851 0.008460 0.0
0.376928 0.007977 0.0
0.375171 0.007456 0.0
0.373579 0.006909 0.0
0.372150 0.006347 0.0
0.370876 0.005785 0.0
0.369751 0.005234 0.0
0.368763 0.004706 0.0
0.367900 0.004213 0.0
0.367146 0.003764 0.0
0.366484 0.003368 0.0
0.365898 0.003032 0.0
0.365367 0.002761 0.0
0.364871 0.002559 0.0
0.364388 0.002428 0.0
0.363895 0.002366 0.0
0.363366 0.002372 0.0
0.362771 0.002440 0.0
0.362078 0.002560 0.0
0.361266 0.002736 0.0
0.500000 0.000000 0.0
0.000000 0.000000 0.0
0.000000 0.000000 0.0
0.000000 0.000000 0.0
0.000000 0.000000 0.0
0.000000 0.000000 0.0
0.000000 0.000000 0.0
0.000000 0.000000 0.0
0.000000 0.000000 0.0
0.000000 0.002943 0.0
-0.007091 0.052467 0.0
-0.020158 0.086123 0.0
-0.028213 0.087510 0.0
-0.029297 0.078448 0.0
-0.025189 0.067268 0.0
-0.017293 0.056442 0.0
-0.006151 0.046533 0.0
0.007981 0.037747 0.0
0.024900 0.029528 0.0
0.044726 0.021194 0.0
0.067974 0.012373 0.0
0.094979 0.002816 0.0
0.124775 -0.007889 0.0
0.155108 -0.020036 0.0
0.184405 -0.032596 0.0
0.212378 -0.044886 0.0
0.238963 -0.056671 0.0
0.264182 -0.067573 0.0
0.288121 -0.077447 0.0
0.310837 -0.086148 0.0
0.332395 -0.093578 0.0
0.352841 -0.099718 0.0
0.372191 -0.104558 0.0
0.390457 -0.108092 0.0
0.407656 -0.110342 0.0
0.423807 -0.111337 0.0
0.438930 -0.111144 0.0
0.453036 -0.109851 0.0
0.466123 -0.107548 0.0
0.478193 -0.104330 0.0
0.489248 -0.100299 0.0
0.499288 -0.095564 0.0
0.508314 -0.090241 0.0
0.516323 -0.084443 0.0
0.523314 -0.078283 0.0
0.529286 -0.071871 0.0
0.534241 -0.065310 0.0
0.538185 -0.058696 0.0
0.541134 -0.052120 0.0
0.543110 -0.045660 0.0
0.544144 -0.039388 0.0
0.544281 -0.033362 0.0
0.543576 -0.027627 0.0
0.542093 -0.022215 0.0
0.539907 -0.017147 0.0
0.537102 -0.012438 0.0
0.533780 -0.008120 0.0
0.530070 -0.004255 0.0
0.526153 -0.000927 0.0
0.522107 0.001893 0.0
0.517878 0.004274 0.0
0.513468 0.006281 0.0
0.508926 0.007950 0.0
0.504302 0.009315 0.0
0.499645 0.010419 0.0
0.495001 0.011297 0.0
0.490413 0.011985 0.0
0.485920 0.012513 0.0
0.481554 0.012903 0.0
0.477342 0.013175 0.0
0.473304 0.013342 0.0
0.469456 0.013414 0.0
0.465809 0.013396 0.0
0.462370 0.013293 0.0
0.459144 0.013106 0.0
0.456133 0.012838 0.0
0.453337 0.012490 0.0
0.450756 0.012065 0.0
0.448387 0.011569 0.0
0.446229 0.011007 0.0
0.444276 0.010389 0.0
0.442524 0.009723 0.0
0.440967 0.009024 0.0
0.439597 0.008303 0.0
0.438403 0.007576 0.0
0.437374 0.006858 0.0
0.436496 0.006163 0.0
0.435754 0.005506 0.0
0.435131 0.004899 0.0
0.434607 0.004355 0.0
0.434164 0.003882 0.0
0.433780 0.003489 0.0
0.433434 0.003182 0.0
0.433103 0.002965 0.0
0.432765 0.002842 0.0
0.432395 0.002815 0.0
0.431964 0.002884 0.0
0.431441 0.003046 0.0
0.430789 0.003298 0.0
0.429989 0.003611 0.0
0.500000 0.000000 0.0
0.000000 0.000000 0.0
0.000000 0.000000 0.0
0.000000 0.000000 0.0
0.000000 0.000000 0.0
0.000000 0.000000 0.0
0.000000 0.000000 0.0
0.000000 0.000000 0.0
0.000000 0.000000 0.0
0.000000 0.004989 0.0
-0.007093 0.066652 0.0
-0.013151 0.091063 0.0
-0.004598 0.082070 0.0
0.013572 0.066802 0.0
0.036193 0.052184 0.0
0.061209 0.038614 0.0
0.088478 0.025950 0.0
0.118568 0.014107 0.0
0.151762 0.003055 0.0
0.187091 -0.007487 0.0
0.222944 -0.018047 0.0
0.258003 -0.028827 0.0
0.291680 -0.039718 0.0
0.323785 -0.050645 0.0
0.354083 -0.061583 0.0
0.382419 -0.072208 0.0
0.408780 -0.082296 0.0
0.433220 -0.091607 0.0
0.455837 -0.099969 0.0
0.476741 -0.107246 0.0
0.496046 -0.113343 0.0
0.513855 -0.118209 0.0
0.530259 -0.121821 0.0
0.545336 -0.124173 0.0
0.559158 -0.125282 0.0
0.571793 -0.125182 0.0
0.583302 -0.123932 0.0
0.593737 -0.121605 0.0
0.603142 -0.118287 0.0
0.611552 -0.114071 0.0
0.618998 -0.109058 0.0
0.625506 -0.103353 0.0
0.631097 -0.097068 0.0
0.635785 -0.090314 0.0
0.639584 -0.083202 0.0
0.642502 -0.075842 0.0
0.644548 -0.068339 0.0
0.645730 -0.060794 0.0
0.646062 -0.053302 0.0
0.645561 -0.045952 0.0
0.644253 -0.038822 0.0
0.642170 -0.031983 0.0
0.639360 -0.025490 0.0
0.635879 -0.019387 0.0
0.631797 -0.013706 0.0
0.627204 -0.008481 0.0
0.622243 -0.003793 0.0
0.617075 0.000297 0.0
0.611707 0.003807 0.0
0.606090 0.006823 0.0
0.600275 0.009388 0.0
0.594327 0.011525 0.0
0.588310 0.013265 0.0
0.582284 0.014649 0.0
0.576310 0.015717 0.0
0.570442 0.016511 0.0
0.564731 0.017070 0.0
0.559222 0.017431 0.0
0.553950 0.017623 0.0
0.548947 0.017671 0.0
0.544235 0.017596 0.0
0.539830 0.017413 0.0
0.535741 0.017133 0.0
0.531973 0.016764 0.0
0.528524 0.016311 0.0
0.525390 0.015779 0.0
0.522563 0.015172 0.0
0.520034 0.014494 0.0
0.517791 0.013752 0.0
0.515821 0.012953 0.0
0.514110 0.012106 0.0
0.512643 0.011224 0.0
0.511404 0.010319 0.0
0.510377 0.009406 0.0
0.509541 0.008502 0.0
0.508879 0.007623 0.0
0.508370 0.006785 0.0
0.507991 0.006004 0.0
0.507721 0.005295 0.0
0.507535 0.004669 0.0
0.507410 0.004136 0.0
0.507322 0.003706 0.0
0.507248 0.003384 0.0
0.507164 0.003177 0.0
0.507046 0.003087 0.0
0.506869 0.003118 0.0
0.506606 0.003274 0.0
0.506226 0.003558 0.0
0.505695 0.003968 0.0
0.504994 0.004441 0.0
0.500000 -0.079014 0.0
0.000000 -0.053187 0.0
0.000000 -0.036955 0.0
0.000000 -0.024481 0.0
0.000000 -0.013799 0.0
0.000000 -0.004139 0.0
0.000000 0.004922 0.0
0.000000 0.013771 0.0
0.000000 0.023036 0.0
0.000000 0.005350 0.0
0.001435 0.072310 0.0
0.022128 0.070771 0.0
0.064673 0.051264 0.0
0.111508 0.032603 0.0
0.159285 0.015984 0.0
0.207553 0.001531 0.0
0.254668 -0.011350 0.0
0.299236 -0.023252 0.0
0.340634 -0.034177 0.0
0.379189 -0.044139 0.0
0.415418 -0.053476 0.0
0.449516 -0.062555 0.0
0.481448 -0.071599 0.0
0.511145 -0.080566 0.0
0.538572 -0.089386 0.0
0.563722 -0.097891 0.0
0.586648 -0.105899 0.0
0.607436 -0.113231 0.0
0.626207 -0.119731 0.0
0.643090 -0.125271 0.0
0.658223 -0.129756 0.0
0.671739 -0.133122 0.0
0.683762 -0.135335 0.0
0.694408 -0.136381 0.0
0.703784 -0.136271 0.0
0.711988 -0.135033 0.0
0.719112 -0.132715 0.0
0.725236 -0.129381 0.0
0.730428 -0.125109 0.0
0.734752 -0.119983 0.0
0.738260 -0.114099 0.0
0.740996 -0.107556 0.0
0.742999 -0.100458 0.0
0.744297 -0.092911 0.0
0.744914 -0.085021 0.0
0.744867 -0.076894 0.0
0.744169 -0.068635 0.0
0.742831 -0.060343 0.0
0.740862 -0.052117 0.0
0.738275 -0.044049 0.0
0.735085 -0.036226 0.0
0.731317 -0.028727 0.0
0.727002 -0.021621 0.0
0.722188 -0.014961 0.0
0.716935 -0.008798 0.0
0.711357 -0.003219 0.0
0.705542 0.001721 0.0
0.699449 0.006043 0.0
0.693056 0.009821 0.0
0.686423 0.013059 0.0
0.679617 0.015774 0.0
0.672710 0.017994 0.0
0.665772 0.019751 0.0
0.658872 0.021088 0.0
0.652075 0.022049 0.0
0.645442 0.022679 0.0
0.639031 0.023024 0.0
0.632891 0.023127 0.0
0.627064 0.023025 0.0
0.621585 0.022750 0.0
0.616482 0.022332 0.0
0.611772 0.021792 0.0
0.607468 0.021148 0.0
0.603572 0.020413 0.0
0.600083 0.019599 0.0
0.596993 0.018714 0.0
0.594289 0.017766 0.0
0.591956 0.016762 0.0
0.589974 0.015709 0.0
0.588323 0.014617 0.0
0.586979 0.013497 0.0
0.585918 0.012361 0.0
0.585116 0.011223 0.0
0.584545 0.010100 0.0
0.584180 0.009009 0.0
0.583993 0.007966 0.0
0.583955 0.006990 0.0
0.584038 0.006096 0.0
0.584213 0.005299 0.0
0.584452 0.004611 0.0
0.584727 0.004043 0.0
0.585013 0.003602 0.0
0.585282 0.003293 0.0
0.585511 0.003123 0.0
0.585677 0.003094 0.0
0.585755 0.003210 0.0
0.585722 0.003478 0.0
0.585553 0.003904 0.0
0.585217 0.004490 0.0
0.584704 0.005133 0.0
0.028268 -0.079014 0.0
-0.902016 -0.053187 0.0
-0.819248 -0.036955 0.0
-0.741128 -0.024481 0.0
-0.673502 -0.013799 0.0
-0.618236 -0.004139 0.0
-0.575955 0.004922 0.0
-0.547797 0.013771 0.0
-0.538621 0.023036 0.0
-0.269881 -0.001237 0.0
0.062917 0.011377 0.0
0.176240 0.001106 0.0
0.266291 -0.011666 0.0
0.338690 -0.023701 0.0
0.398660 -0.035459 0.0
0.449304 -0.045938 0.0
0.493494 -0.055185 0.0
0.532981 -0.063473 0.0
0.568758 -0.071130 0.0
0.601405 -0.078388 0.0
0.631322 -0.085372 0.0
0.658780 -0.092216 0.0
0.683918 -0.099010 0.0
0.706804 -0.105737 0.0
0.727484 -0.112321 0.0
0.746012 -0.118635 0.0
0.762461 -0.124530 0.0
0.776926 -0.129855 0.0
0.789520 -0.134472 0.0
0.800368 -0.138262 0.0
0.809602 -0.141132 0.0
0.817353 -0.143013 0.0
0.823749 -0.143863 0.0
0.828914 -0.143663 0.0
0.832963 -0.142414 0.0
0.836007 -0.140138 0.0
0.838146 -0.136872 0.0
0.839473 -0.132673 0.0
0.840072 -0.127608 0.0
0.840018 -0.121754 0.0
0.839377 -0.115196 0.0
0.838206 -0.108026 0.0
0.836555 -0.100340 0.0
0.834464 -0.092236 0.0
0.831964 -0.083813 0.0
0.829078 -0.075170 0.0
0.825824 -0.066407 0.0
0.822213 -0.057621 0.0
0.818252 -0.048909 0.0
0.813948 -0.040365 0.0
0.809307 -0.032080 0.0
0.804343 -0.024141 0.0
0.799076 -0.016626 0.0
0.793536 -0.009601 0.0
0.787779 -0.003148 0.0
0.781816 0.002672 0.0
0.775585 0.007876 0.0
0.769072 0.012493 0.0
0.762327 0.016509 0.0
0.755408 0.019923 0.0
0.748376 0.022748 0.0
0.741295 0.025009 0.0
0.734229 0.026740 0.0
0.727242 0.027986 0.0
0.720397 0.028793 0.0
0.713751 0.029212 0.0
0.707361 0.029293 0.0
0.701276 0.029084 0.0
0.695539 0.028631 0.0
0.690186 0.027975 0.0
0.685245 0.027151 0.0
0.680738 0.026189 0.0
0.676676 0.025116 0.0
0.673067 0.023951 0.0
0.669906 0.022711 0.0
0.667188 0.021411 0.0
0.664897 0.020064 0.0
0.663015 0.018679 0.0
0.661519 0.017269 0.0
0.660383 0.015844 0.0
0.659579 0.014418 0.0
0.659076 0.013004 0.0
0.658842 0.011617 0.0
0.658845 0.010274 0.0
0.659051 0.008994 0.0
0.659427 0.007793 0.0
0.659937 0.006690 0.0
0.660548 0.005701 0.0
0.661227 0.004840 0.0
0.661941 0.004117 0.0
0.662660 0.003542 0.0
0.663356 0.003121 0.0
0.664003 0.002858 0.0
0.664576 0.002755 0.0
0.665055 0.002817 0.0
0.665419 0.003044 0.0
0.665652 0.003444 0.0
0.665736 0.004024 0.0
0.665653 0.004790 0.0
0.665399 0.005600 0.0
0.971732 0.028268 0.0
0.902016 0.041448 0.0
0.819248 0.041320 0.0
0.741128 0.036799 0.0
0.673503 0.030826 0.0
0.618237 0.024440 0.0
0.575957 0.017840 0.0
0.547799 0.010318 0.0
0.538624 -0.001143 0.0
0.555737 -0.022807 0.0
0.581593 -0.058007 0.0
0.607114 -0.064937 0.0
0.640315 -0.068875 0.0
0.674864 -0.073441 0.0
0.707513 -0.078338 0.0
0.737322 -0.083513 0.0
0.764203 -0.088680 0.0
0.788448 -0.093710 0.0
0.810392 -0.098614 0.0
0.830291 -0.103451 0.0
0.848323 -0.108258 0.0
0.864603 -0.113068 0.0
0.879192 -0.117885 0.0
0.892113 -0.122669 0.0
0.903381 -0.127338 0.0
0.913017 -0.131782 0.0
0.921057 -0.135872 0.0
0.927557 -0.139478 0.0
0.932590 -0.142477 0.0
0.936247 -0.144762 0.0
0.938624 -0.146244 0.0
0.939829 -0.146856 0.0
0.939967 -0.146555 0.0
0.939149 -0.145317 0.0
0.937479 -0.143140 0.0
0.935062 -0.140039 0.0
0.931998 -0.136046 0.0
0.928380 -0.131209 0.0
0.924296 -0.125588 0.0
0.919829 -0.119252 0.0
0.915051 -0.112279 0.0
0.910029 -0.104751 0.0
0.904820 -0.096756 0.0
0.899473 -0.088382 0.0
0.894028 -0.079721 0.0
0.888513 -0.070862 0.0
0.882950 -0.061898 0.0
0.877350 -0.052920 0.0
0.871719 -0.044019 0.0
0.866056 -0.035289 0.0
0.860361 -0.026821 0.0
0.854634 -0.018709 0.0
0.848878 -0.011034 0.0
0.843090 -0.003865 0.0
0.837225 0.002738 0.0
0.831211 0.008763 0.0
0.825030 0.014197 0.0
0.818714 0.019002 0.0
0.812300 0.023159 0.0
0.805831 0.026662 0.0
0.799352 0.029520 0.0
0.792911 0.031758 0.0
0.786557 0.033411 0.0
0.780339 0.034520 0.0
0.774306 0.035137 0.0
0.768506 0.035314 0.0
0.762982 0.035105 0.0
0.757776 0.034564 0.0
0.752922 0.033743 0.0
0.748452 0.032687 0.0
0.744390 0.031442 0.0
0.740754 0.030043 0.0
0.737555 0.028523 0.0
0.734797 0.026911 0.0
0.732479 0.025229 0.0
0.730591 0.023500 0.0
0.729119 0.021738 0.0
0.728044 0.019962 0.0
0.727340 0.018185 0.0
0.726982 0.016423 0.0
0.726936 0.014689 0.0
0.727172 0.013000 0.0
0.727653 0.011372 0.0
0.728344 0.009824 0.0
0.729209 0.008373 0.0
0.730210 0.007038 0.0
0.731309 0.005836 0.0
0.732472 0.004782 0.0
0.733661 0.003890 0.0
0.734845 0.003169 0.0
0.735993 0.002623 0.0
0.737079 0.002258 0.0
0.738077 0.002075 0.0
0.738968 0.002074 0.0
0.739734 0.002253 0.0
0.740363 0.002613 0.0
0.740849 0.003156 0.0
0.741186 0.003891 0.0
0.741373 0.004820 0.0
0.741416 0.005781 0.0
1.012848 0.043688 0.0
1.034703 0.073889 0.0
1.046467 0.079885 0.0
1.047848 0.074973 0.0
1.043186 0.064941 0.0
1.036426 0.052351 0.0
1.030655 0.037980 0.0
1.028059 0.020932 0.0
1.027858 -0.002381 0.0
1.023896 -0.034720 0.0
1.013594 -0.061649 0.0
1.003322 -0.076543 0.0
0.998009 -0.085157 0.0
0.997430 -0.091129 0.0
1.000071 -0.095939 0.0
1.004597 -0.100248 0.0
1.010057 -0.104286 0.0
1.015848 -0.108140 0.0
1.021593 -0.111873 0.0
1.027039 -0.115537 0.0
1.031997 -0.119163 0.0
1.036320 -0.122766 0.0
1.039882 -0.126336 0.0
1.042575 -0.129832 0.0
1.044316 -0.133184 0.0
1.045046 -0.136301 0.0
1.044734 -0.139080 0.0
1.043376 -0.141412 0.0
1.040994 -0.143195 0.0
1.037630 -0.144336 0.0
1.033345 -0.144761 0.0
1.028212 -0.144409 0.0
1.022313 -0.143242 0.0
1.015740 -0.141239 0.0
1.008587 -0.138396 0.0
1.000949 -0.134729 0.0
0.992924 -0.130267 0.0
0.984608 -0.125054 0.0
0.976093 -0.119144 0.0
0.967468 -0.112602 0.0
0.958815 -0.105498 0.0
0.950211 -0.097906 0.0
0.941723 -0.089904 0.0
0.933410 -0.081574 0.0
0.925321 -0.072994 0.0
0.917492 -0.064245 0.0
0.909948 -0.055408 0.0
0.902703 -0.046565 0.0
0.895761 -0.037800 0.0
0.889115 -0.029200 0.0
0.882754 -0.020855 0.0
0.876660 -0.012854 0.0
0.870795 -0.005267 0.0
0.865070 0.001880 0.0
0.859401 0.008527 0.0
0.853770 0.014621 0.0
0.848188 0.020102 0.0
0.842672 0.024929 0.0
0.837242 0.029076 0.0
0.831918 0.032536 0.0
0.826726 0.035317 0.0
0.821690 0.037439 0.0
0.816837 0.038937 0.0
0.812195 0.039854 0.0
0.807792 0.040240 0.0
0.803654 0.040149 0.0
0.799807 0.039639 0.0
0.796277 0.038767 0.0
0.793084 0.037587 0.0
0.790247 0.036151 0.0
0.787780 0.034508 0.0
0.785691 0.032701 0.0
0.783987 0.030768 0.0
0.782666 0.028744 0.0
0.781723 0.026658 0.0
0.781145 0.024536 0.0
0.780917 0.022402 0.0
0.781018 0.020274 0.0
0.781422 0.018172 0.0
0.782102 0.016115 0.0
0.783027 0.014118 0.0
0.784163 0.012199 0.0
0.785477 0.010378 0.0
0.786933 0.008671 0.0
0.788494 0.007099 0.0
0.790126 0.005680 0.0
0.791791 0.004429 0.0
0.793455 0.003362 0.0
0.795086 0.002490 0.0
0.796655 0.001817 0.0
0.798136 0.001346 0.0
0.799507 0.001079 0.0
0.800751 0.001013 0.0
0.801853 0.001143 0.0
0.802806 0.001464 0.0
0.803611 0.001969 0.0
0.804273 0.002653 0.0
0.804808 0.003522 0.0
0.805234 0.004576 0.0
0.805567 0.005648 0.0
1.008271 0.022569 0.0
1.031037 0.050386 0.0
1.060584 0.062077 0.0
1.089204 0.062779 0.0
1.114478 0.056522 0.0
1.136273 0.045734 0.0
1.155137 0.031504 0.0
1.171285 0.013857 0.0
1.183635 -0.007456 0.0
1.189644 -0.031693 0.0
1.188697 -0.053427 0.0
1.183733 -0.069528 0.0
1.177846 -0.080972 0.0
1.172471 -0.089359 0.0
1.167961 -0.095840 0.0
1.164226 -0.101137 0.0
1.161039 -0.105669 0.0
1.158171 -0.109679 0.0
1.155417 -0.113326 0.0
1.152600 -0.116713 0.0
1.149562 -0.119907 0.0
1.146160 -0.122943 0.0
1.142267 -0.125828 0.0
1.137772 -0.128539 0.0
1.132585 -0.131031 0.0
1.126638 -0.133238 0.0
1.119889 -0.135083 0.0
1.112324 -0.136485 0.0
1.103951 -0.137366 0.0
1.094802 -0.137653 0.0
1.084929 -0.137286 0.0
1.074399 -0.136221 0.0
1.063292 -0.134426 0.0
1.051700 -0.131889 0.0
1.039721 -0.128613 0.0
1.027460 -0.124613 0.0
1.015023 -0.119921 0.0
1.002518 -0.114578 0.0
0.990050 -0.108637 0.0
0.977723 -0.102157 0.0
0.965634 -0.095201 0.0
0.953874 -0.087838 0.0
0.942525 -0.080136 0.0
0.931660 -0.072164 0.0
0.921336 -0.063991 0.0
0.911600 -0.055684 0.0
0.902484 -0.047310 0.0
0.894003 -0.038938 0.0
0.886158 -0.030640 0.0
0.878937 -0.022493 0.0
0.872312 -0.014576 0.0
0.866232 -0.006959 0.0
0.860566 0.000369 0.0
0.855220 0.007315 0.0
0.850195 0.013786 0.0
0.845486 0.019702 0.0
0.841088 0.025001 0.0
0.836996 0.029639 0.0
0.833202 0.033590 0.0
0.829702 0.036845 0.0
0.826492 0.039410 0.0
0.823569 0.041305 0.0
0.820932 0.042561 0.0
0.818580 0.043223 0.0
0.816516 0.043338 0.0
0.814742 0.042963 0.0
0.813260 0.042154 0.0
0.812074 0.040969 0.0
0.811185 0.039466 0.0
0.810595 0.037699 0.0
0.810304 0.035719 0.0
0.810308 0.033574 0.0
0.810602 0.031306 0.0