# vtk DataFile Version 3.0
Scalar Field
ASCII
DATASET RECTILINEAR_GRID
DIMENSIONS 100 26 1
X_COORDINATES 100 double
0.050000 0.150000 0.250000 0.350000 0.450000 0.550000 0.650000 0.750000 0.850000 0.950000 1.050000 1.150000 1.250000 1.350000 1.450000 1.550000 1.650000 1.750000 1.850000 1.950000 2.050000 2.150000 2.250000 2.350000 2.450000 2.550000 2.650000 2.750000 2.850000 2.950000 3.050000 3.150000 3.250000 3.350000 3.450000 3.550000 3.650000 3.750000 3.850000 3.950000 4.050000 4.150000 4.250000 4.350000 4.450000 4.550000 4.650000 4.750000 4.850000 4.950000 5.050000 5.150000 5.250000 5.350000 5.450000 5.550000 5.650000 5.750000 5.850000 5.950000 6.050000 6.150000 6.250000 6.350000 6.450000 6.550000 6.650000 6.750000 6.850000 6.950000 7.050000 7.150000 7.250000 7.350000 7.450000 7.550000 7.650000 7.750000 7.850000 7.950000 8.050000 8.150000 8.250000 8.350000 8.450000 8.550000 8.650000 8.750000 8.850000 8.950000 9.050000 9.150000 9.250000 9.350000 9.450000 9.550000 9.650000 9.750000 9.850000 9.950000 
Y_COORDINATES 26 double
0.050000 0.150000 0.250000 0.350000 0.450000 0.550000 0.650000 0.750000 0.850000 0.950000 1.050000 1.150000 1.250000 1.350000 1.450000 1.550000 1.650000 1.750000 1.850000 1.950000 2.050000 2.150000 2.250000 2.350000 2.450000 2.550000 
Z_COORDINATES 1 double
0.0
POINT_DATA 2600
SCALARS Skalarfeld double 1
LOOKUP_TABLE default
0.245155
0.229750
0.214184
0.195441
0.172407
0.144636
0.112123
0.075313
0.035167
-0.006811
-0.048692
-0.088430
-0.124215
-0.154752
-0.178939
-0.196253
-0.206895
-0.211393
-0.210513
-0.205157
-0.196273
-0.184787
-0.171549
-0.157303
-0.142684
-0.128211
-0.114304
-0.101274
-0.089329
-0.078559
-0.068966
-0.060513
-0.053191
-0.047074
-0.042336
-0.039214
-0.037947
-0.038683
-0.041377
-0.045707
-0.051019
-0.056307
-0.060259
-0.061439
-0.059065
-0.052575
-0.044096
-0.035281
-0.026985
-0.019625
-0.013390
-0.008310
-0.004320
-0.001290
0.000939
0.002534
0.003658
0.004453
0.005038
0.005506
0.005918
0.006313
0.006707
0.007098
0.007474
0.007817
0.008107
0.008325
0.008455
0.008489
0.008419
0.008248
0.007978
0.007617
0.007174
0.006657
0.006078
0.005447
0.004772
0.004062
0.003324
0.002565
0.001789
0.001001
0.000204
-0.000600
-0.001407
-0.002218
-0.003031
-0.003846
-0.004663
-0.005482
-0.006305
-0.007134
-0.007970
-0.008817
-0.009678
-0.010559
-0.011466
-0.011961
0.236551
0.229952
0.217367
0.199771
0.177025
0.148936
0.115528
0.077250
0.035152
-0.009048
-0.053074
-0.094559
-0.131477
-0.162311
-0.186401
-0.203518
-0.213668
-0.217443
-0.215670
-0.209315
-0.199386
-0.186870
-0.172672
-0.157588
-0.142292
-0.127337
-0.113163
-0.100093
-0.088317
-0.077880
-0.068707
-0.060674
-0.053708
-0.047847
-0.043260
-0.040202
-0.038940
-0.039652
-0.042326
-0.046661
-0.052012
-0.057357
-0.061267
-0.061986
-0.058112
-0.051307
-0.043530
-0.035016
-0.026900
-0.019640
-0.013471
-0.008441
-0.004489
-0.001492
0.000711
0.002287
0.003399
0.004190
0.004778
0.005255
0.005683
0.006097
0.006513
0.006928
0.007328
0.007693
0.008004
0.008240
0.008385
0.008431
0.008372
0.008209
0.007945
0.007589
0.007149
0.006636
0.006059
0.005430
0.004757
0.004049
0.003313
0.002555
0.001781
0.000994
0.000200
-0.000601
-0.001406
-0.002214
-0.003022
-0.003832
-0.004642
-0.005453
-0.006266
-0.007080
-0.007897
-0.008718
-0.009545
-0.010383
-0.011244
-0.011791
0.240142
0.235892
0.225166
0.208534
0.185933
0.157101
0.121916
0.080719
0.034655
-0.014141
-0.062574
-0.107574
-0.146819
-0.178888
-0.203172
-0.219736
-0.228677
-0.230731
-0.226856
-0.218144
-0.205743
-0.190787
-0.174334
-0.157327
-0.140566
-0.124707
-0.110256
-0.097562
-0.086757
-0.077721
-0.070120
-0.063563
-0.057775
-0.052689
-0.048442
-0.045310
-0.043599
-0.043536
-0.045151
-0.048188
-0.052037
-0.055715
-0.057934
-0.057460
-0.053805
-0.047686
-0.039992
-0.032352
-0.025112
-0.018462
-0.012762
-0.008081
-0.004387
-0.001579
0.000485
0.001964
0.003011
0.003766
0.004341
0.004824
0.005272
0.005717
0.006170
0.006625
0.007065
0.007468
0.007812
0.008076
0.008245
0.008310
0.008266
0.008114
0.007860
0.007511
0.007077
0.006569
0.005998
0.005373
0.004705
0.004001
0.003270
0.002517
0.001748
0.000966
0.000177
-0.000618
-0.001417
-0.002217
-0.003017
-0.003817
-0.004615
-0.005411
-0.006204
-0.006994
-0.007779
-0.008557
-0.009324
-0.010071
-0.010781
-0.011349
0.251609
0.248115
0.238384
0.222388
0.199703
0.169680
0.131758
0.085931
0.033362
-0.023178
-0.078804
-0.129149
-0.171583
-0.204981
-0.229149
-0.244442
-0.251303
-0.250602
-0.243468
-0.231159
-0.215016
-0.196383
-0.176535
-0.156617
-0.137609
-0.120303
-0.105321
-0.093102
-0.083757
-0.076936
-0.071864
-0.067662
-0.063722
-0.059818
-0.056056
-0.052746
-0.050259
-0.048880
-0.048705
-0.049562
-0.050973
-0.052180
-0.052285
-0.050549
-0.046737
-0.041234
-0.034719
-0.027982
-0.021468
-0.015697
-0.010785
-0.006718
-0.003515
-0.001099
0.000660
0.001906
0.002781
0.003416
0.003917
0.004363
0.004807
0.005271
0.005760
0.006260
0.006749
0.007200
0.007587
0.007888
0.008087
0.008175
0.008148
0.008009
0.007764
0.007422
0.006993
0.006490
0.005922
0.005301
0.004637
0.003938
0.003211
0.002463
0.001700
0.000924
0.000141
-0.000647
-0.001438
-0.002229
-0.003020
-0.003808
-0.004593
-0.005372
-0.006145
-0.006909
-0.007661
-0.008396
-0.009106
-0.009776
-0.010381
-0.010936
0.269526
0.266415
0.257424
0.242055
0.219342
0.187925
0.146351
0.093746
0.030984
-0.038443
-0.105277
-0.162915
-0.208895
-0.243104
-0.266203
-0.279082
-0.282580
-0.277795
-0.265983
-0.248598
-0.227226
-0.203490
-0.178947
-0.154998
-0.132834
-0.113408
-0.097485
-0.085769
-0.078516
-0.074963
-0.073668
-0.072792
-0.071265
-0.068728
-0.065352
-0.061600
-0.057989
-0.054925
-0.052605
-0.050977
-0.049738
-0.048397
-0.046403
-0.043337
-0.039086
-0.033874
-0.028123
-0.022315
-0.016833
-0.011985
-0.007846
-0.004529
-0.001961
-0.000073
0.001254
0.002153
0.002753
0.003184
0.003544
0.003907
0.004315
0.004782
0.005303
0.005853
0.006400
0.006910
0.007352
0.007700
0.007937
0.008053
0.008047
0.007922
0.007686
0.007349
0.006923
0.006421
0.005855
0.005236
0.004574
0.003877
0.003153
0.002409
0.001649
0.000879
0.000101
-0.000681
-0.001464
-0.002248
-0.003029
-0.003807
-0.004578
-0.005342
-0.006096
-0.006836
-0.007559
-0.008259
-0.008925
-0.009544
-0.010096
-0.010638
0.293170
0.290452
0.282415
0.268161
0.246058
0.213660
0.167882
0.105864
0.027161
-0.064758
-0.148562
-0.214658
-0.263013
-0.296291
-0.316605
-0.325303
-0.323913
-0.313467
-0.295260
-0.270975
-0.242531
-0.211927
-0.181088
-0.151751
-0.125356
-0.102999
-0.085490
-0.074464
-0.070413
-0.071934
-0.076131
-0.079904
-0.081329
-0.080097
-0.076683
-0.071944
-0.066703
-0.061570
-0.056880
-0.052707
-0.048910
-0.045205
-0.041280
-0.036910
-0.032044
-0.026822
-0.021503
-0.016385
-0.011721
-0.007693
-0.004379
-0.001814
0.000050
0.001322
0.002114
0.002565
0.002819
0.002986
0.003159
0.003405
0.003757
0.004222
0.004779
0.005390
0.006011
0.006597
0.007108
0.007515
0.007799
0.007951
0.007968
0.007858
0.007630
0.007297
0.006872
0.006370
0.005802
0.005182
0.004519
0.003822
0.003099
0.002357
0.001600
0.000833
0.000059
-0.000717
-0.001495
-0.002272
-0.003045
-0.003812
-0.004572
-0.005323
-0.006060
-0.006782
-0.007482
-0.008155
-0.008791
-0.009380
-0.009906
-0.010446
0.321807
0.319669
0.313189
0.301144
0.281194
0.249443
0.200070
0.125848
0.021563
-0.112799
-0.220100
-0.291497
-0.337154
-0.365853
-0.381101
-0.383877
-0.376312
-0.358637
-0.332156
-0.298892
-0.261240
-0.221708
-0.182726
-0.146473
-0.114712
-0.088650
-0.068856
-0.058139
-0.058180
-0.066900
-0.079514
-0.089887
-0.094614
-0.094307
-0.090104
-0.083625
-0.076182
-0.068634
-0.061452
-0.054803
-0.048653
-0.042850
-0.037221
-0.031645
-0.026106
-0.020692
-0.015561
-0.010891
-0.006833
-0.003486
-0.000885
0.000985
0.002191
0.002842
0.003069
0.003016
0.002836
0.002673
0.002640
0.002757
0.003055
0.003528
0.004141
0.004839
0.005560
0.006246
0.006848
0.007330
0.007673
0.007866
0.007912
0.007818
0.007598
0.007266
0.006840
0.006333
0.005762
0.005137
0.004471
0.003772
0.003048
0.002306
0.001550
0.000786
0.000015
-0.000758
-0.001530
-0.002301
-0.003067
-0.003827
-0.004578
-0.005317
-0.006042
-0.006749
-0.007432
-0.008087
-0.008706
-0.009278
-0.009796
-0.010344
0.354350
0.353084
0.349065
0.340932
0.325864
0.298498
0.249110
0.161627
0.014087
-0.206939
-0.336285
-0.395555
-0.426219
-0.445448
-0.454931
-0.452500
-0.438732
-0.412955
-0.376741
-0.332715
-0.283945
-0.233616
-0.184817
-0.140342
-0.102427
-0.072488
-0.050875
-0.038638
-0.041780
-0.057429
-0.079152
-0.099102
-0.108697
-0.108975
-0.103307
-0.094647
-0.084861
-0.074997
-0.065587
-0.056831
-0.048736
-0.041224
-0.034199
-0.027601
-0.021432
-0.015752
-0.010659
-0.006256
-0.002624
0.000197
0.002213
0.003473
0.004067
0.004119
0.003780
0.003217
0.002601
0.002085
0.001800
0.001806
0.002074
0.002593
0.003308
0.004140
0.005007
0.005831
0.006554
0.007135
0.007551
0.007796
0.007874
0.007798
0.007585
0.007254
0.006823
0.006310
0.005732
0.005101
0.004429
0.003726
0.003000
0.002256
0.001500
0.000736
-0.000032
-0.000802
-0.001571
-0.002337
-0.003098
-0.003852
-0.004595
-0.005326
-0.006042
-0.006739
-0.007412
-0.008056
-0.008665
-0.009233
-0.009751
-0.010315
0.389180
0.389093
0.388527
0.386354
0.379974
0.363592
0.324105
0.231577
0.010918
-0.405339
-0.508638
-0.506968
-0.505108
-0.512948
-0.523038
-0.521519
-0.504322
-0.471663
-0.426212
-0.371532
-0.311520
-0.250148
-0.191324
-0.138687
-0.095160
-0.062515
-0.041593
-0.028166
-0.030963
-0.048248
-0.072421
-0.095921
-0.112889
-0.116554
-0.110119
-0.100257
-0.089229
-0.078143
-0.067543
-0.057613
-0.048377
-0.039808
-0.031877
-0.024581
-0.017952
-0.012051
-0.006952
-0.002719
0.000607
0.003020
0.004556
0.005287
0.005320
0.004801
0.003907
0.002833
0.001780
0.000926
0.000407
0.000325
0.000621
0.001264
0.002166
0.003214
0.004296
0.005317
0.006205
0.006915
0.007426
0.007734
0.007851
0.007795
0.007589
0.007256
0.006818
0.006297
0.005709
0.005070
0.004391
0.003682
0.002952
0.002205
0.001448
0.000684
-0.000084
-0.000852
-0.001619
-0.002382
-0.003139
-0.003887
-0.004626
-0.005352
-0.006062
-0.006752
-0.007420
-0.008060
-0.008667
-0.009236
-0.009762
-0.010348
0.424107
0.425402
0.428982
0.434408
0.440415
0.443364
0.432491
0.373303
0.114375
-0.764221
-0.702880
-0.570078
-0.536592
-0.536825
-0.558446
-0.569919
-0.554861
-0.520527
-0.470916
-0.410402
-0.343636
-0.275390
-0.210527
-0.153816
-0.108941
-0.077089
-0.057163
-0.047611
-0.049190
-0.059175
-0.074275
-0.089866
-0.101729
-0.106936
-0.104898
-0.096130
-0.086000
-0.075496
-0.065309
-0.055589
-0.046366
-0.037666
-0.029539
-0.022056
-0.015308
-0.009387
-0.004376
-0.000336
0.002704
0.004751
0.005850
0.006085
0.005577
0.004494
0.003043
0.001459
-0.000019
-0.001176
-0.001857
-0.001969
-0.001526
-0.000619
0.000606
0.001989
0.003385
0.004677
0.005783
0.006659
0.007287
0.007673
0.007836
0.007802
0.007602
0.007266
0.006820
0.006288
0.005690
0.005040
0.004353
0.003637
0.002901
0.002151
0.001392
0.000627
-0.000140
-0.000908
-0.001673
-0.002434
-0.003189
-0.003935
-0.004671
-0.005394
-0.006101
-0.006790
-0.007456
-0.008097
-0.008707
-0.009284
-0.009822
-0.010434
0.456583
0.459219
0.466877
0.480033
0.499458
0.526009
0.559686
0.595265
0.667488
-0.048366
-0.626681
-0.550482
-0.536907
-0.535643
-0.552020
-0.576007
-0.568253
-0.539760
-0.494682
-0.437787
-0.374375
-0.309976
-0.249997
-0.199370
-0.161443
-0.135617
-0.118592
-0.109216
-0.101105
-0.096114
-0.094088
-0.093693
-0.093245
-0.091334
-0.087398
-0.082066
-0.074676
-0.066118
-0.057770
-0.049589
-0.041555
-0.033732
-0.026239
-0.019229
-0.012863
-0.007286
-0.002618
0.001058
0.003700
0.005304
0.005909
0.005596
0.004497
0.002803
0.000760
-0.001345
-0.003217
-0.004600
-0.005320
-0.005286
-0.004481
-0.003104
-0.001381
0.000474
0.002285
0.003919
0.005293
0.006366
0.007132
0.007606
0.007820
0.007811
0.007618
0.007278
0.006823
0.006279
0.005668
0.005008
0.004311
0.003588
0.002847
0.002093
0.001331
0.000565
-0.000203
-0.000971
-0.001735
-0.002496
-0.003249
-0.003995
-0.004730
-0.005452
-0.006160
-0.006849
-0.007519
-0.008164
-0.008782
-0.009370
-0.009924
-0.010566
0.484142
0.487785
0.498489
0.517359
0.546529
0.589759
0.653664
0.749660
0.885440
0.923533
0.000000
-0.543041
-0.535600
-0.528049
-0.532990
-0.542073
-0.542492
-0.521204
-0.485240
-0.439629
-0.390025
-0.342202
-0.301487
-0.270538
-0.247539
-0.229001
-0.212195
-0.194137
-0.170720
-0.147122
-0.125538
-0.106859
-0.091342
-0.078846
-0.069050
-0.061547
-0.055479
-0.050585
-0.044918
-0.039187
-0.033240
-0.027153
-0.021083
-0.015236
-0.009837
-0.005089
-0.001155
0.001846
0.003837
0.004790
0.004719
0.003695
0.001861
-0.000560
-0.003262
-0.005887
-0.008073
-0.009522
-0.010045
-0.009514
-0.008058
-0.005994
-0.003619
-0.001190
0.001099
0.003114
0.004777
0.006059
0.006968
0.007533
0.007798
0.007813
0.007627
0.007282
0.006817
0.006261
0.005638
0.004967
0.004262
0.003532
0.002786
0.002028
0.001264
0.000496
-0.000273
-0.001041
-0.001806
-0.002566
-0.003320
-0.004066
-0.004802
-0.005527
-0.006237
-0.006930
-0.007605
-0.008258
-0.008887
-0.009489
-0.010062
-0.010736
0.504937
0.509052
0.521128
0.542330
0.574759
0.621625
0.686942
0.772317
0.870367
0.961626
0.882764
0.000000
-0.523593
-0.511587
-0.497804
-0.490515
-0.484738
-0.468460
-0.442639
-0.413443
-0.386860
-0.367447
-0.356716
-0.352261
-0.346275
-0.333428
-0.311367
-0.278171
-0.237941
-0.196241
-0.156723
-0.121638
-0.092277
-0.069184
-0.052283
-0.040933
-0.033963
-0.030001
-0.027590
-0.024695
-0.021276
-0.017492
-0.013448
-0.009360
-0.005490
-0.002081
0.000662
0.002581
0.003562
0.003536
0.002490
0.000487
-0.002307
-0.005610
-0.009026
-0.012103
-0.014414
-0.015663
-0.015555
-0.014106
-0.011752
-0.008864
-0.005775
-0.002755
0.000005
0.002379
0.004308
0.005778
0.006812
0.007455
0.007764
0.007799
0.007617
0.007267
0.006793
0.006226
0.005593
0.004914
0.004201
0.003466
0.002715
0.001955
0.001189
0.000420
-0.000350
-0.001119
-0.001885
-0.002646
-0.003401
-0.004149
-0.004888
-0.005616
-0.006331
-0.007031
-0.007714
-0.008377
-0.009019
-0.009638
-0.010232
-0.010938
0.518100
0.522133
0.533886
0.554187
0.584321
0.625769
0.679724
0.746061
0.813570
0.838685
0.803902
0.691538
0.000000
-0.483213
-0.454840
-0.432570
-0.418161
-0.400773
-0.383090
-0.371431
-0.370883
-0.383142
-0.404005
-0.426415
-0.436905
-0.429139
-0.393040
-0.344387
-0.288774
-0.231908
-0.178218
-0.130608
-0.090736
-0.059296
-0.036226
-0.020844
-0.011911
-0.007772
-0.006546
-0.006457
-0.005978
-0.004743
-0.003078
-0.001147
0.000765
0.002389
0.003500
0.003908
0.003462
0.002055
-0.000345
-0.003659
-0.007664
-0.011971
-0.016067
-0.019399
-0.021499
-0.022093
-0.020775
-0.018242
-0.014925
-0.011229
-0.007490
-0.003963
-0.000823
0.001831
0.003956
0.005560
0.006680
0.007374
0.007711
0.007757
0.007576
0.007222
0.006741
0.006167
0.005527
0.004842
0.004125
0.003386
0.002634
0.001872
0.001105
0.000335
-0.000435
-0.001204
-0.001971
-0.002734
-0.003492
-0.004243
-0.004986
-0.005719
-0.006441
-0.007149
-0.007842
-0.008518
-0.009175
-0.009812
-0.010427
-0.011168
0.523786
0.527300
0.537456
0.554677
0.579595
0.612617
0.652799
0.695210
0.727101
0.721703
0.661863
0.579175
0.416632
0.000000
-0.415266
-0.375691
-0.359760
-0.338423
-0.324446
-0.326245
-0.347227
-0.386755
-0.437310
-0.482804
-0.505841
-0.488837
-0.443571
-0.383866
-0.317245
-0.250110
-0.187249
-0.131742
-0.085236
-0.048322
-0.020844
-0.002100
0.009061
0.014193
0.015180
0.013971
0.012110
0.010676
0.009881
0.009521
0.009250
0.008786
0.007906
0.006408
0.004115
0.000903
-0.003246
-0.008194
-0.013598
-0.018924
-0.023523
-0.026780
-0.028279
-0.027365
-0.024806
-0.021219
-0.017060
-0.012721
-0.008510
-0.004647
-0.001276
0.001530
0.003754
0.005417
0.006571
0.007284
0.007627
0.007675
0.007492
0.007136
0.006651
0.006075
0.005433
0.004747
0.004030
0.003291
0.002539
0.001778
0.001012
0.000243
-0.000528
-0.001298
-0.002066
-0.002831
-0.003592
-0.004347
-0.005095
-0.005835
-0.006565
-0.007283
-0.007988
-0.008678
-0.009352
-0.010008
-0.010645
-0.011419
0.522953
0.525728
0.533671
0.546840
0.565082
0.587621
0.612049
0.632686
0.638505
0.611631
0.534517
0.398209
0.254089
-0.155272
-0.402166
-0.347683
-0.321249
-0.289557
-0.273429
-0.284578
-0.323041
-0.383103
-0.451882
-0.508969
-0.532977
-0.508328
-0.458728
-0.394096
-0.322931
-0.251941
-0.185871
-0.127629
-0.078643
-0.039290
-0.009289
0.012011
0.025521
0.032461
0.034422
0.033249
0.030625
0.027531
0.024627
0.022222
0.019802
0.017125
0.014019
0.010303
0.005804
0.000423
-0.005791
-0.012569
-0.019395
-0.025560
-0.030308
-0.033049
-0.032999
-0.030619
-0.026995
-0.022612
-0.017897
-0.013196
-0.008766
-0.004785
-0.001361
0.001460
0.003677
0.005326
0.006465
0.007163
0.007498
0.007540
0.007355
0.007000
0.006518
0.005945
0.005308
0.004627
0.003914
0.003180
0.002431
0.001674
0.000910
0.000142
-0.000628
-0.001398
-0.002167
-0.002935
-0.003699
-0.004459
-0.005214
-0.005962
-0.006701
-0.007431
-0.008149
-0.008855
-0.009546
-0.010222
-0.010882
-0.011688
0.516969
0.518888
0.524293
0.532936
0.544184
0.556617
0.567325
0.570933
0.558509
0.516765
0.428477
0.270434
-0.005784
-0.564634
-0.456648
-0.346555
-0.292626
-0.254755
-0.243403
-0.263107
-0.310283
-0.376995
-0.448683
-0.504950
-0.514584
-0.489468
-0.440597
-0.377710
-0.309036
-0.240860
-0.177497
-0.121516
-0.074116
-0.035524
-0.005360
0.017060
0.032512
0.041795
0.045934
0.046456
0.044998
0.042591
0.039026
0.035439
0.031250
0.026477
0.021116
0.015060
0.008191
0.000494
-0.007838
-0.016342
-0.024300
-0.030851
-0.035212
-0.036383
-0.034632
-0.031357
-0.027117
-0.022375
-0.017498
-0.012770
-0.008396
-0.004512
-0.001197
0.001520
0.003648
0.005227
0.006316
0.006983
0.007301
0.007338
0.007156
0.006808
0.006337
0.005776
0.005151
0.004480
0.003777
0.003052
0.002310
0.001558
0.000799
0.000034
-0.000734
-0.001504
-0.002275
-0.003045
-0.003813
-0.004579
-0.005341
-0.006098
-0.006848
-0.007591
-0.008325
-0.009047
-0.009757
-0.010453
-0.011135
-0.011972
0.507411
0.508476
0.511390
0.515741
0.520662
0.524533
0.524526
0.516058
0.492244
0.443492
0.357193
0.217057
0.003297
-0.263407
-0.308260
-0.285125
-0.258437
-0.239804
-0.239164
-0.261905
-0.307290
-0.367496
-0.427821
-0.464216
-0.465724
-0.441404
-0.397760
-0.342355
-0.281941
-0.221785
-0.165545
-0.115441
-0.072550
-0.037130
-0.008907
0.012695
0.028384
0.038936
0.045272
0.048470
0.049385
0.049194
0.048633
0.045361
0.040380
0.034253
0.027171
0.019158
0.010243
0.000594
-0.009379
-0.018988
-0.027345
-0.033548
-0.036220
-0.035631
-0.033278
-0.029734
-0.025475
-0.020882
-0.016250
-0.011806
-0.007713
-0.004086
-0.000988
0.001556
0.003554
0.005042
0.006073
0.006709
0.007016
0.007057
0.006889
0.006560
0.006109
0.005569
0.004963
0.004310
0.003622
0.002909
0.002178
0.001434
0.000680
-0.000080
-0.000846
-0.001615
-0.002386
-0.003159
-0.003932
-0.004704
-0.005474
-0.006241
-0.007004
-0.007761
-0.008511
-0.009252
-0.009982
-0.010699
-0.011403
-0.012268
0.495861
0.496156
0.496860
0.497511
0.497212
0.494423
0.486704
0.470443
0.440670
0.391075
0.314398
0.203877
0.058916
-0.096823
-0.176136
-0.204021
-0.211841
-0.216879
-0.229796
-0.255919
-0.294980
-0.340641
-0.380422
-0.400139
-0.399128
-0.378887
-0.343722
-0.298968
-0.249678
-0.199980
-0.152866
-0.110257
-0.073180
-0.041995
-0.016597
0.003413
0.018614
0.029699
0.037446
0.042647
0.046251
0.048910
0.049477
0.047588
0.043469
0.037459
0.029879
0.020999
0.011101
0.000607
-0.009833
-0.019354
-0.027056
-0.031305
-0.032485
-0.031766
-0.029643
-0.026552
-0.022855
-0.018845
-0.014762
-0.010800
-0.007110
-0.003805
-0.000954
0.001409
0.003285
0.004697
0.005689
0.006314
0.006630
0.006693
0.006554
0.006256
0.005838
0.005328
0.004749
0.004119
0.003451
0.002754
0.002037
0.001303
0.000557
-0.000198
-0.000961
-0.001729
-0.002501
-0.003276
-0.004054
-0.004833
-0.005612
-0.006390
-0.007167
-0.007940
-0.008708
-0.009468
-0.010219
-0.010959
-0.011684
-0.012576
0.483744
0.483388
0.482250
0.479908
0.475562
0.467905
0.454995
0.434163
0.402038
0.354801
0.288865
0.202425
0.098964
-0.007201
-0.084012
-0.131373
-0.160691
-0.182771
-0.205465
-0.232924
-0.265121
-0.297736
-0.322920
-0.335460
-0.333844
-0.318431
-0.291771
-0.257394
-0.218891
-0.179373
-0.141224
-0.106074
-0.074885
-0.048084
-0.025700
-0.007490
0.006976
0.018243
0.026919
0.033623
0.039031
0.042735
0.044431
0.043870
0.041059
0.036159
0.029416
0.021154
0.011814
0.002013
-0.007449
-0.015681
-0.021396
-0.024746
-0.026282
-0.026303
-0.025119
-0.023015
-0.020247
-0.017049
-0.013636
-0.010202
-0.006915
-0.003903
-0.001256
0.000974
0.002773
0.004152
0.005143
0.005790
0.006142
0.006249
0.006157
0.005907
0.005532
0.005060
0.004515
0.003914
0.003269
0.002592
0.001890
0.001168
0.000431
-0.000318
-0.001077
-0.001843
-0.002616
-0.003394
-0.004177
-0.004963
-0.005752
-0.006542
-0.007334
-0.008124
-0.008912
-0.009695
-0.010470
-0.011232
-0.011980
-0.012895
0.472268
0.471373
0.468739
0.464054
0.456688
0.445621
0.429400
0.406148
0.373687
0.329849
0.273076
0.203483
0.124503
0.044438
-0.023300
-0.075040
-0.113966
-0.145251
-0.173457
-0.201220
-0.228653
-0.253349
-0.271539
-0.280712
-0.279503
-0.268162
-0.248297
-0.222268
-0.192613
-0.161646
-0.131230
-0.102702
-0.076899
-0.054233
-0.034788
-0.018416
-0.004810
0.006424
0.015711
0.023456
0.029845
0.034585
0.037492
0.038368
0.037133
0.033849
0.028718
0.022071
0.014384
0.006280
-0.001502
-0.008169
-0.013431
-0.017300
-0.019795
-0.021013
-0.021085
-0.020162
-0.018418
-0.016046
-0.013259
-0.010275
-0.007295
-0.004480
-0.001949
0.000227
0.002015
0.003416
0.004451
0.005156
0.005573
0.005747
0.005719
0.005527
0.005204
0.004778
0.004272
0.003702
0.003084
0.002428
0.001742
0.001033
0.000306
-0.000437
-0.001191
-0.001956
-0.002729
-0.003510
-0.004298
-0.005092
-0.005891
-0.006695
-0.007502
-0.008312
-0.009122
-0.009931
-0.010732
-0.011522
-0.012293
-0.013228
0.462435
0.461066
0.457182
0.450649
0.441046
0.427635
0.409373
0.384988
0.353119
0.312596
0.262873
0.204650
0.140587
0.075634
0.016278
-0.034238
-0.076125
-0.111363
-0.142157
-0.169915
-0.194746
-0.215455
-0.230396
-0.237903
-0.237330
-0.228986
-0.214027
-0.194145
-0.171207
-0.146963
-0.122861
-0.099955
-0.078907
-0.060034
-0.043387
-0.028837
-0.016153
-0.005059
0.004704
0.013304
0.020632
0.026501
0.030739
0.033161
0.033650
0.032217
0.029011
0.024313
0.018515
0.012100
0.005598
-0.000645
-0.006178
-0.010809
-0.014410
-0.016902
-0.018260
-0.018507
-0.017728
-0.016078
-0.013776
-0.011085
-0.008261
-0.005510
-0.002982
-0.000771
0.001077
0.002553
0.003673
0.004465
0.004969
0.005224
0.005270
0.005144
0.004878
0.004500
0.004032
0.003495
0.002903
0.002268
0.001599
0.000903
0.000185
-0.000551
-0.001302
-0.002065
-0.002839
-0.003623
-0.004416
-0.005217
-0.006027
-0.006844
-0.007669
-0.008500
-0.009335
-0.010173
-0.011007
-0.011831
-0.012631
-0.013580
0.455128
0.453237
0.448164
0.440069
0.428754
0.413708
0.394193
0.369355
0.338360
0.300607
0.256020
0.205393
0.150685
0.095014
0.042030
-0.005817
-0.047757
-0.084190
-0.115914
-0.143498
-0.166947
-0.185695
-0.198856
-0.205502
-0.205459
-0.199151
-0.187557
-0.172022
-0.154020
-0.134932
-0.115889
-0.097690
-0.080793
-0.065361
-0.051346
-0.038575
-0.026833
-0.015911
-0.005652
0.003850
0.012253
0.019391
0.025046
0.029004
0.031128
0.031396
0.029923
0.026936
0.022710
0.017567
0.011618
0.005546
-0.000343
-0.005769
-0.010470
-0.014215
-0.016819
-0.018170
-0.018252
-0.017167
-0.015148
-0.012536
-0.009678
-0.006838
-0.004194
-0.001867
0.000096
0.001684
0.002912
0.003806
0.004403
0.004742
0.004863
0.004800
0.004586
0.004250
0.003818
0.003309
0.002740
0.002123
0.001468
0.000783
0.000074
-0.000656
-0.001403
-0.002165
-0.002940
-0.003727
-0.004525
-0.005334
-0.006155
-0.006986
-0.007829
-0.008683
-0.009547
-0.010418
-0.011293
-0.012162
-0.013007
-0.013956
0.451322
0.448540
0.442032
0.432433
0.419709
0.403470
0.383152
0.358160
0.327977
0.292314
0.251299
0.205667
0.156880
0.107053
0.058551
0.013261
-0.027760
-0.064171
-0.095993
-0.123243
-0.145801
-0.163461
-0.175479
-0.181568
-0.181835
-0.176819
-0.167453
-0.154919
-0.140467
-0.125241
-0.110138
-0.095740
-0.082310
-0.069847
-0.058178
-0.047058
-0.036259
-0.025582
-0.014831
-0.004422
0.005197
0.013725
0.020819
0.026198
0.029699
0.031300
0.031135
0.029457
0.026431
0.021856
0.016395
0.010349
0.004043
-0.002171
-0.007918
-0.012824
-0.016562
-0.018895
-0.019701
-0.019004
-0.017025
-0.014245
-0.011171
-0.008122
-0.005279
-0.002800
-0.000713
0.000985
0.002311
0.003293
0.003967
0.004373
0.004556
0.004541
0.004366
0.004062
0.003655
0.003166
0.002613
0.002009
0.001365
0.000688
-0.000017
-0.000743
-0.001488
-0.002250
-0.003027
-0.003817
-0.004621
-0.005437
-0.006268
-0.007114
-0.007976
-0.008854
-0.009748
-0.010658
-0.011582
-0.012515
-0.013442
-0.014352
0.452701
0.447469
0.438799
0.427601
0.413659
0.396531
0.375658
0.350597
0.321008
0.286762
0.248062
0.205558
0.160398
0.114152
0.068569
0.025206
-0.014813
-0.050817
-0.082424
-0.109241
-0.131269
-0.148153
-0.159478
-0.165229
-0.165694
-0.161499
-0.153561
-0.142973
-0.130852
-0.118187
-0.105725
-0.093904
-0.082856
-0.072468
-0.062486
-0.052622
-0.042658
-0.032458
-0.021802
-0.010683
0.000097
0.009956
0.018331
0.024841
0.029300
0.031710
0.032283
0.031394
0.028643
0.024602
0.019421
0.013360
0.006755
0.000007
-0.006434
-0.012106
-0.016597
-0.019605
-0.020956
-0.020586
-0.018530
-0.015425
-0.012085
-0.008847
-0.005928
-0.003357
-0.001178
0.000596
0.001983
0.003015
0.003729
0.004166
0.004365
0.004372
0.004220
0.003937
0.003548
0.003075
0.002534
0.001939
0.001302
0.000629
-0.000073
-0.000798
-0.001544
-0.002307
-0.003086
-0.003881
-0.004690
-0.005516
-0.006359
-0.007218
-0.008097
-0.008997
-0.009919
-0.010866
-0.011841
-0.012847
-0.013898
-0.014697
0.463759
0.449693
0.437917
0.425334
0.410566
0.392810
0.371603
0.346514
0.317271
0.283801
0.246321
0.205411
0.162050
0.117558
0.073426
0.031070
-0.008371
-0.044110
-0.075682
-0.102880
-0.124983
-0.141627
-0.152745
-0.158433
-0.159047
-0.155237
-0.147899
-0.138076
-0.126822
-0.115061
-0.103483
-0.092486
-0.082177
-0.072430
-0.062983
-0.053555
-0.043940
-0.034075
-0.024073
-0.013418
-0.002153
0.008408
0.017421
0.024422
0.029218
0.031820
0.032390
0.031031
0.028435
0.024591
0.019623
0.013763
0.007328
0.000705
-0.005666
-0.011330
-0.015872
-0.018980
-0.020481
-0.020352
-0.018787
-0.015955
-0.012470
-0.009086
-0.006073
-0.003477
-0.001296
0.000480
0.001872
0.002911
0.003633
0.004080
0.004291
0.004307
0.004162
0.003886
0.003504
0.003035
0.002499
0.001907
0.001272
0.000601
-0.000099
-0.000825
-0.001573
-0.002338
-0.003119
-0.003916
-0.004729
-0.005558
-0.006406
-0.007273
-0.008161
-0.009074
-0.010013
-0.010982
-0.011984
-0.013024
-0.014103
-0.014797
