# vtk DataFile Version 3.0
Vector Field
ASCII
DATASET RECTILINEAR_GRID
DIMENSIONS 100 26 1
X_COORDINATES 100 double
0.050000 0.150000 0.250000 0.350000 0.450000 0.550000 0.650000 0.750000 0.850000 0.950000 1.050000 1.150000 1.250000 1.350000 1.450000 1.550000 1.650000 1.750000 1.850000 1.950000 2.050000 2.150000 2.250000 2.350000 2.450000 2.550000 2.650000 2.750000 2.850000 2.950000 3.050000 3.150000 3.250000 3.350000 3.450000 3.550000 3.650000 3.750000 3.850000 3.950000 4.050000 4.150000 4.250000 4.350000 4.450000 4.550000 4.650000 4.750000 4.850000 4.950000 5.050000 5.150000 5.250000 5.350000 5.450000 5.550000 5.650000 5.750000 5.850000 5.950000 6.050000 6.150000 6.250000 6.350000 6.450000 6.550000 6.650000 6.750000 6.850000 6.950000 7.050000 7.150000 7.250000 7.350000 7.450000 7.550000 7.650000 7.750000 7.850000 7.950000 8.050000 8.150000 8.250000 8.350000 8.450000 8.550000 8.650000 8.750000 8.850000 8.950000 9.050000 9.150000 9.250000 9.350000 9.450000 9.550000 9.650000 9.750000 9.850000 9.950000 
Y_COORDINATES 26 double
0.050000 0.150000 0.250000 0.350000 0.450000 0.550000 0.650000 0.750000 0.850000 0.950000 1.050000 1.150000 1.250000 1.350000 1.450000 1.550000 1.650000 1.750000 1.850000 1.950000 2.050000 2.150000 2.250000 2.350000 2.450000 2.550000 
Z_COORDINATES 1 double
0.0
POINT_DATA 2600
VECTORS Vektorfeld double
1.000736 -0.000736 0.0
1.004164 -0.002693 0.0
1.011706 -0.004848 0.0
1.023654 -0.007099 0.0
1.040121 -0.009369 0.0
1.061045 -0.011555 0.0
1.086115 -0.013516 0.0
1.114714 -0.015083 0.0
1.145886 -0.016089 0.0
1.178404 -0.016429 0.0
1.210938 -0.016105 0.0
1.242271 -0.015228 0.0
1.271449 -0.013950 0.0
1.297808 -0.012409 0.0
1.320910 -0.010694 0.0
1.340436 -0.008832 0.0
1.356073 -0.006804 0.0
1.367444 -0.004567 0.0
1.374104 -0.002093 0.0
1.375601 0.000595 0.0
1.371546 0.003460 0.0
1.361685 0.006401 0.0
1.346002 0.009282 0.0
1.324759 0.011960 0.0
1.298498 0.014301 0.0
1.268001 0.016195 0.0
1.234242 0.017564 0.0
1.198321 0.018356 0.0
1.161416 0.018548 0.0
1.124735 0.018133 0.0
1.089485 0.017117 0.0
1.056855 0.015514 0.0
1.027997 0.013344 0.0
1.004027 0.010625 0.0
0.986048 0.007354 0.0
0.975186 0.003509 0.0
0.972524 -0.000846 0.0
0.978765 -0.005395 0.0
0.994020 -0.009860 0.0
1.017795 -0.013915 0.0
1.048860 -0.017150 0.0
1.085130 -0.019120 0.0
1.123700 -0.019449 0.0
1.161091 -0.017942 0.0
1.193718 -0.014686 0.0
1.218495 -0.010091 0.0
1.233412 -0.004827 0.0
1.237815 0.000424 0.0
1.232031 0.005360 0.0
1.216908 0.009763 0.0
1.193669 0.013476 0.0
1.163777 0.016415 0.0
1.128804 0.018558 0.0
1.090322 0.019924 0.0
1.049842 0.020555 0.0
1.008797 0.020490 0.0
0.968550 0.019757 0.0
0.930429 0.018364 0.0
0.895757 0.016308 0.0
0.865843 0.013606 0.0
0.841910 0.010327 0.0
0.824954 0.006630 0.0
0.815545 0.002779 0.0
0.813582 -0.000817 0.0
0.818181 -0.003781 0.0
0.828158 -0.006197 0.0
0.842610 -0.008254 0.0
0.861008 -0.010144 0.0
0.883172 -0.012021 0.0
0.909168 -0.013976 0.0
0.939153 -0.016009 0.0
0.973173 -0.018012 0.0
1.010958 -0.019773 0.0
1.051728 -0.020997 0.0
1.094068 -0.021343 0.0
1.135872 -0.020462 0.0
1.174396 -0.018062 0.0
1.206472 -0.014015 0.0
1.229003 -0.008516 0.0
1.239710 -0.002191 0.0
1.237680 0.004221 0.0
1.223057 0.010401 0.0
1.196588 0.016068 0.0
1.159648 0.020872 0.0
1.114342 0.024434 0.0
1.063544 0.026364 0.0
1.010852 0.026328 0.0
0.960345 0.024178 0.0
0.916065 0.020102 0.0
0.881277 0.014685 0.0
0.857821 0.008770 0.0
0.845825 0.003226 0.0
0.843768 -0.001169 0.0
0.848919 -0.003982 0.0
0.858408 -0.005506 0.0
0.869976 -0.006062 0.0
0.881913 -0.005874 0.0
0.892824 -0.005037 0.0
0.901405 -0.003544 0.0
0.905135 -0.000185 0.0
1.001281 -0.002753 0.0
1.006101 -0.008925 0.0
1.015431 -0.015489 0.0
1.029324 -0.022300 0.0
1.047870 -0.029181 0.0
1.071047 -0.035842 0.0
1.098603 -0.041855 0.0
1.129940 -0.046679 0.0
1.164045 -0.049771 0.0
1.199533 -0.050754 0.0
1.234874 -0.049655 0.0
1.268719 -0.046857 0.0
1.300100 -0.042879 0.0
1.328434 -0.038172 0.0
1.353409 -0.033009 0.0
1.374831 -0.027465 0.0
1.392481 -0.021458 0.0
1.406024 -0.014828 0.0
1.414984 -0.007452 0.0
1.418780 0.000661 0.0
1.416869 0.009361 0.0
1.408911 0.018318 0.0
1.394853 0.027105 0.0
1.374965 0.035268 0.0
1.349828 0.042392 0.0
1.320288 0.048142 0.0
1.287382 0.052283 0.0
1.252267 0.054672 0.0
1.216166 0.055239 0.0
1.180319 0.053971 0.0
1.145957 0.050891 0.0
1.114275 0.046051 0.0
1.086425 0.039516 0.0
1.063486 0.031361 0.0
1.046426 0.021657 0.0
1.036007 0.010488 0.0
1.032778 -0.001935 0.0
1.037363 -0.015133 0.0
1.050445 -0.028459 0.0
1.072273 -0.040920 0.0
1.102256 -0.051194 0.0
1.138766 -0.057857 0.0
1.179163 -0.059679 0.0
1.220008 -0.055948 0.0
1.257479 -0.046779 0.0
1.287978 -0.033273 0.0
1.308765 -0.017349 0.0
1.318399 -0.001090 0.0
1.316867 0.014188 0.0
1.305172 0.027752 0.0
1.284763 0.039135 0.0
1.257302 0.048110 0.0
1.224504 0.054634 0.0
1.188048 0.058787 0.0
1.149521 0.060700 0.0
1.110403 0.060508 0.0
1.072071 0.058318 0.0
1.035797 0.054199 0.0
1.002715 0.048229 0.0
0.973742 0.040572 0.0
0.949462 0.031572 0.0
0.930019 0.021784 0.0
0.915139 0.011915 0.0
0.904447 0.002702 0.0
0.897876 -0.005327 0.0
0.895450 -0.012203 0.0
0.897055 -0.018304 0.0
0.902644 -0.024081 0.0
0.912353 -0.029957 0.0
0.926536 -0.036218 0.0
0.945665 -0.042880 0.0
0.970125 -0.049622 0.0
0.999976 -0.055799 0.0
1.034772 -0.060538 0.0
1.073487 -0.062857 0.0
1.114520 -0.061785 0.0
1.155757 -0.056500 0.0
1.194630 -0.046526 0.0
1.228127 -0.032032 0.0
1.252872 -0.014126 0.0
1.265896 0.005162 0.0
1.266128 0.023851 0.0
1.254315 0.040901 0.0
1.232003 0.055291 0.0
1.201345 0.065979 0.0
1.164978 0.071983 0.0
1.125831 0.072548 0.0
1.086850 0.067446 0.0
1.050657 0.057308 0.0
1.019217 0.043707 0.0
0.993606 0.028815 0.0
0.973997 0.014786 0.0
0.960080 0.003246 0.0
0.951529 -0.004998 0.0
0.947592 -0.010042 0.0
0.946916 -0.012419 0.0
0.948088 -0.012626 0.0
0.949826 -0.010933 0.0
0.950970 -0.007373 0.0
0.949998 0.000887 0.0
1.001163 -0.005197 0.0
1.005779 -0.015916 0.0
1.015031 -0.027079 0.0
1.029087 -0.038659 0.0
1.048180 -0.050460 0.0
1.072477 -0.062037 0.0
1.101901 -0.072641 0.0
1.135924 -0.081253 0.0
1.173405 -0.086783 0.0
1.212520 -0.088345 0.0
1.251150 -0.086034 0.0
1.287567 -0.080740 0.0
1.320746 -0.073556 0.0
1.350275 -0.065357 0.0
1.376107 -0.056630 0.0
1.398300 -0.047459 0.0
1.416799 -0.037614 0.0
1.431299 -0.026715 0.0
1.441219 -0.014445 0.0
1.445835 -0.000757 0.0
1.444477 0.014049 0.0
1.436687 0.029378 0.0
1.422347 0.044444 0.0
1.401742 0.058422 0.0
1.375540 0.070576 0.0
1.344696 0.080341 0.0
1.310352 0.087335 0.0
1.273741 0.091345 0.0
1.236124 0.092285 0.0
1.198737 0.090158 0.0
1.162774 0.085030 0.0
1.129360 0.077007 0.0
1.099548 0.066223 0.0
1.074306 0.052835 0.0
1.054539 0.037010 0.0
1.041166 0.018927 0.0
1.035228 -0.001208 0.0
1.037820 -0.023037 0.0
1.049788 -0.045604 0.0
1.071347 -0.067162 0.0
1.101846 -0.085434 0.0
1.139777 -0.098058 0.0
1.182854 -0.102951 0.0
1.227990 -0.098656 0.0
1.271268 -0.084820 0.0
1.308261 -0.062723 0.0
1.334958 -0.035383 0.0
1.349058 -0.006790 0.0
1.350618 0.019860 0.0
1.341175 0.043219 0.0
1.322645 0.062607 0.0
1.296992 0.077753 0.0
1.266089 0.088691 0.0
1.231641 0.095634 0.0
1.195150 0.098870 0.0
1.157921 0.098685 0.0
1.121070 0.095324 0.0
1.085526 0.089010 0.0
1.052016 0.080010 0.0
1.021045 0.068734 0.0
0.992924 0.055812 0.0
0.967839 0.042071 0.0
0.945951 0.028395 0.0
0.927394 0.015470 0.0
0.912210 0.003659 0.0
0.900389 -0.006943 0.0
0.891922 -0.016701 0.0
0.886951 -0.026301 0.0
0.885992 -0.036488 0.0
0.889916 -0.047795 0.0
0.899716 -0.060231 0.0
0.916124 -0.073139 0.0
0.939318 -0.085325 0.0
0.968814 -0.095304 0.0
1.003543 -0.101534 0.0
1.041986 -0.102582 0.0
1.082305 -0.097259 0.0
1.122440 -0.084774 0.0
1.160139 -0.064980 0.0
1.192947 -0.038731 0.0
1.218090 -0.008401 0.0
1.233121 0.022151 0.0
1.237314 0.050222 0.0
1.231485 0.074111 0.0
1.217062 0.092240 0.0
1.195876 0.103275 0.0
1.169921 0.106358 0.0
1.141110 0.101428 0.0
1.111124 0.089505 0.0
1.081393 0.072681 0.0
1.053169 0.053675 0.0
1.027581 0.035123 0.0
1.005475 0.018932 0.0
0.987196 0.006145 0.0
0.972677 -0.002728 0.0
0.961421 -0.007803 0.0
0.952526 -0.009520 0.0
0.945070 -0.008321 0.0
0.938361 -0.004420 0.0
0.932245 0.005023 0.0
1.001105 -0.007465 0.0
1.005566 -0.022726 0.0
1.014672 -0.038626 0.0
1.028795 -0.055291 0.0
1.048452 -0.072579 0.0
1.074169 -0.089932 0.0
1.106249 -0.106250 0.0
1.144398 -0.119816 0.0
1.187387 -0.128690 0.0
1.232499 -0.130665 0.0
1.276274 -0.126118 0.0
1.316278 -0.117076 0.0
1.351534 -0.105654 0.0
1.382087 -0.093341 0.0
1.408460 -0.080851 0.0
1.431222 -0.068192 0.0
1.450667 -0.054825 0.0
1.466586 -0.039924 0.0
1.478191 -0.022762 0.0
1.484311 -0.003176 0.0
1.483821 0.018316 0.0
1.475957 0.040764 0.0
1.460476 0.062880 0.0
1.437730 0.083336 0.0
1.408588 0.101006 0.0
1.374264 0.115079 0.0
1.336144 0.125061 0.0
1.295662 0.130713 0.0
1.254211 0.131985 0.0
1.213110 0.128945 0.0
1.173583 0.121733 0.0
1.136769 0.110532 0.0
1.103716 0.095563 0.0
1.075395 0.077058 0.0
1.052724 0.055225 0.0
1.036628 0.030181 0.0
1.028100 0.002005 0.0
1.028071 -0.028813 0.0
1.037078 -0.060804 0.0
1.055018 -0.091461 0.0
1.081250 -0.117866 0.0
1.114958 -0.137264 0.0
1.155244 -0.147108 0.0
1.200698 -0.145088 0.0
1.248693 -0.129662 0.0
1.294919 -0.101101 0.0
1.333684 -0.062467 0.0
1.359475 -0.019597 0.0
1.369700 0.020882 0.0
1.365577 0.055762 0.0
1.349947 0.084223 0.0
1.325648 0.106091 0.0
1.295252 0.121652 0.0
1.260937 0.131436 0.0
1.224450 0.136046 0.0
1.187136 0.136052 0.0
1.149991 0.131952 0.0
1.113722 0.124195 0.0
1.078805 0.113253 0.0
1.045557 0.099710 0.0
1.014212 0.084302 0.0
0.984988 0.067890 0.0
0.958077 0.051375 0.0
0.933562 0.035562 0.0
0.911352 0.020962 0.0
0.891300 0.007627 0.0
0.873528 -0.005031 0.0
0.858745 -0.018217 0.0
0.848317 -0.033185 0.0
0.843936 -0.050641 0.0
0.847018 -0.070267 0.0
0.858211 -0.090705 0.0
0.877267 -0.110009 0.0
0.903254 -0.126104 0.0
0.934849 -0.137059 0.0
0.970549 -0.141199 0.0
1.008767 -0.137180 0.0
1.047873 -0.124095 0.0
1.086199 -0.101685 0.0
1.122005 -0.070640 0.0
1.153371 -0.032999 0.0
1.177853 0.007236 0.0
1.193606 0.045190 0.0
1.200400 0.078178 0.0
1.198879 0.104118 0.0
1.190057 0.121404 0.0
1.175115 0.129127 0.0
1.155249 0.127336 0.0
1.131637 0.117195 0.0
1.105500 0.100861 0.0
1.078163 0.081055 0.0
1.050997 0.060498 0.0
1.025191 0.041469 0.0
1.001498 0.025580 0.0
0.980118 0.013737 0.0
0.960869 0.006236 0.0
0.943460 0.002745 0.0
0.927718 0.002611 0.0
0.913809 0.005266 0.0
0.902973 0.012288 0.0
1.001025 -0.009595 0.0
1.005205 -0.029238 0.0
1.013879 -0.049893 0.0
1.027675 -0.071943 0.0
1.047522 -0.095431 0.0
1.074544 -0.119819 0.0
1.109783 -0.143683 0.0
1.153558 -0.164307 0.0
1.204997 -0.178628 0.0
1.259423 -0.180265 0.0
1.310139 -0.171009 0.0
1.353667 -0.155717 0.0
1.389683 -0.138285 0.0
1.419378 -0.120959 0.0
1.444380 -0.104609 0.0
1.466187 -0.089004 0.0
1.485779 -0.073050 0.0
1.503270 -0.055110 0.0
1.517644 -0.033556 0.0
1.526860 -0.007718 0.0
1.528740 0.021468 0.0
1.521824 0.052391 0.0
1.505604 0.082955 0.0
1.480529 0.111081 0.0
1.447795 0.135137 0.0
1.409010 0.154057 0.0
1.365932 0.167281 0.0
1.320279 0.174627 0.0
1.273652 0.176149 0.0
1.227504 0.172031 0.0
1.183152 0.162524 0.0
1.141799 0.147908 0.0
1.104547 0.128491 0.0
1.072387 0.104609 0.0
1.046142 0.076591 0.0
1.026382 0.044671 0.0
1.013384 0.009041 0.0
1.007197 -0.029634 0.0
1.007627 -0.069421 0.0
1.014269 -0.107425 0.0
1.027044 -0.140910 0.0
1.046793 -0.167677 0.0
1.075010 -0.185197 0.0
1.112708 -0.190150 0.0
1.159252 -0.179139 0.0
1.211640 -0.150238 0.0
1.264262 -0.104715 0.0
1.309333 -0.048211 0.0
1.339088 0.009516 0.0
1.350812 0.059528 0.0
1.346973 0.099925 0.0
1.331028 0.130634 0.0
1.306233 0.152299 0.0
1.275424 0.165914 0.0
1.240908 0.172570 0.0
1.204456 0.173294 0.0
1.167336 0.168976 0.0
1.130395 0.160382 0.0
1.094159 0.148218 0.0
1.058951 0.133202 0.0
1.024979 0.116127 0.0
0.992369 0.097899 0.0
0.961113 0.079533 0.0
0.931027 0.062005 0.0
0.901875 0.045881 0.0
0.873765 0.030871 0.0
0.847590 0.015671 0.0
0.825099 -0.001645 0.0
0.808512 -0.022741 0.0
0.799836 -0.048029 0.0
0.800128 -0.076254 0.0
0.809235 -0.105018 0.0
0.826155 -0.131672 0.0
0.849550 -0.153822 0.0
0.878060 -0.169445 0.0
0.910405 -0.176857 0.0
0.945372 -0.174707 0.0
0.981773 -0.162074 0.0
1.018408 -0.138666 0.0
1.054031 -0.105089 0.0
1.087284 -0.063168 0.0
1.116482 -0.016276 0.0
1.139471 0.029961 0.0
1.154919 0.071165 0.0
1.162779 0.104791 0.0
1.163375 0.128956 0.0
1.157253 0.142639 0.0
1.145093 0.145850 0.0
1.127707 0.139679 0.0
1.106083 0.126139 0.0
1.081384 0.107813 0.0
1.054839 0.087451 0.0
1.027543 0.067618 0.0
1.000284 0.050383 0.0
0.973538 0.037061 0.0
0.947656 0.028043 0.0
0.923145 0.022859 0.0
0.900830 0.020555 0.0
0.881818 0.020243 0.0
0.867860 0.022105 0.0
1.000879 -0.011499 0.0
1.004497 -0.035131 0.0
1.012156 -0.060333 0.0
1.024760 -0.087902 0.0
1.043748 -0.118308 0.0
1.071119 -0.151334 0.0
1.109232 -0.185519 0.0
1.159841 -0.216854 0.0
1.224204 -0.241883 0.0
1.292569 -0.239802 0.0
1.350235 -0.219854 0.0
1.393628 -0.193794 0.0
1.425231 -0.167826 0.0
1.448668 -0.144549 0.0
1.467292 -0.124645 0.0
1.483930 -0.107413 0.0
1.500676 -0.090978 0.0
1.518501 -0.072497 0.0
1.536602 -0.048643 0.0
1.551783 -0.017028 0.0
1.559526 0.021156 0.0
1.556587 0.062559 0.0
1.541928 0.103666 0.0
1.516156 0.141217 0.0
1.480966 0.172927 0.0
1.438514 0.197503 0.0
1.391006 0.214422 0.0
1.340486 0.223659 0.0
1.288770 0.225459 0.0
1.237456 0.220183 0.0
1.187965 0.208215 0.0
1.141598 0.189938 0.0
1.099554 0.165757 0.0
1.062877 0.136181 0.0
1.032223 0.101919 0.0
1.007440 0.063885 0.0
0.987263 0.023003 0.0
0.969759 -0.019905 0.0
0.953741 -0.063562 0.0
0.939580 -0.105765 0.0
0.929604 -0.145369 0.0
0.928101 -0.181464 0.0
0.939441 -0.210966 0.0
0.965925 -0.228563 0.0
1.007154 -0.228499 0.0
1.060457 -0.206570 0.0
1.121254 -0.161802 0.0
1.182916 -0.097857 0.0
1.236456 -0.024134 0.0
1.273208 0.044701 0.0
1.291047 0.100751 0.0
1.293079 0.143722 0.0
1.282607 0.174478 0.0
1.262722 0.194429 0.0
1.236130 0.205162 0.0
1.205067 0.208217 0.0
1.171274 0.204966 0.0
1.136020 0.196587 0.0
1.100175 0.184094 0.0
1.064297 0.168413 0.0
1.028697 0.150488 0.0
0.993439 0.131406 0.0
0.958316 0.112405 0.0
0.922976 0.094560 0.0
0.887352 0.078101 0.0
0.852291 0.061821 0.0
0.819908 0.043279 0.0
0.793159 0.019987 0.0
0.774631 -0.009257 0.0
0.765561 -0.043768 0.0
0.765787 -0.081032 0.0
0.774212 -0.117772 0.0
0.789406 -0.151033 0.0
0.810015 -0.178466 0.0
0.834906 -0.198203 0.0
0.863147 -0.208685 0.0
0.893921 -0.208621 0.0
0.926447 -0.197087 0.0
0.959913 -0.173754 0.0
0.993444 -0.139156 0.0
1.026056 -0.094966 0.0
1.056568 -0.044189 0.0
1.083152 0.008301 0.0
1.103980 0.056549 0.0
1.118220 0.097307 0.0
1.125671 0.128394 0.0
1.126393 0.148601 0.0
1.120662 0.157780 0.0
1.108954 0.156841 0.0
1.091966 0.147589 0.0
1.070565 0.132462 0.0
1.045691 0.114221 0.0
1.018235 0.095600 0.0
0.989006 0.078888 0.0
0.958829 0.065480 0.0
0.928720 0.055615 0.0
0.899989 0.048529 0.0
0.874163 0.043027 0.0
0.852749 0.038198 0.0
0.837357 0.033499 0.0
1.000628 -0.013006 0.0
1.003250 -0.039863 0.0
1.008977 -0.068988 0.0
1.018909 -0.101782 0.0
1.034976 -0.139484 0.0
1.060241 -0.182793 0.0
1.099132 -0.231065 0.0
1.156458 -0.279243 0.0
1.240760 -0.328160 0.0
1.327914 -0.309044 0.0
1.385306 -0.265670 0.0
1.416706 -0.222772 0.0
1.432420 -0.186166 0.0
1.439563 -0.156789 0.0
1.443009 -0.134476 0.0
1.446698 -0.117909 0.0
1.453958 -0.104487 0.0
1.467344 -0.090199 0.0
1.487750 -0.069448 0.0
1.512350 -0.036005 0.0
1.532773 0.011968 0.0
1.540817 0.066643 0.0
1.533881 0.121177 0.0
1.512874 0.170485 0.0
1.480193 0.211528 0.0
1.438628 0.242918 0.0
1.390801 0.264343 0.0
1.338988 0.276072 0.0
1.285132 0.278619 0.0
1.230916 0.272554 0.0
1.177844 0.258406 0.0
1.127319 0.236640 0.0
1.080685 0.207734 0.0
1.039130 0.172437 0.0
1.003196 0.132251 0.0
0.971785 0.089745 0.0
0.941423 0.047683 0.0
0.907226 0.007117 0.0
0.866581 -0.033920 0.0
0.823883 -0.078548 0.0
0.789224 -0.127952 0.0
0.771733 -0.179888 0.0
0.775133 -0.227282 0.0
0.798109 -0.261707 0.0
0.837421 -0.275896 0.0
0.889735 -0.264789 0.0
0.951720 -0.226365 0.0
1.019406 -0.162641 0.0
1.087217 -0.080701 0.0
1.146017 0.005717 0.0
1.187940 0.079973 0.0
1.212177 0.138230 0.0
1.221320 0.181300 0.0
1.218044 0.210768 0.0
1.204926 0.228534 0.0
1.184302 0.236532 0.0
1.158182 0.236564 0.0
1.128201 0.230224 0.0
1.095609 0.218894 0.0
1.061287 0.203813 0.0
1.025742 0.186233 0.0
0.989087 0.167574 0.0
0.951128 0.149319 0.0
0.911737 0.132376 0.0
0.871538 0.116109 0.0
0.832474 0.097938 0.0
0.797659 0.074361 0.0
0.770318 0.042996 0.0
0.752521 0.004060 0.0
0.744504 -0.039999 0.0
0.745117 -0.085640 0.0
0.752774 -0.129247 0.0
0.765990 -0.167967 0.0
0.783562 -0.199712 0.0
0.804585 -0.222871 0.0
0.828402 -0.236075 0.0
0.854519 -0.238122 0.0
0.882498 -0.228090 0.0
0.911867 -0.205586 0.0
0.942062 -0.171049 0.0
0.972379 -0.126003 0.0
1.001933 -0.073217 0.0
1.029471 -0.016793 0.0
1.053118 0.037168 0.0
1.071359 0.084206 0.0
1.083577 0.121826 0.0
1.089451 0.148571 0.0
1.088916 0.164077 0.0
1.082138 0.169028 0.0
1.069504 0.165024 0.0
1.051567 0.154365 0.0
1.028991 0.139769 0.0
1.002527 0.123973 0.0
0.973079 0.109192 0.0
0.941834 0.096599 0.0
0.910328 0.086110 0.0
0.880368 0.076724 0.0
0.853767 0.067259 0.0
0.832030 0.057117 0.0
0.816430 0.045571 0.0
1.000249 -0.013884 0.0
1.001333 -0.042691 0.0
1.003928 -0.074482 0.0
1.009098 -0.111389 0.0
1.018943 -0.155789 0.0
1.037354 -0.210164 0.0
1.071278 -0.276510 0.0
1.131177 -0.351022 0.0
1.244178 -0.453685 0.0
1.348710 -0.375204 0.0
1.380457 -0.288650 0.0
1.375910 -0.226645 0.0
1.359044 -0.181141 0.0
1.337722 -0.147635 0.0
1.315744 -0.125098 0.0
1.296701 -0.111933 0.0
1.284398 -0.105419 0.0
1.283282 -0.101538 0.0
1.297989 -0.093222 0.0
1.330381 -0.069222 0.0
1.372894 -0.017751 0.0
1.407235 0.053976 0.0
1.422042 0.125973 0.0
1.418657 0.190082 0.0
1.400570 0.242699 0.0
1.371164 0.282719 0.0
1.333236 0.310298 0.0
1.289060 0.326107 0.0
1.240548 0.330951 0.0
1.189389 0.325596 0.0
1.137136 0.310689 0.0
1.085278 0.286741 0.0
1.035315 0.254229 0.0
0.988671 0.214140 0.0
0.945634 0.169519 0.0
0.902825 0.126696 0.0
0.852465 0.091455 0.0
0.789157 0.060850 0.0
0.719257 0.022891 0.0
0.659566 -0.032971 0.0
0.625320 -0.104625 0.0
0.618918 -0.179322 0.0
0.633081 -0.245412 0.0
0.661178 -0.294650 0.0
0.699969 -0.321057 0.0
0.748249 -0.320222 0.0
0.805183 -0.289851 0.0
0.869291 -0.230948 0.0
0.937851 -0.148765 0.0
1.006103 -0.053270 0.0
1.065007 0.038132 0.0
1.108173 0.112668 0.0
1.135952 0.169940 0.0
1.149989 0.211366 0.0
1.152186 0.238857 0.0
1.144517 0.254502 0.0
1.128877 0.260354 0.0
1.106972 0.258321 0.0
1.080232 0.250128 0.0
1.049744 0.237389 0.0
1.016178 0.221769 0.0
0.979796 0.205075 0.0
0.940691 0.188883 0.0
0.899365 0.173528 0.0
0.857427 0.157094 0.0
0.817782 0.135661 0.0
0.783882 0.105352 0.0
0.758426 0.064802 0.0
0.742474 0.016003 0.0
0.735517 -0.036968 0.0
0.736150 -0.089915 0.0
0.742783 -0.139262 0.0
0.754027 -0.182412 0.0
0.768765 -0.217578 0.0
0.786181 -0.243445 0.0
0.805756 -0.258893 0.0
0.827211 -0.262876 0.0
0.850400 -0.254504 0.0
0.875170 -0.233313 0.0
0.901258 -0.199604 0.0
0.928224 -0.154730 0.0
0.955417 -0.101237 0.0
0.981938 -0.042833 0.0
1.006225 0.015275 0.0
1.026541 0.067542 0.0
1.041799 0.111015 0.0
1.051359 0.143948 0.0
1.054865 0.165730 0.0
1.052201 0.176816 0.0
1.043467 0.178605 0.0
1.028944 0.173243 0.0
1.009093 0.163317 0.0
0.984607 0.151375 0.0
0.956514 0.139329 0.0
0.926266 0.127956 0.0
0.895679 0.116845 0.0
0.866717 0.104912 0.0
0.841161 0.091228 0.0
0.820338 0.075708 0.0
0.805252 0.057666 0.0
0.999748 -0.013881 0.0
0.998769 -0.042798 0.0
0.997007 -0.075209 0.0
0.995070 -0.113895 0.0
0.994432 -0.162490 0.0
0.998555 -0.225997 0.0
1.015503 -0.311549 0.0
1.062919 -0.423297 0.0
1.203016 -0.634507 0.0
1.298556 -0.394453 0.0
1.249769 -0.252360 0.0
1.178480 -0.187098 0.0
1.117439 -0.142781 0.0
1.062317 -0.109552 0.0
1.010332 -0.089216 0.0
0.962970 -0.081410 0.0
0.923894 -0.084563 0.0
0.900495 -0.097880 0.0
0.903452 -0.114545 0.0
0.940133 -0.116971 0.0
1.008446 -0.080828 0.0
1.087845 0.003311 0.0
1.149779 0.099898 0.0
1.185927 0.183395 0.0
1.202360 0.251040 0.0
1.203184 0.302959 0.0
1.191107 0.340063 0.0
1.168202 0.363421 0.0
1.136310 0.374041 0.0
1.097163 0.372813 0.0
1.052387 0.360501 0.0
1.003363 0.337812 0.0
0.950615 0.305868 0.0
0.892116 0.267645 0.0
0.821879 0.229289 0.0
0.734656 0.196958 0.0
0.637534 0.168675 0.0
0.552861 0.131611 0.0
0.502465 0.072426 0.0
0.490193 -0.010542 0.0
0.502347 -0.104962 0.0
0.524380 -0.194616 0.0
0.550349 -0.270249 0.0
0.579375 -0.326934 0.0
0.612611 -0.360800 0.0
0.651910 -0.368057 0.0
0.698803 -0.345842 0.0
0.753676 -0.293939 0.0
0.815435 -0.216094 0.0
0.881447 -0.120206 0.0
0.946302 -0.018692 0.0
1.001801 0.070828 0.0
1.043515 0.142287 0.0
1.071890 0.196607 0.0
1.087901 0.235407 0.0
1.092864 0.260658 0.0
1.088256 0.274445 0.0
1.075563 0.278828 0.0
1.056139 0.275785 0.0
1.031076 0.267283 0.0
1.001117 0.255399 0.0
0.966729 0.242214 0.0
0.928486 0.229093 0.0
0.887699 0.215431 0.0
0.846871 0.197958 0.0
0.809385 0.171929 0.0
0.778411 0.133957 0.0
0.755811 0.084254 0.0
0.741867 0.026448 0.0
0.735790 -0.034380 0.0
0.736319 -0.093665 0.0
0.742082 -0.147908 0.0
0.751779 -0.194705 0.0
0.764279 -0.232523 0.0
0.778724 -0.260361 0.0
0.794599 -0.277427 0.0
0.811739 -0.282937 0.0
0.830227 -0.276119 0.0
0.850217 -0.256459 0.0
0.871763 -0.224091 0.0
0.894699 -0.180145 0.0
0.918601 -0.126919 0.0
0.942763 -0.067834 0.0
0.966055 -0.007303 0.0
0.986843 0.049017 0.0
1.003661 0.097464 0.0
1.015613 0.135987 0.0
1.022088 0.163711 0.0
1.022722 0.180865 0.0
1.017368 0.188644 0.0
1.006098 0.188997 0.0
0.989242 0.184270 0.0
0.967478 0.176673 0.0
0.941926 0.167676 0.0
0.914154 0.157630 0.0
0.886028 0.145884 0.0
0.859426 0.131436 0.0
0.835941 0.113744 0.0
0.816695 0.093262 0.0
0.802540 0.069352 0.0
0.999181 -0.012810 0.0
0.995845 -0.039553 0.0
0.988968 -0.069816 0.0
0.978217 -0.106600 0.0
0.963297 -0.154228 0.0
0.944584 -0.219669 0.0
0.925345 -0.315586 0.0
0.920091 -0.461422 0.0
1.013004 -0.829392 0.0
1.009493 -0.192111 0.0
0.820640 -0.106902 0.0
0.675255 -0.105211 0.0
0.590620 -0.078992 0.0
0.520218 -0.047817 0.0
0.450149 -0.028897 0.0
0.390742 -0.034960 0.0
0.359583 -0.060777 0.0
0.364124 -0.102809 0.0
0.403650 -0.152099 0.0
0.473572 -0.186021 0.0
0.567306 -0.173824 0.0
0.678223 -0.094009 0.0
0.784898 0.028608 0.0
0.865959 0.137475 0.0
0.922846 0.223640 0.0
0.961116 0.291265 0.0
0.982582 0.342370 0.0
0.988430 0.378172 0.0
0.979983 0.399629 0.0
0.958705 0.407650 0.0
0.925902 0.403243 0.0
0.882051 0.387946 0.0
0.825574 0.364957 0.0
0.752716 0.339914 0.0
0.662600 0.317372 0.0
0.566103 0.292595 0.0
0.485538 0.250725 0.0
0.439541 0.180231 0.0
0.429940 0.083803 0.0
0.444934 -0.024641 0.0
0.470651 -0.128733 0.0
0.498396 -0.220622 0.0
0.524767 -0.296584 0.0
0.549413 -0.354272 0.0
0.573978 -0.391264 0.0
0.601428 -0.404343 0.0
0.635033 -0.390053 0.0
0.677040 -0.346609 0.0
0.727790 -0.275933 0.0
0.785701 -0.184290 0.0
0.847621 -0.081383 0.0
0.906936 0.018705 0.0
0.956846 0.102786 0.0
0.995078 0.169500 0.0
1.021654 0.219927 0.0
1.037135 0.255695 0.0
1.042430 0.278721 0.0
1.038622 0.291054 0.0
1.026791 0.294814 0.0
1.007870 0.292238 0.0
0.982588 0.285685 0.0
0.951637 0.277266 0.0
0.916125 0.267796 0.0
0.878096 0.255544 0.0
0.840602 0.236166 0.0
0.807006 0.204803 0.0
0.779878 0.159185 0.0
0.760362 0.101142 0.0
0.748378 0.035488 0.0
0.743211 -0.032176 0.0
0.743875 -0.097063 0.0
0.749210 -0.155608 0.0
0.757967 -0.205458 0.0
0.768952 -0.245256 0.0
0.781193 -0.274313 0.0
0.794084 -0.292242 0.0
0.807468 -0.298647 0.0
0.821575 -0.293003 0.0
0.836835 -0.274825 0.0
0.853637 -0.244072 0.0
0.872129 -0.201592 0.0
0.892131 -0.149377 0.0
0.913131 -0.090537 0.0
0.934287 -0.029048 0.0
0.954196 0.030065 0.0
0.971318 0.082476 0.0
0.984527 0.125813 0.0
0.992997 0.158939 0.0
0.996152 0.181848 0.0
0.993652 0.195514 0.0
0.985417 0.201632 0.0
0.971695 0.202213 0.0
0.953155 0.199034 0.0
0.930935 0.193088 0.0
0.906576 0.184350 0.0
0.881816 0.172050 0.0
0.858310 0.155378 0.0
0.837407 0.134189 0.0
0.820068 0.109402 0.0
0.807092 0.080344 0.0
0.998655 -0.010646 0.0
0.993120 -0.032847 0.0
0.981406 -0.057932 0.0
0.962059 -0.088385 0.0
0.932369 -0.127832 0.0
0.887342 -0.182326 0.0
0.817115 -0.263464 0.0
0.703293 -0.394469 0.0
0.316270 -0.701723 0.0
-0.457954 0.243504 0.0
-0.457954 0.000000 0.0
-0.039258 -0.028028 0.0
-0.082693 -0.039333 0.0
-0.073649 -0.026118 0.0
-0.032341 -0.021836 0.0
0.017659 -0.032613 0.0
0.050739 -0.065046 0.0
0.072089 -0.124432 0.0
0.100191 -0.198103 0.0
0.148614 -0.258361 0.0
0.223166 -0.269770 0.0
0.322364 -0.208178 0.0
0.438192 -0.079726 0.0
0.546900 0.056041 0.0
0.633360 0.161727 0.0
0.701551 0.246715 0.0
0.751927 0.315078 0.0
0.783950 0.367594 0.0
0.797805 0.404798 0.0
0.794019 0.427545 0.0
0.772782 0.437387 0.0
0.733192 0.437243 0.0
0.673685 0.431643 0.0
0.596140 0.423632 0.0
0.512262 0.407647 0.0
0.442802 0.368278 0.0
0.404855 0.293554 0.0
0.400657 0.187597 0.0
0.420574 0.066122 0.0
0.452043 -0.053423 0.0
0.485678 -0.159303 0.0
0.516622 -0.248741 0.0
0.542609 -0.320823 0.0
0.563127 -0.375197 0.0
0.579457 -0.411233 0.0
0.594732 -0.427098 0.0
0.613390 -0.419561 0.0
0.639710 -0.385429 0.0
0.676060 -0.324212 0.0
0.722100 -0.239962 0.0
0.775276 -0.140806 0.0
0.831375 -0.037285 0.0
0.883668 0.056574 0.0
0.927064 0.134083 0.0
0.960433 0.195400 0.0
0.983561 0.241613 0.0
0.996751 0.274317 0.0
1.000593 0.295424 0.0
0.995787 0.307082 0.0
0.983012 0.311666 0.0
0.962939 0.311612 0.0
0.936476 0.308753 0.0
0.905208 0.303090 0.0
0.871674 0.291813 0.0
0.839077 0.269987 0.0
0.810396 0.233258 0.0
0.787546 0.180708 0.0
0.771201 0.115478 0.0
0.761239 0.043099 0.0
0.757185 -0.030566 0.0
0.758325 -0.100477 0.0
0.763656 -0.162859 0.0
0.771968 -0.215277 0.0
0.782012 -0.256466 0.0
0.792692 -0.286022 0.0
0.803268 -0.304000 0.0
0.813500 -0.310504 0.0
0.823660 -0.305413 0.0
0.834384 -0.288401 0.0
0.846390 -0.259304 0.0
0.860180 -0.218643 0.0
0.875874 -0.168021 0.0
0.893171 -0.110189 0.0
0.911405 -0.048785 0.0
0.929455 0.011844 0.0
0.945880 0.067149 0.0
0.959393 0.114418 0.0
0.969008 0.152250 0.0
0.973990 0.180401 0.0
0.973858 0.199593 0.0
0.968429 0.211216 0.0
0.957893 0.216887 0.0
0.942882 0.217911 0.0
0.924473 0.214840 0.0
0.904063 0.207367 0.0
0.883146 0.194709 0.0
0.863091 0.176281 0.0
0.845003 0.152276 0.0
0.829729 0.123928 0.0
0.818088 0.090435 0.0
0.998288 -0.007589 0.0
0.991233 -0.023314 0.0
0.976213 -0.040731 0.0
0.951118 -0.061143 0.0
0.911886 -0.086152 0.0
0.850685 -0.117778 0.0
0.751153 -0.158252 0.0
0.574829 -0.209536 0.0
0.230325 -0.251376 0.0
0.000000 0.243504 0.0
-0.000000 -0.000000 0.0
0.000000 0.000000 0.0
-0.018292 -0.017578 0.0
-0.043949 -0.031975 0.0
-0.055075 -0.046161 0.0
-0.070863 -0.042500 0.0
-0.098710 -0.060392 0.0
-0.125472 -0.123674 0.0
-0.135589 -0.216846 0.0
-0.120474 -0.303155 0.0
-0.074723 -0.345278 0.0
0.009688 -0.316278 0.0
0.127350 -0.205117 0.0
0.256555 -0.056481 0.0
0.370696 0.073649 0.0
0.460600 0.176698 0.0
0.531481 0.263838 0.0
0.582602 0.335691 0.0
0.613151 0.392296 0.0
0.622469 0.434514 0.0
0.609759 0.464366 0.0
0.574735 0.484879 0.0
0.520577 0.497673 0.0
0.458287 0.497437 0.0
0.406296 0.469710 0.0
0.380767 0.401204 0.0
0.385372 0.293969 0.0
0.412529 0.164222 0.0
0.451825 0.030284 0.0
0.493966 -0.091195 0.0
0.532971 -0.194170 0.0
0.566249 -0.278098 0.0
0.592176 -0.343380 0.0
0.610039 -0.391020 0.0
0.620384 -0.422086 0.0
0.625568 -0.436705 0.0
0.630016 -0.433061 0.0
0.639394 -0.407627 0.0
0.658531 -0.357500 0.0
0.689355 -0.283537 0.0
0.730461 -0.191514 0.0
0.778280 -0.090496 0.0
0.827310 0.008463 0.0
0.871709 0.094399 0.0
0.908324 0.165101 0.0
0.936194 0.220914 0.0
0.955024 0.262997 0.0
0.964898 0.293027 0.0
0.966105 0.313078 0.0
0.959049 0.325500 0.0
0.944344 0.332556 0.0
0.923097 0.335519 0.0
0.897229 0.333459 0.0
0.869486 0.322722 0.0
0.842866 0.298296 0.0
0.819776 0.256720 0.0
0.801540 0.198334 0.0
0.788581 0.127156 0.0
0.780887 0.049078 0.0
0.778247 -0.029852 0.0
0.780157 -0.104241 0.0
0.785731 -0.170000 0.0
0.793816 -0.224533 0.0
0.803158 -0.266596 0.0
0.812599 -0.296013 0.0
0.821279 -0.313266 0.0
0.828827 -0.319018 0.0
0.835457 -0.313689 0.0
0.841900 -0.297292 0.0
0.849141 -0.269659 0.0
0.858058 -0.230995 0.0
0.869126 -0.182431 0.0
0.882310 -0.126261 0.0
0.897114 -0.065752 0.0
0.912636 -0.004761 0.0
0.927591 0.052373 0.0
0.940644 0.102628 0.0
0.950713 0.144357 0.0
0.956953 0.177072 0.0
0.958787 0.201219 0.0
0.955963 0.217844 0.0
0.948617 0.228142 0.0
0.937310 0.232973 0.0
0.922984 0.232514 0.0
0.906808 0.226280 0.0
0.889978 0.213542 0.0
0.873556 0.193926 0.0
0.858425 0.167850 0.0
0.845345 0.136709 0.0
0.835191 0.099450 0.0
0.998157 -0.004034 0.0
0.990578 -0.012235 0.0
0.974529 -0.020741 0.0
0.948016 -0.029525 0.0
0.907508 -0.038030 0.0
0.847200 -0.044391 0.0
0.758466 -0.043373 0.0
0.630663 -0.020288 0.0
0.471280 0.066504 0.0
0.193482 0.175048 0.0
0.000000 0.000000 0.0
-0.000000 -0.000000 0.0
0.000000 0.000000 0.0
-0.014221 -0.012306 0.0
-0.053107 -0.017734 0.0
-0.118888 0.010641 0.0
-0.194961 -0.009613 0.0
-0.250676 -0.091976 0.0
-0.275082 -0.214022 0.0
-0.270533 -0.325643 0.0
-0.244575 -0.394499 0.0
-0.195449 -0.400594 0.0
-0.105817 -0.328095 0.0
0.022129 -0.190655 0.0
0.150604 -0.034793 0.0
0.255343 0.090497 0.0
0.337744 0.196757 0.0
0.400369 0.289026 0.0
0.441673 0.367108 0.0
0.460448 0.431609 0.0
0.456667 0.483762 0.0
0.433500 0.523674 0.0
0.400100 0.546435 0.0
0.371629 0.539436 0.0
0.362706 0.488626 0.0
0.378657 0.391866 0.0
0.414649 0.262710 0.0
0.462460 0.120514 0.0
0.513991 -0.016836 0.0
0.562474 -0.134700 0.0
0.604450 -0.231645 0.0
0.638482 -0.307933 0.0
0.663602 -0.364591 0.0
0.679292 -0.403362 0.0
0.685652 -0.426449 0.0
0.683916 -0.435790 0.0
0.677270 -0.431778 0.0
0.671172 -0.412190 0.0
0.672112 -0.373014 0.0
0.684935 -0.311670 0.0
0.710691 -0.230245 0.0
0.746770 -0.135662 0.0
0.788572 -0.037202 0.0
0.830202 0.054035 0.0
0.867013 0.132038 0.0
0.897066 0.196054 0.0
0.919435 0.246658 0.0
0.933718 0.285208 0.0
0.939817 0.313591 0.0
0.937906 0.333954 0.0
0.928572 0.348141 0.0
0.913077 0.356676 0.0
0.893510 0.357735 0.0
0.872534 0.347166 0.0
0.852695 0.320310 0.0
0.835760 0.274731 0.0
0.822570 0.211749 0.0
0.813410 0.135858 0.0
0.808395 0.053085 0.0
0.807503 -0.030328 0.0
0.810369 -0.108542 0.0
0.816208 -0.177113 0.0