# vtk DataFile Version 3.0
Vector Field
ASCII
DATASET RECTILINEAR_GRID
DIMENSIONS 100 26 1
X_COORDINATES 100 double
0.050000 0.150000 0.250000 0.350000 0.450000 0.550000 0.650000 0.750000 0.850000 0.950000 1.050000 1.150000 1.250000 1.350000 1.450000 1.550000 1.650000 1.750000 1.850000 1.950000 2.050000 2.150000 2.250000 2.350000 2.450000 2.550000 2.650000 2.750000 2.850000 2.950000 3.050000 3.150000 3.250000 3.350000 3.450000 3.550000 3.650000 3.750000 3.850000 3.950000 4.050000 4.150000 4.250000 4.350000 4.450000 4.550000 4.650000 4.750000 4.850000 4.950000 5.050000 5.150000 5.250000 5.350000 5.450000 5.550000 5.650000 5.750000 5.850000 5.950000 6.050000 6.150000 6.250000 6.350000 6.450000 6.550000 6.650000 6.750000 6.850000 6.950000 7.050000 7.150000 7.250000 7.350000 7.450000 7.550000 7.650000 7.750000 7.850000 7.950000 8.050000 8.150000 8.250000 8.350000 8.450000 8.550000 8.650000 8.750000 8.850000 8.950000 9.050000 9.150000 9.250000 9.350000 9.450000 9.550000 9.650000 9.750000 9.850000 9.950000 
Y_COORDINATES 26 double
0.050000 0.150000 0.250000 0.350000 0.450000 0.550000 0.650000 0.750000 0.850000 0.950000 1.050000 1.150000 1.250000 1.350000 1.450000 1.550000 1.650000 1.750000 1.850000 1.950000 2.050000 2.150000 2.250000 2.350000 2.450000 2.550000 
Z_COORDINATES 1 double
0.0
POINT_DATA 2600
VECTORS Vektorfeld double
0.997672 0.002328 0.0
0.992955 0.002390 0.0
0.989719 0.000846 0.0
0.990285 -0.001412 0.0
0.995675 -0.003979 0.0
1.006237 -0.006583 0.0
1.021783 -0.008962 0.0
1.041586 -0.010841 0.0
1.064395 -0.011967 0.0
1.088531 -0.012168 0.0
1.112117 -0.011417 0.0
1.133355 -0.009820 0.0
1.150724 -0.007550 0.0
1.163062 -0.004788 0.0
1.169589 -0.001738 0.0
1.170023 0.001304 0.0
1.164255 0.004465 0.0
1.152086 0.007705 0.0
1.133447 0.010934 0.0
1.108475 0.014038 0.0
1.077552 0.016885 0.0
1.041324 0.019342 0.0
1.000700 0.021282 0.0
0.956821 0.022596 0.0
0.911023 0.023202 0.0
0.864772 0.023049 0.0
0.819606 0.022117 0.0
0.777063 0.020426 0.0
0.738600 0.018036 0.0
0.705515 0.015048 0.0
0.678865 0.011602 0.0
0.659393 0.007870 0.0
0.647565 0.003959 0.0
0.643761 -0.000155 0.0
0.647383 -0.003467 0.0
0.656151 -0.005302 0.0
0.667103 -0.005649 0.0
0.677491 -0.004739 0.0
0.685175 -0.002945 0.0
0.688698 -0.000579 0.0
0.686517 0.002760 0.0
0.676819 0.006937 0.0
0.658430 0.011453 0.0
0.631162 0.015815 0.0
0.595742 0.019605 0.0
0.553637 0.022500 0.0
0.506905 0.024232 0.0
0.458238 0.024435 0.0
0.411323 0.022479 0.0
0.371121 0.017722 0.0
0.342920 0.010479 0.0
0.329669 0.002773 0.0
0.329228 -0.002332 0.0
0.335947 -0.004388 0.0
0.345561 -0.005226 0.0
0.356423 -0.005636 0.0
0.367638 -0.005579 0.0
0.378339 -0.005122 0.0
0.387828 -0.004367 0.0
0.395629 -0.003434 0.0
0.401504 -0.002441 0.0
0.405438 -0.001493 0.0
0.407596 -0.000665 0.0
0.408152 0.000109 0.0
0.406908 0.001135 0.0
0.403354 0.002418 0.0
0.397198 0.003738 0.0
0.388580 0.004880 0.0
0.378046 0.005654 0.0
0.366505 0.005887 0.0
0.355126 0.005492 0.0
0.345069 0.004565 0.0
0.337090 0.003414 0.0
0.331218 0.002458 0.0
0.326730 0.002030 0.0
0.322498 0.002202 0.0
0.317530 0.002766 0.0
0.311400 0.003364 0.0
0.304361 0.003675 0.0
0.297125 0.003561 0.0
0.290472 0.003092 0.0
0.284930 0.002450 0.0
0.280663 0.001818 0.0
0.277538 0.001307 0.0
0.275279 0.000952 0.0
0.273596 0.000731 0.0
0.272250 0.000616 0.0
0.271089 0.000545 0.0
0.270075 0.000470 0.0
0.269235 0.000370 0.0
0.268593 0.000272 0.0
0.268083 0.000238 0.0
0.267518 0.000327 0.0
0.266649 0.000541 0.0
0.265257 0.000851 0.0
0.263215 0.001192 0.0
0.260540 0.001483 0.0
0.257424 0.001633 0.0
0.254267 0.001523 0.0
0.251014 0.001730 0.0
1.002962 0.001693 0.0
1.011521 -0.000816 0.0
1.024851 -0.006041 0.0
1.042446 -0.012687 0.0
1.064363 -0.020010 0.0
1.090626 -0.027377 0.0
1.121005 -0.034093 0.0
1.154874 -0.039384 0.0
1.191148 -0.042506 0.0
1.228305 -0.042923 0.0
1.264630 -0.040574 0.0
1.298556 -0.035827 0.0
1.328876 -0.029233 0.0
1.354749 -0.021315 0.0
1.375524 -0.012513 0.0
1.390396 -0.003227 0.0
1.398687 0.006472 0.0
1.400107 0.016447 0.0
1.394522 0.026416 0.0
1.382025 0.036025 0.0
1.362976 0.044870 0.0
1.338029 0.052533 0.0
1.308118 0.058627 0.0
1.274422 0.062825 0.0
1.238314 0.064880 0.0
1.201298 0.064638 0.0
1.164947 0.062044 0.0
1.130831 0.057159 0.0
1.100434 0.050163 0.0
1.075073 0.041367 0.0
1.055809 0.031199 0.0
1.043376 0.020178 0.0
1.038060 0.008794 0.0
1.039215 -0.002342 0.0
1.045795 -0.011481 0.0
1.057243 -0.017504 0.0
1.072828 -0.019985 0.0
1.090844 -0.018808 0.0
1.108410 -0.014125 0.0
1.121797 -0.006309 0.0
1.128049 0.004421 0.0
1.125631 0.017391 0.0
1.113793 0.031226 0.0
1.092557 0.044546 0.0
1.062692 0.056159 0.0
1.025667 0.065078 0.0
0.983605 0.070449 0.0
0.939164 0.071327 0.0
0.895099 0.066568 0.0
0.853371 0.055564 0.0
0.814348 0.039862 0.0
0.777479 0.023510 0.0
0.744535 0.010316 0.0
0.720583 0.000197 0.0
0.708943 -0.007785 0.0
0.707962 -0.012958 0.0
0.714168 -0.015679 0.0
0.725139 -0.016694 0.0
0.739319 -0.016462 0.0
0.755527 -0.015349 0.0
0.772735 -0.013610 0.0
0.789875 -0.011399 0.0
0.805711 -0.008753 0.0
0.818933 -0.005580 0.0
0.828805 -0.001803 0.0
0.835507 0.002207 0.0
0.839577 0.006036 0.0
0.841489 0.009287 0.0
0.841671 0.011599 0.0
0.840385 0.012768 0.0
0.837528 0.012847 0.0
0.832567 0.012228 0.0
0.824717 0.011580 0.0
0.813299 0.011583 0.0
0.798101 0.012591 0.0
0.779596 0.014378 0.0
0.758940 0.016214 0.0
0.737779 0.017208 0.0
0.717935 0.016713 0.0
0.701065 0.014630 0.0
0.688295 0.011446 0.0
0.679974 0.007958 0.0
0.675673 0.004878 0.0
0.674473 0.002571 0.0
0.675362 0.001058 0.0
0.677475 0.000194 0.0
0.680248 -0.000274 0.0
0.683459 -0.000615 0.0
0.686996 -0.000894 0.0
0.690654 -0.001084 0.0
0.694105 -0.001084 0.0
0.696949 -0.000740 0.0
0.698772 0.000048 0.0
0.699181 0.001280 0.0
0.697909 0.002776 0.0
0.694949 0.004268 0.0
0.690536 0.005493 0.0
0.685088 0.006188 0.0
0.679101 0.006113 0.0
0.674156 0.005339 0.0
1.001865 -0.003135 0.0
1.008567 -0.011250 0.0
1.020857 -0.021226 0.0
1.038335 -0.032576 0.0
1.061015 -0.044717 0.0
1.088966 -0.056884 0.0
1.122047 -0.068045 0.0
1.159651 -0.076906 0.0
1.200514 -0.082121 0.0
1.242618 -0.082570 0.0
1.283595 -0.078229 0.0
1.321465 -0.069969 0.0
1.354960 -0.058907 0.0
1.383411 -0.045963 0.0
1.406476 -0.031706 0.0
1.423955 -0.016385 0.0
1.435611 -0.000318 0.0
1.441180 0.016248 0.0
1.440514 0.032866 0.0
1.433626 0.048961 0.0
1.420754 0.063854 0.0
1.402407 0.076843 0.0
1.379351 0.087284 0.0
1.352571 0.094646 0.0
1.323201 0.098538 0.0
1.292474 0.098723 0.0
1.261656 0.095127 0.0
1.231999 0.087850 0.0
1.204679 0.077189 0.0
1.180746 0.063635 0.0
1.161073 0.047868 0.0
1.146310 0.030705 0.0
1.136826 0.013067 0.0
1.132875 -0.003819 0.0
1.134982 -0.018691 0.0
1.143684 -0.030444 0.0
1.158877 -0.037823 0.0
1.179469 -0.039578 0.0
1.203298 -0.034750 0.0
1.227345 -0.023118 0.0
1.248155 -0.005831 0.0
1.262953 0.015263 0.0
1.270168 0.037977 0.0
1.269066 0.060133 0.0
1.259687 0.079816 0.0
1.242732 0.095401 0.0
1.219412 0.105507 0.0
1.191181 0.108940 0.0
1.159311 0.104889 0.0
1.124598 0.093683 0.0
1.087789 0.077575 0.0
1.050569 0.059886 0.0
1.015149 0.042303 0.0
0.982275 0.025036 0.0
0.951866 0.009425 0.0
0.925967 -0.003288 0.0
0.907400 -0.012988 0.0
0.896622 -0.019578 0.0
0.892414 -0.023550 0.0
0.893446 -0.025501 0.0
0.898569 -0.025788 0.0
0.906814 -0.024605 0.0
0.917443 -0.022012 0.0
0.929998 -0.018098 0.0
0.944137 -0.013297 0.0
0.959366 -0.008230 0.0
0.975183 -0.003414 0.0
0.991281 0.000727 0.0
1.007319 0.003940 0.0
1.022747 0.006285 0.0
1.036758 0.008176 0.0
1.048344 0.010274 0.0
1.056516 0.013210 0.0
1.060591 0.017296 0.0
1.060250 0.022418 0.0
1.055486 0.027821 0.0
1.046537 0.032374 0.0
1.033723 0.035023 0.0
1.017340 0.035125 0.0
0.997707 0.032722 0.0
0.975341 0.028488 0.0
0.951233 0.023344 0.0
0.927010 0.018016 0.0
0.904794 0.012847 0.0
0.886734 0.007954 0.0
0.874441 0.003478 0.0
0.868478 -0.000369 0.0
0.868033 -0.003285 0.0
0.871458 -0.005186 0.0
0.877194 -0.006185 0.0
0.884030 -0.006269 0.0
0.890955 -0.005324 0.0
0.897139 -0.003376 0.0
0.902058 -0.000624 0.0
0.905455 0.002556 0.0
0.907213 0.005691 0.0
0.907419 0.008277 0.0
0.906387 0.009883 0.0
0.904579 0.010212 0.0
0.902038 0.008726 0.0
1.001476 -0.006476 0.0
1.007248 -0.020382 0.0
1.018604 -0.035739 0.0
1.035603 -0.052540 0.0
1.058577 -0.070407 0.0
1.087953 -0.088521 0.0
1.123964 -0.105499 0.0
1.166226 -0.119319 0.0
1.213366 -0.127710 0.0
1.262374 -0.128092 0.0
1.309408 -0.120718 0.0
1.351723 -0.107665 0.0
1.388116 -0.091100 0.0
1.418386 -0.072491 0.0
1.442677 -0.052534 0.0
1.461055 -0.031413 0.0
1.473341 -0.009232 0.0
1.479264 0.013671 0.0
1.478610 0.036763 0.0
1.471334 0.059228 0.0
1.457721 0.080071 0.0
1.438408 0.098286 0.0
1.414311 0.112993 0.0
1.386522 0.123507 0.0
1.356211 0.129357 0.0
1.324562 0.130281 0.0
1.292727 0.126222 0.0
1.261804 0.117336 0.0
1.232821 0.104006 0.0
1.206725 0.086846 0.0
1.184382 0.066674 0.0
1.166586 0.044458 0.0
1.154139 0.021244 0.0
1.148007 -0.001913 0.0
1.149267 -0.023963 0.0
1.158719 -0.043325 0.0
1.176428 -0.057843 0.0
1.201419 -0.065142 0.0
1.231642 -0.063239 0.0
1.264147 -0.051182 0.0
1.295340 -0.029769 0.0
1.321572 -0.001829 0.0
1.340488 0.028938 0.0
1.351428 0.059334 0.0
1.354554 0.086867 0.0
1.350385 0.109473 0.0
1.339619 0.125520 0.0
1.322934 0.133842 0.0
1.300838 0.133953 0.0
1.273728 0.126442 0.0
1.242267 0.113086 0.0
1.207712 0.096150 0.0
1.171680 0.077491 0.0
1.135776 0.058627 0.0
1.101418 0.040602 0.0
1.069216 0.023636 0.0
1.039381 0.008491 0.0
1.013218 -0.004117 0.0
0.992418 -0.014004 0.0
0.977403 -0.021064 0.0
0.967564 -0.025509 0.0
0.962064 -0.027628 0.0
0.960132 -0.027686 0.0
0.961242 -0.026088 0.0
0.965234 -0.023439 0.0
0.972339 -0.020420 0.0
0.983020 -0.017722 0.0
0.997732 -0.015775 0.0
1.016718 -0.014581 0.0
1.039766 -0.013670 0.0
1.066053 -0.012168 0.0
1.094139 -0.009053 0.0
1.122038 -0.003534 0.0
1.147439 0.004564 0.0
1.168376 0.014555 0.0
1.183757 0.025067 0.0
1.193097 0.034737 0.0
1.196032 0.042540 0.0
1.192313 0.047708 0.0
1.182032 0.050054 0.0
1.165745 0.049810 0.0
1.144532 0.047344 0.0
1.119848 0.042925 0.0
1.093239 0.036763 0.0
1.066136 0.029201 0.0
1.039850 0.020810 0.0
1.015758 0.012353 0.0
0.995579 0.004617 0.0
0.980934 -0.001868 0.0
0.972283 -0.006588 0.0
0.968674 -0.009093 0.0
0.968545 -0.009297 0.0
0.970388 -0.007429 0.0
0.972867 -0.003969 0.0
0.974928 0.000443 0.0
0.975945 0.005028 0.0
0.975729 0.008951 0.0
0.974429 0.011542 0.0
0.972370 0.012420 0.0
0.969268 0.012162 0.0
1.001275 -0.009227 0.0
1.006419 -0.028547 0.0
1.016911 -0.049421 0.0
1.033240 -0.072187 0.0
1.056241 -0.096736 0.0
1.086986 -0.122314 0.0
1.126487 -0.147218 0.0
1.175019 -0.168395 0.0
1.231590 -0.182344 0.0
1.291050 -0.181926 0.0
1.346080 -0.168949 0.0
1.392913 -0.148581 0.0
1.431194 -0.124857 0.0
1.462038 -0.099847 0.0
1.486650 -0.074082 0.0
1.505621 -0.047214 0.0
1.518700 -0.018796 0.0
1.525132 0.010881 0.0
1.524231 0.041108 0.0
1.515668 0.070722 0.0
1.499634 0.098222 0.0
1.476909 0.122173 0.0
1.448682 0.141429 0.0
1.416344 0.155198 0.0
1.381317 0.163004 0.0
1.344964 0.164636 0.0
1.308554 0.160111 0.0
1.273261 0.149662 0.0
1.240180 0.133744 0.0
1.210344 0.113040 0.0
1.184728 0.088439 0.0
1.164245 0.060972 0.0
1.149758 0.031664 0.0
1.142169 0.001388 0.0
1.142435 -0.028791 0.0
1.151312 -0.056826 0.0
1.168998 -0.079736 0.0
1.195014 -0.094255 0.0
1.228263 -0.097597 0.0
1.266868 -0.087934 0.0
1.307675 -0.065017 0.0
1.345944 -0.031083 0.0
1.376454 0.008765 0.0
1.396692 0.048329 0.0
1.407305 0.084134 0.0
1.409662 0.114019 0.0
1.404943 0.136460 0.0
1.393976 0.150554 0.0
1.377230 0.156083 0.0
1.355009 0.153644 0.0
1.327757 0.144597 0.0
1.296274 0.130677 0.0
1.261683 0.113587 0.0
1.225280 0.094837 0.0
1.188390 0.075641 0.0
1.152251 0.056937 0.0
1.117931 0.039345 0.0
1.086033 0.023090 0.0
1.056881 0.008742 0.0
1.031141 -0.003055 0.0
1.009375 -0.011913 0.0
0.991314 -0.017663 0.0
0.976173 -0.020579 0.0
0.963323 -0.021456 0.0
0.952734 -0.021475 0.0
0.945125 -0.021880 0.0
0.941775 -0.023592 0.0
0.944151 -0.026993 0.0
0.953525 -0.031722 0.0
0.970615 -0.036666 0.0
0.995425 -0.040269 0.0
1.027312 -0.040925 0.0
1.065095 -0.037343 0.0
1.106978 -0.028911 0.0
1.150125 -0.016054 0.0
1.190484 -0.000064 0.0
1.223961 0.017051 0.0
1.248343 0.032909 0.0
1.263256 0.046145 0.0
1.268921 0.056233 0.0
1.265918 0.062921 0.0
1.255222 0.066142 0.0
1.238091 0.065942 0.0
1.215937 0.062509 0.0
1.190250 0.056245 0.0
1.162568 0.047735 0.0
1.134407 0.037680 0.0
1.107064 0.026811 0.0
1.081522 0.016125 0.0
1.058697 0.006895 0.0
1.039513 0.000218 0.0
1.024317 -0.003284 0.0
1.012499 -0.003466 0.0
1.002829 -0.000742 0.0
0.994050 0.003934 0.0
0.985297 0.009274 0.0
0.976252 0.013966 0.0
0.967091 0.016987 0.0
0.958294 0.017829 0.0
0.950799 0.017351 0.0
1.001074 -0.011576 0.0
1.005479 -0.035748 0.0
1.014707 -0.061939 0.0
1.029626 -0.090918 0.0
1.051667 -0.123046 0.0
1.082849 -0.157930 0.0
1.125582 -0.193835 0.0
1.181702 -0.226431 0.0
1.252440 -0.251617 0.0
1.327133 -0.246807 0.0
1.390038 -0.222005 0.0
1.437604 -0.189924 0.0
1.472877 -0.157068 0.0
1.499936 -0.125538 0.0
1.521906 -0.094974 0.0
1.540320 -0.063707 0.0
1.554811 -0.029874 0.0
1.563388 0.006950 0.0
1.563949 0.045380 0.0
1.555393 0.083570 0.0
1.537677 0.119124 0.0
1.511744 0.149930 0.0
1.479142 0.174500 0.0
1.441647 0.191961 0.0
1.401010 0.201905 0.0
1.358853 0.204244 0.0
1.316650 0.199116 0.0
1.275751 0.186850 0.0
1.237419 0.167970 0.0
1.202850 0.143218 0.0
1.173155 0.113571 0.0
1.149247 0.080232 0.0
1.131622 0.044516 0.0
1.120188 0.007559 0.0
1.114757 -0.029797 0.0
1.115624 -0.065564 0.0
1.123439 -0.096498 0.0
1.139135 -0.119206 0.0
1.164009 -0.130771 0.0
1.199103 -0.128459 0.0
1.243885 -0.110080 0.0
1.294923 -0.075326 0.0
1.345054 -0.027633 0.0
1.385051 0.024491 0.0
1.410847 0.071563 0.0
1.424319 0.110761 0.0
1.427822 0.140934 0.0
1.423160 0.161710 0.0
1.411528 0.173304 0.0
1.393697 0.176475 0.0
1.370286 0.172428 0.0
1.341996 0.162619 0.0
1.309693 0.148540 0.0
1.274400 0.131579 0.0
1.237242 0.112947 0.0
1.199375 0.093637 0.0
1.161907 0.074434 0.0
1.125804 0.056002 0.0
1.091773 0.039012 0.0
1.060012 0.024176 0.0
1.030151 0.012483 0.0
1.001525 0.004629 0.0
0.973454 0.000343 0.0
0.945710 -0.001783 0.0
0.919106 -0.003956 0.0
0.895696 -0.008380 0.0
0.878393 -0.016438 0.0
0.869954 -0.028085 0.0
0.871944 -0.041994 0.0
0.884489 -0.056030 0.0
0.906712 -0.067939 0.0
0.937338 -0.075770 0.0
0.975093 -0.078036 0.0
1.018768 -0.073776 0.0
1.067056 -0.062626 0.0
1.118208 -0.045004 0.0
1.169263 -0.022542 0.0
1.215338 0.002046 0.0
1.251688 0.025745 0.0
1.276623 0.046032 0.0
1.290606 0.062142 0.0
1.294527 0.073696 0.0
1.289514 0.080531 0.0
1.276869 0.082719 0.0
1.258012 0.080579 0.0
1.234430 0.074664 0.0
1.207608 0.065735 0.0
1.178949 0.054759 0.0
1.149720 0.042949 0.0
1.120965 0.031651 0.0
1.093358 0.022253 0.0
1.067191 0.016043 0.0
1.042476 0.013741 0.0
1.019045 0.015150 0.0
0.996702 0.019164 0.0
0.975408 0.024092 0.0
0.955430 0.028170 0.0
0.937370 0.030005 0.0
0.922053 0.028925 0.0
0.910906 0.024898 0.0
1.000791 -0.013441 0.0
1.004088 -0.041585 0.0
1.011202 -0.072444 0.0
1.023262 -0.107394 0.0
1.042251 -0.147601 0.0
1.071331 -0.193637 0.0
1.115089 -0.244619 0.0
1.178666 -0.295345 0.0
1.270667 -0.345441 0.0
1.365042 -0.322050 0.0
1.427624 -0.272249 0.0
1.463164 -0.222784 0.0
1.483631 -0.179949 0.0
1.497597 -0.143682 0.0
1.510455 -0.111658 0.0
1.525081 -0.080062 0.0
1.541447 -0.044378 0.0
1.555718 -0.001394 0.0
1.562436 0.046445 0.0
1.558262 0.095235 0.0
1.542632 0.140806 0.0
1.516789 0.180025 0.0
1.482757 0.211039 0.0
1.442698 0.232976 0.0
1.398638 0.245586 0.0
1.352391 0.248966 0.0
1.305584 0.243404 0.0
1.259714 0.229330 0.0
1.216205 0.207332 0.0
1.176416 0.178215 0.0
1.141572 0.143113 0.0
1.112518 0.103652 0.0
1.089131 0.062108 0.0
1.069552 0.020981 0.0
1.050602 -0.018837 0.0
1.031475 -0.058265 0.0
1.015143 -0.095280 0.0
1.006452 -0.127429 0.0
1.010881 -0.151850 0.0
1.032516 -0.164108 0.0
1.072539 -0.159237 0.0
1.129023 -0.133691 0.0
1.196906 -0.087281 0.0
1.266599 -0.025551 0.0
1.324278 0.038130 0.0
1.363479 0.091522 0.0
1.387023 0.133126 0.0
1.397914 0.163289 0.0
1.398397 0.182874 0.0
1.390104 0.193030 0.0
1.374291 0.195096 0.0
1.352041 0.190492 0.0
1.324394 0.180617 0.0
1.292411 0.166777 0.0
1.257184 0.150134 0.0
1.219815 0.131686 0.0
1.181358 0.112310 0.0
1.142701 0.092886 0.0
1.104354 0.074507 0.0
1.066190 0.058605 0.0
1.027416 0.046688 0.0
0.987035 0.039431 0.0
0.944864 0.035783 0.0
0.902547 0.032838 0.0
0.863630 0.026944 0.0
0.832353 0.015407 0.0
0.811911 -0.002479 0.0
0.803699 -0.025394 0.0
0.807411 -0.050386 0.0
0.821477 -0.074249 0.0
0.843998 -0.094463 0.0
0.873397 -0.109271 0.0
0.908573 -0.117466 0.0
0.948781 -0.118229 0.0
0.993408 -0.111088 0.0
1.041703 -0.095988 0.0
1.092513 -0.073423 0.0
1.144013 -0.044648 0.0
1.192731 -0.012629 0.0
1.233537 0.018664 0.0
1.263264 0.045801 0.0
1.281817 0.067562 0.0
1.289952 0.083542 0.0
1.288683 0.093624 0.0
1.279214 0.098001 0.0
1.262863 0.097174 0.0
1.240982 0.091928 0.0
1.214876 0.083331 0.0
1.185739 0.072743 0.0
1.154590 0.061761 0.0
1.122247 0.052093 0.0
1.089361 0.045257 0.0
1.056480 0.042123 0.0
1.024131 0.042548 0.0
0.992906 0.045335 0.0
0.963542 0.048579 0.0
0.936945 0.050258 0.0
0.914112 0.048810 0.0
0.895989 0.043559 0.0
0.883604 0.033796 0.0
1.000385 -0.014617 0.0
1.002042 -0.045362 0.0
1.005837 -0.079575 0.0
1.012891 -0.119377 0.0
1.025393 -0.167110 0.0
1.047389 -0.225204 0.0
1.086086 -0.295507 0.0
1.152638 -0.374585 0.0
1.274051 -0.479614 0.0
1.385109 -0.393310 0.0
1.419823 -0.298286 0.0
1.417403 -0.229866 0.0
1.404696 -0.180628 0.0
1.392334 -0.144608 0.0
1.386032 -0.117288 0.0
1.389847 -0.092872 0.0
1.405807 -0.063894 0.0
1.431037 -0.021379 0.0
1.454035 0.036714 0.0
1.464482 0.098692 0.0
1.460637 0.156823 0.0
1.444046 0.206442 0.0
1.417252 0.245448 0.0
1.382677 0.273200 0.0
1.342367 0.289733 0.0
1.298077 0.295356 0.0
1.251413 0.290487 0.0
1.203905 0.275625 0.0
1.157038 0.251413 0.0
1.112187 0.218774 0.0
1.070423 0.179162 0.0
1.032090 0.134989 0.0
0.996083 0.090163 0.0
0.959237 0.049352 0.0
0.917141 0.013838 0.0
0.867861 -0.022535 0.0
0.819791 -0.066608 0.0
0.788064 -0.115684 0.0
0.781479 -0.161440 0.0
0.800333 -0.195007 0.0
0.841215 -0.209244 0.0
0.900421 -0.199375 0.0
0.974502 -0.163561 0.0
1.059314 -0.103777 0.0
1.146563 -0.028571 0.0
1.221047 0.044539 0.0
1.274600 0.103011 0.0
1.310184 0.146929 0.0
1.330936 0.177999 0.0
1.339210 0.197924 0.0
1.336872 0.208353 0.0
1.325500 0.210857 0.0
1.306505 0.206894 0.0
1.281199 0.197790 0.0
1.250819 0.184727 0.0
1.216517 0.168763 0.0
1.179280 0.150928 0.0
1.139754 0.132451 0.0
1.098011 0.115033 0.0
1.053475 0.100778 0.0
1.005411 0.091353 0.0
0.954037 0.086519 0.0
0.901651 0.083252 0.0
0.852673 0.076664 0.0
0.812231 0.062477 0.0
0.784188 0.039194 0.0
0.769965 0.008399 0.0
0.768505 -0.026602 0.0
0.777313 -0.061699 0.0
0.793865 -0.093554 0.0
0.816266 -0.120080 0.0
0.843287 -0.140074 0.0
0.874238 -0.152789 0.0
0.908804 -0.157680 0.0
0.946854 -0.154314 0.0
0.988222 -0.142425 0.0
1.032498 -0.122072 0.0
1.078854 -0.093856 0.0
1.125881 -0.059167 0.0
1.171061 -0.020784 0.0
1.210017 0.016568 0.0
1.239317 0.048941 0.0
1.258337 0.075008 0.0
1.267460 0.094304 0.0
1.267444 0.106805 0.0
1.259275 0.112889 0.0
1.244056 0.113314 0.0
1.222905 0.109202 0.0
1.196896 0.102019 0.0
1.167018 0.093512 0.0
1.134184 0.085518 0.0
1.099284 0.079619 0.0
1.063252 0.076674 0.0
1.027135 0.076463 0.0
0.992118 0.077662 0.0
0.959498 0.078237 0.0
0.930573 0.076122 0.0
0.906488 0.069865 0.0
0.888068 0.059047 0.0
0.875862 0.042898 0.0
0.999855 -0.014857 0.0
0.999330 -0.046254 0.0
0.998530 -0.081679 0.0
0.998118 -0.123916 0.0
0.999655 -0.176608 0.0
1.006753 -0.244800 0.0
1.027766 -0.335623 0.0
1.081233 -0.454487 0.0
1.228637 -0.668529 0.0
1.327091 -0.413907 0.0
1.276156 -0.261469 0.0
1.202532 -0.190638 0.0
1.141959 -0.146576 0.0
1.094041 -0.118380 0.0
1.060068 -0.103241 0.0
1.044738 -0.095404 0.0
1.053347 -0.085930 0.0
1.089637 -0.060862 0.0
1.144948 -0.002111 0.0
1.194275 0.077743 0.0
1.223451 0.152441 0.0
1.235450 0.215416 0.0
1.233668 0.265049 0.0
1.220472 0.301370 0.0
1.197571 0.324774 0.0
1.166472 0.335703 0.0
1.128666 0.334610 0.0
1.085639 0.322037 0.0
1.038688 0.298819 0.0
0.988326 0.266581 0.0
0.932972 0.228473 0.0
0.867969 0.189014 0.0
0.788637 0.151476 0.0
0.698795 0.114728 0.0
0.615477 0.073875 0.0
0.559218 0.022967 0.0
0.537589 -0.042410 0.0
0.543925 -0.114492 0.0
0.568556 -0.180677 0.0
0.605501 -0.231568 0.0
0.652957 -0.261020 0.0
0.711150 -0.264996 0.0
0.780563 -0.241433 0.0
0.860831 -0.190985 0.0
0.950061 -0.117842 0.0
1.041908 -0.032522 0.0
1.122116 0.046311 0.0
1.182207 0.107953 0.0
1.224482 0.153948 0.0
1.251522 0.186660 0.0
1.265363 0.208114 0.0
1.267748 0.220083 0.0
1.260257 0.224153 0.0
1.244352 0.221743 0.0
1.221370 0.214135 0.0
1.192481 0.202546 0.0
1.158562 0.188302 0.0
1.120019 0.173145 0.0
1.076723 0.159378 0.0
1.028367 0.149325 0.0
0.975417 0.143822 0.0
0.920214 0.140627 0.0
0.867237 0.134507 0.0
0.821900 0.119725 0.0
0.788498 0.093259 0.0
0.768800 0.056153 0.0
0.762086 0.012377 0.0
0.766071 -0.033104 0.0
0.777965 -0.075898 0.0
0.795357 -0.113298 0.0
0.816543 -0.143923 0.0
0.840458 -0.167168 0.0
0.866576 -0.182765 0.0
0.894803 -0.190498 0.0
0.925327 -0.190069 0.0
0.958413 -0.181123 0.0
0.994185 -0.163421 0.0
1.032431 -0.137107 0.0
1.072474 -0.102986 0.0
1.113088 -0.062760 0.0
1.152136 -0.019459 0.0
1.185926 0.021879 0.0
1.211511 0.057465 0.0
1.228149 0.086085 0.0
1.235893 0.107297 0.0
1.235225 0.121233 0.0
1.226880 0.128535 0.0
1.211709 0.130302 0.0
1.190606 0.128031 0.0
1.164477 0.123507 0.0
1.134263 0.118570 0.0
1.100995 0.114734 0.0
1.065862 0.112723 0.0
1.030236 0.112156 0.0
0.995641 0.111581 0.0
0.963626 0.108953 0.0
0.935594 0.102362 0.0
0.912621 0.090682 0.0
0.895341 0.073930 0.0
0.884053 0.051509 0.0
0.999254 -0.013966 0.0
0.996229 -0.043596 0.0
0.990014 -0.077321 0.0
0.980304 -0.118152 0.0
0.966845 -0.170449 0.0
0.950084 -0.241296 0.0
0.933445 -0.343501 0.0
0.931840 -0.498470 0.0
1.027973 -0.868085 0.0
1.019740 -0.201490 0.0
0.821957 -0.110731 0.0
0.670677 -0.105116 0.0
0.582005 -0.082854 0.0
0.516425 -0.068604 0.0
0.474637 -0.077257 0.0
0.468880 -0.100302 0.0
0.500111 -0.120872 0.0
0.562549 -0.124648 0.0
0.653672 -0.084759 0.0
0.756682 0.008053 0.0
0.841720 0.107917 0.0
0.900385 0.189278 0.0
0.939360 0.253993 0.0
0.961223 0.303760 0.0
0.967213 0.339296 0.0
0.958496 0.360998 0.0
0.936281 0.369336 0.0
0.901444 0.365175 0.0
0.853769 0.350305 0.0
0.791231 0.327995 0.0
0.711286 0.302359 0.0
0.616314 0.275103 0.0
0.519331 0.241702 0.0
0.440584 0.193091 0.0
0.395361 0.124052 0.0
0.386040 0.038370 0.0
0.403337 -0.053480 0.0
0.433929 -0.140350 0.0
0.469289 -0.214811 0.0
0.507165 -0.272256 0.0
0.548550 -0.309173 0.0
0.595913 -0.322400 0.0
0.651899 -0.309429 0.0
0.718191 -0.269549 0.0
0.794781 -0.205099 0.0
0.879723 -0.122055 0.0
0.967022 -0.031662 0.0
1.044013 0.048844 0.0
1.103193 0.111603 0.0
1.146181 0.158978 0.0
1.174780 0.193356 0.0
1.190548 0.216688 0.0
1.194934 0.230653 0.0
1.189314 0.236768 0.0
1.174952 0.236453 0.0
1.152906 0.231163 0.0
1.123891 0.222620 0.0
1.088199 0.213061 0.0
1.045916 0.205040 0.0
0.997629 0.200305 0.0
0.945433 0.197988 0.0
0.893437 0.193660 0.0
0.846994 0.180893 0.0
0.810835 0.154835 0.0
0.787412 0.114973 0.0
0.776605 0.064944 0.0
0.776624 0.010281 0.0
0.784965 -0.043334 0.0
0.799100 -0.091697 0.0
0.816932 -0.132724 0.0
0.836888 -0.165639 0.0
0.857910 -0.190389 0.0
0.879466 -0.207217 0.0
0.901525 -0.216332 0.0
0.924471 -0.217706 0.0
0.948924 -0.211026 0.0
0.975486 -0.195852 0.0
1.004490 -0.171927 0.0
1.035828 -0.139547 0.0
1.068863 -0.099848 0.0
1.102412 -0.054968 0.0
1.134402 -0.008393 0.0
1.161788 0.034766 0.0
1.182308 0.071626 0.0
1.195219 0.101101 0.0
1.200401 0.122914 0.0
1.198130 0.137471 0.0
1.188917 0.145750 0.0
1.173417 0.149186 0.0
1.152396 0.149501 0.0
1.126755 0.148432 0.0
1.097578 0.147318 0.0
1.066176 0.146675 0.0
1.034068 0.145938 0.0
1.002874 0.143588 0.0
0.974141 0.137693 0.0
0.949156 0.126639 0.0
0.928816 0.109719 0.0
0.913589 0.087401 0.0
0.903724 0.059190 0.0
0.998690 -0.011910 0.0
0.993311 -0.037248 0.0
0.981920 -0.066064 0.0
0.963056 -0.100836 0.0
0.933977 -0.145227 0.0
0.889635 -0.205415 0.0
0.820131 -0.293240 0.0
0.706048 -0.433042 0.0
0.317331 -0.744010 0.0
-0.461022 0.266362 0.0
-0.461022 0.000000 0.0
-0.037597 -0.026606 0.0
-0.068980 -0.052301 0.0
-0.038488 -0.064069 0.0
0.021510 -0.100001 0.0
0.090029 -0.140321 0.0
0.150766 -0.172821 0.0
0.209151 -0.193523 0.0
0.278599 -0.176456 0.0
0.369927 -0.094587 0.0
0.469582 0.025862 0.0
0.554397 0.127853 0.0
0.621143 0.209697 0.0
0.670372 0.276966 0.0
0.700531 0.329940 0.0
0.711049 0.368553 0.0
0.701713 0.393333 0.0
0.671999 0.405730 0.0
0.621181 0.408244 0.0
0.550436 0.403339 0.0
0.467131 0.390265 0.0
0.387068 0.362231 0.0
0.329003 0.309622 0.0
0.304130 0.228791 0.0
0.311121 0.126584 0.0
0.340215 0.016066 0.0
0.378969 -0.087227 0.0
0.418355 -0.176581 0.0
0.454814 -0.250398 0.0
0.487720 -0.307451 0.0
0.518667 -0.346310 0.0
0.550972 -0.364931 0.0
0.588825 -0.360737 0.0
0.635953 -0.331661 0.0
0.694257 -0.277882 0.0
0.763155 -0.203112 0.0
0.839782 -0.114530 0.0
0.917780 -0.023278 0.0
0.986513 0.055812 0.0
1.040154 0.118140 0.0
1.079674 0.166075 0.0
1.106206 0.201668 0.0
1.120863 0.226630 0.0
1.124741 0.242534 0.0
1.118855 0.250936 0.0
1.104032 0.253550 0.0
1.080814 0.252466 0.0
1.049558 0.250163 0.0
1.010903 0.248876 0.0
0.966594 0.249065 0.0
0.920131 0.247887 0.0
0.876476 0.239413 0.0
0.840587 0.217473 0.0
0.815675 0.179327 0.0
0.802470 0.127108 0.0
0.799818 0.066268 0.0
0.805720 0.003038 0.0
0.817896 -0.056607 0.0
0.834127 -0.108791 0.0
0.852532 -0.151868 0.0
0.871594 -0.185513 0.0
0.890217 -0.210161 0.0
0.907793 -0.226577 0.0
0.924254 -0.235491 0.0
0.940057 -0.237296 0.0
0.956065 -0.231895 0.0
0.973298 -0.218777 0.0
0.992631 -0.197339 0.0
1.014515 -0.167356 0.0
1.038838 -0.129397 0.0
1.064918 -0.085048 0.0
1.091548 -0.036933 0.0
1.116587 0.010882 0.0
1.137564 0.054013 0.0
1.152915 0.090452 0.0
1.161927 0.119368 0.0
1.164400 0.140815 0.0
1.160472 0.155548 0.0
1.150518 0.164842 0.0
1.135121 0.170263 0.0
1.115085 0.173348 0.0
1.091470 0.175194 0.0
1.065593 0.176077 0.0
1.038955 0.175282 0.0
1.013088 0.171306 0.0
0.989364 0.162433 0.0
0.968833 0.147414 0.0
0.952170 0.125947 0.0
0.939712 0.098858 0.0
0.931734 0.065576 0.0
0.998289 -0.008889 0.0
0.991241 -0.027840 0.0
0.976222 -0.049062 0.0
0.951071 -0.073821 0.0
0.911623 -0.103715 0.0
0.849883 -0.140846 0.0
0.749241 -0.187664 0.0
0.570406 -0.245699 0.0
0.227225 -0.298943 0.0
0.000000 0.266362 0.0
-0.000000 -0.000000 0.0
0.000000 0.000000 0.0
-0.030613 -0.029257 0.0
-0.066153 -0.083420 0.0
-0.065547 -0.141253 0.0
-0.055571 -0.177564 0.0
-0.049750 -0.202136 0.0
-0.041898 -0.230445 0.0
-0.015285 -0.235595 0.0
0.045173 -0.187233 0.0
0.139869 -0.075843 0.0
0.240260 0.044354 0.0
0.324306 0.142404 0.0
0.390389 0.228946 0.0
0.435532 0.302658 0.0
0.458159 0.362689 0.0
0.457318 0.409373 0.0
0.433231 0.443490 0.0
0.389208 0.465326 0.0
0.334135 0.472074 0.0
0.283032 0.455938 0.0
0.252171 0.407483 0.0
0.250785 0.323822 0.0
0.277230 0.213019 0.0
0.322806 0.089788 0.0
0.375629 -0.029054 0.0
0.425873 -0.131105 0.0
0.469469 -0.215686 0.0
0.505103 -0.283386 0.0
0.532567 -0.334833 0.0
0.553141 -0.370448 0.0
0.569910 -0.389867 0.0
0.587670 -0.391413 0.0
0.611952 -0.372395 0.0
0.647227 -0.330727 0.0
0.695192 -0.267131 0.0
0.754299 -0.186244 0.0
0.820576 -0.095838 0.0
0.886972 -0.006757 0.0
0.944934 0.069105 0.0
0.990598 0.129926 0.0
1.024282 0.177600 0.0
1.046568 0.213756 0.0
1.058135 0.239964 0.0
1.059641 0.257885 0.0
1.051625 0.269441 0.0
1.034522 0.276896 0.0
1.008943 0.282568 0.0
0.976275 0.287795 0.0
0.939319 0.291410 0.0
0.902370 0.288954 0.0
0.870250 0.274120 0.0
0.846712 0.242193 0.0
0.833345 0.192886 0.0
0.829757 0.130342 0.0
0.834519 0.060923 0.0
0.845870 -0.008870 0.0
0.861731 -0.072735 0.0
0.880009 -0.127173 0.0
0.898974 -0.170856 0.0
0.917202 -0.203814 0.0
0.933621 -0.226902 0.0
0.947590 -0.241381 0.0
0.958973 -0.248532 0.0
0.968202 -0.249288 0.0
0.976241 -0.243949 0.0
0.984404 -0.232120 0.0
0.994043 -0.212968 0.0
1.006184 -0.185752 0.0
1.021268 -0.150408 0.0
1.039078 -0.107928 0.0
1.058812 -0.060418 0.0
1.079118 -0.010977 0.0
1.097975 0.036038 0.0
1.113451 0.077602 0.0
1.124385 0.112272 0.0
1.130156 0.139667 0.0
1.130546 0.160235 0.0
1.125651 0.175004 0.0
1.115852 0.185297 0.0
1.101819 0.192382 0.0
1.084519 0.197074 0.0
1.065176 0.199417 0.0
1.045155 0.198602 0.0
1.025775 0.193232 0.0
1.008133 0.181872 0.0
0.992995 0.163643 0.0
0.980800 0.138576 0.0
0.971758 0.107729 0.0
0.966140 0.070302 0.0
0.998131 -0.005310 0.0
0.990444 -0.016683 0.0
0.974145 -0.028902 0.0
0.947158 -0.041844 0.0
0.905792 -0.054877 0.0
0.844012 -0.066163 0.0
0.752528 -0.070222 0.0
0.620703 -0.052482 0.0
0.448433 0.026884 0.0
0.176712 0.159124 0.0
0.000000 0.000000 0.0
-0.000000 -0.000000 0.0
0.000000 0.000000 0.0
-0.040173 -0.039246 0.0
-0.100644 -0.126489 0.0
-0.142801 -0.160147 0.0
-0.185394 -0.182781 0.0
-0.215469 -0.227578 0.0
-0.220003 -0.260541 0.0
-0.194248 -0.248500 0.0
-0.129066 -0.174455 0.0
-0.025385 -0.061107 0.0
0.077315 0.061119 0.0
0.152128 0.169334 0.0
0.204859 0.264397 0.0
0.236320 0.346861 0.0
0.246482 0.415881 0.0
0.238548 0.469004 0.0
0.220371 0.502012 0.0
0.204098 0.506733 0.0
0.202936 0.473544 0.0
0.225096 0.398579 0.0
0.270277 0.288930 0.0
0.331905 0.159838 0.0
0.400631 0.028668 0.0
0.465522 -0.085647 0.0
0.520590 -0.179824 0.0
0.565375 -0.255347 0.0
0.599383 -0.313368 0.0
0.622477 -0.355410 0.0
0.635264 -0.383230 0.0
0.639674 -0.398264 0.0
0.639589 -0.400691 0.0
0.640889 -0.388699 0.0
0.650201 -0.359010 0.0
0.672515 -0.309127 0.0
0.709132 -0.239970 0.0
0.757468 -0.156725 0.0
0.812561 -0.067360 0.0
0.866915 0.017393 0.0
0.913776 0.089113 0.0
0.950810 0.147695 0.0
0.977780 0.194404 0.0
0.994829 0.230700 0.0
1.002205 0.258267 0.0
1.000197 0.279083 0.0
0.989269 0.295286 0.0
0.970447 0.308579 0.0
0.945854 0.319046 0.0
0.918968 0.324000 0.0
0.894127 0.318154 0.0
0.875256 0.295911 0.0
0.864627 0.254571 0.0
0.862573 0.195929 0.0
0.868192 0.125268 0.0
0.880197 0.049228 0.0
0.896889 -0.025218 0.0
0.916171 -0.091529 0.0
0.936116 -0.146603 0.0
0.955153 -0.189428 0.0
0.972039 -0.220356 0.0
0.985858 -0.240599 0.0
0.996047 -0.251842 0.0
1.002469 -0.255876 0.0
1.005496 -0.254202 0.0
1.006069 -0.247648 0.0