# vtk DataFile Version 3.0
Scalar Field
ASCII
DATASET RECTILINEAR_GRID
DIMENSIONS 100 26 1
X_COORDINATES 100 double
0.050000 0.150000 0.250000 0.350000 0.450000 0.550000 0.650000 0.750000 0.850000 0.950000 1.050000 1.150000 1.250000 1.350000 1.450000 1.550000 1.650000 1.750000 1.850000 1.950000 2.050000 2.150000 2.250000 2.350000 2.450000 2.550000 2.650000 2.750000 2.850000 2.950000 3.050000 3.150000 3.250000 3.350000 3.450000 3.550000 3.650000 3.750000 3.850000 3.950000 4.050000 4.150000 4.250000 4.350000 4.450000 4.550000 4.650000 4.750000 4.850000 4.950000 5.050000 5.150000 5.250000 5.350000 5.450000 5.550000 5.650000 5.750000 5.850000 5.950000 6.050000 6.150000 6.250000 6.350000 6.450000 6.550000 6.650000 6.750000 6.850000 6.950000 7.050000 7.150000 7.250000 7.350000 7.450000 7.550000 7.650000 7.750000 7.850000 7.950000 8.050000 8.150000 8.250000 8.350000 8.450000 8.550000 8.650000 8.750000 8.850000 8.950000 9.050000 9.150000 9.250000 9.350000 9.450000 9.550000 9.650000 9.750000 9.850000 9.950000 
Y_COORDINATES 26 double
0.050000 0.150000 0.250000 0.350000 0.450000 0.550000 0.650000 0.750000 0.850000 0.950000 1.050000 1.150000 1.250000 1.350000 1.450000 1.550000 1.650000 1.750000 1.850000 1.950000 2.050000 2.150000 2.250000 2.350000 2.450000 2.550000 
Z_COORDINATES 1 double
0.0
POINT_DATA 2600
SCALARS Skalarfeld double 1
LOOKUP_TABLE default
0.205215
0.201526
0.193843
0.181750
0.164975
0.143345
0.116850
0.085748
0.050676
0.012698
-0.026763
-0.066157
-0.104056
-0.139311
-0.171075
-0.198744
-0.221855
-0.240020
-0.252907
-0.260183
-0.261683
-0.257575
-0.248307
-0.234594
-0.217347
-0.197577
-0.176293
-0.154408
-0.132680
-0.111687
-0.091820
-0.073321
-0.056322
-0.040915
-0.027228
-0.015307
-0.005405
0.002040
0.006614
0.008095
0.006644
0.002899
-0.002104
-0.007175
-0.011296
-0.013605
-0.013769
-0.011958
-0.008565
-0.004094
0.000937
0.006065
0.010919
0.015238
0.018868
0.021758
0.023940
0.025510
0.026601
0.027353
0.027895
0.028321
0.028692
0.029039
0.029372
0.029693
0.029994
0.030326
0.030682
0.031068
0.031502
0.032003
0.032584
0.033252
0.034004
0.034829
0.035709
0.036623
0.037548
0.038464
0.039351
0.040195
0.040987
0.041722
0.042400
0.043025
0.043603
0.044144
0.044658
0.045157
0.045653
0.046158
0.046685
0.047244
0.047846
0.048498
0.049205
0.049962
0.050743
0.051907
0.208262
0.205445
0.198022
0.185931
0.168945
0.146845
0.119554
0.087296
0.050758
0.011162
-0.029812
-0.070388
-0.109053
-0.144704
-0.176621
-0.204339
-0.227502
-0.245766
-0.258764
-0.266137
-0.267605
-0.263277
-0.253586
-0.239268
-0.221283
-0.200701
-0.178586
-0.155896
-0.133423
-0.111760
-0.091309
-0.072309
-0.054882
-0.039092
-0.024991
-0.012829
-0.002947
0.004258
0.008384
0.009231
0.007001
0.002400
-0.003438
-0.009191
-0.013664
-0.016137
-0.016284
-0.014307
-0.010660
-0.005901
-0.000584
0.004806
0.009890
0.014405
0.018204
0.021239
0.023549
0.025233
0.026427
0.027271
0.027891
0.028378
0.028792
0.029160
0.029498
0.029816
0.030136
0.030432
0.030735
0.031072
0.031466
0.031938
0.032500
0.033158
0.033907
0.034734
0.035619
0.036541
0.037475
0.038398
0.039291
0.040141
0.040936
0.041672
0.042350
0.042973
0.043549
0.044086
0.044595
0.045090
0.045581
0.046081
0.046603
0.047158
0.047757
0.048412
0.049131
0.049925
0.050809
0.052189
0.216464
0.213884
0.206628
0.194514
0.177188
0.154251
0.125436
0.090843
0.051220
0.008119
-0.036115
-0.079171
-0.119370
-0.155759
-0.187921
-0.215705
-0.238989
-0.257523
-0.270904
-0.278613
-0.280113
-0.275410
-0.264900
-0.249361
-0.229854
-0.207569
-0.183683
-0.159249
-0.135126
-0.111957
-0.090171
-0.070022
-0.051634
-0.035070
-0.020398
-0.007892
0.002031
0.008881
0.012177
0.011709
0.007763
0.001224
-0.006507
-0.013819
-0.019306
-0.022171
-0.022215
-0.019817
-0.015575
-0.010156
-0.004184
0.001820
0.007464
0.012488
0.016749
0.020207
0.022901
0.024928
0.026416
0.027498
0.028292
0.028887
0.029345
0.029704
0.029989
0.030220
0.030422
0.030611
0.030815
0.031064
0.031389
0.031810
0.032341
0.032982
0.033729
0.034563
0.035462
0.036401
0.037352
0.038292
0.039198
0.040057
0.040858
0.041597
0.042273
0.042892
0.043461
0.043990
0.044491
0.044975
0.045454
0.045943
0.046453
0.046998
0.047589
0.048241
0.048967
0.049786
0.050727
0.052180
0.229372
0.226913
0.219842
0.207782
0.190116
0.166087
0.135019
0.096690
0.051856
0.002616
-0.047152
-0.094088
-0.136374
-0.173495
-0.205664
-0.233320
-0.256736
-0.275786
-0.289907
-0.298256
-0.299937
-0.294715
-0.282916
-0.265410
-0.243448
-0.218434
-0.191739
-0.164566
-0.137880
-0.112394
-0.088581
-0.066716
-0.046930
-0.029266
-0.013747
-0.000649
0.009443
0.015844
0.017889
0.015319
0.008557
-0.001201
-0.012098
-0.021995
-0.029007
-0.032159
-0.031787
-0.028522
-0.023192
-0.016636
-0.009578
-0.002585
0.003943
0.009756
0.014722
0.018811
0.022067
0.024580
0.026471
0.027862
0.028867
0.029578
0.030066
0.030384
0.030576
0.030681
0.030735
0.030778
0.030847
0.030982
0.031218
0.031578
0.032070
0.032697
0.033446
0.034298
0.035225
0.036195
0.037178
0.038146
0.039077
0.039954
0.040766
0.041509
0.042185
0.042799
0.043359
0.043876
0.044361
0.044828
0.045290
0.045760
0.046251
0.046776
0.047350
0.047987
0.048703
0.049521
0.050468
0.051910
0.246759
0.244470
0.237786
0.226096
0.208384
0.183286
0.149338
0.105546
0.052428
-0.007247
-0.065755
-0.117898
-0.162186
-0.199261
-0.230561
-0.257517
-0.281027
-0.301101
-0.316752
-0.326406
-0.328686
-0.322873
-0.309189
-0.288719
-0.263072
-0.234025
-0.203251
-0.172170
-0.141889
-0.113202
-0.086629
-0.062470
-0.040854
-0.021791
-0.005206
0.008751
0.019184
0.025112
0.025547
0.020170
0.009595
-0.004611
-0.020051
-0.033863
-0.043379
-0.046880
-0.045600
-0.040803
-0.033688
-0.025358
-0.016678
-0.008264
-0.000511
0.006352
0.012225
0.017097
0.021025
0.024102
0.026446
0.028177
0.029408
0.030240
0.030756
0.031028
0.031118
0.031084
0.030979
0.030859
0.030775
0.030778
0.030907
0.031198
0.031654
0.032271
0.033036
0.033921
0.034892
0.035913
0.036946
0.037959
0.038926
0.039829
0.040659
0.041411
0.042087
0.042694
0.043242
0.043742
0.044208
0.044652
0.045089
0.045532
0.045995
0.046491
0.047035
0.047643
0.048332
0.049123
0.050039
0.051423
0.268309
0.266336
0.260466
0.249822
0.232861
0.207295
0.170227
0.118903
0.052701
-0.025449
-0.097114
-0.154767
-0.199249
-0.233921
-0.262304
-0.287329
-0.310809
-0.332948
-0.351960
-0.364473
-0.368379
-0.362107
-0.345797
-0.321025
-0.290078
-0.255341
-0.218935
-0.182564
-0.147498
-0.114616
-0.084479
-0.057410
-0.033555
-0.012924
0.004634
0.019477
0.030424
0.036064
0.034861
0.026551
0.012062
-0.006729
-0.027109
-0.045737
-0.059186
-0.064872
-0.062618
-0.055889
-0.046480
-0.035880
-0.025149
-0.014963
-0.005714
0.002405
0.009334
0.015093
0.019759
0.023440
0.026257
0.028337
0.029800
0.030756
0.031305
0.031535
0.031524
0.031348
0.031078
0.030783
0.030533
0.030388
0.030403
0.030615
0.031040
0.031661
0.032458
0.033400
0.034442
0.035538
0.036644
0.037720
0.038740
0.039682
0.040536
0.041300
0.041978
0.042578
0.043111
0.043590
0.044031
0.044446
0.044851
0.045259
0.045685
0.046142
0.046645
0.047210
0.047852
0.048592
0.049452
0.050743
0.293437
0.292011
0.287622
0.279165
0.264530
0.240195
0.200867
0.139933
0.052576
-0.060829
-0.150193
-0.209570
-0.248671
-0.276013
-0.297745
-0.318571
-0.341506
-0.367262
-0.393233
-0.412550
-0.420223
-0.414084
-0.394335
-0.363638
-0.325485
-0.283188
-0.239463
-0.196349
-0.155274
-0.117187
-0.082674
-0.052087
-0.025642
-0.003474
0.014445
0.028976
0.040325
0.046028
0.043381
0.032619
0.015328
-0.006325
-0.029711
-0.051705
-0.068951
-0.078741
-0.078215
-0.070230
-0.058958
-0.046351
-0.033718
-0.021838
-0.011122
-0.001750
0.006241
0.012894
0.018302
0.022582
0.025867
0.028289
0.029980
0.031060
0.031644
0.031832
0.031721
0.031399
0.030953
0.030471
0.030037
0.029731
0.029620
0.029752
0.030156
0.030799
0.031659
0.032691
0.033840
0.035046
0.036255
0.037422
0.038512
0.039507
0.040395
0.041177
0.041858
0.042450
0.042965
0.043420
0.043830
0.044210
0.044576
0.044942
0.045322
0.045730
0.046180
0.046687
0.047267
0.047937
0.048716
0.049888
0.321139
0.320546
0.318506
0.313846
0.304105
0.284551
0.246514
0.175621
0.052234
-0.134172
-0.238356
-0.283920
-0.306535
-0.319571
-0.329842
-0.343242
-0.363931
-0.393737
-0.430667
-0.464967
-0.481098
-0.476687
-0.453049
-0.415101
-0.368240
-0.317007
-0.264789
-0.213948
-0.166049
-0.122083
-0.082653
-0.048143
-0.018890
0.004653
0.021981
0.033184
0.041489
0.047516
0.043204
0.030571
0.012731
-0.008133
-0.030231
-0.051408
-0.069037
-0.080578
-0.084524
-0.078309
-0.066880
-0.053618
-0.040121
-0.027308
-0.015667
-0.005415
0.003384
0.010758
0.016790
0.021590
0.025287
0.028015
0.029909
0.031100
0.031709
0.031851
0.031630
0.031148
0.030508
0.029814
0.029174
0.028687
0.028440
0.028495
0.028891
0.029587
0.030554
0.031730
0.033039
0.034404
0.035759
0.037048
0.038236
0.039301
0.040234
0.041039
0.041726
0.042309
0.042804
0.043230
0.043605
0.043944
0.044265
0.044581
0.044907
0.045257
0.045643
0.046080
0.046582
0.047165
0.047845
0.048872
0.349889
0.350406
0.351596
0.352552
0.351109
0.342308
0.314686
0.241810
0.056726
-0.298213
-0.373361
-0.365064
-0.359696
-0.354945
-0.351306
-0.355205
-0.371195
-0.401959
-0.448150
-0.501998
-0.537985
-0.538276
-0.511822
-0.467256
-0.412349
-0.352892
-0.292855
-0.234869
-0.180633
-0.131213
-0.087270
-0.049256
-0.017680
0.006514
0.021860
0.028212
0.028630
0.025894
0.020018
0.009880
-0.003204
-0.018127
-0.034010
-0.049685
-0.063459
-0.073372
-0.077824
-0.076199
-0.067084
-0.054998
-0.042191
-0.029693
-0.018087
-0.007677
0.001400
0.009113
0.015497
0.020624
0.024599
0.027541
0.029576
0.030834
0.031438
0.031504
0.031145
0.030471
0.029599
0.028656
0.027774
0.027083
0.026692
0.026680
0.027089
0.027897
0.029047
0.030447
0.031992
0.033583
0.035136
0.036589
0.037903
0.039058
0.040049
0.040885
0.041580
0.042154
0.042627
0.043021
0.043356
0.043650
0.043919
0.044179
0.044444
0.044727
0.045040
0.045395
0.045806
0.046286
0.046851
0.047710
0.377663
0.379443
0.384406
0.392305
0.402263
0.411438
0.410812
0.370340
0.152668
-0.617505
-0.532171
-0.411468
-0.388877
-0.375811
-0.363248
-0.362228
-0.376128
-0.404509
-0.450348
-0.509492
-0.563944
-0.578010
-0.551800
-0.504619
-0.446037
-0.382565
-0.318457
-0.256545
-0.198736
-0.146332
-0.100315
-0.061686
-0.031826
-0.012274
-0.003496
-0.003593
-0.008478
-0.015169
-0.020443
-0.025224
-0.030323
-0.036055
-0.042560
-0.049634
-0.056532
-0.062020
-0.064760
-0.063814
-0.059032
-0.049670
-0.038936
-0.027982
-0.017456
-0.007745
0.000929
0.008452
0.014782
0.019933
0.023962
0.026952
0.029008
0.030241
0.030766
0.030693
0.030133
0.029201
0.028031
0.026776
0.025604
0.024682
0.024152
0.024113
0.024601
0.025628
0.027080
0.028816
0.030692
0.032583
0.034391
0.036049
0.037518
0.038781
0.039841
0.040712
0.041418
0.041982
0.042432
0.042791
0.043082
0.043326
0.043539
0.043738
0.043936
0.044144
0.044375
0.044640
0.044949
0.045314
0.045749
0.046419
0.402159
0.405120
0.413653
0.428341
0.450162
0.480384
0.519926
0.565967
0.654444
0.018470
-0.461660
-0.391149
-0.393782
-0.388812
-0.383516
-0.383986
-0.395247
-0.417432
-0.454526
-0.504841
-0.554056
-0.579261
-0.558334
-0.513602
-0.457551
-0.396434
-0.334253
-0.273897
-0.217543
-0.166931
-0.123676
-0.089559
-0.066408
-0.055058
-0.053898
-0.058747
-0.064938
-0.069425
-0.069213
-0.066141
-0.061792
-0.057321
-0.053591
-0.051130
-0.049980
-0.049620
-0.049115
-0.047470
-0.044017
-0.038609
-0.030667
-0.022079
-0.013451
-0.005192
0.002417
0.009187
0.015000
0.019801
0.023585
0.026389
0.028279
0.029338
0.029655
0.029326
0.028450
0.027150
0.025579
0.023929
0.022416
0.021260
0.020641
0.020666
0.021401
0.022817
0.024722
0.026914
0.029211
0.031465
0.033571
0.035461
0.037099
0.038479
0.039613
0.040522
0.041238
0.041792
0.042215
0.042537
0.042782
0.042972
0.043127
0.043260
0.043386
0.043515
0.043658
0.043823
0.044022
0.044262
0.044554
0.045017
0.421235
0.425019
0.436029
0.455370
0.485150
0.529017
0.593301
0.688567
0.819237
0.839945
0.000000
-0.394995
-0.398840
-0.402680
-0.407033
-0.414468
-0.425491
-0.441899
-0.465903
-0.496175
-0.524825
-0.537432
-0.528118
-0.488680
-0.440011
-0.386895
-0.332536
-0.279659
-0.230599
-0.187505
-0.152584
-0.128111
-0.115557
-0.113911
-0.119055
-0.125554
-0.129234
-0.126703
-0.118058
-0.105587
-0.091327
-0.076916
-0.063615
-0.052326
-0.043540
-0.037249
-0.032925
-0.029687
-0.026615
-0.023043
-0.018481
-0.012571
-0.006291
0.000006
0.006035
0.011565
0.016421
0.020486
0.023695
0.026033
0.027519
0.028196
0.028119
0.027357
0.026000
0.024178
0.022081
0.019955
0.018090
0.016760
0.016181
0.016462
0.017699
0.019700
0.022195
0.024933
0.027703
0.030349
0.032762
0.034882
0.036686
0.038177
0.039376
0.040318
0.041039
0.041579
0.041974
0.042256
0.042454
0.042589
0.042683
0.042748
0.042799
0.042845
0.042896
0.042958
0.043038
0.043145
0.043285
0.043525
0.433394
0.437473
0.449322
0.470032
0.501527
0.546596
0.608462
0.688568
0.780648
0.860653
0.766169
0.000000
-0.407905
-0.416970
-0.430907
-0.449285
-0.467681
-0.481300
-0.487875
-0.489678
-0.487114
-0.475777
-0.460000
-0.430692
-0.391057
-0.348856
-0.306122
-0.265225
-0.228497
-0.198390
-0.177512
-0.167919
-0.169368
-0.178080
-0.188037
-0.193786
-0.192024
-0.179743
-0.161154
-0.138728
-0.114831
-0.091402
-0.069889
-0.051296
-0.036220
-0.024855
-0.016947
-0.011799
-0.008440
-0.005892
-0.003395
-0.000376
0.003455
0.007556
0.011695
0.015643
0.019195
0.022188
0.024509
0.026095
0.026914
0.026965
0.026262
0.024847
0.022806
0.020294
0.017560
0.014932
0.012777
0.011422
0.011074
0.011928
0.013913
0.016644
0.019806
0.023119
0.026360
0.029374
0.032064
0.034383
0.036322
0.037899
0.039145
0.040105
0.040822
0.041342
0.041705
0.041947
0.042096
0.042177
0.042208
0.042206
0.042182
0.042144
0.042099
0.042054
0.042014
0.041982
0.041964
0.041967
0.438100
0.441945
0.453045
0.472126
0.500370
0.539261
0.589729
0.649661
0.705552
0.719653
0.671686
0.547689
0.000000
-0.436561
-0.456151
-0.499718
-0.531667
-0.542950
-0.524846
-0.488969
-0.447962
-0.408865
-0.374440
-0.340916
-0.311237
-0.280369
-0.250414
-0.224131
-0.203933
-0.192354
-0.191579
-0.201879
-0.219917
-0.239189
-0.252871
-0.256625
-0.245325
-0.223356
-0.194892
-0.163078
-0.130611
-0.099602
-0.071547
-0.047388
-0.027630
-0.012426
-0.001598
0.005387
0.009403
0.011504
0.012688
0.013704
0.015064
0.016973
0.019121
0.021319
0.023353
0.025035
0.026218
0.026797
0.026697
0.025869
0.024291
0.021988
0.019059
0.015715
0.012289
0.009209
0.006913
0.005758
0.005949
0.007694
0.010524
0.014033
0.017857
0.021702
0.025351
0.028663
0.031562
0.034019
0.036043
0.037665
0.038929
0.039886
0.040587
0.041080
0.041407
0.041606
0.041708
0.041735
0.041707
0.041638
0.041539
0.041418
0.041279
0.041127
0.040964
0.040792
0.040612
0.040373
0.435779
0.439056
0.448427
0.464230
0.486844
0.516228
0.550952
0.585829
0.607688
0.591083
0.518088
0.423692
0.246514
0.000000
-0.514202
-0.572253
-0.610247
-0.612770
-0.563027
-0.487604
-0.408281
-0.338053
-0.282370
-0.239979
-0.209132
-0.187478
-0.169021
-0.158810
-0.158825
-0.170660
-0.194457
-0.227226
-0.262291
-0.291269
-0.307210
-0.306403
-0.285205
-0.254030
-0.216923
-0.177409
-0.138344
-0.101834
-0.069268
-0.041420
-0.018599
-0.000798
0.012204
0.020842
0.025810
0.028038
0.028555
0.028276
0.027860
0.027682
0.027921
0.028379
0.028834
0.029088
0.028975
0.028358
0.027123
0.025184
0.022496
0.019085
0.015098
0.010833
0.006733
0.003323
0.001088
0.000336
0.001452
0.004220
0.007938
0.012183
0.016581
0.020848
0.024789
0.028290
0.031301
0.033817
0.035863
0.037483
0.038731
0.039662
0.040332
0.040789
0.041078
0.041235
0.041290
0.041267
0.041183
0.041051
0.040881
0.040678
0.040448
0.040191
0.039907
0.039596
0.039255
0.038773
0.427460
0.429931
0.436901
0.448302
0.463795
0.482295
0.501090
0.514289
0.510808
0.472945
0.382401
0.228609
0.069335
-0.385926
-0.680704
-0.620076
-0.659226
-0.639528
-0.568600
-0.469612
-0.364649
-0.271259
-0.198481
-0.145525
-0.108652
-0.086584
-0.077966
-0.083866
-0.105618
-0.142207
-0.190363
-0.243642
-0.292967
-0.329130
-0.345951
-0.335190
-0.307044
-0.268925
-0.225724
-0.181250
-0.138346
-0.098959
-0.064253
-0.034764
-0.010568
0.008545
0.022922
0.032966
0.039176
0.042220
0.042928
0.042165
0.040660
0.038971
0.037620
0.036531
0.035495
0.034326
0.032855
0.030926
0.028397
0.025158
0.021161
0.016473
0.011324
0.006127
0.001448
-0.002107
-0.004028
-0.004026
-0.001689
0.001996
0.006487
0.011316
0.016118
0.020637
0.024714
0.028271
0.031284
0.033772
0.035774
0.037345
0.038544
0.039429
0.040055
0.040471
0.040720
0.040836
0.040848
0.040778
0.040641
0.040451
0.040214
0.039936
0.039618
0.039261
0.038861
0.038416
0.037919
0.037202
0.414607
0.416184
0.420541
0.427324
0.435739
0.444154
0.449455
0.446115
0.425121
0.373043
0.271849
0.096140
-0.208639
-0.841188
-0.741332
-0.640902
-0.627787
-0.590724
-0.516521
-0.418373
-0.313682
-0.217767
-0.139655
-0.079934
-0.035050
-0.005788
-0.001608
-0.020683
-0.061408
-0.118271
-0.184540
-0.251431
-0.308762
-0.347064
-0.359589
-0.341665
-0.308808
-0.267000
-0.221208
-0.175192
-0.131596
-0.092106
-0.057627
-0.028469
-0.004524
0.014581
0.029334
0.040218
0.047648
0.052032
0.053872
0.053767
0.052326
0.050050
0.047605
0.045341
0.043036
0.040556
0.037756
0.034476
0.030560
0.025897
0.020472
0.014429
0.008116
0.002087
-0.002985
-0.006450
-0.007849
-0.006475
-0.003150
0.001311
0.006352
0.011522
0.016492
0.021052
0.025089
0.028558
0.031465
0.033843
0.035745
0.037228
0.038353
0.039177
0.039752
0.040124
0.040334
0.040412
0.040386
0.040274
0.040092
0.039849
0.039551
0.039203
0.038805
0.038353
0.037846
0.037275
0.036632
0.035692
0.398846
0.399569
0.401468
0.404038
0.406283
0.406429
0.401509
0.386832
0.355433
0.297562
0.200058
0.045080
-0.191450
-0.497021
-0.562803
-0.554821
-0.535091
-0.497775
-0.437002
-0.358433
-0.272941
-0.191051
-0.119564
-0.060481
-0.014077
0.021566
0.032148
0.007273
-0.042571
-0.108251
-0.181025
-0.251034
-0.307909
-0.343006
-0.344749
-0.324944
-0.291248
-0.249775
-0.205270
-0.161190
-0.119862
-0.082691
-0.050367
-0.023059
-0.000575
0.017498
0.031686
0.042530
0.050508
0.055999
0.059283
0.060600
0.060271
0.058648
0.056566
0.053857
0.050715
0.047190
0.043214
0.038654
0.033367
0.027275
0.020437
0.013115
0.005805
-0.000801
-0.005946
-0.009019
-0.009266
-0.006690
-0.002640
0.002278
0.007536
0.012731
0.017597
0.021976
0.025800
0.029055
0.031764
0.033971
0.035732
0.037102
0.038139
0.038895
0.039418
0.039749
0.039924
0.039970
0.039911
0.039764
0.039542
0.039253
0.038903
0.038492
0.038021
0.037485
0.036879
0.036193
0.035417
0.034275
0.381730
0.381717
0.381522
0.380603
0.377950
0.371911
0.359951
0.338398
0.302253
0.245167
0.159719
0.038678
-0.119605
-0.294144
-0.387215
-0.421195
-0.422162
-0.399229
-0.357737
-0.301894
-0.238694
-0.175192
-0.116597
-0.065721
-0.022614
0.009211
0.015957
-0.005628
-0.050825
-0.111605
-0.178408
-0.240892
-0.288687
-0.313147
-0.309928
-0.290321
-0.259304
-0.221814
-0.181878
-0.142454
-0.105528
-0.072286
-0.043301
-0.018699
0.001698
0.018259
0.031452
0.041770
0.049671
0.055530
0.059614
0.062096
0.063105
0.063692
0.062731
0.060395
0.057088
0.053034
0.048261
0.042693
0.036246
0.028927
0.020915
0.012626
0.004712
-0.002016
-0.006762
-0.008947
-0.007673
-0.004531
-0.000195
0.004744
0.009821
0.014711
0.019212
0.023217
0.026690
0.029637
0.032088
0.034088
0.035687
0.036936
0.037884
0.038575
0.039051
0.039347
0.039493
0.039514
0.039431
0.039256
0.039002
0.038676
0.038280
0.037816
0.037281
0.036671
0.035978
0.035191
0.034298
0.032978
0.364603
0.364003
0.362156
0.358554
0.352295
0.341980
0.325608
0.300495
0.263308
0.210315
0.138050
0.044846
-0.065663
-0.179340
-0.260317
-0.305146
-0.321116
-0.314532
-0.290493
-0.253923
-0.209816
-0.163171
-0.118069
-0.077247
-0.042459
-0.020046
-0.016137
-0.033159
-0.068772
-0.117150
-0.170201
-0.218690
-0.253605
-0.266982
-0.263706
-0.247166
-0.221286
-0.189892
-0.156210
-0.122693
-0.091039
-0.062302
-0.037023
-0.015358
0.002803
0.017742
0.029838
0.039507
0.047146
0.053102
0.057635
0.060909
0.063493
0.064847
0.064789
0.063341
0.060630
0.056760
0.051784
0.045708
0.038563
0.030491
0.021829
0.013160
0.005273
-0.000977
-0.004904
-0.005336
-0.003590
-0.000368
0.003746
0.008257
0.012794
0.017107
0.021050
0.024553
0.027594
0.030186
0.032355
0.034138
0.035575
0.036708
0.037573
0.038209
0.038648
0.038919
0.039047
0.039052
0.038952
0.038759
0.038481
0.038125
0.037693
0.037184
0.036597
0.035924
0.035158
0.034287
0.033295
0.031825
0.348541
0.347498
0.344425
0.338889
0.330143
0.317085
0.298225
0.271713
0.235466
0.187489
0.126499
0.052998
-0.029029
-0.110583
-0.176342
-0.220331
-0.243128
-0.247538
-0.237011
-0.215068
-0.185759
-0.152862
-0.119701
-0.088744
-0.063505
-0.047776
-0.045181
-0.057329
-0.082876
-0.117721
-0.155713
-0.189719
-0.212984
-0.222044
-0.219223
-0.206219
-0.185658
-0.160325
-0.132719
-0.104844
-0.078164
-0.053640
-0.031809
-0.012876
0.003196
0.016606
0.027650
0.036666
0.043992
0.049934
0.054746
0.058643
0.061701
0.063618
0.064271
0.063594
0.061573
0.058205
0.053489
0.047457
0.040229
0.032081
0.023508
0.015223
0.008076
0.002847
0.000450
0.000504
0.002155
0.004944
0.008412
0.012173
0.015944
0.019536
0.022837
0.025791
0.028383
0.030615
0.032508
0.034085
0.035375
0.036405
0.037203
0.037797
0.038212
0.038470
0.038590
0.038591
0.038484
0.038281
0.037989
0.037612
0.037152
0.036609
0.035980
0.035257
0.034433
0.033495
0.032427
0.030839
0.334353
0.332991
0.329049
0.322188
0.311828
0.297139
0.277064
0.250387
0.215884
0.172610
0.120361
0.060319
-0.004201
-0.067386
-0.121477
-0.161731
-0.186836
-0.197616
-0.196074
-0.184617
-0.166211
-0.143851
-0.120266
-0.098069
-0.080024
-0.068820
-0.066722
-0.074720
-0.091928
-0.115537
-0.141253
-0.164149
-0.179813
-0.186227
-0.183748
-0.173404
-0.156940
-0.136362
-0.113593
-0.090270
-0.067652
-0.046611
-0.027670
-0.011063
0.003200
0.015259
0.025352
0.033757
0.040760
0.046622
0.051557
0.055761
0.059087
0.061426
0.062640
0.062606
0.061229
0.058448
0.054239
0.048657
0.041886
0.034298
0.026475
0.019163
0.013159
0.009134
0.007308
0.007132
0.008262
0.010324
0.012960
0.015873
0.018839
0.021707
0.024382
0.026814
0.028982
0.030882
0.032523
0.033917
0.035079
0.036026
0.036775
0.037344
0.037749
0.038007
0.038132
0.038138
0.038035
0.037831
0.037533
0.037145
0.036667
0.036100
0.035439
0.034679
0.033812
0.032827
0.031707
0.030039
0.322622
0.321030
0.316487
0.308754
0.297399
0.281820
0.261286
0.235028
0.202374
0.162981
0.117143
0.066161
0.012653
-0.039445
-0.085517
-0.122104
-0.147569
-0.161837
-0.165944
-0.161609
-0.150933
-0.136282
-0.119980
-0.104286
-0.091377
-0.083236
-0.081382
-0.086440
-0.097797
-0.113546
-0.130767
-0.146142
-0.156771
-0.160961
-0.158364
-0.149575
-0.135780
-0.118459
-0.099121
-0.079118
-0.059539
-0.041168
-0.024497
-0.009760
0.003010
0.013926
0.023192
0.031050
0.037748
0.043510
0.048513
0.052854
0.056416
0.059117
0.060817
0.061361
0.060608
0.058462
0.054895
0.049985
0.043966
0.037248
0.030412
0.024132
0.019042
0.015580
0.013650
0.013080
0.013614
0.014958
0.016829
0.018986
0.021245
0.023478
0.025603
0.027575
0.029370
0.030979
0.032402
0.033641
0.034700
0.035585
0.036304
0.036864
0.037274
0.037545
0.037687
0.037708
0.037617
0.037421
0.037126
0.036734
0.036247
0.035664
0.034983
0.034197
0.033302
0.032289
0.031144
0.029447
0.313774
0.311983
0.307006
0.298707
0.286767
0.270747
0.250142
0.224472
0.193403
0.156918
0.115525
0.070470
0.023860
-0.021446
-0.062291
-0.096071
-0.121238
-0.137361
-0.144947
-0.145185
-0.139705
-0.130383
-0.119170
-0.107964
-0.098543
-0.092446
-0.090786
-0.094006
-0.101679
-0.112464
-0.124306
-0.134859
-0.142058
-0.144412
-0.141415
-0.133384
-0.121162
-0.105895
-0.088816
-0.071073
-0.053621
-0.037169
-0.022170
-0.008848
0.002763
0.012766
0.021348
0.028738
0.035162
0.040823
0.045876
0.050330
0.054112
0.057140
0.059265
0.060312
0.060114
0.058554
0.055603
0.051354
0.046059
0.040127
0.034094
0.028538
0.023965
0.020619
0.018560
0.017673
0.017748
0.018545
0.019828
0.021396
0.023095
0.024816
0.026492
0.028082
0.029568
0.030936
0.032180
0.033296
0.034278
0.035123
0.035828
0.036393
0.036820
0.037113
0.037279
0.037322
0.037250
0.037068
0.036781
0.036392
0.035903
0.035312
0.034618
0.033817
0.032905
0.031877
0.030734
0.029089
0.308174
0.306081
0.300732
0.292059
0.279792
0.263580
0.243052
0.217897
0.187967
0.153410
0.114816
0.073353
0.030803
-0.010552
-0.048266
-0.080222
-0.105013
-0.122080
-0.131665
-0.134646
-0.132348
-0.126351
-0.118331
-0.109932
-0.102673
-0.097835
-0.096321
-0.098496
-0.104049
-0.111967
-0.120679
-0.128361
-0.133356
-0.134419
-0.131027
-0.123336
-0.111990
-0.097936
-0.082231
-0.065891
-0.049782
-0.034556
-0.020640
-0.008246
0.002591
0.011968
0.020064
0.027096
0.033283
0.038821
0.043885
0.048430
0.052413
0.055727
0.058202
0.059641
0.059861
0.058731
0.056223
0.052439
0.047638
0.042222
0.036687
0.031561
0.027269
0.024004
0.021875
0.020787
0.020565
0.021000
0.021886
0.023051
0.024360
0.025721
0.027078
0.028396
0.029657
0.030850
0.031965
0.032992
0.033920
0.034738
0.035437
0.036011
0.036456
0.036771
0.036959
0.037023
0.036969
0.036801
0.036524
0.036140
0.035652
0.035058
0.034358
0.033547
0.032623
0.031582
0.030438
0.028974
0.306395
0.303391
0.297664
0.288768
0.276354
0.260087
0.239652
0.214813
0.185500
0.151924
0.114699
0.074935
0.034263
-0.005288
-0.041562
-0.072656
-0.097240
-0.114718
-0.125221
-0.129494
-0.128714
-0.124315
-0.117835
-0.110784
-0.104550
-0.100298
-0.098845
-0.100536
-0.105122
-0.111740
-0.119034
-0.125437
-0.129500
-0.129965
-0.126380
-0.118845
-0.107912
-0.094427
-0.079361
-0.063664
-0.048154
-0.033459
-0.019996
-0.007976
0.002561
0.011703
0.019620
0.026519
0.032606
0.038050
0.042934
0.047464
0.051580
0.055098
0.057806
0.059482
0.059926
0.059003
0.056683
0.053085
0.048482
0.043278
0.037950
0.032945
0.028638
0.025418
0.023280
0.022129
0.021799
0.022096
0.022829
0.023835
0.024990
0.026206
0.027431
0.028632
0.029792
0.030901
0.031948
0.032923
0.033813
0.034606
0.035291
0.035859
0.036303
0.036622
0.036816
0.036887
0.036839
0.036677
0.036403
0.036022
0.035533
0.034938
0.034234
0.033419
0.032485
0.031426
0.030222
0.028861
