# vtk DataFile Version 3.0
Scalar Field
ASCII
DATASET RECTILINEAR_GRID
DIMENSIONS 100 26 1
X_COORDINATES 100 double
0.050000 0.150000 0.250000 0.350000 0.450000 0.550000 0.650000 0.750000 0.850000 0.950000 1.050000 1.150000 1.250000 1.350000 1.450000 1.550000 1.650000 1.750000 1.850000 1.950000 2.050000 2.150000 2.250000 2.350000 2.450000 2.550000 2.650000 2.750000 2.850000 2.950000 3.050000 3.150000 3.250000 3.350000 3.450000 3.550000 3.650000 3.750000 3.850000 3.950000 4.050000 4.150000 4.250000 4.350000 4.450000 4.550000 4.650000 4.750000 4.850000 4.950000 5.050000 5.150000 5.250000 5.350000 5.450000 5.550000 5.650000 5.750000 5.850000 5.950000 6.050000 6.150000 6.250000 6.350000 6.450000 6.550000 6.650000 6.750000 6.850000 6.950000 7.050000 7.150000 7.250000 7.350000 7.450000 7.550000 7.650000 7.750000 7.850000 7.950000 8.050000 8.150000 8.250000 8.350000 8.450000 8.550000 8.650000 8.750000 8.850000 8.950000 9.050000 9.150000 9.250000 9.350000 9.450000 9.550000 9.650000 9.750000 9.850000 9.950000 
Y_COORDINATES 26 double
0.050000 0.150000 0.250000 0.350000 0.450000 0.550000 0.650000 0.750000 0.850000 0.950000 1.050000 1.150000 1.250000 1.350000 1.450000 1.550000 1.650000 1.750000 1.850000 1.950000 2.050000 2.150000 2.250000 2.350000 2.450000 2.550000 
Z_COORDINATES 1 double
0.0
POINT_DATA 2600
SCALARS Skalarfeld double 1
LOOKUP_TABLE default
0.265735
0.250400
0.235055
0.216681
0.194194
0.167172
0.135645
0.100089
0.061485
0.021326
-0.018506
-0.056048
-0.089589
-0.117927
-0.140297
-0.156185
-0.165903
-0.170045
-0.169409
-0.164903
-0.157478
-0.148058
-0.137503
-0.126567
-0.115864
-0.105832
-0.096704
-0.088495
-0.081048
-0.074138
-0.067597
-0.061406
-0.055731
-0.050883
-0.047227
-0.045066
-0.044522
-0.045441
-0.047356
-0.049491
-0.050794
-0.049975
-0.045793
-0.037622
-0.025349
-0.011887
0.001196
0.013213
0.023929
0.033292
0.041288
0.047894
0.053098
0.056903
0.059200
0.060171
0.059281
0.056098
0.050328
0.042035
0.031902
0.021234
0.011470
0.003432
-0.002952
-0.008153
-0.012382
-0.015428
-0.017002
-0.016977
-0.015379
-0.012740
-0.009501
-0.005991
-0.002528
0.000603
0.003113
0.004919
0.005938
0.006223
0.006062
0.005833
0.005971
0.006865
0.008677
0.011455
0.014852
0.018652
0.022765
0.027112
0.031601
0.036146
0.040712
0.045348
0.050138
0.055160
0.060471
0.065884
0.071042
0.075827
0.256990
0.250457
0.238080
0.220854
0.198657
0.171326
0.138922
0.101929
0.061417
0.019098
-0.022800
-0.061997
-0.096589
-0.125235
-0.147266
-0.162768
-0.171845
-0.175134
-0.173506
-0.167942
-0.159459
-0.149053
-0.137652
-0.126080
-0.115011
-0.104926
-0.096058
-0.088360
-0.081557
-0.075289
-0.069282
-0.063460
-0.057977
-0.053165
-0.049428
-0.047107
-0.046364
-0.047075
-0.048796
-0.050771
-0.051921
-0.050753
-0.045460
-0.035630
-0.024034
-0.011299
0.001203
0.012793
0.023216
0.032401
0.040324
0.046959
0.052310
0.056485
0.059603
0.060795
0.060035
0.056899
0.051010
0.042413
0.031906
0.020993
0.011222
0.003303
-0.003079
-0.008531
-0.013168
-0.016522
-0.018062
-0.017886
-0.016060
-0.013283
-0.009939
-0.006293
-0.002689
0.000599
0.003380
0.005352
0.006330
0.006452
0.006105
0.005673
0.005642
0.006473
0.008405
0.011135
0.014445
0.018227
0.022387
0.026822
0.031413
0.036061
0.040714
0.045404
0.050207
0.055218
0.060633
0.066175
0.071403
0.076273
0.260301
0.256115
0.245595
0.229330
0.207279
0.179220
0.145067
0.105207
0.060812
0.014022
-0.032121
-0.074638
-0.111316
-0.140866
-0.162806
-0.177277
-0.184810
-0.186087
-0.182147
-0.174131
-0.163221
-0.150590
-0.137350
-0.124507
-0.112912
-0.103150
-0.095443
-0.089542
-0.084817
-0.080515
-0.076070
-0.071249
-0.066164
-0.061176
-0.056759
-0.053338
-0.051154
-0.050168
-0.050008
-0.049962
-0.048990
-0.045864
-0.039623
-0.030239
-0.019033
-0.007761
0.003355
0.013747
0.023189
0.031593
0.038908
0.045090
0.050117
0.054011
0.056769
0.058278
0.057762
0.054686
0.049167
0.041284
0.031762
0.021757
0.012412
0.004268
-0.002764
-0.008891
-0.013934
-0.017348
-0.018689
-0.017972
-0.016219
-0.013720
-0.010489
-0.006793
-0.003154
0.000180
0.002932
0.004881
0.005958
0.006262
0.005998
0.005621
0.005602
0.006321
0.007949
0.010407
0.013580
0.017363
0.021635
0.026248
0.031041
0.035879
0.040699
0.045543
0.050561
0.055986
0.061653
0.067391
0.072672
0.075758
0.271356
0.267924
0.258399
0.242769
0.220643
0.191415
0.154573
0.110164
0.059395
0.005064
-0.048026
-0.095607
-0.135134
-0.165577
-0.186880
-0.199568
-0.204488
-0.202569
-0.195054
-0.183283
-0.168657
-0.152589
-0.136445
-0.121503
-0.108917
-0.099531
-0.093561
-0.090536
-0.089201
-0.088054
-0.086061
-0.082761
-0.078225
-0.072890
-0.067345
-0.062135
-0.057619
-0.053878
-0.050684
-0.047514
-0.043636
-0.038303
-0.031083
-0.022136
-0.012188
-0.001981
0.007681
0.016657
0.024812
0.032061
0.038333
0.043565
0.047719
0.050811
0.052842
0.053689
0.053034
0.050561
0.045689
0.038541
0.030041
0.020955
0.012197
0.004257
-0.002713
-0.008643
-0.013300
-0.016360
-0.017675
-0.017398
-0.015874
-0.013199
-0.009874
-0.006445
-0.003106
0.000080
0.002685
0.004512
0.005492
0.005707
0.005408
0.004988
0.004863
0.005377
0.006737
0.008972
0.012033
0.015828
0.020222
0.025040
0.030097
0.035243
0.040405
0.045622
0.051042
0.056778
0.062872
0.069271
0.075773
0.082138
0.288726
0.285677
0.276891
0.261891
0.239751
0.209166
0.168748
0.117697
0.056947
-0.009920
-0.073856
-0.128377
-0.171028
-0.201712
-0.221258
-0.230836
-0.231678
-0.225084
-0.212470
-0.195390
-0.175516
-0.154559
-0.134195
-0.116022
-0.101782
-0.092903
-0.089676
-0.090973
-0.094686
-0.098109
-0.099391
-0.097863
-0.093697
-0.087578
-0.080352
-0.072774
-0.065370
-0.058376
-0.051744
-0.045197
-0.038337
-0.030803
-0.022458
-0.013477
-0.004279
0.004691
0.013068
0.020741
0.027631
0.033636
0.038685
0.042727
0.045728
0.047770
0.048922
0.049096
0.048022
0.045351
0.040796
0.034465
0.026642
0.018012
0.009760
0.002283
-0.004134
-0.009335
-0.013173
-0.015520
-0.016370
-0.015861
-0.014223
-0.011707
-0.008651
-0.005337
-0.001971
0.000934
0.003246
0.004806
0.005513
0.005414
0.004771
0.003979
0.003440
0.003521
0.004515
0.006462
0.009344
0.013101
0.017588
0.022606
0.027940
0.033409
0.038913
0.044468
0.050208
0.056345
0.063147
0.070909
0.079827
0.094198
0.311692
0.309033
0.301198
0.287316
0.265804
0.234292
0.189796
0.129566
0.053242
-0.035465
-0.115882
-0.178530
-0.223124
-0.252137
-0.267904
-0.272381
-0.267345
-0.254323
-0.234784
-0.210516
-0.183526
-0.155910
-0.129708
-0.106795
-0.089803
-0.081430
-0.082342
-0.090637
-0.102174
-0.112081
-0.117540
-0.117780
-0.113399
-0.105671
-0.095945
-0.085328
-0.074566
-0.064059
-0.053924
-0.044088
-0.034397
-0.024736
-0.015119
-0.005714
0.003224
0.011446
0.018777
0.025119
0.030575
0.035285
0.038988
0.041749
0.043470
0.044372
0.044669
0.044327
0.043052
0.040414
0.036035
0.029810
0.021966
0.013604
0.005594
-0.001604
-0.007470
-0.011851
-0.014708
-0.016074
-0.016064
-0.014876
-0.012756
-0.009971
-0.006800
-0.003508
-0.000350
0.002373
0.004472
0.005712
0.005992
0.005394
0.004150
0.002640
0.001328
0.000622
0.000814
0.002237
0.004765
0.008379
0.012909
0.018108
0.023716
0.029514
0.035373
0.041288
0.047401
0.054005
0.061554
0.070678
0.082219
0.105382
0.339519
0.337437
0.331150
0.319471
0.300128
0.269336
0.221434
0.149397
0.048193
-0.081708
-0.185214
-0.253260
-0.294996
-0.318448
-0.327508
-0.324548
-0.312053
-0.290849
-0.262430
-0.228892
-0.192705
-0.156485
-0.122766
-0.093720
-0.072021
-0.063373
-0.069428
-0.087339
-0.110609
-0.130670
-0.141266
-0.143036
-0.137540
-0.127156
-0.114036
-0.099747
-0.085276
-0.071155
-0.057610
-0.044692
-0.032388
-0.020712
-0.009747
0.000353
0.009414
0.017290
0.023879
0.029101
0.032873
0.035247
0.036826
0.038173
0.038403
0.038008
0.037541
0.037055
0.036149
0.034208
0.030664
0.025207
0.017948
0.009545
0.000849
-0.006370
-0.012056
-0.015910
-0.017971
-0.018395
-0.017420
-0.015337
-0.012455
-0.009082
-0.005504
-0.001980
0.001248
0.003933
0.005838
0.006729
0.006476
0.005127
0.002939
0.000348
-0.002114
-0.003937
-0.004723
-0.004213
-0.002165
0.001280
0.005867
0.011275
0.017183
0.023329
0.029551
0.035822
0.042284
0.049274
0.057364
0.067416
0.080700
0.108672
0.371129
0.369910
0.366065
0.358275
0.343811
0.317468
0.269797
0.185137
0.042135
-0.172136
-0.298344
-0.355918
-0.383505
-0.396241
-0.396030
-0.385496
-0.364979
-0.334503
-0.295717
-0.251209
-0.204091
-0.157707
-0.115339
-0.080001
-0.052078
-0.040677
-0.050609
-0.077645
-0.113370
-0.147210
-0.166651
-0.169997
-0.162866
-0.149342
-0.132591
-0.114649
-0.096683
-0.079290
-0.062741
-0.047151
-0.032580
-0.019107
-0.006849
0.004047
0.013435
0.021178
0.027126
0.031104
0.032993
0.032882
0.031167
0.028403
0.026677
0.025287
0.024837
0.025120
0.025485
0.025126
0.023302
0.019514
0.013656
0.006108
-0.002324
-0.010509
-0.016572
-0.020359
-0.022080
-0.021931
-0.020224
-0.017344
-0.013689
-0.009637
-0.005520
-0.001626
0.001790
0.004476
0.006175
0.006642
0.005727
0.003462
0.000123
-0.003783
-0.007610
-0.010706
-0.012549
-0.012856
-0.011231
-0.007883
-0.003173
0.002491
0.008722
0.015207
0.021749
0.028298
0.034980
0.042136
0.050367
0.060610
0.074245
0.102220
0.404914
0.404864
0.404434
0.402550
0.396717
0.381357
0.343789
0.254902
0.041661
-0.363124
-0.467818
-0.469172
-0.467312
-0.468382
-0.461972
-0.448019
-0.421422
-0.382648
-0.334005
-0.278818
-0.221003
-0.164785
-0.114262
-0.073177
-0.044910
-0.028732
-0.038843
-0.068419
-0.108226
-0.148248
-0.178862
-0.188208
-0.180783
-0.165491
-0.146586
-0.126469
-0.106385
-0.086941
-0.068435
-0.051036
-0.034878
-0.020107
-0.006889
0.004599
0.014162
0.021537
0.026328
0.028096
0.026726
0.022768
0.017390
0.011949
0.007789
0.006349
0.007030
0.009061
0.011520
0.013457
0.014023
0.012592
0.008874
0.003023
-0.004339
-0.012177
-0.019236
-0.023786
-0.025693
-0.025527
-0.023577
-0.020283
-0.016127
-0.011569
-0.007016
-0.002814
0.000740
0.003365
0.004781
0.004729
0.003044
-0.000240
-0.004811
-0.010071
-0.015237
-0.019514
-0.022274
-0.023183
-0.021800
-0.018428
-0.013514
-0.007552
-0.000999
0.005779
0.012544
0.019218
0.025899
0.032893
0.040760
0.050372
0.062981
0.087695
0.438713
0.440026
0.443686
0.449304
0.455717
0.459515
0.450445
0.395212
0.146260
-0.709254
-0.660607
-0.536774
-0.507553
-0.505751
-0.506611
-0.495648
-0.468118
-0.426077
-0.372705
-0.312102
-0.249038
-0.188875
-0.136191
-0.094508
-0.065859
-0.055171
-0.059978
-0.080074
-0.109859
-0.142132
-0.169150
-0.184533
-0.182617
-0.168497
-0.150338
-0.130766
-0.110988
-0.091578
-0.072862
-0.055090
-0.038511
-0.023390
-0.010006
0.001338
0.010269
0.016250
0.018599
0.016821
0.011203
0.003134
-0.005295
-0.012181
-0.016088
-0.016106
-0.013290
-0.008783
-0.003712
0.000887
0.004127
0.005331
0.004103
0.000421
-0.005298
-0.012193
-0.019094
-0.024788
-0.027574
-0.027963
-0.026341
-0.023158
-0.018951
-0.014255
-0.009556
-0.005272
-0.001760
0.000657
0.001670
0.001000
-0.001521
-0.005844
-0.011599
-0.018093
-0.024420
-0.029673
-0.033149
-0.034423
-0.033114
-0.029599
-0.024406
-0.018117
-0.011264
-0.004271
0.002582
0.009179
0.015578
0.022030
0.029002
0.037222
0.047701
0.067322
0.470012
0.472645
0.480311
0.493520
0.513116
0.540112
0.574870
0.613005
0.690082
-0.009586
-0.590092
-0.519576
-0.507057
-0.505429
-0.513678
-0.508541
-0.486386
-0.449446
-0.401290
-0.346556
-0.290168
-0.238632
-0.195040
-0.161401
-0.138933
-0.127072
-0.118614
-0.119465
-0.127983
-0.140973
-0.153940
-0.162352
-0.163353
-0.155665
-0.140966
-0.124616
-0.107674
-0.090605
-0.073725
-0.057368
-0.041919
-0.027809
-0.015495
-0.005489
0.001570
0.004863
0.003578
-0.002486
-0.012255
-0.023398
-0.033241
-0.039856
-0.041746
-0.039178
-0.033472
-0.026008
-0.018054
-0.010693
-0.004799
-0.001028
0.000200
-0.001239
-0.005096
-0.010699
-0.017021
-0.022861
-0.027112
-0.028405
-0.027568
-0.024994
-0.021216
-0.016812
-0.012336
-0.008272
-0.005042
-0.003017
-0.002541
-0.003911
-0.007295
-0.012614
-0.019440
-0.026994
-0.034280
-0.040313
-0.044338
-0.045775
-0.044407
-0.040655
-0.035134
-0.028513
-0.021406
-0.014302
-0.007526
-0.001235
0.004581
0.010101
0.015681
0.021873
0.029424
0.042975
0.496394
0.500010
0.510646
0.529417
0.558481
0.601632
0.665532
0.761595
0.896350
0.932384
0.000000
-0.509601
-0.499625
-0.491075
-0.489385
-0.487084
-0.471849
-0.444750
-0.410043
-0.373155
-0.339048
-0.309883
-0.285163
-0.263351
-0.244076
-0.221723
-0.197838
-0.175584
-0.158480
-0.147272
-0.140693
-0.136525
-0.132447
-0.126894
-0.118972
-0.107422
-0.095073
-0.082168
-0.068925
-0.055699
-0.042989
-0.031385
-0.021543
-0.014214
-0.010315
-0.010869
-0.016575
-0.027019
-0.040213
-0.053140
-0.062974
-0.067953
-0.066704
-0.060741
-0.051619
-0.040897
-0.029946
-0.019873
-0.011510
-0.005443
-0.002044
-0.001458
-0.003539
-0.007780
-0.013313
-0.019038
-0.023889
-0.026550
-0.026737
-0.025120
-0.022151
-0.018410
-0.014490
-0.010932
-0.008211
-0.006749
-0.006926
-0.009056
-0.013302
-0.019554
-0.027330
-0.035790
-0.043874
-0.050539
-0.054983
-0.056451
-0.054926
-0.050887
-0.045032
-0.038120
-0.030848
-0.023767
-0.017253
-0.011508
-0.006571
-0.002340
0.001424
0.005098
0.009183
0.016159
0.516057
0.520127
0.532071
0.553045
0.585138
0.631525
0.695980
0.780133
0.877960
0.968418
0.885995
0.000000
-0.483805
-0.467986
-0.453131
-0.443529
-0.432480
-0.417927
-0.403702
-0.394180
-0.390797
-0.390927
-0.388987
-0.378297
-0.352686
-0.316339
-0.273881
-0.229938
-0.189464
-0.155573
-0.129489
-0.111011
-0.098820
-0.090988
-0.085520
-0.080354
-0.073212
-0.065422
-0.056975
-0.048137
-0.039451
-0.031628
-0.025502
-0.022069
-0.022494
-0.027869
-0.038518
-0.053217
-0.069159
-0.082960
-0.091956
-0.094070
-0.089025
-0.079226
-0.066450
-0.052407
-0.038538
-0.025943
-0.015395
-0.007389
-0.002209
0.000042
-0.000527
-0.003526
-0.008229
-0.013641
-0.018677
-0.022354
-0.023753
-0.023269
-0.021320
-0.018471
-0.015331
-0.012474
-0.010422
-0.009641
-0.010545
-0.013463
-0.018551
-0.025669
-0.034294
-0.043540
-0.052301
-0.059486
-0.064246
-0.065644
-0.063923
-0.059617
-0.053499
-0.046411
-0.039120
-0.032241
-0.026196
-0.021230
-0.017436
-0.014788
-0.013159
-0.012336
-0.012035
-0.011841
0.528174
0.532152
0.543735
0.563724
0.593387
0.634296
0.687877
0.753347
0.818013
0.841450
0.803573
0.690434
0.000000
-0.442476
-0.416965
-0.396747
-0.387588
-0.383963
-0.389645
-0.408055
-0.436143
-0.464842
-0.483190
-0.478318
-0.443091
-0.390799
-0.329918
-0.267252
-0.208402
-0.157206
-0.115817
-0.085016
-0.064360
-0.052294
-0.046473
-0.044304
-0.042976
-0.040349
-0.037089
-0.033221
-0.029283
-0.026074
-0.024604
-0.026108
-0.031927
-0.043007
-0.059045
-0.077932
-0.096200
-0.110288
-0.117758
-0.115845
-0.106959
-0.093327
-0.077052
-0.059969
-0.043536
-0.028811
-0.016485
-0.006953
-0.000398
0.003143
0.003781
0.001833
-0.002096
-0.007129
-0.012249
-0.016542
-0.018963
-0.019540
-0.018626
-0.016730
-0.014447
-0.012370
-0.011052
-0.010995
-0.012644
-0.016340
-0.022228
-0.030139
-0.039518
-0.049443
-0.058776
-0.066373
-0.071325
-0.072604
-0.070726
-0.066267
-0.060057
-0.052997
-0.045911
-0.039459
-0.034104
-0.030133
-0.027689
-0.026821
-0.027512
-0.029696
-0.033283
-0.039827
0.532924
0.536385
0.546387
0.563375
0.587945
0.620390
0.659566
0.700635
0.730517
0.723127
0.661084
0.577295
0.414919
0.000000
-0.385274
-0.353582
-0.348883
-0.351940
-0.371198
-0.410667
-0.465864
-0.520915
-0.554607
-0.540373
-0.494847
-0.430079
-0.355973
-0.280556
-0.209836
-0.147798
-0.096694
-0.057462
-0.029993
-0.013238
-0.005256
-0.003460
-0.005163
-0.007623
-0.009304
-0.010305
-0.011263
-0.013093
-0.016979
-0.024343
-0.036520
-0.054027
-0.075736
-0.098691
-0.118933
-0.132810
-0.137883
-0.131742
-0.119028
-0.101991
-0.082832
-0.063398
-0.045090
-0.028873
-0.015327
-0.004746
0.002780
0.007278
0.008873
0.007829
0.004638
0.000059
-0.004963
-0.009490
-0.012784
-0.014228
-0.014221
-0.013194
-0.011715
-0.010381
-0.009768
-0.010406
-0.012763
-0.017183
-0.023798
-0.032409
-0.042430
-0.052916
-0.062703
-0.070608
-0.075617
-0.076765
-0.074858
-0.070463
-0.064435
-0.057702
-0.051115
-0.045355
-0.040914
-0.038111
-0.037142
-0.038128
-0.041155
-0.046298
-0.053642
-0.066602
0.531270
0.534000
0.541793
0.554684
0.572514
0.594433
0.617954
0.637375
0.641634
0.613001
0.534012
0.396455
0.252543
-0.155577
-0.382998
-0.325509
-0.315014
-0.320307
-0.350078
-0.405314
-0.477112
-0.544263
-0.578399
-0.556244
-0.504143
-0.432999
-0.353108
-0.272638
-0.197383
-0.130996
-0.075452
-0.031570
0.000635
0.021820
0.033303
0.037015
0.035259
0.030098
0.024631
0.019544
0.014002
0.007000
-0.002739
-0.016638
-0.035737
-0.059861
-0.086999
-0.113501
-0.135131
-0.148480
-0.148707
-0.139543
-0.123966
-0.104594
-0.083676
-0.062983
-0.043791
-0.026924
-0.012846
-0.001749
0.006349
0.011524
0.013907
0.013711
0.011314
0.007341
0.002630
-0.001922
-0.005580
-0.007707
-0.008404
-0.008070
-0.007250
-0.006541
-0.006534
-0.007781
-0.010763
-0.015819
-0.023056
-0.032243
-0.042765
-0.053661
-0.063763
-0.071926
-0.076583
-0.077848
-0.076169
-0.072155
-0.066670
-0.060632
-0.054881
-0.050092
-0.046763
-0.045237
-0.045757
-0.048517
-0.053703
-0.061524
-0.072232
-0.090934
0.524562
0.526437
0.531691
0.540068
0.550915
0.562777
0.572709
0.575316
0.561667
0.518508
0.428680
0.269448
-0.006760
-0.563697
-0.440486
-0.325584
-0.295344
-0.302403
-0.338929
-0.399644
-0.472858
-0.536844
-0.551303
-0.526878
-0.474475
-0.404960
-0.327870
-0.250567
-0.178137
-0.113680
-0.058772
-0.013959
0.020786
0.045766
0.061603
0.069404
0.070635
0.066834
0.060000
0.052404
0.043054
0.031125
0.015521
-0.004881
-0.030536
-0.060455
-0.091867
-0.120652
-0.142393
-0.153246
-0.149893
-0.138468
-0.121444
-0.101314
-0.080170
-0.059593
-0.040675
-0.024092
-0.010199
0.000887
0.009191
0.014813
0.017878
0.018543
0.017080
0.013961
0.009880
0.005646
0.001982
-0.000471
-0.001590
-0.001716
-0.001364
-0.001122
-0.001588
-0.003330
-0.006829
-0.012408
-0.020137
-0.029746
-0.040595
-0.051711
-0.061915
-0.069978
-0.074527
-0.076099
-0.074945
-0.071686
-0.067148
-0.062198
-0.057621
-0.054052
-0.051972
-0.051736
-0.053631
-0.057919
-0.064883
-0.074851
-0.088238
-0.111577
0.514382
0.515406
0.518182
0.522289
0.526850
0.530226
0.529571
0.520295
0.495512
0.445640
0.358087
0.216753
0.002243
-0.263338
-0.304458
-0.286366
-0.281348
-0.297087
-0.333967
-0.388086
-0.447283
-0.485624
-0.489138
-0.464485
-0.417795
-0.357087
-0.289841
-0.222014
-0.157820
-0.099888
-0.049590
-0.007396
0.026794
0.053359
0.072714
0.085128
0.091016
0.091241
0.088609
0.081184
0.069577
0.053803
0.033367
0.007763
-0.022722
-0.056358
-0.089867
-0.118959
-0.139303
-0.144972
-0.140530
-0.128772
-0.112283
-0.093318
-0.073667
-0.054642
-0.037132
-0.021683
-0.008581
0.002077
0.010315
0.016220
0.019893
0.021449
0.021065
0.019071
0.015995
0.012511
0.009277
0.006916
0.005701
0.005366
0.005452
0.005394
0.004591
0.002473
-0.001429
-0.007408
-0.015484
-0.025345
-0.036327
-0.047475
-0.057662
-0.065394
-0.070090
-0.072180
-0.071880
-0.069761
-0.066567
-0.063065
-0.059941
-0.057760
-0.056967
-0.057920
-0.060941
-0.066355
-0.074527
-0.085884
-0.100972
-0.127342
0.502306
0.502565
0.503145
0.503581
0.502968
0.499756
0.491495
0.474567
0.443997
0.393465
0.315691
0.203906
0.057505
-0.099748
-0.181659
-0.217748
-0.242451
-0.270948
-0.307873
-0.350677
-0.389269
-0.409697
-0.409679
-0.389240
-0.352105
-0.303639
-0.249233
-0.193440
-0.139662
-0.090156
-0.046219
-0.008408
0.023223
0.048912
0.068988
0.083748
0.093402
0.101173
0.103171
0.097883
0.086244
0.068991
0.046275
0.018288
-0.013953
-0.048146
-0.080773
-0.107755
-0.123365
-0.126807
-0.122516
-0.112423
-0.098561
-0.082671
-0.066105
-0.049862
-0.034645
-0.020920
-0.008972
0.001056
0.009125
0.015258
0.019512
0.021959
0.022718
0.022014
0.020228
0.017883
0.015527
0.013775
0.012815
0.012529
0.012548
0.012343
0.011328
0.008944
0.004743
-0.001514
-0.009790
-0.019720
-0.030624
-0.041583
-0.051429
-0.058909
-0.064125
-0.067051
-0.067952
-0.067332
-0.065810
-0.064009
-0.062492
-0.061734
-0.062134
-0.064050
-0.067838
-0.073870
-0.082560
-0.094389
-0.109968
-0.137247
0.489749
0.489362
0.488115
0.485583
0.480963
0.472939
0.459561
0.438152
0.405325
0.357238
0.290254
0.202475
0.097206
-0.011609
-0.092717
-0.147713
-0.188869
-0.225424
-0.261302
-0.295319
-0.321822
-0.335708
-0.335227
-0.320017
-0.292211
-0.255255
-0.212889
-0.168489
-0.124735
-0.083537
-0.046099
-0.013043
0.015437
0.039436
0.059208
0.075066
0.088201
0.097616
0.101526
0.099011
0.089912
0.074385
0.052819
0.026049
-0.004283
-0.035502
-0.064073
-0.085914
-0.097124
-0.100971
-0.098927
-0.092528
-0.083145
-0.071869
-0.059553
-0.046886
-0.034433
-0.022650
-0.011895
-0.002427
0.005584
0.012053
0.016948
0.020296
0.022181
0.022770
0.022347
0.021315
0.020290
0.019460
0.019045
0.019048
0.019184
0.018974
0.017856
0.015294
0.010884
0.004450
-0.003888
-0.013701
-0.024301
-0.034842
-0.044179
-0.051922
-0.057821
-0.061866
-0.064267
-0.065400
-0.065721
-0.065691
-0.065742
-0.066261
-0.067614
-0.070165
-0.074306
-0.080433
-0.088953
-0.100324
-0.115097
-0.140751
0.477910
0.476988
0.474257
0.469403
0.461791
0.450396
0.433752
0.409970
0.376851
0.332188
0.274363
0.203382
0.122490
0.039657
-0.032154
-0.089823
-0.136526
-0.176216
-0.211009
-0.240481
-0.262110
-0.273861
-0.274440
-0.263852
-0.243504
-0.215705
-0.183081
-0.148122
-0.112914
-0.079024
-0.047502
-0.018955
0.006366
0.028464
0.047500
0.063732
0.077484
0.087502
0.092832
0.092635
0.086454
0.074205
0.056257
0.033640
0.008213
-0.017350
-0.039884
-0.055849
-0.066384
-0.072054
-0.073822
-0.072563
-0.068878
-0.063134
-0.055646
-0.046812
-0.037124
-0.027105
-0.017260
-0.008029
0.000229
0.007290
0.012982
0.017283
0.020273
0.022109
0.023080
0.023495
0.023589
0.023660
0.023926
0.024378
0.024765
0.024647
0.023494
0.020805
0.016233
0.009693
0.001402
-0.008113
-0.018230
-0.028196
-0.037396
-0.045510
-0.052322
-0.057733
-0.061806
-0.064745
-0.066832
-0.068379
-0.069708
-0.071162
-0.073099
-0.075893
-0.080019
-0.085841
-0.093671
-0.103860
-0.116697
-0.138082
0.467783
0.466388
0.462416
0.455728
0.445899
0.432182
0.413522
0.388627
0.356111
0.314761
0.263971
0.204348
0.138414
0.070929
0.008194
-0.046638
-0.093495
-0.133445
-0.167205
-0.194511
-0.214374
-0.225576
-0.227544
-0.220564
-0.205738
-0.184755
-0.159552
-0.132014
-0.103760
-0.076033
-0.049688
-0.025227
-0.002875
0.017335
0.035468
0.051590
0.065372
0.076021
0.082794
0.084951
0.081972
0.073707
0.060526
0.043461
0.024236
0.005102
-0.011760
-0.025479
-0.036245
-0.044466
-0.050692
-0.055177
-0.057713
-0.057821
-0.055182
-0.049925
-0.042563
-0.033775
-0.024302
-0.014804
-0.005926
0.002054
0.008772
0.014222
0.018388
0.021387
0.023413
0.024780
0.025774
0.026650
0.027557
0.028458
0.029111
0.029090
0.027891
0.025049
0.020283
0.013641
0.005436
-0.003717
-0.013304
-0.022733
-0.031883
-0.040586
-0.048543
-0.055439
-0.061111
-0.065599
-0.069059
-0.071694
-0.073773
-0.075674
-0.077813
-0.080447
-0.084330
-0.089642
-0.096629
-0.105333
-0.115712
-0.130715
0.460243
0.458328
0.453172
0.444931
0.433400
0.418059
0.398156
0.372814
0.341170
0.302582
0.256922
0.204914
0.148440
0.090541
0.034841
-0.016110
-0.061200
-0.100153
-0.132842
-0.158921
-0.177971
-0.189105
-0.192263
-0.187905
-0.177015
-0.160966
-0.141298
-0.119496
-0.096830
-0.074258
-0.052409
-0.031623
-0.012011
0.006448
0.023794
0.039843
0.053927
0.065514
0.073944
0.078544
0.078800
0.074538
0.066095
0.054406
0.040872
0.026931
0.013375
0.001160
-0.010019
-0.020690
-0.031246
-0.041478
-0.050323
-0.056206
-0.057964
-0.055525
-0.049654
-0.041278
-0.031553
-0.021194
-0.011317
-0.002437
0.005356
0.011818
0.016945
0.020850
0.023742
0.025899
0.027605
0.029097
0.030482
0.031708
0.032542
0.032522
0.031167
0.028030
0.022875
0.015783
0.007456
-0.001378
-0.010172
-0.019045
-0.028231
-0.037667
-0.046844
-0.055082
-0.061938
-0.067366
-0.071527
-0.074618
-0.076809
-0.078566
-0.080724
-0.083552
-0.087108
-0.091898
-0.098052
-0.105414
-0.113524
-0.122527
0.456264
0.453458
0.446868
0.437126
0.424191
0.407661
0.386957
0.361462
0.330627
0.294126
0.252043
0.205069
0.154635
0.102854
0.052154
0.004599
-0.038421
-0.076044
-0.107660
-0.132844
-0.151266
-0.162380
-0.166360
-0.163785
-0.155611
-0.143061
-0.127447
-0.110000
-0.091735
-0.073374
-0.055340
-0.037794
-0.020698
-0.003858
0.012997
0.029199
0.044045
0.056957
0.067226
0.074169
0.077262
0.076308
0.071622
0.064108
0.054912
0.044137
0.033321
0.022463
0.011065
-0.001554
-0.015818
-0.031287
-0.046118
-0.057344
-0.062538
-0.061564
-0.056163
-0.047220
-0.036617
-0.025902
-0.015216
-0.005296
0.003418
0.010722
0.016604
0.021187
0.024687
0.027378
0.029549
0.031446
0.033136
0.034549
0.035503
0.035343
0.033500
0.029528
0.023346
0.015526
0.007013
-0.001386
-0.009419
-0.017585
-0.026553
-0.036435
-0.046516
-0.055672
-0.063095
-0.068667
-0.072691
-0.075746
-0.078227
-0.080332
-0.082294
-0.084844
-0.088270
-0.092830
-0.098528
-0.105086
-0.111925
-0.117643
0.457524
0.452269
0.443516
0.432171
0.418023
0.400600
0.379343
0.353781
0.323542
0.288462
0.248710
0.204910
0.158208
0.110219
0.062800
0.017710
-0.023618
-0.060084
-0.090703
-0.115304
-0.133226
-0.144301
-0.148810
-0.147394
-0.140999
-0.130760
-0.117856
-0.103358
-0.088117
-0.072701
-0.057401
-0.042285
-0.027271
-0.012061
0.004094
0.020580
0.036533
0.051038
0.063155
0.072100
0.077313
0.078563
0.076166
0.071354
0.064041
0.055670
0.046610
0.036636
0.025156
0.011445
-0.004991
-0.023810
-0.042980
-0.058493
-0.066121
-0.064617
-0.058274
-0.049866
-0.039339
-0.027769
-0.016378
-0.005873
0.003342
0.011092
0.017374
0.022306
0.026094
0.028998
0.031325
0.033428
0.035263
0.036703
0.037299
0.036743
0.034437
0.029860
0.022909
0.014214
0.005017
-0.003503
-0.011018
-0.018263
-0.026316
-0.035607
-0.045541
-0.054927
-0.062761
-0.068721
-0.073117
-0.076242
-0.078540
-0.080599
-0.082705
-0.085276
-0.088665
-0.093166
-0.098764
-0.105189
-0.111852
-0.117760
0.468523
0.454431
0.442569
0.429836
0.414843
0.396803
0.375217
0.349634
0.319748
0.285454
0.246936
0.204757
0.159912
0.113786
0.067999
0.024174
-0.016280
-0.052283
-0.083156
-0.107656
-0.125439
-0.136549
-0.141327
-0.140430
-0.134784
-0.125473
-0.113610
-0.100198
-0.086028
-0.071620
-0.057232
-0.042915
-0.028599
-0.014176
0.000313
0.016371
0.033078
0.048682
0.061898
0.071835
0.077920
0.079910
0.077992
0.072573
0.065700
0.058019
0.049527
0.039933
0.028672
0.015108
-0.001128
-0.019636
-0.038606
-0.054546
-0.063622
-0.064718
-0.058640
-0.049368
-0.038628
-0.027153
-0.015830
-0.005341
0.003898
0.011699
0.018045
0.023040
0.026866
0.029762
0.031997
0.033753
0.035343
0.036538
0.036948
0.036153
0.033656
0.029046
0.022248
0.013777
0.004673
-0.004003
-0.011838
-0.019302
-0.027217
-0.035979
-0.045214
-0.054057
-0.061701
-0.067783
-0.072401
-0.075853
-0.078485
-0.080683
-0.082943
-0.085721
-0.089311
-0.093825
-0.099284
-0.105483
-0.112055
-0.118999
