# vtk DataFile Version 3.0
Scalar Field
ASCII
DATASET RECTILINEAR_GRID
DIMENSIONS 100 26 1
X_COORDINATES 100 double
0.050000 0.150000 0.250000 0.350000 0.450000 0.550000 0.650000 0.750000 0.850000 0.950000 1.050000 1.150000 1.250000 1.350000 1.450000 1.550000 1.650000 1.750000 1.850000 1.950000 2.050000 2.150000 2.250000 2.350000 2.450000 2.550000 2.650000 2.750000 2.850000 2.950000 3.050000 3.150000 3.250000 3.350000 3.450000 3.550000 3.650000 3.750000 3.850000 3.950000 4.050000 4.150000 4.250000 4.350000 4.450000 4.550000 4.650000 4.750000 4.850000 4.950000 5.050000 5.150000 5.250000 5.350000 5.450000 5.550000 5.650000 5.750000 5.850000 5.950000 6.050000 6.150000 6.250000 6.350000 6.450000 6.550000 6.650000 6.750000 6.850000 6.950000 7.050000 7.150000 7.250000 7.350000 7.450000 7.550000 7.650000 7.750000 7.850000 7.950000 8.050000 8.150000 8.250000 8.350000 8.450000 8.550000 8.650000 8.750000 8.850000 8.950000 9.050000 9.150000 9.250000 9.350000 9.450000 9.550000 9.650000 9.750000 9.850000 9.950000 
Y_COORDINATES 26 double
0.050000 0.150000 0.250000 0.350000 0.450000 0.550000 0.650000 0.750000 0.850000 0.950000 1.050000 1.150000 1.250000 1.350000 1.450000 1.550000 1.650000 1.750000 1.850000 1.950000 2.050000 2.150000 2.250000 2.350000 2.450000 2.550000 
Z_COORDINATES 1 double
0.0
POINT_DATA 2600
SCALARS Skalarfeld double 1
LOOKUP_TABLE default
0.265911
0.250528
0.235011
0.216337
0.193383
0.165676
0.133182
0.096299
0.055936
0.013540
-0.029005
-0.069668
-0.106623
-0.138510
-0.164223
-0.182985
-0.194854
-0.200221
-0.199737
-0.194235
-0.184639
-0.171889
-0.156878
-0.140409
-0.123181
-0.105797
-0.088789
-0.072648
-0.057833
-0.044736
-0.033693
-0.024914
-0.018397
-0.013844
-0.010878
-0.009181
-0.008606
-0.009211
-0.011196
-0.014781
-0.020054
-0.026841
-0.034616
-0.042487
-0.049243
-0.053453
-0.053768
-0.049808
-0.041437
-0.030965
-0.020195
-0.010050
-0.000976
0.006858
0.013428
0.018782
0.022979
0.025960
0.027760
0.028245
0.027260
0.024821
0.021224
0.017038
0.012942
0.009420
0.006507
0.003849
0.001033
-0.002078
-0.005258
-0.008105
-0.010171
-0.011313
-0.011555
-0.011120
-0.010231
-0.008991
-0.007466
-0.005779
-0.004058
-0.002410
-0.000921
0.000341
0.001338
0.002060
0.002521
0.002738
0.002777
0.002645
0.002386
0.002066
0.001744
0.001469
0.001282
0.001212
0.001276
0.001479
0.001829
0.002558
0.257278
0.250702
0.238174
0.220661
0.198010
0.170007
0.136644
0.098322
0.056034
0.011437
-0.033245
-0.075676
-0.113831
-0.146156
-0.171815
-0.190537
-0.202100
-0.206921
-0.205694
-0.199292
-0.188685
-0.174861
-0.158762
-0.141240
-0.123039
-0.104800
-0.087090
-0.070436
-0.055357
-0.042216
-0.031363
-0.023025
-0.017269
-0.013553
-0.011382
-0.010338
-0.010235
-0.011131
-0.013257
-0.016876
-0.022122
-0.028857
-0.036579
-0.044411
-0.051115
-0.055123
-0.054788
-0.049200
-0.040697
-0.030659
-0.020158
-0.010177
-0.001199
0.006591
0.013168
0.018583
0.022913
0.026275
0.028388
0.028914
0.027944
0.025422
0.021681
0.017362
0.013222
0.009768
0.006964
0.004335
0.001379
-0.002028
-0.005542
-0.008556
-0.010679
-0.011857
-0.012017
-0.011515
-0.010616
-0.009366
-0.007784
-0.006031
-0.004255
-0.002553
-0.001013
0.000295
0.001328
0.002078
0.002567
0.002834
0.002863
0.002690
0.002386
0.002033
0.001686
0.001395
0.001202
0.001138
0.001220
0.001444
0.001805
0.003230
0.260805
0.256584
0.245926
0.229398
0.206923
0.178220
0.143131
0.101951
0.055759
0.006617
-0.042452
-0.088429
-0.129013
-0.162755
-0.188940
-0.207479
-0.218279
-0.221809
-0.218837
-0.210305
-0.197272
-0.180833
-0.162058
-0.141937
-0.121355
-0.101089
-0.081828
-0.064209
-0.048824
-0.036287
-0.026938
-0.020754
-0.017296
-0.016270
-0.016511
-0.017299
-0.018330
-0.019657
-0.021567
-0.024414
-0.028435
-0.033597
-0.039501
-0.045356
-0.050006
-0.052101
-0.050558
-0.045184
-0.036879
-0.027451
-0.018066
-0.008996
-0.000737
0.006508
0.012688
0.017819
0.021939
0.025073
0.027181
0.028075
0.027394
0.025285
0.022159
0.018469
0.014740
0.011335
0.008212
0.005056
0.001566
-0.002248
-0.005991
-0.009081
-0.011090
-0.011907
-0.012073
-0.011788
-0.011043
-0.009870
-0.008207
-0.006394
-0.004585
-0.002835
-0.001241
0.000112
0.001178
0.001944
0.002424
0.002646
0.002637
0.002456
0.002150
0.001781
0.001433
0.001161
0.001012
0.001022
0.001217
0.001624
0.002307
0.003855
0.272168
0.268707
0.259061
0.243196
0.220679
0.190844
0.153095
0.107376
0.054779
-0.002023
-0.058237
-0.109580
-0.153487
-0.188844
-0.215374
-0.233237
-0.242642
-0.244087
-0.238420
-0.226669
-0.210010
-0.189695
-0.166976
-0.143042
-0.118973
-0.095724
-0.074131
-0.054960
-0.039055
-0.027228
-0.019880
-0.016870
-0.017422
-0.020268
-0.024356
-0.027988
-0.030726
-0.032624
-0.034067
-0.035543
-0.037439
-0.039887
-0.042673
-0.045235
-0.046740
-0.046302
-0.043324
-0.037811
-0.030401
-0.022041
-0.013530
-0.005667
0.001474
0.007739
0.013068
0.017455
0.020917
0.023467
0.025100
0.025770
0.025447
0.024141
0.021838
0.018817
0.015458
0.012105
0.008728
0.005256
0.001587
-0.002164
-0.005673
-0.008542
-0.010533
-0.011660
-0.012119
-0.011950
-0.011104
-0.009689
-0.008124
-0.006417
-0.004714
-0.002969
-0.001358
-0.000002
0.001055
0.001800
0.002242
0.002408
0.002341
0.002098
0.001751
0.001373
0.001026
0.000780
0.000691
0.000801
0.001140
0.001735
0.002601
0.004116
0.289930
0.286859
0.277970
0.262764
0.240270
0.209114
0.167811
0.115438
0.052792
-0.016763
-0.084081
-0.142694
-0.190287
-0.226844
-0.252986
-0.269310
-0.276343
-0.274684
-0.265176
-0.248930
-0.227282
-0.201699
-0.173675
-0.144651
-0.115946
-0.088711
-0.063921
-0.042408
-0.025434
-0.014261
-0.009544
-0.011017
-0.017334
-0.026241
-0.035226
-0.042452
-0.047086
-0.049323
-0.049804
-0.049290
-0.048408
-0.047505
-0.046599
-0.045410
-0.043466
-0.040291
-0.035615
-0.029524
-0.022445
-0.014963
-0.007615
-0.000790
0.005234
0.010395
0.014667
0.018049
0.020573
0.022277
0.023211
0.023440
0.023018
0.021943
0.020190
0.017821
0.014957
0.011727
0.008176
0.004601
0.000955
-0.002567
-0.005748
-0.008333
-0.010175
-0.011263
-0.011665
-0.011429
-0.010622
-0.009383
-0.007889
-0.006208
-0.004376
-0.002679
-0.001169
0.000110
0.001098
0.001772
0.002136
0.002213
0.002055
0.001729
0.001307
0.000859
0.000473
0.000224
0.000177
0.000376
0.000849
0.001605
0.002624
0.004141
0.313358
0.310686
0.302769
0.288712
0.266882
0.234824
0.189434
0.127806
0.049417
-0.042414
-0.126462
-0.193368
-0.243392
-0.279496
-0.303879
-0.317353
-0.320938
-0.315064
-0.300397
-0.278135
-0.249850
-0.217312
-0.182343
-0.146710
-0.112029
-0.079695
-0.050812
-0.026147
-0.007311
0.003447
0.004922
-0.002518
-0.016762
-0.034227
-0.050541
-0.061980
-0.068366
-0.070280
-0.068936
-0.065606
-0.061291
-0.056602
-0.051783
-0.046795
-0.041443
-0.035525
-0.028968
-0.021899
-0.014620
-0.007508
-0.000905
0.004939
0.009870
0.013892
0.017053
0.019298
0.020771
0.021541
0.021692
0.021375
0.020723
0.019731
0.018283
0.016260
0.013609
0.010355
0.006848
0.003241
-0.000489
-0.003839
-0.006763
-0.009051
-0.010612
-0.011447
-0.011610
-0.011175
-0.010240
-0.008927
-0.007363
-0.005654
-0.003906
-0.002265
-0.000813
0.000392
0.001309
0.001903
0.002167
0.002124
0.001826
0.001347
0.000775
0.000204
-0.000271
-0.000562
-0.000598
-0.000326
0.000279
0.001213
0.002430
0.004117
0.341706
0.339619
0.333275
0.321455
0.301826
0.270495
0.221632
0.147983
0.044269
-0.089593
-0.196555
-0.268228
-0.315295
-0.347242
-0.368205
-0.377751
-0.377382
-0.366444
-0.345315
-0.315396
-0.278641
-0.237254
-0.193497
-0.149564
-0.107473
-0.068963
-0.035380
-0.007491
0.014117
0.025274
0.023649
0.009843
-0.013217
-0.040796
-0.066968
-0.085681
-0.093791
-0.094761
-0.090790
-0.083947
-0.075736
-0.067060
-0.058351
-0.049735
-0.041180
-0.032641
-0.024144
-0.015832
-0.007938
-0.000723
0.005583
0.010811
0.014841
0.017598
0.019151
0.019876
0.020104
0.019890
0.019240
0.018321
0.017412
0.016550
0.015542
0.014109
0.012019
0.009175
0.005677
0.001629
-0.002266
-0.005565
-0.008522
-0.010665
-0.011990
-0.012536
-0.012386
-0.011645
-0.010439
-0.008900
-0.007158
-0.005334
-0.003539
-0.001883
-0.000446
0.000709
0.001538
0.002015
0.002137
0.001933
0.001458
0.000793
0.000036
-0.000701
-0.001308
-0.001680
-0.001730
-0.001395
-0.000642
0.000521
0.002039
0.004148
0.373881
0.372667
0.368790
0.360899
0.346185
0.319295
0.270519
0.183792
0.037138
-0.182494
-0.310242
-0.368647
-0.399707
-0.421850
-0.439381
-0.446921
-0.443946
-0.428067
-0.399748
-0.360965
-0.314290
-0.262505
-0.208433
-0.154821
-0.104227
-0.058896
-0.020661
0.009132
0.031957
0.045055
0.041626
0.023376
-0.005769
-0.040540
-0.074894
-0.102773
-0.116884
-0.117620
-0.111460
-0.101524
-0.089894
-0.077765
-0.065728
-0.054021
-0.042720
-0.031868
-0.021550
-0.011918
-0.003169
0.004488
0.010866
0.015789
0.019080
0.020622
0.020503
0.019035
0.016625
0.014087
0.012501
0.011021
0.010191
0.009975
0.009993
0.009774
0.008912
0.007149
0.004428
0.000885
-0.003060
-0.007207
-0.010345
-0.012576
-0.013879
-0.014291
-0.013917
-0.012900
-0.011399
-0.009576
-0.007585
-0.005563
-0.003630
-0.001890
-0.000422
0.000713
0.001476
0.001848
0.001832
0.001460
0.000792
-0.000084
-0.001056
-0.001997
-0.002774
-0.003260
-0.003345
-0.002947
-0.002018
-0.000555
0.001393
0.004227
0.408256
0.408221
0.407792
0.405856
0.399827
0.383930
0.345089
0.253422
0.034002
-0.379160
-0.478844
-0.475093
-0.471886
-0.479588
-0.497669
-0.513223
-0.511971
-0.493205
-0.458796
-0.411850
-0.355710
-0.293800
-0.229585
-0.166511
-0.107870
-0.056565
-0.014929
0.015248
0.032817
0.044493
0.039815
0.021733
-0.005859
-0.039028
-0.073157
-0.103051
-0.123987
-0.130033
-0.124104
-0.113265
-0.100167
-0.086271
-0.072324
-0.058682
-0.045533
-0.033019
-0.021299
-0.010561
-0.001013
0.007137
0.013662
0.018258
0.020531
0.020188
0.017402
0.012938
0.007865
0.003213
-0.000473
-0.002038
-0.001926
-0.000677
0.001079
0.002713
0.003690
0.003635
0.002366
-0.000081
-0.003440
-0.007311
-0.011054
-0.013962
-0.015514
-0.016066
-0.015704
-0.014586
-0.012908
-0.010867
-0.008650
-0.006423
-0.004324
-0.002466
-0.000933
0.000215
0.000940
0.001227
0.001083
0.000543
-0.000328
-0.001436
-0.002654
-0.003834
-0.004818
-0.005449
-0.005586
-0.005120
-0.003982
-0.002147
0.000361
0.004209
0.442647
0.443986
0.447685
0.453317
0.459628
0.462995
0.452669
0.394199
0.136434
-0.736931
-0.669327
-0.534848
-0.500172
-0.495742
-0.515773
-0.551116
-0.560386
-0.543749
-0.508155
-0.457938
-0.397012
-0.329351
-0.259113
-0.190677
-0.128490
-0.076505
-0.037118
-0.010659
0.004130
0.007398
0.003861
-0.007036
-0.024461
-0.046754
-0.071419
-0.095003
-0.113648
-0.124246
-0.123851
-0.114968
-0.103072
-0.089783
-0.075955
-0.062060
-0.048419
-0.035307
-0.023000
-0.011786
-0.001955
0.006183
0.012234
0.015660
0.015878
0.012635
0.006459
-0.001276
-0.008845
-0.014841
-0.018561
-0.019045
-0.017142
-0.013772
-0.009787
-0.005933
-0.002814
-0.000866
-0.000340
-0.001289
-0.003546
-0.006743
-0.010323
-0.013669
-0.016170
-0.017131
-0.017065
-0.016111
-0.014478
-0.012393
-0.010078
-0.007729
-0.005515
-0.003565
-0.001977
-0.000818
-0.000128
0.000075
-0.000200
-0.000920
-0.002016
-0.003384
-0.004884
-0.006343
-0.007571
-0.008374
-0.008577
-0.008038
-0.006661
-0.004396
-0.001234
0.003828
0.474515
0.477182
0.484928
0.498233
0.517874
0.544707
0.578711
0.614627
0.686726
-0.025103
-0.591909
-0.514492
-0.501634
-0.498089
-0.511321
-0.542519
-0.568888
-0.558939
-0.528826
-0.482991
-0.425498
-0.360739
-0.293610
-0.229549
-0.173679
-0.129652
-0.098638
-0.079097
-0.067952
-0.063780
-0.059413
-0.057498
-0.059254
-0.065056
-0.074445
-0.085914
-0.097034
-0.105178
-0.108512
-0.105434
-0.096909
-0.086371
-0.074662
-0.062308
-0.049735
-0.037359
-0.025610
-0.014922
-0.005741
0.001438
0.005993
0.007179
0.004382
-0.002337
-0.011831
-0.022055
-0.030873
-0.036864
-0.038995
-0.037330
-0.032985
-0.027091
-0.020650
-0.014481
-0.009209
-0.005275
-0.002944
-0.002309
-0.003275
-0.005549
-0.008652
-0.011989
-0.014959
-0.016945
-0.017410
-0.016881
-0.015552
-0.013654
-0.011434
-0.009120
-0.006908
-0.004956
-0.003379
-0.002258
-0.001643
-0.001557
-0.001998
-0.002933
-0.004295
-0.005969
-0.007798
-0.009580
-0.011088
-0.012089
-0.012369
-0.011755
-0.010126
-0.007412
-0.003551
0.002767
0.501412
0.505071
0.515821
0.534768
0.564042
0.607387
0.671371
0.767305
0.902931
0.939330
0.000000
-0.508587
-0.502682
-0.497153
-0.503433
-0.519534
-0.534949
-0.534863
-0.511195
-0.473637
-0.425938
-0.372530
-0.318574
-0.270325
-0.232252
-0.205446
-0.188011
-0.175101
-0.163359
-0.148856
-0.131670
-0.114441
-0.099268
-0.087667
-0.080533
-0.077927
-0.078887
-0.081624
-0.084128
-0.084801
-0.081926
-0.075416
-0.067255
-0.057904
-0.047811
-0.037494
-0.027527
-0.018508
-0.011062
-0.005902
-0.003872
-0.005832
-0.012210
-0.022400
-0.034564
-0.046177
-0.054990
-0.059714
-0.059285
-0.054799
-0.047597
-0.038969
-0.030015
-0.021595
-0.014323
-0.008603
-0.004666
-0.002596
-0.002328
-0.003634
-0.006113
-0.009222
-0.012355
-0.014956
-0.016399
-0.016478
-0.015678
-0.014194
-0.012279
-0.010185
-0.008135
-0.006312
-0.004854
-0.003861
-0.003397
-0.003498
-0.004170
-0.005386
-0.007076
-0.009118
-0.011330
-0.013481
-0.015304
-0.016525
-0.016897
-0.016219
-0.014356
-0.011228
-0.006705
0.000737
0.521516
0.525630
0.537708
0.558909
0.591329
0.638157
0.703381
0.788562
0.886099
0.975729
0.895961
0.000000
-0.497348
-0.492015
-0.482840
-0.481723
-0.482492
-0.477100
-0.457734
-0.427303
-0.391497
-0.355751
-0.325425
-0.304666
-0.293884
-0.288167
-0.284575
-0.275872
-0.255373
-0.227507
-0.195796
-0.163329
-0.132723
-0.105995
-0.084584
-0.069313
-0.060226
-0.056434
-0.056248
-0.057630
-0.058720
-0.057372
-0.053395
-0.047929
-0.041297
-0.034059
-0.026890
-0.020529
-0.015785
-0.013585
-0.014955
-0.020723
-0.030934
-0.044338
-0.058509
-0.070683
-0.078688
-0.081348
-0.077690
-0.070032
-0.059821
-0.048458
-0.037102
-0.026620
-0.017591
-0.010361
-0.005098
-0.001840
-0.000518
-0.000942
-0.002778
-0.005549
-0.008680
-0.011593
-0.013811
-0.014719
-0.014613
-0.013716
-0.012282
-0.010577
-0.008846
-0.007293
-0.006080
-0.005326
-0.005113
-0.005492
-0.006482
-0.008061
-0.010156
-0.012633
-0.015286
-0.017851
-0.020021
-0.021488
-0.021977
-0.021275
-0.019244
-0.015791
-0.010771
-0.002511
0.533984
0.538000
0.549712
0.569940
0.599960
0.641227
0.694874
0.760714
0.827622
0.851787
0.816193
0.702322
0.000000
-0.473606
-0.455197
-0.436710
-0.423859
-0.406752
-0.383144
-0.357013
-0.334345
-0.320240
-0.318347
-0.328918
-0.347850
-0.365397
-0.372132
-0.360115
-0.327452
-0.286532
-0.241355
-0.195675
-0.152548
-0.114220
-0.082209
-0.057442
-0.040285
-0.030439
-0.026774
-0.027405
-0.030087
-0.032714
-0.033335
-0.032063
-0.029314
-0.025686
-0.021928
-0.018898
-0.017583
-0.019112
-0.024595
-0.034667
-0.048843
-0.065234
-0.080992
-0.093280
-0.100185
-0.099403
-0.092700
-0.081974
-0.068954
-0.055144
-0.041727
-0.029537
-0.019097
-0.010681
-0.004384
-0.000191
0.001994
0.002340
0.001126
-0.001242
-0.004244
-0.007314
-0.009943
-0.011761
-0.012348
-0.012115
-0.011270
-0.010076
-0.008786
-0.007623
-0.006768
-0.006359
-0.006498
-0.007252
-0.008651
-0.010678
-0.013257
-0.016235
-0.019382
-0.022400
-0.024948
-0.026693
-0.027345
-0.026699
-0.024643
-0.020972
-0.015779
-0.007200
0.538998
0.542482
0.552562
0.569655
0.594368
0.627092
0.666864
0.708727
0.739909
0.733571
0.672550
0.588451
0.423320
0.000000
-0.421731
-0.388265
-0.374867
-0.343266
-0.308902
-0.283234
-0.271658
-0.277508
-0.301579
-0.342333
-0.388697
-0.424067
-0.435702
-0.412466
-0.371392
-0.320407
-0.265104
-0.209918
-0.158171
-0.112140
-0.073234
-0.042217
-0.019399
-0.004675
0.002607
0.003818
0.000972
-0.003776
-0.008173
-0.010587
-0.011537
-0.011542
-0.011395
-0.012065
-0.014704
-0.020574
-0.030733
-0.045441
-0.063612
-0.082794
-0.099841
-0.111866
-0.116862
-0.112838
-0.103208
-0.089857
-0.074606
-0.058976
-0.044110
-0.030772
-0.019402
-0.010193
-0.003172
0.001728
0.004625
0.005674
0.005098
0.003228
0.000510
-0.002533
-0.005398
-0.007705
-0.009018
-0.009457
-0.009233
-0.008601
-0.007822
-0.007126
-0.006710
-0.006730
-0.007304
-0.008517
-0.010406
-0.012958
-0.016086
-0.019619
-0.023301
-0.026801
-0.029756
-0.031817
-0.032701
-0.032219
-0.030278
-0.026699
-0.021758
-0.013559
0.537539
0.540276
0.548118
0.561109
0.579089
0.601261
0.625197
0.645194
0.650190
0.622253
0.543683
0.405037
0.258188
-0.159223
-0.427441
-0.376317
-0.348971
-0.296338
-0.246855
-0.218975
-0.215060
-0.237802
-0.284333
-0.346987
-0.410322
-0.455123
-0.460790
-0.431669
-0.385063
-0.328519
-0.268119
-0.208492
-0.152909
-0.103465
-0.061325
-0.027008
-0.000652
0.017820
0.028729
0.032858
0.031642
0.027053
0.021097
0.015486
0.011443
0.008174
0.004802
0.000275
-0.006661
-0.017271
-0.032371
-0.051716
-0.073632
-0.095230
-0.113199
-0.124839
-0.126547
-0.120057
-0.108291
-0.093251
-0.076755
-0.060259
-0.044804
-0.031049
-0.019341
-0.009795
-0.002380
0.003007
0.006496
0.008224
0.008359
0.007145
0.004938
0.002189
-0.000630
-0.003122
-0.004976
-0.005967
-0.006303
-0.006217
-0.005957
-0.005756
-0.005819
-0.006317
-0.007383
-0.009113
-0.011552
-0.014681
-0.018402
-0.022522
-0.026757
-0.030753
-0.034133
-0.036552
-0.037753
-0.037604
-0.035854
-0.032852
-0.028707
-0.021795
0.530988
0.532862
0.538148
0.546590
0.557541
0.569565
0.579736
0.582648
0.569333
0.526431
0.436532
0.275867
-0.005328
-0.576634
-0.478565
-0.371766
-0.316638
-0.262254
-0.211817
-0.181477
-0.185117
-0.218121
-0.274997
-0.345035
-0.411011
-0.451423
-0.447358
-0.417251
-0.370173
-0.313796
-0.254124
-0.195550
-0.141047
-0.092421
-0.050591
-0.015854
0.011857
0.032727
0.046928
0.054739
0.056860
0.054576
0.049452
0.043028
0.037287
0.031513
0.024971
0.016674
0.005420
-0.009867
-0.029601
-0.052998
-0.077895
-0.101112
-0.119195
-0.129285
-0.128150
-0.120306
-0.107711
-0.092345
-0.075912
-0.059719
-0.044663
-0.031285
-0.019846
-0.010407
-0.002912
0.002757
0.006729
0.009116
0.010035
0.009649
0.008217
0.006094
0.003685
0.001355
-0.000646
-0.001989
-0.002749
-0.003125
-0.003340
-0.003614
-0.004157
-0.005146
-0.006729
-0.009005
-0.012021
-0.015748
-0.020071
-0.024772
-0.029545
-0.034022
-0.037823
-0.040629
-0.042235
-0.042426
-0.041315
-0.039325
-0.036569
-0.032023
0.520934
0.521952
0.524740
0.528879
0.533493
0.536945
0.536393
0.527229
0.502535
0.452655
0.364841
0.222434
0.004772
-0.269203
-0.319965
-0.298106
-0.264957
-0.227029
-0.193005
-0.175851
-0.184264
-0.218626
-0.273342
-0.336503
-0.391027
-0.411807
-0.405080
-0.376760
-0.333921
-0.282997
-0.229149
-0.176171
-0.126624
-0.082057
-0.043251
-0.010437
0.016512
0.037894
0.054003
0.065009
0.071070
0.072714
0.070865
0.067142
0.061670
0.054538
0.045561
0.034064
0.019105
-0.000039
-0.023301
-0.049424
-0.075940
-0.099575
-0.117001
-0.123428
-0.121696
-0.113985
-0.102194
-0.088099
-0.073162
-0.058471
-0.044757
-0.032453
-0.021767
-0.012756
-0.005383
0.000441
0.004813
0.007820
0.009541
0.010077
0.009604
0.008390
0.006752
0.004976
0.003263
0.001951
0.000994
0.000300
-0.000292
-0.000978
-0.001959
-0.003418
-0.005504
-0.008318
-0.011898
-0.016200
-0.021085
-0.026316
-0.031567
-0.036467
-0.040654
-0.043853
-0.045858
-0.046548
-0.046500
-0.045965
-0.045160
-0.044112
0.508964
0.509213
0.509792
0.510236
0.509638
0.506449
0.498216
0.481313
0.450750
0.400186
0.322309
0.210248
0.063218
-0.095465
-0.176512
-0.202396
-0.201876
-0.190004
-0.177988
-0.175810
-0.189783
-0.220775
-0.264287
-0.310293
-0.342659
-0.354304
-0.346814
-0.323047
-0.287659
-0.245379
-0.200236
-0.155313
-0.112761
-0.073938
-0.039577
-0.009954
0.014970
0.035421
0.051696
0.064064
0.072760
0.077996
0.081334
0.082380
0.078900
0.071963
0.062000
0.048721
0.031567
0.010280
-0.014597
-0.041464
-0.067733
-0.090245
-0.104644
-0.109713
-0.108628
-0.102694
-0.093412
-0.082148
-0.070012
-0.057826
-0.046159
-0.035371
-0.025676
-0.017182
-0.009930
-0.003919
0.000883
0.004506
0.007008
0.008448
0.008959
0.008745
0.008055
0.007132
0.006218
0.005222
0.004313
0.003501
0.002687
0.001704
0.000368
-0.001498
-0.004035
-0.007335
-0.011416
-0.016213
-0.021564
-0.027213
-0.032827
-0.038047
-0.042548
-0.046097
-0.048408
-0.050056
-0.051326
-0.052557
-0.054092
-0.057485
0.496503
0.496104
0.494848
0.492314
0.487693
0.479675
0.466313
0.444932
0.412162
0.364188
0.297441
0.210156
0.105916
-0.000742
-0.076717
-0.120433
-0.141823
-0.150865
-0.156280
-0.165278
-0.182347
-0.208197
-0.239465
-0.268915
-0.288511
-0.295423
-0.288814
-0.270248
-0.242640
-0.209246
-0.173038
-0.136418
-0.101146
-0.068391
-0.038832
-0.012782
0.009718
0.028799
0.044697
0.057681
0.067988
0.076474
0.082987
0.086091
0.085172
0.080236
0.071318
0.058319
0.041133
0.020006
-0.004114
-0.029421
-0.053427
-0.072671
-0.084202
-0.090134
-0.091353
-0.088857
-0.083604
-0.076428
-0.068023
-0.058950
-0.049649
-0.040467
-0.031686
-0.023530
-0.016178
-0.009757
-0.004336
0.000017
0.003359
0.005778
0.007361
0.008204
0.008455
0.008298
0.007883
0.007306
0.006654
0.005935
0.005072
0.003931
0.002349
0.000169
-0.002731
-0.006418
-0.010884
-0.016038
-0.021695
-0.027588
-0.033402
-0.038809
-0.043504
-0.047206
-0.050309
-0.053040
-0.055728
-0.058788
-0.062715
-0.070918
0.484754
0.483820
0.481081
0.476225
0.468618
0.457243
0.440646
0.416960
0.384023
0.339695
0.282477
0.212587
0.133639
0.054254
-0.011552
-0.059328
-0.091572
-0.113291
-0.129885
-0.146019
-0.164652
-0.186338
-0.209054
-0.228755
-0.241733
-0.245785
-0.240218
-0.225886
-0.204621
-0.178640
-0.150092
-0.120799
-0.092146
-0.065078
-0.040156
-0.017643
0.002408
0.020076
0.035516
0.048911
0.060483
0.070629
0.078410
0.083194
0.084411
0.081733
0.074929
0.063866
0.048656
0.029868
0.008697
-0.013014
-0.032981
-0.048349
-0.059904
-0.067915
-0.072861
-0.075130
-0.074977
-0.072623
-0.068345
-0.062484
-0.055422
-0.047563
-0.039331
-0.031125
-0.023306
-0.016182
-0.009869
-0.004545
-0.000205
0.003147
0.005570
0.007184
0.008128
0.008561
0.008631
0.008445
0.008069
0.007499
0.006662
0.005436
0.003680
0.001264
-0.001904
-0.005857
-0.010554
-0.015880
-0.021635
-0.027563
-0.033407
-0.038795
-0.043603
-0.047923
-0.051870
-0.055662
-0.059636
-0.064258
-0.070155
-0.082502
0.474712
0.473308
0.469334
0.462654
0.452849
0.439186
0.420632
0.395929
0.363747
0.322960
0.273098
0.214979
0.151441
0.087701
0.030607
-0.016208
-0.052700
-0.080962
-0.103900
-0.124254
-0.143848
-0.163114
-0.181000
-0.195653
-0.204814
-0.207183
-0.202406
-0.191070
-0.174435
-0.154086
-0.131611
-0.108388
-0.085467
-0.063539
-0.042968
-0.023867
-0.006194
0.010152
0.025240
0.039048
0.051719
0.062775
0.071767
0.078154
0.081388
0.081026
0.076767
0.068515
0.056512
0.041459
0.024552
0.007366
-0.008442
-0.022621
-0.035151
-0.046212
-0.055829
-0.063649
-0.069082
-0.071666
-0.071308
-0.068239
-0.062878
-0.055755
-0.047526
-0.038798
-0.030122
-0.022010
-0.014821
-0.008547
-0.003329
0.000836
0.004002
0.006280
0.007807
0.008733
0.009199
0.009308
0.009112
0.008605
0.007727
0.006370
0.004419
0.001778
-0.001607
-0.005725
-0.010502
-0.015821
-0.021484
-0.027262
-0.032970
-0.038503
-0.043739
-0.048689
-0.053412
-0.058064
-0.062950
-0.068544
-0.075531
-0.090046
0.467252
0.465331
0.460182
0.451964
0.440484
0.425241
0.405511
0.380460
0.349293
0.311464
0.266974
0.216729
0.162839
0.108614
0.057913
0.013364
-0.024223
-0.055459
-0.081705
-0.104419
-0.124638
-0.142673
-0.158050
-0.169833
-0.176692
-0.177999
-0.173697
-0.164334
-0.150921
-0.134700
-0.116917
-0.098636
-0.080626
-0.063320
-0.046837
-0.031053
-0.015709
-0.000555
0.014469
0.029011
0.042649
0.054896
0.065342
0.073482
0.078790
0.080809
0.079239
0.074049
0.065592
0.054592
0.042053
0.028540
0.014898
0.001243
-0.012729
-0.027219
-0.041858
-0.055466
-0.066405
-0.073410
-0.076153
-0.074989
-0.070508
-0.063383
-0.054630
-0.044914
-0.035558
-0.026638
-0.018482
-0.011349
-0.005359
-0.000520
0.003236
0.006028
0.007997
0.009294
0.010048
0.010351
0.010229
0.009673
0.008643
0.007040
0.004796
0.001864
-0.001758
-0.006015
-0.010774
-0.015991
-0.021535
-0.027252
-0.032967
-0.038656
-0.044268
-0.049748
-0.055050
-0.060216
-0.065488
-0.071321
-0.078316
-0.092077
0.463341
0.460533
0.453961
0.444261
0.431404
0.415015
0.394544
0.369426
0.339183
0.303584
0.262834
0.217766
0.169964
0.121672
0.075373
0.033014
-0.004409
-0.036795
-0.064622
-0.088551
-0.109074
-0.126400
-0.140417
-0.150376
-0.155744
-0.156295
-0.152213
-0.144100
-0.132882
-0.119635
-0.105402
-0.091035
-0.077085
-0.063764
-0.050969
-0.038342
-0.025332
-0.011320
0.004040
0.019458
0.034386
0.048222
0.060395
0.070376
0.077664
0.081826
0.082591
0.080006
0.074566
0.066998
0.057374
0.046367
0.034410
0.021060
0.005716
-0.011939
-0.031293
-0.050349
-0.066170
-0.076450
-0.080833
-0.080365
-0.076033
-0.067976
-0.058837
-0.049073
-0.038849
-0.029075
-0.020202
-0.012474
-0.005988
-0.000731
0.003381
0.006476
0.008705
0.010216
0.011137
0.011545
0.011406
0.010696
0.009428
0.007459
0.004810
0.001499
-0.002428
-0.006897
-0.011830
-0.017038
-0.022436
-0.027966
-0.033571
-0.039279
-0.045065
-0.050842
-0.056472
-0.061801
-0.066973
-0.072485
-0.078725
-0.088996
0.464654
0.459400
0.450675
0.439392
0.425342
0.408099
0.387121
0.361994
0.332422
0.298332
0.260002
0.218169
0.174079
0.129392
0.085916
0.045208
0.008285
-0.024418
-0.052910
-0.077392
-0.097909
-0.114898
-0.127997
-0.136863
-0.141320
-0.141408
-0.137472
-0.130167
-0.120381
-0.109095
-0.097229
-0.085495
-0.074306
-0.063740
-0.053579
-0.043400
-0.032551
-0.019914
-0.004629
0.011673
0.028233
0.043881
0.057796
0.069405
0.078241
0.083909
0.086158
0.085093
0.081569
0.075563
0.067620
0.058358
0.047466
0.034326
0.018201
-0.001350
-0.023760
-0.046654
-0.066025
-0.078281
-0.082651
-0.080990
-0.076604
-0.069985
-0.060508
-0.050022
-0.039414
-0.029348
-0.020240
-0.012320
-0.005674
-0.000285
0.003935
0.007115
0.009405
0.010958
0.011912
0.012395
0.012217
0.011316
0.009614
0.007246
0.004202
0.000524
-0.003696
-0.008339
-0.013287
-0.018424
-0.023692
-0.029053
-0.034411
-0.039914
-0.045549
-0.051247
-0.056881
-0.062359
-0.067588
-0.072600
-0.077795
-0.083806
0.475681
0.461594
0.449768
0.437109
0.422251
0.404398
0.383109
0.357986
0.328796
0.295527
0.258465
0.218272
0.176013
0.133079
0.090995
0.051147
0.014555
-0.018208
-0.046970
-0.071824
-0.093013
-0.109993
-0.122793
-0.131300
-0.135470
-0.135441
-0.131614
-0.124651
-0.115412
-0.104826
-0.093750
-0.082844
-0.072471
-0.062676
-0.053218
-0.043657
-0.033428
-0.021931
-0.008582
0.008248
0.025972
0.042797
0.057688
0.070042
0.079439
0.085536
0.088101
0.087141
0.082851
0.076718
0.069359
0.060634
0.050166
0.037344
0.021507
0.002322
-0.019646
-0.042286
-0.061986
-0.075212
-0.080820
-0.080626
-0.075884
-0.068805
-0.059669
-0.049424
-0.038984
-0.029028
-0.019993
-0.012118
-0.005498
-0.000122
0.004089
0.007258
0.009531
0.011051
0.011930
0.012162
0.011872
0.010907
0.009194
0.006770
0.003671
-0.000045
-0.004281
-0.008919
-0.013838
-0.018937
-0.024165
-0.029507
-0.034971
-0.040373
-0.045858
-0.051415
-0.056927
-0.062275
-0.067372
-0.072254
-0.077166
-0.082415
