# vtk DataFile Version 3.0
Vector Field
ASCII
DATASET RECTILINEAR_GRID
DIMENSIONS 100 26 1
X_COORDINATES 100 double
0.050000 0.150000 0.250000 0.350000 0.450000 0.550000 0.650000 0.750000 0.850000 0.950000 1.050000 1.150000 1.250000 1.350000 1.450000 1.550000 1.650000 1.750000 1.850000 1.950000 2.050000 2.150000 2.250000 2.350000 2.450000 2.550000 2.650000 2.750000 2.850000 2.950000 3.050000 3.150000 3.250000 3.350000 3.450000 3.550000 3.650000 3.750000 3.850000 3.950000 4.050000 4.150000 4.250000 4.350000 4.450000 4.550000 4.650000 4.750000 4.850000 4.950000 5.050000 5.150000 5.250000 5.350000 5.450000 5.550000 5.650000 5.750000 5.850000 5.950000 6.050000 6.150000 6.250000 6.350000 6.450000 6.550000 6.650000 6.750000 6.850000 6.950000 7.050000 7.150000 7.250000 7.350000 7.450000 7.550000 7.650000 7.750000 7.850000 7.950000 8.050000 8.150000 8.250000 8.350000 8.450000 8.550000 8.650000 8.750000 8.850000 8.950000 9.050000 9.150000 9.250000 9.350000 9.450000 9.550000 9.650000 9.750000 9.850000 9.950000 
Y_COORDINATES 26 double
0.050000 0.150000 0.250000 0.350000 0.450000 0.550000 0.650000 0.750000 0.850000 0.950000 1.050000 1.150000 1.250000 1.350000 1.450000 1.550000 1.650000 1.750000 1.850000 1.950000 2.050000 2.150000 2.250000 2.350000 2.450000 2.550000 
Z_COORDINATES 1 double
0.0
POINT_DATA 2600
VECTORS Vektorfeld double
1.000736 -0.000736 0.0
1.004216 -0.002744 0.0
1.012379 -0.005419 0.0
1.026517 -0.008720 0.0
1.047098 -0.011861 0.0
1.072819 -0.013860 0.0
1.100933 -0.014255 0.0
1.128326 -0.013139 0.0
1.152274 -0.010809 0.0
1.170660 -0.007577 0.0
1.182035 -0.003798 0.0
1.185725 0.000108 0.0
1.181888 0.003730 0.0
1.171417 0.006741 0.0
1.155736 0.008941 0.0
1.136527 0.010268 0.0
1.115479 0.010780 0.0
1.094090 0.010610 0.0
1.073548 0.009932 0.0
1.054695 0.008921 0.0
1.038041 0.007733 0.0
1.023813 0.006494 0.0
1.012024 0.005295 0.0
1.002535 0.004194 0.0
0.995119 0.003223 0.0
0.989500 0.002396 0.0
0.985394 0.001710 0.0
0.982528 0.001156 0.0
0.980654 0.000719 0.0
0.979554 0.000381 0.0
0.979047 0.000127 0.0
0.978980 -0.000060 0.0
0.979233 -0.000193 0.0
0.979708 -0.000283 0.0
0.980330 -0.000339 0.0
0.981041 -0.000372 0.0
0.981798 -0.000385 0.0
0.982569 -0.000386 0.0
0.983332 -0.000377 0.0
0.984070 -0.000361 0.0
0.984773 -0.000342 0.0
0.985435 -0.000320 0.0
0.986052 -0.000297 0.0
0.986623 -0.000274 0.0
0.987147 -0.000251 0.0
0.987626 -0.000229 0.0
0.988063 -0.000208 0.0
0.988458 -0.000188 0.0
0.988816 -0.000170 0.0
0.989139 -0.000153 0.0
0.989429 -0.000137 0.0
0.989690 -0.000123 0.0
0.989924 -0.000110 0.0
0.990133 -0.000099 0.0
0.990320 -0.000088 0.0
0.990487 -0.000079 0.0
0.990636 -0.000070 0.0
0.990769 -0.000063 0.0
0.990888 -0.000056 0.0
0.990993 -0.000050 0.0
0.991087 -0.000044 0.0
0.991171 -0.000039 0.0
0.991245 -0.000035 0.0
0.991311 -0.000031 0.0
0.991370 -0.000028 0.0
0.991422 -0.000025 0.0
0.991468 -0.000022 0.0
0.991509 -0.000019 0.0
0.991546 -0.000017 0.0
0.991578 -0.000015 0.0
0.991607 -0.000014 0.0
0.991632 -0.000012 0.0
0.991655 -0.000011 0.0
0.991675 -0.000010 0.0
0.991693 -0.000008 0.0
0.991709 -0.000008 0.0
0.991724 -0.000007 0.0
0.991736 -0.000006 0.0
0.991748 -0.000005 0.0
0.991758 -0.000005 0.0
0.991768 -0.000005 0.0
0.991777 -0.000004 0.0
0.991785 -0.000004 0.0
0.991793 -0.000004 0.0
0.991800 -0.000004 0.0
0.991808 -0.000004 0.0
0.991816 -0.000004 0.0
0.991825 -0.000005 0.0
0.991834 -0.000005 0.0
0.991846 -0.000006 0.0
0.991859 -0.000007 0.0
0.991876 -0.000009 0.0
0.991897 -0.000012 0.0
0.991925 -0.000016 0.0
0.991964 -0.000022 0.0
0.992018 -0.000032 0.0
0.992100 -0.000050 0.0
0.992237 -0.000086 0.0
0.992504 -0.000180 0.0
0.992976 -0.000292 0.0
1.001305 -0.002776 0.0
1.006262 -0.009141 0.0
1.016329 -0.017252 0.0
1.032419 -0.027115 0.0
1.054831 -0.036459 0.0
1.082270 -0.042422 0.0
1.112108 -0.043645 0.0
1.141308 -0.040341 0.0
1.167052 -0.033298 0.0
1.186947 -0.023369 0.0
1.199219 -0.011653 0.0
1.202989 0.000503 0.0
1.198415 0.011745 0.0
1.186592 0.021019 0.0
1.169225 0.027710 0.0
1.148274 0.031659 0.0
1.125638 0.033073 0.0
1.102945 0.032400 0.0
1.081435 0.030193 0.0
1.061944 0.027003 0.0
1.044939 0.023311 0.0
1.030587 0.019497 0.0
1.018836 0.015832 0.0
1.009493 0.012488 0.0
1.002282 0.009557 0.0
0.996894 0.007069 0.0
0.993019 0.005017 0.0
0.990369 0.003365 0.0
0.988687 0.002065 0.0
0.987754 0.001066 0.0
0.987386 0.000317 0.0
0.987434 -0.000231 0.0
0.987777 -0.000618 0.0
0.988322 -0.000878 0.0
0.988999 -0.001042 0.0
0.989753 -0.001133 0.0
0.990543 -0.001170 0.0
0.991339 -0.001168 0.0
0.992121 -0.001139 0.0
0.992873 -0.001090 0.0
0.993588 -0.001030 0.0
0.994257 -0.000963 0.0
0.994880 -0.000893 0.0
0.995455 -0.000823 0.0
0.995982 -0.000753 0.0
0.996464 -0.000687 0.0
0.996901 -0.000624 0.0
0.997298 -0.000564 0.0
0.997656 -0.000509 0.0
0.997979 -0.000459 0.0
0.998269 -0.000412 0.0
0.998529 -0.000370 0.0
0.998763 -0.000331 0.0
0.998972 -0.000296 0.0
0.999158 -0.000265 0.0
0.999325 -0.000236 0.0
0.999474 -0.000211 0.0
0.999606 -0.000188 0.0
0.999725 -0.000167 0.0
0.999830 -0.000149 0.0
0.999923 -0.000132 0.0
1.000006 -0.000118 0.0
1.000080 -0.000105 0.0
1.000146 -0.000093 0.0
1.000205 -0.000083 0.0
1.000256 -0.000073 0.0
1.000303 -0.000065 0.0
1.000343 -0.000058 0.0
1.000380 -0.000051 0.0
1.000412 -0.000046 0.0
1.000441 -0.000041 0.0
1.000466 -0.000036 0.0
1.000489 -0.000032 0.0
1.000509 -0.000028 0.0
1.000527 -0.000025 0.0
1.000543 -0.000023 0.0
1.000557 -0.000020 0.0
1.000570 -0.000018 0.0
1.000581 -0.000016 0.0
1.000591 -0.000015 0.0
1.000601 -0.000014 0.0
1.000609 -0.000013 0.0
1.000617 -0.000012 0.0
1.000625 -0.000011 0.0
1.000633 -0.000011 0.0
1.000640 -0.000012 0.0
1.000648 -0.000012 0.0
1.000656 -0.000013 0.0
1.000665 -0.000015 0.0
1.000676 -0.000018 0.0
1.000689 -0.000022 0.0
1.000704 -0.000027 0.0
1.000723 -0.000035 0.0
1.000748 -0.000046 0.0
1.000780 -0.000063 0.0
1.000822 -0.000089 0.0
1.000878 -0.000132 0.0
1.000945 -0.000209 0.0
1.000987 -0.000367 0.0
1.000968 -0.000558 0.0
1.001229 -0.005309 0.0
1.006151 -0.016487 0.0
1.016461 -0.030283 0.0
1.033143 -0.046856 0.0
1.056584 -0.062570 0.0
1.085632 -0.072799 0.0
1.117794 -0.075269 0.0
1.149995 -0.070118 0.0
1.179036 -0.058306 0.0
1.201726 -0.040946 0.0
1.215434 -0.020056 0.0
1.218882 0.001689 0.0
1.212377 0.021637 0.0
1.197505 0.037824 0.0
1.176574 0.049204 0.0
1.152094 0.055597 0.0
1.126370 0.057494 0.0
1.101257 0.055786 0.0
1.078062 0.051511 0.0
1.057572 0.045665 0.0
1.040139 0.039088 0.0
1.025788 0.032423 0.0
1.014333 0.026112 0.0
1.005459 0.020425 0.0
0.998799 0.015491 0.0
0.993977 0.011345 0.0
0.990641 0.007953 0.0
0.988476 0.005244 0.0
0.987216 0.003129 0.0
0.986637 0.001515 0.0
0.986561 0.000313 0.0
0.986843 -0.000557 0.0
0.987372 -0.001164 0.0
0.988063 -0.001569 0.0
0.988852 -0.001817 0.0
0.989689 -0.001949 0.0
0.990540 -0.001995 0.0
0.991380 -0.001980 0.0
0.992192 -0.001921 0.0
0.992964 -0.001833 0.0
0.993691 -0.001728 0.0
0.994367 -0.001612 0.0
0.994992 -0.001492 0.0
0.995566 -0.001372 0.0
0.996091 -0.001255 0.0
0.996568 -0.001143 0.0
0.997001 -0.001037 0.0
0.997392 -0.000938 0.0
0.997744 -0.000846 0.0
0.998061 -0.000762 0.0
0.998346 -0.000684 0.0
0.998601 -0.000613 0.0
0.998830 -0.000549 0.0
0.999034 -0.000491 0.0
0.999216 -0.000439 0.0
0.999379 -0.000392 0.0
0.999524 -0.000349 0.0
0.999654 -0.000311 0.0
0.999769 -0.000277 0.0
0.999871 -0.000247 0.0
0.999962 -0.000219 0.0
1.000043 -0.000195 0.0
1.000115 -0.000173 0.0
1.000179 -0.000154 0.0
1.000236 -0.000137 0.0
1.000286 -0.000122 0.0
1.000331 -0.000108 0.0
1.000371 -0.000096 0.0
1.000406 -0.000085 0.0
1.000437 -0.000076 0.0
1.000465 -0.000067 0.0
1.000490 -0.000060 0.0
1.000512 -0.000053 0.0
1.000531 -0.000047 0.0
1.000549 -0.000042 0.0
1.000564 -0.000037 0.0
1.000578 -0.000033 0.0
1.000590 -0.000030 0.0
1.000601 -0.000027 0.0
1.000611 -0.000024 0.0
1.000620 -0.000022 0.0
1.000629 -0.000021 0.0
1.000636 -0.000020 0.0
1.000644 -0.000019 0.0
1.000651 -0.000019 0.0
1.000658 -0.000019 0.0
1.000665 -0.000020 0.0
1.000672 -0.000022 0.0
1.000681 -0.000024 0.0
1.000690 -0.000029 0.0
1.000701 -0.000034 0.0
1.000714 -0.000043 0.0
1.000729 -0.000054 0.0
1.000748 -0.000070 0.0
1.000772 -0.000094 0.0
1.000799 -0.000128 0.0
1.000830 -0.000179 0.0
1.000858 -0.000256 0.0
1.000865 -0.000369 0.0
1.000833 -0.000506 0.0
1.001232 -0.007770 0.0
1.006239 -0.023956 0.0
1.016846 -0.043731 0.0
1.034166 -0.067411 0.0
1.058806 -0.090096 0.0
1.089986 -0.105500 0.0
1.125618 -0.110361 0.0
1.162752 -0.104360 0.0
1.197665 -0.088017 0.0
1.225556 -0.061816 0.0
1.241909 -0.029249 0.0
1.244687 0.004656 0.0
1.234619 0.035243 0.0
1.214318 0.059391 0.0
1.187241 0.075645 0.0
1.156871 0.084005 0.0
1.126173 0.085507 0.0
1.097320 0.081739 0.0
1.071663 0.074411 0.0
1.049845 0.065073 0.0
1.031986 0.054972 0.0
1.017860 0.045014 0.0
1.007048 0.035789 0.0
0.999046 0.027624 0.0
0.993343 0.020655 0.0
0.989466 0.014880 0.0
0.987005 0.010216 0.0
0.985612 0.006537 0.0
0.985011 0.003697 0.0
0.984979 0.001556 0.0
0.985346 -0.000018 0.0
0.985980 -0.001142 0.0
0.986786 -0.001914 0.0
0.987689 -0.002414 0.0
0.988637 -0.002708 0.0
0.989593 -0.002851 0.0
0.990530 -0.002882 0.0
0.991431 -0.002834 0.0
0.992285 -0.002732 0.0
0.993084 -0.002595 0.0
0.993826 -0.002435 0.0
0.994511 -0.002265 0.0
0.995138 -0.002091 0.0
0.995710 -0.001919 0.0
0.996229 -0.001753 0.0
0.996699 -0.001594 0.0
0.997124 -0.001444 0.0
0.997507 -0.001305 0.0
0.997850 -0.001176 0.0
0.998159 -0.001058 0.0
0.998435 -0.000949 0.0
0.998682 -0.000851 0.0
0.998903 -0.000761 0.0
0.999100 -0.000681 0.0
0.999276 -0.000608 0.0
0.999433 -0.000542 0.0
0.999572 -0.000483 0.0
0.999697 -0.000431 0.0
0.999807 -0.000383 0.0
0.999906 -0.000341 0.0
0.999993 -0.000303 0.0
1.000071 -0.000270 0.0
1.000140 -0.000240 0.0
1.000201 -0.000213 0.0
1.000255 -0.000189 0.0
1.000304 -0.000168 0.0
1.000346 -0.000149 0.0
1.000385 -0.000132 0.0
1.000418 -0.000118 0.0
1.000448 -0.000104 0.0
1.000475 -0.000093 0.0
1.000498 -0.000082 0.0
1.000519 -0.000073 0.0
1.000538 -0.000065 0.0
1.000555 -0.000058 0.0
1.000569 -0.000052 0.0
1.000582 -0.000046 0.0
1.000594 -0.000041 0.0
1.000605 -0.000037 0.0
1.000614 -0.000034 0.0
1.000623 -0.000031 0.0
1.000630 -0.000028 0.0
1.000638 -0.000027 0.0
1.000644 -0.000026 0.0
1.000651 -0.000025 0.0
1.000657 -0.000025 0.0
1.000663 -0.000027 0.0
1.000670 -0.000029 0.0
1.000677 -0.000032 0.0
1.000684 -0.000038 0.0
1.000693 -0.000045 0.0
1.000702 -0.000055 0.0
1.000714 -0.000069 0.0
1.000726 -0.000088 0.0
1.000741 -0.000114 0.0
1.000755 -0.000150 0.0
1.000768 -0.000200 0.0
1.000773 -0.000267 0.0
1.000761 -0.000353 0.0
1.000724 -0.000454 0.0
1.001231 -0.010233 0.0
1.006261 -0.031530 0.0
1.016988 -0.057490 0.0
1.034677 -0.088661 0.0
1.060308 -0.119116 0.0
1.093809 -0.141161 0.0
1.134019 -0.150542 0.0
1.178613 -0.145909 0.0
1.223623 -0.126392 0.0
1.260997 -0.088706 0.0
1.281944 -0.039659 0.0
1.283308 0.010924 0.0
1.267082 0.055268 0.0
1.237902 0.088846 0.0
1.201191 0.109978 0.0
1.161965 0.119267 0.0
1.124118 0.118790 0.0
1.090175 0.111252 0.0
1.061410 0.099321 0.0
1.038146 0.085245 0.0
1.020090 0.070715 0.0
1.006612 0.056874 0.0
0.996948 0.044404 0.0
0.990329 0.033630 0.0
0.986057 0.024625 0.0
0.983540 0.017304 0.0
0.982298 0.011496 0.0
0.981958 0.006989 0.0
0.982236 0.003568 0.0
0.982922 0.001031 0.0
0.983862 -0.000801 0.0
0.984948 -0.002080 0.0
0.986101 -0.002934 0.0
0.987268 -0.003464 0.0
0.988414 -0.003752 0.0
0.989515 -0.003864 0.0
0.990556 -0.003848 0.0
0.991530 -0.003743 0.0
0.992431 -0.003579 0.0
0.993261 -0.003377 0.0
0.994020 -0.003154 0.0
0.994711 -0.002922 0.0
0.995338 -0.002689 0.0
0.995905 -0.002461 0.0
0.996416 -0.002242 0.0
0.996876 -0.002035 0.0
0.997290 -0.001841 0.0
0.997660 -0.001661 0.0
0.997992 -0.001495 0.0
0.998288 -0.001343 0.0
0.998553 -0.001205 0.0
0.998789 -0.001079 0.0
0.999000 -0.000965 0.0
0.999188 -0.000862 0.0
0.999355 -0.000769 0.0
0.999504 -0.000686 0.0
0.999636 -0.000611 0.0
0.999754 -0.000544 0.0
0.999858 -0.000485 0.0
0.999951 -0.000431 0.0
1.000034 -0.000383 0.0
1.000107 -0.000341 0.0
1.000172 -0.000303 0.0
1.000230 -0.000269 0.0
1.000281 -0.000239 0.0
1.000326 -0.000212 0.0
1.000367 -0.000188 0.0
1.000402 -0.000167 0.0
1.000434 -0.000148 0.0
1.000462 -0.000132 0.0
1.000487 -0.000117 0.0
1.000510 -0.000104 0.0
1.000529 -0.000092 0.0
1.000547 -0.000082 0.0
1.000562 -0.000073 0.0
1.000576 -0.000065 0.0
1.000588 -0.000058 0.0
1.000599 -0.000052 0.0
1.000609 -0.000047 0.0
1.000618 -0.000042 0.0
1.000626 -0.000039 0.0
1.000633 -0.000036 0.0
1.000639 -0.000033 0.0
1.000645 -0.000032 0.0
1.000651 -0.000031 0.0
1.000656 -0.000031 0.0
1.000662 -0.000032 0.0
1.000667 -0.000035 0.0
1.000672 -0.000039 0.0
1.000678 -0.000044 0.0
1.000683 -0.000052 0.0
1.000690 -0.000063 0.0
1.000696 -0.000078 0.0
1.000703 -0.000098 0.0
1.000709 -0.000124 0.0
1.000713 -0.000159 0.0
1.000713 -0.000204 0.0
1.000705 -0.000260 0.0
1.000683 -0.000326 0.0
1.000643 -0.000404 0.0
1.001173 -0.012637 0.0
1.005981 -0.038964 0.0
1.016302 -0.071103 0.0
1.033553 -0.109988 0.0
1.059234 -0.149101 0.0
1.094447 -0.179891 0.0
1.139868 -0.197444 0.0
1.194983 -0.198716 0.0
1.257626 -0.181236 0.0
1.312780 -0.126390 0.0
1.341318 -0.051460 0.0
1.339368 0.023311 0.0
1.312461 0.086014 0.0
1.269001 0.130741 0.0
1.217645 0.156151 0.0
1.165674 0.164292 0.0
1.118154 0.159132 0.0
1.077850 0.145156 0.0
1.045656 0.126375 0.0
1.021239 0.105872 0.0
1.003615 0.085768 0.0
0.991550 0.067364 0.0
0.983804 0.051325 0.0
0.979266 0.037866 0.0
0.977017 0.026909 0.0
0.976338 0.018216 0.0
0.976690 0.011474 0.0
0.977685 0.006356 0.0
0.979053 0.002555 0.0
0.980610 -0.000199 0.0
0.982234 -0.002135 0.0
0.983847 -0.003444 0.0
0.985402 -0.004277 0.0
0.986870 -0.004756 0.0
0.988237 -0.004973 0.0
0.989497 -0.005003 0.0
0.990650 -0.004902 0.0
0.991700 -0.004711 0.0
0.992650 -0.004463 0.0
0.993509 -0.004181 0.0
0.994282 -0.003882 0.0
0.994976 -0.003579 0.0
0.995599 -0.003281 0.0
0.996156 -0.002993 0.0
0.996655 -0.002719 0.0
0.997100 -0.002463 0.0
0.997498 -0.002224 0.0
0.997852 -0.002003 0.0
0.998168 -0.001800 0.0
0.998449 -0.001616 0.0
0.998699 -0.001447 0.0
0.998922 -0.001295 0.0
0.999120 -0.001157 0.0
0.999296 -0.001033 0.0
0.999452 -0.000922 0.0
0.999591 -0.000821 0.0
0.999714 -0.000732 0.0
0.999823 -0.000651 0.0
0.999921 -0.000579 0.0
1.000007 -0.000515 0.0
1.000083 -0.000458 0.0
1.000151 -0.000407 0.0
1.000211 -0.000362 0.0
1.000265 -0.000321 0.0
1.000312 -0.000285 0.0
1.000354 -0.000253 0.0
1.000391 -0.000225 0.0
1.000424 -0.000200 0.0
1.000454 -0.000177 0.0
1.000480 -0.000157 0.0
1.000503 -0.000140 0.0
1.000523 -0.000124 0.0
1.000541 -0.000110 0.0
1.000557 -0.000098 0.0
1.000572 -0.000087 0.0
1.000584 -0.000077 0.0
1.000596 -0.000069 0.0
1.000606 -0.000062 0.0
1.000614 -0.000056 0.0
1.000622 -0.000050 0.0
1.000629 -0.000046 0.0
1.000636 -0.000042 0.0
1.000641 -0.000039 0.0
1.000647 -0.000037 0.0
1.000651 -0.000036 0.0
1.000656 -0.000036 0.0
1.000660 -0.000037 0.0
1.000664 -0.000039 0.0
1.000667 -0.000043 0.0
1.000671 -0.000049 0.0
1.000674 -0.000057 0.0
1.000677 -0.000068 0.0
1.000679 -0.000082 0.0
1.000680 -0.000102 0.0
1.000680 -0.000126 0.0
1.000676 -0.000157 0.0
1.000667 -0.000196 0.0
1.000650 -0.000242 0.0
1.000622 -0.000294 0.0
1.000580 -0.000354 0.0
1.001007 -0.014816 0.0
1.005144 -0.045731 0.0
1.014092 -0.083606 0.0
1.029334 -0.129978 0.0
1.052949 -0.178406 0.0
1.087654 -0.220504 0.0
1.137267 -0.251864 0.0
1.205532 -0.267676 0.0
1.299607 -0.268995 0.0
1.387975 -0.182154 0.0
1.427443 -0.063702 0.0
1.418090 0.046855 0.0
1.373252 0.134215 0.0
1.307535 0.191716 0.0
1.234559 0.219507 0.0
1.164880 0.222587 0.0
1.104960 0.208276 0.0
1.057413 0.183863 0.0
1.022125 0.155150 0.0
0.997539 0.126100 0.0
0.981582 0.099122 0.0
0.972169 0.075488 0.0
0.967450 0.055666 0.0
0.965914 0.039599 0.0
0.966408 0.026931 0.0
0.968104 0.017177 0.0
0.970438 0.009827 0.0
0.973039 0.004405 0.0
0.975682 0.000496 0.0
0.978231 -0.002245 0.0
0.980617 -0.004098 0.0
0.982806 -0.005284 0.0
0.984790 -0.005976 0.0
0.986573 -0.006308 0.0
0.988167 -0.006382 0.0
0.989586 -0.006275 0.0
0.990848 -0.006046 0.0
0.991969 -0.005737 0.0
0.992962 -0.005381 0.0
0.993842 -0.005001 0.0
0.994622 -0.004615 0.0
0.995313 -0.004232 0.0
0.995925 -0.003863 0.0
0.996467 -0.003511 0.0
0.996947 -0.003180 0.0
0.997372 -0.002872 0.0
0.997749 -0.002588 0.0
0.998083 -0.002327 0.0
0.998379 -0.002088 0.0
0.998641 -0.001871 0.0
0.998873 -0.001674 0.0
0.999079 -0.001496 0.0
0.999262 -0.001336 0.0
0.999423 -0.001192 0.0
0.999567 -0.001062 0.0
0.999694 -0.000946 0.0
0.999806 -0.000842 0.0
0.999906 -0.000750 0.0
0.999994 -0.000667 0.0
1.000072 -0.000593 0.0
1.000142 -0.000527 0.0
1.000203 -0.000468 0.0
1.000258 -0.000416 0.0
1.000306 -0.000369 0.0
1.000349 -0.000328 0.0
1.000387 -0.000291 0.0
1.000420 -0.000258 0.0
1.000450 -0.000229 0.0
1.000477 -0.000203 0.0
1.000500 -0.000180 0.0
1.000521 -0.000160 0.0
1.000539 -0.000142 0.0
1.000555 -0.000126 0.0
1.000570 -0.000112 0.0
1.000583 -0.000100 0.0
1.000594 -0.000089 0.0
1.000604 -0.000079 0.0
1.000613 -0.000071 0.0
1.000621 -0.000063 0.0
1.000628 -0.000057 0.0
1.000634 -0.000052 0.0
1.000639 -0.000048 0.0
1.000644 -0.000044 0.0
1.000648 -0.000042 0.0
1.000652 -0.000040 0.0
1.000655 -0.000040 0.0
1.000658 -0.000040 0.0
1.000661 -0.000042 0.0
1.000662 -0.000046 0.0
1.000664 -0.000051 0.0
1.000664 -0.000059 0.0
1.000664 -0.000069 0.0
1.000663 -0.000082 0.0
1.000659 -0.000100 0.0
1.000653 -0.000121 0.0
1.000644 -0.000148 0.0
1.000629 -0.000181 0.0
1.000606 -0.000218 0.0
1.000575 -0.000259 0.0
1.000532 -0.000305 0.0
1.000690 -0.016513 0.0
1.003523 -0.051003 0.0
1.009695 -0.093453 0.0
1.020512 -0.146192 0.0
1.038372 -0.203666 0.0
1.067585 -0.259162 0.0
1.116088 -0.311322 0.0
1.195938 -0.356334 0.0
1.340880 -0.419353 0.0
1.480171 -0.259454 0.0
1.527197 -0.072896 0.0
1.505432 0.087167 0.0
1.437920 0.206254 0.0
1.344922 0.278392 0.0
1.245034 0.305695 0.0
1.153463 0.297650 0.0
1.079220 0.267377 0.0
1.024689 0.226842 0.0
0.987888 0.184260 0.0
0.965210 0.144253 0.0
0.953004 0.109131 0.0
0.948095 0.079801 0.0
0.947914 0.056253 0.0
0.950531 0.037932 0.0
0.954596 0.024039 0.0
0.959234 0.013735 0.0
0.963917 0.006253 0.0
0.968353 0.000941 0.0
0.972403 -0.002732 0.0
0.976016 -0.005181 0.0
0.979196 -0.006728 0.0
0.981969 -0.007617 0.0
0.984378 -0.008035 0.0
0.986464 -0.008119 0.0
0.988270 -0.007971 0.0
0.989834 -0.007669 0.0
0.991189 -0.007268 0.0
0.992364 -0.006810 0.0
0.993386 -0.006323 0.0
0.994275 -0.005829 0.0
0.995051 -0.005342 0.0
0.995728 -0.004873 0.0
0.996320 -0.004427 0.0
0.996839 -0.004008 0.0
0.997294 -0.003618 0.0
0.997693 -0.003259 0.0
0.998044 -0.002929 0.0
0.998352 -0.002628 0.0
0.998624 -0.002354 0.0
0.998863 -0.002106 0.0
0.999074 -0.001882 0.0
0.999260 -0.001680 0.0
0.999424 -0.001499 0.0
0.999569 -0.001336 0.0
0.999698 -0.001190 0.0
0.999811 -0.001059 0.0
0.999911 -0.000942 0.0
0.999999 -0.000838 0.0
1.000078 -0.000745 0.0
1.000147 -0.000662 0.0
1.000208 -0.000588 0.0
1.000262 -0.000522 0.0
1.000310 -0.000464 0.0
1.000353 -0.000412 0.0
1.000390 -0.000365 0.0
1.000424 -0.000324 0.0
1.000453 -0.000288 0.0
1.000479 -0.000255 0.0
1.000502 -0.000227 0.0
1.000523 -0.000201 0.0
1.000541 -0.000178 0.0
1.000557 -0.000158 0.0
1.000571 -0.000141 0.0
1.000584 -0.000125 0.0
1.000595 -0.000111 0.0
1.000605 -0.000099 0.0
1.000614 -0.000088 0.0
1.000621 -0.000079 0.0
1.000628 -0.000070 0.0
1.000634 -0.000063 0.0
1.000639 -0.000057 0.0
1.000644 -0.000052 0.0
1.000647 -0.000048 0.0
1.000651 -0.000045 0.0
1.000653 -0.000043 0.0
1.000656 -0.000042 0.0
1.000657 -0.000042 0.0
1.000658 -0.000044 0.0
1.000658 -0.000046 0.0
1.000658 -0.000051 0.0
1.000656 -0.000058 0.0
1.000653 -0.000067 0.0
1.000648 -0.000078 0.0
1.000641 -0.000093 0.0
1.000631 -0.000112 0.0
1.000617 -0.000134 0.0
1.000597 -0.000160 0.0
1.000571 -0.000190 0.0
1.000538 -0.000222 0.0
1.000495 -0.000258 0.0
1.000210 -0.017414 0.0
1.001038 -0.053763 0.0
1.002836 -0.098662 0.0
1.006279 -0.155244 0.0
1.013265 -0.219458 0.0
1.028377 -0.287696 0.0
1.062140 -0.365055 0.0
1.137055 -0.457366 0.0
1.333149 -0.659357 0.0
1.505130 -0.330721 0.0
1.525668 -0.069193 0.0
1.487668 0.143229 0.0
1.411613 0.293759 0.0
1.314328 0.381171 0.0
1.208883 0.408248 0.0
1.109468 0.386083 0.0
1.028940 0.333714 0.0
0.972951 0.271025 0.0
0.939239 0.210589 0.0
0.922358 0.157482 0.0
0.917123 0.113344 0.0
0.919290 0.078331 0.0
0.925581 0.051613 0.0
0.933699 0.031838 0.0
0.942210 0.017556 0.0
0.950318 0.007471 0.0
0.957643 0.000510 0.0
0.964055 -0.004164 0.0
0.969561 -0.007183 0.0
0.974236 -0.009018 0.0
0.978180 -0.010014 0.0
0.981498 -0.010423 0.0
0.984288 -0.010428 0.0
0.986636 -0.010160 0.0
0.988616 -0.009715 0.0
0.990289 -0.009162 0.0
0.991708 -0.008549 0.0
0.992914 -0.007911 0.0
0.993943 -0.007272 0.0
0.994823 -0.006649 0.0
0.995578 -0.006053 0.0
0.996228 -0.005489 0.0
0.996789 -0.004963 0.0
0.997275 -0.004475 0.0
0.997696 -0.004027 0.0
0.998062 -0.003616 0.0
0.998380 -0.003242 0.0
0.998658 -0.002902 0.0
0.998901 -0.002595 0.0
0.999113 -0.002318 0.0
0.999299 -0.002068 0.0
0.999463 -0.001844 0.0
0.999606 -0.001643 0.0
0.999732 -0.001463 0.0
0.999843 -0.001302 0.0
0.999941 -0.001158 0.0
1.000027 -0.001030 0.0
1.000103 -0.000915 0.0
1.000170 -0.000813 0.0
1.000229 -0.000722 0.0
1.000281 -0.000641 0.0
1.000328 -0.000569 0.0
1.000368 -0.000505 0.0
1.000404 -0.000448 0.0
1.000436 -0.000398 0.0
1.000464 -0.000353 0.0
1.000489 -0.000313 0.0
1.000511 -0.000278 0.0
1.000531 -0.000247 0.0
1.000548 -0.000219 0.0
1.000563 -0.000194 0.0
1.000577 -0.000172 0.0
1.000589 -0.000153 0.0
1.000599 -0.000136 0.0
1.000609 -0.000121 0.0
1.000617 -0.000107 0.0
1.000624 -0.000095 0.0
1.000630 -0.000085 0.0
1.000636 -0.000076 0.0
1.000641 -0.000068 0.0
1.000645 -0.000062 0.0
1.000648 -0.000056 0.0
1.000651 -0.000051 0.0
1.000654 -0.000048 0.0
1.000655 -0.000045 0.0
1.000656 -0.000043 0.0
1.000657 -0.000043 0.0
1.000656 -0.000043 0.0
1.000655 -0.000045 0.0
1.000653 -0.000049 0.0
1.000649 -0.000054 0.0
1.000644 -0.000062 0.0
1.000636 -0.000071 0.0
1.000626 -0.000083 0.0
1.000613 -0.000098 0.0
1.000595 -0.000116 0.0
1.000573 -0.000136 0.0
1.000544 -0.000159 0.0
1.000509 -0.000184 0.0
1.000466 -0.000211 0.0
0.999608 -0.017233 0.0
0.997907 -0.053072 0.0
0.994088 -0.097331 0.0
0.987662 -0.153593 0.0
0.978740 -0.219172 0.0
0.969129 -0.293484 0.0
0.964848 -0.388749 0.0
0.985256 -0.528995 0.0
1.127554 -0.926121 0.0
1.202455 -0.179075 0.0
1.128976 -0.031151 0.0
1.087327 0.189821 0.0
1.064789 0.345760 0.0
1.047783 0.443461 0.0
1.021764 0.477421 0.0
0.984803 0.453286 0.0
0.941990 0.389850 0.0
0.902996 0.309874 0.0
0.877634 0.230814 0.0
0.869237 0.162535 0.0
0.874127 0.108636 0.0
0.886400 0.068599 0.0
0.901424 0.040031 0.0
0.916474 0.020251 0.0
0.930228 0.006879 0.0
0.942186 -0.001919 0.0
0.952283 -0.007522 0.0
0.960662 -0.010922 0.0
0.967549 -0.012817 0.0
0.973185 -0.013693 0.0
0.977790 -0.013888 0.0
0.981556 -0.013634 0.0
0.984641 -0.013093 0.0
0.987177 -0.012379 0.0
0.989268 -0.011568 0.0
0.991000 -0.010714 0.0
0.992439 -0.009855 0.0
0.993641 -0.009013 0.0
0.994648 -0.008206 0.0
0.995495 -0.007443 0.0
0.996211 -0.006730 0.0
0.996818 -0.006069 0.0
0.997334 -0.005461 0.0
0.997775 -0.004904 0.0
0.998153 -0.004397 0.0
0.998478 -0.003936 0.0
0.998757 -0.003520 0.0
0.998999 -0.003144 0.0
0.999208 -0.002805 0.0
0.999390 -0.002501 0.0
0.999548 -0.002229 0.0
0.999685 -0.001984 0.0
0.999805 -0.001766 0.0
0.999910 -0.001571 0.0
1.000002 -0.001397 0.0
1.000083 -0.001241 0.0
1.000154 -0.001103 0.0
1.000216 -0.000980 0.0
1.000270 -0.000870 0.0
1.000319 -0.000772 0.0
1.000361 -0.000686 0.0
1.000398 -0.000608 0.0
1.000431 -0.000540 0.0
1.000460 -0.000479 0.0
1.000486 -0.000425 0.0
1.000508 -0.000377 0.0
1.000528 -0.000334 0.0
1.000546 -0.000297 0.0
1.000562 -0.000263 0.0
1.000575 -0.000233 0.0
1.000588 -0.000207 0.0
1.000598 -0.000184 0.0
1.000608 -0.000163 0.0
1.000616 -0.000145 0.0
1.000623 -0.000128 0.0
1.000630 -0.000114 0.0
1.000636 -0.000101 0.0
1.000641 -0.000090 0.0
1.000645 -0.000081 0.0
1.000648 -0.000072 0.0
1.000651 -0.000065 0.0
1.000654 -0.000059 0.0
1.000656 -0.000053 0.0
1.000657 -0.000049 0.0
1.000658 -0.000046 0.0
1.000658 -0.000043 0.0
1.000657 -0.000042 0.0
1.000655 -0.000042 0.0
1.000653 -0.000043 0.0
1.000649 -0.000045 0.0
1.000643 -0.000049 0.0
1.000636 -0.000054 0.0
1.000627 -0.000061 0.0
1.000614 -0.000071 0.0
1.000598 -0.000082 0.0
1.000579 -0.000095 0.0
1.000554 -0.000110 0.0
1.000524 -0.000127 0.0
1.000488 -0.000145 0.0
1.000445 -0.000164 0.0
0.998990 -0.015831 0.0
0.994695 -0.048477 0.0
0.985080 -0.088492 0.0
0.968262 -0.139189 0.0
0.941764 -0.198155 0.0
0.901967 -0.265094 0.0
0.841473 -0.352364 0.0
0.746751 -0.491066 0.0
0.344368 -0.835729 0.0
-0.582533 0.307071 0.0
-0.582533 0.000000 0.0
0.127236 0.102652 0.0
0.372089 0.235198 0.0
0.558552 0.384566 0.0
0.664198 0.456690 0.0
0.716466 0.458711 0.0
0.738081 0.405621 0.0
0.750964 0.320215 0.0
0.768412 0.228386 0.0
0.792861 0.148913 0.0
0.821378 0.088852 0.0
0.850346 0.047141 0.0
0.877173 0.019639 0.0
0.900537 0.002228 0.0
0.920054 -0.008369 0.0
0.935924 -0.014500 0.0
0.948643 -0.017756 0.0
0.958761 -0.019186 0.0
0.966790 -0.019471 0.0
0.973165 -0.019051 0.0
0.978240 -0.018209 0.0
0.982293 -0.017130 0.0
0.985543 -0.015933 0.0
0.988162 -0.014694 0.0
0.990280 -0.013463 0.0
0.992003 -0.012273 0.0
0.993409 -0.011142 0.0
0.994562 -0.010081 0.0
0.995513 -0.009096 0.0
0.996299 -0.008187 0.0
0.996952 -0.007355 0.0
0.997498 -0.006596 0.0
0.997955 -0.005907 0.0
0.998339 -0.005283 0.0
0.998663 -0.004720 0.0
0.998939 -0.004213 0.0
0.999173 -0.003757 0.0
0.999372 -0.003348 0.0
0.999543 -0.002981 0.0
0.999690 -0.002654 0.0
0.999816 -0.002361 0.0
0.999925 -0.002099 0.0
1.000020 -0.001866 0.0
1.000102 -0.001658 0.0
1.000173 -0.001473 0.0
1.000235 -0.001308 0.0
1.000289 -0.001161 0.0
1.000336 -0.001031 0.0
1.000377 -0.000915 0.0
1.000414 -0.000812 0.0
1.000445 -0.000720 0.0
1.000473 -0.000639 0.0
1.000498 -0.000567 0.0
1.000519 -0.000503 0.0
1.000538 -0.000446 0.0
1.000555 -0.000395 0.0
1.000570 -0.000351 0.0
1.000583 -0.000311 0.0
1.000594 -0.000276 0.0
1.000604 -0.000244 0.0
1.000613 -0.000217 0.0
1.000621 -0.000192 0.0
1.000628 -0.000171 0.0
1.000634 -0.000151 0.0
1.000639 -0.000134 0.0
1.000644 -0.000119 0.0
1.000648 -0.000106 0.0
1.000651 -0.000094 0.0
1.000654 -0.000084 0.0
1.000657 -0.000075 0.0
1.000658 -0.000067 0.0
1.000660 -0.000060 0.0
1.000661 -0.000054 0.0
1.000661 -0.000050 0.0
1.000661 -0.000046 0.0
1.000660 -0.000043 0.0
1.000658 -0.000041 0.0
1.000656 -0.000039 0.0
1.000652 -0.000039 0.0
1.000647 -0.000040 0.0
1.000640 -0.000042 0.0
1.000631 -0.000045 0.0
1.000620 -0.000050 0.0
1.000606 -0.000056 0.0
1.000588 -0.000063 0.0
1.000567 -0.000072 0.0
1.000541 -0.000082 0.0
1.000510 -0.000094 0.0
1.000473 -0.000106 0.0
1.000430 -0.000119 0.0
0.998494 -0.013316 0.0
0.992136 -0.040338 0.0
0.977978 -0.072858 0.0
0.953181 -0.113209 0.0
0.913599 -0.158054 0.0
0.852305 -0.204104 0.0
0.754002 -0.254556 0.0
0.579259 -0.319409 0.0
0.232808 -0.381355 0.0
0.000000 0.307071 0.0
-0.000000 -0.000000 0.0
0.000000 0.000000 0.0
0.049100 0.058790 0.0
0.196055 0.217865 0.0
0.359140 0.354661 0.0
0.465026 0.402586 0.0
0.535576 0.369580 0.0
0.594614 0.284336 0.0
0.653791 0.187638 0.0
0.712865 0.106137 0.0
0.768022 0.047955 0.0
0.816300 0.010792 0.0
0.856417 -0.010956 0.0
0.888487 -0.022611 0.0
0.913519 -0.028078 0.0
0.932809 -0.029952 0.0
0.947600 -0.029813 0.0
0.958947 -0.028593 0.0
0.967684 -0.026830 0.0
0.974446 -0.024830 0.0
0.979711 -0.022769 0.0
0.983832 -0.020746 0.0
0.987078 -0.018813 0.0
0.989646 -0.017000 0.0
0.991689 -0.015318 0.0
0.993321 -0.013772 0.0
0.994631 -0.012359 0.0
0.995687 -0.011073 0.0
0.996541 -0.009908 0.0
0.997236 -0.008855 0.0
0.997802 -0.007907 0.0
0.998266 -0.007054 0.0
0.998647 -0.006288 0.0
0.998962 -0.005602 0.0
0.999223 -0.004987 0.0
0.999441 -0.004438 0.0
0.999622 -0.003947 0.0
0.999774 -0.003509 0.0
0.999902 -0.003119 0.0
1.000010 -0.002771 0.0
1.000102 -0.002461 0.0
1.000180 -0.002186 0.0
1.000247 -0.001940 0.0
1.000304 -0.001722 0.0
1.000352 -0.001529 0.0
1.000395 -0.001356 0.0
1.000431 -0.001203 0.0
1.000462 -0.001067 0.0
1.000489 -0.000947 0.0
1.000513 -0.000840 0.0
1.000534 -0.000745 0.0
1.000552 -0.000660 0.0
1.000567 -0.000586 0.0
1.000581 -0.000519 0.0
1.000593 -0.000460 0.0
1.000604 -0.000408 0.0
1.000613 -0.000362 0.0
1.000621 -0.000321 0.0
1.000628 -0.000284 0.0
1.000634 -0.000252 0.0
1.000640 -0.000223 0.0
1.000645 -0.000198 0.0
1.000649 -0.000176 0.0
1.000652 -0.000156 0.0
1.000656 -0.000138 0.0
1.000658 -0.000123 0.0
1.000661 -0.000109 0.0
1.000663 -0.000097 0.0
1.000664 -0.000086 0.0
1.000665 -0.000076 0.0
1.000666 -0.000068 0.0
1.000666 -0.000061 0.0
1.000666 -0.000055 0.0
1.000666 -0.000049 0.0
1.000665 -0.000045 0.0
1.000663 -0.000041 0.0
1.000660 -0.000038 0.0
1.000657 -0.000036 0.0
1.000652 -0.000034 0.0
1.000646 -0.000034 0.0
1.000638 -0.000034 0.0
1.000628 -0.000035 0.0
1.000616 -0.000037 0.0
1.000601 -0.000040 0.0
1.000582 -0.000043 0.0
1.000559 -0.000048 0.0
1.000532 -0.000053 0.0
1.000501 -0.000060 0.0
1.000464 -0.000066 0.0
1.000421 -0.000073 0.0
0.998222 -0.010032 0.0
0.990769 -0.029810 0.0
0.974337 -0.052796 0.0
0.945960 -0.080097 0.0
0.901727 -0.107350 0.0
0.836359 -0.128146 0.0
0.741215 -0.137066 0.0
0.602957 -0.123898 0.0
0.423942 -0.042440 0.0
0.163398 0.143372 0.0
0.000000 0.000000 0.0
-0.000000 -0.000000 0.0
0.000000 0.000000 0.0
0.050944 0.060005 0.0
0.175021 0.216299 0.0
0.289307 0.320776 0.0
0.365527 0.304620 0.0
0.445026 0.210759 0.0
0.538717 0.108348 0.0
0.634496 0.030574 0.0
0.720129 -0.017271 0.0
0.789843 -0.041973 0.0
0.843444 -0.051909 0.0
0.883376 -0.053661 0.0
0.912702 -0.051385 0.0
0.934185 -0.047418 0.0
0.949999 -0.042953 0.0
0.961743 -0.038545 0.0
0.970553 -0.034424 0.0
0.977225 -0.030670 0.0
0.982324 -0.027292 0.0
0.986249 -0.024270 0.0
0.989289 -0.021575 0.0
0.991656 -0.019174 0.0
0.993508 -0.017038 0.0
0.994962 -0.015138 0.0
0.996108 -0.013448 0.0
0.997013 -0.011945 0.0
0.997730 -0.010608 0.0
0.998300 -0.009420 0.0
0.998754 -0.008363 0.0
0.999117 -0.007424 0.0
0.999407 -0.006589 0.0
0.999640 -0.005848 0.0
0.999827 -0.005189 0.0
0.999979 -0.004604 0.0
1.000101 -0.004085 0.0
1.000200 -0.003623 0.0
1.000281 -0.003214 0.0
1.000348 -0.002850 0.0
1.000402 -0.002528 0.0
1.000446 -0.002242 0.0
1.000483 -0.001988 0.0
1.000514 -0.001762 0.0
1.000539 -0.001563 0.0