# vtk DataFile Version 3.0
Scalar Field
ASCII
DATASET RECTILINEAR_GRID
DIMENSIONS 100 26 1
X_COORDINATES 100 double
0.050000 0.150000 0.250000 0.350000 0.450000 0.550000 0.650000 0.750000 0.850000 0.950000 1.050000 1.150000 1.250000 1.350000 1.450000 1.550000 1.650000 1.750000 1.850000 1.950000 2.050000 2.150000 2.250000 2.350000 2.450000 2.550000 2.650000 2.750000 2.850000 2.950000 3.050000 3.150000 3.250000 3.350000 3.450000 3.550000 3.650000 3.750000 3.850000 3.950000 4.050000 4.150000 4.250000 4.350000 4.450000 4.550000 4.650000 4.750000 4.850000 4.950000 5.050000 5.150000 5.250000 5.350000 5.450000 5.550000 5.650000 5.750000 5.850000 5.950000 6.050000 6.150000 6.250000 6.350000 6.450000 6.550000 6.650000 6.750000 6.850000 6.950000 7.050000 7.150000 7.250000 7.350000 7.450000 7.550000 7.650000 7.750000 7.850000 7.950000 8.050000 8.150000 8.250000 8.350000 8.450000 8.550000 8.650000 8.750000 8.850000 8.950000 9.050000 9.150000 9.250000 9.350000 9.450000 9.550000 9.650000 9.750000 9.850000 9.950000 
Y_COORDINATES 26 double
0.050000 0.150000 0.250000 0.350000 0.450000 0.550000 0.650000 0.750000 0.850000 0.950000 1.050000 1.150000 1.250000 1.350000 1.450000 1.550000 1.650000 1.750000 1.850000 1.950000 2.050000 2.150000 2.250000 2.350000 2.450000 2.550000 
Z_COORDINATES 1 double
0.0
POINT_DATA 2600
SCALARS Skalarfeld double 1
LOOKUP_TABLE default
0.205820
0.202136
0.194467
0.182398
0.165661
0.144088
0.117674
0.086686
0.051774
0.014017
-0.025145
-0.064142
-0.101526
-0.136132
-0.167105
-0.193840
-0.215888
-0.232887
-0.244547
-0.250545
-0.250796
-0.245503
-0.235142
-0.220442
-0.202317
-0.181770
-0.159795
-0.137283
-0.114965
-0.093385
-0.072891
-0.053669
-0.035788
-0.019268
-0.004176
0.009473
0.021407
0.031030
0.037621
0.040527
0.039433
0.034631
0.027117
0.018431
0.010257
0.003931
0.000568
0.000321
0.002788
0.007283
0.013003
0.019172
0.025138
0.030427
0.034761
0.038055
0.040394
0.041999
0.043170
0.044223
0.045405
0.046804
0.048648
0.050789
0.053066
0.055354
0.057523
0.059386
0.060665
0.060981
0.059907
0.057095
0.052441
0.046238
0.039232
0.032493
0.027077
0.023804
0.022761
0.023487
0.025177
0.026856
0.027618
0.026861
0.024448
0.020714
0.016281
0.011747
0.007424
0.003258
-0.001033
-0.005641
-0.010907
-0.016886
-0.023473
-0.030446
-0.037497
-0.044227
-0.050089
-0.053945
0.208858
0.206045
0.198636
0.186568
0.169619
0.147572
0.120358
0.088210
0.051826
0.012443
-0.028240
-0.068427
-0.106585
-0.141593
-0.172719
-0.199497
-0.221585
-0.238665
-0.250410
-0.256486
-0.256689
-0.251170
-0.240391
-0.225104
-0.206269
-0.184946
-0.162180
-0.138906
-0.115885
-0.093676
-0.072633
-0.052941
-0.034653
-0.017757
-0.002229
0.011710
0.023661
0.033072
0.039242
0.041539
0.039684
0.034003
0.025542
0.015933
0.007016
0.000376
-0.003126
-0.003284
-0.000552
0.004312
0.010440
0.017013
0.023353
0.028978
0.033610
0.037170
0.039752
0.041580
0.042957
0.044189
0.045528
0.047154
0.048896
0.050772
0.052713
0.054642
0.056460
0.058011
0.059037
0.059172
0.057993
0.055145
0.050494
0.044274
0.037151
0.030158
0.024505
0.021130
0.019967
0.020651
0.022393
0.024214
0.025198
0.024745
0.022725
0.019470
0.015568
0.011558
0.007691
0.003895
-0.000125
-0.004799
-0.010224
-0.016401
-0.023228
-0.030496
-0.037929
-0.045188
-0.051857
-0.058163
0.217044
0.214468
0.207224
0.195130
0.177835
0.154946
0.126200
0.091706
0.052223
0.009318
-0.034645
-0.077334
-0.117045
-0.152804
-0.184176
-0.211006
-0.233185
-0.250493
-0.262580
-0.268937
-0.269139
-0.263237
-0.251658
-0.235195
-0.214904
-0.191961
-0.167515
-0.142589
-0.118007
-0.094368
-0.072054
-0.051258
-0.032036
-0.014370
0.001752
0.016114
0.028221
0.037417
0.042909
0.044027
0.040520
0.032810
0.022118
0.010346
-0.000321
-0.008012
-0.011802
-0.011707
-0.008356
-0.002664
0.004384
0.011889
0.019135
0.025625
0.031081
0.035429
0.038758
0.041271
0.043228
0.044875
0.046400
0.047914
0.049419
0.050930
0.052395
0.053788
0.055064
0.056118
0.056733
0.056565
0.055195
0.052251
0.047557
0.041269
0.033946
0.026526
0.020151
0.015856
0.014301
0.014767
0.016543
0.018704
0.020362
0.020900
0.020115
0.018195
0.015541
0.012520
0.009286
0.005757
0.001711
-0.003101
-0.008781
-0.015329
-0.022616
-0.030447
-0.038585
-0.046773
-0.054761
-0.063804
0.229929
0.227472
0.220410
0.208367
0.190726
0.166736
0.135725
0.097477
0.052761
0.003687
-0.045846
-0.092454
-0.134289
-0.170805
-0.202189
-0.228866
-0.251121
-0.268863
-0.281595
-0.288512
-0.288845
-0.282413
-0.269577
-0.251223
-0.228589
-0.203053
-0.175947
-0.148431
-0.121425
-0.095594
-0.071357
-0.048930
-0.028373
-0.009647
0.007312
0.022369
0.034828
0.043833
0.048393
0.047753
0.041703
0.030796
0.016501
0.001138
-0.012510
-0.021899
-0.025882
-0.025178
-0.020670
-0.013530
-0.004937
0.004092
0.012786
0.020632
0.027354
0.032875
0.037269
0.040704
0.043386
0.045513
0.047241
0.048666
0.049824
0.050744
0.051645
0.052370
0.052940
0.053324
0.053386
0.052833
0.051271
0.048320
0.043757
0.037644
0.030406
0.022827
0.015920
0.010661
0.008136
0.008186
0.009835
0.012288
0.014702
0.016424
0.017122
0.016780
0.015566
0.013667
0.011164
0.007999
0.004026
-0.000908
-0.006883
-0.013875
-0.021755
-0.030328
-0.039376
-0.048695
-0.058134
-0.069416
0.247287
0.245000
0.238322
0.226643
0.208947
0.183876
0.149969
0.106237
0.053204
-0.006352
-0.064687
-0.116571
-0.160474
-0.196994
-0.227522
-0.253465
-0.275722
-0.294345
-0.308424
-0.316526
-0.317382
-0.310338
-0.295666
-0.274460
-0.248311
-0.218947
-0.187983
-0.156778
-0.126382
-0.097534
-0.070698
-0.046114
-0.023843
-0.003815
0.014120
0.030084
0.043102
0.051988
0.055457
0.052697
0.043598
0.028848
0.010081
-0.010055
-0.028157
-0.040814
-0.045514
-0.043894
-0.037651
-0.028359
-0.017511
-0.006308
0.004391
0.014048
0.022391
0.029348
0.034986
0.039452
0.042925
0.045577
0.047548
0.048922
0.049731
0.049994
0.049777
0.049608
0.049299
0.048837
0.048249
0.047326
0.045701
0.042982
0.038886
0.033368
0.026701
0.019487
0.012585
0.006929
0.003318
0.002647
0.003933
0.006428
0.009349
0.012020
0.013989
0.015047
0.015157
0.014347
0.012621
0.009917
0.006128
0.001141
-0.005098
-0.012547
-0.021065
-0.030442
-0.040455
-0.050914
-0.061706
-0.074823
0.268805
0.266833
0.260965
0.250325
0.233372
0.207820
0.170774
0.119482
0.053324
-0.024782
-0.096379
-0.153892
-0.198106
-0.232314
-0.259961
-0.283929
-0.306031
-0.326513
-0.343643
-0.354377
-0.356744
-0.349200
-0.331960
-0.306614
-0.275406
-0.240642
-0.204355
-0.168166
-0.133269
-0.100481
-0.070306
-0.043011
-0.018679
0.002754
0.021488
0.038058
0.051754
0.060612
0.062924
0.058007
0.046074
0.028003
0.005437
-0.019022
-0.041831
-0.059023
-0.067339
-0.065410
-0.057544
-0.045954
-0.032558
-0.018834
-0.005790
0.005971
0.016160
0.024704
0.031671
0.037205
0.041477
0.044651
0.046847
0.048120
0.048471
0.047920
0.046599
0.044778
0.043296
0.041881
0.040696
0.039580
0.038167
0.036031
0.032824
0.028386
0.022828
0.016563
0.010263
0.004734
0.000717
-0.000999
-0.000162
0.002089
0.005129
0.008308
0.011103
0.013163
0.014290
0.014379
0.013348
0.011107
0.007544
0.002557
-0.003896
-0.011761
-0.020879
-0.031015
-0.041925
-0.053414
-0.065379
-0.080039
0.293900
0.292473
0.288083
0.279622
0.264985
0.240651
0.201326
0.140397
0.053035
-0.060455
-0.149925
-0.209343
-0.248355
-0.275387
-0.296453
-0.316173
-0.337587
-0.361486
-0.385309
-0.402168
-0.408200
-0.400692
-0.380062
-0.348992
-0.310892
-0.268949
-0.225749
-0.183213
-0.142677
-0.105013
-0.070753
-0.040203
-0.013531
0.009206
0.028122
0.043485
0.057371
0.065952
0.066690
0.059470
0.045397
0.025752
0.001945
-0.024021
-0.049186
-0.069864
-0.082713
-0.083904
-0.075667
-0.062825
-0.047619
-0.031847
-0.016738
-0.003027
0.008919
0.018987
0.027222
0.033755
0.038748
0.042348
0.044639
0.045618
0.045245
0.043567
0.040856
0.037627
0.034498
0.032185
0.030623
0.029621
0.028774
0.027610
0.025710
0.022804
0.018850
0.014068
0.008936
0.004108
0.000274
-0.002002
-0.001897
-0.000157
0.002622
0.005839
0.008953
0.011532
0.013269
0.013951
0.013419
0.011531
0.008152
0.003171
-0.003460
-0.011678
-0.021307
-0.032088
-0.043751
-0.056087
-0.069000
-0.084924
0.321571
0.320975
0.318930
0.314260
0.304507
0.284939
0.246890
0.175983
0.052543
-0.134165
-0.238715
-0.284526
-0.307271
-0.320222
-0.329925
-0.342134
-0.361113
-0.388920
-0.423659
-0.455194
-0.468992
-0.462905
-0.438357
-0.400225
-0.353760
-0.303313
-0.252088
-0.202291
-0.155367
-0.112217
-0.073385
-0.039229
-0.010076
0.013672
0.031750
0.044661
0.052923
0.059601
0.057845
0.048365
0.034180
0.016357
-0.004623
-0.027794
-0.051163
-0.071751
-0.086288
-0.092296
-0.086492
-0.074487
-0.059198
-0.042759
-0.026634
-0.011743
0.001408
0.012598
0.021797
0.029082
0.034573
0.038367
0.040481
0.040843
0.039391
0.036269
0.031974
0.027298
0.023032
0.020023
0.018389
0.017849
0.017931
0.018103
0.017872
0.016869
0.014907
0.012031
0.008524
0.004871
0.001658
-0.000575
-0.001291
-0.000098
0.002155
0.005019
0.007994
0.010627
0.012549
0.013473
0.013173
0.011457
0.008154
0.003131
-0.003668
-0.012183
-0.022222
-0.033506
-0.045744
-0.058714
-0.072324
-0.089192
0.350294
0.350807
0.351987
0.352926
0.351461
0.342634
0.314988
0.242105
0.056979
-0.298611
-0.374450
-0.366478
-0.361395
-0.356872
-0.352796
-0.355323
-0.369263
-0.397782
-0.442042
-0.494239
-0.526306
-0.524560
-0.497052
-0.452376
-0.398112
-0.339804
-0.281186
-0.224696
-0.171879
-0.123689
-0.080714
-0.043385
-0.012290
0.011444
0.026473
0.033355
0.035013
0.032408
0.027218
0.019448
0.009525
-0.002430
-0.016661
-0.033092
-0.050750
-0.067584
-0.080885
-0.088185
-0.087635
-0.078027
-0.064502
-0.049152
-0.033521
-0.018672
-0.005277
0.006293
0.015879
0.023451
0.029038
0.032647
0.034202
0.033570
0.030722
0.025976
0.020113
0.014199
0.009202
0.005873
0.004520
0.004793
0.006151
0.007985
0.009722
0.010893
0.011189
0.010496
0.008925
0.006795
0.004573
0.002764
0.001800
0.002258
0.003809
0.006048
0.008538
0.010845
0.012580
0.013414
0.013073
0.011321
0.007951
0.002806
-0.004183
-0.012956
-0.023316
-0.034968
-0.047602
-0.060984
-0.075024
-0.092477
0.378047
0.379823
0.384772
0.392649
0.402575
0.411709
0.411039
0.370581
0.153337
-0.617393
-0.533944
-0.413327
-0.390934
-0.378455
-0.365616
-0.362869
-0.374382
-0.400342
-0.444156
-0.501841
-0.554561
-0.564984
-0.537491
-0.490103
-0.432197
-0.370023
-0.307576
-0.247462
-0.191411
-0.140595
-0.095908
-0.058313
-0.029239
-0.010420
-0.002444
-0.002982
-0.007577
-0.013356
-0.017644
-0.020668
-0.023590
-0.027266
-0.032535
-0.039985
-0.049529
-0.060089
-0.069706
-0.076178
-0.077905
-0.072823
-0.062421
-0.049684
-0.036016
-0.022525
-0.010007
0.001011
0.010215
0.017435
0.022572
0.025511
0.026075
0.024090
0.019617
0.013199
0.005894
-0.001018
-0.006471
-0.009758
-0.010479
-0.009038
-0.006065
-0.002267
0.001682
0.005213
0.007910
0.009535
0.010054
0.009642
0.008643
0.007498
0.006611
0.006505
0.007397
0.008900
0.010703
0.012429
0.013704
0.014185
0.013571
0.011592
0.008013
0.002656
-0.004558
-0.013572
-0.024182
-0.036081
-0.048944
-0.062521
-0.076715
-0.094362
0.402531
0.405486
0.414004
0.428667
0.450450
0.480616
0.520068
0.565924
0.654343
0.018475
-0.463523
-0.393101
-0.395820
-0.391161
-0.385515
-0.384740
-0.393854
-0.413738
-0.448717
-0.497343
-0.544885
-0.568037
-0.544954
-0.499803
-0.444206
-0.384239
-0.323651
-0.265092
-0.210530
-0.161523
-0.119524
-0.086222
-0.063578
-0.052806
-0.052476
-0.058028
-0.064338
-0.068165
-0.067275
-0.063337
-0.058013
-0.052700
-0.048611
-0.046724
-0.047559
-0.050863
-0.055472
-0.059602
-0.061468
-0.059761
-0.053495
-0.044314
-0.033646
-0.022569
-0.011933
-0.002376
0.005647
0.011822
0.015907
0.017653
0.016784
0.013119
0.006842
-0.001272
-0.009921
-0.017672
-0.023391
-0.026360
-0.026125
-0.023170
-0.018249
-0.012207
-0.005846
0.000159
0.005298
0.009243
0.011858
0.013206
0.013537
0.013228
0.012704
0.012353
0.012596
0.013358
0.014406
0.015432
0.016096
0.016063
0.015019
0.012676
0.008779
0.003138
-0.004331
-0.013571
-0.024370
-0.036408
-0.049342
-0.062899
-0.076967
-0.094391
0.421603
0.425381
0.436377
0.455694
0.485439
0.529259
0.593484
0.688695
0.819358
0.840163
0.000000
-0.396925
-0.400749
-0.404645
-0.408689
-0.415214
-0.424792
-0.439440
-0.461554
-0.489892
-0.516601
-0.527511
-0.516309
-0.476118
-0.427416
-0.374989
-0.321806
-0.270336
-0.222673
-0.180705
-0.146411
-0.122022
-0.109359
-0.107994
-0.113992
-0.121489
-0.125821
-0.123467
-0.114989
-0.102617
-0.088445
-0.074236
-0.061414
-0.051092
-0.044031
-0.040470
-0.039903
-0.041066
-0.042339
-0.042361
-0.039727
-0.034035
-0.026768
-0.018707
-0.010636
-0.003238
0.002936
0.007448
0.009922
0.009981
0.007264
0.001610
-0.006654
-0.016531
-0.026516
-0.035046
-0.040922
-0.043352
-0.041869
-0.037083
-0.029917
-0.021395
-0.012477
-0.003957
0.003575
0.009731
0.014318
0.017335
0.018963
0.019532
0.019448
0.019100
0.018909
0.019053
0.019407
0.019741
0.019766
0.019165
0.017629
0.014859
0.010596
0.004643
-0.003082
-0.012514
-0.023431
-0.035498
-0.048343
-0.061662
-0.075315
-0.092059
0.433768
0.437841
0.449678
0.470368
0.501836
0.546872
0.608705
0.688790
0.780873
0.860968
0.766547
0.000000
-0.409708
-0.418667
-0.432501
-0.450445
-0.468181
-0.481013
-0.486292
-0.486175
-0.481354
-0.468089
-0.449917
-0.420235
-0.379894
-0.337694
-0.295444
-0.255238
-0.219091
-0.189093
-0.167633
-0.157006
-0.157727
-0.166706
-0.177879
-0.185219
-0.184937
-0.173894
-0.156363
-0.134870
-0.111851
-0.089335
-0.068865
-0.051542
-0.038100
-0.028908
-0.023823
-0.022035
-0.022169
-0.022691
-0.022270
-0.020123
-0.016239
-0.011340
-0.006126
-0.001269
0.002629
0.005041
0.005474
0.003439
-0.001482
-0.009406
-0.019849
-0.031607
-0.042992
-0.052309
-0.058275
-0.059974
-0.057000
-0.050134
-0.040510
-0.029365
-0.017837
-0.006848
0.002939
0.011102
0.017434
0.021916
0.024699
0.026088
0.026478
0.026273
0.025856
0.025560
0.025364
0.025116
0.024578
0.023462
0.021465
0.018295
0.013689
0.007459
-0.000472
-0.010024
-0.020961
-0.032922
-0.045503
-0.058354
-0.071285
-0.086836
0.438486
0.442328
0.453418
0.472484
0.500708
0.539577
0.590026
0.649953
0.705874
0.720049
0.672127
0.548113
0.000000
-0.438273
-0.457878
-0.501316
-0.533604
-0.545524
-0.527086
-0.489652
-0.446208
-0.404498
-0.367275
-0.332677
-0.302709
-0.270644
-0.240351
-0.213761
-0.192803
-0.179673
-0.176684
-0.184908
-0.202049
-0.222033
-0.237617
-0.243734
-0.234899
-0.214918
-0.188184
-0.157904
-0.126843
-0.097186
-0.070497
-0.047784
-0.029626
-0.016291
-0.007730
-0.003426
-0.002307
-0.002943
-0.004003
-0.004289
-0.003195
-0.001179
0.001265
0.003532
0.005013
0.005117
0.003259
-0.001138
-0.008520
-0.018929
-0.031711
-0.045463
-0.058318
-0.068437
-0.074438
-0.075229
-0.070596
-0.061518
-0.049365
-0.035600
-0.021548
-0.008257
0.003544
0.013425
0.021196
0.026858
0.030574
0.032646
0.033472
0.033476
0.033030
0.032463
0.031901
0.031248
0.030304
0.028808
0.026471
0.023006
0.018161
0.011755
0.003730
-0.005818
-0.016630
-0.028317
-0.040428
-0.052555
-0.064441
-0.078217
0.436184
0.439458
0.448822
0.464614
0.487216
0.516588
0.551305
0.586189
0.608075
0.591511
0.518521
0.424099
0.246881
0.000000
-0.515996
-0.574113
-0.612945
-0.617572
-0.568512
-0.492224
-0.410457
-0.337197
-0.278669
-0.234430
-0.201647
-0.178494
-0.159405
-0.147621
-0.145043
-0.153423
-0.173665
-0.203974
-0.238541
-0.268948
-0.287543
-0.289803
-0.271610
-0.242913
-0.207930
-0.170288
-0.132915
-0.097981
-0.066934
-0.040605
-0.019366
-0.003300
0.007700
0.013999
0.016377
0.016051
0.014396
0.012605
0.011368
0.010979
0.011018
0.010935
0.010122
0.007943
0.003741
-0.003122
-0.013079
-0.026066
-0.041248
-0.057024
-0.071349
-0.082231
-0.088185
-0.087922
-0.081570
-0.070310
-0.055746
-0.039560
-0.023251
-0.007978
0.005483
0.016708
0.025549
0.032058
0.036437
0.039007
0.040178
0.040389
0.040041
0.039379
0.038655
0.037807
0.036666
0.034988
0.032496
0.028912
0.023995
0.017583
0.009635
0.000269
-0.010227
-0.021426
-0.032828
-0.043951
-0.054449
-0.065818
0.427889
0.430358
0.437323
0.448718
0.464204
0.482700
0.501495
0.514705
0.511248
0.473412
0.382862
0.228965
0.069664
-0.385691
-0.682048
-0.621546
-0.662258
-0.644502
-0.574723
-0.475570
-0.369054
-0.272729
-0.196444
-0.140850
-0.101908
-0.077736
-0.067751
-0.070513
-0.087882
-0.119699
-0.163871
-0.215048
-0.264557
-0.302789
-0.322746
-0.315721
-0.290493
-0.254929
-0.213952
-0.171444
-0.130306
-0.092536
-0.059346
-0.031324
-0.008617
0.008892
0.021422
0.029274
0.032963
0.033375
0.031699
0.029103
0.026448
0.024345
0.022542
0.020549
0.017766
0.013522
0.007105
-0.002148
-0.014620
-0.030108
-0.047589
-0.065268
-0.080932
-0.092438
-0.098201
-0.096799
-0.088805
-0.075584
-0.058945
-0.040756
-0.022655
-0.005886
0.008756
0.020872
0.030372
0.037372
0.042130
0.044998
0.046400
0.046785
0.046559
0.045994
0.045312
0.044491
0.043381
0.041750
0.039329
0.035848
0.031079
0.024876
0.017222
0.008262
-0.001687
-0.012154
-0.022581
-0.032407
-0.041178
-0.049503
0.415062
0.416638
0.420993
0.427774
0.436187
0.444603
0.449910
0.446585
0.425615
0.373565
0.272390
0.096695
-0.207951
-0.841046
-0.742550
-0.642654
-0.630981
-0.595156
-0.521780
-0.423554
-0.317546
-0.219036
-0.137696
-0.075242
-0.028270
0.003448
0.010272
-0.004033
-0.039318
-0.091160
-0.153890
-0.219408
-0.277521
-0.318174
-0.334084
-0.319371
-0.289291
-0.249901
-0.206236
-0.162111
-0.120214
-0.082259
-0.049181
-0.021332
0.001341
0.019114
0.032331
0.041304
0.046359
0.048012
0.047084
0.044565
0.041303
0.038214
0.035208
0.031849
0.027541
0.021586
0.013234
0.001836
-0.012905
-0.030623
-0.050105
-0.069381
-0.086087
-0.097959
-0.103342
-0.100789
-0.091369
-0.076590
-0.058415
-0.038845
-0.019607
-0.001979
0.013254
0.025741
0.035460
0.042598
0.047467
0.050451
0.051987
0.052523
0.052470
0.052113
0.051641
0.051048
0.050191
0.048842
0.046731
0.043596
0.039216
0.033463
0.026344
0.018032
0.008879
-0.000600
-0.009787
-0.018035
-0.024777
-0.029494
0.399327
0.400051
0.401950
0.404521
0.406769
0.406921
0.402012
0.387353
0.355979
0.298139
0.200660
0.045679
-0.190968
-0.497120
-0.563582
-0.556221
-0.537181
-0.500565
-0.440115
-0.361228
-0.274586
-0.190743
-0.116876
-0.055491
-0.006784
0.029444
0.045790
0.026816
-0.017496
-0.078660
-0.148644
-0.217891
-0.275798
-0.313126
-0.317598
-0.300299
-0.268926
-0.229560
-0.186964
-0.144611
-0.104841
-0.069065
-0.037989
-0.011803
0.009649
0.026721
0.039836
0.049367
0.055594
0.058784
0.059351
0.057893
0.055027
0.051781
0.048261
0.044119
0.038792
0.031566
0.021684
0.008538
-0.008050
-0.027539
-0.048535
-0.068923
-0.086227
-0.098111
-0.102900
-0.099250
-0.088730
-0.072936
-0.053919
-0.033745
-0.014161
0.003576
0.018735
0.031037
0.040534
0.047479
0.052229
0.055191
0.056796
0.057485
0.057656
0.057602
0.057481
0.057289
0.056882
0.056029
0.054456
0.051898
0.048143
0.043078
0.036730
0.029300
0.021177
0.012919
0.005206
-0.001232
-0.005712
-0.006407
0.382238
0.382227
0.382034
0.381118
0.378471
0.372443
0.360498
0.338967
0.302851
0.245799
0.160385
0.039353
-0.118998
-0.293826
-0.387285
-0.421635
-0.422880
-0.400239
-0.358713
-0.302401
-0.238198
-0.173190
-0.112770
-0.059931
-0.015753
0.019319
0.031055
0.014924
-0.025215
-0.082083
-0.146595
-0.208469
-0.257013
-0.282927
-0.281504
-0.263750
-0.234558
-0.198815
-0.160520
-0.122613
-0.087066
-0.055060
-0.027168
-0.003529
0.016012
0.031788
0.044214
0.053693
0.060544
0.064987
0.067206
0.067442
0.066120
0.063819
0.060581
0.056312
0.050542
0.042573
0.031674
0.017312
-0.000549
-0.021194
-0.043073
-0.063959
-0.081321
-0.092803
-0.096685
-0.092109
-0.080900
-0.064709
-0.045623
-0.025697
-0.006624
0.010429
0.024830
0.036397
0.045261
0.051728
0.056185
0.059037
0.060697
0.061572
0.062035
0.062381
0.062729
0.063078
0.063281
0.063100
0.062254
0.060473
0.057548
0.053376
0.048000
0.041650
0.034745
0.027886
0.021815
0.017338
0.015248
0.018790
0.365138
0.364539
0.362695
0.359101
0.352851
0.342550
0.326196
0.301109
0.263957
0.211005
0.138787
0.045620
-0.064884
-0.178641
-0.259750
-0.304698
-0.320717
-0.314060
-0.289777
-0.252642
-0.207611
-0.159709
-0.113121
-0.070799
-0.033931
-0.008437
-0.000431
-0.012943
-0.044296
-0.089276
-0.140163
-0.187738
-0.222687
-0.236802
-0.234605
-0.219332
-0.194808
-0.164787
-0.132443
-0.100193
-0.069710
-0.042033
-0.017697
0.003135
0.020561
0.034847
0.046348
0.055438
0.062448
0.067614
0.071071
0.072867
0.073767
0.072997
0.070807
0.067138
0.061578
0.053482
0.042175
0.027236
0.008780
-0.012315
-0.034368
-0.055084
-0.071938
-0.082688
-0.085138
-0.079947
-0.068485
-0.052515
-0.034123
-0.015280
0.002454
0.018067
0.031076
0.041418
0.049302
0.055075
0.059126
0.061840
0.063585
0.064717
0.065561
0.066405
0.067325
0.068320
0.069248
0.069865
0.069883
0.069026
0.067081
0.063949
0.059690
0.054550
0.048981
0.043623
0.039267
0.036796
0.037100
0.044887
0.349100
0.348059
0.344990
0.339463
0.330729
0.317688
0.298851
0.272370
0.236164
0.188237
0.127307
0.053874
-0.028089
-0.109594
-0.175309
-0.219226
-0.241886
-0.246065
-0.235067
-0.212476
-0.182257
-0.148199
-0.113657
-0.081202
-0.053793
-0.035314
-0.029368
-0.037863
-0.059889
-0.091769
-0.127630
-0.160385
-0.183149
-0.192412
-0.190121
-0.177881
-0.158232
-0.133887
-0.107289
-0.080403
-0.054667
-0.031023
-0.010000
0.008202
0.023619
0.036453
0.046996
0.055583
0.062529
0.068084
0.072400
0.075698
0.078050
0.078858
0.078113
0.075593
0.070836
0.063218
0.052140
0.037294
0.018946
-0.001883
-0.023410
-0.043298
-0.059054
-0.068540
-0.069666
-0.063968
-0.052614
-0.037415
-0.020388
-0.003352
0.012338
0.025882
0.036983
0.045718
0.052374
0.057321
0.060927
0.063526
0.065423
0.066902
0.068224
0.069663
0.071232
0.072944
0.074662
0.076146
0.077103
0.077247
0.076361
0.074348
0.071272
0.067396
0.063194
0.059338
0.056666
0.056125
0.058697
0.070548
0.334933
0.333574
0.329638
0.322787
0.312441
0.297772
0.277724
0.251083
0.216626
0.173411
0.121237
0.061288
-0.003122
-0.066179
-0.120112
-0.160160
-0.184984
-0.195381
-0.193315
-0.181090
-0.161753
-0.138258
-0.113359
-0.089533
-0.069489
-0.055877
-0.050991
-0.055992
-0.070265
-0.091282
-0.114954
-0.136442
-0.151316
-0.157483
-0.155088
-0.145077
-0.129122
-0.109168
-0.087091
-0.064491
-0.042606
-0.022289
-0.004050
0.011893
0.025544
0.037062
0.046706
0.054775
0.061569
0.067341
0.072260
0.076613
0.079939
0.082038
0.082679
0.081470
0.077846
0.071151
0.060826
0.046660
0.029037
0.009096
-0.011305
-0.029810
-0.043970
-0.051743
-0.051782
-0.045731
-0.034819
-0.020837
-0.005676
0.009048
0.022218
0.033276
0.042136
0.049031
0.054328
0.058407
0.061593
0.064145
0.066280
0.068198
0.070111
0.072182
0.074441
0.076896
0.079420
0.081777
0.083675
0.084825
0.085002
0.084102
0.082194
0.079547
0.076649
0.074199
0.073070
0.074261
0.078841
0.094406
0.323220
0.321630
0.317095
0.309373
0.298034
0.282477
0.261975
0.235756
0.203155
0.163829
0.118079
0.067209
0.013845
-0.038073
-0.083915
-0.120207
-0.145291
-0.159073
-0.162561
-0.157441
-0.145787
-0.129990
-0.112344
-0.095069
-0.080305
-0.070021
-0.065771
-0.068292
-0.077142
-0.090602
-0.105906
-0.119823
-0.129474
-0.133096
-0.130247
-0.121454
-0.107843
-0.090845
-0.071935
-0.052437
-0.033422
-0.015657
0.000382
0.014484
0.026647
0.037022
0.045856
0.053439
0.060062
0.065979
0.071383
0.076277
0.080398
0.083531
0.085342
0.085342
0.082894
0.077306
0.068031
0.054916
0.038431
0.019795
0.000918
-0.015851
-0.028164
-0.034054
-0.033303
-0.027183
-0.016999
-0.004492
0.008589
0.020826
0.031333
0.039782
0.046303
0.051292
0.055215
0.058463
0.061304
0.063902
0.066361
0.068779
0.071331
0.074033
0.076975
0.080150
0.083437
0.086610
0.089383
0.091466
0.092627
0.092757
0.091916
0.090377
0.088636
0.087402
0.087573
0.090182
0.096362
0.115090
0.314385
0.312597
0.307628
0.299341
0.287420
0.271424
0.250852
0.225225
0.194213
0.157802
0.116507
0.071580
0.025136
-0.019955
-0.060524
-0.093952
-0.118674
-0.134242
-0.141146
-0.140559
-0.134084
-0.123601
-0.111048
-0.098306
-0.087137
-0.079078
-0.075278
-0.076259
-0.081708
-0.090419
-0.100452
-0.109538
-0.115645
-0.117228
-0.113751
-0.105477
-0.093204
-0.078043
-0.061198
-0.043800
-0.026791
-0.010867
0.003537
0.016225
0.027204
0.036633
0.044770
0.051917
0.058372
0.064393
0.070128
0.075452
0.080238
0.084228
0.087020
0.088061
0.086669
0.082140
0.073940
0.061953
0.046707
0.029478
0.012208
-0.002794
-0.013301
-0.017742
-0.016607
-0.010665
-0.001308
0.009769
0.020938
0.030938
0.039056
0.045144
0.049513
0.052725
0.055361
0.057857
0.060437
0.063173
0.066023
0.068961
0.072045
0.075343
0.078907
0.082720
0.086665
0.090532
0.094046
0.096917
0.098910
0.099906
0.099956
0.099328
0.098516
0.098235
0.099386
0.103006
0.110229
0.131175
0.308796
0.306705
0.301364
0.292704
0.280456
0.264269
0.243776
0.218667
0.188797
0.154318
0.115829
0.074504
0.032134
-0.008985
-0.046395
-0.077965
-0.102272
-0.118743
-0.127606
-0.129729
-0.126422
-0.119259
-0.109911
-0.100013
-0.091077
-0.084390
-0.080888
-0.080996
-0.084493
-0.090468
-0.097442
-0.103655
-0.107497
-0.107678
-0.103671
-0.095591
-0.084048
-0.069960
-0.054367
-0.038270
-0.022527
-0.007780
0.005561
0.017315
0.027492
0.036254
0.043865
0.050643
0.056914
0.062992
0.068918
0.074631
0.079995
0.084708
0.088314
0.090206
0.089672
0.085994
0.078651
0.067559
0.053293
0.037181
0.021177
0.007530
-0.001676
-0.005528
-0.004217
0.001461
0.010117
0.020115
0.029916
0.038356
0.044813
0.049230
0.052020
0.053854
0.055426
0.057249
0.059579
0.062476
0.065581
0.068930
0.072490
0.076285
0.080344
0.084646
0.089086
0.093469
0.097530
0.100986
0.103595
0.105226
0.105922
0.105939
0.105768
0.106122
0.107893
0.112084
0.119724
0.141076
0.307021
0.304020
0.298301
0.289418
0.277024
0.260783
0.240383
0.215590
0.186339
0.152844
0.115726
0.076104
0.035620
-0.003686
-0.039644
-0.070335
-0.094416
-0.111277
-0.121040
-0.124438
-0.122640
-0.117075
-0.109276
-0.100746
-0.092873
-0.086827
-0.083458
-0.083162
-0.085767
-0.090501
-0.096093
-0.101041
-0.103907
-0.103448
-0.099191
-0.091205
-0.080011
-0.066432
-0.051424
-0.035923
-0.020742
-0.006499
0.006409
0.017801
0.027682
0.036210
0.043642
0.050288
0.056452
0.062353
0.068293
0.074290
0.080095
0.085342
0.089528
0.092003
0.092020
0.088839
0.081931
0.071225
0.057337
0.041653
0.026174
0.013076
0.004085
0.000318
0.001596
0.007040
0.015288
0.024762
0.033982
0.041827
0.047698
0.051545
0.053780
0.055085
0.056176
0.057602
0.059624
0.062190
0.065414
0.069027
0.072895
0.077000
0.081360
0.085955
0.090690
0.095378
0.099760
0.103552
0.106503
0.108474
0.109495
0.109815
0.109921
0.110528
0.112527
0.116897
0.124565
0.143530
