# vtk DataFile Version 3.0
Scalar Field
ASCII
DATASET RECTILINEAR_GRID
DIMENSIONS 100 26 1
X_COORDINATES 100 double
0.050000 0.150000 0.250000 0.350000 0.450000 0.550000 0.650000 0.750000 0.850000 0.950000 1.050000 1.150000 1.250000 1.350000 1.450000 1.550000 1.650000 1.750000 1.850000 1.950000 2.050000 2.150000 2.250000 2.350000 2.450000 2.550000 2.650000 2.750000 2.850000 2.950000 3.050000 3.150000 3.250000 3.350000 3.450000 3.550000 3.650000 3.750000 3.850000 3.950000 4.050000 4.150000 4.250000 4.350000 4.450000 4.550000 4.650000 4.750000 4.850000 4.950000 5.050000 5.150000 5.250000 5.350000 5.450000 5.550000 5.650000 5.750000 5.850000 5.950000 6.050000 6.150000 6.250000 6.350000 6.450000 6.550000 6.650000 6.750000 6.850000 6.950000 7.050000 7.150000 7.250000 7.350000 7.450000 7.550000 7.650000 7.750000 7.850000 7.950000 8.050000 8.150000 8.250000 8.350000 8.450000 8.550000 8.650000 8.750000 8.850000 8.950000 9.050000 9.150000 9.250000 9.350000 9.450000 9.550000 9.650000 9.750000 9.850000 9.950000 
Y_COORDINATES 26 double
0.050000 0.150000 0.250000 0.350000 0.450000 0.550000 0.650000 0.750000 0.850000 0.950000 1.050000 1.150000 1.250000 1.350000 1.450000 1.550000 1.650000 1.750000 1.850000 1.950000 2.050000 2.150000 2.250000 2.350000 2.450000 2.550000 
Z_COORDINATES 1 double
0.0
POINT_DATA 2600
SCALARS Skalarfeld double 1
LOOKUP_TABLE default
0.204695
0.200958
0.193129
0.180785
0.163649
0.141538
0.114436
0.082605
0.046703
0.007841
-0.032480
-0.072598
-0.110947
-0.146221
-0.177412
-0.203765
-0.224715
-0.239857
-0.248876
-0.251627
-0.248336
-0.239505
-0.225891
-0.208441
-0.188191
-0.166173
-0.143323
-0.120423
-0.098074
-0.076692
-0.056544
-0.037794
-0.020586
-0.005111
0.008532
0.019815
0.028093
0.032736
0.033382
0.030198
0.024028
0.016294
0.008653
0.002527
-0.000926
-0.001308
0.001095
0.005674
0.011664
0.018289
0.024871
0.030891
0.036017
0.040105
0.043182
0.045422
0.047096
0.048521
0.049983
0.051646
0.053708
0.056171
0.058846
0.061572
0.064182
0.066462
0.068120
0.068774
0.068009
0.065493
0.061157
0.055340
0.048839
0.042760
0.038161
0.035873
0.035944
0.037896
0.040925
0.044076
0.046470
0.047527
0.047109
0.045518
0.043341
0.041168
0.039345
0.037888
0.036554
0.035162
0.033481
0.031438
0.029141
0.026797
0.024659
0.023006
0.022126
0.022344
0.024067
0.029668
0.207837
0.204970
0.197397
0.185049
0.167690
0.145092
0.117172
0.084156
0.046750
0.006220
-0.035673
-0.077043
-0.116243
-0.152015
-0.183471
-0.209977
-0.231042
-0.246262
-0.255316
-0.257969
-0.254397
-0.245094
-0.230838
-0.212618
-0.191528
-0.168650
-0.144964
-0.121285
-0.098231
-0.076228
-0.055539
-0.036313
-0.018649
-0.002673
0.011153
0.022367
0.030332
0.034429
0.034320
0.030214
0.023019
0.014263
0.005763
-0.000833
-0.004509
-0.004872
-0.002249
0.002674
0.009062
0.016089
0.023050
0.029410
0.034838
0.039192
0.042508
0.044964
0.046836
0.048437
0.050054
0.051919
0.053990
0.056223
0.058567
0.060920
0.063156
0.065095
0.066472
0.066923
0.066038
0.063474
0.059126
0.053263
0.046605
0.040238
0.035420
0.033006
0.032954
0.034870
0.037961
0.041259
0.043876
0.045230
0.045184
0.044041
0.042362
0.040684
0.039293
0.038162
0.037075
0.035683
0.033852
0.031616
0.029102
0.026519
0.024121
0.022185
0.020970
0.020765
0.021895
0.025768
0.216231
0.213600
0.206188
0.193804
0.176085
0.152621
0.123132
0.087719
0.047144
0.002999
-0.042288
-0.086296
-0.127216
-0.163949
-0.195895
-0.222698
-0.244031
-0.259526
-0.268770
-0.271302
-0.267226
-0.257004
-0.241453
-0.221652
-0.198805
-0.174101
-0.148609
-0.123213
-0.098580
-0.075166
-0.053250
-0.032985
-0.014470
0.002149
0.016371
0.027613
0.035123
0.038198
0.036496
0.030316
0.020756
0.009640
-0.000852
-0.008758
-0.012953
-0.013212
-0.010065
-0.004366
0.002913
0.010860
0.018716
0.025932
0.032170
0.037293
0.041339
0.044473
0.046937
0.048992
0.050861
0.052700
0.054569
0.056478
0.058364
0.060177
0.061848
0.063254
0.064179
0.064289
0.063176
0.060480
0.056041
0.050045
0.043099
0.036199
0.030540
0.027233
0.026794
0.028503
0.031645
0.035295
0.038576
0.040884
0.042013
0.042139
0.041656
0.040941
0.040182
0.039341
0.038245
0.036693
0.034596
0.032000
0.029057
0.025991
0.023062
0.020528
0.018665
0.017736
0.017909
0.019985
0.229434
0.226921
0.219685
0.207338
0.189251
0.164650
0.132839
0.093589
0.047664
-0.002811
-0.053857
-0.101996
-0.145302
-0.183132
-0.215514
-0.242606
-0.264344
-0.280326
-0.289910
-0.292350
-0.287542
-0.275881
-0.258260
-0.235929
-0.210284
-0.182695
-0.154378
-0.126322
-0.099268
-0.073724
-0.049996
-0.028238
-0.008519
0.009085
0.023992
0.035401
0.042313
0.043845
0.039631
0.030106
0.016664
0.001608
-0.012234
-0.022216
-0.026889
-0.026719
-0.022519
-0.015424
-0.006620
0.002845
0.012146
0.020710
0.028202
0.034487
0.039593
0.043660
0.046886
0.049480
0.051628
0.053461
0.055048
0.056407
0.057761
0.058916
0.059868
0.060567
0.060890
0.060561
0.059203
0.056445
0.052075
0.046178
0.039217
0.032031
0.025696
0.021245
0.019856
0.021120
0.024138
0.028083
0.032105
0.035556
0.038106
0.039740
0.040637
0.041002
0.040946
0.040446
0.039396
0.037679
0.035252
0.032186
0.028659
0.024924
0.021263
0.017953
0.015240
0.013320
0.012410
0.012853
0.247223
0.244878
0.238019
0.226023
0.207853
0.182120
0.147331
0.102466
0.048040
-0.013190
-0.073319
-0.127015
-0.172733
-0.211064
-0.243276
-0.270421
-0.292796
-0.309767
-0.320103
-0.322694
-0.316981
-0.303239
-0.282538
-0.256446
-0.226696
-0.194943
-0.162610
-0.130830
-0.100440
-0.072007
-0.045873
-0.022194
-0.000983
0.017841
0.033737
0.045502
0.051745
0.051335
0.043930
0.030133
0.011612
-0.008871
-0.027732
-0.041322
-0.046981
-0.045987
-0.040064
-0.030782
-0.019666
-0.007974
0.003374
0.013778
0.022908
0.030644
0.037014
0.042144
0.046208
0.049390
0.051854
0.053717
0.055032
0.055813
0.056081
0.056342
0.056396
0.056196
0.055789
0.055007
0.053512
0.050926
0.046973
0.041616
0.035154
0.028233
0.021771
0.016769
0.014081
0.014582
0.017198
0.021156
0.025652
0.030002
0.033755
0.036712
0.038853
0.040231
0.040876
0.040764
0.039820
0.037970
0.035204
0.031619
0.027425
0.022913
0.018407
0.014209
0.010562
0.007639
0.005579
0.004459
0.269288
0.267258
0.261203
0.250234
0.232776
0.206498
0.168452
0.115828
0.047981
-0.032279
-0.106053
-0.165657
-0.212032
-0.248686
-0.279093
-0.305696
-0.329273
-0.348563
-0.360803
-0.364346
-0.357746
-0.341147
-0.316033
-0.284578
-0.249074
-0.211593
-0.173836
-0.137109
-0.102350
-0.070197
-0.041046
-0.015095
0.007652
0.027422
0.044428
0.056756
0.062405
0.059972
0.049378
0.031511
0.008193
-0.017690
-0.042230
-0.061033
-0.070403
-0.069074
-0.061344
-0.049529
-0.035644
-0.021248
-0.007416
0.005192
0.016242
0.025622
0.033374
0.039626
0.044549
0.048322
0.051093
0.052945
0.053894
0.053932
0.053129
0.051696
0.050466
0.049213
0.048089
0.047014
0.045660
0.043616
0.040528
0.036236
0.030860
0.024840
0.018892
0.013876
0.010565
0.009923
0.011980
0.015607
0.020144
0.024922
0.029412
0.033271
0.036321
0.038481
0.039702
0.039926
0.039078
0.037099
0.033994
0.029880
0.024999
0.019688
0.014316
0.009217
0.004643
0.000746
-0.002406
-0.005031
0.295050
0.293565
0.288990
0.280194
0.265026
0.239895
0.199410
0.136845
0.047282
-0.069250
-0.161283
-0.222798
-0.264029
-0.294086
-0.319413
-0.344262
-0.370120
-0.394838
-0.412225
-0.418673
-0.411676
-0.391381
-0.360233
-0.321508
-0.278364
-0.233438
-0.188757
-0.145802
-0.105609
-0.068889
-0.036133
-0.007686
0.016273
0.035874
0.052754
0.065520
0.070494
0.065889
0.052564
0.032075
0.006301
-0.022293
-0.050298
-0.073537
-0.088167
-0.090016
-0.081603
-0.068158
-0.052103
-0.035357
-0.019225
-0.004490
0.008451
0.019459
0.028566
0.035896
0.041619
0.045902
0.048861
0.050521
0.050835
0.049787
0.047561
0.044604
0.041530
0.039199
0.037567
0.036523
0.035694
0.034611
0.032843
0.030109
0.026360
0.021827
0.017017
0.012626
0.009399
0.007971
0.009139
0.012114
0.016260
0.020951
0.025632
0.029877
0.033392
0.035991
0.037546
0.037950
0.037106
0.034947
0.031481
0.026837
0.021286
0.015204
0.009003
0.003049
-0.002394
-0.007190
-0.011317
-0.015319
0.323504
0.322855
0.320636
0.315642
0.305353
0.284932
0.245541
0.172548
0.045919
-0.145515
-0.252528
-0.299532
-0.323683
-0.339617
-0.355085
-0.375880
-0.404611
-0.439106
-0.469685
-0.483204
-0.477294
-0.452801
-0.414215
-0.366625
-0.314364
-0.260713
-0.208027
-0.157940
-0.111571
-0.069696
-0.032936
-0.001917
0.022683
0.040681
0.052887
0.062823
0.066747
0.059303
0.044469
0.024593
0.000778
-0.025668
-0.052431
-0.076129
-0.093042
-0.100384
-0.094382
-0.081548
-0.065126
-0.047447
-0.030073
-0.013973
0.000320
0.012573
0.022748
0.030925
0.037236
0.041805
0.044683
0.045808
0.045079
0.042543
0.038599
0.034009
0.029632
0.026393
0.024585
0.023959
0.024054
0.024328
0.024272
0.023494
0.021792
0.019205
0.016029
0.012778
0.010077
0.008490
0.008692
0.010947
0.014393
0.018559
0.022932
0.027056
0.030574
0.033221
0.034800
0.035156
0.034156
0.031714
0.027830
0.022641
0.016435
0.009620
0.002642
-0.004101
-0.010333
-0.015922
-0.020883
-0.026052
0.353119
0.353587
0.354621
0.355277
0.353319
0.343646
0.314529
0.239022
0.048788
-0.315048
-0.391206
-0.381882
-0.376189
-0.373267
-0.375463
-0.389514
-0.418982
-0.463115
-0.514516
-0.545466
-0.543876
-0.516216
-0.470614
-0.414578
-0.353685
-0.291796
-0.231544
-0.174726
-0.122573
-0.075968
-0.035686
-0.002782
0.021060
0.034633
0.040018
0.040478
0.037171
0.029864
0.018761
0.004637
-0.012277
-0.031667
-0.052367
-0.072063
-0.087698
-0.096474
-0.096408
-0.086042
-0.071347
-0.054681
-0.037712
-0.021564
-0.006936
0.005785
0.016430
0.024974
0.031460
0.035920
0.038302
0.038457
0.036281
0.031981
0.026267
0.020236
0.014976
0.011315
0.009743
0.009930
0.011328
0.013310
0.015280
0.016742
0.017365
0.017019
0.015812
0.014078
0.012312
0.011060
0.010809
0.012118
0.014654
0.017989
0.021668
0.025253
0.028362
0.030686
0.031975
0.032027
0.030676
0.027810
0.023419
0.017638
0.010769
0.003241
-0.004472
-0.011946
-0.018882
-0.025148
-0.030785
-0.036865
0.381853
0.383599
0.388448
0.396121
0.405670
0.414103
0.412084
0.368864
0.144831
-0.642313
-0.552957
-0.427552
-0.402711
-0.389337
-0.382153
-0.392280
-0.421339
-0.466629
-0.524739
-0.579048
-0.589446
-0.562166
-0.513649
-0.453503
-0.388109
-0.321649
-0.257010
-0.196268
-0.140994
-0.092555
-0.052516
-0.022890
-0.005362
0.000614
-0.001069
-0.005797
-0.011050
-0.014923
-0.019061
-0.024287
-0.031308
-0.040640
-0.052149
-0.064647
-0.075973
-0.083676
-0.085988
-0.080705
-0.069321
-0.055417
-0.040510
-0.025775
-0.012047
0.000125
0.010410
0.018634
0.024705
0.028524
0.029917
0.028668
0.024739
0.018573
0.011210
0.004017
-0.001794
-0.005443
-0.006374
-0.004981
-0.001911
0.002101
0.006350
0.010241
0.013329
0.015355
0.016273
0.016260
0.015677
0.014990
0.014630
0.015201
0.016859
0.019227
0.021982
0.024741
0.027134
0.028834
0.029560
0.029074
0.027177
0.023737
0.018730
0.012290
0.004724
-0.003523
-0.011953
-0.020113
-0.027678
-0.034503
-0.040650
-0.047385
0.407378
0.410324
0.418802
0.433377
0.454977
0.484766
0.523426
0.567575
0.653044
0.005366
-0.479363
-0.405769
-0.407134
-0.401580
-0.399642
-0.408306
-0.432734
-0.470457
-0.520562
-0.570707
-0.596434
-0.574102
-0.528066
-0.470356
-0.407096
-0.342270
-0.278921
-0.219523
-0.166232
-0.121194
-0.086759
-0.065015
-0.056174
-0.057031
-0.061994
-0.066512
-0.067375
-0.064484
-0.059902
-0.055193
-0.051635
-0.050270
-0.051689
-0.055678
-0.061021
-0.065792
-0.068046
-0.066381
-0.059549
-0.049527
-0.037879
-0.025756
-0.014053
-0.003441
0.005596
0.012731
0.017716
0.020304
0.020198
0.017148
0.011234
0.003167
-0.005720
-0.013867
-0.019991
-0.023303
-0.023224
-0.020242
-0.015140
-0.008801
-0.002063
0.004366
0.009948
0.014332
0.017368
0.019111
0.019818
0.019885
0.019763
0.019871
0.020669
0.022057
0.023802
0.025593
0.027091
0.027974
0.027944
0.026739
0.024140
0.019994
0.014270
0.007097
-0.001211
-0.010199
-0.019344
-0.028160
-0.036288
-0.043564
-0.050057
-0.057193
0.427513
0.431303
0.442326
0.461685
0.491479
0.535345
0.599582
0.694802
0.826407
0.849093
0.000000
-0.409204
-0.412639
-0.415613
-0.421142
-0.433699
-0.452580
-0.478593
-0.511166
-0.542973
-0.558447
-0.548045
-0.506947
-0.456784
-0.401607
-0.344595
-0.288746
-0.236824
-0.191527
-0.155653
-0.131835
-0.121137
-0.121179
-0.126405
-0.131031
-0.130626
-0.123161
-0.111194
-0.096884
-0.082169
-0.068629
-0.057515
-0.049720
-0.045604
-0.044726
-0.045796
-0.047070
-0.047010
-0.044289
-0.038115
-0.030199
-0.021380
-0.012480
-0.004221
0.002814
0.008161
0.011427
0.012218
0.010129
0.004910
-0.003202
-0.013237
-0.023615
-0.032622
-0.038916
-0.041637
-0.040219
-0.035295
-0.027836
-0.018916
-0.009540
-0.000538
0.007474
0.014086
0.019092
0.022481
0.024435
0.025296
0.025493
0.025442
0.025578
0.026103
0.026889
0.027704
0.028259
0.028247
0.027369
0.025349
0.021952
0.017018
0.010507
0.002551
-0.006534
-0.016279
-0.026138
-0.035585
-0.044219
-0.051845
-0.058531
-0.065821
0.440723
0.444825
0.456749
0.477590
0.509304
0.554760
0.617237
0.698014
0.790562
0.871778
0.779997
0.000000
-0.421352
-0.430065
-0.441904
-0.460089
-0.477966
-0.492750
-0.502563
-0.506023
-0.497681
-0.480766
-0.449629
-0.409222
-0.365162
-0.319939
-0.276372
-0.237392
-0.206116
-0.185611
-0.177674
-0.180760
-0.189456
-0.196993
-0.198304
-0.189089
-0.172055
-0.150100
-0.125904
-0.101746
-0.079403
-0.060164
-0.044918
-0.034166
-0.027881
-0.025309
-0.025031
-0.025395
-0.024997
-0.022639
-0.018432
-0.013093
-0.007340
-0.001876
0.002663
0.005718
0.006769
0.005292
0.000800
-0.006917
-0.017447
-0.029573
-0.041493
-0.051352
-0.057734
-0.059638
-0.056603
-0.049457
-0.039404
-0.027747
-0.015678
-0.004158
0.006126
0.014738
0.021460
0.026267
0.029309
0.030897
0.031441
0.031365
0.031077
0.030927
0.030899
0.030843
0.030521
0.029648
0.027932
0.025091
0.020885
0.015147
0.007839
-0.000905
-0.010766
-0.021258
-0.031807
-0.041848
-0.050929
-0.058810
-0.065544
-0.072745
0.446429
0.450314
0.461531
0.480810
0.509310
0.548469
0.599397
0.660339
0.718313
0.733890
0.688215
0.565342
0.000000
-0.446641
-0.463217
-0.497338
-0.520981
-0.523542
-0.502876
-0.469187
-0.431580
-0.395799
-0.360382
-0.327927
-0.295534
-0.263279
-0.235051
-0.214023
-0.203246
-0.204731
-0.217486
-0.236229
-0.253162
-0.261652
-0.256937
-0.237333
-0.210100
-0.178353
-0.145074
-0.112741
-0.083196
-0.057673
-0.036915
-0.021307
-0.010901
-0.005263
-0.003337
-0.003604
-0.004540
-0.004962
-0.003838
-0.001690
0.000996
0.003594
0.005462
0.005976
0.004515
0.000447
-0.006758
-0.017233
-0.030371
-0.044711
-0.058245
-0.068967
-0.075369
-0.076248
-0.071396
-0.061871
-0.049139
-0.034746
-0.020078
-0.006223
0.006073
0.016370
0.024476
0.030392
0.034280
0.036445
0.037296
0.037271
0.036763
0.036113
0.035460
0.034710
0.033664
0.032058
0.029608
0.026032
0.021087
0.014610
0.006565
-0.002912
-0.013489
-0.024669
-0.035848
-0.046416
-0.055866
-0.063904
-0.070548
-0.077403
0.445028
0.448341
0.457827
0.473834
0.496779
0.526694
0.562159
0.598198
0.621681
0.606748
0.535628
0.442468
0.266162
0.000000
-0.511625
-0.560033
-0.585543
-0.568192
-0.510102
-0.435962
-0.364141
-0.304310
-0.257833
-0.224622
-0.200562
-0.179710
-0.168879
-0.170347
-0.185467
-0.213195
-0.248423
-0.282437
-0.306162
-0.313531
-0.298474
-0.270184
-0.234042
-0.194108
-0.153679
-0.115282
-0.080673
-0.050920
-0.026559
-0.007769
0.005489
0.013512
0.017032
0.017293
0.015804
0.013932
0.012455
0.011935
0.011951
0.011935
0.011253
0.009238
0.005183
-0.001619
-0.011695
-0.025060
-0.040889
-0.057486
-0.072639
-0.084181
-0.090508
-0.090184
-0.083432
-0.071548
-0.056257
-0.039341
-0.022362
-0.006516
0.007410
0.018993
0.028092
0.034762
0.039209
0.041756
0.042817
0.042843
0.042252
0.041285
0.040219
0.038992
0.037431
0.035288
0.032282
0.028133
0.022599
0.015521
0.006868
-0.003215
-0.014389
-0.026139
-0.037835
-0.048822
-0.058534
-0.066615
-0.073025
-0.079243
0.437558
0.440072
0.447179
0.458825
0.474699
0.493759
0.513334
0.527609
0.525497
0.489210
0.400455
0.248347
0.089855
-0.362839
-0.668429
-0.612663
-0.625156
-0.585487
-0.501420
-0.398841
-0.300999
-0.221978
-0.163188
-0.122489
-0.098126
-0.087580
-0.094744
-0.120323
-0.162028
-0.214563
-0.269078
-0.314785
-0.342495
-0.343798
-0.320269
-0.284599
-0.241949
-0.196618
-0.151932
-0.110276
-0.073176
-0.041450
-0.015388
0.005049
0.020050
0.029877
0.034991
0.036246
0.034885
0.032199
0.029286
0.026893
0.024861
0.022713
0.019831
0.015509
0.008976
-0.000510
-0.013426
-0.029625
-0.048054
-0.066789
-0.083421
-0.095630
-0.101715
-0.100086
-0.091506
-0.077493
-0.060002
-0.041011
-0.022224
-0.004908
0.010138
0.022529
0.032188
0.039243
0.043954
0.046675
0.047831
0.047875
0.047220
0.046145
0.044882
0.043408
0.041567
0.039120
0.035784
0.031280
0.025365
0.017883
0.008813
-0.001694
-0.013286
-0.025436
-0.037486
-0.048741
-0.058577
-0.066567
-0.072593
-0.077842
0.425464
0.427087
0.431589
0.438628
0.447429
0.456387
0.462420
0.460031
0.440213
0.389534
0.290001
0.116148
-0.186521
-0.815533
-0.724195
-0.619870
-0.588897
-0.534995
-0.449064
-0.347096
-0.247770
-0.164012
-0.099021
-0.049914
-0.017961
-0.012905
-0.035069
-0.081003
-0.143179
-0.212576
-0.278230
-0.328614
-0.354262
-0.346228
-0.318650
-0.279231
-0.233796
-0.186739
-0.141227
-0.099370
-0.062406
-0.030893
-0.004909
0.015769
0.031477
0.042526
0.049215
0.052003
0.051684
0.049312
0.045879
0.042382
0.039014
0.035332
0.030730
0.024470
0.015743
0.003810
-0.011705
-0.030463
-0.051179
-0.071720
-0.089510
-0.102098
-0.107720
-0.104770
-0.094598
-0.078897
-0.059793
-0.039401
-0.019506
-0.001401
0.014143
0.026797
0.036562
0.043637
0.048340
0.051053
0.052208
0.052252
0.051597
0.050530
0.049247
0.047738
0.045851
0.043342
0.039923
0.035307
0.029251
0.021601
0.012341
0.001633
-0.010165
-0.022509
-0.034719
-0.046063
-0.055863
-0.063617
-0.069110
-0.073050
0.410366
0.411136
0.413177
0.415996
0.418608
0.419258
0.414996
0.401148
0.370759
0.314095
0.218041
0.064797
-0.169610
-0.472998
-0.538663
-0.525258
-0.494597
-0.447479
-0.379391
-0.298500
-0.216444
-0.142344
-0.080155
-0.031071
0.008820
0.016764
-0.012527
-0.067295
-0.136607
-0.209798
-0.275330
-0.322193
-0.337616
-0.324853
-0.295708
-0.256425
-0.212283
-0.167279
-0.124210
-0.084861
-0.050213
-0.020647
0.003878
0.023664
0.039132
0.050682
0.058609
0.063150
0.064662
0.063710
0.060927
0.057384
0.053493
0.048935
0.043164
0.035438
0.024938
0.010974
-0.006689
-0.027503
-0.049967
-0.071775
-0.090228
-0.102799
-0.107713
-0.103508
-0.092118
-0.075335
-0.055382
-0.034431
-0.014277
0.003825
0.019172
0.031515
0.040934
0.047696
0.052163
0.054733
0.055831
0.055884
0.055290
0.054337
0.053188
0.051829
0.050106
0.047763
0.044499
0.040017
0.034065
0.026491
0.017280
0.006601
-0.005178
-0.017504
-0.029675
-0.040929
-0.050537
-0.057920
-0.062755
-0.065092
0.393820
0.393851
0.393792
0.393104
0.390790
0.385207
0.373832
0.353003
0.317732
0.261684
0.177474
0.057923
-0.098535
-0.270846
-0.361447
-0.390941
-0.385695
-0.356807
-0.311074
-0.254008
-0.193109
-0.134836
-0.083272
-0.038237
-0.007320
-0.003584
-0.028930
-0.077260
-0.139014
-0.203083
-0.257703
-0.291871
-0.297675
-0.284420
-0.257487
-0.222109
-0.182710
-0.142670
-0.104362
-0.069293
-0.038292
-0.011670
0.010616
0.028845
0.043416
0.054753
0.063210
0.069028
0.072373
0.073429
0.072492
0.070333
0.066884
0.062218
0.055933
0.047329
0.035622
0.020218
0.001050
-0.021122
-0.044614
-0.066992
-0.085498
-0.097588
-0.101420
-0.096190
-0.084069
-0.066909
-0.046962
-0.026378
-0.006874
0.010397
0.024843
0.036319
0.044981
0.051149
0.055208
0.057556
0.058589
0.058699
0.058246
0.057520
0.056638
0.055585
0.054202
0.052219
0.049320
0.045190
0.039567
0.032292
0.023352
0.012916
0.001358
-0.010758
-0.022718
-0.033731
-0.043025
-0.049944
-0.054049
-0.054598
0.377173
0.376614
0.374892
0.371505
0.365555
0.355651
0.339800
0.315327
0.278908
0.226824
0.155634
0.063710
-0.045244
-0.156952
-0.235482
-0.277011
-0.289088
-0.278955
-0.252624
-0.215624
-0.173371
-0.130694
-0.090593
-0.057136
-0.036643
-0.035330
-0.054830
-0.091660
-0.138713
-0.186699
-0.225560
-0.246063
-0.248506
-0.236770
-0.214243
-0.184732
-0.151662
-0.117770
-0.085050
-0.054818
-0.027830
-0.004408
0.015440
0.031921
0.045365
0.056155
0.064645
0.071103
0.075679
0.078390
0.079980
0.079658
0.077517
0.073599
0.067571
0.058802
0.046592
0.030484
0.010599
-0.012109
-0.035803
-0.057977
-0.075893
-0.087174
-0.089240
-0.083423
-0.071109
-0.054290
-0.035200
-0.015881
0.002104
0.017773
0.030685
0.040810
0.048380
0.053747
0.057296
0.059399
0.060407
0.060653
0.060445
0.060062
0.059567
0.058947
0.058039
0.056566
0.054194
0.050590
0.045478
0.038686
0.030195
0.020174
0.008998
-0.002765
-0.014390
-0.025068
-0.033984
-0.040414
-0.043802
-0.042534
0.361508
0.360503
0.357545
0.352205
0.343742
0.331057
0.312669
0.286734
0.251180
0.204020
0.143989
0.071619
-0.009065
-0.088985
-0.152783
-0.194455
-0.214800
-0.217106
-0.205407
-0.183737
-0.156226
-0.126596
-0.098424
-0.075498
-0.061967
-0.061404
-0.074866
-0.100168
-0.132320
-0.164529
-0.189595
-0.202326
-0.203263
-0.193536
-0.175371
-0.151424
-0.124257
-0.096043
-0.068451
-0.042644
-0.019335
0.001135
0.018705
0.033513
0.045826
0.055974
0.064286
0.071042
0.076420
0.080596
0.083745
0.085091
0.084579
0.081993
0.076892
0.068662
0.056693
0.040673
0.020903
-0.001493
-0.024564
-0.045761
-0.062379
-0.072126
-0.072896
-0.066576
-0.054507
-0.038668
-0.021176
-0.003884
0.011870
0.025319
0.036205
0.044623
0.050873
0.055321
0.058329
0.060218
0.061272
0.061754
0.061902
0.061976
0.061969
0.061876
0.061536
0.060670
0.058931
0.055970
0.051491
0.045306
0.037387
0.027895
0.017202
0.005875
-0.005356
-0.015670
-0.024221
-0.030226
-0.033019
-0.030100
0.347639
0.346313
0.342478
0.335799
0.325699
0.311354
0.291714
0.265570
0.231705
0.189185
0.137816
0.078795
0.015452
-0.046383
-0.098964
-0.137612
-0.161197
-0.170837
-0.168845
-0.158076
-0.141608
-0.122525
-0.103857
-0.088610
-0.079658
-0.079184
-0.087803
-0.104089
-0.124733
-0.145231
-0.160969
-0.168940
-0.168468
-0.160022
-0.144983
-0.125187
-0.102541
-0.078768
-0.055261
-0.033045
-0.012777
0.005199
0.020798
0.034119
0.045388
0.054898
0.062956
0.069837
0.075733
0.080941
0.084997
0.087632
0.088572
0.087407
0.083557
0.076354
0.065230
0.049986
0.031063
0.009715
-0.012026
-0.031603
-0.046385
-0.054221
-0.053910
-0.047376
-0.035985
-0.021638
-0.006274
0.008492
0.021569
0.032427
0.040998
0.047513
0.052336
0.055840
0.058341
0.060088
0.061281
0.062100
0.062728
0.063316
0.063860
0.064348
0.064623
0.064405
0.063345
0.061076
0.057284
0.051765
0.044473
0.035559
0.025385
0.014515
0.003672
-0.006315
-0.014589
-0.020328
-0.022780
-0.018633
0.336157
0.334598
0.330156
0.322593
0.311482
0.296225
0.276100
0.250344
0.218292
0.179609
0.134595
0.084550
0.032089
-0.018876
-0.063776
-0.099245
-0.123798
-0.137567
-0.141810
-0.138469
-0.129849
-0.118396
-0.106553
-0.096659
-0.090774
-0.090335
-0.095725
-0.106009
-0.119028
-0.131857
-0.141554
-0.145967
-0.144131
-0.136198
-0.123041
-0.105964
-0.086425
-0.065813
-0.045307
-0.025803
-0.007901
0.008078
0.022047
0.034098
0.044446
0.053368
0.061161
0.068095
0.074383
0.080077
0.084866
0.088506
0.090630
0.090724
0.088127
0.082130
0.072178
0.058134
0.040537
0.020724
0.000771
-0.016803
-0.029527
-0.035276
-0.034387
-0.028034
-0.017658
-0.005066
0.007985
0.020104
0.030427
0.038637
0.044850
0.049437
0.052845
0.055454
0.057529
0.059234
0.060661
0.061888
0.063066
0.064180
0.065291
0.066367
0.067249
0.067663
0.067260
0.065665
0.062547
0.057682
0.051006
0.042653
0.032974
0.022520
0.012010
0.002261
-0.005878
-0.011585
-0.014092
-0.009569
0.327491
0.325732
0.320851
0.312713
0.301006
0.285293
0.265079
0.239890
0.209399
0.173593
0.132984
0.088807
0.043145
-0.001183
-0.041089
-0.074070
-0.098713
-0.114743
-0.122828
-0.124309
-0.120935
-0.114650
-0.107426
-0.101114
-0.097275
-0.096952
-0.100423
-0.107066
-0.115419
-0.123493
-0.129278
-0.131102
-0.128087
-0.120217
-0.108078
-0.092654
-0.075112
-0.056614
-0.038180
-0.020607
-0.004439
0.010030
0.022725
0.033747
0.043316
0.051720
0.059261
0.066215
0.072770
0.078821
0.084220
0.088691
0.091805
0.092976
0.091496
0.086643
0.077878
0.065111
0.048942
0.030763
0.012660
-0.002921
-0.013670
-0.018193
-0.017055
-0.011105
-0.001800
0.009148
0.020133
0.029929
0.037842
0.043711
0.047802
0.050626
0.052729
0.054533
0.056275
0.058035
0.059777
0.061453
0.063088
0.064718
0.066365
0.067978
0.069401
0.070370
0.070540
0.069534
0.067009
0.062721
0.056585
0.048716
0.039452
0.029331
0.019061
0.009441
0.001287
-0.004640
-0.007679
-0.004375
0.322012
0.319948
0.314691
0.306175
0.294132
0.278218
0.258069
0.233381
0.204014
0.170118
0.132282
0.091656
0.049991
0.009514
-0.027406
-0.058757
-0.083253
-0.100464
-0.110757
-0.115117
-0.114941
-0.111839
-0.107462
-0.103351
-0.100779
-0.100584
-0.103008
-0.107609
-0.113314
-0.118634
-0.122023
-0.122169
-0.118318
-0.110374
-0.098766
-0.084296
-0.067953
-0.050757
-0.033623
-0.017280
-0.002232
0.011245
0.023086
0.033393
0.042391
0.050377
0.057674
0.064603
0.071302
0.077677
0.083609
0.088786
0.092724
0.094782
0.094212
0.090277
0.082452
0.070686
0.055631
0.038722
0.022036
0.007905
-0.001572
-0.005613
-0.004429
0.001101
0.009553
0.019298
0.028834
0.037038
0.043299
0.047538
0.050101
0.051585
0.052628
0.053729
0.055161
0.057009
0.058961
0.060991
0.063051
0.065128
0.067215
0.069253
0.071094
0.072486
0.073092
0.072536
0.070465
0.066616
0.060885
0.053371
0.044395
0.034489
0.024349
0.014759
0.006490
0.000189
-0.003711
-0.004053
0.320292
0.317317
0.311681
0.302938
0.290743
0.274768
0.254705
0.230326
0.201568
0.168645
0.132164
0.093219
0.053403
0.014685
-0.020863
-0.051443
-0.075838
-0.093571
-0.104881
-0.110592
-0.111933
-0.110347
-0.107325
-0.104255
-0.102282
-0.102157
-0.104117
-0.107805
-0.112325
-0.116428
-0.118810
-0.118196
-0.113960
-0.105987
-0.094639
-0.080625
-0.064850
-0.048257
-0.031709
-0.015904
-0.001326
0.011755
0.023272
0.033322
0.042123
0.049963
0.057145
0.063917
0.070533
0.077138
0.083483
0.089190
0.093722
0.096390
0.096406
0.093004
0.085651
0.074315
0.059689
0.043272
0.027170
0.013614
0.004300
0.000329
0.001426
0.006660
0.014645
0.023818
0.032738
0.040326
0.045995
0.049669
0.051694
0.052671
0.053253
0.053965
0.055084
0.056597
0.058601
0.060865
0.063209
0.065576
0.067940
0.070244
0.072343
0.073996
0.074870
0.074585
0.072776
0.069169
0.063642
0.056280
0.047397
0.037526
0.027368
0.017710
0.009297
0.002668
-0.002041
-0.006877
