# vtk DataFile Version 3.0
Scalar Field
ASCII
DATASET RECTILINEAR_GRID
DIMENSIONS 100 26 1
X_COORDINATES 100 double
0.050000 0.150000 0.250000 0.350000 0.450000 0.550000 0.650000 0.750000 0.850000 0.950000 1.050000 1.150000 1.250000 1.350000 1.450000 1.550000 1.650000 1.750000 1.850000 1.950000 2.050000 2.150000 2.250000 2.350000 2.450000 2.550000 2.650000 2.750000 2.850000 2.950000 3.050000 3.150000 3.250000 3.350000 3.450000 3.550000 3.650000 3.750000 3.850000 3.950000 4.050000 4.150000 4.250000 4.350000 4.450000 4.550000 4.650000 4.750000 4.850000 4.950000 5.050000 5.150000 5.250000 5.350000 5.450000 5.550000 5.650000 5.750000 5.850000 5.950000 6.050000 6.150000 6.250000 6.350000 6.450000 6.550000 6.650000 6.750000 6.850000 6.950000 7.050000 7.150000 7.250000 7.350000 7.450000 7.550000 7.650000 7.750000 7.850000 7.950000 8.050000 8.150000 8.250000 8.350000 8.450000 8.550000 8.650000 8.750000 8.850000 8.950000 9.050000 9.150000 9.250000 9.350000 9.450000 9.550000 9.650000 9.750000 9.850000 9.950000 
Y_COORDINATES 26 double
0.050000 0.150000 0.250000 0.350000 0.450000 0.550000 0.650000 0.750000 0.850000 0.950000 1.050000 1.150000 1.250000 1.350000 1.450000 1.550000 1.650000 1.750000 1.850000 1.950000 2.050000 2.150000 2.250000 2.350000 2.450000 2.550000 
Z_COORDINATES 1 double
0.0
POINT_DATA 2600
SCALARS Skalarfeld double 1
LOOKUP_TABLE default
0.192193
0.188303
0.180039
0.166970
0.148814
0.125394
0.096715
0.063096
0.025301
-0.015397
-0.057276
-0.098413
-0.136973
-0.171401
-0.200504
-0.223441
-0.239710
-0.249029
-0.251450
-0.247419
-0.237654
-0.223087
-0.204773
-0.183801
-0.161210
-0.137924
-0.114719
-0.092222
-0.070940
-0.051305
-0.033759
-0.018575
-0.006298
0.002517
0.007463
0.008492
0.006110
0.001409
-0.004129
-0.009016
-0.012036
-0.012294
-0.009787
-0.004904
0.001714
0.009333
0.017246
0.024858
0.031735
0.037618
0.042417
0.046203
0.049170
0.051605
0.053830
0.056131
0.058658
0.061710
0.065170
0.068834
0.072473
0.075810
0.078495
0.080099
0.080148
0.078237
0.074211
0.068342
0.061423
0.054650
0.049284
0.046329
0.046194
0.048498
0.052510
0.057296
0.061935
0.065729
0.068358
0.069925
0.070883
0.071838
0.073309
0.075547
0.078502
0.082043
0.086010
0.090246
0.094808
0.099868
0.105663
0.112440
0.120424
0.129813
0.140778
0.153483
0.168128
0.184990
0.204471
0.233689
0.195611
0.192588
0.184566
0.171467
0.153051
0.129090
0.099521
0.064627
0.025216
-0.017281
-0.060874
-0.103412
-0.142970
-0.178035
-0.207506
-0.230624
-0.246909
-0.256101
-0.258203
-0.253654
-0.243189
-0.227775
-0.208518
-0.186558
-0.162980
-0.138745
-0.114660
-0.091366
-0.069371
-0.049095
-0.030904
-0.015397
-0.003101
0.005424
0.009770
0.009921
0.006454
0.000582
-0.006044
-0.011726
-0.015197
-0.015640
-0.013061
-0.007926
-0.000958
0.007046
0.015337
0.023298
0.030486
0.036641
0.041679
0.045674
0.048828
0.051426
0.053787
0.056211
0.058945
0.061891
0.065058
0.068336
0.071553
0.074476
0.076798
0.078118
0.077977
0.075967
0.071896
0.065970
0.058893
0.051820
0.046147
0.043069
0.042821
0.045093
0.049181
0.054135
0.059011
0.063096
0.066063
0.068017
0.069404
0.070801
0.072680
0.075248
0.078470
0.082091
0.085893
0.089897
0.094203
0.098995
0.104520
0.111030
0.118746
0.127857
0.138527
0.150916
0.165213
0.181690
0.200761
0.229486
0.204568
0.201772
0.193886
0.180707
0.161861
0.136930
0.105649
0.068166
0.025340
-0.021066
-0.068376
-0.113881
-0.155485
-0.191808
-0.221992
-0.245474
-0.261871
-0.270860
-0.272342
-0.266758
-0.254869
-0.237711
-0.216485
-0.192434
-0.166744
-0.140459
-0.114452
-0.089419
-0.065900
-0.044337
-0.025153
-0.009001
0.003447
0.011498
0.014653
0.012919
0.007037
-0.001475
-0.010562
-0.018137
-0.022732
-0.023523
-0.020729
-0.015014
-0.007265
0.001600
0.010758
0.019555
0.027532
0.034429
0.040167
0.044817
0.048566
0.051668
0.054392
0.056974
0.059591
0.062298
0.065073
0.067826
0.070439
0.072746
0.074504
0.075364
0.074884
0.072641
0.068394
0.062259
0.054826
0.047157
0.040615
0.036529
0.035815
0.037872
0.042016
0.047315
0.052818
0.057785
0.061835
0.064985
0.067552
0.069967
0.072574
0.075519
0.078767
0.082185
0.085672
0.089247
0.093042
0.097295
0.102286
0.108278
0.115466
0.124039
0.134157
0.145966
0.159631
0.175395
0.193637
0.220584
0.218633
0.215945
0.208201
0.194999
0.175684
0.149462
0.115636
0.074005
0.025428
-0.027810
-0.081420
-0.131595
-0.176116
-0.214048
-0.245074
-0.268981
-0.285472
-0.294083
-0.294602
-0.287395
-0.273252
-0.253327
-0.228985
-0.201647
-0.172655
-0.143190
-0.114235
-0.086563
-0.060766
-0.037297
-0.016554
0.000670
0.013451
0.020811
0.022050
0.017185
0.007233
-0.005754
-0.018992
-0.029638
-0.035612
-0.036624
-0.033204
-0.026342
-0.017195
-0.006867
0.003715
0.013848
0.023064
0.031104
0.037890
0.043483
0.048043
0.051780
0.054919
0.057657
0.060143
0.062448
0.064714
0.066850
0.068727
0.070247
0.071275
0.071542
0.070656
0.068199
0.063885
0.057732
0.050180
0.042127
0.034809
0.029521
0.027533
0.029149
0.033151
0.038720
0.044921
0.050967
0.056376
0.061009
0.064994
0.068582
0.071998
0.075358
0.078673
0.081892
0.084988
0.088017
0.091144
0.094625
0.098757
0.103865
0.110306
0.118121
0.127486
0.138533
0.151388
0.166235
0.183366
0.208053
0.237606
0.235073
0.227671
0.214747
0.195223
0.167667
0.130548
0.082850
0.025158
-0.039648
-0.103180
-0.159701
-0.207419
-0.246677
-0.278289
-0.302590
-0.319192
-0.327316
-0.326552
-0.317046
-0.299623
-0.275652
-0.246785
-0.214718
-0.181033
-0.147099
-0.114048
-0.082765
-0.053909
-0.027932
-0.005112
0.013679
0.027050
0.033546
0.032131
0.022848
0.007072
-0.012464
-0.031973
-0.047380
-0.055438
-0.056260
-0.051491
-0.042602
-0.031169
-0.018572
-0.005883
0.006148
0.017048
0.026576
0.034665
0.041376
0.046855
0.051290
0.054881
0.057803
0.060179
0.062052
0.063412
0.064618
0.065576
0.066089
0.066197
0.065782
0.064536
0.062059
0.058015
0.052301
0.045179
0.037336
0.029818
0.023836
0.020446
0.021076
0.024577
0.030092
0.036707
0.043599
0.050178
0.056137
0.061414
0.066090
0.070283
0.074076
0.077495
0.080534
0.083206
0.085601
0.087920
0.090467
0.093605
0.097693
0.103030
0.109929
0.118416
0.128602
0.140565
0.154409
0.170311
0.192634
0.261197
0.258970
0.252339
0.240370
0.221423
0.193078
0.152293
0.096191
0.024157
-0.061051
-0.139479
-0.202931
-0.252339
-0.291223
-0.322525
-0.347307
-0.364474
-0.372401
-0.370278
-0.357753
-0.335773
-0.306138
-0.270988
-0.232441
-0.192407
-0.152505
-0.114053
-0.078097
-0.045419
-0.016529
0.008430
0.029208
0.043540
0.049259
0.044898
0.030676
0.008389
-0.018704
-0.046037
-0.068320
-0.080795
-0.081755
-0.075184
-0.063541
-0.049037
-0.033441
-0.018016
-0.003579
0.009398
0.020698
0.030280
0.038222
0.044676
0.049830
0.053874
0.056961
0.059161
0.060469
0.060865
0.060420
0.059828
0.059099
0.058182
0.057171
0.055820
0.053709
0.050428
0.045743
0.039726
0.032829
0.025867
0.019895
0.015978
0.014948
0.017743
0.022801
0.029350
0.036585
0.043845
0.050688
0.056888
0.062377
0.067170
0.071295
0.074766
0.077583
0.079774
0.081455
0.082866
0.084369
0.086395
0.089362
0.093603
0.099441
0.106976
0.116268
0.127332
0.140184
0.154874
0.174949
0.288846
0.287160
0.281992
0.272149
0.255374
0.227923
0.184201
0.117261
0.022064
-0.101895
-0.200241
-0.266495
-0.311705
-0.345832
-0.375035
-0.401152
-0.421097
-0.430430
-0.427601
-0.411464
-0.383455
-0.346247
-0.302788
-0.255801
-0.207610
-0.160126
-0.114901
-0.073193
-0.036031
-0.004207
0.021873
0.044014
0.059545
0.064800
0.057722
0.039282
0.011936
-0.020839
-0.054502
-0.083631
-0.102977
-0.107661
-0.099893
-0.085915
-0.068532
-0.049974
-0.031759
-0.014820
0.000338
0.013494
0.024620
0.033808
0.041219
0.047044
0.051459
0.054566
0.056354
0.056743
0.055738
0.053592
0.050822
0.048529
0.046708
0.045440
0.044424
0.043172
0.041190
0.038116
0.033838
0.028575
0.022892
0.017631
0.013728
0.011945
0.013518
0.017749
0.023727
0.030721
0.038052
0.045196
0.051806
0.057693
0.062770
0.067001
0.070360
0.072831
0.074442
0.075324
0.075754
0.076152
0.077016
0.078830
0.081982
0.086734
0.093299
0.101709
0.111919
0.123855
0.137441
0.155521
0.319555
0.318713
0.315916
0.309881
0.297938
0.275007
0.231862
0.153311
0.018549
-0.185008
-0.299661
-0.350811
-0.378598
-0.400281
-0.424514
-0.454102
-0.483145
-0.498810
-0.497515
-0.477728
-0.442458
-0.396025
-0.342570
-0.285565
-0.227794
-0.171483
-0.118442
-0.070195
-0.028123
0.006416
0.032364
0.049866
0.065332
0.070205
0.060382
0.039480
0.011088
-0.021979
-0.056396
-0.087728
-0.111052
-0.122670
-0.117310
-0.103349
-0.084901
-0.064774
-0.044793
-0.026072
-0.009231
0.005442
0.017867
0.028106
0.036295
0.042601
0.047147
0.049939
0.050856
0.049777
0.046856
0.042693
0.038206
0.034420
0.032085
0.031047
0.030867
0.030963
0.030752
0.029761
0.027717
0.024625
0.020805
0.016871
0.013612
0.011817
0.012124
0.015332
0.020349
0.026581
0.033397
0.040246
0.046711
0.052511
0.057474
0.061494
0.064495
0.066430
0.067317
0.067294
0.066672
0.065919
0.065593
0.066235
0.068276
0.071991
0.077591
0.085155
0.094584
0.105716
0.118356
0.134760
0.351778
0.352078
0.352600
0.352310
0.348794
0.336625
0.303456
0.221149
0.018354
-0.367146
-0.448784
-0.439243
-0.433899
-0.436196
-0.451754
-0.485334
-0.531075
-0.565774
-0.570420
-0.548403
-0.506341
-0.450962
-0.387797
-0.321059
-0.253969
-0.189089
-0.128563
-0.074272
-0.028027
0.008036
0.031556
0.042955
0.045958
0.044775
0.035320
0.018734
-0.003287
-0.029270
-0.057284
-0.084268
-0.106238
-0.119424
-0.121654
-0.110230
-0.093325
-0.073963
-0.054147
-0.035158
-0.017780
-0.002451
0.010626
0.021409
0.029949
0.036327
0.040558
0.042515
0.041986
0.038932
0.033821
0.027707
0.021886
0.017368
0.015085
0.014795
0.015931
0.017806
0.019746
0.021174
0.021684
0.021098
0.019519
0.017338
0.015167
0.013698
0.013496
0.015520
0.019347
0.024449
0.030284
0.036327
0.042137
0.047379
0.051814
0.055272
0.057626
0.058795
0.058777
0.057717
0.055948
0.053980
0.052419
0.051856
0.052768
0.055468
0.060112
0.066875
0.075606
0.086058
0.097924
0.112976
0.383431
0.385052
0.389512
0.396452
0.404756
0.411096
0.405426
0.355341
0.115594
-0.713059
-0.619835
-0.486549
-0.457386
-0.445585
-0.452967
-0.487924
-0.542757
-0.601022
-0.622466
-0.602484
-0.558281
-0.498673
-0.430287
-0.357897
-0.285128
-0.215028
-0.150445
-0.094355
-0.049895
-0.019500
-0.003506
0.000891
-0.001526
-0.006658
-0.012222
-0.020047
-0.030721
-0.044425
-0.060751
-0.078195
-0.094086
-0.105328
-0.109691
-0.104665
-0.091437
-0.075094
-0.057531
-0.040082
-0.023667
-0.008895
0.003857
0.014385
0.022597
0.028429
0.031739
0.032270
0.029795
0.024485
0.017225
0.009491
0.002802
-0.001822
-0.003503
-0.002541
0.000371
0.004420
0.008817
0.012883
0.016101
0.018157
0.018981
0.018771
0.017971
0.017173
0.016975
0.017867
0.020519
0.024312
0.028869
0.033739
0.038499
0.042790
0.046329
0.048895
0.050317
0.050476
0.049355
0.047100
0.044063
0.040783
0.037906
0.036072
0.035810
0.037482
0.041188
0.047182
0.055284
0.065167
0.076412
0.090393
0.412107
0.414986
0.423253
0.437417
0.458303
0.486868
0.523343
0.563284
0.642493
-0.035283
-0.541169
-0.462503
-0.460786
-0.455481
-0.462486
-0.491352
-0.539700
-0.593273
-0.630335
-0.619213
-0.579485
-0.523172
-0.457298
-0.386782
-0.315523
-0.247213
-0.185726
-0.135205
-0.099147
-0.078516
-0.070720
-0.070452
-0.072743
-0.072572
-0.069603
-0.066094
-0.063639
-0.063417
-0.066139
-0.071677
-0.078748
-0.085140
-0.088536
-0.087300
-0.079688
-0.067803
-0.054058
-0.039683
-0.025644
-0.012686
-0.001351
0.007980
0.015039
0.019587
0.021311
0.019847
0.015037
0.007355
-0.001898
-0.010926
-0.018096
-0.022414
-0.022995
-0.020291
-0.015155
-0.008564
-0.001455
0.005379
0.011330
0.015993
0.019184
0.020959
0.021619
0.021654
0.021628
0.022044
0.023473
0.025915
0.029069
0.032568
0.036029
0.039097
0.041465
0.042876
0.043119
0.042049
0.039635
0.036022
0.031576
0.026861
0.022558
0.019355
0.017836
0.018404
0.021233
0.026445
0.033953
0.043334
0.054063
0.067166
0.435519
0.439309
0.450322
0.469647
0.499368
0.543119
0.607223
0.702506
0.835815
0.865262
0.000000
-0.464737
-0.466970
-0.467435
-0.476326
-0.499458
-0.532481
-0.568169
-0.593230
-0.594561
-0.560998
-0.512727
-0.455874
-0.394762
-0.333006
-0.274720
-0.224545
-0.187229
-0.165190
-0.156146
-0.154497
-0.154317
-0.150072
-0.139600
-0.125233
-0.109311
-0.093873
-0.080542
-0.070540
-0.064536
-0.062332
-0.062688
-0.063652
-0.063278
-0.060249
-0.053373
-0.044169
-0.033779
-0.023118
-0.012978
-0.004020
0.003227
0.008327
0.010859
0.010348
0.006367
-0.001102
-0.011251
-0.022406
-0.032540
-0.039948
-0.043643
-0.042686
-0.037790
-0.030020
-0.020572
-0.010562
-0.000912
0.007693
0.014795
0.020157
0.023757
0.025800
0.026688
0.026938
0.027047
0.027574
0.028820
0.030615
0.032709
0.034778
0.036488
0.037526
0.037611
0.036505
0.034041
0.030180
0.025067
0.019081
0.012804
0.006955
0.002270
-0.000606
-0.001212
0.000669
0.005080
0.011984
0.020872
0.031111
0.043402
0.452007
0.456175
0.468281
0.489440
0.521650
0.567928
0.631865
0.714718
0.809003
0.894709
0.809836
0.000000
-0.473563
-0.480156
-0.485577
-0.499829
-0.517095
-0.532360
-0.537814
-0.527043
-0.499963
-0.460627
-0.415908
-0.369371
-0.323752
-0.283606
-0.253915
-0.238140
-0.234811
-0.237761
-0.239797
-0.235478
-0.220247
-0.197842
-0.171147
-0.142982
-0.115744
-0.091268
-0.070877
-0.055436
-0.045252
-0.039828
-0.037782
-0.037243
-0.036562
-0.034096
-0.029165
-0.022965
-0.016126
-0.009385
-0.003446
0.001059
0.003554
0.003449
0.000131
-0.006833
-0.017268
-0.030022
-0.043101
-0.054289
-0.061818
-0.064545
-0.061693
-0.054241
-0.043534
-0.031025
-0.018038
-0.005630
0.005446
0.014715
0.021936
0.027074
0.030289
0.031934
0.032490
0.032477
0.032348
0.032561
0.033139
0.033920
0.034641
0.034993
0.034665
0.033363
0.030830
0.026888
0.021490
0.014787
0.007166
-0.000771
-0.008272
-0.014548
-0.018890
-0.020775
-0.019943
-0.016412
-0.010191
-0.001876
0.007798
0.019187
0.460877
0.464881
0.476439
0.496310
0.525669
0.565920
0.618141
0.681545
0.744610
0.764710
0.724963
0.606690
0.000000
-0.487344
-0.494531
-0.498181
-0.502305
-0.495365
-0.473149
-0.441526
-0.407921
-0.374495
-0.339890
-0.308330
-0.283979
-0.269543
-0.268966
-0.280954
-0.298445
-0.312551
-0.316527
-0.303367
-0.276167
-0.241705
-0.203358
-0.164322
-0.127226
-0.093985
-0.065848
-0.043558
-0.027445
-0.017345
-0.012378
-0.010952
-0.011179
-0.011334
-0.010511
-0.008253
-0.005172
-0.001941
0.000735
0.002164
0.001653
-0.001532
-0.008099
-0.018426
-0.032092
-0.047605
-0.062678
-0.074915
-0.082479
-0.083899
-0.078883
-0.068655
-0.054883
-0.039299
-0.023436
-0.008480
0.004766
0.015835
0.024523
0.030829
0.034922
0.037134
0.037927
0.037822
0.037300
0.036672
0.036241
0.035896
0.035418
0.034525
0.032908
0.030265
0.026330
0.020916
0.013976
0.005666
-0.003620
-0.013261
-0.022474
-0.030423
-0.036334
-0.039621
-0.039977
-0.037463
-0.032093
-0.024533
-0.015611
-0.005378
0.462419
0.465857
0.475711
0.492359
0.516300
0.547719
0.585460
0.624624
0.652434
0.642330
0.576836
0.488417
0.317645
0.000000
-0.497222
-0.499913
-0.503980
-0.472088
-0.415697
-0.355523
-0.304556
-0.268768
-0.243124
-0.227951
-0.225156
-0.240462
-0.272410
-0.312540
-0.349161
-0.371715
-0.373694
-0.349228
-0.312180
-0.267734
-0.220146
-0.172948
-0.128834
-0.089632
-0.056417
-0.029698
-0.009635
0.003891
0.011416
0.014109
0.013660
0.011775
0.009980
0.009140
0.008983
0.009011
0.008560
0.006903
0.003250
-0.003246
-0.013329
-0.027249
-0.044294
-0.062633
-0.079702
-0.092922
-0.100369
-0.100245
-0.092909
-0.079890
-0.063171
-0.044749
-0.026343
-0.009238
0.005735
0.018144
0.027849
0.034914
0.039549
0.042096
0.043006
0.042786
0.041907
0.040738
0.039554
0.038323
0.036867
0.034923
0.032184
0.028342
0.023123
0.016337
0.007939
-0.001910
-0.012809
-0.024124
-0.035046
-0.044700
-0.052256
-0.057068
-0.058777
-0.057480
-0.053214
-0.046693
-0.038825
-0.030152
0.457666
0.460333
0.467887
0.480311
0.497368
0.518130
0.540064
0.557460
0.559322
0.527801
0.444849
0.299699
0.146874
-0.289585
-0.585058
-0.537503
-0.519922
-0.456018
-0.367838
-0.282817
-0.216216
-0.171756
-0.149103
-0.145484
-0.166046
-0.209736
-0.269196
-0.330994
-0.381042
-0.408393
-0.400342
-0.369300
-0.325324
-0.274443
-0.221402
-0.169821
-0.122255
-0.080297
-0.044754
-0.015875
0.006408
0.022286
0.032087
0.036511
0.036813
0.034607
0.031387
0.028163
0.025500
0.022912
0.019752
0.015258
0.008560
-0.001257
-0.014900
-0.032418
-0.052775
-0.073813
-0.092710
-0.106708
-0.113802
-0.111974
-0.102363
-0.086798
-0.067539
-0.046800
-0.026437
-0.007791
0.008321
0.021521
0.031752
0.039157
0.044004
0.046656
0.047559
0.047208
0.046078
0.044516
0.042800
0.040931
0.038751
0.036000
0.032370
0.027541
0.021234
0.013257
0.003565
-0.007675
-0.020056
-0.032937
-0.045494
-0.056824
-0.066059
-0.072507
-0.075766
-0.075913
-0.073071
-0.067963
-0.061544
-0.054941
0.448008
0.449797
0.454782
0.462653
0.472692
0.483372
0.491698
0.492251
0.476096
0.429906
0.336019
0.169553
-0.122275
-0.726044
-0.632613
-0.529523
-0.477241
-0.406944
-0.318713
-0.233210
-0.163205
-0.111814
-0.084947
-0.089942
-0.127140
-0.189339
-0.264053
-0.335657
-0.389433
-0.411984
-0.396962
-0.362390
-0.315655
-0.262930
-0.208963
-0.157184
-0.109860
-0.068288
-0.033015
-0.004066
0.018825
0.035992
0.047707
0.054299
0.056428
0.055201
0.051892
0.047559
0.043379
0.038944
0.033657
0.026747
0.017291
0.004367
-0.012616
-0.033445
-0.056755
-0.080090
-0.100413
-0.114814
-0.121217
-0.117654
-0.106043
-0.088452
-0.067347
-0.045086
-0.023586
-0.004185
0.012352
0.025730
0.035979
0.043322
0.048082
0.050645
0.051444
0.050954
0.049631
0.047838
0.045786
0.043515
0.040867
0.037574
0.033314
0.027755
0.020608
0.011676
0.000917
-0.011501
-0.025170
-0.039446
-0.053501
-0.066421
-0.077322
-0.085488
-0.090483
-0.092329
-0.091270
-0.088007
-0.083494
-0.079524
0.435040
0.435977
0.438503
0.442150
0.445972
0.448267
0.446143
0.434980
0.407887
0.355243
0.264206
0.117536
-0.107378
-0.396383
-0.454765
-0.435552
-0.396802
-0.340939
-0.274705
-0.207067
-0.146843
-0.095839
-0.066393
-0.076367
-0.120212
-0.186139
-0.260281
-0.327605
-0.374076
-0.383049
-0.366456
-0.332228
-0.287315
-0.237401
-0.186785
-0.138493
-0.094456
-0.055728
-0.022699
0.004705
0.026834
0.044133
0.056976
0.065597
0.070230
0.071339
0.069562
0.065761
0.061249
0.055834
0.049099
0.040320
0.028577
0.013005
-0.006800
-0.030331
-0.055914
-0.080857
-0.101969
-0.116258
-0.121625
-0.116397
-0.103258
-0.084392
-0.062365
-0.039578
-0.017926
0.001326
0.017510
0.030429
0.040201
0.047119
0.051546
0.053877
0.054524
0.053922
0.052495
0.050587
0.048392
0.045938
0.043062
0.039483
0.034860
0.028842
0.021125
0.011505
-0.000063
-0.013412
-0.028135
-0.043593
-0.058968
-0.073350
-0.085862
-0.095786
-0.102677
-0.106474
-0.107567
-0.106598
-0.104478
-0.103719
0.420315
0.420507
0.420912
0.421011
0.419832
0.415766
0.406326
0.387886
0.355496
0.302888
0.222808
0.108318
-0.041769
-0.205827
-0.289818
-0.314131
-0.304885
-0.274573
-0.231706
-0.184303
-0.138895
-0.103297
-0.087557
-0.099308
-0.136564
-0.191257
-0.251451
-0.303316
-0.332212
-0.334717
-0.318305
-0.287761
-0.248342
-0.204646
-0.160262
-0.117752
-0.078772
-0.044236
-0.014494
0.010500
0.031048
0.047572
0.060501
0.070166
0.076774
0.080442
0.081228
0.080250
0.076819
0.071503
0.064206
0.054321
0.041000
0.023522
0.001722
-0.023595
-0.050495
-0.076119
-0.097217
-0.110842
-0.114507
-0.108041
-0.094041
-0.074800
-0.052902
-0.030681
-0.009915
0.008270
0.023339
0.035205
0.044064
0.050256
0.054166
0.056178
0.056670
0.056021
0.054600
0.052717
0.050557
0.048115
0.045224
0.041590
0.036850
0.030631
0.022609
0.012568
0.000455
-0.013568
-0.029102
-0.045520
-0.062018
-0.077712
-0.091748
-0.103430
-0.112325
-0.118303
-0.121887
-0.123650
-0.124419
-0.127468
0.405193
0.404782
0.403492
0.400831
0.395918
0.387382
0.373250
0.350862
0.316909
0.267685
0.199773
0.111578
0.006823
-0.100156
-0.174558
-0.213066
-0.223657
-0.214439
-0.192577
-0.164768
-0.137305
-0.116852
-0.110091
-0.121264
-0.149427
-0.188964
-0.230836
-0.264304
-0.280513
-0.280596
-0.266349
-0.241040
-0.208420
-0.171978
-0.134583
-0.098374
-0.064792
-0.034682
-0.008413
0.013993
0.032750
0.048203
0.060746
0.070725
0.078380
0.083776
0.087376
0.088928
0.087575
0.083568
0.076813
0.066816
0.052883
0.034503
0.011786
-0.014186
-0.041272
-0.066519
-0.086703
-0.099069
-0.100579
-0.093384
-0.079251
-0.060569
-0.039841
-0.019229
-0.000305
0.015997
0.029301
0.039628
0.047238
0.052493
0.055773
0.057435
0.057804
0.057194
0.055908
0.054209
0.052249
0.049988
0.047263
0.043770
0.039125
0.032930
0.024840
0.014619
0.002203
-0.012257
-0.028374
-0.045538
-0.062970
-0.079818
-0.095267
-0.108661
-0.119604
-0.127942
-0.134301
-0.139200
-0.143362
-0.150903
0.390773
0.389904
0.387340
0.382660
0.375131
0.363664
0.346786
0.322653
0.289185
0.244374
0.186915
0.117276
0.039374
-0.037864
-0.099575
-0.140214
-0.161062
-0.166039
-0.159907
-0.147675
-0.134355
-0.124906
-0.123703
-0.133268
-0.153024
-0.179254
-0.205915
-0.226122
-0.235624
-0.233919
-0.221691
-0.200940
-0.174223
-0.144109
-0.112840
-0.082181
-0.053385
-0.027232
-0.004108
0.015910
0.032959
0.047316
0.059321
0.069302
0.077518
0.084103
0.089491
0.092631
0.093221
0.091009
0.085596
0.076417
0.062885
0.044701
0.022230
-0.003214
-0.029343
-0.053161
-0.071500
-0.081708
-0.081743
-0.074111
-0.060518
-0.043240
-0.024566
-0.006396
0.009958
0.023784
0.034868
0.043334
0.049489
0.053697
0.056311
0.057639
0.057945
0.057469
0.056429
0.055096
0.053461
0.051519
0.049103
0.045902
0.041517
0.035526
0.027559
0.017359
0.004842
-0.009855
-0.026360
-0.044084
-0.062275
-0.080120
-0.096850
-0.111862
-0.124815
-0.135613
-0.144948
-0.153337
-0.161422
-0.174349
0.377896
0.376693
0.373216
0.367132
0.357868
0.344605
0.326290
0.301701
0.269601
0.229010
0.179663
0.122647
0.061134
0.000738
-0.051129
-0.090159
-0.115626
-0.129122
-0.133485
-0.132154
-0.128759
-0.126800
-0.129165
-0.137426
-0.151239
-0.168299
-0.184899
-0.197000
-0.201980
-0.198826
-0.187831
-0.170234
-0.147798
-0.122418
-0.095848
-0.069539
-0.044572
-0.021653
-0.001158
0.016811
0.032350
0.045688
0.057121
0.066956
0.075452
0.082877
0.088971
0.093247
0.095314
0.094705
0.090821
0.082979
0.070607
0.053534
0.032309
0.008404
-0.015809
-0.037363
-0.053247
-0.061000
-0.060004
-0.052488
-0.040071
-0.024828
-0.008771
0.006492
0.019908
0.030976
0.039634
0.046103
0.050732
0.053881
0.055861
0.056918
0.057242
0.056991
0.056314
0.055422
0.054216
0.052693
0.050685
0.047879
0.043863
0.038199
0.030491
0.020455
0.007989
-0.006790
-0.023530
-0.041660
-0.060457
-0.079143
-0.096996
-0.113473
-0.128308
-0.141537
-0.153931
-0.166087
-0.178648
-0.198209
0.367175
0.365728
0.361611
0.354587
0.344229
0.329938
0.310984
0.286584
0.256041
0.218961
0.175555
0.126994
0.075712
0.025394
-0.019678
-0.056448
-0.083756
-0.102078
-0.113011
-0.118814
-0.122008
-0.125024
-0.129815
-0.137425
-0.147677
-0.159174
-0.169663
-0.176808
-0.178595
-0.174233
-0.163821
-0.148178
-0.128573
-0.106456
-0.083232
-0.060111
-0.038027
-0.017612
0.000791
0.017079
0.031337
0.043774
0.054665
0.064297
0.072917
0.080700
0.087300
0.092419
0.095618
0.096327
0.093851
0.087461
0.076591
0.061142
0.041764
0.020013
-0.001729
-0.020608
-0.033892
-0.039394
-0.038207
-0.031368
-0.020512
-0.007525
0.005833
0.018203
0.028743
0.037123
0.043412
0.047929
0.051078
0.053229
0.054657
0.055538
0.055972
0.056026
0.055831
0.055353
0.054610
0.053552
0.051996
0.049626
0.046028
0.040749
0.033370
0.023585
0.011265
-0.003494
-0.020356
-0.038771
-0.058036
-0.077401
-0.096185
-0.113903
-0.130354
-0.145841
-0.161212
-0.177272
-0.194812
-0.222665
0.359060
0.357404
0.352821
0.345178
0.334158
0.319322
0.300161
0.276179
0.247007
0.212569
0.173274
0.130219
0.085301
0.041111
0.000474
-0.034379
-0.062299
-0.083254
-0.098120
-0.108368
-0.115747
-0.121976
-0.128426
-0.135841
-0.144149
-0.152481
-0.159415
-0.163437
-0.163106
-0.157823
-0.147629
-0.133123
-0.115291
-0.095303
-0.074334
-0.053425
-0.033396
-0.014813
0.002013
0.016993
0.030218
0.041898
0.052308
0.061732
0.070416
0.078383
0.085413
0.091233
0.095374
0.097202
0.095968
0.090923
0.081528
0.067738
0.050267
0.030701
0.011371
-0.005056
-0.016155
-0.020818
-0.019663
-0.013633
-0.004255
0.006757
0.017835
0.027791
0.035927
0.042029
0.046266
0.049051
0.050865
0.052124
0.053094
0.053896
0.054534
0.054953
0.055143
0.055101
0.054815
0.054205
0.053081
0.051127
0.047930
0.043027
0.035985
0.026473
0.014338
-0.000346
-0.017260
-0.035866
-0.055474
-0.075345
-0.094823
-0.113478
-0.131142
-0.148564
-0.166612
-0.186426
-0.209167
-0.247107
0.353938
0.351971
0.346995
0.338941
0.327542
0.312443
0.293268
0.269687
0.241515
0.208833
0.172124
0.132395
0.091208
0.050564
0.012583
-0.020969
-0.049030
-0.071352
-0.088417
-0.101231
-0.111071
-0.119222
-0.126718
-0.134133
-0.141453
-0.148089
-0.153041
-0.155213
-0.153598
-0.147717
-0.137599
-0.123735
-0.106954
-0.088263
-0.068694
-0.049178
-0.030463
-0.013068
0.002718
0.016816
0.029318
0.040437
0.050450
0.059660
0.068358
0.076464
0.083875
0.090298
0.095230
0.097983
0.097761
0.093789
0.085541
0.073015
0.056973
0.039022
0.021419
0.006616
-0.003300
-0.007653
-0.006668
-0.001304
0.006997
0.016641
0.026181
0.034529
0.041062
0.045619
0.048420
0.049932
0.050702
0.051209
0.051767
0.052525
0.053325
0.054020
0.054573
0.054929
0.055039
0.054804
0.054032
0.052414
0.049542
0.044952
0.038194
0.028919
0.016951
0.002345
-0.014592
-0.033325
-0.053160
-0.073358
-0.093266
-0.112441
-0.131066
-0.149909
-0.170038
-0.192940
-0.220333
-0.269213
0.352393
0.349513
0.344147
0.335851
0.324275
0.309083
0.289953
0.266630
0.239007
0.207225
0.171786
0.133637
0.094179
0.055158
0.018402
-0.014526
-0.042616
-0.065536
-0.083596
-0.097591
-0.108574
-0.117627
-0.125631
-0.133084
-0.139997
-0.145912
-0.150051
-0.151441
-0.149266
-0.143132
-0.133073
-0.119533
-0.103263
-0.085189
-0.066273
-0.047392
-0.029257
-0.012368
0.002994
0.016749
0.028984
0.039901
0.049765
0.058844
0.067307
0.075465
0.083178
0.090074
0.095591
0.098988
0.099415
0.096061
0.088386
0.076405
0.060928
0.043612
0.026710
0.012524
0.002730
-0.001578
-0.000760
0.004218
0.011971
0.020979
0.029860
0.037571
0.043509
0.047517
0.049812
0.050854
0.051197
0.051334
0.051589
0.052040
0.052747
0.053624
0.054437
0.055069
0.055444
0.055458
0.054919
0.053524
0.050868
0.046480
0.039900
0.030760
0.018867
0.004262
-0.012749
-0.031620
-0.051635
-0.072035
-0.092197
-0.111850
-0.131108
-0.150758
-0.172029
-0.196627
-0.226733
-0.283907
