# vtk DataFile Version 3.0
Vector Field
ASCII
DATASET RECTILINEAR_GRID
DIMENSIONS 100 26 1
X_COORDINATES 100 double
0.050000 0.150000 0.250000 0.350000 0.450000 0.550000 0.650000 0.750000 0.850000 0.950000 1.050000 1.150000 1.250000 1.350000 1.450000 1.550000 1.650000 1.750000 1.850000 1.950000 2.050000 2.150000 2.250000 2.350000 2.450000 2.550000 2.650000 2.750000 2.850000 2.950000 3.050000 3.150000 3.250000 3.350000 3.450000 3.550000 3.650000 3.750000 3.850000 3.950000 4.050000 4.150000 4.250000 4.350000 4.450000 4.550000 4.650000 4.750000 4.850000 4.950000 5.050000 5.150000 5.250000 5.350000 5.450000 5.550000 5.650000 5.750000 5.850000 5.950000 6.050000 6.150000 6.250000 6.350000 6.450000 6.550000 6.650000 6.750000 6.850000 6.950000 7.050000 7.150000 7.250000 7.350000 7.450000 7.550000 7.650000 7.750000 7.850000 7.950000 8.050000 8.150000 8.250000 8.350000 8.450000 8.550000 8.650000 8.750000 8.850000 8.950000 9.050000 9.150000 9.250000 9.350000 9.450000 9.550000 9.650000 9.750000 9.850000 9.950000 
Y_COORDINATES 26 double
0.050000 0.150000 0.250000 0.350000 0.450000 0.550000 0.650000 0.750000 0.850000 0.950000 1.050000 1.150000 1.250000 1.350000 1.450000 1.550000 1.650000 1.750000 1.850000 1.950000 2.050000 2.150000 2.250000 2.350000 2.450000 2.550000 
Z_COORDINATES 1 double
0.0
POINT_DATA 2600
VECTORS Vektorfeld double
1.000746 -0.000746 0.0
1.004191 -0.002698 0.0
1.011703 -0.004814 0.0
1.023508 -0.006990 0.0
1.039645 -0.009147 0.0
1.059974 -0.011182 0.0
1.084113 -0.012957 0.0
1.111380 -0.014309 0.0
1.140775 -0.015086 0.0
1.171062 -0.015201 0.0
1.200951 -0.014688 0.0
1.229329 -0.013690 0.0
1.255421 -0.012402 0.0
1.278833 -0.011010 0.0
1.299495 -0.009652 0.0
1.317545 -0.008398 0.0
1.333193 -0.007250 0.0
1.346585 -0.006142 0.0
1.357684 -0.004957 0.0
1.366202 -0.003562 0.0
1.371610 -0.001846 0.0
1.373226 0.000229 0.0
1.370336 0.002661 0.0
1.362322 0.005354 0.0
1.348810 0.008159 0.0
1.329744 0.010906 0.0
1.305403 0.013435 0.0
1.276358 0.015610 0.0
1.243415 0.017333 0.0
1.207541 0.018541 0.0
1.169800 0.019200 0.0
1.131304 0.019296 0.0
1.093179 0.018830 0.0
1.056541 0.017809 0.0
1.022488 0.016244 0.0
0.992098 0.014146 0.0
0.966439 0.011514 0.0
0.946602 0.008323 0.0
0.933754 0.004526 0.0
0.929078 0.000150 0.0
0.933420 -0.004492 0.0
0.947045 -0.009133 0.0
0.969701 -0.013522 0.0
1.000553 -0.017329 0.0
1.038040 -0.020159 0.0
1.079807 -0.021608 0.0
1.122759 -0.021345 0.0
1.163314 -0.019210 0.0
1.197843 -0.015319 0.0
1.223290 -0.010128 0.0
1.237795 -0.004377 0.0
1.240946 0.001225 0.0
1.233304 0.006416 0.0
1.215905 0.010983 0.0
1.190148 0.014774 0.0
1.157671 0.017703 0.0
1.120216 0.019752 0.0
1.079523 0.020941 0.0
1.037269 0.021314 0.0
0.995041 0.020914 0.0
0.954358 0.019769 0.0
0.916698 0.017891 0.0
0.883505 0.015301 0.0
0.856138 0.012066 0.0
0.835737 0.008336 0.0
0.823038 0.004362 0.0
0.818155 0.000520 0.0
0.820332 -0.002697 0.0
0.828251 -0.005221 0.0
0.840707 -0.007235 0.0
0.856887 -0.008945 0.0
0.876361 -0.010530 0.0
0.899008 -0.012117 0.0
0.924885 -0.013760 0.0
0.954063 -0.015417 0.0
0.986424 -0.016944 0.0
1.021469 -0.018101 0.0
1.058152 -0.018582 0.0
1.094789 -0.018055 0.0
1.129065 -0.016221 0.0
1.158211 -0.012925 0.0
1.179426 -0.008290 0.0
1.190538 -0.002822 0.0
1.190523 0.002836 0.0
1.179321 0.008366 0.0
1.157428 0.013527 0.0
1.125908 0.017994 0.0
1.086521 0.021393 0.0
1.041804 0.023324 0.0
0.995051 0.023429 0.0
0.950089 0.021534 0.0
0.910737 0.017818 0.0
0.880061 0.012858 0.0
0.859721 0.007483 0.0
0.849701 0.002537 0.0
0.848353 -0.001188 0.0
0.852786 -0.003245 0.0
0.859813 -0.003782 0.0
0.866576 -0.002981 0.0
0.868857 0.000700 0.0
1.001294 -0.002786 0.0
1.006134 -0.008943 0.0
1.015446 -0.015393 0.0
1.029212 -0.021982 0.0
1.047446 -0.028527 0.0
1.070052 -0.034737 0.0
1.096699 -0.040189 0.0
1.126717 -0.044362 0.0
1.159039 -0.046751 0.0
1.192256 -0.047041 0.0
1.224864 -0.045345 0.0
1.255604 -0.042151 0.0
1.283672 -0.038101 0.0
1.308739 -0.033790 0.0
1.330855 -0.029649 0.0
1.350300 -0.025895 0.0
1.367426 -0.022527 0.0
1.382503 -0.019334 0.0
1.395583 -0.015944 0.0
1.406406 -0.011917 0.0
1.414383 -0.006874 0.0
1.418658 -0.000633 0.0
1.418306 0.006764 0.0
1.412575 0.014995 0.0
1.401027 0.023579 0.0
1.383601 0.031977 0.0
1.360619 0.039688 0.0
1.332722 0.046299 0.0
1.300789 0.051519 0.0
1.265855 0.055163 0.0
1.229037 0.057137 0.0
1.191484 0.057408 0.0
1.154343 0.055983 0.0
1.118744 0.052892 0.0
1.085784 0.048173 0.0
1.056526 0.041865 0.0
1.031976 0.034003 0.0
1.013043 0.024604 0.0
1.000438 0.013697 0.0
0.994665 0.001426 0.0
0.996335 -0.011779 0.0
1.006265 -0.025401 0.0
1.025021 -0.038667 0.0
1.052486 -0.050501 0.0
1.087676 -0.059665 0.0
1.128734 -0.064925 0.0
1.172986 -0.065231 0.0
1.217063 -0.059955 0.0
1.257171 -0.049211 0.0
1.289610 -0.034122 0.0
1.311451 -0.016727 0.0
1.321164 0.000711 0.0
1.318906 0.016831 0.0
1.305934 0.030941 0.0
1.283908 0.042598 0.0
1.254679 0.051585 0.0
1.220139 0.057866 0.0
1.182130 0.061528 0.0
1.142395 0.062716 0.0
1.102561 0.061574 0.0
1.064129 0.058223 0.0
1.028453 0.052772 0.0
0.996675 0.045391 0.0
0.969609 0.036410 0.0
0.947615 0.026388 0.0
0.930549 0.016075 0.0
0.917953 0.006288 0.0
0.909567 -0.002256 0.0
0.905333 -0.009347 0.0
0.905046 -0.015278 0.0
0.908471 -0.020506 0.0
0.915515 -0.025487 0.0
0.926302 -0.030594 0.0
0.941153 -0.036012 0.0
0.960455 -0.041645 0.0
0.984449 -0.047072 0.0
1.013022 -0.051591 0.0
1.045567 -0.054320 0.0
1.080926 -0.054313 0.0
1.117403 -0.050716 0.0
1.152791 -0.042964 0.0
1.184378 -0.031053 0.0
1.209011 -0.015803 0.0
1.223701 0.001142 0.0
1.227060 0.017903 0.0
1.219518 0.033425 0.0
1.202360 0.046773 0.0
1.177414 0.056945 0.0
1.146961 0.062942 0.0
1.113572 0.063953 0.0
1.079866 0.059678 0.0
1.048221 0.050670 0.0
1.020484 0.038419 0.0
0.997721 0.025026 0.0
0.980109 0.012625 0.0
0.967267 0.002914 0.0
0.958677 -0.003191 0.0
0.953341 -0.005528 0.0
0.949559 -0.004217 0.0
0.945231 0.003984 0.0
1.001178 -0.005259 0.0
1.005827 -0.015960 0.0
1.015079 -0.026940 0.0
1.029034 -0.038156 0.0
1.047846 -0.049400 0.0
1.071599 -0.060222 0.0
1.100131 -0.069882 0.0
1.132827 -0.077384 0.0
1.168467 -0.081690 0.0
1.205174 -0.082025 0.0
1.240836 -0.078630 0.0
1.273800 -0.072569 0.0
1.303182 -0.065134 0.0
1.328801 -0.057445 0.0
1.350967 -0.050276 0.0
1.370257 -0.044003 0.0
1.387317 -0.038605 0.0
1.402665 -0.033681 0.0
1.416508 -0.028519 0.0
1.428589 -0.022247 0.0
1.438148 -0.014080 0.0
1.444061 -0.003614 0.0
1.445144 0.009014 0.0
1.440432 0.023187 0.0
1.429369 0.037998 0.0
1.411895 0.052456 0.0
1.388425 0.065661 0.0
1.359736 0.076913 0.0
1.326841 0.085733 0.0
1.290877 0.091847 0.0
1.253018 0.095130 0.0
1.214421 0.095564 0.0
1.176202 0.093188 0.0
1.139413 0.088076 0.0
1.105046 0.080317 0.0
1.074017 0.070009 0.0
1.047172 0.057254 0.0
1.025303 0.042155 0.0
1.009234 0.024820 0.0
0.999931 0.005380 0.0
0.998465 -0.015937 0.0
1.005719 -0.038428 0.0
1.022047 -0.060724 0.0
1.047136 -0.080997 0.0
1.080108 -0.097331 0.0
1.119680 -0.107888 0.0
1.164102 -0.110943 0.0
1.210883 -0.105101 0.0
1.256533 -0.089823 0.0
1.296680 -0.066097 0.0
1.326871 -0.036784 0.0
1.344003 -0.006079 0.0
1.347588 0.022293 0.0
1.339173 0.046866 0.0
1.320889 0.066982 0.0
1.294935 0.082384 0.0
1.263419 0.093122 0.0
1.228266 0.099435 0.0
1.191168 0.101642 0.0
1.153580 0.100070 0.0
1.116719 0.095022 0.0
1.081550 0.086818 0.0
1.048775 0.075897 0.0
1.018838 0.062907 0.0
0.991983 0.048739 0.0
0.968367 0.034405 0.0
0.948121 0.020801 0.0
0.931283 0.008455 0.0
0.917826 -0.002367 0.0
0.907668 -0.011814 0.0
0.900722 -0.020450 0.0
0.897141 -0.029006 0.0
0.897443 -0.038163 0.0
0.902431 -0.048282 0.0
0.912932 -0.059178 0.0
0.929472 -0.070072 0.0
0.952048 -0.079740 0.0
0.980074 -0.086742 0.0
1.012460 -0.089636 0.0
1.047728 -0.087139 0.0
1.084107 -0.078308 0.0
1.119576 -0.062765 0.0
1.151864 -0.041011 0.0
1.178375 -0.014850 0.0
1.196447 0.012464 0.0
1.204871 0.037982 0.0
1.204155 0.060091 0.0
1.195426 0.077302 0.0
1.180174 0.088289 0.0
1.160043 0.092126 0.0
1.136633 0.088622 0.0
1.111383 0.078622 0.0
1.085569 0.064018 0.0
1.060373 0.047386 0.0
1.036905 0.031344 0.0
1.016032 0.017909 0.0
0.998113 0.008323 0.0
0.983049 0.003358 0.0
0.970439 0.003289 0.0
0.960271 0.010973 0.0
1.001124 -0.007561 0.0
1.005634 -0.022815 0.0
1.014769 -0.038472 0.0
1.028831 -0.054639 0.0
1.048254 -0.071153 0.0
1.073479 -0.087448 0.0
1.104713 -0.102421 0.0
1.141553 -0.114382 0.0
1.182647 -0.121425 0.0
1.225181 -0.121531 0.0
1.265691 -0.115296 0.0
1.301794 -0.104970 0.0
1.332607 -0.092927 0.0
1.358330 -0.080994 0.0
1.379774 -0.070336 0.0
1.398031 -0.061491 0.0
1.414248 -0.054394 0.0
1.429398 -0.048390 0.0
1.444024 -0.042279 0.0
1.457967 -0.034512 0.0
1.470201 -0.023607 0.0
1.478972 -0.008771 0.0
1.482374 0.009685 0.0
1.478939 0.030663 0.0
1.467892 0.052633 0.0
1.449216 0.073971 0.0
1.423548 0.093284 0.0
1.391971 0.109557 0.0
1.355795 0.122161 0.0
1.316392 0.130785 0.0
1.275101 0.135343 0.0
1.233167 0.135882 0.0
1.191733 0.132524 0.0
1.151837 0.125423 0.0
1.114429 0.114745 0.0
1.080380 0.100659 0.0
1.050504 0.083325 0.0
1.025594 0.062862 0.0
1.006477 0.039300 0.0
0.994022 0.012658 0.0
0.988999 -0.016725 0.0
0.991770 -0.047665 0.0
1.002153 -0.078199 0.0
1.019665 -0.106123 0.0
1.043995 -0.129507 0.0
1.075208 -0.146497 0.0
1.113374 -0.154921 0.0
1.157828 -0.152358 0.0
1.206481 -0.136869 0.0
1.255432 -0.108148 0.0
1.299100 -0.068592 0.0
1.331312 -0.023616 0.0
1.347968 0.019590 0.0
1.349231 0.056722 0.0
1.337796 0.086846 0.0
1.316548 0.109722 0.0
1.288235 0.125613 0.0
1.255269 0.135062 0.0
1.219654 0.138727 0.0
1.182963 0.137264 0.0
1.146364 0.131288 0.0
1.110670 0.121414 0.0
1.076411 0.108334 0.0
1.043930 0.092888 0.0
1.013489 0.076054 0.0
0.985321 0.058874 0.0
0.959593 0.042307 0.0
0.936312 0.027068 0.0
0.915312 0.013478 0.0
0.896466 0.001346 0.0
0.879984 -0.010183 0.0
0.866654 -0.022363 0.0
0.857802 -0.036255 0.0
0.854891 -0.052266 0.0
0.859026 -0.069831 0.0
0.870594 -0.087528 0.0
0.889229 -0.103495 0.0
0.914021 -0.115805 0.0
0.943749 -0.122688 0.0
0.977051 -0.122656 0.0
1.012488 -0.114607 0.0
1.048561 -0.098009 0.0
1.083672 -0.073166 0.0
1.116023 -0.041557 0.0
1.143354 -0.006232 0.0
1.163402 0.028206 0.0
1.175306 0.058680 0.0
1.179474 0.083275 0.0
1.176624 0.100419 0.0
1.167626 0.109125 0.0
1.153396 0.109264 0.0
1.134875 0.101751 0.0
1.113100 0.088477 0.0
1.089265 0.071959 0.0
1.064670 0.054834 0.0
1.040552 0.039411 0.0
1.017889 0.027404 0.0
0.997360 0.019871 0.0
0.979489 0.017258 0.0
0.965533 0.021129 0.0
1.001050 -0.009736 0.0
1.005297 -0.029396 0.0
1.014035 -0.049765 0.0
1.027822 -0.071195 0.0
1.047504 -0.093704 0.0
1.074118 -0.116736 0.0
1.108605 -0.138853 0.0
1.151161 -0.157348 0.0
1.200708 -0.169101 0.0
1.252434 -0.168115 0.0
1.299680 -0.156468 0.0
1.339005 -0.139226 0.0
1.370057 -0.120536 0.0
1.393982 -0.103034 0.0
1.412468 -0.088225 0.0
1.427369 -0.076761 0.0
1.440555 -0.068527 0.0
1.453729 -0.062581 0.0
1.468110 -0.057095 0.0
1.483961 -0.049491 0.0
1.500120 -0.037023 0.0
1.513885 -0.017891 0.0
1.521846 0.007442 0.0
1.521397 0.036791 0.0
1.511359 0.067590 0.0
1.491787 0.097262 0.0
1.463685 0.123762 0.0
1.428596 0.145744 0.0
1.388255 0.162491 0.0
1.344367 0.173746 0.0
1.298496 0.179545 0.0
1.252033 0.180077 0.0
1.206198 0.175597 0.0
1.162072 0.166370 0.0
1.120627 0.152651 0.0
1.082751 0.134678 0.0
1.049256 0.112677 0.0
1.020847 0.086829 0.0
0.998035 0.057263 0.0
0.981001 0.024185 0.0
0.969488 -0.011716 0.0
0.962928 -0.048886 0.0
0.960735 -0.085169 0.0
0.962906 -0.118836 0.0
0.970699 -0.148917 0.0
0.986412 -0.174014 0.0
1.012186 -0.191345 0.0
1.048834 -0.197036 0.0
1.095306 -0.187316 0.0
1.148615 -0.159961 0.0
1.203834 -0.115666 0.0
1.254167 -0.059088 0.0
1.291757 0.000817 0.0
1.312126 0.053862 0.0
1.316280 0.096988 0.0
1.307259 0.129849 0.0
1.288149 0.152910 0.0
1.261799 0.167080 0.0
1.230668 0.173457 0.0
1.196737 0.173157 0.0
1.161498 0.167233 0.0
1.125993 0.156668 0.0
1.090907 0.142426 0.0
1.056684 0.125501 0.0
1.023615 0.106951 0.0
0.991864 0.087898 0.0
0.961416 0.069458 0.0
0.932098 0.052516 0.0
0.903778 0.037350 0.0
0.876769 0.023329 0.0
0.852129 0.008957 0.0
0.831547 -0.007591 0.0
0.816964 -0.027592 0.0
0.809984 -0.051039 0.0
0.811297 -0.076506 0.0
0.820604 -0.101726 0.0
0.836967 -0.124294 0.0
0.859208 -0.142039 0.0
0.886149 -0.153124 0.0
0.916678 -0.156050 0.0
0.949733 -0.149705 0.0
0.984262 -0.133513 0.0
1.019156 -0.107669 0.0
1.053174 -0.073425 0.0
1.084814 -0.033336 0.0
1.111865 0.008210 0.0
1.132424 0.046212 0.0
1.145952 0.078047 0.0
1.152540 0.101910 0.0
1.152477 0.116695 0.0
1.146199 0.122202 0.0
1.134307 0.119226 0.0
1.117616 0.109467 0.0
1.097180 0.095240 0.0
1.074235 0.079093 0.0
1.050078 0.063428 0.0
1.025961 0.050167 0.0
1.003079 0.040520 0.0
0.982643 0.034914 0.0
0.966622 0.033451 0.0
1.000909 -0.011695 0.0
1.004613 -0.035388 0.0
1.012377 -0.060276 0.0
1.025032 -0.087124 0.0
1.043945 -0.116370 0.0
1.071035 -0.147774 0.0
1.108568 -0.179834 0.0
1.158187 -0.208540 0.0
1.220821 -0.230090 0.0
1.286639 -0.224669 0.0
1.341166 -0.201688 0.0
1.380780 -0.172943 0.0
1.407685 -0.144775 0.0
1.425082 -0.120119 0.0
1.435883 -0.100427 0.0
1.442759 -0.086335 0.0
1.448344 -0.077723 0.0
1.455266 -0.073481 0.0
1.465873 -0.071183 0.0
1.481547 -0.066926 0.0
1.501755 -0.055954 0.0
1.523192 -0.034161 0.0
1.539881 -0.000939 0.0
1.546390 0.039113 0.0
1.540485 0.081211 0.0
1.522401 0.121297 0.0
1.493733 0.156497 0.0
1.456661 0.185170 0.0
1.413429 0.206637 0.0
1.366088 0.220829 0.0
1.316417 0.228004 0.0
1.265938 0.228561 0.0
1.215958 0.222928 0.0
1.167627 0.211497 0.0
1.121982 0.194614 0.0
1.079980 0.172594 0.0
1.042457 0.145779 0.0
1.009965 0.114628 0.0
0.982418 0.079821 0.0
0.958736 0.042343 0.0
0.936902 0.003473 0.0
0.915050 -0.035661 0.0
0.893113 -0.074264 0.0
0.873663 -0.112461 0.0
0.861503 -0.150925 0.0
0.861608 -0.187824 0.0
0.876684 -0.218385 0.0
0.906689 -0.236648 0.0
0.949753 -0.237240 0.0
1.003003 -0.216597 0.0
1.062723 -0.173970 0.0
1.124010 -0.112405 0.0
1.180159 -0.039606 0.0
1.222790 0.031285 0.0
1.247947 0.090253 0.0
1.257446 0.136105 0.0
1.253950 0.169260 0.0
1.240197 0.190833 0.0
1.218752 0.202280 0.0
1.191857 0.205160 0.0
1.161346 0.200980 0.0
1.128632 0.191140 0.0
1.094736 0.176935 0.0
1.060356 0.159595 0.0
1.025901 0.140380 0.0
0.991490 0.120631 0.0
0.956986 0.101677 0.0
0.922207 0.084394 0.0
0.887403 0.068596 0.0
0.853752 0.052742 0.0
0.823468 0.034467 0.0
0.799188 0.011759 0.0
0.782887 -0.016057 0.0
0.775298 -0.048004 0.0
0.776095 -0.081652 0.0
0.784297 -0.114089 0.0
0.798703 -0.142700 0.0
0.818192 -0.165364 0.0
0.841817 -0.180366 0.0
0.868791 -0.186310 0.0
0.898418 -0.182127 0.0
0.930017 -0.167219 0.0
0.962851 -0.141691 0.0
0.996048 -0.106617 0.0
1.028515 -0.064250 0.0
1.058752 -0.018164 0.0
1.084578 0.026200 0.0
1.104412 0.064697 0.0
1.117833 0.095250 0.0
1.124691 0.116560 0.0
1.125060 0.128245 0.0
1.119254 0.130881 0.0
1.107853 0.125904 0.0
1.091711 0.115381 0.0
1.071906 0.101700 0.0
1.049683 0.087201 0.0
1.026396 0.073798 0.0
1.003513 0.062655 0.0
0.982622 0.054104 0.0
0.965989 0.046915 0.0
1.000663 -0.013267 0.0
1.003389 -0.040246 0.0
1.009259 -0.069052 0.0
1.019308 -0.101051 0.0
1.035406 -0.137455 0.0
1.060562 -0.178934 0.0
1.099147 -0.224793 0.0
1.155916 -0.269969 0.0
1.239011 -0.314392 0.0
1.324561 -0.291735 0.0
1.380448 -0.245037 0.0
1.410047 -0.198806 0.0
1.423061 -0.158831 0.0
1.425720 -0.126119 0.0
1.421704 -0.101211 0.0
1.413816 -0.084539 0.0
1.404896 -0.076183 0.0
1.398250 -0.075296 0.0
1.397633 -0.079359 0.0
1.406434 -0.083226 0.0
1.426347 -0.079776 0.0
1.455692 -0.061121 0.0
1.487074 -0.022051 0.0
1.508965 0.031825 0.0
1.514733 0.088635 0.0
1.504843 0.141847 0.0
1.481813 0.187645 0.0
1.448609 0.224299 0.0
1.407938 0.251411 0.0
1.362066 0.269268 0.0
1.312860 0.278441 0.0
1.261891 0.279572 0.0
1.210522 0.273265 0.0
1.159984 0.260030 0.0
1.111423 0.240286 0.0
1.065931 0.214416 0.0
1.024443 0.182967 0.0
0.987343 0.147032 0.0
0.953714 0.108593 0.0
0.920744 0.070224 0.0
0.884381 0.033789 0.0
0.841811 -0.001555 0.0
0.795806 -0.040428 0.0
0.756070 -0.087112 0.0
0.732636 -0.140680 0.0
0.729184 -0.194721 0.0
0.743801 -0.241180 0.0
0.772950 -0.273008 0.0
0.813725 -0.284719 0.0
0.863954 -0.272594 0.0
0.921539 -0.235278 0.0
0.983796 -0.174641 0.0
1.046813 -0.096536 0.0
1.104161 -0.011763 0.0
1.148340 0.063966 0.0
1.176598 0.124635 0.0
1.190560 0.170264 0.0
1.192264 0.201879 0.0
1.183877 0.221066 0.0
1.167499 0.229647 0.0
1.145026 0.229476 0.0
1.118066 0.222318 0.0
1.087901 0.209817 0.0
1.055462 0.193532 0.0
1.021304 0.175055 0.0
0.985617 0.156053 0.0
0.948386 0.137991 0.0
0.909826 0.121418 0.0
0.870968 0.105234 0.0
0.833971 0.086753 0.0
0.801730 0.062983 0.0
0.776895 0.032357 0.0
0.760926 -0.004386 0.0
0.753754 -0.044913 0.0
0.754321 -0.086107 0.0
0.761331 -0.124846 0.0
0.773593 -0.158611 0.0
0.790132 -0.185482 0.0
0.810209 -0.203950 0.0
0.833278 -0.212769 0.0
0.858927 -0.210943 0.0
0.886782 -0.197857 0.0
0.916415 -0.173519 0.0
0.947254 -0.138825 0.0
0.978509 -0.095764 0.0
1.009092 -0.047470 0.0
1.037238 0.001535 0.0
1.060939 0.045828 0.0
1.079032 0.082605 0.0
1.091047 0.110332 0.0
1.096768 0.128382 0.0
1.096258 0.137060 0.0
1.089868 0.137515 0.0
1.078234 0.131546 0.0
1.062260 0.121315 0.0
1.043081 0.108988 0.0
1.022053 0.096325 0.0
1.000739 0.084325 0.0
0.980870 0.073194 0.0
0.964724 0.060605 0.0
1.000286 -0.014216 0.0
1.001488 -0.043224 0.0
1.004257 -0.074714 0.0
1.009607 -0.110788 0.0
1.019595 -0.153806 0.0
1.038094 -0.206238 0.0
1.072066 -0.270046 0.0
1.132034 -0.341452 0.0
1.244983 -0.438954 0.0
1.350300 -0.358038 0.0
1.384069 -0.268390 0.0
1.381679 -0.202663 0.0
1.366494 -0.152803 0.0
1.345363 -0.113676 0.0
1.320080 -0.084355 0.0
1.291702 -0.065130 0.0
1.261732 -0.056702 0.0
1.232901 -0.059301 0.0
1.210048 -0.071885 0.0
1.199467 -0.088919 0.0
1.207297 -0.101826 0.0
1.237125 -0.098244 0.0
1.285520 -0.064704 0.0
1.336301 0.001807 0.0
1.370655 0.078532 0.0
1.384013 0.148483 0.0
1.380703 0.207348 0.0
1.364581 0.253922 0.0
1.338585 0.288456 0.0
1.304938 0.311743 0.0
1.265431 0.324680 0.0
1.221625 0.328109 0.0
1.174962 0.322760 0.0
1.126808 0.309227 0.0
1.078491 0.287966 0.0
1.031327 0.259392 0.0
0.986426 0.224382 0.0
0.943629 0.185513 0.0
0.899523 0.147846 0.0
0.847440 0.116024 0.0
0.783605 0.088186 0.0
0.715388 0.054835 0.0
0.658704 0.005872 0.0
0.625758 -0.060730 0.0
0.617450 -0.135320 0.0
0.627021 -0.206201 0.0
0.647966 -0.265262 0.0
0.677023 -0.307132 0.0
0.713281 -0.327627 0.0
0.756737 -0.323372 0.0
0.807220 -0.292568 0.0
0.863770 -0.236157 0.0
0.924350 -0.158618 0.0
0.985510 -0.068190 0.0
1.040383 0.021343 0.0
1.082800 0.096584 0.0
1.111637 0.155516 0.0
1.127821 0.198738 0.0
1.132741 0.227674 0.0
1.127995 0.244164 0.0
1.115215 0.250212 0.0
1.095931 0.247825 0.0
1.071466 0.238941 0.0
1.042841 0.225473 0.0
1.010717 0.209395 0.0
0.975456 0.192661 0.0
0.937414 0.176655 0.0
0.897490 0.161239 0.0
0.857580 0.144179 0.0
0.820503 0.121882 0.0
0.789203 0.091395 0.0
0.765755 0.052228 0.0
0.750867 0.006599 0.0
0.744031 -0.041892 0.0
0.744084 -0.089747 0.0
0.749768 -0.133900 0.0
0.759972 -0.172023 0.0
0.773792 -0.202429 0.0
0.790558 -0.223845 0.0
0.809841 -0.235227 0.0
0.831414 -0.235707 0.0
0.855152 -0.224686 0.0
0.880906 -0.202076 0.0
0.908382 -0.168582 0.0
0.937046 -0.125926 0.0
0.966072 -0.076917 0.0
0.994261 -0.025354 0.0
1.019689 0.023587 0.0
1.040623 0.065820 0.0
1.056237 0.099489 0.0
1.066065 0.123677 0.0
1.069942 0.138398 0.0
1.068007 0.144503 0.0
1.060693 0.143505 0.0
1.048724 0.137299 0.0
1.033107 0.127800 0.0
1.015127 0.116522 0.0
0.996324 0.104246 0.0
0.978410 0.091056 0.0
0.963510 0.073789 0.0
0.999785 -0.014288 0.0
0.998928 -0.043496 0.0
0.997361 -0.075644 0.0
0.995651 -0.113497 0.0
0.995253 -0.160688 0.0
0.999642 -0.222244 0.0
1.016965 -0.305334 0.0
1.065072 -0.414238 0.0
1.206817 -0.620863 0.0
1.306925 -0.381553 0.0
1.265116 -0.236836 0.0
1.201045 -0.167756 0.0
1.147756 -0.119235 0.0
1.100868 -0.079224 0.0
1.055288 -0.047944 0.0
1.008368 -0.026244 0.0
0.957531 -0.014780 0.0
0.901857 -0.016719 0.0
0.846759 -0.036516 0.0
0.806503 -0.073451 0.0
0.798322 -0.116944 0.0
0.830387 -0.145020 0.0
0.897492 -0.133428 0.0
0.985896 -0.068654 0.0
1.069334 0.031200 0.0
1.127804 0.123987 0.0
1.163311 0.199646 0.0
1.181678 0.259380 0.0
1.185989 0.304682 0.0
1.178236 0.336916 0.0
1.160071 0.357180 0.0
1.133098 0.366388 0.0
1.098919 0.365322 0.0
1.059090 0.354648 0.0
1.014996 0.334957 0.0
0.967412 0.307149 0.0
0.915259 0.273679 0.0
0.854336 0.239935 0.0
0.779901 0.211965 0.0
0.694954 0.188936 0.0
0.615088 0.158974 0.0
0.559486 0.107866 0.0
0.536421 0.032590 0.0
0.539023 -0.057104 0.0
0.554757 -0.146371 0.0
0.575609 -0.225573 0.0
0.598781 -0.290007 0.0
0.624077 -0.336741 0.0
0.652663 -0.362863 0.0
0.686283 -0.365214 0.0
0.726405 -0.341331 0.0
0.773477 -0.291016 0.0
0.826633 -0.217495 0.0
0.883711 -0.127551 0.0
0.940805 -0.031262 0.0
0.991225 0.056351 0.0
1.030356 0.127781 0.0
1.057832 0.182811 0.0
1.074101 0.222412 0.0
1.080075 0.248198 0.0
1.076915 0.262119 0.0
1.065853 0.266264 0.0
1.048048 0.262773 0.0
1.024455 0.253859 0.0
0.995780 0.241808 0.0
0.962609 0.228682 0.0
0.925795 0.215490 0.0
0.886943 0.201181 0.0
0.848590 0.182501 0.0
0.813742 0.155486 0.0
0.784962 0.117870 0.0
0.763654 0.070509 0.0
0.750014 0.016847 0.0
0.743457 -0.038747 0.0
0.743024 -0.092512 0.0
0.747634 -0.141429 0.0
0.756241 -0.183305 0.0
0.767918 -0.216644 0.0
0.781951 -0.240428 0.0
0.797910 -0.253886 0.0
0.815653 -0.256365 0.0
0.835246 -0.247358 0.0
0.856800 -0.226712 0.0
0.880310 -0.194931 0.0
0.905519 -0.153451 0.0
0.931848 -0.104747 0.0
0.958368 -0.052232 0.0
0.983601 -0.000196 0.0
1.005753 0.046517 0.0
1.023532 0.085398 0.0
1.036255 0.115218 0.0
1.043554 0.135682 0.0
1.045367 0.147340 0.0
1.041943 0.151406 0.0
1.033832 0.149478 0.0
1.021901 0.143169 0.0
1.007321 0.133712 0.0
0.991523 0.121656 0.0
0.976100 0.106983 0.0
0.962936 0.085927 0.0
0.999215 -0.013288 0.0
0.995995 -0.040419 0.0
0.989316 -0.070476 0.0
0.978818 -0.106458 0.0
0.964198 -0.152710 0.0
0.945854 -0.216267 0.0
0.927140 -0.309919 0.0
0.922780 -0.453400 0.0
1.018039 -0.818707 0.0
1.022217 -0.187349 0.0
0.844814 -0.100941 0.0
0.709462 -0.093986 0.0
0.636285 -0.066538 0.0
0.578347 -0.027095 0.0
0.508254 0.015601 0.0
0.423690 0.041695 0.0
0.343570 0.048238 0.0
0.285961 0.033545 0.0
0.261206 -0.006927 0.0
0.272608 -0.074185 0.0
0.317490 -0.152910 0.0
0.390337 -0.213966 0.0
0.484970 -0.226221 0.0
0.594005 -0.173300 0.0
0.709520 -0.063108 0.0
0.810997 0.058348 0.0
0.885970 0.154803 0.0
0.941069 0.230758 0.0
0.979526 0.290536 0.0
1.002351 0.335990 0.0
1.010495 0.368126 0.0
1.005210 0.387700 0.0
0.987952 0.395448 0.0
0.960132 0.392171 0.0
0.922637 0.379021 0.0
0.874878 0.358429 0.0
0.814153 0.335277 0.0
0.738320 0.315092 0.0
0.652759 0.296805 0.0
0.573814 0.267989 0.0
0.519994 0.213607 0.0
0.498465 0.130364 0.0
0.502712 0.028910 0.0
0.521006 -0.074321 0.0
0.544259 -0.168141 0.0
0.567777 -0.248173 0.0
0.589682 -0.312485 0.0
0.609937 -0.359813 0.0
0.630006 -0.388445 0.0
0.652487 -0.395733 0.0
0.680255 -0.378702 0.0
0.715323 -0.335785 0.0
0.758057 -0.268616 0.0
0.807156 -0.182608 0.0
0.860005 -0.086148 0.0
0.911585 0.009237 0.0
0.956151 0.091198 0.0
0.990967 0.157102 0.0
1.015587 0.207233 0.0
1.030206 0.242783 0.0
1.035424 0.265475 0.0
1.032056 0.277338 0.0
1.020958 0.280602 0.0
1.002913 0.277668 0.0
0.978619 0.270968 0.0
0.948895 0.262416 0.0
0.915067 0.252397 0.0
0.879275 0.238918 0.0
0.844338 0.218055 0.0
0.813077 0.186041 0.0
0.787519 0.141652 0.0
0.768570 0.086984 0.0
0.756257 0.026326 0.0
0.750144 -0.035556 0.0
0.749537 -0.094662 0.0
0.753539 -0.147891 0.0
0.761145 -0.193055 0.0
0.771360 -0.228786 0.0
0.783360 -0.254318 0.0
0.796622 -0.269217 0.0
0.810997 -0.273152 0.0
0.826656 -0.265823 0.0
0.843940 -0.247086 0.0
0.863135 -0.217264 0.0
0.884289 -0.177480 0.0
0.907088 -0.129845 0.0
0.930839 -0.077405 0.0
0.954475 -0.023893 0.0
0.976383 0.026153 0.0
0.995031 0.069334 0.0
1.009512 0.104077 0.0
1.019269 0.129768 0.0
1.024062 0.146647 0.0
1.023969 0.155618 0.0
1.019382 0.157963 0.0
1.011019 0.154977 0.0
0.999904 0.147600 0.0
0.987310 0.136160 0.0
0.974649 0.120562 0.0
0.963525 0.096634 0.0
0.998682 -0.011185 0.0
0.993247 -0.033866 0.0
0.981714 -0.058817 0.0
0.962622 -0.088526 0.0
0.933256 -0.126656 0.0
0.888626 -0.179348 0.0
0.818881 -0.258379 0.0
0.705799 -0.387498 0.0
0.317760 -0.692474 0.0
-0.466891 0.237473 0.0
-0.466891 0.000000 0.0
-0.035003 -0.024666 0.0
-0.074582 -0.033437 0.0
-0.068396 -0.008444 0.0
-0.035713 0.034359 0.0
-0.005390 0.077177 0.0
-0.001359 0.088845 0.0
-0.012151 0.061339 0.0
-0.020118 -0.001999 0.0
-0.013497 -0.097136 0.0
0.015089 -0.203428 0.0
0.069318 -0.290525 0.0
0.150582 -0.325557 0.0
0.255061 -0.287476 0.0
0.373893 -0.183279 0.0
0.497640 -0.046704 0.0
0.607183 0.075339 0.0
0.692941 0.169366 0.0
0.760452 0.245960 0.0
0.810305 0.307888 0.0
0.842644 0.355745 0.0
0.858108 0.389902 0.0
0.857628 0.410986 0.0
0.841949 0.420132 0.0
0.810950 0.419554 0.0
0.763342 0.413264 0.0
0.698737 0.405772 0.0
0.622956 0.396211 0.0
0.551165 0.373037 0.0
0.501202 0.320666 0.0
0.481498 0.234455 0.0
0.487592 0.124950 0.0
0.509229 0.008441 0.0
0.537107 -0.100024 0.0
0.565306 -0.193890 0.0
0.590766 -0.271402 0.0
0.611868 -0.332264 0.0
0.628253 -0.376672 0.0
0.641022 -0.404425 0.0
0.652868 -0.414079 0.0
0.667598 -0.402856 0.0
0.688887 -0.367988 0.0
0.718804 -0.309063 0.0
0.757150 -0.229605 0.0
0.801835 -0.136686 0.0
0.849460 -0.039430 0.0
0.894623 0.050135 0.0
0.932836 0.125136 0.0
0.962583 0.184832 0.0
0.983336 0.229812 0.0
0.995123 0.261440 0.0
0.998289 0.281574 0.0
0.993333 0.292420 0.0
0.980809 0.296420 0.0
0.961387 0.295933 0.0
0.936088 0.292475 0.0
0.906589 0.285665 0.0
0.875311 0.272721 0.0
0.845021 0.249478 0.0
0.818130 0.212771 0.0
0.796153 0.162457 0.0
0.779715 0.101565 0.0
0.768894 0.034879 0.0
0.763498 -0.032601 0.0
0.763086 -0.096598 0.0
0.766909 -0.153782 0.0
0.773992 -0.201853 0.0
0.783283 -0.239494 0.0
0.793837 -0.266164 0.0
0.804997 -0.281794 0.0
0.816519 -0.286472 0.0
0.828589 -0.280233 0.0
0.841703 -0.263072 0.0
0.856425 -0.235195 0.0
0.873130 -0.197407 0.0
0.891821 -0.151409 0.0
0.912071 -0.099842 0.0
0.933054 -0.046075 0.0
0.953488 0.005993 0.0
0.971883 0.052451 0.0
0.987091 0.091272 0.0
0.998397 0.121512 0.0
1.005407 0.143099 0.0
1.008047 0.156620 0.0
1.006561 0.163034 0.0
1.001514 0.163316 0.0
0.993763 0.158127 0.0
0.984391 0.147599 0.0
0.974597 0.131578 0.0
0.965693 0.105646 0.0
0.998306 -0.008173 0.0
0.991324 -0.024460 0.0
0.976453 -0.041820 0.0
0.951591 -0.061568 0.0
0.912684 -0.085341 0.0
0.851881 -0.115229 0.0
0.752703 -0.153575 0.0
0.576371 -0.202888 0.0
0.231021 -0.240511 0.0
0.000000 0.237473 0.0
-0.000000 -0.000000 0.0
0.000000 0.000000 0.0
-0.014451 -0.014430 0.0
-0.040766 -0.007341 0.0
-0.063413 0.023221 0.0
-0.091295 0.085874 0.0
-0.129504 0.114325 0.0
-0.169511 0.086658 0.0
-0.198539 0.009678 0.0
-0.206542 -0.107430 0.0
-0.191525 -0.236735 0.0
-0.157006 -0.345967 0.0
-0.101134 -0.407250 0.0
-0.013586 -0.397810 0.0
0.101820 -0.307183 0.0
0.229296 -0.174022 0.0
0.357817 -0.035407 0.0
0.470016 0.082154 0.0
0.558580 0.177096 0.0
0.628163 0.257315 0.0
0.678812 0.323328 0.0
0.710544 0.375122 0.0
0.723482 0.413308 0.0
0.717457 0.439513 0.0
0.691943 0.456686 0.0
0.647538 0.468144 0.0
0.589721 0.473315 0.0
0.531658 0.462513 0.0
0.489972 0.420213 0.0
0.474571 0.338854 0.0
0.483719 0.226824 0.0
0.509187 0.101018 0.0
0.542451 -0.022529 0.0
0.576984 -0.131465 0.0
0.608896 -0.222560 0.0
0.636011 -0.295307 0.0
0.656907 -0.350356 0.0
0.670944 -0.389001 0.0
0.678591 -0.412512 0.0
0.681897 -0.421143 0.0
0.684666 -0.413292 0.0
0.691690 -0.385864 0.0
0.707006 -0.336421 0.0
0.732252 -0.265839 0.0
0.766345 -0.179230 0.0
0.806398 -0.084563 0.0
0.847968 0.008534 0.0
0.886205 0.090288 0.0
0.918145 0.157992 0.0
0.942588 0.211456 0.0
0.959018 0.251581 0.0
0.967323 0.279962 0.0
0.967640 0.298672 0.0
0.960300 0.310031 0.0
0.945942 0.316102 0.0
0.925733 0.317814 0.0
0.901543 0.314013 0.0
0.875807 0.301386 0.0
0.850998 0.275912 0.0
0.829016 0.235211 0.0
0.810952 0.180057 0.0
0.797300 0.114055 0.0
0.788276 0.042235 0.0
0.783932 -0.030217 0.0
0.784024 -0.098662 0.0
0.787920 -0.159437 0.0
0.794696 -0.210055 0.0
0.803293 -0.249179 0.0
0.812695 -0.276436 0.0
0.822120 -0.292107 0.0
0.831188 -0.296748 0.0
0.840011 -0.290851 0.0
0.849140 -0.274698 0.0
0.859352 -0.248504 0.0
0.871350 -0.212801 0.0
0.885491 -0.168847 0.0
0.901656 -0.118817 0.0
0.919257 -0.065684 0.0
0.937313 -0.012888 0.0
0.954484 0.035765 0.0
0.969513 0.077721 0.0
0.981553 0.111716 0.0
0.990078 0.137359 0.0
0.994875 0.154923 0.0
0.996049 0.165044 0.0
0.994009 0.168393 0.0
0.989437 0.165374 0.0
0.983207 0.155954 0.0
0.976290 0.139933 0.0
0.969705 0.112779 0.0
0.998164 -0.004643 0.0
0.990622 -0.013466 0.0
0.974671 -0.021992 0.0
0.948350 -0.030212 0.0
0.908162 -0.037601 0.0
0.848358 -0.042362 0.0
0.760443 -0.039350 0.0
0.633544 -0.013883 0.0
0.476723 0.076484 0.0
0.197288 0.178350 0.0
0.000000 0.000000 0.0
-0.000000 -0.000000 0.0
0.000000 0.000000 0.0
0.000911 0.002262 0.0
-0.026250 0.062075 0.0
-0.094502 0.143153 0.0
-0.169668 0.170421 0.0
-0.229488 0.130390 0.0
-0.264882 0.030369 0.0
-0.271455 -0.113547 0.0
-0.256338 -0.260752 0.0
-0.231127 -0.381681 0.0
-0.199088 -0.459446 0.0
-0.152919 -0.479331 0.0
-0.072700 -0.421288 0.0
0.039425 -0.299519 0.0
0.162731 -0.161737 0.0
0.284325 -0.025308 0.0
0.388378 0.091941 0.0
0.469995 0.191270 0.0
0.532182 0.276536 0.0
0.574613 0.347752 0.0
0.596755 0.405599 0.0
0.598236 0.451765 0.0
0.579958 0.488227 0.0
0.546564 0.514401 0.0
0.508688 0.522751 0.0
0.480772 0.499056 0.0
0.473413 0.432715 0.0
0.487641 0.327524 0.0
0.517559 0.199088 0.0
0.556425 0.064420 0.0
0.597848 -0.060618 0.0
0.636835 -0.166895 0.0
0.670894 -0.253101 0.0
0.698459 -0.319448 0.0
0.718520 -0.367173 0.0
0.730548 -0.398250 0.0
0.734626 -0.414989 0.0
0.731909 -0.419256 0.0
0.725264 -0.411303 0.0
0.719397 -0.389009 0.0
0.719694 -0.348889 0.0
0.730057 -0.288980 0.0
0.751297 -0.211423 0.0
0.781314 -0.122439 0.0
0.816395 -0.030240 0.0
0.851750 0.055472 0.0
0.883410 0.129208 0.0
0.909430 0.189777 0.0
0.928755 0.237505 0.0
0.940850 0.273637 0.0
0.945530 0.300001 0.0
0.942945 0.318626 0.0
0.933707 0.331102 0.0
0.919063 0.337668 0.0
0.900906 0.336506 0.0
0.881470 0.324065 0.0
0.862775 0.296737 0.0
0.846207 0.252937 0.0
0.832511 0.194091 0.0
0.822106 0.124079 0.0