# vtk DataFile Version 3.0
Scalar Field
ASCII
DATASET RECTILINEAR_GRID
DIMENSIONS 100 26 1
X_COORDINATES 100 double
0.050000 0.150000 0.250000 0.350000 0.450000 0.550000 0.650000 0.750000 0.850000 0.950000 1.050000 1.150000 1.250000 1.350000 1.450000 1.550000 1.650000 1.750000 1.850000 1.950000 2.050000 2.150000 2.250000 2.350000 2.450000 2.550000 2.650000 2.750000 2.850000 2.950000 3.050000 3.150000 3.250000 3.350000 3.450000 3.550000 3.650000 3.750000 3.850000 3.950000 4.050000 4.150000 4.250000 4.350000 4.450000 4.550000 4.650000 4.750000 4.850000 4.950000 5.050000 5.150000 5.250000 5.350000 5.450000 5.550000 5.650000 5.750000 5.850000 5.950000 6.050000 6.150000 6.250000 6.350000 6.450000 6.550000 6.650000 6.750000 6.850000 6.950000 7.050000 7.150000 7.250000 7.350000 7.450000 7.550000 7.650000 7.750000 7.850000 7.950000 8.050000 8.150000 8.250000 8.350000 8.450000 8.550000 8.650000 8.750000 8.850000 8.950000 9.050000 9.150000 9.250000 9.350000 9.450000 9.550000 9.650000 9.750000 9.850000 9.950000 
Y_COORDINATES 26 double
0.050000 0.150000 0.250000 0.350000 0.450000 0.550000 0.650000 0.750000 0.850000 0.950000 1.050000 1.150000 1.250000 1.350000 1.450000 1.550000 1.650000 1.750000 1.850000 1.950000 2.050000 2.150000 2.250000 2.350000 2.450000 2.550000 
Z_COORDINATES 1 double
0.0
POINT_DATA 2600
SCALARS Skalarfeld double 1
LOOKUP_TABLE default
0.161566
0.157609
0.149213
0.135985
0.117716
0.094351
0.066077
0.033451
-0.002482
-0.040159
-0.077618
-0.112805
-0.143920
-0.169646
-0.189243
-0.202526
-0.209779
-0.211649
-0.209035
-0.202991
-0.194673
-0.185197
-0.175607
-0.166772
-0.159277
-0.153318
-0.148643
-0.144610
-0.140341
-0.134814
-0.127376
-0.117745
-0.106011
-0.092574
-0.078022
-0.063017
-0.048192
-0.034080
-0.021070
-0.009390
0.000893
0.009859
0.017705
0.024715
0.031213
0.037496
0.043767
0.050332
0.056914
0.063050
0.068108
0.071355
0.072089
0.069807
0.064417
0.056414
0.046907
0.037409
0.029391
0.023981
0.021721
0.022240
0.024829
0.028608
0.032705
0.036404
0.039235
0.041012
0.041821
0.041955
0.041813
0.041772
0.042063
0.042702
0.043704
0.044922
0.046194
0.047508
0.048933
0.050557
0.052418
0.054447
0.056438
0.058035
0.058771
0.058139
0.055691
0.051145
0.044492
0.036041
0.026403
0.016345
0.006545
-0.002673
-0.011444
-0.020552
-0.031160
-0.044772
-0.063208
-0.100021
0.165060
0.161961
0.153783
0.140487
0.121902
0.097922
0.068664
0.034652
-0.003016
-0.042599
-0.081843
-0.118433
-0.150436
-0.176524
-0.196021
-0.208829
-0.215319
-0.216212
-0.212478
-0.205256
-0.195761
-0.185225
-0.174797
-0.165459
-0.157877
-0.152266
-0.148298
-0.145157
-0.141761
-0.136987
-0.130028
-0.120586
-0.108798
-0.095132
-0.080250
-0.064871
-0.049671
-0.035209
-0.021888
-0.009940
0.000569
0.009720
0.017716
0.024847
0.031450
0.037863
0.044344
0.050775
0.057030
0.062720
0.067275
0.070033
0.070348
0.067741
0.062091
0.053816
0.043955
0.034032
0.025728
0.020272
0.018024
0.018685
0.021534
0.025645
0.030105
0.034171
0.037358
0.039478
0.040623
0.041090
0.041275
0.041536
0.042090
0.042997
0.044039
0.045077
0.046104
0.047152
0.048312
0.049684
0.051310
0.053128
0.054929
0.056359
0.056962
0.056246
0.053785
0.049312
0.042812
0.034566
0.025129
0.015227
0.005586
-0.003281
-0.011562
-0.019968
-0.029523
-0.041497
-0.057204
-0.085975
0.174182
0.171293
0.163205
0.149748
0.130613
0.105500
0.074320
0.037469
-0.003881
-0.047611
-0.090730
-0.130298
-0.164113
-0.190874
-0.210075
-0.221822
-0.226679
-0.225526
-0.219454
-0.209754
-0.197823
-0.185064
-0.172858
-0.162440
-0.154689
-0.149885
-0.147548
-0.146499
-0.145200
-0.142132
-0.136226
-0.127195
-0.115291
-0.101138
-0.085545
-0.069353
-0.053318
-0.038046
-0.023966
-0.011319
-0.000175
0.009545
0.018038
0.025580
0.032479
0.039031
0.045467
0.051737
0.057618
0.062742
0.066595
0.068595
0.068173
0.064870
0.058518
0.049443
0.038604
0.027552
0.018135
0.012002
0.009685
0.010589
0.013963
0.018813
0.024152
0.029180
0.033377
0.036528
0.038694
0.040124
0.041142
0.042024
0.042921
0.043847
0.044712
0.045438
0.046058
0.046668
0.047370
0.048294
0.049501
0.050948
0.052437
0.053621
0.054052
0.053257
0.050825
0.046501
0.040261
0.032354
0.023284
0.013728
0.004389
-0.004233
-0.011849
-0.018975
-0.026544
-0.035445
-0.046445
-0.064721
0.188531
0.185725
0.177714
0.164117
0.144339
0.117692
0.083651
0.042269
-0.005257
-0.056199
-0.105901
-0.150220
-0.186648
-0.214120
-0.232522
-0.242338
-0.244443
-0.239951
-0.230106
-0.216456
-0.200597
-0.184212
-0.169055
-0.156832
-0.148861
-0.145599
-0.146292
-0.149050
-0.151382
-0.151097
-0.146789
-0.138249
-0.125975
-0.110883
-0.094043
-0.076486
-0.059089
-0.042526
-0.027255
-0.013530
-0.001427
0.009125
0.018309
0.026380
0.033619
0.040297
0.046624
0.052726
0.058223
0.062724
0.065759
0.066858
0.065556
0.061436
0.054284
0.044311
0.032340
0.019849
0.008768
0.000994
-0.001822
-0.000759
0.003248
0.009093
0.015678
0.022107
0.027782
0.032421
0.036010
0.038717
0.040774
0.042388
0.043679
0.044680
0.045363
0.045706
0.045748
0.045650
0.045713
0.046023
0.046631
0.047555
0.048630
0.049527
0.049810
0.049020
0.046758
0.042770
0.037018
0.029710
0.021295
0.012399
0.003697
-0.004249
-0.011160
-0.016792
-0.021991
-0.027341
-0.033236
-0.041576
0.207944
0.205266
0.197516
0.184057
0.163855
0.135568
0.097828
0.049870
-0.007361
-0.070406
-0.130534
-0.181508
-0.220917
-0.248550
-0.265096
-0.271641
-0.269513
-0.259977
-0.244685
-0.225341
-0.203778
-0.181975
-0.162262
-0.147174
-0.138906
-0.138344
-0.144304
-0.153612
-0.161998
-0.165829
-0.163609
-0.155375
-0.142122
-0.125294
-0.106382
-0.086695
-0.067270
-0.048855
-0.031935
-0.016770
-0.003433
0.008150
0.018158
0.026836
0.034457
0.041271
0.047441
0.053105
0.058142
0.061898
0.063940
0.063979
0.061732
0.056891
0.049236
0.038849
0.026328
0.012923
0.000443
-0.009091
-0.014033
-0.013202
-0.008815
-0.002089
0.005754
0.013688
0.020990
0.027268
0.032405
0.036471
0.039621
0.042011
0.043750
0.044882
0.045413
0.045354
0.044788
0.043907
0.042967
0.042417
0.042290
0.042611
0.043252
0.043902
0.044137
0.043506
0.041614
0.038203
0.033204
0.026780
0.019320
0.011390
0.003636
-0.003340
-0.009113
-0.013506
-0.016338
-0.018314
-0.019592
-0.019709
0.232181
0.229779
0.222717
0.210064
0.190205
0.160792
0.118922
0.061960
-0.010360
-0.094544
-0.170600
-0.229496
-0.270913
-0.296996
-0.309780
-0.311094
-0.302721
-0.286284
-0.263577
-0.236516
-0.207234
-0.177973
-0.151463
-0.131749
-0.122726
-0.126251
-0.140526
-0.160366
-0.178628
-0.188528
-0.188756
-0.180275
-0.165018
-0.145298
-0.123225
-0.100469
-0.078241
-0.057356
-0.038306
-0.021337
-0.006500
0.006293
0.017236
0.026586
0.034609
0.041515
0.047373
0.052050
0.055994
0.058664
0.059305
0.057971
0.054744
0.049516
0.042057
0.032250
0.020376
0.007314
-0.005446
-0.016057
-0.022857
-0.023787
-0.019660
-0.012665
-0.004056
0.005014
0.013680
0.021405
0.027943
0.033254
0.037414
0.040533
0.042696
0.043948
0.044299
0.043778
0.042508
0.040746
0.038854
0.037216
0.036278
0.035993
0.036257
0.036768
0.037109
0.036832
0.035540
0.032956
0.028978
0.023712
0.017478
0.010777
0.004216
-0.001591
-0.006131
-0.009079
-0.010116
-0.009240
-0.006770
-0.000651
0.260730
0.258846
0.253173
0.242510
0.224608
0.195766
0.150503
0.082080
-0.014209
-0.138352
-0.236769
-0.301141
-0.340252
-0.361283
-0.367541
-0.361247
-0.344742
-0.319536
-0.287380
-0.250490
-0.211409
-0.172980
-0.137423
-0.110178
-0.098770
-0.106959
-0.132005
-0.166171
-0.198834
-0.219093
-0.222101
-0.212631
-0.194215
-0.170452
-0.144234
-0.117620
-0.091971
-0.068131
-0.046577
-0.027520
-0.010982
0.003153
0.015102
0.025132
0.033498
0.040336
0.045584
0.048990
0.050263
0.050486
0.049217
0.046360
0.042543
0.037730
0.031527
0.023551
0.013727
0.002512
-0.009019
-0.019307
-0.026668
-0.029722
-0.026950
-0.020578
-0.012042
-0.002585
0.006810
0.015465
0.022993
0.029235
0.034170
0.037845
0.040309
0.041580
0.041660
0.040590
0.038536
0.035838
0.032972
0.030422
0.028639
0.027796
0.027783
0.028299
0.028925
0.029212
0.028749
0.027233
0.024518
0.020646
0.015865
0.010599
0.005406
0.000889
-0.002384
-0.003956
-0.003508
-0.000617
0.004615
0.015072
0.292637
0.291581
0.288234
0.281288
0.268067
0.243513
0.198489
0.117967
-0.018483
-0.224794
-0.345071
-0.399819
-0.426346
-0.437804
-0.435125
-0.420436
-0.395222
-0.359992
-0.316922
-0.268671
-0.218225
-0.169141
-0.125707
-0.088181
-0.070955
-0.082172
-0.116870
-0.164463
-0.212190
-0.247291
-0.256597
-0.246251
-0.224579
-0.196756
-0.166488
-0.136159
-0.107218
-0.080514
-0.056506
-0.035390
-0.017177
-0.001741
0.011135
0.021704
0.030145
0.036419
0.040231
0.041237
0.039489
0.035667
0.031787
0.028095
0.024804
0.021564
0.017751
0.012748
0.006174
-0.001908
-0.010863
-0.019523
-0.026435
-0.030315
-0.029761
-0.024536
-0.016896
-0.007923
0.001380
0.010245
0.018162
0.024848
0.030180
0.034121
0.036661
0.037777
0.037451
0.035733
0.032842
0.029204
0.025404
0.022031
0.019527
0.018226
0.018061
0.018741
0.019844
0.020905
0.021489
0.021255
0.020005
0.017715
0.014552
0.010862
0.007139
0.003960
0.001911
0.001522
0.003225
0.007352
0.014357
0.027466
0.326384
0.326472
0.326438
0.325223
0.320397
0.306552
0.271442
0.187110
-0.017346
-0.410140
-0.507926
-0.508681
-0.508996
-0.510766
-0.501873
-0.483092
-0.450468
-0.405932
-0.352681
-0.293935
-0.232924
-0.173812
-0.122162
-0.084866
-0.060436
-0.071647
-0.108634
-0.159264
-0.211666
-0.253893
-0.276312
-0.268122
-0.245609
-0.216063
-0.183915
-0.151732
-0.121001
-0.092591
-0.066999
-0.044476
-0.025091
-0.008780
0.004605
0.015187
0.022888
0.027325
0.028071
0.025221
0.019787
0.013402
0.007956
0.004728
0.003175
0.002547
0.002003
0.000753
-0.001808
-0.005935
-0.011399
-0.017437
-0.022891
-0.026516
-0.027324
-0.024043
-0.017987
-0.010263
-0.001840
0.006484
0.014121
0.020684
0.025945
0.029778
0.032100
0.032834
0.031934
0.029463
0.025686
0.021114
0.016425
0.012291
0.009201
0.007539
0.007357
0.008370
0.010144
0.012185
0.014017
0.015249
0.015623
0.015043
0.013597
0.011552
0.009331
0.007469
0.006546
0.007125
0.009698
0.014658
0.022440
0.036785
0.359892
0.361322
0.365275
0.371371
0.378484
0.383335
0.376056
0.324662
0.084798
-0.753908
-0.693666
-0.572076
-0.549789
-0.551156
-0.550533
-0.533331
-0.497926
-0.448904
-0.391030
-0.328340
-0.264454
-0.203807
-0.151956
-0.114245
-0.099645
-0.105083
-0.129700
-0.166824
-0.207891
-0.243607
-0.265489
-0.268080
-0.248111
-0.220577
-0.190147
-0.159302
-0.129468
-0.101541
-0.076118
-0.053593
-0.034193
-0.018023
-0.005137
0.004296
0.009832
0.010892
0.007401
0.000449
-0.007826
-0.015237
-0.020025
-0.021379
-0.020148
-0.017363
-0.014054
-0.011148
-0.009390
-0.009254
-0.010828
-0.013716
-0.017080
-0.019847
-0.021038
-0.019776
-0.015440
-0.009425
-0.002471
0.004688
0.011442
0.017334
0.022051
0.025379
0.027159
0.027257
0.025596
0.022246
0.017519
0.011995
0.006430
0.001569
-0.002033
-0.003961
-0.004027
-0.002511
0.000129
0.003347
0.006608
0.009455
0.011560
0.012759
0.013060
0.012655
0.011898
0.011272
0.011337
0.012662
0.015773
0.021115
0.029059
0.043412
0.390727
0.393457
0.401318
0.414810
0.434769
0.462225
0.497646
0.537080
0.618603
-0.067652
-0.622908
-0.552149
-0.548680
-0.552237
-0.560345
-0.549455
-0.519113
-0.475238
-0.423554
-0.369417
-0.317153
-0.269331
-0.230536
-0.203865
-0.190430
-0.183244
-0.183388
-0.193851
-0.210322
-0.227333
-0.238773
-0.240242
-0.229571
-0.207230
-0.181823
-0.155500
-0.129474
-0.104603
-0.081582
-0.060983
-0.043258
-0.028761
-0.017850
-0.011057
-0.009108
-0.012439
-0.020317
-0.030520
-0.040209
-0.047209
-0.049922
-0.048258
-0.043356
-0.036513
-0.028957
-0.021742
-0.015701
-0.011416
-0.009164
-0.008826
-0.009849
-0.011355
-0.012382
-0.012128
-0.009779
-0.005694
-0.000536
0.005051
0.010479
0.015265
0.019035
0.021503
0.022438
0.021649
0.019033
0.014665
0.008895
0.002364
-0.004104
-0.009693
-0.013777
-0.015891
-0.015717
-0.013537
-0.009853
-0.005280
-0.000440
0.004128
0.008021
0.011002
0.013012
0.014172
0.014773
0.015250
0.016130
0.017974
0.021317
0.026622
0.034260
0.047690
0.416546
0.420243
0.430995
0.449890
0.479041
0.522163
0.585793
0.681183
0.813808
0.850712
0.000000
-0.547021
-0.541892
-0.535033
-0.534232
-0.529071
-0.507475
-0.476448
-0.443426
-0.413227
-0.387332
-0.364755
-0.344178
-0.325454
-0.302924
-0.277170
-0.253108
-0.233284
-0.219797
-0.211967
-0.206760
-0.200739
-0.191544
-0.177814
-0.159197
-0.139466
-0.119454
-0.099839
-0.081328
-0.064633
-0.050415
-0.039297
-0.031966
-0.029294
-0.032106
-0.040350
-0.052285
-0.064810
-0.074842
-0.080438
-0.080030
-0.074408
-0.065087
-0.053675
-0.041627
-0.030122
-0.020045
-0.012000
-0.006324
-0.003043
-0.001816
-0.001952
-0.002574
-0.002880
-0.002067
0.000281
0.003610
0.007467
0.011339
0.014753
0.017301
0.018644
0.018492
0.016607
0.012862
0.007338
0.000421
-0.007196
-0.014621
-0.020959
-0.025491
-0.027745
-0.027231
-0.024254
-0.019381
-0.013321
-0.006799
-0.000454
0.005223
0.009928
0.013539
0.016124
0.017920
0.019317
0.020811
0.022946
0.026252
0.031195
0.038144
0.050036
0.435610
0.439749
0.451759
0.472766
0.504804
0.550954
0.614823
0.698189
0.795553
0.887617
0.804159
0.000000
-0.526007
-0.510122
-0.494953
-0.484159
-0.472546
-0.460949
-0.454700
-0.456559
-0.464132
-0.470882
-0.468852
-0.449289
-0.412476
-0.366541
-0.317608
-0.270470
-0.229718
-0.197726
-0.174444
-0.158054
-0.145925
-0.135660
-0.124943
-0.112363
-0.099422
-0.086396
-0.073880
-0.062632
-0.053465
-0.047239
-0.044970
-0.047787
-0.056363
-0.069887
-0.085634
-0.099935
-0.109692
-0.113161
-0.108711
-0.098396
-0.084137
-0.067880
-0.051307
-0.035716
-0.022009
-0.010752
-0.002243
0.003467
0.006614
0.007748
0.007658
0.007185
0.007056
0.007796
0.009435
0.011618
0.013910
0.015867
0.017072
0.017150
0.015766
0.012647
0.007649
0.000867
-0.007282
-0.016051
-0.024483
-0.031592
-0.036562
-0.038889
-0.037957
-0.034097
-0.027953
-0.020340
-0.012106
-0.004003
0.003388
0.009691
0.014736
0.018546
0.021323
0.023422
0.025309
0.027511
0.030544
0.034862
0.040816
0.050833
0.447125
0.451167
0.462800
0.482798
0.512394
0.553131
0.606503
0.671401
0.735123
0.759115
0.720701
0.608519
0.000000
-0.484477
-0.458831
-0.439005
-0.433709
-0.438746
-0.457979
-0.491554
-0.531560
-0.564498
-0.575350
-0.549397
-0.498287
-0.432226
-0.361052
-0.292015
-0.230563
-0.180008
-0.141654
-0.115033
-0.098140
-0.088048
-0.081756
-0.076363
-0.070478
-0.064372
-0.058453
-0.053471
-0.050344
-0.050167
-0.054245
-0.063800
-0.079048
-0.098233
-0.117757
-0.133597
-0.142786
-0.142954
-0.133984
-0.118604
-0.099258
-0.078242
-0.057439
-0.038219
-0.021464
-0.007657
0.003005
0.010533
0.015145
0.017307
0.017715
0.017178
0.016419
0.016049
0.016326
0.017064
0.017926
0.018510
0.018403
0.017208
0.014561
0.010165
0.003874
-0.004201
-0.013607
-0.023547
-0.032992
-0.040865
-0.046244
-0.048570
-0.047172
-0.042408
-0.034995
-0.025863
-0.015982
-0.006226
0.002727
0.010434
0.016683
0.021471
0.024978
0.027535
0.029588
0.031643
0.034200
0.037693
0.042450
0.050363
0.451278
0.454807
0.464897
0.481967
0.506576
0.538965
0.577913
0.618671
0.648384
0.641330
0.579439
0.496336
0.336537
0.000000
-0.429443
-0.400055
-0.400033
-0.414657
-0.451001
-0.509278
-0.577503
-0.631500
-0.645864
-0.608175
-0.542854
-0.461569
-0.375175
-0.291969
-0.217674
-0.155662
-0.107416
-0.072963
-0.051066
-0.039332
-0.034627
-0.033929
-0.034352
-0.034579
-0.034988
-0.036361
-0.039735
-0.046427
-0.057924
-0.075245
-0.097839
-0.122920
-0.146148
-0.163244
-0.171384
-0.167364
-0.153673
-0.133286
-0.109180
-0.083953
-0.059615
-0.037537
-0.018523
-0.002934
0.009163
0.017886
0.023488
0.026392
0.027212
0.026701
0.025589
0.024465
0.023737
0.023348
0.023046
0.022467
0.021206
0.018855
0.015030
0.009424
0.001898
-0.007415
-0.018018
-0.029065
-0.039456
-0.048026
-0.053752
-0.055992
-0.054117
-0.048498
-0.039919
-0.029411
-0.018064
-0.006866
0.003410
0.012257
0.019429
0.024910
0.028871
0.031634
0.033628
0.035343
0.037259
0.039788
0.043226
0.048943
0.449010
0.451815
0.459723
0.472753
0.490713
0.512721
0.536278
0.555756
0.560287
0.532327
0.454364
0.318222
0.176738
-0.225467
-0.424737
-0.364711
-0.364508
-0.386410
-0.436453
-0.510887
-0.593340
-0.655508
-0.657899
-0.615547
-0.543387
-0.455354
-0.362940
-0.274471
-0.195311
-0.128428
-0.075101
-0.035508
-0.008971
0.005996
0.011689
0.010906
0.006218
0.001156
-0.004593
-0.011883
-0.021843
-0.035912
-0.055501
-0.081076
-0.111101
-0.141821
-0.168316
-0.186089
-0.192305
-0.183936
-0.165627
-0.140814
-0.112829
-0.084438
-0.057666
-0.033798
-0.013503
0.003008
0.015810
0.025135
0.031294
0.034684
0.035841
0.035434
0.034171
0.032642
0.031232
0.030060
0.028918
0.027466
0.025303
0.022010
0.017192
0.010541
0.001935
-0.008459
-0.020104
-0.032098
-0.043283
-0.052413
-0.058382
-0.060442
-0.058110
-0.051754
-0.042205
-0.030575
-0.018053
-0.005731
0.005537
0.015189
0.022957
0.028821
0.032954
0.035676
0.037409
0.038623
0.039779
0.041261
0.043332
0.046856
0.441636
0.443594
0.449012
0.457612
0.468719
0.480856
0.491089
0.494090
0.481082
0.439017
0.350976
0.194653
-0.076780
-0.627672
-0.484763
-0.367181
-0.347577
-0.371980
-0.427385
-0.503704
-0.582567
-0.631769
-0.623067
-0.577436
-0.505946
-0.420795
-0.332192
-0.247451
-0.171138
-0.105624
-0.051772
-0.009648
0.020959
0.040552
0.050206
0.051605
0.046655
0.039067
0.029532
0.017147
0.000904
-0.020492
-0.048032
-0.081350
-0.117912
-0.153205
-0.181941
-0.199574
-0.202624
-0.190137
-0.168050
-0.140050
-0.109629
-0.079566
-0.051780
-0.027396
-0.006905
0.009636
0.022436
0.031825
0.038164
0.041838
0.043297
0.043101
0.041882
0.040220
0.038464
0.036857
0.035217
0.033217
0.030453
0.026494
0.020940
0.013489
0.004041
-0.007196
-0.019640
-0.032342
-0.044087
-0.053576
-0.059644
-0.061434
-0.058685
-0.051755
-0.041500
-0.029087
-0.015781
-0.002745
0.009104
0.019167
0.027166
0.033089
0.037121
0.039585
0.040892
0.041495
0.041828
0.042243
0.042965
0.044371
0.430700
0.431821
0.434822
0.439262
0.444235
0.448086
0.447984
0.439396
0.415564
0.367104
0.281724
0.143784
-0.065565
-0.324213
-0.357227
-0.338495
-0.340802
-0.368821
-0.419154
-0.482875
-0.540719
-0.562359
-0.549224
-0.506841
-0.443917
-0.369803
-0.292525
-0.217990
-0.149978
-0.090501
-0.040280
0.000763
0.033008
0.056663
0.071574
0.078143
0.077511
0.072231
0.061376
0.045349
0.023895
-0.003725
-0.037788
-0.077022
-0.118068
-0.155924
-0.185158
-0.201468
-0.199585
-0.184468
-0.160194
-0.130809
-0.099815
-0.069844
-0.042606
-0.019013
0.000620
0.016373
0.028548
0.037539
0.043741
0.047528
0.049274
0.049416
0.048462
0.046910
0.045167
0.043460
0.041650
0.039424
0.036372
0.032052
0.026057
0.018096
0.008097
-0.003691
-0.016639
-0.029752
-0.041777
-0.051380
-0.057373
-0.058815
-0.055695
-0.048366
-0.037696
-0.024888
-0.011247
0.002022
0.013975
0.024007
0.031853
0.037518
0.041203
0.043233
0.044008
0.043953
0.043467
0.042866
0.042327
0.041768
0.417726
0.418105
0.418994
0.419895
0.419867
0.417340
0.409869
0.393883
0.364504
0.315569
0.240017
0.131348
-0.010858
-0.163441
-0.241492
-0.277455
-0.306383
-0.341912
-0.385824
-0.431634
-0.464929
-0.474572
-0.461091
-0.426413
-0.375968
-0.316196
-0.252989
-0.190944
-0.133189
-0.081542
-0.036808
0.000878
0.031711
0.055909
0.073573
0.084723
0.093273
0.092474
0.082752
0.065574
0.041426
0.010235
-0.027451
-0.069517
-0.112008
-0.149660
-0.177014
-0.189781
-0.184469
-0.167647
-0.142965
-0.114225
-0.084626
-0.056487
-0.031234
-0.009566
0.008350
0.022679
0.033762
0.042010
0.047824
0.051562
0.053547
0.054113
0.053633
0.052498
0.051098
0.049607
0.047930
0.045777
0.042737
0.038356
0.032222
0.024055
0.013811
0.001782
-0.011358
-0.024573
-0.036585
-0.046047
-0.051776
-0.052802
-0.049344
-0.041766
-0.030959
-0.018144
-0.004644
0.008339
0.019881
0.029415
0.036716
0.041826
0.044962
0.046446
0.046652
0.045969
0.044751
0.043263
0.041632
0.039343
0.404067
0.403836
0.403012
0.401117
0.397290
0.390179
0.377827
0.357585
0.326134
0.279734
0.214875
0.129767
0.027695
-0.077935
-0.156696
-0.211302
-0.254244
-0.293813
-0.332083
-0.365567
-0.386803
-0.392479
-0.381422
-0.354787
-0.315960
-0.269259
-0.218902
-0.168403
-0.120329
-0.076320
-0.037244
-0.003412
0.025201
0.048762
0.067443
0.082688
0.092532
0.094613
0.088220
0.073278
0.049980
0.018863
-0.018687
-0.059872
-0.100371
-0.134902
-0.158373
-0.165813
-0.158775
-0.142038
-0.118924
-0.092742
-0.066216
-0.041265
-0.019035
-0.000049
0.015611
0.028136
0.037858
0.045162
0.050428
0.053990
0.056135
0.057127
0.057234
0.056727
0.055981
0.054998
0.053734
0.051928
0.049173
0.045009
0.039018
0.030931
0.020733
0.008755
-0.004284
-0.017317
-0.029044
-0.038125
-0.043406
-0.043950
-0.040149
-0.032420
-0.021698
-0.009232
0.003664
0.015833
0.026435
0.034998
0.041379
0.045673
0.048117
0.049014
0.048696
0.047498
0.045716
0.043557
0.041087
0.037417
0.390832
0.390130
0.387995
0.384014
0.377458
0.367241
0.351872
0.329474
0.297884
0.254957
0.199132
0.130437
0.052041
-0.028423
-0.098443
-0.155330
-0.202247
-0.242533
-0.277215
-0.304652
-0.321565
-0.326341
-0.318227
-0.298136
-0.268339
-0.231821
-0.191644
-0.150502
-0.110489
-0.073050
-0.039046
-0.008881
0.017355
0.039761
0.058543
0.073873
0.084014
0.087631
0.083724
0.071683
0.051336
0.023250
-0.010863
-0.047894
-0.083452
-0.112471
-0.130313
-0.133810
-0.126898
-0.112025
-0.092054
-0.069712
-0.047213
-0.026114
-0.007343
0.008681
0.021905
0.032505
0.040779
0.047071
0.051722
0.055035
0.057270
0.058644
0.059357
0.059615
0.059660
0.059387
0.058759
0.057526
0.055286
0.051572
0.045965
0.038203
0.028298
0.016617
0.003920
-0.008694
-0.019913
-0.028407
-0.033053
-0.033035
-0.028838
-0.020987
-0.010504
0.001318
0.013184
0.024032
0.033177
0.040313
0.045436
0.048713
0.050392
0.050737
0.050016
0.048490
0.046387
0.043851
0.040887
0.036317
0.378882
0.377829
0.374734
0.369266
0.360844
0.348627
0.331523
0.308233
0.277390
0.237809
0.188902
0.131267
0.067354
0.001743
-0.059479
-0.113293
-0.159523
-0.198825
-0.231273
-0.255943
-0.271387
-0.276432
-0.270925
-0.255697
-0.232435
-0.203337
-0.170717
-0.136690
-0.102976
-0.070833
-0.041071
-0.014129
0.009819
0.030767
0.048778
0.063357
0.073449
0.078011
0.076055
0.066854
0.050161
0.026534
-0.002310
-0.033357
-0.062547
-0.085464
-0.098382
-0.100791
-0.095063
-0.082948
-0.066677
-0.048416
-0.029960
-0.012599
0.002875
0.016090
0.026995
0.035745
0.042612
0.047911
0.051948
0.054999
0.057290
0.059000
0.060264
0.061372
0.062165
0.062675
0.062807
0.062293
0.060724
0.057627
0.052579
0.045325
0.035895
0.024691
0.012508
0.000478
-0.010069
-0.017809
-0.021665
-0.020946
-0.016247
-0.008240
0.001923
0.012876
0.023348
0.032422
0.039639
0.044948
0.048537
0.050671
0.051589
0.051489
0.050545
0.048926
0.046788
0.044221
0.041187
0.036356
0.368856
0.367542
0.363760
0.357267
0.347618
0.334178
0.316152
0.292653
0.262822
0.226027
0.182141
0.131873
0.077060
0.020664
-0.033757
-0.083652
-0.127767
-0.165534
-0.196423
-0.219685
-0.234550
-0.240172
-0.236703
-0.224938
-0.206250
-0.182378
-0.155169
-0.126347
-0.097357
-0.069296
-0.042907
-0.018634
0.003300
0.022793
0.039773
0.053624
0.063640
0.068967
0.068719
0.062198
0.049166
0.030162
0.006777
-0.018304
-0.041633
-0.059721
-0.069969
-0.072548
-0.068365
-0.058855
-0.045795
-0.030950
-0.015826
-0.001544
0.011182
0.022009
0.030889
0.037978
0.043551
0.047922
0.051389
0.054205
0.056564
0.058606
0.060457
0.062178
0.063683
0.064958
0.065864
0.066108
0.065267
0.062862
0.058461
0.051812
0.042959
0.032330
0.020754
0.009399
-0.000375
-0.007236
-0.010109
-0.008573
-0.003274
0.004939
0.014752
0.024702
0.033539
0.040509
0.045444
0.048626
0.050504
0.051457
0.051695
0.051306
0.050340
0.048863
0.046966
0.044713
0.042064
0.037774
0.361231
0.359693
0.355405
0.348219
0.337796
0.323645
0.305178
0.281775
0.252890
0.218193
0.177764
0.132286
0.083180
0.032552
-0.017146
-0.063775
-0.105786
-0.142094
-0.171840
-0.194274
-0.208844
-0.214989
-0.212976
-0.203571
-0.187969
-0.167643
-0.144155
-0.118976
-0.093362
-0.068285
-0.044427
-0.022216
-0.001897
0.016383
0.032461
0.045774
0.055779
0.061753
0.062910
0.058604
0.048605
0.033399
0.014400
-0.006079
-0.025184
-0.040174
-0.049239
-0.051964
-0.048903
-0.041222
-0.030402
-0.017955
-0.005207
0.006831
0.017500
0.026481
0.033739
0.039445
0.043897
0.047441
0.050394
0.053013
0.055471
0.057854
0.060179
0.062418
0.064552
0.066509
0.068111
0.069046
0.068885
0.067138
0.063370
0.057325
0.049052
0.039001
0.028033
0.017360
0.008382
0.002447
0.000741
0.003057
0.008956
0.017386
0.026866
0.035830
0.043026
0.047841
0.050403
0.051364
0.051492
0.051308
0.050983
0.050462
0.049646
0.048479
0.047010
0.045326
0.043461
0.040634
0.356421
0.354561
0.349849
0.342200
0.331314
0.316782
0.298138
0.274918
0.246746
0.213451
0.175199
0.132620
0.086889
0.039671
-0.007093
-0.051515
-0.091989
-0.127228
-0.156207
-0.178137
-0.192508
-0.199013
-0.197939
-0.190019
-0.176346
-0.158243
-0.137105
-0.114252
-0.090821
-0.067705
-0.045544
-0.024754
-0.005584
0.011813
0.027263
0.040254
0.050326
0.056820
0.058997
0.056228
0.048271
0.035557
0.019363
0.001750
-0.014804
-0.027965
-0.036205
-0.038921
-0.036489
-0.029894
-0.020435
-0.009469
0.001792
0.012408
0.021758
0.029535
0.035709
0.040456
0.044090
0.046981
0.049488
0.051905
0.054455
0.057075
0.059753
0.062459
0.065125
0.067640
0.069801
0.071288
0.071668
0.070453
0.067199
0.061645
0.053842
0.044254
0.033782
0.023685
0.015417
0.010409
0.009459
0.012399
0.018728
0.027290
0.036511
0.044751
0.050726
0.053875
0.054510
0.053578
0.052151
0.050932
0.050103
0.049502
0.048902
0.048060
0.047043
0.045983
0.045087
0.044571
0.355028
0.352248
0.347130
0.339210
0.328107
0.313424
0.294746
0.271679
0.243922
0.211364
0.174195
0.133008
0.088857
0.043216
-0.002173
-0.045536
-0.085258
-0.119975
-0.148597
-0.170330
-0.184686
-0.191402
-0.190809
-0.183626
-0.170893
-0.153857
-0.133833
-0.112069
-0.089647
-0.067427
-0.046035
-0.025889
-0.007263
0.009632
0.024586
0.037436
0.047645
0.054531
0.057329
0.055384
0.048421
0.036835
0.021862
0.005482
-0.009980
-0.022448
-0.030401
-0.033122
-0.030991
-0.024913
-0.016094
-0.005806
0.004799
0.014814
0.023634
0.030954
0.036736
0.041145
0.044488
0.047132
0.049439
0.051697
0.054045
0.056687
0.059607
0.062647
0.065684
0.068577
0.071109
0.072956
0.073682
0.072792
0.069833
0.064532
0.056937
0.047525
0.037236
0.027386
0.019446
0.014677
0.013885
0.017017
0.023441
0.031975
0.041053
0.049046
0.054658
0.057304
0.057280
0.055574
0.053357
0.051458
0.050149
0.049278
0.048541
0.047855
0.047116
0.046467
0.046256
0.048239
