# vtk DataFile Version 3.0
Scalar Field
ASCII
DATASET RECTILINEAR_GRID
DIMENSIONS 100 26 1
X_COORDINATES 100 double
0.050000 0.150000 0.250000 0.350000 0.450000 0.550000 0.650000 0.750000 0.850000 0.950000 1.050000 1.150000 1.250000 1.350000 1.450000 1.550000 1.650000 1.750000 1.850000 1.950000 2.050000 2.150000 2.250000 2.350000 2.450000 2.550000 2.650000 2.750000 2.850000 2.950000 3.050000 3.150000 3.250000 3.350000 3.450000 3.550000 3.650000 3.750000 3.850000 3.950000 4.050000 4.150000 4.250000 4.350000 4.450000 4.550000 4.650000 4.750000 4.850000 4.950000 5.050000 5.150000 5.250000 5.350000 5.450000 5.550000 5.650000 5.750000 5.850000 5.950000 6.050000 6.150000 6.250000 6.350000 6.450000 6.550000 6.650000 6.750000 6.850000 6.950000 7.050000 7.150000 7.250000 7.350000 7.450000 7.550000 7.650000 7.750000 7.850000 7.950000 8.050000 8.150000 8.250000 8.350000 8.450000 8.550000 8.650000 8.750000 8.850000 8.950000 9.050000 9.150000 9.250000 9.350000 9.450000 9.550000 9.650000 9.750000 9.850000 9.950000 
Y_COORDINATES 26 double
0.050000 0.150000 0.250000 0.350000 0.450000 0.550000 0.650000 0.750000 0.850000 0.950000 1.050000 1.150000 1.250000 1.350000 1.450000 1.550000 1.650000 1.750000 1.850000 1.950000 2.050000 2.150000 2.250000 2.350000 2.450000 2.550000 
Z_COORDINATES 1 double
0.0
POINT_DATA 2600
SCALARS Skalarfeld double 1
LOOKUP_TABLE default
0.194075
0.190341
0.182573
0.170383
0.153556
0.132011
0.105876
0.075594
0.042025
0.006469
-0.029442
-0.064018
-0.095808
-0.123800
-0.147486
-0.166828
-0.182158
-0.194046
-0.203153
-0.210079
-0.215231
-0.218729
-0.220396
-0.219782
-0.216303
-0.209585
-0.199514
-0.186293
-0.170422
-0.152606
-0.133649
-0.114344
-0.095386
-0.077317
-0.060499
-0.045116
-0.031191
-0.018631
-0.007267
0.003078
0.012509
0.021169
0.028974
0.035472
0.040083
0.042223
0.041510
0.037965
0.032126
0.024986
0.017759
0.011538
0.007156
0.005117
0.005216
0.007030
0.010019
0.013634
0.017390
0.020908
0.023934
0.026334
0.028082
0.029240
0.029928
0.030297
0.030491
0.030627
0.030781
0.030984
0.031235
0.031516
0.031800
0.032092
0.032401
0.032713
0.033046
0.033429
0.033894
0.034470
0.035177
0.036026
0.037020
0.038153
0.039411
0.040781
0.042246
0.043792
0.045408
0.047087
0.048830
0.050641
0.052531
0.054511
0.056599
0.058808
0.061151
0.063626
0.066206
0.069550
0.197170
0.194301
0.186776
0.174559
0.157478
0.135406
0.108404
0.076882
0.041754
0.004493
-0.032992
-0.068761
-0.101241
-0.129416
-0.152857
-0.171643
-0.186237
-0.197348
-0.205771
-0.212230
-0.217213
-0.220854
-0.222890
-0.222789
-0.219788
-0.213377
-0.203378
-0.189995
-0.173769
-0.155469
-0.135963
-0.116097
-0.096604
-0.078050
-0.060806
-0.045060
-0.030832
-0.018019
-0.006441
0.004111
0.013830
0.022677
0.030416
0.036679
0.040925
0.042601
0.041357
0.037238
0.030797
0.023058
0.015309
0.008815
0.004385
0.002393
0.002662
0.004727
0.008003
0.011907
0.015930
0.019687
0.022920
0.025500
0.027407
0.028708
0.029529
0.030020
0.030327
0.030563
0.030797
0.031058
0.031344
0.031644
0.031950
0.032237
0.032491
0.032743
0.033023
0.033362
0.033793
0.034344
0.035035
0.035874
0.036863
0.037994
0.039254
0.040626
0.042093
0.043639
0.045252
0.046927
0.048663
0.050464
0.052343
0.054312
0.056390
0.058597
0.060951
0.063471
0.066179
0.070000
0.205480
0.202835
0.195442
0.183140
0.165628
0.142595
0.113909
0.079860
0.041438
0.000479
-0.040409
-0.078699
-0.112565
-0.141035
-0.163873
-0.181418
-0.194412
-0.203847
-0.210808
-0.216286
-0.220962
-0.225012
-0.228033
-0.229211
-0.227373
-0.221718
-0.211945
-0.198265
-0.181318
-0.162008
-0.141336
-0.120254
-0.099571
-0.079898
-0.061635
-0.044981
-0.029964
-0.016481
-0.004351
0.006632
0.016642
0.025660
0.033380
0.039380
0.043073
0.043896
0.041526
0.036071
0.028169
0.018969
0.009948
0.002566
-0.002151
-0.004003
-0.003308
-0.000647
0.003300
0.007880
0.012549
0.016903
0.020686
0.023774
0.026151
0.027885
0.029095
0.029923
0.030503
0.030939
0.031300
0.031616
0.031896
0.032138
0.032341
0.032506
0.032647
0.032789
0.032970
0.033227
0.033595
0.034100
0.034759
0.035580
0.036562
0.037693
0.038958
0.040336
0.041807
0.043353
0.044963
0.046629
0.048350
0.050133
0.051988
0.053933
0.055989
0.058181
0.060535
0.063087
0.065884
0.069874
0.218576
0.216034
0.208774
0.196439
0.178456
0.154147
0.122968
0.084889
0.040927
-0.006479
-0.053156
-0.095447
-0.131245
-0.159812
-0.181337
-0.196605
-0.206801
-0.213363
-0.217840
-0.221691
-0.225961
-0.230925
-0.235900
-0.239407
-0.239682
-0.235357
-0.225944
-0.211715
-0.193516
-0.172509
-0.149923
-0.126883
-0.104313
-0.082891
-0.063055
-0.045021
-0.028828
-0.014381
-0.001498
0.010036
0.020419
0.029732
0.037543
0.043309
0.046321
0.045972
0.041985
0.034555
0.024429
0.012920
0.001775
-0.007173
-0.012459
-0.013943
-0.012477
-0.008793
-0.003731
0.001948
0.007642
0.012932
0.017564
0.021421
0.024497
0.026857
0.028613
0.029894
0.030823
0.031498
0.031990
0.032344
0.032583
0.032728
0.032794
0.032805
0.032789
0.032785
0.032835
0.032981
0.033262
0.033704
0.034321
0.035121
0.036097
0.037234
0.038511
0.039904
0.041387
0.042941
0.044550
0.046206
0.047909
0.049664
0.051486
0.053393
0.055409
0.057564
0.059893
0.062437
0.065248
0.069251
0.236262
0.233868
0.226936
0.214864
0.196671
0.171064
0.136699
0.092775
0.040075
-0.018197
-0.074055
-0.121896
-0.159692
-0.187520
-0.206390
-0.217771
-0.223445
-0.225439
-0.225973
-0.227267
-0.231059
-0.237876
-0.246546
-0.254329
-0.258205
-0.256035
-0.247084
-0.231825
-0.211537
-0.187840
-0.162337
-0.136410
-0.111133
-0.087265
-0.065277
-0.045397
-0.027668
-0.011991
0.001823
0.014012
0.024813
0.034463
0.042479
0.048086
0.050387
0.048738
0.042977
0.033417
0.020874
0.006722
-0.007134
-0.018525
-0.025545
-0.026862
-0.024428
-0.019351
-0.012750
-0.005564
0.001518
0.008046
0.013769
0.018589
0.022509
0.025603
0.027980
0.029764
0.031071
0.032001
0.032633
0.033025
0.033224
0.033267
0.033191
0.033037
0.032849
0.032677
0.032571
0.032583
0.032754
0.033120
0.033692
0.034470
0.035447
0.036601
0.037904
0.039324
0.040832
0.042401
0.044014
0.045661
0.047341
0.049061
0.050836
0.052688
0.054643
0.056736
0.059005
0.061496
0.064260
0.068196
0.258258
0.256159
0.249975
0.238836
0.221220
0.194893
0.157066
0.105164
0.038822
-0.038501
-0.108373
-0.162633
-0.201168
-0.226218
-0.240166
-0.245315
-0.244110
-0.239199
-0.233626
-0.230807
-0.233810
-0.243834
-0.259093
-0.274746
-0.284688
-0.285881
-0.277433
-0.260348
-0.236746
-0.209021
-0.179334
-0.149404
-0.120480
-0.093392
-0.068626
-0.046407
-0.026761
-0.009582
0.005324
0.018200
0.029306
0.038878
0.047080
0.052577
0.054170
0.051231
0.043898
0.032708
0.018523
0.002613
-0.013266
-0.026967
-0.036362
-0.039933
-0.036909
-0.030623
-0.022523
-0.013779
-0.005216
0.002658
0.009576
0.015440
0.020265
0.024130
0.027149
0.029444
0.031134
0.032323
0.033101
0.033542
0.033710
0.033659
0.033446
0.033125
0.032755
0.032398
0.032118
0.031976
0.032023
0.032299
0.032825
0.033589
0.034579
0.035768
0.037116
0.038584
0.040133
0.041730
0.043355
0.044995
0.046648
0.048324
0.050039
0.051817
0.053688
0.055689
0.057861
0.060253
0.062918
0.066727
0.284017
0.282445
0.277687
0.268632
0.253180
0.227848
0.187432
0.125481
0.037412
-0.076049
-0.165505
-0.223635
-0.258581
-0.277063
-0.282953
-0.279053
-0.268336
-0.253789
-0.239150
-0.229467
-0.230289
-0.244390
-0.269642
-0.298576
-0.319600
-0.325746
-0.317799
-0.297827
-0.269453
-0.236248
-0.201101
-0.166105
-0.132668
-0.101659
-0.073549
-0.048531
-0.026610
-0.007672
0.008447
0.021927
0.032954
0.041654
0.048771
0.053858
0.054455
0.049983
0.041321
0.029481
0.015333
-0.000217
-0.015923
-0.030093
-0.040842
-0.046714
-0.045864
-0.039400
-0.030620
-0.020932
-0.011323
-0.002399
0.005518
0.012301
0.017946
0.022525
0.026142
0.028917
0.030969
0.032408
0.033331
0.033827
0.033972
0.033836
0.033488
0.032996
0.032433
0.031875
0.031401
0.031085
0.030993
0.031172
0.031654
0.032418
0.033445
0.034696
0.036121
0.037665
0.039279
0.040924
0.042571
0.044209
0.045834
0.047458
0.049098
0.050781
0.052542
0.054418
0.056455
0.058704
0.061219
0.064843
0.312568
0.311817
0.309371
0.304043
0.293370
0.272650
0.233299
0.161089
0.036666
-0.151548
-0.259946
-0.308270
-0.330267
-0.337384
-0.332549
-0.317540
-0.295888
-0.270101
-0.243678
-0.223029
-0.218125
-0.234625
-0.270528
-0.316339
-0.356298
-0.370890
-0.363934
-0.340410
-0.306413
-0.267042
-0.225950
-0.185550
-0.147339
-0.112187
-0.080534
-0.052533
-0.028167
-0.007337
0.010034
0.023921
0.034257
0.041235
0.044936
0.045795
0.044943
0.038644
0.029643
0.019163
0.007575
-0.004864
-0.017588
-0.029540
-0.039297
-0.045446
-0.047049
-0.042742
-0.034560
-0.025040
-0.015295
-0.006026
0.002366
0.009688
0.015885
0.020987
0.025070
0.028236
0.030591
0.032244
0.033294
0.033837
0.033956
0.033734
0.033245
0.032571
0.031795
0.031012
0.030317
0.029806
0.029560
0.029639
0.030084
0.030872
0.031975
0.033336
0.034884
0.036546
0.038260
0.039976
0.041663
0.043306
0.044902
0.046465
0.048016
0.049585
0.051208
0.052926
0.054788
0.056846
0.059159
0.062528
0.342410
0.342768
0.343544
0.343814
0.341408
0.331403
0.302447
0.228323
0.042562
-0.317123
-0.404515
-0.403776
-0.401774
-0.396353
-0.381938
-0.356389
-0.326002
-0.291742
-0.255998
-0.221539
-0.206015
-0.220653
-0.262117
-0.319134
-0.374344
-0.407711
-0.402944
-0.376854
-0.338532
-0.294521
-0.249018
-0.204579
-0.162722
-0.124317
-0.089805
-0.059352
-0.032957
-0.010574
0.007673
0.021225
0.029264
0.031858
0.030467
0.026355
0.019995
0.013630
0.007152
0.000704
-0.005896
-0.012913
-0.020370
-0.027847
-0.034470
-0.039124
-0.040827
-0.039105
-0.033118
-0.024868
-0.016018
-0.007283
0.000870
0.008173
0.014498
0.019808
0.024130
0.027523
0.030070
0.031861
0.032990
0.033546
0.033618
0.033287
0.032634
0.031746
0.030723
0.029676
0.028725
0.027993
0.027582
0.027569
0.027994
0.028858
0.030104
0.031645
0.033380
0.035216
0.037072
0.038890
0.040636
0.042291
0.043859
0.045354
0.046801
0.048234
0.049692
0.051218
0.052863
0.054680
0.056734
0.059765
0.371522
0.373159
0.377737
0.384999
0.394069
0.402159
0.400433
0.359308
0.142754
-0.632773
-0.573890
-0.462435
-0.443837
-0.434977
-0.417108
-0.390417
-0.355255
-0.316836
-0.277877
-0.244161
-0.226182
-0.233391
-0.266974
-0.319056
-0.373943
-0.413232
-0.419345
-0.393206
-0.354088
-0.309371
-0.263244
-0.218124
-0.175465
-0.136167
-0.100771
-0.069589
-0.042824
-0.020780
-0.004175
0.005844
0.008576
0.005103
-0.001727
-0.009193
-0.016120
-0.020091
-0.022078
-0.022828
-0.023063
-0.023457
-0.024485
-0.026259
-0.028433
-0.030279
-0.030934
-0.029719
-0.026370
-0.020284
-0.013140
-0.005709
0.001514
0.008207
0.014173
0.019306
0.023566
0.026961
0.029531
0.031337
0.032452
0.032954
0.032920
0.032427
0.031555
0.030397
0.029065
0.027697
0.026447
0.025469
0.024898
0.024826
0.025296
0.026329
0.027819
0.029631
0.031630
0.033697
0.035737
0.037686
0.039504
0.041179
0.042715
0.044132
0.045461
0.046737
0.048003
0.049303
0.050689
0.052215
0.053945
0.056537
0.397589
0.400434
0.408653
0.422820
0.443923
0.473297
0.512052
0.557719
0.647957
0.007592
-0.509571
-0.445253
-0.447350
-0.449391
-0.439670
-0.415797
-0.385051
-0.352990
-0.322604
-0.298079
-0.283319
-0.283329
-0.299125
-0.329114
-0.365508
-0.393050
-0.400592
-0.381727
-0.345703
-0.304794
-0.262613
-0.221097
-0.181497
-0.144735
-0.111525
-0.082447
-0.058088
-0.039288
-0.027316
-0.023351
-0.027076
-0.035762
-0.045447
-0.053211
-0.057316
-0.056788
-0.053015
-0.047283
-0.040730
-0.034332
-0.028849
-0.024745
-0.022086
-0.020520
-0.019381
-0.017931
-0.015600
-0.012132
-0.007028
-0.001367
0.004421
0.010014
0.015176
0.019745
0.023621
0.026753
0.029134
0.030787
0.031754
0.032090
0.031852
0.031104
0.029920
0.028399
0.026674
0.024917
0.023327
0.022106
0.021418
0.021364
0.022022
0.023364
0.025215
0.027392
0.029722
0.032065
0.034317
0.036407
0.038302
0.039992
0.041487
0.042814
0.044007
0.045105
0.046153
0.047196
0.048282
0.049466
0.050808
0.052842
0.418428
0.422137
0.432936
0.451927
0.481229
0.524557
0.588411
0.683682
0.813372
0.839764
0.000000
-0.444030
-0.442807
-0.440757
-0.437129
-0.430207
-0.418964
-0.406209
-0.393846
-0.383770
-0.371938
-0.360038
-0.352516
-0.351764
-0.356765
-0.359664
-0.355528
-0.340075
-0.312455
-0.278647
-0.244047
-0.209893
-0.177057
-0.146396
-0.118759
-0.095007
-0.076154
-0.063567
-0.058769
-0.062272
-0.072159
-0.084305
-0.094448
-0.099990
-0.099089
-0.092499
-0.082045
-0.069443
-0.056158
-0.043372
-0.031977
-0.022579
-0.015457
-0.010521
-0.007317
-0.005151
-0.003302
-0.001231
0.001573
0.005318
0.009410
0.013583
0.017606
0.021288
0.024483
0.027091
0.029057
0.030362
0.031013
0.031032
0.030451
0.029315
0.027692
0.025691
0.023479
0.021278
0.019346
0.017932
0.017231
0.017346
0.018385
0.020181
0.022498
0.025105
0.027803
0.030437
0.032898
0.035121
0.037076
0.038763
0.040199
0.041416
0.042454
0.043353
0.044160
0.044917
0.045670
0.046465
0.047356
0.048714
0.432486
0.436538
0.448302
0.468870
0.500161
0.545007
0.606686
0.687205
0.781347
0.866155
0.772607
0.000000
-0.439152
-0.435496
-0.434820
-0.442682
-0.456130
-0.471685
-0.485713
-0.493504
-0.482093
-0.452985
-0.415854
-0.378978
-0.347385
-0.320936
-0.299918
-0.278494
-0.256877
-0.232592
-0.207252
-0.182734
-0.159245
-0.137437
-0.118198
-0.102625
-0.092163
-0.088577
-0.093124
-0.104976
-0.120534
-0.134874
-0.143976
-0.145691
-0.138219
-0.124562
-0.106937
-0.087426
-0.067760
-0.049253
-0.032827
-0.019068
-0.008274
-0.000453
0.004702
0.007788
0.009568
0.010787
0.012033
0.013756
0.016110
0.018720
0.021409
0.023983
0.026268
0.028129
0.029470
0.030232
0.030385
0.029915
0.028826
0.027144
0.024937
0.022341
0.019569
0.016910
0.014685
0.013187
0.012616
0.013110
0.014717
0.017079
0.019921
0.022979
0.026038
0.028938
0.031576
0.033895
0.035876
0.037528
0.038877
0.039961
0.040821
0.041503
0.042048
0.042497
0.042888
0.043260
0.043650
0.044228
0.439150
0.443021
0.454171
0.473352
0.501827
0.541122
0.592308
0.653066
0.709336
0.726299
0.679060
0.559861
0.000000
-0.436982
-0.438468
-0.462259
-0.496537
-0.541348
-0.583937
-0.606754
-0.587638
-0.537507
-0.470819
-0.399989
-0.334407
-0.280252
-0.239484
-0.208594
-0.186134
-0.168915
-0.153436
-0.139242
-0.126149
-0.114657
-0.105695
-0.100626
-0.101285
-0.109432
-0.125309
-0.146276
-0.167314
-0.183225
-0.190639
-0.186394
-0.171908
-0.150928
-0.126243
-0.100286
-0.074969
-0.051655
-0.031212
-0.014117
-0.000561
0.009487
0.016277
0.020304
0.022276
0.022998
0.023210
0.023474
0.024069
0.025113
0.026414
0.027777
0.029017
0.029975
0.030526
0.030577
0.030060
0.028930
0.027163
0.024776
0.021852
0.018566
0.015202
0.012121
0.009706
0.008273
0.007997
0.009160
0.011397
0.014363
0.017726
0.021203
0.024570
0.027677
0.030429
0.032787
0.034743
0.036317
0.037545
0.038468
0.039131
0.039578
0.039848
0.039975
0.039989
0.039914
0.039774
0.039506
0.438765
0.442107
0.451650
0.467756
0.490831
0.520894
0.556548
0.592521
0.615685
0.601278
0.530942
0.440662
0.272236
0.000000
-0.471720
-0.504973
-0.532789
-0.594380
-0.659242
-0.690109
-0.659245
-0.588648
-0.497782
-0.401876
-0.311990
-0.235695
-0.177074
-0.136126
-0.109835
-0.094273
-0.085998
-0.080998
-0.077831
-0.076967
-0.079462
-0.086926
-0.101238
-0.123406
-0.151950
-0.182371
-0.208645
-0.225526
-0.230043
-0.218948
-0.197519
-0.169680
-0.138767
-0.107460
-0.077726
-0.050865
-0.027612
-0.008275
0.007122
0.018723
0.026791
0.031732
0.034131
0.034724
0.034280
0.033431
0.032694
0.032379
0.032378
0.032548
0.032708
0.032690
0.032349
0.031565
0.030240
0.028299
0.025702
0.022471
0.018722
0.014694
0.010750
0.007327
0.004852
0.003647
0.003901
0.005823
0.008741
0.012289
0.016113
0.019922
0.023505
0.026724
0.029506
0.031828
0.033699
0.035150
0.036221
0.036959
0.037408
0.037610
0.037598
0.037399
0.037033
0.036511
0.035834
0.034705
0.432293
0.434865
0.442095
0.453940
0.470094
0.489516
0.509523
0.524242
0.522708
0.487487
0.400748
0.254041
0.103810
-0.323273
-0.546794
-0.486450
-0.531052
-0.613582
-0.694888
-0.711554
-0.667885
-0.585087
-0.482478
-0.375365
-0.274724
-0.187968
-0.119398
-0.070042
-0.037869
-0.019442
-0.011828
-0.013889
-0.018935
-0.028143
-0.042677
-0.064014
-0.093371
-0.130251
-0.171229
-0.210338
-0.240995
-0.258095
-0.258313
-0.240312
-0.212557
-0.179126
-0.143578
-0.108642
-0.076199
-0.047381
-0.022725
-0.002341
0.013930
0.026380
0.035333
0.041140
0.044228
0.045162
0.044615
0.043263
0.041679
0.040155
0.039029
0.038125
0.037264
0.036277
0.035010
0.033322
0.031092
0.028225
0.024680
0.020503
0.015868
0.011093
0.006628
0.002975
0.000582
-0.000270
0.000914
0.003504
0.007030
0.011056
0.015214
0.019222
0.022889
0.026104
0.028817
0.031025
0.032749
0.034031
0.034916
0.035450
0.035676
0.035631
0.035341
0.034826
0.034093
0.033139
0.031947
0.029993
0.421138
0.422840
0.427518
0.434844
0.444055
0.453561
0.460293
0.458780
0.440136
0.391172
0.294480
0.126807
-0.161373
-0.750356
-0.607137
-0.495973
-0.531207
-0.608458
-0.670847
-0.666549
-0.616727
-0.534661
-0.435734
-0.332785
-0.235089
-0.148818
-0.077763
-0.023613
0.014523
0.039093
0.051074
0.049225
0.039494
0.021917
-0.003894
-0.038494
-0.081733
-0.131324
-0.182239
-0.227618
-0.260664
-0.276725
-0.269515
-0.247036
-0.215047
-0.178263
-0.140369
-0.104001
-0.070841
-0.041794
-0.017187
0.003052
0.019232
0.031773
0.041092
0.047549
0.051461
0.053184
0.053173
0.051969
0.050087
0.047912
0.046017
0.044266
0.042522
0.040644
0.038477
0.035871
0.032686
0.028825
0.024265
0.019100
0.013579
0.008118
0.003247
-0.000480
-0.002623
-0.002783
-0.000779
0.002446
0.006442
0.010771
0.015079
0.019110
0.022708
0.025791
0.028335
0.030352
0.031877
0.032955
0.033633
0.033955
0.033959
0.033676
0.033124
0.032313
0.031241
0.029890
0.028230
0.025531
0.406887
0.407748
0.410001
0.413166
0.416274
0.417591
0.414194
0.401452
0.372503
0.317792
0.224598
0.076370
-0.147953
-0.429305
-0.475071
-0.474887
-0.509722
-0.559494
-0.584304
-0.572284
-0.527722
-0.458675
-0.375667
-0.288281
-0.203871
-0.127451
-0.061957
-0.008472
0.033343
0.063563
0.080487
0.088632
0.080731
0.059057
0.025622
-0.018399
-0.071072
-0.128509
-0.184644
-0.232198
-0.264288
-0.276124
-0.263868
-0.238426
-0.204782
-0.167437
-0.129855
-0.094402
-0.062496
-0.034816
-0.011516
0.007590
0.022887
0.034845
0.043941
0.050586
0.055093
0.057703
0.058657
0.058262
0.056868
0.054904
0.052782
0.050526
0.048126
0.045506
0.042533
0.039053
0.034927
0.030071
0.024505
0.018393
0.012082
0.006080
0.000992
-0.002603
-0.004274
-0.003379
-0.000832
0.002808
0.007036
0.011426
0.015657
0.019517
0.022886
0.025715
0.027999
0.029766
0.031053
0.031908
0.032373
0.032486
0.032281
0.031778
0.030990
0.029917
0.028546
0.026851
0.024786
0.021456
0.391073
0.391201
0.391368
0.391050
0.389263
0.384383
0.373904
0.354194
0.320304
0.265961
0.183877
0.067117
-0.085514
-0.252090
-0.342970
-0.392443
-0.433862
-0.467512
-0.479077
-0.468219
-0.434395
-0.382123
-0.318110
-0.249069
-0.180574
-0.116678
-0.059912
-0.011481
0.028280
0.059018
0.082451
0.096098
0.092471
0.072098
0.037200
-0.009493
-0.064565
-0.123050
-0.178362
-0.223204
-0.251283
-0.255246
-0.241396
-0.215961
-0.183709
-0.148687
-0.113924
-0.081435
-0.052375
-0.027256
-0.006138
0.011198
0.025132
0.036111
0.044592
0.050984
0.055617
0.058736
0.060518
0.061102
0.060696
0.059973
0.058287
0.056020
0.053343
0.050263
0.046683
0.042471
0.037512
0.031763
0.025312
0.018419
0.011533
0.005251
0.000218
-0.003032
-0.003723
-0.002147
0.000773
0.004547
0.008708
0.012880
0.016798
0.020298
0.023298
0.025773
0.027734
0.029211
0.030244
0.030873
0.031133
0.031055
0.030662
0.029970
0.028981
0.027688
0.026071
0.024095
0.021705
0.017874
0.375033
0.374568
0.373069
0.370043
0.364599
0.355355
0.340317
0.316806
0.281474
0.230550
0.160471
0.069357
-0.039626
-0.153314
-0.239605
-0.300034
-0.344099
-0.373662
-0.384962
-0.378778
-0.355398
-0.317677
-0.269982
-0.216982
-0.162828
-0.110756
-0.062981
-0.020791
0.015203
0.044764
0.068029
0.080456
0.078917
0.062508
0.031976
-0.010430
-0.060856
-0.113834
-0.162652
-0.200226
-0.220569
-0.220439
-0.207139
-0.184397
-0.156106
-0.125600
-0.095388
-0.067145
-0.041838
-0.019894
-0.001367
0.013928
0.026316
0.036182
0.043924
0.049914
0.054464
0.057815
0.060129
0.061493
0.062438
0.062414
0.061455
0.059700
0.057244
0.054110
0.050245
0.045563
0.040005
0.033602
0.026537
0.019178
0.012077
0.005899
0.001285
-0.001157
-0.000910
0.000919
0.003847
0.007403
0.011180
0.014872
0.018272
0.021263
0.023794
0.025854
0.027460
0.028638
0.029421
0.029838
0.029915
0.029672
0.029125
0.028279
0.027131
0.025668
0.023866
0.021681
0.019055
0.014863
0.359849
0.358931
0.356178
0.351165
0.343149
0.331024
0.313289
0.288059
0.253184
0.206546
0.146646
0.073611
-0.009220
-0.093937
-0.167065
-0.224593
-0.267536
-0.296285
-0.310024
-0.308883
-0.293922
-0.267288
-0.232042
-0.191543
-0.148928
-0.106786
-0.067044
-0.030991
0.000578
0.027332
0.047465
0.058495
0.058295
0.045768
0.021154
-0.013767
-0.055514
-0.099029
-0.138220
-0.166975
-0.180451
-0.179913
-0.169062
-0.150598
-0.127479
-0.102330
-0.077192
-0.053480
-0.032051
-0.013317
0.002627
0.015905
0.026767
0.035532
0.042536
0.048100
0.052505
0.055973
0.058650
0.060814
0.062238
0.062829
0.062555
0.061426
0.059440
0.056564
0.052740
0.047916
0.042101
0.035417
0.028150
0.020778
0.013932
0.008293
0.004436
0.003173
0.003603
0.005322
0.007891
0.010907
0.014043
0.017063
0.019815
0.022217
0.024235
0.025864
0.027117
0.028011
0.028566
0.028800
0.028726
0.028353
0.027688
0.026729
0.025469
0.023890
0.021965
0.019650
0.016884
0.012477
0.346346
0.345096
0.341439
0.335037
0.325303
0.311392
0.292211
0.266480
0.232870
0.190269
0.138215
0.077499
0.010867
-0.056657
-0.118243
-0.169865
-0.210041
-0.238100
-0.253657
-0.256549
-0.247817
-0.229202
-0.203014
-0.171794
-0.137985
-0.103701
-0.070620
-0.039983
-0.012698
0.010518
0.027908
0.037891
0.038953
0.030175
0.011655
-0.015188
-0.047455
-0.080939
-0.110726
-0.132187
-0.142346
-0.142763
-0.134847
-0.120625
-0.102334
-0.082038
-0.061422
-0.041713
-0.023704
-0.007813
0.005825
0.017279
0.026747
0.034495
0.040810
0.045971
0.050222
0.053762
0.056737
0.059225
0.061054
0.062155
0.062455
0.061889
0.060393
0.057893
0.054318
0.049642
0.043927
0.037376
0.030371
0.023458
0.017289
0.012474
0.009689
0.008664
0.008956
0.010253
0.012204
0.014490
0.016860
0.019135
0.021205
0.023010
0.024525
0.025745
0.026674
0.027317
0.027680
0.027767
0.027580
0.027116
0.026373
0.025343
0.024016
0.022373
0.020390
0.018025
0.015221
0.010763
0.335128
0.333634
0.329340
0.322001
0.311171
0.296218
0.276360
0.250743
0.218568
0.179303
0.132982
0.080554
0.024199
-0.032653
-0.085832
-0.132054
-0.169297
-0.196414
-0.212910
-0.218580
-0.214201
-0.201203
-0.181420
-0.156876
-0.129554
-0.101226
-0.073364
-0.047144
-0.023508
-0.003372
0.011935
0.021238
0.023438
0.017847
0.004532
-0.015392
-0.039639
-0.064932
-0.087557
-0.104189
-0.112958
-0.114066
-0.108368
-0.097330
-0.082666
-0.066045
-0.048894
-0.032303
-0.017008
-0.003424
0.008297
0.018198
0.026452
0.033297
0.038994
0.043794
0.047907
0.051503
0.054685
0.057403
0.059581
0.061127
0.061928
0.061872
0.060848
0.058761
0.055544
0.051200
0.045841
0.039733
0.033306
0.027119
0.021772
0.017786
0.015338
0.014189
0.014125
0.014871
0.016141
0.017684
0.019307
0.020876
0.022310
0.023568
0.024629
0.025487
0.026136
0.026572
0.026786
0.026768
0.026506
0.025989
0.025206
0.024144
0.022791
0.021131
0.019145
0.016805
0.014068
0.009767
0.326641
0.324936
0.320177
0.312215
0.300713
0.285191
0.265083
0.239811
0.208898
0.172136
0.129785
0.082790
0.032925
-0.017256
-0.064777
-0.106956
-0.141782
-0.167953
-0.184836
-0.192245
-0.190745
-0.181518
-0.166091
-0.146158
-0.123397
-0.099346
-0.075324
-0.052427
-0.031581
-0.013716
0.000128
0.009010
0.012086
0.008821
-0.000735
-0.015707
-0.034294
-0.053934
-0.071762
-0.085268
-0.092908
-0.094249
-0.089849
-0.080815
-0.068524
-0.054382
-0.039633
-0.025262
-0.011952
-0.000101
0.010140
0.018809
0.026068
0.032153
0.037316
0.041796
0.045793
0.049453
0.052788
0.055737
0.058242
0.060190
0.061437
0.061835
0.061247
0.059561
0.056723
0.052763
0.047836
0.042241
0.036416
0.030883
0.026153
0.022539
0.020114
0.018791
0.018378
0.018634
0.019323
0.020240
0.021235
0.022208
0.023106
0.023901
0.024582
0.025141
0.025566
0.025843
0.025949
0.025863
0.025561
0.025023
0.024229
0.023165
0.021816
0.020172
0.018223
0.015960
0.013380
0.009509
0.321270
0.319255
0.314099
0.305723
0.293831
0.278027
0.257871
0.232946
0.202959
0.167863
0.128016
0.084321
0.038304
-0.007941
-0.052009
-0.091584
-0.124760
-0.150205
-0.167198
-0.175587
-0.175831
-0.168935
-0.156232
-0.139213
-0.119376
-0.098109
-0.076626
-0.055962
-0.036986
-0.020582
-0.007648
0.001018
0.004697
0.002925
-0.004281
-0.016204
-0.031343
-0.047563
-0.062478
-0.073961
-0.080636
-0.081940
-0.078207
-0.070318
-0.059443
-0.046819
-0.033571
-0.020606
-0.008570
0.002155
0.011422
0.019262
0.025835
0.031370
0.036118
0.040318
0.044175
0.047862
0.051306
0.054478
0.057283
0.059576
0.061188
0.061946
0.061694
0.060317
0.057768
0.054102
0.049501
0.044283
0.038870
0.033750
0.029364
0.025891
0.023471
0.022020
0.021358
0.021274
0.021557
0.022036
0.022587
0.023138
0.023650
0.024111
0.024516
0.024856
0.025119
0.025281
0.025312
0.025182
0.024858
0.024313
0.023522
0.022467
0.021134
0.019516
0.017612
0.015433
0.013019
0.009861
0.319602
0.316671
0.311126
0.302505
0.290434
0.274531
0.254407
0.229719
0.200248
0.166013
0.127400
0.085275
0.041048
-0.003390
-0.045859
-0.084205
-0.116587
-0.141674
-0.158754
-0.167617
-0.168686
-0.162895
-0.151482
-0.135843
-0.117388
-0.097437
-0.077164
-0.057590
-0.039620
-0.024014
-0.011497
-0.002862
0.001191
0.000192
-0.005878
-0.016387
-0.029964
-0.044643
-0.058251
-0.068909
-0.075168
-0.076440
-0.073009
-0.065654
-0.055441
-0.043517
-0.030945
-0.018596
-0.007098
0.003172
0.012060
0.019589
0.025910
0.031244
0.035834
0.039910
0.043651
0.047132
0.050574
0.053897
0.056918
0.059446
0.061288
0.062253
0.062174
0.060933
0.058491
0.054923
0.050435
0.045360
0.040109
0.035097
0.030681
0.027275
0.024879
0.023396
0.022654
0.022451
0.022590
0.022909
0.023295
0.023682
0.024040
0.024358
0.024636
0.024868
0.025040
0.025129
0.025105
0.024934
0.024582
0.024017
0.023215
0.022155
0.020823
0.019214
0.017329
0.015184
0.012806
0.010080
