# vtk DataFile Version 3.0
Vector Field
ASCII
DATASET RECTILINEAR_GRID
DIMENSIONS 100 26 1
X_COORDINATES 100 double
0.050000 0.150000 0.250000 0.350000 0.450000 0.550000 0.650000 0.750000 0.850000 0.950000 1.050000 1.150000 1.250000 1.350000 1.450000 1.550000 1.650000 1.750000 1.850000 1.950000 2.050000 2.150000 2.250000 2.350000 2.450000 2.550000 2.650000 2.750000 2.850000 2.950000 3.050000 3.150000 3.250000 3.350000 3.450000 3.550000 3.650000 3.750000 3.850000 3.950000 4.050000 4.150000 4.250000 4.350000 4.450000 4.550000 4.650000 4.750000 4.850000 4.950000 5.050000 5.150000 5.250000 5.350000 5.450000 5.550000 5.650000 5.750000 5.850000 5.950000 6.050000 6.150000 6.250000 6.350000 6.450000 6.550000 6.650000 6.750000 6.850000 6.950000 7.050000 7.150000 7.250000 7.350000 7.450000 7.550000 7.650000 7.750000 7.850000 7.950000 8.050000 8.150000 8.250000 8.350000 8.450000 8.550000 8.650000 8.750000 8.850000 8.950000 9.050000 9.150000 9.250000 9.350000 9.450000 9.550000 9.650000 9.750000 9.850000 9.950000 
Y_COORDINATES 26 double
0.050000 0.150000 0.250000 0.350000 0.450000 0.550000 0.650000 0.750000 0.850000 0.950000 1.050000 1.150000 1.250000 1.350000 1.450000 1.550000 1.650000 1.750000 1.850000 1.950000 2.050000 2.150000 2.250000 2.350000 2.450000 2.550000 
Z_COORDINATES 1 double
0.0
POINT_DATA 2600
VECTORS Vektorfeld double
1.000880 -0.000880 0.0
1.004898 -0.003138 0.0
1.013624 -0.005588 0.0
1.027316 -0.008105 0.0
1.046007 -0.010587 0.0
1.069496 -0.012902 0.0
1.097273 -0.014875 0.0
1.128443 -0.016295 0.0
1.161699 -0.016961 0.0
1.195391 -0.016730 0.0
1.227716 -0.015595 0.0
1.256984 -0.013672 0.0
1.281799 -0.011144 0.0
1.301147 -0.008203 0.0
1.314377 -0.005027 0.0
1.321180 -0.001776 0.0
1.321562 0.001394 0.0
1.315805 0.004363 0.0
1.304438 0.007004 0.0
1.288231 0.009204 0.0
1.268159 0.010867 0.0
1.245374 0.011918 0.0
1.221152 0.012305 0.0
1.196846 0.012001 0.0
1.173836 0.011008 0.0
1.153479 0.009349 0.0
1.137054 0.007075 0.0
1.125726 0.004253 0.0
1.120503 0.000970 0.0
1.122094 -0.002560 0.0
1.130656 -0.006002 0.0
1.145642 -0.008984 0.0
1.165723 -0.011097 0.0
1.188788 -0.011968 0.0
1.212125 -0.011369 0.0
1.232812 -0.009319 0.0
1.248243 -0.006112 0.0
1.256601 -0.002246 0.0
1.257011 0.001835 0.0
1.249339 0.005837 0.0
1.233986 0.009516 0.0
1.211772 0.012698 0.0
1.183785 0.015288 0.0
1.151251 0.017246 0.0
1.115435 0.018571 0.0
1.077583 0.019281 0.0
1.038898 0.019404 0.0
1.000532 0.018961 0.0
0.963604 0.017967 0.0
0.929218 0.016419 0.0
0.898494 0.014305 0.0
0.872584 0.011606 0.0
0.852655 0.008324 0.0
0.839800 0.004530 0.0
0.834810 0.000460 0.0
0.837774 -0.003425 0.0
0.848158 -0.006960 0.0
0.865279 -0.010162 0.0
0.888511 -0.013070 0.0
0.917279 -0.015698 0.0
0.950990 -0.018012 0.0
0.988898 -0.019895 0.0
1.029921 -0.021128 0.0
1.072445 -0.021397 0.0
1.114192 -0.020350 0.0
1.152244 -0.017703 0.0
1.183345 -0.013397 0.0
1.204519 -0.007777 0.0
1.213895 -0.001599 0.0
1.211030 0.004465 0.0
1.196420 0.010145 0.0
1.171084 0.015190 0.0
1.136535 0.019359 0.0
1.094726 0.022450 0.0
1.047968 0.024308 0.0
0.998838 0.024822 0.0
0.950077 0.023938 0.0
0.904453 0.021686 0.0
0.864522 0.018245 0.0
0.832305 0.013973 0.0
0.808948 0.009384 0.0
0.794526 0.005038 0.0
0.788063 0.001425 0.0
0.787746 -0.001108 0.0
0.791442 -0.002588 0.0
0.797401 -0.003371 0.0
0.804569 -0.003796 0.0
0.812491 -0.004125 0.0
0.821167 -0.004551 0.0
0.830909 -0.005192 0.0
0.842193 -0.006092 0.0
0.855508 -0.007224 0.0
0.871225 -0.008493 0.0
0.889472 -0.009754 0.0
0.910054 -0.010828 0.0
0.932412 -0.011530 0.0
0.955628 -0.011687 0.0
0.978483 -0.011167 0.0
0.999537 -0.009887 0.0
1.017557 -0.008134 0.0
1.001430 -0.003190 0.0
1.006855 -0.010272 0.0
1.017404 -0.017728 0.0
1.033099 -0.025351 0.0
1.053954 -0.032887 0.0
1.079823 -0.039960 0.0
1.110263 -0.046035 0.0
1.144409 -0.050452 0.0
1.180897 -0.052548 0.0
1.217900 -0.051838 0.0
1.253390 -0.048303 0.0
1.285512 -0.042354 0.0
1.312832 -0.034598 0.0
1.334374 -0.025640 0.0
1.349561 -0.016008 0.0
1.358129 -0.006165 0.0
1.360062 0.003470 0.0
1.355613 0.012493 0.0
1.345330 0.020522 0.0
1.330012 0.027211 0.0
1.310677 0.032266 0.0
1.288523 0.035458 0.0
1.264877 0.036633 0.0
1.241142 0.035714 0.0
1.218746 0.032702 0.0
1.199085 0.027674 0.0
1.183475 0.020785 0.0
1.173074 0.012273 0.0
1.168766 0.002481 0.0
1.171142 -0.008038 0.0
1.180522 -0.018468 0.0
1.196739 -0.027721 0.0
1.218796 -0.034499 0.0
1.244723 -0.037558 0.0
1.271709 -0.036102 0.0
1.296550 -0.030114 0.0
1.316253 -0.020449 0.0
1.328540 -0.008554 0.0
1.332152 0.004121 0.0
1.326887 0.016488 0.0
1.313341 0.027765 0.0
1.292554 0.037450 0.0
1.265800 0.045277 0.0
1.234436 0.051154 0.0
1.199814 0.055100 0.0
1.163229 0.057189 0.0
1.125904 0.057508 0.0
1.088994 0.056134 0.0
1.053597 0.053119 0.0
1.020755 0.048494 0.0
0.991427 0.042282 0.0
0.966414 0.034551 0.0
0.946252 0.025470 0.0
0.931130 0.015360 0.0
0.921020 0.004732 0.0
0.916104 -0.005744 0.0
0.916788 -0.015708 0.0
0.923333 -0.025080 0.0
0.935781 -0.033832 0.0
0.954030 -0.041953 0.0
0.977925 -0.049362 0.0
1.007244 -0.055772 0.0
1.041559 -0.060588 0.0
1.080012 -0.062914 0.0
1.121131 -0.061698 0.0
1.162718 -0.055994 0.0
1.201853 -0.045342 0.0
1.235014 -0.030168 0.0
1.258447 -0.012016 0.0
1.269368 0.006826 0.0
1.267246 0.024516 0.0
1.253210 0.040191 0.0
1.228976 0.053141 0.0
1.196654 0.062799 0.0
1.158616 0.068754 0.0
1.117366 0.070757 0.0
1.075388 0.068741 0.0
1.034983 0.062913 0.0
0.998057 0.053876 0.0
0.965917 0.042699 0.0
0.939127 0.030803 0.0
0.917520 0.019648 0.0
0.900430 0.010369 0.0
0.887136 0.003559 0.0
0.877054 -0.000869 0.0
0.869509 -0.003506 0.0
0.863785 -0.005105 0.0
0.859460 -0.006413 0.0
0.856559 -0.008038 0.0
0.855493 -0.010381 0.0
0.856894 -0.013587 0.0
0.861419 -0.017568 0.0
0.869561 -0.022007 0.0
0.881495 -0.026422 0.0
0.897006 -0.030255 0.0
0.915498 -0.032952 0.0
0.936040 -0.034023 0.0
0.957444 -0.033089 0.0
0.978373 -0.029948 0.0
0.996673 -0.024394 0.0
1.001318 -0.005938 0.0
1.006573 -0.018204 0.0
1.017118 -0.030890 0.0
1.033103 -0.043869 0.0
1.054705 -0.056825 0.0
1.081981 -0.069167 0.0
1.114681 -0.079969 0.0
1.152020 -0.088002 0.0
1.192493 -0.091958 0.0
1.233782 -0.090720 0.0
1.273176 -0.084305 0.0
1.308366 -0.073664 0.0
1.337794 -0.060036 0.0
1.360566 -0.044517 0.0
1.376227 -0.027979 0.0
1.384615 -0.011151 0.0
1.385838 0.005301 0.0
1.380257 0.020692 0.0
1.368475 0.034388 0.0
1.351340 0.045798 0.0
1.329936 0.054419 0.0
1.305532 0.059864 0.0
1.279525 0.061881 0.0
1.253377 0.060348 0.0
1.228567 0.055274 0.0
1.206537 0.046792 0.0
1.188655 0.035158 0.0
1.176197 0.020759 0.0
1.170355 0.004144 0.0
1.172197 -0.013919 0.0
1.182454 -0.032225 0.0
1.201176 -0.048902 0.0
1.227346 -0.061545 0.0
1.258654 -0.067747 0.0
1.291616 -0.065861 0.0
1.322100 -0.055680 0.0
1.346209 -0.038695 0.0
1.361258 -0.017645 0.0
1.366305 0.004553 0.0
1.361731 0.025894 0.0
1.348537 0.045099 0.0
1.328040 0.061400 0.0
1.301682 0.074439 0.0
1.270896 0.084142 0.0
1.237025 0.090606 0.0
1.201290 0.094003 0.0
1.164791 0.094518 0.0
1.128509 0.092314 0.0
1.093323 0.087522 0.0
1.059995 0.080261 0.0
1.029159 0.070679 0.0
1.001317 0.059009 0.0
0.976877 0.045614 0.0
0.956238 0.030976 0.0
0.939841 0.015622 0.0
0.928106 0.000018 0.0
0.921294 -0.015342 0.0
0.919435 -0.030133 0.0
0.922456 -0.044248 0.0
0.930438 -0.057768 0.0
0.943748 -0.070752 0.0
0.962929 -0.082884 0.0
0.988376 -0.093238 0.0
1.019983 -0.100325 0.0
1.056932 -0.102354 0.0
1.097627 -0.097619 0.0
1.139721 -0.084946 0.0
1.180158 -0.064163 0.0
1.215281 -0.036576 0.0
1.241093 -0.005347 0.0
1.254773 0.025132 0.0
1.256045 0.052338 0.0
1.246227 0.075046 0.0
1.227106 0.092337 0.0
1.200747 0.103613 0.0
1.169307 0.108589 0.0
1.134860 0.107333 0.0
1.099238 0.100348 0.0
1.063915 0.088689 0.0
1.029980 0.073961 0.0
0.998193 0.058118 0.0
0.969070 0.043063 0.0
0.942901 0.030213 0.0
0.919678 0.020232 0.0
0.899103 0.013116 0.0
0.880797 0.008360 0.0
0.864521 0.005030 0.0
0.850290 0.002008 0.0
0.838450 -0.001718 0.0
0.829645 -0.006830 0.0
0.824646 -0.013541 0.0
0.824093 -0.021587 0.0
0.828283 -0.030320 0.0
0.837095 -0.038855 0.0
0.850017 -0.046255 0.0
0.866221 -0.051648 0.0
0.884648 -0.054297 0.0
0.904059 -0.053630 0.0
0.923065 -0.049342 0.0
0.939890 -0.040125 0.0
1.001270 -0.008526 0.0
1.006411 -0.026013 0.0
1.016908 -0.044122 0.0
1.033134 -0.062849 0.0
1.055575 -0.081889 0.0
1.084681 -0.100486 0.0
1.120621 -0.117290 0.0
1.162867 -0.130266 0.0
1.209845 -0.137144 0.0
1.258249 -0.135226 0.0
1.303856 -0.124800 0.0
1.343562 -0.108064 0.0
1.375828 -0.087330 0.0
1.400112 -0.064278 0.0
1.416259 -0.040025 0.0
1.424247 -0.015481 0.0
1.424249 0.008405 0.0
1.416666 0.030750 0.0
1.402132 0.050646 0.0
1.381595 0.067213 0.0
1.356291 0.079713 0.0
1.327665 0.087600 0.0
1.297287 0.090530 0.0
1.266787 0.088347 0.0
1.237797 0.081076 0.0
1.211907 0.068910 0.0
1.190628 0.052200 0.0
1.175380 0.031423 0.0
1.167541 0.007161 0.0
1.168454 -0.019690 0.0
1.179188 -0.047445 0.0
1.200076 -0.073292 0.0
1.230234 -0.093482 0.0
1.267318 -0.104201 0.0
1.307593 -0.102642 0.0
1.346216 -0.088006 0.0
1.377960 -0.062222 0.0
1.398575 -0.029782 0.0
1.406287 0.003930 0.0
1.401855 0.035523 0.0
1.387183 0.063336 0.0
1.364369 0.086474 0.0
1.335449 0.104643 0.0
1.302233 0.117940 0.0
1.266245 0.126666 0.0
1.228735 0.131187 0.0
1.190716 0.131854 0.0
1.153005 0.128970 0.0
1.116270 0.122788 0.0
1.081051 0.113543 0.0
1.047797 0.101487 0.0
1.016914 0.086926 0.0
0.988816 0.070235 0.0
0.963927 0.051883 0.0
0.942572 0.032466 0.0
0.924800 0.012681 0.0
0.910375 -0.006766 0.0
0.899052 -0.025526 0.0
0.890970 -0.043794 0.0
0.886937 -0.062171 0.0
0.888394 -0.081116 0.0
0.896912 -0.100219 0.0
0.913522 -0.117959 0.0
0.938329 -0.132019 0.0
0.970536 -0.139815 0.0
1.008654 -0.138973 0.0
1.050702 -0.127733 0.0
1.094262 -0.105374 0.0
1.136442 -0.072668 0.0
1.173752 -0.032378 0.0
1.202014 0.010222 0.0
1.218596 0.049395 0.0
1.223631 0.082773 0.0
1.218362 0.109000 0.0
1.204404 0.127267 0.0
1.183513 0.137266 0.0
1.157410 0.139206 0.0
1.127651 0.133856 0.0
1.095576 0.122579 0.0
1.062330 0.107252 0.0
1.028908 0.090036 0.0
0.996157 0.073019 0.0
0.964709 0.057875 0.0
0.934909 0.045593 0.0
0.906867 0.036371 0.0
0.880650 0.029627 0.0
0.856521 0.024169 0.0
0.835065 0.018555 0.0
0.817123 0.011516 0.0
0.803557 0.002309 0.0
0.795015 -0.009139 0.0
0.791825 -0.022246 0.0
0.793920 -0.035945 0.0
0.800843 -0.048967 0.0
0.811856 -0.060078 0.0
0.826030 -0.068202 0.0
0.842310 -0.072449 0.0
0.859538 -0.072116 0.0
0.876448 -0.066772 0.0
0.891605 -0.054677 0.0
1.001200 -0.010995 0.0
1.006106 -0.033591 0.0
1.016277 -0.057211 0.0
1.032369 -0.082079 0.0
1.055319 -0.108049 0.0
1.086228 -0.134341 0.0
1.126070 -0.159216 0.0
1.174994 -0.179510 0.0
1.231905 -0.191788 0.0
1.291365 -0.188447 0.0
1.345572 -0.171394 0.0
1.390401 -0.146006 0.0
1.425159 -0.116412 0.0
1.450445 -0.084766 0.0
1.466766 -0.052006 0.0
1.474189 -0.018911 0.0
1.472739 0.013283 0.0
1.462666 0.043529 0.0
1.444558 0.070510 0.0
1.419484 0.092959 0.0
1.388901 0.109854 0.0
1.354506 0.120480 0.0
1.318121 0.124412 0.0
1.281607 0.121479 0.0
1.246807 0.111734 0.0
1.215501 0.095448 0.0
1.189345 0.073098 0.0
1.169801 0.045317 0.0
1.158136 0.012771 0.0
1.155588 -0.023665 0.0
1.163295 -0.061911 0.0
1.181786 -0.098206 0.0
1.210546 -0.127487 0.0
1.248020 -0.144755 0.0
1.291674 -0.146016 0.0
1.337587 -0.129169 0.0
1.380058 -0.095275 0.0
1.412332 -0.049617 0.0
1.429207 -0.000821 0.0
1.429993 0.043920 0.0
1.417369 0.082235 0.0
1.394490 0.113268 0.0
1.364242 0.137018 0.0
1.329046 0.153978 0.0
1.290821 0.164841 0.0
1.251028 0.170314 0.0
1.210756 0.171019 0.0
1.170804 0.167467 0.0
1.131760 0.160070 0.0
1.094068 0.149173 0.0
1.058090 0.135089 0.0
1.024165 0.118132 0.0
0.992610 0.098682 0.0
0.963616 0.077318 0.0
0.937074 0.054929 0.0
0.912476 0.032588 0.0
0.889163 0.011066 0.0
0.866943 -0.009816 0.0
0.846882 -0.031361 0.0
0.831390 -0.055081 0.0
0.823327 -0.081599 0.0
0.824770 -0.109697 0.0
0.836300 -0.136622 0.0
0.857196 -0.159060 0.0
0.886057 -0.173842 0.0
0.921278 -0.178285 0.0
0.961204 -0.170395 0.0
1.004085 -0.149154 0.0
1.047926 -0.114910 0.0
1.090299 -0.069819 0.0
1.127986 -0.018286 0.0
1.157028 0.032278 0.0
1.175285 0.076597 0.0
1.183074 0.112657 0.0
1.181335 0.139309 0.0
1.171313 0.156137 0.0
1.154351 0.163400 0.0
1.131766 0.162006 0.0
1.104799 0.153471 0.0
1.074609 0.139795 0.0
1.042278 0.123246 0.0
1.008765 0.106072 0.0
0.974857 0.090179 0.0
0.941156 0.076790 0.0
0.908188 0.066185 0.0
0.876588 0.057631 0.0
0.847240 0.049641 0.0
0.821261 0.040517 0.0
0.799789 0.028967 0.0
0.783703 0.014511 0.0
0.773393 -0.002490 0.0
0.768752 -0.021063 0.0
0.769343 -0.039814 0.0
0.774532 -0.057210 0.0
0.783534 -0.071849 0.0
0.795468 -0.082539 0.0
0.809377 -0.088302 0.0
0.824238 -0.088352 0.0
0.838961 -0.082170 0.0
0.852380 -0.067856 0.0
1.001062 -0.013257 0.0
1.005442 -0.040616 0.0
1.014688 -0.069603 0.0
1.029759 -0.100850 0.0
1.052151 -0.134620 0.0
1.083912 -0.170440 0.0
1.127442 -0.206491 0.0
1.184448 -0.238166 0.0
1.256376 -0.261970 0.0
1.332265 -0.253615 0.0
1.395571 -0.223739 0.0
1.442593 -0.185513 0.0
1.476266 -0.145335 0.0
1.500036 -0.104898 0.0
1.515602 -0.063760 0.0
1.522714 -0.021690 0.0
1.520418 0.019808 0.0
1.508238 0.059255 0.0
1.486533 0.094598 0.0
1.456498 0.123980 0.0
1.419887 0.146027 0.0
1.378729 0.159859 0.0
1.335143 0.165003 0.0
1.291248 0.161297 0.0
1.249121 0.148844 0.0
1.210751 0.128015 0.0
1.177945 0.099493 0.0
1.152093 0.064317 0.0
1.133807 0.023722 0.0
1.123093 -0.021353 0.0
1.120337 -0.069174 0.0
1.126295 -0.115392 0.0
1.141526 -0.154292 0.0
1.166774 -0.180673 0.0
1.202719 -0.189696 0.0
1.248477 -0.177160 0.0
1.300031 -0.141308 0.0
1.349546 -0.085372 0.0
1.386736 -0.019131 0.0
1.404890 0.043291 0.0
1.404892 0.095485 0.0
1.390966 0.136824 0.0
1.366855 0.167821 0.0
1.335646 0.189579 0.0
1.299759 0.203351 0.0
1.261046 0.210311 0.0
1.220887 0.211453 0.0
1.180297 0.207575 0.0
1.140010 0.199293 0.0
1.100562 0.187090 0.0
1.062364 0.171347 0.0
1.025732 0.152430 0.0
0.990816 0.130855 0.0
0.957413 0.107542 0.0
0.924798 0.083863 0.0
0.891940 0.061110 0.0
0.858369 0.039428 0.0
0.825275 0.017134 0.0
0.795718 -0.008692 0.0
0.773716 -0.040256 0.0
0.762435 -0.077080 0.0
0.762712 -0.115936 0.0
0.773396 -0.152597 0.0
0.792619 -0.183203 0.0
0.818671 -0.204613 0.0
0.850236 -0.214300 0.0
0.886254 -0.210326 0.0
0.925699 -0.191548 0.0
0.967360 -0.158017 0.0
1.009672 -0.111397 0.0
1.050547 -0.055270 0.0
1.086649 0.004119 0.0
1.114535 0.058612 0.0
1.132834 0.104553 0.0
1.141702 0.140283 0.0
1.141759 0.165127 0.0
1.133884 0.179247 0.0
1.119077 0.183550 0.0
1.098394 0.179579 0.0
1.072899 0.169372 0.0
1.043636 0.155264 0.0
1.011582 0.139621 0.0
0.977628 0.124492 0.0
0.942621 0.111184 0.0
0.907479 0.099899 0.0
0.873324 0.089673 0.0
0.841496 0.078776 0.0
0.813402 0.065456 0.0
0.790240 0.048662 0.0
0.772757 0.028387 0.0
0.761152 0.005549 0.0
0.755126 -0.018436 0.0
0.754095 -0.042001 0.0
0.757378 -0.063494 0.0
0.764229 -0.081419 0.0
0.773842 -0.094516 0.0
0.785360 -0.101752 0.0
0.797883 -0.102286 0.0
0.810479 -0.095555 0.0
0.822185 -0.079596 0.0
1.000813 -0.015131 0.0
1.004208 -0.046517 0.0
1.011557 -0.080297 0.0
1.024040 -0.117710 0.0
1.043695 -0.159806 0.0
1.073717 -0.207037 0.0
1.118728 -0.258434 0.0
1.183688 -0.308189 0.0
1.278273 -0.358459 0.0
1.375790 -0.330531 0.0
1.440412 -0.274750 0.0
1.477632 -0.218746 0.0
1.500107 -0.168250 0.0
1.516166 -0.121812 0.0
1.529135 -0.075381 0.0
1.537471 -0.025517 0.0
1.537182 0.026221 0.0
1.525620 0.076584 0.0
1.502562 0.122032 0.0
1.469347 0.159796 0.0
1.428075 0.188094 0.0
1.381094 0.205932 0.0
1.330765 0.212845 0.0
1.279394 0.208719 0.0
1.229223 0.193719 0.0
1.182407 0.168326 0.0
1.140911 0.133485 0.0
1.106121 0.090968 0.0
1.077781 0.043697 0.0
1.052911 -0.005743 0.0
1.028934 -0.058051 0.0
1.007517 -0.111056 0.0
0.993596 -0.159938 0.0
0.993451 -0.200130 0.0
1.012130 -0.224864 0.0
1.050739 -0.226360 0.0
1.106070 -0.198994 0.0
1.171170 -0.142302 0.0
1.235334 -0.063556 0.0
1.284750 0.020147 0.0
1.312533 0.090843 0.0
1.321622 0.146303 0.0
1.316305 0.187769 0.0
1.300072 0.217074 0.0
1.275734 0.236081 0.0
1.245559 0.246469 0.0
1.211371 0.249641 0.0
1.174618 0.246730 0.0
1.136425 0.238619 0.0
1.097653 0.225984 0.0
1.058939 0.209365 0.0
1.020661 0.189323 0.0
0.982770 0.166770 0.0
0.944542 0.143257 0.0
0.904695 0.120611 0.0
0.862368 0.099547 0.0
0.818762 0.078167 0.0
0.777938 0.052314 0.0
0.745363 0.018261 0.0
0.724867 -0.024710 0.0
0.717042 -0.073521 0.0
0.720107 -0.122837 0.0
0.731540 -0.167813 0.0
0.749256 -0.204926 0.0
0.771921 -0.231608 0.0
0.798814 -0.245761 0.0
0.829543 -0.245612 0.0
0.863762 -0.229925 0.0
0.900918 -0.198458 0.0
0.940091 -0.152441 0.0
0.979873 -0.094882 0.0
1.018175 -0.030673 0.0
1.051529 0.032163 0.0
1.077121 0.087111 0.0
1.094205 0.131774 0.0
1.102732 0.165052 0.0
1.103066 0.186864 0.0
1.095827 0.197979 0.0
1.081796 0.199864 0.0
1.061852 0.194526 0.0
1.036917 0.184308 0.0
1.007929 0.171618 0.0
0.975849 0.158529 0.0
0.941724 0.146280 0.0
0.906781 0.134888 0.0
0.872463 0.123157 0.0
0.840339 0.109244 0.0
0.811883 0.091539 0.0
0.788219 0.069404 0.0
0.769970 0.043376 0.0
0.757263 0.014873 0.0
0.749820 -0.014292 0.0
0.747111 -0.042406 0.0
0.748501 -0.067762 0.0
0.753299 -0.088800 0.0
0.760756 -0.104205 0.0
0.770083 -0.112907 0.0
0.780472 -0.114042 0.0
0.791119 -0.107041 0.0
0.801215 -0.089913 0.0
1.000425 -0.016369 0.0
1.002247 -0.050497 0.0
1.006399 -0.087817 0.0
1.014042 -0.130318 0.0
1.027416 -0.180227 0.0
1.050627 -0.239849 0.0
1.090964 -0.310969 0.0
1.159344 -0.388994 0.0
1.285409 -0.498303 0.0
1.401754 -0.404549 0.0
1.439239 -0.302839 0.0
1.440278 -0.228917 0.0
1.433702 -0.173977 0.0
1.431367 -0.129810 0.0
1.438188 -0.087172 0.0
1.451707 -0.035582 0.0
1.461183 0.027098 0.0
1.457864 0.090588 0.0
1.440639 0.148310 0.0
1.411036 0.196335 0.0
1.371339 0.232524 0.0
1.323963 0.255860 0.0
1.271241 0.265968 0.0
1.215400 0.262808 0.0
1.158582 0.246619 0.0
1.102823 0.218001 0.0
1.049995 0.178134 0.0
1.001482 0.129622 0.0
0.956617 0.078246 0.0
0.910264 0.030931 0.0
0.854471 -0.014956 0.0
0.793479 -0.071743 0.0
0.747171 -0.139022 0.0
0.730894 -0.204623 0.0
0.746152 -0.254307 0.0
0.787356 -0.276730 0.0
0.848077 -0.264676 0.0
0.922445 -0.216087 0.0
1.004058 -0.135548 0.0
1.083169 -0.036388 0.0
1.145916 0.056847 0.0
1.186603 0.130524 0.0
1.209051 0.186418 0.0
1.216604 0.227103 0.0
1.212042 0.254952 0.0
1.197782 0.272033 0.0
1.175949 0.280098 0.0
1.148381 0.280595 0.0
1.116629 0.274699 0.0
1.081947 0.263358 0.0
1.045249 0.247404 0.0
1.006953 0.227856 0.0
0.966731 0.206350 0.0
0.923515 0.185121 0.0
0.876411 0.165699 0.0
0.826511 0.146686 0.0
0.778091 0.123055 0.0
0.737343 0.088998 0.0
0.709171 0.042324 0.0
0.694823 -0.013930 0.0
0.692216 -0.073869 0.0
0.698108 -0.131446 0.0
0.709828 -0.182356 0.0
0.725643 -0.223914 0.0
0.744633 -0.254275 0.0
0.766496 -0.271849 0.0
0.791336 -0.275093 0.0
0.819378 -0.262705 0.0
0.850674 -0.234130 0.0
0.884870 -0.190138 0.0
0.921096 -0.133193 0.0
0.957926 -0.067494 0.0
0.992864 0.000691 0.0
1.022727 0.063129 0.0
1.045497 0.115902 0.0
1.060536 0.157358 0.0
1.067712 0.187049 0.0
1.067244 0.205500 0.0
1.059600 0.214018 0.0
1.045415 0.214502 0.0
1.025444 0.209237 0.0
1.000545 0.200575 0.0
0.971706 0.190491 0.0
0.940103 0.180046 0.0
0.907143 0.169025 0.0
0.874414 0.156065 0.0
0.843529 0.139344 0.0
0.815892 0.117532 0.0
0.792520 0.090448 0.0
0.773983 0.059118 0.0
0.760449 0.025371 0.0
0.751781 -0.008679 0.0
0.747590 -0.041119 0.0
0.747331 -0.070179 0.0
0.750369 -0.094219 0.0
0.755994 -0.111868 0.0
0.763454 -0.122033 0.0
0.772006 -0.123858 0.0
0.780943 -0.116809 0.0
0.789572 -0.098870 0.0
0.999900 -0.016694 0.0
0.999560 -0.051655 0.0
0.999152 -0.090401 0.0
0.999378 -0.135603 0.0
1.001862 -0.190801 0.0
1.010309 -0.260933 0.0
1.033201 -0.353114 0.0
1.088934 -0.470964 0.0
1.243142 -0.696606 0.0
1.347324 -0.426773 0.0
1.296978 -0.267754 0.0
1.226337 -0.194400 0.0
1.173264 -0.148844 0.0
1.140509 -0.119854 0.0
1.133611 -0.097051 0.0
1.155074 -0.060686 0.0
1.190496 0.007304 0.0
1.216144 0.088054 0.0
1.223082 0.161131 0.0
1.214164 0.222036 0.0
1.191815 0.268870 0.0
1.157910 0.300796 0.0
1.114158 0.317506 0.0
1.062287 0.318982 0.0
1.003885 0.305665 0.0
0.939434 0.279165 0.0
0.866075 0.243156 0.0
0.776816 0.202374 0.0
0.668646 0.158529 0.0
0.557196 0.108452 0.0
0.474085 0.046428 0.0
0.437692 -0.035742 0.0
0.440824 -0.131848 0.0
0.467966 -0.222663 0.0
0.509207 -0.292764 0.0
0.561637 -0.331907 0.0
0.625061 -0.333643 0.0
0.699166 -0.295593 0.0
0.782358 -0.220846 0.0
0.871049 -0.118891 0.0
0.955780 -0.008128 0.0
1.024154 0.086439 0.0
1.072608 0.159601 0.0
1.104115 0.214860 0.0
1.120923 0.254950 0.0
1.125093 0.282125 0.0
1.118621 0.298313 0.0
1.103394 0.305175 0.0
1.081124 0.304140 0.0
1.053256 0.296468 0.0
1.020803 0.283445 0.0
0.984110 0.266803 0.0
0.942752 0.248983 0.0
0.896159 0.232298 0.0
0.845214 0.216570 0.0
0.793763 0.197165 0.0
0.748038 0.166722 0.0
0.713680 0.120435 0.0
0.692940 0.059799 0.0
0.684579 -0.008695 0.0
0.685647 -0.077565 0.0
0.693135 -0.141130 0.0
0.704725 -0.195982 0.0
0.718859 -0.240239 0.0
0.734673 -0.272753 0.0
0.751958 -0.292519 0.0
0.771068 -0.298374 0.0
0.792675 -0.289074 0.0
0.817406 -0.263787 0.0
0.845498 -0.222770 0.0
0.876604 -0.167894 0.0
0.909755 -0.102774 0.0
0.943314 -0.032527 0.0
0.974422 0.035377 0.0
1.000372 0.094934 0.0
1.019870 0.143789 0.0
1.032292 0.181021 0.0
1.037461 0.206827 0.0
1.035517 0.222279 0.0
1.026836 0.229107 0.0
1.011983 0.229456 0.0
0.991708 0.225530 0.0
0.966978 0.219105 0.0
0.939016 0.210997 0.0
0.909281 0.200769 0.0
0.879361 0.186970 0.0
0.850776 0.167909 0.0
0.824797 0.142583 0.0
0.802342 0.111223 0.0
0.783985 0.075238 0.0
0.770012 0.036758 0.0
0.760466 -0.001852 0.0
0.755132 -0.038422 0.0
0.753580 -0.071063 0.0
0.755230 -0.098023 0.0
0.759399 -0.117858 0.0
0.765356 -0.129461 0.0
0.772392 -0.132017 0.0
0.779872 -0.125067 0.0
0.787182 -0.106550 0.0
0.999292 -0.015886 0.0
0.996426 -0.049257 0.0
0.990547 -0.086511 0.0
0.981396 -0.130568 0.0
0.968796 -0.185720 0.0
0.953321 -0.258986 0.0
0.938575 -0.363206 0.0
0.939686 -0.517716 0.0
1.042357 -0.906732 0.0
1.037109 -0.207974 0.0
0.835054 -0.114117 0.0
0.683066 -0.112981 0.0
0.597685 -0.091808 0.0
0.544932 -0.091382 0.0
0.537573 -0.111265 0.0
0.580614 -0.110976 0.0
0.661759 -0.058973 0.0
0.748727 0.041716 0.0
0.812416 0.136842 0.0
0.851543 0.216116 0.0
0.869146 0.279535 0.0
0.866494 0.326688 0.0
0.844463 0.357398 0.0
0.803389 0.372035 0.0
0.742267 0.372135 0.0
0.658538 0.360876 0.0
0.551811 0.341530 0.0
0.433143 0.311927 0.0
0.328116 0.262172 0.0
0.262014 0.182361 0.0
0.242446 0.075198 0.0
0.258824 -0.044497 0.0
0.293065 -0.160466 0.0
0.332795 -0.260917 0.0
0.375136 -0.338092 0.0
0.421589 -0.385462 0.0
0.475294 -0.397217 0.0
0.538918 -0.369749 0.0
0.613195 -0.304159 0.0
0.696546 -0.207620 0.0
0.785118 -0.092701 0.0
0.868249 0.019508 0.0
0.935470 0.110857 0.0
0.985512 0.182055 0.0
1.020139 0.236320 0.0
1.040808 0.275915 0.0
1.049050 0.302752 0.0
1.046460 0.318552 0.0
1.034583 0.324910 0.0
1.014742 0.323407 0.0
0.987808 0.315893 0.0
0.954012 0.304844 0.0
0.913250 0.293062 0.0
0.866259 0.281803 0.0
0.816183 0.268086 0.0
0.768813 0.244470 0.0
0.730377 0.203578 0.0
0.704460 0.143854 0.0
0.690971 0.070609 0.0
0.687608 -0.007780 0.0
0.691630 -0.083571 0.0
0.700599 -0.151580 0.0
0.712503 -0.209025 0.0
0.725793 -0.254619 0.0
0.739462 -0.287855 0.0
0.753173 -0.308413 0.0
0.767301 -0.315719 0.0
0.782788 -0.308824 0.0
0.800776 -0.286756 0.0
0.822135 -0.249252 0.0
0.847107 -0.197490 0.0
0.875185 -0.134407 0.0
0.905200 -0.064468 0.0
0.935028 0.006383 0.0
0.961942 0.071065 0.0
0.983940 0.126162 0.0
0.999971 0.170195 0.0
1.009492 0.202963 0.0
1.012333 0.225246 0.0
1.008612 0.238542 0.0
0.998698 0.244787 0.0
0.983217 0.245955 0.0
0.963074 0.243553 0.0
0.939458 0.238127 0.0
0.913774 0.229056 0.0
0.887496 0.214882 0.0
0.861976 0.194103 0.0
0.838318 0.166027 0.0
0.817353 0.131200 0.0
0.799687 0.091285 0.0
0.785741 0.048630 0.0
0.775744 0.005819 0.0
0.769664 -0.034680 0.0
0.767192 -0.070780 0.0
0.767812 -0.100577 0.0
0.770871 -0.122531 0.0
0.775650 -0.135524 0.0
0.781459 -0.138799 0.0
0.787707 -0.132012 0.0
0.793831 -0.113039 0.0
0.998711 -0.013889 0.0
0.993418 -0.043095 0.0
0.982222 -0.075598 0.0
0.963704 -0.113813 0.0
0.935204 -0.161376 0.0
0.891830 -0.224481 0.0
0.823972 -0.315106 0.0
0.713840 -0.456794 0.0
0.322682 -0.786775 0.0
-0.469198 0.286514 0.0
-0.469198 0.000000 0.0
-0.043994 -0.031342 0.0
-0.078780 -0.065932 0.0
-0.030790 -0.112495 0.0
0.055078 -0.168661 0.0
0.144181 -0.185724 0.0
0.228557 -0.149747 0.0
0.320488 -0.046409 0.0
0.407649 0.074115 0.0
0.472080 0.175286 0.0
0.514131 0.260711 0.0
0.532037 0.330257 0.0
0.524030 0.383866 0.0
0.488494 0.422177 0.0
0.425072 0.446537 0.0
0.338249 0.457027 0.0
0.243047 0.447307 0.0
0.166425 0.401440 0.0
0.129301 0.314811 0.0
0.132353 0.192772 0.0
0.163738 0.052970 0.0
0.207630 -0.082540 0.0
0.252357 -0.201391 0.0
0.293218 -0.300582 0.0
0.329531 -0.377081 0.0
0.363853 -0.427249 0.0
0.401150 -0.446432 0.0
0.446970 -0.429977 0.0
0.504955 -0.376194 0.0
0.575285 -0.289267 0.0
0.655007 -0.179349 0.0
0.738579 -0.060547 0.0
0.815084 0.047185 0.0
0.876730 0.134040 0.0
0.923644 0.202794 0.0
0.956712 0.255704 0.0
0.976891 0.294542 0.0
0.985285 0.320959 0.0
0.983028 0.336638 0.0
0.971076 0.343470 0.0
0.950003 0.343838 0.0
0.920054 0.340645 0.0
0.881879 0.336199 0.0
0.837866 0.329669 0.0
0.792955 0.315207 0.0
0.753447 0.284226 0.0
0.724181 0.231525 0.0
0.706607 0.159398 0.0
0.699410 0.075750 0.0
0.700324 -0.010473 0.0
0.707148 -0.091725 0.0
0.717867 -0.163114 0.0
0.730642 -0.222171 0.0
0.743886 -0.268006 0.0
0.756419 -0.300671 0.0
0.767677 -0.320566 0.0
0.777868 -0.327886 0.0
0.787980 -0.322256 0.0
0.799498 -0.302830 0.0
0.813896 -0.268935 0.0
0.832095 -0.220977 0.0
0.854156 -0.161060 0.0
0.879294 -0.092968 0.0
0.906013 -0.021664 0.0
0.931910 0.046300 0.0
0.954620 0.106220 0.0
0.972712 0.156014 0.0
0.985303 0.195030 0.0
0.991936 0.223704 0.0
0.992489 0.243252 0.0
0.987144 0.255336 0.0
0.976392 0.261640 0.0
0.961039 0.263365 0.0
0.942177 0.260794 0.0
0.921079 0.253171 0.0
0.899031 0.239093 0.0
0.877174 0.217269 0.0
0.856432 0.187261 0.0
0.837548 0.149816 0.0
0.821149 0.106734 0.0
0.807768 0.060507 0.0
0.797793 0.013914 0.0
0.791359 -0.030261 0.0
0.788293 -0.069661 0.0
0.788163 -0.102187 0.0
0.790362 -0.126179 0.0
0.794199 -0.140492 0.0
0.798992 -0.144433 0.0
0.804173 -0.137805 0.0
0.809205 -0.118403 0.0
0.998283 -0.010883 0.0
0.991215 -0.033741 0.0
0.976177 -0.058718 0.0
0.951041 -0.087039 0.0
0.911699 -0.120308 0.0
0.850228 -0.160704 0.0
0.750235 -0.211033 0.0
0.572786 -0.273286 0.0
0.228876 -0.337594 0.0
0.000000 0.286514 0.0
-0.000000 -0.000000 0.0
0.000000 0.000000 0.0
-0.037912 -0.037570 0.0
-0.082447 -0.144654 0.0
-0.082235 -0.222583 0.0
-0.062444 -0.240696 0.0
-0.035726 -0.205870 0.0
0.007189 -0.125131 0.0
0.074592 -0.001726 0.0
0.142136 0.119152 0.0
0.190743 0.226188 0.0
0.217427 0.320190 0.0
0.218857 0.400510 0.0
0.194330 0.465596 0.0
0.148500 0.512368 0.0
0.093461 0.533059 0.0
0.051640 0.508299 0.0
0.044364 0.424345 0.0
0.072655 0.300740 0.0
0.124097 0.152348 0.0
0.185236 0.000870 0.0
0.243862 -0.132959 0.0
0.293866 -0.245704 0.0
0.333736 -0.336999 0.0
0.363246 -0.406486 0.0
0.384519 -0.453439 0.0
0.402648 -0.475668 0.0
0.425104 -0.469018 0.0
0.459209 -0.429244 0.0
0.508736 -0.356073 0.0
0.572391 -0.255920 0.0
0.645261 -0.140416 0.0
0.719766 -0.023957 0.0
0.786282 0.077021 0.0
0.839858 0.159323 0.0
0.880759 0.225207 0.0
0.909358 0.276261 0.0
0.926193 0.314010 0.0
0.931856 0.340180 0.0
0.926824 0.356912 0.0
0.911397 0.366895 0.0
0.886085 0.372848 0.0
0.852569 0.375688 0.0
0.814693 0.372070 0.0
0.778190 0.354220 0.0
0.748587 0.314323 0.0
0.728839 0.250443 0.0
0.718919 0.167974 0.0
0.717258 0.076033 0.0
0.722096 -0.016508 0.0
0.731700 -0.102119 0.0
0.744278 -0.176017 0.0
0.758105 -0.235870 0.0
0.771608 -0.281054 0.0
0.783526 -0.312074 0.0
0.793104 -0.329998 0.0
0.800305 -0.335847 0.0
0.805947 -0.330047 0.0
0.811604 -0.312214 0.0
0.819186 -0.281531 0.0
0.830292 -0.237686 0.0
0.845679 -0.181800 0.0
0.865089 -0.116775 0.0
0.887418 -0.046905 0.0
0.910706 0.022355 0.0
0.932644 0.085517 0.0
0.951442 0.139826 0.0
0.965933 0.184135 0.0
0.975406 0.218494 0.0
0.979525 0.243790 0.0
0.978302 0.261366 0.0
0.972085 0.272578 0.0
0.961557 0.278309 0.0
0.947666 0.278603 0.0
0.931502 0.272624 0.0
0.914126 0.259063 0.0
0.896450 0.236831 0.0
0.879215 0.205676 0.0
0.863053 0.166447 0.0
0.848568 0.120988 0.0
0.836347 0.071854 0.0
0.826888 0.022002 0.0
0.820474 -0.025501 0.0
0.817078 -0.067960 0.0
0.816376 -0.103056 0.0
0.817846 -0.128979 0.0
0.820848 -0.144530 0.0
0.824727 -0.149067 0.0
0.828922 -0.142547 0.0
0.832905 -0.122676 0.0
0.998094 -0.007259 0.0
0.990261 -0.022464 0.0
0.973690 -0.038385 0.0
0.946330 -0.054874 0.0
0.904505 -0.071306 0.0
0.842079 -0.085810 0.0
0.749731 -0.093587 0.0
0.616271 -0.079823 0.0
0.439458 -0.005104 0.0
0.170537 0.152585 0.0
0.000000 0.000000 0.0
-0.000000 -0.000000 0.0
0.000000 0.000000 0.0
-0.068150 -0.069015 0.0
-0.155066 -0.210654 0.0
-0.176880 -0.250602 0.0
-0.185438 -0.214123 0.0
-0.186400 -0.158831 0.0
-0.159064 -0.062764 0.0
-0.107265 0.060847 0.0
-0.054791 0.183412 0.0
-0.017621 0.299111 0.0
-0.000279 0.402818 0.0
-0.000415 0.487952 0.0
-0.009868 0.545294 0.0
-0.013901 0.559205 0.0
0.007113 0.502959 0.0
0.057067 0.387007 0.0
0.125577 0.241278 0.0
0.203884 0.082062 0.0
0.279124 -0.065222 0.0
0.342831 -0.189199 0.0
0.394086 -0.290723 0.0
0.432072 -0.369835 0.0
0.456410 -0.427498 0.0
0.467958 -0.465248 0.0
0.469974 -0.484003 0.0
0.469155 -0.482319 0.0
0.474914 -0.455808 0.0
0.495829 -0.399950 0.0
0.535273 -0.315144 0.0
0.590222 -0.209011 0.0
0.653943 -0.093589 0.0
0.717314 0.016765 0.0
0.772607 0.110709 0.0
0.817204 0.188323 0.0
0.850820 0.250931 0.0
0.873408 0.299917 0.0
0.885004 0.337014 0.0
0.885649 0.364465 0.0
0.875573 0.384845 0.0
0.855804 0.399980 0.0
0.829048 0.408828 0.0
0.799977 0.405877 0.0
0.774026 0.382866 0.0
0.755182 0.334124 0.0
0.744717 0.260855 0.0
0.741905 0.170294 0.0
0.745453 0.071826 0.0
0.754083 -0.025769 0.0
0.766319 -0.114699 0.0
0.780508 -0.190203 0.0
0.795039 -0.250042 0.0
0.808460 -0.293806 0.0
0.819578 -0.322358 0.0
0.827591 -0.337306 0.0
0.832274 -0.340422 0.0
0.834175 -0.333014 0.0
0.834705 -0.315435 0.0
0.835919 -0.287106 0.0
0.839939 -0.247236 0.0