# vtk DataFile Version 3.0
Vector Field
ASCII
DATASET RECTILINEAR_GRID
DIMENSIONS 100 26 1
X_COORDINATES 100 double
0.050000 0.150000 0.250000 0.350000 0.450000 0.550000 0.650000 0.750000 0.850000 0.950000 1.050000 1.150000 1.250000 1.350000 1.450000 1.550000 1.650000 1.750000 1.850000 1.950000 2.050000 2.150000 2.250000 2.350000 2.450000 2.550000 2.650000 2.750000 2.850000 2.950000 3.050000 3.150000 3.250000 3.350000 3.450000 3.550000 3.650000 3.750000 3.850000 3.950000 4.050000 4.150000 4.250000 4.350000 4.450000 4.550000 4.650000 4.750000 4.850000 4.950000 5.050000 5.150000 5.250000 5.350000 5.450000 5.550000 5.650000 5.750000 5.850000 5.950000 6.050000 6.150000 6.250000 6.350000 6.450000 6.550000 6.650000 6.750000 6.850000 6.950000 7.050000 7.150000 7.250000 7.350000 7.450000 7.550000 7.650000 7.750000 7.850000 7.950000 8.050000 8.150000 8.250000 8.350000 8.450000 8.550000 8.650000 8.750000 8.850000 8.950000 9.050000 9.150000 9.250000 9.350000 9.450000 9.550000 9.650000 9.750000 9.850000 9.950000 
Y_COORDINATES 26 double
0.050000 0.150000 0.250000 0.350000 0.450000 0.550000 0.650000 0.750000 0.850000 0.950000 1.050000 1.150000 1.250000 1.350000 1.450000 1.550000 1.650000 1.750000 1.850000 1.950000 2.050000 2.150000 2.250000 2.350000 2.450000 2.550000 
Z_COORDINATES 1 double
0.0
POINT_DATA 2600
VECTORS Vektorfeld double
1.000735 -0.000735 0.0
1.004146 -0.002676 0.0
1.011620 -0.004798 0.0
1.023415 -0.006997 0.0
1.039609 -0.009197 0.0
1.060103 -0.011298 0.0
1.084563 -0.013162 0.0
1.112349 -0.014624 0.0
1.142503 -0.015529 0.0
1.173813 -0.015781 0.0
1.204994 -0.015401 0.0
1.234909 -0.014514 0.0
1.262720 -0.013297 0.0
1.287925 -0.011907 0.0
1.310289 -0.010457 0.0
1.329732 -0.008987 0.0
1.346194 -0.007475 0.0
1.359521 -0.005852 0.0
1.369397 -0.004025 0.0
1.375346 -0.001924 0.0
1.376812 0.000459 0.0
1.373245 0.003108 0.0
1.364211 0.005926 0.0
1.349511 0.008774 0.0
1.329241 0.011495 0.0
1.303803 0.013943 0.0
1.273864 0.015996 0.0
1.240304 0.017563 0.0
1.204151 0.018590 0.0
1.166518 0.019044 0.0
1.128558 0.018916 0.0
1.091435 0.018207 0.0
1.056300 0.016929 0.0
1.024277 0.015094 0.0
0.996467 0.012716 0.0
0.973957 0.009794 0.0
0.957865 0.006299 0.0
0.949365 0.002201 0.0
0.949494 -0.002331 0.0
0.958804 -0.006979 0.0
0.977266 -0.011484 0.0
1.004273 -0.015523 0.0
1.038489 -0.018694 0.0
1.077750 -0.020567 0.0
1.119090 -0.020774 0.0
1.158982 -0.019118 0.0
1.193771 -0.015671 0.0
1.220277 -0.010835 0.0
1.236412 -0.005300 0.0
1.241508 0.000204 0.0
1.235951 0.005353 0.0
1.220660 0.009938 0.0
1.196929 0.013793 0.0
1.166309 0.016827 0.0
1.130466 0.019016 0.0
1.091074 0.020376 0.0
1.049748 0.020950 0.0
1.008014 0.020784 0.0
0.967324 0.019906 0.0
0.929088 0.018331 0.0
0.894694 0.016064 0.0
0.865492 0.013138 0.0
0.842703 0.009651 0.0
0.827261 0.005792 0.0
0.819605 0.001864 0.0
0.819395 -0.001655 0.0
0.825547 -0.004497 0.0
0.836831 -0.006787 0.0
0.852334 -0.008715 0.0
0.871507 -0.010458 0.0
0.894117 -0.012151 0.0
0.920129 -0.013861 0.0
0.949554 -0.015564 0.0
0.982249 -0.017131 0.0
1.017713 -0.018333 0.0
1.054907 -0.018861 0.0
1.092143 -0.018374 0.0
1.127076 -0.016559 0.0
1.156875 -0.013240 0.0
1.178646 -0.008531 0.0
1.190121 -0.002944 0.0
1.190215 0.002849 0.0
1.178852 0.008513 0.0
1.156537 0.013802 0.0
1.124340 0.018394 0.0
1.084013 0.021933 0.0
1.038035 0.024044 0.0
0.989605 0.024386 0.0
0.942451 0.022769 0.0
0.900368 0.019314 0.0
0.866527 0.014527 0.0
0.842813 0.009187 0.0
0.829517 0.004108 0.0
0.825434 -0.000026 0.0
0.828144 -0.002684 0.0
0.834804 -0.003976 0.0
0.843009 -0.004229 0.0
0.850899 -0.003660 0.0
0.856939 -0.002380 0.0
0.858264 0.001056 0.0
1.001281 -0.002751 0.0
1.006086 -0.008875 0.0
1.015352 -0.015339 0.0
1.029098 -0.021996 0.0
1.047375 -0.028669 0.0
1.070129 -0.035075 0.0
1.097078 -0.040793 0.0
1.127598 -0.045299 0.0
1.160667 -0.048076 0.0
1.194909 -0.048786 0.0
1.228832 -0.047501 0.0
1.261162 -0.044659 0.0
1.291040 -0.040841 0.0
1.318039 -0.036566 0.0
1.342054 -0.032177 0.0
1.363145 -0.027801 0.0
1.381380 -0.023358 0.0
1.396693 -0.018610 0.0
1.408802 -0.013251 0.0
1.417182 -0.007027 0.0
1.421124 0.000155 0.0
1.419901 0.008203 0.0
1.412966 0.016800 0.0
1.400069 0.025498 0.0
1.381306 0.033804 0.0
1.357119 0.041261 0.0
1.328241 0.047496 0.0
1.295620 0.052243 0.0
1.260346 0.055338 0.0
1.223580 0.056696 0.0
1.186512 0.056292 0.0
1.150326 0.054139 0.0
1.116185 0.050274 0.0
1.085212 0.044744 0.0
1.058484 0.037603 0.0
1.037006 0.028895 0.0
1.021638 0.018659 0.0
1.013009 0.006970 0.0
1.011660 -0.005880 0.0
1.018315 -0.019394 0.0
1.033676 -0.032891 0.0
1.057900 -0.045345 0.0
1.090274 -0.055462 0.0
1.129110 -0.061894 0.0
1.171797 -0.063473 0.0
1.214961 -0.059475 0.0
1.254789 -0.049930 0.0
1.287562 -0.035855 0.0
1.310324 -0.019177 0.0
1.321427 -0.002119 0.0
1.320806 0.013855 0.0
1.309532 0.028002 0.0
1.289148 0.039842 0.0
1.261413 0.049132 0.0
1.228148 0.055819 0.0
1.191132 0.059979 0.0
1.152055 0.061751 0.0
1.112492 0.061280 0.0
1.073904 0.058687 0.0
1.037629 0.054062 0.0
1.004837 0.047519 0.0
0.976441 0.039281 0.0
0.952969 0.029768 0.0
0.934472 0.019613 0.0
0.920597 0.009575 0.0
0.911017 0.000424 0.0
0.905691 -0.007401 0.0
0.904545 -0.014022 0.0
0.907384 -0.019822 0.0
0.914085 -0.025226 0.0
0.924697 -0.030605 0.0
0.939462 -0.036183 0.0
0.958715 -0.041920 0.0
0.982696 -0.047451 0.0
1.011321 -0.052104 0.0
1.044027 -0.054991 0.0
1.079682 -0.055135 0.0
1.116582 -0.051632 0.0
1.152479 -0.043863 0.0
1.184582 -0.031783 0.0
1.209627 -0.016212 0.0
1.224492 0.001158 0.0
1.227689 0.018371 0.0
1.219603 0.034346 0.0
1.201502 0.048148 0.0
1.175205 0.058804 0.0
1.142996 0.065360 0.0
1.107471 0.067025 0.0
1.071303 0.063452 0.0
1.036960 0.055056 0.0
1.006421 0.043164 0.0
0.980925 0.029760 0.0
0.960832 0.016925 0.0
0.945760 0.006311 0.0
0.935161 -0.001131 0.0
0.928336 -0.005365 0.0
0.924099 -0.006808 0.0
0.921035 -0.005907 0.0
0.917780 -0.002920 0.0
0.913176 0.004877 0.0
1.001164 -0.005197 0.0
1.005770 -0.015839 0.0
1.014964 -0.026836 0.0
1.028880 -0.038160 0.0
1.047711 -0.049614 0.0
1.071587 -0.060760 0.0
1.100393 -0.070863 0.0
1.133571 -0.078927 0.0
1.169956 -0.083902 0.0
1.207721 -0.084968 0.0
1.244781 -0.082301 0.0
1.279474 -0.076881 0.0
1.310877 -0.069900 0.0
1.338726 -0.062355 0.0
1.363189 -0.054866 0.0
1.384620 -0.047634 0.0
1.403335 -0.040475 0.0
1.419426 -0.032898 0.0
1.432621 -0.024267 0.0
1.442257 -0.014028 0.0
1.447421 -0.001950 0.0
1.447192 0.011760 0.0
1.440860 0.026510 0.0
1.428078 0.041466 0.0
1.408951 0.055726 0.0
1.384004 0.068473 0.0
1.354093 0.079072 0.0
1.320288 0.087092 0.0
1.283766 0.092285 0.0
1.245737 0.094543 0.0
1.207394 0.093855 0.0
1.169884 0.090271 0.0
1.134295 0.083873 0.0
1.101646 0.074767 0.0
1.072879 0.063073 0.0
1.048866 0.048916 0.0
1.030447 0.032425 0.0
1.018542 0.013736 0.0
1.014221 -0.006977 0.0
1.018535 -0.029266 0.0
1.032161 -0.052006 0.0
1.055091 -0.073385 0.0
1.086566 -0.091272 0.0
1.125199 -0.103555 0.0
1.169031 -0.108331 0.0
1.215380 -0.104130 0.0
1.260654 -0.090377 0.0
1.300488 -0.068015 0.0
1.330523 -0.039813 0.0
1.347781 -0.009844 0.0
1.351785 0.018197 0.0
1.343983 0.042736 0.0
1.326415 0.063060 0.0
1.301193 0.078871 0.0
1.270350 0.090190 0.0
1.235738 0.097236 0.0
1.198992 0.100317 0.0
1.161525 0.099744 0.0
1.124534 0.095801 0.0
1.089000 0.088757 0.0
1.055670 0.078946 0.0
1.025050 0.066871 0.0
0.997438 0.053263 0.0
0.973020 0.039034 0.0
0.951955 0.025094 0.0
0.934352 0.012087 0.0
0.920240 0.000374 0.0
0.909580 -0.009992 0.0
0.902284 -0.019395 0.0
0.898411 -0.028481 0.0
0.898364 -0.037916 0.0
0.902872 -0.048145 0.0
0.912776 -0.059115 0.0
0.928696 -0.070155 0.0
0.950754 -0.080084 0.0
0.978472 -0.087434 0.0
1.010815 -0.090688 0.0
1.046304 -0.088469 0.0
1.083120 -0.079738 0.0
1.119150 -0.064041 0.0
1.151989 -0.041838 0.0
1.178869 -0.014961 0.0
1.196960 0.013203 0.0
1.204954 0.039605 0.0
1.203338 0.062607 0.0
1.193250 0.080730 0.0
1.176225 0.092666 0.0
1.153988 0.097482 0.0
1.128241 0.094911 0.0
1.100530 0.085652 0.0
1.072203 0.071435 0.0
1.044465 0.054723 0.0
1.018418 0.038104 0.0
0.994963 0.023658 0.0
0.974539 0.012545 0.0
0.957057 0.005265 0.0
0.942106 0.001751 0.0
0.929120 0.001585 0.0
0.917602 0.004360 0.0
0.907852 0.011951 0.0
1.001108 -0.007469 0.0
1.005564 -0.022628 0.0
1.014623 -0.038300 0.0
1.028619 -0.054607 0.0
1.048027 -0.071406 0.0
1.073329 -0.088146 0.0
1.104788 -0.103741 0.0
1.142065 -0.116504 0.0
1.183883 -0.124528 0.0
1.227504 -0.125728 0.0
1.269501 -0.120598 0.0
1.307498 -0.111276 0.0
1.340594 -0.100005 0.0
1.368944 -0.088450 0.0
1.393263 -0.077553 0.0
1.414450 -0.067564 0.0
1.433295 -0.058105 0.0
1.450216 -0.048280 0.0
1.465030 -0.036894 0.0
1.476834 -0.022841 0.0
1.484175 -0.005640 0.0
1.485546 0.014307 0.0
1.479835 0.036006 0.0
1.466520 0.058067 0.0
1.445751 0.079022 0.0
1.418262 0.097612 0.0
1.385189 0.112917 0.0
1.347870 0.124371 0.0
1.307703 0.131695 0.0
1.266048 0.134818 0.0
1.224179 0.133793 0.0
1.183275 0.128747 0.0
1.144417 0.119843 0.0
1.108600 0.107264 0.0
1.076741 0.091202 0.0
1.049705 0.071838 0.0
1.028339 0.049288 0.0
1.013542 0.023575 0.0
1.006236 -0.005188 0.0
1.007135 -0.036268 0.0
1.016439 -0.067933 0.0
1.033790 -0.097738 0.0
1.058615 -0.123218 0.0
1.090510 -0.142136 0.0
1.129159 -0.152231 0.0
1.173735 -0.151155 0.0
1.222141 -0.137034 0.0
1.270505 -0.109556 0.0
1.313279 -0.071081 0.0
1.344412 -0.026967 0.0
1.359973 0.015755 0.0
1.360229 0.052724 0.0
1.347923 0.082946 0.0
1.325972 0.106159 0.0
1.297109 0.122609 0.0
1.263711 0.132827 0.0
1.227729 0.137454 0.0
1.190686 0.137117 0.0
1.153717 0.132388 0.0
1.117623 0.123798 0.0
1.082937 0.111920 0.0
1.050009 0.097445 0.0
1.019097 0.081211 0.0
0.990443 0.064158 0.0
0.964249 0.047228 0.0
0.940589 0.031216 0.0
0.919333 0.016612 0.0
0.900293 0.003470 0.0
0.883529 -0.008797 0.0
0.869648 -0.021325 0.0
0.859864 -0.035240 0.0
0.855691 -0.051156 0.0
0.858426 -0.068745 0.0
0.868698 -0.086719 0.0
0.886330 -0.103210 0.0
0.910497 -0.116193 0.0
0.939988 -0.123764 0.0
0.973399 -0.124293 0.0
1.009223 -0.116554 0.0
1.045876 -0.099908 0.0
1.081651 -0.074585 0.0
1.114611 -0.042055 0.0
1.142298 -0.005480 0.0
1.162279 0.030312 0.0
1.173630 0.062166 0.0
1.176758 0.088131 0.0
1.172432 0.106615 0.0
1.161609 0.116593 0.0
1.145302 0.117854 0.0
1.124528 0.111194 0.0
1.100362 0.098387 0.0
1.073990 0.081880 0.0
1.046689 0.064295 0.0
1.019666 0.047945 0.0
0.993852 0.034495 0.0
0.969809 0.024840 0.0
0.947819 0.019118 0.0
0.928103 0.016919 0.0
0.911033 0.017612 0.0
0.897739 0.021744 0.0
1.001031 -0.009608 0.0
1.005214 -0.029129 0.0
1.013854 -0.049499 0.0
1.027541 -0.071091 0.0
1.047159 -0.093947 0.0
1.073787 -0.117536 0.0
1.108419 -0.140443 0.0
1.151319 -0.159979 0.0
1.201520 -0.173072 0.0
1.254310 -0.173595 0.0
1.303065 -0.163482 0.0
1.344351 -0.147675 0.0
1.377840 -0.130190 0.0
1.404718 -0.113492 0.0
1.426695 -0.098807 0.0
1.445556 -0.086359 0.0
1.462878 -0.075478 0.0
1.479726 -0.064677 0.0
1.496276 -0.051860 0.0
1.511442 -0.034846 0.0
1.522850 -0.012384 0.0
1.527720 0.014810 0.0
1.524030 0.044904 0.0
1.510915 0.075598 0.0
1.488597 0.104578 0.0
1.458147 0.129995 0.0
1.421127 0.150628 0.0
1.379273 0.165832 0.0
1.334294 0.175380 0.0
1.287769 0.179314 0.0
1.241112 0.177821 0.0
1.195586 0.171149 0.0
1.152323 0.159563 0.0
1.112354 0.143330 0.0
1.076626 0.122722 0.0
1.045974 0.098005 0.0
1.021069 0.069392 0.0
1.002309 0.037028 0.0
0.989753 0.001221 0.0
0.983144 -0.036968 0.0
0.981991 -0.075385 0.0
0.985890 -0.111536 0.0
0.995257 -0.143612 0.0
1.011689 -0.170069 0.0
1.037231 -0.188490 0.0
1.073098 -0.195339 0.0
1.118730 -0.186888 0.0
1.171398 -0.160734 0.0
1.226092 -0.117371 0.0
1.275671 -0.061390 0.0
1.312039 -0.001752 0.0
1.330757 0.051257 0.0
1.333019 0.094456 0.0
1.322085 0.127533 0.0
1.301194 0.150989 0.0
1.273279 0.165761 0.0
1.240822 0.172959 0.0
1.205796 0.173681 0.0
1.169664 0.168925 0.0
1.133436 0.159583 0.0
1.097764 0.146493 0.0
1.063062 0.130504 0.0
1.029604 0.112521 0.0
0.997562 0.093544 0.0
0.966955 0.074643 0.0
0.937611 0.056806 0.0
0.909294 0.040595 0.0
0.882076 0.025745 0.0
0.856739 0.011029 0.0
0.834834 -0.005365 0.0
0.818400 -0.024983 0.0
0.809352 -0.048192 0.0
0.808747 -0.073838 0.0
0.816533 -0.099684 0.0
0.831851 -0.123194 0.0
0.853493 -0.142018 0.0
0.880212 -0.154148 0.0
0.910824 -0.157932 0.0
0.944208 -0.152123 0.0
0.979246 -0.136029 0.0
1.014763 -0.109755 0.0
1.049429 -0.074511 0.0
1.081618 -0.032900 0.0
1.108922 0.010445 0.0
1.129309 0.050295 0.0
1.142217 0.083966 0.0
1.147750 0.109574 0.0
1.146253 0.125953 0.0
1.138230 0.132824 0.0
1.124330 0.130897 0.0
1.105383 0.121796 0.0
1.082429 0.107797 0.0
1.056658 0.091450 0.0
1.029297 0.075175 0.0
1.001475 0.060901 0.0
0.974176 0.049776 0.0
0.948295 0.042055 0.0
0.924737 0.037256 0.0
0.904500 0.034583 0.0
0.889108 0.033460 0.0
1.000887 -0.011525 0.0
1.004516 -0.035024 0.0
1.012159 -0.059888 0.0
1.024676 -0.086906 0.0
1.043469 -0.116543 0.0
1.070489 -0.148588 0.0
1.108047 -0.181580 0.0
1.157842 -0.211537 0.0
1.220956 -0.234829 0.0
1.287652 -0.231324 0.0
1.343433 -0.210288 0.0
1.384701 -0.183424 0.0
1.413757 -0.156986 0.0
1.433980 -0.133796 0.0
1.448534 -0.115034 0.0
1.460306 -0.100765 0.0
1.471905 -0.089992 0.0
1.485460 -0.080565 0.0
1.502116 -0.069177 0.0
1.521245 -0.051823 0.0
1.539618 -0.025189 0.0
1.551893 0.010470 0.0
1.553743 0.051085 0.0
1.543597 0.092678 0.0
1.521798 0.131615 0.0
1.489938 0.165267 0.0
1.450172 0.192142 0.0
1.404718 0.211625 0.0
1.355623 0.223660 0.0
1.304685 0.228498 0.0
1.253459 0.226520 0.0
1.203302 0.218133 0.0
1.155427 0.203717 0.0
1.110946 0.183625 0.0
1.070875 0.158227 0.0
1.036031 0.127996 0.0
1.006744 0.093594 0.0
0.982448 0.055882 0.0
0.961501 0.015870 0.0
0.941857 -0.025364 0.0
0.922579 -0.066556 0.0
0.904788 -0.106473 0.0
0.892002 -0.145256 0.0
0.889240 -0.182096 0.0
0.900519 -0.213284 0.0
0.927203 -0.233096 0.0
0.968195 -0.235755 0.0
1.020747 -0.217088 0.0
1.080859 -0.175822 0.0
1.143075 -0.114733 0.0
1.199952 -0.041654 0.0
1.242506 0.029887 0.0
1.266721 0.089350 0.0
1.274726 0.135569 0.0
1.269486 0.169083 0.0
1.253957 0.191112 0.0
1.230842 0.203180 0.0
1.202464 0.206864 0.0
1.170696 0.203642 0.0
1.136956 0.194834 0.0
1.102256 0.181614 0.0
1.067276 0.165065 0.0
1.032422 0.146271 0.0
0.997825 0.126433 0.0
0.963328 0.106858 0.0
0.928619 0.088644 0.0
0.893654 0.072039 0.0
0.859253 0.055920 0.0
0.827421 0.038024 0.0
0.800931 0.016037 0.0
0.782178 -0.011198 0.0
0.772347 -0.043098 0.0
0.771381 -0.077362 0.0
0.778349 -0.110915 0.0
0.791975 -0.140906 0.0
0.811028 -0.165003 0.0
0.834479 -0.181333 0.0
0.861485 -0.188366 0.0
0.891320 -0.184907 0.0
0.923276 -0.170241 0.0
0.956584 -0.144369 0.0
0.990326 -0.108304 0.0
1.023336 -0.064305 0.0
1.053979 -0.016097 0.0
1.079915 0.030514 0.0
1.099485 0.071270 0.0
1.112250 0.103972 0.0
1.118070 0.127232 0.0
1.117047 0.140592 0.0
1.109512 0.144565 0.0
1.096043 0.140543 0.0
1.077463 0.130585 0.0
1.054792 0.117103 0.0
1.029174 0.102501 0.0
1.001811 0.088761 0.0
0.973942 0.077083 0.0
0.946858 0.067713 0.0
0.921910 0.060103 0.0
0.900461 0.053423 0.0
0.884186 0.046287 0.0
1.000638 -0.013050 0.0
1.003281 -0.039770 0.0
1.009009 -0.068514 0.0
1.018885 -0.100673 0.0
1.034803 -0.137486 0.0
1.059789 -0.179652 0.0
1.098236 -0.226522 0.0
1.154918 -0.273072 0.0
1.238118 -0.319609 0.0
1.323962 -0.299084 0.0
1.380248 -0.254595 0.0
1.410464 -0.210602 0.0
1.424478 -0.172878 0.0
1.428828 -0.142477 0.0
1.427751 -0.119830 0.0
1.424754 -0.104744 0.0
1.423224 -0.096084 0.0
1.426526 -0.091330 0.0
1.437579 -0.086122 0.0
1.457789 -0.074216 0.0
1.485071 -0.048450 0.0
1.511379 -0.004852 0.0
1.526669 0.049268 0.0
1.526411 0.104899 0.0
1.511261 0.156342 0.0
1.483624 0.200037 0.0
1.446367 0.234397 0.0
1.402149 0.259043 0.0
1.353244 0.274242 0.0
1.301560 0.280538 0.0
1.248721 0.278545 0.0
1.196153 0.268834 0.0
1.145157 0.251888 0.0
1.096966 0.228125 0.0
1.052741 0.198021 0.0
1.013351 0.162437 0.0
0.978720 0.123072 0.0
0.946931 0.082489 0.0
0.914078 0.043062 0.0
0.875885 0.005280 0.0
0.831653 -0.033690 0.0
0.788243 -0.078139 0.0
0.756714 -0.129274 0.0
0.744432 -0.183035 0.0
0.752347 -0.231537 0.0
0.777621 -0.266801 0.0
0.816903 -0.282323 0.0
0.867391 -0.273560 0.0
0.926481 -0.238553 0.0
0.991072 -0.178808 0.0
1.056786 -0.100171 0.0
1.116529 -0.013893 0.0
1.162102 0.063342 0.0
1.190670 0.125005 0.0
1.204227 0.171329 0.0
1.205095 0.203528 0.0
1.195651 0.223322 0.0
1.178151 0.232600 0.0
1.154601 0.233224 0.0
1.126681 0.226911 0.0
1.095718 0.215200 0.0
1.062677 0.199501 0.0
1.028140 0.181227 0.0
0.992290 0.161925 0.0
0.955002 0.143151 0.0
0.916220 0.125842 0.0
0.876605 0.109421 0.0
0.838060 0.091485 0.0
0.803554 0.068796 0.0
0.776148 0.039162 0.0
0.757821 0.002758 0.0
0.748831 -0.038232 0.0
0.748150 -0.080580 0.0
0.754360 -0.120875 0.0
0.766123 -0.156335 0.0
0.782359 -0.184863 0.0
0.802264 -0.204829 0.0
0.825270 -0.214882 0.0
0.850962 -0.213917 0.0
0.878974 -0.201199 0.0
0.908878 -0.176622 0.0
0.940088 -0.141003 0.0
0.971781 -0.096309 0.0
1.002802 -0.045757 0.0
1.031215 0.005824 0.0
1.054897 0.052709 0.0
1.072657 0.092007 0.0
1.083984 0.122051 0.0
1.088650 0.142131 0.0
1.086706 0.152504 0.0
1.078481 0.154297 0.0
1.064567 0.149324 0.0
1.045792 0.139810 0.0
1.023183 0.128022 0.0
0.997942 0.115845 0.0
0.971428 0.104382 0.0
0.945135 0.093791 0.0
0.920627 0.083482 0.0
0.899417 0.072703 0.0
0.883192 0.059506 0.0
1.000261 -0.013950 0.0
1.001373 -0.042625 0.0
1.003989 -0.074004 0.0
1.009139 -0.110209 0.0
1.018895 -0.153623 0.0
1.037129 -0.206735 0.0
1.070781 -0.271539 0.0
1.130325 -0.344281 0.0
1.242697 -0.443971 0.0
1.347080 -0.364948 0.0
1.379607 -0.277544 0.0
1.375951 -0.214213 0.0
1.359550 -0.166879 0.0
1.337480 -0.130755 0.0
1.312321 -0.105316 0.0
1.286447 -0.090387 0.0
1.262842 -0.085306 0.0
1.245563 -0.088131 0.0
1.239820 -0.094630 0.0
1.251132 -0.097229 0.0
1.282532 -0.084119 0.0
1.329269 -0.042229 0.0
1.372935 0.027688 0.0
1.397843 0.101829 0.0
1.403304 0.169101 0.0
1.393009 0.225210 0.0
1.370554 0.268936 0.0
1.338815 0.300462 0.0
1.300037 0.320506 0.0
1.256073 0.329922 0.0
1.208546 0.329527 0.0
1.158946 0.320020 0.0
1.108686 0.301958 0.0
1.059161 0.275771 0.0
1.011764 0.241996 0.0
0.967438 0.202179 0.0
0.924961 0.160438 0.0
0.878880 0.122994 0.0
0.821865 0.092424 0.0
0.753841 0.062136 0.0
0.687250 0.020277 0.0
0.638837 -0.040283 0.0
0.617151 -0.113914 0.0
0.618958 -0.187920 0.0
0.636515 -0.252123 0.0
0.664698 -0.299673 0.0
0.701493 -0.325528 0.0
0.746407 -0.325757 0.0
0.799073 -0.298112 0.0
0.858429 -0.243196 0.0
0.922316 -0.165385 0.0
0.987058 -0.073163 0.0
1.045181 0.018915 0.0
1.089872 0.096172 0.0
1.119985 0.156491 0.0
1.136735 0.200749 0.0
1.141721 0.230559 0.0
1.136712 0.247872 0.0
1.123481 0.254734 0.0
1.103672 0.253130 0.0
1.078699 0.244916 0.0
1.049660 0.231865 0.0
1.017257 0.215802 0.0
0.981807 0.198650 0.0
0.943478 0.182042 0.0
0.902853 0.166358 0.0
0.861556 0.149817 0.0
0.822396 0.128795 0.0
0.788651 0.099736 0.0
0.762882 0.061396 0.0
0.746147 0.015586 0.0
0.738047 -0.033970 0.0
0.737326 -0.083440 0.0
0.742548 -0.129447 0.0
0.752460 -0.169439 0.0
0.766065 -0.201601 0.0
0.782649 -0.224579 0.0
0.801771 -0.237260 0.0
0.823221 -0.238682 0.0
0.846906 -0.228130 0.0
0.872706 -0.205394 0.0
0.900344 -0.171079 0.0
0.929283 -0.126864 0.0
0.958660 -0.075600 0.0
0.987178 -0.021265 0.0
1.012769 0.030526 0.0
1.033608 0.075591 0.0
1.048824 0.111924 0.0
1.057903 0.138513 0.0
1.060644 0.155324 0.0
1.057143 0.163203 0.0
1.047774 0.163701 0.0
1.033180 0.158802 0.0
1.014258 0.150560 0.0
0.992156 0.140650 0.0
0.968249 0.129998 0.0
0.944079 0.118638 0.0
0.921248 0.105973 0.0
0.901274 0.091395 0.0
0.885778 0.072535 0.0
0.999761 -0.013971 0.0
0.998817 -0.042771 0.0
0.997095 -0.074752 0.0
0.995176 -0.112692 0.0
0.994518 -0.160237 0.0
0.998578 -0.222414 0.0
1.015448 -0.306381 0.0
1.062848 -0.416383 0.0
1.203158 -0.624551 0.0
1.300638 -0.386233 0.0
1.255494 -0.243643 0.0
1.187911 -0.176875 0.0
1.130647 -0.130552 0.0
1.078969 -0.093336 0.0
1.028252 -0.066859 0.0
0.977255 -0.051972 0.0
0.926696 -0.049557 0.0
0.880906 -0.060813 0.0
0.850047 -0.085346 0.0
0.847653 -0.115430 0.0
0.881837 -0.131502 0.0
0.949407 -0.109153 0.0
1.035253 -0.034901 0.0
1.109947 0.064816 0.0
1.157668 0.152932 0.0
1.184317 0.225025 0.0
1.194539 0.281352 0.0
1.191219 0.323105 0.0
1.176382 0.351477 0.0
1.151771 0.367526 0.0
1.119054 0.372167 0.0
1.079854 0.366181 0.0
1.035685 0.350227 0.0
0.987719 0.324994 0.0
0.935907 0.291982 0.0
0.877232 0.255194 0.0
0.805763 0.221367 0.0
0.719440 0.194469 0.0
0.629521 0.167883 0.0
0.557753 0.126469 0.0
0.520013 0.060275 0.0
0.514780 -0.026636 0.0
0.528505 -0.119601 0.0
0.549683 -0.205218 0.0
0.573923 -0.276623 0.0
0.600589 -0.330023 0.0
0.630753 -0.362137 0.0
0.666201 -0.369510 0.0
0.708507 -0.349330 0.0
0.758225 -0.301052 0.0
0.814534 -0.227724 0.0
0.875221 -0.136253 0.0
0.936222 -0.037119 0.0
0.990186 0.053552 0.0
1.031956 0.127227 0.0
1.061270 0.183948 0.0
1.078733 0.224909 0.0
1.085404 0.251859 0.0
1.082574 0.266809 0.0
1.071597 0.271842 0.0
1.053741 0.269033 0.0
1.030049 0.260479 0.0
1.001254 0.248385 0.0
0.967858 0.234914 0.0
0.930498 0.221468 0.0
0.890531 0.207524 0.0
0.850412 0.190066 0.0
0.813370 0.164748 0.0
0.782401 0.128497 0.0
0.759296 0.081510 0.0
0.744405 0.027098 0.0
0.737088 -0.030065 0.0
0.736242 -0.085779 0.0
0.740644 -0.136731 0.0
0.749128 -0.180550 0.0
0.760686 -0.215654 0.0
0.774557 -0.240981 0.0
0.790299 -0.255723 0.0
0.807790 -0.259161 0.0
0.827142 -0.250687 0.0
0.848523 -0.230019 0.0
0.871975 -0.197545 0.0
0.897267 -0.154630 0.0
0.923813 -0.103758 0.0
0.950643 -0.048455 0.0
0.976125 0.006644 0.0
0.998344 0.056415 0.0
1.015961 0.098266 0.0
1.028212 0.130842 0.0
1.034667 0.153799 0.0
1.035209 0.167688 0.0
1.030014 0.173779 0.0
1.019550 0.173782 0.0
1.004581 0.169471 0.0
0.986161 0.162261 0.0
0.965599 0.152857 0.0
0.944373 0.141176 0.0
0.924006 0.126633 0.0
0.905929 0.108786 0.0
0.891658 0.084910 0.0
0.999194 -0.012926 0.0
0.995897 -0.039576 0.0
0.989078 -0.069407 0.0
0.978384 -0.105425 0.0
0.963510 -0.151973 0.0
0.944836 -0.216064 0.0
0.925660 -0.310425 0.0
0.920591 -0.454671 0.0
1.014334 -0.820316 0.0
1.014850 -0.188874 0.0
0.832427 -0.103491 0.0
0.692457 -0.099119 0.0
0.613689 -0.072275 0.0
0.550221 -0.036467 0.0
0.480003 -0.002793 0.0
0.405230 0.009733 0.0
0.344635 -0.000109 0.0
0.313226 -0.033062 0.0
0.318447 -0.087459 0.0
0.359307 -0.151783 0.0
0.430302 -0.200328 0.0
0.524413 -0.202008 0.0
0.634208 -0.137687 0.0
0.746733 -0.019617 0.0
0.839548 0.096829 0.0
0.905707 0.188321 0.0
0.952994 0.260547 0.0
0.983704 0.316521 0.0
0.998855 0.357746 0.0
0.999537 0.385186 0.0
0.987098 0.399663 0.0
0.962978 0.402004 0.0
0.928348 0.393203 0.0
0.883309 0.375025 0.0
0.825773 0.351299 0.0
0.752333 0.327992 0.0
0.664405 0.307966 0.0
0.575339 0.283258 0.0
0.506362 0.237991 0.0
0.471379 0.163111 0.0
0.468211 0.064542 0.0
0.484677 -0.042135 0.0
0.509042 -0.142193 0.0
0.534582 -0.229345 0.0
0.558618 -0.300772 0.0
0.580841 -0.354761 0.0
0.602665 -0.389386 0.0
0.626780 -0.401824 0.0
0.656277 -0.388821 0.0
0.693425 -0.348428 0.0
0.738764 -0.281995 0.0
0.791026 -0.194931 0.0
0.847521 -0.095937 0.0
0.903007 0.002920 0.0
0.951103 0.087994 0.0
0.988660 0.156311 0.0
1.015348 0.208395 0.0
1.031470 0.245581 0.0
1.037731 0.269657 0.0
1.035048 0.282653 0.0
1.024379 0.286746 0.0
1.006576 0.284262 0.0
0.982332 0.277641 0.0
0.952355 0.269032 0.0
0.917783 0.259282 0.0
0.880640 0.246819 0.0
0.843858 0.227672 0.0
0.810610 0.197432 0.0
0.783332 0.154060 0.0
0.763163 0.099221 0.0
0.750129 0.037311 0.0
0.743671 -0.026503 0.0
0.742961 -0.087786 0.0
0.746991 -0.143155 0.0
0.754656 -0.190274 0.0
0.764885 -0.227717 0.0
0.776801 -0.254704 0.0
0.789857 -0.270797 0.0
0.803915 -0.275637 0.0
0.819200 -0.268847 0.0
0.836125 -0.250165 0.0
0.855055 -0.219782 0.0
0.876091 -0.178721 0.0
0.898946 -0.129068 0.0
0.922908 -0.073937 0.0
0.946812 -0.017259 0.0
0.968910 0.036001 0.0
0.987576 0.082396 0.0
1.001825 0.120213 0.0
1.011020 0.148778 0.0
1.014851 0.168337 0.0
1.013317 0.179860 0.0
1.006727 0.184755 0.0
0.995705 0.184488 0.0
0.981184 0.180186 0.0
0.964347 0.172331 0.0
0.946533 0.160741 0.0
0.929111 0.144856 0.0
0.913370 0.124381 0.0
0.900693 0.096264 0.0
0.998666 -0.010786 0.0
0.993173 -0.032925 0.0
0.981529 -0.057595 0.0
0.962275 -0.087288 0.0
0.932694 -0.125655 0.0
0.887788 -0.178801 0.0
0.817685 -0.258408 0.0
0.704033 -0.387967 0.0
0.316695 -0.693012 0.0
-0.462037 0.238358 0.0
-0.462037 0.000000 0.0
-0.036879 -0.026142 0.0
-0.079292 -0.034805 0.0
-0.076079 -0.013682 0.0
-0.044422 0.012983 0.0
-0.006312 0.030619 0.0
0.013608 0.019680 0.0
0.020504 -0.028337 0.0
0.029754 -0.106655 0.0
0.054878 -0.198570 0.0
0.104905 -0.274563 0.0
0.182899 -0.299878 0.0
0.285496 -0.252209 0.0
0.404591 -0.136716 0.0
0.522855 0.002849 0.0
0.621689 0.117309 0.0
0.699122 0.206839 0.0
0.759001 0.279640 0.0
0.801115 0.337362 0.0
0.825531 0.380471 0.0
0.832860 0.409488 0.0
0.823822 0.425336 0.0
0.798578 0.429745 0.0
0.756081 0.426019 0.0
0.695028 0.418894 0.0
0.618531 0.410333 0.0
0.539557 0.392528 0.0
0.477862 0.349457 0.0
0.447212 0.271419 0.0
0.447032 0.164847 0.0
0.467288 0.045719 0.0
0.496755 -0.069244 0.0
0.527616 -0.170312 0.0
0.555901 -0.255051 0.0
0.579596 -0.322799 0.0
0.598153 -0.373514 0.0
0.612598 -0.406902 0.0
0.625670 -0.421494 0.0
0.641407 -0.414384 0.0
0.663858 -0.382464 0.0
0.695460 -0.324901 0.0
0.736193 -0.245021 0.0
0.783940 -0.150089 0.0
0.835166 -0.049640 0.0
0.883983 0.043641 0.0
0.925371 0.121719 0.0
0.957709 0.183961 0.0
0.980510 0.231091 0.0
0.993865 0.264530 0.0
0.998196 0.286132 0.0
0.994069 0.298063 0.0
0.982075 0.302743 0.0
0.962840 0.302638 0.0
0.937267 0.299585 0.0
0.906922 0.293646 0.0
0.874250 0.282270 0.0
0.842274 0.260980 0.0
0.813791 0.225856 0.0
0.790624 0.176080 0.0
0.773495 0.114499 0.0
0.762401 0.046163 0.0
0.757016 -0.023511 0.0
0.756788 -0.089840 0.0
0.760876 -0.149220 0.0
0.768221 -0.199219 0.0
0.777696 -0.238477 0.0
0.788296 -0.266460 0.0
0.799327 -0.283128 0.0
0.810545 -0.288582 0.0
0.822179 -0.282821 0.0
0.834805 -0.265742 0.0
0.849086 -0.237417 0.0
0.865486 -0.198523 0.0
0.884061 -0.150696 0.0
0.904391 -0.096601 0.0
0.925617 -0.039726 0.0
0.946313 0.015673 0.0
0.964858 0.065512 0.0
0.980041 0.107665 0.0
0.991053 0.141118 0.0
0.997418 0.165801 0.0
0.998977 0.182371 0.0
0.995895 0.191917 0.0
0.988655 0.195587 0.0
0.978043 0.194220 0.0
0.965080 0.188097 0.0
0.950918 0.176952 0.0
0.936729 0.160256 0.0
0.923627 0.137825 0.0
0.912837 0.106287 0.0
0.998298 -0.007751 0.0
0.991281 -0.023450 0.0
0.976340 -0.040486 0.0
0.951366 -0.060170 0.0
0.912305 -0.084131 0.0
0.851313 -0.114428 0.0
0.751970 -0.153335 0.0
0.575690 -0.203109 0.0
0.230738 -0.241713 0.0
0.000000 0.238358 0.0
-0.000000 -0.000000 0.0
0.000000 0.000000 0.0
-0.015077 -0.014635 0.0
-0.039390 -0.013195 0.0
-0.056223 -0.002327 0.0
-0.079831 0.031427 0.0
-0.115775 0.034897 0.0
-0.152020 -0.014206 0.0
-0.173970 -0.108087 0.0
-0.172529 -0.223703 0.0
-0.147001 -0.324986 0.0
-0.095205 -0.379244 0.0
-0.008010 -0.362634 0.0
0.110570 -0.263966 0.0
0.242205 -0.119800 0.0
0.365660 0.017669 0.0
0.467316 0.127390 0.0
0.548238 0.218287 0.0
0.610229 0.294610 0.0
0.652736 0.356300 0.0
0.675487 0.403579 0.0
0.678183 0.437587 0.0
0.660210 0.460711 0.0
0.621503 0.476257 0.0
0.565808 0.485405 0.0
0.504678 0.481448 0.0
0.455823 0.449241 0.0
0.433133 0.377129 0.0
0.438278 0.269252 0.0
0.463481 0.141992 0.0
0.499163 0.012634 0.0
0.537291 -0.103753 0.0
0.572792 -0.202165 0.0
0.603209 -0.281898 0.0
0.626960 -0.343399 0.0
0.643289 -0.387799 0.0
0.652561 -0.416334 0.0
0.656782 -0.429355 0.0
0.659875 -0.425352 0.0
0.667007 -0.401078 0.0
0.682761 -0.353642 0.0
0.709212 -0.283464 0.0
0.745383 -0.195563 0.0
0.788204 -0.098214 0.0
0.833048 -0.001446 0.0
0.874553 0.083914 0.0
0.909292 0.154689 0.0
0.936061 0.210793 0.0
0.954372 0.253163 0.0
0.964153 0.283386 0.0
0.965571 0.303516 0.0
0.958949 0.315906 0.0
0.944857 0.322803 0.0
0.924366 0.325482 0.0
0.899324 0.323135 0.0
0.872317 0.312460 0.0
0.846139 0.288943 0.0
0.823039 0.249476 0.0
0.804303 0.194362 0.0
0.790424 0.127226 0.0
0.781510 0.053445 0.0
0.777496 -0.021395 0.0
0.778047 -0.092278 0.0
0.782450 -0.155273 0.0
0.789701 -0.207762 0.0
0.798668 -0.248375 0.0
0.808273 -0.276767 0.0
0.817691 -0.293272 0.0
0.826529 -0.298494 0.0
0.834926 -0.292938 0.0
0.843505 -0.276829 0.0
0.853153 -0.250259 0.0
0.864687 -0.213615 0.0
0.878551 -0.168043 0.0
0.894663 -0.115696 0.0
0.912427 -0.059620 0.0
0.930760 -0.003460 0.0
0.948198 0.048662 0.0
0.963390 0.094142 0.0
0.975392 0.131628 0.0
0.983588 0.160729 0.0
0.987686 0.181785 0.0
0.987711 0.195560 0.0
0.984008 0.202888 0.0
0.977199 0.204340 0.0
0.968121 0.200020 0.0
0.957713 0.189600 0.0
0.946931 0.172578 0.0
0.936695 0.148840 0.0
0.928041 0.114715 0.0
0.998163 -0.004212 0.0
0.990615 -0.012424 0.0
0.974641 -0.020597 0.0
0.948268 -0.028713 0.0
0.907987 -0.036245 0.0
0.848037 -0.041372 0.0
0.759903 -0.038914 0.0
0.632824 -0.014171 0.0
0.475535 0.075044 0.0
0.196485 0.177791 0.0
0.000000 0.000000 0.0
-0.000000 -0.000000 0.0
0.000000 0.000000 0.0
-0.003707 -0.001980 0.0
-0.034853 0.032708 0.0
-0.105445 0.090591 0.0
-0.185350 0.091582 0.0
-0.245287 0.025290 0.0
-0.275304 -0.095616 0.0
-0.276804 -0.236115 0.0
-0.259344 -0.355563 0.0
-0.228704 -0.431103 0.0
-0.179942 -0.446731 0.0
-0.093610 -0.384780 0.0
0.028190 -0.252421 0.0
0.156965 -0.101941 0.0
0.272446 0.029862 0.0
0.366856 0.140483 0.0
0.441013 0.236267 0.0
0.495069 0.318082 0.0
0.528103 0.386011 0.0
0.539406 0.441156 0.0
0.529295 0.485226 0.0
0.501288 0.518456 0.0
0.464830 0.535360 0.0
0.434732 0.522721 0.0
0.424251 0.467303 0.0
0.437293 0.368715 0.0
0.468765 0.241049 0.0
0.511110 0.102648 0.0
0.557071 -0.029667 0.0
0.600718 -0.143226 0.0
0.638907 -0.236380 0.0
0.670044 -0.309237 0.0
0.693086 -0.362854 0.0
0.707462 -0.399048 0.0
0.713185 -0.420081 0.0
0.711305 -0.427950 0.0
0.704636 -0.423181 0.0
0.698067 -0.403813 0.0
0.697519 -0.366113 0.0
0.707580 -0.307505 0.0
0.729519 -0.229633 0.0
0.761273 -0.138720 0.0
0.798868 -0.043379 0.0
0.837059 0.046149 0.0
0.871423 0.123351 0.0
0.899808 0.186977 0.0
0.921126 0.237350 0.0
0.934838 0.275705 0.0
0.940748 0.303871 0.0
0.938959 0.323962 0.0
0.930011 0.337788 0.0
0.915098 0.345901 0.0
0.896180 0.346677 0.0
0.875718 0.336386 0.0
0.856064 0.310848 0.0
0.838868 0.267867 0.0
0.824974 0.208602 0.0
0.814748 0.137091 0.0
0.808418 0.058824 0.0
0.806111 -0.020454 0.0