# vtk DataFile Version 3.0
Scalar Field
ASCII
DATASET RECTILINEAR_GRID
DIMENSIONS 100 26 1
X_COORDINATES 100 double
0.050000 0.150000 0.250000 0.350000 0.450000 0.550000 0.650000 0.750000 0.850000 0.950000 1.050000 1.150000 1.250000 1.350000 1.450000 1.550000 1.650000 1.750000 1.850000 1.950000 2.050000 2.150000 2.250000 2.350000 2.450000 2.550000 2.650000 2.750000 2.850000 2.950000 3.050000 3.150000 3.250000 3.350000 3.450000 3.550000 3.650000 3.750000 3.850000 3.950000 4.050000 4.150000 4.250000 4.350000 4.450000 4.550000 4.650000 4.750000 4.850000 4.950000 5.050000 5.150000 5.250000 5.350000 5.450000 5.550000 5.650000 5.750000 5.850000 5.950000 6.050000 6.150000 6.250000 6.350000 6.450000 6.550000 6.650000 6.750000 6.850000 6.950000 7.050000 7.150000 7.250000 7.350000 7.450000 7.550000 7.650000 7.750000 7.850000 7.950000 8.050000 8.150000 8.250000 8.350000 8.450000 8.550000 8.650000 8.750000 8.850000 8.950000 9.050000 9.150000 9.250000 9.350000 9.450000 9.550000 9.650000 9.750000 9.850000 9.950000 
Y_COORDINATES 26 double
0.050000 0.150000 0.250000 0.350000 0.450000 0.550000 0.650000 0.750000 0.850000 0.950000 1.050000 1.150000 1.250000 1.350000 1.450000 1.550000 1.650000 1.750000 1.850000 1.950000 2.050000 2.150000 2.250000 2.350000 2.450000 2.550000 
Z_COORDINATES 1 double
0.0
POINT_DATA 2600
SCALARS Skalarfeld double 1
LOOKUP_TABLE default
0.198414
0.194752
0.187171
0.175273
0.158820
0.137691
0.111947
0.081933
0.048380
0.012437
-0.024423
-0.060650
-0.094890
-0.126158
-0.153881
-0.177837
-0.198036
-0.214575
-0.227515
-0.236802
-0.242277
-0.243570
-0.240488
-0.233031
-0.221458
-0.206298
-0.188301
-0.168342
-0.147320
-0.126063
-0.105257
-0.085407
-0.066825
-0.049637
-0.033822
-0.019254
-0.005767
0.006754
0.018419
0.029182
0.038534
0.045746
0.049994
0.050590
0.047275
0.040460
0.031276
0.021357
0.012401
0.005647
0.002148
0.001796
0.004057
0.008153
0.013234
0.018520
0.023395
0.027446
0.030482
0.032510
0.033707
0.034363
0.034807
0.035315
0.036023
0.037033
0.038354
0.039784
0.041207
0.042550
0.043729
0.044600
0.044915
0.044326
0.042437
0.038924
0.033682
0.026957
0.019390
0.011892
0.005344
0.000417
-0.002893
-0.005060
-0.006868
-0.009243
-0.013012
-0.018661
-0.026184
-0.035131
-0.044862
-0.054889
-0.065093
-0.075726
-0.086931
-0.099120
-0.112377
-0.126449
-0.140708
-0.155483
0.201393
0.198600
0.191274
0.179370
0.162695
0.141082
0.114524
0.083336
0.048301
0.010731
-0.027631
-0.065001
-0.099916
-0.131411
-0.159020
-0.182668
-0.202511
-0.218775
-0.231603
-0.240956
-0.246597
-0.248138
-0.245214
-0.237747
-0.225965
-0.210412
-0.191881
-0.171306
-0.149641
-0.127758
-0.106375
-0.086013
-0.066989
-0.049431
-0.033308
-0.018481
-0.004754
0.008070
0.019995
0.030728
0.039842
0.046650
0.050369
0.050355
0.046381
0.038861
0.028928
0.018273
0.008743
0.001874
-0.001679
-0.001880
0.000683
0.005165
0.010661
0.016353
0.021603
0.025993
0.029334
0.031642
0.033102
0.034007
0.034680
0.035394
0.036328
0.037429
0.038568
0.039720
0.040829
0.041856
0.042743
0.043363
0.043485
0.042767
0.040817
0.037305
0.032102
0.025400
0.017767
0.010082
0.003369
-0.001614
-0.005009
-0.007197
-0.008948
-0.011187
-0.014739
-0.020080
-0.027194
-0.035645
-0.044842
-0.054364
-0.064140
-0.074372
-0.085614
-0.098067
-0.111751
-0.126516
-0.141930
-0.160416
0.209461
0.206901
0.199730
0.187784
0.170740
0.148254
0.120130
0.086561
0.048399
0.007306
-0.034299
-0.074070
-0.110330
-0.142203
-0.169479
-0.192404
-0.211459
-0.227142
-0.239775
-0.249363
-0.255576
-0.257779
-0.255313
-0.247932
-0.235793
-0.219471
-0.199856
-0.178002
-0.154976
-0.131738
-0.109068
-0.087524
-0.067443
-0.048961
-0.032049
-0.016565
-0.002311
0.010892
0.023072
0.033858
0.042749
0.049001
0.051817
0.050585
0.045118
0.035878
0.024091
0.011637
0.000666
-0.006987
-0.010612
-0.010441
-0.007192
-0.001841
0.004604
0.011259
0.017451
0.022752
0.026973
0.030127
0.032385
0.034001
0.035236
0.036295
0.037291
0.038236
0.039086
0.039845
0.040491
0.041027
0.041441
0.041649
0.041449
0.040514
0.038452
0.034922
0.029759
0.023087
0.015378
0.007418
0.000155
-0.005583
-0.009271
-0.011603
-0.013267
-0.015119
-0.017948
-0.022244
-0.028091
-0.035227
-0.043264
-0.051945
-0.061268
-0.071458
-0.082866
-0.095716
-0.110127
-0.126042
-0.143342
-0.166304
0.222177
0.219731
0.212728
0.200807
0.183383
0.159752
0.129313
0.091941
0.048510
0.001257
-0.045866
-0.089425
-0.127517
-0.159577
-0.185921
-0.207367
-0.224941
-0.239602
-0.251978
-0.262127
-0.269467
-0.272954
-0.271414
-0.264273
-0.251580
-0.233991
-0.212592
-0.188657
-0.163446
-0.138063
-0.113379
-0.090008
-0.068316
-0.048453
-0.030397
-0.014004
0.000935
0.014625
0.027200
0.038175
0.046895
0.052481
0.054096
0.051169
0.043570
0.031801
0.017172
0.001802
-0.011702
-0.020879
-0.024590
-0.023754
-0.019347
-0.012562
-0.004576
0.003617
0.011293
0.018005
0.023554
0.027941
0.031301
0.033836
0.035751
0.037208
0.038304
0.039074
0.039508
0.039672
0.039757
0.039664
0.039444
0.039082
0.038442
0.037237
0.035094
0.031661
0.026730
0.020344
0.012856
0.004915
-0.002654
-0.009079
-0.013514
-0.016110
-0.017773
-0.019228
-0.021209
-0.024251
-0.028584
-0.034175
-0.040874
-0.048581
-0.057346
-0.067359
-0.078882
-0.092147
-0.107313
-0.124463
-0.143679
-0.170410
0.239324
0.237040
0.230402
0.218816
0.201296
0.176534
0.143146
0.100243
0.048465
-0.009221
-0.065092
-0.113833
-0.153696
-0.185033
-0.209145
-0.227751
-0.242692
-0.255648
-0.267758
-0.279184
-0.288829
-0.294756
-0.295003
-0.288408
-0.274877
-0.255290
-0.231119
-0.204028
-0.175586
-0.147106
-0.119582
-0.093688
-0.069820
-0.048135
-0.028608
-0.011086
0.004665
0.018902
0.031851
0.043137
0.051747
0.056601
0.056862
0.052091
0.042255
0.027865
0.010193
-0.008592
-0.025593
-0.037793
-0.042706
-0.041125
-0.035275
-0.026604
-0.016558
-0.006309
0.003319
0.011835
0.019023
0.024867
0.029477
0.033022
0.035676
0.037584
0.038836
0.039471
0.039497
0.038950
0.037958
0.037039
0.036029
0.034965
0.033832
0.032402
0.030320
0.027217
0.022834
0.017120
0.010296
0.002853
-0.004520
-0.011088
-0.016257
-0.019311
-0.021116
-0.022339
-0.023655
-0.025626
-0.028615
-0.032786
-0.038194
-0.044885
-0.052965
-0.062622
-0.074090
-0.087600
-0.103346
-0.121485
-0.142204
-0.171579
0.260599
0.258623
0.252773
0.242192
0.225371
0.200083
0.163519
0.113042
0.048159
-0.027914
-0.097079
-0.151590
-0.191702
-0.220039
-0.239491
-0.252972
-0.263391
-0.273473
-0.285254
-0.299254
-0.313630
-0.324272
-0.327910
-0.322445
-0.307686
-0.285050
-0.256749
-0.225099
-0.192126
-0.159417
-0.128104
-0.098916
-0.072259
-0.048284
-0.026957
-0.008116
0.008484
0.023105
0.035939
0.047407
0.055846
0.059778
0.058498
0.051943
0.040345
0.024248
0.004724
-0.016351
-0.036248
-0.051772
-0.060199
-0.059168
-0.052469
-0.042180
-0.030128
-0.017746
-0.006027
0.004441
0.013388
0.020766
0.026662
0.031225
0.034618
0.036973
0.038367
0.038816
0.038320
0.036948
0.034908
0.032522
0.030520
0.028706
0.027159
0.025681
0.023910
0.021452
0.017987
0.013369
0.007678
0.001243
-0.005404
-0.011634
-0.016879
-0.020628
-0.022584
-0.023762
-0.024702
-0.025947
-0.027937
-0.030978
-0.035280
-0.041009
-0.048344
-0.057496
-0.068702
-0.082200
-0.098204
-0.116903
-0.138509
-0.169350
0.285433
0.283993
0.279599
0.271163
0.256617
0.232513
0.193672
0.133639
0.047746
-0.063324
-0.150797
-0.208081
-0.243713
-0.264774
-0.275871
-0.280971
-0.284047
-0.289151
-0.299857
-0.317821
-0.340783
-0.361227
-0.370982
-0.367694
-0.351234
-0.324217
-0.290167
-0.252388
-0.213511
-0.175428
-0.139395
-0.106167
-0.076133
-0.049421
-0.025991
-0.005700
0.011647
0.026261
0.038252
0.047921
0.055721
0.058038
0.054622
0.046363
0.034058
0.018174
-0.000727
-0.021436
-0.041824
-0.059050
-0.070341
-0.073044
-0.066685
-0.055937
-0.042811
-0.028978
-0.015635
-0.003525
0.006970
0.015726
0.022782
0.028257
0.032288
0.034984
0.036386
0.036470
0.035230
0.032795
0.029522
0.025942
0.022664
0.020168
0.018399
0.017130
0.015971
0.014489
0.012304
0.009173
0.005041
0.000075
-0.005359
-0.010760
-0.015609
-0.019518
-0.021819
-0.023118
-0.023952
-0.024820
-0.026184
-0.028431
-0.031872
-0.036770
-0.043368
-0.051915
-0.062667
-0.075874
-0.091758
-0.110513
-0.132338
-0.163548
0.312838
0.312221
0.310149
0.305468
0.295767
0.276414
0.238917
0.169166
0.047892
-0.135678
-0.239935
-0.285973
-0.307520
-0.315937
-0.314994
-0.308596
-0.301228
-0.298175
-0.305179
-0.326355
-0.360725
-0.398849
-0.420396
-0.421175
-0.402823
-0.370363
-0.329379
-0.284459
-0.238885
-0.194820
-0.153593
-0.115948
-0.082235
-0.052556
-0.026882
-0.005152
0.012636
0.026471
0.036518
0.042658
0.044763
0.044434
0.038728
0.030188
0.019523
0.006610
-0.008678
-0.025901
-0.043702
-0.059856
-0.071800
-0.077491
-0.074045
-0.064488
-0.051814
-0.037832
-0.023909
-0.010962
0.000476
0.010158
0.018028
0.024135
0.028564
0.031368
0.032530
0.031987
0.029750
0.026063
0.021483
0.016761
0.012582
0.009592
0.007846
0.007067
0.006821
0.006626
0.006036
0.004714
0.002482
-0.000649
-0.004472
-0.008624
-0.012663
-0.016176
-0.018866
-0.020291
-0.021192
-0.021954
-0.023009
-0.024766
-0.027593
-0.031813
-0.037723
-0.045607
-0.055745
-0.068397
-0.083787
-0.102100
-0.123502
-0.154106
0.341306
0.341790
0.342920
0.343810
0.342356
0.333729
0.306743
0.235501
0.054298
-0.296352
-0.376820
-0.373072
-0.370126
-0.364714
-0.351724
-0.334017
-0.315646
-0.302230
-0.301775
-0.321672
-0.363224
-0.416928
-0.462487
-0.470454
-0.451310
-0.414092
-0.367014
-0.315945
-0.264678
-0.215531
-0.169864
-0.128416
-0.091532
-0.059326
-0.031825
-0.009192
0.008005
0.018977
0.023860
0.024068
0.020697
0.014972
0.009356
0.003520
-0.002833
-0.010336
-0.019624
-0.030906
-0.043594
-0.056188
-0.066574
-0.072655
-0.073002
-0.066021
-0.055248
-0.042544
-0.029331
-0.016639
-0.005146
0.004754
0.012875
0.019161
0.023602
0.026169
0.026773
0.025322
0.021884
0.016862
0.011031
0.005333
0.000562
-0.002643
-0.004095
-0.004101
-0.003144
-0.001771
-0.000503
0.000232
0.000140
-0.000902
-0.002835
-0.005432
-0.008347
-0.011205
-0.013718
-0.015345
-0.016402
-0.017224
-0.018186
-0.019681
-0.022091
-0.025770
-0.031046
-0.038231
-0.047621
-0.059484
-0.074039
-0.091454
-0.111857
-0.140999
0.368831
0.370573
0.375448
0.383233
0.393109
0.402380
0.402377
0.363929
0.152723
-0.606525
-0.538426
-0.425491
-0.406766
-0.397836
-0.379949
-0.357664
-0.334981
-0.316768
-0.311471
-0.325769
-0.363505
-0.418371
-0.471852
-0.497735
-0.479767
-0.440731
-0.391220
-0.337807
-0.284375
-0.233216
-0.185699
-0.142637
-0.104504
-0.071621
-0.044388
-0.023604
-0.010463
-0.005576
-0.007561
-0.013239
-0.019772
-0.025183
-0.027779
-0.028737
-0.029085
-0.029847
-0.031970
-0.036105
-0.042305
-0.049798
-0.057061
-0.062288
-0.064080
-0.060726
-0.052627
-0.042296
-0.030938
-0.019578
-0.008986
0.000316
0.008007
0.013899
0.017871
0.019787
0.019485
0.016863
0.012073
0.005698
-0.001291
-0.007797
-0.012941
-0.016128
-0.017025
-0.015975
-0.013530
-0.010325
-0.006974
-0.004005
-0.001811
-0.000629
-0.000523
-0.001381
-0.002950
-0.004892
-0.006874
-0.008630
-0.009767
-0.010690
-0.011664
-0.013026
-0.015140
-0.018363
-0.023035
-0.029482
-0.038005
-0.048872
-0.062292
-0.078405
-0.097302
-0.124227
0.393133
0.396050
0.404473
0.418998
0.440643
0.470782
0.510579
0.557708
0.649268
0.021372
-0.473014
-0.407602
-0.411360
-0.410387
-0.400811
-0.383068
-0.365368
-0.351516
-0.345173
-0.353044
-0.378277
-0.418355
-0.460599
-0.485473
-0.477409
-0.439742
-0.392365
-0.341673
-0.291011
-0.242358
-0.197025
-0.155949
-0.119863
-0.089483
-0.065771
-0.050096
-0.043627
-0.045751
-0.053153
-0.061380
-0.067365
-0.069126
-0.066566
-0.061317
-0.054856
-0.048492
-0.043354
-0.040319
-0.039845
-0.041747
-0.045090
-0.048409
-0.050183
-0.049207
-0.044535
-0.037229
-0.028488
-0.019279
-0.010392
-0.002435
0.004156
0.009073
0.012069
0.012905
0.011349
0.007303
0.001024
-0.006738
-0.014840
-0.022068
-0.027469
-0.030440
-0.030536
-0.028154
-0.023944
-0.018661
-0.013042
-0.007719
-0.003178
0.000255
0.002430
0.003366
0.003245
0.002362
0.001055
-0.000372
-0.001582
-0.002576
-0.003562
-0.004821
-0.006674
-0.009460
-0.013515
-0.019162
-0.026698
-0.036378
-0.048391
-0.062847
-0.079794
-0.103819
0.412083
0.415823
0.426711
0.445852
0.475363
0.518936
0.582986
0.678176
0.807578
0.829204
0.000000
-0.410140
-0.412677
-0.415570
-0.416064
-0.414474
-0.411571
-0.406902
-0.404081
-0.404961
-0.412198
-0.425116
-0.440312
-0.445977
-0.437527
-0.408445
-0.366742
-0.322942
-0.279501
-0.237799
-0.198940
-0.163921
-0.133718
-0.109469
-0.092667
-0.084909
-0.086543
-0.095089
-0.105721
-0.113811
-0.116711
-0.112348
-0.103039
-0.090655
-0.077003
-0.063618
-0.051726
-0.042252
-0.035796
-0.032507
-0.031916
-0.032945
-0.034214
-0.034527
-0.032701
-0.028256
-0.022374
-0.015742
-0.009077
-0.003008
0.001955
0.005401
0.006976
0.006339
0.003201
-0.002512
-0.010436
-0.019668
-0.028917
-0.036856
-0.042456
-0.045061
-0.044139
-0.040174
-0.033954
-0.026391
-0.018366
-0.010630
-0.003760
0.001859
0.006019
0.008691
0.010005
0.010226
0.009691
0.008726
0.007681
0.006764
0.005854
0.004761
0.003217
0.000916
-0.002457
-0.007209
-0.013621
-0.021926
-0.032283
-0.044762
-0.059360
-0.079852
0.424195
0.428235
0.439970
0.460473
0.491643
0.536262
0.597514
0.677176
0.769681
0.850829
0.754664
0.000000
-0.418192
-0.423708
-0.434249
-0.449824
-0.468064
-0.484528
-0.490515
-0.480907
-0.461384
-0.439086
-0.417931
-0.396191
-0.374488
-0.348525
-0.315809
-0.280726
-0.247161
-0.215514
-0.186480
-0.160972
-0.140137
-0.125517
-0.118993
-0.121778
-0.132582
-0.146983
-0.159408
-0.165851
-0.162661
-0.151281
-0.134417
-0.114513
-0.093723
-0.073775
-0.055941
-0.041096
-0.029786
-0.022237
-0.018240
-0.017041
-0.017446
-0.018149
-0.018017
-0.016446
-0.013352
-0.009358
-0.005100
-0.001187
0.001833
0.003480
0.003305
0.000885
-0.004106
-0.011705
-0.021438
-0.032255
-0.042731
-0.051417
-0.057189
-0.059299
-0.057184
-0.051449
-0.043049
-0.033080
-0.022591
-0.012466
-0.003361
0.004290
0.010262
0.014509
0.017148
0.018432
0.018707
0.018339
0.017652
0.016935
0.016237
0.015434
0.014312
0.012606
0.010030
0.006304
0.001172
-0.005564
-0.014025
-0.024231
-0.036120
-0.052485
0.428928
0.432748
0.443768
0.462740
0.490880
0.529630
0.579946
0.639384
0.693776
0.707966
0.658498
0.535614
0.000000
-0.440252
-0.456797
-0.493559
-0.537672
-0.576971
-0.592117
-0.566063
-0.514914
-0.454148
-0.395091
-0.343911
-0.302092
-0.269962
-0.241673
-0.216147
-0.193203
-0.172907
-0.155547
-0.141969
-0.133520
-0.132087
-0.139417
-0.155354
-0.176351
-0.196364
-0.209625
-0.212561
-0.202221
-0.183113
-0.158526
-0.131382
-0.104094
-0.078484
-0.055798
-0.036795
-0.021872
-0.011168
-0.004542
-0.001460
-0.000950
-0.001792
-0.002892
-0.003205
-0.002381
-0.000750
0.001222
0.002985
0.003989
0.003703
0.001608
-0.002780
-0.009803
-0.019441
-0.031104
-0.043605
-0.055376
-0.064842
-0.070761
-0.072256
-0.068837
-0.061241
-0.050610
-0.038238
-0.025351
-0.012965
-0.001817
0.007634
0.015166
0.020752
0.024526
0.026754
0.027796
0.028049
0.027876
0.027518
0.027197
0.026846
0.026304
0.025346
0.023722
0.021182
0.017508
0.012541
0.006209
-0.001451
-0.010307
-0.021998
0.426695
0.429966
0.439306
0.455044
0.477547
0.506786
0.541276
0.575671
0.596780
0.579781
0.506393
0.412730
0.238494
0.000000
-0.510842
-0.564888
-0.610412
-0.665886
-0.676460
-0.629616
-0.549892
-0.457086
-0.366325
-0.287800
-0.227170
-0.184266
-0.153438
-0.133059
-0.120005
-0.110664
-0.105525
-0.105591
-0.112353
-0.127543
-0.151745
-0.182506
-0.213995
-0.239162
-0.252668
-0.249969
-0.231778
-0.205041
-0.173432
-0.140152
-0.107704
-0.077865
-0.051749
-0.029941
-0.012648
0.000146
0.008621
0.013186
0.014596
0.013924
0.012309
0.010683
0.009708
0.009410
0.009431
0.009279
0.008407
0.006249
0.002234
-0.004160
-0.013264
-0.024981
-0.038602
-0.052798
-0.065864
-0.076084
-0.082101
-0.082876
-0.078119
-0.068703
-0.055950
-0.041344
-0.026282
-0.011903
0.000990
0.011923
0.020699
0.027334
0.032003
0.035003
0.036717
0.037567
0.037936
0.038123
0.038353
0.038631
0.038845
0.038812
0.038315
0.037141
0.035110
0.032112
0.028128
0.023260
0.017719
0.011175
0.418493
0.420968
0.427927
0.439303
0.454749
0.473176
0.491840
0.504809
0.501052
0.463045
0.372641
0.220319
0.064258
-0.381367
-0.641838
-0.580994
-0.640211
-0.710057
-0.700439
-0.637096
-0.541238
-0.432268
-0.325417
-0.231542
-0.156926
-0.103108
-0.067352
-0.045599
-0.037276
-0.036651
-0.043126
-0.057767
-0.081566
-0.115082
-0.156763
-0.201658
-0.242229
-0.270915
-0.282605
-0.271980
-0.247479
-0.214614
-0.177753
-0.140285
-0.104659
-0.072475
-0.044629
-0.021485
-0.003052
0.010852
0.020487
0.026197
0.028528
0.028320
0.026610
0.024368
0.022163
0.020477
0.019023
0.017345
0.014898
0.011089
0.005311
-0.002975
-0.014058
-0.027752
-0.043216
-0.058988
-0.073226
-0.084086
-0.090103
-0.090076
-0.084045
-0.072993
-0.058400
-0.041915
-0.025075
-0.009119
0.005102
0.017115
0.026766
0.034126
0.039425
0.043003
0.045273
0.046679
0.047634
0.048457
0.049372
0.050439
0.051582
0.052650
0.053458
0.053828
0.053622
0.052776
0.051335
0.049465
0.047463
0.046438
0.405772
0.407361
0.411731
0.418529
0.426960
0.435390
0.440701
0.437365
0.416422
0.364544
0.263918
0.090112
-0.209135
-0.826992
-0.702682
-0.600655
-0.641334
-0.675413
-0.650069
-0.583200
-0.489325
-0.383547
-0.278500
-0.183728
-0.105587
-0.046512
-0.004422
0.023752
0.036718
0.032914
0.016953
-0.011281
-0.051009
-0.100764
-0.156665
-0.211870
-0.257957
-0.287448
-0.293897
-0.276824
-0.247400
-0.210757
-0.171261
-0.132188
-0.095763
-0.063320
-0.035503
-0.012467
0.005953
0.020074
0.030247
0.036797
0.040097
0.040706
0.039409
0.037055
0.034343
0.031881
0.029487
0.026749
0.023125
0.017999
0.010740
0.000818
-0.011998
-0.027410
-0.044448
-0.061522
-0.076675
-0.087955
-0.093819
-0.092954
-0.085802
-0.073432
-0.057441
-0.039598
-0.021541
-0.004567
0.010453
0.023073
0.033188
0.040935
0.046601
0.050570
0.053281
0.055193
0.056739
0.058266
0.059974
0.061963
0.064184
0.066510
0.068782
0.070853
0.072626
0.074086
0.075337
0.076616
0.078304
0.083038
0.390142
0.390886
0.392816
0.395434
0.397745
0.397979
0.393173
0.378649
0.347479
0.289982
0.193128
0.039534
-0.193873
-0.492149
-0.551060
-0.555016
-0.576392
-0.578437
-0.551550
-0.495421
-0.418279
-0.330507
-0.241603
-0.158984
-0.087467
-0.028911
0.017081
0.050046
0.070494
0.073819
0.054439
0.018285
-0.031279
-0.090504
-0.153555
-0.212461
-0.258512
-0.284604
-0.282555
-0.262700
-0.231512
-0.194333
-0.155321
-0.117435
-0.082576
-0.051801
-0.025543
-0.003809
0.013660
0.027254
0.037384
0.044401
0.048595
0.050297
0.049982
0.048263
0.045691
0.043065
0.040273
0.036962
0.032601
0.026558
0.018189
0.006995
-0.007178
-0.023915
-0.042119
-0.060091
-0.075780
-0.087166
-0.092662
-0.090982
-0.082938
-0.069661
-0.052826
-0.034272
-0.015680
0.001642
0.016852
0.029551
0.039701
0.047504
0.053298
0.057500
0.060561
0.062946
0.065090
0.067352
0.069935
0.072948
0.076360
0.080062
0.083918
0.087807
0.091670
0.095538
0.099571
0.104076
0.109513
0.120096
0.373148
0.373160
0.373009
0.372158
0.369600
0.363688
0.351891
0.330544
0.294662
0.237913
0.152887
0.032379
-0.125288
-0.299151
-0.394751
-0.441205
-0.466451
-0.467577
-0.447791
-0.406979
-0.349798
-0.282967
-0.213199
-0.146046
-0.085344
-0.033082
0.010048
0.043838
0.069136
0.074325
0.057985
0.022647
-0.027360
-0.086483
-0.147670
-0.202505
-0.242438
-0.259933
-0.253390
-0.232873
-0.203134
-0.168664
-0.133012
-0.098676
-0.067230
-0.039516
-0.015847
0.003820
0.019750
0.032323
0.041953
0.049011
0.053787
0.056510
0.057430
0.056869
0.055370
0.053270
0.050653
0.047276
0.042646
0.036128
0.027087
0.015065
0.000002
-0.017569
-0.036438
-0.054813
-0.070591
-0.081727
-0.086651
-0.084188
-0.075492
-0.061747
-0.044668
-0.026107
-0.007726
0.009221
0.023968
0.036205
0.045969
0.053523
0.059247
0.063567
0.066930
0.069784
0.072549
0.075578
0.079092
0.083191
0.087860
0.093007
0.098513
0.104281
0.110282
0.116591
0.123420
0.131141
0.140290
0.156656
0.356125
0.355550
0.353752
0.350226
0.344070
0.333887
0.317672
0.292739
0.255742
0.202919
0.130734
0.037364
-0.073880
-0.189534
-0.275333
-0.330024
-0.360805
-0.369716
-0.359626
-0.332816
-0.292639
-0.243678
-0.190695
-0.137852
-0.088281
-0.043984
-0.006110
0.025575
0.046137
0.051060
0.038477
0.009284
-0.033324
-0.084047
-0.135799
-0.180441
-0.210187
-0.218767
-0.212150
-0.194079
-0.168507
-0.139032
-0.108528
-0.079056
-0.051939
-0.027904
-0.007240
0.010070
0.024239
0.035589
0.044491
0.051301
0.056314
0.059747
0.061763
0.062499
0.062561
0.061581
0.059722
0.056816
0.052413
0.045897
0.036659
0.024304
0.008867
-0.009004
-0.027998
-0.046261
-0.061668
-0.072192
-0.076284
-0.073094
-0.063983
-0.050190
-0.033447
-0.015574
0.001855
0.017709
0.031360
0.042618
0.051615
0.058670
0.064179
0.068557
0.072219
0.075573
0.079003
0.082842
0.087319
0.092528
0.098472
0.105076
0.112235
0.119873
0.127988
0.136691
0.146243
0.157075
0.169790
0.191723
0.340143
0.339125
0.336098
0.330633
0.321980
0.309032
0.290290
0.263883
0.227696
0.179675
0.118428
0.044272
-0.039139
-0.123357
-0.193813
-0.245202
-0.277722
-0.292390
-0.290649
-0.274776
-0.247526
-0.212273
-0.172532
-0.131501
-0.091771
-0.055235
-0.023180
0.002921
0.019685
0.024436
0.015678
-0.006221
-0.038845
-0.077769
-0.116944
-0.149591
-0.169611
-0.175267
-0.169811
-0.155412
-0.134870
-0.110900
-0.085778
-0.061214
-0.038361
-0.017901
-0.000140
0.014887
0.027328
0.037448
0.045562
0.051998
0.057043
0.060922
0.063781
0.065818
0.067200
0.067520
0.066797
0.064804
0.061079
0.055021
0.046059
0.033862
0.018564
0.000914
-0.017694
-0.035361
-0.049971
-0.059573
-0.062465
-0.058658
-0.049343
-0.035866
-0.019972
-0.003404
0.012411
0.026532
0.038524
0.048363
0.056289
0.062663
0.067878
0.072307
0.076304
0.080213
0.084364
0.089061
0.094514
0.100824
0.108013
0.116024
0.124771
0.134196
0.144319
0.155284
0.167393
0.181130
0.197164
0.224302
0.326013
0.324673
0.320772
0.313970
0.303680
0.289064
0.269047
0.242380
0.207792
0.164265
0.111483
0.050458
-0.015740
-0.081631
-0.139781
-0.185583
-0.217336
-0.234905
-0.238932
-0.230876
-0.212949
-0.187739
-0.157951
-0.126129
-0.094457
-0.064701
-0.038263
-0.017005
-0.003022
0.001894
-0.003295
-0.018345
-0.041441
-0.069182
-0.096978
-0.119923
-0.133986
-0.138487
-0.134418
-0.123252
-0.106967
-0.087600
-0.066965
-0.046502
-0.027241
-0.009828
0.005415
0.018419
0.029295
0.038266
0.045618
0.051650
0.056640
0.060811
0.064304
0.067421
0.069777
0.071278
0.071760
0.070881
0.068122
0.062868
0.054568
0.042951
0.028231
0.011244
-0.006548
-0.023213
-0.036652
-0.045017
-0.046520
-0.042163
-0.032815
-0.019949
-0.005304
0.009484
0.023181
0.035082
0.044993
0.053092
0.059740
0.065338
0.070246
0.074764
0.079156
0.083679
0.088593
0.094188
0.100598
0.107960
0.116315
0.125627
0.135830
0.146885
0.158832
0.171840
0.186248
0.202587
0.221586
0.253438
0.314322
0.312747
0.308237
0.300547
0.289237
0.273689
0.253148
0.226806
0.193935
0.154115
0.107536
0.055365
0.000061
-0.054608
-0.104124
-0.144957
-0.175110
-0.193869
-0.201457
-0.198666
-0.187217
-0.169135
-0.146577
-0.121632
-0.096176
-0.071832
-0.050010
-0.032340
-0.020292
-0.015113
-0.017496
-0.027232
-0.042973
-0.062225
-0.081685
-0.097925
-0.108281
-0.111721
-0.108429
-0.099387
-0.086024
-0.069913
-0.052536
-0.035128
-0.018616
-0.003604
0.009593
0.020898
0.030414
0.038358
0.045008
0.050657
0.055573
0.059979
0.064043
0.067767
0.070950
0.073455
0.075023
0.075234
0.073514
0.069219
0.061807
0.051039
0.037190
0.021161
0.004476
-0.010903
-0.022884
-0.029659
-0.030074
-0.025186
-0.015949
-0.003890
0.009280
0.022052
0.033387
0.042828
0.050444
0.056639
0.061920
0.066728
0.071370
0.076042
0.080890
0.086065
0.091775
0.098207
0.105515
0.113838
0.123231
0.133682
0.145147
0.157606
0.171118
0.185873
0.202236
0.220779
0.242288
0.278239
0.305496
0.303720
0.298768
0.290496
0.278577
0.262550
0.241882
0.216049
0.184658
0.147615
0.105339
0.058976
0.010534
-0.037185
-0.081005
-0.118160
-0.146768
-0.165906
-0.175524
-0.176116
-0.168975
-0.155740
-0.138197
-0.118120
-0.097156
-0.076778
-0.058327
-0.043146
-0.032396
-0.027008
-0.027478
-0.033634
-0.044459
-0.058091
-0.072080
-0.083898
-0.091609
-0.093939
-0.090842
-0.082957
-0.071366
-0.057342
-0.042138
-0.026840
-0.012289
0.000956
0.012596
0.022563
0.030966
0.038035
0.044065
0.049364
0.054208
0.058824
0.063289
0.067510
0.071393
0.074741
0.077233
0.078397
0.077622
0.074252
0.067744
0.057883
0.044981
0.029994
0.014492
0.000463
-0.010035
-0.015282
-0.014883
-0.009646
-0.000640
0.010567
0.022306
0.033172
0.042283
0.049392
0.054800
0.059138
0.063083
0.067139
0.071568
0.076455
0.081790
0.087600
0.094011
0.101176
0.109261
0.118395
0.128646
0.140020
0.152497
0.166077
0.180832
0.196967
0.214868
0.235132
0.258591
0.297906
0.299910
0.297828
0.292497
0.283840
0.271575
0.255329
0.234698
0.209326
0.179003
0.143804
0.104241
0.061403
0.017020
-0.026627
-0.067008
-0.101807
-0.129294
-0.148492
-0.159180
-0.161767
-0.157261
-0.147048
-0.132680
-0.115732
-0.097693
-0.079912
-0.063620
-0.050006
-0.040046
-0.034509
-0.033807
-0.037808
-0.045701
-0.055994
-0.066722
-0.075831
-0.081674
-0.083128
-0.079986
-0.072687
-0.062105
-0.049324
-0.035452
-0.021474
-0.008166
0.003940
0.014562
0.023634
0.031268
0.037701
0.043242
0.048224
0.052962
0.057736
0.062453
0.067121
0.071605
0.075658
0.078907
0.080841
0.080828
0.078203
0.072426
0.063297
0.051160
0.037016
0.022484
0.009562
0.000272
-0.003973
-0.003171
0.002175
0.010889
0.021393
0.032059
0.041548
0.049068
0.054476
0.058214
0.061068
0.063869
0.067223
0.071419
0.076505
0.082197
0.088490
0.095452
0.103198
0.111874
0.121608
0.132478
0.144511
0.157705
0.172074
0.187701
0.204798
0.223758
0.245192
0.269938
0.311666
0.298136
0.295142
0.289430
0.280544
0.268123
0.251808
0.231252
0.206171
0.176432
0.142177
0.103942
0.062775
0.020272
-0.021511
-0.060306
-0.093994
-0.120928
-0.140130
-0.151346
-0.154859
-0.151586
-0.142796
-0.129932
-0.114475
-0.097847
-0.081365
-0.066200
-0.053342
-0.043726
-0.038076
-0.036787
-0.039768
-0.046308
-0.055080
-0.064330
-0.072250
-0.077305
-0.078345
-0.075173
-0.068150
-0.058044
-0.045846
-0.032587
-0.019199
-0.006428
0.005209
0.015431
0.024171
0.031533
0.037747
0.043119
0.047976
0.052610
0.057180
0.062037
0.067041
0.071972
0.076533
0.080311
0.082767
0.083247
0.081068
0.075680
0.066885
0.055049
0.041222
0.027084
0.014642
0.005723
0.001590
0.002480
0.007758
0.016231
0.026353
0.036548
0.045517
0.052492
0.057338
0.060499
0.062781
0.065051
0.067971
0.071850
0.076657
0.082438
0.089012
0.096304
0.104389
0.113400
0.123469
0.134682
0.147076
0.160658
0.175447
0.191528
0.209113
0.228597
0.250590
0.275920
0.318394
