# vtk DataFile Version 3.0
Scalar Field
ASCII
DATASET RECTILINEAR_GRID
DIMENSIONS 100 26 1
X_COORDINATES 100 double
0.050000 0.150000 0.250000 0.350000 0.450000 0.550000 0.650000 0.750000 0.850000 0.950000 1.050000 1.150000 1.250000 1.350000 1.450000 1.550000 1.650000 1.750000 1.850000 1.950000 2.050000 2.150000 2.250000 2.350000 2.450000 2.550000 2.650000 2.750000 2.850000 2.950000 3.050000 3.150000 3.250000 3.350000 3.450000 3.550000 3.650000 3.750000 3.850000 3.950000 4.050000 4.150000 4.250000 4.350000 4.450000 4.550000 4.650000 4.750000 4.850000 4.950000 5.050000 5.150000 5.250000 5.350000 5.450000 5.550000 5.650000 5.750000 5.850000 5.950000 6.050000 6.150000 6.250000 6.350000 6.450000 6.550000 6.650000 6.750000 6.850000 6.950000 7.050000 7.150000 7.250000 7.350000 7.450000 7.550000 7.650000 7.750000 7.850000 7.950000 8.050000 8.150000 8.250000 8.350000 8.450000 8.550000 8.650000 8.750000 8.850000 8.950000 9.050000 9.150000 9.250000 9.350000 9.450000 9.550000 9.650000 9.750000 9.850000 9.950000 
Y_COORDINATES 26 double
0.050000 0.150000 0.250000 0.350000 0.450000 0.550000 0.650000 0.750000 0.850000 0.950000 1.050000 1.150000 1.250000 1.350000 1.450000 1.550000 1.650000 1.750000 1.850000 1.950000 2.050000 2.150000 2.250000 2.350000 2.450000 2.550000 
Z_COORDINATES 1 double
0.0
POINT_DATA 2600
SCALARS Skalarfeld double 1
LOOKUP_TABLE default
0.303790
0.288748
0.274207
0.257115
0.236349
0.211409
0.182180
0.148911
0.112258
0.073300
0.033456
-0.005744
-0.042924
-0.077022
-0.107351
-0.133562
-0.155534
-0.172691
-0.185080
-0.192731
-0.195768
-0.194468
-0.189291
-0.180884
-0.170030
-0.157564
-0.144274
-0.130810
-0.117604
-0.104847
-0.092491
-0.080303
-0.067957
-0.055127
-0.041571
-0.027328
-0.010961
0.005993
0.021952
0.035821
0.046871
0.054699
0.059242
0.060398
0.059496
0.056416
0.051007
0.043105
0.032572
0.019440
0.004133
-0.012269
-0.027883
-0.040385
-0.048045
-0.050725
-0.049655
-0.045776
-0.040367
-0.033894
-0.027045
-0.020378
-0.014287
-0.009021
-0.004728
-0.001478
0.000683
0.001748
0.001907
0.001244
0.000087
-0.001202
-0.002309
-0.003088
-0.003363
-0.003682
-0.004549
-0.006205
-0.008720
-0.011958
-0.015704
-0.019698
-0.023671
-0.027427
-0.030892
-0.034092
-0.037123
-0.040052
-0.042871
-0.045538
-0.048075
-0.050563
-0.053093
-0.055742
-0.058579
-0.061652
-0.064969
-0.068486
-0.072110
-0.075704
0.294536
0.288306
0.276758
0.260889
0.240531
0.215447
0.185555
0.151110
0.112848
0.072050
0.030445
-0.010170
-0.048303
-0.082919
-0.113424
-0.139510
-0.160968
-0.178094
-0.190596
-0.198369
-0.201474
-0.200126
-0.194748
-0.185976
-0.174612
-0.161526
-0.147549
-0.133371
-0.119461
-0.106033
-0.093059
-0.080316
-0.067482
-0.054212
-0.040071
-0.024418
-0.008092
0.008118
0.023240
0.036398
0.046913
0.054379
0.058810
0.060811
0.059670
0.056266
0.050533
0.042327
0.031491
0.018017
0.002302
-0.014517
-0.030377
-0.042761
-0.049935
-0.051894
-0.050047
-0.046403
-0.041055
-0.034361
-0.027349
-0.020557
-0.014364
-0.009012
-0.004642
-0.001316
0.000981
0.002260
0.002366
0.001541
0.000271
-0.001082
-0.002140
-0.002613
-0.002841
-0.003237
-0.004148
-0.005809
-0.008289
-0.011579
-0.015491
-0.019647
-0.023679
-0.027409
-0.030920
-0.034088
-0.037115
-0.040075
-0.042934
-0.045600
-0.048115
-0.050593
-0.053129
-0.055799
-0.058678
-0.061814
-0.065206
-0.068779
-0.072350
-0.075562
0.296811
0.292950
0.283333
0.268555
0.248554
0.223044
0.191814
0.155024
0.113498
0.068903
0.023701
-0.019706
-0.059606
-0.095079
-0.125820
-0.151866
-0.173373
-0.190512
-0.203407
-0.211633
-0.215079
-0.213791
-0.208066
-0.198492
-0.185887
-0.171185
-0.155302
-0.139017
-0.122892
-0.107238
-0.092122
-0.077416
-0.062874
-0.048193
-0.033053
-0.017196
-0.001570
0.013363
0.026989
0.038622
0.047648
0.053679
0.056698
0.057086
0.055005
0.050176
0.043495
0.034917
0.024312
0.011679
-0.002594
-0.017455
-0.031174
-0.041845
-0.048297
-0.050571
-0.049414
-0.045485
-0.039694
-0.033458
-0.026843
-0.020303
-0.014289
-0.009074
-0.004815
-0.001592
0.000578
0.001726
0.001940
0.001462
0.000512
-0.000506
-0.001295
-0.001760
-0.002091
-0.002573
-0.003532
-0.005233
-0.007789
-0.011153
-0.015098
-0.019254
-0.023276
-0.026967
-0.030278
-0.033544
-0.036773
-0.039893
-0.042883
-0.045542
-0.048028
-0.050534
-0.053130
-0.055880
-0.058884
-0.062206
-0.065844
-0.069705
-0.073527
-0.076640
0.306262
0.303188
0.294666
0.280705
0.260917
0.234665
0.201339
0.160781
0.113841
0.062784
0.011691
-0.035898
-0.078061
-0.114275
-0.144839
-0.170396
-0.191574
-0.208760
-0.222029
-0.230956
-0.234964
-0.233795
-0.227540
-0.216721
-0.202209
-0.185054
-0.166310
-0.146894
-0.127507
-0.108601
-0.090397
-0.072926
-0.056097
-0.039763
-0.023781
-0.008095
0.006958
0.020844
0.033069
0.042983
0.049963
0.053641
0.054046
0.051588
0.046884
0.040304
0.032120
0.023019
0.012951
0.001924
-0.009782
-0.021431
-0.031877
-0.039923
-0.044814
-0.046458
-0.045224
-0.041695
-0.036588
-0.030496
-0.024214
-0.018337
-0.012897
-0.008194
-0.004386
-0.001578
0.000214
0.001062
0.001131
0.000672
-0.000055
-0.000784
-0.001335
-0.001653
-0.001883
-0.002308
-0.003221
-0.004854
-0.007283
-0.010430
-0.014137
-0.018094
-0.022024
-0.025783
-0.029364
-0.032860
-0.036235
-0.039365
-0.042113
-0.044748
-0.047368
-0.050052
-0.052808
-0.055697
-0.058919
-0.062564
-0.066657
-0.071160
-0.075888
-0.080978
0.321402
0.318747
0.311079
0.297961
0.278509
0.251440
0.215325
0.169207
0.113678
0.051752
-0.008533
-0.061666
-0.105968
-0.142019
-0.171292
-0.195406
-0.215682
-0.232836
-0.246753
-0.256797
-0.261759
-0.260806
-0.253708
-0.240969
-0.223642
-0.203034
-0.180442
-0.156991
-0.133554
-0.110741
-0.088928
-0.068308
-0.048945
-0.030824
-0.013894
0.001908
0.016605
0.029858
0.041009
0.049293
0.053970
0.054717
0.051696
0.045492
0.037014
0.027397
0.017580
0.007878
-0.001488
-0.010570
-0.019309
-0.027372
-0.034169
-0.039066
-0.041647
-0.041845
-0.039897
-0.036231
-0.031372
-0.025856
-0.020209
-0.014737
-0.009901
-0.005893
-0.002730
-0.000564
0.000608
0.000895
0.000528
-0.000194
-0.000989
-0.001644
-0.002062
-0.002259
-0.002390
-0.002697
-0.003423
-0.004771
-0.006894
-0.009778
-0.013303
-0.017115
-0.020975
-0.024748
-0.028374
-0.031844
-0.035121
-0.038161
-0.040970
-0.043668
-0.046324
-0.048946
-0.051711
-0.054826
-0.058387
-0.062512
-0.067249
-0.072718
-0.078947
-0.087709
0.341438
0.339209
0.332602
0.320816
0.302370
0.274995
0.235777
0.181924
0.112811
0.031743
-0.042380
-0.101476
-0.146102
-0.179530
-0.205212
-0.226156
-0.244643
-0.261878
-0.277517
-0.289790
-0.296731
-0.296441
-0.288197
-0.272636
-0.251270
-0.225910
-0.198270
-0.169766
-0.141473
-0.114147
-0.088289
-0.064209
-0.042080
-0.021981
-0.003911
0.012209
0.026558
0.039454
0.049881
0.056834
0.059322
0.057168
0.050767
0.040847
0.028423
0.014811
0.001548
-0.009261
-0.018084
-0.025246
-0.031031
-0.035551
-0.038708
-0.040305
-0.040207
-0.038444
-0.035217
-0.030860
-0.025778
-0.020390
-0.015085
-0.010171
-0.005934
-0.002490
-0.000052
0.001360
0.001730
0.001218
0.000142
-0.001114
-0.002232
-0.003027
-0.003457
-0.003558
-0.003500
-0.003547
-0.003977
-0.005034
-0.006881
-0.009561
-0.012852
-0.016560
-0.020421
-0.024201
-0.027775
-0.031099
-0.034166
-0.036989
-0.039619
-0.042147
-0.044664
-0.047270
-0.050123
-0.053391
-0.057198
-0.061713
-0.067178
-0.073758
-0.081692
-0.094627
0.365574
0.363945
0.358962
0.349548
0.333605
0.307577
0.266066
0.202279
0.111183
-0.006251
-0.099216
-0.160672
-0.200058
-0.225938
-0.244176
-0.259214
-0.274456
-0.291945
-0.311469
-0.329109
-0.340251
-0.341797
-0.332262
-0.312817
-0.285951
-0.254356
-0.220356
-0.185736
-0.151772
-0.119334
-0.088998
-0.061133
-0.035975
-0.013675
0.005679
0.022076
0.035644
0.047287
0.057026
0.063008
0.063575
0.059027
0.050200
0.037961
0.023178
0.006919
-0.009389
-0.024084
-0.033896
-0.039992
-0.043545
-0.045135
-0.045120
-0.043683
-0.040943
-0.037054
-0.032240
-0.026797
-0.021061
-0.015374
-0.010041
-0.005318
-0.001417
0.001491
0.003212
0.003669
0.002936
0.001263
-0.000945
-0.003192
-0.004899
-0.006032
-0.006651
-0.006679
-0.006306
-0.005862
-0.005707
-0.006159
-0.007441
-0.009636
-0.012652
-0.016297
-0.020213
-0.024009
-0.027581
-0.030778
-0.033613
-0.036138
-0.038440
-0.040638
-0.042864
-0.045262
-0.047997
-0.051247
-0.055192
-0.060047
-0.066074
-0.073569
-0.082937
-0.099143
0.392690
0.391923
0.389387
0.383915
0.373029
0.351916
0.311706
0.237565
0.109193
-0.083192
-0.193009
-0.241357
-0.264207
-0.275781
-0.282082
-0.287939
-0.297608
-0.314373
-0.339474
-0.368803
-0.388856
-0.394672
-0.384145
-0.359952
-0.326384
-0.287447
-0.246217
-0.204847
-0.164772
-0.126925
-0.091905
-0.060104
-0.031790
-0.007188
0.013454
0.029846
0.041859
0.049817
0.055818
0.061083
0.059568
0.053195
0.043722
0.031881
0.017906
0.002192
-0.014346
-0.030206
-0.043560
-0.051124
-0.053979
-0.054009
-0.051942
-0.048295
-0.043438
-0.037677
-0.031313
-0.024662
-0.018046
-0.011769
-0.006101
-0.001267
0.002534
0.005098
0.006200
0.005694
0.003638
0.000383
-0.003474
-0.007258
-0.010455
-0.012397
-0.013140
-0.012819
-0.011787
-0.010489
-0.009378
-0.008844
-0.009175
-0.010520
-0.012868
-0.016065
-0.019813
-0.023780
-0.027461
-0.030599
-0.033277
-0.035537
-0.037491
-0.039289
-0.041108
-0.043133
-0.045563
-0.048601
-0.052466
-0.057405
-0.063713
-0.071747
-0.081983
-0.099974
0.421182
0.421544
0.422323
0.422611
0.420221
0.410106
0.380542
0.304274
0.112977
-0.251183
-0.335951
-0.330538
-0.324278
-0.318537
-0.311479
-0.306782
-0.308881
-0.321871
-0.349491
-0.390448
-0.430941
-0.444818
-0.434676
-0.406153
-0.366259
-0.320558
-0.272820
-0.225453
-0.179976
-0.137357
-0.098224
-0.063006
-0.032035
-0.005660
0.015606
0.030997
0.039895
0.043088
0.042942
0.040686
0.037441
0.032378
0.025885
0.017949
0.008226
-0.003507
-0.016947
-0.031068
-0.044229
-0.054590
-0.059470
-0.059617
-0.057045
-0.052485
-0.046503
-0.039564
-0.032085
-0.024454
-0.017032
-0.010143
-0.004067
0.000951
0.004660
0.006766
0.006954
0.005041
0.001161
-0.004135
-0.009972
-0.015386
-0.019626
-0.022233
-0.022736
-0.021656
-0.019575
-0.017080
-0.014710
-0.012910
-0.012014
-0.012221
-0.013584
-0.016004
-0.019238
-0.022938
-0.026686
-0.030109
-0.032731
-0.034835
-0.036516
-0.037945
-0.039330
-0.040895
-0.042876
-0.045511
-0.049047
-0.053757
-0.059952
-0.068006
-0.078395
-0.096740
0.448957
0.450600
0.455235
0.462624
0.471889
0.480152
0.478224
0.435275
0.212419
-0.568290
-0.503591
-0.384732
-0.357473
-0.344247
-0.330004
-0.319559
-0.317831
-0.327005
-0.351449
-0.392594
-0.441543
-0.474495
-0.467298
-0.437027
-0.393906
-0.344814
-0.293841
-0.243433
-0.195136
-0.149988
-0.108741
-0.072003
-0.040404
-0.014777
0.003769
0.014335
0.017246
0.014689
0.009866
0.004636
0.001848
0.000414
-0.000760
-0.002561
-0.005871
-0.011406
-0.019418
-0.029446
-0.040279
-0.050221
-0.057593
-0.060133
-0.058505
-0.054436
-0.048552
-0.041427
-0.033592
-0.025540
-0.017716
-0.010515
-0.004282
0.000663
0.003969
0.005231
0.004069
0.000326
-0.005694
-0.013140
-0.020787
-0.027411
-0.032160
-0.034480
-0.034154
-0.031890
-0.028442
-0.024516
-0.020717
-0.017528
-0.015301
-0.014257
-0.014487
-0.015940
-0.018427
-0.021632
-0.025153
-0.028578
-0.031545
-0.033600
-0.035126
-0.036278
-0.037276
-0.038372
-0.039829
-0.041914
-0.044898
-0.049068
-0.054737
-0.062271
-0.072107
-0.089553
0.473647
0.476487
0.484773
0.499109
0.520507
0.550286
0.589413
0.634965
0.721208
0.076459
-0.436120
-0.368650
-0.362847
-0.356181
-0.348557
-0.341930
-0.340312
-0.345731
-0.362834
-0.394186
-0.433976
-0.465610
-0.470770
-0.441220
-0.398884
-0.351186
-0.301814
-0.252905
-0.205935
-0.162049
-0.122229
-0.087446
-0.058834
-0.037752
-0.025410
-0.021882
-0.025178
-0.031596
-0.037585
-0.040651
-0.039199
-0.035056
-0.029802
-0.024769
-0.021136
-0.019887
-0.021652
-0.026473
-0.033643
-0.041789
-0.049221
-0.054400
-0.055238
-0.052807
-0.048149
-0.041864
-0.034564
-0.026839
-0.019243
-0.012268
-0.006360
-0.001950
0.000497
0.000481
-0.002401
-0.008194
-0.016333
-0.025622
-0.034539
-0.041716
-0.046316
-0.047629
-0.045970
-0.042177
-0.037132
-0.031637
-0.026349
-0.021765
-0.018235
-0.015975
-0.015081
-0.015532
-0.017180
-0.019755
-0.022880
-0.026136
-0.029133
-0.031496
-0.032965
-0.033947
-0.034647
-0.035316
-0.036233
-0.037681
-0.039945
-0.043315
-0.048096
-0.054629
-0.063300
-0.078836
0.493046
0.496725
0.507556
0.526672
0.556237
0.600000
0.664461
0.760439
0.892653
0.912613
0.000000
-0.366513
-0.364376
-0.366490
-0.368351
-0.370759
-0.373714
-0.378855
-0.388665
-0.403960
-0.422748
-0.435050
-0.435101
-0.414732
-0.376431
-0.334023
-0.290557
-0.247589
-0.206373
-0.168092
-0.133944
-0.105280
-0.083689
-0.070742
-0.067039
-0.071007
-0.078835
-0.086075
-0.089446
-0.086559
-0.078677
-0.067793
-0.055720
-0.043991
-0.033878
-0.026414
-0.022353
-0.022033
-0.025178
-0.030816
-0.037431
-0.043342
-0.047112
-0.047063
-0.044407
-0.039774
-0.033797
-0.027134
-0.020429
-0.014277
-0.009235
-0.005849
-0.004700
-0.006353
-0.011177
-0.019033
-0.029056
-0.039748
-0.049398
-0.056584
-0.060508
-0.060363
-0.057031
-0.051480
-0.044705
-0.037586
-0.030821
-0.024912
-0.020185
-0.016829
-0.014923
-0.014447
-0.015281
-0.017190
-0.019836
-0.022809
-0.025694
-0.028154
-0.029813
-0.030710
-0.031201
-0.031509
-0.031909
-0.032687
-0.034126
-0.036509
-0.040122
-0.045271
-0.052293
-0.065149
0.505609
0.509596
0.521311
0.541872
0.573254
0.618324
0.680383
0.760983
0.853800
0.932573
0.837923
0.000000
-0.370709
-0.377043
-0.389006
-0.405127
-0.419781
-0.430198
-0.431626
-0.425424
-0.414803
-0.399688
-0.379672
-0.356085
-0.326999
-0.291069
-0.255740
-0.221633
-0.189561
-0.160612
-0.136137
-0.117818
-0.107492
-0.106270
-0.113124
-0.124335
-0.134863
-0.140659
-0.138031
-0.127363
-0.112005
-0.093992
-0.075253
-0.057398
-0.041688
-0.029075
-0.020241
-0.015582
-0.015074
-0.018106
-0.023452
-0.029513
-0.034761
-0.037534
-0.037087
-0.034550
-0.030421
-0.025361
-0.020070
-0.015231
-0.011500
-0.009540
-0.010029
-0.013568
-0.020436
-0.030271
-0.041930
-0.053689
-0.063729
-0.070611
-0.073482
-0.071598
-0.066437
-0.059061
-0.050559
-0.041877
-0.033737
-0.026632
-0.020858
-0.016566
-0.013798
-0.012521
-0.012623
-0.013899
-0.016043
-0.018669
-0.021360
-0.023740
-0.025536
-0.026464
-0.026821
-0.026832
-0.026755
-0.026862
-0.027426
-0.028707
-0.030963
-0.034459
-0.039479
-0.049091
0.510766
0.514532
0.525519
0.544482
0.572652
0.611571
0.662232
0.722446
0.778286
0.791712
0.743272
0.618771
0.000000
-0.394122
-0.411200
-0.449822
-0.483099
-0.502922
-0.492000
-0.457812
-0.412266
-0.364612
-0.320601
-0.281701
-0.250842
-0.222400
-0.195368
-0.171193
-0.150187
-0.133419
-0.122416
-0.118987
-0.124494
-0.138387
-0.157135
-0.175050
-0.186640
-0.188433
-0.177448
-0.159215
-0.136572
-0.111920
-0.087290
-0.064282
-0.044075
-0.027484
-0.015039
-0.007046
-0.003555
-0.004208
-0.008093
-0.013792
-0.019689
-0.024325
-0.026353
-0.026066
-0.023991
-0.020791
-0.017197
-0.013953
-0.011810
-0.011536
-0.013888
-0.019461
-0.028404
-0.040126
-0.053248
-0.065885
-0.076161
-0.082707
-0.083780
-0.080313
-0.073435
-0.064391
-0.054367
-0.044346
-0.035056
-0.026970
-0.020347
-0.015293
-0.011816
-0.009862
-0.009318
-0.010002
-0.011641
-0.013879
-0.016311
-0.018549
-0.020305
-0.021306
-0.021534
-0.021282
-0.020763
-0.020221
-0.019898
-0.020025
-0.020820
-0.022497
-0.025280
-0.031251
0.508934
0.512136
0.521393
0.537064
0.559563
0.588883
0.623598
0.658425
0.679910
0.662595
0.589073
0.494269
0.315927
0.000000
-0.464925
-0.518649
-0.557027
-0.579063
-0.548661
-0.485528
-0.407423
-0.328663
-0.259259
-0.203681
-0.162833
-0.133507
-0.113644
-0.099082
-0.089862
-0.087460
-0.093416
-0.108898
-0.133566
-0.164213
-0.194754
-0.218262
-0.229733
-0.223676
-0.205059
-0.179828
-0.151003
-0.121080
-0.092039
-0.065351
-0.042030
-0.022716
-0.007766
0.002645
0.008490
0.009969
0.007696
0.002798
-0.003234
-0.008942
-0.012969
-0.014620
-0.014470
-0.013095
-0.011223
-0.009647
-0.009198
-0.010731
-0.015053
-0.022713
-0.033698
-0.047201
-0.061646
-0.075022
-0.085364
-0.091140
-0.090694
-0.085751
-0.077472
-0.067167
-0.056052
-0.045111
-0.035047
-0.026297
-0.019077
-0.013455
-0.009410
-0.006871
-0.005731
-0.005832
-0.006938
-0.008724
-0.010809
-0.012802
-0.014383
-0.015336
-0.015464
-0.014969
-0.014032
-0.012864
-0.011672
-0.010644
-0.009946
-0.009730
-0.010148
-0.012210
0.501154
0.503551
0.510384
0.521607
0.536905
0.555212
0.573801
0.586705
0.582670
0.543902
0.452245
0.297726
0.137586
-0.318437
-0.622029
-0.562601
-0.605919
-0.610696
-0.563523
-0.482763
-0.386228
-0.288969
-0.201932
-0.131963
-0.080951
-0.046115
-0.026065
-0.019212
-0.020835
-0.033482
-0.057864
-0.093280
-0.136779
-0.182447
-0.222327
-0.248921
-0.256318
-0.242145
-0.217853
-0.187666
-0.154844
-0.121856
-0.090507
-0.062045
-0.037263
-0.016605
-0.000262
0.011727
0.019392
0.022846
0.022434
0.018922
0.013529
0.007664
0.002538
-0.000723
-0.002170
-0.002372
-0.002061
-0.002063
-0.003276
-0.006617
-0.012898
-0.022576
-0.035466
-0.050564
-0.066140
-0.080091
-0.090467
-0.094978
-0.093329
-0.087393
-0.078321
-0.067413
-0.055855
-0.044583
-0.034246
-0.025230
-0.017712
-0.011728
-0.007241
-0.004180
-0.002452
-0.001931
-0.002421
-0.003644
-0.005249
-0.006862
-0.008153
-0.008894
-0.008862
-0.008100
-0.006751
-0.004983
-0.002957
-0.000811
0.001350
0.003450
0.005431
0.007432
0.488908
0.490408
0.494592
0.501127
0.509240
0.517312
0.522217
0.518364
0.496618
0.443392
0.340530
0.162722
-0.144093
-0.774459
-0.681458
-0.583817
-0.588167
-0.571061
-0.517752
-0.436879
-0.341473
-0.244160
-0.155134
-0.081271
-0.025202
0.014437
0.039705
0.046158
0.037618
0.012099
-0.028157
-0.079605
-0.136771
-0.191878
-0.236047
-0.261534
-0.259585
-0.241972
-0.214872
-0.182780
-0.148939
-0.115626
-0.084384
-0.056202
-0.031661
-0.011037
0.005605
0.018331
0.027248
0.032454
0.034109
0.032621
0.028799
0.023768
0.018639
0.014577
0.012111
0.010738
0.009773
0.008386
0.005646
0.000618
-0.007463
-0.018931
-0.033426
-0.049785
-0.066159
-0.080351
-0.090233
-0.093380
-0.091403
-0.085295
-0.076279
-0.065610
-0.054388
-0.043459
-0.033397
-0.024532
-0.017010
-0.010856
-0.006033
-0.002485
-0.000149
0.001065
0.001304
0.000799
-0.000146
-0.001188
-0.002007
-0.002357
-0.002056
-0.000967
0.000809
0.003157
0.005966
0.009159
0.012700
0.016600
0.020922
0.027025
0.473859
0.474495
0.476167
0.478395
0.480207
0.479845
0.474329
0.458917
0.426539
0.367278
0.267735
0.109833
-0.130517
-0.439291
-0.509920
-0.509347
-0.503982
-0.480865
-0.435181
-0.369111
-0.290634
-0.208845
-0.131614
-0.064457
-0.010052
0.031134
0.058369
0.075019
0.064706
0.032736
-0.015225
-0.073484
-0.134945
-0.190956
-0.232828
-0.249104
-0.243073
-0.224391
-0.197829
-0.167290
-0.135611
-0.104719
-0.075858
-0.049789
-0.026932
-0.007478
0.008553
0.021259
0.030794
0.037303
0.040895
0.041752
0.040288
0.037197
0.033262
0.029646
0.026958
0.024944
0.023078
0.020594
0.016582
0.010146
0.000609
-0.012220
-0.027833
-0.044957
-0.061696
-0.075873
-0.084551
-0.087371
-0.085688
-0.080285
-0.072256
-0.062708
-0.052594
-0.042637
-0.033326
-0.024947
-0.017636
-0.011433
-0.006331
-0.002309
0.000664
0.002635
0.003704
0.004058
0.003954
0.003688
0.003547
0.003774
0.004540
0.006058
0.008298
0.011209
0.014745
0.018888
0.023677
0.029224
0.035729
0.045845
0.457606
0.457485
0.456987
0.455602
0.452355
0.445616
0.432843
0.410321
0.372960
0.314258
0.226565
0.102369
-0.060209
-0.239517
-0.338424
-0.380124
-0.391474
-0.379025
-0.348180
-0.301171
-0.243320
-0.180934
-0.119810
-0.064345
-0.017217
0.020172
0.050296
0.063231
0.054464
0.025487
-0.019216
-0.073227
-0.128616
-0.176431
-0.207693
-0.216177
-0.210167
-0.193853
-0.171145
-0.145194
-0.118285
-0.091955
-0.067172
-0.044515
-0.024315
-0.006748
0.008126
0.020343
0.030016
0.037294
0.042319
0.045226
0.046204
0.045601
0.043998
0.042305
0.040314
0.038324
0.036078
0.032938
0.028083
0.020710
0.010270
-0.003297
-0.019378
-0.036648
-0.053218
-0.066535
-0.074522
-0.078084
-0.077594
-0.073803
-0.067624
-0.059954
-0.051554
-0.043009
-0.034731
-0.026986
-0.019936
-0.013677
-0.008261
-0.003731
-0.000088
0.002670
0.004610
0.005895
0.006730
0.007362
0.008039
0.008990
0.010468
0.012535
0.015289
0.018759
0.022962
0.027943
0.033813
0.040784
0.049209
0.063083
0.441553
0.440807
0.438545
0.434310
0.427253
0.416010
0.398583
0.372254
0.333612
0.278799
0.204169
0.107837
-0.006755
-0.125305
-0.212047
-0.263732
-0.287624
-0.289016
-0.272821
-0.242743
-0.202842
-0.157692
-0.111610
-0.068106
-0.029607
0.002593
0.026377
0.036269
0.029742
0.007309
-0.027814
-0.070189
-0.112720
-0.147572
-0.167097
-0.173896
-0.169929
-0.158037
-0.141036
-0.121276
-0.100490
-0.079840
-0.060038
-0.041491
-0.024444
-0.009070
0.004493
0.016154
0.025899
0.033783
0.039911
0.044398
0.047320
0.049303
0.050685
0.050838
0.050188
0.048952
0.046983
0.043790
0.038694
0.031040
0.020414
0.006857
-0.008973
-0.025762
-0.041534
-0.053874
-0.062609
-0.067563
-0.069035
-0.067592
-0.063892
-0.058568
-0.052175
-0.045171
-0.037917
-0.030703
-0.023757
-0.017278
-0.011393
-0.006270
-0.001897
0.001662
0.004516
0.006729
0.008478
0.009992
0.011518
0.013279
0.015404
0.018058
0.021359
0.025380
0.030189
0.035884
0.042634
0.050740
0.060697
0.077856
0.426859
0.425606
0.421945
0.415537
0.405726
0.391463
0.371275
0.343287
0.305353
0.255377
0.191943
0.115406
0.029617
-0.056411
-0.127346
-0.177185
-0.206341
-0.217156
-0.212461
-0.195481
-0.169502
-0.138005
-0.104315
-0.071287
-0.041151
-0.015499
0.002742
0.010872
0.007275
-0.007793
-0.032037
-0.061343
-0.090346
-0.113420
-0.127604
-0.133384
-0.131658
-0.124159
-0.112778
-0.099174
-0.084595
-0.069836
-0.055307
-0.041158
-0.027455
-0.014311
-0.001941
0.009389
0.019456
0.028133
0.035405
0.041380
0.046509
0.050528
0.053453
0.055289
0.056173
0.056134
0.054985
0.052326
0.047634
0.040406
0.030345
0.017527
0.002567
-0.013236
-0.028124
-0.040970
-0.050993
-0.057927
-0.061899
-0.063218
-0.062237
-0.059311
-0.054811
-0.049108
-0.042565
-0.035554
-0.028388
-0.021456
-0.014835
-0.008922
-0.003747
0.000689
0.004349
0.007345
0.009846
0.012069
0.014245
0.016591
0.019280
0.022465
0.026266
0.030778
0.036098
0.042355
0.049750
0.058628
0.069575
0.089235
0.414467
0.412774
0.407960
0.399876
0.388090
0.371856
0.350144
0.321720
0.285310
0.239890
0.185159
0.122195
0.054227
-0.012952
-0.071553
-0.116756
-0.147076
-0.163042
-0.166176
-0.158583
-0.142830
-0.121611
-0.097546
-0.072987
-0.049925
-0.030130
-0.015738
-0.008451
-0.009255
-0.017945
-0.032948
-0.051470
-0.069962
-0.085332
-0.095497
-0.100134
-0.099767
-0.095497
-0.088614
-0.080291
-0.071376
-0.062300
-0.053090
-0.043490
-0.033206
-0.022171
-0.010671
0.000764
0.011606
0.021434
0.030186
0.037902
0.044445
0.049880
0.054233
0.057520
0.059770
0.060927
0.060791
0.059031
0.055241
0.049030
0.040150
0.028580
0.014798
-0.000465
-0.015717
-0.029753
-0.041625
-0.050884
-0.057491
-0.061522
-0.063017
-0.062071
-0.058934
-0.053982
-0.047615
-0.040410
-0.032577
-0.024965
-0.017848
-0.011171
-0.005236
-0.000099
0.004245
0.007894
0.011013
0.013808
0.016498
0.019294
0.022383
0.025928
0.030064
0.034910
0.040579
0.047204
0.054968
0.064182
0.075396
0.096164
0.405197
0.403012
0.397098
0.387608
0.374343
0.356804
0.334288
0.306007
0.271249
0.229605
0.181296
0.127543
0.070902
0.015277
-0.034694
-0.075480
-0.105294
-0.123845
-0.131896
-0.130714
-0.122217
-0.108493
-0.091628
-0.073565
-0.056032
-0.040610
-0.028851
-0.021946
-0.020547
-0.024508
-0.032795
-0.043620
-0.054868
-0.064610
-0.071208
-0.074359
-0.074414
-0.072173
-0.068605
-0.064577
-0.060645
-0.056911
-0.052976
-0.048036
-0.041199
-0.032021
-0.020866
-0.008724
0.003484
0.014861
0.025191
0.034337
0.042288
0.049081
0.054749
0.059302
0.062724
0.064941
0.065803
0.065084
0.062481
0.057642
0.050290
0.039785
0.026322
0.010770
-0.005777
-0.021766
-0.035804
-0.047225
-0.055999
-0.062143
-0.065415
-0.065628
-0.063035
-0.058221
-0.051327
-0.043579
-0.035694
-0.027527
-0.019662
-0.012374
-0.005862
-0.000197
0.004648
0.008777
0.012352
0.015564
0.018607
0.021679
0.024972
0.028664
0.032918
0.037887
0.043707
0.050493
0.058343
0.067430
0.078075
0.097296
0.399970
0.396917
0.389637
0.378770
0.364288
0.345822
0.322863
0.294902
0.261565
0.222779
0.178992
0.131379
0.081981
0.033612
-0.010582
-0.047944
-0.076797
-0.096559
-0.107571
-0.110614
-0.107100
-0.098665
-0.086990
-0.073676
-0.060182
-0.047802
-0.037757
-0.030952
-0.027917
-0.028567
-0.032217
-0.037724
-0.044039
-0.049436
-0.053068
-0.054716
-0.054697
-0.053692
-0.052504
-0.051818
-0.051988
-0.052888
-0.053804
-0.053395
-0.049950
-0.042277
-0.030759
-0.017209
-0.003731
0.009316
0.021271
0.031909
0.041209
0.049230
0.056022
0.061602
0.065943
0.068988
0.070685
0.070964
0.069624
0.066027
0.059318
0.049511
0.036166
0.019502
0.000796
-0.017682
-0.033739
-0.046461
-0.056178
-0.063292
-0.067461
-0.067991
-0.064809
-0.059595
-0.053185
-0.045311
-0.036780
-0.028179
-0.019940
-0.012340
-0.005540
0.000402
0.005524
0.009935
0.013798
0.017279
0.020526
0.023712
0.027025
0.030663
0.034825
0.039715
0.045517
0.052327
0.060076
0.068730
0.078259
0.092465
0.400422
0.394936
0.385543
0.373154
0.357602
0.338432
0.315181
0.287495
0.255184
0.218347
0.177518
0.133785
0.088848
0.044904
0.004345
-0.030701
-0.058658
-0.078979
-0.091727
-0.097395
-0.097080
-0.092114
-0.083892
-0.073766
-0.062975
-0.052630
-0.043608
-0.036641
-0.032395
-0.030789
-0.031301
-0.033635
-0.036551
-0.039131
-0.040793
-0.041409
-0.041285
-0.041021
-0.041306
-0.042698
-0.045422
-0.049250
-0.053420
-0.056492
-0.056137
-0.049608
-0.037642
-0.023534
-0.008347
0.006305
0.019658
0.031474
0.041769
0.050639
0.058166
0.064370
0.069209
0.072631
0.074720
0.075715
0.074652
0.071376
0.065533
0.056287
0.042855
0.025092
0.004321
-0.016459
-0.033995
-0.046889
-0.055931
-0.062328
-0.066220
-0.066927
-0.064828
-0.059699
-0.052769
-0.044757
-0.036202
-0.027602
-0.019351
-0.011723
-0.004879
0.001125
0.006324
0.010832
0.014831
0.018488
0.021848
0.025058
0.028299
0.031780
0.035726
0.040392
0.046064
0.052919
0.060576
0.068872
0.077521
0.087568
0.411021
0.396703
0.384219
0.370489
0.354143
0.334483
0.311053
0.283529
0.251792
0.216001
0.176705
0.134924
0.092174
0.050368
0.011560
-0.022417
-0.050291
-0.071076
-0.084537
-0.091292
-0.092322
-0.088825
-0.082080
-0.073336
-0.063748
-0.054345
-0.045998
-0.039334
-0.034563
-0.032093
-0.031899
-0.033036
-0.034743
-0.036288
-0.037193
-0.037366
-0.037090
-0.036914
-0.037461
-0.039221
-0.042359
-0.046589
-0.051114
-0.054569
-0.055029
-0.050730
-0.040257
-0.025173
-0.009059
0.006311
0.020206
0.032435
0.043046
0.052153
0.059845
0.066138
0.070975
0.074264
0.075927
0.075851
0.074548
0.071344
0.065624
0.056648
0.043727
0.026694
0.006592
-0.014007
-0.031985
-0.045532
-0.054861
-0.061018
-0.064550
-0.065504
-0.063376
-0.058555
-0.051838
-0.043990
-0.035592
-0.027132
-0.018991
-0.011442
-0.004649
0.001328
0.006514
0.011011
0.014964
0.018553
0.021970
0.025283
0.028638
0.032226
0.036257
0.040954
0.046523
0.053030
0.060612
0.068873
0.077573
0.087325
