# vtk DataFile Version 3.0
Vector Field
ASCII
DATASET RECTILINEAR_GRID
DIMENSIONS 100 26 1
X_COORDINATES 100 double
0.050000 0.150000 0.250000 0.350000 0.450000 0.550000 0.650000 0.750000 0.850000 0.950000 1.050000 1.150000 1.250000 1.350000 1.450000 1.550000 1.650000 1.750000 1.850000 1.950000 2.050000 2.150000 2.250000 2.350000 2.450000 2.550000 2.650000 2.750000 2.850000 2.950000 3.050000 3.150000 3.250000 3.350000 3.450000 3.550000 3.650000 3.750000 3.850000 3.950000 4.050000 4.150000 4.250000 4.350000 4.450000 4.550000 4.650000 4.750000 4.850000 4.950000 5.050000 5.150000 5.250000 5.350000 5.450000 5.550000 5.650000 5.750000 5.850000 5.950000 6.050000 6.150000 6.250000 6.350000 6.450000 6.550000 6.650000 6.750000 6.850000 6.950000 7.050000 7.150000 7.250000 7.350000 7.450000 7.550000 7.650000 7.750000 7.850000 7.950000 8.050000 8.150000 8.250000 8.350000 8.450000 8.550000 8.650000 8.750000 8.850000 8.950000 9.050000 9.150000 9.250000 9.350000 9.450000 9.550000 9.650000 9.750000 9.850000 9.950000 
Y_COORDINATES 26 double
0.050000 0.150000 0.250000 0.350000 0.450000 0.550000 0.650000 0.750000 0.850000 0.950000 1.050000 1.150000 1.250000 1.350000 1.450000 1.550000 1.650000 1.750000 1.850000 1.950000 2.050000 2.150000 2.250000 2.350000 2.450000 2.550000 
Z_COORDINATES 1 double
0.0
POINT_DATA 2600
VECTORS Vektorfeld double
0.997695 0.002305 0.0
0.993070 0.002321 0.0
0.990019 0.000730 0.0
0.990856 -0.001567 0.0
0.996584 -0.004162 0.0
1.007524 -0.006778 0.0
1.023447 -0.009145 0.0
1.043576 -0.010984 0.0
1.066595 -0.012036 0.0
1.090757 -0.012125 0.0
1.114106 -0.011225 0.0
1.134775 -0.009444 0.0
1.151188 -0.006969 0.0
1.162159 -0.004002 0.0
1.166979 -0.000817 0.0
1.165413 0.002383 0.0
1.157368 0.005661 0.0
1.142765 0.008942 0.0
1.121704 0.012119 0.0
1.094519 0.015067 0.0
1.061797 0.017656 0.0
1.024383 0.019758 0.0
0.983364 0.021262 0.0
0.940022 0.022080 0.0
0.895786 0.022156 0.0
0.852164 0.021466 0.0
0.810677 0.020021 0.0
0.772780 0.017876 0.0
0.739778 0.015125 0.0
0.712750 0.011903 0.0
0.692462 0.008384 0.0
0.679320 0.004757 0.0
0.673496 0.001067 0.0
0.674625 -0.002195 0.0
0.680965 -0.004145 0.0
0.689753 -0.004642 0.0
0.698268 -0.003874 0.0
0.704338 -0.002196 0.0
0.706322 0.000212 0.0
0.702401 0.003709 0.0
0.690760 0.007933 0.0
0.670440 0.012386 0.0
0.641444 0.016609 0.0
0.604616 0.020219 0.0
0.561479 0.022918 0.0
0.514093 0.024468 0.0
0.465075 0.024550 0.0
0.417963 0.022562 0.0
0.377611 0.017790 0.0
0.349449 0.010373 0.0
0.336764 0.002312 0.0
0.337431 -0.002979 0.0
0.345533 -0.005123 0.0
0.356676 -0.006020 0.0
0.369083 -0.006387 0.0
0.381721 -0.006251 0.0
0.393664 -0.005692 0.0
0.404173 -0.004817 0.0
0.412739 -0.003749 0.0
0.419103 -0.002615 0.0
0.423257 -0.001539 0.0
0.425417 -0.000621 0.0
0.425822 0.000216 0.0
0.424304 0.001302 0.0
0.420336 0.002666 0.0
0.413542 0.004129 0.0
0.403897 0.005516 0.0
0.391715 0.006666 0.0
0.377671 0.007379 0.0
0.362828 0.007465 0.0
0.348492 0.006871 0.0
0.335834 0.005787 0.0
0.325428 0.004618 0.0
0.317027 0.003783 0.0
0.309763 0.003481 0.0
0.302687 0.003594 0.0
0.295306 0.003788 0.0
0.287800 0.003718 0.0
0.280864 0.003218 0.0
0.275297 0.002349 0.0
0.271619 0.001329 0.0
0.269894 0.000395 0.0
0.269785 -0.000286 0.0
0.270762 -0.000690 0.0
0.272382 -0.000930 0.0
0.274395 -0.001083 0.0
0.276629 -0.001151 0.0
0.278920 -0.001140 0.0
0.281130 -0.001070 0.0
0.283150 -0.000951 0.0
0.284882 -0.000780 0.0
0.286213 -0.000551 0.0
0.287031 -0.000266 0.0
0.287244 0.000053 0.0
0.286808 0.000382 0.0
0.285769 0.000657 0.0
0.284286 0.000826 0.0
0.282623 0.000837 0.0
0.281150 0.000636 0.0
0.279561 0.000953 0.0
1.002986 0.001624 0.0
1.011639 -0.001025 0.0
1.025150 -0.006385 0.0
1.043009 -0.013147 0.0
1.065255 -0.020556 0.0
1.091895 -0.027963 0.0
1.122670 -0.034657 0.0
1.156914 -0.039846 0.0
1.193489 -0.042769 0.0
1.230813 -0.042877 0.0
1.267099 -0.040108 0.0
1.300712 -0.034843 0.0
1.330383 -0.027655 0.0
1.355209 -0.019113 0.0
1.374426 -0.009742 0.0
1.387236 0.000065 0.0
1.393099 0.010160 0.0
1.391852 0.020294 0.0
1.383554 0.030125 0.0
1.368529 0.039270 0.0
1.347377 0.047326 0.0
1.320974 0.053904 0.0
1.290440 0.058669 0.0
1.257096 0.061358 0.0
1.222410 0.061801 0.0
1.187928 0.059925 0.0
1.155207 0.055770 0.0
1.125733 0.049499 0.0
1.100837 0.041400 0.0
1.081607 0.031887 0.0
1.068810 0.021485 0.0
1.062841 0.010767 0.0
1.063444 0.000279 0.0
1.069599 -0.008691 0.0
1.080358 -0.014749 0.0
1.094814 -0.017282 0.0
1.111163 -0.016098 0.0
1.126467 -0.011346 0.0
1.137226 -0.003380 0.0
1.140895 0.007553 0.0
1.136129 0.020497 0.0
1.122206 0.034064 0.0
1.099190 0.046944 0.0
1.067890 0.058013 0.0
1.029798 0.066352 0.0
0.987038 0.071180 0.0
0.942260 0.071635 0.0
0.898246 0.066603 0.0
0.856997 0.055349 0.0
0.818763 0.039210 0.0
0.782653 0.022268 0.0
0.750401 0.008649 0.0
0.727284 -0.001736 0.0
0.716377 -0.009643 0.0
0.715796 -0.014590 0.0
0.722230 -0.017120 0.0
0.733391 -0.017927 0.0
0.747776 -0.017475 0.0
0.764254 -0.016135 0.0
0.781841 -0.014181 0.0
0.799504 -0.011791 0.0
0.815990 -0.009015 0.0
0.829919 -0.005724 0.0
0.840450 -0.001772 0.0
0.847616 0.002542 0.0
0.851785 0.006878 0.0
0.853307 0.010889 0.0
0.852556 0.014225 0.0
0.849846 0.016574 0.0
0.845217 0.017741 0.0
0.838324 0.017824 0.0
0.828521 0.017297 0.0
0.815167 0.016868 0.0
0.798028 0.017074 0.0
0.777577 0.017905 0.0
0.755045 0.018778 0.0
0.732204 0.018827 0.0
0.711035 0.017353 0.0
0.693340 0.014214 0.0
0.680336 0.009924 0.0
0.672382 0.005388 0.0
0.668978 0.001465 0.0
0.669022 -0.001291 0.0
0.671347 -0.002987 0.0
0.675195 -0.004101 0.0
0.680201 -0.004929 0.0
0.686060 -0.005399 0.0
0.692326 -0.005450 0.0
0.698472 -0.005116 0.0
0.703973 -0.004426 0.0
0.708371 -0.003434 0.0
0.711353 -0.002211 0.0
0.712753 -0.000824 0.0
0.712448 0.000703 0.0
0.710372 0.002244 0.0
0.706661 0.003545 0.0
0.701661 0.004421 0.0
0.695851 0.004715 0.0
0.689766 0.004315 0.0
0.685265 0.003364 0.0
1.001889 -0.003251 0.0
1.008687 -0.011602 0.0
1.021170 -0.021802 0.0
1.038932 -0.033350 0.0
1.061974 -0.045643 0.0
1.090350 -0.057893 0.0
1.123890 -0.069042 0.0
1.161950 -0.077765 0.0
1.203212 -0.082686 0.0
1.245585 -0.082657 0.0
1.286619 -0.077648 0.0
1.324251 -0.068549 0.0
1.357144 -0.056513 0.0
1.384565 -0.042503 0.0
1.406138 -0.027142 0.0
1.421635 -0.010842 0.0
1.430875 0.005964 0.0
1.433743 0.022869 0.0
1.430258 0.039333 0.0
1.420626 0.054719 0.0
1.405310 0.068345 0.0
1.385034 0.079565 0.0
1.360742 0.087833 0.0
1.333548 0.092731 0.0
1.304672 0.093990 0.0
1.275386 0.091504 0.0
1.246956 0.085342 0.0
1.220590 0.075766 0.0
1.197382 0.063236 0.0
1.178264 0.048399 0.0
1.163976 0.032059 0.0
1.155023 0.015115 0.0
1.151687 -0.001336 0.0
1.154360 -0.015903 0.0
1.163415 -0.027351 0.0
1.178586 -0.034307 0.0
1.198627 -0.035463 0.0
1.221264 -0.029923 0.0
1.243413 -0.017712 0.0
1.261812 -0.000183 0.0
1.274008 0.020804 0.0
1.278624 0.043063 0.0
1.275084 0.064501 0.0
1.263545 0.083295 0.0
1.244787 0.097919 0.0
1.220068 0.107092 0.0
1.190871 0.109699 0.0
1.158481 0.104943 0.0
1.123657 0.093082 0.0
1.087035 0.076333 0.0
1.050186 0.058105 0.0
1.015165 0.040086 0.0
0.982519 0.022590 0.0
0.952371 0.007087 0.0
0.927043 -0.005411 0.0
0.909093 -0.014783 0.0
0.898694 -0.021027 0.0
0.894658 -0.024724 0.0
0.895750 -0.026456 0.0
0.900890 -0.026588 0.0
0.909159 -0.025316 0.0
0.919864 -0.022681 0.0
0.932606 -0.018729 0.0
0.947116 -0.013807 0.0
0.962950 -0.008423 0.0
0.979618 -0.002994 0.0
0.996750 0.002109 0.0
1.013918 0.006589 0.0
1.030505 0.010333 0.0
1.045631 0.013484 0.0
1.058189 0.016415 0.0
1.067102 0.019596 0.0
1.071578 0.023446 0.0
1.071211 0.028002 0.0
1.066027 0.032612 0.0
1.056384 0.036245 0.0
1.042734 0.037851 0.0
1.025468 0.036763 0.0
1.004917 0.033050 0.0
0.981509 0.027499 0.0
0.956089 0.021187 0.0
0.930231 0.014927 0.0
0.906450 0.008985 0.0
0.887643 0.003219 0.0
0.875704 -0.002217 0.0
0.870492 -0.006608 0.0
0.870474 -0.009561 0.0
0.874179 -0.011258 0.0
0.880624 -0.011899 0.0
0.888961 -0.011481 0.0
0.898239 -0.010056 0.0
0.907406 -0.007738 0.0
0.915448 -0.004739 0.0
0.921729 -0.001358 0.0
0.926106 0.002005 0.0
0.928640 0.004962 0.0
0.929504 0.007140 0.0
0.929063 0.008247 0.0
0.927818 0.008113 0.0
0.926159 0.005727 0.0
1.001502 -0.006642 0.0
1.007377 -0.020885 0.0
1.018942 -0.036567 0.0
1.036254 -0.053659 0.0
1.059637 -0.071759 0.0
1.089504 -0.090019 0.0
1.126066 -0.107018 0.0
1.168906 -0.120689 0.0
1.216593 -0.128712 0.0
1.266031 -0.128443 0.0
1.313267 -0.120131 0.0
1.355460 -0.105891 0.0
1.391329 -0.087933 0.0
1.420593 -0.067768 0.0
1.443313 -0.046169 0.0
1.459493 -0.023493 0.0
1.468993 -0.000125 0.0
1.471687 0.023396 0.0
1.467603 0.046377 0.0
1.456991 0.067919 0.0
1.440408 0.087043 0.0
1.418703 0.102849 0.0
1.392937 0.114608 0.0
1.364292 0.121796 0.0
1.333991 0.124102 0.0
1.303246 0.121424 0.0
1.273223 0.113875 0.0
1.245026 0.101797 0.0
1.219677 0.085762 0.0
1.198115 0.066553 0.0
1.181200 0.045109 0.0
1.169769 0.022450 0.0
1.164766 -0.000334 0.0
1.167205 -0.022017 0.0
1.177773 -0.040860 0.0
1.196354 -0.054551 0.0
1.221740 -0.060646 0.0
1.251609 -0.057245 0.0
1.282766 -0.043697 0.0
1.311506 -0.021336 0.0
1.334535 0.006733 0.0
1.350113 0.036939 0.0
1.357896 0.066381 0.0
1.358163 0.092688 0.0
1.351512 0.113936 0.0
1.338684 0.128621 0.0
1.320375 0.135676 0.0
1.297080 0.134652 0.0
1.269143 0.126133 0.0
1.237144 0.111903 0.0
1.202254 0.094275 0.0
1.166034 0.075157 0.0
1.130088 0.056110 0.0
1.095773 0.038030 0.0
1.063589 0.021159 0.0
1.033873 0.006314 0.0
1.008079 -0.005931 0.0
0.987726 -0.015431 0.0
0.973035 -0.022150 0.0
0.963352 -0.026351 0.0
0.957857 -0.028327 0.0
0.955837 -0.028355 0.0
0.956880 -0.026840 0.0
0.961013 -0.024337 0.0
0.968693 -0.021407 0.0
0.980613 -0.018599 0.0
0.997409 -0.016213 0.0
1.019351 -0.014200 0.0
1.046044 -0.012158 0.0
1.076283 -0.009389 0.0
1.108110 -0.005098 0.0
1.138996 0.001310 0.0
1.166371 0.009880 0.0
1.188426 0.019880 0.0
1.204328 0.030015 0.0
1.213719 0.039094 0.0
1.216307 0.046065 0.0
1.211938 0.050184 0.0
1.200779 0.051339 0.0
1.183493 0.049903 0.0
1.161326 0.046369 0.0
1.135919 0.041010 0.0
1.108782 0.033821 0.0
1.080921 0.025052 0.0
1.053255 0.015556 0.0
1.027695 0.006391 0.0
1.007002 -0.001849 0.0
0.992965 -0.008637 0.0
0.985360 -0.013361 0.0
0.982879 -0.015874 0.0
0.984223 -0.016284 0.0
0.988245 -0.014698 0.0
0.993840 -0.011417 0.0
0.999922 -0.007043 0.0
1.005541 -0.002306 0.0
1.010145 0.002134 0.0
1.013593 0.005656 0.0
1.015976 0.007788 0.0
1.017484 0.008308 0.0
1.017336 0.007340 0.0
1.001302 -0.009446 0.0
1.006558 -0.029212 0.0
1.017277 -0.050523 0.0
1.033951 -0.073689 0.0
1.057412 -0.098573 0.0
1.088727 -0.124388 0.0
1.128897 -0.149381 0.0
1.178169 -0.170437 0.0
1.235509 -0.183992 0.0
1.295652 -0.182744 0.0
1.351119 -0.168531 0.0
1.398047 -0.146611 0.0
1.436029 -0.121064 0.0
1.466089 -0.093961 0.0
1.489258 -0.065864 0.0
1.505905 -0.036625 0.0
1.515693 -0.006281 0.0
1.518091 0.024460 0.0
1.512785 0.054702 0.0
1.499859 0.083132 0.0
1.479932 0.108340 0.0
1.454077 0.129112 0.0
1.423636 0.144551 0.0
1.390055 0.154080 0.0
1.354766 0.157408 0.0
1.319139 0.154489 0.0
1.284462 0.145508 0.0
1.251942 0.130881 0.0
1.222710 0.111258 0.0
1.197823 0.087506 0.0
1.178249 0.060645 0.0
1.164887 0.031707 0.0
1.158672 0.001626 0.0
1.160599 -0.028342 0.0
1.171410 -0.055914 0.0
1.191184 -0.077853 0.0
1.219180 -0.090725 0.0
1.253852 -0.091707 0.0
1.292674 -0.079215 0.0
1.331782 -0.053667 0.0
1.366114 -0.018297 0.0
1.391388 0.021118 0.0
1.406552 0.059254 0.0
1.412805 0.093296 0.0
1.411518 0.121266 0.0
1.403825 0.141812 0.0
1.390475 0.154144 0.0
1.371849 0.158105 0.0
1.348154 0.154312 0.0
1.319741 0.144136 0.0
1.287339 0.129334 0.0
1.252031 0.111627 0.0
1.215100 0.092518 0.0
1.177857 0.073179 0.0
1.141535 0.054516 0.0
1.107157 0.037050 0.0
1.075267 0.021017 0.0
1.046222 0.007020 0.0
1.020670 -0.004357 0.0
0.998981 -0.012771 0.0
0.980721 -0.018151 0.0
0.965118 -0.020908 0.0
0.951746 -0.021959 0.0
0.940925 -0.022531 0.0
0.933784 -0.023753 0.0
0.931939 -0.026330 0.0
0.937047 -0.030385 0.0
0.950347 -0.035271 0.0
0.972310 -0.039742 0.0
1.002571 -0.042305 0.0
1.040097 -0.041534 0.0
1.083317 -0.036359 0.0
1.129958 -0.026467 0.0
1.176604 -0.012474 0.0
1.218835 0.004235 0.0
1.252813 0.021505 0.0
1.276907 0.036973 0.0
1.291069 0.049484 0.0
1.295679 0.058587 0.0
1.291485 0.064136 0.0
1.279632 0.066156 0.0
1.261519 0.064743 0.0
1.238623 0.060120 0.0
1.212454 0.052782 0.0
1.184571 0.043374 0.0
1.156315 0.032389 0.0
1.128594 0.020567 0.0
1.102447 0.009132 0.0
1.079649 -0.000726 0.0
1.061846 -0.008224 0.0
1.049310 -0.012743 0.0
1.041131 -0.014083 0.0
1.036023 -0.012519 0.0
1.032709 -0.008710 0.0
1.030076 -0.003625 0.0
1.027320 0.001604 0.0
1.024111 0.005948 0.0
1.020549 0.008676 0.0
1.016937 0.009525 0.0
1.013395 0.009813 0.0
1.001102 -0.011851 0.0
1.005626 -0.036587 0.0
1.015096 -0.063337 0.0
1.030389 -0.092841 0.0
1.052939 -0.125432 0.0
1.084772 -0.160677 0.0
1.128301 -0.196791 0.0
1.185356 -0.229355 0.0
1.257182 -0.254240 0.0
1.332930 -0.248386 0.0
1.396593 -0.222017 0.0
1.444602 -0.188062 0.0
1.480066 -0.153059 0.0
1.507023 -0.118983 0.0
1.528322 -0.085312 0.0
1.544944 -0.050446 0.0
1.555925 -0.013228 0.0
1.559442 0.025492 0.0
1.554158 0.064260 0.0
1.539693 0.100966 0.0
1.516668 0.133458 0.0
1.486447 0.160070 0.0
1.450750 0.179731 0.0
1.411365 0.191866 0.0
1.370010 0.196265 0.0
1.328288 0.192981 0.0
1.287690 0.182292 0.0
1.249615 0.164693 0.0
1.215376 0.140915 0.0
1.186172 0.111940 0.0
1.162977 0.078981 0.0
1.146349 0.043362 0.0
1.136305 0.006230 0.0
1.132852 -0.031419 0.0
1.136458 -0.067255 0.0
1.147753 -0.097580 0.0
1.167448 -0.118688 0.0
1.196403 -0.127372 0.0
1.234904 -0.120873 0.0
1.281305 -0.097518 0.0
1.330773 -0.058246 0.0
1.375007 -0.008440 0.0
1.406676 0.041978 0.0
1.424748 0.086247 0.0
1.431861 0.122489 0.0
1.430291 0.149851 0.0
1.421644 0.168101 0.0
1.406898 0.177520 0.0
1.386619 0.178872 0.0
1.361260 0.173348 0.0
1.331396 0.162388 0.0
1.297816 0.147461 0.0
1.261502 0.129928 0.0
1.223559 0.110954 0.0
1.185130 0.091492 0.0
1.147303 0.072280 0.0
1.110999 0.053981 0.0
1.076819 0.037280 0.0
1.044790 0.022963 0.0
1.014377 0.012011 0.0
0.984814 0.004892 0.0
0.955513 0.000952 0.0
0.926673 -0.001606 0.0
0.899761 -0.005151 0.0
0.877469 -0.011698 0.0
0.863014 -0.022084 0.0
0.858914 -0.035638 0.0
0.866145 -0.050549 0.0
0.884268 -0.064551 0.0
0.912056 -0.075546 0.0
0.948079 -0.081841 0.0
0.990989 -0.082183 0.0
1.039505 -0.075800 0.0
1.092204 -0.062486 0.0
1.147111 -0.042890 0.0
1.200762 -0.018999 0.0
1.247820 0.006325 0.0
1.283839 0.029951 0.0
1.307759 0.049589 0.0
1.320403 0.064685 0.0
1.322894 0.074970 0.0
1.316548 0.080388 0.0
1.302808 0.081111 0.0
1.283204 0.077565 0.0
1.259304 0.070374 0.0
1.232641 0.060308 0.0
1.204682 0.048327 0.0
1.176765 0.035434 0.0
1.149879 0.022657 0.0
1.124682 0.011392 0.0
1.101792 0.003066 0.0
1.081529 -0.001451 0.0
1.063484 -0.001997 0.0
1.046737 0.000829 0.0
1.030446 0.005761 0.0
1.014260 0.011159 0.0
0.998406 0.015455 0.0
0.983576 0.017561 0.0
0.970729 0.017100 0.0
0.961653 0.014854 0.0
1.000820 -0.013773 0.0
1.004237 -0.042605 0.0
1.011601 -0.074152 0.0
1.024049 -0.109767 0.0
1.043580 -0.150587 0.0
1.073372 -0.197147 0.0
1.118040 -0.248518 0.0
1.182751 -0.299393 0.0
1.276258 -0.349534 0.0
1.372131 -0.324714 0.0
1.435748 -0.272970 0.0
1.472104 -0.221475 0.0
1.493500 -0.176508 0.0
1.508675 -0.137665 0.0
1.522799 -0.102054 0.0
1.537863 -0.065389 0.0
1.552125 -0.023528 0.0
1.560674 0.023725 0.0
1.559378 0.072607 0.0
1.546952 0.119510 0.0
1.523924 0.160967 0.0
1.492034 0.194673 0.0
1.453431 0.219429 0.0
1.410226 0.234759 0.0
1.364353 0.240600 0.0
1.317581 0.237139 0.0
1.271563 0.224749 0.0
1.227872 0.204003 0.0
1.187992 0.175724 0.0
1.153241 0.141086 0.0
1.124524 0.101747 0.0
1.101775 0.059974 0.0
1.083225 0.018212 0.0
1.066063 -0.022786 0.0
1.049966 -0.063397 0.0
1.037901 -0.100667 0.0
1.034389 -0.131784 0.0
1.044485 -0.153327 0.0
1.071697 -0.160630 0.0
1.116530 -0.148996 0.0
1.176073 -0.115780 0.0
1.243548 -0.062614 0.0
1.306502 0.001529 0.0
1.353438 0.061687 0.0
1.382862 0.110514 0.0
1.398418 0.147841 0.0
1.402911 0.174265 0.0
1.398310 0.190704 0.0
1.385982 0.198293 0.0
1.366951 0.198316 0.0
1.342111 0.192124 0.0
1.312364 0.181052 0.0
1.278677 0.166338 0.0
1.242082 0.149083 0.0
1.203638 0.130236 0.0
1.164348 0.110653 0.0
1.125003 0.091257 0.0
1.085923 0.073264 0.0
1.046714 0.058216 0.0
1.006385 0.047499 0.0
0.964078 0.041273 0.0
0.920262 0.037687 0.0
0.877537 0.033225 0.0
0.840167 0.024299 0.0
0.812390 0.008921 0.0
0.796813 -0.012672 0.0
0.794068 -0.038207 0.0
0.803143 -0.064286 0.0
0.822126 -0.087919 0.0
0.849142 -0.106981 0.0
0.882759 -0.120045 0.0
0.921991 -0.126121 0.0
0.966135 -0.124521 0.0
1.014539 -0.114867 0.0
1.066341 -0.097218 0.0
1.120234 -0.072215 0.0
1.174136 -0.041418 0.0
1.224042 -0.008231 0.0
1.264650 0.023241 0.0
1.293335 0.049704 0.0
1.310500 0.070296 0.0
1.317156 0.084751 0.0
1.314540 0.093104 0.0
1.304033 0.095684 0.0
1.287098 0.093089 0.0
1.265218 0.086137 0.0
1.239826 0.075851 0.0
1.212219 0.063433 0.0
1.183457 0.050306 0.0
1.154281 0.038116 0.0
1.125037 0.028477 0.0
1.095721 0.022717 0.0
1.066228 0.021374 0.0
1.036616 0.023817 0.0
1.007293 0.028386 0.0
0.979083 0.032929 0.0
0.953145 0.035478 0.0
0.930765 0.034748 0.0
0.913148 0.030378 0.0
0.901799 0.022001 0.0
1.000413 -0.015007 0.0
1.002186 -0.046562 0.0
1.006222 -0.081596 0.0
1.013655 -0.122206 0.0
1.026693 -0.170715 0.0
1.049412 -0.229530 0.0
1.089074 -0.300465 0.0
1.156904 -0.379987 0.0
1.280266 -0.485810 0.0
1.393105 -0.397150 0.0
1.428733 -0.299779 0.0
1.427199 -0.229489 0.0
1.416037 -0.178728 0.0
1.406429 -0.141011 0.0
1.404332 -0.110736 0.0
1.413249 -0.080687 0.0
1.432836 -0.042079 0.0
1.454592 0.011971 0.0
1.467183 0.073066 0.0
1.465938 0.132722 0.0
1.451505 0.185216 0.0
1.426184 0.227635 0.0
1.392400 0.258853 0.0
1.352308 0.278631 0.0
1.307801 0.287109 0.0
1.260610 0.284593 0.0
1.212403 0.271520 0.0
1.164803 0.248523 0.0
1.119313 0.216573 0.0
1.077094 0.177206 0.0
1.038558 0.132880 0.0
1.002730 0.087418 0.0
0.966677 0.045371 0.0
0.925930 0.007963 0.0
0.878739 -0.030858 0.0
0.834111 -0.076512 0.0
0.806790 -0.125106 0.0
0.804796 -0.168108 0.0
0.828373 -0.196638 0.0
0.874229 -0.203676 0.0
0.938486 -0.184900 0.0
1.017043 -0.139526 0.0
1.104130 -0.071601 0.0
1.186745 0.005265 0.0
1.251122 0.073136 0.0
1.295191 0.125594 0.0
1.322910 0.164300 0.0
1.337163 0.191018 0.0
1.340071 0.207400 0.0
1.333300 0.215010 0.0
1.318260 0.215310 0.0
1.296223 0.209650 0.0
1.268390 0.199259 0.0
1.235911 0.185235 0.0
1.199855 0.168585 0.0
1.161095 0.150354 0.0
1.120091 0.131905 0.0
1.076647 0.115141 0.0
1.029987 0.102207 0.0
0.979528 0.094297 0.0
0.926198 0.090113 0.0
0.873340 0.085521 0.0
0.826144 0.075313 0.0
0.789692 0.056033 0.0
0.767038 0.027619 0.0
0.758472 -0.007228 0.0
0.762059 -0.044493 0.0
0.775063 -0.080078 0.0
0.795148 -0.111196 0.0
0.820685 -0.136258 0.0
0.850664 -0.154364 0.0
0.884545 -0.164916 0.0
0.922087 -0.167413 0.0
0.963147 -0.161438 0.0
1.007469 -0.146772 0.0
1.054500 -0.123585 0.0
1.103232 -0.092682 0.0
1.152073 -0.055714 0.0
1.198164 -0.015974 0.0
1.236869 0.021529 0.0
1.265104 0.053071 0.0
1.282742 0.077681 0.0
1.290434 0.095098 0.0
1.289160 0.105471 0.0
1.280091 0.109306 0.0
1.264469 0.107422 0.0
1.243508 0.100920 0.0
1.218287 0.091191 0.0
1.189671 0.079927 0.0
1.158274 0.069068 0.0
1.124526 0.060516 0.0
1.088845 0.055674 0.0
1.051865 0.054891 0.0
1.014584 0.057193 0.0
0.978380 0.060538 0.0
0.944862 0.062506 0.0
0.915613 0.061089 0.0
0.891919 0.055211 0.0
0.874572 0.044879 0.0
0.863937 0.029483 0.0
0.999879 -0.015299 0.0
0.999456 -0.047618 0.0
0.998868 -0.083986 0.0
0.998790 -0.127171 0.0
1.000804 -0.180802 0.0
1.008560 -0.249919 0.0
1.030474 -0.341653 0.0
1.085205 -0.461359 0.0
1.234763 -0.677358 0.0
1.334654 -0.418331 0.0
1.283713 -0.263285 0.0
1.210407 -0.191142 0.0
1.151218 -0.146724 0.0
1.106654 -0.118844 0.0
1.079149 -0.103300 0.0
1.073939 -0.091830 0.0
1.095413 -0.071996 0.0
1.141482 -0.025936 0.0
1.190032 0.049831 0.0
1.221129 0.126105 0.0
1.234738 0.192657 0.0
1.233880 0.246373 0.0
1.221093 0.286686 0.0
1.198207 0.313776 0.0
1.166747 0.327932 0.0
1.128225 0.329482 0.0
1.084189 0.318874 0.0
1.036045 0.296914 0.0
0.984431 0.265286 0.0
0.927894 0.227249 0.0
0.861945 0.187323 0.0
0.782202 0.148546 0.0
0.692855 0.109642 0.0
0.611131 0.066162 0.0
0.556832 0.012433 0.0
0.536834 -0.055177 0.0
0.544945 -0.127231 0.0
0.572152 -0.191195 0.0
0.612773 -0.237750 0.0
0.665029 -0.260676 0.0
0.728946 -0.256074 0.0
0.804586 -0.222548 0.0
0.890953 -0.162032 0.0
0.984906 -0.080871 0.0
1.075024 0.004777 0.0
1.147579 0.077329 0.0
1.199969 0.132456 0.0
1.235588 0.172989 0.0
1.256875 0.201235 0.0
1.265734 0.219088 0.0
1.263811 0.228194 0.0
1.252602 0.230012 0.0
1.233487 0.225846 0.0
1.207723 0.216892 0.0
1.176372 0.204336 0.0
1.140148 0.189587 0.0
1.099234 0.174590 0.0
1.053317 0.161817 0.0
1.002183 0.153325 0.0
0.946894 0.148928 0.0
0.890781 0.144925 0.0
0.839152 0.135194 0.0
0.797474 0.114514 0.0
0.769242 0.081515 0.0
0.755097 0.038937 0.0
0.753449 -0.008332 0.0
0.761557 -0.055085 0.0
0.776618 -0.097551 0.0
0.796492 -0.133682 0.0
0.819742 -0.162558 0.0
0.845529 -0.183830 0.0
0.873515 -0.197318 0.0
0.903740 -0.202778 0.0
0.936444 -0.199837 0.0
0.971847 -0.188098 0.0
1.009933 -0.167375 0.0
1.050301 -0.137991 0.0
1.092085 -0.101030 0.0
1.133884 -0.058549 0.0
1.173308 -0.014024 0.0
1.206564 0.027133 0.0
1.230997 0.061548 0.0
1.246228 0.088310 0.0
1.252557 0.107203 0.0
1.250660 0.118539 0.0
1.241393 0.123077 0.0
1.225645 0.121974 0.0
1.204232 0.116770 0.0
1.177840 0.109356 0.0
1.147057 0.101820 0.0
1.112500 0.096069 0.0
1.075015 0.093286 0.0
1.035842 0.093431 0.0
0.996654 0.095122 0.0
0.959401 0.096066 0.0
0.926008 0.093889 0.0
0.898027 0.086935 0.0
0.876385 0.074700 0.0
0.861299 0.057824 0.0
0.852372 0.036100 0.0
0.999272 -0.014450 0.0
0.996323 -0.045095 0.0
0.990267 -0.079864 0.0
0.980808 -0.121757 0.0
0.967709 -0.175131 0.0
0.951446 -0.247083 0.0
0.935495 -0.350453 0.0
0.934859 -0.506654 0.0
1.032515 -0.879276 0.0
1.024323 -0.203715 0.0
0.824995 -0.111623 0.0
0.673062 -0.105951 0.0
0.584764 -0.084428 0.0
0.522258 -0.074070 0.0
0.489106 -0.087417 0.0
0.496271 -0.109668 0.0
0.541376 -0.120737 0.0
0.618220 -0.100107 0.0
0.718020 -0.024348 0.0
0.809781 0.077426 0.0
0.873663 0.163844 0.0
0.916131 0.233576 0.0
0.940444 0.287957 0.0
0.948055 0.327780 0.0
0.940099 0.353344 0.0
0.917726 0.364964 0.0
0.881771 0.363381 0.0
0.831992 0.350330 0.0
0.766439 0.329039 0.0
0.683063 0.303410 0.0
0.585416 0.274758 0.0
0.487827 0.238444 0.0
0.410902 0.186016 0.0
0.369129 0.113285 0.0
0.363828 0.024910 0.0
0.384492 -0.068320 0.0
0.417488 -0.155195 0.0
0.455201 -0.228151 0.0
0.496127 -0.282341 0.0
0.541713 -0.313927 0.0
0.594568 -0.319596 0.0
0.657106 -0.297204 0.0
0.730458 -0.247096 0.0
0.813900 -0.173202 0.0
0.904408 -0.083518 0.0
0.991587 0.005890 0.0
1.063180 0.079911 0.0
1.116599 0.136497 0.0
1.154285 0.178754 0.0
1.178044 0.208950 0.0
1.189413 0.228886 0.0
1.189824 0.240119 0.0
1.180617 0.244060 0.0
1.162995 0.242064 0.0
1.137904 0.235606 0.0
1.105895 0.226550 0.0
1.067103 0.217332 0.0
1.021642 0.210454 0.0
0.970537 0.206927 0.0
0.916740 0.204412 0.0
0.865231 0.197063 0.0
0.821631 0.178285 0.0
0.790070 0.144663 0.0
0.771913 0.097755 0.0
0.766099 0.042656 0.0
0.770305 -0.014609 0.0
0.781864 -0.068475 0.0
0.798345 -0.115703 0.0
0.817835 -0.154895 0.0
0.838957 -0.185717 0.0
0.860861 -0.208362 0.0
0.883230 -0.223141 0.0
0.906239 -0.230189 0.0
0.930419 -0.229311 0.0
0.956424 -0.220033 0.0
0.984763 -0.201865 0.0
1.015569 -0.174675 0.0
1.048491 -0.139053 0.0
1.082691 -0.096526 0.0
1.116852 -0.049632 0.0
1.148681 -0.002345 0.0
1.175157 0.040116 0.0
1.194343 0.075325 0.0
1.205732 0.102469 0.0
1.209383 0.121519 0.0
1.205669 0.133080 0.0
1.195095 0.138293 0.0
1.178194 0.138765 0.0
1.155496 0.136452 0.0
1.127598 0.133407 0.0
1.095311 0.131326 0.0
1.059827 0.130999 0.0
1.022792 0.131926 0.0
0.986214 0.132393 0.0
0.952182 0.130080 0.0
0.922502 0.122948 0.0
0.898389 0.109969 0.0
0.880333 0.091364 0.0
0.868146 0.068433 0.0
0.861185 0.041378 0.0
0.998700 -0.012422 0.0
0.993361 -0.038836 0.0
0.982057 -0.068763 0.0
0.963329 -0.104672 0.0
0.934443 -0.150230 0.0
0.890364 -0.211641 0.0
0.821232 -0.300812 0.0
0.707745 -0.442173 0.0
0.318367 -0.756433 0.0
-0.463038 0.272615 0.0
-0.463038 0.000000 0.0
-0.038207 -0.027014 0.0
-0.068749 -0.055719 0.0
-0.033643 -0.075379 0.0
0.032200 -0.118799 0.0
0.106440 -0.159690 0.0
0.174118 -0.183499 0.0
0.241107 -0.181179 0.0
0.322405 -0.124374 0.0
0.419055 -0.010958 0.0
0.508286 0.099114 0.0
0.577286 0.186837 0.0
0.628508 0.259162 0.0
0.660309 0.317163 0.0
0.671588 0.360638 0.0
0.661794 0.389837 0.0
0.630305 0.405952 0.0
0.576704 0.411139 0.0
0.503157 0.407329 0.0
0.418566 0.393086 0.0
0.339895 0.361398 0.0
0.285689 0.303599 0.0
0.265766 0.217709 0.0
0.277459 0.111671 0.0
0.310047 -0.000763 0.0
0.350895 -0.104159 0.0
0.391574 -0.193031 0.0
0.429152 -0.265606 0.0
0.463632 -0.320291 0.0
0.497254 -0.355184 0.0
0.533840 -0.367780 0.0
0.577687 -0.355405 0.0
0.632078 -0.316638 0.0
0.698051 -0.253074 0.0
0.774062 -0.170165 0.0
0.856179 -0.076759 0.0
0.934682 0.012464 0.0
0.999609 0.085597 0.0
1.049014 0.142563 0.0
1.084357 0.186038 0.0
1.106858 0.217928 0.0
1.117675 0.239849 0.0
1.117913 0.253298 0.0
1.108550 0.259812 0.0
1.090316 0.261182 0.0
1.063646 0.259653 0.0
1.028892 0.257776 0.0
0.986985 0.257377 0.0
0.940357 0.257737 0.0
0.893356 0.254400 0.0
0.851424 0.240516 0.0
0.819214 0.210642 0.0
0.799001 0.164080 0.0
0.790541 0.104955 0.0
0.792109 0.039702 0.0
0.801423 -0.025176 0.0
0.816103 -0.084147 0.0
0.834009 -0.134416 0.0
0.853373 -0.175036 0.0
0.872818 -0.206143 0.0
0.891424 -0.228446 0.0
0.908805 -0.242806 0.0
0.925143 -0.249870 0.0
0.941130 -0.249797 0.0
0.957778 -0.242201 0.0
0.976108 -0.226366 0.0
0.996828 -0.201699 0.0
1.020114 -0.168237 0.0
1.045571 -0.126998 0.0
1.072309 -0.080058 0.0
1.099003 -0.030442 0.0
1.123400 0.017339 0.0
1.143138 0.059179 0.0
1.156916 0.093449 0.0
1.164168 0.119637 0.0
1.164759 0.138085 0.0
1.158800 0.149820 0.0
1.146541 0.156397 0.0
1.128370 0.159688 0.0
1.104896 0.161543 0.0
1.077079 0.163293 0.0
1.046329 0.165267 0.0
1.014463 0.166559 0.0
0.983504 0.165298 0.0
0.955338 0.159372 0.0
0.931394 0.147280 0.0
0.912449 0.128694 0.0
0.898640 0.104504 0.0
0.889603 0.076518 0.0
0.884744 0.045112 0.0
0.998289 -0.009412 0.0
0.991242 -0.029461 0.0
0.976228 -0.051819 0.0
0.951083 -0.077741 0.0
0.911636 -0.108827 0.0
0.849872 -0.147201 0.0
0.749166 -0.195415 0.0
0.570157 -0.255073 0.0
0.227034 -0.311508 0.0
0.000000 0.272615 0.0
-0.000000 -0.000000 0.0
0.000000 0.000000 0.0
-0.033010 -0.031692 0.0
-0.071113 -0.097727 0.0
-0.069355 -0.164053 0.0
-0.054329 -0.203702 0.0
-0.040841 -0.220653 0.0
-0.024023 -0.227832 0.0
0.015291 -0.198332 0.0
0.090166 -0.108524 0.0
0.182867 0.014749 0.0
0.266012 0.119056 0.0
0.332087 0.209645 0.0
0.378119 0.288847 0.0
0.401083 0.354712 0.0
0.399710 0.406930 0.0
0.374359 0.445700 0.0
0.329359 0.469992 0.0
0.275176 0.476208 0.0
0.227623 0.456352 0.0
0.202417 0.402009 0.0
0.207322 0.312290 0.0
0.239391 0.196872 0.0
0.289278 0.070928 0.0
0.344483 -0.047813 0.0
0.395558 -0.149032 0.0
0.439334 -0.232613 0.0
0.474741 -0.299010 0.0
0.502010 -0.348636 0.0
0.523086 -0.381539 0.0
0.541859 -0.396784 0.0
0.563753 -0.392142 0.0
0.594345 -0.364885 0.0
0.637366 -0.313821 0.0
0.693266 -0.241330 0.0
0.759295 -0.153741 0.0
0.830393 -0.060154 0.0
0.897403 0.026278 0.0
0.952736 0.097144 0.0
0.995257 0.153593 0.0
1.025603 0.197526 0.0
1.044488 0.230548 0.0
1.052640 0.254209 0.0
1.050700 0.270205 0.0
1.039162 0.280561 0.0
1.018463 0.287642 0.0
0.989409 0.293595 0.0
0.953901 0.298972 0.0
0.915497 0.301173 0.0
0.879101 0.294361 0.0
0.849540 0.272048 0.0
0.829888 0.230971 0.0
0.820818 0.173034 0.0
0.821281 0.103999 0.0
0.829563 0.030809 0.0
0.843631 -0.039665 0.0
0.861295 -0.102002 0.0
0.880585 -0.153757 0.0
0.899846 -0.194320 0.0
0.917754 -0.224212 0.0
0.933378 -0.244607 0.0
0.946266 -0.256913 0.0
0.956532 -0.262366 0.0
0.964893 -0.261649 0.0
0.972566 -0.254670 0.0
0.980996 -0.240657 0.0
0.991467 -0.218599 0.0
1.004754 -0.187911 0.0
1.020955 -0.148982 0.0
1.039540 -0.103396 0.0
1.059518 -0.053775 0.0
1.079416 -0.003623 0.0
1.097219 0.042599 0.0
1.111149 0.082320 0.0
1.120184 0.114479 0.0
1.123761 0.139074 0.0
1.121634 0.156918 0.0
1.113802 0.169390 0.0
1.100530 0.178138 0.0
1.082426 0.184671 0.0
1.060528 0.189880 0.0
1.036307 0.193652 0.0
1.011530 0.194816 0.0
0.987984 0.191547 0.0
0.967151 0.182120 0.0
0.949985 0.165642 0.0
0.936853 0.142408 0.0
0.927655 0.113797 0.0
0.921991 0.081926 0.0
0.919411 0.047143 0.0
0.998122 -0.005823 0.0
0.990397 -0.018278 0.0
0.974024 -0.031615 0.0
0.946921 -0.045698 0.0
0.905382 -0.059884 0.0
0.843309 -0.072307 0.0
0.751372 -0.077666 0.0
0.618807 -0.061246 0.0
0.443941 0.016575 0.0
0.173407 0.155860 0.0
0.000000 0.000000 0.0
-0.000000 -0.000000 0.0
0.000000 0.000000 0.0
-0.046905 -0.046317 0.0
-0.113967 -0.150746 0.0
-0.150342 -0.195661 0.0
-0.182597 -0.209927 0.0
-0.204411 -0.233563 0.0
-0.201641 -0.234685 0.0
-0.164858 -0.183829 0.0
-0.086920 -0.080587 0.0
0.008167 0.036159 0.0
0.086313 0.148323 0.0
0.140498 0.249952 0.0
0.172366 0.338775 0.0
0.182784 0.413823 0.0
0.175372 0.471570 0.0
0.159366 0.505127 0.0
0.147811 0.506811 0.0
0.153164 0.467948 0.0
0.182275 0.386508 0.0
0.233715 0.271446 0.0
0.300490 0.138870 0.0
0.372238 0.007296 0.0
0.438090 -0.105238 0.0
0.493257 -0.197849 0.0
0.537454 -0.271768 0.0
0.570299 -0.328107 0.0
0.591865 -0.368374 0.0
0.603197 -0.394209 0.0
0.606980 -0.406669 0.0
0.608073 -0.405244 0.0
0.613133 -0.387435 0.0
0.628771 -0.349931 0.0
0.658949 -0.291298 0.0
0.703394 -0.214246 0.0
0.758183 -0.125536 0.0
0.817165 -0.034331 0.0
0.871996 0.047589 0.0
0.917123 0.115500 0.0
0.951782 0.170614 0.0
0.976019 0.214338 0.0
0.990088 0.248198 0.0
0.994277 0.273965 0.0
0.988915 0.293701 0.0
0.974616 0.309501 0.0
0.952790 0.322616 0.0
0.926182 0.332067 0.0
0.898905 0.333760 0.0
0.875539 0.321537 0.0
0.859627 0.290344 0.0
0.852655 0.239299 0.0
0.854260 0.172172 0.0
0.863190 0.095468 0.0
0.877984 0.016263 0.0
0.896685 -0.057888 0.0
0.917071 -0.121828 0.0
0.937319 -0.173469 0.0
0.955966 -0.212516 0.0
0.971872 -0.239830 0.0
0.984232 -0.256973 0.0
0.992627 -0.265830 0.0
0.997119 -0.268209 0.0
0.998356 -0.265404 0.0
0.997586 -0.257817 0.0