# vtk DataFile Version 3.0
Scalar Field
ASCII
DATASET RECTILINEAR_GRID
DIMENSIONS 100 26 1
X_COORDINATES 100 double
0.050000 0.150000 0.250000 0.350000 0.450000 0.550000 0.650000 0.750000 0.850000 0.950000 1.050000 1.150000 1.250000 1.350000 1.450000 1.550000 1.650000 1.750000 1.850000 1.950000 2.050000 2.150000 2.250000 2.350000 2.450000 2.550000 2.650000 2.750000 2.850000 2.950000 3.050000 3.150000 3.250000 3.350000 3.450000 3.550000 3.650000 3.750000 3.850000 3.950000 4.050000 4.150000 4.250000 4.350000 4.450000 4.550000 4.650000 4.750000 4.850000 4.950000 5.050000 5.150000 5.250000 5.350000 5.450000 5.550000 5.650000 5.750000 5.850000 5.950000 6.050000 6.150000 6.250000 6.350000 6.450000 6.550000 6.650000 6.750000 6.850000 6.950000 7.050000 7.150000 7.250000 7.350000 7.450000 7.550000 7.650000 7.750000 7.850000 7.950000 8.050000 8.150000 8.250000 8.350000 8.450000 8.550000 8.650000 8.750000 8.850000 8.950000 9.050000 9.150000 9.250000 9.350000 9.450000 9.550000 9.650000 9.750000 9.850000 9.950000 
Y_COORDINATES 26 double
0.050000 0.150000 0.250000 0.350000 0.450000 0.550000 0.650000 0.750000 0.850000 0.950000 1.050000 1.150000 1.250000 1.350000 1.450000 1.550000 1.650000 1.750000 1.850000 1.950000 2.050000 2.150000 2.250000 2.350000 2.450000 2.550000 
Z_COORDINATES 1 double
0.0
POINT_DATA 2600
SCALARS Skalarfeld double 1
LOOKUP_TABLE default
0.198499
0.194833
0.187246
0.175338
0.158873
0.137734
0.111986
0.081980
0.048454
0.012565
-0.024205
-0.060303
-0.094370
-0.125425
-0.152904
-0.176604
-0.196558
-0.212897
-0.225714
-0.234988
-0.240573
-0.242118
-0.239385
-0.232334
-0.221178
-0.206403
-0.188727
-0.169005
-0.148135
-0.126952
-0.106159
-0.086283
-0.067655
-0.050424
-0.034579
-0.020001
-0.006518
0.006011
0.017670
0.028526
0.038113
0.045742
0.050588
0.051913
0.049346
0.043147
0.034307
0.024383
0.015098
0.007814
0.003629
0.002657
0.004430
0.008200
0.013118
0.018381
0.023334
0.027525
0.030719
0.032889
0.034186
0.034885
0.035316
0.035772
0.036423
0.037331
0.038593
0.039996
0.041417
0.042788
0.044039
0.045050
0.045598
0.045347
0.043889
0.040844
0.036008
0.029499
0.021837
0.013885
0.006608
0.000764
-0.003322
-0.006017
-0.008016
-0.010229
-0.013562
-0.018654
-0.025683
-0.034324
-0.043943
-0.053941
-0.064041
-0.074378
-0.085080
-0.096519
-0.108845
-0.121825
-0.134800
-0.147642
0.201481
0.198685
0.191352
0.179437
0.162749
0.141123
0.114559
0.083376
0.048364
0.010845
-0.027431
-0.064672
-0.099412
-0.130689
-0.158043
-0.181414
-0.200987
-0.217021
-0.229699
-0.239020
-0.244770
-0.246575
-0.244029
-0.237004
-0.225675
-0.210537
-0.192349
-0.172027
-0.150523
-0.128718
-0.107347
-0.086956
-0.067884
-0.050279
-0.034123
-0.019286
-0.005570
0.007231
0.019202
0.030060
0.039439
0.046688
0.051025
0.051755
0.048546
0.041662
0.032093
0.021433
0.011536
0.004042
-0.000210
-0.001064
0.000985
0.005128
0.010458
0.016129
0.021464
0.026001
0.029507
0.031961
0.033525
0.034477
0.035143
0.035807
0.036665
0.037743
0.038848
0.039985
0.041095
0.042148
0.043099
0.043848
0.044185
0.043783
0.042240
0.039176
0.034371
0.027903
0.020220
0.012127
0.004641
-0.001277
-0.005434
-0.008175
-0.010144
-0.012247
-0.015390
-0.020207
-0.026860
-0.035031
-0.044124
-0.053607
-0.063256
-0.073170
-0.083853
-0.095578
-0.108377
-0.122122
-0.136360
-0.153047
0.209558
0.206994
0.199815
0.187855
0.170796
0.148293
0.120156
0.086585
0.048438
0.007389
-0.034137
-0.073782
-0.109865
-0.141506
-0.168501
-0.191109
-0.209837
-0.225225
-0.237646
-0.247158
-0.253466
-0.255970
-0.253946
-0.247084
-0.235476
-0.219637
-0.200416
-0.178851
-0.156006
-0.132858
-0.110204
-0.088630
-0.068496
-0.049960
-0.033007
-0.017503
-0.003249
0.009949
0.022185
0.033131
0.042335
0.049089
0.052589
0.052167
0.047532
0.038992
0.027606
0.015134
0.003707
-0.004719
-0.009159
-0.009725
-0.007047
-0.002066
0.004200
0.010834
0.017117
0.022571
0.026964
0.030275
0.032650
0.034336
0.035599
0.036656
0.037636
0.038572
0.039414
0.040177
0.040828
0.041389
0.041859
0.042175
0.042163
0.041512
0.039826
0.036718
0.031946
0.025530
0.017832
0.009557
0.001632
-0.005043
-0.009596
-0.012558
-0.014533
-0.016357
-0.018889
-0.022756
-0.028190
-0.035029
-0.042888
-0.051427
-0.060538
-0.070366
-0.081231
-0.093399
-0.107021
-0.122055
-0.138373
-0.160071
0.222288
0.219837
0.212823
0.200886
0.183442
0.159789
0.129328
0.091943
0.048514
0.001292
-0.045762
-0.089202
-0.127115
-0.158926
-0.184951
-0.206012
-0.223162
-0.237413
-0.249464
-0.259462
-0.266885
-0.270734
-0.269747
-0.263264
-0.251234
-0.234237
-0.213312
-0.189717
-0.164717
-0.139435
-0.114770
-0.091363
-0.069608
-0.049676
-0.031560
-0.015127
-0.000167
0.013539
0.026147
0.037329
0.046434
0.052616
0.055020
0.053014
0.046362
0.035411
0.021279
0.005913
-0.008158
-0.018414
-0.023145
-0.023192
-0.019451
-0.013085
-0.005296
0.002879
0.010657
0.017538
0.023278
0.027844
0.031352
0.033999
0.035991
0.037501
0.038637
0.039444
0.039917
0.040080
0.040165
0.040104
0.039930
0.039649
0.039157
0.038188
0.036368
0.033311
0.028743
0.022620
0.015197
0.007046
-0.001026
-0.008158
-0.013675
-0.016984
-0.019062
-0.020628
-0.022457
-0.025185
-0.029158
-0.034425
-0.040853
-0.048306
-0.056767
-0.066374
-0.077369
-0.090005
-0.104477
-0.120907
-0.139408
-0.165511
0.239454
0.237165
0.230515
0.218909
0.201363
0.176571
0.143150
0.100219
0.048425
-0.009248
-0.065068
-0.113704
-0.153392
-0.184464
-0.208206
-0.226329
-0.240696
-0.253048
-0.264636
-0.275770
-0.285490
-0.291885
-0.292884
-0.287175
-0.274520
-0.255688
-0.232101
-0.205412
-0.177211
-0.148840
-0.121328
-0.095384
-0.071432
-0.049653
-0.030039
-0.012446
0.003354
0.017622
0.030585
0.042119
0.051193
0.056761
0.057927
0.054187
0.045420
0.031992
0.014979
-0.003664
-0.021185
-0.034519
-0.041165
-0.040681
-0.035649
-0.027490
-0.017677
-0.007448
0.002300
0.011012
0.018424
0.024484
0.029286
0.032991
0.035775
0.037790
0.039135
0.039859
0.039972
0.039506
0.038553
0.037568
0.036602
0.035580
0.034535
0.033271
0.031438
0.028642
0.024572
0.019104
0.012375
0.004808
-0.002944
-0.010127
-0.016108
-0.020107
-0.022362
-0.023814
-0.025115
-0.026886
-0.029572
-0.033409
-0.038481
-0.044826
-0.052523
-0.061729
-0.072670
-0.085596
-0.100740
-0.118316
-0.138566
-0.167828
0.260756
0.258773
0.252910
0.242306
0.225454
0.200126
0.163517
0.112995
0.048072
-0.028015
-0.097161
-0.151599
-0.191557
-0.219625
-0.238656
-0.251529
-0.261155
-0.270324
-0.281236
-0.294658
-0.309043
-0.320393
-0.325117
-0.320919
-0.307359
-0.285711
-0.258134
-0.226954
-0.194244
-0.161638
-0.130317
-0.101053
-0.074280
-0.050174
-0.028718
-0.009758
0.006944
0.021650
0.034550
0.046203
0.055173
0.059952
0.059665
0.054183
0.043684
0.028616
0.009891
-0.010840
-0.031055
-0.047660
-0.057884
-0.058607
-0.052944
-0.043328
-0.031600
-0.019276
-0.007439
0.003247
0.012451
0.020087
0.026222
0.030995
0.034570
0.037085
0.038627
0.039222
0.038871
0.037625
0.035665
0.033310
0.031220
0.029379
0.027840
0.026438
0.024824
0.022586
0.019366
0.014957
0.009372
0.002878
-0.004033
-0.010728
-0.016578
-0.021088
-0.023697
-0.025213
-0.026248
-0.027390
-0.029139
-0.031857
-0.035790
-0.041117
-0.048013
-0.056678
-0.067353
-0.080299
-0.095776
-0.114033
-0.135353
-0.166398
0.285624
0.284178
0.279768
0.271307
0.256725
0.232574
0.193677
0.133579
0.047620
-0.063507
-0.151028
-0.208306
-0.243840
-0.264667
-0.275324
-0.279694
-0.281704
-0.285454
-0.294720
-0.311528
-0.334160
-0.355626
-0.367188
-0.365771
-0.350985
-0.325262
-0.292098
-0.254856
-0.216248
-0.178249
-0.142177
-0.108835
-0.078643
-0.051753
-0.028136
-0.007650
0.009901
0.024728
0.036972
0.046577
0.054979
0.058333
0.055920
0.048606
0.037238
0.022293
0.004226
-0.015958
-0.036360
-0.054275
-0.066795
-0.071732
-0.066915
-0.057072
-0.044422
-0.030743
-0.017331
-0.005019
0.005743
0.014786
0.022119
0.027848
0.032110
0.035020
0.036631
0.036932
0.035905
0.033651
0.030484
0.026922
0.023523
0.020907
0.019044
0.017747
0.016643
0.015285
0.013265
0.010293
0.006262
0.001284
-0.004315
-0.010045
-0.015360
-0.019807
-0.022884
-0.024485
-0.025470
-0.026309
-0.027491
-0.029443
-0.032513
-0.036985
-0.043114
-0.051154
-0.061374
-0.074053
-0.089460
-0.107852
-0.129499
-0.161045
0.313072
0.312449
0.310361
0.305654
0.295916
0.276512
0.238951
0.169120
0.047753
-0.135962
-0.240397
-0.286541
-0.308088
-0.316370
-0.315052
-0.307881
-0.299212
-0.294307
-0.299140
-0.318237
-0.351383
-0.390172
-0.415289
-0.418651
-0.402602
-0.371809
-0.331886
-0.287563
-0.242264
-0.198263
-0.156965
-0.119170
-0.085259
-0.055354
-0.029425
-0.007397
0.010759
0.025029
0.035541
0.042290
0.044476
0.045142
0.040136
0.032169
0.022136
0.009965
-0.004547
-0.021139
-0.038685
-0.055154
-0.068028
-0.075182
-0.073959
-0.065319
-0.053263
-0.039570
-0.025679
-0.012592
-0.000915
0.009051
0.017214
0.023608
0.028310
0.031383
0.032825
0.032576
0.030625
0.027165
0.022696
0.017945
0.013616
0.010392
0.008438
0.007519
0.007219
0.007048
0.006541
0.005326
0.003181
0.000072
-0.003832
-0.008190
-0.012554
-0.016478
-0.019616
-0.021486
-0.022589
-0.023376
-0.024301
-0.025802
-0.028277
-0.032076
-0.037512
-0.044886
-0.054497
-0.066638
-0.081582
-0.099572
-0.120841
-0.151780
0.341593
0.342071
0.343187
0.344053
0.342562
0.333887
0.306840
0.235521
0.054214
-0.296758
-0.377638
-0.374101
-0.371239
-0.365833
-0.352650
-0.334306
-0.314612
-0.298983
-0.295744
-0.312660
-0.351959
-0.405445
-0.454250
-0.466781
-0.450777
-0.415652
-0.369816
-0.319420
-0.268461
-0.219392
-0.173657
-0.132048
-0.094944
-0.062471
-0.034647
-0.011576
0.006273
0.018113
0.023830
0.024654
0.021827
0.016053
0.010553
0.004912
-0.001102
-0.008087
-0.016721
-0.027347
-0.039581
-0.052138
-0.063025
-0.070132
-0.071864
-0.066208
-0.056249
-0.043985
-0.030930
-0.018195
-0.006528
0.003621
0.012029
0.018615
0.023363
0.026252
0.027205
0.026124
0.023034
0.018265
0.012526
0.006744
0.001765
-0.001801
-0.003585
-0.003848
-0.003054
-0.001751
-0.000474
0.000318
0.000300
-0.000692
-0.002634
-0.005325
-0.008425
-0.011543
-0.014337
-0.016437
-0.017635
-0.018501
-0.019373
-0.020654
-0.022746
-0.026025
-0.030843
-0.037530
-0.046406
-0.057773
-0.071899
-0.089004
-0.109275
-0.138680
0.369179
0.370916
0.375780
0.383545
0.393393
0.402626
0.402581
0.364092
0.152869
-0.606931
-0.539658
-0.426907
-0.408239
-0.399364
-0.381463
-0.358501
-0.335048
-0.314486
-0.306481
-0.317649
-0.352495
-0.405899
-0.460366
-0.492270
-0.478490
-0.441888
-0.393734
-0.341071
-0.288025
-0.237017
-0.189486
-0.146288
-0.107920
-0.074697
-0.046969
-0.025424
-0.011200
-0.005110
-0.006201
-0.011539
-0.018084
-0.024087
-0.027039
-0.028131
-0.028390
-0.028838
-0.030451
-0.033967
-0.039592
-0.046753
-0.054082
-0.059791
-0.062288
-0.060358
-0.053068
-0.043255
-0.032160
-0.020859
-0.010175
-0.000679
0.007270
0.013461
0.017763
0.020047
0.020155
0.017966
0.013566
0.007445
0.000506
-0.006161
-0.011615
-0.015278
-0.016632
-0.015960
-0.013784
-0.010733
-0.007436
-0.004444
-0.002182
-0.000920
-0.000756
-0.001608
-0.003238
-0.005310
-0.007463
-0.009387
-0.010769
-0.011767
-0.012685
-0.013873
-0.015708
-0.018567
-0.022809
-0.028781
-0.036811
-0.047199
-0.060199
-0.076003
-0.094748
-0.121837
0.393549
0.396464
0.404879
0.419391
0.441018
0.471137
0.510919
0.558056
0.649775
0.021422
-0.474368
-0.409078
-0.412812
-0.412120
-0.402500
-0.384049
-0.365047
-0.349993
-0.341687
-0.347099
-0.369793
-0.407897
-0.450434
-0.477958
-0.475453
-0.440150
-0.394032
-0.344092
-0.293887
-0.245477
-0.200208
-0.159032
-0.122683
-0.091842
-0.067384
-0.050595
-0.042757
-0.043701
-0.050598
-0.059059
-0.065715
-0.068411
-0.066530
-0.061653
-0.055274
-0.048733
-0.043193
-0.039590
-0.038484
-0.039847
-0.042911
-0.046306
-0.048514
-0.048389
-0.044426
-0.037627
-0.029209
-0.020140
-0.011238
-0.003147
0.003666
0.008869
0.012210
0.013452
0.012357
0.008790
0.002921
-0.004607
-0.012720
-0.020196
-0.026019
-0.029603
-0.030295
-0.028417
-0.024578
-0.019524
-0.014002
-0.008671
-0.004052
-0.000501
0.001796
0.002830
0.002756
0.001858
0.000479
-0.001079
-0.002414
-0.003443
-0.004386
-0.005502
-0.007116
-0.009578
-0.013240
-0.018444
-0.025513
-0.034735
-0.046341
-0.060486
-0.077256
-0.101355
0.412573
0.416312
0.427198
0.446333
0.475838
0.519408
0.583465
0.678688
0.808112
0.829958
0.000000
-0.411441
-0.413803
-0.416467
-0.416683
-0.414670
-0.411072
-0.406371
-0.402582
-0.402041
-0.407487
-0.418876
-0.433962
-0.440065
-0.433920
-0.407952
-0.367271
-0.324116
-0.281126
-0.239711
-0.200960
-0.165851
-0.135332
-0.110470
-0.092666
-0.083543
-0.083808
-0.091567
-0.102312
-0.111221
-0.115276
-0.112357
-0.103974
-0.092100
-0.078602
-0.065078
-0.052813
-0.042785
-0.035665
-0.031707
-0.030586
-0.031347
-0.032647
-0.033176
-0.032003
-0.028095
-0.022561
-0.016115
-0.009490
-0.003335
0.001816
0.005537
0.007468
0.007268
0.004634
-0.000568
-0.008079
-0.017111
-0.026441
-0.034731
-0.040875
-0.044251
-0.044079
-0.040751
-0.035000
-0.027725
-0.019821
-0.012072
-0.005093
0.000693
0.005044
0.007896
0.009353
0.009663
0.009162
0.008201
0.007082
0.006123
0.005243
0.004264
0.002921
0.000904
-0.002116
-0.006462
-0.012441
-0.020315
-0.030281
-0.042452
-0.056859
-0.077361
0.424761
0.428803
0.440540
0.461046
0.492222
0.536849
0.598123
0.677831
0.770440
0.851804
0.755680
0.000000
-0.418894
-0.423984
-0.433939
-0.449203
-0.467338
-0.483846
-0.490958
-0.481622
-0.461479
-0.438023
-0.415903
-0.393625
-0.372110
-0.346784
-0.315329
-0.280672
-0.247416
-0.215997
-0.187035
-0.161382
-0.140111
-0.124660
-0.116863
-0.118175
-0.127901
-0.142166
-0.155435
-0.163266
-0.162509
-0.152467
-0.136576
-0.117197
-0.096534
-0.076395
-0.058134
-0.042692
-0.030676
-0.022378
-0.017693
-0.015988
-0.016154
-0.016901
-0.017152
-0.015878
-0.013063
-0.009254
-0.005060
-0.001089
0.002101
0.004019
0.004217
0.002268
-0.002181
-0.009244
-0.018569
-0.029229
-0.039865
-0.049015
-0.055468
-0.058523
-0.057323
-0.052359
-0.044521
-0.034886
-0.024525
-0.014360
-0.005097
0.002785
0.009019
0.013524
0.016389
0.017845
0.018230
0.017920
0.017258
0.016507
0.015834
0.015123
0.014170
0.012708
0.010444
0.007082
0.002347
-0.003991
-0.012086
-0.021997
-0.033692
-0.050038
0.429571
0.433394
0.444421
0.463404
0.491561
0.530340
0.580698
0.640193
0.694643
0.708967
0.659557
0.536830
0.000000
-0.439923
-0.455862
-0.491922
-0.536055
-0.576036
-0.594173
-0.570022
-0.519426
-0.458050
-0.397693
-0.344975
-0.302062
-0.268998
-0.240425
-0.215358
-0.192349
-0.172105
-0.154661
-0.140736
-0.131558
-0.128915
-0.134680
-0.149224
-0.169702
-0.190414
-0.205406
-0.210916
-0.203025
-0.185558
-0.161984
-0.135309
-0.108048
-0.082133
-0.058916
-0.039237
-0.023553
-0.012049
-0.004649
-0.000911
0.000044
-0.000602
-0.001692
-0.002312
-0.001702
-0.000235
0.001675
0.003492
0.004664
0.004662
0.002968
-0.000908
-0.007349
-0.016427
-0.027690
-0.040080
-0.052097
-0.062148
-0.068900
-0.071519
-0.069178
-0.062483
-0.052497
-0.040493
-0.027724
-0.015255
-0.003884
0.005870
0.013739
0.019657
0.023726
0.026190
0.027398
0.027745
0.027598
0.027274
0.026988
0.026713
0.026310
0.025559
0.024205
0.021988
0.018669
0.014062
0.008065
0.000678
-0.007995
-0.019666
0.427412
0.430687
0.440036
0.455791
0.478320
0.507595
0.542134
0.576589
0.597772
0.580876
0.507606
0.414104
0.240155
0.000000
-0.509109
-0.562357
-0.607184
-0.664196
-0.679407
-0.635621
-0.557427
-0.464609
-0.372768
-0.292395
-0.229606
-0.184945
-0.152953
-0.131523
-0.118392
-0.108918
-0.103354
-0.102618
-0.108104
-0.121581
-0.144030
-0.173735
-0.205484
-0.232270
-0.248112
-0.249690
-0.233897
-0.208805
-0.178123
-0.145172
-0.112596
-0.082310
-0.055548
-0.032984
-0.014887
-0.001273
0.008003
0.013294
0.015273
0.014953
0.013485
0.011878
0.010666
0.010229
0.010210
0.010127
0.009443
0.007598
0.004028
-0.001803
-0.010279
-0.021413
-0.034642
-0.048774
-0.062172
-0.073105
-0.080115
-0.082180
-0.078652
-0.070251
-0.058211
-0.043993
-0.029025
-0.014507
-0.001320
0.009993
0.019179
0.026211
0.031231
0.034516
0.036436
0.037414
0.037851
0.038073
0.038326
0.038660
0.038984
0.039122
0.038857
0.037963
0.036245
0.033566
0.029880
0.025257
0.019881
0.013340
0.419278
0.421757
0.428729
0.440125
0.455602
0.474071
0.492790
0.505827
0.502155
0.464257
0.374002
0.221939
0.066205
-0.378566
-0.636922
-0.576147
-0.635309
-0.708353
-0.703922
-0.643996
-0.549930
-0.441370
-0.333790
-0.238303
-0.161595
-0.105734
-0.068355
-0.045400
-0.035391
-0.034307
-0.039714
-0.052825
-0.074671
-0.106064
-0.146075
-0.190516
-0.232288
-0.263745
-0.279566
-0.272851
-0.250850
-0.219533
-0.183422
-0.146088
-0.110158
-0.077390
-0.048803
-0.024854
-0.005607
0.009094
0.019499
0.025930
0.028876
0.029112
0.027635
0.025409
0.023200
0.021459
0.020007
0.018432
0.016210
0.012762
0.007486
-0.000176
-0.010583
-0.023668
-0.038748
-0.054501
-0.069157
-0.080856
-0.088026
-0.089426
-0.084745
-0.074797
-0.060963
-0.044869
-0.028089
-0.011934
0.002654
0.015121
0.025246
0.033055
0.038748
0.042642
0.045141
0.046690
0.047719
0.048582
0.049506
0.050609
0.051834
0.053039
0.054041
0.054650
0.054714
0.054148
0.052967
0.051312
0.049453
0.048410
0.406617
0.408212
0.412595
0.419416
0.427880
0.436355
0.441724
0.438461
0.417608
0.365846
0.265381
0.091850
-0.206844
-0.823338
-0.697698
-0.595032
-0.636588
-0.676263
-0.654322
-0.590142
-0.497847
-0.392612
-0.287201
-0.191272
-0.111389
-0.050461
-0.006874
0.022726
0.037881
0.035499
0.021682
-0.004196
-0.041446
-0.088985
-0.143613
-0.199117
-0.247281
-0.280164
-0.292248
-0.278801
-0.251758
-0.216450
-0.177473
-0.138332
-0.101451
-0.068327
-0.039725
-0.015881
0.003319
0.018174
0.029034
0.036231
0.040118
0.041206
0.040233
0.038052
0.035389
0.032906
0.030554
0.027962
0.024612
0.019906
0.013215
0.003980
-0.008109
-0.022889
-0.039555
-0.056655
-0.072307
-0.084542
-0.091702
-0.092355
-0.086634
-0.075421
-0.060208
-0.042740
-0.024699
-0.007467
0.007986
0.021121
0.031759
0.039991
0.046073
0.050372
0.053318
0.055374
0.056989
0.058538
0.060243
0.062248
0.064524
0.066955
0.069384
0.071657
0.073661
0.075363
0.076841
0.078308
0.080119
0.084819
0.391040
0.391789
0.393734
0.396375
0.398720
0.398998
0.394250
0.379798
0.348716
0.291329
0.194621
0.041250
-0.191759
-0.489253
-0.547486
-0.551639
-0.575056
-0.579769
-0.555444
-0.501297
-0.425386
-0.338097
-0.249007
-0.165645
-0.093016
-0.033258
0.013931
0.048536
0.069286
0.076432
0.060315
0.027139
-0.019744
-0.076992
-0.139363
-0.199358
-0.248391
-0.279142
-0.282447
-0.265592
-0.236392
-0.200248
-0.161529
-0.123422
-0.088025
-0.056544
-0.029519
-0.007027
0.011151
0.025387
0.036096
0.043644
0.048332
0.050473
0.050508
0.049028
0.046616
0.044010
0.041307
0.038189
0.034157
0.028597
0.020866
0.010421
-0.002981
-0.019071
-0.036919
-0.054962
-0.071224
-0.083665
-0.090591
-0.090460
-0.083870
-0.071757
-0.055682
-0.037465
-0.018837
-0.001200
0.014494
0.027748
0.038447
0.046746
0.052957
0.057482
0.060770
0.063287
0.065485
0.067747
0.070313
0.073320
0.076760
0.080538
0.084519
0.088577
0.092637
0.096714
0.100946
0.105617
0.111168
0.121715
0.374091
0.374108
0.373971
0.373141
0.370616
0.364746
0.353002
0.331720
0.295916
0.239259
0.154343
0.033972
-0.123515
-0.297118
-0.392635
-0.439589
-0.466185
-0.469097
-0.450911
-0.411458
-0.355190
-0.288775
-0.218954
-0.151361
-0.089955
-0.036869
0.007147
0.041435
0.068742
0.077166
0.064293
0.032157
-0.015272
-0.072836
-0.133929
-0.190446
-0.233730
-0.256588
-0.253889
-0.236005
-0.207877
-0.174179
-0.138673
-0.104063
-0.072091
-0.043727
-0.019372
0.000960
0.017501
0.030616
0.040718
0.048191
0.053342
0.056411
0.057643
0.057358
0.055957
0.054004
0.051546
0.048417
0.044172
0.038201
0.029860
0.018643
0.004383
-0.012538
-0.031073
-0.049566
-0.065978
-0.078240
-0.084662
-0.083758
-0.076498
-0.063873
-0.047495
-0.029206
-0.010728
0.006584
0.021847
0.034651
0.044960
0.052994
0.059111
0.063729
0.067295
0.070261
0.073060
0.076068
0.079548
0.083620
0.088293
0.093489
0.099093
0.105001
0.111173
0.117666
0.124674
0.132550
0.141811
0.158155
0.357105
0.356534
0.354748
0.351243
0.345116
0.334970
0.318802
0.293923
0.256988
0.204232
0.132116
0.038810
-0.072390
-0.188046
-0.274015
-0.329209
-0.360900
-0.370949
-0.361953
-0.336088
-0.296580
-0.247959
-0.194991
-0.141884
-0.091840
-0.046935
-0.008350
0.024140
0.046628
0.054193
0.044549
0.018149
-0.022271
-0.071883
-0.123996
-0.170683
-0.204037
-0.216900
-0.212903
-0.196842
-0.172532
-0.143664
-0.113272
-0.083572
-0.056021
-0.031451
-0.010221
0.007639
0.022310
0.034102
0.043379
0.050504
0.055789
0.059466
0.061707
0.062653
0.062820
0.062037
0.060393
0.057788
0.053824
0.047912
0.039430
0.027920
0.013304
-0.003925
-0.022618
-0.041044
-0.057130
-0.068818
-0.074457
-0.072805
-0.065051
-0.052279
-0.036134
-0.018438
-0.000840
0.015418
0.029593
0.041399
0.050905
0.058392
0.064244
0.068876
0.072705
0.076143
0.079588
0.083388
0.087818
0.092983
0.098912
0.105542
0.112777
0.120534
0.128799
0.137670
0.147390
0.158373
0.171210
0.193147
0.341152
0.340138
0.337122
0.331674
0.323047
0.310130
0.291425
0.265061
0.228918
0.180939
0.119725
0.045579
-0.037864
-0.122188
-0.192885
-0.244712
-0.277881
-0.293320
-0.292355
-0.277152
-0.250388
-0.215395
-0.175681
-0.134466
-0.094379
-0.057350
-0.024699
0.002459
0.020810
0.027620
0.021146
0.001402
-0.029610
-0.067871
-0.107640
-0.142218
-0.165249
-0.173514
-0.170193
-0.157399
-0.137903
-0.114480
-0.089510
-0.064815
-0.041653
-0.020785
-0.002581
0.012882
0.025723
0.036191
0.044595
0.051264
0.056496
0.060530
0.063529
0.065605
0.067175
0.067689
0.067206
0.065551
0.062310
0.056904
0.048739
0.037414
0.022940
0.005910
-0.012436
-0.030314
-0.045643
-0.056402
-0.061007
-0.058568
-0.050462
-0.037854
-0.022413
-0.005905
0.010156
0.024710
0.037210
0.047545
0.055906
0.062635
0.068121
0.072744
0.076863
0.080827
0.084976
0.089622
0.095018
0.101273
0.108433
0.116456
0.125262
0.134791
0.145052
0.156177
0.168451
0.182345
0.198516
0.225695
0.327044
0.325708
0.321816
0.315029
0.304760
0.290169
0.270181
0.243544
0.208984
0.165476
0.112697
0.051645
-0.014627
-0.080665
-0.139063
-0.185237
-0.217482
-0.235611
-0.240198
-0.232624
-0.215046
-0.190021
-0.160245
-0.128265
-0.096282
-0.066071
-0.039031
-0.016815
-0.001548
0.004941
0.001453
-0.012031
-0.034009
-0.061384
-0.089750
-0.114174
-0.130333
-0.136708
-0.134314
-0.124467
-0.109092
-0.090250
-0.069817
-0.049312
-0.029846
-0.012131
0.003455
0.016800
0.027988
0.037228
0.044794
0.050988
0.056094
0.060346
0.063903
0.067049
0.069531
0.071195
0.071913
0.071389
0.069141
0.064567
0.057089
0.046355
0.032449
0.016051
-0.001527
-0.018458
-0.032669
-0.042223
-0.045382
-0.042259
-0.033953
-0.021774
-0.007413
0.007449
0.021470
0.033821
0.044198
0.052710
0.059690
0.065540
0.070628
0.075269
0.079734
0.084284
0.089185
0.094721
0.101072
0.108375
0.116694
0.126009
0.136262
0.147412
0.159492
0.172658
0.187236
0.203743
0.222901
0.254831
0.315369
0.313798
0.309295
0.301617
0.290324
0.274796
0.254277
0.227954
0.195096
0.155277
0.108679
0.056456
0.001053
-0.053777
-0.103531
-0.144685
-0.175230
-0.194417
-0.202423
-0.199987
-0.188788
-0.170829
-0.148256
-0.123156
-0.097410
-0.072638
-0.050232
-0.031738
-0.018652
-0.012260
-0.013373
-0.021968
-0.036923
-0.055951
-0.075857
-0.093162
-0.104968
-0.109895
-0.107967
-0.100041
-0.087486
-0.071875
-0.054725
-0.037331
-0.020680
-0.005437
0.008031
0.019610
0.029371
0.037516
0.044317
0.050064
0.055033
0.059458
0.063502
0.067272
0.070532
0.073166
0.074954
0.075518
0.074316
0.070713
0.064129
0.054240
0.041184
0.025706
0.009180
-0.006528
-0.019347
-0.027406
-0.029142
-0.025416
-0.017058
-0.005499
0.007560
0.020538
0.032270
0.042167
0.050193
0.056698
0.062187
0.067124
0.071845
0.076566
0.081439
0.086616
0.092290
0.098683
0.105932
0.114198
0.123556
0.134008
0.145519
0.158070
0.171714
0.186630
0.203172
0.221899
0.243590
0.279652
0.306555
0.304781
0.299835
0.291574
0.279668
0.263656
0.243004
0.217182
0.185794
0.148738
0.106427
0.059995
0.011441
-0.036444
-0.080490
-0.117930
-0.146865
-0.166348
-0.176293
-0.177153
-0.170195
-0.157035
-0.139452
-0.119217
-0.097974
-0.077195
-0.058193
-0.042301
-0.030690
-0.024330
-0.023809
-0.029094
-0.039332
-0.052808
-0.067144
-0.079771
-0.088556
-0.092125
-0.090183
-0.083268
-0.072402
-0.058844
-0.043871
-0.028611
-0.013956
-0.000522
0.011346
0.021540
0.030141
0.037362
0.043489
0.048831
0.053674
0.058254
0.062689
0.066910
0.070831
0.074283
0.076979
0.078486
0.078227
0.075547
0.069862
0.060866
0.048732
0.034254
0.018859
0.004447
-0.006914
-0.013412
-0.014179
-0.009966
-0.001679
0.009194
0.020972
0.032155
0.041727
0.049295
0.055058
0.059606
0.063631
0.067690
0.072095
0.076957
0.082278
0.088074
0.094459
0.101580
0.109611
0.118694
0.128913
0.140289
0.152813
0.166485
0.181374
0.197678
0.215768
0.236233
0.259896
0.299350
0.300976
0.298896
0.293570
0.284922
0.272668
0.256434
0.235814
0.210447
0.180120
0.144900
0.105292
0.062376
0.017874
-0.025941
-0.066539
-0.101599
-0.129376
-0.148869
-0.159828
-0.162631
-0.158264
-0.148095
-0.133669
-0.116557
-0.098247
-0.080087
-0.063281
-0.049031
-0.038322
-0.031960
-0.030429
-0.033712
-0.041128
-0.051300
-0.062317
-0.072098
-0.078844
-0.081358
-0.079233
-0.072805
-0.062888
-0.050545
-0.036899
-0.022968
-0.009578
0.002694
0.013519
0.022793
0.030599
0.037154
0.042759
0.047747
0.052439
0.057126
0.061796
0.066428
0.070920
0.075056
0.078498
0.080771
0.081271
0.079333
0.074376
0.066102
0.054711
0.041043
0.026572
0.013223
0.003033
-0.002333
-0.002603
0.001829
0.009941
0.020223
0.031021
0.040900
0.048922
0.054799
0.058863
0.061861
0.064650
0.067906
0.071984
0.076970
0.082641
0.088901
0.095831
0.103536
0.112164
0.121853
0.132696
0.144735
0.157977
0.172440
0.188204
0.205476
0.224637
0.246287
0.271260
0.313156
0.299205
0.296213
0.290506
0.281628
0.269217
0.252913
0.232365
0.207286
0.177540
0.143259
0.104975
0.063726
0.021101
-0.020850
-0.059858
-0.093796
-0.121002
-0.140476
-0.151939
-0.155643
-0.152488
-0.143728
-0.130797
-0.115172
-0.098271
-0.081405
-0.065764
-0.052316
-0.042007
-0.035598
-0.033552
-0.035879
-0.041988
-0.050651
-0.060159
-0.068661
-0.074589
-0.076604
-0.074380
-0.068178
-0.058708
-0.046937
-0.033904
-0.020572
-0.007731
0.004059
0.014471
0.023399
0.030921
0.037247
0.042673
0.047525
0.052108
0.056611
0.061344
0.066275
0.071194
0.075825
0.079791
0.082585
0.083582
0.082099
0.077541
0.069610
0.058522
0.045156
0.031052
0.018167
0.008415
0.003182
0.003019
0.007433
0.015351
0.025287
0.035637
0.045010
0.052495
0.057813
0.061299
0.063715
0.065955
0.068746
0.072479
0.077181
0.082856
0.089379
0.096637
0.104684
0.113653
0.123681
0.134870
0.147271
0.160902
0.175787
0.192008
0.209773
0.229465
0.251685
0.277257
0.319963
