# vtk DataFile Version 3.0
Vector Field
ASCII
DATASET RECTILINEAR_GRID
DIMENSIONS 100 26 1
X_COORDINATES 100 double
0.050000 0.150000 0.250000 0.350000 0.450000 0.550000 0.650000 0.750000 0.850000 0.950000 1.050000 1.150000 1.250000 1.350000 1.450000 1.550000 1.650000 1.750000 1.850000 1.950000 2.050000 2.150000 2.250000 2.350000 2.450000 2.550000 2.650000 2.750000 2.850000 2.950000 3.050000 3.150000 3.250000 3.350000 3.450000 3.550000 3.650000 3.750000 3.850000 3.950000 4.050000 4.150000 4.250000 4.350000 4.450000 4.550000 4.650000 4.750000 4.850000 4.950000 5.050000 5.150000 5.250000 5.350000 5.450000 5.550000 5.650000 5.750000 5.850000 5.950000 6.050000 6.150000 6.250000 6.350000 6.450000 6.550000 6.650000 6.750000 6.850000 6.950000 7.050000 7.150000 7.250000 7.350000 7.450000 7.550000 7.650000 7.750000 7.850000 7.950000 8.050000 8.150000 8.250000 8.350000 8.450000 8.550000 8.650000 8.750000 8.850000 8.950000 9.050000 9.150000 9.250000 9.350000 9.450000 9.550000 9.650000 9.750000 9.850000 9.950000 
Y_COORDINATES 26 double
0.050000 0.150000 0.250000 0.350000 0.450000 0.550000 0.650000 0.750000 0.850000 0.950000 1.050000 1.150000 1.250000 1.350000 1.450000 1.550000 1.650000 1.750000 1.850000 1.950000 2.050000 2.150000 2.250000 2.350000 2.450000 2.550000 
Z_COORDINATES 1 double
0.0
POINT_DATA 2600
VECTORS Vektorfeld double
1.000735 -0.000735 0.0
1.004163 -0.002692 0.0
1.011702 -0.004846 0.0
1.023644 -0.007095 0.0
1.040102 -0.009363 0.0
1.061011 -0.011547 0.0
1.086064 -0.013506 0.0
1.114639 -0.015070 0.0
1.145783 -0.016074 0.0
1.178270 -0.016412 0.0
1.210770 -0.016088 0.0
1.242069 -0.015212 0.0
1.271217 -0.013936 0.0
1.297553 -0.012400 0.0
1.320645 -0.010692 0.0
1.340179 -0.008842 0.0
1.355848 -0.006827 0.0
1.367278 -0.004604 0.0
1.374026 -0.002144 0.0
1.375638 0.000532 0.0
1.371717 0.003389 0.0
1.362003 0.006326 0.0
1.346467 0.009209 0.0
1.325363 0.011895 0.0
1.299219 0.014249 0.0
1.268811 0.016159 0.0
1.235106 0.017546 0.0
1.199200 0.018360 0.0
1.162266 0.018574 0.0
1.125512 0.018181 0.0
1.090144 0.017186 0.0
1.057353 0.015605 0.0
1.028293 0.013455 0.0
1.004086 0.010753 0.0
0.985837 0.007496 0.0
0.974684 0.003658 0.0
0.971727 -0.000702 0.0
0.977702 -0.005274 0.0
0.992758 -0.009782 0.0
1.016445 -0.013905 0.0
1.047585 -0.017235 0.0
1.084148 -0.019327 0.0
1.123266 -0.019791 0.0
1.161469 -0.018412 0.0
1.195131 -0.015250 0.0
1.221070 -0.010689 0.0
1.237149 -0.005390 0.0
1.242602 -0.000062 0.0
1.237707 0.004957 0.0
1.223299 0.009451 0.0
1.200595 0.013253 0.0
1.171069 0.016272 0.0
1.136315 0.018482 0.0
1.097934 0.019899 0.0
1.057470 0.020565 0.0
1.016382 0.020523 0.0
0.976054 0.019804 0.0
0.937827 0.018423 0.0
0.903025 0.016379 0.0
0.872959 0.013687 0.0
0.848868 0.010404 0.0
0.831792 0.006672 0.0
0.822378 0.002742 0.0
0.820603 -0.000967 0.0
0.825633 -0.004062 0.0
0.836302 -0.006607 0.0
0.851669 -0.008761 0.0
0.871116 -0.010686 0.0
0.894310 -0.012507 0.0
0.921105 -0.014287 0.0
0.951392 -0.016000 0.0
0.984903 -0.017511 0.0
1.020998 -0.018584 0.0
1.058482 -0.018899 0.0
1.095488 -0.018107 0.0
1.129498 -0.015904 0.0
1.157570 -0.012167 0.0
1.176850 -0.007113 0.0
1.185321 -0.001358 0.0
1.182205 0.004474 0.0
1.167615 0.010116 0.0
1.142207 0.015292 0.0
1.107229 0.019686 0.0
1.064582 0.022961 0.0
1.016839 0.024782 0.0
0.967195 0.024862 0.0
0.919262 0.023071 0.0
0.876620 0.019572 0.0
0.842169 0.014879 0.0
0.817535 0.009754 0.0
0.802813 0.004968 0.0
0.796754 0.001092 0.0
0.797152 -0.001490 0.0
0.801444 -0.002802 0.0
0.807459 -0.003212 0.0
0.813737 -0.003065 0.0
0.819398 -0.002596 0.0
0.823904 -0.001911 0.0
0.826822 -0.001007 0.0
0.826426 0.001403 0.0
1.001281 -0.002752 0.0
1.006100 -0.008922 0.0
1.015427 -0.015482 0.0
1.029315 -0.022289 0.0
1.047850 -0.029164 0.0
1.071014 -0.035818 0.0
1.098552 -0.041824 0.0
1.129865 -0.046640 0.0
1.163941 -0.049725 0.0
1.199397 -0.050703 0.0
1.234702 -0.049602 0.0
1.268511 -0.046806 0.0
1.299858 -0.042836 0.0
1.328164 -0.038143 0.0
1.353124 -0.033002 0.0
1.374549 -0.027491 0.0
1.392226 -0.021523 0.0
1.405825 -0.014938 0.0
1.414874 -0.007607 0.0
1.418790 0.000468 0.0
1.417023 0.009141 0.0
1.409224 0.018088 0.0
1.395325 0.026882 0.0
1.375584 0.035068 0.0
1.350574 0.042230 0.0
1.321130 0.048030 0.0
1.288281 0.052229 0.0
1.253183 0.054681 0.0
1.217054 0.055315 0.0
1.181134 0.054114 0.0
1.146653 0.051102 0.0
1.114809 0.046325 0.0
1.086753 0.039850 0.0
1.063573 0.031746 0.0
1.046243 0.022081 0.0
1.035536 0.010933 0.0
1.032015 -0.001498 0.0
1.036307 -0.014745 0.0
1.049120 -0.028179 0.0
1.070750 -0.040824 0.0
1.100665 -0.051372 0.0
1.137304 -0.058392 0.0
1.178085 -0.060626 0.0
1.219607 -0.057302 0.0
1.258035 -0.048450 0.0
1.289696 -0.035089 0.0
1.311729 -0.019102 0.0
1.322550 -0.002624 0.0
1.322041 0.012922 0.0
1.311164 0.026771 0.0
1.291369 0.038432 0.0
1.264334 0.047655 0.0
1.231801 0.054386 0.0
1.195482 0.058696 0.0
1.156996 0.060719 0.0
1.117855 0.060598 0.0
1.079462 0.058449 0.0
1.043113 0.054355 0.0
1.009965 0.048397 0.0
0.980969 0.040731 0.0
0.956749 0.031671 0.0
0.937492 0.021738 0.0
0.922966 0.011617 0.0
0.912844 0.002055 0.0
0.907099 -0.006369 0.0
0.905771 -0.013641 0.0
0.908732 -0.020055 0.0
0.915861 -0.025968 0.0
0.927153 -0.031711 0.0
0.942762 -0.037488 0.0
0.962933 -0.043257 0.0
0.987822 -0.048653 0.0
1.017273 -0.052989 0.0
1.050644 -0.055348 0.0
1.086702 -0.054722 0.0
1.123609 -0.050206 0.0
1.158926 -0.041254 0.0
1.189628 -0.028009 0.0
1.212263 -0.011568 0.0
1.223908 0.006155 0.0
1.223588 0.023345 0.0
1.212008 0.039051 0.0
1.190564 0.052350 0.0
1.161183 0.062325 0.0
1.126218 0.068126 0.0
1.088281 0.069099 0.0
1.050016 0.065032 0.0
1.013825 0.056444 0.0
0.981593 0.044689 0.0
0.954466 0.031705 0.0
0.932743 0.019464 0.0
0.915950 0.009448 0.0
0.903270 0.002435 0.0
0.893869 -0.001619 0.0
0.886781 -0.003322 0.0
0.880951 -0.003402 0.0
0.875526 -0.002495 0.0
0.869994 -0.000987 0.0
0.864092 0.001053 0.0
0.858077 0.005754 0.0
1.001163 -0.005196 0.0
1.005778 -0.015912 0.0
1.015027 -0.027068 0.0
1.029077 -0.038641 0.0
1.048161 -0.050432 0.0
1.072444 -0.061997 0.0
1.101849 -0.072589 0.0
1.135847 -0.081187 0.0
1.173298 -0.086705 0.0
1.212377 -0.088258 0.0
1.250967 -0.085942 0.0
1.287342 -0.080650 0.0
1.320480 -0.073477 0.0
1.349974 -0.065301 0.0
1.375781 -0.056611 0.0
1.397968 -0.047493 0.0
1.416488 -0.037718 0.0
1.431044 -0.026899 0.0
1.441061 -0.014711 0.0
1.445810 -0.001093 0.0
1.444614 0.013665 0.0
1.437003 0.028975 0.0
1.422843 0.044054 0.0
1.402406 0.058074 0.0
1.376346 0.070295 0.0
1.345610 0.080145 0.0
1.311333 0.087239 0.0
1.274747 0.091356 0.0
1.237109 0.092408 0.0
1.199656 0.090394 0.0
1.163580 0.085379 0.0
1.130009 0.077463 0.0
1.099997 0.066779 0.0
1.074516 0.053478 0.0
1.054472 0.037722 0.0
1.040786 0.019684 0.0
1.034500 -0.000440 0.0
1.036718 -0.022314 0.0
1.048313 -0.045019 0.0
1.069540 -0.066842 0.0
1.099798 -0.085528 0.0
1.137638 -0.098716 0.0
1.180852 -0.104297 0.0
1.226439 -0.100739 0.0
1.270557 -0.087559 0.0
1.308780 -0.065864 0.0
1.336956 -0.038537 0.0
1.352527 -0.009580 0.0
1.355327 0.017588 0.0
1.346829 0.041480 0.0
1.328970 0.061376 0.0
1.303749 0.076967 0.0
1.273092 0.088265 0.0
1.238750 0.095478 0.0
1.202272 0.098899 0.0
1.165005 0.098826 0.0
1.128099 0.095519 0.0
1.092520 0.089214 0.0
1.059026 0.080180 0.0
1.028159 0.068811 0.0
1.000262 0.055708 0.0
0.975554 0.041666 0.0
0.954228 0.027542 0.0
0.936453 0.014026 0.0
0.922323 0.001534 0.0
0.911844 -0.009738 0.0
0.904941 -0.020017 0.0
0.901619 -0.029813 0.0
0.902185 -0.039724 0.0
0.907283 -0.050182 0.0
0.917712 -0.061163 0.0
0.934104 -0.072026 0.0
0.956616 -0.081580 0.0
0.984797 -0.088309 0.0
1.017600 -0.090623 0.0
1.053483 -0.087095 0.0
1.090499 -0.076699 0.0
1.126341 -0.059108 0.0
1.158323 -0.035086 0.0
1.183322 -0.006972 0.0
1.198624 0.021489 0.0
1.203403 0.047709 0.0
1.198384 0.070155 0.0
1.184849 0.087435 0.0
1.164442 0.098388 0.0
1.138959 0.102257 0.0
1.110149 0.098948 0.0
1.079581 0.089287 0.0
1.048600 0.075059 0.0
1.018368 0.058694 0.0
0.989877 0.042689 0.0
0.963879 0.029013 0.0
0.940715 0.018714 0.0
0.920232 0.011985 0.0
0.901973 0.008420 0.0
0.885469 0.007191 0.0
0.870439 0.007367 0.0
0.856884 0.008240 0.0
0.845045 0.009567 0.0
0.835668 0.012631 0.0
1.001105 -0.007464 0.0
1.005565 -0.022720 0.0
1.014668 -0.038611 0.0
1.028786 -0.055265 0.0
1.048433 -0.072539 0.0
1.074136 -0.089875 0.0
1.106197 -0.106175 0.0
1.144320 -0.119722 0.0
1.187276 -0.128577 0.0
1.232348 -0.130537 0.0
1.276076 -0.125982 0.0
1.316030 -0.116940 0.0
1.351235 -0.105531 0.0
1.381740 -0.093246 0.0
1.408072 -0.080806 0.0
1.430809 -0.068222 0.0
1.450259 -0.054958 0.0
1.466227 -0.040183 0.0
1.477936 -0.023153 0.0
1.484214 -0.003679 0.0
1.483922 0.017737 0.0
1.476279 0.040156 0.0
1.461020 0.062293 0.0
1.438477 0.082814 0.0
1.409504 0.100586 0.0
1.375307 0.114787 0.0
1.337268 0.124913 0.0
1.296817 0.130719 0.0
1.255348 0.132151 0.0
1.214180 0.129272 0.0
1.174539 0.122218 0.0
1.137561 0.111172 0.0
1.104298 0.096346 0.0
1.075721 0.077970 0.0
1.052747 0.056248 0.0
1.036301 0.031290 0.0
1.027375 0.003166 0.0
1.026908 -0.027671 0.0
1.035451 -0.059800 0.0
1.052921 -0.090756 0.0
1.078699 -0.117649 0.0
1.112000 -0.137737 0.0
1.151990 -0.148479 0.0
1.197371 -0.147525 0.0
1.245677 -0.133198 0.0
1.292756 -0.105527 0.0
1.332981 -0.067276 0.0
1.360655 -0.024086 0.0
1.372710 0.017239 0.0
1.370032 0.053004 0.0
1.355443 0.082300 0.0
1.331822 0.104884 0.0
1.301814 0.121014 0.0
1.267672 0.131213 0.0
1.231218 0.136096 0.0
1.193863 0.136252 0.0
1.156659 0.132201 0.0
1.120362 0.124408 0.0
1.085490 0.113351 0.0
1.052395 0.099601 0.0
1.021346 0.083864 0.0
0.992597 0.066966 0.0
0.966385 0.049780 0.0
0.942832 0.033117 0.0
0.921841 0.017564 0.0
0.903194 0.003359 0.0
0.886841 -0.009859 0.0
0.873255 -0.023063 0.0
0.863544 -0.037331 0.0
0.859216 -0.053344 0.0
0.861671 -0.070886 0.0
0.871698 -0.088722 0.0
0.889248 -0.104947 0.0
0.913560 -0.117435 0.0
0.943419 -0.124159 0.0
0.977365 -0.123389 0.0
1.013802 -0.113858 0.0
1.051004 -0.094993 0.0
1.087064 -0.067243 0.0
1.119744 -0.032493 0.0
1.146101 0.005351 0.0
1.163798 0.041371 0.0
1.172378 0.072932 0.0
1.172387 0.098184 0.0
1.164725 0.115708 0.0
1.150464 0.124680 0.0
1.130715 0.125083 0.0
1.106572 0.117863 0.0
1.079152 0.104884 0.0
1.049638 0.088615 0.0
1.019252 0.071646 0.0
0.989110 0.056197 0.0
0.960046 0.043758 0.0
0.932545 0.034926 0.0
0.906846 0.029437 0.0
0.883142 0.026382 0.0
0.861737 0.024611 0.0
0.843079 0.023208 0.0
0.827692 0.021826 0.0
0.816295 0.021146 0.0
1.001025 -0.009594 0.0
1.005205 -0.029230 0.0
1.013875 -0.049875 0.0
1.027666 -0.071910 0.0
1.047505 -0.095379 0.0
1.074512 -0.119745 0.0
1.109732 -0.143585 0.0
1.153480 -0.164182 0.0
1.204883 -0.178476 0.0
1.259263 -0.180090 0.0
1.309927 -0.170821 0.0
1.353399 -0.155526 0.0
1.389353 -0.138104 0.0
1.418983 -0.120806 0.0
1.443918 -0.104513 0.0
1.465667 -0.089002 0.0
1.485225 -0.073187 0.0
1.502734 -0.055431 0.0
1.517204 -0.034084 0.0
1.526604 -0.008426 0.0
1.528736 0.020644 0.0
1.522105 0.051523 0.0
1.506170 0.082120 0.0
1.481353 0.110346 0.0
1.448831 0.134550 0.0
1.410205 0.153648 0.0
1.367227 0.167069 0.0
1.321618 0.174622 0.0
1.274979 0.176355 0.0
1.228766 0.172450 0.0
1.184295 0.163153 0.0
1.142769 0.148741 0.0
1.105291 0.129518 0.0
1.072853 0.105813 0.0
1.046282 0.077950 0.0
1.026157 0.046159 0.0
1.012757 0.010623 0.0
1.006128 -0.028032 0.0
1.006071 -0.067926 0.0
1.012173 -0.106201 0.0
1.024340 -0.140149 0.0
1.043414 -0.167611 0.0
1.070934 -0.186115 0.0
1.108018 -0.192353 0.0
1.154177 -0.182834 0.0
1.206614 -0.155406 0.0
1.259956 -0.110965 0.0
1.306598 -0.054713 0.0
1.338526 0.003884 0.0
1.352336 0.055227 0.0
1.350123 0.096879 0.0
1.335374 0.128676 0.0
1.311392 0.151213 0.0
1.281080 0.165469 0.0
1.246828 0.172546 0.0
1.210490 0.173496 0.0
1.173409 0.169241 0.0
1.136501 0.160574 0.0
1.100349 0.148210 0.0
1.065323 0.132863 0.0
1.031680 0.115295 0.0
0.999596 0.096368 0.0
0.969115 0.077072 0.0
0.940071 0.058423 0.0
0.912159 0.041161 0.0
0.885266 0.025304 0.0
0.859933 0.009882 0.0
0.837554 -0.006838 0.0
0.820229 -0.026520 0.0
0.810124 -0.049721 0.0
0.808581 -0.075422 0.0
0.815742 -0.101373 0.0
0.830809 -0.124913 0.0
0.852553 -0.143524 0.0
0.879668 -0.155042 0.0
0.910909 -0.157694 0.0
0.945089 -0.150169 0.0
0.981005 -0.131801 0.0
1.017355 -0.102846 0.0
1.052607 -0.064822 0.0
1.084776 -0.020844 0.0
1.111087 0.023558 0.0
1.129629 0.063624 0.0
1.140144 0.096969 0.0
1.142847 0.121882 0.0
1.138209 0.137405 0.0
1.126850 0.143467 0.0
1.109521 0.140952 0.0
1.087124 0.131612 0.0
1.060730 0.117794 0.0
1.031525 0.102057 0.0
1.000697 0.086757 0.0
0.969316 0.073643 0.0
0.938301 0.063557 0.0
0.908466 0.056340 0.0
0.880604 0.051044 0.0
0.855525 0.046433 0.0
0.834010 0.041559 0.0
0.816692 0.036179 0.0
0.804145 0.030736 0.0
1.000879 -0.011498 0.0
1.004496 -0.035122 0.0
1.012154 -0.060312 0.0
1.024752 -0.087863 0.0
1.043733 -0.118245 0.0
1.071090 -0.151245 0.0
1.109184 -0.185399 0.0
1.159766 -0.216699 0.0
1.224091 -0.241687 0.0
1.292407 -0.239576 0.0
1.350021 -0.219612 0.0
1.393359 -0.193545 0.0
1.424897 -0.167578 0.0
1.448254 -0.144319 0.0
1.466780 -0.124462 0.0
1.483306 -0.107327 0.0
1.499944 -0.091058 0.0
1.517701 -0.072825 0.0
1.535830 -0.049288 0.0
1.551194 -0.017986 0.0
1.559253 0.020014 0.0
1.556689 0.061348 0.0
1.542410 0.102510 0.0
1.516975 0.140208 0.0
1.482061 0.172125 0.0
1.439815 0.196944 0.0
1.392444 0.214122 0.0
1.341996 0.223627 0.0
1.290289 0.225696 0.0
1.238923 0.220688 0.0
1.189321 0.208987 0.0
1.142782 0.190972 0.0
1.100503 0.167043 0.0
1.063532 0.137697 0.0
1.032540 0.103629 0.0
1.007408 0.065737 0.0
0.986906 0.024948 0.0
0.969080 -0.017902 0.0
0.952679 -0.061599 0.0
0.938020 -0.103971 0.0
0.927386 -0.143912 0.0
0.925077 -0.180612 0.0
0.935541 -0.211099 0.0
0.961177 -0.230088 0.0
1.001667 -0.231748 0.0
1.054436 -0.211698 0.0
1.115073 -0.168652 0.0
1.177219 -0.105814 0.0
1.232250 -0.031974 0.0
1.271123 0.038402 0.0
1.290928 0.096111 0.0
1.294558 0.140562 0.0
1.285320 0.172545 0.0
1.266340 0.193428 0.0
1.240377 0.204801 0.0
1.209731 0.208226 0.0
1.176212 0.205111 0.0
1.141158 0.196665 0.0
1.105506 0.183923 0.0
1.069876 0.167807 0.0
1.034638 0.149232 0.0
0.999911 0.129242 0.0
0.965512 0.109078 0.0
0.931023 0.089949 0.0
0.896170 0.072401 0.0
0.861482 0.055645 0.0
0.828790 0.037565 0.0
0.800953 0.015695 0.0
0.780675 -0.011450 0.0
0.769507 -0.043517 0.0
0.767629 -0.078206 0.0
0.774145 -0.112267 0.0
0.787695 -0.142637 0.0
0.806957 -0.166806 0.0
0.830840 -0.182758 0.0
0.858471 -0.188851 0.0
0.889105 -0.183824 0.0
0.922002 -0.166959 0.0
0.956324 -0.138361 0.0
0.991032 -0.099268 0.0
1.024767 -0.052303 0.0
1.055404 -0.001932 0.0
1.080439 0.045538 0.0
1.098450 0.086528 0.0
1.109089 0.118980 0.0
1.112325 0.141710 0.0
1.108371 0.154474 0.0
1.097664 0.157981 0.0
1.080867 0.153778 0.0
1.058858 0.144031 0.0
1.032685 0.131197 0.0
1.003492 0.117638 0.0
0.972455 0.105179 0.0
0.940758 0.094732 0.0
0.909595 0.086162 0.0
0.880161 0.078518 0.0
0.853589 0.070609 0.0
0.830848 0.061641 0.0
0.812625 0.051639 0.0
0.799458 0.040991 0.0
1.000629 -0.013006 0.0
1.003250 -0.039853 0.0
1.008975 -0.068964 0.0
1.018903 -0.101737 0.0
1.034963 -0.139412 0.0
1.060216 -0.182689 0.0
1.099090 -0.230923 0.0
1.156393 -0.279059 0.0
1.240658 -0.327917 0.0
1.327769 -0.308774 0.0
1.385127 -0.265386 0.0
1.416492 -0.222474 0.0
1.432159 -0.185854 0.0
1.439225 -0.156466 0.0
1.442549 -0.134165 0.0
1.446066 -0.117665 0.0
1.453109 -0.104401 0.0
1.466266 -0.090398 0.0
1.486503 -0.070082 0.0
1.511132 -0.037185 0.0
1.531888 0.010398 0.0
1.540450 0.064966 0.0
1.534028 0.119594 0.0
1.513468 0.169117 0.0
1.481153 0.210445 0.0
1.439870 0.242153 0.0
1.392246 0.263909 0.0
1.340563 0.275972 0.0
1.286770 0.278851 0.0
1.232550 0.273118 0.0
1.179408 0.259300 0.0
1.128744 0.237863 0.0
1.081897 0.209278 0.0
1.040060 0.174271 0.0
1.003802 0.134305 0.0
0.972094 0.091901 0.0
0.941543 0.049837 0.0
0.907302 0.009276 0.0
0.866560 -0.031634 0.0
0.823447 -0.076165 0.0
0.788063 -0.125700 0.0
0.769720 -0.178172 0.0
0.772299 -0.226583 0.0
0.794522 -0.262464 0.0
0.833121 -0.278461 0.0
0.884747 -0.269380 0.0
0.946118 -0.232977 0.0
1.013406 -0.170924 0.0
1.081322 -0.089811 0.0
1.141261 -0.002573 0.0
1.184960 0.073582 0.0
1.210814 0.133609 0.0
1.221343 0.178207 0.0
1.219205 0.208885 0.0
1.206985 0.227527 0.0
1.187050 0.236080 0.0
1.161453 0.236374 0.0
1.131876 0.230032 0.0
1.099626 0.218458 0.0
1.065641 0.202888 0.0
1.030479 0.184550 0.0
0.994281 0.164848 0.0
0.956803 0.145348 0.0
0.917753 0.127218 0.0
0.877493 0.110245 0.0
0.837743 0.092239 0.0
0.801581 0.069824 0.0
0.772440 0.040413 0.0
0.752706 0.003844 0.0
0.742836 -0.037773 0.0
0.741765 -0.081001 0.0
0.747926 -0.122149 0.0
0.759845 -0.158224 0.0
0.776361 -0.186997 0.0
0.796652 -0.206740 0.0
0.820168 -0.216017 0.0
0.846524 -0.213648 0.0
0.875369 -0.198876 0.0
0.906255 -0.171651 0.0
0.938524 -0.132955 0.0
0.971219 -0.085045 0.0
1.002946 -0.031554 0.0
1.031321 0.021752 0.0
1.054157 0.069468 0.0
1.070505 0.109053 0.0
1.079896 0.139010 0.0
1.082185 0.158838 0.0
1.077515 0.168994 0.0
1.066297 0.170781 0.0
1.049190 0.166145 0.0
1.027067 0.157379 0.0
1.000978 0.146738 0.0
0.972117 0.135977 0.0
0.941796 0.125952 0.0
0.911407 0.116495 0.0
0.882342 0.106685 0.0
0.855883 0.095472 0.0
0.833084 0.082318 0.0
0.814683 0.067585 0.0
0.801294 0.051601 0.0
1.000249 -0.013884 0.0
1.001333 -0.042681 0.0
1.003927 -0.074456 0.0
1.009094 -0.111339 0.0
1.018933 -0.155709 0.0
1.037335 -0.210047 0.0
1.071246 -0.276351 0.0
1.131129 -0.350817 0.0
1.244103 -0.453399 0.0
1.348618 -0.374918 0.0
1.380378 -0.288360 0.0
1.375848 -0.226335 0.0
1.358984 -0.180796 0.0
1.337627 -0.147232 0.0
1.315542 -0.124639 0.0
1.296299 -0.111464 0.0
1.283683 -0.105029 0.0
1.282139 -0.101383 0.0
1.296348 -0.093543 0.0
1.328334 -0.070339 0.0
1.370942 -0.019813 0.0
1.405888 0.051670 0.0
1.421386 0.123813 0.0
1.418606 0.188238 0.0
1.401013 0.241232 0.0
1.372008 0.281654 0.0
1.334402 0.309639 0.0
1.290474 0.325852 0.0
1.242141 0.331098 0.0
1.191089 0.326142 0.0
1.138872 0.311635 0.0
1.086973 0.288091 0.0
1.036889 0.255980 0.0
0.990046 0.216250 0.0
0.946787 0.171844 0.0
0.903865 0.128990 0.0
0.853584 0.093580 0.0
0.790350 0.063008 0.0
0.720258 0.025469 0.0
0.660000 -0.029898 0.0
0.624970 -0.101553 0.0
0.617874 -0.176880 0.0
0.631493 -0.244073 0.0
0.659076 -0.294779 0.0
0.697289 -0.322957 0.0
0.744895 -0.324115 0.0
0.801081 -0.295799 0.0
0.864441 -0.238750 0.0
0.932411 -0.157870 0.0
1.000601 -0.062644 0.0
1.060314 0.030241 0.0
1.104749 0.106661 0.0
1.133743 0.165631 0.0
1.148887 0.208456 0.0
1.152052 0.237013 0.0
1.145198 0.253383 0.0
1.130228 0.259638 0.0
1.108868 0.257705 0.0
1.082581 0.249323 0.0
1.052485 0.236104 0.0
1.019275 0.219707 0.0
0.983184 0.201981 0.0
0.944195 0.184682 0.0
0.902629 0.168500 0.0
0.859926 0.151926 0.0
0.818967 0.131267 0.0
0.783383 0.102543 0.0
0.756152 0.064066 0.0
0.738567 0.017511 0.0
0.730193 -0.033197 0.0
0.729578 -0.083890 0.0
0.735078 -0.130921 0.0
0.745307 -0.171600 0.0
0.759215 -0.204045 0.0
0.776092 -0.226860 0.0
0.795552 -0.238872 0.0
0.817452 -0.239049 0.0
0.841758 -0.226627 0.0
0.868377 -0.201405 0.0
0.897006 -0.164100 0.0
0.927020 -0.116610 0.0
0.957404 -0.062100 0.0
0.986473 -0.005146 0.0
1.011924 0.048078 0.0
1.032019 0.093999 0.0
1.045943 0.130749 0.0
1.053245 0.157508 0.0
1.053796 0.174442 0.0
1.047763 0.182583 0.0
1.035588 0.183626 0.0
1.017961 0.179647 0.0
0.995813 0.172707 0.0
0.970290 0.164391 0.0
0.942725 0.155425 0.0
0.914556 0.145581 0.0
0.887218 0.134001 0.0
0.862013 0.119820 0.0
0.840010 0.102772 0.0
0.822004 0.083539 0.0
0.808747 0.062295 0.0
0.999748 -0.013881 0.0
0.998769 -0.042788 0.0
0.997007 -0.075181 0.0
0.995068 -0.113842 0.0
0.994427 -0.162404 0.0
0.998544 -0.225871 0.0
1.015485 -0.311379 0.0
1.062894 -0.423080 0.0
1.202984 -0.634199 0.0
1.298562 -0.394210 0.0
1.249861 -0.252127 0.0
1.178662 -0.186839 0.0
1.117707 -0.142474 0.0
1.062647 -0.109136 0.0
1.010641 -0.088645 0.0
0.963119 -0.080693 0.0
0.923668 -0.083735 0.0
0.899615 -0.097080 0.0
0.901691 -0.114130 0.0
0.937471 -0.117517 0.0
1.005126 -0.082900 0.0
1.084819 0.000118 0.0
1.147747 0.096938 0.0
1.184733 0.180908 0.0
1.201846 0.249042 0.0
1.203248 0.301446 0.0
1.191671 0.339029 0.0
1.169200 0.362861 0.0
1.137670 0.373952 0.0
1.098815 0.373195 0.0
1.054260 0.361355 0.0
1.005399 0.339132 0.0
0.952811 0.307611 0.0
0.894611 0.269661 0.0
0.824969 0.231334 0.0
0.738460 0.198930 0.0
0.641535 0.170846 0.0
0.556087 0.134423 0.0
0.504259 0.075974 0.0
0.490711 -0.006597 0.0
0.502191 -0.101304 0.0
0.523940 -0.191782 0.0
0.549704 -0.268555 0.0
0.578450 -0.326628 0.0
0.611258 -0.362130 0.0
0.649953 -0.371243 0.0
0.696084 -0.350989 0.0
0.750096 -0.300932 0.0
0.810984 -0.224546 0.0
0.876266 -0.129441 0.0
0.941043 -0.027453 0.0
0.997172 0.063792 0.0
1.039735 0.136943 0.0
1.069006 0.192728 0.0
1.085883 0.232699 0.0
1.091635 0.258799 0.0
1.087716 0.273111 0.0
1.075605 0.277702 0.0
1.056660 0.274558 0.0
1.031977 0.265648 0.0
1.002280 0.253072 0.0
0.967965 0.239021 0.0
0.929484 0.225111 0.0
0.888027 0.211094 0.0
0.846073 0.193990 0.0
0.807142 0.169092 0.0
0.774648 0.132797 0.0
0.750657 0.085033 0.0
0.735530 0.029256 0.0
0.728446 -0.029485 0.0
0.728076 -0.086617 0.0
0.733004 -0.138622 0.0
0.741942 -0.183067 0.0
0.753833 -0.218377 0.0
0.767926 -0.243499 0.0
0.783840 -0.257606 0.0
0.801548 -0.259922 0.0
0.821257 -0.249769 0.0
0.843208 -0.226833 0.0
0.867458 -0.191551 0.0
0.893731 -0.145446 0.0
0.921336 -0.091253 0.0
0.949108 -0.032834 0.0
0.975031 0.024393 0.0
0.997058 0.075562 0.0
1.013979 0.118342 0.0
1.025048 0.151546 0.0
1.029882 0.175019 0.0
1.028420 0.189500 0.0
1.020896 0.196410 0.0
1.007825 0.197562 0.0
0.990001 0.194765 0.0
0.968481 0.189376 0.0
0.944529 0.181957 0.0
0.919526 0.172221 0.0
0.894836 0.159388 0.0
0.871695 0.142779 0.0
0.851145 0.122366 0.0
0.834026 0.099070 0.0
0.821239 0.072807 0.0
0.999181 -0.012810 0.0
0.995845 -0.039544 0.0
0.988969 -0.069787 0.0
0.978218 -0.106544 0.0
0.963296 -0.154138 0.0
0.944581 -0.219539 0.0
0.925339 -0.315411 0.0
0.920085 -0.461204 0.0
1.013020 -0.829101 0.0
1.009604 -0.192010 0.0
0.820907 -0.106808 0.0
0.675663 -0.105054 0.0
0.591176 -0.078819 0.0
0.520963 -0.047517 0.0
0.450891 -0.028185 0.0
0.390983 -0.033723 0.0
0.358937 -0.059208 0.0
0.362542 -0.101159 0.0
0.401247 -0.150832 0.0
0.470517 -0.185864 0.0
0.563798 -0.175489 0.0
0.674506 -0.097692 0.0
0.781770 0.024556 0.0
0.863854 0.134220 0.0
0.921477 0.220994 0.0
0.960411 0.289158 0.0
0.982512 0.340791 0.0
0.988962 0.377122 0.0
0.981073 0.399111 0.0
0.960301 0.407664 0.0
0.927967 0.403775 0.0
0.884602 0.388939 0.0
0.828745 0.366250 0.0
0.756692 0.341274 0.0
0.667286 0.318769 0.0
0.570800 0.294491 0.0
0.489272 0.253739 0.0
0.441810 0.184441 0.0
0.430954 0.088640 0.0
0.445230 -0.019991 0.0
0.470669 -0.124829 0.0
0.498351 -0.217688 0.0
0.524709 -0.294769 0.0
0.549269 -0.353720 0.0
0.573581 -0.392156 0.0
0.600550 -0.406880 0.0
0.633444 -0.394377 0.0
0.674570 -0.352682 0.0
0.724356 -0.283471 0.0
0.781331 -0.192772 0.0
0.842507 -0.090074 0.0
0.901722 0.011069 0.0
0.952114 0.096711 0.0
0.990955 0.164849 0.0
1.018188 0.216468 0.0
1.034319 0.253148 0.0
1.040215 0.276786 0.0
1.036927 0.289426 0.0
1.025516 0.293190 0.0
1.006887 0.290327 0.0
0.981718 0.283260 0.0
0.950612 0.274253 0.0
0.914586 0.264386 0.0
0.875653 0.252209 0.0
0.836964 0.233518 0.0
0.802087 0.203372 0.0
0.773799 0.159301 0.0
0.753340 0.102980 0.0
0.740603 0.039173 0.0
0.734799 -0.026515 0.0
0.734886 -0.089303 0.0
0.739683 -0.145660 0.0
0.747971 -0.193255 0.0
0.758619 -0.230728 0.0
0.770748 -0.257370 0.0
0.783868 -0.272770 0.0
0.797944 -0.276542 0.0
0.813324 -0.268238 0.0
0.830535 -0.247525 0.0
0.850008 -0.214581 0.0
0.871841 -0.170521 0.0
0.895674 -0.117617 0.0
0.920676 -0.059244 0.0
0.945372 0.000184 0.0
0.967789 0.055327 0.0
0.986302 0.103143 0.0
0.999930 0.142048 0.0
1.008069 0.171544 0.0
1.010449 0.192057 0.0
1.007113 0.204713 0.0
0.998411 0.211031 0.0
0.984993 0.212536 0.0
0.967790 0.210330 0.0
0.947942 0.204803 0.0
0.926696 0.195624 0.0
0.905278 0.182093 0.0
0.884800 0.163693 0.0
0.866237 0.140565 0.0
0.850455 0.113772 0.0
0.838476 0.082869 0.0
0.998655 -0.010646 0.0
0.993121 -0.032838 0.0
0.981408 -0.057904 0.0
0.962062 -0.088330 0.0
0.932373 -0.127741 0.0
0.887347 -0.182194 0.0
0.817118 -0.263286 0.0
0.703291 -0.394248 0.0
0.316267 -0.701428 0.0
-0.458042 0.243332 0.0
-0.458042 0.000000 0.0
-0.039194 -0.027979 0.0
-0.082619 -0.039197 0.0
-0.073802 -0.025742 0.0
-0.032853 -0.020837 0.0
0.016837 -0.030855 0.0
0.049643 -0.062836 0.0
0.070615 -0.122107 0.0
0.098190 -0.196163 0.0
0.146018 -0.257631 0.0
0.220014 -0.271000 0.0
0.318790 -0.211666 0.0
0.434662 -0.084607 0.0
0.544110 0.051851 0.0
0.631444 0.158405 0.0
0.700323 0.243935 0.0
0.751413 0.312823 0.0
0.784166 0.365887 0.0
0.798747 0.403652 0.0
0.795688 0.426954 0.0
0.775212 0.437295 0.0
0.736481 0.437514 0.0
0.677912 0.432100 0.0
0.601086 0.424302 0.0
0.517179 0.409054 0.0
0.446716 0.371154 0.0
0.407265 0.298053 0.0
0.401762 0.193093 0.0
0.420856 0.071750 0.0
0.451973 -0.048493 0.0
0.485570 -0.155364 0.0
0.516609 -0.245874 0.0
0.542736 -0.319068 0.0
0.563348 -0.374595 0.0
0.579625 -0.411869 0.0
0.594603 -0.429115 0.0
0.612678 -0.423112 0.0
0.638164 -0.390560 0.0
0.673533 -0.330748 0.0
0.718567 -0.247504 0.0
0.770838 -0.148790 0.0
0.826366 -0.044958 0.0
0.878575 0.050138 0.0
0.922220 0.128936 0.0
0.955976 0.191391 0.0
0.979546 0.238523 0.0
0.993173 0.271889 0.0
0.997400 0.293384 0.0
0.992884 0.305158 0.0
0.980254 0.309617 0.0
0.960110 0.309284 0.0
0.933285 0.306160 0.0
0.901322 0.300468 0.0
0.866817 0.289564 0.0
0.833135 0.268533 0.0
0.803456 0.232913 0.0
0.779822 0.181682 0.0
0.762919 0.117959 0.0
0.752554 0.047296 0.0
0.748179 -0.024458 0.0
0.749045 -0.092313 0.0
0.754154 -0.152558 0.0
0.762326 -0.202817 0.0
0.772363 -0.241851 0.0
0.783241 -0.269254 0.0
0.794308 -0.285072 0.0
0.805414 -0.289422 0.0
0.816925 -0.282250 0.0
0.829562 -0.263362 0.0
0.844104 -0.232759 0.0
0.861062 -0.191133 0.0
0.880462 -0.140238 0.0
0.901783 -0.082947 0.0
0.923987 -0.023015 0.0
0.945381 0.034716 0.0
0.964208 0.086413 0.0
0.979271 0.130087 0.0
0.989760 0.164877 0.0
0.995221 0.190883 0.0
0.995527 0.208917 0.0
0.990870 0.220187 0.0
0.981752 0.225915 0.0
0.968954 0.226952 0.0
0.953456 0.223526 0.0
0.936328 0.215275 0.0
0.918611 0.201576 0.0
0.901263 0.182036 0.0
0.885160 0.156888 0.0
0.871150 0.127243 0.0
0.860325 0.092203 0.0
0.998288 -0.007589 0.0
0.991234 -0.023306 0.0
0.976216 -0.040705 0.0
0.951123 -0.061090 0.0
0.911895 -0.086064 0.0
0.850699 -0.117649 0.0
0.751171 -0.158074 0.0
0.574848 -0.209310 0.0
0.230334 -0.251044 0.0
0.000000 0.243332 0.0
-0.000000 -0.000000 0.0
0.000000 0.000000 0.0
-0.018193 -0.017483 0.0
-0.043778 -0.031398 0.0
-0.055034 -0.044875 0.0
-0.071053 -0.040489 0.0
-0.099170 -0.057891 0.0
-0.126250 -0.120944 0.0
-0.136717 -0.214434 0.0
-0.122016 -0.301890 0.0
-0.076917 -0.345835 0.0
0.006677 -0.319201 0.0
0.123872 -0.210139 0.0
0.253430 -0.061622 0.0
0.368427 0.069546 0.0
0.459147 0.173195 0.0
0.530803 0.260818 0.0
0.582749 0.333195 0.0
0.614170 0.390342 0.0
0.624419 0.433074 0.0
0.612711 0.463357 0.0
0.578694 0.484201 0.0
0.525273 0.497404 0.0
0.463007 0.498091 0.0
0.410110 0.472071 0.0
0.383121 0.405590 0.0
0.386352 0.299836 0.0
0.412580 0.170587 0.0
0.451430 0.036311 0.0
0.493473 -0.086213 0.0
0.532565 -0.190332 0.0
0.566035 -0.275414 0.0
0.592201 -0.341820 0.0
0.610286 -0.390541 0.0
0.620753 -0.422667 0.0
0.625851 -0.438393 0.0
0.629914 -0.435972 0.0
0.638591 -0.411864 0.0
0.656795 -0.363017 0.0
0.686590 -0.290065 0.0
0.726695 -0.198605 0.0
0.773643 -0.097619 0.0
0.822205 0.002028 0.0
0.866552 0.089053 0.0
0.903285 0.160785 0.0
0.931362 0.217480 0.0
0.950425 0.260242 0.0
0.960502 0.290727 0.0
0.961823 0.311010 0.0
0.954730 0.323489 0.0
0.939766 0.330520 0.0
0.917989 0.333525 0.0
0.891341 0.331714 0.0
0.862674 0.321491 0.0
0.835161 0.297802 0.0
0.811357 0.257127 0.0
0.792642 0.199817 0.0
0.779406 0.129963 0.0
0.771567 0.053497 0.0
0.768866 -0.023583 0.0
0.770787 -0.095975 0.0
0.776457 -0.159674 0.0
0.784746 -0.212161 0.0
0.794441 -0.252238 0.0
0.804434 -0.279739 0.0
0.813926 -0.295145 0.0
0.822601 -0.299130 0.0
0.830730 -0.292182 0.0
0.839095 -0.274433 0.0
0.848734 -0.245868 0.0
0.860561 -0.206809 0.0
0.875043 -0.158443 0.0
0.892039 -0.103059 0.0
0.910833 -0.043901 0.0
0.930089 0.014951 0.0
0.948160 0.069279 0.0
0.963663 0.116655 0.0
0.975631 0.155852 0.0
0.983449 0.186629 0.0
0.986839 0.209475 0.0
0.985844 0.225280 0.0
0.980819 0.234965 0.0
0.972381 0.239139 0.0
0.961326 0.237891 0.0
0.948525 0.230840 0.0
0.934820 0.217432 0.0
0.920992 0.197357 0.0
0.907789 0.170874 0.0
0.895991 0.139064 0.0
0.886688 0.100509 0.0
0.998157 -0.004035 0.0
0.990579 -0.012228 0.0
0.974532 -0.020717 0.0
0.948024 -0.029476 0.0
0.907522 -0.037949 0.0
0.847224 -0.044270 0.0
0.758508 -0.043208 0.0
0.630728 -0.020074 0.0
0.471413 0.066792 0.0
0.193577 0.175140 0.0
0.000000 0.000000 0.0
-0.000000 -0.000000 0.0
0.000000 0.000000 0.0
-0.013917 -0.012003 0.0
-0.052555 -0.016288 0.0
-0.118517 0.012904 0.0
-0.194781 -0.006903 0.0
-0.250648 -0.088985 0.0
-0.275220 -0.211355 0.0
-0.270861 -0.324029 0.0
-0.245203 -0.394452 0.0
-0.196731 -0.402649 0.0
-0.108274 -0.332344 0.0
0.019091 -0.196339 0.0
0.148252 -0.039894 0.0
0.253940 0.086227 0.0
0.337158 0.192912 0.0
0.400665 0.285648 0.0
0.442921 0.364212 0.0
0.462702 0.429174 0.0
0.459895 0.481772 0.0
0.437442 0.522256 0.0
0.404150 0.546062 0.0
0.374967 0.540880 0.0
0.364758 0.492387 0.0
0.379393 0.397628 0.0
0.414420 0.269540 0.0
0.461607 0.127470 0.0
0.512920 -0.010735 0.0
0.561529 -0.129820 0.0
0.603720 -0.228009 0.0
0.638021 -0.305509 0.0
0.663435 -0.363306 0.0
0.679409 -0.403115 0.0
0.685989 -0.427139 0.0
0.684328 -0.437358 0.0
0.677509 -0.434251 0.0
0.670914 -0.415667 0.0
0.671050 -0.377553 0.0
0.682882 -0.317155 0.0
0.707617 -0.236354 0.0
0.742774 -0.141975 0.0
0.783865 -0.043269 0.0
0.825089 0.048778 0.0
0.861745 0.127670 0.0
0.891763 0.192500 0.0
0.914146 0.243777 0.0
0.928427 0.282834 0.0
0.934444 0.311565 0.0
0.932305 0.332166 0.0
0.922545 0.346567 0.0
0.906416 0.355385 0.0
0.886065 0.356853 0.0
0.864282 0.346802 0.0
0.843757 0.320530 0.0
0.826341 0.275619 0.0
0.812884 0.213497 0.0
0.803631 0.138772 0.0
0.798653 0.057504 0.0
0.797913 -0.024149 0.0
0.801046 -0.100463 0.0
0.807277 -0.167087 0.0
0.815564 -0.221324 0.0