# vtk DataFile Version 3.0
Vector Field
ASCII
DATASET RECTILINEAR_GRID
DIMENSIONS 100 26 1
X_COORDINATES 100 double
0.050000 0.150000 0.250000 0.350000 0.450000 0.550000 0.650000 0.750000 0.850000 0.950000 1.050000 1.150000 1.250000 1.350000 1.450000 1.550000 1.650000 1.750000 1.850000 1.950000 2.050000 2.150000 2.250000 2.350000 2.450000 2.550000 2.650000 2.750000 2.850000 2.950000 3.050000 3.150000 3.250000 3.350000 3.450000 3.550000 3.650000 3.750000 3.850000 3.950000 4.050000 4.150000 4.250000 4.350000 4.450000 4.550000 4.650000 4.750000 4.850000 4.950000 5.050000 5.150000 5.250000 5.350000 5.450000 5.550000 5.650000 5.750000 5.850000 5.950000 6.050000 6.150000 6.250000 6.350000 6.450000 6.550000 6.650000 6.750000 6.850000 6.950000 7.050000 7.150000 7.250000 7.350000 7.450000 7.550000 7.650000 7.750000 7.850000 7.950000 8.050000 8.150000 8.250000 8.350000 8.450000 8.550000 8.650000 8.750000 8.850000 8.950000 9.050000 9.150000 9.250000 9.350000 9.450000 9.550000 9.650000 9.750000 9.850000 9.950000 
Y_COORDINATES 26 double
0.050000 0.150000 0.250000 0.350000 0.450000 0.550000 0.650000 0.750000 0.850000 0.950000 1.050000 1.150000 1.250000 1.350000 1.450000 1.550000 1.650000 1.750000 1.850000 1.950000 2.050000 2.150000 2.250000 2.350000 2.450000 2.550000 
Z_COORDINATES 1 double
0.0
POINT_DATA 2600
VECTORS Vektorfeld double
1.000744 -0.000744 0.0
1.004180 -0.002692 0.0
1.011680 -0.004808 0.0
1.023473 -0.006985 0.0
1.039604 -0.009146 0.0
1.059940 -0.011189 0.0
1.084105 -0.012976 0.0
1.111423 -0.014343 0.0
1.140904 -0.015138 0.0
1.171316 -0.015274 0.0
1.201372 -0.014782 0.0
1.229956 -0.013803 0.0
1.256287 -0.012528 0.0
1.279955 -0.011140 0.0
1.300868 -0.009772 0.0
1.319131 -0.008491 0.0
1.334912 -0.007291 0.0
1.348308 -0.006105 0.0
1.359231 -0.004818 0.0
1.367353 -0.003304 0.0
1.372126 -0.001469 0.0
1.372884 0.000712 0.0
1.368946 0.003226 0.0
1.359757 0.005963 0.0
1.345022 0.008773 0.0
1.324761 0.011488 0.0
1.299320 0.013953 0.0
1.269323 0.016043 0.0
1.235612 0.017668 0.0
1.199175 0.018769 0.0
1.161088 0.019319 0.0
1.122464 0.019305 0.0
1.084431 0.018729 0.0
1.048104 0.017598 0.0
1.014584 0.015921 0.0
0.984961 0.013702 0.0
0.960327 0.010932 0.0
0.941826 0.007570 0.0
0.930694 0.003562 0.0
0.928141 -0.001008 0.0
0.934952 -0.005803 0.0
0.951353 -0.010597 0.0
0.977083 -0.015133 0.0
1.011286 -0.019071 0.0
1.052364 -0.022008 0.0
1.097903 -0.023531 0.0
1.144722 -0.023288 0.0
1.189097 -0.021087 0.0
1.227193 -0.017009 0.0
1.255694 -0.011493 0.0
1.272497 -0.005310 0.0
1.277070 0.000737 0.0
1.270012 0.006321 0.0
1.252469 0.011222 0.0
1.225974 0.015274 0.0
1.192319 0.018380 0.0
1.153424 0.020515 0.0
1.111210 0.021700 0.0
1.067522 0.021988 0.0
1.024098 0.021436 0.0
0.982566 0.020095 0.0
0.944471 0.018000 0.0
0.911287 0.015184 0.0
0.884391 0.011711 0.0
0.864976 0.007705 0.0
0.853870 0.003402 0.0
0.851227 -0.000759 0.0
0.856266 -0.004279 0.0
0.867698 -0.007153 0.0
0.884342 -0.009492 0.0
0.905243 -0.011409 0.0
0.929639 -0.012987 0.0
0.956890 -0.014264 0.0
0.986378 -0.015224 0.0
1.017376 -0.015775 0.0
1.048901 -0.015751 0.0
1.079587 -0.014934 0.0
1.107637 -0.013116 0.0
1.130954 -0.010201 0.0
1.147493 -0.006337 0.0
1.155786 -0.001957 0.0
1.155262 0.002481 0.0
1.146009 0.006772 0.0
1.128497 0.010740 0.0
1.103564 0.014194 0.0
1.072409 0.016961 0.0
1.036557 0.018892 0.0
0.997789 0.019876 0.0
0.958059 0.019854 0.0
0.919360 0.018845 0.0
0.883558 0.016957 0.0
0.852205 0.014396 0.0
0.826380 0.011429 0.0
0.806602 0.008349 0.0
0.792836 0.005417 0.0
0.784578 0.002841 0.0
0.780930 0.000807 0.0
0.780560 -0.000437 0.0
0.781748 -0.000752 0.0
0.782066 0.000434 0.0
1.001291 -0.002779 0.0
1.006123 -0.008926 0.0
1.015421 -0.015372 0.0
1.029174 -0.021966 0.0
1.047400 -0.028523 0.0
1.070009 -0.034756 0.0
1.096679 -0.040243 0.0
1.126747 -0.044462 0.0
1.159153 -0.046906 0.0
1.192494 -0.047259 0.0
1.225271 -0.045628 0.0
1.256224 -0.042493 0.0
1.284544 -0.038488 0.0
1.309888 -0.034194 0.0
1.332284 -0.030028 0.0
1.351982 -0.026195 0.0
1.369290 -0.022676 0.0
1.384424 -0.019250 0.0
1.397378 -0.015550 0.0
1.407840 -0.011156 0.0
1.415185 -0.005736 0.0
1.418560 0.000846 0.0
1.417092 0.008497 0.0
1.410108 0.016864 0.0
1.397258 0.025458 0.0
1.378569 0.033752 0.0
1.354435 0.041265 0.0
1.325550 0.047614 0.0
1.292828 0.052530 0.0
1.257322 0.055850 0.0
1.220156 0.057492 0.0
1.182478 0.057432 0.0
1.145433 0.055680 0.0
1.110147 0.052261 0.0
1.077718 0.047207 0.0
1.049209 0.040549 0.0
1.025628 0.032301 0.0
1.007865 0.022464 0.0
0.996605 0.011060 0.0
0.992379 -0.001726 0.0
0.995929 -0.015447 0.0
1.008157 -0.029582 0.0
1.029590 -0.043310 0.0
1.060023 -0.055530 0.0
1.098402 -0.065005 0.0
1.142832 -0.070502 0.0
1.190623 -0.070928 0.0
1.238361 -0.065560 0.0
1.282120 -0.054390 0.0
1.317959 -0.038453 0.0
1.342639 -0.019833 0.0
1.354350 -0.001024 0.0
1.353152 0.016338 0.0
1.340397 0.031502 0.0
1.317911 0.043975 0.0
1.287735 0.053509 0.0
1.251959 0.060057 0.0
1.212618 0.063714 0.0
1.171627 0.064652 0.0
1.130762 0.063061 0.0
1.091643 0.059121 0.0
1.055716 0.052997 0.0
1.024184 0.044903 0.0
0.997902 0.035171 0.0
0.977239 0.024323 0.0
0.962066 0.013063 0.0
0.952063 0.002225 0.0
0.947181 -0.007420 0.0
0.947435 -0.015698 0.0
0.952589 -0.022745 0.0
0.962270 -0.028738 0.0
0.976065 -0.033848 0.0
0.993607 -0.038196 0.0
1.014607 -0.041780 0.0
1.038790 -0.044399 0.0
1.065756 -0.045618 0.0
1.094821 -0.044818 0.0
1.124873 -0.041335 0.0
1.154263 -0.034690 0.0
1.180752 -0.024875 0.0
1.201601 -0.012562 0.0
1.214241 0.000970 0.0
1.217537 0.014241 0.0
1.211884 0.026436 0.0
1.198299 0.037015 0.0
1.178093 0.045500 0.0
1.152793 0.051505 0.0
1.124066 0.054758 0.0
1.093627 0.055142 0.0
1.063146 0.052737 0.0
1.034155 0.047858 0.0
1.007955 0.041049 0.0
0.985522 0.033033 0.0
0.967432 0.024613 0.0
0.953793 0.016558 0.0
0.944226 0.009526 0.0
0.937952 0.004046 0.0
0.934078 0.000568 0.0
0.931787 -0.000655 0.0
0.929740 0.002068 0.0
1.001176 -0.005245 0.0
1.005815 -0.015930 0.0
1.015052 -0.026903 0.0
1.028990 -0.038126 0.0
1.047790 -0.049391 0.0
1.071543 -0.060251 0.0
1.100092 -0.069968 0.0
1.132834 -0.077547 0.0
1.168555 -0.081949 0.0
1.205390 -0.082393 0.0
1.241232 -0.079113 0.0
1.274429 -0.073158 0.0
1.304092 -0.065806 0.0
1.330032 -0.058159 0.0
1.352539 -0.050966 0.0
1.372160 -0.044576 0.0
1.389493 -0.038936 0.0
1.404992 -0.033623 0.0
1.418782 -0.027921 0.0
1.430529 -0.020993 0.0
1.439419 -0.012134 0.0
1.444341 -0.001052 0.0
1.444179 0.012025 0.0
1.438067 0.026432 0.0
1.425559 0.041248 0.0
1.406703 0.055507 0.0
1.381992 0.068355 0.0
1.352258 0.079142 0.0
1.318543 0.087438 0.0
1.281990 0.093000 0.0
1.243770 0.095728 0.0
1.205030 0.095614 0.0
1.166871 0.092702 0.0
1.130335 0.087061 0.0
1.096398 0.078773 0.0
1.065968 0.067922 0.0
1.039884 0.054593 0.0
1.018952 0.038866 0.0
1.004045 0.020825 0.0
0.996206 0.000574 0.0
0.996527 -0.021619 0.0
1.005816 -0.044928 0.0
1.024299 -0.067880 0.0
1.051566 -0.088661 0.0
1.086751 -0.105438 0.0
1.128675 -0.116423 0.0
1.175723 -0.119846 0.0
1.225507 -0.114164 0.0
1.274577 -0.098615 0.0
1.318473 -0.073963 0.0
1.352426 -0.042954 0.0
1.372768 -0.009956 0.0
1.378520 0.020716 0.0
1.371144 0.047256 0.0
1.352950 0.068901 0.0
1.326368 0.085342 0.0
1.293754 0.096614 0.0
1.257272 0.102980 0.0
1.218835 0.104814 0.0
1.180080 0.102519 0.0
1.142374 0.096488 0.0
1.106803 0.087130 0.0
1.074160 0.074944 0.0
1.044969 0.060604 0.0
1.019553 0.044968 0.0
0.998165 0.028978 0.0
0.981039 0.013438 0.0
0.968371 -0.001082 0.0
0.960207 -0.014125 0.0
0.956317 -0.025582 0.0
0.956317 -0.035580 0.0
0.959903 -0.044386 0.0
0.967008 -0.052305 0.0
0.977824 -0.059488 0.0
0.992682 -0.065732 0.0
1.011829 -0.070398 0.0
1.035199 -0.072473 0.0
1.062252 -0.070785 0.0
1.091908 -0.064285 0.0
1.122511 -0.052373 0.0
1.151839 -0.035241 0.0
1.177103 -0.014255 0.0
1.195326 0.007947 0.0
1.205038 0.028671 0.0
1.206634 0.046767 0.0
1.201100 0.061489 0.0
1.189635 0.072281 0.0
1.173553 0.078791 0.0
1.154193 0.080908 0.0
1.132845 0.078800 0.0
1.110686 0.072945 0.0
1.088732 0.064116 0.0
1.067809 0.053321 0.0
1.048533 0.041691 0.0
1.031316 0.030336 0.0
1.016394 0.020236 0.0
1.003864 0.012141 0.0
0.993677 0.006534 0.0
0.985648 0.003699 0.0
0.979828 0.005582 0.0
1.001121 -0.007542 0.0
1.005619 -0.022770 0.0
1.014737 -0.038417 0.0
1.028778 -0.054591 0.0
1.048184 -0.071132 0.0
1.073402 -0.087479 0.0
1.104644 -0.102532 0.0
1.141522 -0.114602 0.0
1.182693 -0.121786 0.0
1.225357 -0.122055 0.0
1.266057 -0.115993 0.0
1.302415 -0.105832 0.0
1.333547 -0.093926 0.0
1.359647 -0.082079 0.0
1.381516 -0.071422 0.0
1.400224 -0.062449 0.0
1.416869 -0.055042 0.0
1.432349 -0.048495 0.0
1.447092 -0.041583 0.0
1.460806 -0.032792 0.0
1.472353 -0.020772 0.0
1.479967 -0.004950 0.0
1.481852 0.014199 0.0
1.476708 0.035515 0.0
1.463923 0.057458 0.0
1.443622 0.078455 0.0
1.416540 0.097199 0.0
1.383811 0.112761 0.0
1.346761 0.124585 0.0
1.306755 0.132411 0.0
1.265110 0.136183 0.0
1.223046 0.135963 0.0
1.181681 0.131877 0.0
1.142033 0.124071 0.0
1.105031 0.112701 0.0
1.071534 0.097920 0.0
1.042352 0.079860 0.0
1.018290 0.058592 0.0
1.000197 0.034098 0.0
0.988940 0.006397 0.0
0.985203 -0.024024 0.0
0.989189 -0.055797 0.0
1.000583 -0.086890 0.0
1.018936 -0.115271 0.0
1.044151 -0.139227 0.0
1.076559 -0.156965 0.0
1.116387 -0.166181 0.0
1.163002 -0.164228 0.0
1.214296 -0.148915 0.0
1.266396 -0.119659 0.0
1.313760 -0.078576 0.0
1.350034 -0.030951 0.0
1.370339 0.015652 0.0
1.374171 0.055864 0.0
1.364193 0.088464 0.0
1.343442 0.113112 0.0
1.314875 0.130026 0.0
1.281150 0.139774 0.0
1.244522 0.143087 0.0
1.206797 0.140726 0.0
1.169353 0.133431 0.0
1.133180 0.121931 0.0
1.098964 0.107001 0.0
1.067193 0.089509 0.0
1.038275 0.070397 0.0
1.012584 0.050628 0.0
0.990387 0.031111 0.0
0.971669 0.012631 0.0
0.956122 -0.004128 0.0
0.943310 -0.018878 0.0
0.932923 -0.031897 0.0
0.925065 -0.043798 0.0
0.920361 -0.055295 0.0
0.919845 -0.066797 0.0
0.924615 -0.078051 0.0
0.935436 -0.088048 0.0
0.952494 -0.095250 0.0
0.975377 -0.097945 0.0
1.003186 -0.094590 0.0
1.034637 -0.084123 0.0
1.068087 -0.066269 0.0
1.101457 -0.041860 0.0
1.131971 -0.013185 0.0
1.156262 0.015802 0.0
1.172624 0.041677 0.0
1.181494 0.063243 0.0
1.183710 0.079776 0.0
1.180234 0.090854 0.0
1.172065 0.096372 0.0
1.160189 0.096561 0.0
1.145536 0.091997 0.0
1.128974 0.083579 0.0
1.111308 0.072447 0.0
1.093290 0.059860 0.0
1.075620 0.047054 0.0
1.058943 0.035116 0.0
1.043827 0.024907 0.0
1.030733 0.017048 0.0
1.020002 0.011944 0.0
1.012252 0.010907 0.0
1.001046 -0.009710 0.0
1.005281 -0.029335 0.0
1.013998 -0.049687 0.0
1.027759 -0.071123 0.0
1.047417 -0.093665 0.0
1.074013 -0.116761 0.0
1.108497 -0.138977 0.0
1.151075 -0.157613 0.0
1.200686 -0.169556 0.0
1.252534 -0.168796 0.0
1.299971 -0.157389 0.0
1.339558 -0.140382 0.0
1.370949 -0.121898 0.0
1.395294 -0.104553 0.0
1.414288 -0.089810 0.0
1.429783 -0.078264 0.0
1.443623 -0.069713 0.0
1.457434 -0.063115 0.0
1.472288 -0.056560 0.0
1.488232 -0.047473 0.0
1.503864 -0.033271 0.0
1.516334 -0.012534 0.0
1.522392 0.013840 0.0
1.519760 0.043651 0.0
1.507527 0.074340 0.0
1.485952 0.103449 0.0
1.456159 0.129081 0.0
1.419736 0.150030 0.0
1.378417 0.165685 0.0
1.333874 0.175859 0.0
1.287632 0.180622 0.0
1.241042 0.180179 0.0
1.195287 0.174780 0.0
1.151421 0.164682 0.0
1.110391 0.150123 0.0
1.073065 0.131322 0.0
1.040232 0.108473 0.0
1.012559 0.081715 0.0
0.990479 0.051149 0.0
0.974041 0.017041 0.0
0.962846 -0.019737 0.0
0.956227 -0.057450 0.0
0.953658 -0.094063 0.0
0.955507 -0.128299 0.0
0.963566 -0.159473 0.0
0.980452 -0.186013 0.0
1.008209 -0.204719 0.0
1.047272 -0.211368 0.0
1.096214 -0.202011 0.0
1.151887 -0.174335 0.0
1.209501 -0.128879 0.0
1.262609 -0.070029 0.0
1.303555 -0.006520 0.0
1.327180 0.050579 0.0
1.333762 0.097145 0.0
1.326315 0.132630 0.0
1.308006 0.157384 0.0
1.281841 0.172306 0.0
1.250466 0.178558 0.0
1.216073 0.177372 0.0
1.180365 0.169937 0.0
1.144596 0.157367 0.0
1.109656 0.140721 0.0
1.076197 0.121019 0.0
1.044721 0.099281 0.0
1.015575 0.076580 0.0
0.988840 0.054090 0.0
0.964211 0.032999 0.0
0.941053 0.014208 0.0
0.918755 -0.002103 0.0
0.897290 -0.016821 0.0
0.877715 -0.031441 0.0
0.861965 -0.047197 0.0
0.852095 -0.064509 0.0
0.849593 -0.082608 0.0
0.855003 -0.099722 0.0
0.868013 -0.113643 0.0
0.887805 -0.122227 0.0
0.913370 -0.123682 0.0
0.943642 -0.116754 0.0
0.977483 -0.100928 0.0
1.013559 -0.076647 0.0
1.050166 -0.045521 0.0
1.084743 -0.010730 0.0
1.113822 0.022767 0.0
1.135575 0.051530 0.0
1.150323 0.074524 0.0
1.158668 0.091237 0.0
1.161298 0.101529 0.0
1.158942 0.105637 0.0
1.152352 0.104163 0.0
1.142299 0.098027 0.0
1.129581 0.088381 0.0
1.115031 0.076494 0.0
1.099502 0.063619 0.0
1.083845 0.050885 0.0
1.068871 0.039228 0.0
1.055320 0.029372 0.0
1.043843 0.021828 0.0
1.035339 0.017278 0.0
1.000905 -0.011661 0.0
1.004595 -0.035307 0.0
1.012335 -0.060172 0.0
1.024959 -0.087023 0.0
1.043839 -0.116303 0.0
1.070899 -0.147778 0.0
1.108411 -0.179955 0.0
1.158026 -0.208829 0.0
1.220694 -0.230620 0.0
1.286602 -0.225488 0.0
1.341281 -0.202815 0.0
1.381112 -0.174375 0.0
1.408311 -0.146494 0.0
1.426099 -0.122091 0.0
1.437425 -0.102591 0.0
1.445002 -0.088556 0.0
1.451486 -0.079746 0.0
1.459475 -0.074883 0.0
1.471174 -0.071345 0.0
1.487682 -0.065140 0.0
1.508053 -0.051607 0.0
1.528489 -0.027103 0.0
1.542918 0.007921 0.0
1.546538 0.048581 0.0
1.537780 0.090402 0.0
1.517159 0.129583 0.0
1.486401 0.163498 0.0
1.447714 0.190723 0.0
1.403304 0.210722 0.0
1.355165 0.223505 0.0
1.305015 0.229367 0.0
1.254326 0.228714 0.0
1.204362 0.221963 0.0
1.156240 0.209489 0.0
1.110969 0.191617 0.0
1.069476 0.168647 0.0
1.032540 0.140917 0.0
1.000580 0.108904 0.0
0.973284 0.073336 0.0
0.949278 0.035297 0.0
0.926360 -0.003881 0.0
0.902914 -0.043240 0.0
0.879608 -0.082397 0.0
0.859982 -0.122187 0.0
0.849476 -0.163139 0.0
0.852767 -0.202523 0.0
0.871640 -0.234838 0.0
0.905208 -0.253881 0.0
0.951120 -0.254352 0.0
1.006333 -0.232880 0.0
1.067229 -0.188844 0.0
1.129276 -0.125220 0.0
1.186431 -0.049430 0.0
1.230712 0.025584 0.0
1.257703 0.088567 0.0
1.268684 0.137674 0.0
1.266232 0.173100 0.0
1.253101 0.195887 0.0
1.231932 0.207521 0.0
1.205084 0.209651 0.0
1.174538 0.203911 0.0
1.141878 0.191823 0.0
1.108321 0.174762 0.0
1.074778 0.153979 0.0
1.041872 0.130704 0.0
1.009861 0.106315 0.0
0.978526 0.082425 0.0
0.947222 0.060597 0.0
0.915322 0.041668 0.0
0.882977 0.025081 0.0
0.851579 0.008858 0.0
0.823513 -0.009478 0.0
0.801563 -0.031461 0.0
0.787910 -0.056722 0.0
0.783277 -0.083259 0.0
0.787125 -0.108329 0.0
0.798364 -0.129283 0.0
0.815895 -0.143910 0.0
0.838822 -0.150492 0.0
0.866436 -0.147830 0.0
0.898090 -0.135346 0.0
0.933046 -0.113261 0.0
0.970315 -0.082782 0.0
1.008480 -0.046210 0.0
1.045054 -0.007406 0.0
1.076664 0.028340 0.0
1.101587 0.058043 0.0
1.119977 0.080983 0.0
1.132193 0.096936 0.0
1.138702 0.106076 0.0
1.140068 0.108949 0.0
1.136946 0.106417 0.0
1.130081 0.099574 0.0
1.120301 0.089632 0.0
1.108500 0.077812 0.0
1.095601 0.065248 0.0
1.082519 0.052921 0.0
1.070128 0.041622 0.0
1.059238 0.031946 0.0
1.050847 0.024054 0.0
1.000659 -0.013225 0.0
1.003370 -0.040145 0.0
1.009213 -0.068918 0.0
1.019226 -0.100914 0.0
1.035283 -0.137350 0.0
1.060395 -0.178902 0.0
1.098936 -0.224884 0.0
1.155662 -0.270241 0.0
1.238733 -0.314947 0.0
1.324283 -0.292619 0.0
1.380201 -0.246280 0.0
1.409872 -0.200412 0.0
1.423011 -0.160795 0.0
1.425881 -0.128448 0.0
1.422232 -0.103911 0.0
1.414975 -0.087555 0.0
1.407063 -0.079318 0.0
1.401893 -0.078130 0.0
1.403155 -0.081060 0.0
1.413987 -0.082764 0.0
1.435645 -0.076012 0.0
1.465592 -0.053081 0.0
1.495161 -0.010098 0.0
1.513387 0.044753 0.0
1.515380 0.100995 0.0
1.502202 0.152788 0.0
1.476514 0.196739 0.0
1.441249 0.231435 0.0
1.399022 0.256646 0.0
1.352010 0.272732 0.0
1.302010 0.280288 0.0
1.250539 0.279953 0.0
1.198921 0.272306 0.0
1.148354 0.257835 0.0
1.099961 0.236934 0.0
1.054791 0.209992 0.0
1.013669 0.177631 0.0
0.976709 0.141110 0.0
0.942533 0.102602 0.0
0.907881 0.064689 0.0
0.868731 0.028795 0.0
0.823345 -0.007085 0.0
0.776760 -0.048661 0.0
0.740079 -0.099616 0.0
0.722130 -0.157256 0.0
0.724400 -0.213967 0.0
0.743713 -0.261581 0.0
0.776325 -0.293319 0.0
0.819474 -0.303974 0.0
0.871085 -0.290082 0.0
0.929097 -0.250549 0.0
0.990952 -0.187417 0.0
1.053085 -0.106522 0.0
1.109779 -0.018298 0.0
1.153889 0.061348 0.0
1.182393 0.125407 0.0
1.196674 0.173538 0.0
1.198646 0.206609 0.0
1.190432 0.226180 0.0
1.174147 0.234125 0.0
1.151743 0.232387 0.0
1.124921 0.222828 0.0
1.095090 0.207145 0.0
1.063313 0.186915 0.0
1.030214 0.163773 0.0
0.995835 0.139637 0.0
0.959649 0.116625 0.0
0.921036 0.096313 0.0
0.880254 0.078634 0.0
0.839289 0.061426 0.0
0.801718 0.041482 0.0
0.771303 0.016379 0.0
0.750178 -0.014244 0.0
0.738517 -0.048624 0.0
0.735384 -0.083590 0.0
0.739438 -0.115902 0.0
0.749463 -0.142973 0.0
0.764578 -0.162865 0.0
0.784241 -0.174127 0.0
0.808143 -0.175710 0.0
0.836059 -0.167036 0.0
0.867699 -0.148168 0.0
0.902553 -0.119999 0.0
0.939770 -0.084375 0.0
0.978045 -0.044090 0.0
1.014870 -0.003411 0.0
1.047058 0.032683 0.0
1.073114 0.061897 0.0
1.093075 0.083846 0.0
1.107146 0.098585 0.0
1.115680 0.106539 0.0
1.119176 0.108453 0.0
1.118269 0.105310 0.0
1.113714 0.098229 0.0
1.106361 0.088369 0.0
1.097114 0.076837 0.0
1.086900 0.064628 0.0
1.076626 0.052578 0.0
1.067152 0.041354 0.0
1.059471 0.030717 0.0
1.000282 -0.014166 0.0
1.001468 -0.043101 0.0
1.004209 -0.074546 0.0
1.009520 -0.110609 0.0
1.019461 -0.153654 0.0
1.037904 -0.206153 0.0
1.071808 -0.270077 0.0
1.131687 -0.341654 0.0
1.244509 -0.439425 0.0
1.349650 -0.358832 0.0
1.383229 -0.269565 0.0
1.380654 -0.204223 0.0
1.365281 -0.154751 0.0
1.343973 -0.116056 0.0
1.318611 -0.087291 0.0
1.290415 -0.068723 0.0
1.261098 -0.060921 0.0
1.233770 -0.064029 0.0
1.213408 -0.076062 0.0
1.206189 -0.091375 0.0
1.218043 -0.100913 0.0
1.251709 -0.091794 0.0
1.301857 -0.051102 0.0
1.349723 0.019665 0.0
1.378643 0.095170 0.0
1.387568 0.162866 0.0
1.380741 0.219176 0.0
1.361797 0.263208 0.0
1.333523 0.295375 0.0
1.298030 0.316507 0.0
1.257045 0.327498 0.0
1.212089 0.329170 0.0
1.164572 0.322224 0.0
1.115833 0.307223 0.0
1.067177 0.284595 0.0
1.019876 0.254802 0.0
0.974816 0.219004 0.0
0.931118 0.180393 0.0
0.884274 0.144339 0.0
0.827593 0.114285 0.0
0.759990 0.085952 0.0
0.692618 0.048516 0.0
0.642039 -0.007098 0.0
0.617266 -0.079725 0.0
0.615746 -0.157678 0.0
0.629716 -0.229784 0.0
0.653401 -0.288762 0.0
0.684306 -0.329654 0.0
0.721881 -0.348362 0.0
0.766142 -0.341566 0.0
0.816747 -0.307682 0.0
0.872581 -0.247972 0.0
0.931643 -0.167163 0.0
0.990828 -0.073535 0.0
1.043956 0.019347 0.0
1.085207 0.097651 0.0
1.113279 0.158940 0.0
1.128942 0.203573 0.0
1.133484 0.232889 0.0
1.128447 0.248738 0.0
1.115445 0.253180 0.0
1.096021 0.248281 0.0
1.071516 0.236028 0.0
1.042926 0.218399 0.0
1.010718 0.197595 0.0
0.974778 0.176134 0.0
0.934775 0.156317 0.0
0.891068 0.138940 0.0
0.845657 0.122200 0.0
0.802244 0.102238 0.0
0.765013 0.075472 0.0
0.736935 0.040882 0.0
0.718891 0.000423 0.0
0.709880 -0.042619 0.0
0.708138 -0.084720 0.0
0.712133 -0.122823 0.0
0.720771 -0.154714 0.0
0.733368 -0.178836 0.0
0.749593 -0.194045 0.0
0.769385 -0.199486 0.0
0.792829 -0.194621 0.0
0.819989 -0.179384 0.0
0.850741 -0.154389 0.0
0.884633 -0.121093 0.0
0.920802 -0.081816 0.0
0.957927 -0.039635 0.0
0.993518 0.001128 0.0
1.024727 0.036186 0.0
1.050336 0.063987 0.0
1.070295 0.084415 0.0
1.084741 0.097730 0.0
1.093992 0.104516 0.0
1.098537 0.105610 0.0
1.099011 0.102011 0.0
1.096161 0.094790 0.0
1.090818 0.085006 0.0
1.083849 0.073643 0.0
1.076128 0.061558 0.0
1.068497 0.049479 0.0
1.061880 0.036891 0.0
0.999781 -0.014229 0.0
0.998909 -0.043351 0.0
0.997315 -0.075443 0.0
0.995567 -0.113275 0.0
0.995120 -0.160482 0.0
0.999446 -0.222094 0.0
1.016685 -0.305279 0.0
1.064670 -0.414317 0.0
1.206170 -0.621084 0.0
1.305879 -0.382023 0.0
1.263613 -0.237687 0.0
1.199057 -0.168969 0.0
1.145200 -0.120774 0.0
1.097604 -0.081129 0.0
1.051206 -0.050457 0.0
1.003468 -0.029623 0.0
0.952243 -0.019478 0.0
0.897123 -0.023023 0.0
0.844740 -0.044323 0.0
0.810036 -0.081190 0.0
0.808876 -0.121791 0.0
0.847508 -0.143214 0.0
0.919384 -0.121706 0.0
1.008893 -0.047106 0.0
1.087949 0.053965 0.0
1.140291 0.142804 0.0
1.171327 0.215028 0.0
1.186006 0.271621 0.0
1.187129 0.314113 0.0
1.176578 0.343813 0.0
1.155974 0.361782 0.0
1.126909 0.368907 0.0
1.090966 0.365947 0.0
1.049662 0.353542 0.0
1.004290 0.332304 0.0
0.955325 0.303359 0.0
0.901018 0.269815 0.0
0.836619 0.237677 0.0
0.758486 0.212032 0.0
0.672789 0.188971 0.0
0.597461 0.154197 0.0
0.550171 0.094934 0.0
0.535156 0.012078 0.0
0.542794 -0.081766 0.0
0.560887 -0.172211 0.0
0.582876 -0.251209 0.0
0.606680 -0.314827 0.0
0.632432 -0.360247 0.0
0.661456 -0.384369 0.0
0.695464 -0.383829 0.0
0.735669 -0.356229 0.0
0.782176 -0.301766 0.0
0.833919 -0.224174 0.0
0.888818 -0.130606 0.0
0.943356 -0.031248 0.0
0.991458 0.058894 0.0
1.028793 0.132290 0.0
1.054880 0.188473 0.0
1.070041 0.228285 0.0
1.075102 0.253318 0.0
1.071151 0.265552 0.0
1.059360 0.267125 0.0
1.040792 0.260257 0.0
1.016196 0.247357 0.0
0.985873 0.231169 0.0
0.949855 0.214519 0.0
0.908572 0.199217 0.0
0.863775 0.184544 0.0
0.818888 0.166894 0.0
0.778175 0.141670 0.0
0.745117 0.106330 0.0
0.721276 0.061944 0.0
0.706403 0.012277 0.0
0.699246 -0.038305 0.0
0.698258 -0.086302 0.0
0.702057 -0.129036 0.0
0.709599 -0.164680 0.0
0.720173 -0.192041 0.0
0.733426 -0.210317 0.0
0.749351 -0.218930 0.0
0.768209 -0.217479 0.0
0.790363 -0.205840 0.0
0.816058 -0.184381 0.0
0.845236 -0.154171 0.0
0.877415 -0.117086 0.0
0.911664 -0.075738 0.0
0.946582 -0.033280 0.0
0.979746 0.006223 0.0
1.008747 0.039339 0.0
1.032699 0.065152 0.0
1.051514 0.083731 0.0
1.065310 0.095467 0.0
1.074399 0.101024 0.0
1.079262 0.101261 0.0
1.080512 0.097139 0.0
1.078861 0.089651 0.0
1.075079 0.079749 0.0
1.069960 0.068292 0.0
1.064284 0.056052 0.0
1.058879 0.042341 0.0
0.999212 -0.013222 0.0
0.995979 -0.040253 0.0
0.989276 -0.070244 0.0
0.978744 -0.106194 0.0
0.964079 -0.152451 0.0
0.945676 -0.216048 0.0
0.926881 -0.309768 0.0
0.922407 -0.453337 0.0
1.017439 -0.818596 0.0
1.021109 -0.187471 0.0
0.843045 -0.101251 0.0
0.707075 -0.094638 0.0
0.633084 -0.067258 0.0
0.574332 -0.028297 0.0
0.504130 0.013311 0.0
0.420815 0.037661 0.0
0.343327 0.041952 0.0
0.289375 0.024619 0.0
0.268770 -0.018979 0.0
0.284277 -0.087336 0.0
0.333124 -0.163331 0.0
0.409673 -0.216855 0.0
0.507331 -0.217599 0.0
0.618769 -0.152160 0.0
0.733575 -0.034843 0.0
0.830245 0.082600 0.0
0.900304 0.174136 0.0
0.951640 0.246497 0.0
0.986565 0.303189 0.0
1.006012 0.345841 0.0
1.010984 0.375386 0.0
1.002778 0.392574 0.0
0.982855 0.398147 0.0
0.952557 0.392944 0.0
0.912535 0.378297 0.0
0.861729 0.357138 0.0
0.797188 0.334885 0.0
0.717902 0.316291 0.0
0.632005 0.297449 0.0
0.557757 0.263499 0.0
0.512114 0.200640 0.0
0.498494 0.109401 0.0
0.507951 0.003168 0.0
0.528771 -0.101314 0.0
0.552894 -0.194879 0.0
0.576413 -0.274048 0.0
0.597874 -0.337254 0.0
0.617548 -0.383246 0.0
0.637178 -0.410024 0.0
0.659512 -0.414515 0.0
0.687297 -0.393533 0.0
0.722140 -0.345811 0.0
0.763966 -0.273698 0.0
0.811294 -0.183310 0.0
0.861648 -0.083437 0.0
0.910384 0.014245 0.0
0.952313 0.097674 0.0
0.984948 0.164369 0.0
1.007721 0.214455 0.0
1.020721 0.249088 0.0
1.024440 0.270013 0.0
1.019562 0.279332 0.0
1.006741 0.279439 0.0
0.986420 0.273093 0.0
0.958838 0.263337 0.0
0.924436 0.252772 0.0
0.884601 0.242082 0.0
0.842227 0.228851 0.0
0.801361 0.208340 0.0
0.765879 0.176419 0.0
0.738142 0.132376 0.0
0.718661 0.079220 0.0
0.706746 0.021788 0.0
0.701312 -0.035224 0.0
0.701207 -0.088290 0.0
0.705291 -0.134931 0.0
0.712516 -0.173552 0.0
0.722027 -0.203255 0.0
0.733277 -0.223607 0.0
0.746126 -0.234415 0.0
0.760843 -0.235571 0.0
0.777987 -0.227044 0.0
0.798157 -0.209042 0.0
0.821730 -0.182261 0.0
0.848652 -0.148098 0.0
0.878365 -0.108686 0.0
0.909845 -0.066730 0.0
0.941645 -0.025290 0.0
0.971518 0.011977 0.0
0.997536 0.042545 0.0
1.019077 0.065982 0.0
1.036041 0.082457 0.0
1.048546 0.092440 0.0
1.056901 0.096628 0.0
1.061563 0.095860 0.0
1.063101 0.091043 0.0
1.062159 0.083080 0.0
1.059425 0.072814 0.0
1.055593 0.061038 0.0
1.051399 0.046954 0.0
0.998680 -0.011113 0.0
0.993236 -0.033685 0.0
0.981686 -0.058560 0.0
0.962567 -0.088228 0.0
0.933165 -0.126351 0.0
0.888487 -0.179067 0.0
0.818676 -0.258142 0.0
0.705476 -0.387290 0.0
0.317559 -0.692178 0.0
-0.466159 0.237391 0.0
-0.466159 0.000000 0.0
-0.035220 -0.024839 0.0
-0.075242 -0.033426 0.0
-0.069855 -0.008764 0.0
-0.037854 0.031980 0.0
-0.006839 0.071292 0.0
-0.000726 0.079696 0.0
-0.008872 0.048972 0.0
-0.014235 -0.017364 0.0
-0.005019 -0.113674 0.0
0.026485 -0.217344 0.0
0.084295 -0.297200 0.0
0.169443 -0.320061 0.0
0.277161 -0.268855 0.0
0.398651 -0.154444 0.0
0.521129 -0.016947 0.0
0.626001 0.098752 0.0
0.707878 0.188667 0.0
0.771841 0.262131 0.0
0.818111 0.321182 0.0
0.846888 0.366297 0.0
0.858879 0.397879 0.0
0.855010 0.416635 0.0
0.835895 0.423867 0.0
0.801149 0.422142 0.0
0.749404 0.415843 0.0
0.681208 0.408917 0.0
0.604612 0.398141 0.0
0.536563 0.369545 0.0
0.493869 0.308345 0.0
0.481740 0.213567 0.0
0.493332 0.098501 0.0
0.517917 -0.019975 0.0
0.546843 -0.127916 0.0
0.574978 -0.220535 0.0
0.599645 -0.296577 0.0
0.619452 -0.355994 0.0
0.634298 -0.399025 0.0
0.645632 -0.425209 0.0
0.656510 -0.432542 0.0
0.670897 -0.417680 0.0
0.692197 -0.377807 0.0
0.721878 -0.313209 0.0
0.759200 -0.228449 0.0
0.801928 -0.131379 0.0
0.846858 -0.031480 0.0
0.889084 0.059244 0.0
0.924554 0.134693 0.0
0.951825 0.194086 0.0
0.970285 0.237997 0.0
0.979834 0.267836 0.0
0.980630 0.285591 0.0
0.972888 0.293743 0.0
0.956785 0.295213 0.0
0.932635 0.292948 0.0
0.901409 0.288789 0.0
0.865317 0.281991 0.0
0.827857 0.268775 0.0
0.792943 0.244195 0.0
0.763584 0.205404 0.0
0.741135 0.153575 0.0
0.725585 0.093052 0.0
0.716310 0.029145 0.0
0.712593 -0.033431 0.0
0.713663 -0.091049 0.0
0.718577 -0.141170 0.0
0.726274 -0.182235 0.0
0.735721 -0.213530 0.0
0.746103 -0.234963 0.0
0.756997 -0.246801 0.0
0.768490 -0.249395 0.0
0.781146 -0.243019 0.0
0.795815 -0.227906 0.0
0.813313 -0.204468 0.0
0.834107 -0.173607 0.0
0.858118 -0.136901 0.0
0.884702 -0.096580 0.0
0.912770 -0.055307 0.0
0.940834 -0.015944 0.0
0.966901 0.018381 0.0
0.989504 0.046002 0.0
1.008214 0.066764 0.0
1.022930 0.080912 0.0
1.033767 0.088963 0.0
1.041012 0.091618 0.0
1.045078 0.089682 0.0
1.046467 0.083993 0.0
1.045746 0.075355 0.0
1.043518 0.064556 0.0
1.040442 0.050705 0.0
0.998305 -0.008098 0.0
0.991319 -0.024269 0.0
0.976438 -0.041546 0.0
0.951561 -0.061245 0.0
0.912633 -0.085004 0.0
0.851802 -0.114907 0.0
0.752600 -0.153289 0.0
0.576278 -0.202622 0.0
0.230984 -0.240291 0.0
0.000000 0.237391 0.0
-0.000000 -0.000000 0.0
0.000000 0.000000 0.0
-0.014402 -0.014312 0.0
-0.040294 -0.007464 0.0
-0.062268 0.020652 0.0
-0.089944 0.079281 0.0
-0.128264 0.103915 0.0
-0.167944 0.072578 0.0
-0.196050 -0.007501 0.0
-0.202750 -0.126054 0.0
-0.186343 -0.252877 0.0
-0.150027 -0.355791 0.0
-0.090131 -0.406514 0.0
0.003255 -0.383506 0.0
0.122891 -0.280918 0.0
0.252984 -0.143045 0.0
0.379921 -0.006959 0.0
0.487400 0.105022 0.0
0.572429 0.196784 0.0
0.638479 0.274210 0.0
0.685471 0.337500 0.0
0.713443 0.386713 0.0
0.722479 0.422633 0.0
0.712315 0.447147 0.0
0.682484 0.463439 0.0
0.634336 0.474438 0.0
0.575069 0.477785 0.0
0.519472 0.461466 0.0
0.483731 0.410010 0.0
0.475174 0.319131 0.0
0.489722 0.200363 0.0
0.518549 0.071287 0.0
0.553239 -0.052036 0.0
0.587784 -0.159326 0.0
0.618925 -0.248401 0.0
0.644628 -0.319080 0.0
0.663578 -0.372248 0.0
0.675292 -0.409330 0.0
0.680536 -0.431481 0.0
0.681827 -0.438440 0.0
0.683442 -0.427784 0.0
0.690280 -0.395840 0.0
0.705896 -0.340474 0.0
0.731118 -0.263730 0.0
0.764271 -0.171979 0.0
0.802345 -0.073884 0.0
0.841129 0.020639 0.0
0.876314 0.102644 0.0
0.905312 0.169867 0.0
0.926885 0.222183 0.0
0.940382 0.260605 0.0
0.945468 0.286941 0.0
0.941970 0.303633 0.0
0.929906 0.313491 0.0
0.909777 0.318948 0.0
0.883054 0.320738 0.0
0.852441 0.316748 0.0
0.821457 0.302461 0.0
0.793371 0.273510 0.0
0.770213 0.228607 0.0
0.752653 0.170382 0.0
0.740582 0.103867 0.0
0.733708 0.034480 0.0
0.731727 -0.033068 0.0
0.734154 -0.094909 0.0
0.740180 -0.148251 0.0
0.748752 -0.191423 0.0
0.758729 -0.223766 0.0
0.769070 -0.245449 0.0
0.779040 -0.257179 0.0
0.788394 -0.259864 0.0
0.797484 -0.254296 0.0
0.807184 -0.240998 0.0
0.818625 -0.220315 0.0
0.832803 -0.192733 0.0
0.850237 -0.159219 0.0
0.870799 -0.121408 0.0
0.893765 -0.081512 0.0
0.917994 -0.042033 0.0
0.941983 -0.005587 0.0
0.964053 0.025296 0.0
0.983134 0.049679 0.0
0.998872 0.067542 0.0
1.011175 0.079193 0.0
1.020142 0.085176 0.0
1.026022 0.086179 0.0
1.029170 0.082958 0.0
1.030029 0.076252 0.0
1.029111 0.066806 0.0
1.027024 0.053618 0.0
0.998164 -0.004568 0.0
0.990623 -0.013272 0.0
0.974672 -0.021712 0.0
0.948348 -0.029879 0.0
0.908153 -0.037247 0.0
0.848339 -0.042019 0.0
0.760410 -0.039045 0.0
0.633507 -0.013642 0.0
0.476683 0.076610 0.0
0.197265 0.178369 0.0
0.000000 0.000000 0.0
-0.000000 -0.000000 0.0
0.000000 0.000000 0.0
0.000585 0.002013 0.0
-0.026952 0.059258 0.0
-0.095911 0.137309 0.0
-0.172202 0.160498 0.0
-0.232426 0.115900 0.0
-0.267059 0.011917 0.0
-0.272655 -0.133175 0.0
-0.257279 -0.277540 0.0
-0.231797 -0.392926 0.0
-0.198253 -0.462820 0.0
-0.147358 -0.471481 0.0
-0.059487 -0.400449 0.0
0.057932 -0.271026 0.0
0.183384 -0.131367 0.0
0.303295 0.002040 0.0
0.402993 0.115039 0.0
0.481223 0.211674 0.0
0.539877 0.294391 0.0
0.578517 0.363211 0.0
0.596609 0.419006 0.0
0.593937 0.463611 0.0
0.572002 0.498741 0.0
0.536721 0.522566 0.0
0.500100 0.525545 0.0
0.476631 0.492772 0.0
0.475066 0.416010 0.0
0.494287 0.302466 0.0
0.527564 0.169202 0.0
0.568174 0.033011 0.0
0.609908 -0.090184 0.0
0.648184 -0.194000 0.0
0.680856 -0.277540 0.0
0.706483 -0.341271 0.0
0.724126 -0.386650 0.0
0.733321 -0.415837 0.0
0.734301 -0.431198 0.0
0.728595 -0.434308 0.0
0.719684 -0.424619 0.0
0.712829 -0.398988 0.0
0.713401 -0.353515 0.0
0.724539 -0.287048 0.0
0.746033 -0.203308 0.0
0.775188 -0.109784 0.0
0.808182 -0.015239 0.0
0.840652 0.070867 0.0
0.869166 0.144131 0.0
0.891895 0.203616 0.0
0.907696 0.249874 0.0
0.915822 0.284459 0.0
0.915830 0.309603 0.0
0.907706 0.327710 0.0
0.892188 0.340376 0.0
0.871089 0.347132 0.0
0.847206 0.344849 0.0
0.823618 0.328932 0.0
0.802702 0.296042 0.0
0.785645 0.246289 0.0
0.772739 0.183166 0.0
0.764009 0.111884 0.0