# vtk DataFile Version 3.0
Vector Field
ASCII
DATASET RECTILINEAR_GRID
DIMENSIONS 100 26 1
X_COORDINATES 100 double
0.050000 0.150000 0.250000 0.350000 0.450000 0.550000 0.650000 0.750000 0.850000 0.950000 1.050000 1.150000 1.250000 1.350000 1.450000 1.550000 1.650000 1.750000 1.850000 1.950000 2.050000 2.150000 2.250000 2.350000 2.450000 2.550000 2.650000 2.750000 2.850000 2.950000 3.050000 3.150000 3.250000 3.350000 3.450000 3.550000 3.650000 3.750000 3.850000 3.950000 4.050000 4.150000 4.250000 4.350000 4.450000 4.550000 4.650000 4.750000 4.850000 4.950000 5.050000 5.150000 5.250000 5.350000 5.450000 5.550000 5.650000 5.750000 5.850000 5.950000 6.050000 6.150000 6.250000 6.350000 6.450000 6.550000 6.650000 6.750000 6.850000 6.950000 7.050000 7.150000 7.250000 7.350000 7.450000 7.550000 7.650000 7.750000 7.850000 7.950000 8.050000 8.150000 8.250000 8.350000 8.450000 8.550000 8.650000 8.750000 8.850000 8.950000 9.050000 9.150000 9.250000 9.350000 9.450000 9.550000 9.650000 9.750000 9.850000 9.950000 
Y_COORDINATES 26 double
0.050000 0.150000 0.250000 0.350000 0.450000 0.550000 0.650000 0.750000 0.850000 0.950000 1.050000 1.150000 1.250000 1.350000 1.450000 1.550000 1.650000 1.750000 1.850000 1.950000 2.050000 2.150000 2.250000 2.350000 2.450000 2.550000 
Z_COORDINATES 1 double
0.0
POINT_DATA 2600
VECTORS Vektorfeld double
0.997719 0.002281 0.0
0.993119 0.002320 0.0
0.989961 0.000838 0.0
0.990382 -0.001259 0.0
0.995202 -0.003561 0.0
1.004559 -0.005796 0.0
1.018063 -0.007708 0.0
1.034812 -0.009042 0.0
1.053431 -0.009577 0.0
1.072207 -0.009198 0.0
1.089357 -0.007952 0.0
1.103348 -0.006039 0.0
1.113126 -0.003739 0.0
1.118216 -0.001351 0.0
1.118754 0.000812 0.0
1.115296 0.002646 0.0
1.108571 0.004078 0.0
1.099434 0.005059 0.0
1.088788 0.005587 0.0
1.077494 0.005707 0.0
1.066271 0.005516 0.0
1.055586 0.005169 0.0
1.045543 0.004874 0.0
1.035798 0.004872 0.0
1.025535 0.005391 0.0
1.013557 0.006587 0.0
0.998471 0.008499 0.0
0.978941 0.011031 0.0
0.953922 0.013988 0.0
0.922811 0.017122 0.0
0.885517 0.020172 0.0
0.842449 0.022895 0.0
0.794467 0.025087 0.0
0.742801 0.026579 0.0
0.688975 0.027247 0.0
0.634729 0.026999 0.0
0.581942 0.025788 0.0
0.532541 0.023614 0.0
0.488380 0.020546 0.0
0.451116 0.016718 0.0
0.422160 0.012238 0.0
0.402868 0.007055 0.0
0.394478 0.001335 0.0
0.396212 -0.003069 0.0
0.404648 -0.005367 0.0
0.416108 -0.006092 0.0
0.428028 -0.005828 0.0
0.438855 -0.004999 0.0
0.447728 -0.003875 0.0
0.454234 -0.002631 0.0
0.458229 -0.001364 0.0
0.459535 0.000058 0.0
0.457347 0.002130 0.0
0.450563 0.004655 0.0
0.438600 0.007308 0.0
0.421626 0.009665 0.0
0.400800 0.011161 0.0
0.378443 0.011196 0.0
0.357749 0.009497 0.0
0.341761 0.006491 0.0
0.332027 0.003243 0.0
0.327962 0.000822 0.0
0.327476 -0.000336 0.0
0.328500 -0.000687 0.0
0.330177 -0.000989 0.0
0.332636 -0.001470 0.0
0.336165 -0.002058 0.0
0.340779 -0.002556 0.0
0.346136 -0.002800 0.0
0.351805 -0.002870 0.0
0.357513 -0.002839 0.0
0.363069 -0.002717 0.0
0.368303 -0.002518 0.0
0.373084 -0.002263 0.0
0.377317 -0.001970 0.0
0.380943 -0.001656 0.0
0.383936 -0.001338 0.0
0.386306 -0.001032 0.0
0.388089 -0.000751 0.0
0.389343 -0.000503 0.0
0.390141 -0.000295 0.0
0.390564 -0.000129 0.0
0.390701 -0.000008 0.0
0.390634 0.000076 0.0
0.390423 0.000135 0.0
0.390119 0.000170 0.0
0.389765 0.000184 0.0
0.389397 0.000184 0.0
0.389037 0.000176 0.0
0.388695 0.000166 0.0
0.388370 0.000159 0.0
0.388054 0.000156 0.0
0.387741 0.000157 0.0
0.387427 0.000157 0.0
0.387124 0.000146 0.0
0.386869 0.000108 0.0
0.386749 0.000012 0.0
0.386889 -0.000152 0.0
0.387415 -0.000374 0.0
0.388856 -0.001067 0.0
1.003015 0.001547 0.0
1.011713 -0.001044 0.0
1.025175 -0.006103 0.0
1.042744 -0.012308 0.0
1.064307 -0.018895 0.0
1.089711 -0.025222 0.0
1.118534 -0.030608 0.0
1.149963 -0.034319 0.0
1.182738 -0.035694 0.0
1.215227 -0.034347 0.0
1.245708 -0.030434 0.0
1.272744 -0.024584 0.0
1.295418 -0.017646 0.0
1.313348 -0.010464 0.0
1.326513 -0.003779 0.0
1.335256 0.001953 0.0
1.340318 0.006434 0.0
1.342638 0.009521 0.0
1.343209 0.011198 0.0
1.343001 0.011598 0.0
1.342829 0.011020 0.0
1.343245 0.009935 0.0
1.344411 0.008984 0.0
1.345998 0.008920 0.0
1.347136 0.010467 0.0
1.346496 0.014129 0.0
1.342518 0.020022 0.0
1.333712 0.027844 0.0
1.318925 0.036982 0.0
1.297500 0.046664 0.0
1.269327 0.056096 0.0
1.234815 0.064550 0.0
1.194818 0.071411 0.0
1.150555 0.076185 0.0
1.103523 0.078499 0.0
1.055424 0.078092 0.0
1.008081 0.074824 0.0
0.963360 0.068701 0.0
0.923068 0.059912 0.0
0.888852 0.048832 0.0
0.862002 0.035930 0.0
0.842912 0.021744 0.0
0.830557 0.007391 0.0
0.824198 -0.004500 0.0
0.824026 -0.012201 0.0
0.829645 -0.016336 0.0
0.840023 -0.017883 0.0
0.853849 -0.017596 0.0
0.869604 -0.015906 0.0
0.885483 -0.012985 0.0
0.899341 -0.008863 0.0
0.909102 -0.003509 0.0
0.913823 0.003165 0.0
0.913343 0.010885 0.0
0.907580 0.018804 0.0
0.896918 0.025805 0.0
0.882134 0.030632 0.0
0.864033 0.032183 0.0
0.843087 0.030150 0.0
0.819378 0.025535 0.0
0.793025 0.020287 0.0
0.764823 0.016044 0.0
0.736727 0.013023 0.0
0.711585 0.010071 0.0
0.692079 0.006082 0.0
0.679893 0.001186 0.0
0.675029 -0.003379 0.0
0.675663 -0.006483 0.0
0.679684 -0.008251 0.0
0.685881 -0.009285 0.0
0.693670 -0.009920 0.0
0.702624 -0.010145 0.0
0.712296 -0.009996 0.0
0.722275 -0.009545 0.0
0.732199 -0.008845 0.0
0.741747 -0.007954 0.0
0.750655 -0.006940 0.0
0.758729 -0.005873 0.0
0.765853 -0.004816 0.0
0.771987 -0.003826 0.0
0.777163 -0.002946 0.0
0.781471 -0.002210 0.0
0.785044 -0.001636 0.0
0.788040 -0.001225 0.0
0.790645 -0.000960 0.0
0.793038 -0.000824 0.0
0.795365 -0.000795 0.0
0.797735 -0.000840 0.0
0.800221 -0.000926 0.0
0.802856 -0.001024 0.0
0.805639 -0.001108 0.0
0.808539 -0.001161 0.0
0.811503 -0.001176 0.0
0.814467 -0.001161 0.0
0.817368 -0.001134 0.0
0.820147 -0.001136 0.0
0.822751 -0.001227 0.0
0.825170 -0.001471 0.0
0.827529 -0.001940 0.0
0.830015 -0.003428 0.0
1.001927 -0.003395 0.0
1.008806 -0.011679 0.0
1.021301 -0.021426 0.0
1.038854 -0.032107 0.0
1.061301 -0.043106 0.0
1.088523 -0.053636 0.0
1.120167 -0.062662 0.0
1.155401 -0.068928 0.0
1.192725 -0.071185 0.0
1.229939 -0.068559 0.0
1.264615 -0.061377 0.0
1.294863 -0.050925 0.0
1.319670 -0.038787 0.0
1.338817 -0.026399 0.0
1.352666 -0.014857 0.0
1.361940 -0.004985 0.0
1.367547 0.002702 0.0
1.370523 0.007957 0.0
1.371969 0.010745 0.0
1.372965 0.011265 0.0
1.374514 0.009976 0.0
1.377443 0.007634 0.0
1.382254 0.005307 0.0
1.388939 0.004326 0.0
1.396808 0.006054 0.0
1.404507 0.011483 0.0
1.410277 0.020877 0.0
1.412377 0.033695 0.0
1.409444 0.048851 0.0
1.400652 0.065013 0.0
1.385729 0.080844 0.0
1.364890 0.095154 0.0
1.338736 0.106957 0.0
1.308155 0.115483 0.0
1.274237 0.120150 0.0
1.238216 0.120562 0.0
1.201399 0.116513 0.0
1.165108 0.108025 0.0
1.130593 0.095396 0.0
1.098925 0.079231 0.0
1.070840 0.060468 0.0
1.046617 0.040518 0.0
1.026231 0.021358 0.0
1.009588 0.004535 0.0
0.997404 -0.008881 0.0
0.990732 -0.018602 0.0
0.989893 -0.025157 0.0
0.994773 -0.029027 0.0
1.004901 -0.030359 0.0
1.019434 -0.028945 0.0
1.037105 -0.024432 0.0
1.056135 -0.016732 0.0
1.074272 -0.006471 0.0
1.089763 0.005509 0.0
1.101719 0.017987 0.0
1.109456 0.029547 0.0
1.112386 0.038745 0.0
1.109983 0.044573 0.0
1.101818 0.046871 0.0
1.087863 0.046477 0.0
1.068887 0.044674 0.0
1.046518 0.042228 0.0
1.022669 0.038786 0.0
0.998629 0.033489 0.0
0.974593 0.026206 0.0
0.949976 0.017865 0.0
0.924828 0.009953 0.0
0.901181 0.003198 0.0
0.881943 -0.002716 0.0
0.868713 -0.007787 0.0
0.861098 -0.011592 0.0
0.857738 -0.014068 0.0
0.857461 -0.015467 0.0
0.859449 -0.016041 0.0
0.863068 -0.015892 0.0
0.867744 -0.015132 0.0
0.872974 -0.013902 0.0
0.878342 -0.012353 0.0
0.883512 -0.010631 0.0
0.888240 -0.008874 0.0
0.892375 -0.007209 0.0
0.895863 -0.005743 0.0
0.898737 -0.004550 0.0
0.901105 -0.003676 0.0
0.903124 -0.003132 0.0
0.904978 -0.002898 0.0
0.906856 -0.002926 0.0
0.908927 -0.003151 0.0
0.911327 -0.003501 0.0
0.914143 -0.003900 0.0
0.917408 -0.004280 0.0
0.921106 -0.004587 0.0
0.925175 -0.004784 0.0
0.929518 -0.004860 0.0
0.934015 -0.004831 0.0
0.938533 -0.004736 0.0
0.942944 -0.004642 0.0
0.947126 -0.004657 0.0
0.950959 -0.004946 0.0
0.954122 -0.006072 0.0
1.001550 -0.006872 0.0
1.007544 -0.021075 0.0
1.019191 -0.036173 0.0
1.036385 -0.052106 0.0
1.059277 -0.068447 0.0
1.088093 -0.084333 0.0
1.122830 -0.098347 0.0
1.162830 -0.108477 0.0
1.206372 -0.112503 0.0
1.250150 -0.108233 0.0
1.290210 -0.096439 0.0
1.323856 -0.079757 0.0
1.350065 -0.060972 0.0
1.369001 -0.042296 0.0
1.381474 -0.025282 0.0
1.388610 -0.010969 0.0
1.391671 0.000019 0.0
1.391980 0.007356 0.0
1.390878 0.011002 0.0
1.389712 0.011177 0.0
1.389805 0.008422 0.0
1.392378 0.003687 0.0
1.398331 -0.001511 0.0
1.407868 -0.005078 0.0
1.420167 -0.004711 0.0
1.433361 0.001354 0.0
1.445000 0.013598 0.0
1.452786 0.031087 0.0
1.455136 0.052041 0.0
1.451324 0.074427 0.0
1.441349 0.096329 0.0
1.425708 0.116149 0.0
1.405171 0.132653 0.0
1.380615 0.144926 0.0
1.352930 0.152310 0.0
1.322980 0.154374 0.0
1.291590 0.150908 0.0
1.259534 0.141977 0.0
1.227521 0.127971 0.0
1.196174 0.109670 0.0
1.166014 0.088274 0.0
1.137533 0.065415 0.0
1.111393 0.042986 0.0
1.088477 0.022466 0.0
1.069559 0.004290 0.0
1.055584 -0.011127 0.0
1.047536 -0.023745 0.0
1.045901 -0.033683 0.0
1.050797 -0.040727 0.0
1.061966 -0.044280 0.0
1.078795 -0.043596 0.0
1.100351 -0.038153 0.0
1.125280 -0.028116 0.0
1.151496 -0.014554 0.0
1.176497 0.001093 0.0
1.198192 0.017009 0.0
1.215180 0.031365 0.0
1.226465 0.043070 0.0
1.231358 0.051647 0.0
1.229706 0.057307 0.0
1.222030 0.060497 0.0
1.209369 0.061435 0.0
1.192842 0.059956 0.0
1.173265 0.055936 0.0
1.151230 0.049830 0.0
1.127522 0.042565 0.0
1.103194 0.034729 0.0
1.078947 0.026316 0.0
1.054755 0.017596 0.0
1.030599 0.009287 0.0
1.007524 0.002025 0.0
0.987294 -0.004095 0.0
0.971121 -0.008989 0.0
0.959076 -0.012462 0.0
0.950498 -0.014512 0.0
0.944621 -0.015311 0.0
0.940762 -0.015095 0.0
0.938342 -0.014106 0.0
0.936863 -0.012568 0.0
0.935914 -0.010715 0.0
0.935189 -0.008778 0.0
0.934497 -0.006970 0.0
0.933764 -0.005464 0.0
0.933017 -0.004382 0.0
0.932360 -0.003787 0.0
0.931944 -0.003682 0.0
0.931941 -0.004016 0.0
0.932506 -0.004697 0.0
0.933760 -0.005609 0.0
0.935770 -0.006619 0.0
0.938544 -0.007601 0.0
0.942028 -0.008448 0.0
0.946116 -0.009079 0.0
0.950663 -0.009454 0.0
0.955496 -0.009568 0.0
0.960433 -0.009455 0.0
0.965285 -0.009186 0.0
0.969860 -0.008870 0.0
0.973947 -0.008652 0.0
0.977216 -0.008798 0.0
1.001363 -0.009785 0.0
1.006781 -0.029574 0.0
1.017662 -0.050202 0.0
1.034334 -0.071942 0.0
1.057451 -0.094621 0.0
1.087889 -0.117412 0.0
1.126416 -0.138531 0.0
1.172995 -0.154872 0.0
1.226107 -0.162763 0.0
1.280176 -0.155819 0.0
1.327808 -0.136546 0.0
1.365220 -0.110708 0.0
1.392009 -0.083021 0.0
1.409336 -0.056509 0.0
1.418817 -0.033023 0.0
1.422138 -0.013685 0.0
1.420939 0.000872 0.0
1.416797 0.010336 0.0
1.411288 0.014633 0.0
1.406037 0.013962 0.0
1.402714 0.008867 0.0
1.403026 0.000358 0.0
1.408554 -0.009663 0.0
1.420184 -0.018092 0.0
1.437271 -0.021082 0.0
1.457181 -0.015380 0.0
1.475813 0.000061 0.0
1.489311 0.023340 0.0
1.495481 0.051268 0.0
1.493738 0.080755 0.0
1.484565 0.109149 0.0
1.469051 0.134483 0.0
1.448474 0.155432 0.0
1.424034 0.171143 0.0
1.396732 0.181080 0.0
1.367355 0.184931 0.0
1.336504 0.182591 0.0
1.304656 0.174198 0.0
1.272218 0.160200 0.0
1.239596 0.141411 0.0
1.207263 0.119026 0.0
1.175862 0.094545 0.0
1.146293 0.069566 0.0
1.119673 0.045422 0.0
1.097078 0.022848 0.0
1.079287 0.002081 0.0
1.066934 -0.016552 0.0
1.060479 -0.032787 0.0
1.060097 -0.046136 0.0
1.065834 -0.055776 0.0
1.077695 -0.060789 0.0
1.095683 -0.060506 0.0
1.119696 -0.054706 0.0
1.149140 -0.043623 0.0
1.182351 -0.028050 0.0
1.216214 -0.009406 0.0
1.246697 0.010310 0.0
1.270844 0.028692 0.0
1.287744 0.044233 0.0
1.297417 0.056699 0.0
1.300249 0.065949 0.0
1.296951 0.071942 0.0
1.288296 0.074631 0.0
1.274994 0.074140 0.0
1.257745 0.070912 0.0
1.237355 0.065581 0.0
1.214694 0.058701 0.0
1.190546 0.050740 0.0
1.165644 0.042265 0.0
1.140736 0.033682 0.0
1.116333 0.025108 0.0
1.092573 0.016812 0.0
1.069560 0.009290 0.0
1.047853 0.003011 0.0
1.028303 -0.001856 0.0
1.011501 -0.005287 0.0
0.997557 -0.007316 0.0
0.986152 -0.008060 0.0
0.976777 -0.007760 0.0
0.968937 -0.006735 0.0
0.962234 -0.005330 0.0
0.956388 -0.003880 0.0
0.951243 -0.002676 0.0
0.946758 -0.001939 0.0
0.942985 -0.001800 0.0
0.940030 -0.002299 0.0
0.938023 -0.003387 0.0
0.937077 -0.004945 0.0
0.937268 -0.006805 0.0
0.938608 -0.008773 0.0
0.941039 -0.010654 0.0
0.944441 -0.012281 0.0
0.948635 -0.013529 0.0
0.953409 -0.014324 0.0
0.958526 -0.014648 0.0
0.963748 -0.014532 0.0
0.968839 -0.014051 0.0
0.973569 -0.013311 0.0
0.977713 -0.012443 0.0
0.981018 -0.011582 0.0
1.001175 -0.012323 0.0
1.005906 -0.037185 0.0
1.015627 -0.063193 0.0
1.031051 -0.091047 0.0
1.053453 -0.121035 0.0
1.084682 -0.152666 0.0
1.126942 -0.184063 0.0
1.181781 -0.210759 0.0
1.249683 -0.227890 0.0
1.319593 -0.214670 0.0
1.375946 -0.181681 0.0
1.414948 -0.141986 0.0
1.439048 -0.102632 0.0
1.451591 -0.066767 0.0
1.455323 -0.035979 0.0
1.452453 -0.011180 0.0
1.444768 0.007250 0.0
1.433872 0.018996 0.0
1.421478 0.023876 0.0
1.409431 0.022016 0.0
1.399639 0.013927 0.0
1.394127 0.000499 0.0
1.395363 -0.016569 0.0
1.405680 -0.033133 0.0
1.425551 -0.042999 0.0
1.452484 -0.040307 0.0
1.480994 -0.022153 0.0
1.504007 0.009044 0.0
1.516861 0.046540 0.0
1.518846 0.085240 0.0
1.511171 0.121512 0.0
1.495729 0.153076 0.0
1.474443 0.178702 0.0
1.448935 0.197821 0.0
1.420431 0.210208 0.0
1.389794 0.215819 0.0
1.357607 0.214741 0.0
1.324279 0.207225 0.0
1.290142 0.193747 0.0
1.255566 0.175063 0.0
1.221059 0.152214 0.0
1.187360 0.126456 0.0
1.155467 0.099117 0.0
1.126525 0.071433 0.0
1.101517 0.044440 0.0
1.080851 0.018947 0.0
1.064217 -0.004432 0.0
1.051063 -0.025299 0.0
1.041172 -0.043352 0.0
1.034962 -0.058088 0.0
1.033527 -0.068904 0.0
1.038471 -0.075324 0.0
1.051563 -0.076991 0.0
1.074132 -0.073351 0.0
1.106379 -0.063781 0.0
1.146898 -0.048057 0.0
1.192303 -0.026926 0.0
1.236728 -0.002645 0.0
1.273743 0.021655 0.0
1.300593 0.042755 0.0
1.317934 0.059720 0.0
1.326904 0.072499 0.0
1.328528 0.081105 0.0
1.323753 0.085743 0.0
1.313478 0.086832 0.0
1.298605 0.084924 0.0
1.280027 0.080597 0.0
1.258603 0.074418 0.0
1.235147 0.066943 0.0
1.210416 0.058642 0.0
1.185053 0.049914 0.0
1.159620 0.041199 0.0
1.134664 0.032872 0.0
1.110632 0.025167 0.0
1.087817 0.018352 0.0
1.066413 0.012711 0.0
1.046588 0.008455 0.0
1.028520 0.005642 0.0
1.012308 0.004126 0.0
0.997903 0.003623 0.0
0.985165 0.003753 0.0
0.973943 0.004106 0.0
0.964134 0.004293 0.0
0.955708 0.004002 0.0
0.948705 0.003035 0.0
0.943202 0.001323 0.0
0.939282 -0.001082 0.0
0.937003 -0.004025 0.0
0.936368 -0.007282 0.0
0.937319 -0.010586 0.0
0.939716 -0.013669 0.0
0.943349 -0.016299 0.0
0.947949 -0.018306 0.0
0.953221 -0.019592 0.0
0.958858 -0.020135 0.0
0.964562 -0.019972 0.0
0.970054 -0.019194 0.0
0.975078 -0.017922 0.0
0.979405 -0.016301 0.0
0.982819 -0.014443 0.0
1.000903 -0.014401 0.0
1.004567 -0.043503 0.0
1.012266 -0.074294 0.0
1.024991 -0.108096 0.0
1.044611 -0.146007 0.0
1.074186 -0.188499 0.0
1.118206 -0.234510 0.0
1.181684 -0.278629 0.0
1.272471 -0.318708 0.0
1.364652 -0.285943 0.0
1.424537 -0.226646 0.0
1.455968 -0.167454 0.0
1.469541 -0.114838 0.0
1.471860 -0.069423 0.0
1.466296 -0.031492 0.0
1.454667 -0.001167 0.0
1.438059 0.021530 0.0
1.417720 0.035952 0.0
1.395391 0.041642 0.0
1.373112 0.038577 0.0
1.352985 0.027284 0.0
1.336894 0.008746 0.0
1.327175 -0.016333 0.0
1.327864 -0.044375 0.0
1.342319 -0.066083 0.0
1.370352 -0.072189 0.0
1.407879 -0.056308 0.0
1.446053 -0.017988 0.0
1.473954 0.032819 0.0
1.487041 0.083889 0.0
1.487423 0.130156 0.0
1.478034 0.169262 0.0
1.461443 0.200393 0.0
1.439576 0.223505 0.0
1.413779 0.238826 0.0
1.384967 0.246650 0.0
1.353777 0.247286 0.0
1.320689 0.241096 0.0
1.286133 0.228568 0.0
1.250591 0.210361 0.0
1.214697 0.187318 0.0
1.179315 0.160433 0.0
1.145534 0.130814 0.0
1.114490 0.099723 0.0
1.086919 0.068728 0.0
1.062531 0.039714 0.0
1.039651 0.014314 0.0
1.015799 -0.007038 0.0
0.989663 -0.025586 0.0
0.962884 -0.042865 0.0
0.939565 -0.059373 0.0
0.924467 -0.074702 0.0
0.921552 -0.087789 0.0
0.932984 -0.096555 0.0
0.958897 -0.098738 0.0
0.997939 -0.092661 0.0
1.047802 -0.077589 0.0
1.105333 -0.053937 0.0
1.165491 -0.024227 0.0
1.220179 0.007098 0.0
1.262689 0.035527 0.0
1.292212 0.058198 0.0
1.310707 0.075287 0.0
1.319849 0.087195 0.0
1.321053 0.094451 0.0
1.315570 0.097661 0.0
1.304543 0.097465 0.0
1.289018 0.094499 0.0
1.269959 0.089377 0.0
1.248239 0.082659 0.0
1.224642 0.074858 0.0
1.199871 0.066457 0.0
1.174559 0.057882 0.0
1.149244 0.049505 0.0
1.124375 0.041698 0.0
1.100338 0.034806 0.0
1.077452 0.029070 0.0
1.055946 0.024601 0.0
1.035956 0.021370 0.0
1.017554 0.019186 0.0
1.000776 0.017706 0.0
0.985651 0.016500 0.0
0.972234 0.015125 0.0
0.960616 0.013212 0.0
0.950923 0.010522 0.0
0.943284 0.006978 0.0
0.937806 0.002661 0.0
0.934535 -0.002218 0.0
0.933439 -0.007359 0.0
0.934384 -0.012405 0.0
0.937135 -0.016998 0.0
0.941369 -0.020837 0.0
0.946716 -0.023715 0.0
0.952785 -0.025524 0.0
0.959198 -0.026252 0.0
0.965601 -0.025963 0.0
0.971680 -0.024775 0.0
0.977157 -0.022843 0.0
0.981797 -0.020347 0.0
0.985375 -0.017389 0.0
1.000501 -0.015805 0.0
1.002549 -0.047810 0.0
1.006989 -0.082126 0.0
1.014837 -0.120839 0.0
1.028217 -0.166263 0.0
1.051174 -0.220775 0.0
1.091010 -0.286091 0.0
1.159085 -0.358602 0.0
1.282485 -0.452922 0.0
1.397178 -0.358603 0.0
1.437178 -0.253870 0.0
1.439840 -0.174322 0.0
1.430597 -0.112301 0.0
1.417017 -0.060698 0.0
1.400133 -0.017768 0.0
1.378545 0.018327 0.0
1.351124 0.046066 0.0
1.318872 0.064008 0.0
1.283497 0.071290 0.0
1.247013 0.067692 0.0
1.211640 0.053667 0.0
1.179649 0.030445 0.0
1.152228 -0.000892 0.0
1.132592 -0.040868 0.0
1.127984 -0.079438 0.0
1.144435 -0.103317 0.0
1.182849 -0.101122 0.0
1.237837 -0.066337 0.0
1.294748 -0.003645 0.0
1.337205 0.064808 0.0
1.361731 0.124330 0.0
1.372990 0.173218 0.0
1.374286 0.211732 0.0
1.367699 0.240619 0.0
1.354585 0.260624 0.0
1.335913 0.272336 0.0
1.312474 0.276228 0.0
1.284981 0.272735 0.0
1.254135 0.262331 0.0
1.220691 0.245584 0.0
1.185512 0.223167 0.0
1.149608 0.195869 0.0
1.114076 0.164691 0.0
1.079784 0.131182 0.0
1.046697 0.097926 0.0
1.013129 0.068473 0.0
0.975919 0.045645 0.0
0.932559 0.028844 0.0
0.883890 0.013337 0.0
0.835232 -0.006350 0.0
0.795278 -0.032614 0.0
0.771899 -0.062983 0.0
0.767663 -0.092356 0.0
0.780511 -0.116268 0.0
0.807284 -0.131711 0.0
0.845476 -0.136922 0.0
0.893343 -0.131059 0.0
0.949426 -0.114081 0.0
1.012020 -0.086835 0.0
1.078530 -0.051492 0.0
1.143243 -0.013105 0.0
1.197797 0.022752 0.0
1.238112 0.051923 0.0
1.265561 0.073967 0.0
1.282247 0.089789 0.0
1.289851 0.100201 0.0
1.289816 0.105987 0.0
1.283419 0.107899 0.0
1.271806 0.106650 0.0
1.256011 0.102901 0.0
1.236965 0.097260 0.0
1.215501 0.090289 0.0
1.192367 0.082496 0.0
1.168219 0.074354 0.0
1.143628 0.066310 0.0
1.119090 0.058770 0.0
1.095021 0.052061 0.0
1.071751 0.046386 0.0
1.049534 0.041792 0.0
1.028571 0.038129 0.0
1.009040 0.035072 0.0
0.991129 0.032170 0.0
0.975056 0.028946 0.0
0.961068 0.024997 0.0
0.949423 0.020077 0.0
0.940344 0.014140 0.0
0.933986 0.007336 0.0
0.930391 -0.000028 0.0
0.929476 -0.007538 0.0
0.931012 -0.014708 0.0
0.934636 -0.021071 0.0
0.939898 -0.026262 0.0
0.946314 -0.030053 0.0
0.953412 -0.032352 0.0
0.960755 -0.033180 0.0
0.967959 -0.032643 0.0
0.974692 -0.030906 0.0
0.980670 -0.028166 0.0
0.985651 -0.024645 0.0
0.989384 -0.020401 0.0
0.999967 -0.016273 0.0
0.999826 -0.049248 0.0
0.999681 -0.084983 0.0
1.000122 -0.126271 0.0
1.002694 -0.176782 0.0
1.011094 -0.241612 0.0
1.033948 -0.327944 0.0
1.090430 -0.441306 0.0
1.244026 -0.647215 0.0
1.354346 -0.389324 0.0
1.319151 -0.227954 0.0
1.262374 -0.146123 0.0
1.220733 -0.089616 0.0
1.192062 -0.041132 0.0
1.166045 0.005566 0.0
1.135004 0.047622 0.0
1.097732 0.081463 0.0
1.053839 0.104755 0.0
1.003588 0.116170 0.0
0.947661 0.115224 0.0
0.887573 0.101595 0.0
0.827101 0.074979 0.0
0.773587 0.035509 0.0
0.734394 -0.018439 0.0
0.719975 -0.082840 0.0
0.739504 -0.135895 0.0
0.790669 -0.158124 0.0
0.866047 -0.139701 0.0
0.957856 -0.079000 0.0
1.048629 0.006933 0.0
1.119385 0.086922 0.0
1.168629 0.150122 0.0
1.202446 0.199716 0.0
1.223754 0.237915 0.0
1.234151 0.266046 0.0
1.234821 0.284915 0.0
1.226845 0.295064 0.0
1.211295 0.296944 0.0
1.189244 0.291019 0.0
1.161765 0.277819 0.0
1.129899 0.257978 0.0
1.094480 0.232382 0.0
1.055589 0.202601 0.0
1.011639 0.171516 0.0
0.959117 0.143200 0.0
0.895032 0.120853 0.0
0.821772 0.103735 0.0
0.749341 0.086545 0.0
0.690896 0.062750 0.0
0.655194 0.028598 0.0
0.642493 -0.014907 0.0
0.647004 -0.061821 0.0
0.662620 -0.104898 0.0
0.685775 -0.139730 0.0
0.715006 -0.164252 0.0
0.749993 -0.177560 0.0
0.790936 -0.179231 0.0
0.838102 -0.169158 0.0
0.891451 -0.147701 0.0
0.950304 -0.115989 0.0
1.013118 -0.076134 0.0
1.076564 -0.032219 0.0
1.133692 0.009451 0.0
1.178523 0.044159 0.0
1.210686 0.070749 0.0
1.232013 0.090310 0.0
1.244083 0.103844 0.0
1.248268 0.112254 0.0
1.245803 0.116373 0.0
1.237803 0.116971 0.0
1.225285 0.114755 0.0
1.209167 0.110376 0.0
1.190276 0.104434 0.0
1.169351 0.097491 0.0
1.147038 0.090077 0.0
1.123902 0.082676 0.0
1.100425 0.075699 0.0
1.077017 0.069426 0.0
1.054032 0.063954 0.0
1.031803 0.059159 0.0
1.010673 0.054703 0.0
0.991023 0.050099 0.0
0.973278 0.044834 0.0
0.957883 0.038491 0.0
0.945254 0.030857 0.0
0.935721 0.021971 0.0
0.929472 0.012113 0.0
0.926513 0.001748 0.0
0.926654 -0.008539 0.0
0.929506 -0.018094 0.0
0.934536 -0.026339 0.0
0.941157 -0.032876 0.0
0.948796 -0.037494 0.0
0.956935 -0.040148 0.0
0.965128 -0.040920 0.0
0.972998 -0.039977 0.0
0.980230 -0.037537 0.0
0.986558 -0.033840 0.0
0.991751 -0.029147 0.0
0.995528 -0.023408 0.0
0.999351 -0.015591 0.0
0.996668 -0.047106 0.0
0.991055 -0.081368 0.0
0.982164 -0.121437 0.0
0.969748 -0.171771 0.0
0.954349 -0.239622 0.0
0.939662 -0.338101 0.0
0.941269 -0.489237 0.0
1.044679 -0.856290 0.0
1.053497 -0.192991 0.0
0.879290 -0.098051 0.0
0.750259 -0.079781 0.0
0.690452 -0.054510 0.0
0.660179 -0.017294 0.0
0.636137 0.031787 0.0
0.608182 0.080398 0.0
0.570570 0.123571 0.0
0.520271 0.156840 0.0
0.457488 0.177119 0.0
0.385495 0.182196 0.0
0.312370 0.167837 0.0
0.251927 0.129651 0.0
0.219507 0.066770 0.0
0.225721 -0.016721 0.0
0.267145 -0.111562 0.0
0.331076 -0.190634 0.0
0.409073 -0.232547 0.0
0.499063 -0.230645 0.0
0.601848 -0.182650 0.0
0.716605 -0.094947 0.0
0.828713 0.005938 0.0
0.919161 0.091413 0.0
0.986854 0.156915 0.0
1.037719 0.208542 0.0
1.073953 0.248788 0.0
1.096779 0.278677 0.0
1.107321 0.298735 0.0
1.106760 0.309383 0.0
1.096301 0.311091 0.0
1.077058 0.304470 0.0
1.049815 0.290436 0.0
1.014512 0.270645 0.0
0.969641 0.248100 0.0
0.912639 0.226970 0.0
0.842741 0.210166 0.0
0.765054 0.195660 0.0
0.691114 0.176127 0.0
0.633580 0.144117 0.0
0.599636 0.097566 0.0
0.588864 0.040255 0.0
0.595688 -0.020687 0.0
0.612936 -0.077801 0.0
0.635146 -0.126744 0.0
0.659720 -0.165614 0.0
0.685903 -0.193780 0.0
0.714002 -0.211118 0.0
0.744950 -0.217563 0.0
0.779936 -0.212978 0.0
0.820010 -0.197305 0.0
0.865690 -0.170919 0.0
0.916667 -0.134996 0.0
0.971645 -0.091781 0.0
1.028196 -0.044666 0.0
1.081116 0.000525 0.0
1.124615 0.038721 0.0
1.157125 0.068501 0.0
1.179808 0.090900 0.0
1.193876 0.106944 0.0
1.200464 0.117561 0.0
1.200635 0.123612 0.0
1.195380 0.125889 0.0
1.185611 0.125129 0.0
1.172160 0.122021 0.0
1.155775 0.117214 0.0
1.137122 0.111321 0.0
1.116782 0.104908 0.0
1.095271 0.098456 0.0
1.073053 0.092295 0.0
1.050581 0.086542 0.0
1.028332 0.081050 0.0
1.006842 0.075431 0.0
0.986719 0.069143 0.0
0.968618 0.061637 0.0
0.953183 0.052519 0.0
0.940971 0.041671 0.0
0.932363 0.029297 0.0
0.927512 0.015887 0.0
0.926314 0.002132 0.0
0.928392 -0.011142 0.0
0.933141 -0.023092 0.0
0.939856 -0.033086 0.0
0.947857 -0.040751 0.0
0.956545 -0.045946 0.0
0.965421 -0.048712 0.0
0.974085 -0.049212 0.0
0.982214 -0.047683 0.0
0.989547 -0.044396 0.0
0.995864 -0.039626 0.0
1.000970 -0.033660 0.0
1.004578 -0.026280 0.0
0.998763 -0.013705 0.0
0.993648 -0.041194 0.0
0.982746 -0.070765 0.0
0.964574 -0.104979 0.0
0.936400 -0.147639 0.0
0.893210 -0.205165 0.0
0.825162 -0.289825 0.0
0.713144 -0.427101 0.0
0.321505 -0.736593 0.0
-0.483065 0.259341 0.0
-0.483065 0.000000 0.0
-0.028040 -0.019182 0.0
-0.038622 -0.053579 0.0
0.015828 -0.042403 0.0
0.088650 0.008115 0.0
0.133554 0.087119 0.0
0.133595 0.154420 0.0
0.103496 0.206389 0.0
0.055392 0.238457 0.0
0.002266 0.245977 0.0
-0.042605 0.222051 0.0
-0.068747 0.162021 0.0
-0.069802 0.067875 0.0
-0.043756 -0.050085 0.0
0.004098 -0.167477 0.0
0.066594 -0.261146 0.0
0.139752 -0.313188 0.0
0.223225 -0.323467 0.0
0.319481 -0.288870 0.0
0.429460 -0.213463 0.0
0.551308 -0.109503 0.0
0.670641 -0.002927 0.0
0.768975 0.085229 0.0
0.844454 0.153883 0.0
0.902391 0.209276 0.0
0.944538 0.253217 0.0
0.971936 0.286256 0.0
0.985597 0.308763 0.0
0.986494 0.321273 0.0
0.975330 0.324693 0.0
0.952149 0.320637 0.0
0.916014 0.311881 0.0
0.865625 0.302124 0.0
0.801771 0.293801 0.0
0.730500 0.284503 0.0
0.663262 0.266248 0.0
0.612071 0.230670 0.0
0.583511 0.175668 0.0
0.576971 0.106499 0.0
0.587323 0.031743 0.0
0.607798 -0.039475 0.0
0.632502 -0.100966 0.0
0.657875 -0.151162 0.0
0.682111 -0.190007 0.0
0.704587 -0.218045 0.0
0.725615 -0.235981 0.0
0.746297 -0.244330 0.0
0.768317 -0.243216 0.0
0.793581 -0.232405 0.0
0.823720 -0.211639 0.0
0.859608 -0.181140 0.0
0.901057 -0.142064 0.0
0.946791 -0.096669 0.0
0.994605 -0.048207 0.0
1.040330 -0.001772 0.0
1.079082 0.037732 0.0
1.109009 0.069059 0.0
1.130649 0.093077 0.0
1.144783 0.110706 0.0
1.152247 0.122831 0.0
1.153876 0.130295 0.0
1.150472 0.133896 0.0
1.142785 0.134393 0.0
1.131499 0.132513 0.0
1.117231 0.128943 0.0
1.100539 0.124316 0.0
1.081943 0.119154 0.0
1.061961 0.113796 0.0
1.041154 0.108320 0.0
1.020168 0.102507 0.0
0.999752 0.095880 0.0
0.980740 0.087830 0.0
0.963985 0.077807 0.0
0.950265 0.065505 0.0
0.940173 0.050990 0.0
0.934037 0.034721 0.0
0.931872 0.017479 0.0
0.933378 0.000232 0.0
0.937941 -0.015883 0.0
0.944749 -0.029908 0.0
0.953006 -0.041243 0.0
0.962028 -0.049617 0.0
0.971271 -0.055009 0.0
0.980315 -0.057570 0.0
0.988851 -0.057554 0.0
0.996647 -0.055267 0.0
1.003528 -0.051025 0.0
1.009344 -0.045131 0.0
1.013959 -0.037877 0.0
1.017121 -0.028833 0.0
0.998330 -0.010797 0.0
0.991443 -0.032100 0.0
0.976752 -0.054266 0.0
0.952102 -0.078656 0.0
0.913339 -0.107025 0.0
0.852442 -0.141692 0.0
0.752556 -0.185364 0.0
0.573533 -0.240522 0.0
0.228544 -0.287742 0.0
0.000000 0.259341 0.0
-0.000000 -0.000000 0.0
0.000000 0.000000 0.0
-0.034791 -0.035518 0.0
-0.075544 -0.073433 0.0
-0.082252 -0.026967 0.0
-0.084107 0.079151 0.0
-0.095091 0.173331 0.0
-0.120630 0.243116 0.0
-0.153959 0.283163 0.0
-0.186564 0.287003 0.0
-0.209172 0.248504 0.0
-0.213763 0.166301 0.0
-0.195080 0.045967 0.0
-0.156837 -0.092465 0.0
-0.109293 -0.220495 0.0
-0.058115 -0.321802 0.0
-0.001257 -0.382548 0.0
0.064636 -0.403473 0.0
0.142390 -0.382872 0.0
0.235230 -0.322280 0.0
0.342554 -0.229857 0.0
0.459754 -0.119106 0.0
0.573445 -0.010618 0.0
0.667936 0.079759 0.0
0.741041 0.152358 0.0
0.796935 0.212095 0.0
0.836864 0.260051 0.0
0.861498 0.296672 0.0
0.871274 0.322691 0.0
0.866220 0.339493 0.0
0.845869 0.349370 0.0
0.809876 0.355276 0.0
0.759885 0.359108 0.0
0.701895 0.358661 0.0
0.646469 0.346342 0.0
0.604916 0.313200 0.0
0.583935 0.255889 0.0
0.583536 0.179408 0.0
0.599271 0.093564 0.0
0.625262 0.008336 0.0
0.655517 -0.066799 0.0
0.685677 -0.128506 0.0
0.713507 -0.176824 0.0
0.737652 -0.212726 0.0
0.757448 -0.237599 0.0
0.772938 -0.252946 0.0
0.784951 -0.260060 0.0
0.795140 -0.259695 0.0
0.805826 -0.251876 0.0
0.819566 -0.236047 0.0
0.838512 -0.211566 0.0
0.863812 -0.178387 0.0
0.895312 -0.137579 0.0
0.931642 -0.091440 0.0
0.970551 -0.043172 0.0
1.008332 0.002599 0.0
1.041030 0.041568 0.0
1.067012 0.072946 0.0
1.086341 0.097374 0.0
1.099422 0.115619 0.0
1.106802 0.128499 0.0
1.109069 0.136829 0.0
1.106807 0.141409 0.0
1.100572 0.143017 0.0
1.090890 0.142389 0.0
1.078267 0.140186 0.0
1.063225 0.136923 0.0
1.046349 0.132886 0.0
1.028329 0.128057 0.0
1.009989 0.122096 0.0
0.992272 0.114424 0.0
0.976175 0.104395 0.0
0.962645 0.091526 0.0
0.952457 0.075694 0.0
0.946108 0.057241 0.0
0.943754 0.036960 0.0
0.945197 0.015962 0.0
0.949890 -0.004450 0.0
0.956984 -0.022858 0.0
0.965572 -0.038328 0.0
0.974882 -0.050390 0.0
0.984318 -0.058928 0.0
0.993445 -0.064068 0.0
1.001971 -0.066081 0.0
1.009704 -0.065312 0.0
1.016527 -0.062129 0.0
1.022368 -0.056884 0.0
1.027169 -0.049890 0.0
1.030873 -0.041436 0.0
1.033301 -0.030864 0.0
0.998137 -0.007264 0.0
0.990494 -0.021105 0.0
0.974334 -0.034409 0.0
0.947622 -0.047150 0.0
0.906704 -0.058850 0.0
0.845605 -0.067871 0.0
0.755130 -0.068824 0.0
0.624098 -0.047007 0.0
0.455048 0.037981 0.0
0.181534 0.163091 0.0
0.000000 0.000000 0.0
-0.000000 -0.000000 0.0
0.000000 0.000000 0.0
-0.032789 -0.033736 0.0
-0.080263 -0.011535 0.0
-0.114348 0.099659 0.0
-0.148607 0.198067 0.0
-0.175873 0.271186 0.0
-0.198726 0.311274 0.0
-0.215383 0.308154 0.0
-0.219258 0.253836 0.0
-0.202599 0.148902 0.0
-0.162590 0.004674 0.0
-0.111311 -0.140693 0.0
-0.063778 -0.267344 0.0
-0.024777 -0.365132 0.0
0.008164 -0.429017 0.0
0.042615 -0.457349 0.0
0.086177 -0.450311 0.0
0.145456 -0.406961 0.0
0.223416 -0.330460 0.0
0.317304 -0.229591 0.0
0.420022 -0.116542 0.0
0.518875 -0.007660 0.0
0.601290 0.084257 0.0
0.665042 0.160550 0.0
0.712428 0.224282 0.0
0.743904 0.276331 0.0
0.759417 0.317743 0.0
0.758728 0.350186 0.0
0.742003 0.375752 0.0
0.711156 0.395734 0.0
0.671507 0.408290 0.0
0.632119 0.406858 0.0
0.603167 0.382524 0.0
0.591513 0.330225 0.0
0.598259 0.253100 0.0
0.620126 0.160729 0.0
0.652433 0.064201 0.0
0.689615 -0.025475 0.0
0.726572 -0.100199 0.0
0.760526 -0.159219 0.0
0.789986 -0.203400 0.0
0.813969 -0.234277 0.0
0.831893 -0.253767 0.0
0.843593 -0.263967 0.0
0.849438 -0.266898 0.0
0.850543 -0.264151 0.0
0.848933 -0.256496 0.0
0.847442 -0.243676 0.0
0.849198 -0.224638 0.0
0.856820 -0.198236 0.0
0.871685 -0.164095 0.0
0.893621 -0.123190 0.0
0.921118 -0.077828 0.0
0.951789 -0.031198 0.0
0.982104 0.012352 0.0
1.008831 0.049454 0.0
1.030656 0.079713 0.0
1.047317 0.103538 0.0
1.058926 0.121590 0.0