# vtk DataFile Version 3.0
Vector Field
ASCII
DATASET RECTILINEAR_GRID
DIMENSIONS 100 26 1
X_COORDINATES 100 double
0.050000 0.150000 0.250000 0.350000 0.450000 0.550000 0.650000 0.750000 0.850000 0.950000 1.050000 1.150000 1.250000 1.350000 1.450000 1.550000 1.650000 1.750000 1.850000 1.950000 2.050000 2.150000 2.250000 2.350000 2.450000 2.550000 2.650000 2.750000 2.850000 2.950000 3.050000 3.150000 3.250000 3.350000 3.450000 3.550000 3.650000 3.750000 3.850000 3.950000 4.050000 4.150000 4.250000 4.350000 4.450000 4.550000 4.650000 4.750000 4.850000 4.950000 5.050000 5.150000 5.250000 5.350000 5.450000 5.550000 5.650000 5.750000 5.850000 5.950000 6.050000 6.150000 6.250000 6.350000 6.450000 6.550000 6.650000 6.750000 6.850000 6.950000 7.050000 7.150000 7.250000 7.350000 7.450000 7.550000 7.650000 7.750000 7.850000 7.950000 8.050000 8.150000 8.250000 8.350000 8.450000 8.550000 8.650000 8.750000 8.850000 8.950000 9.050000 9.150000 9.250000 9.350000 9.450000 9.550000 9.650000 9.750000 9.850000 9.950000 
Y_COORDINATES 26 double
0.050000 0.150000 0.250000 0.350000 0.450000 0.550000 0.650000 0.750000 0.850000 0.950000 1.050000 1.150000 1.250000 1.350000 1.450000 1.550000 1.650000 1.750000 1.850000 1.950000 2.050000 2.150000 2.250000 2.350000 2.450000 2.550000 
Z_COORDINATES 1 double
0.0
POINT_DATA 2600
VECTORS Vektorfeld double
0.997626 0.002374 0.0
0.992661 0.002591 0.0
0.988796 0.001274 0.0
0.988205 -0.000682 0.0
0.991786 -0.002899 0.0
0.999810 -0.005125 0.0
1.012059 -0.007125 0.0
1.027848 -0.008664 0.0
1.046048 -0.009536 0.0
1.065210 -0.009626 0.0
1.083799 -0.008963 0.0
1.100472 -0.007710 0.0
1.114265 -0.006083 0.0
1.124636 -0.004288 0.0
1.131397 -0.002473 0.0
1.134594 -0.000725 0.0
1.134467 0.000852 0.0
1.131196 0.002418 0.0
1.124665 0.004112 0.0
1.114498 0.006055 0.0
1.100121 0.008323 0.0
1.080873 0.010925 0.0
1.056158 0.013791 0.0
1.025580 0.016787 0.0
0.989049 0.019744 0.0
0.946820 0.022484 0.0
0.899501 0.024836 0.0
0.848013 0.026652 0.0
0.793555 0.027806 0.0
0.737556 0.028193 0.0
0.681640 0.027722 0.0
0.627594 0.026323 0.0
0.577299 0.023973 0.0
0.532588 0.020737 0.0
0.495049 0.016802 0.0
0.465809 0.012438 0.0
0.445551 0.007820 0.0
0.434864 0.002868 0.0
0.433755 -0.001759 0.0
0.440106 -0.004592 0.0
0.450685 -0.005986 0.0
0.463100 -0.006429 0.0
0.475849 -0.006320 0.0
0.488095 -0.005926 0.0
0.499433 -0.005412 0.0
0.509719 -0.004875 0.0
0.518959 -0.004365 0.0
0.527230 -0.003906 0.0
0.534639 -0.003503 0.0
0.541294 -0.003152 0.0
0.547289 -0.002844 0.0
0.552701 -0.002568 0.0
0.557588 -0.002318 0.0
0.561992 -0.002086 0.0
0.565948 -0.001869 0.0
0.569481 -0.001664 0.0
0.572617 -0.001472 0.0
0.575381 -0.001292 0.0
0.577799 -0.001126 0.0
0.579900 -0.000975 0.0
0.581713 -0.000838 0.0
0.583268 -0.000716 0.0
0.584593 -0.000609 0.0
0.585718 -0.000516 0.0
0.586669 -0.000435 0.0
0.587469 -0.000366 0.0
0.588142 -0.000307 0.0
0.588705 -0.000257 0.0
0.589177 -0.000215 0.0
0.589571 -0.000179 0.0
0.589901 -0.000150 0.0
0.590176 -0.000125 0.0
0.590406 -0.000105 0.0
0.590598 -0.000088 0.0
0.590760 -0.000074 0.0
0.590896 -0.000062 0.0
0.591011 -0.000053 0.0
0.591109 -0.000045 0.0
0.591193 -0.000039 0.0
0.591268 -0.000035 0.0
0.591335 -0.000032 0.0
0.591396 -0.000030 0.0
0.591456 -0.000029 0.0
0.591516 -0.000030 0.0
0.591578 -0.000032 0.0
0.591646 -0.000036 0.0
0.591724 -0.000042 0.0
0.591815 -0.000050 0.0
0.591925 -0.000060 0.0
0.592059 -0.000074 0.0
0.592227 -0.000093 0.0
0.592439 -0.000118 0.0
0.592708 -0.000151 0.0
0.593056 -0.000196 0.0
0.593509 -0.000257 0.0
0.594108 -0.000342 0.0
0.594913 -0.000463 0.0
0.596015 -0.000640 0.0
0.597572 -0.000917 0.0
0.599635 -0.001146 0.0
1.002918 0.001829 0.0
1.011239 -0.000220 0.0
1.023975 -0.004787 0.0
1.040531 -0.010586 0.0
1.060867 -0.016913 0.0
1.084918 -0.023186 0.0
1.112393 -0.028787 0.0
1.142649 -0.033045 0.0
1.174639 -0.035345 0.0
1.206978 -0.035318 0.0
1.238192 -0.033074 0.0
1.267059 -0.029139 0.0
1.292810 -0.024199 0.0
1.315144 -0.018878 0.0
1.334116 -0.013614 0.0
1.349953 -0.008618 0.0
1.362749 -0.003923 0.0
1.372439 0.000774 0.0
1.378873 0.005853 0.0
1.381625 0.011728 0.0
1.380006 0.018646 0.0
1.373224 0.026631 0.0
1.360563 0.035461 0.0
1.341538 0.044719 0.0
1.316006 0.053877 0.0
1.284202 0.062384 0.0
1.246732 0.069726 0.0
1.204523 0.075457 0.0
1.158775 0.079207 0.0
1.110897 0.080671 0.0
1.062453 0.079604 0.0
1.015094 0.075846 0.0
0.970457 0.069383 0.0
0.930062 0.060433 0.0
0.895201 0.049507 0.0
0.866840 0.037334 0.0
0.845374 0.024647 0.0
0.829983 0.012119 0.0
0.818966 0.001115 0.0
0.811926 -0.006777 0.0
0.809085 -0.011539 0.0
0.809739 -0.013945 0.0
0.812981 -0.014795 0.0
0.817983 -0.014700 0.0
0.824098 -0.014091 0.0
0.830867 -0.013252 0.0
0.837997 -0.012357 0.0
0.845312 -0.011499 0.0
0.852712 -0.010719 0.0
0.860142 -0.010021 0.0
0.867563 -0.009391 0.0
0.874939 -0.008809 0.0
0.882228 -0.008253 0.0
0.889378 -0.007707 0.0
0.896335 -0.007161 0.0
0.903042 -0.006612 0.0
0.909444 -0.006062 0.0
0.915496 -0.005517 0.0
0.921161 -0.004985 0.0
0.926416 -0.004472 0.0
0.931248 -0.003986 0.0
0.935655 -0.003531 0.0
0.939647 -0.003112 0.0
0.943239 -0.002730 0.0
0.946453 -0.002385 0.0
0.949315 -0.002078 0.0
0.951852 -0.001805 0.0
0.954094 -0.001564 0.0
0.956069 -0.001354 0.0
0.957805 -0.001170 0.0
0.959326 -0.001010 0.0
0.960659 -0.000872 0.0
0.961824 -0.000753 0.0
0.962842 -0.000650 0.0
0.963730 -0.000561 0.0
0.964505 -0.000486 0.0
0.965181 -0.000421 0.0
0.965772 -0.000366 0.0
0.966287 -0.000319 0.0
0.966737 -0.000280 0.0
0.967132 -0.000248 0.0
0.967478 -0.000222 0.0
0.967782 -0.000202 0.0
0.968052 -0.000187 0.0
0.968293 -0.000178 0.0
0.968509 -0.000175 0.0
0.968707 -0.000178 0.0
0.968890 -0.000188 0.0
0.969064 -0.000206 0.0
0.969234 -0.000233 0.0
0.969405 -0.000273 0.0
0.969583 -0.000328 0.0
0.969775 -0.000403 0.0
0.969989 -0.000506 0.0
0.970234 -0.000646 0.0
0.970521 -0.000839 0.0
0.970863 -0.001112 0.0
0.971273 -0.001504 0.0
0.971768 -0.002105 0.0
0.972399 -0.002652 0.0
1.001826 -0.002915 0.0
1.008310 -0.010279 0.0
1.020038 -0.019192 0.0
1.036487 -0.029186 0.0
1.057556 -0.039717 0.0
1.083215 -0.050092 0.0
1.113240 -0.059382 0.0
1.146978 -0.066444 0.0
1.183169 -0.070128 0.0
1.219911 -0.069617 0.0
1.255096 -0.065174 0.0
1.287106 -0.057915 0.0
1.315122 -0.049189 0.0
1.339037 -0.040137 0.0
1.359217 -0.031506 0.0
1.376250 -0.023597 0.0
1.390759 -0.016249 0.0
1.403178 -0.009009 0.0
1.413556 -0.001175 0.0
1.421560 0.008000 0.0
1.426502 0.019051 0.0
1.427470 0.032041 0.0
1.423600 0.046582 0.0
1.414280 0.061942 0.0
1.399262 0.077205 0.0
1.378682 0.091439 0.0
1.353015 0.103807 0.0
1.322992 0.113607 0.0
1.289521 0.120276 0.0
1.253630 0.123372 0.0
1.216402 0.122574 0.0
1.178921 0.117717 0.0
1.142208 0.108862 0.0
1.107167 0.096390 0.0
1.074536 0.081041 0.0
1.044831 0.063867 0.0
1.018269 0.046142 0.0
0.994869 0.029415 0.0
0.974616 0.015090 0.0
0.957294 0.003611 0.0
0.942958 -0.004751 0.0
0.931909 -0.010338 0.0
0.923970 -0.013705 0.0
0.918684 -0.015505 0.0
0.915583 -0.016298 0.0
0.914275 -0.016506 0.0
0.914463 -0.016421 0.0
0.915929 -0.016217 0.0
0.918510 -0.015983 0.0
0.922066 -0.015743 0.0
0.926464 -0.015488 0.0
0.931564 -0.015189 0.0
0.937219 -0.014816 0.0
0.943275 -0.014350 0.0
0.949580 -0.013780 0.0
0.955990 -0.013109 0.0
0.962373 -0.012351 0.0
0.968619 -0.011526 0.0
0.974635 -0.010658 0.0
0.980351 -0.009770 0.0
0.985720 -0.008887 0.0
0.990709 -0.008026 0.0
0.995304 -0.007203 0.0
0.999503 -0.006429 0.0
1.003313 -0.005711 0.0
1.006750 -0.005052 0.0
1.009835 -0.004453 0.0
1.012592 -0.003915 0.0
1.015046 -0.003433 0.0
1.017224 -0.003004 0.0
1.019151 -0.002625 0.0
1.020853 -0.002292 0.0
1.022353 -0.001998 0.0
1.023673 -0.001742 0.0
1.024833 -0.001518 0.0
1.025852 -0.001323 0.0
1.026745 -0.001153 0.0
1.027529 -0.001007 0.0
1.028215 -0.000880 0.0
1.028817 -0.000771 0.0
1.029345 -0.000679 0.0
1.029808 -0.000600 0.0
1.030215 -0.000535 0.0
1.030573 -0.000482 0.0
1.030890 -0.000440 0.0
1.031170 -0.000410 0.0
1.031420 -0.000391 0.0
1.031646 -0.000383 0.0
1.031850 -0.000389 0.0
1.032039 -0.000409 0.0
1.032216 -0.000446 0.0
1.032386 -0.000503 0.0
1.032552 -0.000586 0.0
1.032718 -0.000702 0.0
1.032885 -0.000862 0.0
1.033055 -0.001080 0.0
1.033220 -0.001379 0.0
1.033362 -0.001790 0.0
1.033419 -0.002371 0.0
1.033369 -0.002967 0.0
1.001441 -0.006183 0.0
1.007002 -0.019057 0.0
1.017798 -0.032938 0.0
1.033750 -0.047841 0.0
1.055055 -0.063437 0.0
1.082014 -0.078989 0.0
1.114741 -0.093237 0.0
1.152761 -0.104347 0.0
1.194626 -0.110279 0.0
1.237424 -0.109007 0.0
1.277652 -0.101198 0.0
1.312960 -0.089210 0.0
1.342558 -0.075509 0.0
1.366778 -0.061952 0.0
1.386551 -0.049643 0.0
1.403033 -0.038976 0.0
1.417344 -0.029689 0.0
1.430315 -0.020958 0.0
1.442235 -0.011526 0.0
1.452672 -0.000089 0.0
1.460590 0.014280 0.0
1.464705 0.031728 0.0
1.463850 0.051620 0.0
1.457304 0.072771 0.0
1.444928 0.093770 0.0
1.427110 0.113272 0.0
1.404587 0.130165 0.0
1.378262 0.143599 0.0
1.349065 0.152952 0.0
1.317865 0.157786 0.0
1.285430 0.157823 0.0
1.252402 0.152977 0.0
1.219304 0.143414 0.0
1.186550 0.129634 0.0
1.154477 0.112501 0.0
1.123378 0.093210 0.0
1.093552 0.073187 0.0
1.065378 0.053944 0.0
1.039390 0.036801 0.0
1.016147 0.022463 0.0
0.995900 0.010979 0.0
0.978633 0.002250 0.0
0.964344 -0.004066 0.0
0.952974 -0.008488 0.0
0.944304 -0.011543 0.0
0.938065 -0.013715 0.0
0.934027 -0.015362 0.0
0.931988 -0.016704 0.0
0.931760 -0.017848 0.0
0.933144 -0.018818 0.0
0.935927 -0.019594 0.0
0.939878 -0.020134 0.0
0.944754 -0.020402 0.0
0.950313 -0.020380 0.0
0.956325 -0.020068 0.0
0.962582 -0.019488 0.0
0.968904 -0.018678 0.0
0.975144 -0.017684 0.0
0.981185 -0.016556 0.0
0.986940 -0.015344 0.0
0.992351 -0.014093 0.0
0.997381 -0.012840 0.0
1.002013 -0.011617 0.0
1.006245 -0.010446 0.0
1.010083 -0.009343 0.0
1.013546 -0.008319 0.0
1.016653 -0.007378 0.0
1.019429 -0.006523 0.0
1.021901 -0.005751 0.0
1.024096 -0.005059 0.0
1.026039 -0.004442 0.0
1.027756 -0.003894 0.0
1.029271 -0.003410 0.0
1.030604 -0.002984 0.0
1.031777 -0.002609 0.0
1.032807 -0.002280 0.0
1.033711 -0.001993 0.0
1.034504 -0.001743 0.0
1.035200 -0.001526 0.0
1.035810 -0.001337 0.0
1.036344 -0.001175 0.0
1.036813 -0.001036 0.0
1.037224 -0.000918 0.0
1.037585 -0.000819 0.0
1.037903 -0.000738 0.0
1.038184 -0.000673 0.0
1.038432 -0.000626 0.0
1.038652 -0.000594 0.0
1.038850 -0.000580 0.0
1.039028 -0.000584 0.0
1.039189 -0.000609 0.0
1.039337 -0.000658 0.0
1.039474 -0.000734 0.0
1.039600 -0.000846 0.0
1.039715 -0.001000 0.0
1.039813 -0.001209 0.0
1.039883 -0.001486 0.0
1.039904 -0.001846 0.0
1.039833 -0.002301 0.0
1.039645 -0.002799 0.0
1.001244 -0.008868 0.0
1.006187 -0.026878 0.0
1.016126 -0.045852 0.0
1.031399 -0.066151 0.0
1.052685 -0.087719 0.0
1.080905 -0.109886 0.0
1.116913 -0.131074 0.0
1.160834 -0.148452 0.0
1.211415 -0.158620 0.0
1.263638 -0.155687 0.0
1.310781 -0.141888 0.0
1.349445 -0.122490 0.0
1.379431 -0.101812 0.0
1.402107 -0.082546 0.0
1.419377 -0.066092 0.0
1.433240 -0.052872 0.0
1.445566 -0.042431 0.0
1.457850 -0.033472 0.0
1.470840 -0.023922 0.0
1.484080 -0.011369 0.0
1.495784 0.005938 0.0
1.503579 0.028159 0.0
1.505473 0.054149 0.0
1.500348 0.081913 0.0
1.488112 0.109240 0.0
1.469499 0.134233 0.0
1.445708 0.155518 0.0
1.418065 0.172213 0.0
1.387796 0.183805 0.0
1.355904 0.190024 0.0
1.323139 0.190785 0.0
1.290003 0.186178 0.0
1.256802 0.176512 0.0
1.223715 0.162377 0.0
1.190880 0.144666 0.0
1.158480 0.124543 0.0
1.126811 0.103348 0.0
1.096324 0.082444 0.0
1.067596 0.063017 0.0
1.041212 0.045875 0.0
1.017616 0.031411 0.0
0.997046 0.019655 0.0
0.979535 0.010328 0.0
0.964999 0.003023 0.0
0.953362 -0.002746 0.0
0.944537 -0.007448 0.0
0.938386 -0.011439 0.0
0.934733 -0.014935 0.0
0.933369 -0.018023 0.0
0.934041 -0.020700 0.0
0.936462 -0.022916 0.0
0.940314 -0.024615 0.0
0.945275 -0.025757 0.0
0.951028 -0.026337 0.0
0.957285 -0.026380 0.0
0.963793 -0.025941 0.0
0.970340 -0.025096 0.0
0.976763 -0.023928 0.0
0.982937 -0.022526 0.0
0.988776 -0.020968 0.0
0.994224 -0.019328 0.0
0.999252 -0.017664 0.0
1.003851 -0.016024 0.0
1.008026 -0.014444 0.0
1.011793 -0.012949 0.0
1.015173 -0.011555 0.0
1.018193 -0.010270 0.0
1.020882 -0.009097 0.0
1.023269 -0.008036 0.0
1.025383 -0.007082 0.0
1.027250 -0.006229 0.0
1.028896 -0.005470 0.0
1.030347 -0.004798 0.0
1.031622 -0.004204 0.0
1.032742 -0.003681 0.0
1.033726 -0.003222 0.0
1.034589 -0.002819 0.0
1.035345 -0.002467 0.0
1.036008 -0.002160 0.0
1.036588 -0.001893 0.0
1.037096 -0.001662 0.0
1.037542 -0.001463 0.0
1.037932 -0.001292 0.0
1.038273 -0.001147 0.0
1.038573 -0.001026 0.0
1.038836 -0.000928 0.0
1.039066 -0.000850 0.0
1.039269 -0.000793 0.0
1.039448 -0.000757 0.0
1.039606 -0.000743 0.0
1.039744 -0.000751 0.0
1.039866 -0.000785 0.0
1.039971 -0.000849 0.0
1.040059 -0.000946 0.0
1.040127 -0.001083 0.0
1.040169 -0.001266 0.0
1.040174 -0.001504 0.0
1.040126 -0.001800 0.0
1.040001 -0.002151 0.0
1.039782 -0.002541 0.0
1.001047 -0.011158 0.0
1.005266 -0.033750 0.0
1.013962 -0.057613 0.0
1.027842 -0.083541 0.0
1.048171 -0.111944 0.0
1.076798 -0.142508 0.0
1.115942 -0.173604 0.0
1.167244 -0.201146 0.0
1.231302 -0.220564 0.0
1.297929 -0.212593 0.0
1.352645 -0.186841 0.0
1.391868 -0.155425 0.0
1.418010 -0.125006 0.0
1.434616 -0.098635 0.0
1.444947 -0.077606 0.0
1.451941 -0.062214 0.0
1.458334 -0.051806 0.0
1.466593 -0.044640 0.0
1.478461 -0.037611 0.0
1.494076 -0.026535 0.0
1.511088 -0.007612 0.0
1.525049 0.019952 0.0
1.531980 0.053533 0.0
1.529978 0.089656 0.0
1.518926 0.124785 0.0
1.499994 0.156233 0.0
1.474930 0.182373 0.0
1.445521 0.202410 0.0
1.413313 0.216085 0.0
1.379511 0.223438 0.0
1.344966 0.224682 0.0
1.310221 0.220162 0.0
1.275577 0.210372 0.0
1.241186 0.195995 0.0
1.207150 0.177919 0.0
1.173615 0.157225 0.0
1.140838 0.135112 0.0
1.109211 0.112796 0.0
1.079218 0.091386 0.0
1.051351 0.071756 0.0
1.026019 0.054458 0.0
1.003503 0.039693 0.0
0.983969 0.027334 0.0
0.967505 0.017017 0.0
0.954141 0.008261 0.0
0.943868 0.000642 0.0
0.936639 -0.006148 0.0
0.932325 -0.012259 0.0
0.930699 -0.017709 0.0
0.931452 -0.022440 0.0
0.934218 -0.026361 0.0
0.938593 -0.029397 0.0
0.944170 -0.031512 0.0
0.950562 -0.032727 0.0
0.957422 -0.033107 0.0
0.964461 -0.032759 0.0
0.971446 -0.031810 0.0
0.978204 -0.030395 0.0
0.984613 -0.028643 0.0
0.990597 -0.026673 0.0
0.996112 -0.024586 0.0
1.001145 -0.022466 0.0
1.005700 -0.020376 0.0
1.009795 -0.018363 0.0
1.013459 -0.016460 0.0
1.016721 -0.014687 0.0
1.019617 -0.013054 0.0
1.022181 -0.011565 0.0
1.024445 -0.010219 0.0
1.026441 -0.009009 0.0
1.028198 -0.007927 0.0
1.029744 -0.006965 0.0
1.031101 -0.006111 0.0
1.032292 -0.005358 0.0
1.033337 -0.004693 0.0
1.034253 -0.004109 0.0
1.035055 -0.003597 0.0
1.035757 -0.003148 0.0
1.036372 -0.002757 0.0
1.036910 -0.002415 0.0
1.037381 -0.002119 0.0
1.037792 -0.001862 0.0
1.038151 -0.001642 0.0
1.038465 -0.001453 0.0
1.038739 -0.001294 0.0
1.038978 -0.001162 0.0
1.039186 -0.001055 0.0
1.039366 -0.000972 0.0
1.039523 -0.000913 0.0
1.039657 -0.000878 0.0
1.039770 -0.000868 0.0
1.039864 -0.000884 0.0
1.039938 -0.000929 0.0
1.039991 -0.001006 0.0
1.040019 -0.001118 0.0
1.040016 -0.001270 0.0
1.039973 -0.001463 0.0
1.039880 -0.001699 0.0
1.039722 -0.001969 0.0
1.039488 -0.002270 0.0
1.000770 -0.012976 0.0
1.003904 -0.039285 0.0
1.010530 -0.067400 0.0
1.021618 -0.098722 0.0
1.038989 -0.134463 0.0
1.065635 -0.175263 0.0
1.105952 -0.220311 0.0
1.164886 -0.264674 0.0
1.249908 -0.306116 0.0
1.336708 -0.280468 0.0
1.393424 -0.230398 0.0
1.423272 -0.180938 0.0
1.436153 -0.138515 0.0
1.438795 -0.104373 0.0
1.435375 -0.078779 0.0
1.429109 -0.061769 0.0
1.423123 -0.052658 0.0
1.420842 -0.049767 0.0
1.425689 -0.049199 0.0
1.439665 -0.044538 0.0
1.461634 -0.028590 0.0
1.485322 0.003280 0.0
1.502277 0.046319 0.0
1.508073 0.093075 0.0
1.502666 0.137826 0.0
1.487889 0.176900 0.0
1.466084 0.208574 0.0
1.439354 0.232348 0.0
1.409351 0.248359 0.0
1.377287 0.257030 0.0
1.344023 0.258899 0.0
1.310143 0.254571 0.0
1.276028 0.244722 0.0
1.241931 0.230133 0.0
1.208047 0.211701 0.0
1.174592 0.190435 0.0
1.141842 0.167428 0.0
1.110151 0.143797 0.0
1.079920 0.120609 0.0
1.051551 0.098770 0.0
1.025408 0.078920 0.0
1.001806 0.061349 0.0
0.981023 0.045995 0.0
0.963307 0.032536 0.0
0.948865 0.020549 0.0
0.937826 0.009665 0.0
0.930214 -0.000330 0.0
0.925919 -0.009468 0.0
0.924695 -0.017650 0.0
0.926171 -0.024729 0.0
0.929890 -0.030556 0.0
0.935346 -0.035033 0.0
0.942032 -0.038140 0.0
0.949479 -0.039938 0.0
0.957283 -0.040559 0.0
0.965115 -0.040178 0.0
0.972730 -0.038992 0.0
0.979956 -0.037197 0.0
0.986685 -0.034978 0.0
0.992858 -0.032494 0.0
0.998457 -0.029879 0.0
1.003490 -0.027239 0.0
1.007982 -0.024651 0.0
1.011971 -0.022173 0.0
1.015499 -0.019841 0.0
1.018609 -0.017679 0.0
1.021346 -0.015695 0.0
1.023750 -0.013892 0.0
1.025859 -0.012266 0.0
1.027708 -0.010807 0.0
1.029328 -0.009506 0.0
1.030747 -0.008350 0.0
1.031989 -0.007326 0.0
1.033076 -0.006422 0.0
1.034028 -0.005625 0.0
1.034860 -0.004925 0.0
1.035587 -0.004311 0.0
1.036223 -0.003773 0.0
1.036779 -0.003303 0.0
1.037265 -0.002893 0.0
1.037689 -0.002536 0.0
1.038058 -0.002226 0.0
1.038381 -0.001959 0.0
1.038661 -0.001730 0.0
1.038904 -0.001535 0.0
1.039115 -0.001371 0.0
1.039296 -0.001236 0.0
1.039452 -0.001127 0.0
1.039583 -0.001045 0.0
1.039692 -0.000989 0.0
1.039779 -0.000958 0.0
1.039846 -0.000954 0.0
1.039890 -0.000978 0.0
1.039911 -0.001030 0.0
1.039904 -0.001115 0.0
1.039865 -0.001231 0.0
1.039787 -0.001381 0.0
1.039661 -0.001562 0.0
1.039480 -0.001767 0.0
1.039236 -0.001995 0.0
1.000372 -0.014119 0.0
1.001902 -0.042805 0.0
1.005291 -0.073897 0.0
1.011515 -0.109538 0.0
1.022619 -0.152121 0.0
1.042511 -0.204143 0.0
1.078261 -0.267498 0.0
1.140895 -0.339054 0.0
1.256173 -0.432037 0.0
1.363387 -0.348562 0.0
1.399345 -0.254980 0.0
1.398436 -0.185295 0.0
1.384173 -0.132775 0.0
1.364170 -0.092753 0.0
1.340810 -0.063620 0.0
1.315622 -0.045475 0.0
1.290481 -0.037825 0.0
1.268741 -0.040579 0.0
1.255997 -0.050489 0.0
1.257838 -0.059066 0.0
1.277477 -0.055670 0.0
1.312495 -0.028346 0.0
1.348844 0.024642 0.0
1.373113 0.084687 0.0
1.383958 0.140778 0.0
1.384275 0.188408 0.0
1.376876 0.226270 0.0
1.363748 0.254510 0.0
1.346179 0.273769 0.0
1.325064 0.284798 0.0
1.301101 0.288357 0.0
1.274886 0.285208 0.0
1.246944 0.276143 0.0
1.217743 0.262011 0.0
1.187720 0.243730 0.0
1.157296 0.222285 0.0
1.126899 0.198725 0.0
1.096960 0.174131 0.0
1.067905 0.149561 0.0
1.040150 0.125941 0.0
1.014112 0.103930 0.0
0.990227 0.083826 0.0
0.968959 0.065569 0.0
0.950770 0.048866 0.0
0.936063 0.033369 0.0
0.925108 0.018839 0.0
0.917993 0.005224 0.0
0.914609 -0.007342 0.0
0.914668 -0.018610 0.0
0.917722 -0.028300 0.0
0.923198 -0.036179 0.0
0.930457 -0.042125 0.0
0.938872 -0.046149 0.0
0.947879 -0.048384 0.0
0.957015 -0.049053 0.0
0.965927 -0.048429 0.0
0.974368 -0.046798 0.0
0.982185 -0.044434 0.0
0.989299 -0.041583 0.0
0.995686 -0.038450 0.0
1.001364 -0.035200 0.0
1.006372 -0.031959 0.0
1.010766 -0.028817 0.0
1.014606 -0.025836 0.0
1.017954 -0.023054 0.0
1.020869 -0.020492 0.0
1.023405 -0.018155 0.0
1.025612 -0.016042 0.0
1.027532 -0.014144 0.0
1.029203 -0.012449 0.0
1.030658 -0.010940 0.0
1.031926 -0.009602 0.0
1.033031 -0.008420 0.0
1.033995 -0.007378 0.0
1.034836 -0.006461 0.0
1.035569 -0.005655 0.0
1.036209 -0.004948 0.0
1.036768 -0.004330 0.0
1.037255 -0.003789 0.0
1.037679 -0.003317 0.0
1.038049 -0.002905 0.0
1.038371 -0.002548 0.0
1.038650 -0.002239 0.0
1.038892 -0.001972 0.0
1.039100 -0.001744 0.0
1.039279 -0.001551 0.0
1.039431 -0.001389 0.0
1.039559 -0.001257 0.0
1.039663 -0.001152 0.0
1.039746 -0.001074 0.0
1.039808 -0.001022 0.0
1.039847 -0.000996 0.0
1.039864 -0.000997 0.0
1.039856 -0.001024 0.0
1.039820 -0.001078 0.0
1.039751 -0.001160 0.0
1.039645 -0.001268 0.0
1.039496 -0.001400 0.0
1.039298 -0.001550 0.0
1.039046 -0.001717 0.0
0.999852 -0.014343 0.0
0.999252 -0.043509 0.0
0.998174 -0.075503 0.0
0.997161 -0.113142 0.0
0.997665 -0.160124 0.0
1.003206 -0.221573 0.0
1.022086 -0.304698 0.0
1.072861 -0.415263 0.0
1.216704 -0.614949 0.0
1.319575 -0.375736 0.0
1.282196 -0.226384 0.0
1.221400 -0.152185 0.0
1.170466 -0.100688 0.0
1.126253 -0.060624 0.0
1.084203 -0.030339 0.0
1.040679 -0.010043 0.0
0.994253 -0.001690 0.0
0.947157 -0.007879 0.0
0.906619 -0.029907 0.0
0.885765 -0.060635 0.0
0.896194 -0.084168 0.0
0.940178 -0.078851 0.0
1.007890 -0.028915 0.0
1.073548 0.048317 0.0
1.121137 0.118714 0.0
1.155032 0.176259 0.0
1.179228 0.221621 0.0
1.195387 0.256128 0.0
1.204207 0.280900 0.0
1.206199 0.296791 0.0
1.201978 0.304548 0.0
1.192292 0.304917 0.0
1.177965 0.298702 0.0
1.159838 0.286780 0.0
1.138722 0.270100 0.0
1.115380 0.249680 0.0
1.090515 0.226592 0.0
1.064769 0.201949 0.0
1.038739 0.176829 0.0
1.013015 0.152152 0.0
0.988234 0.128538 0.0
0.965110 0.106227 0.0
0.944411 0.085135 0.0
0.926883 0.065018 0.0
0.913134 0.045673 0.0
0.903550 0.027073 0.0
0.898255 0.009399 0.0
0.897124 -0.007002 0.0
0.899800 -0.021686 0.0
0.905699 -0.034179 0.0
0.914060 -0.044138 0.0
0.924067 -0.051433 0.0
0.934955 -0.056144 0.0
0.946081 -0.058521 0.0
0.956945 -0.058917 0.0
0.967199 -0.057731 0.0
0.976625 -0.055362 0.0
0.985113 -0.052174 0.0
0.992636 -0.048479 0.0
0.999222 -0.044528 0.0
1.004938 -0.040515 0.0
1.009867 -0.036581 0.0
1.014102 -0.032823 0.0
1.017732 -0.029301 0.0
1.020842 -0.026048 0.0
1.023508 -0.023078 0.0
1.025795 -0.020392 0.0
1.027761 -0.017978 0.0
1.029453 -0.015821 0.0
1.030913 -0.013903 0.0
1.032174 -0.012203 0.0
1.033267 -0.010700 0.0
1.034214 -0.009375 0.0
1.035036 -0.008209 0.0
1.035751 -0.007185 0.0
1.036372 -0.006286 0.0
1.036913 -0.005498 0.0
1.037383 -0.004809 0.0
1.037792 -0.004206 0.0
1.038148 -0.003680 0.0
1.038457 -0.003221 0.0
1.038725 -0.002822 0.0
1.038957 -0.002476 0.0
1.039156 -0.002176 0.0
1.039326 -0.001919 0.0
1.039470 -0.001699 0.0
1.039591 -0.001513 0.0
1.039689 -0.001358 0.0
1.039766 -0.001232 0.0
1.039822 -0.001133 0.0
1.039857 -0.001060 0.0
1.039872 -0.001012 0.0
1.039863 -0.000989 0.0
1.039829 -0.000990 0.0
1.039768 -0.001015 0.0
1.039675 -0.001062 0.0
1.039547 -0.001131 0.0
1.039379 -0.001219 0.0
1.039168 -0.001321 0.0
1.038909 -0.001436 0.0
0.999264 -0.013460 0.0
0.996232 -0.040761 0.0
0.989909 -0.070852 0.0
0.979912 -0.106785 0.0
0.965913 -0.152987 0.0
0.948303 -0.216640 0.0
0.930497 -0.310705 0.0
0.927529 -0.457062 0.0
1.023266 -0.812729 0.0
1.029680 -0.185655 0.0
0.858685 -0.096716 0.0
0.728788 -0.081373 0.0
0.660681 -0.052459 0.0
0.603374 -0.007333 0.0
0.531835 0.029959 0.0
0.456168 0.048850 0.0
0.393746 0.048266 0.0
0.355603 0.027405 0.0
0.345900 -0.014950 0.0
0.363843 -0.072682 0.0
0.407768 -0.126475 0.0
0.476477 -0.149237 0.0
0.568065 -0.117829 0.0
0.674583 -0.034946 0.0
0.772137 0.056833 0.0
0.848366 0.128017 0.0
0.910981 0.183053 0.0
0.962942 0.226576 0.0
1.004376 0.260197 0.0
1.035357 0.284521 0.0
1.056397 0.299999 0.0
1.068370 0.307179 0.0
1.072360 0.306778 0.0
1.069521 0.299670 0.0
1.060995 0.286853 0.0
1.047849 0.269415 0.0
1.031061 0.248509 0.0
1.011532 0.225306 0.0
0.990137 0.200897 0.0
0.967797 0.176148 0.0
0.945541 0.151579 0.0
0.924500 0.127351 0.0
0.905825 0.103385 0.0
0.890546 0.079576 0.0
0.879446 0.055965 0.0
0.872995 0.032817 0.0
0.871350 0.010595 0.0
0.874362 -0.010079 0.0
0.881489 -0.028413 0.0
0.891819 -0.043681 0.0
0.904292 -0.055469 0.0
0.917900 -0.063716 0.0
0.931800 -0.068648 0.0
0.945342 -0.070684 0.0
0.958069 -0.070345 0.0
0.969694 -0.068181 0.0
0.980068 -0.064712 0.0
0.989152 -0.060397 0.0
0.996988 -0.055615 0.0
1.003669 -0.050660 0.0
1.009318 -0.045747 0.0
1.014066 -0.041027 0.0
1.018046 -0.036592 0.0
1.021380 -0.032495 0.0
1.024176 -0.028759 0.0
1.026525 -0.025383 0.0
1.028506 -0.022355 0.0
1.030182 -0.019656 0.0
1.031606 -0.017259 0.0
1.032821 -0.015139 0.0
1.033861 -0.013268 0.0
1.034753 -0.011620 0.0
1.035522 -0.010171 0.0
1.036185 -0.008899 0.0
1.036759 -0.007783 0.0
1.037256 -0.006806 0.0
1.037686 -0.005950 0.0
1.038060 -0.005201 0.0
1.038384 -0.004547 0.0
1.038664 -0.003975 0.0
1.038907 -0.003477 0.0
1.039116 -0.003043 0.0
1.039296 -0.002666 0.0
1.039449 -0.002339 0.0
1.039578 -0.002056 0.0
1.039685 -0.001813 0.0
1.039772 -0.001606 0.0
1.039840 -0.001431 0.0
1.039888 -0.001285 0.0
1.039918 -0.001166 0.0
1.039928 -0.001073 0.0
1.039919 -0.001004 0.0
1.039887 -0.000957 0.0
1.039830 -0.000932 0.0
1.039748 -0.000928 0.0
1.039635 -0.000943 0.0
1.039489 -0.000976 0.0
1.039306 -0.001024 0.0
1.039084 -0.001083 0.0
1.038820 -0.001151 0.0
0.998714 -0.011438 0.0
0.993403 -0.034440 0.0
0.982105 -0.059552 0.0
0.963324 -0.089306 0.0
0.934291 -0.127434 0.0
0.889912 -0.180204 0.0
0.820200 -0.259624 0.0
0.705814 -0.390790 0.0
0.317144 -0.687655 0.0
-0.471962 0.235465 0.0
-0.471962 0.000000 0.0
-0.027993 -0.019202 0.0
-0.052360 -0.030945 0.0
-0.028916 0.005015 0.0
0.013508 0.046727 0.0
0.043669 0.077588 0.0
0.047216 0.078404 0.0
0.035168 0.047457 0.0
0.021080 -0.011210 0.0
0.017751 -0.091036 0.0
0.036708 -0.171003 0.0
0.085134 -0.221842 0.0
0.165357 -0.217034 0.0
0.274678 -0.151580 0.0
0.403582 -0.052991 0.0
0.527153 0.038042 0.0
0.628952 0.108615 0.0
0.713825 0.164179 0.0
0.785139 0.209847 0.0
0.843107 0.245922 0.0
0.888253 0.272411 0.0
0.921501 0.289545 0.0
0.944033 0.297891 0.0
0.957130 0.298298 0.0
0.962068 0.291814 0.0
0.960061 0.279606 0.0
0.952273 0.262894 0.0
0.939857 0.242866 0.0
0.924037 0.220552 0.0
0.906176 0.196693 0.0
0.887790 0.171677 0.0
0.870460 0.145623 0.0
0.855689 0.118558 0.0
0.844751 0.090620 0.0
0.838597 0.062175 0.0
0.837816 0.033839 0.0
0.842590 0.006445 0.0
0.852438 -0.018788 0.0
0.866138 -0.040532 0.0
0.882204 -0.057958 0.0
0.899333 -0.070793 0.0
0.916527 -0.079196 0.0
0.933078 -0.083619 0.0
0.948507 -0.084685 0.0
0.962520 -0.083085 0.0
0.974962 -0.079508 0.0
0.985792 -0.074589 0.0
0.995056 -0.068868 0.0
1.002860 -0.062784 0.0
1.009354 -0.056665 0.0
1.014706 -0.050742 0.0
1.019088 -0.045163 0.0
1.022664 -0.040012 0.0
1.025579 -0.035325 0.0
1.027960 -0.031106 0.0
1.029913 -0.027337 0.0
1.031522 -0.023991 0.0
1.032857 -0.021031 0.0
1.033970 -0.018422 0.0
1.034904 -0.016126 0.0
1.035694 -0.014109 0.0
1.036364 -0.012341 0.0
1.036935 -0.010790 0.0
1.037424 -0.009432 0.0
1.037844 -0.008244 0.0
1.038205 -0.007204 0.0
1.038517 -0.006294 0.0
1.038786 -0.005499 0.0
1.039018 -0.004805 0.0
1.039218 -0.004198 0.0
1.039390 -0.003669 0.0
1.039536 -0.003207 0.0
1.039661 -0.002806 0.0
1.039766 -0.002457 0.0
1.039852 -0.002154 0.0
1.039921 -0.001892 0.0
1.039973 -0.001667 0.0
1.040010 -0.001474 0.0
1.040030 -0.001311 0.0
1.040034 -0.001174 0.0
1.040020 -0.001062 0.0
1.039988 -0.000972 0.0
1.039934 -0.000903 0.0
1.039858 -0.000854 0.0
1.039757 -0.000822 0.0
1.039627 -0.000807 0.0
1.039467 -0.000806 0.0
1.039272 -0.000817 0.0
1.039041 -0.000837 0.0
1.038772 -0.000864 0.0
0.998325 -0.008476 0.0
0.991417 -0.025182 0.0
0.976686 -0.042781 0.0
0.951997 -0.062608 0.0
0.913226 -0.086327 0.0
0.852366 -0.116071 0.0
0.752589 -0.154266 0.0
0.574223 -0.203396 0.0
0.229178 -0.239198 0.0
0.000000 0.235465 0.0
-0.000000 -0.000000 0.0
0.000000 0.000000 0.0
-0.017776 -0.017285 0.0
-0.043749 -0.006608 0.0
-0.056865 0.029042 0.0
-0.080118 0.088364 0.0
-0.124639 0.108601 0.0
-0.175059 0.079728 0.0
-0.214301 0.009849 0.0
-0.231552 -0.091516 0.0
-0.223560 -0.197474 0.0
-0.191191 -0.276165 0.0
-0.130254 -0.303873 0.0
-0.032502 -0.271813 0.0
0.093878 -0.188042 0.0
0.233869 -0.090470 0.0
0.370664 -0.001468 0.0
0.485951 0.074101 0.0
0.579649 0.134913 0.0
0.657558 0.184980 0.0
0.721100 0.224666 0.0
0.771219 0.253924 0.0
0.809033 0.273165 0.0
0.835745 0.283214 0.0
0.852558 0.285148 0.0
0.860680 0.280157 0.0
0.861376 0.269434 0.0
0.856054 0.254063 0.0
0.846331 0.234899 0.0
0.834047 0.212490 0.0
0.821200 0.187113 0.0
0.809799 0.158917 0.0
0.801709 0.128126 0.0
0.798486 0.095213 0.0
0.801234 0.060986 0.0
0.810448 0.026593 0.0
0.825570 -0.006206 0.0
0.844722 -0.035136 0.0
0.865686 -0.058848 0.0
0.886873 -0.076894 0.0
0.907290 -0.089403 0.0
0.926366 -0.096856 0.0
0.943790 -0.099934 0.0
0.959413 -0.099422 0.0
0.973186 -0.096132 0.0
0.985130 -0.090847 0.0
0.995322 -0.084272 0.0
1.003881 -0.077007 0.0
1.010958 -0.069528 0.0
1.016730 -0.062187 0.0
1.021379 -0.055222 0.0
1.025089 -0.048776 0.0
1.028031 -0.042917 0.0
1.030357 -0.037661 0.0
1.032195 -0.032990 0.0
1.033654 -0.028864 0.0
1.034818 -0.025237 0.0
1.035754 -0.022055 0.0
1.036512 -0.019270 0.0
1.037133 -0.016833 0.0
1.037646 -0.014704 0.0
1.038073 -0.012843 0.0
1.038430 -0.011217 0.0
1.038732 -0.009796 0.0
1.038988 -0.008555 0.0
1.039205 -0.007471 0.0
1.039391 -0.006524 0.0
1.039549 -0.005697 0.0
1.039685 -0.004974 0.0
1.039800 -0.004343 0.0
1.039897 -0.003793 0.0
1.039979 -0.003312 0.0
1.040046 -0.002893 0.0
1.040101 -0.002528 0.0
1.040143 -0.002210 0.0
1.040172 -0.001934 0.0
1.040190 -0.001695 0.0
1.040196 -0.001488 0.0
1.040188 -0.001310 0.0
1.040167 -0.001158 0.0
1.040130 -0.001028 0.0
1.040077 -0.000920 0.0
1.040005 -0.000830 0.0
1.039912 -0.000757 0.0
1.039795 -0.000700 0.0
1.039651 -0.000656 0.0
1.039478 -0.000623 0.0
1.039274 -0.000601 0.0
1.039037 -0.000585 0.0
1.038763 -0.000574 0.0
0.998173 -0.004975 0.0
0.990676 -0.014278 0.0
0.974811 -0.023089 0.0
0.948599 -0.031398 0.0
0.908495 -0.038662 0.0
0.848679 -0.043061 0.0
0.760540 -0.039359 0.0
0.633144 -0.012542 0.0
0.473466 0.078393 0.0
0.194387 0.175644 0.0
0.000000 0.000000 0.0
-0.000000 -0.000000 0.0
0.000000 0.000000 0.0
-0.000667 0.000794 0.0
-0.031689 0.064317 0.0
-0.107214 0.151868 0.0
-0.191519 0.173923 0.0
-0.258817 0.132125 0.0
-0.300009 0.037887 0.0
-0.310250 -0.092061 0.0
-0.295685 -0.219486 0.0
-0.266844 -0.315361 0.0
-0.226252 -0.366206 0.0
-0.167507 -0.365976 0.0
-0.077637 -0.310130 0.0
0.038588 -0.224598 0.0
0.166085 -0.131632 0.0
0.294116 -0.039053 0.0
0.406136 0.042348 0.0
0.496963 0.108810 0.0
0.571594 0.162661 0.0
0.632442 0.204963 0.0
0.680629 0.236125 0.0
0.717173 0.256997 0.0
0.743078 0.268647 0.0
0.759449 0.272165 0.0
0.767633 0.268546 0.0
0.769310 0.258596 0.0
0.766531 0.242869 0.0
0.761661 0.221674 0.0
0.757242 0.195196 0.0
0.755774 0.163702 0.0
0.759425 0.127780 0.0
0.769702 0.088506 0.0
0.787137 0.047509 0.0
0.810782 0.007212 0.0
0.837652 -0.028818 0.0
0.864576 -0.058599 0.0
0.889900 -0.081674 0.0
0.912915 -0.098270 0.0
0.933406 -0.108936 0.0
0.951402 -0.114395 0.0
0.967045 -0.115462 0.0
0.980520 -0.112991 0.0
0.992017 -0.107834 0.0
1.001726 -0.100798 0.0
1.009824 -0.092611 0.0
1.016487 -0.083890 0.0