# vtk DataFile Version 3.0
Vector Field
ASCII
DATASET RECTILINEAR_GRID
DIMENSIONS 100 26 1
X_COORDINATES 100 double
0.050000 0.150000 0.250000 0.350000 0.450000 0.550000 0.650000 0.750000 0.850000 0.950000 1.050000 1.150000 1.250000 1.350000 1.450000 1.550000 1.650000 1.750000 1.850000 1.950000 2.050000 2.150000 2.250000 2.350000 2.450000 2.550000 2.650000 2.750000 2.850000 2.950000 3.050000 3.150000 3.250000 3.350000 3.450000 3.550000 3.650000 3.750000 3.850000 3.950000 4.050000 4.150000 4.250000 4.350000 4.450000 4.550000 4.650000 4.750000 4.850000 4.950000 5.050000 5.150000 5.250000 5.350000 5.450000 5.550000 5.650000 5.750000 5.850000 5.950000 6.050000 6.150000 6.250000 6.350000 6.450000 6.550000 6.650000 6.750000 6.850000 6.950000 7.050000 7.150000 7.250000 7.350000 7.450000 7.550000 7.650000 7.750000 7.850000 7.950000 8.050000 8.150000 8.250000 8.350000 8.450000 8.550000 8.650000 8.750000 8.850000 8.950000 9.050000 9.150000 9.250000 9.350000 9.450000 9.550000 9.650000 9.750000 9.850000 9.950000 
Y_COORDINATES 26 double
0.050000 0.150000 0.250000 0.350000 0.450000 0.550000 0.650000 0.750000 0.850000 0.950000 1.050000 1.150000 1.250000 1.350000 1.450000 1.550000 1.650000 1.750000 1.850000 1.950000 2.050000 2.150000 2.250000 2.350000 2.450000 2.550000 
Z_COORDINATES 1 double
0.0
POINT_DATA 2600
VECTORS Vektorfeld double
1.000855 -0.000855 0.0
1.004715 -0.003005 0.0
1.013006 -0.005286 0.0
1.025868 -0.007576 0.0
1.043221 -0.009777 0.0
1.064764 -0.011766 0.0
1.089912 -0.013382 0.0
1.117733 -0.014439 0.0
1.146941 -0.014770 0.0
1.175995 -0.014284 0.0
1.203310 -0.013031 0.0
1.227530 -0.011190 0.0
1.247726 -0.009006 0.0
1.263463 -0.006731 0.0
1.274776 -0.004583 0.0
1.282094 -0.002735 0.0
1.286144 -0.001314 0.0
1.287857 -0.000400 0.0
1.288287 -0.000030 0.0
1.288516 -0.000198 0.0
1.289556 -0.000841 0.0
1.292229 -0.001832 0.0
1.297028 -0.002967 0.0
1.303971 -0.003975 0.0
1.312494 -0.004548 0.0
1.321452 -0.004410 0.0
1.329270 -0.003409 0.0
1.334254 -0.001575 0.0
1.334901 0.000928 0.0
1.330094 0.003879 0.0
1.319213 0.007002 0.0
1.302169 0.010041 0.0
1.279333 0.012795 0.0
1.251419 0.015119 0.0
1.219374 0.016927 0.0
1.184275 0.018172 0.0
1.147264 0.018840 0.0
1.109490 0.018934 0.0
1.072087 0.018468 0.0
1.036159 0.017459 0.0
1.002775 0.015925 0.0
0.972968 0.013881 0.0
0.947756 0.011331 0.0
0.928171 0.008254 0.0
0.915294 0.004623 0.0
0.910166 0.000505 0.0
0.913413 -0.003751 0.0
0.925036 -0.007871 0.0
0.944566 -0.011658 0.0
0.971101 -0.014877 0.0
1.003229 -0.017251 0.0
1.038978 -0.018498 0.0
1.075859 -0.018383 0.0
1.111025 -0.016783 0.0
1.141561 -0.013753 0.0
1.164910 -0.009597 0.0
1.179370 -0.004863 0.0
1.184406 -0.000173 0.0
1.180379 0.004200 0.0
1.168078 0.008101 0.0
1.148579 0.011397 0.0
1.123170 0.014012 0.0
1.093231 0.015927 0.0
1.060141 0.017164 0.0
1.025201 0.017776 0.0
0.989604 0.017821 0.0
0.954423 0.017360 0.0
0.920617 0.016446 0.0
0.889037 0.015134 0.0
0.860411 0.013492 0.0
0.835314 0.011605 0.0
0.814123 0.009585 0.0
0.796985 0.007553 0.0
0.783810 0.005622 0.0
0.774308 0.003881 0.0
0.768042 0.002385 0.0
0.764501 0.001156 0.0
0.763144 0.000202 0.0
0.763385 -0.000444 0.0
0.764645 -0.000816 0.0
0.766471 -0.001010 0.0
0.768586 -0.001105 0.0
0.770849 -0.001157 0.0
0.773209 -0.001202 0.0
0.775669 -0.001258 0.0
0.778258 -0.001331 0.0
0.781009 -0.001419 0.0
0.783942 -0.001514 0.0
0.787059 -0.001603 0.0
0.790339 -0.001676 0.0
0.793736 -0.001721 0.0
0.797188 -0.001730 0.0
0.800615 -0.001697 0.0
0.803932 -0.001620 0.0
0.807056 -0.001504 0.0
0.809916 -0.001356 0.0
0.812463 -0.001191 0.0
0.814691 -0.001037 0.0
0.816666 -0.000938 0.0
0.818801 -0.001197 0.0
1.001407 -0.003117 0.0
1.006680 -0.009877 0.0
1.016805 -0.016829 0.0
1.031682 -0.023771 0.0
1.051211 -0.030464 0.0
1.075140 -0.036552 0.0
1.102940 -0.041544 0.0
1.133691 -0.044848 0.0
1.166026 -0.045905 0.0
1.198208 -0.044385 0.0
1.228411 -0.040448 0.0
1.255110 -0.034692 0.0
1.277324 -0.027914 0.0
1.294661 -0.020897 0.0
1.307240 -0.014309 0.0
1.315580 -0.008666 0.0
1.320485 -0.004337 0.0
1.322953 -0.001558 0.0
1.324096 -0.000445 0.0
1.325063 -0.000980 0.0
1.326959 -0.002995 0.0
1.330732 -0.006124 0.0
1.337025 -0.009768 0.0
1.345997 -0.013090 0.0
1.357155 -0.015114 0.0
1.369297 -0.014943 0.0
1.380647 -0.012044 0.0
1.389167 -0.006444 0.0
1.392987 0.001329 0.0
1.390801 0.010472 0.0
1.381999 0.020091 0.0
1.366594 0.029400 0.0
1.345079 0.037787 0.0
1.318290 0.044830 0.0
1.287274 0.050278 0.0
1.253183 0.054010 0.0
1.217204 0.055992 0.0
1.180517 0.056244 0.0
1.144267 0.054810 0.0
1.109562 0.051749 0.0
1.077460 0.047122 0.0
1.048965 0.040987 0.0
1.024998 0.033403 0.0
1.006338 0.024427 0.0
0.993516 0.014150 0.0
0.986821 0.002801 0.0
0.986627 -0.009102 0.0
0.993536 -0.021053 0.0
1.007979 -0.032449 0.0
1.029847 -0.042489 0.0
1.058343 -0.050264 0.0
1.092006 -0.054897 0.0
1.128792 -0.055652 0.0
1.166172 -0.052060 0.0
1.201273 -0.044112 0.0
1.231151 -0.032465 0.0
1.253201 -0.018504 0.0
1.265649 -0.004016 0.0
1.268097 0.009621 0.0
1.261349 0.021730 0.0
1.246700 0.031916 0.0
1.225619 0.039983 0.0
1.199616 0.045898 0.0
1.170143 0.049756 0.0
1.138551 0.051717 0.0
1.106056 0.051971 0.0
1.073742 0.050705 0.0
1.042557 0.048093 0.0
1.013311 0.044315 0.0
0.986667 0.039581 0.0
0.963124 0.034156 0.0
0.942987 0.028361 0.0
0.926358 0.022545 0.0
0.913120 0.017042 0.0
0.902957 0.012126 0.0
0.895387 0.007976 0.0
0.889825 0.004668 0.0
0.885673 0.002198 0.0
0.882489 0.000503 0.0
0.880034 -0.000568 0.0
0.878163 -0.001213 0.0
0.876757 -0.001611 0.0
0.875746 -0.001904 0.0
0.875117 -0.002186 0.0
0.874897 -0.002515 0.0
0.875140 -0.002907 0.0
0.875903 -0.003357 0.0
0.877229 -0.003836 0.0
0.879141 -0.004309 0.0
0.881625 -0.004735 0.0
0.884638 -0.005074 0.0
0.888106 -0.005296 0.0
0.891929 -0.005380 0.0
0.895993 -0.005318 0.0
0.900177 -0.005115 0.0
0.904363 -0.004791 0.0
0.908442 -0.004383 0.0
0.912321 -0.003953 0.0
0.915919 -0.003594 0.0
0.918939 -0.003695 0.0
1.001300 -0.005824 0.0
1.006415 -0.017559 0.0
1.016551 -0.029408 0.0
1.031732 -0.041251 0.0
1.052008 -0.052789 0.0
1.077314 -0.063463 0.0
1.107290 -0.072410 0.0
1.141062 -0.078504 0.0
1.177075 -0.080597 0.0
1.213062 -0.077861 0.0
1.246512 -0.070624 0.0
1.275449 -0.060151 0.0
1.298778 -0.047997 0.0
1.316217 -0.035589 0.0
1.328090 -0.024070 0.0
1.335135 -0.014290 0.0
1.338356 -0.006840 0.0
1.338933 -0.002100 0.0
1.338152 -0.000264 0.0
1.337354 -0.001330 0.0
1.337872 -0.005059 0.0
1.340932 -0.010893 0.0
1.347482 -0.017842 0.0
1.357915 -0.024421 0.0
1.371762 -0.028787 0.0
1.387511 -0.029161 0.0
1.402765 -0.024429 0.0
1.414793 -0.014607 0.0
1.421295 -0.000830 0.0
1.420867 0.015247 0.0
1.412989 0.031996 0.0
1.397852 0.048038 0.0
1.376173 0.062344 0.0
1.348989 0.074244 0.0
1.317500 0.083369 0.0
1.282942 0.089568 0.0
1.246527 0.092828 0.0
1.209404 0.093218 0.0
1.172647 0.090843 0.0
1.137249 0.085820 0.0
1.104121 0.078280 0.0
1.074086 0.068359 0.0
1.047869 0.056215 0.0
1.026119 0.042027 0.0
1.009480 0.026011 0.0
0.998701 0.008415 0.0
0.994626 -0.010447 0.0
0.997960 -0.029951 0.0
1.008980 -0.049015 0.0
1.027408 -0.066219 0.0
1.052494 -0.080117 0.0
1.083201 -0.089413 0.0
1.118251 -0.092971 0.0
1.155980 -0.089850 0.0
1.194095 -0.079539 0.0
1.229572 -0.062393 0.0
1.258949 -0.040002 0.0
1.279143 -0.015159 0.0
1.288613 0.008846 0.0
1.287855 0.030011 0.0
1.278452 0.047687 0.0
1.262128 0.061616 0.0
1.240570 0.071827 0.0
1.215325 0.078545 0.0
1.187746 0.082098 0.0
1.158987 0.082844 0.0
1.130003 0.081130 0.0
1.101573 0.077283 0.0
1.074314 0.071630 0.0
1.048691 0.064531 0.0
1.025034 0.056407 0.0
1.003540 0.047740 0.0
0.984292 0.039044 0.0
0.967267 0.030806 0.0
0.952364 0.023429 0.0
0.939424 0.017182 0.0
0.928264 0.012184 0.0
0.918696 0.008400 0.0
0.910531 0.005650 0.0
0.903576 0.003695 0.0
0.897674 0.002297 0.0
0.892726 0.001233 0.0
0.888673 0.000316 0.0
0.885488 -0.000591 0.0
0.883167 -0.001569 0.0
0.881718 -0.002648 0.0
0.881156 -0.003816 0.0
0.881481 -0.005029 0.0
0.882672 -0.006219 0.0
0.884675 -0.007313 0.0
0.887404 -0.008238 0.0
0.890743 -0.008938 0.0
0.894553 -0.009372 0.0
0.898684 -0.009521 0.0
0.902981 -0.009392 0.0
0.907295 -0.009012 0.0
0.911486 -0.008431 0.0
0.915423 -0.007721 0.0
0.918977 -0.006977 0.0
0.921957 -0.006313 0.0
1.001256 -0.008380 0.0
1.006277 -0.025139 0.0
1.016394 -0.042081 0.0
1.031844 -0.059209 0.0
1.052972 -0.076235 0.0
1.080090 -0.092440 0.0
1.113220 -0.106538 0.0
1.151696 -0.116624 0.0
1.193793 -0.120587 0.0
1.236191 -0.116255 0.0
1.274895 -0.104384 0.0
1.307136 -0.087569 0.0
1.331795 -0.068566 0.0
1.348932 -0.049596 0.0
1.359286 -0.032290 0.0
1.363962 -0.017790 0.0
1.364260 -0.006861 0.0
1.361597 0.000006 0.0
1.357477 0.002531 0.0
1.353478 0.000671 0.0
1.351237 -0.005336 0.0
1.352397 -0.014837 0.0
1.358440 -0.026491 0.0
1.370279 -0.038044 0.0
1.387682 -0.046415 0.0
1.408825 -0.048426 0.0
1.430367 -0.041960 0.0
1.448225 -0.026963 0.0
1.458885 -0.005636 0.0
1.460480 0.018886 0.0
1.452703 0.044011 0.0
1.436191 0.067672 0.0
1.412154 0.088426 0.0
1.382080 0.105420 0.0
1.347505 0.118259 0.0
1.309884 0.126855 0.0
1.270542 0.131298 0.0
1.230652 0.131761 0.0
1.191254 0.128455 0.0
1.153269 0.121592 0.0
1.117514 0.111390 0.0
1.084726 0.098071 0.0
1.055587 0.081859 0.0
1.030761 0.062959 0.0
1.010945 0.041534 0.0
0.996853 0.017762 0.0
0.989072 -0.007938 0.0
0.987839 -0.034562 0.0
0.992939 -0.060524 0.0
1.003864 -0.084062 0.0
1.020186 -0.103682 0.0
1.041830 -0.118198 0.0
1.068976 -0.126382 0.0
1.101583 -0.126775 0.0
1.138810 -0.117955 0.0
1.178562 -0.099206 0.0
1.217322 -0.071326 0.0
1.250464 -0.037172 0.0
1.273400 -0.001548 0.0
1.284113 0.030449 0.0
1.283756 0.057010 0.0
1.274528 0.077845 0.0
1.258570 0.093112 0.0
1.237819 0.103257 0.0
1.213919 0.108864 0.0
1.188209 0.110548 0.0
1.161727 0.108892 0.0
1.135244 0.104433 0.0
1.109311 0.097673 0.0
1.084303 0.089119 0.0
1.060470 0.079310 0.0
1.037979 0.068822 0.0
1.016948 0.058241 0.0
0.997470 0.048112 0.0
0.979614 0.038883 0.0
0.963424 0.030858 0.0
0.948911 0.024181 0.0
0.936048 0.018834 0.0
0.924764 0.014666 0.0
0.914956 0.011442 0.0
0.906514 0.008893 0.0
0.899340 0.006758 0.0
0.893369 0.004815 0.0
0.888567 0.002897 0.0
0.884928 0.000904 0.0
0.882458 -0.001201 0.0
0.881154 -0.003396 0.0
0.880994 -0.005614 0.0
0.881926 -0.007757 0.0
0.883862 -0.009714 0.0
0.886677 -0.011381 0.0
0.890215 -0.012672 0.0
0.894296 -0.013529 0.0
0.898731 -0.013930 0.0
0.903332 -0.013882 0.0
0.907918 -0.013423 0.0
0.912323 -0.012617 0.0
0.916399 -0.011548 0.0
0.920009 -0.010314 0.0
0.923020 -0.008967 0.0
1.001194 -0.010830 0.0
1.006003 -0.032518 0.0
1.015834 -0.054649 0.0
1.031196 -0.077453 0.0
1.052877 -0.100799 0.0
1.081818 -0.123936 0.0
1.118817 -0.145172 0.0
1.163830 -0.161481 0.0
1.215398 -0.169395 0.0
1.268021 -0.162469 0.0
1.314298 -0.143152 0.0
1.350377 -0.117121 0.0
1.375721 -0.089017 0.0
1.391320 -0.061882 0.0
1.398653 -0.037692 0.0
1.399341 -0.017751 0.0
1.395027 -0.002884 0.0
1.387347 0.006373 0.0
1.377955 0.009677 0.0
1.368593 0.006885 0.0
1.361170 -0.001886 0.0
1.357818 -0.016094 0.0
1.360792 -0.034250 0.0
1.371974 -0.053305 0.0
1.391890 -0.068473 0.0
1.418803 -0.074424 0.0
1.448559 -0.067260 0.0
1.475343 -0.046305 0.0
1.493384 -0.014995 0.0
1.499364 0.020670 0.0
1.493008 0.056360 0.0
1.475655 0.089189 0.0
1.449262 0.117338 0.0
1.415943 0.139901 0.0
1.377688 0.156609 0.0
1.336242 0.167572 0.0
1.293086 0.173079 0.0
1.249470 0.173486 0.0
1.206451 0.169147 0.0
1.164942 0.160396 0.0
1.125745 0.147539 0.0
1.089592 0.130863 0.0
1.057163 0.110635 0.0
1.029079 0.087092 0.0
1.005824 0.060472 0.0
0.987580 0.031159 0.0
0.974075 -0.000049 0.0
0.964653 -0.031796 0.0
0.958588 -0.062325 0.0
0.955566 -0.090165 0.0
0.956200 -0.114536 0.0
0.962133 -0.134922 0.0
0.975424 -0.150094 0.0
0.997568 -0.157814 0.0
1.028828 -0.155403 0.0
1.068008 -0.140691 0.0
1.112419 -0.113011 0.0
1.157839 -0.074048 0.0
1.198602 -0.028371 0.0
1.228578 0.016582 0.0
1.245315 0.054496 0.0
1.250474 0.084428 0.0
1.246342 0.106618 0.0
1.235097 0.121748 0.0
1.218671 0.130697 0.0
1.198705 0.134391 0.0
1.176519 0.133717 0.0
1.153130 0.129480 0.0
1.129279 0.122410 0.0
1.105486 0.113184 0.0
1.082108 0.102456 0.0
1.059406 0.090869 0.0
1.037591 0.079039 0.0
1.016853 0.067530 0.0
0.997366 0.056807 0.0
0.979284 0.047206 0.0
0.962718 0.038912 0.0
0.947728 0.031957 0.0
0.934319 0.026237 0.0
0.922454 0.021544 0.0
0.912078 0.017610 0.0
0.903138 0.014155 0.0
0.895600 0.010927 0.0
0.889458 0.007729 0.0
0.884724 0.004445 0.0
0.881413 0.001039 0.0
0.879528 -0.002448 0.0
0.879045 -0.005918 0.0
0.879893 -0.009233 0.0
0.881955 -0.012236 0.0
0.885065 -0.014784 0.0
0.889019 -0.016760 0.0
0.893589 -0.018092 0.0
0.898538 -0.018752 0.0
0.903636 -0.018758 0.0
0.908669 -0.018165 0.0
0.913444 -0.017056 0.0
0.917796 -0.015536 0.0
0.921586 -0.013726 0.0
0.924694 -0.011674 0.0
1.001064 -0.013088 0.0
1.005376 -0.039381 0.0
1.014335 -0.066575 0.0
1.028749 -0.095303 0.0
1.049963 -0.125844 0.0
1.079865 -0.157734 0.0
1.120661 -0.189168 0.0
1.173843 -0.215678 0.0
1.240106 -0.233029 0.0
1.308636 -0.219988 0.0
1.363824 -0.187099 0.0
1.401819 -0.147248 0.0
1.424875 -0.107290 0.0
1.436039 -0.070372 0.0
1.437813 -0.038308 0.0
1.432295 -0.012305 0.0
1.421250 0.007028 0.0
1.406280 0.019112 0.0
1.389096 0.023513 0.0
1.371521 0.019985 0.0
1.355447 0.008512 0.0
1.343044 -0.010736 0.0
1.337343 -0.036881 0.0
1.341832 -0.066345 0.0
1.358633 -0.092150 0.0
1.387047 -0.106075 0.0
1.423324 -0.101643 0.0
1.460954 -0.076335 0.0
1.491444 -0.033496 0.0
1.507505 0.017130 0.0
1.507285 0.066476 0.0
1.493050 0.110662 0.0
1.467723 0.147585 0.0
1.434172 0.176524 0.0
1.394854 0.197559 0.0
1.351775 0.211148 0.0
1.306557 0.217878 0.0
1.260524 0.218335 0.0
1.214793 0.213047 0.0
1.170328 0.202470 0.0
1.127995 0.186993 0.0
1.088597 0.166959 0.0
1.052859 0.142707 0.0
1.021310 0.114654 0.0
0.994021 0.083455 0.0
0.970259 0.050181 0.0
0.948381 0.016312 0.0
0.926370 -0.016724 0.0
0.903323 -0.048284 0.0
0.880530 -0.078391 0.0
0.861346 -0.107759 0.0
0.850136 -0.136421 0.0
0.850392 -0.162141 0.0
0.863509 -0.181027 0.0
0.889010 -0.188952 0.0
0.925338 -0.182650 0.0
0.970301 -0.160426 0.0
1.021022 -0.122773 0.0
1.073541 -0.072928 0.0
1.122102 -0.017397 0.0
1.159925 0.033915 0.0
1.184436 0.075340 0.0
1.197417 0.106858 0.0
1.200887 0.129284 0.0
1.196763 0.143710 0.0
1.186783 0.151325 0.0
1.172457 0.153294 0.0
1.155049 0.150699 0.0
1.135575 0.144515 0.0
1.114826 0.135622 0.0
1.093406 0.124815 0.0
1.071791 0.112827 0.0
1.050367 0.100321 0.0
1.029464 0.087889 0.0
1.009374 0.076024 0.0
0.990341 0.065103 0.0
0.972557 0.055365 0.0
0.956150 0.046902 0.0
0.941190 0.039662 0.0
0.927704 0.033470 0.0
0.915697 0.028067 0.0
0.905177 0.023158 0.0
0.896174 0.018465 0.0
0.888737 0.013769 0.0
0.882931 0.008946 0.0
0.878811 0.003969 0.0
0.876409 -0.001091 0.0
0.875706 -0.006089 0.0
0.876624 -0.010828 0.0
0.879010 -0.015090 0.0
0.882645 -0.018676 0.0
0.887260 -0.021437 0.0
0.892562 -0.023286 0.0
0.898254 -0.024199 0.0
0.904056 -0.024212 0.0
0.909718 -0.023405 0.0
0.915019 -0.021893 0.0
0.919778 -0.019810 0.0
0.923847 -0.017311 0.0
0.927097 -0.014448 0.0
1.000824 -0.014975 0.0
1.004184 -0.045167 0.0
1.011312 -0.076877 0.0
1.023248 -0.111351 0.0
1.041889 -0.149651 0.0
1.070296 -0.192236 0.0
1.112929 -0.238096 0.0
1.174584 -0.281587 0.0
1.263757 -0.322557 0.0
1.354929 -0.290161 0.0
1.414080 -0.231265 0.0
1.445164 -0.172160 0.0
1.458552 -0.118821 0.0
1.460338 -0.071792 0.0
1.453470 -0.031794 0.0
1.439531 0.000639 0.0
1.419565 0.025094 0.0
1.394864 0.040717 0.0
1.367071 0.046885 0.0
1.338024 0.043234 0.0
1.309653 0.029708 0.0
1.283553 0.006570 0.0
1.261651 -0.026584 0.0
1.248657 -0.068138 0.0
1.249951 -0.108452 0.0
1.267746 -0.135982 0.0
1.301090 -0.141356 0.0
1.345690 -0.118851 0.0
1.392753 -0.068534 0.0
1.429221 -0.000360 0.0
1.446609 0.066798 0.0
1.445955 0.125228 0.0
1.431434 0.172866 0.0
1.406624 0.209604 0.0
1.374285 0.236135 0.0
1.336542 0.253392 0.0
1.295097 0.262298 0.0
1.251373 0.263671 0.0
1.206615 0.258201 0.0
1.161947 0.246450 0.0
1.118416 0.228877 0.0
1.077008 0.205881 0.0
1.038584 0.177948 0.0
1.003592 0.145953 0.0
0.971508 0.111529 0.0
0.940315 0.077063 0.0
0.906760 0.044864 0.0
0.867955 0.015540 0.0
0.823956 -0.013502 0.0
0.780302 -0.046726 0.0
0.745920 -0.085857 0.0
0.727003 -0.128197 0.0
0.724530 -0.168150 0.0
0.736381 -0.199985 0.0
0.760004 -0.219119 0.0
0.793494 -0.222300 0.0
0.835457 -0.207701 0.0
0.884498 -0.175260 0.0
0.938677 -0.127140 0.0
0.994962 -0.068031 0.0
1.047747 -0.006060 0.0
1.090428 0.048122 0.0
1.120823 0.090701 0.0
1.140376 0.122417 0.0
1.150632 0.144444 0.0
1.153108 0.158096 0.0
1.149248 0.164709 0.0
1.140375 0.165565 0.0
1.127651 0.161846 0.0
1.112073 0.154618 0.0
1.094479 0.144833 0.0
1.075567 0.133336 0.0
1.055928 0.120876 0.0
1.036063 0.108102 0.0
1.016398 0.095567 0.0
0.997286 0.083707 0.0
0.979001 0.072830 0.0
0.961747 0.063098 0.0
0.945660 0.054511 0.0
0.930839 0.046928 0.0
0.917367 0.040089 0.0
0.905340 0.033683 0.0
0.894881 0.027402 0.0
0.886138 0.021011 0.0
0.879266 0.014383 0.0
0.874393 0.007523 0.0
0.871598 0.000552 0.0
0.870881 -0.006313 0.0
0.872141 -0.012783 0.0
0.875168 -0.018548 0.0
0.879656 -0.023341 0.0
0.885245 -0.026976 0.0
0.891556 -0.029360 0.0
0.898227 -0.030488 0.0
0.904928 -0.030427 0.0
0.911374 -0.029298 0.0
0.917326 -0.027254 0.0
0.922587 -0.024468 0.0
0.927002 -0.021137 0.0
0.930417 -0.017288 0.0
1.000444 -0.016242 0.0
1.002268 -0.049084 0.0
1.006283 -0.084102 0.0
1.013528 -0.123306 0.0
1.026137 -0.168946 0.0
1.048129 -0.223341 0.0
1.086733 -0.288228 0.0
1.152856 -0.359234 0.0
1.275088 -0.456314 0.0
1.389515 -0.362003 0.0
1.429134 -0.258194 0.0
1.432262 -0.179444 0.0
1.424188 -0.116851 0.0
1.411618 -0.062978 0.0
1.394702 -0.016822 0.0
1.371760 0.022548 0.0
1.341755 0.053155 0.0
1.305624 0.073490 0.0
1.264777 0.082753 0.0
1.220699 0.080492 0.0
1.175157 0.066362 0.0
1.130398 0.040774 0.0
1.087125 0.004387 0.0
1.046397 -0.045386 0.0
1.016852 -0.102953 0.0
1.010085 -0.152510 0.0
1.031052 -0.179139 0.0
1.077283 -0.171898 0.0
1.140746 -0.126012 0.0
1.208135 -0.046740 0.0
1.261004 0.042921 0.0
1.291419 0.119344 0.0
1.304094 0.180595 0.0
1.303018 0.227761 0.0
1.290963 0.262372 0.0
1.270023 0.285838 0.0
1.241969 0.299352 0.0
1.208417 0.303893 0.0
1.170886 0.300268 0.0
1.130810 0.289127 0.0
1.089557 0.270985 0.0
1.048439 0.246299 0.0
1.008541 0.215852 0.0
0.969949 0.181633 0.0
0.930328 0.147554 0.0
0.884562 0.117998 0.0
0.828299 0.093746 0.0
0.764255 0.069508 0.0
0.703619 0.037166 0.0
0.658138 -0.008260 0.0
0.632726 -0.064528 0.0
0.625334 -0.123217 0.0
0.630982 -0.176305 0.0
0.645790 -0.218488 0.0
0.667907 -0.246358 0.0
0.696858 -0.257502 0.0
0.732729 -0.250332 0.0
0.775524 -0.224465 0.0
0.824699 -0.181288 0.0
0.878835 -0.124304 0.0
0.935365 -0.059103 0.0
0.988673 0.005175 0.0
1.032725 0.059201 0.0
1.065960 0.101129 0.0
1.089361 0.132076 0.0
1.104013 0.153337 0.0
1.111060 0.166280 0.0
1.111661 0.172267 0.0
1.106936 0.172593 0.0
1.097931 0.168454 0.0
1.085593 0.160930 0.0
1.070764 0.150980 0.0
1.054185 0.139450 0.0
1.036496 0.127081 0.0
1.018245 0.114505 0.0
0.999882 0.102245 0.0
0.981765 0.090693 0.0
0.964170 0.080084 0.0
0.947310 0.070470 0.0
0.931371 0.061729 0.0
0.916544 0.053588 0.0
0.903055 0.045700 0.0
0.891175 0.037723 0.0
0.881204 0.029403 0.0
0.873431 0.020636 0.0
0.868089 0.011486 0.0
0.865305 0.002169 0.0
0.865072 -0.006978 0.0
0.867213 -0.015519 0.0
0.871394 -0.023019 0.0
0.877173 -0.029138 0.0
0.884073 -0.033668 0.0
0.891629 -0.036536 0.0
0.899424 -0.037778 0.0
0.907101 -0.037514 0.0
0.914363 -0.035918 0.0
0.920968 -0.033190 0.0
0.926723 -0.029547 0.0
0.931468 -0.025219 0.0
0.935018 -0.020171 0.0
0.999926 -0.016612 0.0
0.999627 -0.050240 0.0
0.999182 -0.086516 0.0
0.999198 -0.128154 0.0
1.001232 -0.178741 0.0
1.008962 -0.243267 0.0
1.030935 -0.328878 0.0
1.085768 -0.439541 0.0
1.239343 -0.651814 0.0
1.350054 -0.391640 0.0
1.314002 -0.232124 0.0
1.258094 -0.152734 0.0
1.219047 -0.096440 0.0
1.193611 -0.045384 0.0
1.170252 0.005859 0.0
1.140270 0.052791 0.0
1.102518 0.090668 0.0
1.057186 0.117440 0.0
1.004034 0.132801 0.0
0.941632 0.136925 0.0
0.868409 0.128694 0.0
0.785827 0.105784 0.0
0.702879 0.065597 0.0
0.633638 0.003373 0.0
0.594297 -0.082826 0.0
0.596484 -0.168058 0.0
0.636595 -0.224669 0.0
0.703118 -0.239122 0.0
0.787027 -0.206160 0.0
0.881210 -0.128164 0.0
0.974002 -0.021316 0.0
1.048258 0.078909 0.0
1.098842 0.157770 0.0
1.131432 0.219073 0.0
1.148932 0.265614 0.0
1.153264 0.299204 0.0
1.146163 0.321141 0.0
1.129372 0.332446 0.0
1.104634 0.333983 0.0
1.073631 0.326491 0.0
1.037888 0.310618 0.0
0.998470 0.287202 0.0
0.955141 0.258176 0.0
0.905273 0.227769 0.0
0.844693 0.201620 0.0
0.772540 0.181850 0.0
0.696548 0.162148 0.0
0.630955 0.130742 0.0
0.587112 0.080411 0.0
0.566872 0.014215 0.0
0.564015 -0.058735 0.0
0.570850 -0.128454 0.0
0.582839 -0.188706 0.0
0.598236 -0.236291 0.0
0.616843 -0.269279 0.0
0.639395 -0.286083 0.0
0.667087 -0.285315 0.0
0.701040 -0.266231 0.0
0.741781 -0.229439 0.0
0.788917 -0.177425 0.0
0.841014 -0.114609 0.0
0.895437 -0.047050 0.0
0.946600 0.016212 0.0
0.989373 0.068110 0.0
1.022812 0.108255 0.0
1.047489 0.137830 0.0
1.064128 0.158101 0.0
1.073588 0.170385 0.0
1.076799 0.175988 0.0
1.074710 0.176153 0.0
1.068247 0.172033 0.0
1.058278 0.164674 0.0
1.045599 0.155014 0.0
1.030920 0.143885 0.0
1.014852 0.132020 0.0
0.997907 0.120038 0.0
0.980501 0.108423 0.0
0.962975 0.097476 0.0
0.945627 0.087286 0.0
0.928759 0.077720 0.0
0.912723 0.068460 0.0
0.897945 0.059095 0.0
0.884917 0.049236 0.0
0.874147 0.038631 0.0
0.866087 0.027240 0.0
0.861055 0.015255 0.0
0.859174 0.003064 0.0
0.860327 -0.008792 0.0
0.864147 -0.019666 0.0
0.870087 -0.028994 0.0
0.877542 -0.036398 0.0
0.885931 -0.041697 0.0
0.894744 -0.044876 0.0
0.903557 -0.046046 0.0
0.912030 -0.045397 0.0
0.919896 -0.043163 0.0
0.926941 -0.039597 0.0
0.932995 -0.034948 0.0
0.937913 -0.029480 0.0
0.941482 -0.023029 0.0
0.999324 -0.015862 0.0
0.996537 -0.047904 0.0
0.990731 -0.082601 0.0
0.981585 -0.122939 0.0
0.968884 -0.173288 0.0
0.953206 -0.240772 0.0
0.938250 -0.338390 0.0
0.939459 -0.486071 0.0
1.044351 -0.863751 0.0
1.054377 -0.193784 0.0
0.878107 -0.100072 0.0
0.748342 -0.088183 0.0
0.690441 -0.064042 0.0
0.665727 -0.027632 0.0
0.646974 0.030219 0.0
0.618158 0.087228 0.0
0.575704 0.136437 0.0
0.518206 0.174501 0.0
0.445579 0.201519 0.0
0.359089 0.217099 0.0
0.266624 0.214208 0.0
0.185501 0.183975 0.0
0.136134 0.119722 0.0
0.132277 0.022347 0.0
0.168620 -0.098803 0.0
0.227392 -0.213042 0.0
0.297985 -0.290389 0.0
0.378637 -0.320576 0.0
0.469930 -0.299909 0.0
0.571407 -0.230074 0.0
0.680715 -0.121506 0.0
0.785832 -0.000274 0.0
0.871060 0.101142 0.0
0.934296 0.179876 0.0
0.979834 0.241774 0.0
1.009333 0.289213 0.0
1.024137 0.323429 0.0
1.025747 0.345340 0.0
1.015779 0.355796 0.0
0.995800 0.355660 0.0
0.966998 0.345993 0.0
0.929518 0.328724 0.0
0.881747 0.307755 0.0
0.821215 0.288590 0.0
0.748697 0.273897 0.0
0.672609 0.257814 0.0
0.607080 0.227705 0.0
0.563209 0.174650 0.0
0.542614 0.100941 0.0
0.539630 0.016908 0.0
0.547105 -0.066045 0.0
0.559609 -0.140483 0.0
0.573949 -0.203006 0.0
0.588652 -0.252090 0.0
0.603524 -0.286960 0.0
0.619461 -0.306892 0.0
0.638197 -0.310934 0.0
0.661785 -0.298152 0.0
0.691879 -0.268354 0.0
0.729129 -0.222896 0.0
0.772937 -0.165042 0.0
0.821563 -0.099665 0.0
0.872067 -0.032840 0.0
0.919185 0.027271 0.0
0.958848 0.075992 0.0
0.990509 0.113755 0.0
1.014437 0.141608 0.0
1.031134 0.160723 0.0
1.041253 0.172320 0.0
1.045547 0.177616 0.0
1.044808 0.177772 0.0
1.039830 0.173881 0.0
1.031368 0.166947 0.0
1.020112 0.157886 0.0
1.006672 0.147526 0.0
0.991569 0.136580 0.0
0.975247 0.125609 0.0
0.958106 0.114956 0.0
0.940558 0.104702 0.0
0.923082 0.094649 0.0
0.906266 0.084383 0.0
0.890814 0.073402 0.0
0.877486 0.061285 0.0
0.867002 0.047838 0.0
0.859914 0.033182 0.0
0.856513 0.017746 0.0
0.856776 0.002192 0.0
0.860324 -0.012622 0.0
0.866492 -0.025824 0.0
0.874513 -0.036796 0.0
0.883667 -0.045205 0.0
0.893348 -0.050960 0.0
0.903074 -0.054151 0.0
0.912476 -0.054986 0.0
0.921280 -0.053735 0.0
0.929285 -0.050695 0.0
0.936337 -0.046162 0.0
0.942309 -0.040410 0.0
0.947092 -0.033717 0.0
0.950473 -0.025742 0.0
0.998746 -0.013932 0.0
0.993567 -0.041868 0.0
0.982554 -0.071818 0.0
0.964262 -0.106284 0.0
0.936020 -0.149001 0.0
0.892931 -0.206292 0.0
0.825313 -0.290296 0.0
0.715313 -0.425373 0.0
0.323439 -0.744123 0.0
-0.483336 0.262111 0.0
-0.483336 0.000000 0.0
-0.033901 -0.023780 0.0
-0.055687 -0.058879 0.0
-0.003270 -0.060498 0.0
0.082745 -0.004176 0.0
0.137218 0.095965 0.0
0.134242 0.173130 0.0
0.097157 0.232391 0.0
0.039440 0.273973 0.0
-0.023964 0.294538 0.0
-0.077793 0.283062 0.0
-0.110333 0.228783 0.0
-0.115301 0.129247 0.0
-0.092222 -0.006400 0.0
-0.047818 -0.150803 0.0
0.008801 -0.276433 0.0
0.073679 -0.362468 0.0
0.146926 -0.402395 0.0
0.230776 -0.393233 0.0
0.326878 -0.334329 0.0
0.434208 -0.233890 0.0
0.549174 -0.107972 0.0
0.657543 0.015243 0.0
0.745264 0.114817 0.0
0.812417 0.194142 0.0
0.862013 0.257750 0.0
0.895164 0.306936 0.0
0.912951 0.342435 0.0
0.916568 0.365052 0.0
0.907059 0.375892 0.0
0.884834 0.376788 0.0
0.849175 0.371067 0.0
0.798856 0.363502 0.0
0.735143 0.357088 0.0
0.665578 0.347482 0.0
0.603312 0.322583 0.0
0.560010 0.271766 0.0
0.539080 0.195389 0.0
0.536314 0.103563 0.0
0.545205 0.008380 0.0
0.560224 -0.080010 0.0
0.577451 -0.156251 0.0
0.594374 -0.218501 0.0
0.609458 -0.266382 0.0
0.622118 -0.300201 0.0
0.632872 -0.320341 0.0
0.643400 -0.326749 0.0
0.656277 -0.318802 0.0
0.674254 -0.295776 0.0
0.699326 -0.257797 0.0
0.732058 -0.206682 0.0
0.771492 -0.146086 0.0
0.815503 -0.080934 0.0
0.860769 -0.017019 0.0
0.902604 0.038783 0.0
0.938007 0.083900 0.0
0.966605 0.118936 0.0
0.988481 0.144822 0.0
1.003969 0.162615 0.0
1.013565 0.173432 0.0
1.017864 0.178396 0.0
1.017503 0.178597 0.0
1.013118 0.175078 0.0
1.005311 0.168818 0.0
0.994629 0.160717 0.0
0.981562 0.151559 0.0
0.966574 0.141940 0.0
0.950153 0.132186 0.0
0.932879 0.122293 0.0
0.915485 0.111929 0.0
0.898863 0.100540 0.0
0.884014 0.087546 0.0
0.871919 0.072563 0.0
0.863380 0.055582 0.0
0.858882 0.037024 0.0
0.858510 0.017677 0.0
0.861936 -0.001427 0.0
0.868426 -0.019041 0.0
0.877046 -0.034192 0.0
0.886928 -0.046330 0.0
0.897357 -0.055254 0.0
0.907786 -0.061020 0.0
0.917820 -0.063851 0.0
0.927190 -0.064058 0.0
0.935714 -0.061992 0.0
0.943278 -0.058006 0.0
0.949805 -0.052428 0.0
0.955235 -0.045546 0.0
0.959507 -0.037636 0.0
0.962452 -0.028150 0.0
0.998319 -0.010996 0.0
0.991390 -0.032696 0.0
0.976629 -0.055217 0.0
0.951925 -0.079887 0.0
0.913197 -0.108428 0.0
0.852564 -0.143143 0.0
0.753464 -0.186728 0.0
0.576349 -0.241826 0.0
0.230618 -0.291051 0.0
0.000000 0.262111 0.0
-0.000000 -0.000000 0.0
0.000000 0.000000 0.0
-0.033869 -0.035497 0.0
-0.078321 -0.090216 0.0
-0.093282 -0.045511 0.0
-0.094735 0.084281 0.0
-0.100219 0.193274 0.0
-0.124747 0.273861 0.0
-0.159766 0.325240 0.0
-0.194785 0.341694 0.0
-0.219131 0.314082 0.0
-0.224364 0.235537 0.0
-0.205605 0.108702 0.0
-0.165106 -0.049432 0.0
-0.115114 -0.202166 0.0
-0.066589 -0.330214 0.0
-0.018813 -0.421341 0.0
0.033699 -0.469281 0.0
0.096064 -0.472561 0.0
0.173179 -0.428217 0.0
0.266307 -0.340460 0.0
0.371803 -0.221864 0.0
0.482583 -0.090014 0.0
0.583934 0.031003 0.0
0.665366 0.129371 0.0
0.728227 0.210064 0.0
0.774222 0.275477 0.0
0.804019 0.326309 0.0
0.818172 0.363409 0.0
0.816930 0.388286 0.0
0.799958 0.403591 0.0
0.766723 0.413156 0.0
0.718518 0.419937 0.0
0.661490 0.421394 0.0
0.607099 0.407132 0.0
0.567127 0.365172 0.0
0.547047 0.292560 0.0
0.544808 0.197765 0.0
0.555043 0.093719 0.0
0.572746 -0.008370 0.0
0.593904 -0.099436 0.0
0.615491 -0.175640 0.0
0.635392 -0.235936 0.0
0.652019 -0.280657 0.0
0.664397 -0.310965 0.0
0.672402 -0.328335 0.0
0.677064 -0.333944 0.0
0.680716 -0.328134 0.0
0.686644 -0.310348 0.0
0.698158 -0.279811 0.0
0.717451 -0.236692 0.0
0.744898 -0.182957 0.0
0.779148 -0.122325 0.0
0.817732 -0.059479 0.0
0.857010 0.000130 0.0
0.893031 0.051128 0.0
0.923724 0.092417 0.0
0.948662 0.124527 0.0
0.967817 0.148268 0.0
0.981396 0.164603 0.0
0.989753 0.174568 0.0
0.993321 0.179217 0.0
0.992567 0.179597 0.0
0.987955 0.176717 0.0
0.979942 0.171515 0.0
0.968985 0.164786 0.0
0.955594 0.157092 0.0
0.940401 0.148649 0.0
0.924221 0.139284 0.0
0.908078 0.128476 0.0
0.893152 0.115542 0.0
0.880639 0.099907 0.0
0.871566 0.081371 0.0
0.866615 0.060264 0.0
0.866015 0.037440 0.0
0.869529 0.014118 0.0
0.876445 -0.008211 0.0
0.885730 -0.028032 0.0
0.896363 -0.044455 0.0
0.907515 -0.057102 0.0
0.918564 -0.065960 0.0
0.929075 -0.071255 0.0
0.938768 -0.073345 0.0
0.947483 -0.072648 0.0
0.955143 -0.069587 0.0
0.961727 -0.064560 0.0
0.967244 -0.057919 0.0
0.971709 -0.049951 0.0
0.975129 -0.040923 0.0
0.977408 -0.030087 0.0
0.998125 -0.007440 0.0
0.990440 -0.021638 0.0
0.974208 -0.035283 0.0
0.947429 -0.048338 0.0
0.906504 -0.060324 0.0
0.845540 -0.069652 0.0
0.755450 -0.071030 0.0
0.625071 -0.050030 0.0
0.458766 0.034859 0.0
0.184573 0.165756 0.0
0.000000 0.000000 0.0
-0.000000 -0.000000 0.0
0.000000 0.000000 0.0
-0.038401 -0.039816 0.0
-0.094798 -0.023137 0.0
-0.127801 0.096363 0.0
-0.153413 0.212287 0.0
-0.173740 0.299701 0.0
-0.192195 0.352873 0.0
-0.205950 0.362834 0.0
-0.208168 0.319506 0.0
-0.191118 0.218297 0.0
-0.148692 0.064756 0.0
-0.090995 -0.103683 0.0
-0.037392 -0.251511 0.0
0.003596 -0.370383 0.0
0.032157 -0.457510 0.0
0.055003 -0.508471 0.0
0.081794 -0.522528 0.0
0.122375 -0.495945 0.0
0.183723 -0.427208 0.0
0.265602 -0.322492 0.0
0.360963 -0.195528 0.0
0.459386 -0.063256 0.0
0.547040 0.054545 0.0
0.616760 0.152309 0.0
0.669980 0.234018 0.0
0.707139 0.300811 0.0
0.728136 0.353757 0.0
0.732581 0.394736 0.0
0.720149 0.426546 0.0
0.691897 0.451689 0.0
0.652464 0.469044 0.0
0.611081 0.470698 0.0
0.578647 0.444651 0.0
0.562064 0.384207 0.0
0.561540 0.294128 0.0
0.573262 0.186714 0.0
0.593175 0.074621 0.0
0.617766 -0.031567 0.0
0.643841 -0.123471 0.0
0.668949 -0.198299 0.0
0.691265 -0.255493 0.0
0.709381 -0.295842 0.0
0.722283 -0.321059 0.0
0.729434 -0.333397 0.0
0.731049 -0.335160 0.0
0.728507 -0.328029 0.0
0.724598 -0.312472 0.0
0.723132 -0.287736 0.0
0.727823 -0.252750 0.0
0.740957 -0.207480 0.0
0.762698 -0.153793 0.0
0.791348 -0.095244 0.0
0.824147 -0.036181 0.0
0.857340 0.018225 0.0
0.887648 0.064319 0.0
0.913637 0.101697 0.0
0.934801 0.130779 0.0
0.951010 0.152303 0.0