# vtk DataFile Version 3.0
Scalar Field
ASCII
DATASET RECTILINEAR_GRID
DIMENSIONS 100 26 1
X_COORDINATES 100 double
0.050000 0.150000 0.250000 0.350000 0.450000 0.550000 0.650000 0.750000 0.850000 0.950000 1.050000 1.150000 1.250000 1.350000 1.450000 1.550000 1.650000 1.750000 1.850000 1.950000 2.050000 2.150000 2.250000 2.350000 2.450000 2.550000 2.650000 2.750000 2.850000 2.950000 3.050000 3.150000 3.250000 3.350000 3.450000 3.550000 3.650000 3.750000 3.850000 3.950000 4.050000 4.150000 4.250000 4.350000 4.450000 4.550000 4.650000 4.750000 4.850000 4.950000 5.050000 5.150000 5.250000 5.350000 5.450000 5.550000 5.650000 5.750000 5.850000 5.950000 6.050000 6.150000 6.250000 6.350000 6.450000 6.550000 6.650000 6.750000 6.850000 6.950000 7.050000 7.150000 7.250000 7.350000 7.450000 7.550000 7.650000 7.750000 7.850000 7.950000 8.050000 8.150000 8.250000 8.350000 8.450000 8.550000 8.650000 8.750000 8.850000 8.950000 9.050000 9.150000 9.250000 9.350000 9.450000 9.550000 9.650000 9.750000 9.850000 9.950000 
Y_COORDINATES 26 double
0.050000 0.150000 0.250000 0.350000 0.450000 0.550000 0.650000 0.750000 0.850000 0.950000 1.050000 1.150000 1.250000 1.350000 1.450000 1.550000 1.650000 1.750000 1.850000 1.950000 2.050000 2.150000 2.250000 2.350000 2.450000 2.550000 
Z_COORDINATES 1 double
0.0
POINT_DATA 2600
SCALARS Skalarfeld double 1
LOOKUP_TABLE default
0.197912
0.194160
0.186290
0.173873
0.156629
0.134371
0.107073
0.074990
0.038769
-0.000487
-0.041286
-0.081971
-0.120976
-0.156990
-0.188991
-0.216201
-0.238027
-0.254031
-0.263893
-0.267439
-0.264899
-0.256788
-0.243882
-0.227145
-0.207629
-0.186375
-0.164330
-0.142287
-0.120865
-0.100513
-0.081545
-0.064189
-0.048654
-0.035137
-0.023791
-0.015020
-0.009187
-0.006475
-0.006715
-0.009288
-0.013195
-0.017276
-0.020527
-0.022074
-0.021571
-0.019156
-0.015193
-0.010168
-0.004589
0.001081
0.006467
0.011299
0.015415
0.018751
0.021329
0.023240
0.024611
0.025588
0.026301
0.026856
0.027325
0.027746
0.028141
0.028516
0.028873
0.029252
0.029663
0.030107
0.030599
0.031155
0.031785
0.032492
0.033273
0.034113
0.034995
0.035896
0.036794
0.037668
0.038500
0.039277
0.039989
0.040633
0.041209
0.041721
0.042174
0.042578
0.042940
0.043273
0.043585
0.043888
0.044192
0.044505
0.044838
0.045198
0.045592
0.046026
0.046500
0.047008
0.047525
0.048362
0.201080
0.198200
0.190585
0.178164
0.160699
0.137953
0.109837
0.076569
0.038844
-0.002080
-0.044450
-0.086389
-0.126248
-0.162769
-0.195049
-0.222429
-0.244387
-0.260482
-0.270375
-0.273807
-0.270957
-0.262336
-0.248742
-0.231189
-0.210786
-0.188629
-0.165709
-0.142853
-0.120699
-0.099706
-0.080184
-0.062350
-0.046369
-0.032463
-0.021033
-0.012429
-0.007004
-0.004922
-0.005968
-0.009447
-0.014247
-0.019068
-0.022727
-0.024486
-0.023999
-0.021439
-0.017235
-0.011929
-0.006070
-0.000140
0.005475
0.010504
0.014787
0.018266
0.020969
0.022990
0.024460
0.025523
0.026310
0.026923
0.027430
0.027871
0.028268
0.028638
0.029006
0.029362
0.029723
0.030119
0.030571
0.031098
0.031709
0.032407
0.033185
0.034027
0.034915
0.035824
0.036730
0.037612
0.038451
0.039232
0.039948
0.040594
0.041171
0.041682
0.042134
0.042535
0.042895
0.043225
0.043534
0.043834
0.044134
0.044444
0.044773
0.045131
0.045525
0.045962
0.046449
0.046993
0.047608
0.048610
0.209529
0.206883
0.199430
0.186975
0.169150
0.145540
0.115858
0.080195
0.039302
-0.005236
-0.051000
-0.095576
-0.137164
-0.174663
-0.207465
-0.235184
-0.257450
-0.273840
-0.283923
-0.287196
-0.283774
-0.274142
-0.259149
-0.239905
-0.217637
-0.193555
-0.168744
-0.144103
-0.120322
-0.097893
-0.077144
-0.058296
-0.041528
-0.027102
-0.015476
-0.007106
-0.002430
-0.001638
-0.004436
-0.009936
-0.016738
-0.023230
-0.028011
-0.030261
-0.029740
-0.026805
-0.022037
-0.016092
-0.009590
-0.003055
0.003113
0.008643
0.013381
0.017273
0.020351
0.022706
0.024463
0.025757
0.026714
0.027431
0.027982
0.028414
0.028759
0.029046
0.029302
0.029549
0.029813
0.030123
0.030508
0.030986
0.031566
0.032249
0.033026
0.033877
0.034778
0.035704
0.036628
0.037526
0.038378
0.039170
0.039892
0.040541
0.041118
0.041627
0.042075
0.042471
0.042825
0.043147
0.043449
0.043741
0.044033
0.044335
0.044657
0.045008
0.045398
0.045835
0.046332
0.046901
0.047568
0.048627
0.222811
0.220284
0.213008
0.200592
0.182402
0.157657
0.125655
0.086157
0.039918
-0.010947
-0.062465
-0.111168
-0.155147
-0.193771
-0.227064
-0.255151
-0.277902
-0.294832
-0.305249
-0.308362
-0.304089
-0.292864
-0.275628
-0.253674
-0.228436
-0.201312
-0.173540
-0.146131
-0.119853
-0.095248
-0.072670
-0.052339
-0.034411
-0.019124
-0.007112
0.000983
0.004519
0.003223
-0.002488
-0.011386
-0.021558
-0.030814
-0.037255
-0.039926
-0.039082
-0.035339
-0.029522
-0.022465
-0.014895
-0.007382
-0.000338
0.005971
0.011404
0.015917
0.019545
0.022376
0.024527
0.026124
0.027289
0.028121
0.028702
0.029095
0.029350
0.029512
0.029624
0.029726
0.029857
0.030055
0.030355
0.030774
0.031321
0.031991
0.032773
0.033644
0.034574
0.035532
0.036487
0.037414
0.038289
0.039098
0.039832
0.040488
0.041066
0.041572
0.042014
0.042401
0.042745
0.043056
0.043346
0.043624
0.043903
0.044191
0.044500
0.044838
0.045216
0.045644
0.046136
0.046709
0.047384
0.048436
0.240704
0.238346
0.231449
0.219387
0.201116
0.175243
0.140264
0.095153
0.040414
-0.021202
-0.081787
-0.136025
-0.182407
-0.221562
-0.254774
-0.283055
-0.306597
-0.324626
-0.335784
-0.338936
-0.333565
-0.320019
-0.299443
-0.273465
-0.243872
-0.212356
-0.180373
-0.149084
-0.119356
-0.091786
-0.066757
-0.044483
-0.025051
-0.008547
0.004089
0.011929
0.013951
0.009740
-0.000109
-0.013916
-0.029080
-0.042546
-0.051553
-0.054529
-0.052820
-0.047557
-0.039961
-0.031134
-0.021943
-0.013009
-0.004743
0.002615
0.008949
0.014239
0.018532
0.021918
0.024515
0.026447
0.027835
0.028787
0.029396
0.029743
0.029897
0.029921
0.029875
0.029816
0.029797
0.029867
0.030065
0.030422
0.030936
0.031603
0.032404
0.033310
0.034287
0.035295
0.036300
0.037270
0.038181
0.039017
0.039769
0.040434
0.041014
0.041517
0.041951
0.042327
0.042657
0.042952
0.043225
0.043485
0.043744
0.044013
0.044301
0.044618
0.044976
0.045384
0.045857
0.046411
0.047065
0.048071
0.262898
0.260855
0.254766
0.243734
0.226180
0.199764
0.161528
0.108653
0.040489
-0.040155
-0.114343
-0.174419
-0.221403
-0.258898
-0.290439
-0.318425
-0.343455
-0.364020
-0.377080
-0.380996
-0.374435
-0.357675
-0.332313
-0.300607
-0.264916
-0.227362
-0.189690
-0.153240
-0.118985
-0.087589
-0.059474
-0.034870
-0.013825
0.003960
0.017445
0.025246
0.025689
0.018240
0.003789
-0.015543
-0.036619
-0.055631
-0.068819
-0.073486
-0.070453
-0.063049
-0.053013
-0.041813
-0.030499
-0.019749
-0.009956
-0.001324
0.006077
0.012258
0.017290
0.021278
0.024346
0.026624
0.028240
0.029315
0.029955
0.030257
0.030309
0.030191
0.029980
0.029748
0.029565
0.029493
0.029584
0.029873
0.030364
0.031040
0.031880
0.032847
0.033895
0.034980
0.036056
0.037089
0.038050
0.038924
0.039700
0.040379
0.040963
0.041462
0.041886
0.042248
0.042560
0.042835
0.043085
0.043322
0.043557
0.043800
0.044060
0.044349
0.044677
0.045054
0.045494
0.046010
0.046621
0.047554
0.288810
0.287315
0.282708
0.273856
0.258597
0.233331
0.192651
0.129816
0.039910
-0.077009
-0.169342
-0.231159
-0.272843
-0.303703
-0.330350
-0.356998
-0.384821
-0.411190
-0.429494
-0.435986
-0.428558
-0.407597
-0.375704
-0.336255
-0.292480
-0.247078
-0.202134
-0.159176
-0.119283
-0.083190
-0.051393
-0.024226
-0.001846
0.016003
0.030232
0.038431
0.037595
0.027358
0.009261
-0.014141
-0.039592
-0.063266
-0.081201
-0.090419
-0.087739
-0.078649
-0.066362
-0.052859
-0.039436
-0.026849
-0.015495
-0.005548
0.002955
0.010055
0.015843
0.020438
0.023977
0.026598
0.028440
0.029636
0.030308
0.030566
0.030514
0.030247
0.029859
0.029439
0.029077
0.028851
0.028826
0.029047
0.029528
0.030237
0.031147
0.032209
0.033367
0.034561
0.035739
0.036859
0.037890
0.038814
0.039624
0.040320
0.040910
0.041405
0.041817
0.042162
0.042453
0.042704
0.042928
0.043137
0.043341
0.043552
0.043779
0.044031
0.044320
0.044655
0.045048
0.045512
0.046062
0.046902
0.317434
0.316777
0.314533
0.309491
0.299121
0.278570
0.238972
0.165663
0.038598
-0.153243
-0.260298
-0.307277
-0.331557
-0.348113
-0.365110
-0.388340
-0.419883
-0.456711
-0.488339
-0.501438
-0.494422
-0.468630
-0.428721
-0.379864
-0.326454
-0.271844
-0.218462
-0.168016
-0.121685
-0.080288
-0.044431
-0.014676
0.008328
0.024115
0.035165
0.043909
0.041842
0.029449
0.009875
-0.013854
-0.039139
-0.063104
-0.082493
-0.094360
-0.097216
-0.088540
-0.075611
-0.061056
-0.046467
-0.032732
-0.020303
-0.009373
0.000007
0.007875
0.014317
0.019451
0.023412
0.026343
0.028390
0.029694
0.030388
0.030594
0.030426
0.029995
0.029409
0.028779
0.028215
0.027817
0.027669
0.027828
0.028319
0.029096
0.030124
0.031336
0.032656
0.034008
0.035329
0.036567
0.037691
0.038682
0.039536
0.040257
0.040855
0.041345
0.041745
0.042069
0.042336
0.042558
0.042752
0.042927
0.043097
0.043270
0.043457
0.043666
0.043908
0.044191
0.044526
0.044925
0.045399
0.046126
0.347235
0.347698
0.348715
0.349336
0.347313
0.337524
0.308195
0.232290
0.041343
-0.323051
-0.398673
-0.388899
-0.382867
-0.380109
-0.383946
-0.401205
-0.434631
-0.482157
-0.534949
-0.564821
-0.561172
-0.531604
-0.484171
-0.426375
-0.363828
-0.300473
-0.239042
-0.181436
-0.128990
-0.082673
-0.043268
-0.011630
0.010945
0.023267
0.026976
0.025768
0.021124
0.010401
-0.004723
-0.022594
-0.041728
-0.060382
-0.076337
-0.087272
-0.091582
-0.088302
-0.076947
-0.063302
-0.049169
-0.035562
-0.023027
-0.011836
-0.002102
0.006158
0.012987
0.018472
0.022725
0.025877
0.028067
0.029436
0.030119
0.030243
0.029929
0.029299
0.028477
0.027598
0.026799
0.026209
0.025935
0.026049
0.026578
0.027488
0.028713
0.030157
0.031715
0.033291
0.034805
0.036202
0.037447
0.038524
0.039434
0.040185
0.040794
0.041280
0.041665
0.041967
0.042206
0.042397
0.042556
0.042695
0.042825
0.042956
0.043098
0.043258
0.043445
0.043668
0.043935
0.044257
0.044643
0.045242
0.376165
0.377910
0.382752
0.390408
0.399920
0.408275
0.406081
0.362423
0.136975
-0.651945
-0.560123
-0.434069
-0.408629
-0.394699
-0.389158
-0.403220
-0.436873
-0.486258
-0.546476
-0.599850
-0.606595
-0.577236
-0.526655
-0.464472
-0.397073
-0.328747
-0.262510
-0.200570
-0.144644
-0.096261
-0.057087
-0.028890
-0.012528
-0.006929
-0.008852
-0.014728
-0.020685
-0.026567
-0.033366
-0.041266
-0.050146
-0.059480
-0.068172
-0.074696
-0.077579
-0.075936
-0.069486
-0.058401
-0.046261
-0.034123
-0.022601
-0.012052
-0.002675
0.005428
0.012228
0.017753
0.022069
0.025273
0.027482
0.028822
0.029419
0.029393
0.028868
0.027970
0.026846
0.025657
0.024578
0.023777
0.023390
0.023503
0.024149
0.025305
0.026851
0.028640
0.030531
0.032404
0.034168
0.035763
0.037156
0.038337
0.039313
0.040101
0.040723
0.041206
0.041575
0.041853
0.042062
0.042219
0.042341
0.042440
0.042527
0.042612
0.042704
0.042809
0.042936
0.043091
0.043283
0.043519
0.043808
0.044263
0.401890
0.404838
0.413321
0.427901
0.449502
0.479277
0.517889
0.561939
0.646971
-0.002487
-0.486086
-0.412049
-0.413110
-0.407287
-0.406449
-0.418372
-0.447046
-0.488808
-0.541406
-0.591269
-0.614404
-0.589113
-0.541063
-0.481418
-0.416148
-0.349389
-0.284370
-0.223758
-0.169974
-0.125459
-0.092545
-0.072617
-0.064761
-0.065340
-0.069577
-0.074018
-0.074477
-0.072026
-0.068419
-0.064857
-0.062160
-0.060751
-0.060509
-0.060725
-0.060313
-0.058235
-0.053908
-0.047111
-0.037879
-0.028172
-0.018581
-0.009501
-0.001200
0.006144
0.012422
0.017590
0.021654
0.024664
0.026698
0.027851
0.028226
0.027927
0.027070
0.025791
0.024258
0.022679
0.021278
0.020274
0.019837
0.020061
0.020998
0.022579
0.024599
0.026854
0.029167
0.031401
0.033457
0.035277
0.036835
0.038130
0.039177
0.040003
0.040639
0.041118
0.041470
0.041723
0.041900
0.042022
0.042105
0.042162
0.042204
0.042240
0.042278
0.042325
0.042387
0.042470
0.042580
0.042722
0.042905
0.043204
0.422222
0.426017
0.437057
0.456441
0.486270
0.530181
0.594463
0.689719
0.821428
0.844370
0.000000
-0.415478
-0.418907
-0.421745
-0.428021
-0.442726
-0.464559
-0.493633
-0.528472
-0.560985
-0.576023
-0.562255
-0.519777
-0.468335
-0.411636
-0.353155
-0.296145
-0.243633
-0.198701
-0.164456
-0.143113
-0.134437
-0.134801
-0.138660
-0.141318
-0.138664
-0.129814
-0.116955
-0.102226
-0.087367
-0.073713
-0.062195
-0.053281
-0.046885
-0.042365
-0.038740
-0.035050
-0.030651
-0.025096
-0.018246
-0.011128
-0.004103
0.002546
0.008593
0.013869
0.018262
0.021719
0.024233
0.025836
0.026580
0.026532
0.025772
0.024407
0.022586
0.020519
0.018476
0.016754
0.015626
0.015288
0.015830
0.017341
0.019546
0.022176
0.024985
0.027772
0.030392
0.032750
0.034796
0.036515
0.037918
0.039031
0.039892
0.040540
0.041013
0.041347
0.041573
0.041718
0.041804
0.041847
0.041861
0.041857
0.041843
0.041826
0.041812
0.041806
0.041812
0.041835
0.041879
0.041949
0.042083
0.435617
0.439729
0.451677
0.472559
0.504334
0.549881
0.612479
0.693375
0.785992
0.867311
0.775938
0.000000
-0.427752
-0.436597
-0.448306
-0.467065
-0.486018
-0.502244
-0.513722
-0.518692
-0.511186
-0.493397
-0.460975
-0.420597
-0.375944
-0.330277
-0.286743
-0.248609
-0.219443
-0.202273
-0.197604
-0.202128
-0.209696
-0.214235
-0.211750
-0.198765
-0.178979
-0.155039
-0.129473
-0.104378
-0.081331
-0.061428
-0.045314
-0.033177
-0.024696
-0.019069
-0.015223
-0.012118
-0.008998
-0.005294
-0.000805
0.003868
0.008501
0.012862
0.016745
0.019991
0.022496
0.024200
0.025084
0.025151
0.024428
0.022969
0.020878
0.018342
0.015636
0.013118
0.011164
0.010092
0.010073
0.011337
0.013623
0.016584
0.019893
0.023278
0.026532
0.029514
0.032142
0.034382
0.036234
0.037723
0.038887
0.039771
0.040422
0.040884
0.041199
0.041399
0.041512
0.041562
0.041567
0.041538
0.041488
0.041424
0.041351
0.041275
0.041199
0.041127
0.041060
0.041003
0.040956
0.040917
0.441494
0.445389
0.456637
0.475966
0.504533
0.543762
0.594788
0.655894
0.714150
0.729897
0.684564
0.561992
0.000000
-0.452799
-0.469001
-0.500902
-0.523506
-0.525367
-0.505461
-0.473718
-0.438352
-0.404208
-0.371099
-0.338268
-0.306266
-0.275411
-0.249260
-0.231554
-0.225417
-0.231774
-0.247575
-0.266118
-0.279837
-0.283577
-0.272005
-0.248107
-0.217392
-0.183024
-0.147866
-0.114217
-0.083731
-0.057468
-0.035999
-0.019499
-0.007756
-0.000147
0.004319
0.006809
0.008388
0.009820
0.011636
0.013910
0.016390
0.018861
0.021103
0.022930
0.024199
0.024809
0.024691
0.023800
0.022126
0.019709
0.016678
0.013283
0.009900
0.006987
0.004987
0.004233
0.004879
0.007129
0.010323
0.014081
0.018053
0.021962
0.025612
0.028883
0.031713
0.034088
0.036025
0.037563
0.038750
0.039639
0.040283
0.040730
0.041022
0.041196
0.041279
0.041296
0.041263
0.041195
0.041100
0.040987
0.040860
0.040722
0.040577
0.040425
0.040269
0.040108
0.039943
0.039728
0.440243
0.443566
0.453081
0.469137
0.492153
0.522174
0.557774
0.593997
0.617715
0.603032
0.532263
0.439419
0.263480
0.000000
-0.514626
-0.560251
-0.583292
-0.562885
-0.504461
-0.432388
-0.364278
-0.308279
-0.265397
-0.235289
-0.212675
-0.195206
-0.188873
-0.196562
-0.218469
-0.251368
-0.288195
-0.319707
-0.337805
-0.337885
-0.315628
-0.282205
-0.242208
-0.199435
-0.156989
-0.117198
-0.081627
-0.051169
-0.026201
-0.006741
0.007452
0.016878
0.022334
0.024877
0.025636
0.025576
0.025331
0.025391
0.025805
0.026382
0.026900
0.027164
0.027010
0.026305
0.024937
0.022824
0.019932
0.016317
0.012169
0.007840
0.003827
0.000679
-0.001130
-0.001317
0.000550
0.003786
0.007870
0.012355
0.016884
0.021196
0.025122
0.028570
0.031506
0.033938
0.035901
0.037443
0.038622
0.039496
0.040121
0.040546
0.040815
0.040962
0.041018
0.041004
0.040938
0.040833
0.040697
0.040537
0.040357
0.040160
0.039947
0.039718
0.039473
0.039209
0.038927
0.038537
0.432906
0.435430
0.442567
0.454265
0.470216
0.489382
0.509095
0.523547
0.521651
0.485630
0.397251
0.245681
0.087540
-0.364014
-0.667845
-0.612551
-0.620594
-0.577284
-0.491471
-0.390213
-0.297012
-0.223104
-0.169263
-0.132699
-0.112971
-0.107949
-0.122457
-0.156385
-0.205477
-0.262093
-0.316168
-0.357221
-0.377713
-0.368321
-0.338748
-0.298195
-0.251857
-0.203848
-0.157296
-0.114384
-0.076454
-0.044154
-0.017615
0.003360
0.019132
0.030144
0.036968
0.040376
0.041303
0.040683
0.039268
0.037591
0.036249
0.035123
0.033996
0.032685
0.031024
0.028859
0.026049
0.022490
0.018158
0.013162
0.007797
0.002550
-0.001958
-0.005109
-0.006475
-0.005580
-0.002500
0.001718
0.006570
0.011613
0.016515
0.021052
0.025094
0.028586
0.031521
0.033927
0.035852
0.037355
0.038496
0.039337
0.039933
0.040331
0.040575
0.040699
0.040730
0.040690
0.040595
0.040457
0.040283
0.040081
0.039852
0.039598
0.039320
0.039016
0.038685
0.038323
0.037927
0.037367
0.420924
0.422558
0.427090
0.434180
0.443054
0.452113
0.458275
0.456046
0.436425
0.385994
0.286801
0.113410
-0.188699
-0.815568
-0.723140
-0.618172
-0.583881
-0.527357
-0.440112
-0.339348
-0.243991
-0.165454
-0.105137
-0.059497
-0.037021
-0.039418
-0.070886
-0.125520
-0.193990
-0.265602
-0.328880
-0.372935
-0.389736
-0.372845
-0.339121
-0.295198
-0.246489
-0.197115
-0.150025
-0.107145
-0.069550
-0.037656
-0.011401
0.009582
0.025806
0.037795
0.046011
0.050922
0.053109
0.053233
0.051901
0.049564
0.047024
0.044596
0.042053
0.039273
0.036120
0.032433
0.028062
0.022912
0.017008
0.010559
0.004002
-0.002022
-0.006782
-0.009625
-0.010146
-0.007748
-0.003732
0.001229
0.006586
0.011922
0.016950
0.021499
0.025484
0.028882
0.031711
0.034015
0.035851
0.037278
0.038360
0.039155
0.039714
0.040085
0.040306
0.040409
0.040420
0.040358
0.040238
0.040071
0.039865
0.039624
0.039350
0.039044
0.038705
0.038332
0.037920
0.037465
0.036960
0.036238
0.405920
0.406699
0.408768
0.411634
0.414314
0.415053
0.410906
0.397199
0.366981
0.310532
0.214768
0.061950
-0.171728
-0.473649
-0.538254
-0.523726
-0.491537
-0.443005
-0.374537
-0.294902
-0.215801
-0.145646
-0.087597
-0.042774
-0.008036
-0.013430
-0.053211
-0.115831
-0.189802
-0.263608
-0.325659
-0.365939
-0.371030
-0.352485
-0.318462
-0.275454
-0.228590
-0.181669
-0.137309
-0.097145
-0.062030
-0.032236
-0.007622
0.012215
0.027819
0.039770
0.048599
0.054749
0.058556
0.060267
0.060189
0.058638
0.056572
0.053659
0.050182
0.046227
0.041743
0.036605
0.030688
0.023948
0.016508
0.008723
0.001198
-0.005288
-0.009946
-0.012183
-0.011049
-0.007649
-0.002964
0.002379
0.007879
0.013182
0.018066
0.022411
0.026174
0.029359
0.032000
0.034146
0.035855
0.037186
0.038197
0.038940
0.039463
0.039807
0.040008
0.040095
0.040090
0.040012
0.039873
0.039683
0.039449
0.039174
0.038860
0.038507
0.038114
0.037676
0.037190
0.036649
0.036045
0.035174
0.389449
0.389489
0.389454
0.388808
0.386552
0.381047
0.369769
0.349058
0.313929
0.258053
0.174067
0.054829
-0.101146
-0.272639
-0.362420
-0.391129
-0.385229
-0.355751
-0.310225
-0.254396
-0.195804
-0.140629
-0.092223
-0.050490
-0.027851
-0.034481
-0.069134
-0.124371
-0.189757
-0.253727
-0.304687
-0.332518
-0.331964
-0.313785
-0.282942
-0.244559
-0.202934
-0.161307
-0.121921
-0.086174
-0.054794
-0.028010
-0.005700
0.012484
0.027019
0.038426
0.047203
0.053771
0.058431
0.061354
0.062799
0.063787
0.062848
0.060351
0.056698
0.052151
0.046768
0.040498
0.033295
0.025225
0.016564
0.007846
-0.000156
-0.006571
-0.010656
-0.011389
-0.009085
-0.005174
-0.000309
0.004951
0.010191
0.015137
0.019628
0.023591
0.027009
0.029900
0.032300
0.034258
0.035825
0.037052
0.037990
0.038684
0.039174
0.039498
0.039686
0.039762
0.039748
0.039658
0.039506
0.039298
0.039042
0.038739
0.038391
0.037997
0.037554
0.037060
0.036507
0.035889
0.035197
0.034192
0.372862
0.372309
0.370608
0.367256
0.361356
0.351517
0.335745
0.311367
0.275059
0.223103
0.152068
0.060341
-0.048344
-0.159655
-0.237761
-0.278917
-0.290767
-0.280664
-0.254905
-0.219136
-0.178848
-0.138487
-0.101294
-0.072518
-0.058717
-0.065240
-0.092082
-0.134497
-0.184516
-0.232491
-0.268659
-0.284294
-0.282986
-0.267707
-0.242193
-0.210304
-0.175426
-0.140218
-0.106588
-0.075770
-0.048446
-0.024871
-0.004995
0.011440
0.024810
0.035547
0.044076
0.050773
0.055932
0.059751
0.062768
0.064433
0.064475
0.062931
0.059931
0.055595
0.049998
0.043191
0.035268
0.026462
0.017236
0.008308
0.000578
-0.005079
-0.007828
-0.007157
-0.004597
-0.000782
0.003717
0.008446
0.013083
0.017423
0.021354
0.024827
0.027835
0.030394
0.032537
0.034301
0.035727
0.036856
0.037729
0.038381
0.038848
0.039160
0.039341
0.039415
0.039398
0.039304
0.039144
0.038924
0.038651
0.038326
0.037949
0.037520
0.037036
0.036493
0.035883
0.035200
0.034431
0.033311
0.357241
0.356242
0.353301
0.347991
0.339569
0.326936
0.308610
0.282748
0.247274
0.200202
0.140265
0.067997
-0.012572
-0.092357
-0.156043
-0.197684
-0.218156
-0.220836
-0.209865
-0.189464
-0.163689
-0.136428
-0.111395
-0.092629
-0.084379
-0.089718
-0.108775
-0.138462
-0.173126
-0.205705
-0.229179
-0.239390
-0.237713
-0.225480
-0.205111
-0.179349
-0.150765
-0.121496
-0.093157
-0.066852
-0.043235
-0.022600
-0.004966
0.009837
0.022097
0.032158
0.040373
0.047069
0.052522
0.056978
0.060441
0.062640
0.063409
0.062665
0.060393
0.056602
0.051318
0.044623
0.036718
0.027992
0.019071
0.010792
0.004079
-0.000299
-0.001571
-0.000850
0.001367
0.004566
0.008298
0.012212
0.016060
0.019684
0.022994
0.025949
0.028538
0.030770
0.032664
0.034246
0.035544
0.036589
0.037408
0.038032
0.038486
0.038795
0.038980
0.039058
0.039046
0.038954
0.038793
0.038568
0.038283
0.037942
0.037543
0.037087
0.036568
0.035984
0.035328
0.034590
0.033760
0.032547
0.343406
0.342084
0.338264
0.331608
0.321540
0.307236
0.287644
0.261552
0.227742
0.185273
0.133949
0.074957
0.011619
-0.050248
-0.102928
-0.141790
-0.165758
-0.176020
-0.174965
-0.165531
-0.150847
-0.134066
-0.118298
-0.106632
-0.101899
-0.105963
-0.118887
-0.138659
-0.161521
-0.182782
-0.197969
-0.204608
-0.202500
-0.192375
-0.175792
-0.154681
-0.130983
-0.106408
-0.082317
-0.059688
-0.039138
-0.020973
-0.005258
0.008120
0.019381
0.028807
0.036689
0.043301
0.048874
0.053603
0.057330
0.059942
0.061283
0.061215
0.059641
0.056510
0.051834
0.045727
0.038461
0.030518
0.022585
0.015482
0.009999
0.006774
0.005561
0.005893
0.007429
0.009790
0.012633
0.015683
0.018739
0.021669
0.024390
0.026860
0.029062
0.030993
0.032662
0.034083
0.035272
0.036248
0.037031
0.037639
0.038093
0.038410
0.038607
0.038700
0.038699
0.038617
0.038460
0.038236
0.037946
0.037594
0.037180
0.036702
0.036157
0.035541
0.034848
0.034069
0.033194
0.031913
0.331949
0.330393
0.325962
0.318418
0.307332
0.292107
0.272017
0.246296
0.214277
0.175617
0.130607
0.080537
0.028002
-0.023103
-0.068242
-0.104086
-0.129195
-0.143753
-0.149070
-0.147139
-0.140309
-0.131064
-0.121880
-0.115101
-0.112705
-0.115908
-0.124746
-0.137906
-0.152931
-0.166763
-0.176542
-0.180367
-0.177601
-0.168612
-0.154428
-0.136449
-0.116169
-0.094979
-0.074032
-0.054191
-0.036022
-0.019822
-0.005672
0.006511
0.016911
0.025768
0.033332
0.039831
0.045455
0.050301
0.054253
0.057222
0.059060
0.059604
0.058713
0.056307
0.052393
0.047111
0.040771
0.033872
0.027061
0.021032
0.016391
0.013395
0.011910
0.011734
0.012592
0.014191
0.016257
0.018564
0.020942
0.023273
0.025483
0.027530
0.029392
0.031060
0.032535
0.033820
0.034921
0.035848
0.036609
0.037216
0.037681
0.038017
0.038236
0.038350
0.038368
0.038301
0.038155
0.037936
0.037647
0.037290
0.036866
0.036373
0.035809
0.035169
0.034448
0.033641
0.032739
0.031426
0.323299
0.321542
0.316671
0.308548
0.296861
0.281172
0.260983
0.235817
0.205342
0.169538
0.128904
0.084661
0.038872
-0.005667
-0.045901
-0.079361
-0.104671
-0.121594
-0.130838
-0.133775
-0.132181
-0.128019
-0.123263
-0.119738
-0.118919
-0.121682
-0.128070
-0.137204
-0.147413
-0.156612
-0.162833
-0.164529
-0.161051
-0.152558
-0.139767
-0.123747
-0.105704
-0.086802
-0.068040
-0.050187
-0.033757
-0.019029
-0.006082
0.005155
0.014851
0.023223
0.030499
0.036883
0.042537
0.047482
0.051641
0.054930
0.057199
0.058268
0.057977
0.056226
0.053019
0.048506
0.043000
0.036973
0.030999
0.025658
0.021402
0.018423
0.016729
0.016172
0.016533
0.017567
0.019048
0.020782
0.022626
0.024477
0.026270
0.027968
0.029548
0.030999
0.032315
0.033492
0.034528
0.035423
0.036177
0.036794
0.037280
0.037642
0.037888
0.038028
0.038069
0.038021
0.037889
0.037679
0.037395
0.037038
0.036609
0.036107
0.035529
0.034873
0.034132
0.033305
0.032393
0.031103
0.317830
0.315768
0.310520
0.302015
0.289989
0.274094
0.253963
0.229291
0.199929
0.166020
0.128140
0.087423
0.045598
0.004866
-0.032435
-0.064327
-0.089554
-0.107721
-0.119220
-0.125060
-0.126652
-0.125609
-0.123573
-0.122044
-0.122214
-0.124786
-0.129825
-0.136694
-0.144163
-0.150661
-0.154673
-0.154955
-0.150924
-0.142625
-0.130604
-0.115735
-0.099048
-0.081563
-0.064176
-0.047590
-0.032283
-0.018518
-0.006372
0.004221
0.013419
0.021427
0.028460
0.034712
0.040358
0.045383
0.049728
0.053295
0.055913
0.057386
0.057537
0.056257
0.053547
0.049560
0.044608
0.039139
0.033677
0.028753
0.024714
0.021770
0.019960
0.019168
0.019207
0.019869
0.020955
0.022298
0.023771
0.025285
0.026782
0.028229
0.029605
0.030898
0.032099
0.033199
0.034190
0.035064
0.035817
0.036447
0.036952
0.037338
0.037609
0.037773
0.037835
0.037804
0.037685
0.037484
0.037206
0.036851
0.036421
0.035914
0.035328
0.034659
0.033903
0.033056
0.032128
0.030957
0.316114
0.313142
0.307513
0.298781
0.286601
0.270642
0.250595
0.226226
0.197468
0.164525
0.127992
0.088945
0.048954
0.009961
-0.025993
-0.057141
-0.082299
-0.101016
-0.113554
-0.120755
-0.123855
-0.124295
-0.123548
-0.122961
-0.123600
-0.126099
-0.130539
-0.136398
-0.142642
-0.147955
-0.151023
-0.150663
-0.146374
-0.138169
-0.126514
-0.112191
-0.096138
-0.079306
-0.062539
-0.046509
-0.031680
-0.018309
-0.006479
0.003868
0.012880
0.020753
0.027685
0.033846
0.039328
0.044311
0.048775
0.052537
0.055386
0.057100
0.057488
0.056432
0.053938
0.050168
0.045445
0.040212
0.034960
0.030121
0.026097
0.023179
0.021340
0.020466
0.020384
0.020901
0.021831
0.023018
0.024341
0.025717
0.027090
0.028428
0.029711
0.030928
0.032069
0.033123
0.034082
0.034936
0.035679
0.036305
0.036814
0.037206
0.037484
0.037656
0.037727
0.037702
0.037590
0.037393
0.037117
0.036763
0.036332
0.035823
0.035233
0.034557
0.033789
0.032917
0.031918
0.030816
